/*--------------------------------*- C++ -*----------------------------------*\
| =========                 |                                                 |
| \\      /  F ield         | OpenFOAM: The Open Source CFD Toolbox           |
|  \\    /   O peration     | Version:  2412                                  |
|   \\  /    A nd           | Website:  www.openfoam.com                      |
|    \\/     M anipulation  |                                                 |
\*---------------------------------------------------------------------------*/
FoamFile
{
    version     2.0;
    format      ascii;
    arch        "LSB;label=32;scalar=64";
    class       volScalarField;
    location    "0.425";
    object      p;
}
// * * * * * * * * * * * * * * * * * * * * * * * * * * * * * * * * * * * * * //

dimensions      [0 2 -2 0 0 0 0];

internalField   nonuniform List<scalar> 
12600
(
0.052795
-154.81
-204.988
-201.862
-189.507
-178.011
-167.927
-158.906
-150.73
-143.239
-136.307
-129.839
-123.762
-118.019
-112.564
-107.359
-102.374
-97.5834
-92.9653
-88.5015
-84.1759
-79.9747
-75.886
-71.899
-68.0047
-64.1947
-60.4618
-56.7993
-53.2014
-49.6627
-46.1784
-42.744
-39.3554
-36.0089
-32.7008
-29.4282
-26.1879
-22.9772
-19.7937
-16.6348
-13.4984
-10.3822
-7.28431
-4.2027
-1.13559
1.91882
4.96211
7.99594
11.0218
14.0411
17.0551
20.0652
23.072
26.0769
29.0808
32.0853
35.0915
38.1012
41.1145
44.1325
47.1541
50.1804
53.2115
56.2494
59.295
62.3491
65.4114
68.4799
71.5557
74.6362
77.7279
80.8248
83.936
87.0472
90.1704
93.2878
96.4193
99.5475
102.692
105.831
108.974
112.103
115.229
118.345
121.476
124.589
127.725
130.801
133.921
136.967
140.082
143.134
146.228
149.323
152.36
155.44
158.536
161.803
165.031
168.157
171.003
174.546
178.151
183.498
190.197
199.945
209.255
218.276
223.742
229.12
231.37
237.265
239.717
246.653
250.425
255.854
261.704
264.547
270.768
270.337
-24.2286
-123.986
-171.506
-181.223
-178.098
-171.437
-163.76
-156.054
-148.682
-141.72
-135.156
-128.954
-123.075
-117.482
-112.143
-107.029
-102.116
-97.3824
-92.8107
-88.3845
-84.0897
-79.9138
-75.8458
-71.876
-67.9959
-64.1977
-60.4745
-56.8201
-53.2289
-49.6957
-46.216
-42.7853
-39.3997
-36.0555
-32.7494
-29.4782
-26.239
-23.0292
-19.8461
-16.6876
-13.5513
-10.4351
-7.33696
-4.25506
-1.18755
1.86732
4.91114
7.94556
10.972
13.992
17.0067
20.0175
23.025
26.0307
29.0354
32.0407
35.0477
38.0581
41.0722
44.0907
47.1131
50.1401
53.1719
56.2106
59.257
62.3119
65.3749
68.444
71.5204
74.6015
77.6938
80.7913
83.9032
87.0149
90.1387
93.2567
96.3889
99.5177
102.663
105.802
108.946
112.075
115.202
118.319
121.45
124.563
127.7
130.776
133.897
136.944
140.059
143.111
146.205
149.301
152.338
155.418
158.514
161.782
165.01
168.14
170.985
174.527
178.127
183.464
190.145
199.881
209.191
218.225
223.705
229.096
231.345
237.24
239.689
246.621
250.397
255.821
261.677
264.52
270.748
270.334
-41.126
-102.62
-145.473
-163.009
-166.414
-163.86
-158.789
-152.702
-146.329
-140.008
-133.876
-127.977
-122.319
-116.891
-111.677
-106.66
-101.823
-97.1508
-92.6278
-88.2408
-83.9779
-79.828
-75.7814
-71.8293
-67.9638
-64.1777
-60.4645
-56.8185
-53.2341
-49.7067
-46.2316
-42.8048
-39.4224
-36.0808
-32.7768
-29.5072
-26.2693
-23.0605
-19.8782
-16.7202
-13.5842
-10.4681
-7.37007
-4.28808
-1.2204
1.83473
4.87886
7.91365
10.9405
13.9609
16.9761
19.9874
22.9955
26.0018
29.007
32.0129
35.0204
38.0314
41.046
44.0651
47.088
50.1155
53.1479
56.1871
59.2341
62.2896
65.3531
68.4227
71.4995
74.5811
77.6738
80.7718
83.8841
86.9963
90.1205
93.239
96.3716
99.5009
102.646
105.786
108.93
112.06
115.187
118.304
121.436
124.55
127.686
130.763
133.884
136.931
140.047
143.1
146.194
149.29
152.327
155.407
158.503
161.771
165
168.13
170.975
174.516
178.113
183.445
190.122
199.85
209.158
218.2
223.686
229.084
231.333
237.228
239.675
246.605
250.383
255.803
261.663
264.506
270.737
270.331
-49.1169
-88.9488
-124.421
-145.004
-153.287
-154.654
-152.416
-148.265
-143.18
-137.719
-132.173
-126.686
-121.323
-116.112
-111.063
-106.172
-101.434
-96.8399
-92.3793
-88.0427
-83.8208
-79.7045
-75.6855
-71.7563
-67.9098
-64.1396
-60.4397
-56.8047
-53.2296
-49.7099
-46.2413
-42.8199
-39.442
-36.1042
-32.8033
-29.5363
-26.3005
-23.0933
-19.9124
-16.7555
-13.6203
-10.5048
-7.4072
-4.32548
-1.25792
1.79718
4.8414
7.87633
10.9034
13.9241
16.9397
19.9513
22.9599
25.9666
28.9723
31.9786
34.9867
37.9982
41.0133
44.0328
47.0562
50.0842
53.1171
56.1569
59.2044
62.2604
65.3245
68.3945
71.4719
74.5539
77.6471
80.7456
83.8583
86.9709
90.0956
93.2145
96.3476
99.4774
102.623
105.764
108.908
112.038
115.165
118.283
121.415
124.529
127.666
130.744
133.865
136.912
140.028
143.081
146.175
149.272
152.309
155.39
158.485
161.753
164.984
168.116
170.96
174.5
178.092
183.416
190.075
199.797
209.108
218.161
223.658
229.065
231.313
237.208
239.652
246.578
250.36
255.776
261.642
264.484
270.723
270.329
-54.2418
-80.7638
-107.716
-127.434
-138.602
-143.42
-144.115
-142.22
-138.774
-134.476
-129.752
-124.851
-119.913
-115.016
-110.201
-105.489
-100.889
-96.403
-92.0283
-87.7606
-83.5943
-79.5234
-75.5417
-71.6432
-67.8222
-64.0731
-60.3909
-56.7707
-53.2081
-49.6989
-46.239
-42.825
-39.4532
-36.1205
-32.8239
-29.5605
-26.3277
-23.1231
-19.9441
-16.7888
-13.6549
-10.5405
-7.44361
-4.36244
-1.29526
1.75963
4.80375
7.83871
10.8659
13.8868
16.9026
19.9146
22.9235
25.9306
28.9368
31.9436
34.9522
37.9642
40.9798
43.9999
47.0238
50.0523
53.0858
56.1261
59.1743
62.2308
65.2955
68.366
71.4439
74.5264
77.6202
80.7192
83.8324
86.9456
90.0707
93.1901
96.3238
99.4541
102.6
105.741
108.886
112.017
115.144
118.262
121.395
124.51
127.647
130.725
133.846
136.894
140.011
143.064
146.158
149.255
152.293
155.374
158.468
161.737
164.969
168.103
170.946
174.484
178.071
183.387
190.035
199.749
209.061
218.125
223.631
229.048
231.295
237.19
239.631
246.554
250.339
255.751
261.622
264.464
270.71
270.328
-57.5993
-75.7758
-95.4172
-112.334
-124.216
-131.186
-134.286
-134.578
-132.942
-130.05
-126.383
-122.268
-117.916
-113.458
-108.975
-104.518
-100.114
-95.7817
-91.5281
-87.3568
-83.268
-79.2598
-75.3293
-71.4729
-67.6866
-63.9664
-60.3082
-56.7081
-53.1623
-49.6672
-46.2192
-42.8152
-39.4518
-36.1262
-32.8356
-29.5772
-26.3486
-23.1475
-19.9715
-16.8185
-13.6866
-10.5738
-7.47822
-4.39806
-1.33165
1.72266
4.76639
7.8011
10.8282
13.8491
16.865
19.8771
22.8863
25.8937
28.9002
31.9074
34.9164
37.9289
40.945
43.9655
46.9899
50.0189
53.0529
56.0938
59.1425
62.1996
65.2648
68.3359
71.4143
74.4973
77.5916
80.6911
83.8048
86.9185
90.0441
93.164
96.2982
99.429
102.576
105.717
108.862
111.993
115.122
118.24
121.373
124.488
127.626
130.704
133.826
136.875
139.991
143.045
146.139
149.237
152.275
155.355
158.45
161.719
164.952
168.088
170.929
174.465
178.047
183.353
189.985
199.693
209.009
218.086
223.603
229.029
231.273
237.168
239.606
246.527
250.315
255.722
261.6
264.442
270.697
270.327
-59.2856
-72.325
-86.6797
-100.407
-111.526
-119.274
-123.87
-125.876
-125.89
-124.44
-121.961
-118.79
-115.176
-111.292
-107.255
-103.145
-99.0139
-94.8958
-90.8123
-86.7768
-82.797
-78.877
-75.0182
-71.2205
-67.4826
-63.8024
-60.1775
-56.6051
-53.0824
-49.6067
-46.1751
-42.7848
-39.433
-36.1172
-32.8348
-29.5834
-26.3607
-23.1645
-19.9927
-16.8433
-13.7143
-10.6039
-7.51025
-4.4317
-1.36659
1.6867
4.72964
7.76377
10.7904
13.8111
16.8269
19.839
22.8482
25.8558
28.8625
31.87
34.8794
37.8922
40.9087
43.9297
46.9545
49.984
53.0185
56.0599
59.1092
62.1668
65.2325
68.3041
71.383
74.4666
77.5614
80.6614
83.7757
86.8899
90.016
93.1365
96.2711
99.4025
102.55
105.692
108.837
111.969
115.098
118.217
121.35
124.466
127.604
130.683
133.805
136.854
139.971
143.026
146.119
149.217
152.255
155.336
158.43
161.7
164.934
168.072
170.912
174.445
178.021
183.316
189.934
199.635
208.955
218.046
223.574
229.009
231.251
237.146
239.581
246.499
250.29
255.692
261.576
264.419
270.683
270.326
-59.8065
-69.5944
-80.3395
-91.2161
-100.897
-108.478
-113.733
-116.841
-118.124
-117.934
-116.603
-114.423
-111.636
-108.428
-104.939
-101.269
-97.492
-93.6583
-89.804
-85.9537
-82.124
-78.3263
-74.5674
-70.8517
-67.1813
-63.5569
-59.9783
-56.4445
-52.9541
-49.5054
-46.0965
-42.7253
-39.3896
-36.0874
-32.8165
-29.5749
-26.3604
-23.1711
-20.0052
-16.8607
-13.7359
-10.629
-7.53829
-4.46216
-1.39904
1.65263
4.69426
7.72735
10.7532
13.7733
16.7886
19.8004
22.8095
25.8171
28.8239
31.8316
34.8412
37.8543
40.8711
43.8924
46.9176
49.9476
52.9825
56.0244
59.0742
62.1323
65.1985
68.2707
71.3501
74.4342
77.5296
80.6302
83.745
86.8597
89.9864
93.1073
96.2425
99.3745
102.522
105.665
108.811
111.943
115.072
118.192
121.326
124.442
127.581
130.66
133.782
136.832
139.949
143.004
146.098
149.197
152.235
155.316
158.409
161.679
164.915
168.055
170.892
174.423
177.991
183.276
189.876
199.572
208.898
218.005
223.545
228.989
231.227
237.122
239.553
246.468
250.263
255.66
261.552
264.394
270.671
270.326
-59.6091
-67.1939
-75.4504
-84.0325
-92.151
-99.0626
-104.385
-108.054
-110.182
-110.959
-110.608
-109.348
-107.383
-104.888
-102.004
-98.8422
-95.4869
-92.0024
-88.4362
-84.8235
-81.19
-77.5541
-73.9292
-70.3244
-66.7462
-63.1985
-59.6839
-56.2035
-52.7578
-49.3467
-45.9693
-42.6246
-39.3114
-36.0282
-32.7733
-29.5452
-26.3423
-23.1628
-20.0051
-16.8676
-13.7488
-10.6468
-7.56036
-4.48776
-1.42759
1.62163
4.66124
7.69268
10.7172
13.7362
16.7507
19.762
22.7706
25.7779
28.7845
31.7922
34.8019
37.8151
40.8321
43.8538
46.8793
49.9096
52.9449
55.9873
59.0376
62.0962
65.1629
68.2355
71.3155
74.4001
77.4961
80.5972
83.7126
86.8278
89.955
93.0765
96.2123
99.3448
102.493
105.636
108.783
111.916
115.045
118.165
121.3
124.417
127.556
130.635
133.758
136.808
139.926
142.982
146.076
149.175
152.213
155.294
158.387
161.658
164.895
168.037
170.871
174.399
177.959
183.23
189.814
199.505
208.837
217.961
223.514
228.967
231.202
237.096
239.522
246.435
250.234
255.626
261.526
264.368
270.658
270.328
-58.9372
-64.9306
-71.4164
-78.2382
-84.9389
-90.9903
-96.0169
-99.8443
-102.447
-103.893
-104.302
-103.821
-102.603
-100.793
-98.519
-95.8908
-92.9962
-89.9055
-86.674
-83.3443
-79.9496
-76.515
-73.0595
-69.5973
-66.1391
-62.6924
-59.2629
-55.8543
-52.4692
-49.1092
-45.775
-42.4669
-39.1847
-35.9277
-32.6951
-29.4859
-26.299
-23.1332
-19.9871
-16.8595
-13.749
-10.6542
-7.57368
-4.50616
-1.45026
1.59537
4.63198
7.66093
10.6834
13.7007
16.7139
19.724
22.7319
25.7385
28.7447
31.7522
34.7617
37.7749
40.792
43.8137
46.8394
49.8701
52.9058
55.9486
58.9992
62.0583
65.1255
68.1985
71.279
74.3641
77.4607
80.5624
83.6784
86.7941
89.9219
93.044
96.1803
99.3135
102.462
105.606
108.753
111.887
115.017
118.137
121.273
124.39
127.53
130.609
133.733
136.783
139.901
142.958
146.052
149.152
152.19
155.271
158.364
161.635
164.874
168.018
170.849
174.373
177.923
183.18
189.745
199.432
208.773
217.917
223.482
228.945
231.174
237.068
239.49
246.4
250.203
255.589
261.498
264.341
270.646
270.33
-57.9201
-62.7208
-67.9055
-73.3926
-78.9026
-84.0812
-88.627
-92.344
-95.1371
-96.9898
-97.944
-98.0798
-97.4965
-96.3026
-94.6048
-92.5005
-90.074
-87.3963
-84.5258
-81.5097
-78.3859
-75.1847
-71.9297
-68.6394
-65.3284
-62.0077
-58.6858
-55.3691
-52.0626
-48.7696
-45.4926
-42.2334
-38.9928
-35.7713
-32.569
-29.3857
-26.2209
-23.074
-19.944
-16.8301
-13.7312
-10.6464
-7.57438
-4.51405
-1.46426
1.57621
4.60847
7.63377
10.6532
13.668
16.679
19.6875
22.6939
25.6995
28.7049
31.7117
34.7208
37.7338
40.7507
43.7724
46.7982
49.8289
52.8649
55.908
58.959
62.0185
65.0861
68.1596
71.2406
74.3262
77.4234
80.5256
83.6422
86.7585
89.8868
93.0095
96.1465
99.2803
102.43
105.574
108.722
111.856
114.987
118.108
121.244
124.361
127.502
130.582
133.706
136.757
139.875
142.933
146.026
149.127
152.165
155.246
158.338
161.61
164.852
167.997
170.824
174.343
177.884
183.126
189.671
199.354
208.706
217.87
223.449
228.922
231.145
237.038
239.455
246.363
250.171
255.549
261.469
264.311
270.635
270.334
-56.6383
-60.5242
-64.7287
-69.1956
-73.7368
-78.1173
-82.1184
-85.568
-88.3496
-90.4007
-91.7084
-92.2997
-92.2284
-91.5642
-90.3858
-88.773
-86.8003
-84.5346
-82.0334
-79.3457
-76.5119
-73.5655
-70.5338
-67.4385
-64.2975
-61.1246
-57.9311
-54.7259
-51.5159
-48.3064
-45.1016
-41.9047
-38.7179
-35.5428
-32.3805
-29.2315
-26.0963
-22.9747
-19.8666
-16.7714
-13.6886
-10.6175
-7.55726
-4.50698
-1.46577
1.56741
4.59347
7.61352
10.6285
13.6396
16.6475
19.6533
22.6576
25.6615
28.6655
31.6713
34.6796
37.6919
40.7084
43.7299
46.7555
49.7863
52.8223
55.8656
58.917
61.9767
65.0447
68.1186
71.2
74.2862
77.384
80.4868
83.6039
86.7208
89.8497
92.973
96.1106
99.2451
102.395
105.54
108.688
111.823
114.955
118.076
121.213
124.331
127.473
130.553
133.677
136.729
139.848
142.906
145.999
149.101
152.139
155.22
158.311
161.584
164.828
167.974
170.796
174.311
177.84
183.065
189.591
199.27
208.634
217.821
223.414
228.897
231.113
237.006
239.419
246.323
250.136
255.506
261.438
264.279
270.625
270.339
-55.1513
-58.3257
-61.7732
-65.4471
-69.2081
-72.8963
-76.361
-79.4685
-82.1088
-84.2021
-85.7045
-86.6057
-86.9235
-86.6936
-85.966
-84.7988
-83.2523
-81.3847
-79.2493
-76.8935
-74.3585
-71.6792
-68.8852
-66.0009
-63.0465
-60.0386
-56.9904
-53.9131
-50.8155
-47.7047
-44.5864
-41.4651
-38.3444
-35.227
-32.115
-29.0098
-25.9126
-22.824
-19.7445
-16.6741
-13.6127
-10.5601
-7.51582
-4.47926
-1.44983
1.57325
4.59066
7.60334
10.612
13.6178
16.6212
19.6233
22.6244
25.6256
28.6275
31.6316
34.6385
37.6498
40.6655
43.6863
46.7115
49.742
52.778
55.8213
58.8728
61.9328
65.0011
68.0753
71.1572
74.2439
77.3422
80.4456
83.5633
86.6807
89.8103
92.9342
96.0725
99.2077
102.359
105.504
108.653
111.789
114.921
118.043
121.18
124.299
127.441
130.522
133.647
136.699
139.819
142.877
145.97
149.073
152.111
155.192
158.283
161.556
164.803
167.95
170.767
174.275
177.792
183
189.505
199.181
208.559
217.771
223.377
228.87
231.08
236.972
239.379
246.28
250.1
255.46
261.406
264.244
270.616
270.346
-53.5099
-56.1198
-58.9693
-62.016
-65.1478
-68.251
-71.2235
-73.9684
-76.3942
-78.4223
-79.9959
-81.0828
-81.675
-81.7827
-81.43
-80.6529
-79.4949
-78.0022
-76.2205
-74.193
-71.9588
-69.5529
-67.0057
-64.3431
-61.5872
-58.7566
-55.8667
-52.9303
-49.958
-46.9585
-43.939
-40.9052
-37.8619
-34.8129
-31.7612
-28.7092
-25.6587
-22.6112
-19.5676
-16.5287
-13.4948
-10.4661
-7.4427
-4.42426
-1.41053
1.59897
4.60466
7.60725
10.6073
13.6056
16.6027
19.5994
22.596
25.5934
28.5921
31.5936
34.5984
37.6079
40.6222
43.6419
46.6663
49.6962
52.7319
55.7751
58.8265
61.8866
64.955
68.0295
71.1118
74.1989
77.2978
80.4017
83.5201
86.6381
89.7683
92.8929
96.0319
99.1679
102.32
105.466
108.616
111.752
114.885
118.008
121.146
124.265
127.408
130.489
133.615
136.668
139.788
142.847
145.94
149.043
152.081
155.162
158.253
161.526
164.776
167.924
170.734
174.236
177.74
182.931
189.413
199.087
208.48
217.717
223.338
228.842
231.043
236.936
239.338
246.235
250.062
255.41
261.372
264.206
270.609
270.357
-51.7429
-53.8989
-56.2688
-58.8129
-61.4349
-64.0493
-66.587
-68.9809
-71.1602
-73.0566
-74.6122
-75.7853
-76.5521
-76.905
-76.8488
-76.3997
-75.5841
-74.4345
-72.9869
-71.2772
-69.3408
-67.2101
-64.9149
-62.4817
-59.9334
-57.29
-54.5686
-51.7836
-48.9471
-46.0693
-43.1587
-40.2224
-37.2662
-34.2949
-31.3126
-28.3223
-25.3267
-22.3279
-19.3275
-16.3268
-13.3267
-10.3278
-7.3306
-4.33514
-1.34156
1.65034
4.64069
7.62994
10.6184
13.6067
16.5952
19.5844
22.5747
25.5668
28.561
31.5587
34.5603
37.5672
40.5793
43.5973
46.6203
49.6492
52.6841
55.7268
58.778
61.8379
64.9063
67.9809
71.0635
74.151
77.2505
80.355
83.474
86.5925
89.7234
92.8487
95.9885
99.1254
102.278
105.425
108.575
111.713
114.846
117.97
121.109
124.229
127.373
130.455
133.582
136.635
139.755
142.815
145.907
149.012
152.05
155.13
158.22
161.494
164.747
167.896
170.699
174.193
177.685
182.849
189.316
198.988
208.396
217.66
223.295
228.811
231.004
236.897
239.296
246.187
250.023
255.357
261.336
264.165
270.603
270.37
-49.871
-51.6588
-53.64
-55.7766
-57.9823
-60.1896
-62.3512
-64.4219
-66.3499
-68.0793
-69.5578
-70.7425
-71.6023
-72.1185
-72.2829
-72.0969
-71.5715
-70.7259
-69.5847
-68.1757
-66.5277
-64.6694
-62.6281
-60.4291
-58.0955
-55.6477
-53.1038
-50.4794
-47.7879
-45.041
-42.2483
-39.4182
-36.5575
-33.6721
-30.7669
-27.846
-24.9126
-21.9695
-19.019
-16.0629
-13.1026
-10.1391
-7.1734
-4.20592
-1.2371
1.7329
4.70396
7.67626
10.6499
13.6252
16.6023
19.5817
22.5635
25.5482
28.5362
31.5286
34.5257
37.5289
40.5378
43.5532
46.574
49.6013
52.6349
55.6767
58.7272
61.7866
64.8548
67.9293
71.012
74.0999
77.1998
80.3048
83.4245
86.5436
89.6752
92.8013
95.9419
99.0798
102.233
105.381
108.532
111.671
114.805
117.93
121.07
124.191
127.336
130.418
133.546
136.599
139.721
142.781
145.873
148.979
152.017
155.097
158.187
161.46
164.717
167.866
170.66
174.147
177.624
182.771
189.216
198.885
208.307
217.598
223.248
228.777
230.963
236.856
239.252
246.137
249.983
255.3
261.298
264.121
270.598
270.387
-47.9117
-49.398
-51.0608
-52.8636
-54.7268
-56.5946
-58.4343
-60.2163
-61.9037
-63.4529
-64.8196
-65.9641
-66.8541
-67.4653
-67.7821
-67.7959
-67.5059
-66.9195
-66.0506
-64.9178
-63.5426
-61.9482
-60.1579
-58.1947
-56.0803
-53.8347
-51.4762
-49.021
-46.4835
-43.8762
-41.2101
-38.4945
-35.7373
-32.9454
-30.1247
-27.2799
-24.4153
-21.5343
-18.6397
-15.7339
-12.8189
-9.89617
-6.96698
-4.03223
-1.09269
1.85119
4.79897
7.75059
10.7058
13.6649
16.6278
19.5947
22.5654
25.5406
28.5203
31.5056
34.4966
37.4946
40.499
43.5106
46.5283
49.553
52.5846
55.6249
58.6742
61.7328
64.8003
67.8744
70.9571
74.0451
77.1454
80.2509
83.3711
86.4908
89.6231
92.75
95.8916
99.0305
102.185
105.334
108.486
111.626
114.761
117.887
121.028
124.15
127.297
130.379
133.508
136.562
139.684
142.746
145.837
148.944
151.982
155.062
158.151
161.424
164.684
167.834
170.619
174.098
177.567
182.689
189.115
198.779
208.213
217.531
223.193
228.739
230.918
236.813
239.208
246.086
249.943
255.24
261.258
264.073
270.594
270.409
-45.8781
-47.116
-48.5158
-50.0423
-51.6216
-53.2055
-54.7711
-56.2997
-57.7655
-59.1353
-60.3732
-61.4448
-62.3196
-62.9726
-63.3841
-63.54
-63.4318
-63.0576
-62.4221
-61.5352
-60.4108
-59.0656
-57.5182
-55.7878
-53.8937
-51.8543
-49.6873
-47.4087
-45.0334
-42.5744
-40.0434
-37.4506
-34.8051
-32.1145
-29.3855
-26.6239
-23.8345
-21.0216
-18.1887
-15.3388
-12.4742
-9.59712
-6.70912
-3.81153
-0.9055
2.00823
4.92891
7.85622
10.7897
13.7294
16.6749
19.6264
22.5835
25.5468
28.5159
31.492
34.475
37.4661
40.4645
43.471
46.4843
49.5054
52.5341
55.572
58.6194
61.6765
64.7429
67.8162
70.8985
73.9864
77.0869
80.1927
83.3134
86.4337
89.5667
92.6944
95.837
98.977
102.132
105.283
108.436
111.577
114.714
117.841
120.983
124.106
127.254
130.338
133.468
136.523
139.645
142.709
145.799
148.908
151.946
155.026
158.114
161.386
164.649
167.8
170.575
174.048
177.492
182.609
189.015
198.672
208.114
217.457
223.131
228.696
230.871
236.768
239.165
246.032
249.904
255.176
261.218
264.022
270.591
270.435
-43.7808
-44.8126
-45.9933
-47.2897
-48.6319
-49.9776
-51.3101
-52.6183
-53.8848
-55.0845
-56.1888
-57.1691
-57.9988
-58.6539
-59.1141
-59.3629
-59.3873
-59.1794
-58.7365
-58.0612
-57.1603
-56.0443
-54.726
-53.2204
-51.5432
-49.7105
-47.7383
-45.6419
-43.4355
-41.1325
-38.7449
-36.2834
-33.7577
-31.1764
-28.5468
-25.8756
-23.1684
-20.4301
-17.6648
-14.8763
-12.0674
-9.24073
-6.3985
-3.54237
-0.673899
2.20584
5.09578
7.99534
10.9038
13.8209
16.7461
19.6794
22.6203
25.5691
28.5254
31.4901
34.4631
37.4453
40.436
43.4358
46.4433
49.4596
52.4842
55.5187
58.5633
61.6182
64.6828
67.7548
70.8362
73.9236
77.024
80.1299
83.2509
86.3716
89.5053
92.6339
95.7774
98.9188
102.075
105.227
108.381
111.524
114.662
117.791
120.935
124.059
127.209
130.293
133.425
136.481
139.605
142.67
145.759
148.87
151.908
154.989
158.077
161.347
164.612
167.765
170.529
173.996
177.435
182.536
188.921
198.565
208.009
217.372
223.056
228.646
230.82
236.722
239.124
245.978
249.867
255.111
261.176
263.969
270.59
270.466
-41.6282
-42.4881
-43.4852
-44.5883
-45.7315
-46.8763
-48.0105
-49.1282
-50.2179
-51.2609
-52.2347
-53.1159
-53.8821
-54.5121
-54.9865
-55.2883
-55.403
-55.3189
-55.0287
-54.5293
-53.8214
-52.9098
-51.802
-50.5081
-49.0398
-47.4101
-45.6326
-43.7209
-41.6883
-39.5475
-37.3104
-34.9879
-32.5902
-30.1261
-27.6039
-25.0308
-22.4129
-19.756
-17.0649
-14.3436
-11.596
-8.82502
-6.03335
-3.22315
-0.396386
2.4455
5.30107
8.16947
11.0496
13.9412
16.8432
19.7556
22.6776
25.6095
28.5506
31.5019
34.4627
37.4342
40.4153
43.4067
46.4068
49.4168
52.436
55.4661
58.5068
61.5584
64.6204
67.6903
70.7703
73.8566
76.9566
80.0622
83.1833
86.3043
89.4385
92.5679
95.7124
98.8552
102.013
105.167
108.322
111.466
114.606
117.737
120.883
124.008
127.161
130.247
133.381
136.438
139.562
142.63
145.718
148.832
151.87
154.951
158.04
161.307
164.575
167.73
170.487
173.95
177.377
182.472
188.837
198.462
207.896
217.275
222.967
228.587
230.766
236.674
239.086
245.923
249.834
255.045
261.133
263.916
270.59
270.503
-39.4269
-40.1428
-40.9854
-41.9252
-42.9001
-43.8749
-44.8401
-45.7936
-46.7279
-47.6293
-48.4801
-49.2614
-49.9548
-50.5421
-51.006
-51.3304
-51.5005
-51.5035
-51.3292
-50.9706
-50.4242
-49.6897
-48.7699
-47.6702
-46.3983
-44.9635
-43.3767
-41.6489
-39.7919
-37.8173
-35.7362
-33.5594
-31.2968
-28.9577
-26.5507
-24.0832
-21.5623
-18.994
-16.3838
-13.7364
-11.0561
-8.34642
-5.61056
-2.85113
-0.070582
2.72929
5.54663
8.3803
11.2289
14.0917
16.9677
19.8565
22.757
25.6696
28.5932
31.5287
34.4754
37.4342
40.4039
43.3851
46.3763
49.3785
52.3909
55.4151
58.4508
61.4982
64.5565
67.6234
70.7011
73.7858
76.8847
79.9897
83.1105
86.2314
89.3659
92.496
95.6414
98.7856
101.944
105.1
108.257
111.404
114.545
117.679
120.827
123.954
127.11
130.197
133.333
136.392
139.518
142.589
145.677
148.793
151.831
154.915
158.004
161.268
164.538
167.696
170.44
173.91
177.334
182.427
188.77
198.365
207.775
217.162
222.858
228.516
230.709
236.624
239.053
245.868
249.804
254.981
261.089
263.865
270.592
270.546
-37.1826
-37.7774
-38.4891
-39.2903
-40.1223
-40.9525
-41.7735
-42.5854
-43.3841
-44.1591
-44.8967
-45.5817
-46.199
-46.7336
-47.1705
-47.4951
-47.6938
-47.7534
-47.6628
-47.4129
-46.997
-46.4113
-45.6547
-44.7286
-43.6368
-42.385
-40.9807
-39.4324
-37.7497
-35.9424
-34.0207
-31.9942
-29.8728
-27.6654
-25.3806
-23.0263
-20.6098
-18.1374
-15.6153
-13.0486
-10.4421
-7.79981
-5.12548
-2.42216
0.307234
3.06051
5.83538
8.63041
11.4438
14.2746
17.1214
19.9837
22.8601
25.7508
28.6546
31.5722
34.5026
37.4468
40.4031
43.3725
46.353
49.3459
52.35
55.3671
58.3965
61.4384
64.4919
67.5549
70.6294
73.7117
76.8088
79.9125
83.0324
86.1529
89.2873
92.418
95.5641
98.7096
101.869
105.027
108.185
111.335
114.479
117.615
120.766
123.896
127.055
130.144
133.284
136.345
139.473
142.547
145.635
148.755
151.795
154.882
157.972
161.231
164.503
167.667
170.418
173.878
177.309
182.408
188.728
198.278
207.645
217.028
222.726
228.43
230.647
236.572
239.025
245.81
249.78
254.921
261.044
263.819
270.595
270.595
-34.9001
-35.3926
-35.9931
-36.676
-37.386
-38.0928
-38.7904
-39.4804
-40.1608
-40.8241
-41.4591
-42.0538
-42.5959
-43.0732
-43.4729
-43.7825
-43.9895
-44.0818
-44.0481
-43.8784
-43.5646
-43.1003
-42.4816
-41.7067
-40.7759
-39.6917
-38.4583
-37.0815
-35.5683
-33.9265
-32.1646
-30.2911
-28.3149
-26.2445
-24.0882
-21.8537
-19.5485
-17.1793
-14.7524
-12.2733
-9.74732
-7.17887
-4.5722
-1.93075
0.742076
3.44372
6.17144
8.92349
11.6976
14.4927
17.3069
20.1395
22.9889
25.8551
28.7365
31.6339
34.5458
37.4734
40.4144
43.3702
46.3383
49.3203
52.3146
55.3232
58.3449
61.3801
64.4277
67.4858
70.556
73.6351
76.7295
79.8313
82.9497
86.0692
89.2031
92.3339
95.4805
98.6273
101.788
104.948
108.108
111.26
114.406
117.546
120.7
123.833
126.996
130.089
133.232
136.296
139.427
142.507
145.596
148.72
151.762
154.854
157.946
161.2
164.475
167.648
170.406
173.873
177.314
182.427
188.718
198.205
207.506
216.87
222.565
228.325
230.581
236.517
239.003
245.748
249.759
254.865
260.996
263.783
270.599
270.651
-32.5833
-32.9893
-33.495
-34.0765
-34.6819
-35.2829
-35.8746
-36.4596
-37.0372
-37.602
-38.1451
-38.6568
-39.1272
-39.5462
-39.9034
-40.188
-40.3891
-40.4959
-40.4977
-40.3845
-40.1476
-39.7795
-39.2741
-38.6274
-37.8371
-36.9028
-35.8259
-34.6094
-33.2577
-31.7763
-30.1719
-28.4513
-26.6223
-24.6923
-22.6691
-20.56
-18.3724
-16.1129
-13.7879
-11.4033
-8.96465
-6.47666
-3.94402
-1.37053
1.23994
3.88452
6.55998
9.2643
11.9948
14.7501
17.5278
20.3273
23.1464
25.9851
28.8413
31.716
34.607
37.5157
40.4394
43.3797
46.3336
49.3031
52.2861
55.2848
58.2974
61.3247
64.3651
67.4171
70.4821
73.5569
76.6478
79.7469
82.863
85.981
89.1137
92.2444
95.3909
98.5388
101.7
104.862
108.023
111.179
114.328
117.472
120.629
123.767
126.933
130.03
133.179
136.247
139.381
142.468
145.559
148.69
151.735
154.834
157.929
161.179
164.457
167.643
170.421
173.897
177.359
182.495
188.751
198.151
207.357
216.684
222.374
228.199
230.508
236.457
238.987
245.681
249.74
254.811
260.943
263.76
270.605
270.712
-30.236
-30.5686
-30.9931
-31.4874
-32.0028
-32.5129
-33.0134
-33.5076
-33.996
-34.4744
-34.9357
-35.3721
-35.7756
-36.1379
-36.4504
-36.7043
-36.89
-36.998
-37.0188
-36.9431
-36.762
-36.4675
-36.0528
-35.5123
-34.8417
-34.0385
-33.1016
-32.0317
-30.8307
-29.5018
-28.0496
-26.4792
-24.7966
-23.0084
-21.1211
-19.1415
-17.0764
-14.9323
-12.7155
-10.4318
-8.08701
-5.68603
-3.23388
-0.734603
1.80747
4.38924
7.00697
9.65843
12.3404
15.0514
17.7885
20.551
23.3361
26.144
28.972
31.8211
34.6886
37.5761
40.4802
43.4029
46.3407
49.296
52.2659
55.2532
58.2553
61.2735
64.3053
67.3502
70.4087
73.4785
76.5648
79.6604
82.7733
85.8892
89.02
92.15
95.296
98.4448
101.607
104.77
107.933
111.092
114.244
117.393
120.554
123.696
126.868
129.97
133.124
136.199
139.337
142.433
145.526
148.666
151.717
154.826
157.927
161.172
164.454
167.663
170.45
173.961
177.458
182.624
188.833
198.12
207.199
216.467
222.147
228.048
230.426
236.391
238.978
245.606
249.72
254.756
260.879
263.751
270.608
270.778
-27.8615
-28.1317
-28.4865
-28.9055
-29.3431
-29.7747
-30.1966
-30.6123
-31.023
-31.4257
-31.8147
-32.1835
-32.5255
-32.8341
-33.1022
-33.3224
-33.4867
-33.587
-33.6147
-33.5614
-33.4189
-33.1792
-32.8352
-32.3804
-31.8095
-31.1184
-30.3043
-29.3656
-28.3022
-27.1154
-25.8075
-24.3818
-22.8426
-21.195
-19.4444
-17.5965
-15.6575
-13.6332
-11.5297
-9.35267
-7.1078
-4.80007
-2.43473
-0.0159334
2.4516
4.96461
7.51888
10.112
12.7403
15.4022
18.0941
20.8154
23.5626
26.336
29.1324
31.9528
34.7938
37.6573
40.5393
43.4422
46.3617
49.3009
52.256
55.2303
58.2203
61.2278
64.2499
67.2863
70.3373
73.4009
76.4817
79.573
82.6818
85.7949
88.923
92.052
95.1967
98.3462
101.508
104.674
107.837
111
114.155
117.309
120.474
123.622
126.799
129.908
133.068
136.151
139.294
142.402
145.5
148.651
151.71
154.833
157.941
161.185
164.474
167.703
170.531
174.079
177.619
182.821
188.973
198.113
207.034
216.22
221.887
227.87
230.335
236.315
238.973
245.523
249.695
254.692
260.803
263.755
270.604
270.847
-25.4624
-25.6796
-25.9744
-26.3281
-26.6984
-27.062
-27.4159
-27.7636
-28.1069
-28.4434
-28.7685
-29.0768
-29.3631
-29.6218
-29.8472
-30.033
-30.1726
-30.2591
-30.2851
-30.2431
-30.1256
-29.9251
-29.6347
-29.2476
-28.7581
-28.1609
-27.4521
-26.6286
-25.6886
-24.6315
-23.4577
-22.1689
-20.7675
-19.257
-17.6415
-15.9256
-14.1143
-12.2127
-10.2266
-8.16087
-6.02126
-3.81247
-1.53989
0.792368
3.17928
5.61754
8.1025
10.6317
13.2009
15.8085
18.4503
21.1257
23.8308
26.5657
29.3266
32.1149
34.9262
37.7627
40.6199
43.5004
46.3993
49.3203
52.2585
55.218
58.1941
61.1895
64.2003
67.2271
70.2692
73.3257
76.3998
79.486
82.5897
85.6994
88.8239
91.9513
95.0941
98.244
101.405
104.573
107.736
110.903
114.06
117.221
120.39
123.544
126.727
129.845
133.012
136.104
139.254
142.375
145.48
148.646
151.714
154.855
157.976
161.218
164.517
167.791
170.657
174.255
177.85
183.089
189.172
198.134
206.866
215.944
221.594
227.666
230.234
236.227
238.969
245.433
249.663
254.613
260.7
263.767
270.59
270.917
-23.0412
-23.2132
-23.4564
-23.7535
-24.0651
-24.3698
-24.6648
-24.9535
-25.238
-25.5166
-25.7855
-26.0402
-26.2762
-26.4892
-26.6743
-26.8265
-26.9401
-27.0092
-27.0277
-26.9888
-26.8859
-26.7124
-26.4614
-26.1267
-25.7022
-25.1823
-24.5622
-23.8379
-23.0064
-22.0655
-21.0142
-19.8524
-18.5811
-17.2019
-15.7178
-14.1318
-12.4479
-10.6703
-8.80387
-6.85294
-4.82283
-2.71785
-0.543383
1.69672
3.99719
6.35485
8.76463
11.2242
13.7287
16.2766
18.8632
21.4879
24.1461
26.8383
29.5597
32.3119
35.0899
37.8963
40.7255
43.5809
46.4565
49.3568
52.2759
55.2185
58.1789
61.1606
64.1584
67.1742
70.2061
73.2543
76.3207
79.4006
82.4984
85.6038
88.7238
91.8493
94.9894
98.1395
101.299
104.468
107.632
110.803
113.963
117.13
120.303
123.465
126.653
129.781
132.955
136.059
139.215
142.354
145.468
148.651
151.732
154.894
158.031
161.281
164.59
167.906
170.838
174.491
178.148
183.425
189.427
198.181
206.698
215.647
221.274
227.437
230.123
236.124
238.961
245.336
249.622
254.512
260.575
263.778
270.545
270.984
-20.6003
-20.7338
-20.9323
-21.1801
-21.4407
-21.6942
-21.9379
-22.1753
-22.4086
-22.6366
-22.8561
-23.0633
-23.2544
-23.4259
-23.5738
-23.6938
-23.7814
-23.8314
-23.8385
-23.7971
-23.7012
-23.545
-23.3223
-23.0271
-22.6536
-22.1961
-21.6495
-21.0093
-20.2715
-19.433
-18.4915
-17.4456
-16.2948
-15.0394
-13.6808
-12.2206
-10.6619
-9.00753
-7.26144
-5.42717
-3.50951
-1.51213
0.55977
2.70276
4.91146
7.18299
9.51194
11.8962
14.3303
16.8131
19.3391
21.9081
24.5145
27.1593
29.8367
32.5489
35.2897
38.0623
40.8601
43.6872
46.5368
49.4137
52.3113
55.2347
58.1773
61.1431
64.1263
67.1294
70.1498
73.1883
76.2457
79.3185
82.4092
85.5094
88.6241
91.747
94.8836
98.0337
101.191
104.362
107.526
110.7
113.862
117.036
120.213
123.383
126.578
129.715
132.898
136.015
139.18
142.337
145.462
148.665
151.762
154.947
158.106
161.357
164.685
168.065
171.062
174.781
178.505
183.816
189.73
198.252
206.533
215.335
220.934
227.187
230
236.004
238.947
245.234
249.568
254.384
260.441
263.776
270.485
271.043
-18.1418
-18.2424
-18.4024
-18.6072
-18.8232
-19.032
-19.2311
-19.424
-19.6127
-19.7964
-19.9724
-20.1376
-20.2888
-20.4229
-20.5367
-20.6267
-20.689
-20.7192
-20.7129
-20.6651
-20.5709
-20.4248
-20.2215
-19.9555
-19.6213
-19.2135
-18.7269
-18.1568
-17.4988
-16.749
-15.9044
-14.9624
-13.9215
-12.7806
-11.5399
-10.1998
-8.76202
-7.22814
-5.60128