/*--------------------------------*- C++ -*----------------------------------*\
| =========                 |                                                 |
| \\      /  F ield         | OpenFOAM: The Open Source CFD Toolbox           |
|  \\    /   O peration     | Version:  2412                                  |
|   \\  /    A nd           | Website:  www.openfoam.com                      |
|    \\/     M anipulation  |                                                 |
\*---------------------------------------------------------------------------*/
FoamFile
{
    version     2.0;
    format      ascii;
    arch        "LSB;label=32;scalar=64";
    class       surfaceScalarField;
    location    "0.425";
    object      phi_0;
}
// * * * * * * * * * * * * * * * * * * * * * * * * * * * * * * * * * * * * * //

dimensions      [0 3 -1 0 0 0 0];

oriented        oriented;

internalField   nonuniform List<scalar> 
24930
(
0.0179658
0.0127486
-0.0307157
0.0106052
0.00736057
0.00695593
0.00364929
0.00518026
0.00177567
0.0042083
0.000971961
0.00358541
0.000622894
0.00313947
0.000445931
0.00279992
0.000339556
0.00253069
0.000269229
0.00231073
0.000219963
0.00212687
0.000183851
0.00197041
0.000156468
0.00183527
0.000135136
0.00171712
0.00011815
0.00161275
0.000104374
0.00151972
9.30262e-05
0.00143617
8.35509e-05
0.00136063
7.55455e-05
0.00129191
6.8712e-05
0.00122909
6.28254e-05
0.00117138
5.77132e-05
0.00111814
5.32409e-05
0.00106883
4.93024e-05
0.00102302
4.58132e-05
0.000980318
4.27051e-05
0.000940396
3.99227e-05
0.000902976
3.74207e-05
0.000867815
3.51617e-05
0.000834701
3.31143e-05
0.00080345
3.12522e-05
0.000773897
2.95535e-05
0.000745898
2.79992e-05
0.000719326
2.65732e-05
0.000694065
2.52617e-05
0.000670013
2.40527e-05
0.000647078
2.29359e-05
0.000625176
2.19021e-05
0.000604233
2.09436e-05
0.00058418
2.00535e-05
0.000564955
1.92258e-05
0.0005465
1.84552e-05
0.000528764
1.77368e-05
0.000511698
1.70668e-05
0.000495257
1.64409e-05
0.000479402
1.58564e-05
0.000464092
1.53097e-05
0.000449294
1.4799e-05
0.000434973
1.43207e-05
0.000421099
1.38741e-05
0.000407643
1.34555e-05
0.000394578
1.30655e-05
0.000381878
1.26998e-05
0.000369518
1.23604e-05
0.000357477
1.20418e-05
0.000345731
1.17476e-05
0.000334262
1.14705e-05
0.000323047
1.12164e-05
0.000312071
1.09761e-05
0.000301312
1.07585e-05
0.000290758
1.05525e-05
0.000280385
1.03696e-05
0.000270185
1.01968e-05
0.000260137
1.00461e-05
0.000250234
9.90402e-06
0.000240458
9.77979e-06
0.000230798
9.66417e-06
0.000221243
9.55911e-06
0.000211775
9.46944e-06
0.000202393
9.37959e-06
0.000193069
9.32139e-06
0.000183822
9.24355e-06
0.000174601
9.21876e-06
0.000165459
9.14121e-06
0.000156316
9.14305e-06
0.000147262
9.05298e-06
0.000138187
9.07376e-06
0.000129217
8.97167e-06
0.00012022
9.00145e-06
0.000111331
8.89452e-06
0.000102416
8.91882e-06
9.35798e-05
8.83376e-06
8.47143e-05
8.85991e-06
7.58932e-05
8.81399e-06
6.70644e-05
8.82707e-06
5.83947e-05
8.67171e-06
4.96835e-05
8.71397e-06
4.12396e-05
8.44312e-06
3.25151e-05
8.71382e-06
2.43527e-05
8.15535e-06
1.57651e-05
8.58392e-06
7.79899e-06
7.97157e-06
-9.08672e-07
8.72243e-06
-9.07531e-06
8.17297e-06
-1.75469e-05
8.46989e-06
-2.63886e-05
8.82983e-06
-3.60587e-05
9.65423e-06
-4.4728e-05
8.67706e-06
-5.27644e-05
8.04912e-06
-6.16044e-05
8.86489e-06
-7.89538e-05
1.73542e-05
-0.000104735
2.57719e-05
-0.000138224
3.34745e-05
-0.000182647
4.43972e-05
-0.000224882
4.2221e-05
-0.000237283
1.24349e-05
-0.000192347
-4.49022e-05
-0.000104851
-8.74801e-05
-1.04094e-05
-9.44338e-05
6.25237e-05
-7.29325e-05
0.000103107
-4.05846e-05
0.000120349
-1.72458e-05
0.000153232
-3.28821e-05
0.000180313
-2.70862e-05
0.000253377
-7.30683e-05
0.000319886
-6.65143e-05
0.000418642
-9.87592e-05
0.000546614
-0.000127969
0.000668192
-0.000121572
0.000856995
-0.000188798
-0.000175129
0.0336736
0.0163074
-0.0372323
0.027743
0.0132912
0.022195
0.00919731
0.0179238
0.00604684
0.0148795
0.00401631
0.01272
0.00278232
0.0111336
0.00203238
0.00991693
0.0015562
0.00894997
0.00123619
0.00815979
0.00101014
0.00749968
0.000843958
0.00693836
0.00071779
0.00645406
0.000619442
0.0060311
0.000541105
0.00565791
0.000477569
0.0053257
0.000425235
0.00502771
0.000381548
0.0047586
0.000344652
0.00451414
0.000313171
0.0042909
0.000286066
0.00408608
0.000262537
0.00389736
0.000241965
0.0037228
0.000223858
0.00356079
0.000207826
0.00340995
0.000193554
0.00326909
0.000180784
0.0031372
0.000169309
0.00301341
0.000158953
0.00289695
0.000149573
0.00278716
0.000141047
0.00268344
0.000133272
0.00258528
0.000126162
0.00249222
0.000119642
0.00240383
0.000113648
0.00231976
0.000108125
0.00223967
0.000103025
0.00216327
9.83064e-05
0.00209028
9.39329e-05
0.00202047
8.9873e-05
0.00195359
8.60986e-05
0.00188946
8.25856e-05
0.00182789
7.93115e-05
0.0017687
7.62579e-05
0.00171173
7.34066e-05
0.00165685
7.07439e-05
0.0016039
6.82542e-05
0.00155278
6.59278e-05
0.00150335
6.37501e-05
0.00145551
6.17151e-05
0.00140915
5.98088e-05
0.00136419
5.80294e-05
0.00132053
5.63625e-05
0.00127808
5.4811e-05
0.00123676
5.33576e-05
0.0011965
5.20101e-05
0.00115722
5.07467e-05
0.00111886
4.9582e-05
0.00108134
4.84893e-05
0.00104461
4.74917e-05
0.00100861
4.65559e-05
0.000973268
4.57116e-05
0.000938546
4.49187e-05
0.000904381
4.42102e-05
0.000870736
4.35461e-05
0.000837556
4.2957e-05
0.000804802
4.24155e-05
0.000772427
4.19326e-05
0.000740385
4.15123e-05
0.000708651
4.11161e-05
0.000677161
4.08146e-05
0.000645929
4.04769e-05
0.000614857
4.02899e-05
0.000584021
3.99749e-05
0.000553275
3.98865e-05
0.000522773
3.95534e-05
0.000492315
3.95305e-05
0.000462128
3.91574e-05
0.000431964
3.91638e-05
0.000402082
3.87743e-05
0.000372206
3.87929e-05
0.000342545
3.84958e-05
0.000312857
3.85494e-05
0.000283307
3.83664e-05
0.000253831
3.83006e-05
0.000224793
3.7707e-05
0.00019581
3.7694e-05
0.000167437
3.6818e-05
0.00013862
3.75387e-05
0.000111153
3.56271e-05
8.28974e-05
3.6843e-05
5.61227e-05
3.47425e-05
2.74379e-05
3.73965e-05
8.22998e-07
3.47807e-05
-2.75178e-05
3.68066e-05
-5.62672e-05
3.75826e-05
-8.77857e-05
4.11813e-05
-0.000115319
3.62062e-05
-0.00014196
3.46891e-05
-0.000172093
3.89839e-05
-0.000229758
7.50201e-05
-0.000309546
0.000105559
-0.000415263
0.0001392
-0.000546195
0.000175338
-0.000667334
0.000163368
-0.000681597
2.66839e-05
-0.000529496
-0.000197027
-0.000245397
-0.000371586
4.4041e-05
-0.000383876
0.000271903
-0.000300793
0.000392458
-0.000161135
0.000465114
-8.99013e-05
0.000567453
-0.000135221
0.000681929
-0.000141558
0.000913597
-0.000304738
0.00114721
-0.000300119
0.00147847
-0.000430022
0.00188211
-0.000531603
0.00229829
-0.000537755
0.00286011
-0.000750627
-0.000740827
0.0414414
0.0159995
-0.0411335
0.0391565
0.015576
0.0352321
0.0131217
0.0309507
0.0103282
0.02704
0.00792698
0.0237542
0.00606813
0.0210822
0.00470443
0.0189152
0.00372319
0.0171388
0.00301258
0.0156605
0.0024884
0.0144115
0.00209296
0.0133415
0.00178779
0.0124137
0.0015473
0.0116005
0.00135426
0.0108813
0.00119681
0.0102399
0.00106657
0.00966397
0.000957503
0.00914346
0.000865157
0.00867042
0.000786213
0.00823835
0.000718138
0.00784191
0.000658979
0.00747667
0.000607205
0.00713893
0.000561605
0.00682555
0.000521208
0.00653387
0.000485231
0.00626162
0.000453034
0.00600684
0.000424094
0.00576782
0.000397975
0.00554308
0.000374316
0.00533132
0.000352809
0.00513139
0.000333199
0.00494229
0.000315265
0.00476311
0.000298821
0.00459306
0.000283705
0.00443141
0.000269778
0.00427751
0.000256918
0.0041308
0.000245022
0.00399074
0.000233997
0.00385685
0.000223763
0.0037287
0.00021425
0.00360589
0.000205396
0.00348805
0.000197145
0.00337486
0.00018945
0.00326601
0.000182265
0.00316119
0.000175555
0.00306017
0.000169282
0.00296268
0.000163418
0.0028685
0.00015793
0.00277742
0.000152799
0.00268923
0.000147994
0.00260376
0.000143505
0.00252082
0.000139301
0.00244025
0.000135383
0.00236189
0.000131716
0.00228559
0.000128309
0.00221122
0.000125118
0.00213863
0.000122168
0.00206771
0.000119408
0.00199833
0.000116875
0.00193038
0.000114509
0.00186373
0.000112358
0.0017983
0.000110348
0.00173398
0.000108535
0.00167068
0.000106842
0.00160831
0.000105329
0.00154678
0.000103939
0.00148601
0.000102699
0.00142592
0.000101603
0.00136644
0.000100594
0.00130748
9.97763e-05
0.00124902
9.89344e-05
0.00119094
9.83726e-05
0.0011333
9.76171e-05
0.00107592
9.72693e-05
0.00101896
9.6506e-05
0.000962195
9.62977e-05
0.000905885
9.54656e-05
0.00084972
9.53277e-05
0.000794026
9.44656e-05
0.000738428
9.43894e-05
0.000683203
9.37198e-05
0.000627999
9.37532e-05
0.000573074
9.32918e-05
0.000518376
9.29996e-05
0.000464446
9.16378e-05
0.000410748
9.13917e-05
0.000358019
8.95468e-05
0.000304836
9.07228e-05
0.000253821
8.66415e-05
0.000201782
8.88824e-05
0.000152128
8.43953e-05
9.94291e-05
9.00921e-05
5.02305e-05
8.39777e-05
-1.42401e-06
8.84596e-05
-5.36663e-05
8.98254e-05
-0.000110695
9.82124e-05
-0.00015994
8.54506e-05
-0.000208889
8.36387e-05
-0.000265154
9.52444e-05
-0.000370068
0.000179935
-0.000508939
0.000244424
-0.000693023
0.000323286
-0.000910581
0.000392895
-0.00110397
0.000356754
-0.00109682
1.95573e-05
-0.000810541
-0.00048331
-0.000301697
-0.000880428
0.000200795
-0.000886369
0.000598015
-0.000698011
0.000806631
-0.000369747
0.000954669
-0.000237938
0.00114253
-0.000323086
0.00137699
-0.000376015
0.0017966
-0.000724348
0.0022381
-0.000741623
0.00284876
-0.00104068
0.00356782
-0.00125065
0.00433224
-0.00130218
0.0052886
-0.00170698
-0.00175037
0.0459031
0.0146981
-0.0446017
0.0459894
0.0154897
0.044415
0.0146962
0.0416963
0.0130469
0.0384578
0.0111655
0.0351577
0.00936826
0.0320633
0.00779883
0.029289
0.0064975
0.0268537
0.00544786
0.0247315
0.00461057
0.0228814
0.00394304
0.0212616
0.0034076
0.019835
0.00297397
0.0185703
0.00261895
0.017442
0.00232506
0.0164294
0.00207919
0.0155155
0.00187146
0.0146863
0.00169436
0.0139304
0.0015421
0.0132383
0.00141021
0.0126021
0.00129516
0.0120152
0.00119417
0.0114718
0.00110499
0.0109672
0.00102582
0.0104972
0.000955184
0.0100584
0.000891879
0.00964756
0.000834906
0.00926211
0.000783433
0.00889966
0.000736765
0.00855816
0.000694312
0.00823578
0.000655578
0.00793091
0.000620135
0.00764212
0.000587622
0.0073681
0.000557722
0.00710771
0.000530165
0.00685992
0.000504714
0.00662378
0.000481162
0.00639845
0.000459331
0.00618315
0.000439064
0.00597718
0.00042022
0.0057799
0.00040268
0.00559071
0.000386331
0.00540908
0.000371081
0.00523451
0.000356841
0.00506652
0.000343539
0.00490471
0.000331101
0.00474865
0.000319472
0.004598
0.000308587
0.00445239
0.000298406
0.00431151
0.000288871
0.00417506
0.000279959
0.00404275
0.000271614
0.0039143
0.000263828
0.00378948
0.000256541
0.00366803
0.000249761
0.00354973
0.000243416
0.00343436
0.000237537
0.00332173
0.000232041
0.00321162
0.000226984
0.00310386
0.000222266
0.00299826
0.000217958
0.00289467
0.00021394
0.00279291
0.000210296
0.00269284
0.000206903
0.00259432
0.000203852
0.00249721
0.000201049
0.00240136
0.000198543
0.00230666
0.000196308
0.00221298
0.000194269
0.0021202
0.000192558
0.00202827
0.00019087
0.00193701
0.000189632
0.00184647
0.000188149
0.00175644
0.000187298
0.0016671
0.000185846
0.00157815
0.000185248
0.00148991
0.000183707
0.00140199
0.000183251
0.00131478
0.000181671
0.0012278
0.000181367
0.00114141
0.000180109
0.00105513
0.000180031
0.000969354
0.000179069
0.000884013
0.000178341
0.000799871
0.00017578
0.000716181
0.000175081
0.000633938
0.000171789
0.000551305
0.000173355
0.000471824
0.000166122
0.000391136
0.00016957
0.000313896
0.000161634
0.000232564
0.000171423
0.000156688
0.000159853
7.69852e-05
0.000168161
-2.4245e-06
0.000169236
-8.92771e-05
0.000185066
-0.000163415
0.000159588
-0.000238872
0.000159095
-0.000326375
0.000182742
-0.000484811
0.000338372
-0.000687264
0.000446871
-0.000953248
0.000589272
-0.00125469
0.000694335
-0.00150819
0.000610258
-0.00145296
-3.5696e-05
-0.00100277
-0.000933499
-0.000239718
-0.00164349
0.000493347
-0.00161943
0.00107464
-0.0012793
0.001383
-0.00067811
0.00162729
-0.00048222
0.00192202
-0.000617815
0.00230982
-0.000763814
0.00295201
-0.00136655
0.00364297
-0.00143257
0.00458216
-0.00197987
0.00565953
-0.00232802
0.00682172
-0.00246438
0.00819375
-0.00307901
-0.00325219
0.0493698
0.0135028
-0.0481745
0.0503354
0.0145241
0.0503565
0.014675
0.0493385
0.0140649
0.0474986
0.0130054
0.045129
0.0117378
0.042501
0.0104268
0.0398209
0.00917764
0.0372232
0.00804554
0.0347824
0.00705136
0.0325307
0.00619472
0.0304742
0.00546419
0.0286043
0.0048438
0.0269063
0.00431693
0.0253632
0.00386825
0.0239579
0.00348445
0.0226749
0.00315443
0.0215002
0.00286906
0.0204214
0.00262089
0.0194278
0.00240387
0.0185098
0.00221309
0.0176595
0.0020445
0.0168697
0.00189482
0.0161342
0.00176131
0.0154476
0.00164173
0.0148053
0.00153418
0.0142031
0.00143711
0.0136374
0.00134919
0.0131049
0.0012693
0.0126027
0.00119648
0.0121283
0.00112994
0.0116795
0.00106896
0.0112542
0.00101295
0.0108505
0.000961378
0.0104669
0.000913802
0.0101018
0.000869823
0.00975386
0.000829096
0.00942188
0.000791317
0.00910472
0.000756221
0.00880137
0.000723573
0.00851089
0.000693167
0.0082324
0.000664813
0.00796513
0.000638353
0.00770834
0.000613634
0.00746135
0.000590533
0.00722353
0.000568925
0.00699429
0.000548712
0.00677309
0.000529787
0.00655942
0.000512077
0.0063528
0.000495486
0.0061528
0.000479969
0.00595897
0.000465436
0.00577094
0.000451865
0.00558832
0.000439162
0.00541075
0.000427327
0.00523791
0.000416255
0.00506947
0.000405977
0.00490514
0.000396374
0.00474461
0.000387515
0.00458762
0.000379254
0.00443389
0.000371687
0.0042832
0.000364634
0.00413528
0.000358213
0.00398994
0.000352241
0.00384694
0.00034685
0.0037061
0.000341893
0.00356719
0.000337449
0.00343004
0.000333458
0.00329448
0.000329831
0.00316032
0.000326722
0.00302746
0.000323724
0.00289569
0.0003214
0.00276504
0.000318796
0.00263523
0.000317107
0.00250647
0.000314614
0.00237837
0.000313346
0.00225131
0.000310764
0.00212481
0.000309751
0.00199934
0.000307135
0.00187429
0.000306416
0.00175012
0.000304282
0.00162621
0.000303942
0.00150312
0.000302158
0.00138074
0.000300715
0.00126012
0.000296401
0.00114022
0.000294983
0.00102241
0.000289596
0.000904337
0.000291427
0.000790644
0.000279814
0.000675574
0.000284641
0.000565307
0.000271901
0.00044995
0.000286779
0.000342459
0.000267344
0.000229675
0.000280943
0.000118023
0.000280888
-2.41814e-06
0.000305507
-0.000105
0.000262171
-0.000211615
0.000265711
-0.000335458
0.000306582
-0.000553064
0.000555979
-0.000821902
0.000715703
-0.00117062
0.000937988
-0.00154842
0.00107213
-0.00184434
0.000906183
-0.0017093
-0.000170758
-0.00106319
-0.00157961
-1.42746e-05
-0.0026924
0.00096338
-0.00259709
0.00174411
-0.00206002
0.0021659
-0.0010999
0.0025302
-0.00084652
0.00295567
-0.00104328
0.00353296
-0.0013411
0.00443468
-0.00226828
0.00541863
-0.00241652
0.00673709
-0.00329833
0.00821289
-0.00380381
0.00982275
-0.00407424
0.0116242
-0.00488049
-0.00529081
0.0528292
0.0126041
-0.0519305
0.0538587
0.0134946
0.0545443
0.0139894
0.0546159
0.0139933
0.0540209
0.0136004
0.0528283
0.0129304
0.0511673
0.0120878
0.049184
0.0111609
0.0470128
0.0102167
0.0447641
0.00930011
0.0425199
0.00843889
0.0403363
0.00764777
0.0382479
0.00693225
0.0362731
0.00629173
0.0344193
0.005722
0.0326868
0.00521693
0.0310716
0.00476968
0.0295672
0.00437348
0.0281661
0.00402197
0.0268605
0.00370942
0.0256428
0.00343079
0.0245057
0.00318166
0.0234423
0.00295824
0.0224463
0.00275725
0.0215122
0.00257589
0.0206346
0.00241176
0.0198089
0.00226279
0.0190309
0.00212721
0.0182967
0.0020035
0.0176028
0.00189033
0.0169462
0.00178657
0.016324
0.00169121
0.0157335
0.0016034
0.0151725
0.00152238
0.0146388
0.00144747
0.0141306
0.00137811
0.0136459
0.00131376
0.0131832
0.00125399
0.012741
0.0011984
0.012318
0.00114661
0.0119128
0.00109833
0.0115244
0.00105327
0.0111516
0.00101118
0.0107934
0.00097182
0.0104489
0.000935009
0.0101173
0.000900551
0.0097977
0.000868293
0.00948941
0.000838071
0.00919172
0.000809768
0.00890397
0.000783239
0.00862553
0.000758407
0.00835583
0.000735139
0.0080943
0.00071339
0.00784044
0.000693023
0.00759374
0.000674027
0.00735375
0.000656248
0.00712001
0.000639721
0.00689211
0.000624277
0.00666962
0.000610001
0.00645219
0.000596687
0.00623941
0.000584458
0.00603098
0.000573062
0.00582654
0.000562655
0.0056258
0.00055298
0.00542844
0.000544215
0.00523418
0.00053615
0.00504273
0.000528895
0.00485384
0.000522349
0.00466727
0.000516403
0.00448275
0.000511234
0.00430016
0.000506313
0.00411921
0.000502358
0.00393989
0.000498108
0.00376187
0.000495132
0.00358535
0.000491134
0.00340987
0.000488818
0.00323587
0.000484764
0.00306274
0.000482878
0.00289106
0.000478819
0.00272005
0.000477425
0.0025503
0.000474035
0.00238103
0.00047321
0.00221302
0.000470163
0.00204609
0.000467644
0.00188161
0.000460878
0.00171818
0.000458413
0.0015577
0.000450076
0.00139717
0.000451962
0.00124252
0.000434458
0.00108637
0.000440789
0.000936743
0.000421529
0.000781147
0.000442375
0.000636351
0.00041214
0.000484748
0.000432544
0.000336127
0.000429508
0.000176884
0.00046475
4.23292e-05
0.000396726
-0.000100498
0.000408541
-0.00026552
0.0004716
-0.000546748
0.000837209
-0.000882395
0.00105134
-0.00131118
0.00136677
-0.00175219
0.00151313
-0.00206678
0.00122078
-0.00181527
-0.000422267
-0.00094017
-0.00245471
0.000412599
-0.00404517
0.00166164
-0.00384612
0.00265795
-0.00305633
0.00320889
-0.00165084
0.00371974
-0.00135737
0.00430149
-0.00162503
0.00510623
-0.00214584
0.00630503
-0.00346709
0.00762537
-0.00373686
0.00937413
-0.00504708
0.0112831
-0.00571273
0.0133913
-0.00618251
0.0156276
-0.00711672
-0.00790351
0.0565507
0.0119166
-0.0558633
0.0574051
0.0126403
0.0582029
0.0131916
0.0587313
0.0134649
0.0588684
0.0134634
0.0585683
0.0132304
0.0578405
0.0128156
0.0567326
0.0122689
0.0553129
0.0116364
0.0536568
0.0109563
0.0518373
0.0102583
0.0499198
0.00956531
0.0479586
0.00889339
0.0459968
0.00825355
0.0440663
0.0076525
0.0421896
0.00709366
0.0403813
0.00657796
0.0386502
0.00610464
0.0370004
0.00567177
0.035433
0.00527677
0.0339471
0.00491673
0.0325401
0.00458864
0.0312088
0.00428955
0.0299494
0.00401668
0.0287579
0.00376743
0.0276302
0.00353944
0.0265624
0.0033306
0.0255506
0.00313898
0.0245912
0.00296287
0.0236808
0.00280076
0.0228161
0.00265129
0.021994
0.00251325
0.0212119
0.00238557
0.020467
0.00226729
0.0197569
0.00215757
0.0190793
0.00205563
0.0184323
0.00196081
0.0178138
0.0018725
0.017222
0.00179016
0.0166553
0.00171331
0.0161121
0.00164153
0.015591
0.0015744
0.0150906
0.0015116
0.0146096
0.0014528
0.0141469
0.00139772
0.0137014
0.0013461
0.0132719
0.00129771
0.0128577
0.00125233
0.0124577
0.00120978
0.012071
0.00116986
0.011697
0.00113246
0.0113348
0.00109738
0.0109836
0.00106455
0.0106428
0.00103378
0.0103118
0.00100505
0.00998992
0.000978141
0.00967655
0.000953092
0.00937116
0.000929669
0.00907318
0.000907979
0.00878213
0.000887739
0.00849748
0.000869105
0.00821881
0.000851733
0.00794564
0.000835827
0.00767758
0.000821037
0.00741419
0.000807599
0.00715512
0.000795219
0.00689997
0.000784047
0.00664839
0.000773929
0.00640007
0.000764727
0.00615465
0.000756648
0.00591195
0.00074901
0.00567159
0.000742719
0.00543355
0.000736143
0.00519739
0.000731296
0.00496333
0.000725188
0.00473081
0.000721338
0.00450031
0.00071526
0.0042711
0.000712087
0.00404385
0.000706072
0.00381762
0.000703658
0.00359313
0.000698523
0.00336944
0.000696895
0.0031476
0.000692002
0.00292729
0.000687952
0.0027103
0.000677867
0.00249477
0.000673947
0.00228329
0.000661547
0.00207207
0.00066319
0.00186859
0.000637932
0.00166354
0.000645838
0.00146721
0.000617857
0.0012642
0.000645387
0.00107555
0.000600785
0.000878644
0.000629452
0.000687571
0.000620581
0.000484335
0.000667986
0.000312993
0.000568068
0.000129302
0.000592234
-8.07084e-05
0.000681609
-0.000428473
0.00118498
-0.000828128
0.00145099
-0.00132998
0.00186862
-0.00181432
0.00199747
-0.0021173
0.00152376
-0.00170776
-0.000831817
-0.000570003
-0.00359247
0.00111522
-0.00573039
0.0026498
-0.0053807
0.00387886
-0.00428539
0.00457637
-0.00234834
0.00526252
-0.00204352
0.00602671
-0.00238923
0.00709702
-0.00321615
0.00862946
-0.00499952
0.0103268
-0.00543422
0.0125557
-0.00727601
0.0149239
-0.0080809
0.0175825
-0.00884111
0.0202501
-0.00978436
-0.0111155
0.0605575
0.0113531
-0.0599939
0.0612426
0.0119552
0.0619582
0.0124761
0.0625815
0.0128416
0.063015
0.0130298
0.063195
0.0130505
0.0630858
0.0129248
0.0626771
0.0126776
0.061979
0.0123344
0.0610162
0.0119191
0.059823
0.0114516
0.0584388
0.0109494
0.056905
0.0104273
0.0552612
0.00989726
0.0535445
0.00936925
0.051787
0.00885111
0.0500161
0.00834888
0.0482538
0.00786695
0.0465173
0.00740828
0.0448194
0.00697464
0.0431694
0.00656679
0.0415733
0.00618475
0.0400349
0.00582793
0.0385562
0.00549538
0.0371377
0.0051859
0.035779
0.00489814
0.0344789
0.00463069
0.0332358
0.00438215
0.0320475
0.00415114
0.0309119
0.00393635
0.0298267
0.00373654
0.0287894
0.00355054
0.0277977
0.00337727
0.0268492
0.00321574
0.0259418
0.00306504
0.0250731
0.00292432
0.0242411
0.00279281
0.0234437
0.00266982
0.0226792
0.00255472
0.0219456
0.00244692
0.0212412
0.00234591
0.0205644
0.00225119
0.0199137
0.00216233
0.0192876
0.00207893
0.0186846
0.00200065
0.0181036
0.00192712
0.0175433
0.00185807
0.0170024
0.0017932
0.0164799
0.00173227
0.0159747
0.00167502
0.0154859
0.00162129
0.0150125
0.00157083
0.0145535
0.00152355
0.0141081
0.00147917
0.0136754
0.00143768
0.0132548
0.00139877
0.0128454
0.00136249
0.0124465
0.00132854
0.0120575
0.00129703
0.0116776
0.00126761
0.0113063
0.00124046
0.0109429
0.00121513
0.0105868
0.00119188
0.0102376
0.00117025
0.00989466
0.00115054
0.00955751
0.00113236
0.00922565
0.0011159
0.00889863
0.00110095
0.00857603
0.00108732
0.00825741
0.00107527
0.0079425
0.00106392
0.00763081
0.0010544
0.00732232
0.00104464
0.00701643
0.00103718
0.00671341
0.0010282
0.00641255
0.0010222
0.0061144
0.00101341
0.00581806
0.00100843
0.00552431
0.000999817
0.00523203
0.00099594
0.00494211
0.000988438
0.00465342
0.000985581
0.00436732
0.000978101
0.00408332
0.000971955
0.0038037
0.00095749
0.00352604
0.000951608
0.00325385
0.000933726
0.00298232
0.000934722
0.00272082
0.00089943
0.00245776
0.000908897
0.00220624
0.000869379
0.00194753
0.000904094
0.00170752
0.000840796
0.00145798
0.000878993
0.00121839
0.000860166
0.000965458
0.000920918
0.000753106
0.000780421
0.000523049
0.000822294
0.000265182
0.000939473
-0.0001498
0.00159996
-0.000606113
0.0019073
-0.00116899
0.0024315
-0.00166919
0.00249766
-0.00192365
0.00177822
-0.00130967
-0.0014458
0.00012418
-0.00502632
0.0021665
-0.0077727
0.00400238
-0.00721657
0.0054824
-0.00576541
0.00634518
-0.00321112
0.00723656
-0.0029349
0.00820868
-0.00336136
0.00958045
-0.00458792
0.0114799
-0.00689901
0.0135883
-0.00754262
0.0163447
-0.0100324
0.0191865
-0.0109226
0.0224489
-0.0121036
0.0255372
-0.0128726
-0.0149346
0.0648432
0.0108681
-0.0643583
0.0654092
0.0113892
0.0660177
0.0118676
0.0666035
0.0122558
0.0671041
0.0125293
0.0674709
0.0126837
0.0676685
0.0127271
0.0676733
0.0126728
0.0674719
0.0125358
0.0670604
0.0123306
0.0664424
0.0120696
0.0656283
0.0117635
0.0646339
0.0114217
0.0634791
0.0110521
0.0621863
0.010662
0.0607797
0.0102577
0.0592834
0.00984518
0.0577208
0.00942956
0.0561135
0.00901556
0.054481
0.00860719
0.05284
0.00820781
0.0512046
0.00782009
0.0495865
0.00744607
0.0479947
0.00708715
0.0464364
0.00674425
0.0449167
0.00641782
0.0434394
0.00610799
0.0420069
0.0058146
0.0406208
0.0055373
0.0392816
0.00527557
0.0379893
0.00502879
0.0367436
0.0047963
0.0355435
0.00457737
0.034388
0.00437127
0.0332757
0.00417731
0.0322053
0.00399475
0.0311751
0.00382294
0.0301837
0.00366122
0.0292295
0.00350897
0.0283108
0.00336563
0.027426
0.00323066
0.0265737
0.00310354
0.0257522
0.00298381
0.0249601
0.00287101
0.024196
0.00276477
0.0234584
0.00266467
0.0227461
0.0025704
0.0220577
0.00248159
0.021392
0.00239797
0.0207478
0.00231923
0.020124
0.00224516
0.0195193
0.00217545
0.0189329
0.00211
0.0183636
0.00204846
0.0178105
0.00199081
0.0172726
0.00193666
0.016749
0.00188608
0.0162388
0.00183868
0.0157413
0.0017946
0.0152555
0.00175338
0.0147807
0.00171525
0.0143162
0.00167964
0.0138612
0.00164688
0.0134151
0.00161637
0.0129771
0.00158849
0.0125468
0.00156274
0.0121233
0.00153935
0.0117062
0.00151804
0.011295
0.00149858
0.010889
0.00148126
0.0104879
0.00146498
0.0100912
0.00145115
0.00969866
0.00143714
0.00930967
0.00142617
0.00892449
0.00141338
0.00854221
0.00140447
0.0081635
0.00139212
0.00778722
0.0013847
0.00741433
0.00137271
0.00704344
0.00136682
0.0066757
0.00135618
0.00630972
0.00135155
0.00594726
0.00134056
0.00558757
0.00133164
0.00523354
0.00131152
0.0048821
0.00130305
0.00453791
0.00127791
0.00419488
0.00127775
0.00386467
0.00122964
0.00353302
0.00124054
0.0032165
0.0011859
0.00289256
0.00122804
0.00259257
0.00114079
0.00228213
0.00118942
0.00198735
0.00115495
0.00167855
0.00122972
0.00142056
0.00103841
0.00113932
0.00110354
0.000832528
0.00124626
0.000354112
0.00207838
-0.00014757
0.00240897
-0.000754746
0.00303868
-0.00123464
0.00297755
-0.00139721
0.00194079
-0.000526121
-0.00231689
0.00123187
-0.00678431
0.00365649
-0.0101973
0.00580914
-0.00936922
0.00755916
-0.00751543
0.00860658
-0.00425853
0.00973288
-0.00406119
0.0109362
-0.00456471
0.0126399
-0.00629162
0.0149342
-0.00919331
0.0174765
-0.0100849
0.0208036
-0.0133595
0.0241181
-0.0142371
0.0280395
-0.016025
0.0315329
-0.016366
-0.0193451
0.0694169
0.0104402
-0.068989
0.0699009
0.0109051
0.0704221
0.0113463
0.0709449
0.011733
0.0714294
0.0120447
0.0718421
0.0122711
0.0721567
0.0124124
0.0723541
0.0124754
0.0724201
0.0124698
0.0723449
0.0124058
0.0721215
0.0122931
0.0717461
0.0121389
0.0712183
0.0119495
0.0705402
0.0117302
0.0697174
0.0114848
0.0687583
0.0112169
0.0676739
0.0109295
0.0664777
0.0106258
0.0651844
0.0103088
0.0638098
0.00998176
0.0623699
0.0096477
0.0608803
0.00930976
0.0593555
0.00897085
0.057809
0.00863362
0.0562529
0.00830042
0.0546974
0.00797327
0.0531516
0.00765384
0.0516227
0.00734346
0.0501169
0.00704314
0.0486389
0.0067536
0.0471924
0.0064753
0.0457801
0.00620852
0.0444042
0.00595332
0.0430658
0.00570965
0.0417658
0.00547734
0.0405044
0.00525615
0.0392816
0.00504576
0.038097
0.00484581
0.03695
0.00465594
0.0358399
0.00447575
0.0347657
0.00430485
0.0337264
0.00414283
0.0327209
0.0039893
0.031748
0.00384387
0.0308066
0.00370619
0.0298954
0.00357587
0.0290132
0.0034526
0.0281588
0.00333601
0.027331
0.00322584
0.0265284
0.00312173
0.0257501
0.0030235
0.0249948
0.00293078
0.0242613
0.00284347
0.0235486
0.00276118
0.0228555
0.00268387
0.0221811
0.00261111
0.0215242
0.00254297
0.0208839
0.00247898
0.0202592
0.00241934
0.0196491
0.00236346
0.0190527
0.00231165
0.0184691
0.00226318
0.0178975
0.00221847
0.0173371
0.00217678
0.016787
0.00213858
0.0162465
0.00210324
0.0157149
0.00207103
0.0151913
0.00204161
0.0146752
0.00201467
0.0141659
0.00199058
0.0136629
0.00196794
0.0131655
0.00194853
0.0126737
0.00192902
0.0121863
0.00191347
0.011704
0.00189576
0.0112254
0.00188307
0.0107513
0.00186616
0.0102805
0.00185556
0.00981392
0.00183927
0.00935003
0.0018307
0.00889021
0.00181601
0.00843283
0.00180893
0.00798006
0.00179333
0.00753086
0.00178084
0.00708883
0.00175355
0.00665014
0.00174175
0.00622088
0.00170717
0.00579341
0.00170521
0.00538212
0.00164094
0.00496966
0.001653
0.00457685
0.00157871
0.00417671
0.00162818
0.0038069
0.00151059
0.00342628
0.00157004
0.00306895
0.00151228
0.00269759
0.00160107
0.0023892
0.0013468
0.00205247
0.00144027
0.00169804
0.00160069
0.00116285
0.00261357
0.000629189
0.00294262
2.68833e-07
0.0036676
-0.000408756
0.00338656
-0.000431614
0.00196365
0.000743091
-0.0034916
0.00286519
-0.00890641
0.00569332
-0.0130254
0.00817768
-0.0118536
0.0102172
-0.00955492
0.0114684
-0.00550978
0.0128573
-0.00545002
0.0143114
-0.00601887
0.0163683
-0.00834855
0.0190768
-0.0119018
0.0220588
-0.0130669
0.025994
-0.0172947
0.0297624
-0.0180055
0.0343975
-0.0206601
0.0382799
-0.0202484
-0.0243028
0.074298
0.010057
-0.0739148
0.0747228
0.0104804
0.075178
0.0108911
0.0756429
0.0112681
0.0760918
0.0115959
0.0764999
0.011863
0.0768476
0.0120648
0.07712
0.012203
0.0773071
0.0122828
0.0774013
0.0123116
0.077397
0.0122973
0.0772891
0.0122468
0.0770733
0.0121653
0.0767457
0.0120577
0.0763034
0.0119271
0.0757443
0.0117759
0.0750683
0.0116055
0.0742772
0.011417
0.0733747
0.0112113
0.0723668
0.0109896
0.0712615
0.010753
0.0700682
0.0105031
0.0687974
0.0102416
0.0674605
0.00997056
0.0660689
0.00969198
0.0646341
0.00940803
0.0631671
0.00912084
0.0616781
0.00883245
0.0601765
0.00854474
0.0586707
0.00825941
0.0571681
0.00797794
0.055675
0.00770159
0.0541969
0.00743141
0.0527383
0.00716824
0.051303
0.00691274
0.0498937
0.00666539
0.048513
0.00642653
0.0471624
0.00619637
0.0458433
0.00597505
0.0445565
0.00576259
0.0433024
0.00555895
0.0420812
0.00536403
0.0408928
0.00517771
0.0397368
0.00499979
0.0386129
0.00483009
0.0375204
0.00466839
0.0364585
0.00451448
0.0354265
0.00436807
0.0344233
0.00422899
0.0334482
0.00409691
0.0324999
0.00397172
0.0315777
0.00385306
0.0306802
0.00374088
0.0298067
0.00363476
0.0289558
0.00353472
0.0281267
0.00344026
0.0273181
0.00335154
0.0265291
0.00326797
0.0257586
0.00318985
0.0250056
0.00311647
0.024269
0.00304823
0.0235479
0.00298427
0.0228413
0.0029251
0.0221483
0.00286981
0.0214678
0.00281902
0.0207991
0.00277192
0.0201413
0.00272887
0.0194935
0.00268944
0.0188549
0.00265322
0.0182248
0.00262071
0.0176026
0.00259012
0.0169874
0.00256373
0.0163791
0.00253732
0.0157766
0.00251601
0.0151802
0.00249213
0.0145886
0.00247467
0.0140027
0.00245207
0.0134208
0.00243748
0.0128442
0.00241583
0.0122711
0.00240386
0.011703
0.00238404
0.0111382
0.00237376
0.0105793
0.00235225
0.0100248
0.00233532
0.00947926
0.00229909
0.00893792
0.00228309
0.00840864
0.00223645
0.00788188
0.00223197
0.0073753
0.00214751
0.00686799
0.00216031
0.00638599
0.00206071
0.00589709
0.00211707
0.00544627
0.00196142
0.00498501
0.00203129
0.00455702
0.00194027
0.00411593
0.00204217
0.00375232
0.00171041
0.00335662
0.00183597
0.00295847
0.00199884
0.00237649
0.00319556
0.00183324
0.00348586
0.0012271
0.00427374
0.000926149
0.0036875
0.00110472
0.00178508
0.00262766
-0.00501454
0.00515373
-0.0114325
0.00840597
-0.0162777
0.0112364
-0.014684
0.0135845
-0.011903
0.0150578
-0.00698309
0.0167325
-0.00712475