/*--------------------------------*- C++ -*----------------------------------*\
| =========                 |                                                 |
| \\      /  F ield         | OpenFOAM: The Open Source CFD Toolbox           |
|  \\    /   O peration     | Version:  2412                                  |
|   \\  /    A nd           | Website:  www.openfoam.com                      |
|    \\/     M anipulation  |                                                 |
\*---------------------------------------------------------------------------*/
FoamFile
{
    version     2.0;
    format      ascii;
    arch        "LSB;label=32;scalar=64";
    class       volVectorField;
    location    "1.63";
    object      U;
}
// * * * * * * * * * * * * * * * * * * * * * * * * * * * * * * * * * * * * * //

dimensions      [0 1 -1 0 0 0 0];

internalField   nonuniform List<vector> 
12600
(
(18.7568 1.22844e-21 2.09751)
(11.6277 1.60786e-20 0.452159)
(7.35548 1.89051e-20 -0.477675)
(5.09166 0 -0.709408)
(3.97747 1.70784e-20 -0.682506)
(3.33606 1.58989e-20 -0.607726)
(2.89435 0 -0.539971)
(2.56277 0 -0.484437)
(2.30286 -4.77268e-20 -0.438906)
(2.09249 0 -0.401106)
(1.91792 1.99983e-20 -0.369186)
(1.77021 1.83019e-20 -0.341815)
(1.64324 -1.67574e-20 -0.318043)
(1.53268 0 -0.297172)
(1.43532 -1.40287e-20 -0.278677)
(1.3488 0 -0.262153)
(1.27127 4.70771e-20 -0.247286)
(1.20131 0 -0.233824)
(1.13778 -1.96732e-20 -0.221566)
(1.07978 -1.79776e-20 -0.210348)
(1.02655 1.63963e-20 -0.200036)
(0.977496 5.31141e-24 -0.190516)
(0.932104 0 -0.181697)
(0.889948 -2.46567e-20 -0.173497)
(0.850669 0 -0.16585)
(0.81396 0 -0.158698)
(0.779557 -1.82023e-20 -0.151992)
(0.747232 0 -0.145687)
(0.716786 4.2011e-24 -0.139747)
(0.688048 1.30759e-20 -0.134139)
(0.660865 1.1612e-20 -0.128832)
(0.635102 1.02565e-20 -0.123803)
(0.610641 -9.00186e-21 -0.119026)
(0.587376 -1.5682e-20 -0.114483)
(0.565211 -1.35347e-20 -0.110155)
(0.544063 1.15392e-20 -0.106026)
(0.523855 0 -0.10208)
(0.504516 -8.02448e-21 -0.0983044)
(0.485984 0 -0.0946868)
(0.468203 5.02533e-21 -0.0912161)
(0.451119 0 -0.0878821)
(0.434686 1.76877e-23 -0.0846756)
(0.418858 0 -0.081588)
(0.403597 1.60899e-23 -0.0786116)
(0.388864 -1.21307e-21 -0.0757388)
(0.374626 2.9145e-21 -0.0729633)
(0.36085 -4.49456e-21 -0.0702785)
(0.347508 0 -0.067679)
(0.33457 0 -0.0651588)
(0.322013 -8.38737e-21 -0.0627137)
(0.309808 -1.8893e-20 -0.0603378)
(0.297939 -2.07996e-20 -0.0580279)
(0.286377 1.96291e-23 -0.0557784)
(0.27511 -2.40151e-20 -0.0535871)
(0.26411 0 -0.0514483)
(0.253372 2.65802e-20 -0.0493611)
(0.242864 2.76237e-20 -0.0473192)
(0.232589 2.85142e-20 -0.045323)
(0.222509 0 -0.0433654)
(0.212637 0 -0.0414485)
(0.202928 0 -0.0395639)
(0.193406 -6.18732e-20 -0.0377159)
(0.184016 0 -0.0358942)
(0.174798 0 -0.0341061)
(0.165684 1.26738e-19 -0.0323385)
(0.156731 0 -0.0306028)
(0.147851 0 -0.0288817)
(0.139131 0 -0.0271919)
(0.130455 -1.26471e-19 -0.0255112)
(0.121944 1.258e-19 -0.0238629)
(0.113448 1.24906e-19 -0.0222179)
(0.105134 2.34186e-23 -0.0206084)
(0.0968058 -1.22565e-19 -0.0189965)
(0.0886883 0 -0.0174253)
(0.080529 1.19544e-19 -0.0158461)
(0.0726235 0 -0.0143158)
(0.0646483 0 -0.012772)
(0.0569878 0 -0.0112886)
(0.0492305 2.90448e-23 -0.00978638)
(0.0418677 2.1909e-19 -0.00835985)
(0.0343818 2.14342e-19 -0.00690951)
(0.0273901 -2.09487e-19 -0.00555392)
(0.0202488 -2.04394e-19 -0.0041695)
(0.0137206 0 -0.00290272)
(0.00701117 0 -0.00160125)
(0.00105175 3.77189e-19 -0.000443512)
(-0.00512742 -7.32098e-19 0.000755839)
(-0.0104168 7.10173e-19 0.00178448)
(-0.0159522 3.4371e-19 0.00286004)
(-0.0205026 0 0.00374707)
(-0.0252921 -6.42017e-19 0.00467912)
(-0.028957 3.09762e-19 0.00539638)
(-0.0332929 -2.98043e-19 0.0062416)
(-0.0350149 5.73784e-19 0.00658577)
(-0.0408307 0 0.00771136)
(-0.0383036 0 0.00722898)
(-0.0456504 0 0.00865567)
(-0.0452924 0 0.0085537)
(-0.0396968 0 0.0075632)
(-0.065181 0 0.0123624)
(-0.0192299 -4.27428e-19 0.00364894)
(-0.0757256 -7.82857e-19 0.0144832)
(-0.032583 -7.79137e-19 0.00598353)
(-0.0543173 0 0.0104588)
(-0.0502396 0 0.00942724)
(-0.0372495 0 0.00738444)
(-0.107815 -6.17763e-19 0.0201277)
(0.0476939 -1.23425e-18 -0.00870686)
(-0.185715 5.01686e-19 0.035374)
(0.00506064 0 -0.00202092)
(0.0235328 -9.30489e-19 -0.00280678)
(-0.327503 0 0.0609085)
(0.301364 -1.06875e-18 -0.0570189)
(-0.344791 5.9981e-19 0.0665393)
(-0.257699 -1.03586e-18 0.0448645)
(0.377059 -8.59291e-19 -0.0689183)
(-0.827423 5.6769e-19 0.158104)
(0.153629 -3.98731e-22 -0.0343)
(0.267413 6.93582e-19 -0.0490243)
(-0.293342 0 0.0567539)
(29.171 -1.2401e-21 4.03024)
(25.1224 0 1.86144)
(20.2557 -1.9134e-20 -0.212175)
(16.0852 0 -1.21185)
(13.1225 -1.73054e-20 -1.50775)
(11.0776 -3.03705e-20 -1.51876)
(9.60385 -1.40527e-20 -1.44105)
(8.49073 0 -1.34331)
(7.61702 3.55983e-22 -1.24782)
(6.90983 -2.18209e-20 -1.16065)
(6.32345 2.00256e-20 -1.08249)
(5.82781 1.83755e-20 -1.01261)
(5.40229 -1.68589e-20 -0.949997)
(5.0322 1.54638e-20 -0.893671)
(4.70678 2.84147e-20 -0.842772)
(4.41793 0 -0.796565)
(4.15948 -6.43673e-23 -0.75443)
(3.92656 2.17877e-20 -0.715843)
(3.71535 1.99595e-20 -0.680367)
(3.52276 0 -0.647628)
(3.34627 0 -0.617311)
(3.18382 1.51411e-20 -0.589147)
(3.03369 0 -0.562905)
(2.89444 1.24992e-20 -0.538386)
(2.76485 -2.26399e-20 -0.515419)
(2.64389 0 -0.493853)
(2.53065 1.84496e-20 -0.473558)
(2.42438 0 -0.454418)
(2.3244 -1.48462e-20 -0.436332)
(2.23014 -2.64909e-20 -0.419209)
(2.14107 -2.3521e-20 -0.402971)
(2.05674 -1.03815e-20 -0.387546)
(1.97676 9.109e-21 -0.37287)
(1.90078 3.17461e-20 -0.358885)
(1.82846 2.73936e-20 -0.345541)
(1.75953 0 -0.332789)
(1.69372 0 -0.320588)
(1.63082 -1.7514e-23 -0.308899)
(1.5706 0 -0.297686)
(1.51287 -5.07328e-21 -0.286918)
(1.45746 0 -0.276564)
(1.40422 -5.01083e-21 -0.266598)
(1.35298 0 -0.256993)
(1.30363 -6.85553e-22 -0.247728)
(1.25603 0 -0.23878)
(1.21007 -2.93472e-21 -0.230131)
(1.16565 0 -0.221759)
(1.12267 0 -0.21365)
(1.08102 7.22006e-21 -0.205785)
(1.04064 0 -0.198151)
(1.00143 0 -0.190731)
(0.963329 0 -0.183516)
(0.926249 2.256e-20 -0.176487)
(0.890149 4.81216e-20 -0.169639)
(0.854937 0 -0.162954)
(0.820591 0 -0.156429)
(0.787012 -2.75994e-20 -0.150045)
(0.7542 -2.85129e-20 -0.143804)
(0.722043 0 -0.137683)
(0.690568 0 -0.131689)
(0.659642 0 -0.125795)
(0.629328 0 -0.120017)
(0.599464 -6.2262e-20 -0.11432)
(0.57016 6.27139e-20 -0.108729)
(0.541209 -1.26017e-19 -0.103201)
(0.512782 0 -0.0977736)
(0.484613 0 -0.0923903)
(0.456954 0 -0.0871071)
(0.429459 4.74749e-23 -0.0818494)
(0.402487 -1.24597e-19 -0.0766954)
(0.375586 -1.23598e-19 -0.0715485)
(0.349252 2.44812e-19 -0.0665152)
(0.322896 3.58933e-23 -0.0614702)
(0.297189 -1.19506e-19 -0.0565562)
(0.271369 -1.17844e-19 -0.0516116)
(0.246324 0 -0.0468242)
(0.221079 0 -0.0419877)
(0.196788 0 -0.0373453)
(0.172213 2.19455e-19 -0.0326356)
(0.14883 0 -0.0281686)
(0.125083 0 -0.0236165)
(0.102829 2.05028e-19 -0.019368)
(0.0801298 1.9983e-19 -0.0150164)
(0.0592859 0 -0.0110411)
(0.037904 0 -0.00694239)
(0.0187953 0 -0.00330218)
(-0.000963969 7.12582e-19 0.0004847)
(-0.0180176 -4.15933e-23 0.00372668)
(-0.0358008 3.33789e-19 0.0071366)
(-0.0505736 -3.22617e-19 0.00993677)
(-0.0660505 6.22183e-19 0.0129052)
(-0.0781228 2.99843e-19 0.0151903)
(-0.0920444 5.76432e-19 0.0178513)
(-0.0984487 0 0.0190634)
(-0.116296 0 0.0224783)
(-0.110154 0 0.0212144)
(-0.132855 0 0.0257443)
(-0.131454 4.66482e-19 0.0250675)
(-0.118323 0 0.0230906)
(-0.189751 0 0.0361891)
(-0.0594693 -4.09875e-19 0.0113704)
(-0.226156 3.74969e-19 0.0440218)
(-0.0934256 1.49124e-18 0.0170673)
(-0.165534 -6.79316e-19 0.0324257)
(-0.148092 0 0.0277998)
(-0.117032 0 0.0237937)
(-0.306368 0 0.0573214)
(0.117422 5.87874e-19 -0.0215933)
(-0.54119 -4.77456e-19 0.1055)
(0.0316314 0 -0.0109452)
(0.0231771 1.76849e-18 0.0023459)
(-0.906881 8.80936e-19 0.169405)
(0.829728 2.028e-18 -0.16001)
(-1.01845 0 0.206048)
(-0.618663 0 0.104635)
(0.960542 -8.14646e-19 -0.175288)
(-2.43652 0 0.473504)
(0.614052 -8.90345e-19 -0.138938)
(0.71132 -6.55765e-19 -0.128326)
(-0.880288 0 0.177642)
(31.9143 0 3.90273)
(31.0978 0 2.82378)
(28.5652 -1.29532e-20 1.02699)
(25.219 0 -0.381088)
(21.964 0 -1.22581)
(19.1884 1.5099e-20 -1.65092)
(16.9282 1.3308e-20 -1.8193)
(15.1017 0 -1.85086)
(13.613 4.20882e-22 -1.81706)
(12.3819 2.06723e-20 -1.75445)
(11.3478 -3.7735e-20 -1.68056)
(10.4664 -1.74107e-20 -1.60375)
(9.7054 1.14471e-22 -1.52801)
(9.04102 -1.46531e-20 -1.45518)
(8.45529 -1.34362e-20 -1.38605)
(7.93445 1.22649e-20 -1.3209)
(7.46785 -2.25587e-20 -1.25968)
(7.04704 -2.0647e-20 -1.20226)
(6.66527 0 -1.1484)
(6.3171 0 -1.09787)
(5.99804 1.57095e-20 -1.05042)
(5.70441 1.43165e-20 -1.00579)
(5.43313 0 -0.963784)
(5.18159 0 -0.924176)
(4.94761 2.14527e-20 -0.886779)
(4.7293 0 -0.851419)
(4.52506 -3.49576e-20 -0.817935)
(4.33348 1.57095e-20 -0.786184)
(4.15335 0 -0.756034)
(3.98362 1.25519e-20 -0.727365)
(3.82335 1.1145e-20 -0.700069)
(3.67172 0 -0.674048)
(3.528 -8.64234e-21 -0.64921)
(3.39155 -1.50437e-20 -0.625475)
(3.26177 1.22988e-23 -0.602767)
(3.13815 0 -0.581016)
(3.02023 0 -0.56016)
(2.90758 7.69374e-21 -0.540139)
(2.79981 0 -0.520901)
(2.69658 0 -0.502395)
(2.59757 0 -0.484576)
(2.50248 0 -0.467401)
(2.41106 0 -0.45083)
(2.32306 0 -0.434827)
(2.23824 0 -0.419357)
(2.15641 2.73417e-21 -0.404389)
(2.07737 -4.22643e-21 -0.389892)
(2.00094 0 -0.375838)
(1.92695 -6.83086e-21 -0.3622)
(1.85525 0 -0.348955)
(1.78568 0 -0.336074)
(1.71813 1.96642e-20 -0.323543)
(1.65244 0 -0.311332)
(1.58853 -2.27363e-20 -0.299432)
(1.52623 2.39801e-20 -0.287811)
(1.46551 0 -0.276468)
(1.40619 2.60875e-20 -0.265366)
(1.34825 0 -0.254511)
(1.29152 0 -0.243863)
(1.23602 0 -0.233436)
(1.18152 5.74049e-20 -0.223182)
(1.12814 5.81834e-20 -0.213129)
(1.07558 2.87529e-23 -0.203216)
(1.02403 -1.18412e-19 -0.19349)
(0.973131 2.51781e-23 -0.18387)
(0.923174 0 -0.174428)
(0.873702 0 -0.16506)
(0.825138 -1.18755e-19 -0.155868)
(0.776892 3.83172e-23 -0.146718)
(0.729564 0 -0.137749)
(0.68239 0 -0.128791)
(0.6362 -1.15414e-19 -0.120031)
(0.590001 2.89656e-23 -0.111247)
(0.544914 2.69744e-23 -0.102692)
(0.499658 0 -0.0940794)
(0.455721 0 -0.0857411)
(0.411459 -2.14793e-19 -0.0773116)
(0.368816 2.10838e-19 -0.0692205)
(0.325699 0 -0.061005)
(0.284601 0 -0.0532121)
(0.242891 0 -0.0452621)
(0.203705 0 -0.0378403)
(0.163772 0 -0.0302281)
(0.126974 0 -0.0232701)
(0.0892758 0 -0.016085)
(0.0554245 0 -0.00969701)
(0.0204871 -6.69931e-19 -0.00304165)
(-0.00985824 -3.24533e-19 0.00267056)
(-0.0414238 -3.13718e-19 0.00868783)
(-0.0678563 3.03156e-19 0.0136362)
(-0.0954587 -5.84479e-19 0.0188992)
(-0.117291 -2.81641e-19 0.0229829)
(-0.14202 -2.70652e-19 0.0276492)
(-0.154554 0 0.0300409)
(-0.185145 0 0.0357732)
(-0.17698 0 0.0340757)
(-0.215924 0 0.041982)
(-0.213413 -4.37637e-19 0.0402901)
(-0.196272 0 0.0388656)
(-0.309367 0 0.0580646)
(-0.101807 3.8431e-19 0.0197023)
(-0.376276 0 0.0736416)
(-0.15069 -6.98832e-19 0.0264022)
(-0.280604 6.36596e-19 0.055682)
(-0.243945 0 0.0449007)
(-0.202528 0 0.0427034)
(-0.491618 0 0.0889856)
(0.163393 5.50742e-19 -0.0270169)
(-0.882987 0 0.172668)
(0.0697204 -5.29087e-19 -0.0274655)
(-0.0196785 2.8568e-22 0.0251233)
(-1.42074 -8.24465e-19 0.254842)
(1.28639 -1.8985e-18 -0.246007)
(-1.67421 0 0.351376)
(-0.844672 9.1586e-19 0.11668)
(1.38024 7.62001e-19 -0.228176)
(-3.99961 5.01315e-19 0.777219)
(1.21892 0 -0.300415)
(1.07157 6.13162e-19 -0.17447)
(-1.45495 0 0.306306)
(32.4352 0 2.96191)
(33 0 2.77465)
(32.4451 1.22451e-20 1.72878)
(30.7996 0 0.52582)
(28.5433 -1.22839e-20 -0.480883)
(26.1235 2.49847e-20 -1.20499)
(23.8006 0 -1.66881)
(21.691 -2.1794e-20 -1.93341)
(19.8283 2.08908e-20 -2.06281)
(18.203 1.88833e-20 -2.10715)
(16.7875 1.77415e-20 -2.10033)
(15.5506 -1.6118e-20 -2.06364)
(14.4638 1.49992e-20 -2.01008)
(13.5028 -2.73316e-20 -1.94746)
(12.6473 0 -1.88054)
(11.8812 -2.31368e-20 -1.81218)
(11.191 0 -1.74413)
(10.5659 0 -1.67744)
(9.99697 0 -1.61272)
(9.47673 1.62367e-20 -1.55032)
(8.99904 -3.40435e-23 -1.4904)
(8.55874 -2.58632e-23 -1.433)
(8.15146 1.23007e-20 -1.37813)
(7.77349 0 -1.3257)
(7.42167 0 -1.27564)
(7.09326 0 -1.22783)
(6.78592 3.30478e-20 -1.18218)
(6.4976 -5.80861e-24 -1.13856)
(6.2265 0 -1.09687)
(5.97105 0 -1.05699)
(5.72988 0 -1.01883)
(5.50175 0 -0.982284)
(5.28558 1.63475e-20 -0.947254)
(5.0804 0 -0.913655)
(4.88533 -1.22853e-20 -0.881401)
(4.69959 0 -0.850416)
(4.52249 0 -0.820623)
(4.35337 -7.29682e-21 -0.791955)
(4.19167 0 -0.764346)
(4.03685 0 -0.737736)
(3.88843 3.37937e-21 -0.712066)
(3.74599 -4.55495e-21 -0.687284)
(3.6091 0 -0.663338)
(3.47741 -6.79574e-22 -0.640183)
(3.35056 0 -0.617771)
(3.22826 -5.14649e-21 -0.596064)
(3.11019 1.90109e-23 -0.575018)
(2.99609 0 -0.554599)
(2.88571 0 -0.534767)
(2.77881 7.47041e-21 -0.515494)
(2.67515 1.68362e-20 -0.49674)
(2.57457 -3.71066e-20 -0.478484)
(2.47682 0 -0.460687)
(2.38177 -2.14142e-20 -0.443335)
(2.28919 -2.26363e-20 -0.426384)
(2.19901 -2.36628e-20 -0.409833)
(2.11096 -2.45779e-20 -0.39363)
(2.02503 0 -0.377785)
(1.94092 0 -0.362237)
(1.8587 -5.31976e-20 -0.347011)
(1.77802 -1.08264e-19 -0.332034)
(1.69902 -5.48769e-20 -0.31735)
(1.62129 3.08167e-23 -0.302869)
(1.54509 5.58139e-20 -0.288659)
(1.4699 5.60473e-20 -0.274605)
(1.39613 0 -0.260809)
(1.32312 0 -0.247122)
(1.25146 1.11913e-19 -0.23369)
(1.18032 2.2272e-19 -0.220319)
(1.11053 0 -0.207211)
(1.04101 1.09705e-19 -0.194118)
(0.972925 1.08633e-19 -0.181312)
(0.904862 1.07418e-19 -0.168471)
(0.838411 2.1205e-19 -0.155959)
(0.771741 0 -0.143364)
(0.706966 0 -0.131162)
(0.641742 2.02125e-19 -0.118827)
(0.578829 -3.96695e-19 -0.106978)
(0.51525 -1.94304e-19 -0.0949466)
(0.454543 0 -0.083522)
(0.392967 0 -0.0718668)
(0.33498 0 -0.0609702)
(0.275928 0 -0.0497942)
(0.221337 0 -0.0395585)
(0.165467 0 -0.0289893)
(0.115075 -3.24624e-19 -0.0195684)
(0.0631464 4.04627e-23 -0.00975548)
(0.0177744 3.04729e-19 -0.00130045)
(-0.0293247 0 0.00759966)
(-0.0690581 2.84561e-19 0.0149518)
(-0.110441 2.74306e-19 0.0227672)
(-0.143584 0 0.0288947)
(-0.180553 -2.53921e-19 0.0357652)
(-0.200862 -4.88116e-19 0.0396403)
(-0.245067 0 0.0477383)
(-0.236761 0 0.0459401)
(-0.292837 0 0.0574234)
(-0.289451 -4.10237e-19 0.0544813)
(-0.271977 0 0.0547847)
(-0.422228 0 0.0784455)
(-0.145703 3.6012e-19 0.0286634)
(-0.523903 -3.29279e-19 0.103158)
(-0.20385 0 0.0344785)
(-0.398746 0 0.0801448)
(-0.336393 0 0.0609903)
(-0.292947 0 0.0636586)
(-0.663031 0 0.117067)
(0.18575 1.0971e-22 -0.0269289)
(-1.20691 0 0.237176)
(0.114475 4.95103e-19 -0.048478)
(-0.100986 -7.74852e-19 0.0604759)
(-1.86634 0 0.324047)
(1.66439 -4.63645e-22 -0.317422)
(-2.30051 0 0.498881)
(-0.945914 -7.12256e-22 0.0974204)
(1.63529 0 -0.23957)
(-5.48682 -4.68712e-19 1.06583)
(1.94214 0 -0.502066)
(1.34754 5.73835e-19 -0.193805)
(-1.9934 0 0.437419)
(32.5369 0 2.11041)
(33.2938 0 2.23486)
(33.6396 0 1.75866)
(33.2741 0 0.963324)
(32.2495 1.15951e-20 0.120175)
(30.7731 -9.02179e-22 -0.630188)
(29.0507 0 -1.23227)
(27.2414 2.05705e-20 -1.67687)
(25.4549 0 -1.98116)
(23.7575 -3.51461e-20 -2.17342)
(22.1816 0 -2.28228)
(20.7375 1.52165e-20 -2.33179)
(19.4225 0 -2.34028)
(18.228 2.58053e-20 -2.32102)
(17.1427 -1.17486e-20 -2.28334)
(16.155 2.17e-20 -2.23369)
(15.254 -1.98558e-20 -2.17653)
(14.4298 -1.82167e-20 -2.11493)
(13.6736 0 -2.05098)
(12.9776 -1.53319e-20 -1.98615)
(12.3352 -1.39989e-20 -1.92144)
(11.7404 -2.54888e-20 -1.85752)
(11.1884 -1.16152e-20 -1.79485)
(10.6745 0 -1.73374)
(10.1951 0 -1.67436)
(9.74663 0 -1.61682)
(9.32629 -1.55975e-20 -1.56118)
(8.93142 -1.40224e-20 -1.50744)
(8.55975 0 -1.45558)
(8.20924 0 -1.40558)
(7.87809 9.95273e-21 -1.35738)
(7.56469 0 -1.31092)
(7.2676 1.47445e-24 -1.26613)
(6.98554 -1.34518e-20 -1.22296)
(6.71734 1.16136e-20 -1.18132)
(6.46196 0 -1.14117)
(6.21844 0 -1.10241)
(5.98593 6.88689e-21 -1.065)
(5.76364 0 -1.02887)
(5.55086 0 -0.993944)
(5.34693 -3.18898e-21 -0.960176)
(5.15126 4.29807e-21 -0.927505)
(4.96329 0 -0.895875)
(4.78252 6.41166e-22 -0.865236)
(4.60847 0 -0.835532)
(4.44072 2.4181e-21 -0.806721)
(4.27885 3.74829e-21 -0.77875)
(4.12251 0 -0.751583)
(3.97132 6.03733e-21 -0.725166)
(3.82499 -7.04501e-21 -0.699472)
(3.68317 -3.17224e-20 -0.674447)
(3.54563 1.74798e-20 -0.650069)
(3.41203 -1.88859e-20 -0.626287)
(3.28221 2.56035e-23 -0.603087)
(3.15583 0 -0.580412)
(3.03278 2.23032e-20 -0.558261)
(2.91273 2.31633e-20 -0.536566)
(2.79562 -2.38841e-20 -0.515343)
(2.68107 2.45144e-20 -0.494511)
(2.56914 5.01198e-20 -0.474106)
(2.45939 5.0978e-20 -0.45403)
(2.35197 -5.16273e-20 -0.434343)
(2.24634 5.2172e-20 -0.414924)
(2.14284 0 -0.395866)
(2.04077 0 -0.377014)
(1.94066 5.28096e-20 -0.358506)
(1.84164 0 -0.340142)
(1.74447 0 -0.322117)
(1.64805 -1.04782e-19 -0.304174)
(1.55348 0 -0.28658)
(1.45932 -1.03216e-19 -0.269004)
(1.36709 -2.04354e-19 -0.251808)
(1.27493 0 -0.234564)
(1.18492 -9.96971e-20 -0.217756)
(1.09465 0 -0.200832)
(1.00688 0 -0.18443)
(0.918536 -1.89913e-19 -0.167846)
(0.833228 1.86404e-19 -0.151903)
(0.747047 3.94811e-23 -0.135712)
(0.664628 0 -0.120323)
(0.581062 0 -0.104619)
(0.50219 0 -0.0899186)
(0.421911 -1.65907e-19 -0.0748365)
(0.347465 1.61496e-19 -0.0609995)
(0.271335 0 -0.0467076)
(0.202377 6.09413e-19 -0.0339386)
(0.131409 2.95265e-19 -0.0206334)
(0.0690446 -5.71885e-19 -0.00913778)
(0.00442243 -2.76309e-19 0.00296943)
(-0.0504826 -5.3387e-19 0.0130103)
(-0.10754 0 0.0236845)
(-0.153764 0 0.032128)
(-0.204645 2.38093e-19 0.0414431)
(-0.234585 4.57616e-19 0.0471533)
(-0.293478 -4.37702e-19 0.0576735)
(-0.28719 0 0.05621)
(-0.36131 0 0.0714968)
(-0.357689 3.84367e-19 0.0670023)
(-0.343546 3.65887e-19 0.0704989)
(-0.526538 0 0.0965271)
(-0.190256 -3.37261e-19 0.0381948)
(-0.666608 3.08333e-19 0.131942)
(-0.252548 0 0.0409985)
(-0.518768 0 0.105668)
(-0.424012 0 0.0755043)
(-0.387258 0 0.0865358)
(-0.820549 0 0.140541)
(0.186032 -4.82434e-19 -0.0202866)
(-1.50955 0 0.297291)
(0.160224 0 -0.0733406)
(-0.214097 0 0.109061)
(-2.24423 7.19868e-19 0.372699)
(1.96138 8.30898e-19 -0.368905)
(-2.88813 0 0.64564)
(-0.942452 -8.00069e-19 0.0443084)
(1.74064 0 -0.202003)
(-6.86773 -4.37301e-19 1.32722)
(2.73121 0 -0.740386)
(1.54524 -5.36268e-19 -0.180443)
(-2.46933 0 0.566195)
(32.6082 -4.95788e-21 1.49717)
(33.1907 -6.15971e-21 1.63575)
(33.7167 7.31908e-21 1.44382)
(33.9415 8.25133e-21 0.981883)
(33.7479 0 0.388946)
(33.1478 -9.89615e-21 -0.227956)
(32.2145 0 -0.802972)
(31.039 1.73759e-20 -1.29904)
(29.7101 1.66103e-20 -1.70072)
(28.3043 3.20325e-20 -2.00841)
(26.881 -1.4733e-20 -2.23186)
(25.4827 1.37441e-20 -2.38456)
(24.1364 0 -2.48046)
(22.8578 0 -2.53222)
(21.6542 1.10764e-20 -2.55047)
(20.5274 -1.14517e-22 -2.54376)
(19.4758 1.75948e-22 -2.51875)
(18.4958 1.3576e-22 -2.48053)
(17.583 0 -2.43294)
(16.7323 0 -2.37886)
(15.939 0 -2.32046)
(15.1982 2.39496e-20 -2.25934)
(14.5056 1.08874e-20 -2.1967)
(13.857 0 -2.13344)
(13.2487 0 -2.07022)
(12.6774 1.62509e-20 -2.00753)
(12.1398 0 -1.9457)
(11.6332 0 -1.885)
(11.1552 0 -1.8256)
(10.7033 0 -1.76762)
(10.2755 -6.27415e-24 -1.71114)
(9.87008 0 -1.65619)
(9.4852 -1.51198e-24 -1.6028)
(9.11936 1.26803e-20 -1.55096)
(8.77118 2.78341e-24 -1.50065)
(8.43937 0 -1.45185)
(8.12279 0 -1.40453)
(7.82036 0 -1.35863)
(7.53112 0 -1.31412)
(7.25417 0 -1.27094)
(6.9887 0 -1.22906)
(6.73395 0 -1.18842)
(6.48923 -2.28885e-21 -1.14896)
(6.25388 -6.40731e-22 -1.11065)
(6.02731 0 -1.07343)
(5.80898 2.24325e-21 -1.03726)
(5.59834 0 -1.00208)
(5.39495 0 -0.967858)
(5.19832 -1.13574e-20 -0.934531)
(5.00807 0 -0.902073)
(4.82376 1.49233e-20 -0.870423)
(4.64507 0 -0.839561)
(4.47158 3.55401e-20 -0.809423)
(4.30306 2.48163e-23 -0.779999)
(4.1391 0 -0.751218)
(3.97953 0 -0.723083)
(3.82391 0 -0.695512)
(3.67218 4.49393e-20 -0.668525)
(3.52386 -4.61226e-20 -0.642023)
(3.37899 -4.70941e-20 -0.616053)
(3.237 -4.7901e-20 -0.590492)
(3.09811 9.71135e-20 -0.565419)
(2.96161 4.9022e-20 -0.540679)
(2.8279 0 -0.516393)
(2.69612 0 -0.492364)
(2.56691 -2.45275e-23 -0.468768)
(2.43916 0 -0.445351)
(2.31385 0 -0.422362)
(2.18955 -9.84274e-20 -0.399471)
(2.06765 0 -0.377022)
(1.94632 0 -0.354591)
(1.82747 1.91979e-19 -0.332639)
(1.70876 -9.48498e-20 -0.31062)
(1.59278 0 -0.28915)
(1.47649 0 -0.267526)
(1.36335 0 -0.246559)
(1.2495 1.78357e-19 -0.225351)
(1.13945 0 -0.204951)
(1.0283 3.42766e-19 -0.184225)
(0.921838 -1.6767e-19 -0.164508)
(0.813918 0 -0.144379)
(0.711841 0 -0.125513)
(0.607976 1.55685e-19 -0.106148)
(0.511373 -2.56916e-23 -0.0883512)
(0.412637 1.47169e-19 -0.0699625)
(0.322838 -2.85792e-19 -0.0534936)
(0.230513 2.76842e-19 -0.0363273)
(0.148934 2.68119e-19 -0.0214521)
(0.0645246 2.59065e-19 -0.00577876)
(-0.00767997 2.86014e-23 0.00727591)
(-0.0825851 0 0.0211495)
(-0.143912 -2.32232e-19 0.0322186)
(-0.210655 0 0.0442619)
(-0.252322 0 0.0521779)
(-0.327222 4.10045e-19 0.0652281)
(-0.325419 0 0.0645679)
(-0.418566 0 0.0838343)
(-0.415766 0 0.077702)
(-0.408659 -3.42584e-19 0.0856541)
(-0.620104 0 0.112134)
(-0.234136 -3.15711e-19 0.0481612)
(-0.801596 0 0.159459)
(-0.296333 0 0.0459788)
(-0.638997 0 0.13201)
(-0.50516 0 0.0881804)
(-0.484214 0 0.111153)
(-0.96371 -4.51533e-19 0.159775)
(0.166239 -4.51423e-19 -0.00784387)
(-1.78762 3.65598e-19 0.352448)
(0.201398 0 -0.100847)
(-0.351669 0 0.169112)
(-2.55569 -1.3455e-18 0.402838)
(2.17688 0 -0.403787)
(-3.42967 4.34013e-19 0.788928)
(-0.858731 0 -0.0343592)
(1.71947 6.25105e-19 -0.121629)
(-8.10609 4.08651e-19 1.55349)
(3.51125 0 -1.00002)
(1.67136 -5.01669e-19 -0.136042)
(-2.85445 0 0.686859)
(32.6618 4.66897e-21 1.0459)
(33.0722 1.13526e-20 1.1319)
(33.5177 -6.89419e-21 1.04797)
(33.8823 -7.83863e-22 0.783738)
(34.0549 7.46907e-21 0.392604)
(33.9795 0 -0.0634964)
(33.6481 0 -0.535448)
(33.0809 -1.63619e-20 -0.987506)
(32.3132 -3.03775e-20 -1.39602)
(31.3876 -7.09558e-22 -1.74794)
(30.3476 1.38718e-20 -2.03876)
(29.234 -1.29406e-20 -2.26982)
(28.0816 1.16963e-20 -2.44597)
(26.9188 0 -2.5738)
(25.7673 0 -2.6605)
(24.6425 -9.48593e-21 -2.71308)
(23.555 3.46907e-20 -2.73794)
(22.5112 3.19088e-20 -2.74066)
(21.5146 0 -2.72596)
(20.5665 0 -2.69774)
(19.6668 0 -2.65916)
(18.8143 -6.71411e-23 -2.61277)
(18.0072 -2.04512e-20 -2.5606)
(17.2433 9.27992e-21 -2.50427)
(16.5204 1.68468e-20 -2.44504)
(15.836 -3.05542e-20 -2.38393)
(15.1878 1.37691e-20 -2.32171)
(14.5735 1.23903e-20 -2.259)
(13.9907 1.11094e-20 -2.19627)
(13.4376 0 -2.13391)
(12.912 -8.82827e-21 -2.07219)
(12.4121 7.7931e-21 -2.01133)
(11.9363 -6.84983e-21 -1.95149)
(11.4829 -1.19322e-20 -1.89279)
(11.0505 -2.06146e-20 -1.8353)
(10.6376 0 -1.77909)
(10.2431 0 -1.72419)
(9.8657 -6.12972e-21 -1.67061)
(9.50434 0 -1.61835)
(9.15801 3.85627e-21 -1.56741)
(8.82575 2.85303e-21 -1.51776)
(8.5067 0 -1.46939)
(8.20003 4.32362e-21 -1.42227)
(7.90499 6.02968e-22 -1.37636)
(7.62086 0 -1.33162)
(7.34699 -2.11081e-21 -1.28802)
(7.08273 -3.27521e-21 -1.24552)
(6.82754 0 -1.20407)
(6.58083 1.06557e-20 -1.16364)
(6.34214 -6.19973e-21 -1.12419)
(6.11092 -1.39836e-20 -1.08565)
(5.88679 0 -1.04803)
(5.66924 -2.5099e-23 -1.01123)
(5.45796 3.56357e-20 -0.975267)
(5.25245 0 -0.94005)
(5.05251 0 -0.90559)
(4.85759 -2.04411e-20 -0.871791)
(4.66761 -2.11162e-20 -0.838683)
(4.48196 4.33238e-20 -0.806147)
(4.3007 4.42696e-20 -0.774243)
(4.12313 4.50242e-20 -0.742825)
(3.94948 -4.56216e-20 -0.71199)
(3.7789 -9.21097e-20 -0.681551)
(3.61187 0 -0.651659)
(3.44732 0 -0.622071)
(3.28603 -9.32477e-20 -0.593007)
(3.12663 0 -0.564153)
(2.9703 0 -0.535818)
(2.8153 9.24446e-20 -0.507595)
(2.6633 0 -0.479908)
(2.51206 -9.09949e-20 -0.452233)
(2.36391 -3.25403e-23 -0.425143)
(2.21596 8.9046e-20 -0.397958)
(2.07137 0 -0.371441)
(1.92642 0 -0.344723)
(1.78532 0 -0.318803)
(1.64334 1.67278e-19 -0.292573)
(1.50598 0 -0.267326)
(1.36723 -1.60766e-19 -0.241661)
(1.23416 3.14528e-19 -0.217225)
(1.09926 0 -0.192263)
(0.971414 0 -0.168839)
(0.841333 0 -0.144781)
(0.720006 -2.53651e-23 -0.122634)
(0.596031 -1.37967e-19 -0.0997354)
(0.482843 -2.67807e-19 -0.0791827)
(0.366543 -2.59468e-19 -0.0577448)
(0.263245 2.51194e-19 -0.0391175)
(0.156475 0 -0.0194727)
(0.0645519 2.34411e-19 -0.00305154)
(-0.0306894 0 0.0144095)
(-0.109426 2.17523e-19 0.0284428)
(-0.194304 0 0.0435434)
(-0.250061 0 0.0540711)
(-0.342595 0 0.0697889)
(-0.348054 -3.68786e-19 0.0704545)
(-0.461332 -3.50736e-19 0.0938972)
(-0.460929 0 0.0859737)
(-0.464514 3.206e-19 0.0998067)
(-0.700456 -3.03763e-19 0.124768)
(-0.275475 2.95404e-19 0.0583381)
(-0.925744 -2.69932e-19 0.185077)
(-0.334628 0 0.0493689)
(-0.7572 0 0.158816)
(-0.578074 0 0.0986331)
(-0.582313 0 0.137272)
(-1.09189 4.22223e-19 0.174566)
(0.129245 -1.06624e-22 0.0101541)
(-2.03834 -6.83472e-19 0.401754)
(0.232982 0 -0.129852)
(-0.505763 0 0.239116)
(-2.80447 6.28545e-19 0.414476)
(2.31546 0 -0.419692)
(-3.91954 -4.05585e-19 0.926361)
(-0.724245 0 -0.133152)
(1.60388 -1.16881e-18 -0.00184808)
(-9.16056 0 1.73449)
(4.19108 0 -1.26418)
(1.7325 4.68636e-19 -0.0608877)
(-3.11903 0 0.792938)
(32.6854 0 0.693352)
(32.9863 -5.22206e-21 0.735656)
(33.3227 0 0.685208)
(33.6527 -6.57488e-21 0.521255)
(33.9129 -1.34032e-20 0.258622)
(34.0526 0 -0.070971)
(34.0432 6.68524e-21 -0.436118)
(33.8733 0 -0.810725)
(33.5434 9.02074e-22 -1.17459)
(33.0631 -2.57395e-20 -1.51323)
(32.4483 0 -1.81733)
(31.7193 0 -2.08198)
(30.8985 -1.1001e-20 -2.3056)
(30.0082 0 -2.4889)
(29.0695 0 -2.6342)
(28.1014 0 -2.74475)
(27.1201 -1.62047e-20 -2.82433)
(26.1389 -1.49207e-20 -2.87692)
(25.1685 -1.35292e-20 -2.9064)
(24.2169 0 -2.9164)
(23.29 0 -2.91021)
(22.3917 -1.05202e-20 -2.89076)
(21.5246 9.59279e-21 -2.86056)
(20.6901 -8.72802e-21 -2.82176)
(19.8888 -1.58448e-20 -2.77616)
(19.1206 2.8621e-20 -2.72528)
(18.385 -5.40246e-23 -2.67037)
(17.6812 -1.16531e-20 -2.61248)
(17.008 -1.04482e-20 -2.55244)
(16.3643 0 -2.49095)
(15.7488 0 -2.42859)
(15.1601 -7.32888e-21 -2.3658)
(14.597 0 -2.30296)
(14.0581 1.12209e-20 -2.24038)
(13.5422 9.69148e-21 -2.17827)
(13.048 -8.27214e-21 -2.11684)
(12.5743 0 -2.05622)
(12.12 5.76363e-21 -1.99653)
(11.684 4.65326e-21 -1.93785)
(11.2653 3.80568e-24 -1.88025)
(10.8629 -5.36958e-21 -1.82375)
(10.476 0 -1.76839)
(10.1035 -2.0396e-21 -1.71418)
(9.7448 0 -1.66112)
(9.39901 0 -1.60921)
(9.06543 0 -1.55843)
(8.74334 1.38924e-23 -1.50876)
(8.43213 0 -1.46018)
(8.13112 -5.00032e-21 -1.41265)
(7.8398 1.16394e-20 -1.36616)
(7.55751 1.31406e-20 -1.32065)
(7.28383 0 -1.27612)
(7.01815 -1.56689e-20 -1.2325)
(6.76013 -3.34357e-20 -1.18978)
(6.50915 0 -1.1479)
(6.26499 0 -1.10686)
(6.02699 1.92014e-20 -1.06655)
(5.79505 1.97967e-20 -1.02702)
(5.56844 -2.03365e-20 -0.98814)
(5.34725 -4.15086e-20 -0.949979)
(5.1306 0 -0.912366)
(4.91879 0 -0.875426)
(4.71079 2.87582e-23 -0.838933)
(4.50717 -4.34934e-20 -0.803075)
(4.30662 0 -0.76756)
(4.1101 4.37538e-20 -0.732657)
(3.91594 0 -0.697987)
(3.72555 0 -0.663927)
(3.53682 0 -0.629982)
(3.35177 0 -0.596673)
(3.16768 3.45159e-23 -0.563358)
(2.98734 -3.22395e-23 -0.530735)
(2.80726 -8.34734e-20 -0.497979)
(2.63122 0 -0.466016)
(2.45475 -8.11422e-20 -0.433789)
(2.28287 0 -0.402511)
(2.10991 -1.56857e-19 -0.370836)
(1.94242 1.53832e-19 -0.340331)
(1.77322 -1.50644e-19 -0.309295)
(1.61072 -1.47403e-19 -0.279723)
(1.44596 0 -0.249485)
(1.28951 1.40399e-19 -0.221083)
(1.1303 0 -0.19188)
(0.981404 -1.33072e-19 -0.164961)
(0.829251 -1.29218e-19 -0.137098)
(0.689827 2.50883e-19 -0.112041)
(0.546608 0 -0.085875)
(0.418772 -4.70503e-19 -0.0630844)
(0.286722 0 -0.0390132)
(0.17234 2.19447e-19 -0.0188366)
(0.0539126 0 0.00264111)
(-0.0448583 2.03601e-19 0.0200399)
(-0.150516 0 0.0385728)
(-0.223026 3.7568e-19 0.052148)
(-0.335184 -3.59225e-19 0.0707298)
(-0.35101 3.4511e-19 0.0732868)
(-0.485733 3.28185e-19 0.101099)
(-0.489763 0 0.0915992)
(-0.507743 -5.9984e-19 0.11243)
(-0.764683 5.68258e-19 0.134005)
(-0.311774 0 0.0683955)
(-1.03556 2.52451e-19 0.208122)
(-0.366581 0 0.0511178)
(-0.870525 0 0.185602)
(-0.640854 -4.48043e-19 0.106501)
(-0.679724 0 0.164605)
(-1.20406 0 0.184828)
(0.0785374 3.94633e-19 0.0330653)
(-2.25927 6.38553e-19 0.444657)
(0.251085 3.78198e-19 -0.159356)
(-0.668384 0 0.317272)
(-2.99636 0 0.409134)
(2.38455 0 -0.419351)
(-4.35326 0 1.05597)
(-0.569116 6.50287e-19 -0.245364)
(1.43015 5.46248e-19 0.150296)
(-9.98698 0 1.8591)
(4.68181 0 -1.51536)
(1.73271 0 0.0425021)
(-3.2327 0 0.877286)
(32.6834 4.17153e-21 0.405525)
(32.915 0 0.420594)
(33.1704 4.8892e-21 0.379082)
(33.4347 0 0.264971)
(33.6772 5.9928e-21 0.0788134)
(33.8662 0 -0.164693)
(33.9789 -6.28327e-21 -0.446416)
(34.0003 1.15158e-20 -0.748421)
(33.9211 2.35143e-20 -1.05555)
(33.7367 7.29561e-22 -1.35582)
(33.4465 0 -1.64021)
(33.0539 0 -1.90252)
(32.5657 0 -2.13889)
(31.9908 0 -2.34724)
(31.3404 0 -2.52683)
(30.6265 0 -2.67792)
(29.8616 1.45973e-20 -2.80152)
(29.058 -1.35195e-20 -2.89922)
(28.2272 1.27121e-20 -2.97302)
(27.3798 0 -3.02512)
(26.525 0 -3.05786)
(25.6705 9.68481e-21 -3.07357)
(24.823 8.85443e-21 -3.0745)
(23.9875 8.0746e-21 -3.06277)
(23.1682 0 -3.04031)
(22.368 -1.34132e-20 -3.00885)
(21.589 -2.41589e-20 -2.96995)
(20.8329 1.08507e-20 -2.92495)
(20.1004 0 -2.87502)
(19.3921 0 -2.82117)
(18.7081 0 -2.76426)
(18.0481 6.85109e-21 -2.70502)
(17.4118 0 -2.64407)
(16.7987 0 -2.58193)
(16.208 9.07906e-21 -2.51904)
(15.6391 7.7709e-21 -2.45575)
(15.0912 0 -2.39238)
(14.5635 5.41046e-21 -2.32916)
(14.055 -8.7404e-21 -2.26629)
(13.5651 -3.4092e-21 -2.20395)
(13.0928 2.52403e-21 -2.14227)
(12.6374 0 -2.08134)
(12.1981 0 -2.02125)
(11.774 0 -1.96207)
(11.3645 -6.82251e-22 -1.90382)
(10.9687 0 -1.84656)
(10.5861 2.87775e-21 -1.79028)
(10.2159 3.81207e-21 -1.73501)
(9.85743 0 -1.68073)
(9.51019 -5.45798e-21 -1.62745)
(9.17345 0 -1.57514)
(8.84677 0 -1.5238)
(8.52944 -1.46643e-20 -1.47338)
(8.22114 2.19579e-23 -1.4239)
(7.92113 1.65405e-20 -1.37527)
(7.62919 0 -1.32753)
(7.34455 0 -1.28056)
(7.06713 -1.85791e-20 -1.23444)
(6.79606 0 -1.18899)
(6.53146 3.89505e-20 -1.14434)
(6.2723 0 -1.10027)
(6.01895 0 -1.05694)
(5.77016 8.10292e-20 -1.0141)
(5.52664 8.15764e-20 -0.971961)
(5.28682 4.09347e-20 -0.930189)
(5.05184 0 -0.889112)
(4.81971 0 -0.848272)
(4.59212 4.08296e-20 -0.80813)
(4.36653 8.12414e-20 -0.768092)
(4.14534 0 -0.728785)
(3.9253 8.00163e-20 -0.689439)
(3.70973 -7.91977e-20 -0.650896)
(3.49445 7.82508e-20 -0.612161)
(3.28395 -7.71819e-20 -0.57435)
(3.0729 7.60522e-20 -0.536191)
(2.86725 0 -0.49914)
(2.66024 0 -0.46158)