/*--------------------------------*- C++ -*----------------------------------*\
| =========                 |                                                 |
| \\      /  F ield         | OpenFOAM: The Open Source CFD Toolbox           |
|  \\    /   O peration     | Version:  2412                                  |
|   \\  /    A nd           | Website:  www.openfoam.com                      |
|    \\/     M anipulation  |                                                 |
\*---------------------------------------------------------------------------*/
FoamFile
{
    version     2.0;
    format      ascii;
    arch        "LSB;label=32;scalar=64";
    class       volVectorField;
    location    "0.25";
    object      ddt0(U);
}
// * * * * * * * * * * * * * * * * * * * * * * * * * * * * * * * * * * * * * //

dimensions      [0 1 -2 0 0 0 0];

internalField   nonuniform List<vector> 
12600
(
(-11.1393 0 -1.35461)
(-7.90947 -4.41108e-19 0.210983)
(-4.34359 1.80232e-19 0.653286)
(-2.82988 0 0.978107)
(-1.52179 -8.85996e-20 0.972511)
(-0.188624 0 1.07459)
(1.00492 -1.15997e-18 1.17899)
(1.3628 0 1.09646)
(0.963136 0 0.847201)
(0.358881 0 0.525076)
(-0.178596 0 0.174256)
(-0.694501 2.96686e-18 -0.143846)
(-1.33027 7.16311e-19 -0.477833)
(-1.97369 0 -0.750788)
(-2.25492 1.22863e-17 -0.80532)
(-1.85687 0 -0.536769)
(-0.733534 1.94659e-19 0.0381969)
(0.77236 0 0.679576)
(2.24276 4.60991e-18 1.26726)
(3.47704 0 1.7056)
(4.38824 0 1.93274)
(4.60798 0 1.69851)
(3.2841 -6.06724e-17 0.61246)
(0.594419 6.04301e-17 -1.13448)
(-1.61205 3.09096e-18 -2.48998)
(-2.53803 -1.38814e-17 -3.44009)
(-3.92846 0 -4.93205)
(-7.80346 0 -7.08149)
(-11.5683 0 -7.00217)
(-5.33657 -1.25613e-16 0.203233)
(5.92929 -2.22402e-16 7.64968)
(5.45065 0 5.42447)
(-12.7856 0 -0.630137)
(10.2758 -2.57631e-16 22.1778)
(36.0841 -7.93421e-17 25.944)
(19.1003 0 8.5958)
(0.480386 0 -2.51662)
(-7.38141 8.04755e-17 -5.94188)
(-11.3284 0 -7.12902)
(-11.9945 -1.36339e-17 -6.49907)
(-8.02137 -2.7686e-16 -3.53871)
(-0.975394 -2.86551e-16 0.714106)
(6.9403 0 4.9414)
(13.2055 -5.88067e-17 7.90717)
(15.5194 1.39225e-16 8.57869)
(13.2784 -5.7485e-16 6.68539)
(6.32165 7.176e-16 2.28376)
(-3.6115 0 -3.33387)
(-13.5273 -3.63885e-16 -7.40188)
(-20.6997 -1.1288e-16 -8.78319)
(-22.8062 0 -7.36491)
(-16.2911 8.18478e-18 -1.726)
(-3.78437 9.71794e-16 2.92367)
(6.29134 0 4.37545)
(8.08012 4.68056e-17 2.18633)
(6.05252 0 3.12907)
(23.1946 0 20.876)
(21.7998 2.43317e-17 5.54005)
(7.14681 -1.2394e-17 -5.62796)
(-11.1364 -1.02049e-15 -11.3843)
(-11.8172 -1.3952e-15 -9.72351)
(-14.1111 5.87393e-15 -10.5169)
(-22.0307 0 12.761)
(-40.282 5.08879e-15 34.1176)
(-41.7325 2.95462e-15 28.7522)
(18.9287 -2.93343e-15 8.71752)
(56.7366 -3.25836e-15 -0.130604)
(17.0953 0 6.14166)
(-20.8564 0 12.5133)
(-51.0872 0 -25.7505)
(2.96699 0 -33.8518)
(71.2374 0 -60.3981)
(88.5369 -8.02028e-15 -66.2898)
(80.8936 1.45585e-14 -52.1824)
(55.3464 0 -10.9399)
(10.6082 0 34.2864)
(-43.9541 1.38102e-15 54.4401)
(-63.6 -4.66539e-17 43.7269)
(-41.6838 -1.06204e-14 24.7728)
(-29.7784 0 14.5961)
(-26.6369 0 7.62807)
(-18.6011 0 2.78902)
(-9.50724 2.96078e-17 0.0436623)
(-0.766758 0 0.347447)
(-0.263087 0 1.43665)
(0.356599 2.90108e-15 2.35195)
(6.90291 -2.8953e-17 0.415654)
(14.2045 0 -5.12845)
(14.6357 0 -6.8613)
(7.07775 2.50382e-15 -3.82578)
(-3.07445 1.75437e-15 -0.528353)
(-6.40292 7.32956e-16 1.92301)
(-5.16647 4.48828e-16 2.17829)
(-4.50492 1.22632e-17 1.48642)
(-2.88414 1.08041e-17 0.959168)
(-0.742467 1.07692e-15 0.543946)
(1.86388 0 0.656526)
(2.91581 0 -0.0825638)
(2.34044 0 -0.754757)
(1.38668 -1.3881e-15 -0.717205)
(0.174785 7.50908e-16 0.00864317)
(-1.50098 -7.5238e-16 0.535687)
(-3.02007 -5.53996e-16 1.22518)
(-3.93294 0 1.69385)
(-4.0843 0 1.89608)
(-3.70432 0 2.07958)
(-2.96631 4.23913e-16 1.82774)
(-2.59171 0 1.59912)
(-1.90393 -3.32945e-17 1.32956)
(-1.64706 0 1.04339)
(-1.52725 0 0.867431)
(-1.08683 -3.11837e-16 0.767493)
(-1.32781 0 0.685837)
(-1.1806 0 0.543198)
(-1.15822 0 0.717338)
(-1.17929 1.52726e-16 0.521568)
(-1.19681 0 0.747633)
(-1.0914 -6.8459e-16 0.7969)
(-1.41543 0 0.734771)
(-2.04004 -5.856e-19 1.12555)
(-18.1648 -1.48441e-18 -2.12213)
(-15.7546 -3.39469e-20 0.237036)
(-11.3416 9.30104e-19 2.18064)
(-7.59045 0 3.19814)
(-4.89842 -2.31255e-18 3.16644)
(-2.74595 1.84379e-18 3.08695)
(-1.33409 1.20989e-18 2.93816)
(-1.0084 9.03934e-19 2.55311)
(-1.36797 0 2.03493)
(-1.81212 0 1.52355)
(-2.15464 0 1.01857)
(-2.54062 0 0.51993)
(-3.08166 0 0.000892651)
(-3.52595 0 -0.397123)
(-3.45903 9.00286e-19 -0.466738)
(-2.62162 0 -0.0869814)
(-1.12191 1.02707e-17 0.699269)
(0.678953 0 1.59948)
(2.32219 -7.75403e-18 2.33697)
(3.65248 -5.45072e-18 2.88718)
(4.54578 0 3.16721)
(4.43257 -2.77232e-17 2.73992)
(2.34246 3.17142e-17 0.857088)
(-1.11507 -3.05404e-17 -2.37834)
(-3.70297 2.17501e-17 -5.05549)
(-5.40006 0 -7.39306)
(-8.18467 1.23866e-17 -10.9764)
(-12.8938 0 -15.359)
(-13.5609 0 -13.7424)
(0.161986 0 3.48998)
(14.3254 1.08683e-16 19.3522)
(8.90504 0 13.3342)
(-5.06292 0 5.98192)
(38.9994 0 61.3723)
(51.2706 0 54.5212)
(18.9063 0 15.1292)
(-2.55381 0 -5.52515)
(-9.76214 -8.28019e-17 -10.9869)
(-13.2226 0 -12.5414)
(-12.7058 3.9983e-16 -10.9852)
(-6.9141 5.75946e-16 -5.77505)
(1.83322 2.78261e-16 1.23652)
(10.8712 0 7.95229)
(17.4637 0 12.7047)
(19.1452 -3.14883e-16 14.002)
(15.1924 5.8696e-16 11.1949)
(5.32578 -7.36491e-16 4.06607)
(-7.91823 0 -5.10777)
(-19.7627 2.78816e-16 -10.2794)
(-27.5704 0 -9.91512)
(-29.9104 0 -5.78442)
(-24.0111 -9.93072e-16 2.3951)
(-12.5194 0 8.74813)
(-2.78267 0 10.4879)
(0.544988 -4.72897e-17 6.76431)
(5.15934 0 6.37016)
(42.3847 0 45.6194)
(32.8331 3.03552e-17 -0.320397)
(29.0498 -2.49736e-15 -19.7015)
(21.1691 2.22738e-17 -31.0665)
(22.4686 0 -29.2714)
(0.930737 -5.94292e-15 -18.2989)
(-60.5854 -6.85759e-15 44.1773)
(-153.985 0 105.131)
(-160.914 -5.93014e-15 91.5917)
(-1.81668 5.00644e-17 16.1094)
(91.8555 0 -19.104)
(11.2971 -9.00571e-15 14.6314)
(-67.2839 0 35.9645)
(-76.38 0 -40.5574)
(99.0331 0 -104.123)
(286.343 0 -189.946)
(319.097 1.57924e-14 -199.941)
(251.527 -1.42868e-14 -146.847)
(112.566 0 -31.5486)
(-50.396 0 89.311)
(-189.692 9.42942e-16 146.996)
(-206.793 -4.68087e-17 125.807)
(-134.865 -1.96507e-18 75.5097)
(-86.258 0 45.6968)
(-56.8655 0 23.6154)
(-33.2727 0 9.8588)
(-12.6637 4.08036e-17 1.26392)
(-1.50623 -3.43739e-15 0.789514)
(-3.64824 3.16958e-15 3.69258)
(-2.43005 -2.80305e-15 4.37376)
(15.6185 -3.45786e-17 -4.47349)
(37.9093 -1.95652e-16 -18.9576)
(40.4961 0 -21.5914)
(19.6464 -2.4066e-15 -10.7005)
(-6.53364 0 1.5232)
(-16.7849 -7.02773e-16 7.86127)
(-14.8273 0 7.61907)
(-12.0169 -2.37662e-16 5.54818)
(-7.78539 -7.6575e-16 3.55658)
(-2.74564 0 1.65125)
(3.11518 0 1.18001)
(5.49664 -3.54004e-16 -1.43126)
(5.20561 -3.9465e-16 -2.42151)
(3.04721 1.33383e-15 -1.64388)
(-0.857703 -7.13164e-16 0.657246)
(-5.42553 7.13922e-16 2.78934)
(-9.57 0 4.88288)
(-12.0609 -1.6804e-16 6.31943)
(-12.3986 0 6.6538)
(-11.842 0 6.76925)
(-9.87697 -3.99007e-16 5.81472)
(-8.59165 0 5.06268)
(-6.84378 2.29499e-18 4.17687)
(-5.73092 -3.05229e-16 3.39491)
(-5.15196 0 2.93571)
(-4.20798 0 2.5579)
(-4.4328 0 2.4529)
(-3.94675 -8.4521e-17 2.1091)
(-4.36058 1.21182e-16 2.5409)
(-3.90856 -1.43576e-16 2.06764)
(-4.60673 0 2.70394)
(-4.53639 6.43001e-16 2.77467)
(-4.79183 0 2.68452)
(-6.86781 2.7572e-16 3.90561)
(-18.4464 3.18598e-18 0.357176)
(-17.4748 -1.6272e-18 1.28903)
(-15.0794 -2.42316e-18 3.13898)
(-12.4754 0 4.39747)
(-9.6018 -1.21281e-18 4.72454)
(-6.98992 -5.58782e-19 4.59006)
(-5.24797 0 4.16993)
(-4.51154 -8.57851e-19 3.6048)
(-4.35573 0 3.07195)
(-4.30086 -2.07678e-18 2.66691)
(-4.24011 0 2.3367)
(-4.3152 0 1.99001)
(-4.51239 0 1.67139)
(-4.5906 0 1.47107)
(-4.24369 -7.2583e-18 1.43939)
(-3.31409 0 1.572)
(-1.95026 0 1.80113)
(-0.414376 0 2.06583)
(0.903396 2.80483e-18 2.11907)
(2.01035 -2.04159e-18 2.1374)
(2.71425 0 2.05985)
(2.42939 -1.18389e-18 1.60769)
(0.411454 0 0.386853)
(-2.41336 2.25434e-17 -1.73064)
(-4.29829 0 -3.55025)
(-5.78609 0 -5.34637)
(-8.23395 -1.17497e-17 -8.21933)
(-11.1068 0 -11.3169)
(-7.74595 0 -8.27409)
(7.08248 -8.70658e-17 7.86973)
(16.6681 0 21.3976)
(8.93355 0 15.1085)
(11.2531 0 22.1746)
(55.0267 0 80.3319)
(40.1325 -9.89046e-17 45.8807)
(9.21662 0 8.1438)
(-4.17917 0 -5.71384)
(-7.84191 2.37669e-17 -8.30791)
(-9.90077 0 -8.55063)
(-8.73998 -4.14393e-16 -6.77054)
(-3.57935 2.08853e-18 -3.18323)
(3.46716 -2.63442e-16 0.961835)
(10.3643 0 4.54421)
(15.0979 0 7.08737)
(15.6981 1.63308e-16 7.98335)
(11.4101 0 6.52359)
(2.13375 6.9669e-16 2.66094)
(-9.46009 0 -1.79526)
(-19.568 -3.12527e-17 -2.28157)
(-26.9616 0 1.41837)
(-30.8493 0 6.40952)
(-29.0691 0 10.8283)
(-20.768 -9.19102e-16 13.6506)
(-11.6075 0 13.6449)
(-5.52855 0 9.90621)
(5.25573 0 6.13118)
(41.387 0 32.8068)
(37.8596 -4.90587e-15 -17.5649)
(50.6089 0 -34.8942)
(52.4338 3.01196e-18 -46.4064)
(52.2327 0 -43.416)
(14.1313 2.81844e-15 -11.3046)
(-99.5392 6.46574e-15 80.8687)
(-259.271 0 169.266)
(-275.289 5.67827e-15 147.117)
(-31.6958 1.30225e-15 14.2416)
(111.514 0 -45.4226)
(5.97461 8.48112e-15 21.1209)
(-103.283 0 51.0311)
(-72.2867 0 -54.3608)
(220.31 0 -182.568)
(502 0 -317.52)
(523.029 -7.92413e-17 -306.109)
(381.635 1.34356e-14 -201.002)
(128.772 0 -33.68)
(-132.455 0 136.02)
(-323.185 -8.26078e-17 214.172)
(-328.303 7.64331e-15 185.261)
(-218.977 4.87386e-15 115.83)
(-138.474 0 71.5741)
(-83.4312 0 36.1963)
(-45.4344 0 15.6983)
(-14.9009 -4.00953e-15 2.59147)
(-1.93803 -5.67023e-18 0.88924)
(-6.24345 -2.97331e-15 4.94387)
(-3.65567 0 3.35067)
(25.0025 -1.55066e-15 -13.947)
(60.55 1.83423e-16 -33.8349)
(63.1299 0 -33.9287)
(29.0105 0 -14.3317)
(-10.8688 -1.53492e-15 5.49335)
(-26.2427 0 14.5455)
(-23.6919 -3.7693e-16 12.9578)
(-18.6864 -8.33268e-18 9.61313)
(-12.0675 7.37842e-16 6.07741)
(-4.53557 -9.70972e-16 2.46486)
(3.43505 0 0.49996)
(6.8831 3.31292e-16 -3.09927)
(6.65086 3.69275e-16 -3.46331)
(3.04019 -1.26146e-15 -1.58845)
(-3.43273 0 2.45215)
(-10.5233 6.69853e-16 6.10269)
(-16.7059 0 9.45335)
(-20.37 1.5713e-16 11.4655)
(-20.6499 8.71959e-17 11.6151)
(-19.8418 0 11.3034)
(-16.728 3.72972e-16 9.59243)
(-14.56 0 8.34414)
(-11.9054 5.44179e-17 6.90346)
(-10.0319 2.85226e-16 5.77484)
(-9.04646 0 5.13356)
(-7.7525 0 4.51509)
(-7.92987 0 4.47449)
(-7.1781 6.87489e-19 4.04253)
(-8.06294 -1.13193e-16 4.65857)
(-7.12634 1.29615e-16 4.00504)
(-8.57591 0 5.02552)
(-8.52068 6.03705e-16 5.03586)
(-8.65989 0 4.99427)
(-12.0728 2.05013e-18 6.95237)
(-17.0535 -1.68471e-18 2.35789)
(-16.4381 9.35089e-20 2.7662)
(-16.3814 1.29093e-18 3.48979)
(-15.8656 -5.31197e-19 4.50884)
(-14.0608 -1.07288e-19 5.31929)
(-11.6868 -1.75263e-18 5.69147)
(-9.6443 0 5.6531)
(-8.35749 0 5.28474)
(-7.68974 0 4.7535)
(-7.27676 1.96698e-18 4.24177)
(-6.95334 0 3.80577)
(-6.75563 0 3.43306)
(-6.65232 0 3.14293)
(-6.45378 0 2.9591)
(-5.90877 0 2.8702)
(-4.89244 -8.22391e-18 2.83282)
(-3.55236 7.83547e-18 2.77462)
(-2.12883 0 2.67227)
(-0.890851 0 2.40221)
(0.176709 6.83379e-18 2.14758)
(0.818833 -1.79868e-17 1.8395)
(0.577468 2.6035e-17 1.42053)
(-1.11728 -2.78562e-17 0.772592)
(-3.14288 -2.13463e-17 -0.14248)
(-4.10437 7.18082e-18 -0.764808)
(-4.78591 7.60797e-18 -1.23954)
(-6.18783 0 -2.3272)
(-6.9951 -3.89862e-17 -3.19703)
(-1.79733 0 -0.48214)
(8.77289 8.2401e-17 6.42068)
(11.0895 0 10.9732)
(7.45843 0 10.4443)
(25.0724 0 32.516)
(48.6674 1.31137e-16 68.1509)
(18.7505 9.35633e-17 23.5722)
(0.507585 0 0.0274514)
(-4.45483 0 -5.07666)
(-5.83759 -2.24735e-17 -5.50425)
(-7.19671 0 -5.15537)
(-5.90914 -4.43488e-18 -3.62145)
(-1.51855 -2.63191e-16 -1.49916)
(4.191 0 0.588383)
(9.62207 0 2.1747)
(13.0845 0 3.3272)
(12.7777 0 3.84926)
(8.02528 5.86395e-16 3.10954)
(-0.753946 0 1.80743)
(-10.996 -5.05134e-16 1.3798)
(-20.7189 -2.19409e-16 3.45991)
(-29.3288 0 7.62019)
(-35.1409 0 12.255)
(-35.1335 0 16.0758)
(-27.8462 8.67134e-16 18.1314)
(-18.4444 -4.9165e-16 16.9737)
(-10.3437 4.30346e-17 11.4238)
(5.5177 0 4.79571)
(31.1264 1.89121e-15 1.36229)
(47.7269 4.62012e-15 -29.5763)
(70.6871 0 -50.0078)
(78.2639 1.77481e-15 -62.3674)
(75.5146 0 -52.7675)
(18.3836 -2.63169e-15 -1.98751)
(-136.45 -5.89016e-15 120.949)
(-348.19 0 230.522)
(-386.355 -2.69616e-15 196.821)
(-66.5805 -1.33171e-15 14.7228)
(126.564 0 -61.3592)
(4.8852 0 30.0037)
(-127.106 0 60.476)
(-40.7818 -4.91601e-15 -71.2499)
(356.665 -9.78753e-16 -281.488)
(705.487 0 -448.5)
(685.474 -6.90388e-15 -390.768)
(459.974 -1.2386e-14 -224.326)
(109.556 0 -14.6767)
(-213.031 0 195.072)
(-426.028 -7.54485e-16 278.477)
(-422.133 -2.8167e-17 232.891)
(-288.932 0 147.774)
(-183.999 0 92.5481)
(-107.887 0 46.3741)
(-56.7316 0 19.6027)
(-17.2839 -1.78836e-17 3.01651)
(-2.02572 3.02932e-15 0.880159)
(-7.45103 0 5.7907)
(-2.08215 0 1.47803)
(36.9653 0 -23.2403)
(82.1833 1.6245e-16 -47.6749)
(81.9936 0 -43.9215)
(34.8482 -2.15402e-15 -15.6019)
(-15.9676 1.43737e-15 10.9527)
(-35.4118 -5.97031e-16 20.4828)
(-32.0104 3.52864e-16 17.6365)
(-24.9167 2.46147e-16 12.9737)
(-16.0249 -6.90523e-16 8.09805)
(-6.21584 9.0857e-16 3.14317)
(3.29769 0 -0.135094)
(7.58559 0 -3.78929)
(6.68404 3.54276e-16 -3.56306)
(1.41235 5.92426e-16 -0.478907)
(-7.54333 7.03542e-16 5.13135)
(-16.8304 1.75097e-18 9.98495)
(-24.5592 0 14.2772)
(-28.9975 0 16.5539)
(-28.946 -8.15023e-17 16.4323)
(-27.659 0 15.7338)
(-23.4595 -3.50943e-16 13.3451)
(-20.4687 0 11.6419)
(-17.0396 5.56713e-19 9.73935)
(-14.5647 0 8.30908)
(-13.2554 2.2718e-16 7.49675)
(-11.7128 -2.58045e-16 6.74806)
(-11.8788 -3.87067e-16 6.7155)
(-10.9685 4.70856e-19 6.22385)
(-12.2764 0 7.06283)
(-10.9275 -1.21044e-16 6.19243)
(-13.1063 5.30674e-16 7.6563)
(-13.0139 -5.63719e-16 7.59143)
(-13.0611 0 7.58161)
(-17.5946 2.78023e-18 10.1746)
(-15.8161 0 3.39787)
(-15.3303 3.59211e-19 3.53937)
(-16.1853 0 3.68596)
(-16.9243 5.01901e-19 4.44978)
(-16.4894 1.18544e-18 5.40273)
(-15.11 5.9146e-19 6.23052)
(-13.4523 0 6.7991)
(-12.1471 0 6.84356)
(-11.3425 1.78378e-18 6.39249)
(-10.7906 1.95311e-18 5.78688)
(-10.2902 -1.53717e-18 5.26741)
(-9.84788 -1.29319e-18 4.87365)
(-9.47652 1.13188e-18 4.57862)
(-9.04588 0 4.35863)
(-8.33204 0 4.18917)
(-7.21188 1.52376e-17 4.03114)
(-5.81149 -3.32617e-19 3.82547)
(-4.35859 0 3.5693)
(-3.05825 -1.11129e-18 3.17878)
(-1.89501 7.12599e-18 2.8255)
(-1.12598 1.70046e-17 2.47077)
(-1.16361 0 2.17931)
(-2.61966 2.63325e-17 1.76332)
(-4.04524 -1.90478e-17 1.6138)
(-4.49345 -6.78736e-18 1.46117)
(-4.82695 -5.1812e-19 1.43579)
(-5.74932 0 0.871635)
(-5.47054 6.21211e-19 0.827266)
(-0.638038 0 2.26572)
(5.39702 6.03673e-17 1.9155)
(3.92363 0 -0.965726)
(6.94176 0 3.3604)
(24.514 0 21.7532)
(22.6858 -1.2386e-16 27.7283)
(0.763684 0 4.26391)
(-4.5402 0 -5.29863)
(-4.13964 0 -4.41161)
(-4.64262 0 -3.83561)
(-5.83302 -1.03248e-16 -3.48437)
(-4.52966 3.89986e-16 -2.12928)
(-0.728235 0 -0.943188)
(4.19909 2.16906e-16 0.111136)
(8.83987 0 0.812998)
(11.6623 0 1.52415)
(10.8262 0 2.14103)
(5.76015 -1.88198e-19 2.10593)
(-2.85319 0 2.42643)
(-12.7558 4.7629e-16 4.08379)
(-22.7822 0 7.45279)
(-32.4168 0 12.0405)
(-39.4953 -5.90978e-16 16.7445)
(-40.5091 0 20.3944)
(-33.6782 0 21.8136)
(-23.7845 2.37039e-18 19.371)
(-13.667 -4.05333e-17 11.8653)
(5.28529 0 1.48484)
(28.2421 -9.5999e-18 -19.1672)
(58.7864 -4.33137e-15 -41.1643)
(88.5353 0 -64.3552)
(99.311 -8.34707e-16 -75.8514)
(91.6928 0 -57.7419)
(17.2818 2.47576e-15 13.0514)
(-168.771 5.54024e-15 162.075)
(-417.828 0 284.054)
(-495.334 2.62679e-15 243.273)
(-111.83 -8.76266e-17 14.9228)
(133.498 0 -72.6488)
(7.27982 0 38.5869)
(-134.857 0 62.3267)
(18.6378 9.08027e-15 -89.7958)
(500.754 1.27992e-16 -395.843)
(893.476 0 -568.601)
(801.609 6.22563e-15 -442.938)
(489.642 2.30848e-14 -211.588)
(80.8949 0 53.2071)
(-286.647 0 256.863)
(-503.204 0 327.76)
(-492.905 -3.7306e-17 264.925)
(-345.176 0 170.362)
(-222.752 0 108.306)
(-130.772 0 54.1258)
(-67.5051 0 22.2258)
(-19.7851 1.78721e-15 2.97583)
(-1.8001 2.85043e-15 0.561583)
(-7.24276 0 5.74509)
(3.25249 0 0.608826)
(49.9963 0 -33.6364)
(101.987 -3.12124e-18 -60.4897)
(97.1787 0 -51.1289)
(37.9083 2.01647e-15 -14.3652)
(-22.6421 0 15.531)
(-44.0801 5.58747e-16 25.947)
(-39.6903 0 21.7304)
(-30.6258 -1.18575e-16 15.8256)
(-19.7092 0 9.72829)
(-7.96869 0 3.73473)
(2.38536 0 -0.791696)
(7.21335 0 -3.73778)
(5.3142 -3.31265e-16 -2.57969)
(-1.74798 0 1.69586)
(-13.0219 -6.57701e-16 8.62969)
(-23.9754 -5.87086e-16 14.6105)
(-32.9069 0 19.3857)
(-37.735 0 21.7078)
(-37.2357 0 21.1771)
(-35.3742 0 20.0226)
(-30.2025 -1.89171e-18 17.0233)
(-26.4625 0 14.9188)
(-22.3767 -4.94777e-17 12.643)
(-19.4213 0 11.0036)
(-17.8309 -4.23646e-16 10.0563)
(-16.1399 2.41008e-16 9.2603)
(-16.2826 3.61488e-16 9.22676)
(-15.2884 6.78264e-17 8.73503)
(-16.9841 0 9.77273)
(-15.2643 0 8.71526)
(-18.1411 -9.90599e-16 10.615)
(-17.9738 -5.26532e-16 10.434)
(-17.9637 -1.49902e-16 10.4949)
(-23.3202 -1.1716e-16 13.5392)
(-15.1702 0 3.51255)
(-14.6421 1.59141e-18 3.7611)
(-15.3101 0 3.97449)
(-16.3514 0 4.60986)
(-16.806 0 5.39801)
(-16.4149 0 6.31666)
(-15.5668 0 7.28842)
(-14.8692 -1.23848e-18 7.78251)
(-14.5005 -1.68297e-18 7.56002)
(-14.2254 -3.74436e-18 6.99873)
(-13.82 2.93697e-18 6.50931)
(-13.3038 1.22045e-18 6.18725)
(-12.7666 -1.0683e-18 5.96323)
(-12.1584 0 5.77655)
(-11.2922 0 5.60394)
(-10.0523 -1.37636e-17 5.42022)
(-8.55341 -1.30287e-17 5.17367)
(-7.02399 0 4.85693)
(-5.61672 1.04904e-18 4.41541)
(-4.32189 -6.72605e-18 3.99993)
(-3.41136 0 3.59393)
(-3.32528 -2.28875e-17 3.26653)
(-4.50809 0 2.84717)
(-5.49934 -4.99129e-19 3.12727)
(-5.73585 7.85988e-18 3.11105)
(-5.92285 -1.50874e-18 3.15378)
(-6.66596 0 2.63895)
(-6.1404 3.41756e-17 2.43691)
(-2.38477 -8.01046e-17 2.25917)
(1.65194 -1.16275e-16 -0.597636)
(0.258001 -1.15753e-17 -5.428)
(5.06459 0 -1.66162)
(13.1301 8.48863e-17 2.89437)
(0.466784 0 -6.85752)
(-7.11208 0 -6.54713)
(-5.8205 0 -6.7137)
(-4.72069 0 -5.775)
(-4.468 0 -3.38231)
(-5.5578 -3.26897e-18 -3.02418)
(-4.1716 -1.83946e-16 -1.6378)
(-0.782783 0 -0.946626)
(3.76342 -4.05332e-16 -0.243713)
(7.99766 0 0.169505)
(10.5316 0 0.930039)
(9.339 0 1.79941)
(4.03146 -5.2077e-16 2.3783)
(-4.58135 0 3.76033)
(-14.5599 0 6.519)
(-25.0141 0 10.6224)
(-35.3681 0 15.6158)
(-43.2332 1.11116e-15 20.4724)
(-44.8019 0 23.9662)
(-38.0887 0 24.6793)
(-27.5797 4.33562e-16 20.8298)
(-15.5986 0 11.3493)
(5.60679 0 -2.99125)
(32.0269 -3.31129e-15 -29.02)
(69.0964 2.03093e-15 -52.5755)
(103.347 0 -77.5346)
(115.038 0 -86.418)
(101.198 0 -58.0753)
(12.419 -2.27444e-15 32.143)
(-193.49 0 202.493)
(-464.567 0 328.701)
(-602.388 -4.96696e-15 289.058)
(-170.361 2.60752e-15 17.0779)
(130.782 0 -80.6716)
(13.158 0 46.3789)
(-128.888 0 54.9169)
(78.2499 -4.18818e-15 -154.998)
(649.823 7.42469e-16 -519.313)
(1056.31 -3.75779e-16 -672.985)
(865.204 -5.84019e-15 -458.466)
(477.072 -1.07475e-14 -168.129)
(2.38245 9.68522e-15 71.9738)
(-349.29 0 313.452)
(-555.47 0 364.599)
(-543.569 -3.08954e-15 285.341)
(-389.232 0 184.773)
(-255.326 0 119.443)
(-152.104 0 59.9975)
(-78.0944 0 23.9517)
(-22.4941 0 2.63249)
(-1.15409 -5.34601e-15 -0.079704)
(-5.22972 0 4.76883)
(8.87961 -2.13999e-15 -4.93711)
(63.3907 0 -44.6702)
(119.421 -3.47464e-18 -72.0026)
(108.617 -1.54963e-15 -55.733)
(38.423 0 -11.0649)
(-28.4654 0 22.5031)
(-51.8707 0 31.0266)
(-46.6679 0 25.3338)
(-35.8417 1.24193e-16 18.261)
(-23.1877 0 11.1472)
(-10.002 0 4.36156)
(1.52027 0 0.4004)
(5.64864 0 -2.94649)
(2.35197 0 -0.825224)
(-6.34893 0 4.78945)
(-19.6073 0 12.8787)
(-31.8914 0 19.6033)
(-41.5962 3.93105e-16 24.7293)
(-46.5453 0 26.8683)
(-45.5395 0 25.9082)
(-43.0484 0 24.2688)
(-37.0441 3.08066e-16 20.7331)
(-32.6303 0 18.2819)
(-27.9977 2.35557e-17 15.6904)
(-24.6718 0 13.9076)
(-22.8255 8.50939e-19 12.8359)
(-21.0755 0 12.0494)
(-21.1665 -3.36482e-16 11.9912)
(-20.1544 0 11.5396)
(-22.1767 0 12.7408)
(-20.1376 0 11.5218)
(-23.6372 4.62236e-16 13.829)
(-23.3474 9.82714e-16 13.4895)
(-23.3576 2.82267e-16 13.6835)
(-29.1376 -1.1681e-16 16.9581)
(-14.7257 0 3.41806)
(-14.0685 -9.67026e-19 3.85928)
(-14.3765 0 4.28438)
(-15.2943 0 4.87107)
(-15.9967 6.21483e-19 5.44982)
(-16.1026 5.83334e-19 6.19624)
(-15.8855 -8.48336e-19 7.2365)
(-15.8753 3.84763e-18 8.03474)
(-16.2075 0 8.10225)
(-16.5872 4.02996e-21 7.7044)
(-16.6851 -1.4005e-18 7.3563)
(-16.451 0 7.22496)
(-16.0094 0 7.20084)
(-15.3953 0 7.1727)
(-14.4856 0 7.10942)
(-13.196 3.8272e-19 6.99985)
(-11.6484 4.12797e-19 6.79661)
(-10.077 3.73765e-18 6.48266)
(-8.60119 7.29053e-19 6.01796)
(-7.22295 0 5.52234)
(-6.22989 1.45072e-17 4.99241)
(-6.06587 2.1571e-17 4.52401)
(-7.00598 0 4.0271)
(-7.81664 -3.54281e-19 4.1971)
(-7.88114 1.10824e-18 4.25166)
(-7.99946 -4.51095e-18 4.26106)
(-8.54905 0 3.85108)
(-7.91745 0 3.57315)
(-4.92129 7.54744e-17 2.64386)
(-1.75727 -4.11616e-18 -0.908293)
(-2.07319 3.47718e-17 -5.97192)
(2.60123 0 -4.14668)
(5.11089 -1.49312e-16 -5.9644)
(-5.86482 0 -14.5487)
(-7.84393 0 -8.35884)
(-4.86189 6.06458e-17 -4.05036)
(-4.06735 0 -3.90904)
(-5.27323 -1.52506e-17 -4.643)
(-6.3139 -5.52608e-18 -3.71828)
(-4.5265 1.71229e-16 -1.61913)
(-1.36068 0 -1.05008)
(3.06503 2.78585e-18 -0.288341)
(7.05714 0 0.0366758)
(9.49639 0 1.0568)
(8.01073 0 2.13613)
(2.52269 0 3.18495)
(-6.08131 0 5.34526)
(-16.1711 -3.99827e-16 8.81209)
(-26.944 0 13.3913)
(-37.7424 0 18.656)
(-46.0396 -5.21729e-16 23.5547)
(-47.8382 0 26.7698)
(-41.0351 -7.07172e-16 26.6777)
(-29.9105 -4.01368e-16 21.3618)
(-16.4306 -3.61782e-17 9.84825)
(6.51012 0 -8.15279)
(36.7431 1.54612e-15 -36.9665)
(77.7231 1.87704e-15 -63.4727)
(114.538 0 -89.0541)
(125.312 0 -93.7345)
(105.058 0 -53.9192)
(6.32011 2.13556e-15 54.1551)
(-208.46 0 239.839)
(-487.003 0 363.838)
(-705.696 2.34591e-15 334.903)
(-245.957 -2.61651e-15 22.5853)
(116.273 0 -87.1906)
(21.8678 0 52.5686)
(-109.309 0 36.8338)
(153.542 0 -233.988)
(796.696 4.8585e-16 -646.986)
(1186.37 3.52314e-16 -754.186)
(873.995 0 -434.45)
(428.908 0 -100.38)
(-31.7159 -9.07718e-15 176.039)
(-391.836 0 360.656)
(-588.588 -4.42844e-16 390.159)
(-579.256 -2.81342e-15 296.503)
(-423.393 0 192.375)
(-282.716 0 126.618)
(-172.235 0 64.1647)
(-88.9423 0 24.9771)
(-25.6528 0 2.03312)
(-0.110303 2.50541e-15 -1.13547)
(-1.76702 0 2.65506)
(14.7725 4.0107e-15 -14.5294)
(76.8007 0 -56.0499)
(134.156 -4.34081e-18 -81.8809)
(116.546 -2.52889e-17 -57.7235)
(37.3307 0 -5.96448)
(-35.5812 -1.18193e-15 27.2257)
(-59.1228 0 35.6137)
(-52.9839 0 28.4568)
(-40.6936 -2.389e-16 20.257)
(-26.603 0 12.4402)
(-12.3601 0 5.14756)
(-1.01858 0 0.733082)
(2.74691 0 -1.37686)
(-1.80281 0 2.08674)
(-11.9452 0 9.06286)
(-27.0616 0 17.8116)
(-40.2891 0 24.9973)
(-50.5527 -3.67257e-16 30.2224)
(-55.4163 0 32.0434)
(-53.9645 0 30.6484)
(-50.8296 0 28.5042)
(-44.1412 -2.91837e-16 24.5201)
(-39.1141 -1.35863e-16 21.7684)
(-34.0092 -2.43245e-17 18.9174)
(-30.3846 -2.14346e-16 17.0512)
(-28.2734 9.30229e-19 15.8579)
(-26.5216 2.07822e-16 15.1299)
(-26.5074 6.27606e-16 15.0148)
(-25.5175 0 14.6431)
(-27.7773 -7.93089e-17 15.9472)
(-25.4683 -9.70085e-17 14.6052)
(-29.4735 0 17.2572)
(-28.9964 -4.58493e-16 16.7073)
(-29.1456 -1.32858e-16 17.112)
(-34.8939 1.0903e-16 20.3472)
(-14.216 0 3.46815)
(-13.4802 3.43858e-19 3.95905)
(-13.7017 0 4.44645)
(-14.431 0 5.03753)
(-14.9835 -5.85251e-19 5.50735)
(-15.1549 -5.49218e-19 6.01933)
(-15.1833 7.9857e-19 6.9197)
(-15.4964 -3.90929e-18 7.84495)
(-16.2603 0 8.16034)
(-17.2338 -1.5394e-18 7.94819)
(-18.0149 2.39304e-18 7.75967)
(-18.3978 0 7.85796)
(-18.414 9.11856e-19 8.12155)
(-18.1094 0 8.36912)
(-17.4144 4.39528e-18 8.52856)
(-16.2873 5.60114e-18 8.5889)
(-14.8665 5.24426e-18 8.50826)
(-13.3923 -3.51808e-18 8.26268)
(-11.9684 -1.10319e-18 7.81743)
(-10.6162 0 7.25809)
(-9.64301 -1.36552e-17 6.58065)
(-9.47991 0 5.90809)
(-10.2499 0 5.22961)
(-10.9207 1.67223e-17 5.17318)
(-10.8909 -1.65734e-17 5.14116)
(-10.8936 0 5.12823)
(-11.1593 0 4.94614)
(-10.3213 0 4.89355)
(-7.65494 -6.58817e-17 4.04776)
(-4.7391 5.64686e-17 0.821488)
(-3.88351 1.081e-17 -3.9122)
(0.357456 -3.5621e-18 -3.72855)
(0.953203 1.16049e-16 -7.53642)
(-5.64578 -9.07609e-17 -11.4111)
(-6.09392 7.50325e-17 -5.63078)
(-3.47817 -1.00647e-18 -1.02216)
(-3.30574 0 0.347982)
(-5.94977 1.43425e-17 -2.94029)
(-6.55217 9.42658e-17 -3.18791)
(-6.38509 -1.61016e-16 -3.79564)
(-2.16883 0 -0.870375)
(2.23698 1.75188e-16 0.104578)
(6.1052 9.89439e-17 0.456628)
(8.63476 -2.30277e-17 1.90626)
(6.80917 -1.42916e-16 2.95769)
(1.23577 0 4.34179)
(-7.30638 0 7.02423)
(-17.4538 5.58925e-18 10.9056)
(-28.3721 0 15.757)
(-39.3441 0 21.1428)
(-47.7643 -4.84566e-16 25.9665)
(-49.5475 6.86057e-16 28.7984)
(-42.561 6.64163e-16 27.8386)
(-30.954 4.49767e-18 21.0594)
(-16.4779 -3.51057e-18 7.51871)
(7.57257 0 -13.7174)
(40.596 0 -44.8278)
(84.0466 -3.50677e-15 -73.4927)
(121.7 0 -98.5816)
(130.36 0 -97.7947)
(104.633 -9.02605e-16 -46.0992)
(1.41245 0 77.2179)
(-212.203 0 272.382)
(-484.38 3.0436e-15 393.458)
(-799.513 -2.20318e-15 377.558)
(-342.769 2.5981e-15 33.694)
(90.5513 0 -88.4497)
(32.6446 6.23338e-15 56.553)
(-76.6392 0 7.79112)
(238.886 0 -328.176)
(934.451 -8.37136e-16 -773.404)
(1276.97 0 -806.16)
(830.163 0 -371.561)
(373.99 0 -23.1446)
(-48.1824 0 290.332)
(-425.121 0 400.848)
(-609.152 4.14707e-16 409.076)
(-604.786 4.22429e-17 301.701)
(-450.192 3.39852e-15 194.786)
(-305.917 -3.96879e-15 130.542)
(-191.541 0 66.8826)
(-100.51 0 25.5171)
(-29.5937 0 1.29286)
(1.1859 0 -2.61701)
(3.11878 0 -0.752052)
(23.7586 4.36394e-18 -22.3667)
(89.5365 0 -67.405)
(145.961 -1.14932e-16 -89.956)
(121.29 -2.45147e-17 -57.2624)
(34.6336 0 0.55854)
(-41.6212 1.10509e-15 33.2332)
(-65.2887 0 39.7459)
(-58.7153 -2.50407e-16 31.1345)
(-45.2279 -6.37321e-18 22.025)
(-30.1263 0 13.6627)
(-15.3764 0 6.17904)
(-4.84754 0 1.03197)
(-1.2281 0 0.882602)
(-7.47491 -2.81999e-16 5.17575)
(-18.8045 0 13.438)
(-35.1151 0 23.1809)
(-49.0135 -4.85673e-16 30.5992)
(-59.6915 0 35.8557)
(-64.3807 1.06755e-16 37.2529)
(-62.6223 6.55796e-17 35.4913)
(-58.8548 0 32.8372)
(-51.6405 5.47207e-16 28.4891)
(-46.0305 -1.79781e-18 25.4654)
(-40.5017 4.67096e-17 22.3829)
(-36.6093 2.00138e-16 20.4605)
(-34.1927 1.70555e-16 19.1256)
(-32.4614 -1.94029e-16 18.4756)
(-32.2617 -2.92623e-16 18.2559)
(-31.3114 -5.44448e-17 17.9822)
(-33.6777 7.40362e-17 19.3091)
(-31.1527 9.05558e-17 17.8769)
(-35.494 -4.00365e-16 20.7855)
(-34.7436 4.26391e-16 19.9635)
(-35.1576 0 20.6597)
(-40.4079 0 23.5878)
(-13.6898 0 3.58105)
(-12.952 -8.95409e-21 4.00096)
(-13.231 0 4.46102)
(-13.83 0 5.07484)
(-14.1717 0 5.51159)
(-14.2478 0 5.84743)
(-14.2761 -1.18013e-18 6.56251)
(-14.5619 1.3035e-18 7.49186)
(-15.3104 -1.5121e-18 7.97579)
(-16.4457 3.02868e-18 7.9242)
(-17.6467 -2.24966e-18 7.84509)
(-18.6209 0 8.0957)
(-19.2582 -8.57192e-19 8.60777)
(-19.5295 0 9.15666)
(-19.3598 -4.13182e-18 9.60369)
(-18.715 -4.32097e-18 9.90989)
(-17.7222 0 10.0326)
(-16.6043 0 9.94246)
(-15.4527 3.91986e-19 9.60151)
(-14.3139 0 9.05807)
(-13.5096 0 8.29808)
(-13.4447 1.68711e-17 7.4696)
(-14.1345 0 6.61964)
(-14.7099 0 6.29949)
(-14.6036 8.04611e-18 6.13221)
(-14.4459 0 6.09056)
(-14.3326 0 6.18434)
(-13.1575 0 6.56526)
(-10.5382 1.18933e-16 6.25065)
(-7.62911 0 3.79526)
(-5.49272 5.71373e-18 0.129219)
(-1.54298 6.59313e-18 -0.820481)
(-1.06503 -4.77411e-17 -4.77537)
(-4.68453 8.52966e-17 -6.49336)
(-4.77585 -1.36376e-16 -2.14471)
(-3.52564 -5.266e-17 0.931444)
(-4.38293 0 1.61115)
(-6.09293 0 0.429139)
(-7.70528 9.3434e-17 -1.09677)
(-7.21769 -1.59081e-16 -2.79914)
(-2.48656 0 -0.133734)
(1.56838 0 1.40303)
(5.3385 -1.98505e-18 1.63203)
(7.91499 2.16263e-17 3.33766)
(5.74417 1.34209e-16 4.19877)
(0.134507 4.13954e-16 5.61057)
(-8.23955 0 8.63773)
(-18.3189 5.34673e-18 12.7222)
(-29.1778 0 17.6723)
(-40.0667 0 23.044)
(-48.3512 4.54805e-16 27.7056)
(-49.9593 -6.4386e-16 30.0966)
(-42.8086 0 28.265)
(-30.9784 3.49445e-16 20.0917)
(-16.1136 -5.90508e-18 4.61176)
(8.30578 0 -19.4104)
(43.0125 0 -52.3392)
(87.5787 3.25688e-15 -82.3296)
(124.684 0 -105.968)
(130.796 0 -98.9284)
(101.6 1.68679e-15 -35.8768)
(0.0355352 0 99.6016)
(-204.135 0 299.026)
(-462.129 -5.61495e-15 421.493)
(-872.98 2.06497e-15 413.757)
(-465.049 -1.24827e-15 54.189)
(42.5317 0 -100.524)
(43.3747 -5.84012e-15 56.9382)
(-32.9772 0 -33.8777)
(330.724 2.98128e-15 -433.201)
(1056.29 3.57626e-16 -893.058)
(1323.78 0 -823.868)
(741.101 0 -274.546)
(320.492 8.23329e-15 52.0989)
(-102.197 7.17844e-15 303.287)
(-442.114 0 434.419)
(-624.098 0 425.467)
(-624.776 4.81107e-15 303.617)
(-472.391 -3.18038e-15 193.591)
(-325.833 7.39465e-15 131.804)
(-210.344 0 68.3641)
(-113.248 0 25.772)
(-34.7712 0 0.550116)
(2.4142 0 -4.47599)
(9.27895 0 -5.20843)
(33.8379 2.64932e-18 -30.941)
(101.137 0 -78.3789)
(154.786 0 -96.1081)
(123.283 -2.28765e-17 -54.5765)
(31.5253 0 8.12451)
(-44.8849 1.01139e-15 42.9736)
(-70.9354 0 43.7372)
(-64.0097 2.34023e-16 33.3263)
(-49.5738 -5.93164e-18 23.6162)
(-33.8675 0 14.9316)
(-18.933 0 7.5147)
(-8.67174 0 3.46334)
(-6.27068 0 3.84045)
(-13.2511 -8.33274e-18 10.1664)
(-26.0896 -4.57718e-16 18.4391)
(-43.5004 5.17631e-16 28.8071)
(-57.84 4.53613e-16 36.3272)
(-68.9724 0 41.5752)
(-73.4895 -9.96968e-17 42.5216)
(-71.661 -6.12405e-17 40.5005)
(-67.2906 0 37.3384)
(-59.7097 -2.56473e-16 32.7175)
(-53.5055 2.42072e-16 29.4234)
(-47.5629 -2.24043e-17 26.1251)
(-43.3741 0 24.1451)
(-40.573 -1.57269e-16 22.6309)
(-38.8307 0 22.0543)
(-38.3363 0 21.6664)
(-37.4055 5.08229e-17 21.4937)
(-39.7042 0 22.7359)
(-37.0114 0 21.2494)
(-41.4701 3.73696e-16 24.2902)
(-40.3481 -3.97977e-16 23.1364)
(-41.1143 -1.24867e-16 24.1694)
(-45.4608 -1.10335e-16 26.5478)
(-13.2195 0 3.65024)
(-12.4815 8.42233e-21 4.00264)
(-12.7975 1.24434e-18 4.43217)
(-13.3464 0 5.03067)
(-13.5866 0 5.45035)
(-13.5862 0 5.70787)
(-13.5556 1.10899e-18 6.27908)
(-13.6925 0 7.13534)
(-14.177 1.42064e-18 7.705)
(-15.0768 0 7.79544)
(-16.2471 0 7.79701)
(-17.4407 -3.92114e-19 8.09671)
(-18.4762 0 8.72068)
(-19.2582 2.28658e-18 9.47173)
(-19.6968 -3.25135e-18 10.1668)
(-19.7444 4.05792e-18 10.7253)
(-19.473 0 11.0962)
(-19.03 -1.65833e-18 11.245)
(-18.4605 0 11.1213)
(-17.8152 5.54414e-18 10.7294)
(-17.4102 0 10.034)
(-17.6166 -1.58452e-17 9.18874)
(-18.374 1.52975e-17 8.27498)
(-18.9389 0 7.76903)
(-18.8182 0 7.46193)
(-18.4977 7.33063e-19 7.37537)
(-17.9807 0 7.69262)
(-16.4561 0 8.48859)
(-13.8342 -6.84707e-18 8.7995)