/*--------------------------------*- C++ -*----------------------------------*\
| =========                 |                                                 |
| \\      /  F ield         | OpenFOAM: The Open Source CFD Toolbox           |
|  \\    /   O peration     | Version:  2412                                  |
|   \\  /    A nd           | Website:  www.openfoam.com                      |
|    \\/     M anipulation  |                                                 |
\*---------------------------------------------------------------------------*/
FoamFile
{
    version     2.0;
    format      ascii;
    arch        "LSB;label=32;scalar=64";
    class       surfaceScalarField;
    location    "0.25";
    object      ddtCorrDdt0(phi);
}
// * * * * * * * * * * * * * * * * * * * * * * * * * * * * * * * * * * * * * //

dimensions      [0 3 -2 0 0 0 0];

oriented        oriented;

internalField   nonuniform List<scalar> 
24930
(
-0.0116704
-0.0183708
0.0152042
-0.0059261
-0.0102571
-0.00423589
-0.00504339
-0.00252676
-0.00154103
-0.00138785
6.65936e-05
3.35656e-05
0.000955019
0.000915455
0.000785519
0.000873095
-0.000142281
0.000398556
-0.000747589
6.5235e-06
-0.000496083
-0.000304113
0.000193715
-0.000685108
0.000571536
-0.00121874
0.000580828
-0.00168016
0.000464497
-0.00173775
0.000376163
-0.00123397
0.000290328
-0.000163395
9.32039e-05
0.00104892
7.67575e-06
0.00212305
-0.000343704
0.00305971
-0.000781985
0.00373598
-0.000759994
0.00379962
-0.000211805
0.00234055
0.000742969
0.00031534
-5.00239e-06
-0.000658421
-0.00141483
-0.00046309
-0.00024136
-0.00182487
0.0029246
-0.00604596
0.0030241
-0.0099173
-0.0018469
-0.00170981
-0.0108101
0.00484425
0.00373468
-3.88158e-06
0.0166316
-0.0266661
0.0140907
0.0212769
-0.0527223
0.0243187
0.0441267
0.00634461
0.0269408
-0.00218167
0.004225
-0.0066025
-0.00171926
-0.00949001
-0.00185302
-0.009034
-0.00102889
-0.00459418
0.000666761
0.00115898
0.00261919
0.00775209
0.00203914
0.0116158
0.0024691
0.0123952
0.00371422
0.00926235
0.00250516
0.00248111
0.000417635
-0.0060647
-0.00176915
-0.0150797
-0.00160092
-0.0210047
-0.00103735
-0.0219674
-0.00304348
-0.0131029
-0.00543286
0.00193668
-0.0026407
0.009461
0.00856045
0.00932897
0.00348104
0.00184881
-0.0125059
0.022967
-0.0437815
0.0197801
0.0197663
0.00148096
0.0148896
-0.0227112
0.0200043
-0.00734543
-0.0128199
-0.0295334
0.0400459
-0.0454111
0.132618
-0.064966
0.0700098
-0.0359733
-0.0983144
0.0606789
-0.160106
0.0559952
-0.0617772
-0.0111977
0.0861001
-0.0345195
-0.0124014
-0.0380287
-0.0529281
0.0935317
-0.249256
0.144849
-0.0819618
0.157012
0.0198434
0.124053
0.123695
0.055744
0.181849
-0.0518254
0.274883
-0.116739
0.0851938
-0.119302
-0.0908436
-0.0552027
-0.102447
-0.0660613
-0.0230509
-0.0380331
-0.0465176
-0.0329918
-0.0369756
-0.0054774
-0.0113829
-0.000217135
-0.00028164
-0.00138965
0.00200897
0.00402538
-0.00979199
0.0220586
-0.0208102
0.0334414
-0.00864606
0.026299
0.0139998
0.00648106
0.0252419
-0.012229
0.0207366
-0.0124937
0.00300112
-0.0122651
-0.00612976
-0.00968929
-0.0134025
-0.00470708
-0.0139635
0.000336934
-0.00595019
0.00623496
0.00337428
0.00680804
0.00508098
0.00513541
0.00287384
0.00241887
0.00410516
-0.00158331
0.00617095
-0.00724286
0.00751368
-0.0112163
0.00291031
-0.0129146
-0.00124406
-0.0139608
-0.00117958
-0.0118095
-0.0020249
-0.0109554
-0.00231891
-0.009175
-0.00148345
-0.00671345
-0.00226615
-0.00742738
-0.000991561
-0.00532163
-0.000900293
-0.00500708
-0.00115419
-0.00626261
0.00075254
-0.00500888
0.00111133
-0.00511903
-0.00290906
-0.00714054
0.00181207
-0.00439083
-0.000514508
-0.00731919
8.83551e-05
-0.00946604
0.00456873
0.000662462
-0.0200803
-0.0163637
0.0201501
-0.0164385
-0.0149986
-0.0120169
-0.00827119
-0.00830017
-0.00316813
-0.0055303
-0.000503559
-0.00325795
0.000613052
-0.00210864
0.0004041
-0.00203914
-0.00043512
-0.00233827
-0.00102708
-0.00250386
-0.00101144
-0.0025534
-0.000729977
-0.00276804
-0.00060453
-0.00310199
-0.000479949
-0.00325773
-4.02245e-05
-0.00290009
0.000718282
-0.00197213
0.00155928
-0.000717429
0.00211455
0.000489579
0.00243488
0.00174386
0.00180405
0.00278386
0.000912526
0.00339149
-0.000120116
0.00309853
-0.00139723
0.00131854
-0.00224852
-0.00041149
-0.00412131
-0.00110288
-0.00597994
-0.00108683
-0.00563297
-0.00279479
-0.00312456
-0.00609099
0.000630897
-0.00664813
0.011432
0.00225002
0.00423028
0.0046521
0.00749448
-0.0022419
0.0246107
-0.017734
0.0765425
0.0255745
-0.0613622
0.0198095
0.0651732
0.00347731
0.0225154
-0.00230724
-0.00335951
-0.00613517
-0.00680414
-0.00855351
-0.00183087
-0.00724496
0.00486985
-0.0020834
0.0104499
0.00396286
0.0131396
0.0104473
0.0106882
0.0135749
0.00698333
0.0131798
0.00377952
0.00834382
-0.00417957
-0.00042068
-0.0113303
-0.0107591
-0.012277
-0.0219043
-0.0060518
-0.0302106
0.00379847
-0.0330194
0.011003
-0.0262926
0.00904109
-0.012083
0.0063607
-0.00376093
0.00821361
0.00117679
0.00032445
0.00564587
0.00534277
0.0335175
-0.0815643
0.046
-0.0252016
0.0447832
-0.0287495
0.0308211
0.00591063
0.0340887
0.0219074
-0.047892
0.173522
-0.178184
0.362726
-0.267306
0.192647
-0.163866
-0.254835
0.078713
-0.395546
0.0887231
-0.112872
-0.0586753
0.215176
-0.0959604
-0.115791
0.0345245
-0.258415
0.420758
-0.737179
0.575402
-0.267642
0.56545
0.115358
0.362064
0.487212
0.0540711
0.624659
-0.270731
0.676647
-0.432217
0.251491
-0.378623
-0.219752
-0.218383
-0.267017
-0.170699
-0.1209
-0.0916602
-0.13727
-0.0549429
-0.104958
-0.010285
-0.0421844
-0.00484523
-0.00753457
-0.00953822
0.00564983
0.00968251
-0.0351326
0.0624639
-0.0818044
0.0992009
-0.0504938
0.079005
0.0389161
0.020088
0.0902568
-0.0316124
0.0802307
-0.0411471
0.0226164
-0.037648
-0.0110379
-0.0284455
-0.0235499
-0.0155513
-0.0249059
-0.00166416
-0.0167571
0.0116903
-0.00847012
0.015932
-0.00514841
0.0131009
0.00148249
0.00379328
0.0145514
-0.0102769
0.0224835
-0.0265
0.0246502
-0.0364947
0.0152635
-0.044607
0.00847149
-0.0465325
0.00378495
-0.0425336
-0.00522854
-0.0381627
-0.00848001
-0.032948
-0.0076502
-0.0265894
-0.00984771
-0.0252285
-0.00441364
-0.0209915
-0.00507039
-0.0201168
-0.00364377
-0.020886
-0.000439698
-0.0202435
0.00112988
-0.0208588
-0.00238429
-0.0238884
0.00302567
-0.0235554
0.0039876
-0.0272478
0.000119574
-0.0340178
0.0119904
0.00650373
-0.0234635
-0.0132679
0.0227956
-0.0215732
-0.0127134
-0.0190668
-0.00978958
-0.0156223
-0.00662796
-0.0119449
-0.00376681
-0.00874332
-0.00181954
-0.00685023
-0.00105483
-0.00616894
-0.00102184
-0.00597778
-0.00112814
-0.0057792
-0.00103719
-0.0056008
-0.00083412
-0.00560962
-0.000678102
-0.00571915
-0.000435014
-0.00562107
6.16732e-05
-0.0049807
0.000755717
-0.0037608
0.00143137
-0.00217944
0.00174054
-0.000611586
0.00184898
0.00074015
0.00113338
0.00182127
0.000329456
0.00242492
-0.000666957
0.00172878
-0.00176285
-0.000598032
-0.00248661
-0.00219342
-0.00381298
-0.00287594
-0.00462215
-0.00320045
-0.00420224
-0.00498482
-0.00261425
-0.00599929
0.00311978
-0.00132376
0.0205393
0.00731006
0.013014
0.00303467
-0.00103981
-0.0028383
0.0211626
-0.00124167
0.0993592
0.0226409
-0.0808836
0.0110035
0.0434474
-0.000163434
0.00805358
-0.00267104
-0.00514122
-0.00588277
-0.0047276
-0.00778485
0.00211234
-0.00574013
0.0104763
8.76287e-06
0.0156346
0.00628603
0.0163275
0.0127347
0.0117889
0.0152455
0.00606526
0.0136413
0.00149969
0.00689639
-0.00862812
-0.00407636
-0.0160756
-0.0160096
-0.0129053
-0.0291448
-0.00135959
-0.0402136
0.0123277
-0.0457541
0.020979
-0.0406134
0.0191701
-0.0261739
0.0128537
-0.0158707
0.00569521
-0.00564957
-0.00860227
0.0153794
-7.48298e-05
0.0435649
-0.132048
0.0780516
-0.0773162
0.0922959
-0.0823144
0.0842068
-0.0240779
0.070855
0.0668832
-0.0763373
0.352835
-0.319139
0.686468
-0.486087
0.398054
-0.307236
-0.462132
0.0839542
-0.771149
0.117663
-0.203562
-0.0993615
0.404892
-0.132513
-0.186387
0.152929
-0.7242
0.679457
-1.31641
1.03871
-0.668417
0.9467
0.264886
0.544434
1.02417
0.000740759
1.24857
-0.508054
1.26513
-0.738764
0.504078
-0.631364
-0.388958
-0.384376
-0.519857
-0.27376
-0.288292
-0.144987
-0.275354
-0.0766982
-0.206184
-0.0145763
-0.0866459
-0.00850681
-0.0106713
-0.0141017
0.0156338
0.0226094
-0.0718491
0.110941
-0.172131
0.168613
-0.112096
0.130315
0.0777687
0.0286939
0.194567
-0.0550419
0.163956
-0.0722415
0.0462153
-0.0646688
-0.0217665
-0.0481383
-0.0424075
-0.0272817
-0.0448676
-0.00395666
-0.0372167
0.0158547
-0.028085
0.0228555
-0.0139335
0.0169646
0.00520438
-0.000485983
0.0331282
-0.0255185
0.048565
-0.0470149
0.0460558
-0.0710725
0.0402176
-0.0818417
0.0192661
-0.0839893
0.00658122
-0.0773489
-0.0106535
-0.0688453
-0.0185765
-0.0601886
-0.0167184
-0.0500804
-0.0200169
-0.0466953
-0.0106032
-0.040714
-0.0103586
-0.0394203
-0.00576011
-0.040084
-0.0024275
-0.0403935
0.00299525
-0.0417347
-0.00141817
-0.0462026
0.00502393
-0.0487727
0.0117793
-0.0532093
0.000605943
-0.0649598
0.0245553
0.0180334
-0.0238152
-0.00928856
0.024431
-0.0238122
-0.00975966
-0.0240179
-0.0100698
-0.0224045
-0.0089486
-0.0193078
-0.00684568
-0.0158185
-0.00458572
-0.0131963
-0.00279978
-0.0117817
-0.00187153
-0.0110356
-0.0016665
-0.0104216
-0.00163436
-0.00988173
-0.00147105
-0.00954023
-0.00119205
-0.0093157
-0.00082323
-0.00891118
-0.000350495
-0.00798175
0.000166712
-0.00648845
0.000580925
-0.00467317
0.000646737
-0.00288744
0.000531172
-0.00131286
-0.000222263
6.46375e-05
-0.00082932
0.000866285
-0.0014697
-0.000155071
-0.00140686
-0.00265524
-0.00116253
-0.00413014
-0.000610759
-0.00465393
0.000812547
-0.00512127
0.00241301
-0.00693903
0.00286598
-0.00614087
0.00704972
0.00225929
0.0185425
0.0109652
0.00650937
0.00143541
-0.018875
0.0021177
0.0109532
0.0144752
0.0743936
0.0104213
-0.11034
0.00296159
-0.00480185
-0.00230582
-0.00428017
-0.00273612
-0.00117027
-0.00568531
0.00045608
-0.00724038
0.00628741
-0.00475321
0.0140087
0.00139729
0.0165408
0.00783647
0.0145497
0.0142984
0.00830006
0.0163002
0.00230321
0.0135505
-0.0013149
0.00511831
-0.0097327
-0.0078385
-0.0136924
-0.021667
-0.00668473
-0.0372193
0.00779229
-0.0511713
0.0233643
-0.0593187
0.0322942
-0.0554139
0.0298729
-0.0402002
0.0187741
-0.0273065
0.000688108
-0.0109116
-0.0243821
0.0236999
-0.0381482
0.0583375
-0.191235
0.113021
-0.14599
0.141375
-0.149261
0.135652
-0.0583599
0.101147
0.132552
-0.112342
0.590949
-0.463522
1.1071
-0.714857
0.67925
-0.474104
-0.729414
0.0722896
-1.28834
0.145379
-0.332108
-0.130455
0.64561
-0.147163
-0.234234
0.333648
-1.27821
1.11972
-2.12029
1.51409
-1.09368
1.28749
0.553064
0.656164
1.77676
-0.102494
2.04829
-0.754274
1.99212
-1.02652
0.784881
-0.874216
-0.612037
-0.55259
-0.842993
-0.381504
-0.514826
-0.201624
-0.461735
-0.0998573
-0.340291
-0.0189905
-0.146823
-0.0107026
-0.0154735
-0.0149476
0.0242789
0.042602
-0.137366
0.166768
-0.296418
0.240372
-0.188678
0.177744
0.140752
0.0314316
0.343116
-0.0822063
0.28097
-0.105762
0.0758733
-0.0934132
-0.0376034
-0.0691198
-0.0689067
-0.0378038
-0.0750261
-0.00710003
-0.0652157
0.0184729
-0.0531789
0.0259719
-0.023089
0.0153855
0.0133604
-0.0116998
0.0597394
-0.0455561
0.0844959
-0.0831134
0.0832123
-0.110919
0.0692631
-0.124307
0.0327271
-0.125824
0.0089703
-0.116186
-0.0187542
-0.10347
-0.0327574
-0.0912709
-0.0290962
-0.0775655
-0.0335444
-0.0724869
-0.0184341
-0.0650198
-0.0168284
-0.0637306
-0.00764809
-0.0645537
-0.00416954
-0.0663333
0.00671682
-0.0686076
0.000682256
-0.0750048
0.00898882
-0.0808331
0.0233093
-0.086115
0.00179047
-0.103002
0.0423109
0.0352934
-0.0239605
-0.00783526
0.0252037
-0.0247142
-0.00827179
-0.0263975
-0.00915542
-0.0266483
-0.00896795
-0.0252298
-0.00807034
-0.0226165
-0.00640179
-0.0200878
-0.00436103
-0.0184297
-0.00303173
-0.0174062
-0.00282827
-0.0165
-0.00303709
-0.0156004
-0.00295857
-0.0148571
-0.00252532
-0.0142489
-0.001942
-0.0135054
-0.00134613
-0.0122647
-0.000796506
-0.010473
-0.000381179
-0.00838093
-0.000285769
-0.0063379
-0.000430823
-0.00447802
-0.00107412
-0.00282513
-0.00154382
-0.00200187
-0.0019181
-0.00274116
-0.0014541
-0.00428115
-0.0012276
-0.00655602
0.00225315
-0.0069577
0.00453713
-0.00745024
0.00692574
-0.00895366
0.00682918
-0.006889
0.00864596
0.00192388
0.00993079
0.0104197
-0.00914066
0.00232633
-0.0390675
0.0117955
-0.00952941
0.0222269
0.0149306
-0.00316139
-0.12898
-0.00207073
-0.0450587
-0.00301759
-0.00954582
-0.00279467
0.0074082
-0.00578175
0.00583906
-0.00710431
0.00844032
-0.00437243
0.0155373
0.00209675
0.0146794
0.00870035
0.0105943
0.0152503
0.00303278
0.0168193
-0.00213476
0.0129466
-0.0038581
0.00295496
-0.00887247
-0.0118933
-0.00755728
-0.0278164
0.0035838
-0.0459589
0.0205118
-0.0627131
0.0376196
-0.0731675
0.0464933
-0.0700497
0.0422545
-0.0535542
0.0248375
-0.0376187
-0.00586727
-0.0145722
-0.0461955
0.030521
-0.0928896
0.0785738
-0.243802
0.149886
-0.22958
0.190142
-0.228721
0.182747
-0.095195
0.1237
0.220776
-0.153483
0.880898
-0.601605
1.60887
-0.94985
1.05036
-0.672678
-1.02626
0.0372682
-1.94423
0.170551
-0.518888
-0.147855
0.918188
-0.119582
-0.296684
0.564046
-2.01902
1.58922
-3.11827
1.98057
-1.50475
1.55745
1.01201
0.690883
2.73775
-0.248993
3.33602
-0.994882
2.76634
-1.28971
1.08259
-1.10004
-0.862486
-0.715363
-1.2154
-0.491605
-0.786177
-0.262106
-0.689515
-0.12499
-0.505433
-0.0234773
-0.223557
-0.0106221
-0.0240322
-0.0102841
0.0289213
0.0701505
-0.204253
0.228803
-0.451976
0.312734
-0.274946
0.22085
0.229449
0.0291115
0.533059
-0.113365
0.417049
-0.141397
0.109413
-0.123735
-0.0581803
-0.0921817
-0.10213
-0.0510305
-0.113983
-0.0118417
-0.100862
0.0181193
-0.0802419
0.0248091
-0.0318177
0.00717511
0.0283294
-0.0296973
0.0977735
-0.0769233
0.132888
-0.123313
0.128392
-0.157602
0.10428
-0.172844
0.0478339
-0.173142
0.0102068
-0.160047
-0.0299239
-0.142917
-0.0511394
-0.127292
-0.0446297
-0.110241
-0.05012
-0.103688
-0.027837
-0.0950936
-0.0242239
-0.0940869
-0.00919822
-0.095412
-0.00560946
-0.0990362
0.01244
-0.102522
0.00395356
-0.111206
0.0149913
-0.12068
0.0388236
-0.126964
0.00367549
-0.148813
0.0649675
0.0578665
-0.0245663
-0.00772349
0.0256936
-0.0251231
-0.00749072
-0.0270193
-0.00759986
-0.0283581
-0.00756443
-0.0284783
-0.00751919
-0.0272471
-0.00673495
-0.0256829
-0.00507778
-0.0246568
-0.00382871
-0.0240675
-0.00390224
-0.0233763
-0.00460259
-0.02243
-0.00484272
-0.021448
-0.00437048
-0.0205353
-0.0035407
-0.0194896
-0.00267547
-0.0179544
-0.00188057
-0.0158648
-0.00121788
-0.013482
-0.000868967
-0.0111514
-0.000855594
-0.00895875
-0.00136161
-0.00696328
-0.00187172
-0.00588406
-0.00237197
-0.00653741
-0.00216002
-0.00882112
-0.00209375
-0.00996987
0.00156031
-0.010288
0.0045691
-0.0107806
0.0071167
-0.0119484
0.00720803
-0.00923815
0.00783583
-0.000786207
0.00364263
0.00757628
-0.0192616
0.00312375
-0.0518713
0.0153847
-0.0352425
0.0196884
-0.0454888
-0.00632602
-0.126105
-0.00435135
-0.0608561
-0.00254581
-0.0109602
-0.00303668
0.0143957
-0.00644375
0.013883
-0.00740753
0.0078742
-0.00465593
0.0154291
0.00216528
0.0110252
0.00894731
0.00666916
0.0156796
-0.00128735
0.0168709
-0.00428564
0.0118984
-0.00418668
0.000439205
-0.00574117
-0.0162477
0.00089642
-0.0342769
0.0160383
-0.0549381
0.0351525
-0.0742897
0.0534185
-0.0867192
0.0619346
-0.0839846
0.0551446
-0.0657976
0.0304335
-0.0464358
-0.0143534
-0.0166982
-0.0735335
0.0382501
-0.155177
0.101028
-0.309441
0.187075
-0.324255
0.236572
-0.31744
0.223492
-0.130105
0.138632
0.330002
-0.195001
1.21889
-0.723353
2.17555
-1.18305
1.52316
-0.911632
-1.3053
-0.0314699
-2.74563
0.191117
-0.785903
-0.14755
1.20158
-0.0484101
-0.42365
0.856265
-2.94383
2.09136
-4.29863
2.41304
-1.82612
1.73772
1.70827
0.665459
3.90401
-0.41641
4.24622
-1.21824
3.52828
-1.52571
1.38361
-1.31087
-1.13869
-0.873976
-1.63288
-0.604785
-1.09956
-0.327927
-0.959037
-0.153318
-0.705207
-0.0282842
-0.32011
-0.00736339
-0.039751
0.00154818
0.0255682
0.104722
-0.318245
0.295864
-0.637732
0.384132
-0.364567
0.259108
0.349538
0.0206127
0.766428
-0.146931
0.580136
-0.179066
0.147802
-0.155925
-0.0840183
-0.112723
-0.146501
-0.0657452
-0.158111
-0.0196271
-0.143085
0.0136012
-0.111928
0.0174539
-0.0380603
-0.00807212
0.0503107
-0.0562822
0.146114
-0.115421
0.191889
-0.171098
0.182761
-0.211223
0.145105
-0.227777
0.0643801
-0.226448
0.0100152
-0.209727
-0.0444102
-0.188278
-0.0737492
-0.169275
-0.0633771
-0.149083
-0.0696648
-0.141352
-0.03849
-0.131871
-0.0323258
-0.131516
-0.0100305
-0.13357
-0.00642517
-0.139466
0.0206429
-0.144367
0.00871145
-0.155694
0.0235
-0.168948
0.0585618
-0.176575
0.00666469
-0.202952
0.0921206
0.0849045
-0.0253347
-0.00743082
0.0264471
-0.0254945
-0.00676722
-0.0271629
-0.00631949
-0.0287611
-0.00606352
-0.0295781
-0.00622714
-0.0293446
-0.00607111
-0.0288476
-0.00492361
-0.0288715
-0.00381048
-0.0293387
-0.00407408
-0.0295929
-0.00531633
-0.0292824
-0.00614418
-0.0285835
-0.0059358
-0.0277175
-0.00503521
-0.0265997
-0.00394362
-0.0249296
-0.00288224
-0.0226585
-0.00193166
-0.0200695
-0.00129136
-0.0175028
-0.00108667
-0.0150018
-0.0015018
-0.0126634
-0.00219995
-0.0113087
-0.00318588
-0.0117454
-0.003801
-0.0137644
-0.00441976
-0.014676
-0.0016508
-0.0147932
0.00116412
-0.0153853
0.00379638
-0.0163716
0.00504329
-0.0134146
0.00650366
-0.0055041
0.00219358
0.00298925
-0.01936
0.00242766
-0.0508455
0.0144146
-0.0459847
0.0139078
-0.0724517
-0.00569056
-0.106403
-0.00457273
-0.0533064
-0.00456602
-0.00771824
-0.00272285
0.0169201
-0.00753896
0.0164532
-0.00831673
0.00987934
-0.0056771
0.0164516
0.00156965
0.00659627
0.00854194
0.00446863
0.0156221
-0.00321994
0.0164757
-0.00251352
0.0104755
-0.0013663
-0.00231309
-0.000223865
-0.0207402
0.0110792
-0.040762
0.0295755
-0.0637324
0.0505293
-0.0853764
0.0698196
-0.0993885
0.0780503
-0.096654
0.068369
-0.0765101
0.0355649
-0.0535949
-0.0246967
-0.0175477
-0.105981
0.0468558
-0.223253
0.123606
-0.39005
0.222748
-0.428533
0.278546
-0.413211
0.256656
-0.160473
0.147306
0.460666
-0.231295
1.59404
-0.818078
2.78917
-1.39341
2.10475
-1.1992
-1.49938
-0.146505
-3.69243
0.203457
-1.18838
-0.126236
1.46915
0.0682629
-0.6475
1.20237
-4.08647
2.61138
-5.62088
2.78386
-1.99388
1.81875
2.67003
0.566737
5.20274
-0.559267
5.75311
-1.4197
4.35038
-1.73871
1.69369
-1.50997
-1.42575
-1.02939
-2.08695
-0.722118
-1.44824
-0.400458
-1.26819
-0.186179
-0.941473
-0.0337589
-0.43997
-0.000303536
-0.066915
0.0197008
0.0100959
0.14723
-0.439765
0.366402
-0.84865
0.452977
-0.452331
0.291428
0.503457
0.00852058
1.04177
-0.184902
0.813775
-0.218658
0.187978
-0.191037
-0.114305
-0.138507
-0.199464
-0.0830269
-0.209741
-0.0307076
-0.191014
0.00283808
-0.144444
0.00272839
-0.0407485
-0.0312146
0.0807535
-0.0913714
0.205559
-0.162436
0.262158
-0.227058
0.245493
-0.272621
0.191294
-0.290233
0.0819923
-0.28719
0.00830946
-0.266747
-0.062245
-0.24104
-0.100482
-0.218748
-0.0852256
-0.195591
-0.0919866
-0.186811
-0.0503336
-0.176639
-0.0409733
-0.177118
-0.0100244
-0.18008
-0.00652997
-0.188463
0.0314674
-0.194934
0.015042
-0.209072
0.0345769
-0.226014
0.0823896
-0.235406
0.0111131
-0.26557
0.122956
0.114928
-0.0260287
-0.00682945
0.027478
-0.0260863
-0.00618021
-0.0275986
-0.00561046
-0.0289884
-0.00505203
-0.0297838
-0.00501691
-0.0298977
-0.00512416
-0.0299701
-0.00432865
-0.0306917
-0.00316916
-0.0321092
-0.00323165
-0.0335814
-0.00464762
-0.0345043
-0.0060207
-0.0347964
-0.00632553
-0.0346198
-0.00566748
-0.0339555
-0.00460523
-0.0325768
-0.00349163
-0.0304741
-0.0024541
-0.0279606
-0.00169396
-0.0253746
-0.00140397
-0.022732
-0.00181055
-0.0201766
-0.0027751
-0.0186161
-0.00438502
-0.0188092
-0.00597479
-0.020485
-0.00751693
-0.0211749
-0.00626519
-0.0211011
-0.00403807
-0.0216986
-0.00138172
-0.022287
0.00154744
-0.0193129
0.00564386
-0.0121873
0.00488626
-0.00343389
-0.010853
-0.000407267
-0.0372896
0.0103706
-0.0393197
0.00904881
-0.0673025
-0.00544511
-0.0789345
-0.00458166
-0.0358794
-0.00605018
-0.000930986
-0.00727446
0.0133867
-0.0093075
0.0139564
-0.00927017
0.00718437
-0.00750734
0.0163294
0.00035787
0.00732231
0.00744387
0.00515742
0.0150987
-0.00251754
0.0156378
0.00449291
0.00873468
0.00448769
-0.00515446
0.00771719
-0.0251337
0.0227339
-0.0469154
0.043443
-0.0718719
0.0659605
-0.0954304
0.0863012
-0.110624
0.0945181
-0.107593
0.0818187
-0.0854348
0.0403047
-0.0591979
-0.0367243
-0.0176384
-0.143229
0.0554399
-0.296626
0.144871
-0.481578
0.254891
-0.541023
0.314234
-0.513923
0.282095
-0.184793
0.152965
0.611016
-0.255667
1.99541
-0.877113
3.42943
-1.70659
2.93378
-1.53968
-1.66177
-0.327803
-4.77486
0.199921
-1.73151
-0.0821626
1.68305
0.235225
-1.00143
1.59772
-5.43255
3.12855
-7.04064
3.06968
-1.93375
1.80435
3.90645
0.479981
6.52308
-0.722145
6.91259
-1.60005
5.17799
-1.93888
2.02128
-1.70412
-1.7177
-1.18476
-2.57535
-0.845286
-1.82814
-0.481627
-1.61534
-0.225569
-1.21666
-0.0408719
-0.58818
0.0110042
-0.111238
0.0461077
-0.0198597
0.197386
-0.583063
0.438809
-1.07991
0.517975
-0.532693
0.316564
0.695048
-0.00670869
1.35488
-0.219953
0.979125
-0.260262
0.235983
-0.22145
-0.155444
-0.166514
-0.254393
-0.103833
-0.267797
-0.0476253
-0.242534
-0.0137215
-0.178003
-0.0193798
-0.0381206
-0.0637117
0.122305
-0.135492
0.276471
-0.217962
0.343619
-0.29146
0.316891
-0.342474
0.242896
-0.361365
0.100955
-0.356873
0.00532562
-0.332808
-0.0833849
-0.30301
-0.131236
-0.277359
-0.110299
-0.25123
-0.117133
-0.241376
-0.0634059
-0.230469
-0.0502129
-0.231825
-0.00912032
-0.235656
-0.00594589
-0.246547
0.0449677
-0.254549
0.022943
-0.271485
0.0482366
-0.291556
0.1098
-0.30313
0.0174513
-0.336108
0.156491
0.146061
-0.0267448
-0.00627173
0.0286021
-0.0269
-0.00575321
-0.0283812
-0.00520261
-0.0295068
-0.0044616
-0.0300402
-0.00418324
-0.0301102
-0.00430876
-0.0302516
-0.00368671
-0.0310475
-0.00239918
-0.0327329
-0.00196842
-0.0349237
-0.00301139
-0.0369814
-0.00448039
-0.0385544
-0.00518532
-0.0395871
-0.00490572
-0.0399943
-0.00409741
-0.0395545
-0.00319928
-0.038251
-0.00238925
-0.0363823
-0.00182277
-0.0342594
-0.00167688
-0.0318816
-0.00220369
-0.0294468
-0.00345021
-0.027924
-0.00561476
-0.0280159
-0.00806759
-0.0293874
-0.0105523
-0.0298119
-0.0106944
-0.0294911
-0.00943886
-0.0298869
-0.00694196
-0.0300737
-0.00239081
-0.0272242
0.00481368
-0.0206722
0.0087823
-0.00983803
-0.000382137
-0.00566738
-0.0158342
0.00391527
-0.0221431
0.00414693
-0.0459587
-0.00660774
-0.0509551
-0.0061326
-0.0203113
-0.00916076
0.00148272
-0.0114581
0.0104945
-0.0135244
0.00753965
-0.0147406
0.00205782
-0.00800261
0.0140699
-0.00175343
0.0103574
0.00553422
0.00887946
0.0143057
-0.0010065
0.0142432
0.0163045
0.0068582
0.012783
-0.00783659
0.0166961
-0.029143
0.0350906
-0.0523591
0.0571689
-0.0788884
0.0810993
-0.103943
0.102608
-0.119963
0.111265
-0.116492
0.0956152
-0.092544
0.0449492
-0.0636426
-0.0500406
-0.0178285
-0.184712
0.0626133
-0.374834
0.162958
-0.582846
0.281503
-0.66067
0.342326
-0.618257
0.300792
-0.203539
0.159969
0.774982
-0.261676
2.41121
-0.897307
4.08019
-1.86214
3.88849
-1.92502
-1.59626
-0.590803
-5.95785
0.175208
-2.47218
-0.013984
1.79554
0.451659
-1.50569
2.02973
-6.9776
3.62008
-8.50614
3.23602
-1.56145
1.71348
5.37655
0.379492
7.84025
-0.847371
8.11953
-1.76881
6.04519
-2.13968
2.38152
-1.90207
-2.01148
-1.34474
-3.09915
-0.976163
-2.23795
-0.573652
-1.99867
-0.274087
-1.53284
-0.0513275
-0.770563
0.0261066
-0.179695
0.0803284
-0.0681329
0.253133
-0.749773
0.511479
-1.32628
0.578153
-0.601114
0.335328
0.92588
-0.0229233
1.70065
-0.257219
1.25134
-0.306197
0.293415
-0.261493
-0.202012
-0.197848
-0.317364
-0.129199
-0.331192
-0.0700288
-0.296831
-0.0379619
-0.206246
-0.0501786
-0.0290929
-0.103506
0.172535
-0.187969
0.358661
-0.28184
0.436182
-0.364644
0.397267
-0.421794
0.300642
-0.442805
0.122102
-0.43758
0.00179588
-0.410138
-0.107559
-0.376375
-0.165882
-0.347121
-0.138842
-0.31778
-0.14535
-0.306463
-0.0781264
-0.294483
-0.0603977
-0.296389
-0.00766743
-0.300789
-0.0050108
-0.313784
0.060716
-0.323026
0.0321009
-0.342399
0.0640732
-0.364559
0.139748
-0.37848
0.0258092
-0.413014
0.191422
0.176202
-0.0275489
-0.00582591
0.0297555
-0.0277807
-0.00536508
-0.0292889
-0.00482715
-0.0303096
-0.00407622
-0.0306778
-0.00366808
-0.0306355
-0.00368438
-0.0306487
-0.00313509
-0.0311583
-0.00182918
-0.0324926
-0.000934027
-0.034602
-0.00127056
-0.0370674
-0.00229774
-0.0394653
-0.00298831
-0.0415644
-0.00289984
-0.0431898
-0.00229142
-0.0441024
-0.0016316
-0.0442251
-0.00117946
-0.0437397
-0.00103901
-0.0428298
-0.0012803
-0.0414276
-0.00210203
-0.0397554
-0.00366706
-0.0387929
-0.00626646
-0.0391829
-0.00935969
-0.0405036
-0.0125476
-0.0407944
-0.013921
-0.0402464
-0.0138268
-0.0402765
-0.0119377
-0.0399139
-0.0066102
-0.0371173
0.00274037
-0.0314098
0.0108898
-0.0223513
0.00997408
-0.0139925
0.00195484
-0.00502588
-0.00415552
-0.00240062
-0.0230683
-0.0102275
-0.0292485
-0.0101994
-0.0116609
-0.0142806
-0.00209194
-0.0173916
0.00214096
-0.0195091
-0.000973762
-0.0192077
-0.00122692
-0.0122806
0.00951306
-0.00430455
0.0123821
0.0024176
0.0171188
0.0125275
0.00464527
0.0124354
0.0190259
0.00454243
0.0216013
-0.0103903
0.0264924
-0.0326005
0.0489994
-0.0567513
0.0698877
-0.0843812
0.0955493
-0.110519
0.118593
-0.127101
0.128356
-0.123255
0.11006
-0.0980784
0.0500363
-0.0676093
-0.063949
-0.0192842
-0.229342
0.0667629
-0.457499
0.175992
-0.692657
0.300819
-0.786671
0.362257
-0.726029
0.314951
-0.219714
0.173632
0.943456
-0.244042
2.829
-0.881833
4.73265
-1.99099
4.97801
-2.3374
-1.25908
-0.979748
-7.14543
0.126522
-3.58669
0.0757681
1.76187
0.715644
-2.19189
2.48043
-8.69816
4.06599
-9.96384
3.27759
-0.805429
1.5781
7.00401
0.325984
9.07958
-0.948895
9.41234
-1.93767
6.98037
-2.35602
2.79044
-2.11506
-2.30809
-1.51596
-3.66352
-1.11662
-2.68175
-0.678708
-2.41614
-0.334908
-1.89114
-0.0678662
-0.993537
0.0438012
-0.280813
0.122193
-0.139808
0.314205
-0.933019
0.582945
-1.58199
0.632976
-0.653834
0.347009
1.19773
-0.0459369
2.08161
-0.301186
1.486
-0.342037
0.343337
-0.303735
-0.241989
-0.233368
-0.386665
-0.159947
-0.398757
-0.0991628
-0.352326
-0.0691023
-0.232141
-0.0872779
-0.014006
-0.151922
0.229768
-0.247539
0.451681
-0.353276
0.540311
-0.446612
0.487942
-0.511439
0.366066
-0.536213
0.147083
-0.531529
-0.00103796
-0.501201
-0.134299
-0.463612
-0.204314
-0.430218
-0.171416
-0.39705
-0.177269
-0.383442
-0.0953412
-0.36957
-0.0723507
-0.371244
-0.00643979
-0.375496
-0.00444672
-0.389684
0.0778105
-0.399497
0.0418594
-0.420522
0.0812998
-0.443181
0.170666
-0.45917
0.0359076
-0.493672
0.226135
0.203339
-0.0283944
-0.00539511
0.0309391
-0.0286327
-0.00494162
-0.0302036
-0.00441366
-0.0312702
-0.00375251
-0.0316251
-0.00329845
-0.0315431
-0.00315897
-0.0314678
-0.00265117
-0.0316972
-0.00148858
-0.0325017
-0.000367779
-0.0340325
-1.85423e-05
-0.0361557
-0.000317011
-0.0385662
-0.000594991
-0.0409984
-0.000376561
-0.0432681
0.000285602
-0.045212
0.000965204
-0.0467824
0.0012884
-0.0480517
0.00111806
-0.0490004
0.000485328
-0.049397
-0.000695717
-0.049382
-0.00260405
-0.0498354
-0.00555506
-0.0512891
-0.00910964
-0.0531927
-0.012801
-0.0538272
-0.0152378
-0.0533271
-0.016453
-0.0530148
-0.0157646
-0.0520754
-0.010991
-0.0493482
-0.00141875
-0.044331
0.00889444
-0.0353917
0.014052
-0.0255637
0.0121243
-0.0169366
0.00723679
-0.0120038
-0.00770986
-0.0174185
-0.0174147
-0.0177155
-0.0112568
-0.0221829
-0.0108594
-0.0256482
-0.00990378
-0.0271838
-0.0109686
-0.0255878
-0.00692655
-0.0180266
0.0042525
-0.00889831
0.0119824
0.00298045
0.023633
0.0068586
0.0114381
0.00858013
0.0242889
0.0027448
0.0278666
-0.0120449
0.0347851
-0.0354001
0.0623995
-0.059902
0.0814909
-0.0881265
0.109347
-0.11495
0.134152
-0.131954
0.145951
-0.128037
0.125614
-0.102545
0.0563568
-0.0719905
-0.0774451
-0.0234264
-0.275561
0.066102
-0.543361
0.182208
-0.80982
0.311536
-0.91866
0.374327
-0.838486
0.327749
-0.238952
0.198724
1.10561
-0.200061
3.23314
-0.83594
5.38538
-2.04574
6.1592
-2.75144
-0.573014
-1.50383
-8.21321
0.0121884
-5.03921
0.183298
1.49541
1.01979
-3.07863
3.18308
-10.8166
4.46024
-11.1196
3.206
0.392667
1.43234
8.69575
0.343846
10.1752
-1.0222
10.7811
-2.11767
8.02367
-2.60148
3.26765
-2.35743
-2.60747
-1.70756
-4.27748
-1.26852
-3.17189
-0.798423
-2.8658
-0.411447
-2.29099
-0.0943834
-1.26312
0.0613813
-0.424337
0.170129
-0.241186
0.379014
-1.13297
0.652008
-1.84146
0.682327
-0.688147
0.36353
1.5006
-0.0651121
2.49719
-0.282103
1.68742
-0.392805
0.463732
-0.349556
-0.286463
-0.273784
-0.461147
-0.19657
-0.469632
-0.134636
-0.408761
-0.106734
-0.256936
-0.131504
0.00588796
-0.204775
0.296457
-0.312515
0.556327
-0.43088
0.656897
-0.536886
0.59104
-0.611972
0.441768
-0.643146
0.178526
-0.640997
-0.00119446
-0.608639
-0.162747
-0.567399
-0.246365
-0.529044
-0.208847
-0.491015
-0.213931
-0.473693
-0.116492
-0.456528
-0.087481
-0.456539
-0.00687095
-0.459438
-0.00548079
-0.473225
0.0946487
-0.482525
0.0511305
-0.503863
0.0985528
-0.524986
0.200525
-0.542222
0.0469115
-0.574698
0.2586
0.225782
-0.0292569
-0.0049246
0.0321556
-0.029467
-0.00448223
-0.0311153
-0.00396449
-0.0322862
-0.00339806
-0.0327181
-0.00293828
-0.0326703
-0.00267016
-0.0325912
-0.0021915
-0.0327066
-0.00123699
-0.0331592
-0.000121041
-0.0340952
0.000671029
-0.0355452
0.00105959
-0.037377
0.00135493
-0.0393928
0.00191679
-0.0414559
0.00283985
-0.0435489
0.00381535
-0.0457948
0.00439387
-0.0483192
0.00432653
-0.0510081
0.00365121
-0.0534986
0.00236501
-0.055793
0.000313443
-0.05856
-0.00279556
-0.0621073
-0.00661947
-0.065661
-0.0106751
-0.0676119
-0.0140375
-0.0679191
-0.016654
-0.0677353
-0.0177115
-0.0665492
-0.0148572
-0.0640913
-0.00719139
-0.0597797
0.00273107
-0.0514388
0.0107851
-0.0410026
0.0126244
-0.0326378
0.00901717
-0.0260382
-0.00288851
-0.0291422
-0.0155456
-0.0293821
-0.0175465
-0.0336551
-0.0223399
-0.036914
-0.0231401
-0.0374076
-0.0215094
-0.0343936
-0.0139924
-0.0258746
-0.00123394
-0.014951
0.0100314
-0.00294823
0.0193831
0.00334982
0.0196886
0.00771439
0.0292668
-0.00231324
0.0390584
-0.0148305
0.0377444
-0.0371593
0.0653547
-0.0617222
0.0913076
-0.0900674
0.122536
-0.117242
0.149014
-0.13467
0.164324
-0.131213
0.142885
-0.106657
0.0649624
-0.0778649
-0.0891727
-0.031689
-0.32127
0.0590984
-0.630262
0.18018
-0.933201
0.312966
-1.05683
0.379615
-0.958413
0.341968
-0.268582
0.23927
1.24794
-0.131491
3.61558
-0.762826
6.0396
-2.01126
7.37641
-3.805
1.22464
-2.22143
-9.65502
-0.151015
-7.06737
0.29963
0.938392
1.35059
-4.18006