/*--------------------------------*- C++ -*----------------------------------*\
| =========                 |                                                 |
| \\      /  F ield         | OpenFOAM: The Open Source CFD Toolbox           |
|  \\    /   O peration     | Version:  2412                                  |
|   \\  /    A nd           | Website:  www.openfoam.com                      |
|    \\/     M anipulation  |                                                 |
\*---------------------------------------------------------------------------*/
FoamFile
{
    version     2.0;
    format      ascii;
    arch        "LSB;label=32;scalar=64";
    class       surfaceScalarField;
    location    "0.25";
    object      phi;
}
// * * * * * * * * * * * * * * * * * * * * * * * * * * * * * * * * * * * * * //

dimensions      [0 3 -1 0 0 0 0];

oriented        oriented;

internalField   nonuniform List<scalar> 
24930
(
0.0182562
0.0222142
-0.0405225
0.00788372
0.0103724
0.00381403
0.00406969
0.00223603
0.001578
0.00151355
0.000722488
0.00108874
0.000424807
0.000800542
0.000288197
0.000590836
0.000209706
0.000432396
0.000158442
0.000309671
0.000122727
0.000212483
9.71899e-05
0.000134148
7.83365e-05
7.05185e-05
6.36319e-05
1.84272e-05
5.20939e-05
-2.44295e-05
4.28593e-05
-5.99277e-05
3.55006e-05
-8.93259e-05
2.94002e-05
-0.000113042
2.37174e-05
-0.000132896
1.98569e-05
-0.000148864
1.59708e-05
-0.000161902
1.30399e-05
-0.000172001
1.01019e-05
-0.000180098
8.10107e-06
-0.000185684
5.59235e-06
-0.000189959
4.28002e-06
-0.000192507
2.55161e-06
-0.000193881
1.37851e-06
-0.000194107
2.35696e-07
-0.00019339
-7.04683e-07
-0.000191867
-1.52066e-06
-0.000189563
-2.3129e-06
-0.000186763
-2.80463e-06
-0.00018342
-3.33615e-06
-0.000179792
-3.65266e-06
-0.000175853
-4.00918e-06
-0.000171708
-4.17756e-06
-0.000167485
-4.22486e-06
-0.000163245
-4.23387e-06
-0.000159089
-4.14935e-06
-0.000155043
-4.04213e-06
-0.00015116
-3.88312e-06
-0.000147445
-3.72162e-06
-0.000143914
-3.53872e-06
-0.000140647
-3.27322e-06
-0.000137692
-2.95994e-06
-0.000135123
-2.56897e-06
-0.00013288
-2.23869e-06
-0.000130586
-2.28871e-06
-0.000127411
-3.17209e-06
-0.00012196
-5.44936e-06
-0.000112401
-9.55729e-06
-9.70146e-05
-1.53912e-05
-7.53386e-05
-2.16894e-05
-4.91446e-05
-2.62061e-05
-2.31535e-05
-2.5983e-05
-4.36732e-06
-1.87543e-05
-2.0773e-06
-2.24798e-06
-2.43265e-05
2.22285e-05
-8.10861e-05
5.67725e-05
-0.000175228
9.41358e-05
-0.000285989
0.000110763
-0.000351866
6.58121e-05
-0.000250727
-0.000101252
8.19651e-05
-0.000332727
0.00044101
-0.000358988
0.000571128
-0.000130127
0.000472835
9.82377e-05
0.000425237
4.76243e-05
0.000571933
-0.000146565
0.000651338
-7.91965e-05
0.000246798
0.000404621
-0.000723956
0.000970709
-0.00189321
0.00116921
-0.00282635
0.000933073
-0.00316384
0.00033738
-0.00281837
-0.000345627
-0.00196127
-0.000857127
-0.00104284
-0.00091843
-0.000387221
-0.000655531
3.26422e-05
-0.00041991
0.000247088
-0.000214365
0.000333308
-8.62306e-05
0.00034443
-1.10707e-05
0.000335843
8.56508e-06
0.000352538
-1.66574e-05
0.000386182
-3.36397e-05
0.000349401
3.68009e-05
0.000173743
0.000175641
-7.89298e-05
0.000252658
-0.000268087
0.000189153
-0.000311945
4.3856e-05
-0.000253618
-5.83327e-05
-0.000170855
-8.27695e-05
-9.70488e-05
-7.3801e-05
-4.39406e-05
-5.3099e-05
-1.6742e-05
-2.71929e-05
-1.99303e-05
3.18972e-06
-4.86499e-05
2.87179e-05
-9.38031e-05
4.51567e-05
-0.000130258
3.64556e-05
-0.000149257
1.89973e-05
-0.000125718
-2.35421e-05
-6.94968e-05
-5.62211e-05
2.26729e-05
-9.21671e-05
0.000133202
-0.000110529
0.000243627
-0.000110423
0.000376821
-0.000133193
0.000471766
-9.49435e-05
0.000601399
-0.000129631
0.000682479
-8.10791e-05
0.000809641
-0.000127161
0.00088824
-7.85984e-05
0.00102894
-0.000140698
0.00111114
-8.22068e-05
0.00129207
-0.000180927
0.00138815
-9.60829e-05
0.00162946
-0.000241301
0.00181007
-0.000180616
0.00224973
-0.000439655
-0.000585168
0.037771
0.0310768
-0.0466337
0.0262927
0.0218508
0.0172398
0.0131227
0.0114704
0.00734735
0.0080019
0.004191
0.00584719
0.00257952
0.00440304
0.00173235
0.00336897
0.00124377
0.00259408
0.000933338
0.00199448
0.000722333
0.00151981
0.00057186
0.00113777
0.000460384
0.000826038
0.000375373
0.000569258
0.000308882
0.000356471
0.000255653
0.000179679
0.000212299
3.46409e-05
0.000174442
-9.38761e-05
0.000152238
-0.000201656
0.00012764
-0.000290636
0.000104954
-0.000364554
8.69611e-05
-0.000425089
7.06439e-05
-0.000475006
5.80293e-05
-0.000514346
4.4945e-05
-0.0005461
3.60483e-05
-0.000570333
2.68035e-05
-0.000588319
1.93921e-05
-0.000600951
1.28872e-05
-0.000608854
7.19222e-06
-0.00061275
2.35638e-06
-0.000613045
-2.02367e-06
-0.000610561
-5.31838e-06
-0.000605448
-8.53307e-06
-0.000598307
-1.08956e-05
-0.000589525
-1.28467e-05
-0.000579475
-1.42222e-05
-0.000568538
-1.51434e-05
-0.000557041
-1.57123e-05
-0.000545347
-1.58266e-05
-0.000533621
-1.57613e-05
-0.000522051
-1.54575e-05
-0.000510704
-1.5083e-05
-0.000499661
-1.46027e-05
-0.000489169
-1.37848e-05
-0.000479412
-1.2733e-05
-0.000470581
-1.14054e-05
-0.000462439
-1.0377e-05
-0.000453729
-1.09891e-05
-0.000441711
-1.5178e-05
-0.000421857
-2.52973e-05
-0.000388348
-4.30688e-05
-0.000335811
-6.79438e-05
-0.000263186
-9.43294e-05
-0.000176992
-0.000112394
-9.33841e-05
-0.000109592
-3.73043e-05
-7.4853e-05
-3.91095e-05
-4.3293e-07
-0.000127009
0.000110116
-0.000329869
0.000259665
-0.000647045
0.000411268
-0.000997895
0.00046157
-0.00116741
0.000235242
-0.000781383
-0.000487345
0.000328691
-0.00144285
0.0015066
-0.00153693
0.00193006
-0.000553577
0.00165613
0.000372202
0.00152509
0.00017885
0.00192814
-0.00054944
0.00196723
-0.000118086
0.000283517
0.00208836
-0.00304284
0.00429704
-0.00677717
0.00490344
-0.00948002
0.00363578
-0.0102112
0.00106845
-0.00886264
-0.00169435
-0.00608258
-0.00363713
-0.00321361
-0.00378749
-0.00111755
-0.00275144
0.00023418
-0.00177171
0.000934147
-0.000914188
0.00121237
-0.000364488
0.00124581
-4.4418e-05
0.00121645
3.78975e-05
0.0012618
-6.19536e-05
0.00132971
-0.000101562
0.00113825
0.000228275
0.000515606
0.000798277
-0.000296962
0.00106522
-0.000863889
0.000756081
-0.000965072
0.000145031
-0.00076067
-0.000262739
-0.00048535
-0.000358093
-0.000245039
-0.000314106
-7.47334e-05
-0.000223401
5.89272e-06
-0.000107818
-6.78499e-06
1.587e-05
-9.83156e-05
0.000120251
-0.000221902
0.000168749
-0.00030755
0.000122104
-0.000318439
2.98861e-05
-0.000191239
-0.000150742
4.47885e-05
-0.00029225
0.000376407
-0.000423783
0.000773898
-0.00050802
0.00117425
-0.000510775
0.00161634
-0.000575279
0.00198022
-0.000458818
0.00240686
-0.000556274
0.00273527
-0.000409484
0.00315753
-0.000549416
0.00349185
-0.000412923
0.00396539
-0.000614232
0.00432388
-0.000440698
0.00494418
-0.000801221
0.00534624
-0.000498145
0.00620046
-0.00109553
0.00686318
-0.000843324
0.00837384
-0.00195033
-0.00254694
0.0481253
0.032895
-0.0499435
0.0410677
0.0289084
0.0322276
0.0219628
0.0242348
0.0153401
0.0180995
0.0103263
0.0136967
0.00698233
0.0105515
0.00487754
0.00824561
0.00354965
0.00649931
0.00267964
0.00513967
0.00208198
0.00405782
0.00165371
0.0031823
0.00133591
0.00246449
0.00109319
0.00186992
0.000903461
0.00137356
0.00075202
0.000956676
0.000629187
0.000605237
0.000525887
0.000309955
0.000447527
6.17351e-05
0.000375865
-0.000152051
0.000318745
-0.000332486
0.000267403
-0.000483235
0.000221402
-0.000609685
0.000184488
-0.000713213
0.000148481
-0.000798779
0.000121623
-0.000867817
9.58542e-05
-0.000922818
7.44108e-05
-0.000965243
5.5321e-05
-0.00099688
3.88172e-05
-0.00101909
2.45583e-05
-0.00103297
1.18696e-05
-0.00104023
1.9153e-06
-0.00104158
-7.24155e-06
-0.00103804
-1.44874e-05
-0.00103034
-2.05389e-05
-0.00101923
-2.53062e-05
-0.00100563
-2.87263e-05
-0.000990166
-3.11719e-05
-0.000973553
-3.24304e-05
-0.000956198
-3.31134e-05
-0.000938483
-3.31761e-05
-0.000920593
-3.29809e-05
-0.00090271
-3.2498e-05
-0.00088527
-3.12363e-05
-0.000868612
-2.94002e-05
-0.000853034
-2.69885e-05
-0.000838091
-2.5321e-05
-0.000821612
-2.74665e-05
-0.000798886
-3.79016e-05
-0.000762203
-6.1982e-05
-0.000701731
-0.000103545
-0.000608717
-0.000160972
-0.00048183
-0.00022123
-0.000333051
-0.000261164
-0.000191349
-0.0002513
-0.000101226
-0.00016499
-0.000116046
1.43901e-05
-0.000287343
0.000281403
-0.000659544
0.000631897
-0.00121763
0.000969301
-0.00180426
0.00104816
-0.00204353
0.000474437
-0.00133357
-0.00119734
0.000603808
-0.00338027
0.00266633
-0.0035995
0.00343161
-0.00131885
0.00301483
0.000789024
0.00280562
0.000388276
0.00338133
-0.001125
0.00314312
0.000120233
-0.000160705
0.00539217
-0.00615443
0.0102907
-0.0124372
0.0111862
-0.0165769
0.00777534
-0.017334
0.00182541
-0.0147649
-0.00426365
-0.0100218
-0.00838016
-0.00523771
-0.00857171
-0.00171857
-0.00627044
0.000582835
-0.0040732
0.00179799
-0.00212919
0.00227868
-0.000845225
0.0023336
-9.92356e-05
0.00227801
9.34567e-05
0.00233645
-0.000120334
0.0023929
-0.000158035
0.00197735
0.000643838
0.000848049
0.00192757
-0.00054421
0.00245748
-0.00146159
0.00167346
-0.00158486
0.000268302
-0.00121044
-0.000637162
-0.000728614
-0.000839927
-0.000313806
-0.000728909
-2.30755e-05
-0.000514128
0.000108512
-0.000239405
8.74715e-05
3.69137e-05
-5.44606e-05
0.000262185
-0.00023413
0.000348425
-0.000330355
0.00021833
-0.000282783
-1.7686e-05
7.69142e-06
-0.000441216
0.000465491
-0.000750052
0.00110517
-0.00106346
0.00184903
-0.00125188
0.00258819
-0.00124993
0.00339608
-0.00138317
0.00407247
-0.00113521
0.00484652
-0.00133032
0.00548022
-0.00104318
0.00625439
-0.00132359
0.00691539
-0.00107392
0.00779112
-0.00148996
0.00850809
-0.00115767
0.00966212
-0.00195525
0.0104528
-0.00128885
0.0120539
-0.00269659
0.0132796
-0.00206906
0.0159719
-0.00464262
-0.00604928
0.0540319
0.0320734
-0.0532103
0.0513363
0.0316039
0.0453812
0.0279179
0.037973
0.0227483
0.0307387
0.0175607
0.024545
0.013176
0.0195804
0.00984211
0.0156886
0.00744152
0.012631
0.00573722
0.0102001
0.0045129
0.00824025
0.00361354
0.00663954
0.00293663
0.00531745
0.00241528
0.00421545
0.00200546
0.00329013
0.00167734
0.00250863
0.0014107
0.00184564
0.00118888
0.00128332
0.00100985
0.000804075
0.000855122
0.000396523
0.000726304
5.19342e-05
0.000611998
-0.000246358
0.000519702
-0.000498154
0.000436291
-0.000708473
0.000358804
-0.00088494
0.000298092
-0.00103105
0.000241972
-0.00115086
0.000194218
-0.00124767
0.000152134
-0.00132433
0.000115469
-0.00138368
8.39175e-05
-0.00142745
5.56715e-05
-0.00145823
3.26763e-05
-0.00147733
1.18507e-05
-0.0014871
-4.6927e-06
-0.00148901
-1.85742e-05
-0.00148431
-2.99744e-05
-0.00147402
-3.90087e-05
-0.00145956
-4.56269e-05
-0.00144212
-4.98709e-05
-0.0014224
-5.28309e-05
-0.00140109
-5.44844e-05
-0.0013786
-5.54813e-05
-0.00135524
-5.58598e-05
-0.00133169
-5.47894e-05
-0.00130848
-5.26136e-05
-0.00128603
-4.94469e-05
-0.00126369
-4.76588e-05
-0.00123842
-5.27442e-05
-0.00120354
-7.27838e-05
-0.00114818
-0.000117347
-0.00105855
-0.000193175
-0.000922573
-0.000296966
-0.000738944
-0.000404872
-0.000525652
-0.000474448
-0.000325592
-0.000451367
-0.000205139
-0.000285436
-0.000242642
5.18947e-05
-0.000513462
0.000552211
-0.00107397
0.00119244
-0.00188496
0.00178023
-0.0027011
0.00186426
-0.00298669
0.000759955
-0.00193914
-0.0022449
0.00084813
-0.00616759
0.00387602
-0.00662745
0.00507718
-0.00252004
0.00456665
0.0012996
0.00426266
0.000692503
0.00490078
-0.00176298
0.00412012
0.000901012
-0.00113988
0.0106521
-0.0100554
0.0192062
-0.0187478
0.0198785
-0.0239329
0.0129603
-0.024353
0.00224552
-0.0204064
-0.00821041
-0.0137342
-0.0150523
-0.00711387
-0.0151921
-0.00218344
-0.0112007
0.00108949
-0.00734622
0.00285182
-0.00389135
0.00355708
-0.00155054
0.00363725
-0.000179292
0.00354679
0.00018388
0.00359358
-0.000167062
0.00358884
-0.000153319
0.00287773
0.00135496
0.00118569
0.0036196
-0.000791875
0.00443504
-0.00202915
0.00291075
-0.00213995
0.0003791
-0.00157372
-0.0012034
-0.000870801
-0.00154285
-0.000272021
-0.00132768
0.000140762
-0.000926908
0.000328756
-0.000427398
0.000307489
5.8183e-05
0.00013345
0.000436226
-6.3228e-05
0.00054511
-0.000120488
0.000275592
5.0711e-05
-0.000188885
0.000550427
-0.000940932
0.00131362
-0.00151325
0.00232022
-0.00207005
0.0034651
-0.00239677
0.00460173
-0.00238656
0.00582227
-0.00260371
0.00687721
-0.00219015
0.00805639
-0.00250949
0.00906441
-0.00205119
0.0102602
-0.00251934
0.011328
-0.0021418
0.0126904
-0.00285236
0.0138567
-0.00232397
0.0156497
-0.00374824
0.0169237
-0.0025628
0.0194018
-0.00517472
0.0212937
-0.00396097
0.0252527
-0.00860157
-0.0112348
0.0579057
0.0307968
-0.0566292
0.0577844
0.0317253
0.0550341
0.0306681
0.0499894
0.0277931
0.0436767
0.0238733
0.0371397
0.019713
0.0310734
0.0159085
0.0257883
0.0127267
0.0213314
0.010194
0.0176216
0.00822276
0.0145393
0.00669587
0.0119696
0.00550627
0.00981587
0.00456904
0.00800044
0.0038209
0.00646221
0.00321557
0.00515308
0.00271984
0.00403472
0.00230725
0.00307849
0.00196609
0.00225833
0.00167528
0.00155503
0.00142961
0.000951539
0.00121549
0.000435825
0.00103542
8.45775e-07
0.000871277
-0.000382016
0.000741668
-0.000702121
0.000618197
-0.000971152
0.000511005
-0.00119602
0.000419086
-0.00138214
0.000338249
-0.00153433
0.00026767
-0.00165699
0.000206598
-0.00175336
0.000152078
-0.00182765
0.00010697
-0.0018828
6.70513e-05
-0.00192096
3.35283e-05
-0.0019444
4.92411e-06
-0.0019563
-1.80491e-05
-0.00195905
-3.6259e-05
-0.00195342
-5.12637e-05
-0.00194155
-6.17401e-05
-0.0019248
-6.95835e-05
-0.00190423
-7.50456e-05
-0.00188057
-7.91487e-05
-0.00185437
-8.20544e-05
-0.00182663
-8.25374e-05
-0.0017981
-8.11409e-05
-0.00176937
-7.81806e-05
-0.00173966
-7.73766e-05
-0.00170507
-8.73313e-05
-0.00165711
-0.000120757
-0.00158187
-0.000192585
-0.0014619
-0.000313159
-0.00128197
-0.000476911
-0.00104095
-0.000645903
-0.000763118
-0.000752273
-0.000506045
-0.000708444
-0.000359563
-0.000431901
-0.000429512
0.000121842
-0.000814937
0.000937615
-0.00157927
0.0019568
-0.00264867
0.00284958
-0.00368208
0.00289762
-0.00399749
0.00107531
-0.00263502
-0.00360738
0.000981334
-0.00978396
0.00506024
-0.0107064
0.00683971
-0.00429954
0.00631038
0.00182897
0.00589159
0.00111154
0.00644514
-0.00231641
0.00481065
0.0025356
-0.00276928
0.0182319
-0.0147234
0.0311603
-0.0255331
0.0306882
-0.0312644
0.0186916
-0.0310068
0.00198793
-0.0256217
-0.0135957
-0.0171308
-0.0235431
-0.00879137
-0.0235317
-0.00249248
-0.0174995
0.00176795
-0.0116068
0.00411519
-0.00623843
0.0050737
-0.0025091
0.00518764
-0.000293121
0.00505162
0.000319868
0.00505365
-0.000169028
0.00492744
-2.71274e-05
0.00385147
0.00243094
0.00155355
0.00591751
-0.001005
0.0069936
-0.00252572
0.00443148
-0.00259023
0.000443607
-0.00181193
-0.0019817
-0.000875333
-0.00247945
-8.29316e-05
-0.00212008
0.000456219
-0.00146606
0.000710621
-0.000681799
0.000705537
6.32688e-05
0.000528623
0.000613143
0.000353407
0.000720333
0.000394027
0.000234972
0.000744446
-0.000539302
0.00154516
-0.00174165
0.00268195
-0.00265003
0.00412289
-0.00351099
0.00573807
-0.00401195
0.00733259
-0.00398108
0.00903891
-0.00431002
0.0105319
-0.00368314
0.0121936
-0.00417117
0.0136477
-0.00350531
0.0153535
-0.00422516
0.0169128
-0.00370104
0.0188659
-0.00480543
0.0205758
-0.00403397
0.0231357
-0.00630805
0.0249898
-0.00441693
0.0284919
-0.00867681
0.0311616
-0.0066307
0.036444
-0.013884
-0.0181881
0.0612358
0.0297881
-0.0602271
0.0620526
0.0309085
0.0615026
0.0312181
0.0590343
0.0302614
0.054816
0.0280917
0.0494379
0.0250911
0.0435724
0.021774
0.0377616
0.0185374
0.0323481
0.0156076
0.0274945
0.0130763
0.0232399
0.0109504
0.0195548
0.00919146
0.0163796
0.00774418
0.0136481
0.00655244
0.0112973
0.00556639
0.00927167
0.00474546
0.00752357
0.00405535
0.00601459
0.00347508
0.00471011
0.00297977
0.00358267
0.00255707
0.00260802
0.00219014
0.00176728
0.00187617
0.00104209
0.00159648
0.000421122
0.00136264
-0.000110267
0.00114959
-0.000566949
0.000967691
-0.000952849
0.000804989
-0.00127748
0.000662884
-0.00154837
0.000538557
-0.00177229
0.000430542
-0.00195425
0.000334073
-0.00210044
0.000253197
-0.00221505
0.00018174
-0.00230277
0.000121312
-0.00236787
7.00643e-05
-0.00241246
2.65479e-05
-0.00243963
-9.0928e-06
-0.00245463
-3.62766e-05
-0.00245838
-5.79917e-05
-0.00245266
-7.53017e-05
-0.00243949
-8.82133e-05
-0.00242012
-9.85143e-05
-0.00239546
-0.000106718
-0.00236689
-0.000111111
-0.00233552
-0.000112507
-0.00230218
-0.000111525
-0.00226606
-0.000113504
-0.00222261
-0.000130794
-0.00216166
-0.000181706
-0.00206662
-0.000287633
-0.00191658
-0.000463206
-0.00169339
-0.000700107
-0.00139615
-0.000943161
-0.00105537
-0.00109305
-0.000743678
-0.00102014
-0.000575696
-0.000599868
-0.000686343
0.00023249
-0.00119838
0.00144962
-0.00217685
0.0029353
-0.00350422
0.00417689
-0.00474237
0.00413573
-0.0050888
0.00142169
-0.00347821
-0.00521796
0.000892876
-0.0141551
0.00611165
-0.0159253
0.00867552
-0.00686346
0.00824156
0.00226296
0.00768396
0.0016694
0.00797113
-0.00260346
0.00514764
0.00535912
-0.0050769
0.0284563
-0.0200592
0.0461425
-0.0325516
0.0431805
-0.0383119
0.0244518
-0.0371364
0.000812267
-0.0303609
-0.0203714
-0.0202132
-0.0336907
-0.0102822
-0.0334629
-0.0026503
-0.0251312
0.0026194
-0.0168766
0.00560076
-0.00921962
0.00685443
-0.00376284
0.00701907
-0.000457647
0.00682604
0.000512867
0.00674157
-8.44841e-05
0.00642962
0.000284795
0.00492241
0.00393816
0.00198705
0.00885285
-0.00113689
0.0101176
-0.00290136
0.00619596
-0.00288957
0.000431825
-0.00188215
-0.00298912
-0.000698474
-0.00366314
0.000291728
-0.00311028
0.000973136
-0.00214746
0.00130865
-0.00101731
0.0013463
2.56265e-05
0.00120777
0.000751678
0.0011115
0.000816604
0.00131777
2.87092e-05
0.00192742
-0.00114896
0.0031007
-0.00291492
0.00468556
-0.00423489
0.0066321
-0.00545753
0.00878784
-0.00616769
0.0109137
-0.00610694
0.0131781
-0.00657444
0.01519
-0.00569506
0.0174184
-0.00639952
0.0194066
-0.00549352
0.0217188
-0.00653735
0.0238685
-0.00585079
0.0265233
-0.00746016
0.0288846
-0.00639528
0.0323393
-0.00976272
0.0348881
-0.00696572
0.0395433
-0.0133321
0.0431317
-0.010219
0.0497671
-0.0205195
-0.0269288
0.0647721
0.029072
-0.064056
0.0656559
0.0300247
0.0660935
0.0307805
0.0654221
0.0309328
0.0633112
0.0302025
0.0598156
0.0285867
0.0552582
0.0263313
0.0500602
0.0237355
0.0446198
0.021048
0.0392519
0.0184442
0.0341706
0.0160317
0.0294971
0.013865
0.0252812
0.0119601
0.0215256
0.010308
0.0182062
0.00888582
0.0152863
0.00766543
0.0127248
0.0066168
0.0104831
0.0057168
0.00852331
0.00493956
0.00681252
0.00426786
0.00532047
0.0036822
0.00402217
0.00317448
0.00289348
0.00272517
0.0019172
0.00233892
0.00107314
0.00199366
0.000347799
0.00169304
-0.000274219
0.00142701
-0.000805589
0.00119426
-0.00125485
0.000987826
-0.00163252
0.000808224
-0.00194621
0.000647785
-0.00220483
0.000511842
-0.0024148
0.000391767
-0.00258232
0.000288882
-0.00271309
0.000200855
-0.00281325
0.0001267
-0.00288787
6.55231e-05
-0.00293762
1.3465e-05
-0.00297004
-2.55726e-05
-0.00298787
-5.74771e-05
-0.00299232
-8.37564e-05
-0.00298557
-0.000105269
-0.0029693
-0.000122989
-0.00294544
-0.000134972
-0.00291557
-0.000142379
-0.0028809
-0.0001462
-0.0028408
-0.000153616
-0.0027903
-0.000181302
-0.00271796
-0.000254047
-0.00260486
-0.000400739
-0.00242706
-0.00064101
-0.00216363
-0.000963554
-0.00181365
-0.00129315
-0.00141343
-0.00149327
-0.00105045
-0.00138313
-0.000865009
-0.0007853
-0.00102243
0.000389917
-0.00166859
0.00209574
-0.00286503
0.00413177
-0.00444427
0.00575606
-0.0058783
0.00556973
-0.00628159
0.00182493
-0.00453872
-0.0069608
0.000450762
-0.0191445
0.00688285
-0.0223575
0.0105108
-0.0104915
0.0103387
0.00243512
0.0096235
0.00238487
0.00942898
-0.00240885
0.00506565
0.00972248
-0.00805782
0.0415796
-0.0259121
0.0639967
-0.0395287
0.0567972
-0.0448438
0.0297668
-0.0426677
-0.00136373
-0.0346346
-0.0284046
-0.0230081
-0.0453171
-0.0116006
-0.0448706
-0.00266619
-0.0340655
0.00364002
-0.0231829
0.00731771
-0.0128971
0.00892435
-0.00536956
0.00916814
-0.00070132
0.00890781
0.00077316
0.00868887
0.000134539
0.00812047
0.000853166
0.00612338
0.00593526
0.00253343
0.0124428
-0.00113103
0.013782
-0.00309917
0.00816412
-0.00298488
0.000317539
-0.00173356
-0.00424044
-0.000287903
-0.00510881
0.000908573
-0.00430675
0.00174938
-0.00298827
0.00219029
-0.00145822
0.00230743
-9.15129e-05
0.00225813
0.000800986
0.00230529
0.00076945
0.00274874
-0.000414738
0.00369671
-0.00209693
0.00532032
-0.00453853
0.00743248
-0.00634706
0.00996226
-0.00798731
0.0127415
-0.00894694
0.0154786
-0.00884406
0.0183932
-0.00948902
0.0210085
-0.00831032
0.0239038
-0.00929481
0.0265206
-0.00811034
0.0295493
-0.00956604
0.0323937
-0.00869522
0.0358725
-0.0109389
0.0389957
-0.00951855
0.043479
-0.014246
0.0468443
-0.010331
0.0527679
-0.0192557
0.0574297
-0.0148808
0.065424
-0.0285138
-0.0373872
0.0687054
0.0285141
-0.0681474
0.0694068
0.0293232
0.0700558
0.0301314
0.0702438
0.0307449
0.0695737
0.0308726
0.0678137
0.0303468
0.0649492
0.0291958
0.0611303
0.0275543
0.0565979
0.0255804
0.0516218
0.0234203
0.046458
0.0211956
0.041322
0.019001
0.036377
0.016905
0.0317326
0.0149525
0.0274505
0.0131679
0.0235557
0.0115602
0.0200475
0.0101249
0.016911
0.00885338
0.0141212
0.00772936
0.0116504
0.00673861
0.00946934
0.0058633
0.00755073
0.00509311
0.00586684
0.00440908
0.00439589
0.00380988
0.00311341
0.00327616
0.00200035
0.00280612
0.00103806
0.00238931
0.00021114
0.00202119
-0.000498763
0.00169773
-0.00110302
0.00141248
-0.0016124
0.00115717
-0.0020395
0.000938959
-0.00239387
0.000746165
-0.00268458
0.000579615
-0.00291981
0.00043608
-0.00310675
0.000313624
-0.00325236
0.00021113
-0.00336527
0.000126372
-0.00344764
5.67969e-05
-0.00350325
-1.86465e-06
-0.00354003
-4.69802e-05
-0.00355881
-8.64946e-05
-0.00356124
-0.000120566
-0.00355061
-0.000145603
-0.00352922
-0.000163773
-0.00349884
-0.00017659
-0.0034593
-0.000193168
-0.0034056
-0.000235006
-0.00332552
-0.000334132
-0.00319835
-0.000527906
-0.00299761
-0.000841759
-0.00269963
-0.00126154
-0.00230305
-0.00168975
-0.00184887
-0.00194744
-0.00143862
-0.00179339
-0.00123845
-0.000985458
-0.00144514
0.000596608
-0.00222718
0.00287773
-0.00363838
0.00554299
-0.00545971
0.00757733
-0.00709059
0.00720057
-0.00760848
0.00234279
-0.00589508
-0.00867415
-0.000507653
-0.024532
0.00718899
-0.0300542
0.0122377
-0.0155403
0.0125624
0.00211036
0.0116853
0.00326224
0.0107709
-0.00149434
0.00452103
0.0159724
-0.0116661
0.0577665
-0.0320867
0.0844172
-0.0461988
0.0709093
-0.0507474
0.0343155
-0.0476395
-0.00447169
-0.0385443
-0.0374999
-0.0255916
-0.0582696
-0.0127847
-0.0576777
-0.00256075
-0.0442893
0.00481762
-0.0305615
0.00926848
-0.0173478
0.0113058
-0.00740692
0.0116733
-0.00106874
0.0113404
0.00110601
0.0109346
0.000540413
0.010039
0.00174873
0.0075012
0.00847309
0.00325304
0.0166909
-0.000919809
0.0179549
-0.00305374
0.0102981
-0.0028159
7.96937e-05
-0.00130794
-0.00574841
0.000405714
-0.00682246
0.00183141
-0.00573244
0.00285372
-0.00401057
0.00343239
-0.00203689
0.00367484
-0.000333954
0.00377442
0.000701408
0.00403376
0.000510117
0.00478957
-0.00117055
0.00615467
-0.00346202
0.00830521
-0.00668908
0.0110261
-0.00906799
0.0142217
-0.0111829
0.0177138
-0.012439
0.021155
-0.0122853
0.0248195
-0.0131535
0.0281386
-0.0116294
0.0318101
-0.0129663
0.0351614
-0.0114617
0.0390224
-0.013427
0.0426729
-0.0123456
0.0470983
-0.0153644
0.0510987
-0.0135189
0.0567296
-0.0198768
0.0610456
-0.014647
0.0683129
-0.026523
0.0742101
-0.020778
0.0835547
-0.0378585
-0.0494065
0.0729944
0.0280312
-0.0725115
0.0735374
0.0287802
0.0741139
0.029555
0.0745519
0.0303069
0.0745907
0.0308338
0.0739733
0.0309641
0.0725316
0.0306375
0.0702092
0.0298768
0.0670493
0.0287403
0.0631681
0.0273015
0.0587259
0.0256377
0.0539036
0.0238233
0.0488834
0.0219252
0.0438332
0.0200026
0.0388947
0.0181065
0.0341757
0.0162791
0.0297495
0.0145512
0.0256589
0.012944
0.0219216
0.0114667
0.0185382
0.010122
0.0154969
0.00890457
0.0127803
0.00780977
0.0103651
0.00682423
0.00822996
0.00594507
0.00634935
0.00515678
0.00470099
0.00445449
0.00326232
0.00382799
0.00201279
0.00327073
0.000933377
0.00277714
9.11185e-06
0.00233673
-0.00078799
0.00195426
-0.00146186
0.00161283
-0.00202915
0.00131345
-0.00250287
0.00105333
-0.00289466
0.000827859
-0.00321498
0.00063393
-0.00347351
0.000469657
-0.00367832
0.000331178
-0.00383863
0.00021712
-0.00396264
0.000122139
-0.004051
4.13761e-05
-0.00411089
-2.66047e-05
-0.00414821
-8.32567e-05
-0.00416388
-0.000129946
-0.00416168
-0.000165974
-0.00414455
-0.000193728
-0.00411312
-0.000224612
-0.0040629
-0.000285232
-0.00398152
-0.000415516
-0.00384721
-0.000662218
-0.00363144
-0.00105753
-0.00330782
-0.00158518
-0.00287369
-0.0021239
-0.00237312
-0.00244801
-0.00191993
-0.00224658
-0.00170573
-0.00119967
-0.00195941
0.000850285
-0.00287206
0.00379033
-0.00448782
0.00715877
-0.00654091
0.00963036
-0.00838541
0.00904505
-0.00911085
0.00306821
-0.00762306
-0.0101619
-0.00216733
-0.0299877
0.00682003
-0.0390417
0.0137042
-0.0224246
0.0148467
0.000967874
0.0138329
0.00427625
0.01195
0.000388664
0.00349191
0.0244304
-0.0158153
0.0770734
-0.0383547
0.106956
-0.0523506
0.0849053
-0.0560152
0.0379801
-0.0521908
-0.00829606
-0.0422439
-0.0474469
-0.0280651
-0.0724483
-0.0138826
-0.0718605
-0.00236008
-0.0558116
0.00613369
-0.0390554
0.0114477
-0.0226616
0.0140158
-0.00997509
0.0145733
-0.00162613
0.0141732
0.001506
0.0135283
0.00118541
0.0122356
0.00304139
0.00911706
0.0115917
0.00421967
0.0215883
-0.000423861
0.0225984
-0.00269239
0.0125666
-0.00231776
-0.000294934
-0.000537316
-0.00752885
0.00144874
-0.00880853
0.00313079
-0.00741448
0.00436453
-0.00524431
0.00512145
-0.00279381
0.00554292
-0.000755422
0.00585211
0.000392227
0.00639436
-3.21236e-05
0.00753011
-0.0023063
0.00938568
-0.00531758
0.0121357
-0.00943913
0.0155475
-0.0124798
0.0194955
-0.0151308
0.0238006
-0.0167441
0.0280477
-0.0165324
0.0325774
-0.0176832
0.0367082
-0.0157602
0.0412759
-0.017534
0.0454724
-0.0156582
0.0502861
-0.0182408
0.0548524
-0.0169119
0.0603431
-0.020855
0.0653313
-0.0185072
0.0722064
-0.0267519
0.0776087
-0.0200494
0.086251
-0.0351652
0.0935207
-0.0280477
0.104193
-0.0485313
-0.0627511
0.0775994
0.0275934
-0.0771616
0.0780527
0.028327
0.0785298
0.0290779
0.0789713
0.0298654
0.0792495
0.0305556
0.0791955
0.0310182
0.0786451
0.0311879
0.0774719
0.0310501
0.0756031
0.030609
0.0730222
0.0298825
0.0697608
0.0288991
0.0658914
0.0276927
0.0615186
0.0262981
0.0567707
0.0247505
0.05179
0.0230872
0.0467199
0.0213493
0.0416924
0.0195787
0.0368191
0.0178173
0.0321845
0.0161012
0.0278467
0.0144599
0.0238389
0.0129124
0.0201762
0.0114726
0.0168577
0.0101427
0.0138755
0.00892732
0.0112124
0.00781986
0.00884931
0.00681761
0.00676401
0.0059133
0.0049341
0.00510065
0.00333709
0.00437415
0.00195047
0.00372333
0.000755007
0.00314971
-0.000270345
0.00263817
-0.00114594
0.00218902
-0.00188633
0.00179372
-0.00250794
0.00144945
-0.00302524
0.00115123
-0.00345186
0.000896285
-0.00379982
0.000679134
-0.00407974
0.000497042
-0.00430107
0.000343471
-0.00447465
0.000214951
-0.00460583
0.000104572
-0.00469554
6.44395e-06
-0.00475673
-6.87622e-05
-0.00479033
-0.000132373
-0.00479988
-0.00018419
-0.00478827
-0.000236231
-0.00475201
-0.000321495
-0.00467945
-0.00048808
-0.00454858
-0.00079309
-0.00432947
-0.00127663
-0.00399283
-0.00192183
-0.00353353
-0.00258323
-0.00299628
-0.00298526
-0.00250465
-0.00273821
-0.00227432
-0.00143001
-0.00256689
0.00114285
-0.00359716
0.00482054
-0.00540112
0.00896274
-0.00767884
0.011908
-0.00977399
0.0111402
-0.0108326
0.00412675
-0.00978445
-0.0112099
-0.00460105
-0.035171
0.00556591
-0.0492088
0.014713
-0.0315718
0.0171012
-0.00142028
0.0160157
0.00536194
0.0129239
0.00348057
0.00198323
0.035371
-0.0203841
0.0994404
-0.0444428
0.131015
-0.057864
0.0983266
-0.0607744
0.0408906
-0.056511
-0.0125593
-0.0459109
-0.0580471
-0.0305455
-0.0878136
-0.0149483
-0.0874578
-0.0020914
-0.0686684
0.00756673
-0.0487137
0.0138417
-0.0289364
0.0170635
-0.013197
0.0179047
-0.00246727
0.0174616
0.00194912
0.0165327
0.00211438
0.0147783
0.00479576
0.0110486
0.0153213
0.00552107
0.0271158
0.000444474
0.027675
-0.00193335
0.0149445
-0.00141245
-0.000815837
0.000633022
-0.00957433
0.00292203
-0.0110975
0.00488534
-0.00937778
0.00636688
-0.00672585
0.00734787
-0.00377481
0.00800308
-0.00141062
0.00858226
-0.000186946
0.00946635
-0.000916201
0.0110409
-0.00388085
0.0134485
-0.00772516
0.0168601
-0.0128507
0.0210412
-0.016661
0.025829
-0.0199186
0.0310532
-0.0219683
0.0362181
-0.0216973
0.0417369
-0.023202
0.0467981
-0.0208214
0.0523871
-0.023123
0.0575428
-0.0208138
0.063426
-0.024124
0.0690127
-0.0224986
0.0756704
-0.0275128
0.0817479
-0.0245847
0.0899232
-0.0349272
0.0965384
-0.0266645
0.106532
-0.0451593
0.115258
-0.0367731
0.127217
-0.06049
-0.0771314
0.0825277
0.0271889
-0.0821232
0.0829325
0.0279221
0.083344
0.0286664
0.083738
0.0294714
0.0840573
0.0302363
0.0842136
0.0308619
0.0841012
0.0313002
0.0836133
0.031538
0.0826561
0.0315662
0.081158
0.0313806
0.0790729
0.0309841
0.0763813
0.0303844
0.0730909
0.0295885
0.069239
0.0286024
0.0648932
0.027433
0.0601498
0.0260927
0.0551267
0.0246018
0.049954
0.02299
0.044761
0.0212942
0.0396651
0.0195558
0.034763
0.0178146
0.0301275
0.016108
0.025807
0.0144633
0.0218301
0.0129042
0.0182073
0.0114427
0.0149373
0.0100876
0.0120093
0.00884137
0.00940647
0.00770347
0.00710845
0.00667217
0.00509197
0.0057398
0.00333476
0.00490689
0.00181187
0.00416105
0.000501117
0.00349975
-0.000620619
0.00291545
-0.00157412
0.00240294
-0.002378
0.0019551
-0.0030508
0.00156909
-0.00360904
0.00123738
-0.00406809
0.000956099
-0.00444142
0.000716803
-0.00474006
0.00051359
-0.00497467
0.000339166
-0.00515781
0.000189583
-0.0052889
6.23153e-05
-0.00537911
-4.21635e-05
-0.00543679
-0.000126519
-0.00546236
-0.000210676
-0.00545581
-0.000328047
-0.00540695
-0.000536934
-0.00529467
-0.000905373
-0.00508838
-0.00148292
-0.00475567
-0.00225456
-0.00428738
-0.00305154
-0.00372568
-0.00354696
-0.00320032
-0.00326358
-0.00294864
-0.0016817
-0.00326549
0.0014597
-0.00439243
0.00594742
-0.00636345
0.0109338
-0.00886535
0.0144099
-0.0112692
0.0135439
-0.0128094
0.00566698
-0.0124159
-0.0116033
-0.0078586
-0.0397283
0.00325003
-0.0603175
0.0150091
-0.043331
0.0192039
-0.0056151
0.0181669
0.00639925
0.0136579
0.00798956
6.36598e-05
0.0489652
-0.0252363