/*--------------------------------*- C++ -*----------------------------------*\
| =========                 |                                                 |
| \\      /  F ield         | OpenFOAM: The Open Source CFD Toolbox           |
|  \\    /   O peration     | Version:  2412                                  |
|   \\  /    A nd           | Website:  www.openfoam.com                      |
|    \\/     M anipulation  |                                                 |
\*---------------------------------------------------------------------------*/
FoamFile
{
    version     2.0;
    format      ascii;
    arch        "LSB;label=32;scalar=64";
    class       surfaceScalarField;
    location    "1.77";
    object      phi_0;
}
// * * * * * * * * * * * * * * * * * * * * * * * * * * * * * * * * * * * * * //

dimensions      [0 3 -1 0 0 0 0];

oriented        oriented;

internalField   nonuniform List<scalar> 
24930
(
0.0179585
0.0127566
-0.0307171
0.0105964
0.00736211
0.00694749
0.00364894
0.00517237
0.00177512
0.0042008
0.000971575
0.00357819
0.000622623
0.00313246
0.000445732
0.0027931
0.000339368
0.00252404
0.000269073
0.00230422
0.000219831
0.00212049
0.00018374
0.00196412
0.000156375
0.00182907
0.000135058
0.001711
0.000118085
0.00160669
0.000104321
0.00151371
9.29829e-05
0.00143021
8.35167e-05
0.0013547
7.55197e-05
0.00128601
6.8694e-05
0.0012232
6.28146e-05
0.0011655
5.77091e-05
0.00111226
5.32429e-05
0.00106295
4.93103e-05
0.00101713
4.5827e-05
0.000974406
4.27248e-05
0.000934457
3.99485e-05
0.000897004
3.74528e-05
0.000861801
3.52001e-05
0.000828639
3.31592e-05
0.00079733
3.13039e-05
0.000767713
2.96121e-05
0.000739642
2.80649e-05
0.000712988
2.66462e-05
0.000687638
2.53425e-05
0.000663489
2.41415e-05
0.000640447
2.30332e-05
0.00061843
2.20084e-05
0.000597362
2.10597e-05
0.000577173
2.01796e-05
0.000557802
1.93632e-05
0.00053919
1.86038e-05
0.000521284
1.78985e-05
0.000504037
1.72409e-05
0.0004874
1.66303e-05
0.000471335
1.60598e-05
0.0004558
1.5531e-05
0.000440761
1.50357e-05
0.000426179
1.45787e-05
0.000412029
1.4149e-05
0.000398272
1.37558e-05
0.000384887
1.33839e-05
0.000371838
1.30485e-05
0.000359111
1.27278e-05
0.000346666
1.24454e-05
0.000334496
1.21705e-05
0.00032256
1.19378e-05
0.000310857
1.17036e-05
0.000299341
1.15184e-05
0.000288022
1.13205e-05
0.000276842
1.11817e-05
0.000265829
1.10157e-05
0.000254908
1.09236e-05
0.000244127
1.07844e-05
0.00023339
1.07396e-05
0.000222772
1.06209e-05
0.00021215
1.0625e-05
0.000201634
1.05193e-05
0.000191062
1.05745e-05
0.000180593
1.04718e-05
0.000170014
1.05805e-05
0.000159548
1.04674e-05
0.000148917
1.06324e-05
0.000138427
1.04913e-05
0.000127711
1.07157e-05
0.000117188
1.05236e-05
0.000106378
1.08096e-05
9.58403e-05
1.05369e-05
8.49533e-05
1.08863e-05
7.44557e-05
1.04968e-05
6.35465e-05
1.09088e-05
5.31792e-05
1.03674e-05
4.23544e-05
1.08247e-05
3.22262e-05
1.01278e-05
2.17066e-05
1.05201e-05
1.18066e-05
9.90278e-06
2.29359e-06
9.51449e-06
-8.34077e-06
1.06343e-05
-1.44044e-05
6.06407e-06
-2.77066e-05
1.33003e-05
-3.19334e-05
4.22368e-06
-3.65277e-05
4.58862e-06
-6.15187e-05
2.4995e-05
-3.42948e-05
-2.7229e-05
-9.89307e-05
6.4639e-05
-2.81205e-05
-7.08247e-05
-0.000115942
8.78279e-05
-8.66071e-05
-2.93093e-05
-2.43248e-05
-6.23588e-05
-0.00023975
0.000215484
6.30071e-08
-0.00023984
-0.000315574
0.00031563
-0.000122737
-0.000192822
-0.000208984
8.61789e-05
-0.000260327
5.13762e-05
-7.64395e-05
-0.000183942
-0.000337045
0.000260632
7.21407e-05
-0.000409219
-0.000848605
0.000920785
-0.000244456
-0.000604151
-0.000238542
-6.06238e-06
-0.000838281
0.000599832
-3.69071e-05
-0.00080139
7.64449e-05
-0.000113384
0.000261035
-0.000184576
-0.00054537
0.000806467
-0.000155341
-0.00038999
0.000385609
-0.00054101
-0.000235349
0.000620982
-6.93305e-05
-0.00016597
-0.000275898
0.0336641
0.0163238
-0.0372312
0.0277273
0.0132989
0.0221758
0.0092004
0.0179032
0.00604771
0.0148586
0.00401626
0.0126992
0.00278198
0.011113
0.00203198
0.00989657
0.00155579
0.00892986
0.0012358
0.00813992
0.00100979
0.00748003
0.000843649
0.0069189
0.000717521
0.00643477
0.000619212
0.00601196
0.000540912
0.00563889
0.000477411
0.00530678
0.000425108
0.00500887
0.00038145
0.00473982
0.000344582
0.0044954
0.000313127
0.00427218
0.000286047
0.00406736
0.000262543
0.00387861
0.000241994
0.00370402
0.00022391
0.00354195
0.000207901
0.00339103
0.000193653
0.00325007
0.000180909
0.00311806
0.000169459
0.00299412
0.00015913
0.0028775
0.000149777
0.00276752
0.000141279
0.00266358
0.000133534
0.00256518
0.000126454
0.00247185
0.000119965
0.00238317
0.000114004
0.00229878
0.000108516
0.00221834
0.000103453
0.00214156
9.87726e-05
0.00206816
9.44411e-05
0.0019979
9.04246e-05
0.00193055
8.66981e-05
0.0018659
8.32338e-05
0.00180377
8.00147e-05
0.00174398
7.70158e-05
0.00168637
7.42279e-05
0.0016308
7.16262e-05
0.00157711
6.92097e-05
0.00152519
6.69513e-05
0.0014749
6.48594e-05
0.00142614
6.29007e-05
0.0013788
6.10963e-05
0.00133278
5.94022e-05
0.00128797
5.78561e-05
0.0012443
5.63979e-05
0.00120166
5.50876e-05
0.00115999
5.38412e-05
0.00111918
5.27495e-05
0.00107919
5.16941e-05
0.0010399
5.08083e-05
0.0010013
4.99259e-05
0.000963247
4.92383e-05
0.000925754
4.85122e-05
0.000888663
4.80186e-05
0.000852022
4.74309e-05
0.000815637
4.71294e-05
0.000779605
4.66584e-05
0.000743685
4.65496e-05
0.00070804
4.61698e-05
0.000672365
4.62553e-05
0.000636908
4.59334e-05
0.00060128
4.62135e-05
0.000565848
4.59036e-05
0.000530107
4.63777e-05
0.000494582
4.60191e-05
0.000458617
4.66839e-05
0.000422947
4.61948e-05
0.000386715
4.7043e-05
0.000350937
4.63155e-05
0.000314486
4.73371e-05
0.000278754
4.62291e-05
0.000242247
4.7415e-05
0.000206852
4.57608e-05
0.000170593
4.70838e-05
0.000135941
4.47794e-05
0.000100545
4.59157e-05
6.67127e-05
4.37342e-05
3.42887e-05
4.19389e-05
-2.22022e-06
4.71433e-05
-2.18223e-05
2.56691e-05
-7.06828e-05
6.21605e-05
-7.71176e-05
1.06528e-05
-0.000108891
3.63643e-05
-0.000167591
8.36916e-05
-0.000107737
-8.70882e-05
-0.000291144
0.000248042
-8.04349e-05
-0.000281526
-0.000389239
0.000396617
-0.000226116
-0.000192448
-0.000113082
-0.000175379
-0.000661206
0.000763599
-7.15224e-06
-0.000893886
-0.000945874
0.00125435
-0.000355434
-0.00078325
-0.000752876
0.000483651
-0.000747832
4.63826e-05
-0.000323994
-0.000607763
-0.000929095
0.000865722
0.00018778
-0.00152608
-0.00245913
0.00356767
-0.000660655
-0.0024026
-0.00100111
0.000334499
-0.00244436
0.00204306
-2.09483e-05
-0.00322499
0.000247736
-0.000381848
0.000723426
-0.000660248
-0.00159458
0.00312444
-0.000310842
-0.00167375
0.00107245
-0.00192428
-0.000758031
0.00245147
-7.91656e-05
-0.000844861
-0.0011147
0.0414324
0.0160211
-0.0411296
0.0391405
0.0155908
0.0352098
0.0131311
0.0309237
0.0103337
0.0270101
0.00792994
0.0237225
0.00606953
0.0210496
0.00470496
0.0188821
0.00372326
0.0171055
0.00301242
0.0156272
0.00248814
0.0143782
0.00209266
0.0133082
0.00178749
0.0123804
0.00154702
0.0115673
0.00135403
0.0108482
0.00119662
0.0102069
0.00106642
0.00963093
0.000957397
0.00911043
0.000865097
0.00863737
0.0007862
0.00820526
0.000718173
0.00780875
0.000659061
0.00744342
0.000607335
0.00710555
0.000561783
0.00679202
0.000521437
0.00650016
0.000485513
0.0062277
0.000453373
0.00597266
0.000424491
0.00573335
0.000398434
0.00550828
0.000374837
0.00529616
0.000353397
0.00509582
0.000333855
0.00490627
0.000315993
0.0047266
0.000299623
0.004556
0.000284586
0.00439376
0.00027074
0.00423922
0.000257968
0.00409181
0.000246164
0.003951
0.000235238
0.0038163
0.000225108
0.00368727
0.000215709
0.00356351
0.000206972
0.00344466
0.000198851
0.00333037
0.000191288
0.00322033
0.000184252
0.00311426
0.00017769
0.00301187
0.000171588
0.00291292
0.00016589
0.00281717
0.000160602
0.00272441
0.00015566
0.00263441
0.000151091
0.002547
0.000146816
0.00246196
0.000142891
0.00237915
0.000139211
0.00229836
0.000135873
0.00221948
0.000132729
0.0021423
0.000129931
0.00206672
0.000127273
0.00199255
0.00012498
0.00191972
0.000122766
0.001848
0.000120955
0.00177737
0.000119146
0.0017076
0.000117802
0.00163867
0.000116359
0.00157034
0.00011547
0.00150266
0.000114347
0.0014353
0.000113908
0.00136843
0.000113051
0.00130163
0.000113056
0.00123518
0.000112397
0.00116856
0.000112836
0.00110219
0.000112279
0.00103543
0.000113137
0.000968905
0.000112551
0.00090179
0.000113802
0.000834974
0.000113012
0.000767399
0.000114619
0.000700329
0.000113386
0.00063236
0.000115306
0.000565284
0.000113304
0.000497189
0.00011551
0.000430626
0.000112323
0.000362912
0.000114797
0.000297627
0.000110064
0.00023132
0.000112223
0.000167566
0.000107488
0.000106263
0.000103242
3.84339e-05
0.000114974
9.0833e-07
6.31937e-05
-9.27695e-05
0.000155839
-0.000102244
2.01253e-05
-0.000172692
0.000106809
-0.000263077
0.000174073
-0.000179714
-0.000170454
-0.000486248
0.00055457
-0.000133792
-0.000633987
-0.000697354
0.000960178
-0.000364193
-0.000525606
-0.000238591
-0.000300974
-0.00108539
0.00161039
-3.26465e-06
-0.00197602
-0.00162366
0.00287474
-0.000598823
-0.00180809
-0.00142259
0.00130742
-0.00128475
-9.15652e-05
-0.000665595
-0.00122692
-0.00154108
0.0017412
0.000331366
-0.00339854
-0.00409903
0.00799808
-0.00103105
-0.0054706
-0.00207054
0.00137394
-0.00410284
0.00407534
0.000171323
-0.00749917
0.000414211
-0.000624717
0.00120232
-0.00144835
-0.00266077
0.00698753
-0.00032125
-0.00401326
0.00173431
-0.00397984
-0.00135634
0.00554212
5.84355e-05
-0.00225963
-0.00255875
0.0458939
0.0147222
-0.0445949
0.045975
0.0155097
0.0443943
0.0147118
0.0416694
0.0130586
0.0384255
0.0111739
0.035121
0.00937402
0.0320233
0.00780262
0.0292467
0.0064999
0.0268098
0.00544934
0.0246865
0.00461146
0.0228356
0.00394357
0.0212152
0.00340791
0.0197881
0.00297416
0.018523
0.00261908
0.0173945
0.00232517
0.0163816
0.0020793
0.0154675
0.0018716
0.014638
0.00169453
0.0138819
0.00154232
0.0131896
0.00141048
0.0125532
0.0012955
0.011966
0.00119457
0.0114223
0.00110547
0.0109174
0.00102638
0.0104471
0.00095583
0.0100078
0.000892621
0.00959655
0.000835749
0.00921059
0.000784384
0.0088476
0.000737828
0.00850549
0.000695494
0.00818245
0.000656883
0.00787686
0.000621572
0.00758727
0.000589195
0.0073124
0.00055944
0.00705109
0.000532034
0.00680229
0.000506745
0.00656507
0.000483366
0.00633857
0.00046172
0.00612201
0.000441648
0.00591469
0.000423016
0.00571594
0.000405696
0.00552519
0.000389591
0.00534187
0.00037459
0.00516548
0.000360629
0.00499555
0.000347607
0.00483164
0.00033549
0.00467334
0.000324178
0.00452027
0.000313666
0.00437208
0.000303848
0.00422841
0.000294753
0.00408897
0.000286254
0.00395343
0.000278427
0.00382154
0.000271107
0.00369298
0.00026443
0.00356754
0.000258173
0.00344492
0.000252552
0.00332494
0.000247261
0.00320729
0.000242626
0.00309184
0.000238219
0.00297829
0.000234518
0.00286651
0.000230925
0.0027562
0.000228122
0.00264729
0.00022527
0.00253943
0.000223338
0.00243264
0.000221146
0.00232649
0.000220065
0.0022211
0.000218442
0.00211597
0.000218193
0.00201136
0.000217019
0.00190663
0.000217571
0.00180223
0.000216679
0.00169738
0.00021799
0.00159278
0.000217152
0.00148743
0.000219155
0.00138239
0.00021806
0.00127634
0.000220664
0.00117085
0.000218883
0.00106417
0.000221984
0.000958556
0.000218915
0.000851614
0.000222451
0.000746641
0.000217294
0.000640166
0.00022127
0.000537001
0.00021323
0.000432471
0.000216752
0.000331626
0.000208334
0.000234213
0.000200656
0.000127942
0.000221246
6.2253e-05
0.000128884
-8.10054e-05
0.000299096
-9.64155e-05
3.55356e-05
-0.000216884
0.000227276
-0.000340013
0.000297196
-0.000241766
-0.000268703
-0.000677843
0.000990642
-0.000184505
-0.00112733
-0.00103032
0.00180599
-0.000501408
-0.00105452
-0.000400838
-0.000401506
-0.00151052
0.00272006
1.82932e-05
-0.00350485
-0.00234275
0.00523579
-0.000851819
-0.00329903
-0.00221606
0.00267166
-0.00188216
-0.000425387
-0.00111449
-0.00199458
-0.00217882
0.00280553
0.000514495
-0.00609186
-0.0057299
0.0142425
-0.00134007
-0.00986042
-0.00346272
0.00349661
-0.00578088
0.00639349
0.000521231
-0.0138013
0.000561291
-0.000664763
0.00171657
-0.0026036
-0.00371107
0.0124152
-0.000161064
-0.00756327
0.0023615
-0.00650237
-0.00200933
0.00991295
0.000368058
-0.00463702
-0.00464657
0.0493589
0.013528
-0.0481648
0.0503215
0.0145471
0.0503381
0.0146953
0.0493145
0.0140822
0.0474686
0.0130198
0.0450932
0.0117494
0.04246
0.0104359
0.0397753
0.00918462
0.0371738
0.00805081
0.03473
0.00705532
0.0324758
0.00619771
0.0304173
0.00546647
0.0285459
0.00484559
0.0268466
0.00431838
0.0253023
0.00386947
0.0238961
0.00348552
0.0226123
0.00315541
0.0214369
0.00286999
0.0203574
0.00262181
0.0193631
0.00240481
0.0184446
0.00221406
0.0175936
0.00204554
0.0168031
0.00189594
0.016067
0.00176253
0.0153798
0.00164305
0.0147367
0.00153564
0.0141338
0.00143871
0.0135672
0.00135095
0.0130338
0.00127123
0.0125307
0.0011986
0.0120553
0.00113224
0.0116054
0.00107147
0.0111789
0.00101567
0.010774
0.000964335
0.010389
0.000917004
0.0100225
0.000873287
0.00967296
0.000832839
0.0093393
0.000795362
0.00902034
0.000760586
0.00871506
0.000728284
0.00842249
0.00069824
0.00814178
0.000670285
0.00787212
0.000644237
0.00761276
0.000619976
0.00736301
0.000597342
0.00712223
0.000576261
0.00688982
0.000556578
0.00666521
0.000538268
0.00644788
0.000521167
0.00623733
0.000505301
0.0060331
0.000490482
0.00583473
0.000476801
0.00564181
0.000464023
0.00545392
0.000452322
0.00527071
0.000441386
0.00509176
0.000431502
0.00491678
0.000422242
0.00474536
0.000414049
0.00457726
0.000406328
0.00441205
0.000399733
0.00424955
0.000393433
0.00408931
0.000388368
0.00393121
0.000383371
0.00377477
0.000379782
0.00361997
0.00037596
0.00346623
0.000373807
0.00331366
0.000371017
0.0031616
0.00037026
0.00301032
0.000368313
0.002859
0.000368892
0.00270816
0.000367528
0.0025568
0.000369356
0.00240574
0.000368216
0.00225373
0.000371166
0.00210204
0.000369754
0.00194905
0.000373654
0.00179665
0.000371281
0.0016427
0.000375934
0.00148999
0.000371621
0.00133554
0.000376906
0.00118352
0.000369311
0.00102953
0.000375258
0.000879816
0.000362946
0.000728266
0.000368302
0.000581713
0.000354887
0.000439397
0.000342973
0.000286217
0.000374427
0.000184728
0.000230373
-2.02128e-05
0.000504037
-4.29955e-05
5.832e-05
-0.000228002
0.000412282
-0.000385604
0.000454793
-0.000283506
-0.000370803
-0.000855113
0.00156224
-0.000225034
-0.00175741
-0.00137816
0.00295912
-0.000633845
-0.00179885
-0.000599525
-0.000435873
-0.00192839
0.0040489
6.68477e-05
-0.00550009
-0.00308723
0.00838986
-0.00110723
-0.00527904
-0.00312984
0.00469429
-0.00254304
-0.00101224
-0.00168997
-0.00284765
-0.00284326
0.00395881
0.000741397
-0.00967653
-0.0072962
0.02228
-0.00155923
-0.0155974
-0.00517552
0.00711296
-0.00744085
0.0086588
0.00100578
-0.0222479
0.000679641
-0.000338629
0.00228461
-0.00420855
-0.00470278
0.0194025
0.000173163
-0.0124392
0.00294635
-0.00927555
-0.00268645
0.0155458
0.000879023
-0.0082025
-0.00739774
0.0528158
0.01263
-0.0519178
0.0538436
0.0135192
0.0545264
0.0140125
0.0545942
0.0140145
0.0539943
0.0136197
0.0527963
0.0129475
0.0511295
0.0121027
0.0491405
0.0111737
0.0469639
0.0102275
0.0447102
0.00930903
0.0424616
0.0084463
0.0402742
0.00765393
0.0381824
0.0069374
0.0362047
0.0062961
0.0343484
0.00572575
0.0326137
0.00522021
0.0309965
0.00477261
0.0294904
0.00437615
0.0280878
0.00402446
0.0267808
0.00371181
0.0255617
0.00343313
0.0244233
0.003184
0.0233586
0.00296061
0.0223614
0.00275969
0.0214261
0.00257844
0.0205472
0.00241445
0.0197203
0.00226565
0.018941
0.00213028
0.0182054
0.00200679
0.0175101
0.00189387
0.016852
0.00179037
0.0162281
0.0016953
0.015636
0.0016078
0.0150732
0.00152711
0.0145376
0.00145256
0.0140273
0.00138358
0.0135405
0.00131965
0.0130755
0.00126033
0.0126309
0.00120521
0.0122052
0.00115395
0.0117972
0.00110621
0.0114057
0.00106175
0.0110297
0.00102028
0.010668
0.000981616
0.0103198
0.000945517
0.0099842
0.000911858
0.00966035
0.000880415
0.00934749
0.000851127
0.00904488
0.000823763
0.00875184
0.000798337
0.00846774
0.000774586
0.00819192
0.000752616
0.00792384
0.000732101
0.00766291
0.000713261
0.00740862
0.000695672
0.00716042
0.000679705
0.00691788
0.000664784
0.00668045
0.000651487
0.00644776
0.000639022
0.00621925
0.000628246
0.00599463
0.000618055
0.00577332
0.000609687
0.00555511
0.00060159
0.00533936
0.00059554
0.00512598
0.000589348
0.00491424
0.00058555
0.00470421
0.000581053
0.00449504
0.000579438
0.004287
0.000576362
0.00407907
0.000576827
0.00387181
0.000574791
0.00366398
0.000577193
0.00345653
0.00057567
0.0032479
0.000579799
0.00303961
0.000578051
0.00282964
0.000583623
0.0026203
0.000580623
0.00240892
0.00058731
0.00219896
0.000581584
0.00198669
0.000589171
0.00177734
0.000578658
0.0015654
0.000587195
0.00135877
0.000569583
0.00114967
0.000577401
0.000947046
0.000557508
0.000749249
0.000540771
0.000539049
0.000584628
0.000391293
0.000378129
0.000120292
0.000775038
7.16076e-05
0.000107004
-0.00018829
0.000672179
-0.000382164
0.00064866
-0.000290742
-0.000462225
-0.00100304
0.00227453
-0.000243613
-0.00251683
-0.00172636
0.00444186
-0.000753666
-0.00277156
-0.000831402
-0.000357909
-0.00232931
0.00554679
0.000134649
-0.00796406
-0.0038356
0.0123601
-0.00135309
-0.00776157
-0.00415066
0.00749189
-0.00326565
-0.00189725
-0.00241173
-0.00370155
-0.00353817
0.00508523
0.00100555
-0.0142203
-0.00874094
0.0320265
-0.00164961
-0.0226887
-0.00717245
0.0126359
-0.00905516
0.0105415
0.00157258
-0.0328757
0.000762649
0.000471346
0.00292282
-0.00636869
-0.00558872
0.0279141
0.000693961
-0.0187219
0.00348995
-0.0120715
-0.00335261
0.0223883
0.00160061
-0.0131557
-0.0108232
0.0565344
0.0119432
-0.0558476
0.0573877
0.012666
0.0581838
0.0132164
0.0587097
0.0134886
0.0588435
0.0134859
0.0585394
0.0132516
0.0578067
0.0128353
0.0566935
0.0122869
0.0552682
0.0116528
0.0536063
0.010971
0.0517812
0.0102714
0.0498582
0.00957691
0.047892
0.00890365
0.0459255
0.00826263
0.0439907
0.00766057
0.04211
0.00710087
0.0402982
0.00658447
0.0385638
0.00611056
0.036911
0.00567724
0.0353409
0.0052819
0.0338525
0.00492161
0.0324431
0.00459335
0.0311096
0.00429418
0.029848
0.00402128
0.0286543
0.00377208
0.0275246
0.00354421
0.0264547
0.00333552
0.0254409
0.00314411
0.0244794
0.00296826
0.0235668
0.00280644
0.0226999
0.0026573
0.0218755
0.00251963
0.0210909
0.00239235
0.0203435
0.00227452
0.0196308
0.00216527
0.0189505
0.00206386
0.0183005
0.00196961
0.0176789
0.00188192
0.0170838
0.00180025
0.0165136
0.00172414
0.0159667
0.00165312
0.0154416
0.00158685
0.0149369
0.00152494
0.0144513
0.00146713
0.0139838
0.00141307
0.013533
0.00136259
0.0130981
0.00131538
0.0126778
0.00127134
0.0122714
0.00123016
0.0118779
0.00119183
0.0114965
0.001156
0.0111263
0.00112279
0.0107667
0.00109177
0.0104167
0.00106321
0.0100758
0.00103655
0.0097433
0.00101226
0.00941849
0.00098959
0.00910071
0.000969275
0.00878945
0.000950286
0.00848398
0.000933723
0.00818389
0.000918152
0.00788841
0.000905172
0.00759724
0.000892764
0.00730956
0.000883233
0.00702519
0.000873723
0.00674321
0.000867538
0.00646364
0.000860635
0.00618539
0.000857693
0.00590874
0.000853017
0.00563241
0.000853167
0.00535702
0.000850188
0.005081
0.000853213
0.00480548
0.000851192
0.00452851
0.000856779
0.00425188
0.000854677
0.00397311
0.000862395
0.00369498
0.000858753
0.00341419
0.000868103
0.00313496
0.000860814
0.00285268
0.000871444
0.00257381
0.000857531
0.00229152
0.000869488
0.0020156
0.000845497
0.00173638
0.000856627
0.00146528
0.000828608
0.00119929
0.00080676
0.000919906
0.00086401
0.000712963
0.000585074
0.000364285
0.00112372
0.000272998
0.000198289
-7.57897e-05
0.00102097
-0.000305526
0.000878391
-0.000244424
-0.000523326
-0.00110127
0.00313136
-0.000222898
-0.0033952
-0.00205485
0.00627382
-0.000848246
-0.00397818
-0.0010883
-0.000118072
-0.00270259
0.00716104
0.000224816
-0.0108915
-0.00456295
0.0171479
-0.00157222
-0.0107523
-0.00525288
0.0111726
-0.00404204
-0.00310812
-0.00329412
-0.00444945
-0.00427172
0.00606282
0.00128358
-0.0197756
-0.0100216
0.0433317
-0.00156403
-0.0311464
-0.00936536
0.0204373
-0.0106097
0.0117858
0.00212498
-0.0456104
0.000804891
0.00179144
0.00363993
-0.0092037
-0.00632521
0.0378792
0.00144625
-0.0264934
0.00401112
-0.0146363
-0.00397172
0.0303712
0.00252329
-0.0196508
-0.0149333
0.0605382
0.0113802
-0.0599752
0.0612224
0.0119818
0.0619367
0.0125021
0.0625584
0.0128669
0.0629898
0.0130545
0.063167
0.0130745
0.0630544
0.0129479
0.0626415
0.0126998
0.0619388
0.0123556
0.0609707
0.011939
0.0597719
0.0114703
0.0583819
0.0109669
0.0568421
0.0104435
0.0551925
0.00991224
0.05347
0.00938308
0.051707
0.00886388
0.0499308
0.00836067
0.0481635
0.00787788
0.0464223
0.00741847
0.04472
0.0069842
0.0430658
0.00657585
0.0414658
0.0061934
0.0399237
0.00583629
0.0384414
0.00550355
0.0370195
0.00519398
0.0356575
0.00490622
0.0343542
0.00463886
0.0331078
0.00439049
0.0319163
0.00415972
0.0307775
0.00394524
0.029689
0.00374579
0.0286484
0.00356022
0.0276533
0.00338744
0.0267013
0.00322646
0.0257902
0.00307636
0.0249178
0.00293631
0.0240818
0.00280554
0.0232803
0.00268338
0.0225114
0.00256916
0.0217732
0.00246234
0.0210639
0.00236236
0.020382
0.00226879
0.0197257
0.00218115
0.0190938
0.0020991
0.0184846
0.00202221
0.0178969
0.00195025
0.0173295
0.00188283
0.016781
0.0018198
0.0162504
0.00176077
0.0157365
0.00170571
0.0152383
0.00165418
0.0147548
0.00160631
0.014285
0.00156156
0.013828
0.00152025
0.0133829
0.00148167
0.0129487
0.0014464
0.0125248
0.00141349
0.0121102
0.00138387
0.0117043
0.00135621
0.0113061
0.00133192
0.0109151
0.00130916
0.0105303
0.00128997
0.0101513
0.00127177
0.00977708
0.00125749
0.00940732
0.00124349
0.00904087
0.001234
0.0086777
0.00122381
0.00831645
0.00121895
0.0079574
0.00121208
0.00759893
0.00121165
0.00724175
0.00120738
0.00688389
0.00121108
0.00652667
0.00120841
0.00616765
0.00121581
0.00580899
0.00121334
0.00544757
0.00122381
0.00508677
0.00121955
0.00472249
0.00123239
0.00435986
0.00122343
0.00399321
0.0012381
0.00363041
0.00122033
0.00326307
0.00123682
0.00290322
0.00120535
0.0025389
0.00122094
0.0021845
0.00118301
0.0018351
0.00115616
0.00147195
0.00122717
0.00119012
0.000866903
0.000749515
0.00156432
0.000601708
0.000346095
0.000157123
0.00146555
-0.000120995
0.0011565
-0.000120198
-0.000524126
-0.00112262
0.00413377
-0.000137596
-0.00438022
-0.00233662
0.00847284
-0.000897457
-0.00541737
-0.00135401
0.000338808
-0.00303544
0.00884242
0.00033858
-0.0142655
-0.00524239
0.0227288
-0.00174243
-0.0142523
-0.00639563
0.0158258
-0.00485385
-0.00464991
-0.00433879
-0.0049645
-0.00505502
0.00677903
0.00153106
-0.0263616
-0.0111221
0.0559848
-0.00125327
-0.0410152
-0.0116051
0.0307892
-0.0120946
0.0122753
0.00253135
-0.0602364
0.000800712
0.00352211
0.00442906
-0.012832
-0.00687614
0.0491843
0.00245643
-0.035826
0.00455396
-0.0167338
-0.0045068
0.0394319
0.00361574
-0.0277733
-0.019749
0.0648208
0.0108959
-0.0643365
0.065386
0.0114166
0.0659935
0.0118947
0.066578
0.0122825
0.0670769
0.0125556
0.0674417
0.0127096
0.067637
0.0127526
0.0676389
0.0126979
0.0674341
0.0125604
0.0670186
0.0123546
0.0663959
0.012093
0.0655767
0.0117861
0.0645768
0.0114434
0.063416
0.011073
0.0621172
0.010682
0.0607042
0.0102768
0.0592016
0.00986334
0.0576327
0.00944682
0.0560192
0.00903197
0.0543806
0.00862282
0.0527337
0.00822276
0.0510926
0.00783445
0.049469
0.00745993
0.0478719
0.00710063
0.0463084
0.00675746
0.0447838
0.00643088
0.0433016
0.00612102
0.0418644
0.00582771
0.0404735
0.00555059
0.0391296
0.00528913
0.0378327
0.00504271
0.0365822
0.00481067
0.0353774
0.00459228
0.034217
0.00438683
0.0330997
0.00419358
0.0320242
0.00401185
0.0309887
0.00384094
0.0299919
0.00368025
0.0290319
0.00352913
0.0281071
0.00338704
0.0272161
0.00325341
0.0263571
0.00312778
0.0255286
0.00300963
0.024729
0.0028986
0.023957
0.00279421
0.0232111
0.00269619
0.0224898
0.00260408
0.0217919
0.00251773
0.021116
0.00243664
0.0204609
0.00236082
0.0198253
0.00228971
0.0192082
0.00222348
0.0186083
0.00216146
0.0180245
0.00210404
0.0174558
0.00205035
0.0169011
0.00200112
0.0163594
0.00195514
0.0158297
0.00191359
0.0153111
0.0018748
0.0148025
0.00184053
0.0143032
0.00180848
0.013812
0.00178121
0.0133283
0.00175547
0.0128508
0.00173497
0.0123792
0.00171508
0.0119121
0.00170117
0.0114492
0.00168665
0.010989
0.00167917
0.0105317
0.00166938
0.0100753
0.00166806
0.00962061
0.00166208
0.00916515
0.00166654
0.0087105
0.00166307
0.00825359
0.00167273
0.00779702
0.00166991
0.00733689
0.00168394
0.0068773
0.00167914
0.00641312
0.00169656
0.00595062
0.00168593
0.00548277
0.00170594
0.00501915
0.00168395
0.0045495
0.00170647
0.0040884
0.00166645
0.00362127
0.00168808
0.00316596
0.00163832
0.00271499
0.00160712
0.00225058
0.00169158
0.00187496
0.00124253
0.00132594
0.00211334
0.00110279
0.000569249
0.000552518
0.00201582
0.000192781
0.00151623
0.000128884
-0.000460217
-0.00103094
0.00529358
4.42999e-05
-0.00545546
-0.00253613
0.0110533
-0.000871258
-0.00708226
-0.00160224
0.0010695
-0.00331076
0.0105509
0.000477835
-0.0180541
-0.00584661
0.0290533
-0.00183705
-0.0182619
-0.00752277
0.0215116
-0.00566828
-0.00650442
-0.00552516
-0.00510759
-0.00589712
0.00715097
0.00168241
-0.0339412
-0.0120612
0.0697284
-0.000671228
-0.0524052
-0.0136807
0.0437989
-0.0134815
0.012076
0.00265698
-0.0763749
0.000746221
0.0054329
0.00525965
-0.0173454
-0.00721756
0.0616615
0.00375796
-0.0468015
0.00519442
-0.0181702
-0.00491501
0.0495414
0.00482892
-0.0375173
-0.0253123
0.0693912
0.0104685
-0.0689639
0.0698745
0.0109333
0.0703948
0.0113744
0.0709164
0.0117609
0.0713996
0.0120724
0.0718106
0.0122986
0.0721235
0.0124398
0.0723187
0.0125027
0.0723823
0.0124969
0.0723041
0.0124328
0.0720773
0.0123198
0.071698
0.0121654
0.0711657
0.0119758
0.0704827
0.0117561
0.0696544
0.0115103
0.0686893
0.0112419
0.0675987
0.010954
0.0663958
0.0106497
0.0650956
0.0103321
0.0637141
0.0100044
0.0622671
0.00966975
0.0607703
0.00933123
0.0592385
0.00899179
0.057685
0.00865411
0.0561219
0.00832055
0.0545596
0.00799315
0.0530071
0.00767359
0.0514716
0.0073632
0.0499592
0.00706299
0.0484746
0.00677367
0.0470216
0.00649572
0.0456028
0.0062294
0.0442203
0.00597478
0.0428753
0.00573181
0.0415686
0.00550032
0.0403003
0.00528008
0.0390704
0.00507077
0.0378786
0.00487207
0.0367241
0.00468357
0.0356062
0.00450492
0.0345239
0.0043357
0.0334761
0.00417555
0.0324617
0.00402403
0.0314795
0.00388084
0.0305281
0.00374553
0.0296064
0.00361788
0.0287131
0.0034974
0.0278468
0.00338399
0.0270063
0.00327712
0.0261903
0.00317682
0.0253976
0.00308245
0.0246268
0.00299427
0.0238768
0.00291147
0.0231463
0.00283458
0.0224341
0.00276252
0.021739
0.00269622
0.0210599
0.0026342
0.0203956
0.00257793
0.0197451
0.00252536
0.0191069
0.00247869
0.0184804
0.00243504
0.0178639
0.00239765
0.017257
0.00236241
0.0166579
0.00233404
0.0160663
0.0023067
0.0154803
0.00228717
0.0148999
0.00226713
0.0143228
0.00225626
0.0137494
0.00224274
0.0131773
0.00224023
0.0126073
0.00223208
0.0120363
0.00223747
0.0114664
0.00223305
0.0108935
0.0022456
0.0103209
0.00224253
0.00974365
0.00226119
0.00916673
0.00225606
0.00858378
0.00227952
0.00800237
0.00226734
0.00741382
0.00229449
0.00682974
0.00226804
0.00623759
0.00229862
0.00565498
0.00224906
0.00506418
0.00227888
0.00448716
0.00221534
0.00391311
0.00218118
0.00332663
0.00227805
0.00283458
0.00173459
0.0021576
0.00279031
0.00183556
0.000891293
0.001158
0.00269337
0.000687057
0.00198716
0.000561749
-0.000334932
-0.000778106
0.00663342
0.000336667
-0.00657023
-0.00260776
0.0139977
-0.000726472
-0.00896357
-0.00179384
0.00213698
-0.00350298
0.01226
0.000648639
-0.0222057
-0.00634791
0.0360498
-0.00182517
-0.0227846
-0.00856385
0.0282503
-0.00643348
-0.00863481
-0.00680085
-0.00474021
-0.00679574
0.00714583
0.00165846
-0.0423954
-0.0128896
0.0842763
0.000205804
-0.0655006
-0.0153347
0.0593395
-0.014691
0.0114323
0.00242041
-0.0934863
0.000647678
0.00720567
0.00607382
-0.0227715
-0.00733709
0.0750724
0.00539212
-0.0595307
0.00604271
-0.0188207
-0.0051338
0.0607179
0.00611191
-0.048763
-0.0316873
0.0742688
0.0100857
-0.073886
0.0746929
0.0105092
0.0751473
0.01092
0.0756112
0.011297
0.0760588
0.0116248
0.0764655
0.0118919
0.0768116
0.0120938
0.0770823
0.0122319
0.0772673
0.0123118
0.0773593
0.0123408
0.0773525
0.0123266
0.0772417
0.0122762
0.0770226
0.0121949
0.0766912
0.0120874
0.0762446
0.011957
0.0756807
0.0118058
0.0749993
0.0116354
0.0742022
0.0114468
0.0732933
0.011241
0.0722786
0.0110191
0.0711661
0.0107823
0.0699652
0.0105322
0.0686865
0.0102704
0.0673415
0.00999911
0.0659418
0.00972031
0.0644987
0.00943622
0.0630233
0.00914897
0.0615259
0.00886062
0.0600158
0.00857305
0.0585015
0.00828798
0.0569903
0.00800688
0.0554887
0.00773104
0.0540019
0.0074615
0.0525346
0.00719912
0.0510904
0.00694455
0.0496721
0.00669829
0.0482822
0.0064607
0.0469222
0.00623201
0.0455934
0.00601233
0.0442966
0.00580172
0.0430322
0.00560012
0.0418002
0.0054075
0.0406005
0.00522365
0.0394328
0.00504852
0.0382966
0.00488179
0.037191
0.00472343
0.0361154
0.00457303
0.0350687
0.00443065
0.0340501
0.00429574
0.0330584
0.00416851
0.0320925
0.00404826
0.0311514
0.00393541
0.0302339
0.00382902
0.0293386
0.00372983
0.0284645
0.00363657
0.0276103
0.00355044
0.0267749
0.00346966
0.0259567
0.00339608
0.0251549
0.00332718
0.0243678
0.00326577
0.0235946
0.00320825
0.0228336
0.0031587
0.022084
0.00311204
0.0213439
0.00307415
0.0206128
0.00303777
0.0198886
0.0030114
0.0191711
0.00298464
0.0184577
0.00296966
0.0177489
0.0029516
0.0170414
0.0029477
0.0163365
0.00293698
0.0156303
0.00294364
0.0149252
0.00293823
0.0142162
0.00295458
0.0135072
0.00295151
0.0127921
0.00297625
0.012077
0.00297122
0.0113538
0.00300269
0.0106318
0.00298933
0.00990026
0.00302604
0.00917316
0.00299514
0.00843523
0.00303655
0.00770761
0.00297668
0.00696884
0.00301765
0.00624577
0.00293841
0.00552329
0.00290366
0.00479011
0.00301124
0.00415473
0.00236997
0.00332654
0.0036185
0.00287696
0.00134086
0.0020486
0.00352173
0.00144454
0.00259121
0.00122403
-0.000114378
-0.000298594
0.00815603
0.00082216
-0.00769098
-0.00249347
0.0173133
-0.000397166
-0.0110599
-0.00187315
0.00361303
-0.00357243
0.0139592
0.000866937
-0.0266451
-0.00671548
0.0436322
-0.00167036
-0.0278298
-0.00943642
0.0360164
-0.00707426
-0.010997
-0.00807406
-0.00374033
-0.00772331
0.00679506
0.00138362
-0.0515023
-0.0136696
0.0993295
0.00133121
-0.0805015
-0.0162919
0.0769628