/*--------------------------------*- C++ -*----------------------------------*\
| =========                 |                                                 |
| \\      /  F ield         | OpenFOAM: The Open Source CFD Toolbox           |
|  \\    /   O peration     | Version:  2412                                  |
|   \\  /    A nd           | Website:  www.openfoam.com                      |
|    \\/     M anipulation  |                                                 |
\*---------------------------------------------------------------------------*/
FoamFile
{
    version     2.0;
    format      ascii;
    arch        "LSB;label=32;scalar=64";
    class       volVectorField;
    location    "1.77";
    object      U_0;
}
// * * * * * * * * * * * * * * * * * * * * * * * * * * * * * * * * * * * * * //

dimensions      [0 1 -1 0 0 0 0];

internalField   nonuniform List<vector> 
12600
(
(18.7147 1.23339e-21 2.09173)
(11.606 1.60727e-20 0.449949)
(7.34377 1.88984e-20 -0.477716)
(5.08541 0 -0.708703)
(3.97402 1.70845e-20 -0.681799)
(3.33407 1.59114e-20 -0.607179)
(2.89326 0 -0.539567)
(2.56231 0 -0.484183)
(2.30286 -4.78399e-20 -0.438767)
(2.09284 0 -0.401055)
(1.91853 2.00679e-20 -0.369203)
(1.77104 1.83761e-20 -0.341886)
(1.64424 -1.68352e-20 -0.318158)
(1.53382 0 -0.297322)
(1.43658 -1.41115e-20 -0.278856)
(1.35015 0 -0.262356)
(1.2727 4.74215e-20 -0.247509)
(1.2028 0 -0.234064)
(1.13933 -1.98484e-20 -0.221821)
(1.08137 -1.81534e-20 -0.210615)
(1.02818 1.65719e-20 -0.200313)
(0.979152 5.4931e-24 -0.190803)
(0.933784 0 -0.18199)
(0.891647 -2.50006e-20 -0.173797)
(0.852383 0 -0.166155)
(0.815685 0 -0.159007)
(0.781289 -1.85333e-20 -0.152304)
(0.748969 0 -0.146002)
(0.718526 3.99994e-24 -0.140064)
(0.689787 1.33893e-20 -0.134457)
(0.662602 1.19189e-20 -0.129152)
(0.636836 1.05567e-20 -0.124122)
(0.61237 -9.29517e-21 -0.119346)
(0.589099 -1.62545e-20 -0.114803)
(0.566928 -1.4093e-20 -0.110475)
(0.545771 1.20832e-20 -0.106345)
(0.525554 0 -0.102398)
(0.506207 -8.53927e-21 -0.0986216)
(0.487667 0 -0.095003)
(0.469876 5.51133e-21 -0.0915312)
(0.452785 0 -0.0881962)
(0.436343 1.74932e-23 -0.0849886)
(0.420508 0 -0.0819001)
(0.405239 1.59278e-23 -0.0789224)
(0.390501 -3.77413e-22 -0.0760489)
(0.376256 2.10438e-21 -0.0732721)
(0.362476 -3.70905e-21 -0.0705868)
(0.349128 0 -0.067986)
(0.336187 0 -0.0654655)
(0.323623 -7.6707e-21 -0.063019)
(0.31142 -1.75025e-20 -0.0606433)
(0.299543 -1.94496e-20 -0.058332)
(0.287985 1.94124e-23 -0.0560834)
(0.276711 -2.27426e-20 -0.0538905)
(0.265719 0 -0.0517533)
(0.254971 2.53796e-20 -0.0496641)
(0.244476 2.64588e-20 -0.0476246)
(0.234187 2.73824e-20 -0.0456258)
(0.224127 0 -0.0436719)
(0.214237 0 -0.0417516)
(0.204555 0 -0.0398725)
(0.19501 -5.98654e-20 -0.0380201)
(0.18566 0 -0.0362062)
(0.176411 0 -0.0344124)
(0.16735 1.23086e-19 -0.0326555)
(0.158356 0 -0.0309119)
(0.14955 0 -0.0292052)
(0.140776 0 -0.027505)
(0.132198 -1.2323e-19 -0.025843)
(0.123617 1.22621e-19 -0.0241809)
(0.115249 1.21822e-19 -0.0225602)
(0.106845 2.31871e-23 -0.0209329)
(0.098681 -1.19603e-19 -0.0193519)
(0.0904523 0 -0.0177587)
(0.0824986 1.16686e-19 -0.0162185)
(0.0744591 0 -0.014662)
(0.0667363 0 -0.0131664)
(0.0589244 0 -0.0116538)
(0.0514639 2.80721e-23 -0.0102085)
(0.0439547 2.13871e-19 -0.00875395)
(0.0367852 2.09373e-19 -0.00736437)
(0.0297133 -2.04528e-19 -0.00599364)
(0.022831 -1.99677e-19 -0.00465894)
(0.0164134 0 -0.00341346)
(0.00981512 0 -0.00213325)
(0.0040956 3.68115e-19 -0.00102086)
(-0.00135725 -7.14717e-19 3.74947e-05)
(-0.00895067 6.91881e-19 0.00149783)
(-0.00620601 3.36087e-19 0.00100992)
(-0.0282764 0 0.00519693)
(-0.00216881 -6.33514e-19 0.00028131)
(-0.0447557 2.94833e-19 0.00842285)
(-0.012456 -2.96451e-19 0.00204162)
(-0.0305256 5.4605e-19 0.00598901)
(-0.0681304 0 0.0123636)
(0.047294 0 -0.00843543)
(-0.188705 0 0.0356978)
(0.134607 0 -0.025602)
(-0.181123 0 0.0350915)
(0.000875993 0 -0.0017992)
(-0.009296 -3.71467e-19 0.00336642)
(-0.260167 -8.18889e-19 0.0481446)
(0.172819 -8.41102e-19 -0.0322904)
(-0.404474 0 0.077198)
(0.243171 0 -0.0464032)
(-0.352312 0 0.0678572)
(0.146735 -8.10029e-19 -0.0299133)
(-0.122756 -9.16e-19 0.0263205)
(-0.494839 6.69479e-19 0.0907949)
(0.337774 0 -0.0636854)
(-0.577522 -8.64265e-19 0.11162)
(0.0419266 0 -0.0111683)
(-0.084918 -9.89582e-19 0.0163271)
(0.161039 1.1228e-18 -0.030885)
(-0.0141037 -8.35986e-19 0.00463925)
(-0.332204 -9.21652e-19 0.0616325)
(0.255585 9.5971e-19 -0.0491863)
(-0.0413975 1.57262e-22 0.00969773)
(-0.0933704 7.57635e-19 0.0171787)
(0.0575987 0 -0.011755)
(29.1164 -1.24511e-21 4.02179)
(25.0777 0 1.85514)
(20.2214 -1.91273e-20 -0.214792)
(16.0608 0 -1.21186)
(13.1059 -1.73116e-20 -1.50682)
(11.0662 -3.03993e-20 -1.51773)
(9.59603 -1.40725e-20 -1.44017)
(8.48548 0 -1.34269)
(7.6137 3.55708e-22 -1.24744)
(6.90798 -2.18856e-20 -1.16048)
(6.32277 2.00961e-20 -1.08249)
(5.82807 1.84505e-20 -1.01275)
(5.40332 -1.69375e-20 -0.950251)
(5.03385 1.55452e-20 -0.894025)
(4.70895 2.85825e-20 -0.843212)
(4.42054 0 -0.797077)
(4.16245 -6.47983e-23 -0.755005)
(3.92984 2.19639e-20 -0.716473)
(3.7189 2.01372e-20 -0.681043)
(3.52653 0 -0.648345)
(3.35023 0 -0.618064)
(3.18795 1.53183e-20 -0.58993)
(3.03796 0 -0.563715)
(2.89883 1.26735e-20 -0.539219)
(2.76934 -2.29841e-20 -0.516271)
(2.64846 0 -0.494722)
(2.5353 1.87843e-20 -0.474441)
(2.42909 0 -0.455312)
(2.32916 -1.51699e-20 -0.437236)
(2.23493 -2.71252e-20 -0.420122)
(2.14589 -2.41421e-20 -0.40389)
(2.06159 -1.06853e-20 -0.38847)
(1.98163 9.4058e-21 -0.373798)
(1.90565 3.29041e-20 -0.359816)
(1.83334 2.85224e-20 -0.346474)
(1.76441 0 -0.333723)
(1.69861 0 -0.321522)
(1.6357 -1.72409e-23 -0.309833)
(1.57547 0 -0.29862)
(1.51774 -5.56391e-21 -0.28785)
(1.46232 0 -0.277495)
(1.40907 -5.93467e-21 -0.267527)
(1.35782 0 -0.257922)
(1.30846 -1.55404e-21 -0.248655)
(1.26085 0 -0.239706)
(1.21488 -2.11897e-21 -0.231053)
(1.17046 0 -0.222681)
(1.12746 0 -0.214569)
(1.08581 6.47774e-21 -0.206704)
(1.04541 0 -0.199067)
(1.00621 0 -0.191649)
(0.968092 0 -0.184429)
(0.931028 2.12459e-20 -0.177404)
(0.894908 4.55703e-20 -0.170551)
(0.859722 0 -0.163872)
(0.825348 0 -0.157341)
(0.791806 -2.64343e-20 -0.150966)
(0.758955 -2.73811e-20 -0.144715)
(0.726853 0 -0.138607)
(0.695325 0 -0.132601)
(0.66448 0 -0.126725)
(0.634097 0 -0.120931)
(0.604348 -6.0327e-20 -0.11526)
(0.57495 6.08342e-20 -0.109648)
(0.546157 -1.22385e-19 -0.104154)
(0.517606 0 -0.0986992)
(0.489652 0 -0.0933631)
(0.46183 0 -0.0880427)
(0.434621 4.70427e-23 -0.0828469)
(0.407437 -1.21448e-19 -0.0776446)
(0.38091 -1.20547e-19 -0.0725777)
(0.354304 2.38789e-19 -0.0674827)
(0.328429 3.55196e-23 -0.0625402)
(0.302384 -1.16602e-19 -0.0575494)
(0.277171 -1.15026e-19 -0.0527341)
(0.251721 0 -0.0478547)
(0.227224 0 -0.0431779)
(0.202477 0 -0.038431)
(0.178785 2.14309e-19 -0.0339108)
(0.15496 0 -0.0293388)
(0.132158 0 -0.0249925)
(0.109653 2.00175e-19 -0.0206722)
(0.0877385 1.95219e-19 -0.0164987)
(0.0672019 0 -0.0125581)
(0.0461582 0 -0.00854719)
(0.0278028 0 -0.00504611)
(0.0099634 6.95668e-19 -0.00159873)
(-0.013201 -4.55962e-23 0.00270702)
(-0.00820748 3.26405e-19 0.00194382)
(-0.0719395 -3.11771e-19 0.0139015)
(0.000640072 6.1397e-19 3.43092e-05)
(-0.124656 2.85385e-19 0.0244802)
(-0.0279171 5.73348e-19 0.0045301)
(-0.090627 0 0.0189993)
(-0.185563 0 0.033501)
(0.124698 0 -0.0213426)
(-0.539458 0 0.102606)
(0.390475 5.16736e-19 -0.0760246)
(-0.546793 0 0.109127)
(0.0441712 0 -0.0139924)
(-0.0613069 -3.56483e-19 0.018771)
(-0.71979 3.92146e-19 0.133934)
(0.471235 1.61028e-18 -0.088488)
(-1.19084 -5.75236e-19 0.229252)
(0.713088 0 -0.139484)
(-1.07073 0 0.209178)
(0.490197 0 -0.100944)
(-0.413749 4.36351e-19 0.0942354)
(-1.31875 -6.37146e-19 0.243609)
(0.915742 0 -0.175884)
(-1.75908 1.64225e-18 0.344908)
(0.237509 1.21422e-18 -0.0567337)
(-0.273536 1.87739e-18 0.0511408)
(0.482866 0 -0.0946257)
(-0.0785867 0 0.0248416)
(-0.892918 -8.71444e-19 0.166927)
(0.758761 0 -0.150859)
(-0.18425 -7.23209e-19 0.0420202)
(-0.233882 -7.15349e-19 0.0431779)
(0.202806 0 -0.0416503)
(31.8598 0 3.89248)
(31.0462 0 2.81473)
(28.5188 -1.29598e-20 1.02069)
(25.1797 0 -0.384422)
(21.9325 0 -1.22708)
(19.1641 1.51111e-20 -1.65106)
(16.9098 1.33268e-20 -1.81896)
(15.0879 0 -1.85041)
(13.6029 4.20247e-22 -1.81668)
(12.3747 2.07337e-20 -1.75422)
(11.343 -3.78687e-20 -1.6805)
(10.4635 -1.74818e-20 -1.60385)
(9.70418 1.14549e-22 -1.52826)
(9.04114 -1.47303e-20 -1.45557)
(8.45653 -1.35156e-20 -1.38657)
(7.93665 1.23459e-20 -1.32153)
(7.47085 -2.27237e-20 -1.26042)
(7.05073 -2.08139e-20 -1.20309)
(6.66957 0 -1.14932)
(6.32191 0 -1.09887)
(6.0033 1.58775e-20 -1.05148)
(5.71006 1.44838e-20 -1.00692)
(5.43911 0 -0.964958)
(5.18787 0 -0.925398)
(4.95414 2.17788e-20 -0.888043)
(4.73605 0 -0.852719)
(4.532 -3.55914e-20 -0.819268)
(4.34059 1.6021e-20 -0.787545)
(4.1606 0 -0.757419)
(3.991 1.28522e-20 -0.728772)
(3.83083 1.14391e-20 -0.701496)
(3.67929 0 -0.67549)
(3.53565 -8.92306e-21 -0.650667)
(3.39925 -1.55919e-20 -0.626944)
(3.26953 1.19924e-23 -0.604245)
(3.14595 0 -0.582502)
(3.02806 0 -0.561652)
(2.91544 8.18598e-21 -0.541637)
(2.80769 0 -0.522403)
(2.70447 0 -0.5039)
(2.60547 0 -0.486084)
(2.51039 0 -0.46891)
(2.41898 0 -0.452341)
(2.33097 0 -0.436338)
(2.24616 0 -0.42087)
(2.16433 1.9626e-21 -0.405901)
(2.08529 -3.47886e-21 -0.391405)
(2.00885 0 -0.377348)
(1.93487 -6.12856e-21 -0.363713)
(1.86315 0 -0.350463)
(1.7936 0 -0.337588)
(1.72603 1.83834e-20 -0.325052)
(1.66037 0 -0.312849)
(1.59643 -2.15302e-20 -0.300941)
(1.53418 2.28106e-20 -0.289332)
(1.47342 0 -0.277977)
(1.41416 2.49862e-20 -0.266891)
(1.35616 0 -0.25602)
(1.29952 0 -0.245395)
(1.24393 0 -0.234946)
(1.18957 5.54586e-20 -0.224725)
(1.13607 5.62938e-20 -0.214643)
(1.0837 2.83465e-23 -0.204775)
(1.03199 -1.14863e-19 -0.195009)
(0.981354 2.48366e-23 -0.185451)
(0.931185 0 -0.175956)
(0.88207 0 -0.166672)
(0.833227 -1.15619e-19 -0.157411)
(0.785455 3.78697e-23 -0.14837)
(0.737765 0 -0.139313)
(0.691212 0 -0.130496)
(0.64456 -1.12574e-19 -0.121623)
(0.599159 2.85503e-23 -0.11302)
(0.5535 2.65754e-23 -0.104325)
(0.509254 0 -0.0959415)
(0.464631 0 -0.0874344)
(0.421617 -2.09701e-19 -0.0792881)
(0.378201 2.05775e-19 -0.0710032)
(0.33656 0 -0.0631251)
(0.294709 0 -0.0551316)
(0.254584 0 -0.047553)
(0.214955 0 -0.0399775)
(0.176351 0 -0.0327005)
(0.140029 0 -0.025759)
(0.10291 0 -0.0187535)
(0.0703543 0 -0.0126061)
(0.0383162 -6.54033e-19 -0.00636769)
(-0.00126272 -3.16168e-19 0.000628803)
(0.00269008 -3.06779e-19 0.000811736)
(-0.101006 2.92965e-19 0.0193494)
(0.0125318 -5.76792e-19 -0.00165421)
(-0.193708 -2.6806e-19 0.0385003)
(-0.0329849 -2.69202e-19 0.00416439)
(-0.148369 0 0.0333386)
(-0.285023 0 0.0479286)
(0.187559 0 -0.0270253)
(-0.865579 0 0.160543)
(0.633192 -4.84784e-19 -0.123362)
(-0.915161 0 0.187185)
(0.126582 0 -0.0404771)
(-0.144013 3.34248e-19 0.0490824)
(-1.12123 0 0.200101)
(0.722617 -7.54822e-19 -0.128982)
(-1.9564 5.39062e-19 0.373904)
(1.16451 0 -0.229578)
(-1.80624 0 0.355581)
(0.883266 0 -0.189326)
(-0.744472 4.09106e-19 0.186937)
(-1.98016 0 0.34589)
(1.39076 -6.17191e-19 -0.259302)
(-2.95637 -8.17962e-23 0.585564)
(0.544888 -1.13638e-18 -0.140797)
(-0.489391 -1.75683e-18 0.0903797)
(0.809726 0 -0.160511)
(-0.171124 7.4131e-19 0.0624515)
(-1.35384 8.15131e-19 0.241333)
(1.2495 8.4904e-19 -0.25374)
(-0.376292 0 0.0934437)
(-0.32698 6.68876e-19 0.0545128)
(0.3774 0 -0.081214)
(32.3827 0 2.9507)
(32.9484 0 2.76447)
(32.3951 1.22513e-20 1.72027)
(30.753 0 0.519547)
(28.5017 -1.22975e-20 -0.485023)
(26.0878 2.50158e-20 -1.20743)
(23.7708 0 -1.67009)
(21.6667 -2.1841e-20 -1.93396)
(19.8089 2.09431e-20 -2.063)
(18.1878 1.89423e-20 -2.10722)
(16.7759 1.78048e-20 -2.10039)
(15.5421 -1.61854e-20 -2.06378)
(14.4579 1.50695e-20 -2.01033)
(13.4991 -2.74774e-20 -1.94784)
(12.6455 0 -1.88105)
(11.881 -2.329e-20 -1.81283)
(11.1923 0 -1.74491)
(10.5684 0 -1.67835)
(10.0005 0 -1.61375)
(9.48118 1.63955e-20 -1.55146)
(9.00431 -3.42887e-23 -1.49164)
(8.56472 -2.6105e-23 -1.43434)
(8.15807 1.24576e-20 -1.37954)
(7.78066 0 -1.32719)
(7.42932 0 -1.2772)
(7.10135 0 -1.22945)
(6.79439 3.36465e-20 -1.18386)
(6.50639 -6.12854e-24 -1.14029)
(6.23559 0 -1.09864)
(5.9804 0 -1.05881)
(5.73945 0 -1.02069)
(5.51153 0 -0.984169)
(5.29553 1.68782e-20 -0.949169)
(5.0905 0 -0.915594)
(4.89556 -1.27902e-20 -0.883363)
(4.70994 0 -0.852397)
(4.53293 0 -0.822622)
(4.3639 -7.76172e-21 -0.793968)
(4.20227 0 -0.766372)
(4.04751 0 -0.739773)
(3.89915 3.80497e-21 -0.714113)
(3.75675 -5.38066e-21 -0.689339)
(3.6199 0 -0.665402)
(3.48824 -1.45566e-21 -0.642251)
(3.36143 0 -0.619847)
(3.23914 -3.68877e-21 -0.598141)
(3.1211 1.88164e-23 -0.577102)
(3.00701 0 -0.556682)
(2.89666 0 -0.536857)
(2.78975 6.82758e-21 -0.517581)
(2.68614 1.559e-20 -0.498838)
(2.58554 -3.46882e-20 -0.480577)
(2.48784 0 -0.462794)
(2.39277 -2.02762e-20 -0.445432)
(2.30026 -2.15323e-20 -0.428501)
(2.21002 -2.25913e-20 -0.411934)
(2.12207 -2.35391e-20 -0.395756)
(2.03605 0 -0.379887)
(1.95208 0 -0.364373)
(1.86973 -5.1301e-20 -0.349116)
(1.78924 -1.04593e-19 -0.334187)
(1.71008 -5.30946e-20 -0.31946)
(1.63262 3.0412e-23 -0.305045)
(1.55619 5.41405e-20 -0.290777)
(1.48137 5.44314e-20 -0.276812)
(1.4073 0 -0.262939)
(1.33478 0 -0.249372)
(1.26273 1.08957e-19 -0.235838)
(1.19225 2.1701e-19 -0.222624)
(1.12194 0 -0.209387)
(1.05329 1.06995e-19 -0.196497)
(0.984539 1.0596e-19 -0.183525)
(0.917598 1.04822e-19 -0.170945)
(0.850325 2.06897e-19 -0.158228)
(0.785075 0 -0.145963)
(0.719319 0 -0.133513)
(0.655851 1.97333e-19 -0.121588)
(0.591832 -3.87169e-19 -0.109452)
(0.530331 -1.8975e-19 -0.0979106)
(0.468539 0 -0.0861849)
(0.409204 0 -0.0750744)
(0.350551 0 -0.063933)
(0.293401 0 -0.0532634)
(0.239412 0 -0.043011)
(0.18439 0 -0.0327279)
(0.135845 -3.16816e-19 -0.0236575)
(0.0875942 3.76306e-23 -0.0142624)
(0.0305403 2.96867e-19 -0.00460699)
(0.0299027 0 -0.00249127)
(-0.112061 2.74969e-19 0.0216474)
(0.0361331 2.70705e-19 -0.00476494)
(-0.24851 0 0.0503822)
(-0.0256844 -2.52557e-19 0.00137684)
(-0.200912 -4.6468e-19 0.0483611)
(-0.364129 0 0.0570775)
(0.237047 0 -0.0272028)
(-1.16147 0 0.211247)
(0.858348 -4.54666e-19 -0.167406)
(-1.27918 0 0.267164)
(0.245591 0 -0.0776048)
(-0.25427 3.13462e-19 0.0911325)
(-1.4565 -3.43725e-19 0.250747)
(0.921484 0 -0.156102)
(-2.6873 0 0.510464)
(1.58543 0 -0.315389)
(-2.54964 0 0.504743)
(1.31902 0 -0.290935)
(-1.10565 1.72056e-22 0.298138)
(-2.4621 0 0.408691)
(1.7485 5.77547e-19 -0.316088)
(-4.13751 -7.19049e-19 0.82488)
(0.956002 0 -0.254646)
(-0.73628 -5.46828e-23 0.13612)
(1.14203 0 -0.229293)
(-0.284298 1.70982e-22 0.111887)
(-1.70579 0 0.291456)
(1.7142 -7.93825e-19 -0.354361)
(-0.604535 0 0.156551)
(-0.369112 6.24941e-19 0.0531284)
(0.578126 0 -0.127899)
(32.486 0 2.09837)
(33.2436 0 2.22407)
(33.5901 0 1.7491)
(33.2258 0 0.955336)
(32.2036 1.16079e-20 0.113884)
(30.7307 -8.99554e-22 -0.634874)
(29.0125 0 -1.23557)
(27.2078 2.06149e-20 -1.67909)
(25.4261 0 -1.9826)
(23.7333 -3.52587e-20 -2.17435)
(22.1617 0 -2.28291)
(20.7214 1.52802e-20 -2.33227)
(19.4098 0 -2.34072)
(18.2183 2.5943e-20 -2.32149)
(17.1357 -1.18195e-20 -2.28389)
(16.1504 2.18446e-20 -2.23435)
(15.2515 -2.00027e-20 -2.17732)
(14.4292 -1.83652e-20 -2.11584)
(13.6746 0 -2.05203)
(12.9801 -1.54819e-20 -1.98733)
(12.3389 -1.41487e-20 -1.92274)
(11.7453 -2.5787e-20 -1.85894)
(11.1943 -1.17634e-20 -1.79639)
(10.6813 0 -1.73537)
(10.2027 0 -1.67609)
(9.75499 0 -1.61865)
(9.33529 -1.588e-20 -1.56309)
(8.941 -1.43003e-20 -1.50942)
(8.56983 0 -1.45764)
(8.21978 0 -1.4077)
(7.88904 1.02146e-20 -1.35956)
(7.576 0 -1.31315)
(7.27924 1.2979e-24 -1.26841)
(6.99746 -1.39402e-20 -1.22528)
(6.72952 1.20896e-20 -1.18369)
(6.47436 0 -1.14357)
(6.23104 0 -1.10485)
(5.99871 7.32567e-21 -1.06746)
(5.77658 0 -1.03135)
(5.56394 0 -0.996454)
(5.36014 -3.59061e-21 -0.962708)
(5.16457 5.07722e-21 -0.930055)
(4.9767 0 -0.898443)
(4.79601 1.37339e-21 -0.867816)
(4.62205 0 -0.838129)
(4.45435 1.73063e-21 -0.809325)
(4.29256 3.0823e-21 -0.78137)
(4.13626 0 -0.754205)
(3.98514 5.41217e-21 -0.727805)
(3.83882 -6.43879e-21 -0.70211)
(3.69708 -2.93723e-20 -0.677104)
(3.55954 1.63398e-20 -0.652722)
(3.42603 -1.77808e-20 -0.628963)
(3.29619 2.53424e-23 -0.605753)
(3.16992 0 -0.583105)
(3.04681 2.12932e-20 -0.560934)
(2.92689 2.21843e-20 -0.539275)
(2.80968 -2.29339e-20 -0.518022)
(2.69532 2.35941e-20 -0.497238)
(2.58324 4.83329e-20 -0.476791)
(2.47373 4.9249e-20 -0.45678)
(2.3661 -4.99493e-20 -0.437035)
(2.26083 5.05496e-20 -0.417705)
(2.15702 0 -0.398568)
(2.05544 0 -0.379836)
(1.95492 5.13312e-20 -0.361224)
(1.85655 0 -0.343019)
(1.75885 0 -0.324857)
(1.66329 -1.02095e-19 -0.307122)
(1.56803 0 -0.289352)
(1.47499 -1.00666e-19 -0.272046)
(1.38189 -1.99324e-19 -0.254626)
(1.29118 0 -0.237729)
(1.20008 -9.72742e-20 -0.220642)
(1.11165 0 -0.204159)
(1.02258 0 -0.18742)
(0.936516 -1.85411e-19 -0.171382)
(0.849746 1.81928e-19 -0.155048)
(0.766263 3.83561e-23 -0.139513)
(0.682398 0 -0.123705)
(0.60175 0 -0.10874)
(0.521953 0 -0.0936792)
(0.444179 -1.6208e-19 -0.079305)
(0.370412 1.57672e-19 -0.065385)
(0.295432 0 -0.0515161)
(0.228867 5.94754e-19 -0.0392061)
(0.162181 2.88261e-19 -0.0262259)
(0.0863192 -5.57129e-19 -0.0139203)
(0.0773548 -2.70222e-19 -0.0087297)
(-0.10137 -5.15862e-19 0.0197162)
(0.0745852 0 -0.00982639)
(-0.285303 0 0.0592075)
(-0.00380016 2.36813e-19 -0.00437968)
(-0.244809 4.35644e-19 0.0634982)
(-0.420726 -4.27438e-19 0.0598324)
(0.275802 0 -0.0213975)
(-1.42226 0 0.25185)
(1.06265 4.25994e-19 -0.206647)
(-1.63119 2.87881e-19 0.347158)
(0.395988 0 -0.12577)
(-0.386656 -2.93564e-19 0.145413)
(-1.7202 3.21862e-19 0.281728)
(1.06627 0 -0.166199)
(-3.36938 0 0.633594)
(1.96372 0 -0.393497)
(-3.29038 0 0.65372)
(1.78555 0 -0.405075)
(-1.48649 -3.58446e-19 0.426952)
(-2.75655 0 0.422696)
(1.98594 0 -0.338357)
(-5.26763 0 1.0539)
(1.44605 9.92459e-19 -0.398037)
(-1.01527 7.68404e-19 0.189433)
(1.48017 0 -0.301206)
(-0.409981 -6.48277e-19 0.173122)
(-1.94455 0 0.310441)
(2.14072 -7.42197e-19 -0.449096)
(-0.852178 0 0.230453)
(-0.36144 -5.84031e-19 0.0359841)
(0.799486 0 -0.181743)
(32.5586 -4.97617e-21 1.48422)
(33.142 -6.17826e-21 1.62425)
(33.6684 7.33735e-21 1.43355)
(33.8938 8.26951e-21 0.972894)
(33.7014 0 0.381301)
(33.1029 -9.91345e-21 -0.23427)
(32.1721 0 -0.808026)
(30.9996 1.74236e-20 -1.30297)
(29.6742 1.66618e-20 -1.70369)
(28.2722 3.21413e-20 -2.01063)
(26.8529 -1.47914e-20 -2.2335)
(25.4584 1.38052e-20 -2.3858)
(24.1159 0 -2.48144)
(22.8408 0 -2.53304)
(21.6405 1.11432e-20 -2.55123)
(20.5167 -1.14415e-22 -2.54453)
(19.4678 1.75871e-22 -2.51958)
(18.4903 1.35775e-22 -2.48145)
(17.5797 0 -2.43397)
(16.7311 0 -2.38001)
(15.9395 0 -2.32174)
(15.2004 2.42304e-20 -2.26075)
(14.5093 1.10268e-20 -2.19825)
(13.8621 0 -2.13511)
(13.255 0 -2.07202)
(12.6847 1.65205e-20 -2.00943)
(12.1481 0 -1.94772)
(11.6425 0 -1.88712)
(11.1652 0 -1.82782)
(10.714 0 -1.76993)
(10.287 -6.4775e-24 -1.71354)
(9.88208 0 -1.65867)
(9.49773 -1.67818e-24 -1.60535)
(9.13237 1.31407e-20 -1.55357)
(8.78462 2.51578e-24 -1.50333)
(8.45319 0 -1.45458)
(8.13696 0 -1.40731)
(7.83484 0 -1.36146)
(7.54588 0 -1.31699)
(7.26919 0 -1.27385)
(7.00395 0 -1.23201)
(6.7494 0 -1.1914)
(6.50487 -3.00021e-21 -1.15198)
(6.26969 -1.33024e-21 -1.11369)
(6.04328 0 -1.0765)
(5.82507 1.59592e-21 -1.04034)
(5.61458 0 -1.00519)
(5.41128 0 -0.970977)
(5.21478 -1.01799e-20 -0.937677)
(5.02458 0 -0.905224)
(4.8404 1.38168e-20 -0.873605)
(4.66174 0 -0.842742)
(4.48839 3.34592e-20 -0.812638)
(4.31987 2.4568e-23 -0.783203)
(4.15606 0 -0.754461)
(3.99644 0 -0.726304)
(3.84101 0 -0.69878)
(3.68917 4.3151e-20 -0.671757)
(3.54109 -4.43906e-20 -0.64532)
(3.39603 -4.54133e-20 -0.619297)
(3.25438 -4.62749e-20 -0.593822)
(3.11521 9.39564e-20 -0.568675)
(2.97916 4.74965e-20 -0.544049)
(2.84507 0 -0.519663)
(2.7139 0 -0.495787)
(2.58417 -2.42268e-23 -0.472056)
(2.45724 0 -0.448842)
(2.33125 0 -0.425675)
(2.20802 -9.59026e-20 -0.40305)
(2.08524 0 -0.380372)
(1.96531 0 -0.358284)
(1.84535 1.87253e-19 -0.336042)
(1.72843 -9.25565e-20 -0.314464)
(1.61107 0 -0.292633)
(1.49706 0 -0.271569)
(1.38229 0 -0.250165)
(1.27126 1.74129e-19 -0.229653)
(1.15936 0 -0.208743)
(1.05155 3.34732e-19 -0.188857)
(0.943237 -1.63677e-19 -0.168585)
(0.838944 0 -0.14941)
(0.735634 0 -0.130043)
(0.63492 1.52093e-19 -0.111617)
(0.539007 -2.47992e-23 -0.0936388)
(0.441768 1.43741e-19 -0.0758411)
(0.354883 -2.78917e-19 -0.0599301)
(0.267294 2.70277e-19 -0.0429291)
(0.170991 2.612e-19 -0.0279105)
(0.149741 2.53359e-19 -0.0185443)
(-0.064442 3.84472e-23 0.0130923)
(0.131765 0 -0.0172968)
(-0.299701 -2.21001e-19 0.0642839)
(0.0354873 0 -0.0133434)
(-0.275979 0 0.0780722)
(-0.452167 4.0043e-19 0.0559956)
(0.307435 0 -0.010118)
(-1.64248 0 0.281843)
(1.244 0 -0.240133)
(-1.96303 -2.69547e-19 0.425059)
(0.571037 0 -0.183501)
(-0.534705 -2.7502e-19 0.210964)
(-1.90794 0 0.293215)
(1.15819 0 -0.159351)
(-3.98679 0 0.74168)
(2.28757 0 -0.461268)
(-4.01606 0 0.799149)
(2.2664 -5.919e-19 -0.528905)
(-1.87718 -3.35417e-19 0.571069)
(-2.86194 4.85535e-19 0.391138)
(2.10996 0 -0.327146)
(-6.30787 0 1.2628)
(1.97484 -1.85503e-18 -0.562537)
(-1.32424 0 0.250941)
(1.8231 8.14167e-19 -0.376659)
(-0.541434 0 0.244454)
(-2.0675 6.64199e-19 0.300153)
(2.5198 6.93572e-19 -0.535063)
(-1.10109 0 0.310585)
(-0.309162 -5.45321e-19 0.00412723)
(1.03473 0 -0.241084)
(32.6135 4.68619e-21 1.03217)
(33.0246 1.13912e-20 1.11963)
(33.4707 -6.91139e-21 1.03698)
(33.8358 -7.80286e-22 0.773962)
(34.009 7.49003e-21 0.384013)
(33.9346 0 -0.0709408)
(33.6045 0 -0.541797)
(33.039 -1.64068e-20 -0.992824)
(32.2736 -3.04773e-20 -1.4004)
(31.3505 -7.07561e-22 -1.7515)
(30.3135 1.39268e-20 -2.04161)
(29.203 -1.29982e-20 -2.27209)
(28.054 1.17568e-20 -2.44778)
(26.8946 0 -2.57527)
(25.7463 0 -2.66173)
(24.6248 -9.55023e-21 -2.71417)
(23.5403 3.4952e-20 -2.73897)
(22.4994 3.21726e-20 -2.74168)
(21.5055 0 -2.72703)
(20.56 0 -2.69888)
(19.6626 0 -2.6604)
(18.8122 -6.7249e-23 -2.61413)
(18.0071 -2.07135e-20 -2.56209)
(17.2451 9.40982e-21 -2.50589)
(16.5238 1.71038e-20 -2.44679)
(15.841 -3.10618e-20 -2.38581)
(15.1942 1.40191e-20 -2.32372)
(14.5811 1.26363e-20 -2.26113)
(13.9995 1.1351e-20 -2.19853)
(13.4474 0 -2.13629)
(12.9227 -9.06053e-21 -2.07468)
(12.4238 8.02011e-21 -2.01393)
(11.9487 -7.07176e-21 -1.95418)
(11.4961 -1.23651e-20 -1.89557)
(11.0643 -2.14587e-20 -1.83817)
(10.6521 0 -1.78204)
(10.2581 0 -1.72721)
(9.88117 -6.51848e-21 -1.6737)
(9.52027 0 -1.62151)
(9.17434 4.223e-21 -1.57063)
(8.84247 3.2089e-21 -1.52104)
(8.52375 0 -1.47272)
(8.2174 5.66238e-21 -1.42565)
(7.92264 1.25184e-21 -1.37978)
(7.63878 0 -1.33508)
(7.36512 -1.5017e-21 -1.29152)
(7.10111 -2.68533e-21 -1.24905)
(6.84609 0 -1.20763)
(6.5996 9.5481e-21 -1.16724)
(6.36102 -5.66298e-21 -1.1278)
(6.13001 -1.29432e-20 -1.08931)
(5.90596 0 -1.05169)
(5.68862 -2.48582e-23 -1.01494)
(5.47737 3.37369e-20 -0.978971)
(5.27209 0 -0.943807)
(5.0721 0 -0.909323)
(4.87744 -1.95753e-20 -0.875588)
(4.68734 -2.02756e-20 -0.842438)
(4.50201 4.1696e-20 -0.809984)
(4.32054 4.26896e-20 -0.778018)
(4.14339 4.34957e-20 -0.746708)
(3.96942 -4.41382e-20 -0.715783)
(3.7994 -8.92428e-20 -0.685488)
(3.63191 0 -0.655471)
(3.4681 0 -0.626073)
(3.30618 -9.06362e-20 -0.596841)
(3.14777 0 -0.568238)
(2.9906 0 -0.539681)
(2.8369 9.00733e-20 -0.511786)
(2.68381 0 -0.483812)
(2.53426 -8.87464e-20 -0.456562)
(2.38473 -3.20425e-23 -0.429105)
(2.23895 8.6893e-20 -0.402466)
(2.09266 0 -0.375495)
(1.95046 0 -0.349469)
(1.80734 0 -0.322998)
(1.66876 1.63313e-19 -0.29763)
(1.5291 0 -0.271737)
(1.39439 -1.56998e-19 -0.247114)
(1.25902 3.07039e-19 -0.221965)
(1.1285 0 -0.198199)
(0.999043 0 -0.174104)
(0.872815 0 -0.151251)
(0.75211 -2.44928e-23 -0.128784)
(0.630038 -1.34753e-19 -0.106685)
(0.520237 -2.61367e-19 -0.0867692)
(0.409004 -2.53315e-19 -0.0652785)
(0.290285 2.44708e-19 -0.0474413)
(0.252566 0 -0.0328388)
(0.00391948 2.26489e-19 0.00108548)
(0.212365 0 -0.0278458)
(-0.286696 2.07004e-19 0.0646719)
(0.0956688 0 -0.0259357)
(-0.289669 0 0.0912605)
(-0.455417 0 0.045119)
(0.336671 -3.69272e-19 0.00600132)
(-1.81676 -3.10402e-19 0.299901)
(1.40193 0 -0.267848)
(-2.26597 2.52132e-19 0.498606)
(0.762506 -3.44522e-19 -0.249171)
(-0.691147 2.57328e-19 0.286463)
(-2.01802 -2.81165e-19 0.284557)
(1.20236 0 -0.135211)
(-4.52385 0 0.830327)
(2.54743 0 -0.516027)
(-4.71177 0 0.937101)
(2.74036 5.53481e-19 -0.658851)
(-2.27008 2.02192e-23 0.727978)
(-2.78927 -9.07169e-19 0.315108)
(2.14021 0 -0.282185)
(-7.21504 0 1.44126)
(2.48786 8.66587e-19 -0.7379)
(-1.65752 0 0.320167)
(2.16686 -7.60842e-19 -0.455536)
(-0.673822 0 0.324645)
(-2.07663 -1.2407e-18 0.25948)
(2.84696 0 -0.610079)
(-1.33148 0 0.393081)
(-0.223006 5.09417e-19 -0.0416959)
(1.27592 0 -0.304531)
(32.6385 0 0.679035)
(32.9399 -5.24199e-21 0.722685)
(33.2768 0 0.673497)
(33.6073 -6.59435e-21 0.510729)
(33.868 -1.34457e-20 0.249223)
(34.0084 0 -0.0793031)
(33.9998 6.70906e-21 -0.443445)
(33.831 0 -0.81711)
(33.5024 8.991e-22 -1.1801)
(33.0236 -2.58433e-20 -1.51794)
(32.4108 0 -1.82132)
(31.684 0 -2.08533)
(30.8657 -1.10578e-20 -2.30838)
(29.9781 0 -2.49122)
(29.0423 0 -2.63614)
(28.077 0 -2.74639)
(27.0987 -1.63277e-20 -2.82578)
(26.1205 -1.50449e-20 -2.87824)
(25.1529 -1.36541e-20 -2.90765)
(24.2041 0 -2.91764)
(23.2798 0 -2.91148)
(22.3841 -1.06444e-20 -2.8921)
(21.5193 9.71609e-21 -2.86198)
(20.6871 -8.8502e-21 -2.82329)
(19.8879 -1.60865e-20 -2.77781)
(19.1217 2.9098e-20 -2.72706)
(18.3879 -5.42311e-23 -2.67229)
(17.6857 -1.18844e-20 -2.61453)
(17.0141 -1.06754e-20 -2.55463)
(16.3718 0 -2.49328)
(15.7577 0 -2.43105)
(15.1702 -7.54236e-21 -2.36839)
(14.6082 0 -2.30568)
(14.0703 1.16279e-20 -2.24321)
(13.5554 1.00883e-20 -2.18122)
(13.062 -8.65834e-21 -2.1199)
(12.5891 0 -2.05938)
(12.1355 6.12917e-21 -1.99979)
(11.7002 5.00825e-21 -1.9412)
(11.2821 3.68517e-24 -1.88367)
(10.8804 -6.03862e-21 -1.82726)
(10.4939 0 -1.77197)
(10.122 -2.6688e-21 -1.71783)
(9.76367 0 -1.66484)
(9.4183 0 -1.61299)
(9.08507 0 -1.56226)
(8.76336 1.37845e-23 -1.51264)
(8.45243 0 -1.4641)
(8.15176 -4.47992e-21 -1.41663)
(7.86064 1.06307e-20 -1.37017)
(7.57867 1.2163e-20 -1.32473)
(7.30514 0 -1.28021)
(7.03977 -1.47497e-20 -1.23665)
(6.78183 -3.16521e-20 -1.19394)
(6.53117 0 -1.15212)
(6.287 0 -1.11105)
(6.04934 1.83881e-20 -1.07083)
(5.81729 1.90076e-20 -1.03126)
(5.5911 -1.95722e-20 -0.99248)
(5.36967 -4.00256e-20 -0.954246)
(5.15355 0 -0.916769)
(4.94138 0 -0.87972)
(4.73406 2.84184e-23 -0.843405)
(4.52989 -4.21872e-20 -0.807396)
(4.33025 0 -0.772115)
(4.13297 4.25282e-20 -0.737006)
(3.93999 0 -0.702642)
(3.7486 0 -0.668308)
(3.56142 0 -0.634764)
(3.37505 0 -0.601099)
(3.19297 3.40062e-23 -0.5683)
(3.01095 -3.17486e-23 -0.535226)
(2.83344 -8.14548e-20 -0.503133)
(2.65534 0 -0.470609)
(2.48213 -7.92017e-20 -0.439223)
(2.3078 0 -0.407263)
(2.13886 -1.53139e-19 -0.376636)
(1.96858 1.50138e-19 -0.345325)
(1.80415 -1.47114e-19 -0.315561)
(1.63883 -1.43894e-19 -0.285088)
(1.47926 0 -0.256322)
(1.32075 1.37078e-19 -0.22704)
(1.16616 0 -0.199355)
(1.01773 -1.29922e-19 -0.171926)
(0.867955 -1.26208e-19 -0.145122)
(0.732327 2.44849e-19 -0.120748)
(0.594404 0 -0.0942735)
(0.450929 -4.58354e-19 -0.0734334)
(0.392325 0 -0.0525266)
(0.109773 2.12012e-19 -0.0171077)
(0.32205 0 -0.0423107)
(-0.240528 1.93731e-19 0.0593682)
(0.181147 0 -0.042522)
(-0.280396 3.57718e-19 0.102079)
(-0.42686 -3.50618e-19 0.0267319)
(0.3693 3.45564e-19 0.0261198)
(-1.93963 2.90444e-19 0.30509)
(1.53841 0 -0.288692)
(-2.53066 -4.71652e-19 0.565462)
(0.961436 6.44414e-19 -0.320933)
(-0.848288 0 0.370314)
(-2.0517 2.62958e-19 0.256183)
(1.20732 0 -0.0945699)
(-4.96504 0 0.897066)
(2.73768 -5.5685e-19 -0.555797)
(-5.35945 0 1.0631)
(3.18239 0 -0.790484)
(-2.66015 2.93124e-19 0.89524)
(-2.56296 8.46514e-19 0.199822)
(2.10651 4.43424e-19 -0.207352)
(-7.94239 0 1.57922)
(2.92463 0 -0.911714)
(-2.00535 0 0.394708)
(2.50305 0 -0.536968)
(-0.80472 5.29136e-19 0.412697)
(-1.97788 5.79286e-19 0.18981)
(3.12342 0 -0.673047)
(-1.52247 0 0.47357)
(-0.118109 0 -0.0990168)
(1.51477 0 -0.370502)
(32.6379 4.19727e-21 0.390754)
(32.8699 0 0.407042)
(33.1256 4.91425e-21 0.366713)
(33.3904 0 0.253737)
(33.6333 6.01422e-21 0.068663)
(33.8229 0 -0.173815)
(33.9363 -6.30566e-21 -0.454572)
(33.9584 1.15659e-20 -0.755678)
(33.8801 2.36136e-20 -1.06197)
(33.6966 7.27099e-22 -1.36147)
(33.4077 0 -1.64516)
(33.0165 0 -1.90683)
(32.5299 0 -2.14261)
(31.957 0 -2.35044)
(31.3087 0 -2.52957)
(30.5971 0 -2.68027)
(29.8346 1.47142e-20 -2.80356)
(29.0335 -1.36371e-20 -2.90102)
(28.2054 1.28295e-20 -2.97464)
(27.3606 0 -3.02662)
(26.5085 0 -3.05929)
(25.6567 9.80153e-21 -3.07498)
(24.8117 8.97024e-21 -3.07594)
(23.9787 8.1893e-21 -3.06426)
(23.1618 0 -3.04187)
(22.3638 -1.36371e-20 -3.01052)
(21.5871 -2.46002e-20 -2.97173)
(20.833 1.10677e-20 -2.92686)
(20.1025 0 -2.87707)
(19.396 0 -2.82336)
(18.7136 0 -2.76659)
(18.0552 7.05136e-21 -2.7075)
(17.4204 0 -2.6467)
(16.8087 0 -2.5847)
(16.2193 9.45134e-21 -2.52194)
(15.6516 8.1337e-21 -2.45879)
(15.1048 0 -2.39554)
(14.578 5.75352e-21 -2.33244)
(14.0706 -9.40716e-21 -2.2697)
(13.5815 -3.73296e-21 -2.20747)
(13.1101 2.83819e-21 -2.14589)
(12.6554 0 -2.08506)
(12.2168 0 -2.02507)
(11.7933 0 -1.96597)
(11.3844 -1.27611e-22 -1.90782)
(10.9892 0 -1.85062)
(10.6071 2.35721e-21 -1.79443)
(10.2373 3.30783e-21 -1.73921)
(9.87936 0 -1.68502)
(9.53245 -4.98448e-21 -1.63178)
(9.19617 0 -1.57955)
(8.86974 0 -1.52824)
(8.55286 -1.38018e-20 -1.47791)
(8.2447 2.17259e-23 -1.42843)
(7.94514 1.57293e-20 -1.37989)
(7.65324 0 -1.33213)
(7.36907 0 -1.28528)
(7.09156 -1.78385e-20 -1.2391)
(6.82104 0 -1.19379)
(6.55619 3.75588e-20 -1.14905)
(6.29769 0 -1.10515)
(6.04392 0 -1.06169)
(5.79598 7.85051e-20 -1.01907)
(5.55182 7.9126e-20 -0.976748)
(5.31309 3.97523e-20 -0.935262)
(5.07722 0 -0.893934)
(4.8465 0 -0.853467)
(4.6177 3.97496e-20 -0.812992)
(4.39395 7.91561e-20 -0.773436)
(4.17118 0 -0.733696)
(3.95351 7.80387e-20 -0.694972)
(3.73593 -7.72473e-20 -0.655877)
(3.52368 7.63585e-20 -0.617941)
(3.3107 -7.53055e-20 -0.579443)
(3.10348 7.42334e-20 -0.542296)
(2.89488 0 -0.504408)
(2.69257 0 -0.468109)
(2.48859 -1.40682e-19 -0.430925)
(2.29141 2.75634e-19 -0.395596)
(2.09301 0 -0.359325)
(1.90132 0 -0.32513)