/*--------------------------------*- C++ -*----------------------------------*\
| =========                 |                                                 |
| \\      /  F ield         | OpenFOAM: The Open Source CFD Toolbox           |
|  \\    /   O peration     | Version:  2412                                  |
|   \\  /    A nd           | Website:  www.openfoam.com                      |
|    \\/     M anipulation  |                                                 |
\*---------------------------------------------------------------------------*/
FoamFile
{
    version     2.0;
    format      ascii;
    arch        "LSB;label=32;scalar=64";
    class       volScalarField;
    location    "0.745";
    object      Co;
}
// * * * * * * * * * * * * * * * * * * * * * * * * * * * * * * * * * * * * * //

dimensions      [0 0 0 0 0 0 0];

internalField   nonuniform List<scalar> 
12600
(
0.377139
0.155531
0.0616111
0.027339
0.0147703
0.00917078
0.00598916
0.0039291
0.00251667
0.00152049
0.000808429
0.000378308
0.000369311
0.000569685
0.000705252
0.000796359
0.000850461
0.000878502
0.000884412
0.000875675
0.000855047
0.000825952
0.000790796
0.000757392
0.000719633
0.000679668
0.000639146
0.000597122
0.000555982
0.000515972
0.000477262
0.000440241
0.000405211
0.000372207
0.000341293
0.00031251
0.000285809
0.000261123
0.000238345
0.0002174
0.000198176
0.000180566
0.000164429
0.000149657
0.000136109
0.000123655
0.000112204
0.000101669
9.20146e-05
8.32257e-05
7.53094e-05
6.82766e-05
6.21043e-05
5.67153e-05
5.19739e-05
4.76363e-05
4.33607e-05
3.8681e-05
3.30336e-05
2.58121e-05
1.65226e-05
1.37721e-05
2.32348e-05
3.55718e-05
4.30515e-05
4.34783e-05
4.12261e-05
3.45109e-05
2.21934e-05
1.53743e-05
2.10428e-05
2.82874e-05
2.82694e-05
2.67047e-05
1.99911e-05
1.57124e-05
2.3745e-05
3.62573e-05
4.21779e-05
3.97883e-05
3.17283e-05
5.10875e-05
0.000107481
0.000166151
0.000209781
0.000197467
0.000173668
0.000135105
0.000180017
0.000288296
0.000537168
0.000504398
0.000135469
2.96586e-05
1.60398e-05
4.32364e-05
6.56147e-05
7.92887e-05
8.34475e-05
7.81081e-05
0.000105364
0.00019684
0.00028379
0.000312605
0.000292099
0.000270742
0.000210416
0.000135596
8.40956e-05
4.59936e-05
1.97199e-05
1.83456e-05
2.53874e-05
2.46405e-05
2.29506e-05
1.66962e-05
9.21223e-06
7.62893e-06
9.55645e-06
1.11731e-05
0.605394
0.391829
0.228639
0.131317
0.0790977
0.0508038
0.0342377
0.0236656
0.0164838
0.0114083
0.0077339
0.00502965
0.00302229
0.00152841
0.000975914
0.00128195
0.00168794
0.00196743
0.00214153
0.00224136
0.00228012
0.00227324
0.00223131
0.00216935
0.00208803
0.00201028
0.00192267
0.00182282
0.00171863
0.00161198
0.00150492
0.00139952
0.00129728
0.00119894
0.00110528
0.00101691
0.000933929
0.000856378
0.000784147
0.000717209
0.00065536
0.000598364
0.000545855
0.000497585
0.000453188
0.000412246
0.000374495
0.000339638
0.000307562
0.000278222
0.000251641
0.000227894
0.000206978
0.000188725
0.000172817
0.0001586
0.000145123
0.000131036
0.000114601
9.38436e-05
6.69191e-05
5.63056e-05
8.34534e-05
0.000121643
0.000142159
0.000138388
0.000133383
0.000119035
8.4173e-05
6.25319e-05
7.70603e-05
9.37722e-05
8.55087e-05
8.47158e-05
6.83844e-05
6.44898e-05
9.53586e-05
0.000130381
0.000138593
0.000129501
0.000133998
0.000231886
0.000420838
0.000600217
0.000712074
0.000635443
0.000686332
0.000551122
0.000725401
0.00113443
0.00194851
0.001888
0.000574649
8.56645e-05
6.29524e-05
0.000171393
0.000231859
0.000267332
0.000243083
0.000266516
0.00044204
0.000778772
0.000995554
0.00100606
0.000900898
0.000854762
0.000684673
0.00043804
0.000272855
0.000156252
6.55997e-05
7.32293e-05
9.52095e-05
8.01451e-05
7.84739e-05
6.34475e-05
3.26753e-05
2.35784e-05
3.8037e-05
4.48596e-05
0.672082
0.542811
0.391175
0.265563
0.177585
0.120437
0.0837062
0.0594306
0.0427443
0.0308733
0.0222067
0.0157626
0.0109118
0.0072251
0.0044546
0.00233767
0.00165599
0.00215913
0.00264745
0.00297892
0.00318012
0.00328207
0.00330729
0.00327285
0.00319418
0.0030989
0.00299772
0.00289141
0.00276578
0.00262522
0.00247583
0.00232257
0.00216904
0.0020175
0.00187022
0.00172905
0.0015947
0.00146767
0.00134814
0.00123646
0.00113254
0.00103622
0.00094701
0.000864682
0.000788758
0.00071854
0.000653615
0.000593443
0.000537808
0.000486627
0.00043994
0.000397966
0.00036085
0.000328499
0.000300657
0.000276526
0.000254852
0.000233709
0.000210352
0.000181353
0.000142944
0.000124397
0.000166006
0.00022729
0.000253503
0.000234413
0.000229331
0.00022198
0.0001743
0.000137441
0.000152481
0.000166563
0.000135378
0.000147123
0.000133371
0.000142832
0.000199837
0.000247702
0.000238488
0.000231968
0.000312788
0.000544243
0.000865125
0.00114934
0.0012862
0.00107791
0.0014714
0.00122487
0.00158885
0.00243151
0.00391495
0.00383654
0.0013206
0.000146116
0.000133444
0.000359245
0.000437789
0.000478584
0.00038521
0.00056173
0.00100871
0.00160368
0.00184451
0.00170323
0.00147895
0.00146026
0.00122052
0.000779597
0.000490181
0.000299162
0.000138719
0.000167351
0.000186564
0.000134709
0.000147806
0.000136188
6.48656e-05
4.31331e-05
8.27809e-05
9.37373e-05
0.671161
0.610898
0.505995
0.391302
0.290217
0.211422
0.153861
0.112754
0.0832788
0.0618115
0.0459043
0.0339384
0.0248321
0.0178375
0.0124681
0.00830778
0.00510655
0.00279288
0.00232272
0.00302713
0.00350836
0.00381633
0.00398889
0.00405422
0.00403893
0.00396275
0.00385663
0.0037379
0.00364134
0.00351054
0.00335363
0.00317985
0.0029966
0.00280866
0.00262066
0.00243652
0.00225819
0.00208708
0.00192408
0.00177021
0.00162586
0.00149113
0.00136559
0.00124919
0.0011415
0.00104156
0.000948875
0.000862633
0.000782503
0.000708366
0.000640287
0.000578702
0.000524025
0.000476396
0.000435849
0.000401699
0.00037268
0.000346543
0.000319691
0.000287171
0.000242817
0.000215
0.000267115
0.000349657
0.000375953
0.000332697
0.000327076
0.000340827
0.000290039
0.000235923
0.000241667
0.000242134
0.000175548
0.000212543
0.000212098
0.000246451
0.000331364
0.000380901
0.000333582
0.000351128
0.000568906
0.000981259
0.00142019
0.00178423
0.00190632
0.00152121
0.00247776
0.00212688
0.00267642
0.00404099
0.00634487
0.00616868
0.00239593
0.000214448
0.000231221
0.000601467
0.000672495
0.000698267
0.000545491
0.0010388
0.00185003
0.00261705
0.00276326
0.00235245
0.002027
0.0020682
0.00179251
0.00114063
0.000722201
0.000467783
0.000238099
0.000298156
0.000294208
0.000192487
0.000231818
0.000231487
0.000100981
6.65502e-05
0.000140683
0.000155733
0.646923
0.622488
0.56321
0.480132
0.390258
0.306908
0.236801
0.181145
0.138216
0.105425
0.0803587
0.0610926
0.0461885
0.0345863
0.025537
0.0184438
0.0128931
0.00853817
0.00515722
0.00321782
0.00314298
0.00377601
0.00419541
0.00444348
0.00455926
0.00457207
0.00450765
0.00439321
0.00427966
0.00419505
0.00407733
0.00392149
0.00373875
0.00353841
0.00332855
0.00311617
0.00290529
0.00269886
0.00249895
0.00230774
0.00212645
0.00195578
0.00179555
0.00164612
0.00150725
0.00137787
0.00125741
0.00114484
0.00103971
0.000941884
0.000851456
0.000769155
0.000695779
0.00063185
0.000577907
0.000533616
0.000497972
0.000468677
0.000441425
0.000409701
0.000364533
0.000324992
0.000382855
0.000485399
0.000507655
0.000433507
0.000423064
0.000471639
0.000427942
0.000353457
0.000338977
0.000316006
0.000203647
0.000278608
0.000301338
0.000370616
0.000483867
0.000522298
0.000414716
0.000490048
0.000902715
0.00153341
0.0020635
0.00247446
0.00254567
0.00195966
0.00363731
0.00322374
0.003819
0.00577664
0.00908877
0.00865212
0.00375215
0.000241223
0.000356915
0.000892315
0.000926191
0.00090994
0.000748008
0.00166866
0.00290611
0.00375742
0.0036843
0.00290687
0.00254386
0.00266154
0.00237643
0.0015038
0.000959039
0.000656335
0.000357261
0.000457375
0.000413486
0.000257749
0.000331071
0.000343198
0.000134722
9.68619e-05
0.000211545
0.000228597
0.619438
0.606699
0.57632
0.525166
0.459045
0.387156
0.317713
0.255754
0.203277
0.160253
0.125624
0.0980031
0.0760473
0.0585991
0.0447405
0.0337185
0.0249627
0.0180039
0.0125031
0.00816083
0.00476121
0.00340097
0.00382953
0.00436075
0.0046919
0.00486437
0.00491472
0.00487118
0.00475877
0.00465916
0.00458077
0.00449029
0.00434973
0.00416938
0.00396334
0.00374306
0.00351566
0.00328644
0.00305927
0.00283808
0.00262539
0.00242292
0.002231
0.00205067
0.00188213
0.00172429
0.00157666
0.00143802
0.00130782
0.00118593
0.00107252
0.000968671
0.00087567
0.000794569
0.000726608
0.000672034
0.000630349
0.000599448
0.000574478
0.000547368
0.000506034
0.000451272
0.000509535
0.000631586
0.000647326
0.000537819
0.000513915
0.000610407
0.00058424
0.000485368
0.000439125
0.000384568
0.000218573
0.00034319
0.000408799
0.000521073
0.000650657
0.000663933
0.000472951
0.000652199
0.00131288
0.00218747
0.00276853
0.00318955
0.00318045
0.00239287
0.00487092
0.00448117
0.00477019
0.00740633
0.0119242
0.0110069
0.00534254
0.000340102
0.000507919
0.00122528
0.00118987
0.00109585
0.00100053
0.00244848
0.0041365
0.00495805
0.0045437
0.00333137
0.00302699
0.00322632
0.00295254
0.00185531
0.00119414
0.000859273
0.000492
0.000639752
0.000540417
0.000330014
0.000444976
0.000466886
0.000162688
0.000142608
0.000301571
0.000310139
0.595473
0.583473
0.56572
0.536074
0.493136
0.439966
0.381839
0.323772
0.269421
0.220901
0.179038
0.143769
0.114526
0.0905227
0.0709574
0.0550741
0.0422282
0.0318625
0.0235362
0.0168677
0.011557
0.00735661
0.00439676
0.00370087
0.00434974
0.00476735
0.00500345
0.00509802
0.00508393
0.0049894
0.00489438
0.00481998
0.004769
0.00465361
0.00448611
0.00428553
0.00406349
0.00382878
0.00358792
0.00334728
0.00311133
0.00288328
0.0026644
0.00245669
0.0022611
0.00207673
0.00190329
0.00173946
0.00158465
0.0014388
0.00130218
0.00117626
0.00106297
0.000964007
0.000881503
0.000816501
0.000769245
0.000738047
0.000717672
0.000698519
0.000665184
0.0005962
0.00064878
0.000785326
0.000793624
0.00064648
0.000595649
0.000752462
0.000754583
0.00062684
0.00053733
0.000445034
0.000220073
0.000403955
0.000530896
0.000692981
0.000824794
0.000797637
0.000499275
0.000840539
0.00179572
0.00292605
0.00350614
0.0039007
0.00379078
0.00282156
0.00609564
0.00586396
0.00542472
0.00886163
0.014598
0.0129625
0.00710213
0.000644424
0.000678209
0.00159295
0.00145562
0.00123789
0.0013173
0.0033683
0.00549159
0.00615086
0.00528822
0.00360737
0.00347444
0.00375339
0.00350595
0.00218663
0.00142504
0.00107174
0.000637987
0.00084033
0.000671944
0.000409923
0.00057249
0.00060184
0.000185997
0.00019495
0.000401075
0.000398181
0.575397
0.561577
0.547085
0.527893
0.5007
0.464735
0.421681
0.374379
0.325813
0.278543
0.234447
0.194683
0.159773
0.129751
0.104338
0.0830754
0.0654469
0.0509292
0.0390512
0.0293836
0.0215616
0.0152739
0.0102536
0.00628147
0.00420911
0.00418931
0.00469926
0.00500462
0.00514992
0.0051733
0.00510319
0.00500741
0.0049328
0.00492991
0.00484838
0.00470442
0.0045171
0.0043002
0.00406406
0.00381843
0.00357055
0.00332576
0.00308672
0.00285684
0.0026382
0.00243032
0.00223333
0.00204596
0.00186765
0.00169848
0.00153886
0.00139076
0.00125681
0.00113951
0.00104205
0.000966486
0.000914011
0.000883573
0.000869725
0.000861399
0.000839744
0.000777482
0.000816764
0.000943853
0.000945279
0.000760356
0.000664084
0.000892656
0.000934011
0.0007842
0.000640273
0.00049572
0.000211659
0.000458787
0.000657299
0.000874325
0.000999223
0.000915611
0.000485333
0.00105778
0.00234474
0.00372739
0.00424553
0.00458323
0.00436345
0.00324842
0.00723901
0.00733011
0.00586764
0.0102806
0.0169066
0.0143452
0.00895804
0.00112534
0.000858374
0.00198687
0.00171637
0.00131808
0.00170948
0.00441089
0.00691541
0.00727139
0.00588101
0.00373439
0.00388438
0.00423806
0.0040278
0.00249473
0.00165263
0.0012888
0.000790609
0.00105485
0.000806013
0.000497239
0.000711814
0.0007428
0.000202412
0.000252077
0.000507159
0.000490625
0.557935
0.542792
0.528238
0.512625
0.493465
0.468988
0.438812
0.403674
0.364977
0.324414
0.28367
0.244229
0.207256
0.173542
0.143522
0.117316
0.0948094
0.0757299
0.0597328
0.0464405
0.035486
0.0265287
0.0192595
0.0134097
0.00874289
0.00508662
0.00390202
0.00451011
0.00489048
0.00509383
0.00515921
0.00512047
0.00501557
0.00497256
0.00498909
0.00494985
0.0048366
0.00466858
0.00446177
0.00423066
0.0039862
0.00373675
0.00348697
0.00324223
0.00300621
0.00277921
0.00256205
0.00235368
0.00215374
0.00196253
0.00178066
0.0016107
0.00145608
0.00132022
0.00120755
0.00112131
0.00106387
0.001035
0.00102924
0.00103414
0.00102736
0.000975762
0.000994559
0.00110446
0.00110091
0.000880028
0.000714795
0.00102536
0.00111693
0.000972862
0.000763867
0.000536173
0.000193834
0.000505736
0.000783441
0.00105828
0.00116707
0.0010103
0.000496906
0.00132111
0.00296448
0.00456576
0.0049563
0.00521891
0.00489285
0.00367584
0.00825476
0.00882323
0.00568535
0.0113333
0.0187539
0.0151271
0.0108432
0.00174179
0.00103614
0.00239751
0.00196575
0.0013196
0.00218502
0.00555214
0.00834837
0.00826504
0.00630623
0.0037298
0.00425685
0.00467972
0.0045146
0.00278244
0.0018807
0.00150538
0.000944907
0.00127959
0.000941744
0.000590837
0.000860736
0.000886601
0.000219248
0.00031832
0.000617215
0.000585493
0.542202
0.526519
0.511462
0.496605
0.480604
0.462101
0.440244
0.414734
0.385763
0.353926
0.320094
0.285278
0.250524
0.216812
0.184983
0.155675
0.129292
0.106011
0.0858155
0.0685494
0.0539708
0.0417963
0.0317292
0.0234841
0.0167936
0.0114177
0.00714415
0.00459398
0.00421745
0.00468059
0.00494621
0.00506014
0.00505829
0.00497001
0.00494184
0.00496094
0.00497019
0.00489319
0.00474848
0.00455778
0.00433726
0.00409938
0.0038516
0.00360193
0.00335632
0.00311628
0.00288369
0.00265799
0.00243921
0.00222799
0.00202529
0.00183429
0.0016594
0.00150504
0.00137707
0.0012801
0.00121786
0.00119116
0.00119468
0.00121472
0.00122555
0.00118822
0.00117912
0.00126441
0.0012589
0.00100557
0.000743242
0.00114452
0.00129712
0.00116811
0.000886895
0.000567145
0.000163444
0.000543239
0.000904851
0.00123819
0.00132186
0.00107505
0.000576761
0.00171172
0.00372039
0.0054123
0.00561084
0.00579808
0.00538069
0.00410634
0.00913518
0.0102682
0.00483949
0.0119953
0.020139
0.0153835
0.0127039
0.0024875
0.00119752
0.00281406
0.00219756
0.00122768
0.00275028
0.00676329
0.00973193
0.00909237
0.00656961
0.00362228
0.00459197
0.00507921
0.00496652
0.00305699
0.00211452
0.00171585
0.00109535
0.00151131
0.00107946
0.000688534
0.00101661
0.00103059
0.00024767
0.000400704
0.000729144
0.000680984
0.527839
0.512022
0.496719
0.481923
0.466945
0.451008
0.433501
0.413971
0.392141
0.367953
0.341572
0.313355
0.283822
0.253607
0.223427
0.194013
0.166046
0.140086
0.116528
0.0955832
0.0772977
0.0615872
0.0482762
0.0371391
0.0279268
0.0203898
0.0142904
0.00940993
0.00555238
0.00403066
0.00438711
0.00472243
0.00489051
0.00493012
0.00487472
0.0048413
0.0048565
0.00491916
0.00488169
0.00476617
0.00459702
0.00439236
0.00416363
0.00392237
0.00367765
0.00343278
0.00319121
0.00295325
0.00271952
0.00249127
0.00226989
0.00205932
0.00186502
0.00169259
0.00154946
0.00144177
0.00137483
0.00135067
0.00136432
0.00140101
0.00143172
0.00141196
0.00136724
0.00142083
0.00141718
0.00113635
0.000744932
0.00124377
0.00146775
0.001364
0.0010068
0.000590585
0.000128683
0.00057017
0.00101735
0.00140784
0.0014578
0.00110402
0.000691874
0.00215529
0.00452893
0.00623656
0.00618713
0.0063209
0.00583396
0.00454381
0.0099101
0.0115745
0.00343331
0.0123008
0.0211117
0.0152005
0.0144982
0.00335082
0.00132841
0.00322438
0.00240541
0.00113814
0.00359546
0.00819612
0.011011
0.00973263
0.00669637
0.003616
0.00489175
0.00543752
0.00538537
0.00332825
0.00235976
0.00191433
0.00123573
0.00174695
0.00122063
0.000787075
0.00117656
0.00117272
0.00027665
0.000485069
0.000841324
0.000775547
0.514675
0.49887
0.483532
0.468766
0.454156
0.43926
0.423757
0.407361
0.389799
0.370843
0.350352
0.328281
0.304692
0.279761
0.253791
0.227217
0.200581
0.174481
0.14951
0.126186
0.104899
0.085886
0.0692315
0.0548939
0.0427395
0.0325782
0.0241918
0.0173551
0.0118503
0.00747271
0.00464881
0.00402214
0.00443354
0.00466005
0.00474718
0.0047269
0.00468132
0.00468567
0.0048045
0.0048119
0.00473083
0.00458831
0.00440135
0.00418634
0.00395649
0.0037178
0.0034759
0.00323247
0.00298912
0.00274796
0.00251099
0.00228303
0.00207079
0.00188113
0.00172323
0.00160497
0.00153339
0.00151196
0.00153627
0.00159067
0.00164312
0.00164397
0.00155541
0.00157062
0.00157315
0.00127085
0.000750117
0.00131684
0.00162152
0.00155396
0.00116263
0.000647549
9.81271e-05
0.000586067
0.00111683
0.0015617
0.00156994
0.00109242
0.000832478
0.00264721
0.00536894
0.00700866
0.00667165
0.00679714
0.00626176
0.00499403
0.0106269
0.0126444
0.0023332
0.0123068
0.0217462
0.0146148
0.0161904
0.00431547
0.00141616
0.00361496
0.00258222
0.00128264
0.00454021
0.00965638
0.0121358
0.0101864
0.00672516
0.00379993
0.00515862
0.0057542
0.00577242
0.00360588
0.00262149
0.0020955
0.00135912
0.00198333
0.00136767
0.000882119
0.0013375
0.00131145
0.00030792
0.000569114
0.000952687
0.00086794
0.502569
0.486833
0.471552
0.456873
0.442491
0.428107
0.413553
0.398699
0.383389
0.367456
0.350742
0.333103
0.314413
0.294577
0.273562
0.251428
0.228365
0.204693
0.180856
0.157375
0.134793
0.113605
0.0942019
0.0768356
0.0616126
0.0485155
0.0374345
0.0282006
0.0206144
0.014465
0.00954755
0.00566958
0.00394455
0.00408608
0.00437887
0.00451603
0.00453388
0.0044683
0.00451987
0.00463714
0.00469231
0.00465115
0.00453644
0.00437149
0.00417525
0.00395741
0.00372671
0.00348688
0.00324105
0.00299254
0.00274424
0.002502
0.00227399
0.00206846
0.00189653
0.001768
0.00169187
0.00167321
0.00170842
0.00178123
0.00185689
0.00188112
0.0017752
0.00174316
0.00172352
0.00140653
0.000812378
0.00135767
0.00175083
0.00173083
0.00133652
0.000725032
7.38523e-05
0.000616153
0.00122632
0.00169522
0.00165431
0.00103678
0.00100119
0.00318023
0.00621728
0.00770197
0.00706169
0.00724428
0.00667169
0.00546217
0.0113194
0.013382
0.00281319
0.0120827
0.0221306
0.0136167
0.0177464
0.00536089
0.0014509
0.00397098
0.00271954
0.00163646
0.00556759
0.0110941
0.013069
0.0104746
0.00669868
0.00403609
0.0053969
0.00602878
0.00612776
0.00389669
0.00290373
0.00225647
0.00145827
0.00221652
0.00152358
0.000968355
0.00149628
0.00144572
0.00034337
0.000651128
0.00106266
0.000957279
0.491405
0.475764
0.46058
0.446015
0.431829
0.417785
0.403779
0.389751
0.375627
0.361319
0.346738
0.331787
0.316352
0.300293
0.283453
0.265691
0.246913
0.227119
0.20643
0.1851
0.163512
0.142145
0.121514
0.102105
0.0843095
0.0683847
0.0544484
0.0424942
0.0324234
0.0240765
0.0172631
0.0117828
0.00743618
0.00448317
0.00368814
0.00405137
0.00424248
0.00430514
0.00427118
0.00431593
0.00442167
0.0045314
0.00453101
0.00444829
0.00431077
0.00413345
0.00392937
0.00370526
0.00346645
0.00321805
0.00296416
0.00271194
0.00247121
0.00225184
0.00206706
0.00192882
0.00184826
0.00183231
0.00187843
0.00197002
0.00207005
0.00212022
0.00203361
0.00194336
0.00186427
0.00153999
0.000914702
0.00136044
0.00184818
0.00188703
0.00150239
0.000834674
8.75411e-05
0.000633633
0.00131991
0.00180493
0.00170793
0.000934932
0.0011997
0.00374419
0.00704959
0.00829562
0.00736625
0.00768382
0.00706677
0.00594846
0.0119875
0.0138518
0.00430778
0.0117121
0.0223515
0.0121848
0.0191318
0.00646278
0.00142633
0.00427662
0.00280735
0.00205662
0.00665695
0.0124635
0.0137925
0.0106304
0.0066589
0.00427277
0.00561412
0.00626234
0.00645096
0.00420258
0.00320931
0.00239912
0.00152648
0.00244137
0.00169138
0.00103969
0.00164968
0.00157485
0.000384735
0.000730096
0.00117113
0.00104307
0.481087
0.465554
0.450483
0.436037
0.422026
0.408249
0.394628
0.38113
0.367714
0.354329
0.340933
0.327487
0.313942
0.300219
0.286196
0.271715
0.256594
0.240662
0.223794
0.205952
0.187214
0.167794
0.148044
0.128419
0.109422
0.0915321
0.0751413
0.060509
0.0477535
0.0368687
0.027756
0.0202589
0.014188
0.00934861
0.00554918
0.00370952
0.00368032
0.00393431
0.00404512
0.00404895
0.0040772
0.00416664
0.00433162
0.0043762
0.00433176
0.00422162
0.00406497
0.00387284
0.00365382
0.00341551
0.00316377
0.00290738
0.00265818
0.00242785
0.00223199
0.00208493
0.00200022
0.00198686
0.0020437
0.00215418
0.00227949
0.00235792
0.00229582
0.00213677
0.00199074
0.00166649
0.0010184
0.00132039
0.00190648
0.00201482
0.00165325
0.000963744
0.000154742
0.00065983
0.0013923
0.00188845
0.00172876
0.000786128
0.00152664
0.00442231
0.00784198
0.00877678
0.00760558
0.00813654
0.0074433
0.00644535
0.0126014
0.0142866
0.0059384
0.0112719
0.0224793
0.0103197
0.0203138
0.00759421
0.00133993
0.00451583
0.00283433
0.0025384
0.00778674
0.0137225
0.0143031
0.0106919
0.00663962
0.00450897
0.00582183
0.00646008
0.00674277
0.00452023
0.00353946
0.0025346
0.00156222
0.00265124
0.00187339
0.00108955
0.00179448
0.00169838
0.000433342
0.000805641
0.00127825
0.00112519
0.47153
0.456111
0.441157
0.42683
0.412974
0.399419
0.386097
0.372987
0.36006
0.347278
0.334612
0.322046
0.309571
0.297167
0.284788
0.272344
0.2597
0.246682
0.233093
0.218747
0.203501
0.187289
0.170166
0.152326
0.134104
0.115943
0.0983425
0.0817809
0.066648
0.0531991
0.0415447
0.0316707
0.0234702
0.0167826
0.0114197
0.00718696
0.0041883
0.00327152
0.00359223
0.00375592
0.00380361
0.00380714
0.00389549
0.00409841
0.00419484
0.00418867
0.00410781
0.00396979
0.0037878
0.00357307
0.00333393
0.00308128
0.00282944
0.00259219
0.00238781
0.00223332
0.00214496
0.00213412
0.00220137
0.00233063
0.00248192
0.00259076
0.00255818
0.0023184
0.00209782
0.00178069
0.00111819
0.00123385
0.00191965
0.00210673
0.00178172
0.00108422
0.000232924
0.000677192
0.0014422
0.00194432
0.00171554
0.000590971
0.00191989
0.00514661
0.00857293
0.00914322
0.00780861
0.00861739
0.00779059
0.00693818
0.0131248
0.0144238
0.00742042
0.0107885
0.0225682
0.0080597
0.0212612
0.00872666
0.00132429
0.00467315
0.00278866
0.0030742
0.00892808
0.014833
0.0146125
0.0106955
0.00666514
0.00473804
0.0060336
0.00663154
0.00700614
0.00484247
0.00389217
0.00268859
0.00157827
0.00283823
0.00207048
0.00111118
0.00192742
0.001816
0.000490011
0.000877848
0.00138432
0.00120383
0.462663
0.447357
0.432521
0.418308
0.404592
0.391223
0.378144
0.365337
0.35278
0.34044
0.328288
0.316309
0.304502
0.292872
0.281416
0.270111
0.258899
0.247681
0.23631
0.224603
0.212359
0.199379
0.185506
0.170663
0.154891
0.138376
0.121444
0.104539
0.0881583
0.0727834
0.0588
0.0464531
0.0358372
0.0269218
0.0195886
0.0136678
0.00897116
0.00530534
0.00339459
0.00321787
0.00344327
0.00353369
0.00352894
0.00365063
0.00383999
0.00398734
0.0040222
0.00396872
0.00384742
0.0036747
0.00346243
0.00322435
0.00297789
0.00273937
0.00253016
0.00237036
0.00227923
0.00227094
0.00234822
0.00249601
0.00267383
0.00281507
0.00281695
0.00257418
0.00226418
0.001877
0.00120833
0.00109907
0.00188309
0.00215608
0.0018804
0.00118895
0.000306424
0.000675833
0.00146943
0.00197184
0.00166764
0.000365012
0.00234332
0.00587168
0.00922513
0.009404
0.00800755
0.00913129
0.00809291
0.00740801
0.0135342
0.0143531
0.00871633
0.0102269
0.0226675
0.00547956
0.0219448
0.00983213
0.00164702
0.00473537
0.00265895
0.00365364
0.0100534
0.0157695
0.0147441
0.0106713
0.0067472
0.00494448
0.00626077
0.00678892
0.00724569
0.00516141
0.00426021
0.00286162
0.00157044
0.00299424
0.00228117
0.00109809
0.0020451
0.00192739
0.000555069
0.000947002
0.00148951
0.00127945
0.454422
0.439227
0.424506
0.410403
0.396811
0.383604
0.370726
0.358163
0.345898
0.333901
0.322143
0.310604
0.299278
0.288168
0.277284
0.266632
0.256205
0.245971
0.235864
0.225772
0.215547
0.205001
0.193926
0.182116
0.16941
0.155725
0.141098
0.12571
0.109888
0.094079
0.0787871
0.0644944
0.0515796
0.0402702
0.0306393
0.0226335
0.0161201
0.0109199
0.00684175
0.00383181
0.00281507
0.00310241
0.00324572
0.00328352
0.00338393
0.00355297
0.00375596
0.00383075
0.0038032
0.0036981
0.00353249
0.00332399
0.0030941
0.00286228
0.00265353
0.00249155
0.00239913
0.00239368
0.00248063
0.00264657
0.00285137
0.00302685
0.00306801
0.00285909
0.00244353
0.00194993
0.00128286
0.000916119
0.00179429
0.00215757
0.00194232
0.00127054
0.00036866
0.00065634
0.00147456
0.0019708
0.00158524
0.000321237
0.00278739
0.00657904
0.00978718
0.00957798
0.00823169
0.00967101
0.00833387
0.00783403
0.0138197
0.0142199
0.00979748
0.00955327
0.022821
0.00517413
0.0223391
0.0108828
0.00222076
0.00469185
0.00243538
0.00431547
0.0111822
0.0165142
0.0147302
0.0106415
0.00688577
0.00510664
0.00650749
0.00694341
0.00746596
0.00547203
0.00463069
0.00305906
0.00155079
0.00311239
0.00250095
0.00104444
0.00214393
0.00203201
0.000628373
0.00101338
0.00159371
0.00135255
0.446754
0.431664
0.417055
0.403054
0.389576
0.376509
0.363801
0.35144
0.339412
0.327689
0.316243
0.305052
0.294103
0.283393
0.272925
0.262709
0.252755
0.243065
0.233624
0.224393
0.215296
0.206221
0.197015
0.187486
0.177422
0.166618
0.15491
0.142216
0.128571
0.114157
0.0993067
0.084474
0.0701717
0.056882
0.0449725
0.0346471
0.0259512
0.0188065
0.0130616
0.00853385
0.0050271
0.00305652
0.00273701
0.0029419
0.00301982
0.00309748
0.00323923
0.00349835
0.0036125
0.00361139
0.0035203
0.00336256
0.00316508
0.00295132
0.00275069
0.00259124
0.00249991
0.00249802
0.00259439
0.00277805
0.00301016
0.00322157
0.00330667
0.0031402
0.0026376
0.00202625
0.00133647
0.000687301
0.00165293
0.00210782
0.00196149
0.00132155
0.000412305
0.000620001
0.00145849
0.00194128
0.00146878
0.000489036
0.00326385
0.0072509
0.0102525
0.00969002
0.00850156
0.0102182
0.00850191
0.00819395
0.0139718
0.0141135
0.010894
0.00905044
0.0230426
0.0074198
0.0224102
0.0118515
0.0028264
0.00453564
0.00211171
0.00514298
0.0123701
0.0170572
0.0146072
0.0106207
0.00706955
0.00520127
0.00676829
0.00710239
0.00766993
0.00577357
0.00498741
0.00328211
0.0015398
0.0031882
0.00272185
0.000945577
0.00221996
0.00212878
0.000709142
0.00107723
0.00169619
0.00142354
0.439609
0.424618
0.410115
0.396212
0.382838
0.369894
0.357333
0.345143
0.333309
0.321809
0.310616
0.299706
0.289063
0.278677
0.268545
0.258669
0.249058
0.239721
0.230664
0.221884
0.21336
0.205045
0.196861
0.188694
0.180385
0.171742
0.162555
0.15262
0.141775
0.129938
0.117148
0.10359
0.0896051
0.0756577
0.0622694
0.0499211
0.0389646
0.0295755
0.0217654
0.015432
0.0104051
0.00649329
0.00350691
0.00238528
0.00261289
0.00274272
0.00278986
0.00296653
0.00321287
0.00336737
0.00339132
0.0033146
0.00317225
0.00299304
0.00281182
0.00266199
0.00257557
0.0025787
0.0026845
0.00288542
0.0031451
0.003394
0.00352747
0.00341172
0.00295014
0.00220022
0.00136434
0.000495417
0.001462
0.00200605
0.00193363
0.00133514
0.00042972
0.000568352
0.00142215
0.00188364
0.00132004
0.000757641
0.00382014
0.00787102
0.0106205
0.00976775
0.00882513
0.0107471
0.00859485
0.00846462
0.0139783
0.0140237
0.0120539
0.00919221
0.0235611
0.00985803
0.0220873
0.0127096
0.00343703
0.00426366
0.00168559
0.00598711
0.0134625
0.0174005
0.0144137
0.0106178
0.00727976
0.00521094
0.00702978
0.00726885
0.00785891
0.00606582
0.00531231
0.00352944
0.00156342
0.00321987
0.00293293
0.000853222
0.00226883
0.00221588
0.000795559
0.00113887
0.00179542
0.00149257
0.432944
0.418048
0.403645
0.389834
0.376554
0.36372
0.351288
0.339243
0.327573
0.316258
0.305272
0.294591
0.284199
0.274081
0.264229
0.254638
0.245311
0.236251
0.227468
0.218969
0.210755
0.202816
0.195128
0.18764
0.180274
0.172909
0.165387
0.157518
0.149094
0.139916
0.129824
0.11874
0.106706
0.0939136
0.0807126
0.0675801
0.0550461
0.0435891
0.0335398
0.0250418
0.0180701
0.0124934
0.00813059
0.00478013
0.00273449
0.00226346
0.00245137
0.00252618
0.00269452
0.00289717
0.00309225
0.00314191
0.00308809
0.0029677
0.00282278
0.00269347
0.00261815
0.00262904
0.00274484
0.00296268
0.00325008
0.00353792
0.00372394
0.00366697
0.00325896
0.00242815
0.00143207
0.000420308
0.00122682
0.00185399
0.00185665
0.0013057
0.000434395
0.000523395
0.00136627
0.0017984
0.00114144
0.00103555
0.00436476
0.00842539
0.0108959
0.00983552
0.00919683
0.0112301
0.00862153
0.00862411
0.0138317
0.0139058
0.0130459
0.00957207
0.0239503
0.0120101
0.0212201
0.0134215
0.00402703
0.00388155
0.00115941
0.00683168
0.0144388
0.0175548
0.0141859
0.0106371
0.00749446
0.00512864
0.00727474
0.0074437
0.00803473
0.00634487
0.00558769
0.00379696
0.00164244
0.00320797
0.00312189
0.000932619
0.00228583
0.00229053
0.000884254
0.00119884
0.00188903
0.00155927
0.426722
0.411914
0.397605
0.38388
0.370688
0.357953
0.345633
0.333715
0.322185
0.311025
0.300211
0.28972
0.279535
0.269639
0.260022
0.250674
0.24159
0.23277
0.224218
0.215938
0.207937
0.200218
0.19278
0.185609
0.178676
0.171931
0.16529
0.158631
0.1518
0.144608
0.136854
0.128343
0.118918
0.108505
0.0971507
0.0850535
0.0725734
0.0602004
0.0484727
0.0378642
0.0286813
0.0210279
0.0148444
0.00996927
0.0062078
0.00336143
0.00210708
0.00214227
0.00227085
0.00240232
0.00255245
0.00278474
0.00286996
0.00284542
0.00276248
0.00267064
0.00261652
0.00264018
0.00276763
0.00300237
0.00331765
0.00364586
0.00388827
0.00389798
0.00355558
0.00277095
0.0016012
0.0003975
0.000954129
0.00165618
0.0017311
0.00128271
0.000507619
0.000585103
0.0013541
0.00168613
0.000936103
0.001312
0.00488122
0.00890259
0.0110874
0.00991028
0.00959962
0.0116434
0.00860162
0.00865467
0.0135324
0.0137299
0.0138666
0.0101456
0.0238674
0.0136829
0.0195802
0.0139382
0.00456874
0.0034012
0.00110221
0.00766344
0.0152868
0.0175456
0.0139575
0.0106796
0.00769366
0.0049594
0.00748664
0.00762894
0.00820516
0.00660993
0.00580356
0.00407593
0.0017826
0.00315576
0.00327786
0.00116366
0.00226594
0.00234931
0.000969875
0.0012577
0.00197404
0.00162263
0.420907
0.406182
0.391961
0.378317
0.365206
0.35256
0.340341
0.328534
0.317125
0.306097
0.295428
0.285096
0.275083
0.265373
0.255953
0.24681
0.237937
0.229327
0.220978
0.212893
0.205073
0.197525
0.19025
0.18325
0.176518
0.170041
0.163789
0.157704
0.151703
0.145666
0.139442
0.132848
0.125688
0.11777
0.108944
0.0991398
0.0884067
0.0769511
0.0651431
0.0534852
0.0425239
0.0327244
0.0243664
0.0175111
0.0120588
0.00782616
0.00460573
0.00245013
0.00181334
0.00200083
0.00208892
0.00228721
0.00245272
0.00257807
0.00259768
0.00257054
0.0025543
0.00259977
0.00274269
0.00299517
0.00333859
0.0037087
0.00401101
0.00409526
0.00383071
0.00310733
0.00196543
0.000584805
0.000686977
0.00142169
0.00166049
0.00138401
0.000641886
0.000686458
0.0014149
0.00162143
0.000816706
0.00166656
0.00535359
0.00929374
0.0112052
0.00999947
0.0100092
0.0119722
0.00856076
0.00854335
0.0130854
0.0134751
0.0145013
0.0109052
0.0237262
0.0153903