/*--------------------------------*- C++ -*----------------------------------*\
| =========                 |                                                 |
| \\      /  F ield         | OpenFOAM: The Open Source CFD Toolbox           |
|  \\    /   O peration     | Version:  2412                                  |
|   \\  /    A nd           | Website:  www.openfoam.com                      |
|    \\/     M anipulation  |                                                 |
\*---------------------------------------------------------------------------*/
FoamFile
{
    version     2.0;
    format      ascii;
    arch        "LSB;label=32;scalar=64";
    class       surfaceScalarField;
    location    "0.33";
    object      ddtCorrDdt0(phi);
}
// * * * * * * * * * * * * * * * * * * * * * * * * * * * * * * * * * * * * * //

dimensions      [0 3 -2 0 0 0 0];

oriented        oriented;

internalField   nonuniform List<scalar> 
24930
(
0.00135151
0.00208816
-0.00244696
0.000442547
0.00100612
0.000180658
0.000541628
0.0001549
0.000396417
0.000139847
0.000328777
8.12113e-05
0.000236415
1.21437e-05
0.000134149
-3.91052e-05
5.46154e-05
-7.75253e-05
1.02286e-05
-0.000107927
-7.00352e-06
-0.000122193
-6.46495e-07
-0.000112654
1.94736e-05
-8.82103e-05
3.20578e-05
-7.02111e-05
1.92974e-05
-7.39472e-05
-1.46539e-05
-9.64768e-05
-4.60991e-05
-0.000121094
-5.39858e-05
-0.000131198
-3.80988e-05
-0.000120793
-1.59283e-05
-9.59359e-05
-4.72603e-06
-6.96086e-05
-8.23064e-06
-5.44332e-05
-1.86194e-05
-5.61227e-05
-2.72396e-05
-7.00937e-05
-3.13693e-05
-8.38422e-05
-3.21869e-05
-8.51406e-05
-2.96627e-05
-7.11339e-05
-2.18018e-05
-5.10063e-05
-8.7832e-06
-3.90198e-05
3.90434e-06
-4.29495e-05
8.23139e-06
-5.7723e-05
5.17293e-07
-7.0148e-05
-1.43179e-05
-7.08384e-05
-2.58305e-05
-6.2577e-05
-2.62918e-05
-5.73636e-05
-1.67102e-05
-6.4705e-05
-5.36891e-06
-8.22745e-05
-2.11252e-07
-9.78038e-05
-2.48859e-06
-0.000100725
-6.80698e-06
-9.19835e-05
-7.30939e-06
-8.287e-05
-2.54511e-06
-8.36308e-05
4.22252e-06
-9.4211e-05
9.69576e-06
-0.0001052
1.19121e-05
-0.000108584
9.71887e-06
-0.000104701
-1.66086e-07
-0.000100624
-1.79351e-05
-0.000100516
-3.72057e-05
-0.000102784
-4.37004e-05
-0.000102966
-3.02333e-05
-0.000101088
-5.83702e-06
-9.94455e-05
4.63369e-06
-9.89533e-05
-1.36225e-05
-9.69005e-05
-4.79844e-05
-9.27577e-05
-6.23957e-05
-9.09711e-05
-3.15587e-05
-9.37673e-05
2.95913e-05
-9.81573e-05
7.63724e-05
-9.57017e-05
6.57924e-05
-9.188e-05
6.71301e-06
-9.33039e-05
-5.8508e-05
-0.000105094
-6.60648e-05
-0.000105269
-7.95773e-06
-8.74716e-05
8.60444e-05
-6.46971e-05
0.000130525
-7.65265e-05
8.89865e-05
-0.00011886
-2.92132e-05
-0.000140417
-0.000134406
-0.000100874
-0.000144981
-2.7724e-05
-2.10859e-05
-2.00887e-05
0.00021792
-8.29896e-05
0.000402088
-0.000148721
0.000335047
-9.53854e-05
-0.000173438
2.42998e-05
-0.000808519
7.07472e-05
-0.000996493
-4.43491e-05
-0.00018223
-0.000254335
0.00123514
-0.000342887
0.00151551
-0.000275038
0.000353128
-5.30829e-05
-0.0014241
0.000146278
-0.00184218
0.000182737
-0.00051467
2.35075e-05
0.00121265
-0.000294809
0.00217266
-0.00041447
0.000462098
-0.000249756
-0.00147035
4.44126e-05
-0.00168949
0.000295863
-0.000913047
0.000330226
-0.000159334
0.000394676
0.000394606
0.000435955
0.000455536
-0.000200627
0.00185667
-0.000825863
0.000825701
-0.000805271
-0.00224063
-0.000114063
-0.0049321
0.000276982
-0.00460331
-0.000760088
0.00325981
-0.00298268
0.00923267
-0.00463504
0.00863861
-0.00446547
0.00106543
-0.00344228
-0.00165329
-0.00264648
-0.0025554
-0.00249165
-0.00229892
-0.00265748
-0.00154632
-0.00306429
-0.000691955
-0.00367318
0.000362353
-0.00503912
0.00212975
-0.00648334
0.00282811
-0.00571204
0.000325176
-0.00189208
-0.00328263
0.00350313
-0.00511555
0.00857475
-0.0184413
0.0120632
-0.0068628
0.0120555
0.000207692
0.00926895
0.003492
0.00297852
0.00636951
-0.00332884
0.00618394
-0.0106904
0.00736266
0.00254904
0.00248745
0.0024992
-0.00290369
0.00179397
0.00203686
0.00125364
0.00154144
0.00086852
0.00118326
0.000582463
0.000840748
0.000358989
0.000513235
0.000189392
0.000257536
6.07573e-05
0.00011046
-4.24653e-05
6.49158e-05
-0.000126244
8.05587e-05
-0.000182436
0.000107889
-0.000205613
0.000105723
-0.000206584
5.75705e-05
-0.000207282
-1.90175e-05
-0.000224025
-8.37198e-05
-0.000256175
-0.000103338
-0.000289115
-7.66374e-05
-0.000306597
-3.27345e-05
-0.000301685
-6.22411e-06
-0.00027988
-1.21095e-05
-0.000254909
-4.02798e-05
-0.000240812
-6.94447e-05
-0.000244083
-8.46224e-05
-0.000259656
-8.36486e-05
-0.000273848
-7.18072e-05
-0.000273706
-5.43118e-05
-0.000256801
-3.47594e-05
-0.00023356
-1.83331e-05
-0.000219313
-1.27324e-05
-0.000221921
-2.32537e-05
-0.000235507
-4.63572e-05
-0.000246024
-6.94255e-05
-0.000244014
-7.89826e-05
-0.000232995
-7.10862e-05
-0.000225752
-5.39919e-05
-0.000231774
-4.02038e-05
-0.000247907
-3.44171e-05
-0.000261048
-2.96457e-05
-0.000260819
-1.47213e-05
-0.00024939
1.23993e-05
-0.000239533
4.11524e-05
-0.000241884
5.60418e-05
-0.000255589
5.20967e-05
-0.000269687
3.68562e-05
-0.000275364
2.35007e-05
-0.000272767
1.40019e-05
-0.000269499
2.45476e-06
-0.000269461
-1.858e-05
-0.000271015
-4.08134e-05
-0.000269359
-5.34696e-05
-0.000265503
-5.07136e-05
-0.000262246
-4.71654e-05
-0.000261206
-5.4568e-05
-0.000259267
-7.2014e-05
-0.000255822
-8.1231e-05
-0.000255372
-7.08657e-05
-0.000259491
-5.26967e-05
-0.000265388
-3.70169e-05
-0.000263074
-3.37016e-05
-0.00026101
-1.85906e-05
-0.000264298
-9.14921e-06
-0.000281452
5.59933e-06
-0.00028413
-1.00095e-06
-0.000269901
3.0468e-05
-0.00024763
7.49649e-05
-0.000264227
0.000116634
-0.000308788
5.63198e-05
-0.00032706
-7.31332e-05
-0.000274656
-0.000149769
-0.000178581
-9.60655e-05
-0.000154008
8.01775e-05
-0.000193979
0.00011579
-0.000248002
5.67886e-05
-0.000173387
-0.000101384
-6.36314e-05
-3.34286e-05
-6.80322e-05
0.00016113
-0.000293016
0.000365748
-0.000656153
0.000478871
-0.000837698
0.000283474
-0.000750393
3.4689e-05
-0.000247053
-0.000584165
0.000325355
-0.00083349
0.000501665
-0.000437215
-1.78725e-05
0.000584731
-0.0010081
0.0016285
-0.00132145
0.000867227
-0.000671707
-0.000617819
0.000288699
-0.00127776
0.000769354
-0.000742808
0.000520799
0.000410832
0.000599596
9.7427e-05
0.000865503
-0.000287959
-0.000497703
0.00182887
-0.00241474
0.002874
-0.00272956
0.00064957
-0.00114419
-0.00251039
-0.000241734
-0.00195025
-0.00328599
0.00309121
-0.00972793
0.00999445
-0.0147141
0.00711672
-0.0142431
0.000126314
-0.0112734
-0.00337786
-0.00880083
-0.00340741
-0.00825212
-0.00150134
-0.00906466
0.000127798
-0.010653
0.00138359
-0.0127024
0.00221116
-0.0163538
0.00476822
-0.0194755
0.00506735
-0.0164578
-0.00214301
-0.0051223
-0.0123813
0.0105395
-0.0182833
0.0251834
-0.0199379
0.0343324
-0.0137808
0.0326779
-9.16827e-05
0.0215595
0.0144639
0.00110828
0.0262312
-0.0192639
0.0265685
-0.038598
0.0263222
0.00856052
0.00299219
0.00255062
-0.00301919
0.00270035
0.00245436
0.00227913
0.00217248
0.00179516
0.00178344
0.00131859
0.00128335
0.000921416
0.00078507
0.00062518
0.000431214
0.000400888
0.000266376
0.000210442
0.000240306
4.13462e-05
0.000265837
-9.33205e-05
0.000269249
-0.000180666
0.000213298
-0.000227467
0.000103821
-0.000257428
-1.6119e-05
-0.000293715
-9.24271e-05
-0.000343646
-9.75602e-05
-0.000396782
-4.96975e-05
-0.000435599
3.76631e-06
-0.000449165
2.2471e-05
-0.00044043
-2.06893e-06
-0.000423865
-4.92319e-05
-0.000416208
-9.06733e-05
-0.000426057
-0.00010966
-0.00044849
-0.000105529
-0.000468576
-8.62559e-05
-0.000472269
-6.04589e-05
-0.000457227
-3.57648e-05
-0.000434935
-2.07517e-05
-0.000421689
-2.37451e-05
-0.000425384
-4.68629e-05
-0.000439328
-8.11528e-05
-0.000448679
-0.00010985
-0.000444009
-0.00011928
-0.000429682
-0.000108832
-0.000419349
-9.01215e-05
-0.000422576
-7.56709e-05
-0.000435503
-6.64322e-05
-0.000444362
-5.15694e-05
-0.000439061
-1.97872e-05
-0.000423027
2.58531e-05
-0.000410386
6.83246e-05
-0.00041209
8.80369e-05
-0.000426386
8.15001e-05
-0.000440863
5.95962e-05
-0.000445913
3.91402e-05
-0.000441703
2.16276e-05
-0.000436376
1.31799e-06
-0.000433938
-3.03491e-05
-0.000432753
-6.21012e-05
-0.000428018
-8.33782e-05
-0.000421493
-8.64035e-05
-0.000416493
-8.80355e-05
-0.000414991
-9.78412e-05
-0.000413451
-0.000115328
-0.000411189
-0.000121563
-0.000412635
-0.000107233
-0.000419094
-8.79921e-05
-0.0004273
-6.9841e-05
-0.000426544
-6.51946e-05
-0.000426748
-3.63373e-05
-0.000433132
-1.35308e-05
-0.000455535
2.8853e-05
-0.000461775
3.6459e-05
-0.000450618
8.68558e-05
-0.000428891
0.000118694
-0.000448443
0.000142409
-0.000492921
4.39904e-05
-0.000505857
-0.000104558
-0.000437165
-0.000176261
-0.000318131
-0.000123829
-0.00027369
5.35013e-05
-0.000295001
3.28317e-05
-0.000339679
9.73913e-06
-0.000254593
-7.7162e-05
-0.000166667
0.000188423
-0.000235867
0.000499473
-0.00058683
0.000697389
-0.00110211
0.000718713
-0.00136761
0.000313543
-0.00121942
-5.68945e-05
-0.000402617
-0.00110868
0.000525517
-0.00152718
0.000762317
-0.000595769
-0.000225539
0.00156329
-0.00188379
0.00320655
-0.00229714
0.00123038
-0.00108487
-0.00184182
0.000514869
-0.00281264
0.00109467
-0.00103014
0.000509761
0.00140418
0.000618685
0.00022168
0.000993237
-0.000791887
-0.00126144
0.00370153
-0.00451968
0.00595286
-0.00508636
0.00174656
-0.00261576
-0.00414105
-0.00161626
-0.00263803
-0.00725719
0.00806094
-0.0183166
0.0191468
-0.025792
0.0141081
-0.0253339
-8.50342e-05
-0.0202552
-0.00808736
-0.016195
-0.00735643
-0.0154489
-0.00228996
-0.0171385
0.00177283
-0.0201346
0.00425134
-0.0239019
0.00570384
-0.0298576
0.0104751
-0.0338934
0.00954998
-0.0273646
-0.00715046
-0.0073673
-0.0300758
0.0188615
-0.0426621
0.0422084
-0.0423226
0.0549053
-0.0271991
0.0488833
0.00465067
0.026538
0.0337354
-0.00993564
0.0621841
-0.0454384
0.0617853
-0.0753066
0.0557574
0.016652
0.0032358
0.00238717
-0.00315184
0.00318374
0.00244182
0.00295156
0.00233069
0.00254305
0.0020064
0.00206145
0.00150038
0.0016238
0.000987968
0.00127865
0.000650644
0.000991943
0.000529432
0.0007134
0.00053556
0.000435199
0.000549161
0.000189997
0.000498141
1.03483e-05
0.000373545
-0.000101823
0.000209914
-0.000174055
6.27627e-05
-0.000240989
-1.7662e-05
-0.000321382
-1.67375e-05
-0.000409602
3.37182e-05
-0.000484989
7.94297e-05
-0.000530173
8.24938e-05
-0.000544379
4.1718e-05
-0.000543356
-1.71055e-05
-0.00054786
-6.53868e-05
-0.000569636
-8.86192e-05
-0.000604297
-8.74525e-05
-0.000635636
-6.97116e-05
-0.000648363
-4.42429e-05
-0.000640069
-2.05621e-05
-0.000623114
-9.79116e-06
-0.000614587
-2.11644e-05
-0.000622344
-5.48928e-05
-0.00063897
-9.85196e-05
-0.000649034
-0.000132887
-0.000643333
-0.000144782
-0.000627151
-0.000136152
-0.000614988
-0.00012035
-0.000616475
-0.000108652
-0.00062713
-9.81518e-05
-0.000632667
-7.50515e-05
-0.000623387
-2.87544e-05
-0.000603922
3.2666e-05
-0.000589556
8.68628e-05
-0.000591319
0.000111255
-0.000606441
0.000104012
-0.000621112
7.81333e-05
-0.000625097
5.26324e-05
-0.000618735
2.76411e-05
-0.000610814
-1.7825e-06
-0.000605473
-4.44097e-05
-0.000601159
-8.49623e-05
-0.000593153
-0.000113308
-0.000584048
-0.000119886
-0.000577657
-0.000124725
-0.000576164
-0.000135593
-0.000575488
-0.000153274
-0.000574762
-0.000157745
-0.000578454
-0.000140501
-0.000587571
-0.000119644
-0.000598485
-9.67002e-05
-0.000599567
-8.96945e-05
-0.000602313
-4.80226e-05
-0.000611834
-1.574e-05
-0.000639331
5.33209e-05
-0.000648372
7.42844e-05
-0.000638849
0.000144786
-0.000615578
0.000158946
-0.000635559
0.000162474
-0.00067729
2.3114e-05
-0.000681799
-0.000143922
-0.000593771
-0.000219885
-0.00044924
-0.0001828
-0.000384426
-4.81854e-06
-0.000389691
-6.28876e-05
-0.000430827
-1.31536e-05
-0.000344826
-2.8358e-05
-0.00029078
0.000427322
-0.000438515
0.00085622
-0.000925101
0.00112498
-0.00159059
0.00115059
-0.00192184
0.000503924
-0.00168008
-0.000198048
-0.000530889
-0.00202553
0.000718516
-0.00262349
0.000927966
-0.000788612
-0.000610265
0.00307575
-0.00292308
0.00552171
-0.00334761
0.00166546
-0.00152038
-0.00366567
0.000655722
-0.00490185
0.00121041
-0.00130244
0.00023966
0.00274266
0.000367492
0.000272008
0.000706427
-0.0012973
-0.00266252
0.00668825
-0.00736296
0.0105546
-0.00818215
0.00293963
-0.00489099
-0.00678724
-0.00427944
-0.00313544
-0.0129917
0.0160628
-0.028196
0.0331784
-0.0390288
0.0246192
-0.0377964
-0.000974458
-0.0305401
-0.0149433
-0.0250013
-0.0128355
-0.0242692
-0.00320816
-0.0270722
0.00436787
-0.0317173
0.00864118
-0.0373987
0.0109985
-0.045514
0.018289
-0.0496299
0.0141574
-0.038426
-0.016639
-0.00893133
-0.0570216
0.0278072
-0.0773025
0.0584441
-0.0718087
0.0723341
-0.0419692
0.0590129
0.0164774
0.022827
0.0684967
-0.0313709
0.115637
-0.0827283
0.11268
-0.12183
0.0943081
0.0252071
0.00341377
0.00217068
-0.00337869
0.00342857
0.0022118
0.00328979
0.00217362
0.00298069
0.0019281
0.00260105
0.00151533
0.00226045
0.00111069
0.00198763
0.000881888
0.00172441
0.000848463
0.00140707
0.000896374
0.00103918
0.000894006
0.000684754
0.000786572
0.000406651
0.000601804
0.000220397
0.000400366
9.50599e-05
0.000238304
-1.58132e-05
0.00015183
-0.000142009
0.000143582
-0.0002818
0.000177863
-0.000410128
0.00020304
-0.000501726
0.000187147
-0.000551206
0.000133912
-0.000575796
6.90819e-05
-0.000601152
1.65614e-05
-0.000642917
-1.37719e-05
-0.000697531
-2.31277e-05
-0.00074753
-1.64139e-05
-0.000776349
2.45968e-07
-0.000781434
1.73565e-05
-0.000775851
2.17997e-05
-0.000777275
2.7578e-06
-0.000793421
-3.96571e-05
-0.000816245
-9.13827e-05
-0.000829963
-0.00013224
-0.000825822
-0.000149672
-0.000810149
-0.000147275
-0.000798313
-0.000138936
-0.000800017
-0.000134085
-0.000810216
-0.000126157
-0.00081421
-9.88803e-05
-0.000802771
-4.22912e-05
-0.000781695
3.12572e-05
-0.000767281
9.51277e-05
-0.000770449
0.000124116
-0.000787347
0.000117661
-0.000802806
8.97184e-05
-0.000806129
6.07078e-05
-0.000797928
2.89504e-05
-0.000787719
-9.14403e-06
-0.000779792
-6.2193e-05
-0.000772767
-0.00011022
-0.000762088
-0.000143794
-0.00075126
-0.000151566
-0.000744523
-0.000157589
-0.000744123
-0.000167968
-0.000745322
-0.000185179
-0.000747
-0.000187672
-0.00075381
-0.000167161
-0.000766385
-0.000144122
-0.000780856
-0.000115169
-0.000784338
-0.000105999
-0.000790113
-5.19293e-05
-0.000802774
-1.31529e-05
-0.000835118
8.19436e-05
-0.000845828
0.000114286
-0.00083616
0.000206425
-0.000808715
0.000199503
-0.000826088
0.000180436
-0.000861835
-7.42853e-06
-0.000854292
-0.00019755
-0.000743828
-0.000283029
-0.000571423
-0.000264942
-0.000486858
-8.19123e-05
-0.000479638
-0.000171543
-0.000524588
-2.66335e-05
-0.000448052
3.97016e-05
-0.000440049
0.000713074
-0.000678679
0.00128745
-0.00130627
0.00167607
-0.00211603
0.00173312
-0.0024912
0.000771303
-0.00212923
-0.000428248
-0.00064528
-0.00328038
0.000873766
-0.00401882
0.000961158
-0.000890293
-0.00119228
0.00519565
-0.00412707
0.0084881
-0.00448221
0.00207022
-0.00202192
-0.00610045
0.000633454
-0.00746823
0.00103236
-0.00142691
-0.000376252
0.00451136
-0.000278751
0.000337638
-0.000152188
-0.00161207
-0.00484166
0.0110021
-0.0110322
0.0167531
-0.0120385
0.00438774
-0.00806884
-0.0102569
-0.00808011
-0.00319298
-0.0206441
0.0278377
-0.0410131
0.0526262
-0.0540221
0.0374346
-0.0517497
-0.00282043
-0.0422562
-0.0240005
-0.0353764
-0.0196815
-0.0348858
-0.00394986
-0.0390414
0.00824073
-0.0455858
0.014852
-0.0533051
0.0182701
-0.0632871
0.0279632
-0.066562
0.0180241
-0.0496329
-0.0316611
-0.0101576
-0.0937274
0.0365456
-0.121779
0.0726296
-0.107308
0.085042
-0.0553518
0.0614458
0.0385076
0.00903479
0.119469
-0.0641119
0.18797
-0.131874
0.179916
-0.179175
0.141003
0.0325557
0.00357473
0.00200675
-0.00364392
0.00358219
0.00198828
0.00343529
0.00195107
0.00318542
0.00176651
0.00292746
0.00148015
0.00273604
0.00122661
0.00259854
0.00112256
0.00242441
0.0011646
0.00213456
0.00123897
0.00173877
0.00122458
0.00132531
0.0010858
0.000983481
0.000875088
0.000741783
0.00066574
0.000567711
0.000503833
0.000407476
0.00040802
0.000225584
0.000375695
2.30073e-05
0.000379437
-0.000170255
0.000377991
-0.000321032
0.000344724
-0.000418605
0.000283471
-0.000480862
0.000215862
-0.000538141
0.000159087
-0.000610188
0.000117841
-0.000694485
9.10717e-05
-0.000772451
7.85881e-05
-0.000826353
7.90918e-05
-0.000853475
8.46392e-05
-0.000867377
8.06646e-05
-0.000886032
5.42882e-05
-0.000916842
4.6109e-06
-0.000951193
-5.43779e-05
-0.000973156
-0.000102721
-0.000974657
-0.00012871
-0.0009632
-0.000136859
-0.000955081
-0.000140656
-0.000960095
-0.000147362
-0.00097267
-0.000147014
-0.000977727
-0.000121113
-0.000966543
-5.97911e-05
-0.000946061
2.14276e-05
-0.000933551
9.27119e-05
-0.000939752
0.000126296
-0.000959725
0.000122163
-0.00097699
9.39213e-05
-0.000980502
6.28336e-05
-0.0009712
2.52088e-05
-0.000959395
-2.04828e-05
-0.000949543
-8.26202e-05
-0.000940561
-0.000136139
-0.000928139
-0.000172898
-0.000916767
-0.000179606
-0.000911024
-0.000184934
-0.000913072
-0.000193105
-0.000917427
-0.00020866
-0.000922694
-0.000208455
-0.000933887
-0.000184198
-0.000951144
-0.000159236
-0.000970449
-0.00012418
-0.000977218
-0.000114238
-0.000986756
-4.80624e-05
-0.00100264
-5.47719e-06
-0.00103959
0.000115332
-0.0010507
0.000155258
-0.00103892
0.000268175
-0.00100441
0.0002345
-0.00101587
0.000190269
-0.00104217
-5.22749e-05
-0.00101878
-0.000268928
-0.000883052
-0.000367393
-0.00068095
-0.000371585
-0.000578531
-0.000177525
-0.000563718
-0.000293523
-0.000621271
-2.86505e-05
-0.000565319
0.000136456
-0.000614776
0.00106512
-0.000954318
0.00181575
-0.00172354
0.00235281
-0.00266801
0.00243853
-0.00306516
0.00106671
-0.00256596
-0.000775724
-0.000764569
-0.0048371
0.000954894
-0.00561629
0.000826558
-0.000790619
-0.00198441
0.00795955
-0.00549471
0.0120287
-0.00571933
0.00235773
-0.00265085
-0.009128
0.000352301
-0.0103729
0.000464802
-0.00125536
-0.00143694
0.00678443
-0.0014613
0.000527396
-0.00175736
-0.00152366
-0.00796314
0.0167988
-0.0156766
0.0244722
-0.0168699
0.00606632
-0.0124829
-0.0141182
-0.0138025
-0.00198336
-0.0305465
0.0436659
-0.0557683
0.0769431
-0.0708416
0.0523164
-0.0672754
-0.00591037
-0.0555219
-0.0352755
-0.0474491
-0.027721
-0.0474154
-0.00426859
-0.0531543
0.0136539
-0.0618341
0.0231495
-0.0716378
0.0275724
-0.0830836
0.039069
-0.0845976
0.0201875
-0.0611118
-0.0530704
-0.0115812
-0.140263
0.0441176
-0.175068
0.0834428
-0.145867
0.0916927
-0.0646913
0.0550097
0.0733995
-0.0156228
0.188535
-0.108487
0.279892
-0.193209
0.264013
-0.2482
0.195316
0.0372059
0.00371335
0.00198271
-0.00384141
0.00370953
0.00192163
0.00350997
0.00184834
0.00328946
0.00170395
0.00313586
0.00153097
0.00307954
0.00140533
0.00306433
0.00138177
0.00298078
0.00144284
0.00274821
0.0015036
0.00238232
0.00147389
0.00198004
0.00133412
0.00163905
0.00114035
0.00139005
0.000959136
0.00119656
0.000817392
0.00100167
0.000715566
0.0007713
0.000652607
0.000510393
0.00062034
0.00025379
0.000594497
4.06876e-05
0.00055137
-0.00011274
0.000488539
-0.000222833
0.000420365
-0.000322525
0.000358211
-0.000434862
0.000303126
-0.000558453
0.000254724
-0.000673952
0.000217853
-0.000762717
0.000196938
-0.00082185
0.000186764
-0.000865064
0.000172151
-0.000910163
0.000138224
-0.000963937
8.22402e-05
-0.00101718
1.67225e-05
-0.00105397
-3.9823e-05
-0.00106709
-7.69074e-05
-0.00106532
-9.94851e-05
-0.00106594
-0.000119953
-0.00107887
-0.00014324
-0.00109805
-0.000156288
-0.00110799
-0.000138501
-0.00110041
-7.92499e-05
-0.00108338
4.22778e-06
-0.00107521
8.02088e-05
-0.00108653
0.00011831
-0.00111143
0.000118101
-0.00113217
9.1306e-05
-0.00113738
5.95248e-05
-0.0011283
1.69661e-05
-0.00111608
-3.49477e-05
-0.00110535
-0.000104379
-0.0010955
-0.000160906
-0.00108256
-0.000198523
-0.00107208
-0.00020182
-0.00106889
-0.000204608
-0.00107493
-0.000208787
-0.00108393
-0.000221214
-0.00109424
-0.000217248
-0.00111145
-0.000188459
-0.00113504
-0.000162067
-0.00116089
-0.000121205
-0.00117218
-0.000112785
-0.00118652
-3.51762e-05
-0.00120586
7.72927e-06
-0.00124733
0.000153589
-0.00125753
0.000195947
-0.0012417
0.000327837
-0.00119709
0.000260422
-0.00119924
0.000188029
-0.00121253
-0.00011515
-0.0011695
-0.000361206
-0.0010061
-0.000473722
-0.00077309
-0.000501913
-0.00065608
-0.000287316
-0.000639752
-0.000423597
-0.000720125
-1.11304e-05
-0.000696138
0.000271982
-0.000813363
0.00149447
-0.00126087
0.00244987
-0.00216741
0.00315071
-0.00323419
0.0032516
-0.00363286
0.00136616
-0.00299274
-0.00124605
-0.000911991
-0.00665727
0.000924148
-0.00732988
0.000491963
-0.000399701
-0.00299424
0.0113856
-0.00702736
0.0160915
-0.00709076
0.00249412
-0.00348573
-0.0126826
-0.000294458
-0.0134588
-0.000596264
-0.000659771
-0.00306138
0.00963238
-0.00335073
0.000982141
-0.00430582
-0.000798488
-0.0122033
0.0242539
-0.0214667
0.0337518
-0.0229151
0.00804478
-0.0184612
-0.0180409
-0.0217525
0.00114198
-0.0429386
0.0640437
-0.0727692
0.105816
-0.0895321
0.0688887
-0.0844396
-0.0104736
-0.0704188
-0.0487699
-0.0612913
-0.0368098
-0.0618963
-0.00397476
-0.0694151
0.0208125
-0.080437
0.033748
-0.0922924
0.0388808
-0.104744
0.0511545
-0.103681
0.0198325
-0.0730973
-0.0814052
-0.0138458
-0.196284
0.0495168
-0.235842
0.0897389
-0.18539
0.0912062
-0.0673192
0.0391417
0.123319
-0.0513168
0.277283
-0.164206
0.39173
-0.266542
0.365642
-0.329592
0.257623
0.0380596
0.00382294
0.00208851
-0.00390762
0.00380818
0.00201166
0.00357054
0.00189853
0.00338241
0.00178489
0.003314
0.00169299
0.00335329
0.00164262
0.0034116
0.00163855
0.00337854
0.00166227
0.00319174
0.0016718
0.00287869
0.0016203
0.00253509
0.0014996
0.00225006
0.00135272
0.0020446
0.00122443
0.00187374
0.00111867
0.0016777
0.00101948
0.00142722
0.000930101
0.00113413
0.000866447
0.000836839
0.000825771
0.000576402
0.000785735
0.00037263
0.000731465
0.00021329
0.000666808
6.68614e-05
0.000599647
-9.07021e-05
0.000530775
-0.000258915
0.000461075
-0.000418271
0.000399265
-0.000549688
0.000354981
-0.000650028
0.000326492
-0.000732582
0.000299231
-0.000814226
0.000257138
-0.000900598
0.000195509
-0.000981732
0.000124409
-0.0010418
5.96767e-05
-0.00107447
9.93549e-06
-0.00108979
-3.00648e-05
-0.00110599
-7.11494e-05
-0.00113319
-0.000115857
-0.00116488
-0.000148385
-0.00118507
-0.000146179
-0.00118575
-9.68255e-05
-0.001176
-1.7507e-05
-0.00117527
5.98133e-05
-0.00119441
0.000102138
-0.0012268
0.000107494
-0.00125354
8.38837e-05
-0.00126289
5.26954e-05
-0.00125622
6.01555e-06
-0.00124545
-5.06544e-05
-0.00123543
-0.000125347
-0.00122624
-0.000182087
-0.00121436
-0.000218126
-0.00120653
-0.000215701
-0.00120766
-0.000214204
-0.00121942
-0.000212514
-0.00123476
-0.000220003
-0.00125189
-0.000210823
-0.00127718
-0.000176384
-0.00130924
-0.000149283
-0.00134388
-0.000103253
-0.00136139
-9.95985e-05
-0.00138201
-1.16849e-05
-0.0014054
2.69398e-05
-0.0014517
0.000196674
-0.00145997
0.000234649
-0.00143845
0.000382766
-0.00138087
0.000273164
-0.00137049
0.00016939
-0.00136734
-0.000200015
-0.00130109
-0.000477571
-0.00110809
-0.00060271
-0.000843571
-0.000655302
-0.000716467
-0.000406533
-0.000705583
-0.000556059
-0.000819984
3.50445e-05
-0.00083892
0.000455491
-0.00103242
0.00200906
-0.00159133
0.00319337
-0.0026259
0.00406011
-0.00380081
0.00415675
-0.00418432
0.00165114
-0.00341575
-0.00182764
-0.00111514
-0.0086813
0.000742715
-0.00906502
-6.9521e-05
0.000357596
-0.00422344
0.0154654
-0.00872994
0.0206254
-0.0086429
0.00248731
-0.00462311
-0.0166457
-0.00142456
-0.0165487
-0.00226266
0.000480495
-0.00538622
0.0131514
-0.00614106
0.00190266
-0.00800898
0.000813943
-0.0177481
0.0335102
-0.0285917
0.0446077
-0.0304423
0.0104535
-0.0263834
-0.0215452
-0.0320302
0.00659991
-0.0579608
0.0891642
-0.0920427
0.138874
-0.110092
0.0867466
-0.103271
-0.0167125
-0.0869711
-0.0644964
-0.0768874
-0.0468508
-0.0782438
-0.00295634
-0.0876757
0.0298515
-0.101198
0.0468099
-0.115016
0.0521076
-0.128046
0.0637928
-0.1238
0.0163534
-0.0859192
-0.116864
-0.0176411
-0.261095
0.0518492
-0.302566
0.0906788
-0.223469
0.083213
-0.0611759
0.01409
0.190414
-0.097231
0.386744
-0.230136
0.523476
-0.350966
0.485682
-0.423679
0.329528
0.034702
0.00390247
0.00219993
-0.0038776
0.00385627
0.00212888
0.00363146
0.00201017
0.00349562
0.00193329
0.00349579
0.0018926
0.00358967
0.00186982
0.0036743
0.00184387
0.0036524
0.00180579
0.00348884
0.00175454
0.00322616
0.00168351
0.00295364
0.00159162
0.00274418
0.00150101
0.00260564
0.00142959
0.00248531
0.00136198
0.00232088
0.00127164
0.00208671
0.00116561
0.00180048
0.0010808
0.00150156
0.00103648
0.00122734
0.00101273
0.000996595
0.000979158
0.000801647
0.000925563
0.000616607
0.00085761
0.000419878
0.00077956
0.000211697
0.00069454
1.07754e-05
0.000613046
-0.000164245
0.000548052
-0.000310039
0.000501444
-0.000438729
0.000460712
-0.000565176
0.00041011
-0.000692996
0.000343643
-0.000811072
0.000268504
-0.000903553
0.000196784
-0.000964907
0.000134351
-0.00100616
7.54191e-05
-0.00104632
1.0988e-05
-0.00109568
-5.90827e-05
-0.00114739
-0.000116619
-0.00118488
-0.000137403
-0.00120008
-0.000106312
-0.00120267
-3.85386e-05
-0.00121333
3.58534e-05
-0.00124356
8.15981e-05
-0.00128671
9.40847e-05
-0.00132289
7.53822e-05
-0.00133993
4.5936e-05
-0.00133891
-4.35653e-06
-0.00133234
-6.45134e-05
-0.0013253
-0.000142526
-0.00131881
-0.000196665
-0.00130999
-0.00022884
-0.00130685
-0.000218606
-0.00131426
-0.000211299
-0.00133357
-0.000201771
-0.00135707
-0.000202081
-0.00138299
-0.000185716
-0.00141884
-0.000144072
-0.00146203
-0.000117168
-0.00150833
-6.68944e-05
-0.00153431
-7.2207e-05
-0.00156333
2.44873e-05
-0.00159193
5.30311e-05
-0.00164408
0.00024498
-0.00165005
0.000269938
-0.00162199
0.000430673
-0.00154918
0.000268856
-0.00152369
0.000130424
-0.00150109
-0.000310431
-0.00140843
-0.0006207
-0.00118445
-0.000754458
-0.000888341
-0.000830702
-0.000756587
-0.000529658
-0.000758513
-0.000684835
-0.000918607
0.00011949
-0.000990329
0.000694914
-0.00126643
0.00261387
-0.00193632
0.004045
-0.00308517
0.0050666
-0.00435324
0.00513863
-0.00471015
0.00191013
-0.00384296
-0.00249077
-0.001402
-0.0108307
0.00037489
-0.0107212
-0.000878434
0.00154002
-0.00567026
0.0201684
-0.0106137
0.0255945
-0.0104351
0.00239523
-0.00617031
-0.0208515
-0.00315883
-0.019453
-0.00465122
0.00228055
-0.00856546
0.0174731
-0.010046
0.00354739
-0.0130882
0.00357103
-0.024791
0.0446856
-0.0372511
0.0570779
-0.0397475
0.0135634
-0.0365904
-0.0241281
-0.0452109
0.014961
-0.0756422
0.144399
-0.113586
0.17568
-0.132478
0.105451
-0.123741
-0.0248116
-0.105117
-0.0825011
-0.0941008
-0.0578245
-0.0962075
-0.00121684
-0.107578
0.0407974
-0.123692
0.0624287
-0.139366
0.0671494
-0.152687
0.076697
-0.144965
0.00945914
-0.099939
-0.159297
-0.0235598
-0.333774
0.0505305
-0.373721
0.0860544
-0.258253
0.0681299
-0.044633
-0.018754
0.27506
-0.151463
0.517441
-0.304219
0.674973
-0.444729
0.625326
-0.53022
0.414145
0.0276959
0.00396558
0.00219164
-0.00387111
0.00387095
0.00214497
0.00370686
0.00207383
0.0036317
0.0020454
0.00367668
0.00203653
0.00378863
0.00201485
0.00386999
0.00195722
0.00384299
0.00186929
0.00369467
0.00177784
0.00347631
0.00170169
0.0032659
0.00164303
0.00312025
0.00160244
0.00303881
0.00157518
0.00296897
0.00153503
0.00284998
0.00145339
0.0026576
0.0013401
0.00241117
0.00124421
0.00214807
0.00120249
0.0018982
0.00120058
0.00167407
0.00119528
0.00146997
0.00116076
0.00126761
0.00109937
0.00105101
0.00102063
0.000820933
0.000930863
0.000593878
0.000840146
0.000386377
0.000762035
0.000201268
0.000701323
2.80654e-05
0.000648767
-0.000144964
0.000590698
-0.000318316
0.000521091
-0.00047907
0.000444526
-0.000611049
0.000368649
-0.000709198
0.000295605
-0.000785022
0.000218463
-0.000857761
0.000130016
-0.000937695
3.24857e-05
-0.00101775
-5.39267e-05
-0.00108078
-0.000103884
-0.00111817
-9.90354e-05
-0.00113952
-5.08464e-05
-0.00116641
1.51379e-05
-0.00121148
6.24623e-05
-0.00126901
8.32487e-05
-0.00131879
7.11429e-05
-0.00134811
4.45227e-05
-0.00135717
-9.27737e-06
-0.00135862
-7.21509e-05
-0.00135759
-0.000152054
-0.00135643
-0.000201142
-0.00135309
-0.000227633
-0.00135695
-0.000207947
-0.00137267
-0.000193674
-0.00140128
-0.000174281
-0.00143462
-0.000164675
-0.00147135
-0.000138514
-0.00152046
-8.75366e-05
-0.00157788
-6.18288e-05
-0.00163928
-8.39687e-06
-0.0016766
-2.77632e-05
-0.00171688
7.5988e-05
-0.00175266
8.75177e-05
-0.00181278
0.000299758
-0.00181725
0.000301199
-0.00178319
0.000470248
-0.00169411
0.000244473
-0.00165217
6.8199e-05
-0.00160805
-0.000449073
-0.0014866
-0.000792366
-0.00123092
-0.000928316
-0.000903565
-0.00102671
-0.000773181
-0.000650827
-0.00079512
-0.000804266
-0.00101239
0.000251424
-0.00114504
0.000996119
-0.00150765
0.00331093
-0.00228434
0.00499918
-0.00353004
0.00615204
-0.0048763
0.00618245
-0.00520097
0.00213805
-0.00428174
-0.00318902
-0.00179727
-0.0130107
-0.000208732
-0.0121946
-0.00194796
0.00318961
-0.00733046
0.0254473
-0.0126954
0.0309847
-0.0125352
0.00232678
-0.00823832
-0.0250918
-0.00561447
-0.0219775
-0.00787898
0.00485438
-0.0127636
0.0227761
-0.0152888
0.00623287
-0.0197645
0.00772783
-0.0335231
0.057869
-0.0476765
0.0712365
-0.0511374
0.0176236
-0.0494536
-0.0252168
-0.0614313
0.0266869
-0.0960901
0.151644
-0.137279
0.215651
-0.156585
0.124582
-0.145737
-0.0349636
-0.12468
-0.102896
-0.112638
-0.0698296
-0.115324
0.00106932
-0.128494
0.0535107
-0.147196
0.0806037
-0.164662
0.0839443
-0.178247
0.0898426
-0.167158
-0.000744761
-0.115453
-0.208242
-0.0319365
-0.413368
0.0455081
-0.448078
0.076505
-0.288512
0.0475024
-0.0172905
-0.0568145
0.376977
-0.210889
0.669357
-0.383422
0.846159
-0.545132
0.7861
-0.648156
0.516227
0.0188485
0.00403525
0.00205871
-0.00398165
0.00391383
0.00204732
0.00381868
0.00205268
0.00378531
0.0020716
0.00384133
0.00208077
0.00394227
0.00205318
0.00400989
0.00197749
0.00398447
0.00187192
0.00386161
0.00177447
0.00368762
0.00171243
0.00352531
0.00168678
0.00341811
0.00168262
0.00336563
0.00168069
0.00332562
0.00165304
0.00324572
0.00157656
0.00310218
0.00146321
0.00291073
0.00136399
0.00270358
0.00132457
0.00250251
0.00133886
0.00231185
0.00135891
0.00212491
0.00134624
0.00193043
0.00129778
0.00171973
0.00122718
0.00149485
0.00114398
0.00126841
0.00105626
0.00105237
0.000975395
0.000847314
0.000907689
0.000643825
0.000847702
0.000433678
0.000785253
0.000220265
0.000715644
1.89657e-05
0.000641609
-0.000153311
0.000566241