/*--------------------------------*- C++ -*----------------------------------*\
| =========                 |                                                 |
| \\      /  F ield         | OpenFOAM: The Open Source CFD Toolbox           |
|  \\    /   O peration     | Version:  2412                                  |
|   \\  /    A nd           | Website:  www.openfoam.com                      |
|    \\/     M anipulation  |                                                 |
\*---------------------------------------------------------------------------*/
FoamFile
{
    version     2.0;
    format      ascii;
    arch        "LSB;label=32;scalar=64";
    class       volScalarField;
    location    "1.21";
    object      Co;
}
// * * * * * * * * * * * * * * * * * * * * * * * * * * * * * * * * * * * * * //

dimensions      [0 0 0 0 0 0 0];

internalField   nonuniform List<scalar> 
12600
(
0.314768
0.17666
0.100044
0.062948
0.0449739
0.0350533
0.0286541
0.0240729
0.0205987
0.0178627
0.015648
0.0138179
0.0122809
0.0109732
0.00984861
0.00887283
0.00801975
0.00726914
0.006605
0.00601452
0.00548729
0.00501479
0.00458991
0.00420672
0.00386022
0.00354614
0.00326083
0.00300114
0.00276436
0.00254809
0.00235028
0.0021691
0.00200293
0.00185036
0.00171011
0.00158108
0.00146224
0.00135269
0.00125163
0.00115834
0.00107214
0.000992454
0.000918738
0.000850508
0.000787318
0.00072877
0.000674491
0.000624156
0.000577447
0.000534098
0.000493839
0.000456452
0.000421704
0.000389416
0.000359388
0.000331473
0.000305497
0.000281339
0.000258848
0.000237927
0.000218439
0.00020031
0.000183418
0.000167703
0.000153058
0.000139435
0.00012674
0.000114931
0.000103933
9.37061e-05
8.41895e-05
7.53439e-05
6.71275e-05
5.94946e-05
5.24254e-05
4.58628e-05
3.98116e-05
3.4201e-05
2.90558e-05
2.4305e-05
1.99579e-05
1.60101e-05
1.23366e-05
9.18951e-06
6.01992e-06
3.7379e-06
1.20497e-06
2.91081e-06
4.8989e-06
5.18433e-06
7.98267e-06
7.54878e-06
1.0917e-05
1.03154e-05
1.27352e-05
1.19854e-05
1.12483e-05
1.43604e-05
1.35417e-05
1.35859e-05
1.28018e-05
1.712e-05
1.61182e-05
1.63061e-05
1.53397e-05
1.42432e-05
1.72092e-05
1.61693e-05
1.31847e-05
1.39074e-05
1.74227e-05
1.63443e-05
1.66724e-05
1.56283e-05
1.28293e-05
1.50772e-05
1.41167e-05
1.1546e-05
6.41437e-06
5.99927e-06
0.477872
0.376486
0.276376
0.202487
0.153146
0.120549
0.0982299
0.082129
0.0699592
0.0604243
0.0527476
0.046435
0.0411569
0.0366841
0.0328515
0.0295371
0.0266483
0.0241135
0.0218765
0.0198923
0.0181246
0.0165436
0.0151247
0.0138474
0.0126943
0.0116507
0.0107042
0.00984383
0.00906042
0.00834583
0.00769299
0.00709571
0.00654853
0.00604663
0.00558576
0.0051621
0.00477227
0.00441325
0.00408231
0.00377703
0.00349519
0.00323484
0.00299415
0.00277152
0.00256547
0.00237467
0.00219789
0.00203404
0.00188208
0.00174111
0.00161026
0.0014888
0.00137597
0.00127116
0.00117373
0.00108318
0.000998954
0.000920651
0.000847766
0.000779989
0.000716871
0.000658165
0.000603474
0.0005526
0.000505195
0.000461097
0.000420007
0.000381784
0.000346181
0.000313063
0.000282245
0.000253579
0.000226952
0.000202185
0.000179251
0.00015791
0.000138253
0.000119944
0.000103205
8.76193e-05
7.34445e-05
6.04223e-05
4.83397e-05
3.80151e-05
2.72264e-05
2.0281e-05
9.23813e-06
1.09967e-05
1.14571e-05
1.33641e-05
2.23886e-05
1.91374e-05
3.32179e-05
2.95416e-05
4.10399e-05
3.58576e-05
3.5955e-05
4.32781e-05
4.05158e-05
4.15976e-05
3.94921e-05
5.6291e-05
5.18298e-05
5.5443e-05
4.55452e-05
4.41277e-05
5.72229e-05
4.95459e-05
4.06469e-05
4.63224e-05
5.33555e-05
5.30057e-05
5.65159e-05
4.76495e-05
4.05102e-05
5.09686e-05
4.34372e-05
3.74969e-05
1.95685e-05
1.78293e-05
0.51238
0.468543
0.39724
0.325419
0.264509
0.216457
0.179582
0.151266
0.129188
0.11163
0.0973941
0.0856522
0.0758243
0.0674965
0.0603657
0.0542056
0.0488432
0.0441444
0.0400036
0.036336
0.0330732
0.030159
0.0275472
0.0251991
0.0230819
0.0211683
0.0194345
0.0178604
0.0164286
0.0151239
0.0139332
0.0128448
0.0118486
0.0109356
0.010098
0.00932863
0.00862124
0.00797024
0.0073706
0.00681781
0.00630782
0.005837
0.00540201
0.0049999
0.00462793
0.00428369
0.0039649
0.00366958
0.00339582
0.00314199
0.00290648
0.00268796
0.00248503
0.00229662
0.00212152
0.00195887
0.0018076
0.00166702
0.0015362
0.00141459
0.00130136
0.00119606
0.00109799
0.00100677
0.000921783
0.000842727
0.000769073
0.000700548
0.000636727
0.000577339
0.000522078
0.000470641
0.000422868
0.000378371
0.000337191
0.000298765
0.000263444
0.000230344
0.000200261
0.000171899
0.000146422
0.000122553
0.000100675
8.18992e-05
6.15257e-05
5.01787e-05
2.71551e-05
2.59281e-05
1.51126e-05
2.0621e-05
3.64633e-05
2.78346e-05
5.83631e-05
4.78045e-05
7.58328e-05
6.15651e-05
6.60107e-05
7.34144e-05
6.78583e-05
7.2213e-05
6.84984e-05
0.000105403
9.55187e-05
0.00010725
7.70721e-05
7.58994e-05
0.000107327
8.63178e-05
7.04513e-05
8.70969e-05
9.16248e-05
9.78115e-05
0.00010867
8.34951e-05
7.17241e-05
9.71124e-05
7.74511e-05
6.98032e-05
3.36773e-05
3.02392e-05
0.504325
0.49104
0.453113
0.402711
0.35031
0.301619
0.259099
0.223186
0.193286
0.168456
0.147751
0.13036
0.11563
0.103048
0.0922165
0.0828254
0.0746306
0.0674386
0.0610942
0.0554719
0.0504689
0.0460006
0.0419966
0.0383979
0.0351546
0.0322243
0.029571
0.0271634
0.0249747
0.0229814
0.0211634
0.0195027
0.0179835
0.0165922
0.0153164
0.0141453
0.0130692
0.0120794
0.0111682
0.0103286
0.0095545
0.00884019
0.00818058
0.00757114
0.00700764
0.0064864
0.0060039
0.00555713
0.00514313
0.00475945
0.00440358
0.00407351
0.0037671
0.00348272
0.00321852
0.00297316
0.00274506
0.00253312
0.00233596
0.0021527
0.00198212
0.00182352
0.00167583
0.00153847
0.00141053
0.0012915
0.00118063
0.00107746
0.000981386
0.000891953
0.000808743
0.00073124
0.000659267
0.000592147
0.000530061
0.000471983
0.000418694
0.000368481
0.000323099
0.000279799
0.000241395
0.000204671
0.00017154
0.000142749
0.000110854
9.50323e-05
5.63428e-05
5.65593e-05
2.3112e-05
2.6635e-05
4.88365e-05
3.4885e-05
8.48345e-05
6.3543e-05
0.000115702
8.80084e-05
0.000101474
0.000103021
9.39339e-05
0.000104485
9.83848e-05
0.000161946
0.000145432
0.000170513
0.000110305
0.000107143
0.000165253
0.000126453
0.000100962
0.000135259
0.000130022
0.00014839
0.000171089
0.000123458
0.000104221
0.000151013
0.000116645
0.000106351
4.81557e-05
4.35124e-05
0.488135
0.483318
0.465106
0.435203
0.398559
0.359481
0.321059
0.285199
0.252819
0.224164
0.199089
0.177257
0.158269
0.141731
0.127286
0.114625
0.103485
0.0936466
0.0849258
0.0771686
0.0702461
0.0640497
0.0584877
0.0534821
0.0489665
0.0448839
0.0411852
0.0378279
0.0347753
0.031995
0.0294591
0.0271428
0.0250243
0.0230843
0.0213058
0.0196737
0.0181743
0.0167957
0.0155268
0.0143582
0.013281
0.0122873
0.0113701
0.0105229
0.00973981
0.0090157
0.00834565
0.0077254
0.00715085
0.00661853
0.00612496
0.00566729
0.00524258
0.00484849
0.00448247
0.00414265
0.0038268
0.0035334
0.00326052
0.00300693
0.00277094
0.00255153
0.00234727
0.0021573
0.00198039
0.0018158
0.00166251
0.00151984
0.001387
0.0012633
0.00114821
0.00104096
0.000941365
0.00084839
0.000762415
0.00068182
0.000607974
0.000538068
0.000475171
0.000414553
0.000361363
0.00030957
0.00026355
0.000222926
0.000177552
0.00015672
9.88777e-05
0.000102945
4.93503e-05
4.38593e-05
5.80857e-05
3.98448e-05
0.000111181
7.51697e-05
0.000159206
0.000113797
0.000141948
0.000130652
0.000117277
0.000137668
0.000127999
0.000223731
0.000199956
0.000243926
0.000145208
0.000135686
0.000228728
0.000169669
0.000130485
0.000189346
0.000166874
0.000202613
0.000241586
0.000167452
0.000135975
0.000210057
0.000161028
0.000145212
6.21792e-05
5.80197e-05
0.473935
0.468248
0.457303
0.439391
0.415626
0.387884
0.358058
0.327782
0.298284
0.270373
0.244511
0.220893
0.199535
0.180339
0.163147
0.147775
0.134033
0.121741
0.110733
0.10086
0.0919907
0.0840078
0.0768101
0.0703086
0.0644257
0.0590936
0.0542531
0.0498519
0.0458446
0.0421907
0.0388548
0.0358056
0.033015
0.0304585
0.028114
0.0259618
0.0239843
0.0221658
0.020492
0.0189504
0.0175294
0.0162187
0.0150089
0.0138916
0.0128591
0.0119044
0.0110211
0.0102036
0.00944647
0.00874511
0.00809494
0.00749217
0.00693292
0.00641407
0.00593229
0.00548505
0.00506945
0.00468344
0.0043245
0.00399095
0.00368062
0.00339211
0.00312356
0.0028738
0.00264124
0.00242486
0.00222336
0.00203579
0.00186116
0.00169849
0.00154715
0.00140604
0.00127501
0.00115257
0.00103937
0.000933073
0.000835767
0.000743304
0.000660392
0.000579829
0.000509735
0.000440438
0.000379685
0.000325148
0.000264282
0.000237436
0.000157202
0.000165768
8.9629e-05
7.57671e-05
7.08272e-05
4.18591e-05
0.000135795
8.08836e-05
0.000204735
0.000137282
0.000186725
0.000154905
0.000136268
0.000170884
0.000156149
0.000288626
0.000257398
0.000325871
0.000181441
0.000159468
0.000295348
0.000215268
0.000157491
0.00024759
0.000200853
0.000258455
0.000317678
0.000215053
0.00016516
0.0002715
0.000210194
0.000184603
7.45727e-05
7.41343e-05
0.462639
0.454302
0.444451
0.431373
0.414794
0.395155
0.373188
0.349738
0.325624
0.301547
0.27806
0.255568
0.234338
0.214525
0.196192
0.179337
0.16391
0.149836
0.137022
0.12537
0.114779
0.105153
0.0964032
0.0884446
0.081201
0.074603
0.0685878
0.063099
0.058086
0.0535031
0.0493098
0.0454694
0.0419491
0.0387195
0.0357542
0.0330294
0.0305236
0.0282175
0.0260938
0.0241368
0.022332
0.0206668
0.0191293
0.0177091
0.0163963
0.0151824
0.0140592
0.0130196
0.0120567
0.0111647
0.0103378
0.00957123
0.00886003
0.00820023
0.00758762
0.00701894
0.00649055
0.00599978
0.00554349
0.00511947
0.00472502
0.00435829
0.00401698
0.00369951
0.00340394
0.0031289
0.0028728
0.00263435
0.00241236
0.0022055
0.00201306
0.00183353
0.00166682
0.00151091
0.00136677
0.00123122
0.00110721
0.000989009
0.00088327
0.000779862
0.00069046
0.000600977
0.00052341
0.000452595
0.000374139
0.000339778
0.000234154
0.000247286
0.000145078
0.000130069
9.97404e-05
4.59773e-05
0.00015683
7.86067e-05
0.000250467
0.000156583
0.000234786
0.000174402
0.000149092
0.000203054
0.000181512
0.000354517
0.000315969
0.000414376
0.000218345
0.000176559
0.000362634
0.000262122
0.000180706
0.00030801
0.000230971
0.000314017
0.00039662
0.000265494
0.00019021
0.00033255
0.000263337
0.000222957
8.38097e-05
9.22225e-05
0.453302
0.442901
0.432297
0.420437
0.406856
0.39151
0.374579
0.356371
0.337258
0.317625
0.297832
0.278203
0.259008
0.240467
0.222741
0.205943
0.190142
0.175368
0.161621
0.14888
0.137106
0.12625
0.116257
0.10707
0.0986292
0.0908785
0.0837628
0.07723
0.0712318
0.0657231
0.0606622
0.056011
0.0517344
0.0478005
0.0441799
0.0408462
0.0377749
0.034944
0.0323333
0.0299246
0.027701
0.0256475
0.0237499
0.0219958
0.0203734
0.0188724
0.017483
0.0161964
0.0150044
0.0138998
0.0128756
0.0119259
0.0110447
0.010227
0.00946767
0.00876273
0.00810769
0.00749923
0.00693349
0.00640771
0.00591858
0.00546379
0.0050405
0.00464674
0.00428014
0.00393894
0.00362123
0.00332534
0.00304987
0.00279309
0.00255421
0.00233121
0.00212413
0.00193032
0.00175114
0.0015824
0.00142808
0.00128063
0.00114892
0.00101946
0.000908043
0.000795421
0.000698695
0.000608935
0.000510668
0.000466784
0.000332999
0.000350069
0.000218253
0.000201428
0.000157435
7.62336e-05
0.000179815
6.58965e-05
0.000294337
0.000169589
0.000284771
0.000187776
0.000153708
0.000232858
0.000202561
0.000419298
0.000373776
0.000507102
0.000254948
0.000185206
0.00042813
0.000308679
0.000199181
0.000368513
0.000256535
0.000367542
0.000475474
0.0003177
0.000209882
0.000390477
0.000319273
0.000258974
8.80354e-05
0.000112619
0.445237
0.433513
0.421999
0.410111
0.397487
0.38399
0.369636
0.354519
0.338783
0.322594
0.306124
0.289541
0.27301
0.256681
0.240692
0.22516
0.210184
0.195841
0.182187
0.169259
0.157075
0.14564
0.134943
0.124965
0.115679
0.107054
0.099055
0.0916448
0.0847865
0.0784433
0.0725792
0.06716
0.0621527
0.0575265
0.0532524
0.0493034
0.0456541
0.0422814
0.0391635
0.0362806
0.0336142
0.0311475
0.0288647
0.0267516
0.0247949
0.0229826
0.0213034
0.0197471
0.0183042
0.0169662
0.0157249
0.0145731
0.0135039
0.0125114
0.0115894
0.0107331
0.00993721
0.00919767
0.00850989
0.00787053
0.00727563
0.00672235
0.00620733
0.00572811
0.00528189
0.00486647
0.00447961
0.00411919
0.00378363
0.00347069
0.00317952
0.00290757
0.002655
0.00241842
0.00219967
0.00199343
0.00180482
0.00162425
0.00146308
0.00130407
0.00116759
0.00102858
0.000910066
0.00079838
0.000677926
0.000621997
0.000457469
0.000477087
0.000312241
0.000292933
0.000233157
0.000137176
0.000219948
3.96475e-05
0.000333997
0.000173953
0.00033498
0.000193651
0.000147844
0.000258725
0.000217499
0.000480849
0.000428806
0.000601346
0.000289988
0.000202227
0.0004895
0.000352999
0.000212327
0.000426999
0.000277078
0.00041742
0.000551208
0.000370329
0.000223325
0.000442738
0.000376484
0.000291678
8.51334e-05
0.000135611
0.438106
0.425533
0.41332
0.401131
0.388715
0.375934
0.362756
0.349211
0.335366
0.321301
0.307094
0.292823
0.278562
0.264384
0.250357
0.236551
0.22303
0.209857
0.197087
0.18477
0.172946
0.161646
0.150893
0.140698
0.131066
0.121993
0.11347
0.105481
0.098009
0.091031
0.0845238
0.078463
0.0728233
0.0675798
0.0627075
0.0581826
0.053982
0.0500834
0.046466
0.0431099
0.0399965
0.0371083
0.0344289
0.0319432
0.0296369
0.0274969
0.0255108
0.0236674
0.021956
0.0203672
0.0188915
0.017521
0.0162476
0.0150645
0.0139647
0.0129426
0.011992
0.0111083
0.010286
0.00952114
0.00880922
0.00814681
0.00753
0.00695582
0.00642104
0.00592295
0.00545899
0.00502655
0.00462384
0.00424809
0.0038984
0.00357159
0.003268
0.00298339
0.00272019
0.00247175
0.00224451
0.0020266
0.00183212
0.00163971
0.00147481
0.00130588
0.00116264
0.00102572
0.000880517
0.000809514
0.000611805
0.000631777
0.000430667
0.000407924
0.000329321
0.000216336
0.000291859
4.14271e-05
0.000383378
0.000167104
0.000383374
0.000190583
0.0001396
0.000278824
0.000224188
0.000537013
0.000478893
0.000694071
0.000321955
0.00023593
0.000544605
0.000392797
0.000219893
0.000481466
0.000292235
0.000462174
0.000620817
0.000421839
0.000230129
0.00048708
0.000433185
0.000320434
7.28216e-05
0.000162726
0.431729
0.418585
0.405872
0.393384
0.380949
0.368443
0.355811
0.343054
0.330206
0.317315
0.304435
0.291609
0.278877
0.266271
0.25382
0.24155
0.229484
0.217649
0.206073
0.194782
0.183807
0.173175
0.16291
0.153036
0.143571
0.134527
0.125914
0.117735
0.109989
0.102672
0.0957757
0.089288
0.0831958
0.0774838
0.0721355
0.0671336
0.0624603
0.0580977
0.0540282
0.0502345
0.0466995
0.0434072
0.0403417
0.0374884
0.034833
0.0323624
0.0300637
0.0279254
0.025936
0.0240856
0.0223641
0.0207627
0.0192727
0.0178865
0.0165964
0.0153961
0.0142786
0.0132387
0.0122703
0.0113689
0.0105293
0.00974746
0.00901903
0.0083405
0.0077082
0.00711891
0.00656978
0.00605763
0.0055805
0.00513502
0.0047203
0.00433242
0.00397198
0.00363377
0.00332089
0.00302523
0.00275471
0.0024949
0.00226298
0.00203303
0.00183601
0.00163332
0.00146212
0.00129635
0.00112362
0.00103403
0.000800789
0.000818114
0.000577726
0.000550166
0.000449117
0.000317606
0.000394463
7.76403e-05
0.000449701
0.000146303
0.000427645
0.000176974
0.000142251
0.000291053
0.000220075
0.000585547
0.000521655
0.000781941
0.000349148
0.000274542
0.000591566
0.000425494
0.000222444
0.000530089
0.000301586
0.000500409
0.000681417
0.000470533
0.000230349
0.000521603
0.000487406
0.00034493
5.96944e-05
0.000217148
0.425975
0.412434
0.399366
0.386634
0.374118
0.361717
0.349366
0.337044
0.324759
0.312537
0.300417
0.288435
0.27662
0.264997
0.253585
0.242393
0.231428
0.220692
0.21019
0.199925
0.189905
0.180137
0.170634
0.161407
0.152469
0.143834
0.135513
0.127517
0.119854
0.11253
0.105547
0.0989063
0.0926049
0.0866383
0.0809995
0.0756801
0.0706698
0.0659576
0.0615313
0.0573785
0.053486
0.0498409
0.04643
0.0432406
0.0402599
0.0374757
0.0348761
0.0324499
0.0301861
0.0280745
0.026105
0.0242687
0.0225564
0.0209604
0.0194723
0.0180854
0.0167923
0.0155873
0.0144637
0.0134165
0.01244
0.0115297
0.0106808
0.00988932
0.00915116
0.0084626
0.00782052
0.00722116
0.00666245
0.00614035
0.00565405
0.00519879
0.00477555
0.00437799
0.00401005
0.00366192
0.00334325
0.00303676
0.00276299
0.00249108
0.002258
0.00201744
0.00181477
0.00161624
0.00141297
0.00130084
0.00102976
0.00104067
0.000758198
0.000723924
0.000596364
0.000445104
0.000519835
0.000143494
0.000536514
0.000156721
0.000494951
0.000150886
0.000151183
0.000293006
0.000202117
0.000624062
0.000554399
0.000861367
0.000369735
0.000312979
0.00062874
0.000448284
0.000230866
0.000571255
0.000304486
0.000530739
0.000730322
0.000514597
0.000224472
0.00054475
0.000537075
0.000365098
6.02452e-05
0.000282511
0.420754
0.406929
0.393605
0.380683
0.368078
0.355709
0.343515
0.33146
0.319532
0.307738
0.296099
0.28464
0.273386
0.262361
0.251582
0.241061
0.230804
0.220809
0.211075
0.201593
0.192358
0.183364
0.174606
0.166083
0.157793
0.14974
0.141928
0.134361
0.127046
0.119988
0.113193
0.106666
0.10041
0.0944272
0.0887176
0.0832802
0.0781122
0.0732094
0.0685661
0.0641757
0.0600306
0.0561223
0.0524417
0.0489796
0.0457261
0.0426715
0.0398058
0.0371195
0.0346026
0.0322461
0.0300405
0.0279774
0.0260479
0.0242444
0.0225585
0.0209836
0.019512
0.0181378
0.016854
0.0156554
0.014536
0.0134908
0.0125148
0.0116035
0.0107526
0.00995793
0.0092161
0.00852283
0.00787601
0.00727088
0.00670682
0.00617815
0.00568633
0.00522376
0.00479542
0.00438955
0.00401781
0.00365971
0.0033396
0.00302115
0.00274788
0.00246517
0.00222727
0.00199185
0.00175483
0.00161585
0.00130458
0.00130462
0.000977455
0.000934013
0.000775523
0.000603431
0.000671272
0.000248191
0.000676038
0.000219996
0.000577182
0.000109626
0.000157378
0.000281903
0.000166684
0.000649924
0.000573988
0.000928542
0.000381765
0.000348659
0.000654627
0.000458204
0.0002426
0.000603536
0.000299892
0.000551685
0.000765032
0.000552089
0.000213329
0.000555201
0.000580101
0.000380977
7.74998e-05
0.000364998
0.415988
0.40196
0.38845
0.375384
0.362698
0.350329
0.338223
0.32634
0.314657
0.303164
0.291867
0.280776
0.269908
0.259282
0.248913
0.238815
0.228997
0.219463
0.210213
0.201241
0.192539
0.184099
0.175908
0.167956
0.160235
0.152737
0.145454
0.138384
0.131524
0.124873
0.118432
0.112203
0.106188
0.100389
0.0948089
0.0894485
0.0843093
0.0793914
0.0746939
0.0702152
0.0659524
0.061902
0.0580591
0.0544189
0.0509749
0.0477212
0.0446504
0.0417558
0.0390295
0.0364645
0.0340527
0.0317871
0.0296598
0.027664
0.0257919
0.0240374
0.0223931
0.0208533
0.0194111
0.0180613
0.0167978
0.0156156
0.0145095
0.0134748
0.0125071
0.0116017
0.0107553
0.00996308
0.00922301
0.00852961
0.00788257
0.00727521
0.0067097
0.00617696
0.00568329
0.00521468
0.00478521
0.00437072
0.00399986
0.0036303
0.00331271
0.0029835
0.00270653
0.00242999
0.00215581
0.00198547
0.00163158
0.00161578
0.00124142
0.00118583
0.000991707
0.000797757
0.000852893
0.000384926
0.000838412
0.000295773
0.000695683
0.000107568
0.000182018
0.000254361
0.000109393
0.000660127
0.000576685
0.00097947
0.000383145
0.000378487
0.000667695
0.000452202
0.000244644
0.000625628
0.000286225
0.000561557
0.000783175
0.000580889
0.000197918
0.000551685
0.000614455
0.000392526
0.000125052
0.000486052
0.411617
0.397441
0.383796
0.370623
0.357872
0.345491
0.333434
0.321664
0.310152
0.29888
0.287839
0.27703
0.26646
0.256136
0.246071
0.236274
0.226757
0.217525
0.208583
0.199929
0.19156
0.183469
0.175647
0.168083
0.160765
0.153682
0.146822
0.140176
0.133734
0.127489
0.121434
0.115565
0.109879
0.104374
0.0990488
0.0939039
0.0889391
0.084155
0.0795518
0.0751299
0.0708888
0.0668281
0.0629462
0.0592414
0.0557108
0.0523517
0.0491599
0.0461316
0.0432617
0.0405456
0.0379773
0.0355521
0.0332634
0.0311061
0.0290737
0.0271609
0.0253613
0.0236699
0.0220803
0.0205877
0.0191863
0.0178715
0.016638
0.0154812
0.0143968
0.0133799
0.0124275
0.0115341
0.0106981
0.00991327
0.00917988
0.0084901
0.00784711
0.00724013
0.00667715
0.00614157
0.00565035
0.00517518
0.0047496
0.0043247
0.00395888
0.00357902
0.00325917
0.00293742
0.00262257
0.0024164
0.00201735
0.00198045
0.00155646
0.00148532
0.00125065
0.00103381
0.00106951
0.0005576
0.00102744
0.000386927
0.000867996
0.000195141
0.000264886
0.000219582
5.02837e-05
0.000651079
0.000557943
0.00100997
0.000371552
0.000399004
0.00066615
0.000427231
0.000233721
0.000636221
0.000261298
0.000558332
0.000782365
0.000598633
0.000179165
0.000532717
0.000638231
0.000422227
0.000202524
0.000627533
0.40759
0.393308
0.379565
0.366313
0.353511
0.341116
0.329089
0.317394
0.306003
0.294893
0.284049
0.273462
0.26313
0.253053
0.243236
0.233684
0.224403
0.215401
0.206682
0.198247
0.190097
0.182229
0.174636
0.167313
0.160249
0.153434
0.146857
0.140507
0.134373
0.128443
0.122707
0.117156
0.111783
0.10658
0.101542
0.096664
0.0919435
0.0873778
0.082965
0.0787042
0.0745945
0.0706354
0.0668261
0.0631664
0.059655
0.0562912
0.0530729
0.0499989
0.0470661
0.0442727
0.0416147
0.0390894
0.0366925
0.0344207
0.0322689
0.0302336
0.0283095
0.0264928
0.0247782
0.0231616
0.0216381
0.0202034
0.0188529
0.0175822
0.0163875
0.0152638
0.0142086
0.0132161
0.0122854
0.0114093
0.0105891
0.00981568
0.00909369
0.0084103
0.00777578
0.00717038
0.00661471
0.00607559
0.00559228
0.00510851
0.0046912
0.00425711
0.00389092
0.00352031
0.00316133
0.00291522
0.00246839
0.00240519
0.00192917
0.00183885
0.00155859
0.00131783
0.00132668
0.000772196
0.00124765
0.000496843
0.00106456
0.00031262
0.000423374
0.000300873
8.87743e-05
0.000624428
0.000512057
0.00101563
0.000344292
0.000406609
0.000647673
0.000380331
0.000206401
0.000633871
0.000222276
0.000539533
0.000760041
0.000602632
0.00015762
0.000496324
0.000649723
0.000470337
0.00030913
0.000789266
0.403864
0.389506
0.375694
0.362386
0.349547
0.337141
0.325132
0.313489
0.302186
0.291197
0.280503
0.270091
0.259952
0.250079
0.240472
0.231129
0.222052
0.213246
0.204713
0.196455
0.188473
0.180766
0.173332
0.166167
0.159264
0.152615
0.146213
0.140048
0.13411
0.128387
0.12287
0.117548
0.112411
0.107449
0.102655
0.0980192
0.0935359
0.0891989
0.0850033
0.0809451
0.0770208
0.073228
0.0695644
0.0660289
0.0626195
0.0593359
0.0561763
0.0531403
0.0502261
0.0474331
0.0447589
0.0422026
0.0397614
0.0374336
0.035216
0.0331065
0.0311014
0.0291981
0.0273927
0.0256823
0.0240628
0.0225309
0.0210831
0.0197151
0.0184242
0.0172055
0.0160574
0.0149737
0.0139546
0.0129921
0.0120889
0.0112344
0.0104353
0.00967629
0.00897066
0.00829493
0.00767419
0.00706962
0.00652717
0.00598239
0.00551152
0.00502069
0.00460542
0.00418329
0.003777
0.00348777
0.00299052
0.00289638
0.00236598
0.00225293
0.00192207
0.00165636
0.00163051
0.00103518
0.00150448
0.000629605
0.00129025
0.000463188
0.0006122
0.000417784
0.000235794
0.000668313
0.000497239
0.00102889
0.000298134
0.000397891
0.000609162
0.000308673
0.000159102
0.000616929
0.00016927
0.00050217
0.000713338
0.000589856
0.000133098
0.000439854
0.000689834
0.000566086
0.000433392
0.000970501
0.400403
0.385993
0.372132
0.358786
0.345923
0.33351
0.321515
0.309911
0.298672
0.287774
0.277196
0.266922
0.256938
0.247234
0.237803
0.22864
0.219744
0.211112
0.202746
0.194646
0.186811
0.179243
0.171938
0.164895
0.158109
0.151575
0.145287
0.139239
0.133421
0.127826
0.122443
0.117265
0.11228
0.107481
0.102856
0.0983983
0.0940979
0.0899474
0.0859394
0.0820675
0.0783255
0.0747086
0.0712122
0.067833
0.0645672
0.061413
0.0583675
0.0554297
0.0525972
0.0498695
0.0472446
0.044722
0.0422995
0.0399767
0.0377511
0.0356221
0.0335869
0.0316443
0.0297916
0.0280269
0.0263474
0.0247507
0.0232343
0.0217946
0.0204303
0.0191364
0.0179127
0.0167527
0.0156581
0.01462
0.0136432
0.0127151
0.0118453
0.0110156
0.0102431
0.00949982
0.00881649
0.00814768
0.00754714
0.00694141
0.00641672
0.00586855
0.00540272
0.0049281
0.00447195
0.00413802
0.00358792
0.00345935
0.00287251
0.00273361
0.00234745
0.00205592
0.00198751
0.00135325
0.00180412
0.000790166
0.00155079
0.000650894
0.00083687
0.000565629
0.000416238
0.000787514
0.000563545
0.00107503
0.000302927
0.000417584
0.000546435
0.000209503
8.79567e-05
0.000583593
0.000118938
0.000442668
0.000639015
0.000557003
0.000122757
0.000392671
0.000749655
0.000689874
0.000575157
0.00116981
0.397177
0.382732
0.36884
0.35547
0.342592
0.330176
0.318195
0.306622
0.295433
0.284605
0.274118
0.263952
0.254093
0.244527
0.235244
0.226236
0.217496
0.20902
0.200805
0.19285
0.185153
0.177712
0.170526
0.163592
0.156907
0.150468
0.144269
0.138306
0.132571
0.127059
0.121761
0.11667
0.111778
0.107077
0.102558
0.0982122
0.0940316
0.0900079
0.086133
0.0823996
0.0788002
0.0753285
0.0719779
0.0687434
0.0656195
0.0626023
0.0596874
0.0568721
0.0541528
0.0515278
0.0489942
0.0465509
0.0441956
0.0419276
0.0397447
0.0376464
0.0356307
0.0336968
0.0318428
0.0300675
0.0283693
0.0267461
0.0251969
0.0237184
0.0223107
0.0209687
0.0196942
0.0184799
0.0173297
0.0162334
0.0151986
0.0142104
0.013282
0.0123915
0.0115612
0.0107575
0.0100182
0.00929006
0.00863584
0.00797243
0.00739636
0.00679307
0.00627708
0.00575169
0.00524418
0.00486649
0.00426175
0.00409715
0.00345246
0.0032856
0.0028402
0.00252227
0.00240404
0.0017329
0.00215351
0.00104052
0.00185281
0.00088021
0.00110279
0.000747824
0.000636391
0.000934309
0.000643513
0.0011963
0.000408709
0.000528422
0.00055794
0.000113639
2.3945e-05
0.000547556
7.07373e-05
0.000356203
0.000535009
0.000549981
0.000206828
0.000438375
0.000871641
0.000834471
0.000734006
0.00138512
0.39416
0.379694
0.365783
0.3524
0.339515
0.327102
0.315135
0.303589
0.292441
0.281669
0.271254
0.261175
0.251416
0.241963
0.232804
0.223926
0.215321
0.206983
0.198904
0.191082
0.183511
0.176191
0.169118
0.162288
0.155699
0.149348
0.14323
0.137341
0.131676
0.126228
0.120993
0.115963
0.111131
0.106492
0.102037
0.0977583
0.0936494
0.0897026
0.0859102
0.0822651
0.0787598
0.0753877
0.0721417
0.0690158
0.0660036
0.0631001
0.0602995
0.0575978
0.0549899
0.052473
0.0500427
0.0476969
0.0454322
0.043247
0.0411387
0.039106
0.0371468
0.03526
0.0334441
0.0316975
0.0300197
0.0284081
0.0268632
0.0253811
0.0239638
0.0226054
0.0213098
0.0200685
0.0188885
0.0177572
0.016686
0.0156568
0.0146875
0.0137518
0.012878
0.0120263
0.0112423
0.0104644
0.00976508
0.00905147
0.00842981
0.00777757
0.00721435
0.00664373
0.00608501
0.00566811
0.00500812
0.00480865
0.00410606
0.00391067
0.00340366
0.00305935
0.00288548
0.00217952
0.00255958
0.00139427
0.00220398
0.00115595
0.00141584
0.000968317
0.00090127
0.00111153
0.000739647
0.00133508
0.000532425
0.0006791
0.000668337
0.000164732
0.000139237
0.000625163
0.000147594
0.000412155
0.000572195
0.000643057
0.000332117
0.000484887
0.00100823
0.000998655
0.00090941
0.00161382
0.391329
0.376853
0.362934
0.349545
0.336661
0.324255
0.312303
0.300781
0.289669
0.278944
0.268587
0.258579
0.248903
0.239543
0.230485
0.221718
0.213229
0.205009
0.197052
0.189349
0.181896
0.174688
0.167721
0.160992
0.154497
0.148231
0.142192
0.136375
0.130775
0.125387
0.120206
0.115227
0.110444
0.10585
0.101439
0.0972051
0.0931412
0.0892411
0.0854978
0.081905
0.0784558
0.0751441
0.0719629
0.0689066
0.0659685
0.0631434
0.0604251
0.0578088
0.055289
0.0528615
0.0505215
0.0482655
0.0460893
0.0439902
0.0419647
0.0400105
0.0381251
0.0363062
0.0345524
0.032861
0.031232
0.0296618
0.0281519
0.0266971
0.0253013
0.0239569
0.0226704
0.021431
0.020249
0.019109
0.0180266
0.0169797
0.0159919
0.015031
0.014133
0.0132504
0.0124377
0.0116246
0.010893
0.0101416
0.00948395
0.00879387
0.0081893
0.00758398
0.0069764
0.00652943
0.00581573
0.00558601
0.00482788
0.00460559
0.0040373
0.00366752
0.00343496
0.00269605
0.00302879
0.00181305
0.00261217
0.00148292
0.00178217
0.00123151
0.00121556
0.00132265
0.000855819
0.0014965
0.000677095
0.000851162
0.000795231
0.000283276
0.000299056
0.000773743
0.000305967
0.000500764
0.000624984
0.000750447
0.000480861
0.000531275
0.00116117
0.00118024
0.00110083
0.001853
0.388665
0.374186
0.360267
0.34688
0.334002
0.321607
0.309672
0.298174
0.287093
0.276409
0.266101
0.256152
0.246545
0.237262
0.22829
0.219615
0.211224
0.203108
0.195256
0.18766
0.180313
0.173208
0.166342
0.159708
0.153302
0.147121
0.141159
0.135413
0.129878
0.124549
0.119423
0.114492
0.109753
0.1052
0.100827
0.0966287
0.0925986
0.0887312
0.0850204
0.0814606
0.0780454
0.0747693
0.0716262
0.0686107
0.0657166
0.0629388
0.0602716
0.0577101
0.0552487
0.0528829
0.0506078
0.0484192
0.0463127
0.0442843
0.0423307
0.0404479
0.0386336
0.0368838
0.0351975
0.03357
0.0320022
0.0304884
0.0290314
0.0276238
0.0262714
0.0249638
0.0237105
0.0224973
0.0213385
0.0202142
0.0191454
0.0181045
0.0171217
0.0161581
0.0152574
0.0143643
0.0135422
0.0127126
0.0119652
0.0111933
0.0105124
0.00980106
0.00916392
0.00854008
0.00788865
0.00742588
0.00666318
0.00641179
0.0056042
0.00535925
0.00473421
0.00434106
0.00405134
0.00328084
0.00356524
0.00229708
0.00308417
0.00186532
0.00220736
0.00154204
0.00158346
0.00157144
0.000996804
0.00168654
0.000846982
0.00105134
0.000938487
0.000484465
0.000493565
0.000946144
0.000492744
0.000610458
0.000690649
0.000875858
0.00065173
0.000577903
0.00133199
0.00137667
0.00130769
0.00209954
0.386149
0.371676
0.357762
0.344384
0.331516
0.319135
0.307219
0.295745
0.284694
0.274045
0.263781
0.253882
0.244332
0.235114
0.226214
0.217617
0.209311
0.201283
0.193523
0.186021
0.178769
0.171759
0.164984
0.15844
0.15212
0.146019
0.140133
0.134457
0.128987
0.123718
0.118645
0.113764
0.10907
0.104557
0.100221
0.0960553
0.0920558
0.0882167
0.0845323
0.0809975
0.0776067
0.0743546
0.0712356
0.0682448
0.0653767
0.0626265
0.0599888
0.057459
0.0550321
0.0527034
0.0504686
0.0483229
0.0462625
0.0442827
0.0423805
0.0405508
0.038792
0.0370983
0.0354697
0.0338993
0.0323893
0.0309314
0.0295303
0.0281753
0.0268747
0.0256146
0.0244076
0.0232354
0.0221163
0.0210255
0.0199891
0.0189738
0.0180158
0.0170699
0.0161866
0.0153038
0.0144915
0.0136661
0.0129199
0.0121485
0.0114587
0.0107472
0.0100882
0.00946723
0.00877972
0.00832001
0.00751721
0.00725633
0.00641039
0.00614966
0.00547838
0.00506508
0.00472671
0.00392477
0.00416858
0.00284302
0.00362328
0.00230555
0.00269487
0.00190417
0.00200815
0.0018619
0.00116829
0.00191189
0.00104795
0.00128722
0.00109931
0.000737615
0.000724353
0.00114422
0.000709393
0.000743789
0.00077241
0.00102446
0.000843099
0.000627569
0.00152211
0.00158575
0.00152924
0.00235013
0.383768
0.369306
0.355403
0.342037
0.329183
0.31682
0.304923
0.293474
0.282451
0.271835
0.261609
0.251755
0.242254
0.233092
0.224253
0.215723
0.207489
0.199537
0.191857
0.184437
0.177269
0.170344
0.163654
0.157192
0.150952
0.144928
0.139115