/*--------------------------------*- C++ -*----------------------------------*\
| =========                 |                                                 |
| \\      /  F ield         | OpenFOAM: The Open Source CFD Toolbox           |
|  \\    /   O peration     | Version:  2412                                  |
|   \\  /    A nd           | Website:  www.openfoam.com                      |
|    \\/     M anipulation  |                                                 |
\*---------------------------------------------------------------------------*/
FoamFile
{
    version     2.0;
    format      ascii;
    arch        "LSB;label=32;scalar=64";
    class       volVectorField;
    location    "0.94";
    object      ddtCorrDdt0(U);
}
// * * * * * * * * * * * * * * * * * * * * * * * * * * * * * * * * * * * * * //

dimensions      [0 1 -2 0 0 0 0];

internalField   nonuniform List<vector> 
12600
(
(9.2201 0 0.682671)
(4.10437 -3.25611e-18 0.283662)
(-3.3863 -1.20881e-18 -1.54184)
(-5.76603 0 -2.16015)
(0.54718 -6.08598e-19 -0.00554886)
(8.76574 0 3.00992)
(6.86497 -3.98596e-18 2.07366)
(-5.72978 0 -3.13019)
(-12.8991 0 -5.87607)
(-1.09145 0 -0.455778)
(16.4762 0 6.76777)
(12.752 -3.09406e-18 5.38905)
(-15.3652 -4.82186e-17 -6.0378)
(-30.5958 0 -12.6764)
(2.75674 -4.14448e-17 0.378466)
(54.5661 0 21.3799)
(39.4934 -1.39303e-17 15.0459)
(-63.4203 0 -27.2375)
(-121.558 1.54274e-16 -47.0007)
(9.58142 0 15.7739)
(216.912 0 96.4895)
(167.553 0 38.4)
(-200.544 -1.59348e-15 -141.858)
(-406.314 -1.1235e-15 -165.349)
(-83.8458 -2.15018e-16 65.802)
(288.721 1.13193e-15 209.469)
(237.779 0 113.142)
(-5.0321 0 -27.201)
(-58.6846 0 -26.503)
(17.5151 -7.95929e-17 14.8562)
(23.1737 4.19982e-16 7.15373)
(-16.4098 0 -11.2904)
(-14.2777 0 -4.56443)
(13.0314 -1.3009e-16 8.24183)
(14.1135 3.71574e-17 5.44962)
(-5.60568 0 -4.23745)
(-11.5012 0 -5.24709)
(0.67833 -1.26468e-16 1.0534)
(9.83342 0 5.21586)
(3.45792 3.88452e-18 0.799346)
(-5.24872 6.14709e-17 -3.06732)
(-3.98176 -1.30385e-17 -1.57443)
(2.20206 0 1.14595)
(3.68281 -7.42799e-18 1.31587)
(0.119861 2.94455e-17 -0.15551)
(-2.38629 -3.63815e-17 -0.822177)
(-1.17116 -1.59453e-17 -0.251756)
(0.86971 0 0.383302)
(0.752648 -4.68007e-18 0.342961)
(-0.873535 2.28014e-17 -0.0227418)
(-1.7213 0 -0.124227)
(-1.19574 7.35857e-20 0.100766)
(-0.523141 6.99967e-18 0.331516)
(-0.598298 0 0.36878)
(-0.953139 1.71082e-17 0.312055)
(-0.774786 0 0.310654)
(-0.1288 0 0.271563)
(0.360745 1.5257e-19 0.0950785)
(0.553205 9.25651e-20 0.0586014)
(0.610205 -1.30276e-17 0.166483)
(0.552253 1.08453e-17 0.160185)
(0.353832 -1.5823e-17 0.0566137)
(-0.0474783 0 -0.130573)
(-0.515559 -2.61351e-20 -0.326238)
(-0.816665 2.84063e-18 -0.371762)
(-0.880826 7.16622e-18 -0.130848)
(-0.914916 -6.40006e-18 0.305257)
(-1.27644 0 0.51542)
(-1.669 0 0.918093)
(-2.20934 0 1.28203)
(-2.99386 0 1.83449)
(-4.0577 0 2.30855)
(-4.84394 -1.20673e-16 2.62888)
(-4.61322 1.56283e-16 2.68169)
(-3.75186 0 2.0094)
(-2.76436 0 1.88675)
(-3.03505 3.61841e-18 1.72621)
(-3.77053 3.14855e-19 1.79452)
(-4.21853 3.97849e-17 2.03106)
(-3.89762 0 2.14126)
(-2.77631 0 1.40042)
(-2.57229 0 0.548798)
(-2.18368 1.86477e-18 0.109989)
(0.318412 0 -1.3077)
(4.88252 0 -2.06184)
(7.9989 9.79237e-17 -2.28184)
(7.93969 -1.53155e-18 -3.33822)
(5.99352 0 -3.89548)
(5.04195 0 -3.45074)
(5.88399 -1.66727e-16 -3.35592)
(4.08704 1.89377e-16 -2.10106)
(7.34072 8.35826e-17 -4.12298)
(9.59393 -3.02497e-17 -5.86366)
(-13.7162 2.61513e-18 7.82629)
(22.4468 -1.91359e-18 -11.869)
(15.9416 -3.83701e-16 -7.74213)
(-9.9565 0 5.66645)
(7.49963 0 -4.90549)
(-2.96458 0 1.40102)
(-0.36572 1.3054e-15 0.523338)
(1.26301 8.11159e-17 0.306887)
(-2.5641 -4.07829e-16 1.58194)
(-0.116245 -3.8737e-16 -0.345201)
(-2.84225 0 1.08281)
(-2.07541 0 0.889649)
(0.944671 0 -0.568517)
(6.4149 -6.34053e-17 -3.67167)
(11.208 0 -6.33403)
(10.9367 2.63694e-16 -6.06117)
(6.49713 0 -3.63159)
(0.8216 0 -0.727579)
(-4.97512 1.59472e-16 3.01088)
(-9.70715 0 5.7682)
(-10.9542 0 6.36088)
(-13.8848 0 7.73294)
(-11.4617 -1.63072e-16 6.23783)
(-3.33875 0 1.82077)
(-1.49528 1.18009e-16 0.88835)
(-0.61941 0 0.605022)
(1.9284 1.69433e-19 -0.996988)
(12.3662 7.5194e-19 1.20958)
(6.60425 2.2832e-18 -0.45234)
(-1.90176 6.44498e-19 -3.93543)
(-2.65857 0 -4.22459)
(6.37674 -8.7455e-19 0.341443)
(13.2724 1.23953e-19 5.06907)
(5.52096 4.15783e-18 2.63585)
(-10.4871 -5.49785e-18 -6.03071)
(-13.1247 0 -9.81962)
(5.76643 0 -0.722981)
(23.0694 0 11.2721)
(10.0536 0 8.73639)
(-25.3057 0 -10.2112)
(-32.7447 0 -20.5118)
(17.3993 -4.05671e-18 1.37692)
(69.1918 0 33.932)
(25.1787 -5.84845e-17 19.0977)
(-99.3754 0 -49.1993)
(-121.027 -3.16478e-16 -67.1089)
(78.0693 1.38827e-16 52.1801)
(270.385 0 168.748)
(81.8465 -7.04507e-16 8.63476)
(-370.218 6.85147e-16 -328.324)
(-408.498 6.76535e-16 -260.141)
(134.339 -1.71799e-15 270.274)
(444.661 0 453.228)
(241.218 -4.73401e-16 217.489)
(-61.7611 0 -68.0508)
(-63.1835 0 -50.8695)
(31.4652 0 25.4798)
(20.5545 -2.18487e-16 11.2981)
(-22.5982 0 -18.5149)
(-10.9038 0 -5.89323)
(18.7221 0 14.1717)
(13.7283 0 8.1422)
(-9.11109 0 -7.39851)
(-12.0845 0 -8.06938)
(3.25201 1.3012e-16 2.23504)
(11.3023 0 7.59861)
(2.25054 -1.39735e-16 0.950848)
(-6.55635 -1.1737e-16 -4.46255)
(-3.88028 2.23135e-17 -2.12257)
(2.85552 0 1.91292)
(3.72488 0 2.09337)
(-0.47658 -6.01307e-17 -0.190803)
(-2.94793 3.71485e-17 -1.19485)
(-1.34753 1.88305e-17 -0.254548)
(0.861399 0 0.739648)
(0.605086 7.40259e-18 0.601716)
(-1.16284 0 -0.0570281)
(-1.94847 0 -0.25167)
(-1.25025 -7.12921e-18 0.0890324)
(-0.47141 0 0.403484)
(-0.532303 0 0.382071)
(-0.870549 -1.72854e-17 0.223557)
(-0.630434 0 0.173496)
(0.0759482 0 0.104747)
(0.666287 3.1013e-19 -0.0250153)
(0.927879 -1.18351e-17 -0.0130575)
(0.951205 -1.84354e-19 0.147513)
(0.750553 0 0.20383)
(0.310983 1.59338e-17 0.176169)
(-0.433771 8.34299e-18 0.0544085)
(-1.28223 0 -0.0654817)
(-1.97744 -5.87243e-18 0.0506528)
(-2.45113 1.11223e-19 0.58467)
(-3.03372 0 1.46336)
(-4.18683 7.47921e-18 2.20729)
(-5.6858 0 3.41346)
(-7.78892 0 4.69889)
(-10.5278 0 6.40392)
(-13.4977 0 7.87571)
(-15.4376 2.37067e-16 8.77515)
(-15.0351 -1.53672e-16 8.65642)
(-12.6898 0 6.99246)
(-9.99991 0 5.9924)
(-9.74548 4.15476e-18 5.52744)
(-10.7005 9.60319e-19 5.69363)
(-11.7648 8.67393e-19 6.33815)
(-11.201 0 6.37695)
(-7.38999 0 4.08163)
(-4.62807 0 1.658)
(-1.82857 2.69037e-18 -0.144005)
(4.80584 -3.03282e-16 -3.8571)
(14.662 3.57113e-16 -6.94932)
(20.631 -9.46162e-17 -9.27689)
(22.0807 -1.78394e-18 -11.5498)
(19.4669 1.56693e-16 -12.0104)
(16.9574 0 -10.5914)
(18.3135 1.60254e-16 -10.5745)
(13.0235 0 -7.16471)
(21.6953 -8.01406e-17 -12.8193)
(31.1875 0 -17.6323)
(-44.7133 -1.1496e-16 25.4176)
(68.7026 -8.18502e-16 -39.4569)
(53.3959 0 -27.7772)
(-30.7408 0 17.8883)
(24.0666 -9.06854e-16 -14.9588)
(-7.01536 2.09713e-16 4.18183)
(-1.51161 -1.23982e-15 1.16611)
(0.906839 -7.70383e-17 0.640981)
(-8.43823 3.86983e-16 4.94032)
(0.624842 0 -0.904252)
(-7.52797 -1.27134e-16 3.77946)
(-5.2163 0 2.61226)
(5.42497 0 -3.24882)
(22.9902 6.30625e-17 -13.3942)
(35.7502 0 -20.6887)
(31.9659 7.11114e-19 -18.2335)
(16.3365 -4.64684e-17 -9.29505)
(-1.12005 0 1.00021)
(-17.6591 0 10.6203)
(-30.7771 0 18.1636)
(-33.2674 -3.33192e-17 19.5027)
(-40.3177 3.71733e-16 23.2784)
(-33.9878 1.53303e-16 19.0911)
(-10.6841 0 5.77813)
(-4.77468 -1.1084e-16 2.73363)
(-2.98628 0 1.98398)
(5.22072 -8.82691e-16 -3.01835)
(11.2945 -1.5047e-18 -0.683648)
(5.82577 6.50896e-19 -2.4748)
(0.245494 2.36787e-19 -5.04997)
(3.06754 0 -3.89574)
(12.513 1.53685e-18 0.821543)
(15.2963 -2.5312e-18 3.53933)
(3.43534 0 -0.11323)
(-11.3476 5.2182e-18 -6.68097)
(-8.59411 0 -7.39409)
(12.4227 -5.56259e-18 0.633191)
(24.8508 0 8.79211)
(5.01298 0 4.93951)
(-28.6605 0 -8.92153)
(-25.7751 0 -13.7077)
(27.2561 2.89416e-17 2.23884)
(62.4942 0 18.7321)
(2.5596 0 2.15276)
(-98.4497 0 -32.2389)
(-68.8852 1.47922e-16 -13.7056)
(118.763 -9.87578e-18 65.4972)
(187.662 0 62.1757)
(-80.6802 3.06333e-16 -127.515)
(-356.716 0 -267.583)
(-140.225 -7.31624e-16 0.425393)
(356.807 0 481.907)
(423.429 0 464.091)
(108.787 4.49073e-16 122.047)
(-109.827 0 -92.0123)
(-42.6811 0 -37.9809)
(36.6203 5.54913e-17 22.0119)
(12.969 0 5.34669)
(-20.8907 0 -13.3474)
(-4.81044 0 -0.327822)
(18.2482 0 11.8533)
(9.48984 -7.39027e-17 4.08452)
(-9.84618 0 -6.58902)
(-9.56264 0 -4.84802)
(4.38934 -1.13243e-16 2.8977)
(9.06533 0 4.47925)
(0.744661 1.38262e-16 0.0278033)
(-5.98996 6.65025e-18 -2.59753)
(-3.17336 -2.11265e-17 -0.726279)
(2.4818 0 1.74199)
(2.80405 0 1.58735)
(-1.08052 2.84202e-17 -0.0405341)
(-3.13016 0 -0.622466)
(-1.49416 -1.78131e-17 0.160585)
(0.52045 0 0.829805)
(0.183165 1.2195e-18 0.557806)
(-1.46224 0 -0.067942)
(-2.07538 0 -0.262263)
(-1.29299 0 -0.0511094)
(-0.501148 -5.39905e-18 0.0648759)
(-0.521775 0 -0.111495)
(-0.764559 0 -0.352128)
(-0.423507 0 -0.454124)
(0.411253 0 -0.472798)
(1.16663 -1.29652e-17 -0.398715)
(1.42763 0 -0.332486)
(1.29207 -2.51952e-19 -0.226792)
(0.931833 0 -0.0424316)
(0.32395 -7.56185e-18 0.216713)
(-0.611267 -7.86627e-18 0.497661)
(-1.68118 0 0.821925)
(-2.71691 5.36711e-18 1.31471)
(-3.74638 -3.43391e-18 2.037)
(-5.12904 0 3.05783)
(-7.14361 -7.04348e-18 4.37294)
(-9.91604 0 6.29282)
(-13.6042 0 8.56794)
(-18.3075 0 11.3341)
(-23.0642 0 13.6842)
(-26.0346 -9.81885e-19 14.9344)
(-25.3947 1.44516e-16 14.3371)
(-21.2338 0 11.9296)
(-16.8692 0 9.63584)
(-15.7526 9.53192e-19 8.81159)
(-16.605 2.45016e-18 8.9602)
(-17.9582 -1.9166e-17 9.79613)
(-16.9145 0 9.44499)
(-10.6507 0 5.53097)
(-5.42253 0 2.14)
(-0.723791 -6.89777e-18 -1.08762)
(9.61443 -7.92895e-19 -6.44656)
(23.6711 -3.35001e-16 -12.5306)
(31.939 0 -17.1148)
(35.1152 1.57652e-16 -19.6367)
(32.0621 -1.469e-16 -19.0869)
(28.0591 0 -16.7806)
(30.2771 0 -17.1564)
(22.6671 -1.777e-16 -12.6451)
(33.689 0 -20.098)
(50.3906 2.8995e-17 -26.4285)
(-73.1869 -8.58821e-20 40.8582)
(111.054 7.64713e-16 -66.152)
(97.8513 3.58392e-16 -50.8208)
(-49.7028 0 29.1391)
(37.2438 8.48663e-16 -22.8662)
(-10.0989 -1.96228e-16 6.44414)
(-2.01003 1.15793e-15 1.11106)
(-0.432285 0 1.23038)
(-13.9017 3.6107e-16 7.8865)
(1.16159 0 -1.24792)
(-12.047 1.1888e-16 6.55032)
(-7.65794 2.27018e-16 3.73734)
(12.016 0 -7.96712)
(41.6171 -5.89475e-17 -24.9279)
(59.4647 0 -34.4356)
(49.1152 -4.67822e-16 -27.2645)
(21.2579 4.34233e-17 -11.046)
(-7.15406 0 4.84364)
(-30.7324 0 19.0633)
(-49.8066 0 29.3535)
(-52.3025 -6.8532e-19 30.51)
(-62.4223 -3.47229e-16 35.7869)
(-53.8022 -1.47389e-16 29.6981)
(-17.739 0 9.23579)
(-7.42098 -1.02266e-16 4.12892)
(-5.42793 0 2.89599)
(7.80425 -1.1692e-19 -4.62893)
(9.53101 7.49851e-19 -2.47177)
(3.9851 -3.79657e-19 -4.13514)
(1.29396 3.27049e-19 -5.70242)
(7.78781 -5.86302e-19 -3.69073)
(17.5705 4.66672e-18 0.634398)
(16.6336 6.87583e-18 1.938)
(1.56037 0 -2.44882)
(-11.1267 0 -7.61724)
(-2.78372 0 -5.89123)
(19.9166 5.2693e-18 2.45383)
(26.4095 0 7.48396)
(-0.276251 0 1.05116)
(-31.8594 0 -10.3404)
(-19.9355 0 -10.7086)
(34.3921 0 2.73912)
(57.1612 5.55103e-17 9.84206)
(-7.53923 -5.91343e-17 -4.47365)
(-83.6461 0 -13.1831)
(-33.6737 0 19.024)
(100.327 -1.15387e-16 41.8045)
(78.9622 -8.97628e-17 -47.945)
(-134.684 3.42843e-16 -177.138)
(-183.871 2.12455e-16 -79.2779)
(127.858 6.92736e-16 261.977)
(385.348 5.09852e-16 460.554)
(245.919 -7.0785e-16 290.989)
(-64.0437 0 -40.1916)
(-121.711 -2.41648e-16 -96.6332)
(-11.4133 0 -13.4914)
(42.1561 -5.25247e-17 24.3065)
(5.53218 0 -0.0577628)
(-20.1336 0 -11.9128)
(0.105573 0 3.23484)
(18.173 -3.11739e-17 11.5032)
(6.00257 6.99095e-17 1.6796)
(-11.03 0 -7.15476)
(-7.92084 0 -3.54022)
(5.53203 1.07084e-16 3.79949)
(8.21852 0 4.05863)
(-0.494955 2.12957e-19 -0.497409)
(-6.26896 4.23043e-17 -2.39756)
(-2.87358 0 -0.132781)
(2.42555 0 2.12635)
(2.21575 0 1.64497)
(-1.70745 0 -0.0282204)
(-3.45358 2.26177e-17 -0.447487)
(-1.64094 0 0.427146)
(0.304377 1.77194e-17 1.00936)
(-0.121058 -7.76031e-18 0.586459)
(-1.69586 0 -0.122094)
(-2.13657 0 -0.333517)
(-1.21702 0 -0.156835)
(-0.35487 5.09376e-18 -0.130086)
(-0.306177 4.35753e-18 -0.408939)
(-0.439338 1.49302e-17 -0.711575)
(0.0287404 0 -0.824056)
(0.973395 3.42065e-18 -0.807228)
(1.73947 1.27607e-17 -0.76831)
(1.94827 0 -0.728069)
(1.71786 2.43139e-17 -0.577192)
(1.2191 0 -0.250563)
(0.417652 7.769e-18 0.220906)
(-0.764177 8.54561e-18 0.773863)
(-2.12791 0 1.40069)
(-3.54848 -2.35523e-18 2.2077)
(-5.09817 4.66037e-18 3.23243)
(-7.20247 0 4.61181)
(-10.1325 0 6.50574)
(-14.1944 0 9.19159)
(-19.4543 4.71708e-17 12.4359)
(-25.9951 4.65701e-17 16.2532)
(-32.3531 0 19.409)
(-36.207 -1.03595e-16 20.8756)
(-35.2215 -1.35233e-16 19.7522)
(-29.3535 0 16.3137)
(-23.1033 0 12.8684)
(-20.89 -4.56093e-18 11.5263)
(-21.3164 -1.91581e-18 11.5814)
(-22.6466 0 12.4473)
(-20.9387 0 11.5653)
(-12.5323 0 6.01082)
(-5.24098 0 1.849)
(0.94209 -6.68523e-19 -2.39392)
(14.0338 2.67554e-16 -9.45708)
(31.6702 0 -18.3103)
(42.5158 0 -23.9763)
(47.0573 0 -26.8363)
(43.2472 -1.32389e-16 -25.5745)
(38.0351 0 -22.5419)
(41.6516 1.38449e-16 -23.5168)
(33.2251 1.66408e-16 -18.596)
(43.1436 -7.48373e-17 -26.2939)
(65.4588 -2.71435e-17 -32.261)
(-91.9086 1.02629e-16 50.2752)
(145.28 -7.1567e-16 -90.3604)
(150.877 -3.35356e-16 -76.9159)
(-65.8569 0 39.8882)
(46.2849 0 -28.9947)
(-11.9362 -1.82911e-16 8.46673)
(-1.77189 -5.40885e-16 0.721547)
(-2.49409 7.90022e-17 2.64338)
(-18.8197 -1.61913e-18 10.5478)
(1.40206 0 -1.51457)
(-16.1701 0 9.0909)
(-9.10966 -2.12195e-16 4.05469)
(21.0025 0 -14.1699)
(61.8938 5.66798e-17 -37.5351)
(81.1424 0 -47.0619)
(60.8149 -1.57463e-18 -33.2339)
(20.4719 0 -9.60452)
(-15.7545 -1.48637e-16 11.3807)
(-43.4759 1.28649e-16 27.2475)
(-65.8694 9.24344e-17 39.1174)
(-67.1598 -7.0745e-19 39.4514)
(-79.3993 0 45.8589)
(-70.5226 1.37643e-16 38.5282)
(-24.4725 4.96805e-16 12.1371)
(-9.53729 9.54928e-17 5.21994)
(-7.46433 0 4.03334)
(9.55656 -1.31163e-19 -5.89621)
(7.82478 0 -3.39471)
(2.03077 -3.39979e-19 -5.13678)
(1.57237 0 -6.04148)
(10.8432 5.53955e-19 -3.63084)
(20.31 -5.78311e-18 -0.125039)
(16.414 -4.33721e-18 -0.0384037)
(0.358697 0 -4.12839)
(-8.60566 0 -7.149)
(4.20493 -7.54734e-18 -4.00721)
(25.8186 5.29046e-18 2.61485)
(25.604 -1.5397e-17 4.07528)
(-5.38861 -1.46174e-17 -3.19966)
(-32.5114 2.73985e-17 -10.7644)
(-12.9179 0 -7.52361)
(40.3256 0 3.24295)
(53.7042 -1.03585e-16 4.47742)
(-10.0695 -1.15362e-17 -6.30052)
(-69.2354 0 -1.78666)
(-21.6756 -8.7946e-17 26.6983)
(66.9403 -1.86538e-16 17.4607)
(29.4485 8.48462e-17 -72.9356)
(-87.1946 0 -120.887)
(-24.2081 -2.00844e-16 42.5005)
(208.146 -2.03553e-16 289.161)
(242.417 -4.8205e-16 265.123)
(26.9274 1.9697e-16 44.3861)
(-142.734 0 -113.343)
(-92.5736 -6.7725e-17 -76.9138)
(22.5586 0 15.4308)
(42.6122 -1.51597e-16 25.2595)
(-2.44365 0 -5.44583)
(-18.8122 0 -11.4654)
(4.30275 0 5.31971)
(17.1998 2.94426e-17 10.4617)
(2.62002 0 -0.478809)
(-11.6565 0 -7.4997)
(-6.05371 0 -2.38056)
(6.54854 0 4.48719)
(7.36967 5.48649e-18 3.73054)
(-1.59742 -1.2378e-16 -0.969875)
(-6.38304 0 -2.28797)
(-2.44757 2.55562e-17 0.362765)
(2.45103 0 2.45685)
(1.71606 0 1.66206)
(-2.19964 0 -0.0694587)
(-3.61101 -3.40683e-18 -0.338639)
(-1.62951 0 0.619487)
(0.227004 -1.67075e-17 1.10957)
(-0.285952 0 0.53672)
(-1.77439 0 -0.25076)
(-2.03475 5.17457e-18 -0.477094)
(-0.984974 0 -0.332783)
(-0.0627261 0 -0.388796)
(0.0506224 1.30757e-19 -0.760159)
(0.0254455 -1.40624e-17 -1.11512)
(0.613481 0 -1.23369)
(1.64085 1.09056e-20 -1.20255)
(2.41972 -1.2528e-17 -1.16883)
(2.58879 0 -1.1204)
(2.2757 -1.15653e-17 -0.911022)
(1.64164 0 -0.46285)
(0.642376 -7.30873e-18 0.172372)
(-0.793573 -8.0379e-18 0.933831)
(-2.45851 0 1.80703)
(-4.26095 5.00042e-19 2.9113)
(-6.30844 1.16155e-18 4.28891)
(-9.107 0 6.11759)
(-12.9662 0 8.60872)
(-18.2898 0 12.0891)
(-25.0409 -8.67731e-17 16.2873)
(-33.2822 -1.89476e-18 21.0563)
(-41.0735 0 24.8775)
(-45.6945 9.4079e-17 26.4397)
(-44.3772 2.53299e-16 24.7205)
(-36.9414 0 20.1377)
(-28.7109 0 15.6014)
(-25.1531 0 13.6547)
(-24.8599 -2.33648e-18 13.4773)
(-25.8749 0 14.1663)
(-23.4087 0 12.5272)
(-13.0435 0 5.63795)
(-4.21861 0 0.79859)
(2.9606 4.19028e-18 -4.07788)
(17.9654 2.48428e-16 -12.6833)
(38.788 0 -23.5097)
(51.8988 0 -30.0673)
(57.6608 0 -33.1402)
(53.0851 4.12251e-18 -31.1694)
(47.0638 0 -27.7003)
(52.6436 -1.29609e-16 -29.6253)
(44.754 0 -24.9947)
(50.1658 7.00389e-17 -31.1576)
(75.2139 0 -34.0682)
(-90.0278 -4.75767e-17 47.2518)
(165.801 0 -108.573)
(211.575 0 -106.152)
(-78.9277 0 49.9837)
(51.3978 0 -33.1022)
(-12.6678 1.71029e-16 10.1232)
(-1.03402 0 0.0100166)
(-5.34462 -7.38547e-17 4.73587)
(-23.2481 -3.14062e-16 12.8164)
(1.35767 0 -1.62061)
(-19.6014 0 11.2567)
(-9.20838 0 3.34753)
(32.048 0 -22.1927)
(82.9212 1.39948e-18 -50.8709)
(99.7131 0 -57.5598)
(66.501 4.14109e-16 -34.9981)
(14.8849 0 -4.56841)
(-26.7352 2.78412e-16 17.8256)
(-54.932 -1.20155e-16 34.8525)
(-78.6379 -8.63266e-17 46.7791)
(-77.8414 2.84068e-17 45.6917)
(-91.5091 0 52.7433)
(-84.6929 0 45.4191)
(-30.8344 -9.28868e-16 14.5213)
(-11.256 9.12473e-17 5.89077)
(-9.4952 -1.86666e-16 4.4909)
(10.5521 3.59537e-16 -6.76766)
(6.21617 0 -3.67144)
(0.453 4.95182e-19 -5.46356)
(1.66142 0 -6.08059)
(12.4921 0 -3.80814)
(20.9703 0 -1.20484)
(15.0857 0 -1.69201)
(-0.221806 0 -4.80787)
(-5.2338 8.51953e-18 -6.12719)
(10.1963 7.12152e-18 -3.0663)
(29.0814 -1.08637e-17 0.815632)
(23.4373 2.97988e-17 -0.342316)
(-8.36583 1.37963e-17 -6.27226)
(-29.3956 -2.58634e-17 -9.05126)
(-4.61562 0 -3.43015)
(44.2998 0 3.10069)
(49.4972 9.57432e-17 -1.42022)
(-10.3244 1.32511e-16 -9.6105)
(-56.6745 0 3.02322)
(-16.8609 8.30178e-17 28.9839)
(44.4611 1.76085e-16 12.4988)
(21.6886 0 -53.994)
(-21.0604 -2.72837e-17 -59.1216)
(56.174 0 69.8198)
(156.91 -1.77059e-16 168.93)
(81.6399 4.75235e-16 76.239)
(-95.0437 2.76197e-16 -85.4401)
(-135.528 0 -98.3772)
(-40.4129 2.79377e-16 -26.1542)
(49.5255 -9.96388e-17 37.3731)
(34.9408 3.33381e-16 21.1464)
(-10.7577 1.3778e-16 -11.3089)
(-16.4513 0 -11.2585)
(8.14898 -8.49171e-17 6.58951)
(15.4753 0 8.80029)
(-0.570424 0 -2.45348)
(-11.6447 0 -7.52426)
(-3.91794 0 -1.25101)
(7.41536 0 4.92891)
(6.39489 9.20334e-18 3.24838)
(-2.58125 5.78505e-17 -1.45679)
(-6.26102 0 -2.17922)
(-1.86168 -4.93583e-17 0.788989)
(2.539 0 2.67506)
(1.28766 0 1.58116)
(-2.54754 0 -0.179934)
(-3.58453 -1.68841e-17 -0.296474)
(-1.45228 0 0.725172)
(0.286802 0 1.1074)
(-0.313537 0 0.386393)
(-1.69721 0 -0.470775)
(-1.76924 -8.81197e-18 -0.707545)
(-0.598511 0 -0.594747)
(0.371432 0 -0.728814)
(0.544297 -3.98546e-18 -1.18259)
(0.625403 0 -1.57985)
(1.32615 0 -1.70013)
(2.42174 -6.07848e-18 -1.65712)
(3.20751 6.01291e-18 -1.61831)
(3.34107 0 -1.54742)
(2.95659 0 -1.27339)
(2.20035 0 -0.713413)
(1.01941 7.69039e-18 0.0647639)
(-0.652689 0 1.00614)
(-2.60153 0 2.09883)
(-4.76899 2.30946e-19 3.48562)
(-7.29736 -1.17366e-17 5.22409)
(-10.7696 0 7.53266)
(-15.5272 0 10.6459)
(-22.0463 0 14.9211)
(-30.1703 3.98538e-17 20.0226)
(-39.9367 -3.92673e-17 25.6299)
(-48.995 -6.82789e-17 29.971)
(-54.3166 -8.82573e-17 31.5145)
(-52.7674 -1.1852e-16 29.156)
(-43.9388 1.15185e-16 23.4562)
(-33.7218 0 17.8397)
(-28.5895 0 15.1917)
(-27.2551 3.47588e-18 14.6585)
(-27.6271 0 15.0082)
(-24.2836 0 12.5171)
(-12.3156 0 4.40023)
(-2.38913 0 -0.769474)
(5.21663 0 -5.96285)
(21.6968 -4.63141e-16 -15.26)
(44.7678 0 -28.2361)
(59.9184 -6.5694e-17 -35.3916)
(66.7471 0 -38.6326)
(61.5201 5.18588e-18 -35.9515)
(55.1978 1.51567e-16 -32.4068)
(63.3685 0 -35.6712)
(57.0855 0 -31.6757)
(54.4989 0 -34.4338)
(78.2165 0 -32.1018)
(-54.4921 4.00167e-17 24.7703)
(164.866 0 -116.078)
(276.492 0 -136.562)
(-88.7583 0 59.9057)
(52.8549 0 -35.494)
(-12.4901 0 11.425)
(0.0278451 0 -0.815695)
(-8.90267 0 7.34514)
(-27.2096 0 14.7482)
(0.973423 2.67905e-16 -1.58168)
(-22.0691 0 12.8701)
(-7.71814 0 1.11677)
(45.0035 0 -31.7629)
(103.72 -5.07759e-17 -64.2534)
(113.893 0 -65.2034)
(65.5371 -1.94175e-16 -32.4397)
(5.16458 0 2.92346)
(-36.4912 7.87722e-19 26.609)
(-64.1074 0 41.3362)
(-87.7414 7.84997e-17 52.5077)
(-84.2947 0 49.724)
(-98.6186 0 57.157)
(-96.9027 0 51.203)
(-36.8198 4.34127e-16 16.477)
(-12.6422 -1.7207e-16 6.19255)
(-10.9646 3.46928e-16 5.06068)
(10.9305 3.35947e-16 -7.36633)
(4.66175 0 -3.69445)
(-0.673792 -9.31622e-19 -5.31881)
(1.98295 0 -5.79183)
(13.5107 0 -3.95282)
(20.5326 3.81791e-18 -2.20935)
(13.1857 5.28013e-18 -2.88424)
(-0.860522 5.66101e-19 -4.97732)
(-2.74037 -2.34264e-17 -5.35634)
(13.7675 0 -3.26182)
(29.98 -3.19414e-20 -1.86624)
(21.6655 -1.43863e-17 -3.98135)
(-7.882 0 -7.11311)
(-23.1733 0 -5.71398)
(2.79803 0 0.016974)
(44.4546 0 0.85493)
(43.7332 -4.17748e-18 -8.74614)
(-8.29505 -2.43773e-18 -14.0545)
(-42.7584 -1.87655e-17 5.21875)
(-10.3829 4.98282e-17 32.1794)
(34.3759 0 19.7343)
(26.8449 -6.79449e-17 -27.5543)
(17.1011 2.57267e-17 -31.371)
(59.7749 0 26.2353)
(65.2926 2.73637e-17 30.8534)
(-34.8266 -1.90242e-16 -57.8579)
(-124.921 1.59506e-16 -114.236)
(-91.2504 0 -62.0165)
(13.0684 0 26.2145)
(53.9391 9.38741e-17 41.8327)
(19.0248 2.0051e-17 8.94688)
(-19.2873 -2.18429e-16 -19.0526)
(-11.8149 0 -9.42056)
(11.8617 1.53237e-16 7.62563)
(13.2136 0 6.86855)
(-3.42854 0 -4.23395)
(-10.9261 1.75004e-17 -7.17338)
(-1.54554 0 -0.104317)
(8.06095 -5.15901e-17 5.08674)
(5.26508 7.41654e-18 2.53921)
(-3.40387 -4.82162e-17 -1.9508)
(-5.85425 0 -2.01015)
(-1.1144 -4.83383e-19 1.17046)
(2.66536 0 2.7614)
(0.919464 0 1.38534)
(-2.74392 0 -0.350533)
(-3.36904 0 -0.302734)
(-1.11931 0 0.751075)
(0.464675 9.39019e-18 0.999808)
(-0.221753 0 0.134403)
(-1.47943 0 -0.776487)
(-1.35687 3.70574e-18 -1.01703)
(-0.0791101 0 -0.937904)
(0.922928 -2.87015e-18 -1.14858)
(1.14984 3.87885e-18 -1.67522)
(1.33657 -1.08991e-17 -2.10369)
(2.14391 0 -2.22019)
(3.29538 2.85542e-18 -2.16569)
(4.08195 6.13098e-18 -2.11615)
(4.18483 0 -2.01377)
(3.74245 0 -1.67173)
(2.88343 0 -1.00589)
(1.54638 -7.22085e-18 -0.0968418)
(-0.332906 0 1.00599)
(-2.53574 0 2.29901)
(-5.03782 -6.57602e-19 3.95276)
(-8.0162 1.3663e-17 6.04498)
(-12.1231 0 8.83581)
(-17.7162 0 12.57)
(-25.3257 0 17.6109)
(-34.6688 0 23.5368)
(-45.7593 -3.25637e-17 29.8615)
(-55.9313 6.40185e-17 34.5878)
(-61.9385 0 36.0255)
(-60.3361 0 33.0219)
(-50.378 -1.07951e-16 26.266)
(-38.2124 0 19.5977)
(-31.2987 -1.05162e-17 16.1327)
(-28.5732 9.01384e-18 15.1395)
(-27.9797 0 14.982)
(-23.6905 0 11.5436)
(-10.4873 0 2.39593)
(0.053027 0 -2.77151)
(7.5757 0 -7.983)
(24.21 2.15748e-16 -18.7622)
(49.6459 0 -32.1478)
(66.4283 1.24395e-16 -40.0374)
(74.3599 0 -43.1956)
(68.625 6.28912e-18 -39.9256)
(62.5763 8.0583e-18 -36.745)
(73.9931 0 -41.7698)
(69.7854 -1.63383e-16 -38.2935)
(55.5474 0 -35.5451)
(73.6559 0 -26.8938)
(23.3721 -7.10094e-17 -21.7146)
(133.768 0 -107.426)
(338.207 0 -164.867)
(-95.5112 0 70.2021)
(51.1581 0 -36.393)
(-11.666 0 12.4588)
(1.15515 0 -1.642)
(-12.801 0 10.4273)
(-30.8183 0 16.2913)
(0.212784 -2.50289e-16 -1.37987)
(-23.3786 0 13.7454)
(-3.93115 0 -2.19976)
(59.583 0 -42.736)
(123.253 5.24772e-17 -77.0161)
(122.648 2.32552e-16 -69.1236)
(58.1192 1.83986e-16 -25.5121)
(-6.33355 -3.33901e-17 11.9133)
(-46.965 7.96099e-19 30.6542)
(-71.1052 -1.00885e-16 46.3239)
(-93.5216 -1.45263e-16 56.1088)
(-87.4217 0 51.625)
(-101.692 -2.70328e-16 59.2104)
(-108.403 1.1363e-16 56.3725)
(-42.5326 0 17.9045)
(-13.6605 8.11055e-17 6.17264)
(-11.9309 -1.6118e-16 5.56251)
(10.8399 -3.13581e-16 -7.74724)
(3.25839 0 -3.74501)
(-1.39827 5.35277e-19 -4.94929)
(2.64821 0 -5.18723)
(14.3973 0 -3.84043)
(19.7792 -3.59498e-18 -2.91559)
(11.1869 -4.97073e-18 -3.73237)
(-1.8676 -5.32872e-19 -5.0999)
(-1.7998 2.12942e-17 -5.05993)
(14.8921 0 -3.92949)
(29.4974 -3.95859e-18 -4.01177)
(21.1809 2.29933e-17 -5.83352)
(-4.66757 0 -6.22346)
(-16.2596 2.04102e-17 -2.4634)
(7.07424 0 1.49076)
(40.6251 1.46068e-17 -3.05375)
(37.9606 -3.82193e-17 -15.604)
(-2.54263 -5.87795e-17 -17.5763)
(-26.2424 1.76646e-17 5.99923)
(-2.40618 -7.30454e-17 33.4213)
(26.8433 0 24.7361)
(23.6589 6.39532e-17 -14.4183)
(19.6063 0 -33.9134)
(26.5967 0 -33.2054)
(-7.08425 3.01731e-16 -62.2764)
(-78.4603 -3.10928e-16 -107.161)
(-97.1379 0 -89.9668)
(-34.152 0 -15.4137)
(38.5101 0 43.7636)
(41.233 1.32739e-16 30.7902)
(-0.482185 -1.87632e-16 -7.38193)
(-21.5078 5.33456e-17 -21.5587)
(-3.59126 8.08146e-17 -4.93812)
(15.0972 -1.28519e-16 8.69587)
(10.4665 -2.77504e-17 4.78014)
(-5.87099 5.11622e-17 -5.83895)
(-9.47453 -9.5606e-18 -6.46394)
(0.962099 0 1.00964)
(8.42083 4.85205e-17 4.93586)
(4.02507 -1.97035e-17 1.6361)
(-3.99205 4.53403e-17 -2.40559)
(-5.14183 0 -1.76105)
(-0.230522 2.28211e-17 1.50174)
(2.80711 1.23067e-17 2.70784)
(0.610866 -1.16061e-17 1.07887)
(-2.78187 -1.63921e-17 -0.56774)
(-2.96994 0 -0.345972)
(-0.650078 0 0.702519)
(0.737762 -2.12602e-18 0.790995)
(-0.0300173 0 -0.210771)
(-1.1392 0 -1.15529)
(-0.819184 1.63662e-18 -1.39238)
(0.54751 5.45492e-18 -1.35077)
(1.56431 2.69557e-18 -1.6378)
(1.8402 1.55793e-20 -2.2277)
(2.13255 7.24343e-19 -2.67606)
(3.04055 0 -2.78353)
(4.23655 0 -2.71787)
(5.01898 -1.17336e-17 -2.65364)
(5.09678 0 -2.51437)
(4.61191 0 -2.10266)
(3.67254 8.99117e-18 -1.33657)
(2.20859 0 -0.307233)
(0.156358 0 0.941027)
(-2.26219 -4.11489e-18 2.4165)
(-5.05538 3.04562e-18 4.31926)
(-8.43384 -1.55373e-17 6.7488)
(-13.1096 0 10.0053)
(-19.4417 1.78898e-18 14.3338)
(-27.9995 0 20.0846)
(-38.3774 0 26.7394)
(-50.5834 5.8669e-17 33.6574)
(-61.7418 0 38.655)
(-68.4742 0 39.9372)
(-67.0657 0 36.3224)
(-56.3193 0 28.6047)
(-42.3189 0 20.8858)
(-33.4279 9.84778e-18 16.4979)
(-28.9329 3.5905e-18 14.9578)
(-27.0464 -2.72803e-17 14.1396)
(-21.7655 1.41927e-17 9.70539)
(-7.7395 0 -0.248912)
(2.91089 0 -5.04994)
(9.74507 0 -10.0074)
(27.3731 0 -19.6911)
(53.3271 0 -35.5847)
(71.5403 1.82723e-18 -43.9038)
(80.459 0 -47.0409)
(74.4909 8.77373e-17 -43.1814)
(69.3457 9.20151e-18 -40.853)
(84.6859 0 -48.0104)
(82.1303 1.52762e-16 -44.2956)
(52.3096 0 -33.6324)
(60.6869 2.87559e-17 -19.6358)
(137.81 4.99282e-18 -88.0108)
(67.5803 0 -78.0864)
(385.834 0 -185.77)
(-99.7346 0 80.7281)
(46.7774 0 -36.0664)
(-10.5171 1.41723e-16 13.3097)
(2.23093 0 -2.13459)
(-16.6899 0 13.593)
(-34.0952 -2.43093e-16 17.6068)
(-0.959735 0 -1.03079)
(-23.2912 7.27507e-17 13.7201)
(1.48521 1.65099e-16 -8.27323)
(75.1673 0 -54.892)
(140.496 -1.02109e-16 -88.2703)
(125.131 2.94952e-18 -68.7243)
(45.0962 -3.44267e-16 -14.7798)
(-17.9987 3.11768e-17 20.8259)
(-51.4488 -1.15078e-16 39.0315)
(-75.324 9.41898e-17 50.0526)
(-96.4504 6.71896e-17 58.145)
(-88.3584 -2.66719e-17 52.3555)
(-102.048 2.52357e-16 60.1029)
(-120.272 -1.06072e-16 61.8314)
(-48.0686 -3.81337e-16 18.8451)
(-14.4103 -7.98783e-17 5.86226)
(-12.9386 0 5.14138)
(10.4557 0 -8.00757)
(2.18171 0 -3.92055)
(-1.685 6.68457e-19 -4.54825)
(3.5728 0 -4.40595)
(15.1828 0 -3.47712)
(18.9636 0 -3.30178)
(9.38503 0 -4.32612)
(-2.95517 7.76629e-19 -5.24547)
(-1.84124 -6.39508e-18 -4.948)
(14.5619 4.64577e-18 -4.3492)
(28.4183 8.64334e-18 -5.03715)
(21.4688 -2.16144e-17 -6.25881)
(-0.822845 0 -4.97699)
(-11.0069 -1.91862e-17 -0.572077)
(7.61995 0 1.25167)
(34.4633 -1.3732e-17 -6.59931)
(33.9784 1.82151e-17 -19.7035)
(6.51038 0 -19.3655)
(-9.57116 0 4.09203)
(2.88235 2.45771e-17 28.3028)
(15.2772 0 20.8955)
(9.65706 0 -13.4967)
(4.95269 -1.12591e-17 -42.6728)
(-1.82195 0 -64.7692)
(-32.3424 0 -88.8118)
(-62.14 6.43878e-17 -90.3141)
(-44.0948 0 -43.4949)
(9.6909 0 17.5355)
(40.3891 0 39.1274)
(19.6782 -2.97203e-16 11.6747)
(-13.8247 0 -18.6215)
(-15.9033 4.98313e-17 -16.9936)
(5.28088 1.30567e-17 0.742549)
(17.462 5.6016e-17 10.0043)
(6.79823 2.60811e-17 1.86035)
(-7.71682 -8.85915e-17 -7.21887)
(-7.25825 -6.48433e-18 -5.40885)
(3.47582 0 2.02053)
(8.44659 0 4.46491)
(2.75735 -2.64203e-17 0.606807)
(-4.25926 3.15083e-17 -2.75833)
(-4.11867 0 -1.42293)
(0.748032 0 1.76488)
(2.93838 -3.80566e-18 2.50672)
(0.366098 1.08999e-17 0.673835)
(-2.65419 1.53934e-17 -0.813706)
(-2.3994 1.69561e-18 -0.416038)
(-0.0719171 0 0.583082)
(1.0787 -2.14603e-18 0.486493)
(0.240104 0 -0.637506)
(-0.697331 0 -1.59213)
(-0.181571 -1.53608e-18 -1.81919)
(1.25183 -5.1194e-18 -1.8206)
(2.26543 0 -2.18406)
(2.58655 -3.43244e-18 -2.82693)
(2.98542 7.72039e-19 -3.28339)
(3.98823 0 -3.37658)
(5.21807 0 -3.29991)
(5.99177 1.14125e-17 -3.21946)
(6.05124 0 -3.03986)
(5.54051 0 -2.55759)
(4.54428 -1.69522e-17 -1.69682)
(2.98365 0 -0.557527)
(0.795593 0 0.821153)
(-1.79426 8.69087e-18 2.46048)
(-4.82331 -2.85449e-18 4.59046)
(-8.53287 7.9396e-18 7.3317)
(-13.6845 0 11.02)
(-20.627 -1.6762e-18 15.8936)
(-29.9595 0 22.2776)
(-41.1702 -2.477e-17 29.5557)
(-54.2897 -2.63677e-17 36.9521)
(-66.3444 0 42.1389)
(-73.8962 0 43.2578)
(-72.9843 9.24169e-17 39.0996)
(-61.8672 9.3741e-17 30.5315)
(-46.1195 0 21.9202)
(-35.1236 0 16.4235)
(-28.5053 -2.64952e-17 14.1784)
(-24.9892 2.55286e-17 12.5547)
(-18.6892 -2.92568e-17 7.10801)
(-4.28084 0 -3.39489)
(5.96475 0 -7.45058)
(11.903 0 -11.9157)
(28.5079 0 -22.7184)
(55.6276 0 -38.4638)
(75.3958 2.08572e-18 -47.0216)
(85.1623 0 -50.281)
(79.2744 0 -45.8267)
(75.6765 1.0314e-17 -44.8892)
(95.5128 0 -54.588)
(93.1114 1.65338e-16 -48.9072)
(43.6522 0 -27.7111)
(38.5451 -2.68749e-17 -11.2986)
(259.981 6.19089e-18 -156.708)
(-28.3014 0 -29.8515)
(406.855 0 -193.564)
(-100.395 0 92.5024)
(40.3256 0 -34.6193)
(-9.34682 1.74741e-18 14.0723)
(2.86995 3.68286e-16 -2.46787)
(-20.0101 6.2918e-17 16.4361)
(-36.9576 2.27047e-16 18.709)
(-2.54871 0 -0.569972)
(-21.768 -6.79406e-17 12.6285)
(9.18955 -1.54174e-16 -16.0143)
(91.2873 0 -67.7426)
(154.413 4.95842e-17 -97.3074)
(120.992 -4.13931e-16 -63.6069)
(28.2719 1.61025e-16 -1.40571)
(-26.5928 0 28.2735)
(-53.4682 1.10308e-16 44.2374)
(-78.4422 0 52.7316)
(-97.5512 0 58.9846)
(-88.8633 2.48978e-17 52.6985)
(-101.942 0 60.9819)
(-133.231 0 67.8788)
(-53.587 3.55937e-16 19.3431)
(-14.996 7.45554e-17 5.27007)
(-13.434 -1.3962e-16 5.01071)
(9.88881 2.73978e-16 -8.19718)
(1.57889 0 -4.16956)
(-1.44989 -6.28277e-19 -4.21432)
(4.62008 -2.87969e-18 -3.65287)
(15.6596 0 -3.04526)
(18.0095 0 -3.47314)
(7.92654 0 -4.67079)
(-3.634 -7.29828e-19 -5.25174)
(-1.96372 0 -4.70004)
(13.7546 -4.36431e-18 -4.32403)
(27.012 0 -5.31074)
(21.5527 0 -6.28749)
(2.0002 -1.07802e-17 -4.43114)
(-8.2271 0 -0.125394)
(5.46768 2.46028e-17 0.588222)
(27.8069 -1.77001e-17 -7.98119)
(31.8679 -1.71056e-17 -20.1969)
(16.1599 0 -19.8663)
(3.87861 2.58712e-17 -1.02121)
(4.03639 0 17.4035)