/*--------------------------------*- C++ -*----------------------------------*\
| =========                 |                                                 |
| \\      /  F ield         | OpenFOAM: The Open Source CFD Toolbox           |
|  \\    /   O peration     | Version:  2412                                  |
|   \\  /    A nd           | Website:  www.openfoam.com                      |
|    \\/     M anipulation  |                                                 |
\*---------------------------------------------------------------------------*/
FoamFile
{
    version     2.0;
    format      ascii;
    arch        "LSB;label=32;scalar=64";
    class       surfaceScalarField;
    location    "0.915";
    object      phi;
}
// * * * * * * * * * * * * * * * * * * * * * * * * * * * * * * * * * * * * * //

dimensions      [0 3 -1 0 0 0 0];

oriented        oriented;

internalField   nonuniform List<scalar> 
24930
(
0.01798
0.0127729
-0.0307489
0.0106082
0.00737175
0.0069543
0.00365391
0.00517684
0.00177746
0.00420413
0.00097272
0.00358084
0.000623285
0.00313467
0.000446177
0.002795
0.000339676
0.0025257
0.000269303
0.00230569
0.000220007
0.00212182
0.000183876
0.00196534
0.000156481
0.0018302
0.00013514
0.00171206
0.000118148
0.00160769
0.000104369
0.00151467
9.30192e-05
0.00143113
8.35434e-05
0.00135559
7.55386e-05
0.00128688
6.87063e-05
0.00122406
6.28212e-05
0.00116635
5.77105e-05
0.00111311
5.32399e-05
0.0010638
4.93033e-05
0.00101799
4.58163e-05
0.000975272
4.27109e-05
0.000935337
3.99317e-05
0.000897901
3.74333e-05
0.000862719
3.51781e-05
0.000829581
3.31348e-05
0.0007983
3.12772e-05
0.000768714
2.95829e-05
0.000740677
2.80334e-05
0.000714061
2.66124e-05
0.000688752
2.53062e-05
0.000664647
2.41027e-05
0.000641653
2.2992e-05
0.000619687
2.19646e-05
0.000598673
2.10134e-05
0.000578543
2.01306e-05
0.000559232
1.93113e-05
0.000540685
1.85488e-05
0.000522846
1.78402e-05
0.000505669
1.7179e-05
0.000489107
1.65644e-05
0.00047312
1.59895e-05
0.000457666
1.54559e-05
0.000442712
1.49553e-05
0.000428221
1.44924e-05
0.000414164
1.40568e-05
0.000400508
1.36566e-05
0.000387229
1.32783e-05
0.000374293
1.29346e-05
0.000361684
1.26075e-05
0.000349366
1.23155e-05
0.00033733
1.20343e-05
0.000325537
1.17902e-05
0.000313985
1.15507e-05
0.000302631
1.13517e-05
0.00029148
1.11501e-05
0.000280485
1.09938e-05
0.000269658
1.08267e-05
0.000258947
1.07113e-05
0.000248372
1.05754e-05
0.000237873
1.04993e-05
0.000227483
1.03915e-05
0.00021713
1.03535e-05
0.000206861
1.02704e-05
0.000196592
1.02688e-05
0.000186385
1.02073e-05
0.000176145
1.02394e-05
0.000165949
1.01954e-05
0.00015569
1.02572e-05
0.000145463
1.02262e-05
0.00013515
1.03114e-05
0.000124861
1.02875e-05
0.000114474
1.03863e-05
0.000104111
1.03624e-05
9.36481e-05
1.04625e-05
8.32171e-05
1.04309e-05
7.27021e-05
1.05152e-05
6.22313e-05
1.04712e-05
5.17178e-05
1.0514e-05
4.12559e-05
1.04629e-05
3.08413e-05
1.04153e-05
2.045e-05
1.0392e-05
1.02723e-05
1.01788e-05
-3.72818e-08
1.03133e-05
-9.965e-06
9.92767e-06
-1.89171e-05
8.94721e-06
-3.08287e-05
1.19098e-05
-3.47421e-05
3.92024e-06
-5.14463e-05
1.67002e-05
-5.66767e-05
5.26335e-06
-5.14135e-05
-5.40043e-06
-9.80944e-05
4.66767e-05
-5.38345e-05
-4.42536e-05
-0.000114051
6.0217e-05
-9.23121e-05
-2.16368e-05
-6.93489e-05
-2.29745e-05
-0.000207002
0.00013765
-3.68805e-05
-0.000170123
-0.000217315
0.000180443
-0.00015357
-6.36392e-05
-7.77176e-05
-7.58582e-05
-0.000359079
0.00028136
-1.13171e-05
-0.000347789
-0.000293521
0.000282207
-0.000326659
3.32991e-05
4.14801e-05
-0.000368127
-0.000577655
0.000619128
-0.000222996
-0.000354708
8.51973e-05
-0.000308219
-0.000899856
0.000985051
-0.000395141
-0.000504724
0.000377904
-0.000773045
-0.000855538
0.00123341
-0.000825214
-3.02505e-05
-7.81061e-05
-0.000747085
-0.000502523
0.0004244
7.42184e-05
0.0336993
0.0163414
-0.0372677
0.0277567
0.0133143
0.0221989
0.00921172
0.017921
0.00605539
0.0148724
0.00402129
0.0127104
0.00278531
0.0111223
0.00203427
0.00990454
0.00155744
0.0089368
0.00123705
0.00814607
0.00101074
0.00748555
0.000844397
0.00692393
0.000718112
0.00643939
0.000619681
0.00601626
0.000541285
0.00564292
0.000477707
0.0053106
0.000425343
0.00501251
0.000381636
0.00474332
0.000344727
0.00449879
0.000313238
0.00427548
0.000286127
0.00407059
0.000262596
0.0038818
0.000242024
0.00370718
0.000223919
0.0035451
0.000207892
0.00339418
0.000193626
0.00325324
0.000180866
0.00312126
0.000169402
0.00299737
0.00015906
0.00288081
0.000149695
0.00277089
0.000141185
0.00266704
0.000133427
0.00256873
0.000126335
0.0024755
0.000119835
0.00238694
0.000113862
0.00230268
0.000108361
0.00222238
0.000103286
0.00214575
9.85928e-05
0.00207251
9.42483e-05
0.00200243
9.02182e-05
0.00193526
8.64777e-05
0.00187081
8.29984e-05
0.00180889
7.97634e-05
0.00174933
7.67475e-05
0.00169196
7.39414e-05
0.00163663
7.13204e-05
0.00158321
6.88828e-05
0.00153156
6.66021e-05
0.00148157
6.44855e-05
0.00143313
6.25017e-05
0.00138612
6.06685e-05
0.00134045
5.89468e-05
0.00129602
5.73674e-05
0.00125274
5.58796e-05
0.00121052
5.45306e-05
0.0011693
5.32537e-05
0.00112897
5.21167e-05
0.00108949
5.10315e-05
0.00105074
5.00921e-05
0.00101271
4.91826e-05
0.000975268
4.84293e-05
0.000938411
4.76813e-05
0.000902016
4.71045e-05
0.000866086
4.65048e-05
0.000830488
4.60967e-05
0.000795246
4.56329e-05
0.000760214
4.53862e-05
0.00072544
4.50457e-05
0.000690758
4.49516e-05
0.000656246
4.47207e-05
0.000621719
4.4767e-05
0.000587286
4.46288e-05
0.000552746
4.47976e-05
0.000518241
4.47317e-05
0.000483555
4.49964e-05
0.000448866
4.49756e-05
0.000413953
4.5298e-05
0.000379025
4.52891e-05
0.000343865
4.56208e-05
0.00030871
4.55843e-05
0.000273362
4.58621e-05
0.000238067
4.57648e-05
0.00020269
4.58904e-05
0.000167408
4.57437e-05
0.000132325
4.54982e-05
9.71992e-05
4.55177e-05
6.29824e-05
4.4395e-05
2.82269e-05
4.50719e-05
-4.77105e-06
4.29212e-05
-3.66656e-05
4.08484e-05
-7.53544e-05
5.06005e-05
-8.95032e-05
1.80645e-05
-0.000149272
7.64747e-05
-0.000154792
1.0764e-05
-0.000161207
1.09829e-06
-0.000285184
0.000170653
-0.000165959
-0.000163485
-0.000364613
0.000258873
-0.000261645
-0.000124704
-0.000250354
-3.42538e-05
-0.00059817
0.00048546
-0.000128545
-0.000639747
-0.000699539
0.000751435
-0.000439922
-0.00032336
-0.00031028
-0.000205483
-0.00104652
0.0010176
-4.74471e-05
-0.00134684
-0.000991143
0.0012259
-0.000926495
-3.14616e-05
2.74327e-05
-0.00132204
-0.0017673
0.00241386
-0.000593845
-0.0015281
7.44828e-05
-0.000976502
-0.00274919
0.00380872
-0.00103038
-0.0022235
0.000981318
-0.00278473
-0.00270198
0.00491671
-0.00240024
-0.000332068
-0.000258119
-0.0028892
-0.00152781
0.0016941
0.000278576
0.041472
0.0160375
-0.0411681
0.039179
0.0156073
0.035245
0.0131457
0.0309546
0.0103458
0.0270365
0.00793941
0.023745
0.00607678
0.0210688
0.00471047
0.0188988
0.00372747
0.0171202
0.00301569
0.0156402
0.00249071
0.0143899
0.00209471
0.0133189
0.00178914
0.0123902
0.00154835
0.0115764
0.0013551
0.0108566
0.00119749
0.0102148
0.00106714
0.00963848
0.000957975
0.00911764
0.000865565
0.0086443
0.000786573
0.00821196
0.000718463
0.00781528
0.000659278
0.00744981
0.000607488
0.00711185
0.000561878
0.00679825
0.00052148
0.00650636
0.00048551
0.0062339
0.000453327
0.00597889
0.000424406
0.00573963
0.000398312
0.00551463
0.000374681
0.0053026
0.000353207
0.00510239
0.000333632
0.00491298
0.000315738
0.00473347
0.000299336
0.00456306
0.000284266
0.00440103
0.000270388
0.00424673
0.000257583
0.00409958
0.000245746
0.00395904
0.000234786
0.00382463
0.000224621
0.00369593
0.000215185
0.00357252
0.00020641
0.00345404
0.000198248
0.00334015
0.000190642
0.00323053
0.000183561
0.00312491
0.000176951
0.003023
0.000170797
0.00292456
0.000165045
0.00282935
0.000159698
0.00273716
0.000154694
0.00264777
0.000150057
0.002561
0.000145715
0.00247665
0.000141712
0.00239457
0.000137959
0.00231457
0.00013453
0.00223651
0.000131308
0.00216022
0.000128405
0.00208558
0.000125668
0.00201241
0.000123253
0.00194063
0.00012096
0.00187006
0.000119002
0.00180062
0.00011712
0.00173213
0.000115593
0.00166454
0.00011409
0.00159766
0.000112974
0.00153147
0.000111821
0.00146577
0.000111096
0.00140055
0.000110264
0.00133559
0.000109908
0.00127095
0.000109365
0.00120637
0.000109346
0.00114195
0.000109052
0.00107742
0.000109329
0.00101291
0.000109234
0.000948165
0.000109744
0.000883358
0.000109782
0.000818219
0.000110435
0.000752985
0.000110522
0.000687396
0.000111208
0.000621739
0.00011124
0.000555781
0.000111818
0.000489845
0.0001117
0.000423787
0.000111948
0.00035784
0.00011169
0.000292257
0.000111081
0.00022653
0.000111245
0.000162506
0.00010842
9.72148e-05
0.000110365
3.52554e-05
0.00010488
-2.5221e-05
0.000101326
-9.5787e-05
0.000121168
-0.000125185
4.74604e-05
-0.000236514
0.000187807
-0.000240922
1.51716e-05
-0.000272563
3.27937e-05
-0.000472697
0.000370785
-0.000282253
-0.00035393
-0.000638067
0.000614691
-0.000435649
-0.000327142
-0.00046837
-1.58898e-06
-0.00100548
0.00102257
-0.000235024
-0.00141021
-0.00124318
0.00175959
-0.000740775
-0.000825771
-0.000619423
-0.000326842
-0.00177
0.00216816
-9.84962e-05
-0.00301834
-0.00181383
0.00294124
-0.0015395
-0.000305812
-5.12175e-05
-0.0028103
-0.00306296
0.0054256
-0.000936252
-0.00365481
-8.46221e-05
-0.00182812
-0.00474588
0.00846998
-0.00157521
-0.00539418
0.00148612
-0.00584604
-0.00478207
0.0111849
-0.0039769
-0.00113725
-0.000455407
-0.00641068
-0.00262724
0.00386593
0.000514136
0.0459352
0.0147375
-0.0446353
0.0460171
0.0155254
0.0444358
0.014727
0.0417091
0.0130726
0.0384623
0.0111862
0.0351545
0.00938455
0.0320535
0.00781146
0.0292738
0.00650722
0.0268341
0.00545537
0.0247084
0.00461642
0.0228555
0.00394764
0.0212334
0.00341126
0.0198048
0.00297693
0.0185385
0.00262136
0.017409
0.00232706
0.0163952
0.00208087
0.0154803
0.0018729
0.0146503
0.0016956
0.0138937
0.0015432
0.0132009
0.00141119
0.0125641
0.00129606
0.0119766
0.001195
0.0114327
0.00110577
0.0109276
0.00102657
0.0104572
0.000955927
0.0100179
0.000892628
0.00960663
0.000835673
0.0092207
0.000784231
0.00885778
0.000737601
0.00851578
0.000695197
0.00819288
0.000656519
0.00788748
0.00062114
0.00759811
0.000588697
0.00732349
0.000558875
0.00706247
0.000531404
0.006814
0.000506048
0.00657714
0.000482601
0.00635104
0.000460887
0.00613492
0.000440743
0.00592807
0.000422039
0.00572984
0.000404642
0.00553963
0.000388457
0.0053569
0.000373372
0.00518115
0.000359322
0.0050119
0.000346208
0.00484871
0.00033399
0.00469118
0.000322574
0.00453894
0.000311948
0.00439162
0.000302013
0.00424889
0.000292788
0.00411044
0.00028416
0.00397597
0.000276184
0.0038452
0.000268722
0.00371785
0.000261874
0.00359369
0.000255464
0.00347245
0.000249647
0.00335392
0.000244194
0.00323783
0.000239331
0.00312403
0.00023476
0.00301224
0.000230789
0.00290233
0.000227032
0.00279402
0.000223899
0.00268721
0.000220898
0.00258162
0.000218561
0.00247718
0.000216261
0.0023736
0.000214679
0.00227084
0.000213026
0.0021686
0.000212156
0.00206687
0.000211088
0.00196535
0.00021087
0.00186409
0.000210315
0.00176274
0.00021067
0.00166145
0.000210532
0.00155985
0.000211343
0.00145813
0.000211493
0.00135597
0.000212595
0.00125362
0.000212871
0.00115077
0.000214059
0.00104775
0.000214257
0.000944295
0.000215271
0.000840805
0.00021519
0.000737125
0.000215628
0.000633557
0.000215257
0.000530502
0.000214136
0.000427198
0.00021455
0.000326435
0.000209182
0.000223621
0.00021318
0.000126081
0.000202421
2.99196e-05
0.000197489
-7.90283e-05
0.000230117
-0.000130195
9.86257e-05
-0.00030104
0.000358654
-0.000306384
2.05002e-05
-0.000375849
0.000102269
-0.000653437
0.000648371
-0.000396054
-0.000611315
-0.000925238
0.00114388
-0.000612282
-0.000640105
-0.000718672
0.000104869
-0.00142653
0.00173042
-0.000354575
-0.00248216
-0.00183995
0.00324497
-0.00105776
-0.00160797
-0.00100806
-0.000376513
-0.00252784
0.00368794
-0.000168119
-0.00537807
-0.00275219
0.00552533
-0.00216857
-0.000889481
-0.000206466
-0.00477238
-0.00445206
0.00967119
-0.00125545
-0.00685141
-0.00039486
-0.00268868
-0.00686272
0.0149378
-0.00202645
-0.0102305
0.00185912
-0.00973161
-0.00706778
0.0201118
-0.0055167
-0.00268833
-0.000669996
-0.0112574
-0.00376747
0.00696341
0.000625269
0.0494019
0.0135429
-0.0482073
0.0503653
0.014562
0.0503824
0.0147099
0.0493586
0.0140964
0.0475117
0.0130331
0.0451346
0.0117617
0.0424992
0.0104469
0.039812
0.00919442
0.0372079
0.00805941
0.0347616
0.00706278
0.0325051
0.00620413
0.0304444
0.00547195
0.0285711
0.00485025
0.0268701
0.00432234
0.0253244
0.00387282
0.0239169
0.00348835
0.022632
0.0031578
0.0214556
0.002872
0.0203753
0.00262349
0.0193803
0.0024062
0.0184611
0.0022152
0.0176097
0.00204644
0.0168188
0.00189662
0.0160824
0.00176302
0.0153949
0.00164337
0.0147517
0.0015358
0.0141487
0.00143872
0.0135821
0.00135082
0.0130487
0.00127096
0.0125457
0.00119821
0.0120705
0.00113173
0.0116208
0.00107083
0.0111946
0.00101492
0.01079
0.000963466
0.0104053
0.000916017
0.0100392
0.000872184
0.00969018
0.000831617
0.00935705
0.00079402
0.00903867
0.00075912
0.00873402
0.000726691
0.00844215
0.000696515
0.00816219
0.000668422
0.00789334
0.000642229
0.00763485
0.000617817
0.00738604
0.000595023
0.00714626
0.000573772
0.00691492
0.000553913
0.00669146
0.00053541
0.00647537
0.00051811
0.00626613
0.000502026
0.0060633
0.000486987
0.00586643
0.000473058
0.00567511
0.000460036
0.00548893
0.000448051
0.00530754
0.00043685
0.00513054
0.000426639
0.00495763
0.000417098
0.00478843
0.000408526
0.00462268
0.000400512
0.00445999
0.00039347
0.00430015
0.00038687
0.00414279
0.000381265
0.0039877
0.000375979
0.00383453
0.000371735
0.00368312
0.000367673
0.00353308
0.000364721
0.00338431
0.000361791
0.00323642
0.000360055
0.00308935
0.000358158
0.00294268
0.000357541
0.00279643
0.000356556
0.00265018
0.000356924
0.00250402
0.000356693
0.00235751
0.000357853
0.00221084
0.000358161
0.00206359
0.000359843
0.00191604
0.000360417
0.00176781
0.000362284
0.0016193
0.000362773
0.00147017
0.0003644
0.00132091
0.000364445
0.00117135
0.000365184
0.00102189
0.000364726
0.000873045
0.000362976
0.000723846
0.000363749
0.000578026
0.000355003
0.000429356
0.000361852
0.000288106
0.000343671
0.000147982
0.000337614
-7.17268e-06
0.000385273
-8.80459e-05
0.000179498
-0.000327723
0.000598334
-0.00033764
3.0411e-05
-0.000459125
0.000223757
-0.00081531
0.00100455
-0.000498287
-0.00092834
-0.00121568
0.00186127
-0.000784838
-0.00107095
-0.000995915
0.000315952
-0.00185295
0.00258744
-0.00048565
-0.00384946
-0.00247994
0.00523927
-0.00138811
-0.0026998
-0.00147888
-0.000285854
-0.00331202
0.00552106
-0.000260999
-0.00842909
-0.00379401
0.00905835
-0.00281251
-0.00187101
-0.000470225
-0.00711463
-0.00591213
0.0151131
-0.00155857
-0.011205
-0.000905526
-0.0033417
-0.00905912
0.0230914
-0.00238824
-0.0169014
0.00206362
-0.0141834
-0.00950455
0.03168
-0.00697202
-0.00522088
-0.000906952
-0.0173224
-0.00489322
0.0109497
0.000404737
0.0528609
0.0126447
-0.0519627
0.0538892
0.0135337
0.0545725
0.0140266
0.0546406
0.0140283
0.0540407
0.013633
0.0528422
0.0129601
0.0511746
0.0121146
0.0491842
0.0111848
0.0470059
0.0102377
0.0447504
0.00931836
0.0424998
0.0084547
0.0403103
0.00766142
0.0382166
0.00694401
0.036237
0.0063019
0.034379
0.0057308
0.0326428
0.00522459
0.0310242
0.0047764
0.0295168
0.00437941
0.028113
0.00402725
0.0268051
0.00371417
0.0255852
0.00343509
0.024446
0.0031856
0.0233808
0.00296188
0.0223831
0.00276066
0.0214473
0.00257913
0.0205682
0.00241489
0.0197411
0.00226585
0.0189617
0.00213025
0.0182261
0.00200654
0.0175309
0.00189342
0.0168729
0.00178972
0.0162492
0.00169446
0.0156574
0.00160677
0.0150949
0.00152588
0.0145598
0.00145115
0.01405
0.00138198
0.0135638
0.00131786
0.0130994
0.00125835
0.0126555
0.00120303
0.0122307
0.00115156
0.0118236
0.00110362
0.0114331
0.00105894
0.011058
0.00101724
0.0106975
0.000978337
0.0103506
0.000941988
0.0100163
0.000908063
0.00969386
0.000876342
0.00938252
0.000846755
0.00908155
0.00081908
0.00879027
0.000793315
0.00850803
0.00076922
0.00823423
0.000746863
0.00796829
0.000725967
0.00770965
0.000706686
0.00745782
0.000688679
0.00721225
0.000672205
0.00697251
0.000656836
0.00673807
0.000642955
0.00650857
0.000630015
0.00628348
0.000618551
0.00606249
0.000607863
0.00584508
0.000598671
0.00563098
0.000590081
0.00541967
0.000583038
0.00521094
0.000576406
0.00500426
0.000571403
0.00479946
0.000566592
0.00459601
0.000563511
0.0043938
0.000560369
0.00419228
0.000559062
0.00399143
0.000557405
0.00379068
0.000557669
0.00359012
0.000557257
0.00338917
0.000558798
0.00318803
0.000559303
0.00298615
0.000561712
0.00278386
0.000562708
0.00258067
0.000565473
0.00237703
0.000566415
0.00217253
0.00056889
0.00196778
0.0005692
0.00176256
0.000570408
0.00155735
0.000569928
0.00135284
0.000567486
0.00114785
0.000568746
0.000947043
0.000555807
0.000742586
0.000566311
0.000547838
0.000538418
0.000353621
0.000531833
0.000142855
0.000596039
2.34582e-05
0.000298895
-0.000296446
0.000918242
-0.00031604
4.99959e-05
-0.000505955
0.000413676
-0.000941671
0.00144027
-0.000576109
-0.0012939
-0.00149453
0.0027797
-0.000942794
-0.0016227
-0.00129105
0.000664215
-0.00227331
0.0035697
-0.00062511
-0.00549766
-0.00314851
0.00776268
-0.00172623
-0.0041221
-0.00203075
1.91826e-05
-0.00411326
0.00760356
-0.000382765
-0.0121596
-0.00491939
0.013595
-0.00346946
-0.00332096
-0.00085888
-0.00972518
-0.00741746
0.0216717
-0.00185545
-0.016767
-0.00162818
-0.00356895
-0.0112902
0.0327535
-0.00267316
-0.0255184
0.00206541
-0.018922
-0.0120152
0.0457606
-0.00828943
-0.0089467
-0.0011719
-0.02444
-0.00592735
0.0157051
-0.000410237
0.0565819
0.0119576
-0.0558948
0.0574354
0.0126802
0.0582318
0.0132303
0.0587581
0.0135021
0.0588921
0.013499
0.058588
0.0132642
0.0578552
0.0128474
0.0567415
0.0122984
0.0553155
0.0116637
0.0536527
0.0109812
0.0518263
0.010281
0.049902
0.00958576
0.0479343
0.00891174
0.0459662
0.00826997
0.0440299
0.00766717
0.0421477
0.00710677
0.0403344
0.0065897
0.0385986
0.00611518
0.0369446
0.00568128
0.0353734
0.00528539
0.0338839
0.00492458
0.0324736
0.00459585
0.0311393
0.00429622
0.029877
0.0040229
0.0286828
0.0037733
0.0275527
0.00354506
0.0264825
0.00333602
0.0254684
0.00314428
0.0245069
0.00296811
0.0235943
0.00280599
0.0227274
0.00265655
0.0219033
0.00251859
0.021119
0.00239102
0.020372
0.0022729
0.0196598
0.00216337
0.0189801
0.00206168
0.0183308
0.00196714
0.01771
0.00187916
0.0171158
0.0017972
0.0165466
0.00172078
0.0160008
0.00164945
0.0154769
0.00158285
0.0149735
0.0015206
0.0144894
0.00146243
0.0140234
0.00140801
0.0135743
0.00135713
0.0131412
0.00130951
0.0127229
0.00126503
0.0123186
0.00122339
0.0119273
0.00118456
0.0115483
0.00114822
0.0111808
0.00111444
0.0108239
0.00108285
0.0104769
0.00105364
0.0101392
0.00102636
0.00981009
0.00100133
0.00948893
0.000977988
0.00917507
0.000956815
0.00886797
0.000937106
0.00856699
0.000919535
0.00827164
0.000903201
0.0079813
0.000889017
0.00769554
0.000875836
0.00741372
0.00086486
0.0071355
0.000854629
0.0068602
0.000846701
0.00658757
0.000839223
0.00631691
0.000834171
0.00604805
0.000829232
0.00578027
0.000826843
0.00551349
0.000824182
0.00524699
0.000824166
0.00498081
0.000823437
0.00471423
0.000825377
0.00444743
0.000826106
0.00417972
0.000829414
0.00391145
0.000830984
0.003642
0.000834919
0.00337188
0.000836531
0.00310061
0.000840161
0.00282887
0.00084094
0.0025564
0.000842872
0.00228383
0.000842503
0.00201193
0.000839383
0.00173938
0.000841295
0.00147178
0.000823413
0.00119971
0.000838376
0.000939716
0.000798415
0.000679421
0.00079213
0.000401951
0.00087351
0.00022744
0.000473405
-0.000181285
0.00132697
-0.000215844
8.45493e-05
-0.000494034
0.000691871
-0.00101017
0.00195641
-0.00061154
-0.00169254
-0.0017415
0.00390966
-0.00107049
-0.00229371
-0.00158942
0.00118315
-0.00267286
0.00465313
-0.000767245
-0.00740328
-0.00382597
0.0108214
-0.00206295
-0.00588513
-0.00265537
0.00061112
-0.00492208
0.00987025
-0.000539936
-0.0165417
-0.00610186
0.0191569
-0.00413708
-0.00528576
-0.00138518
-0.012477
-0.00894465
0.0292311
-0.00216008
-0.0235515
-0.00256251
-0.00316646
-0.0135159
0.0437069
-0.00290607
-0.0361283
0.001841
-0.0236691
-0.0145058
0.0621075
-0.00941089
-0.0140417
-0.00146551
-0.0323853
-0.00677193
0.0210116
-0.00213845
0.0605882
0.0113944
-0.0600249
0.0612726
0.0119957
0.0619871
0.0125157
0.0626089
0.0128803
0.0630405
0.0130674
0.0632178
0.0130869
0.0631052
0.01296
0.0626923
0.0127113
0.0619894
0.0123666
0.0610211
0.0119496
0.0598217
0.0114803
0.0584311
0.0109764
0.0568905
0.0104524
0.05524
0.00992051
0.0535165
0.00939072
0.0517523
0.00887088
0.049975
0.00836705
0.0482065
0.00788364
0.0464642
0.00742363
0.0447608
0.00698878
0.0431055
0.00657984
0.0415045
0.00619683
0.0399616
0.00583917
0.0384786
0.0055059
0.0370561
0.00519582
0.0356935
0.00490758
0.0343898
0.00463976
0.0331431
0.00439093
0.0319515
0.00415973
0.0308127
0.00394482
0.0297242
0.00374496
0.0286838
0.00355898
0.0276891
0.00338579
0.0267376
0.00322441
0.025827
0.0030739
0.0249552
0.00293345
0.0241201
0.00280228
0.0233196
0.0026797
0.0225517
0.00256506
0.0218147
0.0024578
0.0211067
0.00235738
0.0204263
0.00226334
0.0197716
0.00217522
0.0191414
0.00209266
0.0185342
0.00201525
0.0179486
0.00194273
0.0173834
0.00187472
0.0168374
0.00181107
0.0163094
0.00175138
0.0157983
0.00169562
0.0153032
0.00164337
0.0148229
0.0015947
0.0143566
0.00154914
0.0139033
0.00150691
0.0134623
0.00146744
0.0130325
0.00143113
0.0126132
0.00139725
0.0122036
0.00136641
0.011803
0.00133771
0.0114105
0.001312
0.0110256
0.00128812
0.0106474
0.00126723
0.0102753
0.00124788
0.00990861
0.00123158
0.00954677
0.00121647
0.00918895
0.00120453
0.00883477
0.0011934
0.00848336
0.00118559
0.00813444
0.00117815
0.00778711
0.00117417
0.00744122
0.00117008
0.00709583
0.00116955
0.00675096
0.00116831
0.00640568
0.00117066
0.00606014
0.00117164
0.00571351
0.00117605
0.0053661
0.00117839
0.00501718
0.00118384
0.00466729
0.00118641
0.00431584
0.00119161
0.00396361
0.00119317
0.00361029
0.0011962
0.00325662
0.00119617
0.00290349
0.00119251
0.00254948
0.00119531
0.00220105
0.00117184
0.00184735
0.00119208
0.00150806
0.0011377
0.00116745
0.00113275
0.000809866
0.00123109
0.000566335
0.000716935
5.24455e-05
0.00184086
4.42175e-06
0.00013256
-0.000393769
0.00109008
-0.000991065
0.0025537
-0.000579919
-0.00210369
-0.00192938
0.00525913
-0.00114566
-0.00307745
-0.00186915
0.00190666
-0.00303226
0.00581623
-0.00090234
-0.00953321
-0.00448722
0.0144063
-0.00238449
-0.00798787
-0.0033356
0.00156232
-0.00572787
0.0122625
-0.000739224
-0.0215304
-0.00730931
0.025727
-0.00481051
-0.00778459
-0.00205341
-0.0152341
-0.0104754
0.0376531
-0.00248987
-0.0315371
-0.00369063
-0.00196582
-0.0157048
0.055721
-0.0031212
-0.0487119
0.00138471
-0.0281749
-0.0168676
0.0803598
-0.0102702
-0.0206391
-0.00177444
-0.0408811
-0.0073063
0.0265434
-0.0051516
0.0648734
0.0109097
-0.0643887
0.0654388
0.0114303
0.0660465
0.0119081
0.0666311
0.0122956
0.0671301
0.0125684
0.067495
0.0127221
0.0676903
0.0127646
0.0676922
0.0127094
0.0674874
0.0125715
0.0670718
0.0123652
0.066449
0.0121031
0.0656296
0.0117957
0.0646294
0.0114526
0.0634683
0.0110816
0.0621689
0.0106901
0.0607555
0.0102844
0.0592522
0.00987034
0.0576825
0.00945328
0.0560683
0.00903788
0.0544289
0.00862817
0.0527812
0.00822752
0.0511394
0.00783862
0.049515
0.00746351
0.0479173
0.00710362
0.0463533
0.00675987
0.0448281
0.00643272
0.0433456
0.00612229
0.0419081
0.00582843
0.040517
0.00555075
0.0391731
0.00528874
0.0378763
0.00504179
0.036626
0.00480921
0.0354215
0.00459028
0.0342617
0.00438428
0.0331451
0.00419049
0.0320703
0.00400821
0.0310358
0.00383675
0.03004
0.00367549
0.0290813
0.00352379
0.028158
0.00338111
0.0272685
0.00324686
0.0264113
0.00312059
0.0255847
0.00300178
0.0247873
0.00289006
0.0240176
0.00278494
0.0232742
0.00268616
0.0225557
0.00259325
0.0218607
0.00250604
0.021188
0.00242406
0.0205364
0.00234727
0.0199046
0.00227517
0.0192914
0.00220784
0.0186959
0.0021447
0.0181167
0.00208603
0.0175531
0.00203112
0.0170037
0.00198044
0.0164679
0.00193313
0.0159444
0.0018899
0.0154324
0.00184966
0.014931
0.00181343
0.0144393
0.00177981
0.0139563
0.00175021
0.0134813
0.00172283
0.0130134
0.00169954
0.0125518
0.00167804
0.0120956
0.00166078
0.0116441
0.00164482
0.0111964
0.00163329
0.0107521
0.00162251
0.0103099
0.00161633
0.00986974
0.00161026
0.00943035
0.00160894
0.00899169
0.00160697
0.00855261
0.00160974
0.00811325
0.001611
0.0076725
0.00161679
0.00723073
0.00162015
0.00678698
0.00162759
0.00634187
0.00163152
0.00589461
0.00163886
0.00544614
0.00164164
0.00499603
0.00164631
0.00454518
0.00164702
0.00409456
0.00164313
0.0036427
0.00164717
0.00319688
0.00161766
0.00274494
0.00164403
0.00230967
0.00157297
0.00187183
0.00157059
0.00141807
0.00168486
0.00108775
0.00104725
0.000467519
0.0024611
0.00034478
0.000255294
-0.000168029
0.00160289
-0.000844794
0.00323046
-0.00044791
-0.00250057
-0.00202243
0.00683366
-0.00113712
-0.00396277
-0.00209905
0.00286859
-0.0033255
0.00704268
-0.00101466
-0.011844
-0.0051013
0.0184929
-0.00267134
-0.0104178
-0.00404223
0.00293321
-0.00651637
0.0147366
-0.000985381
-0.0270614
-0.00850615
0.0332478
-0.00548041
-0.0108104
-0.00285349
-0.017861
-0.0119972
0.0467969
-0.00286315
-0.0406712
-0.00497165
0.000143723
-0.017834
0.0685834
-0.00335615
-0.0631898
0.000712891
-0.032244
-0.0189827
0.100055
-0.0107897
-0.0288321
-0.00205886
-0.0496119
-0.00738952
0.0318741
-0.00985901
0.0694465
0.0104821
-0.0690188
0.0699301
0.0109467
0.0704506
0.0113876
0.0709723
0.0117739
0.0714556
0.0120852
0.0718667
0.012311
0.0721795
0.0124518
0.0723747
0.0125142
0.0724382
0.012508
0.07236
0.0124434
0.0721332
0.01233
0.0717539
0.0121751
0.0712215
0.011985
0.0705384
0.0117647
0.06971
0.0115185
0.0687447
0.0112496
0.0676539
0.0109612
0.0664508
0.0106564
0.0651503
0.0103383
0.0637684
0.0100101
0.0623211
0.00967486
0.0608239
0.00933578
0.0592917
0.00899575
0.0577378
0.00865746
0.0561744
0.00832329
0.0546118
0.00799527
0.0530591
0.00767507
0.0515234
0.00736404
0.050011
0.00706318
0.0485265
0.00677321
0.0470737
0.0064946
0.0456553
0.00622761
0.0442732
0.0059723
0.0429289
0.00572865
0.0416229
0.00549646
0.0403556
0.00527551
0.0391268
0.00506548
0.0379363
0.00486604
0.0367833
0.00467678
0.0356671
0.00449735
0.0345866
0.0043273
0.0335409
0.00416631
0.0325288
0.0040139
0.0315491
0.00386979
0.0306005
0.00373351
0.0296819
0.00360484
0.0287918
0.00348329
0.0279291
0.00336875
0.0270925
0.00326067
0.0262807
0.00315908
0.0254925
0.00306338
0.0247266
0.00297374
0.0239818
0.00288945
0.023257
0.00281088
0.0225509
0.00273717
0.0218624
0.00266894
0.0211904
0.00260511
0.0205337
0.0025466
0.0198913
0.00249205
0.019262
0.00244275
0.0186449
0.00239696
0.0180386
0.00235643
0.0174425
0.00231893
0.0168553
0.00228681
0.0162761
0.00225721
0.0157037
0.00223316
0.0151375
0.00221103
0.0145761
0.0021947
0.014019
0.0021796
0.0134648
0.00217054
0.0129131
0.00216191
0.0123626
0.00215948
0.011813
0.00215654
0.011263
0.00215979
0.0107125
0.00216144
0.0101603
0.00216899
0.00960675
0.00217374
0.00905054
0.0021838
0.0084924
0.00218966
0.00793134
0.00219993
0.00736839
0.00220458
0.00680301
0.00221169
0.00623627
0.00221376
0.00566919
0.00221021
0.00510029
0.00221607
0.00453764
0.0021803
0.0039679
0.00221378
0.00341689
0.00212398
0.00286183
0.00212565
0.0022927
0.00225399
0.00185424
0.00148572
0.00110804
0.0032073
0.000898893
0.000464433
0.000254715
0.00224707
-0.000518082
0.00400325
-0.00017158
-0.00284708
-0.00197414
0.00863622
-0.00100184
-0.00493509
-0.00223633
0.00410309
-0.00351682
0.00832316
-0.00107961
-0.0142813
-0.00563036
0.0230437
-0.00289539
-0.0131528
-0.00473136
0.00476919
-0.00726534
0.0172706
-0.00127687
-0.0330498
-0.00965421
0.0416252
-0.0061298
-0.0143348
-0.00375468
-0.020236
-0.013498
0.0565402
-0.00329257
-0.0508766
-0.00633698
0.00318716
-0.0198792
0.0821256
-0.00363785
-0.0794311
-0.000119751
-0.035762
-0.0207258
0.120661
-0.0108736
-0.0386843
-0.00223872
-0.0582468
-0.0068615
0.0364969
-0.0166505
0.0743269
0.0100989
-0.0739437
0.0747513
0.0105223
0.0752059
0.010933
0.07567
0.0113098
0.0761178
0.0116374
0.0765246
0.0119042
0.0768706
0.0121057
0.0771413
0.0122435
0.0773263
0.012323
0.0774182
0.0123515
0.0774113
0.0123369
0.0773005
0.0122859
0.0770813
0.0122041
0.0767499
0.0120961
0.0763032
0.0119652
0.0757394
0.0118135
0.075058
0.0116425
0.074261
0.0114535
0.0733521
0.0112472
0.0723374
0.0110247
0.0712249
0.0107874
0.070024
0.0105367
0.0687453
0.0102744
0.0674003
0.0100024
0.0660006
0.00972302
0.0645576
0.00943828
0.0630823
0.00915035
0.061585
0.0088613
0.0600752
0.00857302
0.0585612
0.0082872
0.0570505
0.00800534
0.0555493
0.0077287
0.0540633
0.00745835
0.0525968
0.00719514
0.0511535
0.00693971
0.0497365
0.00669258
0.0483479
0.00645408
0.0469895
0.00622445
0.0456624
0.0060038
0.0443676
0.00579219
0.0431054
0.00558955
0.0418758
0.00539583
0.0406789
0.00521084
0.0395142
0.00503451
0.0383812
0.00486652
0.0372792
0.00470684
0.0362074
0.00455505
0.035165
0.00441117
0.034151
0.00427471
0.0331643
0.00414579
0.0322039
0.0040238
0.0312686
0.00390903
0.0303573
0.00380069
0.0294689
0.0036993
0.0286022
0.00360387
0.0277559
0.00351521
0.026929
0.00343202
0.0261201
0.0033555
0.0253282
0.00328398
0.0245518
0.00321909
0.0237901
0.00315871
0.0230415
0.00310503
0.0223051
0.00305532
0.0215794
0.00301247
0.0208636
0.00297299
0.0201561
0.00294064
0.0194562
0.00291095
0.0187622
0.00288872
0.0180735
0.00286831
0.0173884
0.00285568
0.0167064
0.0028439
0.0160257
0.00284013
0.0153462
0.00283604
0.0146661
0.00283996
0.0139853
0.00284221
0.0133022
0.00285209
0.0126171
0.0028588
0.0119285
0.00287238
0.0112372
0.00288101
0.0105418
0.00289531
0.00984356
0.00290282
0.00914173
0.00291353
0.00843755
0.00291793
0.0077321
0.00291567
0.0070239
0.00292427
0.0063218
0.00288241
0.00561137
0.00292421
0.00492144
0.00281392
0.00422561
0.00282148
0.00351837
0.00296123
0.00294639
0.00205769
0.00205396
0.00409974
0.00173286
0.000785527
0.000948783
0.00303115
6.32072e-05
0.00488883
0.000316436
-0.00310031
-0.00172452
0.0106772
-0.000679884
-0.00597974
-0.00222413
0.00564734
-0.00355644
0.00965546
-0.00105988
-0.0167778
-0.00602721
0.028011
-0.00301731
-0.0161627
-0.00534273
0.00709463
-0.00793836
0.0198662
-0.00159916
-0.039389
-0.0107113
0.0507374
-0.00672962
-0.0183165
-0.00470003
-0.0222656
-0.0149546
0.0667947
-0.00377504