/*--------------------------------*- C++ -*----------------------------------*\
| =========                 |                                                 |
| \\      /  F ield         | OpenFOAM: The Open Source CFD Toolbox           |
|  \\    /   O peration     | Version:  2412                                  |
|   \\  /    A nd           | Website:  www.openfoam.com                      |
|    \\/     M anipulation  |                                                 |
\*---------------------------------------------------------------------------*/
FoamFile
{
    version     2.0;
    format      ascii;
    arch        "LSB;label=32;scalar=64";
    class       volScalarField;
    location    "1";
    object      Co;
}
// * * * * * * * * * * * * * * * * * * * * * * * * * * * * * * * * * * * * * //

dimensions      [0 0 0 0 0 0 0];

internalField   nonuniform List<scalar> 
12600
(
0.368156
0.150386
0.0590098
0.0259264
0.0138728
0.00851376
0.00547786
0.00351978
0.0021842
0.00124833
0.000584088
0.000350803
0.000497682
0.00067249
0.000786321
0.000859991
0.000899676
0.000913981
0.00090878
0.000888522
0.000860692
0.000828486
0.000790025
0.000751874
0.000711432
0.000669029
0.00062362
0.000579205
0.000536964
0.000495955
0.000456727
0.000419789
0.000385025
0.000352317
0.000321676
0.000293152
0.000266768
0.000242379
0.000219803
0.000199062
0.000180083
0.000162749
0.000146911
0.000132433
0.000119213
0.00010719
9.62868e-05
8.64632e-05
7.77195e-05
7.00413e-05
6.34244e-05
5.78142e-05
5.31154e-05
4.91907e-05
4.58426e-05
4.28174e-05
3.98033e-05
3.64216e-05
3.22857e-05
2.70644e-05
2.06029e-05
1.29636e-05
9.31066e-06
1.48286e-05
2.55475e-05
3.79836e-05
5.31195e-05
7.12593e-05
9.10598e-05
0.000109658
0.000122982
0.000127918
0.000122812
0.000116149
0.000102832
8.41626e-05
6.34611e-05
4.46651e-05
2.94203e-05
1.53865e-05
1.02982e-05
1.29154e-05
1.21726e-05
1.00489e-05
8.95064e-06
1.32676e-05
2.03924e-05
3.3465e-05
5.35085e-05
8.8393e-05
0.000129745
0.000189286
0.000237956
0.000270162
0.000270315
0.000253423
0.000168692
0.00012785
8.11697e-05
2.16802e-05
1.70705e-05
1.59673e-05
2.73581e-05
2.23829e-05
3.50207e-05
4.05864e-05
3.78979e-05
5.21866e-05
0.000115791
0.000209186
0.000268017
0.000284148
0.000265342
0.000247217
0.000203412
0.000135054
7.35054e-05
3.57361e-05
2.96456e-05
2.39201e-05
0.593167
0.380924
0.220515
0.125697
0.0751746
0.0479156
0.0320035
0.0218801
0.0150289
0.0102099
0.00674065
0.00420327
0.00233716
0.00114668
0.00108044
0.00158667
0.00193058
0.0021539
0.00228416
0.00234073
0.00234749
0.00231729
0.00225574
0.00217151
0.00209725
0.00200516
0.00189852
0.00178847
0.00167681
0.00156402
0.00145294
0.00134533
0.0012417
0.00114267
0.00104883
0.000960386
0.000877524
0.000800162
0.000728075
0.000661476
0.00060015
0.000543781
0.000492085
0.000444713
0.000401315
0.000361676
0.000325547
0.000292817
0.000263526
0.000237637
0.000215171
0.000196016
0.000179928
0.000166537
0.000155272
0.00014537
0.000135881
0.000125605
0.000113235
9.75386e-05
7.775e-05
5.38001e-05
3.9616e-05
5.6067e-05
9.32164e-05
0.000136602
0.000189252
0.00025137
0.000317318
0.000376725
0.000415984
0.000425929
0.000402257
0.000385742
0.000350498
0.000293973
0.000225422
0.000159193
0.000105151
5.66309e-05
4.18944e-05
5.00909e-05
4.65979e-05
4.34374e-05
3.78635e-05
5.02728e-05
7.53101e-05
0.000117235
0.00018638
0.000302172
0.00043981
0.000635717
0.000778629
0.000886223
0.000856777
0.000856924
0.000592956
0.00049862
0.000332903
6.94351e-05
6.50186e-05
5.98409e-05
0.000111785
7.84576e-05
0.000127959
0.00013217
0.000123318
0.000232884
0.000498674
0.000776776
0.000903578
0.000890822
0.000800405
0.000760701
0.000651002
0.00045075
0.000242466
0.000106044
0.000106709
8.89836e-05
0.660663
0.530316
0.379524
0.255848
0.16994
0.114491
0.0790148
0.0556532
0.0396512
0.0283114
0.020069
0.01397
0.00940545
0.00596512
0.00341081
0.00195231
0.00196876
0.00256481
0.00296871
0.00321773
0.00335575
0.00340651
0.00338747
0.00330824
0.00321547
0.00311187
0.00300368
0.00287478
0.00272905
0.00257273
0.00241232
0.00225147
0.00209207
0.00193658
0.0017871
0.00164425
0.00150871
0.00138079
0.00126054
0.00114874
0.00104518
0.000949427
0.000861245
0.000780195
0.000705674
0.000637318
0.000574679
0.000517552
0.000466071
0.000420202
0.000380079
0.000345648
0.000316639
0.00029261
0.000272769
0.000255996
0.00024086
0.00022541
0.000207326
0.000184151
0.000154035
0.000116252
9.0209e-05
0.000116968
0.000184307
0.000263782
0.000360438
0.000473007
0.00058897
0.000688034
0.000745523
0.000747422
0.00068891
0.000669881
0.000628909
0.000544088
0.000427718
0.00030754
0.000209568
0.000128325
9.9662e-05
9.87925e-05
9.38358e-05
0.000100128
8.50284e-05
0.000100089
0.000146217
0.000219241
0.000350463
0.000560486
0.000809279
0.00115742
0.00138032
0.0015638
0.00144369
0.00153428
0.00108283
0.00103056
0.000747678
0.000118825
0.000134437
0.00012761
0.000248026
0.000144684
0.000250842
0.000226874
0.000235003
0.000547972
0.00110087
0.00152095
0.0016127
0.00147274
0.00128674
0.00126384
0.00113625
0.000826865
0.000447998
0.000174415
0.000216638
0.000185016
0.661146
0.599336
0.493647
0.379355
0.279538
0.202338
0.1463
0.106484
0.078056
0.0574354
0.0422192
0.0308235
0.0221939
0.0156065
0.0105903
0.00672698
0.00377576
0.00253107
0.00289603
0.00346847
0.00384681
0.00406698
0.00416379
0.00416358
0.00409548
0.00399105
0.00386842
0.00377619
0.00364421
0.00348276
0.00330285
0.00311219
0.00291538
0.00271764
0.00252328
0.00233405
0.00215171
0.0019775
0.00181192
0.00165664
0.00151178
0.00137701
0.00125229
0.00113722
0.00103097
0.000933069
0.000842873
0.000760067
0.000684923
0.000617442
0.000557961
0.000506603
0.000463198
0.000427378
0.000398286
0.000374595
0.000354542
0.000335489
0.000314054
0.000286269
0.000248763
0.000199676
0.000160269
0.000196358
0.000297171
0.000416919
0.000562675
0.000730689
0.00089962
0.00103743
0.00110711
0.00109056
0.000983837
0.000964372
0.000934426
0.000832627
0.000671101
0.000492391
0.000344881
0.000227698
0.000178977
0.000155553
0.00015353
0.000179779
0.000150964
0.000161859
0.000228922
0.000331523
0.000534779
0.000845902
0.00122022
0.00172613
0.00202003
0.00228899
0.00203209
0.00223644
0.00161145
0.00170519
0.00131827
0.000148427
0.000220429
0.000218844
0.000430502
0.000219935
0.000395976
0.000313229
0.000383881
0.00100025
0.00189786
0.0023883
0.00233723
0.00198891
0.00172545
0.00174353
0.00163496
0.00124024
0.000677259
0.000234701
0.000346504
0.000305428
0.637882
0.612558
0.552071
0.46824
0.378387
0.295753
0.226762
0.172346
0.13061
0.0988906
0.0747573
0.0562932
0.0420777
0.0310712
0.022542
0.0158966
0.0107279
0.00672014
0.00372632
0.00296141
0.00371218
0.00421341
0.00451847
0.00466904
0.00470629
0.0046512
0.00453582
0.004428
0.00434382
0.00422817
0.00407089
0.00388338
0.00367532
0.00345588
0.0032327
0.0030095
0.00278989
0.00257658
0.00237092
0.0021759
0.00199237
0.00182029
0.0016601
0.00151157
0.00137374
0.00124609
0.00112783
0.00101852
0.000918629
0.000828233
0.000747961
0.000678235
0.000619105
0.000570435
0.000531452
0.000500778
0.000476463
0.000455258
0.000432677
0.00040302
0.00036102
0.000303239
0.000248787
0.000292773
0.000429726
0.000592854
0.000791276
0.00101806
0.00124167
0.00141717
0.00149427
0.00145131
0.00128589
0.00126225
0.00126094
0.00115582
0.000954936
0.000715441
0.000512885
0.000353594
0.000275908
0.000217079
0.000224852
0.000281459
0.000235495
0.000234323
0.000318777
0.000446045
0.000727829
0.00114135
0.00165361
0.00231098
0.00267306
0.0030419
0.00261875
0.00291658
0.00214757
0.00249313
0.00203581
0.000136184
0.000318346
0.000337176
0.000657676
0.000302811
0.000555283
0.00037899
0.000582449
0.00158768
0.00285486
0.00331894
0.00302058
0.0024089
0.0021182
0.00219352
0.00212749
0.00166986
0.000922081
0.000284621
0.000486739
0.000444932
0.610893
0.598027
0.566874
0.514723
0.447832
0.375677
0.306488
0.245184
0.193606
0.151579
0.117949
0.0912697
0.0701736
0.0534996
0.0403342
0.029926
0.021707
0.0152316
0.0101416
0.00617518
0.00389904
0.00373993
0.00436377
0.00475662
0.0049728
0.00504809
0.00501815
0.00491316
0.00481561
0.00473806
0.0046546
0.0045158
0.00433184
0.00411864
0.00388872
0.00364893
0.0034056
0.00316366
0.00292583
0.00269697
0.00247913
0.00227291
0.00207945
0.00189896
0.00173045
0.00157351
0.00142721
0.00129103
0.00116568
0.0010514
0.000949169
0.00085984
0.000783811
0.000721322
0.000671842
0.000634092
0.000606079
0.000584029
0.000562346
0.00053341
0.000489744
0.000425932
0.000354528
0.000404401
0.000579407
0.000787837
0.00104092
0.00132821
0.00160717
0.00181944
0.00190075
0.00182615
0.00159466
0.00155666
0.00160213
0.0015095
0.00127838
0.000978476
0.000715583
0.00050475
0.000386373
0.000279848
0.000306425
0.000403504
0.000337631
0.00031549
0.000410533
0.000554678
0.000918694
0.00143098
0.00209405
0.00288508
0.00331952
0.00380391
0.0031994
0.00353138
0.00265676
0.00335448
0.00291947
8.94017e-05
0.000423482
0.000483729
0.00092652
0.000391061
0.000719816
0.000410614
0.000908259
0.00236768
0.00392875
0.00424959
0.00361389
0.00271478
0.00246542
0.00260928
0.00260153
0.00209998
0.0011752
0.000322555
0.000629326
0.000598347
0.587202
0.575476
0.557545
0.52728
0.483511
0.429597
0.370997
0.312815
0.258704
0.210717
0.169588
0.135159
0.10679
0.083646
0.0648984
0.0497737
0.0376167
0.027881
0.0201106
0.0139478
0.00908309
0.00527757
0.00383845
0.00433384
0.00482221
0.00510565
0.00523031
0.00523543
0.00514899
0.00505468
0.00498303
0.00494428
0.00483345
0.00466426
0.00445754
0.00422486
0.00397648
0.00372056
0.00346187
0.00320782
0.00296228
0.00272686
0.00250379
0.002294
0.00209671
0.0019117
0.00173805
0.0015752
0.00142417
0.00128541
0.00116038
0.00105047
0.000956547
0.00087939
0.000818866
0.000773937
0.000742713
0.000720988
0.000702071
0.00067629
0.000633695
0.000566549
0.000476011
0.000528973
0.000743061
0.000997443
0.00130556
0.00165353
0.00198753
0.0022358
0.00231963
0.00221077
0.001909
0.00183939
0.00195027
0.00188821
0.00163955
0.00128265
0.000954791
0.000679742
0.000506124
0.000340549
0.000396325
0.000543432
0.000455485
0.000402644
0.000498524
0.00064938
0.00109722
0.00170034
0.00252842
0.00342361
0.00394443
0.00455386
0.00376447
0.00404313
0.00310401
0.00423897
0.00398549
0.000143284
0.000531484
0.000648989
0.0012253
0.000481287
0.000879872
0.000400117
0.00134938
0.00330921
0.00506851
0.0051193
0.00408374
0.00290737
0.00277098
0.00299235
0.00304967
0.00251951
0.00143346
0.000350122
0.000768763
0.000761525
0.567357
0.553906
0.539601
0.52027
0.492617
0.455999
0.412249
0.364351
0.315402
0.268022
0.2241
0.184761
0.150465
0.121178
0.0965611
0.0761086
0.0592672
0.0455008
0.0343158
0.0252896
0.0180484
0.0122824
0.00772909
0.00475532
0.00415742
0.00474447
0.00510244
0.00528302
0.00532636
0.00526533
0.00516896
0.00510041
0.0051143
0.00504078
0.00489728
0.00470347
0.00447515
0.00422511
0.00396108
0.00369388
0.00342996
0.0031725
0.00292524
0.00269025
0.00246721
0.00225632
0.0020568
0.00186813
0.00169175
0.0015284
0.00138011
0.00124892
0.00113633
0.0010438
0.000971758
0.000919552
0.000885533
0.000865166
0.000850704
0.000830336
0.000791441
0.000723668
0.000624716
0.000676461
0.000916901
0.00121656
0.00157855
0.0019859
0.00237376
0.00265747
0.00274371
0.00260057
0.00222757
0.00210174
0.00229661
0.00228519
0.00203539
0.00162839
0.00123213
0.000877048
0.000630881
0.00039617
0.000492043
0.000697868
0.00058619
0.000492307
0.000576752
0.0007225
0.0012546
0.00193734
0.00294694
0.00390781
0.00454123
0.00526897
0.00430204
0.00442289
0.00345838
0.00508771
0.00518816
0.000352198
0.000638203
0.000825231
0.00154546
0.000568852
0.00102506
0.000444606
0.00189362
0.00437429
0.0062185
0.00587582
0.00441594
0.0030013
0.00303832
0.00334558
0.00346929
0.00292119
0.00169467
0.00036969
0.000900921
0.000930746
0.550136
0.53534
0.521093
0.505636
0.48641
0.461636
0.430968
0.395214
0.355879
0.314761
0.273637
0.234047
0.197177
0.163803
0.134315
0.108776
0.0870145
0.068715
0.0534915
0.0409486
0.0307
0.0223955
0.015723
0.0104104
0.00622507
0.00434258
0.00454792
0.00498578
0.00522564
0.00531215
0.00528267
0.0051762
0.00514041
0.00518231
0.00515474
0.00504219
0.00486742
0.00464979
0.00440129
0.00413724
0.0038677
0.00359808
0.00333424
0.00307992
0.00283557
0.00260214
0.00237919
0.00216635
0.0019656
0.00177808
0.0016065
0.0014537
0.00132194
0.00121351
0.00112956
0.00106999
0.00103354
0.00101543
0.00100692
0.000994038
0.000961345
0.00089564
0.00079314
0.000838614
0.00109648
0.00143945
0.00185264
0.00231679
0.00275663
0.00307557
0.00316553
0.0029906
0.00254853
0.00233443
0.00263128
0.00269212
0.00246131
0.00201507
0.00154881
0.0010951
0.000756562
0.00044426
0.000590492
0.000862536
0.000725878
0.000580274
0.000639058
0.000767113
0.00138371
0.00213305
0.00334252
0.00432664
0.00511188
0.00592161
0.00479888
0.00465212
0.00369883
0.00583704
0.0064995
0.000673511
0.000740128
0.00100265
0.00187739
0.000648161
0.00114453
0.00058249
0.00253951
0.00553153
0.00732325
0.00648265
0.00461788
0.00302282
0.00327333
0.0036746
0.00386088
0.00330023
0.00195781
0.000384981
0.00102343
0.00110314
0.534649
0.519281
0.504534
0.489935
0.474096
0.455614
0.433601
0.407742
0.378259
0.345808
0.311341
0.275962
0.240796
0.206886
0.1751
0.146069
0.120163
0.0975057
0.0780275
0.0615271
0.0477232
0.0363038
0.0269542
0.0193758
0.0132963
0.00847258
0.00512637
0.00424993
0.00477239
0.00507626
0.00521205
0.00521691
0.00512507
0.00510933
0.00516393
0.00518606
0.00510976
0.00495984
0.00475465
0.0045156
0.00425758
0.00398919
0.00371913
0.00345351
0.00319408
0.00294286
0.00270007
0.00246566
0.00224231
0.00203171
0.00183733
0.00166299
0.00151185
0.00138721
0.0012911
0.00122413
0.00118553
0.00117045
0.00116922
0.0011657
0.00114157
0.00108059
0.000977227
0.0010101
0.00127673
0.00165977
0.0021202
0.0026375
0.00312696
0.00348123
0.00357764
0.00337559
0.0028696
0.00252805
0.00294352
0.00309912
0.00291089
0.00244063
0.00190537
0.00133234
0.000879524
0.000483159
0.000688047
0.0010323
0.000869727
0.000661688
0.000679348
0.000777398
0.00147952
0.0022824
0.00371044
0.00467922
0.00566485
0.00647708
0.00524528
0.00472319
0.00382007
0.0064246
0.00788393
0.00113393
0.000879538
0.00116987
0.00221099
0.000713347
0.00122676
0.00076794
0.00328006
0.00674409
0.00833002
0.00692292
0.00471317
0.00299815
0.00347934
0.003984
0.00422659
0.00365301
0.00222075
0.000399099
0.00113504
0.0012764
0.520521
0.505002
0.489991
0.475461
0.46072
0.444971
0.427558
0.407981
0.385933
0.361353
0.334431
0.305578
0.275385
0.244572
0.213938
0.184278
0.156306
0.13058
0.107463
0.0871205
0.0695449
0.0546012
0.0420738
0.031705
0.0232249
0.0163696
0.0108932
0.00657214
0.00446528
0.00447596
0.00485093
0.00503834
0.00508344
0.005023
0.00500793
0.00506813
0.00514482
0.00511058
0.00498577
0.00480072
0.00457707
0.00432779
0.00406545
0.00379937
0.00353328
0.00327081
0.00301322
0.00276101
0.0025178
0.00228596
0.00206991
0.00187459
0.00170424
0.00156332
0.00145497
0.00138059
0.00134014
0.00132873
0.00133591
0.00134344
0.00133007
0.00127644
0.00117497
0.00118738
0.001452
0.00187077
0.00237341
0.0029394
0.00347582
0.00386597
0.00397276
0.00375018
0.00318794
0.00267343
0.00322196
0.00349473
0.00337559
0.00290118
0.00230142
0.00158723
0.000996819
0.000512206
0.00078062
0.00120131
0.00101208
0.000731177
0.000691863
0.000749039
0.0015393
0.0023847
0.00404799
0.00497527
0.00620944
0.00689362
0.00564168
0.00463887
0.00383682
0.0067974
0.00929947
0.00170343
0.00103396
0.0013148
0.00253638
0.000759433
0.00126031
0.00100797
0.0041034
0.00797179
0.00919412
0.007203
0.00473548
0.00298884
0.00365898
0.00427827
0.00457034
0.00397803
0.00248145
0.000415006
0.00123582
0.00144886
0.507578
0.492061
0.477001
0.46249
0.448124
0.433465
0.418172
0.401922
0.384397
0.365336
0.344576
0.32207
0.2979
0.272292
0.245621
0.218407
0.191273
0.164885
0.139872
0.116754
0.0958949
0.0774827
0.0615462
0.0479903
0.0366368
0.0272617
0.0196229
0.0134792
0.00860164
0.00512828
0.00410964
0.00455805
0.00480304
0.00489463
0.00486684
0.0048474
0.00490433
0.00504118
0.00504785
0.00495589
0.00479725
0.004591
0.00435496
0.00410296
0.00384153
0.00357661
0.00331109
0.0030463
0.00278714
0.00253687
0.00230102
0.00208588
0.00189692
0.00174
0.00161949
0.00153781
0.00149576
0.00148858
0.00150514
0.0015252
0.00152466
0.00148092
0.00138415
0.00136656
0.00161621
0.00206548
0.00260446
0.00321419
0.00379489
0.00422192
0.00434407
0.00410902
0.00350042
0.00276235
0.00345509
0.00386615
0.0038447
0.00339058
0.00273528
0.00185833
0.00110643
0.000531897
0.000863768
0.00136314
0.00114664
0.000783032
0.000671493
0.00067961
0.00156277
0.00244362
0.00435452
0.00523262
0.00674833
0.00712949
0.00600679
0.00441209
0.00378423
0.00692015
0.0106996
0.00237869
0.00120487
0.00142572
0.0028447
0.000783631
0.00123392
0.00131903
0.00500528
0.0091699
0.00988458
0.00734863
0.00471791
0.00304815
0.00381113
0.00455944
0.00489715
0.00427703
0.00273971
0.000435904
0.00132701
0.0016193
0.495682
0.480223
0.465214
0.450779
0.436631
0.422485
0.408171
0.393539
0.378405
0.362573
0.345849
0.328057
0.309049
0.288728
0.267083
0.244225
0.220414
0.196056
0.171678
0.147872
0.125224
0.104234
0.085265
0.0685161
0.0540339
0.0417433
0.0314867
0.0230585
0.0162317
0.0107804
0.00648629
0.00431213
0.00420662
0.0045176
0.00465656
0.00466769
0.00463725
0.00468913
0.00487771
0.00493261
0.00488019
0.00474906
0.00456425
0.00434575
0.00410412
0.00384856
0.00358434
0.00331409
0.00304437
0.00277968
0.00252685
0.00229374
0.00208734
0.00191504
0.00178272
0.00169398
0.00165059
0.0016481
0.00167486
0.00170879
0.00172299
0.00169163
0.00160238
0.00154359
0.00176306
0.00223692
0.00280592
0.00345422
0.00407671
0.00454212
0.00468543
0.00444705
0.00380354
0.00287339
0.00363238
0.00419974
0.00430535
0.0039003
0.00320357
0.00214433
0.00120742
0.000543949
0.00093283
0.0015112
0.00126669
0.000811446
0.000614121
0.000568883
0.00155193
0.00246686
0.00463172
0.00547083
0.00727165
0.00715946
0.006383
0.00406726
0.00371254
0.00678158
0.0120359
0.00314949
0.00141548
0.00151187
0.00312883
0.000786433
0.00113714
0.001827
0.00607868
0.0102962
0.0103904
0.00739726
0.00468663
0.00314495
0.00393376
0.00482687
0.00521248
0.00455527
0.00299982
0.000467699
0.00141128
0.0017869
0.484717
0.469345
0.454425
0.440098
0.426136
0.412321
0.398551
0.384759
0.370859
0.356747
0.342311
0.327423
0.311934
0.295673
0.278465
0.260166
0.240708
0.220139
0.19865
0.176584
0.154415
0.132698
0.111994
0.0927935
0.0754554
0.0601807
0.0470205
0.0359058
0.0266849
0.0191597
0.0131109
0.0083194
0.00487613
0.00380652
0.004185
0.0043785
0.00443484
0.00438716
0.00448926
0.00466635
0.00477453
0.00476239
0.00466249
0.00450363
0.00430213
0.00407177
0.00382123
0.0035551
0.00328219
0.00300858
0.00274277
0.00249449
0.00227246
0.00208591
0.00194245
0.00184703
0.00180262
0.00180524
0.00184288
0.00189185
0.00192257
0.00190602
0.0018271
0.00171453
0.00188628
0.00237848
0.00297095
0.00365272
0.00431493
0.00482074
0.00499166
0.00475972
0.00409385
0.0030703
0.00374435
0.00448168
0.00474269
0.00441921
0.00370073
0.00247528
0.0013302
0.00055126
0.000983079
0.00163887
0.00136529
0.00081074
0.000516989
0.000418991
0.00151082
0.00246525
0.00488358
0.00570262
0.00775677
0.00699624
0.00683123
0.00364118
0.00367386
0.00639543
0.0132599
0.00400006
0.00171404
0.00160859
0.00338344
0.000772023
0.00096118
0.00241692
0.0071884
0.011312
0.010717
0.00738922
0.00465756
0.00324837
0.00402538
0.0050748
0.0055195
0.00481816
0.00326868
0.000519527
0.00149287
0.00195118
0.474589
0.459318
0.444503
0.43029
0.416495
0.402939
0.389543
0.376274
0.363085
0.349922
0.336732
0.323459
0.31003
0.296332
0.282212
0.267482
0.251942
0.235422
0.217822
0.199149
0.179557
0.159354
0.13899
0.119001
0.099939
0.0822861
0.0663954
0.052461
0.040526
0.0305156
0.0222748
0.0156043
0.0102924
0.00612601
0.00398046
0.00381162
0.0040688
0.00417208
0.00416699
0.0042551
0.00441314
0.00457599
0.00460781
0.00454432
0.00441057
0.0042268
0.00400666
0.00375757
0.00349141
0.00321645
0.0029432
0.0026837
0.00244874
0.00224967
0.00209613
0.00199465
0.00194962
0.00195772
0.00200683
0.00207189
0.0021208
0.00212143
0.00205564
0.00193417
0.0020365
0.00248417
0.00309368
0.00380409
0.00450446
0.00505321
0.0052586
0.00504315
0.00436806
0.0033006
0.00378349
0.00469892
0.00514036
0.00493362
0.00421905
0.00286115
0.00148854
0.000557793
0.00100988
0.00173977
0.00143558
0.000775745
0.000378947
0.000234111
0.00144494
0.00245164
0.00511529
0.00592745
0.00817476
0.00670251
0.00740995
0.00349222
0.00370687
0.00579597
0.0143245
0.00490981
0.00205597
0.0016677
0.00360415
0.000747814
0.000699313
0.00307993
0.00830595
0.0121896
0.0108852
0.00736026
0.00463852
0.00336943
0.00408954
0.00529264
0.00581694
0.00506721
0.00354995
0.000601316
0.00157814
0.00211198
0.465217
0.450052
0.435347
0.421246
0.407602
0.394259
0.381153
0.368261
0.355552
0.342988
0.330538
0.31818
0.305894
0.29364
0.281345
0.26889
0.256107
0.242794
0.22874
0.213756
0.197719
0.180618
0.162587
0.143922
0.125061
0.106537
0.0888978
0.0726201
0.0580456
0.0453521
0.0345656
0.0255954
0.0182796
0.0124163
0.00779504
0.00447069
0.00340442
0.00372722
0.00388734
0.00392849
0.00399097
0.00411981
0.00434134
0.00442334
0.00439541
0.00428754
0.00412059
0.00390612
0.00366025
0.00339426
0.0031212
0.00285601
0.00261193
0.00240286
0.00224084
0.00213422
0.0020891
0.00210307
0.00216415
0.00224624
0.00231495
0.00233506
0.00228516
0.00217498
0.00218729
0.00254899
0.00316941
0.00390396
0.00464147
0.00523625
0.0054832
0.00529431
0.00462285
0.00352517
0.00374545
0.00484013
0.00548137
0.00542711
0.0047485
0.00327335
0.0016607
0.000568292
0.00100886
0.00180793
0.00147099
0.000701845
0.000201146
0.000125697
0.00140356
0.00243951
0.00533069
0.00613086
0.00850015
0.0063785
0.00814327
0.00382989
0.00382347
0.00503007
0.0151849
0.00585374
0.00243999
0.00168511
0.00378668
0.00072329
0.000577374
0.00380382
0.00940197
0.0129082
0.0109256
0.00733619
0.00463233
0.00351555
0.0041365
0.00546711
0.00609883
0.00529995
0.0038381
0.000718381
0.00167585
0.00226955
0.456527
0.441469
0.426876
0.412883
0.399373
0.38621
0.373338
0.360739
0.34839
0.336258
0.324314
0.312544
0.300942
0.289505
0.278218
0.267037
0.25588
0.244616
0.233067
0.221025
0.208267
0.194594
0.179871
0.16408
0.14735
0.129973
0.112391
0.0951378
0.0787627
0.0637355
0.0503804
0.0388499
0.0291458
0.021158
0.0147117
0.00960634
0.00563123
0.0035625
0.00335881
0.00358277
0.0036691
0.00369912
0.00383876
0.00407841
0.00420893
0.00421792
0.00413569
0.00398002
0.00377305
0.00353021
0.0032679
0.00300468
0.00275687
0.0025414
0.00237317
0.00226274
0.00221825
0.00223851
0.002312
0.00241202
0.00250203
0.00254392
0.00251262
0.00241624
0.00231932
0.00256913
0.00319473
0.00394934
0.00472327
0.00536777
0.0056634
0.0055109
0.00485516
0.00374046
0.00362847
0.0048969
0.00574926
0.00588073
0.00527621
0.00370759
0.00184886
0.000588114
0.000976082
0.00183799
0.00146559
0.000585637
0.000140936
0.000205547
0.00145194
0.00248485
0.0055291
0.00629004
0.00871815
0.00612611
0.00899315
0.00431054
0.00400384
0.00415017
0.0158011
0.00680381
0.00286296
0.00165867
0.00392604
0.000708605
0.000776441
0.00457353
0.0104482
0.0134563
0.0108735
0.00733164
0.00464047
0.00368852
0.00418394
0.00558777
0.00635713
0.00551502
0.00411965
0.0008686
0.00179692
0.0024245
0.44846
0.433505
0.41902
0.405132
0.391742
0.378733
0.366055
0.353692
0.341626
0.329827
0.318266
0.306925
0.295798
0.284886
0.274194
0.263719
0.25344
0.243306
0.233224
0.223055
0.212618
0.201695
0.190056
0.177497
0.163883
0.149194
0.133562
0.117284
0.100811
0.0846856
0.0694593
0.055591
0.0433807
0.0329495
0.0242676
0.0172061
0.0115773
0.00717555
0.00400647
0.00296682
0.00325441
0.00339426
0.00342856
0.00357965
0.00378497
0.00396594
0.00401323
0.00395032
0.00380822
0.00360832
0.0033715
0.00312101
0.00287703
0.00266023
0.00248905
0.00237669
0.00233381
0.00236088
0.00244721
0.00256596
0.00267877
0.00274469
0.0027347
0.00265466
0.00254927
0.00265765
0.00316758
0.00393847
0.00474824
0.00544664
0.00579793
0.00569135
0.00506241
0.00394339
0.00343426
0.00486451
0.00592949
0.0062742
0.0057866
0.00415673
0.00214548
0.000707587
0.000908217
0.0018253
0.00141416
0.000424208
0.000298509
0.000441579
0.00155917
0.00261446
0.00570335
0.00638199
0.00882707
0.00601234
0.00985945
0.00467002
0.00420046
0.00366554
0.0161388
0.00772985
0.00331872
0.00158725
0.00401596
0.000713432
0.00115699
0.00538383
0.0114183
0.0138305
0.0107629
0.00735117
0.0046641
0.00388197
0.00425321
0.00565226
0.00658454
0.00571609
0.00437967
0.00104359
0.001952
0.00257742
0.440961
0.426105
0.411725
0.397935
0.384653
0.371779
0.359265
0.347096
0.335258
0.323723
0.312464
0.301461
0.2907
0.280178
0.269899
0.259869
0.250092
0.240561
0.231248
0.222094
0.212997
0.203817
0.194364
0.184414
0.173737
0.162129
0.149457
0.135706
0.121014
0.105691
0.0901999
0.075097
0.0609342
0.0481559
0.0370301
0.0276419
0.0199285
0.0137366
0.0088732
0.0051262
0.0031444
0.00290502
0.00310768
0.00318361
0.00330076
0.00346059
0.00369671
0.00377536
0.00373506
0.0036061
0.00341562
0.00319309
0.00296372
0.00275285
0.00258336
0.00247175
0.00243188
0.00246645
0.00256604
0.00270433
0.00284139
0.00293361
0.00294764
0.00288649
0.00279518
0.00275183
0.00309682
0.00387073
0.00471564
0.00547223
0.00588604
0.00583451
0.00524227
0.00413051
0.00316682
0.00474238
0.00601104
0.00658713
0.00626158
0.00461198
0.00247046
0.000854953
0.000802657
0.00176612
0.00131282
0.000293747
0.000544121
0.000673602
0.00166383
0.0027706
0.00584047
0.00639062
0.00883647
0.0060537
0.0105991
0.00485837
0.00434424
0.0039989
0.0161639
0.00860091
0.00379801
0.00147046
0.00404893
0.000746215
0.00171718
0.00632841
0.0122892
0.014036
0.010623
0.0073931
0.00470519
0.00408228
0.00436413
0.00566885
0.00677537
0.00590935
0.00460722
0.00123162
0.002147
0.00272822
0.433983
0.41922
0.404939
0.391241
0.378059
0.365303
0.352929
0.340924
0.329273
0.317953
0.306937
0.296205
0.285739
0.275531
0.265577
0.255879
0.246445
0.237281
0.228386
0.219749
0.211333
0.203075
0.19487
0.186569
0.177977
0.168871
0.159022
0.14823
0.136367
0.123425
0.109552
0.0950729
0.0804692
0.0663102
0.0531469
0.0414042
0.0313138
0.0229172
0.0161204
0.0107466
0.00658814
0.00356424
0.00253764
0.00280036
0.00292836
0.00300257
0.00316997
0.00339396
0.00350793
0.00349059
0.00337655
0.00320398
0.0030048
0.00281039
0.00264937
0.00254246
0.00250761
0.00255067
0.00266403
0.00282265
0.00298543
0.00310629
0.00314715
0.00310757
0.0030318
0.00300514
0.00315429
0.00374624
0.00462537
0.00544379
0.00592711
0.00593931
0.00539245
0.00429864
0.00300581
0.00453417
0.00598757
0.0068007
0.0066795
0.00506122
0.00281926
0.00107826
0.000701954
0.00168527
0.00123745
0.000219975
0.000844854
0.000894646
0.0017673
0.00294689
0.00592692
0.00631027
0.0087626
0.00622057
0.0110528
0.00487653
0.00436376
0.00461792
0.0158333
0.00938467
0.00428801
0.00130876
0.00401666
0.000813911
0.00232895
0.00727872
0.0130411
0.014084
0.0104762
0.00745323
0.00476556
0.00427024
0.00452842
0.00565489
0.00692498
0.00609792
0.00479875
0.00142074
0.00237838
0.00287548
0.427483
0.412808
0.398621
0.38501
0.371917
0.359266
0.347015
0.335149
0.323655
0.312512
0.301695
0.291183
0.280959
0.271008
0.261323
0.2519
0.24274
0.233848
0.22523
0.216889
0.208822
0.20101
0.193415
0.185968
0.178557
0.171028
0.163188
0.154815
0.145684
0.1356
0.124439
0.112204
0.0990567
0.085339
0.0715513
0.0582769
0.0460653
0.0353151
0.026217
0.0187668
0.0128313
0.00821613
0.00469884
0.00277368
0.00247589
0.00266604
0.002739
0.00290415
0.00306028
0.00321161
0.00321848
0.00312841
0.00298247
0.00282016
0.00267772
0.00258147
0.00255473
0.0026078
0.00273563
0.00291547
0.00310551
0.00325749
0.0033282
0.00331311
0.00325468
0.00324425
0.00335176
0.00373031
0.00447759
0.00535982
0.00592018
0.00600425
0.00551035
0.00444477
0.00306759
0.00424671
0.00585846
0.0068997
0.00701746
0.00548897
0.00318414
0.0013469
0.000577677
0.00157693
0.0011802
0.000339258
0.00115811
0.00109893
0.00187093
0.00321296
0.00602184
0.00614546
0.00862204
0.00645304
0.0110933
0.00480025
0.00422272
0.00503528
0.0151197
0.0100467
0.0047733
0.00110241
0.00391072
0.000922027
0.00297902
0.00820935
0.013658
0.0139927
0.0103393
0.00752806
0.00484596
0.00442479
0.00474486
0.0056319
0.00702978
0.00627865
0.00496064
0.00160373
0.00263334
0.0030167
0.421425
0.406831
0.392732
0.379202
0.366192
0.353634
0.341491
0.329745
0.318385
0.30739
0.296738
0.286408
0.276382
0.266645
0.257185
0.247994
0.239067
0.230404
0.222008
0.213883
0.206035
0.198462
0.191157
0.184101
0.177248
0.170524
0.163814
0.156963
0.149781
0.142048
0.133544
0.124079
0.113538
0.101932
0.0894388
0.0764189
0.063394
0.0509605
0.0396637
0.0298723
0.0217254
0.0151715
0.0100374
0.00610676
0.00318208
0.00213683
0.00238296
0.00251119
0.00261848
0.00275302
0.0028865
0.00292693
0.00286931
0.00276304
0.00265478
0.00257858
0.00256489
0.00263042
0.00277389
0.00297603
0.003195
0.00338086
0.0034848
0.00349757
0.00345877
0.00346534
0.0035973
0.00389026
0.00441411
0.00521851
0.00586318
0.00602658
0.00559241
0.00456649
0.00320337
0.00388762
0.00562808
0.00687439
0.00725297
0.00587672
0.00355413
0.00164078
0.000415121
0.00142472
0.00108507
0.000645946
0.00147436
0.00128301
0.00197653
0.00348486
0.00604778
0.00590753
0.00842558
0.00668669
0.0107156
0.00478658
0.00394226
0.00526905
0.0140849
0.0105555
0.00523308
0.00101211
0.00372468
0.00107402
0.00365608
0.00910116
0.0141286
0.0137837
0.0102247
0.00761455
0.00494241
0.00452666
0.0049975
0.00561894
0.00708801
0.00644191
0.0051054
0.00178201
0.00289649
0.00314891
0.415773
0.401255
0.387238
0.373784
0.36085
0.348377
0.336328
0.324688
0.313442
0.302574
0.292061
0.281882
0.272021
0.262461
0.253189
0.244194
0.235468
0.227004
0.218803
0.210863
0.20319
0.195785
0.18865
0.181783
0.175176
0.168802
0.162613
0.156529
0.150437
0.144183
0.137579
0.130409
0.122458
0.113542
0.103556
0.0925202
0.0806276
0.068259
0.0559571
0.0443329
0.0339218
0.0250558
0.0178168
0.0120971
0.00769736
0.00437903
0.00246522
0.00208619
0.00227336
0.00236318
0.00249149
0.00255825
0.00262193
0.00260883
0.0025596
0.00251878
0.00252651
0.00260871
0.00276987
0.00299589
0.00324573
0.00346861
0.00360974
0.00365444
0.00363812
0.0036629
0.00381962
0.00415968
0.00454545
0.00512024
0.00575111
0.00600148
0.00563335
0.00465885
0.0033122
0.00346423
0.00530495
0.0067218
0.00736605
0.00620332
0.00391491
0.00195099
0.000237186
0.00123077
0.000952173
0.000997016