/*--------------------------------*- C++ -*----------------------------------*\
| =========                 |                                                 |
| \\      /  F ield         | OpenFOAM: The Open Source CFD Toolbox           |
|  \\    /   O peration     | Version:  2412                                  |
|   \\  /    A nd           | Website:  www.openfoam.com                      |
|    \\/     M anipulation  |                                                 |
\*---------------------------------------------------------------------------*/
FoamFile
{
    version     2.0;
    format      ascii;
    arch        "LSB;label=32;scalar=64";
    class       surfaceScalarField;
    location    "1";
    object      ddtCorrDdt0(phi);
}
// * * * * * * * * * * * * * * * * * * * * * * * * * * * * * * * * * * * * * //

dimensions      [0 3 -2 0 0 0 0];

oriented        oriented;

internalField   nonuniform List<scalar> 
24930
(
8.52868e-05
-0.0141919
-0.0102086
0.00585205
-0.00392847
0.00518616
0.0115479
-0.00656745
0.0113731
-0.0143007
-0.00954597
-0.00267208
-0.040608
0.0193687
-0.0406356
0.0231661
0.0200809
0.00456895
0.0926703
-0.0318491
0.0574019
-0.0251692
-0.0536736
0.0120605
-0.130742
0.033255
-0.0726337
0.018604
0.0883744
-0.0125097
0.195603
-0.0237853
0.108094
-0.0185911
-0.147073
-0.0164213
-0.320283
-0.000167152
-0.141796
0.0828874
0.31416
0.214166
0.465517
0.0164267
-0.00292873
-0.397037
-0.768653
-0.45847
-0.371799
0.279691
0.0204643
0.334464
0.743889
0.00486854
0.690158
-0.0611494
-0.0582963
0.00616689
-0.148742
0.0274519
-0.0636908
-0.00977346
-0.0311382
-0.0233671
-0.0117549
-0.00154455
0.0372495
0.0177417
0.0505094
0.0089954
0.00608594
-0.00783437
-0.0379352
-0.00961241
-0.0258094
0.00140436
0.0221998
0.00731033
0.0318579
0.00189854
-0.0222794
-0.00446337
-0.0333255
-0.00374582
-0.00631933
0.000637149
0.0162537
0.00218209
0.0122117
4.61436e-05
-0.00393009
-0.00206982
-0.00992261
-0.00178417
-0.00330291
-0.000270686
0.00355475
0.000363558
0.00220121
-0.000225213
-0.00362686
-0.000883926
-0.00558278
-0.00077027
-0.00114073
-0.000148389
0.00414762
0.000304841
0.00273899
0.000322675
-0.00477098
0.000285742
-0.00608866
0.000548181
-0.00252644
0.000899047
-0.000177373
0.00114767
0.000566693
0.0012301
0.000218796
0.00124744
-0.00116503
0.0012494
-0.0020469
0.00113491
-0.0015259
0.000757155
1.91297e-05
7.0927e-05
0.00173406
-0.000879365
0.00316575
-0.0019453
0.00427501
-0.00283764
0.00458882
-0.00320033
0.00287252
-0.00282175
-0.00201661
-0.0018725
-0.00968074
-0.000848038
-0.0187391
-2.20926e-05
-0.00249869
0.000352289
0.00817945
0.000385557
0.00571075
0.000749608
-0.00122192
0.0020021
-0.00715709
0.00453426
-0.0141281
0.00775341
-0.0170261
0.00969449
-0.00801761
0.00894041
0.004916
0.00794447
0.0157075
0.00596277
0.00985484
0.00314503
0.00641504
0.000527074
0.0118562
-0.00146645
0.0090545
-0.00240171
0.00290812
-0.00176233
-0.00556311
0.000392413
-0.0107372
0.00244181
-0.00996075
0.00877177
-0.00850419
0.0122051
-0.000287469
0.00894081
0.0106657
0.00446712
0.0166072
0.0206544
-0.0168711
-0.00637541
0.0342935
-0.0333778
0.0264951
0.0147031
-0.0571477
0.01584
0.00568667
0.0022469
0.0103309
0.00404514
-0.0015565
-0.00505136
0.00960479
0.000417376
-0.00596711
-0.000327881
0.00372998
-0.00419012
0.00509873
-0.00352095
0.000510689
0.00935294
-0.0206522
0.0255447
-0.023646
0.0328196
-0.00851274
0.0258683
0.0147439
0.00919385
0.0241037
-0.0190719
0.041183
-0.0381594
0.0315795
-0.0215364
-0.0210221
-0.00838758
-0.0176623
-0.0289763
0.015112
-0.0467218
0.00983148
-0.0325085
-0.0136214
0.0132393
-0.0465047
-0.0156652
0.000702823
-0.0117476
-0.0031865
0.00738704
-0.00535494
0.00190931
0.0043479
-0.0151089
0.00509071
-0.0189057
0.00900591
0.0043154
0.0124614
0.0295385
-0.00561067
0.0205265
-0.0410008
-0.018364
-0.0367284
-0.0294649
0.0337177
-0.00557267
0.0757642
0.0247897
0.0326224
0.0273304
-0.0656758
0.00570132
-0.110117
-0.0205502
-0.029896
-0.0228492
0.115847
-0.0107364
0.159703
0.0054987
0.0203224
0.0305127
-0.17083
0.059858
-0.21665
0.0891117
-0.143246
-0.0527079
0.14859
-0.231131
0.00338361
-0.261393
0.3213
0.242166
0.423734
0.212348
0.592192
-0.063223
0.507608
-0.0310952
-0.261715
0.0263442
-0.142873
0.0174913
-0.00635142
-0.0195402
-0.0253986
-0.0173551
-0.029028
0.00761403
0.0358453
0.0181615
0.060798
0.00355689
0.0149411
-0.00998943
-0.0352363
-0.00641858
-0.0281445
0.00420923
0.0135818
0.00683391
0.0283755
0.000352274
-0.0017646
-0.00453282
-0.019935
-0.00276857
-0.0108774
0.0013529
0.0062918
0.00223353
0.00957141
-5.40392e-05
0.000115229
-0.00183319
-0.00718602
-0.00126929
-0.00530608
0.000233407
0.00027639
0.000735308
0.00187294
0.000120139
-0.00107091
-0.000412179
-0.0036513
-0.000120732
-0.00262349
0.000651668
0.000310234
0.00124719
0.00115163
0.00151181
-0.00114335
0.0018704
-0.00220867
0.00256083
-0.0011024
0.00333753
-0.00022492
0.00404369
5.59814e-05
0.00449143
-2.28827e-05
0.00468706
-0.000503503
0.00453404
-0.000143346
0.00378556
0.00128214
0.0021755
0.00312745
-0.000340394
0.00474689
-0.00356003
0.00578603
-0.00696438
0.00600722
-0.0096468
0.00480345
-0.0105734
0.00172188
-0.00921753
-0.00280142
-0.00606346
-0.00703489
-0.00243941
-0.00931454
0.000618032
-0.00796988
0.00249001
-9.24078e-07
0.00344768
0.000308745
0.00548653
-0.00342915
0.00995526
-0.00831166
0.0180031
-0.0154861
0.0275045
-0.0186328
0.0276407
-0.00638706
0.0302048
-0.0029207
0.0263759
0.00723351
0.0188504
0.0135204
0.00833847
0.0213257
-0.00124826
0.0205478
-0.00836554
0.0181567
-0.0109813
0.00972865
-0.0072564
-0.00431923
0.000958326
-0.0117291
0.0104248
-0.0144091
0.0306971
-0.0248334
0.0413931
-0.0110733
0.0312958
0.0167131
0.021333
0.0275661
0.0694193
-0.0647994
-0.0228262
0.13047
-0.100771
0.110253
0.0484829
-0.207712
0.046854
0.0104563
0.011027
0.0454055
0.0120961
-0.00206129
-0.01561
0.0374381
0.000101181
-0.0208736
-0.00277085
0.00548901
-0.0131086
0.0130349
-0.00743546
-0.00989486
0.0369211
-0.0626125
0.089227
-0.0708449
0.106401
-0.0238821
0.0758552
0.0438329
0.0152805
0.0807104
-0.0744036
0.12424
-0.133844
0.0937155
-0.082804
-0.070785
-0.0341889
-0.0636865
-0.0841951
0.0704678
-0.143165
0.0736512
-0.105986
-0.0519069
0.0330629
-0.188027
-0.0791261
0.00252602
-0.00629745
0.00169695
0.00910482
-0.000985023
-0.000862013
0.00296394
-0.0181668
0.00188083
-0.0208638
0.00498225
0.000795518
0.0103363
0.0239947
0.00100059
0.0200933
-0.023779
-0.011729
-0.0309593
-0.0247553
0.0141322
-0.00902859
0.058233
0.0148747
0.0403355
0.0214072
-0.041292
0.0104344
-0.105388
-0.00804586
-0.0664707
-0.0230695
0.0768974
-0.0252697
0.196932
0.00145123
0.153264
0.0570663
-0.10049
0.0595604
-0.460511
-0.0794292
-0.61071
-0.116968
0.110598
0.0296924
0.925781
0.0456496
0.729749
0.101369
-0.337138
0.0149527
0.0359554
-0.106873
0.179384
0.00176506
-0.377034
0.0400761
-0.094778
0.0105822
0.0499792
-0.0237403
-0.00878903
-0.0124778
-0.027187
0.0123001
0.0366336
0.0178378
0.0581235
0.00103392
0.0111714
-0.0103303
-0.0337219
-0.00438603
-0.0233828
0.00584158
0.0140685
0.00682695
0.0248458
-1.76152e-05
0.000875352
-0.0042206
-0.0162813
-0.00187084
-0.0100195
0.00227332
0.00477872
0.00291418
0.00807327
0.000550234
-0.000122906
-0.00106035
-0.00687045
-0.000283304
-0.00534744
0.00131437
-0.000107628
0.00180712
0.00167507
0.00119055
-0.000883252
0.000738752
-0.00344079
0.00117636
-0.00287706
0.00210875
-0.000462173
0.00287701
0.00044462
0.00339761
-0.00113593
0.00410385
-0.00221183
0.00520484
-0.00180149
0.00644978
-0.00127789
0.00758367
-0.0011509
0.00835319
-0.00101009
0.00864229
-0.000498157
0.00820285
0.00128254
0.00663901
0.00416111
0.00357856
0.00729358
-0.00100681
0.0099154
-0.00670244
0.0114208
-0.0125506
0.0111823
-0.0169756
0.00816591
-0.0182742
0.00212706
-0.0156222
-0.00543227
-0.00986284
-0.0114027
-0.00318021
-0.0131823
0.00257478
-0.0125394
0.00633067
-0.00489156
0.0085682
-0.00282808
0.0126175
-0.00779978
0.0207129
-0.0159921
0.0345675
-0.0285469
0.0503517
-0.033562
0.0557857
-0.0119545
0.0532387
-0.00309366
0.04489
0.0124561
0.0310114
0.0259778
0.0121687
0.0404156
-0.00513792
0.040732
-0.0178925
0.0343985
-0.0210508
0.0158248
-0.0127603
-0.0106479
0.00398243
-0.0256324
0.0214104
-0.0309076
0.057031
-0.0582938
0.0742959
-0.0265769
0.0569379
0.0352779
0.0496964
0.0419658
0.127576
-0.145219
-0.0367556
0.297367
-0.168583
0.245851
0.0833912
-0.460577
0.0821234
0.0171407
0.0218264
0.102577
0.0188521
0.0024901
-0.0273148
0.0838182
-0.000160868
-0.047143
-0.00629371
0.0113885
-0.0218357
0.0267217
-0.00725623
-0.0263456
0.073551
-0.143406
0.162503
-0.158286
0.180507
-0.0403023
0.114381
0.113314
0.00339145
0.193729
-0.148022
0.274757
-0.241591
0.181593
-0.149043
-0.162734
-0.0568784
-0.154156
-0.13333
0.146087
-0.23497
0.171814
-0.183545
-0.105551
0.0459481
-0.418921
-0.186717
0.00575815
-8.19097e-05
0.0030156
0.0108279
0.00224217
-0.00259767
0.00161439
-0.0198603
-0.00129516
-0.0215878
0.000942874
-0.00253081
0.00670128
0.0175556
0.00333519
0.0173019
-0.0111099
-0.00401754
-0.0179245
-0.0174601
0.00585138
-0.0129738
0.0319075
0.00061845
0.0224057
0.0111838
-0.0262196
0.0167754
-0.0646839
0.0120504
-0.0391663
-0.00890877
0.0526487
-0.0360615
0.134203
-0.0245479
0.108127
0.0328864
-0.0693531
0.0449483
-0.331586
-0.0717066
-0.379413
-0.0778416
0.264225
0.139425
1.03868
0.274048
0.676871
-0.108333
-0.741732
-0.150188
-0.602835
-0.0928913
0.163504
0.0392291
-0.177017
0.0498226
-0.00901325
0.00304139
0.0890455
-0.0267753
0.00298892
-0.00768132
-0.0222194
0.0159523
0.0341183
0.0171813
0.0505148
-0.000980457
0.00604499
-0.0102308
-0.0306028
-0.00247124
-0.0169866
0.00734106
0.0151454
0.00694518
0.0206843
-0.000246559
0.000951242
-0.00386348
-0.0139387
-0.000933097
-0.00869557
0.00327318
0.00397343
0.00370064
0.00655016
0.00125804
-0.00094257
-0.00019225
-0.00700242
0.00080829
-0.00547367
0.00251885
-0.000508932
0.00301596
0.00123797
0.0024085
-0.00114765
0.00205206
-0.00367899
0.0026607
-0.00341401
0.00378661
-0.00139256
0.00476464
-0.000477421
0.00557172
-0.00156305
0.00665521
-0.0027195
0.00820696
-0.00304647
0.00996189
-0.00289416
0.011533
-0.00290322
0.0126003
-0.0023861
0.012926
-0.000619402
0.0120971
0.00301097
0.00956463
0.00797419
0.00487335
0.0131621
-0.00197815
0.0175192
-0.0103147
0.0199769
-0.0186934
0.0192833
-0.02484
0.0137116
-0.0263511
0.00311986
-0.0221136
-0.00956526
-0.0133312
-0.0191712
-0.00309662
-0.0217014
0.00590816
-0.0196756
0.0119953
-0.0118666
0.0158544
-0.00748312
0.0222019
-0.0144944
0.0342211
-0.0275898
0.0541011
-0.0476266
0.0761663
-0.05488
0.0834943
-0.0201485
0.077287
0.000611408
0.0635086
0.0228973
0.0424303
0.0462163
0.0146387
0.06943
-0.0109208
0.0686257
-0.0292819
0.0554327
-0.0322068
0.0214293
-0.0178043
-0.0234673
0.00974137
-0.0505388
0.0355566
-0.0557738
0.0878932
-0.108111
0.112083
-0.0490414
0.0861309
0.0594466
0.0801487
0.0554356
0.195553
-0.258818
-0.0409095
0.533111
-0.237914
0.445965
0.118548
-0.815109
0.122572
0.0176447
0.0353201
0.185873
0.0237206
0.0140871
-0.0401079
0.147893
-0.000538557
-0.085689
-0.0108619
0.021084
-0.0292525
0.042993
-0.000671791
-0.0579246
0.122037
-0.266291
0.243449
-0.277129
0.249341
-0.0455101
0.13586
0.226852
-0.0318769
0.359842
-0.240701
0.486855
-0.354987
0.293352
-0.211338
-0.306353
-0.0777847
-0.287222
-0.173414
0.244375
-0.319626
0.319598
-0.263657
-0.159081
0.0511644
-0.735563
-0.34554
0.00795584
0.00228534
0.00275588
0.0114692
0.00227572
-0.0038529
-0.00047438
-0.0201497
-0.00362426
-0.0209616
-0.00174771
-0.00441656
0.00398335
0.0127262
0.00453932
0.0143774
-0.00319629
0.000510761
-0.00974964
-0.0129029
-0.00185068
-0.0165222
0.0114397
-0.0104603
0.010671
0.00367578
-0.0089749
0.0224347
-0.0266047
0.0282879
-0.0180294
0.00246202
0.0193669
-0.0415814
0.0570789
-0.0496309
0.0577999
0.00885326
-0.0101884
0.0382807
-0.122889
-0.0123268
-0.120182
0.00375505
0.264674
0.143681
0.633623
0.209309
0.12404
-0.167876
-1.00197
-0.232522
-0.91388
-0.000667781
0.0100763
0.0666688
0.0670828
0.0542118
0.0622429
-0.00601633
0.081856
-0.0295932
-0.00152516
-0.00299666
-0.0229608
0.0191581
0.0272174
0.0163554
0.0444642
-0.00273899
0.00154536
-0.00990958
-0.029343
-0.000610819
-0.0126882
0.00871696
0.0166476
0.00716478
0.0185078
-0.000371935
-0.000996634
-0.00344844
-0.0141478
5.25096e-05
-0.00787727
0.0043448
0.00431091
0.00457961
0.00594724
0.00206396
-0.00191685
0.000778312
-0.00766378
0.00201335
-0.00564783
0.00384934
-0.000463453
0.00436095
0.0011955
0.00377422
-0.00137068
0.00353042
-0.00403066
0.00433364
-0.00388042
0.00568169
-0.00203194
0.00689888
-0.00127987
0.00801285
-0.00243711
0.00949433
-0.00389324
0.011518
-0.0047072
0.0137869
-0.00482765
0.0157854
-0.00503359
0.0171212
-0.00400339
0.0174166
-0.000847104
0.0160937
0.00492545
0.0124422
0.01253
0.00596792
0.0204068
-0.00330585
0.0272275
-0.0143976
0.031096
-0.0253463
0.0299391
-0.0331613
0.0211323
-0.0347355
0.00453922
-0.0286505
-0.0152713
-0.0164427
-0.0305502
-0.00213675
-0.0350927
0.0107052
-0.0316434
0.0196927
-0.0212847
0.0255646
-0.0137719
0.0344697
-0.0236236
0.050538
-0.043274
0.0763914
-0.0729642
0.104403
-0.0825691
0.1128
-0.0299796
0.101825
0.00902434
0.0815435
0.0401706
0.0527672
0.0737569
0.0156545
0.107879
-0.0184913
0.104953
-0.0424068
0.0822106
-0.0441298
0.0260095
-0.0220208
-0.0439312
0.0186272
-0.0884751
0.0524926
-0.0888063
0.122741
-0.175454
0.154817
-0.0788831
0.120779
0.0925392
0.112994
0.0722876
0.272034
-0.419211
-0.0287841
0.829935
-0.304611
0.723933
0.152919
-1.26693
0.171724
0.00484239
0.0517795
0.304096
0.0265606
0.0396494
-0.0596682
0.23339
-0.00157493
-0.142224
-0.0164119
0.0352902
-0.0342504
0.0585414
0.0145386
-0.106676
0.186704
-0.436941
0.330115
-0.417806
0.307841
-0.0223306
0.134433
0.399429
-0.091789
0.585439
-0.35003
0.73529
-0.465799
0.405368
-0.25862
-0.511379
-0.0829445
-0.460589
-0.20441
0.366037
-0.396941
0.510108
-0.345576
-0.210061
0.0499274
-1.13178
-0.554511
0.00880831
0.00228686
0.0019328
0.0109143
0.000749454
-0.00490583
-0.00253108
-0.0193094
-0.00462967
-0.018887
-0.00206131
-0.00444658
0.00345188
0.00962652
0.00485924
0.0113171
-0.000919968
0.00140657
-0.00770879
-0.0110311
-0.00635128
-0.0187077
0.00220596
-0.0169067
0.00803021
-0.000829906
0.00429642
0.0253287
-0.00560626
0.0368555
-0.0139001
0.00808776
-0.0128959
-0.0456379
0.00379461
-0.0640162
0.0363492
-0.0146778
0.059693
0.0390946
0.0365332
0.0368217
0.0168255
0.0537304
0.12586
0.103168
0.147099
0.100457
-0.306719
-0.185997
-1.0145
-0.181155
-0.680782
0.0433032
0.0882002
0.0775101
0.242147
0.0453824
0.0926233
-0.0160404
-0.0154734
-0.0318557
-0.0335473
0.00190786
-0.0260161
0.0224116
0.0147943
0.0151943
0.0378074
-0.00448106
-0.00406305
-0.00934672
-0.0285307
0.00135283
-0.00823441
0.0100159
0.0185578
0.00734332
0.0163861
-0.000459798
-0.00380608
-0.00292754
-0.0149544
0.00114132
-0.00703548
0.0054794
0.00486456
0.00550444
0.00531231
0.0029371
-0.00316708
0.00184849
-0.00854849
0.00333465
-0.00584652
0.00529558
-0.000373118
0.00582166
0.00108373
0.00526879
-0.0017953
0.00516103
-0.00459689
0.00618329
-0.00449173
0.00777467
-0.00280169
0.00924935
-0.00235523
0.010684
-0.00382734
0.0125773
-0.00566045
0.0150821
-0.00686876
0.0178567
-0.00721243
0.0202624
-0.00745608
0.0218225
-0.00579097
0.0220182
-0.00102129
0.0201092
0.0072761
0.0151922
0.0181533
0.00684218
0.0292434
-0.00495924
0.0392246
-0.0188779
0.0448665
-0.0324198
0.0431151
-0.0418796
0.0302556
-0.0434382
0.00611252
-0.0353322
-0.0227998
-0.019354
-0.0455916
-0.000422564
-0.0531463
0.0169309
-0.0481537
0.0294916
-0.0341704
0.0378249
-0.0224398
0.0495131
-0.0354843
0.0696054
-0.0628877
0.101152
-0.103878
0.134588
-0.115594
0.142956
-0.0398937
0.126259
0.0229009
0.0986821
0.0645849
0.0618207
0.109158
0.0152713
0.155343
-0.0275399
0.149901
-0.0567963
0.114345
-0.0563682
0.028648
-0.025044
-0.0733314
0.0307094
-0.141075
0.0716913
-0.128684
0.160569
-0.260689
0.202913
-0.118507
0.162493
0.131171
0.142144
0.102268
0.351997
-0.626901
0.00630773
1.16928
-0.363071
1.09428
0.185796
-1.80679
0.194672
0.00111053
0.0727077
0.412536
0.0273452
0.0846347
-0.0770117
0.337081
-0.00423395
-0.213199
-0.023012
0.0532686
-0.0353673
0.068468
0.0408811
-0.189713
0.248623
-0.643334
0.418332
-0.583612
0.349531
0.046818
0.106972
0.641088
-0.174808
0.865222
-0.470025
1.04456
-0.564664
0.501466
-0.282749
-0.792266
-0.072919
-0.669094
-0.222299
0.516615
-0.465732
0.752965
-0.428291
-0.245399
0.0419625
-1.60257
-0.816317
0.00849784
0.00178852
0.0011694
0.00940661
-0.000512088
-0.00582602
-0.00364662
-0.0176134
-0.0043517
-0.0158065
-0.00108943
-0.00341485
0.00361696
0.00732622
0.00427369
0.00813707
-0.00116572
0.000594537
-0.00756565
-0.0100673
-0.00761365
-0.0191642
8.75667e-05
-0.0201299
0.00907283
-0.00451985
0.0108956
0.0240047
0.000819796
0.0383415
-0.0190828
0.0106408
-0.0347504
-0.0436351
-0.020993
-0.0647968
0.0362265
-0.0203495
0.103267
0.0375827
0.10641
0.0571755
0.0358401
0.0627569
-0.0380135
0.0526724
-0.187998
0.0181807
-0.485317
-0.163901
-0.777656
-0.106239
-0.320183
0.0711413
0.265091
0.0816893
0.315966
0.0233685
0.132009
-0.0234295
-0.060709
-0.0314986
-0.046137
0.00691913
-0.00654823
0.02614
-0.00484733
0.0135549
0.0307999
-0.00618397
-0.00999553
-0.00843745
-0.0272122
0.00347229
-0.00353892
0.0112067
0.0201733
0.00741771
0.0139337
-0.000505822
-0.00685757
-0.00225997
-0.0157624
0.00235124
-0.00615402
0.00665916
0.00529807
0.00644885
0.00442091
0.00386743
-0.00464242
0.00302272
-0.00951972
0.00477586
-0.00604814
0.00685323
-0.000324886
0.00739021
0.000836878
0.00688708
-0.00239588
0.00694165
-0.00530597
0.00820513
-0.00520952
0.0100537
-0.00370943
0.011795
-0.00368467
0.0135547
-0.00562458
0.0158597
-0.00789583
0.0188369
-0.00947167
0.0220898
-0.0100307
0.0248673
-0.0101649
0.0266015
-0.0076994
0.0266348
-0.00104439
0.0240664
0.0101934
0.017485
0.0253179
0.00751752
0.0394265
-0.00685797
0.0535894
-0.0236311
0.0613311
-0.0397833
0.0588266
-0.0509094
0.0410802
-0.052466
0.00782349
-0.0422699
-0.0322155
-0.0222419
-0.0644923
0.00186461
-0.0762742
0.0244833
-0.0701414
0.0414176
-0.0512994
0.0527594
-0.0340278
0.067424
-0.0502302
0.0913247
-0.0861282
0.12798
-0.139654
0.166006
-0.152996
0.173288
-0.0488076
0.149966
0.0431465
0.114525
0.096626
0.06952
0.152455
0.0137155
0.211775
-0.0376365
0.20324
-0.0719095
0.151449
-0.0683684
0.0283789
-0.0264584
-0.112966
0.0460258
-0.209898
0.0925314
-0.173911
0.200016
-0.363928
0.255619
-0.170963
0.21481
0.170024
0.165788
0.161501
0.426256
-0.886088
0.0689146
1.51811
-0.405603
1.56802
0.217291
-2.41793
0.252371
-0.0273043
0.09676
0.568346
0.0264325
0.154399
-0.0973084
0.459715
-0.00970838
-0.298597
-0.0305903
0.0732034
-0.0317354
0.0670911
0.0795015
-0.294569
0.334728
-0.895728
0.503268
-0.748136
0.368511
0.18136
0.0538657
0.953921
-0.2745
1.19054
-0.592497
1.33756
-0.643852
0.550911
-0.27631
-1.15679
-0.0370885
-0.905914
-0.224425
0.704082
-0.526087
1.0525
-0.511473
-0.258945
0.0285297
-2.14251
-1.13069
0.00731471
0.00162417
0.00085847
0.00732779
-0.000855419
-0.00653017
-0.00366072
-0.0154954
-0.00333985
-0.0125731
0.000108795
-0.00229939
0.00361961
0.00529011
0.00322898
0.0052957
-0.00175268
-0.00015195
-0.00690541
-0.00855844
-0.00659533
-0.018052
0.000526702
-0.0218626
0.00943119
-0.00914147
0.0117755
0.0185211
0.000562522
0.0351914
-0.0234072
0.0131651
-0.0431985
-0.0348186
-0.0283672
-0.0560512
0.0355447
-0.0224314
0.107863
0.0261489
0.106413
0.0487217
0.00673143
0.0447959
-0.136043
0.0121962
-0.300423
-0.0220154
-0.427154
-0.114959
-0.442731
-0.0384495
-0.0158797
0.0853709
0.34617
0.0675265
0.272229
0.00126497
0.0544022
-0.0340862
-0.107153
-0.020753
-0.089031
0.00991377
0.0666826
0.0307233
0.0303278
0.011283
0.0267067
-0.00773734
-0.0155479
-0.00709361
-0.0248683
0.00572829
0.00128107
0.0122269
0.0209856
0.00734773
0.0110307
-0.000498909
-0.00984611
-0.00142538
-0.0162808
0.00367419
-0.00521227
0.0078517
0.00544229
0.00738169
0.00314152
0.00483985
-0.00633473
0.00429572
-0.0105219
0.00632869
-0.00626033
0.00850672
-0.000390952
0.00904839
0.000390534
0.0086127
-0.00318696
0.00885592
-0.00614925
0.0103773
-0.00604885
0.0124869
-0.00480116
0.0144924
-0.0053041
0.01657
-0.00781159
0.0192731
-0.0105528
0.0226974
-0.012471
0.0263854
-0.0132308
0.0294883
-0.0131245
0.0313475
-0.0096798
0.0311719
-0.000858013
0.0279123
0.0137306
0.0204257
0.0331703
0.00806172
0.0518768
-0.0088731
0.0703337
-0.028489
0.0805121
-0.047283
0.0771379
-0.0601794
0.0537287
-0.061886
0.0098201
-0.0496871
-0.043451
-0.0254503
-0.0874229
0.00434623
-0.104958
0.0331014
-0.0982263
0.0553772
-0.0736368
0.070377
-0.0492302
0.0882049
-0.0680778
0.115502
-0.112591
0.156351
-0.17935
0.197826
-0.193556
0.202919
-0.0555071
0.172321
0.0704757
0.12879
0.136571
0.0759228
0.203418
0.0113681
0.27674
-0.0482117
0.264673
-0.0870789
0.193132
-0.0795228
0.0243254
-0.0258879
-0.163918
0.0643358
-0.295903
0.114492
-0.222636
0.239527
-0.484099
0.311055
-0.238872
0.281507
0.197301
0.181575
0.271904
0.481155
-1.18246
0.160131
1.82984
-0.42301
2.1474
0.247516
-3.0752
0.312272
-0.0850707
0.124221
0.744695
0.0251964
0.250966
-0.11986
0.603462
-0.0194728
-0.396386
-0.0390254
0.0916846
-0.021544
0.0469594
0.132792
-0.457538
0.430832
-1.19033
0.578879
-0.891716
0.360996
0.398144
-0.019335
1.33173
-0.378402
1.54699
-0.711428
1.69981
-0.69779
0.538612
-0.236044
-1.61614
0.0263412
-1.16632
-0.20675
0.937452
-0.577299
1.42112
-0.595343
-0.23916
0.0097965
-2.74734
-1.49845
0.00560668
0.00172306
0.00101575
0.00502442
-0.000523145
-0.00696944
-0.00294215
-0.0133822
-0.00215099
-0.00988644
0.000972638
-0.00173029
0.00328727
0.00334368
0.0022328
0.0032052
-0.00180969
3.93426e-05
-0.00541716
-0.00608722
-0.00479559
-0.0159035
0.000939039
-0.0230481
0.00819874
-0.0147971
0.010192
0.0103775
6.29997e-05
0.0298126
-0.0223667
0.016686
-0.0417412
-0.0216798
-0.0301794
-0.0436059
0.0240406
-0.0261572
0.0829247
0.00522409
0.0772661
0.0233821
-0.0112453
0.0178597
-0.134622
-0.00858168
-0.235011
-0.0260263
-0.237979
-0.0580855
-0.134021
0.0107843
0.167927
0.0820436
0.323195
0.0440062
0.165526
-0.019713
-0.0429571
-0.0368184
-0.132641
-0.0163118
-0.102737
0.0205796
0.04519
0.0319664
0.0554448
0.00808887
0.0149662
-0.00897971
-0.02159
-0.00526188
-0.0213431
0.00804525
0.00591497
0.0130064
0.0205934
0.00710284
0.0078622
-0.000426087
-0.0125087
-0.000418137
-0.0163375
0.00508174
-0.00422619
0.00901173
0.00518603
0.00826778
0.00140757
0.00583676
-0.00822833
0.00565646
-0.0115248
0.00797643
-0.00650143
0.010232
-0.000626719
0.0107702
-0.000297339
0.0104207
-0.00417439
0.0108765
-0.00711752
0.0126636
-0.0070142
0.0150255
-0.00609489
0.0172795
-0.0072178
0.0196547
-0.0103565
0.0227274
-0.0135806
0.0265578
-0.0158164
0.030626
-0.0167514
0.0340043
-0.0162905
0.0359497
-0.0116948
0.0355481
-0.000439284
0.0316082
0.0178813
0.0228385
0.0421393
0.00857962
0.0660844
-0.0108262
0.0894051
-0.0332457
0.102419
-0.0547534
0.0981713
-0.0696426
0.0684597
-0.0718285
0.0124407
-0.0579069
-0.05624
-0.0294539
-0.11441
0.0064902
-0.139663
0.0421858
-0.13323
0.0709977
-0.102731
0.0905562
-0.0689771
0.111785
-0.0892906
0.141882
-0.141701
0.185662
-0.221714
0.229112
-0.23578
0.230919
-0.0588372
0.192745
0.105265
0.141295
0.184334
0.0812339
0.261469
0.00874592
0.349467
-0.0586117
0.33379
-0.101581
0.238922
-0.0892235
0.0157108
-0.0230383
-0.226977
0.0851466
-0.399297
0.137415
-0.273386
0.277844
-0.619114
0.365526
-0.322493
0.365717
0.194765
0.191282
0.456735
0.500488
-1.48792
0.276462
2.04483
-0.405386
2.82506
0.27717
-3.74456
0.380949
-0.18126
0.123944
0.989416
0.0244198
0.353672
-0.144369
0.770883
-0.0349842
-0.502836
-0.0476347
0.103199
-0.00170083
-0.00151608
0.201613
-0.658356
0.534345
-1.51888
0.638521
-0.991357
0.326162
0.708505
-0.100444
1.75528
-0.473149
1.91533
-0.813687
1.99593
-0.72598
0.45024
-0.161448
-2.17684
0.117111
-1.44247
-0.172615
1.22694
-0.622121
1.86796
-0.681555
-0.1786
-0.0139219
-3.4144
-1.9201
0.00364415
0.00174598
0.00141529
0.00264242
-6.18957e-05
-0.00722543
-0.00201257
-0.0115251
-0.00111073
-0.00797811
0.00143557
-0.00181572
0.0028058
0.00148988
0.00155556
0.00184977
-0.00137498
0.00102668
-0.0037011
-0.00306697
-0.0032592
-0.0132277
0.000673294
-0.0236584
0.00627194
-0.020339
0.00879342
0.00153271
0.00188343
0.023555
-0.0165044
0.0201597
-0.0352839
-0.00803401
-0.0317854
-0.0316535
0.00480417
-0.0316806
0.0476454
-0.0181565
0.049673
-0.00440527
0.00114314
-0.00294662
-0.0631801
-0.0104834
-0.0914483
-0.00924539
-0.0399003
-0.0106573
0.0662351
0.0356646
0.217442
0.0626168
0.220152
0.0161461
0.039003
-0.0345681
-0.113943
-0.0362522
-0.125448
-0.000259931
-0.0408968
0.0286198
0.0611271
0.0254836
0.0548227
0.00409582
-0.0055972
-0.00955391
-0.0320343
-0.00293264
-0.0169007
0.0102831
0.0102987
0.0134901
0.0187256
0.0066537
0.00498614
-0.000276118
-0.014536
0.000749581
-0.0158101
0.00652324
-0.00325
0.0100807
0.00443329
0.00906811
-0.00080977
0.00683808
-0.0102911
0.00708738
-0.0125059
0.00969269
-0.00679796
0.0119951
-0.00108258
0.0125206
-0.00125619
0.0122762
-0.00535423
0.0129632
-0.0081953
0.0150125
-0.00810015
0.017603
-0.00759094
0.0200752
-0.00940996
0.0227141
-0.0132129
0.0261142
-0.0169167
0.0302968
-0.0194464
0.0346851
-0.0205327
0.0382943
-0.019626
0.0403103
-0.0137289
0.0397086
0.000193768
0.0351626
0.0225836
0.0252395
0.0521298
0.00923207
0.0819173
-0.0124922
0.110696
-0.0376639
0.127064
-0.0620248
0.12213
-0.079285
0.0856965
-0.0824929
0.0162369
-0.0673596
-0.070098
-0.0348819
-0.145311
0.00753571
-0.180767
0.0514384
-0.176351
0.0879887
-0.138531
0.113066
-0.0942
0.138023
-0.114234
0.170185
-0.172762
0.215293
-0.26518
0.258927
-0.277884
0.256374
-0.0576654
0.210801
0.147454
0.152034
0.239448
0.0858085
0.32569
0.00647397
0.428948
-0.0681654
0.410133
-0.114704
0.288315
-0.0969329
0.00192187
-0.0177711
-0.302562
0.107656
-0.519399
0.161811
-0.326012
0.314507
-0.765937
0.41398
-0.417551
0.467667
0.138752
0.19903
0.73514
0.469897
-1.75378
0.411653
2.09559
-0.342384
3.57672
0.306566
-4.38154
0.456132
-0.322245
0.230565
1.20689
0.0264054
0.554224
-0.170289
0.966223
-0.057162
-0.612743
-0.0555496
0.100461
0.0275372
-0.0870328
0.283969
-0.915796
0.641349
-1.87153
0.675137
-1.02094
0.256238
1.12421
-0.173934
2.18215
-0.541008
2.27829
-0.909596
2.4204
-0.732196
0.276483
-0.0605379
-2.84495
0.21948
-1.72033
-0.139686
1.58584
-0.669727
2.39527
-0.773148
-0.0737151
-0.0437886
-4.1431
-2.39758
0.00159055
0.00149866
0.00187515
0.000303712
0.000191074
-0.00734393
-0.00118712
-0.00996649
-0.00031037
-0.00673986
0.00163324
-0.00235498
0.00237447
-0.000231063
0.00123112
0.000902885
-0.000752855
0.00216784
-0.00228949
-0.000182304
-0.00233505
-0.0103572
-1.38552e-05
-0.0232541
0.00452641
-0.0244486
0.00838192
-0.00648991
0.00552175
0.0168096
-0.00831391
0.0218708
-0.0268498
0.0031178
-0.032551
-0.0215057
-0.0136105
-0.0355561
0.016997
-0.0355503
0.0331494
-0.023732
0.0286786
-0.0119742
0.0197381
-0.0014179
0.033992
0.0108391
0.0827051
0.0169063
0.134324
0.0371161
0.162566
0.0345738
0.086076
-0.00883388
-0.0643475
-0.0400155
-0.140501
-0.0277809
-0.092011
0.0128848
0.0101921
0.029925
0.0680606
0.0199641
0.0447184
-0.000358409
-0.012516
-0.00859488
-0.0345803
-9.5693e-05
-0.00905501
0.0122193
0.0159197
0.0136893
0.0155654
0.00595429
0.00339993
-4.68782e-05
-0.0156249
0.00204083
-0.014643
0.00792289
-0.00238716
0.0109875
0.00309903
0.00974117
-0.00349985
0.00782102
-0.01247
0.00856294
-0.013448
0.01144
-0.00718653
0.0137516
-0.00180636
0.014255
-0.00250302
0.0141341
-0.00671098
0.0150635
-0.00935962
0.0173567
-0.00929273
0.0201364
-0.00927542
0.0227825
-0.0118476
0.0256395
-0.0163213
0.0293139
-0.0204903
0.0337881
-0.023298
0.0384395
-0.0245241
0.0422536
-0.0231143
0.0443621
-0.0158019
0.0436433
0.000969858
0.0386405
0.0277052
0.0277666
0.0629806
0.0102261
0.0991829
-0.0136033
0.134051
-0.0414847
0.15448
-0.0689322
0.149319
-0.0891311
0.106055
-0.0941449
0.0219953
-0.0785695
-0.0842972
-0.0424907
-0.17977
0.00662857
-0.228557
0.0587506
-0.227793
0.105137
-0.188108
0.137371
-0.126832
0.16672
-0.143612
0.200146
-0.205026
0.244687
-0.307908
0.286428
-0.317812
0.27846
-0.0508122
0.226276
0.196348
0.1612
0.301074
0.0901262
0.394904
0.00516002
0.51408
-0.076272
0.493238
-0.12583
0.340789
-0.102252
-0.017491
-0.0101656
-0.390604
0.130804
-0.65458
0.189114
-0.382851
0.350273
-0.920876
0.451294
-0.51399
0.583724
0.00407955
0.211857
1.1155
0.38401
-1.92024
0.561192
1.91114
-0.224774
4.35466
0.334941
-4.93185
0.538616
-0.516222
0.282084
1.45296
0.0334878
0.80053
-0.196962
1.19543
-0.0856852
-0.720603
-0.0612863
0.075018
0.0696691
-0.220189
0.379299
-1.22545
0.747194
-2.23391
0.686772
-0.956939
0.171662
1.63528
-0.219641
2.57017
-0.563554
2.62393
-0.964927
2.75907
-0.730809
0.0374827
0.0463204
-3.61778
0.298983
-1.97079
-0.148917
2.03337
-0.742295
2.98568
-0.874822
0.060107
-0.0819374
-4.93534
-2.93448
-0.00038009
0.00107179
0.002337
-0.00176628
0.000256749
-0.00730895
-0.000532552
-0.00868738
0.000266643
-0.00598346
0.00168504
-0.00309001
0.00206647
-0.00178065
0.00116205
2.22514e-05
-0.000161827
0.00288282
-0.00133051
0.00207244
-0.00190505
-0.00745583
-0.000769446
-0.0215572
0.00315015
-0.0264474
0.00836252
-0.0129892
0.00924223
0.00958689
-0.000140398
0.020763
-0.0176087
0.0105571
-0.0301162
-0.0125251
-0.0249308
-0.0342231
-0.003687
-0.0418937
0.0222136
-0.030802
0.0459755
-0.0117446
0.0666197
0.00814442
0.0890303
0.0213005
0.107172
0.0220144
0.100952
0.0213782
0.0608731
0.00556442
-0.02778
-0.0250626
-0.117454
-0.0359107
-0.123941
-0.0144789
-0.0453736
0.021303
0.0430032
0.0276553
0.061583
0.0126899
0.0220524
-0.00470652
-0.0252689
-0.00659276
-0.0319852
0.00328904
-0.00112096
0.0133857
0.0257961
0.0136891
0.0123931
0.0048845
0.00454261
0.000244071
-0.0156283
0.00338455
-0.0128984
0.00917755
-0.00179913
0.0116501
0.00111738
0.0102443
-0.00660709
0.00875932
-0.0146936
0.0100478
-0.0143445
0.0131686
-0.00771599
0.015447
-0.00284224
0.0159213
-0.00403991
0.0159412
-0.00821597
0.0171138
-0.0105802
0.0196172
-0.0105709
0.0225311
-0.0111224
0.0252952
-0.014483
0.0283165
-0.0196118
0.0322075
-0.0242288
0.0369139
-0.0273163
0.0417864
-0.0286967
0.0458111
-0.026772
0.0480851
-0.017982
0.0474005
0.00175327
0.0421685
0.0330388
0.0306283
0.0744316
0.0118075
0.11769
-0.0138641
0.159265
-0.0444401
0.184735
-0.0753212
0.180162
-0.0992432
0.130363