/*--------------------------------*- C++ -*----------------------------------*\
| =========                 |                                                 |
| \\      /  F ield         | OpenFOAM: The Open Source CFD Toolbox           |
|  \\    /   O peration     | Version:  2412                                  |
|   \\  /    A nd           | Website:  www.openfoam.com                      |
|    \\/     M anipulation  |                                                 |
\*---------------------------------------------------------------------------*/
FoamFile
{
    version     2.0;
    format      ascii;
    arch        "LSB;label=32;scalar=64";
    class       volVectorField;
    location    "1";
    object      ddtCorrDdt0(U);
}
// * * * * * * * * * * * * * * * * * * * * * * * * * * * * * * * * * * * * * //

dimensions      [0 1 -2 0 0 0 0];

internalField   nonuniform List<vector> 
12600
(
(3.57314 0 -3.11001)
(2.49299 -2.86821e-17 -0.149256)
(7.27058 -3.23738e-17 3.19289)
(0.14162 0 1.69331)
(-13.139 6.78475e-18 -4.37082)
(-12.7883 0 -7.19833)
(7.98024 -1.72568e-17 -0.526895)
(25.9855 0 8.08399)
(16.5046 0 4.50268)
(-24.1211 0 -18.1021)
(-37.1205 0 -14.979)
(-3.07842 -2.30898e-16 6.03285)
(33.4957 -3.08957e-17 19.045)
(31.8584 0 10.5297)
(-1.27092 -4.86337e-16 -7.60482)
(-27.7723 0 -17.1518)
(-30.1203 -1.01864e-17 -15.949)
(-20.8286 0 -6.19084)
(6.34026 -3.10566e-17 25)
(82.0299 0 72.423)
(166.833 0 38.6605)
(10.8007 0 -176.951)
(-359.973 9.90299e-16 -307.127)
(-419.039 -4.01763e-15 -10.397)
(138.393 -4.57274e-16 392.391)
(472.363 4.11059e-16 309.787)
(189.882 0 47.842)
(-71.3091 0 -77.0811)
(-35.153 0 -15.5329)
(29.3468 -1.8537e-16 23.544)
(8.69176 6.60585e-16 0.561311)
(-27.028 0 -20.0962)
(-15.4589 0 -6.70537)
(14.777 -2.47947e-16 12.6092)
(18.7715 -2.86107e-17 11.1166)
(-1.38058 0 -3.39183)
(-13.1449 0 -9.03356)
(-4.44327 -1.31514e-16 -1.26455)
(6.86425 0 5.06416)
(5.73285 1.37064e-17 2.76378)
(-2.21566 1.20712e-16 -1.86224)
(-4.84058 6.44431e-17 -2.10096)
(-1.15195 0 0.3389)
(2.18052 -6.5842e-17 1.59554)
(1.46314 1.93111e-19 0.812896)
(-1.0016 -8.85046e-17 -0.268305)
(-1.80178 5.21715e-17 -0.315217)
(-0.686743 0 0.261213)
(0.396054 5.10813e-17 0.55502)
(0.288262 -4.12079e-18 0.34096)
(-0.415319 0 0.0243747)
(-0.667064 6.83026e-19 -0.0322587)
(-0.27013 4.5789e-18 0.116968)
(0.218328 0 0.191591)
(0.306385 -3.5995e-17 -0.000210539)
(0.161254 0 -0.261355)
(0.248875 0 -0.297598)
(0.515734 -8.88979e-20 -0.288555)
(0.723613 -1.4016e-19 -0.362324)
(0.815641 3.66173e-17 -0.445441)
(0.803233 -4.27524e-17 -0.545842)
(0.784775 5.14233e-17 -0.581187)
(0.762663 0 -0.509078)
(0.632525 -5.87496e-17 -0.332137)
(0.30786 -9.08725e-17 -0.0714253)
(-0.209179 1.85321e-16 0.252975)
(-0.852331 -5.84394e-17 0.607402)
(-1.48243 0 0.915757)
(-1.885 0 1.05888)
(-1.88337 0 0.960904)
(-1.45378 0 0.65996)
(-0.801814 0 0.33283)
(-0.15016 -7.43628e-17 0.188517)
(0.21445 7.10697e-17 -0.0387439)
(0.247443 0 -0.135957)
(0.238347 0 -0.303639)
(0.609608 1.78023e-16 -0.609609)
(1.58001 -1.13351e-18 -1.10416)
(3.24487 -3.16599e-16 -1.82611)
(4.65715 0 -2.44333)
(4.74019 0 -2.41417)
(4.17587 0 -2.24649)
(3.35189 1.46188e-18 -1.90527)
(2.14833 0 -0.996716)
(0.6628 0 -0.240698)
(-0.275959 9.84465e-16 0.276387)
(-1.20139 -1.22588e-18 0.859397)
(-0.915801 0 0.584595)
(-0.568221 0 0.373239)
(0.783809 -6.90365e-16 -0.463275)
(1.53606 -6.10667e-16 -0.89566)
(5.40341 -3.94968e-16 -2.95563)
(4.06498 -5.72326e-16 -2.46087)
(1.90326 -2.34373e-18 -1.07905)
(3.80566 -2.75673e-18 -1.76602)
(10.4776 3.06576e-16 -5.72204)
(-16.955 0 9.33803)
(-1.2855 0 0.141904)
(10.2457 0 -5.52109)
(-1.52772 -3.57971e-16 1.22878)
(4.32207 2.3715e-16 -2.56613)
(-2.28498 -2.2647e-16 1.13852)
(-0.561548 1.2961e-16 0.246097)
(0.471866 0 -0.151073)
(-0.693785 0 0.411258)
(-1.618 0 0.843902)
(-0.0267698 5.50221e-16 -0.0421342)
(5.0274 0 -2.84031)
(8.32598 4.66752e-16 -4.68832)
(7.79975 0 -4.34412)
(4.38077 0 -2.40588)
(-0.807946 1.32338e-16 0.344269)
(-7.98255 0 4.56408)
(-8.23558 0 4.6203)
(-1.09928 0 0.719921)
(-3.21216 1.16937e-16 1.94734)
(-7.90655 0 4.4278)
(-10.4322 -6.73031e-17 5.77116)
(-1.16248 0 0.61332)
(5.74719 1.37982e-19 -3.23993)
(-0.962875 -1.50917e-19 -5.77151)
(3.44152 2.06247e-17 -0.490119)
(7.11932 -9.73747e-19 5.34254)
(-4.59093 0 3.25496)
(-17.9105 -3.32219e-17 -3.1533)
(-10.0994 5.42053e-17 -5.37619)
(15.3669 1.80061e-17 -0.420163)
(25.0908 7.03224e-17 3.28396)
(0.213078 0 -1.17104)
(-31.9491 0 -16.7117)
(-20.4426 0 -7.22675)
(15.5561 0 11.68)
(32.1556 0 14.5314)
(13.6707 0 -0.905121)
(-15.0597 8.93062e-17 -13.1698)
(-24.5138 0 -8.56431)
(-17.5563 3.27711e-16 -4.0225)
(-6.97509 0 -7.72162)
(27.6203 1.81455e-16 19.3945)
(95.4554 -8.56864e-16 94.3326)
(96.1907 0 51.3174)
(-208.213 4.5615e-17 -387.053)
(-468.808 -6.53266e-16 -591.395)
(-170.016 2.00251e-15 87.2884)
(540.761 -1.88241e-15 951.669)
(569.736 0 632.521)
(93.4644 -7.16514e-16 44.9437)
(-123.615 0 -141.399)
(-15.7611 0 -23.182)
(39.6838 0 35.5139)
(-2.09072 -3.55993e-16 -2.37443)
(-32.7871 0 -29.297)
(-7.54959 0 -5.97994)
(22.7746 0 20.0561)
(17.7018 0 14.378)
(-6.59135 0 -6.81264)
(-14.2788 0 -12.8108)
(-1.30414 1.35304e-16 -0.764003)
(9.06497 0 7.58122)
(4.94319 -4.21938e-17 3.29078)
(-3.55377 -2.47853e-16 -3.25177)
(-4.7621 -4.77638e-17 -3.18357)
(-0.164602 0 0.523224)
(2.87019 0 2.21928)
(1.54194 -4.89294e-18 0.901495)
(-1.02161 9.03667e-17 -0.726742)
(-1.50421 -4.59653e-17 -0.762353)
(-0.157719 0 0.118218)
(0.881879 -5.03994e-17 0.546806)
(0.638455 0 0.207319)
(-0.0824556 0 -0.270767)
(-0.210693 3.3132e-17 -0.34649)
(0.33669 0 -0.12188)
(0.910066 0 -0.0505732)
(1.05057 3.63692e-17 -0.406094)
(1.06925 0 -0.839546)
(1.42184 0 -0.985218)
(1.93783 -2.33443e-19 -1.11787)
(2.41521 7.00438e-18 -1.3107)
(2.73579 2.12677e-19 -1.53725)
(2.85818 0 -1.74816)
(2.82406 -5.1002e-17 -1.77665)
(2.55751 6.73573e-18 -1.52989)
(1.8702 0 -0.987867)
(0.640511 1.80823e-16 -0.172304)
(-1.07151 -7.72497e-19 0.859085)
(-3.03684 0 1.97868)
(-4.83775 1.09379e-17 2.94038)
(-5.87009 0 3.39255)
(-5.69057 0 3.11577)
(-4.28427 0 2.1878)
(-2.24354 0 1.03698)
(-0.24849 1.40649e-16 0.243275)
(1.14238 -7.05564e-17 -0.513167)
(1.6369 0 -0.885544)
(2.08895 0 -1.3865)
(3.54403 1.72265e-16 -2.38224)
(6.45506 -1.55903e-18 -4.07114)
(11.0783 -1.25221e-18 -6.52006)
(14.8581 0 -8.3427)
(14.7164 0 -8.22787)
(12.9222 0 -7.27255)
(10.1274 3.37024e-18 -5.7935)
(5.93818 -2.90561e-16 -3.04617)
(1.00176 7.46134e-16 -0.272353)
(-2.28563 -9.51197e-16 1.52985)
(-5.12342 -4.29944e-18 3.18768)
(-3.66826 -6.97135e-16 2.1156)
(-2.12403 0 1.19418)
(3.0989 6.63561e-16 -1.86768)
(5.19905 0 -3.16747)
(17.6263 3.78702e-16 -10.0692)
(12.3619 0 -7.27049)
(7.84088 -1.10737e-15 -4.19757)
(13.2701 -3.4891e-16 -7.27006)
(32.6041 0 -17.8998)
(-52.3428 0 30.4586)
(-2.45964 -9.74725e-16 -0.254151)
(30.9532 7.9897e-17 -17.5266)
(-5.01567 3.43245e-16 3.57047)
(13.2902 -2.2523e-16 -7.8542)
(-7.29352 2.14895e-16 4.15686)
(-1.20142 0 0.561438)
(0.829774 -1.65291e-16 -0.354761)
(-2.39924 0 1.43467)
(-4.41761 0 2.47891)
(1.17135 -5.20872e-16 -0.874612)
(17.1253 0 -10.0207)
(26.088 1.01096e-18 -15.0978)
(22.5887 -4.9723e-16 -12.6642)
(10.6146 0 -5.94055)
(-5.36252 0 3.25477)
(-26.6059 0 15.5238)
(-27.4143 2.05161e-16 15.4758)
(-5.33537 -1.39291e-16 2.92986)
(-9.13396 -1.09931e-16 5.65131)
(-21.5859 0 12.7348)
(-30.6908 6.32146e-17 17.4839)
(-4.97615 0 2.30524)
(16.0554 1.84139e-16 -9.53759)
(-0.898611 3.33719e-19 -3.148)
(5.70503 1.14322e-17 0.808584)
(5.37466 6.34638e-17 4.10423)
(-7.11261 0 2.82894)
(-15.6502 -3.94417e-17 2.65603)
(-6.35721 -9.87709e-18 4.47359)
(11.3071 0 1.51069)
(14.1877 -6.67432e-17 -7.95219)
(-2.92632 0 -10.9315)
(-14.2191 3.23226e-17 2.95802)
(-5.23815 0 16.4775)
(9.31335 0 12.1274)
(9.65419 0 -9.88794)
(-1.51279 0 -25.9006)
(-7.32862 1.31076e-16 -14.4737)
(-1.78553 0 18.4024)
(0.687992 0 35.0334)
(-1.75607 0 14.1116)
(15.1642 -1.41568e-16 -15.9934)
(37.6896 2.06167e-16 -18.1399)
(-36.3976 0 -46.1809)
(-227.966 4.42721e-16 -252.125)
(-190.466 0 -271.165)
(170.509 -4.87918e-16 235.641)
(618.803 0 966.678)
(312.377 0 459.129)
(-85.6279 6.79636e-16 -82.4474)
(-109.412 0 -114.398)
(13.336 0 -6.80722)
(33.5973 8.90939e-17 22.0696)
(-8.37201 0 -5.65324)
(-22.9694 0 -14.8274)
(1.83023 0 2.89384)
(19.7576 0 12.9646)
(10.3226 -5.83446e-17 4.57998)
(-7.35144 0 -6.54405)
(-9.33854 0 -6.30677)
(1.32739 -1.6103e-16 1.11187)
(7.51256 0 4.26033)
(3.14268 6.95394e-17 0.6978)
(-3.02122 2.60976e-18 -2.58406)
(-3.3604 4.5219e-17 -2.02947)
(0.444623 0 0.159853)
(2.70573 0 0.87866)
(1.49773 4.44508e-18 -0.103479)
(-0.54556 0 -1.09046)
(-0.823184 4.34807e-17 -1.07821)
(0.385943 0 -0.538414)
(1.29111 1.09949e-18 -0.302482)
(1.1059 0 -0.536711)
(0.543545 0 -0.837839)
(0.518626 0 -0.886181)
(1.08926 -7.13364e-18 -0.768798)
(1.69617 0 -0.797067)
(1.99944 0 -1.11851)
(2.27259 0 -1.48577)
(2.79999 0 -1.78232)
(3.48517 -5.43303e-17 -2.1351)
(4.21461 0 -2.41224)
(4.73002 5.03998e-20 -2.72423)
(4.98083 0 -2.92287)
(4.90689 2.38808e-17 -2.84078)
(4.34055 -6.35092e-18 -2.37216)
(3.0384 0 -1.46296)
(0.874844 -1.68957e-16 -0.111897)
(-2.02004 -8.60673e-17 1.5843)
(-5.2397 0 3.38299)
(-8.09398 -1.03009e-17 4.87465)
(-9.60946 0 5.524)
(-9.10641 0 5.01969)
(-6.62065 0 3.47664)
(-3.14696 0 1.48871)
(0.117389 -5.28757e-18 -0.19628)
(2.58164 6.63527e-17 -1.52527)
(3.63523 0 -2.21027)
(4.63389 0 -3.0395)
(7.20771 -1.71302e-18 -4.74029)
(11.9533 -6.13621e-17 -7.63259)
(19.2248 1.46942e-16 -11.7067)
(24.9763 0 -14.3926)
(24.2043 0 -13.8983)
(20.862 0 -11.7784)
(15.9624 4.45898e-16 -8.80285)
(8.83099 1.15005e-18 -4.38333)
(0.678095 -6.99933e-16 0.426926)
(-4.85193 0 3.4605)
(-9.29352 -8.7765e-16 5.81383)
(-6.25151 6.53564e-16 3.6277)
(-3.12808 0 1.66439)
(6.46701 0 -4.0022)
(9.12782 5.3957e-16 -5.8098)
(30.5249 0 -17.6874)
(19.8619 5.08293e-16 -11.2044)
(14.9066 5.27283e-18 -8.20539)
(23.4479 3.17609e-16 -14.0042)
(55.7936 -2.62162e-16 -29.1622)
(-84.9181 0 50.3279)
(-3.87279 9.12182e-16 -1.94633)
(50.2344 -7.47593e-17 -28.3457)
(-7.23783 -3.24522e-16 5.21701)
(21.4689 0 -12.3859)
(-12.6378 1.98002e-16 7.7232)
(-1.43915 0 0.456366)
(0.841075 1.54559e-16 -0.31357)
(-4.1303 -3.2499e-17 2.53471)
(-6.52139 0 3.50479)
(3.68862 4.86884e-16 -3.01029)
(30.1783 0 -18.168)
(42.823 -8.26007e-16 -24.758)
(34.1541 4.64644e-16 -18.4796)
(12.8853 0 -6.43102)
(-13.2829 0 8.80296)
(-45.6654 0 27.285)
(-45.5101 -4.47966e-20 25.4039)
(-9.35463 1.30109e-16 4.88871)
(-13.6335 1.04051e-16 8.51247)
(-31.9593 0 18.8844)
(-48.2186 5.61504e-17 27.1043)
(-9.73312 0 4.11922)
(24.4015 3.35322e-19 -14.5236)
(1.50108 -1.80427e-19 0.264723)
(8.25563 -1.08148e-19 2.78918)
(4.67174 -2.8944e-17 3.6611)
(-8.48111 -2.02459e-18 2.01277)
(-15.683 -3.11952e-17 2.2853)
(-7.25872 -6.96715e-17 4.79514)
(7.51939 0 3.23884)
(11.273 0 -4.12163)
(0.308869 0 -8.14018)
(-7.64948 -3.0618e-17 2.1896)
(-4.54458 0 13.7639)
(0.770823 0 10.4323)
(-0.602173 0 -8.66771)
(-2.63371 0 -23.4887)
(3.14568 0 -14.3755)
(11.0441 -1.00801e-16 16.5708)
(6.05769 1.38577e-16 39.6584)
(-6.90194 0 28.3141)
(-7.68653 0 -17.764)
(-14.6026 5.74875e-16 -76.0379)
(-71.7872 -1.05554e-17 -104.122)
(-73.1933 -4.6034e-16 -25.8174)
(93.1923 4.87078e-16 114.686)
(299.132 4.61938e-16 232.91)
(305.478 1.06391e-15 416.247)
(-52.167 -7.76647e-16 84.4269)
(-218.009 0 -215.166)
(-60.9281 -4.29856e-16 -70.0878)
(40.6551 0 10.7747)
(32.5639 -8.43301e-17 20.8217)
(-11.454 0 -4.83391)
(-18.4914 0 -9.98923)
(5.83556 0 4.20348)
(18.3638 -1.43879e-16 9.83983)
(7.36086 5.51923e-17 1.9038)
(-7.43029 0 -5.93935)
(-7.17095 0 -4.53096)
(2.59623 1.52273e-16 1.15688)
(7.10812 0 3.01096)
(2.70323 8.58809e-18 0.185283)
(-2.62195 1.08512e-16 -2.29366)
(-2.56727 0 -1.86751)
(1.00825 0 -0.211199)
(2.97286 0 0.262684)
(1.78784 0 -0.596194)
(-0.035802 8.01434e-17 -1.42743)
(-0.170839 0 -1.43192)
(1.03591 3.48021e-17 -0.99588)
(1.90081 4.39564e-17 -0.813257)
(1.73542 0 -1.0295)
(1.24723 0 -1.30843)
(1.29661 0 -1.38661)
(1.92209 6.73028e-18 -1.33858)
(2.60221 -2.50467e-17 -1.42048)
(3.04458 -2.76805e-17 -1.75719)
(3.48368 0 -2.19527)
(4.16835 3.87167e-17 -2.64575)
(5.04489 5.01824e-17 -3.14414)
(5.97131 0 -3.54542)
(6.65401 -6.56975e-17 -3.90979)
(6.9893 0 -4.07005)
(6.83358 -2.09378e-17 -3.84172)
(5.94146 7.86264e-18 -3.10202)
(4.02528 0 -1.77847)
(0.962929 7.89597e-17 0.129532)
(-3.0405 7.68159e-17 2.47143)
(-7.3932 0 4.88125)
(-11.1537 0 6.7915)
(-13.0274 0 7.50318)
(-12.1353 1.15211e-16 6.64513)
(-8.55676 1.06955e-16 4.41219)
(-3.61302 0 1.60823)
(1.00682 -5.46304e-17 -0.917215)
(4.59253 -5.6664e-17 -2.87158)
(6.31529 0 -3.87155)
(7.88433 0 -5.07343)
(11.5341 -1.50388e-16 -7.50075)
(17.9501 2.66722e-19 -11.5198)
(27.5303 0 -16.971)
(34.7825 0 -20.2586)
(33.0869 0 -18.9636)
(27.8085 0 -15.6091)
(20.7196 -5.6974e-18 -11.1202)
(10.9659 2.5454e-16 -4.93628)
(-0.288578 0 1.51742)
(-7.88163 0 5.58619)
(-13.5763 0 8.39668)
(-8.58103 5.96335e-16 4.82793)
(-3.55068 0 1.61712)
(10.8756 5.63498e-16 -6.82671)
(13.0776 -5.05281e-16 -8.67728)
(44.0042 3.19162e-16 -25.6841)
(26.697 -4.7584e-16 -14.8858)
(23.0827 9.49195e-16 -12.7235)
(32.8933 -2.97239e-16 -20.6929)
(80.9232 2.45311e-16 -40.9264)
(-112.86 0 68.2856)
(-5.78525 0 -4.48397)
(67.6148 -6.47154e-17 -38.2228)
(-7.79552 1.52503e-16 6.43801)
(28.569 1.93841e-16 -16.3976)
(-18.3344 -1.57851e-18 11.5537)
(-1.34654 0 0.0973346)
(0.500635 0 -0.0637774)
(-5.75712 3.0377e-17 3.59673)
(-7.52345 0 3.97142)
(8.03178 -4.58692e-16 -6.32483)
(44.0616 0 -26.9692)
(57.7128 -7.57635e-19 -33.4281)
(41.176 0 -22.123)
(10.5058 1.8988e-16 -4.2384)
(-24.8382 1.09949e-16 16.2318)
(-64.6158 1.62418e-16 38.7213)
(-60.6072 -2.26266e-19 33.2679)
(-11.7416 0 5.49879)
(-16.431 -9.71708e-17 10.694)
(-39.0233 -4.52895e-18 23.7711)
(-62.6915 -5.24312e-17 35.2134)
(-15.2078 0 5.80578)
(30.7446 5.09631e-19 -18.8724)
(3.31441 0 2.3818)
(9.02298 -2.87176e-19 3.37039)
(3.58249 0 2.68159)
(-9.15202 1.9129e-18 0.800885)
(-14.9505 6.4734e-17 1.20451)
(-7.49506 2.86629e-17 3.91988)
(5.00226 0 4.02078)
(9.54776 0 -0.32177)
(3.05736 1.92795e-17 -3.80177)
(-4.46877 -2.54916e-17 0.764906)
(-7.20135 4.56581e-17 7.15933)
(-7.13911 3.3587e-17 5.84476)
(-5.49809 -5.95071e-17 -4.32521)
(2.30864 0 -12.2998)
(14.6769 0 -7.19402)
(17.2652 1.47955e-16 9.88568)
(-0.829229 -6.31605e-17 23.5901)
(-23.184 0 18.7892)
(-23.6806 1.9783e-17 -9.42614)
(-15.3995 1.32217e-17 -50.6449)
(-25.3578 9.96273e-18 -59.2784)
(23.9368 0 46.2911)
(155.807 -4.6038e-16 174.046)
(199.02 -6.43777e-16 117.718)
(-34.0591 -1.00567e-15 -87.8672)
(-232.245 3.03679e-16 -150.545)
(-178.748 0 -164.213)
(22.1102 -8.92257e-17 -3.3277)
(62.2498 0 32.2836)
(28.4431 -2.74346e-16 18.6518)
(-15.2433 0 -5.26844)
(-15.815 0 -8.07024)
(8.21748 0 3.79253)
(17.1841 1.35894e-16 7.69314)
(5.22856 0 0.390006)
(-7.37526 0 -5.51046)
(-5.49234 0 -3.49921)
(3.63396 0 1.19723)
(6.86168 -9.43058e-17 2.17466)
(2.35291 -9.47881e-17 -0.291483)
(-2.35098 0 -2.28186)
(-1.88421 -1.98117e-17 -1.83402)
(1.57774 0 -0.477437)
(3.28491 0 -0.215503)
(2.07245 0 -1.06362)
(0.422296 -1.37765e-18 -1.80722)
(0.436373 0 -1.79305)
(1.66479 -3.28148e-17 -1.40813)
(2.49255 0 -1.27727)
(2.33081 0 -1.51267)
(1.90496 3.44481e-17 -1.79841)
(2.0335 0 -1.90582)
(2.72658 0 -1.91545)
(3.48375 5.41457e-19 -2.05558)
(4.04908 2.60717e-17 -2.43381)
(4.63727 0 -2.95011)
(5.48008 -2.99702e-19 -3.51959)
(6.54299 -4.56952e-17 -4.11871)
(7.63138 0 -4.63115)
(8.44146 3.0859e-17 -5.03066)
(8.81877 0 -5.12837)
(8.54752 1.96972e-17 -4.72101)
(7.31738 -7.39553e-18 -3.67405)
(4.80409 0 -1.90864)
(0.897619 -6.91855e-17 0.556379)
(-4.11799 -3.5798e-18 3.50468)
(-9.4704 0 6.44244)
(-13.9962 0 8.65377)
(-16.1283 0 9.30065)
(-14.819 -2.1286e-16 7.98282)
(-10.1776 -4.30808e-18 4.99395)
(-3.78485 0 1.33607)
(2.28911 4.03214e-17 -1.9498)
(7.06434 1.01684e-16 -4.56241)
(9.55388 0 -5.912)
(11.7112 0 -7.51321)
(16.3518 0 -10.6576)
(24.197 -2.60295e-20 -15.7023)
(35.6747 0 -22.2626)
(44.0103 0 -25.7433)
(41.079 0 -23.3672)
(33.6826 0 -18.6047)
(24.4364 -1.88697e-16 -12.6486)
(12.3146 2.32145e-16 -4.88236)
(-1.69594 0 3.05009)
(-11.0896 0 7.94752)
(-17.752 0 10.9078)
(-10.5319 -1.31426e-17 5.67359)
(-3.40864 0 1.01823)
(16.1139 -5.27516e-16 -10.2968)
(16.678 0 -11.6256)
(57.751 -2.98697e-16 -33.8888)
(33.3816 0 -18.1858)
(32.2502 -4.40466e-16 -17.7673)
(39.3841 0 -26.3037)
(108.859 0 -53.2355)
(-134.457 0 83.3306)
(-8.49086 0 -7.77836)
(83.0309 6.05112e-17 -46.9826)
(-6.76037 0 6.70595)
(34.5993 -1.8121e-16 -19.5786)
(-24.1452 -1.71578e-16 15.6234)
(-1.17231 0 -0.472162)
(-0.183994 0 0.449787)
(-7.16819 0 4.55673)
(-7.37698 0 3.38016)
(14.2514 -2.20341e-18 -11.1431)
(58.3812 0 -36.1698)
(70.1129 7.23747e-16 -40.3664)
(43.5053 0 -22.319)
(3.98622 -3.54289e-16 0.997493)
(-38.6356 -1.0269e-16 26.2751)
(-82.0842 -1.51685e-16 49.4266)
(-71.106 -1.66915e-16 38.1736)
(-11.3034 0 4.38102)
(-17.5077 0 11.8206)
(-43.5557 9.04538e-18 27.0695)
(-74.4766 -4.76722e-17 41.4821)
(-21.0089 2.41315e-16 7.32935)
(35.5253 -7.57027e-17 -22.3505)
(3.93975 0 2.89355)
(8.22714 -1.80691e-17 2.78972)
(2.09365 0 1.42712)
(-9.18571 0 -0.159088)
(-13.2103 0 0.533932)
(-6.37907 0 3.29181)
(3.91576 0 4.32225)
(7.85377 -3.13643e-17 1.72716)
(3.27564 -1.81922e-17 -1.44173)
(-3.93282 4.41471e-17 -0.557535)
(-9.05607 -7.77404e-17 2.85337)
(-10.6932 -3.17024e-17 3.81579)
(-6.43366 5.61698e-17 0.49868)
(6.23515 0 -3.27487)
(19.6751 0 -3.16611)
(16.5221 -6.15172e-17 1.40309)
(-8.84424 -8.76263e-17 7.10481)
(-32.2481 0 10.3133)
(-24.6272 -1.8673e-17 5.50894)
(2.21189 -1.24803e-17 -9.52738)
(19.0344 0 -12.0578)
(56.7398 2.01347e-17 43.4599)
(106.204 0 89.5807)
(68.7147 -1.19193e-16 -3.86288)
(-138.142 7.11054e-16 -192.683)
(-220.218 3.3371e-16 -167.783)
(-60.4437 0 -24.4403)
(65.1886 4.67474e-16 42.0884)
(68.5079 -1.73088e-16 46.8585)
(15.2599 6.1142e-16 8.44856)
(-20.72 3.13492e-16 -9.33355)
(-13.8986 0 -7.69139)
(9.84438 -1.93399e-16 2.54392)
(16.2185 0 6.214)
(3.32897 0 -0.759162)
(-7.35834 0 -5.36358)
(-4.03321 0 -2.8299)
(4.57142 0 1.29564)
(6.69219 1.37249e-17 1.62995)
(1.98549 4.82132e-17 -0.806271)
(-2.16565 0 -2.47003)
(-1.24818 3.01685e-17 -1.88162)
(2.1585 0 -0.664062)
(3.6137 0 -0.589218)
(2.34111 0 -1.49784)
(0.845555 -6.99008e-17 -2.19666)
(1.01827 0 -2.14047)
(2.28198 0 -1.76971)
(3.07187 0 -1.68611)
(2.90471 0 -1.96138)
(2.53763 -6.43641e-17 -2.26991)
(2.75079 0 -2.40396)
(3.51797 0 -2.46191)
(4.34718 2.16914e-17 -2.66531)
(5.01327 0 -3.10816)
(5.72934 0 -3.70806)
(6.71705 -6.74551e-17 -4.37398)
(7.94037 2.10472e-17 -5.04949)
(9.15591 0 -5.64491)
(10.0534 0 -6.05466)
(10.4345 0 -6.06252)
(10.0221 -1.57993e-17 -5.44793)
(8.45542 0 -4.06894)
(5.37831 0 -1.85466)
(0.704023 1.25863e-16 1.15055)
(-5.20888 -1.24338e-16 4.65152)
(-11.4215 0 8.02776)
(-16.5837 0 10.4305)
(-18.9015 0 10.9114)
(-17.1817 9.82068e-17 9.06886)
(-11.5341 -9.02238e-17 5.30015)
(-3.72515 -8.74188e-17 0.786413)
(3.84294 -3.78261e-17 -3.26185)
(9.90343 -4.54867e-17 -6.54201)
(13.2748 1.00748e-16 -8.26641)
(16.03 0 -10.291)
(21.5383 0 -14.1196)
(30.5086 2.487e-17 -20.0566)
(43.4108 0 -27.4416)
(52.3819 0 -30.739)
(47.9877 0 -27.0076)
(38.396 0 -20.7776)
(27.1385 0 -13.4245)
(12.986 -4.29402e-16 -4.26232)
(-3.39356 0 4.91229)
(-14.2953 -6.75503e-16 10.39)
(-21.6502 0 13.2142)
(-12.0016 -1.66708e-17 6.09289)
(-2.70275 7.44003e-16 -0.124171)
(21.9848 0 -14.2106)
(19.6484 0 -14.4519)
(71.2808 0 -42.0452)
(40.0913 0 -21.4669)
(42.88 3.88861e-16 -23.5247)
(40.6688 0 -29.2874)
(139.054 0 -66.1036)
(-147.741 0 94.6052)
(-12.0277 0 -11.7223)
(96.4467 0 -54.5978)
(-3.44177 0 6.89666)
(39.4632 0 -21.9407)
(-29.7722 0 19.8039)
(-1.2199 -9.6826e-17 -1.08263)
(-1.25363 0 1.21247)
(-8.31107 0 5.32444)
(-5.56663 0 2.16371)
(22.3812 4.02395e-16 -17.3677)
(72.499 0 -45.4143)
(79.1396 -3.38327e-16 -45.1302)
(40.6649 0 -19.1025)
(-5.95341 7.02117e-19 8.35936)
(-54.5922 0 35.9197)
(-96.8172 1.38369e-16 58.5699)
(-76.2428 0 39.4308)
(-7.56224 0 0.999678)
(-16.3227 0 11.9579)
(-45.6644 -4.49685e-18 29.5124)
(-83.6378 8.85961e-17 46.4692)
(-26.9367 -4.51522e-16 8.45052)
(38.8088 -7.20653e-17 -25.3474)
(3.76329 0 2.75587)
(6.66116 1.57446e-17 1.96812)
(0.615893 0 0.435201)
(-8.59178 0 -0.549872)
(-10.7548 -2.13147e-17 0.545443)
(-4.547 -1.0322e-17 3.09891)
(3.34175 -1.44121e-17 4.1503)
(5.80852 8.25889e-17 2.15306)
(2.06661 0 -0.711699)
(-3.92753 -3.34323e-18 -1.03269)
(-8.96442 3.26501e-17 1.46674)
(-10.9583 0 3.95532)
(-6.3133 0 3.91027)
(6.52684 0 1.14224)
(18.2964 0 -2.99396)
(12.6434 2.65474e-17 -5.66415)
(-12.1189 2.22455e-17 -2.62156)
(-30.4512 2.78311e-17 8.2476)
(-16.6845 6.69628e-17 19.5482)
(15.0861 0 17.4253)
(34.3743 -9.97456e-17 7.11387)
(45.8811 -1.89675e-17 12.2525)
(37.8737 0 0.649969)
(-20.0933 9.42567e-17 -75.6064)
(-147.616 -2.96894e-16 -178.371)
(-145.393 6.815e-17 -105.042)
(4.52987 0 27.1221)
(80.3414 0 55.7984)
(55.4013 1.63082e-16 38.3957)
(-2.53689 5.30264e-17 -5.59693)
(-27.7509 -5.28088e-16 -19.7754)
(-10.6385 0 -6.12579)
(10.9748 3.65594e-16 0.736958)
(15.3298 0 4.96702)
(1.46098 0 -1.8557)
(-7.23084 8.37683e-17 -5.26638)
(-2.59256 0 -2.22602)
(5.39706 -1.31311e-16 1.40507)
(6.45572 1.40276e-17 1.14959)
(1.60052 -5.64878e-17 -1.33247)
(-1.97105 0 -2.7009)
(-0.612132 -7.01702e-18 -1.94315)
(2.71477 0 -0.829416)
(3.90433 0 -0.935311)
(2.57436 0 -1.91614)
(1.24313 0 -2.57324)
(1.57882 0 -2.46514)
(2.87337 3.1858e-17 -2.10011)
(3.61878 0 -2.06543)
(3.44454 0 -2.38704)
(3.13946 3.00304e-17 -2.72163)
(3.43969 0 -2.88109)
(4.27788 -7.94766e-18 -2.98643)
(5.16818 -1.88783e-17 -3.25764)
(5.91629 1.68451e-17 -3.77219)
(6.74102 0 -4.44821)
(7.85285 3.143e-17 -5.18928)
(9.20177 1.71438e-17 -5.92138)
(10.5081 0 -6.56712)
(11.4557 0 -6.95768)
(11.8104 0 -6.84701)
(11.2443 1.48346e-17 -6.00114)
(9.36604 0 -4.26516)
(5.76794 0 -1.63112)
(0.429603 -5.71329e-17 1.89147)
(-6.2512 1.06792e-16 5.87986)
(-13.1863 0 9.60314)
(-18.8787 0 12.098)
(-21.3506 0 12.3321)
(-19.2776 0 9.92466)
(-12.7252 -7.26449e-17 5.3705)
(-3.56702 8.19642e-17 0.00507236)
(5.51546 0 -4.8217)
(12.9828 0 -8.76653)
(17.3631 -9.44204e-17 -10.8986)
(20.7311 0 -13.3552)
(26.957 -1.1145e-16 -17.8055)
(36.6979 2.39862e-17 -24.4638)
(50.5106 0 -32.3554)
(59.6813 0 -35.0783)
(53.6682 0 -29.7814)
(41.9434 0 -22.0947)
(28.9003 0 -13.4885)
(13.126 1.98441e-16 -3.14352)
(-5.1998 0 6.99814)
(-17.2945 1.23788e-15 12.8028)
(-25.0974 0 15.2029)
(-12.9099 -2.03468e-17 6.01667)
(-1.47365 -2.99092e-17 -1.83012)
(28.1899 0 -18.4121)
(21.7934 3.67571e-16 -17.0943)
(83.9641 0 -49.8492)
(46.9567 0 -24.6987)
(56.0084 -7.10574e-16 -30.408)
(34.2794 0 -28.7664)
(169.592 0 -78.7138)
(-150.718 0 101.151)
(-16.206 0 -16.2673)
(108.096 0 -61.1078)
(1.31841 0 5.23215)
(43.1442 0 -23.3984)
(-34.8645 0 23.8014)
(-1.79412 9.04597e-17 -1.52362)
(-2.71497 0 2.23065)
(-9.07293 0 5.81552)
(-2.60879 0 -0.930539)
(32.2854 -3.79785e-16 -24.8633)
(85.7707 -3.08693e-17 -54.2737)
(84.1119 3.17039e-16 -47.0888)
(32.8741 -3.51529e-16 -12.5707)
(-17.4527 1.19354e-18 17.107)
(-68.9948 -8.61178e-17 47.9554)
(-107.999 -2.56022e-16 65.1655)
(-75.7365 0 37.0866)
(-0.293189 9.19161e-17 -4.43948)
(-12.6159 -8.50754e-17 10.7198)
(-45.8187 0 30.9147)
(-90.6527 -4.11584e-17 50.1583)
(-32.6953 2.11192e-16 9.14455)
(40.923 6.72674e-17 -27.8336)
(3.16704 0 2.58471)
(4.9768 -7.03821e-18 1.45724)
(-0.490529 0 -0.0133854)
(-7.54577 0 -0.403491)
(-8.24061 2.00699e-17 0.935079)
(-2.8961 9.71702e-18 3.01715)
(2.70357 1.35653e-17 3.64919)
(3.83917 -7.28207e-17 1.90393)
(0.909043 0 -0.438009)
(-3.34149 9.49371e-18 -0.768977)
(-7.44164 -4.45811e-17 1.54438)
(-9.90646 0 4.52446)
(-6.8242 -5.94987e-18 5.40139)
(3.71666 0 2.38471)
(13.6435 -3.3769e-17 -4.03734)
(9.14879 -1.44968e-17 -9.41759)
(-10.0832 -3.39187e-20 -6.2186)
(-22.3759 -2.61985e-17 8.92389)
(-9.02592 -1.3302e-16 25.9622)
(15.6431 0 25.8981)
(25.931 9.38877e-17 6.33317)
(18.4323 0 -16.7206)
(-10.8332 0 -48.7829)
(-55.0785 5.55965e-16 -91.4616)
(-110.184 -4.40086e-16 -122.254)
(-66.2813 0 -36.8791)
(44.8054 0 54.0673)
(76.5556 0 54.7209)
(31.6898 1.94636e-16 19.1338)
(-17.7823 -3.62485e-16 -15.6957)
(-28.7282 8.66932e-17 -23.5934)
(-6.97674 1.2602e-16 -7.56903)
(13.4707 -3.38537e-16 2.47433)
(14.6182 1.45573e-17 3.99921)
(-0.372681 9.43293e-17 -2.89975)
(-6.89374 -1.37713e-17 -5.09633)
(-1.13538 0 -1.6304)
(6.06601 1.23499e-16 1.465)
(6.10533 5.33669e-17 0.669568)
(1.20996 5.31188e-17 -1.84009)
(-1.73358 0 -2.91352)
(0.0301285 -3.57814e-18 -1.99705)
(3.22247 4.32268e-17 -0.994101)
(4.13005 2.35395e-17 -1.27734)
(2.76143 -1.65418e-17 -2.32011)
(1.61452 0 -2.92619)
(2.11405 0 -2.76269)
(3.4275 3.73715e-19 -2.4052)
(4.11981 0 -2.42231)
(3.93977 0 -2.79048)
(3.70179 2.66437e-17 -3.1489)
(4.08888 -1.49539e-17 -3.33169)
(4.98974 7.46427e-18 -3.48408)
(5.92648 9.96371e-19 -3.82415)
(6.73698 -2.54602e-18 -4.40974)
(7.64824 0 -5.15085)
(8.85752 0 -5.94682)
(10.2942 -3.04427e-17 -6.71499)
(11.6548 0 -7.37853)
(12.6193 0 -7.72081)
(12.9272 -2.28692e-17 -7.46634)
(12.2116 0 -6.37274)
(10.0564 0 -4.27761)
(6.01506 -3.2261e-17 -1.24362)
(0.132374 4.23685e-17 2.74974)
(-7.17837 -8.83188e-17 7.15421)
(-14.7065 0 11.1383)
(-20.8525 -8.42995e-18 13.6434)
(-23.4924 0 13.5758)
(-21.175 0 10.5904)
(-13.8628 1.28161e-16 5.26675)
(-3.45197 0 -0.927216)
(7.1535 0 -6.53581)
(16.1306 0 -11.1998)
(21.6851 0 -13.747)
(25.6936 0 -16.6397)
(32.47 1.04365e-16 -21.6256)
(42.5872 5.68347e-19 -28.8012)
(56.7605 7.89198e-17 -36.8601)
(65.7084 -1.71782e-16 -38.6296)
(58.0116 0 -31.6159)
(44.3464 0 -22.5717)
(29.8326 0 -12.9073)
(12.8971 0 -1.62584)
(-6.93101 0 9.20387)
(-19.905 -3.13191e-17 15.0736)
(-27.9435 0 16.7729)
(-13.205 -4.12977e-16 5.39818)
(0.225379 -3.56495e-17 -4.08112)
(34.4103 0 -22.6682)
(23.1581 -3.43674e-16 -19.5509)
(95.0943 0 -56.9373)
(53.5747 3.04213e-16 -27.8489)
(73.103 1.9862e-17 -38.971)
(18.8862 0 -23.5869)
(196.909 0 -89.5371)
(-141.509 0 102.112)
(-20.7227 0 -21.333)
(117.877 3.87851e-17 -66.9286)
(7.70505 0 2.17183)
(45.883 0 -23.9029)
(-38.9493 -1.29286e-16 27.4345)
(-3.2312 0 -1.61014)
(-4.55871 1.11069e-16 3.46607)
(-9.41235 -1.87779e-17 5.91272)
(2.0768 0 -5.03092)
(43.5675 7.10784e-16 -33.5315)
(97.5256 1.64552e-18 -62.093)
(84.4614 -5.92215e-16 -45.8398)
(21.0199 3.28226e-16 -3.23086)
(-28.2097 1.42335e-16 25.5111)
(-83.7894 8.04024e-17 55.1272)
(-115.099 1.18406e-16 69.3247)
(-70.2729 1.30813e-16 31.2132)
(10.1795 -8.5806e-17 -11.9387)
(-6.19765 7.94173e-17 8.27952)
(-44.0598 6.58074e-18 31.7155)
(-95.8524 3.80225e-17 53.0457)
(-38.1992 0 9.30232)
(42.0348 0 -30.0509)
(2.42097 0 2.54657)
(3.48536 -4.60571e-18 1.35092)
(-1.16102 0 0.0317775)
(-6.33877 0 0.0422588)
(-6.13698 0 1.38661)
(-1.83901 0 2.8903)
(1.88981 -1.36562e-17 3.06874)
(2.29403 2.15371e-17 1.60408)
(0.431415 -8.71378e-18 -0.0877067)
(-2.08345 -2.27147e-17 -0.17313)
(-5.37247 4.19081e-17 1.85515)
(-8.72672 0 4.56636)
(-8.0292 5.5938e-18 5.49767)
(-0.317809 0 2.51653)
(8.56986 3.17463e-17 -4.19885)
(7.27316 3.38352e-17 -9.92265)
(-5.3051 0 -6.75453)
(-13.764 0 8.14814)
(-6.00033 6.58017e-17 24.04)
(6.92549 0 22.711)
(8.40236 0 0.95936)
(-4.53007 1.09636e-16 -27.8433)
(-28.9959 0 -54.9813)
(-48.205 0 -67.4338)
(-56.4247 8.35343e-17 -58.2015)
(-6.11498 0 12.0077)
(60.1951 0 60.4511)
(57.7446 0 39.8192)
(8.29439 -4.63951e-16 1.62188)
(-26.8652 0 -21.5136)
(-24.7072 8.59111e-17 -19.2643)
(0.0349403 4.94955e-17 -2.82954)
(20.036 1.5598e-16 9.79505)
(12.6291 -1.368e-17 2.84292)
(-2.23728 -1.78582e-16 -3.96854)
(-6.2924 -6.1104e-17 -4.79861)
(0.314684 0 -1.0408)
(6.52727 0 1.42814)
(5.63167 2.30281e-17 0.182871)
(0.829237 5.54727e-17 -2.30096)
(-1.43919 0 -3.07317)
(0.67048 0 -2.03115)
(3.65896 -1.59371e-18 -1.16649)
(4.27234 -2.21072e-17 -1.62405)
(2.89515 1.5534e-17 -2.70751)
(1.95693 4.76531e-17 -3.24807)
(2.61722 0 -3.02993)
(3.93282 -2.38819e-21 -2.68707)
(4.5627 0 -2.75872)
(4.37988 0 -3.16953)
(4.21398 -2.50073e-17 -3.54608)
(4.68437 1.40341e-17 -3.74918)
(5.6349 0 -3.94761)
(6.59991 1.56995e-17 -4.35448)
(7.45152 -2.62968e-18 -5.0051)
(8.42493 0 -5.79725)
(9.70165 0 -6.62782)
(11.1882 2.49539e-17 -7.41123)
(12.5687 0 -8.0626)
(13.524 0 -8.33132)
(13.7768 4.05459e-17 -7.91439)
(12.9308 0 -6.56642)
(10.5483 0 -4.13543)
(6.17607 5.64129e-17 -0.707166)
(-0.1265 -3.97091e-17 3.68973)
(-7.92476 3.82998e-17 8.43897)
(-15.9318 0 12.61)
(-22.4891 7.89819e-18 15.0669)
(-25.3585 0 14.6711)
(-22.9558 -5.59565e-17 11.1198)
(-15.0752 -5.62742e-17 5.05801)
(-3.54945 0 -1.93508)
(8.55785 0 -8.3312)
(19.2123 9.44811e-18 -13.6783)
(26.0857 6.07026e-17 -16.741)
(30.7842 0 -20.072)
(37.9462 0 -25.4887)
(48.0224 -4.37332e-17 -32.9518)
(61.9841 -7.38523e-17 -40.8241)
(70.3122 3.03071e-16 -41.2826)
(60.9641 0 -32.4717)
(45.6774 0 -22.2488)
(30.0811 0 -11.7752)
(12.4704 0 0.178107)
(-8.42393 0 11.4318)
(-21.9745 -3.62363e-17 17.1087)
(-30.075 0 17.8463)
(-12.8761 0 4.21733)
(2.30623 -4.14597e-17 -6.83767)
(40.2809 0 -26.748)
(24.0628 -2.7735e-16 -21.994)
(103.995 0 -62.9654)
(59.0766 -2.8431e-16 -30.5938)
(95.394 2.31216e-17 -49.5683)
(-5.60935 0 -13.7785)
(216.294 0 -96.6091)
(-118.921 0 96.3369)
(-25.3007 0 -26.7467)
(126.126 -3.43746e-18 -72.1594)
(16.7894 -1.09825e-16 0.0531839)
(47.5415 1.19806e-16 -23.8474)
(-41.649 1.20752e-16 30.4709)
(-5.77164 0 -1.17947)
(-6.74177 -1.03725e-16 4.85332)
(-9.07774 1.75354e-17 5.43803)
(8.77758 0 -9.61136)
(55.6318 -3.32523e-16 -42.9119)
(107.014 4.8567e-17 -68.3512)
(79.9335 2.76527e-16 -41.1362)
(6.76707 0 7.88)
(-35.7566 -1.28738e-16 32.3729)
(-92.2445 0 66.2641)
(-118.518 0 70.6043)
(-60.6995 -1.22112e-16 22.5389)
(23.1618 0 -20.8718)
(1.87464 0 5.14423)
(-41.0864 -6.1426e-18 32.1353)
(-99.828 -3.54888e-17 55.3372)
(-43.4217 1.85582e-16 8.98371)
(42.3766 -6.09666e-17 -32.0493)
(1.66146 0 2.54532)
(2.19671 4.32869e-18 1.45407)
(-1.55991 -3.07684e-18 0.331139)
(-5.2066 0 0.546025)
(-4.57062 0 1.72768)
(-1.33075 0 2.70566)
(1.03136 1.28322e-17 2.59016)
(1.23282 0 1.47828)
(0.498305 8.18575e-18 0.366004)
(-0.625229 0 0.376994)
(-3.41481 0 1.89058)
(-7.66935 2.48453e-17 4.06794)
(-9.13137 0 5.06056)
(-3.86064 -1.35305e-17 2.80307)
(4.46696 2.799e-17 -2.99366)
(6.44378 -3.17756e-17 -8.42276)
(-0.673977 0 -6.59062)
(-7.66147 -9.79402e-18 4.92416)
(-6.85726 0 17.2035)
(-3.84704 -9.00765e-17 16.2943)
(-5.84846 0 0.31128)
(-13.6367 -1.02972e-16 -20.1999)