/*--------------------------------*- C++ -*----------------------------------*\
| =========                 |                                                 |
| \\      /  F ield         | OpenFOAM: The Open Source CFD Toolbox           |
|  \\    /   O peration     | Version:  2412                                  |
|   \\  /    A nd           | Website:  www.openfoam.com                      |
|    \\/     M anipulation  |                                                 |
\*---------------------------------------------------------------------------*/
FoamFile
{
    version     2.0;
    format      ascii;
    arch        "LSB;label=32;scalar=64";
    class       volScalarField;
    location    "1";
    object      p;
}
// * * * * * * * * * * * * * * * * * * * * * * * * * * * * * * * * * * * * * //

dimensions      [0 2 -2 0 0 0 0];

internalField   nonuniform List<scalar> 
12600
(
1.09379
-79.2733
-56.3796
-5.58345
37.3699
70.1468
96.1742
117.766
136.162
152.073
165.932
178.196
189.175
199.016
207.82
215.672
222.787
229.249
235.045
240.194
245.018
250.217
254.69
257.028
257.796
261.589
265.84
268.388
270.326
272.265
274.11
275.678
277.054
278.368
279.622
280.73
281.681
282.542
283.364
284.123
284.784
285.36
285.889
286.381
286.821
287.197
287.519
287.804
288.056
288.271
288.448
288.593
288.718
288.827
288.92
288.993
289.047
289.078
289.075
289.016
288.881
288.655
288.335
287.939
287.484
286.973
286.331
285.405
283.941
281.724
278.646
274.932
270.993
267.399
264.551
262.536
261.103
259.596
257.335
254.334
251.687
250.074
249.399
249.395
249.037
249.85
250.138
250.672
246.189
241.35
225.704
207.111
173.842
128.633
95.6498
41.2884
45.735
50.5425
38.6518
77.1292
47.37
65.6852
66.1177
61.6902
68.3506
58.0275
55.2102
26.6558
-7.38383
-28.5806
-8.53037
50.911
141.456
238.373
331.207
383.494
426.486
439.568
477.933
452.423
60.9013
-14.0937
-22.3058
3.56376
36.0741
66.2473
92.0128
113.87
132.607
148.838
163.096
175.741
187.032
197.111
206.169
214.204
221.493
228.109
234.078
239.457
244.412
249.228
253.369
256.314
258.243
262.028
265.609
267.877
269.988
272.039
273.863
275.417
276.847
278.222
279.489
280.582
281.538
282.43
283.275
284.041
284.704
285.289
285.831
286.333
286.777
287.157
287.484
287.775
288.033
288.251
288.431
288.58
288.708
288.819
288.912
288.986
289.041
289.073
289.071
289.013
288.879
288.655
288.338
287.943
287.489
286.978
286.34
285.426
283.984
281.798
278.756
275.07
271.134
267.536
264.663
262.623
261.178
259.681
257.443
254.446
251.768
250.116
249.401
249.385
249.021
249.829
250.117
250.706
246.284
241.574
226.095
207.703
174.799
129.596
96.7865
42.0202
45.6848
50.7263
38.4723
77.0015
47.5282
65.4398
66.1225
61.6752
68.3635
58.1672
55.589
27.4263
-6.66199
-28.4512
-9.28138
49.2895
139.362
236.238
329.576
382.407
425.852
439.011
477.762
452.649
86.7247
31.3069
8.27255
17.0222
40.7067
66.9354
91.0993
112.401
131.023
147.31
161.644
174.37
185.74
195.915
205.043
213.237
220.637
227.291
233.309
238.83
243.883
248.205
252.145
256.003
259.366
262.602
265.357
267.479
269.76
271.877
273.69
275.252
276.724
278.127
279.395
280.485
281.452
282.363
283.219
283.987
284.652
285.244
285.794
286.3
286.747
287.13
287.461
287.756
288.017
288.237
288.419
288.57
288.7
288.813
288.908
288.982
289.037
289.07
289.068
289.011
288.878
288.656
288.34
287.947
287.493
286.983
286.348
285.442
284.014
281.847
278.823
275.147
271.218
267.609
264.728
262.678
261.227
259.734
257.507
254.51
251.816
250.139
249.402
249.378
249.009
249.815
250.104
250.731
246.341
241.703
226.306
208.019
175.261
130.039
97.2694
42.3663
45.6476
50.8454
38.366
76.9426
47.6032
65.3299
66.1272
61.6661
68.3741
58.2257
55.745
27.773
-6.31994
-28.3802
-9.63658
48.7172
138.71
235.536
328.966
381.988
425.605
438.838
477.69
452.742
95.1361
60.5407
36.9416
34.9614
48.9805
69.6702
91.2564
111.438
129.614
145.781
160.137
172.924
184.361
194.625
203.885
212.231
219.746
226.479
232.519
238.066
243.176
247.585
251.586
255.737
260.055
262.676
264.858
267.071
269.508
271.673
273.483
275.066
276.577
278
279.272
280.368
281.35
282.279
283.146
283.918
284.589
285.19
285.748
286.26
286.711
287.098
287.434
287.734
287.998
288.221
288.406
288.559
288.692
288.806
288.902
288.977
289.033
289.066
289.065
289.009
288.878
288.657
288.344
287.951
287.497
286.989
286.358
285.462
284.052
281.911
278.913
275.259
271.337
267.719
264.815
262.747
261.289
259.805
257.596
254.6
251.88
250.172
249.403
249.369
248.994
249.797
250.088
250.765
246.425
241.897
226.637
208.521
176.06
130.828
98.2274
42.9227
45.5873
50.9808
38.2053
76.8513
47.7304
65.1257
66.1339
61.652
68.3893
58.3504
56.0695
28.4068
-5.76307
-28.3346
-10.3261
47.2466
136.761
233.645
327.569
381.068
425.071
438.347
477.562
452.94
102.479
83.035
63.6961
55.5154
60.7381
75.025
93.0478
111.465
128.828
144.663
158.912
171.688
183.151
193.47
202.814
211.276
218.9
225.692
231.753
237.334
242.495
247.11
251.328
255.459
259.599
262.124
264.131
266.788
269.295
271.469
273.282
274.885
276.429
277.868
279.145
280.249
281.248
282.193
283.069
283.847
284.525
285.134
285.7
286.219
286.674
287.065
287.406
287.71
287.978
288.204
288.391
288.548
288.683
288.799
288.895
288.972
289.029
289.062
289.062
289.007
288.877
288.659
288.347
287.956
287.503
286.996
286.369
285.484
284.093
281.978
279.006
275.367
271.447
267.82
264.902
262.818
261.353
259.879
257.687
254.689
251.944
250.203
249.404
249.358
248.977
249.778
250.072
250.802
246.512
242.091
226.956
208.996
176.77
131.511
98.9576
43.3949
45.5081
51.1046
38.026
76.7661
47.842
64.9503
66.1405
61.6366
68.4063
58.4436
56.3342
28.9356
-5.30404
-28.3384
-10.9591
46.2245
135.602
232.387
326.526
380.36
424.659
438.044
477.459
453.097
110.979
100.333
85.8173
75.6795
75.0776
83.2906
96.8788
112.697
128.737
143.959
157.952
170.64
182.092
192.44
201.836
210.371
218.072
224.935
231.06
236.674
241.894
246.65
250.985
255.004
258.822
261.459
263.756
266.509
269.09
271.272
273.07
274.701
276.273
277.729
279.013
280.127
281.143
282.103
282.989
283.772
284.458
285.076
285.65
286.175
286.634
287.03
287.377
287.685
287.957
288.187
288.377
288.536
288.673
288.791
288.889
288.966
289.024
289.059
289.059
289.005
288.878
288.661
288.352
287.961
287.509
287.003
286.381
285.509
284.139
282.051
279.106
275.486
271.571
267.931
264.992
262.891
261.421
259.958
257.786
254.786
252.013
250.235
249.404
249.346
248.958
249.757
250.057
250.845
246.611
242.309
227.316
209.534
177.592
132.3
99.8671
43.9027
45.3966
51.2015
37.7965
76.6923
47.9691
64.7394
66.1461
61.6168
68.4259
58.5797
56.6562
29.5416
-4.84047
-28.4273
-11.787
44.6768
133.625
230.492
325.106
379.42
424.119
437.563
477.341
453.301
119.089
112.937
102.718
93.619
90.3306
93.8675
102.914
115.437
129.502
143.701
157.229
169.738
181.141
191.498
200.928
209.513
217.277
224.216
230.423
236.099
241.352
246.156
250.518
254.453
258.072
260.885
263.496
266.331
268.842
271.003
272.877
274.508
276.111
277.585
278.875
280.001
281.035
282.01
282.904
283.694
284.387
285.016
285.598
286.128
286.593
286.994
287.346
287.659
287.935
288.168
288.361
288.523
288.663
288.783
288.882
288.961
289.02
289.055
289.056
289.004
288.878
288.664
288.356
287.967
287.515
287.011
286.395
285.536
284.188
282.129
279.212
275.61
271.696
268.043
265.084
262.966
261.492
260.043
257.891
254.888
252.084
250.269
249.402
249.331
248.935
249.733
250.041
250.893
246.72
242.545
227.7
210.102
178.438
133.097
100.715
44.3856
45.2398
51.2513
37.4928
76.5702
48.0967
64.521
66.1477
61.5913
68.4482
58.6797
56.9739
30.1155
-4.4599
-28.6339
-12.7136
43.2619
131.986
228.778
323.722
378.482
423.582
437.16
477.228
453.503
126.405
122.702
115.837
108.793
104.863
105.523
110.826
119.909
131.437
144.074
156.791
168.946
180.234
190.58
200.04
208.675
216.505
223.531
229.832
235.569
240.836
245.641
249.986
253.891
257.449
260.455
263.288
266.129
268.626
270.729
272.578
274.361
275.942
277.435
278.733
279.872
280.924
281.913
282.815
283.612
284.315
284.953
285.544
286.08
286.549
286.956
287.314
287.633
287.912
288.149
288.345
288.51
288.653
288.774
288.875
288.955
289.015
289.052
289.054
289.003
288.879
288.667
288.361
287.973
287.521
287.019
286.409
285.565
284.242
282.213
279.325
275.741
271.828
268.159
265.177
263.041
261.565
260.132
258.004
254.997
252.159
250.302
249.399
249.313
248.909
249.706
250.024
250.948
246.842
242.802
228.113
210.712
179.344
133.94
101.62
44.8608
45.021
51.2286
37.0675
76.4859
48.2311
64.2801
66.1419
61.5576
68.4734
58.8503
57.3075
30.6674
-4.18636
-28.9943
-13.8276
41.4635
129.818
226.678
322.099
377.388
422.957
436.645
477.111
453.732
133.256
131.122
126.519
121.309
117.728
117.063
119.831
125.935
134.758
145.377
156.827
168.316
179.327
189.607
199.092
207.792
215.709
222.842
229.249
235.052
240.333
245.129
249.467
253.392
256.971
260.139
263.102
265.919
268.374
270.475
272.357
274.083
275.803
277.29
278.587
279.742
280.811
281.814
282.723
283.527
284.239
284.888
285.488
286.03
286.504
286.917
287.281
287.605
287.889
288.129
288.328
288.497
288.642
288.766
288.868
288.949
289.01
289.048
289.051
289.003
288.881
288.671
288.366
287.979
287.527
287.026
286.424
285.596
284.298
282.303
279.445
275.878
271.964
268.278
265.269
263.115
261.637
260.225
258.122
255.111
252.237
250.336
249.394
249.292
248.878
249.675
250.008
251.009
246.977
243.08
228.555
211.362
180.294
134.812
102.508
45.3199
44.724
51.1074
36.4639
76.3847
48.3618
64.02
66.1244
61.513
68.5016
58.9687
57.6355
31.1433
-4.07285
-29.5418
-15.1124
39.6684
127.709
224.529
320.368
376.199
422.278
436.146
476.996
453.974
139.793
138.694
135.491
131.632
128.76
127.747
129.064
132.96
139.36
147.811
157.618
168.046
178.49
188.545
198.002
206.769
214.799
222.068
228.609
234.503
239.827
244.646
249.009
252.986
256.62
259.895
262.915
265.688
268.11
270.22
272.139
273.947
275.591
277.135
278.449
279.611
280.698
281.712
282.628
283.439
284.162
284.822
285.43
285.978
286.457
286.876
287.246
287.576
287.864
288.108
288.311
288.483
288.631
288.757
288.861
288.943
289.005
289.044
289.049
289.002
288.882
288.675
288.372
287.985
287.532
287.033
286.439
285.627
284.358
282.397
279.571
276.021
272.104
268.394
265.358
263.184
261.707
260.319
258.246
255.231
252.316
250.369
249.386
249.265
248.842
249.64
249.99
251.079
247.126
243.38
229.024
212.053
181.292
135.721
103.409
45.7677
44.3387
50.8638
35.607
76.2718
48.5075
63.7369
66.0902
61.4551
68.5341
59.1249
57.9465
31.5004
-4.16531
-30.3044
-16.6057
37.4838
125.209
222.078
318.417
374.851
421.501
435.563
476.884
454.238
145.951
145.526
143.24
140.367
138.209
137.291
137.899
140.355
144.861
151.321
159.35
168.407
177.941
187.498
196.76
205.527
213.667
221.1
227.814
233.851
239.278
244.174
248.607
252.655
256.345
259.677
262.707
265.442
267.848
269.985
271.945
273.787
275.466
276.942
278.285
279.495
280.584
281.609
282.532
283.35
284.083
284.754
285.37
285.924
286.409
286.834
287.211
287.546
287.839
288.086
288.293
288.469
288.619
288.748
288.853
288.937
289
289.04
289.047
289.001
288.884
288.679
288.377
287.99
287.537
287.039
286.452
285.66
284.42
282.495
279.702
276.169
272.246
268.516
265.442
263.246
261.77
260.411
258.373
255.355
252.398
250.401
249.374
249.232
248.798
249.599
249.972
251.157
247.29
243.702
229.521
212.783
182.333
136.676
104.303
46.2242
43.8471
50.4779
34.4055
76.1614
48.6445
63.4312
66.034
61.3815
68.5718
59.2715
58.2174
31.6786
-4.50711
-31.3063
-18.3017
35.3265
122.6
219.451
316.274
373.347
420.624
434.959
476.778
454.521
151.714
151.754
150.14
147.989
146.396
145.702
146.031
147.641
150.808
155.637
161.999
169.571
177.94
186.698
195.504
204.091
212.249
219.829
226.747
232.99
238.596
243.64
248.194
252.333
256.08
259.445
262.474
265.189
267.606
269.784
271.78
273.641
275.317
276.804
278.122
279.34
280.492
281.501
282.433
283.259
284.003
284.685
285.309
285.868
286.359
286.791
287.175
287.516
287.813
288.065
288.275
288.455
288.608
288.738
288.845
288.93
288.995
289.036
289.044
289.001
288.885
288.682
288.381
287.993
287.538
287.042
286.464
285.691
284.484
282.598
279.838
276.322
272.391
268.618
265.517
263.295
261.821
260.498
258.5
255.482
252.482
250.431
249.358
249.192
248.745
249.551
249.953
251.243
247.471
244.045
230.042
213.552
183.413
137.694
105.198
46.6846
43.2442
49.9294
32.7543
76.0452
48.7827
63.1023
65.9508
61.2902
68.6167
59.4226
58.4216
31.6092
-5.12527
-32.5709
-20.2273
32.5935
119.644
216.523
313.88
371.649
419.614
434.277
476.683
454.828
157.133
157.51
156.402
154.772
153.593
153.127
153.394
154.543
156.824
160.426
165.377
171.535
178.642
186.391
194.479
202.635
210.617
218.225
225.311
231.79
237.644
242.911
247.647
251.916
255.745
259.159
262.21
264.941
267.392
269.614
271.646
273.506
275.176
276.661
277.997
279.218
280.342
281.432
282.344
283.17
283.924
284.616
285.247
285.812
286.309
286.747
287.139
287.486
287.787
288.043
288.258
288.44
288.597
288.729
288.837
288.924
288.989
289.032
289.041
288.999
288.886
288.685
288.384
287.995
287.538
287.041
286.471
285.719
284.547
282.702
279.979
276.479
272.538
268.756
265.582
263.329
261.856
260.572
258.623
255.611
252.566
250.46
249.337
249.143
248.681
249.495
249.93
251.337
247.669
244.408
230.585
214.357
184.523
138.793
106.089
47.2228
42.5433
49.1894
30.5419
75.9213
48.9196
62.7553
65.8369
61.1792
68.6706
59.5817
58.5147
31.2273
-6.04868
-34.1194
-22.3908
29.8745
116.472
213.324
311.219
369.738
418.454
433.546
476.6
455.159
162.25
162.861
162.129
160.884
160.016
159.748
160.036
160.942
162.66
165.391
169.234
174.166
180.059
186.716
193.911
201.41
208.981
216.412
223.522
230.172
236.281
241.823
246.809
251.275
255.247
258.767
261.895
264.689
267.201
269.47
271.526
273.387
275.05
276.529
277.877
279.117
280.253
281.271
282.251
283.089
283.847
284.549
285.186
285.755
286.258
286.704
287.102
287.455
287.761
288.021
288.24
288.427
288.586
288.72
288.829
288.917
288.984
289.027
289.037
288.998
288.887
288.687
288.386
287.993
287.533
287.035
286.473
285.744
284.608
282.809
280.124
276.641
272.685
268.851
265.633
263.341
261.867
260.627
258.736
255.738
252.653
250.487
249.311
249.084
248.606
249.43
249.908
251.439
247.885
244.791
231.148
215.196
185.651
139.983
106.967
47.7361
41.7542
48.2078
27.6592
75.7779
49.0663
62.3875
65.6902
61.0454
68.735
59.7357
58.4588
30.479
-7.29717
-35.9732
-24.8212
26.6676
112.944
209.781
308.24
367.585
417.115
432.735
476.535
455.518
167.084
167.847
167.399
166.456
165.828
165.715
166.044
166.821
168.188
170.318
173.333
177.269
182.089
187.69
193.926
200.622
207.587
214.623
221.549
228.205
234.469
240.259
245.528
250.264
254.472
258.187
261.471
264.39
266.995
269.326
271.41
273.274
274.935
276.425
277.776
279.023
280.169
281.212
282.131
282.997
283.782
284.482
285.125
285.699
286.208
286.661
287.066
287.424
287.735
287.999
288.223
288.414
288.576
288.711
288.822
288.91
288.977
289.022
289.033
288.995
288.886
288.687
288.385
287.989
287.522
287.023
286.468
285.762
284.666
282.915
280.272
276.806
272.834
268.954
265.669
263.328
261.846
260.653
258.832
255.862
252.741
250.513
249.281
249.015
248.518
249.354
249.873
251.546
248.118
245.192
231.725
216.067
186.787
141.245
107.802
48.4377
40.8831
46.9028
24.0175
75.5963
49.2215
62.0157
65.5105
60.8837
68.8102
59.8822
58.1983
29.307
-8.89723
-38.1517
-27.55
23.2261
109.108
205.884
304.909
365.164
415.581
431.865
476.487
455.907
171.653
172.513
172.284
171.58
171.136
171.14
171.509
172.216
173.359
175.078
177.487
180.65
184.578
189.233
194.538
200.38
206.618
213.093
219.636
226.094
232.335
238.246
243.742
248.765
253.28
257.289
260.827
263.947
266.699
269.126
271.265
273.155
274.832
276.335
277.702
278.953
280.088
281.125
282.063
282.907
283.695
284.435
285.068
285.645
286.16
286.619
287.031
287.394
287.71
287.979
288.207
288.401
288.566
288.703
288.814
288.903
288.971
289.015
289.027
288.991
288.884
288.686
288.381
287.98
287.505
287.001
286.453
285.77
284.717
283.018
280.423
276.975
272.984
269.052
265.691
263.286
261.786
260.642
258.905
255.98
252.829
250.539
249.247
248.934
248.415
249.267
249.856
251.658
248.367
245.612
232.31
216.97
187.932
142.551
108.515
49.014
39.9452
45.1827
19.5721
75.3427
49.4011
61.6497
65.3012
60.6872
68.8955
60.0075
57.6761
27.6767
-10.8842
-40.6756
-30.6292
19.3498
104.863
201.584
301.176
362.447
413.833
430.924
476.452
456.327
175.98
176.897
176.835
176.319
176.017
176.109
176.512
177.177
178.17
179.603
181.574
184.15
187.364
191.217
195.682
200.695
206.168
211.983
218.001
224.085
230.112
235.969
241.554
246.781
251.585
255.926
259.796
263.208
266.189
268.779
271.029
272.993
274.72
276.257
277.641
278.895
280.034
281.059
281.995
282.851
283.633
284.344
285.024
285.599
286.114
286.58
286.998
287.366
287.686
287.96
288.192
288.391
288.558
288.696
288.808
288.896
288.964
289.008
289.02
288.985
288.879
288.682
288.375
287.965
287.479
286.97
286.424
285.765
284.757
283.117
280.574
277.149
273.137
269.147
265.696
263.212
261.68
260.581
258.943
256.09
252.919
250.567
249.21
248.843
248.298
249.168
249.8
251.776
248.632
246.052
232.895
217.903
189.109
143.897
109.015
49.5563
38.9438
42.9072
14.3493
74.9711
49.6195
61.3088
65.0718
60.4467
68.9862
60.0962
56.8256
25.5672
-13.3037
-43.5669
-34.1284
15.0442
100.211
196.865
297.001
359.403
411.864
429.922
476.417
456.779
180.081
181.024
181.088
180.723
180.533
180.691
181.118
181.755
182.642
183.869
185.519
187.652
190.307
193.506
197.248
201.509
206.241
211.367
216.784
222.377
228.038
233.67
239.175
244.459
249.439
254.048
258.242
261.991
265.288
268.145
270.6
272.713
274.547
276.155
277.578
278.848
279.987
281.015
281.952
282.8
283.591
284.31
284.945
285.551
286.08
286.543
286.967
287.339
287.664
287.942
288.18
288.382
288.551
288.69
288.802
288.89
288.957
289
289.012
288.978
288.873
288.676
288.364
287.945
287.446
286.924
286.379
285.742
284.782
283.207
280.724
277.327
273.295
269.245
265.698
263.108
261.524
260.461
258.936
256.184
253.014
250.593
249.172
248.743
248.167
249.059
249.773
251.883
248.909
246.51
233.474
218.865
190.354
145.327
109.228
49.9107
37.8826
40.0862
8.4664
74.4111
49.8936
61.0182
64.8399
60.1537
69.0764
60.119
55.5885
22.9769
-16.2017
-46.8549
-38.1349
10.2282
95.0569
191.687
292.342
355.988
409.672
428.838
476.357
457.258
183.972
184.917
185.076
184.831
184.73
184.937
185.379
185.993
186.802
187.877
189.287
191.084
193.304
195.977
199.118
202.727
206.782
211.242
216.038
221.084
226.286
231.562
236.832
242.01
247.01
251.753
256.171
260.214
263.843
267.041
269.814
272.19
274.219
275.959
277.466
278.783
279.944
280.981
281.921
282.78
283.561
284.276
284.925
285.502
286.035
286.524
286.942
287.316
287.644
287.928
288.17
288.375
288.546
288.686
288.798
288.885
288.95
288.992
289.002
288.969
288.865
288.667
288.35
287.919
287.402
286.86
286.316
285.696
284.787
283.283
280.87
277.51
273.46
269.35
265.671
262.976
261.315
260.273
258.872
256.26
253.112
250.623
249.135
248.633
248.023
248.933
249.709
251.983
249.189
246.99
234.04
219.859
191.712
146.915
109.161
50.0036
36.7781
36.6269
2.14426
73.5884
50.248
60.798
64.6343
59.8012
69.1385
60.0515
53.8933
19.9133
-19.6192
-50.5722
-42.7527
4.81782
89.358
186.014
287.158
352.155
407.275
427.665
476.228
457.759
187.664
188.596
188.825
188.677
188.645
188.887
189.337
189.93
190.678
191.637
192.863
194.401
196.283
198.537
201.187
204.244
207.706
211.555
215.751
220.236
224.939
229.784
234.707
239.639
244.506
249.229
253.734
257.96
261.852
265.373
268.501
271.23
273.571
275.552
277.222
278.64
279.866
280.942
281.902
282.767
283.553
284.269
284.9
285.487
286.011
286.478
286.927
287.301
287.628
287.917
288.163
288.372
288.545
288.684
288.796
288.881
288.944
288.983
288.992
288.957
288.854
288.656
288.332
287.887
287.348
286.783
286.222
285.623
284.762
283.339
281.008
277.696
273.635
269.469
265.709
262.824
261.057
260.009
258.738
256.31
253.211
250.658
249.1
248.516
247.867
248.808
249.652
252.076
249.465
247.498
234.575
220.885
193.212
148.721
109.01
49.8179
35.6674
32.6708
-4.23857
72.3872
50.6923
60.6791
64.498
59.3908
69.162
59.8238
51.7
16.3921
-23.5789
-54.7633
-48.0993
-1.28396
83.0061
179.776
281.412
347.849
404.687
426.381
475.971
458.267
191.17
192.076
192.355
192.285
192.309
192.575
193.027
193.6
194.297
195.163
196.246
197.581
199.196
201.117
203.368
205.966
208.922
212.231
215.874
219.817
224.01
228.394
232.908
237.502
242.116
246.684
251.139
255.415
259.455
263.208
266.635
269.707
272.406
274.729
276.688
278.321
279.684
280.845
281.859
282.755
283.553
284.268
284.911
285.485
286.007
286.478
286.896
287.285
287.625
287.911
288.159
288.372
288.547
288.686
288.796
288.879
288.939
288.974
288.98
288.945
288.841
288.642
288.311
287.85
287.283
286.686
286.102
285.508
284.702
283.365
281.133
277.884
273.821
269.606
265.685
262.665
260.758
259.67
258.524
256.324
253.308
250.694
249.062
248.391
247.702
248.638
249.573
252.152
249.726
247.992
235.111
221.946
194.869
150.745
109.227
49.4599
34.6037
28.5515
-10.1307
70.7434
51.2577
60.6965
64.4838
58.9262
69.1204
59.3894
48.9465
12.4208
-28.0918
-59.4796
-54.2927
-8.17114
75.891
172.884
275.062
343.007
401.902
424.98
475.516
458.765
194.5
195.371
195.686
195.677
195.745
196.027
196.475
197.027
197.681
198.472
199.44
200.613
202.016
203.67
205.598
207.819
210.347
213.189
216.338
219.779
223.479
227.398
231.485
235.692
239.978
244.294
248.584
252.788
256.849
260.712
264.33
267.662
270.672
273.34
275.653
277.618
279.257
280.609
281.736
282.697
283.537
284.276
284.927
285.507
286.032
286.48
286.906
287.278
287.608
287.914
288.165
288.376
288.552
288.693
288.801
288.881
288.936
288.967
288.968
288.931
288.827
288.626
288.288
287.808
287.208
286.568
285.949
285.348
284.588
283.348
281.236
278.071
274.023
269.771
265.721
262.518
260.434
259.261
258.222
256.289
253.398
250.724
249.041
248.257
247.524
248.493
249.48
252.207
249.963
248.481
235.629
223.043
196.685
152.906
110.354
49.1149
33.7277
24.6816
-15.0318
68.5014
51.923
60.7912
64.6505
58.4251
68.9825
58.6719
45.6326
8.00823
-33.1533
-64.7906
-61.4532
-15.9876
67.8588
165.231
268.064
337.564
398.875
423.448
474.795
459.227
197.663
198.495
198.831
198.873
198.974
199.266
199.706
200.237
200.851
201.579
202.452
203.495
204.727
206.165
207.83
209.741
211.913
214.358
217.077
220.066
223.309
226.779
230.441
234.252
238.175
242.178
246.221
250.254
254.224
258.078
261.766
265.244
268.47
271.412
274.046
276.359
278.349
280.024
281.406
282.531
283.458
284.249
284.937
285.537
286.061
286.521
286.929
287.293
287.621
287.908
288.167
288.393
288.567
288.704
288.811
288.888
288.937
288.962
288.959
288.918
288.813
288.611
288.266
287.766
287.126
286.43
285.757
285.134
284.407
283.273
281.304
278.253
274.243
269.975
265.797
262.412
260.111
258.797
257.828
256.188
253.468
250.741
248.977
248.107
247.33
248.311
249.361
252.23
250.165
248.933
236.137
224.18
198.672
155.079
112.48
48.8807
33.0387
21.3043
-19.1928
65.689
52.7151
61.1193
65.0594
57.907
68.7246
57.6242
41.7499
3.13392
-38.7589
-70.7833
-69.6737
-24.8567
58.7358
156.703
260.372
331.458
395.538
421.782
473.743
459.629
200.668
201.456
201.806
201.886
202.014
202.31
202.739
203.247
203.826
204.499
205.293
206.229
207.321
208.583
210.034
211.69
213.567
215.676
218.027
220.62
223.45
226.503
229.756
233.178
236.735
240.398
244.142
247.932
251.723
255.469
259.12
262.633
265.967
269.084
271.956
274.558
276.872
278.89
280.613
282.048
283.213
284.143
284.897
285.537
286.093
286.566
286.974
287.335
287.643
287.933
288.184
288.394
288.58
288.725
288.83
288.902
288.945
288.963
288.952
288.908
288.8
288.598
288.246
287.725
287.04
286.274
285.523
284.851
284.147
283.107
281.324
278.423
274.486
270.232
265.943
262.365
259.824
258.305
257.35
256.002
253.499
250.721
248.913
247.925
247.108
248.109
249.209
252.214
250.326
249.327
236.653
225.354
200.842
157.176
115.076
48.5746
32.9191
18.2477
-23.7958
62.0877
53.5753
61.4999
65.7588
57.3996
68.3054
56.1684
37.3492
-2.19358
-44.9159
-77.55
-79.0387
-34.9429
48.3419
147.176
251.927
324.616
391.827
419.966
472.277
459.953
203.522
204.265
204.62
204.73
204.878
205.174
205.59
206.076
206.622
207.246
207.972
208.817
209.793
210.911
212.186
213.632
215.264
217.094
219.132
221.384
223.85
226.526
229.398
232.446
235.646
238.966
242.388
245.891
249.442
253.005
256.536
259.993
263.336
266.529
269.54
272.339
274.902
277.21
279.251
281.019
282.517
283.751
284.731
285.486
286.083
286.584
287.018
287.385
287.698
287.971
288.213
288.429
288.607
288.744
288.851
288.925
288.961
288.971
288.952
288.903
288.793
288.59
288.234
287.693
286.957
286.104
285.245
284.489
283.778
282.839
281.249
278.577
274.754
270.566
266.191
262.443
259.625
257.828
256.804
255.711
253.466
250.637
248.752
247.716
246.839
247.866
249.01
252.139
250.442
249.641
237.197
226.555
203.189
159.241
117.73
48.1286
32.9331
14.9822
-30.0034
57.8374
54.4575
61.8525
66.7824
56.9284
67.7242
54.2944
32.5216
-8.02181
-51.6393
-85.2038
-89.5676
-46.4209
36.4929
136.49
242.652
316.959
387.662
417.986
470.322
460.16
206.233
206.929
207.283
207.417
207.58
207.874
208.274
208.737
209.251
209.831
210.498
211.266
212.144
213.141
214.27
215.542
216.97
218.567
220.341
222.302
224.452
226.793
229.319
232.018
234.875
237.865
240.965
244.162
247.438
250.768
254.117
257.447
260.722
263.904
266.961
269.862
272.582
275.098
277.39
279.444
281.253
282.813
284.122
285.179
285.988
286.576
287.025
287.407
287.746
288.029
288.268
288.465
288.643
288.785
288.888
288.954
288.988
288.991
288.963
288.908
288.794
288.594
288.235
287.678
286.887
285.93
284.925
284.035
283.274
282.422
281.071
278.681
275.053
271.001
266.586
262.731
259.584
257.428
256.224
255.3
253.329
250.453
248.55
247.367
246.519
247.561
248.753
251.999
250.507
249.855
237.777
227.767
205.779
161.228
120.423
47.5889
33.1742
11.6358
-37.7578
52.4949
55.249
62.1727
68.1
56.4979
66.8975
51.9276
27.3633
-14.2939
-58.9798
-93.8268
-101.415
-59.4958
22.9926
124.437
232.424
308.392
382.916
415.792
467.797
460.225
208.806
209.456
209.805
209.957
210.13
210.419
210.803
211.243
211.727
212.267
212.881
213.581
214.375
215.27
216.276
217.402
218.66
220.06
221.613
223.325
225.204
227.252
229.469
231.85
234.385
237.059
239.853
242.748
245.736
248.804
251.928
255.079
258.224
261.327
264.355
267.277
270.068
272.704
275.163
277.43
279.489
281.328
282.939
284.315
285.451
286.342
286.989
287.428
287.753
288.045
288.317
288.533
288.702
288.828
288.933
289.001
289.028
289.028
288.988
288.929
288.81
288.613
288.258
287.69
286.843
285.763
284.569
283.481
282.603
281.807
280.726
278.712
275.382
271.578
267.195
263.164
259.772
257.19
255.669
254.775
253.06
250.115
248.17
246.961
246.066
247.163
248.408
251.754
250.511
249.96
238.397
228.987
208.469
163.293
123.248
46.8751
33.2906
8.42341
-45.8985
46.2518
55.7308
62.0181
69.6981
56.2095
65.9188
49.0889
22.0164
-21.0334
-67.0044
-103.534
-114.458
-74.4771
7.61675
110.746
221.067
298.804
377.375
413.327
464.655
460.114
211.247
211.852
212.193
212.357
212.538
212.82
213.187
213.604
214.06
214.563
215.129
215.77
216.49
217.297
218.198
219.2
220.315
221.55
222.914
224.416
226.061
227.856
229.801
231.897
234.14
236.519
239.023
241.633
244.339
247.135
250.01
252.944
255.912
258.881
261.82
264.7
267.492
270.172
272.72
275.118
277.35
279.4
281.256
282.904
284.335
285.539
286.513
287.254
287.763
288.082
288.311
288.54
288.761
288.911
289.001
289.061
289.084
289.084
289.035
288.968
288.85
288.66
288.31
287.739
286.846
285.635
284.196
282.813
281.723
280.926
280.138
278.62
275.74
272.325
268.11
263.988
260.312
257.229
255.221
254.147
252.608
249.557
247.573
246.252
245.434
246.624
247.973
251.42
250.445
249.94
239.035
230.158
211.299
165.323
126.366
46.1403
33.7059
5.89576
-54.293
38.5674
56.1538
61.5063
71.3606
55.9047
64.6559
45.8477
16.571
-28.1022
-75.7533
-114.505
-128.901
-91.5727
-9.89104
95.1281
208.367
288.061
370.883
410.431
460.819
459.706
213.562
214.123
214.453
214.626
214.811
215.086
215.436
215.831
216.259
216.728
217.252
217.839
218.495
219.225
220.035
220.932
221.923
223.018
224.222
225.545
226.991
228.567
230.277
232.122
234.101
236.212
238.444
240.788
243.229
245.76
248.378
251.073
253.829
256.623
259.426
262.211
264.949
267.614
270.186
272.645
274.976
277.163
279.192
281.049
282.72
284.191
285.452
286.499
287.334
287.954
288.361
288.591
288.73
288.917
289.081
289.16
289.161
289.155
289.111
289.052
288.912
288.732
288.411
287.854
286.912
285.551
283.831
282.068
280.606
279.686
279.186
278.31
276.098
273.3
269.428
265.348
261.372
257.662
255.012
253.494
251.984
248.745
246.699
245.342
244.552
245.878
247.376
250.913
250.287
249.813
239.699
231.263
214.12
167.402
129.839
45.5175
33.8546
4.23127
-61.7797
29.8294
55.6664
59.985
73.0282
55.735
63.205
42.2118
11.1562
-35.4888
-85.3633
-126.848
-144.939
-111.139
-29.8238
77.2264
194.114
276.012
363.233
406.914
456.129
459.097
215.756
216.274
216.592
216.77
216.958
217.223
217.556
217.929
218.332
218.77
219.255
219.794
220.394
221.057
221.788
222.593
223.48
224.454
225.522
226.692
227.967
229.356
230.861
232.487
234.234
236.102
238.087
240.181
242.375
244.657
247.025
249.476
252.003
254.593
257.223
259.87
262.508
265.111
267.656
270.122
272.491
274.749
276.882
278.877
280.722
282.402
283.901
285.209
286.318
287.233
287.963
288.506
288.855
288.988
289.017
289.173
289.289
289.303
289.191
289.132
289.048
288.887
288.54
288.012
287.092
285.621
283.517
281.163
279.15
277.955
277.699
277.652
276.407
274.504
271.257
267.342
263.13
258.74
255.162
252.881
251.165
247.565
245.453
244.025
243.338
244.873
246.637
250.31
250.019
249.546
240.303
232.239
216.884
169.626
133.72
45.3846
34.4362
3.36135
-68.2322
19.3472
55.131
57.6627
74.272
55.4728
61.5628
38.4327
5.79562
-42.9835
-95.6997
-140.675
-162.633
-133.386
-52.4249
56.6597
178.041
262.474
354.342
402.387
450.443
458.313
217.833
218.311
218.615
218.795
218.983
219.239
219.555
219.907
220.285
220.694
221.144
221.641
222.19
222.794
223.457
224.183
224.979
225.85
226.801
227.839
228.969
230.196
231.525
232.96
234.503
236.155
237.915
239.78
241.743
243.796
245.93
248.145
250.441
252.811
255.244
257.722
260.222
262.72
265.195
267.623
269.985
272.263
274.445
276.518
278.47
280.29
281.965
283.481
284.826
285.992
286.981
287.802
288.466
288.963
289.266
289.264
289.158
289.314
289.432
289.373
289.133
289.004
288.808
288.342
287.336
285.743
283.358
280.414
277.468
275.563