/*--------------------------------*- C++ -*----------------------------------*\
| =========                 |                                                 |
| \\      /  F ield         | OpenFOAM: The Open Source CFD Toolbox           |
|  \\    /   O peration     | Version:  2412                                  |
|   \\  /    A nd           | Website:  www.openfoam.com                      |
|    \\/     M anipulation  |                                                 |
\*---------------------------------------------------------------------------*/
FoamFile
{
    version     2.0;
    format      ascii;
    arch        "LSB;label=32;scalar=64";
    class       surfaceScalarField;
    location    "1";
    object      phi;
}
// * * * * * * * * * * * * * * * * * * * * * * * * * * * * * * * * * * * * * //

dimensions      [0 3 -1 0 0 0 0];

oriented        oriented;

internalField   nonuniform List<scalar> 
24930
(
0.0153236
0.0206489
-0.0359984
0.00626845
0.0090552
0.00287134
0.0033971
0.00160191
0.00126941
0.00102506
0.000576836
0.000687717
0.000337355
0.000460812
0.000226953
0.00029824
0.00016261
0.000177781
0.00012045
8.67673e-05
9.09998e-05
1.6338e-05
7.04142e-05
-3.80107e-05
5.4361e-05
-8.04262e-05
4.24515e-05
-0.000113389
3.29948e-05
-0.000138353
2.49621e-05
-0.000157911
1.95169e-05
-0.000172386
1.44442e-05
-0.00018272
1.04043e-05
-0.000189598
7.01335e-06
-0.000193614
3.92823e-06
-0.000195969
1.91847e-06
-0.000196578
9.14419e-07
-0.000195099
-9.8387e-08
-0.000191504
-2.7735e-06
-0.00018809
-5.20785e-06
-0.000183864
-6.03719e-06
-0.000178794
-5.42288e-06
-0.000173054
-5.3422e-06
-0.000166998
-5.97872e-06
-0.000160767
-6.25717e-06
-0.000154501
-6.25719e-06
-0.000148145
-6.29719e-06
-0.000141743
-6.38623e-06
-0.000135356
-6.40794e-06
-0.00012906
-6.31871e-06
-0.000122887
-6.15271e-06
-0.000116826
-6.02481e-06
-0.000110883
-5.93561e-06
-0.000105128
-5.75706e-06
-9.95817e-05
-5.54101e-06
-9.42458e-05
-5.32689e-06
-8.91113e-05
-5.13461e-06
-8.41629e-05
-4.95436e-06
-7.93955e-05
-4.76962e-06
-7.4826e-05
-4.56631e-06
-7.04661e-05
-4.3591e-06
-6.63552e-05
-4.11586e-06
-6.2564e-05
-3.79739e-06
-5.91571e-05
-3.40967e-06
-5.62167e-05
-2.94038e-06
-5.37906e-05
-2.42685e-06
-5.18891e-05
-1.90483e-06
-5.0472e-05
-1.4217e-06
-4.94174e-05
-1.0584e-06
-4.85058e-05
-9.12444e-07
-4.73985e-05
-1.10638e-06
-4.56046e-05
-1.79521e-06
-4.25212e-05
-3.0862e-06
-3.75035e-05
-5.02023e-06
-3.00482e-05
-7.45787e-06
-1.99055e-05
-1.0145e-05
-7.15162e-06
-1.27553e-05
7.90533e-06
-1.50575e-05
2.52645e-05
-1.73592e-05
4.58725e-05
-2.0608e-05
7.19023e-05
-2.60303e-05
0.000106046
-3.41454e-05
0.000150084
-4.40397e-05
0.000202408
-5.23262e-05
0.000257341
-5.49334e-05
0.000304816
-4.74713e-05
0.000334978
-3.01597e-05
0.000339919
-4.94347e-06
0.000318329
2.15834e-05
0.00027569
4.26321e-05
0.000220056
5.56292e-05
0.000164016
5.60373e-05
0.000114455
4.95621e-05
6.34428e-05
5.10127e-05
8.92277e-06
5.45167e-05
-3.61004e-05
4.50169e-05
-5.98927e-05
2.37846e-05
-3.93154e-05
-2.05806e-05
1.31765e-05
-5.2485e-05
4.96515e-05
-3.64708e-05
7.81925e-05
-2.85338e-05
0.000127735
-4.95293e-05
0.000222879
-9.51283e-05
0.000379067
-0.000156168
0.000666343
-0.00028726
0.0010412
-0.00037484
0.00161772
-0.000576508
0.00216667
-0.00054894
0.00262183
-0.00045513
0.00279705
-0.000175249
0.00198673
0.000810332
0.00160733
0.000379417
0.000778794
0.000828522
-0.000310924
0.00108973
-4.26225e-05
-0.000268322
-0.000261628
0.000219018
-5.97867e-05
-0.000201838
0.000419607
-0.000479401
0.000323736
9.58628e-05
0.000702608
-0.000378874
0.000871738
-0.00016913
0.000704992
0.000166738
-0.000580999
0.00128599
-0.00305779
0.00247679
-0.00592184
0.00286405
-0.0081361
0.00221425
-0.00925262
0.00111653
-0.00927097
1.83604e-05
-0.0081899
-0.00108105
-0.00583972
-0.00235019
-0.00341434
-0.00242538
-0.00178368
-0.00163065
-0.00136512
-0.000418543
0.000225274
-0.00159041
-0.00115435
0.0325483
0.0295973
-0.0414967
0.0217109
0.0198926
0.0136518
0.0114562
0.00872743
0.00619379
0.00584628
0.003458
0.00407978
0.00210389
0.0029079
0.00139887
0.0020791
0.000991436
0.00146749
0.000732036
0.00100279
0.000555644
0.000643676
0.000429517
0.000362421
0.000335687
0.000141081
0.000263888
-3.31696e-05
0.000207286
-0.000178829
0.000170563
-0.000292775
0.000133358
-0.000382034
0.000103675
-0.000451147
7.9682e-05
-0.000503816
5.99635e-05
-0.000542675
4.27549e-05
-0.00057061
2.93277e-05
-0.000588962
1.91147e-05
-0.000599155
1.07955e-05
-0.000602495
9.55925e-07
-0.000601184
-6.9952e-06
-0.000595137
-1.19368e-05
-0.000585697
-1.48345e-05
-0.000573152
-1.79966e-05
-0.000558342
-2.07512e-05
-0.000541908
-2.25468e-05
-0.000524284
-2.38878e-05
-0.000505679
-2.49857e-05
-0.00048643
-2.56445e-05
-0.000466808
-2.59234e-05
-0.000446997
-2.60506e-05
-0.00042717
-2.59943e-05
-0.000407447
-2.57939e-05
-0.000387951
-2.54231e-05
-0.000368902
-2.47589e-05
-0.000350368
-2.40492e-05
-0.000332383
-2.33251e-05
-0.000314988
-2.25464e-05
-0.000298171
-2.17687e-05
-0.00028191
-2.10186e-05
-0.000266251
-2.0225e-05
-0.000251254
-1.93689e-05
-0.000237078
-1.83057e-05
-0.000223976
-1.69056e-05
-0.000212189
-1.51999e-05
-0.000201994
-1.31407e-05
-0.000193577
-1.08529e-05
-0.000186989
-8.50142e-06
-0.000182102
-6.31461e-06
-0.000178496
-4.66649e-06
-0.000175406
-4.00502e-06
-0.000171642
-4.8757e-06
-0.000165492
-7.95024e-06
-0.000154833
-1.37503e-05
-0.000137418
-2.24402e-05
-0.000111399
-3.34815e-05
-7.57912e-05
-4.57586e-05
-3.07402e-05
-5.78118e-05
2.2871e-05
-6.86732e-05
8.50289e-05
-7.95203e-05
0.000158796
-9.43773e-05
0.000251137
-0.000118372
0.000370826
-0.000153834
0.000523437
-0.00019665
0.000703698
-0.000232586
0.000892681
-0.000243917
0.00105765
-0.000212441
0.00116537
-0.00013788
0.00118844
-2.8014e-05
0.00112034
8.96759e-05
0.000976531
0.000186429
0.000781803
0.000250345
0.000577034
0.000260793
0.000387463
0.00023912
0.000193512
0.000244956
-2.25085e-06
0.000250275
-0.000151295
0.000194056
-0.000225179
9.76669e-05
-0.000143943
-0.000101813
4.67662e-05
-0.000243185
0.000188662
-0.000178346
0.000289036
-0.000128885
0.000456091
-0.000216553
0.000741757
-0.00038077
0.00125906
-0.000673429
0.00215431
-0.00118249
0.00340826
-0.00162875
0.00524702
-0.00241523
0.00705019
-0.00235211
0.00876338
-0.00216828
0.00932728
-0.00073912
0.00710582
0.0030318
0.00589055
0.00159469
0.00290167
0.00381739
-0.000799055
0.00479048
-0.000191619
-0.000875777
-0.000849111
0.00087651
-0.000139512
-0.000911462
0.00148065
-0.00209957
0.00119794
0.000378569
0.0023728
-0.00155374
0.00287368
-0.000670015
0.00175843
0.00128199
-0.00310674
0.00615116
-0.0116384
0.0110084
-0.0207058
0.0119315
-0.0271865
0.00869489
-0.0299755
0.00390559
-0.0294963
-0.000460861
-0.0257445
-0.00483286
-0.0184655
-0.00962911
-0.0104412
-0.0104497
-0.00525472
-0.00681717
-0.00396522
-0.00170804
0.000580368
-0.006136
-0.00492069
0.0421893
0.0320018
-0.0445938
0.034862
0.0272199
0.0263599
0.0199583
0.0190868
0.0134669
0.0137332
0.00881159
0.00999833
0.00583881
0.00737986
0.00401736
0.00548811
0.00288316
0.00407641
0.0021437
0.00299531
0.00163677
0.00215113
0.00127376
0.00148274
0.00100412
0.000948417
0.000798202
0.000518918
0.000636762
0.000174425
0.000515046
-0.00010401
0.000411809
-0.000329659
0.000329372
-0.000509478
0.000259586
-0.000651822
0.000202393
-0.000762653
0.000153513
-0.000847577
0.000114127
-0.000910615
8.13664e-05
-0.000954455
5.40931e-05
-0.00098305
2.98691e-05
-0.000998559
9.52789e-06
-0.00100364
-5.78977e-06
-0.00100034
-1.80131e-05
-0.000989557
-2.89112e-05
-0.000972832
-3.7358e-05
-0.000951617
-4.3691e-05
-0.000926838
-4.87156e-05
-0.000899135
-5.27094e-05
-0.000869298
-5.5433e-05
-0.000837973
-5.71717e-05
-0.000805588
-5.84167e-05
-0.000772551
-5.905e-05
-0.000739194
-5.91521e-05
-0.000705836
-5.87489e-05
-0.000672925
-5.76391e-05
-0.000640649
-5.63237e-05
-0.000609112
-5.48744e-05
-0.000578434
-5.32265e-05
-0.000548637
-5.15567e-05
-0.000519711
-4.9939e-05
-0.000491752
-4.81916e-05
-0.000464893
-4.62409e-05
-0.000439437
-4.37722e-05
-0.000415852
-4.04959e-05
-0.000394598
-3.64598e-05
-0.000376187
-3.1561e-05
-0.000360978
-2.60729e-05
-0.000349082
-2.04067e-05
-0.000340276
-1.51254e-05
-0.000333813
-1.11339e-05
-0.000328302
-9.52027e-06
-0.000321576
-1.16072e-05
-0.000310521
-1.90096e-05
-0.000291275
-3.30018e-05
-0.000259699
-5.40205e-05
-0.000212346
-8.08395e-05
-0.000147274
-0.000110837
-6.45685e-05
-0.000140523
3.43624e-05
-0.000167609
0.000149435
-0.000194597
0.00028583
-0.000230776
0.000455306
-0.000287851
0.000672872
-0.000371401
0.000947912
-0.00047169
0.0012715
-0.000556172
0.00161113
-0.000583549
0.00191047
-0.000511783
0.00211079
-0.000338199
0.00216265
-7.98756e-05
0.00205027
0.000202047
0.00179726
0.000439438
0.00144316
0.000604428
0.00105836
0.00064559
0.000691728
0.000605737
0.000319445
0.000617229
-3.8166e-05
0.000607876
-0.000306505
0.000462385
-0.000428641
0.000219796
-0.000268628
-0.000261826
8.90527e-05
-0.000600856
0.000363539
-0.000452815
0.000548788
-0.000314113
0.000835654
-0.000503387
0.00129674
-0.000841829
0.00217892
-0.00155557
0.00367171
-0.00267525
0.0058326
-0.00378961
0.00894925
-0.00553183
0.0120873
-0.00549017
0.0152673
-0.00534824
0.0164234
-0.0018952
0.0130568
0.00639844
0.0110677
0.00358379
0.00565961
0.00922549
-0.00108211
0.0115322
-0.000376402
-0.00158151
-0.00149074
0.00199085
-0.000156053
-0.00224617
0.00273761
-0.00499324
0.00225309
0.000863072
0.00422808
-0.00352874
0.0049284
-0.00137034
0.00225107
0.00395931
-0.00711137
0.0155136
-0.0223912
0.0262883
-0.0375354
0.0270756
-0.0475501
0.0187096
-0.0511908
0.00754633
-0.0496192
-0.00203248
-0.0429308
-0.0115212
-0.030627
-0.021933
-0.0170906
-0.0239861
-0.00829352
-0.0156142
-0.00632394
-0.0036776
0.000892377
-0.0133523
-0.0113674
0.0479838
0.0315969
-0.0475788
0.0446171
0.0305865
0.0382702
0.0263052
0.0309375
0.0207996
0.0241612
0.0155879
0.0186016
0.0113985
0.014285
0.00833393
0.0109809
0.00618723
0.00843559
0.00468903
0.00644884
0.00362354
0.00487713
0.00284552
0.00361945
0.00226184
0.00260415
0.00181349
0.00177957
0.00146131
0.00110906
0.00118554
0.000561421
0.00095948
0.000115851
0.00077502
-0.00024775
0.000623284
-0.000541897
0.000496558
-0.000777106
0.000388514
-0.000963347
0.000300189
-0.0011079
0.000225888
-0.00121718
0.000163548
-0.00129774
0.000110458
-0.00135331
6.72812e-05
-0.00138786
2.97984e-05
-0.00140489
-9.59495e-07
-0.0014087
-2.52177e-05
-0.00140057
-4.53088e-05
-0.00138288
-6.1347e-05
-0.00135755
-7.41182e-05
-0.00132589
-8.4368e-05
-0.00128936
-9.18998e-05
-0.00124919
-9.72799e-05
-0.00120623
-0.000101372
-0.00116127
-0.000104025
-0.00111498
-0.000105428
-0.00106798
-0.000105714
-0.00102103
-0.000104563
-0.000974539
-0.000102821
-0.000928738
-0.000100687
-0.00088388
-9.80842e-05
-0.000840065
-9.53629e-05
-0.000797328
-9.26728e-05
-0.000755846
-8.9683e-05
-0.000715858
-8.62432e-05
-0.000677841
-8.17999e-05
-0.000642522
-7.5822e-05
-0.000610623
-6.83655e-05
-0.000582939
-5.92564e-05
-0.000560042
-4.89818e-05
-0.000542129
-3.83302e-05
-0.000528885
-2.8376e-05
-0.000519194
-2.08296e-05
-0.000510962
-1.77581e-05
-0.000500904
-2.16705e-05
-0.000484313
-3.56063e-05
-0.00045534
-6.19796e-05
-0.000407671
-0.000101695
-0.000335953
-0.000152563
-0.000237049
-0.000209746
-0.000110852
-0.000266726
4.07109e-05
-0.000319177
0.000217378
-0.000371269
0.000426314
-0.000439716
0.000684031
-0.000545572
0.0010119
-0.000699272
0.00142345
-0.000883245
0.00190633
-0.00103904
0.00241453
-0.00109175
0.00286733
-0.000964576
0.00317861
-0.000649482
0.00327344
-0.000174715
0.00312264
0.000352844
0.00275422
0.000807848
0.00222008
0.00113855
0.00162088
0.00124478
0.00103501
0.00119159
0.000442898
0.00120933
-0.000105358
0.00115612
-0.000501136
0.000858151
-0.000668445
0.000387097
-0.000411485
-0.000518786
0.000144036
-0.00115637
0.000578406
-0.000887167
0.000860534
-0.000596217
0.00126235
-0.00090517
0.00187708
-0.00145652
0.00310965
-0.0027881
0.00517729
-0.00474286
0.00826893
-0.00688121
0.0126346
-0.00989749
0.0171598
-0.0100153
0.0220068
-0.0101952
0.0239982
-0.00388663
0.0197872
0.0106095
0.0171736
0.00619737
0.00922206
0.017177
-0.00103986
0.0217942
-0.000578097
-0.0020433
-0.00216952
0.00358227
-8.21809e-05
-0.00433353
0.00421421
-0.00928964
0.00350634
0.00157093
0.00625427
-0.00627668
0.00691446
-0.00203053
0.00190375
0.00897002
-0.0129355
0.0303529
-0.0354293
0.048782
-0.0561826
0.047829
-0.0686619
0.0311889
-0.0722071
0.0110915
-0.0689963
-0.00524326
-0.0591302
-0.0213873
-0.0420534
-0.0390098
-0.0231254
-0.0429141
-0.0107481
-0.0279915
-0.00834228
-0.00608341
0.00119661
-0.0228912
-0.0204965
0.0517996
0.0304982
-0.0507009
0.0511024
0.0312836
0.0476487
0.0297589
0.0420836
0.0263647
0.035603
0.0220685
0.0292443
0.0177572
0.0235965
0.0139817
0.0188503
0.0109334
0.014965
0.00857435
0.0118115
0.00677705
0.009251
0.00540605
0.00716384
0.00434903
0.00545471
0.00352263
0.00404962
0.0028664
0.00289282
0.00234234
0.00193792
0.00191437
0.00115031
0.00156267
0.000502263
0.00127141
-2.76673e-05
0.00102653
-0.00046308
0.000823882
-0.000814214
0.000651294
-0.00109464
0.00050647
-0.00131507
0.000384348
-0.00148545
0.000280593
-0.00161274
0.0001945
-0.0017045
0.000121568
-0.00176729
6.09821e-05
-0.00180218
9.67436e-06
-0.00181801
-2.93378e-05
-0.00181719
-6.21561e-05
-0.00180181
-8.9575e-05
-0.00177461
-0.000111545
-0.00173806
-0.000128379
-0.00169424
-0.000141052
-0.00164465
-0.000150965
-0.00159067
-0.00015802
-0.00153349
-0.000162591
-0.00147416
-0.000165002
-0.00141391
-0.00016479
-0.00135346
-0.000163274
-0.00129327
-0.000160884
-0.00123381
-0.000157548
-0.00117531
-0.000153852
-0.00111791
-0.000150071
-0.00106191
-0.000145693
-0.00100769
-0.000140471
-0.000955956
-0.000133544
-0.000907736
-0.000124048
-0.000864071
-0.000112038
-0.000826084
-9.72529e-05
-0.000794614
-8.04639e-05
-0.000769969
-6.29845e-05
-0.000751746
-4.66047e-05
-0.000738429
-3.41523e-05
-0.000727129
-2.90634e-05
-0.000713308
-3.54972e-05
-0.000690461
-5.84582e-05
-0.000650489
-0.000101957
-0.000584603
-0.000167586
-0.000485259
-0.000251913
-0.000347884
-0.000347128
-0.000172035
-0.000442582
3.98472e-05
-0.000531065
0.000287134
-0.000618562
0.000578753
-0.00073134
0.000935745
-0.000902569
0.00138582
-0.00114935
0.00194699
-0.00144442
0.00260399
-0.00169604
0.00329805
-0.00178581
0.00392392
-0.00159045
0.00436698
-0.00109253
0.00452307
-0.00033081
0.00434433
0.000531575
0.0038588
0.00129336
0.00312592
0.00187143
0.00227615
0.00209454
0.00142434
0.00204339
0.000566911
0.00206676
-0.000201345
0.00192436
-0.000733928
0.00139072
-0.000941546
0.000594706
-0.000568408
-0.000891926
0.000215713
-0.00194048
0.000837067
-0.00150851
0.00122651
-0.00098564
0.00173032
-0.00140894
0.00246447
-0.00219064
0.00401749
-0.00434107
0.00661368
-0.00733903
0.0106345
-0.010902
0.016172
-0.0154349
0.0221106
-0.0159539
0.02877
-0.0168545
0.03188
-0.00699667
0.0271872
0.0153024
0.0241943
0.00919028
0.0137465
0.0276248
-0.000534686
0.0360754
-0.000764032
-0.00181399
-0.00285794
0.00567619
0.000100722
-0.00729222
0.00592193
-0.0151109
0.00497976
0.00251309
0.00842802
-0.00972495
0.00871395
-0.00231646
0.00048423
0.0171997
-0.0208039
0.0516411
-0.0507285
0.0787065
-0.0761865
0.073287
-0.0898421
0.0448444
-0.0924443
0.0136937
-0.0871908
-0.0104967
-0.074054
-0.0345241
-0.052391
-0.0606728
-0.0285422
-0.0667628
-0.0126677
-0.0438661
-0.0100206
-0.00873048
0.00155452
-0.0344663
-0.0323178
0.0549279
0.0295516
-0.0539813
0.055436
0.0307756
0.0542856
0.0309093
0.0510922
0.029558
0.0462362
0.0269246
0.0404582
0.0235353
0.0344826
0.0199573
0.028826
0.01659
0.0237629
0.0136374
0.019381
0.011159
0.0156584
0.00912867
0.0125249
0.00748262
0.0098976
0.00614993
0.00769804
0.00506598
0.00585887
0.00418148
0.00432127
0.00345195
0.0030375
0.00284645
0.00196795
0.00234101
0.00107937
0.0019152
0.000345317
0.00155806
-0.000257925
0.00125466
-0.000749928
0.000998549
-0.00114645
0.000780875
-0.00146219
0.000595856
-0.00170855
0.000440125
-0.00189614
0.000308846
-0.00203429
0.00019901
-0.00213353
0.000109175
-0.00219516
3.24516e-05
-0.00222833
-2.90016e-05
-0.00223942
-7.85467e-05
-0.00222963
-0.000121306
-0.00220344
-0.000154489
-0.00216426
-0.000180193
-0.00211457
-0.00020066
-0.0020566
-0.000215992
-0.00199233
-0.000226845
-0.00192343
-0.000233858
-0.00185177
-0.000236426
-0.00177856
-0.000236484
-0.00170462
-0.000234837
-0.00163071
-0.000231449
-0.00155733
-0.000227219
-0.00148478
-0.000222622
-0.00141355
-0.000216938
-0.00134422
-0.000209808
-0.00127777
-0.000200007
-0.00121558
-0.000186236
-0.00115909
-0.000168538
-0.0011098
-0.000146551
-0.00106887
-0.000121404
-0.00103676
-9.51053e-05
-0.00101298
-7.03918e-05
-0.000995576
-5.15634e-05
-0.000980778
-4.38676e-05
-0.000962647
-5.3634e-05
-0.00093268
-8.84303e-05
-0.000880271
-0.000154371
-0.000793864
-0.000253998
-0.000663437
-0.000382346
-0.000482741
-0.000527831
-0.000250872
-0.000674459
2.92176e-05
-0.000811162
0.000356231
-0.000945582
0.00074056
-0.00111567
0.0012074
-0.00136941
0.00179067
-0.00173263
0.00251337
-0.00216711
0.0033582
-0.00254088
0.00425504
-0.00268264
0.00507472
-0.00241013
0.00567316
-0.00169097
0.00591368
-0.000571336
0.00572331
0.000721943
0.00512413
0.00189253
0.00417701
0.00281853
0.00304009
0.00323145
0.00187183
0.00321165
0.000698841
0.00323973
-0.00032121
0.0029444
-0.000998987
0.00206849
-0.0012412
0.00083691
-0.000733684
-0.00139945
0.000307664
-0.00298182
0.00114118
-0.00234201
0.00164481
-0.00148925
0.00222904
-0.00199314
0.00303569
-0.00299725
0.0048665
-0.00617182
0.0079226
-0.0103951
0.012873
-0.0158523
0.0194495
-0.0220114
0.0268084
-0.0233128
0.035373
-0.0254191
0.0398406
-0.0114643
0.0350776
0.0200654
0.0320399
0.012228
0.0193764
0.0402884
0.000532497
0.0549193
-0.000881149
-0.000400393
-0.00350659
0.00830163
0.000414735
-0.0112136
0.00785881
-0.0225549
0.00669453
0.00367737
0.0107066
-0.013737
0.0101611
-0.00177096
-0.00219681
0.0295576
-0.0309043
0.0803485
-0.0680765
0.115879
-0.0969138
0.102124
-0.110366
0.0582962
-0.111374
0.0147023
-0.103915
-0.0179558
-0.0875187
-0.0509206
-0.0617036
-0.0864878
-0.0333647
-0.0951017
-0.0140469
-0.0631839
-0.0112894
-0.011488
0.00200959
-0.0477653
-0.0468154
0.0581467
0.0288919
-0.0574869
0.058905
0.0300173
0.0589967
0.0308175
0.0577413
0.0308135
0.0549015
0.0297644
0.0506765
0.0277602
0.0455172
0.0251167
0.0399298
0.0221774
0.0343468
0.0192204
0.0290713
0.0164345
0.024275
0.013925
0.0200259
0.0117317
0.0163245
0.00985143
0.0131346
0.00825592
0.0104058
0.00691023
0.00808273
0.00577494
0.00611311
0.00481606
0.00444952
0.00400466
0.00304975
0.00331509
0.00187797
0.00273004
0.000901904
0.00223086
9.47534e-05
0.00180564
-0.000567806
0.00144313
-0.00110614
0.0011337
-0.00153785
0.000871181
-0.00187844
0.000649245
-0.00214162
0.000462381
-0.00233874
0.000306543
-0.00248338
0.000177198
-0.00258126
6.88009e-05
-0.00263771
-2.211e-05
-0.00266563
-9.33335e-05
-0.00266567
-0.000154361
-0.00264393
-0.000201907
-0.00260438
-0.000240219
-0.00255056
-0.000269815
-0.00248554
-0.000291839
-0.00241193
-0.00030743
-0.00233248
-0.000315856
-0.00224911
-0.00031985
-0.00216317
-0.000320779
-0.00207591
-0.000318703
-0.0019882
-0.000314924
-0.0019006
-0.000310221
-0.00181389
-0.00030366
-0.00172893
-0.000294771
-0.00164704
-0.00028191
-0.00157004
-0.00026324
-0.0014998
-0.000238785
-0.0014383
-0.000208066
-0.00138706
-0.000172653
-0.00134674
-0.000135435
-0.00131677
-0.000100361
-0.00129474
-7.35988e-05
-0.00127591
-6.2707e-05
-0.00125279
-7.67597e-05
-0.00121468
-0.000126546
-0.00114823
-0.000220829
-0.00103883
-0.000363396
-0.000873736
-0.000547451
-0.000644798
-0.000756777
-0.000350542
-0.000968723
5.66978e-06
-0.00116738
0.000421113
-0.00136103
0.000907611
-0.00160218
0.00149388
-0.00195568
0.00221987
-0.00245863
0.00311413
-0.00306138
0.00415868
-0.00358542
0.005274
-0.00379796
0.00630841
-0.00344454
0.00708825
-0.00247081
0.00744124
-0.000924332
0.00726264
0.000900531
0.00656095
0.00259422
0.00538995
0.00398952
0.00393095
0.00469044
0.00239309
0.0047495
0.000850383
0.00478244
-0.000455364
0.00425013
-0.00128683
0.00289993
-0.00155777
0.00110784
-0.000900106
-0.00205711
0.000422522
-0.00430445
0.00148945
-0.00340892
0.0021091
-0.00210888
0.00274205
-0.00262605
0.00356107
-0.00381623
0.00561528
-0.00822597
0.00904233
-0.0138221
0.0149172
-0.0217271
0.0223592
-0.0294533
0.031151
-0.0321046
0.0415983
-0.0358663
0.0476056
-0.0174716
0.0432086
0.0244623
0.0405264
0.0149103
0.0262201
0.0545947
0.00225736
0.0788821
-0.000858914
0.00271583
-0.00405124
0.0114939
0.000860797
-0.0161256
0.0100048
-0.031699
0.00866796
0.00501423
0.0130323
-0.0181014
0.0110656
0.000195677
-0.00644527
0.0470686
-0.0433122
0.117215
-0.087095
0.159662
-0.117643
0.132672
-0.129697
0.07035
-0.128863
0.0138687
-0.119252
-0.0275672
-0.0997146
-0.0704576
-0.0701055
-0.116097
-0.0377879
-0.127419
-0.0150127
-0.0859591
-0.0121526
-0.0143481
0.00262352
-0.0625414
-0.0639821
0.0617224
0.0284179
-0.0612484
0.0623524
0.0293872
0.0628431
0.0303268
0.0626945
0.030962
0.0614799
0.0309791
0.0590113
0.0302289
0.0553604
0.0287676
0.0507797
0.0267581
0.045606
0.0243941
0.0401815
0.021859
0.0348002
0.0193063
0.0296803
0.0168518
0.0249592
0.0145726
0.0207054
0.0125097
0.0169375
0.0106781
0.0136409
0.00907148
0.0107836
0.00767328
0.00832586
0.0064625
0.00622516
0.00541592
0.00444116
0.00451423
0.00293507
0.00373704
0.00167209
0.00306848
0.000620718
0.00249411
-0.000247172
0.00200127
-0.00095651
0.0015802
-0.00152924
0.00122204
-0.00198506
0.00091851
-0.00234118
0.000662846
-0.00261238
0.000448388
-0.00281326
0.000269572
-0.00295735
0.000121918
-0.00304403
-6.54889e-06
-0.00309469
-0.000103642
-0.00310957
-0.000187013
-0.00309569
-0.000254109
-0.00305848
-0.000307024
-0.00300266
-0.000347624
-0.00293214
-0.000377905
-0.00285094
-0.000397039
-0.00276201
-0.000408787
-0.00266746
-0.000415332
-0.00256924
-0.000416912
-0.0024688
-0.000415359
-0.00236711
-0.000411903
-0.00226537
-0.000405412
-0.00216483
-0.000395324
-0.0020672
-0.000379546
-0.00197485
-0.000355592
-0.00189018
-0.000323469
-0.00181569
-0.000282568
-0.00175336
-0.000234987
-0.0017041
-0.000184707
-0.00166728
-0.000137183
-0.00164
-0.000100891
-0.00161645
-8.62547e-05
-0.0015875
-0.000105718
-0.00154005
-0.000174002
-0.00145779
-0.000303099
-0.00132284
-0.00049835
-0.00111947
-0.000750822
-0.000837493
-0.00103876
-0.000474772
-0.00133145
-3.54897e-05
-0.00160667
0.000476829
-0.00187336
0.00107386
-0.00219922
0.00178758
-0.00266941
0.00266372
-0.00333477
0.00373721
-0.00413487
0.004991
-0.00483921
0.00633893
-0.00514588
0.00760897
-0.00471457
0.0085985
-0.00346034
0.00909725
-0.00142309
0.00896151
0.00103626
0.00817759
0.00337813
0.00678154
0.00538555
0.00497005
0.00650192
0.00300892
0.00671062
0.00103921
0.00675214
-0.000588546
0.00587788
-0.00158299
0.00389436
-0.00187814
0.00140297
-0.00105935
-0.00287591
0.000561146
-0.00592494
0.00187634
-0.0047241
0.00260693
-0.00283945
0.00324584
-0.00326491
0.0040049
-0.00457525
0.00622026
-0.0104413
0.00991607
-0.0175179
0.0167126
-0.0285236
0.024832
-0.0375726
0.0351056
-0.0423782
0.0472473
-0.0480078
0.0548844
-0.0251087
0.0512938
0.0280528
0.0493712
0.0168329
0.0343325
0.0696335
0.00489258
0.108322
-0.000601911
0.00821027
-0.0044052
0.0152972
0.00144739
-0.0219783
0.0123194
-0.042571
0.0109082
0.00642537
0.0153263
-0.0225195
0.011211
0.00431097
-0.0125197
0.0707993
-0.0579921
0.162688
-0.10726
0.20893
-0.137698
0.16311
-0.147544
0.0801952
-0.144985
0.0113097
-0.133475
-0.039077
-0.110948
-0.0929846
-0.0778908
-0.149154
-0.0419903
-0.16332
-0.0156445
-0.112305
-0.0125793
-0.0174132
0.00343903
-0.0785597
-0.0838172
0.065649
0.0280362
-0.0652673
0.066113
0.0289232
0.0666009
0.0298389
0.0668754
0.0306875
0.0666067
0.0312478
0.0655004
0.0313353
0.0633913
0.0308767
0.0602651
0.0298843
0.0562361
0.028423
0.0515078
0.0265873
0.0463288
0.0244853
0.0409546
0.0222261
0.0356154
0.0199117
0.0304951
0.01763
0.0257223
0.0154509
0.0213719
0.0134218
0.0174756
0.0115696
0.0140341
0.00990408
0.011028
0.00842207
0.00842756
0.0071148
0.00619672
0.00596795
0.00429819
0.00496689
0.00269518
0.00409683
0.00135287
0.00334351
0.000238804
0.00269427
-0.000676315
0.00213738
-0.00141971
0.00166219
-0.00201553
0.00125873
-0.00248515
0.000917915
-0.00284706
0.000631387
-0.00311764
0.000392516
-0.00331842
0.000194282
-0.00344568
2.36663e-05
-0.00352515
-0.000107535
-0.00356012
-0.000219161
-0.00355823
-0.000308907
-0.00352665
-0.000379156
-0.00347125
-0.000433265
-0.00339779
-0.000470489
-0.0033107
-0.000495884
-0.00321322
-0.000512811
-0.00310831
-0.000521809
-0.00299826
-0.000525395
-0.0028847
-0.000525467
-0.00276938
-0.000520744
-0.00265409
-0.000510624
-0.00254107
-0.000492573
-0.00243332
-0.000463341
-0.00233386
-0.000422934
-0.00224584
-0.000370602
-0.00217177
-0.000309064
-0.00211286
-0.00024363
-0.00206847
-0.000181581
-0.00203518
-0.000134187
-0.00200609
-0.000115345
-0.00197028
-0.000141537
-0.00191212
-0.000232168
-0.00181216
-0.000403061
-0.00164909
-0.000661426
-0.00140405
-0.000995877
-0.00106463
-0.00137819
-0.000628027
-0.00176806
-9.92519e-05
-0.00213546
0.000516689
-0.00248931
0.00123091
-0.00291346
0.00207792
-0.00351642
0.003109
-0.00436586
0.00436645
-0.00539233
0.00583626
-0.00630902
0.00742885
-0.00673847
0.00895477
-0.00624048
0.0101838
-0.0046894
0.0108664
-0.00210562
0.010813
0.00108965
0.00997825
0.00421285
0.00836754
0.00699625
0.00618127
0.00868818
0.00374549
0.00914639
0.00128971
0.00920792
-0.000699078
0.00786665
-0.00186795
0.00506322
-0.00218608
0.00172109
-0.00120257
-0.00385943
0.000721701
-0.0078492
0.00229093
-0.00629331
0.00311843
-0.00366692
0.00370885
-0.00385529
0.00432555
-0.00519191
0.00663656
-0.0127522
0.0104965
-0.0213778
0.0182091
-0.0362362
0.02685
-0.0462135
0.0387143
-0.0542425
0.0521129
-0.0614064
0.0614036
-0.0343994
0.0590624
0.030394
0.058216
0.0176793
0.0437
0.0841495
0.00860246
0.14342
-1.61566e-05
0.0168288
-0.0044661
0.0197472
0.00217809
-0.0286225
0.0147441
-0.0551371
0.0134099
0.00775958
0.0174861
-0.0265957
0.010361
0.0114361
-0.0206107
0.101771
-0.0747931
0.21687
-0.128001
0.262137
-0.156618
0.191728
-0.164036
0.0876133
-0.16018
0.00745341
-0.147099
-0.0521577
-0.121675
-0.118409
-0.0852984
-0.18553
-0.0461343
-0.202484
-0.0160642
-0.142375
-0.0125936
-0.0208838
0.00450241
-0.0956558
-0.106347
0.0698866
0.0277039
-0.0695543
0.0702464
0.0285634
0.0706392
0.029446
0.070983
0.0303436
0.071105
0.0311259
0.0707825
0.0316577
0.0698063
0.031853
0.0680264
0.0316642
0.0653764
0.031073
0.0618763
0.0300874
0.0576225
0.028739
0.0527718
0.0270768
0.0475209
0.0251627
0.0420819
0.023069
0.0366583
0.0208745
0.0314227
0.0186574
0.0265047
0.0164875
0.0219883
0.0144206
0.0179163
0.0124941
0.0143009
0.0107303
0.0111315
0.00913738
0.00838382
0.00771455
0.00602553
0.00645504
0.00402066
0.00534851
0.00233207
0.00438306
0.00092352
0.00354616
-0.000239399
0.00282527
-0.00118846
0.00220774
-0.00195372
0.00168305
-0.00256085
0.00123846
-0.00303341
0.000865119
-0.00339055
0.000551528
-0.00365858
0.000291784
-0.0038389
7.27838e-05
-0.0039544
-0.000103679
-0.00401581
-0.00024748
-0.00403094
-0.000363974
-0.00400866
-0.000455506
-0.00395737
-0.000521774
-0.00388356
-0.000569692
-0.00379212
-0.000604247
-0.00368747
-0.000626449
-0.00357313
-0.000639725
-0.00345166
-0.00064694
-0.00332564
-0.000646768
-0.0031976
-0.000638677
-0.00307044
-0.000619743
-0.00294794
-0.000585839
-0.00283387
-0.000537013
-0.00273211
-0.000472373
-0.00264583
-0.000395351
-0.00257662
-0.000312846
-0.00252389
-0.000234319
-0.00248373
-0.000174357
-0.0024481
-0.000150983
-0.00240422
-0.000185423
-0.00233384
-0.000302546
-0.0022143
-0.000522608
-0.00202072
-0.000855011
-0.00173102
-0.00128559
-0.00133055
-0.00177867
-0.000815772
-0.00228285
-0.000192653
-0.00275859
0.000531839
-0.00321381
0.00136756
-0.00374919
0.00235089
-0.00449976
0.00353848
-0.00555345
0.0049813
-0.00683516
0.00667079
-0.00799851
0.00851767
-0.00858535
0.0103186
-0.00804139
0.011818
-0.00618876
0.0127265
-0.00301412
0.012803
0.00101307
0.0119612
0.00505463
0.010161
0.00879649
0.00759017
0.011259
0.00463446
0.0121021
0.00163363
0.0122087
-0.000758315
0.0102586
-0.002117
0.00642189
-0.00246271
0.00206678
-0.00132124
-0.0050009
0.000898753
-0.0100692
0.00271589
-0.00811044
0.00361506
-0.00456607
0.00409087
-0.00433105
0.00447641
-0.00557741
0.00682027
-0.015096
0.0107523
-0.0253097
0.0193684
-0.0448523
0.0284657
-0.0553107
0.0420797
-0.0678565
0.0559756
-0.0753022
0.0669555
-0.0453793
0.0663362
0.0310133
0.0666817
0.0173338
0.0542354
0.0965958
0.0135405
0.184115
0.00131222
0.0290571
-0.00411425
0.0251736
0.00305909
-0.0357959
0.0172132
-0.0692912
0.0161468
0.00882596
0.0193657
-0.0298145
0.00826423
0.0225376
-0.0308593
0.140895
-0.093475
0.279486
-0.148653
0.317315
-0.174251
0.217326
-0.179571
0.0929325
-0.17486
0.00274236
-0.160595
-0.0664226
-0.132257
-0.146746
-0.0924865
-0.225301
-0.0502571
-0.244713
-0.0163153
-0.176317
-0.0122141
-0.024985
0.00584022
-0.11371
-0.131636
0.0744345
0.0274048
-0.0741354
0.0747391
0.0282589
0.0750559
0.0291292
0.0753598
0.0300396
0.0755788
0.030907
0.075593
0.0316436
0.0752528
0.0321932
0.0744047
0.0325124
0.072916
0.0325616
0.0706935
0.0323098
0.0676949
0.0317376
0.0639344
0.0308373
0.0594843
0.029613
0.0544706
0.0280828
0.0490629
0.0262822
0.043455
0.0242652
0.0378421
0.0221004
0.0323981
0.0198646
0.0272599
0.0176322
0.0225219
0.0154684
0.0182374
0.013422
0.0144263
0.0115257
0.0110839
0.00979752
0.00818895
0.00824368
0.00570981
0.00686242
0.00360944
0.00564667
0.00184858
0.00458615
0.000387715
0.00366849
-0.000809139
0.0028798
-0.00177851
0.00220783
-0.00255254
0.00163924
-0.00315939
0.00115848
-0.00362304
0.000755464
-0.00397247
0.0004222
-0.00421829
0.000142126
-0.00437914
-8.65946e-05
-0.00447493
-0.000268138
-0.00451262
-0.000417775
-0.00450496
-0.000529431
-0.00446166
-0.000612995
-0.00438996
-0.000675935
-0.00429635
-0.000720049
-0.00418615
-0.00074992
-0.00406327
-0.000769814
-0.0039315
-0.000778547
-0.00379435
-0.000775839
-0.00365559
-0.000758505
-0.00352
-0.000721442
-0.0033922
-0.000664812
-0.003277
-0.000587593
-0.00317833
-0.000494025
-0.00309831
-0.000392883
-0.00303645
-0.000296182
-0.00298843
-0.000222381
-0.00294509
-0.00019433
-0.0028918
-0.000238716
-0.00280768
-0.000386671
-0.00266682
-0.000663478
-0.00244079