/*--------------------------------*- C++ -*----------------------------------*\
| =========                 |                                                 |
| \\      /  F ield         | OpenFOAM: The Open Source CFD Toolbox           |
|  \\    /   O peration     | Version:  2412                                  |
|   \\  /    A nd           | Website:  www.openfoam.com                      |
|    \\/     M anipulation  |                                                 |
\*---------------------------------------------------------------------------*/
FoamFile
{
    version     2.0;
    format      ascii;
    arch        "LSB;label=32;scalar=64";
    class       surfaceScalarField;
    location    "1";
    object      phi_0;
}
// * * * * * * * * * * * * * * * * * * * * * * * * * * * * * * * * * * * * * //

dimensions      [0 3 -1 0 0 0 0];

oriented        oriented;

internalField   nonuniform List<scalar> 
24930
(
0.0153236
0.020649
-0.0359984
0.00626839
0.00905522
0.00287132
0.00339709
0.00160195
0.00126942
0.00102511
0.00057688
0.000687707
0.000337362
0.000460726
0.000226888
0.000298136
0.000162548
0.000177746
0.00012047
8.68514e-05
9.09397e-05
1.64299e-05
7.04179e-05
-3.80238e-05
5.44143e-05
-8.05475e-05
4.25006e-05
-0.000113513
3.29959e-05
-0.000138371
2.49251e-05
-0.000157781
1.94618e-05
-0.000172197
1.43605e-05
-0.000182705
1.03326e-05
-0.000189978
7.23483e-06
-0.000194189
4.7204e-06
-0.000195604
2.07233e-06
-0.000195403
-1.39959e-06
-0.000194575
-3.46912e-06
-0.000193085
-1.68861e-06
-0.000188604
-7.05992e-07
-0.000183367
-3.45603e-06
-0.000178538
-5.04812e-06
-0.00017297
-6.13681e-06
-0.000167096
-5.96328e-06
-0.000160872
-6.06927e-06
-0.000154478
-6.37554e-06
-0.000148073
-6.5278e-06
-0.000141738
-6.38738e-06
-0.000135421
-6.23016e-06
-0.0001291
-6.22104e-06
-0.000122862
-6.24258e-06
-0.000116784
-6.14397e-06
-0.000110875
-5.91532e-06
-0.000105153
-5.67391e-06
-9.95941e-05
-5.53394e-06
-9.42261e-05
-5.38057e-06
-8.90823e-05
-5.15e-06
-8.41494e-05
-4.92127e-06
-7.93959e-05
-4.74181e-06
-7.48233e-05
-4.57184e-06
-7.04516e-05
-4.37563e-06
-6.63364e-05
-4.11474e-06
-6.25512e-05
-3.78209e-06
-5.91515e-05
-3.4001e-06
-5.62125e-05
-2.94396e-06
-5.37841e-05
-2.43413e-06
-5.18824e-05
-1.90473e-06
-5.04692e-05
-1.41319e-06
-4.942e-05
-1.04867e-06
-4.85125e-05
-9.11297e-07
-4.74079e-05
-1.11259e-06
-4.5617e-05
-1.7963e-06
-4.25371e-05
-3.08315e-06
-3.75243e-05
-5.01564e-06
-3.00729e-05
-7.45417e-06
-1.99323e-05
-1.01449e-05
-7.17823e-06
-1.27599e-05
7.88233e-06
-1.50667e-05
2.52495e-05
-1.73719e-05
4.58713e-05
-2.06242e-05
7.192e-05
-2.60483e-05
0.000106085
-3.4162e-05
0.00015014
-4.40507e-05
0.000202471
-5.23296e-05
0.000257398
-5.49316e-05
0.000304854
-4.74686e-05
0.000334997
-3.01556e-05
0.000339921
-4.92267e-06
0.000318324
2.15996e-05
0.000275683
4.2643e-05
0.000220038
5.56404e-05
0.000163974
5.60531e-05
0.000114364
4.95946e-05
6.32923e-05
5.10604e-05
8.73222e-06
5.45613e-05
-3.62818e-05
4.50223e-05
-6.00621e-05
2.37939e-05
-3.94464e-05
-2.06052e-05
1.31065e-05
-5.25384e-05
4.96365e-05
-3.65201e-05
7.82211e-05
-2.85858e-05
0.000127784
-4.9566e-05
0.000222912
-9.51403e-05
0.000379064
-0.000156164
0.000666284
-0.000287229
0.00104103
-0.000374753
0.00161748
-0.000576434
0.00216647
-0.000548994
0.00262176
-0.000455267
0.00279666
-0.000174856
0.00198686
0.000809817
0.00160796
0.000378901
0.000778493
0.000829444
-0.000311183
0.00108968
-4.26782e-05
-0.000268503
-0.000261725
0.000219037
-5.96973e-05
-0.000202036
0.000419613
-0.000479313
0.000323749
9.58629e-05
0.000702683
-0.000378938
0.000871795
-0.000169116
0.000704807
0.000166986
-0.000581502
0.0012863
-0.00305845
0.00247695
-0.00592236
0.00286392
-0.00813628
0.00221393
-0.00925224
0.00111595
-0.00927021
1.79941e-05
-0.00818947
-0.00108075
-0.00583954
-0.00234994
-0.00341375
-0.00242579
-0.00178275
-0.001631
-0.00136448
-0.00041829
0.000224999
-0.00158948
-0.00115401
0.0325483
0.0295974
-0.0414967
0.0217109
0.0198927
0.0136518
0.0114562
0.0087275
0.00619381
0.00584634
0.00345805
0.00407975
0.00210391
0.00290779
0.0013988
0.00207899
0.00099134
0.0014675
0.000732067
0.00100287
0.000555764
0.000643729
0.000429602
0.000362366
0.000335623
0.000140946
0.000263739
-3.32777e-05
0.000207214
-0.000178816
0.000170671
-0.000292638
0.000133573
-0.000381896
0.000103719
-0.000451221
7.93319e-05
-0.000504212
5.96076e-05
-0.000543052
4.35086e-05
-0.000570271
3.07825e-05
-0.000587997
1.74505e-05
-0.000598805
6.13328e-06
-0.000603647
4.51427e-07
-0.000601487
-2.61779e-06
-0.000594961
-9.92484e-06
-0.000585488
-1.45621e-05
-0.000573059
-1.80732e-05
-0.000558464
-2.0607e-05
-0.000542032
-2.26971e-05
-0.000524264
-2.40699e-05
-0.000505611
-2.49583e-05
-0.00048644
-2.55199e-05
-0.000466889
-2.59333e-05
-0.000447048
-2.61568e-05
-0.00042715
-2.60512e-05
-0.000407409
-2.57496e-05
-0.00038795
-2.53611e-05
-0.000368929
-2.4764e-05
-0.000350381
-2.41042e-05
-0.000332365
-2.33455e-05
-0.000314962
-2.25105e-05
-0.000298161
-2.17314e-05
-0.000281914
-2.10197e-05
-0.000266252
-2.02463e-05
-0.000251244
-1.93739e-05
-0.000237064
-1.82888e-05
-0.000223969
-1.68897e-05
-0.00021219
-1.52006e-05
-0.000201997
-1.31509e-05
-0.00019358
-1.08576e-05
-0.000186994
-8.49569e-06
-0.000182113
-6.30444e-06
-0.000178517
-4.65902e-06
-0.000175437
-4.00275e-06
-0.000171683
-4.87188e-06
-0.000165544
-7.93911e-06
-0.000154897
-1.37371e-05
-0.000137496
-2.24239e-05
-0.000111489
-3.3468e-05
-7.5887e-05
-4.57537e-05
-3.08325e-05
-5.78213e-05
2.2795e-05
-6.87021e-05
8.49854e-05
-7.95705e-05
0.000158803
-9.4449e-05
0.000251208
-0.000118458
0.000370965
-0.000153922
0.000523629
-0.000196718
0.000703908
-0.000232613
0.000892865
-0.000243892
0.00105777
-0.000212377
0.00116542
-0.000137806
0.00118843
-2.79433e-05
0.00112029
8.97285e-05
0.000976463
0.000186459
0.000781691
0.0002504
0.000576833
0.000260896
0.000387103
0.000239306
0.000192968
0.000245174
-2.79792e-06
0.00025031
-0.000151902
0.000194112
-0.000225718
9.7605e-05
-0.000144333
-0.000101988
4.65912e-05
-0.000243459
0.000188681
-0.000178612
0.000289201
-0.000129106
0.00045631
-0.000216677
0.000741899
-0.000380729
0.00125904
-0.000673304
0.00215409
-0.00118228
0.00340765
-0.00162831
0.00524619
-0.00241498
0.00704953
-0.00235234
0.00876298
-0.00216872
0.00932592
-0.000737817
0.00710627
0.00302947
0.00589254
0.00159264
0.00290069
0.00382128
-0.000799934
0.00479029
-0.000191842
-0.000876609
-0.000849371
0.000876569
-0.000139212
-0.000912189
0.00148066
-0.00209919
0.001198
0.000378515
0.00237305
-0.00155401
0.00287381
-0.000669889
0.00175769
0.00128309
-0.00310852
0.0061525
-0.0116405
0.0110089
-0.0207073
0.0119308
-0.0271868
0.00869336
-0.029974
0.00390324
-0.0294936
-0.000462431
-0.0257428
-0.00483155
-0.0184649
-0.00962791
-0.0104395
-0.0104511
-0.00525186
-0.00681867
-0.0039631
-0.00170703
0.000579696
-0.00613228
-0.00491912
0.0421893
0.0320019
-0.0445938
0.0348621
0.0272199
0.02636
0.0199583
0.0190869
0.0134669
0.0137333
0.00881161
0.0099983
0.00583882
0.00737976
0.00401735
0.00548805
0.00288316
0.00407646
0.00214373
0.0029954
0.0016368
0.00215117
0.00127376
0.00148267
0.00100409
0.000948292
0.000798177
0.000518832
0.000636767
0.000174456
0.000515081
-0.000103861
0.000411858
-0.000329536
0.000329349
-0.000509592
0.000259375
-0.000652204
0.000202209
-0.000762872
0.000154107
-0.000847339
0.000115487
-0.000909927
8.19625e-05
-0.000954262
5.19607e-05
-0.000983471
2.74651e-05
-0.000998923
1.06824e-05
-0.00100368
-5.63482e-06
-0.00100021
-1.81541e-05
-0.00098945
-2.85522e-05
-0.000972979
-3.72836e-05
-0.000951753
-4.3995e-05
-0.000926821
-4.88718e-05
-0.000899075
-5.26031e-05
-0.000869327
-5.53218e-05
-0.000838073
-5.72648e-05
-0.00080565
-5.85577e-05
-0.000772538
-5.90697e-05
-0.000739165
-5.90698e-05
-0.000705846
-5.87027e-05
-0.000672962
-5.76762e-05
-0.000640669
-5.63761e-05
-0.000609101
-5.4868e-05
-0.000578417
-5.31736e-05
-0.000548639
-5.15217e-05
-0.00051973
-4.99458e-05
-0.000491768
-4.82069e-05
-0.000464899
-4.62316e-05
-0.000439441
-4.37442e-05
-0.000415865
-4.04767e-05
-0.00039462
-3.64598e-05
-0.000376212
-3.15675e-05
-0.000361004
-2.60705e-05
-0.000349111
-2.03939e-05
-0.000340316
-1.51098e-05
-0.000333867
-1.11202e-05
-0.000328371
-9.50722e-06
-0.000321661
-1.15882e-05
-0.000310626
-1.89815e-05
-0.000291401
-3.29708e-05
-0.000259848
-5.39849e-05
-0.000212514
-8.08107e-05
-0.000147449
-0.000110827
-6.47341e-05
-0.000140545
3.42295e-05
-0.000167675
0.000149364
-0.000194714
0.00028585
-0.000230943
0.00045544
-0.000288054
0.000673122
-0.000371608
0.00094825
-0.00047185
0.00127186
-0.000556229
0.00161144
-0.000583479
0.00191067
-0.000511611
0.00211086
-0.000337995
0.0021626
-7.96953e-05
0.00205015
0.000202175
0.00179709
0.000439514
0.00144291
0.000604568
0.00105794
0.000645849
0.000691038
0.000606193
0.000318445
0.000617753
-3.92765e-05
0.000608022
-0.000307572
0.000462401
-0.000429552
0.000219581
-0.000269262
-0.000262279
8.88002e-05
-0.000601527
0.000363635
-0.000453454
0.000549143
-0.000314624
0.000836073
-0.000503616
0.00129699
-0.000841652
0.00217885
-0.00155516
0.00367127
-0.0026747
0.00583147
-0.0037885
0.00894777
-0.00553127
0.0120861
-0.00549073
0.0152664
-0.00534893
0.0164209
-0.00189236
0.0130575
0.00639285
0.0110711
0.00357911
0.00565794
0.00923441
-0.00108369
0.0115319
-0.00037684
-0.00158347
-0.00149114
0.00199086
-0.00015552
-0.00224781
0.00273762
-0.00499234
0.00225323
0.000862902
0.00422851
-0.0035293
0.00492853
-0.00136993
0.00224961
0.00396201
-0.00711461
0.0155167
-0.0223949
0.0262892
-0.0375377
0.0270736
-0.0475502
0.0187059
-0.0511879
0.00754096
-0.0496144
-0.00203593
-0.0429279
-0.0115181
-0.0306258
-0.0219299
-0.0170879
-0.023989
-0.00828883
-0.0156177
-0.00632027
-0.00367558
0.000891447
-0.013344
-0.0113637
0.0479838
0.0315969
-0.0475788
0.0446172
0.0305865
0.0382703
0.0263052
0.0309377
0.0207996
0.0241613
0.0155879
0.0186016
0.0113985
0.014285
0.00833396
0.0109809
0.00618728
0.00843566
0.00468906
0.00644894
0.00362351
0.00487716
0.00284547
0.00361938
0.00226184
0.00260404
0.00181358
0.0017795
0.0014614
0.00110911
0.00118554
0.000561565
0.000959354
0.000115959
0.000774825
-0.000247873
0.000623133
-0.000542214
0.000496736
-0.000777215
0.000389472
-0.000963153
0.000301384
-0.00110756
0.000226244
-0.00121717
0.000161833
-0.00129753
0.000107238
-0.00135364
6.3014e-05
-0.00138811
2.83918e-05
-0.00140474
-1.5322e-06
-0.00140862
-2.47134e-05
-0.00140075
-4.54467e-05
-0.00138302
-6.17479e-05
-0.00135753
-7.4192e-05
-0.00132584
-8.42096e-05
-0.00128941
-9.18288e-05
-0.0012493
-9.74278e-05
-0.0012063
-0.000101513
-0.00116126
-0.000104007
-0.00111497
-0.00010533
-0.00106801
-0.000105691
-0.00102108
-0.000104622
-0.000974567
-0.000102863
-0.000928735
-0.000100656
-0.000883875
-9.80173e-05
-0.000840082
-9.53283e-05
-0.000797363
-9.268e-05
-0.000755879
-8.96881e-05
-0.000715882
-8.62179e-05
-0.000677866
-8.17601e-05
-0.000642557
-7.57979e-05
-0.000610669
-6.83628e-05
-0.000582989
-5.92572e-05
-0.000560095
-4.89708e-05
-0.000542188
-3.83084e-05
-0.000528957
-2.83519e-05
-0.000519286
-2.08051e-05
-0.000511074
-1.77285e-05
-0.000501041
-2.16296e-05
-0.000484477
-3.5553e-05
-0.000455536
-6.19212e-05
-0.000407898
-0.000101631
-0.000336205
-0.000152514
-0.00023731
-0.000209731
-0.000111095
-0.000266769
4.05195e-05
-0.000319301
0.000217281
-0.000371485
0.000426353
-0.000440024
0.000684237
-0.000545943
0.00101227
-0.000699648
0.00142395
-0.00088353
0.00190685
-0.00103914
0.00241497
-0.00109161
0.00286759
-0.000964237
0.00317867
-0.000649079
0.00327333
-0.000174356
0.0031224
0.000353095
0.0027539
0.000808005
0.00221964
0.00113882
0.00162019
0.00124528
0.00103393
0.00119244
0.000441383
0.00121029
-0.000107022
0.00115642
-0.000502685
0.000858057
-0.000669729
0.000386622
-0.000412349
-0.000519661
0.000143733
-0.00115761
0.000578617
-0.000888347
0.000861116
-0.000597134
0.00126299
-0.000905503
0.00187743
-0.00145609
0.00310946
-0.00278719
0.00517657
-0.00474181
0.00826718
-0.00687911
0.0126324
-0.00989648
0.017158
-0.0100163
0.0220052
-0.0101961
0.0239944
-0.00388151
0.019788
0.0105992
0.0171783
0.00618876
0.00921969
0.0171931
-0.00104224
0.0217938
-0.000578804
-0.00204692
-0.00217002
0.00358207
-8.13927e-05
-0.00433644
0.00421424
-0.00928798
0.00350656
0.00157056
0.00625485
-0.0062776
0.00691445
-0.00202955
0.00190131
0.00897515
-0.0129404
0.0303584
-0.0354343
0.0487831
-0.0561854
0.0478246
-0.0686613
0.0311818
-0.0722023
0.011082
-0.0689892
-0.00524899
-0.059126
-0.0213813
-0.0420518
-0.0390041
-0.0231219
-0.042919
-0.0107417
-0.0279979
-0.00833701
-0.00608027
0.00119558
-0.0228766
-0.0204896
0.0517996
0.0304982
-0.0507009
0.0511024
0.0312836
0.0476488
0.0297589
0.0420837
0.0263647
0.0356031
0.0220685
0.0292443
0.0177573
0.0235965
0.0139817
0.0188503
0.0109335
0.0149651
0.00857438
0.0118116
0.00677701
0.00925106
0.005406
0.0071638
0.00434905
0.00545462
0.00352275
0.00404955
0.00286651
0.00289286
0.00234231
0.00193807
0.00191418
0.00115042
0.00156242
0.000502168
0.0012713
-2.79356e-05
0.00102691
-0.000463141
0.000824854
-0.000814084
0.000652114
-0.00109456
0.000506132
-0.00131526
0.0003824
-0.00148512
0.000278128
-0.00161293
0.000191066
-0.00170471
0.000120709
-0.00176708
6.2313e-05
-0.00180218
1.01511e-05
-0.00181823
-2.95819e-05
-0.00181732
-6.26004e-05
-0.00180178
-8.95429e-05
-0.00177459
-0.000111349
-0.00173815
-0.000128351
-0.00169438
-0.000141228
-0.00164473
-0.000151093
-0.00159067
-0.000157978
-0.00153348
-0.000162496
-0.0014742
-0.000165
-0.00141397
-0.000164863
-0.0013535
-0.000163306
-0.00129328
-0.000160833
-0.00123381
-0.000157469
-0.00117534
-0.000153813
-0.00111796
-0.000150072
-0.00106196
-0.000145685
-0.00100774
-0.000140429
-0.000956004
-0.000133491
-0.000907796
-0.000124016
-0.000864143
-0.000112029
-0.000826163
-9.72455e-05
-0.000794696
-8.04419e-05
-0.000770061
-6.29505e-05
-0.000751857
-4.65672e-05
-0.000738563
-3.41109e-05
-0.000727291
-2.90107e-05
-0.000713501
-3.54271e-05
-0.000690692
-5.83704e-05
-0.000650761
-0.000101861
-0.000584915
-0.000167486
-0.000485602
-0.000251837
-0.000348235
-0.000347109
-0.000172358
-0.000442658
3.95982e-05
-0.00053127
0.000287014
-0.000618913
0.000578818
-0.000731838
0.000936033
-0.000903165
0.00138632
-0.00114994
0.00194765
-0.00144486
0.00260468
-0.00169617
0.00329862
-0.00178555
0.00392426
-0.00158988
0.00436702
-0.00109185
0.00452286
-0.000330196
0.00434394
0.000532009
0.00385829
0.00129364
0.00312523
0.00187188
0.00227514
0.00209535
0.00142282
0.00204474
0.000564832
0.00206826
-0.000203595
0.00192483
-0.000735967
0.00139042
-0.000943192
0.000593842
-0.00056948
-0.000893377
0.000215389
-0.00194249
0.000837428
-0.0015104
0.00122736
-0.000987076
0.0017312
-0.00140936
0.00246491
-0.0021898
0.00401712
-0.00433941
0.00661262
-0.00733731
0.0106321
-0.0108985
0.0161689
-0.0154333
0.0221082
-0.0159556
0.0287678
-0.0168557
0.0318746
-0.00698838
0.0271877
0.0152861
0.0242003
0.00917616
0.0137434
0.02765
-0.000538045
0.0360753
-0.000765067
-0.00181992
-0.0028585
0.0056755
0.0001019
-0.00729685
0.00592198
-0.0151081
0.0049801
0.00251244
0.0084287
-0.00972622
0.00871364
-0.0023145
0.0004805
0.0172083
-0.0208105
0.0516494
-0.0507346
0.0787072
-0.0761892
0.0732792
-0.0898403
0.0448328
-0.0924373
0.013679
-0.0871815
-0.0105048
-0.0740488
-0.034514
-0.0523894
-0.0606636
-0.0285381
-0.0667702
-0.0126598
-0.0438763
-0.0100137
-0.00872633
0.00155351
-0.0344438
-0.0323067
0.0549279
0.0295516
-0.0539813
0.055436
0.0307756
0.0542857
0.0309092
0.0510924
0.029558
0.0462363
0.0269246
0.0404582
0.0235353
0.0344825
0.0199574
0.028826
0.0165901
0.023763
0.0136374
0.0193812
0.0111589
0.0156585
0.00912864
0.0125249
0.00748265
0.00989751
0.00615004
0.00769795
0.00506608
0.0058589
0.00418147
0.00432143
0.00345178
0.00303765
0.00284622
0.00196793
0.00234092
0.00107923
0.00191551
0.000345248
0.00155875
-0.000257932
0.00125504
-0.000750039
0.000997939
-0.00114674
0.000779377
-0.00146193
0.000594803
-0.00170849
0.000438794
-0.00189617
0.00030899
-0.00203408
0.000200278
-0.00213364
0.000109137
-0.00219541
3.20285e-05
-0.00222843
-2.94538e-05
-0.00223939
-7.84177e-05
-0.00222962
-0.000121082
-0.00220355
-0.000154519
-0.00216441
-0.000180389
-0.00211465
-0.000200773
-0.00205661
-0.000215933
-0.00199234
-0.000226759
-0.00192349
-0.000233877
-0.00185185
-0.000236509
-0.00177861
-0.000236506
-0.00170464
-0.000234768
-0.00163074
-0.000231359
-0.00155739
-0.000227174
-0.00148485
-0.000222613
-0.00141362
-0.000216913
-0.00134429
-0.000209748
-0.00127784
-0.00019994
-0.00121567
-0.000186195
-0.00115919
-0.000168522
-0.00110991
-0.000146533
-0.00106899
-0.000121369
-0.00103689
-9.50562e-05
-0.00101313
-7.03366e-05
-0.000995757
-5.14995e-05
-0.000980993
-4.37853e-05
-0.000962902
-5.35268e-05
-0.000932982
-8.8299e-05
-0.000880624
-0.000154227
-0.000794265
-0.000253853
-0.000663873
-0.000382239
-0.000483184
-0.00052781
-0.000251276
-0.000674578
2.89136e-05
-0.000811473
0.000356094
-0.000946108
0.000740658
-0.00111641
0.00120777
-0.00137029
0.00179132
-0.0017335
0.0025142
-0.00216775
0.00335907
-0.00254104
0.00425575
-0.00268223
0.00507511
-0.00240925
0.00567317
-0.00168992
0.00591335
-0.000570376
0.00572272
0.000722631
0.00512337
0.00189298
0.00417601
0.00281923
0.00303869
0.00323265
0.0018698
0.00321362
0.000696158
0.00324189
-0.000324063
0.00294504
-0.00100151
0.00206787
-0.00124319
0.000835511
-0.000734938
-0.00140164
0.000307347
-0.00298479
0.00114172
-0.00234479
0.00164594
-0.00149131
0.00223017
-0.00199359
0.00303619
-0.00299582
0.00486589
-0.00616911
0.00792115
-0.0103926
0.0128698
-0.0158471
0.0194455
-0.022009
0.0268051
-0.0233153
0.0353702
-0.0254208
0.0398337
-0.0114518
0.0350775
0.0200422
0.0320471
0.0122065
0.0193727
0.0403245
0.000528687
0.0549193
-0.000882603
-0.000408663
-0.00350716
0.00830005
0.000416259
-0.0112203
0.00785892
-0.0225507
0.006695
0.00367634
0.0107073
-0.0137385
0.0101603
-0.00176749
-0.00220178
0.0295703
-0.0309126
0.0803603
-0.0680835
0.115878
-0.096916
0.102112
-0.110362
0.0582789
-0.111365
0.0146817
-0.103904
-0.0179657
-0.087513
-0.0509049
-0.0617021
-0.0864745
-0.0333603
-0.095112
-0.0140376
-0.063199
-0.0112808
-0.0114831
0.00200874
-0.0477333
-0.0467991
0.0581467
0.0288919
-0.057487
0.058905
0.0300173
0.0589968
0.0308174
0.0577414
0.0308135
0.0549016
0.0297644
0.0506766
0.0277602
0.0455172
0.0251167
0.0399299
0.0221774
0.034347
0.0192204
0.0290714
0.0164345
0.0242751
0.013925
0.0200259
0.0117317
0.0163244
0.0098515
0.0131345
0.00825602
0.0104058
0.00691026
0.00808291
0.00577486
0.00611331
0.00481589
0.00444957
0.00400454
0.00304968
0.0033152
0.00187785
0.00273035
0.000901749
0.00223098
9.45147e-05
0.00180527
-0.000568054
0.00144261
-0.00110589
0.00113402
-0.00153762
0.000871502
-0.00187836
0.000649923
-0.00214153
0.000463077
-0.00233896
0.000306068
-0.00248359
0.000176574
-0.00258132
6.85262e-05
-0.00263767
-2.19883e-05
-0.00266566
-9.30993e-05
-0.00266582
-0.000154463
-0.00264409
-0.000202127
-0.00260446
-0.000240312
-0.00255057
-0.000269741
-0.00248556
-0.000291767
-0.002412
-0.00030747
-0.00233256
-0.000315944
-0.00224917
-0.00031986
-0.0021632
-0.000320694
-0.00207596
-0.000318601
-0.00198827
-0.000314869
-0.00190069
-0.000310198
-0.00181398
-0.000303615
-0.00172903
-0.000294691
-0.00164714
-0.000281828
-0.00157016
-0.000263189
-0.00149993
-0.000238759
-0.00143844
-0.000208035
-0.00138721
-0.000172602
-0.00134691
-0.000135367
-0.00131697
-0.000100283
-0.00129498
-7.35067e-05
-0.00127618
-6.25882e-05
-0.00125311
-7.66073e-05
-0.00121506
-0.000126362
-0.00114866
-0.000220629
-0.00103933
-0.0003632
-0.000874269
-0.000547309
-0.000645333
-0.000756757
-0.000351024
-0.0009689
5.31955e-06
-0.00116783
0.000420962
-0.00136176
0.000907747
-0.00160321
0.00149435
-0.0019569
0.00222066
-0.00245982
0.00311515
-0.00306224
0.00415973
-0.00358562
0.00527484
-0.00379735
0.00630885
-0.00344327
0.00708821
-0.00246928
0.00744076
-0.000922922
0.00726182
0.000901562
0.00655989
0.0025949
0.0053886
0.00399051
0.00392912
0.00469212
0.00239053
0.00475219
0.000847073
0.00478534
-0.000458823
0.00425093
-0.00128983
0.00289886
-0.00156007
0.00110575
-0.000901515
-0.0020602
0.000422236
-0.00430855
0.00149019
-0.00341276
0.00211053
-0.00211167
0.00274341
-0.00262648
0.00356159
-0.003814
0.00561436
-0.00822187
0.00904047
-0.0138187
0.0149132
-0.0217199
0.0223541
-0.0294499
0.0311466
-0.0321079
0.041595
-0.0358691
0.0475971
-0.0174539
0.0432073
0.024432
0.0405344
0.0148793
0.0262157
0.0546433
0.0022524
0.0788826
-0.00086085
0.00270455
-0.00405179
0.011491
0.000862726
-0.0161348
0.010005
-0.0316931
0.00866858
0.00501279
0.0130329
-0.0181029
0.011064
0.000201381
-0.00645196
0.0470863
-0.0433222
0.117231
-0.0871024
0.159658
-0.117644
0.132653
-0.129691
0.0703262
-0.128851
0.0138417
-0.119239
-0.0275782
-0.0997091
-0.0704346
-0.0701047
-0.116079
-0.0377834
-0.127433
-0.0150022
-0.0859802
-0.0121424
-0.0143429
0.00262294
-0.0624986
-0.0639595
0.0617224
0.0284179
-0.0612484
0.0623525
0.0293872
0.0628431
0.0303268
0.0626947
0.030962
0.06148
0.0309791
0.0590113
0.0302289
0.0553604
0.0287676
0.0507797
0.0267581
0.0456061
0.0243941
0.0401817
0.021859
0.0348004
0.0193063
0.0296803
0.0168518
0.0249591
0.0145726
0.0207053
0.0125098
0.0169375
0.0106782
0.0136411
0.0090715
0.0107839
0.00767317
0.00832598
0.00646232
0.00622513
0.00541582
0.00444101
0.00451426
0.00293484
0.00373713
0.00167182
0.00306861
0.000620592
0.00249456
-0.000246898
0.00200243
-0.000956209
0.0015812
-0.00152915
0.0012226
-0.00198511
0.000918515
-0.00234143
0.000662097
-0.00261256
0.000447864
-0.00281327
0.000269584
-0.00295732
0.000122246
-0.00304409
-6.48478e-06
-0.00309486
-0.000103747
-0.00310973
-0.000187244
-0.00309577
-0.000254174
-0.0030585
-0.00030694
-0.0030027
-0.000347571
-0.00293224
-0.000377968
-0.00285104
-0.000397129
-0.00276208
-0.000408781
-0.00266751
-0.00041523
-0.0025693
-0.000416799
-0.00246889
-0.000415293
-0.00236723
-0.000411863
-0.00226549
-0.000405345
-0.00216495
-0.000395222
-0.00206733
-0.000379447
-0.001975
-0.000355528
-0.00189034
-0.00032343
-0.00181586
-0.000282522
-0.00175355
-0.000234917
-0.00170431
-0.000184618
-0.00166753
-0.000137079
-0.00164028
-0.000100765
-0.00161679
-8.60926e-05
-0.00158789
-0.000105513
-0.0015405
-0.000173757
-0.00145831
-0.000302834
-0.00132342
-0.000498095
-0.0011201
-0.000750643
-0.000838118
-0.00103875
-0.000475332
-0.0013317
-3.58984e-05
-0.00160728
0.000476667
-0.00187435
0.00107404
-0.0022006
0.00178815
-0.00267102
0.00266467
-0.00333635
0.00373841
-0.004136
0.00499224
-0.00483946
0.00633993
-0.00514505
0.00760948
-0.00471282
0.00859842
-0.00345822
0.0090966
-0.0014211
0.00896041
0.00103774
0.00817618
0.00337912
0.00677977
0.00538691
0.00496773
0.00650414
0.00300579
0.00671412
0.00103526
0.00675585
-0.000592598
0.00587877
-0.00158644
0.00389269
-0.00188073
0.00140003
-0.00106088
-0.00288006
0.000560905
-0.00593036
0.00187729
-0.00472917
0.00260867
-0.00284306
0.00324743
-0.00326525
0.00400541
-0.00457199
0.00621898
-0.0104354
0.00991376
-0.0175134
0.0167079
-0.028514
0.0248258
-0.0375677
0.0351
-0.0423821
0.0472437
-0.0480128
0.0548748
-0.025085
0.0512906
0.0280161
0.0493796
0.0167902
0.0343275
0.0696954
0.00488642
0.108324
-0.000604398
0.00819532
-0.00440573
0.0152923
0.00144977
-0.0219903
0.0123198
-0.0425631
0.010909
0.00642356
0.0153267
-0.0225206
0.0112083
0.00431975
-0.0125283
0.070823
-0.0580037
0.162706
-0.107267
0.208922
-0.137698
0.163084
-0.147536
0.0801642
-0.14497
0.0112761
-0.133461
-0.0390877
-0.110943
-0.0929523
-0.0778913
-0.149131
-0.0419861
-0.163339
-0.0156329
-0.112333
-0.0125674
-0.0174084
0.00343882
-0.0785048
-0.0837872
0.065649
0.0280362
-0.0652673
0.066113
0.0289232
0.066601
0.0298389
0.0668755
0.0306875
0.0666068
0.0312478
0.0655004
0.0313352
0.0633913
0.0308767
0.0602651
0.0298843
0.0562362
0.028423
0.051508
0.0265873
0.046329
0.0244852
0.0409547
0.022226
0.0356154
0.0199118
0.0304951
0.0176302
0.0257224
0.0154511
0.0213721
0.0134219
0.0174759
0.0115695
0.0140342
0.00990386
0.011028
0.00842186
0.00842744
0.00711474
0.00619649
0.00596813
0.00429797
0.00496744
0.00269519
0.00409783
0.00135315
0.00334484
0.000239061
0.00269517
-0.000676301
0.00213748
-0.00141987
0.00166169
-0.00201577
0.00125798
-0.00248525
0.000917659
-0.00284702
0.000631673
-0.00311761
0.000392878
-0.00331853
0.000194402
-0.00344588
2.35958e-05
-0.00352532
-0.000107748
-0.00356019
-0.000219191
-0.00355826
-0.000308817
-0.00352672
-0.000379131
-0.00347136
-0.000433351
-0.0033979
-0.000470579
-0.00331077
-0.000495863
-0.00321327
-0.000512693
-0.00310839
-0.000521684
-0.00299838
-0.000525316
-0.00288484
-0.000525406
-0.00276952
-0.00052065
-0.00265423
-0.000510498
-0.00254122
-0.000492456
-0.0024335
-0.000463262
-0.00233407
-0.000422879
-0.00224606
-0.000370538
-0.00217201
-0.000308973
-0.00211312
-0.000243515
-0.00206876
-0.000181446
-0.00203552
-0.000134022
-0.00200649
-0.000115133
-0.00197074
-0.000141272
-0.00191265
-0.000231855
-0.00181277
-0.000402724
-0.00164977
-0.000661108
-0.00140476
-0.00099566
-0.00106534
-0.00137818
-0.00062866
-0.0017684
-9.97088e-05
-0.00213625
0.000516516
-0.00249059
0.00123113
-0.00291523
0.00207858
-0.00351849
0.00311009
-0.00436787
0.00436784
-0.00539375
0.0058377
-0.00630932
0.00743001
-0.00673737
0.00895536
-0.00623818
0.0101837
-0.00468658
0.0108655
-0.00210293
0.0108116
0.00109172
0.00997644
0.00421423
0.0083653
0.00699803
0.00617843
0.00869099
0.00374178
0.00915075
0.00128514
0.00921248
-0.00070369
0.00786758
-0.00187181
0.00506079
-0.00218893
0.00171713
-0.00120422
-0.00386479
0.000721512
-0.0078561
0.00229209
-0.00629977
0.00312045
-0.00367144
0.00371063
-0.00385544
0.004326
-0.00518736
0.00663487
-0.0127443
0.0104937
-0.0213723
0.0182036
-0.0362238
0.0268427
-0.0462069
0.0387069
-0.0542463
0.0521091
-0.061415
0.0613937
-0.0343696
0.0590569
0.0303529
0.058224
0.0176231
0.0436945
0.084225
0.00859494
0.143423
-1.86251e-05
0.0168088
-0.00446662
0.0197403
0.00218095
-0.0286379
0.0147449
-0.055127
0.0134109
0.00775752
0.0174862
-0.0265959
0.0103569
0.011449
-0.0206214
0.101801
-0.0748059
0.21689
-0.128007
0.262123
-0.156616
0.191693
-0.164027
0.0875749
-0.160164
0.00741296
-0.147085
-0.0521666
-0.121672
-0.118366
-0.0853007
-0.185501
-0.0461308
-0.202509
-0.0160518
-0.142412
-0.01258
-0.0208802
0.00450267
-0.0955875
-0.106309
0.0698866
0.0277039
-0.0695543
0.0702464
0.0285634
0.0706393
0.029446
0.0709832
0.0303436
0.071105
0.0311259
0.0707826
0.0316577
0.0698063
0.031853
0.0680264
0.0316643
0.0653765
0.031073
0.0618765
0.0300874
0.0576227
0.028739
0.0527719
0.0270767
0.0475209
0.0251627
0.0420819
0.0230691
0.0366583
0.0208747
0.0314229
0.0186575
0.026505
0.0164875
0.0219885
0.0144204
0.0179164
0.0124939
0.0143008
0.0107303
0.0111314
0.00913764
0.00838371
0.00771521
0.00602563
0.00645604
0.00402089
0.00534948
0.00233222
0.00438346
0.000923447
0.00354584
-0.000239597
0.00282461
-0.00118863
0.00220726
-0.00195373
0.00168315
-0.00256077
0.00123895
-0.0030334
0.000865495
-0.0033907
0.000551536
-0.00365879
0.000291591
-0.00383906
7.26125e-05
-0.00395447
-0.000103682
-0.00401585
-0.000247396
-0.00403103
-0.000363983
-0.00400879
-0.000455617
-0.00395749
-0.00052186
-0.00388365
-0.000569655
-0.00379219
-0.000604113
-0.00368757
-0.000626313
-0.00357327
-0.000639629
-0.00345182
-0.000646853
-0.00332581
-0.000646644
-0.00319777
-0.000638525
-0.00307063
-0.000619605
-0.00294816
-0.000585744
-0.00283411
-0.00053694
-0.00273236
-0.000472289
-0.00264611
-0.000395236
-0.00257693
-0.000312703
-0.00252424
-0.00023415
-0.00248412
-0.000174147
-0.00244855
-0.000150716
-0.00240474
-0.000185091
-0.00233445
-0.000302158
-0.00221499
-0.000522194
-0.00202148
-0.000854625
-0.00173183
-0.00128533
-0.00133135
-0.00177868
-0.000816477
-0.00228329
-0.000193159
-0.00275958
0.000531653
-0.00321542
0.00136781
-0.0037514
0.00235164
-0.00450233
0.00353972
-0.00555595
0.00498289
-0.00683693
0.00667244
-0.00799888
0.00851902
-0.00858395
0.0103193
-0.00803846
0.0118178
-0.00618509
0.0127254
-0.00301055
0.0128013
0.00101587
0.011959
0.00505652
0.0101582
0.00879878
0.00758676
0.0112624
0.00463016
0.0121073
0.00162846
0.0122142
-0.000763436
0.0102595
-0.00212122
0.00641856
-0.00246577
0.00206166
-0.00132297
-0.0050076
0.00089861
-0.0100777
0.00271724
-0.00811842
0.00361735
-0.00457157
0.0040928
-0.0043309
0.00447676
-0.00557132
0.00681813
-0.0150856
0.010749
-0.0253031
0.0193621
-0.0448369
0.0284574
-0.0553021
0.0420703
-0.0678592
0.0559716
-0.0753163
0.0669462
-0.0453441
0.066328
0.030971
0.0666884
0.0172625
0.0542292
0.0966843
0.0135315
0.184121
0.00130761
0.0290327
-0.00411482
0.0251627
0.00306247
-0.0358152
0.0172144
-0.069279
0.016148
0.00882395
0.0193651
-0.0298131
0.00825853
0.0225555
-0.0308721
0.140932
-0.0934885
0.279507
-0.148658
0.317293
-0.174248
0.217282
-0.17956
0.0928868
-0.174841
0.00269458
-0.16058
-0.066428
-0.132256
-0.146689
-0.0924908
-0.225267
-0.0502543
-0.244745
-0.0163019
-0.176365
-0.0121986
-0.0249835
0.00584107
-0.113627
-0.131588
0.0744345
0.0274048
-0.0741355
0.0747391
0.0282589
0.075056
0.0291292
0.0753599
0.0300396
0.0755789
0.0309069
0.075593
0.0316436
0.0752528
0.0321932
0.0744047
0.0325124
0.072916
0.0325617
0.0706937
0.0323098
0.0676951
0.0317376
0.0639346
0.0308372
0.0594843
0.029613
0.0544706
0.0280828
0.0490629
0.0262824
0.0434552
0.0242653
0.0378424
0.0221004
0.0323983
0.0198645
0.0272601
0.0176321
0.022522
0.0154683
0.0182374
0.0134222
0.0144263
0.0115262
0.011084
0.00979816
0.0081891
0.0082441
0.00570984
0.00686236
0.00360932
0.00564618
0.00184842
0.00458566
0.000387656
0.00366841
-0.000809065
0.00288022
-0.00177842
0.00220841
-0.00255257
0.00163954
-0.00315958
0.00115839
-0.00362324
0.000755263
-0.00397261
0.000422105
-0.00421835
0.000142164
-0.0043792
-8.65336e-05
-0.00447504
-0.000268186
-0.00451276
-0.000417908
-0.00450508
-0.000529506
-0.00446175
-0.000612938
-0.00439005
-0.000675788
-0.00429647
-0.000719901
-0.0041863
-0.000749804
-0.00406345
-0.000769697
-0.00393169
-0.00077839
-0.00379455
-0.000775658
-0.00365581
-0.000758345
-0.00352025
-0.000721327
-0.00339248
-0.000664718
-0.00327729
-0.000587484
-0.00317865
-0.000493883
-0.00309865
-0.000392708
-0.00303684
-0.000295974
-0.00298888
-0.000222123
-0.00294561
-0.000194003
-0.00289239
-0.000238313
-0.00280836
-0.000386203
-0.00266758