/*--------------------------------*- C++ -*----------------------------------*\
| =========                 |                                                 |
| \\      /  F ield         | OpenFOAM: The Open Source CFD Toolbox           |
|  \\    /   O peration     | Version:  2412                                  |
|   \\  /    A nd           | Website:  www.openfoam.com                      |
|    \\/     M anipulation  |                                                 |
\*---------------------------------------------------------------------------*/
FoamFile
{
    version     2.0;
    format      ascii;
    arch        "LSB;label=32;scalar=64";
    class       volVectorField;
    location    "1";
    object      U;
}
// * * * * * * * * * * * * * * * * * * * * * * * * * * * * * * * * * * * * * //

dimensions      [0 1 -1 0 0 0 0];

internalField   nonuniform List<vector> 
12600
(
(18.8891 0 -0.584035)
(7.59729 -3.50007e-20 -1.56837)
(3.18682 -1.54037e-20 -1.61844)
(1.60533 0 -1.18417)
(1.00155 -2.23611e-22 -0.782534)
(0.679193 0 -0.525071)
(0.463514 -3.11655e-20 -0.361139)
(0.308173 0 -0.248898)
(0.192965 0 -0.167479)
(0.10597 0 -0.106583)
(0.038738 0 -0.0610329)
(-0.0134049 -9.68893e-20 -0.0257368)
(-0.053784 -9.88373e-20 0.00205338)
(-0.0852977 0 0.0239913)
(-0.109669 2.00032e-19 0.0405295)
(-0.127867 0 0.0538839)
(-0.141858 2.77728e-22 0.0642501)
(-0.151785 0 0.0720667)
(-0.158507 9.61782e-20 0.0778846)
(-0.162576 0 0.081873)
(-0.164885 0 0.0842009)
(-0.165731 0 0.0854783)
(-0.164595 3.53987e-19 0.0862348)
(-0.16153 -3.42958e-19 0.0864358)
(-0.158131 1.38177e-22 0.0852004)
(-0.154602 1.60713e-19 0.0832758)
(-0.150061 0 0.0815298)
(-0.144939 0 0.0793737)
(-0.139481 0 0.0768744)
(-0.133868 -2.82913e-19 0.074184)
(-0.128236 -5.45996e-19 0.0713211)
(-0.122593 0 0.0683654)
(-0.116904 0 0.0653892)
(-0.11123 -2.44131e-19 0.0624183)
(-0.105638 -2.34974e-19 0.059435)
(-0.100175 0 0.0564569)
(-0.0948445 0 0.0535297)
(-0.0896226 -4.17315e-19 0.050672)
(-0.0845572 0 0.0478917)
(-0.079701 5.35313e-23 0.0451912)
(-0.0750434 -3.69268e-19 0.0425772)
(-0.0705781 -3.54229e-19 0.0400743)
(-0.0662953 0 0.037682)
(-0.0621838 -3.25564e-19 0.0353835)
(-0.058251 -3.11932e-19 0.0331764)
(-0.0545085 5.97551e-19 0.0310684)
(-0.0509644 -5.72169e-19 0.0290724)
(-0.0476664 0 0.0272195)
(-0.0446609 5.24026e-19 0.0255335)
(-0.0419988 -5.01252e-19 0.0240409)
(-0.0397293 0 0.0227682)
(-0.0378624 -1.06064e-23 0.021723)
(-0.0363831 4.37839e-19 0.0208975)
(-0.0352289 0 0.0202541)
(-0.0342724 -7.98988e-19 0.0197166)
(-0.0333208 0 0.0191729)
(-0.0320872 0 0.0184617)
(-0.0301991 5.13655e-24 0.0173738)
(-0.0272275 4.47108e-24 0.0156998)
(-0.0228075 6.31712e-19 0.0131985)
(-0.0167403 -6.01906e-19 0.00974972)
(-0.00901696 1.14631e-18 0.00534727)
(0.000110706 0 0.000128559)
(0.010428 1.03752e-18 -0.00579032)
(0.0220542 9.86267e-19 -0.0124758)
(0.0359896 -1.87409e-18 -0.0204804)
(0.0536835 8.89569e-19 -0.0305965)
(0.0767012 0 -0.0436827)
(0.10492 0 -0.0596658)
(0.136045 0 -0.0772878)
(0.165018 0 -0.0937575)
(0.1856 0 -0.105625)
(0.193322 -1.24029e-18 -0.109919)
(0.184961 1.16117e-18 -0.105403)
(0.163554 0 -0.0931472)
(0.133426 0 -0.0759442)
(0.0998196 9.66788e-19 -0.0566918)
(0.0708874 1.43206e-22 -0.03994)
(0.0451138 1.71019e-18 -0.0248351)
(0.0164027 0 -0.0081865)
(-0.00901537 0 0.00622146)
(-0.0270512 0 0.0161412)
(-0.0300854 5.93612e-24 0.0174973)
(-0.00513712 0 0.00292216)
(0.0170635 0 -0.0100587)
(0.0295778 1.12069e-18 -0.0173949)
(0.0393065 -4.30364e-23 -0.0230266)
(0.0759753 0 -0.0432086)
(0.109425 0 -0.0615062)
(0.214766 -1.71321e-18 -0.120586)
(0.318854 -1.50845e-18 -0.178387)
(0.518514 -1.30501e-18 -0.291025)
(0.729321 -1.02941e-18 -0.409338)
(0.885787 2.58787e-21 -0.499704)
(1.07671 2.87312e-21 -0.609563)
(0.872343 2.03195e-19 -0.492832)
(0.559173 0 -0.324321)
(0.556425 0 -0.318338)
(-0.0835894 0 0.0438149)
(-0.0887781 1.17837e-18 0.0487855)
(0.0532696 -3.39974e-19 -0.0283643)
(-0.201772 4.40324e-19 0.113373)
(0.17114 4.15972e-19 -0.0982024)
(0.0633614 0 -0.0368718)
(0.13516 0 -0.0775732)
(0.242951 0 -0.138298)
(0.244476 5.32833e-19 -0.137361)
(0.105852 0 -0.0502113)
(-0.43012 5.93197e-20 0.260417)
(-1.12928 0 0.655529)
(-1.72381 0 0.982348)
(-2.0519 3.49517e-19 1.16529)
(-2.08806 0 1.1826)
(-1.93716 0 1.09374)
(-1.48626 0 0.834103)
(-0.922746 -3.97775e-18 0.516041)
(-0.40591 0 0.223946)
(-0.306251 3.96044e-18 0.169879)
(-0.173233 0 0.0958753)
(0.253708 -8.51206e-22 -0.141939)
(30.2662 -1.55822e-20 -0.883996)
(20.9869 1.99088e-20 -3.28387)
(13.218 1.30104e-20 -4.1522)
(8.32691 0 -3.58072)
(5.51766 -1.36995e-20 -2.68396)
(3.82541 2.38917e-20 -1.95314)
(2.72861 3.25109e-20 -1.42134)
(1.96526 -3.75776e-20 -1.03311)
(1.40645 0 -0.7422)
(0.984083 0 -0.519181)
(0.657987 0 -0.346267)
(0.403218 0 -0.209925)
(0.202157 0 -0.101353)
(0.0417607 0 -0.0144118)
(-0.0845299 -7.02206e-22 0.0553829)
(-0.184358 0 0.110011)
(-0.26401 1.02913e-19 0.153575)
(-0.325606 0 0.187719)
(-0.3728 -1.99838e-19 0.214135)
(-0.407999 1.95866e-19 0.233747)
(-0.43349 0 0.247563)
(-0.450815 1.87492e-19 0.256939)
(-0.460785 -1.83679e-19 0.262557)
(-0.464636 1.77975e-19 0.265319)
(-0.464703 -1.71538e-19 0.264109)
(-0.460665 0 0.26122)
(-0.453124 1.62218e-19 0.257099)
(-0.44313 0 0.25149)
(-0.431128 0 0.244738)
(-0.417681 0 0.237205)
(-0.403258 2.82314e-19 0.229006)
(-0.388057 0 0.220353)
(-0.37225 0 0.211447)
(-0.356131 0 0.202407)
(-0.339883 0 0.193242)
(-0.323641 0 0.184034)
(-0.30753 0 0.174901)
(-0.291596 4.29366e-19 0.165903)
(-0.276006 0 0.157111)
(-0.260908 7.90383e-19 0.14856)
(-0.246291 7.57754e-19 0.140256)
(-0.23219 3.6303e-19 0.132256)
(-0.218618 0 0.124566)
(-0.205544 0 0.117155)
(-0.192982 6.3763e-19 0.110026)
(-0.180974 -6.10137e-19 0.103206)
(-0.169568 5.83503e-19 0.0967375)
(-0.158929 0 0.0907242)
(-0.149215 -5.33249e-19 0.0852506)
(-0.140593 0 0.0804101)
(-0.133226 0 0.0762892)
(-0.127161 -4.64636e-19 0.0729107)
(-0.122358 0 0.070246)
(-0.118621 0 0.0681681)
(-0.115536 8.07259e-19 0.0664238)
(-0.112472 0 0.0646364)
(-0.108495 0 0.0622626)
(-0.102385 9.93079e-24 0.0586152)
(-0.0927757 6.65958e-19 0.0529358)
(-0.0784245 -5.95561e-24 0.0444825)
(-0.0586143 0 0.0328724)
(-0.0332382 -1.14726e-18 0.0180777)
(-0.0030256 -1.09024e-18 0.000532994)
(0.0313678 0 -0.0194144)
(0.0702476 -1.96567e-18 -0.0420139)
(0.116589 -1.67421e-23 -0.0690544)
(0.174701 0 -0.103022)
(0.249294 8.36798e-19 -0.146532)
(0.339921 0 -0.199109)
(0.439585 0 -0.256521)
(0.532906 0 -0.309746)
(0.600605 0 -0.347794)
(0.627987 2.44307e-18 -0.362148)
(0.604835 -1.14238e-18 -0.346998)
(0.538428 0 -0.307275)
(0.441616 0 -0.250771)
(0.329614 9.46616e-19 -0.186361)
(0.2288 2.3865e-22 -0.12876)
(0.136669 2.81692e-22 -0.0757066)
(0.0383582 0 -0.0190017)
(-0.0431971 0 0.0272847)
(-0.0978366 0 0.0575928)
(-0.103402 9.15331e-24 0.0588039)
(-0.0184099 -1.21534e-18 0.00854251)
(0.0593215 1.14468e-18 -0.0357847)
(0.103819 -1.08282e-18 -0.0610386)
(0.135067 -7.09357e-23 -0.0798312)
(0.242727 -9.64682e-19 -0.142788)
(0.336445 0 -0.19865)
(0.654856 1.64669e-18 -0.385794)
(0.958614 0 -0.563541)
(1.57451 1.25127e-18 -0.923708)
(2.19595 0 -1.28197)
(2.72488 -1.37948e-18 -1.58481)
(3.34464 -4.81358e-19 -1.93494)
(2.79153 0 -1.58785)
(1.92306 0 -1.09951)
(1.87115 -4.19886e-19 -1.05727)
(-0.170624 2.97829e-19 0.121408)
(-0.268993 -1.11905e-18 0.149319)
(0.141173 3.22885e-19 -0.0769257)
(-0.615781 -4.17817e-19 0.351336)
(0.561384 0 -0.332275)
(0.224103 3.44171e-19 -0.127493)
(0.441542 0 -0.260746)
(0.768395 0 -0.446161)
(0.704459 -5.0772e-19 -0.404581)
(0.111594 0 -0.045471)
(-1.67326 -4.28547e-21 1.00194)
(-3.818 -2.11104e-19 2.24248)
(-5.48449 0 3.19393)
(-6.29359 0 3.65072)
(-6.25117 0 3.61543)
(-5.7157 1.32642e-18 3.29363)
(-4.36231 -3.45106e-18 2.49525)
(-2.68481 3.73946e-18 1.5243)
(-1.12108 0 0.631392)
(-0.806974 -3.71985e-18 0.464416)
(-0.524274 0 0.286638)
(0.734045 6.63933e-18 -0.435895)
(33.8796 3.3062e-20 -0.705295)
(29.2783 -8.96117e-21 -2.8333)
(22.7382 -5.54444e-21 -4.52448)
(16.6145 0 -4.87619)
(11.9151 -1.58075e-20 -4.34508)
(8.62335 5.70625e-22 -3.53821)
(6.34242 0 -2.77314)
(4.71455 3.56671e-20 -2.13631)
(3.51185 0 -1.62443)
(2.59827 4.27112e-20 -1.2146)
(1.89007 0 -0.884986)
(1.33248 0 -0.618812)
(0.888682 0 -0.402918)
(0.532468 0 -0.227131)
(0.247549 -9.80886e-20 -0.082185)
(0.017676 0 0.0331744)
(-0.167211 0 0.127247)
(-0.314555 0 0.202524)
(-0.431241 9.46582e-20 0.26263)
(-0.522315 -5.38833e-22 0.309486)
(-0.592009 0 0.345351)
(-0.64402 -5.9279e-22 0.372118)
(-0.680547 0 0.390945)
(-0.70436 -1.68328e-19 0.403246)
(-0.718399 0 0.408974)
(-0.723659 0 0.410153)
(-0.721858 -1.5387e-19 0.407559)
(-0.713988 0 0.402217)
(-0.701369 0 0.394437)
(-0.685105 -2.77174e-19 0.384873)
(-0.666053 0 0.373865)
(-0.644761 0 0.361703)
(-0.621709 0 0.348735)
(-0.597512 0 0.335218)
(-0.572551 2.29436e-19 0.321253)
(-0.547113 0 0.307018)
(-0.521502 0 0.29271)
(-0.495889 -4.06504e-19 0.278441)
(-0.470588 0 0.264393)
(-0.445879 -7.48351e-19 0.250654)
(-0.421795 -7.24047e-23 0.237237)
(-0.398435 -3.43698e-19 0.224221)
(-0.375855 0 0.211633)
(-0.354022 0 0.199448)
(-0.332967 -3.01671e-19 0.18769)
(-0.312776 0 0.176412)
(-0.293545 -5.51969e-19 0.165697)
(-0.275561 0 0.155726)
(-0.259105 3.04393e-23 0.14665)
(-0.244467 0 0.138636)
(-0.231934 0 0.131829)
(-0.221602 0 0.126263)
(-0.213415 -4.19012e-19 0.121883)
(-0.207048 0 0.118462)
(-0.201803 0 0.115558)
(-0.196609 0 0.112514)
(-0.18988 0 0.108389)
(-0.179534 1.31988e-18 0.102015)
(-0.16327 0 0.0920454)
(-0.138903 -4.23252e-24 0.0772824)
(-0.105139 0 0.0570947)
(-0.0617043 5.40973e-19 0.0314333)
(-0.00973858 1.02793e-18 0.00100226)
(0.0496712 0 -0.0336741)
(0.116903 1.85251e-18 -0.0730729)
(0.196647 8.78531e-19 -0.120145)
(0.295726 0 -0.178832)
(0.421749 -7.88058e-19 -0.253133)
(0.574033 0 -0.341837)
(0.741393 0 -0.437718)
(0.899113 0 -0.525993)
(1.01556 0 -0.5889)
(1.06589 4.27545e-22 -0.613279)
(1.03246 1.07431e-18 -0.587831)
(0.924615 0 -0.521387)
(0.762304 0 -0.425754)
(0.568944 1.88007e-22 -0.314645)
(0.389317 -1.67339e-18 -0.212422)
(0.222551 -7.84167e-19 -0.116316)
(0.0494197 0 -0.0169808)
(-0.0878733 0 0.0590141)
(-0.175986 0 0.105294)
(-0.180719 -2.41754e-18 0.100802)
(-0.0325115 3.82493e-23 0.0111654)
(0.105679 -1.0738e-18 -0.0666433)
(0.185526 0 -0.111001)
(0.237011 -9.57927e-19 -0.14289)
(0.40488 9.0439e-19 -0.241708)
(0.543814 0 -0.327491)
(1.0541 0 -0.629995)
(1.52376 1.36137e-18 -0.906915)
(2.53147 0 -1.49881)
(3.49415 9.32945e-19 -2.04537)
(4.41925 -3.04489e-21 -2.57286)
(5.46211 4.57873e-19 -3.14479)
(4.68605 -1.87474e-19 -2.62488)
(3.37219 0 -1.91255)
(3.26991 3.92944e-19 -1.80713)
(-0.134835 -2.78678e-19 0.153232)
(-0.43189 1.04579e-18 0.232304)
(0.206763 0 -0.102123)
(-0.99657 -3.8879e-19 0.554856)
(0.95739 0 -0.580309)
(0.405955 -3.21824e-19 -0.228766)
(0.75073 3.33708e-19 -0.451576)
(1.27202 0 -0.737779)
(1.07446 4.74591e-19 -0.59387)
(-0.105427 0 0.1522)
(-3.17365 -9.33181e-20 1.97096)
(-6.63143 1.9727e-19 3.94844)
(-9.11005 0 5.31385)
(-10.1527 0 5.85508)
(-9.89613 0 5.66663)
(-8.94856 -6.70011e-21 5.07104)
(-6.79276 3.22358e-18 3.79156)
(-4.16079 -3.47971e-18 2.28077)
(-1.6756 0 0.894072)
(-1.15744 -3.46839e-18 0.64412)
(-0.841988 0 0.433246)
(1.15234 9.83639e-22 -0.693795)
(34.528 -1.73215e-20 -0.868279)
(33.1814 -4.85303e-21 -2.14101)
(29.3233 7.96513e-21 -3.91953)
(24.1986 -1.5588e-20 -5.04062)
(19.0921 -2.16232e-20 -5.23017)
(14.742 -4.52876e-20 -4.78524)
(11.3189 0 -4.08045)
(8.69748 0 -3.34529)
(6.6866 0 -2.67671)
(5.1255 -4.04579e-20 -2.10104)
(3.89731 0 -1.61621)
(2.9195 0 -1.21143)
(2.13374 0 -0.874503)
(1.49752 0 -0.594519)
(0.98159 0 -0.361091)
(0.561871 -9.18863e-20 -0.169277)
(0.22001 9.13608e-20 -0.0106139)
(-0.0572067 0 0.118994)
(-0.280942 0 0.224547)
(-0.460266 -1.75558e-19 0.308921)
(-0.601791 1.71514e-19 0.376155)
(-0.711968 -1.67938e-19 0.428636)
(-0.794972 1.63365e-19 0.468657)
(-0.855944 1.59395e-19 0.497705)
(-0.898644 -1.55181e-19 0.517271)
(-0.925635 1.50227e-19 0.528814)
(-0.939579 0 0.533521)
(-0.943497 -1.40354e-19 0.531564)
(-0.938125 0 0.526237)
(-0.925563 2.62333e-19 0.517772)
(-0.907475 0 0.506488)
(-0.884797 0 0.493037)
(-0.858447 0 0.477916)
(-0.829463 -2.256e-19 0.461561)
(-0.798534 -2.17037e-19 0.44419)
(-0.766184 0 0.426112)
(-0.732965 0 0.407636)
(-0.699238 3.84398e-19 0.38896)
(-0.665508 0 0.370382)
(-0.632239 8.69715e-23 0.352055)
(-0.599541 -3.39006e-19 0.334028)
(-0.567604 0 0.316427)
(-0.536559 0 0.299304)
(-0.506398 0 0.282643)
(-0.477188 0 0.266505)
(-0.449073 -5.45079e-19 0.250982)
(-0.422209 0 0.236208)
(-0.397012 4.98172e-19 0.222451)
(-0.373895 4.76035e-19 0.209933)
(-0.353282 0 0.198897)
(-0.335593 0 0.189544)
(-0.320986 0 0.181919)
(-0.309396 3.95319e-19 0.175929)
(-0.300377 -3.77052e-19 0.171237)
(-0.292954 -7.19042e-19 0.167196)
(-0.285615 0 0.162847)
(-0.276121 -6.53057e-19 0.156833)
(-0.261536 -1.24408e-18 0.147482)
(-0.238584 0 0.132911)
(-0.204137 -1.12721e-18 0.111444)
(-0.156279 0 0.0822121)
(-0.0945044 -5.09514e-19 0.0451675)
(-0.020297 -9.67972e-19 0.00127816)
(0.0648374 0 -0.0487802)
(0.161218 -8.71855e-19 -0.105735)
(0.274936 -8.26791e-19 -0.173632)
(0.414907 0 -0.257683)
(0.591317 0 -0.362997)
(0.803354 0 -0.487437)
(1.0363 6.59167e-19 -0.620851)
(1.25739 6.18445e-19 -0.743119)
(1.42373 0 -0.830269)
(1.50114 -1.08035e-18 -0.864223)
(1.46276 -1.01005e-18 -0.829657)
(1.31868 0 -0.737125)
(1.09372 0 -0.602272)
(0.817151 -8.35416e-19 -0.442905)
(0.55198 -2.18035e-22 -0.292783)
(0.302117 0 -0.149491)
(0.0492817 0 -0.00572733)
(-0.142235 0 0.0980573)
(-0.25954 0 0.156426)
(-0.25945 -3.87019e-24 0.141555)
(-0.0458513 1.06915e-18 0.00957107)
(0.156641 0 -0.102796)
(0.274504 0 -0.166386)
(0.343734 0 -0.210407)
(0.558135 8.47566e-19 -0.338622)
(0.723808 0 -0.447853)
(1.39953 1.44853e-18 -0.855824)
(1.99224 -1.27486e-18 -1.21498)
(3.36406 1.10467e-18 -2.03047)
(4.56907 -8.73379e-19 -2.71598)
(5.91835 1.22162e-18 -3.48633)
(7.3538 -4.28507e-19 -4.25068)
(6.5106 1.75424e-19 -3.6196)
(4.86392 0 -2.73698)
(4.74784 0 -2.57252)
(0.0554499 -2.58609e-19 0.137182)
(-0.568161 -4.88795e-19 0.303389)
(0.251053 -2.84453e-19 -0.113727)
(-1.33088 1.06063e-21 0.730048)
(1.35312 0 -0.840407)
(0.6113 0 -0.340805)
(1.05938 -3.11918e-19 -0.648808)
(1.73775 0 -1.01111)
(1.32194 -4.4776e-19 -0.707597)
(-0.587203 0 0.518136)
(-4.93918 3.54133e-21 3.12134)
(-9.50144 0 5.72347)
(-12.4615 6.43376e-20 7.31507)
(-13.4752 2.63901e-19 7.79669)
(-12.9027 7.16848e-19 7.39141)
(-11.5332 -7.777e-21 6.52)
(-8.69264 0 4.80536)
(-5.30521 3.24963e-18 2.85159)
(-2.06049 3.36989e-18 1.0619)
(-1.35581 3.23867e-18 0.752556)
(-1.11487 0 0.547434)
(1.5094 1.14047e-21 -0.937991)
(34.1945 0 -1.34218)
(34.2883 -3.53024e-21 -1.90417)
(32.7472 0 -3.22878)
(29.5861 1.47276e-20 -4.54105)
(25.461 3.45608e-20 -5.30255)
(21.1346 2.20029e-20 -5.41997)
(17.1477 0 -5.06486)
(13.7366 0 -4.46188)
(10.9237 -3.49487e-20 -3.78072)
(8.6373 -3.76611e-20 -3.11685)
(6.78388 3.97466e-20 -2.51244)
(5.27747 8.25339e-20 -1.98064)
(4.04799 8.46042e-20 -1.52103)
(3.04019 0 -1.12802)
(2.21269 0 -0.793268)
(1.53203 1.73389e-19 -0.511593)
(0.97158 -3.29753e-22 -0.27489)
(0.511521 0 -0.0772137)
(0.134433 -8.39459e-20 0.0864266)
(-0.17248 -1.64978e-19 0.220805)
(-0.420061 -1.62154e-19 0.329961)
(-0.618131 0 0.41769)
(-0.773671 -1.54434e-19 0.486704)
(-0.893789 1.50298e-19 0.539519)
(-0.983699 1.46679e-19 0.57902)
(-1.04812 -3.28358e-22 0.607242)
(-1.09187 0 0.625488)
(-1.11786 1.39811e-22 0.634571)
(-1.12967 0 0.635026)
(-1.1296 2.47498e-19 0.630519)
(-1.11953 0 0.622185)
(-1.10147 0 0.610053)
(-1.07685 0 0.595113)
(-1.04729 2.13081e-19 0.57795)
(-1.01392 0 0.558925)
(-0.977594 0 0.538518)
(-0.939211 0 0.517185)
(-0.899395 0 0.495237)
(-0.8589 -3.47981e-19 0.473117)
(-0.818432 6.67454e-19 0.451051)
(-0.778237 0 0.429137)
(-0.738627 3.0636e-19 0.40757)
(-0.699846 0 0.386439)
(-0.661947 0 0.36575)
(-0.625052 0 0.345614)
(-0.589385 6.07172e-23 0.326178)
(-0.555178 0 0.307641)
(-0.52298 -4.69725e-19 0.290365)
(-0.493352 0 0.274649)
(-0.46686 0 0.260816)
(-0.444066 -4.09098e-19 0.249121)
(-0.425201 0 0.239613)
(-0.410201 0 0.232157)
(-0.398507 9.29039e-24 0.226289)
(-0.388871 6.77251e-19 0.221143)
(-0.379342 0 0.215443)
(-0.367037 9.40163e-24 0.207395)
(-0.348171 1.17117e-18 0.194806)
(-0.318501 0 0.175272)
(-0.273941 5.30396e-19 0.146662)
(-0.211922 0 0.107907)
(-0.131657 4.79326e-19 0.0589894)
(-0.034918 9.10457e-19 0.00114731)
(0.076369 0 -0.0648136)
(0.202315 8.19785e-19 -0.139884)
(0.350074 -1.88047e-23 -0.229118)
(0.530217 0 -0.33879)
(0.755216 0 -0.474824)
(1.02435 0 -0.633953)
(1.32016 -1.23857e-18 -0.803188)
(1.60336 2.00041e-22 -0.957588)
(1.82093 0 -1.06766)
(1.92977 1.01515e-18 -1.11115)
(1.89301 1.89659e-18 -1.0686)
(1.71902 0 -0.951602)
(1.43563 0 -0.778381)
(1.07532 0 -0.569763)
(0.718847 -2.17106e-22 -0.368526)
(0.378169 0 -0.173863)
(0.041304 0 0.0155548)
(-0.202777 0 0.143976)
(-0.344978 0 0.209615)
(-0.336682 1.06237e-18 0.178983)
(-0.0570142 1.00173e-18 0.00231136)
(0.211939 0 -0.144747)
(0.369249 0 -0.226911)
(0.452586 0 -0.280951)
(0.698623 1.25924e-22 -0.430168)
(0.871835 0 -0.554591)
(1.68641 -1.35603e-18 -1.05467)
(2.35746 0 -1.47391)
(4.07275 -1.03383e-18 -2.50203)
(5.405 0 -3.25676)
(7.21818 -5.73098e-19 -4.29462)
(8.97853 0 -5.19638)
(8.23768 0 -4.5382)
(6.3363 0 -3.54051)
(6.29923 0 -3.34579)
(0.418485 2.41808e-19 0.0636026)
(-0.670889 0 0.357963)
(0.283213 2.65919e-19 -0.111214)
(-1.6154 3.38811e-19 0.86397)
(1.74011 0 -1.10858)
(0.841056 0 -0.464368)
(1.36501 0 -0.850098)
(2.15514 0 -1.25224)
(1.43472 -2.1763e-21 -0.712909)
(-1.32536 0 1.0906)
(-6.91843 6.89475e-20 4.45695)
(-12.3303 0 7.50534)
(-15.4387 -1.24297e-19 9.0908)
(-16.2259 -2.46478e-19 9.36021)
(-15.2985 -6.6948e-19 8.69448)
(-13.533 -1.06766e-18 7.55273)
(-10.1182 0 5.47482)
(-6.16818 0 3.20201)
(-2.31856 -6.2895e-18 1.12072)
(-1.43585 3.01839e-18 0.775556)
(-1.34206 3.06317e-18 0.620126)
(1.82266 -2.70431e-18 -1.16291)
(33.7519 0 -1.79867)
(34.1518 3.29966e-20 -2.0152)
(33.9207 0 -2.80329)
(32.5187 0 -3.89453)
(29.9412 0 -4.8618)
(26.5678 0 -5.42432)
(22.878 0 -5.52213)
(19.2595 3.03489e-20 -5.24581)
(15.9494 3.29775e-20 -4.73657)
(13.0497 7.09614e-20 -4.11982)
(10.5725 -7.48252e-20 -3.48161)
(8.48352 -7.79012e-20 -2.87123)
(6.73265 -7.986e-20 -2.31241)
(5.26866 0 -1.8141)
(4.04651 0 -1.37634)
(3.02723 -1.62976e-19 -0.99763)
(2.17776 -1.62174e-19 -0.672494)
(1.47156 0 -0.395699)
(0.885804 7.92424e-20 -0.162253)
(0.402719 1.5573e-19 0.033892)
(0.00630775 0 0.195943)
(-0.316383 1.48951e-19 0.329205)
(-0.576104 0 0.436947)
(-0.782662 -2.7857e-22 0.522501)
(-0.943925 -1.37694e-19 0.589188)
(-1.0668 -3.17113e-22 0.639441)
(-1.15713 0 0.676147)
(-1.22015 1.25018e-19 0.702225)
(-1.26133 -2.41614e-19 0.716253)
(-1.28379 -4.66791e-19 0.720387)
(-1.29127 -2.24935e-19 0.717308)
(-1.28542 0 0.709793)
(-1.26902 -2.08629e-19 0.697613)
(-1.24433 0 0.681946)
(-1.21308 0 0.663288)
(-1.1766 0 0.642313)
(-1.13624 0 0.619654)
(-1.093 0 0.595761)
(-1.04794 9.58603e-23 0.571252)
(-1.00208 -3.14521e-19 0.546444)
(-0.955886 0 0.521502)
(-0.909827 -5.77347e-19 0.496707)
(-0.864312 0 0.472198)
(-0.819496 0 0.448023)
(-0.775583 0 0.424358)
(-0.732906 4.84185e-19 0.401419)
(-0.691787 0 0.379483)
(-0.652923 0 0.359022)
(-0.617033 0 0.340412)
(-0.584834 0 0.324061)
(-0.557041 7.70161e-19 0.310276)
(-0.533972 0 0.299101)
(-0.515572 0 0.290348)
(-0.501179 3.34203e-19 0.283413)
(-0.489283 0 0.27719)
(-0.477499 0 0.270067)
(-0.46231 1.15661e-18 0.259798)
(-0.439101 -5.50663e-19 0.243672)
(-0.402682 0 0.218769)
(-0.348018 0 0.182549)
(-0.271871 0 0.13379)
(-0.173141 -4.50472e-19 0.0725531)
(-0.0538487 0 0.000363164)
(0.0836558 0 -0.0818499)
(0.239111 -1.54013e-18 -0.175344)
(0.420381 1.46001e-18 -0.286092)
(0.639254 0 -0.42123)
(0.910195 0 -0.587232)
(1.23286 0 -0.779579)
(1.58794 5.81316e-19 -0.982629)
(1.93122 -5.45265e-19 -1.16723)
(2.20093 -1.02036e-18 -1.29913)
(2.34577 -9.52331e-19 -1.35234)
(2.31825 -8.89639e-19 -1.30323)
(2.12247 8.33099e-19 -1.16341)
(1.7869 0 -0.953003)
(1.34416 0 -0.694644)
(0.891806 6.91052e-19 -0.439678)
(0.453265 0 -0.190242)
(0.0285821 0 0.0451379)
(-0.265999 0 0.194475)
(-0.428715 0 0.262378)
(-0.409292 0 0.21088)
(-0.0647582 -1.87622e-18 -0.0119541)
(0.270817 0 -0.192581)
(0.467679 -8.34449e-19 -0.291414)
(0.560225 0 -0.352235)
(0.821572 1.34426e-22 -0.513116)
(0.982267 1.3751e-18 -0.644754)
(1.90809 0 -1.22422)
(2.60958 0 -1.68304)
(4.65268 0 -2.91719)
(5.97689 0 -3.66988)
(8.30899 5.4225e-19 -5.01153)
(10.2684 0 -5.97231)
(9.82587 0 -5.37298)
(7.71342 0 -4.28255)
(7.90691 0 -4.11847)
(0.967522 0 -0.0665787)
(-0.725912 0 0.39813)
(0.310588 0 -0.101401)
(-1.83893 0 0.954941)
(2.10618 -3.01276e-19 -1.37899)
(1.0952 0 -0.599026)
(1.66461 0 -1.05297)
(2.50868 0 -1.4515)
(1.38736 3.92829e-19 -0.600558)
(-2.32319 0 1.85744)
(-9.05742 -3.08005e-20 5.9301)
(-14.9993 0 9.21937)
(-17.9239 -4.62162e-21 10.5911)
(-18.344 0 10.5764)
(-17.074 6.09702e-19 9.66573)
(-14.9676 0 8.27689)
(-11.1011 0 5.8882)
(-6.77788 0 3.39592)
(-2.47303 2.93435e-18 1.11104)
(-1.4063 -5.6329e-18 0.74688)
(-1.51963 -5.71846e-18 0.656299)
(2.09716 -2.52659e-18 -1.3819)
(33.4293 0 -2.09034)
(33.7242 -3.52537e-20 -2.21914)
(33.9432 0 -2.65263)
(33.5936 0 -3.40858)
(32.372 -2.73687e-20 -4.28324)
(30.2812 -2.69333e-20 -5.02365)
(27.5253 2.78132e-20 -5.46424)
(24.3856 -8.75737e-20 -5.55924)
(21.1358 0 -5.35229)
(17.9908 1.08252e-23 -4.92989)
(15.0875 3.51605e-20 -4.38276)
(12.4919 0 -3.78428)
(10.2199 0 -3.18483)
(8.25742 0 -2.61518)
(6.57743 0 -2.09102)
(5.14809 3.09602e-22 -1.62046)
(3.93731 2.74731e-22 -1.20468)
(2.91604 7.5305e-20 -0.842022)
(2.05793 7.42795e-20 -0.529394)
(1.34055 0 -0.262022)
(0.744087 -1.43231e-19 -0.0362648)
(0.251317 -1.40391e-19 0.152875)
(-0.152382 0 0.309173)
(-0.479956 -2.91458e-22 0.436551)
(-0.742353 3.45876e-22 0.538945)
(-0.949149 -1.25677e-19 0.619562)
(-1.10881 0 0.681331)
(-1.22855 0 0.727072)
(-1.31433 2.27651e-19 0.760412)
(-1.37303 2.20333e-22 0.780592)
(-1.40849 4.23627e-19 0.789312)
(-1.42535 0 0.788009)
(-1.42537 3.9292e-19 0.781983)
(-1.41248 0 0.770536)
(-1.38921 0 0.754597)
(-1.35749 -1.74559e-19 0.735119)
(-1.31925 0 0.712938)
(-1.276 -3.2174e-19 0.688668)
(-1.22922 9.45503e-23 0.663139)
(-1.18034 2.95926e-19 0.636779)
(-1.13008 0 0.609834)
(-1.07918 5.86372e-23 0.582695)
(-1.02825 0 0.555573)
(-0.977603 0 0.528568)
(-0.927571 0 0.501948)
(-0.878618 0 0.476009)
(-0.831187 0 0.451123)
(-0.786128 4.15958e-19 0.427883)
(-0.744338 0 0.406751)
(-0.706695 0 0.388219)
(-0.674074 -3.62077e-19 0.372641)
(-0.646895 0 0.360052)
(-0.625123 -3.29455e-19 0.350194)
(-0.608007 -3.14113e-19 0.342308)
(-0.593783 5.98766e-19 0.335029)
(-0.579649 0 0.326389)
(-0.561474 -5.43357e-19 0.313678)
(-0.533842 -5.17309e-19 0.293671)
(-0.490652 0 0.262958)
(-0.425954 0 0.218645)
(-0.33585 0 0.159421)
(-0.218912 4.22967e-19 0.0854881)
(-0.0773801 0 -0.0013104)
(0.0859674 0 -0.0998948)
(0.270316 7.22748e-19 -0.211817)
(0.483896 -1.37012e-18 -0.343863)
(0.739284 0 -0.503856)
(1.05268 0 -0.698601)
(1.42447 0 -0.922259)
(1.83443 0 -1.15675)
(2.23517 -5.11706e-19 -1.36932)
(2.55763 9.56696e-19 -1.52168)
(2.74327 0 -1.58459)
(2.73338 0 -1.53073)
(2.52535 -7.80779e-19 -1.37043)
(2.14595 0 -1.12473)
(1.62437 -6.89152e-19 -0.816853)
(1.07336 6.47802e-19 -0.506193)
(0.531088 0 -0.199262)
(0.0154789 0 0.0814847)
(-0.327428 0 0.247296)
(-0.506637 0 0.312305)
(-0.474105 0 0.235063)
(-0.0681394 8.78107e-19 -0.0343032)
(0.331892 0 -0.245935)
(0.566801 1.56172e-18 -0.35825)
(0.662443 0 -0.421343)
(0.9219 1.42555e-22 -0.583609)
(1.05054 6.01114e-22 -0.714757)
(2.06132 0 -1.36065)
(2.7463 1.05082e-18 -1.8394)
(5.10852 0 -3.2732)
(6.28647 0 -3.94931)
(9.21037 -1.01713e-18 -5.64059)
(11.1768 0 -6.53942)
(11.2471 0 -6.10835)
(8.90897 0 -4.91846)
(9.5411 0 -4.8779)
(1.70567 0 -0.248233)
(-0.720382 0 0.417406)
(0.343395 0 -0.0885245)
(-1.99332 0 0.994754)
(2.43639 2.81467e-19 -1.64386)
(1.37185 0 -0.743908)
(1.95524 0 -1.25403)
(2.78271 0 -1.59677)
(1.16539 -3.71088e-19 -0.348236)
(-3.5562 -1.84269e-19 2.82159)
(-11.2742 2.45036e-20 7.49697)
(-17.3889 -1.52211e-19 10.7847)
(-19.8616 -5.01324e-21 11.7593)
(-19.8859 -1.9488e-19 11.4225)
(-18.3451 -1.13043e-18 10.2934)
(-15.9622 0 8.69631)
(-11.7474 2.4035e-18 6.06547)
(-7.20407 2.61999e-18 3.44838)
(-2.56868 0 1.04209)
(-1.296 2.6278e-18 0.662762)
(-1.64835 2.66865e-18 0.6551)
(2.34482 2.35838e-18 -1.59522)
(33.1935 0 -2.24919)
(33.3491 1.74358e-20 -2.3858)
(33.5904 0 -2.65799)
(33.659 0 -3.14751)
(33.2692 2.57702e-20 -3.80934)
(32.2516 2.5355e-20 -4.50591)
(30.5781 -2.61786e-20 -5.08734)
(28.3349 8.44933e-20 -5.44808)
(25.6806 0 -5.54702)
(22.8009 3.17765e-20 -5.39989)
(19.872 -6.58428e-20 -5.05723)
(17.0357 0 -4.58185)
(14.3889 6.97336e-20 -4.0328)
(11.9856 0 -3.45778)
(9.84665 7.14245e-20 -2.89037)
(7.97063 7.18569e-20 -2.35315)
(6.34282 7.15544e-20 -1.85874)
(4.94238 -7.08878e-20 -1.41321)
(3.74593 -1.39668e-19 -1.01856)
(2.73053 0 -0.673332)
(1.87439 1.34829e-19 -0.375447)
(1.15722 0 -0.121103)
(0.561024 0 0.0934807)
(0.0695014 -1.25315e-19 0.272201)
(-0.33162 2.43369e-19 0.41926)
(-0.655002 0 0.53844)
(-0.911894 0 0.63322)
(-1.11219 0 0.706949)
(-1.26477 -2.13865e-19 0.762229)
(-1.37665 2.06629e-19 0.802601)
(-1.45523 -1.90821e-22 0.829815)
(-1.50574 1.91778e-19 0.843382)
(-1.5335 -3.69464e-19 0.844601)
(-1.54155 1.77707e-19 0.840363)
(-1.53375 -1.70843e-19 0.829934)
(-1.51309 7.59426e-23 0.814331)
(-1.48226 0 0.794719)
(-1.4434 3.026e-19 0.771897)
(-1.39854 2.90267e-19 0.746945)
(-1.34965 -2.78277e-19 0.720425)
(-1.29785 0 0.692682)
(-1.24417 2.55375e-19 0.664242)
(-1.18954 2.44448e-19 0.635413)
(-1.13449 2.33946e-19 0.606364)
(-1.07951 2.23792e-19 0.577474)
(-1.02525 0 0.549139)
(-0.972305 0 0.521843)
(-0.921688 -3.71361e-23 0.496312)
(-0.874491 0 0.473097)
(-0.831764 0 0.452779)
(-0.794559 -3.4009e-19 0.435755)
(-0.763408 3.24441e-19 0.422038)
(-0.738312 3.09417e-19 0.41129)
(-0.718442 8.75788e-24 0.402573)
(-0.701803 -1.37763e-23 0.394248)
(-0.685194 0 0.383973)
(-0.663903 0 0.368566)
(-0.631759 9.71131e-19 0.344297)
(-0.581807 0 0.307312)
(-0.507239 0 0.254426)
(-0.403529 -4.17732e-19 0.184322)
(-0.268925 0 0.0974284)
(-0.105868 0 -0.00405138)
(0.0824225 7.14865e-19 -0.11886)
(0.294416 -6.77855e-19 -0.248849)
(0.538376 1.28484e-18 -0.401532)
(0.827281 0 -0.585293)
(1.17882 -5.75533e-19 -0.807095)
(1.59455 0 -1.05977)
(2.05429 0 -1.32305)
(2.50919 9.59278e-19 -1.56116)
(2.88451 0 -1.73255)
(3.11552 0 -1.80527)
(3.13229 0 -1.74855)
(2.92308 0 -1.57039)
(2.51051 0 -1.29193)
(1.91646 6.45342e-19 -0.935612)
(1.26635 2.12363e-22 -0.568163)
(0.616009 -5.68548e-19 -0.201962)
(0.00709098 5.30633e-19 0.122525)
(-0.382059 0 0.299765)
(-0.574473 0 0.356816)
(-0.528099 0 0.249527)
(-0.0666564 0 -0.0654297)
(0.393085 0 -0.303967)
(0.662749 -8.42044e-23 -0.425166)
(0.754204 0 -0.484719)
(0.994224 -6.50392e-19 -0.637478)
(1.07278 6.23602e-22 -0.761602)
(2.14447 0 -1.46191)
(2.76983 -9.82505e-19 -1.94526)
(5.44492 0 -3.57149)
(6.35274 6.84051e-19 -4.11064)
(9.94991 -3.06035e-21 -6.20079)
(11.6535 0 -6.8821)
(12.4866 0 -6.74413)
(9.83661 0 -5.40462)
(11.1589 0 -5.60769)
(2.62616 1.9041e-19 -0.470847)
(-0.637724 0 0.41096)
(0.392307 0 -0.0784991)
(-2.06831 2.7258e-19 0.9794)
(2.71399 0 -1.89427)
(1.66723 -2.28715e-19 -0.897318)
(2.23253 2.37953e-19 -1.44863)
(2.96274 0 -1.67102)
(0.755628 6.95088e-19 0.0563052)
(-4.99326 -2.91792e-21 3.96348)
(-13.479 -4.47227e-20 9.09596)
(-19.3926 1.42121e-19 12.1288)
(-21.2444 6.09853e-20 12.5959)
(-20.9173 1.81947e-19 11.9793)
(-19.1973 5.2389e-19 10.6925)
(-16.6119 8.41355e-19 8.917)
(-12.1411 -2.24373e-18 6.08616)
(-7.49248 -2.44574e-18 3.40596)
(-2.63437 -2.54636e-18 0.940385)
(-1.11715 -2.44744e-18 0.545967)
(-1.73098 0 0.62076)
(2.57191 0 -1.81034)
(32.986 0 -2.33991)
(33.0604 1.87923e-20 -2.49059)
(33.2215 0 -2.70408)
(33.3675 0 -3.03649)
(33.3347 0 -3.50355)
(32.9635 0 -4.06078)
(32.1381 2.86678e-20 -4.62084)
(30.8092 -2.72548e-20 -5.08871)
(28.9963 2.9239e-20 -5.39213)
(26.7764 -5.94075e-20 -5.49558)
(24.2645 6.18951e-20 -5.39897)
(21.5914 0 -5.12835)
(18.8842 -6.55532e-20 -4.7242)
(16.2506 0 -4.23144)
(13.7701 -6.71476e-20 -3.69143)
(11.4932 -6.69718e-20 -3.13879)
(9.44459 0 -2.59919)
(7.63016 0 -2.08998)
(6.04304 6.55766e-20 -1.62192)
(4.66917 0 -1.20007)
(3.49076 0 -0.826503)
(2.48837 -1.23493e-19 -0.500313)
(1.64273 0 -0.21927)
(0.935354 0 0.0197641)
(0.34906 -1.14284e-19 0.220588)
(-0.131928 0 0.387077)
(-0.521929 0 0.523012)
(-0.833835 0 0.632074)
(-1.0792 4.019e-19 0.717647)
(-1.268 0 0.782705)
(-1.40881 -1.50601e-22 0.83064)
(-1.50952 -1.37644e-22 0.865217)
(-1.57776 1.73576e-19 0.883076)
(-1.61813 -1.67012e-19 0.888303)
(-1.6358 3.21021e-19 0.885985)
(-1.63432 1.54227e-19 0.877078)
(-1.61769 0 0.86244)
(-1.58889 0 0.843168)
(-1.55064 2.72532e-19 0.820641)
(-1.50564 -2.61269e-19 0.795579)
(-1.45551 0 0.768439)
(-1.40171 0 0.739915)
(-1.34558 -4.59337e-23 0.710438)
(-1.28795 -2.19711e-19 0.680268)
(-1.22954 -2.10158e-19 0.649917)
(-1.17124 -4.01808e-19 0.619899)
(-1.1138 0 0.590826)
(-1.05846 -3.60767e-23 0.563572)
(-1.0065 0 0.538785)
(-0.95917 0 0.517136)
(-0.917704 3.19202e-19 0.499057)
(-0.88277 -3.04485e-19 0.48453)
(-0.854416 0 0.473122)
(-0.831761 2.76771e-19 0.463698)
(-0.812599 -1.3374e-23 0.454324)
(-0.793362 0 0.442273)
(-0.768809 0 0.423888)
(-0.732073 -9.10844e-19 0.394957)
(-0.675428 0 0.351233)
(-0.591289 0 0.289328)
(-0.474557 7.83363e-19 0.208018)
(-0.323177 0 0.10805)
(-0.139776 0 -0.00794499)
(0.071962 -1.34015e-18 -0.138524)
(0.309669 6.35307e-19 -0.285802)
(0.581324 -6.02038e-19 -0.457997)
(0.899981 0 -0.663957)
(1.28463 5.39229e-19 -0.910705)
(1.73846 0 -1.18979)
(2.24222 -4.79223e-19 -1.47903)
(2.74739 -4.49328e-19 -1.74014)
(3.17508 0 -1.92902)
(3.45562 0 -2.01146)
(3.50831 7.32661e-19 -1.95387)
(3.31016 6.85373e-19 -1.76083)
(2.87744 0 -1.4528)
(2.22045 0 -1.05004)
(1.47376 -1.13592e-18 -0.625761)
(0.712977 5.32041e-19 -0.199612)
(0.00917681 -9.93247e-19 0.165926)
(-0.424488 0 0.349063)
(-0.627967 0 0.393445)
(-0.568624 0 0.252629)
(-0.060361 0 -0.105523)
(0.451639 0 -0.365306)
(0.750851 -9.01328e-23 -0.489314)
(0.829758 0 -0.538216)
(1.03311 0 -0.670367)
(1.04637 6.45555e-22 -0.782863)
(2.15832 0 -1.52692)