/*--------------------------------*- C++ -*----------------------------------*\
| =========                 |                                                 |
| \\      /  F ield         | OpenFOAM: The Open Source CFD Toolbox           |
|  \\    /   O peration     | Version:  2412                                  |
|   \\  /    A nd           | Website:  www.openfoam.com                      |
|    \\/     M anipulation  |                                                 |
\*---------------------------------------------------------------------------*/
FoamFile
{
    version     2.0;
    format      ascii;
    arch        "LSB;label=32;scalar=64";
    class       volVectorField;
    location    "1";
    object      U_0;
}
// * * * * * * * * * * * * * * * * * * * * * * * * * * * * * * * * * * * * * //

dimensions      [0 1 -1 0 0 0 0];

internalField   nonuniform List<vector> 
12600
(
(18.889 0 -0.584019)
(7.59726 -3.5001e-20 -1.56838)
(3.18678 -1.54091e-20 -1.61846)
(1.60534 0 -1.18416)
(1.0016 -2.21175e-22 -0.782514)
(0.679223 0 -0.525054)
(0.463465 -3.11841e-20 -0.361144)
(0.308064 0 -0.248925)
(0.192887 0 -0.167491)
(0.106016 0 -0.106538)
(0.0388515 0 -0.0609852)
(-0.013364 -9.69625e-20 -0.0257373)
(-0.0538751 -9.88765e-20 0.00200564)
(-0.085443 0 0.0239485)
(-0.109736 1.99919e-19 0.0405414)
(-0.127774 0 0.0539564)
(-0.141658 2.66549e-22 0.0643283)
(-0.151689 0 0.072053)
(-0.158764 9.62411e-20 0.0777378)
(-0.163113 0 0.0817464)
(-0.164859 0 0.0844363)
(-0.164882 0 0.0856813)
(-0.163914 3.51195e-19 0.0860005)
(-0.16239 -3.43656e-19 0.0858147)
(-0.158991 -4.51289e-22 0.0854281)
(-0.154228 1.62502e-19 0.0839306)
(-0.149619 0 0.0816805)
(-0.14477 0 0.0793855)
(-0.13948 0 0.0768888)
(-0.133973 -2.82975e-19 0.074167)
(-0.128281 -5.45687e-19 0.0713107)
(-0.122542 0 0.0683791)
(-0.116858 0 0.0654068)
(-0.111258 -2.44265e-19 0.0624176)
(-0.105692 -2.34966e-19 0.0594254)
(-0.100184 0 0.0564546)
(-0.0948106 0 0.0535366)
(-0.0895983 -4.17437e-19 0.0506748)
(-0.0845704 0 0.0478814)
(-0.0797219 6.11061e-23 0.0451831)
(-0.0750396 -3.69216e-19 0.0425783)
(-0.0705557 -3.54235e-19 0.0400763)
(-0.0662783 0 0.0376796)
(-0.0621815 -3.25578e-19 0.035378)
(-0.0582535 -3.11905e-19 0.0331707)
(-0.0545037 5.97496e-19 0.0310645)
(-0.0509524 -5.72157e-19 0.0290693)
(-0.0476557 0 0.0272158)
(-0.0446561 5.2402e-19 0.0255291)
(-0.0419975 -5.01221e-19 0.0240368)
(-0.039727 0 0.0227653)
(-0.0378585 -1.00047e-23 0.0217213)
(-0.0363804 4.37836e-19 0.0208966)
(-0.0352296 0 0.020254)
(-0.0342765 -7.98964e-19 0.0197178)
(-0.0333269 0 0.0191759)
(-0.0320948 0 0.0184665)
(-0.0302091 5.14281e-24 0.0173797)
(-0.02724 4.60352e-24 0.0157075)
(-0.0228228 6.31691e-19 0.0132077)
(-0.0167575 -6.01886e-19 0.00976004)
(-0.00903464 1.14628e-18 0.00535775)
(9.4212e-05 0 0.000137854)
(0.0104152 1.03751e-18 -0.00578383)
(0.0220484 9.86258e-19 -0.0124738)
(0.0359945 -1.87407e-18 -0.0204845)
(0.0537012 8.89564e-19 -0.0306073)
(0.0767312 0 -0.0436997)
(0.104957 0 -0.0596864)
(0.136082 0 -0.0773077)
(0.165046 0 -0.0937727)
(0.185616 0 -0.105634)
(0.193327 -1.24025e-18 -0.109921)
(0.184959 1.1611e-18 -0.105401)
(0.16355 0 -0.0931438)
(0.13342 0 -0.075939)
(0.0998047 9.66698e-19 -0.0566816)
(0.0708535 1.44998e-22 -0.0399204)
(0.0450496 1.71004e-18 -0.0247996)
(0.0163127 0 -0.00813653)
(-0.00910885 0 0.00627144)
(-0.0271373 0 0.0161879)
(-0.030158 4.42038e-24 0.0175364)
(-0.00518468 0 0.00294292)
(0.0170482 0 -0.0100522)
(0.0295826 1.12102e-18 -0.0173993)
(0.0393308 -4.38369e-23 -0.023043)
(0.0759931 0 -0.0432206)
(0.109436 0 -0.0615142)
(0.214749 -1.71373e-18 -0.120578)
(0.318822 -1.50912e-18 -0.17837)
(0.518409 -1.30552e-18 -0.290964)
(0.729234 -1.0298e-18 -0.40929)
(0.885748 2.58772e-21 -0.499682)
(1.07665 2.86531e-21 -0.609522)
(0.87214 2.03152e-19 -0.492716)
(0.559506 0 -0.324509)
(0.556443 0 -0.318343)
(-0.0837851 0 0.0439264)
(-0.0887363 1.17721e-18 0.0487627)
(0.0531805 -3.39358e-19 -0.0283137)
(-0.201732 4.4016e-19 0.113349)
(0.171152 4.16019e-19 -0.0982075)
(0.0633556 0 -0.0368682)
(0.135173 0 -0.0775813)
(0.242979 0 -0.138315)
(0.244475 5.32942e-19 -0.13736)
(0.105753 0 -0.0501542)
(-0.430286 5.9524e-20 0.260511)
(-1.12944 0 0.655617)
(-1.7239 0 0.982396)
(-2.05189 3.4959e-19 1.16528)
(-2.0879 0 1.1825)
(-1.93699 0 1.09364)
(-1.48624 0 0.834089)
(-0.922679 -3.97796e-18 0.516003)
(-0.405751 0 0.223857)
(-0.306044 3.96037e-18 0.169762)
(-0.173212 0 0.095863)
(0.253592 -8.51162e-22 -0.141874)
(30.2663 -1.55842e-20 -0.883964)
(20.9869 1.99089e-20 -3.28388)
(13.218 1.30069e-20 -4.15223)
(8.32696 0 -3.58072)
(5.51774 -1.37008e-20 -2.68393)
(3.82544 2.39148e-20 -1.95312)
(2.72854 3.25303e-20 -1.42136)
(1.96514 -3.75704e-20 -1.03316)
(1.4064 0 -0.742207)
(0.984165 0 -0.519105)
(0.658092 0 -0.34619)
(0.40322 0 -0.209926)
(0.202036 0 -0.101426)
(0.0416203 0 -0.0144734)
(-0.0845646 -6.87957e-22 0.0554052)
(-0.184237 0 0.110121)
(-0.263824 1.02948e-19 0.153689)
(-0.325585 0 0.187695)
(-0.373127 -1.99961e-19 0.213913)
(-0.408432 1.95862e-19 0.233585)
(-0.433256 0 0.24802)
(-0.450067 1.8717e-19 0.257274)
(-0.460526 -1.82491e-19 0.262031)
(-0.465681 1.78372e-19 0.26411)
(-0.464925 -1.74246e-19 0.264792)
(-0.460081 0 0.262312)
(-0.452802 1.61878e-19 0.257367)
(-0.442999 0 0.251486)
(-0.431132 0 0.244755)
(-0.417811 0 0.237166)
(-0.403316 2.82155e-19 0.228988)
(-0.388007 0 0.220382)
(-0.372208 0 0.21148)
(-0.356172 0 0.202406)
(-0.339949 0 0.193227)
(-0.323656 0 0.184034)
(-0.307498 0 0.174917)
(-0.291576 4.29492e-19 0.165911)
(-0.276025 0 0.157098)
(-0.260933 7.90281e-19 0.148548)
(-0.246289 7.57658e-19 0.140258)
(-0.23217 3.63052e-19 0.132262)
(-0.218604 0 0.124566)
(-0.205546 0 0.117149)
(-0.19299 6.37574e-19 0.11002)
(-0.180975 -6.10082e-19 0.103204)
(-0.169562 5.83497e-19 0.0967373)
(-0.158925 0 0.0907232)
(-0.149218 -5.33239e-19 0.0852482)
(-0.1406 0 0.0804079)
(-0.133232 0 0.076289)
(-0.127166 -4.64622e-19 0.0729129)
(-0.122366 0 0.0702501)
(-0.118634 0 0.0681742)
(-0.115555 8.07236e-19 0.0664329)
(-0.112497 0 0.0646498)
(-0.108526 0 0.0622807)
(-0.102423 9.99168e-24 0.0586378)
(-0.0928216 6.65942e-19 0.0529629)
(-0.078478 -6.16249e-24 0.0445139)
(-0.0586727 0 0.0329066)
(-0.0332969 -1.14724e-18 0.0181117)
(-0.00307797 -1.09022e-18 0.000562578)
(0.0313305 0 -0.0193945)
(0.0702354 -1.96565e-18 -0.0420094)
(0.116612 -1.57989e-23 -0.0690699)
(0.174763 0 -0.103059)
(0.249391 8.36792e-19 -0.146589)
(0.340038 0 -0.199176)
(0.439698 0 -0.256584)
(0.53299 0 -0.309793)
(0.600649 0 -0.347818)
(0.627994 2.44299e-18 -0.362152)
(0.604815 -1.14231e-18 -0.346986)
(0.538397 0 -0.307257)
(0.441573 0 -0.250745)
(0.32954 9.46532e-19 -0.186317)
(0.228668 2.41732e-22 -0.128683)
(0.136448 2.83581e-22 -0.075579)
(0.0380639 0 -0.0188346)
(-0.04349 0 0.027451)
(-0.0980974 0 0.0577408)
(-0.10361 6.49381e-24 0.0589216)
(-0.0185327 -1.2155e-18 0.00860575)
(0.0592998 1.14494e-18 -0.0357761)
(0.103864 -1.08314e-18 -0.0610666)
(0.135169 -7.2533e-23 -0.0798933)
(0.242799 -9.64991e-19 -0.142831)
(0.336487 0 -0.198674)
(0.654792 1.64719e-18 -0.385758)
(0.958509 0 -0.563479)
(1.57416 1.25175e-18 -0.923504)
(2.1957 0 -1.28183)
(2.72472 -1.3812e-18 -1.58473)
(3.34439 -4.81724e-19 -1.93479)
(2.79088 0 -1.58749)
(1.92411 0 -1.10012)
(1.87119 -4.20366e-19 -1.05727)
(-0.171234 2.98591e-19 0.12176)
(-0.268881 -1.11794e-18 0.14925)
(0.140904 3.223e-19 -0.0767695)
(-0.615641 -4.17662e-19 0.351251)
(0.561408 0 -0.332286)
(0.224091 3.43954e-19 -0.127485)
(0.44159 0 -0.260775)
(0.768479 0 -0.446211)
(0.704434 -5.07824e-19 -0.404564)
(0.111253 0 -0.0452704)
(-1.67378 -4.28365e-21 1.00225)
(-3.81845 -2.11087e-19 2.24274)
(-5.4847 0 3.19405)
(-6.29348 0 3.65066)
(-6.25064 0 3.61512)
(-5.71515 1.3267e-18 3.29332)
(-4.3622 -3.45157e-18 2.49519)
(-2.68462 3.73965e-18 1.52419)
(-1.12065 0 0.631137)
(-0.806362 -3.71979e-18 0.464065)
(-0.524176 0 0.286591)
(0.733722 6.6401e-18 -0.435704)
(33.8796 3.30673e-20 -0.705289)
(29.2783 -8.96204e-21 -2.83333)
(22.7382 -5.52514e-21 -4.52452)
(16.6145 0 -4.87621)
(11.9152 -1.58077e-20 -4.34508)
(8.62337 5.6722e-22 -3.53822)
(6.34235 0 -2.77317)
(4.71447 3.56602e-20 -2.13635)
(3.51185 0 -1.62442)
(2.59836 4.26998e-20 -1.21456)
(1.89014 0 -0.884954)
(1.33246 0 -0.618819)
(0.888588 0 -0.40295)
(0.532371 0 -0.227149)
(0.247534 -9.80496e-20 -0.0821673)
(0.0177712 0 0.0332207)
(-0.167083 0 0.127282)
(-0.314568 0 0.202491)
(-0.431494 9.47132e-20 0.262537)
(-0.522538 -5.06693e-22 0.309521)
(-0.59178 0 0.345743)
(-0.643521 -1.47519e-22 0.37235)
(-0.680549 0 0.390344)
(-0.705081 -1.68362e-19 0.402159)
(-0.718262 0 0.409739)
(-0.723402 0 0.410879)
(-0.721754 -1.53547e-19 0.40769)
(-0.713889 0 0.402223)
(-0.701389 0 0.394433)
(-0.685251 -2.77043e-19 0.384825)
(-0.666111 0 0.373856)
(-0.644716 0 0.361738)
(-0.621684 0 0.348765)
(-0.597568 0 0.335215)
(-0.572622 2.2937e-19 0.321244)
(-0.547129 0 0.307028)
(-0.521476 0 0.292731)
(-0.495877 -4.06618e-19 0.278453)
(-0.470609 0 0.264391)
(-0.445906 -7.48244e-19 0.250649)
(-0.421798 -6.40689e-23 0.237241)
(-0.398421 -3.43719e-19 0.224232)
(-0.375848 0 0.211642)
(-0.354032 0 0.199451)
(-0.332982 -3.01643e-19 0.187693)
(-0.312785 0 0.17642)
(-0.293548 -5.51964e-19 0.165707)
(-0.275568 0 0.155736)
(-0.259119 3.12297e-23 0.146659)
(-0.244485 0 0.138645)
(-0.231952 0 0.13184)
(-0.221621 0 0.126276)
(-0.213438 -4.19009e-19 0.121898)
(-0.207078 0 0.11848)
(-0.201842 0 0.11558)
(-0.196657 0 0.112542)
(-0.189938 0 0.108423)
(-0.179603 1.31986e-18 0.102058)
(-0.163352 0 0.0920943)
(-0.138997 -4.41564e-24 0.0773374)
(-0.10524 0 0.0571529)
(-0.0618038 5.40961e-19 0.0314897)
(-0.0098258 1.02792e-18 0.00104991)
(0.049611 0 -0.0336439)
(0.116886 1.85249e-18 -0.0730695)
(0.196688 8.78523e-19 -0.120176)
(0.295831 0 -0.178899)
(0.421911 -7.88053e-19 -0.25323)
(0.574224 0 -0.341947)
(0.741574 0 -0.43782)
(0.899244 0 -0.526064)
(1.01562 0 -0.588932)
(1.06589 4.28247e-22 -0.613276)
(1.03241 1.07425e-18 -0.587799)
(0.924544 0 -0.521342)
(0.76221 0 -0.425694)
(0.568798 1.89682e-22 -0.314552)
(0.389075 -1.67326e-18 -0.212273)
(0.222167 -7.84099e-19 -0.116086)
(0.0489221 0 -0.0166947)
(-0.0883571 0 0.0592917)
(-0.176407 0 0.10553)
(-0.181044 -2.41754e-18 0.100979)
(-0.032692 4.17072e-23 0.011256)
(0.105663 -1.07404e-18 -0.0666487)
(0.185623 0 -0.111067)
(0.237197 -9.5823e-19 -0.143005)
(0.405004 9.04679e-19 -0.241781)
(0.543876 0 -0.327525)
(1.05397 0 -0.629916)
(1.52358 1.36198e-18 -0.9068)
(2.53086 0 -1.49846)
(3.49374 9.33301e-19 -2.04515)
(4.41895 -3.04383e-21 -2.5727)
(5.46165 4.582e-19 -3.14451)
(4.68494 -1.87425e-19 -2.62429)
(3.37388 0 -1.91356)
(3.26998 3.93393e-19 -1.80709)
(-0.135831 -2.7939e-19 0.153799)
(-0.431734 1.04475e-18 0.232201)
(0.206331 0 -0.101875)
(-0.996322 -3.88649e-19 0.554701)
(0.95742 0 -0.580319)
(0.405942 -3.21622e-19 -0.228759)
(0.750813 3.33412e-19 -0.451627)
(1.27215 0 -0.73785)
(1.07438 4.74688e-19 -0.593811)
(-0.106029 0 0.152563)
(-3.17451 -9.36842e-20 1.97146)
(-6.63212 1.97253e-19 3.94881)
(-9.11031 0 5.31398)
(-10.1524 0 5.85491)
(-9.89522 0 5.66609)
(-8.94765 -6.69795e-21 5.07053)
(-6.79257 3.22406e-18 3.79146)
(-4.16052 -3.47989e-18 2.2806)
(-1.67496 0 0.893694)
(-1.15647 -3.46834e-18 0.643577)
(-0.841795 0 0.433164)
(1.15185 9.83518e-22 -0.693505)
(34.528 -1.73247e-20 -0.868298)
(33.1814 -4.85254e-21 -2.14104)
(29.3234 7.95505e-21 -3.91958)
(24.1987 -1.55748e-20 -5.04065)
(19.0922 -2.16211e-20 -5.23019)
(14.742 -4.53195e-20 -4.78526)
(11.3189 0 -4.08048)
(8.69744 0 -3.34531)
(6.68662 0 -2.6767)
(5.12557 -4.04471e-20 -2.10104)
(3.89737 0 -1.61622)
(2.91949 0 -1.21144)
(2.13367 0 -0.87451)
(1.49745 0 -0.594513)
(0.981589 0 -0.361078)
(0.561946 -9.1839e-20 -0.169271)
(0.220095 9.13073e-20 -0.0106281)
(-0.057241 0 0.118947)
(-0.281121 0 0.224524)
(-0.460332 -1.75584e-19 0.309083)
(-0.60156 1.71533e-19 0.376492)
(-0.711643 -1.68069e-19 0.428845)
(-0.795136 1.63621e-19 0.468171)
(-0.856396 1.59428e-19 0.496796)
(-0.898701 -1.53908e-19 0.51724)
(-0.92575 1.49574e-19 0.529016)
(-0.939612 0 0.533553)
(-0.943355 -1.40639e-19 0.531669)
(-0.938182 0 0.526213)
(-0.925728 2.62209e-19 0.517708)
(-0.907523 0 0.506492)
(-0.884749 0 0.493088)
(-0.858439 0 0.477948)
(-0.829539 -2.25609e-19 0.461552)
(-0.798613 -2.16974e-19 0.444181)
(-0.7662 0 0.426129)
(-0.732942 0 0.407665)
(-0.699234 3.84506e-19 0.388975)
(-0.665538 0 0.370381)
(-0.63227 8.74748e-23 0.352055)
(-0.599548 -3.38976e-19 0.334038)
(-0.567597 0 0.316444)
(-0.536561 0 0.299318)
(-0.506418 0 0.282653)
(-0.477213 0 0.266515)
(-0.449092 -5.45042e-19 0.250998)
(-0.422224 0 0.236227)
(-0.39703 4.98182e-19 0.22247)
(-0.373921 4.76025e-19 0.209951)
(-0.353314 0 0.198915)
(-0.335626 0 0.189565)
(-0.32102 0 0.181942)
(-0.309436 3.95316e-19 0.175955)
(-0.300426 -3.77046e-19 0.171266)
(-0.293014 -7.1902e-19 0.167231)
(-0.285686 0 0.16289)
(-0.276206 -6.53047e-19 0.156885)
(-0.261635 -1.24406e-18 0.147545)
(-0.238702 0 0.132982)
(-0.204269 -1.12717e-18 0.111522)
(-0.156419 0 0.0822934)
(-0.0946419 -5.09502e-19 0.0452446)
(-0.0204157 -9.67957e-19 0.00134127)
(0.0647578 0 -0.048743)
(0.1612 -8.71845e-19 -0.105736)
(0.274998 -8.26782e-19 -0.17368)
(0.415055 0 -0.25778)
(0.59154 0 -0.363133)
(0.803613 0 -0.487588)
(1.03654 6.59169e-19 -0.620985)
(1.25756 6.18446e-19 -0.743209)
(1.4238 0 -0.830302)
(1.50112 -1.08031e-18 -0.864205)
(1.46267 -1.00999e-18 -0.829599)
(1.31855 0 -0.737048)
(1.09356 0 -0.602172)
(0.816918 -8.35344e-19 -0.442757)
(0.551619 -2.20297e-22 -0.292556)
(0.301567 0 -0.149155)
(0.0485878 0 -0.00532444)
(-0.142897 0 0.0984351)
(-0.2601 0 0.156738)
(-0.25987 -2.13624e-24 0.141778)
(-0.0460746 1.06929e-18 0.00967265)
(0.156645 0 -0.102823)
(0.274661 0 -0.166494)
(0.344005 0 -0.210573)
(0.558306 8.47837e-19 -0.338719)
(0.723879 0 -0.447886)
(1.39931 1.44898e-18 -0.855688)
(1.99198 -1.27543e-18 -1.2148)
(3.36318 1.10508e-18 -2.02995)
(4.56853 -8.73712e-19 -2.71569)
(5.91789 1.22312e-18 -3.48608)
(7.35315 -4.28813e-19 -4.25027)
(6.50899 1.75378e-19 -3.61878)
(4.86617 0 -2.73834)
(4.74794 0 -2.57244)
(0.0541068 -2.59271e-19 0.137947)
(-0.567994 -4.88303e-19 0.303262)
(0.250479 -2.83941e-19 -0.113399)
(-1.33052 1.06065e-21 0.729817)
(1.35315 0 -0.84041)
(0.611293 0 -0.340804)
(1.0595 -3.11642e-19 -0.64888)
(1.73789 0 -1.01119)
(1.32178 -4.4786e-19 -0.707472)
(-0.588083 0 0.518676)
(-4.94033 3.53813e-21 3.12201)
(-9.50227 0 5.72392)
(-12.4617 6.42814e-20 7.31515)
(-13.4747 2.63959e-19 7.79636)
(-12.9014 7.16984e-19 7.39063)
(-11.532 -7.77492e-21 6.51934)
(-8.69241 0 4.80525)
(-5.30488 3.2498e-18 2.85138)
(-2.05971 3.36971e-18 1.06143)
(-1.35455 3.23863e-18 0.751851)
(-1.11457 0 0.547318)
(1.50878 1.14018e-21 -0.937613)
(34.1945 0 -1.34221)
(34.2883 -3.52956e-21 -1.90421)
(32.7472 0 -3.22882)
(29.5862 1.47151e-20 -4.54109)
(25.4611 3.45589e-20 -5.30258)
(21.1346 2.20165e-20 -5.42)
(17.1477 0 -5.06488)
(13.7366 0 -4.46189)
(10.9237 -3.4942e-20 -3.78073)
(8.63738 -3.76493e-20 -3.11687)
(6.78393 3.97399e-20 -2.51247)
(5.27748 8.25447e-20 -1.98065)
(4.04796 8.46405e-20 -1.52101)
(3.04015 0 -1.128)
(2.21268 0 -0.793275)
(1.53208 1.73289e-19 -0.511626)
(0.971648 -3.54234e-22 -0.274936)
(0.51151 0 -0.0772442)
(0.134349 -8.40406e-20 0.0864758)
(-0.172456 -1.65215e-19 0.221018)
(-0.419887 -1.62172e-19 0.33021)
(-0.618026 0 0.417734)
(-0.773951 -1.54675e-19 0.486304)
(-0.894126 1.49874e-19 0.538878)
(-0.98401 1.45476e-19 0.578396)
(-1.04838 -6.57587e-23 0.607052)
(-1.09183 0 0.625585)
(-1.1177 1.47572e-22 0.634733)
(-1.12978 0 0.634979)
(-1.12977 2.47292e-19 0.630453)
(-1.11956 0 0.622211)
(-1.10143 0 0.610113)
(-1.07686 0 0.595142)
(-1.04738 2.13089e-19 0.57794)
(-1.014 0 0.558921)
(-0.977611 0 0.538541)
(-0.939194 0 0.517217)
(-0.8994 0 0.495253)
(-0.858937 -3.47979e-19 0.473118)
(-0.818467 6.67356e-19 0.451055)
(-0.778247 0 0.429153)
(-0.738625 3.06389e-19 0.407593)
(-0.699856 0 0.386458)
(-0.661975 0 0.365766)
(-0.625086 0 0.345633)
(-0.589413 5.72386e-23 0.326203)
(-0.555203 0 0.307668)
(-0.52301 -4.69734e-19 0.290393)
(-0.493391 0 0.274676)
(-0.466904 0 0.260844)
(-0.444112 -4.09077e-19 0.249152)
(-0.425249 0 0.239647)
(-0.410257 0 0.232194)
(-0.398574 9.4111e-24 0.226331)
(-0.388951 6.77231e-19 0.221192)
(-0.379437 0 0.215502)
(-0.367148 9.14518e-24 0.207464)
(-0.348301 1.17116e-18 0.194889)
(-0.318652 0 0.175365)
(-0.274109 5.30378e-19 0.146762)
(-0.212099 0 0.108009)
(-0.131828 4.79315e-19 0.0590846)
(-0.0350638 9.10443e-19 0.00122247)
(0.0762742 0 -0.0647732)
(0.202298 8.19774e-19 -0.139893)
(0.350157 -1.81404e-23 -0.229187)
(0.530406 0 -0.338919)
(0.755494 0 -0.474997)
(1.02467 0 -0.63414)
(1.32046 -1.23857e-18 -0.803349)
(1.60356 2.00651e-22 -0.957689)
(1.82101 0 -1.06769)
(1.92973 1.01512e-18 -1.11111)
(1.89287 1.89648e-18 -1.06851)
(1.71883 0 -0.951484)
(1.4354 0 -0.778232)
(1.07499 0 -0.569552)
(0.718361 -2.19211e-22 -0.368215)
(0.377456 0 -0.173422)
(0.0404254 0 0.0160669)
(-0.203599 0 0.144441)
(-0.345656 0 0.209986)
(-0.337177 1.06237e-18 0.179237)
(-0.0572644 1.00186e-18 0.002412)
(0.211972 0 -0.144804)
(0.369471 0 -0.227066)
(0.452941 0 -0.281167)
(0.698833 1.26094e-22 -0.430281)
(0.871903 0 -0.554612)
(1.68608 -1.35645e-18 -1.05446)
(2.35713 0 -1.47368)
(4.0716 -1.03422e-18 -2.50135)
(5.40432 0 -3.2564)
(7.21753 -5.73802e-19 -4.29426)
(8.97776 0 -5.19585)
(8.23551 0 -4.53713)
(6.33898 0 -3.54217)
(6.2994 0 -3.34564)
(0.416834 2.42427e-19 0.0645424)
(-0.670742 0 0.357831)
(0.282519 2.6544e-19 -0.110822)
(-1.61492 3.38688e-19 0.863658)
(1.74013 0 -1.10858)
(0.841063 0 -0.464377)
(1.36515 0 -0.850189)
(2.15528 0 -1.25231)
(1.43444 -2.1817e-21 -0.712688)
(-1.32652 0 1.09132)
(-6.91983 6.9279e-20 4.45776)
(-12.3311 0 7.50579)
(-15.4388 -1.24195e-19 9.09079)
(-16.2251 -2.46532e-19 9.35968)
(-15.2968 -6.69607e-19 8.69349)
(-13.5316 -1.06789e-18 7.55196)
(-10.118 0 5.47473)
(-6.16783 0 3.20177)
(-2.31769 -6.28917e-18 1.12018)
(-1.43437 3.01835e-18 0.774726)
(-1.34164 3.06318e-18 0.619979)
(1.82195 -2.70462e-18 -1.16247)
(33.7519 0 -1.79871)
(34.1518 3.29955e-20 -2.01524)
(33.9207 0 -2.80333)
(32.5187 0 -3.89457)
(29.9413 0 -4.86183)
(26.5679 0 -5.42434)
(22.878 0 -5.52215)
(19.2595 3.03531e-20 -5.24583)
(15.9494 3.29711e-20 -4.73659)
(13.0498 7.09408e-20 -4.11985)
(10.5726 -7.48115e-20 -3.48164)
(8.48355 -7.79114e-20 -2.87124)
(6.73263 -7.98943e-20 -2.31239)
(5.26861 0 -1.81409)
(4.04648 0 -1.37636)
(3.02727 -1.62875e-19 -0.997677)
(2.17783 -1.62027e-19 -0.67255)
(1.47159 0 -0.395722)
(0.885793 7.93317e-20 -0.162181)
(0.402757 1.55954e-19 0.0340761)
(0.0063635 0 0.196083)
(-0.316484 1.48932e-19 0.329103)
(-0.576463 0 0.436572)
(-0.782904 -2.37248e-22 0.522123)
(-0.944104 -1.37125e-19 0.588708)
(-1.06685 -3.26113e-23 0.639347)
(-1.15696 0 0.676354)
(-1.22007 1.25264e-19 0.702315)
(-1.26153 -2.41538e-19 0.716142)
(-1.28394 -4.66387e-19 0.720331)
(-1.29128 -2.24868e-19 0.717353)
(-1.28537 0 0.709859)
(-1.26905 -2.08708e-19 0.697636)
(-1.24443 0 0.681936)
(-1.21315 0 0.663289)
(-1.17662 0 0.642342)
(-1.13623 0 0.619688)
(-1.09301 0 0.595777)
(-1.04798 1.02962e-22 0.571255)
(-1.00212 -3.14475e-19 0.546453)
(-0.9559 0 0.521524)
(-0.909833 -5.77402e-19 0.496734)
(-0.864331 0 0.472223)
(-0.819532 0 0.448045)
(-0.775625 0 0.424385)
(-0.732943 4.84155e-19 0.401452)
(-0.691822 0 0.379519)
(-0.652964 0 0.359058)
(-0.617083 0 0.340447)
(-0.58489 0 0.324098)
(-0.5571 7.70122e-19 0.310316)
(-0.534034 0 0.299145)
(-0.515643 0 0.290396)
(-0.501264 3.34197e-19 0.283466)
(-0.489383 0 0.277252)
(-0.477616 0 0.27014)
(-0.462446 1.15659e-18 0.259885)
(-0.439259 -5.50656e-19 0.243773)
(-0.402863 0 0.218882)
(-0.348218 0 0.18267)
(-0.27208 0 0.133911)
(-0.173342 -4.50461e-19 0.072663)
(-0.0540171 0 0.000446566)
(0.0835495 0 -0.0818104)
(0.239098 -1.54011e-18 -0.175365)
(0.420486 1.45999e-18 -0.286184)
(0.639482 0 -0.421391)
(0.910526 0 -0.587441)
(1.23323 0 -0.779798)
(1.58829 5.81319e-19 -0.982812)
(1.93145 -5.45267e-19 -1.16734)
(2.201 -1.02035e-18 -1.29915)
(2.3457 -9.523e-19 -1.35228)
(2.31806 -8.89587e-19 -1.3031)
(2.1222 8.33031e-19 -1.16325)
(1.78658 0 -0.952798)
(1.34372 0 -0.694363)
(0.891194 6.91003e-19 -0.43928)
(0.452397 0 -0.189697)
(0.0275357 0 0.0457494)
(-0.26696 0 0.195012)
(-0.429488 0 0.262792)
(-0.409841 0 0.211149)
(-0.0650218 -1.87646e-18 -0.0118659)
(0.270883 0 -0.192675)
(0.467965 -8.34677e-19 -0.291618)
(0.560658 0 -0.352497)
(0.821811 1.34632e-22 -0.513238)
(0.98232 1.3756e-18 -0.644753)
(1.90765 0 -1.22394)
(2.60919 0 -1.68275)
(4.65126 0 -2.91635)
(5.97609 0 -3.66945)
(8.30813 5.429e-19 -5.01106)
(10.2676 0 -5.97172)
(9.82309 0 -5.37165)
(7.71637 0 -4.28443)
(7.90714 0 -4.11824)
(0.965603 0 -0.0654869)
(-0.725832 0 0.397995)
(0.309797 0 -0.100962)
(-1.83834 0 0.954545)
(2.10621 -3.01315e-19 -1.37897)
(1.09523 0 -0.59905)
(1.66478 0 -1.05308)
(2.50879 0 -1.45155)
(1.38691 3.92921e-19 -0.600212)
(-2.32463 0 1.85835)
(-9.059 -3.09572e-20 5.931)
(-15.0001 0 9.21975)
(-17.9238 -4.62405e-21 10.5909)
(-18.3429 0 10.5757)
(-17.0721 6.09821e-19 9.66456)
(-14.966 0 8.2761)
(-11.1009 0 5.88819)
(-6.77755 0 3.39569)
(-2.47212 2.93419e-18 1.11045)
(-1.40463 -5.63284e-18 0.74595)
(-1.51909 -5.71848e-18 0.65613)
(2.09638 -2.52688e-18 -1.38139)
(33.4293 0 -2.09038)
(33.7242 -3.52523e-20 -2.21918)
(33.9433 0 -2.65267)
(33.5936 0 -3.40861)
(32.3721 -2.73692e-20 -4.28327)
(30.2812 -2.694e-20 -5.02368)
(27.5253 2.78206e-20 -5.46427)
(24.3856 -8.75842e-20 -5.55927)
(21.1358 0 -5.35231)
(17.9909 1.29071e-23 -4.92993)
(15.0876 3.51536e-20 -4.38279)
(12.492 0 -3.7843)
(10.2199 0 -3.18483)
(8.25737 0 -2.61518)
(6.5774 0 -2.09104)
(5.14813 3.0004e-22 -1.6205)
(3.9374 2.68441e-22 -1.20474)
(2.91611 7.52802e-20 -0.842052)
(2.05795 7.43307e-20 -0.529353)
(1.34055 0 -0.261916)
(0.744031 -1.43319e-19 -0.0362155)
(0.251122 -1.40373e-19 0.152759)
(-0.152673 0 0.308948)
(-0.48001 -1.48402e-22 0.436473)
(-0.742257 2.99043e-23 0.538859)
(-0.948998 -1.2563e-19 0.619657)
(-1.10865 0 0.681529)
(-1.22862 0 0.72703)
(-1.31455 2.2758e-19 0.76027)
(-1.37315 1.9861e-22 0.780553)
(-1.40847 4.23546e-19 0.789376)
(-1.42532 0 0.788075)
(-1.42542 3.93066e-19 0.781998)
(-1.41259 0 0.770526)
(-1.38928 0 0.754604)
(-1.3575 -1.74562e-19 0.735152)
(-1.31925 0 0.712972)
(-1.27603 -3.21799e-19 0.688683)
(-1.22927 1.00256e-22 0.663145)
(-1.18038 2.95886e-19 0.636793)
(-1.1301 0 0.609861)
(-1.07919 5.74936e-23 0.582727)
(-1.02827 0 0.555603)
(-0.977647 0 0.528597)
(-0.92762 0 0.501982)
(-0.878663 0 0.476049)
(-0.831232 0 0.451167)
(-0.78618 4.15966e-19 0.427927)
(-0.7444 0 0.406794)
(-0.706762 0 0.388264)
(-0.674144 -3.6206e-19 0.37269)
(-0.64697 0 0.360106)
(-0.625209 -3.29453e-19 0.350253)
(-0.608107 -3.14108e-19 0.342373)
(-0.593901 5.98748e-19 0.335104)
(-0.579786 0 0.326477)
(-0.561632 -5.4335e-19 0.313781)
(-0.534025 -5.17303e-19 0.293789)
(-0.49086 0 0.263089)
(-0.426182 0 0.218783)
(-0.336087 0 0.159557)
(-0.219137 4.22957e-19 0.0856092)
(-0.0775665 0 -0.00122287)
(0.0858533 0 -0.0998598)
(0.270308 7.22737e-19 -0.211853)
(0.484021 -1.37011e-18 -0.343979)
(0.739547 0 -0.504048)
(1.05305 0 -0.698845)
(1.42489 0 -0.922507)
(1.83482 0 -1.15695)
(2.23542 -5.11708e-19 -1.36942)
(2.5577 9.56687e-19 -1.52168)
(2.74316 0 -1.5845)
(2.73313 0 -1.53055)
(2.525 -7.80715e-19 -1.37021)
(2.14553 0 -1.12446)
(1.62383 -6.89097e-19 -0.816498)
(1.07262 6.47759e-19 -0.505706)
(0.530078 0 -0.198619)
(0.0142862 0 0.0821824)
(-0.328503 0 0.247888)
(-0.507481 0 0.312744)
(-0.47469 0 0.235333)
(-0.0684058 8.78216e-19 -0.0342374)
(0.331994 0 -0.246071)
(0.567147 1.56214e-18 -0.358502)
(0.662945 0 -0.421644)
(0.922157 1.42718e-22 -0.583729)
(1.05056 6.03376e-22 -0.714722)
(2.06076 0 -1.36028)
(2.74586 1.05129e-18 -1.83906)
(5.10685 0 -3.2722)
(6.28553 0 -3.94881)
(9.20926 -1.01834e-18 -5.63998)
(11.1761 0 -6.53884)
(11.2438 0 -6.10677)
(8.91198 0 -4.92048)
(9.54142 0 -4.87758)
(1.70351 0 -0.247012)
(-0.720397 0 0.417304)
(0.34253 0 -0.0880555)
(-1.99263 0 0.994278)
(2.43642 2.81503e-19 -1.64383)
(1.37191 0 -0.743952)
(1.95542 0 -1.25414)
(2.78276 0 -1.59675)
(1.16474 -3.71183e-19 -0.34774)
(-3.55791 -1.84281e-19 2.82267)
(-11.2758 2.46601e-20 7.49791)
(-17.3895 -1.52216e-19 10.785)
(-19.8613 -5.01472e-21 11.7589)
(-19.8845 -1.94923e-19 11.4216)
(-18.3429 -1.13065e-18 10.2921)
(-15.9607 0 8.69557)
(-11.7474 2.40386e-18 6.06556)
(-7.20382 2.62013e-18 3.44816)
(-2.56776 0 1.04147)
(-1.29419 2.62777e-18 0.661758)
(-1.6477 2.66866e-18 0.654917)
(2.344 2.35865e-18 -1.59466)
(33.1935 0 -2.24923)
(33.3491 1.74352e-20 -2.38583)
(33.5904 0 -2.65803)
(33.659 0 -3.14754)
(33.2692 2.57707e-20 -3.80937)
(32.2516 2.53613e-20 -4.50594)
(30.5781 -2.61856e-20 -5.08737)
(28.3349 8.45022e-20 -5.44811)
(25.6806 0 -5.54705)
(22.801 3.17738e-20 -5.39992)
(19.8721 -6.58305e-20 -5.05727)
(17.0358 0 -4.58188)
(14.3889 6.97512e-20 -4.03282)
(11.9856 0 -3.45779)
(9.84663 7.14439e-20 -2.89038)
(7.97069 7.18214e-20 -2.35318)
(6.34293 7.14931e-20 -1.85879)
(4.94246 -7.08644e-20 -1.41326)
(3.74595 -1.39736e-19 -1.01857)
(2.7305 0 -0.673306)
(1.87428 1.34912e-19 -0.375438)
(1.15704 0 -0.121142)
(0.560893 0 0.0934626)
(0.06963 -1.25131e-19 0.272355)
(-0.331368 2.43154e-19 0.419409)
(-0.654813 0 0.538577)
(-0.911847 0 0.6333)
(-1.11236 0 0.706841)
(-1.26497 -2.1367e-19 0.762125)
(-1.37672 2.06463e-19 0.802596)
(-1.45518 -1.37611e-22 0.829901)
(-1.50571 1.91888e-19 0.843457)
(-1.53356 -3.6959e-19 0.844611)
(-1.54166 1.77668e-19 0.840353)
(-1.53382 -1.708e-19 0.829947)
(-1.5131 6.85652e-23 0.814368)
(-1.48226 0 0.794752)
(-1.44343 3.02656e-19 0.771912)
(-1.39859 2.90253e-19 0.746953)
(-1.3497 -2.7824e-19 0.720444)
(-1.29787 0 0.692715)
(-1.24419 2.55401e-19 0.664279)
(-1.18958 2.44467e-19 0.635448)
(-1.13454 2.33938e-19 0.6064)
(-1.07957 2.23774e-19 0.577515)
(-1.02531 0 0.549187)
(-0.972358 0 0.521894)
(-0.921749 -3.7873e-23 0.496362)
(-0.874563 0 0.473148)
(-0.831842 0 0.452833)
(-0.79464 -3.40076e-19 0.435813)
(-0.763496 3.24437e-19 0.422101)
(-0.738411 3.09415e-19 0.411359)
(-0.718558 8.87981e-24 0.40265)
(-0.701938 -1.37285e-23 0.394336)
(-0.685349 0 0.384075)
(-0.664081 0 0.368684)
(-0.631964 9.7112e-19 0.344431)
(-0.582039 0 0.307459)
(-0.507491 0 0.254579)
(-0.403788 -4.17718e-19 0.184471)
(-0.269169 0 0.0975569)
(-0.106069 0 -0.00396354)
(0.0823033 7.1485e-19 -0.118833)
(0.294413 -6.77843e-19 -0.248902)
(0.538519 1.28482e-18 -0.401675)
(0.827574 0 -0.585517)
(1.17924 -5.75531e-19 -0.807369)
(1.59502 0 -1.06004)
(2.05471 0 -1.32326)
(2.50947 9.59282e-19 -1.56126)
(2.88458 0 -1.73253)
(3.11538 0 -1.80514)
(3.13197 0 -1.74832)
(2.92265 0 -1.57012)
(2.51 0 -1.2916)
(1.91581 6.45291e-19 -0.935181)
(1.2655 2.14103e-22 -0.567589)
(0.614873 -5.68511e-19 -0.201228)
(0.00577726 5.30572e-19 0.123294)
(-0.383222 0 0.300392)
(-0.575365 0 0.357264)
(-0.528702 0 0.249784)
(-0.0669183 0 -0.0653945)
(0.393222 0 -0.304147)
(0.663147 -8.8817e-23 -0.425463)
(0.754763 0 -0.485052)
(0.994487 -6.50601e-19 -0.637586)
(1.07278 6.25589e-22 -0.761522)
(2.14378 0 -1.46146)
(2.76937 -9.82942e-19 -1.94487)
(5.44302 0 -3.57035)
(6.35166 6.84296e-19 -4.11008)
(9.94844 -3.05255e-21 -6.20001)
(11.6531 0 -6.88163)
(12.4826 0 -6.74233)
(9.83944 0 -5.40666)
(11.1593 0 -5.60726)
(2.62381 1.90914e-19 -0.469509)
(-0.637867 0 0.410918)
(0.391387 0 -0.0780202)
(-2.06753 2.72479e-19 0.978851)
(2.71406 0 -1.89424)
(1.66733 -2.28566e-19 -0.897387)
(2.23271 2.3775e-19 -1.44875)
(2.96269 0 -1.67092)
(0.754755 6.9527e-19 0.0569748)
(-4.99521 -2.91302e-21 3.96472)
(-13.4806 -4.50209e-20 9.09688)
(-19.3931 1.42126e-19 12.1288)
(-21.2438 6.09483e-20 12.5954)
(-20.9156 1.81987e-19 11.9782)
(-19.195 5.23994e-19 10.6911)
(-16.6105 8.41549e-19 8.91638)
(-12.1413 -2.24406e-18 6.0864)
(-7.49235 -2.44587e-18 3.40579)
(-2.63349 -2.54623e-18 0.93975)
(-1.11524 -2.44741e-18 0.544906)
(-1.73022 0 0.620574)
(2.57107 0 -1.80974)
(32.986 0 -2.33995)
(33.0604 1.87918e-20 -2.49062)
(33.2216 0 -2.70411)
(33.3676 0 -3.03652)
(33.3347 0 -3.50358)
(32.9635 0 -4.06082)
(32.1381 2.86715e-20 -4.62087)
(30.8092 -2.72574e-20 -5.08874)
(28.9964 2.92394e-20 -5.39216)
(26.7765 -5.93989e-20 -5.49561)
(24.2646 6.18835e-20 -5.39901)
(21.5915 0 -5.12839)
(18.8843 -6.55698e-20 -4.72423)
(16.2505 0 -4.23145)
(13.7701 -6.71658e-20 -3.69143)
(11.4932 -6.69643e-20 -3.1388)
(9.4447 0 -2.59924)
(7.63025 0 -2.09005)
(6.04307 6.55956e-20 -1.62198)
(4.66914 0 -1.2001)
(3.49068 0 -0.826493)
(2.48828 -1.2355e-19 -0.500256)
(1.64276 0 -0.219129)
(0.935578 0 0.020019)
(0.349319 -1.14278e-19 0.220788)
(-0.131816 0 0.38715)
(-0.521999 0 0.522974)
(-0.834031 0 0.631943)
(-1.07934 4.01538e-19 0.717585)
(-1.268 0 0.782752)
(-1.40874 -1.10074e-22 0.830733)
(-1.50952 -1.39115e-22 0.865283)
(-1.57785 1.73631e-19 0.883076)
(-1.61824 -1.66976e-19 0.888295)
(-1.63586 3.20948e-19 0.886005)
(-1.63433 1.54237e-19 0.877117)
(-1.6177 0 0.862471)
(-1.58893 0 0.843182)
(-1.5507 2.72512e-19 0.820651)
(-1.50568 -2.61242e-19 0.795602)
(-1.45553 0 0.768476)
(-1.40174 0 0.739956)
(-1.34562 -4.87533e-23 0.710478)
(-1.288 -2.19704e-19 0.680309)
(-1.2296 -2.10142e-19 0.649964)
(-1.17129 -4.01795e-19 0.619954)
(-1.11386 0 0.590883)
(-1.05853 -3.70857e-23 0.56363)
(-1.00658 0 0.538843)
(-0.959257 0 0.517197)
(-0.917796 3.19189e-19 0.499123)
(-0.88287 -3.04481e-19 0.484603)
(-0.854528 0 0.473201)
(-0.83189 2.76765e-19 0.463786)
(-0.812748 -1.3295e-23 0.454424)
(-0.793533 0 0.442389)
(-0.769004 0 0.42402)
(-0.732296 -9.10833e-19 0.395105)
(-0.675678 0 0.351394)
(-0.59156 0 0.289494)
(-0.474833 7.83337e-19 0.208176)
(-0.323435 0 0.108182)
(-0.139986 0 -0.00786009)
(0.0718394 -1.34012e-18 -0.138507)
(0.309671 6.35296e-19 -0.285875)
(0.581481 -6.0203e-19 -0.458166)
(0.900298 0 -0.66421)
(1.28508 5.39227e-19 -0.911008)
(1.73897 0 -1.19009)
(2.24268 -4.79227e-19 -1.47925)
(2.74769 -4.4933e-19 -1.74024)
(3.17515 0 -1.92898)
(3.45545 0 -2.01129)
(3.50793 7.32618e-19 -1.95359)
(3.30964 6.85318e-19 -1.7605)
(2.87683 0 -1.4524)
(2.21969 0 -1.04953)
(1.47279 -1.13585e-18 -0.625104)
(0.711737 5.32007e-19 -0.198799)
(0.00777052 -9.93136e-19 0.166747)
(-0.42571 0 0.349707)
(-0.628886 0 0.393885)
(-0.569233 0 0.252863)
(-0.0606144 0 -0.105524)
(0.451806 0 -0.36553)
(0.75129 -9.49178e-23 -0.489652)
(0.83036 0 -0.53857)
(1.03337 0 -0.670451)
(1.04633 6.47043e-22 -0.782727)
(2.15751 0 -1.52638)
(2.68888 -9.22338e-19 -2.00556)