/*--------------------------------*- C++ -*----------------------------------*\
| =========                 |                                                 |
| \\      /  F ield         | OpenFOAM: The Open Source CFD Toolbox           |
|  \\    /   O peration     | Version:  2412                                  |
|   \\  /    A nd           | Website:  www.openfoam.com                      |
|    \\/     M anipulation  |                                                 |
\*---------------------------------------------------------------------------*/
FoamFile
{
    version     2.0;
    format      ascii;
    arch        "LSB;label=32;scalar=64";
    class       surfaceScalarField;
    location    "1.06";
    object      phi_0;
}
// * * * * * * * * * * * * * * * * * * * * * * * * * * * * * * * * * * * * * //

dimensions      [0 3 -1 0 0 0 0];

oriented        oriented;

internalField   nonuniform List<scalar> 
24930
(
0.0155734
0.0208682
-0.036419
0.00638914
0.00918427
0.00293559
0.00345357
0.00164297
0.00129265
0.00105574
0.000587239
0.000712288
0.000343471
0.00048107
0.000231228
0.000315197
0.000165878
0.000192124
0.000123066
9.90545e-05
9.30558e-05
2.69011e-05
7.21496e-05
-2.90194e-05
5.59384e-05
-7.2909e-05
4.39198e-05
-0.000107552
3.46566e-05
-0.000133082
2.55059e-05
-0.00015383
2.07518e-05
-0.000169013
1.51444e-05
-0.000180205
1.10717e-05
-0.000187882
7.53794e-06
-0.000192783
4.97186e-06
-0.000195517
3.14309e-06
-0.000196374
1.36121e-06
-0.000195537
-9.48029e-07
-0.000193221
-3.30307e-06
-0.000189794
-4.54213e-06
-0.000185675
-3.53825e-06
-0.00018076
-4.0692e-06
-0.000175481
-4.86092e-06
-0.00016972
-5.68701e-06
-0.000163708
-6.06417e-06
-0.000157534
-6.19598e-06
-0.000151257
-6.25433e-06
-0.000144947
-6.26184e-06
-0.000138666
-6.23797e-06
-0.000132461
-6.19401e-06
-0.000126366
-6.11226e-06
-0.00012043
-5.95247e-06
-0.000114675
-5.74559e-06
-0.000109133
-5.51739e-06
-0.000103812
-5.30427e-06
-9.87333e-05
-5.07743e-06
-9.38876e-05
-4.85004e-06
-8.92521e-05
-4.63504e-06
-8.48297e-05
-4.42053e-06
-8.06176e-05
-4.21372e-06
-7.66411e-05
-3.98e-06
-7.29601e-05
-3.68245e-06
-6.96383e-05
-3.32114e-06
-6.67725e-05
-2.86508e-06
-6.44524e-05
-2.31981e-06
-6.27475e-05
-1.7014e-06
-6.16933e-05
-1.04876e-06
-6.1254e-05
-4.31883e-07
-6.13032e-05
2.20247e-08
-6.15785e-05
2.4952e-07
-6.16515e-05
9.75997e-08
-6.08864e-05
-7.55359e-07
-5.83894e-05
-2.49611e-06
-5.30606e-05
-5.33199e-06
-4.36584e-05
-9.40429e-06
-2.90072e-05
-1.46532e-05
-8.1541e-06
-2.08551e-05
1.89915e-05
-2.71476e-05
5.23704e-05
-3.33802e-05
9.02392e-05
-3.78722e-05
0.000130082
-3.98479e-05
0.000168287
-3.82117e-05
0.000201503
-3.3229e-05
0.000225833
-2.43413e-05
0.000239498
-1.36576e-05
0.000240262
-7.51158e-07
0.000227479
1.2793e-05
0.000198194
2.9305e-05
0.000150908
4.72932e-05
8.3635e-05
6.72729e-05
1.48764e-06
8.21399e-05
-8.55409e-05
8.70208e-05
-0.000165111
7.95618e-05
-0.000222205
5.70834e-05
-0.00024732
2.5098e-05
-0.00025287
5.4847e-06
-0.000230517
-2.23554e-05
-0.000177645
-5.28334e-05
-0.000119237
-5.84e-05
-0.000100505
-1.87365e-05
-0.000110511
1.00113e-05
-0.000117663
7.30301e-06
-0.000124564
6.40134e-06
-7.45394e-05
-5.0105e-05
5.91454e-05
-0.000133689
0.00067849
-0.000619344
0.000981669
-0.000303184
0.00205097
-0.00106933
0.00308607
-0.00103512
0.00341109
-0.000325096
0.00377765
-0.000366461
0.00214208
0.00163561
0.0012648
0.000877274
0.000481117
0.000783697
-0.000172804
0.000653902
-0.000171968
-6.57891e-07
-0.000306505
0.000134499
6.66708e-05
-0.00037316
0.000501226
-0.000434584
0.00067444
-0.000173215
0.000980581
-0.000306139
0.00134799
-0.000367414
0.00086079
0.000487219
-0.000951771
0.00181255
-0.00373611
0.00278435
-0.0061982
0.00246208
-0.00772438
0.00152618
-0.00821728
0.000492911
-0.00841408
0.000196922
-0.00766398
-0.000749982
-0.00634616
-0.00131781
-0.00446076
-0.0018854
-0.00184351
-0.00261725
0.00230678
-0.0041503
-0.00168628
0.033001
0.0298252
-0.0419579
0.0220789
0.0201065
0.0139206
0.0116118
0.00892187
0.00629142
0.00599316
0.00351596
0.00419652
0.00214012
0.00300399
0.00142377
0.00215988
0.00100999
0.00153633
0.000746632
0.00106187
0.000567538
0.000694597
0.000439436
0.000406361
0.000344183
0.000178763
0.000271501
3.97615e-06
0.000209448
-0.000150195
0.000179564
-0.000269116
0.0001396
-0.000362291
0.000108365
-0.000435098
8.40511e-05
-0.000491022
6.35724e-05
-0.00053302
4.67937e-05
-0.000563556
3.33567e-05
-0.000584127
2.1908e-05
-0.00059674
1.19508e-05
-0.000602461
2.6657e-06
-0.000602573
-4.76006e-06
-0.000598414
-7.523e-06
-0.000589924
-1.25324e-05
-0.000578804
-1.61644e-05
-0.000565169
-1.93975e-05
-0.000549629
-2.15991e-05
-0.000532636
-2.31783e-05
-0.0005146
-2.42628e-05
-0.000495875
-2.49502e-05
-0.000476718
-2.53823e-05
-0.000457342
-2.55709e-05
-0.000437959
-2.54807e-05
-0.000418799
-2.50832e-05
-0.000400012
-2.45091e-05
-0.000381729
-2.37898e-05
-0.000364021
-2.30037e-05
-0.000346979
-2.21093e-05
-0.000330609
-2.12134e-05
-0.000314862
-2.03842e-05
-0.000299758
-1.95286e-05
-0.00028531
-1.86624e-05
-0.000271611
-1.76789e-05
-0.000258867
-1.64295e-05
-0.000247311
-1.48815e-05
-0.000237277
-1.2903e-05
-0.000229076
-1.05223e-05
-0.000222953
-7.82596e-06
-0.000219026
-4.97425e-06
-0.000217153
-2.30071e-06
-0.000216895
-2.46659e-07
-0.00021731
6.59391e-07
-0.0002169
-2.94115e-07
-0.000213416
-4.2411e-06
-0.000203778
-1.2132e-05
-0.000184191
-2.49143e-05
-0.000150437
-4.31552e-05
-9.85588e-05
-6.65307e-05
-2.54579e-05
-9.39577e-05
6.88324e-05
-0.000121441
0.000184022
-0.000148576
0.00031445
-0.000168305
0.000451399
-0.000176803
0.000582982
-0.000169797
0.000697323
-0.00014757
0.00078194
-0.00010896
0.000829768
-6.15057e-05
0.000834116
-5.10117e-06
0.000791674
5.52165e-05
0.000693251
0.000127695
0.000531006
0.000209508
0.000298475
0.000299785
9.63135e-06
0.000370963
-0.000297451
0.000394095
-0.000575116
0.000357212
-0.000764376
0.000246346
-0.000840847
0.00010156
-0.000844999
9.5995e-06
-0.000760147
-0.000107206
-0.00056942
-0.000243587
-0.000361605
-0.000266206
-0.000288696
-9.16358e-05
-0.000313612
3.50436e-05
-0.00034797
4.16544e-05
-0.000351913
9.8979e-06
-0.000191105
-0.000210795
0.000266593
-0.000591358
0.00230444
-0.00265719
0.0033363
-0.00133505
0.00670678
-0.00443978
0.0102241
-0.00455246
0.0115412
-0.00164208
0.0126479
-0.00147327
0.00786098
0.00642256
0.0047792
0.00395903
0.0018543
0.00370863
-0.000417408
0.00292556
-0.000578625
0.000160446
-0.000910751
0.000466574
0.000392441
-0.00167636
0.00172202
-0.00176418
0.00231937
-0.000770577
0.00327752
-0.0012643
0.00420683
-0.00129675
0.00202342
0.00267062
-0.00470509
0.00854104
-0.0140477
0.012127
-0.0217253
0.0101396
-0.0258149
0.00561586
-0.0268998
0.00157776
-0.0267709
6.80586e-05
-0.0243079
-0.00321311
-0.0196898
-0.00593586
-0.0141817
-0.00739353
-0.0063672
-0.0104317
0.00659321
-0.0171107
-0.00788369
0.0427121
0.0321745
-0.0450614
0.0353815
0.0274371
0.0268237
0.0201697
0.0194731
0.013642
0.0140472
0.00894193
0.0102552
0.00593217
0.00759372
0.00408521
0.00566922
0.00293449
0.00423166
0.0021842
0.00312944
0.00166977
0.00226757
0.00130133
0.00158411
0.00102766
0.00103658
0.000819023
0.000594598
0.000651408
0.0002405
0.000533574
-4.597e-05
0.000425996
-0.0002809
0.000343309
-0.000468618
0.000271897
-0.000617901
0.000213003
-0.00073515
0.000163975
-0.000825747
0.000123536
-0.000893911
8.94884e-05
-0.000942956
6.10327e-05
-0.000975934
3.65229e-05
-0.00099513
1.49952e-05
-0.00100379
1.03859e-06
-0.00100336
-1.2966e-05
-0.000995407
-2.41364e-05
-0.000981127
-3.37393e-05
-0.000961887
-4.08168e-05
-0.000938628
-4.64264e-05
-0.000912307
-5.05531e-05
-0.000883728
-5.34895e-05
-0.00085349
-5.55968e-05
-0.000822103
-5.69511e-05
-0.000790063
-5.75091e-05
-0.000757882
-5.72442e-05
-0.000725921
-5.64467e-05
-0.000694479
-5.52136e-05
-0.000663753
-5.37178e-05
-0.000633948
-5.19075e-05
-0.000605131
-5.00277e-05
-0.000577256
-4.82596e-05
-0.000550381
-4.64056e-05
-0.000524558
-4.44866e-05
-0.000499969
-4.22703e-05
-0.00047699
-3.94126e-05
-0.000456059
-3.58157e-05
-0.000437773
-3.11918e-05
-0.000422709
-2.55876e-05
-0.00041131
-1.9224e-05
-0.000403786
-1.24961e-05
-0.000399888
-6.19618e-06
-0.000398745
-1.37569e-06
-0.000398698
6.26685e-07
-0.000396955
-2.0358e-06
-0.000389467
-1.1726e-05
-0.000370637
-3.09572e-05
-0.000333702
-6.18457e-05
-0.000271248
-0.000105607
-0.000176347
-0.000161432
-4.38632e-05
-0.000226444
0.000126943
-0.000292252
0.000334379
-0.000356018
0.000568658
-0.000402591
0.000814297
-0.00042245
0.00105081
-0.000406314
0.00125682
-0.000353587
0.00141047
-0.000262623
0.0014986
-0.000149646
0.00150959
-1.61029e-05
0.00143664
0.000128146
0.00126382
0.000300497
0.000974858
0.000498444
0.000556654
0.000717973
3.21905e-05
0.000895406
-0.000531044
0.000957321
-0.00103454
0.000860695
-0.00136616
0.000577965
-0.00148959
0.000224995
-0.00148055
5.74266e-07
-0.00131755
-0.000270197
-0.000965118
-0.000596018
-0.000582163
-0.000649151
-0.000440003
-0.000233798
-0.000479698
7.47625e-05
-0.000546787
0.000108727
-0.000546669
9.51414e-06
-0.000261091
-0.000496347
0.00052714
-0.00137957
0.00409267
-0.00622272
0.00585483
-0.00309722
0.0115338
-0.0101187
0.0177514
-0.0107701
0.0202716
-0.00416218
0.0224361
-0.00363784
0.0147893
0.0140695
0.00928208
0.00946621
0.00372211
0.00926863
-0.000492432
0.00714004
-0.000995938
0.000663957
-0.00148277
0.000953351
0.00089613
-0.00405526
0.00311362
-0.00398171
0.00416723
-0.0018242
0.00574498
-0.00284205
0.00696354
-0.00251534
0.0023362
0.00729796
-0.0103396
0.0212168
-0.0267947
0.028582
-0.039246
0.0225909
-0.0451059
0.0114758
-0.0460934
0.00256525
-0.0451806
-0.00084476
-0.0406275
-0.00776624
-0.0326109
-0.0139524
-0.0237169
-0.0162876
-0.0114407
-0.0227079
0.010356
-0.0389075
-0.0191884
0.0485215
0.0317228
-0.0480697
0.0452001
0.0307585
0.0388608
0.0265091
0.0314948
0.021008
0.0246597
0.0157771
0.0190349
0.011557
0.0146586
0.00846153
0.0113036
0.00628946
0.00871571
0.00477208
0.0066932
0.00369228
0.00509104
0.00290352
0.00380708
0.00231164
0.00276873
0.00185738
0.00192289
0.00149722
0.00123513
0.00122126
0.000670836
0.000990226
0.000210156
0.000803986
-0.000166166
0.00064829
-0.000472787
0.000519717
-0.000719332
0.000410532
-0.000915777
0.000319842
-0.00106965
0.000243149
-0.00118772
0.000179065
-0.00127559
0.000124793
-0.00133846
7.87832e-05
-0.00137927
4.1189e-05
-0.00140219
9.79872e-06
-0.00140999
-1.61034e-05
-0.00140659
-3.71451e-05
-0.00139249
-5.49034e-05
-0.00137007
-6.88439e-05
-0.00134103
-7.95492e-05
-0.00130689
-8.75911e-05
-0.00126878
-9.36837e-05
-0.00122768
-9.80406e-05
-0.00118453
-0.000100649
-0.00114025
-0.000101507
-0.00109553
-0.000101143
-0.00105094
-9.97868e-05
-0.00100687
-9.77683e-05
-0.000963726
-9.50472e-05
-0.000921681
-9.207e-05
-0.000880741
-8.91997e-05
-0.000841035
-8.61131e-05
-0.000802685
-8.28373e-05
-0.000765988
-7.89699e-05
-0.000731523
-7.38808e-05
-0.000699972
-6.73697e-05
-0.000672234
-5.8932e-05
-0.000649188
-4.86343e-05
-0.00063151
-3.69008e-05
-0.000619516
-2.44878e-05
-0.000612812
-1.28958e-05
-0.000610108
-4.03951e-06
-0.000608804
-6.57024e-07
-0.000604786
-6.07386e-06
-0.000591812
-2.46944e-05
-0.000561598
-6.11675e-05
-0.00050406
-0.00011938
-0.000408305
-0.000201362
-0.000264267
-0.00030547
-6.46421e-05
-0.000426072
0.000191738
-0.000548636
0.00050191
-0.000666198
0.000851705
-0.000752394
0.00121855
-0.000789304
0.00157266
-0.000760436
0.00188239
-0.000663315
0.00211551
-0.00049575
0.00225168
-0.000285824
0.00227401
-3.84593e-05
0.00217135
0.000230782
0.00192027
0.00055156
0.00149408
0.000924616
0.000870272
0.00134176
7.93348e-05
0.00168632
-0.000776
0.00181265
-0.00153477
0.00161945
-0.00202113
0.00106432
-0.00218803
0.000391893
-0.00215446
-3.2949e-05
-0.00189795
-0.000526703
-0.00135904
-0.00113492
-0.00077401
-0.00123417
-0.000546718
-0.000461087
-0.0006004
0.000128419
-0.00070663
0.000214953
-0.000704165
7.03961e-06
-0.000276617
-0.000923876
0.0008327
-0.00248888
0.00600005
-0.0113901
0.00847052
-0.0055677
0.0164207
-0.0180688
0.0254529
-0.0198024
0.0293355
-0.0080447
0.0330672
-0.00736957
0.0230144
0.0241223
0.014966
0.0175146
0.00626653
0.0179682
-0.000292327
0.0136988
-0.00139831
0.00176995
-0.00200046
0.00155544
0.00159144
-0.00764715
0.00468107
-0.00707138
0.00622612
-0.00336926
0.00835637
-0.0049723
0.00946747
-0.00362647
0.0014584
0.015307
-0.018193
0.0408682
-0.0419261
0.0523152
-0.0583509
0.0390156
-0.0649349
0.0180599
-0.0652381
0.00286833
-0.0630624
-0.00302053
-0.0562353
-0.0145934
-0.0446602
-0.0255275
-0.032779
-0.0281688
-0.016937
-0.0385499
0.0134325
-0.0692769
-0.0360931
0.052343
0.0305984
-0.0512187
0.0516959
0.0314057
0.0482877
0.0299173
0.0427421
0.0265536
0.0362484
0.0222709
0.0298509
0.0179545
0.0241505
0.0141619
0.019348
0.011092
0.0154085
0.00871151
0.0122056
0.00689522
0.00960077
0.00550835
0.00747412
0.00443831
0.0057297
0.0036018
0.00429206
0.00293483
0.00310724
0.00240601
0.00212627
0.00197114
0.00131522
0.00161504
0.00064531
0.00131824
9.48208e-05
0.00107027
-0.000357558
0.000862939
-0.000725213
0.000687438
-0.00102077
0.000538588
-0.00125529
0.000413468
-0.00143798
0.000307382
-0.00157662
0.000217608
-0.00167842
0.000142907
-0.0017499
8.08042e-05
-0.00179425
2.82242e-05
-0.00181568
-1.58185e-05
-0.00182129
-4.9356e-05
-0.00181092
-7.92019e-05
-0.00178822
-0.000102207
-0.00175572
-0.00012005
-0.0017154
-0.000133978
-0.00166894
-0.000144489
-0.00161793
-0.000151655
-0.00156387
-0.000155541
-0.00150797
-0.000157025
-0.00145117
-0.000156559
-0.00139421
-0.000154716
-0.00133775
-0.0001515
-0.00128218
-0.000147638
-0.00122761
-0.000143767
-0.0011743
-0.000139428
-0.00112248
-0.000134659
-0.0010726
-0.000128853
-0.00102549
-0.000120999
-0.000982106
-0.000110754
-0.000943708
-9.73317e-05
-0.000911523
-8.08194e-05
-0.000886494
-6.19285e-05
-0.000869057
-4.1922e-05
-0.000858657
-2.3291e-05
-0.000853477
-9.2049e-06
-0.000849977
-4.1407e-06
-0.000842372
-1.36779e-05
-0.000822162
-4.48996e-05
-0.000778024
-0.000105301
-0.000696378
-0.000201023
-0.00056263
-0.000335108
-0.000363434
-0.000504667
-8.92493e-05
-0.00070026
0.000261455
-0.000899346
0.000684396
-0.00108915
0.00116088
-0.00122888
0.00166097
-0.00128941
0.0021452
-0.00124467
0.00257103
-0.00108915
0.00289489
-0.000819619
0.00308855
-0.0004795
0.00312837
-7.82982e-05
0.00299891
0.000360216
0.00266833
0.000882126
0.00209767
0.00149525
0.00125133
0.00218808
0.000165015
0.00277262
-0.00101846
0.00299611
-0.00206189
0.00266287
-0.00271499
0.00171741
-0.00292152
0.000598425
-0.00285284
-0.000101603
-0.002488
-0.000891528
-0.0017396
-0.00188331
-0.000926628
-0.00204713
-0.000598246
-0.000789464
-0.000667726
0.000197898
-0.000820906
0.000368144
-0.00082498
1.14265e-05
-0.000245067
-0.00150379
0.00117488
-0.00390881
0.00795575
-0.0181709
0.0111496
-0.00876161
0.0212508
-0.02817
0.0330193
-0.0315709
0.0383891
-0.0134145
0.0443244
-0.0133049
0.0325762
0.0358705
0.0220131
0.0280777
0.00969792
0.0302833
0.000277544
0.0231192
-0.00176303
0.00381056
-0.00245866
0.002251
0.00246575
-0.0125716
0.00642363
-0.0110293
0.00850354
-0.00544919
0.0110785
-0.00754721
0.0115626
-0.00411065
-0.000845652
0.0277153
-0.0284194
0.068442
-0.0592616
0.0831573
-0.078368
0.0581219
-0.0846002
0.0242921
-0.0837045
0.00197268
-0.0800818
-0.00664327
-0.0707315
-0.0239437
-0.0557239
-0.040535
-0.0411574
-0.0427353
-0.0227194
-0.0569879
0.0158753
-0.107872
-0.059045
0.0554863
0.0296404
-0.0545282
0.0560271
0.0308649
0.0549257
0.0310186
0.0517809
0.0296984
0.0469566
0.0270952
0.0411858
0.0237253
0.035193
0.0201547
0.0295005
0.0167845
0.0243904
0.0138217
0.0199565
0.0113291
0.0161814
0.00928349
0.0129972
0.00762248
0.0103224
0.00627666
0.00807784
0.00517933
0.00619803
0.00428576
0.0046225
0.00354663
0.00330395
0.00293358
0.00220204
0.00242019
0.00128394
0.00198842
0.000522423
0.00162448
-0.000105474
0.0013153
-0.000620936
0.00105395
-0.00103885
0.000831254
-0.00137372
0.000642132
-0.0016376
0.000481564
-0.00184109
0.000346614
-0.00199325
0.000233052
-0.00210364
0.00013864
-0.00217865
5.93566e-05
-0.0022195
-8.61946e-06
-0.0022389
-5.97977e-05
-0.00223643
-0.000104631
-0.00221677
-0.000139663
-0.0021832
-0.000167522
-0.00213849
-0.000189195
-0.00208512
-0.00020501
-0.00202549
-0.000215151
-0.0019615
-0.000220995
-0.00189469
-0.000223342
-0.00182627
-0.000223124
-0.00175732
-0.000220447
-0.00168855
-0.000216407
-0.00162027
-0.000212041
-0.00155295
-0.000206757
-0.00148698
-0.000200624
-0.00142304
-0.000192801
-0.00136224
-0.000181806
-0.00130588
-0.000167114
-0.00125562
-0.000147592
-0.00121309
-0.000123347
-0.00117955
-9.54746e-05
-0.00115555
-6.59092e-05
-0.0011404
-3.84377e-05
-0.00113169
-1.79166e-05
-0.00112478
-1.10312e-05
-0.00111212
-2.6331e-05
-0.00108267
-7.43479e-05
-0.00102192
-0.000166045
-0.000912556
-0.000310388
-0.000736124
-0.000511538
-0.000475931
-0.000764861
-0.000120164
-0.00105603
0.000333032
-0.00135255
0.000878047
-0.00163417
0.00149173
-0.00184258
0.00213681
-0.0019345
0.00276388
-0.00187175
0.00331909
-0.00164437
0.00374648
-0.00124702
0.00400889
-0.000741917
0.00407497
-0.000144396
0.00392406
0.000511104
0.00351568
0.00129049
0.00279688
0.00221402
0.00171481
0.00327014
0.000307041
0.00418036
-0.00123971
0.00454284
-0.00259766
0.00402081
-0.0034309
0.00255064
-0.00367563
0.000843151
-0.00356357
-0.000213665
-0.00307804
-0.00137704
-0.00209906
-0.00286229
-0.00103332
-0.00311286
-0.000587474
-0.00123531
-0.000674523
0.000284961
-0.000886805
0.00058043
-0.000910506
3.57591e-05
-0.000176108
-0.0022382
0.0015555
-0.00564041
0.00986493
-0.0264804
0.0138749
-0.0127716
0.0259467
-0.0402418
0.0401258
-0.0457501
0.0470462
-0.0203347
0.055847
-0.0221058
0.0434055
0.0483121
0.0305684
0.0409148
0.0142579
0.0465939
0.00133052
0.0360465
-0.00204813
0.00718924
-0.00284469
0.00304748
0.00349655
-0.0189128
0.00833262
-0.0158654
0.0110067
-0.0081233
0.0138645
-0.010405
0.0130489
-0.00329514
-0.00485433
0.0456185
-0.0411132
0.104701
-0.0783345
0.120379
-0.0985174
0.0783049
-0.103375
0.0291495
-0.101085
-0.000317656
-0.0959253
-0.0118026
-0.0840509
-0.0358181
-0.0656914
-0.0588945
-0.0487748
-0.059652
-0.0286015
-0.0771612
0.0177007
-0.154174
-0.0883647
0.0587298
0.0289731
-0.0580625
0.0595048
0.03009
0.0596306
0.0308929
0.058423
0.0309061
0.0556345
0.0298837
0.0514527
0.0279072
0.0463195
0.0252879
0.0407374
0.0223665
0.0351392
0.0194199
0.0298315
0.0166368
0.0249914
0.0141236
0.0206918
0.0119221
0.016937
0.0100315
0.0136928
0.00842349
0.0109116
0.00706686
0.00853811
0.0059201
0.00652076
0.00495091
0.004812
0.00412898
0.00337015
0.00343031
0.00215888
0.00283576
0.00114623
0.00232791
0.000305209
0.00189488
-0.000388295
0.00152465
-0.000955056
0.00120883
-0.00141262
0.000939201
-0.0017768
0.000710987
-0.0020612
0.00051757
-0.0022776
0.000355006
-0.00243689
0.000218651
-0.00255167
0.000106143
-0.00261947
8.00411e-06
-0.00265802
-6.60255e-05
-0.00266822
-0.00012942
-0.00265513
-0.000180595
-0.00262317
-0.000221141
-0.00257624
-0.000251927
-0.00251793
-0.000273441
-0.00245117
-0.000287733
-0.00237836
-0.000296127
-0.00230139
-0.000300083
-0.00222195
-0.000299875
-0.00214126
-0.000297094
-0.00205996
-0.000293339
-0.00197881
-0.000287909
-0.0018985
-0.000280936
-0.00181996
-0.000271349
-0.00174468
-0.000257094
-0.00167436
-0.000237437
-0.00161112
-0.000210833
-0.00155705
-0.000177414
-0.00151376
-0.000138764
-0.00148199
-9.76723e-05
-0.00146086
-5.95621e-05
-0.00144735
-3.14279e-05
-0.00143561
-2.27644e-05
-0.00141616
-4.57672e-05
-0.00137532
-0.000115192
-0.00129516
-0.000246194
-0.00115452
-0.000451028
-0.000930993
-0.000735063
-0.000604507
-0.00109135
-0.000160937
-0.0014996
0.000401895
-0.00191539
0.00107717
-0.00230945
0.00183753
-0.00260295
0.00263861
-0.0027356
0.00342103
-0.00265418
0.00411944
-0.00234278
0.00466442
-0.00179201
0.00500884
-0.00108635
0.00511226
-0.000247833
0.00494871
0.000674631
0.00446835
0.00177083
0.00360288
0.00307946
0.00227758
0.00459542
0.000527011
0.0059309
-0.00141595
0.00648579
-0.0031183
0.00572314
-0.00414686
0.00357921
-0.00443141
0.00112769
-0.00427114
-0.000373925
-0.00365618
-0.001992
-0.00242942
-0.00408904
-0.00108869
-0.00445357
-0.000509077
-0.00181492
-0.00061682
0.000392723
-0.000903946
0.000867551
-0.000967781
0.000100053
-9.0287e-05
-0.00311571
0.00198329
-0.00771397
0.011608
-0.0361051
0.0166252
-0.0177889
0.0304612
-0.0540778
0.0464593
-0.0617482
0.0549047
-0.0287801
0.067163
-0.0343642
0.0552947
0.0601805
0.0407142
0.0554953
0.0202041
0.067104
0.00307899
0.0531715
-0.00219108
0.0124593
-0.00315471
0.00401104
0.00463901
-0.0267065
0.0103973
-0.0216238
0.0137353
-0.0114613
0.0166514
-0.0133211
0.0137044
-0.000348145
-0.0108597
0.0701826
-0.0562017
0.150043
-0.0985059
0.162683
-0.118012
0.0978106
-0.12084
0.0319778
-0.117165
-0.00399243
-0.110676
-0.0182919
-0.0962871
-0.0502068
-0.0747891
-0.0803925
-0.0556603
-0.0787808
-0.0343619
-0.0984595
0.0191325
-0.207668
-0.124205
0.0623357
0.0284904
-0.0618529
0.0629756
0.0294501
0.0634847
0.0303838
0.0633685
0.0310223
0.0621995
0.0310527
0.0597838
0.0303229
0.0561851
0.0288866
0.0516476
0.0269041
0.0465014
0.0245661
0.0410851
0.0220531
0.0356922
0.0195165
0.0305433
0.017071
0.02578
0.0147948
0.0214746
0.0127289
0.0176501
0.0108913
0.0142946
0.00927565
0.0113781
0.0078673
0.0088621
0.00664504
0.00670529
0.00558715
0.00486754
0.00467352
0.00331072
0.0038847
0.00200033
0.00320521
0.00090485
0.00262007
-3.31022e-06
0.00211697
-0.000750457
0.00168641
-0.00135739
0.00131804
-0.00184415
0.00100436
-0.00222811
0.000738856
-0.00252419
0.000514654
-0.002745
0.00032692
-0.0029088
0.000171848
-0.0030135
3.87377e-05
-0.00307694
-6.5934e-05
-0.00310508
-0.000152434
-0.00310251
-0.000223704
-0.00307538
-0.000279042
-0.00302911
-0.000319692
-0.00296804
-0.000348774
-0.00289581
-0.000368337
-0.00281529
-0.000380582
-0.00272909
-0.000386074
-0.00263914
-0.000387043
-0.0025466
-0.000385873
-0.0024527
-0.000381809
-0.00235854
-0.000375104
-0.00226541
-0.000364485
-0.00217526
-0.000347246
-0.00209028
-0.000322424
-0.00201311
-0.000288002
-0.00194639
-0.000244137
-0.00189212
-0.000193027
-0.00185128
-0.000138514
-0.0018228
-8.80279e-05
-0.00180303
-5.11928e-05
-0.00178484
-4.09496e-05
-0.00175673
-7.38782e-05
-0.00170219
-0.000169721
-0.00159986
-0.000348518
-0.00142462
-0.000626262
-0.00115012
-0.00100956
-0.000752905
-0.00148856
-0.000216498
-0.00203602
0.000461685
-0.00259358
0.00127386
-0.00312163
0.002189
-0.0035181
0.0031561
-0.00370271
0.00410606
-0.00360414
0.00496204
-0.00319878
0.00564019
-0.00247017
0.00608226
-0.00152843
0.00623732
-0.000402911
0.00607333
0.000838599
0.00553127
0.00231287
0.00452663
0.00408407
0.00295791
0.00616411
0.00084999
0.0080388
-0.00151833
0.0088541
-0.00359505
0.00779984
-0.00483763
0.00482178
-0.00516937
0.00145942
-0.00496177
-0.000581517
-0.00421319
-0.00274058
-0.00272619
-0.00557602
-0.00109134
-0.00608841
-0.000361145
-0.00254511
-0.000492966
0.000524562
-0.000876588
0.00125116
-0.00100826
0.000231826
-1.55372e-05
-0.00410844
0.00246705
-0.0101966
0.0130378
-0.0466759
0.019339
-0.02409
0.0347609
-0.0694997
0.0517885
-0.0787758
0.0616554
-0.0386469
0.0777564
-0.0504653
0.0678894
0.0700475
0.0524253
0.0709594
0.027787
0.0917424
0.0057249
0.0752336
-0.00209253
0.0202768
-0.00337976
0.0052982
0.00583319
-0.0359194
0.012605
-0.0283957
0.0166843
-0.0155407
0.0193443
-0.015981
0.0132939
0.00570229
-0.0190797
0.102556
-0.073474
0.204437
-0.119008
0.208217
-0.136269
0.115072
-0.13686
0.0325688
-0.132012
-0.00884028
-0.124547
-0.0257572
-0.107844
-0.0669099
-0.0833145
-0.104922
-0.0619519
-0.100143
-0.0396876
-0.120724
0.0204712
-0.267827
-0.166386
0.066294
0.0280987
-0.0659023
0.0667669
0.0289773
0.0672657
0.029885
0.0675583
0.0307297
0.0673192
0.0312918
0.0662552
0.0313869
0.0641992
0.0309427
0.0611314
0.0299718
0.0571595
0.028538
0.0524793
0.0267332
0.0473333
0.0246625
0.0419724
0.0224319
0.036626
0.0201412
0.0314788
0.017876
0.0266635
0.0157065
0.0222589
0.0136803
0.0183007
0.0118255
0.0147927
0.010153
0.0117186
0.00866128
0.00905015
0.007342
0.0067529
0.00618194
0.00479074
0.00516735
0.00312744
0.00428334
0.00172853
0.00351589
0.000562066
0.00285289
-0.000401545
0.00228166
-0.00118917
0.00179192
-0.00182496
0.00137451
-0.00233024
0.00101983
-0.00272402
0.000720689
-0.00302216
0.000470027
-0.00324497
0.000261591
-0.00339739
8.65271e-05
-0.00349307
-5.67278e-05
-0.00354525
-0.000171523
-0.00355796
-0.000266315
-0.00353981
-0.000337819
-0.00349734
-0.000391213
-0.00343594
-0.000429715
-0.00335989
-0.000456615
-0.00327306
-0.000472894
-0.00317849
-0.000481616
-0.00307811
-0.000486253
-0.00297383
-0.000486087
-0.00286734
-0.000481597
-0.00276045
-0.000471383
-0.00265568
-0.000452019
-0.00255579
-0.000422314
-0.00246407
-0.00037973
-0.00238375
-0.000324455
-0.00231734
-0.000259433
-0.00226607
-0.000189775
-0.00222879
-0.000125311
-0.00220115
-7.8824e-05
-0.00217473
-6.73647e-05
-0.00213594
-0.000112659
-0.00206546
-0.000240197
-0.0019384
-0.000475571
-0.00172576
-0.000838898
-0.00139727
-0.00133806
-0.000926138
-0.00195969
-0.000293457
-0.0026687
0.000503962
-0.003391
0.00145775
-0.00407543
0.00253403
-0.00459439
0.00367591
-0.00484461
0.00480502
-0.00473326
0.00583337
-0.00422713
0.00666171
-0.00329852
0.00721945
-0.00208619
0.00744354
-0.000627016
0.00729549
0.00098663
0.00670712
0.00290122
0.00557781
0.00521335
0.0037745
0.0079674
0.0013037
0.0105096
-0.00151313
0.0116709
-0.00399447
0.0102812
-0.00547485
0.00630216
-0.00586893
0.00185349
-0.00562195
-0.000828495
-0.00474171
-0.00362081
-0.00298813
-0.00732958
-0.00104413
-0.0080324
-0.00014589
-0.00344334
-0.000305449
0.00068414
-0.000812625
0.00175832
-0.00104808
0.000467294
2.48487e-05
-0.0051814
0.00299563
-0.0131673
0.0139811
-0.0576613
0.0218782
-0.0319871
0.0387696
-0.0863912
0.0559998
-0.096006
0.0671841
-0.0498311
0.0871911
-0.0704724
0.0807094
0.0765294
0.0655371
0.0861316
0.0372194
0.12006
0.00950542
0.102948
-0.00161069
0.031393
-0.00349899
0.00718642
0.00701269
-0.0464311
0.0149456
-0.0363286
0.0198395
-0.0204346
0.0218283
-0.0179698
0.0115649
0.0159656
-0.0296942
0.143815
-0.0925856
0.267328
-0.139104
0.254735
-0.153103
0.129071
-0.151802
0.0312676
-0.145917
-0.0147247
-0.138073
-0.0336014
-0.119298
-0.0856847
-0.0917811
-0.132439
-0.0678686
-0.124056
-0.0441352
-0.144457
0.0222131
-0.334176
-0.214198
0.070564
0.027756
-0.0702213
0.0709333
0.028608
0.0713354
0.029483
0.0716904
0.0303747
0.071829
0.0311531
0.0715329
0.031683
0.0705952
0.0318804
0.0688664
0.0317006
0.0662779
0.0311265
0.0628449
0.0301663
0.0586569
0.0288505
0.0538632
0.0272256
0.0486534
0.025351
0.0432345
0.0232949
0.0378079
0.0211331
0.0325469
0.0189412
0.0275844
0.016788
0.0230084
0.014729
0.0188664
0.0128032
0.0151745
0.0110339
0.0119256
0.00943089
0.00909804
0.00799488
0.00666148
0.0067199
0.0045812
0.00559616
0.0028213
0.00461276
0.00134598
0.0037569
0.000121036
0.00301675
-0.000884319
0.00237973
-0.00170033
0.00183577
-0.00235305
0.00137341
-0.00286605
0.000983083
-0.00325917
0.00065477
-0.00355473
0.000382129
-0.0037667
0.000155252
-0.00390275
-3.54612e-05
-0.0039861
-0.000182955
-0.00402026
-0.000303633
-0.00401586
-0.000395582
-0.00398082
-0.000464736
-0.00392155
-0.000515864
-0.00384376
-0.000550682
-0.00375205
-0.000573323
-0.00364953
-0.00058877
-0.00353912
-0.000596503
-0.00342334
-0.000597374
-0.00330471
-0.000590013
-0.00318651
-0.000570226
-0.00307219
-0.000536635
-0.00296578
-0.000486145
-0.00287126
-0.000418981
-0.0027917
-0.000338982
-0.00272873
-0.000252747
-0.0026811
-0.000172928
-0.0026439
-0.000116019
-0.0026074
-0.00010386
-0.00255595
-0.000164096
-0.00246744
-0.000328702
-0.00231356
-0.000629448
-0.00206153
-0.00109092
-0.00167728
-0.00172231
-0.00113073
-0.00250625
-0.000400371
-0.00339906
0.00051797
-0.00430935
0.00161576
-0.00517323
0.00285753
-0.00583618
0.00418146
-0.00616854
0.00550057
-0.00605239
0.00671632
-0.00544289
0.00771324
-0.00429545
0.00840716
-0.00278013
0.00872109
-0.000940963
0.00860941
0.00109829
0.00799539
0.00351521
0.00676346
0.00644526
0.00474513
0.0099857
0.00191802
0.0133366
-0.00136257
0.0149515
-0.00427926
0.0131978
-0.00602833
0.00805122
-0.00651028
0.00233543
-0.00624093
-0.00109784
-0.0052378
-0.00462393
-0.00321824
-0.00934913
-0.000954887
-0.0102957
0.000124066
-0.00452229
-5.82387e-05
0.00086646
-0.000725559
0.00242562
-0.00110883
0.000850582
-2.43162e-05
-0.00626596
0.00351309
-0.0167047
0.0142578
-0.0684061
0.0240294
-0.0417587
0.0423075
-0.104669
0.0591082
-0.112807
0.0716621
-0.062385
0.0952487
-0.0940591
0.0932101
0.0785681
0.0797292
0.0996125
0.0486357
0.151154
0.0146868
0.136896
-0.000561369
0.0466412
-0.00345976
0.0100847
0.00812693
-0.0580178
0.0174156
-0.0456174
0.023176
-0.026195
0.0239337
-0.0187275
0.00825259
0.0316467
-0.042696
0.194764
-0.1131
0.337733
-0.158244
0.299879
-0.168792
0.139619
-0.166283
0.0287586
-0.15927
-0.0217382
-0.15178
-0.0410912
-0.131329
-0.106136
-0.100695
-0.163073
-0.0736806
-0.15107
-0.0471025
-0.171035
0.0249624
-0.406241
-0.266094
0.0751452
0.0274466
-0.0748358
0.0754597
0.0282935
0.0757863
0.0291565
0.0760998
0.0300612
0.0763297
0.0309233
0.0763589
0.0316538
0.0760416
0.0321978
0.0752276
0.0325147
0.0737864
0.0325676
0.0716253
0.0323275
0.0686994
0.0317764
0.0650181
0.030907
0.0606462
0.0297228
0.0557017
0.0282394
0.0503457
0.026489
0.0447659
0.0245209
0.0391542
0.0223997
0.0336846
0.0201986
0.0284975
0.0179904
0.0236916
0.0158398
0.0193259
0.0137967
0.0154252
0.0118956
0.0119892
0.0101559
0.00899975
0.00858557
0.00642804
0.00718441
0.00423878
0.00594605
0.00239413
0.00486127
0.000855697
0.00391805
-0.00041294
0.00310437
-0.00144656
0.00240706
-0.00227815
0.00181474
-0.0029357
0.00131237
-0.00344489
0.00089136
-0.00382997
0.000540351
-0.00411559
0.000250174
-0.00430242
3.87973e-06
-0.00442552
-0.000180508
-0.00448803
-0.000333048
-0.00450255
-0.000450192
-0.0044786
-0.000539794
-0.00442457
-0.000604701
-0.00434735
-0.000650544
-0.00425175
-0.000684367
-0.00414216
-0.000706097
-0.00402234
-0.000717195
-0.00389578
-0.000716582
-0.00376671
-0.000699291
-0.0036395
-0.00066385
-0.00351906
-0.000606591
-0.00341025
-0.000527791
-0.00331689
-0.000432343
-0.00324107
-0.000328557
-0.00318166
-0.000232338
-0.00313321
-0.000164461
-0.00308482
-0.000152239
-0.00301891
-0.000230001
-0.00291069
-0.000436907
-0.00272864
-0.000811493