/*--------------------------------*- C++ -*----------------------------------*\
| =========                 |                                                 |
| \\      /  F ield         | OpenFOAM: The Open Source CFD Toolbox           |
|  \\    /   O peration     | Version:  2412                                  |
|   \\  /    A nd           | Website:  www.openfoam.com                      |
|    \\/     M anipulation  |                                                 |
\*---------------------------------------------------------------------------*/
FoamFile
{
    version     2.0;
    format      ascii;
    arch        "LSB;label=32;scalar=64";
    class       volVectorField;
    location    "0.85";
    object      ddt0(U);
}
// * * * * * * * * * * * * * * * * * * * * * * * * * * * * * * * * * * * * * //

dimensions      [0 1 -2 0 0 0 0];

internalField   nonuniform List<vector> 
12600
(
(0.227786 3.33524e-21 0.207608)
(0.36566 1.66886e-21 0.0547615)
(0.1872 2.80488e-21 -0.00375008)
(0.114963 0 -0.0125821)
(0.0880527 3.29871e-21 -0.0115462)
(0.0726151 3.0603e-21 -0.00922814)
(0.0608384 0 -0.00758593)
(0.0485527 0 -0.00713614)
(0.0355727 -1.22023e-20 -0.00657325)
(0.0228437 0 -0.00575389)
(0.0109158 6.45113e-21 -0.00476402)
(-0.000287671 6.49783e-21 -0.00366901)
(-0.0112024 -6.41395e-21 -0.00253396)
(-0.0220694 0 -0.00142121)
(-0.032704 -5.84301e-21 -0.000375463)
(-0.0426861 0 0.000588927)
(-0.0516511 1.89239e-20 0.00149442)
(-0.0594239 0 0.00239166)
(-0.0659839 -6.61622e-21 0.00333536)
(-0.0713716 -5.18078e-21 0.00435967)
(-0.0756164 3.87626e-21 0.00546643)
(-0.078703 3.87028e-23 0.00662582)
(-0.0805648 0 0.007782)
(-0.0811038 -2.76675e-21 0.00886052)
(-0.0802386 0 0.00977899)
(-0.0779579 0 0.0104609)
(-0.0743501 -2.75115e-21 0.0108492)
(-0.0695891 0 0.0109148)
(-0.0638924 -2.26892e-22 0.010659)
(-0.0574743 4.32567e-21 0.0101086)
(-0.0505115 4.69996e-21 0.00930887)
(-0.0431274 4.8076e-21 0.0083156)
(-0.0353967 -4.63363e-21 0.00718839)
(-0.0273569 -8.43398e-21 0.00598365)
(-0.0190236 -7.28367e-21 0.00474712)
(-0.0103955 6.07169e-21 0.00350561)
(-0.00147412 0 0.00226485)
(0.00770226 -4.21508e-21 0.0010129)
(0.016995 0 -0.000266996)
(0.0261165 4.08157e-21 -0.00158298)
(0.034592 0 -0.00291817)
(0.0417864 1.32049e-22 -0.00422277)
(0.0469531 0 -0.00540792)
(0.0493551 2.27297e-22 -0.00635535)
(0.048377 5.25698e-21 -0.00692917)
(0.0436719 3.17986e-22 -0.00700294)
(0.0352354 -9.1368e-21 -0.00648042)
(0.0234728 0 -0.00532345)
(0.00916307 0 -0.00356478)
(-0.00659533 -4.2805e-20 -0.0013158)
(-0.0225296 -1.05727e-19 0.00124306)
(-0.0373461 -1.2033e-19 0.00388703)
(-0.0499002 4.55949e-22 0.00637268)
(-0.0593639 -1.25803e-19 0.00848374)
(-0.0652838 0 0.0100473)
(-0.0676891 1.00129e-19 0.0109803)
(-0.0669237 7.94762e-20 0.0112677)
(-0.0637177 5.81925e-20 0.0109984)
(-0.0587672 0 0.0102867)
(-0.0529448 0 0.009317)
(-0.0466815 0 0.00820728)
(-0.0405753 -1.54134e-20 0.00712309)
(-0.0345212 0 0.00607685)
(-0.0289113 0 0.00517881)
(-0.0232412 8.64856e-20 0.004326)
(-0.0180738 0 0.00363432)
(-0.012708 0 0.00293098)
(-0.00819221 0 0.00240662)
(-0.00358846 -1.32223e-19 0.00182683)
(-0.000509627 1.1682e-19 0.00148197)
(0.00254006 8.61887e-20 0.00103741)
(0.0034001 -1.59707e-22 0.000908195)
(0.00452326 -2.72966e-20 0.000613238)
(0.00308367 0 0.000735432)
(0.00277766 -1.34503e-20 0.000581846)
(-0.000210934 0 0.000933178)
(-0.000900464 0 0.000819707)
(-0.00472353 0 0.0013081)
(-0.00530909 4.28447e-22 0.00115046)
(-0.0102042 2.0436e-20 0.00183408)
(-0.0113879 2.63823e-20 0.00179631)
(-0.018558 -8.25337e-20 0.00290692)
(-0.0214565 -9.73778e-20 0.00315045)
(-0.0319339 0 0.00480033)
(-0.0372002 0 0.00555108)
(-0.0489711 5.35173e-19 0.00761222)
(-0.054873 -1.09959e-18 0.00903152)
(-0.0616377 1.19276e-18 0.0103643)
(-0.0669128 6.7329e-19 0.011929)
(-0.0610181 0 0.0119677)
(-0.0576293 -6.70019e-19 0.00891087)
(-0.075452 7.67858e-19 0.0212578)
(0.0900873 1.92527e-18 -0.0166532)
(-0.311227 3.70227e-18 0.0558013)
(0.269517 0 -0.0320382)
(0.26089 0 -0.0617519)
(-1.18095 0 0.223042)
(2.2591 0 -0.374979)
(-2.12076 0 0.384855)
(0.244011 0 -0.0207389)
(3.66347 3.84547e-17 -0.648733)
(-6.78215 -6.83478e-17 1.22792)
(6.75775 2.08193e-17 -1.24315)
(-1.87434 0 0.259597)
(-5.40479 0 0.861905)
(11.4404 0 -2.04343)
(-12.4627 -1.16856e-17 2.35574)
(2.97673 -1.36071e-16 -0.57462)
(10.0061 -1.28202e-16 -1.74348)
(-15.9386 0 2.83719)
(10.2235 -7.99961e-17 -1.9754)
(8.12403 0 -1.43872)
(-17.0693 -1.1935e-16 3.13582)
(5.78888 1.27717e-16 -1.15894)
(14.8755 1.61473e-16 -2.71498)
(-8.66421 1.78432e-17 1.6763)
(-6.34118 8.96559e-17 1.14862)
(7.06002 -8.59834e-21 -1.33371)
(2.57607 -3.08659e-17 -0.510885)
(-1.79368 0 0.316505)
(0.501164 -3.36891e-21 0.369817)
(0.541304 0 0.142345)
(0.412855 -2.83617e-21 0.0230847)
(0.313186 0 -0.0100048)
(0.247873 -3.34191e-21 -0.0188842)
(0.202819 -6.43891e-21 -0.0208353)
(0.169544 -3.11347e-21 -0.0205635)
(0.14078 0 -0.0200077)
(0.114284 -7.3441e-23 -0.0186175)
(0.0896874 -6.42961e-21 -0.0168166)
(0.0672549 6.54089e-21 -0.0147948)
(0.0465408 6.57348e-21 -0.0124897)
(0.0266487 -6.48961e-21 -0.0100095)
(0.00719423 6.27335e-21 -0.00762847)
(-0.0114336 1.1847e-20 -0.00555455)
(-0.0285936 0 -0.0038021)
(-0.0439518 6.93351e-24 -0.00222503)
(-0.0576249 8.21182e-21 -0.000614215)
(-0.0699869 6.71293e-21 0.00121391)
(-0.0814046 0 0.0033652)
(-0.0920609 0 0.00585446)
(-0.101889 2.78094e-21 0.00861489)
(-0.110587 0 0.0115146)
(-0.117701 1.36124e-21 0.0143779)
(-0.122756 -1.88191e-21 0.0170149)
(-0.125405 0 0.0192534)
(-0.125525 2.15725e-21 0.020963)
(-0.123217 0 0.0220651)
(-0.118742 -3.80215e-21 0.0225317)
(-0.112418 -8.43441e-21 0.022377)
(-0.10456 -9.242e-21 0.0216504)
(-0.0954509 -4.86623e-21 0.020432)
(-0.0853528 4.68881e-21 0.0188305)
(-0.0745209 1.68734e-20 0.0169683)
(-0.0631893 1.46446e-20 0.0149595)
(-0.0515156 0 0.0128815)
(-0.039561 0 0.0107631)
(-0.0273028 -8.7391e-23 0.00858504)
(-0.0147423 0 0.00630652)
(-0.00199436 -4.12046e-21 0.00388765)
(0.0105912 0 0.00132677)
(0.0224216 -1.00374e-20 -0.00132345)
(0.032642 0 -0.00393263)
(0.0402769 -8.9863e-21 -0.00630751)
(0.0443232 0 -0.00820031)
(0.0439816 -3.20172e-22 -0.00935635)
(0.0387412 0 -0.00954293)
(0.0285664 0 -0.00860767)
(0.0138899 2.99947e-20 -0.00650773)
(-0.00432364 0 -0.00334055)
(-0.0247174 0 0.000656372)
(-0.0456603 0 0.00513942)
(-0.065455 1.27321e-19 0.00968303)
(-0.0826024 2.51956e-19 0.0138783)
(-0.0958857 0 0.0173343)
(-0.104722 0 0.0198217)
(-0.108868 -8.07177e-20 0.02118)
(-0.108895 -5.819e-20 0.021499)
(-0.105301 0 0.0208626)
(-0.0993987 0 0.0196192)
(-0.0917038 0 0.017915)
(-0.0837397 0 0.0161838)
(-0.0753824 -1.94139e-20 0.0144043)
(-0.0681749 3.04058e-20 0.0129893)
(-0.0610001 -8.67626e-20 0.0116324)
(-0.0556791 0 0.0107851)
(-0.0500152 0 0.00985925)
(-0.0466834 0 0.00949453)
(-0.0423085 -2.99027e-22 0.00881617)
(-0.0409813 -1.15703e-19 0.00878381)
(-0.0377149 -8.52867e-20 0.00816086)
(-0.0385352 1.20476e-19 0.00837299)
(-0.0361717 -1.39533e-22 0.00770669)
(-0.0392695 -9.47385e-21 0.00822652)
(-0.0375077 1.32591e-20 0.0075506)
(-0.0428681 0 0.00850073)
(-0.0412321 0 0.00779334)
(-0.0489726 0 0.00920788)
(-0.0472357 -2.51447e-20 0.00839361)
(-0.0579878 0 0.0104212)
(-0.0568404 0 0.00971418)
(-0.0717916 8.07765e-20 0.0126712)
(-0.0717995 9.5203e-20 0.0121984)
(-0.0916446 0 0.0162072)
(-0.0941332 0 0.0163551)
(-0.115141 0 0.0209834)
(-0.121181 1.06767e-18 0.022464)
(-0.131509 -1.07367e-21 0.0253004)
(-0.146025 6.53726e-19 0.0287067)
(-0.134291 -3.86757e-19 0.0278495)
(-0.124624 6.55525e-19 0.0238243)
(-0.230338 7.44804e-19 0.0508426)
(0.245506 -3.7223e-18 -0.0428828)
(-0.893198 0 0.166991)
(0.683556 0 -0.126597)
(0.658172 0 -0.112908)
(-3.35913 0 0.610859)
(6.11341 -1.7947e-17 -1.12192)
(-6.04206 0 1.20459)
(1.12827 0 -0.247899)
(9.7856 3.70215e-17 -1.71394)
(-18.905 3.27563e-17 3.53242)
(19.1675 -3.9898e-17 -3.77118)
(-6.36946 5.09716e-17 1.43297)
(-12.9916 0 2.11084)
(31.14 0 -5.74753)
(-35.6234 0 7.06065)
(10.3763 6.47146e-17 -2.39473)
(25.4684 1.2201e-16 -4.477)
(-43.1105 0 8.12029)
(30.0204 1.52193e-16 -6.22528)
(19.5404 -2.45056e-16 -3.28133)
(-46.8556 2.26507e-16 8.97826)
(18.584 0 -4.12237)
(40.0272 0 -7.34553)
(-25.9303 1.67745e-17 5.35788)
(-16.3943 0 2.85924)
(20.0377 2.20866e-17 -3.99223)
(6.29378 2.92387e-17 -1.10322)
(-5.21479 0 1.03331)
(0.518499 0 0.280121)
(0.543751 0 0.146671)
(0.494231 -3.47964e-21 0.0638967)
(0.426052 0 0.027244)
(0.358713 0 0.00417974)
(0.30157 3.09489e-21 -0.0119747)
(0.255276 2.94839e-21 -0.0208759)
(0.215834 0 -0.0235386)
(0.180322 2.29581e-23 -0.0230188)
(0.147708 6.0911e-21 -0.0219183)
(0.118084 -1.23177e-20 -0.0206797)
(0.0909286 -6.22828e-21 -0.0188014)
(0.0651063 6.09318e-23 -0.0163797)
(0.0400923 -5.94443e-21 -0.0141189)
(0.0164252 -5.60759e-21 -0.012542)
(-0.00500162 5.10979e-21 -0.0116107)
(-0.0237872 -9.11246e-21 -0.0109199)
(-0.0402398 -7.78177e-21 -0.0100228)
(-0.0550618 0 -0.00860957)
(-0.0689307 0 -0.00654095)
(-0.0822298 3.7046e-21 -0.0038187)
(-0.0949612 2.59476e-21 -0.000547101)
(-0.106788 0 0.00309889)
(-0.117156 0 0.00690806)
(-0.125468 1.78314e-21 0.0106739)
(-0.131275 0 0.0142253)
(-0.1344 -3.92314e-21 0.017433)
(-0.134937 2.43169e-21 0.0201966)
(-0.133151 0 0.02243)
(-0.129345 3.84031e-21 0.0240575)
(-0.12378 4.24733e-21 0.0250305)
(-0.116678 0 0.0253518)
(-0.108271 -4.22763e-21 0.0250948)
(-0.0988313 -7.90115e-21 0.0243857)
(-0.0886483 -3.01158e-24 0.0233659)
(-0.0779328 0 0.0221398)
(-0.0667727 0 0.020756)
(-0.0551239 4.11532e-21 0.0192012)
(-0.0429433 0 0.0174303)
(-0.030282 0 0.0153804)
(-0.0174484 0 0.0130139)
(-0.00500476 0 0.010328)
(0.0061754 0 0.00739457)
(0.0150862 0 0.00434579)
(0.0206447 0 0.00139187)
(0.0219758 -9.38425e-22 -0.0012185)
(0.0184445 -6.83791e-21 -0.00320201)
(0.00990979 0 -0.00430386)
(-0.00333592 -2.83778e-20 -0.00432759)
(-0.0204217 0 -0.00318816)
(-0.0400889 0 -0.000938676)
(-0.0607433 1.11539e-19 0.00224344)
(-0.0807025 0 0.00603378)
(-0.0984441 -1.18982e-19 0.0100786)
(-0.112684 1.10719e-19 0.013932)
(-0.122807 0 0.0172945)
(-0.128443 7.62959e-20 0.0198131)
(-0.130183 0 0.0214654)
(-0.128329 0 0.0220993)
(-0.124328 0 0.0220464)
(-0.118396 2.55013e-20 0.0212742)
(-0.112392 1.7623e-20 0.0203892)
(-0.105719 -7.76716e-22 0.0192359)
(-0.100537 -5.78513e-20 0.0185554)
(-0.0949213 -1.65442e-22 0.0178085)
(-0.0917151 0 0.017861)
(-0.0874112 0 0.0176608)
(-0.0863383 -1.33335e-19 0.0183797)
(-0.0831082 1.22576e-23 0.018398)
(-0.0843457 0 0.0194476)
(-0.0820091 0 0.0192326)
(-0.085861 -5.69113e-20 0.0203393)
(-0.084128 -1.4541e-22 0.0196149)
(-0.090881 -5.65682e-23 0.0208298)
(-0.0893707 0 0.0196652)
(-0.0991731 0 0.0213217)
(-0.0972437 4.79824e-20 0.0199046)
(-0.110303 -2.37977e-20 0.0223274)
(-0.107394 0 0.0206843)
(-0.124389 0 0.024083)
(-0.121019 0 0.0222688)
(-0.143139 0 0.0267732)
(-0.13945 0 0.0246485)
(-0.167245 0 0.0303027)
(-0.165195 0 0.0282363)
(-0.193453 0 0.034353)
(-0.1969 -1.0012e-18 0.0337004)
(-0.208642 -5.43848e-19 0.0373881)
(-0.229064 -6.14419e-19 0.0412866)
(-0.208454 3.63427e-19 0.0387539)
(-0.194399 -6.2127e-19 0.0384215)
(-0.371496 -6.99589e-19 0.0693449)
(0.376154 1.74713e-18 -0.0567968)
(-1.43564 0 0.271801)
(1.13103 0 -0.250667)
(0.862768 0 -0.0694502)
(-5.23038 0 0.878768)
(9.54282 1.68373e-17 -1.77743)
(-10.0012 0 2.09392)
(2.68918 0 -0.902544)
(14.6559 -3.47124e-17 -2.30191)
(-29.9104 0 5.48985)
(30.9939 1.87209e-17 -6.28003)
(-12.2233 -4.77663e-17 3.29863)
(-17.584 0 2.37678)
(48.3132 0 -8.66433)
(-57.7044 0 11.6609)
(19.9221 6.07587e-17 -5.26744)
(36.9576 0 -5.82403)
(-66.8442 -4.96327e-17 12.5474)
(49.6864 2.61084e-19 -10.8904)
(26.4649 2.29347e-16 -3.46849)
(-72.8796 -2.12121e-16 13.8979)
(32.9447 0 -8.10131)
(61.0378 -1.43661e-16 -10.597)
(-43.4942 -1.56906e-17 9.51626)
(-23.683 7.97865e-17 3.56594)
(32.2365 0 -6.60254)
(8.21369 -2.73392e-17 -1.12687)
(-8.85811 0 1.86914)
(0.482964 0 0.214176)
(0.507244 0 0.149283)
(0.499355 3.28958e-21 0.098421)
(0.464012 0 0.0643782)
(0.41548 -2.92965e-21 0.0355684)
(0.36518 5.62796e-21 0.0100331)
(0.31819 0 -0.00758256)
(0.274772 -5.5521e-21 -0.0154225)
(0.233911 5.62015e-21 -0.0175195)
(0.195331 5.66594e-21 -0.0184745)
(0.159701 5.78766e-21 -0.0192339)
(0.127041 -5.76607e-21 -0.0187277)
(0.0962757 5.75767e-21 -0.0169562)
(0.0666145 -1.1056e-20 -0.015242)
(0.0385665 0 -0.0146253)
(0.013327 -9.63074e-21 -0.0150264)
(-0.00842446 0 -0.0156763)
(-0.0269976 0 -0.0158196)
(-0.0433331 0 -0.0150335)
(-0.0584132 4.74472e-21 -0.0132095)
(-0.0728628 3.3945e-23 -0.0104365)
(-0.0868156 3.83614e-23 -0.00690824)
(-0.0999746 1.66972e-21 -0.00286626)
(-0.111775 0 0.00144689)
(-0.121593 0 0.0058328)
(-0.128947 0 0.0101553)
(-0.133649 3.5178e-21 0.0143189)
(-0.135811 -5.8187e-23 0.0182227)
(-0.135722 0 0.0217306)
(-0.133674 0 0.0246766)
(-0.129873 0 0.0269142)
(-0.124462 0 0.0283748)
(-0.117616 7.95101e-21 0.029104)
(-0.109591 0 0.0292343)
(-0.100702 -6.51519e-21 0.0289244)
(-0.0911879 0 0.0282871)
(-0.0811561 0 0.0273719)
(-0.0705531 -4.04711e-21 0.026161)
(-0.059321 0 0.024611)
(-0.0474868 0 0.02266)
(-0.035359 4.36368e-21 0.020273)
(-0.0234969 -9.61268e-21 0.0174408)
(-0.0127988 0 0.0142269)
(-0.00427414 -9.04324e-21 0.0107455)
(0.000969099 0 0.00719752)
(0.00206647 2.22442e-21 0.00382997)
(-0.00163894 5.56636e-22 0.000953335)
(-0.0102753 0 -0.00112951)
(-0.023584 0 -0.0021482)
(-0.0406915 3.58685e-20 -0.00193143)
(-0.0603859 9.03898e-20 -0.000445854)
(-0.0810847 -2.09789e-19 0.00221314)
(-0.101156 0 0.0057654)
(-0.119105 -1.12208e-19 0.00989257)
(-0.133688 -1.04515e-19 0.0141128)
(-0.144342 -9.15413e-20 0.0181097)
(-0.150691 -7.39086e-20 0.0214146)
(-0.153406 0 0.0239749)
(-0.152679 0 0.0254785)
(-0.150091 -4.50996e-20 0.0262889)
(-0.145609 -4.96657e-20 0.0262142)
(-0.141369 -1.66215e-20 0.0260165)
(-0.136329 -4.736e-22 0.0253653)
(-0.133182 2.74762e-20 0.0252834)
(-0.129245 3.89853e-20 0.0249567)
(-0.128298 0 0.0256535)
(-0.125618 0 0.0258651)
(-0.127093 1.25652e-19 0.0273318)
(-0.125444 2.33218e-19 0.0277298)
(-0.129703 0 0.0296055)
(-0.12891 7.63265e-20 0.0296391)
(-0.136392 5.40775e-20 0.0315922)
(-0.136032 2.41972e-20 0.0308817)
(-0.147102 1.7088e-20 0.0329617)
(-0.146604 0 0.0315491)
(-0.161457 0 0.0341767)
(-0.159906 -4.51525e-20 0.0322933)
(-0.178761 4.57005e-20 0.0359236)
(-0.175233 2.49681e-20 0.0336031)
(-0.198836 0 0.038517)
(-0.193663 0 0.0357378)
(-0.223214 0 0.0420008)
(-0.216145 0 0.0384763)
(-0.252108 0 0.0461702)
(-0.245561 0 0.0423061)
(-0.281345 -4.54571e-19 0.0505858)
(-0.281698 8.11377e-22 0.0481783)
(-0.2954 5.09116e-19 0.0534207)
(-0.320677 0 0.0573569)
(-0.290654 3.42258e-19 0.0532382)
(-0.275943 2.92471e-19 0.0568064)
(-0.507528 0 0.0876373)
(0.470826 1.64248e-18 -0.0600287)
(-1.94008 -3.20354e-18 0.365817)
(1.58833 0 -0.38081)
(0.880213 0 0.0291514)
(-6.77152 0 1.04767)
(12.5197 1.5862e-17 -2.2991)
(-13.9268 0 3.00811)
(4.82247 0 -1.79129)
(18.2469 -3.27827e-17 -2.48676)
(-39.5077 -2.9015e-17 7.11875)
(41.8961 0 -8.69983)
(-19.2978 0 5.38405)
(-19.3414 0 1.81807)
(62.8126 0 -10.9264)
(-78.2335 0 16.1067)
(30.9212 2.53708e-19 -8.75639)
(44.5904 0 -6.11584)
(-86.473 4.64449e-17 16.1624)
(68.5199 -6.69698e-17 -15.7457)
(28.8814 0 -2.42602)
(-94.2392 -1.63897e-19 17.9138)
(48.0746 0 -12.6824)
(77.5185 -2.79552e-19 -12.8321)
(-60.6684 0 13.8806)
(-28.2072 -7.45978e-17 3.5154)
(43.2814 0 -9.12291)
(8.31318 -2.57048e-17 -0.642731)
(-12.5674 0 2.76138)
(0.452057 0 0.193483)
(0.46949 0 0.155514)
(0.475605 0 0.11928)
(0.460566 0 0.0898614)
(0.431136 2.76529e-21 0.0612194)
(0.394754 -2.61852e-23 0.0324502)
(0.355714 0 0.00997605)
(0.316055 5.24023e-21 -0.00178367)
(0.276291 0 -0.00623554)
(0.236637 -1.06958e-20 -0.00932527)
(0.198287 0 -0.0126508)
(0.162286 5.44348e-21 -0.014309)
(0.128169 0 -0.0137151)
(0.0949493 1.04384e-20 -0.0127568)
(0.0628863 -4.89829e-21 -0.0132802)
(0.0334693 9.02941e-21 -0.0153291)
(0.00796439 -8.01756e-21 -0.0176929)
(-0.013565 -6.89823e-21 -0.0191732)
(-0.0320586 0 -0.019184)
(-0.0487281 -4.48029e-21 -0.0176802)
(-0.06447 -3.34076e-21 -0.014902)
(-0.0796131 -4.76866e-21 -0.0111899)
(-0.0939532 -1.57664e-21 -0.00688488)
(-0.106955 0 -0.00226758)
(-0.117996 0 0.00248163)
(-0.126573 0 0.00727893)
(-0.132466 -1.64344e-21 0.0120817)
(-0.135784 -2.11641e-21 0.0168066)
(-0.13685 0 0.0212785)
(-0.135989 0 0.0252459)
(-0.133398 3.56732e-21 0.0284679)
(-0.129168 0 0.030812)
(-0.123427 -4.11129e-23 0.032308)
(-0.116416 -6.88048e-21 0.0331022)
(-0.108474 6.09461e-21 0.0333692)
(-0.0998767 0 0.0332194)
(-0.0907611 0 0.032689)
(-0.0810739 3.81975e-21 0.031747)
(-0.0707494 0 0.0303524)
(-0.0597909 0 0.0284543)
(-0.0485063 -4.11784e-21 0.0260384)
(-0.0374471 9.07058e-21 0.0231082)
(-0.0275328 0 0.0197367)
(-0.0197684 8.53214e-21 0.0160298)
(-0.015285 0 0.0121779)
(-0.0149305 -1.26203e-21 0.00841209)
(-0.0193837 5.56828e-21 0.00504287)
(-0.0287502 0 0.00238262)
(-0.0428011 2.34097e-20 0.000730393)
(-0.0606421 -3.3826e-20 0.000300237)
(-0.081097 -1.69475e-19 0.00117665)
(-0.102565 9.85022e-20 0.00332956)
(-0.123444 -1.05221e-19 0.0065252)
(-0.142231 1.01847e-23 0.0105081)
(-0.1577 0 0.0148017)
(-0.169307 8.62813e-20 0.0191294)
(-0.176661 6.96547e-20 0.022957)
(-0.180491 -5.28608e-20 0.026251)
(-0.180908 3.58497e-20 0.0285597)
(-0.179624 4.24903e-20 0.0302911)
(-0.176416 2.41261e-20 0.0310639)
(-0.173708 -1.74444e-20 0.0317746)
(-0.170085 1.74206e-20 0.0318502)
(-0.168768 0 0.0325775)
(-0.166381 0 0.0328038)
(-0.167607 4.75771e-20 0.0342299)
(-0.166567 0 0.0348477)
(-0.170637 0 0.0370484)
(-0.170696 -1.09577e-19 0.0377556)
(-0.178088 0 0.0404447)
(-0.179001 -7.18117e-20 0.0406883)
(-0.190228 -1.02027e-19 0.0435629)
(-0.191408 0 0.0429176)
(-0.206909 -8.11272e-21 0.0460585)
(-0.207607 0 0.0445211)
(-0.227655 0 0.0483839)
(-0.226722 4.37768e-20 0.0461379)
(-0.251597 -2.19089e-20 0.0512178)
(-0.247798 9.56606e-22 0.0482345)
(-0.278362 0 0.0548733)
(-0.271832 0 0.0510592)
(-0.309287 0 0.0592853)
(-0.29938 -7.58063e-20 0.0542228)
(-0.344118 1.34354e-19 0.064185)
(-0.333526 0 0.058241)
(-0.377669 8.52272e-19 0.068979)
(-0.374987 4.40098e-19 0.0642456)
(-0.391892 -9.54803e-19 0.0714045)
(-0.421432 -5.41756e-19 0.0744624)
(-0.382486 -6.42709e-19 0.0685532)
(-0.370625 0 0.0775012)
(-0.641867 0 0.100706)
(0.527459 -1.54009e-18 -0.0500367)
(-2.40455 3.00336e-18 0.443946)
(2.02989 1.38408e-18 -0.521603)
(0.737109 0 0.19995)
(-7.98376 0 1.10219)
(15.0212 -1.48617e-17 -2.69937)
(-17.7182 3.70709e-18 3.90233)
(7.36922 0 -2.81539)
(20.6061 3.07018e-17 -2.2451)
(-47.4895 2.71695e-17 8.31343)
(51.6092 0 -10.9256)
(-27.2396 0 7.90186)
(-18.619 0 0.46495)
(74.6866 0 -12.3864)
(-96.7746 0 20.1984)
(42.4673 -5.3449e-17 -12.7472)
(48.6492 0 -5.26113)
(-101.532 0 18.6878)
(85.8468 0 -20.5787)
(27.0469 -2.01863e-16 0.058526)
(-110.321 9.29617e-17 20.6778)
(63.094 0 -17.7117)
(89.3533 1.25862e-16 -13.6884)
(-76.6392 0 18.2461)
(-30.2454 -7.01485e-17 2.59228)
(52.8665 0 -11.398)
(6.61533 2.40221e-17 0.256371)
(-16.1251 0 3.66662)
(0.428528 -3.15957e-21 0.187055)
(0.438609 -2.91694e-21 0.158418)
(0.447879 2.67192e-21 0.130059)
(0.442299 2.61874e-21 0.105247)
(0.424939 0 0.0793346)
(0.400208 -2.45882e-21 0.0509828)
(0.370491 0 0.0266623)
(0.338076 4.9367e-21 0.0126684)
(0.304321 5.02663e-21 0.0068679)
(0.269177 1.00913e-20 0.00246536)
(0.233253 -5.0563e-21 -0.00317571)
(0.198028 5.06305e-21 -0.00743324)
(0.163851 0 -0.00850641)
(0.129732 0 -0.00839668)
(0.0954005 4.61796e-21 -0.00997195)
(0.0623495 -2.68448e-23 -0.0137634)
(0.0325794 4.40114e-23 -0.018164)
(0.00700764 2.20607e-23 -0.0213513)
(-0.0148334 0 -0.0224228)
(-0.034115 0 -0.0213604)
(-0.0519408 0 -0.0185962)
(-0.0688883 4.63811e-21 -0.0146803)
(-0.0849162 1.64392e-21 -0.0101016)
(-0.0995632 0 -0.00519916)
(-0.112237 0 -0.000137511)
(-0.122426 1.56019e-21 0.00505463)
(-0.129852 0 0.0103942)
(-0.134573 0 0.0158283)
(-0.136935 0 0.0211562)
(-0.137338 0 0.0260442)
(-0.13603 -9.0917e-24 0.0301522)
(-0.13308 0 0.033281)
(-0.128556 -4.74935e-23 0.03545)
(-0.122658 6.48587e-21 0.0368281)
(-0.115731 -1.1323e-22 0.0376105)
(-0.108087 0 0.0379009)
(-0.0999085 0 0.0377146)
(-0.0911571 0 0.037)
(-0.0817713 0 0.0357167)
(-0.0717317 0 0.0338277)
(-0.0613438 0 0.0313467)
(-0.0511445 0 0.0282984)
(-0.0420724 -8.74898e-21 0.0247735)
(-0.0351233 -8.06907e-21 0.0208753)
(-0.031454 0 0.0167875)
(-0.0318938 -1.59162e-21 0.0127253)
(-0.0371493 0 0.00899573)
(-0.0473023 0 0.00591309)
(-0.0621617 -4.36936e-20 0.00379351)
(-0.0808118 0 0.00288014)
(-0.102122 7.93332e-20 0.00329326)
(-0.124471 0 0.00505685)
(-0.146296 1.97709e-19 0.00797306)
(-0.166076 1.30084e-22 0.0118492)
(-0.182609 0 0.0162133)
(-0.195346 0 0.0208416)
(-0.203888 0 0.0251387)
(-0.209002 1.00385e-19 0.0291117)
(-0.210716 -6.8365e-20 0.0321699)
(-0.210867 -4.33144e-20 0.0347899)
(-0.209049 -2.52004e-20 0.0363882)
(-0.20797 3.35388e-20 0.0380157)
(-0.205851 1.68864e-20 0.0388261)
(-0.206439 0 0.0403927)
(-0.205681 0 0.04118)
(-0.209166 -5.78233e-22 0.0433621)
(-0.20986 0 0.0443781)
(-0.216638 0 0.047335)
(-0.218521 -1.01987e-19 0.0483318)
(-0.229185 0 0.0518631)
(-0.231934 0 0.052294)
(-0.247075 9.64168e-20 0.0561406)
(-0.249951 -2.21872e-20 0.0555481)
(-0.270104 0 0.0598375)
(-0.272193 0 0.0581741)
(-0.297726 0 0.0633951)
(-0.297657 -4.11131e-20 0.0607803)
(-0.328934 0 0.0674557)
(-0.325195 -4.67542e-20 0.063789)
(-0.363234 -1.10514e-20 0.0723342)
(-0.355745 0 0.0674537)
(-0.401755 0 0.0778776)
(-0.38949 7.11356e-20 0.071251)
(-0.443795 -5.57394e-22 0.0838026)
(-0.429556 1.40344e-19 0.0757099)
(-0.483092 -3.99173e-19 0.0893752)
(-0.477366 4.11806e-19 0.0820824)
(-0.498955 4.47337e-19 0.0918726)
(-0.532062 5.07948e-19 0.0934983)
(-0.485199 -4.27832e-22 0.0861821)
(-0.479249 0 0.101895)
(-0.776495 -5.94556e-19 0.111517)
(0.5446 0 -0.0266554)
(-2.82715 0 0.506941)
(2.43452 -1.29662e-18 -0.662026)
(0.458509 0 0.426493)
(-8.87931 0 1.04012)
(17.0468 0 -2.9697)
(-21.2547 -3.47099e-18 4.7643)
(10.1245 0 -3.99748)
(21.8285 2.90083e-17 -1.59271)
(-53.7233 0 9.057)
(59.9405 0 -12.9149)
(-35.6902 0 10.6754)
(-15.9145 0 -1.60975)
(84.0094 0 -13.0546)
(-112.829 -8.73011e-18 23.8756)
(53.655 -5.03346e-17 -17.0884)
(49.3982 -9.44568e-17 -3.35351)
(-111.746 0 20.1049)
(101.105 0 -25.257)
(21.3463 3.77755e-16 3.75039)
(-120.856 0 22.161)
(77.195 9.31224e-17 -23.0126)
(96.4853 0 -13.1869)
(-90.5048 -1.3189e-17 22.4539)
(-30.2329 6.55529e-17 0.921329)
(60.7223 0 -13.3719)
(3.31061 2.2451e-17 2.07045)
(-19.2767 0 4.49969)
(0.408679 2.9755e-21 0.182897)
(0.414139 5.41384e-21 0.159413)
(0.423635 -2.51683e-21 0.135839)
(0.421481 -6.12797e-23 0.114271)
(0.410203 2.37452e-21 0.0914076)
(0.392912 0 0.0654382)
(0.370352 0 0.0413946)
(0.344561 -4.64855e-21 0.0261235)
(0.317629 -9.4608e-21 0.0193318)
(0.289454 -2.37405e-24 0.0142818)
(0.259547 4.76069e-21 0.0071368)
(0.228867 -4.76703e-21 0.000514445)
(0.198271 4.67881e-21 -0.00241879)
(0.166965 0 -0.00309237)
(0.133911 0 -0.00528599)
(0.0998743 -3.96873e-21 -0.0104747)
(0.0671197 1.41089e-20 -0.016962)
(0.0375731 1.21837e-20 -0.0222075)
(0.0117591 0 -0.0247487)
(-0.0109514 0 -0.0244303)
(-0.0315938 0 -0.0218346)
(-0.0509485 9.80828e-23 -0.0177617)
(-0.0691956 -3.21048e-21 -0.0129125)
(-0.0859938 1.19563e-21 -0.00772662)
(-0.10081 1.85577e-21 -0.00236767)
(-0.113149 -3.15369e-21 0.00318127)
(-0.122669 1.8058e-21 0.00899038)
(-0.12931 2.12238e-21 0.0150483)
(-0.133383 2.52346e-21 0.0211533)
(-0.135384 0 0.0269027)
(-0.135685 -3.15783e-21 0.0318494)
(-0.134383 3.25634e-21 0.035712)
(-0.13148 -3.23126e-21 0.0384955)
(-0.127083 -5.83867e-21 0.0403997)
(-0.121508 -1.04166e-20 0.04165)
(-0.115086 0 0.0423461)
(-0.108058 0 0.042478)
(-0.100425 -3.08622e-21 0.0419669)
(-0.0921474 0 0.0407699)
(-0.0831877 3.01911e-21 0.0388642)
(-0.0738465 3.36925e-21 0.0362956)
(-0.0646368 0 0.0331148)
(-0.0565142 1.61488e-20 0.0294359)
(-0.0504613 7.59351e-21 0.0253634)
(-0.0476651 0 0.0210781)
(-0.0489347 1.49765e-21 0.0167804)
(-0.0550109 -4.31396e-21 0.0127742)
(-0.0659492 0 0.00937341)
(-0.0816041 4.04639e-20 0.00690523)
(-0.101037 -2.87295e-20 0.00563428)
(-0.123177 -7.31164e-20 0.00570469)
(-0.146381 0 0.00718591)
(-0.169143 -5.24759e-22 0.00990319)
(-0.189922 1.8677e-19 0.0137249)
(-0.207549 0 0.0181745)
(-0.221473 0 0.0230919)
(-0.231281 -6.36816e-20 0.0278154)
(-0.237774 -4.76037e-20 0.0324164)
(-0.240896 6.57586e-20 0.0361587)
(-0.24261 4.07166e-20 0.0396207)
(-0.242311 2.36869e-20 0.0419985)
(-0.243003 -1.60966e-20 0.0445357)
(-0.24252 -3.19761e-20 0.0460711)
(-0.245168 0 0.0485099)
(-0.24617 0 0.0498686)
(-0.252092 -8.25201e-20 0.052862)
(-0.254667 0 0.0542866)
(-0.264371 0 0.0580677)
(-0.268242 9.5788e-20 0.0593558)
(-0.282437 0 0.063812)
(-0.287197 -6.36951e-20 0.0644249)
(-0.306562 2.43583e-22 0.0693539)
(-0.311329 2.08296e-20 0.0688094)
(-0.336507 0 0.0744002)
(-0.3402 0 0.0726042)
(-0.37167 0 0.0793792)
(-0.372701 -3.96792e-20 0.0763715)
(-0.410938 0 0.0848749)
(-0.407553 2.23526e-20 0.0804721)
(-0.453771 1.98797e-20 0.0912004)
(-0.445669 0 0.0851625)
(-0.501109 0 0.0981163)
(-0.486901 0 0.0898054)
(-0.551829 -5.27108e-22 0.105368)
(-0.534294 -1.31569e-19 0.0949278)
(-0.598558 -3.72071e-19 0.112092)
(-0.589763 -3.85962e-19 0.101833)
(-0.617882 4.17588e-19 0.115073)
(-0.653855 0 0.114554)
(-0.600707 2.82893e-19 0.106441)
(-0.603398 0 0.129917)
(-0.914993 5.56901e-19 0.118443)
(0.521124 0 0.0125934)
(-3.20935 0 0.55312)
(2.78208 0 -0.798006)
(0.0732246 5.95352e-18 0.70716)
(-9.47771 -1.07489e-17 0.894496)
(18.606 0 -3.10347)
(-24.4232 3.25979e-18 5.5514)
(12.8906 -1.31711e-17 -5.30476)
(22.0474 -2.71424e-17 -0.558461)
(-58.188 -2.4128e-17 9.32964)
(66.7939 0 -14.6105)
(-44.2074 0 13.604)
(-11.8342 0 -4.29826)
(90.8611 0 -12.9197)
(-125.898 8.16343e-18 26.9918)
(63.7396 -1.32804e-20 -21.5602)
(47.1243 1.76675e-16 -0.467602)
(-117.219 0 20.3707)
(113.959 0 -29.5981)
(12.4492 -1.7668e-16 8.53429)
(-126.155 0 22.3282)
(89.7403 -8.7023e-17 -28.3446)
(98.9763 0 -11.36)
(-101.412 2.46076e-17 26.2374)
(-28.7495 0 -1.38867)
(66.6963 0 -14.9594)
(-1.67991 -2.09727e-17 3.50216)
(-21.8017 0 5.26251)
(0.390945 0 0.178947)
(0.393516 -2.50846e-21 0.159063)
(0.402657 0 0.138715)
(0.401662 -2.26309e-21 0.11955)
(0.393293 -4.45063e-21 0.0995006)
(0.38046 0 0.0766726)
(0.362851 2.13698e-21 0.0542893)
(0.341943 0 0.0383543)
(0.320358 3.16344e-23 0.030249)
(0.298404 -8.91487e-21 0.0245338)
(0.27498 0 0.0166142)
(0.250107 0 0.00829723)
(0.224801 -4.40062e-21 0.00360152)
(0.198821 0 0.00219603)
(0.170614 0 -5.8896e-05)
(0.139582 0 -0.00581541)
(0.107189 -6.61452e-21 -0.0138512)
(0.0757469 -5.71882e-21 -0.021135)
(0.0468455 -4.7805e-21 -0.0254878)
(0.0208647 0 -0.0263522)
(-0.00269279 0 -0.0242732)
(-0.0245749 -2.18324e-21 -0.0202465)
(-0.0451667 1.56365e-21 -0.0152319)
(-0.064282 -1.12449e-21 -0.00983231)
(-0.0814561 -1.74535e-21 -0.00423902)
(-0.0962449 3.4148e-21 0.001594)
(-0.108273 2.09909e-22 0.00776777)
(-0.11731 -1.99607e-21 0.0143125)
(-0.123522 -2.37326e-21 0.0210619)
(-0.127454 0 0.0275797)
(-0.129666 0 0.0333084)
(-0.130369 -3.06236e-21 0.0378557)
(-0.129523 0 0.0411929)
(-0.1271 5.49062e-21 0.0435546)
(-0.123321 4.80986e-21 0.0452119)
(-0.118499 -3.78159e-21 0.0462695)
(-0.112935 0 0.0466921)
(-0.106692 2.90191e-21 0.0463677)
(-0.0997853 2.4385e-21 0.0452458)
(-0.092167 -2.7854e-22 0.0433147)
(-0.0841311 -6.06437e-21 0.0406536)
(-0.0761505 0 0.0373416)
(-0.0691924 -7.44094e-21 0.0335209)
(-0.0642176 0 0.0292996)
(-0.0624486 0 0.0248571)
(-0.0646723 0 0.0203796)
(-0.0716731 -1.16813e-22 0.0161683)
(-0.0834773 0 0.0125358)
(-0.0999933 -1.88916e-20 0.00981699)
(-0.120257 5.37601e-20 0.0082943)
(-0.143263 6.87085e-20 0.00812719)
(-0.167353 0 0.00942675)
(-0.191087 -8.66712e-20 0.0120298)
(-0.21291 -1.74723e-19 0.0158665)
(-0.231689 0 0.0204437)
(-0.246873 0 0.0256753)
(-0.258033 5.98194e-20 0.0308205)
(-0.266015 4.56014e-20 0.0360389)
(-0.270661 -3.11877e-20 0.0404312)
(-0.274081 -4.02511e-20 0.0447164)
(-0.275435 0 0.0478391)
(-0.278072 0 0.0512881)
(-0.279365 -2.55505e-22 0.0535319)
(-0.284269 -2.11078e-20 0.0568779)
(-0.28718 0 0.0588078)
(-0.295773 3.85118e-20 0.0626774)
(-0.300389 0 0.0645164)
(-0.313308 0 0.0692127)
(-0.319333 0 0.0707935)
(-0.337405 0 0.07629)
(-0.344343 -8.70355e-23 0.0770745)
(-0.368349 2.13351e-22 0.0832312)
(-0.375175 -2.00173e-20 0.0827103)
(-0.405885 0 0.089787)
(-0.411347 9.15511e-21 0.087814)
(-0.449369 0 0.0963723)
(-0.451672 3.72071e-20 0.0928986)
(-0.497638 -2.09301e-20 0.103511)
(-0.494818 2.24228e-20 0.0982669)
(-0.550178 -8.91754e-21 0.111524)
(-0.541708 0 0.104181)
(-0.607768 5.07508e-20 0.120086)
(-0.591918 0 0.109907)
(-0.668898 -1.09762e-19 0.129007)
(-0.648315 -1.22555e-19 0.115956)
(-0.72507 3.48557e-19 0.137311)
(-0.713116 0 0.123621)
(-0.750101 -7.81242e-19 0.14128)
(-0.788236 0 0.137839)
(-0.73116 2.65248e-19 0.129771)
(-0.745033 0 0.161516)
(-1.06058 5.28894e-19 0.124204)
(0.455525 0 0.0678325)
(-3.55526 2.52446e-18 0.58188)
(3.05616 1.11599e-18 -0.923512)
(-0.392025 -5.57131e-18 1.03231)
(-9.8341 1.00578e-17 0.568584)
(19.7123 0 -3.09843)
(-27.1235 -6.12883e-18 6.24214)
(15.489 2.46637e-17 -6.68299)
(21.4209 0 0.819395)
(-60.9723 2.25655e-17 9.14229)
(72.1565 0 -15.9819)
(-52.3045 0 16.5836)
(-7.03936 -7.21513e-17 -7.47626)
(95.3107 0 -11.9842)
(-135.56 0 29.4637)
(72.2012 4.40037e-17 -26.0382)
(42.2037 -1.6512e-16 3.28136)
(-118.502 3.68404e-17 19.5467)
(124.299 0 -33.4859)
(1.30785 0 14.1485)
(-127.121 0 21.3067)
(100.286 0 -33.5539)
(97.0214 -1.03234e-16 -8.25441)
(-108.682 -1.14758e-17 29.4389)
(-26.4167 0 -4.19032)
(70.6459 0 -16.1065)
(-8.23761 0 3.73107)
(-23.5075 0 5.87188)
(0.374868 2.54324e-21 0.174937)
(0.375182 0 0.157411)
(0.383854 2.08105e-21 0.139695)
(0.383358 0 0.122686)
(0.376491 2.08337e-21 0.105186)
(0.366454 0 0.0855571)
(0.352489 -2.00848e-21 0.0654376)
(0.335275 4.03704e-21 0.0494031)
(0.317398 8.24732e-21 0.0397028)
(0.299803 5.19554e-23 0.0329714)
(0.28138 0 0.0246419)
(0.261424 0 0.0153552)
(0.240842 0 0.00912512)
(0.220216 0 0.00679401)
(0.198256 0 0.00466171)
(0.173201 0 -0.000800066)
(0.14492 6.11785e-21 -0.00932752)
(0.115028 -5.32512e-21 -0.017979)
(0.085539 4.49172e-21 -0.0240417)
(0.0578162 0 -0.0263917)
(0.0322596 0 -0.0252569)
(0.00852149 2.25367e-21 -0.0216222)
(-0.0138509 1.71318e-21 -0.0166655)
(-0.0348381 1.32091e-21 -0.0112126)