/*--------------------------------*- C++ -*----------------------------------*\
| =========                 |                                                 |
| \\      /  F ield         | OpenFOAM: The Open Source CFD Toolbox           |
|  \\    /   O peration     | Version:  2412                                  |
|   \\  /    A nd           | Website:  www.openfoam.com                      |
|    \\/     M anipulation  |                                                 |
\*---------------------------------------------------------------------------*/
FoamFile
{
    version     2.0;
    format      ascii;
    arch        "LSB;label=32;scalar=64";
    class       surfaceScalarField;
    location    "0.605";
    object      phi_0;
}
// * * * * * * * * * * * * * * * * * * * * * * * * * * * * * * * * * * * * * //

dimensions      [0 3 -1 0 0 0 0];

oriented        oriented;

internalField   nonuniform List<scalar> 
24930
(
0.0179691
0.012755
-0.0307252
0.0106055
0.00736355
0.00695498
0.00365053
0.00517884
0.00177614
0.00420668
0.000972161
0.00358369
0.000622993
0.0031377
0.00044599
0.00279812
0.000339579
0.00252888
0.000269239
0.00230892
0.000219965
0.00212507
0.000183849
0.00196861
0.000156463
0.00183348
0.000135129
0.00171534
0.000118141
0.00161097
0.000104365
0.00151796
9.30174e-05
0.00143442
8.35426e-05
0.00135888
7.55381e-05
0.00129018
6.87057e-05
0.00122736
6.28201e-05
0.00116965
5.77085e-05
0.00111642
5.32367e-05
0.00106712
4.92986e-05
0.00102131
4.58099e-05
0.000978608
4.27026e-05
0.000938687
3.99213e-05
0.000901267
3.74206e-05
0.000866105
3.5163e-05
0.000832988
3.31172e-05
0.000801732
3.12568e-05
0.000772172
2.95598e-05
0.000744166
2.8007e-05
0.000717583
2.65828e-05
0.00069231
2.52728e-05
0.000668245
2.40657e-05
0.000645294
2.29506e-05
0.000623375
2.19192e-05
0.000602412
2.09628e-05
0.000582337
2.00756e-05
0.000563087
1.92501e-05
0.000544604
1.84829e-05
0.000526837
1.7767e-05
0.000509736
1.71011e-05
0.000493258
1.64778e-05
0.00047736
1.58984e-05
0.000462006
1.53543e-05
0.000447156
1.48498e-05
0.000432782
1.43743e-05
0.000418846
1.39354e-05
0.000405327
1.35198e-05
0.000392187
1.31392e-05
0.000379411
1.27764e-05
0.000366963
1.24483e-05
0.00035483
1.21324e-05
0.000342978
1.18519e-05
0.000331399
1.15784e-05
0.000320057
1.13417e-05
0.00030895
1.11064e-05
0.000298039
1.09105e-05
0.000287329
1.071e-05
0.000276777
1.0552e-05
0.000266393
1.03836e-05
0.000256131
1.0261e-05
0.000246009
1.01221e-05
0.000235976
1.00325e-05
0.000226055
9.92074e-06
0.000216194
9.86134e-06
0.000206419
9.77469e-06
0.000196676
9.74222e-06
0.000186997
9.67869e-06
0.000177328
9.66894e-06
0.000167701
9.62686e-06
0.000158066
9.63446e-06
0.000148453
9.61212e-06
0.000138823
9.62985e-06
0.000129197
9.62545e-06
0.000119553
9.64358e-06
0.000109897
9.65629e-06
0.000100234
9.6632e-06
9.05413e-05
9.69295e-06
8.08668e-05
9.67487e-06
7.11429e-05
9.72432e-06
6.14808e-05
9.66254e-06
5.17423e-05
9.73897e-06
4.213e-05
9.61265e-06
3.23997e-05
9.73068e-06
2.28868e-05
9.51305e-06
1.319e-05
9.69692e-06
3.82436e-06
9.36577e-06
-5.81654e-06
9.64112e-06
-1.49975e-05
9.18122e-06
-2.46444e-05
9.64729e-06
-3.35603e-05
8.91642e-06
-4.32995e-05
9.73991e-06
-5.20401e-05
8.74042e-06
-6.21187e-05
1.0078e-05
-7.05887e-05
8.47294e-06
-8.0903e-05
1.03183e-05
-8.86992e-05
7.79293e-06
-9.95398e-05
1.08345e-05
-0.000109162
9.6324e-06
-0.000123773
1.46142e-05
-0.000137474
1.36853e-05
-0.000167504
3.00296e-05
-0.000186008
1.85209e-05
-0.000165679
-2.03064e-05
-0.00024299
7.73046e-05
-0.000342405
9.94472e-05
-0.000185176
-0.000157254
-3.9065e-05
-0.000146157
-0.00033421
0.000295157
-0.000808003
0.000473836
-0.000799792
-8.16742e-06
-0.000390237
-0.000409555
1.57933e-05
-0.000406057
0.000285266
-0.000269495
0.000409589
-0.000124326
0.000404799
4.79471e-06
0.00034912
5.5678e-05
-6.75901e-05
0.0336798
0.0163172
-0.037242
0.0277456
0.0132977
0.0221948
0.00920139
0.0179217
0.00604924
0.0148761
0.00401769
0.012716
0.00278313
0.0111291
0.00203288
0.00991216
0.00155651
0.00894501
0.0012364
0.0081547
0.00101027
0.0074945
0.000844048
0.00693312
0.000717849
0.00644877
0.000619478
0.00602579
0.000541126
0.00565258
0.000477579
0.00532036
0.000425239
0.00502236
0.000381548
0.00475325
0.000344651
0.00450879
0.00031317
0.00428555
0.000286064
0.00408072
0.000262536
0.003892
0.000241963
0.00371744
0.000223857
0.00355543
0.000207826
0.00340458
0.000193555
0.00326371
0.000180789
0.00313181
0.000169318
0.00300801
0.000158968
0.00289153
0.000149593
0.00278172
0.000141073
0.00267798
0.000133305
0.00257978
0.000126201
0.00248668
0.000119687
0.00239825
0.0001137
0.00231413
0.000108184
0.00223399
0.000103091
0.00215753
9.8382e-05
0.00208448
9.40173e-05
0.00201458
8.99686e-05
0.00194763
8.62042e-05
0.00188341
8.27045e-05
0.00182173
7.94416e-05
0.00176243
7.64041e-05
0.00170534
7.35651e-05
0.00165032
7.09214e-05
0.00159723
6.84448e-05
0.00154594
6.61411e-05
0.00149633
6.3978e-05
0.0014483
6.19713e-05
0.00140174
6.00821e-05
0.00135654
5.83381e-05
0.00131262
5.66906e-05
0.00126989
5.51814e-05
0.00122827
5.37494e-05
0.00118767
5.24528e-05
0.00114804
5.12148e-05
0.00110926
5.01126e-05
0.00107132
4.90508e-05
0.0010341
4.81279e-05
0.000997583
4.72273e-05
0.000961663
4.64707e-05
0.000926328
4.57184e-05
0.000891472
4.51166e-05
0.000857092
4.45015e-05
0.000823081
4.40432e-05
0.000789446
4.35548e-05
0.000756079
4.32282e-05
0.000722997
4.28562e-05
0.00069009
4.2648e-05
0.000657386
4.23828e-05
0.000624778
4.22762e-05
0.000592296
4.21078e-05
0.000559848
4.20826e-05
0.000527459
4.2e-05
0.000495059
4.20287e-05
0.000462665
4.20189e-05
0.000430243
4.20657e-05
0.000397781
4.21174e-05
0.000365304
4.21402e-05
0.000332753
4.22434e-05
0.000300235
4.21935e-05
0.000267615
4.23443e-05
0.000235121
4.21569e-05
0.000202495
4.23658e-05
0.000170134
4.19731e-05
0.000137594
4.22713e-05
0.000105514
4.15937e-05
7.31681e-05
4.20432e-05
4.15202e-05
4.10142e-05
9.55479e-06
4.16068e-05
-2.16566e-05
4.0393e-05
-5.34815e-05
4.14725e-05
-8.39043e-05
3.93396e-05
-0.000115755
4.15912e-05
-0.00014573
3.87165e-05
-0.000178237
4.25859e-05
-0.000207439
3.76742e-05
-0.000240335
4.32132e-05
-0.000267582
3.50423e-05
-0.000302588
4.58417e-05
-0.000335658
4.26965e-05
-0.000382852
6.18107e-05
-0.000428285
5.91251e-05
-0.000524973
0.000126713
-0.000568892
6.24331e-05
-0.000526916
-6.23188e-05
-0.000778141
0.000328531
-0.00102827
0.000349553
-0.000533389
-0.000652109
-0.000176932
-0.000502597
-0.0011405
0.0012587
-0.00247792
0.00181124
-0.00233978
-0.000146347
-0.00106268
-0.00168664
0.000173605
-0.00164233
0.000980389
-0.00107626
0.00134381
-0.000487749
0.00131057
3.80337e-05
0.00117484
0.000191399
-0.000292341
0.0414489
0.016011
-0.0411427
0.0391613
0.0155853
0.0352339
0.0131288
0.0309498
0.0103334
0.0270369
0.00793057
0.0237495
0.00607059
0.0210763
0.00470612
0.0189084
0.00372436
0.0171314
0.00301341
0.0156527
0.002489
0.0144033
0.0020934
0.0133331
0.00178811
0.012405
0.00154753
0.0115917
0.00135444
0.0108723
0.00119695
0.0102309
0.00106668
0.00965488
0.000957582
0.00913431
0.000865223
0.00866121
0.000786268
0.00822909
0.000718185
0.00783261
0.00065902
0.00746734
0.00060724
0.00712956
0.000561636
0.00681615
0.000521238
0.00652444
0.000485263
0.00625216
0.000453072
0.00599734
0.00042414
0.00575828
0.000398031
0.00553349
0.000374383
0.00532168
0.000352889
0.00512169
0.000333292
0.00493252
0.000315371
0.00475327
0.000298941
0.00458313
0.000283839
0.00442138
0.000269928
0.00426739
0.000257085
0.00412056
0.000245209
0.00398038
0.000234204
0.00384635
0.000223996
0.00371805
0.000214506
0.00359507
0.000205683
0.00347705
0.000197459
0.00336366
0.000189799
0.00325458
0.000182645
0.00314952
0.000175977
0.00304823
0.000169737
0.00295045
0.000163923
0.00285595
0.000158473
0.00276452
0.000153405
0.00267596
0.000148645
0.00259006
0.000144235
0.00250667
0.000140084
0.00242559
0.00013626
0.00234668
0.000132653
0.00226978
0.000129358
0.00219475
0.000126241
0.00212144
0.000123428
0.00204973
0.000120756
0.00197947
0.000118386
0.00191058
0.000116121
0.00184288
0.000114162
0.00177633
0.000112273
0.00171075
0.000110695
0.0016461
0.000109153
0.00158221
0.000107927
0.00151906
0.000106707
0.00145648
0.000105805
0.00139446
0.000104881
0.00133283
0.000104271
0.0012716
0.000103616
0.00121061
0.000103261
0.00114987
0.000102849
0.00108925
0.000102701
0.00102875
0.000102501
0.000968278
0.0001025
0.000907822
0.000102474
0.000847348
0.000102539
0.000786813
0.000102652
0.000726263
0.00010269
0.000665601
0.000102905
0.000604985
0.00010281
0.000544229
0.000103101
0.000483655
0.000102732
0.000422921
0.0001031
0.00036258
0.000102315
0.000302047
0.000102805
0.000242201
0.00010144
0.000182075
0.000102169
0.000123012
0.000100079
6.34791e-05
0.00010114
5.38176e-06
9.84908e-05
-5.34681e-05
0.000100323
-0.000110362
9.62344e-05
-0.00016899
0.00010022
-0.000225083
9.48098e-05
-0.000284419
0.000101924
-0.000339072
9.23279e-05
-0.000398732
0.000102873
-0.000450085
8.63966e-05
-0.000513979
0.000109738
-0.000575689
0.000104403
-0.000661166
0.000147286
-0.000744393
0.000142354
-0.000915027
0.000297347
-0.000980129
0.000127533
-0.000930566
-0.000111876
-0.00137507
0.000773038
-0.00174418
0.000718666
-0.000882483
-0.00151382
-0.000384314
-0.00100077
-0.00210411
0.0029785
-0.00425959
0.00396671
-0.00385986
-0.000546045
-0.00161801
-0.00392849
0.000492187
-0.00375252
0.00185881
-0.00244288
0.00245976
-0.0010887
0.00238554
0.000112254
0.00219131
0.000385619
-0.000716542
0.045911
0.0147104
-0.0446104
0.0459957
0.0155006
0.044419
0.0147055
0.0416977
0.0130546
0.0384566
0.0111717
0.0351541
0.00937308
0.0320577
0.00780252
0.0292818
0.00650029
0.0268452
0.00544998
0.024722
0.00461219
0.0228711
0.00394428
0.0212507
0.00340856
0.0198235
0.00297473
0.0185584
0.00261954
0.0174298
0.00232553
0.0164169
0.00207958
0.0155027
0.00187178
0.0146733
0.00169463
0.0139172
0.00154233
0.013225
0.00141041
0.0125887
0.00129534
0.0120016
0.00119432
0.0114581
0.00110513
0.0109534
0.00102594
0.0104834
0.000955308
0.0100445
0.000892007
0.00963356
0.000835042
0.00924801
0.000783583
0.00888547
0.000736931
0.00854386
0.000694497
0.00822137
0.000655783
0.00791638
0.000620362
0.00762745
0.000587872
0.00735329
0.000557996
0.00709275
0.000530466
0.00684479
0.000505044
0.00660847
0.000481529
0.00638294
0.000459735
0.00616743
0.000439512
0.00596122
0.000420712
0.00576368
0.000403224
0.00557421
0.000386927
0.00539227
0.000371741
0.00521736
0.000357559
0.005049
0.000344332
0.00488678
0.000331958
0.00473028
0.000320419
0.00457915
0.000309609
0.00443301
0.000299541
0.00429156
0.000290097
0.00415447
0.000281325
0.00402147
0.000273087
0.00389226
0.000265468
0.00376661
0.000258306
0.00364424
0.000251727
0.00352494
0.000245534
0.00340847
0.000239901
0.00329464
0.000234588
0.0031832
0.000229824
0.003074
0.000225318
0.00296681
0.000221355
0.00286148
0.000217594
0.0027578
0.000214374
0.00265566
0.000211302
0.00255481
0.00020877
0.00245518
0.000206336
0.00235655
0.000204436
0.00225884
0.000202588
0.00216185
0.00020126
0.00206552
0.000199948
0.00196966
0.000199122
0.00187422
0.000198291
0.00177904
0.000197879
0.00168407
0.000197466
0.00158922
0.000197357
0.00149441
0.000197282
0.00139961
0.000197331
0.00130475
0.000197516
0.00120989
0.000197555
0.00111487
0.000197918
0.00101993
0.000197752
0.000924811
0.000198221
0.000829944
0.0001976
0.000734891
0.000198153
0.000640385
0.000196822
0.000545685
0.000197505
0.000451942
0.000195183
0.000357935
0.000196177
0.000265408
0.000192606
0.0001724
0.000194148
8.14644e-05
0.000189427
-1.00545e-05
0.000191842
-9.94088e-05
0.000185589
-0.000190484
0.000191296
-0.0002782
0.000182527
-0.000369819
0.000193543
-0.000455092
0.000177602
-0.000546793
0.000194574
-0.0006273
0.000166905
-0.000725857
0.000208297
-0.000821682
0.000200228
-0.000951937
0.000277539
-0.00107929
0.000269708
-0.0013293
0.000547357
-0.00141419
0.000212417
-0.00137071
-0.000155359
-0.00202099
0.00142331
-0.00247757
0.00117524
-0.001231
-0.00276038
-0.000666859
-0.00156491
-0.00320736
0.005519
-0.0061094
0.00686874
-0.0053028
-0.00135263
-0.00200608
-0.0072252
0.00101317
-0.00677176
0.00295589
-0.0043856
0.00379071
-0.00192352
0.00366785
0.000235098
0.00343899
0.000614482
-0.00139268
0.0493776
0.0135155
-0.0481827
0.0503423
0.0145359
0.050362
0.0146858
0.049342
0.0140746
0.0474998
0.0130139
0.0451277
0.0117451
0.0424974
0.0104329
0.039815
0.00918265
0.0372154
0.00804963
0.0347729
0.00705468
0.0325198
0.00619741
0.030462
0.00546637
0.0285911
0.00484557
0.0268923
0.00431839
0.0253484
0.00386945
0.0239425
0.00348546
0.022659
0.00315528
0.0214838
0.00286979
0.0204046
0.00262152
0.0194106
0.00240443
0.0184924
0.00221357
0.0176418
0.00204493
0.0168517
0.0018952
0.016116
0.00176166
0.0154292
0.00164206
0.0147868
0.0015345
0.0141844
0.00143744
0.0136184
0.00134952
0.0130857
0.00126965
0.0125833
0.00119686
0.0121088
0.00113034
0.0116598
0.00106939
0.0112342
0.00101341
0.0108303
0.000961874
0.0104465
0.00091434
0.0100811
0.000870405
0.00973291
0.000829732
0.00940063
0.000792011
0.00908316
0.000756984
0.00877946
0.000724405
0.00848861
0.000694082
0.00820972
0.00066581
0.00794201
0.000639451
0.00768474
0.000614827
0.00743723
0.000591846
0.00719885
0.000570344
0.00696899
0.000550276
0.00674712
0.000531477
0.00653272
0.000513947
0.0063253
0.000497511
0.00612441
0.000482218
0.00592963
0.000467869
0.00574053
0.000454566
0.00555676
0.000442079
0.00537791
0.000430568
0.00520369
0.000419759
0.00503371
0.000409878
0.0048677
0.000400596
0.00470532
0.000392208
0.00454631
0.000384324
0.00439035
0.000377313
0.00423722
0.000370721
0.00408661
0.000364987
0.00393832
0.00035959
0.00379205
0.000355037
0.00364764
0.000350748
0.00350479
0.000347283
0.00336337
0.000344013
0.00322309
0.000341534
0.00308385
0.000339195
0.00294538
0.000337586
0.00280759
0.000336085
0.00267026
0.000335204
0.0025333
0.000334427
0.00239656
0.00033409
0.00225995
0.000333898
0.00212341
0.00033387
0.0019868
0.000334122
0.00185023
0.000334127
0.00171348
0.000334671
0.00157684
0.000334391
0.00143997
0.000335084
0.00130346
0.000334114
0.00116673
0.000334885
0.00103074
0.000332813
0.000894546
0.000333698
0.000759654
0.000330076
0.000624508
0.000331324
0.000491381
0.000325734
0.000357758
0.000327771
0.000226995
0.000320191
9.53324e-05
0.000323505
-3.27245e-05
0.000313647
-0.000162892
0.000321464
-0.000288681
0.000308316
-0.000418989
0.000323852
-0.000540886
0.0002995
-0.000670804
0.000324492
-0.000786284
0.000282386
-0.000926091
0.000348106
-0.00106206
0.000336197
-0.0012441
0.000459576
-0.00142194
0.000447546
-0.00175609
0.000881513
-0.00186021
0.000316527
-0.00183731
-0.000178237
-0.00269903
0.00228504
-0.00320927
0.00168547
-0.00157407
-0.00439558
-0.00102361
-0.00211536
-0.00442048
0.00891587
-0.0079624
0.0104106
-0.00659399
-0.00272106
-0.00216377
-0.0116554
0.00178466
-0.0107202
0.0043135
-0.00691444
0.00537761
-0.00298762
0.00520292
0.000409784
0.00496936
0.00084804
-0.00237958
0.0528368
0.0126171
-0.0519383
0.0538657
0.013507
0.0545504
0.0140011
0.0546207
0.0140043
0.054024
0.0136106
0.0528295
0.0129396
0.0511663
0.0120961
0.0491807
0.0111683
0.0470072
0.0102231
0.0447562
0.00930561
0.04251
0.0084436
0.0403246
0.00765179
0.0382345
0.00693566
0.0362583
0.00629464
0.0344033
0.00572448
0.0326697
0.00521905
0.0310535
0.00477151
0.0295482
0.00437507
0.0281463
0.00402337
0.0268401
0.00371066
0.0256218
0.00343188
0.0244841
0.00318263
0.0234202
0.00295911
0.0224238
0.00275804
0.0214893
0.00257663
0.0206113
0.00241246
0.0197853
0.00226347
0.0190069
0.00212789
0.0182724
0.00200419
0.0175782
0.00189104
0.0169212
0.0017873
0.0162986
0.00169198
0.0157078
0.0016042
0.0151465
0.00152322
0.0146125
0.00144837
0.0141038
0.00137906
0.0136188
0.00131479
0.0131557
0.0012551
0.012713
0.0011996
0.0122895
0.00114792
0.0118839
0.00109976
0.0114948
0.00105482
0.0111214
0.00101287
0.0107626
0.000973654
0.0104174
0.000937019
0.0100851
0.000902722
0.00976465
0.000870678
0.00945548
0.000840649
0.00915681
0.000812613
0.008868
0.000786323
0.00858839
0.000761823
0.00831742
0.000738841
0.0080545
0.000717492
0.00779911
0.000697464
0.00755073
0.000678952
0.0073089
0.000661589
0.00707312
0.000645656
0.00684299
0.00063072
0.00661805
0.000617151
0.00639793
0.000604441
0.00618219
0.000593052
0.00597051
0.000582398
0.00576247
0.00057303
0.00555778
0.000564282
0.00535603
0.000556785
0.00515697
0.000549804
0.00496022
0.000544032
0.00476555
0.00053868
0.00457261
0.000534478
0.00438119
0.000530617
0.00419097
0.000527803
0.00400177
0.000525285
0.00381332
0.000523646
0.00362546
0.000522291
0.003438
0.000521547
0.00325077
0.000521132
0.00306371
0.000520926
0.00287661
0.000521221
0.0026896
0.000521135
0.00250238
0.000521889
0.00231534
0.000521437
0.00212802
0.000522402
0.00194117
0.000520966
0.00175406
0.000521994
0.00156793
0.000518945
0.00138158
0.000520043
0.00119696
0.000514701
0.0010121
0.000516187
0.00082992
0.000507912
0.000647249
0.000510443
0.000468416
0.000499024
0.000288557
0.000503365
0.00011379
0.000488415
-6.32414e-05
0.000498496
-0.000234894
0.00047997
-0.000411342
0.000500301
-0.000576914
0.000465074
-0.000752203
0.000499781
-0.000909412
0.000439596
-0.00109787
0.000536564
-0.0012806
0.000518927
-0.00152183
0.000700808
-0.00175635
0.000682064
-0.00217854
0.0013037
-0.00230215
0.000440134
-0.00231434
-0.000166096
-0.003385
0.0033557
-0.00391496
0.00221542
-0.00190287
-0.00640767
-0.00144368
-0.00257454
-0.00569562
0.0131678
-0.00973382
0.0144488
-0.00764675
-0.00480814
-0.00202207
-0.0172801
0.00286345
-0.0156057
0.00598221
-0.0100332
0.00727188
-0.00427728
0.00704755
0.000634109
0.00684509
0.00105049
-0.00374037
0.0565579
0.0119298
-0.0558707
0.0574119
0.012653
0.0582091
0.0132039
0.0587367
0.0134767
0.0588727
0.0134746
0.0585712
0.0132411
0.0578416
0.0128256
0.0567318
0.0122781
0.05531
0.0116449
0.0536517
0.010964
0.05183
0.0102653
0.0499102
0.00957153
0.047947
0.00889892
0.0459832
0.00825844
0.0440508
0.00765682
0.0421724
0.00709747
0.0403626
0.00658134
0.03863
0.00610763
0.036979
0.00567443
0.0354105
0.00527915
0.0339235
0.00491886
0.0325156
0.00459055
0.0311834
0.00429128
0.0299232
0.00401825
0.0287309
0.00376888
0.0276026
0.00354081
0.0265342
0.00333191
0.0255218
0.00314025
0.0245619
0.00296413
0.0236509
0.00280203
0.0227856
0.00265257
0.021963
0.00251455
0.0211803
0.0023869
0.0204349
0.00226867
0.0197243
0.002159
0.0190462
0.00205713
0.0183986
0.0019624
0.0177795
0.0018742
0.0171871
0.00179199
0.0166198
0.00171527
0.0160759
0.00164365
0.015554
0.00157669
0.0150528
0.00151409
0.014571
0.00145548
0.0141073
0.00140064
0.0136608
0.00134925
0.0132303
0.00130116
0.0128149
0.00125606
0.0124137
0.00121388
0.0120257
0.00117431
0.0116501
0.00113737
0.0112863
0.0011027
0.0109333
0.00107044
0.0105906
0.00104017
0.0102574
0.00101213
0.00993318
0.000985832
0.00961721
0.000961627
0.00930897
0.000938959
0.00900785
0.000918278
0.00871335
0.00089894
0.00842488
0.000881513
0.00814202
0.000865258
0.0078642
0.000850848
0.00759103
0.000837456
0.00732197
0.000825844
0.00705667
0.000815107
0.00679462
0.00080608
0.0065355
0.0007978
0.00627884
0.000791131
0.00602436
0.000785102
0.00577163
0.000780532
0.00552038
0.000776536
0.00527027
0.000773755
0.00502103
0.000771525
0.00477245
0.000770129
0.00452424
0.000769334
0.00427636
0.00076881
0.00402848
0.000769101
0.00378077
0.000768843
0.00353283
0.000769834
0.00328513
0.000769132
0.00303711
0.000770428
0.00278969
0.000768384
0.00254196
0.000769727
0.00229548
0.000765418
0.00204877
0.000766754
0.00180429
0.000759182
0.00155959
0.000760896
0.00131838
0.000749116
0.0010767
0.00075213
0.000840075
0.000735646
0.000602347
0.000741094
0.000371483
0.000719279
0.00013789
0.00073209
-8.82129e-05
0.000706073
-0.000319326
0.000731416
-0.000536873
0.000682622
-0.000765806
0.000728714
-0.000972524
0.000646315
-0.00121789
0.000781937
-0.00145455
0.000755579
-0.00176269
0.00100895
-0.00205967
0.000979042
-0.00257293
0.00181696
-0.00271709
0.000584288
-0.00277758
-0.000105472
-0.00404586
0.00462399
-0.00456398
0.00273353
-0.0022018
-0.00876986
-0.00190184
-0.00287447
-0.00696416
0.0182301
-0.0113188
0.0188035
-0.00836117
-0.0077658
-0.00150097
-0.0241403
0.00431792
-0.0214246
0.00802424
-0.0137395
0.00953776
-0.0057908
0.00927216
0.000899707
0.00914185
0.00118079
-0.00554108
0.0605643
0.0113664
-0.0600009
0.0612491
0.0119682
0.0619642
0.0124888
0.0625869
0.012854
0.0630197
0.0130418
0.0631987
0.0130621
0.0630884
0.012936
0.0626782
0.0126883
0.0619785
0.0123446
0.0610138
0.0119287
0.0598185
0.0114606
0.0584322
0.0109578
0.0568961
0.010435
0.0552501
0.00990439
0.0535312
0.00937578
0.0517716
0.00885707
0.0499986
0.00835431
0.0482344
0.00787189
0.046496
0.00741278
0.0447964
0.00697873
0.0431448
0.00657052
0.0415472
0.00618814
0.0400075
0.00583102
0.0385275
0.00549822
0.0371078
0.00518853
0.035748
0.0049006
0.0344469
0.00463303
0.0332028
0.00438439
0.0320136
0.00415333
0.0308771
0.0039385
0.029791
0.00373867
0.0287529
0.00355267
0.0277604
0.00337942
0.0268111
0.00321792
0.0259029
0.00306727
0.0250334
0.00292662
0.0242006
0.00279522
0.0234024
0.00267235
0.022637
0.0025574
0.0219025
0.00244977
0.0211972
0.00234896
0.0205194
0.00225445
0.0198676
0.00216585
0.0192404
0.00208271
0.0186363
0.00200475
0.018054
0.00193153
0.0174923
0.00186287
0.01695
0.00179838
0.0164259
0.00173795
0.0159191
0.00168118
0.0154283
0.00162808
0.0149529
0.0015782
0.0144916
0.00153168
0.0140438
0.001488
0.0136085
0.00144744
0.0131849
0.00140939
0.0127723
0.00137427
0.0123698
0.00134138
0.0119769
0.00131127
0.0115927
0.00128313
0.0112165
0.00125765
0.0108479
0.00123392
0.010486
0.00121275
0.0101303
0.00119312
0.00978018
0.00117595
0.00943514
0.00116015
0.00909454
0.00114669
0.00875792
0.00113442
0.0084247
0.00112435
0.00809446
0.00111534
0.00776668
0.00110831
0.00744096
0.00110225
0.00711689
0.00109783
0.00679407
0.00109434
0.00647222
0.00109197
0.00615096
0.00109059
0.00583021
0.00108956
0.00550953
0.00108978
0.00518912
0.00108925
0.00486845
0.00109051
0.00454811
0.00108947
0.00422737
0.00109118
0.00390738
0.00108837
0.003587
0.00109011
0.00326821
0.00108421
0.00294913
0.00108584
0.00263288
0.00107543
0.0023164
0.00107738
0.00200442
0.00106109
0.00169197
0.00106458
0.00138611
0.00104151
0.00107908
0.00104812
0.000781109
0.00101726
0.000479841
0.00103336
0.000189367
0.000996548
-0.000106374
0.00102716
-0.000386074
0.000962324
-0.000678102
0.00102074
-0.00094331
0.000911524
-0.00125473
0.00109336
-0.00155299
0.00105384
-0.00193593
0.00139189
-0.0023005
0.00134361
-0.00290696
0.00242342
-0.0030732
0.000750523
-0.00319261
1.36327e-05
-0.00463817
0.00606955
-0.00511759
0.00321293
-0.00244451
-0.0114429
-0.00235419
-0.00296478
-0.00813457
0.0240105
-0.0125918
0.0232607
-0.00862495
-0.0117326
-0.000509243
-0.032256
0.00623078
-0.0281646
0.0105165
-0.0180252
0.0122554
-0.00752974
0.0119636
0.0011915
0.0119505
0.00119385
-0.00784845
0.0648496
0.0108817
-0.0643649
0.0654154
0.0114025
0.0660235
0.0118807
0.0666088
0.0122686
0.0671088
0.0125419
0.0674749
0.012696
0.0676717
0.0127392
0.0676754
0.0126846
0.0674729
0.0125472
0.06706
0.0123416
0.0664403
0.0120803
0.0656244
0.0117737
0.064628
0.0114314
0.0634711
0.0110614
0.0621761
0.0106707
0.0607672
0.010266
0.0592686
0.00985291
0.0577037
0.0094368
0.0560942
0.00902231
0.0544594
0.00861348
0.0528163
0.00821366
0.0511789
0.00782552
0.0495588
0.0074511
0.0479652
0.00709182
0.0464052
0.00674861
0.0448838
0.00642192
0.043405
0.00611188
0.0419711
0.00581832
0.0405835
0.00554089
0.0392429
0.00527906
0.0379494
0.00503222
0.0367024
0.00479967
0.0355011
0.00458073
0.0343444
0.00437464
0.0332309
0.00418071
0.0321593
0.00399822
0.031128
0.00382651
0.0301355
0.00366492
0.02918
0.00351285
0.0282601
0.0033697
0.0273741
0.00323497
0.0265204
0.00310811
0.0256976
0.0029887
0.0249041
0.00287623
0.0241384
0.00277039
0.0233993
0.00267068
0.0226852
0.00257692
0.021995
0.0024886
0.0213273
0.00240564
0.020681
0.00232751
0.0200548
0.00225427
0.0194477
0.00218533
0.0188585
0.00212088
0.0182862
0.00206028
0.0177297
0.00200386
0.0171883
0.00195089
0.0166607
0.00190185
0.0161462
0.00185589
0.0156438
0.00181367
0.0151527
0.00177421
0.014672
0.00173833
0.014201
0.00170492
0.0137388
0.00167496
0.0132847
0.00164722
0.0128379
0.00162278
0.0123977
0.00160033
0.0119634
0.00158102
0.0115343
0.00156348
0.0111097
0.0015489
0.0106892
0.00153591
0.0102719
0.00152557
0.00985743
0.00151672
0.00944519
0.00151006
0.0090347
0.00150484
0.00862556
0.00150111
0.00821727
0.00149888
0.00780971
0.00149712
0.0074023
0.00149719
0.00699528
0.00149627
0.00658794
0.00149785
0.00618102
0.00149638
0.00577357
0.00149863
0.00536705
0.00149489
0.00495998
0.00149717
0.00455487
0.00148933
0.00414937
0.00149134
0.00374739
0.00147741
0.00334515
0.00147962
0.00294861
0.00145764
0.00255159
0.00146159
0.00216303
0.00143008
0.00177326
0.00143789
0.00139525
0.00139526
0.00101356
0.00141505
0.000646615
0.00136349
0.000273147
0.00140063
-7.94816e-05
0.00131495
-0.000444763
0.00138602
-0.000778947
0.00124571
-0.00116639
0.0014808
-0.00153446
0.00142192
-0.00200007
0.00185749
-0.00243648
0.00178003
-0.00313739
0.00312433
-0.00332702
0.00094014
-0.00351217
0.000199094
-0.00510611
0.00766349
-0.00552613
0.00363293
-0.00258902
-0.0143801
-0.0027338
-0.00281996
-0.00909123
0.0303679
-0.0134069
0.0275763
-0.00831238
-0.0168272
0.00105519
-0.0416235
0.00870279
-0.0358121
0.0135541
-0.0228765
0.015524
-0.00949967
0.015228
0.00148757
0.0153799
0.0010419
-0.0107273
0.0694228
0.0104539
-0.0689951
0.0699066
0.0109187
0.0704275
0.0113598
0.0709499
0.0117463
0.071434
0.0120578
0.071846
0.012284
0.07216
0.0124251
0.0723566
0.0124879
0.0724218
0.0124821
0.0723455
0.0124179
0.0721208
0.0123049
0.0717441
0.0121504
0.0712147
0.0119608
0.0705349
0.0117412
0.0697102
0.0114955
0.068749
0.0112272
0.0676624
0.0109395
0.0664639
0.0106354
0.0651682
0.010318
0.0637912
0.00999047
0.0623489
0.009656
0.0608568
0.00931763
0.0593296
0.00897829
0.0577808
0.00864064
0.0562223
0.00830707
0.0546647
0.00797958
0.0531167
0.00765987
0.0515858
0.00734924
0.0500779
0.00704872
0.048598
0.00675901
0.0471496
0.00648059
0.0457356
0.0062137
0.0443579
0.00595843
0.0430178
0.00571473
0.0417161
0.00548242
0.040453
0.00526127
0.0392286
0.00505096
0.0380424
0.00485115
0.0368937
0.00466146
0.035782
0.00448148
0.0347061
0.00431086
0.033665
0.00414913
0.0326578
0.00399599
0.031683
0.00385094
0.0307397
0.00371376
0.0298264
0.00358392
0.0289421
0.00346129
0.0280853
0.00334532
0.027255
0.00323597
0.0264499
0.00313266
0.0256687
0.00303547
0.0249103
0.00294374
0.0241734
0.00285771
0.0234571
0.00277664
0.02276
0.00270093
0.0220812
0.0026297
0.0214195
0.00256356
0.0207739
0.00250147
0.0201433
0.00244426
0.0195268
0.00239072
0.0189232
0.00234186
0.0183318
0.00229634
0.0177515
0.00225533
0.0171813
0.00221735
0.0166204
0.0021837
0.0160679
0.0021528
0.0155229
0.00212603
0.0149846
0.00210176
0.0144522
0.00208136
0.0139248
0.00206325
0.0134018
0.00204862
0.0128824
0.00203614
0.0123659
0.00202654
0.0118517
0.00201904
0.0113393
0.0020135
0.010828
0.00201014
0.0103177
0.00200743
0.00980764
0.00200728
0.00929803
0.00200587
0.00878801
0.00200788
0.00827846
0.00200593
0.00776817
0.00200892
0.00725894
0.00200412
0.00674895
0.00200716
0.00624127
0.00199702
0.00573302
0.00199959
0.00522907
0.00198136
0.00472475
0.00198394
0.00422752
0.00195487
0.00372979
0.00195932
0.00324275
0.00191712
0.00275448
0.00192616
0.00228131
0.00186844
0.00180414
0.00189222
0.0013465
0.00182114
0.000881065
0.00186606
0.000444201
0.00175182
-5.64618e-06
0.00183587
-0.000423399
0.00166346
-0.000897462
0.00195487
-0.00134414
0.00186859
-0.00190009
0.00241344
-0.00241151
0.00229145
-0.00320718
0.00392
-0.00342036
0.00115331
-0.00367291
0.000451542
-0.00537913
0.00936971
-0.00572505
0.00397884
-0.00257185
-0.0175333
-0.00294683
-0.00244494
-0.00969444
0.0371155
-0.0135991
0.0314809
-0.00728308
-0.0231432
0.0033141
-0.0522207
0.0118566
-0.0443546
0.0172547
-0.0282747
0.0194654
-0.0117104
0.0191935
0.00175947
0.0195596
0.000675841
-0.0142374
0.0743034
0.0100708
-0.0739203
0.074728
0.0104941
0.075183
0.0109048
0.0756476
0.0112817
0.076096
0.0116094
0.0765036
0.0118764
0.0768507
0.0120781
0.0771225
0.0122161
0.0773088
0.0122958
0.0774022
0.0123245
0.077397
0.0123101
0.077288
0.0122594
0.0770711
0.0121778
0.0767422
0.01207
0.0762983
0.0119393
0.0757376
0.0117879
0.0750598
0.0116173
0.0742666
0.0114285
0.0733619
0.0112226
0.0723518
0.0110006
0.071244
0.0107637
0.0700482
0.0105135
0.0687748
0.0102517
0.0674352
0.00998023
0.066041
0.00970129
0.0646036
0.00941701
0.0631339
0.00912951
0.0616423
0.00884085
0.0601381
0.0085529
0.0586298
0.00826735
0.0571247
0.00798571
0.0556292
0.00770921
0.0541487
0.00743892
0.0526877
0.00717566
0.05125
0.00692012
0.0498385
0.00667277
0.0484555
0.00643398
0.0471027
0.00620394
0.0457814
0.0059828
0.0444923
0.00577056
0.0432359
0.00556723
0.0420124
0.00537264
0.0408217
0.00518675
0.0396633
0.00500928
0.0385369
0.00484018
0.0374418
0.00467905
0.0363772
0.00452591
0.0353422
0.00438026
0.034336
0.00424218
0.0333576
0.00411109
0.0324059
0.00398719
0.0314798
0.00386978
0.0305783
0.00375921
0.0297003
0.00365463
0.0288447
0.0035566
0.0280103
0.0034641
0.0271959
0.0033779
0.0264006
0.00329679
0.0256231
0.00322177
0.0248624
0.00315143
0.0241173
0.003087
0.0233867
0.00302688
0.0226696
0.00297248
0.0219649
0.00292206
0.0212714
0.00287716
0.0205883
0.00283593
0.0199143
0.00279998
0.0192487
0.00276741
0.0185902
0.00273981
0.0179381
0.00271534
0.0172914
0.00269537
0.0166491
0.00267837
0.0160106
0.0026651
0.0153749
0.00265475
0.0147414
0.00264698
0.0141093
0.00264223
0.0134784
0.00263835
0.0128476
0.00263801
0.0122174
0.00263608
0.0115866
0.00263873
0.0109562
0.00263634
0.0103247
0.00264041
0.0096943
0.0026345
0.00906277
0.00263869
0.00843387
0.00262592
0.00780405
0.00262941
0.00717936
0.00260606
0.00655407
0.00260923
0.00593744
0.0025715
0.00532022
0.00257654
0.00471634
0.00252101
0.00411117
0.00253132
0.00352517
0.00245444
0.00293493
0.00248246
0.00237009
0.00238597
0.00179654
0.00243961
0.00126004
0.00228832
0.000704706
0.00239121
0.000196442
0.00217173
-0.000375153
0.00252646
-0.00091038
0.00240382
-0.00156383
0.00306689
-0.0021522
0.00287982
-0.00304197
0.00480977
-0.00327607
0.0013874
-0.00359237
0.000767884
-0.00536871
0.011146
-0.00562961
0.00423972
-0.00230176
-0.0208611
-0.00286932
-0.00187738