/*--------------------------------*- C++ -*----------------------------------*\
| =========                 |                                                 |
| \\      /  F ield         | OpenFOAM: The Open Source CFD Toolbox           |
|  \\    /   O peration     | Version:  2412                                  |
|   \\  /    A nd           | Website:  www.openfoam.com                      |
|    \\/     M anipulation  |                                                 |
\*---------------------------------------------------------------------------*/
FoamFile
{
    version     2.0;
    format      ascii;
    arch        "LSB;label=32;scalar=64";
    class       volVectorField;
    location    "0.925";
    object      ddtCorrDdt0(U);
}
// * * * * * * * * * * * * * * * * * * * * * * * * * * * * * * * * * * * * * //

dimensions      [0 1 -2 0 0 0 0];

internalField   nonuniform List<vector> 
12600
(
(-4.52931 0 0.866664)
(-7.87771 1.98528e-18 0.245861)
(-9.0226 5.71363e-18 -1.56601)
(-1.18556 0 -0.578258)
(15.6053 -1.65518e-18 4.96137)
(20.7485 0 7.91504)
(-8.40618 2.01758e-17 -2.18223)
(-52.3847 0 -18.3717)
(-45.7434 0 -12.4321)
(41.2064 0 25.8842)
(108.225 0 43.0439)
(37.7456 1.67492e-16 2.17499)
(-123.064 1.10078e-16 -60.8206)
(-165.729 0 -57.4963)
(22.628 5.72473e-16 36.0382)
(247.888 0 113.502)
(190.693 2.5809e-17 50.5378)
(-163.903 0 -112.753)
(-414.492 2.45496e-16 -173.43)
(-189.826 0 -2.70722)
(360.438 0 256.585)
(666.57 0 292.463)
(197.047 -4.81054e-15 -110)
(-579.087 2.78901e-15 -476.843)
(-661.855 2.35164e-16 -322.851)
(1.92916 1.69869e-15 93.522)
(386.829 0 251.069)
(142.381 0 76.4417)
(-102.44 0 -62.4933)
(-80.9529 -3.83462e-16 -35.6532)
(51.629 -7.14159e-16 29.3877)
(65.5232 0 27.1921)
(-11.9076 0 -11.1481)
(-46.3289 3.73607e-17 -22.2896)
(-9.89671 -1.82215e-16 -2.63409)
(26.7636 0 12.3269)
(19.4904 0 6.62886)
(-6.94065 1.76669e-16 -5.54446)
(-13.925 0 -6.83256)
(-1.36178 -3.85674e-19 -0.557957)
(7.84179 -3.08755e-17 2.64907)
(4.56232 4.32985e-17 0.948244)
(-2.0844 0 -1.22774)
(-3.19919 -5.83782e-18 -1.20797)
(-0.131284 -2.20559e-17 -0.106923)
(1.6453 7.28819e-18 0.359973)
(0.629004 1.93013e-17 0.0685786)
(-0.783183 0 -0.209343)
(-0.825409 1.29373e-17 -0.132627)
(-0.125789 -1.2855e-17 0.0518338)
(0.129646 0 0.090179)
(-0.106746 -1.5982e-20 0.0197272)
(-0.172449 6.46127e-18 -0.00691766)
(0.145215 0 0.0517386)
(0.404399 4.27845e-19 0.0666601)
(0.294276 0 -0.063214)
(0.0916069 0 -0.225036)
(0.274451 -9.17565e-20 -0.199644)
(0.727702 6.71901e-20 -0.207403)
(1.09977 -1.39849e-17 -0.236953)
(1.09078 2.36747e-17 -0.300331)
(0.798905 -2.002e-17 -0.390847)
(0.591156 0 -0.443299)
(0.652733 5.40987e-17 -0.37843)
(0.683284 2.87679e-17 -0.174362)
(0.225731 1.82635e-17 0.103017)
(-0.754523 -9.55365e-18 0.426889)
(-1.69493 0 0.827982)
(-2.15561 0 1.29599)
(-2.26941 0 1.68424)
(-2.58919 0 1.85027)
(-3.11001 0 1.65545)
(-3.23095 3.1735e-17 1.16041)
(-2.67576 1.93078e-16 0.533334)
(0.111489 0 1.74941)
(0.633321 0 0.51933)
(-0.0141959 -2.18033e-16 0.00164186)
(-0.322682 7.91884e-19 -0.423674)
(0.464312 3.50626e-16 -0.851961)
(2.43547 0 -1.39859)
(4.03959 0 -1.77572)
(3.93885 0 -1.74729)
(2.75602 5.36191e-18 -1.82739)
(2.12881 0 -1.47067)
(2.61086 0 -1.45385)
(2.52857 -4.70241e-18 -1.25177)
(1.7985 -8.2273e-19 -1.01096)
(0.807337 0 -0.584673)
(1.52501 0 -0.70559)
(2.8661 4.31173e-18 -1.0912)
(8.35251 1.01406e-16 -4.22922)
(7.12254 3.2545e-16 -4.02967)
(3.12596 1.86078e-16 -2.19464)
(-5.69319 4.59382e-18 3.21687)
(33.1638 -5.36621e-17 -17.7481)
(-27.4083 -5.2848e-16 16.7126)
(-14.6872 0 7.84053)
(12.9751 0 -7.62233)
(-5.41663 0 2.58761)
(1.14528 2.30801e-15 -0.718822)
(-0.225121 2.45923e-16 0.822315)
(-1.4765 -6.65256e-16 0.698427)
(-0.364043 -1.73391e-16 -0.0436973)
(-4.1747 0 1.89815)
(-3.64973 0 1.80713)
(2.14263 0 -1.44001)
(9.48527 -2.53029e-16 -5.54573)
(13.0602 0 -7.4055)
(11.6922 5.54924e-17 -6.32056)
(5.97042 0 -3.25803)
(-1.64141 0 1.076)
(-7.43068 -1.74455e-16 4.21484)
(-10.9665 0 6.24685)
(-12.1939 0 7.00207)
(-12.8178 0 7.47199)
(-10.3158 -3.42656e-16 5.70046)
(-3.52262 0 1.97354)
(-1.43262 1.74637e-17 0.88167)
(-1.31078 0 0.783807)
(1.56143 -5.66197e-19 -0.825851)
(-5.13172 8.77373e-19 1.61487)
(-10.5872 -1.35642e-18 0.448655)
(-11.9828 1.31881e-18 -2.40621)
(1.03731 0 0.0169856)
(20.7608 -6.73913e-19 8.15999)
(16.6265 -1.96806e-17 9.97767)
(-26.5187 -2.10511e-17 -6.27745)
(-63.6836 -1.63072e-17 -25.0196)
(-23.8136 0 -9.36016)
(76.2771 0 41.2955)
(104.588 0 54.9441)
(-15.9271 0 -9.74318)
(-168.323 0 -90.153)
(-133.919 0 -65.802)
(111.3 -6.02477e-17 73.8034)
(283.037 0 161.741)
(101.054 -4.26175e-16 37.1662)
(-296.551 0 -200.841)
(-418.594 -6.64476e-16 -236.446)
(1.68559 1.37543e-15 89.9602)
(598.442 0 503.098)
(658.549 -1.50353e-15 460.968)
(-210.905 2.40302e-15 -429.681)
(-977.567 -1.20406e-15 -1055.16)
(-648.855 -9.97232e-16 -562.107)
(264.708 0 278.242)
(438.053 1.04796e-18 340.955)
(86.0287 0 118.512)
(-161.64 0 -115.918)
(-72.1698 0 -55.9331)
(78.3226 3.45816e-16 49.5282)
(65.2562 0 39.3132)
(-26.9845 0 -20.7253)
(-50.522 0 -33.1254)
(-1.61699 0 -1.22184)
(33.5914 0 18.9995)
(18.3451 0 8.03581)
(-10.509 -1.81787e-16 -9.4817)
(-13.9167 0 -10.0486)
(1.42068 1.94381e-16 -0.513746)
(10.0422 5.43195e-17 3.68299)
(5.16216 -4.88524e-17 0.648207)
(-1.89673 0 -2.60722)
(-2.3842 0 -2.30289)
(1.17645 4.4292e-17 -0.488348)
(2.85878 -7.44235e-18 0.141134)
(1.54955 -2.03041e-17 -0.43366)
(0.0499506 0 -0.880375)
(0.107778 -1.30985e-17 -0.700714)
(0.883044 0 -0.383026)
(1.10985 0 -0.353897)
(0.823179 -9.72891e-19 -0.506222)
(0.76092 0 -0.564591)
(1.10768 0 -0.493077)
(1.37701 -4.32362e-19 -0.480452)
(1.27961 0 -0.632052)
(1.12852 0 -0.831403)
(1.40781 -2.04873e-19 -0.83389)
(1.98039 5.5603e-18 -0.868348)
(2.47747 -3.09525e-19 -0.941846)
(2.54093 0 -1.07402)
(2.2281 1.96753e-17 -1.22075)
(1.85385 -3.19474e-17 -1.22891)
(1.55707 0 -0.939155)
(0.93436 -5.68114e-17 -0.289855)
(-0.5366 5.41689e-19 0.619629)
(-2.9102 0 1.74299)
(-5.43105 2.43323e-17 3.04044)
(-7.40177 0 4.39754)
(-8.51786 0 5.38639)
(-9.11093 0 5.68248)
(-8.95021 0 4.99254)
(-7.57949 -5.78988e-17 3.56582)
(-4.99723 -1.98828e-16 2.0058)
(0.646558 0 4.25421)
(0.998354 0 0.628393)
(0.961157 -2.14274e-16 -0.535771)
(1.70358 1.50656e-18 -1.67849)
(4.30993 1.21176e-18 -3.14709)
(8.90068 0 -5.0965)
(12.47 0 -6.48124)
(12.2198 0 -6.34016)
(9.59828 7.46113e-18 -5.71027)
(7.13301 -3.34158e-16 -4.4195)
(7.17025 3.68418e-16 -4.1625)
(6.12817 4.54268e-18 -3.37154)
(4.36031 -1.50238e-18 -2.52239)
(1.9811 2.86672e-16 -1.25805)
(3.61107 0 -2.01083)
(6.42998 -4.14421e-18 -3.41084)
(24.8235 0 -13.8933)
(24.3316 -3.12048e-16 -13.7753)
(14.2179 0 -8.05197)
(-23.6345 -1.81757e-15 12.2845)
(103.148 -4.86185e-16 -55.5369)
(-88.195 0 53.4484)
(-44.3347 0 23.5491)
(37.4515 1.95815e-16 -22.5628)
(-16.5883 4.11688e-17 9.34845)
(5.77352 -2.1917e-15 -3.36335)
(-3.667 -2.33562e-16 2.98271)
(-3.70223 6.31252e-16 1.90762)
(0.0864814 0 -0.242723)
(-10.8113 1.57762e-16 5.86691)
(-8.98351 0 4.96216)
(9.69154 0 -6.03574)
(31.8823 2.43483e-16 -18.7721)
(39.5832 0 -23.0021)
(32.214 -1.96085e-19 -18.3619)
(13.9747 -1.47206e-16 -7.77843)
(-8.48989 0 5.27384)
(-23.7288 0 13.9071)
(-32.8025 0 19.1519)
(-36.0278 -4.60096e-17 21.066)
(-38.1009 -1.29669e-16 22.3331)
(-31.3106 3.22127e-16 17.6255)
(-12.2713 0 6.72719)
(-4.26704 -1.6403e-17 2.5126)
(-4.26777 0 2.42533)
(3.57057 -1.23085e-15 -2.14535)
(-5.10187 -2.11069e-18 1.75675)
(-11.6414 -5.58456e-19 0.184093)
(-11.1908 -1.45174e-17 -1.3252)
(3.86026 0 1.42425)
(19.1623 4.41503e-18 5.06509)
(6.85893 -4.15638e-19 1.70741)
(-33.095 0 -8.13168)
(-50.7883 1.54806e-17 -8.92454)
(-1.43016 0 9.54333)
(71.7537 8.56996e-18 26.1155)
(66.0906 0 12.2451)
(-46.6302 0 -28.104)
(-140.491 0 -43.7564)
(-63.7952 0 5.19822)
(134.59 -2.12601e-16 72.7038)
(201.879 0 57.2814)
(-10.1711 0 -61.8608)
(-284.789 0 -146.14)
(-234.904 3.8815e-16 -30.9383)
(196.567 -3.62852e-16 238.974)
(545.629 0 364.993)
(231.47 5.51182e-17 38.7656)
(-573.492 0 -646.724)
(-829.563 -7.53552e-16 -835.386)
(-224.748 0 -213.702)
(499.52 0 521.063)
(303.837 -8.56579e-19 176.504)
(0.341527 0 34.7616)
(-175.952 0 -112.379)
(-40.2179 -5.70055e-16 -31.5546)
(80.47 0 39.7187)
(47.0454 0 19.2326)
(-31.415 0 -19.7963)
(-39.6904 0 -18.6054)
(5.61961 1.7562e-16 4.68499)
(30.2081 0 12.5201)
(12.9323 0 1.41284)
(-10.0378 1.36161e-16 -8.06878)
(-10.1793 0 -5.84786)
(3.37951 -1.79734e-16 0.374312)
(9.71689 -6.0332e-18 1.7952)
(4.7246 4.62522e-17 -1.01689)
(-1.24808 0 -2.98853)
(-1.15027 0 -2.27513)
(2.209 -2.05796e-17 -0.889805)
(3.56975 0 -0.678073)
(2.24867 1.9207e-17 -1.30142)
(0.928978 0 -1.63155)
(1.10689 5.26297e-19 -1.41578)
(1.88654 0 -1.1714)
(2.09658 0 -1.22654)
(1.83967 0 -1.41485)
(1.82573 -5.86196e-18 -1.48873)
(2.18616 0 -1.47269)
(2.47647 0 -1.49576)
(2.49062 0 -1.5414)
(2.4721 0 -1.63105)
(2.80196 2.43209e-17 -1.71913)
(3.47712 0 -1.78988)
(4.08125 -1.91864e-19 -1.89072)
(4.21745 0 -2.02661)
(3.91183 -9.16454e-18 -2.10318)
(3.4034 3.01218e-17 -1.92792)
(2.74858 0 -1.33756)
(1.45345 5.18773e-17 -0.244081)
(-1.00551 -9.11827e-18 1.28784)
(-4.66576 0 3.21411)
(-8.62581 -2.29151e-17 5.33017)
(-11.9738 0 7.35294)
(-13.997 0 8.62861)
(-14.7823 0 8.78236)
(-13.8666 0 7.50822)
(-10.9098 2.70214e-18 5.28009)
(-6.15622 1.86982e-16 3.1145)
(1.28416 0 4.8372)
(1.86967 0 -0.296901)
(2.56425 -2.30913e-19 -1.73768)
(4.33245 1.15726e-16 -3.40436)
(8.6816 -1.62215e-16 -5.91807)
(15.6491 0 -9.26181)
(20.8032 0 -11.5213)
(20.1302 0 -11.0416)
(15.9821 -9.62675e-17 -9.14038)
(11.29 -9.72703e-19 -6.64266)
(10.5157 -3.45605e-16 -5.88025)
(8.42259 0 -4.38696)
(5.67231 3.73962e-16 -2.92157)
(2.13543 -2.68754e-16 -1.04048)
(4.78905 0 -2.71094)
(9.09797 0 -5.4818)
(40.7352 -9.16214e-17 -23.5043)
(42.6689 0 -24.1466)
(29.0968 -1.5925e-16 -15.3522)
(-47.4307 6.80125e-19 24.1394)
(168.45 2.29706e-16 -93.1572)
(-139.84 4.98561e-16 85.8993)
(-70.5955 0 34.7362)
(56.9603 -1.8325e-16 -33.9265)
(-27.1962 -3.85219e-17 16.5879)
(11.2958 2.04431e-15 -7.14097)
(-9.28024 0 6.31655)
(-5.78081 5.89492e-16 2.70029)
(0.227606 0 -0.331406)
(-16.3265 -1.47519e-16 9.11113)
(-12.4 1.91034e-16 6.13478)
(19.5297 0 -12.8913)
(55.0081 -2.27594e-16 -32.684)
(63.1609 0 -36.269)
(47.3981 -9.68446e-17 -26.016)
(16.9381 1.37559e-16 -8.31049)
(-18.0752 0 11.3707)
(-39.2311 0 23.4607)
(-51.9417 0 30.2479)
(-56.2945 -2.63504e-19 32.531)
(-59.9143 1.21122e-16 34.3483)
(-48.9352 -3.0147e-16 27.2811)
(-20.4615 0 11.0935)
(-6.8861 -1.56248e-17 3.69896)
(-6.85334 0 3.78464)
(4.65934 8.58316e-19 -2.81653)
(-5.72317 1.21126e-18 0.994396)
(-12.3178 -9.81311e-20 -0.423967)
(-9.7463 7.21845e-18 -0.725842)
(6.03186 -6.88229e-18 1.85498)
(17.4972 6.68284e-18 3.19002)
(1.36807 3.51501e-17 -1.25444)
(-33.88 0 -7.01977)
(-41.1846 0 -2.60082)
(7.41108 0 12.1619)
(62.9898 -8.11597e-18 16.755)
(42.6233 0 -3.3411)
(-55.1295 0 -28.8028)
(-111.699 0 -18.2766)
(-24.915 0 31.9749)
(124.396 0 57.6276)
(131.012 1.6334e-16 -2.4917)
(-59.8867 -2.75411e-16 -97.7825)
(-216.568 0 -82.9932)
(-80.9209 0 97.241)
(247.173 -8.92465e-16 267.703)
(317.31 -3.3584e-16 140.373)
(-130.078 1.29879e-15 -316.669)
(-570.276 -9.86951e-17 -562.554)
(-400.295 7.13767e-16 -286.255)
(221.042 -8.84646e-16 237.118)
(550.507 -1.56298e-16 572.209)
(229.926 0 223.298)
(-99.7376 4.59283e-16 -68.0523)
(-182.428 0 -121.341)
(-9.15446 5.39543e-16 -13.941)
(85.5555 0 39.6679)
(35.3686 0 11.0861)
(-35.372 0 -20.9328)
(-33.5264 -7.8184e-17 -13.7507)
(10.6395 -1.66129e-16 7.47003)
(29.0667 0 10.9007)
(9.94785 0 -1.09631)
(-10.301 -1.28755e-16 -8.59586)
(-8.21964 0 -5.07077)
(4.92287 4.95723e-18 0.656819)
(9.97412 -1.45496e-17 1.1181)
(4.67831 0 -1.9521)
(-0.702547 0 -3.59007)
(-0.123788 0 -2.60507)
(3.20159 0 -1.28106)
(4.3566 4.15868e-19 -1.26537)
(3.01636 0 -1.98126)
(1.84508 -4.59254e-18 -2.28344)
(2.14822 1.1197e-17 -2.03509)
(2.95987 0 -1.81946)
(3.17609 0 -1.93184)
(2.96329 0 -2.15468)
(3.01746 5.5305e-18 -2.23567)
(3.43338 -4.58094e-18 -2.22499)
(3.75598 2.48743e-18 -2.29206)
(3.80607 0 -2.4023)
(3.84911 -2.959e-18 -2.54964)
(4.28171 -2.32516e-17 -2.67338)
(5.07631 0 -2.77897)
(5.7862 2.59832e-17 -2.92129)
(5.9887 0 -3.07159)
(5.68026 8.11789e-18 -3.08722)
(5.03379 -2.88345e-17 -2.73293)
(4.0371 0 -1.83349)
(2.11938 -2.38655e-17 -0.281409)
(-1.24714 1.1703e-17 1.8569)
(-6.0744 0 4.51992)
(-11.3008 0 7.36489)
(-15.8151 0 9.94848)
(-18.5524 -3.24669e-17 11.4086)
(-19.3982 -1.03036e-16 11.338)
(-17.7197 0 9.4226)
(-13.2825 2.10127e-17 6.33697)
(-6.60876 -1.60887e-16 3.35205)
(1.83732 0 3.42043)
(3.53936 0 -1.5562)
(4.89597 1.89279e-16 -3.29051)
(7.55543 -1.36642e-18 -5.49742)
(13.5054 0 -8.98602)
(22.5945 0 -13.5313)
(29.0332 0 -16.3224)
(27.6985 0 -15.2363)
(21.6474 2.80497e-19 -12.1748)
(14.4616 2.94884e-16 -8.293)
(12.5275 0 -6.92335)
(9.36237 0 -4.73807)
(5.76223 0 -2.75631)
(1.32975 -2.49596e-16 -0.452905)
(5.18202 0 -2.98937)
(11.0166 7.30533e-19 -7.56538)
(55.7009 8.57992e-17 -33.151)
(61.4811 -2.71586e-16 -34.7376)
(47.3689 1.49084e-16 -23.3799)
(-78.0454 1.59305e-15 38.3689)
(227.569 -2.14973e-16 -127.444)
(-174.401 -4.6652e-16 112.015)
(-92.2482 0 42.1074)
(71.1701 0 -43.1312)
(-36.4875 -3.85109e-17 23.1512)
(17.4083 -9.53938e-16 -11.1726)
(-16.6194 2.22444e-16 10.8928)
(-7.85494 -1.68759e-18 3.54386)
(0.0769412 0 -0.113089)
(-20.4363 0 11.6827)
(-12.8376 -1.7856e-16 6.14407)
(32.0628 0 -21.5255)
(78.163 2.20631e-16 -46.8963)
(82.3966 0 -47.2345)
(55.9556 1.22677e-18 -29.8812)
(14.5329 0 -5.83755)
(-29.5661 9.40416e-17 18.7193)
(-53.2152 -1.41227e-16 32.148)
(-67.7769 -9.4388e-17 39.8322)
(-72.2049 -4.37499e-19 41.9853)
(-77.21 0 44.2947)
(-63.074 2.81536e-16 34.8073)
(-28.0016 2.0973e-16 14.6747)
(-9.00811 1.45899e-17 4.61855)
(-8.87757 0 4.73883)
(5.021 1.01507e-18 -3.26787)
(-6.61325 0 -0.0909204)
(-12.608 -2.20313e-19 -0.939682)
(-7.98465 0 -0.227797)
(8.04728 6.50238e-18 2.2384)
(16.3619 -1.02609e-17 2.25871)
(-1.58689 -1.61375e-17 -2.27349)
(-32.4569 0 -5.74175)
(-34.3108 0 -0.441306)
(9.82639 -2.59344e-17 9.71984)
(52.664 3.88895e-18 8.9017)
(28.7963 -4.28315e-17 -8.4082)
(-50.8947 -7.14927e-17 -20.9806)
(-85.8965 5.39317e-17 -1.89522)
(-9.46919 0 35.2731)
(96.0872 0 33.8841)
(80.314 -2.83879e-16 -31.4351)
(-60.5591 6.72068e-17 -87.9073)
(-134.598 0 -27.3646)
(0.928164 -1.86501e-16 131.589)
(188.339 -2.3774e-16 194.253)
(111.168 3.17515e-16 -9.756)
(-240.76 0 -338.906)
(-391.303 9.31788e-17 -348.243)
(-52.2048 7.27116e-16 47.0274)
(418.509 8.3608e-16 422.053)
(401.402 -4.05278e-16 352.865)
(85.6824 0 132.764)
(-235.045 -1.80598e-16 -197.813)
(-160.86 0 -113.28)
(26.4882 5.11607e-16 6.94602)
(88.7845 0 41.1858)
(24.4485 0 5.26503)
(-37.9615 0 -21.8167)
(-27.5493 7.38461e-17 -10.5019)
(14.7026 0 9.0373)
(27.6482 0 9.41895)
(7.46528 0 -2.96199)
(-10.0539 0 -8.92627)
(-6.13121 -4.42031e-17 -4.50576)
(6.40415 1.41838e-16 0.77909)
(10.2378 0 0.482997)
(4.75593 -3.90344e-17 -2.77513)
(-0.0172825 0 -4.13866)
(0.97851 0 -2.94554)
(4.21381 0 -1.69306)
(5.15495 2.32236e-18 -1.85325)
(3.81289 0 -2.64698)
(2.79677 4.33029e-18 -2.92297)
(3.21289 0 -2.65071)
(4.04124 0 -2.46752)
(4.25825 1.18781e-18 -2.63407)
(4.09138 0 -2.88766)
(4.21515 0 -2.97581)
(4.68553 6.00199e-19 -2.97309)
(5.04916 -2.34289e-18 -3.07199)
(5.14147 0 -3.25124)
(5.26036 -2.44609e-19 -3.45623)
(5.80098 2.21167e-17 -3.62395)
(6.70629 0 -3.78267)
(7.50877 -1.22809e-17 -3.98096)
(7.76631 0 -4.15123)
(7.45036 -7.63692e-18 -4.10298)
(6.67625 2.71212e-17 -3.56032)
(5.37088 0 -2.33996)
(2.89744 1.82694e-17 -0.326191)
(-1.27237 2.59992e-18 2.39406)
(-7.12198 0 5.72259)
(-13.4386 0 9.18052)
(-18.9316 0 12.1819)
(-22.2334 6.05373e-17 13.6872)
(-23.0597 1.64776e-18 13.2858)
(-20.6453 0 10.6771)
(-14.8278 -1.49722e-17 6.7284)
(-6.45652 2.90693e-16 2.86133)
(2.38444 0 0.283053)
(5.92113 0 -3.36526)
(7.89717 0 -5.30458)
(11.3178 -1.35524e-18 -7.99672)
(18.6465 0 -12.3661)
(29.5064 0 -17.8893)
(36.8651 0 -20.891)
(34.6433 0 -18.9476)
(26.5614 4.30488e-17 -14.5886)
(16.7342 2.76568e-16 -9.24853)
(13.4061 0 -7.17069)
(9.23993 0 -4.32979)
(5.00019 0 -1.97188)
(-0.104632 1.4829e-18 0.545241)
(4.88595 0 -2.96599)
(12.379 -6.84051e-19 -9.73095)
(69.6318 0 -42.6251)
(80.2473 2.54173e-16 -45.2217)
(67.122 0 -31.0819)
(-113.88 -7.43647e-16 54.3783)
(278.824 0 -154.093)
(-186.389 0 127.326)
(-109.02 0 45.1405)
(81.3894 0 -50.0431)
(-43.4806 3.60092e-17 28.528)
(23.3443 0 -15.1773)
(-25.07 -2.07951e-16 16.3995)
(-10.2511 -5.13639e-16 4.44263)
(-0.426267 0 0.393198)
(-23.0561 0 13.3912)
(-10.896 0 3.26717)
(47.0428 0 -32.0983)
(100.569 5.94402e-18 -60.7917)
(96.5849 0 -54.6852)
(57.9954 7.98509e-17 -29.2525)
(8.05963 0 -0.168529)
(-41.4998 -1.70991e-16 27.0519)
(-65.0158 1.31904e-16 39.622)
(-80.6147 8.81512e-17 47.4146)
(-84.0761 3.81267e-17 48.7811)
(-89.9891 0 51.2509)
(-74.1235 0 40.0644)
(-34.7078 -3.91564e-16 17.5109)
(-10.6503 1.55761e-17 5.1168)
(-10.2727 -5.95291e-16 5.2338)
(5.03103 4.98818e-16 -3.46316)
(-7.36095 0 -0.91965)
(-12.4277 1.82592e-18 -1.19578)
(-6.07048 0 0.304295)
(9.7726 0 2.65849)
(15.479 0 1.88213)
(-3.32932 0 -2.64038)
(-30.6434 0 -5.18576)
(-29.5456 1.75317e-17 -0.471499)
(10.0323 2.44712e-17 6.59737)
(44.4643 -9.28814e-18 4.27726)
(21.682 7.64933e-17 -8.44189)
(-42.9733 6.74783e-17 -13.1939)
(-67.5457 -5.09067e-17 5.75813)
(-7.55858 0 29.4458)
(66.7015 0 15.5367)
(50.8095 2.11866e-16 -38.8467)
(-39.4118 3.15105e-16 -64.7383)
(-68.1083 0 3.4493)
(25.0209 1.76041e-16 113.195)
(96.7733 2.244e-16 106.842)
(-18.6552 0 -72.0871)
(-217.084 5.70424e-17 -238.289)
(-177.887 0 -129.127)
(148.751 -2.77019e-16 185.408)
(394.058 1.37702e-16 350.944)
(207.402 -1.71472e-16 143.448)
(-120.082 0 -78.8012)
(-255.373 -2.3916e-16 -205.607)
(-92.9655 -5.54811e-16 -75.6764)
(65.0672 -8.97988e-16 35.1604)
(86.9806 5.1861e-17 41.1107)
(12.5604 0 -0.493939)
(-39.7751 1.09359e-16 -22.9588)
(-21.5112 0 -8.19628)
(18.0786 0 9.85332)
(25.8266 0 7.87623)
(5.20142 0 -4.50671)
(-9.44234 0 -9.08569)
(-3.94276 -4.3795e-18 -4.02552)
(7.76865 -6.39905e-17 0.770484)
(10.4096 0 -0.169951)
(4.86487 7.12412e-17 -3.53441)
(0.744 0 -4.63993)
(2.10884 0 -3.28917)
(5.20069 0 -2.12653)
(5.92285 -2.55711e-18 -2.44608)
(4.60222 0 -3.29872)
(3.75243 0 -3.54641)
(4.27087 0 -3.25838)
(5.10135 0 -3.11176)
(5.31489 -3.22167e-18 -3.32924)
(5.19657 0 -3.60959)
(5.39068 0 -3.70586)
(5.91157 3.49568e-18 -3.71879)
(6.3165 0 -3.8508)
(6.46121 0 -4.08901)
(6.66542 5.95381e-18 -4.34742)
(7.31258 -1.04417e-17 -4.56495)
(8.31934 0 -4.78071)
(9.20227 0 -5.0328)
(9.5051 0 -5.21531)
(9.17929 6.48705e-18 -5.09428)
(8.29182 0 -4.35721)
(6.71656 0 -2.81765)
(3.76308 -3.13174e-17 -0.358922)
(-1.09335 -2.87242e-17 2.90092)
(-7.80671 0 6.81579)
(-15.0308 0 10.7729)
(-21.3249 0 14.0589)
(-25.0655 -2.81936e-17 15.4869)
(-25.8217 8.9266e-17 14.6744)
(-22.7185 1.6561e-16 11.3514)
(-15.626 1.40456e-17 6.56707)
(-5.77972 -1.31006e-16 1.77294)
(3.86465 1.81219e-17 -2.76325)
(9.05877 0 -5.60763)
(11.5791 0 -7.75622)
(15.6083 -4.47209e-17 -10.8809)
(24.0251 0 -15.9976)
(36.2146 0 -22.2228)
(44.0813 0 -25.0937)
(40.758 0 -22.0549)
(30.5922 0 -16.3399)
(18.1164 -5.17523e-16 -9.56552)
(13.244 0 -6.74236)
(8.20632 1.33698e-17 -3.35595)
(3.59902 0 -0.789089)
(-1.98146 1.74683e-18 1.79688)
(4.00516 8.47733e-17 -2.68854)
(13.3052 0 -12.1288)
(82.5347 0 -52.0551)
(98.5221 0 -55.8398)
(85.4019 0 -35.9003)
(-151.282 6.85553e-16 70.2817)
(316.889 0 -175.822)
(-170.895 0 128.796)
(-120.444 0 44.7632)
(88.6619 0 -55.7169)
(-47.3671 0 32.342)
(28.467 0 -18.6733)
(-33.854 0 22.3473)
(-13.2135 0 5.38047)
(-1.31211 1.09413e-16 1.12088)
(-24.151 0 14.1473)
(-5.97889 0 -1.75012)
(64.1063 0 -44.4279)
(121.234 -1.98113e-16 -73.6173)
(104.652 0 -58.2674)
(53.8132 -3.64536e-17 -24.5278)
(-1.29045 0 7.14841)
(-52.3493 5.11963e-18 35.8667)
(-74.3258 0 45.7932)
(-90.4913 -8.18642e-17 53.557)
(-91.8342 0 53.4729)
(-97.5837 0 55.4751)
(-82.5096 0 43.8107)
(-40.6205 1.82742e-16 19.6433)
(-11.7889 -3.06068e-17 5.22182)
(-11.0434 1.10858e-15 5.373)
(4.78026 4.63067e-16 -3.60322)
(-7.77363 0 -1.39539)
(-11.6334 -2.25831e-18 -1.15213)
(-4.05455 0 0.864331)
(10.912 0 2.991)
(14.1746 6.14462e-18 1.63352)
(-4.87895 1.01407e-17 -2.88068)
(-28.8841 -5.75804e-21 -5.01946)
(-25.6502 -4.89096e-17 -0.944932)
(10.0477 0 4.40229)
(38.572 -8.53594e-19 2.00596)
(18.0311 -3.39889e-17 -7.10731)
(-35.3812 0 -8.04126)
(-55.5756 0 8.0355)
(-11.2415 0 22.5091)
(43.092 0 5.80642)
(36.3194 -3.04662e-17 -34.6837)
(-14.935 -3.32836e-17 -44.3475)
(-27.043 -3.58547e-17 10.6889)
(16.536 2.17604e-17 73.8044)
(22.002 0 47.168)
(-69.4312 -4.78846e-17 -65.6715)
(-135.082 -5.37752e-17 -112.056)
(-11.2077 0 19.5416)
(223.409 -2.67691e-16 203.287)
(279.564 2.44567e-16 204.04)
(39.6741 6.53561e-16 -9.30351)
(-202.457 0 -161.755)
(-187.809 0 -117.668)
(-29.0134 5.22743e-16 -19.2842)
(92.4734 1.07136e-16 56.7537)
(78.1237 -1.69695e-16 39.6626)
(-1.16947 0 -8.55763)
(-40.5419 -1.69263e-16 -24.1539)
(-15.163 0 -6.30006)
(20.8129 0 10.1501)
(23.4805 1.4537e-17 6.08502)
(3.09351 0 -5.85745)
(-8.45575 4.27655e-17 -8.97495)
(-1.67127 -2.27027e-18 -3.50045)
(8.94952 4.61596e-17 0.655164)
(10.4214 0 -0.872105)
(4.96501 -2.92392e-18 -4.23231)
(1.55579 0 -5.05973)
(3.23422 0 -3.60531)
(6.1204 0 -2.57205)
(6.6205 0 -3.04257)
(5.35088 0 -3.93012)
(4.68066 -2.34552e-18 -4.14337)
(5.28925 0 -3.84946)
(6.107 0 -3.74608)
(6.31535 1.97796e-18 -4.01064)
(6.25159 0 -4.31103)
(6.51942 -3.19161e-18 -4.4134)
(7.08955 -2.11087e-18 -4.44509)
(7.53334 -4.49498e-18 -4.61479)
(7.73431 0 -4.90858)
(8.02778 -2.91588e-18 -5.21726)
(8.778 -9.852e-18 -5.48273)
(9.87472 0 -5.75101)
(10.8236 0 -6.04756)
(11.161 0 -6.22984)
(10.8249 -6.09096e-18 -6.02651)
(9.84572 0 -5.08981)
(8.04837 0 -3.24148)
(4.70228 1.32862e-17 -0.365976)
(-0.712891 3.36252e-17 3.38051)
(-8.12536 0 7.79793)
(-16.0805 0 12.1442)
(-23.0209 0 15.594)
(-27.1126 0 16.8391)
(-27.7931 7.85857e-17 15.5515)
(-24.0886 -1.55276e-16 11.4991)
(-15.8578 0 5.90001)
(-4.68094 0 0.184552)
(6.39134 -1.69829e-17 -5.25157)
(12.826 0 -8.27558)
(15.9127 1.52901e-16 -10.6375)
(20.4106 -3.92636e-17 -14.1311)
(29.5736 0 -19.8302)
(42.5755 0 -26.435)
(50.5041 0 -28.805)
(45.8935 0 -24.4484)
(33.7089 0 -17.332)
(18.7056 2.41985e-16 -9.24401)
(12.2164 0 -5.71353)
(6.50384 -2.72115e-17 -1.92998)
(1.81997 0 0.650347)
(-4.12871 2.04447e-18 3.17977)
(2.63332 8.27206e-18 -2.1861)
(13.9418 0 -14.8818)
(94.6807 -5.83663e-17 -61.69)
(116.928 0 -66.9867)
(98.583 0 -35.5325)
(-183.717 -1.27604e-15 82.4953)
(341.538 0 -189.521)
(-125.681 0 115.464)
(-128.086 0 41.5275)
(94.2216 0 -60.7296)
(-47.6733 0 34.3035)
(32.2687 0 -21.3136)
(-42.0029 0 28.2264)
(-16.7929 0 6.41516)
(-2.53293 -1.02218e-16 2.00147)
(-23.5393 0 13.7827)
(2.35945 0 -8.07871)
(82.5687 0 -57.9849)
(139.065 2.00763e-16 -84.5784)
(106.087 1.20547e-16 -57.3171)
(44.7516 2.86237e-17 -16.2017)
(-11.4644 -8.91221e-17 15.343)
(-61.8588 4.47343e-18 43.1321)
(-81.3111 1.09218e-16 50.5432)
(-97.9583 1.5263e-16 58.0884)
(-96.0029 0 55.8464)
(-99.8302 8.62859e-17 56.4779)
(-89.3963 2.33699e-16 46.5388)
(-45.908 0 21.1537)
(-12.5017 1.49969e-17 4.93235)
(-11.3543 -5.16067e-16 5.16359)
(4.40255 -4.32237e-16 -3.65614)
(-7.76153 0 -1.58824)
(-10.2208 1.1873e-18 -0.88926)
(-2.01884 0 1.35342)
(11.2663 0 3.06814)
(12.0725 -5.78587e-18 1.26386)
(-6.635 -9.54632e-18 -3.05612)
(-27.1152 5.21081e-21 -4.74336)
(-21.9225 4.54399e-17 -1.04206)
(10.3558 0 3.22845)
(34.1369 -6.59159e-18 0.908064)
(15.7665 5.13285e-17 -5.99608)
(-29.1355 0 -5.34403)
(-47.4348 2.68548e-17 7.91175)
(-15.7082 0 17.5345)
(26.1928 4.41995e-17 2.86927)
(29.3824 -5.08912e-17 -26.461)
(3.34935 -8.6436e-17 -31.3664)
(-6.732 3.37529e-17 4.34786)
(0.824627 -5.14512e-18 38.3207)
(-19.3276 0 19.7121)
(-66.7579 4.50852e-17 -27.6475)
(-50.6737 0 -12.808)
(78.9904 0 83.7555)
(203.349 -1.10951e-16 146.454)
(143.756 -7.694e-16 60.025)
(-77.0164 0 -108.107)
(-209.27 0 -164.518)
(-128.698 0 -74.7501)
(27.0901 -4.72606e-16 27.5278)
(100.498 2.67401e-16 61.0875)
(58.597 -5.11182e-17 26.7365)
(-19.8364 -1.86371e-16 -23.7816)
(-38.6649 8.93804e-17 -23.7502)
(-8.48719 9.51372e-17 -4.70745)
(22.9403 -6.27182e-17 10.1138)
(20.6404 8.39149e-18 4.06478)
(1.21897 0 -6.99226)
(-7.1028 -4.02208e-17 -8.58955)
(0.602043 4.29068e-17 -2.95097)
(9.88448 -4.34063e-17 0.417293)
(10.2585 0 -1.62215)
(5.05741 -2.77425e-17 -4.85741)
(2.40443 -7.43654e-18 -5.38865)
(4.32669 9.23546e-18 -3.89152)
(6.9464 6.7345e-18 -3.02951)
(7.2299 0 -3.63938)
(6.04428 0 -4.53466)
(5.56377 6.92056e-19 -4.70762)
(6.24671 0 -4.4198)
(7.03663 0 -4.36729)
(7.23989 3.33611e-18 -4.67436)
(7.23778 -9.36946e-19 -4.98712)
(7.58216 2.99748e-18 -5.09326)
(8.19917 5.40775e-19 -5.14605)
(8.67873 -6.54524e-19 -5.35566)
(8.93739 0 -5.69979)
(9.31941 0 -6.05303)
(10.1639 1.84514e-17 -6.36078)
(11.334 0 -6.67309)
(12.3304 0 -7.00133)
(12.6906 1.51068e-17 -7.1688)
(12.3496 0 -6.86872)
(11.3015 0 -5.73937)
(9.34183 2.92918e-17 -3.59358)
(5.70065 -5.17581e-18 -0.336653)
(-0.139138 -3.91211e-17 3.83784)
(-8.08849 0 8.6748)
(-16.6148 -1.04523e-17 13.3105)
(-24.0791 0 16.8241)
(-28.4774 0 17.8066)
(-29.1225 -1.43697e-16 16.0065)
(-24.94 0 11.2269)
(-15.7274 0 4.84435)
(-3.30271 0 -1.74157)
(9.3914 0 -7.75868)
(17.055 0 -11.3014)
(20.8312 -1.43181e-16 -13.9133)
(25.6991 1.35492e-18 -17.7215)
(35.248 -1.09807e-16 -23.8168)
(48.4905 1.39861e-16 -30.4475)
(56.0082 0 -31.9384)
(49.9586 0 -26.0695)
(35.9035 0 -17.5999)
(18.644 0 -8.3637)
(10.5434 0 -4.20258)
(4.38737 -2.28257e-18 -0.213997)
(-0.0895458 0 2.19581)
(-6.3927 1.86768e-16 4.61799)
(0.841841 9.29721e-18 -1.49076)
(14.4669 0 -18.1541)
(106.654 5.45715e-17 -71.944)
(136.518 0 -78.5132)
(102.918 -1.12104e-16 -28.4624)
(-202.836 6.36157e-18 86.4637)
(350.895 0 -198.382)
(-51.9701 0 87.1611)
(-134.315 0 40.5265)
(98.8101 0 -65.4183)
(-44.2501 7.25376e-18 34.3339)
(34.6478 0 -22.6416)
(-48.5555 0 33.4648)
(-20.9116 -4.03661e-16 7.52016)
(-3.98612 0 2.89675)
(-21.1438 -1.21049e-16 12.1339)
(12.9188 1.3217e-16 -17.3344)
(101.607 0 -72.2391)
(152.989 -3.8536e-16 -92.8497)
(100.684 3.14429e-18 -51.7033)
(33.0087 -4.95381e-17 -5.28917)
(-20.8147 8.32147e-17 23.0727)
(-69.2193 5.90638e-17 48.7825)
(-86.3485 -1.0197e-16 54.2334)
(-103.056 -7.11342e-17 61.3672)
(-96.9078 -3.37909e-17 56.3465)
(-96.6852 -8.05499e-17 54.6058)
(-96.311 -2.18156e-16 49.2856)
(-50.8111 -1.58246e-16 22.2718)
(-12.889 -1.80412e-17 4.3141)
(-11.3411 0 4.77744)
(3.91053 0 -3.67551)
(-7.3196 0 -1.62523)
(-8.37279 1.26475e-18 -0.585939)
(-0.127154 0 1.6411)
(10.8322 0 2.81947)
(9.27593 0 0.7367)
(-8.47651 0 -3.09509)
(-25.1648 3.1975e-18 -4.12411)
(-18.2333 -1.40621e-17 -0.63617)
(10.6662 1.14097e-17 2.66862)
(30.2448 1.16352e-17 0.140866)
(13.9549 -4.82505e-17 -5.51379)
(-23.8356 0 -4.14607)
(-40.8567 -2.52446e-17 7.18038)
(-18.9035 0 14.7771)
(14.2689 -4.15525e-17 3.54354)
(24.5006 6.37701e-18 -18.4101)
(13.4275 0 -24.3431)
(2.25324 0 -4.99157)
(-8.531 -1.44207e-17 15.1578)
(-30.8099 0 13.4768)
(-42.9547 0 9.16549)
(3.7818 -1.88094e-16 38.9843)
(97.512 0 82.2149)
(133.336 0 63.5723)
(29.4221 3.92079e-16 -44.1162)
(-130.979 0 -146.114)
(-170.693 0 -129.609)
(-61.3087 0 -26.3166)
(63.2726 7.87554e-16 52.9162)
(91.3947 0 54.1384)
(30.1343 -1.38645e-17 5.6877)
(-30.3897 4.81989e-17 -31.534)
(-36.1615 -2.54135e-17 -28.8962)
(-0.807467 -8.94133e-17 -1.33049)
(24.4447 1.00351e-16 9.83547)
(17.355 -2.07358e-17 1.87271)
(-0.308529 0 -7.8608)
(-5.41194 0 -7.95566)
(2.77109 3.82792e-17 -2.43825)
(10.5182 -2.56373e-17 0.0317214)
(9.92899 0 -2.41073)
(5.15706 0 -5.39661)
(3.27792 2.96002e-18 -5.62615)
(5.35843 -8.67351e-18 -4.15404)
(7.65783 -6.32417e-18 -3.50063)
(7.74189 7.14841e-18 -4.23102)
(6.6751 0 -5.10437)
(6.38881 7.64378e-19 -5.23303)
(7.12621 0 -4.96512)
(7.87379 0 -4.9708)
(8.07415 -3.13122e-18 -5.31446)
(8.14106 8.79321e-19 -5.63114)
(8.56314 0 -5.73856)
(9.22246 1.35254e-18 -5.81391)
(9.73301 -4.72878e-19 -6.06316)
(10.0476 0 -6.45024)
(10.5122 0 -6.83982)
(11.4364 -1.71708e-17 -7.18106)
(12.6583 0 -7.52606)
(13.6809 0 -7.87125)
(14.0528 -2.77526e-17 -8.009)
(13.7139 0 -7.60072)
(12.6282 0 -6.28622)
(10.5744 -5.20565e-17 -3.86137)
(6.74138 4.85087e-18 -0.263202)
(0.61157 2.02655e-17 4.27927)
(-7.72265 0 9.45946)
(-16.6853 9.79295e-18 14.3021)
(-24.5905 0 17.8069)
(-29.299 1.80794e-17 18.4787)
(-29.9963 6.56107e-17 16.1574)
(-25.4963 0 10.6674)
(-15.4841 0 3.53579)
(-1.92147 8.32062e-17 -3.88353)
(12.3684 1.46872e-17 -10.5995)
(21.5526 0 -14.6066)
(26.2167 0 -17.5221)
(31.4288 6.49369e-17 -21.6127)
(41.0231 1.02756e-16 -27.9132)
(53.9134 -2.5289e-16 -34.2004)
(60.5397 0 -34.4361)
(52.9471 0 -26.9004)
(37.2805 0 -17.1695)
(18.1429 0 -7.03123)
(8.49088 0 -2.3604)
(2.12926 -2.36124e-18 1.61898)
(-1.90581 0 3.70904)
(-8.66173 0 6.06322)
(-1.41127 1.03394e-17 -0.813999)
(15.1241 0 -22.1799)
(119.239 3.87395e-17 -83.3984)
(157.953 0 -90.6594)
(96.8743 1.04771e-16 -13.8444)
(-199.87 6.77698e-18 77.2768)
(345.928 0 -201.328)
(47.2976 0 46.0642)
(-149.519 0 41.9398)
(101.609 0 -70.0144)
(-37.3104 -9.09279e-18 32.5721)
(35.4435 6.21748e-16 -22.9859)
(-52.7161 1.67987e-16 37.6108)
(-25.3617 3.77017e-16 8.6075)
(-5.50268 0 3.63117)
(-16.797 1.13046e-16 9.01093)
(26.0449 -1.23424e-16 -28.0309)
(120.223 0 -86.4733)
(162.068 1.84765e-16 -97.65)
(88.8329 -2.19421e-16 -41.5903)
(20.5329 2.12971e-17 5.05575)
(-28.4605 0 29.7827)
(-74.1512 -4.51706e-17 52.7697)
(-89.6549 0 56.9493)
(-105.912 0 63.1556)
(-95.4368 3.15431e-17 55.1597)
(-89.5253 0 50.5533)
(-104.962 0 53.4357)
(-55.8161 1.47706e-16 22.8992)
(-13.1233 1.6839e-17 3.41939)
(-11.2241 -4.36276e-16 4.27532)
(3.34122 3.708e-16 -3.64615)
(-6.51973 0 -1.61356)
(-6.34147 -1.18871e-18 -0.394717)
(1.44886 -2.21139e-18 1.65268)
(9.77424 0 2.29956)
(6.20835 0 0.151063)
(-10.0483 0 -2.9505)
(-22.9697 -3.00472e-18 -3.23215)
(-14.8345 0 0.00325494)
(10.4993 -1.07183e-17 2.27018)
(26.3726 0 -0.647987)
(12.4299 0 -5.46453)
(-18.8295 -2.82339e-17 -3.62722)
(-34.6239 0 6.4362)
(-20.5537 4.31018e-17 13.2699)
(5.30594 -3.99768e-17 5.27689)
(19.2005 -5.98855e-18 -11.9184)
(17.2757 0 -20.1032)
(7.16236 4.55153e-17 -11.6134)
(-8.90688 0 2.80954)
(-26.1591 2.40886e-17 13.546)
(-22.233 0 27.4008)
(20.7674 1.76662e-16 48.0974)
(70.4794 -5.87743e-17 48.3129)
(56.7792 0 -5.30151)
(-39.1205 0 -92.3446)