/*--------------------------------*- C++ -*----------------------------------*\
| =========                 |                                                 |
| \\      /  F ield         | OpenFOAM: The Open Source CFD Toolbox           |
|  \\    /   O peration     | Version:  2412                                  |
|   \\  /    A nd           | Website:  www.openfoam.com                      |
|    \\/     M anipulation  |                                                 |
\*---------------------------------------------------------------------------*/
FoamFile
{
    version     2.0;
    format      ascii;
    arch        "LSB;label=32;scalar=64";
    class       volScalarField;
    location    "1.515";
    object      Co;
}
// * * * * * * * * * * * * * * * * * * * * * * * * * * * * * * * * * * * * * //

dimensions      [0 0 0 0 0 0 0];

internalField   nonuniform List<scalar> 
12600
(
0.314956
0.176756
0.100089
0.0629661
0.0449796
0.0350533
0.028651
0.0240679
0.0205926
0.0178559
0.0156408
0.0138105
0.0122734
0.0109657
0.00984117
0.0088655
0.00801258
0.00726213
0.00659818
0.00600789
0.00548086
0.00500855
0.00458388
0.00420089
0.00385458
0.00354069
0.00325557
0.00299606
0.00275944
0.00254334
0.00234569
0.00216466
0.00199864
0.0018462
0.00170609
0.00157718
0.00145846
0.00134903
0.00124808
0.00115488
0.00106879
0.000989191
0.000915563
0.000847414
0.000784302
0.000725826
0.000671618
0.000621343
0.000574697
0.000531401
0.000491198
0.000453855
0.000419157
0.000386906
0.000356922
0.000329037
0.000303099
0.000278966
0.000256508
0.000235605
0.000216147
0.000198032
0.000181166
0.000165461
0.000150838
0.000137222
0.000124545
0.000112744
0.000101762
9.15422e-05
8.20392e-05
7.32032e-05
6.49976e-05
5.73783e-05
5.0317e-05
4.37737e-05
3.77286e-05
3.21441e-05
2.70079e-05
2.22836e-05
1.79664e-05
1.40192e-05
1.04445e-05
7.20277e-06
4.30373e-06
2.31714e-06
2.74487e-06
4.57604e-06
6.15726e-06
7.47557e-06
8.57039e-06
9.4475e-06
1.01316e-05
1.06213e-05
1.10304e-05
1.10891e-05
1.14597e-05
1.11428e-05
1.09584e-05
1.15533e-05
1.08862e-05
1.06574e-05
1.01532e-05
9.78136e-06
1.08384e-05
1.01918e-05
1.00514e-05
9.87692e-06
9.27644e-06
1.25147e-05
1.17446e-05
9.95532e-06
1.07401e-05
1.00675e-05
1.09706e-05
1.02762e-05
1.15991e-05
4.53175e-05
5.3116e-05
4.96786e-05
0.478138
0.376685
0.27651
0.202568
0.153191
0.120571
0.098238
0.082128
0.0699521
0.0604132
0.0527336
0.0464191
0.0411398
0.0366662
0.0328331
0.0295185
0.0266296
0.024095
0.0218581
0.0198743
0.0181069
0.0165263
0.0151079
0.013831
0.0126783
0.0116352
0.0106891
0.00982922
0.00904625
0.00833208
0.00767966
0.00708278
0.00653599
0.00603447
0.00557395
0.00515064
0.00476115
0.00440244
0.00407181
0.00376681
0.00348526
0.00322515
0.00298472
0.00276232
0.0025565
0.0023659
0.00218932
0.00202565
0.00187387
0.00173306
0.00160237
0.00148104
0.00136835
0.00126365
0.00116634
0.00107589
0.00099177
0.000913534
0.000840749
0.000773022
0.000709991
0.000651321
0.000596705
0.000545856
0.000498515
0.000454435
0.000413397
0.00037519
0.000339629
0.000306531
0.000275745
0.000247108
0.000220501
0.000195777
0.000172847
0.000151577
0.000131903
0.0001137
9.69323e-05
8.14741e-05
6.7318e-05
5.43327e-05
4.25406e-05
3.17957e-05
2.21535e-05
1.34452e-05
8.86882e-06
1.1061e-05
1.62349e-05
2.05367e-05
2.41592e-05
2.70723e-05
2.93643e-05
3.10712e-05
3.24934e-05
3.27145e-05
3.43381e-05
3.27987e-05
3.30245e-05
3.50276e-05
3.23752e-05
3.26544e-05
3.0269e-05
3.00007e-05
3.3379e-05
3.22915e-05
3.36472e-05
2.91361e-05
3.00864e-05
4.33412e-05
3.80096e-05
3.34262e-05
3.27517e-05
3.1724e-05
3.55678e-05
3.65521e-05
4.92411e-05
0.000165726
0.00015519
0.000152718
0.512662
0.468787
0.397437
0.325565
0.26461
0.216523
0.179621
0.151286
0.129194
0.111626
0.0973835
0.0856363
0.0758047
0.0674742
0.0603416
0.0541801
0.0488169
0.0441177
0.0399766
0.036309
0.0330464
0.0301326
0.0275212
0.0251735
0.0230569
0.0211438
0.0194106
0.0178371
0.0164059
0.0151018
0.0139116
0.0128238
0.0118282
0.0109158
0.0100787
0.00930989
0.00860302
0.0079525
0.00735333
0.006801
0.00629144
0.00582102
0.00538643
0.00498469
0.00461309
0.00426917
0.00395071
0.00365568
0.00338221
0.00312863
0.00289338
0.00267506
0.00247237
0.00228413
0.00210925
0.00194673
0.00179566
0.00165518
0.00152453
0.001403
0.00128991
0.00118467
0.00108672
0.000995537
0.000910653
0.000831624
0.00075805
0.000689548
0.000625787
0.00056643
0.000511207
0.000459821
0.000412056
0.000367646
0.000326428
0.000288158
0.000252723
0.000219891
0.000189601
0.00016162
0.000135944
0.00011232
9.08129e-05
7.11258e-05
5.34084e-05
3.72907e-05
2.30323e-05
1.85976e-05
2.51992e-05
3.27887e-05
3.9261e-05
4.44391e-05
4.85352e-05
5.16495e-05
5.42397e-05
5.45227e-05
5.81273e-05
5.42229e-05
5.61027e-05
5.97081e-05
5.3773e-05
5.62719e-05
5.04312e-05
5.16402e-05
5.77041e-05
5.77194e-05
6.32183e-05
4.9813e-05
5.46708e-05
8.484e-05
7.01764e-05
6.33459e-05
5.58059e-05
5.59965e-05
6.54615e-05
7.18965e-05
0.000110968
0.000337723
0.000253788
0.00027394
0.504605
0.491295
0.453337
0.402899
0.350459
0.301732
0.25918
0.223241
0.19332
0.168473
0.147755
0.130354
0.115616
0.103029
0.0921932
0.0827989
0.0746017
0.067408
0.0610625
0.0554394
0.050436
0.0459676
0.0419636
0.0383651
0.0351221
0.0321923
0.0295395
0.0271325
0.0249444
0.0229519
0.0211345
0.0194744
0.017956
0.0165653
0.0152902
0.0141197
0.0130442
0.012055
0.0111444
0.0103055
0.00953192
0.00881814
0.00815906
0.00755009
0.00698708
0.00646627
0.00598421
0.00553781
0.00512423
0.00474086
0.00438536
0.00405556
0.00374949
0.00346533
0.00320143
0.00295625
0.00272841
0.00251661
0.00231968
0.00213653
0.00196615
0.00180762
0.00166009
0.00152278
0.00139497
0.00127598
0.0011652
0.00106207
0.000966056
0.000876667
0.000793484
0.000716059
0.000644058
0.000577082
0.000514876
0.000457073
0.000403497
0.000353797
0.000307879
0.000265385
0.000226317
0.000190277
0.000157389
0.000127165
9.98915e-05
7.49323e-05
5.27853e-05
3.36081e-05
3.21197e-05
4.34052e-05
5.31512e-05
6.0903e-05
6.70871e-05
7.18651e-05
7.58246e-05
7.61847e-05
8.24183e-05
7.51996e-05
8.00355e-05
8.5082e-05
7.45365e-05
8.12877e-05
7.05238e-05
7.4624e-05
8.31928e-05
8.54346e-05
9.79398e-05
7.29769e-05
8.14497e-05
0.000135032
0.000107388
9.96639e-05
7.91388e-05
8.19642e-05
0.000100092
0.000113038
0.000196624
0.000548655
0.00033886
0.000410995
0.488409
0.483571
0.465337
0.435409
0.398738
0.359629
0.321179
0.285291
0.252886
0.22421
0.199118
0.177271
0.158272
0.141724
0.127271
0.114604
0.10346
0.0936177
0.0848941
0.0771348
0.0702108
0.0640134
0.0584507
0.0534448
0.0489291
0.0448465
0.0411481
0.0377912
0.034739
0.0319593
0.0294239
0.0271083
0.0249904
0.0230511
0.0212734
0.0196419
0.0181432
0.0167653
0.0154971
0.0143292
0.0132526
0.0122595
0.0113429
0.0104963
0.00971379
0.00899019
0.00832067
0.00770087
0.00712681
0.00659488
0.00610176
0.00564443
0.00522012
0.00482631
0.00446066
0.00412106
0.00380554
0.00351231
0.00323972
0.00298625
0.0027505
0.00253118
0.00232712
0.00213721
0.00196044
0.00179589
0.00164271
0.00150007
0.00136729
0.00124365
0.00112856
0.00102141
0.000921734
0.000828969
0.000742753
0.000662583
0.000588203
0.00051913
0.000455227
0.000395995
0.000341441
0.000290998
0.000244862
0.00020232
0.00016383
0.000128426
9.69232e-05
6.80121e-05
4.96443e-05
5.13549e-05
6.49156e-05
7.56467e-05
8.4308e-05
9.108e-05
9.6686e-05
9.72437e-05
0.000106705
9.54517e-05
0.000104517
0.000110661
9.40552e-05
0.000107434
9.04025e-05
9.87431e-05
0.000109354
0.000114404
0.000136886
9.81125e-05
0.000109131
0.000192054
0.000148765
0.000142241
0.00010216
0.000108787
0.000139133
0.000157031
0.000304749
0.000786145
0.000401358
0.000562451
0.474202
0.468495
0.457533
0.439602
0.415816
0.388053
0.358204
0.327904
0.298383
0.270451
0.244569
0.220934
0.199561
0.180352
0.163149
0.147768
0.134018
0.12172
0.110707
0.100831
0.0919579
0.0839726
0.076773
0.0702702
0.0643863
0.0590537
0.0542127
0.0498115
0.0458042
0.0421505
0.038815
0.0357662
0.0329762
0.0304202
0.0280763
0.0259247
0.0239479
0.02213
0.020457
0.0189161
0.0174958
0.0161857
0.0149766
0.0138599
0.0128279
0.0118738
0.0109911
0.0101741
0.00941756
0.00871664
0.00806699
0.0074646
0.00690581
0.00638728
0.00590592
0.00545893
0.00504371
0.00465789
0.00429928
0.00396587
0.00365581
0.00336741
0.00309908
0.00284938
0.00261698
0.00240064
0.00219924
0.00201171
0.00183711
0.0016745
0.00152312
0.00138215
0.00125095
0.00112879
0.0010152
0.000909492
0.000811335
0.000720091
0.000635569
0.000557115
0.000484733
0.000417669
0.000356199
0.000299347
0.000247781
0.000200141
0.000157634
0.000118368
8.41456e-05
6.61082e-05
7.351e-05
8.77373e-05
9.93835e-05
0.000108564
0.000116183
0.000117169
0.000130419
0.000114653
0.000129156
0.000135926
0.000111625
0.000134373
0.000109885
0.000123731
0.000135736
0.000143623
0.000179065
0.000124856
0.000136587
0.000254063
0.000193313
0.000190739
0.000124385
0.000135581
0.000182282
0.000201305
0.000432565
0.00103826
0.000433136
0.000727223
0.462896
0.454542
0.444675
0.431581
0.414986
0.395331
0.373347
0.349879
0.325746
0.30165
0.278145
0.255635
0.23439
0.214562
0.196216
0.179349
0.163912
0.14983
0.137009
0.12535
0.114754
0.105124
0.0963707
0.0884094
0.0811636
0.0745639
0.0685475
0.0630578
0.0580442
0.053461
0.0492675
0.0454271
0.041907
0.0386777
0.0357127
0.0329883
0.030483
0.0281776
0.0260545
0.024098
0.0222939
0.0206293
0.0190924
0.0176728
0.0163607
0.0151473
0.0140247
0.0129856
0.0120233
0.0111317
0.0103054
0.00953924
0.00882854
0.00816908
0.00755692
0.00698851
0.00646053
0.00596997
0.00551403
0.00509017
0.004696
0.00432938
0.00398829
0.00367089
0.00337548
0.00310047
0.00284445
0.00260603
0.00238403
0.00217725
0.00198469
0.00180533
0.00163833
0.00148279
0.00133805
0.00120329
0.00107804
0.000961509
0.000853432
0.00075298
0.000660157
0.00057399
0.000494854
0.000421466
0.000354741
0.000292859
0.000237493
0.000186068
0.000141104
9.93433e-05
8.46486e-05
9.60588e-05
0.000111333
0.000123438
0.000133543
0.000135308
0.000152887
0.000132386
0.000153452
0.00016031
0.000126419
0.000161663
0.000128734
0.000149254
0.000161907
0.000172108
0.000223441
0.000152631
0.000162842
0.000319262
0.000239927
0.000244583
0.000145449
0.00016141
0.000229154
0.000243709
0.000576002
0.00129374
0.000470367
0.000904686
0.453549
0.443133
0.432515
0.420641
0.407046
0.391686
0.374742
0.35652
0.337392
0.317744
0.297936
0.278292
0.259083
0.240527
0.222788
0.205978
0.190165
0.175381
0.161625
0.148875
0.137094
0.126232
0.116234
0.107042
0.0985982
0.0908445
0.0837263
0.0771916
0.0711918
0.0656819
0.0606201
0.0559683
0.0516913
0.0477571
0.0441365
0.0408029
0.0377318
0.0349012
0.0322909
0.0298826
0.0276595
0.0256064
0.0237094
0.0219558
0.020334
0.0188335
0.0174446
0.0161585
0.014967
0.0138629
0.0128393
0.0118899
0.0110092
0.0101918
0.00943299
0.00872831
0.00807369
0.00746543
0.00690005
0.00637441
0.00588558
0.00543087
0.00500781
0.0046141
0.00424763
0.00390646
0.00358878
0.00329293
0.00301738
0.00276068
0.00252158
0.00229878
0.00209127
0.00189791
0.00171788
0.00155015
0.00139414
0.00124885
0.00111395
0.000988413
0.000872237
0.000764205
0.000664797
0.000572387
0.00048817
0.000409802
0.000339493
0.000273883
0.00021633
0.000162529
0.000116359
0.00010213
0.000118999
0.00013466
0.000147849
0.000150874
0.000173322
0.000148135
0.000176781
0.000183191
0.000139343
0.000188757
0.000146664
0.000174907
0.000187444
0.000198898
0.000268949
0.000180668
0.000187058
0.000385933
0.000287416
0.000302945
0.000165105
0.000185292
0.000279146
0.00028255
0.000729833
0.00154229
0.000556238
0.00109456
0.445474
0.433737
0.42221
0.410309
0.397672
0.384164
0.369798
0.354669
0.338922
0.322721
0.306239
0.289644
0.2731
0.25676
0.240759
0.225215
0.210227
0.195873
0.182209
0.169272
0.157081
0.145638
0.134934
0.12495
0.115659
0.10703
0.0990266
0.0916131
0.0847521
0.0784065
0.0725406
0.0671199
0.0621114
0.0574843
0.0532096
0.04926
0.0456105
0.0422376
0.0391197
0.0362369
0.0335707
0.0311042
0.0288217
0.026709
0.0247527
0.0229407
0.021262
0.0197061
0.0182637
0.016926
0.0156852
0.0145337
0.013465
0.0124728
0.0115512
0.0106951
0.00989965
0.00916026
0.00847284
0.00783358
0.00723896
0.00668574
0.00617091
0.00569171
0.00524558
0.00483016
0.00444327
0.00408288
0.00374713
0.00343428
0.00314276
0.00287105
0.00261786
0.00238182
0.00216194
0.00195694
0.00176611
0.00158823
0.00142291
0.00126887
0.00112611
0.000993143
0.000870565
0.000756366
0.000652051
0.000554694
0.000467103
0.000385039
0.00031281
0.000244927
0.000186452
0.000132866
0.000120998
0.00014099
0.000158007
0.00016292
0.0001908
0.000161251
0.000198388
0.000203883
0.000152552
0.00021498
0.000163324
0.000200202
0.000211908
0.000223043
0.000314523
0.000208039
0.000208526
0.000452479
0.000334535
0.000364732
0.000183197
0.000206218
0.000331323
0.000316598
0.000887854
0.00177464
0.000679353
0.0012968
0.438332
0.425748
0.413523
0.401322
0.388896
0.376104
0.362915
0.34936
0.335505
0.32143
0.307214
0.292933
0.278662
0.264474
0.250437
0.236621
0.22309
0.209907
0.197128
0.184802
0.172969
0.161661
0.1509
0.140698
0.13106
0.121982
0.113453
0.10546
0.0979839
0.0910024
0.0844923
0.0784289
0.0727871
0.0675417
0.062668
0.0581419
0.0539403
0.050041
0.046423
0.0430665
0.0399529
0.0370645
0.0343851
0.0318994
0.0295932
0.0274533
0.0254675
0.0236243
0.0219133
0.0203246
0.0188493
0.017479
0.016206
0.0150231
0.0139237
0.0129017
0.0119515
0.0110678
0.0102458
0.00948101
0.00876932
0.00810692
0.00749024
0.00691604
0.00638128
0.00588315
0.00541907
0.00498662
0.00458361
0.00420792
0.00385773
0.00353118
0.00322674
0.00294278
0.00267808
0.00243113
0.00220106
0.00198643
0.00178672
0.00160042
0.00142754
0.00126625
0.0011173
0.000978246
0.000850938
0.000731805
0.000624318
0.000523265
0.000434013
0.000349747
0.000276893
0.000208875
0.000153446
0.000140955
0.00016271
0.000170302
0.000204228
0.000170924
0.000217361
0.000221609
0.000165257
0.000239526
0.000178294
0.000224549
0.000234826
0.000243592
0.000359107
0.000233691
0.000226636
0.000517444
0.000380012
0.000428592
0.000199617
0.00022318
0.000384303
0.000345068
0.00104313
0.0019827
0.000824016
0.00151121
0.431944
0.41879
0.406067
0.393569
0.381123
0.368607
0.355966
0.3432
0.330343
0.317444
0.304555
0.291721
0.27898
0.266366
0.253907
0.241629
0.229555
0.217712
0.206127
0.194829
0.183846
0.173206
0.162934
0.153053
0.143581
0.134531
0.125912
0.117727
0.109977
0.102655
0.0957545
0.0892633
0.0831679
0.0774532
0.0721025
0.0670985
0.0624234
0.0580594
0.0539886
0.0501938
0.0466581
0.043365
0.0402991
0.0374453
0.0347897
0.0323188
0.0300201
0.0278816
0.0258924
0.0240419
0.0223206
0.0207192
0.0192294
0.0178432
0.0165534
0.015353
0.0142358
0.0131959
0.0122277
0.0113263
0.0104868
0.00970485
0.00897646
0.00829783
0.00766545
0.00707607
0.00652669
0.00601448
0.00553689
0.00509146
0.00467602
0.00428842
0.00392686
0.00358939
0.0032746
0.00298071
0.00270666
0.00245076
0.00221239
0.00198977
0.00178288
0.00158959
0.00141076
0.00124348
0.00108999
0.000946
0.00081571
0.00069285
0.000583943
0.000480718
0.000391129
0.00030696
0.000234048
0.000172577
0.000160384
0.000171645
0.000212314
0.000176143
0.000232617
0.000235471
0.00017557
0.000261443
0.000191058
0.000247237
0.000255656
0.000259566
0.00040166
0.000256478
0.000240844
0.000579512
0.000422575
0.00049293
0.000214222
0.000235194
0.000436183
0.000367562
0.00118823
0.00215927
0.000989318
0.00181398
0.42618
0.41263
0.399553
0.386811
0.374286
0.361876
0.349517
0.337187
0.324893
0.312664
0.300536
0.288546
0.276724
0.265094
0.253675
0.242476
0.231504
0.220762
0.210253
0.199982
0.189955
0.180181
0.170671
0.161437
0.152493
0.143851
0.135525
0.127523
0.119855
0.112526
0.105538
0.0988934
0.0925881
0.0866178
0.0809759
0.0756535
0.0706406
0.0659261
0.0614979
0.0573432
0.0534493
0.0498029
0.0463909
0.0432005
0.040219
0.0374341
0.034834
0.0324073
0.0301432
0.0280312
0.0260616
0.024225
0.0225127
0.0209165
0.0194284
0.0180413
0.0167484
0.0155431
0.0144195
0.0133721
0.0123956
0.0114852
0.0106362
0.00984448
0.00910609
0.00841734
0.00777483
0.00717536
0.00661598
0.0060939
0.00560662
0.00515166
0.00472695
0.00433025
0.0039599
0.00361383
0.00329083
0.00298891
0.00270736
0.00244407
0.00219905
0.00196977
0.00175727
0.00155812
0.00137496
0.00120275
0.00104646
0.000898682
0.000767195
0.000642143
0.000533169
0.000430219
0.000340824
0.000259429
0.000193032
0.000165295
0.000213518
0.000175645
0.000242875
0.000244404
0.00018269
0.00027962
0.000200984
0.00026741
0.000273756
0.000269931
0.000441157
0.000275193
0.000250617
0.000637478
0.000460967
0.000555933
0.000228878
0.000241324
0.000484501
0.000383987
0.00131549
0.00229773
0.00117177
0.00213921
0.420948
0.407116
0.393784
0.380853
0.36824
0.355863
0.343661
0.331598
0.319662
0.307861
0.296215
0.284749
0.273489
0.262457
0.251672
0.241145
0.230882
0.220883
0.211142
0.201656
0.192415
0.183416
0.174652
0.166123
0.157828
0.14977
0.141952
0.13438
0.12706
0.119997
0.113198
0.106666
0.100406
0.0944187
0.0887053
0.0832644
0.0780931
0.0731873
0.0685413
0.0641485
0.0600011
0.0560908
0.0524085
0.0489448
0.0456899
0.0426341
0.0397674
0.0370801
0.0345625
0.0322052
0.0299991
0.0279353
0.0260055
0.0242014
0.0225153
0.0209399
0.0194682
0.0180935
0.0168096
0.0156106
0.0144909
0.0134454
0.0124691
0.0115574
0.0107061
0.0099111
0.00916863
0.00847515
0.0078274
0.00722224
0.00665688
0.00612852
0.00563481
0.00517322
0.00474187
0.00433839
0.0039614
0.0036086
0.0032792
0.00297076
0.00268328
0.00241384
0.00216366
0.00192875
0.00171219
0.00150813
0.00132236
0.00114627
0.000988983
0.000838941
0.00070763
0.000582961
0.000474434
0.000374662
0.000288997
0.000201817
0.000207957
0.000167849
0.000246632
0.000247117
0.000185581
0.000292765
0.000207272
0.000284041
0.000288342
0.00027355
0.000476556
0.000288579
0.00025537
0.000690176
0.000493944
0.00061559
0.000242333
0.000240692
0.000526271
0.000394432
0.00141729
0.00239138
0.00136489
0.00247544
0.416173
0.402137
0.38862
0.375547
0.362854
0.350477
0.338364
0.326474
0.314784
0.303284
0.29198
0.280883
0.270009
0.259377
0.249002
0.238899
0.229076
0.219537
0.210282
0.201306
0.192599
0.184154
0.175959
0.168003
0.160277
0.152774
0.145488
0.138413
0.131548
0.124893
0.118448
0.112215
0.106196
0.100393
0.0948084
0.0894443
0.0843015
0.0793802
0.0746796
0.0701979
0.0659324
0.0618793
0.0580342
0.0543918
0.0509459
0.0476904
0.0446181
0.0417219
0.0389944
0.0364281
0.0340153
0.0317486
0.0296205
0.0276237
0.0257511
0.0239958
0.022351
0.0208104
0.0193678
0.0180173
0.0167533
0.0155706
0.014464
0.0134287
0.0124603
0.0115544
0.0107071
0.00991455
0.00917323
0.00847973
0.007831
0.00722396
0.00665605
0.00612443
0.00562703
0.00516119
0.00472539
0.004317
0.00393517
0.00357708
0.00324281
0.00292896
0.00263698
0.00236229
0.00210843
0.00186869
0.00164976
0.00144173
0.00125515
0.00107667
0.000919772
0.00077014
0.000639509
0.000518338
0.000413984
0.000308408
0.000255551
0.000156752
0.000242138
0.000242009
0.000182929
0.000299379
0.000208909
0.000295898
0.000298441
0.000269136
0.000506769
0.000295331
0.000254391
0.000736388
0.000520269
0.000669705
0.000250973
0.000250158
0.000558061
0.000399023
0.00148629
0.00243303
0.00155941
0.00281078
0.411792
0.39761
0.383958
0.370778
0.35802
0.345633
0.33357
0.321793
0.310275
0.298996
0.287949
0.277135
0.266558
0.256229
0.246158
0.236357
0.226835
0.217599
0.208652
0.199994
0.191621
0.183526
0.1757
0.168132
0.160811
0.153724
0.146861
0.140211
0.133766
0.127517
0.121458
0.115586
0.109896
0.104387
0.0990589
0.0939105
0.0889423
0.0841548
0.0795484
0.0751234
0.0708794
0.0668158
0.0629312
0.0592238
0.0556909
0.0523294
0.0491356
0.0461053
0.0432336
0.0405157
0.0379461
0.0355193
0.0332294
0.0310707
0.0290373
0.0271233
0.0253229
0.0236303
0.0220399
0.0205464
0.0191442
0.0178285
0.0165942
0.0154366
0.0143512
0.0133336
0.0123799
0.0114861
0.0106484
0.00986342
0.00912784
0.00843841
0.00779239
0.00718671
0.00661915
0.00608678
0.00558797
0.00511979
0.00468135
0.00426947
0.00388429
0.00352196
0.00318417
0.00286569
0.00257063
0.00229132
0.00203541
0.00179165
0.0015721
0.00136152
0.00117551
0.000997382
0.000841363
0.000695446
0.000569387
0.000442444
0.000373093
0.000218845
0.000250319
0.000227049
0.000173106
0.0002977
0.000204587
0.000301518
0.000302832
0.000255183
0.000530594
0.000294073
0.000246747
0.000774722
0.000538677
0.000715893
0.000253558
0.000271912
0.000576114
0.000397731
0.00151583
0.00241515
0.00174454
0.00313153
0.407756
0.393468
0.379719
0.366461
0.353654
0.341252
0.329219
0.317518
0.306121
0.295006
0.284156
0.273564
0.263226
0.253144
0.243322
0.233765
0.22448
0.215474
0.20675
0.198312
0.190158
0.182286
0.17469
0.167363
0.160296
0.153478
0.146899
0.140546
0.134408
0.128475
0.122737
0.117183
0.111807
0.106601
0.10156
0.0966794
0.0919559
0.0873872
0.0829716
0.0787078
0.0745953
0.0706333
0.0668214
0.0631589
0.0596451
0.0562786
0.0530581
0.0499817
0.047047
0.0442513
0.0415915
0.0390643
0.0366658
0.0343922
0.032239
0.0302021
0.0282768
0.0264586
0.0247428
0.023125
0.0216003
0.0201644
0.0188127
0.0175409
0.0163448
0.0152203
0.0141634
0.0131703
0.0122374
0.0113611
0.0105381
0.00976512
0.00903932
0.00835748
0.00771733
0.00711571
0.00655096
0.00601985
0.00552154
0.00505246
0.0046129
0.00419851
0.00381131
0.00344537
0.00310541
0.00278278
0.00248615
0.00220288
0.0019466
0.00170015
0.00148132
0.00127096
0.00108599
0.000911688
0.000760552
0.000608981
0.000519499
0.000341746
0.000329835
0.000231553
0.000154147
0.000285644
0.000192622
0.000299167
0.000299966
0.000229879
0.000546648
0.000283326
0.000231193
0.000803482
0.000547834
0.000751552
0.000249068
0.000289518
0.000576489
0.000390143
0.00150056
0.00233081
0.00193501
0.00344808
0.404021
0.389658
0.37584
0.362527
0.349683
0.337271
0.325257
0.313609
0.3023
0.291305
0.280607
0.27019
0.260045
0.250168
0.240556
0.231208
0.222128
0.213317
0.20478
0.196518
0.188533
0.180823
0.173386
0.166217
0.159311
0.15266
0.146256
0.140088
0.134147
0.128422
0.122903
0.117578
0.112439
0.107475
0.102678
0.0980405
0.0935549
0.0892155
0.0850176
0.0809569
0.0770302
0.073235
0.0695691
0.066031
0.0626193
0.0593332
0.0561714
0.0531329
0.0502167
0.0474213
0.0447452
0.0421867
0.0397436
0.0374138
0.0351945
0.0330831
0.0310764
0.0291713
0.0273644
0.0256523
0.0240314
0.022498
0.0210485
0.0196793
0.0183866
0.0171669
0.0160166
0.0149322
0.0139103
0.0129476
0.0120409
0.011187
0.0103831
0.00962601
0.00891348
0.00824223
0.00761066
0.00701531
0.00645545
0.00592715
0.00543094
0.00496195
0.0045226
0.00410626
0.0037183
0.00334909
0.00300838
0.00268208
0.00238549
0.00209945
0.00184408
0.00159767
0.00137999
0.00117346
0.000993566
0.000813816
0.000700237
0.000496762
0.000468533
0.000330798
0.00018545
0.000266755
0.000170815
0.000286815
0.00028787
0.000190995
0.000553282
0.000261439
0.00020606
0.00082054
0.00054626
0.000773817
0.000236571
0.000298092
0.00055517
0.000375228
0.00143722
0.00217553
0.00218768
0.00381392
0.400552
0.386137
0.372272
0.358921
0.346052
0.333634
0.321634
0.310025
0.298781
0.287879
0.277296
0.267017
0.257028
0.24732
0.237885
0.228718
0.219817
0.211182
0.202812
0.194708
0.18687
0.179298
0.171991
0.164944
0.158156
0.151619
0.145329
0.139278
0.133459
0.127861
0.122477
0.117296
0.11231
0.107509
0.102883
0.0984228
0.0941208
0.0899685
0.0859588
0.082085
0.0783412
0.0747224
0.0712242
0.0678429
0.0645753
0.0614189
0.0583715
0.0554315
0.0525972
0.0498673
0.0472405
0.0447157
0.0422914
0.0399664
0.0377391
0.035608
0.0335711
0.0316266
0.0297721
0.0280056
0.0263243
0.0247259
0.0232075
0.0217665
0.0203999
0.0191049
0.0178784
0.0167177
0.0156197
0.0145815
0.0136003
0.0126731
0.0117975
0.0109702
0.0101893
0.00945146
0.00875527
0.00809709
0.00747646
0.00688912
0.00633593
0.00581151
0.00531881
0.00485043
0.00441255
0.00399446
0.00360711
0.00323494
0.00289495
0.00256603
0.00227062
0.00198449
0.00173037
0.00148772
0.00127517
0.00106349
0.000921504
0.000689633
0.000639864
0.000476015
0.000314141
0.000333018
0.000163582
0.000262134
0.000263994
0.000135733
0.000548483
0.000226527
0.000169129
0.00082321
0.000532233
0.000779502
0.000215195
0.000294305
0.000508143
0.000351179
0.00132552
0.00194932
0.00242367
0.00415202
0.397319
0.382869
0.368972
0.355597
0.342715
0.330295
0.318309
0.306731
0.295538
0.284706
0.274214
0.264044
0.254181
0.24461
0.235323
0.226311
0.217568
0.209088
0.20087
0.192911
0.185211
0.177767
0.170577
0.163641
0.156953
0.150512
0.144311
0.138345
0.132608
0.127094
0.121795
0.116702
0.111809
0.107106
0.102585
0.0982382
0.0940563
0.0900312
0.0861551
0.0824203
0.0788197
0.0753465
0.0719947
0.0687587
0.0656335
0.0626147
0.0596985
0.0568814
0.0541607
0.0515339
0.0489987
0.0465536
0.0441968
0.0419268
0.0397423
0.0376421
0.0356247
0.0336889
0.0318332
0.0300561
0.0283559
0.0267311
0.0251797
0.0236998
0.0222894
0.0209465
0.0196687
0.0184538
0.0172995
0.0162035
0.0151634
0.0141765
0.013241
0.0123538
0.0115133
0.0107164
0.00996184
0.00924604
0.00856887
0.0079258
0.00731816
0.00674008
0.00619514
0.00567519
0.00518731
0.00471971
0.00428459
0.00386495
0.00347954
0.0031053
0.00276704
0.00243808
0.00214406
0.00186164
0.00161255
0.00136516
0.00119023
0.000926976
0.000850336
0.000657578
0.000475818
0.000469771
0.000269685
0.000294472
0.000233879
6.04407e-05
0.000529783
0.000176397
0.000117444
0.000808106
0.000503623
0.000765037
0.000184065
0.000274706
0.000431437
0.000315525
0.00116884
0.00167993
0.00266624
0.00445625
0.394294
0.379824
0.365909
0.352521
0.339632
0.327215
0.315243
0.303693
0.292541
0.281765
0.271346
0.261263
0.251501
0.242044
0.23288
0.223999
0.215391
0.207049
0.198967
0.191141
0.183568
0.176245
0.169168
0.162336
0.155745
0.149391
0.143271
0.13738
0.131712
0.126263
0.121026
0.115994
0.111162
0.106521
0.102064
0.0977845
0.0936746
0.0897267
0.0859334
0.0822872
0.0787811
0.0754079
0.0721611
0.0690342
0.0660212
0.0631166
0.0603152
0.0576122
0.0550035
0.0524853
0.050054
0.0477068
0.045441
0.0432544
0.0411448
0.0391106
0.0371501
0.0352618
0.0334442
0.0316963
0.0300165
0.0284036
0.0268563
0.0253733
0.023953
0.022594
0.0212947
0.0200534
0.0188686
0.0177381
0.0166606
0.0156337
0.0146559
0.0137247
0.0128389
0.0119955
0.0111938
0.0104302
0.00970506
0.00901363
0.00835787
0.0077314
0.0071386
0.00657054
0.00603532
0.00552006
0.00503831
0.00457162
0.0041405
0.0037201
0.00333743
0.00296363
0.00262707
0.00230195
0.00201277
0.0017262
0.00151387
0.00121606
0.00110723
0.000881998
0.000677242
0.000640041
0.000423141
0.000427765
0.000316162
4.77104e-05
0.000514124
0.000108617
6.23729e-05
0.000770944
0.000457645
0.000726446
0.000142239
0.000235825
0.000321137
0.000265622
0.00100092
0.00151049
0.00302169
0.00472603
0.391456
0.376975
0.363052
0.34966
0.336772
0.324362
0.312406
0.300881
0.289764
0.279036
0.268675
0.258664
0.248984
0.239621
0.23056
0.221789
0.213296
0.205074
0.197113
0.189407
0.181951
0.17474
0.167771
0.161039
0.154541
0.148274
0.142232
0.136413
0.130811
0.125421
0.120239
0.115259
0.110474
0.105878
0.101466
0.0972311
0.0931663
0.0892652
0.0855211
0.0819275
0.0784776
0.075165
0.0719834
0.0689263
0.0659878
0.063162
0.0604432
0.0578262
0.0553059
0.0528778
0.0505372
0.0482804
0.0461036
0.0440037
0.0419774
0.0400224
0.038136
0.0363162
0.0345611
0.032869
0.0312382
0.0296674
0.0281551
0.0267002
0.0253013
0.0239571
0.0226665
0.021428
0.0202406
0.0191025
0.0180128
0.0169696
0.0159718
0.0150172
0.0141052
0.0132328
0.0124002
0.0116034
0.0108437
0.0101159
0.00942275
0.00875745
0.00812524
0.00751639
0.00694013
0.00638249
0.00585839
0.00534803
0.00487359
0.00440859
0.00398206
0.00356337
0.00318313
0.00281374
0.00248191
0.00215343
0.00189981
0.00156434
0.00141843
0.00115653
0.000925919
0.000850795
0.00061619
0.000593058
0.000460856
0.000164904
0.000588768
9.30691e-05
4.62693e-05
0.000710931
0.000390328
0.000659444
8.87658e-05
0.000174512
0.000196493
0.000287897
0.000945418
0.00137348
0.00337359
0.00496116
0.388785
0.374303
0.360379
0.346989
0.334107
0.321709
0.30977
0.298269
0.287185
0.276497
0.266186
0.256234
0.246623
0.237337
0.228361
0.219683
0.21129
0.20317
0.195315
0.187716
0.180366
0.17326
0.16639
0.159754
0.153346
0.147162
0.141199
0.13545
0.129914
0.124583
0.119455
0.114523
0.109783
0.105228
0.100854
0.0966543
0.0926233
0.088755
0.0850434
0.0814828
0.078067
0.0747903
0.0716468
0.0686307
0.0657363
0.0629581
0.0602906
0.0577287
0.0552672
0.0529012
0.0506259
0.048437
0.0463302
0.0443017
0.0423476
0.0404647
0.0386497
0.0368999
0.0352125
0.0335853
0.0320159
0.0305026
0.0290434
0.0276367
0.0262811
0.0249751
0.0237173
0.0225065
0.0213416
0.020221
0.019144
0.0181087
0.0171145
0.0161593
0.015243
0.0143625
0.0135186
0.0127072
0.0119303
0.0111824
0.0104671
0.00977694
0.00911816
0.0084802
0.00787346
0.00728287
0.00672471
0.0061779
0.0056661
0.00516156
0.0046948
0.00423407
0.00381148
0.00339858
0.00302335
0.00265175
0.00235435
0.00197862
0.0017918
0.0014887
0.00122992
0.00110984
0.00085593
0.000798101
0.000643196
0.000325968
0.000735189
0.00018601
0.000166587
0.000757419
0.000422824
0.000670267
0.000139537
0.000215982
0.00018026
0.000435374
0.000926521
0.00121826
0.00372772
0.00516195
0.386263
0.371786
0.357869
0.344487
0.331616
0.319232
0.307312
0.295835
0.284781
0.274129
0.263861
0.25396
0.244406
0.235186
0.226283
0.217683
0.209374
0.201343
0.19358
0.186076
0.178821
0.171809
0.165032
0.158485
0.152163
0.14606
0.140172
0.134494
0.129022
0.123751
0.118677
0.113794
0.109099
0.104584
0.100247
0.0960806
0.0920801
0.08824
0.0845549
0.0810194
0.0776279
0.0743752
0.0712558
0.0682646
0.0653962
0.0626457
0.0600078
0.0574779
0.0550509
0.0527223
0.0504874
0.0483419
0.0462814
0.0443019
0.0423994
0.0405704
0.038811
0.0371182
0.0354886
0.0339196
0.0324081
0.0309519
0.0295485
0.0281959
0.026892
0.0256351
0.0244234
0.0232554
0.0221297
0.0210446
0.0199993
0.0189918
0.0180217
0.0170865
0.0161865
0.0153185
0.0144837
0.0136778
0.0129031
0.0121539
0.0114346
0.0107368
0.010068
0.00941652
0.00879397
0.00818415
0.00760453
0.00703289
0.006494
0.00595924
0.00545992
0.00496402
0.00450399
0.00405172
0.00363537
0.0032219
0.0028808
0.00246338
0.00223392
0.00188533
0.00159708
0.00142547
0.00114994
0.0010513
0.000869973
0.000528905
0.000914081
0.000306235
0.000316657
0.000863339
0.000532035
0.000759033
0.000291828
0.000334539
0.000270619
0.000617115
0.000925169
0.00106441
0.0040877
0.00532846
0.383876
0.36941
0.355504
0.342134
0.329278
0.316911
0.305012
0.293559
0.282533
0.271915
0.261686
0.251829
0.242326
0.233161
0.224319
0.215787
0.207549
0.199595
0.191912
0.184491
0.17732
0.170392
0.1637
0.157236
0.150994