/*--------------------------------*- C++ -*----------------------------------*\
| =========                 |                                                 |
| \\      /  F ield         | OpenFOAM: The Open Source CFD Toolbox           |
|  \\    /   O peration     | Version:  2412                                  |
|   \\  /    A nd           | Website:  www.openfoam.com                      |
|    \\/     M anipulation  |                                                 |
\*---------------------------------------------------------------------------*/
FoamFile
{
    version     2.0;
    format      ascii;
    arch        "LSB;label=32;scalar=64";
    class       surfaceScalarField;
    location    "0.02";
    object      phi_0;
}
// * * * * * * * * * * * * * * * * * * * * * * * * * * * * * * * * * * * * * //

dimensions      [0 3 -1 0 0 0 0];

oriented        oriented;

internalField   nonuniform List<scalar> 
24930
(
0.0139267
0.0101799
-0.0241066
0.00788789
0.00603877
0.00531091
0.00257698
0.00415776
0.00115315
0.00351102
0.000646741
0.00308402
0.000426997
0.00277338
0.000310643
0.00253403
0.000239353
0.00234237
0.000191659
0.00218447
0.000157899
0.00205157
0.000132901
0.0019378
0.000113768
0.00183906
9.8744e-05
0.00175236
8.66946e-05
0.00167551
7.68556e-05
0.00160681
6.86936e-05
0.00154498
6.18294e-05
0.001489
5.59868e-05
0.00143804
5.09594e-05
0.00139145
4.6592e-05
0.00134868
4.27646e-05
0.0013093
3.93833e-05
0.00127292
3.6374e-05
0.00123925
3.3677e-05
0.001208
3.12441e-05
0.00117897
2.90354e-05
0.00115195
2.70183e-05
0.00112678
2.5165e-05
0.00110333
2.34525e-05
0.00108147
2.18611e-05
0.0010611
2.03737e-05
0.00104212
1.8976e-05
0.00102447
1.76549e-05
0.00100807
1.63987e-05
0.000992871
1.51962e-05
0.000978833
1.40377e-05
0.00096592
1.29134e-05
0.000954102
1.18174e-05
0.000943364
1.07382e-05
0.000933697
9.66726e-06
0.0009251
8.59717e-06
0.000917586
7.51404e-06
0.000911171
6.41494e-06
0.000905896
5.27493e-06
0.000901808
4.08784e-06
0.000898956
2.85212e-06
0.000897437
1.519e-06
0.000897404
3.27849e-08
0.000898971
-1.56706e-06
0.000902215
-3.24433e-06
0.000907274
-5.05868e-06
0.00091437
-7.09563e-06
0.000924078
-9.70847e-06
0.00093733
-1.32519e-05
0.000954973
-1.76433e-05
0.000977166
-2.21929e-05
0.00100312
-2.59536e-05
0.00103142
-2.82987e-05
0.00106067
-2.92482e-05
0.00109001
-2.93461e-05
0.00111927
-2.92606e-05
0.00114871
-2.94414e-05
0.00117874
-3.00276e-05
0.0012097
-3.09621e-05
0.00124185
-3.21437e-05
0.00127536
-3.35096e-05
0.0013104
-3.50383e-05
0.00134712
-3.67274e-05
0.0013857
-3.85753e-05
0.00142628
-4.05798e-05
0.00146902
-4.27392e-05
0.00151407
-4.5056e-05
0.0015616
-4.75307e-05
0.00161178
-5.0179e-05
0.0016648
-5.30118e-05
0.00172083
-5.6039e-05
0.00178011
-5.92723e-05
0.00184283
-6.27258e-05
0.00190925
-6.6414e-05
0.0019796
-7.03539e-05
0.00205416
-7.45634e-05
0.00213323
-7.90613e-05
0.00221709
-8.38694e-05
0.0023061
-8.90102e-05
0.00240061
-9.4508e-05
0.002501
-0.00010039
0.00260769
-0.000106684
0.00272111
-0.000113422
0.00284175
-0.000120637
0.00297011
-0.000128366
0.00310676
-0.000136647
0.00325228
-0.000145523
0.00340732
-0.00015504
0.00357257
-0.000165247
0.00374877
-0.000176198
0.00393672
-0.000187954
0.00413729
-0.00020057
0.00435141
-0.000214123
0.00458009
-0.000228679
0.00482441
-0.000244318
0.00508554
-0.000261131
0.00536475
-0.000279209
0.0056634
-0.000298648
0.00598296
-0.000319566
0.00632504
-0.000342071
0.00669134
-0.000366299
0.00708372
-0.000392381
0.00750419
-0.000420472
0.00795492
-0.000450732
0.00843825
-0.000483326
0.0089567
-0.000518454
0.00951298
-0.000556279
0.0101101
-0.000597094
0.0107509
-0.000640869
0.0114392
-0.000688248
0.0121772
-0.00073799
0.0129709
-0.000793724
0.0138062
-0.000835311
0.0147409
-0.000934692
-0.000782476
0.0288527
0.0129151
-0.031588
0.023644
0.0112475
0.018801
0.00741995
0.0153386
0.00461555
0.0130239
0.00296144
0.0114225
0.00202843
0.0102509
0.00148221
0.00935095
0.00113929
0.00863257
0.000910038
0.00804205
0.000748417
0.00754573
0.000629229
0.00712128
0.000538211
0.00675322
0.000466804
0.00643036
0.000409559
0.00614438
0.000362831
0.00588899
0.000324086
0.0056593
0.00029152
0.00545147
0.000263816
0.00526244
0.000239994
0.00508972
0.000219312
0.00493128
0.000201199
0.00478546
0.000185207
0.00465085
0.000170984
0.00452628
0.000158245
0.00441077
0.000146761
0.00430346
0.000136343
0.00420364
0.000126835
0.0041107
0.000118105
0.00402411
0.000110043
0.00394342
0.000102557
0.00386823
9.55639e-05
0.00379821
8.8996e-05
0.00373307
8.2791e-05
0.00367257
7.68939e-05
0.00361652
7.12512e-05
0.00356474
6.58166e-05
0.00351711
6.05469e-05
0.00347352
5.54047e-05
0.00343392
5.03399e-05
0.00339827
4.53131e-05
0.00336658
4.02847e-05
0.0033389
3.51977e-05
0.0033153
3.00198e-05
0.00329592
2.46507e-05
0.00328095
1.90544e-05
0.0032706
1.32075e-05
0.00326526
6.86184e-06
0.0032655
-2.08668e-07
0.00327164
-7.70622e-06
0.00328413
-1.57372e-05
0.00330356
-2.44853e-05
0.00333095
-3.44883e-05
0.00336843
-4.71859e-05
0.00341893
-6.37577e-05
0.00348474
-8.34503e-05
0.0035657
-0.000103156
0.00365877
-0.00011902
0.00375922
-0.00012875
0.00386272
-0.000132749
0.0039668
-0.000133429
0.00407108
-0.000133542
0.0041765
-0.000134858
0.00428436
-0.000137889
0.00439579
-0.00014239
0.00451161
-0.000147964
0.00463246
-0.000154364
0.00475893
-0.000161504
0.00489157
-0.000169368
0.00503094
-0.000177947
0.00517759
-0.000187232
0.00533207
-0.00019722
0.00549494
-0.000207924
0.00566677
-0.000219359
0.00584818
-0.000231588
0.00603983
-0.00024466
0.00624241
-0.00025862
0.00645666
-0.000273526
0.00668338
-0.00028944
0.00692339
-0.00030643
0.00717761
-0.000324573
0.007447
-0.000343949
0.00773258
-0.000364647
0.00803548
-0.000386762
0.00835686
-0.000410398
0.00869802
-0.000435667
0.00906032
-0.000462687
0.00944523
-0.000491591
0.00985432
-0.000522517
0.0102893
-0.000555616
0.010752
-0.000591051
0.0112443
-0.000629001
0.0117685
-0.000669652
0.0123266
-0.000713212
0.0129213
-0.000759893
0.013555
-0.000809959
0.0142307
-0.000863634
0.0149514
-0.000921221
0.0157203
-0.000983001
0.0165409
-0.0010493
0.017417
-0.00112049
0.0183528
-0.00119692
0.0193526
-0.001279
0.0204212
-0.00136718
0.0215635
-0.00146192
0.0227852
-0.00156372
0.024092
-0.00167314
0.0254904
-0.00179077
0.0269872
-0.00191723
0.0285896
-0.00205318
0.0303056
-0.00219937
0.0321438
-0.00235658
0.034113
-0.00252555
0.0362232
-0.00270725
0.0384845
-0.00290214
0.0409078
-0.0031116
0.043503
-0.00333321
0.0462874
-0.00357809
0.0492176
-0.00376551
0.0525053
-0.00422239
-0.00355243
0.0367101
0.0120997
-0.0358947
0.0347777
0.01318
0.0310595
0.0111382
0.0272056
0.00846941
0.0239201
0.00624699
0.0213049
0.00464359
0.0192503
0.00353686
0.0176167
0.00277285
0.0162905
0.00223621
0.0151904
0.00184859
0.0142604
0.00155923
0.0134619
0.0013367
0.0127674
0.00116125
0.012157
0.00102003
0.0116154
0.000904386
0.0111312
0.000808269
0.0106954
0.000727329
0.0103009
0.000658379
0.00994182
0.000599027
0.00961368
0.000547456
0.00931261
0.000502265
0.00903547
0.000462349
0.00877962
0.000426838
0.00854283
0.000395027
0.00832325
0.000366347
0.00811926
0.000340329
0.00792951
0.000316584
0.00775283
0.000294786
0.00758821
0.000274662
0.0074348
0.000255975
0.00729183
0.000238526
0.00715869
0.00022214
0.00703482
0.000206662
0.00691976
0.000191956
0.00681312
0.000177888
0.0067146
0.000164341
0.00662393
0.000151207
0.00654095
0.000138388
0.00646553
0.000125764
0.00639761
0.000113233
0.0063372
0.00010069
0.0062844
8.80036e-05
0.00623935
7.50697e-05
0.00620234
6.16596e-05
0.00617372
4.76721e-05
0.00615391
3.30134e-05
0.00614371
1.70681e-05
0.00614408
-5.81066e-07
0.00615576
-1.939e-05
0.00617965
-3.9621e-05
0.00621697
-6.18109e-05
0.00626987
-8.73805e-05
0.00634219
-0.000119507
0.00643881
-0.000160385
0.00656305
-0.000207689
0.00671392
-0.000254022
0.00688567
-0.000290772
0.00707012
-0.000313194
0.00726003
-0.000322665
0.00745149
-0.000324884
0.00764401
-0.000326067
0.00783926
-0.000330105
0.00803945
-0.000338084
0.00824651
-0.000349448
0.00846188
-0.000363332
0.00868672
-0.000379202
0.00892208
-0.000396866
0.00916899
-0.000416281
0.00942846
-0.000437418
0.00970149
-0.000460256
0.00998907
-0.000484797
0.0102922
-0.000511074
0.010612
-0.000539137
0.0109495
-0.000569128
0.011306
-0.000601161
0.0116828
-0.000635354
0.0120811
-0.00067184
0.0125024
-0.000710771
0.0129483
-0.000752312
0.0134204
-0.000796644
0.0139204
-0.00084396
0.0144502
-0.000894473
0.0150119
-0.000948408
0.0156075
-0.00100601
0.0162393
-0.00106755
0.01691
-0.0011333
0.0176219
-0.00120357
0.0183781
-0.00127869
0.0191815
-0.00135902
0.0200354
-0.00144493
0.0209432
-0.00153684
0.0219088
-0.00163518
0.022936
-0.00174043
0.0240292
-0.00185309
0.025193
-0.00197373
0.0264322
-0.0021029
0.0277523
-0.00224125
0.0291587
-0.00238945
0.0306576
-0.0025482
0.0322554
-0.00271832
0.0339591
-0.00290062
0.0357761
-0.00309596
0.0377142
-0.00330533
0.039782
-0.0035297
0.0419885
-0.00377018
0.0443432
-0.00402791
0.0468566
-0.00430413
0.0495395
-0.00460012
0.0524035
-0.00491721
0.0554611
-0.00525692
0.0587252
-0.00562071
0.0622098
-0.00601013
0.0659293
-0.00642675
0.0698991
-0.00687193
0.0741344
-0.00734696
0.07865
-0.00784882
0.0834714
-0.00839948
0.0885202
-0.00881434
0.0941714
-0.00987351
-0.00837939
0.0411097
0.0103218
-0.0393318
0.0416672
0.0126225
0.0402527
0.0125527
0.0376374
0.0110847
0.034648
0.00923641
0.0317777
0.0075139
0.0292297
0.00608488
0.0270392
0.00496335
0.0251715
0.00410383
0.0235746
0.00344555
0.0221977
0.00293609
0.0209992
0.00253519
0.0199464
0.00221409
0.0190138
0.00195264
0.0181815
0.00173662
0.017434
0.00155578
0.0167587
0.00140263
0.0161455
0.00127157
0.0155862
0.00115833
0.015074
0.00105963
0.0146034
0.000972934
0.0141695
0.000896199
0.0137685
0.000827813
0.0133971
0.000766467
0.0130524
0.000711095
0.0127319
0.000660814
0.0124336
0.000614892
0.0121556
0.00057271
0.0118966
0.000533746
0.011655
0.000497553
0.0114298
0.000463747
0.0112199
0.000431993
0.0110246
0.000401995
0.010843
0.000373488
0.0106747
0.000346219
0.0105191
0.000319959
0.0103758
0.000294496
0.0102445
0.000269638
0.0101252
0.000245158
0.0100175
0.000220855
0.0099217
0.000196523
0.00983779
0.000171911
0.00976606
0.000146799
0.00970696
0.000120762
0.00966104
9.35882e-05
0.009629
6.50513e-05
0.00961209
3.39868e-05
0.00961175
-2.42146e-07
0.00962917
-3.68135e-05
0.00966591
-7.63621e-05
0.00972402
-0.000119916
0.00980687
-0.000170238
0.00992016
-0.000232796
0.0100706
-0.000310846
0.0102624
-0.000399474
0.0104935
-0.000485099
0.0107552
-0.000552526
0.0110359
-0.000593822
0.0113252
-0.000611967
0.0116177
-0.000617384
0.0119128
-0.000621153
0.0122128
-0.000630111
0.0125208
-0.000646147
0.0128397
-0.000668303
0.0131714
-0.000695096
0.0135179
-0.000725613
0.0138805
-0.000759511
0.0142609
-0.000796703
0.0146606
-0.000837128
0.0150811
-0.000880746
0.0155239
-0.000927563
0.0159905
-0.000977652
0.0164824
-0.00103112
0.0170015
-0.00108821
0.0175495
-0.00114913
0.0181283
-0.00121411
0.0187398
-0.0012834
0.0193863
-0.00135726
0.02007
-0.00143602
0.0207934
-0.00151998
0.0215589
-0.00160952
0.0223695
-0.00170502
0.0232279
-0.00180688
0.0241375
-0.00191555
0.0251014
-0.00203151
0.0261234
-0.00215526
0.0272072
-0.00228735
0.0283569
-0.00242837
0.0295768
-0.00257894
0.0308716
-0.00273974
0.0322462
-0.00291147
0.0337059
-0.00309491
0.0352564
-0.00329087
0.0369035
-0.00350023
0.0386537
-0.00372392
0.0405137
-0.00396292
0.0424908
-0.00421828
0.0445925
-0.00449115
0.0468269
-0.00478267
0.0492027
-0.00509413
0.051729
-0.00542688
0.0544153
-0.00578228
0.0572718
-0.00616184
0.0603092
-0.00656712
0.0635388
-0.00699974
0.0669723
-0.00746142
0.0706221
-0.00795394
0.0745012
-0.00847919
0.0786229
-0.00903896
0.0830013
-0.00963532
0.0876508
-0.0102701
0.0925862
-0.0109455
0.0978224
-0.011663
0.103375
-0.0124247
0.109258
-0.0132302
0.115486
-0.014076
0.122085
-0.0149987
0.12894
-0.0156693
0.136542
-0.0174756
-0.0150187
0.0442994
0.00877997
-0.0427576
0.0458384
0.0110835
0.0462378
0.0121533
0.0453609
0.0119616
0.0435918
0.0110055
0.0413748
0.00973085
0.0390387
0.00842105
0.0367773
0.00722471
0.034683
0.00619813
0.0327843
0.00534427
0.0310783
0.0046421
0.0295485
0.00406497
0.0281746
0.00358796
0.0269369
0.00319039
0.0258176
0.00285592
0.0248015
0.00257188
0.0238756
0.0023285
0.023029
0.0021182
0.0222523
0.00193506
0.0215375
0.00177438
0.020878
0.00163244
0.020268
0.00150622
0.0197025
0.00139328
0.0191774
0.00129162
0.0186889
0.00119959
0.0182339
0.00111582
0.0178096
0.00103914
0.0174138
0.000968571
0.0170442
0.000903287
0.0166992
0.000842562
0.0163772
0.000785775
0.0160768
0.000732382
0.0157969
0.000681897
0.0155365
0.000633886
0.0152948
0.000587933
0.0150711
0.000543658
0.0148649
0.000500708
0.0146758
0.000458757
0.0145035
0.000417432
0.0143479
0.000376394
0.0142092
0.000335288
0.0140874
0.000293703
0.0139829
0.000251249
0.0138965
0.000207229
0.0138288
0.000161263
0.0137809
0.000112923
0.0137546
6.0297e-05
0.0137519
2.51941e-06
0.0137745
-5.9437e-05
0.0138247
-0.000126634
0.0139057
-0.000200858
0.0140221
-0.000286608
0.0141813
-0.000392051
0.0143919
-0.000521476
0.0146589
-0.000666393
0.014979
-0.000805229
0.0153409
-0.000914433
0.0157292
-0.000982094
0.0161305
-0.00101332
0.0165378
-0.00102461
0.0169499
-0.00103331
0.0173699
-0.00105008
0.0178016
-0.0010779
0.0182487
-0.00111537
0.0187139
-0.0011603
0.0191996
-0.0012113
0.0197079
-0.00126785
0.020241
-0.0013298
0.0208009
-0.00139703
0.0213897
-0.00146948
0.0220092
-0.00154715
0.0226618
-0.00163017
0.0233494
-0.00171873
0.0240743
-0.00181318
0.0248391
-0.00191387
0.0256461
-0.00202116
0.0264982
-0.00213542
0.027398
-0.00225711
0.0283487
-0.0023867
0.0293534
-0.00252471
0.0304156
-0.00267169
0.0315388
-0.00282823
0.0327269
-0.00299497
0.0339839
-0.00317259
0.0353142
-0.00336182
0.0367224
-0.00356344
0.0382133
-0.00377826
0.0397921
-0.00400716
0.0414643
-0.00425109
0.0432355
-0.00451102
0.0451121
-0.00478801
0.0471004
-0.00508318
0.0492072
-0.0053977
0.0514398
-0.0057328
0.0538057
-0.00608984
0.0563129
-0.00647012
0.0589698
-0.00687519
0.0617851
-0.00730646
0.064768
-0.00776558
0.067928
-0.00825418
0.0712752
-0.00877401
0.0748197
-0.00932679
0.0785723
-0.00991441
0.0825439
-0.0105387
0.0867458
-0.0112017
0.0911895
-0.0119052
0.0958868
-0.0126512
0.100849
-0.0134418
0.106089
-0.0142788
0.111618
-0.0151642
0.117448
-0.0160997
0.123589
-0.0170871
0.130053
-0.0181271
0.136851
-0.0192223
0.143989
-0.0203686
0.151475
-0.021562
0.159332
-0.0228551
0.167421
-0.0237583
0.176242
-0.0262968
-0.0229601
0.0474138
0.00767178
-0.0463056
0.0489634
0.00953398
0.0501932
0.0109235
0.0506215
0.0115333
0.0501931
0.0114338
0.0490852
0.0108388
0.0475354
0.00997082
0.045755
0.00900512
0.0438979
0.00805522
0.0420615
0.00718068
0.0403
0.00640365
0.0386395
0.00572542
0.03709
0.00513753
0.0356513
0.00462904
0.0343187
0.00418848
0.0330853
0.00380532
0.0319433
0.00347049
0.0308851
0.00317638
0.0299035
0.00291666
0.0289918
0.0026861
0.0281439
0.00248037
0.0273542
0.00229585
0.026618
0.00212951
0.0259308
0.00197882
0.0252888
0.00184164
0.0246884
0.00171616
0.0241268
0.00160081
0.0236011
0.00149426
0.023109
0.00139537
0.0226484
0.00130311
0.0222176
0.00121662
0.0218149
0.00113511
0.0214389
0.00105789
0.0210884
0.000984328
0.0207626
0.000913812
0.0204604
0.000845784
0.0201814
0.000779714
0.0199251
0.000715111
0.0196911
0.000651421
0.0194793
0.000588125
0.01929
0.000524678
0.0191232
0.000460458
0.0189796
0.000394854
0.01886
0.000326816
0.0187655
0.000255734
0.0186976
0.000180891
0.0186584
9.94386e-05
0.0186506
1.0332e-05
0.0186768
-8.56204e-05
0.0187401
-0.000189896
0.0188445
-0.000305297
0.0189962
-0.000438327
0.0192043
-0.000600151
0.0194789
-0.000796067
0.0198258
-0.00101325
0.0202411
-0.00122056
0.020711
-0.00138436
0.0212167
-0.00148777
0.0217416
-0.00153822
0.0222765
-0.00155947
0.0228196
-0.00157648
0.0233743
-0.00160469
0.023945
-0.00164862
0.0245361
-0.00170647
0.025151
-0.00177525
0.0257928
-0.00185308
0.0264642
-0.00193921
0.0271678
-0.00203343
0.0279063
-0.00213555
0.0286823
-0.00224546
0.0294983
-0.00236315
0.0303569
-0.00248881
0.0312609
-0.00262269
0.032213
-0.00276531
0.0332163
-0.00291716
0.0342739
-0.00307873
0.0353891
-0.00325059
0.0365653
-0.00343335
0.0378063
-0.00362768
0.0391159
-0.0038343
0.0404982
-0.004054
0.0419575
-0.00428758
0.0434985
-0.00453592
0.0451258
-0.00479995
0.0468447
-0.00508066
0.0486603
-0.00537909
0.0505784
-0.00569633
0.0526048
-0.00603355
0.0547457
-0.00639197
0.0570075
-0.00677286
0.0593971
-0.00717758
0.0619215
-0.00760754
0.064588
-0.0080642
0.0674042
-0.00854908
0.0703782
-0.00906383
0.0735181
-0.00960999
0.0768322
-0.0101893
0.0803293
-0.0108036
0.0840182
-0.0114544
0.0879078
-0.0121438
0.0920072
-0.0128735
0.0963257
-0.0136453
0.100872
-0.014461
0.105656
-0.0153227
0.110686
-0.0162318
0.115971
-0.0171903
0.12152
-0.0181997
0.12734
-0.0192616
0.133438
-0.0203775
0.139823
-0.0215486
0.146499
-0.0227758
0.153472
-0.0240604
0.160746
-0.0254014
0.168326
-0.0268015
0.176209
-0.0282523
0.184398
-0.0297504
0.192903
-0.0313609
0.2016
-0.0324547
0.210879
-0.0355757
-0.0316374
0.0508187
0.00685392
-0.0500008
0.0520694
0.00828325
0.0534137
0.00957917
0.0544524
0.0104946
0.0549474
0.0109389
0.0548518
0.0109344
0.0542414
0.0105812
0.0532425
0.0100041
0.051983
0.00931471
0.05057
0.00859364
0.0490835
0.00789016
0.047579
0.00722985
0.0460931
0.00662347
0.0446491
0.00607304
0.0432609
0.00557671
0.0419358
0.00513038
0.0406771
0.00472918
0.0394853
0.00436816
0.0383594
0.00404262
0.0372971
0.00374835
0.0362959
0.00348159
0.0353527
0.00323901
0.0344646
0.0030177
0.0336283
0.00281509
0.032841
0.00262893
0.0320999
0.00245723
0.0314025
0.00229826
0.0307463
0.00215048
0.0301291
0.00201252
0.029549
0.00188318
0.0290043
0.00176135
0.0284933
0.00164609
0.0280147
0.00153649
0.0275673
0.00143174
0.0271501
0.00133105
0.0267622
0.00123366
0.0264031
0.00113886
0.0260722
0.00104598
0.0257693
0.00095426
0.0254945
0.000862965
0.0252478
0.00077133
0.0250298
0.000678475
0.0248412
0.000583533
0.024683
0.000485017
0.0245567
0.000382001
0.0244641
0.000273431
0.0244082
0.000155357
0.0243921
2.64906e-05
0.0244192
-0.00011271
0.0244935
-0.000264283
0.0246204
-0.000432195
0.0248072
-0.00062507
0.0250642
-0.000857213
0.0254032
-0.00113502
0.0258309
-0.00144095
0.0263435
-0.00173319
0.0269256
-0.0019664
0.0275552
-0.00211735
0.0282125
-0.00219552
0.0288857
-0.00223269
0.0295719
-0.00226271
0.0302741
-0.00230691
0.0309974
-0.00237186
0.0317465
-0.00245557
0.0325255
-0.00255424
0.0333379
-0.00266548
0.034187
-0.00278838
0.0350762
-0.00292261
0.0360086
-0.00306793
0.0369872
-0.00322411
0.0380152
-0.00339116
0.0390957
-0.00356926
0.0402318
-0.00375877
0.0414268
-0.00396035
0.0426843
-0.00417464
0.0440078
-0.00440228
0.0454012
-0.00464399
0.0468685
-0.00490059
0.0484137
-0.00517292
0.0500413
-0.00546192
0.0517559
-0.00576857
0.0535622
-0.00609388
0.0554653
-0.00643897
0.0574703
-0.00680497
0.0595827
-0.0071931
0.0618082
-0.00760461
0.0641527
-0.00804084
0.0666223
-0.00850315
0.0692233
-0.00899297
0.0719623
-0.00951178
0.0748458
-0.0100611
0.0778808
-0.0106426
0.0810743
-0.0112577
0.0844335
-0.0119082
0.0879655
-0.0125958
0.0916775
-0.0133221
0.095577
-0.0140888
0.099671
-0.0148976
0.103967
-0.0157502
0.108471
-0.0166483
0.113191
-0.0175935
0.118134
-0.0185873
0.123304
-0.0196313
0.128708
-0.0207268
0.134351
-0.0218751
0.140238
-0.0230773
0.146373
-0.0243346
0.15276
-0.0256479
0.1594
-0.0270177
0.166296
-0.0284448
0.173449
-0.0299291
0.180861
-0.0314716
0.188529
-0.0330697
0.196455
-0.0347276
0.204634
-0.0364316
0.213067
-0.0381831
0.221757
-0.0400513
0.23062
-0.0413175
0.239881
-0.0448368
-0.0406737
0.0545461
0.00619341
-0.0538856
0.0555166
0.00731275
0.0566871
0.00840869
0.0578409
0.00934078
0.0587584
0.0100214
0.0593038
0.010389
0.0594375
0.0104474
0.0591888
0.0102528
0.058622
0.00988154
0.0578106
0.00940501
0.0568228
0.00887798
0.0557152
0.00833747
0.0545324
0.00780621
0.0533085
0.00729694
0.0520691
0.0068161
0.0508336
0.00636594
0.0496158
0.00594696
0.0484258
0.00555818
0.0472705
0.00519793
0.0461545
0.00486426
0.045081
0.00455513
0.0440515
0.00426849
0.0430668
0.00400239
0.042127
0.00375496
0.0412314
0.00352444
0.0403795
0.00330917
0.0395701
0.00310764
0.0388022
0.00291841
0.0380745
0.00274018
0.037386
0.00257172
0.0367354
0.0024119
0.0361218
0.00225969
0.0355442
0.00211411
0.0350017
0.00197423
0.0344937
0.00183912
0.0340194
0.00170788
0.0335787
0.00157965
0.0331711
0.00145358
0.0327966
0.0013287
0.0324555
0.00120407
0.0321482
0.00107869
0.0318752
0.000951389
0.0316378
0.000821022
0.0314372
0.000685589
0.0312754
0.000543782
0.0311547
0.000394164
0.0310785
0.000231566
0.0310506
5.43457e-05
0.0310754
-0.000137503
0.031158
-0.000346839
0.0313046
-0.000578855
0.0315237
-0.000844185
0.0318268
-0.00116024
0.0322265
-0.00153474
0.0327311
-0.00194561
0.0333378
-0.00233988
0.0340306
-0.00265915
0.0347854
-0.00287222
0.0355794
-0.00298951
0.0363977
-0.003051
0.0372355
-0.0031005
0.038095
-0.00316634
0.038981
-0.00325791
0.0398987
-0.00337329
0.0408525
-0.00350799
0.0418462
-0.0036592
0.0428837
-0.00382587
0.0439687
-0.00400766
0.045105
-0.00420422
0.0462961
-0.00441522
0.0475455
-0.00464057
0.0488568
-0.00488048
0.0502333
-0.00513534
0.0516789
-0.00540595
0.0531974
-0.00569309
0.0547926
-0.00599753
0.0564688
-0.00632015
0.0582301
-0.0066619
0.060081
-0.00702381
0.062026
-0.00740696
0.06407
-0.0078125
0.0662177
-0.00824163
0.0684743
-0.0086956
0.0708451
-0.00917571
0.0733353
-0.00968332
0.0759505
-0.0102198
0.0786964
-0.0107867
0.0815786
-0.0113853
0.0846029
-0.0120173
0.0877753
-0.0126841
0.0911015
-0.0133874
0.0945876
-0.0141286
0.0982393
-0.0149094
0.102062
-0.0157314
0.106063
-0.016596
0.110245
-0.0175048
0.114616
-0.0184593
0.119179
-0.0194609
0.12394
-0.020511
0.128903
-0.0216109
0.134071
-0.0227618
0.139448
-0.0239648
0.145038
-0.0252209
0.150842
-0.026531
0.156863
-0.027896
0.163102
-0.0293165
0.169561
-0.0307932
0.176239
-0.0323266
0.183139
-0.0339171
0.190259
-0.0355652
0.197601
-0.037271
0.205165
-0.0390358
0.212952
-0.0408565
0.220965
-0.0427401
0.229202
-0.0446686
0.23767
-0.0466514
0.246372
-0.0487535
0.255272
-0.0502172
0.264446
-0.0540109
-0.0499837
0.058567
0.00562394
-0.0579975
0.0593476
0.00653208
0.0603126
0.00744371
0.0613673
0.00828609
0.062375
0.0090137
0.0632058
0.00955824
0.0637769
0.00987635
0.0640582
0.00997151
0.0640594
0.0098803
0.063813
0.00965144
0.0633597
0.00933123
0.0627402
0.00895697
0.0619907
0.00855572
0.0611419
0.00814575
0.0602194
0.00773857
0.0592443
0.00734107
0.0582344
0.00695685
0.0572045
0.00658805
0.0561669
0.0062356
0.0551313
0.0058998
0.054106
0.00558044
0.0530975
0.00527706
0.0521108
0.00498907
0.05115
0.00471572
0.0502182
0.00445623
0.0493177
0.00420973
0.04845
0.00397532
0.0476163
0.00375208
0.0468174
0.00353907
0.0460538
0.00333536
0.0453257
0.00314002
0.0446332
0.00295216
0.0439764
0.00277087
0.0433554
0.00259527
0.0427701
0.00242442
0.0422206
0.00225736
0.0417071
0.00209315
0.0412299
0.00193083
0.0407893
0.00176927
0.040386
0.00160735
0.0400209
0.00144385
0.039695
0.00127728
0.0394097
0.00110626
0.0391671
0.00092823
0.0389694
0.000741424
0.0388196
0.000544013
0.0387216
0.000329552
0.03868
9.59275e-05
0.0386999
-0.000157407
0.0387875
-0.000434411
0.0389502
-0.000741552
0.0391971
-0.00109113
0.0395403
-0.00150337
0.0399932
-0.00198764
0.0405657
-0.0025181
0.0412569
-0.00303111
0.0420521
-0.00345437
0.0429267
-0.00374678
0.043855
-0.00391785
0.0448191
-0.00401505
0.0458113
-0.00409273
0.0468323
-0.00418734
0.0478863
-0.00431194
0.0489781
-0.00446512
0.0501121
-0.00464193
0.0512922
-0.00483927
0.0525225
-0.00505618
0.0538072
-0.00529237
0.0551504
-0.00554744
0.0565561
-0.0058209
0.058028
-0.00611252
0.05957
-0.00642246
0.0611858
-0.00675111
0.0628792
-0.00709936
0.0646542
-0.0074681
0.0665149
-0.00785819
0.0684653
-0.0082706
0.0705098
-0.00870641
0.0726527
-0.00916673
0.0748986
-0.00965277
0.0772518
-0.0101658
0.0797172
-0.010707
0.0822995
-0.0112778
0.0850033
-0.0118796
0.0878337
-0.0125137
0.0907954
-0.0131815
0.0938933
-0.0138846
0.0971322
-0.0146243
0.100517
-0.015402
0.104052
-0.0162193
0.107742
-0.0170776
0.111592
-0.0179784
0.115606
-0.0189229
0.119787
-0.0199125
0.124139
-0.0209486
0.128667
-0.0220323
0.133372
-0.0231648
0.138259
-0.0243474
0.143329
-0.0255809
0.148584
-0.0268664
0.154027
-0.0282047
0.159659
-0.0295968
0.165481
-0.0310433
0.171495
-0.0325451
0.177703
-0.034103
0.184104
-0.0357177
0.190701
-0.0373901
0.197495
-0.0391212
0.20449
-0.0409118
0.211688
-0.0427635
0.219094
-0.0446769
0.226714
-0.0466551
0.234552
-0.048695
0.24262
-0.0508077
0.250922
-0.0529707
0.259474
-0.0552039
0.268282
-0.0575609
0.277344
-0.0592799
0.286641
-0.0633071
-0.059686
0.0628772
0.00511568
-0.0623689
0.0635367
0.00587254
0.0643419
0.00663856
0.0652554
0.00737255
0.0662067
0.0080624
0.0671043
0.00866061
0.0678677
0.009113
0.0684449
0.00939432
0.0688149
0.00951026
0.0689806
0.00948572
0.0689591
0.00935274
0.0687736
0.0091425
0.0684479
0.00888138
0.0680041
0.00858958
0.0674612
0.00828146
0.0668358
0.00796649
0.0661421
0.00765056
0.0653928
0.0073373
0.0645998
0.00702859
0.0637737
0.00672598
0.0629238
0.00643029
0.0620588
0.00614205
0.0611863
0.00586157
0.0603131
0.00558897
0.059445
0.00532431
0.0585872
0.00506752
0.0577441
0.00481844
0.0569194
0.00457681
0.0561162
0.00434226
0.0553372
0.00411438
0.0545845
0.00389264
0.0538602
0.00367648
0.0531658
0.00346528
0.0525027
0.00325838
0.0518722
0.00305496
0.0512754
0.00285415
0.0507135
0.00265501
0.0501877
0.00245663
0.0496992
0.00225776
0.0492494
0.00205718
0.0488397
0.0018535
0.0484721
0.00164494
0.0481484
0.00142993
0.0478713
0.00120536
0.0476438
0.000968942
0.0474693
0.000718505
0.0473525
0.000446309
0.0472988
0.000149697
0.0473137
-0.000172399
0.0474047
-0.000525384
0.0475802
-0.000917035
0.0478498
-0.00136074
0.0482255
-0.00187902
0.0487209
-0.00248309
0.0493476
-0.00314479
0.0501077
-0.00379118
0.0509895
-0.00433624
0.0519699
-0.00472711
0.0530218
-0.00496978
0.0541241
-0.00511735
0.055266
-0.0052346
0.0564456
-0.00536696
0.0576658
-0.00553211
0.0589303
-0.00572968
0.0602429
-0.00595453
0.0616072
-0.00620358
0.0630273
-0.00647622
0.0645074
-0.00677247
0.0660519
-0.00709196
0.0676651
-0.00743407
0.0693509
-0.00779834
0.0711132
-0.00818478
0.0729558
-0.00859371
0.0748825
-0.00902607
0.0768972
-0.00948278
0.0790037
-0.00996474
0.0812061
-0.010473
0.0835083
-0.0110086
0.0859143
-0.0115727
0.0884282
-0.0121667
0.091054
-0.0127916
0.0937959
-0.0134489
0.0966579
-0.0141398
0.099644
-0.0148657
0.102758
-0.0156279
0.106004
-0.0164278
0.109387
-0.0172666
0.112908
-0.0181458
0.116573
-0.0190666
0.120384
-0.0200303
0.124344
-0.0210382
0.128457
-0.0220914
0.132726
-0.0231912
0.137152
-0.0243387
0.141738
-0.025535
0.146487
-0.026781
0.1514
-0.0280779
0.156479
-0.0294265
0.161726
-0.0308278
0.167143
-0.0322829
0.17273
-0.0337926
0.178492
-0.0353581
0.184429
-0.0369804
0.190544
-0.0386608
0.196842
-0.0404006
0.203326
-0.0422014
0.210001
-0.044065
0.216873
-0.0459934
0.22395
-0.0479887
0.23124
-0.0500537
0.238754
-0.0521904
0.246502
-0.0544034
0.254497
-0.0566901
0.262755
-0.0590653
0.271285
-0.0615015
0.28011
-0.064029
0.289235
-0.0666859
0.29868
-0.0687245
0.308367
-0.0729939
-0.0699508
0.0674928
0.00465259
-0.0670297
0.0680712
0.00529412
0.068763
0.00594677
0.0695539
0.00658164
0.0704102
0.00720615
0.0712773
0.00779351
0.0720924
0.00829786
0.0728031
0.00868358
0.0733759
0.00893749
0.0737965
0.00906508
0.0740662
0.00908307
0.0741955
0.00901323
0.0741991
0.00887775
0.0740923
0.0086964
0.0738888
0.00848498
0.0736002
0.00825506
0.0732363
0.00801446
0.0728055
0.00776813
0.0723151
0.007519
0.0717724
0.00726869
0.0711844
0.00701821
0.0705582
0.00676827
0.0699004
0.00651941
0.0692174
0.00627193
0.0685156
0.0060261
0.067801
0.00578214
0.0670792
0.00554022
0.0663556
0.00530048
0.0656349
0.00506298
0.0649215
0.0048277
0.0642196
0.00459455
0.0635328
0.00436333
0.0628643
0.00413377
0.0622172
0.00390549
0.0615942
0.00367793
0.0609979
0.00345039
0.0604309
0.00322207
0.0598954
0.00299215
0.0593938
0.00275937
0.0589284
0.00252249
0.0585019
0.00228006
0.0581168
0.00203002
0.057776
0.00177071
0.0574829
0.0014985
0.0572412
0.00121057
0.0570553
0.000904472
0.0569303
0.000571237
0.0568725
0.000207574
0.0568879
-0.000187816
0.0569848
-0.000622313
0.0571727
-0.00110494
0.0574615
-0.00164954
0.0578626
-0.00228007
0.0583892
-0.00300969
0.0590539
-0.00380952
0.0598626
-0.00459989
0.0608087
-0.00528232
0.0618726
-0.00579103
0.0630281
-0.00612528
0.0642517
-0.00634094
0.0655291
-0.00651198
0.0668554
-0.00669327
0.0682312
-0.00690792
0.0696587
-0.00715718
0.0711402
-0.007436
0.0726782
-0.00774166
0.0742764
-0.00807434
0.0759387
-0.00843478
0.0776696
-0.00882289
0.0794735
-0.00923793
0.0813543
-0.00967918
0.0833159
-0.0101464
0.0853619
-0.0106397
0.0874959
-0.0111601
0.0897215
-0.0117084
0.0920423
-0.0122855
0.0944617
-0.0128924
0.0969833
-0.0135302
0.0996106
-0.0142
0.102347
-0.0149031
0.105196
-0.0156405
0.108161
-0.0164137
0.111245
-0.0172237
0.114451
-0.0180719
0.117782
-0.0189595
0.121242
-0.0198877
0.124833
-0.0208577
0.128558
-0.0218707
0.132419
-0.0229279
0.13642
-0.0240304
0.140561
-0.0251795
0.144845
-0.0263761
0.149276
-0.0276213
0.153853
-0.0289163
0.15858
-0.0302622
0.16346
-0.0316601
0.168493
-0.0331111
0.173683
-0.0346165
0.179032
-0.0361774
0.184545
-0.0377955
0.190224
-0.0394721
0.196075
-0.0412091
0.202103
-0.0430084
0.208315
-0.044872
0.214716
-0.0468024
0.221317
-0.0488023
0.228127
-0.0508745
0.235156
-0.0530224
0.242416
-0.0552491
0.249921
-0.0575586
0.257684
-0.0599536
0.265721
-0.0624404
0.274047
-0.0650157
0.282679
-0.0676977
0.291631
-0.0704529
0.300923
-0.0733217
0.310561
-0.0763238
0.320574
-0.0787372
0.33085
-0.0832702
-0.0809117
0.072436
0.00422402
-0.0720074
0.0729565
0.00477361
0.0735675
0.00533577
0.0742634
0.00588575
0.0750291
0.00644047
0.0758341
0.00698853
0.0766359
0.00749605
0.0773904
0.00792908
0.0780617
0.00826615
0.078627
0.00849982
0.0790765
0.00863357
0.0794113
0.00867842
0.0796393
0.0086497
0.0797717
0.00856404
0.0798197
0.008437
0.0797932
0.00828151
0.0797003
0.00810735
0.0795471
0.00792134
0.0793383
0.00772785
0.0790775
0.00752944
0.0787682
0.00732756
0.0784139
0.00712256
0.0780183
0.00691495
0.0775855
0.00670476
0.0771195
0.00649211
0.0766247
0.00627693
0.0761057
0.00605922
0.0755672
0.00583895