/*--------------------------------*- C++ -*----------------------------------*\
| =========                 |                                                 |
| \\      /  F ield         | OpenFOAM: The Open Source CFD Toolbox           |
|  \\    /   O peration     | Version:  2412                                  |
|   \\  /    A nd           | Website:  www.openfoam.com                      |
|    \\/     M anipulation  |                                                 |
\*---------------------------------------------------------------------------*/
FoamFile
{
    version     2.0;
    format      ascii;
    arch        "LSB;label=32;scalar=64";
    class       surfaceScalarField;
    location    "0.92";
    object      phi;
}
// * * * * * * * * * * * * * * * * * * * * * * * * * * * * * * * * * * * * * //

dimensions      [0 3 -1 0 0 0 0];

oriented        oriented;

internalField   nonuniform List<scalar> 
24930
(
0.0153905
0.0206922
-0.0361352
0.00630361
0.00908686
0.00288943
0.0034142
0.00161268
0.00127676
0.00103257
0.000580086
0.00069333
0.000339231
0.000465146
0.000228219
0.000301643
0.00016355
0.000180442
0.000121158
8.88221e-05
9.15298e-05
1.7899e-05
7.09378e-05
-3.68343e-05
5.48958e-05
-7.95361e-05
4.2848e-05
-0.000112825
3.31996e-05
-0.000138075
2.49698e-05
-0.000157969
1.97701e-05
-0.000172576
1.49209e-05
-0.000182928
1.08579e-05
-0.000189912
7.03212e-06
-0.000194199
3.51321e-06
-0.000196756
1.55349e-06
-0.000197277
8.80121e-07
-0.000195819
6.61505e-07
-0.000192692
-1.22108e-06
-0.0001891
-4.24775e-06
-0.000184995
-5.57413e-06
-0.000179888
-5.89817e-06
-0.000174179
-5.58426e-06
-0.00016811
-5.75891e-06
-0.000161774
-6.30605e-06
-0.000155322
-6.63224e-06
-0.000148802
-6.60361e-06
-0.000142283
-6.41999e-06
-0.000135798
-6.36781e-06
-0.000129392
-6.41845e-06
-0.000123138
-6.34695e-06
-0.00011705
-6.13209e-06
-0.000111133
-5.87519e-06
-0.000105418
-5.68123e-06
-9.98779e-05
-5.54384e-06
-9.45275e-05
-5.35912e-06
-8.93741e-05
-5.15644e-06
-8.43962e-05
-4.9764e-06
-7.95628e-05
-4.83495e-06
-7.49037e-05
-4.66399e-06
-7.04472e-05
-4.46046e-06
-6.62652e-05
-4.18474e-06
-6.24418e-05
-3.82673e-06
-5.90654e-05
-3.3802e-06
-5.62293e-05
-2.83942e-06
-5.39865e-05
-2.24564e-06
-5.23433e-05
-1.64628e-06
-5.12287e-05
-1.11753e-06
-5.04676e-05
-7.6328e-07
-4.97531e-05
-7.16577e-07
-4.86113e-05
-1.14377e-06
-4.63619e-05
-2.25083e-06
-4.21583e-05
-4.20323e-06
-3.51001e-05
-7.05958e-06
-2.44219e-05
-1.0679e-05
-9.79179e-06
-1.46308e-05
8.42904e-06
-1.82237e-05
2.9218e-05
-2.07958e-05
5.13182e-05
-2.21087e-05
7.39486e-05
-2.26347e-05
9.74584e-05
-2.3507e-05
0.000123632
-2.61664e-05
0.000154871
-3.12319e-05
0.000193495
-3.8617e-05
0.000240427
-4.69223e-05
0.000294344
-5.38977e-05
0.000349341
-5.4974e-05
0.000396517
-4.71688e-05
0.000420954
-2.44626e-05
0.000412073
8.87931e-06
0.000361441
5.06066e-05
0.000281914
7.95232e-05
0.000193059
8.88559e-05
0.000122332
7.07161e-05
7.01294e-05
5.21752e-05
2.94899e-05
4.06171e-05
1.2761e-05
1.67662e-05
2.47169e-05
-1.19268e-05
8.86604e-06
1.58529e-05
-2.27932e-05
3.16585e-05
-6.04626e-05
3.76809e-05
-0.000173841
0.000113375
-0.000369465
0.000195638
-0.000605453
0.000235992
-0.000754012
0.000148481
-0.000537485
-0.00021656
8.92371e-05
-0.000626676
0.0013961
-0.00130691
0.00230422
-0.000908394
0.00242977
-0.000124981
0.00302526
-0.000595823
0.00149057
0.00153464
-0.000405564
0.0018962
-0.000317707
-8.81163e-05
-0.000302546
-1.52226e-05
-4.43332e-05
-0.000258166
0.000422325
-0.000466641
0.000624547
-0.000202195
0.000831724
-0.000207179
0.00100748
-0.000175794
0.000417661
0.000589865
-0.0012153
0.00163297
-0.00363274
0.00241743
-0.00594963
0.00231689
-0.00759012
0.00164047
-0.00796099
0.000370859
-0.00721489
-0.000745996
-0.00550407
-0.00171079
-0.00352376
-0.00198027
-0.00177527
-0.00174845
-0.000856041
-0.00091922
5.40274e-05
-0.000910067
0.000188581
-0.000134558
0.0001182
7.03648e-05
-0.000241895
0.0326725
0.0296534
-0.0416337
0.0218115
0.0199479
0.0137249
0.0115008
0.00877911
0.00622257
0.0058838
0.00347537
0.00410826
0.00211478
0.00293027
0.00140629
0.002097
0.000996956
0.00148191
0.000736335
0.00101437
0.00055898
0.000652942
0.000432125
0.000369844
0.000337902
0.000146972
0.000265978
-2.81297e-05
0.000208713
-0.000175413
0.000172364
-0.00029062
0.000134553
-0.000380791
0.000104556
-0.000450572
8.06986e-05
-0.000503853
6.1112e-05
-0.000543247
4.35577e-05
-0.000571922
2.96676e-05
-0.000590827
1.86949e-05
-0.000601534
1.10801e-05
-0.00060523
3.43778e-06
-0.000604097
-5.02196e-06
-0.000598508
-1.08353e-05
-0.000589219
-1.47918e-05
-0.000576736
-1.83349e-05
-0.000561849
-2.10228e-05
-0.000545087
-2.30159e-05
-0.000527022
-2.44619e-05
-0.000508011
-2.55981e-05
-0.000488415
-2.62213e-05
-0.000468484
-2.64297e-05
-0.000448405
-2.6414e-05
-0.000428433
-2.61736e-05
-0.000408698
-2.58455e-05
-0.000389301
-2.53793e-05
-0.00037035
-2.47056e-05
-0.000351873
-2.40072e-05
-0.000333893
-2.33109e-05
-0.000316455
-2.26019e-05
-0.000299528
-2.19376e-05
-0.000283054
-2.13343e-05
-0.000267125
-2.05947e-05
-0.000251855
-1.97258e-05
-0.000237482
-1.85618e-05
-0.000224307
-1.70117e-05
-0.000212649
-1.50454e-05
-0.00020283
-1.26576e-05
-0.000195049
-1.00237e-05
-0.000189335
-7.35934e-06
-0.000185457
-4.99683e-06
-0.00018282
-3.40262e-06
-0.000180363
-3.17344e-06
-0.000176438
-5.06702e-06
-0.000168688
-1.0001e-05
-0.000154189
-1.87037e-05
-0.000129808
-3.14413e-05
-9.28477e-05
-4.76405e-05
-4.20808e-05
-6.54009e-05
2.14781e-05
-8.17903e-05
9.44936e-05
-9.38254e-05
0.00017269
-0.000100327
0.000253258
-0.000103233
0.000337152
-0.000107439
0.000429778
-0.000118834
0.000539021
-0.000140516
0.000672117
-0.000171755
0.000832497
-0.000207346
0.00101557
-0.000237014
0.0012034
-0.000242833
0.00136605
-0.000209822
0.00145633
-0.000114736
0.00143512
3.01018e-05
0.00127398
0.000211759
0.00100336
0.000350153
0.000689783
0.000402436
0.000424329
0.000336169
0.00022711
0.00024939
8.15991e-05
0.000186111
3.13795e-05
6.69303e-05
8.07847e-05
-6.13654e-05
3.88257e-05
5.78275e-05
-7.32196e-05
0.000143725
-0.000223061
0.000187538
-0.000635391
0.000525733
-0.00132666
0.000886934
-0.00214731
0.00105665
-0.00263293
0.000634116
-0.00200028
-0.000849181
0.000102216
-0.00272917
0.00435842
-0.00556321
0.0073059
-0.00385554
0.00806089
-0.000880103
0.0101559
-0.00269083
0.00559031
0.00610056
-0.000771739
0.00825807
-0.00104929
0.000189424
-0.00094021
-0.000124093
-4.45611e-05
-0.00115388
0.00146749
-0.00197866
0.00220907
-0.000943772
0.00286311
-0.000861216
0.00310307
-0.000415732
0.000586936
0.00310596
-0.00529624
0.00751613
-0.0132746
0.0103959
-0.020463
0.0095053
-0.0249255
0.00610297
-0.0255007
0.000946069
-0.0226162
-0.00363058
-0.0171046
-0.0072223
-0.0106574
-0.00842748
-0.00516697
-0.00723893
-0.00221453
-0.00387165
0.000476943
-0.00360154
0.000830485
-0.000488102
0.000501055
0.000399814
-0.00102133
0.0423321
0.0320472
-0.0447259
0.0350024
0.0272776
0.0264849
0.0200183
0.0191895
0.0135179
0.0138146
0.00885022
0.0100628
0.00586663
0.00743163
0.00403754
0.00553027
0.00289837
0.00411098
0.00215557
0.00302368
0.00164618
0.00217441
0.00128136
0.0015019
0.00101054
0.000964153
0.000803923
0.000531525
0.000641411
0.000184293
0.000519444
-9.64989e-05
0.000415115
-0.00032428
0.000332294
-0.000505792
0.000262467
-0.000649653
0.000205398
-0.000761698
0.000155977
-0.000847899
0.000115855
-0.000912256
8.16324e-05
-0.000957557
5.40295e-05
-0.000986783
3.18659e-05
-0.00100277
1.17235e-05
-0.00100883
-4.6126e-06
-0.00100593
-1.76442e-05
-0.000995383
-2.90751e-05
-0.000978614
-3.79465e-05
-0.000956947
-4.45989e-05
-0.000931572
-4.97474e-05
-0.000903303
-5.39111e-05
-0.000872973
-5.66392e-05
-0.000841221
-5.81897e-05
-0.000808504
-5.90732e-05
-0.000775332
-5.93098e-05
-0.000742038
-5.9163e-05
-0.000708901
-5.85603e-05
-0.000676199
-5.74194e-05
-0.000644063
-5.61299e-05
-0.000612569
-5.48011e-05
-0.000581834
-5.33535e-05
-0.00055186
-5.19353e-05
-0.000522591
-5.06164e-05
-0.000494202
-4.89858e-05
-0.000466919
-4.70115e-05
-0.000441168
-4.43207e-05
-0.000417506
-4.06838e-05
-0.000396521
-3.60364e-05
-0.000378807
-3.03747e-05
-0.000364741
-2.4092e-05
-0.000354392
-1.77107e-05
-0.000347365
-1.20279e-05
-0.000342594
-8.17619e-06
-0.000338173
-7.59703e-06
-0.00033112
-1.21212e-05
-0.000317188
-2.39362e-05
-0.000291086
-4.48086e-05
-0.000247131
-7.53971e-05
-0.000180403
-0.00011437
-8.85492e-05
-0.000157258
2.68576e-05
-0.000197206
0.000160023
-0.000227006
0.000303452
-0.000243777
0.000451872
-0.000251676
0.000606538
-0.000262131
0.000776215
-0.000288538
0.000974385
-0.000338713
0.00121322
-0.000410622
0.00149912
-0.000493269
0.0018245
-0.000562407
0.00215987
-0.000578218
0.00245387
-0.000503829
0.00262599
-0.000286861
0.00260405
5.20599e-05
0.00233359
0.000482215
0.00185463
0.000829118
0.00128015
0.000976908
0.000774751
0.00084155
0.000396026
0.000628092
0.000126534
0.000455581
4.31773e-05
0.000150271
0.000145468
-0.000163663
8.50351e-05
0.000118268
-0.000122724
0.000351498
-0.000421917
0.00048674
-0.00119879
0.00130261
-0.00247061
0.00215878
-0.0039489
0.00253494
-0.00480527
0.00149046
-0.00377672
-0.00187773
-0.000112653
-0.00639322
0.00714719
-0.0128232
0.0123297
-0.00903788
0.0138794
-0.00242996
0.0178231
-0.00663461
0.0107006
0.0132232
-0.000545369
0.019504
-0.00175954
0.00140367
-0.00158061
-0.000302871
7.8279e-05
-0.00281281
0.00267848
-0.00457882
0.004042
-0.00230728
0.00510012
-0.00191934
0.0050495
-0.000365106
-9.46602e-05
0.00825013
-0.0109854
0.0184069
-0.0248567
0.0242672
-0.0365135
0.0211621
-0.0430335
0.012623
-0.0430852
0.000997828
-0.0376505
-0.0090653
-0.0282015
-0.0166712
-0.0173299
-0.0192991
-0.00808192
-0.0164869
-0.00314161
-0.00881194
0.00121389
-0.00795703
0.00170337
-0.000977578
0.0010396
0.0010636
-0.00236723
0.0481317
0.0316344
-0.0477189
0.0447745
0.0306349
0.0384287
0.0263642
0.0310855
0.0208611
0.0242914
0.0156443
0.0187121
0.0114459
0.0143778
0.00837201
0.0110585
0.00621761
0.00850058
0.00471348
0.00650325
0.00364342
0.00492268
0.00286194
0.00365761
0.00227575
0.00263607
0.00182563
0.00180591
0.00147156
0.00113054
0.00119463
0.000578465
0.000967034
0.000129102
0.00078177
-0.00023758
0.000629472
-0.0005346
0.000502615
-0.000772209
0.00039343
-0.000960802
0.000304099
-0.00110764
0.000228173
-0.00121917
0.000165355
-0.00130105
0.000113656
-0.00135809
7.0557e-05
-0.00139387
3.26693e-05
-0.00141196
3.4399e-07
-0.00141626
-2.48605e-05
-0.00140829
-4.5931e-05
-0.0013902
-6.25698e-05
-0.00136425
-7.56502e-05
-0.00133198
-8.6243e-05
-0.00129492
-9.37645e-05
-0.00125432
-9.87762e-05
-0.00121107
-0.000102271
-0.00116607
-0.00010429
-0.00111999
-0.000105273
-0.00107339
-0.000105193
-0.00102683
-0.00010399
-0.000980597
-0.000102346
-0.000934911
-0.000100489
-0.000890012
-9.82731e-05
-0.000845982
-9.59889e-05
-0.000802804
-9.38069e-05
-0.000760766
-9.1028e-05
-0.000720234
-8.75477e-05
-0.000681859
-8.27057e-05
-0.000646495
-7.60595e-05
-0.000615048
-6.74921e-05
-0.000588427
-5.69998e-05
-0.000567235
-4.52872e-05
-0.000551609
-3.33417e-05
-0.000540981
-2.26606e-05
-0.000533774
-1.53862e-05
-0.00052713
-1.42426e-05
-0.000516572
-2.26814e-05
-0.000495729
-4.47825e-05
-0.000456649
-8.38917e-05
-0.000390759
-0.000141289
-0.000290583
-0.000214547
-0.000152397
-0.000295449
2.17864e-05
-0.000371399
0.000223643
-0.000428878
0.000442123
-0.000462278
0.00066903
-0.000478608
0.000905472
-0.000498599
0.00116327
-0.000546365
0.00146154
-0.000637013
0.00181758
-0.000766691
0.00224119
-0.000916905
0.00272243
-0.00104368
0.00322091
-0.00107672
0.00366425
-0.00094718
0.00393697
-0.000559605
0.00393104
5.80081e-05
0.00355726
0.000855982
0.00285537
0.001531
0.00198217
0.00185011
0.00118671
0.00163699
0.000584116
0.00123066
0.000168004
0.000871676
5.19875e-05
0.000266284
0.000224927
-0.0003366
0.000154323
0.000188883
-0.000168658
0.000674497
-0.000663789
0.000981879
-0.00188142
0.00252025
-0.003826
0.00410339
-0.00602924
0.00473818
-0.00728925
0.00275044
-0.00586443
-0.00330253
-0.000591214
-0.0116664
0.00959441
-0.023009
0.0172209
-0.0166642
0.0196204
-0.00482955
0.0257394
-0.0127539
0.0169166
0.0220464
0.000441004
0.0359794
-0.00237274
0.0042174
-0.00218548
-0.000489979
0.000367249
-0.00536557
0.00407636
-0.00828788
0.00612964
-0.00436055
0.00748555
-0.00327525
0.00668534
0.000435106
-0.00185476
0.0167902
-0.018509
0.0350611
-0.0383195
0.0440778
-0.0537789
0.0366214
-0.061327
0.0201711
-0.0601128
-0.000216363
-0.0517817
-0.0173964
-0.038495
-0.0299579
-0.0233779
-0.0344162
-0.0104304
-0.0294343
-0.00353522
-0.0157071
0.00232011
-0.0138123
0.00282509
-0.00148256
0.00176568
0.00212301
-0.00431571
0.0519506
0.030533
-0.0508492
0.0512635
0.031322
0.0478202
0.0298075
0.0422585
0.0264227
0.0357723
0.0221306
0.0294008
0.0178175
0.0237364
0.0140364
0.0189729
0.0109812
0.0150711
0.00861525
0.0119026
0.00681178
0.00932897
0.00543561
0.00723042
0.00437445
0.00551138
0.0035448
0.00409741
0.00288551
0.00293275
0.00235912
0.0019708
0.00192887
0.0011771
0.00157561
0.000523759
0.00128308
-1.01955e-05
0.00103667
-0.000450531
0.000833572
-0.000805664
0.000659007
-0.00108975
0.00051235
-0.00131355
0.000389599
-0.0014864
0.000286851
-0.00161603
0.000200457
-0.00171004
0.000126868
-0.0017747
6.45002e-05
-0.00181069
1.14485e-05
-0.00182701
-2.94379e-05
-0.00182605
-6.3368e-05
-0.00181025
-9.14268e-05
-0.00178259
-0.00011398
-0.00174563
-0.000130777
-0.00170151
-0.000142868
-0.0016518
-0.000151933
-0.00159799
-0.000158091
-0.00154126
-0.000162039
-0.0014826
-0.000163881
-0.00142298
-0.000163619
-0.00136298
-0.000162326
-0.00130304
-0.000160433
-0.0012436
-0.000157731
-0.00118491
-0.00015471
-0.00112702
-0.000151706
-0.00107039
-0.000147663
-0.00101556
-0.000142377
-0.000963457
-0.00013482
-0.000915273
-0.000124255
-0.000872286
-0.000110487
-0.00083578
-9.35104e-05
-0.000806632
-7.4439e-05
-0.000785077
-5.49021e-05
-0.000770379
-3.73643e-05
-0.000760405
-2.53651e-05
-0.000751244
-2.34061e-05
-0.000736758
-3.71705e-05
-0.000708211
-7.33334e-05
-0.000654687
-0.000137418
-0.000564404
-0.000231573
-0.000427022
-0.00035193
-0.00023719
-0.000485286
2.77368e-06
-0.000611373
0.00028196
-0.000708082
0.000585506
-0.000765847
0.000901795
-0.000794923
0.00123123
-0.000828063
0.00158824
-0.000903397
0.00199742
-0.00104622
0.00248128
-0.00125058
0.00305347
-0.00148912
0.00370268
-0.0016929
0.00437862
-0.00175267
0.00498948
-0.00155805
0.0053847
-0.000954836
0.0054162
2.65063e-05
0.00495276
0.00131941
0.00402043
0.00246333
0.00281232
0.00305822
0.00167328
0.00277602
0.000799783
0.00210414
0.00021261
0.00145883
6.39489e-05
0.000414935
0.000326309
-0.000598965
0.000254362
0.000260835
-0.000208631
0.0011375
-0.000959286
0.00173254
-0.00270683
0.00426779
-0.00542049
0.00681708
-0.00840518
0.00772287
-0.0100849
0.00443009
-0.00824981
-0.00513755
-0.00128591
-0.0186302
0.0114935
-0.0357886
0.0217993
-0.0269698
0.0249969
-0.00802717
0.0335009
-0.0212581
0.0242641
0.0312836
0.00224475
0.0579986
-0.00281561
0.00927771
-0.00271514
-0.000590302
0.00085095
-0.0089317
0.0056796
-0.0131165
0.008472
-0.00715293
0.00995618
-0.00475945
0.007843
0.00254833
-0.00495302
0.0295863
-0.0279701
0.0580781
-0.0534934
0.0696011
-0.0717202
0.0548482
-0.0792321
0.0276831
-0.0760971
-0.00335134
-0.0647428
-0.0287507
-0.0478314
-0.0468694
-0.0288774
-0.0533702
-0.0122915
-0.0460201
-0.00340791
-0.0245907
0.00379861
-0.0210188
0.00419769
-0.00188163
0.00270177
0.00361894
-0.00692612
0.0550842
0.0295863
-0.0541374
0.0555978
0.0308084
0.0544583
0.030947
0.0512759
0.029605
0.0464262
0.0269802
0.0406476
0.0235962
0.0346644
0.0200197
0.0289951
0.0166505
0.0239165
0.0136938
0.019518
0.0112102
0.0157791
0.00917449
0.0126304
0.0075233
0.00998926
0.00618606
0.00777695
0.00509781
0.00592624
0.00420969
0.00437818
0.00347686
0.00308513
0.00286875
0.00200729
0.00236109
0.0011112
0.00193283
0.000370521
0.00157414
-0.000238773
0.00126828
-0.000736373
0.00101025
-0.00113792
0.000791629
-0.0014578
0.000606908
-0.00170804
0.000450458
-0.00189919
0.000317467
-0.00204013
0.000204957
-0.00214159
0.00011207
-0.00220437
3.35469e-05
-0.00223795
-2.96234e-05
-0.0022491
-8.02867e-05
-0.00223923
-0.000123945
-0.00221296
-0.0001571
-0.00217379
-0.000181993
-0.00212431
-0.000201362
-0.00206687
-0.000215527
-0.00200341
-0.000225544
-0.00193555
-0.000231764
-0.00186487
-0.000234305
-0.0017924
-0.000234777
-0.00171892
-0.000233919
-0.00164519
-0.00023148
-0.00157171
-0.000228216
-0.0014987
-0.000224723
-0.00142684
-0.000219532
-0.0013569
-0.000212316
-0.00129013
-0.000201606
-0.00122812
-0.000186276
-0.00117259
-0.00016603
-0.00112525
-0.000140852
-0.00108732
-0.000112373
-0.00105917
-8.30582e-05
-0.0010399
-5.66406e-05
-0.00102678
-3.84934e-05
-0.00101474
-3.545e-05
-0.000995811
-5.60992e-05
-0.000958671
-0.000110477
-0.000889154
-0.000206938
-0.000771958
-0.000348771
-0.000593584
-0.000530306
-0.00034681
-0.000732065
-3.41032e-05
-0.000924091
0.000331048
-0.00107325
0.00072972
-0.00116454
0.00114637
-0.0012116
0.00158007
-0.00126178
0.00204722
-0.00137058
0.00257767
-0.0015767
0.00319921
-0.00187215
0.00392978
-0.00221971
0.00475794
-0.00252108
0.00562501
-0.00261975
0.00642204
-0.00235509
0.00696372
-0.00149652
0.00706095
-7.07593e-05
0.00652861
0.00185175
0.00536624
0.0036257
0.00379065
0.00463381
0.00225216
0.00431449
0.00105594
0.00330033
0.000270227
0.00224452
8.79018e-05
0.000597249
0.000458109
-0.000969178
0.000392955
0.000325992
-0.000241702
0.00177217
-0.0013224
0.00281324
-0.00370181
0.0066472
-0.00728144
0.0103967
-0.0110894
0.0115308
-0.0131835
0.00652408
-0.0109061
-0.00741485
-0.00214891
-0.0273874
0.0126527
-0.0505904
0.0258691
-0.040186
0.0297519
-0.01191
0.0406651
-0.0321717
0.032716
0.0392332
0.00511144
0.085603
-0.00298124
0.0173703
-0.00311346
-0.00045791
0.0015538
-0.013599
0.00750298
-0.0190656
0.0110633
-0.0107132
0.0124235
-0.00611961
0.00831499
0.00665681
-0.00962105
0.0475224
-0.0393911
0.0878482
-0.0700071
0.100217
-0.0897324
0.0745735
-0.0961491
0.0340998
-0.0906794
-0.00882101
-0.0763642
-0.0430659
-0.0562428
-0.0669907
-0.0339493
-0.0756636
-0.0137615
-0.0662079
-0.00271732
-0.0356349
0.00567122
-0.0294074
0.00583602
-0.00204643
0.00388229
0.00557269
-0.0102712
0.0583108
0.0289264
-0.0576509
0.0590709
0.0300483
0.0591693
0.0308486
0.0579245
0.0308497
0.0550963
0.0298084
0.0508804
0.0278122
0.045725
0.0251751
0.0401354
0.0222401
0.0345445
0.0192847
0.0292565
0.0164981
0.024445
0.013986
0.0201796
0.0117889
0.0164616
0.00990416
0.0132555
0.00830391
0.0105113
0.00695373
0.00817394
0.00581418
0.00619117
0.00485156
0.00451558
0.00403679
0.00310481
0.00334366
0.00192314
0.00275583
0.000937993
0.00225359
0.000122611
0.00182601
-0.000547269
0.00146188
-0.0010921
0.00115168
-0.00152971
0.000887571
-0.00187569
0.000662833
-0.00214341
0.000472407
-0.00234409
0.000312789
-0.00249098
0.000180746
-0.00259032
6.99266e-05
-0.00264771
-2.29719e-05
-0.00267623
-9.55181e-05
-0.00267679
-0.000156578
-0.00265562
-0.000203113
-0.00261681
-0.000240118
-0.00256405
-0.000268292
-0.00250036
-0.000289281
-0.00242831
-0.000303841
-0.00235032
-0.000312295
-0.00226812
-0.000316965
-0.00218298
-0.000319059
-0.00209616
-0.00031832
-0.00200855
-0.000315853
-0.00192063
-0.00031265
-0.00183339
-0.000306781
-0.00174792
-0.000297794
-0.00166583
-0.000283704
-0.00158921
-0.000262909
-0.00152027
-0.000234979
-0.00146125
-0.000199882
-0.00141375
-0.000159873
-0.00137834
-0.000118477
-0.00135396
-8.10266e-05
-0.00133724
-5.52139e-05
-0.00132188
-5.08217e-05
-0.0012979
-8.00792e-05
-0.00125118
-0.000157202
-0.00116404
-0.000294076
-0.0010174
-0.000495413
-0.000794339
-0.000753372
-0.000485533
-0.00104088
-9.34278e-05
-0.00131621
0.000365956
-0.00153266
0.000869469
-0.00166808
0.00139716
-0.00173932
0.00194602
-0.00181067
0.00253375
-0.00195834
0.00319503
-0.00223801
0.00396291
-0.00264006
0.00486007
-0.0031169
0.00587639
-0.00353741
0.00694661
-0.00368998
0.00794778
-0.00335627
0.00866192
-0.00221068
0.00885737
-0.000266229
0.00828771
0.0024214
0.00690705
0.00500636
0.00493832
0.00660253
0.00294416
0.00630863
0.00136921
0.00487526
0.00035456
0.00325914
0.000135329
0.000816466
0.000629482
-0.00146334
0.000577036
0.000378438
-0.000269468
0.00261869
-0.00177151
0.00431529
-0.00489639
0.00977208
-0.00943424
0.0149346
-0.0140862
0.0161829
-0.016566
0.00900379
-0.0137959
-0.0101849
-0.00312476
-0.0380584
0.0129152
-0.0666307
0.029282
-0.0565525
0.0336951
-0.0163232
0.0468551
-0.0453321
0.0421913
0.0438975
0.00914746
0.118647
-0.00274524
0.0292629
-0.0033238
0.000120794
0.00248649
-0.0194094
0.0095555
-0.0261345
0.0138832
-0.0150409
0.0147782
-0.00701459
0.00788986
0.0135452
-0.0160241
0.0714363
-0.0526662
0.12449
-0.0873687
0.13492
-0.107199
0.0944035
-0.111753
0.0386544
-0.103823
-0.0167513
-0.086824
-0.0600648
-0.0639452
-0.0898695
-0.0388773
-0.100731
-0.0150434
-0.0900418
-0.00150619
-0.0491721
0.0079354
-0.0388489
0.00775169
-0.00186273
0.00534301
0.00798138
-0.0144416
0.0618957
0.0284514
-0.0614207
0.0625263
0.0294177
0.0630196
0.0303554
0.0628775
0.0309917
0.0616731
0.0310129
0.0592163
0.030269
0.0555765
0.028815
0.0510038
0.0268128
0.0458332
0.0244553
0.0404062
0.0219251
0.0350171
0.0193751
0.0298849
0.0169211
0.0251487
0.0146405
0.0208779
0.0125747
0.0170922
0.0107393
0.0137779
0.00912839
0.0109037
0.00772583
0.00842975
0.00651074
0.00631386
0.00545961
0.00451589
0.00455392
0.00299692
0.00377284
0.00172222
0.00310107
0.000660223
0.00252405
-0.000217341
0.00202897
-0.000935424
0.00160508
-0.0015161
0.00124301
-0.00197875
0.000934994
-0.00234045
0.000674745
-0.00261574
0.000456367
-0.00281969
0.000274035
-0.00296611
0.000123408
-0.0030545
-7.06232e-06
-0.00310658
-0.000104492
-0.0031229
-0.000186728
-0.00311058
-0.000252394
-0.00307519
-0.00030369
-0.00302143
-0.000343093
-0.00295319
-0.000372105
-0.00287412
-0.000391355
-0.00278695
-0.000404122
-0.00269372
-0.000412302
-0.00259637
-0.000415695
-0.00249638
-0.000415862
-0.00239466
-0.000414381
-0.0022926
-0.000408837
-0.00219174
-0.000398665
-0.00209415
-0.000381314
-0.00200246
-0.000354605
-0.0019195
-0.000317954
-0.00184808
-0.0002713
-0.00179032
-0.000217646
-0.00174699
-0.00016181
-0.00171693
-0.000111095
-0.0016961
-7.60491e-05
-0.00167685
-7.00792e-05
-0.00164709
-0.000109844
-0.00158969
-0.000214605
-0.00148327
-0.0004005
-0.00130473
-0.000673951
-0.00103353
-0.00102457
-0.000658056
-0.00141636
-0.00018053
-0.00179375
0.000380614
-0.00209382
0.000997925
-0.00228542
0.0016466
-0.00238802
0.00232081
-0.00248492
0.00303873
-0.00267629
0.00383935
-0.00303866
0.00476091
-0.00356166
0.00583121
-0.00418722
0.00704306
-0.00474928
0.00832676
-0.00497369
0.00954917
-0.00457869
0.010463
-0.00312455
0.0107946
-0.000597778
0.010228
0.00298801
0.00865428
0.00658004
0.00627729
0.00897952
0.00377374
0.00881217
0.00176089
0.00688808
0.000483427
0.00453658
0.000220333
0.00107954
0.000849586
-0.0020926
0.000811365
0.000416658
-0.000297414
0.00372748
-0.00232992
0.0063478
-0.00632299
0.0137652
-0.0119002
0.0205118
-0.0173916
0.0216743
-0.0202071
0.0118193
-0.0168782
-0.0135138
-0.00418725
-0.0507492
0.0122348
-0.0830531
0.0319877
-0.0763051
0.036778
-0.0211135
0.051892
-0.0604465
0.0525823
0.0432075
0.0144551
0.156774
-0.00195867
0.0456766
-0.00328078
0.00144311
0.00364111
-0.0263313
0.0118368
-0.0343301
0.0168948
-0.0200989
0.0168851
-0.00700498
0.00634424
0.0240861
-0.0242846
0.102065
-0.0675656
0.167771
-0.104999
0.172353
-0.123634
0.113039
-0.125943
0.0409625
-0.115736
-0.0269575
-0.0964442
-0.0793569
-0.0712664
-0.115047
-0.043906
-0.128092
-0.0163178
-0.11763
0.000175886
-0.0656657
0.0105924
-0.0492654
0.00997305
-0.00124334
0.0071342
0.0108202
-0.0195355
0.0658319
0.0280681
-0.0654487
0.0662966
0.028953
0.0667855
0.0298665
0.0670628
0.0307143
0.0668
0.0312757
0.065703
0.031366
0.0636058
0.0309123
0.0604921
0.0299265
0.0564744
0.028473
0.0517541
0.0266453
0.0465784
0.0245508
0.041202
0.0222977
0.0358552
0.0199874
0.0307225
0.0177075
0.0259337
0.015528
0.0215651
0.0134969
0.0176495
0.0116414
0.0141883
0.00997184
0.011163
0.00848503
0.00854405
0.00717301
0.00629579
0.00602139
0.00438109
0.00501601
0.0027632
0.00414192
0.00140712
0.00338469
0.000280493
0.0027312
-0.000646076
0.00216929
-0.0013995
0.00168856
-0.00200381
0.00127941
-0.00248022
0.00093306
-0.00284755
0.000641409
-0.0031225
0.000398238
-0.00332673
0.000196866
-0.00345695
2.5772e-05
-0.00353893
-0.000104669
-0.00357666
-0.000214631
-0.00357768
-0.000302692
-0.00354916
-0.00037166
-0.00349703
-0.000424258
-0.00342664
-0.00046173
-0.00334216
-0.000488589
-0.00324675
-0.000507732
-0.00314334
-0.000519125
-0.00303431
-0.000524913
-0.00292117
-0.000527535
-0.00280592
-0.000524093
-0.00269064
-0.000513954
-0.00257799
-0.000493977
-0.00247129
-0.000461313
-0.00237404
-0.000415211
-0.00228978
-0.000355569
-0.00222117
-0.000286261
-0.00216933
-0.000213664
-0.00213298
-0.000147454
-0.00210741
-0.000101616
-0.00208359
-9.39118e-05
-0.00204717
-0.000146262
-0.00197791
-0.000283869
-0.00185056
-0.00052785
-0.00163789
-0.000886624
-0.00131559
-0.00134688
-0.000869567
-0.00186238
-0.000301617
-0.00236171
0.00036762
-0.00276308
0.00110644
-0.00302427
0.00188484
-0.00316645
0.00269345
-0.00329356
0.00355002
-0.0035329
0.00449719
-0.00398586
0.00557833
-0.00464283
0.00682658
-0.00543549
0.00823948
-0.0061622
0.00974502
-0.00647924
0.0112042
-0.00603792
0.0123447
-0.00426497
0.0128534
-0.00110658
0.0123406
0.00350087
0.0106149
0.0083057
0.00782929
0.0117651
0.00476865
0.0118728
0.00225696
0.00939975
0.000678788
0.00611473
0.000359182
0.00139913
0.00112647
-0.0028599
0.00109694
0.000446188
-0.000336362
0.0051608
-0.00302617
0.00903761
-0.00801507
0.018754
-0.0146942
0.027191
-0.0209927
0.0279728
-0.0240803
0.0149068
-0.0201162
-0.0174778
-0.00535801
-0.0655074
0.0107417
-0.099153
0.0341001
-0.0996633
0.0391235
-0.0261369
0.0558906
-0.0772141
0.0637712
0.0353276
0.0211208
0.199424
-0.000479782
0.067277
-0.00291518
0.00387869
0.00499738
-0.0342439
0.0143334
-0.043666
0.0200363
-0.0258018
0.018587
-0.00555576
0.00346669
0.0392065
-0.0344501
0.139982
-0.0837494
0.217071
-0.122331
0.210934
-0.138813
0.129521
-0.139026
0.0411755
-0.12692
-0.039064
-0.105733
-0.100543
-0.0785759
-0.142205
-0.0492033
-0.157464
-0.0177533
-0.14908
0.00201138
-0.0854304
0.0136263
-0.0608803
0.0125404
-0.000157512
0.0093153
0.0140453
-0.0256534
0.0700794
0.027734
-0.0697452
0.0704403
0.028592
0.0708339
0.0294729
0.071179
0.0303693
0.0713035
0.0311512
0.0709863
0.0316833
0.0700184
0.0318803
0.0682497
0.0316952
0.065613
0.0311096
0.0621266
0.0301317
0.0578852
0.0287922
0.0530435
0.0271394
0.0477967
0.0252344
0.042356
0.0231483
0.0369246
0.0209594
0.0316759
0.0187455
0.0267408
0.0165765
0.0222043
0.0145083
0.0181107
0.0125787
0.0144731
0.0108108
0.0112818
0.00921293
0.00851295
0.00778492
0.00613466
0.00652009
0.00411092
0.00540808
0.00240487
0.00443692
0.000980316
0.0035938
-0.000197032
0.00286619
-0.00115863
0.00224136
-0.00193451
0.00170912
-0.00255048
0.00125733
-0.00303035
0.000877976
-0.00339348
0.000559911
-0.00366622
0.00029854
-0.00385139
8.05792e-05
-0.00397087
-9.51283e-05
-0.00403685
-0.000236744
-0.00405645
-0.000352109
-0.00403877
-0.000441945
-0.00399183
-0.000508655
-0.00392184
-0.000558576
-0.00383352
-0.000596066
-0.00373129
-0.000621386
-0.00361878
-0.00063744
-0.00349841
-0.000647912
-0.00337305
-0.000649467
-0.00324551
-0.000641501
-0.0031192
-0.0006203
-0.00299827
-0.000582264
-0.00288701
-0.000526479
-0.00278979
-0.000452792
-0.00270998
-0.000366082
-0.00264908
-0.000274571
-0.00260581
-0.000190738
-0.0025748
-0.000132632
-0.00254556
-0.000123147
-0.00250151
-0.000190325
-0.00241916
-0.000366214
-0.00226939
-0.000677624
-0.00202078
-0.00113524
-0.00164517
-0.00172249
-0.00112588
-0.00238168
-0.000463986
-0.00302361
0.000317971
-0.00354506
0.00118426
-0.00389059
0.00209941
-0.00408163
0.00304986
-0.00424405
0.00405207
-0.00453515
0.00515156
-0.00508538
0.00639671
-0.00588802
0.00782615
-0.00686497
0.00944392
-0.00777999
0.0111779
-0.0082132
0.0128877
-0.00774776
0.0142805
-0.00565779
0.0150097
-0.00183575
0.0146093
0.00390122
0.0127898
0.0101252
0.00961435
0.0149406
0.00595924
0.0155279
0.00288793
0.012471
0.000966479
0.00803616
0.000569604
0.00179599
0.00146579
-0.00375611
0.00142921
0.000482772
-0.00040392
0.00699393
-0.00389401
0.0125277
-0.0100054
0.0248654
-0.0178233
0.035009
-0.024871
0.0350204
-0.0281653
0.0182011
-0.0234829
-0.0221602
-0.00669315
-0.082297
0.00876276
-0.114609
0.0358623
-0.126763
0.0410195
-0.0312941
0.0592705
-0.0954656
0.0756231
0.0189753
0.0292222
0.245825
0.00209375
0.0944054
-0.00214023
0.00811287
0.00652914
-0.0429134
0.0170158
-0.0541526
0.0232194
-0.0320053
0.0197032
-0.00203954
-0.00092301
0.0598327
-0.0464955
0.185555
-0.100799
0.271374
-0.138914
0.249049
-0.152806
0.143414
-0.151487
0.0398563
-0.137928
-0.0526228
-0.115148
-0.123324
-0.0861527
-0.171199
-0.0547211
-0.188896
-0.0194509
-0.18435
0.00384639
-0.108728
0.0170026
-0.0740364
0.0155094
0.00133576
0.0119613
0.0175934
-0.0328857
0.0746375
0.0274331
-0.0743365
0.0749436
0.0282859
0.0752616
0.0291549
0.0755665
0.0300644
0.0757867
0.0309309
0.0758032
0.0316668
0.0754674
0.0322161
0.0746265
0.0325361
0.0731481
0.032588
0.0709389
0.0323409
0.0679555
0.0317755
0.0642107
0.0308842
0.0597748
0.0296705
0.0547716
0.0281515
0.049369
0.026362
0.0437599
0.0243546
0.0381389
0.0221974
0.0326807
0.0199664
0.0275234
0.017736
0.0227628
0.0155714
0.0184537
0.0135221
0.0146173
0.0116214
0.0112497
0.00988753
0.00833025
0.00832732
0.00582783
0.00693925
0.00370569
0.00571609
0.00192483
0.00464738
0.000445992
0.00372048
-0.000766833
0.00292201
-0.00174982
0.00224019
-0.00253535
0.00166337
-0.00315168
0.00117621
-0.00362331
0.000770248
-0.00397942
0.000436762
-0.00423253
0.000157999
-0.00439915
-7.01671e-05
-0.00450147
-0.00024983
-0.00454572
-0.000397698
-0.00454432
-0.000510041
-0.00450651
-0.000596378
-0.00443942
-0.000663182
-0.0043495
-0.000711329
-0.00424228
-0.00074468
-0.00412149
-0.000768714
-0.00399119
-0.000779775
-0.00385525
-0.000777455
-0.00371802
-0.000757548
-0.00358464
-0.000715651
-0.00346041
-0.000650722
-0.00335066
-0.000562548
-0.00325959
-0.000457157
-0.00318925
-0.000344921
-0.00313842
-0.000241581
-0.00310115
-0.000169903
-0.00306557
-0.000158734
-0.00301281
-0.000243095
-0.00291624
-0.00046278
-0.00274289