/*--------------------------------*- C++ -*----------------------------------*\
| =========                 |                                                 |
| \\      /  F ield         | OpenFOAM: The Open Source CFD Toolbox           |
|  \\    /   O peration     | Version:  2412                                  |
|   \\  /    A nd           | Website:  www.openfoam.com                      |
|    \\/     M anipulation  |                                                 |
\*---------------------------------------------------------------------------*/
FoamFile
{
    version     2.0;
    format      ascii;
    arch        "LSB;label=32;scalar=64";
    class       volVectorField;
    location    "0.755";
    object      ddt0(U);
}
// * * * * * * * * * * * * * * * * * * * * * * * * * * * * * * * * * * * * * //

dimensions      [0 1 -2 0 0 0 0];

internalField   nonuniform List<vector> 
12600
(
(0.112107 2.19894e-21 0.0730787)
(0.142923 1.94573e-21 0.0129902)
(0.0623518 2.55003e-21 -0.00721849)
(0.0309913 0 -0.00850131)
(0.0136533 1.19662e-21 -0.00708403)
(-0.00466897 1.88624e-22 -0.00541119)
(-0.0239157 0 -0.00430767)
(-0.0430969 0 -0.00347693)
(-0.0600169 7.05117e-21 -0.00209951)
(-0.0738539 0 -0.000258671)
(-0.0848404 -6.27405e-21 0.00188259)
(-0.0934904 -7.54792e-21 0.00425529)
(-0.10008 8.61684e-21 0.00677106)
(-0.104527 0 0.00927152)
(-0.106604 1.00829e-20 0.01156)
(-0.106159 0 0.013459)
(-0.103172 -4.0817e-20 0.0148421)
(-0.0977227 0 0.0156363)
(-0.0899827 1.86084e-20 0.0158132)
(-0.0802578 1.6303e-20 0.0153851)
(-0.069022 -1.40427e-20 0.0144042)
(-0.0568845 4.49242e-22 0.0129582)
(-0.0444915 0 0.0111582)
(-0.0324202 1.20911e-20 0.0091239)
(-0.0211206 0 0.00697262)
(-0.0109189 0 0.0048163)
(-0.00204767 -3.51598e-21 0.0027601)
(0.00533027 0 0.000898566)
(0.011121 -1.25337e-22 -0.000691629)
(0.0153086 1.15976e-20 -0.00195891)
(0.0179587 1.23337e-20 -0.00288059)
(0.0192094 1.20598e-20 -0.00346174)
(0.0192495 -1.08804e-20 -0.00372943)
(0.0182903 -1.78867e-20 -0.0037242)
(0.0165393 -1.28575e-20 -0.00349145)
(0.0141855 6.42483e-21 -0.00307553)
(0.0113988 0 -0.00251755)
(0.00833691 5.06328e-21 -0.00185553)
(0.00515554 0 -0.00112656)
(0.00201377 -1.53973e-20 -0.00036864)
(-0.000916715 0 0.000376507)
(-0.00345741 3.82686e-22 0.0010642)
(-0.00542387 0 0.00164659)
(-0.00665488 1.43413e-23 0.002079)
(-0.00702311 -4.08613e-20 0.00232206)
(-0.00648327 3.49261e-20 0.0023525)
(-0.0050657 -2.63679e-20 0.00216198)
(-0.00292727 0 0.00176971)
(-0.000306742 0 0.00121401)
(0.00242321 6.02356e-21 0.000566369)
(0.0048716 3.39391e-20 -9.23063e-05)
(0.0065758 5.39137e-20 -0.000658541)
(0.00719089 -4.22582e-22 -0.00104879)
(0.00638125 8.19014e-20 -0.00117741)
(0.00406589 0 -0.0010118)
(0.000185562 -8.97543e-20 -0.000523238)
(-0.00499773 -8.48366e-20 0.000249847)
(-0.0112926 -7.58196e-20 0.00128462)
(-0.0181597 0 0.00248547)
(-0.0252998 0 0.00380273)
(-0.0320536 0 0.00510626)
(-0.0382507 1.90276e-20 0.00635703)
(-0.0432998 0 0.00742531)
(-0.0473636 0 0.0083311)
(-0.049978 1.5014e-19 0.00897322)
(-0.051662 0 0.00944717)
(-0.0520052 0 0.00966328)
(-0.0517496 0 0.00975718)
(-0.05047 -2.28944e-19 0.00962768)
(-0.0489322 2.11871e-19 0.00942793)
(-0.0467108 1.95453e-19 0.00906344)
(-0.0444719 -5.18338e-22 0.00869202)
(-0.0417298 -1.30214e-19 0.00821621)
(-0.0392187 0 0.0077827)
(-0.036148 5.10479e-20 0.00726931)
(-0.0336733 0 0.0068284)
(-0.0306667 0 0.00633542)
(-0.0283848 0 0.0059145)
(-0.0263861 2.33952e-23 0.00554405)
(-0.0241693 -1.56045e-19 0.00518548)
(-0.0241623 -2.70266e-19 0.005107)
(-0.0228501 9.65444e-20 0.0048605)
(-0.0240587 3.56112e-19 0.00512216)
(-0.0257773 0 0.00506004)
(-0.0281633 0 0.0057035)
(-0.0283858 1.95847e-19 0.00583939)
(-0.0381436 1.30055e-18 0.00691528)
(-0.0292705 1.91178e-18 0.0067647)
(-0.0341808 -1.38617e-18 0.00761441)
(-0.0449027 0 0.0068068)
(-0.0173692 3.25725e-19 0.00665704)
(-0.0436815 -1.22942e-18 0.0065597)
(-0.0661951 -1.84763e-18 0.00753826)
(0.00573148 1.81164e-18 0.00784107)
(-0.109576 0 0.0133649)
(-0.0573955 0 0.00808353)
(-0.00288484 0 0.0214774)
(0.0126043 0 -0.0147129)
(-0.304042 0 0.0552565)
(0.246102 0 -0.0144465)
(0.415238 -5.39855e-17 -0.10288)
(-1.65719 9.52483e-17 0.287119)
(2.19203 -8.84214e-17 -0.377061)
(-0.0757412 0 -0.022281)
(-4.36371 0 0.792855)
(6.93105 0 -1.18845)
(-2.04989 -1.88362e-16 0.274577)
(-5.86034 3.21335e-16 0.984779)
(9.94167 1.73578e-16 -1.78247)
(-5.69356 0 1.08433)
(-8.98732 -6.76241e-16 1.51267)
(14.5791 0 -2.74586)
(5.08666 5.00863e-17 -0.954425)
(-14.8328 -1.33345e-16 2.81977)
(-0.866814 -4.24185e-16 0.186715)
(9.33049 3.00024e-16 -1.81057)
(2.408 4.41329e-17 -0.473502)
(-4.27577 -2.2819e-20 0.898225)
(-5.21368 4.51481e-17 0.98503)
(-1.81192 0 0.314301)
(0.237673 -2.22042e-21 0.132634)
(0.246367 0 0.0393985)
(0.193076 -2.5796e-21 -0.00374613)
(0.14749 0 -0.0130657)
(0.106129 -1.21219e-21 -0.0150308)
(0.0643782 -1.45185e-21 -0.0145691)
(0.0242592 1.47284e-22 -0.013783)
(-0.0130028 0 -0.0133006)
(-0.0457049 -1.67389e-22 -0.0119314)
(-0.0739005 4.80048e-21 -0.0094126)
(-0.0986083 -6.26647e-21 -0.00571424)
(-0.120948 -7.65367e-21 -0.000928886)
(-0.141348 8.8504e-21 0.00465226)
(-0.159392 -9.78185e-21 0.0105876)
(-0.174252 -2.0645e-20 0.0164048)
(-0.185128 0 0.0216982)
(-0.191419 -5.67786e-22 0.0261541)
(-0.192726 -2.08384e-20 0.0295443)
(-0.18889 -1.88783e-20 0.031726)
(-0.180095 0 0.0326504)
(-0.166932 0 0.0323614)
(-0.150315 -1.20875e-20 0.0309746)
(-0.131295 0 0.0286455)
(-0.110879 -6.31796e-21 0.0255455)
(-0.0899423 7.85388e-21 0.0218591)
(-0.0692523 0 0.0177936)
(-0.0495289 2.61959e-21 0.0135817)
(-0.0314595 0 0.0094662)
(-0.0156575 -9.92677e-21 0.00567153)
(-0.00259283 -2.35748e-20 0.00237728)
(0.00745887 -2.52337e-20 -0.000297311)
(0.0144284 -1.22066e-20 -0.00229522)
(0.0184285 1.10098e-20 -0.00361277)
(0.0197055 3.73192e-20 -0.00428437)
(0.0185863 2.71842e-20 -0.00436786)
(0.0154391 0 -0.00393442)
(0.0106585 0 -0.00306472)
(0.00465755 -9.5313e-22 -0.0018456)
(-0.00213378 0 -0.000370128)
(-0.00927991 1.55442e-20 0.00126414)
(-0.016334 0 0.00295167)
(-0.0228633 4.34697e-20 0.00458491)
(-0.0284475 0 0.0060521)
(-0.0327361 4.48387e-20 0.00725272)
(-0.0354411 0 0.00809494)
(-0.0364255 -3.51684e-20 0.00852085)
(-0.0356513 0 0.00849286)
(-0.0332955 0 0.0080294)
(-0.0296324 6.53537e-21 0.00717562)
(-0.025204 0 0.00605311)
(-0.0205612 0 0.0047921)
(-0.0164838 0 0.00359257)
(-0.0135375 -6.99244e-20 0.00260569)
(-0.0124426 -1.63838e-19 0.00202769)
(-0.0134319 0 0.00193061)
(-0.0169197 0 0.00243199)
(-0.0226301 8.51999e-20 0.00347409)
(-0.0306692 7.5816e-20 0.00509212)
(-0.0402461 0 0.00709919)
(-0.0512825 0 0.00947877)
(-0.0625762 0 0.0119393)
(-0.0741609 0 0.0144793)
(-0.0846367 -1.63527e-20 0.0167577)
(-0.0945051 4.53193e-20 0.0188861)
(-0.102311 -1.48637e-19 0.0205296)
(-0.109229 0 0.0219717)
(-0.113736 0 0.0228695)
(-0.117617 0 0.0236359)
(-0.119187 -5.2262e-22 0.0238782)
(-0.120608 -2.09845e-19 0.0240882)
(-0.120036 -1.93408e-19 0.0238502)
(-0.119828 3.35081e-19 0.0237002)
(-0.117919 -1.19298e-21 0.0231973)
(-0.116927 -1.01086e-19 0.0228898)
(-0.114396 -5.03224e-20 0.0222874)
(-0.11327 0 0.0219441)
(-0.111015 0 0.0213919)
(-0.110003 0 0.021044)
(-0.109226 -1.49317e-19 0.0207341)
(-0.108086 0 0.0203924)
(-0.110051 0 0.0206467)
(-0.109385 -9.44891e-20 0.0203436)
(-0.113627 -3.48161e-19 0.0212489)
(-0.115293 0 0.0211217)
(-0.122052 0 0.0227174)
(-0.121059 0 0.0226475)
(-0.136482 -1.26876e-18 0.025315)
(-0.124943 4.61567e-22 0.0242245)
(-0.135732 -1.35058e-18 0.0269208)
(-0.142597 -1.36397e-18 0.0251619)
(-0.12111 -3.20823e-19 0.02513)
(-0.141145 -1.1959e-18 0.0251009)
(-0.170693 3.58098e-18 0.0270101)
(-0.0910297 0 0.0241904)
(-0.214426 0 0.0372367)
(-0.139118 0 0.0237352)
(-0.178344 0 0.0540166)
(0.168543 3.28781e-18 -0.0371888)
(-0.893951 0 0.166287)
(0.462284 0 -0.0781631)
(1.24358 -5.18259e-17 -0.235652)
(-4.41555 -4.56046e-17 0.805884)
(5.9955 1.6933e-16 -1.16326)
(-0.527226 1.23748e-16 0.176992)
(-11.3962 0 2.06854)
(18.2113 0 -3.46932)
(-6.69431 0 1.47584)
(-14.2299 -1.53011e-16 2.42576)
(26.6403 -1.65195e-16 -5.10998)
(-17.4923 0 3.72478)
(-21.4443 1.28579e-15 3.54669)
(40.4008 -2.45628e-16 -8.05806)
(10.727 -9.53157e-17 -1.62996)
(-41.1496 0 8.05681)
(-0.732025 0 -0.185876)
(26.9949 2.83941e-16 -5.30948)
(5.49765 0 -0.881357)
(-13.4214 5.83168e-18 2.78597)
(-14.7366 -4.26116e-17 2.78875)
(-4.84574 0 0.847792)
(0.24605 0 0.102773)
(0.256221 0 0.0425487)
(0.235556 -2.71623e-21 0.0107517)
(0.201112 0 0.000393143)
(0.158303 0 -0.00598233)
(0.110737 6.30493e-22 -0.0112278)
(0.0630811 -1.3957e-22 -0.0157927)
(0.0188067 0 -0.0201653)
(-0.0198707 4.84001e-24 -0.0235505)
(-0.0528838 -4.54811e-21 -0.0248609)
(-0.0816691 1.18293e-20 -0.023458)
(-0.108086 7.25209e-21 -0.0195513)
(-0.133145 -5.1287e-23 -0.0138482)
(-0.156594 9.26926e-21 -0.00710851)
(-0.177418 9.86869e-21 7.16397e-05)
(-0.194485 -1.01854e-20 0.00725578)
(-0.206862 2.03526e-20 0.0140753)
(-0.213852 1.97475e-20 0.0201943)
(-0.215043 0 0.0253524)
(-0.210447 0 0.0294059)
(-0.200596 -1.48407e-20 0.0323105)
(-0.186437 -1.23226e-20 0.0340644)
(-0.169084 0 0.034663)
(-0.149585 0 0.0341014)
(-0.128831 -7.44206e-21 0.0324191)
(-0.107618 0 0.0297474)
(-0.0867494 -4.75906e-21 0.0263189)
(-0.0670626 6.25093e-21 0.0224339)
(-0.0493654 0 0.0184051)
(-0.0343214 1.12077e-20 0.0145111)
(-0.0223671 1.20756e-20 0.0109729)
(-0.0136878 0 0.0079492)
(-0.00824555 -1.12234e-20 0.00554249)
(-0.00583662 -1.82101e-20 0.00381003)
(-0.00615266 7.29491e-22 0.00277078)
(-0.00882591 0 0.00240828)
(-0.0134445 0 0.00267033)
(-0.0195632 -3.94154e-21 0.00347675)
(-0.0267053 0 0.00472498)
(-0.0343817 0 0.0063004)
(-0.042084 0 0.00807549)
(-0.0493236 0 0.00992422)
(-0.0556243 0 0.0117161)
(-0.0605983 0 0.0133377)
(-0.0639172 0 0.0146767)
(-0.0654301 3.41846e-20 0.0156563)
(-0.0650652 -2.65418e-20 0.0161999)
(-0.0630032 0 0.0162893)
(-0.0594887 -6.18307e-21 0.0159109)
(-0.0551087 0 0.0151479)
(-0.0504021 0 0.0140698)
(-0.0462458 -4.90774e-20 0.0128612)
(-0.0431869 0 0.0116359)
(-0.0420813 7.72786e-20 0.0106285)
(-0.043097 -8.34903e-20 0.00991109)
(-0.046826 0 0.00970552)
(-0.0528746 -8.05326e-20 0.00997812)
(-0.0616055 0 0.0109106)
(-0.0720235 0 0.0123136)
(-0.0843823 0 0.0143232)
(-0.0971223 -5.32999e-20 0.0165788)
(-0.110702 -2.00392e-20 0.0192248)
(-0.12316 6.98852e-22 0.0217601)
(-0.13558 -8.50829e-20 0.0244422)
(-0.145724 2.76872e-22 0.0266858)
(-0.155594 0 0.028963)
(-0.162637 0 0.0306197)
(-0.169754 -2.07591e-19 0.0323478)
(-0.173941 -7.35599e-22 0.0333901)
(-0.178775 0 0.0346079)
(-0.180813 0 0.0351509)
(-0.184124 -1.58506e-19 0.0360004)
(-0.184799 -1.00245e-21 0.0362268)
(-0.187418 -9.9006e-22 0.0368962)
(-0.187524 0 0.0370096)
(-0.190073 0 0.0376347)
(-0.190676 3.46336e-20 0.0378452)
(-0.193266 -9.07226e-20 0.0384072)
(-0.195646 0 0.0388894)
(-0.197828 0 0.0392847)
(-0.203434 0 0.0403182)
(-0.205455 0 0.0404621)
(-0.214019 0 0.0421509)
(-0.21728 0 0.0421162)
(-0.229125 0 0.04451)
(-0.228142 0 0.0439569)
(-0.249258 1.19771e-18 0.0477103)
(-0.235854 -8.7413e-19 0.0455845)
(-0.252619 1.26937e-18 0.0499523)
(-0.255871 1.28169e-18 0.0477999)
(-0.240888 3.02504e-19 0.0489538)
(-0.255311 1.1233e-18 0.0481125)
(-0.291053 -1.68493e-18 0.0509593)
(-0.204534 0 0.0434909)
(-0.334115 0 0.058049)
(-0.23556 0 0.0420687)
(-0.355166 0 0.0789932)
(0.280065 -3.08454e-18 -0.0484386)
(-1.45638 0 0.278052)
(0.725737 0 -0.173499)
(1.83765 4.85934e-17 -0.266031)
(-6.79124 0 1.20663)
(9.74586 -7.93965e-17 -1.96652)
(-1.69622 -1.15966e-16 0.671369)
(-16.8768 0 2.81361)
(28.2993 0 -5.50907)
(-12.503 0 3.31723)
(-20.028 -1.42598e-16 2.97326)
(41.5179 0 -7.9444)
(-30.7042 2.88484e-16 7.07594)
(-29.4874 9.22922e-19 3.91472)
(64.108 2.29881e-16 -13.0205)
(11.6567 8.99464e-17 -0.562067)
(-64.3123 0 12.5413)
(1.85825 3.76391e-16 -1.5717)
(43.0162 -2.65592e-16 -8.45337)
(6.56237 3.8749e-17 -0.519875)
(-22.6642 0 4.81211)
(-23.384 3.98434e-17 4.29395)
(-7.47677 0 1.20843)
(0.230704 0 0.0820688)
(0.240056 0 0.0493078)
(0.232686 2.56794e-21 0.027032)
(0.20905 0 0.0161183)
(0.175123 -1.33282e-21 0.00864396)
(0.133461 1.35803e-21 0.000896148)
(0.0874096 0 -0.00812023)
(0.0412693 1.68896e-21 -0.0184391)
(-0.000898083 -2.99981e-21 -0.0282541)
(-0.037201 -4.33044e-21 -0.0348073)
(-0.0682857 -5.57163e-21 -0.0365806)
(-0.0962059 6.73024e-21 -0.0340424)
(-0.122606 -7.88282e-21 -0.0286465)
(-0.147734 1.72584e-20 -0.0217158)
(-0.170711 0 -0.0140379)
(-0.190308 1.91572e-20 -0.00603343)
(-0.205464 0 0.00194984)
(-0.215375 0 0.0095416)
(-0.219509 0 0.0164439)
(-0.217752 -1.59997e-20 0.0225088)
(-0.210563 4.66402e-23 0.0276859)
(-0.198889 1.12183e-23 0.0319054)
(-0.183883 -9.07571e-21 0.035017)
(-0.166597 0 0.0368333)
(-0.147874 0 0.0372368)
(-0.128432 0 0.0362684)
(-0.109019 4.15013e-21 0.0341392)
(-0.0904744 -1.35998e-22 0.0311694)
(-0.0736551 0 0.0277037)
(-0.0592882 0 0.0240527)
(-0.0478587 0 0.020472)
(-0.0395794 0 0.0171654)
(-0.0344281 2.13425e-20 0.0142943)
(-0.0322155 0 0.0119849)
(-0.0326513 -1.33894e-20 0.0103269)
(-0.0353899 0 0.00936558)
(-0.0400427 0 0.00909452)
(-0.0461878 2.75121e-21 0.00946389)
(-0.0533654 0 0.0103876)
(-0.0610996 0 0.0117584)
(-0.0688866 -1.63339e-20 0.0134473)
(-0.0762448 3.77333e-20 0.0153252)
(-0.0826983 0 0.0172528)
(-0.0878695 4.01997e-20 0.0191094)
(-0.0914264 0 0.0207653)
(-0.0932302 -6.47846e-20 0.0221275)
(-0.0931921 -3.09012e-22 0.0230853)
(-0.0915058 0 0.0235942)
(-0.0883879 0 0.0235969)
(-0.0844614 -3.51876e-21 0.0231554)
(-0.0802322 -2.7061e-20 0.0222948)
(-0.0766419 9.18745e-20 0.0211959)
(-0.0741769 0 0.0199355)
(-0.0737807 7.2235e-20 0.0187788)
(-0.0755077 7.88116e-20 0.0177791)
(-0.0800828 8.03497e-20 0.017239)
(-0.08695 7.64894e-20 0.017121)
(-0.0966929 0 0.017728)
(-0.10808 0 0.0188422)
(-0.121689 8.46514e-20 0.0207351)
(-0.135598 1.01669e-19 0.0229604)
(-0.150721 1.89004e-20 0.0258054)
(-0.164563 8.07117e-22 0.0286082)
(-0.178855 3.98745e-20 0.0317882)
(-0.190607 6.57059e-20 0.0345223)
(-0.202735 0 0.037494)
(-0.211656 0 0.0397428)
(-0.221485 1.9563e-19 0.0422536)
(-0.227849 4.06616e-19 0.0438973)
(-0.235855 0 0.0459259)
(-0.240345 1.74366e-19 0.0470441)
(-0.247253 1.51111e-19 0.0487184)
(-0.250621 1.16188e-19 0.0495004)
(-0.257215 1.82076e-19 0.0510239)
(-0.260268 0 0.0517186)
(-0.267095 0 0.0532338)
(-0.270985 -3.25909e-20 0.0541042)
(-0.277971 1.70381e-19 0.0555366)
(-0.284013 1.32835e-19 0.0567559)
(-0.290475 0 0.0579305)
(-0.30024 0 0.0597445)
(-0.306041 0 0.0604804)
(-0.319409 0 0.063033)
(-0.325459 0 0.0632632)
(-0.342793 0 0.0667043)
(-0.343036 -1.60648e-19 0.065925)
(-0.37023 3.16813e-21 0.0709138)
(-0.356087 8.20726e-19 0.0682877)
(-0.379281 0 0.074045)
(-0.380102 1.19999e-18 0.0713378)
(-0.371742 -1.41421e-19 0.0745592)
(-0.381788 0 0.0714547)
(-0.423786 -1.58193e-18 0.0768044)
(-0.330442 -1.5654e-18 0.0666713)
(-0.466541 0 0.0807918)
(-0.34717 0 0.0656693)
(-0.53337 0 0.104657)
(0.344909 -2.78678e-18 -0.0497106)
(-1.98592 0 0.387426)
(1.01598 0 -0.280242)
(2.20309 4.54944e-17 -0.234674)
(-8.80182 3.98656e-17 1.50532)
(13.275 0 -2.74579)
(-3.42517 0 1.34743)
(-20.8397 0 3.17927)
(36.9998 0 -7.31441)
(-19.2265 0 5.29259)
(-23.4096 6.48408e-19 2.89116)
(54.3825 0 -10.3541)
(-44.6914 -2.69954e-16 10.7789)
(-33.3764 -5.6426e-16 3.24285)
(85.1876 0 -17.6076)
(8.33136 5.72989e-19 1.67364)
(-83.7375 0 16.3638)
(6.51303 2.93734e-19 -3.57562)
(56.8255 0 -11.1783)
(5.67651 -3.62289e-17 0.413982)
(-31.7164 0 6.90653)
(-31.0467 3.73145e-17 5.57159)
(-9.67797 0 1.43564)
(0.217032 0 0.0780839)
(0.221587 0 0.0567284)
(0.216812 0 0.0379501)
(0.199688 0 0.0267225)
(0.175112 1.25805e-21 0.0189063)
(0.143832 -9.36659e-23 0.0109094)
(0.105647 0 0.000616679)
(0.0629144 -1.5943e-21 -0.0130685)
(0.0200558 0 -0.0280197)
(-0.0191721 8.20833e-21 -0.0397161)
(-0.0534459 0 -0.0450007)
(-0.0837558 -6.35391e-21 -0.0440022)
(-0.111778 0 -0.0388688)
(-0.138288 -1.62948e-20 -0.031721)
(-0.162779 8.54092e-21 -0.0237238)
(-0.184102 -1.78168e-20 -0.0153121)
(-0.201184 1.77077e-20 -0.00676168)
(-0.213227 1.72609e-20 0.00156813)
(-0.219649 0 0.00937418)
(-0.220193 1.51081e-20 0.0165569)
(-0.215159 1.32111e-20 0.0231344)
(-0.205445 2.18569e-20 0.0290371)
(-0.192252 8.5699e-21 0.034009)
(-0.176708 0 0.037695)
(-0.159672 0 0.0398255)
(-0.14181 0 0.0403563)
(-0.123794 -1.88522e-21 0.0394792)
(-0.106427 -5.45345e-21 0.0375267)
(-0.0905895 0 0.0348523)
(-0.0770641 0 0.03176)
(-0.0663839 1.08471e-20 0.0284951)
(-0.058784 0 0.0252646)
(-0.0542474 -1.92965e-23 0.0222554)
(-0.0525886 -1.72422e-20 0.0196406)
(-0.0535242 1.31448e-20 0.0175678)
(-0.0567202 0 0.0161406)
(-0.0618012 0 0.0154021)
(-0.0683602 -2.59665e-21 0.0153422)
(-0.0759487 0 0.0159041)
(-0.0840997 0 0.0170017)
(-0.0923113 1.54137e-20 0.0185175)
(-0.100108 -3.56053e-20 0.0203314)
(-0.107015 0 0.0223045)
(-0.112666 -3.79277e-20 0.0243163)
(-0.116724 0 0.0262248)
(-0.119066 3.06475e-20 0.0279257)
(-0.119586 2.39432e-20 0.0292791)
(-0.118494 0 0.0302219)
(-0.115981 6.74777e-21 0.0306589)
(-0.11271 3.31839e-21 0.0306401)
(-0.109154 5.02544e-20 0.0301459)
(-0.106322 -4.29325e-20 0.0293524)
(-0.104637 5.66236e-20 0.0282851)
(-0.105139 -4.66693e-22 0.0272254)
(-0.107767 0 0.0261798)
(-0.113391 -7.57327e-20 0.0255139)
(-0.121287 -7.20869e-20 0.025157)
(-0.132268 6.50762e-20 0.0255246)
(-0.14485 -5.36061e-20 0.0263511)
(-0.15994 -7.97537e-20 0.0280557)
(-0.17523 -4.84127e-20 0.0301013)
(-0.192105 1.96949e-20 0.0329531)
(-0.207504 1.23363e-20 0.0357922)
(-0.223836 0 0.0392522)
(-0.237319 0 0.0422708)
(-0.251831 7.57213e-20 0.0457976)
(-0.2627 0 0.0485384)
(-0.275335 0 0.0518168)
(-0.283902 -1.91693e-19 0.0540751)
(-0.295176 0 0.0570044)
(-0.302139 -1.64052e-19 0.058792)
(-0.312786 -2.85077e-19 0.0614532)
(-0.318899 0 0.0629337)
(-0.329703 -8.59827e-20 0.0655149)
(-0.335808 0 0.0669477)
(-0.347277 0 0.0695679)
(-0.354606 2.94656e-20 0.0712443)
(-0.366505 -7.99127e-20 0.0737543)
(-0.376415 3.79608e-23 0.0758569)
(-0.387842 0 0.0780227)
(-0.402 0 0.0807792)
(-0.412442 0 0.0823286)
(-0.43086 2.9475e-19 0.0859049)
(-0.440728 -4.1981e-21 0.0865932)
(-0.463816 0 0.0912359)
(-0.466457 2.98725e-19 0.0903567)
(-0.500041 -5.32206e-19 0.0967402)
(-0.486434 -1.53884e-18 0.0936412)
(-0.516454 1.12487e-18 0.100843)
(-0.516069 -2.24808e-18 0.0975394)
(-0.514778 0 0.102407)
(-0.521311 0 0.0980361)
(-0.569875 1.48332e-18 0.106128)
(-0.470482 1.46758e-18 0.0928882)
(-0.613071 9.8906e-18 0.107099)
(-0.47586 0 0.0937121)
(-0.717012 0 0.126552)
(0.36313 2.61104e-18 -0.0365429)
(-2.48169 2.27322e-17 0.484888)
(1.30381 0 -0.410198)
(2.35994 -4.26066e-17 -0.122862)
(-10.4703 -3.73298e-17 1.68501)
(16.4467 0 -3.46556)
(-5.5338 0 2.24159)
(-23.4344 0 3.10977)
(44.2499 0 -8.79775)
(-26.4201 0 7.62139)
(-24.6939 1.24279e-16 2.09401)
(65.1107 0 -12.1859)
(-58.7291 0 14.7131)
(-33.6871 0 1.53357)
(103.183 -2.01079e-16 -21.6299)
(1.46387 -4.00825e-17 5.28476)
(-98.9757 0 19.1972)
(12.4976 -3.2935e-16 -6.73265)
(68.0146 0 -13.3029)
(3.01391 -3.33816e-17 2.00909)
(-40.2777 0 8.9744)
(-37.6754 -3.48718e-17 6.54165)
(-11.4552 0 1.50442)
(0.205376 -2.33155e-21 0.0767245)
(0.205717 -1.98574e-21 0.0596518)
(0.201047 1.58028e-21 0.0433174)
(0.187222 1.26674e-21 0.0320148)
(0.168637 0 0.0236469)
(0.146221 -4.94223e-22 0.0155223)
(0.117734 0 0.00550253)
(0.0825831 -1.56651e-21 -0.00855296)
(0.0433618 -2.76597e-21 -0.0257849)
(0.00393781 -7.77533e-21 -0.0412559)
(-0.0327356 4.91481e-21 -0.0500755)
(-0.0657537 -5.85317e-21 -0.0511243)
(-0.0958242 0 -0.0465995)
(-0.123812 0 -0.0393496)
(-0.149651 -8.05227e-21 -0.0311093)
(-0.172449 2.07206e-22 -0.0224435)
(-0.191222 -4.33954e-22 -0.0135416)
(-0.205269 -4.30758e-22 -0.00473148)
(-0.214052 0 0.0036497)
(-0.21716 0 0.0115315)
(-0.214612 0 0.0190386)
(-0.207105 -2.02314e-20 0.02617)
(-0.195839 -7.80815e-21 0.0326117)
(-0.182064 0 0.0378509)
(-0.166747 0 0.0414557)
(-0.150551 -2.27806e-21 0.0432877)
(-0.134059 0 0.0435243)
(-0.117987 0 0.042521)
(-0.103202 0 0.0406451)
(-0.0905466 0 0.0381848)
(-0.0806268 -1.96616e-22 0.0353552)
(-0.0737242 0 0.0323438)
(-0.0698394 -1.42273e-22 0.0293448)
(-0.0687945 1.62534e-20 0.0265652)
(-0.0703159 -1.03497e-22 0.0242018)
(-0.0740806 0 0.022411)
(-0.079724 0 0.0212827)
(-0.0868504 0 0.0208467)
(-0.0950196 0 0.0210779)
(-0.103771 0 0.0219159)
(-0.112601 0 0.0232594)
(-0.121038 0 0.0250024)
(-0.128601 3.50253e-20 0.0270104)
(-0.134934 3.51384e-20 0.0291665)
(-0.139696 0 0.0313171)
(-0.142773 2.87361e-20 0.0333493)
(-0.144044 0 0.0350932)
(-0.143737 0 0.0364708)
(-0.142015 -1.28783e-20 0.0373507)
(-0.139582 0 0.0377765)
(-0.136868 -2.32957e-20 0.0376847)
(-0.134957 0 0.0372518)
(-0.1342 -1.06085e-19 0.0364476)
(-0.13574 -4.56374e-22 0.0355732)
(-0.139398 0 0.0345781)
(-0.146204 0 0.0338933)
(-0.155256 0 0.0333992)
(-0.167616 -1.22678e-19 0.0336269)
(-0.181525 1.01208e-19 0.0342433)
(-0.198251 7.67894e-20 0.0358235)
(-0.215065 4.73826e-20 0.0377204)
(-0.233866 -3.78612e-20 0.0405973)
(-0.250978 1.01917e-20 0.0434609)
(-0.26955 0 0.047192)
(-0.284936 0 0.0504692)
(-0.302057 -1.0124e-22 0.0545499)
(-0.315049 0 0.0577739)
(-0.330733 0 0.0618499)
(-0.341673 -1.81432e-19 0.0647425)
(-0.356484 0 0.0686364)
(-0.366088 0 0.0711351)
(-0.380792 2.69253e-19 0.0748699)
(-0.38984 -1.04644e-19 0.0770994)
(-0.405249 0 0.0808346)
(-0.414627 0 0.0830507)
(-0.43124 0 0.0868733)
(-0.442259 -2.76727e-20 0.0893877)
(-0.459706 0 0.0930729)
(-0.473778 -2.34479e-19 0.0960907)
(-0.490963 1.20412e-19 0.0993605)
(-0.509841 0 0.103103)
(-0.525886 0 0.105606)
(-0.549695 -2.76589e-19 0.110272)
(-0.564503 -1.41671e-21 0.11158)
(-0.593705 -2.34923e-19 0.11753)
(-0.600011 -1.3875e-19 0.116726)
(-0.640401 -5.04238e-19 0.124648)
(-0.628702 7.20796e-19 0.121253)
(-0.666062 -1.05467e-18 0.130051)
(-0.665849 4.32153e-21 0.126212)
(-0.672101 0 0.132809)
(-0.676299 9.42063e-19 0.127456)
(-0.732022 0 0.138209)
(-0.627483 0 0.122152)
(-0.776883 -9.26564e-18 0.136487)
(-0.624655 0 0.126332)
(-0.910147 0 0.14845)
(0.332957 0 -0.00955184)
(-2.94443 -2.12844e-17 0.571337)
(1.56573 0 -0.546374)
(2.32631 -3.97489e-17 0.0578237)
(-11.8127 0 1.75581)
(19.1515 0 -4.09857)
(-7.87548 0 3.2606)
(-24.8408 0 2.66208)
(50.0348 0 -9.95356)
(-33.6753 -1.37312e-16 10.108)
(-24.2634 1.14548e-16 0.674924)
(73.6047 1.24585e-16 -13.424)
(-72.0781 0 18.7623)
(-31.1603 0 -1.1767)
(117.788 3.76085e-16 -25.0609)
(-8.26111 0 9.83381)
(-109.718 -9.59162e-17 21.0092)
(19.4216 0 -9.24887)
(76.2684 -2.16649e-16 -14.7551)
(-1.19838 3.11945e-17 4.19855)
(-48.0357 0 10.9587)
(-43.2483 -3.26565e-17 7.21994)
(-12.8304 0 1.42392)
(0.194195 2.19572e-21 0.0744768)
(0.192179 3.57631e-21 0.0598129)
(0.18754 -1.48855e-21 0.0452851)
(0.175421 -1.88595e-22 0.0335865)
(0.159768 6.82815e-22 0.0241464)
(0.142607 0 0.0155753)
(0.121746 0 0.00617876)
(0.094857 1.47519e-21 -0.006625)
(0.0621746 5.2258e-21 -0.0234422)
(0.0260843 6.80705e-24 -0.040363)
(-0.0102829 -4.62763e-21 -0.0517966)
(-0.0445491 5.51109e-21 -0.0551488)
(-0.0759282 -6.18156e-21 -0.0518382)
(-0.104738 0 -0.0449205)
(-0.131161 0 -0.0366827)
(-0.154652 7.63868e-21 -0.0279616)
(-0.1744 -3.01404e-20 -0.0188905)
(-0.189868 -2.93431e-20 -0.00974327)
(-0.200691 0 -0.000942999)
(-0.206403 0 0.00738257)
(-0.206679 0 0.0154554)
(-0.201819 3.2985e-22 0.0234206)
(-0.192854 1.44374e-20 0.0309896)
(-0.18113 -5.01422e-21 0.0375219)
(-0.167797 -5.91938e-21 0.0424029)
(-0.153607 4.16835e-21 0.0453689)
(-0.13907 1.4905e-21 0.0465696)
(-0.124749 4.47104e-21 0.0463972)
(-0.111421 6.79593e-21 0.0452539)
(-0.099952 0 0.0434222)
(-0.0910403 -9.44294e-21 0.041078)
(-0.0850449 9.25644e-21 0.038372)
(-0.0820007 -8.83908e-21 0.0354902)
(-0.0817422 -1.47391e-20 0.0326631)
(-0.0840077 -2.28518e-20 0.0301297)
(-0.0884887 0 0.0280927)
(-0.0948308 0 0.0266823)
(-0.10265 1.87491e-21 0.0259644)
(-0.111517 0 0.0259432)
(-0.120983 -9.92869e-21 0.0265839)
(-0.130545 -1.29662e-20 0.0278012)
(-0.139734 0 0.0295051)
(-0.148066 -6.54292e-20 0.0315669)
(-0.155195 -3.30674e-20 0.0338765)
(-0.16077 0 0.0362691)
(-0.1647 -2.70396e-20 0.0386262)
(-0.16684 -2.11091e-20 0.0407483)
(-0.167447 0 0.0425475)
(-0.166645 1.22848e-20 0.0438565)
(-0.165185 2.27434e-21 0.0447205)
(-0.163444 2.10368e-20 0.0450315)
(-0.162585 0 0.0449753)
(-0.162873 4.54478e-22 0.0444622)
(-0.165573 -1.18485e-19 0.0438218)
(-0.170368 0 0.0429377)
(-0.178476 0 0.042315)
(-0.188786 6.38525e-20 0.0417684)
(-0.202643 5.77535e-20 0.0419527)
(-0.217978 -9.56008e-20 0.0424414)
(-0.236463 -7.21839e-20 0.0439787)
(-0.254899 -4.45369e-20 0.0457774)
(-0.275765 1.8169e-20 0.0487232)
(-0.294701 -1.85749e-20 0.0516173)
(-0.315686 0 0.0556278)
(-0.333108 0 0.0591387)
(-0.353052 -1.33459e-19 0.0637699)
(-0.368317 0 0.0674482)
(-0.387305 0 0.072335)
(-0.400781 1.70403e-19 0.0758523)
(-0.419433 0 0.0807581)
(-0.431861 -1.46542e-19 0.083987)
(-0.450995 4.70006e-22 0.0888787)
(-0.463192 9.82409e-20 0.0919005)
(-0.483673 0 0.0969004)
(-0.496583 0 0.0999573)
(-0.51892 0 0.105111)
(-0.533929 -2.50885e-20 0.108527)
(-0.557651 0 0.113528)
(-0.576246 1.09989e-19 0.117537)
(-0.600084 -2.25909e-19 0.122068)
(-0.624096 0 0.126894)
(-0.646819 0 0.130529)
(-0.676479 0 0.136414)
(-0.697479 -1.44581e-21 0.138528)
(-0.733311 2.20234e-19 0.145964)
(-0.744703 -1.24058e-19 0.145415)
(-0.792509 4.72593e-19 0.155103)
(-0.784276 6.70473e-19 0.151577)
(-0.829717 0 0.16224)
(-0.831219 9.81726e-19 0.157925)
(-0.845682 0 0.167259)
(-0.849284 -8.82397e-19 0.159536)
(-0.912853 0 0.173908)
(-0.804479 0 0.155142)
(-0.9614 0 0.169733)
(-0.797133 -1.68173e-17 0.164235)
(-1.11827 1.55672e-17 0.170774)
(0.252639 0 0.0324537)
(-3.37874 2.00085e-17 0.647381)
(1.77717 3.60133e-17 -0.686959)
(2.12526 3.71921e-17 0.305731)
(-12.8504 3.23297e-17 1.71718)
(21.3204 0 -4.62342)
(-10.3007 0 4.39307)
(-25.2811 0 1.87127)
(54.382 0 -10.7586)
(-40.5671 1.28399e-16 12.6594)
(-22.5719 -1.03408e-18 -1.28117)
(79.8474 -2.31966e-16 -14.0262)
(-84.0388 0 22.6935)
(-26.7068 0 -4.78835)
(128.914 -1.75804e-16 -27.6318)
(-19.9334 0 15.4898)
(-116.003 8.96344e-17 21.7138)
(26.0703 0 -13.7259)
(81.3636 4.04709e-16 -15.4539)
(-6.655 0 6.84566)
(-54.7253 0 12.7705)
(-47.7943 3.05065e-17 7.59502)
(-13.8465 0 1.19988)
(0.18305 0 0.0717744)
(0.179609 -1.60493e-21 0.0583572)
(0.175013 0 0.0449342)
(0.164075 -9.45166e-22 0.0329751)
(0.149841 -1.13893e-21 0.0225549)
(0.135043 0 0.0132689)
(0.118485 -3.51314e-22 0.00419025)
(0.0977226 0 -0.00711423)
(0.0716272 5.36581e-23 -0.0220854)
(0.0407686 6.8808e-21 -0.0383102)
(0.00732863 0 -0.0507453)
(-0.0259173 0 -0.0559828)
(-0.0569953 5.81415e-21 -0.0542814)
(-0.0853424 0 -0.0482244)
(-0.111075 0 -0.0403438)
(-0.133968 0 -0.0318098)
(-0.153427 1.3947e-20 -0.0227713)
(-0.169081 1.35669e-20 -0.0134121)
(-0.180839 1.22949e-20 -0.00426136)
(-0.188405 0 0.00436579)
(-0.191234 0 0.012698)
(-0.189114 8.5375e-21 0.0210781)
(-0.182661 -6.66373e-21 0.0293714)
(-0.173146 4.71602e-21 0.0368945)
(-0.161914 5.56731e-21 0.0428493)
(-0.149917 -3.60249e-21 0.0467944)
(-0.137673 6.662e-23 0.048808)
(-0.125573 -4.20501e-21 0.0493157)
(-0.114195 -6.39147e-21 0.0487846)
(-0.104343 0 0.047519)
(-0.0967877 0 0.0456599)
(-0.0919976 -8.70506e-21 0.0433055)
(-0.0900684 0 0.0406153)
(-0.090853 1.38605e-20 0.0378331)
(-0.0941009 1.06116e-20 0.0352348)
(-0.0995195 -6.44039e-21 0.0330636)
(-0.106764 0 0.0314832)
(-0.115459 -1.76294e-21 0.0305901)
(-0.125186 -5.75864e-21 0.0304141)
(-0.135515 1.19854e-22 0.030944)
(-0.145949 2.41938e-20 0.0321075)
(-0.156028 0 0.0338303)
(-0.165256 3.05217e-20 0.0359888)
(-0.173301 0 0.0384818)
(-0.179806 0 0.0411337)
(-0.184703 0 0.0438239)
(-0.187829 3.30106e-22 0.0463229)
(-0.189475 0 0.0485379)
(-0.189721 -5.77838e-21 0.0502649)
(-0.189367 -4.29295e-21 0.051559)
(-0.188722 -1.97686e-20 0.0522657)
(-0.18904 0 0.05259)
(-0.190482 4.62057e-20 0.0523775)
(-0.194457 1.10538e-19 0.051999)
(-0.200487 0 0.0512608)
(-0.210008 0 0.0507568)
(-0.221664 -5.998e-20 0.0502163)
(-0.23713 -5.4186e-20 0.0504346)
(-0.253966 4.49715e-20 0.0508621)
(-0.274324 6.84708e-20 0.0524339)
(-0.294453 0 0.0541852)
(-0.317514 0 0.057258)
(-0.338355 4.40968e-22 0.0602041)
(-0.36192 -2.90307e-20 0.0645288)
(-0.381479 0 0.0682687)
(-0.404461 6.25656e-20 0.0734738)
(-0.422121 0 0.0775909)
(-0.44468 0 0.0833195)
(-0.460835 0 0.087453)
(-0.483662 0 0.0934252)
(-0.499086 -2.51652e-22 0.0973948)
(-0.523069 2.91966e-22 0.103528)
(-0.538631 -9.28838e-20 0.107375)
(-0.564708 0 0.113753)
(-0.581421 -3.80758e-20 0.117703)
(-0.610136 0 0.124323)
(-0.629466 2.35254e-20 0.128709)
(-0.660276 -6.50076e-20 0.135179)
(-0.68381 1.0306e-19 0.140271)
(-0.715294 1.05887e-19 0.146232)
(-0.744946 0 0.152261)
(-0.775537 -6.88871e-20 0.15721)
(-0.81165 0 0.164475)
(-0.840231 6.0596e-21 0.167581)
(-0.88341 2.07269e-19 0.176721)
(-0.90147 1.16218e-19 0.176605)
(-0.957565 0 0.188345)
(-0.954531 -1.25241e-18 0.184847)
(-1.00912 0 0.197736)
(-1.01406 9.08211e-19 0.193005)
(-1.03797 0 0.205318)
(-1.04262 -8.32176e-19 0.195349)
(-1.11529 0 0.213977)
(-1.00475 1.26136e-18 0.192519)
(-1.17044 8.14236e-18 0.207397)
(-0.997308 1.57376e-17 0.207852)
(-1.34713 -1.45663e-17 0.195107)
(0.119915 0 0.089311)
(-3.79193 -3.74699e-17 0.714246)
(1.91786 -6.7335e-17 -0.823922)
(1.78056 0 0.613231)
(-13.6109 -3.02361e-17 1.57618)
(22.9219 0 -5.0275)
(-12.6795 0 5.60145)
(-24.9947 -1.04439e-16 0.787023)
(57.3467 0 -11.2075)
(-46.71 0 15.1993)
(-20.1067 -9.91457e-17 -3.67816)
(83.8979 2.14723e-16 -13.9898)
(-93.9605 -2.05772e-16 26.3839)
(-21.288 0 -9.07647)
(136.594 0 -29.362)
(-32.7252 0 21.1689)
(-118.411 0 21.3787)
(32.0953 2.6855e-16 -18.6898)
(83.2753 -1.88966e-16 -15.3566)
(-12.9688 0 9.77302)
(-60.1375 0 14.3448)
(-51.3761 0 7.6897)
(-14.5611 0 0.848151)
(0.17121 1.59925e-21 0.0689118)
(0.167103 0 0.0560988)
(0.162523 8.18641e-22 0.0432149)
(0.152575 0 0.0313163)
(0.139254 4.66671e-22 0.0203976)
(0.125396 0 0.0104659)
(0.110684 3.30196e-22 0.00128833)
(0.0933196 -1.66097e-21 -0.00889548)
(0.0719803 -4.82327e-21 -0.0217719)
(0.046179 2.03546e-23 -0.0360972)
(0.0168799 0 -0.0480614)
(-0.0136106 0 -0.0543432)
(-0.0428515 0 -0.0542431)
(-0.0695253 0 -0.0494275)
(-0.0934354 0 -0.0422342)
(-0.114535 0 -0.0340963)
(-0.132442 -1.21191e-20 -0.0252697)
(-0.146888 1.17224e-20 -0.0158232)
(-0.158022 -1.15524e-20 -0.00633423)
(-0.165933 0 0.00259928)
(-0.17019 0 0.0110373)