/*--------------------------------*- C++ -*----------------------------------*\
| =========                 |                                                 |
| \\      /  F ield         | OpenFOAM: The Open Source CFD Toolbox           |
|  \\    /   O peration     | Version:  2412                                  |
|   \\  /    A nd           | Website:  www.openfoam.com                      |
|    \\/     M anipulation  |                                                 |
\*---------------------------------------------------------------------------*/
FoamFile
{
    version     2.0;
    format      ascii;
    arch        "LSB;label=32;scalar=64";
    class       volScalarField;
    location    "1.015";
    object      Co;
}
// * * * * * * * * * * * * * * * * * * * * * * * * * * * * * * * * * * * * * //

dimensions      [0 0 0 0 0 0 0];

internalField   nonuniform List<scalar> 
12600
(
0.368678
0.150632
0.0590886
0.0259577
0.0138907
0.00852745
0.00548979
0.00353055
0.00219428
0.00125823
0.000594148
0.000350964
0.000488745
0.000664305
0.000777822
0.000851735
0.000891361
0.00090578
0.000901616
0.000882741
0.000854974
0.000819262
0.000784492
0.000745813
0.000705149
0.000661618
0.000617596
0.000573921
0.000531664
0.000491014
0.000452096
0.000414978
0.000379911
0.000347105
0.000316507
0.000287955
0.000261499
0.000237075
0.000214516
0.000193785
0.000174787
0.000157344
0.000141377
0.000126754
0.00011339
0.000101227
9.01783e-05
8.02575e-05
7.14392e-05
6.37154e-05
5.7053e-05
5.139e-05
4.66071e-05
4.25559e-05
3.90034e-05
3.56749e-05
3.22084e-05
2.8227e-05
2.33604e-05
1.73683e-05
1.02351e-05
8.60766e-06
1.47493e-05
2.22931e-05
2.89961e-05
3.54412e-05
4.25789e-05
5.14822e-05
6.26134e-05
7.55745e-05
8.81589e-05
9.71162e-05
9.88191e-05
9.34704e-05
8.63233e-05
7.19045e-05
5.42994e-05
3.89847e-05
3.10326e-05
2.78731e-05
2.44386e-05
1.96357e-05
1.93589e-05
2.24224e-05
2.11293e-05
1.85852e-05
1.67294e-05
2.60671e-05
4.48135e-05
8.1466e-05
0.000133475
0.000206248
0.000265484
0.000267522
0.000280301
0.00026278
0.000182918
0.000106629
8.16759e-05
1.17299e-05
1.21468e-05
1.13636e-05
3.11534e-05
2.23673e-05
3.47712e-05
4.0178e-05
3.75173e-05
4.3569e-05
9.79032e-05
0.00019632
0.000264269
0.000291718
0.000273906
0.000255196
0.000203928
0.000137761
8.58188e-05
5.10125e-05
4.36049e-05
3.3565e-05
0.593994
0.381501
0.220843
0.125878
0.07528
0.0479864
0.0320584
0.0219265
0.0150699
0.0102471
0.00677528
0.00423627
0.00236882
0.00114395
0.00105022
0.00155841
0.00190306
0.00212734
0.00225948
0.00231778
0.00232635
0.00229106
0.00223234
0.00215178
0.00207369
0.00198316
0.00188015
0.00177121
0.00165943
0.00154728
0.0014367
0.00132877
0.00122457
0.00112525
0.0010314
0.000942801
0.000859823
0.000782532
0.000710555
0.000643964
0.000582621
0.000526033
0.000474039
0.000426259
0.000382418
0.000342375
0.000305838
0.000272816
0.0002433
0.000217243
0.000194616
0.000175283
0.000158924
0.000145132
0.00013324
0.000122412
0.00011156
9.9443e-05
8.47849e-05
6.6591e-05
4.44957e-05
3.60743e-05
5.27526e-05
7.75244e-05
9.97168e-05
0.000121796
0.000147232
0.000179539
0.000219775
0.00026559
0.00030827
0.000336127
0.000337031
0.000314657
0.000300532
0.000258644
0.000199843
0.000141578
0.000106979
9.19482e-05
7.81736e-05
5.93275e-05
5.84305e-05
7.04789e-05
6.39997e-05
6.01576e-05
5.64645e-05
9.15811e-05
0.000162382
0.00028668
0.000465259
0.000706156
0.00087007
0.000859744
0.000907089
0.000887756
0.000665201
0.000405286
0.00033151
2.75285e-05
4.7658e-05
3.91758e-05
0.000126174
7.56493e-05
0.000123889
0.000131972
0.000117154
0.000197726
0.000440144
0.000745252
0.000907066
0.000929711
0.000827028
0.000797053
0.000654431
0.00044861
0.000272027
0.000156442
0.000159646
0.000121112
0.661486
0.531057
0.380081
0.256231
0.170193
0.114664
0.0791437
0.0557565
0.0397386
0.0283875
0.0201371
0.0140326
0.00946471
0.00601834
0.00346445
0.00195177
0.0019201
0.0025187
0.00292561
0.00317561
0.00331695
0.00336462
0.00334497
0.00327373
0.00317916
0.00307761
0.00297341
0.00284467
0.00269943
0.0025441
0.00238406
0.00222286
0.002063
0.00190711
0.00175742
0.00161419
0.00147849
0.00135084
0.00123088
0.00111915
0.00101563
0.000919638
0.000831095
0.000749426
0.000674158
0.000605119
0.000541807
0.000484165
0.000432298
0.000386145
0.000345762
0.000311076
0.000281706
0.000257136
0.000236457
0.000218407
0.000201319
0.000183075
0.000161294
0.000133789
9.91974e-05
8.12069e-05
0.000104951
0.000147037
0.000184918
0.000224104
0.000271408
0.00033291
0.000409277
0.000494154
0.000569148
0.000611793
0.000600669
0.000547069
0.00054497
0.000486938
0.000385686
0.00027046
0.000196009
0.000163912
0.000137063
9.82611e-05
9.648e-05
0.000122289
0.0001016
0.00010342
0.000101104
0.000172156
0.000316717
0.00054398
0.000879007
0.00130555
0.00154639
0.00147907
0.00155952
0.00159003
0.00127231
0.000811644
0.000738974
2.5811e-05
0.000102252
7.80017e-05
0.000278727
0.000135787
0.000238851
0.000230213
0.000210066
0.000471124
0.0010015
0.00148965
0.00164946
0.00156591
0.0013304
0.00134323
0.00114264
0.000802323
0.000480353
0.000264139
0.000328023
0.000246268
0.661891
0.600098
0.49433
0.379909
0.279958
0.20265
0.146537
0.106671
0.0782097
0.0575657
0.0423327
0.0309251
0.0222877
0.0156916
0.010672
0.00680256
0.00384766
0.00253144
0.00283311
0.00340584
0.00378871
0.00400872
0.00410687
0.00411127
0.0040443
0.00394185
0.00382465
0.00373276
0.00360232
0.00344207
0.00326248
0.00307167
0.00287459
0.00267625
0.00248148
0.0022917
0.00210919
0.0019354
0.0017703
0.00161522
0.00147058
0.00133562
0.00121054
0.00109467
0.000987381
0.000888518
0.000797369
0.000713806
0.000638105
0.000570234
0.000510423
0.000458788
0.000415022
0.000378662
0.000348721
0.000323665
0.000301371
0.000278844
0.000252427
0.000218339
0.000173634
0.000142863
0.000169933
0.00022965
0.000283635
0.000341408
0.000413863
0.000509719
0.000628351
0.000757691
0.000867093
0.000921353
0.000888982
0.000785951
0.000815076
0.000753788
0.000611601
0.000428676
0.000302639
0.000247141
0.000202661
0.000137254
0.000133607
0.000178948
0.000138806
0.000146966
0.000150016
0.000263039
0.000499584
0.000834756
0.00135358
0.00196873
0.00227072
0.00211943
0.00222887
0.00232063
0.00197326
0.00131957
0.00132235
3.46162e-05
0.000175008
0.000130386
0.000482409
0.00020331
0.000374032
0.000325923
0.000328008
0.000871105
0.00176439
0.00238058
0.00243268
0.00215301
0.00178931
0.00187664
0.0016437
0.00117967
0.000698868
0.000363694
0.000530423
0.00040116
0.638549
0.613266
0.552774
0.468882
0.378935
0.296201
0.227122
0.172638
0.13085
0.0990927
0.0749308
0.0564459
0.0422157
0.0311958
0.0226578
0.0160033
0.0108282
0.00681431
0.0037237
0.00287624
0.0036336
0.00413624
0.00444407
0.00459886
0.00463578
0.00458492
0.00447525
0.00436735
0.00428921
0.00417549
0.00401849
0.00383116
0.00362312
0.00340291
0.00317912
0.00295522
0.0027354
0.0025227
0.00231773
0.0021231
0.00194002
0.00176789
0.0016074
0.00145794
0.00131878
0.0011899
0.0010704
0.000960077
0.00085945
0.000768569
0.000687928
0.000617957
0.000558556
0.000509481
0.000469827
0.000437945
0.000411377
0.000386254
0.000357519
0.000319455
0.000267016
0.000219777
0.000245984
0.000323734
0.000394293
0.000472013
0.000572482
0.000707083
0.000873107
0.00105143
0.00119716
0.00126087
0.00120025
0.00102478
0.00110479
0.00105531
0.000877144
0.00061923
0.000431077
0.000344446
0.000275917
0.00017663
0.000169723
0.000241174
0.000180223
0.000189216
0.000201674
0.000359046
0.000701787
0.00114054
0.00186696
0.00265544
0.00301908
0.00276858
0.00290288
0.00302271
0.00273208
0.00191453
0.00208098
0.000102254
0.000264879
0.000197807
0.000730648
0.000277998
0.000523647
0.000409284
0.000484275
0.001401
0.00270068
0.00336127
0.003197
0.00265171
0.00220623
0.00238656
0.00213517
0.0015623
0.000921343
0.000449648
0.000752776
0.000579756
0.611504
0.598663
0.567532
0.515369
0.448434
0.376213
0.306951
0.24558
0.193942
0.151866
0.118196
0.0914856
0.0703664
0.0536726
0.0404923
0.0300706
0.0218411
0.0153561
0.0102547
0.00628729
0.00390146
0.00364242
0.00427031
0.00466852
0.00488614
0.00496556
0.00493917
0.00483412
0.00474051
0.00467276
0.00459055
0.00445214
0.00426859
0.00405452
0.00382388
0.00358324
0.00333965
0.00309849
0.00286162
0.00263339
0.00241631
0.00221021
0.00201658
0.00183506
0.00166497
0.00150653
0.00135869
0.00122123
0.00109498
0.000980129
0.000877527
0.000788044
0.00071192
0.000649293
0.000599499
0.000560922
0.000530899
0.000504711
0.000475799
0.000436228
0.000378404
0.000310587
0.000331386
0.000427643
0.00051525
0.000614038
0.000744755
0.000921472
0.00113875
0.00136952
0.00155335
0.00162557
0.0015323
0.00127242
0.00140682
0.00138645
0.00118115
0.000844942
0.00058573
0.000458901
0.000358081
0.00021702
0.00020542
0.000309961
0.000225819
0.000229077
0.000253901
0.000454407
0.000913788
0.00144362
0.00240051
0.00332921
0.00377393
0.00341271
0.00356518
0.00363919
0.00350884
0.00257386
0.00299948
0.000246306
0.000370153
0.000279534
0.00101596
0.00035795
0.00068106
0.000468882
0.000690048
0.00205828
0.00377405
0.00436965
0.00388781
0.00303419
0.0025841
0.0028648
0.00260234
0.0019367
0.00114196
0.000517978
0.00098304
0.000775755
0.587773
0.576053
0.558139
0.527882
0.484103
0.430158
0.371514
0.313283
0.259121
0.211085
0.169911
0.135445
0.107046
0.083876
0.0651072
0.0499639
0.0377914
0.0280421
0.0202573
0.0140883
0.00921374
0.00539933
0.00383924
0.004227
0.0047189
0.00500597
0.00513383
0.00513895
0.00505236
0.00496524
0.00490673
0.00486986
0.0047598
0.00458966
0.0043821
0.00414843
0.00389974
0.00364477
0.00338733
0.00313421
0.00288977
0.00265471
0.00243166
0.00222081
0.00202169
0.00183493
0.00165945
0.00149505
0.00134295
0.00120357
0.0010782
0.000968284
0.000874536
0.000797633
0.000737314
0.000692141
0.000659378
0.000633495
0.000606366
0.000567617
0.000506729
0.000417578
0.00042786
0.000539487
0.000644506
0.000765098
0.000927491
0.00114847
0.00141941
0.00170494
0.00192845
0.0020096
0.00188215
0.00154035
0.0017123
0.00174077
0.0015215
0.00110819
0.000770851
0.000593487
0.000450301
0.000259044
0.000241439
0.000385943
0.000276419
0.000265693
0.000303787
0.000542876
0.00112594
0.00172789
0.0029381
0.00395449
0.00452281
0.00403683
0.00419324
0.00411487
0.00425964
0.00326617
0.00406342
0.000484945
0.000508282
0.000372455
0.00132983
0.000439385
0.000839023
0.000492574
0.00100228
0.00287876
0.00493915
0.00534277
0.00446302
0.00329146
0.00292895
0.00330964
0.00303512
0.00229343
0.00135939
0.000568944
0.00121256
0.000984207
0.567897
0.554439
0.540139
0.520816
0.493164
0.456537
0.412768
0.364843
0.315861
0.268444
0.224485
0.185111
0.150784
0.121468
0.0968262
0.0763508
0.0594893
0.0457049
0.034502
0.0254641
0.0182101
0.0124333
0.00786976
0.00475902
0.0040355
0.0046263
0.00498742
0.00516891
0.00521223
0.005151
0.00506551
0.00501431
0.00503039
0.00495628
0.00481196
0.00461708
0.00438841
0.00413951
0.00387704
0.00361111
0.0033487
0.00309188
0.00284489
0.00260886
0.00238379
0.0021709
0.00196928
0.00177881
0.0016012
0.0014372
0.00128864
0.00115767
0.00104561
0.000953846
0.000882676
0.000830986
0.000796097
0.000771732
0.000748159
0.000712417
0.000650757
0.000554351
0.00054776
0.000657141
0.00077972
0.000922329
0.00111684
0.00138283
0.00170822
0.00204957
0.00231418
0.00240606
0.00224603
0.00182467
0.0020108
0.00211015
0.00189479
0.00141064
0.000990513
0.000751259
0.000553871
0.000303522
0.000278779
0.000469474
0.000332515
0.000298643
0.00034775
0.00061799
0.00132881
0.00198028
0.00346688
0.00450128
0.00526204
0.00462603
0.00476141
0.00440402
0.00494082
0.00395194
0.00525247
0.000822465
0.000673528
0.000470394
0.00166217
0.00051658
0.000989526
0.000467309
0.00145737
0.00387629
0.00614413
0.00622256
0.00489826
0.00343124
0.00324588
0.0037221
0.00343058
0.00262753
0.00157342
0.000604444
0.00143472
0.00120045
0.550648
0.535841
0.521589
0.506133
0.486908
0.462131
0.431455
0.395688
0.356337
0.315198
0.274051
0.234437
0.197543
0.164145
0.134633
0.109071
0.0872873
0.0689669
0.0537227
0.0411633
0.0308986
0.0225802
0.0158949
0.0105711
0.00637494
0.00434357
0.0044135
0.00485364
0.00509404
0.00518071
0.00515155
0.00506038
0.00502392
0.00508731
0.00506042
0.00494672
0.00477156
0.00455528
0.00430871
0.00404631
0.00377873
0.00351011
0.00324685
0.00299156
0.00274502
0.00250939
0.00228407
0.00206919
0.00186708
0.00167892
0.00150719
0.00135489
0.0012241
0.00111706
0.00103479
0.00097665
0.000940158
0.000918364
0.000899939
0.000869242
0.000809064
0.000707609
0.000677884
0.000778209
0.000918165
0.00108234
0.00130829
0.0016185
0.00199746
0.00239439
0.00270132
0.00280712
0.0026192
0.00212103
0.00229038
0.00248455
0.00229591
0.00175291
0.00124835
0.000935226
0.000670168
0.00035144
0.000318399
0.000560277
0.000393738
0.000327839
0.000381567
0.000673358
0.00151351
0.00219226
0.00397671
0.00494786
0.00599627
0.00516484
0.00524438
0.00447574
0.00551412
0.00458578
0.00653895
0.0012693
0.0008658
0.000575004
0.00201247
0.000582384
0.00112399
0.000476607
0.00201343
0.00498616
0.00733402
0.00696266
0.00519063
0.00347725
0.00354175
0.00410722
0.00379013
0.00293777
0.00178645
0.000628941
0.00164539
0.00142088
0.535134
0.519754
0.504999
0.490395
0.474552
0.456066
0.434046
0.408179
0.378688
0.346227
0.311749
0.276357
0.241179
0.207256
0.175455
0.146407
0.120481
0.0978047
0.0783057
0.0617862
0.0479638
0.0365273
0.0271617
0.0195684
0.0134747
0.0086367
0.00512562
0.00409909
0.00462301
0.00492754
0.00506424
0.00506841
0.00497661
0.00498134
0.00506043
0.00508247
0.00500568
0.00485741
0.00465457
0.00441757
0.00416205
0.00389505
0.00362598
0.00335956
0.00309781
0.00284422
0.00259884
0.00236217
0.00213735
0.00192615
0.00173181
0.00155831
0.00140867
0.00128613
0.00119261
0.0011281
0.00109045
0.00107213
0.00106026
0.0010365
0.000980016
0.000875821
0.000816235
0.000899988
0.0010567
0.00124123
0.00149671
0.00184876
0.00227874
0.00272976
0.00308002
0.00320416
0.00299602
0.00242783
0.00253776
0.00285191
0.00271766
0.00213412
0.00154731
0.0011483
0.000800713
0.000404004
0.00036103
0.00065729
0.000458733
0.000353564
0.00040051
0.000703033
0.0016721
0.00236117
0.00445957
0.00528553
0.00673688
0.00563525
0.00562385
0.00431903
0.00595372
0.00512083
0.00788731
0.00183137
0.00108601
0.00066898
0.00236407
0.000629294
0.00123335
0.00059195
0.00266846
0.00617796
0.00845557
0.00753366
0.00535596
0.00345932
0.00382048
0.00447069
0.00411859
0.00322531
0.00200151
0.000647711
0.00184215
0.00164255
0.520981
0.505449
0.490428
0.475891
0.461143
0.445387
0.427965
0.40838
0.386325
0.361737
0.334808
0.305949
0.275752
0.244937
0.2143
0.184634
0.156653
0.130915
0.107782
0.0874226
0.0698288
0.0548668
0.0423211
0.0319342
0.0234365
0.016564
0.0110712
0.00673453
0.004456
0.00430972
0.00468654
0.00487379
0.00491931
0.00486147
0.00486921
0.00495636
0.00503359
0.00500111
0.00487919
0.00469668
0.00447617
0.00422875
0.00396787
0.00370129
0.00343282
0.00316787
0.00290751
0.00265285
0.00240809
0.00217574
0.00195995
0.0017659
0.00159763
0.00145962
0.00135484
0.00128407
0.00124562
0.00123153
0.00122745
0.00121237
0.00116176
0.00105725
0.000960545
0.00101945
0.00119176
0.00139459
0.00167643
0.00206641
0.0025433
0.00304579
0.00344016
0.0035881
0.00337005
0.00274259
0.00273886
0.00319815
0.00315043
0.0025514
0.0018893
0.00139317
0.000947174
0.000462679
0.000406891
0.000758455
0.000525036
0.000376431
0.000399537
0.000701924
0.00179804
0.00249085
0.00490901
0.00552219
0.00749653
0.00601497
0.0058969
0.00394472
0.00625293
0.0055152
0.00925472
0.00250845
0.00133504
0.000736943
0.00270253
0.000651112
0.00130787
0.000779523
0.00341509
0.00741466
0.00945733
0.00792559
0.0054236
0.00340759
0.00408373
0.00481933
0.00442295
0.00349343
0.00222323
0.000667403
0.00202436
0.00186343
0.508015
0.492484
0.477414
0.462894
0.44852
0.433853
0.41855
0.402289
0.384754
0.365684
0.344916
0.322404
0.298232
0.272625
0.245958
0.218749
0.191618
0.16523
0.140213
0.117087
0.0962155
0.0777881
0.0618342
0.0482593
0.0368863
0.0274915
0.0198331
0.0136701
0.00877452
0.00511593
0.00392869
0.00437776
0.00462402
0.00471901
0.00469254
0.00469913
0.00478564
0.00492601
0.0049359
0.00484696
0.00469216
0.00448832
0.00425436
0.00400226
0.00373848
0.00347105
0.00320261
0.00293524
0.00267449
0.00242384
0.00218854
0.00197513
0.00178891
0.00163574
0.00151986
0.00144297
0.00140405
0.00139484
0.00139961
0.00139483
0.00135223
0.00124994
0.00110822
0.00113323
0.0013194
0.0015376
0.00184144
0.00226406
0.0027824
0.00333284
0.00377192
0.00394982
0.00373424
0.00306182
0.00287951
0.00350749
0.0035819
0.00299941
0.00227473
0.00167212
0.00111137
0.00052923
0.000455448
0.000860616
0.000589046
0.00039738
0.000373574
0.000666228
0.00188669
0.00259112
0.00531965
0.00568232
0.00828084
0.00627915
0.0060843
0.00389569
0.00642901
0.00573985
0.010593
0.00329368
0.00161319
0.000767402
0.00301821
0.000644737
0.00133755
0.00102133
0.00424133
0.00865409
0.0102979
0.00815058
0.00542694
0.00334398
0.00432666
0.00515848
0.00471096
0.00374599
0.00245656
0.000695266
0.00219275
0.00208212
0.496096
0.480625
0.465604
0.451161
0.437004
0.422849
0.408525
0.393881
0.378736
0.362892
0.346156
0.328355
0.309341
0.289019
0.267378
0.244528
0.220727
0.196379
0.17201
0.148209
0.125561
0.104566
0.0855868
0.068823
0.0543226
0.0420118
0.0317338
0.0232832
0.0164345
0.0109632
0.00665079
0.00428916
0.00401253
0.00432797
0.00446873
0.00448307
0.00448101
0.00456114
0.00476119
0.00481966
0.00477195
0.00464393
0.00446197
0.00424396
0.00400011
0.00374209
0.00347488
0.00320196
0.00293065
0.00266575
0.0024138
0.00218295
0.00197998
0.00181233
0.00168571
0.00160295
0.00156385
0.00156004
0.0015746
0.00158162
0.00154914
0.00145173
0.00128032
0.00126023
0.00143531
0.00166515
0.00198558
0.00243441
0.0029878
0.00358198
0.0040662
0.00428064
0.00408126
0.00338103
0.00294651
0.00376304
0.00399703
0.00346991
0.00270205
0.00198682
0.00129523
0.000605765
0.000505204
0.000959499
0.000646085
0.000417663
0.00031791
0.000593848
0.00193572
0.00267573
0.00568692
0.00580036
0.00907917
0.00640995
0.00623549
0.00445933
0.00651819
0.00578522
0.0118514
0.0041736
0.00198724
0.000813457
0.00330397
0.000611422
0.0013122
0.00132079
0.00513331
0.00985418
0.0109511
0.00823719
0.00539603
0.00328119
0.00453895
0.00549086
0.00499021
0.00398583
0.0027056
0.000739106
0.00234969
0.00229794
0.48511
0.469726
0.454795
0.440458
0.426487
0.412663
0.398883
0.38508
0.371168
0.357044
0.342595
0.327694
0.312195
0.295927
0.278716
0.260421
0.240972
0.220416
0.198942
0.176892
0.154737
0.13303
0.112329
0.0931248
0.0757766
0.0604863
0.0473061
0.0361683
0.0269228
0.0193737
0.013302
0.00849155
0.00485165
0.00360327
0.00398389
0.00418122
0.00424238
0.0042195
0.00432831
0.00454889
0.00466413
0.00465578
0.00455972
0.0044022
0.00419876
0.00396609
0.00371258
0.00344375
0.00316927
0.00289567
0.00263111
0.00238564
0.00216776
0.00198675
0.00185005
0.00176179
0.00172282
0.00172486
0.00175003
0.00177027
0.00175002
0.00166025
0.00148863
0.00141025
0.00153498
0.00177204
0.00210287
0.00257072
0.00315214
0.00378553
0.00431522
0.00457284
0.00440394
0.00369488
0.0029287
0.00394775
0.00437832
0.00395136
0.00316721
0.00233798
0.00150076
0.000694762
0.000553595
0.00104981
0.000690563
0.000438835
0.000271746
0.000484704
0.00194557
0.00275916
0.00600658
0.00590879
0.00985858
0.00641331
0.00641883
0.00527029
0.00656168
0.0056628
0.0129794
0.00512846
0.0024251
0.000839051
0.00355525
0.00060103
0.00122186
0.00180292
0.00618146
0.0109735
0.0114061
0.00822272
0.00535201
0.00322187
0.0047047
0.00581336
0.00526676
0.00421301
0.00297025
0.000805386
0.00249933
0.00251062
0.474963
0.45968
0.444854
0.43063
0.416827
0.403262
0.389856
0.376576
0.363376
0.350201
0.336998
0.323711
0.310268
0.296559
0.282431
0.267697
0.252159
0.235647
0.218059
0.199403
0.179832
0.159651
0.139305
0.119329
0.100272
0.0826154
0.0667133
0.0527604
0.040802
0.0307659
0.0224988
0.0158044
0.0104735
0.00629027
0.00394932
0.00360186
0.00386522
0.00396915
0.00396391
0.0040896
0.00430012
0.00446902
0.00450566
0.0044446
0.00430931
0.00412352
0.00390053
0.00364876
0.00338109
0.00310639
0.00283477
0.00257865
0.00234855
0.00215589
0.00201012
0.00191691
0.00187844
0.00188677
0.00192329
0.00195811
0.00195223
0.00187298
0.00170452
0.00155495
0.00161388
0.00185324
0.00218784
0.00266713
0.00326942
0.00393747
0.00451282
0.00482005
0.00469559
0.00399755
0.00294676
0.00404586
0.0047064
0.00442885
0.00366331
0.00272505
0.00172993
0.000799085
0.000597
0.00112548
0.000716235
0.000462757
0.000284035
0.000340823
0.00191967
0.00285298
0.0062739
0.00602648
0.0105642
0.00633281
0.00670031
0.00613484
0.00658289
0.00539865
0.0139282
0.00613269
0.00291341
0.000829288
0.00376903
0.000660995
0.00105769
0.00238446
0.0072818
0.0119783
0.0116681
0.00814665
0.00530739
0.00316342
0.00480853
0.00611624
0.0055447
0.00442598
0.00324456
0.000897669
0.00264835
0.00272022
0.465572
0.450395
0.435679
0.421569
0.407916
0.394563
0.381448
0.368545
0.355826
0.343251
0.330789
0.318418
0.306117
0.29385
0.281543
0.269077
0.256289
0.242975
0.228925
0.213951
0.197932
0.180854
0.162849
0.144209
0.12537
0.106861
0.0892268
0.072944
0.0583547
0.0456394
0.0348267
0.0258295
0.0184896
0.0126043
0.00796632
0.00444093
0.00319045
0.00351441
0.00367507
0.00371715
0.00382171
0.0040112
0.00424033
0.00432628
0.00429745
0.00418807
0.00401851
0.00380146
0.00355416
0.00328866
0.00301764
0.00275637
0.00251784
0.00231599
0.00216266
0.00206537
0.00202788
0.00204292
0.00209152
0.00214229
0.00215294
0.00208724
0.0019254
0.00169068
0.00166768
0.00190424
0.0022359
0.00271909
0.00333533
0.00403361
0.00465464
0.00501745
0.00495043
0.00428294
0.00313262
0.00404446
0.00496115
0.00488409
0.00418015
0.00314572
0.00198448
0.000921943
0.000630906
0.00117994
0.000716558
0.00049148
0.000332413
0.000192088
0.00188807
0.00296261
0.00648297
0.00615387
0.0111262
0.00624539
0.00711291
0.00696054
0.00657095
0.00501952
0.0146487
0.00715515
0.00344832
0.000782006
0.00394255
0.000748613
0.000812534
0.00303589
0.0083874
0.0128413
0.0117575
0.0080449
0.00526813
0.00310879
0.00484114
0.00638395
0.00582579
0.00462483
0.00351817
0.00101601
0.00280611
0.00292655
0.456865
0.441795
0.42719
0.413189
0.399669
0.386497
0.373616
0.361007
0.348648
0.336506
0.324551
0.312768
0.301153
0.289703
0.278402
0.267208
0.25604
0.244768
0.233215
0.221174
0.208424
0.194765
0.180065
0.164301
0.147601
0.130253
0.112694
0.0954564
0.0790845
0.0640491
0.0506758
0.0391206
0.02939
0.0213763
0.014908
0.00978628
0.00579535
0.00352715
0.0031384
0.00336522
0.00344691
0.0035287
0.00368757
0.00398337
0.00411526
0.00412332
0.00403886
0.00388083
0.00367252
0.00343041
0.00317052
0.00291174
0.00267009
0.00246256
0.00230385
0.00220372
0.00216791
0.00219018
0.00225157
0.00231969
0.00234914
0.00230015
0.00214855
0.00191227
0.00178506
0.00192141
0.00224367
0.0027236
0.00334734
0.0040716
0.00473797
0.00516163
0.00516351
0.00454521
0.00340491
0.00393471
0.00512314
0.00529586
0.00470402
0.00359547
0.0022657
0.00106678
0.000650109
0.00120649
0.000685009
0.00052719
0.000399505
0.00011932
0.00190241
0.00308557
0.00662642
0.00627577
0.0114752
0.00623463
0.00763326
0.00762604
0.00648774
0.00454166
0.0150898
0.00815977
0.00402296
0.000695868
0.0040722
0.000814283
0.000582943
0.00374542
0.00947087
0.013543
0.0117066
0.0079469
0.00523841
0.00310761
0.00480669
0.00659883
0.00610849
0.00481354
0.00378073
0.00115868
0.00298349
0.00312839
0.448781
0.433814
0.419319
0.405421
0.392022
0.379005
0.366318
0.353945
0.341869
0.33006
0.318489
0.307137
0.295998
0.285074
0.274369
0.26388
0.253588
0.243443
0.233351
0.223175
0.212735
0.201815
0.190187
0.177647
0.164059
0.149402
0.133803
0.117557
0.101107
0.0849958
0.0697699
0.0558897
0.0436589
0.0332023
0.0244947
0.0174114
0.0117622
0.00734352
0.0039714
0.00274382
0.00302711
0.00316379
0.00321195
0.00340826
0.00369478
0.00387727
0.00392268
0.00385766
0.00371429
0.0035153
0.0032812
0.00303559
0.00279832
0.00259008
0.00242914
0.00232797
0.00229484
0.00232499
0.00239998
0.00248692
0.00253755
0.0025086
0.00237104
0.00214008
0.00189005
0.0019023
0.00220924
0.00267933
0.00330457
0.00405051
0.00476117
0.00525005
0.00533054
0.00477846
0.00367106
0.00371302
0.00517542
0.00564101
0.00521766
0.00406697
0.00257402
0.00123706
0.000649187
0.00119872
0.000615622
0.000572402
0.00055924
0.00023313
0.00198206
0.00328016
0.00669577
0.00636902
0.0115691
0.0063606
0.00818336
0.00802462
0.00629333
0.00396977
0.0151984
0.00910451
0.00462593
0.000612741
0.00415321
0.000843699
0.000660024
0.00449903
0.0105059
0.0140726
0.0115549
0.00787382
0.00522232
0.00316527
0.00472298
0.0067453
0.00638622
0.00499745
0.00402419
0.00132316
0.00318915
0.0033225
0.441266
0.426398
0.412007
0.398208
0.384918
0.372035
0.359512
0.347335
0.335487
0.323943
0.312675
0.301661
0.290889
0.280356
0.270065
0.260022
0.250232
0.240689
0.231364
0.222198
0.213093
0.203907
0.194453
0.184509
0.173846
0.16226
0.149618
0.135902
0.121245
0.105954
0.0904869
0.075395
0.0612297
0.0484371
0.0372896
0.0278778
0.0201403
0.0139268
0.00904504
0.00527662
0.00309494
0.00267163
0.00287083
0.00294027
0.00312999
0.00337652
0.00361289
0.00368983
0.00364825
0.00352035
0.00333285
0.00311556
0.00289333
0.00269155
0.00253291
0.00243336
0.00240438
0.0024433
0.0025328
0.00264013
0.00271445
0.00270908
0.00258956
0.00236765
0.00209578
0.00195812
0.00213227
0.00258651
0.00320748
0.0039702
0.00472291
0.00528018
0.00544712
0.00497693
0.00392421
0.00338112
0.00510524
0.00589582
0.00570055
0.00454927
0.00290856
0.00143598
0.000622453
0.00115055
0.000503043
0.000651253
0.000754132
0.000439132
0.00208604
0.00348666
0.00668261
0.00641264
0.0114253
0.00664563
0.00865603
0.00811024
0.00597217
0.00362834
0.0149388
0.0099451
0.00524097
0.000793782
0.00417896
0.000823635
0.00100155
0.0052802
0.0114684
0.0144288
0.0113438
0.00783853
0.0052235
0.00325195
0.00461819
0.00681414
0.00664705
0.00517886
0.00424276
0.00150546
0.00342469
0.00350314
0.434272
0.419498
0.405207
0.3915
0.378309
0.365545
0.353163
0.341149
0.329489
0.31816
0.307136
0.296394
0.285918
0.275699
0.265735
0.256026
0.24658
0.237403
0.228496
0.219847
0.211419
0.20315
0.194937
0.186631
0.178041
0.168943
0.159111
0.148344
0.136513
0.123608
0.109772
0.0953251
0.0807436
0.0665932
0.053425
0.0416673
0.0315553
0.0231347
0.016315
0.0109159
0.00673456
0.00356262
0.00235015
0.00255708
0.00268225
0.002834
0.00302966
0.00331473
0.00342864
0.00341224
0.00330131
0.00313423
0.00294252
0.00275762
0.00260797
0.00251397
0.00249135
0.0025403
0.00264539
0.00277485
0.00287554
0.00289752
0.00280033
0.0025914
0.00232053
0.00208791
0.00208485
0.00244662
0.00305715
0.00383039
0.00462114
0.00524841
0.005508
0.00513466
0.0041573
0.00299732
0.00490525
0.00603777
0.00612999
0.00502937
0.0032666
0.00166597
0.000565076
0.00105718
0.00034383
0.000829403
0.00103983
0.000636765
0.00219152
0.00365717
0.00658021
0.00639656
0.0111226
0.00706876
0.00895815
0.00792585
0.00554649
0.00368508
0.0143277
0.0106401
0.00584696
0.00122522
0.00414281
0.00074305
0.0015048
0.00618022
0.012338
0.0146185
0.0111109
0.00784553
0.00524346
0.00336897
0.0045232
0.00680537
0.00687677
0.00535607
0.00443337
0.00169976
0.00368184
0.00366253
0.427758
0.413071
0.398874
0.385254
0.372154
0.359494
0.347235
0.335361
0.323858
0.312707
0.301882
0.291361
0.281127
0.271167
0.261473
0.25204
0.242869
0.233965
0.225335
0.216983
0.208904
0.20108
0.193473
0.186016
0.178597
0.171066
0.163229
0.154867
0.145755
0.135697
0.124571
0.112374
0.0992642
0.0855781
0.0718109
0.0585434
0.0463256
0.0355586
0.0264383
0.0189609
0.012998
0.00835749
0.00481553
0.00270068
0.00223085
0.00241651
0.00251637
0.00273762
0.00298721
0.00314051
0.00315048
0.00306593
0.00292767
0.00277522
0.00264461
0.00256211
0.00254921
0.00261007
0.00273214
0.00288565
0.00301564
0.00306907
0.00299891
0.00280729
0.00253999
0.00230259
0.00218802
0.00234681
0.00285467
0.00362977
0.0044522
0.00514913
0.00550623
0.0052449
0.00436296
0.00294392
0.00457444
0.00604756
0.00648007
0.00549111
0.00364299
0.00192827
0.000471714
0.000913682
0.000171966
0.00103312
0.00133991
0.0008182
0.00230418
0.0037737
0.00638505
0.00632316
0.0107537
0.00756538
0.00905679
0.00759261
0.00506705
0.00390557
0.0134669
0.0111622
0.00642181
0.0016968
0.00403786
0.00059355
0.00208798
0.00711337
0.0130971
0.0146572
0.0108869
0.00789169
0.00527908
0.00350775
0.00446356
0.00672884
0.00706368
0.00552653
0.00459817
0.00190213
0.0039454
0.00379151
0.421684
0.40708
0.392971
0.379433
0.366415
0.35385
0.341698
0.329944
0.318576
0.307573
0.296913
0.286575
0.276541
0.266795
0.257326
0.248125
0.239189
0.230516
0.222109
0.213974
0.206114
0.19853
0.191213
0.184144
0.17728
0.170546
0.16383
0.156979
0.149801
0.14208
0.133597
0.12416
0.113655
0.102089
0.0896328
0.0766438
0.0636378
0.0512091
0.0399037
0.0300918
0.0219172
0.0153339
0.0101701
0.00621448
0.00324992
0.00203041
0.0021348
0.00226302
0.0024567
0.00262985
0.00282452
0.00287122
0.00282122
0.00272501
0.00262898
0.0025673
0.00256936
0.00264511
0.00278605
0.00296582
0.00312832
0.00321778
0.00317996
0.00301065
0.00274993
0.00250837
0.00238551
0.00247227
0.00275062
0.0033657
0.0042105
0.00497427
0.00543287
0.00529971
0.0045339
0.00318854
0.00411626
0.00591068
0.00672401
0.00591474
0.0040294
0.00222205
0.000523333
0.00071829
0.000253399
0.00134299
0.00164367
0.0009781
0.00242613
0.00392772
0.00619324
0.00620072
0.0103725
0.00805396
0.00899753
0.00725738
0.00457677
0.00422526
0.0125282
0.0115058
0.00694217
0.00219783
0.00385788
0.000584324
0.00271179
0.0080338
0.0137338
0.0145641
0.010692
0.00796679
0.00532277
0.00365148
0.00445429
0.00660231
0.00720149
0.00568997
0.00474494
0.00211622
0.00420063
0.00387953
0.416019
0.401491
0.387465
0.374002
0.36106
0.34858
0.336523
0.324875
0.313622
0.302746
0.292225
0.282039
0.27217
0.262602
0.253322
0.244318
0.235583
0.227111
0.218899
0.21095
0.203266
0.19585
0.188705
0.181827
0.175207
0.168822
0.162622
0.15653
0.150432
0.144178
0.137579
0.130423
0.122495
0.113609
0.103659
0.0926632
0.080808
0.0684686
0.0561829
0.0445595
0.0341336
0.0252421
0.0179715
0.0122215
0.0077945
0.00445895
0.00237573
0.00184174
0.00202777
0.00215327
0.00233545
0.00248855
0.00257959
0.00257691
0.00254012
0.00251442
0.00253993
0.00263548
0.00279811
0.00300688
0.00320552
0.0033362
0.00333695
0.00319597
0.00294563
0.002701
0.00256812
0.00265146
0.00294542
0.00340033
0.0039928
0.00471376
0.0052775
0.00528981
0.00466077
0.00340851
0.00353674
0.00561857
0.0068362
0.00627746