/*--------------------------------*- C++ -*----------------------------------*\
| =========                 |                                                 |
| \\      /  F ield         | OpenFOAM: The Open Source CFD Toolbox           |
|  \\    /   O peration     | Version:  2412                                  |
|   \\  /    A nd           | Website:  www.openfoam.com                      |
|    \\/     M anipulation  |                                                 |
\*---------------------------------------------------------------------------*/
FoamFile
{
    version     2.0;
    format      ascii;
    arch        "LSB;label=32;scalar=64";
    class       surfaceScalarField;
    location    "0.56";
    object      phi_0;
}
// * * * * * * * * * * * * * * * * * * * * * * * * * * * * * * * * * * * * * //

dimensions      [0 3 -1 0 0 0 0];

oriented        oriented;

internalField   nonuniform List<scalar> 
24930
(
0.0179703
0.0127557
-0.0307258
0.0106064
0.00736389
0.00695568
0.0036507
0.00517945
0.00177623
0.00420725
0.000972203
0.00358423
0.000623019
0.00313822
0.000446007
0.00279863
0.000339593
0.00252938
0.00026925
0.0023094
0.000219974
0.00212555
0.000183855
0.00196908
0.000156468
0.00183395
0.000135133
0.0017158
0.000118144
0.00161143
0.000104367
0.00151842
9.30179e-05
0.00143487
8.35424e-05
0.00135934
7.55376e-05
0.00129063
6.87047e-05
0.00122781
6.28186e-05
0.00117011
5.77065e-05
0.00111687
5.3234e-05
0.00106758
4.92954e-05
0.00102177
4.58062e-05
0.00097907
4.26984e-05
0.000939153
3.99167e-05
0.000901736
3.74157e-05
0.000866578
3.51577e-05
0.000833467
3.31114e-05
0.000802216
3.12505e-05
0.000772663
2.95529e-05
0.000744663
2.79995e-05
0.000718088
2.65746e-05
0.000692823
2.5264e-05
0.000668767
2.40563e-05
0.000645826
2.29404e-05
0.000623917
2.19084e-05
0.000602966
2.09511e-05
0.000582902
2.00632e-05
0.000563665
1.92367e-05
0.000545196
1.84689e-05
0.000527444
1.77517e-05
0.000510358
1.70851e-05
0.000493898
1.64603e-05
0.000478017
1.58803e-05
0.000462683
1.53343e-05
0.000447853
1.48295e-05
0.000433501
1.43514e-05
0.000419588
1.39126e-05
0.000406094
1.34935e-05
0.00039298
1.31136e-05
0.000380234
1.2746e-05
0.000367814
1.24194e-05
0.000355717
1.20971e-05
0.000343897
1.18196e-05
0.000332359
1.15372e-05
0.000321053
1.13059e-05
0.000309994
1.10585e-05
0.000299123
1.08711e-05
0.000288469
1.06541e-05
0.00027796
1.05089e-05
0.000267642
1.03178e-05
0.000257427
1.0214e-05
0.000247383
1.00443e-05
0.000237401
9.9818e-06
0.000227572
9.82841e-06
0.000217764
9.80758e-06
0.000208099
9.66504e-06
0.000198412
9.68661e-06
0.000188863
9.54856e-06
0.00017925
9.61323e-06
0.000169777
9.47242e-06
0.000160196
9.58058e-06
0.000150768
9.42851e-06
0.000141187
9.58013e-06
0.00013178
9.40704e-06
0.000122177
9.60167e-06
0.00011278
9.39686e-06
0.000103146
9.63317e-06
9.37604e-05
9.38571e-06
8.40994e-05
9.66094e-06
7.47373e-05
9.362e-06
6.50655e-05
9.67164e-06
5.57479e-05
9.31725e-06
4.60958e-05
9.6517e-06
3.68476e-05
9.24795e-06
2.72584e-05
9.58901e-06
1.80939e-05
9.16457e-06
8.62282e-06
9.47121e-06
-4.96074e-07
9.11906e-06
-9.82526e-06
9.32926e-06
-1.89005e-05
9.07536e-06
-2.80354e-05
9.13494e-06
-3.70818e-05
9.04646e-06
-4.59946e-05
8.9125e-06
-5.55784e-05
9.5836e-06
-6.52225e-05
9.64372e-06
-7.64715e-05
1.1249e-05
-8.75659e-05
1.10947e-05
-0.000101189
1.3624e-05
-0.000113293
1.21051e-05
-0.000128697
1.54044e-05
-0.000139442
1.07461e-05
-0.000149503
1.00617e-05
-0.000172185
2.26808e-05
-0.000220061
4.78844e-05
-0.0001747
-4.53575e-05
-8.77104e-05
-8.70119e-05
-0.000220967
0.000133244
-0.000550285
0.000329333
-0.000694264
0.000144013
-0.000504945
-0.000189313
-0.000159911
-0.000345048
0.000105108
-0.000265035
0.000252875
-0.000147777
0.00029174
-3.88687e-05
0.000264602
2.71406e-05
0.000242648
2.19602e-05
0.000299967
-5.73136e-05
-0.000150574
0.0336816
0.0163172
-0.0372431
0.0277475
0.0132979
0.0221966
0.00920158
0.0179235
0.0060494
0.0148779
0.00401781
0.0127177
0.00278322
0.0111307
0.00203295
0.00991374
0.00155657
0.00894656
0.00123644
0.00815623
0.0010103
0.00749601
0.000844072
0.00693461
0.000717867
0.00645025
0.000619491
0.00602726
0.000541135
0.00565404
0.000477584
0.00532182
0.00042524
0.00502382
0.000381548
0.0047547
0.000344649
0.00451024
0.000313166
0.004287
0.000286058
0.00408218
0.000262528
0.00389346
0.000241953
0.00371891
0.000223844
0.00355691
0.000207811
0.00340606
0.000193538
0.00326521
0.000180771
0.00313333
0.000169298
0.00300954
0.000158946
0.00289308
0.000149569
0.00278328
0.000141047
0.00267956
0.000133276
0.00258139
0.000126169
0.00248831
0.000119653
0.00239991
0.000113663
0.00231582
0.000108144
0.00223571
0.000103049
0.00215928
9.83362e-05
0.00208627
9.3968e-05
0.00201641
8.99162e-05
0.0019495
8.61477e-05
0.00188533
8.26447e-05
0.0018237
7.93769e-05
0.00176445
7.63359e-05
0.00170742
7.3491e-05
0.00165245
7.0844e-05
0.00159943
6.83603e-05
0.0015482
6.60537e-05
0.00149867
6.38816e-05
0.00145071
6.18727e-05
0.00140423
5.99716e-05
0.00135912
5.82265e-05
0.0013153
5.65632e-05
0.00127266
5.5055e-05
0.00123116
5.36018e-05
0.00119067
5.23098e-05
0.00115116
5.10437e-05
0.00111251
4.9952e-05
0.00107472
4.8853e-05
0.00103764
4.79488e-05
0.0010013
4.6998e-05
0.000965533
4.62712e-05
0.000930399
4.54512e-05
0.000895718
4.48947e-05
0.000861573
4.41887e-05
0.000827756
4.37976e-05
0.000794397
4.31875e-05
0.000761245
4.29588e-05
0.000728484
4.2425e-05
0.000695814
4.23567e-05
0.000663484
4.18771e-05
0.000631131
4.19663e-05
0.000599087
4.15153e-05
0.00056691
4.17577e-05
0.000535033
4.1305e-05
0.00050292
4.16932e-05
0.000471122
4.1204e-05
0.000438995
4.17279e-05
0.000407229
4.11624e-05
0.000375053
4.1808e-05
0.000343312
4.1126e-05
0.000311097
4.18752e-05
0.000279414
4.10439e-05
0.000247213
4.18726e-05
0.000215657
4.08726e-05
0.000183568
4.17404e-05
0.000152231
4.05841e-05
0.000120388
4.14319e-05
8.93465e-05
4.02055e-05
5.78965e-05
4.09209e-05
2.71347e-05
3.98805e-05
-3.71013e-06
4.01738e-05
-3.4407e-05
3.97721e-05
-6.47674e-05
3.94953e-05
-9.50415e-05
3.93204e-05
-0.000124882
3.87533e-05
-0.000156727
4.14279e-05
-0.000188978
4.18947e-05
-0.000225675
4.79466e-05
-0.000262314
4.77329e-05
-0.000305831
5.71412e-05
-0.00034506
5.13336e-05
-0.00039364
6.39852e-05
-0.000427281
4.43867e-05
-0.000460775
4.35563e-05
-0.000538129
0.000100037
-0.000670011
0.000179762
-0.00051551
-0.000199855
-0.000296925
-0.000305587
-0.000753594
0.000589914
-0.00172051
0.00129626
-0.00206997
0.000493457
-0.0014351
-0.000824177
-0.000385668
-0.00139447
0.000423465
-0.00107416
0.000856631
-0.000580938
0.000967443
-0.000149682
0.000893084
0.000101497
0.000842913
7.21272e-05
0.00105693
-0.000271331
-0.000623465
0.0414508
0.0160105
-0.0411441
0.0391637
0.0155851
0.0352365
0.0131287
0.0309525
0.0103334
0.0270397
0.00793064
0.0237522
0.00607068
0.021079
0.0047062
0.0189111
0.00372444
0.017134
0.00301347
0.0156553
0.00248905
0.0144059
0.00209344
0.0133357
0.00178814
0.0124076
0.00154756
0.0115943
0.00135445
0.0108749
0.00119695
0.0102335
0.00106668
0.00965745
0.000957578
0.00913689
0.000865215
0.00866379
0.000786257
0.00823168
0.00071817
0.00783521
0.000658999
0.00746995
0.000607215
0.00713219
0.000561605
0.00681879
0.000521203
0.00652711
0.000485223
0.00625485
0.000453028
0.00600005
0.000424092
0.00576102
0.000397978
0.00553626
0.000374325
0.00532448
0.000352825
0.00512454
0.000333222
0.00493541
0.000315295
0.0047562
0.000298859
0.00458611
0.00028375
0.00442442
0.000269833
0.00427049
0.000256983
0.00412373
0.0002451
0.00398361
0.000234087
0.00384965
0.00022387
0.00372143
0.000214372
0.00359853
0.000205539
0.0034806
0.000197304
0.0033673
0.000189636
0.00325832
0.000182468
0.00315338
0.000175791
0.0030522
0.000169535
0.00295454
0.000163713
0.00286018
0.000158244
0.00276888
0.000153167
0.00268047
0.000148383
0.00259473
0.000143965
0.00251151
0.000139782
0.00243061
0.000135953
0.00235191
0.000132303
0.00227521
0.000129009
0.00220042
0.000125836
0.00212734
0.000123034
0.0020559
0.000120289
0.0019859
0.000117944
0.00191732
0.000115583
0.00184992
0.000113665
0.00178373
0.000111648
0.00171848
0.000110137
0.00165425
0.000108424
0.00159074
0.000107303
0.00152807
0.000105856
0.00146592
0.000105111
0.00140446
0.000103887
0.00134331
0.000103507
0.00128273
0.000102458
0.00122226
0.00010243
0.00116227
0.000101501
0.00110223
0.000101807
0.0010426
0.000100932
0.000982746
0.000101545
0.000923302
0.000100647
0.000863494
0.000101535
0.000804128
0.000100527
0.000744289
0.000101646
0.000684979
0.000100436
0.000625117
0.000101736
0.000565914
0.000100247
0.000506122
0.000101664
0.000447151
9.98436e-05
0.000387606
0.000101285
0.000329048
9.91422e-05
0.000269986
0.000100492
0.000212011
9.81805e-05
0.00015368
9.92518e-05
9.63211e-05
9.72391e-05
3.88842e-05
9.76106e-05
-1.79256e-05
9.65818e-05
-7.41399e-05
9.57095e-05
-0.000130319
9.54999e-05
-0.000185697
9.41301e-05
-0.00024456
0.000100291
-0.00030413
0.000101465
-0.000371074
0.000114891
-0.000437916
0.000114575
-0.000515985
0.000135211
-0.0005864
0.000121749
-0.000672523
0.000150109
-0.000731602
0.000103466
-0.000794161
0.000106116
-0.000934078
0.000239954
-0.00114361
0.0003893
-0.000864715
-0.000478756
-0.000547985
-0.000622319
-0.0013902
0.00143213
-0.00299698
0.00290304
-0.00347066
0.000967139
-0.0022998
-0.00199504
-0.000496358
-0.0031979
0.000889735
-0.00246025
0.00161202
-0.00130322
0.00179261
-0.000330272
0.00167787
0.000216232
0.00161949
0.000130506
0.00203533
-0.000687173
-0.00146938
0.045913
0.0147096
-0.0446121
0.0459981
0.0155
0.0444217
0.0147051
0.0417008
0.0130544
0.0384599
0.0111715
0.0351575
0.009373
0.0320612
0.00780249
0.0292854
0.0065003
0.0268489
0.00544999
0.0247257
0.00461221
0.0228748
0.00394431
0.0212544
0.00340858
0.0198272
0.00297473
0.0185621
0.00261954
0.0174336
0.00232553
0.0164207
0.00207956
0.0155065
0.00187176
0.0146771
0.0016946
0.0139211
0.0015423
0.0132289
0.00141037
0.0125926
0.00129529
0.0120055
0.00119427
0.0114621
0.00110506
0.0109574
0.00102587
0.0104874
0.000955229
0.0100485
0.000891921
0.00963762
0.000834949
0.00925212
0.000783481
0.00888962
0.00073682
0.00854807
0.000694375
0.00822564
0.00065565
0.00792072
0.000620217
0.00763186
0.000587715
0.00735778
0.000557827
0.00709733
0.000530286
0.00684946
0.00050485
0.00661324
0.000481321
0.00638781
0.000459512
0.00617241
0.000439274
0.00596632
0.000420456
0.00576891
0.000402953
0.00557958
0.000386635
0.00539778
0.000371431
0.00522302
0.000357225
0.00505484
0.00034398
0.00489279
0.000331578
0.00473648
0.000320021
0.00458555
0.000309176
0.00443963
0.000299089
0.00429841
0.000289601
0.00416156
0.000280811
0.00402883
0.000272516
0.0038999
0.000264882
0.00377455
0.000257646
0.0036525
0.00025106
0.00353357
0.000244773
0.00341745
0.000239145
0.00330403
0.000233712
0.003193
0.000228971
0.00308428
0.000224307
0.00297755
0.000220392
0.00287277
0.000216422
0.00276962
0.000213287
0.00266811
0.00020994
0.00256786
0.000207545
0.00246897
0.000204748
0.00237102
0.000203064
0.00227416
0.000200741
0.00217793
0.000199737
0.00208259
0.000197803
0.00198757
0.000197447
0.00189327
0.000195803
0.00179902
0.000196051
0.00170538
0.00019458
0.00161154
0.000195375
0.00151825
0.000193937
0.00142458
0.000195206
0.00133147
0.000193642
0.00123782
0.000195292
0.00114482
0.000193434
0.0010512
0.000195358
0.000958381
0.000193061
0.000864916
0.000195128
0.000772473
0.000192286
0.000679439
0.000194318
0.000587656
0.000190925
0.000495424
0.000192724
0.00040459
0.000189013
0.000313551
0.000190291
0.000223779
0.00018701
0.000134195
0.000187194
4.55032e-05
0.000185274
-4.20123e-05
0.000183225
-0.00012965
0.000183138
-0.000215966
0.000180446
-0.000307395
0.000191721
-0.000399626
0.000193696
-0.000502316
0.00021758
-0.000604406
0.000216665
-0.000722262
0.000253067
-0.000828078
0.000227564
-0.000956463
0.000278495
-0.00104371
0.000190709
-0.00114175
0.000204162
-0.00134898
0.000447189
-0.00162983
0.000670142
-0.00121628
-0.000892305
-0.000839002
-0.000999588
-0.00211906
0.00271219
-0.00435038
0.00513436
-0.00485057
0.00146732
-0.00305101
-0.00379459
-0.000450351
-0.00579855
0.0015386
-0.0044492
0.00255319
-0.0023178
0.00280268
-0.000579764
0.00265855
0.000360357
0.00261786
0.000171203
0.00328113
-0.00135044
-0.0027461
0.0493798
0.0135145
-0.0481847
0.0503447
0.0145351
0.0503647
0.0146851
0.049345
0.014074
0.0475031
0.0130134
0.0451314
0.0117447
0.0425013
0.0104326
0.0398192
0.00918243
0.0372197
0.00804946
0.0347774
0.00705456
0.0325244
0.00619732
0.0304667
0.00546629
0.0285959
0.00484551
0.0268971
0.00431832
0.0253533
0.00386938
0.0239474
0.00348539
0.022664
0.00315521
0.0214889
0.00286971
0.0204097
0.00262144
0.0194158
0.00240434
0.0184976
0.00221348
0.017647
0.00204482
0.016857
0.00189508
0.0161213
0.00176153
0.0154346
0.00164191
0.0147922
0.00153435
0.0141899
0.00143727
0.013624
0.00134935
0.0130914
0.00126946
0.0125891
0.00119665
0.0121146
0.00113011
0.0116657
0.00106914
0.0112403
0.00101314
0.0108365
0.00096159
0.0104528
0.000914035
0.0100875
0.000870079
0.00973948
0.000829384
0.00940735
0.000791638
0.00909004
0.000756587
0.00878651
0.000723979
0.00849584
0.000693629
0.00821715
0.000665323
0.00794964
0.000638934
0.0076926
0.000614271
0.00744532
0.000591259
0.00720718
0.000569712
0.00697759
0.00054961
0.00675601
0.000530756
0.00654191
0.000513192
0.00633482
0.000496686
0.00613427
0.000481358
0.00593987
0.000466919
0.00575117
0.000453584
0.00556783
0.000440983
0.00538944
0.000429449
0.00521571
0.000418496
0.00504625
0.000408608
0.00488082
0.000399142
0.00471902
0.00039077
0.00456068
0.000382647
0.00440539
0.000375686
0.00425303
0.000368779
0.00410317
0.000363141
0.00395578
0.000357335
0.00381037
0.00035295
0.003667
0.000348124
0.00352513
0.000344932
0.0033849
0.000340964
0.00324573
0.000338909
0.00310787
0.00033566
0.00297064
0.000334679
0.00283445
0.000331992
0.0026985
0.000332003
0.00256339
0.000329688
0.00242818
0.000330586
0.00229369
0.00032842
0.00215883
0.000330071
0.00202468
0.000327791
0.00188994
0.000330029
0.00175601
0.00032736
0.00162138
0.000329989
0.00148775
0.000326688
0.0013534
0.000329477
0.00122033
0.000325354
0.00108665
0.000328
0.000954556
0.000323019
0.00082208
0.0003252
0.000691404
0.000319689
0.000560717
0.000320977
0.000431696
0.000316031
0.000303233
0.000315657
0.000176
0.000312507
5.06781e-05
0.000308547
-7.48345e-05
0.000308651
-0.000198394
0.000304005
-0.000328809
0.000322136
-0.000459765
0.000324651
-0.000604411
0.000362227
-0.000747278
0.000359532
-0.000910611
0.0004164
-0.00105623
0.000373181
-0.00123181
0.000454075
-0.00135002
0.000308919
-0.00149028
0.000344429
-0.00176759
0.000724499
-0.00211201
0.00101456
-0.0015592
-0.00144511
-0.00116328
-0.00139551
-0.00291934
0.00446825
-0.00573547
0.00795049
-0.00614722
0.00187905
-0.00362735
-0.00631446
-0.000201
-0.00922489
0.00241366
-0.00706385
0.00372141
-0.00362555
0.00404105
-0.000899404
0.0038846
0.000516806
0.00389244
0.000163344
0.00485015
-0.00230815
-0.00451241
0.0528391
0.012616
-0.0519406
0.0538682
0.013506
0.0545532
0.0140002
0.0546237
0.0140034
0.0540273
0.0136098
0.0528331
0.0129389
0.0511702
0.0120955
0.0491849
0.0111677
0.0470118
0.0102227
0.0447611
0.00930521
0.0425152
0.00844326
0.04033
0.00765149
0.0382401
0.0069354
0.036264
0.0062944
0.0344091
0.00572426
0.0326756
0.00521884
0.0310595
0.00477131
0.0295544
0.00437488
0.0281526
0.00402318
0.0268465
0.00371047
0.0256283
0.00343169
0.0244907
0.00318243
0.0234269
0.00295889
0.0224306
0.00275781
0.0214961
0.00257638
0.0206183
0.0024122
0.0197924
0.0022632
0.0190141
0.0021276
0.0182797
0.00200388
0.0175856
0.00189071
0.0169288
0.00178694
0.0163064
0.00169159
0.0157157
0.00160379
0.0151545
0.00152277
0.0146207
0.00144789
0.0141122
0.00137855
0.0136273
0.00131425
0.0131644
0.00125453
0.012722
0.00119899
0.0122987
0.00114726
0.0118933
0.00109906
0.0115046
0.00105407
0.0111314
0.00101207
0.0107729
0.000972799
0.010428
0.000936115
0.010096
0.00090175
0.00977596
0.000869653
0.00946717
0.000839541
0.00916891
0.00081145
0.00888054
0.000785056
0.0086014
0.000760498
0.00833094
0.000737384
0.00806854
0.000715978
0.00781374
0.000695783
0.00756597
0.000677224
0.00732481
0.000659653
0.00708972
0.000643693
0.00686037
0.000628492
0.00663622
0.000614924
0.00641699
0.000601871
0.00620215
0.000590524
0.00599151
0.000579422
0.00578449
0.000570156
0.005581
0.000560827
0.00538043
0.000553524
0.00518276
0.000545786
0.00498735
0.000540347
0.0047943
0.000534014
0.00460286
0.000530343
0.00441331
0.00052521
0.00422479
0.0005232
0.00403775
0.000519029
0.00385121
0.000518548
0.00366584
0.000515053
0.0034805
0.000515928
0.00329615
0.000512773
0.00311143
0.000514786
0.00292765
0.000511573
0.00274322
0.000514452
0.00255982
0.000510758
0.00237563
0.000514185
0.00219268
0.00050963
0.00200893
0.000513227
0.00182678
0.000507503
0.001644
0.000510785
0.00146321
0.000503806
0.00128214
0.000506272
0.00110336
0.000498468
0.000924835
0.000499497
0.000748481
0.000492386
0.000573207
0.00049093
0.000399597
0.000486117
0.000228778
0.000479366
5.78738e-05
0.000479554
-0.000110264
0.000472143
-0.000287069
0.00049894
-0.000463656
0.000501238
-0.000657206
0.000555777
-0.000846928
0.000549255
-0.00106186
0.000631328
-0.00125191
0.000563232
-0.00147974
0.000681913
-0.00163178
0.000460957
-0.00182089
0.000533544
-0.00216841
0.00107202
-0.00256811
0.00141425
-0.00187741
-0.00213581
-0.00150603
-0.00176688
-0.00375605
0.00671828
-0.00709069
0.0112851
-0.00728478
0.00207317
-0.00395704
-0.0096422
0.000315436
-0.0134974
0.003567
-0.0103154
0.00516783
-0.00522636
0.00556191
-0.00129348
0.00541668
0.000662027
0.00550844
7.15959e-05
0.0068078
-0.00360751
-0.00682764
0.0565605
0.0119286
-0.0558732
0.0574146
0.0126519
0.0582119
0.0132028
0.0587398
0.0134756
0.0588759
0.0134736
0.0585747
0.0132401
0.0578455
0.0128247
0.056736
0.0122773
0.0553145
0.0116441
0.0536565
0.0109632
0.0518352
0.0102646
0.0499157
0.0095709
0.0479528
0.00889834
0.0459893
0.00825791
0.0440572
0.00765633
0.042179
0.00709701
0.0403695
0.00658091
0.0386371
0.00610723
0.0369862
0.00567405
0.0354179
0.00527878
0.0339311
0.00491849
0.0325234
0.00459017
0.0311914
0.00429089
0.0299313
0.00401785
0.0287392
0.00376847
0.0276111
0.00354039
0.0265428
0.00333147
0.0255306
0.00313979
0.0245708
0.00296365
0.02366
0.00280151
0.0227949
0.00265202
0.0219726
0.00251396
0.0211901
0.00238628
0.0204449
0.002268
0.0197345
0.00215829
0.0190566
0.00205638
0.0184093
0.0019616
0.0177905
0.00187335
0.0171984
0.00179108
0.0166313
0.00171431
0.0160878
0.00164262
0.0155662
0.00157559
0.0150654
0.00151292
0.0145839
0.00145423
0.0141207
0.00139933
0.0136747
0.00134783
0.0132446
0.00129967
0.0128297
0.00125444
0.012429
0.00121219
0.0120416
0.00117247
0.0116666
0.00113544
0.0113034
0.00110059
0.0109512
0.00106823
0.0106092
0.00103773
0.0102768
0.00100961
0.00995348
0.000983022
0.00963841
0.000958761
0.00933117
0.000935725
0.00903107
0.000915022
0.00873774
0.00089521
0.00845045
0.000877809
0.00816893
0.000860937
0.00789246
0.000846628
0.00762085
0.000832437
0.00735333
0.000821042
0.00708984
0.000809272
0.00682955
0.000800639
0.00657254
0.000791023
0.00631788
0.000785005
0.00606584
0.000777248
0.00581536
0.000773682
0.00556694
0.000767448
0.00531935
0.000766132
0.00507339
0.000761012
0.00482763
0.000761685
0.00458321
0.000757195
0.00433847
0.000759526
0.00409495
0.000755094
0.00385073
0.000758668
0.00360781
0.000753677
0.00336399
0.000758007
0.00312173
0.000751892
0.00287855
0.000756399
0.00263737
0.000748685
0.00239552
0.000752634
0.00215617
0.000743156
0.00191665
0.000745792
0.00168003
0.000735087
0.00144402
0.000735511
0.00121081
0.000725594
0.000979368
0.000722371
0.000750162
0.000715323
0.000524921
0.000704607
0.00029961
0.000704866
7.84648e-05
0.000693288
-0.000153195
0.0007306
-0.000383275
0.000731318
-0.000633495
0.000805997
-0.000876706
0.000792466
-0.00114979
0.000904408
-0.00138905
0.000802499
-0.00167428
0.000967142
-0.00186289
0.000649563
-0.00210697
0.000777627
-0.00252192
0.00148698
-0.00296859
0.00186092
-0.00214738
-0.00295702
-0.00184114
-0.00207312
-0.00457705
0.00945421
-0.00833565
0.0150437
-0.00817268
0.00191005
-0.00395576
-0.0138591
0.00116772
-0.0186208
0.00506265
-0.0142103
0.00695619
-0.00711989
0.00743253
-0.00176982
0.00732876
0.000765795
0.00754377
-0.000143429
0.00923058
-0.00529432
-0.00975104
0.0605672
0.0113651
-0.0600037
0.0612521
0.011967
0.0619673
0.0124876
0.0625902
0.0128528
0.0630231
0.0130407
0.0632023
0.013061
0.0630922
0.0129348
0.0626823
0.0126872
0.0619828
0.0123435
0.0610184
0.0119276
0.0598235
0.0114596
0.0584376
0.0109568
0.0569019
0.0104341
0.0552563
0.00990349
0.0535377
0.00937492
0.0517785
0.00885625
0.0500058
0.00835352
0.0482419
0.00787114
0.0465039
0.00741207
0.0448046
0.00697806
0.0431533
0.00656986
0.0415559
0.00618748
0.0400165
0.00583037
0.0385368
0.00549756
0.0371174
0.00518786
0.0357578
0.00489992
0.034457
0.00463233
0.0332131
0.00438368
0.0320242
0.00415258
0.0308879
0.00393772
0.0298021
0.00373785
0.0287643
0.0035518
0.027772
0.0033785
0.0268231
0.00321695
0.0259151
0.00306625
0.025046
0.00292554
0.0242135
0.00279408
0.0234157
0.00267114
0.0226506
0.00255612
0.0219165
0.00244841
0.0212117
0.00234752
0.0205343
0.00225291
0.019883
0.00216422
0.0192563
0.00208097
0.0186527
0.0020029
0.018071
0.00192955
0.0175099
0.00186079
0.0169682
0.00179613
0.0164448
0.00173558
0.0159387
0.0016786
0.0154487
0.00162538
0.0149741
0.00157524
0.0145137
0.00152859
0.0140669
0.0014846
0.0136325
0.00144391
0.0132101
0.00140547
0.0127986
0.00137026
0.0123974
0.00133687
0.0120058
0.0013067
0.011623
0.00127793
0.0112484
0.00125245
0.0108814
0.00122789
0.0105213
0.00120681
0.0101676
0.00118612
0.00981944
0.00116918
0.00947671
0.001152
0.00913836
0.00113899
0.00880443
0.00112495
0.00847377
0.00111567
0.00814666
0.00110436
0.00782177
0.00109857
0.00749969
0.00108954
0.00717888
0.00108694
0.00686026
0.00107963
0.00654209
0.00107986
0.00622569
0.00107359
0.00590904
0.00107617
0.00559398
0.00107016
0.00527815
0.00107449
0.00496397
0.00106786
0.00464874
0.00107323
0.00433545
0.00106518
0.0040211
0.00107074
0.00370922
0.00106057
0.00339661
0.00106524
0.00308711
0.00105266
0.00277756
0.00105534
0.00247165
0.00104099
0.00216678
0.00104038
0.00186552
0.00102685
0.00156691
0.00102099
0.00127127
0.00101096
0.000981103
0.000994778
0.000691019
0.000994951
0.000406858
0.000977449
0.000110677
0.00102678
-0.000181761
0.00102376
-0.000497288
0.00112152
-0.000801235
0.00109641
-0.00113945
0.00124263
-0.00143285
0.0010959
-0.00178058
0.00131487
-0.0020082
0.000877183
-0.00231231
0.00108174
-0.0027887
0.00196337
-0.00327468
0.00234689
-0.00233517
-0.00389654
-0.00212754
-0.00228073
-0.00531024
0.0126369
-0.00936975
0.0191032
-0.00870581
0.00124657
-0.00352589
-0.019039
0.00243376
-0.0245805
0.00697888
-0.0187554
0.00916558
-0.00930659
0.0097358
-0.00234004
0.00970988
0.000791712
0.0100909
-0.000524469
0.0122079
-0.0074113
-0.0133357
0.0648528
0.0108803
-0.0643679
0.0654186
0.0114012
0.0660268
0.0118794
0.0666123
0.0122673
0.0671124
0.0125406
0.0674786
0.0126947
0.0676756
0.0127378
0.0676795
0.0126832
0.0674772
0.0125459
0.0670645
0.0123403
0.0664451
0.0120789
0.0656295
0.0117724
0.0646336
0.0114301
0.063477
0.0110601
0.0621824
0.0106695
0.0607739
0.0102647
0.0592758
0.0098517
0.0577113
0.00943562
0.0561022
0.00902117
0.0544679
0.00861238
0.0528251
0.00821258
0.0511882
0.00782446
0.0495685
0.00745005
0.0479753
0.00709077
0.0464156
0.00674755
0.0448946
0.00642086
0.0434161
0.00611081
0.0419826
0.00581724
0.0405954
0.00553978
0.0392552
0.00527791
0.037962
0.00503102
0.0367154
0.00479842
0.0355145
0.00457942
0.0343582
0.00437327
0.0332452
0.00417927
0.032174
0.00399671
0.0311431
0.00382492
0.030151
0.00366324
0.0291961
0.00351108
0.0282767
0.00336782
0.0273912
0.00323299
0.0265381
0.003106
0.0257159
0.00298646
0.024923
0.00287384
0.024158
0.00276787
0.0234196
0.00266799
0.0227063
0.00257408
0.0220169
0.00248555
0.02135
0.00240242
0.0207046
0.00232403
0.0200794
0.0022506
0.0194733
0.00218133
0.0188852
0.0021167
0.0183141
0.00205568
0.0177589
0.00199909
0.0172188
0.00194559
0.0166926
0.00189641
0.0161797
0.00184979
0.0156789
0.00180747
0.0151897
0.00176717
0.0147109
0.00173126
0.014242
0.00169676
0.013782
0.00166688
0.0133303
0.00163773
0.012886
0.00161355
0.0124487
0.00158928
0.0120172
0.0015705
0.0115915
0.00155064
0.0111702
0.00153699
0.0107535
0.001521
0.0103399
0.00151216
0.00993002
0.00149944
0.00952194
0.00149502
0.00911675
0.00148482
0.0087123
0.00148431
0.00831016
0.00147573
0.00790785
0.00147848
0.00750756
0.00147045
0.00710643
0.00147562
0.00670734
0.00146695
0.00630702
0.00147355
0.00590908
0.00146313
0.00550988
0.00146994
0.00511369
0.00145676
0.00471667
0.00146226
0.00432346
0.00144587
0.00393033
0.00144846
0.00354174
0.00142959
0.00315468
0.00142743
0.00277224
0.0014093
0.00239354
0.00139969
0.00201878
0.00138572
0.00165136
0.00136219
0.00128438
0.00136193
0.000925768
0.00133606
0.000553606
0.00139894
0.000189051
0.00138831
-0.000201239
0.00151181
-0.000573969
0.00146914
-0.000984722
0.00165338
-0.00133724
0.00144842
-0.00175242
0.00173004
-0.00202091
0.00114568
-0.00238854
0.00144938
-0.00291708
0.00249191
-0.00343553
0.00286533
-0.00239253
-0.00493953
-0.00230541
-0.00236783
-0.00586126
0.0161928
-0.0100707
0.0233127
-0.00876381
-6.19305e-05
-0.00255417
-0.0252487
0.00421472
-0.0313493
0.00941159
-0.0239523
0.0118937
-0.0117887
0.012573
-0.00301937
0.0126666
0.000698092
0.0132591
-0.001117
0.0158445
-0.00999673
-0.0176249
0.0694262
0.0104525
-0.0689984
0.0699101
0.0109173
0.0704311
0.0113583
0.0709536
0.0117449
0.0714378
0.0120564
0.0718499
0.0122826
0.0721641
0.0124237
0.0723608
0.0124865
0.0724261
0.0124806
0.07235
0.0124164
0.0721256
0.0123033
0.0717492
0.0121488
0.07122
0.0119592
0.0705405
0.0117395
0.0697162
0.0114938
0.0687554
0.0112255
0.0676693
0.0109378
0.0664712
0.0106337
0.065176
0.0103164
0.0637995
0.00998887
0.0623577
0.00965442
0.0608661
0.00931606
0.0593394
0.00897672
0.0577911
0.00863908
0.0562331
0.0083055
0.054676
0.00797802
0.0531285
0.00765829
0.0515981
0.00734765
0.0500907
0.0070471
0.0486113
0.00675735
0.0471634
0.00647888
0.0457499
0.00621193
0.0443728
0.0059566
0.0430332
0.00571282
0.0417321
0.00548043
0.0404696
0.00525919
0.0392457
0.00504879
0.0380601
0.00484886
0.0369121
0.00465906
0.035801
0.00447895
0.0347258
0.00430819
0.0336855
0.0041463
0.0326789
0.003993
0.031705
0.00384777
0.0307625
0.00371041
0.0298501
0.00358035
0.0289667
0.00345752
0.0281109
0.00334127
0.0272817
0.00323171
0.0264776
0.00312805
0.0256976
0.00303062
0.0249405
0.00293845
0.024205
0.00285219
0.0234901
0.00277057
0.0227946
0.00269462
0.0221175
0.00262271
0.0214575
0.00255636
0.0208139
0.00249343
0.0201853
0.00243606
0.019571
0.00238142
0.0189698
0.00233249
0.018381
0.00228556
0.0178033
0.0022446
0.0172362
0.0022048
0.0166783
0.00217142
0.0161294
0.00213818
0.0155879
0.00211202
0.0150538
0.00208474
0.0145253
0.00206545
0.0140029
0.00204347
0.0134844
0.00203065
0.0129706
0.00201318
0.0124593
0.00200632
0.0119518
0.0019924
0.0114452
0.00199084
0.0109417
0.0019793
0.010438
0.00198216
0.00993681
0.00197161
0.00943466
0.00197777
0.008935
0.00196661
0.00843384
0.00197471
0.00793553
0.00196143
0.00743568
0.00196979
0.00693943
0.00195301
0.00644217
0.00195952
0.00594953
0.00193851
0.00545706
0.00194093
0.00497016
0.00191649
0.00448538
0.00191222
0.00400642
0.00188825
0.00353254
0.00187357
0.00306381
0.00185445
0.00260477
0.00182123
0.00214678
0.00181992
0.00170047
0.00178237
0.0012396
0.00185981
0.000791534
0.00183638
0.000315423
0.00198792
-0.00013441
0.00191898
-0.000625312
0.00214428
-0.00104207
0.00186517
-0.00152931
0.00221729
-0.00183962
0.00145599
-0.00227206
0.00188182
-0.00284029
0.00306014
-0.0033848
0.00340983
-0.00225232
-0.00607201
-0.00229232
-0.00232782
-0.00611193
0.0200124
-0.0102926
0.0274933
-0.00821154
-0.00214146
-0.000906494
-0.0325537
0.00663249
-0.0388883
0.0124778
-0.0297976
0.0152601
-0.0145709
0.0160667
-0.00382602
0.0163254
0.000439455
0.0171767
-0.00196829
0.0202635
-0.0130836
-0.022648
0.0743072
0.0100693
-0.073924
0.0747318
0.0104926
0.0751869
0.0109033
0.0756516
0.0112802
0.0761001
0.0116079
0.0765079
0.0118748
0.076855
0.0120765
0.077127
0.0122145
0.0773134
0.0122942
0.0774069
0.0123228
0.0774019
0.0123084
0.0772931
0.0122576
0.0770764
0.012176
0.0767477
0.0120682
0.0763042
0.0119374
0.0757438
0.0117859
0.0750663
0.0116153
0.0742735
0.0114265
0.0733693
0.0112206
0.0723596
0.0109985
0.0712524
0.0107616
0.0700571
0.0105114
0.0687842
0.0102495
0.0674452
0.00997809
0.0660516
0.00969913
0.0646148
0.00941482
0.0631458
0.00912731
0.0616548
0.00883862
0.0601513
0.00855063
0.0586436
0.00826504
0.0571391
0.00798333
0.0556443
0.00770676
0.0541645
0.00743639
0.0527043
0.00717305
0.0512673
0.00691742
0.0498565
0.00666996
0.0484742
0.00643105
0.0471222
0.00620088
0.0458017
0.0059796
0.0445134
0.00576719
0.0432579
0.0055637
0.0420353
0.00536891
0.0408455
0.00518283
0.0396881
0.00500512
0.0385628
0.00483579
0.0374687
0.00467438
0.0364052
0.00452099
0.0353715
0.00437498
0.0343666
0.00423663
0.0333895
0.0041051
0.0324393
0.0039809
0.0315148
0.00386293
0.0306149
0.00375204
0.0297387
0.00364676
0.0288849
0.00354842
0.0280526
0.00345506
0.0272404
0.00336858
0.0264474
0.00328637
0.0256723
0.00321113
0.0249144
0.00313939
0.024172
0.00307483
0.0234447
0.0030129
0.0227307
0.00295853
0.0220298
0.00290579
0.02134
0.00286118
0.0206612
0.00281695
0.0199915
0.0027817
0.019331
0.00274529
0.0186774
0.002719
0.0180313
0.00268959
0.0173902
0.00267179
0.0167549
0.00264843
0.0161228
0.00263849
0.0154952
0.00261997
0.014869
0.00261705
0.0142464
0.00260188
0.0136237
0.00260487
0.013004
0.00259125
0.0123831
0.00259867
0.0117652
0.00258456
0.0111453
0.00259459
0.0105288
0.00257795
0.00991024
0.00258835
0.00929594
0.0025673
0.00868027
0.00257519
0.00807011
0.00254867
0.00746011
0.00255093
0.00685687
0.00251973
0.00625634
0.00251274
0.0056631
0.0024815
0.00507648
0.00246019
0.00449654
0.00243439
0.00392916
0.00238861
0.0033638
0.00238527
0.00281451
0.00233166
0.00225029
0.00242404
0.0017059
0.00238077
0.00113165
0.00256217
0.00059599
0.00245464
1.81419e-05
0.00272213
-0.000469446
0.00235276
-0.00103281
0.00278065
-0.00138454
0.00180772
-0.00188034
0.00237762
-0.00247311
0.00365292
-0.00303623
0.00397294
-0.00182306
-0.00728518
-0.0019797
-0.00217116
-0.00591963
0.0239523
-0.00986639