/*--------------------------------*- C++ -*----------------------------------*\
| =========                 |                                                 |
| \\      /  F ield         | OpenFOAM: The Open Source CFD Toolbox           |
|  \\    /   O peration     | Version:  2412                                  |
|   \\  /    A nd           | Website:  www.openfoam.com                      |
|    \\/     M anipulation  |                                                 |
\*---------------------------------------------------------------------------*/
FoamFile
{
    version     2.0;
    format      ascii;
    arch        "LSB;label=32;scalar=64";
    class       volScalarField;
    location    "0.58";
    object      Co;
}
// * * * * * * * * * * * * * * * * * * * * * * * * * * * * * * * * * * * * * //

dimensions      [0 0 0 0 0 0 0];

internalField   nonuniform List<scalar> 
12600
(
0.379171
0.156865
0.0624093
0.0278164
0.0150891
0.00941147
0.00618037
0.00408503
0.00264536
0.00162731
0.000897154
0.000388886
0.000316518
0.00052623
0.000671085
0.00076808
0.000828852
0.000861834
0.000872203
0.00086721
0.0008494
0.000822731
0.000789841
0.000756341
0.000720307
0.000681856
0.000641704
0.000601006
0.000560554
0.00052087
0.000482483
0.000445593
0.000410435
0.000377179
0.00034594
0.000316736
0.000289476
0.000264204
0.000240879
0.000219396
0.000199683
0.000181601
0.00016504
0.000149877
0.000135962
0.00012319
0.000111476
0.00010078
9.10902e-05
8.23933e-05
7.47148e-05
6.80901e-05
6.24889e-05
5.78351e-05
5.40054e-05
5.07835e-05
4.76783e-05
4.40355e-05
3.90771e-05
3.17827e-05
2.12526e-05
1.72953e-05
2.82114e-05
4.30671e-05
5.11454e-05
5.14073e-05
4.87654e-05
4.37275e-05
3.71838e-05
3.15971e-05
3.0959e-05
3.41484e-05
3.64325e-05
3.4563e-05
3.15813e-05
2.70226e-05
5.08368e-05
0.000101436
0.000134161
0.000126499
0.000114388
7.27255e-05
4.11448e-05
0.000439087
0.000603808
0.000568286
0.000119082
3.94397e-05
2.08591e-05
5.65718e-05
8.05287e-05
9.2753e-05
8.70147e-05
0.000108968
0.00020603
0.000344552
0.000421814
0.000415367
0.000388933
0.000321448
0.000222657
0.000128993
5.93877e-05
2.3671e-05
1.09028e-05
1.99962e-05
2.90119e-05
3.73176e-05
3.55697e-05
3.31835e-05
2.50688e-05
1.78217e-05
1.6608e-05
1.2346e-05
9.20891e-06
1.36144e-05
1.52462e-05
1.67527e-05
1.83691e-05
1.89387e-05
0.607775
0.394486
0.230903
0.133024
0.0803642
0.0517766
0.0350128
0.0242995
0.0170098
0.0118484
0.00810333
0.00534065
0.00328207
0.00174516
0.000995791
0.00115864
0.00159089
0.00188975
0.00208142
0.00219608
0.00224648
0.00225015
0.00221695
0.00216066
0.00208534
0.00200711
0.00192284
0.00182834
0.00172743
0.0016231
0.00151806
0.00141385
0.00131196
0.00121347
0.00111934
0.00103012
0.000945756
0.000866646
0.000792968
0.000724552
0.000661335
0.000603
0.000549299
0.000499932
0.000454453
0.000412557
0.000374
0.000338621
0.0003064
0.000277321
0.000251471
0.000228961
0.000209767
0.000193768
0.000180637
0.000169771
0.000159919
0.000149236
0.000135261
0.000114751
8.44421e-05
7.19589e-05
0.000106022
0.000152876
0.000175233
0.000171282
0.000162299
0.000149154
0.000127664
0.000107029
0.000104212
0.000115488
0.000119895
0.000110777
0.000106722
0.000117653
0.000224536
0.000390068
0.000473447
0.000417737
0.000424169
0.000316308
0.000140682
0.00166737
0.00202179
0.00216611
0.000531005
0.000130035
7.20389e-05
0.000227486
0.000284034
0.000294406
0.000282907
0.000471493
0.000869828
0.00125616
0.00139651
0.00127121
0.00121522
0.00102906
0.000731233
0.000432906
0.000203426
9.13332e-05
5.04054e-05
7.93913e-05
0.000109236
0.000129459
0.00011189
0.000115828
9.56382e-05
5.97449e-05
5.32238e-05
4.79652e-05
4.07619e-05
5.12607e-05
5.4132e-05
5.86509e-05
6.29433e-05
6.46856e-05
0.674167
0.545633
0.394195
0.268316
0.179897
0.122323
0.0852483
0.0607068
0.0438123
0.0317736
0.022969
0.01641
0.0114607
0.00769393
0.00483755
0.00266605
0.00170902
0.00199965
0.0025208
0.0028806
0.0031044
0.00322687
0.00326883
0.00324879
0.00318229
0.0030909
0.0029842
0.00288837
0.00276977
0.00263558
0.00249125
0.0023415
0.0021899
0.00203929
0.00189226
0.00175062
0.00161465
0.00148552
0.00136405
0.00125027
0.00114437
0.00104604
0.000955068
0.000871127
0.000793507
0.000721736
0.000655418
0.000594235
0.000538152
0.000487167
0.000441447
0.000401229
0.000366604
0.000337641
0.000314046
0.000295146
0.000279505
0.000264613
0.000246667
0.00022015
0.000178556
0.000161164
0.000217985
0.000293681
0.000320914
0.000300455
0.000281084
0.000266154
0.000229502
0.000188954
0.000182605
0.000205008
0.000206658
0.000189643
0.000202735
0.000272249
0.000507664
0.000791627
0.000883402
0.000728296
0.00086237
0.000731814
0.000216485
0.00346529
0.00376739
0.00447065
0.00124782
0.000238607
0.000122964
0.000481504
0.000532828
0.00048491
0.000538902
0.00108512
0.00188533
0.00241219
0.00244359
0.00203557
0.00204878
0.00179984
0.00132385
0.000807122
0.000391161
0.000194567
0.000113044
0.000162779
0.000215028
0.000235523
0.000191358
0.000228676
0.00020144
0.000105646
9.83429e-05
0.000102813
8.92205e-05
0.000100221
0.000100307
0.000107247
0.000113188
0.00011629
0.672917
0.613299
0.508953
0.394463
0.293254
0.214149
0.156226
0.11478
0.0850105
0.0632929
0.0471731
0.0350261
0.0257635
0.0186374
0.0131411
0.00888706
0.00559045
0.00304377
0.00225554
0.00285589
0.00337341
0.00371476
0.00391436
0.00400242
0.00400685
0.00394602
0.00384161
0.00372914
0.00363071
0.00351067
0.00336409
0.00319763
0.00301921
0.00283437
0.00264834
0.00246504
0.00228558
0.00211236
0.00194737
0.00179117
0.00164454
0.00150739
0.00137972
0.0012614
0.00115152
0.00104948
0.000954771
0.000866905
0.000785843
0.000711596
0.000644449
0.000584848
0.000533092
0.000489613
0.000454428
0.000427149
0.000406614
0.000390096
0.000372828
0.00034694
0.000301849
0.000281897
0.000360403
0.000462909
0.000487485
0.000439857
0.000402675
0.000393108
0.000342095
0.000277627
0.000264471
0.000299994
0.000293161
0.000273961
0.000322008
0.000490919
0.000893749
0.00129038
0.00134707
0.00105929
0.00141924
0.00131774
0.000291101
0.00568724
0.00585896
0.00730056
0.0023339
0.000387377
0.000182004
0.000806387
0.000811313
0.000639311
0.000875514
0.00193975
0.0031967
0.00372377
0.00348201
0.00266519
0.00287521
0.00260207
0.00196862
0.00122965
0.000609915
0.000325911
0.000197539
0.000268439
0.000342682
0.000349045
0.000279929
0.000369516
0.000331833
0.000148108
0.000151535
0.000172853
0.000152173
0.000158978
0.000152738
0.000161566
0.000167876
0.000173315
0.648515
0.62439
0.565644
0.483035
0.393411
0.310064
0.239783
0.183862
0.140637
0.107557
0.0822238
0.0627172
0.0475985
0.0358091
0.0265853
0.0193487
0.0136628
0.009193
0.00571006
0.0033412
0.00292708
0.00360934
0.00406885
0.00435052
0.00449598
0.00453318
0.00448879
0.00438369
0.00427473
0.0041755
0.00407243
0.00393035
0.00375691
0.00356319
0.00335819
0.00314908
0.00293847
0.00273058
0.00252924
0.00233596
0.00215251
0.00197932
0.0018169
0.00166548
0.00152413
0.00139218
0.00126908
0.00115419
0.00104749
0.000949023
0.000859239
0.000778872
0.00070853
0.000649186
0.000601411
0.000565435
0.000540784
0.000524963
0.000512592
0.000493415
0.00045213
0.00043086
0.000529237
0.000657295
0.00067335
0.000589576
0.000523547
0.000527569
0.000464262
0.000372984
0.000347685
0.00039724
0.000375514
0.000365584
0.000466226
0.000772921
0.00137488
0.00187013
0.00184682
0.00140775
0.00207924
0.00206506
0.000453852
0.00820154
0.00828434
0.0104566
0.00374746
0.000509515
0.000271157
0.00118939
0.00110297
0.000730894
0.00131201
0.00301702
0.00473563
0.00509774
0.00443539
0.00323458
0.0036783
0.00340541
0.00263639
0.00168025
0.000848718
0.000479103
0.000301661
0.000394218
0.00048786
0.000464323
0.000380474
0.000535808
0.000477289
0.000181251
0.00021206
0.000254595
0.000226783
0.000225965
0.000210243
0.000220661
0.000225848
0.000235193
0.620993
0.60829
0.578207
0.527492
0.461791
0.390187
0.320856
0.258854
0.206222
0.162974
0.128092
0.100212
0.0780052
0.0603248
0.0462466
0.0350314
0.0260963
0.0189788
0.0133362
0.00886571
0.00535538
0.00355073
0.00363109
0.00420953
0.00458276
0.00479031
0.00486983
0.00485028
0.00475666
0.00464908
0.00455105
0.00447903
0.00435485
0.00418643
0.00398967
0.00377643
0.0035518
0.00332262
0.0030953
0.00287291
0.00265871
0.00245403
0.00226018
0.00207812
0.00190701
0.00174629
0.00159544
0.00145372
0.00132119
0.00119795
0.00108467
0.000982447
0.00089231
0.000815938
0.000754696
0.000709743
0.000681665
0.00066859
0.000664847
0.000657817
0.000627058
0.000604436
0.000719972
0.000873193
0.000876737
0.000749781
0.000639989
0.000666868
0.000594691
0.000474968
0.000430149
0.000493619
0.000450038
0.00046683
0.000637133
0.00111641
0.00194104
0.00251294
0.00236544
0.00176973
0.00282435
0.0029572
0.000702113
0.0108806
0.010973
0.0137084
0.00546815
0.000576018
0.000390988
0.00161724
0.00139156
0.000831399
0.00199616
0.00442009
0.00642273
0.0064409
0.00524315
0.00380136
0.00444567
0.00418693
0.00330534
0.00214529
0.00109998
0.000648842
0.000423303
0.000537802
0.000646102
0.00057635
0.000495352
0.00072376
0.00062897
0.000201412
0.000278276
0.000344556
0.000310628
0.000299741
0.000271629
0.000283612
0.000285918
0.000301097
0.597035
0.584951
0.567267
0.537867
0.495287
0.442488
0.384666
0.326796
0.272517
0.223955
0.181959
0.146497
0.117027
0.0927848
0.0729776
0.0568651
0.0438004
0.0332332
0.0247225
0.0178853
0.0124254
0.00808892
0.00467341
0.0035497
0.00417655
0.00464235
0.00491907
0.00504719
0.00506061
0.00498666
0.00487657
0.00477832
0.00475022
0.00465368
0.00450181
0.00431366
0.00409829
0.00386619
0.00362735
0.00338717
0.00315097
0.00292156
0.00270143
0.00249261
0.00229466
0.00210729
0.00193014
0.00176248
0.0016045
0.00145643
0.0013192
0.00119439
0.00108354
0.000989206
0.00091377
0.000859602
0.000828693
0.000820147
0.000828292
0.000838223
0.000824107
0.000798652
0.000927536
0.00110634
0.0010953
0.00092016
0.000747537
0.000807698
0.000731662
0.000583303
0.000509657
0.000585889
0.000512938
0.000579665
0.000836025
0.00151826
0.00258047
0.00320008
0.00288721
0.00213928
0.00363528
0.00396805
0.000944658
0.013575
0.0137711
0.0167864
0.00745285
0.00059497
0.000529042
0.00207551
0.00166122
0.00103391
0.00288123
0.00606585
0.00817138
0.00766844
0.00586702
0.00433032
0.00516807
0.00492993
0.00395987
0.00261563
0.00135956
0.000830955
0.000559899
0.000696491
0.000813056
0.000681123
0.00062566
0.000929335
0.000779619
0.000206916
0.000362883
0.000454119
0.000401308
0.000378886
0.000335712
0.000349569
0.000346909
0.000369998
0.576962
0.563038
0.548495
0.529365
0.50236
0.466675
0.423942
0.376948
0.328635
0.28153
0.237497
0.197699
0.162676
0.132483
0.10686
0.0853701
0.0675072
0.0527592
0.0406608
0.0307853
0.0227731
0.0163099
0.0111309
0.00701925
0.00442248
0.00399355
0.00455851
0.00490957
0.00509256
0.0051452
0.00509741
0.00497899
0.0049163
0.0049029
0.00484327
0.00471943
0.00454436
0.00433397
0.0041032
0.00386066
0.0036146
0.00336993
0.00313083
0.00290093
0.0026805
0.00246976
0.00226874
0.00207683
0.00189447
0.00172208
0.00156096
0.00141325
0.00128112
0.00116816
0.00107798
0.00101441
0.000981173
0.00097865
0.00100145
0.0010325
0.00104053
0.00100918
0.00114627
0.00135186
0.0013261
0.00110011
0.000841235
0.000946146
0.000872996
0.00069747
0.000584006
0.00067078
0.000560488
0.000706007
0.00106394
0.00197281
0.00327957
0.00391265
0.00339937
0.0025098
0.00449499
0.00505804
0.00105998
0.0160845
0.0164528
0.0193936
0.00963475
0.000882201
0.000676142
0.00254862
0.00189651
0.00133173
0.00393878
0.00787737
0.00989236
0.00871236
0.00629643
0.00481676
0.00584158
0.00562561
0.00459103
0.00308748
0.00162707
0.00102212
0.000708577
0.000867306
0.000984736
0.00077578
0.000771292
0.00114809
0.000923532
0.000197896
0.000458425
0.000576937
0.000496733
0.00046211
0.000401363
0.000417783
0.00040766
0.000440578
0.559488
0.544251
0.529613
0.513963
0.494844
0.470496
0.440531
0.405662
0.367259
0.326975
0.28646
0.247173
0.210264
0.176529
0.146411
0.120048
0.0973425
0.0780407
0.0618116
0.0482866
0.037108
0.0279378
0.0204705
0.0144415
0.00961221
0.00578346
0.00410205
0.00435246
0.00478371
0.00502744
0.00512451
0.00511035
0.00501184
0.00495999
0.00495232
0.00494058
0.00484789
0.00469196
0.00449525
0.00427103
0.00403148
0.00378442
0.00353643
0.00329332
0.00305655
0.00282718
0.0026059
0.00239243
0.00218757
0.00199209
0.00180771
0.00163727
0.00148368
0.00135172
0.00124644
0.00117338
0.00113822
0.00114292
0.00118262
0.00123831
0.00127336
0.00123152
0.0013699
0.00160417
0.0015656
0.00128851
0.00093659
0.00107766
0.00101592
0.00081659
0.000651028
0.000745118
0.000589072
0.000847573
0.00137872
0.00253163
0.00402327
0.00463269
0.0038931
0.00287501
0.00539113
0.00617027
0.00111473
0.0181525
0.0187813
0.0212446
0.011926
0.00151792
0.000819279
0.00301968
0.00208217
0.00171087
0.00515642
0.00979175
0.0114993
0.00952967
0.00654927
0.005263
0.0064667
0.00627138
0.00519447
0.00356062
0.00191725
0.00123155
0.000865993
0.00104699
0.00115777
0.00085878
0.000931025
0.00137567
0.00105687
0.000176035
0.000556198
0.000704942
0.000595047
0.000548266
0.000467532
0.000487617
0.000467054
0.000511271
0.543736
0.527969
0.512829
0.497904
0.481867
0.463377
0.441599
0.41624
0.387485
0.35591
0.322357
0.287808
0.253275
0.219716
0.187959
0.158639
0.132169
0.108737
0.0883485
0.0708609
0.0560485
0.0436376
0.0333402
0.0248779
0.0179856
0.0124262
0.00798741
0.00486297
0.00404133
0.00455914
0.00486887
0.00501762
0.00504144
0.00497303
0.00492159
0.00491527
0.00495288
0.00489635
0.00476853
0.00459022
0.00437901
0.0041468
0.00390348
0.00365781
0.00341308
0.00317163
0.00293518
0.00270402
0.00247955
0.00226302
0.00205672
0.00186429
0.00168953
0.00153857
0.00141807
0.00133549
0.00129874
0.00131157
0.00136991
0.00145309
0.0015194
0.00150225
0.00163153
0.00185706
0.00180952
0.00148372
0.0010542
0.00119677
0.00115694
0.00093931
0.000708664
0.000805795
0.000613468
0.00100591
0.00173524
0.00314787
0.00479557
0.0053443
0.00436405
0.00323069
0.00631593
0.00723259
0.00161689
0.0195194
0.0206059
0.0221246
0.0142274
0.00231381
0.000943198
0.00347056
0.00220341
0.00218095
0.00651323
0.0117405
0.0129174
0.0101082
0.00666518
0.00567193
0.00704693
0.00686903
0.00576824
0.00403653
0.00223861
0.00146197
0.00102833
0.00123205
0.00132962
0.000929949
0.00110267
0.00160788
0.00117754
0.00014399
0.000653433
0.000835721
0.000694711
0.00063641
0.000533273
0.00055852
0.000524046
0.000580284
0.529353
0.513458
0.498077
0.48321
0.468171
0.452191
0.434674
0.415183
0.393453
0.369428
0.343266
0.315309
0.286051
0.2561
0.226141
0.196885
0.168997
0.143032
0.119391
0.0982984
0.0798189
0.0638841
0.0503337
0.0389552
0.0295081
0.0217494
0.0154451
0.0103783
0.0063536
0.00430013
0.0042487
0.00463251
0.00483691
0.00490581
0.00487406
0.0048127
0.00479836
0.00488949
0.00487796
0.00478231
0.00462847
0.00443408
0.0042135
0.00397954
0.00373809
0.00349338
0.00324869
0.00300523
0.00276527
0.00253076
0.00230469
0.00209171
0.00189662
0.00172706
0.0015915
0.00149948
0.00146138
0.00148295
0.00156116
0.00167401
0.00177521
0.00178942
0.00189906
0.00210372
0.0020529
0.00168354
0.00118687
0.00129724
0.00129172
0.00106368
0.000760475
0.000849848
0.000673444
0.00118233
0.0021313
0.00381069
0.00558016
0.00603467
0.00481175
0.00357672
0.00726127
0.0081713
0.00252446
0.0200269
0.0219394
0.0219454
0.0164437
0.00325249
0.00103236
0.00388197
0.00224585
0.00274656
0.00798094
0.0136552
0.0140903
0.0104655
0.00669559
0.00604724
0.00758733
0.007423
0.00631108
0.00451581
0.00257769
0.00169512
0.00119133
0.0014188
0.00149872
0.000990499
0.00128322
0.00184097
0.00128502
0.000104927
0.000747691
0.000967364
0.000794485
0.000725805
0.000597756
0.000629959
0.000577695
0.000645718
0.516169
0.500289
0.484877
0.470043
0.455369
0.440413
0.42486
0.408438
0.390884
0.371985
0.351607
0.329709
0.306344
0.281674
0.255982
0.229675
0.203266
0.17733
0.152442
0.129115
0.107745
0.0885824
0.0717282
0.05716
0.04476
0.0343513
0.0257253
0.0186631
0.0129502
0.00838436
0.00495667
0.00386518
0.00432708
0.00459502
0.00471677
0.00471811
0.00464168
0.004674
0.00476531
0.00479997
0.0047427
0.00461676
0.00444298
0.00423971
0.00401654
0.00378038
0.00353674
0.00328828
0.00303849
0.00279031
0.00254766
0.00231638
0.00210244
0.00191517
0.00176502
0.0016638
0.00162453
0.00165514
0.00175394
0.00189802
0.00203714
0.0020881
0.00216535
0.00233684
0.0022901
0.00188496
0.00132414
0.00137194
0.00141499
0.00118696
0.00083363
0.000874578
0.000767821
0.00137774
0.00256366
0.00450919
0.00636129
0.0066949
0.00523829
0.00391881
0.00820928
0.0089297
0.00338327
0.0197043
0.0229607
0.0207748
0.0184961
0.00430541
0.00107212
0.00423377
0.00219579
0.00340684
0.00952624
0.0154657
0.0149856
0.0106418
0.00669046
0.00639109
0.008093
0.00793897
0.00682183
0.00499597
0.00293596
0.00192869
0.00135043
0.0016034
0.00166453
0.00104296
0.00146903
0.00207167
0.00139158
8.8016e-05
0.000851506
0.00109846
0.000893427
0.000815912
0.000660272
0.00070133
0.000627184
0.000705707
0.504045
0.488234
0.472882
0.458138
0.443693
0.429247
0.414633
0.399725
0.384377
0.36843
0.351739
0.334171
0.315605
0.295949
0.275165
0.2533
0.230521
0.207123
0.18352
0.160207
0.13771
0.116518
0.0970277
0.0795038
0.0640724
0.0507358
0.0394014
0.0299138
0.0220826
0.0157039
0.0105769
0.00650888
0.0042356
0.00396222
0.00430441
0.00447424
0.00452163
0.00447917
0.00450513
0.00458361
0.00467132
0.00465582
0.0045612
0.00441404
0.00422915
0.00401729
0.00378712
0.00354343
0.00329146
0.00303553
0.00278078
0.00253447
0.00230397
0.00210046
0.00193658
0.00182657
0.00178623
0.00182591
0.00194551
0.00212176
0.00230128
0.00239409
0.00242429
0.00254882
0.0025149
0.00208428
0.001465
0.00141302
0.00152045
0.00130557
0.000929068
0.000877329
0.000874934
0.00159255
0.00302775
0.00523157
0.00712466
0.00732027
0.00564632
0.00426893
0.00912483
0.00947303
0.00407636
0.0187723
0.0239267
0.0188183
0.0203303
0.00543481
0.00126105
0.00450556
0.00204056
0.00427619
0.0112248
0.017108
0.015602
0.0106903
0.00668848
0.00670249
0.00856884
0.00842344
0.00730056
0.00547063
0.0033115
0.00216235
0.00150106
0.00178186
0.00182748
0.00109106
0.00165587
0.00229727
0.00151652
0.000114348
0.000966499
0.00122798
0.00099085
0.000906314
0.000720234
0.000771861
0.000671847
0.000758619
0.492861
0.477148
0.461894
0.447265
0.433019
0.418915
0.404848
0.390761
0.376582
0.362228
0.347618
0.332664
0.317264
0.301285
0.284579
0.267007
0.24847
0.228954
0.208557
0.187509
0.166161
0.144966
0.12442
0.105002
0.0871085
0.0710146
0.056858
0.0446535
0.0343198
0.0257117
0.0186489
0.0129354
0.00837836
0.00481161
0.00354969
0.00396003
0.00419307
0.00429248
0.00428553
0.00429506
0.00435328
0.00449784
0.00452706
0.00447037
0.00435071
0.00418427
0.0039842
0.00375836
0.00351447
0.00325879
0.00299804
0.00274128
0.00249748
0.00227994
0.00210366
0.00198547
0.00194416
0.00199265
0.0021328
0.00234158
0.00256342
0.00270291
0.00266987
0.00273199
0.00272065
0.00227711
0.00160791
0.0014121
0.0016008
0.00141481
0.00102664
0.000855949
0.000996078
0.00182666
0.00351773
0.0059653
0.00785839
0.00790994
0.00603728
0.00464217
0.00995745
0.0101056
0.00486928
0.0175444
0.0250376
0.016347
0.0219151
0.00660775
0.00168136
0.00467753
0.00176965
0.00536341
0.0130462
0.0185276
0.0159662
0.0106654
0.0067111
0.00697529
0.0090188
0.00888327
0.00775011
0.00593058
0.00369912
0.00239864
0.00163914
0.00195008
0.00198867
0.00113956
0.00183903
0.00251547
0.00163943
0.00014828
0.00107707
0.00135525
0.00108627
0.000996622
0.000777182
0.000840572
0.000711182
0.000803248
0.482523
0.466921
0.451781
0.437273
0.423202
0.409368
0.395688
0.382131
0.368657
0.355217
0.341772
0.328287
0.314721
0.301004
0.287025
0.272634
0.257658
0.241926
0.225309
0.207755
0.18932
0.17019
0.150686
0.131233
0.112316
0.0944075
0.0779058
0.0630891
0.0500984
0.0389499
0.0295645
0.0217984
0.0154739
0.0104057
0.00639819
0.00401089
0.00357466
0.00387874
0.00402776
0.00406496
0.00404803
0.00412339
0.00428468
0.0043649
0.00434736
0.00425491
0.00410737
0.00391699
0.003695
0.00345036
0.00319189
0.00293094
0.00267841
0.00244994
0.00226319
0.00213775
0.00209555
0.00215234
0.00231233
0.00255347
0.00281903
0.00300966
0.00297742
0.00295632
0.0029005
0.00245842
0.00175054
0.00136057
0.0016478
0.00150894
0.0011237
0.000878018
0.00113232
0.00207932
0.00402658
0.00669689
0.00855325
0.00846572
0.00641049
0.00504901
0.0106542
0.010619
0.00560451
0.0162973
0.0263507
0.0136023
0.0232254
0.00779345
0.00220878
0.00473168
0.00137572
0.00653545
0.0148322
0.0196904
0.0161252
0.0106143
0.00676284
0.00719894
0.00944483
0.00932498
0.00817649
0.00636638
0.00409257
0.00264349
0.00176181
0.00210395
0.00214952
0.00119404
0.00201341
0.0027243
0.00176231
0.000191078
0.00118286
0.00147986
0.00117935
0.00108636
0.000830781
0.000906309
0.000744883
0.000838976
0.472947
0.45746
0.442439
0.42805
0.414137
0.400525
0.387146
0.373979
0.360996
0.348159
0.335439
0.322822
0.310302
0.297866
0.285472
0.273043
0.260452
0.247534
0.2341
0.219966
0.204981
0.189068
0.172259
0.154717
0.136744
0.118754
0.101225
0.08463
0.0693681
0.0557154
0.0438084
0.0336561
0.0251722
0.0182136
0.0125966
0.00813781
0.00465498
0.00327647
0.00352647
0.00373617
0.00382005
0.00380852
0.00389684
0.00403901
0.00417169
0.00419311
0.00412875
0.0039978
0.00381645
0.00359747
0.00335255
0.00309595
0.00284093
0.00260588
0.0024114
0.00228002
0.0022371
0.00230146
0.00248015
0.00275295
0.00306315
0.00330899
0.00333422
0.00320921
0.00304771
0.00262263
0.00189
0.00128954
0.00165258
0.00158109
0.00121678
0.000969583
0.00128385
0.00234899
0.00454624
0.00741304
0.00920265
0.00899105
0.00676332
0.00548472
0.0111745
0.0109819
0.00640112
0.0152916
0.0277986
0.0107362
0.0242365
0.00895822
0.00281508
0.00465325
0.00128152
0.0077679
0.0165361
0.0205821
0.0161378
0.0105721
0.00683507
0.00736134
0.00984527
0.00975349
0.00858666
0.00677062
0.00448742
0.00290544
0.0018683
0.00223948
0.00231106
0.00126057
0.0021735
0.00292206
0.0018873
0.000243676
0.00128415
0.00160172
0.00126985
0.00117492
0.000880816
0.000967875
0.00077287
0.00086585
0.464059
0.448687
0.433786
0.419513
0.40574
0.392317
0.379182
0.36632
0.353709
0.341316
0.329111
0.317079
0.305222
0.293544
0.282048
0.270716
0.259497
0.248302
0.236993
0.225396
0.213316
0.200558
0.186958
0.172426
0.156978
0.140768
0.124088
0.107347
0.0910256
0.075598
0.061463
0.0488898
0.0380014
0.028796
0.0211726
0.0149791
0.0100364
0.00615451
0.00370897
0.00314284
0.00341836
0.00355148
0.00358159
0.00364466
0.00376152
0.00394725
0.00400942
0.00397108
0.00385615
0.0036829
0.00346696
0.00322643
0.00297755
0.00274192
0.00254354
0.00240814
0.00236483
0.00243588
0.00263175
0.00293502
0.00329027
0.00359492
0.00368594
0.00343949
0.00315575
0.00276374
0.00202239
0.00130552
0.00160621
0.00162329
0.00130098
0.00108072
0.00145022
0.00270226
0.00513375
0.00810115
0.00980302
0.00949022
0.00709251
0.0059226
0.0114962
0.0111958
0.00759223
0.0149384
0.0292677
0.00782092
0.0249268
0.0100676
0.0034821
0.00443209
0.00164915
0.00903459
0.0181162
0.0212056
0.0160651
0.0105614
0.00691224
0.00745386
0.010214
0.0101711
0.00898492
0.00713916
0.00492977
0.00324081
0.00196075
0.00235296
0.0024733
0.00134526
0.00231339
0.00310715
0.00201619
0.000306721
0.00138164
0.00172109
0.0013577
0.00126156
0.000927179
0.00102422
0.000795337
0.000884557
0.455798
0.440538
0.425754
0.411591
0.397945
0.384683
0.371752
0.359136
0.346819
0.334771
0.322962
0.311372
0.299995
0.288836
0.277905
0.26721
0.256747
0.246492
0.236385
0.226324
0.216168
0.20574
0.19484
0.183264
0.170843
0.157479
0.143186
0.128108
0.112537
0.0968836
0.0816329
0.0672634
0.05417
0.0426112
0.0326902
0.0243835
0.0175795
0.0121119
0.00779925
0.00445677
0.00298571
0.00307129
0.00326306
0.00333539
0.0033682
0.00348223
0.00369376
0.00379457
0.00378235
0.0036827
0.00351713
0.00330895
0.00307818
0.00285037
0.0026535
0.00251692
0.00247391
0.0025507
0.0027619
0.00309398
0.00349416
0.00386069
0.00402538
0.00380772
0.00337749
0.00287545
0.00214346
0.00139622
0.00149952
0.00162682
0.00137041
0.00119624
0.00162976
0.00309181
0.00573892
0.00874982
0.0103532
0.00996629
0.007396
0.00631751
0.0116126
0.0112683
0.00877372
0.0150366
0.0307674
0.00596867
0.0252535
0.0110835
0.00418453
0.00406327
0.0021805
0.0103089
0.019538
0.0215807
0.0159619
0.010594
0.00697777
0.00747586
0.0105411
0.0105778
0.00937216
0.00747177
0.00536465
0.00360608
0.00204524
0.00244141
0.00263447
0.00145375
0.00242682
0.00327776
0.0021502
0.000380715
0.0014762
0.00183862
0.00144298
0.00134548
0.000969843
0.00107464
0.000812776
0.000896301
0.448108
0.432955
0.418284
0.404226
0.390694
0.377574
0.364815
0.352402
0.340323
0.328551
0.317056
0.305817
0.29482
0.284061
0.273546
0.263284
0.253286
0.243557
0.234086
0.224839
0.215749
0.206711
0.197582
0.18818
0.178302
0.167742
0.15633
0.143968
0.130664
0.116564
0.10196
0.0872701
0.0729866
0.0595925
0.0474766
0.036878
0.0278784
0.020428
0.0143972
0.00961279
0.00588391
0.00339133
0.00269817
0.00295133
0.00307137
0.0030972
0.00323476
0.00340848
0.00354819
0.00356226
0.0034774
0.0033245
0.0031288
0.00292075
0.00273321
0.00259969
0.00255838
0.00264009
0.00286451
0.00322328
0.00366769
0.00409851
0.00434414
0.00421375
0.00362011
0.00295129
0.00224765
0.00148437
0.00132422
0.00158232
0.00141792
0.0013121
0.0018196
0.00349107
0.00633132
0.00934878
0.0108537
0.0104202
0.00767576
0.0066185
0.0115275
0.0112161
0.0099381
0.0155074
0.0321326
0.00679034
0.0251593
0.0119667
0.00489074
0.00354891
0.00279962
0.0115655
0.0207744
0.0217395
0.0158699
0.0106731
0.00701912
0.00743664
0.010816
0.0109737
0.0097503
0.00777643
0.00577224
0.00398114
0.00213287
0.00250309
0.00279059
0.00159047
0.00250751
0.00343174
0.00228978
0.000466285
0.00156858
0.00195534
0.00152612
0.00142606
0.00100884
0.00111888
0.000825963
0.000902599
0.440941
0.425889
0.411326
0.397366
0.383939
0.370944
0.358333
0.346093
0.33421
0.322663
0.311422
0.300466
0.289777
0.279345
0.269168
0.259247
0.249592
0.240212
0.231115
0.222301
0.213752
0.205426
0.197254
0.18913
0.180906
0.1724
0.163407
0.153726
0.143187
0.131692
0.119249
0.106006
0.0922593
0.0784384
0.0650437
0.0525608
0.0413704
0.0316879
0.0235649
0.0169271
0.0116218
0.00746671
0.00427103
0.0027003
0.00261508
0.00279348
0.00286146
0.00296689
0.00308906
0.00327007
0.00330991
0.00324556
0.00310933
0.00293829
0.00277154
0.00264768
0.00261069
0.00269696
0.0029324
0.00331531
0.00380261
0.00429937
0.00463245
0.00460246
0.00402117
0.00316402
0.00232883
0.00156647
0.00109911
0.0014804
0.00143533
0.00142269
0.00201532
0.00389172
0.00689832
0.0098897
0.0113053
0.0108506
0.00793889
0.00678194
0.0112509
0.0110586
0.0110628
0.016222
0.0331337
0.00897874
0.0245314
0.0126687
0.00556308
0.00289745
0.00349867
0.0127813
0.0218063
0.0217213
0.0158146
0.0107949
0.00703102
0.00735343
0.0110291
0.0113592
0.0101274
0.00807424
0.00613968
0.0043466
0.00224048
0.00253845
0.00293555
0.00175784
0.00254938
0.00356652
0.00243451
0.000564426
0.00165911
0.0020724
0.00160799
0.001503
0.00104427
0.00115712
0.000835877
0.000905044
0.434254
0.419297
0.404836
0.390969
0.377638
0.364755
0.352273
0.34018
0.328463
0.317101
0.30607
0.295345
0.284909
0.274747
0.264852
0.255219
0.245849
0.236748
0.227924
0.219385
0.211135
0.203167
0.195458
0.187965
0.180616
0.1733
0.165871
0.158146
0.149925
0.14101
0.131233
0.120498
0.108815
0.096335
0.0833634
0.0703381
0.0577708
0.0461491
0.0358399
0.0270326
0.0197428
0.0138665
0.00923377
0.00565073
0.00308944
0.00225584
0.00249502
0.00261469
0.00267629
0.00281996
0.00295867
0.00302992
0.00298954
0.00288138
0.00275276
0.00264887
0.00262109
0.00271258
0.00295704
0.00336116
0.00388929
0.0044527
0.00487886
0.00496186
0.00449398
0.00343568
0.00238023
0.00163769
0.00100837
0.00131268
0.00141359
0.00152078
0.00221075
0.00428419
0.00742761
0.0103666
0.0117084
0.011254
0.00819643
0.00677945
0.0107998
0.0108134
0.01212
0.0171272
0.0335568
0.0107393
0.0231991
0.0131311
0.00615789
0.00212546
0.00446165
0.0141111
0.0226222
0.0215666
0.0158052
0.0109511
0.0070175
0.00724666
0.0111737
0.0117319
0.0105144
0.00839396
0.00646736
0.00469356
0.00238871
0.00255126
0.0030618
0.0019555
0.0025467
0.00367906
0.0025829
0.000676498
0.00174757
0.00219053
0.00168997
0.00157654
0.00107629
0.00118986
0.000843555
0.000905116
0.428008
0.413141
0.398775
0.384997
0.371754
0.35897
0.346603
0.334638
0.323062
0.311857
0.300999
0.290466
0.280239
0.270302
0.260644
0.251256
0.242132
0.233272
0.22468
0.216362
0.208323
0.20057
0.1931
0.185902
0.178953
0.172207
0.165588
0.158985
0.152252
0.145211
0.137668
0.129427
0.120324
0.110266
0.099265
0.0874776
0.0752162
0.0629304
0.0511414
0.0403389
0.0308719
0.0228967
0.0163923
0.0112224
0.0072025
0.00413394
0.00243922
0.00217605
0.00235643
0.00243895
0.00255457
0.00263325
0.00272304
0.00271659
0.00265316
0.00258604
0.00257641
0.00267593
0.00292814
0.00335035
0.00391644
0.00454608
0.00506984
0.00527776
0.00494418
0.00398149
0.00268358
0.00169294
0.00105368
0.00107107
0.00134319
0.00159746
0.00239793
0.00465775
0.00790739
0.0107743
0.0120616
0.011625
0.00846043
0.00659912
0.0101975
0.0104919
0.0130734
0.0181669
0.0332451
0.0120252
0.0210367
0.0132916
0.00662845
0.00186914
0.00548387
0.0153516
0.0232155
0.0213121
0.0158377
0.011131
0.00699144
0.00713475
0.0112457
0.0120817
0.0109144
0.00875298
0.00676614
0.00502654
0.00259445
0.00254959
0.0031616
0.00217951
0.00249425
0.00376579
0.00273213
0.000803548
0.0018333
0.00230928
0.0017737
0.00164758
0.00110518
0.00121773
0.000849916
0.000904045
0.422169
0.407386
0.39311
0.379414
0.366253
0.35356
0.341294
0.329441
0.317988
0.306917
0.296206
0.285833
0.27578
0.266031
0.256571
0.24739
0.238479
0.229832
0.221446
0.213324
0.205469
0.197885
0.190576
0.183544
0.176784
0.170285
0.16402
0.157939
0.151965
0.145989
0.139868
0.133431
0.126487
0.118846
0.110348
0.100902
0.0905239
0.0793751
0.0677747
0.0561837
0.045133
0.0351105
0.0264459
0.0192568
0.0134838
0.00896201
0.00549407
0.00288923
0.00189555
0.00207694
0.0022148
0.00228049
0.00238722
0.00242335
0.00243696
0.00243356
0.00245785
0.00257257
0.00283304
0.00327044
0.00387076
0.00456479
0.00518928
0.00553316
0.00535502
0.0045373
0.00313151
0.00185612
0.00109208
0.000764187
0.00121427
0.00164208
0.00256701
0.00500036
0.00832619
0.0111077
0.0123616
0.0119578
0.00874094
0.0062422
0.00947072
0.0100996
0.0138799
0.0192495
0.0326394
0.0133403
0.0181501
0.0131018
0.00692774
0.00243384
0.0065247
0.0164702
0.0235864
0.0209875
0.0158995
0.011324
0.00697087
0.00703043