/*--------------------------------*- C++ -*----------------------------------*\
| =========                 |                                                 |
| \\      /  F ield         | OpenFOAM: The Open Source CFD Toolbox           |
|  \\    /   O peration     | Version:  2412                                  |
|   \\  /    A nd           | Website:  www.openfoam.com                      |
|    \\/     M anipulation  |                                                 |
\*---------------------------------------------------------------------------*/
FoamFile
{
    version     2.0;
    format      ascii;
    arch        "LSB;label=32;scalar=64";
    class       surfaceScalarField;
    location    "0.58";
    object      phi_0;
}
// * * * * * * * * * * * * * * * * * * * * * * * * * * * * * * * * * * * * * //

dimensions      [0 3 -1 0 0 0 0];

oriented        oriented;

internalField   nonuniform List<scalar> 
24930
(
0.0159838
0.0210505
-0.0370903
0.00662961
0.00935423
0.00308068
0.00354893
0.00174238
0.0013383
0.00113316
0.00060921
0.000775951
0.000357209
0.000534845
0.000241103
0.00036121
0.000173633
0.000231751
0.000129457
0.000133268
9.84808e-05
5.6498e-05
7.67683e-05
-3.75881e-06
6.02551e-05
-5.11578e-05
4.73975e-05
-8.87366e-05
3.75773e-05
-0.000118072
2.9334e-05
-0.000141012
2.29381e-05
-0.000158797
1.77837e-05
-0.000172323
1.35245e-05
-0.00018203
9.70384e-06
-0.000188924
6.89218e-06
-0.000193175
4.25027e-06
-0.000195376
2.19117e-06
-0.000195823
4.56645e-07
-0.000194815
-1.02572e-06
-0.000192618
-2.18541e-06
-0.000189377
-3.25079e-06
-0.000185328
-4.04888e-06
-0.00018062
-4.7069e-06
-0.000175414
-5.20769e-06
-0.000169835
-5.57449e-06
-0.000163974
-5.86028e-06
-0.000157923
-6.04846e-06
-0.000151764
-6.15488e-06
-0.000145585
-6.17528e-06
-0.000139438
-6.142e-06
-0.000133333
-6.09992e-06
-0.000127345
-5.98255e-06
-0.000121519
-5.82143e-06
-0.000115866
-5.64733e-06
-0.000110417
-5.44465e-06
-0.000105163
-5.24893e-06
-0.000100111
-5.04832e-06
-9.525e-05
-4.85726e-06
-9.05459e-05
-4.70015e-06
-8.59902e-05
-4.55328e-06
-8.15829e-05
-4.40584e-06
-7.73424e-05
-4.23771e-06
-7.33209e-05
-4.01922e-06
-6.95852e-05
-3.73686e-06
-6.62285e-05
-3.35749e-06
-6.33518e-05
-2.87355e-06
-6.10394e-05
-2.31289e-06
-5.93496e-05
-1.69622e-06
-5.82396e-05
-1.10907e-06
-5.7521e-05
-7.07132e-07
-5.67628e-05
-7.64429e-07
-5.51619e-05
-1.61152e-06
-5.14826e-05
-3.67015e-06
-4.40426e-05
-7.43213e-06
-3.10021e-05
-1.3041e-05
-1.10085e-05
-1.99974e-05
1.55671e-05
-2.65711e-05
4.56315e-05
-3.00541e-05
7.33519e-05
-2.77302e-05
9.18462e-05
-1.84945e-05
9.74219e-05
-5.51128e-06
9.21652e-05
5.2283e-06
8.26257e-05
9.51032e-06
7.41133e-05
8.53508e-06
7.09559e-05
3.20341e-06
7.66288e-05
-5.73651e-06
8.94029e-05
-1.28092e-05
0.000101204
-1.15709e-05
9.80117e-05
3.14145e-06
6.58671e-05
3.1948e-05
-2.26238e-05
8.85459e-05
-0.000176463
0.000153881
-0.000372841
0.000196355
-0.000522244
0.000149359
-0.000500232
-2.1742e-05
-0.000221678
-0.000278589
0.000115854
-0.000337598
0.000204838
-8.88952e-05
0.00229448
-0.00208969
0.00334548
-0.00105091
0.000629328
0.00271609
-0.000114234
0.000743771
0.000148213
-0.000262404
9.3402e-05
5.43943e-05
0.000426833
-0.000333231
0.000646415
-0.000219682
0.000792484
-0.000146059
0.00058096
0.000211401
-0.000477211
0.00105819
-0.00213341
0.00165624
-0.003804
0.00167052
-0.00496836
0.00116425
-0.00522134
0.000253085
-0.00460918
-0.000612119
-0.00341131
-0.0011979
-0.0021124
-0.00129893
-0.00103968
-0.00107263
-0.000384478
-0.000655168
5.88937e-05
-0.000443399
0.000218938
-0.000160015
0.000429665
-0.000210728
0.000667548
-0.000237907
0.000919709
-0.000252151
0.000939207
-1.94782e-05
0.000469748
0.00046949
-0.000291251
0.000760986
-0.000580325
0.000289063
-0.000382302
-0.000198006
8.06265e-05
-0.000462944
0.000370938
-0.000290315
0.000588808
-0.00021787
0.000708264
-0.000119458
0.000836242
-0.000127979
0.000985497
-0.000149252
-0.000106859
0.0337307
0.0299456
-0.0426257
0.022742
0.0203429
0.0144528
0.0118381
0.00933743
0.00645362
0.00632477
0.00362187
0.00447065
0.00221132
0.00323645
0.00147529
0.00236003
0.00105005
0.00171012
0.000779361
0.00121341
0.000595187
0.000826731
0.000463443
0.000521252
0.000365731
0.000277886
0.000290761
8.40716e-05
0.000231388
-7.43962e-05
0.000187798
-0.000205057
0.000153595
-0.00030891
0.000121632
-0.000391484
9.60936e-05
-0.000455904
7.41189e-05
-0.000505909
5.6893e-05
-0.00054338
4.17136e-05
-0.000570529
2.93348e-05
-0.000588712
1.86373e-05
-0.000599674
9.92618e-06
-0.000604481
2.62694e-06
-0.000604188
-3.55452e-06
-0.000599579
-8.65289e-06
-0.000591389
-1.28965e-05
-0.000580291
-1.63028e-05
-0.000566886
-1.89743e-05
-0.00055161
-2.11296e-05
-0.000534903
-2.27467e-05
-0.000517159
-2.38902e-05
-0.000498761
-2.45638e-05
-0.000479974
-2.49177e-05
-0.00046093
-2.51326e-05
-0.000441912
-2.49902e-05
-0.000423133
-2.45893e-05
-0.000404697
-2.40739e-05
-0.000386722
-2.34104e-05
-0.000369239
-2.27236e-05
-0.000352286
-2.19927e-05
-0.000335851
-2.12863e-05
-0.000319853
-2.0693e-05
-0.000304277
-2.01245e-05
-0.000289144
-1.95362e-05
-0.000274533
-1.8848e-05
-0.000260633
-1.79185e-05
-0.000247692
-1.66762e-05
-0.000236038
-1.50114e-05
-0.000226026
-1.28889e-05
-0.000217954
-1.03832e-05
-0.000212008
-7.63709e-06
-0.000208039
-5.07933e-06
-0.000205376
-3.37188e-06
-0.000202505
-3.62835e-06
-0.000196657
-7.45076e-06
-0.000183547
-1.6786e-05
-0.000157418
-3.35612e-05
-0.000112034
-5.84168e-05
-4.27889e-05
-8.92378e-05
4.91125e-05
-0.000118471
0.000153746
-0.000134681
0.000251445
-0.000125409
0.000318788
-8.58381e-05
0.00034214
-2.88902e-05
0.000327292
2.011e-05
0.000295638
4.11909e-05
0.00026604
3.81111e-05
0.000254043
1.5167e-05
0.000271086
-2.27175e-05
0.000311371
-5.30911e-05
0.000344394
-4.47412e-05
0.000322316
2.5273e-05
0.000188915
0.000165461
-0.000135864
0.00041331
-0.00068157
0.000699526
-0.00134001
0.000854845
-0.00182577
0.000635092
-0.00171004
-0.000137623
-0.000716448
-0.00127217
0.000520249
-0.0015744
0.000662513
-0.000231054
0.00724645
-0.00867378
0.0109528
-0.00475715
0.00263939
0.0110296
-0.000172711
0.00355561
0.000492423
-0.000927359
0.000445068
0.000101647
0.00150584
-0.00139386
0.00222382
-0.000937767
0.00255006
-0.000472247
0.00140914
0.00135251
-0.00243989
0.00490714
-0.00799637
0.0072127
-0.013193
0.00686714
-0.0164649
0.00443609
-0.016874
0.00066242
-0.0146186
-0.0028677
-0.0107098
-0.00510661
-0.0065261
-0.00548258
-0.00316213
-0.00443665
-0.00103442
-0.00278287
0.000356054
-0.00183385
0.000924441
-0.000728417
0.00161759
-0.000903882
0.00245609
-0.00107643
0.00316742
-0.000963479
0.00304474
0.00010318
0.00130805
0.00220615
-0.00104251
0.00311154
-0.00179552
0.00104207
-0.000952493
-0.00104105
0.000512301
-0.00192773
0.00146922
-0.00124723
0.00215825
-0.000906901
0.00257589
-0.000537101
0.00301003
-0.000562122
0.00347024
-0.000609456
-0.000528829
0.0435323
0.0321755
-0.0457622
0.0362707
0.0276045
0.0276866
0.0204222
0.0202439
0.0138964
0.0147094
0.00915636
0.0108211
0.00609957
0.00808147
0.00421496
0.00609358
0.00303794
0.0046034
0.00226954
0.00345635
0.00174223
0.0025555
0.0013643
0.00183757
0.00108366
0.00125928
0.00086904
0.000790123
0.000700547
0.000408794
0.000569123
9.90143e-05
0.000463371
-0.000155548
0.00037619
-0.00036326
0.0003038
-0.000530294
0.000241148
-0.000664081
0.000190676
-0.000769442
0.000147065
-0.00085098
0.000110873
-0.00091253
8.0175e-05
-0.000956551
5.39491e-05
-0.000986109
3.21811e-05
-0.00100315
1.34825e-05
-0.00101033
-1.47191e-06
-0.00100902
-1.4208e-05
-0.0010007
-2.46166e-05
-0.000986327
-3.33431e-05
-0.00096716
-4.0289e-05
-0.000944123
-4.57753e-05
-0.000918107
-4.98961e-05
-0.000889948
-5.27127e-05
-0.000860264
-5.459e-05
-0.000829426
-5.59587e-05
-0.000798014
-5.63911e-05
-0.000766505
-5.60863e-05
-0.00073517
-5.53987e-05
-0.000704278
-5.42924e-05
-0.000673952
-5.30406e-05
-0.000644303
-5.16333e-05
-0.000615358
-5.02237e-05
-0.000587022
-4.90234e-05
-0.000559293
-4.7848e-05
-0.00053224
-4.65849e-05
-0.000506035
-4.50514e-05
-0.000481033
-4.29196e-05
-0.000457702
-4.00065e-05
-0.000436646
-3.60679e-05
-0.00041851
-3.10261e-05
-0.000403837
-2.50556e-05
-0.000392957
-1.85139e-05
-0.000385592
-1.24437e-05
-0.00038051
-8.45506e-06
-0.000374956
-9.17616e-06
-0.00036392
-1.84802e-05
-0.000339727
-4.09783e-05
-0.000292114
-8.11731e-05
-0.00021
-0.000140526
-8.5252e-05
-0.00021398
8.06453e-05
-0.000284366
0.000270367
-0.000324398
0.000449478
-0.000304505
0.000576233
-0.000212586
0.000624654
-7.73208e-05
0.000602915
4.18653e-05
0.000548022
9.60972e-05
0.000494355
9.17803e-05
0.000470675
3.88326e-05
0.000497331
-4.93477e-05
0.000563734
-0.000119498
0.000612469
-9.35237e-05
0.000555742
8.20513e-05
0.000288584
0.000432626
-0.000323377
0.00102529
-0.00132475
0.00170087
-0.00248674
0.00201685
-0.00331466
0.00146298
-0.0030622
-0.000390165
-0.00125392
-0.00308043
0.00107616
-0.00390464
0.00101232
-0.000166826
0.0121185
-0.0197801
0.0192118
-0.0118503
0.00540234
0.0248392
3.84568e-05
0.00891932
0.000897034
-0.00178573
0.000939716
5.86674e-05
0.00277776
-0.00323172
0.00397471
-0.00213481
0.00428693
-0.000784435
0.00175693
0.0038826
-0.00544053
0.0121045
-0.0152095
0.0169816
-0.0237233
0.0153809
-0.0286248
0.00933749
-0.0287318
0.000769559
-0.0245456
-0.00705401
-0.0178218
-0.0118303
-0.0107494
-0.012555
-0.0050852
-0.0101008
-0.00151235
-0.00635569
0.000841364
-0.00418756
0.00187797
-0.00176502
0.00311391
-0.00213982
0.00460746
-0.00257
0.00570421
-0.00206023
0.00523119
0.000576174
0.00204137
0.00539597
-0.0018714
0.0070243
-0.00290761
0.00207826
-0.00128133
-0.00266734
0.00121987
-0.00442893
0.0028803
-0.00290765
0.00407228
-0.00209888
0.00481619
-0.00128102
0.00558817
-0.0013341
0.00636692
-0.0013882
-0.00133908
0.0493513
0.0316463
-0.0488221
0.0461556
0.0308002
0.0399013
0.0266765
0.0325434
0.0212543
0.0256518
0.016048
0.0199387
0.0118126
0.015468
0.00868571
0.0120246
0.00648135
0.00935745
0.00493665
0.00726454
0.00383514
0.00559956
0.00302928
0.00425919
0.00242402
0.00316983
0.0019584
0.00227824
0.00159214
0.00154594
0.00130142
0.000942848
0.00106646
0.000445732
0.000873301
3.83482e-05
0.000711179
-0.000300207
0.000579699
-0.000575473
0.000465938
-0.000797719
0.000369303
-0.000975355
0.00028851
-0.00111502
0.000219821
-0.00122227
0.000161206
-0.00130222
0.000112122
-0.00135922
7.04875e-05
-0.0013961
3.54096e-05
-0.00141599
5.67833e-06
-0.00142248
-1.81225e-05
-0.0014179
-3.79238e-05
-0.00140321
-5.49688e-05
-0.0013806
-6.83799e-05
-0.00135164
-7.88478e-05
-0.00131783
-8.65077e-05
-0.00128035
-9.20576e-05
-0.00123996
-9.63324e-05
-0.00119768
-9.86651e-05
-0.00115436
-9.93884e-05
-0.00111056
-9.91886e-05
-0.00106678
-9.80618e-05
-0.00102332
-9.64993e-05
-0.000980404
-9.45356e-05
-0.00093817
-9.24503e-05
-0.000896546
-9.06408e-05
-0.000855583
-8.88057e-05
-0.000815432
-8.67321e-05
-0.000776388
-8.40928e-05
-0.000739015
-8.02925e-05
-0.00070404
-7.49805e-05
-0.000672389
-6.7719e-05
-0.000645044
-5.83725e-05
-0.000622826
-4.72735e-05
-0.000606222
-3.51154e-05
-0.000594808
-2.38551e-05
-0.000586722
-1.65417e-05
-0.000577816
-1.80775e-05
-0.000560581
-3.57083e-05
-0.000523569
-7.79889e-05
-0.000451575
-0.000153166
-0.000328221
-0.000263875
-0.000141424
-0.00040077
0.000107329
-0.000533115
0.000393408
-0.000610474
0.000666793
-0.000577877
0.000865413
-0.000411196
0.000948159
-0.000160069
0.000923567
6.647e-05
0.000844683
0.000174995
0.000763583
0.000172884
0.00072446
7.79422e-05
0.000758
-8.28685e-05
0.00084794
-0.000209441
0.000905537
-0.000151153
0.00079524
0.00019239
0.000354837
0.000873023
-0.000601467
0.00198162
-0.00211846
0.00321783
-0.00382085
0.00371925
-0.00499203
0.00263413
-0.00456621
-0.000816034
-0.00185868
-0.00578794
0.0017726
-0.0075361
0.00123797
0.000367869
0.0167906
-0.0353328
0.0280992
-0.0231589
0.00904241
0.0438961
0.000701779
0.0172598
0.00138921
-0.00247296
0.00159062
-0.000142867
0.00425593
-0.00589684
0.00588176
-0.00376073
0.00593942
-0.000842102
0.00143828
0.00838383
-0.00964912
0.0231919
-0.0237648
0.0310973
-0.0352319
0.026848
-0.0411541
0.0152596
-0.0404797
9.5109e-05
-0.0341206
-0.0134132
-0.0245911
-0.0213597
-0.0146985
-0.0224476
-0.00679463
-0.0180047
-0.00177408
-0.0113762
0.00155687
-0.00751851
0.00311625
-0.0033244
0.00496174
-0.00398531
0.00713872
-0.004747
0.00853056
-0.00345207
0.00748639
0.00162031
0.0026672
0.0102151
-0.00271051
0.012402
-0.00385481
0.00322255
-0.00129588
-0.00522627
0.00225627
-0.00798108
0.00463749
-0.00528888
0.00636669
-0.00382808
0.00745602
-0.00237035
0.00859691
-0.00247499
0.00970225
-0.00249354
-0.00260785
0.0531774
0.0304925
-0.0520235
0.0526345
0.0313431
0.0493571
0.0299538
0.0439137
0.0266977
0.0374634
0.0224982
0.0310505
0.0182254
0.0252926
0.0144436
0.0204101
0.0113639
0.0163826
0.00896409
0.0130918
0.00712599
0.0104028
0.0057183
0.00819691
0.00462986
0.00637857
0.00377674
0.00487286
0.00309784
0.00362247
0.00255181
0.00258196
0.00210696
0.00171519
0.00174007
0.000993354
0.00143301
0.000394654
0.00117839
-0.000100208
0.000960795
-0.000509379
0.000778466
-0.000842731
0.000621861
-0.00111181
0.000488893
-0.00132569
0.000375081
-0.00149278
0.0002792
-0.00161979
0.000197504
-0.00171312
0.000128732
-0.00177846
7.10215e-05
-0.00181802
2.14482e-05
-0.0018371
-1.88435e-05
-0.00184061
-5.14492e-05
-0.00182908
-7.99049e-05
-0.00180581
-0.000102105
-0.00177327
-0.000119032
-0.00173347
-0.000131852
-0.00168776
-0.000142027
-0.00163777
-0.000148638
-0.00158495
-0.000152199
-0.00153025
-0.000153878
-0.00147454
-0.00015376
-0.00141839
-0.000152642
-0.00136226
-0.000150652
-0.00130646
-0.000148247
-0.001251
-0.000146094
-0.00119604
-0.000143763
-0.00114185
-0.000140911
-0.00108892
-0.000137027
-0.00103804
-0.000131168
-0.000990264
-0.000122756
-0.000946881
-0.000111101
-0.000909261
-9.59944e-05
-0.000878541
-7.79935e-05
-0.000855385
-5.82686e-05
-0.000839205
-4.00323e-05
-0.000827421
-2.83253e-05
-0.000814337
-3.11581e-05
-0.000789713
-6.03261e-05
-0.000738016
-0.000129682
-0.000638711
-0.00025247
-0.000469723
-0.000432858
-0.000214547
-0.000655938
0.000125715
-0.000873373
0.00051935
-0.00100411
0.000900424
-0.000958936
0.00118483
-0.000695587
0.00131322
-0.000288462
0.00129175
8.79541e-05
0.00118931
0.000277442
0.00107752
0.000284684
0.00101843
0.000137016
0.00105476
-0.000119184
0.00116359
-0.000318268
0.00122032
-0.000207901
0.00103266
0.000380082
0.000374631
0.00153103
-0.000987728
0.00334401
-0.00307909
0.00530916
-0.00534846
0.00598865
-0.00685076
0.00413639
-0.00622011
-0.00144671
-0.00255426
-0.00945377
0.00256797
-0.0126585
0.00147559
0.00146054
0.0211907
-0.0550481
0.0373875
-0.0393555
0.0136577
0.0676261
0.00184287
0.0290746
0.0020036
-0.0026335
0.00240471
-0.000544224
0.0059401
-0.00943203
0.00791963
-0.00574036
0.00739448
-0.000316902
0.000297375
0.015481
-0.0151726
0.0386617
-0.0335975
0.0495222
-0.0474132
0.0406637
-0.0536732
0.0215196
-0.0517682
-0.00180994
-0.0431008
-0.0220806
-0.0308749
-0.0335856
-0.0183183
-0.0350042
-0.00823846
-0.0280845
-0.001807
-0.0178076
0.00252138
-0.0118469
0.00466494
-0.00546796
0.0071928
-0.00651317
0.0100675
-0.00762172
0.0116478
-0.00503236
0.00980759
0.00346048
0.00324293
0.0167798
-0.00347432
0.0191192
-0.00455724
0.00430546
-0.000979386
-0.00880413
0.00363946
-0.0125999
0.0067631
-0.00841253
0.00906889
-0.00613386
0.0105201
-0.00382157
0.0120629
-0.00401778
0.0134988
-0.0039294
-0.00440678
0.0563482
0.0295282
-0.0553839
0.0569444
0.0307468
0.0559535
0.0309448
0.0529433
0.0297079
0.0482399
0.0272017
0.0425487
0.0239166
0.0365845
0.0204078
0.0308736
0.0170747
0.02571
0.0141278
0.0212004
0.0116355
0.017338
0.00958074
0.0140619
0.00790595
0.0112947
0.00654393
0.00896046
0.00543206
0.00699252
0.00451974
0.00533376
0.00376573
0.00393609
0.00313773
0.00275949
0.0026096
0.00177189
0.00216599
0.00094482
0.00178786
0.000256112
0.00146717
-0.000314918
0.00119289
-0.000784858
0.000958824
-0.00116701
0.000757229
-0.00147422
0.000586406
-0.00171699
0.000440279
-0.00190454
0.000316271
-0.00204487
0.000211354
-0.00214691
0.000123492
-0.00221493
4.91801e-05
-0.00225191
-1.44597e-05
-0.00226839
-6.341e-05
-0.00226404
-0.000106453
-0.00224349
-0.00013957
-0.00220998
-0.000165346
-0.00216583
-0.000186168
-0.00211351
-0.000200943
-0.00205529
-0.000210403
-0.00199275
-0.000216404
-0.0019273
-0.000219203
-0.00185992
-0.000220015
-0.00179143
-0.000219131
-0.00172242
-0.000217251
-0.00165309
-0.000215417
-0.00158377
-0.000213076
-0.00151494
-0.000209731
-0.0014473
-0.000204663
-0.00138198
-0.000196495
-0.00132037
-0.000184367
-0.00126419
-0.000167277
-0.00121526
-0.00014493
-0.00117506
-0.000118191
-0.00114446
-8.88644e-05
-0.00112269
-6.17985e-05
-0.00110639
-4.46294e-05
-0.00108816
-4.938e-05
-0.00105482
-9.36591e-05
-0.00098647
-0.00019803
-0.000856927
-0.000382012
-0.00063809
-0.000651689
-0.000308651
-0.000985369
0.000131237
-0.00131326
0.000643363
-0.00151623
0.00114608
-0.00146164
0.00153186
-0.00108136
0.00171979
-0.000476392
0.00170979
9.79656e-05
0.00158558
0.00040167
0.00144008
0.000430189
0.00135579
0.000221288
0.00138938
-0.000152752
0.0015104
-0.00043929
0.00155366
-0.000251178
0.00126054
0.000673233
0.000333911
0.00245764
-0.00149904
0.00517699
-0.00421879
0.00802888
-0.00707053
0.00884041
-0.008884
0.00594982
-0.00802929
-0.00230144
-0.00336353
-0.0141195
0.00340716
-0.0194294
0.00206631
0.00280152
0.0253276
-0.0783096
0.0466141
-0.0606418
0.0192886
0.0949517
0.0035768
0.0447862
0.00279232
-0.00184882
0.00339273
-0.0011449
0.007819
-0.0138581
0.0100534
-0.00797483
0.00855356
0.00118289
-0.00171239
0.025747
-0.0220628
0.0590121
-0.0445193
0.0719787
-0.0598997
0.0560441
-0.0658166
0.0274365
-0.0623612
-0.00526538
-0.0513654
-0.0330764
-0.036654
-0.0482969
-0.0216255
-0.0500327
-0.0094413
-0.0402687
-0.00159379
-0.0256551
0.00375648
-0.0171972
0.00654817
-0.00825965
0.00983173
-0.00979673
0.0134071
-0.0111971
0.015056
-0.00668126
0.0122105
0.0063059
0.00381632
0.025174
-0.00406896
0.0270045
-0.00495719
0.00519368
-0.000277878
-0.0134834
0.00539942
-0.0182772
0.00928096
-0.0122941
0.0122028
-0.00905569
0.0140291
-0.00564787
0.01601
-0.00599873
0.0177712
-0.00569054
-0.0067991
0.0596396
0.0288566
-0.0589681
0.0604357
0.0299508
0.0606252
0.0307553
0.0595264
0.0308067
0.0568741
0.029854
0.0528288
0.0279619
0.0478085
0.0254281
0.0422998
0.0225835
0.0367292
0.0196983
0.0314062
0.0169585
0.026516
0.014471
0.0221414
0.0122805
0.0182956
0.0103897
0.0149521
0.00877555
0.0120665
0.00740541
0.00958822
0.00624397
0.00746763
0.00525832
0.00565857
0.00441866
0.00412101
0.00370354
0.00281838
0.00309048
0.00171998
0.00256557
0.000798493
0.00211437
3.13499e-05
0.00172596
-0.000605288
0.00139386
-0.00112641
0.00110753
-0.00154841
0.000862273
-0.00188514
0.000653002
-0.00214865
0.000474864
-0.00234919
0.000324041
-0.00249729
0.000197285
-0.00260297
9.12291e-05
-0.00266507
-1.30674e-06
-0.00269983
-7.16827e-05
-0.0027075
-0.000131884
-0.00269349
-0.000179347
-0.00266153
-0.000218109
-0.00261541
-0.00024705
-0.00255854
-0.000267267
-0.0024934
-0.000281533
-0.00242217
-0.000290414
-0.00234649
-0.00029569
-0.0022677
-0.000297912
-0.00218683
-0.000298107
-0.00210441
-0.000297833
-0.00202103
-0.000296443
-0.00193748
-0.000293277
-0.00185476
-0.000287389
-0.00177435
-0.000276898
-0.00169811
-0.000260608
-0.00162823
-0.000237153
-0.00156703
-0.000206136
-0.00151639
-0.000168826
-0.00147742
-0.000127841
-0.00144914
-9.00743e-05
-0.00142735
-6.64148e-05
-0.00140287
-7.38548e-05
-0.00135938
-0.00013714
-0.00127241
-0.000284995
-0.00110991
-0.000544515
-0.000837496
-0.000924098
-0.000428709
-0.00139415
0.000117962
-0.00185992
0.000758729
-0.00215699
0.00139711
-0.0021
0.00190133
-0.00158557
0.00216531
-0.000740367
0.00217818
8.5109e-05
0.00203617
0.000543692
0.00185467
0.000611698
0.00173935
0.000336588
0.00176303
-0.000176416
0.00188705
-0.000563306
0.00190061
-0.000264754
0.00146876
0.00110512
0.000216332
0.00371004
-0.00215265
0.007546
-0.00554704
0.0114232
-0.00898348
0.0122769
-0.0110834
0.00804971
-0.00999921
-0.00338566
-0.00429291
-0.0198258
0.0042213
-0.0279438
0.0034825
0.00354057
0.0291865
-0.104014
0.0550288
-0.0864841
0.0258796
0.124101
0.00600101
0.0646647
0.00382223
0.000330167
0.00456397
-0.00188693
0.00987163
-0.0191655
0.0122321
-0.0103354
0.00928118
0.00413386
-0.00479982
0.0398281
-0.0303042
0.0845163
-0.0562563
0.0979308
-0.0722804
0.0720681
-0.0773072
0.0324633
-0.0721418
-0.0104308
-0.0589195
-0.0462987
-0.0419866
-0.0652297
-0.0246967
-0.0673226
-0.0104453
-0.05452
-0.00114093
-0.0349595
0.00526878
-0.0236069
0.00877566
-0.0117665
0.0128917
-0.0139128
0.0171662
-0.0154716
0.0187629
-0.00827793
0.0147258
0.0103429
0.00447112
0.0354287
-0.00440063
0.0358763
-0.00500072
0.00579377
0.000755765
-0.0192399
0.00754837
-0.0250698
0.0122067
-0.0169524
0.0157878
-0.0126368
0.0179992
-0.00785931
0.0204603
-0.00845985
0.0225311
-0.00776126
-0.00983142
0.0633015
0.028365
-0.0628098
0.0639504
0.0293018
0.0644872
0.0302184
0.0644339
0.03086
0.0633679
0.03092
0.0610862
0.0302436
0.0576352
0.0288791
0.0532389
0.0269798
0.0482089
0.0247284
0.0428702
0.0222972
0.0375103
0.0198309
0.0323505
0.0174403
0.0275386
0.0152016
0.0231558
0.0131584
0.0192325
0.0113287
0.0157649
0.00971155
0.0127289
0.00829427
0.0100901
0.00705747
0.00781108
0.00598258
0.00585328
0.00504827
0.00418091
0.00423794
0.00276018
0.00353509
0.00156053
0.00292562
0.000554915
0.00239947
-0.000281632
0.00194407
-0.000971407
0.00155204
-0.00153364
0.00121523
-0.00198575
0.000926981
-0.00234306
0.000681355
-0.00261895
0.000473183
-0.00282514
0.000297427
-0.00297801
0.000151564
-0.00307453
2.48563e-05
-0.0031335
-7.29061e-05
-0.00315882
-0.000154011
-0.00315507
-0.000221846
-0.00312809
-0.000274023
-0.00308299
-0.000312347
-0.00302355
-0.000340963
-0.00295307
-0.000360882
-0.0028741
-0.000374647
-0.00278879
-0.000383215
-0.00269884
-0.000388047
-0.00260526
-0.000391406
-0.00250908
-0.000392613
-0.0024115
-0.000390855
-0.00231391
-0.000384972
-0.00221829
-0.000372516
-0.00212699
-0.000351909
-0.00204277
-0.000321376
-0.00196849
-0.000280411
-0.00190652
-0.000230796
-0.0018582
-0.000176155
-0.00182241
-0.000125868
-0.00179405
-9.47713e-05
-0.00176208
-0.000105825
-0.00170694
-0.000192266
-0.0015995
-0.000392436
-0.00140172
-0.000742291
-0.00107281
-0.001253
-0.00058084
-0.00188611
7.8324e-05
-0.00251908
0.000856497
-0.00293516
0.00164417
-0.00288766
0.00228517
-0.00222654
0.00264491
-0.00110011
0.00269553
3.44905e-05
0.00254254
0.000696699
0.00232403
0.000830223
0.00217155
0.000489049
0.00217652
-0.000181369
0.00229135
-0.00067813
0.00225515
-0.000228571
0.00164597
0.00171433
-6.70458e-07
0.00535666
-0.00296451
0.0105099
-0.00706933
0.015528
-0.0110805
0.0162881
-0.0134448
0.010414
-0.0121376
-0.00469284
-0.00532357
-0.0266398
0.00491192
-0.0381795
0.00605354
0.00239912
0.0325365
-0.130497
0.0616858
-0.115633
0.0332724
0.152514
0.00920085
0.0887361
0.00518338
0.00434784
0.00593261
-0.00263646
0.0120667
-0.0252994
0.0143883
-0.0126571
0.00944952
0.00907265
-0.00907543
0.0583532
-0.0398001
0.115241
-0.0684574
0.126588
-0.0841918
0.0878025
-0.088017
0.0362885
-0.081179
-0.0172688
-0.065911
-0.0615667
-0.0470323
-0.0841084
-0.0276769
-0.086678
-0.0113494
-0.0708475
-0.000464905
-0.045844
0.00705301
-0.0311248
0.0113413
-0.0160548
0.0163698
-0.0189413
0.021348
-0.0204498
0.0227822
-0.00971219
0.0174052
0.0157199
0.00529646
0.0475374
-0.00437803
0.0455507
-0.00464969
0.00606542
0.00216078
-0.0260504
0.0100975
-0.0330065
0.0155531
-0.0224079
0.0198405
-0.0169243
0.0224434
-0.0104622
0.0254345
-0.0114509
0.0277855
-0.0101123
-0.0135197
0.0673165
0.0279613
-0.0669129
0.0677984
0.0288199
0.0683098
0.029707
0.0686314
0.0305385
0.0684506
0.0311007
0.0674809
0.0312133
0.0655531
0.0308068
0.0626382
0.0298947
0.0588285
0.028538
0.0543021
0.0268236
0.0492839
0.0248491
0.0440113
0.0227129
0.0387061
0.0205068
0.0335528
0.0183117
0.0286879
0.0161936
0.0241987
0.0142008
0.0201297
0.0123633
0.016493
0.0106942
0.0132794
0.00919611
0.010466
0.00786166
0.00802314
0.00668084
0.00591755
0.00564066
0.00411565
0.00472753
0.00258506
0.00393005
0.00129449
0.00323464
0.000215397
0.00263113
-0.000678513
0.00210914
-0.00141116
0.00165962
-0.00200402
0.00127422
-0.00247633
0.000945505
-0.00284513
0.000666228
-0.00312465
0.000431096
-0.00333465
0.000234869
-0.00347684
6.92942e-05
-0.00356736
-6.34808e-05
-0.00361613
-0.000173056
-0.0036276
-0.000262537
-0.00360991
-0.000330028
-0.00356879
-0.000382066
-0.00350917
-0.000420488
-0.00343492
-0.000448891
-0.00334932
-0.000468807
-0.00325507
-0.00048228
-0.00315394
-0.000492533
-0.00304758
-0.000498967
-0.00293777
-0.000500656
-0.00282646
-0.000496276
-0.00271621
-0.000482769
-0.00260997
-0.000458152
-0.00251114
-0.000420204
-0.00242324
-0.000368306
-0.00234916
-0.000304877
-0.00229057
-0.000234751
-0.00224617
-0.000170255
-0.00221005
-0.000130898
-0.00216925
-0.000146615
-0.00210102
-0.000260494
-0.00197153
-0.000521912
-0.00173687
-0.000976955
-0.00134979
-0.00164007
-0.000772561
-0.00246333
3.36097e-06
-0.003295
0.000925036
-0.00385683
0.00187462
-0.00383723
0.00267164
-0.00302354
0.00314981
-0.00157828
0.00325791
-7.35928e-05
0.00310418
0.000850445
0.00284979
0.00108462
0.00265419
0.000684628
0.00262999
-0.000157153
0.00272058
-0.000768714
0.00260975
-0.000117748
0.00177919
0.00254493
-0.000306137
0.00744196
-0.00394848
0.0141522
-0.00878689
0.0203664
-0.0133534
0.0208546
-0.0159702
0.0130307
-0.0144477
-0.00621533
-0.00641411
-0.0346734
0.00532974
-0.0499236
0.00956063
-0.00183153
0.0347382
-0.155674
0.0657155
-0.146611
0.0412283
0.177002
0.0132364
0.116728
0.00697699
0.0106075
0.00751886
-0.00317865
0.0143641
-0.0321444
0.0164334
-0.0147265
0.00892012
0.0165859
-0.0146008
0.0818742
-0.0503811
0.151021
-0.0807159
0.156923
-0.0953866
0.102473
-0.0980278
0.0389297
-0.0896948
-0.0256018
-0.0725947
-0.0786668
-0.0520075
-0.104696
-0.0307595
-0.107926
-0.0122916
-0.0893154
0.000366569
-0.0585021
0.00908492
-0.0398432
0.0142157
-0.0211856
0.0202414
-0.0249669
0.0259488
-0.0261573
0.0271388
-0.0109021
0.0203179
0.0225408
0.00639927
0.061456
-0.00392097
0.055871
-0.00388192
0.00602636
0.00394371
-0.033876
0.0130505
-0.0421133
0.0193287
-0.0286862
0.0243766
-0.0219721
0.0273725
-0.0134581
0.0309515
-0.0150299
0.0335398
-0.0127006
-0.0178376
0.0716433
0.027606
-0.071288
0.0720238
0.0284394
0.0724364
0.0292944
0.072806
0.0301688
0.0729726
0.0309342
0.072728
0.0314579
0.0718738
0.031661
0.0702639
0.0315046
0.0678268
0.0309752
0.0645683
0.0300821
0.0605635
0.0288539
0.0559437
0.0273327
0.05088
0.0255705
0.0455646
0.0236271
0.0401891
0.0215691
0.0349249
0.0194649
0.0299089
0.0173792
0.0252371
0.015366
0.0209671
0.0134661
0.0171242
0.0117046
0.0137101
0.0100949
0.0107102
0.00864053
0.00809978
0.00733795
0.00584884
0.00618098
0.00392428
0.00515919
0.00229293
0.00426248
0.000922321
0.00347975
-0.000218252
0.0028002
-0.00115742
0.00221339
-0.00192147
0.00170956
-0.00253411
0.00127887
-0.00301682
0.000913821
-0.00338732
0.000605381
-0.0036672
0.000349179
-0.00386762
0.000136958
-0.00399746
-4.3203e-05
-0.004077
-0.000182978
-0.00411015
-0.000296868
-0.00410635
-0.000385849
-0.00407287
-0.000453956
-0.00401558
-0.000506166
-0.00393942
-0.000544955
-0.00384856
-0.000573128
-0.00374586
-0.000595232
-0.00363388
-0.000610932
-0.00351526
-0.000619272
-0.00339267
-0.000618869
-0.00326938
-0.000606049
-0.00314911
-0.000578424
-0.003036
-0.000533311
-0.00293433
-0.000469978
-0.00284759
-0.000391623
-0.00277784
-0.000304491
-0.00272376
-0.00022433
-0.00267861
-0.000176047
-0.00262768
-0.000197547
-0.00254508
-0.000343086
-0.00239255
-0.000674435
-0.00212047
-0.00124904
-0.00167526
-0.00208527
-0.00101309
-0.00312548
-0.000121317
-0.00418677
0.000949596
-0.00492774
0.002072
-0.00495962
0.00304461
-0.00399613
0.00366717
-0.00220084
0.0038569
-0.000263319
0.0037179
0.000989468
0.00343195
0.00137059
0.00318808
0.000928481
0.00312289
-9.19544e-05
0.00317065
-0.000816462
0.00295588
9.69965e-05
0.00185368
0.00364717
-0.000743269
0.0100389
-0.00511594
0.018525
-0.010697
0.0259474
-0.0157953
0.0259529
-0.0186695
0.0159049
-0.0169184
-0.0079665
-0.00753113
-0.0440606
0.00527331
-0.0627282
0.0130553
-0.00961329
0.034849
-0.177468
0.0667078
-0.178469
0.0494907
0.194219
0.0181307
0.148088
0.00930701
0.0194315
0.00935354
-0.0032255
0.0167165
-0.0395071
0.0182644
-0.0162745
0.00756978
0.0272805
-0.0213959
0.11084
-0.0618206
0.191446
-0.0926635
0.187766
-0.105788
0.115597
-0.10758
0.0407218
-0.0980136
-0.0351681
-0.0792784
-0.097402
-0.0571477
-0.126826
-0.0341521
-0.130922
-0.0134418
-0.110026
0.00127316
-0.073217
0.0113201
-0.0498901
0.0173422
-0.0272077
0.0244543
-0.032079
0.0309556
-0.0326587
0.0318666
-0.0118131
0.0235513
0.030856
0.00789219
0.0771151
-0.00295769
0.0667208
-0.00268072
0.00574937
0.00609982
-0.0426566
0.0164111
-0.0524246
0.0235421
-0.0358172
0.029413
-0.0278431
0.0327974
-0.0168425
0.0370279
-0.0192603
0.0397976
-0.0154703
-0.0227055
0.0762834
0.0272841
-0.0759614
0.0766102
0.0281125
0.0769486
0.0289561
0.0772739
0.0298435
0.0775189
0.0306892
0.0775734
0.0314034
0.0773002
0.0319342
0.076558
0.0322467
0.0752233
0.0323099
0.0732056
0.0320997
0.0704573
0.0316022
0.0669781
0.030812
0.0628176
0.0297309
0.0580741
0.0283705
0.0528885
0.0267548
0.0474305
0.0249229
0.0418806
0.0229291
0.0364092
0.0208374
0.0311604
0.0187149
0.0262419
0.0166231
0.021724
0.0146129
0.0176431
0.0127213
0.0140096
0.0109715
0.0108144
0.00937609
0.00803579
0.00793783
0.00564405
0.00665422
0.00360539
0.00551841
0.00188447
0.00452112
0.000446138
0.00365173
-0.000742794
0.0028985
-0.00171449
0.00225058
-0.0024982
0.00169754
-0.00311958
0.00122677
-0.00360168
0.000831287
-0.00396857
0.000503865
-0.00424067
0.000228915
-0.00442022
-3.41644e-06
-0.00453966
-0.000177408
-0.00460123
-0.000324268
-0.00461663
-0.000438544
-0.00459467
-0.000528108
-0.00454274
-0.000596874
-0.00446708
-0.00064877
-0.00437219
-0.000690121
-0.00426196
-0.000721148
-0.00414021
-0.000741014
-0.00401061
-0.000748472
-0.00387738
-0.000739276
-0.00374513
-0.000710671
-0.00361891
-0.000659527
-0.00350389
-0.000584998
-0.00340429
-0.000491224
-0.00332273
-0.000386055
-0.00325794
-0.000289114
-0.00320256
-0.000231427
-0.00314031
-0.000259793
-0.0030425
-0.000440886
-0.0028668
-0.000850127
-0.00255832
-0.00155752