/*--------------------------------*- C++ -*----------------------------------*\
| =========                 |                                                 |
| \\      /  F ield         | OpenFOAM: The Open Source CFD Toolbox           |
|  \\    /   O peration     | Version:  2412                                  |
|   \\  /    A nd           | Website:  www.openfoam.com                      |
|    \\/     M anipulation  |                                                 |
\*---------------------------------------------------------------------------*/
FoamFile
{
    version     2.0;
    format      ascii;
    arch        "LSB;label=32;scalar=64";
    class       volScalarField;
    location    "1.59";
    object      Co;
}
// * * * * * * * * * * * * * * * * * * * * * * * * * * * * * * * * * * * * * //

dimensions      [0 0 0 0 0 0 0];

internalField   nonuniform List<scalar> 
12600
(
0.315224
0.176902
0.100156
0.0629973
0.0449954
0.0350619
0.0286557
0.0240701
0.0205933
0.0178556
0.0156398
0.013809
0.0122716
0.0109637
0.00983901
0.00886328
0.00801034
0.00725991
0.006596
0.00600577
0.00547881
0.00500659
0.004582
0.0041991
0.00385288
0.00353908
0.00325404
0.00299462
0.00275809
0.00254207
0.0023445
0.00216354
0.00199759
0.00184523
0.00170519
0.00157634
0.00145767
0.0013483
0.0012474
0.00115426
0.00106821
0.000988653
0.000915065
0.000846954
0.000783877
0.000725432
0.000671253
0.000621006
0.000574385
0.000531111
0.000490928
0.000453603
0.000418921
0.000386684
0.000356713
0.000328839
0.000302911
0.000278786
0.000256336
0.000235438
0.000215986
0.000197874
0.000181011
0.000165307
0.000150686
0.00013707
0.000124395
0.000112592
0.000101612
9.13894e-05
8.1889e-05
7.30498e-05
6.48482e-05
5.72251e-05
5.01702e-05
4.36229e-05
3.75875e-05
3.19985e-05
2.68769e-05
2.21481e-05
1.78516e-05
1.38997e-05
1.03531e-05
7.10623e-06
4.24437e-06
2.2728e-06
2.76796e-06
4.53271e-06
6.13013e-06
7.35549e-06
8.48912e-06
9.23345e-06
9.97891e-06
1.034e-05
1.06981e-05
1.0884e-05
1.07993e-05
1.07303e-05
1.10897e-05
1.04539e-05
1.14628e-05
1.07966e-05
9.47853e-06
1.13446e-05
1.06722e-05
1.11181e-05
1.04502e-05
9.29988e-06
8.73385e-06
8.7563e-06
1.16785e-05
1.09535e-05
1.48132e-05
1.38898e-05
6.20938e-06
4.21639e-05
3.67712e-05
1.7593e-05
5.85481e-05
5.00591e-05
0.478532
0.376982
0.27671
0.202697
0.153273
0.120624
0.0982724
0.0821506
0.0699668
0.0604223
0.0527388
0.0464215
0.04114
0.0366649
0.0328307
0.0295153
0.0266259
0.0240908
0.0218538
0.0198697
0.0181024
0.0165218
0.0151034
0.0138266
0.0126741
0.0116311
0.0106852
0.00982546
0.00904267
0.00832869
0.00767645
0.00707975
0.00653313
0.00603179
0.00557144
0.00514829
0.00475895
0.00440039
0.0040699
0.00376504
0.00348361
0.00322363
0.0029833
0.00276101
0.00255528
0.00236477
0.00218827
0.00202468
0.00187297
0.00173222
0.00160159
0.0014803
0.00136766
0.001263
0.00116573
0.0010753
0.000991212
0.000912997
0.000840232
0.000772519
0.000709502
0.000650839
0.000596231
0.000545383
0.000498047
0.000453962
0.000412929
0.000374712
0.000339156
0.000306045
0.000275266
0.000246614
0.000220019
0.000195278
0.000172367
0.000151077
0.000131434
0.00011321
9.64873e-05
8.10056e-05
6.69149e-05
5.39037e-05
4.22001e-05
3.1427e-05
2.18986e-05
1.31678e-05
8.83013e-06
1.09812e-05
1.61931e-05
2.02109e-05
2.39659e-05
2.64252e-05
2.89925e-05
3.01879e-05
3.152e-05
3.22999e-05
3.18446e-05
3.23265e-05
3.31506e-05
3.13027e-05
3.62671e-05
3.37852e-05
3.07909e-05
3.44013e-05
3.4724e-05
3.77195e-05
3.33613e-05
2.98876e-05
2.8297e-05
3.05848e-05
3.56963e-05
4.04833e-05
5.69621e-05
5.05755e-05
1.61658e-05
0.000149545
0.000137838
5.53248e-05
0.000211601
0.000150914
0.513061
0.469141
0.397724
0.325787
0.264774
0.216642
0.179707
0.151348
0.129239
0.111658
0.0974056
0.0856514
0.0758145
0.0674799
0.0603442
0.0541804
0.0488154
0.0441149
0.0399728
0.0363045
0.0330414
0.0301272
0.0275156
0.0251678
0.0230512
0.0211381
0.0194051
0.0178317
0.0164007
0.0150968
0.0139069
0.0128193
0.0118239
0.0109117
0.0100749
0.00930625
0.0085996
0.0079493
0.00735033
0.00679819
0.00628883
0.00581859
0.00538417
0.00498258
0.00461113
0.00426735
0.00394902
0.0036541
0.00338075
0.00312726
0.0028921
0.00267386
0.00247125
0.00228307
0.00210824
0.00194577
0.00179473
0.00165429
0.00152367
0.00140216
0.00128909
0.00118386
0.00108592
0.000994736
0.00090986
0.000830818
0.000757249
0.000688728
0.000624971
0.000565589
0.000510375
0.000458958
0.000411211
0.000366764
0.000325577
0.000287265
0.000251879
0.000218999
0.000188785
0.00016075
0.000135184
0.000111501
9.01409e-05
7.03913e-05
5.28586e-05
3.66928e-05
2.26465e-05
1.82888e-05
2.51669e-05
3.22801e-05
3.89921e-05
4.3312e-05
4.80342e-05
5.00491e-05
5.26073e-05
5.41778e-05
5.28805e-05
5.49149e-05
5.56854e-05
5.22166e-05
6.46888e-05
6.01271e-05
5.65088e-05
5.83609e-05
6.38815e-05
7.24473e-05
6.05738e-05
5.43189e-05
5.19995e-05
5.97284e-05
6.12656e-05
8.44367e-05
0.000122073
0.000105681
2.93959e-05
0.00031104
0.000293906
9.95688e-05
0.000438584
0.000254216
0.504986
0.491653
0.453659
0.403175
0.350687
0.301916
0.259325
0.223353
0.193406
0.168539
0.147805
0.130392
0.115644
0.103049
0.0922072
0.0828081
0.0746072
0.0674106
0.0610627
0.0554379
0.0504331
0.0459636
0.0419589
0.0383599
0.0351165
0.0321865
0.0295335
0.0271265
0.0249384
0.022946
0.0211288
0.0194689
0.0179506
0.0165602
0.0152853
0.0141151
0.0130398
0.0120509
0.0111405
0.0103018
0.00952849
0.00881492
0.00815605
0.00754728
0.00698446
0.00646382
0.00598194
0.00553569
0.00512224
0.00473901
0.00438362
0.00405393
0.00374794
0.00346386
0.00320003
0.00295492
0.00272713
0.00251538
0.00231849
0.00213535
0.001965
0.00180648
0.00165897
0.00152165
0.00139384
0.00127483
0.00116406
0.00106089
0.000964882
0.000875451
0.000792276
0.000714799
0.000642819
0.000575783
0.000513615
0.000455742
0.00040223
0.000352449
0.000306631
0.000264049
0.000225127
0.000188991
0.000156297
0.000125974
9.89411e-05
7.39066e-05
5.20199e-05
3.31567e-05
3.21253e-05
4.27678e-05
5.28407e-05
5.92917e-05
6.65409e-05
6.94695e-05
7.35588e-05
7.61286e-05
7.36738e-05
7.82146e-05
7.82972e-05
7.23659e-05
9.58907e-05
8.90274e-05
8.64811e-05
8.20953e-05
9.64899e-05
0.000114008
9.1614e-05
8.24228e-05
7.90138e-05
9.54946e-05
8.68778e-05
0.000139226
0.000205966
0.000176745
4.53325e-05
0.000515617
0.00049479
0.000138806
0.000717776
0.000345768
0.488772
0.483916
0.46566
0.435703
0.398999
0.359856
0.321371
0.285451
0.253017
0.224317
0.199203
0.177339
0.158325
0.141766
0.127303
0.114628
0.103477
0.0936304
0.0849026
0.07714
0.0702133
0.0640137
0.0584493
0.0534421
0.0489254
0.0448421
0.041143
0.0377858
0.0347333
0.0319535
0.0294181
0.0271025
0.0249847
0.0230456
0.021268
0.0196367
0.0181382
0.0167605
0.0154926
0.0143249
0.0132485
0.0122557
0.0113393
0.0104929
0.00971062
0.00898722
0.00831789
0.00769826
0.00712437
0.00659259
0.00609961
0.0056424
0.0052182
0.00482447
0.00445891
0.00411938
0.00380392
0.00351074
0.0032382
0.00298475
0.00274903
0.00252972
0.00232567
0.00213574
0.00195898
0.0017944
0.00164121
0.00149853
0.00136574
0.00124204
0.00112695
0.00101973
0.000920071
0.000827217
0.000741043
0.00066077
0.000586463
0.000517271
0.000453486
0.000394124
0.000339745
0.000289163
0.00024326
0.000200579
0.00016237
0.000126866
9.56577e-05
6.67494e-05
4.91122e-05
5.06717e-05
6.46181e-05
7.35824e-05
8.3816e-05
8.78451e-05
9.38617e-05
9.76424e-05
9.39279e-05
0.000101798
0.000100649
9.09649e-05
0.000129094
0.000119474
0.000120266
0.000104825
0.000131105
0.000161144
0.000126003
0.000114136
0.000108492
0.000136984
0.000111559
0.00020161
0.000304553
0.000260885
5.95481e-05
0.000748755
0.000729455
0.000163643
0.00102599
0.000410439
0.47455
0.468826
0.457846
0.439894
0.416086
0.388298
0.358422
0.328097
0.29855
0.270593
0.244689
0.221034
0.199643
0.18042
0.163204
0.147812
0.134053
0.121747
0.110728
0.100846
0.0919693
0.0839804
0.0767778
0.0702726
0.0643868
0.0590526
0.0542104
0.0498083
0.0458002
0.042146
0.0388101
0.0357611
0.0329709
0.0304149
0.028071
0.0259195
0.0239428
0.0221251
0.0204522
0.0189115
0.0174914
0.0161815
0.0149726
0.0138561
0.0128244
0.0118704
0.010988
0.0101711
0.00941476
0.008714
0.00806449
0.00746222
0.00690356
0.00638512
0.00590386
0.00545694
0.00504179
0.00465602
0.00429746
0.00396407
0.00365404
0.00336563
0.00309731
0.00284758
0.00261518
0.00239879
0.00219738
0.00200978
0.00183517
0.00167248
0.0015211
0.00138002
0.00124883
0.00112656
0.001013
0.000907153
0.000809075
0.000717666
0.000633277
0.000554641
0.000482459
0.000415204
0.000353997
0.000296959
0.000245702
0.000197935
0.00015574
0.000116485
8.26352e-05
6.48115e-05
7.3298e-05
8.52842e-05
9.90584e-05
0.000104481
0.000112919
0.00011814
0.000113276
0.000125162
0.000122379
0.000107178
0.000163508
0.000150363
0.000157257
0.000125937
0.000166348
0.0002125
0.000163113
0.000149344
0.000139644
0.000183226
0.000134667
0.000268702
0.000413877
0.000354968
6.97048e-05
0.000998264
0.000986549
0.000166627
0.00133885
0.00043289
0.46323
0.454859
0.444976
0.431866
0.415253
0.395579
0.373575
0.350086
0.325933
0.301817
0.278291
0.255763
0.2345
0.214656
0.196296
0.179416
0.163968
0.149876
0.137046
0.12538
0.114778
0.105143
0.0963847
0.0884196
0.0811708
0.0745685
0.0685499
0.0630585
0.0580435
0.0534592
0.0492648
0.0454238
0.0419031
0.0386735
0.0357083
0.0329837
0.0304784
0.0281729
0.0260498
0.0240935
0.0222895
0.020625
0.0190883
0.0176689
0.0163569
0.0151437
0.0140213
0.0129824
0.0120202
0.0111288
0.0103027
0.00953661
0.00882603
0.00816666
0.0075546
0.00698626
0.00645835
0.00596783
0.00551194
0.00508809
0.00469395
0.00432731
0.00398622
0.00366878
0.00337336
0.00309829
0.00284224
0.00260373
0.0023817
0.00217481
0.00198224
0.00180273
0.00163574
0.00148004
0.00133534
0.00120039
0.00107522
0.000958465
0.00085053
0.000749837
0.000657232
0.000570813
0.000491964
0.000418333
0.000351935
0.000289894
0.00023484
0.000183432
0.000138818
9.69517e-05
8.38359e-05
9.3319e-05
0.000111302
0.000118537
0.000129997
0.000136927
0.000131241
0.000147707
0.000143067
0.00012009
0.000198311
0.0001805
0.000196699
0.000144961
0.000200887
0.000266633
0.000202148
0.000187818
0.000171723
0.000233219
0.000155834
0.000337948
0.000530167
0.00045578
7.42958e-05
0.00125351
0.00125729
0.000154558
0.00164108
0.000398397
0.453868
0.443438
0.432805
0.420916
0.407305
0.39193
0.37497
0.356731
0.337588
0.317923
0.298099
0.278438
0.259213
0.240643
0.222889
0.206066
0.190241
0.175446
0.16168
0.148921
0.137132
0.126264
0.11626
0.107063
0.0986145
0.090857
0.0837356
0.0771982
0.0711962
0.0656844
0.0606211
0.0559681
0.0516901
0.0477551
0.0441339
0.0407998
0.0377283
0.0348975
0.032287
0.0298786
0.0276555
0.0256024
0.0237055
0.021952
0.0203303
0.0188299
0.0174412
0.0161552
0.0149639
0.0138599
0.0128364
0.0118871
0.0110065
0.0101892
0.00943048
0.00872585
0.0080713
0.00746307
0.00689773
0.00637209
0.00588327
0.00542854
0.00500547
0.0046117
0.00424521
0.00390394
0.00358623
0.00329025
0.00301466
0.00275782
0.00251868
0.00229571
0.00208819
0.00189462
0.00171462
0.00154665
0.00139071
0.00124514
0.00111039
0.000984537
0.000868595
0.000760235
0.000661133
0.000568411
0.000484531
0.000405961
0.000335954
0.000270361
0.00021313
0.000159247
0.000114273
9.83783e-05
0.000119401
0.000129014
0.000144216
0.000153191
0.00014722
0.000168726
0.00016222
0.000129575
0.000232653
0.000208605
0.000237703
0.000161544
0.000233442
0.000322038
0.000242142
0.000229152
0.000204009
0.000285953
0.00017489
0.000407118
0.000649917
0.000560186
8.25333e-05
0.00150561
0.00153614
0.000148636
0.00192736
0.000377745
0.44578
0.434029
0.422489
0.410574
0.397924
0.384402
0.370021
0.354879
0.339118
0.322904
0.306408
0.289799
0.273243
0.256889
0.240875
0.225319
0.21032
0.195955
0.182281
0.169335
0.157134
0.145684
0.134973
0.124983
0.115686
0.107052
0.0990446
0.0916275
0.0847633
0.0784151
0.0725469
0.0671242
0.0621141
0.0574857
0.0532098
0.0492594
0.0456091
0.0422356
0.0391173
0.0362342
0.0335677
0.0311011
0.0288185
0.0267057
0.0247494
0.0229375
0.0212588
0.019703
0.0182606
0.0169231
0.0156823
0.014531
0.0134623
0.0124701
0.0115486
0.0106926
0.00989713
0.00915776
0.00847036
0.00783108
0.00723646
0.00668319
0.00616834
0.00568905
0.00524288
0.00482734
0.0044404
0.00407984
0.00374405
0.003431
0.00313944
0.0028675
0.00261429
0.00237798
0.00215811
0.0019528
0.00176204
0.00158381
0.00141864
0.0012642
0.00112169
0.000988305
0.000866048
0.000751451
0.000647479
0.000549861
0.000462553
0.000380495
0.000308552
0.00024058
0.000183311
0.00012855
0.000121979
0.000134722
0.000154511
0.000165963
0.000160457
0.000187394
0.000179243
0.000140048
0.000265643
0.00023331
0.00027926
0.000175421
0.000262774
0.000377204
0.000281974
0.000272723
0.000235777
0.000340419
0.00019179
0.000474269
0.000769956
0.000665285
0.000112698
0.00174756
0.00180923
0.00012589
0.00216144
0.000451359
0.438625
0.426028
0.413791
0.401578
0.389139
0.376334
0.363133
0.349566
0.335699
0.321612
0.307384
0.293091
0.278809
0.26461
0.250562
0.236735
0.223195
0.210002
0.197213
0.184878
0.173036
0.161721
0.150952
0.140743
0.131099
0.122015
0.113481
0.105484
0.0980033
0.0910183
0.0845051
0.0784391
0.072795
0.0675476
0.0626723
0.0581448
0.053942
0.0500417
0.0464229
0.0430658
0.0399516
0.0370628
0.0343831
0.0318972
0.0295908
0.0274508
0.0254649
0.0236217
0.0219106
0.020322
0.0188467
0.0174764
0.0162034
0.0150205
0.0139211
0.0128992
0.0119489
0.0110652
0.0102432
0.00947841
0.0087667
0.00810421
0.0074875
0.00691318
0.00637835
0.00588006
0.00541591
0.00498327
0.00458018
0.00420426
0.00385399
0.00352716
0.00322268
0.00293839
0.00267369
0.00242636
0.00219635
0.00198127
0.00178171
0.00159492
0.00142229
0.00126048
0.00111186
0.000972303
0.000845343
0.000725868
0.000618642
0.000517563
0.000428553
0.000344174
0.000272595
0.000202368
0.000153596
0.000134243
0.0001596
0.000174097
0.000170008
0.000202742
0.000193405
0.000151643
0.000296332
0.00025315
0.000320251
0.000186369
0.000287676
0.000430647
0.000320376
0.000317654
0.000266268
0.000395601
0.00020652
0.000537698
0.000887491
0.000768518
0.000160073
0.0019741
0.00206879
0.000121042
0.00232723
0.000600209
0.432224
0.419059
0.406324
0.393815
0.381358
0.368831
0.356178
0.3434
0.330532
0.317622
0.304723
0.291878
0.279128
0.266505
0.254036
0.241748
0.229666
0.217814
0.206221
0.194914
0.183923
0.173275
0.162996
0.153109
0.14363
0.134574
0.125949
0.11776
0.110005
0.102679
0.0957749
0.0892803
0.083182
0.0774647
0.0721118
0.0671058
0.062429
0.0580635
0.0539916
0.0501957
0.0466591
0.0433653
0.0402988
0.0374446
0.0347886
0.0323174
0.0300184
0.0278798
0.0258904
0.0240399
0.0223184
0.020717
0.0192271
0.0178409
0.016551
0.0153506
0.0142334
0.0131934
0.0122252
0.0113237
0.0104841
0.00970209
0.00897363
0.00829485
0.00766238
0.0070728
0.00652331
0.00601087
0.00553317
0.00508745
0.00467192
0.00428397
0.00392234
0.00358448
0.00326967
0.0029753
0.0027013
0.00244485
0.00220663
0.0019834
0.00177677
0.00158282
0.00140434
0.00123643
0.00108329
0.000938851
0.000808804
0.000685857
0.000577148
0.000473761
0.000385515
0.000298806
0.000231745
0.00016341
0.000157931
0.000176228
0.000174699
0.000213637
0.000203797
0.000160458
0.000323698
0.00026655
0.00035947
0.000194146
0.000306946
0.000480947
0.000355957
0.000362807
0.000294661
0.000450452
0.000219004
0.000595889
0.00100011
0.000867702
0.000210836
0.00218118
0.00230837
0.000197569
0.00241599
0.000825497
0.426448
0.412888
0.3998
0.387048
0.374513
0.362092
0.349723
0.337382
0.325078
0.312838
0.300701
0.288701
0.27687
0.265232
0.253804
0.242597
0.231617
0.220867
0.210351
0.200072
0.190038
0.180257
0.170741
0.161501
0.152551
0.143903
0.135571
0.127565
0.119891
0.112558
0.105566
0.0989175
0.0926089
0.0866356
0.0809908
0.075666
0.070651
0.0659345
0.0615046
0.0573485
0.0534533
0.0498058
0.046393
0.0432018
0.0402197
0.0374343
0.0348337
0.0324067
0.0301423
0.0280301
0.0260602
0.0242235
0.0225111
0.0209146
0.0194265
0.0180393
0.0167462
0.0155409
0.0144172
0.0133697
0.0123931
0.0114825
0.0106334
0.00984148
0.00910297
0.00841398
0.00777134
0.00717156
0.00661205
0.00608962
0.00560222
0.00514685
0.00472204
0.00432485
0.00395446
0.00360782
0.00328486
0.00298227
0.00270086
0.00243682
0.00219207
0.00196198
0.00174985
0.0015499
0.0013671
0.0011943
0.00103824
0.000890274
0.000758944
0.000633647
0.000526082
0.00042024
0.000337303
0.000247421
0.00018987
0.000170747
0.000173069
0.000218755
0.000209276
0.000165496
0.000346602
0.000271793
0.000395624
0.00019842
0.000319346
0.000526759
0.000387205
0.000406785
0.000320041
0.000503857
0.000229011
0.00064745
0.00110576
0.000961032
0.000262127
0.00236546
0.00252304
0.000333691
0.00242656
0.00120593
0.421205
0.407363
0.394021
0.381081
0.368458
0.356071
0.34386
0.331787
0.319842
0.308032
0.296377
0.284902
0.273633
0.262593
0.2518
0.241266
0.230996
0.220989
0.211242
0.201748
0.192502
0.183496
0.174727
0.166192
0.157892
0.149828
0.142005
0.134428
0.127103
0.120036
0.113232
0.106697
0.100433
0.0944425
0.0887261
0.0832823
0.0781086
0.0732004
0.0685524
0.0641577
0.0600088
0.0560971
0.0524135
0.0489487
0.045693
0.0426363
0.039769
0.0370811
0.034563
0.0322053
0.0299988
0.0279348
0.0260047
0.0242003
0.0225141
0.0209385
0.0194665
0.0180917
0.0168076
0.0156084
0.0144886
0.0134429
0.0124665
0.0115546
0.0107031
0.00990777
0.00916513
0.0084713
0.00782338
0.0072178
0.00665229
0.00612343
0.0056296
0.00516743
0.00473601
0.00433185
0.00395487
0.00360127
0.00327201
0.00296265
0.00267545
0.00240502
0.00215522
0.00191932
0.00170314
0.0014983
0.00131276
0.00113634
0.000979179
0.000828761
0.000698922
0.00057099
0.000469498
0.000360226
0.000283136
0.000203842
0.000163267
0.000216556
0.000208403
0.000165539
0.000363744
0.000266975
0.000427342
0.00019868
0.000323539
0.000566785
0.000412484
0.000447962
0.00034138
0.000554584
0.000236072
0.000691059
0.00120261
0.00104702
0.000310813
0.00252357
0.00270949
0.000478651
0.00236408
0.0016343
0.416418
0.402374
0.388848
0.375766
0.363064
0.350679
0.338556
0.326658
0.314959
0.303451
0.292138
0.281032
0.270151
0.259511
0.249129
0.239018
0.229188
0.219643
0.210382
0.201399
0.192687
0.184236
0.176035
0.168074
0.160344
0.152836
0.145544
0.138465
0.131597
0.124937
0.118488
0.112251
0.106228
0.100422
0.0948344
0.0894674
0.0843219
0.0793981
0.0746951
0.0702114
0.0659439
0.0618892
0.0580426
0.0543987
0.0509517
0.0476951
0.0446219
0.0417249
0.0389967
0.0364298
0.0340165
0.0317494
0.0296209
0.0276237
0.0257508
0.0239951
0.0223501
0.0208093
0.0193665
0.0180157
0.0167516
0.0155685
0.0144617
0.0134261
0.0124575
0.0115513
0.0107038
0.00991081
0.00916928
0.00847528
0.00782636
0.00721875
0.00665068
0.00611837
0.00562088
0.00515423
0.00471842
0.00430907
0.00392736
0.00356818
0.00323419
0.00291915
0.00262757
0.00235165
0.0020982
0.00185745
0.00163875
0.00143018
0.00124372
0.00106468
0.000909319
0.000756027
0.000632958
0.000501285
0.000406575
0.000308081
0.00020971
0.000213747
0.000199335
0.000159139
0.000373591
0.000249945
0.000453159
0.000194145
0.00031801
0.000599721
0.000430013
0.000484506
0.000357506
0.000601233
0.000239404
0.000725395
0.00128897
0.00112439
0.000353638
0.00265165
0.00286619
0.000622261
0.0022369
0.00208915
0.412028
0.397837
0.384177
0.370989
0.358222
0.345827
0.333755
0.321971
0.310444
0.299158
0.288103
0.277281
0.266697
0.256361
0.246283
0.236474
0.226946
0.217703
0.20875
0.200087
0.191708
0.183608
0.175777
0.168204
0.160878
0.153787
0.14692
0.140266
0.133817
0.127564
0.121502
0.115625
0.109932
0.104421
0.0990892
0.0939379
0.088967
0.0841769
0.0795681
0.0751408
0.0708947
0.0668292
0.0629429
0.0592339
0.0556997
0.0523369
0.049142
0.0461107
0.0432382
0.0405195
0.0379492
0.0355217
0.0332313
0.0310721
0.0290382
0.0271238
0.025323
0.0236301
0.0220395
0.0205456
0.0191432
0.0178271
0.0165925
0.0154345
0.0143489
0.013331
0.012377
0.0114826
0.0106448
0.00985918
0.00912337
0.00843327
0.00778705
0.00718057
0.00661289
0.00607956
0.00558072
0.00511141
0.00467308
0.00425991
0.00387502
0.00351125
0.00317388
0.00285391
0.00255927
0.00227866
0.00202302
0.00177844
0.00155902
0.00134762
0.00116322
0.000980997
0.000833013
0.000675606
0.000560277
0.000439663
0.000322898
0.000271975
0.000195268
0.000144616
0.000374285
0.000218224
0.000471493
0.000183656
0.000300951
0.000624147
0.000437824
0.000514405
0.000367085
0.000642186
0.000237853
0.000749087
0.00136308
0.00119198
0.000387381
0.00274503
0.0029935
0.000751584
0.00205296
0.00254674
0.407981
0.393685
0.379929
0.366663
0.353848
0.341439
0.329398
0.31769
0.306285
0.295162
0.284306
0.273706
0.263361
0.253273
0.243444
0.23388
0.224589
0.215577
0.206848
0.198404
0.190244
0.182367
0.174767
0.167435
0.160364
0.153542
0.146959
0.140602
0.134461
0.128524
0.122782
0.117225
0.111846
0.106637
0.101593
0.0967099
0.0919838
0.0874126
0.0829946
0.0787287
0.074614
0.07065
0.0668363
0.0631722
0.0596568
0.0562889
0.0530672
0.0499896
0.0470538
0.0442572
0.0415966
0.0390686
0.0366695
0.0343952
0.0322415
0.030204
0.0282783
0.0264596
0.0247435
0.0231252
0.0216002
0.0201639
0.0188119
0.0175397
0.0163433
0.0152183
0.0141611
0.0131675
0.0122343
0.0113573
0.0105341
0.0097603
0.00903427
0.00835151
0.0077112
0.00710847
0.00654366
0.00601124
0.00551303
0.00504243
0.00460316
0.00418706
0.0038003
0.00343255
0.00309305
0.00276878
0.00247246
0.00218802
0.00193192
0.00168428
0.00146715
0.0012522
0.0010757
0.000888913
0.000749613
0.000603169
0.000465926
0.000395801
0.000270559
0.000153315
0.000363507
0.000168903
0.000480609
0.000165558
0.000270117
0.000638395
0.000433682
0.000535458
0.000368576
0.000675567
0.000229822
0.000760625
0.00142301
0.00124864
0.000409031
0.00279798
0.00309357
0.000851968
0.00181747
0.00298367
0.404237
0.389866
0.376041
0.362721
0.34987
0.337451
0.325429
0.313774
0.302458
0.291457
0.280752
0.270328
0.260177
0.250293
0.240675
0.231321
0.222235
0.213419
0.204876
0.196609
0.188619
0.180904
0.173462
0.166289
0.159379
0.152724
0.146315
0.140144
0.1342
0.128472
0.122949
0.117622
0.112479
0.107513
0.102713
0.0980729
0.0935849
0.0892432
0.085043
0.0809802
0.0770515
0.0732544
0.0695866
0.0660468
0.0626337
0.059346
0.0561829
0.0531432
0.0502258
0.0474294
0.0447524
0.042193
0.0397492
0.0374186
0.0351987
0.0330866
0.0310794
0.0291738
0.0273665
0.0256539
0.0240326
0.0224987
0.0210489
0.0196792
0.0183861
0.0171659
0.0160152
0.0149302
0.013908
0.0129446
0.0120376
0.0111828
0.0103787
0.00962053
0.00890781
0.0082353
0.00760365
0.00700678
0.006447
0.00591694
0.00542102
0.00495001
0.00451113
0.00409261
0.00370517
0.00333391
0.00299357
0.00266566
0.00236932
0.00208162
0.00182808
0.00157648
0.00136768
0.00114763
0.000980722
0.000804407
0.000644022
0.000549466
0.000403069
0.00025558
0.000396036
9.85244e-05
0.000478615
0.00013753
0.000222618
0.000640369
0.000414987
0.000545237
0.000360187
0.000699218
0.000213228
0.000758297
0.0014664
0.00129308
0.000415976
0.00280371
0.0031887
0.000926987
0.00153227
0.00337676
0.400759
0.386336
0.372464
0.359106
0.346232
0.333806
0.3218
0.310185
0.298935
0.288025
0.277437
0.267151
0.257156
0.247442
0.238001
0.228829
0.219922
0.211281
0.202906
0.194797
0.186955
0.179378
0.172066
0.165016
0.158223
0.151683
0.145389
0.139335
0.133511
0.127911
0.122523
0.11734
0.112351
0.107547
0.102919
0.0984563
0.094152
0.0899975
0.0859857
0.0821099
0.0783643
0.0747437
0.0712437
0.0678608
0.0645916
0.0614338
0.0583851
0.0554439
0.0526084
0.0498774
0.0472497
0.0447239
0.0422988
0.039973
0.0377451
0.0356133
0.0335758
0.0316306
0.0297757
0.0280086
0.026327
0.024728
0.0232093
0.0217677
0.0204008
0.0191051
0.0178784
0.0167169
0.0156186
0.0145796
0.0135981
0.01267
0.0117941
0.0109656
0.0101845
0.00944524
0.00874895
0.00808906
0.0074685
0.00687912
0.00632623
0.00579946
0.00530725
0.00483629
0.00439898
0.00397837
0.00359148
0.00321715
0.00287754
0.00254634
0.00225295
0.0019609
0.00171608
0.00145874
0.00126044
0.00104994
0.00086339
0.000739095
0.000569988
0.000397711
0.000516973
0.000119519
0.000508083
9.62513e-05
0.000154563
0.000627325
0.000378598
0.000540999
0.000339802
0.000710674
0.000185379
0.000740033
0.0014904
0.00132385
0.000406255
0.0027544
0.00331794
0.000999548
0.00130298
0.0038079
0.397516
0.38306
0.369157
0.355776
0.342887
0.33046
0.318468
0.306885
0.295686
0.284847
0.27435
0.264174
0.254305
0.244729
0.235437
0.226419
0.21767
0.209185
0.200962
0.192999
0.185294
0.177845
0.170652
0.163711
0.15702
0.150574
0.14437
0.138401
0.132661
0.127143
0.121841
0.116746
0.11185
0.107145
0.102622
0.0982722
0.094088
0.0900609
0.0861828
0.0824462
0.0788438
0.0753689
0.0720155
0.068778
0.0656513
0.0626312
0.0597136
0.0568954
0.0541736
0.0515457
0.0490096
0.0465636
0.0442059
0.0419351
0.03975
0.037649
0.035631
0.0336946
0.0318384
0.0300607
0.0283601
0.0267348
0.025183
0.0237026
0.0222918
0.0209483
0.0196701
0.0184545
0.0173
0.0162031
0.0151626
0.0141748
0.013239
0.0123505
0.0115099
0.0107113
0.00995671
0.00923899
0.0085619
0.00791652
0.00730919
0.00672841
0.006184
0.00566103
0.00517379
0.00470311
0.00426859
0.00384612
0.00346128
0.00308398
0.00274802
0.00241218
0.00212798
0.00182948
0.0015961
0.00134695
0.00113101
0.000971507
0.000777371
0.00057522
0.000677369
0.00018429
0.000603158
0.000100012
8.10261e-05
0.000595514
0.000320576
0.000519554
0.000304884
0.000707176
0.000142944
0.00070328
0.00149138
0.00133919
0.000378962
0.00264169
0.0034507
0.00110893
0.00115832
0.00421954
0.394483
0.380007
0.366086
0.352691
0.339797
0.327374
0.315397
0.303841
0.292683
0.281902
0.271477
0.261389
0.251621
0.242159
0.232991
0.224104
0.215491
0.207144
0.199058
0.191227
0.18365
0.176322
0.169242
0.162406
0.155811
0.149453
0.14333
0.137435
0.131765
0.126312
0.121072
0.116038
0.111203
0.106559
0.1021
0.0978186
0.0937066
0.0897567
0.0859615
0.0823136
0.0788057
0.0754309
0.0721826
0.0690542
0.0660399
0.063134
0.0603314
0.0576273
0.0550176
0.0524983
0.0500661
0.0477181
0.0454515
0.0432641
0.0411539
0.039119
0.0371579
0.0352689
0.033451
0.0317025
0.0300223
0.0284089
0.0268613
0.0253777
0.0239571
0.0225975
0.0212979
0.0200559
0.0188708
0.0177395
0.0166617
0.0156338
0.0146558
0.0137232
0.0128373
0.0119921
0.0111904
0.0104247
0.00969968
0.00900569
0.00835027
0.00772076
0.00712854
0.00655699
0.00602251
0.00550356
0.00502257
0.00455228
0.00412201
0.00369755
0.0033176
0.00293569
0.00260965
0.00226666
0.00199499
0.00170293
0.00145436
0.00125424
0.00103219
0.00079528
0.000874997
0.000300036
0.000761904
0.00021576
0.000110991
0.000605824
0.000240271
0.000477049
0.000252352
0.000685749
9.20361e-05
0.000644647
0.00146473
0.00133701
0.000335013
0.0024575
0.00358808
0.0012468
0.00107518
0.00458374
0.391637
0.377151
0.363222
0.349824
0.33693
0.324515
0.312554
0.301023
0.289901
0.279168
0.268802
0.258785
0.249101
0.239732
0.230666
0.221891
0.213394
0.205167
0.197201
0.189491
0.182031
0.174816
0.167843
0.161107
0.154606
0.148335
0.14229
0.136468
0.130863
0.12547
0.120285
0.115302
0.110514
0.105917
0.101502
0.0972651
0.0931983
0.0892952
0.0855493
0.0819539
0.0785025
0.0751883
0.0720052
0.0689468
0.066007
0.0631799
0.06046
0.057842
0.0553207
0.0528916
0.0505502
0.0482926
0.0461151
0.0440144
0.0419875
0.0400318
0.0381449
0.0363246
0.0345691
0.0328765
0.0312454
0.0296741
0.0281616
0.0267062
0.025307
0.0239623
0.0226715
0.0214324
0.0202447
0.0191059
0.018016
0.0169717
0.0159738
0.0150179
0.0141058
0.0132317
0.0123991
0.0116001
0.0108405
0.0101099
0.00941726
0.00874858
0.00811704
0.00750424
0.00692885
0.00636687
0.00584376
0.00532889
0.0048557
0.00438541
0.00396227
0.0035338
0.00316513
0.00277554
0.00246344
0.00212493
0.00184089
0.0015952
0.001342
0.00106584
0.00111691
0.000494874
0.000953868
0.00036816
0.000216909
0.000719222
0.00029229
0.000513336
0.000252012
0.000684137
3.66995e-05
0.00056556
0.00141103
0.00137104
0.00035622
0.00228974
0.00379171
0.00136273
0.000996834
0.00489558
0.388958
0.374471
0.360542
0.347146
0.334259
0.321856
0.309912
0.298406
0.287316
0.276623
0.266308
0.256351
0.246735
0.237445
0.228465
0.219782
0.211384
0.203261
0.195401
0.187799
0.180445
0.173334
0.166461
0.159821
0.15341
0.147223
0.141256
0.135505
0.129965
0.124632
0.1195
0.114566
0.109823
0.105266
0.10089
0.0966882
0.0926552
0.088785
0.0850716
0.0815093
0.078092
0.0748137
0.0716688
0.0686513
0.0657557
0.0629763
0.0603078
0.0577448
0.0552823
0.0529154
0.0506393
0.0484497
0.0463422
0.044313
0.0423584
0.040475
0.0386595
0.0369092
0.0352215
0.0335939
0.0320242
0.0305105
0.0290511
0.0276441
0.0262883
0.0249818
0.023724
0.0225127
0.0213477
0.0202264
0.0191493
0.0181131
0.017119
0.0161625
0.0152462
0.014364
0.0135202
0.0127066
0.01193
0.0111792
0.0104645
0.00977064
0.00911269
0.00847033
0.00786468
0.00726907
0.00671225
0.0061599
0.00564996
0.00513857
0.00467624
0.00420352
0.00379409
0.0033579
0.00300519
0.00261823
0.00229684
0.00200189
0.00171428
0.00139526
0.00141088
0.000755325
0.00118734
0.000562413
0.000401677
0.000862256
0.000369663
0.000622609
0.000343305
0.000766166
0.000116729
0.000617002
0.00140023
0.00142272
0.000439664
0.00218211
0.00407928
0.00146419
0.000916187
0.00515597
0.386429
0.371947
0.358025
0.344638
0.331762
0.319373
0.307448
0.295966
0.284907
0.274251
0.263979
0.254073
0.244515
0.23529
0.226383
0.217779
0.209466
0.201431
0.193664
0.186156
0.178897
0.171881
0.165101
0.158551
0.152225
0.146119
0.140228
0.134547
0.129072
0.123799
0.118722
0.113837
0.109139
0.104622
0.100283
0.0961143
0.0921118
0.0882699
0.0845831
0.0810458
0.0776528
0.0743986
0.0712778
0.0682853
0.0654157
0.062664
0.0600251
0.0574941
0.0550662
0.0527368
0.0505011
0.0483548
0.0462937
0.0443136
0.0424106
0.0405811
0.0388213
0.0371281
0.0354982
0.0339288
0.0324171
0.0309606
0.0295571
0.0282042
0.0269003
0.0256431
0.0244314
0.023263
0.0221374
0.0210518
0.0200066
0.0189983
0.0180284
0.0170921
0.0161924
0.0153228
0.0144884
0.0136802
0.0129061
0.0121539
0.0114354
0.0107338
0.0100661
0.00940982
0.00878873
0.00817319
0.00759545
0.0070171
0.006481
0.00593748
0.00544417
0.00493337
0.00448885
0.00400935
0.00361886
0.00318423
0.00282543
0.00247984
0.00215521
0.00179134
0.00176474
0.0010759
0.0014714
0.000804816
0.000641082
0.00103929
0.000471371
0.000758778
0.000458397
0.000895586
0.000258502
0.000694321
0.00147653
0.00157518
0.000549203
0.00204253
0.00438711
0.00155868
0.000924811
0.00536979
0.384035
0.369564
0.355653
0.342279
0.329418
0.317046
0.305142
0.293685
0.282655
0.272032
0.261799
0.251937
0.24243
0.233261
0.224416
0.215879
0.207638
0.19968
0.191994
0.184569
0.177395
0.170464
0.163768
0.1573
0.151055
0.145026
0.139208
0.133596
0.128185
0.122971
0.117949