/*--------------------------------*- C++ -*----------------------------------*\
| =========                 |                                                 |
| \\      /  F ield         | OpenFOAM: The Open Source CFD Toolbox           |
|  \\    /   O peration     | Version:  2412                                  |
|   \\  /    A nd           | Website:  www.openfoam.com                      |
|    \\/     M anipulation  |                                                 |
\*---------------------------------------------------------------------------*/
FoamFile
{
    version     2.0;
    format      ascii;
    arch        "LSB;label=32;scalar=64";
    class       volVectorField;
    location    "1.73";
    object      ddt0(U);
}
// * * * * * * * * * * * * * * * * * * * * * * * * * * * * * * * * * * * * * //

dimensions      [0 1 -2 0 0 0 0];

internalField   nonuniform List<vector> 
12600
(
(0.0129126 4.83944e-21 0.20653)
(0.355742 6.72866e-21 0.0363865)
(0.18098 5.69951e-21 -0.0173422)
(0.136742 0 -0.0230057)
(0.134736 4.81539e-21 -0.0233536)
(0.129591 4.5948e-21 -0.0207525)
(0.121018 0 -0.0175496)
(0.111444 0 -0.0181994)
(0.105901 -1.67834e-20 -0.0195291)
(0.105401 0 -0.0207532)
(0.107078 8.25726e-21 -0.0214231)
(0.107425 8.3007e-21 -0.0212728)
(0.104457 -8.37446e-21 -0.0204216)
(0.0981798 0 -0.0192022)
(0.0895894 -8.40966e-21 -0.0178849)
(0.0794196 0 -0.0165178)
(0.0675972 3.27684e-20 -0.0149599)
(0.0535281 0 -0.0130232)
(0.0366395 -1.50345e-20 -0.0105833)
(0.0166417 -1.40698e-20 -0.00759538)
(-0.00654125 1.28195e-20 -0.00405709)
(-0.0328955 -4.71234e-24 1.62757e-05)
(-0.0622839 0 0.00458454)
(-0.0942854 -1.53242e-20 0.0095618)
(-0.128071 0 0.0148088)
(-0.162438 0 0.0201514)
(-0.196002 -6.51078e-22 0.0254136)
(-0.227416 0 0.030446)
(-0.255507 2.29929e-22 0.0351295)
(-0.279269 -1.66571e-20 0.0393571)
(-0.297772 -2.24578e-20 0.0430075)
(-0.31009 -2.78808e-20 0.0459315)
(-0.315286 3.26978e-20 0.0479538)
(-0.31251 7.33876e-20 0.0488959)
(-0.30112 7.93589e-20 0.048601)
(-0.280852 -8.3165e-20 0.0469661)
(-0.25192 0 0.0439565)
(-0.215116 8.25433e-20 0.0396244)
(-0.171765 0 0.0340999)
(-0.123738 -7.16359e-20 0.0276016)
(-0.0732496 0 0.0204065)
(-0.0227925 -4.96567e-22 0.012854)
(0.0252073 0 0.00529046)
(0.0684357 -5.85553e-22 -0.00192235)
(0.105076 -2.82815e-20 -0.0084783)
(0.133671 4.44357e-21 -0.0140912)
(0.153508 1.81879e-20 -0.018579)
(0.164231 0 -0.0217864)
(0.166333 0 -0.0236972)
(0.160503 6.22895e-20 -0.0243076)
(0.14832 1.3659e-19 -0.0237812)
(0.13123 1.40212e-19 -0.0222519)
(0.111546 -3.84359e-23 -0.0200445)
(0.0909144 1.27027e-19 -0.0173765)
(0.0717344 0 -0.0146628)
(0.0549848 -9.73807e-20 -0.0120814)
(0.0423642 -8.06606e-20 -0.0100061)
(0.0333969 -6.47182e-20 -0.00840995)
(0.0287211 0 -0.00750497)
(0.0263837 0 -0.00697766)
(0.0266908 0 -0.00693405)
(0.0271762 2.62555e-20 -0.00689529)
(0.0291108 0 -0.00708848)
(0.0303004 0 -0.00704879)
(0.0334539 2.0194e-20 -0.00728236)
(0.0360998 0 -0.00731472)
(0.0415548 0 -0.00783816)
(0.0457445 0 -0.0081405)
(0.0519116 4.4612e-20 -0.00894475)
(0.0540023 -7.92851e-20 -0.00915771)
(0.0559619 -1.1062e-19 -0.00958758)
(0.0507751 -6.67172e-22 -0.00886485)
(0.0448286 1.47434e-19 -0.00815801)
(0.0312888 0 -0.00604417)
(0.0199485 -1.40988e-19 -0.00429469)
(0.00384903 0 -0.0014724)
(-0.00482302 0 0.000141474)
(-0.0149204 0 0.00222933)
(-0.0142234 1.68436e-22 0.00234203)
(-0.0152586 -1.73824e-19 0.00272296)
(-0.0076562 -1.61995e-19 0.00123724)
(-0.00598824 1.46511e-19 0.000628222)
(-0.00218148 1.12631e-19 -0.000630326)
(-0.00534967 0 -0.000730128)
(-0.0130096 0 2.95434e-05)
(-0.0167881 1.33932e-19 0.000271738)
(-0.0303316 -4.34312e-19 0.00308174)
(-0.0180897 6.79675e-19 0.00167408)
(-0.00902981 2.92758e-19 0.0010864)
(-0.0192036 0 0.00378685)
(0.148094 -2.31734e-19 -0.0278495)
(-0.290858 1.35799e-19 0.0550515)
(0.758591 -3.73219e-19 -0.142539)
(-0.691652 -1.02401e-18 0.131465)
(0.539023 0 -0.114501)
(0.368411 0 -0.0644885)
(-1.80113 0 0.320298)
(3.29735 0 -0.612147)
(-6.3614 0 1.19683)
(6.80259 0 -1.29094)
(-3.07981 4.6843e-17 0.627708)
(-3.85505 -2.07647e-16 0.615877)
(10.2298 1.92638e-16 -1.79472)
(-16.227 0 3.05481)
(11.3085 0 -2.20478)
(-5.03357 0 1.1189)
(1.36845 -1.01616e-17 0.0193158)
(6.96274 2.21027e-17 -1.21393)
(-12.6748 -2.96086e-17 2.2325)
(18.0505 0 -3.42003)
(-25.3323 8.22537e-17 5.05695)
(0.761346 0 -0.800874)
(26.7374 2.13488e-16 -4.7621)
(-9.86033 1.85485e-16 1.98325)
(-0.99455 9.26581e-17 0.109383)
(-2.79063 -4.64362e-17 0.47837)
(5.43096 -1.64976e-17 -1.03657)
(2.80323 8.49688e-21 -0.436591)
(-6.92367 -5.41184e-18 1.3165)
(-1.83526 0 0.330357)
(0.27895 -4.88791e-21 0.407744)
(0.446467 0 0.121395)
(0.395534 -5.76733e-21 -0.00665347)
(0.36477 0 -0.0368695)
(0.35363 -4.87858e-21 -0.0452708)
(0.336385 -9.53112e-21 -0.0435732)
(0.312892 -4.56014e-21 -0.0397854)
(0.290495 0 -0.0430247)
(0.27907 -5.10897e-23 -0.0492211)
(0.277657 -8.4354e-21 -0.0547346)
(0.27959 8.36757e-21 -0.0572966)
(0.277574 8.36712e-21 -0.0565745)
(0.268035 -8.40898e-21 -0.0538272)
(0.251853 8.4553e-21 -0.0506372)
(0.231841 1.69974e-20 -0.0478315)
(0.209805 0 -0.0452316)
(0.185439 -1.15503e-22 -0.042147)
(0.15722 1.59385e-20 -0.0380132)
(0.123826 1.5254e-20 -0.0326504)
(0.084756 0 -0.0261225)
(0.0401024 0 -0.0185131)
(-0.00984247 1.14977e-20 -0.00985297)
(-0.0646248 0 -0.000193568)
(-0.123381 7.79255e-21 0.0103014)
(-0.184657 -1.13885e-20 0.0213418)
(-0.246532 0 0.032583)
(-0.307 1.21481e-21 0.0437208)
(-0.364331 0 0.0545413)
(-0.417165 1.08436e-20 0.0648903)
(-0.464338 3.33049e-20 0.0746046)
(-0.504593 4.50507e-20 0.0834482)
(-0.536434 2.82201e-20 0.0911046)
(-0.55816 -3.30867e-20 0.0972012)
(-0.56812 -1.47863e-19 0.10137)
(-0.564946 -1.60019e-19 0.103286)
(-0.547845 0 0.102721)
(-0.516675 0 0.0995401)
(-0.472093 -6.5046e-23 0.09375)
(-0.415431 0 0.0854655)
(-0.348822 7.23195e-20 0.0749713)
(-0.2749 0 0.0626526)
(-0.196915 1.04848e-19 0.049054)
(-0.118133 0 0.0347373)
(-0.0420509 5.4856e-20 0.020369)
(0.0284433 0 0.00651063)
(0.0905038 -4.47432e-21 -0.00621426)
(0.142403 0 -0.017403)
(0.182442 0 -0.0265904)
(0.210489 -5.11253e-20 -0.0336524)
(0.226197 0 -0.038357)
(0.231194 0 -0.0409277)
(0.226285 0 -0.0413643)
(0.214638 -1.36871e-19 -0.0402477)
(0.19758 -2.54838e-19 -0.0377385)
(0.179175 0 -0.0346988)
(0.160143 0 -0.0312535)
(0.144486 8.15658e-20 -0.0283498)
(0.130962 6.47151e-20 -0.0257526)
(0.122742 0 -0.0242547)
(0.115933 0 -0.0230257)
(0.113512 0 -0.0227572)
(0.109703 0 -0.0221443)
(0.109133 1.07198e-20 -0.0221776)
(0.105195 1.88928e-21 -0.0213636)
(0.105488 -1.91328e-20 -0.0213548)
(0.102064 0 -0.0204399)
(0.105006 0 -0.0208695)
(0.103125 0 -0.0203029)
(0.108291 -8.00672e-22 -0.0213765)
(0.104932 7.85269e-20 -0.0207892)
(0.10759 1.09462e-19 -0.0216548)
(0.0968176 -2.65325e-19 -0.0197632)
(0.0921763 -1.12965e-21 -0.0191891)
(0.0714863 1.46457e-19 -0.0151166)
(0.0612993 1.38982e-19 -0.0130944)
(0.0365188 0 -0.0077638)
(0.0300523 0 -0.00609375)
(0.012057 0 -0.00184222)
(0.0187543 -1.80984e-19 -0.00283234)
(0.0136935 0 -0.00148599)
(0.0324213 0 -0.00549408)
(0.0351595 -1.43393e-19 -0.00623661)
(0.0511647 -1.10117e-19 -0.0100766)
(0.0534378 0 -0.0106946)
(0.0503528 0 -0.0105207)
(0.0597524 0 -0.0118916)
(0.0359829 4.21957e-19 -0.00651062)
(0.0733834 1.24429e-22 -0.0124295)
(0.0795184 2.84426e-19 -0.0117186)
(0.0264005 -3.33471e-19 -0.00438583)
(0.447829 2.26934e-19 -0.0804432)
(-0.791449 1.31362e-19 0.146461)
(2.12502 7.23106e-19 -0.40628)
(-2.04516 0 0.417857)
(1.67733 0 -0.356405)
(0.840002 0 -0.110709)
(-4.77655 0 0.840127)
(9.22664 2.98432e-18 -1.68711)
(-17.8765 0 3.39838)
(19.5079 0 -3.8385)
(-10.0721 4.48768e-17 2.30478)
(-8.01867 9.94852e-17 1.23041)
(27.6788 -3.67032e-16 -4.87081)
(-45.6914 -5.45989e-17 8.79099)
(31.2903 0 -6.43417)
(-18.9589 0 4.06041)
(7.79329 0 -1.86575)
(17.6939 -1.05151e-17 -3.10352)
(-31.7862 2.81787e-17 5.79556)
(50.0054 0 -9.44809)
(-77.0115 -1.56367e-16 15.4302)
(9.84511 1.30922e-16 -1.77003)
(72.758 -4.05085e-16 -13.5441)
(-30.2021 0 6.35905)
(0.591905 0 -0.291063)
(-6.85643 -4.37558e-17 1.20855)
(15.1294 0 -3.0135)
(5.80358 -1.01342e-18 -1.08277)
(-19.4879 5.14901e-18 3.81736)
(-3.76075 0 0.636387)
(0.306156 0 0.268934)
(0.405578 0 0.112206)
(0.430235 -5.2464e-21 0.0140467)
(0.428097 0 -0.0188077)
(0.421056 0 -0.0279316)
(0.404033 4.52819e-21 -0.0274415)
(0.378051 4.31837e-21 -0.0288671)
(0.353864 0 -0.0392208)
(0.342432 -7.34084e-24 -0.0550654)
(0.344073 7.99126e-21 -0.0682006)
(0.350581 -1.58466e-20 -0.0735726)
(0.351781 -7.92767e-21 -0.0717852)
(0.342272 3.14862e-23 -0.0668594)
(0.323216 -8.01192e-21 -0.0626097)
(0.299047 -8.01993e-21 -0.0603805)
(0.272974 7.92806e-21 -0.0591512)
(0.244975 -1.561e-20 -0.0571955)
(0.212985 -1.51038e-20 -0.0535636)
(0.175154 0 -0.0483385)
(0.130908 0 -0.0419979)
(0.0805764 1.23055e-20 -0.0348155)
(0.0246764 1.09425e-20 -0.0267714)
(-0.0362532 0 -0.017797)
(-0.101318 0 -0.00799038)
(-0.168978 1.07912e-20 0.00237788)
(-0.237204 0 0.0130211)
(-0.303972 -2.58882e-21 0.0237839)
(-0.367714 -3.91818e-21 0.0346596)
(-0.427359 0 0.0456703)
(-0.482006 -1.55721e-20 0.0567351)
(-0.530485 -2.1139e-20 0.0676061)
(-0.571184 0 0.0779198)
(-0.602144 3.06484e-20 0.0872694)
(-0.621427 6.97372e-20 0.0952887)
(-0.627389 5.59022e-22 0.10165)
(-0.618996 0 0.10609)
(-0.595823 0 0.108345)
(-0.558228 -7.89089e-20 0.108219)
(-0.507142 0 0.105534)
(-0.444351 0 0.100281)
(-0.372107 0 0.0925217)
(-0.293474 0 0.0825526)
(-0.211519 0 0.0706878)
(-0.129848 0 0.0574836)
(-0.051377 0 0.0433942)
(0.0206087 5.88322e-21 0.0291253)
(0.0841761 1.52954e-20 0.0151246)
(0.136904 0 0.00212013)
(0.178441 4.83694e-20 -0.00963136)
(0.207553 0 -0.0195092)
(0.225817 0 -0.0275852)
(0.233029 -1.32156e-19 -0.033385)
(0.232635 0 -0.0374037)
(0.224853 1.20547e-19 -0.0393079)
(0.214544 -1.07988e-19 -0.0400581)
(0.201216 0 -0.0393468)
(0.190355 -7.70976e-20 -0.0385164)
(0.17924 0 -0.0369588)
(0.173225 0 -0.036156)
(0.166313 0 -0.0348347)
(0.164413 -4.71471e-20 -0.0345818)
(0.158712 -2.74375e-20 -0.0333743)
(0.157741 9.46166e-22 -0.0332326)
(0.1507 -2.77188e-21 -0.0315525)
(0.150425 6.00755e-22 -0.0312457)
(0.143307 0 -0.0291131)
(0.146296 0 -0.0291004)
(0.140672 1.20465e-20 -0.027049)
(0.147161 -6.97762e-22 -0.0278846)
(0.140394 0 -0.0260514)
(0.146149 0 -0.0275266)
(0.132429 1.24502e-19 -0.0251399)
(0.132815 -1.1098e-21 -0.0263421)
(0.109412 -9.11105e-22 -0.022444)
(0.106116 0 -0.0229862)
(0.0786293 0 -0.0178083)
(0.0807851 2.09009e-19 -0.018717)
(0.060082 -1.88319e-19 -0.0139144)
(0.0770315 0 -0.0170479)
(0.0696229 0 -0.0144639)
(0.0997038 0 -0.0205396)
(0.101219 0 -0.020327)
(0.127081 0 -0.0266792)
(0.131423 0 -0.0276996)
(0.1319 0 -0.0296835)
(0.153463 0 -0.0337967)
(0.121738 -3.96304e-19 -0.0281118)
(0.186352 -3.10745e-19 -0.0396714)
(0.189369 -2.67323e-19 -0.0348466)
(0.105086 3.13355e-19 -0.0262491)
(0.745553 -2.15707e-19 -0.122644)
(-1.20017 -1.23388e-19 0.206249)
(3.39843 -3.40121e-19 -0.629858)
(-3.33197 0 0.697911)
(2.90514 0 -0.643664)
(1.09689 0 -0.0326096)
(-7.1658 0 1.1347)
(14.5036 -2.79977e-18 -2.47551)
(-28.3358 0 5.23989)
(31.3873 0 -6.27063)
(-18.0269 -4.20775e-17 4.46201)
(-8.9503 0 0.792944)
(42.8475 1.71232e-16 -7.00436)
(-72.5836 5.11657e-17 13.8057)
(49.2399 0 -10.3691)
(-36.1826 0 8.02011)
(17.4482 0 -3.54733)
(26.018 -9.78771e-18 -4.08797)
(-45.2268 0 7.74024)
(78.5891 -4.06464e-17 -14.1271)
(-129.246 -6.40683e-20 26.1542)
(24.2775 -1.22529e-16 -7.94182)
(111.896 3.79239e-16 -20.4059)
(-50.1255 0 11.1883)
(5.2362 -8.19661e-17 -1.62626)
(-10.4491 4.09283e-17 1.69446)
(23.8465 -1.45213e-17 -4.82551)
(6.81655 0 -0.494552)
(-30.6413 -4.81451e-18 6.02932)
(-4.31657 0 0.490607)
(0.288845 0 0.171064)
(0.356128 0 0.100251)
(0.394336 4.95972e-21 0.0341074)
(0.397781 0 0.00237172)
(0.391558 -4.41234e-21 -0.00324004)
(0.377529 8.44902e-21 0.00326104)
(0.355297 0 0.00277308)
(0.332782 -7.84908e-21 -0.0151183)
(0.321554 7.69265e-21 -0.0432387)
(0.325718 7.56457e-21 -0.0663998)
(0.338501 7.48834e-21 -0.0756071)
(0.347889 -7.48269e-21 -0.0725166)
(0.345427 7.50546e-21 -0.06486)
(0.330598 -1.50771e-20 -0.0595551)
(0.308467 0 -0.05869)
(0.283972 -1.49924e-20 -0.0600535)
(0.258144 0 -0.0604274)
(0.228736 0 -0.0583)
(0.193241 0 -0.0541292)
(0.150808 1.27328e-20 -0.0489739)
(0.101974 2.65731e-23 -0.043351)
(0.047552 4.0615e-23 -0.0371368)
(-0.011818 8.90545e-21 -0.0300718)
(-0.0753149 0 -0.0221528)
(-0.141476 0 -0.0136206)
(-0.208277 0 -0.00468977)
(-0.27371 2.99735e-21 0.00465569)
(-0.336345 3.20387e-22 0.0146259)
(-0.395369 0 0.0253926)
(-0.450153 0 0.0368956)
(-0.499676 0 0.0488054)
(-0.542315 0 0.0606639)
(-0.575995 -5.75541e-20 0.0720165)
(-0.598659 0 0.0825118)
(-0.608574 7.08998e-20 0.0918426)
(-0.604659 0 0.0997296)
(-0.586383 0 0.105806)
(-0.553975 7.39874e-20 0.109709)
(-0.508125 0 0.111031)
(-0.450411 0 0.109554)
(-0.382796 -5.70102e-20 0.105119)
(-0.308191 9.51299e-20 0.0978752)
(-0.229409 0 0.0879793)
(-0.150029 5.11375e-20 0.0759423)
(-0.0727583 0 0.0621455)
(-0.00102305 -1.18403e-20 0.0473782)
(0.0634188 -7.34242e-22 0.0320987)
(0.117814 0 0.0172348)
(0.162025 0 0.00308592)
(0.194289 -5.42872e-20 -0.00944216)
(0.216503 -1.20147e-19 -0.0203877)
(0.227689 2.48973e-19 -0.0289223)
(0.231804 0 -0.0355823)
(0.228014 1.13676e-19 -0.0396525)
(0.222043 1.01936e-19 -0.0422973)
(0.212045 8.81733e-20 -0.0428403)
(0.204919 7.35193e-20 -0.0430565)
(0.196166 0 -0.0419415)
(0.193219 0 -0.0416275)
(0.187652 6.71297e-20 -0.0403104)
(0.188294 8.99575e-20 -0.0404086)
(0.183008 2.58783e-20 -0.0390951)
(0.184354 8.6577e-22 -0.0393983)
(0.177038 9.31449e-22 -0.0375575)
(0.179333 7.667e-21 -0.0377674)
(0.171568 0 -0.0352983)
(0.177797 0 -0.0358133)
(0.171246 -1.13524e-20 -0.0332399)
(0.181837 -7.5157e-20 -0.0347841)
(0.173796 0 -0.0324741)
(0.184668 -9.37744e-20 -0.0351445)
(0.16925 -1.14881e-19 -0.0325001)
(0.175925 -1.27237e-19 -0.0354545)
(0.150349 -2.57338e-19 -0.0313499)
(0.154735 0 -0.0339418)
(0.124653 0 -0.0282179)
(0.135979 -1.96682e-19 -0.0311391)
(0.112322 3.54313e-19 -0.02524)
(0.139779 1.61102e-19 -0.0303128)
(0.12925 0 -0.0263097)
(0.170477 0 -0.0345637)
(0.169348 0 -0.0331926)
(0.204662 0 -0.0420261)
(0.209377 0 -0.0427641)
(0.213571 0 -0.0466458)
(0.245836 -1.12933e-19 -0.0524153)
(0.207094 2.97447e-23 -0.0461203)
(0.298451 2.92479e-19 -0.063098)
(0.296183 0 -0.0531446)
(0.191359 2.94544e-19 -0.0494274)
(1.01649 1.0176e-19 -0.152291)
(-1.53846 0 0.23607)
(4.5484 -3.22415e-19 -0.822416)
(-4.55057 8.66473e-19 0.951005)
(4.18048 0 -0.982674)
(1.13815 0 0.132375)
(-8.96591 0 1.25637)
(19.054 -2.65156e-18 -3.0416)
(-37.6024 0 6.81334)
(42.2315 0 -8.57716)
(-26.7842 -3.94327e-17 6.8002)
(-6.94852 -8.32834e-17 -0.449812)
(55.8143 0 -8.50271)
(-96.5605 0 18.4824)
(65.1143 0 -14.3016)
(-55.8425 0 12.5363)
(28.8923 0 -7.06024)
(31.6657 2.30946e-20 -4.38559)
(-52.5525 0 8.41017)
(104.521 3.80353e-17 -17.9798)
(-181.186 6.85634e-17 37.0605)
(42.365 0 -16.1301)
(143.7 1.74004e-19 -25.3712)
(-68.0657 0 15.9988)
(12.6655 9.29931e-20 -3.58233)
(-14.2025 0 2.22346)
(31.5884 1.35768e-17 -6.53583)
(5.79028 0 -0.321806)
(-40.1656 -4.54762e-18 7.97639)
(-3.69954 0 0.137173)
(0.276168 0 0.142882)
(0.317778 0 0.104493)
(0.351413 0 0.0568482)
(0.353531 0 0.0272452)
(0.346534 4.16496e-21 0.0220752)
(0.336367 -5.44106e-23 0.0322152)
(0.319451 0 0.0347047)
(0.298365 7.40846e-21 0.0128996)
(0.283354 0 -0.0259573)
(0.282652 -1.42936e-20 -0.0602705)
(0.294815 0 -0.0750992)
(0.309488 7.06423e-21 -0.0712328)
(0.315362 0 -0.0599273)
(0.307829 1.42352e-20 -0.0522768)
(0.290265 -7.14202e-21 -0.0521387)
(0.268877 1.4167e-20 -0.056264)
(0.246599 -1.39249e-20 -0.0594124)
(0.221653 -1.3489e-20 -0.0590206)
(0.190722 0 -0.0558654)
(0.152219 -1.20233e-20 -0.0517967)
(0.106701 -1.10157e-20 -0.0477346)
(0.055429 -1.96752e-20 -0.0434577)
(-0.000679126 -8.40911e-21 -0.0384543)
(-0.0608611 0 -0.0325891)
(-0.123836 0 -0.0260918)
(-0.187645 0 -0.0191367)
(-0.250211 -1.54618e-21 -0.0115464)
(-0.310065 3.19634e-21 -0.00288631)
(-0.3665 0 0.00716415)
(-0.419102 0 0.0185417)
(-0.467023 -1.774e-20 0.0307988)
(-0.508686 0 0.0433611)
(-0.541932 4.30066e-22 0.0557345)
(-0.564622 6.01024e-20 0.0676196)
(-0.574974 -6.54649e-20 0.0787788)
(-0.571938 0 0.0889688)
(-0.554978 0 0.0977635)
(-0.524315 -6.98309e-20 0.104681)
(-0.480525 0 0.109137)
(-0.425119 0 0.11076)
(-0.35989 5.37984e-20 0.109222)
(-0.28772 -8.9765e-20 0.104567)
(-0.21124 0 0.0968038)
(-0.13407 -4.82473e-20 0.0863964)
(-0.0587109 0 0.0736151)
(0.0112789 5.92608e-21 0.0592873)
(0.0744044 -1.29373e-20 0.0438072)
(0.127657 0 0.0282372)
(0.171266 -4.13551e-20 0.0128333)
(0.203055 5.11959e-20 -0.00126615)
(0.225438 2.25664e-19 -0.0141378)
(0.236771 -1.17092e-19 -0.0246204)
(0.241741 1.14138e-19 -0.0333412)
(0.238526 -2.61027e-22 -0.0391849)
(0.233923 0 -0.0435429)
(0.224721 -8.31068e-20 -0.0453035)
(0.219393 -6.92878e-20 -0.0466702)
(0.21154 5.60691e-20 -0.0461338)
(0.210808 -4.34399e-20 -0.0464787)
(0.206113 -6.32458e-20 -0.0452648)
(0.209345 -4.28476e-20 -0.0458034)
(0.20472 2.60348e-20 -0.0443899)
(0.209016 -1.06478e-20 -0.0451914)
(0.202045 0 -0.0432101)
(0.207789 0 -0.0440719)
(0.200029 7.6684e-21 -0.0413609)
(0.210334 0 -0.0425991)
(0.203311 0 -0.0395684)
(0.218647 3.50181e-20 -0.0419387)
(0.209481 0 -0.0390603)
(0.225854 8.82275e-20 -0.0429128)
(0.208531 2.1503e-19 -0.0398062)
(0.221609 0 -0.0445204)
(0.193313 1.20576e-19 -0.0401063)
(0.205284 0 -0.045)
(0.171784 0 -0.0388626)
(0.192089 1.84102e-19 -0.0443138)
(0.164496 -1.66483e-19 -0.0375429)
(0.202309 2.26617e-22 -0.0450886)
(0.187625 0 -0.039639)
(0.239989 0 -0.0503004)
(0.235149 0 -0.0472153)
(0.28022 9.38551e-20 -0.058501)
(0.284204 -5.48462e-20 -0.0581285)
(0.292901 0 -0.0642535)
(0.334517 2.11528e-19 -0.071092)
(0.289628 1.74654e-19 -0.0651226)
(0.406578 -5.49183e-19 -0.0878301)
(0.396308 -2.36037e-19 -0.0716286)
(0.280235 -5.52797e-19 -0.0797252)
(1.25667 0 -0.169374)
(-1.81286 0 0.234259)
(5.56488 3.02316e-19 -0.97434)
(-5.6819 -8.12333e-19 1.1959)
(5.46817 -7.58481e-19 -1.34543)
(0.987402 0 0.399751)
(-10.2094 0 1.18672)
(22.8664 2.48433e-18 -3.34251)
(-45.6168 -7.06898e-18 8.03713)
(51.8937 0 -10.6518)
(-36.0177 3.69298e-17 9.42776)
(-2.55218 7.79858e-17 -2.54469)
(66.6697 0 -9.24664)
(-117.227 0 22.5273)
(78.9036 0 -17.9924)
(-77.1227 0 17.5032)
(41.1393 0 -12.0073)
(34.5817 8.55038e-18 -3.80031)
(-53.7204 0 7.53805)
(128.688 0 -20.783)
(-231.229 0 47.6692)
(61.8923 1.07311e-16 -22.9428)
(167.419 -1.6607e-16 -28.3767)
(-82.1611 0 20.3746)
(22.4168 7.1575e-17 -6.19603)
(-18.5482 0 2.83949)
(38.3792 1.25966e-17 -8.08582)
(3.30384 0 1.42561)
(-47.986 4.24994e-18 9.55487)
(-2.23106 0 -0.750676)
(0.266862 -4.11458e-21 0.137759)
(0.291439 -4.07517e-21 0.110853)
(0.321682 4.02553e-21 0.0763639)
(0.324556 3.92763e-21 0.0513922)
(0.318437 0 0.045698)
(0.313359 -3.68574e-21 0.0548124)
(0.305013 0 0.0581427)
(0.289321 6.89616e-21 0.0363354)
(0.271154 6.81406e-21 -0.00815631)
(0.260068 1.34992e-20 -0.0522596)
(0.261521 -6.72676e-21 -0.0748746)
(0.27182 6.72846e-21 -0.0726719)
(0.280587 0 -0.0580808)
(0.278886 0 -0.046592)
(0.265604 6.73337e-21 -0.0455457)
(0.246241 3.10945e-23 -0.0518124)
(0.225882 -5.85454e-23 -0.0578901)
(0.204303 -5.67147e-23 -0.0593404)
(0.177691 0 -0.0568921)
(0.14321 0 -0.0533996)
(0.100952 0 -0.050498)
(0.052607 1.86661e-20 -0.0479522)
(-0.000382766 8.06153e-21 -0.0448977)
(-0.0572166 0 -0.040964)
(-0.116932 0 -0.0363604)
(-0.177798 6.05263e-21 -0.0312735)
(-0.237657 0 -0.0254035)
(-0.294815 0 -0.0180832)
(-0.348476 0 -0.00881493)
(-0.398379 0 0.00234388)
(-0.443925 4.10875e-22 0.0148059)
(-0.483691 0 0.0278485)
(-0.515487 4.47116e-22 0.0409234)
(-0.537081 -5.66555e-20 0.0537953)
(-0.546613 8.6473e-22 0.0663218)
(-0.543066 0 0.0783231)
(-0.525935 0 0.0893316)
(-0.49549 0 0.0987651)
(-0.452233 0 0.105875)
(-0.397651 0 0.110167)
(-0.333388 0 0.111165)
(-0.262333 0 0.108831)
(-0.186953 6.58101e-20 0.10304)
(-0.110951 4.60331e-20 0.0942132)
(-0.036615 0 0.0824965)
(0.0323232 6.68537e-21 0.068747)
(0.0946601 0 0.0532607)
(0.147091 0 0.0372214)
(0.190269 7.72806e-20 0.0208008)
(0.22155 0 0.00536621)
(0.243951 -1.05823e-19 -0.00923468)
(0.255109 0 -0.0214943)
(0.260556 -2.14341e-19 -0.0321663)
(0.257414 -3.96036e-22 -0.0397054)
(0.253704 0 -0.0457673)
(0.244728 0 -0.0487533)
(0.240727 0 -0.051332)
(0.233215 -1.05736e-19 -0.0514116)
(0.234293 8.20165e-20 -0.0524755)
(0.229964 6.08278e-20 -0.0513561)
(0.235484 4.16519e-20 -0.0523384)
(0.231084 -4.95663e-20 -0.0507465)
(0.238145 -1.11836e-20 -0.0520119)
(0.231127 0 -0.0497893)
(0.240204 0 -0.0512909)
(0.232033 -1.88149e-22 -0.0482576)
(0.246321 0 -0.0502497)
(0.238348 0 -0.046689)
(0.258368 3.16691e-20 -0.049928)
(0.247557 0 -0.046369)
(0.269444 0 -0.0514192)
(0.249683 -2.00037e-19 -0.0476738)
(0.269286 1.09593e-19 -0.0541464)
(0.237731 0 -0.0492157)
(0.257503 0 -0.056448)
(0.219977 0 -0.0497018)
(0.249516 -1.729e-19 -0.0577948)
(0.217226 0 -0.0499673)
(0.265635 -2.84918e-19 -0.0601565)
(0.245826 1.35328e-19 -0.0530248)
(0.309545 0 -0.0662638)
(0.299814 0 -0.0610593)
(0.355057 -8.80722e-20 -0.0749745)
(0.356994 -5.63997e-22 -0.0728998)
(0.371064 -9.22334e-21 -0.081639)
(0.420417 -9.89738e-20 -0.0888345)
(0.370324 1.63599e-19 -0.0836608)
(0.511408 2.5761e-19 -0.111787)
(0.4904 2.21307e-19 -0.0880995)
(0.371964 -1.49948e-22 -0.113361)
(1.46687 0 -0.173376)
(-2.02517 -9.81464e-20 0.206117)
(6.44452 0 -1.08407)
(-6.7087 0 1.41908)
(6.73108 7.10561e-19 -1.72912)
(0.674233 0 0.751464)
(-10.9408 0 0.938987)
(25.958 0 -3.37897)
(-52.3429 6.61877e-18 8.92307)
(60.2586 0 -12.4847)
(-45.4086 3.44883e-17 12.2132)
(3.61361 0 -5.33645)
(75.467 0 -9.14405)
(-134.092 0 25.7313)
(90.6097 0 -21.2933)
(-98.9686 0 22.6991)
(53.7281 -7.27433e-18 -15.2785)
(34.4117 7.97322e-18 -2.5161)
(-48.9874 -2.23173e-17 5.17299)
(151.885 0 -22.6201)
(-277.384 0 57.7056)
(79.2066 -2.0062e-16 -32.402)
(182.4 0 -29.2408)
(-90.5871 1.35101e-16 23.9107)
(33.9539 0 -9.25648)
(-23.5885 3.29762e-17 3.62774)
(44.3674 -1.17712e-17 -9.52902)
(-0.584143 0 4.02619)
(-54.243 4.02318e-18 10.7864)
(-0.0416617 0 -1.40971)
(0.258659 3.87486e-21 0.139895)
(0.27425 7.55482e-21 0.117535)
(0.303686 -3.79188e-21 0.09156)
(0.308688 -1.13923e-22 0.0706436)
(0.304595 3.47217e-21 0.0634387)
(0.304483 0 0.0691517)
(0.30558 0 0.0717297)
(0.299382 -6.49367e-21 0.052502)
(0.283641 -1.28137e-20 0.00906791)
(0.26474 1.12816e-23 -0.0399595)
(0.251873 6.33358e-21 -0.0705436)
(0.249492 -6.33517e-21 -0.0735386)
(0.253128 6.4084e-21 -0.0586257)
(0.252995 0 -0.0435251)
(0.242685 0 -0.0400331)
(0.224147 -6.32426e-21 -0.0472932)
(0.203398 2.4914e-20 -0.0563318)
(0.182759 2.41348e-20 -0.0600452)
(0.15905 0 -0.0582669)
(0.128123 0 -0.0548484)
(0.0888781 0 -0.0525892)
(0.0430418 7.96169e-23 -0.0515043)
(-0.00726541 -1.52656e-20 -0.0502981)
(-0.0609489 6.27817e-21 -0.0481734)
(-0.117409 9.41406e-21 -0.0452477)
(-0.175405 -1.16236e-20 -0.0417917)
(-0.232845 2.10749e-21 -0.0374785)
(-0.287692 -1.98796e-21 -0.0314264)
(-0.338813 -6.27796e-21 -0.0229103)
(-0.385964 0 -0.0119317)
(-0.428849 1.53594e-20 0.000779966)
(-0.466372 -1.9006e-20 0.0143113)
(-0.49642 2.31382e-20 0.0280152)
(-0.516659 5.15516e-20 0.0417081)
(-0.525077 1.13627e-19 0.0553585)
(-0.520654 0 0.068877)
(-0.502917 0 0.0817707)
(-0.472236 6.01653e-20 0.0933692)
(-0.429054 0 0.102767)
(-0.374851 -5.31328e-20 0.109368)
(-0.311099 -4.69958e-20 0.112566)
(-0.240703 0 0.112273)
(-0.165934 -1.23681e-19 0.108241)
(-0.0906017 -4.33201e-20 0.100871)
(-0.0167519 0 0.0901753)
(0.0516713 -6.29067e-21 0.0770493)
(0.113799 9.78254e-21 0.0616641)
(0.165965 0 0.0453255)
(0.209294 -7.15053e-20 0.0280801)
(0.240587 4.37299e-20 0.0115278)
(0.263539 9.75277e-20 -0.00460622)
(0.274948 0 -0.0184509)
(0.281316 7.22203e-22 -0.0309397)
(0.278544 -1.88056e-19 -0.0400624)
(0.276052 0 -0.0477981)
(0.267443 0 -0.0520006)
(0.264953 6.15862e-20 -0.0558665)
(0.257743 4.9796e-20 -0.0566268)
(0.260688 -7.74865e-20 -0.0585366)
(0.256533 -5.71796e-20 -0.0575779)
(0.264327 -3.91504e-20 -0.0591132)
(0.259867 2.35641e-20 -0.0573547)
(0.269681 2.14066e-20 -0.0591523)
(0.262288 0 -0.0566497)
(0.274724 0 -0.0588512)
(0.265769 -1.30472e-20 -0.0554442)
(0.284115 0 -0.0582831)
(0.274781 0 -0.05415)
(0.299643 -2.97441e-20 -0.0583896)
(0.286756 0 -0.0540939)
(0.314435 7.51408e-20 -0.0604786)
(0.291798 8.7727e-22 -0.0559804)
(0.318336 -1.02887e-19 -0.0643316)
(0.283057 0 -0.0587094)
(0.311126 0 -0.0684128)
(0.268988 0 -0.0608535)
(0.308258 -1.61551e-19 -0.0717806)
(0.270456 0 -0.0626828)
(0.329884 1.33745e-19 -0.0757798)
(0.303843 -2.54253e-19 -0.0666977)
(0.379273 0 -0.0828048)
(0.363291 0 -0.0750395)
(0.429238 0 -0.0918958)
(0.427617 -5.14803e-22 -0.0874411)
(0.448018 8.64664e-21 -0.0992639)
(0.503262 -9.17381e-20 -0.105949)
(0.448935 -1.53331e-19 -0.102148)
(0.612485 2.41569e-19 -0.135295)
(0.578084 0 -0.102707)
(0.46576 2.42976e-19 -0.151172)
(1.64781 0 -0.163774)
(-2.1794 9.19322e-20 0.147912)
(7.18977 0 -1.14924)
(-7.615 0 1.61025)
(7.93742 0 -2.12468)
(0.235104 4.71895e-19 1.18158)
(-11.2212 8.37454e-20 0.523726)
(28.3706 0 -3.15946)
(-57.7825 -6.23902e-18 9.46146)
(67.2788 -1.4663e-17 -14.0306)
(-54.6112 -3.227e-17 15.0516)
(10.8402 -6.36995e-17 -8.7231)
(82.221 0 -8.18337)
(-146.746 0 28.0767)
(100.288 0 -24.2066)
(-120.366 0 27.8972)
(65.0384 6.80224e-18 -20.0515)
(31.0343 -4.25674e-21 -0.513385)
(-39.0889 4.20007e-17 1.36968)
(174.721 0 -23.4876)
(-317.316 0 66.6877)
(92.5419 9.37406e-17 -41.5695)
(188.023 0 -27.8734)
(-92.1684 -1.26253e-16 26.2565)
(46.6076 0 -12.5779)
(-29.0409 -6.14737e-17 4.56019)
(49.6898 0 -10.88)
(-6.00271 0 5.81819)
(-59.1389 -3.75829e-18 11.6784)
(2.41753 0 -2.8491)
(0.251086 0 0.145979)
(0.261999 -3.49637e-21 0.125475)
(0.291056 0 0.10363)
(0.297833 -3.37357e-21 0.0849339)
(0.295817 -6.44273e-21 0.0757496)
(0.299086 0 0.077107)
(0.306507 3.0272e-21 0.0780792)
(0.308964 0 0.0624699)
(0.299664 2.24147e-23 0.0248166)
(0.279607 -1.19976e-20 -0.0228714)
(0.257068 0 -0.0585689)
(0.2411 0 -0.0688565)
(0.234621 -6.02744e-21 -0.0579401)
(0.231553 0 -0.041889)
(0.222667 0 -0.035673)
(0.204794 0 -0.0425586)
(0.182399 -1.17537e-20 -0.0541649)
(0.160171 -1.13862e-20 -0.0607614)
(0.137125 -1.09588e-20 -0.0601439)
(0.108742 0 -0.0566025)
(0.072286 0 -0.0544618)
(0.0287053 -8.36954e-21 -0.0544962)
(-0.019392 7.21826e-21 -0.055072)
(-0.0702681 -5.90479e-21 -0.0547315)
(-0.123461 -8.85413e-21 -0.0533112)
(-0.178432 1.1383e-20 -0.0512091)
(-0.233493 2.70268e-22 -0.0482325)
(-0.28634 1.86967e-21 -0.0433686)
(-0.335268 5.90432e-21 -0.0356128)
(-0.379772 0 -0.0248103)
(-0.4198 0 -0.0117899)
(-0.454746 1.78738e-20 0.00230337)
(-0.482776 0 0.0166489)
(-0.501513 -4.84785e-20 0.0310744)
(-0.508709 -5.29874e-20 0.0456661)
(-0.503261 5.49709e-20 0.060462)
(-0.484712 0 0.0749703)
(-0.453583 -5.65721e-20 0.0884463)
(-0.410292 -5.34246e-20 0.0998281)
(-0.356343 5.94647e-22 0.108431)
(-0.293 8.79097e-20 0.113534)
(-0.223186 0 0.115032)
(-0.148929 5.80472e-20 0.112562)
(-0.0741702 0 0.106534)
(-0.000656912 0 0.0968197)
(0.0674082 0 0.0843666)
(0.129559 -4.64053e-22 0.0691962)
(0.181689 0 0.0527466)
(0.225477 3.33129e-20 0.0348955)
(0.257048 -8.15902e-20 0.0174872)
(0.280899 -9.16481e-20 6.67046e-05)
(0.292833 0 -0.0151063)
(0.300488 9.37636e-20 -0.0292138)
(0.298337 1.75556e-19 -0.0397358)
(0.297421 0 -0.0490547)
(0.289353 0 -0.0544016)
(0.288675 -5.78511e-20 -0.0595912)
(0.281822 -4.68103e-20 -0.0610626)
(0.286865 3.64562e-20 -0.0639476)
(0.282824 5.42319e-20 -0.0632239)
(0.293097 0 -0.0654715)
(0.288443 0 -0.0636036)
(0.301242 2.54837e-22 -0.0660823)
(0.293289 1.25291e-21 -0.0633156)
(0.309367 0 -0.0663592)
(0.299385 6.0533e-21 -0.0625665)
(0.322134 0 -0.066415)
(0.311137 0 -0.0616888)
(0.34127 0 -0.0671274)
(0.325947 0 -0.0620529)
(0.359951 -7.16452e-22 -0.069982)
(0.334024 7.61188e-22 -0.0646266)
(0.368147 9.50048e-20 -0.0750504)
(0.328645 0 -0.0685487)
(0.365733 9.24417e-20 -0.0809082)
(0.31831 0 -0.0722764)
(0.368021 1.51486e-19 -0.0862521)
(0.323757 -1.37364e-19 -0.0755777)
(0.394831 1.25722e-19 -0.0918569)
(0.361278 1.1934e-19 -0.0804572)
(0.448981 0 -0.0997632)
(0.425206 -1.01735e-19 -0.0889357)
(0.502596 0 -0.109139)
(0.495721 4.61866e-20 -0.1016)
(0.523576 8.93107e-21 -0.117075)
(0.582684 8.59404e-20 -0.122328)
(0.525188 0 -0.12052)
(0.709481 -4.52435e-19 -0.158132)
(0.659084 0 -0.115604)
(0.561611 2.27797e-19 -0.191673)
(1.80101 0 -0.13927)
(-2.27956 8.428e-20 0.0565206)
(7.80701 0 -1.16656)
(-8.38539 -6.76324e-19 1.77853)
(9.06263 -6.32822e-19 -2.52383)
(-0.295234 -4.41611e-19 1.67866)
(-11.1188 -7.83458e-20 -0.0456)
(30.1627 0 -2.69401)
(-61.9615 1.1695e-17 9.65787)
(72.9685 2.74671e-17 -15.2741)
(-63.2619 0 17.8603)
(18.4034 5.95744e-17 -12.5679)
(86.9159 0 -6.37119)
(-155.032 0 29.5379)
(108.134 1.87325e-18 -26.7172)
(-140.164 0 32.8924)
(74.5421 0 -24.4351)
(24.598 -6.9645e-18 2.78456)
(-25.346 -3.98299e-17 -3.73226)
(197.367 3.00565e-17 -23.3284)
(-348.623 0 74.4011)
(100.564 0 -50.982)
(184.193 0 -24.3701)
(-87.072 0 27.3153)
(59.5381 -5.77021e-17 -15.8956)
(-34.1968 2.86439e-17 5.5334)
(54.6511 0 -12.186)
(-12.3511 0 8.7618)
(-63.1136 0 12.277)
(4.9514 0 -4.58982)
(0.243274 3.01016e-21 0.153003)
(0.251417 0 0.133414)
(0.279835 2.97022e-21 0.113384)
(0.287621 0 0.0958554)
(0.287169 2.9851e-21 0.0851396)
(0.291981 0 0.0825256)
(0.301502 -2.8452e-21 0.0812019)
(0.308252 5.58693e-21 0.0688973)
(0.304892 1.12464e-20 0.0385436)
(0.288691 -6.74955e-24 -0.00320057)
(0.263957 0 -0.0397974)
(0.239721 0 -0.0568639)
(0.223543 0 -0.0532013)
(0.214955 0 -0.0400769)
(0.205813 0 -0.0325331)
(0.188975 0 -0.0380218)
(0.165237 1.12428e-20 -0.0511169)
(0.139917 -1.08934e-20 -0.0608394)
(0.114993 1.0297e-20 -0.0622434)
(0.0872877 0 -0.0589172)
(0.0529375 0 -0.0565469)
(0.0113395 8.05781e-21 -0.0572397)
(-0.0351281 6.97957e-21 -0.0594399)
(-0.0839472 5.75313e-21 -0.0609188)
(-0.134271 0 -0.0609181)
(-0.186152 -5.45978e-21 -0.0598761)
(-0.238707 -4.52114e-21 -0.0579172)
(-0.289742 -1.14018e-21 -0.0540875)
(-0.336937 0 -0.0471087)
(-0.379174 0 -0.0365323)
(-0.416367 0 -0.0231722)
(-0.448448 -1.58599e-20 -0.00840935)
(-0.474112 0 0.006666)
(-0.491133 0 0.0218088)
(-0.496998 -4.77647e-20 0.037208)
(-0.490406 -5.164e-20 0.0530755)
(-0.470844 0 0.0689635)
(-0.43904 -5.14523e-20 0.0840743)