/*--------------------------------*- C++ -*----------------------------------*\
| =========                 |                                                 |
| \\      /  F ield         | OpenFOAM: The Open Source CFD Toolbox           |
|  \\    /   O peration     | Version:  2412                                  |
|   \\  /    A nd           | Website:  www.openfoam.com                      |
|    \\/     M anipulation  |                                                 |
\*---------------------------------------------------------------------------*/
FoamFile
{
    version     2.0;
    format      ascii;
    arch        "LSB;label=32;scalar=64";
    class       surfaceScalarField;
    location    "1.73";
    object      ddtCorrDdt0(phi);
}
// * * * * * * * * * * * * * * * * * * * * * * * * * * * * * * * * * * * * * //

dimensions      [0 3 -2 0 0 0 0];

oriented        oriented;

internalField   nonuniform List<scalar> 
24930
(
0.000391649
0.000758644
7.83141e-05
0.00020865
0.000219151
0.000170811
6.80334e-05
0.000159072
3.34558e-05
0.000153176
2.28923e-05
0.000144612
2.09799e-05
0.000134083
1.93287e-05
0.00012413
1.54891e-05
0.000120497
6.72913e-06
0.000121547
-5.05749e-07
0.00012329
-4.06205e-06
0.000122233
-4.25561e-06
0.000117109
-3.15628e-06
0.000108572
-2.78782e-06
9.77715e-05
-3.91129e-06
8.51796e-05
-6.01826e-06
7.0396e-05
-8.18461e-06
5.2676e-05
-9.89306e-06
3.14634e-05
-1.12035e-05
6.51512e-06
-1.24014e-05
-2.2236e-05
-1.36444e-05
-5.47519e-05
-1.48996e-05
-9.07653e-05
-1.60833e-05
-0.000129589
-1.71864e-05
-0.000170041
-1.82797e-05
-0.000210579
-1.94204e-05
-0.000249548
-2.05644e-05
-0.000285423
-2.15583e-05
-0.000316895
-2.2218e-05
-0.00034281
-2.24081e-05
-0.000362053
-2.20718e-05
-0.000373485
-2.11828e-05
-0.000375972
-1.97005e-05
-0.000368529
-1.75247e-05
-0.000350488
-1.45368e-05
-0.000321702
-1.06127e-05
-0.000282658
-5.72151e-06
-0.000234559
9.68773e-08
-0.000179268
6.65371e-06
-0.000119262
1.37371e-05
-5.73873e-05
2.0999e-05
3.28002e-06
2.81327e-05
5.98236e-05
3.4676e-05
0.000109577
4.03153e-05
0.000150508
4.45804e-05
0.0001811
4.73194e-05
0.000200697
4.81998e-05
0.00020915
4.73808e-05
0.000207248
4.47081e-05
0.00019613
4.07071e-05
0.000177852
3.53905e-05
0.000154482
2.96622e-05
0.000128862
2.35233e-05
0.000103236
1.80633e-05
8.03006e-05
1.28975e-05
6.1333e-05
9.01056e-06
4.78251e-05
5.29798e-06
3.9186e-05
2.69069e-06
3.53979e-05
-4.96035e-07
3.43351e-05
-2.87797e-06
3.56717e-05
-6.37379e-06
3.7249e-05
-8.62882e-06
4.00292e-05
-1.18555e-05
4.26636e-05
-1.28179e-05
4.7512e-05
-1.4739e-05
5.29181e-05
-1.37778e-05
6.11629e-05
-1.47828e-05
6.85604e-05
-1.30748e-05
7.65722e-05
-1.50886e-05
7.9481e-05
-1.43025e-05
7.94029e-05
-1.8353e-05
7.04574e-05
-1.78862e-05
5.79706e-05
-2.20102e-05
3.74189e-05
-1.8481e-05
1.83779e-05
-1.96883e-05
-3.38939e-06
-1.10294e-05
-1.57739e-05
-9.2588e-06
-2.6108e-05
3.22575e-06
-2.30348e-05
3.60744e-06
-2.04796e-05
1.21058e-05
-8.71463e-06
1.85151e-06
-7.24615e-06
3.66864e-06
-3.22118e-06
-1.02788e-05
-1.58227e-05
-4.16182e-06
-2.52983e-05
-1.42115e-05
-4.30326e-05
-3.33825e-06
-4.84263e-05
8.81261e-06
-2.88795e-05
3.68602e-05
-2.43118e-05
0.000101361
8.71253e-05
-1.2487e-05
-3.01029e-05
0.00015476
0.000267303
-0.000158727
0.000301021
-5.64203e-05
-0.000386797
0.000994626
0.000979544
-0.00796943
-0.00145893
0.00239083
0.001125
-0.0026339
-0.00160412
0.00257477
-0.000701192
-0.000982307
0.0051277
-0.00443591
-0.00949557
0.0455533
0.0254261
-0.0212033
-0.00593457
0.0176779
-0.00208013
-0.00206544
0.0166976
-0.0221316
-0.00710154
0.0256319
0.00875997
-0.00766358
-0.00571919
0.0145519
0.00361693
-0.00917682
-0.0027378
0.0082904
-0.0438883
0.0397791
0.0330426
-0.0773259
0.0267268
0.00638821
-0.0184674
0.0437651
-0.0124576
-0.0120765
0.00385844
-0.00923192
0.0145156
-0.0104466
-0.00656317
0.0193859
-0.0155847
0.00854156
-0.0110178
0.000492285
0.000529803
-0.000223342
0.000479025
0.000303597
0.000458092
0.000136772
0.000444512
8.51957e-05
0.000427955
6.88609e-05
0.000402932
6.68206e-05
0.000372244
6.3293e-05
0.000350396
4.52402e-05
0.000341825
1.81036e-05
0.000342825
-3.94458e-06
0.000344069
-1.32445e-05
0.000338
-1.1864e-05
0.000322614
-7.505e-06
0.000300332
-6.8601e-06
0.000274364
-1.16684e-05
0.000245867
-1.93523e-05
0.000213671
-2.64961e-05
0.00017582
-3.16671e-05
0.000131014
-3.55818e-05
7.89219e-05
-3.95121e-05
1.97404e-05
-4.39813e-05
-4.61226e-05
-4.86779e-05
-0.00011792
-5.30868e-05
-0.000194257
-5.69834e-05
-0.000273016
-6.04278e-05
-0.000351665
-6.34307e-05
-0.00042775
-6.56976e-05
-0.000499238
-6.66911e-05
-0.000564484
-6.59488e-05
-0.00062194
-6.33201e-05
-0.000669826
-5.89561e-05
-0.000706046
-5.30453e-05
-0.000728329
-4.56131e-05
-0.000734578
-3.64199e-05
-0.000723194
-2.51571e-05
-0.000693391
-1.15772e-05
-0.000645314
4.20808e-06
-0.000580144
2.18164e-05
-0.000500012
4.04824e-05
-0.000408018
5.94739e-05
-0.000307955
7.78486e-05
-0.000204196
9.49184e-05
-0.000101173
0.000109707
-3.29354e-06
0.000121702
8.56716e-05
0.000129995
0.000162414
0.000134489
0.000224716
0.000134545
0.000270975
0.000130712
0.000301012
0.000122595
0.000315206
0.000111481
0.000315507
9.72122e-05
0.000304039
8.19263e-05
0.000284453
6.53714e-05
0.000259773
5.0262e-05
0.00023422
3.5563e-05
0.000210171
2.40907e-05
0.00019081
1.3325e-05
0.000176168
6.26618e-06
0.000167316
-1.14761e-06
0.000161661
-5.13453e-06
0.000159272
-1.11661e-05
0.000156732
-1.3718e-05
0.000155495
-1.96167e-05
0.000152985
-2.094e-05
0.000152952
-2.65304e-05
0.000152681
-2.56487e-05
0.000156578
-3.0358e-05
0.000159343
-2.69174e-05
0.000164734
-3.18459e-05
0.000164174
-2.73569e-05
0.000162164
-3.48603e-05
0.00014874
-3.05893e-05
0.000132569
-4.14587e-05
0.000104565
-3.59611e-05
7.9867e-05
-4.86468e-05
4.93952e-05
-3.88087e-05
3.3439e-05
-5.12642e-05
1.85809e-05
-3.44478e-05
2.62215e-05
-4.66689e-05
3.29198e-05
-2.44625e-05
5.95988e-05
-4.20219e-05
7.1122e-05
-1.57506e-05
9.47495e-05
-3.84323e-05
8.94975e-05
-5.03644e-06
9.76992e-05
-3.21946e-05
8.26056e-05
-1.01214e-06
9.30263e-05
-1.68618e-05
0.000135648
-2.4458e-05
0.000102473
0.000127049
0.000397096
-0.000285317
-0.00013982
0.000759566
0.0010057
-0.00138844
0.000556999
0.000463826
-0.000836888
0.00392224
0.0028395
-0.00506753
-0.00421509
0.00948156
0.00398044
-0.0109035
-0.00647821
0.0131337
-0.000504483
-0.00694955
0.0132958
-0.0184201
-0.0243299
0.0556471
-0.669057
-0.0593713
-0.0193502
0.0528916
-0.0582267
0.00504238
0.034585
-0.0809918
-0.0196724
0.0792452
0.0316761
-0.0623276
-0.0171114
0.0656287
0.0209562
-0.049581
-0.025989
0.0576744
-0.117421
0.1283
0.11538
-0.300711
0.0710673
0.0506823
-0.0509342
0.166634
-0.00766796
-0.0563705
0.0128186
-0.0292234
0.0385064
-0.0364046
-0.0230747
0.081169
-0.0436064
0.0288549
-0.0422863
0.000479837
0.000410678
-0.000311429
0.000549934
0.000294922
0.000556571
0.000171683
0.000556683
0.000119401
0.000546911
0.000106119
0.000519816
0.000114017
0.000485177
0.000111624
0.000459405
7.93855e-05
0.000451792
2.93253e-05
0.000458014
-1.141e-05
0.00046479
-2.65054e-05
0.000460651
-1.9794e-05
0.000442331
-7.20688e-06
0.000413753
-2.83348e-06
0.000380502
-1.02609e-05
0.000345019
-2.37732e-05
0.000305857
-3.59261e-05
0.00026013
-4.37524e-05
0.000206001
-4.90391e-05
0.000143225
-5.46992e-05
7.23449e-05
-6.18865e-05
-5.99471e-06
-6.98952e-05
-9.09373e-05
-7.76133e-05
-0.000180943
-8.45779e-05
-0.000273635
-9.0881e-05
-0.000366228
-9.64141e-05
-0.000456195
-0.000100386
-0.000541672
-0.000101584
-0.000621286
-9.91159e-05
-0.00069364
-9.28969e-05
-0.000756831
-8.35145e-05
-0.000808373
-7.15899e-05
-0.00084547
-5.73132e-05
-0.00086549
-4.02903e-05
-0.000866359
-1.99809e-05
-0.000846867
3.97099e-06
-0.000806738
3.11983e-05
-0.000746719
6.07993e-05
-0.000668516
9.1243e-05
-0.000574888
0.000121147
-0.000469423
0.000148904
-0.000356482
0.000173456
-0.000240674
0.000193362
-0.000126782
0.000208031
-1.91119e-05
0.000216257
7.83301e-05
0.000218213
0.000162558
0.000213143
0.000231132
0.000202237
0.000283106
0.000185029
0.000318112
0.000163836
0.000337518
0.000138486
0.000342917
0.000112624
0.000337683
8.57812e-05
0.000324627
6.24277e-05
0.000308089
4.05974e-05
0.000290582
2.47851e-05
0.00027574
1.04214e-05
0.00026384
2.33148e-06
0.000256421
-6.61899e-06
0.000250961
-1.02003e-05
0.000247894
-1.78555e-05
0.000243692
-2.02426e-05
0.000240258
-2.89696e-05
0.000234916
-3.04041e-05
0.000232131
-3.94791e-05
0.000229011
-3.76136e-05
0.000230827
-4.54525e-05
0.000231784
-3.9444e-05
0.000236594
-4.83586e-05
0.000235719
-4.17374e-05
0.000234745
-5.69292e-05
0.000222214
-5.26317e-05
0.000208301
-7.564e-05
0.00018202
-7.04009e-05
0.000160921
-9.68901e-05
0.000133433
-8.25452e-05
0.000123462
-0.000106503
0.000113993
-7.69299e-05
0.000131412
-9.81437e-05
0.000146421
-5.53482e-05
0.000186946
-8.48307e-05
0.000207404
-3.37411e-05
0.000247166
-8.0484e-05
0.000247982
-1.90988e-05
0.000274989
-8.36153e-05
0.000265948
-2.13353e-05
0.000293702
-6.73637e-05
0.000370301
-0.000103452
0.000304722
0.000226746
0.000802891
-0.00069881
-0.00022519
0.0018944
0.00190045
-0.0034235
0.000737635
0.00170177
-0.00111361
0.00398617
0.00479665
-0.0109271
-0.00691462
0.021208
0.00727295
-0.0251827
-0.0120176
0.0324253
0.000207059
-0.0190703
0.0202783
-0.0380853
-0.0380594
0.113424
0.0343963
-0.130073
-0.0345512
0.121262
-0.0336265
0.00638156
0.0443254
-0.160307
-0.0337744
0.157757
0.0595118
-0.157145
-0.0252413
0.152708
0.0444476
-0.12156
-0.0596358
0.164479
-0.191169
0.257349
0.208501
-0.710315
0.110209
0.148951
-0.0815046
0.358537
-0.007072
-0.131134
0.0221929
-0.0581563
0.0598194
-0.0744605
-0.0431738
0.185439
-0.069935
0.0554751
-0.0972393
0.000456114
0.000333584
-0.000333023
0.000535722
0.00027504
0.000551244
0.000195074
0.000554521
0.000149164
0.000545869
0.000141195
0.000522986
0.000156614
0.000490688
0.000157295
0.000464025
0.000114135
0.000457287
3.97415e-05
0.000469794
-2.47583e-05
0.000487244
-4.98793e-05
0.000493681
-3.77246e-05
0.000481984
-1.29811e-05
0.000455567
-3.88964e-07
0.000422243
-8.10233e-06
0.00038677
-2.73947e-05
0.000348227
-4.50573e-05
0.000302822
-5.51747e-05
0.00024784
-6.06231e-05
0.000182966
-6.67536e-05
0.000109174
-7.58662e-05
2.74572e-05
-8.68e-05
-6.12683e-05
-9.75844e-05
-0.000155495
-0.000107431
-0.000252764
-0.000116566
-0.000350108
-0.000124824
-0.000444921
-0.000130786
-0.00053548
-0.000132304
-0.000620705
-0.000127891
-0.000699413
-0.000117584
-0.000769679
-0.000102632
-0.000828745
-8.43142e-05
-0.000873429
-6.30698e-05
-0.000900748
-3.82939e-05
-0.000908357
-9.11247e-06
-0.000894832
2.50001e-05
-0.000859681
6.34043e-05
-0.00080341
0.000104625
-0.000727478
0.000146314
-0.00063445
0.000186443
-0.000527807
0.000222775
-0.000411917
0.000253952
-0.000291485
0.000278117
-0.000171493
0.000294665
-5.64928e-05
0.000302111
4.91846e-05
0.000300951
0.000142233
0.000290292
0.000219855
0.000271994
0.00028083
0.000245447
0.000324494
0.000214044
0.000352036
0.00017752
0.00036483
0.000141111
0.000366201
0.000103999
0.000358852
7.2502e-05
0.000347263
4.34944e-05
0.00033397
2.32853e-05
0.00032289
5.01763e-06
0.000314281
-4.31228e-06
0.000309924
-1.51131e-05
0.000307097
-1.82018e-05
0.000306451
-2.73804e-05
0.00030417
-2.90039e-05
0.000302571
-4.02639e-05
0.000298744
-4.13023e-05
0.000297853
-5.42263e-05
0.000296617
-5.15989e-05
0.000301118
-6.38442e-05
0.000304763
-5.58634e-05
0.000313189
-7.02384e-05
0.000315572
-6.1434e-05
0.000318709
-8.51335e-05
0.000309393
-7.95393e-05
0.000299668
-0.000115099
0.000276448
-0.000108529
0.000260207
-0.000150558
0.000236577
-0.00013129
0.000233639
-0.000171185
0.000230232
-0.000129657
0.000258304
-0.000166562
0.000281885
-0.000102857
0.000336635
-0.000150675
0.000365583
-6.76035e-05
0.000421514
-0.00014264
0.000427743
-3.82165e-05
0.000474449
-0.000151103
0.000471418
-4.24581e-05
0.00052366
-0.000137006
0.000635441
-0.000214341
0.000538229
0.000352237
0.00124047
-0.001342
-0.000269616
0.0034847
0.00288475
-0.00649057
0.000849553
0.00380295
-0.00125798
0.0061876
0.00680626
-0.0189763
-0.00953784
0.0375822
0.0109098
-0.0457229
-0.0179008
0.0612406
0.00134953
-0.0381931
0.0256798
-0.0618176
-0.0506788
0.188552
0.0569469
-0.235276
-0.0511014
0.228093
-0.0719959
0.0291848
0.0477474
-0.280991
-0.0506108
0.256524
0.0901835
-0.300658
-0.0291882
0.274677
0.0772604
-0.230548
-0.102401
0.347134
-0.265164
0.417255
0.308954
-1.27867
0.144698
0.313112
-0.107386
0.610793
-0.00155173
-0.237269
0.0307037
-0.0900302
0.0785037
-0.122684
-0.0669719
0.330875
-0.0940165
0.0823727
-0.17789
0.000441557
0.000297745
-0.000359288
0.000511744
0.000265757
0.000526824
0.000217297
0.000527757
0.000180189
0.000520914
0.000173947
0.000502873
0.000194005
0.00047427
0.000199225
0.000445165
0.000151576
0.000430848
5.80085e-05
0.000439038
-3.35145e-05
0.000460729
-7.72453e-05
0.000477929
-6.62946e-05
0.000477298
-2.99059e-05
0.000457811
-5.17177e-06
0.000427581
-9.49324e-06
0.000394365
-3.38431e-05
0.000359098
-5.81577e-05
0.000317369
-7.1123e-05
0.000264963
-7.58096e-05
0.000200973
-8.08848e-05
0.000126844
-9.08555e-05
4.42294e-05
-0.000104313
-4.57282e-05
-0.000118015
-0.000141642
-0.000130509
-0.000241105
-0.000142211
-0.000340943
-0.000153131
-0.000438267
-0.000161266
-0.000531271
-0.000163315
-0.000619049
-0.000156927
-0.000700656
-0.000142191
-0.000774211
-0.000121204
-0.000836737
-9.61553e-05
-0.000884686
-6.78645e-05
-0.000914746
-3.54551e-05
-0.000924373
2.42625e-06
-0.000912051
4.65897e-05
-0.000877222
9.61438e-05
-0.000820321
0.000149011
-0.000742727
0.000201985
-0.000646979
0.000252401
-0.000536603
0.000297409
-0.000416114
0.000335392
-0.000290409
0.00036407
-0.000164721
0.000382828
-4.38448e-05
0.000389841
6.76169e-05
0.000385917
0.000166154
0.000369927
0.000248758
0.0003444
0.000314128
0.000308463
0.000361499
0.000266645
0.000392118
0.000218496
0.000407333
0.000171004
0.000410649
0.000122892
0.000404819
8.2543e-05
0.000394638
4.548e-05
0.000382727
2.0106e-05
0.000373374
-2.98507e-06
0.000366765
-1.41932e-05
0.000364927
-2.75507e-05
0.000364788
-3.03708e-05
0.000367193
-4.14072e-05
0.000367835
-4.20817e-05
0.000369446
-5.61099e-05
0.000368643
-5.65437e-05
0.000371337
-7.38809e-05
0.000373585
-7.04061e-05
0.000382404
-8.79044e-05
0.000390093
-7.76812e-05
0.000403447
-9.84192e-05
0.000409988
-8.67436e-05
0.000418096
-0.00011996
0.000412368
-0.000112044
0.000407283
-0.000161718
0.000387092
-0.000152827
0.000375968
-0.000213107
0.000355985
-0.000187925
0.000360426
-0.000247649
0.000362908
-0.000192404
0.000402268
-0.000249789
0.000434324
-0.000161599
0.000504214
-0.000233621
0.00054151
-0.000110981
0.000614936
-0.000222751
0.000626532
-6.3056e-05
0.000695106
-0.000241441
0.000698381
-7.15562e-05
0.000777817
-0.000234968
0.000920129
-0.000354452
0.000804297
0.000499851
0.00170888
-0.00218548
-0.000286334
0.0055593
0.00393885
-0.0106207
0.000885179
0.00692339
-0.00126954
0.0083985
0.00883425
-0.0290606
-0.0120432
0.0584894
0.0148447
-0.0727081
-0.0239762
0.100063
0.00287834
-0.0649308
0.0293106
-0.0875282
-0.0621009
0.279275
0.0828775
-0.377685
-0.0682977
0.377996
-0.080204
0.0428826
0.045247
-0.407293
-0.0710161
0.373292
0.122175
-0.494589
-0.0280497
0.427803
0.122729
-0.38407
-0.151359
0.624468
-0.341806
0.604632
0.410908
-2.03404
0.175057
0.548848
-0.124418
0.910395
0.00829858
-0.370259
0.0372029
-0.118512
0.0940829
-0.179987
-0.093674
0.519902
-0.115444
0.103946
-0.286475
0.000441833
0.000288856
-0.000386984
0.000502994
0.000266071
0.000518568
0.000237105
0.00052061
0.000208814
0.00051792
0.000201808
0.000509788
0.000221352
0.000490516
0.000232242
0.000462299
0.000188777
0.000436416
8.82863e-05
0.000426939
-2.44495e-05
0.000436962
-9.29302e-05
0.000453959
-9.47613e-05
0.000460572
-5.43822e-05
0.000447998
-1.74771e-05
0.000420496
-1.45456e-05
0.00038778
-4.20259e-05
0.000354145
-7.44245e-05
0.000315741
-9.22529e-05
0.00026647
-9.63271e-05
0.000203875
-9.89266e-05
0.00012951
-0.00010841
4.59841e-05
-0.000123983
-4.50087e-05
-0.000140745
-0.000142257
-0.000155862
-0.000243684
-0.000169764
-0.000346035
-0.000183016
-0.000445944
-0.000193385
-0.000541195
-0.000196323
-0.000630871
-0.000188205
-0.000714312
-0.000168873
-0.00078986
-0.000141338
-0.000854442
-0.000109019
-0.000904141
-7.3389e-05
-0.000935248
-3.33266e-05
-0.000944982
1.31549e-05
-0.000931762
6.73167e-05
-0.000895034
0.000128064
-0.000835229
0.000192681
-0.000753694
0.000257034
-0.00065298
0.000317814
-0.000536692
0.000371576
-0.000409526
0.000416501
-0.000276612
0.000449883
-0.000143479
0.000471127
-1.51897e-05
0.000478008
0.000103354
0.000471658
0.000208428
0.00045062
0.000296799
0.000418114
0.000367095
0.000372877
0.000418452
0.000320647
0.000452205
0.000260668
0.000469696
0.000201858
0.000474672
0.00014232
0.000469956
9.27514e-05
0.000460737
4.7054e-05
0.000449727
1.60513e-05
0.000441663
-1.25878e-05
0.000436633
-2.61565e-05
0.000436992
-4.27991e-05
0.00043925
-4.56358e-05
0.000444535
-5.91085e-05
0.000447947
-5.88314e-05
0.000452748
-7.61501e-05
0.000454925
-7.58351e-05
0.000461288
-9.8291e-05
0.000467013
-9.37491e-05
0.000480286
-0.000117448
0.000492013
-0.000104602
0.000510482
-0.000132953
0.000521186
-0.00011781
0.000534544
-0.000162184
0.000532441
-0.00015102
0.000532417
-0.000216986
0.00051535
-0.000204484
0.000509938
-0.000286023
0.000493742
-0.000253088
0.000506334
-0.0003367
0.00051484
-0.00026496
0.000566423
-0.000348203
0.000606986
-0.00023106
0.000693064
-0.000334477
0.000738577
-0.000164028
0.000830851
-0.000323063
0.000847721
-9.44918e-05
0.000940238
-0.000356996
0.000949772
-0.000107773
0.00105922
-0.000362457
0.00123357
-0.000523888
0.001089
0.000680684
0.0022173
-0.0032496
-0.000274201
0.00813265
0.00506924
-0.0158606
0.000845677
0.0112157
-0.00113784
0.0104488
0.0108466
-0.0410262
-0.0143864
0.0837527
0.0190433
-0.106243
-0.0301282
0.149234
0.00474765
-0.0996925
0.0310271
-0.113001
-0.0723744
0.382188
0.112121
-0.55957
-0.0851476
0.574034
-0.0930168
0.0525124
0.0372907
-0.538402
-0.0944939
0.505612
0.15355
-0.743607
-0.0217963
0.606157
0.18417
-0.593004
-0.201875
1.01403
-0.422418
0.821832
0.505235
-2.96289
0.202097
0.851861
-0.127569
1.24018
0.0220276
-0.520132
0.0411811
-0.137223
0.10655
-0.245801
-0.12388
0.750276
-0.13413
0.113964
-0.423392
0.00045327
0.000292052
-0.000412196
0.000509616
0.000271106
0.000527148
0.000253051
0.000533485
0.000231903
0.00053674
0.00022302
0.000539814
0.000237432
0.000535893
0.000250448
0.00051615
0.000218088
0.000484875
0.00012425
0.000455148
4.76918e-06
0.000441378
-8.50957e-05
0.000443572
-0.000108744
0.000447741
-7.6847e-05
0.000438596
-3.39232e-05
0.000412474
-2.209e-05
0.000377504
-4.94906e-05
0.000341691
-9.04542e-05
0.000303886
-0.000116323
0.000256858
-0.000121833
0.000195626
-0.000121466
0.000120818
-0.000129011
3.592e-05
-0.0001461
-5.63552e-05
-0.000166337
-0.0001548
-0.000184495
-0.000258012
-0.000200325
-0.000363037
-0.000215275
-0.000466012
-0.000227633
-0.00056393
-0.00023186
-0.000655502
-0.000222615
-0.000740326
-0.000198862
-0.000817215
-0.00016432
-0.000883258
-0.000123961
-0.000934229
-8.0393e-05
-0.000965912
-3.24651e-05
-0.000975156
2.25669e-05
-0.000960287
8.66683e-05
-0.000920807
0.000158663
-0.000857205
0.000235163
-0.000770818
0.000310994
-0.000664197
0.000382166
-0.000540993
0.000444639
-0.000406077
0.000496473
-0.000264802
0.000534555
-0.000123007
0.000558366
1.39749e-05
0.00056523
0.000140921
0.000556648
0.000253886
0.000530739
0.000349369
0.000491478
0.000425911
0.000437058
0.000482506
0.00037453
0.000520579
0.000302663
0.000541425
0.00023251
0.000549047
0.000161329
0.000546298
0.000102422
0.000538797
4.7718e-05
0.000529295
1.08574e-05
0.000523042
-2.39118e-05
0.000519969
-4.01627e-05
0.000522854
-6.07911e-05
0.000527714
-6.38628e-05
0.000536094
-8.04414e-05
0.000542394
-7.92022e-05
0.000550585
-0.000100491
0.000555854
-9.9247e-05
0.000566146
-0.00012769
0.000575509
-0.000121756
0.00059361
-0.000152802
0.000609615
-0.000136824
0.000633728
-0.000174363
0.000648926
-0.000155041
0.000668234
-0.000212698
0.000670159
-0.000197192
0.000676071
-0.000282206
0.000662562
-0.000264418
0.000663877
-0.00037078
0.00065184
-0.0003275
0.000673675
-0.000439608
0.000688402
-0.0003475
0.000753319
-0.000462699
0.000802279
-0.00031077
0.000905654
-0.000453957
0.000958978
-0.000226111
0.00107149
-0.000445037
0.00109321
-0.000132476
0.00121173
-0.000500341
0.00122707
-0.000151164
0.00136933
-0.000522741
0.00157405
-0.000721227
0.00141971
0.000876259
0.00273434
-0.00449411
-0.00027384
0.0112276
0.00630401
-0.0223315
0.000732631
0.0168583
-0.000847997
0.012097
0.0128128
-0.0546689
-0.0165329
0.113129
0.0234722
-0.146363
-0.0362218
0.208925
0.0069439
-0.142745
0.0308363
-0.136016
-0.081686
0.49439
0.143736
-0.782324
-0.100592
0.817146
-0.104446
0.0581671
0.0246547
-0.668305
-0.12222
0.653054
0.180853
-1.04685
-0.0110064
0.801099
0.264249
-0.871473
-0.247612
1.52972
-0.5081
1.07871
0.583087
-4.05402
0.225804
1.20898
-0.112392
1.57848
0.0393109
-0.672122
0.0430587
-0.140502
0.115345
-0.318559
-0.158288
1.0248
-0.150586
0.105993
-0.589971
0.000470631
0.000299556
-0.000436137
0.000524471
0.000278216
0.000543438
0.000265665
0.000554404
0.000249071
0.000563214
0.000237946
0.000574624
0.00024499
0.00058379
0.000255745
0.000577553
0.000234083
0.000549113
0.000157243
0.000508134
4.48866e-05
0.000471072
-5.44458e-05
0.000450639
-0.00010059
0.000442881
-8.79413e-05
0.000432127
-4.9555e-05
0.000406451
-3.12914e-05
0.00036798
-5.51612e-05
0.000326299
-0.000102797
0.000284824
-0.000139338
0.000237571
-0.00015014
0.000177146
-0.000148239
0.00010184
-0.000152914
1.51417e-05
-0.00017057
-7.89055e-05
-0.000194664
-0.00017852
-0.000216826
-0.00028306
-0.000234784
-0.000390481
-0.000250668
-0.000496785
-0.000264273
-0.000597906
-0.000269939
-0.000691634
-0.000260446
-0.000777523
-0.000232992
-0.000855037
-0.000191322
-0.000921825
-0.000142066
-0.000973586
-8.96254e-05
-0.00100552
-3.33469e-05
-0.00101391
3.02576e-05
-0.000996879
0.000104204
-0.000954039
0.000187502
-0.00088604
0.00027611
-0.000794261
0.000363645
-0.000681241
0.000445332
-0.00055064
0.000516503
-0.000407462
0.000575179
-0.000257256
0.000617868
-0.000106164
0.000644212
4.02215e-05
0.000651031
0.000176355
0.00064026
0.000298071
0.000609507
0.000401573
0.000563598
0.000485306
0.000500021
0.000548091
0.000427269
0.000591452
0.00034342
0.000616602
0.000261921
0.000627825
0.000178893
0.000627951
0.000110609
0.000623056
4.65851e-05
0.000615861
3.7716e-06
0.000612188
-3.76363e-05
0.000611738
-5.67461e-05
0.000617809
-8.20309e-05
0.000625827
-8.54424e-05
0.000637907
-0.000105854
0.000647604
-0.000103578
0.000659801
-0.000129667
0.000668676
-0.000127258
0.000683585
-0.000162771
0.000697145
-0.000155014
0.000720882
-0.000194811
0.000741794
-0.000175002
0.00077251
-0.00022363
0.000792886
-0.000199155
0.000819252
-0.000272686
0.00082591
-0.000251409
0.000839003
-0.000358863
0.0008297
-0.000333612
0.000839059
-0.000469096
0.000831653
-0.000412049
0.000864042
-0.000558048
0.000885139
-0.000440423
0.000964628
-0.000594598
0.0010217
-0.000400346
0.00114357
-0.00059302
0.00120408
-0.000296308
0.00133833
-0.000589964
0.00136426
-0.000176314
0.00151096
-0.000673808
0.0015313
-0.000201274
0.00170934
-0.000719219
0.001942
-0.00094449
0.00178286
0.00108152
0.00324774
-0.00588245
-0.000315463
0.0148843
0.00777644
-0.0303178
0.000543429
0.0241668
-0.000369268
0.0130861
0.0147023
-0.0697223
-0.0184606
0.146323
0.0281006
-0.193047
-0.0421213
0.279143
0.00951122
-0.194264
0.0289476
-0.15451
-0.0903158
0.613402
0.176391
-1.04628
-0.113816
1.10611
-0.11244
0.0586526
0.00889231
-0.79046
-0.153661
0.816196
0.201407
-1.40196
0.00264412
1.0048
0.363933
-1.23625
-0.281249
2.17905
-0.603483
1.39708
0.636493
-5.29393
0.244467
1.60104
-0.0772722
1.90034
0.0598811
-0.8096
0.0448733
-0.124973
0.121059
-0.395251
-0.19757
1.34383
-0.16592
0.0740346
-0.786768
0.000489584
0.000308154
-0.000458812
0.000541716
0.00028604
0.000561122
0.000275728
0.000575671
0.000261189
0.000588413
0.000248025
0.000603547
0.000248278
0.000619042
0.000254321
0.000622873
0.00023959
0.000602759
0.000181412
0.000561151
8.50806e-05
0.000511232
-1.15061e-05
0.000470884
-7.31179e-05
0.000447055
-8.36764e-05
0.000430043
-5.99e-05
0.000403859
-4.13687e-05
0.000362572
-5.99098e-05
0.00031332
-0.000109965
0.000263742
-0.000157085
0.000212002
-0.000177187
0.000150315
-0.000177346
7.39725e-05
-0.000179738
-1.51459e-05
-0.000196929
-0.000112086
-0.000224761
-0.000213696
-0.000252191
-0.000319532
-0.000273347
-0.000428913
-0.000289833
-0.00053853
-0.000303559
-0.000643483
-0.000310207
-0.000740087
-0.000301277
-0.000827183
-0.000271429
-0.000904729
-0.000223232
-0.00097135
-0.000164511
-0.00102315
-0.000102059
-0.00105486
-3.66168e-05
-0.00106198
3.56923e-05
-0.00104222
0.000119286
-0.000995281
0.000213835
-0.000922127
0.000314811
-0.00082429
0.000414423
-0.000704331
0.00050692
-0.000565873
0.000586897
-0.000414007
0.00065241
-0.000254435
0.000699612
-9.35805e-05
0.000728416
6.27289e-05
0.000735084
0.000208626
0.000722072
0.00033974
0.000686382
0.000451949
0.000633841
0.000543605
0.000561044
0.00061332
0.000478093
0.000662749
0.000382109
0.000692998
0.000289238
0.000708671
0.000194111
0.000712522
0.000116431
0.000711116
4.27701e-05
0.000707057
-6.00093e-06
0.000706813
-5.45373e-05
0.000709751
-7.65675e-05
0.00071982
-0.000107195
0.000731723
-0.000110954
0.000748322
-0.000136023
0.000762143
-0.000132562
0.000779215
-0.000164459
0.000792438
-0.000160564
0.000812916
-0.000204481
0.000831461
-0.000194338
0.000861925
-0.000244609
0.000888599
-0.000220042
0.000927169
-0.000282058
0.000953622
-0.000251115
0.000988457
-0.000343647
0.00100075
-0.000314712
0.00102257
-0.000448713
0.00101826
-0.000413138
0.00103726
-0.00058291
0.00103502
-0.000507622
0.0010795
-0.000693892
0.00110706
-0.000544055
0.00120252
-0.000745418
0.00126722
-0.000499269
0.00140895
-0.000752858
0.00147575
-0.000373502
0.00163347
-0.000759359
0.00166268
-0.000225001
0.00183991
-0.000879878
0.00186407
-0.000257189
0.00208114
-0.000955512
0.0023385
-0.00119077
0.00218325
0.00128766
0.0037965
-0.00741228
8.92775e-05
0.0186916
0.00871444
-0.0388334
0.000253219
0.0327077
0.000343211
0.0130744
0.0164792
-0.0858404
-0.0201584
0.182992
0.0328996
-0.246237
-0.0476907
0.359729
0.0125924
-0.254433
0.0257891
-0.166702
-0.0985916
0.73755
0.208427
-1.35045
-0.12451
1.43774
-0.115527
0.0515964
-0.00773638
-0.899097
-0.188083
0.997148
0.2123
-1.80252
0.0153493
1.20481
0.481505
-1.70619
-0.295922
2.96099
-0.646802
1.74371
0.661397
-6.60199
0.254189
2.00805
-0.0259704
2.18062
0.0822645
-0.918237
0.0505775
-0.0926699
0.124776
-0.469996
-0.242682
1.71166
-0.181231
0.0122333
-1.0165
0.000508401
0.00031561
-0.000479482
0.000559277
0.000293282
0.000578265
0.000283805
0.000594837
0.000269571
0.000609674
0.000254733
0.000625137
0.000250173
0.000640974
0.000251572
0.000648954
0.000240036
0.000637094
0.00019653
0.000600697
0.00011936
0.000549751
3.18445e-05
0.000498755
-3.5718e-05
0.000461059
-6.64994e-05
0.000435153
-6.2637e-05
0.000406756
-5.09338e-05
0.000363845
-6.52031e-05
0.000307835
-0.000113013
0.000247637
-0.000167269
0.000186766
-0.000198515
0.000120116
-0.000205232
4.10834e-05
-0.000207941
-5.14401e-05
-0.000224282
-0.00015301
-0.000254966
-0.000258787
-0.000288478
-0.000367299
-0.00031468
-0.000478885
-0.000332571
-0.000591804
-0.000345568
-0.000701253
-0.000352096
-0.000802037
-0.000343931
-0.000891438
-0.000313226
-0.000969198
-0.000260032
-0.001035
-0.000192126
-0.00108599
-0.000118726
-0.0011169
-4.30458e-05
-0.00112236
3.82828e-05
-0.00109933
0.000131184
-0.00104748
0.000236656
-0.000968204
0.000350113
-0.000863381
0.000462231
-0.000735695
0.000566004
-0.000588729
0.000655066
-0.000427613
0.000727537
-0.00025814
0.000779224
-8.69854e-05
0.000810442
7.98251e-05
0.000816829
0.000236108
0.000801489
0.000377302
0.000760709
0.000498932
0.000701514
0.000599257
0.000619391
0.000676645
0.000526264
0.000732913
0.000417952
0.000769044
0.00031367
0.000790026
0.000206121
0.000798479
0.000119016
0.000801508
3.53468e-05
0.00080149
-1.93306e-05
0.000805613
-7.55057e-05
0.0008128
-0.000100427
0.000827792
-0.000137144
0.000844425
-0.000141174
0.000866517
-0.00017186
0.000885336
-0.000166979
0.000908333
-0.000205888
0.000926798
-0.000200057
0.000953991
-0.000253991
0.000978464
-0.000240715
0.00101697
-0.000303565
0.00105043
-0.000273031
0.00109835
-0.000351217
0.00113195
-0.000312064
0.00117695
-0.000427371
0.00119593
-0.00038829
0.00122834
-0.000553784
0.00122996
-0.000504138
0.00126053
-0.000714396
0.00126404
-0.000615085
0.00132248
-0.000849239
0.00135652
-0.000658617
0.00146961
-0.000916921
0.00154124
-0.000606854
0.00170441
-0.000934972
0.00177632
-0.000456354
0.00195949
-0.000955066
0.00199065
-0.000277152
0.00220104
-0.00112124
0.00222728
-0.000317374
0.00248706
-0.00123556
0.00276499
-0.00145619
0.002625
0.00148316
0.00436945
-0.00906626
0.000454992
0.022714
0.00969839
-0.047963
-0.000280205
0.0427718
0.00149697
0.0113119
0.0180932
-0.102418
-0.0216235
0.222745
0.0378376
-0.305838
-0.0528091
0.45037
0.0164725
-0.323601
0.0220064
-0.171172
-0.106787
0.866085
0.238017
-1.69228
-0.133022
1.80738
-0.112736
0.033301
-0.0224451
-0.990261
-0.223897
1.19922
0.213972
-2.24059
0.0257062
1.39805
0.612799
-2.29766
-0.286266
3.86513
-0.734527
2.18737
0.659457
-7.99585
0.249755
2.41744
0.0309792
2.39952
0.190839
-1.07918
0.0658882
0.0335864
0.128383
-0.533081
-0.294265
2.13473
-0.197854
-0.0845548
-1.28038
0.000521129
0.000319869
-0.000492376
0.000571533
0.000297975
0.000591117
0.00028851
0.000609559
0.000273965
0.000625873
0.000258174
0.000640774
0.000251012
0.000654669
0.000249311
0.000662815
0.000239078
0.000655811
0.000205804
0.000627057
0.000145199
0.000581322
6.9176e-05
0.000529313
1.69456e-06
0.000483509
-4.25635e-05
0.000448629
-5.81545e-05
0.000415857
-5.82742e-05
0.000371492
-7.15797e-05
0.000310851
-0.000114346
0.000240539
-0.000170609
0.000167901
-0.000211669
9.25194e-05
-0.000228278
8.32297e-06
-0.000235164
-8.878e-05
-0.000251538
-0.0001966
-0.000283712
-0.000309421
-0.000322834
-0.000423619
-0.000355767
-0.000539168
-0.000377095
-0.00065597
-0.000389681
-0.000770561
-0.000394934
-0.000877106
-0.00038683
-0.000970943
-0.000356288
-0.00105049
-0.000300227
-0.00111585
-0.000224647
-0.00116559
-0.000140223
-0.00119524
-5.33111e-05
-0.00119882