/*--------------------------------*- C++ -*----------------------------------*\
| =========                 |                                                 |
| \\      /  F ield         | OpenFOAM: The Open Source CFD Toolbox           |
|  \\    /   O peration     | Version:  2412                                  |
|   \\  /    A nd           | Website:  www.openfoam.com                      |
|    \\/     M anipulation  |                                                 |
\*---------------------------------------------------------------------------*/
FoamFile
{
    version     2.0;
    format      ascii;
    arch        "LSB;label=32;scalar=64";
    class       surfaceScalarField;
    location    "1.73";
    object      phi_0;
}
// * * * * * * * * * * * * * * * * * * * * * * * * * * * * * * * * * * * * * //

dimensions      [0 3 -1 0 0 0 0];

oriented        oriented;

internalField   nonuniform List<scalar> 
24930
(
0.0179597
0.0127563
-0.0307209
0.0105972
0.00736253
0.00694784
0.00364936
0.00517247
0.00177537
0.00420076
0.000971714
0.00357806
0.000622709
0.00313228
0.000445791
0.00279288
0.00033941
0.00252378
0.000269105
0.00230393
0.000219857
0.00212017
0.000183761
0.00196379
0.000156392
0.00182872
0.000135071
0.00171064
0.000118095
0.00160631
0.000104328
0.00151333
9.2989e-05
0.00142981
8.35222e-05
0.00135429
7.55252e-05
0.0012856
6.86995e-05
0.00122278
6.28202e-05
0.00116507
5.77145e-05
0.00111183
5.32481e-05
0.00106251
4.93154e-05
0.00101669
4.58319e-05
0.000973957
4.27296e-05
0.000934005
3.99533e-05
0.000896547
3.74576e-05
0.00086134
3.52051e-05
0.000828174
3.31643e-05
0.000796861
3.1309e-05
0.000767239
2.96171e-05
0.000739163
2.80697e-05
0.000712504
2.66508e-05
0.000687149
2.53467e-05
0.000662994
2.41456e-05
0.000639947
2.3037e-05
0.000617925
2.20124e-05
0.000596851
2.10637e-05
0.000576656
2.01843e-05
0.000557279
1.93679e-05
0.000538661
1.86098e-05
0.00052075
1.79046e-05
0.000503495
1.72491e-05
0.000486853
1.66385e-05
0.00047078
1.60708e-05
0.000455239
1.55415e-05
0.00044019
1.505e-05
0.000425601
1.45914e-05
0.000411439
1.41665e-05
0.000397673
1.37703e-05
0.000384273
1.34046e-05
0.000371215
1.30641e-05
0.000358468
1.27518e-05
0.000346011
1.24618e-05
0.000333817
1.21981e-05
0.000321867
1.19544e-05
0.000310135
1.17355e-05
0.000298602
1.15352e-05
0.000287247
1.1358e-05
0.00027605
1.11986e-05
0.000264992
1.10602e-05
0.000254053
1.09396e-05
0.000243218
1.08369e-05
0.000232465
1.07535e-05
0.000221782
1.06835e-05
0.000211147
1.0636e-05
0.000200553
1.05948e-05
0.000189972
1.05817e-05
0.000179409
1.05637e-05
0.000168829
1.05825e-05
0.000158251
1.05796e-05
0.000147627
1.06263e-05
0.000137001
1.06274e-05
0.000126306
1.06969e-05
0.000115619
1.0688e-05
0.000104846
1.07739e-05
9.41094e-05
1.07371e-05
8.3278e-05
1.08317e-05
7.25331e-05
1.07453e-05
6.16953e-05
1.08383e-05
5.10201e-05
1.06759e-05
4.02663e-05
1.07544e-05
2.97825e-05
1.04841e-05
1.92527e-05
1.05293e-05
9.12376e-06
1.01273e-05
-9.81648e-07
1.01026e-05
-1.06111e-05
9.62557e-06
-1.99491e-05
9.33383e-06
-2.92879e-05
9.33589e-06
-3.67705e-05
7.48159e-06
-4.75236e-05
1.07546e-05
-4.94409e-05
1.91692e-06
-6.40848e-05
1.46469e-05
-6.55601e-05
1.47898e-06
-6.33701e-05
-2.20379e-06
-9.85741e-05
3.5213e-05
-4.75077e-05
-5.10791e-05
-0.000148862
0.000101369
-3.45678e-05
-0.000114325
-0.000141016
0.000106437
-0.000141035
9.23329e-08
1.56695e-05
-0.00015675
-0.000390885
0.000406655
-2.26047e-06
-0.000388682
-0.000402961
0.000400721
-0.000220357
-0.000182507
-0.000133253
-8.73526e-05
-0.000437349
0.000304147
0.000185351
-0.000622791
-0.0011753
0.00136076
-0.000267001
-0.000908307
-0.000131239
-0.000135302
-0.000833801
0.00070271
0.000165817
-0.000999567
4.6036e-06
0.000161144
0.000355672
-0.000351119
-0.00039581
0.000751491
-0.00053392
0.000138153
0.000533368
-0.00106731
-8.70842e-05
0.0336661
0.0163245
-0.0372343
0.0277289
0.0132998
0.0221769
0.00920137
0.0179038
0.00604845
0.0148587
0.00401678
0.0126991
0.00278236
0.0111127
0.00203225
0.0098961
0.00155599
0.00892926
0.00123596
0.00813921
0.00100991
0.00747923
0.000843754
0.00691803
0.000717607
0.00643383
0.000619281
0.00601097
0.000540967
0.00563785
0.000477456
0.00530571
0.000425146
0.00500775
0.000381485
0.00473867
0.000344616
0.00449422
0.00031316
0.00427097
0.000286078
0.00406612
0.000262572
0.00387736
0.000242022
0.00370274
0.000223937
0.00354065
0.000207926
0.00338971
0.000193677
0.00324873
0.000180932
0.0031167
0.000169482
0.00299275
0.000159154
0.00287611
0.000149802
0.0027661
0.000141304
0.00266215
0.000133559
0.00256373
0.000126479
0.00247038
0.00011999
0.00238168
0.000114028
0.00229727
0.00010854
0.00221681
0.000103477
0.00214
9.87978e-05
0.00206658
9.44665e-05
0.00199629
9.04523e-05
0.00192891
8.67263e-05
0.00186424
8.32658e-05
0.00180208
8.00473e-05
0.00174226
7.70544e-05
0.00168462
7.4267e-05
0.00162902
7.16737e-05
0.0015753
6.92567e-05
0.00152334
6.70092e-05
0.00147302
6.49143e-05
0.00142422
6.29696e-05
0.00137684
6.11585e-05
0.00133077
5.94826e-05
0.00128592
5.79249e-05
0.00124219
5.64906e-05
0.0011995
5.51621e-05
0.00115776
5.39476e-05
0.00111689
5.28291e-05
0.00107682
5.18167e-05
0.00103747
5.08932e-05
0.000998765
5.00685e-05
0.00096064
4.93285e-05
0.000923026
4.86788e-05
0.000885858
4.81121e-05
0.000849073
4.76248e-05
0.000812606
4.72229e-05
0.000776406
4.68854e-05
0.000740403
4.66411e-05
0.000704561
4.64386e-05
0.000668801
4.63431e-05
0.000633112
4.62545e-05
0.000597402
4.62947e-05
0.000561695
4.62895e-05
0.000525878
4.64455e-05
0.000490027
4.64817e-05
0.000454
4.67268e-05
0.000417942
4.67495e-05
0.000381669
4.705e-05
0.000345419
4.69892e-05
0.00030895
4.7303e-05
0.000272625
4.70722e-05
0.000236117
4.73482e-05
0.000199957
4.68377e-05
0.000163692
4.70212e-05
0.000128097
4.60803e-05
9.25015e-05
4.61265e-05
5.80581e-05
4.45716e-05
2.36892e-05
4.44717e-05
-8.88593e-06
4.21999e-05
-4.12481e-05
4.16941e-05
-7.24667e-05
4.05512e-05
-9.93066e-05
3.43177e-05
-0.000135015
4.64583e-05
-0.00014197
8.87044e-06
-0.000196418
6.90906e-05
-0.000189187
-5.75822e-06
-0.000206473
1.50914e-05
-0.000286145
0.00011488
-0.000162194
-0.000175025
-0.000451055
0.000390218
-0.000106391
-0.000458974
-0.000492556
0.000492596
-0.000376527
-0.000115958
-1.53343e-05
-0.000517988
-0.00109758
0.00148894
-8.84353e-06
-0.00147751
-0.00130964
0.00170161
-0.000641158
-0.000851004
-0.000567173
-0.000161027
-0.00119338
0.000930353
0.000490004
-0.00230616
-0.00337652
0.00522727
-0.000691813
-0.00359299
-0.000726068
-0.000101462
-0.0024208
0.0023974
0.000632078
-0.00405245
2.86838e-05
0.00076459
0.00106506
-0.00138747
-0.00127772
0.00309426
-0.00148455
0.000345027
0.00178105
-0.00433289
-0.000295732
0.0414347
0.0160224
-0.0411325
0.0391424
0.0155921
0.0352113
0.0131325
0.0309249
0.010335
0.0270107
0.00793094
0.0237227
0.00607034
0.0210494
0.0047056
0.0188816
0.00372377
0.0171048
0.00301283
0.0156262
0.00248847
0.0143771
0.00209294
0.013307
0.00178772
0.012379
0.00154722
0.0115658
0.00135419
0.0108465
0.00119675
0.0102052
0.00106654
0.00962915
0.000957503
0.00910858
0.000865197
0.00863545
0.000786294
0.00820328
0.000718261
0.00780671
0.000659144
0.00744133
0.000607413
0.00710341
0.000561856
0.00678984
0.000521506
0.00649794
0.000485579
0.00622543
0.000453437
0.00597036
0.000424555
0.00573101
0.000398498
0.00550591
0.000374903
0.00529374
0.000353463
0.00509336
0.000333922
0.00490377
0.00031606
0.00472405
0.00029969
0.00455341
0.000284652
0.00439112
0.000270808
0.00423654
0.000258036
0.00408908
0.000246235
0.00394822
0.00023531
0.00381346
0.000225185
0.00368438
0.000215787
0.00356057
0.000207058
0.00344166
0.000198939
0.00332732
0.000191387
0.00321722
0.000184353
0.00311108
0.000177806
0.00300863
0.000171705
0.00290962
0.000166027
0.0028138
0.000160736
0.00272096
0.000155819
0.00263088
0.000151241
0.00254338
0.000146999
0.00245826
0.000143057
0.00237534
0.000139421
0.00229446
0.000136055
0.00221545
0.000132968
0.00213816
0.000130128
0.00206244
0.000127547
0.00198814
0.000125195
0.00191513
0.000123084
0.00184328
0.000121189
0.00177244
0.000119515
0.00170251
0.000118052
0.00163335
0.000116786
0.00156484
0.000115731
0.00149689
0.000114843
0.00142935
0.000114178
0.00136216
0.000113634
0.00129517
0.000113335
0.00122834
0.000113087
0.00116152
0.00011312
0.00109471
0.0001131
0.00102775
0.000113413
0.000960705
0.000113527
0.000893384
0.000114052
0.000825963
0.000114174
0.000758194
0.000114822
0.000690392
0.000114793
0.000622242
0.000115454
0.000554242
0.000115073
0.000485975
0.000115617
0.000418192
0.000114622
0.000350299
0.000114915
0.000283455
0.000112926
0.000216683
0.000112899
0.000151859
0.000109395
8.71553e-05
0.000109174
2.56373e-05
0.000103715
-3.56068e-05
0.000102934
-9.41496e-05
9.90887e-05
-0.000146125
8.62881e-05
-0.000212138
0.000112468
-0.000228274
2.50038e-05
-0.000330807
0.000171622
-0.000313169
-2.33918e-05
-0.000362195
6.41211e-05
-0.000481002
0.000233687
-0.00029355
-0.000362477
-0.000774095
0.000870758
-0.00019349
-0.00103958
-0.000907054
0.00120617
-0.000618405
-0.000404604
-6.85627e-05
-0.00106782
-0.0018156
0.00323598
-3.62983e-06
-0.00328948
-0.00234422
0.00404219
-0.00111285
-0.00208236
-0.0011771
-9.72077e-05
-0.00196412
0.0017174
0.000822688
-0.00509301
-0.00558553
0.0116355
-0.00102715
-0.00815141
-0.00169795
0.000569639
-0.00405508
0.00475453
0.00130631
-0.00941384
5.86979e-05
0.00201221
0.00185454
-0.00318332
-0.00228391
0.00723272
-0.0023591
0.000420086
0.00329889
-0.00999088
-0.000527868
0.0458963
0.0147239
-0.0445978
0.0459771
0.0155112
0.0443962
0.0147134
0.0416709
0.0130602
0.0384265
0.0111754
0.0351216
0.00937528
0.0320235
0.0078037
0.0292465
0.00650082
0.0268092
0.00545012
0.0246855
0.00461213
0.0228344
0.00394414
0.0212137
0.00340839
0.0197864
0.00297457
0.0185211
0.00261942
0.0173924
0.00232546
0.0163794
0.00207956
0.0154651
0.00187183
0.0146356
0.00169475
0.0138793
0.00154253
0.0131869
0.00141068
0.0125504
0.00129568
0.0119631
0.00119474
0.0114193
0.00110562
0.0109143
0.00102653
0.0104439
0.000955972
0.0100046
0.000892758
0.00959326
0.000835884
0.00920724
0.000784519
0.00884417
0.000737965
0.00850199
0.000695632
0.00817888
0.000657022
0.00787322
0.00062171
0.00758356
0.000589334
0.00730861
0.000559578
0.00704723
0.000532175
0.00679835
0.000506888
0.00656105
0.000483513
0.00633447
0.00046187
0.00611783
0.000441805
0.00591042
0.000423177
0.00571159
0.000405869
0.00552074
0.000389768
0.00533733
0.000374785
0.00516085
0.000360828
0.00499082
0.000347831
0.0048268
0.000335716
0.00466839
0.000324436
0.00451521
0.000313922
0.0043669
0.000304143
0.00422311
0.000295038
0.00408353
0.000286591
0.00394785
0.000278743
0.00381579
0.000271491
0.00368708
0.000264778
0.00356145
0.000258609
0.00343866
0.000252933
0.00331845
0.000247761
0.00320061
0.000243045
0.00308491
0.000238796
0.00297112
0.00023498
0.00285905
0.000231593
0.00274848
0.000228623
0.00263923
0.000226039
0.00253109
0.000223872
0.0024239
0.000222036
0.00231745
0.000220632
0.0022116
0.000219482
0.00210615
0.000218794
0.00200099
0.000218244
0.00189591
0.000218203
0.00179089
0.000218129
0.00168567
0.000218636
0.00158033
0.000218865
0.0014746
0.000219785
0.00136869
0.000220089
0.00126227
0.000221248
0.00115573
0.000221332
0.00104868
0.000222512
0.000941752
0.000222001
0.00083443
0.000222941
0.000727713
0.00022134
0.000620847
0.000221783
0.000515417
0.000218357
0.000410122
0.000218196
0.00030763
0.000211887
0.00020531
0.000211494
0.000107734
0.000201288
1.04114e-05
0.000200253
-8.22015e-05
0.000191697
-0.000166231
0.000170314
-0.000268935
0.000215167
-0.000300346
5.64154e-05
-0.000458281
0.000329555
-0.000432512
-4.91612e-05
-0.000523373
0.000154982
-0.00068053
0.00039084
-0.000437121
-0.000605884
-0.00111524
0.00154887
-0.000297486
-0.00185734
-0.00137751
0.00228619
-0.000872731
-0.000909383
-0.000166619
-0.0017739
-0.00254154
0.00561091
2.24256e-05
-0.00585347
-0.00349149
0.00755612
-0.00164663
-0.0039272
-0.00198391
0.000240619
-0.00276215
0.00249565
0.00119131
-0.0090465
-0.00774155
0.0205684
-0.00125195
-0.014641
-0.00308465
0.00240163
-0.00570538
0.00737525
0.00219997
-0.0173192
9.46189e-05
0.00411759
0.0027486
-0.0058373
-0.00338966
0.013371
-0.00311757
0.000148207
0.00509616
-0.0182046
-0.000662851
0.0493614
0.0135301
-0.0481676
0.0503237
0.0145489
0.0503401
0.0146971
0.0493162
0.014084
0.0474701
0.0130215
0.0450943
0.0117511
0.0424606
0.0104374
0.0397755
0.00918598
0.0371736
0.00805203
0.0347293
0.0070564
0.0324748
0.00619867
0.0304159
0.00546731
0.0285441
0.00484632
0.0268446
0.00431901
0.0253
0.00387002
0.0238936
0.00348601
0.0226096
0.00315585
0.0214339
0.0028704
0.0203543
0.0026222
0.0193598
0.00240518
0.018441
0.00221441
0.0175899
0.00204586
0.0167993
0.00189623
0.0160631
0.00176281
0.0153757
0.00164332
0.0147326
0.0015359
0.0141295
0.00143896
0.0135628
0.0013512
0.0130293
0.00127148
0.0125261
0.00119885
0.0120506
0.00113249
0.0116006
0.00107172
0.011174
0.00101592
0.0107689
0.000964584
0.0103838
0.000917256
0.0100172
0.000873543
0.00966755
0.000833102
0.00933377
0.00079563
0.00901468
0.000760865
0.00870927
0.000728569
0.00841658
0.000698541
0.00813574
0.000670593
0.00786594
0.00064457
0.00760644
0.000620318
0.00735654
0.000597719
0.00711561
0.000576644
0.00688304
0.000557007
0.00665827
0.000538697
0.00644077
0.000521654
0.00623004
0.000505778
0.0060256
0.000491033
0.00582703
0.00047733
0.00563388
0.000464648
0.00544577
0.000452905
0.00526229
0.000442096
0.00508309
0.000432145
0.00490781
0.000423054
0.0047361
0.000414761
0.00456764
0.000407265
0.00440211
0.000400522
0.00423919
0.000394514
0.00407859
0.000389231
0.00392002
0.000384613
0.00376318
0.000380714
0.00360782
0.000377394
0.00345365
0.00037481
0.00330044
0.000372687
0.0031479
0.000371338
0.00299587
0.000370273
0.00284404
0.000370043
0.00269233
0.000369836
0.00254041
0.00037056
0.00238835
0.000370931
0.00223576
0.000372379
0.0020829
0.00037296
0.00192931
0.000374835
0.0017755
0.000375142
0.00162095
0.000377071
0.00146647
0.000376485
0.00131139
0.000378019
0.00115702
0.000375716
0.00100239
0.000376409
0.000849597
0.000371154
0.000696955
0.000370839
0.000548028
0.000360814
0.000399312
0.000360208
0.00025705
0.000343546
0.000115109
0.00034219
-1.97459e-05
0.000326547
-0.000144454
0.000295017
-0.00029164
0.000362348
-0.000346067
0.000110841
-0.000567766
0.00055125
-0.000538005
-7.89226e-05
-0.000681815
0.000298793
-0.000877758
0.000586779
-0.000587677
-0.000895962
-0.00146807
0.00242925
-0.000416552
-0.00290886
-0.0018979
0.00376755
-0.00114128
-0.001666
-0.000316242
-0.00259892
-0.00326496
0.00855962
7.3185e-05
-0.00919162
-0.00473169
0.012361
-0.00224459
-0.0064143
-0.00300988
0.00100559
-0.00359783
0.00308361
0.00158628
-0.0142306
-0.00976678
0.0319215
-0.00133193
-0.0230759
-0.00489854
0.00596867
-0.00734529
0.00982198
0.00327777
-0.0279423
0.000136835
0.00725856
0.00377455
-0.00947502
-0.00454898
0.0216945
-0.00372071
-0.000680336
0.00715539
-0.0290807
-0.000584404
0.0528184
0.0126323
-0.0519206
0.053846
0.0135213
0.0545286
0.0140145
0.0545961
0.0140165
0.053996
0.0136216
0.0527977
0.0129494
0.0511306
0.0121045
0.0491412
0.0111754
0.0469641
0.0102291
0.04471
0.00931056
0.042461
0.00844771
0.0402731
0.00765521
0.0381809
0.00693855
0.0362028
0.00629712
0.0343461
0.00572666
0.0326111
0.00522103
0.0309936
0.00477336
0.0294872
0.00437686
0.0280842
0.00402513
0.026777
0.00371244
0.0255577
0.00343371
0.024419
0.00318454
0.0233541
0.00296112
0.0223568
0.00276017
0.0214212
0.0025789
0.0205422
0.00241489
0.0197151
0.00226608
0.0189356
0.0021307
0.0181998
0.00200721
0.0175044
0.00189429
0.0168461
0.00179079
0.0162221
0.00169572
0.0156298
0.00160821
0.0150668
0.00152752
0.0145311
0.00145297
0.0140206
0.001384
0.0135336
0.00132008
0.0130684
0.00126076
0.0126236
0.00120566
0.0121978
0.0011544
0.0117896
0.00110669
0.0113979
0.00106224
0.0110217
0.00102081
0.0106598
0.000982154
0.0103114
0.000946103
0.00997562
0.000912456
0.00965156
0.000881075
0.00933847
0.000851791
0.00903562
0.000824507
0.00874233
0.000799073
0.00845795
0.000775425
0.00818187
0.00075343
0.00791348
0.000733049
0.00765224
0.000714161
0.0073976
0.000696748
0.00714905
0.0006807
0.0069061
0.000666012
0.00666828
0.000652595
0.00643512
0.000640436
0.00620617
0.000629479
0.005981
0.000619683
0.00575919
0.000611044
0.00554035
0.000603459
0.00532405
0.000597017
0.00510994
0.000591505
0.0048976
0.000587154
0.00468673
0.00058356
0.0044769
0.000581176
0.00426788
0.000579294
0.00405923
0.0005787
0.00385083
0.000578233
0.00364222
0.000579176
0.00343345
0.000579706
0.003224
0.000581832
0.00301416
0.000582805
0.00280335
0.000585655
0.00259215
0.000586337
0.0023799
0.000589323
0.00216762
0.000588769
0.00195446
0.000591187
0.00174205
0.00058813
0.00152919
0.000589263
0.00131854
0.000581807
0.00110799
0.000581386
0.000902109
0.0005667
0.000696445
0.000565871
0.000499074
0.000540913
0.000302041
0.000539219
0.00011427
0.000514313
-6.07433e-05
0.000470025
-0.000261831
0.000563431
-0.000348797
0.000197806
-0.000644076
0.000846527
-0.000616402
-0.000106598
-0.00082592
0.000508313
-0.00106226
0.000823111
-0.000737204
-0.00122101
-0.00182317
0.0035152
-0.000545682
-0.00418635
-0.00245805
0.00567993
-0.00142323
-0.00270081
-0.000522884
-0.00349924
-0.00397568
0.0120124
0.000145965
-0.0133133
-0.00603529
0.0185422
-0.00290349
-0.00954609
-0.0042699
0.00237222
-0.00448676
0.00330046
0.00197727
-0.0206947
-0.011592
0.0454907
-0.00122705
-0.0334409
-0.0071057
0.0118474
-0.00896955
0.0116858
0.00444511
-0.041357
0.000182779
0.0115209
0.00496158
-0.0142538
-0.00569008
0.0323462
-0.00413239
-0.00223783
0.00942943
-0.0426425
-0.00020662
0.0565371
0.0119456
-0.0558504
0.0573901
0.0126683
0.058186
0.0132186
0.0587118
0.0134907
0.0588454
0.013488
0.058541
0.0132538
0.0578082
0.0128374
0.0566946
0.012289
0.055269
0.0116548
0.0536066
0.0109729
0.0517811
0.0102733
0.0498577
0.00957864
0.047891
0.00890526
0.045924
0.00826411
0.0439888
0.00766193
0.0421077
0.00710212
0.0402954
0.00658564
0.0385606
0.00611167
0.0369075
0.00567829
0.035337
0.00528289
0.0338482
0.00492254
0.0324385
0.00459423
0.0311047
0.004295
0.0298428
0.00402206
0.0286488
0.00377282
0.0275188
0.00354492
0.0264487
0.00333621
0.0254346
0.00314479
0.0244729
0.00296893
0.02356
0.00280711
0.0226929
0.00265796
0.0218683
0.00252028
0.0210835
0.002393
0.0203358
0.00227516
0.0196228
0.00216592
0.0189423
0.00206451
0.0182921
0.00197027
0.0176702
0.00188259
0.0170749
0.00180094
0.0165045
0.00172484
0.0159573
0.00165385
0.0154319
0.00158759
0.014927
0.00152573
0.0144412
0.00146793
0.0139734
0.00141394
0.0135223
0.00136348
0.0130871
0.00131635
0.0126665
0.00127232
0.0122598
0.00123124
0.011866
0.0011929
0.0114842
0.00115721
0.0111137
0.00112398
0.0107536
0.00109314
0.0104033
0.00106452
0.0100619
0.0010381
0.00972893
0.00101372
0.00940359
0.000991355
0.0090853
0.0009709
0.00877343
0.000952316
0.00846738
0.000935537
0.00816658
0.000920488
0.00787045
0.000907176
0.00757847
0.000895445
0.00729006
0.000885426
0.00700476
0.000876813
0.00672198
0.000869934
0.00644132
0.000864222
0.00616219
0.000860306
0.00588429
0.000857203
0.00560699
0.000855999
0.00533014
0.000855089
0.00505309
0.000856233
0.00477587
0.000856927
0.0044978
0.000859912
0.00421919
0.000861419
0.00393927
0.000865574
0.00365877
0.000866841
0.0033768
0.0008713
0.0030946
0.000870962
0.00281111
0.000874679
0.00252835
0.000870893
0.00224483
0.000872788
0.00196384
0.000862805
0.00168279
0.000862437
0.00140735
0.000842139
0.00113208
0.000841141
0.000867036
0.000805951
0.000602339
0.000803911
0.000349478
0.000767169
0.00011179
0.000707708
-0.000154906
0.000830122
-0.000285811
0.000328709
-0.000666735
0.00122745
-0.000649223
-0.00012411
-0.000939488
0.00079858
-0.00121921
0.00110283
-0.000873855
-0.00156636
-0.00216739
0.00480872
-0.000675632
-0.00567811
-0.00304281
0.00804712
-0.00171459
-0.00402902
-0.000788932
-0.00442486
-0.00466663
0.0158901
0.000242987
-0.0182229
-0.0073653
0.0261505
-0.00361113
-0.0133003
-0.00576035
0.00452144
-0.00544944
0.00298965
0.00230807
-0.0284522
-0.0131835
0.0609823
-0.000896638
-0.0457278
-0.0096016
0.0205525
-0.010597
0.0126812
0.00553592
-0.0574899
0.00022073
0.0168362
0.00633483
-0.0203679
-0.00671288
0.0453939
-0.0043218
-0.00462905
0.0118376
-0.058802
0.000497345
0.0605409
0.0113828
-0.059978
0.0612249
0.0119843
0.0619391
0.0125045
0.0625606
0.0128693
0.0629918
0.0130568
0.0631688
0.0130768
0.063056
0.0129502
0.0626429
0.012702
0.0619399
0.0123578
0.0609715
0.0119413
0.0597723
0.0114725
0.058382
0.010969
0.0568417
0.0104455
0.0551917
0.00991418
0.0534687
0.00938491
0.0517052
0.00886561
0.0499286
0.00836232
0.0481608
0.00787946
0.0464191
0.00741999
0.0447164
0.00698566
0.0430617
0.00657723
0.0414612
0.00619472
0.0399187
0.00583754
0.038436
0.00550474
0.0370137
0.00519511
0.0356513
0.00490731
0.0343476
0.00463992
0.0331009
0.00439152
0.0319091
0.00416074
0.0307699
0.00394624
0.0296811
0.00374678
0.0286401
0.0035612
0.0276447
0.00338841
0.0266924
0.00322742
0.025781
0.00307732
0.0249082
0.00293728
0.0240719
0.00280652
0.0232701
0.00268436
0.0225009
0.00257017
0.0217623
0.00246336
0.0210528
0.00236342
0.0203705
0.00226986
0.0197139
0.00218228
0.0190816
0.00210025
0.018472
0.00202344
0.017884
0.00195151
0.0173162
0.00188419
0.0167673
0.00182118
0.0162363
0.00176228
0.015722
0.00170722
0.0152233
0.00165587
0.0147393
0.00160798
0.014269
0.00156346
0.0138115
0.00152209
0.0133658
0.00148382
0.012931
0.00144845
0.0125065
0.00141594
0.0120912
0.00138615
0.0116845
0.00135902
0.0112856
0.00133447
0.0108937
0.00131239
0.0105081
0.0012928
0.0101281
0.00127547
0.0097529
0.0012606
0.00938195
0.00124776
0.00901448
0.00123741
0.00864994
0.00122876
0.00828756
0.00122269
0.00792691
0.00121785
0.0075672
0.00121571
0.00720817
0.00121412
0.00684897
0.00121544
0.0064896
0.0012163
0.00612916
0.00122036
0.00576799
0.0012226
0.00540508
0.00122848
0.00504129
0.00123063
0.00467547
0.00123713
0.00430914
0.0012373
0.00394091
0.00124291
0.00357327
0.00123853
0.00320436
0.0012417
0.00283821
0.00122896
0.00247167
0.00122897
0.00211165
0.00120216
0.00175164
0.00120116
0.00140384
0.00115374
0.00105636
0.00115139
0.000723613
0.00109991
0.000408297
0.00102302
6.16263e-05
0.00117679
-0.000125983
0.000516317
-0.000608424
0.00170988
-0.000611022
-0.000121515
-0.00100028
0.00118784
-0.00132797
0.00143051
-0.000980657
-0.00191367
-0.00248282
0.00631087
-0.000791714
-0.00736921
-0.00363079
0.0108862
-0.00200609
-0.00565372
-0.00111136
-0.00531954
-0.00533401
0.0201127
0.0003625
-0.0239194
-0.00868066
0.0351937
-0.00434701
-0.0176339
-0.00745293
0.00762742
-0.00650654
0.00204307
0.00249652
-0.0374553
-0.0145606
0.0780394
-0.000308944
-0.0599795
-0.0122004
0.0324441
-0.0122544
0.0127352
0.00632449
-0.0760688
0.00022436
0.0229363
0.00790468
-0.0280482
-0.00748931
0.0607879
-0.00425877
-0.00785957
0.0142689
-0.0773297
0.0014685
0.0648235
0.0108985
-0.0643393
0.0653886
0.0114192
0.0659959
0.0118972
0.0665802
0.0122849
0.067079
0.0125581
0.0674437
0.0127121
0.0676388
0.0127551
0.0676405
0.0127004
0.0674355
0.0125628
0.0670198
0.012357
0.0663969
0.0120954
0.0655773
0.0117885
0.064577
0.0114458
0.0634159
0.0110753
0.0621166
0.0106843
0.0607032
0.010279
0.0592
0.00986546
0.0576306
0.0094489
0.0560166
0.009034
0.0543775
0.00862481
0.05273
0.00822467
0.0510885
0.0078363
0.0494643
0.0074617
0.0478667
0.00710234
0.0463027
0.0067591
0.0447776
0.00643247
0.0432949
0.00612257
0.0418572
0.00582922
0.0404659
0.00555207
0.0391215
0.00529059
0.0378241
0.00504416
0.0365732
0.0048121
0.0353679
0.00459369
0.0342071
0.00438822
0.0330894
0.00419497
0.0320134
0.00401324
0.0309776
0.00384235
0.0299803
0.00368166
0.0290198
0.00353057
0.0280947
0.00338849
0.0272032
0.0032549
0.0263437
0.00312929
0.0255148
0.00301121
0.0247148
0.00290021
0.0239423
0.00279592
0.0231959
0.00269793
0.0224741
0.00260595
0.0217757
0.00251962
0.0210993
0.00243871
0.0204436
0.0023629
0.0198075
0.00229201
0.0191897
0.00222576
0.0185892
0.00216403
0.0180047
0.00210655
0.0174353
0.00205325
0.0168798
0.00200391
0.0163374
0.00195844
0.0158068
0.0019167
0.0152873
0.00187858
0.0147777
0.00184402
0.0142773
0.00181283
0.013785
0.00178508
0.0133
0.00176045
0.0128214
0.00173923
0.0123484
0.00172082
0.0118799
0.00170587
0.0114154
0.00169332
0.0109537
0.00168433
0.0104944
0.00167714
0.0100365
0.00167369
0.00957947
0.00167114
0.00912233
0.00167259
0.00866499
0.00167364
0.00820627
0.00167908
0.00774656
0.00168231
0.00728455
0.0016905
0.00682123
0.00169396
0.00635511
0.00170325
0.00588802
0.0017044
0.00541819
0.00171274
0.00494863
0.0017081
0.00447702
0.00171331
0.00400824
0.00169775
0.00353848
0.00169873
0.00307604
0.00166459
0.00261324
0.00166396
0.00216465
0.00160234
0.00171625
0.00159978
0.00128571
0.00153045
0.000874629
0.00143409
0.000431984
0.00161943
0.000166317
0.000781981
-0.00043338
0.00230958
-0.000466902
-8.79895e-05
-0.000978287
0.00169923
-0.00136012
0.00181233
-0.0010339
-0.00223988
-0.00274523
0.00802217
-0.000872273
-0.00924216
-0.00419372
0.0142077
-0.0022811
-0.00756634
-0.00147872
-0.00612187
-0.00597578
0.0246097
0.000499152
-0.0303943
-0.0099406
0.0456335
-0.00508034
-0.0224942
-0.00928652
0.0118337
-0.00766858
0.000425362
0.00244335
-0.0475673
-0.0158019
0.0962846
0.000502198
-0.0762837
-0.0146388
0.0475852
-0.0139412
0.0120376
0.006574
-0.0965841
0.000154579
0.0293558
0.00965477
-0.0375484
-0.00786982
0.0783125
-0.00390222
-0.0118272
0.0165973
-0.0978292
0.00255136
0.0693939
0.0104713
-0.0689666
0.0698771
0.010936
0.0703973
0.011377
0.0709187
0.0117635
0.0714018
0.012075
0.0718127
0.0123012
0.0721254
0.0124424
0.0723205
0.0125052
0.0723839
0.0124995
0.0723055
0.0124354
0.0720785
0.0123224
0.071699
0.012168
0.0711664
0.0119784
0.0704831
0.0117587
0.0696544
0.0115129
0.068689
0.0112445
0.0675979
0.0109566
0.0663945
0.0106523
0.0650939
0.0103347
0.0637118
0.0100069
0.0622643
0.00967221
0.0607669
0.00933365
0.0592345
0.00899415
0.0576804
0.00865641
0.0561167
0.0083228
0.0545539
0.00799535
0.0530007
0.00767574
0.0514646
0.00736532
0.0499516
0.00706507
0.0484664
0.00677573
0.0470128
0.00649776
0.0455935
0.00623141
0.0442104
0.00597676
0.0428649
0.00573377
0.0415575
0.00550228
0.0402887
0.00528204
0.0390583
0.00507274
0.0378659
0.00487404
0.0367108
0.00468557
0.0355924
0.00450694
0.0345095
0.00433776
0.0334611
0.00417763
0.0324461
0.00402619
0.0314633
0.00388304
0.0305114
0.00374785
0.029589
0.00362023
0.0286951
0.00349992
0.0278282
0.00338654
0.026987
0.00327988
0.0261703
0.00317959
0.0253768
0.00308551
0.0246053
0.00299731
0.0238545
0.00291488
0.0231231
0.00283792
0.02241
0.00276635
0.021714
0.00269992
0.0210339
0.00263855
0.0203686
0.00258207
0.0197168
0.00253034
0.0190775
0.00248332
0.0184496
0.00244076
0.0178319
0.00240279
0.0172234
0.00236898
0.0166229
0.00233973
0.0160294
0.00231427
0.0154419
0.00229345
0.0148593
0.00227591
0.0142804
0.00226317
0.0137046
0.00225295
0.0131305
0.00224778
0.0125577
0.00224399
0.0119847
0.00224561
0.0114114
0.00224694
0.0108363
0.00225419
0.0102598
0.00225882
0.00968017
0.00227009
0.00909864
0.00227549
0.00851328
0.00228862
0.00792623
0.00229145
0.00733525
0.00230372
0.00674396
0.0022994
0.00614944
0.00230783
0.00555756
0.00228963
0.00496374
0.00229256
0.00437783
0.0022505
0.00379086
0.00225092
0.00321998
0.00217321
0.00264899
0.00217076
0.00209914
0.0020803
0.00157049
0.00196273
0.00101092
0.00217899
0.000641437
0.00115147
-9.77665e-05
0.00304878
-0.000166993
-1.87746e-05
-0.000833637
0.00236588
-0.00127679
0.00225548
-0.00100109
-0.00251558
-0.002922
0.00994306
-0.000886681
-0.0112775
-0.00469533
0.0180163
-0.00251287
-0.00974879
-0.00186784
-0.00676684
-0.00658767
0.0293295
0.000646048
-0.0376281
-0.0111084
0.0573879
-0.00577059
-0.027832
-0.0111688
0.017232
-0.00892698
-0.00181671
0.00205141
-0.0585457
-0.0170295
0.115365
0.00152418
-0.0948374
-0.0166045
0.0657141
-0.0155819
0.011015
0.00612219
-0.118288
-2.81652e-05
0.0355062
0.011533
-0.0491096
-0.007698
0.0975435
-0.00318346
-0.0163418
0.0187125
-0.119725
0.00350448
0.0742715
0.0100885
-0.0738887
0.0746955
0.010512
0.0751498
0.0109228
0.0756136
0.0112997
0.0760611
0.0116275
0.0764677
0.0118946
0.0768136
0.0120965
0.0770842
0.0122347
0.0772691
0.0123146
0.0773609
0.0123436
0.0773539
0.0123294
0.077243
0.012279
0.0770236
0.0121978
0.0766921
0.0120903
0.0762451
0.0119599
0.0756809
0.0118087
0.0749992
0.0116383
0.0742017
0.0114497
0.0732924
0.011244
0.0722773
0.0110221
0.0711642
0.0107853
0.0699627
0.0105351
0.0686835
0.0102734
0.0673379
0.010002
0.0659375
0.0097232
0.0644938
0.00943908
0.0630177
0.0091518
0.0615196
0.00886342
0.0600088
0.00857583
0.0584938
0.00829074
0.056982
0.00800963
0.0554796
0.00773376
0.0539921
0.0074642
0.0525241
0.0072018
0.0510791
0.00694722
0.0496602
0.00670096
0.0482695
0.00646338
0.0469088
0.0062347
0.0455793
0.00601505
0.0442818
0.00580446
0.0430166
0.00560292
0.0417839
0.00541032
0.0405835
0.00522657
0.039415
0.00505147
0.038278
0.00488489
0.0371716
0.00472657
0.0360952
0.00457638
0.0350477
0.00443402
0.0340282
0.00429938
0.0330357
0.00417216
0.0320689
0.00405226
0.0311269
0.00393939
0.0302083
0.00383346
0.029312
0.0037342
0.0284368
0.00364156
0.0275815
0.00355528
0.0267448
0.0034753
0.0259254
0.00340146
0.0251221
0.00333364
0.0243336
0.00327179
0.0235587
0.00321565
0.0227961
0.00316541
0.0220446
0.00312054
0.0213027
0.00308158
0.0205694
0.00304756
0.0198433
0.00301962
0.0191232
0.002996
0.0184076
0.00297871
0.0176958
0.00296482
0.0169859
0.00295761
0.0162775
0.00295239
0.0155688
0.00295435
0.0148595
0.00295621
0.0141478
0.00296592
0.0134341
0.00297258
0.0127161
0.00298803
0.0119953
0.0029963
0.0112692
0.00301473
0.0105403
0.00302032
0.00980585
0.0030382
0.00907006
0.0030352
0.00832932
0.00304857
0.00759062
0.00302833
0.00684843
0.00303475
0.0061144
0.00298453
0.00537813
0.00298719
0.00465958
0.00289176
0.00394024
0.0028901
0.00324536
0.00277517
0.00257298
0.00263511
0.00187158
0.00288037
0.00137217
0.00165088
0.000489004
0.00393193
0.000322811
0.00014743
-0.000514929
0.00320362
-0.00102483
0.00276537
-0.000838565
-0.00270183
-0.00296921
0.0120737
-0.000792437
-0.0134542
-0.00508993
0.0223138
-0.00266147
-0.0121772
-0.00224072
-0.00718752
-0.0071567
0.0342455
0.000799738
-0.0455845
-0.0121518
0.0703394
-0.00636702
-0.0336167
-0.0129796
0.0238446
-0.0102367
-0.0045593
0.00125155
-0.0700339
-0.0183627
0.13498
0.00275259