/*--------------------------------*- C++ -*----------------------------------*\
| =========                 |                                                 |
| \\      /  F ield         | OpenFOAM: The Open Source CFD Toolbox           |
|  \\    /   O peration     | Version:  2412                                  |
|   \\  /    A nd           | Website:  www.openfoam.com                      |
|    \\/     M anipulation  |                                                 |
\*---------------------------------------------------------------------------*/
FoamFile
{
    version     2.0;
    format      ascii;
    arch        "LSB;label=32;scalar=64";
    class       volScalarField;
    location    "0.885";
    object      Co;
}
// * * * * * * * * * * * * * * * * * * * * * * * * * * * * * * * * * * * * * //

dimensions      [0 0 0 0 0 0 0];

internalField   nonuniform List<scalar> 
12600
(
0.373966
0.153545
0.0605665
0.0267307
0.0143616
0.00885954
0.005739
0.00372306
0.00234509
0.00137693
0.000687841
0.000365833
0.000445363
0.000634585
0.000756341
0.000839378
0.000885334
0.000906599
0.000907584
0.000893641
0.000868582
0.000835236
0.000798232
0.000761611
0.000724241
0.000684805
0.000641847
0.000596326
0.000553874
0.00051385
0.000474982
0.000437648
0.000402457
0.000369506
0.000338616
0.000309795
0.00028322
0.000258833
0.000236526
0.000216116
0.000197485
0.000180496
0.000165001
0.000150827
0.000137846
0.000125923
0.000115001
0.000105075
9.61667e-05
8.83229e-05
8.15628e-05
7.58644e-05
7.11331e-05
6.71788e-05
6.37165e-05
6.03529e-05
5.65888e-05
5.18214e-05
4.5412e-05
3.68154e-05
2.57676e-05
1.45937e-05
1.69467e-05
2.97254e-05
3.90209e-05
4.44262e-05
4.68384e-05
4.74147e-05
4.73453e-05
4.71682e-05
4.76643e-05
4.8747e-05
5.08105e-05
5.24348e-05
5.21457e-05
4.92817e-05
4.39731e-05
3.22929e-05
1.64215e-05
8.90172e-06
6.98211e-06
1.49762e-05
3.27171e-05
4.47201e-05
4.29709e-05
4.04427e-05
3.35263e-05
5.3918e-05
9.86764e-05
0.000114909
0.000110313
0.000103583
0.000139377
0.000176071
0.000348506
0.000326725
0.000270805
1.87667e-05
9.91407e-06
9.78146e-06
3.72784e-05
3.46208e-05
5.18554e-05
5.75964e-05
5.38178e-05
7.10058e-05
0.000133106
0.000211776
0.000252577
0.00025263
0.000235588
0.000202671
0.000155291
9.91283e-05
4.32776e-05
1.08601e-05
1.22188e-05
1.13712e-05
8.26035e-06
5.88117e-06
0.601186
0.387727
0.225443
0.129
0.0774096
0.0495136
0.0332074
0.0228197
0.0157781
0.0108141
0.00723116
0.00460235
0.00266074
0.00122422
0.000959075
0.00146472
0.00183781
0.00209003
0.00224356
0.00232294
0.00234529
0.00232114
0.00226799
0.00219493
0.0021175
0.00203512
0.00193882
0.00183015
0.0017213
0.00161271
0.00150344
0.00139601
0.00129239
0.0011934
0.00109922
0.00101025
0.000927312
0.000850348
0.00077925
0.000713715
0.000653563
0.000598469
0.00054799
0.000501598
0.000458951
0.000419626
0.000383429
0.000350323
0.000320373
0.000293753
0.000270575
0.000250847
0.000234372
0.000220643
0.000208884
0.000197956
0.000186386
0.000172319
0.000153674
0.000128466
9.53804e-05
6.05366e-05
6.7732e-05
0.000107769
0.000135241
0.000149617
0.000154602
0.000154288
0.000152472
0.00015084
0.000152022
0.000155783
0.00016343
0.000169674
0.000169088
0.000160072
0.000152643
0.000123161
7.44269e-05
3.62034e-05
1.41075e-05
6.06611e-05
0.000132131
0.000160265
0.000138698
0.000139455
0.000147697
0.000242098
0.000371893
0.000392649
0.000349404
0.000352871
0.000557082
0.000630431
0.00119026
0.000990723
0.00108941
0.000106381
2.65218e-05
2.09283e-05
0.000151143
0.000126419
0.000182532
0.000175885
0.000177394
0.000302765
0.000549063
0.000763003
0.000829522
0.00076973
0.000719972
0.000628525
0.000496232
0.000334176
0.000153348
4.18983e-05
4.75827e-05
4.0077e-05
3.05653e-05
2.18617e-05
0.668322
0.538277
0.386717
0.261679
0.174409
0.11788
0.0816259
0.0577103
0.0413022
0.0296532
0.0211678
0.0148739
0.0101511
0.00655913
0.00391852
0.00204533
0.00175237
0.00240488
0.00285432
0.00314713
0.00331697
0.00338744
0.00338677
0.00333193
0.00324609
0.00314157
0.00304269
0.00292139
0.0027863
0.00263933
0.00248378
0.00232523
0.00216779
0.00201386
0.00186469
0.00172154
0.00158638
0.00145952
0.00134118
0.00123122
0.00112969
0.00103626
0.000950336
0.000871051
0.000797927
0.000730226
0.000667561
0.000609828
0.000557115
0.000509778
0.00046812
0.000432346
0.000402378
0.00037764
0.000357115
0.000339226
0.000321804
0.000301904
0.000275939
0.000240019
0.000190738
0.000135075
0.000146722
0.000211384
0.000251458
0.000268076
0.000269682
0.000264262
0.000258217
0.000254017
0.000256301
0.000264263
0.000280143
0.000292832
0.000291467
0.000271972
0.000279502
0.000247026
0.000169244
8.0284e-05
1.32809e-05
0.000132765
0.000280626
0.000303739
0.000236484
0.000268357
0.000344887
0.000550456
0.000738106
0.000704427
0.000602561
0.000658107
0.00121919
0.00121338
0.00222548
0.00156692
0.00235146
0.000286681
4.43858e-05
2.59571e-05
0.000332149
0.000240256
0.000338824
0.000275799
0.000347877
0.000689933
0.00116749
0.00144831
0.00143817
0.00123072
0.00118599
0.00106183
0.00087412
0.000629798
0.00030991
8.84117e-05
9.46151e-05
7.59746e-05
6.0968e-05
4.40638e-05
0.668011
0.606896
0.501441
0.38668
0.285919
0.207639
0.150615
0.10999
0.0809212
0.0597936
0.0441713
0.0324456
0.023546
0.0167174
0.0115278
0.00749523
0.0044121
0.00267405
0.0026666
0.00330837
0.00373928
0.00399945
0.00413083
0.00416355
0.00412432
0.00403237
0.00391923
0.00380884
0.00369472
0.00355099
0.00338147
0.00319739
0.00300613
0.00281276
0.00262046
0.00243197
0.00225106
0.00207891
0.00191644
0.00176403
0.00162224
0.00149105
0.00136983
0.00125748
0.00115347
0.00105675
0.000966707
0.000883145
0.00080617
0.000736375
0.000674358
0.000620672
0.000575567
0.000538643
0.000508905
0.000484592
0.0004631
0.000440556
0.000411752
0.000370479
0.000310332
0.000235676
0.000250735
0.000337707
0.000385614
0.000398501
0.000391199
0.000376603
0.000363837
0.000356016
0.000359953
0.000374
0.000401219
0.000423101
0.000421738
0.000382403
0.000420594
0.00039982
0.000298382
0.000144738
1.46899e-05
0.000233563
0.000471105
0.000469412
0.000340731
0.000432226
0.000626706
0.000970124
0.0011794
0.00103194
0.000884697
0.000994737
0.00209192
0.0018515
0.00336968
0.00209788
0.00397428
0.000604298
9.54436e-05
2.92971e-05
0.00057043
0.00037235
0.000508209
0.000348485
0.000576978
0.00122261
0.00195155
0.00221218
0.00202821
0.00160645
0.0016271
0.00148758
0.00126946
0.000966763
0.000510458
0.000154515
0.000148961
0.000119747
9.79486e-05
7.3042e-05
0.644158
0.619227
0.559293
0.475714
0.385648
0.302413
0.232625
0.177382
0.134882
0.102498
0.077799
0.0588583
0.0442427
0.0328853
0.0240762
0.0171787
0.0118027
0.00760686
0.00435602
0.00305738
0.00349698
0.00406251
0.00442432
0.00462543
0.00470368
0.00468735
0.00459386
0.00448166
0.0043682
0.0042761
0.0041388
0.00396498
0.00376821
0.00355776
0.0033399
0.00311958
0.00290323
0.00269357
0.00249272
0.002302
0.00212285
0.00195588
0.00180068
0.00165605
0.00152153
0.00139582
0.00127805
0.00116796
0.00106567
0.000972072
0.000888157
0.000814977
0.000753315
0.000703146
0.000663755
0.000633462
0.000609458
0.000587115
0.000559571
0.000517939
0.000452029
0.000359619
0.000376429
0.000483696
0.000535213
0.000538949
0.00051754
0.000489783
0.000467802
0.00045531
0.000461551
0.000483773
0.000525793
0.000560347
0.000561134
0.000487768
0.000571079
0.000577191
0.000459273
0.000246186
3.9706e-05
0.000364618
0.000695863
0.000650781
0.000453345
0.000635386
0.000992916
0.00148892
0.0016765
0.00135557
0.00120033
0.00133739
0.00313762
0.00246351
0.00455706
0.00279309
0.00587334
0.00106543
0.00018243
4.32053e-05
0.000865179
0.000518355
0.000678085
0.000443565
0.000959058
0.00196851
0.00285609
0.00299697
0.00255507
0.00189217
0.00203906
0.00189594
0.00166727
0.00132963
0.000748256
0.000237759
0.000206664
0.000171916
0.000139857
0.000109382
0.616836
0.603964
0.573169
0.521477
0.454878
0.382706
0.313203
0.251375
0.199163
0.156475
0.12221
0.0949505
0.0733388
0.0562027
0.0426448
0.031887
0.0233691
0.0166272
0.0113114
0.00714229
0.00416416
0.00346487
0.00417304
0.00463932
0.00491539
0.00504318
0.00505232
0.0049773
0.00486133
0.00474635
0.00468952
0.00457441
0.00441059
0.00421347
0.00399412
0.00376082
0.0035237
0.00328786
0.00305728
0.00283474
0.00262304
0.00242383
0.00223723
0.00206213
0.0018983
0.00174431
0.00159906
0.00146225
0.00133405
0.00121569
0.00110867
0.00101467
0.000935221
0.000870887
0.000821462
0.000785584
0.000760459
0.000740848
0.000718216
0.000680741
0.00061382
0.00050541
0.000521399
0.000646127
0.000697787
0.000687742
0.000647569
0.000602888
0.000569282
0.000551149
0.000560478
0.000593137
0.000653667
0.000704892
0.000711042
0.000600481
0.000726117
0.0007743
0.000649047
0.000374864
7.19318e-05
0.000514746
0.00094627
0.000840614
0.000577359
0.000881536
0.00144066
0.00209128
0.00220815
0.00165618
0.00155231
0.00166302
0.00431074
0.00296822
0.00573941
0.00375678
0.00796576
0.00168291
0.000316268
7.85473e-05
0.00121424
0.000673735
0.000835688
0.000592123
0.00144973
0.00286234
0.00382976
0.00374619
0.00298458
0.00216203
0.00241764
0.00227939
0.00205504
0.00170497
0.00101068
0.000330269
0.000264685
0.000232737
0.00018511
0.000153599
0.592934
0.580993
0.563107
0.533131
0.489745
0.436134
0.377663
0.319399
0.265012
0.216599
0.174952
0.139968
0.111047
0.087374
0.0681433
0.0525763
0.0400258
0.0299355
0.0218549
0.0154142
0.010306
0.00628839
0.00414283
0.004104
0.004676
0.00502991
0.00521063
0.00526105
0.00521076
0.00508687
0.00500405
0.00495883
0.00487734
0.00473486
0.00454648
0.00432586
0.00408818
0.003842
0.00359402
0.00334915
0.00311213
0.00288615
0.00267229
0.0024698
0.00227892
0.00209822
0.00192648
0.0017634
0.00160922
0.00146562
0.00133468
0.00121888
0.00112065
0.00104138
0.00098159
0.000940469
0.000915435
0.000900786
0.000886321
0.000857098
0.000793626
0.000678776
0.000690465
0.00082155
0.000870685
0.000843066
0.000780056
0.00071496
0.00066745
0.000642779
0.000656048
0.000701437
0.000784211
0.000856365
0.000872069
0.000734359
0.00088015
0.000985753
0.000864448
0.000530343
0.000119211
0.000677143
0.00121304
0.00103106
0.000715509
0.0011734
0.00196407
0.00275831
0.002752
0.00191615
0.00193956
0.00195605
0.00555533
0.00330259
0.00690095
0.00499883
0.010166
0.00246177
0.000531287
0.000144019
0.00159605
0.00083398
0.000968043
0.000785364
0.00204822
0.00387164
0.00481761
0.00441087
0.00329929
0.00244011
0.00276252
0.00263584
0.00242441
0.00208223
0.00129178
0.000429711
0.000320701
0.00030213
0.000232241
0.000205977
0.572905
0.559197
0.54474
0.525447
0.498001
0.461681
0.418231
0.370557
0.321701
0.274255
0.230115
0.190428
0.155698
0.125925
0.100811
0.0798672
0.0625614
0.0483611
0.0367815
0.0273961
0.0198333
0.0137829
0.00897754
0.00519695
0.00393378
0.00456277
0.00499891
0.00524407
0.00533953
0.00532079
0.00521673
0.00514177
0.00510308
0.00506471
0.0049517
0.00477809
0.00456697
0.00433193
0.00408344
0.00382939
0.00357723
0.00333237
0.00309733
0.00287208
0.00265766
0.00245287
0.00225651
0.00206834
0.00188879
0.00172002
0.00156484
0.00142662
0.00130891
0.00121411
0.0011437
0.00109763
0.00107372
0.00106594
0.00106247
0.00104516
0.000989303
0.000871876
0.000875384
0.00100629
0.00105111
0.00100308
0.000913887
0.000825284
0.000761799
0.00072979
0.000747848
0.000808128
0.000916664
0.00101397
0.0010441
0.000886944
0.00102724
0.00120534
0.00110154
0.000712019
0.000192797
0.000844675
0.00148633
0.00121381
0.000870459
0.00151485
0.00255508
0.00346794
0.00328569
0.00212077
0.00235721
0.00221334
0.00680617
0.00344966
0.00806159
0.00654026
0.0123798
0.00339825
0.000825202
0.000222466
0.00199879
0.000994673
0.00106227
0.00103257
0.00274818
0.00495838
0.00576506
0.0049548
0.00349848
0.00268808
0.00307484
0.0029659
0.00276985
0.00245162
0.0015867
0.000536034
0.000373359
0.000379653
0.000280077
0.000266448
0.555497
0.540465
0.526006
0.510425
0.491201
0.466551
0.436104
0.400625
0.361561
0.320653
0.279631
0.240013
0.202978
0.169316
0.139452
0.113476
0.0912507
0.0724826
0.0568056
0.0438328
0.0331857
0.0245187
0.017519
0.0119142
0.00746954
0.00475265
0.00432357
0.00485101
0.00516382
0.00530992
0.00532874
0.00525158
0.00517748
0.00513848
0.00515015
0.00507084
0.00492274
0.00472766
0.00450139
0.004256
0.00400264
0.00374975
0.00350201
0.00326057
0.00302769
0.00280272
0.00258465
0.0023735
0.00216993
0.00197672
0.0017975
0.00163668
0.00149911
0.00138841
0.00130723
0.00125647
0.00123454
0.00123523
0.00124519
0.00124302
0.00119865
0.00108269
0.0010729
0.00119642
0.00123606
0.00116584
0.00104795
0.000933231
0.000851942
0.000811844
0.000835417
0.00091241
0.00104971
0.00117602
0.00122579
0.00105475
0.00116064
0.00142588
0.00135547
0.000918793
0.000292946
0.00101005
0.00175601
0.00138016
0.00104461
0.00199194
0.00328609
0.00419572
0.00378844
0.00225955
0.00279722
0.00244601
0.00799463
0.00346915
0.0092613
0.00832202
0.0144858
0.00447709
0.00120527
0.000305426
0.0024103
0.00115148
0.00110595
0.00134037
0.00353716
0.00607935
0.00662206
0.00535976
0.003599
0.00290908
0.00335917
0.00327343
0.00308953
0.00280347
0.00189034
0.000651563
0.000422241
0.000464395
0.000327786
0.000334482
0.539821
0.524244
0.509288
0.494513
0.478552
0.460027
0.438065
0.412359
0.383109
0.350935
0.316742
0.281585
0.24655
0.212649
0.180743
0.15147
0.125225
0.102162
0.0822412
0.0652846
0.0510306
0.0391818
0.0294308
0.0214837
0.0150701
0.00994637
0.00589944
0.00425413
0.0046011
0.00498738
0.00519022
0.00525187
0.00520849
0.00512645
0.0050889
0.00514374
0.00510784
0.00499125
0.00481751
0.00460466
0.00436884
0.00412261
0.00387371
0.00362508
0.00338075
0.00314109
0.00290555
0.0026746
0.0024493
0.00223315
0.00203072
0.00184764
0.00169021
0.00156348
0.00147149
0.00141628
0.00139703
0.00140749
0.00143289
0.00144868
0.00141941
0.00130903
0.00127964
0.00138779
0.00142237
0.00132928
0.00118112
0.00103824
0.000937597
0.000888661
0.00091819
0.00101313
0.00118138
0.00133983
0.00141451
0.00123677
0.00127307
0.00163903
0.00162023
0.00114876
0.000418265
0.00116602
0.00201193
0.00152126
0.00124008
0.00253378
0.00407997
0.00491612
0.00424297
0.00232758
0.00324903
0.00267491
0.00905467
0.00350162
0.0105131
0.0101759
0.0163205
0.00566775
0.00167544
0.000382975
0.00281829
0.00129995
0.00108759
0.00171246
0.00439705
0.00718935
0.00734846
0.00562778
0.00362761
0.00310583
0.00361992
0.00356284
0.00338457
0.00312722
0.0021964
0.00078144
0.000467953
0.000554953
0.000374937
0.000409063
0.525514
0.5098
0.494597
0.479889
0.464988
0.449105
0.431611
0.412031
0.390072
0.365671
0.339001
0.310441
0.280541
0.249978
0.219505
0.189889
0.161831
0.135895
0.112465
0.0917345
0.0737248
0.0583285
0.0453502
0.0345473
0.0256598
0.0184295
0.0126137
0.00799002
0.00495549
0.004263
0.00472976
0.00499452
0.00510598
0.00510012
0.00500858
0.00501303
0.00506229
0.00507307
0.00499305
0.00484458
0.00465127
0.00443135
0.00419677
0.00395306
0.0037068
0.00345994
0.0032128
0.00296657
0.00272292
0.00248624
0.00226221
0.00205778
0.00188094
0.00173834
0.00163565
0.00157624
0.00156019
0.00158142
0.0016239
0.00166005
0.00164924
0.00154862
0.00149208
0.00157601
0.00160662
0.00149116
0.00131216
0.00113974
0.00101847
0.000959847
0.000995297
0.00110856
0.00130878
0.00150149
0.00160611
0.00143031
0.00135666
0.00183525
0.00188832
0.0013988
0.000570089
0.00130568
0.00224421
0.00162825
0.00145861
0.00313414
0.00491488
0.00560422
0.00463728
0.00232655
0.00370001
0.00292002
0.0099215
0.00371194
0.0117475
0.0118496
0.0176903
0.00692157
0.00223403
0.000444538
0.00321067
0.00143512
0.000997288
0.00220696
0.00535946
0.00824423
0.00791892
0.00577928
0.00361482
0.00328289
0.00386169
0.00383896
0.00365936
0.00341293
0.00249808
0.000932986
0.00051205
0.000649355
0.000421473
0.000488776
0.512402
0.496701
0.48146
0.466781
0.452254
0.437437
0.422001
0.405645
0.388074
0.369046
0.348405
0.326105
0.302213
0.276924
0.250575
0.22364
0.196698
0.170384
0.145311
0.122004
0.100844
0.082049
0.0656785
0.0516656
0.0398552
0.0300395
0.0219873
0.0154639
0.0102448
0.00612309
0.00426199
0.00440135
0.00473631
0.00490161
0.00493858
0.00488431
0.00487797
0.00491263
0.00497523
0.00493519
0.00481812
0.00465088
0.00445134
0.00422878
0.00399332
0.00374933
0.00349852
0.00324323
0.00298599
0.00273232
0.00248917
0.00226501
0.00206972
0.00191178
0.00179866
0.0017353
0.00172287
0.00175557
0.00181637
0.00187492
0.00188568
0.00179907
0.00170656
0.00175653
0.00178517
0.00164904
0.00143969
0.00123704
0.00109413
0.00102477
0.00106541
0.00119624
0.00142803
0.00165582
0.00179488
0.00163069
0.00140306
0.00200375
0.00215059
0.00166439
0.000748729
0.00142275
0.00244354
0.00169247
0.00170151
0.00378368
0.00576728
0.0062378
0.00496601
0.00226513
0.00413553
0.00318984
0.0105271
0.0041855
0.0128035
0.0131092
0.0184294
0.00817538
0.00287246
0.00047975
0.00357531
0.00155105
0.000827195
0.00286409
0.00643862
0.00920114
0.00832533
0.0058464
0.00358561
0.00344335
0.00408686
0.0041053
0.00391974
0.00365378
0.00279008
0.00111373
0.000556926
0.000745049
0.000467599
0.000571991
0.500347
0.484712
0.469528
0.454936
0.440635
0.426333
0.411862
0.397083
0.381829
0.365919
0.349179
0.331449
0.312592
0.292507
0.27117
0.248663
0.225205
0.201156
0.176999
0.153292
0.130601
0.109431
0.0901622
0.0730257
0.0581013
0.0453444
0.0346214
0.0257439
0.0184978
0.0126637
0.0080295
0.00486305
0.00401286
0.00442304
0.00464764
0.00473575
0.00471822
0.00469253
0.00470422
0.0048217
0.0048274
0.00474842
0.00461169
0.00443201
0.00422441
0.00399675
0.00375289
0.00349691
0.00323259
0.00296685
0.00270818
0.00246678
0.00225461
0.00208225
0.00195923
0.00189221
0.00188365
0.00192828
0.00200829
0.00209093
0.00212614
0.00205787
0.00191934
0.00192463
0.00195421
0.0018002
0.00156208
0.00132922
0.00116391
0.00108242
0.00112663
0.00127289
0.0015342
0.00179646
0.00197368
0.00183198
0.00140452
0.00213278
0.00239611
0.0019392
0.000953166
0.00151181
0.00260135
0.00170576
0.00196939
0.0044703
0.00661223
0.00679931
0.0052308
0.00232501
0.00453929
0.00347776
0.0108122
0.00486999
0.0135041
0.0138611
0.0184596
0.00936212
0.00357534
0.000510264
0.00390034
0.00164034
0.000840298
0.00359225
0.00752701
0.0100249
0.00857947
0.00586563
0.00355591
0.00358969
0.00429653
0.0043639
0.00417101
0.00384955
0.00307017
0.00132748
0.000605626
0.000838896
0.000513581
0.000657123
0.489231
0.47369
0.458602
0.444123
0.430016
0.416053
0.40213
0.388186
0.374141
0.3599
0.345364
0.330423
0.314946
0.298778
0.281751
0.26372
0.244602
0.224416
0.203313
0.181588
0.159666
0.138065
0.117327
0.0979439
0.0802972
0.0646212
0.0510033
0.0394069
0.0297068
0.0217242
0.0152533
0.010086
0.00602034
0.00406512
0.00405983
0.00435348
0.00449251
0.00451609
0.00446115
0.00451797
0.00462349
0.0046794
0.00464364
0.00453614
0.00437928
0.00418599
0.00396333
0.00371786
0.00345522
0.00318412
0.00291493
0.00265982
0.00243313
0.0022478
0.00211567
0.00204536
0.00204085
0.00209759
0.00219739
0.00230548
0.00236787
0.0023223
0.00212657
0.00207558
0.00210972
0.00194169
0.00167739
0.0014151
0.00122679
0.00113133
0.00117639
0.00133443
0.00162143
0.00191609
0.00213428
0.00202613
0.00147455
0.00221056
0.00261227
0.00221488
0.00118068
0.00156851
0.00271005
0.00166067
0.00226201
0.00517956
0.00742342
0.00727772
0.00543947
0.00255712
0.00489406
0.00376656
0.0111931
0.00600034
0.0137733
0.014205
0.0178113
0.0104227
0.00432146
0.000683238
0.00417404
0.00169411
0.00109346
0.00437648
0.00859359
0.0106901
0.00870676
0.00587007
0.00353126
0.00372216
0.00449047
0.0046145
0.00441539
0.00400834
0.00333811
0.00156968
0.000661836
0.000927171
0.000559499
0.000742869
0.47896
0.463525
0.448549
0.434188
0.420255
0.406558
0.393018
0.379602
0.366267
0.352962
0.33964
0.326254
0.312745
0.299018
0.284937
0.270329
0.255002
0.238782
0.221554
0.203299
0.184127
0.164294
0.144199
0.124337
0.105239
0.0873913
0.071172
0.0568129
0.0443979
0.0338884
0.0251576
0.0180291
0.0123024
0.00777244
0.00459326
0.00365485
0.00401941
0.00421492
0.0042852
0.00426036
0.00430057
0.00438619
0.00449928
0.00450492
0.00442996
0.00429548
0.00411317
0.00389329
0.00364412
0.00337673
0.00310384
0.00283993
0.00260207
0.00240589
0.00226582
0.00219274
0.00219238
0.00226123
0.00238108
0.00251572
0.00260783
0.00258942
0.00239181
0.0022687
0.00224761
0.00207032
0.00178338
0.00149308
0.00128135
0.00116952
0.0012115
0.00137605
0.00168323
0.00200683
0.00226781
0.00220482
0.00165331
0.00222509
0.00278507
0.00248099
0.00142658
0.00158965
0.00276309
0.00155085
0.00257807
0.00589562
0.00817599
0.00767076
0.0056039
0.00281632
0.00518307
0.00403695
0.0113479
0.00706849
0.0136878
0.0143799
0.0166106
0.0113132
0.0050865
0.00101658
0.00438558
0.00170256
0.00140067
0.00519908
0.00960409
0.0111818
0.00874078
0.00588486
0.00351116
0.00384085
0.0046687
0.00485507
0.00465168
0.00414585
0.00360225
0.00183406
0.000730237
0.00100555
0.000605011
0.000828364
0.46945
0.454127
0.439266
0.425023
0.411244
0.397766
0.384523
0.371492
0.358645
0.345943
0.333356
0.320866
0.308459
0.296109
0.283754
0.271293
0.258576
0.245413
0.2316
0.216948
0.20132
0.184673
0.167095
0.148827
0.130251
0.111856
0.094169
0.0776725
0.0627393
0.0495917
0.0383013
0.0288183
0.0210096
0.0146936
0.0096726
0.00574628
0.00376393
0.00364805
0.00390844
0.00402651
0.00403932
0.00405314
0.00411864
0.0042869
0.00433778
0.00429562
0.00417978
0.00400594
0.00378619
0.00353482
0.00326753
0.00300158
0.00275722
0.00255318
0.00240688
0.00233177
0.00233568
0.00241647
0.00255641
0.00271845
0.0028427
0.00285594
0.0026824
0.00247217
0.00236379
0.0021827
0.00187745
0.0015612
0.00132571
0.00119454
0.00122828
0.00139255
0.00171281
0.00206076
0.00236542
0.00235876
0.00184979
0.00216596
0.00289985
0.00272501
0.00168397
0.00157333
0.00275508
0.00137139
0.00297269
0.00665462
0.00884838
0.00798401
0.00573713
0.00305885
0.00539202
0.00427778
0.0113264
0.00795829
0.0134031
0.0146149
0.0150334
0.0120065
0.00584522
0.00141802
0.00452448
0.00165564
0.00175293
0.00604054
0.0105275
0.0115009
0.00871695
0.00592539
0.0034937
0.00394641
0.0048321
0.00508278
0.00487688
0.00428131
0.00385383
0.0020947
0.000817059
0.00106908
0.000649193
0.000913203
0.460629
0.445417
0.430672
0.416542
0.402901
0.389609
0.376606
0.363875
0.351395
0.339132
0.327057
0.315155
0.303425
0.291867
0.280473
0.269212
0.258014
0.246766
0.235307
0.22344
0.210955
0.197648
0.183371
0.16807
0.151824
0.134867
0.117579
0.100448
0.0840019
0.0687222
0.0549715
0.0429556
0.0327273
0.024218
0.0172836
0.0117371
0.00737849
0.00424225
0.00324357
0.00357032
0.00374141
0.00379598
0.00377763
0.00386969
0.0040482
0.00414456
0.00413155
0.00403181
0.00386335
0.00364485
0.00339591
0.00313725
0.0028929
0.00268524
0.00253519
0.00245919
0.00246757
0.00256003
0.0027199
0.00291001
0.00306871
0.00311816
0.00297571
0.00266394
0.00245427
0.00227534
0.00195674
0.00161712
0.00135766
0.00120363
0.00122284
0.00137868
0.00170364
0.00207046
0.00241876
0.00247887
0.00203479
0.00202487
0.00294219
0.00293282
0.00194372
0.00151906
0.00268195
0.00111934
0.00348255
0.00747416
0.00942386
0.00822957
0.00585044
0.00327207
0.00551119
0.00448832
0.0112316
0.00865894
0.0130248
0.0149924
0.0132249
0.012488
0.00657157
0.00188065
0.00458131
0.00154414
0.0021453
0.00688031
0.0113376
0.0116602
0.00866716
0.0059988
0.00348046
0.00404173
0.00498287
0.0052957
0.00508891
0.00443067
0.00407859
0.00232625
0.000929998
0.00111234
0.000690473
0.000997316
0.452434
0.43733
0.422699
0.408676
0.39516
0.382026
0.369222
0.356734
0.344543
0.332619
0.320935
0.30947
0.298218
0.287183
0.276372
0.265787
0.255415
0.245217
0.235113
0.22498
0.214654
0.203933
0.192597
0.18044
0.167308
0.153144
0.138026
0.122186
0.106009
0.0899895
0.074659
0.0604965
0.047851
0.0369043
0.0276835
0.0200986
0.0139893
0.00916448
0.00542
0.00342725
0.00320217
0.00343399
0.0035279
0.00352527
0.003622
0.00378389
0.00392259
0.00393684
0.00385003
0.00368775
0.00347488
0.00323653
0.00300134
0.00279612
0.00264593
0.00257081
0.00258412
0.00268799
0.00286751
0.00308621
0.00328159
0.00337186
0.00326775
0.00290813
0.00257958
0.00234479
0.00201822
0.00165827
0.00137473
0.00119395
0.00119137
0.00132957
0.00164988
0.00202944
0.00242045
0.00255669
0.00219929
0.00179692
0.00289896
0.00308924
0.0021945
0.00142776
0.00254118
0.000794246
0.00401619
0.00825404
0.00989129
0.00842415
0.00595138
0.00344545
0.00553518
0.00466978
0.0111401
0.00943643
0.0128188
0.0154703
0.0112633
0.0127505
0.00724038
0.0023932
0.00454779
0.00136055
0.00259997
0.00772428
0.0120141
0.0116814
0.00861635
0.00610608
0.0034772
0.00413127
0.0051237
0.00549378
0.00528824
0.00459991
0.00427735
0.00252897
0.0010766
0.00112968
0.000726652
0.00108075
0.444812
0.429811
0.415289
0.401367
0.387963
0.374968
0.362333
0.350044
0.338086
0.326434
0.315058
0.303938
0.293059
0.28242
0.272024
0.261879
0.251993
0.242364
0.232972
0.223768
0.214666
0.205539
0.19622
0.1865
0.176157
0.164984
0.15283
0.139637
0.125486
0.110615
0.0954151
0.0803923
0.0660845
0.0529654
0.0413647
0.0314353
0.0231717
0.0164609
0.0111244
0.0069629
0.00387062
0.00280629
0.00309739
0.00324279
0.00327969
0.0033556
0.00348941
0.00366997
0.00370884
0.00363592
0.00348412
0.00328458
0.00307166
0.00287764
0.00273266
0.00266119
0.00268042
0.0027956
0.00299444
0.00324215
0.00347635
0.00361208
0.00355379
0.00322918
0.00276242
0.00238777
0.00205884
0.00168195
0.00137445
0.00116282
0.00113056
0.00124113
0.00154674
0.00193241
0.00236427
0.00258463
0.00233427
0.00161867
0.00275984
0.00317899
0.00242338
0.00130102
0.00233198
0.000645636
0.00456346
0.00897436
0.0102472
0.00858585
0.006043
0.00357357
0.00546373
0.0048168
0.0110687
0.0101547
0.0126884
0.0160265
0.00921971
0.0127908
0.00782679
0.00294177
0.00441868
0.00110026
0.00320733
0.00864112
0.0125424
0.0115926
0.00858137
0.00624377
0.00349228
0.00421966
0.00525708
0.00567894
0.00547782
0.00478299
0.00445017
0.00271226
0.00126105
0.00111553
0.000754985
0.00116342
0.437713
0.422809
0.408391
0.394566
0.381264
0.36839
0.3559
0.343779
0.332014
0.320582
0.309456
0.298612
0.288036
0.277717
0.267653
0.257846
0.248303
0.239033
0.230039
0.221315
0.212832
0.204536
0.196339
0.188111
0.179675
0.170826
0.161342
0.151019
0.139708
0.127355
0.114047
0.100029
0.0857048
0.0715932
0.058238
0.0461059
0.035501
0.0265414
0.0191854
0.0132911
0.00867004
0.00511152
0.00308888
0.00273695
0.00294114
0.00302005
0.00307052
0.00319017
0.00338384
0.00344812
0.00339387
0.00325975
0.00308809
0.00291824
0.00278661
0.00272325
0.00275025
0.00287703
0.00309497
0.00337204
0.00364711
0.003833
0.0038282
0.00354904
0.00297214
0.00244192
0.00207569
0.00168556
0.00135453
0.00110802
0.00103786
0.00111042
0.00139071
0.00177525
0.00224504
0.00255593
0.00243105
0.0016676
0.00251773
0.00318752
0.0026159
0.00114214
0.00205637
0.00082889
0.00511324
0.0096179
0.0104965
0.00872996
0.00612528
0.00365457
0.00530081
0.00491791
0.0109946
0.0107814
0.0127752
0.0167601
0.00720535
0.0126091
0.00830635
0.00351018
0.00419242
0.000851731
0.00383827
0.00949696
0.0129154
0.0114253
0.00857134
0.0064045
0.0035334
0.00430946
0.005385
0.00585419
0.0056612
0.00496725
0.00459521
0.00288401
0.00148018
0.00106426
0.0007722
0.00124491
0.431095
0.416283
0.401963
0.388227
0.375019
0.362254
0.34989
0.337913
0.326309
0.315059
0.304137
0.29352
0.283191
0.273137
0.263348
0.253822
0.244558
0.235564
0.226845
0.218408
0.210251
0.202362
0.19471
0.187236
0.179848
0.172411
0.16475
0.156659
0.147922
0.138339
0.127764
0.116149
0.103587
0.0903344
0.0768097
0.0635447
0.051089
0.0398983
0.0302461
0.0222073
0.0157048
0.0105668
0.00658956
0.00356818
0.00241189
0.00261806
0.0027505
0.00279019
0.00293347
0.00306395
0.00315801
0.00312931
0.00302746
0.00290112
0.00279531
0.00274738
0.00278563
0.0029251
0.00316216
0.00346896
0.00378687
0.0040276
0.00408417
0.00386127
0.00332206
0.00261372
0.00206623
0.00166679
0.00131308
0.00102809
0.000911731
0.000935505
0.00117935
0.00155488
0.00205835
0.00246434
0.00248078
0.00183608
0.00216837
0.00310168
0.00275739
0.00111898
0.00171838
0.00116096
0.00565366
0.010171
0.01065
0.00886884
0.00619845
0.00368762
0.00505265
0.0049604
0.0108887
0.0113453
0.0131361
0.0175849
0.00530528
0.0122091
0.00865461
0.00407921
0.00387049
0.000916402
0.00448145
0.0102733
0.013133
0.0112106
0.008589
0.00657805
0.00360671
0.00440009
0.00550964
0.00602252
0.00584021
0.00514231
0.0047129
0.00304167
0.0017202
0.000969225
0.000774436
0.00132434
0.424921
0.410195
0.395966
0.382315
0.369192
0.356524
0.344271
0.332418
0.320953
0.309855
0.299102
0.288673
0.278548
0.268712
0.259155
0.249867
0.240843
0.232084
0.223592
0.215373
0.207431
0.199771
0.192385
0.185258
0.178357
0.17162
0.164948
0.158207
0.151224
0.143798
0.135716
0.126784
0.11686
0.105904
0.0940146
0.0814617
0.0686782
0.0562099
0.0446114
0.0343214
0.0255784
0.0184099
0.0126963
0.00824707
0.00484686
0.00276378
0.00227595
0.00247019
0.00256051
0.00265648
0.00275048
0.00284263
0.00285307
0.00280094
0.00274084
0.00272003
0.00277584
0.0029306
0.00318745
0.00352447
0.00388708
0.00418732
0.00431344
0.0041582
0.00367094
0.00288132
0.00213274
0.00162379
0.00124878
0.000922227
0.000751672
0.000715881
0.00091142
0.00126889
0.00180047
0.00230389
0.00247429
0.00197596
0.00171038
0.00291014
0.00283236
0.00128845
0.00132557
0.00163596
0.00627155
0.0106238
0.0107225
0.00901053
0.00626327
0.00367078
0.00472643
0.00493376
0.0107337
0.0118724
0.0136968
0.018325
0.00352517
0.0115955
0.00884532
0.00462625
0.00345843
0.00125756
0.00512394
0.0109524
0.0132031
0.0109772
0.00863236
0.00675351
0.00371742
0.00448752
0.00563364
0.00618678
0.00601495
0.00530576
0.00481206
0.00317265
0.00195742
0.000822203
0.000756963
0.0014004
0.419155
0.404509
0.390366
0.376794
0.36375
0.351169
0.339015
0.327271
0.315924
0.304957
0.294347
0.284073
0.274118
0.264466
0.255102
0.246015
0.237198
0.228645
0.220353
0.212324
0.204562
0.19707
0.18985
0.182902
0.17622
0.169784
0.163557
0.157473
0.151433
0.145304
0.138918
0.132078
0.124577
0.116225
0.106888
0.0965294
0.0852588
0.073356
0.0612694
0.0495576
0.0387785
0.0293505
0.0214677
0.0151109
0.0101208
0.00628928
0.00340607
0.00213596
0.00217476
0.00232239
0.0023931
0.0024954
0.00253694
0.00257739
0.00259456
0.00262158
0.00270604
0.00288143
0.00316006
0.0035282
0.00393731
0.00430165
0.00450576
0.00443047
0.00401012
0.00325732
0.00231751
0.00158478
0.00116082
0.000790605
0.000557923
0.000451426
0.000586038
0.000915002
0.00146844
0.00206871
0.00240187
0.00207553
0.00131465
0.00260308
0.0028267
0.00149056
0.000887859
0.00216961
0.00688689
0.0109715
0.0107319