/*--------------------------------*- C++ -*----------------------------------*\
| =========                 |                                                 |
| \\      /  F ield         | OpenFOAM: The Open Source CFD Toolbox           |
|  \\    /   O peration     | Version:  2412                                  |
|   \\  /    A nd           | Website:  www.openfoam.com                      |
|    \\/     M anipulation  |                                                 |
\*---------------------------------------------------------------------------*/
FoamFile
{
    version     2.0;
    format      ascii;
    arch        "LSB;label=32;scalar=64";
    class       volVectorField;
    location    "0.08";
    object      U;
}
// * * * * * * * * * * * * * * * * * * * * * * * * * * * * * * * * * * * * * //

dimensions      [0 1 -1 0 0 0 0];

internalField   nonuniform List<vector> 
12600
(
(14.4564 0 -3.47784)
(9.01397 -1.21211e-19 -2.53426)
(5.40646 -9.72323e-20 -2.46188)
(3.88282 0 -2.13839)
(3.21837 1.58942e-21 -1.83201)
(2.80051 0 -1.60383)
(2.49744 8.86639e-20 -1.43434)
(2.26605 0 -1.30363)
(2.08205 0 -1.19937)
(1.93125 0 -1.11369)
(1.80483 0 -1.04161)
(1.69691 1.42226e-19 -0.979878)
(1.60342 1.35996e-19 -0.926253)
(1.52142 0 -0.879117)
(1.44874 -2.48671e-19 -0.837269)
(1.38373 0 -0.799797)
(1.32515 -6.56495e-23 -0.765994)
(1.27199 0 -0.735301)
(1.22349 -1.04106e-19 -0.707275)
(1.179 0 -0.681554)
(1.13799 0 -0.657844)
(1.10006 0 -0.635899)
(1.06483 -3.49002e-19 -0.615516)
(1.03201 3.33916e-19 -0.596522)
(1.00134 3.1783e-23 -0.578772)
(0.97261 -1.52847e-19 -0.56214)
(0.945625 0 -0.546518)
(0.920228 0 -0.531815)
(0.896276 0 -0.517948)
(0.873648 2.56091e-19 -0.504847)
(0.852235 4.89942e-19 -0.492449)
(0.831941 0 -0.480699)
(0.812682 0 -0.469549)
(0.794382 2.14411e-19 -0.458954)
(0.776974 2.0507e-19 -0.448876)
(0.760398 0 -0.43928)
(0.744597 0 -0.430133)
(0.729523 3.58671e-19 -0.421408)
(0.71513 0 -0.413077)
(0.701377 -1.74614e-23 -0.405117)
(0.688226 3.1345e-19 -0.397507)
(0.675646 2.99636e-19 -0.390228)
(0.663605 0 -0.383261)
(0.652077 2.73686e-19 -0.376592)
(0.641039 2.61508e-19 -0.370206)
(0.630467 -4.99698e-19 -0.364091)
(0.620343 4.77369e-19 -0.358235)
(0.610648 0 -0.352629)
(0.601365 -4.35429e-19 -0.34726)
(0.592482 4.15761e-19 -0.342123)
(0.583981 0 -0.337208)
(0.575856 1.00206e-23 -0.332509)
(0.56809 -3.61542e-19 -0.328019)
(0.560675 0 -0.323732)
(0.553604 6.58113e-19 -0.319644)
(0.546867 0 -0.315749)
(0.540463 0 -0.312047)
(0.534377 -1.1779e-23 -0.308529)
(0.528617 -1.12853e-23 -0.305209)
(0.523177 -5.18102e-19 -0.302062)
(0.518034 4.93547e-19 -0.299089)
(0.513194 -9.40033e-19 -0.296294)
(0.508663 0 -0.293678)
(0.504445 -8.5184e-19 -0.291242)
(0.500542 -8.10528e-19 -0.288988)
(0.496958 1.542e-18 -0.286919)
(0.4937 -7.33168e-19 -0.285038)
(0.490776 0 -0.28335)
(0.488196 0 -0.281862)
(0.485976 0 -0.280582)
(0.484132 0 -0.27952)
(0.482688 0 -0.278689)
(0.481667 1.07635e-18 -0.278105)
(0.481103 -1.02093e-18 -0.277787)
(0.481037 0 -0.277759)
(0.481517 0 -0.278048)
(0.482589 -8.68817e-19 -0.278683)
(0.484327 -3.45939e-24 -0.279707)
(0.486835 -1.55638e-18 -0.28118)
(0.490203 0 -0.283153)
(0.494483 0 -0.285659)
(0.499795 0 -0.288772)
(0.506424 -4.0433e-23 -0.292656)
(0.514692 0 -0.297485)
(0.524686 0 -0.303292)
(0.536127 -1.03374e-18 -0.309905)
(0.548525 -4.20025e-23 -0.317046)
(0.561458 0 -0.324485)
(0.57474 0 -0.332127)
(0.588381 1.61589e-18 -0.339982)
(0.602476 1.51833e-18 -0.348106)
(0.617104 1.42622e-18 -0.35654)
(0.632306 1.33914e-18 -0.365306)
(0.648093 -3.0673e-23 -0.374411)
(0.664475 -2.69169e-23 -0.383858)
(0.681456 -1.10617e-18 -0.39365)
(0.699058 0 -0.403801)
(0.717291 0 -0.414316)
(0.736194 0 -0.425219)
(0.755784 -3.4124e-18 -0.436519)
(0.776123 1.59749e-18 -0.448253)
(0.797223 -1.49515e-18 -0.460427)
(0.819169 -1.39881e-18 -0.473092)
(0.841946 0 -0.486237)
(0.865676 0 -0.499932)
(0.890293 0 -0.51414)
(0.915984 -2.13535e-18 -0.528968)
(0.942589 0 -0.544324)
(0.97045 1.86141e-18 -0.560405)
(0.999159 0 -0.576977)
(1.02946 0 -0.594463)
(1.06034 -1.51085e-18 -0.612289)
(1.09336 0 -0.631347)
(1.12665 0 -0.650564)
(1.16201 0 -0.670976)
(1.19953 2.2774e-18 -0.692624)
(1.23352 0 -0.712282)
(1.2817 -1.9726e-18 -0.740054)
(1.30403 0 -0.753034)
(1.37107 1.20783e-23 -0.791689)
(25.542 1.18729e-20 -5.94911)
(21.4741 8.09796e-20 -6.23284)
(16.7877 1.38191e-20 -6.69722)
(13.4156 0 -6.34623)
(11.2235 1.00109e-19 -5.74837)
(9.72929 -9.43481e-20 -5.18172)
(8.65204 -9.24598e-20 -4.70339)
(7.83467 8.77009e-20 -4.3106)
(7.18733 0 -3.98677)
(6.65827 0 -3.71558)
(6.21551 0 -3.48468)
(5.83805 0 -3.28518)
(5.51142 0 -3.11068)
(5.22524 0 -2.95643)
(4.97187 2.13432e-22 -2.81887)
(4.74552 0 -2.69522)
(4.54173 -1.18441e-19 -2.58332)
(4.35703 0 -2.48145)
(4.18863 2.1658e-19 -2.38821)
(4.0343 -2.07072e-19 -2.30247)
(3.89221 0 -2.2233)
(3.76085 -1.89436e-19 -2.14992)
(3.63895 1.81272e-19 -2.08167)
(3.52547 -1.73357e-19 -2.01799)
(3.41951 1.65782e-19 -1.95843)
(3.3203 0 -1.90256)
(3.22718 -1.51545e-19 -1.85005)
(3.13959 0 -1.80058)
(3.05703 0 -1.7539)
(2.97908 0 -1.70977)
(2.90535 -2.53351e-19 -1.66798)
(2.83551 0 -1.62837)
(2.76926 0 -1.59075)
(2.70634 0 -1.55499)
(2.64651 0 -1.52097)
(2.58956 0 -1.48856)
(2.5353 0 -1.45766)
(2.48355 -3.69009e-19 -1.42818)
(2.43417 0 -1.40002)
(2.387 -6.73458e-19 -1.37311)
(2.34191 -6.4323e-19 -1.34738)
(2.2988 -3.07126e-19 -1.32276)
(2.25755 0 -1.29919)
(2.21806 0 -1.27663)
(2.18027 -5.34553e-19 -1.25503)
(2.14409 5.10207e-19 -1.23434)
(2.10945 -4.8684e-19 -1.21452)
(2.07629 0 -1.19554)
(2.04454 4.4309e-19 -1.17737)
(2.01417 0 -1.15998)
(1.98511 0 -1.14334)
(1.95734 3.84187e-19 -1.12743)
(1.9308 0 -1.11223)
(1.90546 0 -1.09771)
(1.8813 -6.64913e-19 -1.08386)
(1.85829 0 -1.07067)
(1.83642 0 -1.05812)
(1.81563 -1.93589e-23 -1.04619)
(1.79597 -5.46468e-19 -1.03492)
(1.77737 1.59734e-23 -1.02427)
(1.75978 0 -1.01423)
(1.74324 9.40777e-19 -1.00478)
(1.72776 8.94398e-19 -0.995929)
(1.71334 0 -0.987687)
(1.7 1.61536e-18 -0.980059)
(1.68775 -1.72045e-23 -0.973056)
(1.6766 0 -0.96669)
(1.6666 -6.91431e-19 -0.960978)
(1.65777 0 -0.955945)
(1.65017 0 -0.951617)
(1.64386 0 -0.948032)
(1.63891 0 -0.945235)
(1.63542 -2.11968e-18 -0.943277)
(1.63349 1.00374e-18 -0.942226)
(1.63328 0 -0.942168)
(1.63494 0 -0.943194)
(1.63866 -8.50367e-19 -0.945409)
(1.64469 -5.98399e-24 -0.948967)
(1.65339 -1.05388e-23 -0.954072)
(1.66504 0 -0.96089)
(1.6799 0 -0.969554)
(1.69842 0 -0.980351)
(1.72153 -6.79079e-23 -0.993825)
(1.75014 1.13078e-18 -1.01048)
(1.78428 -1.06312e-18 -1.03031)
(1.82293 9.98804e-19 -1.05269)
(1.86452 -6.93581e-23 -1.07672)
(1.90784 8.81071e-19 -1.10171)
(1.95238 0 -1.1274)
(1.99825 -1.55314e-18 -1.15386)
(2.04572 0 -1.18126)
(2.09503 -1.36748e-18 -1.20972)
(2.14629 0 -1.2393)
(2.19952 2.40483e-18 -1.27002)
(2.25474 1.12691e-18 -1.3019)
(2.31199 0 -1.33493)
(2.37131 0 -1.36917)
(2.43276 1.8519e-18 -1.40463)
(2.49647 -1.73342e-18 -1.4414)
(2.5625 3.24395e-18 -1.47951)
(2.63106 -1.51719e-18 -1.51908)
(2.70218 1.41872e-18 -1.56014)
(2.77615 0 -1.60283)
(2.85291 -1.23927e-18 -1.64714)
(2.93286 0 -1.69329)
(3.01576 0 -1.74115)
(3.10228 2.01817e-18 -1.79109)
(3.1918 0 -1.84278)
(3.28555 3.1043e-23 -1.89689)
(3.38206 -1.63824e-18 -1.95261)
(3.4839 0 -2.01139)
(3.58762 0 -2.07128)
(3.69843 0 -2.13524)
(3.8102 -1.23512e-18 -2.19975)
(3.9286 2.2997e-18 -2.26816)
(4.05457 -2.14095e-18 -2.34074)
(4.1682 0 -2.40657)
(4.33004 1.85276e-18 -2.49959)
(4.4049 0 -2.54319)
(4.63021 -3.19966e-18 -2.67265)
(28.7135 -2.68264e-20 -8.04223)
(27.8279 2.73816e-20 -7.97456)
(25.0944 1.56082e-19 -8.63084)
(21.9546 0 -8.87095)
(19.1759 8.68156e-20 -8.66035)
(16.9454 2.70687e-21 -8.20681)
(15.1971 0 -7.68248)
(13.8133 -8.32211e-20 -7.17593)
(12.6953 0 -6.71754)
(11.772 -7.60082e-20 -6.31199)
(10.9943 0 -5.95468)
(10.3284 0 -5.63875)
(9.75057 0 -5.3577)
(9.24323 0 -5.10603)
(8.79343 1.22695e-19 -4.87925)
(8.39125 0 -4.67372)
(8.02896 0 -4.48644)
(7.70048 0 -4.31498)
(7.40096 -1.02716e-19 -4.1573)
(7.12645 1.52505e-22 -4.01172)
(6.87372 0 -3.87682)
(6.6401 1.04945e-22 -3.7514)
(6.42336 0 -3.63446)
(6.22163 1.64309e-19 -3.5251)
(6.0333 0 -3.4226)
(5.85701 0 -3.3263)
(5.6916 1.43729e-19 -3.23563)
(5.53605 0 -3.1501)
(5.38948 0 -3.06929)
(5.25112 2.51154e-19 -2.99281)
(5.12028 0 -2.92032)
(4.99638 0 -2.85153)
(4.87889 0 -2.78616)
(4.76732 0 -2.72397)
(4.66126 -2.00341e-19 -2.66476)
(4.56034 0 -2.60832)
(4.46421 0 -2.55448)
(4.37256 3.49466e-19 -2.50308)
(4.2851 0 -2.45398)
(4.2016 6.37694e-19 -2.40703)
(4.1218 2.71335e-23 -2.36212)
(4.04551 2.90758e-19 -2.31914)
(3.97254 0 -2.27798)
(3.90271 0 -2.23857)
(3.83589 2.52901e-19 -2.20083)
(3.77193 0 -2.16467)
(3.7107 4.60514e-19 -2.13003)
(3.65209 0 -2.09685)
(3.59599 -2.18571e-23 -2.06508)
(3.54233 0 -2.03467)
(3.491 0 -2.00556)
(3.44194 0 -1.97773)
(3.39507 3.45968e-19 -1.95112)
(3.35033 0 -1.92572)
(3.30767 0 -1.90148)
(3.26702 0 -1.87839)
(3.22839 0 -1.85642)
(3.19169 -1.08383e-18 -1.83554)
(3.15696 0 -1.81576)
(3.1241 1.32985e-23 -1.79713)
(3.09303 0 -1.77955)
(3.06382 -4.43595e-19 -1.76299)
(3.03646 -8.43273e-19 -1.74749)
(3.01098 0 -1.73305)
(2.98738 -1.52229e-18 -1.71969)
(2.96571 -7.22802e-19 -1.70742)
(2.94599 0 -1.69627)
(2.92827 6.51151e-19 -1.68626)
(2.91262 0 -1.67744)
(2.89913 0 -1.66986)
(2.8879 0 -1.66359)
(2.87908 0 -1.6587)
(2.87281 1.0187e-23 -1.65529)
(2.86931 -9.43929e-19 -1.65348)
(2.86883 0 -1.65343)
(2.87166 0 -1.65529)
(2.87811 -1.43369e-24 -1.65926)
(2.88867 1.51047e-18 -1.66563)
(2.90394 7.13335e-19 -1.67475)
(2.92444 0 -1.68689)
(2.95062 0 -1.70234)
(2.98337 0 -1.72165)
(3.02426 2.2555e-18 -1.74574)
(3.0746 6.58286e-23 -1.77531)
(3.13428 9.97285e-19 -1.81017)
(3.20143 0 -1.84915)
(3.27346 8.79745e-19 -1.89078)
(3.34845 -8.26e-19 -1.934)
(3.42566 0 -1.97849)
(3.50527 0 -2.02438)
(3.58774 -1.36583e-18 -2.07196)
(3.67343 0 -2.1214)
(3.76251 -1.2013e-18 -2.1728)
(3.855 4.17292e-23 -2.22617)
(3.95093 -1.05519e-18 -2.28152)
(4.05034 9.88453e-19 -2.33887)
(4.15332 0 -2.39829)
(4.25995 -1.73308e-18 -2.45981)
(4.37047 1.62195e-18 -2.52358)
(4.48497 -3.03499e-18 -2.58965)
(4.6038 0 -2.65823)
(4.72701 1.32699e-18 -2.72933)
(4.85509 0 -2.80326)
(4.98788 1.1588e-18 -2.87991)
(5.12613 -1.08235e-18 -2.95971)
(5.26931 0 -3.04236)
(5.41867 -1.88647e-18 -3.12857)
(5.57297 0 -3.21765)
(5.7345 -3.2837e-18 -3.31088)
(5.90046 1.53088e-18 -3.40671)
(6.07553 0 -3.50774)
(6.25345 0 -3.61048)
(6.44337 0 -3.7201)
(6.63472 -1.44742e-23 -3.83051)
(6.83669 -2.14809e-18 -3.94729)
(7.05233 1.99971e-18 -4.0713)
(7.2445 0 -4.18308)
(7.52212 1.73029e-18 -4.34189)
(7.64696 0 -4.41552)
(8.03326 -1.72681e-23 -4.63622)
(29.3657 1.47448e-20 -9.69443)
(30.1322 -1.14297e-21 -9.19854)
(29.4181 -6.92669e-20 -9.64754)
(27.6827 7.17683e-20 -10.1968)
(25.5369 7.17891e-20 -10.4448)
(23.3888 1.60916e-19 -10.3624)
(21.4363 0 -10.0611)
(19.7406 0 -9.65078)
(18.2901 0 -9.20459)
(17.0488 7.19839e-20 -8.76315)
(15.9788 0 -8.34567)
(15.048 0 -7.95886)
(14.2308 0 -7.60337)
(13.5073 0 -7.27734)
(12.8616 0 -6.97813)
(12.2814 1.10784e-19 -6.703)
(11.7567 -1.06029e-19 -6.44936)
(11.2796 0 -6.21491)
(10.8434 0 -5.9976)
(10.4429 1.85928e-19 -5.79562)
(10.0736 -1.77693e-19 -5.6074)
(9.73186 1.7009e-19 -5.43157)
(9.41444 -1.62571e-19 -5.26693)
(9.11876 -1.55566e-19 -5.11243)
(8.84254 1.48693e-19 -4.96715)
(8.58386 -1.42189e-19 -4.83027)
(8.34102 0 -4.7011)
(8.11259 1.29994e-19 -4.57898)
(7.89728 0 -4.46338)
(7.69399 -2.37682e-19 -4.35378)
(7.50173 0 -4.24974)
(7.31964 0 -4.15087)
(7.14695 0 -4.0568)
(6.98296 1.98285e-19 -3.96722)
(6.82707 1.895e-19 -3.88183)
(6.67872 0 -3.80037)
(6.53742 0 -3.7226)
(6.40271 -3.3044e-19 -3.64829)
(6.27418 0 -3.57725)
(6.15146 -3.29943e-23 -3.50929)
(6.0342 2.87793e-19 -3.44424)
(5.92211 0 -3.38196)
(5.8149 0 -3.3223)
(5.71233 0 -3.26515)
(5.61418 0 -3.21038)
(5.52023 4.55829e-19 -3.1579)
(5.4303 0 -3.10761)
(5.34424 -4.14747e-19 -3.05943)
(5.26186 -3.95527e-19 -3.01327)
(5.18307 0 -2.96909)
(5.1077 0 -2.92678)
(5.03567 0 -2.88632)
(4.96685 -3.26397e-19 -2.84763)
(4.90116 3.10906e-19 -2.81069)
(4.83851 5.9219e-19 -2.77543)
(4.77884 0 -2.74183)
(4.7221 5.36713e-19 -2.70987)
(4.66819 1.02154e-18 -2.67948)
(4.61718 0 -2.65068)
(4.56889 9.24388e-19 -2.62353)
(4.52326 0 -2.5979)
(4.48033 4.17765e-19 -2.57378)
(4.44011 7.94012e-19 -2.55118)
(4.40264 0 -2.53013)
(4.36793 7.16421e-19 -2.51065)
(4.33602 6.80167e-19 -2.49275)
(4.30695 0 -2.47647)
(4.28082 0 -2.46187)
(4.2577 0 -2.44899)
(4.23773 -5.50787e-19 -2.43792)
(4.22106 -5.22022e-19 -2.42875)
(4.2079 0 -2.4216)
(4.19847 9.36774e-19 -2.41661)
(4.19307 8.86793e-19 -2.41396)
(4.19209 0 -2.41387)
(4.19593 0 -2.41659)
(4.20509 7.5031e-19 -2.4224)
(4.22026 5.24893e-24 -2.43174)
(4.24231 0 -2.44509)
(4.27199 0 -2.46288)
(4.31002 0 -2.48554)
(4.35777 0 -2.51393)
(4.41735 6.07475e-23 -2.5493)
(4.49043 -9.9484e-19 -2.59249)
(4.57656 0 -2.64301)
(4.67302 0 -2.69914)
(4.77627 0 -2.75885)
(4.88376 -7.73993e-19 -2.82081)
(4.99457 0 -2.88464)
(5.10895 -1.36343e-18 -2.95058)
(5.22754 1.27903e-18 -3.01898)
(5.35076 -1.19958e-18 -3.09009)
(5.47884 1.1246e-18 -3.164)
(5.61178 -2.10804e-18 -3.2407)
(5.74962 9.8751e-19 -3.32023)
(5.89237 -9.24924e-19 -3.40257)
(6.04017 0 -3.48783)
(6.1931 0 -3.57606)
(6.35148 1.51718e-18 -3.66744)
(6.51543 1.41922e-18 -3.76204)
(6.68546 1.32724e-18 -3.86015)
(6.86155 2.94146e-23 -3.96178)
(7.04443 0 -4.06733)
(7.23377 0 -4.17662)
(7.43068 1.01167e-18 -4.29027)
(7.63424 0 -4.40779)
(7.84638 1.763e-18 -4.53022)
(8.06499 0 -4.65645)
(8.29369 -2.6265e-23 -4.78843)
(8.5279 0 -4.92368)
(8.77485 1.33319e-18 -5.06618)
(9.02484 -1.24224e-18 -5.21055)
(9.29145 -1.15713e-18 -5.36444)
(9.55931 -1.49258e-23 -5.51895)
(9.84068 0 -5.68178)
(10.1423 -1.86747e-18 -5.85489)
(10.4063 -1.73734e-18 -6.00908)
(10.7951 -1.61568e-18 -6.23044)
(10.9626 0 -6.33045)
(11.5016 -2.21616e-23 -6.63672)
(29.4799 0 -10.8623)
(30.5304 7.81789e-23 -10.2672)
(30.9107 0 -10.3936)
(30.5059 -6.78534e-20 -10.8841)
(29.4704 -1.45557e-19 -11.3535)
(28.0466 -7.44239e-20 -11.6149)
(26.4675 0 -11.6426)
(24.8962 0 -11.4849)
(23.418 6.87091e-20 -11.2056)
(22.0655 6.65922e-20 -10.8588)
(20.8431 -6.42384e-20 -10.4826)
(19.7431 -1.23578e-19 -10.1015)
(18.7528 -1.18653e-19 -9.72912)
(17.8592 0 -9.37236)
(17.0499 0 -9.03412)
(16.3141 -2.09194e-19 -8.71518)
(15.6425 2.13601e-22 -8.41524)
(15.0272 0 -8.13347)
(14.4612 9.16354e-20 -7.86881)
(13.9389 1.75371e-19 -7.62009)
(13.4552 1.67965e-19 -7.38614)
(13.006 0 -7.16587)
(12.5876 1.53657e-19 -6.95821)
(12.1968 -1.4685e-19 -6.76219)
(11.831 -1.40525e-19 -6.57693)
(11.4878 6.97496e-23 -6.40162)
(11.1651 0 -6.23552)
(10.8612 -4.97761e-23 -6.07797)
(10.5743 0 -5.92835)
(10.3032 -2.24417e-19 -5.78612)
(10.0466 0 -5.65078)
(9.80342 0 -5.52187)
(9.5726 0 -5.39899)
(9.3533 -1.87264e-19 -5.28177)
(9.14471 0 -5.16985)
(8.94614 0 -5.06292)
(8.75693 0 -4.9607)
(8.57649 0 -4.86292)
(8.40428 2.97835e-19 -4.76934)
(8.23982 -5.6884e-19 -4.67973)
(8.08266 0 -4.59389)
(7.9324 -2.59216e-19 -4.51163)
(7.78867 0 -4.43278)
(7.65113 0 -4.35718)
(7.51951 0 -4.28471)
(7.39352 -3.53208e-23 -4.21521)
(7.2729 0 -4.14858)
(7.15746 3.91049e-19 -4.08472)
(7.04696 0 -4.0235)
(6.94125 0 -3.96488)
(6.84013 3.38731e-19 -3.90873)
(6.74348 0 -3.85501)
(6.65112 0 -3.80362)
(6.56296 -1.45042e-23 -3.75454)
(6.47888 -5.57758e-19 -3.70767)
(6.39876 0 -3.663)
(6.32258 -2.09749e-23 -3.62048)
(6.25018 -9.61627e-19 -3.58005)
(6.18164 0 -3.54171)
(6.11675 -4.34947e-19 -3.50554)
(6.05542 0 -3.47142)
(5.9977 -3.93006e-19 -3.43928)
(5.94361 -7.46821e-19 -3.40917)
(5.89318 0 -3.38111)
(5.84642 -6.73563e-19 -3.35511)
(5.8034 -1.64555e-23 -3.33122)
(5.76418 0 -3.30949)
(5.72885 0 -3.28997)
(5.69755 0 -3.27275)
(5.67043 1.03477e-18 -3.25793)
(5.64771 8.54169e-24 -3.24563)
(5.62964 0 -3.23602)
(5.61654 -8.79464e-19 -3.22928)
(5.60881 -1.66481e-18 -3.22565)
(5.60693 0 -3.22543)
(5.61147 0 -3.22894)
(5.62309 0 -3.23659)
(5.64271 4.93477e-24 -3.24895)
(5.67146 0 -3.26666)
(5.71034 0 -3.29027)
(5.76036 0 -3.3204)
(5.82336 0 -3.35824)
(5.90198 -9.91227e-19 -3.40533)
(5.99811 -9.32321e-19 -3.46253)
(6.11091 0 -3.52902)
(6.23684 0 -3.60247)
(6.37148 0 -3.68038)
(6.51172 -5.06644e-23 -3.76121)
(6.65646 0 -3.84457)
(6.80601 1.27636e-18 -3.93077)
(6.96111 0 -4.02024)
(7.12228 1.12265e-18 -4.11325)
(7.28974 0 -4.20988)
(7.46347 9.86178e-19 -4.31012)
(7.6435 0 -4.41397)
(7.82979 0 -4.52142)
(8.02249 0 -4.63256)
(8.22167 0 -4.74745)
(8.42772 -1.41862e-18 -4.86632)
(8.64072 0 -4.98921)
(8.86131 -1.24075e-18 -5.11649)
(9.08939 -1.15981e-18 -5.24812)
(9.3259 0 -5.38461)
(9.57024 0 -5.52565)
(9.82395 0 -5.67208)
(10.0855 0 -5.82308)
(10.3577 3.23605e-23 -5.98016)
(10.6372 0 -6.14154)
(10.9292 2.86623e-18 -6.31006)
(11.2269 0 -6.48197)
(11.5405 -2.49051e-18 -6.66291)
(11.8561 1.16021e-18 -6.84521)
(12.1924 1.08066e-18 -7.03929)
(12.5285 1.00637e-18 -7.23314)
(12.8795 0 -7.43651)
(13.2572 0 -7.65272)
(13.5802 3.24435e-18 -7.84241)
(14.0666 -1.50852e-18 -8.11773)
(14.2653 -1.40306e-18 -8.23831)
(14.9336 1.30184e-18 -8.61577)
(29.551 0 -11.6878)
(30.3894 -4.50421e-20 -11.1782)
(31.0654 0 -11.0729)
(31.3855 0 -11.3449)
(31.2407 0 -11.7902)
(30.6549 0 -12.2087)
(29.7465 0 -12.4888)
(28.6496 -6.41036e-20 -12.6015)
(27.4709 -6.48508e-20 -12.5638)
(26.2822 -1.24535e-19 -12.4102)
(25.1268 1.20434e-19 -12.1757)
(24.0275 1.1664e-19 -11.8907)
(22.9947 1.11992e-19 -11.5778)
(22.031 0 -11.2533)
(21.1349 0 -10.9273)
(20.3028 1.96828e-19 -10.6063)
(19.53 1.88529e-19 -10.2941)
(18.8117 0 -9.99275)
(18.1433 -8.64856e-20 -9.70346)
(17.5204 -1.6551e-19 -9.42661)
(16.9387 0 -9.16224)
(16.3947 -1.51295e-19 -8.91011)
(15.885 0 -8.6698)
(15.4065 1.23296e-22 -8.44083)
(14.9565 1.32417e-19 -8.22266)
(14.5328 8.49405e-23 -8.01473)
(14.133 0 -7.81651)
(13.7554 -1.15834e-19 -7.62745)
(13.3981 2.21366e-19 -7.44705)
(13.0596 4.23302e-19 -7.27481)
(12.7387 2.0226e-19 -7.11029)
(12.4339 0 -6.95306)
(12.1442 1.84727e-19 -6.80271)
(11.8686 0 -6.65888)
(11.6061 0 -6.52122)
(11.356 0 -6.3894)
(11.1174 0 -6.26313)
(10.8897 0 -6.14211)
(10.6722 -4.5999e-23 -6.02609)
(10.4643 2.6805e-19 -5.91483)
(10.2656 0 -5.8081)
(10.0754 4.88491e-19 -5.70569)
(9.89348 0 -5.60741)
(9.7193 0 -5.51309)
(9.55254 0 -5.42256)
(9.39285 -4.04883e-19 -5.33569)
(9.23992 0 -5.25233)
(9.09351 0 -5.17236)
(8.95332 0 -5.09566)
(8.81917 0 -5.02216)
(8.6908 -6.37662e-19 -4.9517)
(8.56807 0 -4.88427)
(8.45077 0 -4.81972)
(8.33876 -2.75552e-19 -4.75802)
(8.2319 0 -4.6991)
(8.13006 0 -4.64289)
(8.03318 -9.5047e-19 -4.58938)
(7.94108 4.52123e-19 -4.53846)
(7.85384 0 -4.49017)
(7.77122 0 -4.44455)
(7.69311 0 -4.4015)
(7.61956 3.6931e-19 -4.36095)
(7.5506 0 -4.32293)
(7.48624 0 -4.28748)
(7.42653 1.26537e-18 -4.25463)
(7.37152 -1.20096e-18 -4.22441)
(7.32129 0 -4.19689)
(7.27597 0 -4.17215)
(7.23572 0 -4.15029)
(7.20072 -4.85594e-19 -4.13144)
(7.17126 4.60075e-19 -4.11576)
(7.14764 8.71449e-19 -4.10345)
(7.13025 8.25031e-19 -4.09474)
(7.11959 7.80754e-19 -4.08994)
(7.11628 -7.38531e-19 -4.08942)
(7.121 0 -4.09359)
(7.1346 0 -4.10297)
(7.15823 -6.23343e-19 -4.11827)
(7.19326 0 -4.14027)
(7.24094 0 -4.16967)
(7.30261 0 -4.2073)
(7.38053 0 -4.25462)
(7.47782 0 -4.31347)
(7.59649 1.74632e-18 -4.38464)
(7.73535 0 -4.4669)
(7.89006 7.70286e-19 -4.55738)
(8.05545 0 -4.65319)
(8.22788 -5.05258e-23 -4.75257)
(8.40604 -1.27325e-18 -4.85516)
(8.59025 0 -4.96134)
(8.78134 0 -5.07157)
(8.97984 0 -5.18613)
(9.18598 0 -5.30509)
(9.39971 -9.22433e-19 -5.4284)
(9.621 0 -5.55604)
(9.84972 0 -5.68795)
(10.086 0 -5.82423)
(10.3299 0 -5.96487)
(10.5817 0 -6.11014)
(10.8416 0 -6.26004)
(11.1102 0 -6.415)
(11.3872 0 -6.57486)
(11.6738 1.01277e-18 -6.74028)
(11.9691 0 -6.91071)
(12.275 0 -7.08725)
(12.5892 0 -7.26862)
(12.9154 -1.53874e-18 -7.45688)
(13.2487 0 -7.64937)
(13.5964 -1.33856e-18 -7.84999)
(13.9485 0 -8.05335)
(14.3191 -1.94412e-23 -8.26714)
(14.6889 0 -8.4808)
(15.0826 -1.00914e-18 -8.70798)
(15.4731 0 -8.93305)
(15.8781 0 -9.16807)
(16.3147 0 -9.41717)
(16.6787 -1.51449e-18 -9.63243)
(17.2377 2.81662e-18 -9.94671)
(17.4543 2.61964e-18 -10.0808)
(18.2111 1.21522e-18 -10.5053)
(29.636 0 -12.2864)
(30.2415 4.37724e-20 -11.9001)
(30.8432 0 -11.7043)
(31.3659 0 -11.7805)
(31.6722 5.3143e-20 -12.0797)
(31.6764 5.57941e-20 -12.4758)
(31.3805 -5.74134e-20 -12.8527)
(30.8398 1.76386e-19 -13.1402)
(30.1237 0 -13.3108)
(29.2957 1.42927e-21 -13.3651)
(28.4058 -5.63684e-20 -13.3185)
(27.491 0 -13.1917)
(26.5771 0 -13.0052)
(25.6812 0 -12.7771)
(24.8138 0 -12.5218)
(23.9811 -4.84324e-22 -12.2504)
(23.1863 -3.73783e-22 -11.9709)
(22.4303 -8.46704e-20 -11.6888)
(21.7131 -8.11141e-20 -11.4082)
(21.0335 0 -11.1317)
(20.3901 1.48724e-19 -10.8612)
(19.781 1.42577e-19 -10.5979)
(19.2044 0 -10.3426)
(18.6583 1.57185e-22 -10.0957)
(18.1408 -1.29224e-22 -9.85741)
(17.6501 1.19317e-19 -9.62782)
(17.1845 0 -9.40681)
(16.7423 0 -9.19422)
(16.322 -2.08545e-19 -8.98983)
(15.9223 -1.04746e-22 -8.79341)
(15.5418 -3.80959e-19 -8.60466)
(15.1793 0 -8.42332)
(14.8338 -3.47907e-19 -8.24909)
(14.5042 0 -8.0817)
(14.1896 0 -7.92088)
(13.8892 1.5166e-19 -7.76634)
(13.6021 0 -7.61784)
(13.3276 2.76678e-19 -7.47511)
(13.065 -5.31946e-23 -7.33792)
(12.8137 -2.52239e-19 -7.20605)
(12.5732 0 -7.07926)
(12.3428 -3.55762e-23 -6.95737)
(12.1221 0 -6.84019)
(11.9106 0 -6.72754)
(11.708 0 -6.61926)
(11.5138 0 -6.51521)
(11.3277 0 -6.41523)
(11.1494 -3.46261e-19 -6.31921)
(10.9785 0 -6.227)
(10.815 0 -6.13854)
(10.6583 2.99771e-19 -6.05368)
(10.5085 0 -5.97237)
(10.3652 2.71965e-19 -5.89448)
(10.2284 2.58963e-19 -5.81997)
(10.0977 -4.93046e-19 -5.74875)
(9.97314 0 -5.68077)
(9.85457 4.46497e-19 -5.616)
(9.74179 4.24696e-19 -5.55433)
(9.63488 0 -5.49578)
(9.53357 0 -5.44042)
(9.43774 0 -5.38817)
(9.34746 -3.46753e-19 -5.33892)
(9.26274 0 -5.29271)
(9.1836 0 -5.24959)
(9.11008 -5.93782e-19 -5.20958)
(9.04225 1.12694e-18 -5.17275)
(8.98022 0 -5.13917)
(8.92412 0 -5.10893)
(8.87415 0 -5.08217)
(8.83053 0 -5.05902)
(8.79358 4.31406e-19 -5.0397)
(8.76368 -8.17064e-19 -5.02444)
(8.74129 0 -5.01352)
(8.727 0 -5.00731)
(8.72153 6.92146e-19 -5.00626)
(8.72572 0 -5.01085)
(8.74056 6.18301e-19 -5.02171)
(8.76742 -5.83955e-19 -5.0397)
(8.80792 0 -5.06575)
(8.86355 0 -5.10067)
(8.93593 0 -5.14549)
(9.02773 0 -5.20197)
(9.14244 0 -5.27214)
(9.28217 -8.17355e-19 -5.35668)
(9.44541 0 -5.45396)
(9.62719 -1.44177e-18 -5.56062)
(9.82166 0 -5.67341)
(10.0247 -5.0379e-23 -5.79044)
(10.2346 -8.48741e-23 -5.91136)
(10.4519 0 -6.03658)
(10.6772 -1.04782e-18 -6.16658)
(10.9111 0 -6.30161)
(11.1539 0 -6.44173)
(11.4054 1.72495e-18 -6.58682)
(11.6654 0 -6.73682)
(11.9339 0 -6.89162)
(12.2107 0 -7.05125)
(12.4959 0 -7.21566)
(12.7897 0 -7.3851)
(13.092 0 -7.55947)
(13.4036 0 -7.73926)
(13.724 0 -7.92414)
(14.0546 -9.46169e-19 -8.11489)
(14.3937 0 -8.31063)
(14.744 0 -8.51277)
(15.1019 0 -8.71942)
(15.4725 1.43723e-18 -8.93329)
(15.8487 1.34058e-18 -9.15054)
(16.2403 1.2501e-18 -9.37644)
(16.6332 -1.16529e-18 -9.60344)
(17.0464 -1.88073e-23 -9.84174)
(17.454 1.0117e-18 -10.0773)
(17.8874 1.88444e-18 -10.3274)
(18.3126 0 -10.5723)
(18.7507 -1.63311e-18 -10.827)
(19.2215 -1.51994e-18 -11.0945)
(19.6051 0 -11.3233)
(20.2004 -1.31465e-18 -11.6552)
(20.4221 -1.22268e-18 -11.7957)
(21.2113 -1.13423e-18 -12.2347)
(29.7166 0 -12.7439)
(30.1675 -2.09607e-20 -12.4594)
(30.6242 0 -12.2605)
(31.1039 0 -12.2241)
(31.5312 -5.00517e-20 -12.3718)
(31.8127 -5.2545e-20 -12.657)
(31.8977 5.40658e-20 -13.0036)
(31.7826 -1.61463e-19 -13.3423)
(31.4908 0 -13.6259)
(31.0559 -5.02434e-20 -13.8298)
(30.5121 1.01697e-19 -13.9474)
(29.8899 0 -13.9835)
(29.2153 -9.6113e-20 -13.9482)
(28.5089 0 -13.8539)
(27.7868 -8.94872e-20 -13.7128)
(27.0612 -8.66992e-20 -13.536)
(26.3412 -8.3155e-20 -13.3329)
(25.6334 7.97012e-20 -13.1114)
(24.9425 1.52404e-19 -12.8776)
(24.2716 0 -12.636)
(23.6228 -1.39985e-19 -12.3905)
(22.9973 0 -12.1438)
(22.3956 0 -11.898)
(21.8177 1.22637e-19 -11.6549)
(21.2633 -2.34442e-19 -11.4157)
(20.7319 0 -11.1812)
(20.2229 0 -10.9522)
(19.7354 0 -10.729)
(19.2686 1.95957e-19 -10.512)
(18.8216 -1.87462e-19 -10.3013)
(18.3936 1.10502e-22 -10.097)
(17.9838 -1.71134e-19 -9.8992)
(17.5912 3.27151e-19 -9.70777)
(17.2151 -1.56256e-19 -9.52267)
(16.8547 1.4928e-19 -9.34379)
(16.5093 -4.93373e-23 -9.171)
(16.1782 0 -9.00417)
(15.8608 -2.60197e-19 -8.84314)
(15.5563 -2.48438e-19 -8.68775)
(15.2642 2.37177e-19 -8.53784)
(14.984 0 -8.39326)
(14.7151 -2.16064e-19 -8.25384)
(14.4571 -2.06138e-19 -8.11944)
(14.2094 -1.96671e-19 -7.98992)
(13.9718 -1.87607e-19 -7.86514)
(13.7437 0 -7.74497)
(13.5248 0 -7.62928)
(13.3148 3.82486e-23 -7.51797)
(13.1134 0 -7.41091)
(12.9204 0 -7.30804)
(12.7354 2.81539e-19 -7.2092)
(12.5583 -2.68179e-19 -7.11438)
(12.3888 -2.55414e-19 -7.02342)
(12.2266 -1.86996e-23 -6.93632)
(12.0718 3.33487e-23 -6.85295)
(11.924 0 -6.7733)
(11.7832 0 -6.69732)
(11.6492 -7.97232e-19 -6.62492)
(11.5221 0 -6.5561)
(11.4014 0 -6.49096)
(11.2873 3.4239e-19 -6.42943)
(11.1797 0 -6.37138)
(11.0785 0 -6.31687)
(10.9839 -5.8665e-19 -6.26594)
(10.896 5.56823e-19 -6.21864)
(10.8147 -1.0567e-18 -6.17503)
(10.7402 0 -6.13521)
(10.6726 4.75197e-19 -6.09929)
(10.6122 0 -6.06742)
(10.5593 0 -6.03977)
(10.5141 -8.0855e-19 -6.01659)
(10.4772 0 -5.99813)
(10.449 0 -5.98474)
(10.4303 0 -5.97685)
(10.4218 0 -5.97495)
(10.4245 0 -5.97963)
(10.4396 -5.78993e-19 -5.99162)
(10.4686 -1.59316e-24 -6.01189)
(10.5133 5.16046e-19 -6.0415)
(10.5755 -4.8676e-19 -6.08138)
(10.657 0 -6.13276)
(10.7608 0 -6.19763)
(10.8907 0 -6.27815)
(11.0489 0 -6.37486)
(11.2337 0 -6.48574)
(11.4396 -6.74084e-23 -6.60703)
(11.6601 0 -6.73518)
(11.8908 5.9373e-19 -6.86824)
(12.1297 -8.4517e-23 -7.00583)
(12.3769 0 -7.14835)
(12.6332 9.7969e-19 -7.29628)
(12.8991 0 -7.44982)
(13.1748 -8.60634e-19 -7.60896)
(13.46 4.36589e-23 -7.77353)
(13.7546 0 -7.94343)
(14.058 0 -8.11841)
(14.3704 0 -8.29846)
(14.6911 0 -8.4834)
(15.0207 -1.15807e-18 -8.67343)
(15.3586 0 -8.86832)
(15.7058 0 -9.06857)
(16.0611 -9.46065e-19 -9.27361)
(16.4264 0 -9.48436)
(16.7991 8.25444e-19 -9.6995)
(17.1826 -7.70657e-19 -9.9208)
(17.5719 0 -10.1456)
(17.9736 -2.68436e-18 -10.3773)
(18.3777 2.69825e-23 -10.6107)
(18.7973 -2.3346e-18 -10.8527)
(19.2132 1.08804e-18 -11.0931)
(19.6503 1.01393e-18 -11.3451)
(20.0748 -9.44552e-19 -11.5904)
(20.526 -8.79653e-19 -11.8509)
(20.9614 -8.19077e-19 -12.1013)
(21.4077 1.52454e-18 -12.3616)
(21.8822 1.41884e-18 -12.6296)
(22.2629 1.31981e-18 -12.8592)
(22.85 1.22714e-18 -13.1828)
(23.0655 0 -13.3232)
(23.8232 0 -13.7401)
(29.7827 0 -13.1155)
(30.1361 -2.10005e-20 -12.9019)
(30.4794 0 -12.7295)
(30.8612 0 -12.6473)
(31.2587 0 -12.6904)
(31.6082 0 -12.8577)
(31.8568 -4.65107e-20 -13.1158)
(31.9784 4.91728e-20 -13.418)
(31.9685 -4.74032e-20 -13.7205)
(31.8357 9.7478e-20 -13.9904)
(31.5946 -9.5648e-20 -14.2077)
(31.2625 0 -14.3635)
(30.8564 9.03885e-20 -14.4569)
(30.3919 0 -14.4918)
(29.8826 8.41518e-20 -14.4743)
(29.3402 8.01561e-20 -14.4116)
(28.7746 0 -14.3111)
(28.1942 0 -14.1797)
(27.606 -7.151e-20 -14.0238)
(27.0157 0 -13.8486)
(26.4279 0 -13.6587)
(25.8465 1.25281e-19 -13.458)
(25.2744 0 -13.2494)
(24.7137 0 -13.0358)
(24.1663 1.10121e-19 -12.8191)
(23.6331 0 -12.6013)
(23.1152 0 -12.3838)
(22.6129 0 -12.1677)
(22.1264 -3.68181e-19 -11.9539)
(21.656 0 -11.7433)
(21.2014 1.39268e-22 -11.5364)
(20.7625 1.17228e-22 -11.3336)
(20.3391 -1.53686e-19 -11.1353)
(19.9307 1.46836e-19 -10.9417)
(19.537 -2.80475e-19 -10.753)
(19.1577 -1.33985e-19 -10.5694)
(18.7922 0 -10.3908)
(18.4402 0 -10.2173)
(18.1012 -2.33255e-19 -10.049)
(17.7748 2.22679e-19 -9.88574)
(17.4606 0 -9.72752)
(17.1582 0 -9.57429)
(16.8671 4.32399e-23 -9.42597)
(16.587 1.84693e-19 -9.28252)
(16.3175 1.76167e-19 -9.14385)
(16.0583 3.35947e-19 -9.00989)
(15.8091 0 -8.88056)
(15.5696 4.44468e-23 -8.75579)
(15.3394 0 -8.63548)
(15.1184 0 -8.51962)
(14.9063 -2.64236e-19 -8.40807)
(14.7029 2.51673e-19 -8.30084)
(14.5079 0 -8.19779)
(14.3213 -2.2815e-19 -8.09893)
(14.1427 3.77704e-23 -8.00416)
(13.9721 0 -7.91347)
(13.8094 0 -7.82684)
(13.6544 7.47679e-19 -7.74417)
(13.5071 0 -7.66547)
(13.3672 0 -7.59088)
(13.2346 -6.42039e-19 -7.52034)
(13.1095 0 -7.45372)
(12.9918 0 -7.39108)
(12.8815 1.09972e-18 -7.33246)
(12.7788 -5.2186e-19 -7.27795)
(12.6836 4.95113e-19 -7.22761)
(12.5962 0 -7.18155)
(12.5168 -4.45214e-19 -7.13992)
(12.4455 0 -7.10287)
(12.3826 3.99773e-19 -7.07062)
(12.3286 3.78637e-19 -7.04342)
(12.284 0 -7.02159)
(12.2493 0 -7.0055)
(12.2253 -6.41826e-19 -6.99564)
(12.2128 -6.06903e-19 -6.99257)
(12.213 0 -6.99694)
(12.2271 0 -7.00956)
(12.2568 1.02342e-18 -7.03154)
(12.304 -4.82909e-19 -7.06401)
(12.3708 9.10919e-19 -7.10802)
(12.4592 0 -7.16494)
(12.5724 0 -7.23696)
(12.7142 0 -7.32629)
(12.8871 0 -7.43331)
(13.0891 0 -7.55563)
(13.3147 -6.60547e-23 -7.6892)
(13.557 0 -7.83031)
(13.8109 0 -7.97692)
(14.0742 -8.40176e-23 -8.12863)
(14.3467 0 -8.2858)
(14.629 9.15855e-19 -8.44884)
(14.9216 0 -8.61787)
(15.2246 8.04318e-19 -8.79282)
(15.5375 4.34488e-23 -8.97345)
(15.8602 0 -9.15956)
(16.1918 0 -9.35079)
(16.5322 0 -9.54701)
(16.8807 0 -9.74787)
(17.2374 -4.2516e-23 -9.95349)
(17.6014 -1.01159e-18 -10.1634)
(17.9738 9.456e-19 -10.3782)
(18.3529 8.83611e-19 -10.5969)
(18.7407 0 -10.8206)
(19.1337 -7.70866e-19 -11.0474)
(19.5361 7.19663e-19 -11.2796)
(19.9411 0 -11.5135)
(20.3572 1.25326e-18 -11.7535)
(20.7709 -2.33775e-18 -11.9925)
(21.1994 1.08987e-18 -12.2395)
(21.6173 0 -12.4812)
(22.0563 -9.4662e-19 -12.7341)
(22.4739 0 -12.9755)
(22.9181 0 -13.232)
(23.3368 7.64588e-19 -13.4724)
(23.7656 0 -13.7234)
(24.2107 0 -13.9728)
(24.5671 -1.23189e-18 -14.1908)
(25.1002 -1.14536e-18 -14.4799)
(25.3001 -1.06526e-18 -14.6144)
(25.9664 9.88082e-19 -14.9751)
(29.836 0 -13.4296)
(30.1232 1.9735e-20 -13.2635)
(30.39 4.04381e-20 -13.1204)
(30.6869 0 -13.0276)
(31.0169 0 -13.0142)
(31.3435 0 -13.0937)
(31.6276 4.37101e-20 -13.2591)
(31.8428 0 -13.4879)
(31.9753 4.45459e-20 -13.7507)
(32.0209 0 -14.0188)
(31.9821 0 -14.2688)
(31.8653 -8.34708e-20 -14.4851)
(31.6791 0 -14.659)
(31.4324 -7.94102e-20 -14.7872)
(31.1336 7.69757e-20 -14.8702)
(30.7903 -7.53052e-20 -14.9102)
(30.4097 0 -14.9109)
(29.9979 6.90437e-20 -14.8763)
(29.5611 0 -14.8109)
(29.1045 1.27433e-19 -14.7191)
(28.633 0 -14.6049)
(28.1511 -1.17677e-19 -14.472)
(27.6627 1.12293e-19 -14.3236)
(27.1712 0 -14.1625)