/*--------------------------------*- C++ -*----------------------------------*\
| =========                 |                                                 |
| \\      /  F ield         | OpenFOAM: The Open Source CFD Toolbox           |
|  \\    /   O peration     | Version:  2412                                  |
|   \\  /    A nd           | Website:  www.openfoam.com                      |
|    \\/     M anipulation  |                                                 |
\*---------------------------------------------------------------------------*/
FoamFile
{
    version     2.0;
    format      ascii;
    arch        "LSB;label=32;scalar=64";
    class       volVectorField;
    location    "0.36";
    object      ddtCorrDdt0(U);
}
// * * * * * * * * * * * * * * * * * * * * * * * * * * * * * * * * * * * * * //

dimensions      [0 1 -2 0 0 0 0];

internalField   nonuniform List<vector> 
12600
(
(40.7777 0 159.139)
(220.884 -2.3825e-15 48.3452)
(167.042 -2.10819e-15 49.5819)
(146.477 0 60.8348)
(127.852 -4.14804e-17 80.9463)
(114.29 0 82.7296)
(92.5426 2.84728e-15 72.087)
(62.2062 0 59.9707)
(30.8269 0 55.5481)
(20.8475 0 57.8493)
(17.7581 0 53.8679)
(5.12187 5.39318e-15 41.8883)
(-9.86186 5.23856e-15 29.9257)
(-23.1445 0 19.5266)
(-31.8994 -9.7371e-15 11.3829)
(-39.3862 0 4.84427)
(-47.7702 -7.63362e-18 -0.968491)
(-50.883 0 -5.01812)
(-52.023 -4.02145e-15 -8.24036)
(-55.7083 0 -11.7419)
(-50.8616 0 -11.414)
(-49.9062 0 -10.5434)
(-45.6898 -1.2879e-14 -7.04623)
(-29.4725 1.22376e-14 -0.159248)
(-27.722 3.0911e-17 -5.464)
(-25.0051 -5.52046e-15 -1.55064)
(-6.58657 0 4.47588)
(-22.9247 0 -8.82726)
(12.6274 0 15.7667)
(-6.31796 9.82601e-15 -18.5129)
(-49.7745 1.7888e-14 -26.1968)
(-31.3859 0 -11.4146)
(-31.2624 0 -10.7881)
(-33.9488 6.90726e-15 -12.4296)
(-29.6641 6.31656e-15 -10.5057)
(-30.7074 0 -11.4396)
(-25.2371 0 -9.56493)
(-21.9071 9.62282e-15 -7.34355)
(-23.0936 0 -8.91119)
(-17.6672 -4.66511e-17 -6.10254)
(-17.0411 7.15578e-15 -5.65852)
(-18.2006 6.43877e-15 -5.74964)
(-12.4818 0 -2.94998)
(-15.7529 5.26013e-15 -4.13855)
(-13.3132 4.72001e-15 -3.22447)
(-12.9335 -8.58054e-15 -3.32166)
(-13.5468 7.70997e-15 -3.79503)
(-8.43856 0 -1.72586)
(-10.301 -6.37687e-15 -2.53574)
(-5.69882 5.83739e-15 -0.823478)
(-4.89761 0 -0.199819)
(-7.0632 1.34743e-17 -1.39969)
(-3.12846 -4.52417e-15 0.102201)
(-4.92527 0 -0.306343)
(-4.02219 7.6728e-15 -0.322254)
(-2.48089 0 -0.0069968)
(-3.35643 0 -0.0175311)
(-2.39976 2.07256e-19 0.0614945)
(-2.82637 -1.02233e-18 -0.0330889)
(-2.55972 -5.71286e-15 0.0442378)
(-3.65928 5.29411e-15 -0.228172)
(-2.1524 -9.94292e-15 -0.00851801)
(-3.89218 0 -0.940778)
(-2.47769 -8.69253e-15 0.24579)
(-2.16396 -8.37962e-15 -0.574341)
(-2.34698 1.50182e-14 -1.28763)
(-0.713908 -7.27169e-15 -1.347)
(-0.583698 0 -1.96609)
(-1.66769 0 -1.13909)
(-4.15929 0 -1.76451)
(-12.1195 0 3.84316)
(-21.7477 0 8.88284)
(-55.5679 8.03902e-15 26.4192)
(-10.3189 -7.06751e-15 0.202455)
(30.7778 0 -18.716)
(22.9946 0 -13.8858)
(-7.74668 -5.20221e-15 1.81455)
(-16.2739 4.87414e-19 7.05306)
(-8.42177 -8.06534e-15 1.97421)
(-10.997 0 2.48335)
(12.0839 0 -11.4677)
(39.6818 0 -25.2296)
(47.0119 3.31787e-18 -27.7707)
(34.252 0 -20.4814)
(8.96241 0 -5.92341)
(-16.9161 -4.34255e-16 9.06408)
(-38.448 7.78881e-18 21.4207)
(-42.0774 0 23.6804)
(-30.8389 0 17.1604)
(-17.8262 -9.56646e-16 9.83522)
(-10.8343 -9.31544e-16 5.94157)
(-3.91419 -1.03027e-15 2.20121)
(0.104736 -6.97483e-16 -0.318767)
(1.39242 1.22807e-18 -0.994751)
(-2.00713 1.08045e-18 0.825589)
(-6.21518 1.77751e-15 2.83545)
(-2.4705 0 0.842826)
(6.89787 0 -5.74883)
(14.4236 0 -9.05495)
(8.3039 1.0806e-14 -5.09557)
(-3.76977 -6.20244e-15 0.762427)
(-6.56471 7.02497e-15 3.1742)
(-4.32625 7.48122e-15 2.14624)
(-2.58049 0 1.25502)
(-1.23083 0 0.625468)
(-0.298492 0 0.106376)
(0.59029 1.61979e-14 -0.391843)
(1.89689 0 -0.849947)
(2.22231 -1.40555e-14 -1.04267)
(2.84652 0 -1.0312)
(2.31924 0 -0.175014)
(1.48316 1.02452e-14 0.363784)
(0.145799 0 1.20123)
(-1.16323 0 1.52468)
(-1.85751 0 1.52315)
(-2.3502 -1.31117e-14 1.56173)
(-2.06752 0 1.05231)
(-1.81864 1.17506e-14 0.873455)
(-1.06206 0 0.432374)
(-0.997217 -2.4948e-19 0.386255)
(58.6761 8.0857e-16 129.363)
(5.75404 1.69545e-15 64.9535)
(93.7329 -1.36115e-16 114.097)
(126.945 0 118.358)
(110.754 2.75649e-15 119.148)
(88.3713 -2.95887e-15 115.829)
(62.7799 -2.97003e-15 97.5536)
(37.2543 3.04648e-15 77.8626)
(18.8109 0 76.2744)
(11.1425 0 78.0591)
(2.29216 0 71.0529)
(-12.109 0 57.2935)
(-25.7236 0 42.9193)
(-37.2528 0 29.4884)
(-45.9881 1.05714e-18 15.9696)
(-52.8629 0 6.66724)
(-59.9248 -4.63529e-15 -0.319773)
(-62.7036 0 -6.95005)
(-64.194 8.35019e-15 -12.5471)
(-66.8883 -7.86628e-15 -17.7061)
(-61.1629 0 -19.584)
(-59.2729 -7.01725e-15 -19.565)
(-51.9634 6.6777e-15 -14.3816)
(-34.8117 -6.33951e-15 -1.94897)
(-36.2361 6.02599e-15 -11.7635)
(-26.5899 0 -1.95419)
(-9.48885 -5.42918e-15 8.5533)
(-29.5376 0 -19.3904)
(17.5168 0 32.1535)
(-38.3277 0 -54.0042)
(-61.3944 -9.19055e-15 -45.4089)
(-34.682 0 -19.5496)
(-38.5121 0 -20.0413)
(-40.293 0 -20.8648)
(-34.6407 0 -17.2859)
(-35.451 0 -17.9068)
(-28.3098 0 -14.4571)
(-24.6257 -9.90071e-15 -10.7074)
(-25.7436 0 -12.5039)
(-19.4086 -1.61297e-14 -8.97903)
(-18.6581 -1.4627e-14 -7.68679)
(-19.1931 -6.51569e-15 -7.53018)
(-13.5429 0 -4.65166)
(-16.7722 0 -5.44204)
(-14.1079 -9.62094e-15 -4.62235)
(-13.7232 8.76129e-15 -4.53826)
(-14.0989 -7.78805e-15 -5.2163)
(-8.80541 0 -2.78413)
(-10.6633 6.43742e-15 -3.45318)
(-5.83829 0 -1.70847)
(-5.09461 0 -0.732298)
(-7.02955 5.02063e-15 -1.95352)
(-2.78345 0 -0.296958)
(-4.61647 0 -0.572051)
(-3.70142 -7.75224e-15 -0.680446)
(-2.25881 0 -0.256907)
(-3.29473 0 -0.111624)
(-2.45431 9.30698e-19 0.086928)
(-2.90699 -6.05944e-15 -0.0948154)
(-2.35778 8.44667e-19 -0.11636)
(-3.03756 0 -0.529158)
(-1.34872 9.94782e-15 -0.599687)
(-2.72779 9.37692e-15 -1.62821)
(-0.906652 0 -0.855186)
(0.129265 1.66942e-14 -1.93161)
(1.46475 -4.09638e-18 -3.73803)
(4.32777 0 -4.40364)
(6.24946 -6.37876e-15 -5.8985)
(0.879944 0 -2.7763)
(-4.35212 0 -1.87449)
(-30.7776 0 15.3393)
(-51.9123 0 28.7572)
(-151.718 -1.58274e-14 82.2283)
(-19.1954 6.93493e-15 -0.151746)
(89.5593 0 -55.3441)
(73.368 0 -41.2948)
(-9.35234 -5.09007e-15 4.8991)
(-42.1439 -3.99111e-19 21.9055)
(-16.238 5.86062e-18 6.32487)
(-17.2054 0 4.62674)
(58.0311 0 -40.1042)
(136.974 0 -83.4359)
(145.418 4.12097e-18 -85.2549)
(98.53 1.57244e-15 -57.2409)
(17.7389 -7.94703e-16 -9.70333)
(-57.9133 4.19587e-16 34.9337)
(-115.077 9.46536e-18 67.3264)
(-123.686 -3.34284e-16 71.5212)
(-91.6096 0 51.8344)
(-53.5434 9.19506e-16 30.0424)
(-32.0142 0 17.8357)
(-11.7926 9.87837e-16 6.42036)
(1.55538 0 -1.31988)
(4.28254 -2.64761e-15 -2.72056)
(-5.87394 -7.18431e-16 3.24903)
(-16.0992 0 8.67485)
(-2.97579 0 -0.594623)
(28.8298 -3.79621e-15 -19.096)
(46.3236 4.72632e-15 -27.7993)
(23.9713 -1.02761e-14 -14.0081)
(-10.5363 5.89068e-15 4.81387)
(-18.1731 -6.66589e-15 9.99157)
(-11.894 0 6.4798)
(-6.85831 7.3487e-15 3.70903)
(-3.12508 0 1.70361)
(-0.305143 0 0.0913633)
(2.19541 -1.53128e-14 -1.37074)
(5.13651 0 -2.76578)
(5.86294 1.1653e-18 -3.17828)
(6.42452 1.21757e-14 -3.08709)
(3.79167 0 -0.93464)
(0.944282 0 0.959617)
(-3.3006 0 3.3356)
(-6.41873 7.39967e-15 4.65602)
(-7.46002 -1.22593e-14 4.81763)
(-8.06356 1.23262e-14 4.87697)
(-6.25416 0 3.44865)
(-5.35097 -1.10368e-14 2.87862)
(-3.10253 0 1.57056)
(-2.85416 1.96623e-14 1.43538)
(-7.92964 -1.82984e-15 55.5283)
(17.1724 1.10666e-15 105.619)
(71.3468 4.60637e-15 121.081)
(82.2419 0 103.723)
(58.6027 2.76096e-15 76.1607)
(43.3762 -5.24118e-17 67.3346)
(19.9491 0 52.3952)
(4.34775 -2.89139e-15 37.2295)
(-8.86481 0 36.4185)
(-22.8753 -2.84428e-15 31.0542)
(-31.2276 0 24.9961)
(-39.9055 0 19.7073)
(-46.7894 0 16.9388)
(-53.0193 0 14.2935)
(-57.7898 4.81494e-15 6.96961)
(-59.9073 0 2.24141)
(-63.9342 0 -0.256319)
(-64.9936 0 -3.64871)
(-64.4814 -3.95263e-15 -6.93645)
(-64.1852 2.58228e-17 -7.47037)
(-59.0126 0 -11.2158)
(-56.2491 3.46173e-17 -12.331)
(-47.3202 0 -8.10867)
(-35.9848 5.90543e-15 -2.69018)
(-33.8373 0 -6.64602)
(-22.5968 0 1.19272)
(-14.0765 5.14976e-15 6.39017)
(-25.0833 0 -16.0971)
(6.34819 0 23.9132)
(-61.356 8.92934e-15 -77.9152)
(-45.7306 0 -29.0343)
(-29.9251 0 -15.045)
(-36.1095 0 -15.6131)
(-35.4296 0 -13.2226)
(-30.8875 -6.04289e-15 -11.4559)
(-30.322 0 -9.66029)
(-23.5918 0 -7.35239)
(-21.1717 9.27089e-15 -5.24215)
(-21.3252 0 -5.1515)
(-16.2747 1.51892e-14 -4.26581)
(-15.6365 1.88696e-17 -3.09206)
(-15.9926 6.16873e-15 -2.55631)
(-12.1349 0 -2.95813)
(-14.3212 0 -2.04987)
(-12.2317 4.53884e-15 -2.31381)
(-11.7901 0 -2.19438)
(-11.7585 7.36718e-15 -2.28438)
(-7.65682 0 -2.02424)
(-8.83472 -8.74842e-18 -1.4729)
(-5.12034 0 -1.74822)
(-4.59959 0 -1.20983)
(-5.65105 0 -0.981417)
(-2.26071 4.31307e-15 -0.984782)
(-3.77042 0 -0.755909)
(-2.82161 0 -0.782726)
(-1.70772 0 -0.69675)
(-2.86002 0 -0.276274)
(-2.27849 -1.23607e-14 0.00691823)
(-2.80838 0 -0.13515)
(-2.15815 -3.47229e-19 -0.425283)
(-2.35005 0 -0.765192)
(-0.555167 -4.68987e-15 -1.47178)
(-0.915196 -8.84104e-15 -1.5753)
(0.592241 0 -2.78695)
(2.944 -1.57273e-14 -3.72236)
(6.08048 -7.03476e-15 -6.18078)
(9.84113 0 -7.67012)
(12.9211 6.00721e-15 -9.25229)
(2.74107 0 -3.09197)
(-5.67222 0 1.63124)
(-51.3116 0 30.0457)
(-75.5995 0 47.2581)
(-235.297 1.83858e-19 128.59)
(-30.0017 -6.52165e-15 -5.0569)
(134.953 0 -83.271)
(118.303 0 -61.7237)
(-5.23164 8.54428e-19 6.33922)
(-65.3696 8.7442e-15 34.7326)
(-21.8178 3.68906e-15 9.20499)
(-13.8004 0 -0.281435)
(111.896 0 -75.8394)
(233.858 0 -141.764)
(230.974 5.12378e-15 -131.428)
(145.004 -2.60781e-18 -77.3759)
(11.3725 7.45501e-16 -2.60713)
(-102.464 0 66.6795)
(-183.669 -9.57374e-17 108.271)
(-193.959 3.13395e-16 109.959)
(-145.153 0 79.3515)
(-86.3006 0 46.5838)
(-51.3153 8.37579e-16 27.3249)
(-19.191 0 9.48986)
(3.12906 6.39685e-16 -2.61234)
(6.65264 -1.86902e-18 -3.74336)
(-9.86983 6.74988e-16 6.19558)
(-24.1127 -1.58872e-15 13.0277)
(1.36369 0 -2.34357)
(52.2001 3.55264e-15 -33.4326)
(74.9481 -4.42241e-15 -43.5915)
(35.2275 9.61683e-15 -18.5011)
(-17.6072 0 11.0632)
(-28.5841 -6.24984e-15 16.0215)
(-18.6096 0 9.97581)
(-10.6362 -6.87157e-15 5.59882)
(-4.76963 7.27672e-15 2.4112)
(-0.161361 0 -0.184654)
(3.72339 1.43137e-14 -2.39239)
(7.94753 0 -4.47219)
(8.66461 2.47909e-14 -4.77344)
(8.70654 -1.13778e-14 -4.38134)
(3.71727 0 -1.02729)
(-1.23434 0 1.93729)
(-7.90173 0 5.6106)
(-12.3121 -2.33957e-18 7.80547)
(-13.3168 1.14511e-14 8.06722)
(-13.751 -1.15095e-14 7.99)
(-10.5115 0 5.82474)
(-8.94717 -1.03089e-14 4.88328)
(-5.46532 0 2.89897)
(-5.0764 -3.70708e-19 2.73894)
(2.44452 1.00707e-15 106.687)
(12.5908 1.5917e-16 118.876)
(51.7626 -2.26833e-15 114.681)
(57.7275 2.59853e-15 85.4333)
(40.8403 2.78384e-15 67.2436)
(22.2802 5.47127e-15 57.2478)
(0.805641 0 48.1239)
(-7.66518 0 38.9218)
(-24.3857 0 28.0748)
(-36.0207 2.69405e-15 24.544)
(-42.7099 0 18.4523)
(-51.1678 0 10.634)
(-56.0338 0 7.74531)
(-61.3776 0 7.26256)
(-63.5992 0 5.52563)
(-64.3132 4.35495e-15 2.11896)
(-67.7392 -4.14692e-15 -0.764582)
(-67.0332 0 -1.75261)
(-64.6735 0 -3.58299)
(-62.6394 7.04656e-15 -1.1916)
(-57.1321 -6.62908e-15 -3.83162)
(-52.3264 6.27351e-15 -4.12618)
(-42.6465 -5.90259e-15 0.903099)
(-35.9628 -5.59202e-15 -1.00796)
(-29.3648 5.28212e-15 1.504)
(-21.3192 -5.01884e-15 3.45419)
(-18.8129 0 2.80919)
(-16.348 4.53085e-15 -2.33209)
(-15.4415 0 3.72377)
(-63.7315 -8.45123e-15 -73.0699)
(-28.1453 0 -13.8395)
(-29.107 0 -14.8049)
(-32.9559 0 -10.7868)
(-31.9705 6.20984e-15 -7.80153)
(-28.5991 5.71633e-15 -8.09421)
(-26.9128 0 -4.56002)
(-21.2195 0 -3.84101)
(-19.6193 -8.76674e-15 -3.04616)
(-19.3305 0 -2.10263)
(-14.6497 -1.25185e-17 -1.97231)
(-14.5255 6.50185e-15 -1.77217)
(-14.8946 0 -1.15281)
(-11.3208 0 -2.23859)
(-13.4104 0 -1.39533)
(-11.2948 0 -1.58432)
(-11.0728 7.76856e-15 -1.99173)
(-10.6914 0 -1.54639)
(-6.93075 -6.34014e-15 -1.98693)
(-7.88831 -5.73883e-15 -1.02527)
(-4.41917 0 -1.71982)
(-3.96249 0 -1.46842)
(-4.78992 0 -0.890015)
(-1.60996 -4.06919e-15 -1.3587)
(-3.11527 3.8439e-15 -1.252)
(-2.03603 6.90164e-15 -0.973768)
(-1.18456 0 -1.06737)
(-2.49476 6.08506e-15 -0.426055)
(-2.20248 1.16545e-14 -0.038132)
(-2.86212 0 -0.131837)
(-2.14681 1.01935e-14 -0.635728)
(-2.00054 0 -1.12869)
(0.21532 4.41676e-15 -2.05386)
(0.38077 8.33157e-15 -2.36237)
(2.67063 0 -4.06511)
(6.0145 7.40205e-15 -6.05026)
(11.0501 6.61844e-15 -9.24172)
(15.5982 0 -11.3267)
(19.0234 0 -12.4423)
(3.43827 0 -2.59564)
(-9.73987 -4.77572e-15 6.23242)
(-74.0436 -4.26475e-15 46.1106)
(-93.1854 0 64.5004)
(-300.924 6.9931e-15 165.217)
(-42.8056 6.12426e-15 -13.0673)
(167.338 0 -107.551)
(156.94 0 -78.0908)
(3.28138 4.49037e-15 7.22293)
(-84.9701 3.07843e-18 46.1603)
(-25.0833 0 9.70335)
(-0.215453 0 -12.1282)
(172.299 0 -119.044)
(326.715 0 -198.762)
(298.108 -6.06419e-19 -167.081)
(169.158 -1.38089e-15 -84.0583)
(-7.18897 0 17.2344)
(-148.902 0 99.3514)
(-240.906 0 144.22)
(-250.429 2.90619e-16 141.718)
(-189.898 0 101.905)
(-115.264 8.1019e-16 60.8131)
(-68.5551 -7.84352e-16 35.2927)
(-26.102 8.65817e-16 11.9733)
(4.52335 -5.98841e-16 -4.08068)
(8.35978 2.32777e-15 -4.38907)
(-13.7188 -6.31699e-16 9.142)
(-29.6153 1.48662e-15 15.9001)
(6.687 0 -10.122)
(75.4839 0 -48.6223)
(99.1234 -4.1431e-15 -57.12)
(41.8586 -4.49738e-15 -20.0174)
(-25.4064 -5.21325e-15 17.3035)
(-37.624 -2.99228e-18 21.3029)
(-24.386 0 12.9344)
(-13.86 0 7.14523)
(-6.12709 -6.80158e-15 2.98104)
(0.0901227 0 -0.520176)
(5.04254 -1.33792e-14 -3.32195)
(10.1547 0 -5.84558)
(10.4337 -2.14321e-18 -5.80899)
(9.61825 0 -4.87683)
(2.27134 -9.10348e-15 -0.279681)
(-4.54822 8.39717e-15 3.80114)
(-13.033 7.02262e-15 8.6735)
(-18.4024 -2.18344e-18 11.3324)
(-19.2367 0 11.4647)
(-19.291 1.07484e-14 11.0949)
(-14.8734 8.78623e-15 8.23312)
(-12.6635 9.6261e-15 6.92868)
(-8.20837 0 4.3883)
(-7.69683 -7.45338e-19 4.24535)
(-3.16007 0 103.397)
(2.82255 1.39345e-16 103.106)
(31.9839 0 106.933)
(33.6735 -2.45511e-15 77.9202)
(24.8546 -5.09792e-15 58.01)
(7.64784 -2.61185e-15 47.4716)
(-8.09629 0 44.9744)
(-18.7522 0 38.5419)
(-34.8996 2.62823e-15 24.3982)
(-41.2279 2.5735e-15 25.4803)
(-51.2844 -2.50637e-15 19.123)
(-57.7361 -4.85231e-15 13.6964)
(-61.7365 -4.68453e-15 8.30451)
(-66.4958 0 5.82418)
(-67.5952 0 6.17286)
(-68.6364 -8.2326e-15 3.20716)
(-70.9383 4.39058e-18 0.648997)
(-68.7395 0 1.14897)
(-65.6587 3.51399e-15 -0.989714)
(-63.5986 6.63773e-15 1.12183)
(-57.8586 6.26721e-15 -0.565457)
(-51.1997 0 -0.497022)
(-42.3478 5.57983e-15 3.84235)
(-36.8733 -5.26278e-15 -0.0227112)
(-28.9743 -4.99268e-15 3.19015)
(-22.6962 1.14578e-17 3.69668)
(-20.5799 0 0.71546)
(-14.3378 -1.07914e-17 4.6883)
(-33.1772 0 -9.00008)
(-39.7926 -7.47312e-15 -29.8395)
(-17.543 0 -5.56737)
(-33.7987 0 -22.2452)
(-31.3773 0 -9.82422)
(-30.7692 -5.86523e-15 -5.80977)
(-27.2831 0 -6.25823)
(-25.2574 0 -2.39757)
(-20.4931 0 -2.63679)
(-18.8506 0 -2.07628)
(-18.2934 7.46707e-15 -0.691554)
(-13.8999 -1.35003e-14 -0.903987)
(-14.0485 0 -1.40134)
(-14.2161 -5.47772e-15 -0.429904)
(-10.7288 0 -1.78872)
(-12.8608 0 -1.3405)
(-10.5764 0 -1.1477)
(-10.56 -3.67318e-18 -2.0811)
(-9.88528 0 -1.1883)
(-6.37578 5.9781e-15 -2.1411)
(-7.18337 0 -0.935456)
(-3.79057 0 -1.68843)
(-3.35567 4.56596e-15 -1.71456)
(-4.05472 0 -0.944748)
(-0.958322 0 -1.60146)
(-2.4934 -2.66098e-19 -1.71452)
(-1.30863 -6.50053e-15 -1.13236)
(-0.720878 0 -1.36261)
(-2.19054 8.42787e-19 -0.50457)
(-2.20467 -1.09758e-14 0.00179837)
(-3.03232 0 -0.0288547)
(-2.31452 -4.79662e-15 -0.760296)
(-1.84297 0 -1.41563)
(0.843218 -4.15507e-15 -2.56944)
(1.50023 -7.83651e-15 -3.49175)
(4.93885 0 -5.54415)
(9.57484 -6.95992e-15 -8.65304)
(16.538 4.30609e-19 -12.7026)
(21.6468 0 -15.2065)
(24.6564 0 -15.1202)
(3.11719 0 -1.02026)
(-15.7274 8.97351e-15 13.0968)
(-97.9109 1.71098e-18 63.3811)
(-105.077 0 80.1884)
(-340.348 -6.56599e-15 186.177)
(-60.3867 -1.14965e-14 -27.6682)
(190.174 0 -127.896)
(190.643 0 -90.1656)
(15.1238 0 8.92563)
(-100.616 3.52491e-18 55.5695)
(-25.5871 0 7.30567)
(22.7565 0 -32.5147)
(238.409 0 -168.044)
(412.288 0 -251.479)
(344.576 -2.25046e-15 -188.049)
(172.78 -1.29097e-15 -75.1058)
(-38.7053 0 40.2405)
(-192.977 0 132.003)
(-286.111 0 172.619)
(-294.567 -2.18228e-18 165.114)
(-226.703 0 118.532)
(-140.944 -7.58459e-16 72.2027)
(-84.3753 0 41.4926)
(-32.8738 -8.10295e-16 13.7889)
(5.47544 0 -5.5814)
(9.55797 -1.08971e-15 -4.56296)
(-16.9719 0 11.958)
(-32.9014 0 17.0822)
(14.7112 0 -19.5571)
(98.2467 0 -63.8607)
(118.942 3.87398e-15 -67.3985)
(44.8119 0 -18.343)
(-32.9856 4.87358e-15 23.8034)
(-45.365 5.46516e-15 25.6094)
(-29.4156 0 15.2132)
(-16.6497 0 8.27457)
(-7.32972 0 3.33481)
(0.296603 0 -0.915301)
(6.00925 -1.13439e-18 -4.08592)
(11.6184 0 -6.77555)
(11.1279 -2.16305e-14 -6.1567)
(9.24372 0 -4.4103)
(-0.130511 1.70008e-14 1.72036)
(-8.73517 -7.84275e-15 6.47337)
(-18.6706 -6.55855e-15 12.1363)
(-24.629 -6.02503e-15 14.9819)
(-25.2475 0 14.8927)
(-24.7759 0 14.0926)
(-19.4137 -1.64075e-14 10.6832)
(-16.5751 8.98691e-15 9.03023)
(-11.3488 7.41561e-15 6.09027)
(-10.696 -8.0003e-15 5.97256)
(-15.006 0 91.9666)
(-2.14457 -2.53937e-15 94.7501)
(22.3422 0 90.8562)
(21.9795 0 70.6887)
(13.7687 0 53.5946)
(-2.85872 0 42.3377)
(-18.7413 0 42.2283)
(-33.0918 -2.54565e-15 34.6848)
(-42.6031 -2.4798e-15 26.5032)
(-50.203 -4.87191e-15 21.604)
(-60.7672 4.73973e-15 14.8677)
(-64.828 4.57962e-15 13.4794)
(-69.1714 4.42155e-15 8.3765)
(-71.9681 0 5.85465)
(-73.1337 0 5.27743)
(-74.4261 7.76446e-15 2.34799)
(-74.5291 7.38908e-15 1.21351)
(-71.421 0 3.04279)
(-68.293 -3.317e-15 0.461658)
(-66.3807 -6.26548e-15 1.25289)
(-59.7287 0 1.24738)
(-51.7622 -5.55848e-15 1.53481)
(-44.6467 0 3.79554)
(-38.5144 7.34974e-18 0.992096)
(-30.3921 4.69787e-15 2.66708)
(-25.2287 9.41182e-18 2.62539)
(-22.127 0 0.503938)
(-19.5363 -4.0298e-15 0.582749)
(-34.2053 7.62033e-15 -8.5918)
(-19.9083 1.40975e-14 4.21518)
(-22.0427 6.701e-15 -4.57927)
(-34.6002 0 -20.4992)
(-33.4386 5.90505e-15 -18.111)
(-30.6557 0 -6.14095)
(-26.7562 0 -5.63793)
(-24.9884 0 -2.22656)
(-20.4954 0 -2.49154)
(-18.3255 0 -1.51625)
(-17.9217 -1.24065e-17 -0.320161)
(-13.7166 6.3581e-15 -0.593575)
(-13.8241 0 -1.40654)
(-13.6973 1.03223e-14 0.0410212)
(-10.3627 0 -1.54383)
(-12.5401 0 -1.6237)
(-10.0205 0 -0.912169)
(-10.1661 -6.89805e-15 -2.27682)
(-9.25404 0 -1.02895)
(-5.9581 0 -2.40482)
(-6.58925 0 -0.986087)
(-3.21136 0 -1.61805)
(-2.80644 -8.59384e-15 -1.97291)
(-3.39029 0 -1.04967)
(-0.344094 0 -1.75767)
(-1.92445 -3.40692e-15 -2.13532)
(-0.658164 0 -1.26225)
(-0.320587 0 -1.56927)
(-1.93651 -1.078e-14 -0.495691)
(-2.26336 5.16173e-15 0.133479)
(-3.28764 0 0.182929)
(-2.63248 0 -0.807634)
(-1.82788 0 -1.6014)
(1.32127 3.90437e-15 -3.09851)
(2.66197 0 -4.66003)
(7.37651 0 -7.35909)
(13.612 1.30758e-14 -11.6225)
(22.5045 -1.1689e-14 -16.5563)
(27.894 0 -19.2179)
(29.7405 0 -17.1466)
(1.81885 0 1.77448)
(-23.465 -4.21169e-15 21.9403)
(-121.741 3.7573e-15 80.9402)
(-110.669 6.78223e-15 92.9196)
(-339.276 6.15987e-15 183.983)
(-72.5269 5.39121e-15 -28.2908)
(205.512 -4.91566e-15 -145.97)
(220.283 0 -99.0478)
(29.2783 0 12.3653)
(-111.932 -3.61557e-15 62.8131)
(-22.7454 0 1.55708)
(54.9162 0 -60.7916)
(307.951 0 -221.696)
(486.819 0 -297.165)
(367.607 0 -192.682)
(157.327 2.41757e-15 -52.4948)
(-71.4297 0 74.4295)
(-230.279 2.97577e-16 161.694)
(-318.512 0 194.279)
(-327.312 -2.37559e-18 182.195)
(-256.028 6.09873e-16 130.354)
(-163.562 0 81.0483)
(-99.0166 0 46.5792)
(-39.7706 0 15.1398)
(5.75813 0 -6.91239)
(10.2923 1.02145e-15 -4.3775)
(-19.3015 0 14.3733)
(-33.4724 0 16.4659)
(27.2362 0 -25.9688)
(119.124 0 -78.5153)
(134.089 0 -74.6219)
(44.7658 0 -14.1212)
(-39.894 0 30.1482)
(-51.7485 0 29.154)
(-33.7362 -5.43517e-15 16.9915)
(-19.0477 0 9.10289)
(-8.43015 0 3.57053)
(0.351055 0 -1.26752)
(6.49726 1.16783e-14 -4.60911)
(12.2143 0 -7.21168)
(10.7099 1.01004e-14 -5.84285)
(7.56803 0 -3.28668)
(-3.65351 -3.8172e-18 4.20249)
(-13.6716 0 9.62514)
(-24.6426 6.12292e-15 15.8634)
(-30.8828 0 18.6595)
(-31.3357 0 18.3622)
(-30.235 0 17.0657)
(-24.1965 7.65913e-15 13.24)
(-20.7367 -1.67787e-14 11.2462)
(-14.9402 -1.38454e-14 8.01283)
(-14.0636 -7.46561e-15 7.90308)
(-16.5814 0 71.3774)
(-18.4853 2.60714e-15 78.7574)
(-1.113 0 72.8816)
(3.82232 0 54.1148)
(-2.30218 2.533e-15 43.2718)
(-15.3582 2.50519e-15 31.5141)
(-28.9357 -2.47334e-15 29.8402)
(-41.5874 7.25703e-15 26.0283)
(-49.0477 0 24.4364)
(-60.5649 -1.43715e-17 16.9127)
(-67.8341 -2.23732e-15 12.6692)
(-71.8638 0 10.9312)
(-76.2108 0 7.11467)
(-77.4572 0 6.09097)
(-79.4857 0 4.4759)
(-79.6589 -4.28526e-18 2.62656)
(-77.9013 -5.77378e-18 2.03928)
(-75.4538 -3.29349e-15 3.30374)
(-72.4133 -3.11524e-15 1.1733)
(-69.7886 0 1.18085)
(-61.9222 5.5473e-15 2.64008)
(-53.7237 5.23888e-15 2.8884)
(-47.5185 0 3.81734)
(-39.9278 7.20525e-18 3.21477)
(-32.3075 -5.88254e-18 3.29531)
(-27.9446 4.19922e-15 2.04679)
(-24.1588 0 1.20656)
(-23.386 0 -1.14609)
(-32.0802 -7.17989e-15 -4.91431)
(-19.9525 1.17022e-17 5.96806)
(-26.5367 -1.26071e-14 -5.41349)
(-30.937 0 -7.61477)
(-32.7707 -1.10644e-14 -16.975)
(-32.2433 0 -12.8041)
(-27.1339 0 -6.49161)
(-25.2039 4.34786e-15 -2.71812)
(-20.372 0 -2.07145)
(-17.8647 7.29112e-15 -0.879981)
(-17.8918 -1.11928e-17 -0.312111)
(-13.694 -5.97095e-15 -0.392849)
(-13.597 0 -1.34766)
(-13.321 4.70785e-20 0.320653)
(-10.1721 0 -1.35324)
(-12.3179 0 -1.97146)
(-9.57905 0 -0.782582)
(-9.83318 0 -2.44482)
(-8.74939 0 -0.954153)
(-5.61123 -5.28665e-15 -2.64543)
(-6.03964 0 -1.0649)
(-2.68309 0 -1.50087)
(-2.30827 4.03932e-15 -2.19654)
(-2.80392 0 -1.19864)
(0.190733 3.39307e-15 -1.87038)
(-1.42646 3.20168e-15 -2.50347)
(-0.102863 -5.75498e-15 -1.36828)
(0.011621 0 -1.68497)
(-1.72534 5.06487e-15 -0.401032)
(-2.35617 4.85495e-15 0.349963)
(-3.60268 0 0.483925)
(-3.06006 0 -0.783857)
(-1.91794 0 -1.69349)
(1.7052 -3.66597e-15 -3.62478)
(3.93337 0 -5.82261)
(10.0543 0 -9.41942)
(18.0437 -6.13624e-15 -15.0644)
(28.8743 1.0973e-14 -20.7334)
(34.2012 0 -23.2258)
(34.1856 0 -18.3885)
(-0.349011 0 5.86886)
(-32.3865 0 32.7576)
(-143.819 3.51953e-15 97.4775)
(-106.906 -6.35925e-15 98.9594)
(-277.397 0 149.308)
(-99.5796 0 -45.3489)
(211.578 4.60687e-15 -163.594)
(246.84 0 -105.535)
(44.5904 3.69826e-15 17.4227)
(-118.65 -3.39362e-15 67.7101)
(-16.0114 0 -8.22038)
(95.1217 0 -96.7619)
(378.279 0 -277.845)
(546.783 0 -332.668)
(366.167 0 -179.717)
(129.451 -1.13129e-15 -20.3012)
(-108.678 0 99.8652)
(-259.755 -5.60052e-16 186.503)
(-339.88 0 209.306)
(-351.358 -2.4972e-18 193.94)
(-279.129 -1.4485e-19 137.952)
(-183.429 0 87.6975)
(-113.135 6.35091e-16 50.6595)
(-47.1576 0 16.192)
(5.04435 0 -8.07352)
(10.663 -1.91081e-15 -3.89154)
(-20.4231 0 16.1779)
(-31.801 0 14.0258)
(38.176 0 -38.2387)
(137.745 0 -92.0089)
(144.765 0 -78.5895)
(42.6314 0 -7.74608)
(-45.8214 0 36.0399)
(-56.9482 0 31.8885)
(-37.4706 5.07779e-15 18.3151)
(-21.1835 0 9.62162)
(-9.52874 0 3.71553)
(0.130757 0 -1.51697)
(6.41606 -1.09086e-14 -4.82958)
(11.9 -9.89185e-15 -7.10232)
(9.26193 -9.42644e-15 -4.87905)
(4.91347 8.65403e-15 -1.28349)
(-8.13246 -1.63648e-18 6.81177)
(-18.9942 -6.83282e-15 13.1323)
(-30.7842 -1.14337e-14 19.7368)
(-37.0779 0 22.3129)
(-37.5309 8.70757e-15 21.8702)
(-35.7731 8.73915e-15 20.0204)
(-29.3149 0 15.9398)
(-25.2177 7.83085e-15 13.5989)
(-19.0261 6.46208e-15 10.1932)
(-17.7813 6.96842e-15 10.0255)
(-34.3124 0 49.421)
(-27.3691 -1.27434e-15 54.1857)
(-13.1807 0 53.5183)
(-7.9419 0 40.8917)
(-14.5876 -2.3852e-15 33.0704)
(-25.7306 -2.35853e-15 28.6772)
(-36.3908 2.32811e-15 24.1633)
(-44.6784 -6.89059e-15 21.6342)
(-55.0303 0 17.4348)
(-65.6632 -2.20823e-15 13.1997)
(-70.5055 4.24705e-15 12.5306)
(-76.7735 0 9.66434)
(-80.6299 -3.93605e-15 7.5343)
(-82.1174 0 6.52091)
(-84.4484 -3.60354e-15 4.90737)
(-83.0751 -3.4383e-15 5.29363)
(-81.2357 -3.26999e-15 4.41055)
(-79.9693 3.10013e-15 3.91533)
(-76.4337 5.85862e-15 2.571)
(-72.3939 0 3.21481)
(-63.766 -5.22168e-15 5.54046)
(-56.2568 0 4.62551)
(-49.8434 0 5.29782)
(-41.1858 4.39266e-15 6.57931)
(-34.4538 -8.3181e-15 5.41507)
(-29.2914 0 5.06359)
(-26.3274 0 2.45563)
(-25.0219 0 1.24281)
(-30.7569 6.68924e-15 -1.03191)
(-22.1303 -6.25887e-15 5.3489)
(-28.4602 1.27392e-17 -3.88678)
(-29.1337 -5.51935e-15 -1.20485)
(-29.9494 1.03271e-14 -5.85609)
(-31.5001 -4.75825e-15 -10.1552)
(-26.663 4.40532e-15 -8.48893)
(-25.6322 -2.0372e-17 -3.84747)
(-20.1089 0 -1.46088)
(-17.5942 -6.85737e-15 -0.202292)
(-17.9808 -6.21082e-15 -0.203451)
(-13.6927 5.61484e-15 -0.0641157)
(-13.4162 0 -1.19203)
(-13.1539 -4.56658e-15 0.392979)
(-10.1426 -4.13794e-15 -1.17309)
(-12.1244 -3.72907e-15 -2.19934)
(-9.27705 -3.36035e-15 -0.766075)
(-9.56014 0 -2.54878)
(-8.36801 0 -0.924276)
(-5.31658 1.51492e-18 -2.80844)
(-5.54519 0 -1.16965)
(-2.25614 0 -1.40961)
(-1.88865 3.79218e-15 -2.3963)
(-2.31725 -3.49092e-15 -1.4011)
(0.614247 -3.1867e-15 -1.97069)
(-1.01325 -2.56381e-19 -2.80678)
(0.349424 -4.5436e-18 -1.44455)
(0.27776 0 -1.71072)
(-1.54587 0 -0.234394)
(-2.45539 -9.11785e-15 0.631324)
(-3.95084 0 0.83244)
(-3.55195 0 -0.7074)
(-2.09471 3.67898e-15 -1.74793)
(2.03662 0 -4.15056)
(5.29134 0 -7.06657)
(12.934 -5.99099e-15 -11.7631)
(22.8821 5.75757e-15 -18.8263)
(35.4131 -1.02956e-14 -25.3325)
(40.3959 0 -27.0632)
(37.9239 4.39601e-15 -18.717)
(-3.20841 0 11.285)
(-41.9089 0 45.137)
(-161.69 -6.59448e-15 110.992)
(-86.9545 0 91.2426)
(-145.61 0 75.1953)
(-128.105 0 -43.6362)
(212.109 0 -179.946)
(271.067 0 -110.355)
(60.4714 -3.46315e-15 24.1777)
(-120.592 -2.35208e-18 70.0436)
(-4.70042 2.65634e-15 -22.5313)
(141.84 -2.21303e-15 -139.751)
(446.254 0 -334.084)
(589.054 0 -355.09)
(340.9 0 -149.31)
(95.1376 0 17.1225)
(-136.353 0 128.742)
(-277.954 -4.04447e-18 205.595)
(-352.759 0 219.768)
(-369.384 -2.16705e-16 202.358)
(-297.302 -6.72178e-21 142.284)
(-200.857 0 92.4351)
(-127.245 -5.93801e-16 54.091)
(-55.4308 0 17.1436)
(3.14161 4.62229e-16 -8.85384)
(10.705 -4.47605e-19 -3.20968)
(-20.1576 0 17.1996)
(-27.8996 0 10.0135)
(50.5231 0 -49.4444)
(153.387 0 -103.967)
(151.216 3.16711e-15 -79.523)
(39.3964 0 0.390693)
(-50.4668 0 41.5427)
(-61.1031 4.46461e-15 34.0044)
(-40.7501 0 19.2372)
(-23.1221 -4.89932e-15 9.94379)
(-10.7036 5.17544e-15 3.83279)
(-0.455953 0 -1.59797)
(5.72835 2.03739e-14 -4.70804)
(10.7009 6.74781e-20 -6.45916)
(6.96371 1.76003e-14 -3.36589)
(1.32537 -8.08039e-15 0.973378)
(-12.7724 -6.91418e-15 10.1949)
(-24.4697 6.37933e-15 16.7677)
(-36.9241 5.33717e-15 23.6559)
(-43.1582 4.89372e-15 25.9018)
(-43.8574 -8.12868e-15 25.4402)
(-41.4654 -8.15786e-15 23.0329)
(-34.8576 -6.67644e-15 18.8431)
(-30.0693 -7.30555e-15 16.1254)
(-23.6629 0 12.6499)
(-21.8313 0 12.3233)
(-37.2094 0 44.1192)
(-34.7824 -1.33456e-15 44.0236)
(-25.8399 0 42.4066)
(-21.0053 0 33.6853)
(-25.2871 0 23.0472)
(-32.1356 0 23.0274)
(-40.4255 -2.27262e-15 20.9872)
(-48.8011 2.17955e-15 17.484)
(-59.6013 -2.14558e-15 11.0874)
(-65.3449 4.12547e-15 11.4875)
(-71.4572 -3.99248e-15 10.7918)
(-79.2724 0 7.62993)
(-82.8826 3.7e-15 7.40785)
(-85.7535 0 6.38923)
(-87.3915 3.38759e-15 5.56823)
(-85.6933 3.22487e-15 7.08737)
(-85.0996 0 6.16852)
(-84.1042 0 5.69092)
(-79.6295 -2.75121e-15 5.04221)
(-74.4152 0 5.95447)
(-66.3758 0 8.52431)
(-59.8261 4.61378e-15 6.65408)
(-52.3817 0 6.98377)
(-43.1192 0 9.7788)
(-37.1632 3.90789e-15 7.30176)
(-31.4758 0 8.37396)
(-29.4163 0 4.09529)
(-26.5166 0 4.10875)
(-31.2363 -1.25573e-14 1.53343)
(-25.017 0 5.36056)
(-30.4109 1.12845e-17 -2.31926)
(-29.3276 1.80216e-17 1.27525)
(-29.7557 -4.84066e-15 -2.48919)
(-28.0505 4.47185e-15 -0.222924)
(-26.5925 -8.25615e-15 -5.6274)
(-25.0158 -3.82404e-15 -3.52998)
(-20.5231 0 -2.26517)
(-17.6977 0 0.215501)
(-18.2385 -5.81005e-15 -0.0428412)
(-13.6995 5.2635e-15 0.552947)
(-13.3538 0 -0.927752)
(-13.1546 0 0.385991)
(-10.2458 2.40686e-19 -0.953335)
(-11.9222 3.50217e-15 -2.15774)
(-9.13722 3.15563e-15 -0.832402)
(-9.37915 5.72801e-15 -2.62533)
(-8.08878 0 -0.87443)
(-5.07204 5.86312e-19 -2.86143)
(-5.1221 0 -1.29083)
(-1.94976 0 -1.36045)
(-1.56225 -3.55927e-15 -2.56861)
(-1.92488 3.2762e-15 -1.61734)
(0.913153 0 -2.06037)
(-0.695377 -2.82091e-15 -3.03815)
(0.700542 -5.34174e-18 -1.48152)
(0.490702 0 -1.647)
(-1.37851 0 -0.0160169)
(-2.5266 8.55953e-15 0.948246)
(-4.29542 0 1.18079)
(-4.06252 0 -0.611925)
(-2.34899 -6.90309e-15 -1.8446)
(2.32785 0 -4.71879)
(6.65199 0 -8.54775)
(15.9544 1.12346e-14 -14.4588)
(27.9594 -5.39615e-15 -22.959)
(41.9568 4.82578e-15 -30.1923)
(46.3069 0 -30.5441)
(40.9201 -4.11867e-15 -18.0346)
(-6.48768 0 17.9923)
(-51.2224 3.48063e-15 58.531)
(-172.016 3.08724e-15 118.432)
(-41.0201 0 60.1278)
(50.6165 0 -31.6031)
(-163.974 -4.495e-15 -15.1129)
(199.209 -4.02826e-15 -193.492)
(293.027 0 -113.975)
(76.7284 0 32.7983)
(-117.689 5.95333e-15 69.6087)
(10.9613 -2.48579e-15 -43.2318)
(193.271 4.14448e-15 -188.389)
(508.507 0 -387.914)
(611.351 0 -361.953)
(295.051 0 -103.455)
(67.7169 0 52.6469)
(-146.297 0 168.128)
(-289.283 -4.13982e-18 219.99)
(-360.529 0 227.504)
(-384.154 0 208.993)
(-311.845 1.72556e-19 144.104)
(-216.008 0 95.438)
(-141.791 -5.51271e-16 57.1587)
(-65.021 0 18.1989)
(-0.26602 -4.31985e-16 -9.2614)
(10.419 -1.85875e-19 -2.40762)
(-18.4473 0 17.3353)
(-22.0763 0 4.79868)
(62.0204 0 -61.9479)
(165.788 0 -114.05)
(153.946 2.15702e-19 -77.672)
(35.7714 3.20871e-15 9.54443)
(-53.9152 -3.72273e-15 46.4452)
(-64.4417 -4.16991e-15 35.5781)
(-43.7018 0 19.827)
(-24.9575 4.5754e-15 10.1272)
(-12.0263 -4.833e-15 3.96403)
(-1.46522 0 -1.47305)
(4.47877 -9.5119e-15 -4.21575)
(8.7355 1.72489e-14 -5.342)
(4.04947 -8.21458e-15 -1.45274)
(-2.54137 0 3.87096)
(-17.5742 6.45266e-15 13.441)
(-29.7545 0 20.3849)
(-42.8882 0 27.5152)
(-49.0699 -4.56817e-15 29.404)
(-50.333 0 29.0831)
(-47.3969 0 26.1309)
(-40.9104 6.23171e-15 21.9919)
(-35.3356 6.81872e-15 18.8417)
(-28.892 5.63015e-15 15.405)
(-26.1948 -6.0639e-15 14.7772)
(-43.4658 0 30.0695)
(-43.7521 1.2543e-15 29.6561)
(-33.6203 2.49434e-15 30.5279)
(-32.5254 0 25.4565)
(-34.536 0 17.2653)
(-39.2595 0 15.5648)
(-46.4466 2.13557e-15 15.8037)
(-54.3434 0 11.6445)
(-60.4562 2.01571e-15 7.21242)
(-64.6472 0 8.64391)
(-73.3974 0 7.26228)
(-79.4698 -3.63406e-15 5.51391)
(-83.0804 0 5.2809)
(-87.1936 -3.33159e-15 4.84628)