/*--------------------------------*- C++ -*----------------------------------*\
| =========                 |                                                 |
| \\      /  F ield         | OpenFOAM: The Open Source CFD Toolbox           |
|  \\    /   O peration     | Version:  2412                                  |
|   \\  /    A nd           | Website:  www.openfoam.com                      |
|    \\/     M anipulation  |                                                 |
\*---------------------------------------------------------------------------*/
FoamFile
{
    version     2.0;
    format      ascii;
    arch        "LSB;label=32;scalar=64";
    class       volScalarField;
    location    "1.375";
    object      Co;
}
// * * * * * * * * * * * * * * * * * * * * * * * * * * * * * * * * * * * * * //

dimensions      [0 0 0 0 0 0 0];

internalField   nonuniform List<scalar> 
12600
(
0.314871
0.176714
0.100071
0.0629593
0.044978
0.0350541
0.028653
0.0240706
0.0205957
0.0178593
0.0156443
0.0138141
0.012277
0.0109693
0.00984468
0.00886895
0.00801594
0.00726541
0.00660136
0.00601097
0.00548385
0.00501145
0.00458667
0.00420359
0.00385719
0.00354321
0.003258
0.00299841
0.00276171
0.00254554
0.00234781
0.00216671
0.00200062
0.00184812
0.00170795
0.00157898
0.0014602
0.00135072
0.00124972
0.00115647
0.00107033
0.000990692
0.000917023
0.000848837
0.000785689
0.000727179
0.000672938
0.000622635
0.00057596
0.000532638
0.00049241
0.000455045
0.000420324
0.000388055
0.000358049
0.00033015
0.000304192
0.000280048
0.000257572
0.000236661
0.000217186
0.000199066
0.000182182
0.000166476
0.000151836
0.000138222
0.000125528
0.000113732
0.00010273
9.25182e-05
8.29941e-05
7.41681e-05
6.59387e-05
5.83308e-05
5.12423e-05
4.47107e-05
3.86341e-05
3.30592e-05
2.78874e-05
2.31678e-05
1.88117e-05
1.48604e-05
1.1246e-05
7.98667e-06
5.04924e-06
2.41565e-06
2.18152e-06
3.96639e-06
5.59575e-06
6.99275e-06
8.11055e-06
9.12598e-06
9.76211e-06
1.05189e-05
1.06891e-05
1.13277e-05
1.09982e-05
1.17547e-05
1.10928e-05
1.17142e-05
1.13846e-05
1.0723e-05
1.1582e-05
1.08998e-05
1.07186e-05
1.00794e-05
1.03924e-05
1.16035e-05
1.08984e-05
1.29194e-05
1.21244e-05
1.18259e-05
1.93004e-05
1.80915e-05
1.80299e-05
2.15392e-05
2.0558e-05
1.92416e-05
1.13367e-05
9.5279e-06
0.478016
0.376596
0.276452
0.202535
0.153174
0.120563
0.098236
0.0821298
0.0699564
0.0604192
0.0527407
0.046427
0.0411482
0.0366748
0.0328419
0.0295273
0.0266384
0.0241037
0.0218667
0.0198827
0.0181151
0.0165344
0.0151157
0.0138386
0.0126857
0.0116424
0.0106961
0.00983598
0.0090528
0.00833844
0.00768582
0.00708875
0.00654178
0.00604009
0.0055794
0.00515593
0.00476628
0.00440743
0.00407665
0.00377152
0.00348984
0.00322962
0.00298906
0.00276656
0.00256063
0.00236994
0.00219326
0.00202951
0.00187764
0.00173676
0.001606
0.0014846
0.00137184
0.00126709
0.00116972
0.00107922
0.000995049
0.000916783
0.000843943
0.000776198
0.000713113
0.000654435
0.000599766
0.00054892
0.000501524
0.000457459
0.000416362
0.000378181
0.000342556
0.000309494
0.000278635
0.000250045
0.000223354
0.000198687
0.00017566
0.00015445
0.000134665
0.000116522
9.96261e-05
8.42171e-05
6.99225e-05
5.69593e-05
4.50315e-05
3.42588e-05
2.45015e-05
1.56863e-05
8.95303e-06
9.07177e-06
1.44994e-05
1.8913e-05
2.27665e-05
2.59317e-05
2.82638e-05
3.06311e-05
3.14055e-05
3.35303e-05
3.24722e-05
3.54528e-05
3.27083e-05
3.58833e-05
3.37184e-05
3.17169e-05
3.60328e-05
3.24661e-05
3.24545e-05
3.09529e-05
3.38212e-05
3.55898e-05
3.47689e-05
4.43113e-05
3.69369e-05
3.82893e-05
6.44888e-05
5.38045e-05
5.52927e-05
6.79745e-05
5.95825e-05
6.08528e-05
3.45829e-05
2.91886e-05
0.512533
0.468677
0.39735
0.325502
0.264568
0.216496
0.179606
0.151279
0.129193
0.11163
0.0973897
0.0856447
0.0758146
0.0674852
0.0603533
0.0541923
0.0488294
0.0441303
0.0399893
0.0363217
0.0330589
0.0301449
0.0275333
0.0251854
0.0230685
0.0211551
0.0194217
0.0178479
0.0164164
0.0151121
0.0139216
0.0128335
0.0118376
0.010925
0.0100876
0.00931855
0.00861143
0.00796069
0.0073613
0.00680876
0.006299
0.00582839
0.00539361
0.0049917
0.00461993
0.00427586
0.00395725
0.00366208
0.00338847
0.00313477
0.0028994
0.00268098
0.00247818
0.00228986
0.00211487
0.00195229
0.00180111
0.0016606
0.00152985
0.00140829
0.00129511
0.00118987
0.00109182
0.00100065
0.000915673
0.000836682
0.000763
0.00069456
0.000630677
0.000571405
0.000516042
0.000464765
0.000416837
0.000372561
0.00033115
0.000293034
0.000257372
0.000224706
0.000194153
0.000166331
0.000140369
0.000116862
9.5085e-05
7.54074e-05
5.74999e-05
4.12017e-05
2.68976e-05
1.84735e-05
2.22763e-05
2.97766e-05
3.70048e-05
4.22281e-05
4.68212e-05
5.06944e-05
5.24041e-05
5.61445e-05
5.41409e-05
6.03747e-05
5.41675e-05
6.20039e-05
5.59096e-05
5.28558e-05
6.30702e-05
5.41855e-05
5.5089e-05
5.31563e-05
6.18135e-05
6.11671e-05
6.2098e-05
8.55499e-05
6.33862e-05
6.99219e-05
0.000121452
8.98121e-05
9.55926e-05
0.000120957
9.91002e-05
0.000110094
6.0064e-05
5.16704e-05
0.504478
0.49118
0.453237
0.402817
0.350394
0.301684
0.259146
0.223219
0.193307
0.168467
0.147755
0.130358
0.115624
0.103039
0.0922048
0.0828119
0.0746157
0.0674226
0.0610775
0.0554547
0.0504515
0.0459831
0.0419791
0.0383804
0.0351372
0.0322072
0.0295541
0.0271468
0.0249584
0.0229656
0.0211479
0.0194875
0.0179687
0.0165777
0.0153023
0.0141315
0.0130557
0.0120663
0.0111554
0.0103162
0.00954235
0.00882832
0.00816899
0.0075598
0.00699657
0.00647555
0.00599329
0.00554671
0.00513293
0.00474941
0.00439374
0.00406381
0.00375758
0.00347331
0.00320926
0.00296401
0.00273603
0.00252417
0.00232711
0.00214393
0.00197342
0.00181489
0.00166723
0.00152995
0.00140199
0.00128307
0.00117214
0.00106911
0.000972915
0.000883673
0.000800275
0.000723039
0.000650784
0.000584045
0.000521533
0.000464014
0.000410068
0.00036069
0.000314335
0.000272176
0.000232628
0.000196869
0.000163536
0.000133411
0.00010587
8.06519e-05
5.85659e-05
3.76613e-05
3.20905e-05
3.86993e-05
5.00785e-05
5.72931e-05
6.48716e-05
7.01091e-05
7.32816e-05
7.86541e-05
7.57689e-05
8.60229e-05
7.53285e-05
8.96699e-05
7.76996e-05
7.48391e-05
9.21504e-05
7.60111e-05
7.85291e-05
7.60054e-05
9.38723e-05
8.76349e-05
9.14979e-05
0.000135404
9.13675e-05
0.00010719
0.000187472
0.000125999
0.000138719
0.00017813
0.000140432
0.000164775
8.74842e-05
7.70903e-05
0.488286
0.483457
0.465234
0.435317
0.398659
0.359564
0.321127
0.285252
0.252858
0.224192
0.199107
0.177267
0.158272
0.141729
0.127279
0.114615
0.103472
0.0936318
0.0849093
0.0771509
0.0702275
0.0640305
0.0584681
0.0534622
0.0489465
0.0448639
0.0411653
0.0378083
0.0347558
0.0319759
0.0294402
0.0271242
0.0250061
0.0230665
0.0212884
0.0196566
0.0181576
0.0167793
0.0155109
0.0143426
0.0132657
0.0122724
0.0113555
0.0105086
0.0097258
0.00900196
0.00833219
0.00771217
0.00713789
0.00660577
0.00611244
0.00565495
0.00523045
0.0048365
0.00447067
0.00413097
0.00381528
0.00352198
0.00324922
0.00299573
0.00275981
0.00254051
0.00233627
0.00214641
0.00196946
0.00180502
0.00165162
0.00150915
0.00137611
0.00125269
0.00113731
0.00103046
0.000930417
0.000838019
0.000751365
0.000671646
0.000596728
0.000528185
0.000463634
0.000404976
0.000349703
0.000299775
0.000252981
0.000210682
0.000171842
0.000136104
0.000104837
7.47498e-05
5.11226e-05
4.46146e-05
6.10395e-05
7.02818e-05
8.1665e-05
8.82038e-05
9.34583e-05
0.000100516
9.69505e-05
0.000111888
9.5913e-05
0.000118417
9.88312e-05
9.76601e-05
0.000122736
9.76259e-05
0.000102709
9.87711e-05
0.000129357
0.000114538
0.000121762
0.000192615
0.000120507
0.000150146
0.00025994
0.000162171
0.000184254
0.000237042
0.000183407
0.000222982
0.000116584
0.000105716
0.474083
0.468384
0.45743
0.439507
0.415732
0.387979
0.35814
0.327851
0.298341
0.270418
0.244545
0.220917
0.199551
0.180348
0.16315
0.147772
0.134026
0.121731
0.11072
0.100845
0.0919736
0.0839894
0.0767905
0.0702882
0.0644048
0.0590724
0.0542316
0.0498303
0.045823
0.0421692
0.0388335
0.0357844
0.0329942
0.030438
0.0280938
0.0259419
0.0239647
0.0221466
0.0204732
0.018932
0.0175113
0.016201
0.0149915
0.0138745
0.0128423
0.0118879
0.0110049
0.0101877
0.00943089
0.00872976
0.00807987
0.0074773
0.00691828
0.00639961
0.00591804
0.00547094
0.00505551
0.00466963
0.00431082
0.00397739
0.00366713
0.00337875
0.00311021
0.0028606
0.00262796
0.00241178
0.00221011
0.00202281
0.00184789
0.0016856
0.00153383
0.00139327
0.00126159
0.00113996
0.00102578
0.000920732
0.000821841
0.000731387
0.000645972
0.000568395
0.000495011
0.000428769
0.000366385
0.000309983
0.000257973
0.000209939
0.0001679
0.000126965
9.44846e-05
6.46804e-05
6.88057e-05
8.0217e-05
9.63357e-05
0.000104201
0.000112259
0.0001211
0.000117196
0.000137387
0.000115584
0.000147712
0.000119023
0.000121079
0.00015422
0.000118803
0.000127537
0.000120734
0.000167547
0.000141533
0.000151767
0.000255795
0.000150266
0.000198513
0.000336245
0.000197952
0.000231451
0.000295266
0.000227941
0.000282936
0.000147205
0.000137859
0.462782
0.454435
0.444575
0.431489
0.414901
0.395253
0.373277
0.349817
0.325693
0.301605
0.278108
0.255607
0.234368
0.214547
0.196207
0.179345
0.163913
0.149834
0.137016
0.12536
0.114766
0.105138
0.0963862
0.0884261
0.0811813
0.0745823
0.0685664
0.0630771
0.0580636
0.0534806
0.0492872
0.0454467
0.0419265
0.0386971
0.0357319
0.0330073
0.0305018
0.0281961
0.0260727
0.0241159
0.0223115
0.0206466
0.0191095
0.0176896
0.0163772
0.0151635
0.0140406
0.0130013
0.0120387
0.0111469
0.0103204
0.00955399
0.00884304
0.00818343
0.00757104
0.00700252
0.00647431
0.00598369
0.00552752
0.00510365
0.00470925
0.00434269
0.00400134
0.00368407
0.00338838
0.00311359
0.00285723
0.00261913
0.00239673
0.00219038
0.00199734
0.00181853
0.00165093
0.0014961
0.00135061
0.00121675
0.00109055
0.000975118
0.000865867
0.000766663
0.000672512
0.000587551
0.000507202
0.000434539
0.000367257
0.000304949
0.000250331
0.000196688
0.000154312
0.000107942
8.92433e-05
8.59214e-05
0.000107859
0.000117165
0.000128878
0.000139651
0.000135904
0.000161833
0.000133918
0.000176923
0.000137941
0.00014487
0.000185914
0.000139326
0.000152848
0.00014117
0.000207652
0.000168357
0.000180471
0.000323433
0.000179957
0.000251672
0.000413811
0.0002328
0.000279185
0.000350469
0.000273735
0.000343011
0.000179303
0.000173884
0.453439
0.443031
0.432418
0.42055
0.406961
0.391608
0.37467
0.356454
0.337333
0.317692
0.297891
0.278253
0.259051
0.240501
0.222768
0.205964
0.190156
0.175376
0.161624
0.148878
0.1371
0.126241
0.116245
0.107055
0.098613
0.0908606
0.0837435
0.0772096
0.0712105
0.0657011
0.0606397
0.0559881
0.0517113
0.0477772
0.0441567
0.0408229
0.0377517
0.034921
0.0323105
0.029902
0.0276787
0.0256254
0.0237281
0.0219743
0.0203522
0.0188515
0.0174623
0.016176
0.0149843
0.0138799
0.012856
0.0119065
0.0110255
0.010208
0.00944894
0.00874417
0.00808931
0.007481
0.00691537
0.00638975
0.00590066
0.00544605
0.00502269
0.00462917
0.00426238
0.00392149
0.00360343
0.00330798
0.00303196
0.00277581
0.00253612
0.00231405
0.00210579
0.00191337
0.0017324
0.00156587
0.00140865
0.00126483
0.00112844
0.00100459
0.000886723
0.000780356
0.000679396
0.000588057
0.000503151
0.000424363
0.000355119
0.000286706
0.000232708
0.000172887
0.00013317
9.90276e-05
0.000115045
0.000125981
0.000142366
0.000155269
0.000152351
0.000184421
0.000150396
0.000205315
0.000155189
0.000168673
0.000217058
0.00015898
0.000178378
0.00015934
0.00024882
0.000194789
0.000206919
0.000393909
0.000208774
0.000308646
0.000490146
0.000266032
0.000325941
0.000400489
0.000320317
0.00040174
0.000212907
0.000214201
0.445369
0.433638
0.422117
0.410221
0.39759
0.384087
0.369726
0.354602
0.33886
0.322665
0.306188
0.289599
0.273061
0.256726
0.24073
0.225191
0.210209
0.19586
0.1822
0.169267
0.157079
0.14564
0.134939
0.124957
0.115669
0.107041
0.0990401
0.0916281
0.0847683
0.0784237
0.0725587
0.0671386
0.0621306
0.0575039
0.0532295
0.0492801
0.0456307
0.0422579
0.03914
0.0362571
0.0335908
0.0311242
0.0288416
0.0267287
0.0247722
0.0229601
0.0212811
0.019725
0.0182824
0.0169446
0.0157035
0.0145519
0.013483
0.0124906
0.0115688
0.0107127
0.00991691
0.00917751
0.00848983
0.00785064
0.00725573
0.00670265
0.0061875
0.00570856
0.00526206
0.00484702
0.00445967
0.00409981
0.0037635
0.00345135
0.00315913
0.00288834
0.00263426
0.00239942
0.00217838
0.00197492
0.00178261
0.00160663
0.00143947
0.00128762
0.00114277
0.001012
0.000887496
0.000774791
0.000669632
0.000571907
0.000485727
0.000400255
0.000332659
0.000257256
0.000207272
0.000142139
0.00012944
0.000129296
0.000151609
0.00016687
0.000165667
0.0002042
0.000164381
0.000232023
0.000170281
0.000191969
0.000246816
0.000177525
0.000203721
0.000174468
0.000290143
0.000220599
0.000230236
0.000465517
0.00023582
0.000368109
0.000562881
0.000296866
0.00036983
0.000443385
0.000367111
0.00045782
0.000248078
0.000259256
0.438233
0.425653
0.413433
0.401238
0.388816
0.376029
0.362844
0.349294
0.335444
0.321373
0.307161
0.292885
0.278618
0.264434
0.250402
0.23659
0.223064
0.209885
0.19711
0.184788
0.172959
0.161655
0.150898
0.140699
0.131063
0.121987
0.113461
0.10547
0.0979958
0.0910159
0.0845071
0.0784448
0.072804
0.0675594
0.0626864
0.0581608
0.0539596
0.0500607
0.0464429
0.0430866
0.0399731
0.0370848
0.0344054
0.0319197
0.0296134
0.0274735
0.0254875
0.0236442
0.021933
0.0203443
0.0188688
0.0174984
0.0162252
0.0150422
0.0139426
0.0129206
0.0119701
0.0110865
0.0102642
0.00949955
0.00878756
0.00812538
0.00750836
0.0069345
0.00639931
0.00590168
0.00543708
0.00500531
0.00460164
0.00422685
0.00387582
0.00355043
0.00324492
0.00296246
0.00269638
0.00245135
0.00221952
0.00200726
0.00180534
0.00162181
0.00144638
0.00128792
0.00113662
0.000999568
0.00087124
0.000751851
0.000646139
0.000541074
0.000457626
0.000364267
0.000302035
0.000220426
0.00017479
0.000134947
0.000155309
0.000173143
0.000174816
0.000220049
0.000175093
0.000256039
0.000182611
0.00021406
0.000274276
0.000194667
0.000228297
0.000185711
0.000330652
0.000245489
0.000249623
0.00053649
0.000260142
0.000428405
0.000629801
0.000324455
0.000408628
0.000477484
0.000413508
0.000510112
0.000284831
0.000321781
0.431849
0.4187
0.405981
0.393487
0.381046
0.368535
0.355898
0.343135
0.330282
0.317387
0.304502
0.291671
0.278934
0.266324
0.253869
0.241594
0.229524
0.217685
0.206103
0.194809
0.183829
0.173192
0.162924
0.153046
0.143577
0.13453
0.125913
0.117731
0.109983
0.102663
0.0957646
0.0892749
0.083181
0.0774675
0.0721179
0.0671148
0.0624405
0.0580771
0.054007
0.0502126
0.0466772
0.0433845
0.0403188
0.0374653
0.0348097
0.032339
0.0300402
0.0279018
0.0259125
0.0240621
0.0223406
0.0207393
0.0192493
0.0178632
0.0165732
0.0153729
0.0142555
0.0132157
0.0122473
0.011346
0.0105062
0.00972461
0.00899585
0.00831767
0.00768483
0.00709608
0.00654611
0.00603475
0.00555641
0.00511208
0.00469568
0.0043095
0.00394669
0.00361106
0.00329465
0.00300311
0.00272698
0.00247399
0.00223302
0.00201381
0.00180391
0.00161413
0.00143251
0.00126782
0.00111311
0.000969043
0.000840908
0.000713451
0.000611598
0.000497661
0.000420943
0.000320549
0.000264063
0.000181488
0.000164699
0.000172488
0.000178567
0.000230631
0.000181581
0.000276182
0.000191424
0.000234054
0.000298436
0.000210003
0.00025132
0.000193114
0.000369307
0.000269027
0.000264325
0.000605015
0.000280768
0.000487582
0.000688841
0.000347918
0.000439846
0.000501385
0.000458952
0.000557622
0.000323053
0.000412727
0.42609
0.412544
0.399471
0.386733
0.374212
0.361806
0.349451
0.337124
0.324834
0.312608
0.300483
0.288497
0.276678
0.265052
0.253635
0.24244
0.23147
0.220731
0.210225
0.199957
0.189933
0.180162
0.170655
0.161424
0.152483
0.143844
0.13552
0.127521
0.119855
0.112528
0.105543
0.0988996
0.0925961
0.0866274
0.0809869
0.0756659
0.0706542
0.0659407
0.0615134
0.0573595
0.0534663
0.0498205
0.046409
0.043219
0.0402379
0.0374533
0.0348535
0.032427
0.030163
0.0280512
0.0260816
0.0242452
0.0225329
0.0209367
0.0194486
0.0180617
0.0167686
0.0155635
0.0144398
0.0133927
0.0124159
0.0115059
0.0106565
0.00986539
0.0091265
0.00843855
0.00779539
0.00719696
0.00663673
0.006116
0.00562761
0.00517439
0.00474823
0.00435375
0.00398152
0.00363829
0.00331287
0.00301447
0.00272988
0.00247073
0.0022222
0.00199721
0.00178145
0.00158556
0.00140097
0.00122893
0.00107519
0.000922266
0.000799142
0.000661746
0.000567992
0.00044618
0.000376393
0.00027462
0.000217642
0.000175933
0.000175486
0.000234348
0.000182686
0.000291071
0.000195769
0.000250846
0.000318185
0.000222975
0.000271768
0.000203585
0.000404962
0.000290586
0.000273606
0.000669237
0.000296729
0.000543449
0.000738066
0.000366361
0.000460819
0.000513936
0.000502995
0.000599492
0.000362407
0.000519688
0.420863
0.407034
0.393705
0.380778
0.368169
0.355795
0.343596
0.331537
0.319605
0.307807
0.296164
0.284701
0.273444
0.262415
0.251632
0.241108
0.230848
0.22085
0.211113
0.201628
0.19239
0.183393
0.174632
0.166105
0.157813
0.149757
0.141942
0.134372
0.127054
0.119993
0.113196
0.106666
0.100408
0.0944228
0.0887111
0.0832718
0.078102
0.0731975
0.0685528
0.0641611
0.0600147
0.0561053
0.0524238
0.0489609
0.0457066
0.0426514
0.0397851
0.0370983
0.034581
0.0322241
0.0300182
0.0279548
0.026025
0.0242212
0.0225352
0.0209601
0.0194883
0.018114
0.0168299
0.0156314
0.0145115
0.0134665
0.0124899
0.011579
0.0107271
0.00993311
0.00918993
0.00849773
0.00784903
0.0072455
0.00667889
0.0061526
0.00565724
0.00519832
0.00476481
0.00436471
0.00398494
0.00363633
0.00330344
0.00299992
0.00270843
0.00244413
0.00219021
0.0019593
0.00174109
0.00153754
0.00135472
0.001173
0.00102544
0.000861439
0.000747765
0.000601623
0.000515887
0.000392516
0.000323022
0.0002347
0.000184661
0.000229251
0.000177003
0.000299084
0.000194448
0.000263101
0.000332256
0.000232807
0.000288367
0.000216808
0.000436338
0.00030928
0.000276696
0.000727255
0.000307071
0.00059363
0.000775615
0.000378883
0.000468799
0.000514152
0.000545331
0.000634994
0.000402235
0.000642459
0.416092
0.40206
0.388546
0.375475
0.362785
0.350412
0.338302
0.326415
0.314728
0.303232
0.29193
0.280835
0.269965
0.259335
0.248963
0.238862
0.229041
0.219505
0.210252
0.201277
0.192573
0.184129
0.175936
0.167982
0.160259
0.152758
0.145473
0.1384
0.131538
0.124884
0.118441
0.11221
0.106192
0.100391
0.0948087
0.0894463
0.0843052
0.0793854
0.0746862
0.0702059
0.0659416
0.0618898
0.0580457
0.0544042
0.0509593
0.0477046
0.044633
0.0417375
0.0390106
0.0364449
0.0340325
0.0317664
0.0296386
0.0276423
0.0257698
0.024015
0.0223703
0.0208303
0.0193876
0.0180377
0.0167736
0.0155916
0.0144846
0.0134503
0.0124813
0.0115767
0.0107286
0.00993765
0.00919527
0.00850373
0.00785358
0.00724902
0.00667923
0.00615077
0.00565092
0.00518906
0.0047501
0.00434663
0.00396085
0.00360855
0.00326973
0.00296195
0.00266576
0.00239588
0.00214017
0.00190135
0.00168579
0.00147171
0.00129626
0.00110228
0.000965474
0.000791824
0.000687173
0.000539349
0.000454377
0.000345228
0.000256756
0.000241944
0.000162851
0.000298321
0.000185951
0.000269234
0.000339176
0.000238444
0.000299569
0.000226202
0.000461984
0.000323912
0.000272738
0.000777084
0.000310855
0.000635627
0.000799625
0.000384564
0.000461041
0.000501098
0.000585762
0.000663538
0.000468503
0.000807052
0.411716
0.397536
0.383887
0.37071
0.357955
0.34557
0.33351
0.321736
0.310221
0.298945
0.287901
0.277089
0.266515
0.256188
0.24612
0.23632
0.2268
0.217566
0.208621
0.199965
0.191594
0.183501
0.175676
0.16811
0.16079
0.153705
0.146844
0.140196
0.133752
0.127504
0.121447
0.115576
0.109888
0.104381
0.0990544
0.0939076
0.0889409
0.0841549
0.07955
0.0751264
0.0708837
0.0668214
0.0629381
0.0592319
0.0557001
0.0523397
0.0491468
0.0461174
0.0432465
0.0405295
0.0379605
0.0355344
0.033245
0.0310871
0.029054
0.0271407
0.0253404
0.0236486
0.0220583
0.0205656
0.0191633
0.0178486
0.0166139
0.0154576
0.0143716
0.0133556
0.012401
0.0115091
0.0106702
0.00988758
0.00915041
0.00846392
0.00781577
0.0072138
0.00664347
0.00611575
0.00561338
0.00515093
0.00470806
0.00430289
0.00391264
0.00355736
0.0032149
0.00290213
0.00260504
0.00232712
0.00207505
0.0018249
0.00161793
0.00139037
0.00122695
0.00102238
0.00089552
0.000720059
0.000616512
0.000483865
0.000379428
0.000326188
0.000178506
0.000286559
0.000168365
0.000267398
0.000337179
0.000238496
0.000303534
0.000230346
0.000480224
0.000332937
0.000260722
0.00081662
0.000307134
0.000666858
0.000808148
0.000382439
0.000434861
0.000473699
0.000624073
0.000684681
0.000556214
0.00101048
0.407684
0.393398
0.379652
0.366397
0.353591
0.341193
0.329162
0.317464
0.306069
0.294956
0.284109
0.273519
0.263184
0.253104
0.243284
0.233729
0.224446
0.215442
0.20672
0.198283
0.190131
0.18226
0.174666
0.167341
0.160275
0.153459
0.14688
0.140529
0.134393
0.128461
0.122723
0.117171
0.111796
0.106591
0.101552
0.0966724
0.0919503
0.087383
0.0829686
0.0787062
0.0745949
0.0706342
0.0668235
0.0631623
0.0596496
0.0562843
0.0530649
0.0499896
0.0470557
0.0442611
0.0416021
0.0390759
0.036678
0.0344053
0.0322526
0.0302167
0.0282916
0.0264745
0.0247588
0.0231421
0.0216173
0.0201827
0.0188307
0.0175604
0.0163637
0.015241
0.0141833
0.0131924
0.0122582
0.0113847
0.0105599
0.00979036
0.00906218
0.00838465
0.00774139
0.00714515
0.00657642
0.0060519
0.00554868
0.00508729
0.00464217
0.00423586
0.00384358
0.00348427
0.00314217
0.00282145
0.00252921
0.00223928
0.00199708
0.0017323
0.00153856
0.0012995
0.00114684
0.000940288
0.000814797
0.000655422
0.000531831
0.000458162
0.000286267
0.000325488
0.000140685
0.000255479
0.000324104
0.00023119
0.000298098
0.000227516
0.000489124
0.000334425
0.000239405
0.000843573
0.00029491
0.000684684
0.000799065
0.000371453
0.000387653
0.000430497
0.000659808
0.000707819
0.000659398
0.00123843
0.403953
0.389592
0.375776
0.362465
0.349624
0.337214
0.325202
0.313556
0.30225
0.291258
0.280561
0.270146
0.260004
0.250129
0.240519
0.231173
0.222094
0.213286
0.20475
0.19649
0.188506
0.180798
0.173362
0.166195
0.15929
0.15264
0.146237
0.14007
0.13413
0.128406
0.122888
0.117565
0.112426
0.107464
0.102668
0.0980308
0.0935462
0.089208
0.0850111
0.0809515
0.0770259
0.0732317
0.0695669
0.0660299
0.0626194
0.0593343
0.0561735
0.0531362
0.0502209
0.0474266
0.0447514
0.042194
0.0397516
0.0374229
0.0352042
0.0330939
0.0310876
0.0291838
0.0273771
0.0256664
0.0240454
0.0225136
0.0210638
0.0196964
0.0184031
0.0171855
0.0160342
0.0149525
0.0139291
0.0129697
0.012061
0.0112111
0.0104045
0.0096524
0.00893639
0.00827131
0.00763532
0.00704748
0.00648222
0.00596264
0.00546039
0.00500054
0.00455576
0.00414698
0.0037569
0.00339014
0.00305446
0.00272129
0.00244036
0.00213479
0.001907
0.00162983
0.0014476
0.00120633
0.00105526
0.00086555
0.000719505
0.000621763
0.000428258
0.000453313
0.000209813
0.000264655
0.000297238
0.000214335
0.000280732
0.000215616
0.000486454
0.000326021
0.000207218
0.000855395
0.000273075
0.000686399
0.000770015
0.0003504
0.000316882
0.000369333
0.00069197
0.00078268
0.000821876
0.00148819
0.400487
0.386074
0.372211
0.358862
0.345996
0.333579
0.321582
0.309975
0.298733
0.287833
0.277252
0.266975
0.256989
0.247282
0.237849
0.228684
0.219785
0.211151
0.202783
0.19468
0.186844
0.179274
0.171967
0.164922
0.158135
0.1516
0.145311
0.139261
0.133442
0.127845
0.122462
0.117282
0.112297
0.107496
0.102871
0.0984117
0.0941104
0.0899589
0.0859499
0.0820769
0.078334
0.074716
0.0712186
0.0678382
0.0645715
0.0614161
0.0583696
0.0554306
0.0525971
0.0498683
0.0472422
0.0447185
0.0422949
0.0399711
0.0377444
0.0356146
0.033578
0.0316349
0.0297806
0.0280157
0.0263343
0.0247378
0.023219
0.0217801
0.0204128
0.0191203
0.0178928
0.0167351
0.0156355
0.014601
0.0136176
0.012695
0.0118163
0.0109948
0.01021
0.00947911
0.00877803
0.00812832
0.00750181
0.00692422
0.00636456
0.00585033
0.00535196
0.00489204
0.00445219
0.00403706
0.00365554
0.00327633
0.00295369
0.00260418
0.00233886
0.00202018
0.00180459
0.00152496
0.00134452
0.00112062
0.000948636
0.000822602
0.000605024
0.000610411
0.000341316
0.00036601
0.000310781
0.000189624
0.000248449
0.000192101
0.000469675
0.000304896
0.000165197
0.000849189
0.000240324
0.000669191
0.000718321
0.000317845
0.000220074
0.000287055
0.000748897
0.000894067
0.00100064
0.00175603
0.397257
0.382809
0.368915
0.355542
0.342661
0.330243
0.318259
0.306683
0.295492
0.284662
0.274172
0.264004
0.254142
0.244574
0.235289
0.226278
0.217536
0.209058
0.200841
0.192884
0.185185
0.177742
0.170555
0.163619
0.156933
0.150492
0.144292
0.138327
0.132592
0.127078
0.121779
0.116688
0.111795
0.107093
0.102573
0.0982264
0.094045
0.0900206
0.086145
0.0824108
0.0788107
0.0753382
0.0719869
0.0687516
0.065627
0.062609
0.0596933
0.0568771
0.0541569
0.051531
0.0489964
0.0465524
0.044196
0.0419272
0.0397431
0.0376442
0.035627
0.0336927
0.031837
0.0300617
0.0283613
0.0267385
0.0251866
0.0237092
0.0222979
0.0209578
0.0196787
0.0184673
0.0173111
0.0162193
0.0151766
0.014195
0.013256
0.0123752
0.0115304
0.0107413
0.00998139
0.00927499
0.00859147
0.00795915
0.00734469
0.00677776
0.00622706
0.00571636
0.00522686
0.00476262
0.00433436
0.00390751
0.00354126
0.00314552
0.00283989
0.00247685
0.00222444
0.00190308
0.00168953
0.00142755
0.00122602
0.00106712
0.000822854
0.000802854
0.000507238
0.000518971
0.00043696
0.000267331
0.000231348
0.000153847
0.000435965
0.000267623
0.000119215
0.000821582
0.000195035
0.000630123
0.000640914
0.000272014
0.000136771
0.000179517
0.000857494
0.00107103
0.00119633
0.00203757
0.394236
0.379767
0.365854
0.352468
0.339581
0.327166
0.315196
0.303647
0.292497
0.281723
0.271305
0.261225
0.251464
0.242009
0.232847
0.223967
0.21536
0.20702
0.198939
0.191115
0.183543
0.176221
0.169146
0.162315
0.155725
0.149372
0.143253
0.137363
0.131696
0.126248
0.121011
0.11598
0.111148
0.106508
0.102052
0.0977726
0.0936632
0.0897157
0.0859228
0.0822771
0.0787713
0.0753986
0.0721521
0.0690257
0.066013
0.063109
0.0603078
0.0576055
0.0549971
0.0524796
0.0500485
0.0477023
0.0454366
0.0432511
0.0411416
0.0391087
0.037148
0.0352612
0.0334434
0.0316973
0.030017
0.0284064
0.0268582
0.0253779
0.0239563
0.0226005
0.0212995
0.0200622
0.0188749
0.0177493
0.0166687
0.0156476
0.0146659
0.0137418
0.012851
0.0120162
0.0112086
0.0104553
0.00972335
0.00904356
0.00838071
0.00776619
0.00716772
0.00660948
0.00607326
0.00556157
0.00508795
0.00461381
0.00420384
0.00376116
0.0034137
0.00300459
0.00271274
0.002347
0.00209698
0.00179337
0.0015588
0.00136239
0.00108868
0.00103737
0.00071356
0.000706658
0.000594943
0.000418411
0.000348094
0.0002256
0.000422667
0.00020983
6.37583e-05
0.000768554
0.000135123
0.00056619
0.000534167
0.000210662
0.000121795
0.000124879
0.00102958
0.00127143
0.00140974
0.00232807
0.391401
0.376922
0.363001
0.34961
0.336723
0.324315
0.312361
0.300837
0.289723
0.278996
0.268637
0.258627
0.248949
0.239587
0.230527
0.221757
0.213267
0.205045
0.197086
0.189381
0.181927
0.174717
0.167749
0.161018
0.154521
0.148255
0.142214
0.136396
0.130795
0.125406
0.120225
0.115245
0.11046
0.105865
0.101454
0.0972193
0.0931549
0.0892542
0.0855105
0.0819172
0.0784676
0.0751554
0.0719739
0.0689172
0.0659788
0.0631534
0.0604347
0.0578182
0.0552979
0.0528703
0.0505297
0.0482736
0.0460967
0.0439976
0.0419711
0.0400172
0.0381303
0.036312
0.0345562
0.0328659
0.0312342
0.0296657
0.0281521
0.0267
0.0252993
0.0239586
0.0226656
0.0214315
0.0202411
0.0191083
0.0180148
0.0169779
0.0159755
0.0150287
0.0141111
0.013248
0.0124088
0.011623
0.010856
0.0101405
0.00944012
0.00878727
0.00814968
0.00755087
0.00697453
0.00642034
0.00590595
0.0053877
0.0049366
0.00444863
0.00405996
0.00360498
0.00327258
0.00286122
0.00257236
0.00222443
0.00195379
0.00171561
0.00140972
0.00132139
0.000967044
0.000936155
0.000790236
0.000605006
0.000499227
0.000370992
0.000537002
0.000271269
8.00724e-05
0.000721132
6.42228e-05
0.000480938
0.000398799
0.000172604
0.000247518
0.000192769
0.00126301
0.00149283
0.00164202
0.00262261
0.388732
0.374252
0.36033
0.346942
0.334061
0.321665
0.309727
0.298228
0.287145
0.276458
0.266149
0.256198
0.246588
0.237304
0.22833
0.219653
0.211261
0.203143
0.195289
0.187691
0.180343
0.173237
0.166369
0.159734
0.153327
0.147144
0.141181
0.135434
0.129898
0.124568
0.11944
0.114509
0.10977
0.105216
0.100842
0.0966427
0.0926121
0.0887442
0.085033
0.0814727
0.0780571
0.0747807
0.0716373
0.0686215
0.0657271
0.0629493
0.0602817
0.0577202
0.0552584
0.0528929
0.0506172
0.048429
0.0463217
0.044294
0.0423392
0.0404574
0.0386415
0.0368931
0.0352045
0.0335791
0.0320082
0.0304972
0.029036
0.0276323
0.0262742
0.0249718
0.0237111
0.0225048
0.0213362
0.0202212
0.0191395
0.018111
0.0171114
0.0161644
0.0152416
0.0143709
0.0135198
0.0127199
0.0119352
0.0111999
0.0104772
0.00979954
0.0091359
0.00850767
0.00790206
0.00731432
0.00676774
0.00621229
0.0057262
0.00519796
0.00477178
0.004274
0.00390242
0.00344649
0.00311821
0.002725
0.00241636
0.00213325
0.00179276
0.00166262
0.00127478
0.00121527
0.00102948
0.00083377
0.00068717
0.000551296
0.000690402
0.000409717
0.000207164
0.00081687
0.000178913
0.000560326
0.000440536
0.000320151
0.000465623
0.000353891
0.00151861
0.00173246
0.00189401
0.00291597
0.386213
0.371738
0.357823
0.344442
0.331572
0.31919
0.307271
0.295796
0.284743
0.274092
0.263826
0.253926
0.244374
0.235154
0.226252
0.217654
0.209346
0.201317
0.193555
0.186052
0.178798
0.171787
0.165011
0.158465
0.152144
0.146042
0.140154
0.134478
0.129006
0.123736
0.118663
0.113781
0.109086
0.104572
0.100235
0.0960692
0.0920691
0.0882295
0.0845446
0.0810095
0.0776182
0.0743658
0.0712465
0.0682556
0.0653871
0.0626369
0.0599989
0.0574693
0.0550419
0.0527138
0.0504783
0.0483334
0.0462721
0.0442935
0.0423899
0.040562
0.0388012
0.0371099
0.0354785
0.0339113
0.0323977
0.0309439
0.0295379
0.0281882
0.0268812
0.025628
0.0244125
0.0232492
0.0221189
0.0210396
0.0199888
0.0189882
0.0180117
0.0170849
0.0161776
0.0153196
0.0144768
0.0136823
0.0128995
0.0121626
0.011436
0.0107501
0.0100771
0.00943437
0.00881445
0.00820618
0.00764023
0.00705872
0.00654801
0.00598867
0.00553263
0.00499904
0.00459313
0.00409714
0.00373166
0.00329498
0.00294839
0.00261941
0.00224272
0.00206794
0.00164329
0.00155195
0.00131985
0.00111183
0.000919192
0.000772467
0.000877573
0.000581258
0.00036453
0.000943513
0.000335169
0.000675336
0.0005167
0.000502179
0.000713504
0.00061296
0.00179607
0.00198772
0.00216511
0.00320214
0.383829
0.369364
0.35546
0.342092
0.329237
0.316871
0.304973
0.293522
0.282497
0.27188
0.261653
0.251796
0.242294
0.233131
0.22429
0.215759
0.207523
0.19957
0.191888
0.184467
0.177298
0.170371
0.16368
0.157216