/*--------------------------------*- C++ -*----------------------------------*\
| =========                 |                                                 |
| \\      /  F ield         | OpenFOAM: The Open Source CFD Toolbox           |
|  \\    /   O peration     | Version:  2412                                  |
|   \\  /    A nd           | Website:  www.openfoam.com                      |
|    \\/     M anipulation  |                                                 |
\*---------------------------------------------------------------------------*/
FoamFile
{
    version     2.0;
    format      ascii;
    arch        "LSB;label=32;scalar=64";
    class       volScalarField;
    location    "0.395";
    object      Co;
}
// * * * * * * * * * * * * * * * * * * * * * * * * * * * * * * * * * * * * * //

dimensions      [0 0 0 0 0 0 0];

internalField   nonuniform List<scalar> 
12600
(
0.393535
0.165155
0.0665226
0.0299443
0.0163736
0.0103134
0.00686071
0.00461624
0.00306747
0.00196619
0.00117064
0.000585835
0.000322705
0.0004082
0.000581587
0.000697931
0.000779831
0.000826473
0.000851958
0.000857398
0.00084949
0.000830799
0.000804344
0.000772625
0.000739088
0.000704693
0.000668704
0.000630293
0.000589534
0.000551522
0.000514435
0.000477815
0.000442494
0.000408912
0.000377093
0.000347039
0.000318799
0.000292423
0.0002679
0.000245113
0.000223977
0.000204413
0.000186308
0.000169564
0.000154126
0.000140013
0.000127297
0.000115995
0.000106112
9.75236e-05
8.99714e-05
8.30959e-05
7.64069e-05
6.9401e-05
6.15363e-05
5.23431e-05
4.15054e-05
2.89283e-05
1.53276e-05
1.65781e-05
3.13798e-05
4.25554e-05
4.75944e-05
4.57499e-05
4.34296e-05
3.74936e-05
3.01367e-05
2.61545e-05
5.72824e-05
0.000123205
0.000177927
0.000173445
0.000164146
0.000136775
0.000487045
0.000588394
0.000555952
0.00015633
6.78634e-05
7.11887e-05
0.00012696
0.000138299
0.000130282
0.000180952
0.000357799
0.000582529
0.000682245
0.000641658
0.000598443
0.000458182
0.000284897
0.000135918
5.41423e-05
3.38888e-05
4.0248e-05
3.77277e-05
3.60974e-05
4.76426e-05
5.8489e-05
5.4752e-05
4.03395e-05
3.49242e-05
3.84436e-05
3.59343e-05
2.13558e-05
8.27903e-06
5.69947e-06
7.98114e-06
8.32742e-06
7.76686e-06
6.43701e-06
3.94918e-06
1.63328e-06
6.35257e-07
2.63929e-06
6.42699e-06
1.31483e-05
1.88726e-05
2.73844e-05
3.27078e-05
0.628321
0.412229
0.243841
0.141743
0.0862611
0.055973
0.038163
0.0267545
0.0189673
0.0134318
0.00939514
0.00639937
0.00415122
0.00245675
0.001179
0.000882204
0.00130539
0.00166645
0.00192246
0.00208337
0.00217717
0.00221556
0.002212
0.00217707
0.00212
0.00204633
0.00197013
0.00188878
0.00179397
0.00169967
0.00160133
0.00150116
0.00140169
0.00130458
0.00121064
0.00112048
0.00103452
0.000953145
0.00087669
0.000805045
0.000738094
0.000675705
0.000617634
0.000563639
0.000513552
0.000467406
0.000425494
0.000387941
0.000354915
0.000326174
0.000301027
0.000278461
0.000256974
0.000234964
0.000210657
0.000182428
0.000149092
0.00011014
6.60281e-05
6.68609e-05
0.000112057
0.000146112
0.000158587
0.000147831
0.000143409
0.00012621
0.000104713
0.000114975
0.000247925
0.000472925
0.00063051
0.000547897
0.000613513
0.000548267
0.00183231
0.00194411
0.00208787
0.000666878
0.000245049
0.000246666
0.000454208
0.000429824
0.000431894
0.000776794
0.00147429
0.00208968
0.00222005
0.00197499
0.00189319
0.00149411
0.000964008
0.000478107
0.000213275
0.000141094
0.000140976
0.000127048
0.000126409
0.00017134
0.000194152
0.00018049
0.000155369
0.000136389
0.000119261
0.000116948
7.22643e-05
3.23365e-05
2.48809e-05
2.88879e-05
2.73159e-05
2.55215e-05
2.22587e-05
1.52372e-05
6.841e-06
3.60479e-06
1.65563e-05
3.3032e-05
5.65263e-05
7.41152e-05
0.00010194
0.000116601
0.694411
0.566401
0.412964
0.2836
0.19164
0.131221
0.0920874
0.0660834
0.0481228
0.0352794
0.0258487
0.0187907
0.0134366
0.00933949
0.00617143
0.00379358
0.00192952
0.00151323
0.00213209
0.00258541
0.00289636
0.00308938
0.00319077
0.00322258
0.00319819
0.00313096
0.00303964
0.0029323
0.00283498
0.00272445
0.00259715
0.00245964
0.00231717
0.00217308
0.00203002
0.0018899
0.00175394
0.00162327
0.00149906
0.00138157
0.00127088
0.00116701
0.00106975
0.000978766
0.000893762
0.000814739
0.000742306
0.000676813
0.000618879
0.00056848
0.000524792
0.000486461
0.00045114
0.000416237
0.000378688
0.000335444
0.000284038
0.000223025
0.000152612
0.000149745
0.000218896
0.000271095
0.000281897
0.000250499
0.000249317
0.000227305
0.000201991
0.000267081
0.00055741
0.000965602
0.00118996
0.000911097
0.00124089
0.00117844
0.00379243
0.00352829
0.0042128
0.00147907
0.000452871
0.000444001
0.000868021
0.000693132
0.000843874
0.00177892
0.00314394
0.00396193
0.00381302
0.00324049
0.00325082
0.00267067
0.00179697
0.000933531
0.000459467
0.000303174
0.000259377
0.000223024
0.00023109
0.00032318
0.000338473
0.000331967
0.000340815
0.000292404
0.000195222
0.000212366
0.000138285
6.9186e-05
5.47238e-05
5.50859e-05
4.73676e-05
4.54539e-05
4.22223e-05
3.16046e-05
1.61824e-05
1.53186e-05
4.61933e-05
7.76779e-05
0.000121875
0.00014924
0.000198687
0.000219164
0.69152
0.633141
0.529198
0.413484
0.309865
0.22797
0.167482
0.123919
0.0924733
0.0694361
0.0522668
0.0392732
0.0293178
0.0216216
0.0156192
0.0109795
0.00731594
0.00449492
0.00255864
0.00228234
0.00294364
0.00340304
0.00370268
0.0038783
0.00395313
0.00395191
0.00388963
0.00378387
0.00367561
0.00357041
0.00345507
0.00331617
0.00315851
0.00298969
0.00281515
0.00263896
0.00246378
0.00229205
0.00212636
0.00196771
0.0018167
0.00167382
0.00153903
0.00141206
0.00129247
0.00118026
0.00107643
0.000981711
0.000897416
0.000824077
0.00076105
0.000706943
0.000658749
0.000612977
0.000565209
0.000510733
0.000445401
0.0003663
0.000272857
0.000261891
0.000348333
0.000415052
0.000416685
0.000354082
0.000359928
0.000341518
0.000323834
0.000483209
0.000979912
0.00158415
0.0018325
0.00127371
0.00201482
0.00198081
0.00623488
0.00534991
0.00675379
0.00258909
0.000667463
0.000656708
0.00133975
0.000893127
0.00139223
0.00316303
0.00526778
0.00605179
0.00534118
0.00445101
0.00463444
0.0039289
0.00273449
0.00147516
0.00077667
0.000511724
0.000392981
0.000324515
0.000349968
0.000495982
0.000479911
0.000512162
0.000583228
0.000483695
0.000257925
0.000318379
0.000214942
0.000116101
9.36049e-05
8.57855e-05
6.85072e-05
6.79161e-05
6.60558e-05
5.23777e-05
2.84568e-05
3.82904e-05
9.30707e-05
0.000140833
0.000208178
0.000242648
0.00031486
0.000338678
0.665813
0.642143
0.58446
0.50234
0.412126
0.327245
0.254932
0.196889
0.151698
0.116903
0.0901167
0.0693907
0.0532483
0.0405998
0.0306265
0.0227781
0.0165429
0.0116342
0.00773624
0.0046819
0.00300322
0.00303421
0.00364617
0.00406176
0.00431612
0.0044466
0.00447752
0.00443191
0.00433329
0.00422121
0.00410663
0.00400827
0.00387468
0.003712
0.00353072
0.00333825
0.00313959
0.00293917
0.00274166
0.00254939
0.00236384
0.00218632
0.0020173
0.0018567
0.00170405
0.00155934
0.00142414
0.00129965
0.00118815
0.00109106
0.00100821
0.000938494
0.000878447
0.000823796
0.000768738
0.000706685
0.000631448
0.000538172
0.000425043
0.000400243
0.000496273
0.000574628
0.000560996
0.0004577
0.000472792
0.000468322
0.000471054
0.000763515
0.00150897
0.00231119
0.00253419
0.00163559
0.00290381
0.00293771
0.0090217
0.00737648
0.00950716
0.00397827
0.00086285
0.000876895
0.00184007
0.00104655
0.00218463
0.00497771
0.00773084
0.00820844
0.00669
0.00560343
0.00600006
0.00520991
0.00372664
0.00207556
0.00115057
0.000759156
0.000540412
0.000430226
0.000481873
0.000682223
0.000608858
0.000722536
0.000870186
0.000693398
0.00030166
0.00043119
0.00029815
0.000170747
0.000140182
0.000120557
9.121e-05
9.31102e-05
9.33506e-05
7.67944e-05
4.39523e-05
7.43014e-05
0.000157911
0.000221837
0.000313934
0.000352746
0.000447574
0.00047301
0.637501
0.624385
0.594832
0.545007
0.479878
0.408153
0.338008
0.274685
0.220455
0.175539
0.139054
0.109708
0.0861969
0.0673747
0.0522858
0.0402077
0.030505
0.022742
0.0165133
0.0115465
0.00759307
0.00447064
0.00323588
0.00367376
0.00420514
0.00454922
0.00474136
0.00481463
0.00479766
0.00471262
0.00459529
0.00447696
0.00440737
0.00429219
0.00413763
0.00395558
0.00375487
0.00354281
0.003327
0.00311179
0.00290008
0.00269446
0.00249624
0.00230582
0.00212284
0.00194741
0.00178176
0.00162772
0.0014888
0.00136761
0.0012648
0.00117982
0.001109
0.0010474
0.000987834
0.000921672
0.00084037
0.000736748
0.000607343
0.000561558
0.00065833
0.000746313
0.000712824
0.00056061
0.000585592
0.000607359
0.000644617
0.00110743
0.00213647
0.00312741
0.0032719
0.00198685
0.00387645
0.00406624
0.0119987
0.00953024
0.012242
0.00560984
0.0010662
0.00109537
0.00233851
0.00127404
0.00332779
0.00726861
0.0104017
0.0102849
0.00777492
0.0066955
0.00731605
0.00647188
0.00473911
0.0027149
0.0015691
0.00103886
0.000700975
0.000538862
0.000624805
0.0008742
0.000717761
0.000962291
0.00118883
0.000907108
0.000322639
0.000546794
0.00038426
0.000231045
0.000193431
0.000159319
0.000116379
0.000121058
0.000123575
0.000104103
7.35469e-05
0.00012476
0.000240786
0.000319697
0.000437091
0.00047758
0.000593922
0.000619637
0.612985
0.600107
0.58223
0.553263
0.51139
0.459172
0.401561
0.343438
0.288459
0.238847
0.195582
0.158755
0.127922
0.102385
0.0813706
0.0641709
0.0501194
0.0386867
0.0293933
0.0218717
0.0158018
0.0109283
0.0070434
0.00420919
0.00351296
0.00417087
0.00460803
0.0048703
0.00499559
0.00501479
0.00495062
0.00482538
0.00473416
0.004671
0.00458546
0.00445015
0.00427603
0.0040753
0.00385962
0.00363616
0.00340996
0.00318547
0.00296529
0.0027507
0.00254169
0.00233861
0.00214453
0.00196212
0.00179633
0.0016513
0.00152878
0.00142916
0.00134874
0.00128211
0.00122072
0.00115378
0.00107015
0.000959977
0.00081783
0.000742347
0.000829648
0.000926063
0.000869606
0.000661588
0.00069539
0.00075767
0.000844977
0.00151335
0.00285256
0.00401194
0.00402397
0.00232127
0.00490115
0.00540546
0.014983
0.0116854
0.0147086
0.00742591
0.00141527
0.00130149
0.00280358
0.00161847
0.00473091
0.00988249
0.0131408
0.012152
0.00854958
0.00772072
0.00855798
0.00768487
0.00574525
0.00337759
0.00202245
0.00134564
0.000874782
0.000648917
0.000775981
0.00106449
0.000801321
0.00122917
0.00152651
0.00111285
0.000323138
0.000661501
0.000475493
0.000300388
0.000252732
0.00020235
0.000145241
0.000151633
0.000156079
0.000133531
0.000121921
0.000189903
0.000340451
0.000432508
0.000574995
0.000615046
0.000750833
0.000775591
0.592377
0.57765
0.562521
0.543246
0.516508
0.481326
0.439138
0.392556
0.344389
0.297094
0.252531
0.211913
0.17586
0.144517
0.117696
0.0950283
0.0760338
0.0602384
0.0471691
0.0364158
0.0276085
0.0204329
0.0146232
0.00994648
0.00621686
0.00411279
0.00398309
0.00452111
0.00486116
0.00504465
0.00510466
0.00506953
0.00496354
0.00487677
0.00481604
0.00476967
0.00466141
0.00450267
0.00431167
0.00409967
0.00387474
0.00364391
0.00341175
0.00318087
0.00295199
0.00272592
0.0025068
0.00229831
0.0021071
0.00193915
0.00179769
0.00168433
0.00159566
0.00152591
0.00146529
0.0014008
0.00131849
0.00120561
0.00105446
0.000938844
0.0010049
0.00110937
0.00102836
0.000759149
0.000798887
0.000917854
0.00107214
0.00197833
0.00364532
0.00494284
0.00477174
0.00263211
0.00594772
0.00698196
0.0177579
0.0136962
0.0166642
0.00934883
0.00193388
0.00148335
0.0032032
0.00205463
0.00638342
0.0127301
0.0158078
0.0137121
0.00901493
0.00867516
0.00971543
0.00883469
0.00672989
0.00405329
0.00250286
0.00167565
0.00106268
0.000758672
0.000932181
0.00124634
0.000856684
0.00151949
0.0018713
0.00130138
0.000337559
0.000772009
0.000580858
0.000388515
0.000317778
0.000250197
0.000179203
0.000184573
0.000190144
0.00016432
0.000184563
0.000268894
0.00045456
0.00055771
0.000724311
0.000762523
0.000915054
0.000937421
0.574349
0.558413
0.543109
0.526992
0.50768
0.483416
0.453771
0.419369
0.381459
0.341569
0.301246
0.26188
0.224603
0.190233
0.159262
0.131904
0.10812
0.0877242
0.0704166
0.0558645
0.0437224
0.0336628
0.0253878
0.0186253
0.0131435
0.00873342
0.00522028
0.00387322
0.00430962
0.00473357
0.00498048
0.0050884
0.00508976
0.00500933
0.00492062
0.00485715
0.00485697
0.00478198
0.00464831
0.00447394
0.00427122
0.0040508
0.00382004
0.00358356
0.00334329
0.00310082
0.00286166
0.00263072
0.00241663
0.00222756
0.0020685
0.0019427
0.00184728
0.00177638
0.00171906
0.00166014
0.00158281
0.00147117
0.00131502
0.001147
0.0011783
0.00129124
0.00118565
0.000851487
0.000892313
0.00108592
0.0013255
0.00249741
0.00450067
0.0058978
0.00550131
0.00291246
0.00699009
0.00876928
0.0200912
0.0154476
0.0179089
0.0112882
0.00254987
0.0016283
0.00350563
0.00260016
0.0082613
0.0157111
0.0182709
0.0149112
0.00921635
0.00955751
0.0107883
0.00991854
0.00768562
0.00473506
0.003004
0.00202641
0.00126614
0.000865879
0.00109002
0.00141415
0.000883361
0.00182863
0.0022126
0.0014663
0.000370515
0.000875574
0.000687119
0.000484103
0.00038856
0.000303563
0.000219643
0.00021951
0.000225006
0.000195725
0.000260312
0.000359612
0.000579475
0.000691874
0.000881001
0.00091682
0.00108304
0.00110121
0.558049
0.54167
0.52591
0.51044
0.493972
0.475209
0.453365
0.428165
0.399765
0.36867
0.335627
0.301516
0.267257
0.233741
0.201756
0.171947
0.14476
0.120446
0.0990653
0.0805371
0.0646785
0.0512497
0.0399882
0.0306252
0.0229088
0.0166019
0.011493
0.0073953
0.00461889
0.00398878
0.00450305
0.00482033
0.00498337
0.0050262
0.00497697
0.00487871
0.00483658
0.00485866
0.00482495
0.00472311
0.00457029
0.00438245
0.00417086
0.00394301
0.00370276
0.00345289
0.00320068
0.00295259
0.00271947
0.00251207
0.0023375
0.00220102
0.00210061
0.00203061
0.0019791
0.00192885
0.00186015
0.00175389
0.00159714
0.00137542
0.00135598
0.00146625
0.00133761
0.000936539
0.000971438
0.00125921
0.00165829
0.00311789
0.00540258
0.00685534
0.0062037
0.00315517
0.00801167
0.0106714
0.0217834
0.0169064
0.0183212
0.0131522
0.00324451
0.00172346
0.00368056
0.00326795
0.0103286
0.0187204
0.0204198
0.0157458
0.00923093
0.0103702
0.0117843
0.0109413
0.00861067
0.0054175
0.00351994
0.00239654
0.00148723
0.000972233
0.00124639
0.00156375
0.000931114
0.00215146
0.00254148
0.00160382
0.000397786
0.000970033
0.000792843
0.000586486
0.000465225
0.000363129
0.00026766
0.000256004
0.00025993
0.000227037
0.000346545
0.000458797
0.000710479
0.000830834
0.00104039
0.001074
0.00125094
0.00126266
0.543145
0.52669
0.510749
0.495363
0.479838
0.463419
0.445564
0.425896
0.404187
0.380386
0.354623
0.327188
0.298491
0.269052
0.239464
0.210362
0.182367
0.15603
0.131775
0.10988
0.090465
0.073521
0.0589392
0.0465427
0.0361221
0.0274514
0.0203081
0.0144816
0.00977692
0.00601999
0.00415528
0.00418268
0.00457817
0.00480171
0.00489169
0.00487976
0.004791
0.00476842
0.0047866
0.00480014
0.00473473
0.00460882
0.00443986
0.00423948
0.00401441
0.00376921
0.00351348
0.00325556
0.0030089
0.0027872
0.00260012
0.00245531
0.00235204
0.0022851
0.00224194
0.00220345
0.00214717
0.00205068
0.00189816
0.0016722
0.00158137
0.0016286
0.00148001
0.00101204
0.00103159
0.00143431
0.0020333
0.0038004
0.00633349
0.00779587
0.0068771
0.00337688
0.00900973
0.012548
0.0227269
0.0181367
0.0178778
0.0148597
0.00398988
0.00189473
0.00370045
0.00406479
0.0125398
0.0216468
0.0221753
0.0162571
0.00914747
0.0111173
0.0127139
0.0119106
0.00950617
0.00609496
0.00404416
0.00278538
0.00172836
0.00110308
0.00139883
0.00169267
0.00105888
0.00248265
0.00285099
0.00171257
0.00041724
0.00105391
0.000896996
0.000695202
0.000547958
0.000429357
0.000323824
0.00029358
0.000294259
0.000273822
0.000439264
0.000562182
0.000842015
0.000969759
0.00119736
0.00122949
0.00141458
0.00141737
0.529472
0.513068
0.497136
0.481823
0.466684
0.45126
0.435262
0.418465
0.400656
0.381662
0.361374
0.339759
0.31685
0.292761
0.267702
0.241991
0.216047
0.190367
0.165476
0.14187
0.119962
0.100048
0.0822897
0.0667248
0.0532918
0.0418569
0.032244
0.0242567
0.0176935
0.0123601
0.00807512
0.00481586
0.00378265
0.00426291
0.00455386
0.00469783
0.00472761
0.00467341
0.00464185
0.0046493
0.00471458
0.00469073
0.00459569
0.00444779
0.004258
0.00403353
0.00378702
0.00352925
0.00327657
0.00304621
0.00285072
0.00270072
0.00259716
0.00253569
0.0025035
0.00247994
0.00244
0.00235801
0.0022151
0.00199086
0.00180802
0.00177222
0.00160832
0.00107558
0.00106772
0.00160697
0.0024401
0.00452816
0.00727503
0.00870309
0.00752418
0.00365392
0.00999479
0.014264
0.0229322
0.0192596
0.0166465
0.016349
0.00475208
0.00222021
0.00354214
0.00499029
0.0148473
0.0243843
0.0235036
0.0165164
0.00904499
0.011801
0.0135871
0.0128341
0.0103744
0.00676095
0.00456897
0.00319231
0.00199208
0.00126311
0.00154585
0.00180015
0.00124016
0.002817
0.00313634
0.00179302
0.000426686
0.00114046
0.00101249
0.000809818
0.000636787
0.000502289
0.000387959
0.000331781
0.000327518
0.00034198
0.000533452
0.00066488
0.000968242
0.00110355
0.00134679
0.00137841
0.00156977
0.00156116
0.516886
0.50058
0.484736
0.469545
0.454668
0.439776
0.424708
0.409362
0.393622
0.377368
0.36049
0.342891
0.32448
0.30517
0.284906
0.263692
0.241622
0.218904
0.195857
0.172895
0.150482
0.129082
0.109104
0.0908563
0.0745295
0.0601918
0.0478112
0.0372814
0.028448
0.0211323
0.0151474
0.0103104
0.00644905
0.0041987
0.00388179
0.00424859
0.00445095
0.0045297
0.00451268
0.00446399
0.00447364
0.00457617
0.00459706
0.00453516
0.00440737
0.00422497
0.00400473
0.00376046
0.003512
0.00328062
0.00308233
0.00293126
0.00283058
0.00277733
0.00275891
0.00275359
0.00273415
0.0026718
0.0025445
0.00232868
0.00203113
0.00189095
0.00171789
0.00112477
0.00107445
0.00177209
0.00287249
0.00528834
0.00820886
0.0095649
0.0081528
0.00398965
0.0109749
0.0157277
0.0224987
0.0203823
0.0147496
0.0175807
0.00549465
0.00262207
0.00318832
0.00633267
0.017461
0.0268391
0.0244138
0.0166067
0.00897743
0.0124171
0.0144116
0.0137181
0.0112181
0.00740928
0.00508599
0.00361595
0.00228053
0.00143795
0.00168733
0.00188721
0.00143818
0.00314977
0.00340699
0.00185846
0.000424098
0.0012494
0.001159
0.000929788
0.000731417
0.000581393
0.000459004
0.000381953
0.000377416
0.000415693
0.000623662
0.000761895
0.00108374
0.00122736
0.00148417
0.00151624
0.00171273
0.00169068
0.505266
0.489081
0.473359
0.458305
0.443653
0.429134
0.414636
0.400115
0.385514
0.370767
0.355816
0.34061
0.32508
0.309133
0.292644
0.275482
0.257532
0.238738
0.219128
0.198845
0.178143
0.157383
0.136992
0.117415
0.0990605
0.0822487
0.0671861
0.0539609
0.0425588
0.0328882
0.0248075
0.0181486
0.012733
0.00838597
0.00494369
0.0035873
0.00388889
0.00415896
0.00429018
0.00431399
0.00425923
0.0043002
0.00439023
0.00445716
0.00442786
0.00431617
0.00414496
0.00393215
0.00370169
0.00347967
0.00328613
0.00313946
0.00304572
0.00300391
0.00300235
0.00301878
0.00302431
0.00298722
0.00288217
0.00268236
0.00235167
0.00207858
0.00180406
0.00115728
0.00104624
0.00192366
0.00332247
0.00606632
0.00911666
0.0103736
0.00877016
0.00432913
0.0119354
0.0170683
0.0217451
0.021551
0.0123178
0.0185363
0.00617988
0.0030616
0.00263001
0.00786569
0.0201003
0.0289376
0.0249504
0.0166048
0.0089678
0.0129528
0.0151919
0.0145674
0.0120409
0.00803694
0.00558776
0.00405311
0.00259501
0.00162911
0.00182439
0.00195661
0.00165071
0.00347688
0.00370415
0.001953
0.000407448
0.00135017
0.00130903
0.00105432
0.0008311
0.000665489
0.000535045
0.000447447
0.000445851
0.000485637
0.000704769
0.0008488
0.00118434
0.00133741
0.00160626
0.00163964
0.00184075
0.00180397
0.494513
0.478459
0.462871
0.447957
0.433502
0.419277
0.405194
0.391228
0.377345
0.363502
0.349668
0.335829
0.321968
0.308048
0.293996
0.279695
0.264996
0.249736
0.233772
0.21701
0.199442
0.181164
0.16239
0.143447
0.124738
0.1067
0.0897416
0.0741916
0.0602672
0.0480668
0.0375839
0.0287336
0.0213793
0.0153577
0.0104973
0.00662608
0.00408687
0.00348056
0.0038242
0.00401265
0.00408438
0.00406523
0.00409071
0.00415777
0.00427151
0.00427004
0.00417885
0.00402178
0.00382798
0.0036294
0.00345086
0.00331591
0.00323435
0.00320794
0.00322675
0.00326878
0.00330408
0.00329839
0.00322299
0.00304767
0.00273066
0.00229591
0.00186233
0.00117097
0.000977485
0.00205487
0.0037799
0.00684527
0.00998111
0.0111258
0.00938189
0.00465979
0.0128317
0.0183699
0.0209897
0.0227971
0.00945905
0.019215
0.00677358
0.0035258
0.00196401
0.00951128
0.0226492
0.0306382
0.0251843
0.0165697
0.00901199
0.0133873
0.0159278
0.0153862
0.0128471
0.00864706
0.0060696
0.00449798
0.00293527
0.0018378
0.00195947
0.00201271
0.00187465
0.00379498
0.00398511
0.00204041
0.000374789
0.00144028
0.00146161
0.00118231
0.000934591
0.000752796
0.000613429
0.000515744
0.000513309
0.000547753
0.00077278
0.000922403
0.00126778
0.00143162
0.00171166
0.0017471
0.00195275
0.00190088
0.48454
0.46862
0.45317
0.43839
0.424109
0.410127
0.396369
0.382818
0.36945
0.356229
0.343125
0.330133
0.317258
0.304505
0.29186
0.279276
0.266664
0.253889
0.240788
0.227183
0.212915
0.19787
0.18201
0.165403
0.148238
0.130818
0.113535
0.0968211
0.0810864
0.0666663
0.0537834
0.0425389
0.0329265
0.0248604
0.0182054
0.0127974
0.00846891
0.00505522
0.00342921
0.00344689
0.00370224
0.00382427
0.00384682
0.00384862
0.00390839
0.00403569
0.00406636
0.0039986
0.0038671
0.00371124
0.00356173
0.00344848
0.00338607
0.00338009
0.00342342
0.0034953
0.00356563
0.00359803
0.00356041
0.00341906
0.00312651
0.00260822
0.00198755
0.001164
0.000862615
0.00215818
0.00423236
0.00760693
0.0107871
0.0118214
0.00998937
0.00497279
0.0135987
0.0193808
0.0208536
0.0247506
0.00625497
0.0196228
0.00725726
0.00399702
0.00207864
0.011234
0.0250422
0.031923
0.0251981
0.0165387
0.00908839
0.0136967
0.0166117
0.0161764
0.0136405
0.00924967
0.0065318
0.00494179
0.00329912
0.00206436
0.00209584
0.00206134
0.00210571
0.00410135
0.00425147
0.0021476
0.000420684
0.00159066
0.0016158
0.00131237
0.0010402
0.000841092
0.000691091
0.000580026
0.000572619
0.000598948
0.000825468
0.000981249
0.00133401
0.00150991
0.00180093
0.00183917
0.00204948
0.00198304
0.475273
0.459485
0.44417
0.42952
0.415393
0.401617
0.388123
0.374899
0.361927
0.349173
0.336606
0.324212
0.311996
0.299972
0.288153
0.276542
0.265113
0.253808
0.242524
0.231119
0.219421
0.20725
0.194434
0.180843
0.166425
0.151229
0.135426
0.119306
0.103253
0.0876977
0.0730545
0.0596627
0.0477458
0.0374009
0.0286165
0.0213
0.0153125
0.0104918
0.00666901
0.00389556
0.00303026
0.0033563
0.00353653
0.00360872
0.00360069
0.003685
0.0037545
0.00381929
0.00378579
0.00369977
0.00359887
0.00352113
0.00348745
0.00350852
0.00358147
0.00368808
0.00379916
0.00387694
0.00388606
0.00378917
0.003533
0.00303392
0.00219486
0.00113468
0.000696109
0.00234366
0.00477804
0.00833291
0.0115222
0.0124609
0.0105895
0.00527045
0.0141662
0.0200911
0.020684
0.0266453
0.00515048
0.0197402
0.00761761
0.00445305
0.0029899
0.012995
0.0272228
0.032799
0.0250734
0.0165301
0.00916944
0.0138618
0.0172275
0.0169344
0.0144223
0.00985901
0.0069769
0.00537171
0.00368242
0.00230771
0.002237
0.00210957
0.0023379
0.00439364
0.00450526
0.00232778
0.000526014
0.00174218
0.00177076
0.00144289
0.00114597
0.00092798
0.000765021
0.000637393
0.000621039
0.000637635
0.00086262
0.00102571
0.00138486
0.00157395
0.00187613
0.00191796
0.00213312
0.00205329
0.466647
0.450985
0.435803
0.421276
0.407288
0.393688
0.380414
0.367455
0.354797
0.34241
0.330262
0.318332
0.306614
0.295117
0.283853
0.27284
0.262087
0.251589
0.241309
0.231179
0.221089
0.210895
0.200425
0.189494
0.177923
0.165576
0.152389
0.138399
0.123767
0.108773
0.0937977
0.0792731
0.0656188
0.0531757
0.0421638
0.0326707
0.0246736
0.0180719
0.0127191
0.0084523
0.00510216
0.00323006
0.00297598
0.00322525
0.00335051
0.0033944
0.00343261
0.00349237
0.00353843
0.00355885
0.00353461
0.0035122
0.0035207
0.00357794
0.0036871
0.00383415
0.00399231
0.0041234
0.00418906
0.00414822
0.00394174
0.00347708
0.00261844
0.00129029
0.000472113
0.00251102
0.00531593
0.00900466
0.0121755
0.0130441
0.0111752
0.00556857
0.0144796
0.020493
0.0205388
0.0283454
0.00697395
0.0194624
0.00783606
0.00486691
0.00400702
0.0147531
0.0291462
0.0332943
0.0248794
0.0165489
0.00923076
0.0138748
0.017752
0.0176487
0.015189
0.0104886
0.00740619
0.00577353
0.00407971
0.00256498
0.00238571
0.00216533
0.00256304
0.00466934
0.00474873
0.00252054
0.000632209
0.00189313
0.00192602
0.00157226
0.00124989
0.00101119
0.000832693
0.000685869
0.000657327
0.000663794
0.000885812
0.00105761
0.00142322
0.00162633
0.00193994
0.00198622
0.00220641
0.00211479
0.458606
0.443064
0.428009
0.413598
0.399735
0.38629
0.373203
0.360464
0.348062
0.335969
0.324156
0.312597
0.301281
0.290203
0.27937
0.268793
0.258489
0.24847
0.238741
0.229284
0.220057
0.210984
0.201954
0.192827
0.183427
0.173569
0.163072
0.151797
0.139673
0.126731
0.11312
0.0991164
0.0850999
0.0715066
0.0587605
0.0472021
0.0370432
0.0283589
0.0211101
0.0151853
0.0104294
0.00667576
0.00376104
0.00264127
0.00288456
0.00307744
0.00317568
0.00321034
0.00325842
0.00328306
0.00333013
0.00339097
0.00346175
0.00356815
0.00372247
0.00391703
0.00412941
0.00432242
0.00445535
0.00448337
0.00434153
0.00392796
0.00309248
0.00167732
0.000515272
0.00276611
0.00581811
0.00960386
0.0127375
0.013568
0.0117369
0.00589263
0.0145074
0.0205876
0.0204376
0.0295067
0.00932719
0.0184952
0.00787101
0.00520548
0.00510216
0.0164676
0.0307786
0.0334523
0.0246659
0.0165922
0.00925569
0.0137435
0.0181591
0.0183007
0.015933
0.0111465
0.0078189
0.00613596
0.00448519
0.00283172
0.00254294
0.00223682
0.00277032
0.00492505
0.00498397
0.00272667
0.000739495
0.0020443
0.00208158
0.00169913
0.00135015
0.00108885
0.000892468
0.000724655
0.000681847
0.00067882
0.00089775
0.00107942
0.00145209
0.00166955
0.00199478
0.00204638
0.00227173
0.00217006
0.451098
0.435671
0.420736
0.406434
0.392687
0.379377
0.366452
0.3539
0.341709
0.329857
0.318316
0.30706
0.296072
0.285341
0.274865
0.264647
0.254696
0.245026
0.235649
0.226573
0.217795
0.209289
0.201009
0.192878
0.184788
0.176596
0.168129
0.159203
0.149641
0.1393
0.128107
0.116084
0.103378
0.0902592
0.0771092
0.0643688
0.0524653
0.0417378
0.0323862
0.0244687
0.0179278
0.0126367
0.0084366
0.00515489
0.00303514
0.00251762
0.00278285
0.00294059
0.00302335
0.00303956
0.00307208
0.00311569
0.00327599
0.00345183
0.00366416
0.00391551
0.00419045
0.00445487
0.00466681
0.00477788
0.00471756
0.00437382
0.00358352
0.00214868
0.000663992
0.00305633
0.00626601
0.0101127
0.0131987
0.0140258
0.0122631
0.00626993
0.0142373
0.0203781
0.0203574
0.0313699
0.0126653
0.0164232
0.00765396
0.00542927
0.00623883
0.0181074
0.0320978
0.0333235
0.0244596
0.0166517
0.00923554
0.0134892
0.0184273
0.0188692
0.0166428
0.0118315
0.00821621
0.00645627
0.00489306
0.00310295
0.00270667
0.00233136
0.00294629
0.00515607
0.00521257
0.00294707
0.000848297
0.0021969
0.00223817
0.00182273
0.00144538
0.00115965
0.000943743
0.000754129
0.000696262
0.000684966
0.000901436
0.00109351
0.0014738
0.00170541
0.00204229
0.00209999
0.00233063
0.00222072
0.44408
0.42876
0.41394
0.399741
0.386099
0.372911
0.360127
0.347735
0.335723
0.324072
0.312755
0.301747
0.291029
0.280588
0.270414
0.260502
0.250854
0.241477
0.23238
0.223575
0.21507
0.206867
0.198955
0.191307
0.183873
0.176578
0.169316
0.161943
0.154292
0.146182
0.137438
0.127921
0.117553
0.106352
0.0944592
0.0821436
0.0697876
0.0578366
0.0467211
0.0367765
0.028189
0.0209947
0.0151185
0.0104164
0.00672597
0.00388319
0.00249516
0.0024605
0.00268503
0.00280751
0.00285201
0.0028501
0.00291756
0.00318999
0.00348078
0.00380204
0.00414989
0.00449639
0.00480026
0.00501014
0.00505058
0.00479816
0.00407787
0.00265252
0.000807326
0.00330764
0.0066401
0.0105138
0.0135489
0.0144067
0.0127429
0.00672017
0.013668
0.019861
0.0202202
0.0324431
0.0158432
0.0131728
0.00714354
0.00550329
0.0074781
0.0197357
0.0330898
0.0329579
0.0242669
0.0167152
0.00916811
0.013141
0.0185446
0.0193368
0.0173041
0.0125295
0.00860736
0.0067445
0.00529582
0.0033753
0.00287138
0.00245394
0.00307478
0.0053563
0.00543491
0.00318262
0.000958742
0.00235183
0.00239723
0.0019432
0.00153475
0.00122292
0.000986877
0.000775667
0.000703059
0.000684759
0.000899471
0.00110165
0.00148978
0.00173491
0.00208338
0.0021478
0.00238385
0.00226753
0.437511
0.422293
0.40758
0.393479
0.379933
0.366855
0.354196
0.341943
0.330086
0.318604
0.307475
0.296673
0.28618
0.27598
0.266059
0.25641
0.247027
0.237909
0.22906
0.220486
0.212198
0.204201
0.1965
0.189092
0.181961
0.17508
0.1684
0.161846
0.15531
0.148656
0.141721
0.134331
0.126314
0.117532
0.107905
0.09745
0.0863009
0.074725
0.0631051
0.0518905
0.0415149
0.0323076
0.0244403
0.017925
0.012666
0.00851233
0.00529689
0.00290523
0.00210617
0.00239228
0.00256402
0.00263523
0.00262149
0.00274943
0.00312863
0.00354014
0.00397489
0.00441603
0.00482618
0.0051524
0.00531549
0.00517978
0.0045581
0.0031768
0.00105406
0.00350562
0.00691901
0.0107904
0.0137766
0.0146957
0.0131641
0.00724633
0.0128052
0.0190328
0.0199274
0.0324509
0.0193867
0.00990986
0.00638685
0.00541936
0.00875505
0.0212928
0.0337502
0.0323978
0.0240745
0.016766
0.00905639
0.0127269
0.0185092
0.0196931
0.0179017
0.0132119
0.00900982
0.00701992
0.0056808
0.00364974
0.00302849
0.00260522
0.00313712
0.0055169
0.00564955
0.00343375
0.00107083
0.00250872
0.00256039
0.00206185
0.0016181
0.00127845
0.00102289
0.000791125
0.000708887
0.000680411
0.000893704
0.00110487
0.00150072
0.00175848
0.00211845
0.00219013
0.00243174
0.00231084
0.431356
0.416233
0.401621
0.387612
0.374157
0.361178
0.348631
0.336501
0.324777
0.313441
0.30247
0.291842
0.281537
0.271539
0.261833
0.252407
0.243253
0.234363
0.225738
0.217377
0.209285
0.201467
0.19393
0.186677
0.179709
0.173018
0.166588
0.160392
0.154381
0.148479
0.142583
0.136562
0.130261
0.123511
0.116145
0.108028
0.0990794
0.089311
0.0788528
0.0679674
0.0570367
0.0465124
0.0368313
0.0283167
0.0211233
0.0152432
0.0105608
0.00691959
0.00414558
0.00243529
0.00206316
0.00228723
0.00239583
0.00240507
0.00259235
0.00307991
0.00362256
0.00417423
0.00470688
0.00516908
0.00547932
0.00549119
0.00500165
0.00370562
0.00149024
0.00363653
0.00708211
0.0109272
0.0138674
0.0148733
0.0135112
0.00783552
0.0116631
0.0179137
0.0194521
0.0317999
0.0227667
0.00678682
0.00547993
0.00520329
0.00991692
0.0226361
0.0340752
0.0316768
0.02386
0.0167859
0.00890796
0.0122667
0.0183264
0.0199335
0.0184232
0.0138455
0.0094397
0.0072974
0.00603273
0.00393376
0.00316868
0.00277961
0.00311463
0.00562531
0.00585229
0.00369947
0.00118554
0.0026655
0.00272848
0.00218113
0.00169611
0.00132645
0.00105299
0.000823244
0.000743902
0.000673698