/*--------------------------------*- C++ -*----------------------------------*\
| =========                 |                                                 |
| \\      /  F ield         | OpenFOAM: The Open Source CFD Toolbox           |
|  \\    /   O peration     | Version:  2412                                  |
|   \\  /    A nd           | Website:  www.openfoam.com                      |
|    \\/     M anipulation  |                                                 |
\*---------------------------------------------------------------------------*/
FoamFile
{
    version     2.0;
    format      ascii;
    arch        "LSB;label=32;scalar=64";
    class       volScalarField;
    location    "1.39";
    object      Co;
}
// * * * * * * * * * * * * * * * * * * * * * * * * * * * * * * * * * * * * * //

dimensions      [0 0 0 0 0 0 0];

internalField   nonuniform List<scalar> 
12600
(
0.314872
0.176714
0.100071
0.0629591
0.0449777
0.0350537
0.0286525
0.0240702
0.0205953
0.0178589
0.0156439
0.0138137
0.0122766
0.0109689
0.00984431
0.00886859
0.0080156
0.00726508
0.00660103
0.00601066
0.00548354
0.00501115
0.00458639
0.00420331
0.00385692
0.00354295
0.00325775
0.00299816
0.00276147
0.0025453
0.00234758
0.00216649
0.0020004
0.00184791
0.00170774
0.00157878
0.00146001
0.00135053
0.00124953
0.00115629
0.00107015
0.000990519
0.000916853
0.000848671
0.000785525
0.000727019
0.00067278
0.00062248
0.000575807
0.000532488
0.000492261
0.000454899
0.000420178
0.000387912
0.000357907
0.00033001
0.000304053
0.000279911
0.000257434
0.000236526
0.000217051
0.000198933
0.00018205
0.000166346
0.000151705
0.000138093
0.000125399
0.000113605
0.000102603
9.23927e-05
8.28686e-05
7.40442e-05
6.58151e-05
5.82085e-05
5.11208e-05
4.45902e-05
3.85151e-05
3.29411e-05
2.77713e-05
2.3053e-05
1.86991e-05
1.47505e-05
1.11371e-05
7.88385e-06
4.94464e-06
2.32198e-06
2.18046e-06
4.05327e-06
5.67407e-06
7.06107e-06
8.18454e-06
9.1688e-06
9.82587e-06
1.05382e-05
1.07272e-05
1.13517e-05
1.10524e-05
1.16367e-05
1.11182e-05
1.1406e-05
1.16268e-05
1.0951e-05
1.09062e-05
1.04651e-05
1.14153e-05
1.07338e-05
8.94218e-06
1.23783e-05
1.16255e-05
1.0792e-05
1.2061e-05
1.13148e-05
1.70009e-05
1.93578e-05
1.8139e-05
2.20515e-05
2.45518e-05
2.29797e-05
1.33525e-05
9.54128e-06
0.478016
0.376596
0.276452
0.202534
0.153173
0.120562
0.098235
0.0821287
0.0699553
0.060418
0.0527396
0.0464259
0.0411471
0.0366737
0.0328409
0.0295263
0.0266374
0.0241027
0.0218658
0.0198818
0.0181143
0.0165335
0.0151149
0.0138378
0.0126849
0.0116416
0.0106953
0.00983525
0.00905209
0.00833775
0.00768515
0.0070881
0.00654114
0.00603947
0.0055788
0.00515534
0.0047657
0.00440686
0.0040761
0.00377098
0.00348931
0.0032291
0.00298855
0.00276606
0.00256014
0.00236946
0.00219279
0.00202904
0.00187718
0.00173631
0.00160555
0.00148416
0.0013714
0.00126666
0.00116929
0.0010788
0.00099463
0.000916372
0.000843531
0.000775793
0.000712707
0.000654037
0.000599365
0.000548527
0.000501129
0.00045707
0.000415972
0.000377796
0.00034217
0.000309113
0.000278255
0.000249668
0.00022298
0.000198314
0.000175291
0.000154082
0.000134303
0.000116159
9.92729e-05
8.38619e-05
6.9579e-05
5.66175e-05
4.46973e-05
3.39385e-05
2.41755e-05
1.53883e-05
8.92934e-06
9.35764e-06
1.47343e-05
1.91477e-05
2.29887e-05
2.60795e-05
2.84623e-05
3.07005e-05
3.15221e-05
3.36585e-05
3.25936e-05
3.5058e-05
3.28292e-05
3.47876e-05
3.49889e-05
3.25392e-05
3.34064e-05
3.17902e-05
3.55447e-05
3.31854e-05
2.74256e-05
4.0127e-05
3.74273e-05
3.67636e-05
3.75571e-05
3.49914e-05
5.85249e-05
6.03289e-05
5.37176e-05
7.06184e-05
7.27098e-05
7.27687e-05
4.1877e-05
2.93428e-05
0.512534
0.468677
0.39735
0.325502
0.264567
0.216495
0.179604
0.151278
0.129192
0.111628
0.097388
0.085643
0.075813
0.0674835
0.0603517
0.0541907
0.0488278
0.0441288
0.0399878
0.0363202
0.0330575
0.0301436
0.027532
0.0251841
0.0230672
0.0211539
0.0194204
0.0178467
0.0164153
0.0151109
0.0139205
0.0128324
0.0118366
0.010924
0.0100866
0.00931757
0.00861048
0.00795976
0.00736039
0.00680786
0.00629812
0.00582753
0.00539277
0.00499087
0.00461911
0.00427506
0.00395646
0.0036613
0.00338771
0.00313402
0.00289866
0.00268025
0.00247745
0.00228914
0.00211416
0.00195159
0.00180042
0.00165991
0.00152916
0.00140761
0.00129443
0.0011892
0.00109115
0.000999998
0.000915013
0.000836032
0.000762348
0.000693916
0.000630032
0.000570766
0.000515405
0.000464131
0.000416209
0.000371931
0.000330533
0.000292409
0.000256766
0.000224086
0.000193562
0.00016572
0.000139794
0.00011627
9.45214e-05
7.48528e-05
5.69384e-05
4.06966e-05
2.63518e-05
1.85345e-05
2.26573e-05
3.02219e-05
3.73619e-05
4.25093e-05
4.71519e-05
5.08278e-05
5.25885e-05
5.64609e-05
5.4244e-05
5.9624e-05
5.44363e-05
5.98225e-05
5.91017e-05
5.37977e-05
5.75192e-05
5.4106e-05
6.21463e-05
5.80289e-05
4.78763e-05
7.32907e-05
6.81539e-05
7.03793e-05
6.54646e-05
5.95486e-05
0.000113247
0.000105912
8.9157e-05
0.000127715
0.000120776
0.000132353
7.51545e-05
5.21847e-05
0.504479
0.49118
0.453237
0.402816
0.350394
0.301683
0.259145
0.223217
0.193305
0.168465
0.147753
0.130356
0.115622
0.103037
0.0922027
0.0828098
0.0746136
0.0674206
0.0610756
0.0554528
0.0504496
0.0459812
0.0419772
0.0383786
0.0351355
0.0322055
0.0295524
0.0271452
0.0249568
0.022964
0.0211463
0.019486
0.0179673
0.0165763
0.0153009
0.0141302
0.0130544
0.012065
0.0111541
0.0103149
0.00954113
0.00882712
0.00816782
0.00755865
0.00699543
0.00647443
0.00599219
0.00554563
0.00513186
0.00474837
0.0043927
0.00406279
0.00375656
0.00347232
0.00320827
0.00296303
0.00273505
0.00252321
0.00232615
0.00214298
0.00197247
0.00181396
0.00166629
0.00152903
0.00140107
0.00128216
0.00117123
0.0010682
0.00097201
0.000882773
0.00079938
0.000722144
0.000649902
0.000583153
0.000520665
0.000463124
0.000409217
0.000359802
0.000313506
0.000271293
0.000231821
0.000196006
0.000162741
0.000132602
0.000105061
7.99279e-05
5.77472e-05
3.70397e-05
3.19125e-05
3.941e-05
5.05562e-05
5.77522e-05
6.53282e-05
7.03374e-05
7.35256e-05
7.9244e-05
7.57598e-05
8.48964e-05
7.57793e-05
8.62216e-05
8.35458e-05
7.41431e-05
8.30335e-05
7.72704e-05
9.0601e-05
8.46708e-05
7.11466e-05
0.000110507
0.000102591
0.000111273
9.504e-05
8.36778e-05
0.000179065
0.000154428
0.000125059
0.000191151
0.000165995
0.000199354
0.000112171
7.80818e-05
0.488287
0.483458
0.465234
0.435318
0.398659
0.359564
0.321127
0.285251
0.252857
0.22419
0.199105
0.177265
0.15827
0.141727
0.127277
0.114612
0.10347
0.0936294
0.084907
0.0771486
0.0702252
0.0640282
0.0584658
0.0534601
0.0489444
0.0448618
0.0411633
0.0378062
0.0347538
0.0319739
0.0294384
0.0271224
0.0250043
0.0230647
0.0212866
0.0196549
0.0181559
0.0167777
0.0155093
0.014341
0.0132642
0.0122709
0.011354
0.0105071
0.00972435
0.00900054
0.00833079
0.0077108
0.00713653
0.00660443
0.00611111
0.00565364
0.00522915
0.00483523
0.0044694
0.00412972
0.00381402
0.00352075
0.00324799
0.00299452
0.00275859
0.00253931
0.00233507
0.00214523
0.00196827
0.00180384
0.00165044
0.00150798
0.00137495
0.00125153
0.00113616
0.0010293
0.000929279
0.00083686
0.000750245
0.000670484
0.000595631
0.000527016
0.000462565
0.000403804
0.000348664
0.000298622
0.000251952
0.000209598
0.000170774
0.000135146
0.000103717
7.39389e-05
5.08123e-05
4.56509e-05
6.16236e-05
7.09701e-05
8.22418e-05
8.85646e-05
9.3761e-05
0.000101452
9.67425e-05
0.000110399
9.65804e-05
0.000113591
0.000107914
9.382e-05
0.000109712
0.000101022
0.00012035
0.000112328
9.70506e-05
0.000150629
0.000139567
0.000158934
0.000125714
0.000106295
0.000253771
0.000204236
0.000161564
0.000258521
0.000206039
0.000271618
0.000151982
0.000107236
0.474085
0.468386
0.457431
0.439508
0.415732
0.387979
0.358139
0.327851
0.29834
0.270417
0.244543
0.220916
0.199549
0.180346
0.163148
0.14777
0.134024
0.121728
0.110717
0.100843
0.0919711
0.0839868
0.076788
0.0702857
0.0644023
0.0590699
0.0542292
0.049828
0.0458207
0.0421669
0.0388313
0.0357823
0.032992
0.0304359
0.0280917
0.0259398
0.0239627
0.0221446
0.0204713
0.0189301
0.0175095
0.0161991
0.0149897
0.0138728
0.0128406
0.0118862
0.0110033
0.010186
0.00942924
0.00872814
0.00807825
0.00747571
0.00691671
0.00639806
0.00591649
0.00546942
0.00505399
0.00466813
0.00430932
0.00397591
0.00366565
0.00337729
0.00310874
0.00285915
0.00262651
0.00241034
0.00220867
0.00202138
0.00184646
0.00168417
0.00153242
0.00139184
0.0012602
0.00113853
0.0010244
0.000919289
0.000820497
0.000729926
0.000644664
0.000566919
0.00049374
0.000427304
0.000365121
0.000308602
0.000256636
0.000208731
0.000166453
0.000125957
9.29809e-05
6.51289e-05
6.94816e-05
8.1196e-05
9.70294e-05
0.000104741
0.000112627
0.000122447
0.000116718
0.000135581
0.000116507
0.000141462
0.000131771
0.00011384
0.00013723
0.00012505
0.00015087
0.000140146
0.000125451
0.000192607
0.000177886
0.000212624
0.000156987
0.000133096
0.000334962
0.000253853
0.000198204
0.000327325
0.000238818
0.00034705
0.000193794
0.000139934
0.462784
0.454437
0.444576
0.431489
0.414901
0.395253
0.373277
0.349817
0.325692
0.301604
0.278107
0.255605
0.234367
0.214545
0.196205
0.179343
0.16391
0.149832
0.137014
0.125357
0.114764
0.105136
0.0963836
0.0884235
0.0811786
0.0745797
0.0685638
0.0630745
0.0580611
0.0534781
0.0492847
0.0454443
0.0419241
0.0386947
0.0357296
0.033005
0.0304995
0.0281938
0.0260705
0.0241138
0.0223094
0.0206445
0.0191074
0.0176875
0.0163751
0.0151615
0.0140387
0.0129993
0.0120368
0.011145
0.0103185
0.00955214
0.0088412
0.00818162
0.00756923
0.00700074
0.00647253
0.00598194
0.00552576
0.00510192
0.00470751
0.00434097
0.00399962
0.00368237
0.00338667
0.0031119
0.00285554
0.00261744
0.00239505
0.00218869
0.00199567
0.00181683
0.00164928
0.00149439
0.00134899
0.00121502
0.00108896
0.000973357
0.000864319
0.000764868
0.000671009
0.000585755
0.000505701
0.000432838
0.000365643
0.000303471
0.000248533
0.000195473
0.000152399
0.00010708
8.85673e-05
8.72673e-05
0.000108666
0.000117944
0.000129324
0.000141465
0.000135103
0.000159782
0.000135136
0.000169261
0.000154636
0.000134067
0.00016515
0.000148988
0.00018165
0.000167206
0.000156016
0.000235488
0.000216336
0.000271366
0.000188404
0.000166887
0.000420072
0.000301953
0.000234388
0.000395024
0.000262497
0.000423642
0.000236998
0.000176557
0.453441
0.443032
0.432419
0.420551
0.406962
0.391608
0.37467
0.356454
0.337333
0.317691
0.29789
0.278252
0.25905
0.2405
0.222766
0.205962
0.190154
0.175374
0.161622
0.148876
0.137098
0.126238
0.116243
0.107053
0.0986104
0.090858
0.0837408
0.077207
0.0712079
0.0656985
0.0606371
0.0559855
0.0517087
0.0477747
0.0441541
0.0408204
0.0377493
0.0349186
0.0323081
0.0298996
0.0276763
0.025623
0.0237258
0.021972
0.02035
0.0188493
0.0174601
0.0161738
0.0149821
0.0138778
0.0128539
0.0119044
0.0110234
0.010206
0.00944689
0.00874215
0.00808728
0.00747901
0.00691337
0.00638778
0.00589867
0.00544409
0.00502073
0.00462722
0.00426042
0.00391955
0.00360148
0.00330604
0.00303003
0.00277386
0.0025342
0.00231209
0.0021039
0.00191139
0.00173053
0.00156385
0.00140682
0.00126276
0.00112666
0.00100247
0.000884989
0.00077821
0.000677657
0.000586014
0.000501254
0.000422594
0.000352949
0.00028527
0.000230349
0.000171896
0.000130819
9.94809e-05
0.000115957
0.000127072
0.000142905
0.000157605
0.000151196
0.000182224
0.000151951
0.0001963
0.000175976
0.000153771
0.000192913
0.000172421
0.000212179
0.000192543
0.000188223
0.000278409
0.000253706
0.000333948
0.000219521
0.00020436
0.00050642
0.000347348
0.000269181
0.00045912
0.000275454
0.000499485
0.00028115
0.000217562
0.445371
0.433639
0.422118
0.410222
0.397591
0.384088
0.369726
0.354603
0.33886
0.322665
0.306188
0.289598
0.27306
0.256725
0.240729
0.22519
0.210207
0.195858
0.182198
0.169265
0.157077
0.145637
0.134936
0.124955
0.115666
0.107039
0.0990375
0.0916255
0.0847656
0.0784211
0.072556
0.0671359
0.062128
0.0575013
0.0532268
0.0492775
0.0456281
0.0422553
0.0391374
0.0362546
0.0335883
0.0311217
0.0288391
0.0267262
0.0247698
0.0229577
0.0212787
0.0197227
0.01828
0.0169422
0.0157011
0.0145496
0.0134807
0.0124883
0.0115665
0.0107104
0.00991466
0.0091753
0.0084876
0.00784844
0.00725352
0.00670047
0.0061853
0.00570638
0.00525987
0.00484483
0.00445749
0.00409762
0.00376133
0.00344915
0.00315697
0.00288612
0.00263211
0.00239716
0.00217627
0.0019726
0.00178054
0.00160425
0.00143745
0.00128515
0.0011408
0.00100949
0.000885518
0.000772383
0.000667445
0.000569826
0.000483165
0.000398585
0.000329818
0.000256124
0.000204362
0.000140876
0.000128592
0.000130797
0.000152252
0.000169788
0.000164149
0.000201978
0.000166314
0.000221763
0.000195182
0.000172588
0.000219828
0.000194884
0.000241914
0.000215143
0.000221371
0.000320582
0.000288807
0.000398939
0.000249864
0.000244596
0.000591283
0.000388953
0.000301271
0.00051723
0.000290559
0.000572817
0.000325939
0.000263475
0.438234
0.425655
0.413434
0.401239
0.388817
0.37603
0.362845
0.349295
0.335444
0.321373
0.307161
0.292885
0.278618
0.264434
0.250402
0.23659
0.223063
0.209884
0.197109
0.184787
0.172958
0.161654
0.150896
0.140697
0.131061
0.121985
0.113459
0.105468
0.0979934
0.0910134
0.0845046
0.0784423
0.0728014
0.0675568
0.0626838
0.0581582
0.053957
0.050058
0.0464403
0.043084
0.0399704
0.0370822
0.0344028
0.0319171
0.0296108
0.0274709
0.0254849
0.0236417
0.0219305
0.0203418
0.0188663
0.0174959
0.0162227
0.0150398
0.0139401
0.0129182
0.0119677
0.0110841
0.0102618
0.00949715
0.00878515
0.00812299
0.00750595
0.0069321
0.00639691
0.00589928
0.00543468
0.00500288
0.00459924
0.0042244
0.00387343
0.00354794
0.00324255
0.00295993
0.00269403
0.00244875
0.00221721
0.00200455
0.00180309
0.00161899
0.00144419
0.00128502
0.00113441
0.000996776
0.00086876
0.000749435
0.00064317
0.000539152
0.000454269
0.000362981
0.000298527
0.00021902
0.0001718
0.000135218
0.00015606
0.000176718
0.000172944
0.000217943
0.000177442
0.00024468
0.000211553
0.000190001
0.000245063
0.000215849
0.00027025
0.000233942
0.000254591
0.000361262
0.000320484
0.000464706
0.000278876
0.000286597
0.000671959
0.000425732
0.000328968
0.000567167
0.000320669
0.000642033
0.000371118
0.000331988
0.431851
0.418701
0.405982
0.393488
0.381047
0.368535
0.355898
0.343136
0.330282
0.317387
0.304502
0.291671
0.278934
0.266324
0.253869
0.241594
0.229523
0.217684
0.206103
0.194808
0.183828
0.173191
0.162923
0.153045
0.143575
0.134528
0.125911
0.117729
0.109981
0.102661
0.0957624
0.0892726
0.0831787
0.0774651
0.0721154
0.0671123
0.062438
0.0580746
0.0540044
0.0502101
0.0466747
0.0433819
0.0403162
0.0374627
0.0348071
0.0323364
0.0300376
0.0278992
0.0259099
0.0240595
0.022338
0.0207367
0.0192467
0.0178606
0.0165706
0.0153703
0.0142529
0.0132131
0.0122447
0.0113434
0.0105036
0.00972204
0.00899327
0.0083151
0.00768224
0.00709348
0.00654352
0.00603212
0.00555381
0.00510941
0.00469308
0.00430678
0.0039441
0.00360827
0.00329208
0.00300022
0.00272445
0.00247097
0.00223054
0.00201063
0.0018015
0.00161084
0.00143006
0.00126463
0.00111033
0.000966271
0.000837522
0.000711262
0.000607693
0.000496209
0.000416794
0.000318976
0.000260413
0.000179566
0.000163236
0.000176824
0.000176363
0.000228807
0.000184379
0.000263911
0.000224258
0.000205316
0.000267637
0.000234712
0.000296469
0.000247817
0.000286861
0.0003997
0.00034762
0.000529454
0.000305853
0.000328982
0.000745821
0.000456638
0.000350226
0.00060697
0.00035887
0.0007057
0.000416419
0.000425639
0.426092
0.412545
0.399472
0.386734
0.374213
0.361806
0.349451
0.337124
0.324834
0.312608
0.300484
0.288497
0.276678
0.265052
0.253635
0.24244
0.23147
0.220731
0.210225
0.199956
0.189932
0.180161
0.170654
0.161423
0.152481
0.143843
0.135518
0.127519
0.119853
0.112526
0.105541
0.0988977
0.0925941
0.0866254
0.0809848
0.0756637
0.0706519
0.0659384
0.061511
0.0573572
0.0534638
0.049818
0.0464065
0.0432165
0.0402353
0.0374508
0.0348509
0.0324244
0.0301604
0.0280486
0.026079
0.0242426
0.0225302
0.0209341
0.0194459
0.0180591
0.0167659
0.0155609
0.0144371
0.01339
0.0124132
0.0115032
0.0106538
0.00986266
0.00912376
0.00843579
0.00779264
0.00719414
0.00663396
0.00611313
0.00562483
0.00517145
0.00474545
0.00435072
0.00397875
0.00363513
0.00331014
0.00301114
0.0027272
0.0024672
0.00221958
0.00199353
0.00177878
0.00158195
0.0013979
0.00122579
0.00107137
0.000919793
0.000794664
0.000660114
0.000563162
0.000444419
0.000372045
0.000272472
0.000213533
0.000178986
0.000172967
0.000233
0.000185956
0.000278119
0.000232296
0.000217619
0.000286403
0.000250756
0.000319698
0.000255561
0.000317015
0.000435076
0.000369126
0.000591249
0.000329886
0.000370007
0.000810359
0.000480545
0.000362696
0.000634941
0.000398484
0.000762582
0.00046144
0.000536037
0.420864
0.407035
0.393706
0.380779
0.368169
0.355796
0.343597
0.331537
0.319605
0.307807
0.296164
0.284701
0.273444
0.262415
0.251632
0.241108
0.230847
0.22085
0.211112
0.201628
0.19239
0.183393
0.174632
0.166105
0.157812
0.149756
0.141941
0.134371
0.127053
0.119992
0.113195
0.106665
0.100407
0.0944212
0.0887094
0.08327
0.0781002
0.0731956
0.0685508
0.064159
0.0600126
0.0561031
0.0524216
0.0489586
0.0457043
0.042649
0.0397827
0.0370958
0.0345785
0.0322216
0.0300156
0.0279522
0.0260224
0.0242186
0.0225325
0.0209575
0.0194856
0.0181113
0.0168272
0.0156287
0.0145087
0.0134638
0.0124871
0.0115762
0.0107243
0.00993024
0.00918706
0.00849478
0.00784613
0.00724248
0.00667596
0.00614948
0.0056543
0.00519507
0.00476187
0.0043613
0.00398203
0.00363271
0.00330058
0.00299605
0.00270562
0.00244005
0.00218732
0.00195527
0.00173774
0.001534
0.00135048
0.00117023
0.00102036
0.000859614
0.000742219
0.000599655
0.000510798
0.0003901
0.000318116
0.000234823
0.000178588
0.000228624
0.000180744
0.000285731
0.000234443
0.000225756
0.000300033
0.00026311
0.000338857
0.000255855
0.000343744
0.000466423
0.000383917
0.000648044
0.000349801
0.000407619
0.000863177
0.000496187
0.000363791
0.000649594
0.000439317
0.000811657
0.000505544
0.000662973
0.416093
0.40206
0.388546
0.375476
0.362786
0.350413
0.338303
0.326415
0.314728
0.303232
0.29193
0.280836
0.269965
0.259335
0.248963
0.238862
0.229041
0.219505
0.210251
0.201277
0.192573
0.184129
0.175936
0.167982
0.160258
0.152757
0.145472
0.1384
0.131537
0.124884
0.11844
0.112209
0.106192
0.10039
0.0948076
0.0894451
0.0843038
0.0793839
0.0746847
0.0702043
0.0659399
0.061888
0.0580438
0.0544023
0.0509573
0.0477025
0.0446308
0.0417353
0.0390083
0.0364426
0.0340301
0.031764
0.0296361
0.0276398
0.0257673
0.0240125
0.0223677
0.0208276
0.0193849
0.0180351
0.0167708
0.0155888
0.0144818
0.0134475
0.0124785
0.0115738
0.0107257
0.00993462
0.00919229
0.00850059
0.00785056
0.00724576
0.00667618
0.00614735
0.00564786
0.00518544
0.00474705
0.00434275
0.00395784
0.00360435
0.00326676
0.00295749
0.00266268
0.00239144
0.00213656
0.00189742
0.00168113
0.00146864
0.00129058
0.00110025
0.000959185
0.000789634
0.0006813
0.000536627
0.000448643
0.000345204
0.000247351
0.000239907
0.000167002
0.000284913
0.000229177
0.000228292
0.000306975
0.000270694
0.000352615
0.000247223
0.000365587
0.000492549
0.000390874
0.000697693
0.00036411
0.000439503
0.000901979
0.000502116
0.000350772
0.000649553
0.000481123
0.000852139
0.000579124
0.00083687
0.411717
0.397537
0.383888
0.370711
0.357956
0.345571
0.333511
0.321737
0.310221
0.298945
0.287901
0.277089
0.266515
0.256188
0.24612
0.23632
0.2268
0.217566
0.208621
0.199965
0.191594
0.183501
0.175676
0.16811
0.16079
0.153705
0.146844
0.140195
0.133751
0.127504
0.121447
0.115576
0.109888
0.104381
0.0990537
0.0939068
0.08894
0.084154
0.0795489
0.0751252
0.0708825
0.0668201
0.0629367
0.0592304
0.0556984
0.052338
0.049145
0.0461156
0.0432446
0.0405275
0.0379584
0.0355323
0.0332428
0.0310849
0.0290516
0.0271384
0.025338
0.0236462
0.0220558
0.020563
0.0191607
0.0178459
0.0166112
0.0154548
0.0143688
0.0133527
0.0123981
0.011506
0.0106673
0.00988441
0.00914738
0.00846059
0.00781269
0.00721027
0.00664035
0.00611197
0.00561025
0.00514682
0.00470495
0.00429841
0.00390955
0.00355256
0.00321166
0.0028973
0.00260118
0.00232282
0.00206998
0.00182153
0.00161164
0.00138814
0.0012199
0.00101995
0.000888826
0.000717
0.000609914
0.000483575
0.000368761
0.000321047
0.000179401
0.000273538
0.000214586
0.00022349
0.000305406
0.000272153
0.000359342
0.000227986
0.000380914
0.000511955
0.000388786
0.000737944
0.000370975
0.000463154
0.000924507
0.000496667
0.000320816
0.000633349
0.000523462
0.000883467
0.000669478
0.00104716
0.407684
0.393398
0.379652
0.366397
0.353592
0.341193
0.329162
0.317464
0.306069
0.294956
0.284109
0.273519
0.263184
0.253104
0.243284
0.233729
0.224446
0.215442
0.20672
0.198283
0.190131
0.18226
0.174666
0.167341
0.160275
0.153459
0.14688
0.140529
0.134392
0.128461
0.122723
0.117171
0.111796
0.106591
0.101551
0.096672
0.0919499
0.0873824
0.082968
0.0787055
0.0745941
0.0706334
0.0668226
0.0631613
0.0596485
0.0562832
0.0530636
0.0499882
0.0470543
0.0442596
0.0416005
0.0390742
0.0366762
0.0344035
0.0322507
0.0302147
0.0282895
0.0264723
0.0247566
0.0231398
0.0216149
0.0201802
0.0188281
0.0175578
0.0163611
0.0152383
0.0141805
0.0131895
0.0122554
0.0113816
0.0105569
0.00978705
0.00905914
0.00838109
0.0077383
0.00714128
0.00657329
0.00604765
0.00554554
0.00508259
0.00463902
0.00423077
0.00384022
0.00347909
0.0031381
0.00281682
0.00252376
0.00223564
0.0019902
0.00172987
0.00153075
0.00129683
0.0011393
0.000936867
0.0008073
0.000654762
0.000519999
0.000452567
0.000283101
0.000308413
0.000188195
0.000209294
0.000293147
0.000265792
0.000357064
0.000196199
0.000387904
0.000522762
0.000376275
0.000766408
0.000368197
0.000475929
0.000928473
0.000477939
0.000296741
0.000599136
0.000565479
0.000911394
0.000771441
0.00128261
0.403953
0.389592
0.375776
0.362466
0.349624
0.337214
0.325202
0.313557
0.30225
0.291258
0.280561
0.270147
0.260004
0.250129
0.240519
0.231173
0.222094
0.213286
0.20475
0.19649
0.188506
0.180798
0.173362
0.166195
0.15929
0.15264
0.146237
0.14007
0.13413
0.128406
0.122888
0.117565
0.112426
0.107464
0.102668
0.0980307
0.0935461
0.0892078
0.0850108
0.0809512
0.0770255
0.0732313
0.0695664
0.0660294
0.0626187
0.0593336
0.0561727
0.0531354
0.0502199
0.0474256
0.0447502
0.0421928
0.0397503
0.0374215
0.0352027
0.0330924
0.0310859
0.029182
0.0273752
0.0256644
0.0240434
0.0225115
0.0210616
0.0196941
0.0184007
0.017183
0.0160317
0.0149498
0.0139265
0.0129667
0.0120582
0.0112079
0.0104016
0.00964891
0.00893343
0.00826745
0.0076323
0.00704317
0.00647915
0.0059578
0.00545726
0.00499523
0.00455236
0.00414154
0.00375267
0.00338523
0.00304867
0.00271743
0.0024329
0.00213218
0.00189846
0.00162694
0.00143921
0.00120253
0.00104685
0.000864431
0.000706593
0.000615508
0.000424091
0.000434226
0.000249466
0.00020929
0.000267537
0.000249509
0.000343429
0.000149594
0.000384507
0.00052264
0.000351702
0.000780515
0.000353213
0.000475094
0.000911471
0.000443801
0.000290259
0.000544309
0.000605598
0.000994298
0.000937182
0.00154019
0.400487
0.386074
0.372211
0.358862
0.345996
0.33358
0.321582
0.309976
0.298734
0.287833
0.277252
0.266976
0.256989
0.247282
0.237849
0.228684
0.219785
0.211151
0.202783
0.19468
0.186844
0.179274
0.171967
0.164922
0.158135
0.1516
0.145311
0.139261
0.133442
0.127845
0.122462
0.117282
0.112297
0.107496
0.102871
0.0984117
0.0941104
0.0899589
0.0859499
0.0820769
0.0783339
0.074716
0.0712185
0.0678381
0.0645713
0.0614158
0.0583692
0.0554302
0.0525966
0.0498677
0.0472416
0.0447178
0.0422941
0.0399703
0.0377434
0.0356135
0.0335769
0.0316337
0.0297793
0.0280142
0.0263328
0.0247361
0.0232173
0.0217783
0.0204109
0.0191183
0.0178907
0.0167328
0.0156332
0.0145984
0.0136152
0.0126921
0.0118138
0.0109915
0.0102073
0.00947539
0.00877525
0.00812408
0.00749894
0.00691938
0.00636157
0.00584494
0.00534861
0.00488646
0.00444787
0.00403199
0.00364947
0.00327235
0.00294573
0.00260145
0.00232965
0.00201709
0.00179538
0.0015208
0.00133519
0.00111897
0.000934733
0.000815537
0.000599909
0.000590488
0.000380978
0.00030603
0.00027842
0.000223774
0.000315643
0.000100541
0.000368457
0.000508734
0.000313034
0.000777436
0.000323101
0.000457851
0.000870884
0.00039184
0.000285868
0.000465222
0.000651026
0.00109128
0.0011189
0.00181577
0.397257
0.382809
0.368915
0.355542
0.342661
0.330243
0.318259
0.306684
0.295492
0.284662
0.274172
0.264004
0.254142
0.244574
0.235289
0.226278
0.217536
0.209058
0.200841
0.192884
0.185185
0.177742
0.170555
0.163619
0.156933
0.150492
0.144292
0.138327
0.132592
0.127078
0.121779
0.116688
0.111795
0.107093
0.102573
0.0982266
0.0940452
0.0900207
0.0861451
0.0824109
0.0788108
0.0753383
0.0719871
0.0687518
0.0656271
0.062609
0.0596933
0.0568771
0.0541568
0.0515309
0.0489963
0.0465522
0.0441957
0.0419269
0.0397427
0.0376437
0.0356264
0.0336921
0.0318362
0.0300608
0.0283603
0.0267374
0.0251854
0.0237078
0.0222965
0.0209563
0.0196771
0.0184655
0.0173094
0.0162172
0.0151747
0.0141925
0.0132539
0.0123723
0.0115282
0.0107379
0.00997901
0.00927098
0.00858895
0.00795445
0.00734197
0.00677245
0.00622388
0.0057108
0.00522255
0.00475756
0.00432811
0.00390353
0.00353288
0.00314278
0.00283009
0.00247362
0.00221448
0.00189858
0.00167932
0.00142532
0.00121124
0.00105916
0.00081678
0.000782187
0.000546328
0.000456929
0.000403175
0.000296332
0.00030097
5.31327e-05
0.000337283
0.000477522
0.000257666
0.000754004
0.000274591
0.00042137
0.000803776
0.000319294
0.000277809
0.000357214
0.00077341
0.00127414
0.00131768
0.00210458
0.394236
0.379767
0.365854
0.352468
0.339581
0.327166
0.315196
0.303647
0.292497
0.281723
0.271305
0.261224
0.251464
0.242009
0.232847
0.223967
0.21536
0.20702
0.198939
0.191115
0.183543
0.176221
0.169146
0.162315
0.155725
0.149372
0.143253
0.137363
0.131696
0.126248
0.121011
0.11598
0.111148
0.106508
0.102052
0.0977728
0.0936633
0.0897159
0.085923
0.0822773
0.0787715
0.0753989
0.0721524
0.069026
0.0660133
0.0631093
0.0603081
0.0576058
0.0549973
0.0524798
0.0500487
0.0477025
0.0454368
0.0432512
0.0411416
0.0391087
0.0371479
0.0352611
0.0334432
0.031697
0.0300166
0.0284059
0.0268577
0.0253772
0.0239556
0.0225996
0.0212986
0.0200609
0.0188738
0.0177477
0.0166674
0.0156456
0.0146644
0.0137393
0.0128494
0.0120133
0.0112068
0.0104517
0.00972137
0.00903922
0.00837844
0.00776118
0.00716486
0.00660419
0.00606911
0.00555674
0.00508165
0.00461003
0.0041952
0.00375854
0.00340348
0.00300134
0.00270216
0.00234224
0.00208599
0.00179055
0.00154327
0.00135351
0.00108159
0.00101614
0.000751449
0.000643433
0.000559602
0.000444089
0.000408257
0.000108018
0.000329063
0.000424516
0.000182082
0.000706641
0.000203987
0.000362852
0.000706765
0.000222916
0.000267773
0.00025865
0.000938474
0.00147866
0.00153467
0.00240155
0.391401
0.376922
0.363001
0.34961
0.336723
0.324315
0.312361
0.300837
0.289722
0.278996
0.268637
0.258627
0.248949
0.239587
0.230527
0.221757
0.213267
0.205045
0.197086
0.189381
0.181927
0.174717
0.167749
0.161018
0.154521
0.148255
0.142214
0.136396
0.130795
0.125406
0.120225
0.115245
0.11046
0.105866
0.101454
0.0972195
0.0931551
0.0892544
0.0855107
0.0819175
0.0784679
0.0751557
0.0719742
0.0689176
0.0659792
0.0631538
0.0604351
0.0578187
0.0552983
0.0528708
0.0505301
0.0482741
0.0460971
0.0439981
0.0419715
0.0400176
0.0381306
0.0363123
0.0345565
0.0328662
0.0312344
0.0296658
0.0281522
0.0266999
0.0252992
0.0239583
0.0226654
0.0214309
0.0202407
0.0191074
0.0180143
0.0169766
0.0159748
0.0150269
0.0141102
0.0132457
0.0124078
0.0116201
0.0108547
0.0101368
0.0094385
0.00878283
0.00814733
0.00754614
0.0069707
0.00641604
0.00589979
0.0053844
0.00492791
0.00444635
0.00404955
0.00360187
0.00326161
0.00285632
0.00256077
0.00222107
0.00193769
0.00170594
0.00140155
0.0012999
0.00100311
0.000872537
0.000753536
0.000626737
0.00056163
0.000246947
0.000447241
0.000474476
0.000159686
0.000665314
0.0001065
0.000279995
0.000575727
0.000107473
0.000364517
0.000310572
0.0011904
0.00170223
0.00177117
0.00270139
0.388732
0.374252
0.36033
0.346942
0.334061
0.321664
0.309727
0.298228
0.287145
0.276458
0.266149
0.256198
0.246588
0.237304
0.22833
0.219653
0.211261
0.203143
0.195289
0.187691
0.180343
0.173237
0.166369
0.159734
0.153327
0.147144
0.141181
0.135434
0.129898
0.124568
0.11944
0.114509
0.10977
0.105216
0.100842
0.0966428
0.0926122
0.0887444
0.0850331
0.0814729
0.0780574
0.074781
0.0716376
0.0686219
0.0657275
0.0629497
0.0602821
0.0577207
0.0552589
0.0528934
0.0506178
0.0484296
0.0463223
0.0442946
0.0423398
0.0404581
0.0386421
0.0368938
0.0352051
0.0335797
0.0320088
0.0304977
0.0290366
0.0276327
0.0262748
0.0249721
0.0237115
0.0225049
0.0213365
0.0202209
0.0191398
0.0181104
0.0171115
0.0161634
0.0152416
0.0143694
0.0135196
0.0127177
0.0119348
0.011197
0.0104764
0.00979598
0.00913424
0.00850384
0.00789876
0.00731092
0.00676194
0.00620979
0.00571776
0.0051963
0.00476151
0.00427127
0.0038914
0.00344168
0.00310632
0.00272125
0.00239992
0.00212308
0.00178343
0.00164123
0.00130846
0.0011519
0.000991999
0.00085085
0.000751443
0.000422005
0.000601707
0.000608324
0.000258246
0.000758991
0.000178048
0.000353685
0.000597332
0.000179404
0.000579045
0.000359505
0.00146468
0.00194239
0.0020278
0.00299842
0.386213
0.371738
0.357822
0.344442
0.331572
0.31919
0.307271
0.295796
0.284742
0.274092
0.263826
0.253925
0.244374
0.235154
0.226252
0.217654
0.209346
0.201317
0.193555
0.186051
0.178798
0.171786
0.165011
0.158465
0.152143
0.146042
0.140154
0.134477
0.129006
0.123736
0.118663
0.113781
0.109086
0.104572
0.100235
0.0960693
0.0920692
0.0882296
0.0845448
0.0810097
0.0776184
0.0743661
0.0712467
0.0682559
0.0653875
0.0626374
0.0599993
0.0574698
0.0550424
0.0527144
0.0504789
0.0483341
0.0462728
0.0442943
0.0423907
0.0405628
0.0388021
0.0371107
0.0354795
0.0339122
0.0323987
0.0309448
0.0295389
0.0281891
0.0268822
0.0256288
0.0244136
0.0232498
0.0221199
0.02104
0.0199898
0.0189884
0.0180127
0.0170848
0.0161786
0.015319
0.0144777
0.0136811
0.0129001
0.0121608
0.0114361
0.0107477
0.0100763
0.00943182
0.00881188
0.00820406
0.00763508
0.00705741
0.00654018
0.00598797
0.00552292
0.00499702
0.0045825
0.00409273
0.00371987
0.00329116
0.00293187
0.00260928
0.0022322
0.00204713
0.00167427
0.00148926
0.00128265
0.00112347
0.000985055
0.00063908
0.000791288
0.000772755
0.000385626
0.000886733
0.000295428
0.000476175
0.000669754
0.000289334
0.000823595
0.000498877
0.00176112
0.00219697
0.00230327
0.00328608
0.383829
0.369364
0.35546
0.342091
0.329236
0.316871
0.304973
0.293522
0.282497
0.27188
0.261652
0.251796
0.242294
0.233131
0.22429
0.215759
0.207523
0.19957
0.191888
0.184467
0.177298
0.170371
0.16368