/*--------------------------------*- C++ -*----------------------------------*\
| =========                 |                                                 |
| \\      /  F ield         | OpenFOAM: The Open Source CFD Toolbox           |
|  \\    /   O peration     | Version:  2412                                  |
|   \\  /    A nd           | Website:  www.openfoam.com                      |
|    \\/     M anipulation  |                                                 |
\*---------------------------------------------------------------------------*/
FoamFile
{
    version     2.0;
    format      ascii;
    arch        "LSB;label=32;scalar=64";
    class       volVectorField;
    location    "0.43";
    object      ddtCorrDdt0(U);
}
// * * * * * * * * * * * * * * * * * * * * * * * * * * * * * * * * * * * * * //

dimensions      [0 1 -2 0 0 0 0];

internalField   nonuniform List<vector> 
12600
(
(7.66662 -4.50165e-18 -13.4366)
(-14.1941 -7.5057e-18 -8.95291)
(-8.19938 -1.16791e-17 -2.33373)
(-1.74117 0 -0.154433)
(-0.318122 -1.45422e-17 -0.895832)
(0.760603 -1.5057e-17 -0.670873)
(3.31968 0 -0.491262)
(6.24096 0 -0.351595)
(9.10039 4.87688e-17 0.135343)
(10.8642 0 0.480666)
(10.731 -1.46179e-17 0.467261)
(9.18973 -1.00912e-17 0.356373)
(7.07984 6.19957e-18 0.275381)
(4.84007 0 0.153668)
(2.82581 -6.18876e-20 -0.0281678)
(1.52405 0 -0.165775)
(1.17608 1.34775e-17 -0.161728)
(1.4331 0 -0.0665864)
(1.63171 -1.24344e-17 -0.00684725)
(1.35323 -1.54765e-17 -0.0137069)
(0.53953 1.80349e-17 -0.0315626)
(-0.644214 -2.57962e-20 -0.0739837)
(-2.01764 0 -0.140416)
(-3.18013 -4.16543e-17 -0.223361)
(-3.72155 0 -0.252111)
(-3.62341 0 -0.19474)
(-2.89554 -3.4816e-17 -0.167158)
(-2.16388 0 -0.0853865)
(-1.37356 -6.7167e-20 -0.0960816)
(-0.953718 2.22212e-17 -0.0317763)
(-0.867838 1.89594e-17 -0.0543783)
(-1.05035 1.80968e-17 -0.0639563)
(-1.50659 -1.71898e-17 -0.11443)
(-1.66258 -3.22241e-17 -0.156317)
(-1.72597 -2.7674e-17 -0.151367)
(-1.28337 2.14904e-17 -0.151926)
(-0.808301 0 -0.0863133)
(-0.268911 -9.50155e-18 -0.0517704)
(0.150919 0 -0.00864285)
(0.0687518 4.23797e-18 0.0179044)
(-0.0105285 0 -0.0206449)
(-0.436005 9.34879e-20 -0.0177978)
(-0.742368 0 -0.0503461)
(-0.627941 9.77897e-20 -0.0470461)
(-0.635549 1.68125e-17 -0.0116343)
(-0.113559 -1.7054e-17 -0.00852308)
(0.292004 2.00086e-17 0.0343252)
(0.437816 0 0.0512175)
(0.79366 0 0.0454773)
(0.559483 3.31489e-17 0.0522066)
(0.452991 7.31731e-17 0.012436)
(0.502758 8.68985e-17 0.000513745)
(0.283363 1.487e-19 -0.00389337)
(0.558877 1.03424e-16 -0.00501032)
(0.696742 0 0.0298885)
(0.681343 -1.29436e-16 0.0455942)
(0.887599 -1.43761e-16 0.0612538)
(0.65209 -1.55037e-16 0.0530501)
(0.45843 0 0.0229363)
(0.408957 0 0.00498512)
(0.120886 0 -0.0186827)
(0.106959 2.85518e-16 -0.0328261)
(0.067337 0 -0.0391969)
(-0.120493 0 -0.0513592)
(-0.127068 -4.83266e-16 -0.0598213)
(-0.277768 0 -0.0726499)
(-0.436516 0 -0.0918967)
(-0.458862 0 -0.0970863)
(-0.562166 3.04444e-16 -0.105355)
(-0.597236 -2.51462e-16 -0.114219)
(-0.548679 -2.03131e-16 -0.104735)
(-0.552107 -4.2388e-19 -0.095019)
(-0.502055 1.07132e-16 -0.0836708)
(-0.426949 0 -0.0693565)
(-0.371944 -2.29258e-17 -0.056221)
(-0.27881 0 -0.0337872)
(-0.228448 0 -0.0205916)
(-0.216073 0 -0.0172627)
(-0.155546 -5.51923e-19 -0.00658524)
(-0.0705626 2.9246e-16 0.0122158)
(-0.015493 3.15478e-16 0.0230978)
(0.0293453 -3.29997e-16 0.0283653)
(0.118896 -3.43517e-16 0.0401832)
(0.180917 0 0.0565608)
(0.238075 0 0.0665318)
(0.178549 6.30172e-16 0.0555318)
(0.110457 -1.22916e-15 0.0416945)
(0.146159 1.20965e-15 0.0490415)
(0.121677 5.82029e-16 0.0614888)
(0.110005 0 0.0551503)
(0.0795015 -1.0303e-15 0.0556864)
(0.091656 4.63819e-16 0.0579599)
(0.137391 -4.01195e-16 0.0616479)
(0.0565507 6.88062e-16 0.0626637)
(-0.0153882 0 0.0296691)
(-0.0671501 0 0.013601)
(-0.0260354 0 0.0285509)
(-0.127833 0 0.0346373)
(-0.203067 0 0.0325979)
(0.0316917 0 -0.0224794)
(0.35708 -3.31264e-16 -0.089627)
(0.614957 -5.89165e-16 -0.124473)
(0.67047 -5.33815e-16 -0.150526)
(0.431262 0 -0.126402)
(-0.5431 0 0.0499858)
(-1.89633 0 0.330185)
(-2.7897 -4.79299e-16 0.512929)
(-2.60851 -9.04126e-16 0.473228)
(-1.84589 4.09318e-16 0.319128)
(-0.787102 0 0.125505)
(-0.280333 -7.0179e-16 0.0496272)
(-0.429778 0 0.0739463)
(-0.638944 -5.41656e-16 0.110696)
(-1.26281 4.39708e-16 0.243154)
(-1.2885 -4.7312e-16 0.247717)
(-1.83022 -4.72429e-16 0.355769)
(-1.85382 4.92891e-16 0.360568)
(-2.34832 3.07515e-20 0.453108)
(-2.69527 4.96672e-16 0.515244)
(-2.26214 0 0.431764)
(3.67507 4.54424e-18 -25.4549)
(-7.76471 0 -14.5933)
(-3.08806 1.18205e-17 -4.6433)
(-1.30252 0 -1.87228)
(-1.01294 1.47353e-17 -2.21985)
(0.630123 3.12052e-17 -1.64528)
(3.20867 1.53456e-17 -1.13342)
(6.43925 0 -0.404979)
(9.52974 -1.26979e-19 0.629606)
(11.0766 1.95617e-17 1.1191)
(10.6878 -1.45927e-17 0.919955)
(9.06927 -1.01691e-17 0.582377)
(6.92058 6.16898e-18 0.336728)
(4.60518 -2.62324e-18 0.0441484)
(2.55817 1.95631e-19 -0.312187)
(1.33356 0 -0.516214)
(1.11195 -6.73524e-20 -0.434871)
(1.43498 9.59061e-18 -0.231709)
(1.62425 1.26153e-17 -0.143127)
(1.32365 0 -0.18934)
(0.490895 0 -0.248878)
(-0.725399 2.00969e-17 -0.348239)
(-2.1346 0 -0.490918)
(-3.30858 2.11219e-17 -0.641238)
(-3.82378 -4.10682e-17 -0.688192)
(-3.70034 0 -0.557125)
(-2.94953 3.52289e-17 -0.489433)
(-2.19391 0 -0.335319)
(-1.38479 -2.62304e-17 -0.330948)
(-0.955337 -4.49279e-17 -0.235048)
(-0.891234 -3.83951e-17 -0.244343)
(-1.09786 -1.83172e-17 -0.294519)
(-1.56114 1.73944e-17 -0.352332)
(-1.6965 6.52034e-17 -0.43288)
(-1.72131 5.58902e-17 -0.384344)
(-1.24671 0 -0.367505)
(-0.751163 0 -0.230312)
(-0.213731 6.64957e-20 -0.143524)
(0.196467 0 -0.0701438)
(0.0987542 -4.2784e-18 0.00701326)
(0.00535854 0 -0.0668731)
(-0.424764 -9.60905e-18 -0.0529613)
(-0.72993 0 -0.0859452)
(-0.609523 -1.41694e-17 -0.0959849)
(-0.602757 0 0.00239499)
(-0.0722152 1.71723e-17 0.00171983)
(0.33938 0 0.072354)
(0.486122 0 0.125797)
(0.826502 -2.58308e-17 0.0832682)
(0.5842 0 0.108322)
(0.470524 0 0.040694)
(0.519997 0 -0.000457782)
(0.314103 -9.73201e-17 0.0233815)
(0.593912 -2.07568e-16 0.00426451)
(0.73765 0 0.0604303)
(0.724876 0 0.10027)
(0.923171 1.44251e-16 0.0931059)
(0.687007 1.55029e-16 0.0839836)
(0.490554 0 0.0273111)
(0.439043 0 -0.0203226)
(0.155846 0 -0.0400455)
(0.13934 0 -0.0708676)
(0.102935 2.75165e-16 -0.0808185)
(-0.0839382 -2.57325e-16 -0.0841856)
(-0.0947761 4.80391e-16 -0.10611)
(-0.25023 0 -0.119383)
(-0.417701 0 -0.145505)
(-0.449591 0 -0.158535)
(-0.559382 -7.47065e-19 -0.167007)
(-0.602092 2.49057e-16 -0.182653)
(-0.555736 2.01005e-16 -0.171099)
(-0.560678 -3.07415e-16 -0.15015)
(-0.517147 -6.83869e-19 -0.131308)
(-0.444086 6.33135e-17 -0.111596)
(-0.398086 2.25997e-17 -0.0890895)
(-0.309228 0 -0.0549691)
(-0.271723 0 -0.0317177)
(-0.273075 0 -0.0260545)
(-0.224919 2.41575e-16 -0.00694262)
(-0.154682 0 0.0281487)
(-0.103892 0 0.0470126)
(-0.0769404 3.22973e-16 0.0542572)
(0.023302 3.35847e-16 0.0637587)
(0.0682098 0 0.0918908)
(0.12495 0 0.105885)
(0.0331784 0 0.0915656)
(-0.0559291 1.19724e-15 0.0746498)
(-0.0196313 3.46416e-19 0.0829114)
(-0.0800678 5.65695e-16 0.110429)
(-0.0901244 -5.35177e-16 0.0984904)
(-0.158189 9.98642e-16 0.100771)
(-0.131416 4.48839e-16 0.103595)
(-0.0667738 7.75777e-16 0.112062)
(-0.215011 0 0.122745)
(-0.198551 0 0.0600192)
(-0.25531 0 0.0430584)
(-0.222901 0 0.0704214)
(-0.447477 4.20829e-16 0.101374)
(-0.544923 0 0.0917768)
(0.202945 0 -0.079811)
(1.1588 -3.17818e-16 -0.265402)
(1.72234 2.82213e-16 -0.356226)
(1.92931 1.02203e-15 -0.407339)
(1.19051 -5.31845e-16 -0.276873)
(-1.75091 0 0.288539)
(-5.67221 0 1.08987)
(-8.11692 0 1.55606)
(-7.3969 4.30605e-16 1.3783)
(-5.09693 -3.89549e-16 0.92)
(-2.11606 0 0.357512)
(-0.981214 1.33335e-15 0.178568)
(-1.4133 4.89867e-16 0.267116)
(-2.11196 1.0275e-15 0.402119)
(-3.96746 0 0.773678)
(-4.0324 0 0.781636)
(-5.72325 -4.47217e-16 1.11486)
(-5.77906 0 1.11904)
(-7.26807 -4.43781e-16 1.40805)
(-7.83091 -4.69206e-16 1.50893)
(-6.60876 0 1.25165)
(4.27324 0 -17.994)
(-0.0484382 0 -9.94088)
(-0.809453 1.38579e-17 -5.42793)
(-1.28704 0 -4.13176)
(-0.810226 0 -3.13166)
(0.844779 -1.43085e-17 -2.23814)
(3.61678 -1.45324e-17 -1.21848)
(7.06208 0 0.10591)
(9.90075 -2.86813e-19 1.08017)
(10.9948 -1.85321e-17 1.16407)
(10.3767 2.75217e-17 0.685591)
(8.75869 9.63522e-18 0.214501)
(6.63382 -1.19983e-19 -0.136773)
(4.31105 2.48573e-18 -0.512455)
(2.32022 -1.25878e-19 -0.845082)
(1.23327 1.82651e-18 -0.906744)
(1.11512 -6.39694e-18 -0.697118)
(1.43066 -9.08843e-18 -0.488115)
(1.55963 0 -0.463045)
(1.22826 0 -0.554701)
(0.388657 1.74754e-17 -0.639234)
(-0.834254 1.91547e-17 -0.750926)
(-2.24209 0 -0.908502)
(-3.38755 0 -1.02068)
(-3.85548 3.89145e-17 -1.02489)
(-3.71235 0 -0.853945)
(-2.95636 -6.66503e-17 -0.741993)
(-2.21206 2.94538e-17 -0.617456)
(-1.39938 0 -0.559237)
(-0.981802 2.12448e-17 -0.539683)
(-0.919877 1.81889e-17 -0.488966)
(-1.14113 0 -0.600206)
(-1.58628 -1.6565e-17 -0.582317)
(-1.70569 -3.0884e-17 -0.649243)
(-1.70388 -1.58478e-19 -0.536364)
(-1.21465 0 -0.478385)
(-0.712776 0 -0.340807)
(-0.176261 9.02731e-18 -0.219814)
(0.228801 0 -0.171457)
(0.127258 0 -0.0670082)
(0.0314363 0 -0.130012)
(-0.393449 0 -0.121324)
(-0.691229 0 -0.0998411)
(-0.567286 0 -0.133644)
(-0.551889 0 0.0017455)
(-0.0233735 -1.65753e-17 0.0117882)
(0.38941 1.93791e-17 0.0578307)
(0.536633 0 0.149197)
(0.868239 2.44383e-17 0.0707992)
(0.628874 0 0.102954)
(0.516422 0 0.0643703)
(0.568441 -8.2982e-17 -0.000382533)
(0.37414 0 0.0717163)
(0.652145 9.8226e-17 0.0446928)
(0.795502 -1.13701e-16 0.0789195)
(0.780266 0 0.132769)
(0.965695 -1.36349e-16 0.0735484)
(0.727532 0 0.0613746)
(0.529023 0 0.0103206)
(0.474089 0 -0.0595115)
(0.195943 -2.81476e-16 -0.0501794)
(0.175899 -2.68472e-16 -0.0822696)
(0.138889 -2.22282e-19 -0.0970652)
(-0.046881 4.85791e-16 -0.0741505)
(-0.0619145 -2.0301e-19 -0.103765)
(-0.219324 0 -0.104891)
(-0.387863 0 -0.114624)
(-0.426191 3.27431e-16 -0.131201)
(-0.538514 -6.25898e-19 -0.130751)
(-0.585649 0 -0.140288)
(-0.545016 0 -0.137679)
(-0.554193 1.446e-16 -0.114613)
(-0.518989 -5.14304e-19 -0.0986447)
(-0.453585 -4.90622e-19 -0.0900758)
(-0.419165 0 -0.0698009)
(-0.340884 0 -0.0476295)
(-0.320304 -1.05534e-16 -0.0267476)
(-0.334455 1.75248e-16 -0.0191014)
(-0.302529 0 -0.000415956)
(-0.250207 0 0.0333587)
(-0.207971 0 0.0502036)
(-0.199311 0 0.0557258)
(-0.0935585 0 0.0495182)
(-0.0692565 0 0.0754457)
(-0.0162403 0 0.0836309)
(-0.138457 0 0.081744)
(-0.240511 -1.12659e-15 0.0784024)
(-0.211626 -5.53276e-16 0.0820004)
(-0.304039 -5.3168e-16 0.114421)
(-0.315529 5.02894e-16 0.104112)
(-0.416903 -9.38478e-16 0.111664)
(-0.373384 -4.21592e-16 0.111854)
(-0.303755 -3.64177e-16 0.1213)
(-0.508202 0 0.143766)
(-0.406443 0 0.0767837)
(-0.48135 0 0.0827377)
(-0.460299 0 0.111023)
(-0.808991 -3.94807e-16 0.171649)
(-0.86665 0 0.140523)
(0.384829 0 -0.153045)
(1.88131 2.97995e-16 -0.432602)
(2.63796 0 -0.551367)
(2.8845 -4.79105e-16 -0.587666)
(1.48169 4.984e-16 -0.276703)
(-3.38974 0 0.745654)
(-9.65916 0 1.97864)
(-13.3765 0 2.59672)
(-11.9471 4.03219e-16 2.1966)
(-8.17621 0 1.42681)
(-3.42407 -3.30008e-16 0.548035)
(-1.88866 -2.0845e-20 0.346573)
(-2.63242 -4.58464e-16 0.524089)
(-3.87805 -9.61308e-16 0.787293)
(-6.89828 0 1.36613)
(-6.99195 4.19365e-16 1.36945)
(-9.87593 4.18317e-16 1.93798)
(-9.8652 4.36098e-16 1.91655)
(-12.3899 0 2.41159)
(-12.6498 4.38724e-16 2.41423)
(-10.7083 0 1.98918)
(5.29322 0 -10.194)
(2.07365 0 -8.36802)
(0.197622 -1.31003e-17 -6.65291)
(-0.576101 0 -5.17828)
(-0.17416 1.5151e-17 -3.8492)
(1.57863 -2.9389e-17 -2.48135)
(4.50216 0 -0.930515)
(7.74994 2.55169e-17 0.478848)
(10.0385 -2.17631e-17 1.11911)
(10.6661 -1.70301e-17 0.869455)
(9.94598 -1.2951e-17 0.293671)
(8.40474 8.94491e-18 -0.181664)
(6.3048 -5.41463e-18 -0.606118)
(3.99144 4.36058e-18 -1.06092)
(2.11041 0 -1.35079)
(1.18155 -3.36422e-18 -1.28403)
(1.12487 0 -1.00646)
(1.38561 0 -0.835147)
(1.44987 0 -0.862422)
(1.1059 1.43166e-17 -0.959616)
(0.269408 6.37799e-21 -1.04039)
(-0.961499 2.92154e-21 -1.15285)
(-2.35896 1.89307e-17 -1.30967)
(-3.45507 0 -1.3569)
(-3.85893 0 -1.27405)
(-3.6864 0 -1.04537)
(-2.93169 6.27141e-17 -0.877102)
(-2.20077 -2.54076e-19 -0.78883)
(-1.39385 0 -0.687446)
(-0.989362 0 -0.738854)
(-0.931714 0 -0.650006)
(-1.16321 0 -0.80388)
(-1.5857 3.12923e-17 -0.729615)
(-1.6899 0 -0.771323)
(-1.66428 -2.48378e-17 -0.617952)
(-1.16772 0 -0.523571)
(-0.663644 0 -0.405889)
(-0.132191 -8.38031e-18 -0.26837)
(0.263619 0 -0.25426)
(0.152817 0 -0.16083)
(0.0498821 3.67315e-18 -0.217562)
(-0.371458 -9.25017e-18 -0.239055)
(-0.662154 0 -0.176278)
(-0.531159 -1.32635e-17 -0.217444)
(-0.506457 0 -0.0662915)
(0.0218041 3.14136e-17 -0.0217441)
(0.436544 4.49667e-20 0.00317032)
(0.582781 0 0.124542)
(0.908372 0 0.0398782)
(0.671644 -3.02479e-17 0.0623229)
(0.560782 -6.65039e-17 0.0588681)
(0.617572 1.56723e-16 -0.0151516)
(0.432075 0 0.0842644)
(0.710774 9.28628e-17 0.0769264)
(0.855595 1.07329e-16 0.0968235)
(0.837412 1.16334e-16 0.162797)
(1.01513 1.2877e-16 0.0851631)
(0.773898 0 0.0562767)
(0.573556 0 0.0138557)
(0.516764 2.75929e-16 -0.0707211)
(0.239951 5.30793e-16 -0.0579493)
(0.217244 2.53215e-16 -0.0838417)
(0.178309 -2.42785e-19 -0.11242)
(-0.00976186 -2.28943e-16 -0.0804827)
(-0.0295248 -2.13517e-16 -0.115163)
(-0.191776 0 -0.117878)
(-0.36374 0 -0.120953)
(-0.409049 -3.08565e-16 -0.138304)
(-0.525663 -5.3351e-16 -0.136906)
(-0.578679 0 -0.139704)
(-0.543541 -1.7662e-16 -0.139877)
(-0.559028 -1.35079e-16 -0.116648)
(-0.532327 -9.28525e-17 -0.0990422)
(-0.475192 -1.10995e-16 -0.0943802)
(-0.452457 0 -0.0718156)
(-0.384675 0 -0.0516348)
(-0.381167 9.93097e-17 -0.029352)
(-0.407879 -3.30375e-16 -0.0167107)
(-0.39245 -2.15741e-16 0.00592358)
(-0.355823 0 0.0419249)
(-0.323348 0 0.0604559)
(-0.330547 0 0.0690447)
(-0.220438 0 0.0603666)
(-0.216968 0 0.0914537)
(-0.168662 0 0.100098)
(-0.324099 -5.43703e-16 0.106873)
(-0.436554 -4.4194e-19 0.108697)
(-0.420176 5.20349e-16 0.114891)
(-0.539629 0 0.153623)
(-0.558071 4.72517e-16 0.144972)
(-0.688171 4.4055e-16 0.160401)
(-0.62906 0 0.158046)
(-0.565637 -3.41732e-16 0.168967)
(-0.818367 -5.85215e-16 0.195868)
(-0.643949 0 0.113583)
(-0.751731 0 0.135658)
(-0.74016 0 0.17334)
(-1.21194 -3.70124e-16 0.254306)
(-1.17456 0 0.179654)
(0.546512 0 -0.237278)
(2.47974 2.79871e-16 -0.589695)
(3.31133 -2.48692e-16 -0.708066)
(3.48284 0 -0.70033)
(1.26063 0 -0.162418)
(-5.4902 0 1.21507)
(-13.8189 0 2.92489)
(-18.4944 0 3.61531)
(-16.2046 -3.67422e-20 2.94373)
(-11.0794 0 1.86044)
(-4.72713 3.08811e-16 0.712863)
(-3.00523 -5.83769e-16 0.548583)
(-4.07522 0 0.826819)
(-5.91103 1.19786e-19 1.22951)
(-10.0082 0 2.0037)
(-10.1236 3.70465e-20 2.00013)
(-14.2255 0 2.80923)
(-13.9934 -4.07736e-16 2.72947)
(-17.5813 0 3.43103)
(-17.0193 4.10299e-16 3.23213)
(-14.4686 0 2.6715)
(5.34758 0 -8.03713)
(2.80138 0 -7.98415)
(1.16962 0 -6.91526)
(0.438919 0 -5.47071)
(1.02514 -1.43014e-17 -3.79625)
(2.92443 -5.3594e-19 -1.97587)
(5.66725 0 -0.294244)
(8.35848 -2.40845e-17 0.848642)
(9.981 0 1.08875)
(10.2661 3.19887e-17 0.682938)
(9.54239 0 0.14308)
(8.04209 -8.44461e-18 -0.374401)
(5.91985 0 -0.953534)
(3.65242 -4.11706e-18 -1.49283)
(1.94168 2.68594e-20 -1.72078)
(1.16796 3.01021e-18 -1.56968)
(1.12276 -5.61233e-18 -1.30536)
(1.30503 -8.35051e-18 -1.2007)
(1.32025 0 -1.25031)
(0.976427 -1.35188e-17 -1.32546)
(0.13942 -1.56143e-17 -1.40274)
(-1.09989 -3.4199e-17 -1.52339)
(-2.46476 -1.78757e-17 -1.65603)
(-3.48675 0 -1.60975)
(-3.82254 0 -1.4191)
(-3.62908 0 -1.13257)
(-2.89505 -2.95045e-17 -0.92471)
(-2.17809 -2.6061e-17 -0.858825)
(-1.38311 0 -0.726291)
(-0.985198 0 -0.813024)
(-0.931076 1.62354e-17 -0.701286)
(-1.16484 0 -0.86825)
(-1.56009 -4.47477e-20 -0.754671)
(-1.64921 -2.70432e-17 -0.765026)
(-1.60211 2.2915e-17 -0.588672)
(-1.10709 0 -0.472777)
(-0.604872 0 -0.385709)
(-0.0848386 7.90952e-18 -0.256386)
(0.296778 0 -0.289391)
(0.175921 0 -0.23216)
(0.0626214 -3.46622e-18 -0.296228)
(-0.351546 8.72851e-18 -0.352512)
(-0.634014 0 -0.257815)
(-0.495756 1.25138e-17 -0.298588)
(-0.459848 0 -0.139595)
(0.0647137 -1.48612e-17 -0.063286)
(0.480948 -1.73113e-17 -0.0616381)
(0.62528 0 0.078847)
(0.943221 -2.19955e-17 -0.00799326)
(0.711624 2.85254e-17 0.00131547)
(0.602275 1.25556e-16 0.0312917)
(0.664312 -7.38916e-17 -0.0490222)
(0.488126 8.24341e-17 0.069732)
(0.765306 8.18701e-20 0.0819713)
(0.911692 0 0.0892395)
(0.890536 -1.09649e-16 0.167279)
(1.0615 -1.21359e-16 0.0845504)
(0.820013 1.30388e-16 0.0464703)
(0.619404 -1.2986e-16 0.0202472)
(0.562214 -2.59965e-16 -0.0697204)
(0.287544 -2.49902e-16 -0.0541454)
(0.261805 2.38083e-16 -0.070662)
(0.220799 -2.30387e-16 -0.112527)
(0.0297536 0 -0.0744528)
(0.00452255 0 -0.113436)
(-0.162928 -1.84605e-16 -0.118478)
(-0.338834 0 -0.116206)
(-0.391553 0 -0.132289)
(-0.512564 2.50763e-16 -0.129833)
(-0.572777 0 -0.126632)
(-0.543557 1.66173e-16 -0.128195)
(-0.56731 2.53672e-16 -0.10588)
(-0.550178 0 -0.0872566)
(-0.503381 5.19735e-17 -0.0856296)
(-0.493397 0 -0.0614796)
(-0.437781 0 -0.0420053)
(-0.452119 -9.46049e-17 -0.0182)
(-0.492198 1.55543e-16 -0.00216371)
(-0.49427 -3.69513e-19 0.0242758)
(-0.472407 0 0.0611217)
(-0.451643 0 0.0808633)
(-0.473521 0 0.0920322)
(-0.362822 -2.7993e-16 0.0822903)
(-0.381282 2.74482e-16 0.119386)
(-0.340052 0 0.128868)
(-0.529867 1.02115e-15 0.143334)
(-0.649843 4.97227e-16 0.147997)
(-0.651854 -9.76966e-16 0.157657)
(-0.793669 -4.69128e-16 0.20237)
(-0.825062 -8.86754e-16 0.195351)
(-0.979036 0 0.21736)
(-0.908796 0 0.21177)
(-0.860055 3.20429e-16 0.2275)
(-1.15397 5.48648e-16 0.255104)
(-0.919342 -4.83276e-16 0.158103)
(-1.07072 0 0.199936)
(-1.0684 0 0.249663)
(-1.6568 3.46783e-16 0.345451)
(-1.47835 3.15509e-16 0.20734)
(0.65378 0 -0.330672)
(2.91226 -2.62106e-16 -0.723668)
(3.69808 2.32873e-16 -0.807538)
(3.6857 0 -0.71781)
(0.507106 0 0.104714)
(-7.9591 0 2.05564)
(-18.0797 0 3.9249)
(-23.4077 0 4.57945)
(-20.1367 -3.53099e-16 3.58649)
(-13.8039 0 2.21727)
(-6.03871 0 0.852771)
(-4.31729 0 0.794205)
(-5.71072 4.00772e-16 1.18104)
(-8.15756 4.20264e-16 1.73496)
(-13.2302 0 2.67716)
(-13.3602 -3.66681e-16 2.66476)
(-18.6843 0 3.71269)
(-18.0254 -3.81203e-16 3.53099)
(-22.7021 0 4.43628)
(-20.8348 -3.8344e-16 3.91743)
(-17.8154 0 3.25752)
(5.3125 1.87843e-17 -6.67873)
(3.30551 1.76289e-17 -7.10642)
(2.2279 -1.66437e-17 -6.11604)
(1.96623 -1.59037e-17 -4.53051)
(2.8546 0 -2.59693)
(4.60618 1.38415e-17 -0.784911)
(6.83399 0 0.644152)
(8.79796 -2.21296e-17 1.35836)
(9.84186 -1.847e-17 1.30301)
(9.91903 -2.98039e-17 0.859968)
(9.16541 1.11285e-17 0.295069)
(7.60426 -7.55523e-18 -0.409288)
(5.44961 0 -1.19801)
(3.30768 0 -1.78454)
(1.8165 -2.53132e-20 -1.93934)
(1.16911 -3.91605e-20 -1.76654)
(1.0948 -5.13314e-20 -1.57474)
(1.20283 -7.01549e-20 -1.52874)
(1.1918 0 -1.56423)
(0.847901 0 -1.61032)
(-0.00182425 0 -1.70317)
(-1.24414 3.22079e-17 -1.84304)
(-2.55092 1.66671e-17 -1.94026)
(-3.48338 0 -1.8033)
(-3.76228 0 -1.52535)
(-3.56574 3.008e-17 -1.20631)
(-2.86695 0 -0.971713)
(-2.15943 0 -0.901995)
(-1.37691 0 -0.732536)
(-0.981187 0 -0.821353)
(-0.931078 7.47582e-20 -0.69878)
(-1.16142 0 -0.860023)
(-1.52583 -1.23686e-20 -0.720116)
(-1.59968 2.54922e-17 -0.693822)
(-1.53277 -2.26677e-19 -0.50104)
(-1.0456 0 -0.367363)
(-0.547339 0 -0.306546)
(-0.0424002 0 -0.193661)
(0.32286 0 -0.271775)
(0.194883 0 -0.258083)
(0.0714978 0 -0.333371)
(-0.329367 0 -0.419781)
(-0.601055 -9.87197e-18 -0.300253)
(-0.455919 -1.18964e-17 -0.33597)
(-0.407148 0 -0.176248)
(0.109502 -1.4049e-17 -0.0757811)
(0.526368 0 -0.0996525)
(0.668195 0 0.048221)
(0.976112 4.14743e-17 -0.0419186)
(0.751871 0 -0.0509275)
(0.643245 -5.91839e-17 0.0052872)
(0.7096 0 -0.0844983)
(0.542955 -1.55336e-16 0.0435782)
(0.815704 1.18908e-19 0.0697004)
(0.963506 0 0.0631691)
(0.940016 0 0.153048)
(1.10456 0 0.0734058)
(0.865681 -2.45459e-16 0.0336228)
(0.666006 2.44412e-16 0.0290169)
(0.60903 2.44189e-16 -0.059967)
(0.33753 2.34915e-16 -0.0407269)
(0.307961 -4.47907e-16 -0.0465947)
(0.264771 -2.16407e-16 -0.100885)
(0.0704615 0 -0.057899)
(0.039112 0 -0.100445)
(-0.13353 1.08858e-19 -0.107125)
(-0.313428 0 -0.0989894)
(-0.374012 0 -0.111836)
(-0.499417 2.34905e-16 -0.107365)
(-0.568141 0 -0.0982259)
(-0.545582 0 -0.100794)
(-0.579578 -2.37607e-16 -0.0800749)
(-0.573129 8.09599e-17 -0.0611533)
(-0.538901 0 -0.0623922)
(-0.542574 0 -0.0370912)
(-0.500967 0 -0.0179601)
(-0.533839 8.88485e-17 0.00701907)
(-0.58818 0 0.0249338)
(-0.60862 3.81668e-16 0.0543056)
(-0.600949 -2.25712e-16 0.090619)
(-0.59385 0 0.110829)
(-0.629709 0 0.123868)
(-0.522594 2.62682e-16 0.113768)
(-0.563879 1.469e-19 0.15717)
(-0.532188 2.51662e-16 0.167852)
(-0.756625 -4.791e-16 0.189229)
(-0.882045 4.67094e-16 0.195316)
(-0.907823 4.58235e-16 0.209305)
(-1.06772 4.39851e-16 0.258714)
(-1.11816 -1.82273e-19 0.253373)
(-1.29068 0 0.280432)
(-1.21653 -3.48025e-16 0.271972)
(-1.18858 0 0.294866)
(-1.51867 0 0.321002)
(-1.23762 4.52739e-16 0.210566)
(-1.4422 0 0.276197)
(-1.44968 0 0.338936)
(-2.14453 0 0.444311)
(-1.79254 -2.95415e-16 0.227303)
(0.668772 0 -0.419059)
(3.13606 -2.46402e-16 -0.822174)
(3.75478 0 -0.839864)
(3.45535 0 -0.633129)
(-0.779534 0 0.516862)
(-10.9005 0 2.49558)
(-22.3749 0 4.97871)
(-28.0447 -3.50773e-16 5.5237)
(-23.7174 -3.30077e-16 4.09434)
(-16.3486 2.98906e-16 2.49413)
(-7.36539 0 0.969478)
(-5.80099 0 1.07472)
(-7.49539 -7.49265e-16 1.5768)
(-10.5487 0 2.29058)
(-16.4808 3.18686e-16 3.37111)
(-16.6119 0 3.34749)
(-23.144 3.4173e-16 4.62747)
(-21.8136 3.56228e-16 4.29209)
(-27.6175 0 5.39766)
(-24.018 -3.58564e-16 4.46017)
(-20.6793 0 3.73829)
(5.33415 -1.76897e-17 -4.47744)
(3.9435 -3.48375e-17 -4.83806)
(3.8549 1.56774e-17 -3.76932)
(3.99481 -8.52901e-19 -2.21979)
(4.82001 -1.46914e-17 -0.61429)
(6.13993 0 0.730673)
(7.72269 0 1.66523)
(9.00989 2.08383e-17 1.96188)
(9.65064 3.44691e-17 1.73064)
(9.5662 3.20942e-19 1.21502)
(8.67802 -1.0478e-17 0.465519)
(6.99596 7.11361e-18 -0.503411)
(4.88774 -4.02528e-18 -1.43513)
(2.97813 0 -1.98773)
(1.72311 0 -2.08157)
(1.15428 -1.26349e-18 -1.95295)
(1.03388 1.01369e-17 -1.8517)
(1.09603 1.50202e-17 -1.82477)
(1.07537 0 -1.81858)
(0.711943 0 -1.85512)
(-0.169846 0 -1.99686)
(-1.40509 -3.23516e-20 -2.17022)
(-2.63034 -3.12496e-17 -2.23442)
(-3.46806 1.53784e-17 -2.03332)
(-3.7075 2.97407e-17 -1.70753)
(-3.5215 -5.63559e-17 -1.38077)
(-2.86103 2.53663e-17 -1.11863)
(-2.15616 2.22631e-17 -1.01623)
(-1.3889 1.87343e-17 -0.805314)
(-0.998812 0 -0.880064)
(-0.955647 -1.44812e-17 -0.759783)
(-1.17718 1.38872e-17 -0.90173)
(-1.50551 -1.30435e-17 -0.738487)
(-1.5617 -2.36881e-17 -0.664397)
(-1.4751 -4.00724e-17 -0.449605)
(-0.998983 0 -0.28885)
(-0.504801 0 -0.235338)
(-0.0157248 -6.97686e-18 -0.129069)
(0.333938 0 -0.233209)
(0.20477 3.63209e-18 -0.252866)
(0.0748357 3.35467e-18 -0.33045)
(-0.305302 0 -0.43418)
(-0.562949 1.88239e-17 -0.292914)
(-0.411773 1.11952e-17 -0.31904)
(-0.348936 0 -0.164213)
(0.155777 1.32196e-17 -0.0471071)
(0.572476 1.52823e-17 -0.0968344)
(0.711761 0 0.0478687)
(1.00723 -3.91308e-17 -0.0479367)
(0.792342 2.53303e-17 -0.0812094)
(0.683201 5.59916e-17 -0.00916567)
(0.752329 0 -0.113877)
(0.595437 -1.0329e-19 0.0121894)
(0.861074 -1.5555e-16 0.0452724)
(1.01055 0 0.023001)
(0.985801 0 0.123465)
(1.14396 1.07595e-16 0.0516612)
(0.910072 1.15396e-16 0.0148684)
(0.71197 -2.29797e-16 0.0344209)
(0.655204 -2.29543e-16 -0.0493701)
(0.387885 -2.20807e-16 -0.0253512)
(0.353636 2.10444e-16 -0.0192461)
(0.308343 4.06682e-16 -0.0841279)
(0.110858 0 -0.0360765)
(0.073074 0 -0.0805895)
(-0.104438 3.25941e-16 -0.0872822)
(-0.288033 0 -0.0717781)
(-0.357009 0 -0.0792932)
(-0.486834 -2.20626e-16 -0.0716542)
(-0.565494 0 -0.0562738)
(-0.550527 1.4561e-16 -0.0596725)
(-0.59673 1.97621e-19 -0.040826)
(-0.60204 -7.6006e-17 -0.0218774)
(-0.582595 0 -0.0257244)
(-0.600716 0 0.000674332)
(-0.575027 0 0.019514)
(-0.627029 8.4088e-17 0.0452271)
(-0.696611 0 0.0636594)
(-0.736132 -1.79158e-16 0.0949272)
(-0.742478 4.23504e-16 0.129343)
(-0.750952 0 0.149353)
(-0.800629 0 0.163692)
(-0.701389 0 0.153733)
(-0.766213 9.45211e-20 0.203821)
(-0.746455 -2.35926e-16 0.215882)
(-1.00506 -4.49684e-16 0.243895)
(-1.13479 -4.3778e-16 0.250411)
(-1.18914 4.29952e-16 0.26949)
(-1.36325 0 0.322415)
(-1.43867 3.89682e-16 0.318758)
(-1.62453 0 0.349544)
(-1.55609 3.25983e-16 0.33903)
(-1.55255 0 0.371003)
(-1.91678 0 0.393625)
(-1.60355 0 0.272439)
(-1.87078 -3.8826e-16 0.365678)
(-1.88842 -3.46749e-16 0.442631)
(-2.67838 0 0.551071)
(-2.13872 2.7706e-16 0.241185)
(0.548574 -2.37497e-16 -0.494949)
(3.10923 2.30552e-16 -0.873964)
(3.44253 -2.05785e-16 -0.792212)
(2.76277 0 -0.432252)
(-2.62277 0 1.08626)
(-13.9716 0 4.06528)
(-26.5952 0 6.05136)
(-32.3582 3.28004e-16 6.3839)
(-26.9177 1.20399e-19 4.49393)
(-18.7108 -5.58977e-16 2.69211)
(-8.70386 0 1.06549)
(-7.41688 0 1.3879)
(-9.36944 3.50105e-16 2.00472)
(-12.9969 0 2.88017)
(-19.6589 -2.97813e-16 4.06567)
(-19.7649 0 4.0279)
(-27.4803 -6.38587e-16 5.52704)
(-25.2092 0 4.9827)
(-32.2084 0 6.28754)
(-26.5367 3.34955e-16 4.84437)
(-23.0045 0 4.10763)
(5.25701 0 -0.93191)
(5.05815 1.71533e-17 -0.97735)
(5.64779 0 -0.338138)
(5.75831 1.48964e-17 0.56127)
(6.26372 2.7697e-17 1.41263)
(7.15388 0 2.12097)
(8.18515 -1.09713e-17 2.51314)
(8.99535 0 2.48518)
(9.35294 -4.27226e-19 2.09869)
(9.05365 2.51489e-17 1.39359)
(7.95954 0 0.379113)
(6.2207 0 -0.762039)
(4.30127 3.78598e-18 -1.67892)
(2.69408 0 -2.14169)
(1.63725 0 -2.23402)
(1.10127 0 -2.19925)
(0.952884 -4.80253e-18 -2.16)
(1.00537 -7.09226e-18 -2.10603)
(0.966823 -9.3847e-18 -2.0642)
(0.544724 0 -2.13581)
(-0.384089 0 -2.35253)
(-1.59045 -1.42246e-17 -2.5546)
(-2.71183 1.46304e-17 -2.58331)
(-3.45671 -1.44638e-17 -2.34705)
(-3.67234 -2.79718e-17 -2.0106)
(-3.50044 5.23369e-17 -1.68991)
(-2.87335 -4.06032e-19 -1.39554)
(-2.16963 -2.09383e-17 -1.24638)
(-1.42873 -1.76192e-17 -1.00676)
(-1.05466 0 -1.06945)
(-1.02046 0 -0.963213)
(-1.22527 -1.306e-17 -1.07295)
(-1.51061 0 -0.883186)
(-1.54607 2.2276e-17 -0.751127)
(-1.43989 1.87613e-17 -0.506211)
(-0.97645 -1.42558e-17 -0.305653)
(-0.486015 0 -0.235211)
(-0.0125342 6.56018e-18 -0.117208)
(0.32297 4.65156e-18 -0.220669)
(0.198955 2.25829e-19 -0.25503)
(0.066997 -6.52906e-18 -0.319932)
(-0.285634 0 -0.424903)
(-0.526214 -8.96225e-18 -0.262198)
(-0.370167 0 -0.272601)
(-0.292089 0 -0.123961)
(0.197788 0 0.00698888)
(0.614097 5.76708e-20 -0.063645)
(0.751653 0 0.0718479)
(1.03267 1.84231e-17 -0.0298377)
(0.829202 -4.76502e-17 -0.0912138)
(0.718566 -5.26161e-17 -0.0132129)
(0.789221 0 -0.136443)
(0.642929 6.87765e-17 -0.0218931)
(0.899629 1.4642e-16 0.012771)
(1.05161 0 -0.0266918)
(1.02692 0 0.0814431)
(1.17842 -1.01069e-16 0.0189338)
(0.951263 -1.08449e-16 -0.0138131)
(0.754869 1.07931e-16 0.0292268)
(0.697887 2.15415e-16 -0.0469756)
(0.435751 0 -0.017469)
(0.396029 0 0.0022274)
(0.348987 -2.51043e-20 -0.0703572)
(0.148741 1.78661e-16 -0.0159997)
(0.104565 0 -0.0600136)
(-0.0773271 -1.52948e-16 -0.0647701)
(-0.264181 0 -0.0405037)
(-0.342261 0 -0.0411161)
(-0.476591 0 -0.0294666)
(-0.566704 0 -0.0073939)
(-0.560219 -6.51104e-20 -0.0110065)
(-0.62044 6.5962e-20 0.0065623)
(-0.638417 7.10848e-17 0.0261808)
(-0.635782 0 0.0207436)
(-0.668996 1.35901e-17 0.0488885)
(-0.661042 0 0.0678631)
(-0.732667 -7.88493e-17 0.09426)
(-0.818466 1.29532e-16 0.112289)
(-0.877641 -1.68115e-16 0.144752)
(-0.898128 -1.9852e-16 0.176345)
(-0.923995 0 0.195784)
(-0.98786 2.22417e-16 0.211219)
(-0.900626 0 0.201936)
(-0.989669 -2.26468e-16 0.259129)
(-0.983923 -2.21039e-16 0.272645)
(-1.27597 4.21266e-16 0.30706)
(-1.40967 0 0.313401)
(-1.4968 -8.05509e-16 0.338162)
(-1.68171 0 0.393637)
(-1.78769 3.65083e-16 0.391568)
(-1.98231 0 0.4251)
(-1.93096 3.05151e-16 0.413855)
(-1.95321 0 0.456098)
(-2.35272 4.51231e-16 0.474114)
(-2.02157 -3.97723e-16 0.344996)
(-2.36143 3.63334e-16 0.469783)
(-2.38901 3.24454e-16 0.561652)
(-3.2643 0 0.664667)
(-2.54229 -5.18695e-16 0.256204)
(0.250872 4.45092e-16 -0.544929)
(2.79339 0 -0.867418)
(2.72852 1.92458e-16 -0.653578)
(1.58831 0 -0.106148)
(-4.93305 0 1.80425)
(-17.3458 -3.49418e-16 5.47623)
(-30.7275 0 7.14124)
(-36.3039 0 7.12016)
(-29.7138 2.88368e-16 4.80429)
(-20.887 5.22582e-16 2.81084)
(-10.0395 2.36558e-16 1.13867)
(-9.11305 0 1.72357)
(-11.2577 0 2.45082)
(-15.397 0 3.48508)
(-22.6471 0 4.73898)
(-22.6815 2.99375e-16 4.68166)
(-31.5582 2.98272e-16 6.38384)
(-28.0716 0 5.5749)
(-36.3791 0 7.08474)
(-28.4074 0 5.06914)
(-24.7508 0 4.35878)
(5.06121 -1.79843e-17 3.20028)
(5.9408 0 3.0199)
(6.59101 -1.55023e-17 2.82566)
(6.6158 0 2.89154)
(6.96151 -1.30408e-17 3.05273)
(7.57921 0 3.18322)
(8.26252 1.03117e-17 3.13012)
(8.76902 -1.71357e-17 2.82492)
(8.84811 -2.87944e-17 2.20833)
(8.27866 -5.73355e-19 1.24588)
(7.036 0 0.0505208)
(5.39664 0 -1.08027)
(3.77041 0 -1.87341)
(2.44698 0 -2.27812)
(1.5246 0 -2.44063)
(1.01821 0 -2.49216)
(0.889874 4.60665e-18 -2.45198)
(0.949527 -6.76701e-18 -2.35044)
(0.854714 8.8179e-18 -2.31469)
(0.335879 0 -2.45884)
(-0.63101 0 -2.73561)
(-1.77338 1.30475e-17 -2.92955)
(-2.77667 1.3264e-17 -2.914)
(-3.4404 1.31193e-17 -2.66996)
(-3.6442 0 -2.35151)
(-3.48142 -2.44023e-17 -2.04253)
(-2.88154 -4.35597e-17 -1.719)
(-2.18746 1.89302e-17 -1.53201)
(-1.49131 0 -1.29392)
(-1.14516 0 -1.3572)
(-1.11788 0 -1.27353)
(-1.29644 1.22893e-17 -1.34369)
(-1.53373 0 -1.13073)
(-1.5481 0 -0.944949)
(-1.42455 1.72168e-17 -0.672357)
(-0.975674 1.3392e-17 -0.428804)
(-0.490238 0 -0.325646)
(-0.0337788 6.33293e-18 -0.183961)
(0.286715 -8.91488e-18 -0.267086)
(0.171795 -3.41976e-18 -0.301861)
(0.0410717 3.17011e-18 -0.342805)
(-0.279374 0 -0.435764)
(-0.500589 0 -0.251591)
(-0.340898 0 -0.238569)
(-0.246115 1.21967e-17 -0.0921382)
(0.227491 0 0.0559689)
(0.643696 -1.35427e-17 -0.0245429)
(0.781065 -1.54875e-17 0.101667)
(1.04625 0 -0.00184463)
(0.856638 2.2389e-17 -0.0902425)
(0.744481 0 -0.0119404)
(0.816363 0 -0.152199)
(0.682536 6.47037e-17 -0.0542629)
(0.929517 1.12074e-19 -0.0203751)
(1.08527 -7.93011e-17 -0.0774486)
(1.06201 0 0.0337582)
(1.20618 0 -0.0212187)
(0.986926 1.01778e-16 -0.0524567)
(0.792064 0 0.010191)
(0.734184 -2.02139e-16 -0.0579193)
(0.478302 0 -0.0231367)
(0.43238 0 0.0115206)