/*--------------------------------*- C++ -*----------------------------------*\
| =========                 |                                                 |
| \\      /  F ield         | OpenFOAM: The Open Source CFD Toolbox           |
|  \\    /   O peration     | Version:  2412                                  |
|   \\  /    A nd           | Website:  www.openfoam.com                      |
|    \\/     M anipulation  |                                                 |
\*---------------------------------------------------------------------------*/
FoamFile
{
    version     2.0;
    format      ascii;
    arch        "LSB;label=32;scalar=64";
    class       volScalarField;
    location    "0.93";
    object      Co;
}
// * * * * * * * * * * * * * * * * * * * * * * * * * * * * * * * * * * * * * //

dimensions      [0 0 0 0 0 0 0];

internalField   nonuniform List<scalar> 
12600
(
0.369461
0.151035
0.0592705
0.0260447
0.0139402
0.00856005
0.00551241
0.00354641
0.00220526
0.00126546
0.000598625
0.000352503
0.000488871
0.000665292
0.000779804
0.000854755
0.000894846
0.000908995
0.000904542
0.000886928
0.000861048
0.000824991
0.000790766
0.000751745
0.000704543
0.000661839
0.00062432
0.000578231
0.000534073
0.000494342
0.000455258
0.000417312
0.000381985
0.000349146
0.000318276
0.000289331
0.000262568
0.000237895
0.00021511
0.000194146
0.000174896
0.000157254
0.000141116
0.000126322
0.000112784
0.000100443
8.92401e-05
7.91768e-05
7.02803e-05
6.25516e-05
5.59953e-05
5.05574e-05
4.61293e-05
4.25373e-05
3.95164e-05
3.67146e-05
3.36866e-05
2.99097e-05
2.48609e-05
1.81197e-05
1.01644e-05
1.1984e-05
2.30058e-05
3.2532e-05
3.9926e-05
4.54879e-05
5.03848e-05
5.6509e-05
6.55883e-05
7.89845e-05
9.6182e-05
0.000114927
0.000130442
0.000136947
0.000130361
0.000123188
0.000104006
7.85025e-05
5.42273e-05
3.85287e-05
2.96859e-05
2.20399e-05
1.74367e-05
1.64011e-05
1.18178e-05
7.95675e-06
2.16342e-05
5.10641e-05
7.93938e-05
8.49747e-05
7.98207e-05
6.82917e-05
0.000148456
0.000272564
0.000255597
0.000227708
0.000200542
0.00013962
2.89988e-05
2.71491e-05
1.76791e-05
3.04517e-05
3.25181e-05
3.80823e-05
4.91755e-05
4.59335e-05
6.20877e-05
0.000127256
0.000211423
0.000264616
0.000268493
0.000250303
0.000218041
0.00016102
0.000102168
5.43807e-05
2.66437e-05
3.94962e-06
2.33226e-06
7.6007e-06
0.595119
0.38238
0.221445
0.126265
0.075532
0.0481584
0.0321806
0.0220155
0.0151359
0.010296
0.0068109
0.00426123
0.00238572
0.00114865
0.00104943
0.00156099
0.00190828
0.0021349
0.00226788
0.00232684
0.00233874
0.00230764
0.00224673
0.00216516
0.00208151
0.00198617
0.00189632
0.00178253
0.00166835
0.00155786
0.00144624
0.00133684
0.00123238
0.00113265
0.00103775
0.000948152
0.00086446
0.000786387
0.000713561
0.000646241
0.000584196
0.000526988
0.000474407
0.000426053
0.000381657
0.000341029
0.000303943
0.000270409
0.000240554
0.000214393
0.000191994
0.000173264
0.000157927
0.000145518
0.000135267
0.000126146
0.000116817
0.000105625
9.08134e-05
7.07886e-05
4.47099e-05
4.78859e-05
8.22959e-05
0.00011335
0.000137233
0.000155621
0.000172938
0.000195671
0.000229152
0.000277114
0.000336328
0.000398118
0.000445527
0.000459844
0.000428993
0.000416812
0.000365097
0.000283433
0.000195915
0.000134303
0.000100333
7.15295e-05
5.34283e-05
5.33189e-05
4.06369e-05
3.61334e-05
9.88865e-05
0.000203724
0.000295811
0.000288837
0.000295143
0.000282862
0.000547721
0.000928493
0.000766011
0.000719367
0.000707087
0.00056981
9.64917e-05
8.9558e-05
6.43543e-05
0.000121044
0.000116891
0.00013213
0.000157613
0.000150771
0.000271791
0.000532865
0.000772774
0.00087952
0.000826398
0.000766765
0.000681729
0.000515508
0.000331191
0.000175037
9.21678e-05
1.50444e-05
1.0198e-05
2.90238e-05
0.662568
0.532104
0.380977
0.256932
0.170715
0.115047
0.0794261
0.055968
0.0398992
0.0285102
0.0202301
0.0141023
0.00951666
0.00605638
0.00349194
0.00196175
0.00192229
0.00252722
0.00293721
0.00318636
0.00333049
0.003387
0.00336555
0.00328668
0.003195
0.00308749
0.00299281
0.00286038
0.00271543
0.00256147
0.00239933
0.00223684
0.002077
0.00192023
0.00176879
0.00162421
0.00148757
0.00135866
0.00123722
0.0011243
0.00101974
0.000922767
0.000833252
0.000750653
0.000674522
0.000604546
0.000540267
0.000481683
0.000429082
0.000382517
0.000342231
0.000308254
0.000280307
0.000257847
0.000239813
0.000224737
0.000210615
0.000194725
0.000173932
0.000144956
0.000105357
0.000107871
0.000161635
0.000213734
0.000252648
0.000282941
0.000313787
0.000357317
0.000422144
0.000513284
0.000621784
0.00072967
0.000804329
0.000812809
0.000736725
0.000738234
0.000675569
0.00054211
0.000377231
0.000252095
0.000184673
0.000125814
8.73429e-05
9.4857e-05
8.04156e-05
8.61785e-05
0.000228407
0.000428776
0.000584137
0.000514542
0.000577903
0.000628102
0.00110487
0.00174871
0.00121958
0.00117885
0.00130892
0.00126164
0.000203784
0.000157516
0.000133572
0.000263635
0.000224753
0.000239826
0.000263658
0.000294014
0.000629224
0.00114937
0.00148716
0.00154627
0.00133594
0.00126418
0.0011632
0.00091067
0.000600056
0.00031827
0.00018988
3.64024e-05
2.23836e-05
6.01166e-05
0.66287
0.601113
0.495322
0.380808
0.280719
0.203266
0.147021
0.107049
0.0785055
0.0577973
0.0425135
0.0310657
0.0223968
0.0157753
0.0107352
0.00684665
0.00387762
0.0025478
0.00284264
0.00341671
0.00380381
0.00403215
0.00413129
0.00412654
0.00406051
0.00396247
0.00384608
0.00375238
0.00362445
0.00346503
0.00328315
0.00309154
0.00289459
0.00269508
0.00249829
0.00230695
0.00212325
0.00194781
0.00178076
0.00162414
0.00147812
0.00134184
0.00121548
0.00109841
0.000989994
0.000889868
0.000797329
0.000712337
0.00063538
0.000566597
0.00050652
0.000455448
0.00041327
0.00037958
0.000353226
0.000332524
0.000315001
0.000296941
0.000273698
0.000239855
0.000190571
0.00018975
0.000258983
0.000332081
0.000385092
0.000426692
0.000472008
0.000539677
0.000641288
0.00078228
0.000945675
0.00110208
0.0012007
0.00119307
0.0010552
0.00108086
0.00103036
0.000853194
0.000600953
0.000395686
0.000284377
0.000185065
0.000120207
0.000141014
0.000132705
0.000160102
0.0004097
0.000722359
0.000936578
0.000757432
0.000916992
0.0010872
0.00175579
0.00268952
0.00165477
0.00157501
0.0019432
0.00224777
0.000426139
0.000221156
0.000223608
0.000449436
0.000354953
0.000355157
0.000349524
0.000486125
0.00112993
0.00194519
0.00229925
0.00220823
0.00176134
0.00173609
0.00164352
0.00132541
0.000893993
0.000474262
0.000308772
6.4447e-05
4.0021e-05
9.93753e-05
0.639447
0.614182
0.553716
0.469819
0.379819
0.29699
0.227798
0.1732
0.13131
0.0994652
0.0752305
0.0566857
0.0424071
0.0313472
0.0227761
0.0160928
0.0108954
0.00686478
0.00375102
0.00288721
0.00364847
0.0041592
0.00446776
0.0046192
0.00465664
0.00461302
0.00450313
0.00439401
0.00431535
0.00420223
0.00404379
0.00385646
0.00364864
0.00342723
0.0032015
0.00297602
0.00275484
0.0025402
0.00233298
0.00213654
0.00195182
0.00177809
0.00161608
0.00146521
0.00132473
0.00119431
0.001073
0.000960721
0.000858217
0.000765762
0.000684284
0.000614503
0.000556637
0.000510632
0.000475443
0.000449383
0.000429703
0.000411781
0.000389354
0.000354501
0.000299303
0.000291701
0.000371838
0.000466119
0.000532643
0.000585164
0.000645681
0.00074002
0.000882393
0.00107798
0.00130007
0.00150648
0.00162666
0.00159573
0.00138397
0.00143518
0.00142202
0.00121407
0.000869145
0.000568379
0.000400738
0.000249056
0.00015278
0.000191233
0.000198756
0.000260104
0.000642352
0.00108084
0.00134463
0.00101164
0.00130193
0.001644
0.00243085
0.00370934
0.00209162
0.00191497
0.00253823
0.0034666
0.000756493
0.000270118
0.000335584
0.000672549
0.000505487
0.000471234
0.000398093
0.000788378
0.00181267
0.00287948
0.00314898
0.00281293
0.00207801
0.00217864
0.00210895
0.00174361
0.00120331
0.000637647
0.000439989
9.58431e-05
6.2997e-05
0.000145654
0.612354
0.599495
0.568377
0.51624
0.449313
0.377066
0.307744
0.24629
0.19456
0.152392
0.118636
0.0918494
0.0706651
0.0539154
0.0406874
0.0302249
0.0219624
0.0154505
0.010324
0.00633417
0.00392712
0.00366077
0.00429114
0.00469044
0.00491274
0.00499662
0.0049735
0.00486653
0.00477118
0.00470148
0.00461917
0.00448188
0.0042988
0.00408383
0.00385166
0.00360963
0.00336463
0.00312143
0.00288214
0.00265195
0.00243303
0.00222515
0.00202983
0.00184679
0.00167525
0.00151502
0.00136499
0.00122502
0.00109619
0.00097897
0.000874778
0.000784908
0.000710074
0.000650774
0.000606269
0.000575064
0.000554329
0.000538618
0.000519993
0.000487734
0.000430287
0.000411726
0.000497578
0.000613436
0.000693185
0.000756355
0.000832444
0.000954992
0.0011405
0.00139348
0.00167637
0.00193361
0.00207417
0.00201609
0.00172306
0.00179113
0.00184203
0.00162126
0.00118367
0.000773822
0.000535556
0.000318257
0.000186351
0.000245311
0.000279905
0.000388538
0.000925975
0.00149978
0.00179831
0.00126954
0.00172295
0.00228167
0.00306221
0.00477475
0.00253009
0.00225635
0.0030217
0.00486981
0.00120921
0.00029273
0.000476987
0.00093524
0.000673726
0.000580111
0.000412424
0.00121658
0.00267138
0.0039042
0.00397568
0.00331787
0.00227435
0.00258656
0.00254837
0.002152
0.0015208
0.000805184
0.000576543
0.000128428
9.1003e-05
0.000198057
0.58859
0.576833
0.558905
0.52866
0.484905
0.430974
0.372324
0.31406
0.259844
0.211738
0.170487
0.135942
0.107468
0.0842303
0.0654002
0.0502034
0.0379856
0.0281978
0.020378
0.0141787
0.00928038
0.00544646
0.00386677
0.00424735
0.00474639
0.00503745
0.00516818
0.00517309
0.00508715
0.00499842
0.00493707
0.00490233
0.00479343
0.00462308
0.00441475
0.00418009
0.00393015
0.00367325
0.00341341
0.00315829
0.00291194
0.00267499
0.00245019
0.00223778
0.00203717
0.00184845
0.00167042
0.00150296
0.00134752
0.00120486
0.00107699
0.000965927
0.000873044
0.000799593
0.000745331
0.00070915
0.000688311
0.000676647
0.000664517
0.00063819
0.00058204
0.000547618
0.000633317
0.000771233
0.000864098
0.000937643
0.00102921
0.00118045
0.00140985
0.0017211
0.00206531
0.00237356
0.00253447
0.00244854
0.0020716
0.00213699
0.00228006
0.00206978
0.00154557
0.00101548
0.000690759
0.000393278
0.000222006
0.0003029
0.00037741
0.000547928
0.00126015
0.00197393
0.00228628
0.0015217
0.0021715
0.0029807
0.00359107
0.00586455
0.00298247
0.00259919
0.00332747
0.00640177
0.00179234
0.000276852
0.000635067
0.00122192
0.000856397
0.000672924
0.000486531
0.00175068
0.00366038
0.00496561
0.0047239
0.00369736
0.00247696
0.00295896
0.00295662
0.00254275
0.00184298
0.000977374
0.000713883
0.000160256
0.00012328
0.000255921
0.568685
0.55519
0.540859
0.521525
0.493881
0.457271
0.413519
0.3656
0.316608
0.269162
0.225156
0.185721
0.151327
0.121941
0.0972316
0.076693
0.0597749
0.0459404
0.0346916
0.0256137
0.0183263
0.0125204
0.00793197
0.00479298
0.00405802
0.00465452
0.00501965
0.0052036
0.00524901
0.00518878
0.00510031
0.00504742
0.00506553
0.00499245
0.00484847
0.00465331
0.0044238
0.00417333
0.00390869
0.00364087
0.00337661
0.00311793
0.00286924
0.00263172
0.00240517
0.00219024
0.00198577
0.00179168
0.00160995
0.00144167
0.00128957
0.00115654
0.00104477
0.000956452
0.00089205
0.000851014
0.000830874
0.00082485
0.000821603
0.000804267
0.000752821
0.000696933
0.000775913
0.000936364
0.00104231
0.00112585
0.00123226
0.00141154
0.00168399
0.00205259
0.00245719
0.00281609
0.00299842
0.00288704
0.00242823
0.00246018
0.00272396
0.00255275
0.00195478
0.00129656
0.000868543
0.000475234
0.000260765
0.000363891
0.000492527
0.00074066
0.00164411
0.00249682
0.00279588
0.00175732
0.00264088
0.00371691
0.00398106
0.00697349
0.00345998
0.00291278
0.00340575
0.00799955
0.00250661
0.000210024
0.000803379
0.00152385
0.00104948
0.000740028
0.000652359
0.00238842
0.00474742
0.00600702
0.00534945
0.00394527
0.00272584
0.00329555
0.00333183
0.00291116
0.00216711
0.00115599
0.000849879
0.000190216
0.000158971
0.000318758
0.55141
0.536569
0.522284
0.506801
0.487564
0.462789
0.432125
0.396375
0.357038
0.315905
0.274747
0.235107
0.198172
0.16472
0.135148
0.109523
0.0876768
0.0692978
0.0539983
0.0413889
0.0310801
0.0227224
0.0160035
0.0106512
0.0064313
0.00437862
0.0044413
0.00488661
0.00513071
0.00521941
0.00519056
0.00509659
0.00506126
0.00512436
0.00509922
0.0049863
0.00481106
0.00459387
0.00434559
0.0040816
0.00381241
0.0035421
0.00327732
0.00302071
0.00277283
0.00253515
0.00230676
0.00208775
0.00188072
0.00168723
0.00151082
0.00135541
0.00122417
0.00112045
0.0010456
0.000999798
0.000981011
0.00098197
0.000989682
0.000984101
0.000940611
0.000856961
0.000921974
0.00110532
0.00122428
0.00131723
0.00143722
0.00164279
0.00195594
0.0023793
0.00284214
0.00325094
0.00345675
0.003325
0.00279078
0.00274742
0.00315979
0.00306108
0.00240961
0.00161969
0.00107122
0.000565615
0.000303188
0.000428364
0.000636189
0.000979094
0.00207653
0.00306059
0.00331337
0.00196498
0.00312656
0.00446143
0.00423025
0.00810879
0.00396794
0.00319625
0.0032329
0.00959248
0.0033452
0.00013047
0.000973475
0.00183282
0.00124808
0.000771203
0.000871424
0.00312183
0.00589358
0.00697404
0.00582636
0.0040757
0.00295035
0.00359943
0.00367601
0.00325628
0.00249049
0.00134372
0.000985774
0.000217908
0.000197077
0.000386154
0.535871
0.520461
0.505675
0.491041
0.475175
0.456674
0.43465
0.408791
0.379315
0.346871
0.312407
0.277019
0.241834
0.207887
0.176049
0.146953
0.120972
0.0982373
0.078679
0.0621025
0.0482265
0.0367408
0.0273316
0.0197007
0.0135744
0.00870907
0.00516745
0.00412697
0.00465668
0.00496496
0.00510355
0.00510838
0.00501659
0.0050203
0.00509939
0.00512357
0.00504788
0.00489972
0.00469592
0.00445787
0.00420118
0.00393285
0.00366259
0.00339515
0.00313231
0.00287677
0.00262819
0.00238694
0.00215644
0.00193882
0.00173858
0.00156081
0.00140986
0.0012904
0.00120488
0.00115437
0.00113745
0.00114649
0.00116692
0.00117556
0.0011431
0.00104294
0.0010851
0.00127423
0.00140601
0.00150752
0.00163921
0.00186826
0.00221839
0.00269256
0.00321046
0.00366811
0.00390029
0.00375554
0.00315628
0.00298547
0.00357209
0.0035832
0.0029063
0.00198656
0.0013011
0.000666354
0.000349217
0.00049671
0.000801786
0.00125879
0.0025552
0.00365586
0.00382447
0.00213385
0.00362585
0.00519096
0.00438315
0.00927431
0.00450008
0.00345378
0.00333902
0.0111015
0.00437269
0.000222807
0.00113507
0.00214121
0.00144631
0.000756182
0.00115045
0.00393752
0.0070557
0.00781994
0.00614925
0.00411752
0.00315306
0.00387381
0.003992
0.00357907
0.00280841
0.00154229
0.00112642
0.00024392
0.000236653
0.000457711
0.521694
0.506135
0.491087
0.476522
0.461748
0.445968
0.42853
0.408937
0.386884
0.362307
0.335395
0.306555
0.276372
0.245563
0.214919
0.185233
0.157218
0.131436
0.108251
0.0878359
0.0701845
0.0551662
0.042568
0.032134
0.0235945
0.0166859
0.0111621
0.00679858
0.00449696
0.00434302
0.00472401
0.00491367
0.00496063
0.00490307
0.00490972
0.00499654
0.00507642
0.00504556
0.00492377
0.00474102
0.00452003
0.00427187
0.00401032
0.00374314
0.00347398
0.00320731
0.00294373
0.00268413
0.00243296
0.00219312
0.00197017
0.00177059
0.00160004
0.00146476
0.00136847
0.00131331
0.00129864
0.0013166
0.00135121
0.00137622
0.00135771
0.00126396
0.00127296
0.00143891
0.00158311
0.00169201
0.00183294
0.0020817
0.002464
0.00298388
0.00355299
0.00405829
0.00432042
0.00417171
0.0035209
0.00316187
0.00394438
0.00410501
0.00343858
0.00239751
0.00156031
0.000779759
0.0003979
0.000569663
0.000990662
0.00158163
0.00307672
0.00427179
0.00431515
0.00225524
0.00413665
0.0059176
0.00454873
0.010446
0.00503712
0.00369373
0.00403831
0.012438
0.00553401
0.000468455
0.00127647
0.00244189
0.00163717
0.000693203
0.00149349
0.00481798
0.00818935
0.00851063
0.00633283
0.00410703
0.00333826
0.0041234
0.00428329
0.00388272
0.00311503
0.00175232
0.00128012
0.000269832
0.000276746
0.000532968
0.508706
0.493151
0.478054
0.46351
0.449111
0.434419
0.419093
0.402815
0.385269
0.366197
0.345435
0.322938
0.298784
0.273197
0.246546
0.219343
0.192208
0.165803
0.140754
0.117586
0.0966638
0.0781808
0.0621704
0.0485413
0.0371181
0.0276779
0.0199795
0.0137809
0.00885397
0.00516291
0.00396126
0.00441505
0.00466455
0.00476142
0.00473568
0.00474119
0.00482642
0.00497016
0.00498176
0.00489379
0.00473955
0.00453582
0.00430191
0.00404982
0.0037859
0.00351715
0.00324562
0.00297306
0.00270526
0.00244607
0.00220233
0.00198209
0.00179251
0.00164162
0.00153461
0.00147488
0.00146271
0.00149022
0.00154015
0.00158343
0.00158157
0.00149784
0.0014636
0.00159486
0.00175084
0.00186567
0.00201286
0.00227683
0.00268563
0.00324535
0.00386143
0.00441318
0.00470932
0.00456684
0.00388034
0.00326611
0.00426005
0.00461006
0.00399735
0.00285105
0.00185057
0.000908459
0.000447226
0.000648343
0.00120432
0.00194928
0.00363631
0.00489634
0.0047727
0.00232412
0.00465526
0.00657736
0.00476021
0.0115491
0.00555216
0.00392884
0.00492245
0.0135096
0.00676459
0.000810595
0.00140477
0.00272788
0.00181255
0.000733659
0.00203195
0.00586413
0.00925228
0.00902806
0.00640651
0.00407767
0.00350936
0.00435242
0.00455242
0.00417083
0.00340419
0.00197296
0.00145678
0.000298303
0.000316403
0.000611398
0.496767
0.481272
0.466227
0.451761
0.437581
0.423403
0.409055
0.39439
0.379227
0.36337
0.346629
0.32883
0.309826
0.289521
0.2679
0.245071
0.221286
0.196947
0.172575
0.148758
0.12608
0.105043
0.0860135
0.0691955
0.0546405
0.0422773
0.0319505
0.0234554
0.0165664
0.0110595
0.00671593
0.00433171
0.00404951
0.00436901
0.00451229
0.00452836
0.00452464
0.00460213
0.00480567
0.00486679
0.00482107
0.00469434
0.00451342
0.00429623
0.00405299
0.00379424
0.00352425
0.00324603
0.00296716
0.00269276
0.00243109
0.00219207
0.00198458
0.00181864
0.00170117
0.00163698
0.0016275
0.00166497
0.00173111
0.00179425
0.0018116
0.0017415
0.00165321
0.0017374
0.00190427
0.00202331
0.00217344
0.00244755
0.00287665
0.00346991
0.00412863
0.00472578
0.00506037
0.00493485
0.00422951
0.00328991
0.00450329
0.00508001
0.00457051
0.00334348
0.00217291
0.0010553
0.000494001
0.000734262
0.00144423
0.00236254
0.00422766
0.00551672
0.00518703
0.00234009
0.00517404
0.0071535
0.00505766
0.0124585
0.00602494
0.00418551
0.00572329
0.0142383
0.00801988
0.00129158
0.00154959
0.00299175
0.00196325
0.000909846
0.00266558
0.00695853
0.0102064
0.00937071
0.00640683
0.00405393
0.00366889
0.00456589
0.00480125
0.0044458
0.00367061
0.00220155
0.00166447
0.000332975
0.000354528
0.000692432
0.485763
0.470356
0.455401
0.441043
0.427051
0.413205
0.399403
0.385578
0.371646
0.357504
0.343041
0.328132
0.312631
0.296368
0.279171
0.260894
0.241467
0.220933
0.199479
0.177439
0.155282
0.133558
0.112827
0.0935809
0.0761834
0.0608399
0.0476062
0.0364166
0.0271223
0.0195284
0.0134165
0.00857079
0.00489974
0.00363985
0.00402543
0.00422644
0.00429031
0.0042644
0.00437707
0.00459357
0.00471241
0.00470698
0.0046133
0.00445764
0.00425583
0.00402325
0.00376751
0.00349344
0.00321106
0.00292711
0.00265161
0.00239662
0.00217299
0.00199302
0.00186562
0.00179718
0.00179049
0.00183817
0.00192116
0.00200555
0.00204452
0.0019917
0.0018378
0.00186173
0.00203841
0.00215979
0.00230935
0.00258823
0.00303117
0.00365154
0.00434876
0.00499056
0.0053683
0.00527049
0.00456404
0.00330289
0.0046606
0.00549555
0.00514308
0.00386845
0.00252739
0.00122318
0.000533839
0.000829337
0.00171161
0.002821
0.00484314
0.00612003
0.00555175
0.00230757
0.00568031
0.00763365
0.00543957
0.0130365
0.00646481
0.00451574
0.00636727
0.0145864
0.00925178
0.00185903
0.00165902
0.00322515
0.0020793
0.00112347
0.00337015
0.0080554
0.0110201
0.00955504
0.00636893
0.00404739
0.00381532
0.00476842
0.00503081
0.00470673
0.00390973
0.00243202
0.00190555
0.00037837
0.000389752
0.000775531
0.475598
0.460293
0.445445
0.431201
0.417378
0.403792
0.390366
0.377065
0.363845
0.350651
0.33743
0.324129
0.310676
0.296961
0.282834
0.268109
0.252586
0.236094
0.218531
0.1999
0.180349
0.160178
0.13983
0.119838
0.10075
0.0830526
0.0671013
0.0530954
0.0410829
0.0309942
0.0226778
0.0159387
0.0105686
0.00635205
0.00399243
0.00364417
0.00391252
0.0040203
0.00401841
0.00414078
0.0043444
0.00451805
0.00455894
0.00450112
0.00436875
0.00418417
0.00395976
0.00370307
0.00342738
0.00314164
0.00285797
0.002591
0.00235387
0.00216146
0.00202498
0.00195266
0.00194887
0.00200688
0.00210717
0.00221401
0.0022769
0.00224501
0.00207758
0.00202394
0.00214841
0.00227029
0.00241573
0.00269395
0.00314431
0.00378546
0.00451738
0.00520342
0.0056292
0.0055696
0.00487891
0.00346791
0.00472244
0.0058375
0.00569754
0.00441708
0.00291282
0.00141493
0.000561281
0.000935817
0.0020068
0.00332199
0.00547313
0.0066939
0.00586408
0.00237073
0.00615739
0.00801069
0.00587309
0.0132112
0.00693372
0.00498906
0.00682394
0.0145725
0.0104152
0.00249905
0.00172469
0.0034185
0.00215027
0.00137492
0.00413097
0.00912318
0.011672
0.0096114
0.0063209
0.00405883
0.00394341
0.00496406
0.00524274
0.00495042
0.00411857
0.00265393
0.00217437
0.0004399
0.000420255
0.000860243
0.466191
0.450993
0.436256
0.422125
0.408453
0.395081
0.381947
0.369025
0.356287
0.343693
0.331213
0.318825
0.30651
0.294231
0.281916
0.269448
0.256664
0.243361
0.229328
0.214378
0.198385
0.181333
0.163348
0.144719
0.125879
0.107353
0.0896885
0.0733635
0.0587237
0.0459535
0.0350852
0.0260346
0.0186458
0.0127174
0.00804266
0.00449053
0.00323377
0.00356413
0.00373029
0.00377677
0.00387525
0.00405452
0.00428987
0.00438099
0.00435678
0.00425013
0.00408033
0.00385898
0.00360384
0.00332686
0.00304279
0.0027694
0.00252252
0.00232005
0.00217582
0.0021002
0.00209947
0.00216783
0.00228574
0.00241613
0.00250519
0.0024979
0.00234771
0.00219964
0.00222983
0.00235048
0.00248843
0.00276069
0.00321224
0.00386808
0.00463128
0.00536158
0.00584032
0.00582886
0.00517077
0.0037473
0.00468276
0.00608827
0.00621412
0.00497777
0.00332638
0.00163293
0.000570064
0.0010564
0.00232947
0.00386115
0.00610684
0.00722791
0.00612536
0.00257938
0.00658792
0.00828417
0.00632116
0.0130526
0.00753276
0.00564024
0.00710622
0.0142606
0.0114731
0.00319358
0.00174072
0.00356131
0.00216584
0.00166284
0.00493074
0.0101318
0.0121518
0.00957589
0.00628105
0.00408136
0.00404448
0.0051547
0.00544051
0.0051751
0.00429883
0.00285428
0.00245866
0.000524289
0.000443669
0.000946211
0.457469
0.442378
0.427753
0.413732
0.400194
0.387004
0.374104
0.361478
0.349101
0.336941
0.324968
0.313169
0.301538
0.290074
0.27876
0.267557
0.256384
0.245111
0.233565
0.221537
0.208806
0.195173
0.1805
0.164763
0.148085
0.130749
0.113189
0.0959341
0.0795302
0.0644498
0.0510229
0.0394106
0.0296235
0.021557
0.0150417
0.00987963
0.00585492
0.0035739
0.00319109
0.0034246
0.00351182
0.00358459
0.00372985
0.00403249
0.00417136
0.00418413
0.00410109
0.00393973
0.00372413
0.00347041
0.00319668
0.00292461
0.00267328
0.00246412
0.00231411
0.00223613
0.00223874
0.00231748
0.00245324
0.00260819
0.00272566
0.00274672
0.00261888
0.00236092
0.00227891
0.00239681
0.00252421
0.00278547
0.00323228
0.00389696
0.00468827
0.00546317
0.00599975
0.00604587
0.00543606
0.00402033
0.00454091
0.00623313
0.00667186
0.00553625
0.00376338
0.00187914
0.000575259
0.00119378
0.00267853
0.00443223
0.00673296
0.00771457
0.00634076
0.00282206
0.00695773
0.0084616
0.00682319
0.0128196
0.00831607
0.00640089
0.00726054
0.0137291
0.0123979
0.0039219
0.00170376
0.00364289
0.00211645
0.00198414
0.0057506
0.0110543
0.0124608
0.00948543
0.00625928
0.00410617
0.00411032
0.0053393
0.00563003
0.00538373
0.00445962
0.0030226
0.00274471
0.000639916
0.000457086
0.0010331
0.44937
0.434383
0.419868
0.405952
0.392535
0.3795
0.366795
0.354406
0.342313
0.330487
0.3189
0.307532
0.296377
0.285438
0.274719
0.264218
0.253916
0.243763
0.233668
0.223494
0.213062
0.202158
0.190552
0.178038
0.16448
0.149851
0.134275
0.118042
0.10159
0.0854597
0.0701979
0.0562688
0.0439813
0.0334662
0.0247025
0.0175686
0.0118753
0.00741956
0.00402653
0.00279932
0.00309071
0.00323366
0.00326904
0.00347213
0.00374405
0.00393339
0.00398252
0.00391566
0.00376601
0.00355569
0.00330724
0.00304732
0.00279901
0.00258802
0.00243512
0.00235621
0.00236268
0.00245187
0.00260568
0.00278617
0.00293431
0.00298756
0.0028873
0.00261972
0.00240235
0.00240666
0.00252086
0.00276638
0.00320276
0.00387059
0.00468682
0.00550682
0.00610595
0.00621847
0.00567164
0.00428173
0.0043001
0.00626176
0.00704971
0.00607593
0.00421682
0.00215418
0.000662148
0.0013514
0.00305219
0.00502711
0.00734014
0.00814937
0.00651814
0.00306211
0.00725853
0.00855833
0.00741015
0.0127446
0.00919305
0.0071097
0.00735838
0.0130381
0.0131715
0.00466197
0.00161213
0.00365343
0.00199395
0.00238075
0.00661301
0.0118674
0.0126109
0.00937327
0.0062599
0.0041262
0.00413636
0.00551337
0.00581763
0.00558243
0.00461453
0.00315547
0.00302377
0.00079561
0.000457276
0.00112051
0.441841
0.426954
0.412544
0.398726
0.385419
0.37252
0.35998
0.347786
0.335922
0.324362
0.313078
0.302049
0.291263
0.280715
0.27041
0.260354
0.250552
0.240998
0.231664
0.222493
0.213386
0.204205
0.194761
0.184834
0.174194
0.162637
0.150027
0.136341
0.121709
0.10643
0.0909588
0.0758436
0.0616377
0.0487923
0.0375861
0.0281159
0.0203243
0.014063
0.00914047
0.00533815
0.00314994
0.00273895
0.00294576
0.00302045
0.00319548
0.00342382
0.00366669
0.00374401
0.00369783
0.00355945
0.00335745
0.00312506
0.00289047
0.00268465
0.00253309
0.00245544
0.00246667
0.00256652
0.00273858
0.00294561
0.00312674
0.00321615
0.00314887
0.00290508
0.00253447
0.0023785
0.00247722
0.00270254
0.00312292
0.00378814
0.00462573
0.00549111
0.00615732
0.00634464
0.0058746
0.00452694
0.00396733
0.00616896
0.00732798
0.00657847
0.00467687
0.00245776
0.000839096
0.00153223
0.00344774
0.00563612
0.00791755
0.00853099
0.00666694
0.00329199
0.00748784
0.00859585
0.00796458
0.0127684
0.0099617
0.00762311
0.00747085
0.0122099
0.0137819
0.00539031
0.00146625
0.00358506
0.00179266
0.00291644
0.00755764
0.0125532
0.0126236
0.00926643
0.00628481
0.00413894
0.00412462
0.00566924
0.00600678
0.00577581
0.00477318
0.00325739
0.00329442
0.000995726
0.000440439
0.00120776
0.434835
0.420041
0.405732
0.392007
0.378799
0.366018
0.35362
0.34159
0.329915
0.318571
0.307532
0.296775
0.286285
0.276053
0.266075
0.256353
0.246895
0.237706
0.228788
0.22013
0.211695
0.203422
0.19521
0.18691
0.178331
0.169253
0.159446
0.14871
0.136913
0.12404
0.110228
0.0957924
0.0812028
0.0670245
0.0538114
0.0419981
0.0318269
0.0233492
0.0164779
0.0110341
0.00681467
0.00361089
0.00240497
0.00263561
0.0027663
0.00290034
0.00307334
0.00336128
0.0034732
0.00344799
0.00332295
0.00314033
0.002935
0.00274462
0.0026007
0.00252768
0.00254522
0.00265619
0.00284677
0.00308136
0.00329787
0.00342758
0.00339891
0.00318532
0.00280209
0.00246029
0.00239319
0.00259395
0.0029926
0.00364912
0.00450386
0.005414
0.00615186
0.00642211
0.006042
0.00475176
0.00355135
0.00595516
0.00748981
0.00702503
0.0051318
0.00278707
0.00105501
0.00173919
0.00386177
0.00624839
0.00845538
0.00886114
0.006797
0.00350364
0.00764604
0.00859369
0.00847356
0.012801
0.0104717
0.00790828
0.00763281
0.0112261
0.0142209
0.00608125
0.00126799
0.00343202
0.00151015
0.00348231
0.00846537
0.0130978
0.0125258
0.00918397
0.00633461
0.00414539
0.00408323
0.00579722
0.00619592
0.00596438
0.00493581
0.00333964
0.00355766
0.00123246
0.000409052
0.00129397
0.428308
0.413603
0.399387
0.38575
0.372633
0.359958
0.347682
0.335793
0.324275
0.313109
0.30227
0.291736
0.281488
0.271515
0.261808
0.252362
0.243179
0.234264
0.225623
0.21726
0.209172
0.20134
0.193728
0.186268
0.178852
0.171328
0.163505
0.155164
0.146079
0.136055
0.124965
0.112801
0.0997139
0.0860356
0.0722565
0.058957
0.0466908
0.0358665
0.0266871
0.0191544
0.0131421
0.00845964
0.00488099
0.00276416
0.00231133
0.00250344
0.00258145
0.00280911
0.00302355
0.00317034
0.00316735
0.00306733
0.00291436
0.00275483
0.00262817
0.00256506
0.00259148
0.00271456
0.00292406
0.00318731
0.00344166
0.00361602
0.00363194
0.00345537
0.00309409
0.00263769
0.00235318
0.00244131
0.00281202
0.00345312
0.00431988
0.00527256
0.0060871
0.00644831
0.00617046
0.00495264
0.00329639
0.00562591
0.00752226
0.00739601
0.00556885
0.00313783
0.0013111
0.00197435
0.00429009
0.00685228
0.00894541
0.00914413
0.00691744
0.00368807
0.00773685
0.00856592
0.00892647
0.0128102
0.0107787
0.0080317
0.00784683
0.0100562
0.0144809
0.00671782
0.00110403
0.00319223
0.00114523
0.00406562
0.0093146
0.0134943
0.0123484
0.00913699
0.00640811
0.00414801
0.00402446
0.00588796
0.00637895
0.00614628
0.00509712
0.00341886
0.00380832
0.00148098
0.000443035
0.00137773
0.422223
0.4076
0.393473
0.379917
0.366884
0.354303
0.342136
0.330367
0.318984
0.307968
0.297294
0.286943
0.276895
0.267137
0.257655
0.248443
0.239495
0.23081
0.222393
0.214247
0.206377
0.198784
0.19146
0.184384
0.177516
0.170782
0.164069
0.157227
0.150065
0.142368
0.133914
0.124513
0.114044
0.102509
0.0900753
0.0770915
0.0640704
0.0516059
0.0402493
0.0303787
0.0221453
0.0155083
0.0102965
0.00629972
0.00330011
0.00209088
0.00222344
0.00235918
0.00252525
0.00266349
0.0028344
0.0028663
0.0028009
0.0026959
0.00260156
0.00255692
0.00259656
0.00273368
0.00296285
0.00325597
0.00355071
0.00377434
0.00384133
0.00370931
0.00337679
0.0029299
0.00249307
0.00232941
0.00258184
0.00319965
0.00407215
0.00506366
0.00596002
0.00642046
0.00625643
0.00512768
0.00338093
0.00519166
0.00741804
0.00767155
0.00597308
0.00350307
0.00160665
0.00223885
0.00472788
0.00743582
0.00938104
0.009386
0.00703608
0.00383539
0.00776327
0.00851923
0.00931646
0.0130352
0.0112143
0.00808619
0.00810369
0.00869373
0.0145413
0.0072829
0.00128706
0.0028652
0.000699587
0.00465496
0.0100866
0.0137395
0.0121196
0.00912797
0.00650077
0.00414862
0.00396151
0.00593534
0.0065474
0.00631896
0.0052554
0.00351642
0.00403133
0.00170678
0.000553006
0.00145785
0.416545
0.402
0.387956
0.374476
0.361519
0.349023
0.336952
0.325289
0.314022
0.303132
0.292598
0.282399
0.272517
0.262937
0.253646
0.244631
0.235884
0.227401
0.219179
0.21122
0.203526
0.196101
0.188947
0.182061
0.175435
0.169044
0.162842
0.15675
0.150658
0.144415
0.137834
0.130703
0.122806
0.113956
0.104043
0.0930787
0.0812442
0.0689081
0.0566044
0.0449417
0.0344614
0.0255097
0.0181799
0.0123762
0.0079027
0.00452683
0.0024436
0.00193176
0.0021275
0.00222851
0.00240286
0.00247573
0.00255084
0.00253774
0.00250006
0.00248809
0.00254835
0.00270328
0.00295359
0.00327803
0.00361588
0.00389375
0.00401892
0.00393997
0.00364409
0.00321208
0.00276928
0.00249242
0.00248384
0.0029105
0.00375899
0.00478462
0.00576651
0.00633567
0.00629671
0.00527604
0.00359727
0.00466487
0.00717547
0.00783401
0.00632798
0.0038733
0.00193836
0.00253227
0.00516989
0.00798745
0.00975819