/*--------------------------------*- C++ -*----------------------------------*\
| =========                 |                                                 |
| \\      /  F ield         | OpenFOAM: The Open Source CFD Toolbox           |
|  \\    /   O peration     | Version:  2412                                  |
|   \\  /    A nd           | Website:  www.openfoam.com                      |
|    \\/     M anipulation  |                                                 |
\*---------------------------------------------------------------------------*/
FoamFile
{
    version     2.0;
    format      ascii;
    arch        "LSB;label=32;scalar=64";
    class       volVectorField;
    location    "0.93";
    object      U;
}
// * * * * * * * * * * * * * * * * * * * * * * * * * * * * * * * * * * * * * //

dimensions      [0 1 -1 0 0 0 0];

internalField   nonuniform List<vector> 
12600
(
(18.9603 0 -0.586724)
(7.63357 -3.62282e-20 -1.57451)
(3.20116 -1.61733e-20 -1.62566)
(1.61288 0 -1.1898)
(1.00679 -2.25101e-22 -0.786506)
(0.683275 0 -0.528009)
(0.466807 -3.07096e-20 -0.363464)
(0.310853 0 -0.250811)
(0.195208 0 -0.16907)
(0.107941 0 -0.107907)
(0.0404968 0 -0.0621717)
(-0.011886 -9.63626e-20 -0.0267592)
(-0.0524977 -9.83545e-20 0.00109652)
(-0.0841947 0 0.0232039)
(-0.108692 1.99224e-19 0.039815)
(-0.126913 0 0.0533111)
(-0.141016 2.65401e-22 0.0637233)
(-0.15099 0 0.0715013)
(-0.157846 9.60038e-20 0.0773485)
(-0.162138 0 0.0814476)
(-0.164532 0 0.084006)
(-0.16511 0 0.085301)
(-0.163686 3.52678e-19 0.0858066)
(-0.161191 -3.42711e-19 0.085744)
(-0.158022 -1.35782e-22 0.085082)
(-0.154217 1.60596e-19 0.0833682)
(-0.149643 0 0.0812087)
(-0.14435 0 0.0791202)
(-0.138882 0 0.0766232)
(-0.133409 -2.8244e-19 0.0737864)
(-0.127648 -5.45337e-19 0.0708977)
(-0.12174 0 0.0679309)
(-0.115902 0 0.0648589)
(-0.110137 -2.43781e-19 0.0617637)
(-0.104385 -2.34639e-19 0.0586867)
(-0.0987147 0 0.0556385)
(-0.0932104 0 0.0526369)
(-0.0878395 -4.16544e-19 0.049669)
(-0.0826156 0 0.0467682)
(-0.0775753 5.89662e-23 0.043967)
(-0.0727031 -3.68337e-19 0.0412512)
(-0.0680046 -3.53317e-19 0.0386245)
(-0.0634696 0 0.0360835)
(-0.0590801 -3.24604e-19 0.0336223)
(-0.0548556 -3.10904e-19 0.0312517)
(-0.050806 5.95427e-19 0.0289775)
(-0.0469558 -5.69991e-19 0.026816)
(-0.0433766 0 0.0248085)
(-0.0401307 5.21625e-19 0.0229893)
(-0.037285 -4.98733e-19 0.0213964)
(-0.0349017 0 0.0200641)
(-0.0329935 -3.17115e-24 0.0189998)
(-0.0315344 4.35066e-19 0.0181949)
(-0.0304355 0 0.0175805)
(-0.0295087 -7.93237e-19 0.0170508)
(-0.0284645 0 0.0164485)
(-0.0268754 0 0.0155312)
(-0.0242072 2.62249e-24 0.0139985)
(-0.019883 2.4687e-24 0.0115292)
(-0.0134106 6.26217e-19 0.0078486)
(-0.00461961 -5.96396e-19 0.00285782)
(0.00617709 1.135e-18 -0.00326777)
(0.0181031 0 -0.0100528)
(0.0299059 1.02471e-18 -0.0167959)
(0.0404747 9.72547e-19 -0.0228774)
(0.0493168 -1.84522e-18 -0.0280131)
(0.0571615 8.75209e-19 -0.0326044)
(0.0657993 0 -0.0376582)
(0.0779451 0 -0.044707)
(0.0960246 0 -0.0550729)
(0.121974 0 -0.0698049)
(0.154004 0 -0.0879114)
(0.188299 -1.25732e-18 -0.107322)
(0.214704 1.17743e-18 -0.122432)
(0.224831 0 -0.128149)
(0.209544 0 -0.11958)
(0.172968 9.68814e-19 -0.0987762)
(0.127437 7.77364e-23 -0.0729083)
(0.0896776 1.73232e-18 -0.0512758)
(0.0699699 0 -0.0396987)
(0.0568977 0 -0.0319111)
(0.040388 0 -0.0224742)
(0.0390899 1.67023e-22 -0.0217963)
(0.0397016 0 -0.0221643)
(0.0208455 0 -0.0112535)
(0.00992742 1.10262e-18 -0.00461448)
(-0.0219015 2.6748e-22 0.0143255)
(-0.100797 0 0.0597935)
(-0.188775 0 0.109851)
(-0.285606 -1.68423e-18 0.163725)
(-0.215702 -1.6361e-18 0.123205)
(-0.075682 -1.50236e-18 0.0447577)
(0.275392 -1.40693e-18 -0.153382)
(0.765414 3.21645e-21 -0.424846)
(1.12901 3.59488e-21 -0.635493)
(0.699388 4.79822e-19 -0.395244)
(0.941355 0 -0.536561)
(0.0560899 0 -0.0394181)
(-0.212653 0 0.117764)
(-0.0591014 1.62069e-18 0.0336855)
(-0.107275 -8.04494e-19 0.059494)
(0.0636344 8.09505e-19 -0.0380387)
(0.176614 7.19036e-19 -0.100797)
(0.16256 0 -0.0941725)
(0.258376 0 -0.147044)
(0.28166 0 -0.156419)
(0.0428982 6.76427e-19 -0.0127677)
(-0.495509 0 0.297741)
(-1.13356 -1.54505e-19 0.654519)
(-1.65257 0 0.940565)
(-1.90953 0 1.08409)
(-1.85396 1.31442e-18 1.04792)
(-1.53343 0 0.861043)
(-1.08965 0 0.608888)
(-0.624956 0 0.346098)
(-0.353291 -4.59856e-18 0.194218)
(-0.115317 0 0.0614824)
(0.0827175 4.19529e-18 -0.0484537)
(-0.0358568 0 0.0196222)
(0.0799115 -1.50852e-22 -0.0452666)
(30.371 -1.53e-20 -0.887396)
(21.0714 2.07379e-20 -3.29646)
(13.276 1.3083e-20 -4.17061)
(8.36612 0 -3.59808)
(5.54537 -1.30825e-20 -2.69799)
(3.84623 2.33525e-20 -1.96425)
(2.74507 3.20353e-20 -1.43035)
(1.97869 -3.7143e-20 -1.04057)
(1.4177 0 -0.748461)
(0.993703 0 -0.524501)
(0.666291 0 -0.35088)
(0.410386 0 -0.214003)
(0.20846 0 -0.105021)
(0.0472231 0 -0.017664)
(-0.0796143 -7.15899e-22 0.0526556)
(-0.179905 0 0.107594)
(-0.260168 1.0254e-19 0.151389)
(-0.3221 0 0.18567)
(-0.369711 -1.99445e-19 0.212292)
(-0.405355 1.95154e-19 0.232081)
(-0.43115 0 0.246309)
(-0.448399 1.87089e-19 0.255999)
(-0.458246 -1.83124e-19 0.261273)
(-0.462912 1.77795e-19 0.263263)
(-0.462983 -1.71755e-19 0.263214)
(-0.458881 0 0.26076)
(-0.451484 1.62036e-19 0.255946)
(-0.441137 0 0.250491)
(-0.42909 0 0.243669)
(-0.415697 0 0.235825)
(-0.400898 2.81962e-19 0.227522)
(-0.385176 0 0.218734)
(-0.368958 0 0.209524)
(-0.352443 0 0.200161)
(-0.335696 0 0.190726)
(-0.318913 0 0.181271)
(-0.302329 0 0.171884)
(-0.285929 4.28572e-19 0.162581)
(-0.269825 0 0.153461)
(-0.25416 7.88576e-19 0.144588)
(-0.238903 7.55854e-19 0.135931)
(-0.224094 3.62116e-19 0.127527)
(-0.209739 0 0.119373)
(-0.195792 0 0.11145)
(-0.182315 6.35532e-19 0.103795)
(-0.169355 -6.07969e-19 0.0964377)
(-0.157004 5.81305e-19 0.0894405)
(-0.145492 0 0.0829405)
(-0.135026 -5.30823e-19 0.0770507)
(-0.125824 0 0.0718979)
(-0.118092 0 0.0675925)
(-0.111879 -4.61916e-19 0.0641567)
(-0.107114 0 0.0615382)
(-0.103495 0 0.0595209)
(-0.100404 8.01449e-19 0.0577521)
(-0.0969117 0 0.0556913)
(-0.091647 0 0.052533)
(-0.0828942 4.44784e-24 0.0472869)
(-0.068808 6.60362e-19 0.0389057)
(-0.0478079 -7.83154e-25 0.0265176)
(-0.0193076 0 0.00983829)
(0.0157722 -1.13596e-18 -0.0105242)
(0.0547577 -1.07837e-18 -0.033009)
(0.0937557 0 -0.0553611)
(0.129294 -1.93839e-18 -0.0756399)
(0.159745 -7.42652e-23 -0.0930192)
(0.187328 0 -0.108892)
(0.217481 8.23961e-19 -0.126514)
(0.258659 0 -0.15077)
(0.318089 0 -0.185755)
(0.401748 0 -0.234622)
(0.503944 0 -0.293862)
(0.613442 2.47642e-18 -0.356657)
(0.69932 -1.15832e-18 -0.405048)
(0.735078 0 -0.42379)
(0.691716 0 -0.39576)
(0.577927 9.48624e-19 -0.328492)
(0.430226 1.39659e-22 -0.243475)
(0.301216 1.11322e-22 -0.170604)
(0.226961 0 -0.129103)
(0.177067 0 -0.10057)
(0.121951 0 -0.0693551)
(0.11812 2.518e-22 -0.0682592)
(0.121508 -1.21962e-18 -0.0691614)
(0.0578154 1.14209e-18 -0.0319615)
(0.0152636 -1.06536e-18 -0.00681048)
(-0.0959583 4.27218e-22 0.0604293)
(-0.354992 -9.18396e-19 0.212532)
(-0.641009 0 0.37741)
(-0.942179 1.61884e-18 0.545243)
(-0.726839 0 0.409733)
(-0.287016 1.44049e-18 0.149176)
(0.809326 0 -0.495786)
(2.19314 -2.20053e-18 -1.29823)
(3.46526 -6.50919e-19 -1.99799)
(2.15437 0 -1.23974)
(3.10117 0 -1.76473)
(0.363808 -5.95555e-19 -0.170933)
(-0.596203 8.56313e-19 0.348562)
(-0.196271 -1.5404e-18 0.110287)
(-0.310832 7.64057e-19 0.175455)
(0.218601 -7.68128e-19 -0.136352)
(0.573594 0 -0.333685)
(0.550154 6.38137e-19 -0.319844)
(0.812843 0 -0.473335)
(0.780156 0 -0.445273)
(-0.112808 -6.48666e-19 0.0872378)
(-1.8723 0 1.11619)
(-3.79373 -2.40441e-22 2.22212)
(-5.21386 2.76707e-19 3.03513)
(-5.81183 0 3.36814)
(-5.50103 0 3.17504)
(-4.47026 0 2.56629)
(-3.13551 2.00327e-18 1.79036)
(-1.74775 -4.32955e-18 0.991147)
(-0.937633 4.32307e-18 0.531133)
(-0.290527 0 0.155889)
(0.294515 -3.94043e-18 -0.171705)
(-0.0855263 0 0.0499847)
(0.249037 6.93601e-18 -0.146795)
(33.9843 3.25535e-20 -0.716527)
(29.3817 -8.68257e-21 -2.84843)
(22.83 -4.2345e-21 -4.54561)
(16.6891 0 -4.90019)
(11.973 -1.5236e-20 -4.36825)
(8.6684 5.72159e-22 -3.55862)
(6.37838 0 -2.79057)
(4.74401 3.52546e-20 -2.15113)
(3.53652 0 -1.6371)
(2.61926 4.23733e-20 -1.22555)
(1.90808 0 -0.894558)
(1.34804 0 -0.627246)
(0.902337 0 -0.41037)
(0.544406 0 -0.233847)
(0.258263 -9.76726e-20 -0.0878488)
(0.0270989 0 0.0279855)
(-0.158956 0 0.122636)
(-0.30705 0 0.198448)
(-0.424628 9.44579e-20 0.259039)
(-0.516567 -5.46847e-22 0.306063)
(-0.586821 0 0.342306)
(-0.639012 -3.01745e-22 0.369701)
(-0.675777 0 0.388523)
(-0.700406 -1.67656e-19 0.400268)
(-0.714736 0 0.406637)
(-0.720134 0 0.408419)
(-0.71838 -1.53697e-19 0.405473)
(-0.710178 0 0.400249)
(-0.697637 0 0.392186)
(-0.681262 -2.76767e-19 0.382301)
(-0.661623 0 0.371121)
(-0.639655 0 0.358644)
(-0.615979 0 0.345194)
(-0.591095 0 0.331233)
(-0.565338 2.29047e-19 0.316866)
(-0.539079 0 0.30222)
(-0.512729 0 0.287491)
(-0.48635 -4.05779e-19 0.272772)
(-0.460197 0 0.25824)
(-0.434572 -7.46628e-19 0.243975)
(-0.409455 -6.23783e-23 0.229953)
(-0.384937 -3.42833e-19 0.216265)
(-0.361066 0 0.202924)
(-0.337793 0 0.189908)
(-0.315231 -3.0068e-19 0.177288)
(-0.293477 0 0.165129)
(-0.27269 -5.4989e-19 0.153557)
(-0.253268 0 0.142807)
(-0.235567 2.15387e-23 0.133072)
(-0.219964 0 0.124568)
(-0.206813 0 0.117474)
(-0.196213 0 0.11182)
(-0.188052 -4.16382e-19 0.107493)
(-0.181815 0 0.104119)
(-0.176456 0 0.101077)
(-0.170416 0 0.0974234)
(-0.161386 0 0.0917785)
(-0.146481 1.30915e-18 0.0824708)
(-0.122597 0 0.0677619)
(-0.0870595 9.06862e-25 0.0462505)
(-0.038815 0 0.0175411)
(0.0207055 5.3565e-19 -0.0172834)
(0.0871875 1.01675e-18 -0.0556003)
(0.154232 0 -0.093718)
(0.216083 1.82691e-18 -0.128552)
(0.269891 8.65068e-19 -0.158899)
(0.319178 0 -0.187228)
(0.37266 -7.75969e-19 -0.218932)
(0.444215 0 -0.261975)
(0.545378 0 -0.322725)
(0.686084 0 -0.405907)
(0.85703 0 -0.505231)
(1.04075 2.78866e-22 -0.609369)
(1.18733 1.0893e-18 -0.689144)
(1.25299 0 -0.720646)
(1.18887 0 -0.674059)
(1.00348 1.93009e-22 -0.562194)
(0.753567 -1.68097e-18 -0.418451)
(0.526122 -7.941e-19 -0.2919)
(0.386535 0 -0.215284)
(0.292316 0 -0.161731)
(0.196688 0 -0.10901)
(0.190689 -2.45063e-18 -0.10955)
(0.199079 -2.09796e-22 -0.11069)
(0.0888981 -1.07137e-18 -0.0451645)
(0.0077344 0 0.0041556)
(-0.19101 -9.28647e-19 0.12887)
(-0.634868 8.60995e-19 0.392359)
(-1.12108 0 0.671717)
(-1.61505 0 0.934771)
(-1.26393 1.47086e-18 0.698116)
(-0.538693 0 0.253274)
(1.27137 1.26469e-18 -0.823305)
(3.30195 -3.95926e-21 -1.98881)
(5.6399 6.18324e-19 -3.23418)
(3.4589 -4.34936e-19 -1.97411)
(5.30017 0 -2.97776)
(0.877685 5.57339e-19 -0.378457)
(-0.883077 -8.01253e-19 0.520551)
(-0.337149 1.4409e-18 0.184937)
(-0.477369 0 0.257138)
(0.381557 -7.17902e-19 -0.253371)
(0.973553 0 -0.569951)
(0.955825 -5.96704e-19 -0.558896)
(1.33823 5.63383e-19 -0.777895)
(1.14898 0 -0.623012)
(-0.502547 6.06338e-19 0.391958)
(-3.4824 0 2.14287)
(-6.5336 2.72983e-19 3.87197)
(-8.59968 -2.58574e-19 5.00719)
(-9.31367 0 5.35707)
(-8.6435 0 4.91551)
(-6.93869 0 3.89523)
(-4.82911 -4.59056e-21 2.67529)
(-2.64351 4.04415e-18 1.43674)
(-1.35151 -4.02997e-18 0.724749)
(-0.396031 0 0.184126)
(0.529294 -3.67951e-18 -0.311724)
(-0.10779 0 0.061917)
(0.417877 1.82378e-22 -0.248965)
(34.6271 -1.70934e-20 -0.887095)
(33.2869 -4.88546e-21 -2.15898)
(29.43 7.37907e-21 -3.94108)
(24.298 -1.50517e-20 -5.06671)
(19.179 -2.11324e-20 -5.25852)
(14.8151 -4.43305e-20 -4.81304)
(11.3798 0 -4.10603)
(8.74841 0 -3.3681)
(6.72967 0 -2.69683)
(5.1623 -4.01378e-20 -2.11879)
(3.92898 0 -1.63192)
(2.94695 0 -1.22534)
(2.1578 0 -0.886808)
(1.51866 0 -0.605519)
(1.0003 0 -0.370734)
(0.578339 -9.14737e-20 -0.178035)
(0.234586 9.10215e-20 -0.0183534)
(-0.044077 0 0.11215)
(-0.269339 0 0.218633)
(-0.450225 -1.7491e-19 0.303182)
(-0.592635 1.7103e-19 0.37101)
(-0.703448 -1.67851e-19 0.4242)
(-0.787048 1.63162e-19 0.464454)
(-0.848923 1.58759e-19 0.493503)
(-0.892519 -1.54349e-19 0.513107)
(-0.919789 1.49995e-19 0.525413)
(-0.933718 0 0.530241)
(-0.937476 -1.40035e-19 0.528323)
(-0.932289 0 0.522585)
(-0.919493 2.61948e-19 0.51379)
(-0.900693 0 0.502278)
(-0.877248 0 0.488374)
(-0.850103 0 0.472641)
(-0.820202 -2.25262e-19 0.455736)
(-0.788249 -2.16669e-19 0.437844)
(-0.754847 0 0.419224)
(-0.72066 0 0.400197)
(-0.685914 3.83713e-19 0.380921)
(-0.651047 0 0.361692)
(-0.616545 8.7602e-23 0.342647)
(-0.582453 -3.3817e-19 0.323784)
(-0.548943 0 0.305256)
(-0.516141 0 0.287095)
(-0.48402 0 0.269296)
(-0.452753 0 0.25198)
(-0.422507 -5.43184e-19 0.235258)
(-0.393522 0 0.219327)
(-0.366357 4.96139e-19 0.204526)
(-0.341533 4.73877e-19 0.191132)
(-0.319587 0 0.179454)
(-0.301029 0 0.16973)
(-0.286018 0 0.161986)
(-0.274398 3.92838e-19 0.156053)
(-0.265457 -3.74519e-19 0.151372)
(-0.257736 -7.1391e-19 0.147021)
(-0.249048 0 0.141638)
(-0.236172 -6.47943e-19 0.133262)
(-0.215077 -1.23397e-18 0.119547)
(-0.181432 0 0.0980964)
(-0.131486 -1.11743e-18 0.067038)
(-0.0636829 0 0.0259281)
(0.0201366 -5.04527e-19 -0.0236401)
(0.114209 -9.57515e-19 -0.0779943)
(0.20982 0 -0.132097)
(0.299064 -8.59833e-19 -0.181847)
(0.377805 -8.14209e-19 -0.225777)
(0.450634 0 -0.267477)
(0.529055 0 -0.314391)
(0.631908 0 -0.377357)
(0.774439 6.54466e-19 -0.464631)
(0.97041 6.18636e-19 -0.582135)
(1.20732 0 -0.72072)
(1.46289 -1.09488e-18 -0.864861)
(1.67067 -1.0241e-18 -0.975113)
(1.77157 0 -1.01898)
(1.69561 0 -0.955772)
(1.44719 -8.37191e-19 -0.800741)
(1.09731 -1.17336e-22 -0.598174)
(0.764659 0 -0.415493)
(0.547846 0 -0.299415)
(0.401058 0 -0.217561)
(0.263425 0 -0.143845)
(0.256296 -2.41961e-22 -0.147671)
(0.27209 1.07315e-18 -0.14941)
(0.114491 0 -0.0537884)
(-0.0135258 0 0.0251238)
(-0.309456 0 0.216469)
(-0.942186 8.0721e-19 0.597099)
(-1.62766 0 0.990934)
(-2.29541 1.41968e-18 1.33129)
(-1.81649 -1.3774e-18 0.984164)
(-0.823493 1.26344e-18 0.351383)
(1.66157 -1.18395e-18 -1.14471)
(3.98845 1.94491e-18 -2.50118)
(7.61932 -5.78668e-19 -4.38277)
(4.52513 4.06982e-19 -2.58833)
(7.48633 0 -4.17469)
(1.62442 0 -0.656509)
(-1.04516 -7.45856e-19 0.646676)
(-0.476798 -6.73742e-19 0.257201)
(-0.594489 -6.65887e-19 0.308107)
(0.551605 2.49462e-22 -0.385744)
(1.3722 0 -0.811747)
(1.37289 0 -0.806147)
(1.81426 -5.26596e-19 -1.05628)
(1.35181 0 -0.699963)
(-1.15987 -5.759e-19 0.867036)
(-5.31745 0 3.32495)
(-9.27312 -2.84885e-22 5.55217)
(-11.674 0 6.83706)
(-12.2734 -6.14333e-19 7.07733)
(-11.1681 1.05145e-18 6.34009)
(-8.86273 1.48486e-18 4.94334)
(-6.12889 -5.293e-21 3.35275)
(-3.30374 0 1.75627)
(-1.58624 3.76349e-18 0.825011)
(-0.426595 3.75319e-18 0.167416)
(0.784439 3.4358e-18 -0.46279)
(-0.101411 0 0.0614443)
(0.59005 2.13581e-22 -0.357697)
(34.2896 0 -1.36432)
(34.389 -3.55379e-21 -1.92527)
(32.8538 0 -3.25153)
(29.6946 1.42209e-20 -4.5675)
(25.5658 3.3586e-20 -5.33251)
(21.2311 2.1555e-20 -5.45179)
(17.2337 0 -5.09654)
(13.8118 0 -4.49195)
(10.9891 -3.46168e-20 -3.80846)
(8.69412 -3.73531e-20 -3.14207)
(6.83331 3.94638e-20 -2.53522)
(5.32065 8.20394e-20 -2.00108)
(4.08597 8.41904e-20 -1.53929)
(3.07366 0 -1.14442)
(2.24226 0 -0.807856)
(1.55814 1.72609e-19 -0.524757)
(0.994736 -3.37385e-22 -0.286606)
(0.532307 0 -0.0876907)
(0.15264 -8.37342e-20 0.077104)
(-0.156428 -1.64519e-19 0.212369)
(-0.405387 -1.61696e-19 0.322317)
(-0.604799 0 0.410905)
(-0.761641 -1.54242e-19 0.480203)
(-0.883136 1.49794e-19 0.533183)
(-0.974147 1.45893e-19 0.57284)
(-1.03903 -3.45132e-22 0.601916)
(-1.08287 0 0.620742)
(-1.1091 1.14689e-22 0.629756)
(-1.12128 0 0.629683)
(-1.1209 2.47086e-19 0.62493)
(-1.11012 0 0.616292)
(-1.09128 0 0.603622)
(-1.06576 0 0.587979)
(-1.03512 2.12761e-19 0.570189)
(-1.00056 0 0.550555)
(-0.963012 0 0.529513)
(-0.923474 0 0.507529)
(-0.882428 0 0.484858)
(-0.840551 -3.47276e-19 0.461939)
(-0.798575 6.65913e-19 0.43898)
(-0.756663 0 0.416018)
(-0.715106 3.05614e-19 0.393287)
(-0.67415 0 0.370852)
(-0.633819 0 0.348742)
(-0.594368 0 0.327143)
(-0.556052 4.66535e-23 0.306222)
(-0.519205 0 0.28626)
(-0.484551 -4.67808e-19 0.267711)
(-0.452786 0 0.250938)
(-0.424609 0 0.236339)
(-0.400694 -4.06923e-19 0.224209)
(-0.38127 0 0.214558)
(-0.36615 0 0.207141)
(-0.354429 6.85981e-25 0.20121)
(-0.344253 6.72417e-19 0.195518)
(-0.332821 0 0.188263)
(-0.316034 1.32999e-24 0.1769)
(-0.288756 1.16167e-18 0.158422)
(-0.24547 0 0.129818)
(-0.181379 5.25797e-19 0.088817)
(-0.0943924 0 0.0350069)
(0.0133564 4.74634e-19 -0.0294612)
(0.134864 9.00622e-19 -0.0998817)
(0.259319 0 -0.169981)
(0.3768 8.08588e-19 -0.234803)
(0.481792 -6.3351e-23 -0.292758)
(0.579662 0 -0.348606)
(0.684163 0 -0.411694)
(0.818598 0 -0.495428)
(1.00133 -1.2296e-18 -0.609537)
(1.24987 5.19694e-23 -0.760747)
(1.54917 0 -0.937004)
(1.87374 1.02852e-18 -1.11892)
(2.14337 1.92297e-18 -1.25796)
(2.28525 0 -1.31422)
(2.2081 0 -1.23684)
(1.90729 0 -1.04177)
(1.46168 -1.13879e-22 -0.781481)
(1.01811 0 -0.540423)
(0.712355 0 -0.379981)
(0.504827 0 -0.266332)
(0.323831 0 -0.17275)
(0.316426 1.07722e-18 -0.18225)
(0.342409 1.00601e-18 -0.184608)
(0.137221 0 -0.0570273)
(-0.0464953 0 0.05828)
(-0.450203 0 0.326548)
(-1.27584 2.61103e-22 0.82912)
(-2.15738 0 1.33407)
(-2.97578 -1.32903e-18 1.72807)
(-2.37236 0 1.25974)
(-1.12904 -1.18243e-18 0.434266)
(1.99086 0 -1.45531)
(4.21257 -9.11905e-19 -2.78006)
(9.4182 0 -5.41388)
(5.2944 0 -3.02756)
(9.61243 0 -5.32641)
(2.6027 0 -1.00609)
(-1.07128 6.97406e-19 0.711399)
(-0.607902 0 0.323767)
(-0.659788 6.22501e-19 0.318651)
(0.726346 6.27214e-19 -0.533384)
(1.76751 0 -1.05638)
(1.79352 0 -1.05655)
(2.22767 0 -1.29009)
(1.38317 0 -0.640113)
(-2.06368 -4.56167e-21 1.54404)
(-7.31377 0 4.65446)
(-11.9108 -2.37015e-19 7.19865)
(-14.3534 0 8.42304)
(-14.6743 1.14027e-18 8.4178)
(-13.1157 -9.82035e-19 7.35834)
(-10.3134 -1.38675e-18 5.64688)
(-7.10432 -1.62331e-18 3.78213)
(-3.7933 0 1.93147)
(-1.67941 0 0.813981)
(-0.395442 -7.00742e-18 0.0990073)
(1.05413 3.20752e-18 -0.623375)
(-0.0709387 3.06277e-18 0.0463438)
(0.771037 -2.82311e-18 -0.473524)
(33.8447 0 -1.82217)
(34.247 3.26478e-20 -2.03907)
(34.0213 0 -2.82808)
(32.6248 0 -3.92153)
(30.0505 0 -4.89192)
(26.6762 0 -5.45735)
(22.9818 0 -5.5569)
(19.3561 3.00157e-20 -5.28084)
(16.0373 3.26642e-20 -4.77062)
(13.1287 7.03812e-20 -4.1521)
(10.6428 -7.42912e-20 -3.51166)
(8.54597 -7.74343e-20 -2.89882)
(6.78812 -7.94692e-20 -2.33748)
(5.31791 0 -1.83687)
(4.0902 0 -1.39685)
(3.06599 -1.62247e-19 -1.01618)
(2.21223 -1.61551e-19 -0.689115)
(1.50239 0 -0.410633)
(0.912943 7.90425e-20 -0.175892)
(0.42697 1.55296e-19 0.0220548)
(0.0280947 0 0.185059)
(-0.296795 1.48592e-19 0.319365)
(-0.558556 0 0.427655)
(-0.766911 -2.00865e-22 0.513824)
(-0.929506 -1.37306e-19 0.581178)
(-1.05335 -3.43448e-22 0.632196)
(-1.14432 0 0.669517)
(-1.20813 1.24757e-19 0.695431)
(-1.24977 -2.41211e-19 0.709115)
(-1.27204 -4.65969e-19 0.7129)
(-1.2789 -2.24478e-19 0.70956)
(-1.27237 0 0.701417)
(-1.25506 -2.08314e-19 0.688495)
(-1.2292 0 0.672176)
(-1.19668 0 0.652853)
(-1.15886 0 0.631183)
(-1.11722 0 0.607805)
(-1.07258 0 0.58309)
(-1.02595 1.03893e-22 0.557654)
(-0.978359 -3.13795e-19 0.531798)
(-0.930174 0 0.505616)
(-0.881847 -5.75946e-19 0.479441)
(-0.833795 0 0.453388)
(-0.786135 0 0.427536)
(-0.739225 0 0.402155)
(-0.693439 4.82514e-19 0.377481)
(-0.649215 0 0.353893)
(-0.607452 0 0.331968)
(-0.569027 0 0.312157)
(-0.53481 0 0.294948)
(-0.505645 7.66077e-19 0.280685)
(-0.481844 0 0.269351)
(-0.4632 0 0.260606)
(-0.448634 3.31966e-19 0.253497)
(-0.435912 0 0.246433)
(-0.421648 0 0.23716)
(-0.400906 1.14757e-18 0.222543)
(-0.3675 -5.46198e-19 0.198941)
(-0.314788 0 0.16278)
(-0.236968 0 0.111474)
(-0.131389 0 0.0447292)
(-0.000362306 -4.46091e-19 -0.034696)
(0.148093 0 -0.121087)
(0.301313 0 -0.207051)
(0.447519 -1.51915e-18 -0.286932)
(0.579726 1.43791e-18 -0.35915)
(0.703747 0 -0.429648)
(0.834972 0 -0.509528)
(1.0006 0 -0.614451)
(1.22152 5.77049e-19 -0.755223)
(1.51896 -5.45295e-19 -0.939007)
(1.87607 -1.02803e-18 -1.15095)
(2.26582 -9.64874e-19 -1.36825)
(2.59727 -9.02014e-19 -1.53461)
(2.78608 8.41741e-19 -1.60377)
(2.72017 0 -1.51487)
(2.38055 0 -1.28324)
(1.84644 6.93956e-19 -0.967013)
(1.28783 0 -0.665867)
(0.881452 0 -0.456798)
(0.604694 0 -0.308678)
(0.379019 0 -0.197053)
(0.372046 0 -0.214947)
(0.410969 -1.88452e-18 -0.217538)
(0.158575 0 -0.0557627)
(-0.0908249 -8.22674e-19 0.103662)
(-0.613681 0 0.460155)
(-1.63501 2.45407e-22 1.08926)
(-2.7054 1.32531e-18 1.69905)
(-3.64593 0 2.1198)
(-2.9169 0 1.51511)
(-1.43762 0 0.489811)
(2.26076 0 -1.7487)
(3.95398 8.60572e-19 -2.83484)
(11.0199 0 -6.36331)
(5.71825 0 -3.28044)
(11.6181 0 -6.41544)
(3.79836 0 -1.41402)
(-0.940442 0 0.721332)
(-0.719565 0 0.380605)
(-0.66867 0 0.289631)
(0.903554 0 -0.695466)
(2.15551 -5.21619e-19 -1.30335)
(2.20909 0 -1.30383)
(2.55812 0 -1.46886)
(1.22194 0 -0.441418)
(-3.20469 5.06891e-19 2.40153)
(-9.40518 0 6.07693)
(-14.3323 1.10358e-19 8.73845)
(-16.5392 0 9.731)
(-16.466 -8.19953e-21 9.43216)
(-14.4924 0 8.06291)
(-11.3257 1.2811e-18 6.10529)
(-7.78895 0 4.04359)
(-4.14731 0 2.02155)
(-1.64727 0 0.729583)
(-0.308849 3.27047e-18 -0.00664881)
(1.33385 -5.98873e-18 -0.788698)
(-0.0171518 -5.71803e-18 0.0217151)
(0.962897 -2.63577e-18 -0.599419)
(33.5204 0 -2.11459)
(33.8159 -3.49597e-20 -2.24471)
(34.038 0 -2.67923)
(33.6934 0 -3.43664)
(32.477 -2.70421e-20 -4.3136)
(30.39 -2.66068e-20 -5.05675)
(27.6355 2.74965e-20 -5.49984)
(24.4945 -8.66585e-20 -5.59654)
(21.2407 0 -5.39025)
(18.0896 1.50718e-23 -4.96751)
(15.1789 3.49087e-20 -4.41914)
(12.5754 0 -3.81876)
(10.2955 0 -3.21696)
(8.32558 0 -2.64488)
(6.63856 0 -2.11821)
(5.20279 3.01558e-22 -1.64526)
(3.98625 2.74927e-22 -1.22713)
(2.9599 7.50639e-20 -0.862305)
(2.09687 7.4072e-20 -0.547889)
(1.37523 0 -0.278485)
(0.775173 -1.42862e-19 -0.0512573)
(0.279151 -1.40053e-19 0.139286)
(-0.127461 0 0.296587)
(-0.457491 -2.51274e-22 0.425022)
(-0.721834 2.79525e-22 0.528447)
(-0.930337 -1.25443e-19 0.609829)
(-1.0914 0 0.672137)
(-1.21238 0 0.717876)
(-1.29886 2.27272e-19 0.751231)
(-1.35765 2.57488e-22 0.771135)
(-1.39285 4.22773e-19 0.779348)
(-1.40917 0 0.777591)
(-1.40834 3.92334e-19 0.77084)
(-1.39433 0 0.758697)
(-1.3698 0 0.742071)
(-1.3367 -1.74237e-19 0.721876)
(-1.29711 0 0.698944)
(-1.25237 -3.21161e-19 0.673779)
(-1.20388 1.00797e-22 0.647218)
(-1.15309 2.95252e-19 0.61968)
(-1.10064 0 0.591328)
(-1.04721 5.35302e-23 0.562622)
(-0.993448 0 0.533741)
(-0.939616 0 0.504839)
(-0.886212 0 0.476285)
(-0.83376 0 0.4484)
(-0.782818 0 0.421677)
(-0.734469 4.14285e-19 0.396824)
(-0.689785 0 0.374383)
(-0.649811 0 0.354934)
(-0.61557 -3.60162e-19 0.338857)
(-0.587472 0 0.3261)
(-0.565306 -3.2742e-19 0.316212)
(-0.547839 -3.12027e-19 0.308012)
(-0.532486 5.94534e-19 0.299551)
(-0.515308 0 0.28811)
(-0.490592 -5.39117e-19 0.269968)
(-0.451169 -5.13125e-19 0.24088)
(-0.389351 0 0.196773)
(-0.298385 0 0.134842)
(-0.175045 0 0.0550043)
(-0.021704 4.18854e-19 -0.0393231)
(0.152842 0 -0.141438)
(0.334343 0 -0.242946)
(0.50934 7.12927e-19 -0.337647)
(0.669286 -1.34947e-18 -0.424099)
(0.820071 0 -0.509431)
(0.978075 0 -0.60634)
(1.17377 0 -0.73241)
(1.43004 0 -0.899171)
(1.77176 -5.11452e-19 -1.11389)
(2.18121 9.63886e-19 -1.35911)
(2.63149 0 -1.60905)
(3.0242 0 -1.80102)
(3.2659 -7.8888e-19 -1.88333)
(3.22463 0 -1.78633)
(2.86247 -6.90539e-19 -1.52262)
(2.25055 6.50294e-19 -1.15318)
(1.57523 0 -0.790965)
(1.05738 0 -0.529514)
(0.703008 0 -0.344759)
(0.431395 0 -0.21748)
(0.425241 0 -0.246492)
(0.479149 8.82117e-19 -0.248567)
(0.180184 0 -0.0498467)
(-0.145989 1.54006e-18 0.162748)
(-0.800014 0 0.619311)
(-2.01817 2.24101e-22 1.37814)
(-3.26544 8.76052e-23 2.08251)
(-4.29508 0 2.49905)
(-3.43372 1.12697e-18 1.73955)
(-1.72736 0 0.504087)
(2.4603 0 -2.00697)
(3.28193 -1.61284e-18 -2.70027)
(12.4364 0 -7.2148)
(5.80519 0 -3.34419)
(13.4379 0 -7.42041)
(5.18103 0 -1.86304)
(-0.641909 0 0.674294)
(-0.797005 0 0.422125)
(-0.622958 0 0.219861)
(1.08117 0 -0.870904)
(2.53235 4.87321e-19 -1.55059)
(2.61011 0 -1.54067)
(2.79079 0 -1.57224)
(0.864601 0 -0.0850555)
(-4.54623 -4.81441e-19 3.43225)
(-11.5023 -2.10618e-19 7.54177)
(-16.4306 -1.00114e-19 10.0972)
(-18.201 1.75017e-19 10.7172)
(-17.7282 -8.20909e-21 10.0883)
(-15.416 -8.32425e-19 8.45791)
(-12.0159 -2.38501e-18 6.33655)
(-8.26719 0 4.15098)
(-4.4252 3.04711e-18 2.03649)
(-1.53363 3.04881e-18 0.577718)
(-0.18104 0 -0.145954)
(1.61848 2.79513e-18 -0.9561)
(0.0563377 2.66861e-18 -0.0135109)
(1.168 2.46029e-18 -0.735953)
(33.2828 0 -2.27395)
(33.4387 1.73051e-20 -2.41209)
(33.6816 0 -2.68566)
(33.7531 0 -3.17663)
(33.3674 2.54628e-20 -3.84028)
(32.3546 2.50477e-20 -4.53907)
(30.6854 -2.58806e-20 -5.1229)
(28.4455 8.36626e-20 -5.48585)
(25.7924 0 -5.58652)
(22.9117 3.15391e-20 -5.44042)
(19.9794 -6.53812e-20 -5.09794)
(17.1379 0 -4.62184)
(14.4846 6.93771e-20 -4.07127)
(12.0741 0 -3.49426)
(9.9276 7.11122e-20 -2.92449)
(8.04419 7.15432e-20 -2.38477)
(6.40937 7.12766e-20 -1.88777)
(5.00242 -7.06607e-20 -1.43972)
(3.7997 -1.39266e-19 -1.04286)
(2.77862 0 -0.695251)
(1.91751 1.34481e-19 -0.395391)
(1.19579 0 -0.139215)
(0.595589 0 0.0768978)
(0.100643 -1.25e-19 0.257109)
(-0.303411 2.42839e-19 0.405493)
(-0.62945 0 0.525599)
(-0.888601 0 0.62103)
(-1.09073 0 0.695059)
(-1.24451 -2.13432e-19 0.750498)
(-1.35695 2.06209e-19 0.790944)
(-1.43572 -1.63292e-22 0.817669)
(-1.4861 1.91489e-19 0.830544)
(-1.51335 -3.68924e-19 0.831016)
(-1.5203 1.77391e-19 0.826373)
(-1.51133 -1.70518e-19 0.815287)
(-1.48933 6.61876e-23 0.79899)
(-1.45715 0 0.778634)
(-1.41678 3.02056e-19 0.754877)
(-1.37015 2.89665e-19 0.728817)
(-1.31926 -2.77643e-19 0.70102)
(-1.26513 0 0.671733)
(-1.20874 2.54762e-19 0.641572)
(-1.15106 2.4381e-19 0.610804)
(-1.09256 2.33266e-19 0.579673)
(-1.03391 2.23087e-19 0.548673)
(-0.97584 0 0.518225)
(-0.919044 0 0.488948)
(-0.864801 -2.86669e-23 0.461697)
(-0.814393 0 0.437108)
(-0.769049 0 0.415847)
(-0.729984 -3.38313e-19 0.398328)
(-0.69772 3.22601e-19 0.384447)
(-0.672062 3.07506e-19 0.373624)
(-0.651654 3.6748e-25 0.364437)
(-0.633591 6.11221e-25 0.35456)
(-0.613431 0 0.340799)
(-0.58475 0 0.31886)
(-0.539488 9.63284e-19 0.283934)
(-0.468998 0 0.231522)
(-0.365653 0 0.158701)
(-0.225643 -4.13965e-19 0.0657025)
(-0.0512887 0 -0.0433427)
(0.148082 0 -0.160765)
(0.35692 7.06369e-19 -0.277286)
(0.560274 -6.68748e-19 -0.386308)
(0.747956 1.26555e-18 -0.486655)
(0.925542 0 -0.586627)
(1.10973 -5.66561e-19 -0.700367)
(1.33362 0 -0.847042)
(1.62159 0 -1.03862)
(2.00215 9.58661e-19 -1.28218)
(2.45771 0 -1.55794)
(2.96297 0 -1.83754)
(3.41553 0 -2.0533)
(3.71546 0 -2.14918)
(3.71297 0 -2.04754)
(3.34708 6.4664e-19 -1.75688)
(2.67201 7.88411e-23 -1.338)
(1.88161 -5.74974e-19 -0.914691)
(1.24292 5.41187e-19 -0.597958)
(0.802718 0 -0.375289)
(0.483746 0 -0.235459)
(0.477989 0 -0.278548)
(0.547961 0 -0.278288)
(0.203084 0 -0.0388995)
(-0.212139 3.10836e-22 0.237242)
(-1.00941 0 0.806087)
(-2.42291 -6.19714e-19 1.69585)
(-3.82973 3.47681e-25 2.47985)
(-4.91153 0 2.85795)
(-3.90641 -1.05371e-18 1.92192)
(-1.97565 0 0.463955)
(2.56332 9.10392e-19 -2.20399)
(2.35998 -3.18178e-21 -2.47641)
(13.6421 0 -7.97831)
(5.62659 0 -3.27315)
(15.0014 0 -8.31521)
(6.70909 0 -2.33149)
(-0.167387 5.62051e-19 0.57709)
(-0.821968 0 0.442133)
(-0.527265 0 0.11293)
(1.2571 5.10605e-19 -1.05832)
(2.89308 0 -1.79586)
(2.98599 -4.24702e-19 -1.75839)
(2.9083 4.03824e-19 -1.5855)
(0.308499 0 0.432447)
(-6.0455 9.02506e-19 4.60767)
(-13.5119 -1.0943e-21 8.98479)
(-18.1194 1.84539e-19 11.2146)
(-19.3515 -1.63416e-19 11.3971)
(-18.5378 -4.46408e-19 10.4747)
(-15.9828 7.77182e-19 8.64931)
(-12.4727 1.10991e-18 6.42961)
(-8.59518 1.30248e-18 4.16373)
(-4.65527 -2.84455e-18 2.00782)
(-1.38009 -2.84603e-18 0.39335)
(-0.0250326 -2.84605e-18 -0.307736)
(1.90433 -2.60873e-18 -1.12244)
(0.149391 0 -0.0566871)
(1.3871 0 -0.884359)
(33.0736 0 -2.36516)
(33.1483 1.86941e-20 -2.51725)
(33.3105 0 -2.73227)
(33.458 0 -3.06627)
(33.4275 0 -3.53504)
(33.0597 0 -4.09417)
(32.2386 2.84349e-20 -4.65632)
(30.9144 -2.70058e-20 -5.12633)
(29.1058 2.9015e-20 -5.43181)
(26.8891 -5.89468e-20 -5.53705)
(24.3786 6.14611e-20 -5.44173)
(21.705 0 -5.17168)
(18.9952 -6.5218e-20 -4.76726)
(16.3571 0 -4.27351)
(13.8706 -6.68539e-20 -3.73187)
(11.5868 -6.66918e-20 -3.17713)
(9.53095 0 -2.63511)
(7.70919 0 -2.12331)
(6.11473 6.53829e-20 -1.65279)
(4.73387 0 -1.22826)
(3.54903 0 -0.852285)
(2.54066 -1.23156e-19 -0.523826)
(1.68966 0 -0.240734)
(0.977544 0 0.000199915)
(0.387026 -1.14052e-19 0.202666)
(-0.097764 0 0.370425)
(-0.491029 0 0.507323)
(-0.80559 0 0.617085)
(-1.05296 4.01055e-19 0.70306)
(-1.24309 0 0.768245)
(-1.38468 -1.18847e-22 0.816194)
(-1.48592 -1.23253e-22 0.850129)
(-1.55356 1.73324e-19 0.867791)
(-1.59349 -1.66715e-19 0.87201)
(-1.61027 3.20414e-19 0.869185)
(-1.60762 1.53952e-19 0.859642)
(-1.58974 0 0.844317)
(-1.5595 0 0.824108)
(-1.51951 2.71963e-19 0.800433)
(-1.47249 -2.6069e-19 0.774032)
(-1.41998 0 0.745247)
(-1.36338 0 0.714887)
(-1.30408 -4.55815e-23 0.68333)
(-1.24282 -2.19073e-19 0.650932)
(-1.18054 -2.09496e-19 0.618339)
(-1.11818 -4.00468e-19 0.586086)
(-1.05663 0 0.554934)
(-0.997388 -2.75239e-23 0.525899)
(-0.941953 0 0.499713)
(-0.89175 0 0.477129)
(-0.8482 3.17534e-19 0.458587)
(-0.81196 -3.02758e-19 0.443917)
(-0.782876 0 0.432397)
(-0.759503 2.7494e-19 0.422342)
(-0.738663 6.19345e-25 0.411036)
(-0.715469 0 0.394809)
(-0.682873 0 0.368809)
(-0.632022 -9.03494e-19 0.327713)
(-0.55343 0 0.266682)
(-0.438672 0 0.182779)
(-0.283366 7.76309e-19 0.0766608)
(-0.0896605 0 -0.0467715)
(0.132825 0 -0.178906)
(0.367545 -1.32427e-18 -0.30968)
(0.598262 6.26771e-19 -0.432237)
(0.813076 -5.9302e-19 -0.545789)
(1.01686 0 -0.659782)
(1.22596 5.30822e-19 -0.789677)
(1.47545 0 -0.955908)
(1.7908 -4.75238e-19 -1.17069)
(2.20403 -4.48973e-19 -1.44061)
(2.69885 0 -1.74396)
(3.25282 0 -2.0501)
(3.76289 7.42895e-19 -2.28771)
(4.12535 6.92695e-19 -2.39731)
(4.17555 0 -2.29458)
(3.82681 0 -1.98258)
(3.10756 -1.13989e-18 -1.51911)
(2.20791 5.38054e-19 -1.0358)
(1.44124 -1.01294e-18 -0.662001)
(0.907462 0 -0.401131)
(0.539476 0 -0.252472)
(0.532708 0 -0.312341)
(0.618095 0 -0.306876)
(0.227597 0 -0.0219933)
(-0.289871 3.09643e-22 0.329616)
(-1.24194 0 1.02262)
(-2.8458 0 2.04169)
(-4.38911 -1.08003e-22 2.88525)
(-5.48382 0 3.18807)
(-4.32085 -9.83769e-19 2.052)
(-2.16539 0 0.361227)