/*--------------------------------*- C++ -*----------------------------------*\
| =========                 |                                                 |
| \\      /  F ield         | OpenFOAM: The Open Source CFD Toolbox           |
|  \\    /   O peration     | Version:  2412                                  |
|   \\  /    A nd           | Website:  www.openfoam.com                      |
|    \\/     M anipulation  |                                                 |
\*---------------------------------------------------------------------------*/
FoamFile
{
    version     2.0;
    format      ascii;
    arch        "LSB;label=32;scalar=64";
    class       volVectorField;
    location    "0.93";
    object      U_0;
}
// * * * * * * * * * * * * * * * * * * * * * * * * * * * * * * * * * * * * * //

dimensions      [0 1 -1 0 0 0 0];

internalField   nonuniform List<vector> 
12600
(
(18.9602 0 -0.586692)
(7.63352 -3.62291e-20 -1.5745)
(3.20111 -1.61737e-20 -1.62566)
(1.61285 0 -1.18979)
(1.00677 -2.24879e-22 -0.786495)
(0.683251 0 -0.528002)
(0.466785 -3.07152e-20 -0.363458)
(0.310844 0 -0.250801)
(0.195206 0 -0.169057)
(0.107924 0 -0.107905)
(0.0404707 0 -0.0621787)
(-0.0118796 -9.63923e-20 -0.0267538)
(-0.0524445 -9.83635e-20 0.00112434)
(-0.0841667 0 0.0232182)
(-0.108752 1.9914e-19 0.0397809)
(-0.126969 0 0.0532753)
(-0.140918 2.85416e-22 0.0637683)
(-0.150832 0 0.0715817)
(-0.157945 9.58201e-20 0.0773007)
(-0.162464 0 0.0812853)
(-0.164502 0 0.0840651)
(-0.164628 0 0.0855681)
(-0.163548 3.50708e-19 0.0858339)
(-0.161725 -3.41649e-19 0.0854716)
(-0.158358 -1.75185e-22 0.0849971)
(-0.153823 1.6205e-19 0.0836716)
(-0.149316 0 0.0813703)
(-0.144506 0 0.0790172)
(-0.138996 0 0.076592)
(-0.133303 -2.82397e-19 0.073858)
(-0.127631 -5.44602e-19 0.0708961)
(-0.12183 0 0.0678929)
(-0.115926 0 0.0648683)
(-0.110109 -2.43766e-19 0.0617902)
(-0.104399 -2.34523e-19 0.058688)
(-0.0987592 0 0.055631)
(-0.0932313 0 0.0526437)
(-0.087841 -4.16615e-19 0.0496843)
(-0.0826292 0 0.0467771)
(-0.0776004 4.84673e-23 0.0439713)
(-0.0727209 -3.6849e-19 0.0412581)
(-0.0680132 -3.53418e-19 0.0386338)
(-0.0634799 0 0.0360919)
(-0.0590943 -3.24653e-19 0.0336294)
(-0.0548683 -3.10985e-19 0.0312586)
(-0.0508155 5.95563e-19 0.0289842)
(-0.0469656 -5.70069e-19 0.0268221)
(-0.043389 0 0.0248141)
(-0.0401441 5.21725e-19 0.0229951)
(-0.0372979 -4.98839e-19 0.0214027)
(-0.0349147 0 0.0200708)
(-0.0330075 -3.1925e-24 0.0190069)
(-0.0315496 4.35153e-19 0.0182021)
(-0.0304507 0 0.0175882)
(-0.0295227 -7.93402e-19 0.0170594)
(-0.0284776 0 0.0164569)
(-0.0268874 0 0.0155391)
(-0.0242167 2.61978e-24 0.0140062)
(-0.0198893 2.59295e-24 0.0115368)
(-0.0134141 6.26247e-19 0.00785571)
(-0.00462138 -5.96396e-19 0.00286369)
(0.00617611 1.13499e-18 -0.00326391)
(0.0181026 0 -0.0100518)
(0.0299057 1.0247e-18 -0.016798)
(0.0404768 9.7256e-19 -0.022883)
(0.0493245 -1.84539e-18 -0.0280231)
(0.0571804 8.75358e-19 -0.0326203)
(0.0658344 0 -0.0376819)
(0.0780001 0 -0.0447401)
(0.0961003 0 -0.0551152)
(0.122065 0 -0.0698534)
(0.1541 0 -0.0879597)
(0.188387 -1.25716e-18 -0.107364)
(0.214771 1.17712e-18 -0.122463)
(0.224873 0 -0.128171)
(0.209571 0 -0.11959)
(0.172985 9.68332e-19 -0.0987827)
(0.127446 7.79585e-23 -0.0729135)
(0.0896802 1.73152e-18 -0.0512787)
(0.0699554 0 -0.0396945)
(0.0568601 0 -0.0318934)
(0.0403389 0 -0.0224528)
(0.0390392 1.85799e-22 -0.0217683)
(0.039641 0 -0.0221364)
(0.0207636 0 -0.0112107)
(0.00984097 1.10285e-18 -0.0045665)
(-0.0219807 2.67947e-22 0.0143739)
(-0.10086 0 0.0598319)
(-0.188825 0 0.109882)
(-0.285674 -1.68447e-18 0.163767)
(-0.215802 -1.63548e-18 0.123265)
(-0.0757624 -1.5012e-18 0.0448081)
(0.275274 -1.40594e-18 -0.153314)
(0.765656 3.21416e-21 -0.424989)
(1.12845 3.64889e-21 -0.635171)
(0.69961 4.79073e-19 -0.395345)
(0.941635 0 -0.53672)
(0.0558448 0 -0.039285)
(-0.212592 0 0.117723)
(-0.0591066 1.62384e-18 0.0336859)
(-0.10728 -8.05658e-19 0.0594915)
(0.0636788 8.10048e-19 -0.0380632)
(0.176618 7.19188e-19 -0.100792)
(0.162637 0 -0.0942093)
(0.258433 0 -0.147072)
(0.281617 0 -0.156387)
(0.0427212 6.74819e-19 -0.0126657)
(-0.495768 0 0.297885)
(-1.1338 -1.54546e-19 0.654644)
(-1.6527 0 0.940632)
(-1.90951 0 1.08408)
(-1.85383 1.3153e-18 1.04784)
(-1.53321 0 0.860919)
(-1.08941 0 0.608751)
(-0.624694 0 0.345951)
(-0.353066 -4.59882e-18 0.194095)
(-0.11524 0 0.0614422)
(0.082745 4.19458e-18 -0.0484664)
(-0.0358347 0 0.019611)
(0.0798746 -1.50545e-22 -0.0452462)
(30.3709 -1.52992e-20 -0.887338)
(21.0713 2.07386e-20 -3.29644)
(13.276 1.30824e-20 -4.1706)
(8.36607 0 -3.59807)
(5.54533 -1.30814e-20 -2.69797)
(3.84619 2.3356e-20 -1.96423)
(2.74503 3.20411e-20 -1.43033)
(1.97867 -3.71431e-20 -1.04055)
(1.41768 0 -0.748439)
(0.99366 0 -0.524493)
(0.666253 0 -0.35088)
(0.410404 0 -0.213984)
(0.208513 0 -0.104977)
(0.0472074 0 -0.0176479)
(-0.0797187 -6.84633e-22 0.0526086)
(-0.179931 0 0.10756)
(-0.260004 1.02608e-19 0.151465)
(-0.321983 0 0.185764)
(-0.369959 -1.99121e-19 0.21219)
(-0.405673 1.95482e-19 0.231872)
(-0.430851 0 0.246528)
(-0.447825 1.86757e-19 0.256435)
(-0.458427 -1.8211e-19 0.261104)
(-0.463588 1.77404e-19 0.262826)
(-0.462997 -1.73138e-19 0.263344)
(-0.458176 0 0.261469)
(-0.451197 1.61515e-19 0.25624)
(-0.441423 0 0.250249)
(-0.429172 0 0.243633)
(-0.415551 0 0.235954)
(-0.400918 2.81607e-19 0.2275)
(-0.385286 0 0.218672)
(-0.368966 0 0.209553)
(-0.352413 0 0.200205)
(-0.335729 0 0.190723)
(-0.31897 0 0.181261)
(-0.302351 0 0.171902)
(-0.285935 4.28646e-19 0.162609)
(-0.269852 0 0.153475)
(-0.254199 7.88768e-19 0.144597)
(-0.238932 7.56166e-19 0.135948)
(-0.224115 3.62205e-19 0.127548)
(-0.209764 0 0.119392)
(-0.195824 0 0.111468)
(-0.182346 6.357e-19 0.103815)
(-0.169384 -6.08108e-19 0.096458)
(-0.157035 5.81381e-19 0.0894601)
(-0.145527 0 0.0829595)
(-0.135063 -5.30927e-19 0.0770703)
(-0.125861 0 0.0719187)
(-0.11813 0 0.067614)
(-0.111919 -4.61992e-19 0.0641787)
(-0.107156 0 0.0615611)
(-0.103538 0 0.059545)
(-0.100446 8.01615e-19 0.0577774)
(-0.0969526 0 0.0557164)
(-0.0916865 0 0.0525575)
(-0.0829304 4.63436e-24 0.0473108)
(-0.0688399 6.60438e-19 0.038929)
(-0.0478358 -8.35969e-25 0.0265397)
(-0.0193322 0 0.00985776)
(0.0157509 -1.13595e-18 -0.0105088)
(0.0547411 -1.07837e-18 -0.0329999)
(0.0937465 0 -0.0553601)
(0.129299 -1.93841e-18 -0.0756501)
(0.159774 -7.27293e-23 -0.0930447)
(0.187394 0 -0.108939)
(0.217597 8.24115e-19 -0.126588)
(0.258835 0 -0.150876)
(0.318322 0 -0.185891)
(0.402022 0 -0.234778)
(0.504225 0 -0.294017)
(0.613692 2.47612e-18 -0.356791)
(0.699505 -1.15803e-18 -0.405144)
(0.735189 0 -0.423853)
(0.691779 0 -0.395789)
(0.57796 9.48151e-19 -0.328507)
(0.43024 1.4052e-22 -0.243482)
(0.301208 1.14099e-22 -0.170601)
(0.226899 0 -0.129072)
(0.176935 0 -0.100498)
(0.121789 0 -0.0692698)
(0.117957 2.91616e-22 -0.0681671)
(0.121328 -1.21974e-18 -0.0690644)
(0.05758 1.14252e-18 -0.0318273)
(0.0150126 -1.06558e-18 -0.00666531)
(-0.0961942 4.27152e-22 0.0605706)
(-0.355177 -9.1832e-19 0.212642)
(-0.641164 0 0.377502)
(-0.942393 1.61907e-18 0.545372)
(-0.727203 0 0.409946)
(-0.287323 1.43938e-18 0.149356)
(0.808932 0 -0.495569)
(2.19402 -2.20002e-18 -1.29872)
(3.46348 -6.50285e-19 -1.99695)
(2.15495 0 -1.24015)
(3.10203 0 -1.76521)
(0.363115 -5.94742e-19 -0.170528)
(-0.596004 8.57154e-19 0.348431)
(-0.196305 -1.54339e-18 0.110306)
(-0.310811 7.65163e-19 0.175436)
(0.218727 -7.68643e-19 -0.136423)
(0.573587 0 -0.333674)
(0.550365 6.38425e-19 -0.31996)
(0.812999 0 -0.473416)
(0.779974 0 -0.445156)
(-0.113404 -6.47149e-19 0.0875865)
(-1.87309 0 1.11665)
(-3.79439 -2.39158e-22 2.22249)
(-5.21416 2.76924e-19 3.03529)
(-5.81171 0 3.36806)
(-5.5006 0 3.17479)
(-4.46961 0 2.5659)
(-3.1348 2.00408e-18 1.78995)
(-1.74698 -4.33031e-18 0.990703)
(-0.936978 4.32331e-18 0.530762)
(-0.290289 0 0.155762)
(0.294595 -3.93976e-18 -0.171747)
(-0.0854552 0 0.0499469)
(0.248943 6.93235e-18 -0.146739)
(33.9842 3.25519e-20 -0.716484)
(29.3816 -8.68203e-21 -2.84841)
(22.83 -4.23197e-21 -4.54561)
(16.6891 0 -4.90018)
(11.9729 -1.52358e-20 -4.36823)
(8.66834 5.72262e-22 -3.5586)
(6.37833 0 -2.79054)
(4.74397 3.52547e-20 -2.1511)
(3.53648 0 -1.63708)
(2.61921 4.23728e-20 -1.22554)
(1.90805 0 -0.89454)
(1.34806 0 -0.627213)
(0.902367 0 -0.410342)
(0.544357 0 -0.233849)
(0.258168 -9.76686e-20 -0.087864)
(0.0271172 0 0.0280105)
(-0.158808 0 0.122691)
(-0.307038 0 0.198433)
(-0.424899 9.43317e-20 0.25895)
(-0.516685 -5.05734e-22 0.306077)
(-0.586402 0 0.34261)
(-0.638732 -4.87664e-22 0.369833)
(-0.676221 0 0.388096)
(-0.700879 -1.68148e-19 0.399971)
(-0.714312 0 0.407228)
(-0.719478 0 0.409085)
(-0.718409 -1.53203e-19 0.405485)
(-0.710521 0 0.399976)
(-0.697629 0 0.392225)
(-0.681142 -2.76463e-19 0.382399)
(-0.661681 0 0.371071)
(-0.639745 0 0.358608)
(-0.615973 0 0.345238)
(-0.591082 0 0.331263)
(-0.565384 2.29008e-19 0.316853)
(-0.539132 0 0.302217)
(-0.51275 0 0.287515)
(-0.486364 -4.058e-19 0.272795)
(-0.460234 0 0.258249)
(-0.434617 -7.4684e-19 0.243985)
(-0.409489 -6.76495e-23 0.229974)
(-0.384966 -3.42917e-19 0.216291)
(-0.361102 0 0.202947)
(-0.337837 0 0.189931)
(-0.315275 -3.0076e-19 0.177314)
(-0.293519 0 0.165159)
(-0.272736 -5.49962e-19 0.153587)
(-0.253319 0 0.142837)
(-0.235622 2.01028e-23 0.133103)
(-0.22002 0 0.124601)
(-0.206872 0 0.117508)
(-0.196276 0 0.111854)
(-0.188117 -4.16466e-19 0.107529)
(-0.181881 0 0.104157)
(-0.176523 0 0.101117)
(-0.170482 0 0.0974627)
(-0.161452 0 0.0918174)
(-0.146543 1.30935e-18 0.0825092)
(-0.122655 0 0.0677995)
(-0.0871124 4.60953e-25 0.0462864)
(-0.0388633 0 0.0175741)
(0.0206631 5.35647e-19 -0.017255)
(0.0871544 1.01674e-18 -0.0555796)
(0.154213 0 -0.093709)
(0.21609 1.82693e-18 -0.128561)
(0.269939 8.65144e-19 -0.158935)
(0.319288 0 -0.187301)
(0.372852 -7.76113e-19 -0.219052)
(0.444504 0 -0.262148)
(0.545757 0 -0.322947)
(0.686526 0 -0.40616)
(0.857479 0 -0.505481)
(1.04114 2.7844e-22 -0.609582)
(1.18761 1.08902e-18 -0.689295)
(1.25316 0 -0.720736)
(1.18895 0 -0.674098)
(1.00352 1.9326e-22 -0.562207)
(0.75357 -1.68005e-18 -0.418448)
(0.526084 -7.93735e-19 -0.291873)
(0.386407 0 -0.215205)
(0.292075 0 -0.161589)
(0.196407 0 -0.10885)
(0.190413 -2.44992e-18 -0.109395)
(0.198795 -2.19286e-22 -0.110527)
(0.0885363 -1.07178e-18 -0.044954)
(0.0073516 0 0.00437532)
(-0.19137 -9.28604e-19 0.129077)
(-0.635145 8.60924e-19 0.392515)
(-1.12132 0 0.671853)
(-1.6154 0 0.93498)
(-1.26458 1.4703e-18 0.6985)
(-0.539257 0 0.253605)
(1.27068 1.2638e-18 -0.822956)
(3.30358 -3.96381e-21 -1.98969)
(5.63693 6.18019e-19 -3.23244)
(3.4597 -4.3428e-19 -1.97466)
(5.30156 0 -2.9785)
(0.876639 5.56579e-19 -0.37784)
(-0.882747 -8.0204e-19 0.520333)
(-0.337232 1.44369e-18 0.184995)
(-0.477289 0 0.257079)
(0.381753 -7.18382e-19 -0.253478)
(0.97354 0 -0.569941)
(0.956152 -5.96973e-19 -0.559081)
(1.33845 5.63194e-19 -0.77801)
(1.14862 0 -0.622775)
(-0.503584 6.0492e-19 0.392574)
(-3.48368 0 2.1436)
(-6.53459 2.73052e-19 3.87251)
(-8.60006 -2.58777e-19 5.00738)
(-9.31336 0 5.35688)
(-8.64277 0 4.91507)
(-6.93766 0 3.89463)
(-4.828 -4.5932e-21 2.67465)
(-2.64231 4.04486e-18 1.43605)
(-1.35049 -4.0302e-18 0.724182)
(-0.395635 0 0.183921)
(0.529423 -3.67889e-18 -0.311791)
(-0.107671 0 0.0618538)
(0.417746 1.83263e-22 -0.248886)
(34.627 -1.70926e-20 -0.887065)
(33.2869 -4.88539e-21 -2.15896)
(29.4299 7.37767e-21 -3.94107)
(24.2979 -1.505e-20 -5.0667)
(19.1789 -2.11328e-20 -5.2585)
(14.8151 -4.43366e-20 -4.81301)
(11.3798 0 -4.106)
(8.74836 0 -3.36807)
(6.72962 0 -2.69681)
(5.16224 -4.01374e-20 -2.11877)
(3.92895 0 -1.63189)
(2.94696 0 -1.2253)
(2.15781 0 -0.886783)
(1.51859 0 -0.605521)
(1.00021 0 -0.370729)
(0.578373 -9.1544e-20 -0.177985)
(0.234697 9.09946e-20 -0.0183143)
(-0.044119 0 0.112094)
(-0.269553 0 0.218599)
(-0.450221 -1.75244e-19 0.303307)
(-0.592317 1.71139e-19 0.371202)
(-0.703466 -1.67376e-19 0.424045)
(-0.787489 1.62997e-19 0.464103)
(-0.849034 1.59225e-19 0.493513)
(-0.891935 -1.54053e-19 0.513766)
(-0.91951 1.49217e-19 0.525677)
(-0.934039 0 0.529956)
(-0.937726 -1.40388e-19 0.528147)
(-0.932195 0 0.522701)
(-0.919416 2.6166e-19 0.513853)
(-0.900774 0 0.502222)
(-0.877317 0 0.488363)
(-0.850095 0 0.47269)
(-0.820207 -2.25179e-19 0.455756)
(-0.788302 -2.16632e-19 0.437831)
(-0.754898 0 0.419229)
(-0.720682 0 0.400224)
(-0.685938 3.83732e-19 0.380943)
(-0.651091 0 0.361702)
(-0.616594 7.87189e-23 0.342662)
(-0.582492 -3.38303e-19 0.323811)
(-0.54898 0 0.305286)
(-0.516187 0 0.287123)
(-0.484074 0 0.269326)
(-0.452808 0 0.252015)
(-0.422563 -5.43294e-19 0.235297)
(-0.393583 0 0.219366)
(-0.366425 4.96211e-19 0.204565)
(-0.341606 4.73971e-19 0.191174)
(-0.319663 0 0.179498)
(-0.301109 0 0.169776)
(-0.286102 0 0.162032)
(-0.274486 3.92917e-19 0.156101)
(-0.265547 -3.74601e-19 0.151423)
(-0.257828 -7.14052e-19 0.147075)
(-0.249139 0 0.141692)
(-0.236263 -6.48051e-19 0.133315)
(-0.215165 -1.23417e-18 0.1196)
(-0.181515 0 0.0981487)
(-0.131564 -1.11748e-18 0.0670884)
(-0.0637561 0 0.0259751)
(0.0200711 -5.04525e-19 -0.0235987)
(0.114156 -9.5751e-19 -0.0779628)
(0.209789 0 -0.132081)
(0.299069 -8.59842e-19 -0.181858)
(0.377867 -8.1428e-19 -0.225825)
(0.450782 0 -0.267578)
(0.529314 0 -0.314557)
(0.632297 0 -0.377596)
(0.774948 6.54553e-19 -0.464933)
(0.971001 6.18711e-19 -0.582475)
(1.20791 0 -0.721052)
(1.46341 -1.09474e-18 -0.86514)
(1.67104 -1.02385e-18 -0.975306)
(1.77178 0 -1.01909)
(1.6957 0 -0.95581)
(1.44721 -8.36773e-19 -0.800743)
(1.09728 -1.19606e-22 -0.59815)
(0.764571 0 -0.415431)
(0.547633 0 -0.299279)
(0.400696 0 -0.217345)
(0.263019 0 -0.143612)
(0.255913 -2.60928e-22 -0.147454)
(0.271718 1.07326e-18 -0.149192)
(0.114031 0 -0.0535169)
(-0.0140054 0 0.0253999)
(-0.309904 0 0.216724)
(-0.942525 8.07146e-19 0.597286)
(-1.62796 0 0.991109)
(-2.29587 1.41988e-18 1.33157)
(-1.81745 -1.37687e-18 0.984728)
(-0.824341 1.26247e-18 0.35188)
(1.66059 -1.18312e-18 -1.14426)
(3.99093 1.94448e-18 -2.50251)
(7.61528 -5.78382e-19 -4.3804)
(4.52572 4.06368e-19 -2.58907)
(7.48817 0 -4.17565)
(1.62313 0 -0.655726)
(-1.04472 -7.46607e-19 0.646376)
(-0.476948 -6.75043e-19 0.257305)
(-0.594316 -6.6683e-19 0.307987)
(0.551861 2.4925e-22 -0.385882)
(1.37219 0 -0.811739)
(1.37331 0 -0.806389)
(1.81452 -5.26419e-19 -1.0564)
(1.35123 0 -0.699569)
(-1.16135 -5.74577e-19 0.867929)
(-5.31914 0 3.32592)
(-9.27432 -2.86884e-22 5.55281)
(-11.6744 0 6.8372)
(-12.2729 -6.14704e-19 7.07699)
(-11.1671 1.05218e-18 6.33947)
(-8.86137 1.48583e-18 4.94253)
(-6.12746 -5.29554e-21 3.35192)
(-3.3022 0 1.75538)
(-1.58491 3.76371e-18 0.824285)
(-0.426052 3.75312e-18 0.167143)
(0.78461 3.43522e-18 -0.462876)
(-0.10125 0 0.0613619)
(0.589901 2.15083e-22 -0.357604)
(34.2895 0 -1.3643)
(34.3889 -3.55377e-21 -1.92525)
(32.8537 0 -3.25152)
(29.6945 1.42193e-20 -4.56749)
(25.5657 3.35862e-20 -5.3325)
(21.2311 2.15577e-20 -5.45176)
(17.2336 0 -5.09651)
(13.8118 0 -4.49191)
(10.989 -3.46129e-20 -3.80843)
(8.69404 -3.73561e-20 -3.14205)
(6.83327 3.94735e-20 -2.53519)
(5.32065 8.20397e-20 -2.00104)
(4.08596 8.41523e-20 -1.53927)
(3.07358 0 -1.14441)
(2.24218 0 -0.807835)
(1.55817 1.72731e-19 -0.524703)
(0.994806 -3.45835e-22 -0.286578)
(0.532251 0 -0.0877415)
(0.152467 -8.37179e-20 0.0770897)
(-0.156403 -1.64704e-19 0.212509)
(-0.405228 -1.618e-19 0.322371)
(-0.604937 0 0.410673)
(-0.761886 -1.54086e-19 0.480042)
(-0.882949 1.49737e-19 0.533464)
(-0.973775 1.45613e-19 0.573216)
(-1.03914 -4.11292e-23 0.601786)
(-1.08323 0 0.620446)
(-1.1092 1.93438e-22 0.629728)
(-1.12116 0 0.629837)
(-1.12089 2.46854e-19 0.624955)
(-1.11021 0 0.616244)
(-1.09133 0 0.603631)
(-1.06576 0 0.588027)
(-1.03514 2.12683e-19 0.570203)
(-1.00062 0 0.550546)
(-0.963061 0 0.529524)
(-0.923501 0 0.507559)
(-0.882462 0 0.484879)
(-0.840604 -3.47313e-19 0.461951)
(-0.79863 6.66136e-19 0.438999)
(-0.75671 0 0.416049)
(-0.715154 3.05667e-19 0.393321)
(-0.674208 0 0.370885)
(-0.633886 0 0.348778)
(-0.594436 0 0.327185)
(-0.556123 5.20248e-23 0.306269)
(-0.519283 0 0.286308)
(-0.484637 -4.67876e-19 0.267761)
(-0.452877 0 0.250991)
(-0.424704 0 0.236395)
(-0.400795 -4.0699e-19 0.224267)
(-0.381376 0 0.214617)
(-0.366262 0 0.207202)
(-0.354544 1.64582e-24 0.201275)
(-0.34437 6.72551e-19 0.195585)
(-0.332939 0 0.188332)
(-0.316152 2.23792e-24 0.176968)
(-0.288871 1.16185e-18 0.15849)
(-0.245581 0 0.129886)
(-0.181485 5.25821e-19 0.0888828)
(-0.0944925 0 0.0350689)
(0.0132653 4.74633e-19 -0.0294061)
(0.134789 9.00617e-19 -0.0998392)
(0.259271 0 -0.169959)
(0.376799 8.08597e-19 -0.234814)
(0.481864 -6.36562e-23 -0.292817)
(0.579842 0 -0.348733)
(0.68448 0 -0.411902)
(0.819074 0 -0.495726)
(1.00195 -1.22977e-18 -0.60991)
(1.25059 5.17899e-23 -0.761163)
(1.54989 0 -0.937405)
(1.87436 1.02839e-18 -1.11925)
(2.14381 1.9225e-18 -1.25818)
(2.2855 0 -1.31433)
(2.20819 0 -1.23687)
(1.90728 0 -1.04175)
(1.46161 -1.16765e-22 -0.781426)
(1.01795 0 -0.540314)
(0.712042 0 -0.379777)
(0.504337 0 -0.266034)
(0.323301 0 -0.172444)
(0.315943 1.07695e-18 -0.181976)
(0.341965 1.00613e-18 -0.184345)
(0.136691 0 -0.0567124)
(-0.0470414 0 0.0585918)
(-0.450709 0 0.326831)
(-1.27622 2.61663e-22 0.829322)
(-2.15773 0 1.33427)
(-2.97634 -1.32921e-18 1.72843)
(-2.37364 0 1.26049)
(-1.13019 -1.18152e-18 0.434941)
(1.98963 0 -1.4548)
(4.21595 -9.1171e-19 -2.78183)
(9.41321 0 -5.41092)
(5.29453 0 -3.028)
(9.61465 0 -5.32753)
(2.60125 0 -1.00519)
(-1.07077 6.98109e-19 0.711029)
(-0.608126 0 0.323924)
(-0.659496 6.23383e-19 0.318452)
(0.726659 6.27634e-19 -0.533549)
(1.7675 0 -1.05638)
(1.794 0 -1.05683)
(2.22791 0 -1.29018)
(1.38231 0 -0.639526)
(-2.06561 -4.5627e-21 1.54521)
(-7.31579 0 4.6556)
(-11.9121 -2.37067e-19 7.19928)
(-14.3536 0 8.42307)
(-14.6735 1.14096e-18 8.4173)
(-13.1145 -9.82716e-19 7.35757)
(-10.3118 -1.38765e-18 5.64592)
(-7.10266 -1.62397e-18 3.78117)
(-3.79151 0 1.93045)
(-1.67785 0 0.813138)
(-0.394762 -7.00728e-18 0.0986792)
(1.05433 3.20698e-18 -0.623473)
(-0.0707451 3.06146e-18 0.0462486)
(0.770883 -2.82163e-18 -0.473422)
(33.8446 0 -1.82214)
(34.2469 3.26466e-20 -2.03905)
(34.0212 0 -2.82807)
(32.6248 0 -3.92152)
(30.0504 0 -4.8919)
(26.6761 0 -5.45732)
(22.9817 0 -5.55686)
(19.3561 3.00123e-20 -5.28081)
(16.0372 3.26605e-20 -4.77059)
(13.1286 7.03879e-20 -4.15207)
(10.6428 -7.43089e-20 -3.51162)
(8.54595 -7.74346e-20 -2.89878)
(6.78809 -7.94333e-20 -2.33745)
(5.31782 0 -1.83685)
(4.09013 0 -1.39681)
(3.06601 -1.62342e-19 -1.01612)
(2.21226 -1.61487e-19 -0.689093)
(1.50232 0 -0.410665)
(0.912803 7.9027e-20 -0.175905)
(0.426985 1.55471e-19 0.02218)
(0.0281345 0 0.185055)
(-0.296929 1.48546e-19 0.319181)
(-0.558646 0 0.427611)
(-0.766746 -2.70765e-22 0.514008)
(-0.929447 -1.36993e-19 0.581198)
(-1.05362 -2.08375e-23 0.631938)
(-1.14455 0 0.669356)
(-1.2081 1.24997e-19 0.695523)
(-1.24967 -2.4102e-19 0.709235)
(-1.27208 -4.6562e-19 0.712892)
(-1.27899 -2.24581e-19 0.709528)
(-1.27241 0 0.701441)
(-1.25506 -2.08296e-19 0.688541)
(-1.22924 0 0.672187)
(-1.19674 0 0.652851)
(-1.15891 0 0.631202)
(-1.11725 0 0.607837)
(-1.07263 0 0.583112)
(-1.02601 8.73708e-23 0.557669)
(-0.978422 -3.13902e-19 0.531823)
(-0.93023 0 0.505652)
(-0.881907 -5.76042e-19 0.479481)
(-0.833867 0 0.453427)
(-0.786214 0 0.42758)
(-0.739307 0 0.402206)
(-0.693526 4.82607e-19 0.377536)
(-0.649311 0 0.353951)
(-0.607556 0 0.332028)
(-0.569137 0 0.312221)
(-0.534926 0 0.295016)
(-0.505767 7.66203e-19 0.280755)
(-0.481973 0 0.269423)
(-0.463335 0 0.260681)
(-0.448773 3.32038e-19 0.253576)
(-0.436054 0 0.246514)
(-0.421792 0 0.237243)
(-0.40105 1.14776e-18 0.222627)
(-0.367642 -5.46282e-19 0.199025)
(-0.314927 0 0.162863)
(-0.237103 0 0.111555)
(-0.131517 0 0.0448066)
(-0.000480788 -4.46091e-19 -0.0346268)
(0.147994 0 -0.121033)
(0.301246 0 -0.207022)
(0.447507 -1.51917e-18 -0.286944)
(0.579801 1.43804e-18 -0.35922)
(0.703948 0 -0.4298)
(0.835335 0 -0.509776)
(1.00114 0 -0.614804)
(1.22224 5.77126e-19 -0.755659)
(1.51979 -5.45361e-19 -0.939487)
(1.8769 -1.02805e-18 -1.1514)
(2.26654 -9.64752e-19 -1.36862)
(2.59778 -9.01793e-19 -1.53485)
(2.78633 8.41515e-19 -1.60388)
(2.72024 0 -1.51488)
(2.38049 0 -1.28319)
(1.8463 6.93582e-19 -0.966916)
(1.28759 0 -0.6657)
(0.881028 0 -0.456517)
(0.604075 0 -0.308297)
(0.378371 0 -0.196679)
(0.371474 0 -0.214625)
(0.41047 -1.88473e-18 -0.217242)
(0.158 0 -0.055419)
(-0.0914088 -8.22813e-19 0.103993)
(-0.61422 0 0.46045)
(-1.6354 2.4581e-22 1.08946)
(-2.70578 1.32547e-18 1.69927)
(-3.64658 0 2.12025)
(-2.9185 0 1.51607)
(-1.4391 0 0.490669)
(2.25935 0 -1.74821)
(3.95816 8.60405e-19 -2.83696)
(11.0142 0 -6.35984)
(5.71742 0 -3.28034)
(11.6206 0 -6.4167)
(3.79681 0 -1.41302)
(-0.939899 0 0.720914)
(-0.719861 0 0.380812)
(-0.668244 0 0.289341)
(0.903925 0 -0.695656)
(2.15552 -5.21767e-19 -1.30336)
(2.20961 0 -1.30414)
(2.55829 0 -1.46887)
(1.22078 0 -0.440606)
(-3.20703 5.05737e-19 2.40296)
(-9.40741 0 6.07819)
(-14.3335 1.10382e-19 8.73901)
(-16.5393 0 9.73089)
(-16.465 -8.21002e-21 9.43151)
(-14.491 0 8.06203)
(-11.3238 1.28194e-18 6.10422)
(-7.78714 0 4.04255)
(-4.14539 0 2.02046)
(-1.64551 0 0.728651)
(-0.308046 3.27041e-18 -0.0070196)
(1.33408 -5.98771e-18 -0.7888)
(-0.0169363 -5.7156e-18 0.0216141)
(0.962745 -2.63439e-18 -0.599312)
(33.5203 0 -2.11457)
(33.8158 -3.49584e-20 -2.24469)
(34.0379 0 -2.67922)
(33.6933 0 -3.43663)
(32.4769 -2.70428e-20 -4.31358)
(30.3899 -2.66082e-20 -5.05672)
(27.6354 2.74958e-20 -5.4998)
(24.4944 -8.66477e-20 -5.5965)
(21.2406 0 -5.39021)
(18.0895 1.59843e-23 -4.96748)
(15.1788 3.49168e-20 -4.41911)
(12.5753 0 -3.81872)
(10.2954 0 -3.21692)
(8.32548 0 -2.64485)
(6.63849 0 -2.11817)
(5.20279 3.08129e-22 -1.64521)
(3.98625 2.68366e-22 -1.2271)
(2.95982 7.50059e-20 -0.862315)
(2.09676 7.40534e-20 -0.547875)
(1.37521 0 -0.278395)
(0.775143 -1.42889e-19 -0.0512667)
(0.279043 -1.40009e-19 0.139171)
(-0.127505 0 0.296557)
(-0.457442 -1.84795e-22 0.425054)
(-0.721942 1.11728e-22 0.528306)
(-0.93055 -1.25363e-19 0.609666)
(-1.09148 0 0.67213)
(-1.21231 0 0.718016)
(-1.29884 2.27092e-19 0.751283)
(-1.35772 1.56136e-22 0.771113)
(-1.39293 4.22987e-19 0.77934)
(-1.4092 0 0.777629)
(-1.40836 3.9228e-19 0.770881)
(-1.39439 0 0.758707)
(-1.36987 0 0.742077)
(-1.33675 -1.743e-19 0.721902)
(-1.29715 0 0.698977)
(-1.25243 -3.21174e-19 0.673802)
(-1.20395 8.64701e-23 0.647239)
(-1.15316 2.95352e-19 0.619711)
(-1.1007 0 0.59137)
(-1.04728 5.63109e-23 0.562666)
(-0.993532 0 0.533787)
(-0.939709 0 0.50489)
(-0.886309 0 0.476344)
(-0.833863 0 0.448465)
(-0.782931 0 0.421744)
(-0.734592 4.14353e-19 0.396894)
(-0.689914 0 0.374458)
(-0.649947 0 0.355013)
(-0.615713 -3.60221e-19 0.33894)
(-0.587623 0 0.326185)
(-0.565464 -3.27486e-19 0.3163)
(-0.548002 -3.12092e-19 0.308105)
(-0.532653 5.94645e-19 0.299647)
(-0.515478 0 0.288208)
(-0.490763 -5.39205e-19 0.270067)
(-0.451339 -5.13202e-19 0.24098)
(-0.389518 0 0.196873)
(-0.298548 0 0.13494)
(-0.175202 0 0.0550974)
(-0.0218507 4.18854e-19 -0.0392396)
(0.152717 0 -0.141372)
(0.334255 0 -0.24291)
(0.509314 7.12935e-19 -0.337658)
(0.669358 -1.34959e-18 -0.424179)
(0.820286 0 -0.509605)
(0.978471 0 -0.606625)
(1.17437 0 -0.73281)
(1.43082 0 -0.89966)
(1.77267 -5.11514e-19 -1.11442)
(2.18213 9.639e-19 -1.35961)
(2.63227 0 -1.60944)
(3.02475 0 -1.80126)
(3.26617 -7.88668e-19 -1.88342)
(3.22468 0 -1.7863)
(2.86236 -6.90203e-19 -1.52253)
(2.25034 6.49951e-19 -1.15303)
(1.57489 0 -0.79073)
(1.05684 0 -0.529151)
(0.702262 0 -0.344296)
(0.430637 0 -0.217045)
(0.424593 0 -0.246132)
(0.478612 8.8222e-19 -0.24825)
(0.179589 0 -0.0494876)
(-0.146588 1.54031e-18 0.163084)
(-0.800564 0 0.619605)
(-2.01856 2.24416e-22 1.37833)
(-3.26584 9.46377e-23 2.08275)
(-4.29583 0 2.49959)
(-3.43564 1.12655e-18 1.74072)
(-1.72917 0 0.505127)
(2.45884 0 -2.00662)
(3.28654 -1.61253e-18 -2.70252)
(12.4302 0 -7.2109)
(5.80274 0 -3.34361)
(13.4408 0 -7.42183)
(5.17947 0 -1.86198)
(-0.64138 0 0.673849)
(-0.797363 0 0.422374)
(-0.622399 0 0.219473)
(1.0816 0 -0.871117)
(2.53238 4.87459e-19 -1.55061)
(2.61063 0 -1.54099)
(2.79086 0 -1.57213)
(0.863105 0 -0.0839911)
(-4.54895 -4.80366e-19 3.43391)
(-11.5046 -2.10192e-19 7.54304)
(-16.4317 -1.00131e-19 10.0976)
(-18.2008 1.75159e-19 10.7169)
(-17.7271 -8.21877e-21 10.0874)
(-15.4145 -8.3302e-19 8.45693)
(-12.0139 -2.38657e-18 6.33539)
(-8.26532 0 4.14989)
(-4.42325 3.04763e-18 2.03537)
(-1.5317 3.04898e-18 0.576713)
(-0.180124 0 -0.146357)
(1.61873 2.79466e-18 -0.956198)
(0.0565658 2.66747e-18 -0.013611)
(1.16785 2.459e-18 -0.735843)
(33.2827 0 -2.27392)
(33.4386 1.73044e-20 -2.41207)
(33.6815 0 -2.68564)
(33.753 0 -3.17661)
(33.3673 2.54634e-20 -3.84026)
(32.3545 2.5049e-20 -4.53904)
(30.6853 -2.58799e-20 -5.12286)
(28.4454 8.36512e-20 -5.48581)
(25.7923 0 -5.58649)
(22.9116 3.15449e-20 -5.44039)
(19.9794 -6.53945e-20 -5.0979)
(17.1378 0 -4.6218)
(14.4845 6.93464e-20 -4.07123)
(12.074 0 -3.49422)
(9.92752 7.11352e-20 -2.92444)
(8.04416 7.1575e-20 -2.38471)
(6.40934 7.12549e-20 -1.88774)
(5.00234 -7.06061e-20 -1.43971)
(3.79962 -1.39225e-19 -1.04283)
(2.77857 0 -0.69518)
(1.91743 1.34507e-19 -0.395384)
(1.1957 0 -0.139266)
(0.595546 0 0.0768706)
(0.10062 -1.24953e-19 0.257083)
(-0.303529 2.42698e-19 0.405379)
(-0.629561 0 0.525561)
(-0.888613 0 0.621097)
(-1.0907 0 0.695154)
(-1.24456 -2.13339e-19 0.75051)
(-1.35703 2.06189e-19 0.790928)
(-1.43578 -1.78512e-22 0.81769)
(-1.48612 1.91502e-19 0.830601)
(-1.51339 -3.68849e-19 0.83105)
(-1.52037 1.77394e-19 0.826383)
(-1.5114 -1.70571e-19 0.815302)
(-1.48939 7.91169e-23 0.799022)
(-1.45721 0 0.778668)
(-1.41686 3.02068e-19 0.754903)
(-1.37023 2.89724e-19 0.728845)
(-1.31934 -2.77737e-19 0.701059)
(-1.26521 0 0.671781)
(-1.20883 2.548e-19 0.641623)
(-1.15116 2.43852e-19 0.610858)
(-1.09267 2.33322e-19 0.579733)
(-1.03402 2.23138e-19 0.548742)
(-0.975959 0 0.518299)
(-0.919174 0 0.489025)
(-0.864941 -2.63642e-23 0.461778)
(-0.814541 0 0.437194)
(-0.769205 0 0.415938)
(-0.730148 -3.38366e-19 0.398423)
(-0.697893 3.22655e-19 0.384545)
(-0.672242 3.07568e-19 0.373726)
(-0.65184 1.69573e-24 0.364544)
(-0.633782 -2.06526e-24 0.35467)
(-0.613626 0 0.340912)
(-0.584948 0 0.318974)
(-0.539685 9.63425e-19 0.284049)
(-0.469193 0 0.231638)
(-0.365844 0 0.158815)
(-0.225829 -4.13967e-19 0.0658108)
(-0.0514634 0 -0.0432454)
(0.147931 0 -0.160688)
(0.356809 7.06363e-19 -0.277244)
(0.560232 -6.68758e-19 -0.38632)
(0.74802 1.26567e-18 -0.486745)
(0.925763 0 -0.586822)
(1.11015 -5.66656e-19 -0.700682)
(1.33426 0 -0.847483)
(1.62243 0 -1.03916)
(2.00312 9.58775e-19 -1.28275)
(2.45869 0 -1.55847)
(2.96382 0 -1.83795)
(3.41612 0 -2.05354)
(3.71573 0 -2.14925)
(3.71297 0 -2.04748)
(3.34691 6.46326e-19 -1.75674)
(2.67171 8.34225e-23 -1.3378)
(1.88117 -5.74728e-19 -0.914381)
(1.24226 5.41053e-19 -0.597508)
(0.801852 0 -0.374749)
(0.482891 0 -0.234973)
(0.47728 0 -0.278161)
(0.547401 0 -0.27796)
(0.202485 0 -0.0385418)
(-0.212732 2.98548e-22 0.237576)
(-1.00996 0 0.806371)
(-2.42328 -6.19666e-19 1.69603)
(-3.83013 8.80095e-24 2.4801)
(-4.91238 0 2.85859)
(-3.90867 -1.05331e-18 1.92331)
(-1.97777 0 0.46516)
(2.56197 9.09744e-19 -2.20389)
(2.36432 -3.18323e-21 -2.47838)
(13.6358 0 -7.97413)
(5.62226 0 -3.27167)
(15.0046 0 -8.31687)
(6.70756 0 -2.33038)
(-0.166917 5.6261e-19 0.576644)
(-0.82237 0 0.442409)
(-0.526589 0 0.112451)
(1.25761 5.10954e-19 -1.05856)
(2.89312 0 -1.7959)
(2.98648 -4.24904e-19 -1.75868)
(2.90818 4.03664e-19 -1.58525)
(0.306652 0 0.433781)
(-6.04852 9.00498e-19 4.60953)
(-13.5141 -1.09563e-21 8.98599)
(-18.1202 1.84568e-19 11.2149)
(-19.3511 -1.63549e-19 11.3967)
(-18.5365 -4.46668e-19 10.4737)
(-15.9811 7.77737e-19 8.64826)
(-12.4706 1.11064e-18 6.42839)
(-8.5933 1.303e-18 4.16264)
(-4.65337 -2.84503e-18 2.00674)
(-1.37799 -2.84618e-18 0.392266)
(-0.0240082 -2.84599e-18 -0.30816)
(1.90459 -2.60828e-18 -1.12253)
(0.149625 0 -0.056782)
(1.38697 0 -0.884247)
(33.0735 0 -2.36514)
(33.1483 1.86931e-20 -2.51723)
(33.3104 0 -2.73225)
(33.4579 0 -3.06626)
(33.4275 0 -3.53502)
(33.0596 0 -4.09414)
(32.2385 2.84326e-20 -4.65628)
(30.9143 -2.70019e-20 -5.12629)
(29.1057 2.90137e-20 -5.43178)
(26.889 -5.89563e-20 -5.53702)
(24.3786 6.14736e-20 -5.44169)
(21.705 0 -5.17164)
(18.9952 -6.51891e-20 -4.76721)
(16.3569 0 -4.27346)
(13.8705 -6.68756e-20 -3.73181)
(11.5868 -6.67153e-20 -3.17707)
(9.5309 0 -2.63507)
(7.70911 0 -2.12329)
(6.11465 6.53601e-20 -1.65274)
(4.7338 0 -1.2282)
(3.54894 0 -0.852254)
(2.54057 -1.23247e-19 -0.523818)
(1.68962 0 -0.240728)
(0.977506 0 0.00019518)
(0.386952 -1.14031e-19 0.202637)
(-0.0978167 0 0.370456)
(-0.491042 0 0.507394)
(-0.805617 0 0.617129)
(-1.05303 4.00956e-19 0.70306)
(-1.24317 0 0.768252)
(-1.38473 -1.58329e-22 0.816237)
(-1.48596 -1.57102e-22 0.850183)
(-1.55362 1.73286e-19 0.86782)
(-1.59357 -1.66718e-19 0.872026)
(-1.61034 3.20513e-19 0.869211)
(-1.60768 1.53995e-19 0.859679)
(-1.58981 0 0.844352)
(-1.55958 0 0.824138)
(-1.5196 2.72034e-19 0.800467)
(-1.47258 -2.60766e-19 0.774078)
(-1.42007 0 0.745301)
(-1.36348 0 0.714943)
(-1.30419 -4.14309e-23 0.683391)
(-1.24294 -2.19125e-19 0.651001)
(-1.18066 -2.09544e-19 0.618417)
(-1.11831 -4.00529e-19 0.586169)
(-1.05678 0 0.555021)
(-0.997544 -2.56672e-23 0.525991)
(-0.942118 0 0.49981)
(-0.891924 0 0.477232)
(-0.848383 3.17584e-19 0.458694)
(-0.812153 -3.0281e-19 0.444028)
(-0.783077 0 0.432512)
(-0.759711 2.74996e-19 0.422462)
(-0.738878 -1.85593e-24 0.41116)
(-0.715688 0 0.394936)
(-0.683095 0 0.368938)
(-0.632245 -9.03624e-19 0.327844)
(-0.553651 0 0.266813)
(-0.438891 0 0.182908)
(-0.28358 7.76315e-19 0.0767835)
(-0.0898621 0 -0.0466614)
(0.132647 0 -0.17882)
(0.367411 -1.32426e-18 -0.309632)
(0.598201 6.2678e-19 -0.432249)
(0.813128 -5.93073e-19 -0.545887)
(1.01708 0 -0.659994)
(1.22639 5.30911e-19 -0.790021)
(1.47611 0 -0.956384)
(1.79167 -4.75297e-19 -1.17126)
(2.20505 -4.49026e-19 -1.44121)
(2.69988 0 -1.74451)
(3.25371 0 -2.05051)
(3.76351 7.42721e-19 -2.28794)
(4.12562 6.92519e-19 -2.39735)
(4.17552 0 -2.29448)
(3.82657 0 -1.98239)
(3.10717 -1.1393e-18 -1.51883)
(2.20735 5.37824e-19 -1.03541)
(1.44046 -1.01269e-18 -0.661464)
(0.906487 0 -0.400519)
(0.538541 0 -0.251948)
(0.531954 0 -0.311939)
(0.617526 0 -0.306548)
(0.22701 0 -0.021648)
(-0.290444 2.96279e-22 0.329943)
(-1.24247 0 1.02289)
(-2.84616 0 2.04186)
(-4.38952 -9.80625e-23 2.88552)
(-5.48478 0 3.18884)
(-4.32345 -9.83417e-19 2.05363)