/*--------------------------------*- C++ -*----------------------------------*\
| =========                 |                                                 |
| \\      /  F ield         | OpenFOAM: The Open Source CFD Toolbox           |
|  \\    /   O peration     | Version:  2412                                  |
|   \\  /    A nd           | Website:  www.openfoam.com                      |
|    \\/     M anipulation  |                                                 |
\*---------------------------------------------------------------------------*/
FoamFile
{
    version     2.0;
    format      ascii;
    arch        "LSB;label=32;scalar=64";
    class       surfaceScalarField;
    location    "0.615";
    object      phi_0;
}
// * * * * * * * * * * * * * * * * * * * * * * * * * * * * * * * * * * * * * //

dimensions      [0 3 -1 0 0 0 0];

oriented        oriented;

internalField   nonuniform List<scalar> 
24930
(
0.0179685
0.0127547
-0.0307246
0.0106052
0.00736333
0.00695476
0.00365042
0.00517867
0.00177609
0.00420654
0.000972135
0.00358356
0.000622978
0.00313758
0.00044598
0.002798
0.000339571
0.00252877
0.000269233
0.00230881
0.00021996
0.00212496
0.000183844
0.0019685
0.000156459
0.00183338
0.000135125
0.00171524
0.000118138
0.00161088
0.000104362
0.00151786
9.3015e-05
0.00143432
8.35406e-05
0.00135878
7.55366e-05
0.00129008
6.87044e-05
0.00122726
6.28189e-05
0.00116955
5.77074e-05
0.00111632
5.32357e-05
0.00106702
4.92977e-05
0.00102121
4.58092e-05
0.000978508
4.27021e-05
0.000938587
3.99211e-05
0.000901166
3.74207e-05
0.000866003
3.51634e-05
0.000832885
3.31178e-05
0.000801627
3.12576e-05
0.000772067
2.95607e-05
0.000744058
2.80082e-05
0.000717474
2.65841e-05
0.0006922
2.52744e-05
0.000668132
2.40674e-05
0.000645179
2.29526e-05
0.000623258
2.19213e-05
0.000602293
2.09651e-05
0.000582214
2.0078e-05
0.000562961
1.92528e-05
0.000544475
1.84857e-05
0.000526705
1.77702e-05
0.0005096
1.71042e-05
0.000493118
1.64815e-05
0.000477216
1.59019e-05
0.000461857
1.53587e-05
0.000447003
1.48538e-05
0.000432623
1.43795e-05
0.000418683
1.39399e-05
0.000405157
1.35259e-05
0.000392013
1.31443e-05
0.000379229
1.27836e-05
0.000366775
1.24539e-05
0.000354634
1.21409e-05
0.000342776
1.18582e-05
0.000331188
1.15884e-05
0.000319839
1.13486e-05
0.000308721
1.11181e-05
0.000297803
1.0918e-05
0.000287079
1.07238e-05
0.000276519
1.05603e-05
0.000266119
1.03998e-05
0.000255849
1.02702e-05
0.000245708
1.01411e-05
0.000235666
1.00424e-05
0.000225724
9.9427e-06
0.000215852
9.87204e-06
0.000206052
9.80009e-06
0.000196298
9.75388e-06
0.00018659
9.70834e-06
0.000176908
9.68201e-06
0.000167247
9.66165e-06
0.000157598
9.64896e-06
0.000147945
9.65245e-06
0.0001383
9.64521e-06
0.000128628
9.67177e-06
0.000118968
9.65968e-06
0.000109258
9.70978e-06
9.95792e-05
9.67927e-06
8.98244e-05
9.75494e-06
8.0137e-05
9.68756e-06
7.03422e-05
9.79507e-06
6.06732e-05
9.66927e-06
5.08542e-05
9.81936e-06
4.12455e-05
9.60899e-06
3.14265e-05
9.81941e-06
2.19285e-05
9.49822e-06
1.21421e-05
9.78658e-06
2.78829e-06
9.35405e-06
-6.92799e-06
9.71663e-06
-1.60937e-05
9.16618e-06
-2.58107e-05
9.71736e-06
-3.47504e-05
8.93976e-06
-4.45027e-05
9.75229e-06
-5.33065e-05
8.80483e-06
-6.33301e-05
1.00235e-05
-7.21356e-05
8.80363e-06
-8.24667e-05
1.03323e-05
-9.08699e-05
8.40624e-06
-0.000100886
1.00119e-05
-0.000109608
8.72318e-06
-0.000122971
1.33658e-05
-0.000132826
9.84532e-06
-0.000159191
2.63652e-05
-0.000197057
3.78698e-05
-0.00017358
-2.34997e-05
-0.000203424
2.98431e-05
-0.000358254
0.000154837
-0.000304215
-5.40574e-05
-3.97006e-05
-0.000264536
-0.000163861
0.00012416
-0.000709735
0.000545887
-0.000900229
0.000190506
-0.000551534
-0.000348693
-9.72624e-05
-0.000454278
0.000234343
-0.000331615
0.000413228
-0.000178895
0.000447238
-3.40111e-05
0.000384806
6.24317e-05
-4.44227e-05
0.0336789
0.0163169
-0.0372411
0.0277448
0.0132974
0.0221941
0.00920116
0.0179211
0.00604908
0.0148756
0.00401758
0.0127155
0.00278306
0.0111287
0.00203284
0.00991178
0.00155648
0.00894464
0.00123637
0.00815435
0.00101025
0.00749417
0.000844028
0.00693279
0.000717831
0.00644845
0.000619463
0.00602548
0.000541113
0.00565227
0.000477569
0.00532005
0.00042523
0.00502205
0.000381542
0.00475294
0.000344646
0.00450848
0.000313166
0.00428524
0.000286061
0.00408041
0.000262533
0.00389169
0.000241961
0.00371713
0.000223855
0.00355511
0.000207825
0.00340426
0.000193555
0.00326339
0.00018079
0.00313149
0.00016932
0.00300769
0.000158971
0.00289121
0.000149597
0.00278139
0.000141078
0.00267764
0.00013331
0.00257944
0.000126206
0.00248633
0.000119694
0.0023979
0.000113707
0.00231377
0.000108192
0.00223362
0.0001031
0.00215715
9.83914e-05
0.00208409
9.40276e-05
0.00201419
8.99794e-05
0.00194722
8.62162e-05
0.00188299
8.2717e-05
0.00182131
7.94556e-05
0.00176199
7.64183e-05
0.00170489
7.35813e-05
0.00164985
7.09376e-05
0.00159675
6.84637e-05
0.00154544
6.61595e-05
0.00149582
6.4e-05
0.00144777
6.1992e-05
0.00140119
6.01075e-05
0.00135597
5.83612e-05
0.00131203
5.672e-05
0.00126928
5.52074e-05
0.00122764
5.37837e-05
0.00118701
5.24819e-05
0.00114735
5.12547e-05
0.00110855
5.0145e-05
0.00107057
4.90971e-05
0.00103333
4.81641e-05
0.000996768
4.72814e-05
0.000960817
4.65114e-05
0.000925435
4.57818e-05
0.000890543
4.51624e-05
0.00085611
4.45752e-05
0.000822058
4.40941e-05
0.000788362
4.36396e-05
0.00075495
4.32843e-05
0.000721796
4.2954e-05
0.00068884
4.27105e-05
0.000656052
4.24965e-05
0.000623387
4.23473e-05
0.000590808
4.22409e-05
0.000558294
4.2163e-05
0.000525793
4.21537e-05
0.000493322
4.21169e-05
0.000460798
4.21951e-05
0.000428296
4.21622e-05
0.000395685
4.23199e-05
0.000363121
4.22437e-05
0.0003304
4.24754e-05
0.000297795
4.22929e-05
0.000264985
4.26053e-05
0.000232409
4.22451e-05
0.000199573
4.26567e-05
0.000167147
4.20349e-05
0.000134381
4.25863e-05
0.000102258
4.1622e-05
6.96837e-05
4.23615e-05
3.8008e-05
4.10302e-05
5.89441e-06
4.18307e-05
-2.54026e-05
4.04636e-05
-5.74329e-05
4.17481e-05
-8.79541e-05
3.94618e-05
-0.0001199
4.16994e-05
-0.000150014
3.89184e-05
-0.000182578
4.25873e-05
-0.000212613
3.8841e-05
-0.000245911
4.3629e-05
-0.000274474
3.69669e-05
-0.000307108
4.26507e-05
-0.000337029
3.86417e-05
-0.000380728
5.70616e-05
-0.000413287
4.2416e-05
-0.000503551
0.000116624
-0.000605975
0.000140293
-0.000539617
-8.98431e-05
-0.000662885
0.000153116
-0.00110306
0.00059501
-0.000881438
-0.000275655
-0.00014384
-0.00100213
-0.000622278
0.000602583
-0.00222715
0.00215076
-0.00267021
0.000633567
-0.00155283
-0.00146605
-0.000166362
-0.00184074
0.000834714
-0.0013327
0.00136627
-0.000710453
0.00144336
-0.00011111
0.00127886
0.000226934
-0.000199179
0.0414479
0.0160108
-0.0411418
0.0391603
0.015585
0.0352329
0.0131285
0.0309489
0.0103331
0.0270361
0.00793039
0.0237487
0.00607045
0.0210755
0.00470601
0.0189077
0.00372428
0.0171307
0.00301334
0.015652
0.00248894
0.0144027
0.00209335
0.0133325
0.00178806
0.0124044
0.0015475
0.0115911
0.00135441
0.0108718
0.00119692
0.0102304
0.00106666
0.00965432
0.000957569
0.00913376
0.000865213
0.00866066
0.000786261
0.00822854
0.00071818
0.00783206
0.000659015
0.00746678
0.000607237
0.007129
0.000561634
0.00681559
0.000521238
0.00652388
0.000485265
0.00625159
0.000453076
0.00599677
0.000424146
0.0057577
0.00039804
0.0055329
0.000374393
0.00532108
0.000352901
0.00512109
0.000333305
0.00493191
0.000315386
0.00475264
0.000298957
0.00458249
0.000283857
0.00442074
0.000269948
0.00426673
0.000257107
0.00411989
0.000245233
0.00397968
0.00023423
0.00384564
0.000224023
0.00371732
0.000214536
0.00359432
0.000205713
0.00347628
0.000197493
0.00336287
0.000189834
0.00325376
0.000182684
0.00314868
0.000176017
0.00304736
0.000169782
0.00294955
0.000163969
0.00285503
0.000158526
0.00276356
0.000153456
0.00267497
0.000148706
0.00258903
0.000144292
0.0025056
0.000140154
0.00242448
0.000136325
0.00234553
0.000132733
0.00226858
0.000129431
0.00219351
0.000126333
0.00212014
0.000123509
0.00204838
0.000120863
0.00197806
0.000118478
0.0019091
0.000116246
0.00184134
0.000114266
0.00177471
0.000112418
0.00170906
0.000110812
0.00164431
0.000109321
0.00158035
0.000108059
0.00151709
0.000106901
0.00145442
0.000105952
0.00139227
0.000105103
0.00133054
0.000104437
0.00126917
0.000103875
0.00120806
0.00010345
0.00114715
0.000103151
0.0010864
0.000102916
0.0010257
0.00010285
0.000965083
0.000102739
0.000904405
0.000102873
0.000843763
0.000102804
0.000782973
0.000103109
0.000722237
0.00010298
0.000661286
0.000103426
0.000600476
0.000103103
0.000539398
0.000103684
0.000478629
0.000103015
0.000417541
0.000103745
0.000357021
0.000102556
0.00029611
0.000103498
0.000236115
0.000101618
0.000175603
0.000102874
0.00011642
0.000100214
5.65426e-05
0.000101708
-1.73455e-06
9.87413e-05
-6.08901e-05
0.000100904
-0.000117992
9.65647e-05
-0.000176837
0.000100544
-0.00023316
9.52428e-05
-0.00029279
0.000102217
-0.000348771
9.48233e-05
-0.000409367
0.000104226
-0.00046249
9.00884e-05
-0.000522309
0.000102471
-0.000578297
9.46305e-05
-0.000657931
0.000136693
-0.00071874
0.000103227
-0.000883448
0.000281329
-0.00104708
0.000303924
-0.000941803
-0.000195121
-0.00118636
0.000397675
-0.00190135
0.00131
-0.00145981
-0.0007172
-0.000281713
-0.00218022
-0.00122378
0.00154466
-0.00389527
0.00482225
-0.00446289
0.0012012
-0.0024583
-0.00347064
-8.11149e-05
-0.00421792
0.00162295
-0.00303677
0.00251278
-0.00160029
0.00261783
-0.000216165
0.00236329
0.000481475
-0.000503636
0.04591
0.0147102
-0.0446094
0.0459946
0.0155004
0.0444178
0.0147053
0.0416966
0.0130544
0.0384554
0.0111715
0.035153
0.0093729
0.0320566
0.00780237
0.0292807
0.00650017
0.0268442
0.00544987
0.0247211
0.00461209
0.0228702
0.0039442
0.0212498
0.00340849
0.0198226
0.00297467
0.0185575
0.00261949
0.0174289
0.00232549
0.0164161
0.00207955
0.0155019
0.00187176
0.0146725
0.00169461
0.0139164
0.00154232
0.0132242
0.0014104
0.0125879
0.00129533
0.0120008
0.00119432
0.0114573
0.00110512
0.0109526
0.00102595
0.0104826
0.000955313
0.0100436
0.000892016
0.0096327
0.000835057
0.00924714
0.000783601
0.00888458
0.000736952
0.00854296
0.000694521
0.00822046
0.000655809
0.00791545
0.000620391
0.0076265
0.000587904
0.00735233
0.000558031
0.00709177
0.000530505
0.00684379
0.000505087
0.00660745
0.000481574
0.0063819
0.000459784
0.00616635
0.000439563
0.00596012
0.000420768
0.00576255
0.000403284
0.00557305
0.000386991
0.00539108
0.000371809
0.00521613
0.000357633
0.00504773
0.000344409
0.00488547
0.000332045
0.00472893
0.000320507
0.00457775
0.000309709
0.00443156
0.00029964
0.00429006
0.000290211
0.00415291
0.000281436
0.00401985
0.000273217
0.00389058
0.000265593
0.00376486
0.000258456
0.00364242
0.000251868
0.00352305
0.000245706
0.0034065
0.00024006
0.00329257
0.000234787
0.00318105
0.000230003
0.00307175
0.000225549
0.00296445
0.000221559
0.00285901
0.000217863
0.00275522
0.000214606
0.00265293
0.000211613
0.00255196
0.000209031
0.00245216
0.000206692
0.00235339
0.000204728
0.00225549
0.000202998
0.00215834
0.000201591
0.00206179
0.000200424
0.00196574
0.000199501
0.00187005
0.000198846
0.00177465
0.000198312
0.00167939
0.000198106
0.00158429
0.000197841
0.00148915
0.000198016
0.00139408
0.000197872
0.00129883
0.000198357
0.00120366
0.000198152
0.00110821
0.000198874
0.00101295
0.00019837
0.00091734
0.000199289
0.000822135
0.00019822
0.000726551
0.000199329
0.000631719
0.000197389
0.00053645
0.000198767
0.000442413
0.000195657
0.000347824
0.000197463
0.00025504
0.000192999
0.000161497
0.000195252
7.03017e-05
0.000189937
-2.1858e-05
0.000193065
-0.000111489
0.000186196
-0.000202944
0.000192001
-0.000291052
0.00018335
-0.000383278
0.000194444
-0.000470463
0.000182009
-0.000563657
0.000197419
-0.000646264
0.000172694
-0.000738772
0.00019498
-0.000826182
0.000182041
-0.000948022
0.00025853
-0.00104365
0.000198858
-0.00129112
0.000528797
-0.00151434
0.000527145
-0.00137685
-0.000332611
-0.00176487
0.000785698
-0.00273867
0.0022838
-0.00203164
-0.00142424
-0.000458765
-0.0037531
-0.00196425
0.00305015
-0.00567878
0.00853677
-0.00621971
0.00174211
-0.00321225
-0.00647809
0.000206942
-0.00763711
0.00263661
-0.00546644
0.00388542
-0.00284911
0.00400737
-0.00033812
0.00367694
0.000811911
-0.00100553
0.0493765
0.0135154
-0.0481817
0.0503411
0.0145358
0.0503608
0.0146857
0.0493407
0.0140744
0.0474985
0.0130137
0.0451264
0.0117449
0.0424961
0.0104327
0.0398137
0.00918251
0.0372141
0.0080495
0.0347716
0.00705456
0.0325185
0.0061973
0.0304608
0.00546627
0.0285899
0.00484549
0.0268911
0.00431832
0.0253472
0.00386939
0.0239413
0.00348541
0.0226578
0.00315525
0.0214827
0.00286977
0.0204035
0.00262151
0.0194095
0.00240442
0.0184913
0.00221356
0.0176406
0.00204493
0.0168506
0.0018952
0.0161148
0.00176167
0.0154281
0.00164207
0.0147856
0.00153452
0.0141832
0.00143746
0.0136172
0.00134956
0.0130845
0.00126969
0.0125821
0.0011969
0.0121075
0.00113038
0.0116585
0.00106944
0.0112329
0.00101346
0.010829
0.000961934
0.0104451
0.000914405
0.0100797
0.000870476
0.00973149
0.000829808
0.00939918
0.000792093
0.00908168
0.000757071
0.00877794
0.0007245
0.00848704
0.000694182
0.00820812
0.000665919
0.00794036
0.000639565
0.00768304
0.000614952
0.00743547
0.000591976
0.00719703
0.000570488
0.00696711
0.000550424
0.00674518
0.000531642
0.0065307
0.000514114
0.00632321
0.000497699
0.00612225
0.000482405
0.00592738
0.000468084
0.00573819
0.000454777
0.00555432
0.000442326
0.00537539
0.000430807
0.00520105
0.000420044
0.00503096
0.000410147
0.00486483
0.000400923
0.00470232
0.000392512
0.00454316
0.000384704
0.00438706
0.000377661
0.00423376
0.000371162
0.00408298
0.000365383
0.0039345
0.000360099
0.00378804
0.000355485
0.00364341
0.000351332
0.00350035
0.000347786
0.00335866
0.000344685
0.00321815
0.000342105
0.00307859
0.000339977
0.00293985
0.000338243
0.0028017
0.000336996
0.00266406
0.000335954
0.00252669
0.000335478
0.0023896
0.000334932
0.00225251
0.000335103
0.00211557
0.000334816
0.00197842
0.000335503
0.0018414
0.000335179
0.00170403
0.000336239
0.0015669
0.000335496
0.00142936
0.000336836
0.00129233
0.000335248
0.00115484
0.000336815
0.00101834
0.000333893
0.000881339
0.000335769
0.000745964
0.000331032
0.000609987
0.000333442
0.000476419
0.000326567
0.000342015
0.000329658
0.000210807
0.000321145
7.8387e-05
0.000325486
-5.02768e-05
0.000314861
-0.000181069
0.000322793
-0.000307483
0.000309765
-0.0004388
0.000325761
-0.000563284
0.000306494
-0.000695248
0.000329383
-0.000813032
0.000290477
-0.000944588
0.000326538
-0.00106942
0.000306877
-0.00124038
0.000429484
-0.0013779
0.000336379
-0.0017157
0.000866597
-0.00199656
0.000808008
-0.00183607
-0.000493106
-0.00238549
0.00133513
-0.00359388
0.00349218
-0.00258505
-0.00243308
-0.00067677
-0.00566137
-0.00282832
0.00520173
-0.00752143
0.0132299
-0.00786239
0.00208307
-0.00374527
-0.0105952
0.00074841
-0.0121308
0.00391949
-0.00863751
0.00552465
-0.00445427
0.00565538
-0.000468846
0.00526944
0.00119785
-0.00175899
0.0528356
0.012617
-0.0519372
0.0538645
0.0135069
0.0545492
0.014001
0.0546194
0.0140042
0.0540227
0.0136105
0.0528281
0.0129395
0.0511649
0.012096
0.0491792
0.0111682
0.0470057
0.010223
0.0447548
0.0093055
0.0425086
0.00844349
0.0403231
0.00765168
0.0382331
0.00693557
0.0362568
0.00629456
0.0344018
0.00572441
0.0326682
0.005219
0.031052
0.00477148
0.0295467
0.00437505
0.0281449
0.00402335
0.0268386
0.00371065
0.0256203
0.00343188
0.0244826
0.00318263
0.0234187
0.00295911
0.0224223
0.00275805
0.0214878
0.00257665
0.0206098
0.00241249
0.0197837
0.00226351
0.0190054
0.00212794
0.0182708
0.00200425
0.0175766
0.00189111
0.0169196
0.00178737
0.016297
0.00169206
0.0157062
0.00160429
0.0151448
0.00152331
0.0146107
0.00144847
0.014102
0.00137917
0.0136169
0.00131491
0.0131538
0.00125523
0.0127111
0.00119974
0.0122875
0.00114807
0.0118818
0.00109992
0.0114927
0.00105498
0.0111193
0.00101305
0.0107604
0.000973846
0.0104151
0.000937219
0.0100827
0.000902943
0.00976218
0.000870906
0.00945292
0.000840902
0.00915416
0.00081287
0.00886525
0.000786612
0.00858554
0.000762113
0.00831446
0.00073917
0.00805141
0.000717818
0.0077959
0.000697841
0.00754738
0.000679321
0.00730541
0.000662023
0.00706948
0.000646074
0.00683918
0.000631219
0.00661407
0.000617625
0.00639376
0.000605019
0.00617782
0.000593595
0.00596591
0.00058307
0.00575765
0.000573649
0.00555269
0.000565057
0.00535069
0.000557486
0.00515133
0.000550694
0.00495429
0.000544823
0.00475927
0.000539705
0.004566
0.000535378
0.00437417
0.000531808
0.00418357
0.000528841
0.00399389
0.000526674
0.00380501
0.000524833
0.0036166
0.000523893
0.00342865
0.000522884
0.00324078
0.000522972
0.00305316
0.000522434
0.00286533
0.000523333
0.00267769
0.000522818
0.00248964
0.000524287
0.00230192
0.000523225
0.00211367
0.000525084
0.00192609
0.000522829
0.00173795
0.000524954
0.00155108
0.000520768
0.00136362
0.000523224
0.00117827
0.000516381
0.000992263
0.000519454
0.000809401
0.00050943
0.000625634
0.000513425
0.000446101
0.000500678
0.000265149
0.000506439
8.94648e-05
0.000490546
-8.85237e-05
0.000500783
-0.00026106
0.000482302
-0.000439028
0.000503729
-0.00060795
0.000475418
-0.000785829
0.000507263
-0.000945437
0.000450085
-0.00112329
0.000504387
-0.00129227
0.00047586
-0.00151982
0.000657032
-0.00170651
0.000523074
-0.00214113
0.00130121
-0.00247749
0.00114437
-0.00230535
-0.000665253
-0.00302787
0.00205767
-0.00443973
0.00490403
-0.00310502
-0.00376781
-0.000930767
-0.00783561
-0.00378426
0.00805525
-0.00934616
0.0187918
-0.00929774
0.00203456
-0.00398051
-0.0159124
0.00160302
-0.0177143
0.00552359
-0.0125581
0.0074808
-0.00641148
0.0076162
-0.000604248
0.00720171
0.00161234
-0.00282356
0.0565567
0.0119297
-0.0558695
0.0574106
0.0126529
0.0582078
0.0132038
0.0587354
0.0134766
0.0588713
0.0134746
0.0585698
0.013241
0.0578402
0.0128256
0.0567303
0.0122781
0.0553085
0.0116448
0.0536501
0.0109639
0.0518283
0.0102652
0.0499086
0.00957145
0.0479453
0.00889884
0.0459815
0.00825837
0.0440491
0.00765677
0.0421707
0.00709743
0.0403608
0.00658131
0.0386283
0.00610762
0.0369772
0.00567443
0.0354087
0.00527915
0.0339217
0.00491887
0.0325138
0.00459056
0.0311816
0.0042913
0.0299214
0.00401828
0.0287291
0.00376892
0.0276007
0.00354086
0.0265322
0.00333197
0.0255199
0.00314033
0.0245599
0.00296422
0.0236489
0.00280212
0.0227836
0.00265267
0.021961
0.00251466
0.0211782
0.00238703
0.0204327
0.0022688
0.019722
0.00215915
0.0190439
0.00205729
0.0183963
0.00196258
0.0177771
0.00187438
0.0171847
0.00179218
0.0166172
0.00171548
0.0160733
0.00164387
0.0155513
0.00157693
0.01505
0.00151434
0.0145681
0.00145576
0.0141044
0.00140093
0.0136578
0.00134957
0.0132272
0.00130149
0.0128117
0.00125642
0.0124103
0.00121426
0.0120222
0.00117473
0.0116465
0.00113779
0.0112825
0.00110318
0.0109294
0.00107092
0.0105865
0.00104072
0.0102532
0.00101267
0.00992873
0.000986459
0.00961257
0.000962239
0.00930411
0.00093968
0.00900276
0.000918974
0.008708
0.000899777
0.00841929
0.00088231
0.00813613
0.000866228
0.00785802
0.000851759
0.0075845
0.000838575
0.00731511
0.000826877
0.00704941
0.000816394
0.00678698
0.00080725
0.00652741
0.000799283
0.00627032
0.000792466
0.0060153
0.000786828
0.00576207
0.000782072
0.0055102
0.000778548
0.00525951
0.00077552
0.00500956
0.000773848
0.00476032
0.000772123
0.00451128
0.000772006
0.00426265
0.000771066
0.00401381
0.00077217
0.00376526
0.00077137
0.00351622
0.000773323
0.00326761
0.00077184
0.00301835
0.000774342
0.00276994
0.000771242
0.00252084
0.000774055
0.00227333
0.000768271
0.00202514
0.000771419
0.00177963
0.000761889
0.00153338
0.000765711
0.00129117
0.000751633
0.00104799
0.000756612
0.000810327
0.000738341
0.000571098
0.000745669
0.000338933
0.000722711
0.000104186
0.000735531
-0.000123373
0.000709861
-0.000356729
0.000737086
-0.000578452
0.000697141
-0.00081052
0.000739332
-0.00101965
0.000659217
-0.00125201
0.000736744
-0.00147256
0.000696413
-0.00176468
0.000949153
-0.0020078
0.000766199
-0.00254451
0.00183792
-0.00293417
0.00153403
-0.00276285
-0.000836581
-0.00366234
0.00295717
-0.00524146
0.00648314
-0.00357164
-0.00543765
-0.00120482
-0.0102024
-0.00478015
0.0116306
-0.0110536
0.0250652
-0.0104178
0.00139922
-0.00383025
-0.0225
0.00284288
-0.0243874
0.00751222
-0.0172274
0.00981667
-0.00871594
0.00995761
-0.000745185
0.00954777
0.00202218
-0.00426303
0.060563
0.0113663
-0.0599996
0.0612477
0.0119682
0.0619628
0.0124887
0.0625855
0.0128539
0.0630183
0.0130418
0.0631973
0.0130621
0.0630869
0.012936
0.0626767
0.0126883
0.0619769
0.0123446
0.0610121
0.0119287
0.0598168
0.0114606
0.0584305
0.0109578
0.0568943
0.010435
0.0552483
0.00990437
0.0535293
0.00937576
0.0517697
0.00885706
0.0499967
0.00835431
0.0482324
0.0078719
0.046494
0.00741281
0.0447944
0.00697877
0.0431427
0.00657056
0.0415451
0.00618818
0.0400053
0.00583107
0.0385253
0.00549828
0.0371056
0.0051886
0.0357458
0.00490069
0.0344447
0.00463313
0.0332005
0.00438451
0.0320112
0.00415346
0.0308747
0.00393864
0.0297886
0.00373882
0.0287504
0.00355283
0.0277578
0.0033796
0.0268085
0.00321811
0.0259002
0.00306748
0.0250306
0.00292685
0.0241977
0.00279546
0.0233995
0.00267261
0.022634
0.00255768
0.0218994
0.00245007
0.021194
0.00234928
0.0205162
0.00225479
0.0198643
0.00216621
0.0192369
0.0020831
0.0186327
0.00200515
0.0180503
0.00193197
0.0174885
0.00186334
0.016946
0.00179889
0.0164218
0.00173848
0.0159147
0.00168176
0.0154239
0.00162867
0.0149482
0.00157886
0.0144868
0.00153234
0.0140387
0.00148876
0.0136032
0.00144819
0.0131794
0.00141026
0.0127665
0.00137513
0.0123638
0.00134238
0.0119705
0.00131225
0.011586
0.00128429
0.0112095
0.00125877
0.0108405
0.00123527
0.0104782
0.00121403
0.0101221
0.00119468
0.00977159
0.00117741
0.00942605
0.00116194
0.00908496
0.00114834
0.00874776
0.00113648
0.00841398
0.00112625
0.00808307
0.00111775
0.00775464
0.0011105
0.00742813
0.00110506
0.00710331
0.00110034
0.00677957
0.00109759
0.00645687
0.00109482
0.00613455
0.00109433
0.00581283
0.00109279
0.00549091
0.00109408
0.00516941
0.00109287
0.00484733
0.00109541
0.00452578
0.00109338
0.00420344
0.00109669
0.00388214
0.00109254
0.00355998
0.00109622
0.0032398
0.00108845
0.00291877
0.00109245
0.00260111
0.00107955
0.00228258
0.00108424
0.0019692
0.00106501
0.00165474
0.00107107
0.00134739
0.00104569
0.00103835
0.00105471
0.000738555
0.00102251
0.00043563
0.00103846
0.000142965
0.00100253
-0.000155882
0.00103593
-0.000440428
0.000981688
-0.000736215
0.00103512
-0.00100382
0.000926817
-0.00129992
0.00103284
-0.00158017
0.000976665
-0.00194521
0.0013142
-0.00225167
0.00107266
-0.00289435
0.0024806
-0.00333508
0.00197475
-0.00317696
-0.000994709
-0.00424794
0.00402817
-0.0059555
0.00819068
-0.0039569
-0.00743628
-0.00146746
-0.0126918
-0.00574075
0.0159039
-0.0125215
0.0318459
-0.011101
-2.05887e-05
-0.00319646
-0.0304046
0.00455377
-0.0321376
0.00996287
-0.0226365
0.0126108
-0.0113639
0.0127637
-0.000898136
0.0123972
0.00238873
-0.00614356
0.0648482
0.0108816
-0.0643635
0.0654139
0.0114024
0.066022
0.0118806
0.0666073
0.0122686
0.0671073
0.0125419
0.0674733
0.012696
0.0676702
0.0127391
0.0676739
0.0126845
0.0674712
0.0125472
0.0670583
0.0123416
0.0664386
0.0120803
0.0656226
0.0117737
0.0646262
0.0114314
0.0634692
0.0110614
0.0621742
0.0106708
0.0607652
0.010266
0.0592666
0.00985297
0.0577016
0.00943687
0.056092
0.00902239
0.0544572
0.00861357
0.052814
0.00821375
0.0511766
0.00782562
0.0495564
0.0074512
0.0479628
0.00709193
0.0464027
0.00674873
0.0448813
0.00642206
0.0434024
0.00611203
0.0419684
0.0058185
0.0405808
0.00554108
0.0392402
0.00527927
0.0379465
0.00503244
0.0366995
0.00479991
0.0354981
0.00458098
0.0343413
0.00437491
0.0332278
0.004181
0.0321561
0.00399853
0.0311247
0.00382684
0.030132
0.00366527
0.0291765
0.00351323
0.0282565
0.00337011
0.0273703
0.0032354
0.0265165
0.00310857
0.0256936
0.00298918
0.0248999
0.00287675
0.0241341
0.00277094
0.0233948
0.00267129
0.0226806
0.00257755
0.0219902
0.00248929
0.0213223
0.00240635
0.0206758
0.0023283
0.0200494
0.00225506
0.019442
0.00218622
0.0188526
0.00212179
0.01828
0.00206131
0.0177233
0.00200489
0.0171815
0.00195206
0.0166537
0.00190301
0.0161388
0.00185724
0.0156361
0.001815
0.0151446
0.00177577
0.0146635
0.00173985
0.014192
0.00170674
0.0137293
0.00167671
0.0132747
0.00164932
0.0128273
0.00162477
0.0123865
0.00160275
0.0119516
0.00158328
0.0115218
0.00156628
0.0110965
0.0015515
0.0106751
0.00153917
0.010257
0.00152858
0.00984157
0.00152053
0.0094284
0.00151351
0.00901674
0.00150925
0.00860653
0.00150503
0.00819689
0.00150397
0.00778809
0.00150159
0.00737912
0.00150306
0.0069707
0.0015013
0.00656157
0.00150454
0.0061531
0.00150185
0.0057436
0.00150618
0.00533537
0.00150077
0.00492602
0.00150558
0.00451908
0.00149539
0.00411106
0.00150048
0.0037072
0.0014834
0.00330229
0.00148916
0.00290383
0.00146347
0.00250415
0.00147075
0.00211353
0.00143632
0.00172109
0.00144715
0.00134059
0.00140301
0.000956632
0.00142241
0.000586591
0.00137257
0.000209612
0.00141291
-0.000148931
0.00134023
-0.00051916
0.00140535
-0.000855641
0.0012633
-0.00122578
0.00140299
-0.00157457
0.00132545
-0.00202112
0.00176074
-0.00239712
0.00144867
-0.00314823
0.0032317
-0.00363759
0.00246411
-0.00350342
-0.00112888
-0.0047303
0.00525507
-0.00652721
0.00998757
-0.0042202
-0.00974331
-0.00166659
-0.0152454
-0.00656511
0.0208025
-0.013604
0.0388847
-0.0112139
-0.00241137
-0.00196806
-0.0396504
0.00683888
-0.0409446
0.012971
-0.0287686
0.0159607
-0.0143536
0.0161381
-0.00107548
0.0158577
0.00266902
-0.00853142
0.0694213
0.0104539
-0.0689936
0.0699051
0.0109187
0.070426
0.0113597
0.0709483
0.0117462
0.0714324
0.0120578
0.0718444
0.012284
0.0721584
0.0124251
0.072355
0.012488
0.0724201
0.0124821
0.0723437
0.0124179
0.0721191
0.0123049
0.0717423
0.0121505
0.0712128
0.0119609
0.070533
0.0117412
0.0697082
0.0114955
0.068747
0.0112273
0.0676604
0.0109396
0.0664617
0.0106355
0.065166
0.0103181
0.0637889
0.00999063
0.0623465
0.00965616
0.0608543
0.0093178
0.0593271
0.00897846
0.0577782
0.00864083
0.0562196
0.00830727
0.0546619
0.0079798
0.0531138
0.0076601
0.0515828
0.0073495
0.0500749
0.00704899
0.0485949
0.0067593
0.0471464
0.0064809
0.0457323
0.00621403
0.0443545
0.00595878
0.0430143
0.0057151
0.0417125
0.00548282
0.0404493
0.00526169
0.0392248
0.00505141
0.0380384
0.00485162
0.0368897
0.00466197
0.0357778
0.00448203
0.0347017
0.00431143
0.0336605
0.00414975
0.0326531
0.00399664
0.0316782
0.00385165
0.0307346
0.00371449
0.0298212
0.00358472
0.0289366
0.00346212
0.0280797
0.00334623
0.0272491
0.00323691
0.0264437
0.00313369
0.0256623
0.00303652
0.0249036
0.00294491
0.0241665
0.00285891
0.0234498
0.00277799
0.0227524
0.00270228
0.0220732
0.00263124
0.0214111
0.0025651
0.0207651
0.00250326
0.0201341
0.00244602
0.0195171
0.00239279
0.018913
0.00234388
0.018321
0.00229874
0.0177401
0.00225765
0.0171693
0.00222012
0.0166077
0.00218634
0.0160545
0.002156
0.0155087
0.00212905
0.0149695
0.00210547
0.0144362
0.00208483
0.0139078
0.00206757
0.0133838
0.00205263
0.0128631
0.00204118
0.0123454
0.00203116
0.0118298
0.00202489
0.0113161
0.00201878
0.0108031
0.00201691
0.0102913
0.00201344
0.00977922
0.0020151
0.00926785
0.00201266
0.00875557
0.00201681
0.00824406
0.00201337
0.00773119
0.00201905
0.00721978
0.00201218
0.00670688
0.00201849
0.00619685
0.00200541
0.00568537
0.00201196
0.00517895
0.00198981
0.00467118
0.00199693
0.00417139
0.00196326
0.00367018
0.00197196
0.00318035
0.00192615
0.00268858
0.00193892
0.00221204
0.00187954
0.00173183
0.00190263
0.00126992
0.00183447
0.000800143
0.00188269
0.00035544
0.00178494
-0.000101464
0.00186226
-0.000519669
0.0016815
-0.000975186
0.00185851
-0.00140208
0.00175235
-0.00193877
0.00229743
-0.00238951
0.00189941
-0.00325006
0.00409224
-0.00378481
0.00299886
-0.00368218
-0.00123151
-0.00503923
0.00661214
-0.00688763
0.0118359
-0.00430251
-0.0123285
-0.00172451
-0.0178233
-0.0071254
0.0262034
-0.0141342
0.0458935
-0.0106078
-0.00593823
-6.40088e-06
-0.0502517
0.00982245
-0.0507734
0.0166541
-0.0356003
0.0199868
-0.0176863
0.0202067
-0.00129534
0.0200585
0.00281722
-0.0114901
0.0743018
0.0100708
-0.0739187
0.0747264
0.0104941
0.0751813
0.0109048
0.0756459
0.0112817
0.0760943
0.0116094
0.0765019
0.0118764
0.076849
0.0120781
0.0771208
0.0122161
0.077307
0.0122958
0.0774004
0.0123246
0.0773952
0.0123102
0.0772862
0.0122595
0.0770692
0.0121779
0.0767402
0.0120701
0.0762963
0.0119395
0.0757356
0.0117881
0.0750577
0.0116175
0.0742644
0.0114287
0.0733597
0.0112229
0.0723495
0.0110009
0.0712417
0.010764
0.0700457
0.0105138
0.0687722
0.0102519
0.0674325
0.00998052
0.0660382
0.00970159
0.0646007
0.00941732
0.0631309
0.00912985
0.0616392
0.00884121
0.0601349
0.00855328
0.0586265
0.00826776
0.0571212
0.00798613
0.0556256
0.00770966
0.054145
0.00743939
0.0526839
0.00717616
0.0512461
0.00692065
0.0498345
0.00667334
0.0484513
0.00643458
0.0470983
0.00620457
0.0457768
0.00598347
0.0444876
0.00577127
0.0432311
0.00556798
0.0420074
0.00537344
0.0408164
0.0051876
0.0396578
0.0050102
0.0385312
0.00484113
0.0374358
0.00468009
0.036371
0.00452699
0.0353358
0.00438143
0.0343293
0.0042434
0.0333505
0.00411243
0.0323985
0.00398856
0.0314721
0.0038713
0.0305703
0.00376075
0.0296919
0.00365637
0.0288358
0.00355836
0.028001
0.0034661
0.0271862
0.0033799
0.0263903
0.00329909
0.0256123
0.00322405
0.024851
0.0031541
0.0241052
0.00308962
0.023374
0.00302997
0.0226562
0.00297549
0.0219506
0.00292564
0.0212564
0.00288061
0.0205723
0.00284007
0.0198974
0.00280392
0.0192307
0.00277221
0.0185712
0.00274435
0.0179178
0.00272096
0.0172698
0.00270062
0.0166261
0.00268493
0.0159861
0.00267116
0.0153486
0.00266238
0.0147134
0.00265392
0.0140793
0.00265107
0.0134464
0.00264629
0.0128133
0.00264824
0.0121809
0.00264507
0.0115472
0.00265046
0.0109143
0.00264625
0.0102796
0.00265376
0.00964648
0.00264531
0.00901128
0.00265369
0.00837939
0.00263731
0.00774548
0.00264587
0.00711761
0.00261769
0.0064879
0.00262664
0.00586792
0.00258325
0.00524618
0.0025937
0.00463858
0.00253376
0.00402887
0.00254863
0.00343838
0.00247003
0.00284409
0.00249693
0.00227351
0.00240505
0.00169464
0.00246157
0.00114839
0.00233118
0.000587672
0.00242298
7.59992e-05
0.00219317
-0.000476699
0.00241121
-0.000992337
0.00226799
-0.00162767
0.00293276
-0.00215691
0.00242866
-0.00312667
0.00506199
-0.00370177
0.00357395
-0.00363363
-0.00129965
-0.00508581
0.00806435
-0.00694888
0.013699
-0.00411947