/*--------------------------------*- C++ -*----------------------------------*\
| =========                 |                                                 |
| \\      /  F ield         | OpenFOAM: The Open Source CFD Toolbox           |
|  \\    /   O peration     | Version:  2412                                  |
|   \\  /    A nd           | Website:  www.openfoam.com                      |
|    \\/     M anipulation  |                                                 |
\*---------------------------------------------------------------------------*/
FoamFile
{
    version     2.0;
    format      ascii;
    arch        "LSB;label=32;scalar=64";
    class       volVectorField;
    location    "0.805";
    object      ddtCorrDdt0(U);
}
// * * * * * * * * * * * * * * * * * * * * * * * * * * * * * * * * * * * * * //

dimensions      [0 1 -2 0 0 0 0];

internalField   nonuniform List<vector> 
12600
(
(-0.269512 -9.12989e-22 -0.00366119)
(-0.368647 -4.38206e-21 0.00948788)
(-0.330282 -3.80827e-21 0.00500283)
(-0.317303 0 0.00489487)
(-0.28842 -5.53789e-21 0.00825152)
(-0.248535 -6.76548e-21 0.00946618)
(-0.210084 0 0.00986118)
(-0.174103 0 0.0139242)
(-0.141833 3.46994e-20 0.0167759)
(-0.112993 0 0.0178726)
(-0.086143 -1.71165e-20 0.0177666)
(-0.0606003 -1.67594e-20 0.0168565)
(-0.0368119 1.62312e-20 0.0154035)
(-0.0157335 0 0.0135595)
(0.00195906 1.44873e-20 0.0114065)
(0.0162835 0 0.00901909)
(0.0278055 -4.80493e-20 0.006504)
(0.0371936 0 0.00399663)
(0.0448724 1.8603e-20 0.00162999)
(0.0509652 1.60006e-20 -0.00049201)
(0.0554446 -1.34287e-20 -0.00230065)
(0.0583064 -4.41988e-23 -0.00375466)
(0.0596528 0 -0.00483231)
(0.0596794 1.29249e-20 -0.00552989)
(0.0586201 0 -0.00586325)
(0.0567047 0 -0.00586752)
(0.0541433 2.01355e-21 -0.00559273)
(0.0511248 0 -0.00509774)
(0.0478074 3.75239e-24 -0.00444353)
(0.0443016 6.23015e-21 -0.00368808)
(0.0406495 8.43408e-21 -0.00288118)
(0.0368252 1.03801e-20 -0.00206231)
(0.0327479 -1.20729e-20 -0.00125842)
(0.0283179 -2.70317e-20 -0.000486343)
(0.0234456 -2.94164e-20 0.000246648)
(0.0180963 3.12928e-20 0.000936235)
(0.012302 0 0.00158129)
(0.0061907 -3.35248e-20 0.00217656)
(-4.35005e-05 0 0.0027182)
(-0.0061226 3.37514e-20 0.00319478)
(-0.011754 0 0.00359835)
(-0.0166036 -1.22838e-23 0.00391078)
(-0.0204038 0 0.00412262)
(-0.0228947 -2.50501e-23 0.00421264)
(-0.0239846 5.58645e-20 0.0041796)
(-0.0236276 -5.2493e-20 0.00401083)
(-0.0220378 4.9119e-20 0.00372974)
(-0.0194471 0 0.00334415)
(-0.0163848 0 0.00291276)
(-0.0132594 3.9593e-20 0.00246183)
(-0.0107509 7.33863e-20 0.00207753)
(-0.00918266 6.80949e-20 0.00178054)
(-0.00913362 6.82894e-23 0.00166036)
(-0.010573 5.81001e-20 0.0016991)
(-0.0138148 0 0.00196914)
(-0.0183427 -4.76581e-20 0.00239163)
(-0.024233 -4.1581e-20 0.00302165)
(-0.0305406 -3.52943e-20 0.00371814)
(-0.03731 0 0.00454051)
(-0.0433261 0 0.00529494)
(-0.0488836 0 0.00607617)
(-0.0526751 8.31479e-22 0.00665197)
(-0.0555221 0 0.00719209)
(-0.0560988 0 0.00743621)
(-0.0558954 1.17942e-19 0.00766048)
(-0.0534439 0 0.00756256)
(-0.0508671 0 0.00752877)
(-0.0463002 0 0.0071717)
(-0.0424346 -2.20324e-19 0.00698029)
(-0.0367905 2.24766e-19 0.00644371)
(-0.0326786 2.28244e-19 0.00617212)
(-0.0269085 -7.46206e-23 0.00552282)
(-0.023579 -2.10748e-19 0.00527317)
(-0.018652 0 0.00463252)
(-0.0170529 1.77108e-19 0.0045552)
(-0.0136779 0 0.00405716)
(-0.0142103 0 0.00424251)
(-0.012392 0 0.00390177)
(-0.0147885 7.79052e-23 0.00429703)
(-0.0141743 1.17029e-19 0.00402121)
(-0.0183301 8.42269e-20 0.00456964)
(-0.0192397 -5.15451e-20 0.00442043)
(-0.0255794 -4.04935e-20 0.00527344)
(-0.0279987 0 0.00545235)
(-0.0348596 0 0.00664066)
(-0.0355178 4.31889e-20 0.00688044)
(-0.0369901 6.10856e-20 0.00759474)
(-0.0306901 -2.24176e-19 0.00690427)
(-0.0257759 -2.03657e-19 0.00597217)
(-0.017343 0 0.00388214)
(-0.0201338 1.04635e-19 0.0034451)
(-0.0143004 1.25546e-19 0.000308589)
(-0.0491126 -5.7027e-19 0.00820671)
(-0.00202218 1.55016e-18 -0.00156328)
(-0.0593255 0 0.00992474)
(-0.0908328 0 0.0232832)
(0.236278 0 -0.0538135)
(-0.845318 0 0.157897)
(0.913769 0 -0.161746)
(0.187025 0 -0.0421276)
(-2.38489 -9.84614e-18 0.439769)
(4.12203 2.87654e-17 -0.75666)
(-2.98948 1.70774e-17 0.558193)
(-1.17505 0 0.19948)
(6.96515 0 -1.22498)
(-10.0317 0 1.82984)
(3.84095 -5.70591e-17 -0.762537)
(5.9867 1.68156e-16 -1.04123)
(-13.4721 6.75676e-17 2.45817)
(11.0158 0 -2.03544)
(4.49603 1.97378e-16 -0.81757)
(-17.3514 0 3.11555)
(9.93976 -6.94228e-17 -1.89598)
(14.2054 -1.47945e-16 -2.43875)
(-11.9488 -1.27461e-17 2.24658)
(-7.37309 -7.62328e-17 1.28893)
(7.4725 -2.21886e-17 -1.40151)
(5.06153 -3.27695e-20 -0.917312)
(-4.69488 6.49659e-18 0.901301)
(-3.8621 0 0.727137)
(-0.30785 9.22389e-22 -0.0128897)
(-0.402483 0 0.0350563)
(-0.455864 3.85252e-21 0.0182961)
(-0.493514 0 0.00990128)
(-0.481633 5.60827e-21 0.0171842)
(-0.442471 1.45775e-20 0.0240121)
(-0.396863 8.19949e-21 0.0294417)
(-0.350817 0 0.0391304)
(-0.309224 9.45367e-23 0.0463848)
(-0.269692 1.76744e-20 0.0497839)
(-0.229769 -1.74283e-20 0.0501349)
(-0.188774 -1.70434e-20 0.0483695)
(-0.147881 1.64801e-20 0.0452572)
(-0.109083 -1.56891e-20 0.0412171)
(-0.0738324 -2.93665e-20 0.0363643)
(-0.0424149 0 0.0307589)
(-0.0143576 1.09165e-22 0.0246098)
(0.0107496 -2.1499e-20 0.0182831)
(0.0327936 -1.88751e-20 0.0121711)
(0.0512682 0 0.00657487)
(0.0656737 0 0.00168234)
(0.0757927 -1.10774e-20 -0.00239111)
(0.0817271 0 -0.00556697)
(0.0838051 -6.53741e-21 -0.00780159)
(0.0824864 8.89114e-21 -0.00910017)
(0.0783139 0 -0.00952258)
(0.0718857 -1.91728e-21 -0.00917341)
(0.0638234 0 -0.00818769)
(0.0547222 -3.81053e-21 -0.00671658)
(0.0451013 -1.26635e-20 -0.00491595)
(0.0353538 -1.71139e-20 -0.00293096)
(0.025734 -1.05065e-20 -0.000887693)
(0.0163551 1.22165e-20 0.00111763)
(0.00723745 5.4742e-20 0.00301463)
(-0.00166436 5.95451e-20 0.00476215)
(-0.0103748 0 0.00633084)
(-0.0188929 0 0.00771034)
(-0.0271127 -2.44324e-23 0.00888798)
(-0.0348982 0 0.00986976)
(-0.0419975 -3.40734e-20 0.010648)
(-0.0481959 0 0.0112379)
(-0.0531708 -6.50523e-20 0.0116251)
(-0.0567407 0 0.0118268)
(-0.0586136 -5.95311e-20 0.0118137)
(-0.0587919 0 0.0116132)
(-0.0571516 5.28571e-20 0.0111902)
(-0.0540498 0 0.0106076)
(-0.0496137 0 0.00984084)
(-0.0446266 -4.27767e-20 0.00901361)
(-0.0393765 0 0.00811211)
(-0.0349521 0 0.00732286)
(-0.0314981 0 0.00660913)
(-0.0301634 -6.31334e-20 0.00619894)
(-0.0305919 -1.16706e-19 0.0059805)
(-0.0338176 0 0.00620121)
(-0.0387242 0 0.0066252)
(-0.0462573 4.19297e-20 0.00752218)
(-0.0544807 3.52925e-20 0.00850842)
(-0.0645159 0 0.00991132)
(-0.0736566 0 0.0111853)
(-0.0836042 0 0.0127725)
(-0.0909902 0 0.0139641)
(-0.0985851 -2.01141e-20 0.0153997)
(-0.102362 3.90479e-20 0.0162008)
(-0.106548 -1.17666e-19 0.0172857)
(-0.106226 0 0.0175664)
(-0.107278 0 0.0182878)
(-0.10348 0 0.0180708)
(-0.102501 -4.50806e-22 0.0185172)
(-0.0963397 -2.22616e-19 0.017868)
(-0.094666 -2.25855e-19 0.0181414)
(-0.0873268 4.32105e-19 0.0171464)
(-0.0864172 1.74381e-24 0.0174227)
(-0.0791996 -1.88981e-19 0.016274)
(-0.0804689 -1.74588e-19 0.0168135)
(-0.0744621 0 0.0157397)
(-0.0787318 0 0.0167217)
(-0.0742431 0 0.0157891)
(-0.0814844 1.66515e-19 0.0171793)
(-0.0781671 0 0.0162738)
(-0.0882372 0 0.0180005)
(-0.0864664 5.04481e-20 0.0172291)
(-0.099769 3.95894e-20 0.0194966)
(-0.0997034 0 0.0191622)
(-0.114284 0 0.0219593)
(-0.112549 0 0.0217157)
(-0.120777 -5.95023e-20 0.0237026)
(-0.111357 5.35459e-22 0.0221911)
(-0.110335 -1.95933e-19 0.021609)
(-0.0958581 2.16908e-19 0.017831)
(-0.104688 -1.0029e-19 0.0179768)
(-0.0720679 1.21625e-19 0.00994844)
(-0.159594 1.10068e-18 0.0277399)
(0.00591285 0 -0.00400984)
(-0.174188 0 0.0334678)
(-0.280951 0 0.0563654)
(0.711048 0 -0.136868)
(-2.35279 6.77134e-18 0.438719)
(2.60711 0 -0.515232)
(0.201073 0 0.0182939)
(-6.38181 -9.45283e-18 1.14816)
(11.2608 -1.37778e-17 -2.16175)
(-9.14237 -3.25415e-17 1.87127)
(-1.92848 -5.9928e-17 0.182258)
(18.4446 0 -3.22047)
(-27.5037 0 5.31754)
(13.0267 0 -2.83224)
(14.4492 -8.01258e-17 -2.42247)
(-36.6717 -6.43045e-17 6.88078)
(31.2201 0 -6.27531)
(9.3957 -3.75274e-16 -1.32047)
(-46.4067 1.30471e-16 8.66986)
(29.9873 1.31707e-16 -6.27562)
(36.9101 0 -6.55497)
(-34.4561 0 6.96333)
(-18.4763 -7.23959e-17 3.13339)
(21.2815 0 -4.26393)
(13.0069 3.89123e-17 -2.30504)
(-13.9455 -6.18373e-18 2.82959)
(-10.6802 0 2.04227)
(-0.251077 0 0.0382752)
(-0.314327 0 0.0641812)
(-0.375884 3.40057e-21 0.0399232)
(-0.424275 0 0.0197777)
(-0.439554 0 0.014918)
(-0.42834 -6.74526e-21 0.0200455)
(-0.402342 -7.76462e-21 0.0319242)
(-0.371246 0 0.0459649)
(-0.340667 -1.16787e-22 0.05744)
(-0.309499 -1.67438e-20 0.064471)
(-0.275806 3.29131e-20 0.0671045)
(-0.238923 1.61483e-20 0.0666283)
(-0.200152 -9.19062e-23 0.0644901)
(-0.161935 1.48664e-20 0.0613745)
(-0.1262 1.38962e-20 0.0571689)
(-0.0934581 -1.26648e-20 0.051595)
(-0.0632514 2.29793e-20 0.0447713)
(-0.0352399 2.03731e-20 0.0372531)
(-0.00982755 0 0.029697)
(0.0120639 0 0.0225667)
(0.0295917 -1.26181e-20 0.0161)
(0.0423541 -1.02682e-20 0.0104358)
(0.0503763 0 0.00570981)
(0.0539466 0 0.00205001)
(0.053508 -8.42483e-21 -0.000472657)
(0.0496275 0 -0.00187017)
(0.042975 3.5282e-21 -0.00222557)
(0.0342802 1.14158e-21 -0.00167422)
(0.0242643 0 -0.000388183)
(0.0135809 6.02006e-21 0.00143525)
(0.00275221 8.12341e-21 0.00359732)
(-0.00784905 0 0.00591194)
(-0.0180211 -1.16375e-20 0.00822742)
(-0.0276801 -2.59502e-20 0.0104221)
(-0.0368475 6.7492e-23 0.0124155)
(-0.0455348 0 0.0141431)
(-0.0537604 0 0.0155775)
(-0.0614298 3.20969e-20 0.0166952)
(-0.0684626 0 0.0175187)
(-0.0746397 0 0.0180557)
(-0.0798412 0 0.0183652)
(-0.083779 0 0.0184561)
(-0.0863832 0 0.0183977)
(-0.0873533 0 0.0181672)
(-0.0868006 0 0.0178367)
(-0.0845194 -4.97898e-20 0.0173427)
(-0.0809838 4.65548e-20 0.0167788)
(-0.0761559 0 0.0160467)
(-0.0709828 4.04707e-20 0.015296)
(-0.0655032 0 0.0143997)
(-0.0610663 0 0.0135929)
(-0.0574673 -6.49591e-20 0.0127029)
(-0.0562678 0 0.0120686)
(-0.0566301 5.52755e-20 0.0114338)
(-0.0602084 -5.0587e-20 0.0112452)
(-0.0652075 0 0.0111005)
(-0.0734571 -3.96328e-20 0.0115646)
(-0.0820574 0 0.0120294)
(-0.0933475 0 0.0132066)
(-0.103247 0 0.0142156)
(-0.115101 -1.82841e-20 0.0159742)
(-0.123623 -3.49839e-22 0.0172811)
(-0.133797 -5.45673e-22 0.019359)
(-0.138973 -7.43452e-20 0.0206335)
(-0.146346 -6.16362e-22 0.0227541)
(-0.147498 0 0.0237059)
(-0.152244 0 0.0256852)
(-0.149799 -1.9056e-19 0.0261466)
(-0.152963 -6.27384e-22 0.027936)
(-0.147884 0 0.027853)
(-0.150789 0 0.0294951)
(-0.144126 -2.03784e-19 0.0288907)
(-0.14827 1.44694e-22 0.0305326)
(-0.141238 2.60932e-22 0.0295292)
(-0.148107 0 0.0313878)
(-0.14177 0 0.0301644)
(-0.152257 -2.4637e-19 0.032425)
(-0.146903 1.94523e-19 0.0310939)
(-0.16097 0 0.0338046)
(-0.156069 0 0.0323178)
(-0.173423 0 0.0354389)
(-0.16927 0 0.033867)
(-0.190185 0 0.0374643)
(-0.186981 0 0.0359984)
(-0.209207 0 0.0399692)
(-0.203567 0 0.0385118)
(-0.218262 5.59126e-20 0.0417866)
(-0.204114 1.01821e-19 0.0397343)
(-0.207307 1.84151e-19 0.040993)
(-0.186028 -2.03823e-19 0.0372965)
(-0.201378 9.27939e-20 0.0385897)
(-0.143508 -1.14242e-19 0.0270262)
(-0.280223 -5.15749e-19 0.0492156)
(-0.000142595 0 -0.00488914)
(-0.307976 0 0.0629467)
(-0.437584 0 0.0693076)
(1.12191 0 -0.183138)
(-3.70231 -6.35267e-18 0.667883)
(4.25906 0 -0.891111)
(-0.181491 0 0.254167)
(-9.5841 8.86324e-18 1.56299)
(17.4729 0 -3.32993)
(-15.7583 1.51823e-17 3.44814)
(-1.12188 5.61594e-17 -0.453038)
(27.831 0 -4.44913)
(-43.3407 0 8.45026)
(23.4803 0 -5.61373)
(19.7664 -7.54006e-17 -2.63405)
(-56.3904 0 10.3417)
(50.4903 -2.21664e-17 -10.6666)
(10.2351 -3.3956e-19 -0.354712)
(-70.5481 -1.22107e-16 12.876)
(50.7203 -1.23435e-16 -11.445)
(54.524 0 -8.99699)
(-56.204 1.13637e-17 11.9024)
(-26.1462 6.77177e-17 3.73689)
(34.3876 -1.96477e-17 -7.15817)
(18.7197 0 -2.90647)
(-23.2337 5.78198e-18 4.92401)
(-16.6423 0 3.10931)
(-0.225627 0 0.0400345)
(-0.259148 0 0.0599953)
(-0.290097 -3.21477e-21 0.0539065)
(-0.313914 0 0.036007)
(-0.330912 5.7771e-21 0.0185191)
(-0.336802 -1.33458e-20 0.012261)
(-0.331274 0 0.0200602)
(-0.317977 1.52145e-20 0.0358061)
(-0.300803 -1.57692e-20 0.0523065)
(-0.28079 -1.53961e-20 0.0643444)
(-0.257348 -1.55093e-20 0.0703556)
(-0.229886 1.49488e-20 0.0720003)
(-0.19934 -1.46808e-20 0.0717669)
(-0.168078 2.75963e-20 0.0708346)
(-0.138329 0 0.0687763)
(-0.110871 2.38367e-20 0.0647412)
(-0.0851902 0 0.058616)
(-0.0607332 0 0.051166)
(-0.0378608 0 0.0433867)
(-0.0177131 -1.41912e-20 0.035913)
(-0.00141826 5.32121e-23 0.0289629)
(0.0104515 3.52426e-23 0.0226177)
(0.0178584 -7.60273e-21 0.0170315)
(0.0210434 0 0.0124179)
(0.0203821 0 0.00893988)
(0.0163814 0 0.0066492)
(0.0096781 -3.25234e-21 0.0055026)
(0.000992924 -1.98379e-23 0.00539046)
(-0.00895384 0 0.00615436)
(-0.0195047 0 0.0075957)
(-0.0301348 0 0.00950441)
(-0.040465 0 0.0116752)
(-0.0502962 2.20072e-20 0.0139372)
(-0.059548 0 0.0161455)
(-0.0682612 -2.67465e-20 0.0181992)
(-0.0764547 0 0.0200062)
(-0.0841677 0 0.0215214)
(-0.0913002 -3.0387e-20 0.0227018)
(-0.0977984 0 0.0235723)
(-0.103436 0 0.0241356)
(-0.108145 2.98982e-20 0.0244714)
(-0.111626 -5.79812e-20 0.0245842)
(-0.113883 0 0.0245687)
(-0.114573 -5.29084e-20 0.0243831)
(-0.113898 0 0.0241269)
(-0.111554 9.39643e-20 0.0236966)
(-0.10814 -9.83621e-23 0.0232184)
(-0.103451 0 0.0225301)
(-0.0986204 0 0.0218307)
(-0.0934339 -3.55478e-20 0.0209057)
(-0.0895243 -6.60793e-20 0.0200723)
(-0.0863169 1.22844e-19 0.0190479)
(-0.0858002 0 0.018307)
(-0.0866085 5.26563e-20 0.0174559)
(-0.0910247 4.77522e-20 0.0171431)
(-0.0965067 4.32913e-20 0.0167809)
(-0.105788 3.77004e-20 0.01721)
(-0.114925 0 0.0175591)
(-0.127524 0 0.0188958)
(-0.138047 3.42607e-20 0.019961)
(-0.151582 3.40714e-20 0.0221281)
(-0.160835 3.29887e-22 0.0236702)
(-0.173158 -6.68605e-22 0.0263962)
(-0.179172 3.5334e-20 0.0280234)
(-0.189249 5.30859e-20 0.0309659)
(-0.19131 0 0.032285)
(-0.199374 0 0.0351829)
(-0.197856 1.7958e-19 0.0359434)
(-0.205019 3.91003e-19 0.038715)
(-0.200815 0 0.0388255)
(-0.208443 2.01184e-19 0.0415174)
(-0.202487 1.91881e-19 0.0409853)
(-0.212114 1.84667e-19 0.0437619)
(-0.20549 3.34614e-19 0.0426872)
(-0.218627 0 0.0457762)
(-0.212288 0 0.0443278)
(-0.229823 2.3184e-19 0.0479375)
(-0.223938 -3.65049e-19 0.0462465)
(-0.245755 -1.45562e-19 0.0504454)
(-0.23955 0 0.048455)
(-0.265189 0 0.0531927)
(-0.258823 0 0.0509431)
(-0.288395 0 0.056215)
(-0.282037 0 0.0538697)
(-0.312976 0 0.0595154)
(-0.303171 -3.62644e-20 0.0570495)
(-0.325549 -5.34664e-23 0.0619405)
(-0.306307 -9.46231e-20 0.0589947)
(-0.315244 0 0.0615536)
(-0.287041 -1.89095e-19 0.0571151)
(-0.309917 -4.31885e-20 0.0587699)
(-0.228829 0 0.0442711)
(-0.410999 -4.81936e-19 0.0706136)
(-0.0232214 -1.30426e-18 -0.00286689)
(-0.463084 0 0.0987375)
(-0.568342 0 0.0691393)
(1.44784 0 -0.203275)
(-4.88935 -5.97805e-18 0.854328)
(5.81842 0 -1.25978)
(-0.884714 0 0.585997)
(-12.0089 8.34449e-18 1.77238)
(22.7434 1.21178e-17 -4.30406)
(-22.5405 0 5.11642)
(0.950654 0 -1.42287)
(35.1792 0 -5.21669)
(-57.4306 0 11.2919)
(34.5405 0 -8.68799)
(22.2188 -2.05542e-19 -2.0266)
(-72.225 0 12.953)
(68.2369 2.07426e-17 -14.9846)
(7.22435 1.64745e-16 1.762)
(-89.0652 0 15.8785)
(71.192 -1.71748e-19 -16.9552)
(66.8369 0 -9.95946)
(-76.3673 -7.3142e-20 16.7973)
(-30.508 0 3.44284)
(46.4161 1.83699e-17 -9.99678)
(22.0416 0 -2.8744)
(-32.3075 5.35333e-18 7.08627)
(-21.6343 0 3.97788)
(-0.220386 0 0.0258079)
(-0.234854 0 0.0483158)
(-0.243159 0 0.0563848)
(-0.243506 0 0.0443822)
(-0.249257 -5.45327e-21 0.024654)
(-0.257531 9.83332e-23 0.0122721)
(-0.260392 0 0.0140059)
(-0.25567 -1.43607e-20 0.0278983)
(-0.245463 0 0.0468104)
(-0.231676 2.86532e-20 0.0625862)
(-0.214935 0 0.0712745)
(-0.194893 -1.41128e-20 0.0742228)
(-0.171751 0 0.0749997)
(-0.147172 -2.60553e-20 0.075664)
(-0.123405 1.20022e-20 0.0756335)
(-0.101656 -2.22486e-20 0.0732966)
(-0.0815373 2.00063e-20 0.0680509)
(-0.0621286 1.78061e-20 0.0608064)
(-0.0433979 0 0.0530048)
(-0.026484 1.34004e-20 0.0455423)
(-0.0128075 1.12196e-20 0.0385838)
(-0.00318218 1.83051e-20 0.0320523)
(0.0022882 7.17901e-21 0.0260486)
(0.00383969 0 0.020854)
(0.00180236 0 0.0167256)
(-0.00338488 0 0.0137754)
(-0.0111304 1.54245e-21 0.0119934)
(-0.0207276 -1.00067e-21 0.0112969)
(-0.0314613 0 0.0115531)
(-0.0426793 0 0.0125808)
(-0.0538691 7.21044e-21 0.0141798)
(-0.0646601 0 0.0161464)
(-0.074868 -3.85587e-23 0.0183085)
(-0.0844223 -2.31901e-20 0.0205113)
(-0.0933898 2.52415e-20 0.0226414)
(-0.1018 0 0.0245809)
(-0.109718 0 0.026265)
(-0.117035 2.86799e-20 0.027625)
(-0.12372 0 0.0286824)
(-0.129524 0 0.029426)
(-0.134424 -2.82138e-20 0.029949)
(-0.138089 5.47114e-20 0.0302411)
(-0.140595 0 0.0304167)
(-0.141534 4.99182e-20 0.0304061)
(-0.141207 0 0.0303361)
(-0.139199 -4.42659e-20 0.0300597)
(-0.136248 -4.13927e-20 0.029744)
(-0.131975 0 0.0291637)
(-0.127725 -3.59635e-20 0.0285823)
(-0.123024 3.35235e-20 0.0276967)
(-0.119825 1.24723e-19 0.0269223)
(-0.117165 -5.79939e-20 0.0258563)
(-0.117505 5.38824e-20 0.0251217)
(-0.118916 2.14772e-22 0.0241646)
(-0.124366 0 0.023846)
(-0.130505 -4.08037e-20 0.0233589)
(-0.14104 -3.55305e-20 0.0238367)
(-0.15089 2.99725e-20 0.0241049)
(-0.165017 -2.31156e-20 0.0256169)
(-0.176303 -3.22785e-20 0.0266932)
(-0.191699 -1.5849e-20 0.0292123)
(-0.201745 -8.11106e-22 0.0308766)
(-0.216331 1.79866e-20 0.0341524)
(-0.223143 0 0.0359926)
(-0.235964 0 0.039668)
(-0.2388 6.45629e-20 0.041238)
(-0.250185 0 0.0450217)
(-0.249399 0 0.0460193)
(-0.260573 -1.84303e-19 0.0498141)
(-0.257027 0 0.0501101)
(-0.26945 -1.89283e-19 0.0539576)
(-0.264 -3.60906e-19 0.0535289)
(-0.279293 0 0.057599)
(-0.27292 -1.57181e-19 0.0565097)
(-0.292651 0 0.0610328)
(-0.286202 0 0.0594254)
(-0.311282 -2.15879e-19 0.0646156)
(-0.304806 1.71088e-19 0.0626141)
(-0.335059 9.41832e-22 0.0685355)
(-0.327554 0 0.0660585)
(-0.362393 0 0.0726531)
(-0.353872 0 0.0697178)
(-0.39326 -3.16273e-20 0.0769211)
(-0.383817 2.62699e-20 0.0736551)
(-0.424862 0 0.0812215)
(-0.410898 6.79406e-20 0.0775969)
(-0.44265 -2.45779e-20 0.0842961)
(-0.418235 1.77073e-19 0.0801936)
(-0.434849 1.59554e-19 0.0842622)
(-0.399764 3.53561e-19 0.0788676)
(-0.431525 0 0.0809054)
(-0.329304 0 0.0648146)
(-0.553686 4.51894e-19 0.0933694)
(-0.0666512 1.22276e-18 0.00370264)
(-0.639814 -5.30522e-19 0.141499)
(-0.680028 0 0.0561532)
(1.67971 0 -0.188461)
(-5.91246 5.60107e-18 1.0017)
(7.24003 1.90521e-18 -1.61228)
(-1.82529 0 1.04648)
(-13.7241 -7.81484e-18 1.74604)
(27.1166 -1.1347e-17 -5.04064)
(-29.1563 0 6.79643)
(3.87555 0 -2.94805)
(40.6494 0 -5.41599)
(-69.6538 0 13.6967)
(45.4635 0 -11.9757)
(22.1869 6.6227e-17 -0.519582)
(-83.9902 0 14.4936)
(83.9554 0 -19.0286)
(0.806782 0 5.0269)
(-101.697 1.07779e-16 17.3582)
(90.443 5.42251e-17 -22.5993)
(73.837 0 -9.38409)
(-94.0661 -9.86674e-18 21.3839)
(-32.0245 0 2.14662)
(57.0348 1.71699e-17 -12.6287)
(22.9433 0 -2.08781)
(-40.8772 -5.00288e-18 9.23233)
(-25.6191 0 4.57885)
(-0.215591 1.12013e-21 0.0191459)
(-0.223515 2.15861e-21 0.0388737)
(-0.226609 -3.20746e-21 0.0490417)
(-0.21599 -4.24588e-21 0.0421646)
(-0.210971 0 0.0269976)
(-0.214331 5.84784e-21 0.0162173)
(-0.216974 0 0.0162365)
(-0.212962 -1.25975e-20 0.0274352)
(-0.202685 -1.28028e-20 0.0458347)
(-0.1886 -2.61813e-20 0.0634183)
(-0.172579 1.28436e-20 0.0740763)
(-0.155143 -1.26885e-20 0.0777681)
(-0.136025 0 0.078599)
(-0.115723 0 0.0798345)
(-0.095941 -1.13154e-20 0.0812266)
(-0.07827 1.59765e-22 0.0804305)
(-0.0627767 -2.23661e-22 0.0760069)
(-0.0482704 -1.36262e-22 0.0687622)
(-0.0339797 0 0.0606645)
(-0.0206394 0 0.0530786)
(-0.00985641 0 0.0461815)
(-0.00279057 -1.73545e-20 0.039644)
(0.00032744 -6.90096e-21 0.033409)
(-0.000233787 0 0.0277961)
(-0.00415211 0 0.023169)
(-0.0110665 -4.39648e-21 0.0197014)
(-0.0204542 0 0.0174023)
(-0.0316262 0 0.0162046)
(-0.043858 0 0.016001)
(-0.0564841 0 0.0166352)
(-0.0689914 -1.11692e-22 0.017928)
(-0.0810059 0 0.0196868)
(-0.0923455 -6.95928e-23 0.0217476)
(-0.102933 2.18601e-20 0.0239525)
(-0.112851 -7.04979e-23 0.0261816)
(-0.122133 0 0.0282926)
(-0.130873 0 0.0302015)
(-0.138954 0 0.031811)
(-0.146373 0 0.0331378)
(-0.152853 0 0.0341522)
(-0.158418 0 0.0349591)
(-0.162697 0 0.0355262)
(-0.165843 -4.93405e-20 0.0359858)
(-0.167382 -4.69036e-20 0.0362323)
(-0.167721 0 0.0364211)
(-0.166324 -4.15746e-20 0.0363548)
(-0.164089 0 0.0362496)
(-0.160442 0 0.0358114)
(-0.156972 6.77459e-20 0.0353819)
(-0.152909 0 0.0345629)
(-0.150575 -5.87764e-20 0.0338852)
(-0.148569 0 0.0328138)
(-0.14989 -1.01629e-19 0.03214)
(-0.151977 1.63691e-22 0.0311278)
(-0.158567 0 0.0308733)
(-0.165414 0 0.0303183)
(-0.177307 0 0.0309165)
(-0.187908 -5.64081e-20 0.0311485)
(-0.203679 4.34218e-20 0.0328922)
(-0.215756 2.97682e-20 0.0339963)
(-0.233146 1.40274e-20 0.036899)
(-0.244004 2.0785e-21 0.0386702)
(-0.261007 1.81689e-20 0.0425069)
(-0.268627 0 0.0445223)
(-0.28438 0 0.0489378)
(-0.287989 5.57314e-22 0.0507153)
(-0.302923 0 0.0554083)
(-0.302856 0 0.0566088)
(-0.318321 -1.74283e-19 0.0614768)
(-0.315406 0 0.0619329)
(-0.332974 0 0.067011)
(-0.328001 3.38916e-19 0.0666645)
(-0.349399 -1.62452e-19 0.0721269)
(-0.343254 0 0.0710042)
(-0.370141 0 0.0770896)
(-0.363569 0 0.0753083)
(-0.396905 2.02743e-19 0.0822412)
(-0.389837 0 0.0799128)
(-0.429413 2.54178e-19 0.0877464)
(-0.420641 -8.67101e-20 0.0847608)
(-0.465793 0 0.0934355)
(-0.455179 0 0.0897925)
(-0.505733 2.96786e-20 0.0992)
(-0.493262 -2.13339e-22 0.0949997)
(-0.545999 2.0707e-20 0.104811)
(-0.527858 -3.17968e-20 0.0999876)
(-0.570888 -2.29272e-20 0.108843)
(-0.541205 -8.27805e-20 0.103463)
(-0.567713 -1.49596e-19 0.109293)
(-0.525764 -1.21907e-21 0.102885)
(-0.568178 0 0.105202)
(-0.446955 -9.51615e-20 0.0885637)
(-0.71052 0 0.117458)
(-0.133827 0 0.0152153)
(-0.838394 4.96999e-19 0.189383)
(-0.779733 0 0.0341599)
(1.81233 0 -0.140362)
(-6.78449 0 1.06773)
(8.48333 -1.78387e-18 -1.93641)
(-2.9334 0 1.58915)
(-14.803 -7.32299e-18 1.50704)
(30.6263 0 -5.54393)
(-35.3029 0 8.43671)
(7.42358 0 -4.30249)
(44.3811 0 -5.01594)
(-79.8063 0 15.6575)
(55.5935 -4.21284e-17 -15.3452)
(19.9987 6.22432e-17 1.75373)
(-91.6669 5.01615e-17 15.0488)
(97.2399 0 -22.7538)
(-8.44412 0 8.9954)
(-108.586 -2.0195e-16 17.3761)
(107.686 0 -28.1796)
(75.6445 -1.08694e-16 -7.26936)
(-108.427 0 25.5003)
(-31.3149 5.60965e-17 0.0257022)
(65.938 -1.6045e-17 -14.9876)
(21.4637 0 -0.589795)
(-48.6325 -4.64383e-18 11.3048)
(-28.6161 0 4.93067)
(-0.209121 -1.0548e-21 0.0137618)
(-0.216625 -4.26092e-21 0.0289713)
(-0.222634 3.02128e-21 0.0375994)
(-0.210055 9.42392e-24 0.0355412)
(-0.19913 -4.69865e-21 0.0273091)
(-0.196986 0 0.0211014)
(-0.196495 0 0.0219789)
(-0.190387 1.18625e-20 0.0313676)
(-0.177266 2.36284e-20 0.0477715)
(-0.159525 4.24953e-22 0.0655681)
(-0.140099 -1.20929e-20 0.0778049)
(-0.120874 1.19468e-20 0.082507)
(-0.102004 -1.13426e-20 0.0832931)
(-0.0831047 0 0.0844549)
(-0.0648691 0 0.0866714)
(-0.0489263 9.66067e-21 0.0873025)
(-0.0361135 -3.48502e-20 0.0838599)
(-0.0254718 -3.12019e-20 0.0765886)
(-0.015451 0 0.0678768)
(-0.00585905 0 0.0598293)
(0.00189826 0 0.0528659)
(0.00631694 -7.33585e-23 0.0463723)
(0.00693051 1.3094e-20 0.0399904)
(0.00405152 -5.01446e-21 0.0340171)
(-0.00194069 -7.08533e-21 0.0289448)
(-0.0107588 8.50659e-21 0.0250281)
(-0.0219935 -1.8662e-21 0.022282)
(-0.0350054 4.29044e-22 0.0206341)
(-0.04906 2.52889e-21 0.0199955)
(-0.0634606 0 0.0202384)
(-0.0776788 -6.29493e-21 0.0212125)
(-0.0913269 7.69011e-21 0.0227425)
(-0.104216 -9.11927e-21 0.0246779)
(-0.116246 -2.03433e-20 0.0268619)
(-0.127503 -4.45604e-20 0.0291735)
(-0.138015 0 0.0314486)
(-0.147914 0 0.0335866)
(-0.157079 -2.53969e-20 0.0354597)
(-0.165543 0 0.037081)
(-0.172996 2.5478e-20 0.0383986)
(-0.179512 2.49842e-20 0.0395305)
(-0.184669 0 0.0404171)
(-0.188711 9.28471e-20 0.0412098)
(-0.191076 4.41393e-20 0.0417579)
(-0.192307 0 0.0422499)
(-0.191716 3.91201e-20 0.0424282)
(-0.190396 3.6577e-20 0.042567)
(-0.18754 0 0.0422935)
(-0.185024 -6.37425e-20 0.0420426)
(-0.181733 2.97616e-20 0.041308)
(-0.180414 5.54495e-20 0.0407572)
(-0.179163 0 0.0397034)
(-0.181595 -1.08957e-22 0.0391328)
(-0.184428 -8.87069e-20 0.0380986)
(-0.192276 0 0.0379648)
(-0.199877 0 0.0373807)
(-0.213247 3.16007e-20 0.0381625)
(-0.224626 2.65113e-20 0.0383909)
(-0.242173 -4.06345e-20 0.0404239)
(-0.255058 -2.79828e-20 0.0415692)
(-0.274602 -1.31849e-20 0.0448992)
(-0.286287 -1.23628e-21 0.046766)
(-0.305914 -3.46835e-20 0.0511956)
(-0.31436 0 0.0533549)
(-0.333309 0 0.0585429)
(-0.337716 -1.15592e-19 0.0604899)
(-0.356536 0 0.0661431)
(-0.357214 0 0.0675144)
(-0.377385 1.63689e-19 0.073537)
(-0.375122 0 0.0741313)
(-0.39834 -1.67104e-19 0.0805552)
(-0.393857 -1.86102e-22 0.0802771)
(-0.421971 1.52511e-19 0.087282)
(-0.416067 0 0.0861186)
(-0.45085 0 0.0939554)
(-0.444162 0 0.0919969)
(-0.486651 1.88227e-19 0.100901)
(-0.478991 0 0.098239)
(-0.528978 -1.18798e-19 0.108246)
(-0.518962 1.61986e-19 0.104737)
(-0.575748 0 0.115787)
(-0.563085 0 0.111414)
(-0.626385 0 0.12336)
(-0.610917 -1.92286e-22 0.118194)
(-0.677187 -1.94123e-20 0.13062)
(-0.654845 -2.96052e-20 0.124529)
(-0.711343 2.14882e-20 0.135936)
(-0.676299 -7.66827e-20 0.129155)
(-0.715235 0 0.137113)
(-0.666443 -1.53588e-19 0.129618)
(-0.721682 0 0.132186)
(-0.583496 8.91345e-20 0.116191)
(-0.883703 0 0.143194)
(-0.227667 0 0.0323379)
(-1.05877 0 0.242598)
(-0.876129 -2.4982e-18 0.00328162)
(1.84173 2.83239e-18 -0.057573)
(-7.49758 0 1.14888)
(9.51967 1.66397e-18 -2.22187)
(-4.13387 6.45736e-18 2.21133)
(-15.3372 6.85197e-18 1.06866)
(33.2978 9.97449e-18 -5.80968)
(-40.7161 0 9.96502)
(11.0078 0 -6.76498)
(46.4728 0 -4.04539)
(-87.6947 0 17.0973)
(64.436 3.93938e-17 -18.6561)
(16.0053 5.96916e-20 4.71924)
(-95.5441 -9.40482e-17 14.6116)
(107.938 0 -26.0091)
(-19.4421 0 14.7684)
(-110.482 9.45748e-17 15.9933)
(122.392 0 -33.4647)
(72.5233 1.01575e-16 -3.68256)
(-118.752 0 28.8967)
(-29.1096 -1.04951e-16 -2.77107)
(72.8833 0 -16.9631)
(17.7574 0 1.60306)
(-55.2827 4.33806e-18 13.1922)
(-30.7254 0 5.03649)
(-0.201806 0 0.00574571)
(-0.21029 2.09588e-21 0.0186963)
(-0.219914 0 0.0270079)
(-0.208985 3.7539e-21 0.0290615)
(-0.196318 8.71258e-21 0.0268854)
(-0.190597 0 0.025276)
(-0.18686 -4.93052e-21 0.0277423)
(-0.178476 0 0.036295)
(-0.163053 -4.41979e-22 0.0507192)
(-0.141953 2.16102e-20 0.0676568)
(-0.118577 0 0.0808945)
(-0.0958115 0 0.0870424)
(-0.0748045 1.06683e-20 0.0883551)
(-0.0550626 0 0.0893709)
(-0.0362878 0 0.091909)
(-0.0196508 0 0.0937534)
(-0.00676852 1.62713e-20 0.0915871)
(0.00231724 1.45992e-20 0.0846118)
(0.00931295 1.27634e-20 0.075188)
(0.0155523 0 0.066286)
(0.0204352 0 0.0589615)
(0.0223796 7.78352e-21 0.0524521)
(0.0205962 -6.20365e-21 0.0459596)
(0.0153921 4.71623e-21 0.0396359)
(0.00729007 6.6639e-21 0.0341157)
(-0.00343607 -8.43029e-21 0.0297793)
(-0.0165243 -2.09539e-22 0.0266438)
(-0.0314418 -4.03511e-22 0.0246016)
(-0.0474661 -2.37837e-21 0.0235629)
(-0.0638535 0 0.0234271)
(-0.0800371 0 0.0240798)
(-0.0956 -7.23203e-21 0.0253693)
(-0.110341 0 0.0271617)
(-0.124119 1.91306e-20 0.029303)
(-0.137007 2.0902e-20 0.0316762)
(-0.149014 -2.2191e-20 0.0340988)
(-0.160314 0 0.0364574)
(-0.170784 2.38802e-20 0.0385922)
(-0.18052 2.40617e-20 0.0405147)
(-0.189166 -2.20012e-23 0.0421468)
(-0.196859 -4.6965e-20 0.0436232)
(-0.203104 0 0.0448514)
(-0.208252 -4.3632e-20 0.0460063)
(-0.211633 0 0.0468834)
(-0.213952 0 0.0477103)
(-0.214342 0 0.048158)
(-0.214128 4.3161e-24 0.04857)
(-0.212221 0 0.0484799)
(-0.210841 2.99576e-20 0.0484347)
(-0.20846 -5.59593e-20 0.0478003)
(-0.208326 -5.21067e-20 0.0474067)
(-0.207942 0 0.0463884)
(-0.211646 4.5078e-20 0.0459608)
(-0.21531 8.34957e-20 0.0449285)
(-0.224577 0 0.044968)
(-0.232991 0 0.0443835)
(-0.248005 -2.96842e-20 0.0454116)
(-0.260204 -2.47793e-20 0.0456636)
(-0.279709 1.9033e-20 0.0480524)
(-0.293428 2.56515e-20 0.0492551)
(-0.315341 0 0.0530766)
(-0.327867 0 0.0550382)
(-0.350381 -4.46591e-22 0.0601218)
(-0.359661 -3.02775e-20 0.062407)
(-0.382135 0 0.0684324)
(-0.387347 5.44668e-20 0.0705194)
(-0.410464 0 0.0772132)
(-0.411887 0 0.0787224)
(-0.437267 0 0.0860055)
(-0.435642 0 0.086705)
(-0.465118 1.17027e-22 0.0946115)
(-0.461099 -2.21898e-22 0.0943699)
(-0.496667 -1.42426e-19 0.10309)
(-0.490965 0 0.101855)
(-0.534534 -1.18027e-19 0.111656)
(-0.527679 0 0.109489)
(-0.580392 -1.76501e-19 0.12062)
(-0.572079 1.37919e-19 0.117589)
(-0.633766 -1.09738e-19 0.130065)
(-0.622465 -7.56003e-20 0.125993)
(-0.692442 0 0.139758)
(-0.67771 3.22905e-20 0.134608)
(-0.755604 0 0.149481)
(-0.737118 -2.12863e-20 0.143296)
(-0.819073 -1.78474e-20 0.158766)
(-0.792472 2.77344e-20 0.151332)
(-0.864987 0 0.165763)
(-0.824468 1.43244e-19 0.15747)
(-0.878771 0 0.168014)
(-0.823134 -1.41432e-19 0.15939)
(-0.893844 0 0.162368)
(-0.740667 8.48938e-20 0.14789)
(-1.07565 0 0.170646)
(-0.350757 9.84422e-19 0.0559348)
(-1.30147 -4.16324e-19 0.300653)
(-0.977702 2.33781e-18 -0.0335543)
(1.77371 -2.65028e-18 0.0579951)
(-8.10528 0 1.03675)
(10.3207 -3.10164e-18 -2.46074)
(-5.36274 -1.20339e-17 2.88595)
(-15.4308 0 0.451894)
(35.1542 -9.32854e-18 -5.83534)
(-45.2653 0 11.348)
(14.4731 0 -9.47949)
(47.1108 4.68068e-17 -2.54136)
(-93.2096 0 17.9901)
(71.6756 0 -21.8184)
(10.6126 -5.4455e-17 8.25797)
(-96.1954 8.83962e-17 13.2807)
(116.098 1.51377e-17 -28.7379)
(-31.914 0 17.9859)
(-108.639 0 13.4083)
(134.278 0 -38.305)
(64.9344 0 1.25471)
(-124.646 8.23393e-18 31.4484)
(-26.1272 4.90786e-17 -6.06832)
(77.6869 0 -18.4827)
(12.0955 0 4.42212)
(-60.5662 0 14.8426)
(-32.1105 0 4.91322)
(-0.193032 -1.43609e-21 -0.00332255)
(-0.202403 0 0.00884408)
(-0.214505 -2.77103e-21 0.0179672)
(-0.205925 0 0.0231124)
(-0.193606 -4.03395e-21 0.0253418)
(-0.186069 0 0.0276293)
(-0.179859 4.63409e-21 0.0321784)
(-0.16968 -9.1746e-21 0.0406171)
(-0.153124 -1.92479e-20 0.0536569)
(-0.130698 -3.48309e-22 0.0691438)
(-0.10512 0 0.0826219)
(-0.0796131 0 0.0902774)
(-0.0561857 0 0.0927734)
(-0.0347785 0 0.0939918)
(-0.0145222 0 0.0965282)
(0.00423199 0 0.09916)
(0.0195916 -1.46908e-20 0.0984231)
(0.0301188 1.32867e-20 0.0923509)
(0.0366012 -1.19926e-20 0.0825843)
(0.0409767 0 0.0726613)
(0.0438414 0 0.06462)
(0.0440485 -7.36769e-21 0.05792)
(0.0405394 -5.94591e-21 0.0513053)
(0.0334858 -4.58946e-21 0.0446128)