/*--------------------------------*- C++ -*----------------------------------*\
| =========                 |                                                 |
| \\      /  F ield         | OpenFOAM: The Open Source CFD Toolbox           |
|  \\    /   O peration     | Version:  2412                                  |
|   \\  /    A nd           | Website:  www.openfoam.com                      |
|    \\/     M anipulation  |                                                 |
\*---------------------------------------------------------------------------*/
FoamFile
{
    version     2.0;
    format      ascii;
    arch        "LSB;label=32;scalar=64";
    class       volVectorField;
    location    "0.805";
    object      U;
}
// * * * * * * * * * * * * * * * * * * * * * * * * * * * * * * * * * * * * * //

dimensions      [0 1 -1 0 0 0 0];

internalField   nonuniform List<vector> 
12600
(
(18.7191 1.24663e-21 2.09056)
(11.6112 1.60969e-20 0.449678)
(7.34786 1.89274e-20 -0.478076)
(5.08868 0 -0.709156)
(3.9769 1.71151e-20 -0.682273)
(3.33673 1.59419e-20 -0.607637)
(2.89577 0 -0.540004)
(2.5647 0 -0.484609)
(2.30516 -4.79548e-20 -0.439184)
(2.09506 0 -0.401463)
(1.92069 2.01226e-20 -0.369603)
(1.77314 1.84294e-20 -0.342279)
(1.64631 -1.6887e-20 -0.318545)
(1.53585 0 -0.297705)
(1.43859 -1.41603e-20 -0.279234)
(1.35213 0 -0.262731)
(1.27467 4.76057e-20 -0.247881)
(1.20475 0 -0.234435)
(1.14127 -1.99353e-20 -0.22219)
(1.0833 -1.82378e-20 -0.210983)
(1.03011 1.66538e-20 -0.20068)
(0.981083 5.52343e-24 -0.19117)
(0.935718 0 -0.182358)
(0.893587 -2.51511e-20 -0.174166)
(0.854332 0 -0.166526)
(0.817645 0 -0.15938)
(0.783264 -1.8672e-20 -0.15268)
(0.750961 0 -0.146381)
(0.720537 3.95515e-24 -0.140447)
(0.691822 1.35179e-20 -0.134844)
(0.664662 1.20445e-20 -0.129543)
(0.638924 1.06795e-20 -0.124519)
(0.614489 -9.41526e-21 -0.119749)
(0.591252 -1.64896e-20 -0.115213)
(0.569117 -1.43233e-20 -0.110891)
(0.548001 1.23091e-20 -0.106769)
(0.527826 0 -0.10283)
(0.508524 -8.75671e-21 -0.0990621)
(0.490032 0 -0.0954527)
(0.472293 5.72117e-21 -0.0919907)
(0.455255 0 -0.0886661)
(0.438871 1.73653e-23 -0.0854696)
(0.423096 0 -0.0823927)
(0.407892 1.58158e-23 -0.0794275)
(0.393221 7.7487e-24 -0.0765669)
(0.379048 1.72609e-21 -0.0738042)
(0.365343 -3.33736e-21 -0.0711332)
(0.352076 0 -0.0685481)
(0.339219 0 -0.0660438)
(0.326747 -7.31912e-21 -0.0636149)
(0.314636 -1.68123e-20 -0.0612572)
(0.302864 -1.87726e-20 -0.0589659)
(0.29141 1.93059e-23 -0.0567372)
(0.280253 -2.20911e-20 -0.054567)
(0.269377 0 -0.0524521)
(0.258763 2.47527e-20 -0.0503885)
(0.248395 2.58434e-20 -0.0483736)
(0.238257 2.67799e-20 -0.0464037)
(0.228336 0 -0.0444767)
(0.218616 0 -0.0425892)
(0.209087 0 -0.0407394)
(0.199734 -5.8761e-20 -0.0389241)
(0.190548 0 -0.0371419)
(0.181517 0 -0.03539)
(0.172632 1.21034e-19 -0.0336671)
(0.163883 0 -0.0319708)
(0.155263 0 -0.0302999)
(0.146763 0 -0.0286528)
(0.138377 -1.21419e-19 -0.027028)
(0.1301 1.20892e-19 -0.0254247)
(0.121924 1.20145e-19 -0.0238413)
(0.113852 2.34047e-23 -0.022278)
(0.105871 -1.18071e-19 -0.0207327)
(0.0979921 0 -0.0192074)
(0.0901992 1.15313e-19 -0.0176989)
(0.082514 0 -0.0162113)
(0.0749133 0 -0.0147401)
(0.0674328 0 -0.0132922)
(0.0600405 2.88147e-23 -0.0118614)
(0.0527881 2.12202e-19 -0.0104575)
(0.0456331 2.07857e-19 -0.00907256)
(0.0386434 -2.03361e-19 -0.00771924)
(0.031767 -1.98696e-19 -0.00638794)
(0.0250841 0 -0.00509359)
(0.0185402 0 -0.00382621)
(0.0122139 3.68165e-19 -0.00260037)
(0.00606865 -7.15849e-19 -0.00140962)
(0.000142466 6.95378e-19 -0.00026063)
(-0.00552942 3.37218e-19 0.000838967)
(-0.0110245 0 0.00190494)
(-0.0161724 -6.32312e-19 0.00290383)
(-0.021126 3.05667e-19 0.00386527)
(-0.0260405 -2.94976e-19 0.00481931)
(-0.029573 5.69285e-19 0.00550735)
(-0.0359416 0 0.0067379)
(-0.0362792 0 0.00681152)
(-0.0428068 0 0.00807594)
(-0.0507453 0 0.00954451)
(-0.0318674 0 0.00605159)
(-0.0787745 0 0.0149541)
(-0.0389446 -4.37864e-19 0.00705837)
(-0.0405133 -8.09923e-19 0.00821258)
(-0.136331 -7.65851e-19 0.0256398)
(0.0297329 0 -0.00565225)
(-0.117649 0 0.0233387)
(-0.145134 0 0.0262912)
(0.0979477 -6.84932e-19 -0.0179397)
(-0.27471 -1.0808e-18 0.0526037)
(-0.0672672 6.61795e-19 0.0107444)
(0.0870442 0 -0.0146288)
(-0.444277 -9.48469e-19 0.084578)
(-0.0365097 0 0.00395246)
(0.170089 -1.01839e-18 -0.0303458)
(-0.407293 8.04135e-19 0.0789277)
(-0.388728 -9.50379e-19 0.0716573)
(0.0288462 -9.88359e-19 -0.00682288)
(-0.0135454 8.67422e-19 0.00404949)
(-0.311053 -3.92086e-23 0.0595359)
(-0.346821 8.27526e-19 0.0645682)
(0.00368925 0 -0.00225616)
(29.1229 -1.25849e-21 4.02033)
(25.0862 0 1.8545)
(20.2303 -1.91567e-20 -0.215581)
(16.0694 0 -1.2129)
(13.114 -1.73425e-20 -1.50801)
(11.0739 -3.04601e-20 -1.51897)
(9.60335 -1.41026e-20 -1.44141)
(8.4925 0 -1.34393)
(7.62049 3.5594e-22 -1.24866)
(6.91458 -2.19423e-20 -1.16168)
(6.32921 2.01514e-20 -1.08367)
(5.83438 1.85044e-20 -1.01392)
(5.40951 -1.69899e-20 -0.951411)
(5.03995 1.55962e-20 -0.895175)
(4.71498 2.86816e-20 -0.844353)
(4.42651 0 -0.798212)
(4.16837 -6.48923e-23 -0.756133)
(3.93573 2.20545e-20 -0.717597)
(3.72476 2.02253e-20 -0.682165)
(3.53237 0 -0.649465)
(3.35607 0 -0.619183)
(3.19379 1.5399e-20 -0.591051)
(3.04381 0 -0.564839)
(2.9047 1.27497e-20 -0.540347)
(2.77524 -2.31323e-20 -0.517406)
(2.65439 0 -0.495863)
(2.54127 1.89247e-20 -0.475591)
(2.43511 0 -0.456473)
(2.33523 -1.53034e-20 -0.438408)
(2.24107 -2.73857e-20 -0.421307)
(2.15211 -2.43964e-20 -0.40509)
(2.06789 -1.08096e-20 -0.389687)
(1.98802 9.52732e-21 -0.375033)
(1.91215 3.33796e-20 -0.36107)
(1.83995 2.89881e-20 -0.347749)
(1.77114 0 -0.335021)
(1.70546 0 -0.322846)
(1.64268 -1.71098e-23 -0.311183)
(1.5826 0 -0.299998)
(1.52502 -5.77576e-21 -0.289259)
(1.46977 0 -0.278936)
(1.41669 -6.34368e-21 -0.269002)
(1.36564 0 -0.259433)
(1.31647 -1.94891e-21 -0.250205)
(1.26907 0 -0.241296)
(1.22333 -1.73806e-21 -0.232688)
(1.17914 0 -0.224361)
(1.13639 0 -0.216298)
(1.09501 6.1177e-21 -0.208483)
(1.05489 0 -0.200902)
(1.01598 0 -0.193539)
(0.978188 0 -0.186383)
(0.941449 2.05794e-20 -0.17942)
(0.905696 4.42641e-20 -0.172639)
(0.870871 0 -0.166029)
(0.836913 0 -0.159579)
(0.803772 -2.58187e-20 -0.15328)
(0.771391 -2.67786e-20 -0.147122)
(0.73973 0 -0.141096)
(0.708735 0 -0.135195)
(0.678372 0 -0.12941)
(0.648591 0 -0.123734)
(0.619366 -5.92503e-20 -0.118161)
(0.59065 5.97889e-20 -0.112683)
(0.562421 -1.20344e-19 -0.107296)
(0.534639 0 -0.101992)
(0.507284 0 -0.0967674)
(0.480325 0 -0.0916174)
(0.453742 4.71462e-23 -0.0865367)
(0.427516 -1.19736e-19 -0.0815241)
(0.401624 -1.18887e-19 -0.0765726)
(0.376064 2.35653e-19 -0.0716852)
(0.350807 3.58102e-23 -0.0668528)
(0.325873 -1.15192e-19 -0.0620838)
(0.301222 -1.13673e-19 -0.0573656)
(0.276907 0 -0.0527141)
(0.252868 0 -0.0481115)
(0.229198 0 -0.0435833)
(0.205816 2.12363e-19 -0.0391051)
(0.182856 0 -0.0347136)
(0.160214 0 -0.0303761)
(0.138067 1.99032e-19 -0.0261411)
(0.116287 1.9426e-19 -0.0219682)
(0.0950861 0 -0.0179157)
(0.0743321 0 -0.0139388)
(0.0542295 0 -0.0100983)
(0.034704 6.96759e-19 -0.0063567)
(0.0158367 -4.49275e-23 -0.00275399)
(-0.00222931 3.27478e-19 0.000708362)
(-0.0197602 -3.17005e-19 0.00405363)
(-0.0361976 6.12772e-19 0.00720285)
(-0.0520783 2.95874e-19 0.0102357)
(-0.0676668 5.70497e-19 0.0132129)
(-0.0794194 0 0.0154684)
(-0.0989989 0 0.0192126)
(-0.101145 0 0.0195571)
(-0.12211 0 0.0237784)
(-0.143497 4.67695e-19 0.0274068)
(-0.0946127 0 0.018553)
(-0.228068 0 0.0442532)
(-0.10862 -4.19805e-19 0.0196074)
(-0.131431 3.8795e-19 0.0275124)
(-0.385245 1.46565e-18 0.0729421)
(0.0796333 -7.59906e-19 -0.0161623)
(-0.363949 0 0.0742783)
(-0.390442 0 0.0700961)
(0.248 0 -0.0455955)
(-0.811206 5.14734e-19 0.159756)
(-0.148873 -6.29834e-19 0.0204084)
(0.1828 0 -0.0279456)
(-1.28867 1.80187e-18 0.250777)
(-0.0359486 1.13174e-18 -0.0058956)
(0.405639 1.93269e-18 -0.0711664)
(-1.22644 0 0.245765)
(-1.04695 0 0.192974)
(0.103636 -9.35219e-19 -0.0267325)
(-0.095369 0 0.0241916)
(-0.912011 -7.40964e-19 0.180748)
(-0.947035 -7.81011e-19 0.176767)
(0.0724823 0 -0.0200504)
(31.8666 0 3.88938)
(31.0548 0 2.81276)
(28.5289 -1.29858e-20 1.01913)
(25.1908 0 -0.38592)
(21.944 0 -1.22866)
(19.1756 1.51403e-20 -1.65276)
(16.9211 1.33553e-20 -1.82075)
(15.099 0 -1.85225)
(13.6138 4.20546e-22 -1.81855)
(12.3854 2.07874e-20 -1.75609)
(11.3535 -3.79733e-20 -1.68237)
(10.4739 -1.75328e-20 -1.60572)
(9.71438 1.14648e-22 -1.53013)
(9.05122 -1.47786e-20 -1.45744)
(8.46652 -1.35625e-20 -1.38844)
(7.94657 1.23914e-20 -1.3234)
(7.48071 -2.28122e-20 -1.26229)
(7.06055 -2.08998e-20 -1.20496)
(6.67935 0 -1.15119)
(6.33168 0 -1.10073)
(6.01307 1.59561e-20 -1.05335)
(5.71984 1.45602e-20 -1.00879)
(5.44891 0 -0.966845)
(5.19771 0 -0.927294)
(4.96403 2.19192e-20 -0.889952)
(4.74601 0 -0.854642)
(4.54203 -3.58575e-20 -0.821207)
(4.3507 1.61506e-20 -0.789503)
(4.17082 0 -0.759399)
(4.00133 1.29756e-20 -0.730776)
(3.84129 1.15595e-20 -0.703525)
(3.68989 0 -0.677548)
(3.5464 -9.03805e-21 -0.652756)
(3.41018 -1.5817e-20 -0.629067)
(3.28064 1.18871e-23 -0.606405)
(3.15726 0 -0.584702)
(3.03959 0 -0.563894)
(2.92719 8.39388e-21 -0.543925)
(2.81969 0 -0.52474)
(2.71674 0 -0.506289)
(2.61802 0 -0.488528)
(2.52324 0 -0.471414)
(2.43214 0 -0.454907)
(2.34448 0 -0.438972)
(2.26003 0 -0.423573)
(2.17858 1.60241e-21 -0.40868)
(2.09994 -3.12522e-21 -0.394262)
(2.02394 0 -0.380292)
(1.95041 -5.78792e-21 -0.366744)
(1.87919 0 -0.353591)
(1.81014 0 -0.340814)
(1.74313 1.77412e-20 -0.328387)
(1.67803 0 -0.316293)
(1.61473 -2.09128e-20 -0.30451)
(1.55311 2.22051e-20 -0.293021)
(1.49306 0 -0.281807)
(1.4345 2.44044e-20 -0.270854)
(1.37731 0 -0.260144)
(1.32144 0 -0.249664)
(1.26677 0 -0.239398)
(1.21326 5.43912e-20 -0.229335)
(1.1608 5.5254e-20 -0.21946)
(1.10935 2.82491e-23 -0.209765)
(1.05882 -1.12889e-19 -0.200234)
(1.00918 2.47902e-23 -0.19086)
(0.960352 0 -0.181633)
(0.912298 0 -0.172543)
(0.864959 -1.13876e-19 -0.163583)
(0.818303 3.79619e-23 -0.154744)
(0.772287 0 -0.146023)
(0.726879 0 -0.137409)
(0.682059 -1.11095e-19 -0.128906)
(0.637789 2.88145e-23 -0.120498)
(0.594087 2.68447e-23 -0.1122)
(0.550897 0 -0.103989)
(0.508286 0 -0.095895)
(0.466174 -2.07486e-19 -0.087883)
(0.424691 2.03815e-19 -0.080001)
(0.383722 0 -0.0722019)
(0.343469 0 -0.0645541)
(0.303779 0 -0.0569951)
(0.264924 0 -0.0496152)
(0.226718 0 -0.0423364)
(0.189483 0 -0.0352685)
(0.153037 0 -0.0283235)
(0.117683 0 -0.0216185)
(0.0833421 -6.55048e-19 -0.0150736)
(0.0501084 -3.17767e-19 -0.00877669)
(0.0182703 -3.07787e-19 -0.0027087)
(-0.0126608 2.97883e-19 0.00314952)
(-0.0416881 -5.75631e-19 0.00867729)
(-0.0698116 -2.77912e-19 0.0140146)
(-0.0972118 -2.67864e-19 0.0191896)
(-0.11859 0 0.0233183)
(-0.152148 0 0.0296261)
(-0.157475 0 0.0305081)
(-0.194402 0 0.0382102)
(-0.227432 -4.38775e-19 0.0428848)
(-0.155757 0 0.0313581)
(-0.369106 0 0.0716489)
(-0.171259 3.93621e-19 0.0293395)
(-0.230686 0 0.0512244)
(-0.612184 -6.8676e-19 0.112721)
(0.118632 7.12119e-19 -0.024527)
(-0.618653 0 0.131082)
(-0.596426 0 0.0985588)
(0.352749 0 -0.0588258)
(-1.33298 4.81864e-19 0.26611)
(-0.186596 0 0.0109395)
(0.205352 -5.01353e-19 -0.014397)
(-2.08691 -3.76186e-22 0.406511)
(0.024634 -1.05919e-18 -0.0438696)
(0.540795 -1.80971e-18 -0.0781268)
(-2.03951 0 0.42096)
(-1.59377 8.40438e-19 0.27605)
(0.186839 8.74785e-19 -0.055367)
(-0.226215 7.67852e-19 0.0634133)
(-1.48471 0 0.300422)
(-1.45401 7.30273e-19 0.25869)
(0.204695 0 -0.0597492)
(32.3897 0 2.94646)
(32.9566 0 2.76117)
(32.4047 1.22759e-20 1.71761)
(30.764 0 0.51724)
(28.5139 -1.23236e-20 -0.487179)
(26.1008 2.5069e-20 -1.20958)
(23.7843 0 -1.67228)
(21.6804 -2.1893e-20 -1.93623)
(19.8228 2.09948e-20 -2.06534)
(18.2017 1.89925e-20 -2.10961)
(16.7898 1.78542e-20 -2.10283)
(15.5559 -1.62334e-20 -2.06625)
(14.4717 1.51164e-20 -2.01282)
(13.5128 -2.75684e-20 -1.95036)
(12.6592 0 -1.88359)
(11.8946 -2.3376e-20 -1.81538)
(11.2058 0 -1.74747)
(10.582 0 -1.68092)
(10.0141 0 -1.61633)
(9.49475 1.6472e-20 -1.55405)
(9.0179 -3.43491e-23 -1.49424)
(8.57835 -2.61578e-23 -1.43696)
(8.17175 1.25278e-20 -1.38218)
(7.79441 0 -1.32985)
(7.44316 0 -1.27988)
(7.11529 0 -1.23216)
(6.80845 3.3898e-20 -1.18659)
(6.52059 -6.19107e-24 -1.14306)
(6.24993 0 -1.10144)
(5.99492 0 -1.06165)
(5.75416 0 -1.02356)
(5.52644 0 -0.987088)
(5.31067 1.70956e-20 -0.952134)
(5.10588 0 -0.91861)
(4.91121 -1.29986e-20 -0.886434)
(4.72588 0 -0.855525)
(4.54918 0 -0.825812)
(4.38048 -7.95805e-21 -0.797226)
(4.2192 0 -0.769701)
(4.06483 0 -0.743178)
(3.91687 3.99092e-21 -0.717599)
(3.7749 -5.74603e-21 -0.692911)
(3.63852 0 -0.669065)
(3.50735 -1.80832e-21 -0.646012)
(3.38105 0 -0.623709)
(3.25932 -3.00834e-21 -0.602115)
(3.14186 1.86704e-23 -0.581189)
(3.0284 0 -0.560895)
(2.9187 0 -0.541198)
(2.81251 6.51232e-21 -0.522063)
(2.70963 1.49715e-20 -0.503462)
(2.60984 -3.34755e-20 -0.485362)
(2.51296 0 -0.467737)
(2.41881 -1.96936e-20 -0.450557)
(2.32721 -2.09607e-20 -0.433801)
(2.23802 -2.20316e-20 -0.417441)
(2.15108 -2.29903e-20 -0.401456)
(2.06624 0 -0.385822)
(1.9834 0 -0.370522)
(1.90239 -5.02728e-20 -0.355531)
(1.82313 -1.02579e-19 -0.340835)
(1.74549 -5.21139e-20 -0.326412)
(1.66938 3.03173e-23 -0.312249)
(1.59468 5.321e-20 -0.298326)
(1.52133 5.35232e-20 -0.284633)
(1.44921 0 -0.271152)
(1.37827 0 -0.257872)
(1.30842 1.07315e-19 -0.244781)
(1.23961 2.13818e-19 -0.231867)
(1.17176 0 -0.219125)
(1.10483 1.0552e-19 -0.206538)
(1.03878 1.04567e-19 -0.194113)
(0.973572 1.03477e-19 -0.181827)
(0.9092 2.04393e-19 -0.169701)
(0.845601 0 -0.1577)
(0.782847 0 -0.145868)
(0.720842 1.95249e-19 -0.134155)
(0.659743 -3.8348e-19 -0.122629)
(0.599412 -1.88022e-19 -0.111222)
(0.540101 0 -0.100033)
(0.481627 0 -0.0889704)
(0.424333 0 -0.0781651)
(0.368001 0 -0.0675044)
(0.313038 0 -0.0571467)
(0.259241 0 -0.0469638)
(0.206984 -3.16846e-19 -0.0371275)
(0.156216 4.31892e-23 -0.0275171)
(0.107015 2.98368e-19 -0.0182693)
(0.0598519 0 -0.00934347)
(0.0139841 2.79604e-19 -0.000726372)
(-0.0291058 2.70152e-19 0.00741702)
(-0.0709536 0 0.0153023)
(-0.111466 -2.513e-19 0.0228643)
(-0.144044 -4.84267e-19 0.0291654)
(-0.192456 0 0.038104)
(-0.202608 0 0.0398272)
(-0.256967 0 0.0513676)
(-0.300192 -4.11275e-19 0.0563596)
(-0.213161 0 0.044262)
(-0.498742 0 0.0971994)
(-0.226197 3.68775e-19 0.0371919)
(-0.335132 -3.40827e-19 0.0780424)
(-0.813776 0 0.146691)
(0.144838 0 -0.0303844)
(-0.875126 0 0.1916)
(-0.762845 0 0.116097)
(0.410244 0 -0.0603847)
(-1.82893 -1.17209e-22 0.369682)
(-0.187218 0 -0.0109036)
(0.158043 4.69149e-19 0.0195754)
(-2.8213 -7.88505e-19 0.550791)
(0.131503 0 -0.0996288)
(0.576028 -6.14247e-22 -0.0585599)
(-2.82197 0 0.597599)
(-2.02329 -6.48615e-22 0.32999)
(0.269126 0 -0.0875371)
(-0.39857 -7.17914e-19 0.116241)
(-2.00946 0 0.414959)
(-1.85345 6.82001e-19 0.315239)
(0.40283 0 -0.117305)
(32.4934 0 2.09365)
(33.2516 0 2.21994)
(33.5989 0 1.7455)
(33.2358 0 0.952128)
(32.2149 1.16325e-20 0.11095)
(30.7432 -9.0005e-22 -0.637641)
(29.0261 0 -1.23827)
(27.2223 2.0664e-20 -1.68178)
(25.4412 0 -1.98533)
(23.7488 -3.53531e-20 -2.17714)
(22.1776 0 -2.28577)
(20.7375 1.53255e-20 -2.3352)
(19.4262 0 -2.34371)
(18.2348 2.60289e-20 -2.32454)
(17.1523 -1.18611e-20 -2.28699)
(16.1671 2.19256e-20 -2.23749)
(15.2683 -2.00813e-20 -2.18049)
(14.446 -1.84416e-20 -2.11904)
(13.6915 0 -2.05526)
(12.9971 -1.55541e-20 -1.99059)
(12.356 -1.42189e-20 -1.92604)
(11.7626 -2.59233e-20 -1.86227)
(11.2116 -1.18296e-20 -1.79975)
(10.6988 0 -1.73877)
(10.2203 0 -1.67953)
(9.77276 0 -1.62212)
(9.35323 -1.59987e-20 -1.5666)
(8.95914 -1.44159e-20 -1.51299)
(8.5882 0 -1.46126)
(8.23838 0 -1.41137)
(7.9079 1.03219e-20 -1.36328)
(7.59515 0 -1.31693)
(7.2987 1.24026e-24 -1.27226)
(7.01725 -1.41408e-20 -1.2292)
(6.74967 1.22861e-20 -1.18768)
(6.4949 0 -1.14764)
(6.252 0 -1.109)
(6.02011 7.51097e-21 -1.07171)
(5.79845 0 -1.0357)
(5.58631 0 -1.0009)
(5.38305 -3.76608e-21 -0.967263)
(5.18806 5.42198e-21 -0.934727)
(5.0008 0 -0.903237)
(4.82076 1.70612e-21 -0.872741)
(4.64749 0 -0.84319)
(4.48053 1.40976e-21 -0.814535)
(4.31951 2.76731e-21 -0.786733)
(4.16405 0 -0.759736)
(4.0138 5.10908e-21 -0.733506)
(3.86843 -6.14148e-21 -0.708001)
(3.72767 -2.82061e-20 -0.683185)
(3.5912 1.57682e-20 -0.659019)
(3.45879 -1.72204e-20 -0.635472)
(3.33016 2.51641e-23 -0.612506)
(3.20511 0 -0.590093)
(3.0834 2.07657e-20 -0.568199)
(2.96483 2.1667e-20 -0.5468)
(2.8492 -2.2428e-20 -0.525862)
(2.73634 2.30982e-20 -0.505364)
(2.62605 4.73642e-20 -0.485275)
(2.5182 4.83005e-20 -0.465577)
(2.41261 -4.90258e-20 -0.446242)
(2.30915 4.96466e-20 -0.427251)
(2.20767 0 -0.408581)
(2.10806 0 -0.390215)
(2.01017 5.05052e-20 -0.372132)
(1.91394 0 -0.354317)
(1.81921 0 -0.336755)
(1.72593 -1.00593e-19 -0.319427)
(1.63399 0 -0.30233)
(1.54333 -9.92785e-20 -0.285439)
(1.45389 -1.96702e-19 -0.268764)
(1.3656 0 -0.252273)
(1.27846 -9.60965e-20 -0.235995)
(1.19238 0 -0.219884)
(1.10744 0 -0.203995)
(1.02353 -1.83449e-19 -0.188263)
(0.940815 1.80194e-19 -0.172779)
(0.859153 3.96024e-23 -0.157451)
(0.778826 0 -0.14241)
(0.699636 0 -0.127535)
(0.621983 0 -0.112999)
(0.54563 -1.61277e-19 -0.0986503)
(0.471055 1.57174e-19 -0.0847034)
(0.398052 0 -0.0709818)
(0.327046 5.94807e-19 -0.0577222)
(0.258044 2.88701e-19 -0.0447518)
(0.191083 -5.59945e-19 -0.0322707)
(0.126848 -2.71075e-19 -0.0201991)
(0.0643148 -5.24566e-19 -0.00855618)
(0.00550053 0 0.00247453)
(-0.0517376 0 0.0131799)
(-0.106847 2.35634e-19 0.0233419)
(-0.152378 4.54008e-19 0.0321608)
(-0.216658 -4.35941e-19 0.0437913)
(-0.233554 0 0.0467255)
(-0.30673 0 0.0625178)
(-0.359236 3.85339e-19 0.0669791)
(-0.264133 3.71969e-19 0.0568278)
(-0.613744 0 0.119878)
(-0.272674 -3.45367e-19 0.0427949)
(-0.440739 3.19147e-19 0.10744)
(-0.98776 0 0.172942)
(0.157516 0 -0.0329881)
(-1.12611 0 0.254136)
(-0.891675 0 0.12104)
(0.422535 0 -0.0480212)
(-2.28861 -4.21898e-19 0.46732)
(-0.16099 0 -0.0451155)
(0.0502179 0 0.0761766)
(-3.47633 0 0.67719)
(0.264704 9.25431e-19 -0.171815)
(0.520452 7.92272e-19 -0.00837443)
(-3.54913 0 0.769751)
(-2.33794 -7.34186e-19 0.348384)
(0.341531 0 -0.12121)
(-0.600093 -6.71431e-19 0.182782)
(-2.46575 0 0.518896)
(-2.13483 -6.37356e-19 0.338256)
(0.666389 0 -0.195445)
(32.5664 -4.99717e-21 1.47925)
(33.1501 -6.19972e-21 1.61965)
(33.677 7.35909e-21 1.4293)
(33.9031 8.29161e-21 0.968958)
(33.7116 0 0.377626)
(33.1142 -9.93642e-21 -0.237735)
(32.1845 0 -0.811338)
(31.0132 1.74684e-20 -1.30619)
(29.6888 1.67062e-20 -1.70687)
(28.2877 3.22293e-20 -2.01383)
(26.8692 -1.48343e-20 -2.23674)
(25.4754 1.38472e-20 -2.38911)
(24.1334 0 -2.48482)
(22.8588 0 -2.53651)
(21.6589 1.11824e-20 -2.55477)
(20.5355 -1.14575e-22 -2.54814)
(19.4869 1.76133e-22 -2.52326)
(18.5097 1.35992e-22 -2.48519)
(17.5993 0 -2.43776)
(16.7509 0 -2.38387)
(15.9596 0 -2.32565)
(15.2207 2.43586e-20 -2.26472)
(14.5298 1.10891e-20 -2.20227)
(13.8828 0 -2.1392)
(13.276 0 -2.07616)
(12.706 1.66353e-20 -2.01364)
(12.1697 0 -1.95198)
(11.6643 0 -1.89145)
(11.1873 0 -1.83222)
(10.7365 0 -1.77441)
(10.3098 -6.55225e-24 -1.71809)
(9.90526 0 -1.66331)
(9.52132 -1.74543e-24 -1.61007)
(9.1564 1.33298e-20 -1.55839)
(8.80911 2.38954e-24 -1.50824)
(8.47819 0 -1.4596)
(8.16249 0 -1.41244)
(7.86094 0 -1.3667)
(7.57259 0 -1.32236)
(7.29654 0 -1.27936)
(7.03198 0 -1.23765)
(6.77817 0 -1.19719)
(6.53441 -3.31899e-21 -1.15792)
(6.30005 -1.64336e-21 -1.11981)
(6.07451 0 -1.08279)
(5.85724 1.29398e-21 -1.04682)
(5.64773 0 -1.01186)
(5.44548 0 -0.977865)
(5.25008 -9.60909e-21 -0.944783)
(5.06109 0 -0.912572)
(4.87814 1.32677e-20 -0.881195)
(4.70084 0 -0.850606)
(4.52888 3.2404e-20 -0.820772)
(4.36191 2.43768e-23 -0.791649)
(4.19964 0 -0.763206)
(4.04178 0 -0.735402)
(3.88807 0 -0.70821)
(3.73823 4.21988e-20 -0.681589)
(3.59206 -4.34574e-20 -0.655516)
(3.44928 -4.45022e-20 -0.629952)
(3.30974 -4.53828e-20 -0.604876)
(3.17317 9.22188e-20 -0.580253)
(3.03944 4.66472e-20 -0.556062)
(2.90831 0 -0.532274)
(2.77967 0 -0.508867)
(2.6533 -2.41942e-23 -0.485818)
(2.52913 0 -0.463104)
(2.40693 0 -0.44071)
(2.28667 -9.44903e-20 -0.418612)
(2.16815 0 -0.396804)
(2.05134 0 -0.375255)
(1.93611 1.8479e-19 -0.35398)
(1.8224 -9.13673e-20 -0.332934)
(1.71017 0 -0.312158)
(1.59934 0 -0.291589)
(1.48996 0 -0.2713)
(1.38192 1.72287e-19 -0.251207)
(1.27539 0 -0.231424)
(1.17022 3.3168e-19 -0.211834)
(1.06672 -1.62392e-19 -0.192604)
(0.964671 0 -0.173577)
(0.864528 0 -0.154977)
(0.76605 1.5134e-19 -0.136605)
(0.669764 -2.67523e-23 -0.118739)
(0.575488 1.43455e-19 -0.101148)
(0.483674 -2.7894e-19 -0.0841424)
(0.394416 2.7068e-19 -0.0674874)
(0.307685 2.6252e-19 -0.0514593)
(0.224414 2.54158e-19 -0.0359261)
(0.143275 3.1849e-23 -0.0209549)
(0.0668584 0 -0.00673753)
(-0.00764355 -2.29145e-19 0.00708897)
(-0.0790436 0 0.020099)
(-0.139483 0 0.0317966)
(-0.220818 4.08396e-19 0.0462153)
(-0.246661 0 0.0507906)
(-0.339993 0 0.0711325)
(-0.401405 0 0.0745339)
(-0.305333 -3.48279e-19 0.06854)
(-0.710445 0 0.139151)
(-0.309369 -3.23238e-19 0.0461943)
(-0.542762 0 0.138539)
(-1.13189 0 0.191619)
(0.157154 0 -0.0322393)
(-1.36391 0 0.316972)
(-0.985562 0 0.114711)
(0.394144 -5.02303e-19 -0.0228832)
(-2.702 -3.94309e-19 0.556483)
(-0.119162 4.81937e-19 -0.0885471)
(-0.105979 0 0.15254)
(-4.03753 0 0.783125)
(0.401959 -1.72998e-18 -0.254575)
(0.387522 0 0.06888)
(-4.19691 5.82481e-19 0.931214)
(-2.54463 0 0.334811)
(0.397595 7.14505e-19 -0.153845)
(-0.815757 6.2744e-19 0.259307)
(-2.83239 0 0.607095)
(-2.28825 -5.94826e-19 0.327419)
(0.993885 0 -0.293172)
(32.6217 4.70597e-21 1.02697)
(33.033 1.14322e-20 1.1147)
(33.4793 -6.93187e-21 1.03231)
(33.8447 -7.80266e-22 0.769519)
(34.0186 7.51097e-21 0.37977)
(33.9448 0 -0.0750073)
(33.6156 0 -0.54571)
(33.0511 -1.64491e-20 -0.996614)
(32.2867 -3.05603e-20 -1.4041)
(31.3648 -7.08132e-22 -1.75516)
(30.3288 1.39673e-20 -2.04527)
(29.2192 -1.30378e-20 -2.27578)
(28.0711 1.17951e-20 -2.45153)
(26.9126 0 -2.5791)
(25.7651 0 -2.66565)
(24.6442 -9.586e-21 -2.71817)
(23.5604 3.50908e-20 -2.74305)
(22.52 3.23076e-20 -2.74585)
(21.5266 0 -2.73128)
(20.5816 0 -2.70322)
(19.6846 0 -2.66483)
(18.8347 -6.74067e-23 -2.61864)
(18.03 -2.08307e-20 -2.56669)
(17.2684 9.46676e-21 -2.51057)
(16.5475 1.72146e-20 -2.45156)
(15.8651 -3.12777e-20 -2.39067)
(15.2187 1.41241e-20 -2.32867)
(14.606 1.27387e-20 -2.26618)
(14.0249 1.14508e-20 -2.20367)
(13.4732 0 -2.14153)
(12.9491 -9.15573e-21 -2.08003)
(12.4506 8.11302e-21 -2.01938)
(11.9761 -7.16269e-21 -1.95975)
(11.524 -1.25428e-20 -1.90126)
(11.0928 -2.1807e-20 -1.84399)
(10.6812 0 -1.78799)
(10.2879 0 -1.7333)
(9.91172 -6.68252e-21 -1.67994)
(9.55157 0 -1.6279)
(9.20645 4.38111e-21 -1.57718)
(8.87542 3.36421e-21 -1.52777)
(8.55761 0 -1.47964)
(8.25221 6.26215e-21 -1.43275)
(7.95846 1.54651e-21 -1.38709)
(7.67567 0 -1.34261)
(7.40316 -1.21758e-21 -1.29928)
(7.14034 -2.40662e-21 -1.25706)
(6.88662 0 -1.2159)
(6.64147 9.01137e-21 -1.17578)
(6.40438 -5.39994e-21 -1.13664)
(6.17487 -1.24273e-20 -1.09845)
(5.95249 0 -1.06117)
(5.73684 -2.46295e-23 -1.02475)
(5.52749 3.27651e-20 -0.989163)
(5.32409 0 -0.954367)
(5.12627 0 -0.92032)
(4.93371 -1.91179e-20 -0.886992)
(4.74607 -1.98281e-20 -0.85434)
(4.56308 4.08189e-20 -0.822335)
(4.38441 4.18331e-20 -0.790937)
(4.20985 4.26572e-20 -0.760119)
(4.03908 -4.33217e-20 -0.729844)
(3.87192 -8.76467e-20 -0.700086)
(3.70808 0 -0.670811)
(3.54742 0 -0.641996)
(3.38965 -8.91766e-20 -0.613611)
(3.23466 0 -0.585631)
(3.08221 0 -0.558037)
(2.93221 8.87468e-20 -0.5308)
(2.78444 0 -0.503914)
(2.63883 -8.75208e-20 -0.477342)
(2.49521 -3.2321e-23 -0.4511)
(2.35353 8.57765e-20 -0.425135)
(2.21369 0 -0.399495)
(2.07561 0 -0.374104)
(1.93933 0 -0.349053)
(1.80473 1.61582e-19 -0.324233)
(1.67197 0 -0.299789)
(1.54089 -1.55566e-19 -0.275573)
(1.41183 3.04626e-19 -0.251793)
(1.28456 0 -0.228252)
(1.15958 0 -0.205228)
(1.03664 0 -0.182471)
(0.916323 -2.64993e-23 -0.160331)
(0.798471 -1.34486e-19 -0.13851)
(0.683559 -2.61379e-19 -0.117408)
(0.57178 -2.53692e-19 -0.0967128)
(0.463035 2.45941e-19 -0.0767968)
(0.358523 0 -0.0574531)
(0.256599 2.3032e-19 -0.0388251)
(0.16046 0 -0.0210862)
(0.066586 2.14632e-19 -0.00381453)
(-0.0230386 0 0.0123227)
(-0.100562 0 0.0272931)
(-0.20035 0 0.0446081)
(-0.237634 -3.68078e-19 0.0513066)
(-0.352441 -3.51982e-19 0.0764887)
(-0.423024 0 0.0783093)
(-0.332702 3.25944e-19 0.0787521)
(-0.784845 -3.03575e-19 0.15422)
(-0.334316 3.02447e-19 0.0472106)
(-0.635741 -2.79524e-19 0.170276)
(-1.24437 0 0.20221)
(0.145888 0 -0.0280747)
(-1.58061 0 0.378269)
(-1.0483 0 0.0979147)
(0.332657 4.69697e-19 0.0142839)
(-3.05993 1.86431e-22 0.634737)
(-0.0733618 -9.00959e-19 -0.138513)
(-0.295603 0 0.24618)
(-4.49341 0 0.864412)
(0.520805 8.08279e-19 -0.342663)
(0.195501 0 0.170641)
(-4.74287 -5.44328e-19 1.07602)
(-2.65693 0 0.290797)
(0.434907 -1.33526e-18 -0.1838)
(-1.02771 0 0.342104)
(-3.08881 0 0.674113)
(-2.30735 5.55663e-19 0.279706)
(1.38247 0 -0.410291)
(32.6469 0 0.673631)
(32.9485 -5.26154e-21 0.717496)
(33.2856 0 0.668513)
(33.6162 -6.61396e-21 0.505927)
(33.8774 -1.34851e-20 0.244575)
(34.0182 0 -0.0838189)
(34.0102 6.72854e-21 -0.447843)
(33.842 0 -0.821403)
(33.5142 8.99632e-22 -1.18431)
(33.0363 -2.59192e-20 -1.52208)
(32.4244 0 -1.82543)
(31.6987 0 -2.08943)
(30.8814 -1.10939e-20 -2.31252)
(29.9948 0 -2.4954)
(29.06 0 -2.64038)
(28.0957 0 -2.75072)
(27.1183 -1.63928e-20 -2.83019)
(26.1409 -1.51082e-20 -2.88275)
(25.1742 -1.37154e-20 -2.91226)
(24.2262 0 -2.92235)
(23.3026 0 -2.91631)
(22.4075 -1.0701e-20 -2.89704)
(21.5435 9.77115e-21 -2.86704)
(20.7119 -8.90375e-21 -2.82846)
(19.9133 -1.61907e-20 -2.78311)
(19.1477 2.93006e-20 -2.73248)
(18.4145 -5.44537e-23 -2.67783)
(17.713 -1.19807e-20 -2.6202)
(17.042 -1.07693e-20 -2.56042)
(16.4004 0 -2.49921)
(15.7868 0 -2.43711)
(15.2001 -7.62974e-21 -2.37459)
(14.6388 0 -2.31203)
(14.1016 1.17951e-20 -2.24971)
(13.5874 1.02519e-20 -2.18788)
(13.0948 -8.81851e-21 -2.12672)
(12.6228 0 -2.06638)
(12.1701 6.28342e-21 -2.00697)
(11.7357 5.15948e-21 -1.94857)
(11.3186 3.52624e-24 -1.89125)
(10.9178 -6.3305e-21 -1.83505)
(10.5325 0 -1.77999)
(10.1617 -2.9506e-21 -1.72609)
(9.80464 0 -1.67334)
(9.46055 0 -1.62175)
(9.1287 0 -1.57131)
(8.80842 1.35652e-23 -1.52199)
(8.49905 0 -1.47376)
(8.19998 -4.22778e-21 -1.42662)
(7.91063 1.01364e-20 -1.38052)
(7.63046 1.16781e-20 -1.33543)
(7.35893 0 -1.29132)
(7.09558 -1.42838e-20 -1.24816)
(6.8399 -3.07395e-20 -1.20591)
(6.5915 0 -1.16454)
(6.34991 0 -1.124)
(6.11478 1.79584e-20 -1.08427)
(5.88567 1.85876e-20 -1.04529)
(5.66228 -1.91604e-20 -1.00706)
(5.44421 -3.92217e-20 -0.969508)
(5.23121 0 -0.932624)
(5.02287 0 -0.896362)
(4.819 2.8259e-23 -0.860695)
(4.61922 -4.14604e-20 -0.825586)
(4.42338 0 -0.791008)
(4.23111 4.18432e-20 -0.75693)
(4.04229 0 -0.723322)
(3.8566 0 -0.690163)
(3.67395 0 -0.657419)
(3.49403 0 -0.625087)
(3.31679 3.42469e-23 -0.593117)
(3.142 -3.20234e-23 -0.561536)
(2.96959 -8.04068e-20 -0.530274)
(2.79942 0 -0.499395)
(2.63141 -7.82655e-20 -0.468803)
(2.46556 0 -0.438609)
(2.30175 -1.51516e-19 -0.40868)
(2.14013 1.48701e-19 -0.379194)
(1.98054 -1.45768e-19 -0.349965)
(1.82331 -1.42762e-19 -0.321252)
(1.66825 0 -0.292806)
(1.51584 1.36285e-19 -0.264975)
(1.36588 0 -0.237441)
(1.21896 -1.29507e-19 -0.210643)
(1.07498 -1.25953e-19 -0.184202)
(0.934433 2.44861e-19 -0.158623)
(0.797612 0 -0.133498)
(0.664353 -4.60658e-19 -0.109321)
(0.536126 0 -0.0857827)
(0.410978 2.15611e-19 -0.0631365)
(0.292726 0 -0.0415038)
(0.177114 2.00887e-19 -0.0204332)
(0.06706 0 -0.000857232)
(-0.0299667 3.72693e-19 0.0178203)
(-0.149862 -3.57762e-19 0.0381731)
(-0.201371 3.44447e-19 0.0475287)
(-0.339016 3.29351e-19 0.0777891)
(-0.419646 0 0.0778098)
(-0.341383 -6.09848e-19 0.0866846)
(-0.832469 5.67888e-19 0.164341)
(-0.344676 0 0.0455562)
(-0.713512 2.61421e-19 0.201448)
(-1.32347 0 0.204602)
(0.127682 0 -0.0205661)
(-1.76826 -4.22866e-19 0.436173)
(-1.08414 0 0.0718533)
(0.248028 0 0.0617571)
(-3.3543 3.44443e-19 0.700064)
(-0.0337062 8.41757e-19 -0.192431)
(-0.502401 3.5968e-19 0.353639)
(-4.8354 0 0.920463)
(0.602736 0 -0.431226)
(-0.0346596 0 0.292338)
(-5.16693 0 1.19879)
(-2.69232 5.96507e-19 0.220427)
(0.456226 6.23706e-19 -0.210628)
(-1.21627 0 0.426404)
(-3.21613 0 0.714774)
(-2.18895 0 0.194471)
(1.82883 0 -0.54591)
(32.6465 4.21643e-21 0.385195)
(32.8787 0 0.401653)
(33.1345 4.93314e-21 0.361488)
(33.3995 0 0.24866)
(33.6426 6.03268e-21 0.0637131)
(33.8325 0 -0.178661)
(33.9462 -6.32397e-21 -0.459331)
(33.9688 1.16018e-20 -0.760361)
(33.891 2.3685e-20 -1.06659)
(33.7081 7.27545e-22 -1.36604)
(33.4199 0 -1.64969)
(33.0296 0 -1.91135)
(32.5439 0 -2.14714)
(31.9719 0 -2.355)
(31.3246 0 -2.53417)
(30.6141 0 -2.68493)
(29.8527 1.47744e-20 -2.80828)
(29.0526 -1.36957e-20 -2.90583)
(28.2255 1.2887e-20 -2.97955)
(27.3818 0 -3.03164)
(26.5306 0 -3.06443)
(25.6798 9.85424e-21 -3.08026)
(24.8358 9.02154e-21 -3.08135)
(24.0037 8.23924e-21 -3.06981)
(23.1877 0 -3.04757)
(22.3906 -1.37322e-20 -3.01637)
(21.6147 -2.47852e-20 -2.97774)
(20.8615 1.11577e-20 -2.93303)
(20.1318 0 -2.8834)
(19.4262 0 -2.82986)
(18.7447 0 -2.77326)
(18.0872 7.13315e-21 -2.71435)
(17.4533 0 -2.65373)
(16.8425 0 -2.59192)
(16.254 9.60464e-21 -2.52936)
(15.6873 8.28417e-21 -2.46641)
(15.1416 0 -2.40338)
(14.6159 5.89802e-21 -2.3405)
(14.1096 -9.69106e-21 -2.27799)
(13.6217 -3.87244e-21 -2.21601)
(13.1515 2.97519e-21 -2.15469)
(12.6982 0 -2.09413)
(12.2609 0 -2.03442)
(11.8389 0 -1.97563)
(11.4315 1.27149e-22 -1.91778)
(11.0379 0 -1.86093)
(10.6575 2.11141e-21 -1.80508)
(10.2896 3.06694e-21 -1.75025)
(9.93351 0 -1.69643)
(9.58868 -4.75254e-21 -1.64362)
(9.25451 0 -1.59182)
(8.93043 0 -1.54099)
(8.61592 -1.3365e-20 -1.49113)
(8.31043 2.14343e-23 -1.4422)
(8.01351 1.53096e-20 -1.39419)
(7.72464 0 -1.34705)
(7.44343 0 -1.30077)
(7.16938 -1.74443e-20 -1.25531)
(6.90215 0 -1.21064)
(6.64126 3.68045e-20 -1.16671)
(6.38643 0 -1.12351)
(6.13719 0 -1.08099)
(5.89332 7.70998e-20 -1.03913)
(5.65435 7.77625e-20 -0.99789)
(5.42012 3.90872e-20 -0.957238)
(5.19019 0 -0.917143)
(4.96442 0 -0.877573)
(4.74242 3.91488e-20 -0.838509)
(4.52407 7.79885e-20 -0.799908)
(4.30901 0 -0.761773)
(4.09718 7.69603e-20 -0.724043)
(3.88828 -7.62294e-20 -0.686755)
(3.68223 7.5376e-20 -0.649822)
(3.47884 -7.43906e-20 -0.613326)
(3.27804 7.33559e-20 -0.577146)
(3.07978 0 -0.541425)