/*--------------------------------*- C++ -*----------------------------------*\
| =========                 |                                                 |
| \\      /  F ield         | OpenFOAM: The Open Source CFD Toolbox           |
|  \\    /   O peration     | Version:  2412                                  |
|   \\  /    A nd           | Website:  www.openfoam.com                      |
|    \\/     M anipulation  |                                                 |
\*---------------------------------------------------------------------------*/
FoamFile
{
    version     2.0;
    format      ascii;
    arch        "LSB;label=32;scalar=64";
    class       volScalarField;
    location    "1.045";
    object      Co;
}
// * * * * * * * * * * * * * * * * * * * * * * * * * * * * * * * * * * * * * //

dimensions      [0 0 0 0 0 0 0];

internalField   nonuniform List<scalar> 
12600
(
0.314691
0.176621
0.100029
0.0629427
0.0449723
0.0350533
0.0286549
0.0240742
0.0206003
0.0178644
0.0156498
0.0138197
0.0122827
0.010975
0.00985035
0.00887451
0.00802138
0.0072707
0.0066065
0.00601595
0.00548866
0.00501608
0.00459115
0.0042079
0.00386135
0.00354722
0.00326185
0.00300212
0.00276529
0.00254898
0.00235113
0.00216991
0.0020037
0.0018511
0.00171082
0.00158175
0.00146288
0.00135331
0.00125223
0.00115891
0.00107269
0.000992982
0.000919248
0.000851001
0.000787796
0.000729233
0.000674943
0.000624594
0.000577876
0.000534516
0.00049425
0.000456853
0.0004221
0.000389805
0.000359773
0.000331853
0.000305874
0.000281714
0.000259221
0.000238299
0.000218811
0.000200684
0.000183791
0.000168082
0.000153434
0.000139821
0.000127121
0.000115328
0.000104323
9.41164e-05
8.45883e-05
7.57694e-05
6.75348e-05
5.99343e-05
5.28378e-05
4.63124e-05
4.02241e-05
3.46516e-05
2.94646e-05
2.47386e-05
2.03682e-05
1.63923e-05
1.27704e-05
9.4652e-06
6.50942e-06
3.8628e-06
2.00196e-06
2.84143e-06
3.9212e-06
6.31677e-06
6.37907e-06
7.96486e-06
1.01754e-05
9.61405e-06
1.19729e-05
1.13029e-05
1.28512e-05
1.2123e-05
1.05801e-05
1.95352e-05
1.84068e-05
1.65801e-05
1.55981e-05
1.09635e-05
2.79931e-05
2.64205e-05
2.71897e-05
2.54656e-05
1.60272e-05
3.73165e-05
3.80581e-05
2.76201e-05
3.06069e-05
3.52438e-05
1.54092e-05
1.17031e-05
1.09567e-05
8.90395e-06
5.28098e-07
4.31591e-06
0.477754
0.376403
0.276325
0.202458
0.15313
0.12054
0.098226
0.082128
0.06996
0.0604263
0.0527504
0.0464383
0.0411606
0.036688
0.0328555
0.0295411
0.0266523
0.0241174
0.0218803
0.019896
0.0181282
0.0165471
0.0151281
0.0138506
0.0126974
0.0116537
0.010707
0.0098466
0.00906308
0.00834838
0.00769544
0.00709805
0.00655077
0.00604879
0.00558782
0.00516408
0.00477417
0.00441507
0.00408407
0.00377872
0.00349682
0.00323641
0.00299567
0.00277299
0.0025669
0.00237606
0.00219924
0.00203535
0.00188336
0.00174237
0.0016115
0.00149001
0.00137716
0.00127233
0.00117488
0.00108433
0.00100009
0.000921778
0.000848887
0.000781111
0.000717987
0.000659291
0.000604591
0.000553739
0.000506321
0.00046226
0.000421148
0.000382981
0.000347344
0.000314305
0.000283436
0.000254874
0.000228171
0.000203534
0.000180487
0.000159306
0.000139488
0.000121365
0.00010443
8.90074e-05
7.46946e-05
6.16319e-05
4.97596e-05
3.87533e-05
2.90821e-05
2.01223e-05
1.20557e-05
8.97804e-06
8.84871e-06
1.75939e-05
1.5829e-05
2.38025e-05
2.90924e-05
2.70727e-05
3.78147e-05
3.39961e-05
4.27001e-05
3.69339e-05
3.18679e-05
6.59584e-05
6.3689e-05
6.29843e-05
5.20889e-05
3.46751e-05
9.65606e-05
9.50226e-05
0.000107684
8.50782e-05
5.41353e-05
0.000131215
0.000138771
0.000112389
8.93615e-05
0.000127696
5.94855e-05
3.59908e-05
3.26808e-05
3.17697e-05
1.58584e-06
1.65387e-05
0.51226
0.468441
0.397162
0.325363
0.26447
0.216432
0.179566
0.151257
0.129183
0.111628
0.0973946
0.0856542
0.0758275
0.0675005
0.0603703
0.0542105
0.0488484
0.0441497
0.0400089
0.0363413
0.0330785
0.0301642
0.0275523
0.025204
0.0230867
0.0211729
0.019439
0.0178648
0.0164328
0.015128
0.0139371
0.0128485
0.0118522
0.0109391
0.0101014
0.00933185
0.00862434
0.00797323
0.00737347
0.00682059
0.0063105
0.00583958
0.00540451
0.00500232
0.00463029
0.00428598
0.00396714
0.00367176
0.00339795
0.00314407
0.00290853
0.00268996
0.00248701
0.00229856
0.00212345
0.00196077
0.00180949
0.0016689
0.00153807
0.00141645
0.00130321
0.00119794
0.00109984
0.00100867
0.000923648
0.000844667
0.00077096
0.000702547
0.000638647
0.000579417
0.000524042
0.000472819
0.000424876
0.000380661
0.000339223
0.00030117
0.00026546
0.000232847
0.00020224
0.000174401
0.000148468
0.00012471
0.000103245
8.28717e-05
6.55302e-05
4.86332e-05
3.39393e-05
2.20401e-05
1.36423e-05
2.90589e-05
2.1986e-05
4.16535e-05
4.73667e-05
4.24745e-05
6.85051e-05
5.84753e-05
8.08461e-05
6.5229e-05
5.28313e-05
0.000126685
0.000126718
0.000133008
0.000101336
6.04104e-05
0.000190148
0.000197674
0.000237089
0.000166077
0.000101833
0.000262389
0.000292775
0.000254028
0.0001434
0.000266257
0.000130639
6.03435e-05
5.73416e-05
6.54086e-05
3.91822e-06
3.54355e-05
0.504211
0.490935
0.453022
0.402637
0.350251
0.301575
0.259066
0.223163
0.193271
0.168446
0.147745
0.130358
0.11563
0.10305
0.0922196
0.0828296
0.0746355
0.067444
0.0611
0.0554779
0.050475
0.0460068
0.0420028
0.038404
0.0351606
0.0322303
0.0295768
0.027169
0.0249802
0.0229868
0.0211686
0.0195077
0.0179884
0.0165969
0.015321
0.0141497
0.0130734
0.0120834
0.0111721
0.0103324
0.00955819
0.00884375
0.00818404
0.00757449
0.00701091
0.00648957
0.00600701
0.00556014
0.0051461
0.00476234
0.00440643
0.00407629
0.00376986
0.00348542
0.0032212
0.00297581
0.00274769
0.00253574
0.00233856
0.00215531
0.0019847
0.00182614
0.00167841
0.00154112
0.00141312
0.00129421
0.00118325
0.00108026
0.000984048
0.000894867
0.000811464
0.000734308
0.000662047
0.000595402
0.000532866
0.000475454
0.000421453
0.000372176
0.000325764
0.000283588
0.000244167
0.000207935
0.000175364
0.0001438
0.000117739
9.10589e-05
6.87448e-05
5.01122e-05
2.63541e-05
4.03496e-05
2.43234e-05
6.08017e-05
6.36055e-05
5.39205e-05
0.00010255
8.32856e-05
0.000125866
9.6491e-05
7.08478e-05
0.00019712
0.000203401
0.00022406
0.000162935
8.43629e-05
0.000300097
0.000327801
0.000410487
0.000267755
0.000152258
0.000416944
0.000491347
0.000450389
0.000184544
0.000439978
0.000226318
8.01206e-05
8.44816e-05
0.000106988
8.97243e-06
5.94884e-05
0.488027
0.483216
0.465013
0.43512
0.398489
0.359422
0.321012
0.285162
0.25279
0.224143
0.199074
0.177247
0.158263
0.141728
0.127285
0.114626
0.103488
0.0936506
0.0849306
0.0771741
0.070252
0.064056
0.0584942
0.0534887
0.0489732
0.0448906
0.0411918
0.0378345
0.0347817
0.0320014
0.0294653
0.0271488
0.0250302
0.02309
0.0213114
0.0196791
0.0181795
0.0168007
0.0155318
0.014363
0.0132856
0.0122918
0.0113744
0.0105271
0.00974394
0.00901972
0.00834958
0.00772923
0.00715461
0.0066222
0.00612858
0.00567084
0.00524609
0.00485194
0.00448589
0.00414603
0.00383016
0.00353674
0.00326384
0.00301026
0.00277423
0.00255489
0.00235056
0.0021607
0.00198369
0.00181927
0.00166584
0.00152343
0.00139038
0.00126704
0.00115167
0.00104492
0.000944897
0.000852633
0.000765969
0.000686411
0.00061144
0.00054306
0.000478461
0.000419797
0.000364788
0.000314116
0.000268699
0.000223979
0.000187922
0.000149458
0.00011843
9.16713e-05
5.73551e-05
6.27053e-05
2.21533e-05
8.02436e-05
7.65604e-05
5.95557e-05
0.000138464
0.000106745
0.000176136
0.000129581
8.38292e-05
0.000273182
0.000289746
0.000333128
0.00023547
0.000103459
0.000418752
0.000478765
0.000621588
0.000387748
0.00019935
0.00058207
0.000726012
0.000697253
0.000225452
0.000637743
0.000342547
9.12487e-05
0.00011314
0.000154046
1.71391e-05
8.69381e-05
0.473833
0.468151
0.457212
0.439307
0.41555
0.387818
0.358
0.327734
0.298244
0.270341
0.244485
0.220873
0.19952
0.180329
0.163141
0.147771
0.134031
0.121741
0.110735
0.100864
0.0919951
0.084013
0.0768158
0.0703148
0.0644322
0.0591004
0.0542599
0.0498589
0.0458515
0.0421976
0.0388617
0.0358123
0.0330217
0.030465
0.0281204
0.025968
0.0239903
0.0221716
0.0204978
0.018956
0.0175349
0.016224
0.0150141
0.0138967
0.012864
0.0119092
0.0110258
0.0102082
0.00945099
0.00874953
0.0080993
0.00749645
0.00693715
0.00641824
0.00593642
0.00548914
0.00507351
0.00468749
0.00432851
0.00399499
0.0036846
0.00339618
0.00312754
0.00287793
0.00264523
0.00242909
0.00222739
0.00204016
0.00186524
0.00170306
0.00155132
0.0014109
0.00127927
0.00115782
0.00104365
0.000938832
0.000839902
0.00074969
0.000664247
0.00058669
0.000513743
0.000446452
0.000386197
0.000326201
0.000278622
0.000226225
0.00018524
0.000148628
0.000102007
9.68487e-05
2.09388e-05
9.88079e-05
8.49236e-05
5.73572e-05
0.000174592
0.000126998
0.000229914
0.000162992
8.99587e-05
0.000351117
0.000381787
0.000456704
0.000316789
0.000115092
0.000539371
0.000644361
0.000863117
0.000522425
0.000237601
0.000746336
0.000988631
0.000987916
0.000289172
0.000848321
0.000473912
0.000105807
0.000142097
0.000204554
2.86869e-05
0.000115692
0.462541
0.454209
0.444363
0.431291
0.414718
0.395085
0.373125
0.349683
0.325576
0.301505
0.278025
0.255539
0.234315
0.214507
0.196178
0.179326
0.163903
0.149832
0.13702
0.12537
0.11478
0.105156
0.0964071
0.0884493
0.0812064
0.0746089
0.0685941
0.0631057
0.0580928
0.0535101
0.0493168
0.0454764
0.0419561
0.0387265
0.0357611
0.0330361
0.0305302
0.0282241
0.0261002
0.024143
0.0223382
0.0206728
0.0191352
0.0177148
0.016402
0.0151879
0.0140646
0.0130248
0.0120619
0.0111698
0.0103429
0.00957619
0.00886494
0.00820507
0.00759242
0.0070237
0.00649527
0.00600451
0.00554816
0.0051242
0.00472966
0.00436305
0.00402161
0.00370435
0.0034086
0.00313386
0.00287749
0.00263948
0.00241711
0.00221089
0.00201791
0.00183929
0.00167177
0.00151718
0.00137174
0.00123819
0.00111197
0.000996879
0.00088763
0.000788493
0.000694979
0.000608653
0.000531291
0.000453717
0.00039281
0.000324169
0.000271782
0.000223303
0.000162733
0.000155843
5.15691e-05
0.000132978
8.72572e-05
4.64744e-05
0.000209071
0.000141972
0.000285332
0.000194911
0.000102121
0.000427538
0.000475614
0.000590844
0.000404183
0.000122425
0.000656277
0.000818844
0.00112693
0.000667236
0.000262073
0.000900273
0.00127147
0.00131292
0.000373355
0.00106058
0.000613845
0.000137407
0.00017018
0.000257
4.36795e-05
0.000143442
0.453209
0.442813
0.432213
0.420358
0.406781
0.391441
0.374516
0.356313
0.337205
0.317578
0.297791
0.278167
0.258978
0.240441
0.222719
0.205926
0.190129
0.175358
0.161614
0.148875
0.137103
0.126249
0.116258
0.107072
0.0986324
0.0908826
0.0837676
0.0772355
0.0712378
0.0657294
0.0606688
0.0560178
0.0517413
0.0478074
0.0441869
0.0408531
0.0377818
0.0349509
0.0323401
0.0299313
0.0277077
0.025654
0.0237563
0.0220021
0.0203797
0.0188785
0.017489
0.0162023
0.0150102
0.0139055
0.0128813
0.0119315
0.0110502
0.0102324
0.00947308
0.00876811
0.00811302
0.00750458
0.00693877
0.00641307
0.00592384
0.0054692
0.00504575
0.00465226
0.00428541
0.00394461
0.00362654
0.00333122
0.00305525
0.00279928
0.00255969
0.00233786
0.00212974
0.00193761
0.00175675
0.00159061
0.00143342
0.00129006
0.00115372
0.00103001
0.000912996
0.000804954
0.00070792
0.00061026
0.000533914
0.000446537
0.000381072
0.000318422
0.000242247
0.000231985
9.97702e-05
0.000175437
8.18274e-05
3.65923e-05
0.000239818
0.000149359
0.000340383
0.000223253
0.00012572
0.000499475
0.000567403
0.000731247
0.000494529
0.000149943
0.000765012
0.000996943
0.00140429
0.000817118
0.000268559
0.00103694
0.00156709
0.00166004
0.000466954
0.00126385
0.000755178
0.000182156
0.00019654
0.000310419
6.19103e-05
0.000167709
0.445149
0.433429
0.421919
0.410035
0.397415
0.383923
0.369573
0.35446
0.338729
0.322545
0.306079
0.2895
0.272974
0.25665
0.240665
0.225136
0.210164
0.195824
0.182173
0.169248
0.157068
0.145634
0.134939
0.124963
0.115679
0.107056
0.0990575
0.0916482
0.0847907
0.0784482
0.0725847
0.0671658
0.0621589
0.057533
0.0532591
0.0493101
0.0456609
0.0422882
0.0391704
0.0362875
0.0336211
0.0311543
0.0288714
0.0267583
0.0248015
0.0229891
0.0213098
0.0197535
0.0183105
0.0169724
0.015731
0.0145792
0.01351
0.0125174
0.0115954
0.010739
0.00994308
0.00920358
0.00851573
0.00787648
0.00728145
0.00672838
0.00621315
0.00573426
0.00528773
0.0048728
0.00448549
0.00412579
0.00378958
0.00347765
0.00318559
0.00291509
0.0026612
0.00242674
0.00220588
0.00200291
0.00181069
0.00163531
0.00146825
0.00131665
0.00117289
0.00104017
0.000920582
0.000800096
0.000705873
0.000597075
0.000516585
0.000437171
0.000343668
0.000327859
0.000166
0.00025333
0.00010237
3.59265e-05
0.000264469
0.000146565
0.000392915
0.000245697
0.000152247
0.00056438
0.000653418
0.000873396
0.000584473
0.000200552
0.000862407
0.00117378
0.00168621
0.000967014
0.000253942
0.00115223
0.00186817
0.00201468
0.000565698
0.00144836
0.000890987
0.00023534
0.000220965
0.000364381
8.2882e-05
0.000185828
0.438022
0.425453
0.413243
0.401058
0.388646
0.375869
0.362694
0.349154
0.335313
0.321251
0.307048
0.292781
0.278524
0.264349
0.250326
0.236523
0.223005
0.209835
0.197069
0.184755
0.172933
0.161636
0.150885
0.140692
0.131062
0.121991
0.113469
0.105482
0.0980107
0.0910336
0.0845273
0.0784672
0.0728281
0.067585
0.0627132
0.0581886
0.0539882
0.0500898
0.0464726
0.0431166
0.0400032
0.037115
0.0344357
0.03195
0.0296436
0.0275036
0.0255175
0.023674
0.0219626
0.0203737
0.018898
0.0175275
0.016254
0.0150709
0.0139711
0.012949
0.0119984
0.0111147
0.0102922
0.00952759
0.00881551
0.00815337
0.00753631
0.00696255
0.00642738
0.0059299
0.00546537
0.00503381
0.0046303
0.00425578
0.00390499
0.00357995
0.00327473
0.00299272
0.00272691
0.0024825
0.00225082
0.00203933
0.00183759
0.00165444
0.00148037
0.00131969
0.00117436
0.00102806
0.000913181
0.000780061
0.000682304
0.000583234
0.000470577
0.000446491
0.000253523
0.00035359
0.000165034
7.74073e-05
0.000294719
0.000130654
0.000440623
0.000259719
0.00017945
0.000620088
0.000729985
0.00101271
0.00067059
0.000258173
0.000946484
0.00134469
0.00196392
0.00111234
0.00025278
0.00124481
0.00216723
0.00236081
0.000664544
0.00160577
0.00101544
0.00029541
0.00024407
0.000418914
0.000105941
0.000194979
0.431649
0.418508
0.405799
0.393314
0.380882
0.36838
0.355751
0.342998
0.330153
0.317266
0.304389
0.291566
0.278837
0.266234
0.253787
0.241519
0.229456
0.217624
0.20605
0.194763
0.18379
0.17316
0.162898
0.153026
0.143563
0.134521
0.12591
0.117732
0.109988
0.102672
0.0957766
0.0892899
0.0831986
0.0774873
0.0721396
0.0671382
0.0624653
0.0581032
0.054034
0.0502405
0.0467057
0.0434135
0.0403482
0.0374949
0.0348396
0.032369
0.0300704
0.027932
0.0259427
0.0240923
0.0223708
0.0207694
0.0192793
0.0178932
0.016603
0.0154028
0.0142852
0.0132455
0.012277
0.0113758
0.0105359
0.00975447
0.00902572
0.00834771
0.00771493
0.0071264
0.00657657
0.00606549
0.00558736
0.00514338
0.0047273
0.00434156
0.00397912
0.00364407
0.00332802
0.00303725
0.00276135
0.00250934
0.00226863
0.00204998
0.00184172
0.00164952
0.00147493
0.00129955
0.00116092
0.00100034
0.000882767
0.000760848
0.000627064
0.000591422
0.000366103
0.000475425
0.000248415
0.000154171
0.000341737
9.8086e-05
0.000481079
0.000262651
0.000205733
0.00066471
0.000793436
0.00114469
0.000749504
0.00032051
0.00101623
0.00150506
0.00222921
0.00124934
0.000312818
0.00131559
0.00245647
0.00268228
0.000758625
0.00172919
0.00112399
0.000359537
0.000267295
0.000474367
0.00013035
0.000212415
0.4259
0.412361
0.399296
0.386567
0.374054
0.361656
0.349309
0.33699
0.324707
0.312489
0.300372
0.288392
0.27658
0.26496
0.253551
0.242361
0.231398
0.220665
0.210165
0.199903
0.189885
0.18012
0.170618
0.161393
0.152457
0.143824
0.135505
0.12751
0.119849
0.112526
0.105545
0.0989054
0.0926051
0.0866394
0.0810015
0.0756828
0.0706732
0.0659615
0.0615357
0.0573833
0.0534912
0.0498464
0.0464358
0.0432465
0.040266
0.0374819
0.0348824
0.0324564
0.0301926
0.028081
0.0261116
0.0242754
0.0225631
0.0209671
0.019479
0.0180923
0.0167991
0.0155943
0.0144705
0.0134236
0.0124468
0.011537
0.0106878
0.00989691
0.00915816
0.00847052
0.00782758
0.00722951
0.00666959
0.0061493
0.00566133
0.00520865
0.00478298
0.00438921
0.00401745
0.00367517
0.00335009
0.0030529
0.00276869
0.00251031
0.00226372
0.00203616
0.00182852
0.00162056
0.00145473
0.00126335
0.00112308
0.000974827
0.00081777
0.000766767
0.00050801
0.000622276
0.000355759
0.000253093
0.000433479
0.000122298
0.00054587
0.000251778
0.000229251
0.000696446
0.000840019
0.00126504
0.000817974
0.000384525
0.00107123
0.00165015
0.00247465
0.00137524
0.000410693
0.00136669
0.00272784
0.00296434
0.000844026
0.00182673
0.00122586
0.000423381
0.000292598
0.000531201
0.000155366
0.00022823
0.420682
0.40686
0.393539
0.380619
0.368017
0.35565
0.343459
0.331407
0.319482
0.307691
0.296054
0.284598
0.273347
0.262324
0.251547
0.241029
0.230774
0.220782
0.211049
0.20157
0.192337
0.183344
0.174588
0.166067
0.157779
0.149728
0.141917
0.134352
0.127038
0.119982
0.113188
0.106662
0.100408
0.0944257
0.0887171
0.0832806
0.0781134
0.0732113
0.0685687
0.0641789
0.0600342
0.0561264
0.0524462
0.0489844
0.0457312
0.0426769
0.0398114
0.0371253
0.0346086
0.0322522
0.0300467
0.0279838
0.0260543
0.024251
0.0225651
0.0209904
0.0195188
0.0181448
0.0168609
0.0156626
0.0145429
0.0134983
0.0125218
0.0116113
0.0107597
0.00996614
0.00922327
0.00853155
0.00788326
0.00728029
0.0067142
0.0061886
0.00569386
0.0052358
0.0048029
0.00440396
0.00402465
0.00367752
0.00334515
0.00304266
0.00275344
0.00248646
0.00224179
0.00199749
0.00180081
0.00157504
0.00140894
0.00123058
0.00104791
0.000977254
0.00068405
0.000798109
0.000491194
0.000378298
0.000555802
0.000170138
0.000617543
0.000235572
0.00025837
0.000713314
0.000865785
0.00136967
0.000872886
0.000446619
0.00111115
0.00177497
0.00269363
0.00148797
0.000508118
0.00140023
0.00297328
0.00319496
0.00091818
0.00188214
0.00130674
0.000481019
0.000321878
0.000589585
0.000180348
0.00023652
0.41592
0.401894
0.388386
0.375323
0.36264
0.350273
0.33817
0.326289
0.314609
0.303119
0.291823
0.280735
0.26987
0.259246
0.248879
0.238783
0.228967
0.219435
0.210187
0.201217
0.192517
0.184078
0.175888
0.167939
0.160219
0.152722
0.145441
0.138372
0.131514
0.124864
0.118425
0.112197
0.106183
0.100385
0.0948058
0.0894464
0.0843081
0.079391
0.0746944
0.0702164
0.0659542
0.0619043
0.058062
0.0544222
0.0509787
0.0477254
0.044655
0.0417606
0.0390346
0.0364698
0.0340582
0.0317929
0.0296657
0.02767
0.0257981
0.0240438
0.0223995
0.02086
0.0194176
0.0180683
0.0168045
0.015623
0.0145164
0.0134827
0.0125141
0.01161
0.0107624
0.00997199
0.00923016
0.00853932
0.00788984
0.00728613
0.00671711
0.00618969
0.0056906
0.00523015
0.0047918
0.0043901
0.00400501
0.00365403
0.00331789
0.00300735
0.00272161
0.00243707
0.00220572
0.0019418
0.00174649
0.00153404
0.00132323
0.00122824
0.000899571
0.00100753
0.000659463
0.00053421
0.000702635
0.000229072
0.000734825
0.000284751
0.000321928
0.00071274
0.000866399
0.00145464
0.000911197
0.000502934
0.00113524
0.00187436
0.00288011
0.00158586
0.000597525
0.00141716
0.00318512
0.00336562
0.000979822
0.00189158
0.00136255
0.000525091
0.000373723
0.000667259
0.00020489
0.000235468
0.411552
0.397378
0.383736
0.370565
0.357816
0.345437
0.333383
0.321615
0.310105
0.298835
0.287797
0.27699
0.266422
0.256101
0.246037
0.236243
0.226727
0.217497
0.208557
0.199905
0.191537
0.183448
0.175627
0.168064
0.160748
0.153666
0.146808
0.140163
0.133722
0.127478
0.121424
0.115556
0.109871
0.104367
0.0990435
0.0938995
0.0889357
0.0841524
0.0795501
0.0751289
0.0708886
0.0668285
0.0629473
0.059243
0.055713
0.0523543
0.049163
0.046135
0.0432655
0.0405497
0.0379818
0.0355568
0.0332683
0.0311114
0.029079
0.0271666
0.025367
0.023676
0.0220862
0.0205943
0.0191926
0.0178786
0.0166444
0.0154888
0.0144034
0.0133881
0.0124341
0.011543
0.0107049
0.00992307
0.00918674
0.00850127
0.00785407
0.00725337
0.00668397
0.00615792
0.00565635
0.00519599
0.00475405
0.00435048
0.00396341
0.00360528
0.00327459
0.00294591
0.00267611
0.00237021
0.00214224
0.00189159
0.00164993
0.00152566
0.00116042
0.00125585
0.000865867
0.000725796
0.000878093
0.000301695
0.000893014
0.000363152
0.0004309
0.000732013
0.000865035
0.00154273
0.00092988
0.000549733
0.0011418
0.00194298
0.00302819
0.00166718
0.000671959
0.00141643
0.00335653
0.00347156
0.00102878
0.00186143
0.00139688
0.000547368
0.000441091
0.000759307
0.000228974
0.000223504
0.407528
0.393248
0.379507
0.366258
0.353458
0.341065
0.329039
0.317347
0.305958
0.29485
0.284009
0.273424
0.263093
0.253019
0.243203
0.233653
0.224374
0.215374
0.206656
0.198223
0.190075
0.182207
0.174616
0.167294
0.160231
0.153418
0.146842
0.140494
0.13436
0.128431
0.122696
0.117146
0.111774
0.106572
0.101535
0.0966578
0.0919382
0.0873733
0.0829613
0.0787013
0.0745922
0.0706338
0.0668252
0.0631661
0.0596553
0.0562919
0.0530742
0.0500006
0.0470684
0.0442753
0.0416177
0.0390928
0.0366962
0.0344247
0.0322731
0.0302383
0.0283142
0.0264981
0.0247832
0.0231675
0.0216435
0.0202098
0.0188585
0.0175892
0.0163933
0.0152715
0.0142145
0.0132247
0.0122914
0.0114189
0.0105952
0.00982686
0.0090998
0.0084238
0.00778167
0.00718739
0.00661968
0.00609759
0.00559561
0.00513609
0.00469476
0.00428546
0.00390644
0.00352993
0.00321823
0.00286664
0.00260263
0.00230973
0.00203445
0.00187591
0.00147282
0.00154903
0.00111619
0.000958642
0.00108707
0.000438627
0.0010746
0.000453698
0.000582075
0.000805529
0.000894001
0.00163266
0.000930133
0.000587696
0.00112771
0.00197519
0.00313167
0.00172977
0.000726042
0.00139461
0.00348164
0.00351158
0.00106581
0.00180798
0.00142068
0.000539646
0.000519276
0.000862855
0.000253171
0.000289461
0.403805
0.389449
0.375639
0.362333
0.349496
0.337092
0.325085
0.313444
0.302142
0.291155
0.280464
0.270054
0.259916
0.250045
0.24044
0.231098
0.222024
0.213219
0.204688
0.196431
0.188451
0.180745
0.173313
0.166148
0.159246
0.152599
0.146198
0.140034
0.134096
0.128375
0.122859
0.117537
0.112401
0.10744
0.102647
0.0980118
0.0935292
0.089193
0.0849981
0.0809405
0.0770169
0.0732247
0.0695618
0.0660267
0.062618
0.0593348
0.0561758
0.0531403
0.0502266
0.047434
0.0447603
0.0422045
0.0397635
0.0374362
0.0352187
0.0331098
0.0311046
0.0292021
0.0273965
0.025687
0.024067
0.0225364
0.0210875
0.0197212
0.0184289
0.0172125
0.0160622
0.0149816
0.0139594
0.0130012
0.0120937
0.0112453
0.0104401
0.00968975
0.0089751
0.00831228
0.00767758
0.00709247
0.00652887
0.00601134
0.00551372
0.00505057
0.00462085
0.00419341
0.00383709
0.00343654
0.00313348
0.00279464
0.00248301
0.00228555
0.00184308
0.0018936
0.00141654
0.00123892
0.00133507
0.000654264
0.00128493
0.000560596
0.000758745
0.000945781
0.000969482
0.00171231
0.000966386
0.000668187
0.00108788
0.00199577
0.00321272
0.00177107
0.000756742
0.00134575
0.00355554
0.00348787
0.00114201
0.00177499
0.00142094
0.000513208
0.00062321
0.000978687
0.00027881
0.000458027
0.400347
0.385938
0.37208
0.358736
0.345874
0.333463
0.32147
0.309868
0.29863
0.287734
0.277158
0.266886
0.256903
0.247201
0.237772
0.228611
0.219716
0.211086
0.202721
0.194622
0.186789
0.179222
0.171919
0.164876
0.158091
0.151559
0.145272
0.139224
0.133408
0.127813
0.122432
0.117254
0.11227
0.107471
0.102848
0.0983901
0.0940904
0.0899405
0.0859331
0.0820617
0.0783203
0.074704
0.0712082
0.0678294
0.0645642
0.0614104
0.0583654
0.055428
0.052596
0.0498688
0.0472442
0.0447221
0.0422999
0.0399776
0.0377522
0.0356238
0.0335885
0.0316468
0.0297937
0.0280302
0.02635
0.0247547
0.0232371
0.0217996
0.0204334
0.0191423
0.0179159
0.0167596
0.0156612
0.0146282
0.0136462
0.0127253
0.0118482
0.0110286
0.0102454
0.00951709
0.00881765
0.00817088
0.00754661
0.00697107
0.00641718
0.00589904
0.00541793
0.00493762
0.00453521
0.00408332
0.00373902
0.0033514
0.00300092
0.00276077
0.00227713
0.00229625
0.0017731
0.00157327
0.00162821
0.000921222
0.00153001
0.000688689
0.000966797
0.00111645
0.00105763
0.00185155
0.00105735
0.000769974
0.00103655
0.00199616
0.00326305
0.00183298
0.000805873
0.00126147
0.00357392
0.00340643
0.00125156
0.00176418
0.00146729
0.000557922
0.000770292
0.00110736
0.000336603
0.000663906
0.397124
0.382681
0.36879
0.355422
0.342545
0.330131
0.318152
0.306581
0.295393
0.284567
0.274081
0.263917
0.25406
0.244495
0.235214
0.226207
0.217469
0.208994
0.200781
0.192827
0.185131
0.177691
0.170506
0.163574
0.15689
0.150452
0.144254
0.138291
0.132558
0.127046
0.121749
0.116659
0.111768
0.107067
0.102549
0.0982037
0.0940236
0.0900004
0.0861261
0.0823932
0.0787943
0.075323
0.0719729
0.0687388
0.0656153
0.0625986
0.059684
0.0568691
0.0541502
0.0515256
0.0489922
0.0465495
0.0441943
0.041927
0.0397441
0.0376466
0.0356306
0.0336977
0.0318431
0.0300692
0.0283699
0.0267486
0.0251978
0.0237218
0.0223118
0.0209731
0.0196953
0.0184854
0.0173306
0.0162404
0.0151992
0.0142195
0.0132822
0.0124036
0.0115607
0.0107742
0.0100164
0.00931296
0.00863247
0.00800186
0.00739471
0.00682278
0.0062921
0.00575885
0.00531084
0.00480688
0.00442039
0.00398273
0.00359142
0.00330647
0.00277964
0.00276324
0.00219156
0.00196827
0.00197274
0.00124454
0.00181664
0.000843761
0.00121294
0.00132039
0.00116201
0.00203758
0.00119261
0.000951902
0.00109663
0.00203112
0.00327397
0.00192306
0.000889183
0.00113069
0.00353197
0.00333464
0.00141693
0.00175037
0.00151733
0.000618182
0.000937229
0.00124918
0.00044708
0.000895262
0.394109
0.379645
0.365736
0.352354
0.339471
0.327059
0.315094
0.303549
0.292403
0.281633
0.271218
0.261141
0.251384
0.241933
0.232774
0.223898
0.215295
0.206957
0.19888
0.191059
0.18349
0.176171
0.169098
0.16227
0.155682
0.149332
0.143215
0.137327
0.131662
0.126216
0.120981
0.115952
0.111121
0.106482
0.102027
0.0977496
0.0936413
0.089695
0.0859031
0.0822584
0.0787535
0.0753817
0.0721361
0.0690105
0.0659987
0.0630955
0.0602952
0.0575938
0.0549862
0.0524697
0.0500395
0.0476942
0.0454295
0.043245
0.0411364
0.0391046
0.0371449
0.0352593
0.0334425
0.0316976
0.0300184
0.028409
0.026862
0.0253829
0.0239625
0.0226081
0.0213084
0.0200725
0.0188867
0.0177626
0.0166836
0.0156644
0.0146845
0.0137626
0.0128741
0.0120418
0.0112368
0.0104861
0.0097583
0.00907934
0.00842586
0.00780456
0.0072295
0.00664598
0.0061556
0.00560137
0.00517366
0.00468721
0.00425401
0.00392487
0.00335275
0.00329925
0.00267629
0.00242971
0.00237471
0.00162988
0.00215219
0.00103256
0.00150486
0.00156102
0.00128719
0.00224065
0.00134558
0.00115553
0.00122639
0.00211588
0.00331358
0.00207049
0.00108827
0.0011799
0.00353914
0.00328384
0.00163635
0.00173706
0.00155312
0.000684969
0.00112205
0.00140407
0.000589768
0.00114748
0.391281
0.376806
0.362889
0.349501
0.336619
0.324214
0.312264
0.300743
0.289632
0.278909
0.268553
0.258547
0.248872
0.239513
0.230457
0.221691
0.213203
0.204985
0.197028
0.189327
0.181875
0.174668
0.167703
0.160974
0.15448
0.148215
0.142177
0.136361
0.130761
0.125375
0.120195
0.115216
0.110433
0.10584
0.10143
0.0971964
0.0931331
0.0892334
0.0854906
0.0818982
0.0784493
0.0751379
0.0719571
0.0689011
0.0659632
0.0631384
0.0604203
0.0578043
0.0552845
0.0528575
0.0505174
0.048262
0.0460855
0.0439872
0.0419612
0.040008
0.0381217
0.0363043
0.0345491
0.0328597
0.0312287
0.0296612
0.0281484
0.0266973
0.0252976
0.023958
0.0226662
0.0214332
0.0202441
0.0191126
0.0180208
0.0169854
0.0159851
0.01504
0.0141249
0.0132639
0.012428
0.0116439
0.0108825
0.0101662
0.00947787
0.0088155
0.00820536
0.00757794
0.00705178
0.00645275
0.00598718
0.005457
0.0049821
0.00461347
0.00399418
0.00390559
0.00322897
0.00296107
0.002839
0.00208136
0.00254404
0.00129887
0.00185076
0.00184189
0.00143836
0.00246669
0.00152317
0.00139046
0.0013796
0.00221137
0.00341314
0.00230439
0.00129991
0.001264
0.00355466
0.00322016
0.00186308
0.00172859
0.00157071
0.000761967
0.00132206
0.00157131
0.00075199
0.00141517
0.388619
0.374142
0.360224
0.346839
0.333962
0.321568
0.309634
0.298138
0.287059
0.276375
0.266069
0.256121
0.246515
0.237233
0.228262
0.219588
0.211199
0.203084
0.195233
0.187638
0.180292
0.173189
0.166323
0.159691
0.153286
0.147105
0.141144
0.135399
0.129865
0.124537
0.119411
0.114481
0.109743
0.105191
0.100818
0.09662
0.0925904
0.0887235
0.0850131
0.0814537
0.0780388
0.0747631
0.0716203
0.068605
0.0657111
0.0629337
0.0602665
0.0577054
0.0552438
0.0528786
0.0506032
0.0484153
0.0463082
0.0442808
0.0423262
0.0404448
0.038629
0.036881
0.0351927
0.0335677
0.0319972
0.0304866
0.029026
0.0276227
0.0262653
0.0249635
0.0237036
0.0224979
0.0213305
0.0202161
0.0191361
0.0181083
0.0171109
0.0161647
0.015245
0.0143751
0.0135283
0.0127283
0.0119512
0.0112123
0.010505
0.009814
0.00918221
0.00852164
0.00796986
0.0073362
0.00683888
0.00627515
0.00576028
0.00536233
0.00469483
0.00457765
0.00384661
0.00356136
0.00336789
0.0025999
0.00299853
0.00168749
0.00225846
0.00216629
0.00162117
0.00272246
0.00173266
0.0016662
0.00155291
0.00231948
0.00350378
0.00255712
0.00153676
0.00134268
0.00355492
0.00315945
0.0020958
0.0017298
0.00156909
0.000853628
0.00153451
0.00174941
0.000933542
0.00169255
0.386106
0.371634
0.357722
0.344344
0.331478
0.319099
0.307183
0.29571
0.28466
0.274013
0.26375
0.253852
0.244303
0.235087
0.226188
0.217592
0.209287
0.20126
0.193501
0.186
0.178749
0.17174
0.164966
0.158423
0.152104
0.146004
0.140118
0.134443
0.128974
0.123706
0.118634
0.113753
0.109059
0.104547
0.100211
0.0960468
0.0920477
0.088209
0.0845251
0.0809907
0.0776001
0.0743484
0.0712296
0.0682392
0.0653712
0.0626214
0.0599836
0.0574543
0.055027
0.0526991
0.0504637
0.0483189
0.0462576
0.044279
0.0423754
0.0405474
0.0387866
0.0370952
0.0354638
0.0338965
0.032383
0.030929
0.0295232
0.0281733
0.0268666
0.0256132
0.0243984
0.0232347
0.0221054
0.0210257
0.0199765
0.0189755
0.0180014
0.0170739
0.0161702
0.0153109
0.0144739
0.0136764
0.0129035
0.0121592
0.0114516
0.0107477
0.0101107
0.00943207
0.00886768
0.00821489
0.0076942
0.00711327
0.00656175
0.00615109
0.00543614
0.00530166
0.00451903
0.0042221
0.00395889
0.0031808
0.00351914
0.00216953
0.00273359
0.00253677
0.00184169
0.00301615
0.00198178
0.00199255
0.00174349
0.00244321
0.00359454
0.0028309
0.00180752
0.00140987
0.00354921
0.003117
0.00233375
0.0017457
0.00155144
0.000964699
0.00175726
0.00193625
0.00113365
0.00197383
0.383727
0.369266
0.355364
0.341999
0.329147
0.316784
0.304889
0.293441
0.282419
0.271805
0.26158
0.251726
0.242227
0.233066
0.224228
0.215699
0.207466
0.199515
0.191836
0.184417
0.17725
0.170326
0.163636
0.157175
0.150936
0.144913
0.1391
0.133494
0.128089
0.122879
0.117862
0.113031
0.108383
0.103912
0.0996134
0.0954825
0.0915139
0.087703
0.0840442
0.0805329
0.0771635
0.0739316
0.0708316
0.0678593
0.0650089
0.0622769