/*--------------------------------*- C++ -*----------------------------------*\
| =========                 |                                                 |
| \\      /  F ield         | OpenFOAM: The Open Source CFD Toolbox           |
|  \\    /   O peration     | Version:  2412                                  |
|   \\  /    A nd           | Website:  www.openfoam.com                      |
|    \\/     M anipulation  |                                                 |
\*---------------------------------------------------------------------------*/
FoamFile
{
    version     2.0;
    format      ascii;
    arch        "LSB;label=32;scalar=64";
    class       volVectorField;
    location    "0.27";
    object      U_0;
}
// * * * * * * * * * * * * * * * * * * * * * * * * * * * * * * * * * * * * * //

dimensions      [0 1 -1 0 0 0 0];

internalField   nonuniform List<vector> 
12600
(
(21.7489 0 -1.43189)
(9.17735 -4.34038e-20 -1.97829)
(4.09989 -2.40503e-20 -1.98912)
(2.17273 0 -1.52229)
(1.41579 -1.3259e-22 -1.05204)
(1.01526 0 -0.741764)
(0.746468 -2.86529e-20 -0.541809)
(0.550623 0 -0.403155)
(0.402785 0 -0.300911)
(0.288747 0 -0.222773)
(0.198797 0 -0.162231)
(0.126565 -1.02735e-19 -0.114553)
(0.0681679 -1.06028e-19 -0.0759926)
(0.0206534 0 -0.0444567)
(-0.0181568 2.18657e-19 -0.0184572)
(-0.0499203 0 0.00302784)
(-0.0761648 3.81186e-22 0.021004)
(-0.0976099 0 0.0350607)
(-0.114548 1.08368e-19 0.0472229)
(-0.128488 0 0.0571986)
(-0.139357 0 0.0651961)
(-0.147946 0 0.0715944)
(-0.154285 4.06597e-19 0.0766037)
(-0.158901 -3.97667e-19 0.0804499)
(-0.161892 -2.22638e-22 0.0832381)
(-0.163608 1.89267e-19 0.0851808)
(-0.164049 0 0.0863601)
(-0.163464 0 0.0869537)
(-0.162147 0 0.0870153)
(-0.160051 -3.36749e-19 0.0865556)
(-0.157445 -6.51985e-19 0.0856519)
(-0.154353 0 0.084387)
(-0.15087 0 0.0828673)
(-0.147066 -2.94532e-19 0.0811415)
(-0.143037 -2.84228e-19 0.0792444)
(-0.138877 0 0.0772054)
(-0.134609 0 0.0750676)
(-0.130295 -5.08729e-19 0.0728617)
(-0.125962 0 0.0706099)
(-0.121614 1.09491e-22 0.068321)
(-0.117271 -4.53078e-19 0.0660097)
(-0.112941 -4.35554e-19 0.063683)
(-0.108605 0 0.0613347)
(-0.104257 -4.01793e-19 0.0589641)
(-0.099942 -3.85606e-19 0.0565982)
(-0.095731 7.39972e-19 0.0542792)
(-0.0917392 -7.09809e-19 0.0520746)
(-0.0880994 0 0.0500611)
(-0.0848769 6.52234e-19 0.0482776)
(-0.081961 -6.24875e-19 0.0466652)
(-0.078981 0 0.0450183)
(-0.0752597 -4.3619e-23 0.0429208)
(-0.0698566 5.47962e-19 0.0398007)
(-0.061615 0 0.0350718)
(-0.0495352 -1.00085e-18 0.0282285)
(-0.0330676 0 0.0192116)
(-0.0129542 0 0.00805127)
(0.00862535 -7.22388e-23 -0.00396821)
(0.0269556 -1.33424e-22 -0.0142747)
(0.0346543 7.76898e-19 -0.0181715)
(0.0230434 -7.34117e-19 -0.0111558)
(-0.0166377 1.38515e-18 0.0126883)
(-0.101817 0 0.0622739)
(-0.241873 1.23614e-18 0.139501)
(-0.378346 1.19429e-18 0.213637)
(-0.385143 -2.36418e-18 0.212528)
(-0.0450605 1.17984e-18 0.0190248)
(0.585764 0 -0.324869)
(0.555893 0 -0.306706)
(0.159179 0 -0.0887295)
(0.125347 0 -0.0745815)
(0.259559 0 -0.146428)
(0.286926 -1.41385e-18 -0.157448)
(0.141208 1.22682e-18 -0.0657391)
(-0.266634 0 0.17341)
(-0.846816 0 0.498329)
(-1.38086 8.48395e-19 0.782285)
(-1.68651 -4.57214e-21 0.944572)
(-1.64962 2.61303e-18 0.91282)
(-1.24603 0 0.682717)
(-0.694686 0 0.374434)
(-0.268056 0 0.140768)
(-0.0109365 -1.18187e-21 5.39241e-05)
(0.119172 0 -0.0704175)
(0.157444 0 -0.0905197)
(0.157019 2.88918e-18 -0.0900336)
(0.15216 6.02223e-23 -0.0874474)
(0.171205 0 -0.0980149)
(0.195836 0 -0.11081)
(0.164575 -4.45387e-18 -0.0911134)
(0.0511224 -4.10871e-18 -0.0254068)
(-0.0817944 -3.83147e-18 0.0482146)
(-0.149105 -3.63552e-18 0.0838799)
(-0.136459 -7.57209e-22 0.0758324)
(-0.0939528 -6.02703e-22 0.0515687)
(-0.053605 3.16036e-18 0.0289021)
(-0.0256084 0 0.0133485)
(-0.00640104 0 0.00273423)
(-0.000651928 0 -0.000246945)
(-0.00273494 1.00261e-17 0.00100646)
(-0.016983 -4.71486e-18 0.00901766)
(-0.0313917 4.44212e-18 0.0170363)
(-0.0438433 4.19398e-18 0.0238011)
(-0.0489392 0 0.0260463)
(-0.0351442 0 0.0178)
(-0.01972 0 0.00858227)
(0.0168627 6.80846e-18 -0.0125668)
(0.045551 0 -0.028932)
(0.082274 -6.1171e-18 -0.0500863)
(0.113569 0 -0.0676712)
(0.140375 0 -0.0831711)
(0.167874 5.11804e-18 -0.0985703)
(0.186538 0 -0.109534)
(0.214031 0 -0.124971)
(0.222514 0 -0.13023)
(0.266034 -7.97443e-18 -0.154927)
(0.253768 0 -0.148242)
(0.33343 7.01292e-18 -0.193949)
(0.303188 0 -0.176698)
(0.466051 1.53818e-22 -0.270031)
(34.2308 -1.59902e-20 -2.23142)
(24.5907 2.52893e-20 -4.28673)
(16.1536 1.56946e-20 -5.18087)
(10.5617 0 -4.59711)
(7.25732 -7.35602e-21 -3.57019)
(5.23296 1.95293e-20 -2.70359)
(3.90712 2.9887e-20 -2.06237)
(2.97488 -3.62465e-20 -1.58795)
(2.28321 0 -1.22716)
(1.75197 0 -0.94566)
(1.33393 0 -0.722229)
(0.999226 0 -0.542261)
(0.72781 0 -0.395091)
(0.505316 0 -0.27364)
(0.321613 -9.08132e-22 -0.17275)
(0.169223 0 -0.0887178)
(0.0414127 1.14334e-19 -0.0182243)
(-0.0635635 0 0.0412006)
(-0.150653 -2.25066e-19 0.0897507)
(-0.223946 2.21924e-19 0.130176)
(-0.28368 0 0.163793)
(-0.332825 2.14786e-19 0.191405)
(-0.372255 -2.11085e-19 0.213643)
(-0.403766 2.06368e-19 0.231429)
(-0.428081 -2.01375e-19 0.245209)
(-0.446445 0 0.255692)
(-0.459427 1.90477e-19 0.26287)
(-0.467863 0 0.267484)
(-0.472691 0 0.269946)
(-0.473968 0 0.270468)
(-0.472399 3.37093e-19 0.269601)
(-0.468349 0 0.267363)
(-0.462321 0 0.263975)
(-0.454672 0 0.259584)
(-0.445693 0 0.254458)
(-0.4357 0 0.248807)
(-0.424891 0 0.242667)
(-0.413495 5.23421e-19 0.236209)
(-0.401658 0 0.229497)
(-0.389452 9.67658e-19 0.22257)
(-0.376979 9.29675e-19 0.215488)
(-0.364306 4.46285e-19 0.208282)
(-0.351422 0 0.200942)
(-0.338341 0 0.193486)
(-0.325229 7.88185e-19 0.186022)
(-0.312337 -7.5556e-19 0.178703)
(-0.30005 7.23767e-19 0.17176)
(-0.28881 0 0.165438)
(-0.278844 -6.63629e-19 0.15984)
(-0.269835 0 0.154725)
(-0.26062 0 0.149369)
(-0.249028 -5.80857e-19 0.142437)
(-0.232026 0 0.132144)
(-0.206044 0 0.116527)
(-0.168023 1.01121e-18 0.0940695)
(-0.116647 0 0.064343)
(-0.0541168 0 0.0281861)
(0.0127464 -1.28911e-22 -0.0100331)
(0.0694169 8.24722e-19 -0.0416887)
(0.0916215 3.54701e-22 -0.0523504)
(0.0511487 0 -0.0244072)
(-0.0832382 -1.38696e-18 0.0592555)
(-0.3614 -1.30626e-18 0.227301)
(-0.796339 0 0.477869)
(-1.19901 -2.37919e-18 0.7)
(-1.1915 2.32583e-21 0.661962)
(-0.18783 0 0.0404488)
(1.74812 1.0604e-18 -1.04113)
(1.73765 0 -0.9668)
(0.550772 0 -0.289182)
(0.437576 0 -0.259906)
(0.812405 0 -0.476639)
(0.827256 2.78742e-18 -0.4689)
(0.257935 -1.21417e-18 -0.112588)
(-1.10622 0 0.700559)
(-2.87928 0 1.7262)
(-4.38844 8.25676e-19 2.56847)
(-5.13937 -7.2093e-21 2.97801)
(-4.87472 -9.28605e-21 2.78933)
(-3.60697 0 2.02835)
(-1.97944 0 1.0875)
(-0.73245 0 0.386446)
(0.0282935 -1.89215e-21 -0.0366523)
(0.413993 -3.15058e-18 -0.246994)
(0.526849 2.97056e-18 -0.305377)
(0.522168 -2.79155e-18 -0.300882)
(0.508518 9.44311e-23 -0.293705)
(0.562415 -2.46933e-18 -0.326016)
(0.615185 0 -0.355408)
(0.485483 4.28093e-18 -0.274256)
(0.120084 0 -0.058595)
(-0.271649 3.67369e-18 0.164993)
(-0.448679 0 0.261231)
(-0.394275 -6.65672e-18 0.225873)
(-0.261817 -3.17508e-18 0.148288)
(-0.139131 0 0.0779868)
(-0.0557016 0 0.0306672)
(0.000736313 -5.38503e-18 -0.00111448)
(0.014887 5.06837e-18 -0.00850124)
(0.00758593 -9.53057e-18 -0.00367432)
(-0.03455 4.47787e-18 0.0210906)
(-0.0717336 -4.21506e-18 0.0426116)
(-0.0988154 0 0.0581679)
(-0.0999517 3.76139e-18 0.0583623)
(-0.0439596 0 0.025497)
(0.016642 0 -0.00995058)
(0.136477 -6.43204e-18 -0.0796227)
(0.232643 0 -0.134854)
(0.347959 1.12815e-21 -0.202047)
(0.448517 5.43434e-18 -0.259164)
(0.533219 0 -0.308689)
(0.621531 0 -0.358676)
(0.683167 0 -0.394994)
(0.772665 4.25624e-18 -0.445619)
(0.80365 -8.00661e-18 -0.464574)
(0.947108 7.49667e-18 -0.546215)
(0.90857 0 -0.525365)
(1.17479 -6.58689e-18 -0.678211)
(1.06744 0 -0.61884)
(1.59321 1.15304e-17 -0.923302)
(37.8041 3.41256e-20 -2.3127)
(33.4656 -8.75043e-21 -4.1669)
(26.8911 3.86611e-21 -5.86144)
(20.3834 0 -6.28017)
(15.1451 -1.0836e-20 -5.72523)
(11.3483 8.0061e-22 -4.81403)
(8.66377 0 -3.9181)
(6.72009 3.43999e-20 -3.15565)
(5.2638 0 -2.53187)
(4.14051 4.35579e-20 -2.0238)
(3.2544 0 -1.60751)
(2.54294 0 -1.2638)
(1.96359 0 -0.978038)
(1.48669 0 -0.738968)
(1.09095 -1.07037e-19 -0.537998)
(0.760721 0 -0.368614)
(0.483201 0 -0.225446)
(0.252305 0 -0.101927)
(0.0572125 1.0656e-19 -0.000549306)
(-0.106485 -7.37284e-22 0.0860969)
(-0.242958 0 0.158329)
(-0.357182 -5.60716e-22 0.218809)
(-0.451119 0 0.26903)
(-0.528261 -1.94891e-19 0.310355)
(-0.590411 0 0.343709)
(-0.639982 0 0.370418)
(-0.678286 -1.80674e-19 0.390696)
(-0.706777 0 0.405851)
(-0.727271 0 0.416603)
(-0.740197 -3.29536e-19 0.423392)
(-0.747313 0 0.426493)
(-0.749155 0 0.426653)
(-0.746416 0 0.424679)
(-0.739998 0 0.420491)
(-0.730413 2.77342e-19 0.414701)
(-0.718412 0 0.407558)
(-0.704291 0 0.399416)
(-0.688572 -4.95375e-19 0.390445)
(-0.671589 0 0.380787)
(-0.653529 -9.16056e-19 0.370545)
(-0.634625 -1.45455e-22 0.359845)
(-0.615052 -4.22521e-19 0.348758)
(-0.594851 0 0.337299)
(-0.574094 0 0.325538)
(-0.553089 -3.72879e-19 0.313695)
(-0.532291 0 0.302054)
(-0.512365 -6.84655e-19 0.291027)
(-0.494076 0 0.281015)
(-0.47783 8.45029e-23 0.272144)
(-0.46314 0 0.26393)
(-0.448096 0 0.255063)
(-0.42907 0 0.243281)
(-0.400993 -5.24296e-19 0.225668)
(-0.358031 0 0.198991)
(-0.295233 0 0.160974)
(-0.210748 0 0.110984)
(-0.108063 0 0.0512999)
(0.00157645 1.64394e-18 -0.0104645)
(0.0943901 0 -0.0595309)
(0.129388 2.98978e-22 -0.0720973)
(0.0582667 0 -0.0154574)
(-0.17457 6.54198e-19 0.138206)
(-0.645905 1.23161e-18 0.432853)
(-1.35911 0 0.846463)
(-1.99624 2.24025e-18 1.17519)
(-1.95919 1.10543e-18 1.04463)
(-0.404791 0 0.0196897)
(2.73266 -9.98643e-19 -1.68996)
(2.87911 0 -1.55236)
(0.992375 0 -0.481758)
(0.77198 0 -0.465498)
(1.3349 0 -0.790578)
(1.27352 2.56608e-21 -0.689704)
(0.200128 1.14181e-18 0.0221824)
(-2.14228 0 1.44552)
(-4.99981 0 3.08244)
(-7.28124 -2.80403e-21 4.30276)
(-8.26584 -1.85024e-18 4.76791)
(-7.66954 -1.18625e-18 4.29951)
(-5.59954 0 3.02247)
(-3.04629 0 1.56775)
(-1.09249 0 0.508506)
(0.116372 -6.2256e-18 -0.133248)
(0.733286 3.26075e-22 -0.448624)
(0.915678 -2.78661e-18 -0.532356)
(0.905209 0 -0.520185)
(0.882738 -2.46073e-18 -0.509593)
(0.961816 2.31499e-18 -0.557983)
(1.01947 0 -0.583527)
(0.771624 0 -0.418333)
(0.161711 3.69905e-18 -0.0553357)
(-0.455843 0 0.287702)
(-0.712611 3.25896e-18 0.413338)
(-0.608594 8.98751e-22 0.339561)
(-0.391531 2.97128e-18 0.212071)
(-0.192996 -2.8224e-18 0.100517)
(-0.0597454 0 0.0272349)
(0.029899 5.03954e-18 -0.0211136)
(0.0499594 -4.74249e-18 -0.0294919)
(0.0385778 8.91604e-18 -0.0211844)
(-0.0262624 0 0.0170829)
(-0.0761131 -3.94159e-18 0.0449428)
(-0.105452 0 0.0605293)
(-0.0894026 -3.51717e-18 0.04775)
(0.0175119 3.33429e-18 -0.0168327)
(0.132035 0 -0.0853081)
(0.335166 6.01235e-18 -0.203847)
(0.502021 0 -0.299067)
(0.692815 1.07879e-17 -0.409887)
(0.863125 -5.07821e-18 -0.505209)
(1.00447 0 -0.587565)
(1.15446 0 -0.671222)
(1.26038 0 -0.733891)
(1.41407 -3.61023e-22 -0.819573)
(1.46994 7.47878e-18 -0.855012)
(1.71769 -7.00076e-18 -0.994145)
(1.65231 0 -0.961204)
(2.11371 -6.15041e-18 -1.22435)
(1.91947 0 -1.12028)
(2.80128 -1.76447e-22 -1.6301)
(38.2236 -1.79632e-20 -2.6685)
(37.2297 -5.69783e-21 -3.73844)
(33.7479 4.72045e-21 -5.44639)
(28.7453 -1.2733e-20 -6.63496)
(23.4576 -1.93257e-20 -6.89935)
(18.7379 -3.84304e-20 -6.45381)
(14.8922 0 -5.67586)
(11.8708 0 -4.82882)
(9.50623 0 -4.0361)
(7.63726 -4.12557e-20 -3.33782)
(6.14026 0 -2.73711)
(4.92557 0 -2.22451)
(3.92869 0 -1.78775)
(3.10281 0 -1.41526)
(2.41342 0 -1.0971)
(1.83476 -1.00914e-19 -0.825063)
(1.34617 1.01145e-19 -0.592417)
(0.934514 0 -0.391669)
(0.585909 0 -0.222087)
(0.291094 -1.98786e-19 -0.0755292)
(0.0415923 1.9525e-19 0.0476985)
(-0.168671 -1.92491e-19 0.152738)
(-0.344764 1.88203e-19 0.240886)
(-0.491926 1.84547e-19 0.314841)
(-0.613336 -1.79781e-19 0.376089)
(-0.712846 1.75217e-19 0.426514)
(-0.792823 0 0.466838)
(-0.855671 -1.65651e-19 0.498997)
(-0.90448 0 0.523779)
(-0.940441 3.1189e-19 0.542002)
(-0.965924 0 0.554234)
(-0.981692 0 0.561614)
(-0.98968 0 0.564523)
(-0.991229 -2.71866e-19 0.563316)
(-0.986904 -2.62355e-19 0.559374)
(-0.977675 0 0.55344)
(-0.964547 0 0.545319)
(-0.948205 4.68436e-19 0.535682)
(-0.929245 0 0.524705)
(-0.908067 1.74815e-22 0.512547)
(-0.885079 -4.15839e-19 0.499452)
(-0.860624 0 0.485548)
(-0.834855 0 0.470901)
(-0.807947 0 0.455661)
(-0.780385 0 0.440185)
(-0.752851 -6.74797e-19 0.424909)
(-0.726301 0 0.410432)
(-0.701826 6.18858e-19 0.397307)
(-0.680017 5.92383e-19 0.385654)
(-0.660238 0 0.374711)
(-0.639881 0 0.362544)
(-0.61397 0 0.345905)
(-0.575567 4.94651e-19 0.320722)
(-0.516736 -4.72109e-19 0.282679)
(-0.430882 -9.00606e-19 0.228921)
(-0.315622 0 0.159264)
(-0.175972 -8.1613e-19 0.0773661)
(-0.0272684 -1.54977e-18 -0.00573345)
(0.0982225 0 -0.0689421)
(0.143872 -1.38776e-18 -0.0780433)
(0.0392418 0 0.0133339)
(-0.294799 -6.16836e-19 0.246793)
(-0.956344 -1.16102e-18 0.674989)
(-1.92469 0 1.2408)
(-2.75514 -1.05389e-18 1.6405)
(-2.67169 -1.03645e-18 1.37969)
(-0.70581 0 -0.0312241)
(3.46329 0 -2.26052)
(3.9502 0 -2.08819)
(1.48639 7.45443e-19 -0.670228)
(1.1238 7.20358e-19 -0.681678)
(1.81096 0 -1.0834)
(1.5978 -1.23566e-18 -0.825692)
(-0.0620914 -1.08095e-18 0.312618)
(-3.37518 0 2.36063)
(-7.15561 0 4.51781)
(-9.9565 -7.25904e-19 5.95269)
(-10.9459 7.13124e-21 6.32679)
(-9.93475 0 5.51059)
(-7.16023 0 3.76203)
(-3.86604 0 1.88592)
(-1.33671 0 0.54449)
(0.256111 1.58437e-21 -0.273669)
(1.07688 2.77139e-18 -0.671511)
(1.32411 0 -0.772323)
(1.30727 0 -0.750249)
(1.27451 0 -0.735985)
(1.36552 2.16932e-18 -0.793565)
(1.40264 0 -0.798379)
(1.01914 3.76218e-18 -0.536761)
(0.180442 -3.46396e-18 -0.0320479)
(-0.622607 3.22264e-18 0.407688)
(-0.928248 -3.05088e-18 0.542033)
(-0.769042 5.83113e-18 0.42435)
(-0.474856 -2.78073e-18 0.250137)
(-0.208522 2.64101e-18 0.101698)
(-0.0320018 0 0.0063111)
(0.0866248 0 -0.0559096)
(0.110522 -4.43535e-18 -0.0640685)
(0.098098 -4.16919e-18 -0.0533818)
(0.01787 -3.91618e-18 -0.00533757)
(-0.0323401 4.33516e-22 0.0221148)
(-0.0509203 0 0.0306127)
(-0.00341628 0 -0.00310829)
(0.162234 -3.11658e-18 -0.103151)
(0.339126 0 -0.209083)
(0.623908 -5.61603e-18 -0.376073)
(0.864046 0 -0.512378)
(1.12627 -1.04677e-21 -0.665385)
(1.36666 0 -0.798867)
(1.56307 -4.48375e-18 -0.913752)
(1.77585 4.20597e-18 -1.03158)
(1.92709 3.96462e-18 -1.1216)
(2.14751 -4.16439e-22 -1.24348)
(2.23018 0 -1.29717)
(2.58644 6.53782e-18 -1.49541)
(2.4936 6.13429e-18 -1.45139)
(3.1561 5.74304e-18 -1.82726)
(2.86795 0 -1.67734)
(4.08589 -1.97656e-22 -2.38388)
(37.7526 0 -3.21246)
(38.0306 -4.20791e-21 -3.6951)
(36.8936 0 -4.93702)
(34.1352 1.20305e-20 -6.265)
(30.2391 2.79426e-20 -7.10983)
(25.9145 1.90244e-20 -7.3033)
(21.7404 0 -6.97039)
(18.0304 0 -6.32826)
(14.8747 -3.47342e-20 -5.56217)
(12.2426 -3.82646e-20 -4.78761)
(10.0598 4.11257e-20 -4.06154)
(8.24692 8.67125e-20 -3.40575)
(6.73457 9.00582e-20 -2.82435)
(5.4662 0 -2.31385)
(4.39711 0 -1.8679)
(3.49222 1.90288e-19 -1.47953)
(2.72308 -4.84871e-22 -1.14224)
(2.06923 0 -0.848072)
(1.5119 -9.42853e-20 -0.595075)
(1.03658 -1.86583e-19 -0.375451)
(0.631614 -1.8459e-19 -0.187137)
(0.287186 0 -0.0246521)
(-0.00491987 -1.77909e-19 0.11338)
(-0.25161 1.73646e-19 0.230961)
(-0.458614 1.69928e-19 0.329771)
(-0.631323 -3.05862e-22 0.412844)
(-0.773757 0 0.480933)
(-0.889383 2.31957e-22 0.536823)
(-0.982751 0 0.581556)
(-1.05574 2.93986e-19 0.616533)
(-1.11139 0 0.643376)
(-1.15198 0 0.662866)
(-1.18007 0 0.675631)
(-1.19694 2.56779e-19 0.68277)
(-1.20477 0 0.68412)
(-1.2051 0 0.681223)
(-1.1983 0 0.675919)
(-1.186 0 0.667833)
(-1.16913 -4.24858e-19 0.657443)
(-1.14831 8.16776e-19 0.645125)
(-1.12424 0 0.631158)
(-1.0975 3.76466e-19 0.615784)
(-1.06842 0 0.599142)
(-1.03733 0 0.581497)
(-1.00494 0 0.56337)
(-0.972168 1.45327e-22 0.545366)
(-0.940284 0 0.528284)
(-0.910701 -5.83521e-19 0.512809)
(-0.884201 0 0.49902)
(-0.860045 0 0.485819)
(-0.834996 -5.10565e-19 0.470607)
(-0.80285 0 0.449161)
(-0.754973 0 0.416338)
(-0.681586 3.9167e-23 0.366885)
(-0.574699 8.48266e-19 0.297624)
(-0.431601 0 0.209117)
(-0.258767 -5.64016e-23 0.106782)
(-0.0751503 1.45922e-18 0.00538293)
(0.0792074 0 -0.067774)
(0.132973 6.53127e-19 -0.067606)
(-0.00697603 0 0.0662133)
(-0.443563 5.80284e-19 0.388621)
(-1.28909 1.09203e-18 0.954387)
(-2.4855 0 1.65668)
(-3.46855 9.88721e-19 2.08619)
(-3.33223 2.17008e-21 1.66054)
(-1.0915 0 -0.103991)
(3.87324 0 -2.71355)
(4.93441 0 -2.5621)
(2.0302 -1.40064e-18 -0.85331)
(1.48613 -1.50076e-22 -0.901986)
(2.22984 0 -1.34077)
(1.79443 1.16556e-18 -0.850613)
(-0.516715 2.03351e-18 0.784231)
(-4.75888 0 3.44201)
(-9.27028 0 5.98379)
(-12.3333 0 7.44436)
(-13.1449 7.33299e-21 7.57499)
(-11.6947 0 6.36215)
(-8.34327 0 4.20876)
(-4.47782 0 2.02527)
(-1.48593 0 0.48703)
(0.437779 2.73368e-18 -0.460027)
(1.44219 2.59624e-18 -0.915755)
(1.75281 0 -1.02544)
(1.73085 0 -0.991163)
(1.68452 0 -0.972095)
(1.77223 1.86467e-22 -1.02967)
(1.76631 0 -0.994833)
(1.23823 -3.52192e-18 -0.624428)
(0.191152 0 0.0100269)
(-0.760167 -3.01598e-18 0.517445)
(-1.09114 0 0.637687)
(-0.875823 -2.72738e-18 0.470858)
(-0.512216 0 0.254885)
(-0.185281 0 0.0754807)
(0.028992 0 -0.0371741)
(0.173802 0 -0.110193)
(0.20135 4.14726e-18 -0.116931)
(0.192704 0 -0.10604)
(0.105312 3.66101e-18 -0.0532012)
(0.0671998 3.44453e-18 -0.0344245)
(0.0705452 0 -0.0410298)
(0.161646 0 -0.105223)
(0.390339 0 -0.24472)
(0.636393 0 -0.392946)
(0.999995 1.34269e-21 -0.60661)
(1.31593 0 -0.785045)
(1.64604 -9.41244e-18 -0.977473)
(1.95785 0 -1.14895)
(2.20818 8.37534e-18 -1.29523)
(2.486 -3.92827e-18 -1.44771)
(2.68317 -3.70262e-18 -1.56555)
(2.97387 -3.46719e-18 -1.72476)
(3.08395 0 -1.79817)
(3.55311 0 -2.05641)
(3.43198 -1.14547e-17 -2.00298)
(4.29752 5.36108e-18 -2.49088)
(3.91456 5.02133e-18 -2.29689)
(5.43691 -4.69155e-18 -3.18146)
(37.2486 0 -3.67002)
(37.683 3.60189e-20 -3.91057)
(37.6917 0 -4.66361)
(36.6807 0 -5.74252)
(34.5122 0 -6.75648)
(31.452 0 -7.40391)
(27.9175 0 -7.58273)
(24.2875 2.98119e-20 -7.34995)
(20.8278 3.27715e-20 -6.83354)
(17.6855 7.21322e-20 -6.16289)
(14.9145 -7.7384e-20 -5.43601)
(12.5107 -8.18363e-20 -4.71473)
(10.4421 -8.49994e-20 -4.0327)
(8.66744 0 -3.40557)
(7.14565 0 -2.83867)
(5.84004 -1.78607e-19 -2.33167)
(4.71838 -1.7918e-19 -1.88192)
(3.75484 0 -1.48351)
(2.92658 8.89976e-20 -1.13453)
(2.21447 1.76115e-19 -0.828111)
(1.6028 0 -0.561541)
(1.07806 1.70277e-19 -0.329472)
(0.629309 0 -0.128976)
(0.246347 -3.80966e-22 0.043735)
(-0.0786334 -1.59699e-19 0.191233)
(-0.353211 -2.9537e-22 0.316947)
(-0.583768 0 0.42165)
(-0.774513 1.47484e-19 0.509862)
(-0.93213 -2.85814e-19 0.582403)
(-1.05968 -5.54358e-19 0.641144)
(-1.16159 -2.68157e-19 0.687825)
(-1.24084 0 0.723828)
(-1.30039 -2.50497e-19 0.751144)
(-1.34318 0 0.770857)
(-1.37209 0 0.782926)
(-1.38883 0 0.788228)
(-1.39563 0 0.78742)
(-1.39341 0 0.783469)
(-1.38365 1.94684e-22 0.776182)
(-1.36768 -3.84854e-19 0.765636)
(-1.34637 0 0.752626)
(-1.32068 -7.09409e-19 0.737394)
(-1.29119 0 0.720187)
(-1.25847 0 0.701423)
(-1.22346 0 0.681818)
(-1.1874 5.99347e-19 0.662166)
(-1.15183 0 0.643469)
(-1.11851 0 0.626525)
(-1.08842 0 0.611331)
(-1.06076 0 0.596403)
(-1.03179 9.61141e-19 0.578437)
(-0.99424 0 0.552249)
(-0.938008 0 0.511741)
(-0.851759 4.18433e-19 0.450945)
(-0.726362 0 0.366674)
(-0.55897 0 0.260512)
(-0.357403 1.44563e-18 0.139936)
(-0.143803 -6.86164e-19 0.0235864)
(0.0349453 0 -0.0549893)
(0.0941644 0 -0.0392856)
(-0.082343 0 0.144731)
(-0.620338 -5.46018e-19 0.565141)
(-1.63926 0 1.26999)
(-3.03269 0 2.0891)
(-4.12843 -1.85616e-18 2.50776)
(-3.94279 1.82379e-18 1.89433)
(-1.55304 0 -0.194394)
(3.89577 0 -3.02147)
(5.8015 0 -2.97772)
(2.61613 6.57363e-19 -1.02644)
(1.85257 -6.34756e-19 -1.11777)
(2.57873 -1.20371e-18 -1.5507)
(1.85223 -1.09341e-18 -0.75467)
(-1.15426 -9.55629e-19 1.433)
(-6.2426 7.78072e-19 4.65665)
(-11.2573 0 7.42206)
(-14.3308 0 8.72431)
(-14.8283 7.47873e-19 8.51255)
(-12.9686 0 6.90504)
(-9.18808 0 4.42168)
(-4.90941 0 2.02128)
(-1.55496 0 0.35259)
(0.653204 0 -0.685907)
(1.82639 -4.86253e-18 -1.18012)
(2.20193 0 -1.29211)
(2.17754 -2.15206e-18 -1.24436)
(2.1133 0 -1.21788)
(2.1807 1.93231e-22 -1.26495)
(2.11061 3.56172e-18 -1.17475)
(1.43505 0 -0.688703)
(0.205613 0 0.0612982)
(-0.856854 0 0.609834)
(-1.19314 0 0.699087)
(-0.92335 2.54894e-18 0.481435)
(-0.499137 0 0.228152)
(-0.118975 0 0.0226525)
(0.12788 0 -0.103261)
(0.29693 0 -0.185234)
(0.329174 0 -0.190462)
(0.330521 0 -0.182742)
(0.245035 0 -0.130254)
(0.231877 0 -0.128134)
(0.266926 -3.0333e-18 -0.155719)
(0.413474 0 -0.256964)
(0.707231 0 -0.437258)
(1.02871 0 -0.631274)
(1.46657 4.90035e-18 -0.889581)
(1.86133 0 -1.11103)
(2.25488 4.39523e-18 -1.34105)
(2.64042 0 -1.55102)
(2.94276 -6.78772e-22 -1.72813)
(3.28879 0 -1.91644)
(3.53132 3.45656e-18 -2.06239)
(3.89646 0 -2.26038)
(4.03317 0 -2.35439)
(4.61858 0 -2.67285)
(4.46941 5.34681e-18 -2.61241)
(5.53281 -1.00094e-17 -3.20765)
(5.0628 -9.37473e-18 -2.97671)
(6.8425 -4.37903e-18 -4.01447)
(36.8754 0 -3.95221)
(37.1574 -3.91777e-20 -4.14849)
(37.4669 0 -4.60381)
(37.3547 0 -5.3627)
(36.4857 -2.87153e-20 -6.26149)
(34.7937 -2.7563e-20 -7.06251)
(32.4072 2.8052e-20 -7.58814)
(29.5444 -8.74074e-20 -7.76793)
(26.4416 0 -7.62163)
(23.3063 1.98764e-22 -7.22079)
(20.2927 3.63462e-20 -6.65199)
(17.4962 0 -5.99275)
(14.9625 0 -5.30165)
(12.7029 0 -4.61814)
(10.7074 0 -3.96639)
(8.95605 4.61147e-22 -3.35957)
(7.42469 4.18096e-22 -2.80416)
(6.0895 8.37038e-20 -2.30041)
(4.92772 8.32138e-20 -1.84925)
(3.91828 0 -1.44672)
(3.04289 -1.62639e-19 -1.09074)
(2.28516 -1.60483e-19 -0.776844)
(1.63117 0 -0.502047)
(1.06811 -3.56769e-22 -0.262595)
(0.585884 3.15593e-22 -0.0548059)
(0.173426 -1.46714e-19 0.123824)
(-0.176211 0 0.276529)
(-0.470314 0 0.405781)
(-0.717251 2.69292e-19 0.514416)
(-0.921375 3.25673e-22 0.604622)
(-1.08862 5.04965e-19 0.678594)
(-1.22337 0 0.738045)
(-1.33001 4.71697e-19 0.784919)
(-1.41232 0 0.820634)
(-1.47318 0 0.847426)
(-1.5163 -2.11427e-19 0.866192)
(-1.54437 0 0.876283)
(-1.55958 -3.91765e-19 0.879026)
(-1.56395 1.79781e-22 0.876734)
(-1.55829 3.61975e-19 0.870797)
(-1.54466 0 0.860804)
(-1.52426 1.2604e-22 0.847618)
(-1.49806 0 0.831581)
(-1.46693 0 0.813253)
(-1.43214 0 0.793583)
(-1.39521 0 0.773569)
(-1.35803 0 0.754416)
(-1.32266 5.1657e-19 0.737018)
(-1.29033 0 0.721253)
(-1.26026 0 0.705207)
(-1.2283 -4.51844e-19 0.68486)
(-1.18637 0 0.654111)
(-1.1232 -4.12116e-19 0.606041)
(-1.02622 -3.93231e-19 0.534208)
(-0.885427 7.49896e-19 0.435724)
(-0.697956 0 0.313516)
(-0.472823 -6.79173e-19 0.177311)
(-0.234861 -6.44893e-19 0.0496513)
(-0.0364089 0 -0.0290422)
(0.0252985 0 0.00844242)
(-0.187916 0 0.250674)
(-0.823478 5.12673e-19 0.776863)
(-2.00072 0 1.61911)
(-3.55697 0 2.53244)
(-4.72991 8.70421e-19 2.90168)
(-4.51085 -1.70666e-18 2.08924)
(-2.07151 0 -0.298269)
(3.49086 0 -3.16859)
(6.52029 0 -3.34015)
(3.23087 0 -1.18369)
(2.21631 -5.95022e-19 -1.31939)
(2.84687 1.12859e-18 -1.69897)
(1.76828 0 -0.524257)
(-1.95122 0 2.25291)
(-7.76269 -7.29185e-19 5.96439)
(-13.0305 0 8.77004)
(-15.8995 -5.82816e-19 9.75045)
(-16.0212 6.84927e-19 9.14812)
(-13.84 0 7.17122)
(-9.77388 0 4.43865)
(-5.20622 0 1.89767)
(-1.56649 0 0.152647)
(0.890841 0 -0.945911)
(2.22529 2.27567e-18 -1.46309)
(2.6711 0 -1.57251)
(2.64926 4.02805e-18 -1.5102)
(2.562 0 -1.47296)
(2.59144 1.98491e-22 -1.49826)
(2.44021 1.11039e-21 -1.33752)
(1.62054 0 -0.733115)
(0.237505 2.84148e-18 0.11459)
(-0.902312 0 0.678205)
(-1.23026 0 0.721306)
(-0.910609 -4.76543e-18 0.452201)
(-0.434287 0 0.166872)
(-0.00739223 0 -0.0597024)
(0.267761 0 -0.195161)
(0.460472 0 -0.284709)
(0.499599 0 -0.289248)
(0.518408 0 -0.28853)
(0.443331 0 -0.241759)
(0.467259 0 -0.263712)
(0.539935 2.83385e-18 -0.318564)
(0.751572 0 -0.46318)
(1.10896 0 -0.684188)
(1.5113 0 -0.927422)
(2.01773 -4.57419e-18 -1.22696)
(2.49497 -4.32608e-18 -1.49306)
(2.94755 -4.10269e-18 -1.75771)
(3.41045 3.86163e-18 -2.00745)
(3.76245 -6.61093e-22 -2.21387)
(4.18091 -3.42376e-18 -2.4397)
(4.46695 -6.45419e-18 -2.61298)
(4.91098 0 -2.85135)
(5.07224 5.68219e-18 -2.96602)
(5.77483 5.31878e-18 -3.34348)
(5.60055 0 -3.27982)
(6.84657 4.6716e-18 -3.972)
(6.30871 4.37526e-18 -3.71633)
(8.28622 4.08736e-18 -4.8736)
(36.578 0 -4.11134)
(36.7278 1.95298e-20 -4.3175)
(36.9963 0 -4.64414)
(37.1667 0 -5.16806)
(36.9812 2.70406e-20 -5.85973)
(36.27 2.59504e-20 -6.60064)
(34.9735 -2.64059e-20 -7.24884)
(33.1273 8.58143e-20 -7.69351)
(30.8343 0 -7.87943)
(28.2327 3.32219e-20 -7.8056)
(25.4681 -6.85629e-20 -7.5085)
(22.6727 0 -7.04227)
(19.9517 7.40096e-20 -6.4636)
(17.3792 0 -5.82269)
(14.9995 7.72974e-20 -5.15952)
(12.8332 7.85647e-20 -4.50301)
(10.8837 7.88857e-20 -3.87314)
(9.14431 -7.8787e-20 -3.28093)
(7.60227 -1.56334e-19 -2.73427)
(6.24171 0 -2.23503)
(5.04628 1.53088e-19 -1.78429)
(3.99967 0 -1.38014)
(3.08682 0 -1.02074)
(2.29333 -1.44694e-19 -0.703183)
(1.60673 2.82409e-19 -0.424223)
(1.0143 0 -0.181549)
(0.507201 0 0.0303019)
(0.0744984 0 0.210837)
(-0.292383 -2.52712e-19 0.365396)
(-0.600605 2.45276e-19 0.495838)
(-0.857644 -2.70218e-22 0.605068)
(-1.06945 2.29365e-19 0.69516)
(-1.24174 -4.43385e-19 0.768671)
(-1.37974 2.13881e-19 0.827386)
(-1.48795 -2.06258e-19 0.873068)
(-1.5704 1.34402e-22 0.907537)
(-1.63033 0 0.933415)
(-1.6724 3.68458e-19 0.948936)
(-1.698 3.54262e-19 0.95643)
(-1.71055 -3.40386e-19 0.95628)
(-1.7107 0 0.952231)
(-1.70091 3.13714e-19 0.943473)
(-1.68269 3.00821e-19 0.930605)
(-1.65723 2.88428e-19 0.914572)
(-1.62618 2.76414e-19 0.896502)
(-1.59144 0 0.877626)
(-1.55521 0 0.859354)
(-1.5199 -1.02354e-22 0.842653)
(-1.487 0 0.827257)
(-1.45583 0 0.810795)
(-1.42207 -4.24327e-19 0.788538)
(-1.37708 4.05364e-19 0.753548)
(-1.30878 3.87051e-19 0.698265)
(-1.20374 3.63923e-23 0.616025)
(-1.05134 -3.89405e-23 0.504531)
(-0.84873 0 0.368319)
(-0.605889 0 0.219507)
(-0.349695 1.2108e-18 0.084579)
(-0.136818 0 0.0110137)
(-0.0753823 0 0.0766362)
(-0.323791 -5.11453e-19 0.385303)
(-1.05005 0 1.02329)
(-2.36603 0 1.9978)
(-4.04951 8.51091e-19 2.98058)
(-5.27121 -8.13186e-19 3.26713)
(-5.04624 1.59502e-18 2.25509)
(-2.62263 0 -0.409337)
(2.67014 -7.34242e-19 -3.16635)
(7.06002 0 -3.66039)
(3.85648 0 -1.31879)
(2.57123 1.11507e-18 -1.49353)
(3.02384 0 -1.77405)
(1.54369 0 -0.152058)
(-2.87398 0 3.22958)
(-9.2491 0 7.31745)
(-14.515 0 9.9696)
(-17.0272 5.45768e-19 10.507)
(-16.804 -9.31698e-21 9.49966)
(-14.4079 -8.10919e-19 7.23087)
(-10.1817 1.00265e-18 4.31519)
(-5.41467 0 1.68442)
(-1.54485 0 -0.0987085)
(1.13713 0 -1.23362)
(2.6329 0 -1.76262)
(3.15882 0 -1.86654)
(3.14705 1.63161e-22 -1.78957)
(3.03213 0 -1.73738)
(3.00667 -1.66424e-18 -1.72908)
(2.7607 1.12249e-21 -1.48604)
(1.8058 0 -0.764331)
(0.299807 -2.65672e-18 0.161826)
(-0.887538 0 0.716811)
(-1.19838 2.33041e-18 0.702981)
(-0.835199 1.03028e-21 0.383593)
(-0.315265 0 0.0708258)
(0.15269 0 -0.17235)
(0.452554 0 -0.314533)
(0.669556 0 -0.411024)
(0.718619 3.38414e-18 -0.416)
(0.762658 0 -0.42661)
(0.705494 0 -0.389963)
(0.776735 2.8079e-18 -0.443)
(0.890573 0 -0.526692)
(1.17453 -2.50137e-18 -0.720181)
(1.59079 2.37042e-18 -0.979677)
(2.07915 0 -1.27507)
(2.64663 8.54188e-18 -1.61198)
(3.21145 1.24279e-21 -1.9247)
(3.71744 7.66086e-18 -2.22125)
(4.26302 -3.60566e-18 -2.51276)
(4.66087 -3.40817e-18 -2.74673)
(5.15714 3.19653e-18 -3.01223)
(5.48275 3.01256e-18 -3.21128)
(6.01014 2.82037e-18 -3.49132)
(6.19252 -5.30443e-18 -3.62625)
(7.00928 -4.965e-18 -4.05896)
(6.81686 -4.65749e-18 -3.99828)
(8.21775 -4.35964e-18 -4.77005)
(7.64164 0 -4.50767)
(9.74731 0 -5.74573)
(36.3032 0 -4.21103)
(36.383 2.16404e-20 -4.42125)
(36.5632 0 -4.69671)
(36.7497 0 -5.08408)
(36.8053 0 -5.59762)
(36.6012 0 -6.20112)
(36.0356 3.08745e-20 -6.81698)
(35.0493 -2.81954e-20 -7.35491)
(33.6324 3.08327e-20 -7.74072)
(31.8207 -6.14397e-20 -7.93149)
(29.6834 6.44548e-20 -7.91641)
(27.3101 0 -7.7098)
(24.7978 -6.95716e-20 -7.34197)
(22.2396 0 -6.85077)
(19.7172 -7.26641e-20 -6.27538)
(17.2947 -7.30343e-20 -5.65153)
(15.0169 0 -5.0098)
(12.9107 0 -4.37297)
(10.9887 7.33386e-20 -3.75891)
(9.25252 0 -3.17853)
(7.69725 0 -2.63931)
(6.31336 -1.40775e-19 -2.14451)
(5.08936 0 -1.69556)
(4.01239 0 -1.29197)
(3.06988 -1.32613e-19 -0.931944)
(2.24865 0 -0.613918)
(1.53752 0 -0.333672)
(0.924913 0 -0.0903468)
(0.400005 4.74779e-19 0.120645)
(-0.0465803 0 0.301295)
(-0.423857 -2.57522e-22 0.455075)
(-0.739846 -2.24464e-22 0.584236)
(-1.00178 2.08262e-19 0.692013)
(-1.21661 -2.01006e-19 0.780449)
(-1.39014 3.87509e-19 0.852012)
(-1.52807 1.86758e-19 0.908635)
(-1.63519 0 0.95185)
(-1.71516 0 0.984784)
(-1.77295 3.32456e-19 1.00745)
(-1.81128 -3.19461e-19 1.02006)
(-1.83354 0 1.02327)
(-1.84153 0 1.02127)
(-1.83714 -1.06829e-22 1.01422)
(-1.82252 -2.70878e-19 1.00256)
(-1.79967 -2.59574e-19 0.988057)
(-1.77092 -4.97124e-19 0.972068)
(-1.73884 0 0.9562)
(-1.70619 -1.00168e-22 0.941495)
(-1.67478 0 0.927529)
(-1.64419 0 0.911472)
(-1.61014 3.98266e-19 0.887931)
(-1.56381 -3.80432e-19 0.84924)
(-1.49268 0 0.787408)
(-1.38289 3.46461e-19 0.6958)
(-1.2234 -3.81537e-23 0.572968)
(-1.01136 0 0.425245)
(-0.757305 0 0.267217)
(-0.489471 -1.13595e-18 0.129274)
(-0.267664 0 0.0659593)
(-0.208498 0 0.166593)
(-0.489332 9.59411e-19 0.54869)
(-1.29577 0 1.30266)
(-2.72682 0 2.40106)
(-4.50256 -1.59487e-18 3.42761)
(-5.75343 7.62139e-19 3.60604)
(-5.55781 -7.46003e-19 2.40083)
(-3.18332 0 -0.518489)
(1.51343 6.87967e-19 -3.06209)
(7.38502 0 -3.95726)
(4.47151 -5.40097e-19 -1.42576)
(2.9059 -5.22114e-19 -1.63217)
(3.10455 0 -1.75997)
(1.18623 0 0.365508)
(-3.88132 7.97826e-19 4.34103)
(-10.6317 6.43612e-19 8.66401)
(-15.658 0 10.9751)
(-17.7502 0 11.0093)
(-17.2758 -1.17363e-18 9.62862)
(-14.7779 7.58871e-19 7.1479)
(-10.49 -1.86769e-18 4.09842)
(-5.58037 0 1.40774)
(-1.5154 0 -0.388492)
(1.37674 0 -1.54225)
(3.04097 0 -2.07603)
(3.66194 0 -2.17355)
(3.67154 1.51698e-22 -2.08225)
(3.52609 0 -2.01074)
(3.43002 0 -1.95864)
(3.08029 1.11893e-21 -1.62337)
(2.00319 0 -0.788945)
(0.404808 -2.48527e-18 0.195518)
(-0.805385 0 0.721035)
(-1.09562 -2.17793e-18 0.642457)
(-0.696584 1.03938e-21 0.274549)
(-0.140836 0 -0.0611522)