/*--------------------------------*- C++ -*----------------------------------*\
| =========                 |                                                 |
| \\      /  F ield         | OpenFOAM: The Open Source CFD Toolbox           |
|  \\    /   O peration     | Version:  2412                                  |
|   \\  /    A nd           | Website:  www.openfoam.com                      |
|    \\/     M anipulation  |                                                 |
\*---------------------------------------------------------------------------*/
FoamFile
{
    version     2.0;
    format      ascii;
    arch        "LSB;label=32;scalar=64";
    class       volScalarField;
    location    "1.7";
    object      Co;
}
// * * * * * * * * * * * * * * * * * * * * * * * * * * * * * * * * * * * * * //

dimensions      [0 0 0 0 0 0 0];

internalField   nonuniform List<scalar> 
12600
(
0.314422
0.176461
0.0999473
0.062897
0.0449429
0.0350318
0.0286379
0.0240602
0.0205883
0.0178541
0.0156407
0.0138115
0.0122753
0.0109682
0.00984404
0.00886865
0.00801589
0.00726553
0.00660159
0.00601128
0.0054842
0.00501181
0.00458704
0.00420395
0.00385752
0.00354351
0.00325827
0.00299864
0.0027619
0.00254568
0.00234791
0.00216676
0.00200062
0.00184808
0.00170785
0.00157883
0.00146
0.00135046
0.00124941
0.00115612
0.00106992
0.000990232
0.000916515
0.000848281
0.00078509
0.000726537
0.000672258
0.000621914
0.000575206
0.000531847
0.000491589
0.000454189
0.000419442
0.000387139
0.000357111
0.000329179
0.000303203
0.000279026
0.000256536
0.000235594
0.000216109
0.000197958
0.000181071
0.000165334
0.000150695
0.00013705
0.000124363
0.000112537
0.000101549
9.1308e-05
8.18037e-05
7.29507e-05
6.47486e-05
5.71165e-05
5.00637e-05
4.35135e-05
3.74827e-05
3.18981e-05
2.67823e-05
2.20655e-05
1.77744e-05
1.38429e-05
1.02994e-05
7.08221e-06
4.21812e-06
2.28117e-06
2.70415e-06
4.48734e-06
6.00341e-06
7.21567e-06
8.32547e-06
8.85657e-06
9.91184e-06
9.48428e-06
1.08361e-05
1.02522e-05
9.67732e-06
1.16729e-05
1.10084e-05
1.54947e-05
1.46006e-05
1.61505e-05
1.52018e-05
8.65498e-06
2.9849e-05
3.17927e-05
3.5827e-05
3.03726e-05
1.1152e-05
3.56998e-05
5.0853e-05
8.01267e-05
5.98749e-05
4.47692e-05
3.52976e-05
2.79111e-05
2.45616e-05
1.69028e-05
2.86765e-05
2.12681e-05
0.477364
0.376089
0.276097
0.202296
0.153014
0.120454
0.0981583
0.0820731
0.0699141
0.0603872
0.0527163
0.0464083
0.0411338
0.0366638
0.0328335
0.0295209
0.0266336
0.0241
0.021864
0.0198807
0.0181137
0.0165333
0.0151149
0.013838
0.0126853
0.0116421
0.0106958
0.00983572
0.00905252
0.00833812
0.00768544
0.0070883
0.00654124
0.00603945
0.00557867
0.00515508
0.00476532
0.00440635
0.00407546
0.0037702
0.00348839
0.00322805
0.00298738
0.00276475
0.00255871
0.0023679
0.00219113
0.00202726
0.0018753
0.00173431
0.00160347
0.00148197
0.00136913
0.00126428
0.00116685
0.00107625
0.00099203
0.000913664
0.000840787
0.000772941
0.000709833
0.000651054
0.000596377
0.000545428
0.00049804
0.000453868
0.000412798
0.000374509
0.00033893
0.00030576
0.00027497
0.000246273
0.000219675
0.000194904
0.000171998
0.000150698
0.000131065
0.000112853
9.6143e-05
8.06995e-05
6.6617e-05
5.36732e-05
4.19669e-05
3.12948e-05
2.17424e-05
1.31532e-05
8.62374e-06
1.09006e-05
1.57634e-05
1.98477e-05
2.34121e-05
2.5211e-05
2.90324e-05
2.6825e-05
3.33121e-05
2.97974e-05
2.94611e-05
3.49098e-05
3.4003e-05
5.13105e-05
5.05817e-05
6.16051e-05
5.29141e-05
2.83e-05
0.0001036
0.000111511
0.000136471
0.000106337
3.36486e-05
0.000116269
0.00017815
0.000299141
0.000194387
0.000149301
0.000120841
0.00010686
9.47315e-05
5.7284e-05
0.000105467
6.78018e-05
0.511879
0.468081
0.396852
0.325107
0.264264
0.216267
0.179432
0.151147
0.129092
0.11155
0.0973273
0.0855954
0.0757754
0.0674539
0.0603283
0.0541723
0.0488134
0.0441175
0.039979
0.0363134
0.0330522
0.0301395
0.0275289
0.0251817
0.0230655
0.0211525
0.0194194
0.0178459
0.0164146
0.0151103
0.0139199
0.0128318
0.0118359
0.0109232
0.0100858
0.00931659
0.00860936
0.00795848
0.00735894
0.00680624
0.00629632
0.00582554
0.0053906
0.00498851
0.00461658
0.00427234
0.00395358
0.00365823
0.00338449
0.00313062
0.00289512
0.00267653
0.00247362
0.00228513
0.00211005
0.0019473
0.00179605
0.00165535
0.00152455
0.00140281
0.0012896
0.00118418
0.00108612
0.000994768
0.000909808
0.000830617
0.000756989
0.000688339
0.000624546
0.000565058
0.000509827
0.000458328
0.000410576
0.000366074
0.000324892
0.000286556
0.000251183
0.000218322
0.000188119
0.00016015
0.000134585
0.000111021
8.96383e-05
7.00751e-05
5.24689e-05
3.65839e-05
2.23529e-05
1.83598e-05
2.43148e-05
3.17593e-05
3.7907e-05
4.10887e-05
4.85435e-05
4.28122e-05
5.83699e-05
4.89723e-05
5.09434e-05
5.88899e-05
5.88698e-05
9.66767e-05
0.000100168
0.000129999
0.000106758
5.1401e-05
0.000206544
0.000229606
0.000295511
0.000215633
6.12572e-05
0.0002153
0.000367715
0.00063939
0.000372894
0.000290089
0.000240648
0.000234925
0.00020904
0.00011651
0.000221335
0.000125646
0.503854
0.490583
0.452691
0.402337
0.349987
0.301346
0.258871
0.222997
0.193128
0.168323
0.147638
0.130264
0.115547
0.102976
0.0921533
0.0827696
0.0745809
0.067394
0.0610539
0.0554351
0.0504352
0.0459695
0.0419677
0.0383708
0.0351291
0.0322002
0.029548
0.0271415
0.0249536
0.0229612
0.0211438
0.0194837
0.017965
0.0165742
0.0152987
0.014128
0.0130521
0.0120625
0.0111515
0.0103122
0.00953818
0.00882396
0.00816446
0.00755507
0.00699166
0.00647042
0.00598799
0.00554118
0.00512724
0.0047435
0.00438766
0.00405751
0.00375113
0.00346664
0.00320246
0.00295697
0.00272888
0.00251679
0.00231965
0.00213621
0.00196565
0.00180686
0.00165919
0.00152163
0.00139371
0.00127448
0.00116363
0.00106027
0.000964212
0.000874629
0.000791426
0.000713831
0.00064184
0.00057472
0.000512553
0.000454644
0.00040114
0.000351383
0.00030557
0.00026308
0.000224144
0.000188182
0.000155435
0.000125391
9.82156e-05
7.36293e-05
5.13812e-05
3.32603e-05
3.07487e-05
4.21587e-05
5.10749e-05
5.59528e-05
6.77684e-05
5.72699e-05
8.52794e-05
6.70784e-05
7.40575e-05
8.27547e-05
8.40116e-05
0.000148982
0.00015991
0.000218008
0.000175439
7.43371e-05
0.000328364
0.000377746
0.000505952
0.00035382
0.0001066
0.000317599
0.000608251
0.00108224
0.00059093
0.000444876
0.000377871
0.000409816
0.000365835
0.000195307
0.000367218
0.000195113
0.48769
0.482885
0.464692
0.434816
0.398205
0.359162
0.320778
0.284953
0.252604
0.223978
0.198928
0.177117
0.158147
0.141624
0.127192
0.114542
0.103411
0.0935803
0.0848661
0.0771145
0.0701967
0.0640044
0.0584458
0.0534433
0.0489302
0.0448498
0.0411531
0.0377975
0.0347463
0.0319673
0.0294325
0.0271171
0.0249994
0.0230601
0.0212823
0.0196507
0.0181518
0.0167735
0.015505
0.0143367
0.0132597
0.0122662
0.0113492
0.0105021
0.00971914
0.00899508
0.00832512
0.00770486
0.00713039
0.00659801
0.0061045
0.00564674
0.00522207
0.00482784
0.00446186
0.00412186
0.00380604
0.00351243
0.00323958
0.00298574
0.00274977
0.00253011
0.00232586
0.00213563
0.00195872
0.00179386
0.00164056
0.00149764
0.00136478
0.00124087
0.00112575
0.00101837
0.000918689
0.000825723
0.00073954
0.000659216
0.000584909
0.000515745
0.000451952
0.000392709
0.000338294
0.000287942
0.000241947
0.000199644
0.000161205
0.000126338
9.45388e-05
6.68285e-05
4.70733e-05
5.00515e-05
6.20374e-05
6.9077e-05
8.59329e-05
6.98668e-05
0.000113148
8.30107e-05
9.84317e-05
0.000105899
0.000108114
0.000206011
0.000226488
0.000322039
0.000256709
9.42786e-05
0.000460084
0.0005483
0.000759855
0.000515057
0.000175391
0.000410628
0.000890307
0.00160681
0.000840398
0.000592453
0.000515165
0.000628288
0.000562054
0.000293564
0.00053379
0.000275988
0.47351
0.467837
0.456908
0.439014
0.415271
0.387554
0.357753
0.327504
0.298033
0.270148
0.24431
0.220714
0.199375
0.180197
0.163021
0.147662
0.133932
0.12165
0.110651
0.100786
0.0919232
0.0839461
0.0767533
0.0702561
0.064377
0.0590482
0.0542104
0.0498118
0.0458066
0.0421546
0.0388203
0.0357725
0.0329832
0.0304278
0.0280842
0.0259328
0.023956
0.022138
0.0204649
0.0189237
0.0175031
0.0161927
0.0149832
0.013866
0.0128337
0.0118791
0.010996
0.0101785
0.00942148
0.00872008
0.00807
0.00746712
0.00690793
0.00638892
0.00590719
0.00545973
0.00504417
0.00465789
0.00429897
0.00396513
0.0036548
0.00336597
0.00309742
0.00284732
0.00261473
0.00239801
0.00219646
0.00200857
0.00183386
0.00167093
0.00151949
0.00137821
0.00124699
0.00112457
0.00101099
0.000905077
0.000806984
0.000715607
0.00063119
0.000552701
0.000480453
0.000413486
0.000352137
0.000295585
0.000243992
0.000197072
0.00015401
0.000116415
8.05238e-05
6.4985e-05
6.97768e-05
7.96114e-05
0.000102161
8.01573e-05
0.000140993
9.55008e-05
0.00012356
0.000127714
0.000129889
0.000265727
0.000296803
0.000438364
0.000347725
0.000108916
0.000594053
0.00073435
0.0010483
0.000692596
0.000268472
0.000484605
0.00120573
0.00218994
0.00111039
0.000746766
0.000667661
0.000885902
0.000792183
0.00041632
0.000717497
0.000367156
0.46223
0.453909
0.444073
0.431011
0.41445
0.394829
0.372881
0.349452
0.325358
0.301301
0.277834
0.255361
0.23415
0.214354
0.196037
0.179196
0.163783
0.149721
0.136918
0.125275
0.114692
0.105074
0.0963302
0.0883773
0.0811386
0.074545
0.0685336
0.0630482
0.0580381
0.0534579
0.0492668
0.0454284
0.0419098
0.0386817
0.0357177
0.032994
0.0304892
0.0281841
0.0260611
0.0241047
0.0223005
0.0206357
0.0190987
0.0176787
0.0163663
0.0151525
0.0140295
0.01299
0.0120272
0.0111352
0.0103085
0.00954179
0.00883067
0.00817069
0.00755814
0.0069892
0.00646085
0.00596977
0.00551349
0.00508911
0.00469465
0.00432753
0.00398618
0.0036683
0.00337266
0.0030972
0.00284099
0.00260214
0.00237999
0.0021728
0.00198016
0.00180042
0.00163338
0.0014775
0.00133276
0.00119772
0.00107252
0.000955799
0.00084781
0.000747292
0.000654582
0.000568516
0.00048946
0.000416431
0.000349572
0.000288605
0.00023237
0.000183132
0.000135713
9.77532e-05
7.97433e-05
8.65337e-05
0.000115419
8.75318e-05
0.000167721
0.000103094
0.00014881
0.000147545
0.000148011
0.000326242
0.000367981
0.000563207
0.000445254
0.000116378
0.000724083
0.000929736
0.00136158
0.000879253
0.000387591
0.000532902
0.00154703
0.00280693
0.00138883
0.000875668
0.000807769
0.00117672
0.00104735
0.00056621
0.000913708
0.00046657
0.452908
0.442523
0.431934
0.420089
0.406524
0.391194
0.37428
0.356088
0.336991
0.317374
0.297597
0.277984
0.258805
0.240278
0.222567
0.205783
0.189995
0.175233
0.161497
0.148766
0.137001
0.126153
0.116168
0.106987
0.0985529
0.0908076
0.0836966
0.0771681
0.0711736
0.0656682
0.0606103
0.0559616
0.0516873
0.0477554
0.0441366
0.0408044
0.0377344
0.0349047
0.0322951
0.0298872
0.0276644
0.0256114
0.0237144
0.0219607
0.0203388
0.0188381
0.0174489
0.0161624
0.0149707
0.0138661
0.0128421
0.0118922
0.0110111
0.0101932
0.00943399
0.00872875
0.00807375
0.00746492
0.00689918
0.00637298
0.00588381
0.00542855
0.00500518
0.00461093
0.00424421
0.00390249
0.0035846
0.00328822
0.0030125
0.00275531
0.00251608
0.00229283
0.00208525
0.00189147
0.00171141
0.00154333
0.00138733
0.00124179
0.00110695
0.000981311
0.000865213
0.000757274
0.000657888
0.000565893
0.000481407
0.000404155
0.000332616
0.00026974
0.000208872
0.000159995
0.00011084
9.24734e-05
0.0001245
9.11953e-05
0.000192123
0.000104139
0.000173416
0.000164649
0.000161065
0.000385799
0.000437368
0.000692823
0.000545856
0.000116949
0.00084555
0.00112902
0.00168964
0.00106805
0.000532597
0.000552375
0.00190653
0.00343289
0.00166426
0.000963671
0.000924615
0.00149273
0.00131482
0.000733553
0.00110683
0.000571329
0.444858
0.433149
0.421649
0.409776
0.397166
0.383685
0.369345
0.354242
0.338521
0.322346
0.30589
0.28932
0.272802
0.256486
0.240509
0.224989
0.210024
0.195692
0.182048
0.16913
0.156956
0.145529
0.13484
0.124869
0.11559
0.106971
0.0989775
0.0915722
0.0847183
0.078379
0.0725185
0.0671024
0.0620979
0.0574742
0.0532023
0.0492552
0.0456076
0.0422364
0.0391198
0.036238
0.0335726
0.0311067
0.0288246
0.0267121
0.024756
0.022944
0.0212652
0.0197091
0.0182665
0.0169285
0.0156874
0.0145355
0.0134665
0.0124737
0.0115518
0.0106952
0.0098993
0.00915933
0.00847154
0.00783168
0.00723671
0.00668287
0.00616772
0.00568791
0.0052415
0.00482546
0.00443832
0.00407732
0.00374137
0.00342793
0.00313627
0.002864
0.0026107
0.00237416
0.0021542
0.00194877
0.00175791
0.00157972
0.00141441
0.00126022
0.00111749
0.000984598
0.000861966
0.00074823
0.000643486
0.000547444
0.000458222
0.000379457
0.000302989
0.000241158
0.000178447
0.000123436
0.000129447
9.01224e-05
0.000212854
9.6765e-05
0.000196467
0.000178163
0.000167492
0.000442737
0.000502503
0.000823585
0.000646062
0.000138505
0.000955381
0.0013274
0.00202254
0.00125279
0.000700975
0.000543321
0.00227575
0.00404435
0.00192774
0.00100044
0.00101307
0.00182324
0.00157838
0.00091466
0.00128739
0.000677951
0.437741
0.425182
0.412982
0.400807
0.388405
0.375638
0.362473
0.348942
0.335111
0.321058
0.306865
0.292606
0.278356
0.264189
0.250173
0.236377
0.222866
0.209702
0.196942
0.184633
0.172818
0.161526
0.15078
0.140593
0.130967
0.121901
0.113383
0.1054
0.0979322
0.0909585
0.0844553
0.078398
0.0727616
0.0675209
0.0626512
0.0581286
0.0539299
0.0500332
0.0464173
0.0430626
0.0399503
0.0370631
0.0343847
0.0318997
0.029594
0.0274544
0.0254688
0.0236257
0.0219147
0.0203259
0.0188505
0.0174799
0.0162066
0.0150233
0.0139236
0.0129011
0.0119506
0.0110663
0.0102439
0.00947854
0.00876651
0.00810345
0.00748645
0.00691157
0.0063765
0.00587768
0.00541333
0.00498019
0.00457694
0.00420058
0.0038502
0.003523
0.00321841
0.00293384
0.00266902
0.00242155
0.00219141
0.00197637
0.00177663
0.00159011
0.00141718
0.00125595
0.00110685
0.000968294
0.000840371
0.000722748
0.000613196
0.000516007
0.000421545
0.000344475
0.000266163
0.000197795
0.00016306
8.29918e-05
0.000228427
7.88719e-05
0.000216896
0.00018706
0.000165531
0.000495446
0.000561053
0.000952066
0.000742561
0.000185232
0.00105194
0.00152061
0.00235114
0.0014286
0.000887751
0.000509047
0.00264498
0.00462077
0.00217404
0.00098127
0.00107319
0.00215464
0.00181987
0.00110589
0.00144685
0.000782728
0.431377
0.418246
0.405546
0.393071
0.380648
0.368155
0.355536
0.342792
0.329957
0.317079
0.30421
0.291396
0.278674
0.266079
0.253638
0.241377
0.22932
0.217494
0.205926
0.194644
0.183676
0.173051
0.162793
0.152926
0.143467
0.134429
0.125821
0.117647
0.109906
0.102594
0.0957013
0.0892173
0.0831286
0.0774197
0.0720742
0.0670748
0.0624037
0.0580431
0.0539754
0.0501832
0.0466496
0.0433584
0.040294
0.0374415
0.034787
0.0323168
0.0300187
0.0278807
0.0258918
0.0240414
0.0223202
0.0207187
0.0192288
0.0178424
0.0165524
0.0153516
0.0142341
0.0131937
0.0122252
0.0113231
0.0104833
0.00970072
0.00897202
0.00829266
0.00765998
0.00706984
0.00652016
0.00600717
0.00552932
0.00508311
0.00466746
0.0042791
0.00391734
0.00357916
0.0032642
0.00296966
0.0026955
0.00243908
0.00220062
0.0019777
0.00177069
0.0015774
0.0013983
0.00123155
0.00107724
0.000934938
0.000802125
0.000683679
0.000568566
0.000473674
0.000377363
0.000293196
0.000243199
0.000113548
0.000243351
5.6639e-05
0.000233492
0.000190093
0.000153143
0.000542301
0.000610742
0.00107509
0.000832312
0.000236496
0.00113465
0.00170478
0.00266757
0.00159212
0.00108573
0.000454933
0.00300346
0.0051455
0.00240179
0.000907501
0.00110895
0.00247079
0.00202193
0.001304
0.00157818
0.000882102
0.425636
0.412107
0.399051
0.38633
0.373826
0.361437
0.349099
0.336789
0.324516
0.312306
0.300197
0.288226
0.276421
0.264809
0.253406
0.242223
0.231266
0.220539
0.210045
0.199787
0.189774
0.180013
0.170516
0.161295
0.152363
0.143733
0.135417
0.127426
0.119768
0.112448
0.105469
0.0988323
0.0925344
0.0865709
0.080935
0.0756181
0.0706102
0.0659001
0.0614758
0.0573245
0.0534336
0.0497897
0.04638
0.0431915
0.0402116
0.037428
0.0348291
0.0324032
0.0301398
0.0280283
0.0260591
0.0242226
0.0225106
0.0209142
0.0194262
0.0180388
0.0167457
0.01554
0.0144162
0.0133682
0.0123915
0.0114803
0.0106311
0.0098386
0.00909992
0.00841035
0.00776755
0.0071672
0.00660755
0.00608459
0.00559706
0.00514123
0.00471629
0.00431873
0.00394817
0.00360133
0.00327815
0.00297559
0.00269387
0.00243018
0.00218495
0.00195561
0.0017427
0.00154408
0.00135987
0.00118951
0.00103021
0.000887372
0.000748672
0.000633058
0.00051606
0.000413517
0.000348824
0.00019628
0.000290389
3.21274e-05
0.000244902
0.000185704
0.000127917
0.000581577
0.000649242
0.00118976
0.000912582
0.000290038
0.00120366
0.00187645
0.00296557
0.00174148
0.00128619
0.00041785
0.00334009
0.00560567
0.00261254
0.000785469
0.00112602
0.00275434
0.00217099
0.00150619
0.00167627
0.000972924
0.420426
0.406613
0.393301
0.38039
0.367796
0.355438
0.343255
0.331211
0.319295
0.307512
0.295883
0.284435
0.273191
0.262176
0.251406
0.240894
0.230645
0.220659
0.210932
0.201458
0.19223
0.183242
0.17449
0.165972
0.157688
0.149641
0.141833
0.134271
0.12696
0.119906
0.113115
0.106592
0.100339
0.0943589
0.0886521
0.0832173
0.0780517
0.0731509
0.0685096
0.0641209
0.0599772
0.0560702
0.0523908
0.0489296
0.045677
0.042623
0.039758
0.037072
0.0345556
0.0321991
0.0299938
0.0279305
0.0260012
0.0241973
0.0225115
0.0209359
0.0194643
0.0180892
0.0168053
0.0156057
0.0144859
0.0134398
0.0124633
0.0115508
0.0106993
0.0099034
0.00916065
0.00846622
0.00781819
0.00721205
0.00664641
0.00611705
0.00562308
0.0051605
0.00472888
0.00432448
0.00394724
0.00359367
0.00326401
0.00295503
0.00266723
0.00239765
0.0021469
0.00191251
0.00169463
0.00149255
0.00130329
0.00113262
0.000967114
0.000827559
0.00068689
0.000563114
0.000480665
0.000303673
0.000386638
6.31571e-05
0.000269973
0.000171864
8.69013e-05
0.000611333
0.000674055
0.00129341
0.000980959
0.000343416
0.00125927
0.00203263
0.00324062
0.0018759
0.00147992
0.000457206
0.00364432
0.00599124
0.00280923
0.000624034
0.00112918
0.00298868
0.00225961
0.00170974
0.00173816
0.00105256
0.415672
0.401654
0.388155
0.3751
0.362425
0.350067
0.337971
0.326099
0.314426
0.302944
0.291656
0.280575
0.269717
0.2591
0.24874
0.238651
0.228841
0.219315
0.210073
0.201108
0.192413
0.183979
0.175794
0.167848
0.160133
0.152639
0.145361
0.138296
0.13144
0.124793
0.118356
0.11213
0.106118
0.100322
0.0947446
0.0893867
0.0842498
0.0793339
0.0746384
0.0701613
0.0659
0.0618508
0.0580092
0.0543698
0.0509268
0.0476736
0.0446035
0.0417092
0.0389833
0.0364183
0.0340068
0.0317409
0.0296137
0.0276173
0.0257453
0.0239901
0.0223456
0.0208048
0.0193624
0.0180115
0.0167475
0.0155642
0.0144575
0.0134214
0.0124528
0.0115461
0.0106985
0.00990498
0.00916338
0.00846879
0.00781978
0.00721162
0.0066434
0.00611065
0.00561292
0.005146
0.00470986
0.00430054
0.00391835
0.00355959
0.00322486
0.00291075
0.00261803
0.0023438
0.00208835
0.00185069
0.00162774
0.00142556
0.00122978
0.00106277
0.000895147
0.000746985
0.000643313
0.000439972
0.000517281
0.000152514
0.000329366
0.000150889
5.10634e-05
0.000629265
0.000682374
0.00138351
0.00103528
0.000394141
0.00130152
0.00217105
0.00348979
0.00199509
0.00165804
0.000535008
0.00390697
0.00629334
0.00299483
0.000431303
0.00112067
0.00315989
0.00228699
0.00191142
0.00176306
0.00111887
0.411311
0.397146
0.383511
0.370348
0.357607
0.345236
0.333189
0.321429
0.309927
0.298664
0.287633
0.276834
0.266272
0.255958
0.245901
0.236113
0.226603
0.21738
0.208445
0.199798
0.191436
0.183351
0.175535
0.167977
0.160664
0.153586
0.146732
0.14009
0.133652
0.127411
0.121359
0.115494
0.109811
0.104309
0.0989871
0.0938447
0.0888823
0.0841002
0.079499
0.0750787
0.0708392
0.0667797
0.062899
0.059195
0.0556654
0.0523068
0.0491157
0.0460876
0.0432181
0.0405018
0.0379339
0.0355083
0.0332197
0.0310618
0.0290293
0.0271156
0.0253158
0.0236233
0.0220333
0.0205395
0.0191375
0.0178213
0.016587
0.0154287
0.0143433
0.0133248
0.0123709
0.011476
0.0106382
0.00985197
0.00911612
0.00842543
0.00777908
0.0071721
0.00660416
0.00607053
0.0055713
0.005102
0.00466309
0.00425036
0.00386457
0.00350184
0.00316309
0.00284501
0.00254802
0.00227086
0.0020104
0.00177286
0.00154313
0.00134491
0.00114679
0.000970815
0.000842063
0.000610242
0.000676026
0.000271438
0.000456205
0.000212558
6.37606e-05
0.000632434
0.000670906
0.00145758
0.0010735
0.000439914
0.00132967
0.00229012
0.00371118
0.00209866
0.00181282
0.000589435
0.00412052
0.00650314
0.00317444
0.000212823
0.0010997
0.00325836
0.00225759
0.00210674
0.00175211
0.00117009
0.407294
0.393022
0.379289
0.366047
0.353255
0.340869
0.328851
0.317166
0.305784
0.294683
0.283848
0.27327
0.262946
0.252878
0.243069
0.233525
0.224252
0.215258
0.206546
0.198118
0.189974
0.182112
0.174526
0.167208
0.16015
0.15334
0.146769
0.140423
0.134293
0.128367
0.122635
0.117088
0.111718
0.106518
0.101483
0.096608
0.09189
0.0873265
0.0829158
0.0786567
0.0745486
0.0705908
0.0667829
0.0631241
0.0596137
0.0562504
0.0530329
0.0499591
0.0470268
0.0442332
0.0415755
0.0390498
0.036653
0.0343804
0.0322286
0.0301923
0.0282679
0.02645
0.0247349
0.023117
0.0215927
0.0201564
0.018805
0.0175326
0.0163366
0.0152112
0.0141543
0.0131601
0.012227
0.0113494
0.0105262
0.00975183
0.00902569
0.00834239
0.00770181
0.00709873
0.00653347
0.00600105
0.00550213
0.00503201
0.00459166
0.0041767
0.00378829
0.00342264
0.00308039
0.00275994
0.00245819
0.00218146
0.00191403
0.00168072
0.00144836
0.00124095
0.00108293
0.00082028
0.000868276
0.000424691
0.000608529
0.000323784
0.00016412
0.000670176
0.000656967
0.00153331
0.00109368
0.000478876
0.00134183
0.00238837
0.00390267
0.00218566
0.00193788
0.000617277
0.00427882
0.00661177
0.00343787
0.000155135
0.00106296
0.00327962
0.00218641
0.00229627
0.00170828
0.00120475
0.403577
0.389229
0.375427
0.362128
0.349299
0.336902
0.324902
0.313268
0.301973
0.290992
0.280307
0.269904
0.259772
0.249908
0.240308
0.230973
0.221904
0.213105
0.204579
0.196327
0.188352
0.180652
0.173224
0.166064
0.159166
0.152523
0.146126
0.139965
0.134031
0.128313
0.1228
0.117482
0.112348
0.10739
0.102599
0.097966
0.0934854
0.0891509
0.0849576
0.0809014
0.076979
0.0731878
0.0695258
0.0659913
0.0625832
0.0593002
0.0561416
0.0531059
0.0501924
0.0473993
0.0447255
0.0421688
0.0397277
0.0373993
0.0351816
0.0330711
0.0310657
0.0291611
0.0273552
0.0256433
0.0240231
0.0224895
0.0210405
0.0196707
0.0183783
0.0171578
0.0160076
0.0149221
0.0139002
0.0129361
0.0120292
0.0111738
0.0103696
0.0096109
0.00889792
0.008225
0.00759285
0.00699595
0.00643535
0.00590578
0.00540858
0.00493881
0.00449797
0.00408177
0.00369112
0.00332408
0.00297763
0.00265813
0.0023494
0.00207724
0.00180684
0.00156429
0.00137257
0.00107658
0.00110016
0.000618008
0.000792729
0.000467745
0.000298891
0.000759617
0.000694561
0.0016237
0.00110892
0.000523883
0.00133453
0.00246422
0.00406126
0.00225432
0.00202829
0.000617106
0.00437617
0.00661246
0.00371501
0.000283783
0.00103386
0.00322423
0.00212334
0.00251026
0.00163631
0.00122172
0.400126
0.385725
0.371874
0.358537
0.345682
0.333278
0.321291
0.309696
0.298465
0.287575
0.277006
0.266739
0.256763
0.247066
0.237643
0.228488
0.219598
0.210973
0.202614
0.19452
0.186692
0.179129
0.17183
0.164793
0.158012
0.151484
0.145201
0.139157
0.133344
0.127753
0.122374
0.1172
0.112219
0.107423
0.102802
0.098347
0.0940496
0.0899019
0.0858965
0.0820269
0.0782872
0.0746722
0.0711777
0.0677998
0.0645357
0.0613824
0.0583382
0.0554009
0.0525695
0.049842
0.0472177
0.0446948
0.0422728
0.0399494
0.037724
0.035594
0.0335587
0.0316149
0.0297618
0.0279956
0.0263153
0.0247169
0.0231993
0.0217579
0.0203918
0.0190961
0.01787
0.0167081
0.0156103
0.0145707
0.0135895
0.0126607
0.0117848
0.0109557
0.0101743
0.00943462
0.00873778
0.00807783
0.00745631
0.00686746
0.00631304
0.00578763
0.00529309
0.00482469
0.00438363
0.00396769
0.00357389
0.00320876
0.00285559
0.00254121
0.00222918
0.00194799
0.00171812
0.00138619
0.00137857
0.000857885
0.00101533
0.000649559
0.000466727
0.000907944
0.000773399
0.00170814
0.00115205
0.000607074
0.00130225
0.00251571
0.00418271
0.00230216
0.00208058
0.000588912
0.00440625
0.00650356
0.00400794
0.00055832
0.00111092
0.0031371
0.00204624
0.0027104
0.00154277
0.00122026
0.396909
0.382473
0.36859
0.355228
0.342359
0.329951
0.317978
0.306413
0.295232
0.284412
0.273932
0.263774
0.253922
0.244363
0.235088
0.226086
0.217353
0.208884
0.200675
0.192726
0.185035
0.1776
0.170419
0.163491
0.156812
0.150377
0.144183
0.138224
0.132494
0.126986
0.121693
0.116606
0.111718
0.10702
0.102505
0.0981621
0.0939846
0.0899639
0.0860919
0.082361
0.0787642
0.0752947
0.0719464
0.0687137
0.0655918
0.062576
0.0596628
0.0568484
0.0541305
0.0515061
0.0489736
0.0465305
0.044176
0.0419077
0.0397254
0.0376265
0.0356109
0.0336761
0.0318219
0.0300453
0.0283465
0.0267218
0.0251715
0.0236914
0.0222819
0.0209383
0.0196611
0.0184452
0.0172913
0.0161939
0.0151539
0.0141654
0.0132297
0.0123406
0.0114997
0.0107007
0.00994549
0.00922768
0.00854949
0.00790466
0.00729555
0.00671624
0.00616907
0.00564894
0.00515729
0.00469182
0.00424944
0.00383708
0.00343732
0.0030783
0.00272166
0.00239885
0.00212673
0.00175637
0.00171093
0.0011514
0.00128363
0.000875384
0.000674664
0.00108885
0.000867622
0.00184666
0.00124295
0.000724618
0.00126596
0.00253945
0.00426142
0.00237106
0.00213506
0.000534513
0.00436108
0.00629139
0.00431596
0.000836873
0.00127506
0.00307731
0.0019638
0.00288856
0.00143637
0.00120027
0.3939
0.379443
0.365541
0.352165
0.339289
0.326884
0.314925
0.303386
0.292246
0.281482
0.271073
0.261002
0.25125
0.241804
0.232651
0.22378
0.215182
0.206849
0.198777
0.19096
0.183396
0.176081
0.169013
0.162188
0.155605
0.149259
0.143145
0.137261
0.1316
0.126156
0.120925
0.115899
0.111071
0.106435
0.101984
0.0977086
0.0936031
0.0896593
0.08587
0.0822276
0.0787251
0.0753554
0.072112
0.0689882
0.0659784
0.0630766
0.0602781
0.0575778
0.0549719
0.0524559
0.0500272
0.0476821
0.0454187
0.0432338
0.0411265
0.0390937
0.0371352
0.035248
0.0334323
0.031685
0.0300068
0.0283944
0.0268485
0.0253654
0.0239462
0.0225867
0.0212884
0.0200462
0.018862
0.0177303
0.0166531
0.0156245
0.0146468
0.0137136
0.0128275
0.0119819
0.0111795
0.0104137
0.00968745
0.00899404
0.00833655
0.00770865
0.00711318
0.0065448
0.00600513
0.00549202
0.00500201
0.00454292
0.00409611
0.00369162
0.00328864
0.00292234
0.00260476
0.00219391
0.00210484
0.00150581
0.0016056
0.0011521
0.000930432
0.00130778
0.000981293
0.00204525
0.00138821
0.000914204
0.00131198
0.00258143
0.004291
0.00247351
0.00220778
0.000472083
0.00424119
0.00603141
0.00467297
0.00111259
0.00145048
0.00299241
0.00188124
0.00303759
0.00132769
0.00116261
0.391077
0.37661
0.362699
0.349318
0.336442
0.324044
0.312099
0.300585
0.289479
0.278762
0.268412
0.258411
0.248741
0.239388
0.230336
0.221575
0.213092
0.204879
0.196927
0.189229
0.181782
0.174579
0.167618
0.160894
0.154403
0.148143
0.142108
0.136295
0.130699
0.125316
0.120139
0.115164
0.110384
0.105794
0.101386
0.0971557
0.0930952
0.0891981
0.0854579
0.0818679
0.0784216
0.0751124
0.071934
0.06888
0.0659445
0.0631214
0.0604055
0.057791
0.0552735
0.0528475
0.0505095
0.0482547
0.0460804
0.0439821
0.0419582
0.0400046
0.0381204
0.0363018
0.0345487
0.0328574
0.0312285
0.0296582
0.0281477
0.0266929
0.0252954
0.023951
0.0226616
0.0214224
0.020236
0.0190968
0.0180078
0.0169629
0.0159655
0.0150089
0.0140968
0.0132222
0.0123889
0.0115899
0.0108289
0.010099
0.00940391
0.00873705
0.00810168
0.00749246
0.00691094
0.00635559
0.00582203
0.00531971
0.00482798
0.00437971
0.00393076
0.00352089
0.00315647
0.00270391
0.00256706
0.00192782
0.00198931
0.00148689
0.00124237
0.00157117
0.00111957
0.00226739
0.00155383
0.00113223
0.00143588
0.00267954
0.00429774
0.00260215
0.00233634
0.000595966
0.00417218
0.00580414
0.00512453
0.00137521
0.00162761
0.00289272
0.00180008
0.00315271
0.00122836
0.00110945
0.388421
0.373951
0.360039
0.346661
0.33379
0.321403
0.309474
0.297984
0.28691
0.276232
0.265931
0.255989
0.246387
0.237111
0.228144
0.219475
0.211091
0.20298
0.195133
0.187543
0.180201
0.173102
0.16624
0.159611
0.15321
0.147033
0.141076
0.135334
0.129803
0.124479
0.119356
0.11443
0.109694
0.105144
0.100775
0.0965795
0.0925526
0.0886883
0.0849806
0.0814235
0.0780113
0.0747378
0.0715975
0.0685843
0.0656929
0.0629174
0.0602528
0.0576932
0.0552343
0.0528704
0.0505977
0.0484107
0.0463064
0.0442795
0.0423278
0.0404464
0.0386337
0.0368851
0.0351999
0.0335736
0.0320063
0.0304936
0.0290364
0.02763
0.0262762
0.02497
0.023714
0.0225026
0.0213391
0.0202176
0.0191416
0.0181049
0.0171114
0.0161544
0.0152382
0.0143556
0.0135112
0.0126976
0.0119195
0.0111695
0.010452
0.00976029
0.00909781
0.00845963
0.00784666
0.00725874
0.00668965
0.00615157
0.00562059
0.00513369
0.00464236
0.00419154
0.00378187
0.00328787
0.00310203
0.00242222
0.00244192
0.00188643
0.00161884
0.00188591
0.0012885
0.00252127
0.00174784
0.00138944
0.00158384
0.00278626
0.00439689
0.00287207
0.00255313
0.000825984
0.00406326
0.00555301
0.00558004
0.00161397
0.00179901
0.00278946
0.00171898
0.00323318
0.00114974
0.00104471
0.385913
0.371448
0.357542
0.344171
0.331311
0.318937
0.307027
0.29556
0.284516
0.273874
0.263615
0.253723
0.244179
0.234967
0.226073
0.217481
0.209181
0.201158
0.193403
0.185907
0.178659
0.171654
0.164885
0.158345
0.152029
0.145933
0.140051
0.134379
0.128913
0.123648
0.118579
0.113702
0.109011
0.104502
0.100168
0.0960064
0.09201
0.0881738
0.0844925
0.0809605
0.0775725
0.0743229
0.0712068
0.0682184
0.065353
0.062605
0.0599699
0.0574423
0.0550179
0.0526914
0.050459
0.0483153
0.0462573
0.0442794
0.0423794
0.0405517
0.0387947
0.037103
0.0354758
0.0339076
0.0323985
0.0309429
0.0295418
0.0281895
0.0268878
0.0256309
0.0244213
0.0232529
0.0221291
0.0210433
0.0199995
0.0189908
0.0180218
0.017085
0.0161856
0.0153157
0.0144807
0.0136727
0.012897
0.012146
0.0114242
0.0107253
0.0100521
0.00940093
0.00877104
0.00816464
0.00757234
0.00701048
0.00645028
0.00593412
0.00540832
0.00492268
0.00447385
0.00394088
0.00370931
0.00298967
0.0029677
0.00235541
0.00206698
0.00225848
0.00149481
0.00281551
0.00197864
0.00169734
0.0017524
0.00290155
0.00447342
0.00317803
0.00278992
0.00109225
0.00391834
0.00530964
0.00602748
0.00182165
0.00195839
0.00269263
0.00163598
0.00328309
0.00110137
0.000974475
0.383539
0.369085
0.355189
0.34183
0.328984
0.316628
0.304738
0.293295
0.282278
0.271669
0.261449
0.2516
0.242106
0.232949
0.224116
0.215591
0.207362
0.199416
0.19174
0.184326
0.177163
0.170242
0.163556
0.157099
0.150863
0.144843
0.139034
0.133431
0.128029
0.122823
0.117808
0.11298
0.108335
0.103867
0.0995708
0.0954424
0.0914764
0.0876678
0.0840116
0.0805026
0.0771358
0.073906
0.0708086
0.0678382
0.0649905
0.0622602
0.0596433
0.0571344
0.05473