/*--------------------------------*- C++ -*----------------------------------*\
| =========                 |                                                 |
| \\      /  F ield         | OpenFOAM: The Open Source CFD Toolbox           |
|  \\    /   O peration     | Version:  2412                                  |
|   \\  /    A nd           | Website:  www.openfoam.com                      |
|    \\/     M anipulation  |                                                 |
\*---------------------------------------------------------------------------*/
FoamFile
{
    version     2.0;
    format      ascii;
    arch        "LSB;label=32;scalar=64";
    class       surfaceScalarField;
    location    "0.83";
    object      ddtCorrDdt0(phi);
}
// * * * * * * * * * * * * * * * * * * * * * * * * * * * * * * * * * * * * * //

dimensions      [0 3 -2 0 0 0 0];

oriented        oriented;

internalField   nonuniform List<scalar> 
24930
(
0.000108484
-0.000107496
-0.000289904
0.000111954
2.42881e-06
9.30545e-05
2.57454e-05
7.80143e-05
2.12222e-05
6.85154e-05
1.74757e-05
6.08916e-05
1.64183e-05
5.41789e-05
1.4367e-05
4.87172e-05
1.2683e-05
4.7385e-05
9.89209e-06
4.94286e-05
8.65425e-06
5.26058e-05
8.83259e-06
5.52262e-05
9.3526e-06
5.69475e-05
9.45332e-06
5.8204e-05
9.12057e-06
5.93544e-05
8.69978e-06
6.03136e-05
8.41463e-06
6.07009e-05
8.22042e-06
6.01442e-05
7.93126e-06
5.84439e-05
7.38515e-06
5.55386e-05
6.50913e-06
5.13935e-05
5.29575e-06
4.59459e-05
3.75757e-06
3.91507e-05
1.90507e-06
3.10756e-05
-2.46067e-07
2.19688e-05
-2.65396e-06
1.22573e-05
-5.23606e-06
2.47892e-06
-7.86379e-06
-6.8153e-06
-1.0371e-05
-1.51511e-05
-1.25712e-05
-2.218e-05
-1.42903e-05
-2.76903e-05
-1.53918e-05
-3.15813e-05
-1.58051e-05
-3.38357e-05
-1.55226e-05
-3.44867e-05
-1.46017e-05
-3.36181e-05
-1.31258e-05
-3.13502e-05
-1.12083e-05
-2.78518e-05
-8.95235e-06
-2.33026e-05
-6.48741e-06
-1.79017e-05
-3.91488e-06
-1.18142e-05
-1.37012e-06
-5.21991e-06
1.06925e-06
1.72638e-06
3.28117e-06
8.78335e-06
5.23628e-06
1.56815e-05
6.82279e-06
2.19924e-05
8.0462e-06
2.72854e-05
8.76525e-06
3.10031e-05
9.0125e-06
3.27349e-05
8.62857e-06
3.20409e-05
7.73792e-06
2.87988e-05
6.2173e-06
2.28815e-05
4.34355e-06
1.45684e-05
2.0106e-06
4.05474e-06
-3.97873e-07
-8.02129e-06
-3.05214e-06
-2.12388e-05
-5.4676e-06
-3.46875e-05
-7.86439e-06
-4.77986e-05
-9.59526e-06
-5.94384e-05
-1.09323e-05
-6.89803e-05
-1.11228e-05
-7.52571e-05
-1.06291e-05
-7.79449e-05
-8.77995e-06
-7.63693e-05
-6.36841e-06
-7.11031e-05
-2.97465e-06
-6.24838e-05
2.88622e-07
-5.2179e-05
3.75771e-06
-4.12965e-05
6.24316e-06
-3.17437e-05
8.75116e-06
-2.42617e-05
9.61488e-06
-1.97588e-05
1.12811e-05
-1.80323e-05
1.03806e-05
-1.88477e-05
1.07532e-05
-2.17011e-05
9.33668e-06
-2.56895e-05
6.11057e-06
-3.0707e-05
8.88796e-06
-3.52473e-05
-1.28297e-06
-4.0205e-05
9.63231e-06
-4.33604e-05
-4.28161e-06
-4.73836e-05
6.74152e-06
-4.86019e-05
5.71606e-06
-5.20633e-05
-8.16753e-06
-5.1401e-05
2.00416e-05
-5.53952e-05
-3.15564e-05
-5.32412e-05
2.43462e-05
-5.87553e-05
-2.72914e-05
-5.41871e-05
1.00443e-05
-5.99296e-05
3.4553e-05
-5.13377e-05
-5.44376e-05
-5.74652e-05
0.000107981
-4.35755e-05
-0.000139806
-5.08964e-05
0.000103452
-3.57944e-05
-1.13461e-05
-1.69397e-05
-0.000115391
-5.81229e-05
0.000261449
6.51201e-05
-0.00638888
-8.89743e-05
0.000202034
-0.000299213
-0.00519202
0.000958857
-0.0013907
-0.00125305
0.00207013
0.000428016
-0.00172073
0.00215154
-0.0014901
-0.00422762
-0.125959
0.00430661
-0.00870459
-0.0014673
0.00587975
-0.00713504
0.00549565
0.00918278
-0.0165579
-0.00999328
0.0195937
0.00112532
-0.0107522
0.00920638
-0.00879678
-0.017187
0.0188663
0.0157658
-0.0317636
0.0113348
0.00699241
-0.0274739
0.0385029
0.00806459
-0.0376934
0.0289568
-0.0187844
-0.0103177
0.0434166
-0.0178833
0.00655099
0.0105262
-0.0293261
0.0119189
-0.000994634
-0.00722122
0.0236645
0.0026127
0.00015689
-4.15906e-05
-0.000217456
0.000168545
3.48457e-06
0.000163467
4.25845e-05
0.000149518
4.83748e-05
0.000130532
5.14919e-05
0.000109432
5.23598e-05
9.02634e-05
4.80059e-05
7.92169e-05
3.96717e-05
7.6994e-05
3.12145e-05
8.0554e-05
2.67999e-05
8.54272e-05
2.63815e-05
8.91782e-05
2.72191e-05
9.19281e-05
2.70742e-05
9.47864e-05
2.55903e-05
9.83593e-05
2.35257e-05
0.000102361
2.15633e-05
0.000106029
1.98216e-05
0.000108637
1.80135e-05
0.000109703
1.57717e-05
0.000108903
1.28409e-05
0.000105916
9.11992e-06
0.000100377
4.62573e-06
9.19834e-05
-5.57334e-07
8.06683e-05
-6.31067e-06
6.67105e-05
-1.24805e-05
5.07268e-05
-1.88598e-05
3.35546e-05
-2.51638e-05
1.60924e-05
-3.10306e-05
-8.38696e-07
-3.60502e-05
-1.65612e-05
-3.98401e-05
-3.05506e-05
-4.21052e-05
-4.23946e-05
-4.27066e-05
-5.17655e-05
-4.165e-05
-5.84018e-05
-3.90829e-05
-6.2152e-05
-3.51911e-05
-6.29933e-05
-3.02115e-05
-6.10713e-05
-2.43462e-05
-5.66369e-05
-1.78756e-05
-5.00368e-05
-1.10344e-05
-4.15981e-05
-4.17562e-06
-3.16764e-05
2.47342e-06
-2.05748e-05
8.56268e-06
-8.71513e-06
1.39907e-05
3.45391e-06
1.84589e-05
1.52384e-05
2.19901e-05
2.59393e-05
2.42325e-05
3.46273e-05
2.52863e-05
4.05643e-05
2.4736e-05
4.28922e-05
2.2893e-05
4.11893e-05
1.94096e-05
3.49525e-05
1.49859e-05
2.43071e-05
9.32439e-06
9.24648e-06
3.42086e-06
-9.46524e-06
-3.17848e-06
-3.1362e-05
-9.23157e-06
-5.5109e-05
-1.53942e-05
-7.98742e-05
-2.01237e-05
-0.000103828
-2.43271e-05
-0.000125888
-2.6212e-05
-0.000143974
-2.70687e-05
-0.000157245
-2.49932e-05
-0.000164123
-2.18324e-05
-0.000164912
-1.58361e-05
-0.000159438
-9.55188e-06
-0.000149726
-1.44795e-06
-0.000137061
5.53844e-06
-0.000124344
1.29987e-05
-0.000112944
1.82056e-05
-0.000104821
2.29544e-05
-0.000100342
2.5365e-05
-9.98154e-05
2.68828e-05
-0.000103086
2.71616e-05
-0.000109104
2.56619e-05
-0.000118068
2.54393e-05
-0.000127548
2.07893e-05
-0.000139085
2.22157e-05
-0.000148599
1.54124e-05
-0.000160443
1.98552e-05
-0.000167727
1.28731e-05
-0.000178906
1.683e-05
-0.000182679
9.37137e-06
-0.000193813
1.09389e-05
-0.000193905
3.97167e-06
-0.00020626
1.15831e-05
-0.00020133
-2.70007e-06
-0.000213578
2.73183e-05
-0.000199933
-3.01146e-05
-0.000211843
4.64139e-05
-0.000188875
-7.5615e-05
-0.000210789
6.33051e-05
-0.000179263
-3.20985e-05
-0.000132393
-8.62569e-05
-0.000292621
0.000292908
0.00017393
-0.000607891
-0.000581893
0.000932895
-0.000637751
-0.00369167
0.0027566
-0.00476613
-0.00417992
0.009219
0.00225622
-0.00820773
0.00462901
-0.003792
-0.0113581
0.0218006
0.0139932
-0.0340709
-0.00635925
0.0262689
-0.0132411
0.0124694
0.0272041
-0.0565559
-0.0299009
0.0764951
0.00865667
-0.0493135
0.0211742
-0.0209438
-0.0504734
0.0981403
0.0952076
-0.12734
0.0251635
0.0258177
-0.0825096
0.145406
0.032509
-0.153856
0.0811119
-0.0674928
-0.0377241
0.15961
-0.0500533
0.0183996
0.0361544
-0.115073
0.0320536
0.00320347
-0.02482
0.0758978
0.0106322
0.000159111
-2.12142e-06
-0.000190567
0.000162459
1.18452e-05
0.000170055
4.48457e-05
0.000166453
6.45092e-05
0.000151633
8.09649e-05
0.000127091
9.04231e-05
0.000101358
8.61083e-05
8.41212e-05
7.10798e-05
7.84754e-05
5.46709e-05
8.07048e-05
4.5171e-05
8.49293e-05
4.3464e-05
8.7995e-05
4.46802e-05
9.02338e-05
4.42341e-05
9.32552e-05
4.10594e-05
9.78804e-05
3.65433e-05
0.00010367
3.22053e-05
0.000109549
2.85334e-05
0.000114518
2.51322e-05
0.000117919
2.13195e-05
0.000119308
1.65584e-05
0.000118248
1.06128e-05
0.000114232
3.51163e-06
0.000106807
-4.57378e-06
9.57875e-05
-1.34404e-05
8.1405e-05
-2.28752e-05
6.43055e-05
-3.26027e-05
4.54013e-05
-4.22054e-05
2.56713e-05
-5.1107e-05
6.00135e-06
-5.86336e-05
-1.28769e-05
-6.41608e-05
-3.03717e-05
-6.72289e-05
-4.59661e-05
-6.76564e-05
-5.91798e-05
-6.55063e-05
-6.95647e-05
-6.10564e-05
-7.67849e-05
-5.46072e-05
-8.06719e-05
-4.65006e-05
-8.12894e-05
-3.69965e-05
-7.88633e-05
-2.64917e-05
-7.37561e-05
-1.53342e-05
-6.63223e-05
-4.10305e-06
-5.69499e-05
6.80918e-06
-4.59714e-05
1.67946e-05
-3.38549e-05
2.56619e-05
-2.11054e-05
3.2891e-05
-8.5014e-06
3.84995e-05
3.17231e-06
4.1876e-05
1.28787e-05
4.31735e-05
1.97838e-05
4.16961e-05
2.28986e-05
3.79991e-05
2.16761e-05
3.15634e-05
1.54355e-05
2.36542e-05
4.15917e-06
1.38526e-05
-1.23209e-05
3.89875e-06
-3.33072e-05
-6.93671e-06
-5.84023e-05
-1.65513e-05
-8.62179e-05
-2.60678e-05
-0.000115883
-3.29337e-05
-0.000145388
-3.87412e-05
-0.000173507
-4.05508e-05
-0.000197874
-4.05969e-05
-0.00021745
-3.575e-05
-0.000230357
-2.92031e-05
-0.000236744
-1.81357e-05
-0.00023623
-6.98359e-06
-0.000230844
6.66252e-06
-0.000221869
1.77422e-05
-0.00021239
2.87689e-05
-0.000203917
3.54302e-05
-0.000198634
4.07637e-05
-0.000197115
4.26315e-05
-0.000199805
4.33083e-05
-0.000206802
4.32526e-05
-0.000217012
4.1299e-05
-0.000230921
4.2083e-05
-0.000245719
3.79539e-05
-0.000263389
4.19335e-05
-0.000279028
3.53272e-05
-0.000297902
4.37842e-05
-0.000311578
3.27483e-05
-0.000330187
4.37284e-05
-0.000340128
2.56927e-05
-0.000358969
4.08238e-05
-0.000364619
1.33499e-05
-0.000384926
3.89964e-05
-0.000383879
-6.14683e-06
-0.000404005
4.19902e-05
-0.000389394
-4.12535e-05
-0.000415205
5.6506e-05
-0.000386528
-8.64439e-05
-0.000418901
7.75118e-05
-0.000370648
-8.31984e-05
-0.000298941
-0.000133818
-0.000588022
0.000554356
0.000263697
-0.001451
-0.00125085
0.0024239
-0.000873954
-0.0023776
0.0044433
-0.0101113
-0.00739711
0.0211891
0.00444607
-0.0201168
0.00613016
-0.00531716
-0.0181535
0.0466777
0.0248012
-0.0767062
-0.012947
0.0640638
-0.0169921
0.0164748
0.0454709
-0.118803
-0.0508765
0.172762
0.0120767
-0.11223
0.0294793
-0.0382619
-0.0846048
0.212696
0.0733569
-0.285705
0.0328588
0.0665814
-0.139787
0.319614
0.0663077
-0.360838
0.130619
-0.131774
-0.0725815
0.362232
-0.0797715
0.0250857
0.0656931
-0.260376
0.049258
0.0198245
-0.0466459
0.172014
0.0217272
0.000161375
3.67568e-05
-0.000191487
0.000153433
3.09649e-05
0.000157811
5.01376e-05
0.000161091
7.4665e-05
0.000155097
0.000101637
0.000136913
0.000121123
0.000112002
0.000122393
9.11199e-05
0.000105559
8.08988e-05
8.2324e-05
7.95481e-05
6.6683e-05
8.10635e-05
6.27172e-05
8.15406e-05
6.41882e-05
8.11902e-05
6.34994e-05
8.20939e-05
5.8198e-05
8.54917e-05
5.03346e-05
9.09618e-05
4.27113e-05
9.71562e-05
3.65247e-05
0.000102761
3.13194e-05
0.000106903
2.59734e-05
0.00010903
1.95341e-05
0.000108648
1.15639e-05
0.000105195
2.10272e-06
9.81422e-05
-8.5712e-06
8.72293e-05
-2.01781e-05
7.26539e-05
-3.25006e-05
5.50873e-05
-4.52685e-05
3.55019e-05
-5.7973e-05
1.49236e-05
-6.98105e-05
-5.75573e-06
-7.97937e-05
-2.58317e-05
-8.7011e-05
-4.47425e-05
-9.08205e-05
-6.19705e-05
-9.10129e-05
-7.69879e-05
-8.77411e-05
-8.9256e-05
-8.14428e-05
-9.83346e-05
-7.25358e-05
-0.000103968
-6.14415e-05
-0.000106175
-4.84333e-05
-0.000105167
-3.39906e-05
-0.000101316
-1.85586e-05
-9.49814e-05
-2.95572e-06
-8.65512e-05
1.22452e-05
-7.63533e-05
2.61572e-05
-6.48699e-05
3.85023e-05
-5.26296e-05
4.85324e-05
-4.04638e-05
5.62745e-05
-2.92026e-05
6.08391e-05
-1.99473e-05
6.24435e-05
-1.35731e-05
6.00855e-05
-1.11409e-05
5.45955e-05
-1.32533e-05
4.52663e-05
-2.06978e-05
3.39808e-05
-3.35569e-05
2.01584e-05
-5.20954e-05
6.32042e-06
-7.56238e-05
-8.61476e-06
-0.000103785
-2.16324e-05
-0.000135124
-3.44e-05
-0.000168757
-4.32748e-05
-0.00020254
-5.06318e-05
-0.000235183
-5.23011e-05
-0.000264143
-5.15812e-05
-0.000288313
-4.40169e-05
-0.000305658
-3.42504e-05
-0.000316314
-1.82473e-05
-0.000319838
-2.36259e-06
-0.000318361
1.69187e-05
-0.00031323
3.2441e-05
-0.000307706
4.78199e-05
-0.000303396
5.70287e-05
-0.000302587
6.42627e-05
-0.000305956
6.68683e-05
-0.000313915
6.7727e-05
-0.000326745
6.81951e-05
-0.000343137
6.61089e-05
-0.000363913
6.84058e-05
-0.000385724
6.42018e-05
-0.000411197
7.09738e-05
-0.000434429
6.30984e-05
-0.000461919
7.60102e-05
-0.000483433
5.95855e-05
-0.000511209
7.81398e-05
-0.000528939
4.87221e-05
-0.000557474
7.74733e-05
-0.000570488
2.95025e-05
-0.000600847
7.45906e-05
-0.000605537
-1.98857e-06
-0.000635333
6.95014e-05
-0.000621913
-5.15682e-05
-0.000659961
8.51503e-05
-0.000613735
-0.000120726
-0.000673725
0.000128292
-0.000607164
-0.000148415
-0.000516562
-0.000207132
-0.000930618
0.000951893
0.000303365
-0.00267031
-0.00200637
0.00471859
-0.00102501
-0.00220137
0.00597653
-0.0171492
-0.0108131
0.0381328
0.00684041
-0.0378329
0.00674655
-0.00505241
-0.0245986
0.0781122
0.0365176
-0.136889
-0.0211611
0.121776
-0.0202555
0.0155522
0.0630587
-0.201841
-0.0723463
0.308007
0.0248364
-0.209283
0.0341149
-0.047526
-0.119073
0.366481
0.11754
-0.522326
0.0342646
0.149817
-0.197899
0.553844
0.109479
-0.66938
0.176013
-0.198369
-0.11426
0.65188
-0.106192
0.0165582
0.0983604
-0.465433
0.0625244
0.0558386
-0.0725435
0.307057
0.0328637
0.000169579
6.82241e-05
-0.000192088
0.000155375
5.68438e-05
0.000151951
6.48791e-05
0.000155085
8.59528e-05
0.000156105
0.000114427
0.000148187
0.000140371
0.000131289
0.000150325
0.000112609
0.000138182
9.96971e-05
0.000113111
9.40741e-05
9.26739e-05
9.15219e-05
8.6034e-05
8.79628e-05
8.76736e-05
8.31669e-05
8.71833e-05
7.95313e-05
7.98646e-05
7.90089e-05
6.80076e-05
8.16005e-05
5.60293e-05
8.58929e-05
4.63683e-05
9.02469e-05
3.87741e-05
9.34674e-05
3.16522e-05
9.4803e-05
2.34838e-05
9.36745e-05
1.35049e-05
8.94917e-05
1.71608e-06
8.16889e-05
-1.14808e-05
6.99359e-05
-2.56994e-05
5.43685e-05
-4.0737e-05
3.56586e-05
-5.64036e-05
1.48428e-05
-7.21706e-05
-6.97983e-06
-8.70153e-05
-2.88889e-05
-9.95858e-05
-5.0203e-05
-0.00010862
-7.04059e-05
-0.000113258
-8.90094e-05
-0.000113267
-0.000105476
-0.000108914
-0.000119214
-0.000100829
-0.000129709
-8.95585e-05
-0.000136642
-7.55885e-05
-0.00014
-5.91654e-05
-0.000140002
-4.08197e-05
-0.000137044
-2.10773e-05
-0.000131505
-1.01289e-06
-0.000123788
1.86049e-05
-0.00011422
3.65845e-05
-0.000103308
5.25665e-05
-9.16043e-05
6.5564e-05
-7.99998e-05
7.56289e-05
-6.93702e-05
8.15645e-05
-6.08857e-05
8.36597e-05
-5.54595e-05
8.05611e-05
-5.42279e-05
7.34003e-05
-5.78373e-05
6.12446e-05
-6.71752e-05
4.665e-05
-8.23617e-05
2.88189e-05
-0.00010374
1.11099e-05
-0.000130588
-7.99462e-06
-0.000162568
-2.44806e-05
-0.00019812
-4.06408e-05
-0.000236335
-5.16091e-05
-0.000274906
-6.06335e-05
-0.000312485
-6.21594e-05
-0.000346336
-6.06578e-05
-0.00037531
-5.01818e-05
-0.000397216
-3.69464e-05
-0.000412225
-1.55516e-05
-0.000419849
5.60109e-06
-0.000422382
3.12688e-05
-0.000421265
5.20725e-05
-0.000419977
7.2799e-05
-0.000420261
8.55323e-05
-0.00042452
9.55825e-05
-0.000433574
9.96827e-05
-0.000447767
0.000101194
-0.000467625
0.00010265
-0.000491517
0.000100416
-0.000520713
0.000104701
-0.000551129
9.98484e-05
-0.000586272
0.000110188
-0.000618894
0.000100043
-0.000657149
0.000118817
-0.000688443
9.60579e-05
-0.000727822
0.000123702
-0.000755362
8.19929e-05
-0.000796299
0.000125324
-0.000818639
5.5857e-05
-0.000861962
0.000122221
-0.000874051
1.11978e-05
-0.000916591
0.000111921
-0.000905544
-6.07592e-05
-0.000958983
0.000134334
-0.000902805
-0.00017152
-0.000987057
0.000209842
-0.000899538
-0.000232294
-0.000795396
-0.000300041
-0.00132666
0.00148013
0.000279419
-0.00426379
-0.0028491
0.00783866
-0.00110987
-0.00325509
0.00731172
-0.025619
-0.0143444
0.0599525
0.00941469
-0.0616559
0.00644634
-0.00189644
-0.0305939
0.115241
0.0488744
-0.213816
-0.0307754
0.201432
-0.02307
0.00782274
0.079172
-0.303777
-0.0937328
0.480845
0.0410157
-0.343902
0.0347709
-0.0412878
-0.153253
0.555097
0.165882
-0.841309
0.029542
0.286141
-0.255239
0.840361
0.161434
-1.08734
0.215491
-0.252373
-0.161571
1.02875
-0.127719
-0.0178352
0.132312
-0.724037
0.0707764
0.117569
-0.102058
0.479914
0.0305191
0.000178027
9.01909e-05
-0.000191231
0.000166052
8.21009e-05
0.000158107
8.54736e-05
0.000157801
0.000100085
0.000161052
0.000123281
0.00016217
0.000149751
0.000156715
0.000167398
0.000145876
0.000164122
0.000134737
0.00014298
0.000126818
0.000121278
0.000120941
0.000112666
0.000113857
0.000114615
0.000104673
0.000115244
9.55553e-05
0.00010704
8.92031e-05
9.1524e-05
8.65775e-05
7.45524e-05
8.67253e-05
6.03486e-05
8.79071e-05
4.94321e-05
8.85831e-05
3.99555e-05
8.7691e-05
2.97744e-05
8.44877e-05
1.76446e-05
7.83494e-05
3.40628e-06
6.87092e-05
-1.24371e-05
5.51718e-05
-2.93279e-05
3.77511e-05
-4.70275e-05
1.70429e-05
-6.54798e-05
-5.87836e-06
-8.42538e-05
-2.98046e-05
-0.000102176
-5.37308e-05
-0.000117498
-7.69619e-05
-0.000128527
-9.90219e-05
-0.000134125
-0.000119471
-0.000134015
-0.000137793
-0.000128605
-0.000153369
-0.000118758
-0.000165627
-0.000105178
-0.000174174
-8.8422e-05
-0.000178959
-6.86783e-05
-0.0001802
-4.64923e-05
-0.000178327
-2.24393e-05
-0.000173747
2.14067e-06
-0.000166893
2.6272e-05
-0.000158104
4.84286e-05
-0.000147911
6.81768e-05
-0.0001369
8.4276e-05
-0.000126027
9.68238e-05
-0.00011622
0.000104283
-0.00010873
0.000107029
-0.000104514
0.000103307
-0.000104798
9.45891e-05
-0.000110273
7.96716e-05
-0.000121939
6.18594e-05
-0.000139947
4.0072e-05
-0.000164727
1.85821e-05
-0.000195514
-4.67148e-06
-0.000231992
-2.45722e-05
-0.000272472
-4.41516e-05
-0.000316027
-5.71669e-05
-0.000360156
-6.78649e-05
-0.000403466
-6.9125e-05
-0.000442994
-6.67384e-05
-0.000477559
-5.30734e-05
-0.000504791
-3.60886e-05
-0.00052491
-8.84341e-06
-0.00053737
1.80352e-05
-0.000544649
5.07059e-05
-0.000548283
7.74107e-05
-0.000551995
0.000104222
-0.000557685
0.000121211
-0.000567891
0.000134817
-0.000583628
0.000141171
-0.000605162
0.000143921
-0.000633351
0.000147153
-0.000666155
0.000145065
-0.000705455
0.000152283
-0.000746221
0.000146577
-0.000793125
0.000161783
-0.000837197
0.000148624
-0.000888721
0.000175096
-0.000932111
0.000144771
-0.000986019
0.000183628
-0.00102588
0.00012787
-0.00108252
0.000188109
-0.00111674
9.44909e-05
-0.00117662
0.000185672
-0.00119849
3.482e-05
-0.00125757
0.000171844
-0.00125101
-6.62503e-05
-0.00132354
0.000205543
-0.00125916
-0.000233795
-0.0013721
0.00032344
-0.00125556
-0.000343913
-0.00115032
-0.000396697
-0.00179135
0.00212555
0.000171215
-0.00621693
-0.00377928
0.0117812
-0.00115287
-0.00564001
0.0083992
-0.0352265
-0.0179222
0.0864513
0.0121221
-0.0917668
0.00527405
0.00515641
-0.0360833
0.156693
0.0615372
-0.31005
-0.041402
0.304274
-0.0252776
-0.00832808
0.092953
-0.421667
-0.114671
0.688386
0.0608666
-0.519304
0.0315567
-0.0119918
-0.186592
0.773891
0.217432
-1.24509
0.0196163
0.483944
-0.310194
1.17189
0.221744
-1.6206
0.247618
-0.278286
-0.213114
1.4892
-0.143767
-0.0877739
0.166373
-1.03534
0.0730401
0.211111
-0.134545
0.687577
0.039117
0.000185358
0.000105792
-0.000192251
0.000179486
0.000102884
0.000171647
0.000105943
0.000168735
0.00011544
0.00017127
0.000131818
0.000177356
0.000154713
0.000182039
0.000176041
0.000181174
0.000181781
0.000175692
0.000168061
0.000168839
0.000148871
0.000162222
0.000139718
0.000154303
0.00014207
0.000143539
0.000144684
0.000130935
0.000137576
0.000119237
0.000120262
0.000110542
9.90012e-05
0.000105039
7.9845e-05
0.000101473
6.47444e-05
9.82117e-05
5.21571e-05
9.38779e-05
3.95105e-05
8.74754e-05
2.50129e-05
7.83011e-05
8.17684e-06
6.58278e-05
-1.05029e-05
4.96482e-05
-3.02453e-05
2.96178e-05
-5.06362e-05
6.14189e-06
-7.17278e-05
-1.97486e-05
-9.3335e-05
-4.67182e-05
-0.0001143
-7.35932e-05
-0.000132512
-9.95892e-05
-0.000145762
-0.000124243
-0.000152523
-0.000147181
-0.000152422
-0.00016795
-0.000146003
-0.000185954
-0.000134402
-0.000200582
-0.000118534
-0.000211371
-9.90645e-05
-0.000218205
-7.61106e-05
-0.000221275
-5.01959e-05
-0.000221039
-2.18943e-05
-0.000217943
7.19569e-06
-0.000212462
3.58865e-05
-0.000204945
6.228e-05
-0.000195954
8.58725e-05
-0.000186098
0.000105151
-0.000176404
0.000120291
-0.000167852
0.00012938
-0.000161791
0.000132909
-0.000159228
0.000128661
-0.000161489
0.0001185
-0.000169308
0.000100893
-0.000183808
7.99843e-05
-0.000205167
5.43316e-05
-0.000233921
2.92181e-05
-0.000269249
1.90515e-06
-0.000310877
-2.12645e-05
-0.000356971
-4.42116e-05
-0.0004066
-5.91349e-05
-0.000457054
-7.14479e-05
-0.000506909
-7.22452e-05
-0.000552952
-6.88333e-05
-0.00059399
-5.16556e-05
-0.000627444
-3.06325e-05
-0.000653612
2.94571e-06
-0.000671866
3.59958e-05
-0.000684897
7.62847e-05
-0.000694322
0.000109478
-0.000704136
0.000143084
-0.000716405
0.000165048
-0.000733817
0.000182953
-0.000757627
0.000192424
-0.000787995
0.000197099
-0.000826217
0.000203145
-0.000869738
0.000201672
-0.000921237
0.000213103
-0.000974502
0.00020656
-0.00103572
0.000228331
-0.00109375
0.000211549
-0.00116159
0.000248033
-0.00121992
0.000208671
-0.00129197
0.000261751
-0.00134725
0.000189396
-0.00142377
0.000270494
-0.00147308
0.000148408
-0.00155418
0.000269991
-0.00158897
7.1563e-05
-0.00166973
0.000253836
-0.00167055
-6.4608e-05
-0.00176753
0.000302531
-0.00169728
-0.000303102
-0.00184388
0.00047218
-0.00170267
-0.000479264
-0.00160374
-0.000487272
-0.00235038
0.00288026
-4.78593e-05
-0.00851186
-0.00481914
0.0165434
-0.00118967
-0.00924399
0.00919166
-0.0456691
-0.0214972
0.117331
0.0149113
-0.128246
0.00330344
0.0169878
-0.0411385
0.201198
0.0737303
-0.426776
-0.0525652
0.43044
-0.0266229
-0.0343005
0.103807
-0.551726
-0.134999
0.926978
0.0840374
-0.738192
0.0252218
0.0468021
-0.218634
1.01843
0.270099
-1.73352
0.00626137
0.747763
-0.361021
1.54091
0.309053
-2.29112
0.271638
-0.241598
-0.266945
2.02733
-0.153356
-0.202004
0.198673
-1.38678
0.0685439
0.341462
-0.169153
0.925352
0.0361823
0.000192197
0.000118196
-0.000195552
0.000192332
0.000119219
0.00018711
0.000123553
0.000183912
0.000130683
0.000185411
0.000142057
0.000192968
0.000160107
0.000203485
0.000181081
0.000210914
0.000192672
0.000211945
0.00018703
0.000208574
0.000172515
0.000203737
0.00016423
0.000198023
0.000166666
0.000189721
0.000171203
0.00017801
0.000166861
0.000164417
0.00015054
0.000151473
0.000127323
0.000140721
0.000104226
0.000132048
8.48609e-05
0.000124263
6.86646e-05
0.000115908
5.31353e-05
0.00010573
3.6102e-05
9.28673e-05
1.66535e-05
7.68414e-05
-4.92612e-06
5.73455e-05
-2.76883e-05
3.41378e-05
-5.08537e-05
7.33686e-06
-7.44007e-05
-2.2224e-05
-9.84808e-05
-5.31304e-05
-0.000122224
-8.39545e-05
-0.000143327
-0.000113693
-0.000159022
-0.000141812
-0.00016724
-0.000167992
-0.000167387
-0.000191882
-0.000160086
-0.000212965
-0.00014677
-0.000230654
-0.000128619
-0.000244425
-0.000106479
-0.000254078
-8.04248e-05
-0.000259736
-5.09368e-05
-0.000261864
-1.85152e-05
-0.00026095
1.50144e-05
-0.000257527
4.82622e-05
-0.00025196
7.89095e-05
-0.000244838
0.000106381
-0.000236782
0.000128865
-0.000228889
0.000146656
-0.000222196
0.000157433
-0.000218163
0.000161846
-0.000217853
0.000157151
-0.000222708
0.000145656
-0.000233495
0.000125422
-0.000251468
0.000101543
-0.000276828
7.21184e-05
-0.000310234
4.35693e-05
-0.000350804
1.23171e-05
-0.000398324
-1.39155e-05
-0.000450802
-4.01297e-05
-0.000507327
-5.67445e-05
-0.000564956
-7.05567e-05
-0.000622264
-7.06092e-05
-0.000675759
-6.59777e-05
-0.000724264
-4.48805e-05
-0.000764963
-1.94795e-05
-0.000798263
2.10007e-05
-0.00082343
6.07217e-05
-0.000843403
0.000109327
-0.000859862
0.000149644
-0.000877111
0.000190818
-0.000897386
0.000218525
-0.000923543
0.000241517
-0.000957124
0.000255065
-0.000998157
0.000262423
-0.00104848
0.000272532
-0.00110491
0.000272266
-0.00117115
0.000289533
-0.00123952
0.000282323
-0.00131815
0.00031284
-0.00139318
0.000291899
-0.00148107
0.00034137
-0.00155782
0.000291299
-0.00165245
0.000362663
-0.00172704
0.000270473
-0.00182863
0.000377987
-0.00189715
0.000221679
-0.00200543
0.000381387
-0.00205731
0.000125468
-0.00216648
0.00036442
-0.00217877
-5.15085e-05
-0.00230746
0.000431748
-0.00223511
-0.000374804
-0.00242282
0.000662672
-0.00225667
-0.000638835
-0.00218172
-0.000553264
-0.00326366
0.00397206
-0.000407267
-0.0113615
-0.0060077
0.0221337
-0.00126009
-0.0140141
0.00964223
-0.0566382
-0.0250476
0.152228
0.0177116
-0.17108
0.000677143
0.0342662
-0.0458318
0.247657
0.085188
-0.560774
-0.0638244
0.579326
-0.0268695
-0.0712899
0.11145
-0.689646
-0.154442
1.19168
0.109696
-1.00216
0.0170768
0.139392
-0.248891
1.28513
0.321073
-2.30313
-0.00816144
1.07696
-0.405708
1.94026
0.306657
-3.00526
0.287254
-0.221992
-0.321073
2.63573
-0.157642
-0.366118
0.226591
-1.77103
0.056861
0.511426
-0.204858
1.18714
0.0189294
0.000199112
0.000129328
-0.000200344
0.000204015
0.000132764
0.000201867
0.000138614
0.000200112
0.000145432
0.000201543
0.000154141
0.000208874
0.00016791
0.000221106
0.000186131
0.000232866
0.000199901
0.000238946
0.000200539
0.000239403
0.000191283
0.000237534
0.000184625
0.000235577
0.000186569
0.000232388
0.000191906
0.00022561
0.00019061
0.000214715
0.000177502
0.000201463
0.0001553
0.000188142
0.000130545
0.00017591
0.000107992
0.000164485
8.83988e-05
0.000152715
6.99081e-05
0.000139241
5.03707e-05
0.000122981
2.85642e-05
0.000103419
4.37416e-06
8.04477e-05
-2.13201e-05
5.39167e-05
-4.72822e-05
2.36856e-05
-7.30744e-05
-9.79073e-06
-9.90694e-05
-4.51908e-05
-0.000124968
-8.08213e-05
-0.000148626
-0.000115303
-0.000166824
-0.00014787
-0.000176807
-0.000178165
-0.000177551
-0.00020594
-0.000169627
-0.000230807
-0.000154723
-0.000252276
-0.000134316
-0.00026982
-0.000109522
-0.000283154
-8.04559e-05
-0.000292285
-4.75777e-05
-0.00029764
-1.12371e-05
-0.000299736
2.65778e-05
-0.000299178
6.43169e-05
-0.000296363
9.91884e-05
-0.000291907
0.000130534
-0.000286428
0.000156197
-0.000281093
0.000176647
-0.00027699
0.000189123
-0.000275714
0.000194498
-0.000278389
0.000189418
-0.000286592
0.000176703
-0.000301108
0.000153898
-0.000323332
0.000127179
-0.00035347
9.40706e-05
-0.000392332
6.22988e-05
-0.000438965
2.72517e-05
-0.000493248
-1.77713e-06
-0.000553003
-3.11118e-05
-0.000617373
-4.91205e-05
-0.000683157
-6.42582e-05
-0.000748961
-6.31885e-05
-0.000810982
-5.7083e-05
-0.000868097
-3.15625e-05
-0.000917213
-1.38751e-06
-0.000958895
4.66642e-05
-0.000992264
9.36145e-05
-0.00102055
0.000151336
-0.00104549
0.000199477
-0.00107173
0.000249089
-0.00110167
0.000283386
-0.00113838
0.000312346
-0.00118373
0.000331068
-0.00123759
0.000341976
-0.00130245
0.000357645
-0.00137439
0.00035932
-0.00145837
0.000384448
-0.00154496
0.00037688
-0.00164468
0.000418914
-0.0017404
0.000393312
-0.00185281
0.000459583
-0.00195225
0.000396924
-0.00207488
0.000491864
-0.00217356
0.000375925
-0.00230665
0.000517179
-0.00239956
0.000319509
-0.00254253
0.000527508
-0.00261695
0.000201965
-0.00276325
0.000512239
-0.00279255
-2.13287e-05
-0.00296257
0.000602522
-0.00289363
-0.000443116
-0.00313267
0.00090484
-0.00294519
-0.000819103
-0.00291183
-0.000576895
-0.00378601
0.00485732
-0.000791623
-0.0143486
-0.00742511
0.0287554
-0.00140021
-0.0200684
0.00970546
-0.0678159
-0.0285848
0.190744
0.0204394
-0.220184
-0.00245119
0.0574238
-0.0499766
0.295093
0.0954231
-0.706776
-0.0748532
0.749475
-0.0258103
-0.120372
0.115684
-0.830707
-0.174281
1.49484
0.136435
-1.31272
0.00880562
0.266986
-0.276771
1.57149
0.367114
-2.94661
-0.0212838
1.4653
-0.441958
2.36284
0.364803
-3.81404
0.29643
-0.153195
-0.374243
3.30689
-0.157815
-0.583272
0.24829
-2.17706
0.0379505
0.722014
-0.240566
1.46572
-0.0147227
0.000206606
0.000139844
-0.000206218
0.000215253
0.000144794
0.000215683
0.000152074
0.000215946
0.000159474
0.000218177
0.000167019
0.000224938
0.000177622
0.000236457
0.000192429
0.000249069
0.000205841
0.000257765
0.000210262
0.000261048
0.000205767
0.000262088
0.000200743
0.000263716
0.000201779
0.000265769
0.00020646
0.000265342
0.000207157
0.000260123
0.000197901
0.000250362
0.000178871
0.000238102
0.000154929
0.000225262
0.000130983
0.000212479
0.000108924
0.000199168
8.78709e-05
0.000184099
6.61162e-05
0.000165991
4.24452e-05
0.000144122
1.63494e-05
0.000118507
-1.17025e-05
8.92926e-05
-4.0205e-05
5.62988e-05
-6.79798e-05
1.95272e-05
-9.5215e-05
-2.00734e-05
-0.000122263
-6.0713e-05
-0.000147606
-0.000100558
-0.000167927
-0.000138395
-0.000179771
-0.000173651
-0.000181458
-0.000206078
-0.000173276
-0.000235413
-0.000157045
-0.000261322
-0.000134486
-0.000283374
-0.000107049
-0.000301247
-7.5002e-05
-0.000314801
-3.88937e-05
-0.000324356
1.11818e-06
-0.000330405
4.2973e-05
-0.000333634
8.50557e-05
-0.000334484
0.000124064
-0.000333613
0.000159241
-0.000331621
0.000188013
-0.000329735
0.000211085
-0.000329088
0.000225223
-0.000331429
0.000231613
-0.000337953
0.000226202
-0.000350395
0.000212399
-0.000369545
0.000187085
-0.000396942
0.000157669
-0.000432775
0.000120957
-0.00047803
8.61977e-05
-0.000531678
4.75202e-05
-0.000593726
1.60256e-05
-0.000661791
-1.62372e-05
-0.000735099
-3.52591e-05
-0.000810156
-5.14937e-05
-0.00088565
-4.88218e-05
-0.000957424
-4.09263e-05
-0.00102446
-1.03692e-05
-0.00108333
2.50353e-05
-0.00113483
8.14425e-05
-0.00117788
0.000136243
-0.00121607
0.000204003
-0.00125114
0.000260744
-0.00128815
0.000319796
-0.0013297
0.000361644
-0.00137906
0.000397596
-0.00143848
0.000422766
-0.00150767
0.000438251
-0.00158992
0.000461272
-0.0016804
0.000465794
-0.00178563
0.000501272
-0.0018941
0.000493806
-0.00201928
0.000550829
-0.00214003
0.000520097
-0.00228234
0.000607994
-0.00240956
0.000530644
-0.00256675
0.000655925
-0.00269535
0.000511608
-0.00286783
0.000696023
-0.00299159
0.000448384
-0.00317861
0.000717802
-0.00328254
0.000308042
-0.00347703
0.000708355
-0.00353063
3.32593e-05
-0.00375447
0.000827267
-0.0036965
-0.00050039
-0.00400039
0.00121214
-0.00379762
-0.00101406
-0.00382764
-0.000536349
-0.00472053
0.00576235
-0.00173561
-0.0173271
-0.00923488
0.0362426
-0.0016165
-0.027718
0.00933189
-0.0788421
-0.0321595
0.232483
0.0230144
-0.275443
-0.00594389
0.0866759
-0.0536742
0.342723
0.103987
-0.864629
-0.0854987
0.938829
-0.0231675
-0.182748
0.118216
-0.971578
-0.191205
2.35339
0.162683
-1.66714
0.00206007
0.427565
-0.301541
1.87593
0.404982
-3.65268
-0.0315246
1.90171
-0.468432
2.8018
0.412258
-4.69695
0.299877
-0.0402718
-0.420962
4.02652
-0.155881
-0.849122
0.261684
-2.59458
0.0121473
0.971813
-0.27541
1.75334
-0.0654649
0.000212445
0.000148536
-0.000209641
0.000224797
0.000155041
0.000227737
0.000163677
0.000230274
0.000171979
0.000233875
0.000179138
0.000240423
0.000187629
0.000250573
0.000199453
0.000262236
0.000211462
0.000271575
0.000217749
0.000276727
0.000216783
0.000279895
0.000213329
0.000284083
0.000213235
0.000289765
0.0002163
0.000294471
0.000217483
0.000295119
0.000211302
0.000290594
0.000196073
0.000282059
0.000174546
0.000271449
0.000150879
0.000259929
0.000127564
0.000247442
0.000104673
0.000233055
8.11554e-05
0.000215445
5.61391e-05
0.00019356
2.89943e-05
0.000167257