/*--------------------------------*- C++ -*----------------------------------*\
| =========                 |                                                 |
| \\      /  F ield         | OpenFOAM: The Open Source CFD Toolbox           |
|  \\    /   O peration     | Version:  2412                                  |
|   \\  /    A nd           | Website:  www.openfoam.com                      |
|    \\/     M anipulation  |                                                 |
\*---------------------------------------------------------------------------*/
FoamFile
{
    version     2.0;
    format      ascii;
    arch        "LSB;label=32;scalar=64";
    class       volScalarField;
    location    "1.645";
    object      Co;
}
// * * * * * * * * * * * * * * * * * * * * * * * * * * * * * * * * * * * * * //

dimensions      [0 0 0 0 0 0 0];

internalField   nonuniform List<scalar> 
12600
(
0.31481
0.176675
0.100052
0.0629475
0.0449689
0.0350462
0.0286458
0.0240639
0.0205895
0.0178534
0.0156387
0.0138087
0.0122719
0.0109643
0.00983997
0.00886442
0.00801158
0.00726121
0.00659731
0.00600706
0.00548007
0.00500779
0.00458312
0.00420015
0.00385385
0.00353996
0.00325483
0.00299532
0.0027587
0.0025426
0.00234494
0.0021639
0.00199788
0.00184544
0.00170532
0.0015764
0.00145767
0.00134823
0.00124728
0.00115408
0.00106797
0.000988375
0.000914743
0.000846591
0.000783478
0.000725
0.000670792
0.000620518
0.000573877
0.000530583
0.000490387
0.000453048
0.000418359
0.000386112
0.000356138
0.000328257
0.000302331
0.000278203
0.00025576
0.000234862
0.000215422
0.000197312
0.000180466
0.000164764
0.000150163
0.000136549
0.000123896
0.000112095
0.00010114
9.09201e-05
8.14484e-05
7.26104e-05
6.44402e-05
5.68167e-05
4.97957e-05
4.32469e-05
3.72487e-05
3.16584e-05
2.65774e-05
2.18473e-05
1.75938e-05
1.364e-05
1.01369e-05
6.88759e-06
4.06712e-06
2.24616e-06
2.92046e-06
4.65131e-06
6.24393e-06
7.46045e-06
8.54864e-06
9.35273e-06
1.00041e-05
1.03424e-05
1.09936e-05
1.03924e-05
1.15702e-05
1.09127e-05
1.10711e-05
1.14066e-05
1.07472e-05
1.14471e-05
1.07779e-05
1.19657e-05
1.12569e-05
1.35397e-05
1.27315e-05
8.82495e-06
2.44625e-05
2.53815e-05
2.00556e-05
1.66855e-05
2.69913e-05
6.69454e-05
5.15071e-05
1.19684e-05
4.19514e-05
5.40008e-05
1.37875e-05
2.38139e-05
0.47792
0.376521
0.276399
0.202495
0.153142
0.120537
0.0982132
0.0821091
0.0699373
0.0604013
0.0527239
0.0464111
0.041133
0.0366603
0.032828
0.029514
0.0266256
0.0240912
0.0218547
0.0198711
0.0181039
0.0165235
0.0151051
0.0138283
0.0126757
0.0116326
0.0106866
0.00982671
0.00904375
0.0083296
0.00767718
0.0070803
0.00653351
0.00603199
0.00557146
0.00514814
0.00475864
0.00439993
0.00406929
0.00376429
0.00348273
0.00322262
0.00298218
0.00275979
0.00255396
0.00236337
0.0021868
0.00202313
0.00187137
0.00173057
0.00159991
0.00147859
0.00136593
0.00126125
0.00116398
0.00107353
0.000989455
0.00091123
0.000838493
0.000770778
0.000707804
0.000649144
0.000594592
0.000543749
0.000496477
0.000452396
0.000411435
0.00037322
0.000337748
0.000304638
0.000273954
0.000245298
0.000218806
0.000194055
0.000171256
0.00014995
0.000130429
0.000112187
9.5597e-05
8.00971e-05
6.61461e-05
5.31151e-05
4.15526e-05
3.0759e-05
2.13651e-05
1.26198e-05
8.84583e-06
1.1316e-05
1.65252e-05
2.05168e-05
2.4087e-05
2.68579e-05
2.88691e-05
3.03321e-05
3.23625e-05
3.03097e-05
3.52054e-05
3.24951e-05
3.4929e-05
3.32923e-05
3.27277e-05
3.62634e-05
3.34029e-05
3.81958e-05
3.72872e-05
4.88764e-05
4.19932e-05
2.95257e-05
8.65062e-05
9.08795e-05
8.03791e-05
5.46788e-05
8.99766e-05
0.000239554
0.000176207
3.69876e-05
0.000147192
0.000204686
5.12748e-05
9.21482e-05
0.512445
0.468592
0.397277
0.325441
0.264515
0.216451
0.179566
0.151244
0.129161
0.1116
0.0973616
0.0856182
0.0757895
0.0674613
0.0603304
0.0541703
0.0488083
0.04411
0.0399696
0.0363026
0.0330405
0.030127
0.0275159
0.0251684
0.023052
0.021139
0.0194059
0.0178326
0.0164014
0.0150974
0.0139073
0.0128195
0.0118239
0.0109115
0.0100744
0.00930559
0.00859871
0.0079482
0.00734903
0.00679669
0.00628715
0.00581673
0.00538214
0.0049804
0.00460882
0.00426491
0.00394647
0.00365145
0.00337802
0.00312445
0.00288925
0.00267096
0.00246832
0.0022801
0.00210528
0.00194278
0.00179178
0.00165132
0.00152075
0.00139923
0.00128624
0.00118101
0.00108317
0.000991989
0.000907228
0.000828188
0.000754749
0.000686224
0.000622619
0.000563229
0.000508186
0.000456753
0.000409193
0.000364717
0.000323731
0.000285377
0.000250209
0.00021728
0.000187303
0.000159217
0.0001339
0.000110163
8.90559e-05
6.92496e-05
5.1962e-05
3.57448e-05
2.19287e-05
1.81294e-05
2.57022e-05
3.27773e-05
3.90815e-05
4.41968e-05
4.74392e-05
5.0593e-05
5.39412e-05
4.98627e-05
6.06158e-05
5.45307e-05
6.24621e-05
5.41611e-05
5.56919e-05
6.50316e-05
5.83328e-05
6.91868e-05
7.02178e-05
9.84808e-05
8.0449e-05
5.49214e-05
0.00017424
0.000188501
0.000178337
0.000107153
0.000178634
0.000495792
0.000353048
5.62555e-05
0.00028823
0.000443177
0.000113235
0.000200119
0.5044
0.491099
0.453161
0.402746
0.35033
0.301626
0.259093
0.22317
0.193263
0.168426
0.147716
0.130322
0.115589
0.103006
0.0921734
0.0827818
0.0745867
0.0673947
0.0610506
0.0554286
0.0504262
0.0459585
0.0419551
0.0383571
0.0351145
0.032185
0.0295325
0.0271257
0.0249377
0.0229453
0.021128
0.0194681
0.0179497
0.0165591
0.015284
0.0141136
0.0130381
0.0120489
0.0111383
0.0102994
0.00952584
0.00881207
0.00815301
0.00754405
0.00698107
0.00646027
0.00597825
0.00553186
0.00511832
0.00473499
0.00437955
0.00404979
0.00374379
0.00345966
0.00319584
0.00295069
0.00272294
0.00251116
0.00231435
0.00213121
0.00196096
0.00180245
0.00165508
0.00151777
0.00139013
0.00127112
0.00116054
0.00105736
0.000961571
0.000872127
0.000789201
0.000711698
0.00063999
0.000572906
0.000511031
0.000453089
0.000399893
0.00035003
0.000304555
0.000261882
0.000223323
0.00018709
0.000154766
0.000124342
9.76725e-05
7.25385e-05
5.09929e-05
3.28884e-05
3.28453e-05
4.3442e-05
5.28162e-05
6.07358e-05
6.51691e-05
7.06663e-05
7.51979e-05
6.89015e-05
8.71576e-05
7.62108e-05
9.31988e-05
7.33931e-05
7.8429e-05
9.68226e-05
8.48448e-05
0.000103877
0.000108208
0.000159876
0.000127392
8.19807e-05
0.000279961
0.00031097
0.000310239
0.00017668
0.000284618
0.000814752
0.000571468
9.50185e-05
0.000443818
0.000760202
0.000207359
0.000342001
0.488215
0.483384
0.465161
0.435248
0.398593
0.359502
0.321069
0.285197
0.252806
0.224142
0.19906
0.177222
0.15823
0.141688
0.127241
0.114578
0.103436
0.0935973
0.0848759
0.0771186
0.0701961
0.0639999
0.0584383
0.0534332
0.0489182
0.0448362
0.0411382
0.0377817
0.0347299
0.0319504
0.0294153
0.0270998
0.0249821
0.0230429
0.0212652
0.0196338
0.0181352
0.0167573
0.0154892
0.0143213
0.0132447
0.0122517
0.0113351
0.0104885
0.00970605
0.00898246
0.00831299
0.00769321
0.00711922
0.00658732
0.00609428
0.00563699
0.00521278
0.004819
0.00445346
0.00411388
0.00379848
0.00350527
0.00323282
0.00297937
0.00274379
0.00252449
0.00232062
0.00213071
0.00195417
0.00178959
0.00163665
0.00149396
0.00136146
0.00123774
0.00112299
0.00101573
0.00091643
0.000823508
0.000737722
0.000657348
0.00058346
0.000514147
0.000450815
0.000391318
0.000337418
0.000286691
0.000241277
0.000198443
0.00016072
0.000125057
9.43202e-05
6.52659e-05
4.89796e-05
5.15059e-05
6.44124e-05
7.56625e-05
8.14071e-05
8.99213e-05
9.55739e-05
8.70999e-05
0.000114183
9.65235e-05
0.000126463
9.10962e-05
9.9914e-05
0.000130827
0.000112339
0.00014147
0.000149611
0.000230602
0.00018149
0.000108381
0.000396899
0.000451521
0.000471656
0.000263842
0.000400915
0.0011762
0.000819941
0.000177325
0.000595028
0.00114548
0.000338645
0.000511353
0.474017
0.468317
0.457363
0.439442
0.415669
0.387918
0.358081
0.327795
0.298286
0.270366
0.244495
0.220869
0.199504
0.180303
0.163106
0.14773
0.133985
0.121691
0.110682
0.100808
0.0919373
0.0839539
0.0767559
0.0702544
0.0643717
0.0590399
0.0541998
0.0497992
0.0457924
0.0421392
0.038804
0.0357555
0.0329657
0.03041
0.0280662
0.0259148
0.023938
0.0221203
0.0204473
0.0189064
0.0174862
0.0161762
0.0149671
0.0138504
0.0128185
0.0118644
0.0109818
0.0101648
0.00940831
0.00870743
0.00805787
0.00745552
0.00689685
0.00637835
0.00589712
0.00545015
0.00503507
0.00464927
0.00429083
0.00395743
0.00364758
0.00335918
0.0030911
0.00284138
0.00260926
0.00239287
0.00219178
0.00200416
0.00182992
0.0016672
0.00151624
0.00137511
0.00124438
0.00112201
0.00100894
0.000902964
0.000805411
0.000713837
0.000630015
0.000551193
0.000479611
0.000412153
0.000351559
0.000294307
0.000243664
0.000195668
0.000154083
0.000114599
8.12643e-05
6.46855e-05
7.28582e-05
8.8048e-05
9.53958e-05
0.000107626
0.000114435
0.00010404
0.000140991
0.000114342
0.00016147
0.000108607
0.00011912
0.000166174
0.000140132
0.000181241
0.000192948
0.000308252
0.000241078
0.000132314
0.000519171
0.000604026
0.000657463
0.000367477
0.000521469
0.00156094
0.00108685
0.000299622
0.000726772
0.00158749
0.00050785
0.000701083
0.462719
0.454372
0.444512
0.431428
0.414842
0.395196
0.373221
0.349763
0.325641
0.301554
0.278058
0.255558
0.234321
0.214501
0.196162
0.179301
0.16387
0.149792
0.136975
0.12532
0.114727
0.1051
0.0963483
0.0883889
0.0811447
0.0745463
0.068531
0.0630423
0.0580294
0.0534469
0.049254
0.0454141
0.0418943
0.0386654
0.0357007
0.0329765
0.0304714
0.028166
0.026043
0.0240866
0.0222826
0.0206181
0.0190813
0.0176617
0.0163496
0.0151363
0.0140138
0.0129747
0.0120124
0.0111209
0.0102947
0.00952859
0.00881802
0.00815858
0.00754657
0.00697817
0.00645036
0.0059598
0.00550406
0.00508019
0.00468627
0.00431964
0.00397884
0.00366141
0.00336632
0.00309125
0.00283558
0.00259705
0.00237547
0.00216854
0.00197648
0.00179692
0.00163048
0.00147466
0.00133056
0.00119543
0.0010709
0.000953933
0.000846688
0.000745748
0.00065387
0.00056718
0.000489072
0.000415154
0.000349503
0.00028715
0.000232853
0.000181116
0.000137145
9.55226e-05
8.19608e-05
9.67924e-05
0.000106214
0.000122905
0.00013103
0.000119183
0.000166789
0.000128401
0.000197332
0.000125372
0.000134986
0.000201916
0.000167416
0.000222473
0.000236875
0.000390527
0.000304293
0.000152394
0.000641879
0.000768104
0.000866649
0.000485011
0.000641015
0.00195169
0.00136154
0.000462766
0.000829366
0.00207314
0.000710266
0.00090349
0.453378
0.44297
0.432359
0.420493
0.406905
0.391554
0.374618
0.356404
0.337284
0.317644
0.297844
0.278208
0.259006
0.240457
0.222725
0.205921
0.190114
0.175334
0.161583
0.148838
0.13706
0.126201
0.116206
0.107017
0.0985748
0.0908228
0.0837061
0.0771727
0.0711741
0.065665
0.0606041
0.0559529
0.0516765
0.0477428
0.0441226
0.0407892
0.0377184
0.0348879
0.0322778
0.0298696
0.0276467
0.0255936
0.0236967
0.0219432
0.0203215
0.018821
0.0174322
0.0161461
0.0149547
0.0138506
0.0128271
0.0118778
0.0109972
0.0101798
0.00942117
0.00871648
0.00806205
0.00745376
0.0068886
0.00636295
0.00587438
0.00541965
0.00499691
0.00460316
0.00423706
0.00389578
0.00357852
0.00328252
0.00300746
0.00275057
0.00251204
0.00228899
0.00208214
0.00188842
0.00170913
0.00154094
0.00138576
0.00123991
0.00110598
0.000979811
0.00086473
0.000756018
0.000657794
0.000564697
0.000481703
0.000402723
0.000333624
0.000267586
0.000211139
0.000157529
0.000111197
0.000101918
0.000112754
0.000134735
0.000144469
0.000131854
0.000190688
0.000137286
0.000233056
0.000139392
0.000146401
0.000237038
0.000193231
0.000264417
0.000280158
0.000475267
0.000369178
0.000167601
0.000761185
0.000936192
0.00109031
0.00061276
0.000754948
0.0023338
0.00163527
0.000663745
0.000899474
0.00258738
0.000935348
0.00111022
0.44531
0.43358
0.42206
0.410166
0.397537
0.384036
0.369677
0.354555
0.338814
0.322621
0.306145
0.289557
0.27302
0.256686
0.24069
0.225152
0.21017
0.195821
0.182162
0.169229
0.157041
0.145601
0.134901
0.12492
0.115631
0.107004
0.0990027
0.0915909
0.0847313
0.078387
0.0725221
0.0671022
0.0620945
0.057468
0.0531938
0.0492446
0.0455955
0.0422228
0.0391052
0.0362226
0.0335565
0.0310901
0.0288078
0.0266951
0.0247389
0.022927
0.0212483
0.0196924
0.0182501
0.0169124
0.0156717
0.0145203
0.0134517
0.0124594
0.0115381
0.010682
0.00988664
0.00914721
0.00846002
0.00782072
0.00722638
0.00667311
0.00615864
0.00567936
0.00523364
0.00481808
0.00443166
0.00407107
0.00373588
0.00342278
0.00313193
0.00285988
0.00260745
0.00237097
0.00215193
0.00194635
0.00175648
0.0015779
0.00141369
0.00125884
0.00111734
0.000983507
0.000862273
0.000747196
0.000644255
0.00054611
0.00045987
0.00037723
0.000306221
0.00023852
0.000179582
0.000132721
0.000113657
0.000141915
0.000153686
0.00014122
0.000211675
0.000139405
0.00026754
0.000149456
0.000152187
0.000270469
0.000216445
0.000306246
0.000321631
0.000560478
0.000433784
0.00017721
0.000874312
0.00110405
0.00132182
0.000746435
0.000859295
0.00269584
0.00190175
0.000894319
0.00093943
0.00311299
0.00116794
0.00131218
0.438175
0.425597
0.413378
0.401185
0.388764
0.375979
0.362797
0.349249
0.3354
0.321331
0.307121
0.292846
0.278581
0.264398
0.250366
0.236555
0.223029
0.209851
0.197076
0.184754
0.172925
0.161621
0.150863
0.140664
0.131029
0.121952
0.113426
0.105435
0.0979604
0.0909803
0.0844715
0.0784092
0.0727683
0.0675237
0.0626507
0.0581251
0.0539239
0.050025
0.0464073
0.0430511
0.0399376
0.0370494
0.0343701
0.0318845
0.0295784
0.0274386
0.0254528
0.0236096
0.0218986
0.02031
0.0188348
0.0174645
0.0161916
0.0150086
0.0139094
0.0128873
0.0119373
0.0110535
0.0102317
0.00946687
0.00875548
0.00809299
0.0074767
0.00690237
0.00636806
0.00586974
0.00540618
0.00497347
0.00457108
0.00419508
0.00384564
0.00351867
0.00321509
0.00293057
0.00266684
0.00241917
0.0021902
0.00197469
0.00177625
0.00158895
0.00141748
0.0012551
0.00110767
0.000967502
0.000841726
0.000721587
0.000615593
0.000513776
0.000425858
0.000341718
0.00026822
0.000205239
0.000141664
0.000143069
0.000157381
0.000146265
0.000228577
0.000132957
0.000299573
0.000154115
0.00015107
0.000301095
0.000235739
0.000347013
0.000360138
0.000644338
0.000496246
0.000180715
0.000979447
0.00126822
0.00155487
0.000881642
0.000950413
0.00302929
0.00215728
0.00114149
0.000954939
0.00363102
0.00139125
0.0014996
0.431794
0.418645
0.405928
0.393436
0.380997
0.368487
0.355851
0.343091
0.33024
0.317347
0.304463
0.291635
0.278899
0.266291
0.253837
0.241562
0.229493
0.217654
0.206074
0.194779
0.1838
0.173163
0.162894
0.153016
0.143546
0.134499
0.125882
0.1177
0.109951
0.102631
0.0957319
0.0892419
0.0831477
0.0774339
0.072084
0.0670806
0.0624061
0.0580425
0.0539721
0.0501776
0.0466421
0.0433492
0.0402834
0.0374298
0.0347743
0.0323034
0.0300047
0.0278662
0.025877
0.0240265
0.0223053
0.0207038
0.0192141
0.0178279
0.0165382
0.0153377
0.0142207
0.0131806
0.0122126
0.011311
0.0104718
0.00968979
0.0089618
0.00828299
0.00765109
0.00706145
0.00651263
0.00600008
0.00552319
0.00507735
0.00466275
0.00427462
0.00391403
0.00357588
0.00326218
0.0029674
0.0026946
0.00243762
0.00220069
0.00197683
0.00177154
0.00157689
0.00139975
0.00123108
0.00107929
0.000934026
0.000805381
0.000681514
0.000574062
0.000470848
0.000380478
0.000301916
0.000218786
0.000174987
0.000153933
0.000145769
0.000240028
0.000115891
0.000327819
0.000151667
0.00014715
0.000327759
0.000249585
0.000385622
0.000394478
0.000725176
0.000554845
0.000177774
0.00107557
0.00142571
0.00178364
0.00101434
0.00103842
0.00334051
0.00240027
0.00138892
0.000951783
0.00412184
0.00159065
0.00166207
0.426036
0.412491
0.399419
0.386683
0.374164
0.361759
0.349406
0.337081
0.324793
0.312569
0.300446
0.288461
0.276644
0.265019
0.253605
0.24241
0.231442
0.220704
0.210199
0.199931
0.189908
0.180137
0.17063
0.161399
0.152457
0.143818
0.135494
0.127494
0.119828
0.112501
0.105515
0.098871
0.0925669
0.0865977
0.0809567
0.075635
0.0706228
0.0659088
0.061481
0.0573267
0.0534331
0.0497868
0.0463751
0.0431847
0.0402033
0.0374184
0.0348184
0.0323917
0.0301275
0.0280155
0.0260459
0.0242093
0.022497
0.0209006
0.0194127
0.0180254
0.0167326
0.0155271
0.0144038
0.0133561
0.0123799
0.0114692
0.0106206
0.00982867
0.00909078
0.00840168
0.00775977
0.00715986
0.00660124
0.00607864
0.00559229
0.00513668
0.00471305
0.0043155
0.00394639
0.00359924
0.00327765
0.00297442
0.00269448
0.00242968
0.00218646
0.0019555
0.00174489
0.00154401
0.00136274
0.00118892
0.00103443
0.000885342
0.000755442
0.000630208
0.000520365
0.000423419
0.000322533
0.000258675
0.000181678
0.000138316
0.000244405
9.08835e-05
0.00035081
0.000140156
0.000150228
0.000349244
0.000256222
0.000420796
0.000423332
0.000801425
0.000608012
0.000168164
0.00116217
0.00157388
0.00200308
0.00114115
0.00111986
0.00362415
0.00263065
0.00161925
0.00093314
0.00456654
0.00175651
0.00178878
0.42081
0.406983
0.393655
0.38073
0.368122
0.35575
0.343553
0.331495
0.319565
0.307769
0.296127
0.284666
0.273411
0.262383
0.251603
0.24108
0.230821
0.220825
0.211088
0.201605
0.192368
0.183371
0.174611
0.166085
0.157792
0.149736
0.141921
0.134351
0.127032
0.119971
0.113174
0.106643
0.100384
0.0943984
0.088686
0.0832459
0.0780754
0.0731702
0.0685247
0.0641322
0.0599852
0.0560751
0.052393
0.0489294
0.0456746
0.0426188
0.0397521
0.0370647
0.034547
0.0321896
0.0299835
0.0279196
0.0259898
0.0241855
0.0224995
0.0209238
0.0194522
0.0180772
0.0167934
0.0155941
0.0144747
0.0134289
0.012453
0.0115409
0.0106901
0.00989465
0.00915281
0.00845876
0.00781182
0.00720601
0.00664166
0.00611249
0.00561999
0.00515737
0.0047274
0.00432262
0.00394721
0.00359283
0.00326525
0.00295497
0.0026695
0.00239802
0.00214995
0.0019129
0.00169844
0.00149235
0.00130858
0.00113079
0.00097524
0.000824727
0.000692512
0.000574059
0.000453044
0.000372492
0.000273839
0.000174879
0.000243082
6.76926e-05
0.00036692
0.000119225
0.000157295
0.000364219
0.000253621
0.000451058
0.000445201
0.000871557
0.000654313
0.000172918
0.00123897
0.00171025
0.00220893
0.0012594
0.00118779
0.00387144
0.00284908
0.00181652
0.000898832
0.00494814
0.00188448
0.00186869
0.41604
0.402009
0.388497
0.375428
0.36274
0.350368
0.33826
0.326374
0.314689
0.303194
0.291894
0.280801
0.269933
0.259304
0.248934
0.238834
0.229015
0.21948
0.210229
0.201255
0.192552
0.18411
0.175917
0.167964
0.160241
0.152741
0.145456
0.138384
0.131521
0.124868
0.118424
0.112192
0.106174
0.100373
0.0947895
0.0894263
0.0842843
0.0793637
0.0746637
0.0701825
0.0659173
0.0618645
0.0580197
0.0543773
0.0509316
0.0476759
0.0446037
0.0417073
0.0389798
0.0364133
0.0340005
0.0317336
0.0296055
0.0276084
0.0257358
0.0239801
0.0223353
0.0207943
0.0193518
0.0180009
0.0167372
0.0155539
0.0144477
0.0134119
0.012444
0.0115375
0.0106908
0.00989757
0.00915711
0.00846278
0.00781515
0.00720711
0.00664053
0.00610766
0.0056118
0.00514439
0.00471037
0.00430008
0.00392029
0.00356
0.00322798
0.00291166
0.00262204
0.00234472
0.0020932
0.00185093
0.00163421
0.00142399
0.00123933
0.00105998
0.000902212
0.000758791
0.000614946
0.000514114
0.000395285
0.000278356
0.000288574
4.64609e-05
0.000374365
9.47673e-05
0.000160149
0.000371172
0.000239427
0.000474703
0.000458323
0.000933992
0.000692403
0.000195959
0.0013056
0.00183239
0.00239769
0.0013671
0.00124076
0.00407782
0.00305625
0.00196829
0.000846519
0.00525201
0.0019737
0.00189074
0.411665
0.397487
0.38384
0.370664
0.357911
0.345527
0.333469
0.321696
0.310182
0.298908
0.287866
0.277055
0.266483
0.256158
0.246091
0.236293
0.226775
0.217542
0.208599
0.199944
0.191574
0.183482
0.175659
0.168094
0.160775
0.153691
0.14683
0.140182
0.133738
0.127491
0.121434
0.115563
0.109875
0.104368
0.0990407
0.0938933
0.088926
0.0841393
0.0795336
0.0751091
0.0708656
0.0668023
0.062918
0.0592107
0.055678
0.0523165
0.0491227
0.0460922
0.0432205
0.0405024
0.0379327
0.0355055
0.0332156
0.0310566
0.0290231
0.0271086
0.0253081
0.023615
0.0220247
0.0205306
0.0191286
0.0178122
0.0165782
0.01542
0.014335
0.0133167
0.0123637
0.0114689
0.0106321
0.0098461
0.00911171
0.00842104
0.00777648
0.00716928
0.00660343
0.00606919
0.00557237
0.00510193
0.00466578
0.00425127
0.00386862
0.00350331
0.00316817
0.0028465
0.00255404
0.0022716
0.00201815
0.00177159
0.00155419
0.00134218
0.00115542
0.000983257
0.000813579
0.000688577
0.000547153
0.000408455
0.000405107
0.000111332
0.000403912
6.54882e-05
0.000157265
0.000368267
0.000210868
0.000489754
0.000460595
0.000987011
0.000720943
0.00021864
0.00136131
0.00193785
0.0025663
0.00146271
0.00127781
0.00423774
0.00325246
0.00206695
0.000773476
0.00546593
0.00202435
0.00189635
0.407634
0.39335
0.379605
0.366352
0.353548
0.341151
0.329121
0.317425
0.306032
0.29492
0.284075
0.273486
0.263153
0.253075
0.243256
0.233702
0.224421
0.215418
0.206698
0.198262
0.190111
0.182242
0.174649
0.167325
0.16026
0.153445
0.146868
0.140517
0.134381
0.12845
0.122713
0.117161
0.111787
0.106582
0.101542
0.096663
0.0919406
0.0873728
0.0829579
0.0786949
0.0745829
0.0706213
0.0668098
0.0631476
0.0596339
0.0562675
0.0530471
0.0499706
0.0470358
0.0442399
0.0415801
0.0390525
0.0366539
0.0343798
0.0322266
0.0301891
0.0282637
0.0264448
0.024729
0.0231104
0.0215859
0.0201491
0.0187977
0.0175251
0.0163294
0.0152039
0.0141477
0.0131534
0.0122215
0.0113438
0.0105221
0.00974763
0.00902342
0.00833975
0.00770149
0.00709763
0.00653511
0.00600133
0.00550559
0.00503339
0.00459668
0.00417873
0.0037945
0.00342472
0.00308768
0.00276119
0.00246734
0.00218051
0.00192667
0.00167806
0.0014587
0.00125377
0.00105499
0.00090162
0.000734758
0.000570557
0.000550055
0.000225265
0.000480376
4.5861e-05
0.000148661
0.000353146
0.000164609
0.000493888
0.000449473
0.00102866
0.000738484
0.00023652
0.00140471
0.00202411
0.00271174
0.00154486
0.00129782
0.00434417
0.00348308
0.00215299
0.000677593
0.00557989
0.00203665
0.00188857
0.403904
0.389544
0.375731
0.362421
0.349581
0.337173
0.325163
0.313518
0.302213
0.291222
0.280528
0.270114
0.259973
0.2501
0.240491
0.231147
0.222069
0.213262
0.204728
0.19647
0.188487
0.18078
0.173345
0.166179
0.159276
0.152627
0.146225
0.140059
0.13412
0.128397
0.12288
0.117557
0.112419
0.107457
0.102661
0.0980246
0.0935402
0.0892019
0.0850049
0.0809451
0.0770191
0.0732244
0.0695591
0.0660213
0.0626101
0.059324
0.0561624
0.0531239
0.0502077
0.0474121
0.0447361
0.0421772
0.0397341
0.0374037
0.0351844
0.0330723
0.0310655
0.0291596
0.0273527
0.0256397
0.0240189
0.0224845
0.0210353
0.019665
0.0183727
0.0171517
0.0160021
0.0149162
0.0138953
0.012931
0.0120256
0.0111699
0.0103677
0.00960844
0.008898
0.00822411
0.00759502
0.00699653
0.00643955
0.00590758
0.00541458
0.00494137
0.00450537
0.00408442
0.00369977
0.00332585
0.00298828
0.00265751
0.00236371
0.00207458
0.00181903
0.00157718
0.00134587
0.0011597
0.000964197
0.000770581
0.000728617
0.000371934
0.000624093
0.000144312
0.000206419
0.000332041
9.64239e-05
0.000484303
0.000421837
0.00105666
0.000743404
0.000248133
0.00143361
0.00208843
0.00283054
0.00161207
0.00129879
0.00438848
0.00372247
0.00220655
0.000557044
0.00558649
0.00201175
0.00181453
0.400439
0.386028
0.372166
0.358819
0.345954
0.333539
0.321544
0.309938
0.298698
0.287798
0.27722
0.266944
0.256958
0.247253
0.237821
0.228658
0.21976
0.211128
0.202761
0.19466
0.186825
0.179256
0.171951
0.164907
0.15812
0.151586
0.145299
0.13925
0.133432
0.127836
0.122454
0.117275
0.11229
0.10749
0.102866
0.0984073
0.0941065
0.0899554
0.0859467
0.0820739
0.078331
0.074713
0.0712155
0.0678346
0.0645676
0.0614115
0.0583645
0.0554245
0.0525904
0.0498604
0.0472338
0.0447087
0.0422844
0.039959
0.0377317
0.0355999
0.0335629
0.0316175
0.0297631
0.0279955
0.0263143
0.0247148
0.0231966
0.0217543
0.0203881
0.0190916
0.0178658
0.0167033
0.0156064
0.0145662
0.0135865
0.0126571
0.0117833
0.0109534
0.0101748
0.00943383
0.00874041
0.00807856
0.00746118
0.00686954
0.00631996
0.0057906
0.00530168
0.00482783
0.0043937
0.00396992
0.00358616
0.00320842
0.00287169
0.0025385
0.00224339
0.0019606
0.00169333
0.00146988
0.00124226
0.00101521
0.000946926
0.000557174
0.000797339
0.000276578
0.000339728
0.000396641
3.66397e-05
0.000457407
0.000373771
0.00106831
0.00073383
0.000252138
0.00144477
0.00212771
0.00291834
0.00166249
0.00127696
0.00436075
0.00396325
0.00224806
0.000457823
0.0055117
0.00195381
0.00166964
0.39721
0.382764
0.368871
0.3555
0.34262
0.330204
0.318221
0.306647
0.295457
0.284628
0.27414
0.263973
0.254113
0.244546
0.235262
0.226253
0.217512
0.209035
0.20082
0.192864
0.185166
0.177724
0.170538
0.163603
0.156918
0.150479
0.14428
0.138316
0.132581
0.127069
0.121771
0.116681
0.111789
0.107088
0.102568
0.0982227
0.0940421
0.0900182
0.0861433
0.0824096
0.07881
0.0753377
0.0719868
0.0687515
0.065627
0.0626086
0.0596929
0.0568761
0.0541558
0.051529
0.0489942
0.0465489
0.0441923
0.041922
0.0397376
0.0376368
0.0356195
0.0336828
0.0318271
0.0300489
0.0283489
0.0267228
0.0251717
0.0236904
0.0222804
0.0209357
0.0196587
0.0184418
0.0172886
0.0161902
0.0151516
0.0141622
0.0132287
0.0123384
0.0115005
0.0106999
0.00994846
0.00922839
0.00855488
0.00790682
0.00730327
0.00671943
0.0061788
0.00565241
0.00516883
0.00469439
0.00426343
0.00383692
0.00345534
0.00307539
0.00273807
0.00241085
0.00210446
0.0018395
0.00157621
0.00131177
0.00121192
0.000787724
0.00100687
0.000447173
0.000503162
0.000523678
0.000120541
0.000495744
0.000338526
0.00108195
0.000707747
0.000247517
0.00143353
0.00214513
0.00297599
0.00169388
0.00122568
0.00425069
0.00420439
0.0023699
0.00053858
0.00542931
0.00187152
0.00145769
0.39419
0.379723
0.365811
0.352427
0.339541
0.327127
0.315159
0.303612
0.292463
0.281691
0.271274
0.261194
0.251435
0.241981
0.23282
0.223942
0.215337
0.206997
0.198918
0.191095
0.183524
0.176203
0.169129
0.162299
0.15571
0.149359
0.14324
0.137351
0.131686
0.126238
0.121003
0.115973
0.111142
0.106502
0.102047
0.0977689
0.0936603
0.0897137
0.0859216
0.0822765
0.0787715
0.0753993
0.0721535
0.0690273
0.0660152
0.0631112
0.0603105
0.057608
0.0549999
0.0524819
0.0500511
0.047704
0.0454386
0.0432517
0.0411425
0.0391078
0.0371475
0.0352584
0.0334411
0.0316921
0.0300126
0.0283985
0.0268516
0.025367
0.0239472
0.0225863
0.0212878
0.0200443
0.0188606
0.0177276
0.0166517
0.0156218
0.0146462
0.0137115
0.0128285
0.0119809
0.0111827
0.0104142
0.00969315
0.00899599
0.00834488
0.00771177
0.0071239
0.00654834
0.00601809
0.00549471
0.00501782
0.00454275
0.00411619
0.00368835
0.00330743
0.0029334
0.00258548
0.00227557
0.00197325
0.00166791
0.0015311
0.00107101
0.00126016
0.000662387
0.000704369
0.00068492
0.000275738
0.000615837
0.000403504
0.00112568
0.000715031
0.000282705
0.00139338
0.00217029
0.0030288
0.00170608
0.00115881
0.00407218
0.00444344
0.00248004
0.000623608
0.00527546
0.00177754
0.00119383
0.391356
0.376879
0.362959
0.34957
0.336685
0.324278
0.312325
0.300803
0.289689
0.278964
0.268606
0.258597
0.24892
0.23956
0.230501
0.221733
0.213243
0.205023
0.197065
0.189361
0.181908
0.174699
0.167732
0.161003
0.154507
0.148241
0.142202
0.136384
0.130784
0.125396
0.120216
0.115237
0.110453
0.10586
0.101449
0.0972153
0.0931519
0.089252
0.0855091
0.0819166
0.0784679
0.0751563
0.0719757
0.0689195
0.065982
0.0631569
0.060439
0.0578225
0.055303
0.0528752
0.0505354
0.0482787
0.0461026
0.0440025
0.0419769
0.0400215
0.0381356
0.0363152
0.0345606
0.0328675
0.0312372
0.0296652
0.0281536
0.026697
0.0252988
0.0239526
0.022663
0.0214221
0.0202361
0.0190951
0.0180074
0.0169606
0.0159654
0.0150068
0.014098
0.0132208
0.0123921
0.0115898
0.0108347
0.0101004
0.0094126
0.00873971
0.00811319
0.00749568
0.00692523
0.00635805
0.00583971
0.00531923
0.00485029
0.00437585
0.00395206
0.00353081
0.00314039
0.00278356
0.00243964
0.00209082
0.00191204
0.0014147
0.00156538
0.000929242
0.000951502
0.000886131
0.000470945
0.00076728
0.00048718
0.00124344
0.000807675
0.000395844
0.00137251
0.00217568
0.00304959
0.00177955
0.00115378
0.00386894
0.00472012
0.00258993
0.000706205
0.005073
0.00168571
0.000903982
0.388688
0.37421
0.36029
0.346902
0.334024
0.321628
0.309692
0.298194
0.287112
0.276427
0.266119
0.256169
0.246561
0.237277
0.228305
0.219629
0.211238
0.203121
0.195268
0.187672
0.180324
0.173219
0.166352
0.159718
0.153312
0.14713
0.141168
0.135422
0.129887
0.124558
0.119432
0.114501
0.109763
0.10521
0.100837
0.0966384
0.0926086
0.0887415
0.0850312
0.0814717
0.0780571
0.0747814
0.0716389
0.0686237
0.0657303
0.0629529
0.0602864
0.0577251
0.0552644
0.0528988
0.0506244
0.0484358
0.0463299
0.0443014
0.0423481
0.040465
0.0386509
0.0369005
0.0352139
0.0335858
0.0320173
0.0305027
0.0290445
0.0276362
0.0262817
0.0249736
0.0237173
0.0225038
0.0213407
0.0202169
0.0191422
0.0181031
0.0171119
0.0161522
0.0152395
0.0143537
0.0135143
0.0126967
0.0119251
0.0111699
0.0104607
0.009762
0.00910983
0.00846201
0.00786211
0.00726047
0.0067092
0.00615038
0.00564526
0.00512902
0.00466615
0.00420032
0.00376877
0.00336556
0.00297907
0.00258589
0.00236134
0.00182578
0.00193095
0.00125499
0.00125346
0.00113406
0.000714065
0.000955921
0.00059373
0.0014039
0.000940372
0.000553909
0.00143856
0.00224312
0.00304533
0.00186192
0.00113994
0.00369961
0.00509041
0.00270566
0.000783073
0.0048519
0.0016056
0.000940851
0.386171
0.371697
0.357783
0.344404
0.331536
0.319154
0.307237
0.295763
0.284711
0.274062
0.263797
0.253898
0.244347
0.235129
0.226228
0.21763
0.209324
0.201295
0.193535
0.186032
0.17878
0.171769
0.164994
0.15845
0.152129
0.146028
0.140142
0.134466
0.128996
0.123726
0.118654
0.113773
0.109078
0.104566
0.10023
0.0960645
0.0920653
0.0882264
0.0845425
0.081008
0.0776177
0.074366
0.0712477
0.0682573
0.06539
0.0626402
0.0600033
0.057474
0.055048
0.0527198
0.0504859
0.0483407
0.0462812
0.0443019
0.0424004
0.0405712
0.0388129
0.0371196
0.0354912
0.0339213
0.0324111
0.0309537
0.0295516
0.0281974
0.0268951
0.025636
0.0244262
0.0232554
0.022132
0.0210435
0.0200011
0.0189894
0.0180228
0.0170827
0.0161871
0.0153132
0.0144836
0.0136707
0.0129023
0.012145
0.0114327
0.0107255
0.0100644
0.00940186
0.00878744
0.008165
0.00759367
0.00700804
0.00647727
0.00592848
0.00543431
0.00493076
0.00446283
0.00401747
0.00359021
0.00315439
0.0028829
0.00230892
0.00236438
0.00164612
0.00161924
0.00143598
0.00101356
0.001189
0.000728705
0.00159256
0.0011001
0.000745191
0.00154793
0.00235303
0.00314589
0.00208239
0.00110938
0.00348877
0.00546397
0.00282607
0.000852426
0.0046407
0.00153858
0.00137513
0.383787
0.369324
0.355421
0.342054
0.329201
0.316837
0.30494
0.29349
0.282466
0.271851
0.261624
0.251769
0.242268
0.233106
0.224266
0.215736
0.207501
0.199549
0.191868
0.184448
0.17728
0.170354
0.163664
0.157201
0.150961
0.144937
0.139123
0.133516
0.12811
0.1229
0.117881
0.11305
0.108401
0.10393
0.099631
0.0954996
0.0915309
0.0877197
0.0840609
0.0805495
0.0771804
0.0739484