/*--------------------------------*- C++ -*----------------------------------*\
| =========                 |                                                 |
| \\      /  F ield         | OpenFOAM: The Open Source CFD Toolbox           |
|  \\    /   O peration     | Version:  2412                                  |
|   \\  /    A nd           | Website:  www.openfoam.com                      |
|    \\/     M anipulation  |                                                 |
\*---------------------------------------------------------------------------*/
FoamFile
{
    version     2.0;
    format      ascii;
    arch        "LSB;label=32;scalar=64";
    class       surfaceScalarField;
    location    "1.645";
    object      phi;
}
// * * * * * * * * * * * * * * * * * * * * * * * * * * * * * * * * * * * * * //

dimensions      [0 3 -1 0 0 0 0];

oriented        oriented;

internalField   nonuniform List<scalar> 
24930
(
0.0179843
0.0127743
-0.0307635
0.0106101
0.00737417
0.00695446
0.00365565
0.00517607
0.00177838
0.00420285
0.000973209
0.00357926
0.00062358
0.00313288
0.00044638
0.00279306
0.00033981
0.00252365
0.000269401
0.00230357
0.000220082
0.00211963
0.000183935
0.0019631
0.000156529
0.00182792
0.00013518
0.00170974
0.000118183
0.00160534
0.0001044
0.00151229
9.30479e-05
0.00142873
8.35706e-05
0.00135317
7.55651e-05
0.00128444
6.87329e-05
0.00122159
6.28483e-05
0.00116386
5.77385e-05
0.0011106
5.32689e-05
0.00106127
4.93334e-05
0.00101543
4.58476e-05
0.000972695
4.27435e-05
0.000932736
3.99657e-05
0.000895273
3.74688e-05
0.000860064
3.52152e-05
0.000826896
3.31737e-05
0.000795584
3.13179e-05
0.000765963
2.96258e-05
0.000737889
2.80784e-05
0.000711233
2.66598e-05
0.00068588
2.53559e-05
0.000661728
2.4155e-05
0.000638683
2.30466e-05
0.000616663
2.20221e-05
0.00059559
2.10732e-05
0.000575397
2.01938e-05
0.00055602
1.93769e-05
0.0005374
1.86186e-05
0.000519486
1.79125e-05
0.000502228
1.72566e-05
0.000485581
1.66446e-05
0.000469502
1.60764e-05
0.000453954
1.55452e-05
0.000438898
1.50532e-05
0.000424303
1.45921e-05
0.000410132
1.41673e-05
0.000396361
1.37683e-05
0.000382954
1.34043e-05
0.00036989
1.30608e-05
0.000357136
1.2752e-05
0.000344675
1.24581e-05
0.000332473
1.21999e-05
0.000320521
1.19504e-05
0.000308781
1.17394e-05
0.00029725
1.153e-05
0.000285885
1.13642e-05
0.000274693
1.11913e-05
0.000263623
1.10695e-05
0.000252693
1.09299e-05
0.000241841
1.08519e-05
0.000231099
1.07417e-05
0.000220392
1.07071e-05
0.000209771
1.06206e-05
0.000199142
1.06283e-05
0.000188582
1.05594e-05
0.000177972
1.06097e-05
0.000167419
1.05517e-05
0.000156774
1.06451e-05
0.000146186
1.05876e-05
0.000135464
1.07221e-05
0.000124815
1.06496e-05
0.000113996
1.08205e-05
0.000103285
1.07125e-05
9.23728e-05
1.09144e-05
8.16272e-05
1.07477e-05
7.06528e-05
1.09766e-05
5.99299e-05
1.07249e-05
4.89553e-05
1.09763e-05
3.83474e-05
1.0609e-05
2.74727e-05
1.08754e-05
1.71113e-05
1.03615e-05
6.49304e-06
1.06175e-05
-3.47833e-06
9.97044e-06
-1.36845e-05
1.02048e-05
-2.30132e-05
9.32646e-06
-3.26311e-05
9.61667e-06
-4.11989e-05
8.56644e-06
-4.99036e-05
8.70271e-06
-5.77357e-05
7.83199e-06
-6.53337e-05
7.5964e-06
-7.14855e-05
6.14322e-06
-8.04424e-05
8.96142e-06
-8.05487e-05
9.62174e-08
-9.50184e-05
1.44604e-05
-8.72288e-05
-7.73482e-06
-0.000102192
1.49638e-05
-0.000111688
9.51017e-06
-8.70707e-05
-2.46161e-05
-0.000126305
3.92285e-05
-9.63692e-05
-2.99408e-05
-0.000148997
5.26333e-05
-7.71529e-05
-7.18583e-05
-0.000190577
0.000113447
-0.000140622
-5.01094e-05
-4.24173e-05
-9.8258e-05
-0.000415088
0.000372696
4.36531e-05
-0.000458749
-0.000342592
0.000386248
-0.000311195
-3.12943e-05
0.000279673
-0.000590928
-0.00128377
0.00156352
-0.0003184
-0.000965385
-0.000126252
-0.000192296
-0.00119222
0.00106601
0.000447439
-0.0016397
0.0002681
0.000179361
0.00082633
0.0337072
0.0163476
-0.0372804
0.0277616
0.0133197
0.0222009
0.00921634
0.0179206
0.00605865
0.0148703
0.00402349
0.0127071
0.00278683
0.0111181
0.00203534
0.0098997
0.00155822
0.00893145
0.00123763
0.00814033
0.0010112
0.00747949
0.000844769
0.0069176
0.000718421
0.00643283
0.000619943
0.00600951
0.000541513
0.005636
0.000477909
0.00530353
0.000425526
0.0050053
0.000381805
0.00473599
0.000344887
0.00449134
0.000313392
0.00426792
0.000286279
0.00406292
0.000262747
0.00387403
0.000242175
0.0036993
0.000224071
0.00353712
0.000208045
0.00338609
0.000193783
0.00324505
0.000181026
0.00311296
0.000169567
0.00298896
0.000159229
0.00287227
0.00014987
0.00276224
0.000141366
0.00265826
0.000133617
0.00255981
0.000126533
0.00246644
0.000120042
0.00237772
0.000114078
0.00229329
0.000108587
0.00221282
0.000103522
0.00213601
9.88411e-05
0.00206257
9.45075e-05
0.00199228
9.04914e-05
0.00192489
8.67629e-05
0.00186021
8.33006e-05
0.00179804
8.00789e-05
0.00173821
7.70841e-05
0.00168055
7.42925e-05
0.00162493
7.16972e-05
0.00157119
6.92744e-05
0.00151922
6.70248e-05
0.00146888
6.49224e-05
0.00142006
6.29772e-05
0.00137267
6.11581e-05
0.00132658
5.94861e-05
0.00128171
5.79205e-05
0.00123797
5.64955e-05
0.00119526
5.51565e-05
0.0011535
5.39563e-05
0.00111263
5.28213e-05
0.00107253
5.18295e-05
0.00103318
5.08811e-05
0.000994456
5.00864e-05
0.000956336
4.93097e-05
0.0009187
4.87046e-05
0.000881542
4.80871e-05
0.000844726
4.76676e-05
0.000808272
4.71949e-05
0.000772024
4.69547e-05
0.000736038
4.66061e-05
0.000700128
4.65376e-05
0.000664395
4.62914e-05
0.000628613
4.63913e-05
0.00059294
4.62245e-05
0.000557097
4.64873e-05
0.000521321
4.63627e-05
0.000485272
4.67715e-05
0.00044929
4.66325e-05
0.000412953
4.71582e-05
0.000376737
4.69298e-05
0.000340116
4.75377e-05
0.000303732
4.71344e-05
0.00026692
4.77913e-05
0.000230531
4.71171e-05
0.000193726
4.77837e-05
0.000157613
4.67242e-05
0.000121144
4.73467e-05
8.57273e-05
4.57793e-05
5.00755e-05
4.62703e-05
1.58932e-05
4.41526e-05
-1.83279e-05
4.44254e-05
-5.06819e-05
4.16801e-05
-8.295e-05
4.18829e-05
-0.000112874
3.84894e-05
-0.000142009
3.78369e-05
-0.000169881
3.57005e-05
-0.000194485
3.21981e-05
-0.000218558
3.02205e-05
-0.00024487
3.52619e-05
-0.000251686
6.92171e-06
-0.000295417
5.81941e-05
-0.000271569
-3.16446e-05
-0.000330618
7.40139e-05
-0.000339933
1.88022e-05
-0.000290161
-7.43989e-05
-0.000389634
0.000138705
-0.000319858
-9.97301e-05
-0.000457174
0.000189943
-0.000261051
-0.000267971
-0.000624002
0.000476368
-0.000406144
-0.000267821
-0.000196864
-0.000307502
-0.00120071
0.00137652
0.000101145
-0.00176058
-0.00117185
0.00165925
-0.000829285
-0.000373939
0.000691138
-0.00211132
-0.00374208
0.00599671
-0.000862759
-0.00384466
-0.000713203
-0.000341644
-0.00341772
0.00377054
0.00160427
-0.00666165
0.00071963
0.00106397
0.00342722
0.0414813
0.0160462
-0.0411799
0.0391858
0.0156151
0.0352492
0.013153
0.030956
0.0103518
0.0270354
0.00794417
0.0237417
0.00608046
0.0210638
0.00471328
0.0188923
0.00372964
0.0171126
0.00301739
0.0156317
0.00249208
0.0143806
0.00209583
0.013309
0.00179007
0.0123798
0.00154915
0.0115655
0.0013558
0.0108453
0.00119811
0.0102031
0.00106769
0.00962645
0.000958483
0.00910531
0.000866038
0.00863169
0.000787021
0.00819908
0.000718895
0.00780214
0.000659699
0.00743643
0.000607902
0.00709822
0.000562288
0.00678439
0.000521889
0.00649227
0.00048592
0.00621957
0.000453741
0.00596432
0.000424827
0.00572482
0.000398741
0.00549958
0.000375122
0.0052873
0.000353661
0.00508682
0.000334103
0.00489714
0.000316226
0.00471734
0.000299845
0.00454663
0.000284796
0.00438428
0.000270942
0.00422964
0.000258161
0.00408214
0.000246352
0.00394123
0.000235419
0.00380643
0.000225287
0.00367731
0.000215881
0.00355347
0.000207146
0.00343452
0.000199019
0.00332014
0.000191462
0.00321001
0.00018442
0.00310383
0.000177868
0.00300135
0.000171755
0.00290229
0.000166071
0.00280644
0.000160766
0.00271357
0.000155846
0.00262346
0.000151254
0.00253593
0.000147018
0.00245078
0.000143063
0.00236782
0.000139442
0.00228692
0.000136058
0.00220787
0.000132995
0.00213056
0.000130126
0.00205481
0.00012758
0.00198051
0.000125183
0.00190747
0.000123122
0.00183561
0.000121163
0.00176475
0.000119565
0.00169483
0.000118014
0.00162563
0.000116865
0.00155713
0.000115689
0.00148912
0.00011497
0.0014216
0.000114125
0.00135432
0.000113814
0.00128736
0.000113253
0.00122041
0.000113336
0.00115362
0.000113011
0.00108664
0.000113467
0.00101971
0.000113296
0.000952406
0.000114076
0.000885105
0.000113935
0.000817306
0.000114959
0.000749556
0.000114682
0.000681242
0.000115855
0.000613128
0.000115252
0.000544447
0.000116476
0.000476235
0.000115333
0.000407529
0.000116493
0.00033971
0.000114547
0.000271563
0.000115496
0.000204888
0.000112455
0.000138146
0.000113013
7.36202e-05
0.000108678
9.4977e-06
0.000108546
-5.18713e-05
0.000103047
-0.000112435
0.000102444
-0.000169464
9.55156e-05
-0.000224268
9.26397e-05
-0.000277753
8.91833e-05
-0.000323735
7.81761e-05
-0.000371511
7.79964e-05
-0.000418215
8.19605e-05
-0.000437062
2.57663e-05
-0.000513689
0.00013482
-0.000474992
-7.03529e-05
-0.000588386
0.000187408
-0.00059053
2.09189e-05
-0.000525324
-0.000139614
-0.00068565
0.000299032
-0.000577476
-0.000207913
-0.000799863
0.000412323
-0.000484572
-0.00058326
-0.00111626
0.00110805
-0.000698141
-0.000685956
-0.00042162
-0.000584009
-0.00202035
0.00297522
0.000133281
-0.00391421
-0.00215336
0.00394591
-0.00134028
-0.00118703
0.00104133
-0.00449291
-0.0062649
0.0133029
-0.00137799
-0.00873157
-0.00169024
-2.97327e-05
-0.0056404
0.00772069
0.00315799
-0.0154601
0.00108832
0.00313363
0.00797777
0.0459452
0.0147482
-0.0446472
0.0460252
0.0155351
0.0444419
0.0147363
0.0417126
0.013081
0.0384632
0.0111936
0.0351527
0.00939088
0.0320493
0.00781673
0.0292673
0.00651157
0.0268258
0.00545894
0.0246985
0.00461938
0.0228442
0.00395013
0.0212209
0.00341337
0.0197913
0.00297875
0.0185241
0.00262295
0.0173938
0.00232847
0.0163793
0.00208214
0.0154638
0.00187405
0.0146331
0.00169667
0.013876
0.0015442
0.0131827
0.00141215
0.0125455
0.00129698
0.0119575
0.00119589
0.0114131
0.00110664
0.0109076
0.00102743
0.0104368
0.000956782
0.00999704
0.000893483
0.00958534
0.000836534
0.00919899
0.000785102
0.00883564
0.000738489
0.0084932
0.000696106
0.00816986
0.000657454
0.00786399
0.000622106
0.00757415
0.000589698
0.00729904
0.000559915
0.0070375
0.000532486
0.00678849
0.000507175
0.00655107
0.000483779
0.00632437
0.000462116
0.00610762
0.000442033
0.00590012
0.000423388
0.0057012
0.000406065
0.00551026
0.000389948
0.00532677
0.000374953
0.00515021
0.000360979
0.0049801
0.00034797
0.00481601
0.000335835
0.00465753
0.000324543
0.00450429
0.000314004
0.00435591
0.000304219
0.00421206
0.000295091
0.00407242
0.000286652
0.0039367
0.000278782
0.00380458
0.000271552
0.00367582
0.00026481
0.00355014
0.000258675
0.00342731
0.000252953
0.00330706
0.000247828
0.00318919
0.000243043
0.00307345
0.000238865
0.00295966
0.00023495
0.00284755
0.000231672
0.00273699
0.000228571
0.0026277
0.000226162
0.00251957
0.000223813
0.00241231
0.000222231
0.00230588
0.000220555
0.00219994
0.000219753
0.00209452
0.00021867
0.00198924
0.000218618
0.00188421
0.000218041
0.00177898
0.000218692
0.0016738
0.000218477
0.00156815
0.000219726
0.00146244
0.00021965
0.00135606
0.000221339
0.00124964
0.000221105
0.00114245
0.00022304
0.0010354
0.000222305
0.000927601
0.000224283
0.000820286
0.000222652
0.000712355
0.000224428
0.000605488
0.000221417
0.000498302
0.000222685
0.000393013
0.000217745
0.000287853
0.000218174
0.000185681
0.000210849
8.4216e-05
0.00021001
-1.311e-05
0.000200372
-0.000108932
0.000198263
-0.000199905
0.000186486
-0.000287033
0.000179766
-0.000372523
0.000174671
-0.000445919
0.000151568
-0.000523448
0.000155525
-0.000595646
0.000154152
-0.000631829
6.19445e-05
-0.000746563
0.000249553
-0.000696028
-0.000120898
-0.000871974
0.000363354
-0.000864074
1.3062e-05
-0.000791139
-0.000212557
-0.00101651
0.000524403
-0.000867637
-0.000356796
-0.00118056
0.000725234
-0.000749865
-0.00101394
-0.00166325
0.00202142
-0.00102498
-0.00132424
-0.000720977
-0.000887986
-0.00287491
0.00512913
0.000132186
-0.0069213
-0.00327956
0.00735767
-0.0018593
-0.0026073
0.00132081
-0.007673
-0.0088084
0.0234322
-0.00187961
-0.0156604
-0.0031134
0.00120442
-0.00781162
0.0124189
0.00515335
-0.028425
0.00136308
0.00692392
0.0146137
0.0494123
0.013555
-0.0482191
0.0503742
0.0145732
0.0503897
0.0147207
0.049364
0.0141067
0.0475149
0.0130427
0.0451353
0.0117705
0.0424972
0.0104548
0.0398073
0.0092014
0.0372008
0.00806548
0.0347521
0.00706804
0.0324936
0.00620869
0.030431
0.00547593
0.028556
0.00485375
0.0268535
0.00432543
0.0253064
0.00387557
0.0238977
0.00349084
0.0226117
0.00316007
0.0214343
0.0028741
0.0203531
0.00262545
0.0193572
0.00240805
0.0184372
0.00221696
0.017585
0.00204813
0.0167934
0.00189826
0.0160562
0.00176462
0.015368
0.00164495
0.0147242
0.00153736
0.0141204
0.00144028
0.0135532
0.00135239
0.0130191
0.00127255
0.0125154
0.00119982
0.0120395
0.00113338
0.0115891
0.00107253
0.0111621
0.00101667
0.0107568
0.00096527
0.0103714
0.000917889
0.0100044
0.000874126
0.00965459
0.00083364
0.00932058
0.000796127
0.00900129
0.000761325
0.00869568
0.000728995
0.00840281
0.000698938
0.00812179
0.000670959
0.00785183
0.000644911
0.00759218
0.000620628
0.00734214
0.000598006
0.00710107
0.000576896
0.00686837
0.000557237
0.00664348
0.000538886
0.00642586
0.000521829
0.00621503
0.000505916
0.00601049
0.000491179
0.00581183
0.000477442
0.00561859
0.000464787
0.00543039
0.000453
0.00524683
0.000442231
0.00506757
0.000432211
0.00489221
0.00042318
0.00472047
0.000414785
0.00455195
0.00040738
0.0043864
0.000400495
0.00422344
0.000394634
0.00406284
0.000389165
0.00390422
0.000384785
0.0037474
0.000380631
0.00359197
0.000377659
0.00343784
0.000374692
0.00328454
0.000373049
0.00313206
0.000371145
0.00297991
0.000370774
0.00282815
0.000369795
0.00267623
0.000370609
0.00252438
0.000370325
0.00237196
0.000372146
0.00221941
0.000372201
0.002066
0.000374755
0.00191243
0.000374673
0.00175785
0.000377626
0.00160331
0.000376854
0.00144774
0.000379849
0.00129266
0.00037774
0.00113676
0.000380335
0.000982087
0.000376091
0.00082703
0.000377744
0.000674327
0.00037045
0.0005219
0.000370602
0.000373322
0.000359427
0.000225836
0.000357494
8.39369e-05
0.000342269
-5.56581e-05
0.000337856
-0.00018894
0.000319765
-0.00031654
0.000307363
-0.000441838
0.000299966
-0.00055016
0.000259885
-0.000664796
0.000270161
-0.000768948
0.000258298
-0.000829071
0.000122063
-0.000988105
0.000408585
-0.000930341
-0.000178672
-0.00117743
0.000610446
-0.00115797
-6.39026e-06
-0.00108657
-0.000283965
-0.0013809
0.000818734
-0.00118958
-0.000548123
-0.00160001
0.00113565
-0.00105791
-0.00155603
-0.00226309
0.00322659
-0.00139201
-0.00219535
-0.0010994
-0.00118057
-0.00376056
0.00779026
8.98734e-05
-0.0107717
-0.00454211
0.0119897
-0.00240039
-0.00474905
0.00151158
-0.0115849
-0.0113144
0.0362581
-0.00237772
-0.0245971
-0.00502378
0.00385041
-0.00990175
0.0172968
0.00758233
-0.0459091
0.00155076
0.0129555
0.0234202
0.0528715
0.0126579
-0.0519744
0.0538986
0.0135461
0.0545807
0.0140386
0.0546473
0.01404
0.0540457
0.0136443
0.0528453
0.012971
0.0511753
0.0121248
0.0491824
0.0111943
0.0470014
0.0102464
0.0447431
0.0093263
0.0424899
0.00846188
0.040298
0.00766789
0.0382019
0.00694985
0.0362201
0.00630717
0.0343601
0.00573558
0.032622
0.00522894
0.0310017
0.00478039
0.0294927
0.00438311
0.0280875
0.0040307
0.0267781
0.00371742
0.0255569
0.00343818
0.0244165
0.00318855
0.0233501
0.00296472
0.0223513
0.00276342
0.0214144
0.00258183
0.0205342
0.00241754
0.0197061
0.00226848
0.0189256
0.00213287
0.018189
0.00200918
0.0174927
0.00189608
0.0168337
0.00179242
0.016209
0.00169722
0.0156161
0.00160959
0.0150526
0.00152879
0.0145163
0.00145415
0.0140054
0.00138508
0.013518
0.00132108
0.0130524
0.00126169
0.0126072
0.00120652
0.012181
0.0011552
0.0117725
0.00110743
0.0113805
0.00106292
0.011004
0.00102144
0.0106419
0.000982739
0.0102932
0.000946646
0.00995719
0.000912941
0.0096329
0.00088152
0.00931961
0.000852174
0.00901656
0.000824862
0.0087231
0.000799372
0.00843855
0.000775725
0.0081623
0.000753679
0.00789376
0.000733325
0.00763238
0.000714371
0.0073776
0.000697002
0.00712896
0.000680855
0.0068859
0.000666235
0.00664801
0.000652673
0.00641476
0.000640625
0.00618578
0.000629469
0.00596056
0.000619859
0.00573876
0.000610963
0.00551985
0.000603688
0.00530358
0.000596898
0.0050894
0.00059184
0.00487713
0.000586965
0.00466617
0.000584005
0.00445645
0.000580866
0.00424731
0.000579912
0.0040388
0.000578307
0.00383019
0.000579216
0.00362171
0.000578802
0.00341256
0.000581298
0.00320321
0.000581547
0.00299276
0.000585207
0.00278202
0.000585413
0.00256994
0.000589717
0.00235775
0.000589048
0.00214418
0.000593419
0.00193104
0.00059089
0.00171676
0.000594618
0.00150385
0.000589004
0.00129038
0.000591211
0.00107973
0.0005811
0.000869438
0.0005809
0.000663921
0.000564944
0.000459878
0.000561536
0.000262981
0.000539163
6.92113e-05
0.000531624
-0.000116397
0.000505371
-0.000294359
0.000485323
-0.000469017
0.000474621
-0.000621516
0.00041238
-0.000782226
0.00043087
-0.000926396
0.000402461
-0.00101873
0.000214391
-0.00122946
0.000619316
-0.00117094
-0.000237199
-0.00149823
0.000937731
-0.00146743
-3.7217e-05
-0.0014088
-0.000342605
-0.00177525
0.00118518
-0.00154141
-0.000781973
-0.00205733
0.00165156
-0.00140806
-0.00220529
-0.00291222
0.00473073
-0.0018029
-0.00330469
-0.00155959
-0.00142385
-0.00467367
0.0109043
-5.9323e-06
-0.0154397
-0.00592417
0.0179081
-0.00297642
-0.00769682
0.00159
-0.0161513
-0.0137282
0.0515762
-0.00287942
-0.0354458
-0.00742937
0.00840045
-0.0119249
0.0217923
0.0103621
-0.0681961
0.00167447
0.0216432
0.0344173
0.0565926
0.0119716
-0.0559064
0.0574451
0.0126936
0.0582405
0.0132433
0.0587656
0.0135149
0.0588984
0.0135115
0.0585928
0.0132766
0.0578582
0.0128594
0.0567424
0.01231
0.055314
0.0116748
0.0536486
0.0109917
0.0518196
0.0102909
0.0498925
0.009595
0.047922
0.00892035
0.0459512
0.00827796
0.0440122
0.00767459
0.0421275
0.00711365
0.0403118
0.0065961
0.0385737
0.00612116
0.0369175
0.00568689
0.0353443
0.00529069
0.0338528
0.00492963
0.0324407
0.00460067
0.0311046
0.00430085
0.0298407
0.00402738
0.0286449
0.00377766
0.0275131
0.00354932
0.0264414
0.00334022
0.0254258
0.00314844
0.0244627
0.00297226
0.0235487
0.00281016
0.0226803
0.00266076
0.0218547
0.00252285
0.0210689
0.00239537
0.0203204
0.00227735
0.0196066
0.00216794
0.0189253
0.00206638
0.0182744
0.001972
0.0176519
0.0018842
0.0170559
0.00180243
0.0164849
0.00172622
0.0159372
0.00165514
0.0154113
0.00158879
0.0149059
0.00152685
0.0144197
0.00146896
0.0139515
0.0014149
0.0135
0.00136435
0.0130644
0.00131715
0.0126435
0.00127303
0.0122365
0.0012319
0.0118424
0.00119348
0.0114603
0.00115777
0.0110895
0.00112446
0.0107292
0.00109364
0.0103787
0.00106493
0.0100371
0.00103855
0.00970393
0.00101402
0.00937843
0.000991736
0.00906002
0.000971078
0.00874802
0.000952622
0.00844192
0.000935569
0.00814103
0.000920748
0.0078449
0.000907087
0.00755285
0.000895744
0.00726449
0.000885255
0.00697911
0.000877217
0.00669644
0.000869637
0.00641571
0.000864734
0.00613676
0.000859815
0.00585875
0.000857915
0.00558169
0.000855372
0.00530464
0.000856264
0.00502782
0.000855617
0.00475022
0.0008589
0.00447236
0.000859409
0.0041931
0.000864472
0.00391337
0.000865139
0.00363187
0.000871222
0.00335006
0.000870859
0.00306638
0.000877104
0.002783
0.000874284
0.00249801
0.00087961
0.00221447
0.000872548
0.00193005
0.000875629
0.0016489
0.000862254
0.00136805
0.000861754
0.00109297
0.000840024
0.000819673
0.000834832
0.000555239
0.000803595
0.000294555
0.000792305
4.45216e-05
0.000755401
-0.000195697
0.000725539
-0.00043148
0.0007104
-0.000639496
0.000620391
-0.000857286
0.00064866
-0.00105151
0.000596676
-0.00118635
0.000349223
-0.0014577
0.000890672
-0.00140712
-0.000287797
-0.00182446
0.00135508
-0.00178468
-7.70496e-05
-0.00175229
-0.000375001
-0.00219323
0.00162613
-0.00191942
-0.0010558
-0.00254947
0.00228159
-0.00179734
-0.00295741
-0.00360546
0.00653883
-0.00225932
-0.00465085
-0.00210101
-0.00158213
-0.00561286
0.0144161
-0.000127701
-0.0209248
-0.0074024
0.0251829
-0.00360009
-0.0114992
0.00152933
-0.0212807
-0.0160157
0.0691212
-0.00338183
-0.0480796
-0.0102731
0.0152918
-0.0139508
0.02547
0.0133117
-0.0954587
0.00177415
0.0331808
0.0475411
0.0605988
0.011409
-0.0600362
0.0612824
0.01201
0.0619961
0.0125296
0.062617
0.012894
0.0630475
0.013081
0.0632236
0.0131004
0.0631097
0.0129733
0.0626953
0.0127245
0.0619905
0.0123796
0.06102
0.0119622
0.0598184
0.0114926
0.0584252
0.0109882
0.0568818
0.0104637
0.0552284
0.00993138
0.0535019
0.00940108
0.0517348
0.00888072
0.0499545
0.0083764
0.0481832
0.00789252
0.046438
0.00743207
0.0447319
0.00699683
0.043074
0.00658754
0.0414704
0.00620422
0.039925
0.00584629
0.0384396
0.00551279
0.0370148
0.00520251
0.03565
0.00491411
0.0343441
0.00464617
0.0330953
0.00439727
0.0319015
0.00416602
0.0307606
0.00395111
0.0296701
0.00375127
0.0286276
0.00356534
0.0276307
0.00339225
0.0266771
0.00323098
0.0257644
0.00308062
0.0248905
0.00294034
0.0240531
0.00280937
0.0232503
0.002687
0.0224801
0.00257263
0.0217407
0.00246565
0.0210303
0.00236556
0.0203472
0.00227185
0.0196899
0.00218414
0.0190569
0.00210197
0.0184467
0.00202505
0.0178581
0.00195298
0.0172897
0.00188555
0.0167403
0.0018224
0.0162088
0.00176342
0.015694
0.00170823
0.0151949
0.00165685
0.0147105
0.00160884
0.0142398
0.00156433
0.0137819
0.00152282
0.0133359
0.00148458
0.0129009
0.001449
0.0124761
0.00141657
0.0120607
0.0013865
0.0116538
0.00135951
0.0112547
0.00133459
0.0108627
0.00131278
0.0104771
0.00129272
0.010097
0.00127587
0.00972184
0.00126037
0.00935081
0.00124824
0.00898349
0.00123696
0.0086189
0.00122932
0.00825679
0.00122193
0.00789608
0.00121862
0.00753672
0.00121473
0.00717753
0.00121545
0.00681872
0.00121443
0.00645899
0.00121863
0.00609893
0.00121947
0.00573709
0.00122631
0.00537456
0.00122767
0.00500968
0.0012361
0.0046442
0.00123634
0.00427618
0.00124513
0.00390821
0.00124226
0.00353796
0.00124987
0.00316913
0.00124137
0.0027989
0.00124587
0.00243231
0.00122884
0.00206578
0.00122829
0.00170604
0.00119977
0.00134825
0.00119262
0.0010012
0.00115065
0.000658571
0.00113493
0.000329546
0.00108442
1.30224e-05
0.00104206
-0.000299221
0.00102264
-0.000576494
0.000897659
-0.000864962
0.000937127
-0.00112162
0.00085333
-0.00131179
0.00053939
-0.00165461
0.00123349
-0.00162325
-0.00031917
-0.00214159
0.00187342
-0.00209797
-0.000120656
-0.00210765
-0.000365328
-0.00262494
0.00214342
-0.00231731
-0.00136344
-0.00307028
0.00303455
-0.0022198
-0.00380789
-0.00433522
0.00865424
-0.00275967
-0.00622642
-0.00271896
-0.00162279
-0.00657866
0.0182757
-0.000309894
-0.0271936
-0.00894794
0.0338209
-0.00428011
-0.016167
0.00130342
-0.0268642
-0.0181692
0.0885937
-0.00387443
-0.0623744
-0.0134163
0.0248338
-0.0160802
0.0281338
0.0161591
-0.127698
0.00190474
0.0474353
0.062617
0.0648839
0.0109248
-0.0643998
0.0654487
0.0114452
0.0660555
0.0119228
0.0666393
0.0123102
0.0671375
0.0125829
0.0675014
0.0127364
0.0676957
0.012779
0.0676964
0.0127238
0.0674902
0.0125857
0.067073
0.0123794
0.0664484
0.0121172
0.0656269
0.0118097
0.0646244
0.0114663
0.0634606
0.0110951
0.0621585
0.0107032
0.060742
0.0102972
0.0592356
0.0098828
0.0576628
0.00946535
0.0560453
0.00904956
0.0544027
0.00863948
0.0527517
0.00823848
0.0511067
0.00784925
0.0494792
0.00747383
0.0478783
0.00711366
0.0463112
0.00676965
0.0447831
0.00644229
0.0432975
0.00613169
0.0418571
0.0058377
0.0404632
0.00555994
0.0391164
0.0052979
0.0378168
0.00505095
0.0365637
0.00481841
0.0353564
0.00459958
0.0341937
0.0043937
0.0330742
0.00420008
0.0319966
0.004018
0.0309591
0.00384679
0.0299604
0.0036858
0.0289985
0.00353444
0.0280721
0.0033921
0.0271794
0.00325828
0.0263188
0.00313245
0.0254887
0.00301417
0.0246877
0.00290296
0.0239143
0.00279849
0.023167
0.0027003
0.0224443
0.00260816
0.0217451
0.00252162
0.0210679
0.00244058
0.0204116
0.00236458
0.0197748
0.00229363
0.0191564
0.00222721
0.0185553
0.00216546
0.0179703
0.00210778
0.0174004
0.00205449
0.0168445
0.00200486
0.0163016
0.00195946
0.0157708
0.00191733
0.0152509
0.00187937
0.0147412
0.0018443
0.0142406
0.00181342
0.0137483
0.00178505
0.0132631
0.00176099
0.0127846
0.00173893
0.0123114
0.00172138
0.0118432
0.0017052
0.0113786
0.0016939
0.0109173
0.0016832
0.010458
0.00167791
0.0100006
0.00167219
0.00954348
0.00167255
0.00908692
0.00167099
0.00862927
0.00167628
0.00817118
0.00167757
0.00771082
0.00168668
0.00724944
0.00168905
0.00678497
0.00170058
0.00631947
0.00170185
0.00585049
0.00171412
0.00538116
0.0017116
0.00490857
0.00172245
0.00443724
0.00171271
0.00396364
0.00171948
0.00349397
0.00169851
0.00302379
0.00169846
0.00256141
0.00166215
0.00210092
0.00165311
0.00165316
0.00159841
0.00121037
0.00157771
0.000784331
0.00151046
0.00037133
0.00145506
-3.34512e-05
0.00142742
-0.000395508
0.00125971
-0.000771721
0.00131334
-0.00110595
0.00118755
-0.00136746
0.000800898
-0.00179496
0.00166098
-0.00179719
-0.000316947
-0.00242909
0.00250532
-0.00239012
-0.000159647
-0.00246025
-0.000295217
-0.00305578
0.00273895
-0.00272509
-0.00169414
-0.00360938
0.00391882
-0.00266567
-0.00475158
-0.00509094
0.0110795
-0.0032978
-0.0080196
-0.00340326
-0.00151731
-0.00757213
0.0224445
-0.00055315
-0.0342125
-0.0105306
0.0437984
-0.00501976
-0.0216778
0.000890682
-0.0327745
-0.0202069
0.109691
-0.00433151
-0.0782498
-0.0166267
0.0371291
-0.0183805
0.0298876
0.0186012
-0.16468
0.00213631
0.0639002
0.0793264
0.0694569
0.0104977
-0.0690297
0.0699399
0.0109622
0.0704597
0.011403
0.0709807
0.0117892
0.0714632
0.0121004
0.0718734
0.0123262
0.0721853
0.012467
0.0723796
0.0125295
0.072442
0.0125233
0.0723626
0.0124588
0.0721344
0.0123455
0.0717535
0.0121906
0.0712193
0.0120005
0.0705341
0.0117803
0.0697033
0.011534
0.0687355
0.011265
0.0676419
0.0109765
0.0664357
0.0106715
0.065132
0.0103532
0.0637468
0.0100248
0.0622959
0.00968934
0.0607952
0.00935002
0.0592593
0.00900975
0.0577017
0.00867122
0.0561346
0.00833682
0.0545683
0.00800859
0.0530118
0.00768823
0.0514724
0.00737706
0.0499563
0.0070761
0.0484681
0.00678608
0.0470116
0.00650747
0.0455895
0.00624052
0.0442037
0.00598532
0.0428557
0.0057418
0.0415459
0.00550982
0.0402748
0.0052891
0.0390423
0.00507937
0.0378478
0.00488025
0.0366909
0.0046914
0.0355705
0.0045124
0.0344859
0.0043429
0.0334359
0.00418245
0.0324194
0.00403072
0.0314351
0.00388727
0.0304817
0.00375181
0.0295581
0.00362391
0.0286629
0.00350335
0.0277948
0.00338969
0.0269526
0.00328283
0.0261349
0.00318228
0.0253404
0.00308808
0.024568
0.00299963
0.0238163
0.00291715
0.0230842
0.00283989
0.0223703
0.00276831
0.0216737
0.00270148
0.020993
0.00264016
0.0203272
0.00258315
0.019675
0.00253158
0.0190354
0.00248389
0.0184071
0.00244168
0.0177893
0.00240288
0.0171805
0.00236973
0.0165801
0.00233938
0.0159865
0.00231495
0.0153992
0.00229253
0.0148166
0.00227651
0.0142382
0.00226155
0.0136625
0.00225368
0.0130891
0.00224559
0.0125162
0.00224542
0.011944
0.00224316
0.0113705
0.0022498
0.0107963
0.00225173
0.0102192
0.00226379
0.00964063
0.00226764
0.00905792
0.00228329
0.00847354
0.00228623
0.00788442
0.00230325
0.0072943
0.00230172
0.00669954
0.00231722
0.0061056
0.00230665
0.00550808
0.002317
0.00491457
0.00229203
0.00431957
0.00229347
0.00373324
0.00224847
0.00314836
0.00223798
0.00257827
0.0021685
0.00201345
0.00214253
0.00146884
0.00205507
0.000938554
0.00198534
0.000422064
0.0019439
-4.5878e-05
0.00172765
-0.000533193
0.00180065
-0.00096302
0.00161737
-0.00131599
0.00115387
-0.00184429
0.00218927
-0.00189815
-0.000263102
-0.00265853
0.0032657
-0.00263656
-0.000181624
-0.00278834
-0.000143442
-0.00346488
0.0034155
-0.00312754
-0.0020315
-0.00415053
0.0049418
-0.00312019
-0.0057819
-0.0058578
0.0138171
-0.0038613
-0.0100161
-0.00413695
-0.00124144
-0.00859231
0.0268998
-0.000858455
-0.0419463
-0.0121216
0.0550616
-0.00581421
-0.0279853
0.000266133
-0.0388548
-0.0221591
0.132116
-0.00470493
-0.095704
-0.0195929
0.0520172
-0.0207923
0.031087
0.0204152
-0.205887
0.00255817
0.0817573
0.0971711
0.074337
0.0101149
-0.0739542
0.0747609
0.0105383
0.075215
0.0109489
0.0756784
0.0113257
0.0761254
0.0116533
0.0765314
0.0119202
0.0768767
0.0121218
0.0771465
0.0122596
0.0773306
0.0123392
0.0774215
0.0123679
0.0774135
0.0123534
0.0773014
0.0123027
0.0770809
0.0122211
0.0767479
0.0121132
0.0762995
0.0119824
0.0757336
0.0118309
0.0750499
0.0116601
0.0742503
0.0114711
0.0733387
0.0112649
0.0723209
0.0110425
0.0712051
0.0108052
0.0700006
0.0105545
0.0687183
0.0102921
0.0673694
0.0100201
0.0659656
0.00974063
0.0645184
0.0094558
0.0630388
0.0091678
0.0615372
0.0088787
0.0600229
0.00859038
0.0585045
0.00830457
0.0569892
0.00802275
0.0554835
0.00774621
0.0539928
0.00747601
0.0525217
0.00721298
0.0510737
0.0069578
0.0496518
0.00671097
0.0482584
0.00647283
0.046895
0.00624362
0.0455629
0.00602347
0.0442629
0.0058124
0.0429954
0.00561042
0.0417605
0.00541739
0.0405579
0.00523324
0.0393875
0.00505773
0.0382485
0.00489078
0.0371403
0.00473207
0.0360621
0.00458154
0.035013
0.00443879
0.033992
0.00430387
0.0329979
0.00417629
0.0320298
0.0040562
0.0310864
0.00394298
0.0301666
0.00383694
0.0292693
0.00373727
0.028393
0.00364456
0.0275367
0.00355775
0.0266991
0.00347778
0.025879
0.00340325
0.025075
0.00333557
0.024286
0.00327285
0.0235106
0.00321709
0.0227478
0.00316575
0.0219959
0.00312163
0.021254
0.00308123
0.0205205
0.00304843
0.0197946
0.00301841
0.0190745
0.00299663
0.0183596
0.00297648
0.0176478
0.00296546
0.0169389
0.0029545
0.0162305
0.00295375
0.015523
0.00295074
0.0148136
0.00295919
0.0141032
0.00296212
0.0133889
0.00297808
0.0126724
0.00298412
0.0119504
0.00300529
0.0112258
0.00301085
0.0104947
0.00303439
0.00976155
0.00303486
0.00902181
0.00305696
0.00828209
0.00304638
0.00753685
0.00306224
0.00679533
0.00303355
0.00605068
0.00303811
0.00531538
0.00298378
0.00458047
0.00297288
0.00386238
0.00288659
0.00314939
0.00285552
0.00246034
0.00274412
0.00178665
0.00265902
0.00113227
0.00259829
0.0005274
0.00233251
-9.27267e-05
0.00242078
-0.000637237
0.00216187
-0.00110744
0.00162407
-0.00175611
0.00283793
-0.00188393
-0.00013529
-0.00279111
0.00417288
-0.00280273
-0.000169993
-0.00306092
0.000114732
-0.00382303
0.00417761
-0.00350209
-0.00235246
-0.00466973
0.00610943
-0.00356199
-0.00688963
-0.00661496
0.01687
-0.00442977
-0.0122013
-0.00489524
-0.000775917
-0.00963216