/*--------------------------------*- C++ -*----------------------------------*\
| =========                 |                                                 |
| \\      /  F ield         | OpenFOAM: The Open Source CFD Toolbox           |
|  \\    /   O peration     | Version:  2412                                  |
|   \\  /    A nd           | Website:  www.openfoam.com                      |
|    \\/     M anipulation  |                                                 |
\*---------------------------------------------------------------------------*/
FoamFile
{
    version     2.0;
    format      ascii;
    arch        "LSB;label=32;scalar=64";
    class       volVectorField;
    location    "0.355";
    object      ddt0(U);
}
// * * * * * * * * * * * * * * * * * * * * * * * * * * * * * * * * * * * * * //

dimensions      [0 1 -2 0 0 0 0];

internalField   nonuniform List<vector> 
12600
(
(-0.224637 2.33945e-20 -0.12538)
(-0.272967 7.97336e-20 -0.0237486)
(-0.232322 1.04341e-19 0.0185686)
(-0.294129 0 0.0112733)
(-0.347298 5.26478e-20 -0.00169326)
(-0.322299 -9.36703e-22 -0.0105156)
(-0.24125 0 -0.00821387)
(-0.130773 0 0.00259525)
(-0.0228306 3.4458e-19 0.0143995)
(0.0495121 0 0.0229329)
(0.0654503 -4.82978e-20 0.0262468)
(0.0254404 1.73741e-20 0.0235286)
(-0.0485198 -5.04329e-20 0.016185)
(-0.121362 0 0.00800388)
(-0.159758 -7.40653e-21 0.00303494)
(-0.147348 0 0.00328902)
(-0.0918262 -3.32955e-19 0.00800687)
(-0.0195505 0 0.0143881)
(0.0386018 1.92413e-19 0.0190771)
(0.0618246 1.39674e-19 0.0197606)
(0.0472725 -6.73662e-20 0.0161587)
(0.00855982 -1.62552e-21 0.00992869)
(-0.0330057 0 0.0036535)
(-0.0592247 -5.41312e-20 -0.000441564)
(-0.0624447 0 -0.00139842)
(-0.0467521 0 0.000277444)
(-0.0235436 8.47925e-20 0.00310518)
(-0.00465131 0 0.0054737)
(0.00326485 1.0117e-21 0.00639411)
(0.000677971 -6.34802e-20 0.00581486)
(-0.00669849 -4.29529e-20 0.00443368)
(-0.011946 -3.28375e-20 0.00318935)
(-0.0106991 3.39267e-20 0.00274041)
(-0.00282602 8.16959e-20 0.00318551)
(0.00833529 9.18611e-20 0.00411837)
(0.0182843 -8.72423e-20 0.00491927)
(0.0237304 0 0.00509209)
(0.0238554 2.91682e-20 0.00448176)
(0.0201381 0 0.00328317)
(0.015145 3.86875e-20 0.00189719)
(0.0111284 0 0.000708435)
(0.00903712 -1.15952e-21 -6.19639e-05)
(0.00841955 0 -0.000432813)
(0.00781814 -1.72692e-21 -0.000559061)
(0.0057484 6.08131e-20 -0.000654654)
(0.00138478 -4.89651e-20 -0.000783252)
(-0.00459456 6.24114e-20 -0.00086102)
(-0.0104658 0 -0.000574168)
(-0.013651 0 0.000284683)
(-0.012717 2.11371e-19 0.00183332)
(-0.00816363 5.50835e-19 0.00371394)
(-0.00384383 6.46538e-19 0.00531303)
(-0.00405391 -8.41727e-22 0.00583365)
(-0.0124795 6.02765e-19 0.00520669)
(-0.0280102 0 0.003846)
(-0.0448858 -1.99138e-19 0.00298688)
(-0.0532619 2.7133e-20 0.00464011)
(-0.0499487 1.53911e-19 0.00889815)
(-0.0350587 0 0.0145751)
(-0.0154581 0 0.0200031)
(-0.00880778 0 0.0207992)
(-0.0184364 2.14702e-19 0.0150935)
(-0.0391702 0 0.00702921)
(-0.0694174 0 -0.00325174)
(-0.0881928 1.64973e-18 -0.0084534)
(-0.0810829 0 -0.00402853)
(-0.0697106 0 0.00390633)
(-0.0461741 0 0.0152197)
(-0.0265802 2.58974e-18 0.0233267)
(-0.0293131 -3.87576e-18 0.022381)
(-0.0377447 -3.22765e-18 0.0161269)
(-0.0520535 -2.51091e-20 0.0079412)
(-0.0685542 4.79144e-19 -0.000240156)
(-0.0848593 0 0.000440873)
(-0.0986728 1.38303e-18 0.00440421)
(-0.111229 0 0.0129108)
(-0.111535 0 0.0270386)
(-0.105034 0 0.0310872)
(-0.0763547 3.84209e-20 0.036783)
(-0.032694 -3.38063e-18 0.0316459)
(-0.0262288 5.83033e-19 0.0127281)
(-0.00974831 -4.51695e-18 -0.00167228)
(-0.0653202 -4.27748e-18 -0.00876159)
(-0.163523 0 0.0112903)
(-0.188685 0 0.0338612)
(-0.103066 -1.78311e-18 0.0392017)
(0.062895 2.43646e-17 0.0261379)
(0.138798 -3.53004e-17 0.00332569)
(0.0104051 -2.2138e-17 -0.00292983)
(-0.155119 0 -0.0105725)
(-0.32032 2.02135e-18 -0.00504684)
(-0.249429 1.35908e-17 0.0023111)
(0.0545627 -1.54286e-17 -0.00109982)
(0.379807 1.43263e-17 -0.00579871)
(0.614906 0 -0.0175954)
(0.395921 0 0.011555)
(-0.226031 0 0.0312865)
(-0.464149 0 -0.0341674)
(-0.331986 0 -0.142278)
(-0.508079 0 -0.0420651)
(-1.05298 -1.64517e-16 0.181913)
(-1.62779 -2.48361e-16 0.43252)
(-1.7956 -4.53957e-17 0.487428)
(-1.43432 0 0.429254)
(-0.999147 0 0.27939)
(-0.932954 0 0.147046)
(-1.21807 1.02294e-16 0.115838)
(-1.53328 -7.44597e-17 0.151858)
(-1.68186 1.33629e-16 0.233878)
(-1.51887 0 0.29007)
(-1.90416 1.9649e-16 0.424578)
(-2.19178 0 0.498666)
(-2.28517 8.26503e-16 0.462698)
(-1.18554 -7.85268e-16 0.215952)
(0.242063 5.6428e-16 -0.0386817)
(1.8486 1.79061e-16 -0.466473)
(3.02259 4.21564e-16 -0.631086)
(3.06983 8.97463e-20 -0.600518)
(1.74571 7.71173e-16 -0.31708)
(-1.35768 0 0.311957)
(-0.688437 -2.36119e-20 -0.286865)
(-0.794805 0 -0.153326)
(-0.777712 -1.056e-19 -0.0444918)
(-0.753359 0 -0.0213556)
(-0.706297 -5.33491e-20 -0.0250994)
(-0.593172 2.77106e-20 -0.0277786)
(-0.443477 6.33083e-20 -0.0122019)
(-0.289732 0 0.0170645)
(-0.159633 -4.19149e-21 0.0434778)
(-0.0768323 1.14059e-19 0.0582368)
(-0.0551649 -3.79122e-20 0.0602284)
(-0.0902978 2.58231e-20 0.0516438)
(-0.157883 -5.54155e-20 0.0372945)
(-0.221822 4.60359e-20 0.0242916)
(-0.249389 1.49996e-20 0.0188219)
(-0.226076 0 0.0227401)
(-0.161776 2.65939e-21 0.0330087)
(-0.0844196 -2.03824e-19 0.0437171)
(-0.0250524 -1.95212e-19 0.049065)
(-0.00310772 0 0.0460164)
(-0.0192088 0 0.0355231)
(-0.057793 -4.02645e-21 0.0217378)
(-0.0967347 0 0.00977481)
(-0.118302 2.72775e-20 0.00333581)
(-0.116095 -7.15077e-21 0.0033462)
(-0.0954592 0 0.00803507)
(-0.0684704 -8.58584e-20 0.0141842)
(-0.046925 0 0.0187968)
(-0.037017 8.72184e-20 0.0203518)
(-0.0377928 1.25494e-19 0.0191198)
(-0.0433418 8.43917e-20 0.0165903)
(-0.0468801 3.32375e-20 0.014454)
(-0.0443648 -3.43305e-20 0.0137222)
(-0.035942 -1.63915e-19 0.0143703)
(-0.0250253 -1.84832e-19 0.0155758)
(-0.0159528 0 0.0162979)
(-0.0117034 0 0.0158341)
(-0.0127711 -3.97347e-22 0.0141148)
(-0.0174514 0 0.0116216)
(-0.0231383 -3.90566e-20 0.00910096)
(-0.0276748 0 0.0071696)
(-0.0303549 -1.23799e-19 0.00612931)
(-0.0318164 0 0.00584244)
(-0.0337778 -8.3865e-20 0.00600384)
(-0.0377296 0 0.00619507)
(-0.0446574 4.93048e-20 0.00633806)
(-0.0535734 0 0.00650486)
(-0.0628211 0 0.00728652)
(-0.0692401 -1.46865e-19 0.0089548)
(-0.0716903 0 0.0118611)
(-0.0702141 0 0.01538)
(-0.0695239 0 0.018749)
(-0.0734566 -6.75681e-19 0.0204578)
(-0.0865849 -1.20571e-18 0.0204593)
(-0.106836 0 0.0190974)
(-0.128902 0 0.0183411)
(-0.141937 -2.28416e-20 0.0209269)
(-0.143228 -1.53903e-19 0.0276505)
(-0.132566 0 0.0365096)
(-0.117065 0 0.0449011)
(-0.115069 0 0.0474057)
(-0.128127 0 0.0398053)
(-0.153119 1.15929e-19 0.0282759)
(-0.184798 1.27834e-19 0.0136029)
(-0.205713 -1.66546e-18 0.00549094)
(-0.197612 0 0.00979748)
(-0.186601 0 0.0216198)
(-0.161292 0 0.0371136)
(-0.141199 -1.784e-20 0.0492404)
(-0.143889 3.83868e-18 0.0502772)
(-0.15116 3.19386e-18 0.042984)
(-0.169842 -4.01197e-18 0.0331364)
(-0.187561 -3.23522e-20 0.0220443)
(-0.215866 -1.1679e-18 0.0240643)
(-0.240176 -1.36335e-18 0.0287337)
(-0.270539 0 0.0412493)
(-0.287452 0 0.0616777)
(-0.284487 0 0.0690346)
(-0.25659 -1.79656e-18 0.0770163)
(-0.169688 0 0.0650102)
(-0.13076 0 0.0378574)
(-0.0717942 4.42079e-18 0.0110611)
(-0.191708 4.18199e-18 0.0143455)
(-0.436828 0 0.0604745)
(-0.548505 0 0.0981213)
(-0.379114 0 0.0876218)
(0.00334676 -2.36792e-17 0.0345423)
(0.18064 4.37064e-20 -0.0019045)
(-0.0972843 -2.14556e-17 0.0162416)
(-0.374567 1.72732e-17 0.0235315)
(-0.648882 -1.80909e-18 0.0466015)
(-0.42701 1.3212e-17 0.0250038)
(0.233501 2.97752e-17 -0.0418843)
(0.842833 0 -0.0880304)
(1.2318 0 -0.119352)
(0.551153 0 0.00980271)
(-0.916157 0 0.166731)
(-1.08731 -3.10478e-18 0.0464793)
(-0.422646 0 -0.173044)
(-1.11305 0 0.0407144)
(-3.1276 -1.57731e-16 0.607782)
(-5.32482 1.18847e-16 1.19197)
(-6.10959 8.63001e-17 1.34526)
(-5.05671 1.63955e-16 1.13751)
(-3.44331 0 0.747499)
(-2.65184 0 0.471332)
(-3.04344 0 0.456447)
(-3.7709 3.55951e-17 0.573759)
(-4.47155 -1.27175e-16 0.769625)
(-4.64078 0 0.903173)
(-6.18622 -3.73484e-16 1.27263)
(-6.82903 -5.33866e-16 1.40996)
(-6.37889 -1.56803e-15 1.23714)
(-2.54072 0 0.449403)
(1.68597 0 -0.346423)
(6.57929 1.67925e-16 -1.42303)
(9.02478 0 -1.78139)
(8.46033 -4.46026e-16 -1.62396)
(4.04362 -7.28316e-16 -0.711028)
(-5.30011 0 1.12711)
(-0.812833 0 -0.31241)
(-0.952474 0 -0.228018)
(-1.03 -9.08616e-20 -0.138264)
(-1.04123 0 -0.105254)
(-0.979606 0 -0.0904703)
(-0.830684 -3.8044e-21 -0.066958)
(-0.638721 -5.99527e-20 -0.0237935)
(-0.450909 0 0.0264882)
(-0.299907 -8.5232e-21 0.0622593)
(-0.205252 -1.08056e-19 0.0749261)
(-0.174593 6.31093e-20 0.069624)
(-0.199492 -2.44674e-20 0.0563225)
(-0.254318 -2.9333e-21 0.0437852)
(-0.304 -4.36228e-20 0.0380066)
(-0.318199 -7.09082e-21 0.0412494)
(-0.284732 -3.69428e-20 0.0513086)
(-0.214614 1.57666e-19 0.0626379)
(-0.13539 1.93153e-19 0.0691132)
(-0.0765504 0 0.0668261)
(-0.0554912 0 0.0556954)
(-0.0711594 -4.91861e-20 0.0393512)
(-0.10732 3.05923e-21 0.0233531)
(-0.142294 0 0.0126407)
(-0.159478 0 0.0095364)
(-0.153598 6.77597e-21 0.0131901)
(-0.130584 0 0.0204845)
(-0.102419 1.60652e-19 0.0277572)
(-0.0803982 -8.77591e-20 0.032422)
(-0.0702385 0 0.0337641)
(-0.0708378 -5.79877e-20 0.0326971)
(-0.0764873 -3.87506e-20 0.0308465)
(-0.0807381 0 0.0295497)
(-0.0797639 2.93583e-20 0.0292715)
(-0.0736553 7.69798e-20 0.029607)
(-0.0655377 1.94064e-21 0.0297366)
(-0.0593649 0 0.0289824)
(-0.0578042 0 0.0271511)
(-0.0612008 -2.75295e-20 0.0245837)
(-0.0678764 0 0.0219115)
(-0.0753823 0 0.0197888)
(-0.0817431 0 0.0185812)
(-0.086433 0 0.0183771)
(-0.0901392 0 0.0188865)
(-0.0946509 0 0.0198388)
(-0.101339 0 0.0208283)
(-0.111279 -3.9529e-20 0.0218831)
(-0.123259 5.15923e-20 0.0228987)
(-0.135853 0 0.0244279)
(-0.145582 1.38948e-19 0.0264416)
(-0.151788 0 0.0294684)
(-0.154077 0 0.0328755)
(-0.157792 -6.04101e-19 0.036616)
(-0.165901 0 0.0392235)
(-0.18357 5.6867e-19 0.0409576)
(-0.207609 -4.05687e-19 0.0414844)
(-0.233693 0 0.0423095)
(-0.250369 2.15908e-20 0.0443526)
(-0.256028 0 0.049082)
(-0.249844 0 0.0549299)
(-0.239017 0 0.0600001)
(-0.240916 -1.53413e-19 0.0633096)
(-0.255646 -2.32447e-19 0.060299)
(-0.281765 2.35639e-21 0.0549109)
(-0.311404 -2.44499e-19 0.0480459)
(-0.332 -8.33214e-21 0.0441233)
(-0.32237 0 0.0433656)
(-0.312254 0 0.0504125)
(-0.286495 2.76009e-19 0.0564887)
(-0.26742 -2.23381e-20 0.0627127)
(-0.26921 0 0.0662014)
(-0.275392 0 0.0646144)
(-0.296614 1.87071e-18 0.0630262)
(-0.31528 -1.90192e-20 0.0585024)
(-0.354667 -2.86053e-21 0.0626869)
(-0.3885 0 0.0640887)
(-0.435265 0 0.0727982)
(-0.465829 1.04123e-19 0.0835449)
(-0.464404 -2.12159e-18 0.0892655)
(-0.434042 0 0.0919291)
(-0.306915 0 0.0734854)
(-0.240091 0 0.0584691)
(-0.151605 0 0.0351767)
(-0.347046 0 0.0702984)
(-0.724203 0 0.134804)
(-0.899992 0 0.162213)
(-0.632244 0 0.1128)
(-0.062808 2.21522e-17 0.0151654)
(0.169209 1.60879e-17 -0.00716478)
(-0.261641 2.01655e-17 0.0639933)
(-0.631814 -1.62312e-17 0.102565)
(-0.980564 1.57691e-18 0.140626)
(-0.589296 -1.24099e-17 0.0539753)
(0.370601 -1.395e-17 -0.104215)
(1.20257 0 -0.204433)
(1.65268 0 -0.235247)
(0.456626 0 0.0287801)
(-1.72903 0 0.37142)
(-1.76668 2.91277e-18 0.234702)
(-0.711562 0 -0.00220322)
(-2.06241 0 0.320132)
(-5.52317 1.47893e-16 1.1536)
(-9.1865 0 1.9229)
(-10.3671 -4.01678e-17 2.10027)
(-8.55027 -1.53644e-16 1.69696)
(-5.85071 0 1.11958)
(-4.45919 0 0.809075)
(-5.01314 0 0.883289)
(-6.13948 3.39219e-17 1.09224)
(-7.3707 0 1.36632)
(-7.87073 -8.13577e-17 1.55759)
(-10.4368 -4.88449e-20 2.11434)
(-11.0386 4.99642e-16 2.18787)
(-9.72276 1.46731e-15 1.76877)
(-2.99902 0 0.386722)
(3.76541 -4.994e-16 -0.909101)
(11.4719 -1.57073e-16 -2.38752)
(14.4718 3.75366e-16 -2.79114)
(12.6197 0 -2.33448)
(4.86966 6.81001e-16 -0.665654)
(-10.2518 0 2.23041)
(-0.828049 0 -0.293978)
(-0.966127 0 -0.255946)
(-1.07658 8.58954e-20 -0.194994)
(-1.12409 0 -0.167559)
(-1.09811 -1.23986e-20 -0.154933)
(-0.979126 -5.1943e-20 -0.123165)
(-0.799278 0 -0.059473)
(-0.608566 1.52924e-19 0.0136146)
(-0.449788 -1.44364e-19 0.0638321)
(-0.347518 -7.96954e-20 0.0795631)
(-0.308149 -2.57109e-20 0.0711026)
(-0.320787 -3.42011e-20 0.0557925)
(-0.359674 5.24329e-20 0.0463893)
(-0.39219 -9.05768e-20 0.0479466)
(-0.39144 0 0.0590752)
(-0.347675 6.48518e-20 0.0741581)
(-0.27227 0 0.0860042)
(-0.191339 0 0.0887918)
(-0.132171 0 0.0803601)
(-0.110152 -9.48983e-20 0.0629527)
(-0.123054 8.33168e-21 0.0421689)
(-0.154569 3.62927e-21 0.0245476)
(-0.183873 2.64423e-20 0.0148591)
(-0.19562 0 0.0143899)
(-0.185574 0 0.0209525)
(-0.16007 0 0.0303929)
(-0.130834 -1.46393e-19 0.0386914)
(-0.108551 5.58814e-21 0.0435715)
(-0.0984177 0 0.0449484)
(-0.0991697 0 0.0442352)
(-0.105287 0 0.0431512)
(-0.110616 0 0.0427335)
(-0.111487 -5.23821e-20 0.0429953)
(-0.107884 0 0.0432196)
(-0.102645 8.04907e-20 0.0425842)
(-0.099398 0 0.0406961)
(-0.100587 0 0.0377593)
(-0.106483 2.68567e-20 0.0344394)
(-0.115475 0 0.0314952)
(-0.125256 0 0.0295407)
(-0.133999 4.57363e-20 0.0287793)
(-0.141307 -9.80258e-20 0.0291761)
(-0.147889 0 0.0303378)
(-0.155585 -6.17786e-20 0.0320429)
(-0.165648 0 0.0338737)
(-0.179234 6.96814e-20 0.0359706)
(-0.194905 -4.82691e-21 0.0380781)
(-0.211452 0 0.0407803)
(-0.225074 0 0.0437512)
(-0.235598 -1.79336e-19 0.0476547)
(-0.242179 -4.74466e-19 0.0516084)
(-0.250838 1.1312e-18 0.0559918)
(-0.263633 0 0.059174)
(-0.286391 5.23241e-19 0.0618574)
(-0.314656 3.82953e-19 0.0633605)
(-0.345175 1.712e-19 0.0654242)
(-0.365448 -2.20092e-20 0.0681299)
(-0.375284 0 0.0730025)
(-0.372866 0 0.0785061)
(-0.366018 -1.46989e-19 0.082544)
(-0.371171 2.97825e-19 0.0856415)
(-0.387711 2.19237e-19 0.0834689)
(-0.414907 1.63081e-21 0.0801161)
(-0.443217 1.16722e-19 0.0755544)
(-0.463475 7.55969e-19 0.0745569)
(-0.451436 0 0.0729996)
(-0.441526 0 0.079211)
(-0.413909 -2.60106e-19 0.0819581)
(-0.395655 -4.47881e-18 0.0854645)
(-0.396769 0 0.0878492)
(-0.403969 -2.74727e-18 0.0867558)
(-0.428375 -1.71104e-18 0.0878553)
(-0.450109 -3.7353e-19 0.085523)
(-0.499651 2.08364e-18 0.0933366)
(-0.541695 0 0.0956018)
(-0.601835 0 0.107023)
(-0.640901 -9.79808e-20 0.115387)
(-0.639121 4.03817e-18 0.119224)
(-0.602366 1.78053e-18 0.117614)
(-0.440285 0 0.0889842)
(-0.356022 0 0.0754532)
(-0.253628 0 0.0562075)
(-0.535108 0 0.121443)
(-1.02302 0 0.209569)
(-1.23721 0 0.228572)
(-0.858857 1.43581e-18 0.141541)
(-0.136031 -4.35447e-20 0.0118094)
(0.105036 -1.50413e-17 0.00620373)
(-0.481205 0 0.122403)
(-0.930342 -1.51328e-17 0.174606)
(-1.32588 -7.21547e-19 0.213459)
(-0.756456 0 0.0676463)
(0.448036 -1.30414e-17 -0.147489)
(1.44521 -1.15458e-17 -0.272846)
(1.86694 0 -0.272893)
(0.113222 0 0.131754)
(-2.68215 0 0.586327)
(-2.5675 2.6054e-18 0.38547)
(-1.28984 0 0.137151)
(-3.40411 0 0.667101)
(-8.23287 1.3855e-16 1.80267)
(-13.1452 -1.03851e-16 2.76013)
(-14.5068 0 2.87784)
(-11.8833 0 2.24982)
(-8.2193 0 1.48656)
(-6.37431 0 1.14428)
(-7.14335 0 1.30808)
(-8.65415 2.09336e-19 1.61146)
(-10.3874 0 1.9793)
(-11.1904 7.61319e-17 2.24359)
(-14.5926 1.63644e-16 2.95646)
(-14.7629 0 2.88357)
(-12.3459 -1.09061e-19 2.14929)
(-2.71037 0 0.15118)
(6.22459 3.60809e-19 -1.55837)
(16.132 0 -3.37815)
(18.9847 -3.50954e-16 -3.67864)
(15.2801 0 -2.74166)
(4.1009 6.36156e-16 -0.247075)
(-16.2254 0 3.54622)
(-0.834257 0 -0.3093)
(-0.948848 0 -0.288495)
(-1.04548 0 -0.235546)
(-1.09548 0 -0.203181)
(-1.09549 1.17043e-20 -0.191409)
(-1.02384 -8.64552e-21 -0.162751)
(-0.891023 0 -0.094616)
(-0.731625 -1.44339e-19 -0.00933627)
(-0.588458 0 0.0527007)
(-0.491922 1.36751e-19 0.0736432)
(-0.451357 0 0.0650508)
(-0.455872 3.22883e-20 0.0495456)
(-0.480591 0 0.0436317)
(-0.496355 8.55189e-20 0.0520311)
(-0.480848 -1.5078e-20 0.0702891)
(-0.427358 -5.01738e-20 0.0898809)
(-0.347344 1.03094e-19 0.102518)
(-0.264747 1.28353e-19 0.10298)
(-0.204145 0 0.0905937)
(-0.179017 8.96101e-20 0.0692272)
(-0.18651 3.60633e-20 0.0457183)
(-0.210832 -1.58413e-20 0.0271843)
(-0.232375 -2.49688e-20 0.0182797)
(-0.237142 0 0.0196414)
(-0.221864 0 0.0282115)
(-0.193152 0 0.0391264)
(-0.162342 6.74098e-20 0.0481154)
(-0.139387 7.30887e-20 0.0531521)
(-0.128849 0 0.0546599)
(-0.129241 0 0.0544519)
(-0.135239 -1.98311e-20 0.0542974)
(-0.141041 0 0.0549362)
(-0.143181 4.06272e-21 0.0559483)
(-0.141552 5.56942e-20 0.0563078)
(-0.138697 -6.865e-20 0.0551679)
(-0.137912 0 0.0523775)
(-0.141444 0 0.0484945)
(-0.149525 -2.53479e-20 0.0444879)
(-0.160636 0 0.0412536)
(-0.172621 0 0.0394057)
(-0.183781 -4.31596e-20 0.0390272)
(-0.193828 9.24976e-20 0.0399953)
(-0.203473 0 0.0418164)
(-0.21459 5.8287e-20 0.0443144)
(-0.228307 0 0.0470334)
(-0.245867 -3.05036e-20 0.05023)
(-0.265595 -4.14214e-20 0.0534991)
(-0.286524 0 0.0575076)
(-0.304503 -1.09687e-19 0.0616402)
(-0.319861 1.69124e-19 0.0667266)
(-0.331226 8.81856e-19 0.0715483)
(-0.34532 -5.28748e-19 0.076841)
(-0.363191 5.39738e-19 0.0806778)
(-0.391431 -1.13754e-20 0.0842584)
(-0.424195 0 0.0865794)
(-0.459484 -1.61363e-19 0.0898448)
(-0.483456 2.07425e-20 0.093518)
(-0.497584 -1.2146e-19 0.0991282)
(-0.498659 1.47239e-19 0.104979)
(-0.495541 1.38485e-19 0.10863)
(-0.503356 -1.44238e-19 0.111313)
(-0.521513 2.16409e-19 0.108872)
(-0.549383 -1.00871e-19 0.106053)
(-0.576465 0 0.101746)
(-0.596288 0 0.102471)
(-0.581735 7.95685e-19 0.100259)
(-0.571924 0 0.106486)
(-0.542064 0 0.107435)
(-0.524949 2.10185e-18 0.109549)
(-0.52518 0 0.110794)
(-0.534638 2.58476e-18 0.109785)
(-0.561968 3.19983e-18 0.112554)
(-0.587974 0 0.11188)
(-0.646436 -9.82201e-19 0.123834)
(-0.69586 0 0.12761)
(-0.766842 0 0.142894)
(-0.810941 1.42279e-19 0.149698)
(-0.80734 -1.9193e-18 0.151241)
(-0.762342 2.57615e-20 0.144158)
(-0.571753 0 0.105192)
(-0.479333 0 0.0930993)
(-0.377196 0 0.0817585)
(-0.748742 -3.49954e-18 0.180115)
(-1.32546 3.83086e-18 0.286078)
(-1.55747 0 0.28863)
(-1.06652 -2.66576e-18 0.160642)
(-0.231051 -9.6921e-18 0.00804494)
(-0.0174412 2.82169e-17 0.0351871)
(-0.754138 1.76502e-17 0.195059)
(-1.26552 2.83421e-17 0.252821)
(-1.68521 0 0.281979)
(-0.946665 0 0.0757887)
(0.437633 1.22284e-17 -0.182234)
(1.53687 1.08243e-17 -0.309937)
(1.84287 2.01215e-17 -0.24717)
(-0.486383 0 0.316451)
(-3.77809 0 0.83535)
(-3.52318 -2.44109e-18 0.54169)
(-2.18464 6.35886e-17 0.329613)
(-5.13744 0 1.15699)
(-11.2282 -1.29755e-16 2.56796)
(-17.1631 9.72453e-17 3.62788)
(-18.5024 0 3.62176)
(-15.0651 0 2.74497)
(-10.5648 0 1.8275)
(-8.39911 0 1.49484)
(-9.41116 0 1.76322)
(-11.2898 -2.99041e-17 2.16089)
(-13.4995 0 2.61741)
(-14.5593 0 2.9504)
(-18.5926 0 3.76794)
(-17.9843 -4.37164e-16 3.45249)
(-14.3418 -6.41601e-16 2.34479)
(-1.89766 0 -0.264713)
(8.75547 4.36282e-16 -2.29795)
(20.2036 0 -4.31502)
(22.2914 -3.28527e-16 -4.29243)
(16.3073 0 -2.74768)
(1.74158 -5.94511e-16 0.595615)
(-23.1477 0 5.10894)
(-0.836845 -1.41766e-20 -0.329899)
(-0.92823 -2.42793e-20 -0.312583)
(-1.00017 1.91073e-20 -0.26029)
(-1.0353 5.05545e-21 -0.218291)
(-1.03953 0 -0.199735)
(-0.999515 3.55067e-20 -0.173527)
(-0.9141 0 -0.111265)
(-0.798986 -1.15548e-19 -0.0282552)
(-0.687248 -8.91165e-20 0.0357231)
(-0.609773 -1.01771e-19 0.0586875)
(-0.578803 -4.75139e-21 0.0502858)
(-0.584536 4.09403e-20 0.0350916)
(-0.602925 0 0.0322965)
(-0.60784 0 0.0469002)
(-0.581748 1.42153e-20 0.0720505)
(-0.521649 6.74571e-21 0.0964638)
(-0.439432 -1.842e-20 0.110802)
(-0.356618 -2.0743e-20 0.110564)
(-0.294717 0 0.0964576)
(-0.265356 0 0.0735036)
(-0.265582 0 0.049168)
(-0.280754 2.14557e-20 0.0307347)
(-0.292868 2.29722e-20 0.0227112)
(-0.289366 0 0.0253876)
(-0.267876 0 0.0352624)
(-0.235204 -3.44985e-20 0.0470912)
(-0.202226 0 0.0564835)
(-0.178066 0 0.0616353)
(-0.166524 0 0.0633881)
(-0.165772 0 0.063875)
(-0.170675 7.10705e-21 0.0648732)
(-0.175891 0 0.0668101)
(-0.17831 4.72139e-21 0.0688237)
(-0.17782 -5.25001e-20 0.0695638)
(-0.176663 5.18149e-21 0.068137)
(-0.177754 0 0.0646128)
(-0.183104 0 0.0598852)
(-0.192907 0 0.0552241)
(-0.205752 0 0.0516728)
(-0.219648 0 0.0498752)
(-0.233027 0 0.0498194)
(-0.245703 0 0.0513207)
(-0.258367 -5.88071e-20 0.0537818)
(-0.272932 -3.91199e-20 0.0570726)
(-0.290376 0 0.0606739)
(-0.312049 -1.51522e-20 0.0649652)
(-0.336023 0 0.0693819)
(-0.361613 0 0.074718)
(-0.384272 1.99032e-19 0.080069)
(-0.40487 0 0.0864751)
(-0.421386 -4.09141e-19 0.092327)
(-0.441304 0 0.0987042)
(-0.464529 -1.00125e-18 0.103275)
(-0.498575 -1.38128e-20 0.107768)
(-0.536035 0 0.110822)
(-0.576385 0 0.115233)
(-0.604139 0 0.1199)
(-0.62269 2.30382e-19 0.126423)
(-0.627023 -2.76188e-19 0.1328)
(-0.627457 -1.24179e-19 0.136267)
(-0.637376 1.4531e-19 0.138421)
(-0.656882 -4.0995e-19 0.135231)
(-0.684937 -9.6284e-20 0.132282)
(-0.71067 0 0.127372)
(-0.729817 0 0.129218)
(-0.71264 -4.7113e-23 0.126276)
(-0.702859 0 0.132882)
(-0.670543 0 0.132675)
(-0.654949 1.9611e-18 0.134229)
(-0.65404 0 0.134652)
(-0.666729 0 0.134007)
(-0.69645 -2.97072e-18 0.138153)
(-0.727581 2.85999e-19 0.138921)
(-0.793462 0 0.154737)
(-0.849416 0 0.159601)
(-0.928565 0 0.178309)
(-0.974897 -1.33621e-19 0.18308)
(-0.968325 0 0.182005)
(-0.91467 -3.21173e-18 0.169066)
(-0.70305 2.73453e-18 0.121374)
(-0.611753 0 0.113053)
(-0.522275 0 0.113878)
(-0.982557 3.28392e-18 0.246928)
(-1.62488 -4.70613e-21 0.363826)
(-1.85889 2.75753e-18 0.341525)
(-1.26268 1.23623e-18 0.171227)
(-0.35876 -9.02476e-18 0.00844716)
(-0.201823 -1.32239e-17 0.0802353)
(-1.07897 -1.65487e-17 0.281661)
(-1.63666 -5.5153e-20 0.337903)
(-2.06579 0 0.349788)
(-1.18254 -1.02999e-17 0.084289)
(0.312914 0 -0.200823)
(1.44554 0 -0.310044)
(1.55356 -1.88501e-17 -0.156397)
(-1.34634 0 0.571858)
(-5.02563 0 1.11926)
(-4.6735 0 0.724692)
(-3.42573 -5.95388e-17 0.600361)
(-7.28776 0 1.66666)
(-14.4777 -1.21211e-16 3.41554)
(-21.1826 0 4.52558)
(-22.3231 0 4.31725)
(-18.0962 0 3.18447)
(-12.8918 0 2.14487)
(-10.5255 0 1.86211)
(-11.7843 7.31455e-17 2.2464)
(-14.0122 -2.84008e-17 2.73868)
(-16.6692 9.77043e-17 3.27697)
(-17.9207 0 3.6688)
(-22.3774 0 4.53736)
(-20.7067 8.17345e-16 3.8986)
(-15.8299 0 2.38225)
(-0.800403 -5.67645e-16 -0.797157)
(11.0785 0 -3.02955)
(23.3913 -1.26937e-16 -5.0768)
(24.1954 3.07003e-16 -4.59987)
(15.6775 0 -2.37746)
(-2.08978 -5.54637e-16 1.82673)
(-30.8808 0 6.88655)
(-0.830169 1.33508e-20 -0.333736)
(-0.902773 2.11446e-20 -0.315391)
(-0.954168 -1.79988e-20 -0.265356)
(-0.975457 -1.62815e-20 -0.216862)
(-0.975129 -2.66175e-20 -0.188196)
(-0.949206 0 -0.160913)
(-0.895681 0 -0.108641)
(-0.818407 1.08806e-19 -0.0384147)
(-0.738821 1.5092e-19 0.0173245)
(-0.683982 1.36064e-20 0.0372026)
(-0.667486 4.47355e-21 0.0280139)
(-0.681287 -3.85471e-20 0.0129409)
(-0.702151 5.22668e-20 0.0120368)
(-0.705455 0 0.0311684)
(-0.676848 0 0.0623464)
(-0.616542 1.3118e-20 0.0918985)
(-0.537152 -1.30357e-19 0.109102)
(-0.457953 -1.68299e-19 0.109895)
(-0.397196 0 0.096228)
(-0.36457 0 0.0739974)
(-0.357383 0 0.0508377)
(-0.362778 2.59842e-21 0.0337868)
(-0.364852 -4.23368e-20 0.0270792)
(-0.352625 1.32124e-20 0.0308664)
(-0.324544 -3.05696e-21 0.0415886)
(-0.28752 6.33827e-20 0.0539485)
(-0.251961 -4.56635e-20 0.0635732)
(-0.22616 -4.42154e-20 0.0688574)
(-0.213078 -3.1079e-20 0.0709845)
(-0.210406 0 0.0723548)
(-0.213116 1.09109e-20 0.0747409)
(-0.216431 -1.32746e-21 0.0782584)
(-0.217831 1.25788e-20 0.0815845)
(-0.217389 3.45384e-20 0.0830046)
(-0.21709 1.06285e-19 0.0815397)
(-0.219389 0 0.0774604)
(-0.225971 0 0.0719948)
(-0.236941 2.58027e-20 0.0667231)
(-0.251009 0 0.0628478)
(-0.266372 1.41402e-20 0.061065)
(-0.281604 2.50206e-20 0.0612829)
(-0.296629 0 0.0632775)
(-0.312103 9.95679e-20 0.0663442)
(-0.32999 3.68143e-20 0.0704083)
(-0.351083 0 0.0748645)
(-0.376878 1.42576e-20 0.0802301)
(-0.405154 1.57338e-20 0.0857616)
(-0.435586 0 0.0924214)
(-0.463152 -1.71168e-19 0.0989969)
(-0.489329 1.2763e-19 0.106791)
(-0.51129 3.51045e-19 0.113748)
(-0.53739 0 0.121322)
(-0.566216 1.7911e-20 0.126675)
(-0.606419 -8.11274e-19 0.132115)
(-0.648796 0 0.135845)
(-0.694559 0 0.141357)
(-0.726226 -3.18076e-20 0.146955)
(-0.749406 -1.09121e-19 0.154412)
(-0.756861 2.57911e-19 0.161302)
(-0.760794 1.16731e-19 0.164605)
(-0.772401 -1.36583e-19 0.166131)
(-0.793065 1.93936e-19 0.161954)
(-0.820901 1.8088e-19 0.15861)
(-0.845123 0 0.15274)
(-0.863362 0 0.155482)
(-0.843453 -1.4048e-18 0.15172)
(-0.833691 0 0.158875)
(-0.798788 0 0.157698)
(-0.785132 -1.84189e-18 0.159157)
(-0.782821 0 0.158939)
(-0.799535 2.23252e-18 0.158975)
(-0.83093 1.76641e-20 0.164444)
(-0.86769 -2.68498e-19 0.166585)
(-0.939162 0 0.185989)
(-1.0006 0 0.191371)
(-1.08503 0 0.21287)
(-1.13137 -1.4616e-19 0.214709)
(-1.12114 0 0.210594)
(-1.05996 1.51656e-18 0.191581)
(-0.835661 -5.13087e-18 0.136975)
(-0.754612 0 0.135554)
(-0.687674 0 0.152982)
(-1.23031 0 0.32169)
(-1.91518 -6.82457e-21 0.442438)
(-2.14116 -2.58511e-18 0.387414)
(-1.45607 1.11684e-18 0.175257)
(-0.528875 8.45838e-18 0.0149337)
(-0.448959 -1.23682e-17 0.142532)
(-1.45298 0 0.383276)
(-2.04419 -1.23727e-17 0.431387)
(-2.47829 0 0.420207)
(-1.48842 9.64752e-18 0.098077)
(0.0474655 0 -0.198424)
(1.14077 0 -0.265815)
(0.979768 0 0.00636946)
(-2.46437 3.6612e-17 0.901951)
(-6.4366 2.50595e-17 1.43915)
(-6.05681 0 0.953302)
(-5.04293 5.55712e-17 0.961165)
(-9.79779 -1.05635e-16 2.45044)
(-17.9267 1.13414e-16 4.32686)
(-25.1453 -8.45468e-17 5.43037)
(-25.9407 0 4.9542)
(-20.9782 0 3.56307)
(-15.1954 0 2.43662)
(-12.7304 0 2.24254)
(-14.213 -6.83975e-17 2.74919)
(-16.7691 -2.56522e-19 3.33592)
(-19.8383 -1.82673e-16 3.94603)
(-21.2041 0 4.3815)
(-25.8973 0 5.2461)
(-22.9655 -3.81935e-16 4.21822)
(-16.9538 0 2.28602)
(0.333161 5.30466e-16 -1.40484)
(12.9394 0 -3.72083)
(25.4803 2.36657e-16 -5.64981)
(24.6401 0 -4.571)
(13.533 0 -1.61907)
(-7.12685 5.18118e-16 3.40037)
(-39.2083 0 8.82988)
(-0.813527 0 -0.313947)
(-0.868587 1.623e-21 -0.29297)
(-0.904976 0 -0.248106)
(-0.920093 1.08375e-20 -0.199944)
(-0.918244 5.3152e-20 -0.165215)
(-0.898877 0 -0.137125)
(-0.863266 -3.92561e-20 -0.0964303)
(-0.811693 0 -0.0442281)
(-0.757051 -1.65228e-20 -0.00298076)
(-0.720574 4.03772e-20 0.0102853)
(-0.715564 0 0.000136838)
(-0.736517 0 -0.014148)
(-0.762548 -4.91597e-20 -0.0140143)
(-0.770344 0 0.00729408)
(-0.746793 0 0.0423534)
(-0.693491 0 0.0763286)
(-0.623199 5.28386e-20 0.0970349)
(-0.55308 6.94872e-20 0.100256)
(-0.498072 4.38716e-20 0.0888118)
(-0.46562 0 0.0692642)
(-0.45321 0 0.0491231)
(-0.450155 -1.33612e-20 0.034811)
(-0.443182 1.94744e-20 0.0300623)
(-0.423137 -1.24267e-20 0.0349757)
(-0.389203 2.87502e-21 0.0462674)
(-0.348256 -5.70883e-20 0.0589268)
(-0.310232 4.57162e-21 0.0687472)
(-0.282702 4.15844e-20 0.0742825)
(-0.267855 2.92293e-20 0.0769595)
(-0.262801 0 0.0793973)
(-0.262451 0 0.0833898)
(-0.262571 1.24841e-21 0.0887876)
(-0.261476 0 0.0938066)
(-0.259746 -3.24795e-20 0.0963054)
(-0.259274 -4.72472e-20 0.0951439)
(-0.262014 4.72687e-20 0.0907556)
(-0.269187 0 0.0847017)
(-0.280714 -2.42617e-20 0.0788948)
(-0.295398 -7.68815e-21 0.0747125)
(-0.311652 -5.33223e-21 0.0729263)
(-0.328212 -4.08891e-20 0.073374)
(-0.345142 0 0.0758163)
(-0.363045 -4.15748e-20 0.0794363)
(-0.383962 0 0.0842326)
(-0.40846 0 0.0894901)
(-0.438237 0 0.0958901)
(-0.47072 -9.82644e-21 0.102481)
(-0.506053 0 0.110442)
(-0.538624 7.62348e-20 0.118215)
(-0.57064 -2.29306e-19 0.127426)
(-0.598249 -3.29882e-19 0.135512)
(-0.630858 0 0.144354)
(-0.6655 4.18881e-19 0.150508)
(-0.71226 7.28516e-19 0.15693)
(-0.759821 0 0.161281)
(-0.811453 0 0.167861)
(-0.847244 2.98785e-20 0.174304)
(-0.875388 1.06904e-19 0.182671)
(-0.885971 -1.20721e-19 0.19)
(-0.893541 -1.05527e-19 0.193103)
(-0.906646 0 0.193902)
(-0.928464 0 0.188551)
(-0.955887 -3.08702e-22 0.18466)
(-0.978518 -9.37491e-20 0.17759)
(-0.995749 0 0.18113)
(-0.973006 6.58797e-19 0.17646)
(-0.963357 0 0.184315)
(-0.925723 0 0.182243)
(-0.914442 0 0.183971)
(-0.910399 0 0.183228)
(-0.931773 -1.79229e-20 0.184229)
(-0.96398 1.77632e-20 0.191024)
(-1.00654 2.22644e-19 0.194471)
(-1.08158 0 0.217225)
(-1.14727 -9.4234e-19 0.222532)
(-1.23407 0 0.246216)
(-1.27866 1.37054e-19 0.24429)
(-1.26462 -1.64938e-18 0.236866)
(-1.19836 1.46118e-18 0.211985)
(-0.970173 2.40516e-18 0.152499)
(-0.9081 0 0.161192)
(-0.870738 3.04079e-18 0.198849)
(-1.48538 0 0.402779)
(-2.19121 -3.14717e-18 0.520416)
(-2.40527 -2.44976e-18 0.426702)
(-1.65543 -1.04625e-18 0.175928)
(-0.748264 0 0.0305244)
(-0.757404 2.31519e-17 0.222191)
(-1.87311 0 0.499027)
(-2.49027 -1.14564e-17 0.533326)
(-2.9357 0 0.49643)
(-1.88779 9.05808e-18 0.123898)
(-0.382464 0 -0.167419)
(0.595549 8.50857e-18 -0.169086)
(0.109296 1.66256e-17 0.244716)
(-3.83637 -3.42615e-17 1.30279)
(-8.02402 -2.34482e-17 1.80205)
(-7.71054 0 1.2307)
(-7.03988 -1.03848e-16 1.40138)
(-12.7395 1.97343e-16 2.97919)
(-21.5216 0 5.31415)
(-28.9941 7.90716e-17 6.31876)
(-29.3289 0 5.52387)
(-23.7076 0 3.87947)
(-17.4574 2.05246e-16 2.69965)
(-14.9722 0 2.6286)
(-16.6267 0 3.25895)
(-19.4848 2.50614e-17 3.94)
(-22.9224 1.70694e-16 4.60899)
(-24.3232 5.78344e-17 5.07038)
(-29.1089 0 5.8811)
(-24.8182 0 4.41848)
(-17.8606 0 2.08234)
(1.28436 0 -2.04054)
(14.1625 -3.53612e-16 -4.31616)
(26.4023 -1.10282e-16 -5.97611)
(23.7193 0 -4.2202)
(10.1727 0 -0.54406)
(-12.9484 0 5.2366)
(-47.8371 0 10.8831)
(-0.788409 -3.11554e-20 -0.271959)
(-0.827234 0 -0.248845)
(-0.85436 -2.02739e-20 -0.212459)
(-0.869401 0 -0.171724)
(-0.871513 -2.642e-20 -0.138964)
(-0.858314 0 -0.114116)
(-0.833503 3.68961e-20 -0.0857441)
(-0.798312 -4.73232e-20 -0.0523976)
(-0.76103 -7.2985e-20 -0.0272264)
(-0.737065 -8.13154e-21 -0.0214695)
(-0.737659 0 -0.0316585)
(-0.759839 0 -0.0434897)
(-0.787006 0 -0.0419229)
(-0.79879 0 -0.0201323)
(-0.782906 0 0.0161889)
(-0.740633 0 0.0527895)
(-0.683686 -2.34553e-20 0.076678)
(-0.627002 3.30434e-20 0.0830314)
(-0.582362 -4.1222e-20 0.0749228)
(-0.554659 0 0.0592942)
(-0.54101 0 0.0434143)
(-0.532691 1.46948e-20 0.0328933)
(-0.519321 1.47212e-20 0.0307134)
(-0.49386 6.75907e-21 0.0368444)
(-0.456192 0 0.0484955)
(-0.412941 2.63335e-20 0.0612748)
(-0.373469 6.86118e-20 0.0713233)
(-0.344754 -2.66513e-20 0.077312)
(-0.32845 0 0.0807697)
(-0.32116 0 0.0844489)
(-0.317518 0 0.0902073)
(-0.313596 1.06147e-20 0.0977449)
(-0.308637 0 0.104872)
(-0.304119 0 0.108954)
(-0.302215 -3.22473e-20 0.108563)
(-0.304472 -4.44045e-20 0.104214)
(-0.311527 0 0.0977855)
(-0.322956 -2.60628e-20 0.0915571)