/*--------------------------------*- C++ -*----------------------------------*\
| =========                 |                                                 |
| \\      /  F ield         | OpenFOAM: The Open Source CFD Toolbox           |
|  \\    /   O peration     | Version:  2412                                  |
|   \\  /    A nd           | Website:  www.openfoam.com                      |
|    \\/     M anipulation  |                                                 |
\*---------------------------------------------------------------------------*/
FoamFile
{
    version     2.0;
    format      ascii;
    arch        "LSB;label=32;scalar=64";
    class       volVectorField;
    location    "1.005";
    object      ddt0(U);
}
// * * * * * * * * * * * * * * * * * * * * * * * * * * * * * * * * * * * * * //

dimensions      [0 1 -2 0 0 0 0];

internalField   nonuniform List<vector> 
12600
(
(-5.0662 0 3.35518)
(0.0479121 -1.18264e-17 0.472236)
(-0.490718 -9.59475e-18 -0.00583999)
(1.33068 0 1.05559)
(-0.223122 4.19456e-19 0.780336)
(-6.36124 0 -1.65104)
(-8.49757 -3.42769e-18 -2.49538)
(1.73001 0 1.87587)
(14.9605 0 7.39912)
(8.0886 0 3.59537)
(-16.1884 0 -6.37869)
(-22.7989 -3.18824e-17 -8.41777)
(7.29984 -5.1802e-18 4.16299)
(36.3187 0 14.9005)
(13.1868 -6.53709e-17 4.38309)
(-41.068 0 -15.9696)
(-45.5898 1.81186e-17 -15.0869)
(24.324 0 11.0879)
(85.515 -1.92641e-16 30.1257)
(35.0862 0 8.21585)
(-113.808 0 -52.6625)
(-150.783 0 -42.8612)
(104.087 1.47915e-15 106.03)
(339.666 1.20937e-15 164.709)
(13.7338 3.02088e-16 -133.612)
(-286.29 -7.15737e-16 -229.048)
(-109.438 0 -50.4845)
(43.9467 0 26.5665)
(-20.3156 0 -13.1817)
(-42.6907 -4.72227e-18 -14.2173)
(16.7334 -3.7517e-16 12.5451)
(33.0964 0 12.1228)
(-4.20213 0 -5.92532)
(-22.7081 7.99163e-17 -9.84017)
(-3.37373 -3.33144e-17 0.588922)
(13.6342 0 5.98527)
(6.39227 0 1.16774)
(-6.68589 5.10818e-17 -3.80129)
(-6.30323 0 -2.20765)
(1.84563 1.3082e-19 1.36256)
(4.4092 -2.11133e-17 1.77853)
(0.422171 -3.51496e-18 -0.023084)
(-2.53912 0 -0.8663)
(-1.28623 -1.43287e-17 -0.198501)
(0.936328 -8.56475e-18 0.485648)
(1.10302 -6.11359e-18 0.359634)
(-0.0722113 1.65772e-17 -0.0854338)
(-0.616593 0 -0.240279)
(-0.162305 -1.21207e-17 -0.121561)
(0.361485 1.39548e-17 -0.0266902)
(0.382634 0 -0.0630309)
(0.157955 8.08149e-22 -0.14028)
(0.0998638 -6.02794e-18 -0.176108)
(0.265621 0 -0.188051)
(0.479411 -1.82404e-20 -0.225614)
(0.637381 0 -0.280231)
(0.776532 0 -0.302422)
(0.949767 3.28495e-20 -0.307487)
(1.15001 7.67424e-20 -0.359932)
(1.37853 3.83404e-17 -0.426962)
(1.59085 -5.51125e-17 -0.502464)
(1.73114 1.35919e-16 -0.573219)
(1.78848 0 -0.604295)
(1.74143 1.18465e-16 -0.581268)
(1.53497 6.84472e-17 -0.47359)
(1.07585 -1.68733e-17 -0.264311)
(0.34923 -4.69946e-17 0.0581297)
(-0.554613 0 0.487032)
(-1.45673 0 0.9413)
(-2.19148 0 1.26989)
(-2.68134 0 1.32949)
(-2.85332 0 1.1179)
(-2.74734 2.27579e-16 0.896914)
(-2.40702 -1.74447e-16 0.774864)
(-2.21187 0 0.755905)
(-2.34652 0 0.45821)
(-2.33146 1.6601e-17 0.162742)
(-1.48215 -7.67379e-19 -0.234895)
(0.615361 3.47727e-16 -1.05009)
(2.82517 0 -2.13306)
(4.22704 0 -2.81584)
(4.85513 0 -3.30178)
(5.2336 -1.29422e-18 -3.02107)
(4.66537 0 -2.10977)
(2.97758 0 -0.936698)
(1.64226 -1.93922e-16 -0.13199)
(-0.158232 -1.86498e-20 0.666968)
(-0.696255 0 0.927222)
(-1.53733 0 1.19548)
(-1.16812 -1.13918e-16 0.774666)
(-1.27225 -1.00398e-16 0.454207)
(3.18002 -2.28475e-16 -2.35843)
(5.98881 -1.23899e-16 -3.71959)
(2.4546 -1.75494e-19 -1.53915)
(-2.86105 -8.55595e-18 1.28139)
(13.0526 -4.52885e-16 -7.6512)
(-11.327 0 6.30159)
(-2.69015 0 1.31806)
(9.08724 0 -5.09194)
(-2.2533 1.65998e-16 1.81127)
(3.95886 2.68604e-16 -1.96814)
(-1.83721 1.23128e-17 1.35871)
(-1.38597 3.36998e-16 0.571423)
(0.476569 0 -0.356908)
(0.0575489 0 -0.0625164)
(-0.997516 0 0.288827)
(0.0644576 7.21326e-16 -0.513825)
(4.58388 0 -2.96739)
(8.22711 -5.10679e-16 -4.72336)
(7.9571 0 -4.2647)
(4.50364 0 -2.34743)
(-1.02456 -4.063e-16 0.618239)
(-7.02004 0 4.16625)
(-4.62143 0 2.66788)
(1.35298 0 -0.579957)
(-4.07184 4.47894e-16 2.48937)
(-8.92999 0 5.10863)
(-10.4662 -3.6223e-16 5.94059)
(-0.525889 0 0.316931)
(6.60059 9.62314e-20 -3.69077)
(-1.44262 1.52091e-18 5.92311)
(-0.28778 8.36353e-18 1.46944)
(0.222466 3.14519e-18 0.27043)
(1.92971 0 1.78834)
(-2.02158 1.79397e-18 0.899002)
(-9.43002 1.04849e-18 -2.85656)
(-7.62673 3.57636e-18 -3.05794)
(8.14528 9.38783e-19 4.86935)
(18.6011 0 12.3523)
(1.96047 0 5.11151)
(-25.3467 0 -10.6546)
(-21.5883 0 -12.3361)
(19.5748 0 8.42274)
(42.4554 0 24.0591)
(1.91754 2.03626e-17 5.9963)
(-55.2294 0 -24.7513)
(-41.0799 1.13954e-16 -21.1262)
(45.055 0 19.1334)
(94.2108 3.83759e-16 43.333)
(3.13353 -1.16589e-16 -1.1378)
(-151.855 0 -85.2562)
(-97.8736 5.55127e-16 -29.5806)
(250.326 -6.02066e-16 249.129)
(315.573 -6.98282e-16 231.004)
(-260.003 1.58225e-15 -419.454)
(-415.238 0 -481.524)
(-50.0923 4.9011e-16 -58.1878)
(76.0898 0 62.3375)
(-36.5063 0 -24.8932)
(-43.4869 0 -23.4548)
(28.8075 1.94418e-16 23.5208)
(34.2947 0 19.2084)
(-11.8086 0 -12.1964)
(-25.3107 0 -16.5119)
(0.740783 0 1.91936)
(16.8573 0 9.82594)
(5.48978 0 0.981889)
(-8.21799 -5.25562e-17 -6.62199)
(-5.59693 0 -3.49701)
(3.71173 7.56469e-17 2.22156)
(5.4449 3.89167e-17 2.56186)
(0.485557 2.68543e-19 -0.415347)
(-2.43277 0 -1.59001)
(-0.689883 0 -0.385703)
(1.65915 1.63369e-17 0.659484)
(1.59036 6.2423e-18 0.349268)
(0.246242 -1.65602e-17 -0.396288)
(-0.237981 0 -0.621955)
(0.349942 1.13916e-17 -0.438777)
(0.93749 0 -0.343462)
(0.964234 0 -0.463055)
(0.759773 1.14117e-17 -0.619532)
(0.760425 0 -0.68886)
(1.00467 0 -0.71539)
(1.30869 1.8185e-20 -0.780474)
(1.58665 0 -0.876803)
(1.88337 0 -0.948431)
(2.24361 1.9508e-19 -1.02323)
(2.66704 2.37838e-17 -1.15367)
(3.12702 -7.73837e-19 -1.31965)
(3.53749 0 -1.49641)
(3.781 -1.34379e-16 -1.64028)
(3.78788 -1.38417e-16 -1.66398)
(3.45886 0 -1.51459)
(2.66869 -1.35031e-16 -1.09731)
(1.24021 4.90834e-19 -0.346907)
(-0.835665 0 0.74507)
(-3.36938 -9.13558e-17 2.11632)
(-5.84747 0 3.48407)
(-7.6091 0 4.39485)
(-8.18397 0 4.46167)
(-7.43009 0 3.66393)
(-5.94738 -4.43634e-16 2.70676)
(-4.27736 1.69774e-16 1.92782)
(-3.34523 0 1.44935)
(-2.95248 0 0.746011)
(-2.23 1.53958e-17 -0.0281909)
(0.210627 -8.03831e-19 -1.3798)
(5.57329 -1.16419e-18 -4.09375)
(10.9929 0 -7.07462)
(13.946 0 -8.79634)
(14.9964 0 -9.34048)
(14.5596 -8.73722e-19 -8.68843)
(11.7447 9.90978e-17 -6.16648)
(6.32402 -1.86154e-16 -2.7352)
(2.51846 1.87369e-16 -0.46182)
(-2.15919 6.098e-20 1.9134)
(-2.80076 -4.14216e-17 2.36298)
(-4.25924 0 2.97202)
(-1.75948 1.09495e-16 1.2766)
(-1.93346 0 0.73196)
(12.4893 2.19066e-16 -8.01625)
(18.0957 0 -10.954)
(8.72849 -4.83478e-16 -4.83294)
(-7.21493 2.49267e-16 3.39294)
(41.4208 0 -24.0427)
(-35.7819 0 21.0449)
(-7.43515 1.58105e-16 3.35977)
(28.5573 1.29965e-16 -16.3868)
(-6.4107 -1.54494e-16 4.61585)
(12.5797 -2.55103e-16 -6.89835)
(-5.81144 -1.16832e-17 3.93157)
(-2.94908 0 1.45846)
(1.305 4.67657e-16 -0.919695)
(-0.484912 0 0.209867)
(-2.72229 0 1.17981)
(1.85812 -6.84652e-16 -1.80715)
(16.3408 0 -9.98649)
(25.8453 2.64457e-19 -15.0679)
(22.4967 -7.85962e-17 -12.6517)
(10.2773 0 -5.64684)
(-6.53823 0 4.02862)
(-24.3765 0 14.032)
(-17.0354 1.84849e-16 9.54712)
(2.40315 -3.0947e-16 -1.29555)
(-11.1574 -4.21062e-16 7.0228)
(-25.0218 0 14.8052)
(-31.4719 3.40226e-16 18.0679)
(-3.46127 0 1.46356)
(18.4425 1.06018e-15 -10.8856)
(-0.502284 -2.3249e-18 3.91897)
(0.34595 1.67054e-18 1.33426)
(2.39916 9.30896e-18 0.810553)
(2.48983 0 1.16078)
(-3.42007 1.78458e-18 -0.420662)
(-9.2963 -1.46402e-18 -2.41134)
(-3.6194 0 -0.457971)
(11.6815 -8.91417e-19 5.69598)
(15.3172 0 7.98246)
(-5.01156 -2.07352e-18 1.18318)
(-26.3978 0 -7.76701)
(-13.4383 0 -5.18228)
(25.5744 0 8.32811)
(35.4722 0 13.7344)
(-8.56155 5.21959e-18 0.997961)
(-50.9059 0 -11.5345)
(-25.2775 0 -4.89137)
(46.9074 0 9.66407)
(65.7252 -1.73893e-16 4.54679)
(-28.3178 8.97045e-17 -27.7399)
(-105.116 0 -16.6971)
(25.7695 -3.75557e-16 86.0092)
(232.83 0 187.52)
(11.2738 5.42697e-16 -73.613)
(-439.554 0 -566.099)
(-267.256 0 -359.22)
(88.5106 -4.64903e-16 44.7006)
(78.6826 0 67.7792)
(-49.9532 0 -28.5703)
(-33.3972 -1.09738e-16 -15.8305)
(31.5486 0 21.042)
(25.9142 0 10.8058)
(-14.9912 0 -13.1837)
(-20.4528 0 -11.7112)
(4.29339 5.3382e-17 3.32726)
(15.4715 0 6.76342)
(3.66344 0 -1.22842)
(-7.06627 4.08664e-17 -5.54658)
(-3.44539 0 -2.1908)
(4.48283 -6.68752e-17 1.64945)
(5.17024 -3.69025e-18 1.17314)
(0.590305 -2.55013e-19 -1.04432)
(-1.64944 0 -1.47735)
(0.12502 0 -0.382877)
(2.11666 -7.17475e-18 0.216249)
(1.89739 0 -0.232044)
(0.693505 1.56653e-17 -0.82517)
(0.364116 0 -0.945413)
(0.97227 -1.02747e-18 -0.832236)
(1.52133 0 -0.868734)
(1.55276 0 -1.06076)
(1.40668 0 -1.22547)
(1.47819 4.43594e-18 -1.29251)
(1.79464 0 -1.32433)
(2.19656 0 -1.3829)
(2.60377 0 -1.47684)
(3.03473 0 -1.60653)
(3.55764 2.40546e-17 -1.76471)
(4.18739 0 -1.95259)
(4.8525 -1.43812e-18 -2.17463)
(5.43088 0 -2.38444)
(5.74585 6.27886e-17 -2.50845)
(5.65666 1.30506e-16 -2.43268)
(4.99759 0 -2.06434)
(3.58609 1.24269e-16 -1.25868)
(1.19146 7.35081e-18 0.0935418)
(-2.17392 0 1.96151)
(-6.21661 8.60348e-17 4.1819)
(-10.1086 0 6.25753)
(-12.736 0 7.49507)
(-13.2638 0 7.37105)
(-11.5128 0 5.89856)
(-8.68364 4.51939e-18 4.05603)
(-5.72865 -1.59657e-16 2.37167)
(-4.03104 0 1.23698)
(-2.90986 0 0.280669)
(-1.30818 6.72359e-19 -0.902669)
(2.69284 -2.36224e-16 -3.26957)
(11.0507 -1.57955e-16 -7.82471)
(19.3781 0 -12.1564)
(23.5101 0 -14.2219)
(24.6718 0 -14.228)
(23.0564 4.92661e-19 -13.0087)
(17.762 -1.20549e-18 -9.14742)
(8.69873 1.74627e-16 -3.81607)
(2.53446 0 -0.397416)
(-4.58139 5.74136e-17 3.23378)
(-4.93932 3.88328e-17 3.29037)
(-6.45877 0 3.81602)
(-1.13537 0 0.410514)
(-2.05462 9.13454e-17 0.19978)
(22.6486 0 -14.2356)
(29.0301 1.17993e-16 -16.7736)
(16.803 -1.63486e-18 -8.57618)
(-10.6652 -2.43927e-16 4.68788)
(69.5659 4.01181e-16 -39.1881)
(-57.8231 0 35.2789)
(-11.7105 -1.47961e-16 3.82052)
(46.8395 -1.21608e-16 -26.7848)
(-9.1935 1.39991e-16 6.39929)
(20.4164 0 -11.7299)
(-10.3227 -1.01229e-17 6.56198)
(-3.9719 0 1.73485)
(1.6407 -4.37293e-16 -1.12092)
(-1.44462 4.41982e-16 0.937735)
(-4.11438 0 2.04784)
(4.74723 6.39977e-16 -3.83206)
(29.105 0 -17.7192)
(42.6464 8.9966e-16 -24.6727)
(34.021 7.34454e-17 -18.5911)
(12.0602 0 -5.79463)
(-15.3041 0 10.0008)
(-41.9546 0 24.735)
(-28.9443 2.76076e-19 15.867)
(3.25413 2.89071e-16 -1.88536)
(-16.3921 3.942e-16 10.4254)
(-37.6278 0 22.1653)
(-50.0602 3.1682e-16 28.1291)
(-7.65698 0 2.91445)
(28.0613 -1.30164e-18 -16.5907)
(-0.878762 8.36007e-19 2.20469)
(1.61744 -1.81576e-18 1.62636)
(4.33518 -2.66802e-18 1.49771)
(2.68903 1.47083e-18 0.689177)
(-4.47067 2.8797e-18 -1.50595)
(-8.80266 2.1806e-18 -2.67659)
(-0.808933 0 -0.0617148)
(12.9818 0 4.51425)
(11.8707 0 4.69917)
(-10.0718 1.96405e-18 -1.48241)
(-25.9612 0 -6.28054)
(-7.24128 0 -1.51986)
(28.1802 0 7.26585)
(29.4542 0 6.75754)
(-13.6152 0 -1.91334)
(-45.5268 -5.67185e-17 -3.41681)
(-18.2597 4.8392e-17 3.77703)
(38.3423 0 1.04689)
(43.6904 0 -20.4706)
(-22.5033 1.982e-17 -33.425)
(-44.3987 1.30499e-16 31.1871)
(57.5619 -1.43075e-16 122.069)
(70.1056 -3.15668e-16 27.3432)
(-226.239 -5.13773e-16 -301.467)
(-299.793 -7.46437e-16 -338.03)
(17.2977 6.45731e-16 -40.2657)
(186.768 0 142.736)
(42.5689 3.08762e-16 38.0191)
(-67.8211 0 -41.3898)
(-23.7261 1.03864e-16 -11.8883)
(33.9004 0 19.6109)
(19.1164 0 5.36793)
(-17.1211 0 -14.043)
(-16.2289 1.25039e-17 -8.83946)
(7.33656 -5.04968e-17 4.40748)
(14.6044 0 5.14574)
(2.32627 0 -2.74132)
(-6.33027 -3.86436e-17 -5.52287)
(-1.74236 0 -1.64471)
(5.34447 3.98355e-18 1.48744)
(5.1971 -1.19567e-17 0.469979)
(0.756921 0 -1.55953)
(-1.00389 0 -1.61965)
(0.864816 0 -0.468439)
(2.63874 0 -0.0523703)
(2.29261 8.86343e-18 -0.633655)
(1.16295 0 -1.22883)
(0.946938 -1.01001e-17 -1.32784)
(1.59283 -9.20007e-18 -1.25024)
(2.13879 0 -1.35757)
(2.19174 0 -1.60322)
(2.10333 0 -1.79121)
(2.24547 -4.18508e-18 -1.86986)
(2.63693 -3.54639e-19 -1.91649)
(3.12982 -3.49427e-18 -1.9946)
(3.65016 0 -2.12301)
(4.21748 -6.23907e-18 -2.31457)
(4.91191 -2.14793e-17 -2.54163)
(5.72229 0 -2.81342)
(6.56181 -6.24916e-17 -3.10422)
(7.27335 0 -3.34263)
(7.62218 -5.52369e-17 -3.42642)
(7.40101 -1.15688e-16 -3.21423)
(6.38376 0 -2.58037)
(4.34087 -5.76944e-17 -1.34583)
(1.00515 -4.96067e-18 0.620494)
(-3.56657 0 3.23511)
(-8.96379 0 6.22356)
(-14.0709 0 8.87714)
(-17.39 -1.36125e-16 10.293)
(-17.7812 -1.41175e-16 9.84787)
(-15.0284 0 7.64987)
(-10.8347 1.89806e-16 4.95937)
(-6.50633 1.45885e-16 2.4379)
(-3.8521 0 0.827054)
(-1.98232 0 -0.485604)
(0.545843 -1.4216e-17 -2.19895)
(6.06772 5.26176e-20 -5.62111)
(17.1476 0 -11.8666)
(27.8586 0 -17.3954)
(32.5909 0 -19.4414)
(33.1469 0 -19.0735)
(30.2347 -1.45174e-18 -16.8378)
(22.5171 -8.60506e-17 -11.489)
(10.1369 0 -4.28687)
(1.85125 0 0.260807)
(-7.26598 0 4.9427)
(-6.84465 3.49908e-17 4.26359)
(-7.90532 0 4.41451)
(0.899108 9.30258e-17 -0.979783)
(-1.8273 -8.55407e-17 -0.566973)
(33.2767 1.95326e-16 -21.0129)
(38.1408 -1.10459e-16 -21.9272)
(27.3142 4.28513e-16 -13.4498)
(-14.9542 2.28283e-16 6.07511)
(96.9872 -3.75394e-16 -53.9856)
(-75.482 0 47.7619)
(-15.4869 0 3.24032)
(63.3744 -1.0777e-16 -36.4116)
(-10.076 -6.42927e-17 7.54219)
(27.4616 2.27003e-16 -15.8962)
(-15.0005 5.89033e-19 9.77)
(-4.5059 0 1.69063)
(1.4873 0 -1.10275)
(-2.65345 -4.13123e-16 1.7376)
(-4.96484 0 2.37896)
(8.98958 -5.99864e-16 -6.91792)
(42.6194 0 -26.2349)
(57.7976 -1.15259e-18 -33.4812)
(41.3293 0 -22.1784)
(9.05583 3.74929e-16 -3.20785)
(-27.4174 -3.33464e-16 17.7961)
(-58.806 -1.64835e-17 34.7698)
(-38.1717 7.02555e-20 20.1064)
(5.10947 0 -3.321)
(-19.6076 -3.68136e-16 13.2114)
(-46.5713 -6.11389e-16 28.1114)
(-65.6916 -2.95836e-16 36.7292)
(-12.8764 0 4.33886)
(35.389 -1.94014e-18 -21.5357)
(-0.876605 0 1.6063)
(2.74633 -8.75605e-19 2.10568)
(5.08555 0 1.8837)
(1.86936 -1.3897e-18 0.143614)
(-5.87291 -4.31605e-18 -2.48908)
(-8.60869 -1.64064e-18 -3.27487)
(0.851187 0 -0.728802)
(12.9927 0 2.52586)
(8.62755 9.17022e-18 1.89557)
(-13.0764 2.1483e-18 -2.66214)
(-24.1883 8.44435e-18 -4.49869)
(-2.88375 1.31836e-17 0.20769)
(28.0516 -2.20234e-17 4.7891)
(24.269 0 1.57471)
(-15.6432 0 -3.29974)
(-41.1536 9.53445e-17 0.734614)
(-16.0136 -4.8095e-18 7.5416)
(31.1714 0 -0.469989)
(35.5643 4.44704e-17 -24.2208)
(-9.50675 3.85534e-17 -30.1697)
(-27.3797 -1.23379e-16 16.3481)
(14.2961 0 66.6259)
(-42.2084 2.98392e-16 -35.7597)
(-192.395 2.26906e-16 -215.292)
(-34.9389 7.05526e-16 -10.5113)
(190.904 -2.83015e-16 176.851)
(158.576 0 125.057)
(-30.4332 4.08215e-17 -28.9774)
(-77.9962 0 -53.6342)
(-10.6408 1.74557e-16 -6.35089)
(35.9892 0 19.1621)
(13.074 0 1.55179)
(-18.0363 0 -14.1386)
(-11.8376 -1.18097e-17 -6.19053)
(9.81937 0 5.207)
(13.5252 0 3.74368)
(1.21969 0 -3.92109)
(-5.43868 0 -5.47177)
(-0.160054 -1.15258e-17 -1.25682)
(6.02718 4.487e-17 1.28588)
(5.16652 0 -0.143166)
(0.933478 -3.71346e-18 -2.02178)
(-0.387094 0 -1.80933)
(1.52946 0 -0.630768)
(3.09448 0 -0.356019)
(2.65647 1.26394e-18 -1.03344)
(1.61876 0 -1.63024)
(1.51421 9.52337e-18 -1.71811)
(2.19604 0 -1.67114)
(2.74684 0 -1.83184)
(2.83332 6.17757e-18 -2.11677)
(2.81109 0 -2.32372)
(3.0288 0 -2.41562)
(3.49758 -1.55244e-18 -2.4829)
(4.07879 3.29125e-18 -2.59401)
(4.70658 0 -2.77207)
(5.40777 1.28526e-19 -3.02773)
(6.25425 1.85626e-17 -3.34188)
(7.22445 0 -3.70329)
(8.21411 2.85404e-17 -4.05692)
(9.02996 0 -4.30628)
(9.38383 5.19641e-17 -4.31947)
(9.00832 1.08814e-16 -3.92915)
(7.62448 0 -2.98306)
(4.96457 4.90212e-17 -1.28612)
(0.739949 1.7769e-18 1.29196)
(-4.93062 0 4.60342)
(-11.5141 0 8.26191)
(-17.6445 0 11.3573)
(-21.5101 2.53634e-16 12.8081)
(-21.7162 2.66951e-18 11.9234)
(-17.9985 0 8.92378)
(-12.4309 -1.68673e-16 5.40549)
(-6.67038 -2.70226e-16 2.0502)
(-2.95299 0 -0.0438921)
(-0.268606 0 -1.75028)
(3.22739 0 -4.05229)
(10.1811 3.50915e-19 -8.52864)
(23.6514 0 -16.2456)
(36.2839 0 -22.6153)
(41.0624 0 -24.2821)
(40.6436 0 -23.1761)
(36.1949 1.55643e-18 -19.8604)
(26.1905 -7.54792e-17 -12.9896)
(10.8179 0 -4.10501)
(0.609041 0 1.42241)
(-10.1662 0 6.81633)
(-8.52526 -7.16777e-19 5.07348)
(-8.76089 0 4.52006)
(4.02245 -8.70857e-17 -3.13216)
(-1.64747 0 -1.6602)
(44.0793 -1.82801e-16 -28.2307)
(45.381 0 -25.9369)
(41.2011 -2.00925e-16 -19.6836)
(-22.1197 0 8.37064)
(123.603 0 -67.9136)
(-86.7246 0 57.4626)
(-18.9971 0 1.53007)
(78.1089 1.00768e-16 -44.8755)
(-8.63129 0 8.31279)
(33.5522 -2.12212e-16 -19.3316)
(-19.8475 8.29682e-18 13.2249)
(-4.7833 0 1.38834)
(0.92534 0 -0.808809)
(-3.8561 0 2.57611)
(-4.84699 0 2.11713)
(14.7736 7.51995e-19 -11.3104)
(56.5932 0 -35.1929)
(70.69 -7.80835e-16 -40.716)
(43.9691 0 -22.4689)
(1.71 -6.99348e-16 2.57668)
(-41.6316 3.11448e-16 27.6614)
(-73.4318 1.53941e-17 43.1165)
(-42.7642 -1.50921e-16 21.454)
(8.98858 0 -5.89175)
(-21.0818 0 15.0053)
(-52.5863 1.14157e-15 32.2445)
(-78.6384 -2.771e-16 43.4744)
(-18.6499 2.55776e-16 5.71482)
(40.9402 -4.28254e-16 -25.4742)
(-0.587781 0 1.34423)
(3.01628 1.98229e-18 1.98252)
(4.61756 0 1.68991)
(0.275644 0 -0.408793)
(-7.36934 0 -3.0257)
(-8.38615 0 -3.42603)
(2.15686 0 -1.02354)
(12.836 -5.43047e-18 1.25447)
(6.40092 -8.65295e-18 0.292907)
(-14.1691 -2.45769e-18 -2.60785)
(-21.7328 -1.64308e-17 -2.49076)
(-0.24543 -1.24435e-17 1.14799)
(25.8936 2.07889e-17 1.8541)
(19.6497 0 -2.93459)
(-15.3319 0 -4.19787)
(-35.585 -6.91862e-17 4.49185)
(-13.7221 -7.31293e-17 12.2629)
(24.9357 0 2.30202)
(28.9194 -4.19789e-17 -23.784)
(-5.41894 -3.63903e-17 -33.0025)
(-26.9965 0 -6.87157)
(-17.2865 -6.78326e-17 24.2061)
(-56.8097 0 -13.2028)
(-59.5977 7.46582e-17 -25.2055)
(101.752 -3.84141e-16 123.689)
(189.739 -2.7642e-16 180.077)
(54.2261 0 27.2815)
(-76.5755 -3.13823e-16 -73.2305)
(-68.4017 5.37334e-17 -55.5498)
(8.78224 -3.5783e-16 6.36649)
(36.9765 -1.05026e-16 19.3807)
(7.14834 0 -1.39213)
(-17.9446 6.15355e-17 -13.5787)
(-7.33 0 -3.70028)
(11.7374 0 5.76502)
(12.1517 0 2.42655)
(0.267544 0 -4.84935)
(-4.404 0 -5.33496)
(1.2899 5.60463e-19 -1.00626)
(6.5072 -1.90956e-17 0.987032)
(5.05231 0 -0.727006)
(1.11186 8.13077e-18 -2.438)
(0.209781 0 -2.02066)
(2.13062 0 -0.851775)
(3.49029 0 -0.692302)
(2.99304 -9.06477e-18 -1.42735)
(2.06769 0 -2.01212)
(2.07522 0 -2.08984)
(2.79026 0 -2.06836)
(3.35017 0 -2.26932)
(3.47781 -8.81058e-18 -2.58345)
(3.52615 0 -2.80832)
(3.81974 0 -2.91889)
(4.36341 1.77515e-18 -3.01547)
(5.02754 0 -3.17106)
(5.75464 0 -3.41002)
(6.57579 1.05431e-17 -3.7396)
(7.554 -8.27936e-18 -4.1467)
(8.66193 0 -4.59177)
(9.77326 0 -4.99639)
(10.661 0 -5.23763)
(10.9897 -4.35731e-17 -5.15478)
(10.4402 0 -4.5572)
(8.68978 0 -3.27229)
(5.4448 -8.8613e-17 -1.09975)
(0.409194 3.3071e-18 2.07379)
(-6.22904 0 6.02396)
(-13.8237 0 10.2504)
(-20.8037 0 13.6588)
(-25.1077 -1.18036e-16 15.0284)
(-25.1195 1.21922e-16 13.6336)
(-20.4905 2.03976e-16 9.81515)
(-13.5855 1.58235e-16 5.44026)
(-6.32502 1.25018e-16 1.257)
(-1.41098 -1.02486e-16 -1.33647)
(2.16737 0 -3.4826)
(6.64782 0 -6.41294)
(14.8896 9.71135e-17 -11.9086)
(30.3324 0 -20.8783)
(44.3792 0 -27.7285)
(48.7139 0 -28.6354)
(46.9603 0 -26.5775)
(40.8858 0 -22.0984)
(28.852 1.37383e-16 -13.7278)
(10.8719 0 -3.37234)
(-1.01841 1.42017e-16 2.9603)
(-13.1101 0 8.74226)
(-9.88483 -7.57587e-19 5.65423)
(-9.01618 7.15716e-17 4.16482)
(8.11063 0 -5.81088)
(-1.61632 0 -2.86676)
(54.7576 0 -35.5631)
(50.178 0 -28.7818)
(59.2759 1.88556e-16 -27.9076)
(-33.6486 0 12.9398)
(148.305 0 -80.7992)
(-89.5869 0 63.3308)
(-22.153 0 -1.17734)
(91.0993 0 -52.2768)
(-5.44253 0 7.26563)
(38.5031 0 -22.0215)
(-24.5998 0 16.8771)
(-5.09324 -2.43027e-16 0.981345)
(-0.0512675 0 -0.27178)
(-4.91928 0 3.30586)
(-3.6129 0 0.849041)
(22.221 5.22847e-16 -16.9902)
(70.4279 0 -44.3045)
(80.4308 3.63884e-16 -45.92)
(41.3877 0 -19.3293)
(-9.35584 1.61737e-18 10.6615)
(-57.2169 0 37.4953)
(-84.1699 -1.49589e-17 49.3093)
(-42.0008 0 19.0359)
(15.2876 0 -10.0274)
(-20.5029 0 16.1081)
(-55.81 -5.32823e-16 35.3438)
(-88.9432 5.18278e-16 48.8606)
(-24.7342 -4.74678e-16 6.73107)
(44.8132 -3.93956e-16 -28.8629)
(-0.286719 0 0.777907)
(2.77283 -1.23844e-18 1.35114)
(3.6832 0 1.27992)
(-1.26948 0 -0.554555)
(-8.26516 2.13582e-19 -2.67123)
(-7.61106 -1.50017e-18 -2.588)
(3.59993 6.81242e-19 -0.349446)
(12.9281 1.12824e-17 1.14874)
(5.26219 0 -0.0326063)
(-13.8569 1.617e-18 -1.76408)
(-19.2078 7.97294e-18 -0.612973)
(0.70392 0 1.6403)
(22.462 0 -0.64825)
(16.2622 0 -6.12506)
(-12.3824 0 -4.41701)
(-28.4612 8.75004e-18 7.78262)
(-11.6408 5.4559e-18 16.7456)
(17.5238 1.08131e-17 5.91315)
(20.5088 -8.2408e-18 -21.58)
(-5.10789 0 -35.4703)
(-21.0261 6.03668e-17 -16.2823)
(-15.7945 6.39277e-17 16.5133)
(-24.349 0 28.0131)
(30.1179 -6.07768e-17 81.0401)
(125.639 1.9874e-16 136.034)
(107.911 -3.04597e-17 90.5146)
(-21.4128 0 -36.8308)
(-83.1957 0 -73.2421)
(-39.9785 -5.06225e-17 -32.969)
(29.3873 -7.84118e-19 21.1576)
(34.7655 1.68596e-16 19.5662)
(0.724323 0 -4.79764)
(-16.6966 -1.03602e-16 -12.1787)
(-2.89978 0 -1.45855)
(12.903 0 5.878)
(10.3982 -8.09301e-18 0.995467)
(-0.499612 0 -5.54668)
(-3.20336 1.26236e-17 -5.05382)
(2.61731 9.53788e-19 -0.83198)
(6.77852 9.85099e-18 0.577686)
(4.85063 0 -1.32093)
(1.29923 7.79098e-19 -2.81697)
(0.800427 0 -2.23333)
(2.67991 0 -1.11312)
(3.83212 0 -1.05764)
(3.30486 0 -1.81601)
(2.51159 0 -2.36913)
(2.63146 -4.71502e-18 -2.43285)
(3.37557 0 -2.43227)
(3.94647 0 -2.6635)
(4.12005 2.81667e-18 -2.99965)
(4.24024 0 -3.24395)
(4.60656 -4.09677e-18 -3.38129)
(5.21921 -4.83045e-18 -3.51728)
(5.958 8.40134e-18 -3.72737)
(6.77263 0 -4.03586)
(7.69559 -4.82842e-18 -4.44613)
(8.78386 -5.61467e-18 -4.94273)
(10.0026 0 -5.46202)
(11.2051 0 -5.9006)
(12.1342 0 -6.10983)
(12.4138 4.09125e-17 -5.90349)
(11.6832 0 -5.07258)
(9.58429 0 -3.43158)
(5.8092 3.99496e-17 -0.784378)
(0.0640409 1.2517e-18 2.95354)
(-7.39503 0 7.47373)
(-15.8286 0 12.1659)
(-23.5132 0 15.7724)
(-28.1985 0 16.969)
(-28.0665 1.07619e-16 15.0191)
(-22.6296 -1.91248e-16 10.381)
(-14.4449 0 5.13391)
(-5.59134 0 0.159387)
(0.649164 9.60494e-17 -3.01416)
(5.2214 0 -5.64764)
(10.6885 -1.53126e-17 -9.22458)
(20.0229 8.87094e-17 -15.6777)
(36.9736 0 -25.6366)
(51.913 0 -32.5604)
(55.3856 0 -32.3309)
(52.0531 0 -29.1492)
(44.3775 0 -23.4776)
(30.6394 -6.2431e-17 -13.7459)
(10.4682 0 -2.17322)
(-2.83219 -2.64717e-16 4.7438)
(-15.9166 0 10.5893)
(-10.8461 -8.08972e-19 5.9207)
(-8.71908 -1.21281e-18 3.31064)
(12.8665 0 -8.88902)
(-1.77823 7.10801e-17 -4.23521)
(64.854 0 -42.7681)
(51.8997 0 -30.103)
(82.309 -3.52495e-16 -38.2573)
(-50.6441 0 20.1573)
(169.345 0 -91.9883)
(-82.2946 0 64.4207)
(-24.7509 0 -4.80339)
(102.254 0 -58.9449)
(-0.389147 0 4.54656)
(42.4861 0 -23.7888)
(-29.0034 0 20.524)
(-5.81146 2.27048e-16 0.667461)
(-1.44287 0 0.515957)
(-5.72696 0 3.8235)
(-0.840466 0 -1.21762)
(31.3336 -4.84265e-16 -23.9029)
(83.5417 -4.21075e-16 -53.1136)
(86.3144 -3.35146e-16 -48.4413)
(33.6829 -5.4753e-17 -12.6823)
(-22.3144 2.22828e-18 20.3403)
(-71.5238 2.65427e-16 48.1294)
(-90.4002 2.78028e-17 52.172)
(-35.6649 0 13.2051)
(24.0169 2.14346e-16 -15.4243)
(-18.0981 -3.01201e-16 16.2915)
(-56.934 0 37.312)
(-97.0396 -2.4232e-16 52.9224)
(-30.7853 2.20205e-16 7.35298)
(47.3785 3.67728e-16 -31.6671)
(0.121205 0 0.245323)
(2.72299 3.2601e-19 0.843179)
(3.03383 0 1.09216)
(-2.19667 0 -0.18405)
(-8.26955 -2.01037e-19 -1.5654)
(-6.26 1.41231e-18 -1.03994)
(5.02035 -6.41188e-19 0.887164)
(12.9409 -7.14954e-18 1.62043)
(4.64787 0 0.220113)
(-12.8628 3.05342e-18 -0.761241)
(-17.0316 -1.54453e-17 0.849996)
(0.341991 0 1.9306)
(18.632 -1.09605e-17 -2.12985)
(14.4327 0 -7.62714)
(-7.49645 -1.08613e-17 -4.27536)
(-21.0368 1.82111e-17 9.21146)
(-10.8744 2.54505e-17 18.696)
(8.94253 -1.01779e-17 8.85855)
(12.3305 6.25676e-18 -16.5029)
(-1.77534 0 -30.9072)
(-6.70909 -5.68218e-17 -14.0633)
(0.380032 0 19.0081)
(5.13189 0 45.6378)
(51.8137 -1.98923e-16 90.6716)
(83.5633 1.81621e-16 84.4097)
(25.8388 0 8.50559)
(-57.6008 0 -62.4849)
(-64.3163 0 -55.0073)
(-3.71508 -1.19363e-16 -0.491832)
(39.2381 1.71967e-16 27.56)
(26.5461 -3.21641e-17 14.3332)
(-7.17956 -4.40811e-17 -10.511)
(-14.2904 7.59811e-17 -10.3445)
(1.06463 1.56385e-17 0.23369)
(13.1512 -2.47252e-17 5.30802)
(8.35422 2.62043e-18 -0.541182)
(-0.994127 0 -5.97451)
(-1.85736 -1.18724e-17 -4.63289)
(3.78579 8.22633e-18 -0.739865)
(6.85041 -9.26333e-18 0.0692842)
(4.59463 0 -1.90693)
(1.51669 -4.83084e-18 -3.1438)
(1.39056 -1.67291e-18 -2.43488)
(3.18067 -2.81661e-19 -1.40346)
(4.12541 -2.95604e-18 -1.444)
(3.59501 0 -2.19551)
(2.94859 0 -2.69928)
(3.17787 1.21701e-18 -2.74529)
(3.94577 0 -2.76134)
(4.52855 0 -3.01379)
(4.75113 -2.45572e-18 -3.36546)
(4.94244 4.28006e-18 -3.63069)
(5.37621 3.84762e-18 -3.8023)
(6.04933 -1.39817e-18 -3.98683)
(6.85126 1.58211e-18 -4.25964)
(7.73775 0 -4.64352)
(8.74105 0 -5.13643)
(9.91354 9.44635e-18 -5.71597)
(11.2136 0 -6.29541)
(12.4765 0 -6.74726)
(13.4195 -2.47786e-17 -6.89914)
(13.6344 0 -6.54392)
(12.7289 0 -5.46023)
(10.319 5.74682e-17 -3.45712)
(6.09159 -2.97764e-17 -0.350438)
(-0.24089 -5.96205e-18 3.90794)
(-8.36417 0 8.92343)
(-17.4745 5.98481e-17 13.9859)
(-25.7536 0 17.6969)
(-30.8162 0 18.6582)
(-30.6494 -1.97524e-16 16.136)
(-24.5544 0 10.6963)
(-15.1609 0 4.58992)
(-4.74436 0 -1.34148)
(3.06511 0 -5.01963)
(8.7636 0 -8.19151)
(15.2144 1.43392e-17 -12.4174)
(25.4086 -2.09574e-18 -19.7351)
(43.3621 -1.00607e-16 -30.389)
(58.6523 6.94999e-17 -36.9645)
(60.9155 0 -35.2693)
(55.8886 0 -30.8661)
(46.7371 0 -24.0666)
(31.709 0 -13.1502)
(9.78886 0 -0.624791)
(-4.62042 1.30835e-18 6.63995)
(-18.4027 0 12.2341)
(-11.3388 -2.48297e-17 5.80747)
(-7.90951 -1.1354e-18 1.95746)
(17.9549 0 -12.1335)
(-1.8846 -6.64592e-17 -5.86127)
(73.8756 0 -49.4447)
(49.679 7.86533e-17 -29.7022)
(110.351 3.67031e-19 -50.7204)
(-72.4132 0 30.2241)
(184.321 0 -100.498)
(-63.5027 0 59.9589)
(-26.5257 0 -9.21128)
(111.955 5.76628e-17 -64.9745)
(7.70944 0 2.42147)
(45.2877 0 -24.9861)
(-32.6898 1.37922e-18 23.9994)
(-7.29975 0 0.651897)
(-3.26331 -3.10286e-16 1.53306)
(-6.12043 3.14381e-16 3.99643)
(3.27913 0 -4.75425)
(41.7314 9.00922e-16 -31.9819)
(95.2905 4.99308e-18 -61.0269)
(87.7451 6.22717e-16 -47.8445)
(21.5646 5.11234e-17 -2.96957)
(-34.8758 2.80791e-16 29.8557)
(-84.8352 -2.47811e-16 55.5749)
(-91.8879 -1.29171e-17 52.0692)
(-24.8976 1.21005e-16 4.15553)
(34.4601 -2.00098e-16 -21.7737)
(-14.3128 2.81168e-16 16.1667)
(-56.4506 4.63542e-16 38.8558)
(-103.288 2.28919e-16 56.0947)
(-36.6914 0 7.45087)
(48.8108 0 -34.1573)
(0.690604 0 0.149755)
(3.09585 -4.12357e-19 0.74194)
(2.79738 0 1.08363)
(-2.57081 0 0.289354)
(-7.721 0 -0.42107)
(-4.84133 0 0.347262)
(5.87617 2.4655e-18 1.77733)
(12.3368 1.26611e-18 1.76904)
(3.98416 -1.83706e-18 0.25156)
(-11.6788 -3.94237e-18 -0.106294)
(-15.243 1.45191e-17 1.82735)
(-0.755421 0 2.24339)
(14.9176 1.03034e-17 -2.53133)
(13.6198 0 -7.88245)
(-2.20041 1.02105e-17 -4.52217)
(-14.5666 -2.03954e-18 8.06825)
(-11.2079 0 17.563)
(1.0328 0 10.9465)
(6.5675 1.41066e-18 -8.78166)
(4.30438 0 -21.1075)
(7.7688 0 -9.58071)
(11.5041 3.67413e-17 13.4815)
(11.5405 0 32.5998)
(30.6487 0 50.9573)
(26.4938 -2.63007e-17 22.8908)
(-23.7323 0 -34.806)
(-56.9843 0 -55.4633)
(-30.6543 0 -23.5623)
(21.1991 2.41222e-16 19.5234)
(37.8926 0 25.4802)
(13.7638 -2.44025e-17 4.46519)
(-11.6939 2.91128e-18 -13.3714)
(-11.4323 -3.1055e-17 -10.373)
(4.57766 -1.46971e-17 1.70162)
(12.5194 4.1411e-17 4.09503)
(6.24389 4.69129e-18 -2.04083)
(-1.13579 0 -6.0952)
(-0.424593 0 -4.11411)
(4.7532 5.57237e-18 -0.740092)
(6.74856 -3.14758e-18 -0.503097)
(4.32745 0 -2.44792)
(1.78236 0 -3.39858)
(1.97897 -5.16129e-19 -2.61296)
(3.63292 2.64551e-19 -1.70772)
(4.37517 2.77597e-18 -1.83663)
(3.86533 1.00645e-17 -2.55736)
(3.37333 0 -3.00055)
(3.70456 9.91136e-19 -3.02841)
(4.4895 0 -3.05839)
(5.08389 0 -3.32438)
(5.35657 2.30491e-18 -3.68574)
(5.61616 -4.01681e-18 -3.97258)
(6.11017 0 -4.18388)
(6.83306 5.56826e-18 -4.42324)
(7.68385 1.15641e-18 -4.76345)
(8.62336 0 -5.2244)
(9.68277 0 -5.79688)
(10.9116 -6.89818e-18 -6.44797)
(12.2626 0 -7.07021)
(13.5561 0 -7.51333)
(14.4907 4.3969e-17 -7.58435)
(14.6348 0 -7.06041)
(13.5758 0 -5.71372)
(10.9119 -1.02356e-16 -3.3551)
(6.33112 2.79073e-17 0.182496)
(-0.450171 3.99552e-18 4.90762)
(-9.07825 0 10.3432)
(-18.7207 -5.6073e-17 15.6946)
(-27.5236 0 19.4448)
(-33.0126 8.57718e-17 20.1415)
(-32.9751 9.05424e-17 17.0557)
(-26.422 0 10.8432)
(-15.9493 0 3.89279)
(-3.71297 -7.97786e-17 -2.66588)
(5.67172 -7.01673e-17 -7.26636)
(12.6341 0 -11.0439)
(20.0743 0 -15.9068)
(30.8734 -1.48788e-16 -23.9691)
(49.299 9.41473e-17 -34.9973)
(64.3976 -1.23734e-16 -40.7956)
(65.1951 0 -37.3555)
(58.4952 0 -31.7254)
(48.1047 0 -23.9331)
(32.2491 0 -12.0618)
(9.02864 0 1.15006)
(-6.17537 1.58847e-18 8.51859)
(-20.4022 0 13.5646)
(-11.3145 0 5.26732)
(-6.6409 -1.08194e-18 0.117898)
(22.971 0 -15.3085)
(-1.40237 -6.20671e-17 -8.03642)
(81.2586 0 -55.1504)
(42.9145 -7.35077e-17 -27.4619)
(142.393 6.48621e-19 -64.5727)
(-96.3988 0 41.8939)
(190.373 0 -105.853)
(-32.6342 0 49.4711)
(-27.3217 0 -14.1056)
(120.425 -9.47257e-18 -70.6027)
(17.2899 1.75762e-17 -1.15237)
(47.29 1.74209e-16 -25.1858)
(-35.2848 -1.28816e-18 27.1105)
(-9.82331 0 1.10667)
(-5.50282 2.89771e-16 2.73415)
(-5.99118 -2.9358e-16 3.67889)
(8.87382 0 -9.64772)
(53.0721 -4.18957e-16 -40.8547)
(104.979 7.18852e-16 -67.5537)
(84.4415 -2.8922e-16 -43.8508)
(6.56271 0 8.88226)
(-44.3015 -2.55884e-16 37.859)
(-93.48 0 64.1704)
(-89.7538 0 48.9595)
(-11.1319 -1.12957e-16 -6.83779)
(45.1435 0 -28.0049)
(-10.9553 0 16.5712)
(-55.6746 -4.32667e-16 40.4687)
(-108.216 -2.13664e-16 58.6056)
(-42.4276 1.78828e-16 7.0818)
(49.3712 -3.06231e-16 -36.3887)
(1.23473 0 0.337256)
(3.49435 3.87572e-19 0.748524)
(2.57403 1.73937e-18 0.885388)
(-2.84045 0 0.336852)
(-7.18828 0 0.0750608)
(-3.89056 0 0.870592)
(5.83366 -2.3166e-18 1.73903)
(10.9679 0 1.15924)
(3.15765 1.72573e-18 -0.247392)
(-10.3801 0 0.0599585)
(-13.6512 0 2.35867)
(-2.15006 7.68791e-18 2.59597)
(11.3504 0 -2.19603)
(12.9028 -1.13856e-17 -7.5251)
(2.22987 1.04428e-17 -5.43354)
(-9.38318 1.91526e-18 4.8944)
(-11.4798 0 14.1884)
(-4.68731 -1.13172e-17 11.9642)
(2.97041 0 -0.958645)
(8.97248 5.65303e-18 -11.2679)
(14.9928 0 -8.32281)
(11.2087 -3.45113e-17 -0.19889)