/*--------------------------------*- C++ -*----------------------------------*\
| =========                 |                                                 |
| \\      /  F ield         | OpenFOAM: The Open Source CFD Toolbox           |
|  \\    /   O peration     | Version:  2412                                  |
|   \\  /    A nd           | Website:  www.openfoam.com                      |
|    \\/     M anipulation  |                                                 |
\*---------------------------------------------------------------------------*/
FoamFile
{
    version     2.0;
    format      ascii;
    arch        "LSB;label=32;scalar=64";
    class       surfaceScalarField;
    location    "1.11";
    object      ddtCorrDdt0(phi);
}
// * * * * * * * * * * * * * * * * * * * * * * * * * * * * * * * * * * * * * //

dimensions      [0 3 -2 0 0 0 0];

oriented        oriented;

internalField   nonuniform List<scalar> 
24930
(
0.000310991
0.000361416
-0.000134727
0.000225676
9.70215e-05
0.000193202
3.44789e-05
0.000150077
3.29116e-05
9.88485e-05
2.94723e-05
4.98196e-05
1.82366e-05
6.30465e-06
8.10115e-06
-3.42813e-05
2.12517e-06
-7.28758e-05
-2.26502e-06
-0.000110303
-6.09896e-06
-0.000145431
-1.05221e-05
-0.000176308
-1.5007e-05
-0.000200802
-1.87404e-05
-0.000216984
-2.1225e-05
-0.000223453
-2.23013e-05
-0.000219577
-2.20065e-05
-0.000205584
-2.04577e-05
-0.000182444
-1.78248e-05
-0.000151594
-1.43515e-05
-0.000114685
-1.03426e-05
-7.34521e-05
-6.09687e-06
-2.97354e-05
-1.84232e-06
1.44857e-05
2.2697e-06
5.71366e-05
6.11186e-06
9.61903e-05
9.52486e-06
0.000129844
1.23084e-05
0.000156644
1.42735e-05
0.000175543
1.53055e-05
0.000185896
1.53994e-05
0.000187473
1.46342e-05
0.000180461
1.31387e-05
0.000165478
1.10446e-05
0.000143529
8.49268e-06
0.000115949
5.60626e-06
8.43047e-05
2.5196e-06
5.03245e-05
-6.75179e-07
1.57884e-05
-3.87476e-06
-1.75136e-05
-7.03894e-06
-4.79273e-05
-1.00805e-05
-7.39601e-05
-1.29758e-05
-9.44652e-05
-1.55917e-05
-0.000108602
-1.78884e-05
-0.000116002
-1.96908e-05
-0.000116593
-2.10052e-05
-0.000110773
-2.16549e-05
-9.91229e-05
-2.1729e-05
-8.2638e-05
-2.10635e-05
-6.23343e-05
-1.98618e-05
-3.95875e-05
-1.79662e-05
-1.56216e-05
-1.5703e-05
8.05019e-06
-1.29188e-05
3.02672e-05
-1.00477e-05
4.96577e-05
-6.88151e-06
6.54174e-05
-3.8958e-06
7.66359e-05
-7.81947e-07
8.31505e-05
2.01673e-06
8.47718e-05
4.9016e-06
8.21134e-05
7.46059e-06
7.57353e-05
1.00577e-05
6.67785e-05
1.22981e-05
5.62004e-05
1.43266e-05
4.5106e-05
1.57895e-05
3.44162e-05
1.64975e-05
2.46681e-05
1.64113e-05
1.65941e-05
1.50802e-05
9.94992e-06
1.32323e-05
5.59921e-06
1.01388e-05
2.48491e-06
7.68572e-06
2.0062e-06
4.2607e-06
1.84271e-06
2.86899e-06
3.97205e-06
-4.97309e-07
3.90906e-06
-1.29882e-06
4.81436e-06
-6.7256e-06
1.685e-07
-7.30105e-06
-3.31003e-06
-1.35813e-05
-1.37891e-05
-9.59023e-06
-1.90906e-05
-1.58069e-05
-3.11995e-05
-6.2298e-06
-3.30291e-05
-1.20405e-05
-4.30398e-05
2.69998e-06
-3.89814e-05
-4.14482e-06
-4.55226e-05
1.17339e-05
-4.32293e-05
-6.06955e-07
-3.89537e-05
-3.35444e-05
-5.33514e-05
2.10526e-05
-2.19995e-05
-4.79039e-05
-7.94596e-05
5.91345e-05
-6.53039e-06
-0.000224367
-0.000108554
0.000162207
-1.03111e-05
0.000795948
0.000465276
-0.000501339
-0.00100369
0.00298035
0.000490162
0.001021
3.50215e-05
0.00042697
-0.000142799
0.000469703
0.000271786
-0.000205694
-0.00137116
0.0031616
0.00414003
-0.000978713
-0.00450465
0.00817397
0.000468372
-0.00515837
0.00187038
-0.00264861
-0.00321219
0.00541613
0.00423644
-0.0075895
-0.0050787
0.0127952
0.00535057
-0.0104369
0.000629699
0.00479092
-0.00286934
0.00331527
0.00465724
-0.00747977
-0.00904671
0.0145336
0.00775467
-0.0124599
0.00375166
0.0039089
-0.00739493
0.0111321
0.00590252
-0.0134877
0.0036306
0.00229484
-0.00957677
0.0156203
-0.00310892
-0.00638608
0.00894908
-0.0122499
0.00151147
0.00746295
-0.00598768
0.00771875
-0.00245024
0.000399183
0.000251411
-0.000284825
0.000402
0.000102974
0.000379963
4.59236e-05
0.00032015
6.07738e-05
0.000237975
6.20765e-05
0.000157934
3.74719e-05
8.66251e-05
1.15204e-05
1.99676e-05
-3.70293e-06
-4.79812e-05
-1.17646e-05
-0.000116628
-1.93091e-05
-0.000182265
-2.84277e-05
-0.000240742
-3.71016e-05
-0.000288554
-4.29577e-05
-0.000323021
-4.49371e-05
-0.000342345
-4.31544e-05
-0.000345738
-3.8257e-05
-0.000333466
-3.09557e-05
-0.000306663
-2.19423e-05
-0.000266964
-1.20061e-05
-0.000216211
-2.01716e-06
-0.000156445
7.29874e-06
-9.01088e-05
1.55725e-05
-2.02125e-05
2.27726e-05
4.97571e-05
2.89496e-05
0.000116187
3.39649e-05
0.000175763
3.74195e-05
0.000225762
3.88379e-05
0.000264154
3.79164e-05
0.000289596
3.4667e-05
0.000301434
2.93519e-05
0.000299729
2.23795e-05
0.00028526
1.4178e-05
0.000259437
5.21135e-06
0.000224181
-4.09864e-06
0.00018175
-1.33214e-05
0.000134647
-2.21715e-05
8.54527e-05
-3.03738e-05
3.67775e-05
-3.78452e-05
-8.95833e-06
-4.43996e-05
-4.95606e-05
-5.00298e-05
-8.33414e-05
-5.44638e-05
-0.000109032
-5.77021e-05
-0.000126018
-5.94232e-05
-0.00013404
-5.97981e-05
-0.000133467
-5.85122e-05
-0.000124854
-5.59301e-05
-0.000109332
-5.17197e-05
-8.80123e-05
-4.64788e-05
-6.25747e-05
-3.98175e-05
-3.44641e-05
-3.26001e-05
-5.64613e-06
-2.44097e-05
2.24153e-05
-1.63773e-05
4.78007e-05
-7.95002e-06
6.93988e-05
-4.10922e-07
8.57738e-05
7.00503e-06
9.65729e-05
1.30481e-05
0.000101262
1.87177e-05
0.000100525
2.28972e-05
9.48968e-05
2.66749e-05
8.58505e-05
2.92321e-05
7.46132e-05
3.13837e-05
6.27226e-05
3.26735e-05
5.15193e-05
3.31199e-05
4.1738e-05
3.31117e-05
3.4472e-05
3.14221e-05
2.91456e-05
3.01388e-05
2.69842e-05
2.60239e-05
2.5998e-05
2.41077e-05
2.82762e-05
1.77955e-05
2.99024e-05
1.65169e-05
3.42026e-05
7.96184e-06
3.40762e-05
7.97468e-06
3.5038e-05
-4.40798e-06
2.63743e-05
-2.51316e-06
1.93814e-05
-1.93456e-05
-6.90927e-07
-1.12413e-05
-1.22125e-05
-3.32161e-05
-3.90397e-05
-1.40815e-05
-4.56659e-05
-4.20379e-05
-7.43695e-05
-5.30827e-06
-6.84321e-05
-4.52958e-05
-9.55312e-05
7.70512e-06
-8.64349e-05
-3.49495e-05
-8.69872e-05
-3.54149e-05
-0.000126118
3.12693e-05
-2.6916e-05
-0.000128568
-0.000208377
0.000227336
8.27533e-05
-0.000390793
-0.000474215
0.000703493
0.000226023
-0.000716183
0.00114542
-0.00138241
-0.00284771
0.0053774
0.00189494
-0.00622737
-0.000338282
0.00270653
5.78693e-05
-2.24564e-05
-0.000529389
0.000358293
-0.00276448
0.0043057
0.0128569
-0.0212789
-0.0134646
0.0345507
0.00100235
-0.0197084
0.00307896
-0.00455562
-0.00968529
0.0179075
0.0110636
-0.0281577
-0.0140206
0.0342811
0.0190874
-0.0435607
0.000385495
0.0234927
-0.00839055
0.0122662
0.010971
-0.0269314
-0.0257393
0.0504216
0.02475
-0.0674468
0.00897786
0.0197443
-0.021418
0.0414961
0.0191207
-0.0538309
0.00777427
0.0136527
-0.0292985
0.0274284
-0.00766159
-0.0282568
0.0258264
-0.0456006
0.00127699
0.0320286
-0.0180551
0.0267581
-0.0107281
0.000388854
0.000194796
-0.000327445
0.000411338
8.22433e-05
0.000398659
4.55191e-05
0.000350825
7.65774e-05
0.000279667
8.49406e-05
0.00020527
5.44483e-05
0.000137784
1.68923e-05
7.15606e-05
-4.14218e-06
6.32182e-07
-1.31074e-05
-7.35744e-05
-2.26016e-05
-0.000145595
-3.64551e-05
-0.000210125
-5.05416e-05
-0.00026349
-5.99212e-05
-0.000303371
-6.23625e-05
-0.000328372
-5.81325e-05
-0.000337887
-4.86429e-05
-0.00033213
-3.54129e-05
-0.000311994
-1.98533e-05
-0.000278688
-3.50312e-06
-0.000233478
1.20113e-05
-0.000177794
2.54567e-05
-0.000113642
3.6429e-05
-4.39095e-05
4.52665e-05
2.77202e-05
5.24449e-05
9.72682e-05
5.79472e-05
0.000161066
6.11017e-05
0.000216132
6.09979e-05
0.000260247
5.70476e-05
0.00029187
4.92848e-05
0.000310117
3.82188e-05
0.000314803
2.46023e-05
0.00030649
9.21089e-06
0.000286391
-7.10637e-06
0.000256243
-2.35509e-05
0.000218122
-3.93166e-05
0.000174379
-5.38776e-05
0.000127488
-6.67714e-05
8.0016e-05
-7.78854e-05
3.43776e-05
-8.6948e-05
-7.20343e-06
-9.39923e-05
-4.30026e-05
-9.86243e-05
-7.16859e-05
-0.000100938
-9.25506e-05
-0.000100529
-0.000105187
-9.78441e-05
-0.00010979
-9.25243e-05
-0.000106675
-8.53428e-05
-9.6739e-05
-7.58812e-05
-8.08265e-05
-6.52523e-05
-6.04044e-05
-5.2869e-05
-3.66914e-05
-4.02275e-05
-1.15129e-05
-2.66292e-05
1.38088e-05
-1.39466e-05
3.73812e-05
-1.18091e-06
5.81244e-05
9.59902e-06
7.45142e-05
1.98024e-05
8.61259e-05
2.74674e-05
9.22646e-05
3.44171e-05
9.34972e-05
3.8941e-05
9.01916e-05
4.3015e-05
8.36894e-05
4.54422e-05
7.51078e-05
4.76547e-05
6.58818e-05
4.8999e-05
5.73383e-05
4.94424e-05
5.00848e-05
4.97099e-05
4.52439e-05
4.75537e-05
4.20159e-05
4.64738e-05
4.17182e-05
4.06831e-05
4.20406e-05
3.85352e-05
4.53082e-05
2.85872e-05
4.7176e-05
2.67312e-05
5.14046e-05
1.22477e-05
5.02199e-05
1.21157e-05
4.98946e-05
-8.90352e-06
3.846e-05
-5.72386e-06
2.90516e-05
-3.54544e-05
4.0397e-06
-2.15563e-05
-9.76564e-06
-6.13328e-05
-4.43472e-05
-2.37527e-05
-5.03343e-05
-7.93323e-05
-9.18069e-05
-2.51094e-06
-7.81125e-05
-9.07004e-05
-0.000124853
2.84182e-05
-0.000101916
-7.23117e-05
-0.000112515
-2.62671e-05
-0.000171478
9.06568e-05
1.17245e-06
-0.000304043
-0.000315377
0.000557193
0.000234074
-0.000909635
-0.000928972
0.00187447
0.000606689
-0.00222421
0.00170969
-0.00246052
-0.004691
0.0117587
0.00362939
-0.0157367
-0.000999172
0.00733998
0.000280067
-0.00126749
-0.00196766
0.00269867
-0.00375973
0.00607376
0.0217503
-0.0469272
-0.0227335
0.0790185
0.00393893
-0.0466926
0.00288381
-0.0035187
-0.017294
0.0381709
0.0171506
-0.0625684
-0.0229856
0.0744373
0.0357846
-0.102314
-0.000497666
0.0597805
-0.0130082
0.0247899
0.015882
-0.0558101
-0.0439232
0.110195
0.0438484
-0.155006
0.0123938
0.051232
-0.0346045
0.0884862
0.0340147
-0.122465
0.00890817
0.0387971
-0.0504157
0.109477
-0.0105067
-0.0682122
0.0423165
-0.0984633
-0.00195961
0.0762464
-0.03128
0.056013
-0.0261022
0.000378864
0.000158638
-0.000342797
0.000386378
7.18207e-05
0.000368626
4.66924e-05
0.000330889
8.05637e-05
0.000275564
9.24705e-05
0.000217033
5.8052e-05
0.000160937
1.40016e-05
0.000101533
-8.59882e-06
3.33281e-05
-1.48362e-05
-4.15248e-05
-2.32368e-05
-0.000115693
-4.051e-05
-0.000182181
-6.04081e-05
-0.0002367
-7.44638e-05
-0.000277255
-7.83291e-05
-0.00030312
-7.19985e-05
-0.000314211
-5.77205e-05
-0.000310954
-3.8084e-05
-0.00029422
-1.54348e-05
-0.000265027
7.76814e-06
-0.000224262
2.89612e-05
-0.00017284
4.62714e-05
-0.000112262
5.92861e-05
-4.51207e-05
6.89204e-05
2.4911e-05
7.63497e-05
9.36678e-05
8.18467e-05
0.000157285
8.44377e-05
0.000212703
8.26177e-05
0.000257712
7.53784e-05
0.00029077
6.27565e-05
0.000310907
4.55663e-05
0.000317791
2.49586e-05
0.000311828
2.06906e-06
0.00029409
-2.18631e-05
0.000266177
-4.56394e-05
0.000230028
-6.8042e-05
0.000187877
-8.82926e-05
0.000142132
-0.000105752
9.53465e-05
-0.000120306
4.99547e-05
-0.000131603
8.21334e-06
-0.000139723
-2.81335e-05
-0.000144134
-5.77206e-05
-0.000145045
-7.98131e-05
-0.000141986
-9.39278e-05
-0.000135743
-0.000100185
-0.000125936
-9.87846e-05
-0.000113811
-9.05341e-05
-9.88569e-05
-7.6158e-05
-8.27486e-05
-5.70629e-05
-6.46575e-05
-3.43795e-05
-4.67487e-05
-9.91847e-06
-2.79751e-05
1.50439e-05
-1.09846e-05
3.85718e-05
5.76173e-06
5.95835e-05
1.93772e-05
7.64649e-05
3.2022e-05
8.87526e-05
4.09921e-05
9.56522e-05
4.9019e-05
9.76872e-05
5.37599e-05
9.51555e-05
5.81161e-05
8.93515e-05
6.04906e-05
8.13929e-05
6.2884e-05
7.26795e-05
6.44794e-05
6.46316e-05
6.50677e-05
5.7763e-05
6.5904e-05
5.33401e-05
6.34906e-05
5.03415e-05
6.31117e-05
5.03153e-05
5.59826e-05
5.05904e-05
5.43619e-05
5.38805e-05
4.11725e-05
5.52928e-05
3.9645e-05
5.91729e-05
1.94312e-05
5.6851e-05
2.01063e-05
5.55416e-05
-9.64139e-06
4.17073e-05
-3.61303e-06
3.06514e-05
-4.6801e-05
1.37428e-06
-2.45156e-05
-1.34907e-05
-8.59392e-05
-5.51141e-05
-2.51534e-05
-5.87396e-05
-0.000119251
-0.00011285
1.1167e-05
-8.88401e-05
-0.000148998
-0.000156799
6.68676e-05
-0.000115616
-0.000134415
-0.000140393
-1.15157e-05
-0.000213846
0.00015852
3.15862e-05
-0.000557148
-0.000427717
0.00101946
0.000321674
-0.00163462
-0.0014537
0.00366217
0.00112798
-0.0047957
0.0021437
-0.00346177
-0.00650591
0.0204101
0.00564937
-0.0267766
-0.0019417
0.0149465
0.000447717
-0.00359512
-0.00387826
0.00712982
-0.00447376
0.00661048
0.0305755
-0.0823705
-0.0321183
0.141672
0.00894056
-0.0881387
0.0013402
0.00407874
-0.0261072
0.0656679
0.0220759
-0.110722
-0.0321028
0.128687
0.0553146
-0.189713
-0.00168844
0.116796
-0.0159906
0.0390958
0.0191067
-0.0908989
-0.0638668
0.193162
0.0646519
-0.283563
0.013873
0.102035
-0.0462176
0.148583
0.0500551
-0.218753
0.00648215
0.0823638
-0.0723722
0.188384
-0.0113832
-0.129256
0.0579238
-0.167816
-0.00835206
0.142474
-0.0452355
0.0928343
-0.0502592
0.000378062
0.000139048
-0.000359875
0.000370007
7.4445e-05
0.000345142
5.12656e-05
0.000314322
7.61977e-05
0.000274573
8.58972e-05
0.000228728
5.14516e-05
0.00018058
5.24817e-06
0.000126329
-1.69347e-05
6.04259e-05
-1.84952e-05
-1.55192e-05
-2.29932e-05
-9.34186e-05
-4.12755e-05
-0.000164268
-6.63944e-05
-0.00022201
-8.62649e-05
-0.000264047
-9.33147e-05
-0.000290064
-8.62309e-05
-0.000300698
-6.77568e-05
-0.000296908
-4.17298e-05
-0.000279891
-1.16554e-05
-0.000250879
1.89538e-05
-0.0002108
4.64167e-05
-0.000160349
6.79657e-05
-0.000100617
8.3002e-05
-3.38341e-05
9.3072e-05
3.6414e-05
0.000100325
0.000105736
0.000105623
0.000169927
0.000107783
0.000225714
0.000104554
0.000270882
9.42845e-05
0.000303963
7.69151e-05
0.000324007
5.36179e-05
0.00033062
2.60257e-05
0.000324139
-4.34951e-06
0.000305611
-3.59089e-05
0.000276652
-6.70745e-05
0.000239221
-9.62004e-05
0.000195587
-0.000122249
0.000148223
-0.000144413
9.97933e-05
-0.000162605
5.28496e-05
-0.000176388
9.75302e-06
-0.000185865
-2.76999e-05
-0.000190316
-5.81102e-05
-0.00019005
-8.07427e-05
-0.000184506
-9.5092e-05
-0.000174843
-0.000101284
-0.000160641
-9.94975e-05
-0.000143653
-9.05665e-05
-0.000123239
-7.52131e-05
-0.000101672
-5.49122e-05
-7.78195e-05
-3.08194e-05
-5.45719e-05
-4.8474e-06
-3.04698e-05
2.1688e-05
-9.01429e-06
4.67261e-05
1.19452e-05
6.91414e-05
2.86137e-05
8.71978e-05
4.39769e-05
0.000100403
5.45016e-05
0.000107884
6.38888e-05
0.000110171
6.90975e-05
0.000107557
7.39827e-05
0.000101365
7.65384e-05
9.28108e-05
7.92739e-05
8.33222e-05
8.12927e-05
7.45201e-05
8.20336e-05
6.68358e-05
8.35586e-05
6.17886e-05
8.07709e-05
5.80737e-05
8.12654e-05
5.75971e-05
7.26157e-05
5.71746e-05
7.18583e-05
6.00813e-05
5.5204e-05
6.06107e-05
5.45656e-05
6.39485e-05
2.82547e-05
6.01189e-05
3.05169e-05
5.76937e-05
-8.72376e-06
4.09602e-05
1.42447e-06
2.81116e-05
-5.6903e-05
-6.18657e-06
-2.36758e-05
-2.21834e-05
-0.000111404
-7.20029e-05
-2.10187e-05
-7.29654e-05
-0.000164706
-0.000141524
3.65662e-05
-0.000105819
-0.000221171
-0.000198066
0.000127903
-0.000134966
-0.000221096
-0.000179388
1.84158e-05
-0.000260966
0.000231575
5.4738e-05
-0.000880304
-0.000549754
0.00162293
0.000437784
-0.00260302
-0.00186673
0.00598471
0.00164289
-0.00829896
0.00241584
-0.00422044
-0.00826704
0.0310945
0.00789084
-0.0429672
-0.00317313
0.0260341
0.000637426
-0.00733038
-0.00623021
0.0141173
-0.00498118
0.00531453
0.0391144
-0.12692
-0.0413539
0.222071
0.0160881
-0.146034
-0.00148715
0.0216549
-0.0359254
0.100158
0.0253357
-0.171953
-0.0415146
0.195604
0.0773809
-0.308628
-0.00279302
0.196984
-0.016557
0.0528602
0.0203124
-0.127766
-0.0859273
0.299408
0.0864564
-0.456016
0.0134767
0.175034
-0.0555139
0.21758
0.0665325
-0.340816
0.000279529
0.148612
-0.0943759
0.283042
-0.010235
-0.213459
0.0719787
-0.250083
-0.0178919
0.232303
-0.0595657
0.134451
-0.0850065
0.000383591
0.000128597
-0.000375128
0.000369928
7.98716e-05
0.000343282
5.50126e-05
0.000317575
6.71135e-05
0.000288215
7.17841e-05
0.0002503
4.00276e-05
0.000204974
-4.37676e-06
0.00015268
-2.6639e-05
8.95096e-05
-2.53319e-05
1.48406e-05
-2.50716e-05
-6.50997e-05
-4.12366e-05
-0.000140778
-6.87372e-05
-0.000203877
-9.37463e-05
-0.000249772
-0.000105292
-0.00027749
-9.93907e-05
-0.00028807
-7.82088e-05
-0.000283119
-4.65893e-05
-0.000264413
-9.29052e-06
-0.000233761
2.90943e-05
-0.000192594
6.36671e-05
-0.000141768
9.04187e-05
-8.20773e-05
0.000108107
-1.52037e-05
0.000118657
5.56494e-05
0.000125346
0.000126013
0.000130069
0.000191239
0.000131781
0.000247637
0.000127453
0.000292876
0.000114482
0.000325621
9.24798e-05
0.000345047
6.29934e-05
0.00035075
2.82931e-05
0.000342998
-9.64951e-06
0.000322823
-4.89075e-05
0.000291906
-8.75798e-05
0.000252286
-0.000123587
0.00020631
-0.000155609
0.000156536
-0.000182661
0.000105763
-0.000204723
5.66856e-05
-0.000221273
1.17998e-05
-0.00023243
-2.7037e-05
-0.000237219
-5.8396e-05
-0.000236031
-8.15611e-05
-0.000228179
-9.60193e-05
-0.000215236
-0.000101925
-0.000196721
-9.94495e-05
-0.000174946
-8.9481e-05
-0.000149091
-7.27536e-05
-0.000122081
-5.08396e-05
-9.24073e-05
-2.49341e-05
-6.37564e-05
2.91752e-06
-3.41777e-05
3.13499e-05
-8.12028e-06
5.81514e-05
1.72695e-05
8.21501e-05
3.71804e-05
0.000101472
5.552e-05
0.000115601
6.78262e-05
0.00012358
7.88518e-05
0.000125955
8.47887e-05
0.000123029
9.04798e-05
0.000116161
9.35088e-05
0.000106704
9.68102e-05
9.61044e-05
9.95272e-05
8.62371e-05
0.000100502
7.74014e-05
0.000102967
7.14485e-05
9.97401e-05
6.66813e-05
0.000101429
6.54945e-05
9.1072e-05
6.40015e-05
9.16659e-05
6.62533e-05
7.12194e-05
6.54283e-05
7.21877e-05
6.78942e-05
3.91922e-05
6.19079e-05
4.40352e-05
5.79482e-05
-5.82216e-06
3.74202e-05
1.00438e-05
2.23163e-05
-6.56781e-05
-1.81917e-05
-1.82272e-05
-3.56779e-05
-0.000137555
-9.5295e-05
-9.65536e-06
-9.35255e-05
-0.000215605
-0.000178812
7.60676e-05
-0.000130197
-0.000308604
-0.00025038
0.000214719
-0.000161609
-0.000335828
-0.000232221
7.17166e-05
-0.000314306
0.000302768
6.49995e-05
-0.00126785
-0.000682322
0.00236787
0.000553741
-0.00382221
-0.00219842
0.00875729
0.00210154
-0.0125874
0.00248204
-0.00458868
-0.00997111
0.0435516
0.0102834
-0.0632224
-0.0046867
0.0410311
0.000961724
-0.0128916
-0.00895344
0.0241619
-0.00534442
0.00166349
0.0470845
-0.179825
-0.050217
0.319292
0.0253866
-0.222145
-0.00539019
0.0524392
-0.0464067
0.141229
0.026447
-0.244773
-0.0514333
0.273529
0.101408
-0.461432
-0.00335389
0.301759
-0.013769
0.0632729
0.0194283
-0.160962
-0.110199
0.429034
0.108172
-0.674426
0.0113341
0.271887
-0.0617162
0.290632
0.0827113
-0.485258
-0.00971946
0.241036
-0.115652
0.38891
-0.00713587
-0.322041
0.0838412
-0.341115
-0.0303747
0.346479
-0.0736041
0.177617
-0.128669
0.000394364
0.000120525
-0.000389163
0.000381432
8.2077e-05
0.000356699
5.64031e-05
0.000334099
5.70077e-05
0.000309935
5.58554e-05
0.00027547
2.79694e-05
0.000229989
-1.2492e-05
0.000176996
-3.57123e-05
0.000116703
-3.59113e-05
4.67569e-05
-3.30307e-05
-3.04812e-05
-4.50072e-05
-0.000107589
-7.05494e-05
-0.000175235
-9.73274e-05
-0.000226141
-0.000112648
-0.000257282
-0.000109259
-0.000269113
-8.72718e-05
-0.000263523
-5.16571e-05
-0.000242829
-8.17034e-06
-0.000209609
3.77228e-05
-0.000166231
8.00613e-05
-0.000114263
0.000113359
-5.45691e-05
0.000135079
1.17771e-05
0.000146836
8.23784e-05
0.000152817
0.000153123
0.000156371
0.000219031
0.000157261
0.000275781
0.000151964
0.000320706
0.000136641
0.000352589
0.000110131
0.000370883
7.42251e-05
0.000375283
3.20356e-05
0.000365978
-1.37985e-05
0.000343935
-6.10027e-05
0.000310891
-0.000107445
0.000268992
-0.000150633
0.000220658
-0.000188909
0.000168493
-0.00022107
0.000115392
-0.000247201
6.41898e-05
-0.000266737
1.75306e-05
-0.000279832
-2.26585e-05
-0.000285187
-5.49266e-05
-0.000283245
-7.86016e-05
-0.000273151
-9.31756e-05
-0.000256949
-9.88424e-05
-0.000234086
-9.57597e-05
-0.0002075
-8.48679e-05
-0.000176145
-6.68958e-05
-0.000143666
-4.35132e-05
-0.000108091
-1.59396e-05
-7.3986e-05
1.36412e-05
-3.88053e-05
4.38281e-05
-8.05838e-06
7.22484e-05
2.19329e-05
9.76958e-05
4.52153e-05
0.000118148
6.67415e-05
0.000133072
8.10067e-05
0.000141416
9.39208e-05
0.00014374
0.000100829
0.000140361
0.000107598
0.000132667
0.000111407
0.000122168
0.000115507
0.000110299
0.000119247
9.92318e-05
0.000120549
8.90613e-05
0.000124296
8.20553e-05
0.00012057
7.59872e-05
0.000123912
7.39009e-05
0.000111626
7.09743e-05
0.000114239
7.23138e-05
8.955e-05
6.96027e-05
9.3075e-05
7.08489e-05
5.25611e-05
6.19408e-05
6.13197e-05
5.60109e-05
-6.94132e-07
3.06282e-05
2.30161e-05
1.28175e-05
-7.30543e-05
-3.53201e-05
-7.17135e-06
-5.46004e-05
-0.000164467
-0.000125937
1.05726e-05
-0.000121256
-0.000272373
-0.000225976
0.000132138
-0.000163097
-0.000412886
-0.000315427
0.00033137
-0.00019703
-0.000482312
-0.000301516
0.000156886
-0.000375149
0.000363969
5.72769e-05
-0.0017092
-0.000825237
0.00324747
0.000660076
-0.00529109
-0.00257121
0.0120108
0.00251926
-0.0176621
0.00219575
-0.00425072
-0.0117616
0.0575157
0.0127294
-0.0877091
-0.00646432
0.0602529
0.00156868
-0.0208272
-0.0119707
0.0378398
-0.00558697
-0.00475101
0.0542111
-0.240115
-0.0585696
0.431969
0.0366978
-0.317976
-0.00998928
0.0991423
-0.0569837
0.188278
0.0251074
-0.326828
-0.0621903
0.360861
0.126362
-0.649883
-0.00301438
0.431146
-0.00665516
0.0669092
0.016867
-0.184483
-0.13656
0.582452
0.128298
-0.939308
0.00750084
0.392696
-0.0641843
0.362317
0.0979427
-0.6474
-0.0230775
0.362047
-0.135431
0.501213
-0.00232404
-0.455216
0.0930062
-0.436502
-0.0454244
0.484863
-0.0867631
0.218888
-0.184335
0.0004078
0.000112411
-0.000403594
0.000396459
8.06665e-05
0.000374844
5.53349e-05
0.000354044
4.71419e-05
0.000331717
4.05147e-05
0.000298155
1.65871e-05
0.000251292
-1.89581e-05
0.000196705
-4.38827e-05
0.000137995
-4.91149e-05
7.38086e-05
-4.75541e-05
2.76919e-06
-5.53717e-05
-7.12722e-05
-7.53884e-05
-0.00014015
-9.92664e-05
-0.00019496
-0.00011541
-0.000230113
-0.000114228
-0.000244397
-9.2853e-05
-0.000239176
-5.52125e-05
-0.000216832
-7.43085e-06
-0.000180488
4.46409e-05
-0.000133598
9.45198e-05
-7.90097e-05
0.000135428
-1.83771e-05
0.000163034
4.7418e-05
0.000177645
0.00011699
0.000183508
0.000187209
0.000185422
0.000253234
0.000184772
0.000310067
0.000178338
0.000354353
0.000161053
0.000384802
0.000130387
0.000401257
8.79294e-05
0.00040373
3.77399e-05
0.000392411
-1.65275e-05
0.000368148
-7.20967e-05
0.000332697
-0.000126705
0.00028833
-0.000177523
0.000237564
-0.000222498
0.000183003
-0.000260089
0.000127579
-0.000290509
7.42383e-05
-0.000313228
2.58099e-05
-0.000328509
-1.56811e-05
-0.000334661
-4.87591e-05
-0.000332125
-7.28306e-05
-0.000319796
-8.74217e-05
-0.000300266
-9.27933e-05
-0.000272895
-8.90879e-05
-0.000241359
-7.73028e-05
-0.000204327
-5.81416e-05
-0.00016627
-3.33732e-05
-0.000124639
-4.22384e-06
-8.49886e-05
2.69756e-05
-4.40468e-05
5.88054e-05
-8.51949e-06
8.87192e-05
2.62478e-05
0.000115494
5.30067e-05
0.000136946
7.79106e-05
0.000152539
9.42763e-05
0.000161111
0.000109305
0.000163246
0.000117399
0.00015927
0.000125492
0.000150601
0.000130377
0.00013892
0.000135486
0.000125617
0.000140596
0.000113213
0.000142299
0.000101511
0.000147744
9.33025e-05
0.000143429
8.56635e-05
0.000149018
8.24887e-05
0.00013451
7.77285e-05
0.000140019
7.78985e-05
0.00011048
7.27002e-05
0.000117831
7.2375e-05
6.86842e-05
5.96551e-05
8.31964e-05
5.1312e-05
7.00196e-06
1.98047e-05
4.14663e-05
-1.16933e-06
-7.8774e-05
-5.86926e-05
1.09973e-05
-8.00612e-05
-0.000192123
-0.000165523
4.18018e-05
-0.000157688
-0.000335496
-0.000285168
0.00020791
-0.000206552
-0.00053561
-0.000396004
0.000482763
-0.000243831
-0.00066461
-0.000391101
0.000283154
-0.000446063
0.000405265
2.47421e-05
-0.00218961
-0.000979815
0.00424874
0.000745846
-0.00700003
-0.00294703
0.0157277
0.00293476
-0.0235242
0.00242471
-0.00372675
-0.0118849
0.0718321
0.0150194
-0.114612
-0.0084865
0.0837857
0.00263104
-0.0318385
-0.0151993
0.0558173
-0.00567578
-0.0142958
0.0602547
-0.306567
-0.0663829
0.55859
0.0496698
-0.434656
-0.0147674
0.163607
-0.0668547
0.240419
0.0213504
-0.414992
-0.0741401
0.456383
0.15065
-0.874935
-0.00167554
0.58348
0.00561473
0.059613
0.0136868
-0.192555
-0.164315
0.760437
0.145077
-1.24872
0.00179801
0.535984
-0.0626376
0.426753
0.111816
-0.821869
-0.0388329
0.512685
-0.153079
0.615395
0.00382583
-0.612191
0.0991835
-0.531921
-0.0625122
0.646509
-0.0985071
0.254811
-0.25163
0.000421519
0.000103316
-0.000417942
0.000410808
7.5872e-05
0.000392215
5.12365e-05
0.00037239
3.69504e-05
0.000350015
2.59215e-05
0.000316301
5.3555e-06
0.000268529
-2.52618e-05
0.000212481
-5.16092e-05
0.000153962
-6.31835e-05
9.35707e-05
-6.58292e-05
2.8766e-05
-7.11373e-05
-3.97696e-05
-8.42283e-05
-0.000106357
-0.000101516
-0.000162381
-0.000114719
-0.000200575
-0.00011385
-0.000217736
-9.33346e-05
-0.000213959
-5.5258e-05
-0.000190993
-5.41841e-06
-0.000151843
5.0516e-05
-0.000100624
0.000106334
-4.1593e-05
0.000154711
2.20625e-05
0.000189639
8.87009e-05
0.000209324
0.000157487
0.000216737
0.000226673
0.000217261
0.000292363
0.000214302
0.000349278
0.000206138
0.000393093
0.000187161
0.000421978
0.000153038
0.000436076
0.000104335
0.000435974
4.58084e-05
0.000422096
-1.75104e-05
0.00039519
-8.19715e-05
0.000356958
-0.000145194
0.000309804
-0.000204159
0.000256398
-0.000256405
0.000199332
-0.000299864
0.000141491
-0.000334828
8.58841e-05
-0.000360901
3.55652e-05
-0.00037862
-7.2745e-06
-0.000385855
-4.10981e-05
-0.000382964
-6.54234e-05
-0.000368446
-7.9857e-05
-0.000345492
-8.47797e-05
-0.000313371
-8.03334e-05
-0.000276642
-6.75858e-05
-0.000233645
-4.71974e-05
-0.000189811
-2.10407e-05
-0.000141888
9.67209e-06
-9.65491e-05
4.2451e-05
-4.96384e-05
7.58768e-05
-9.2244e-06
0.000107212
3.05126e-05
0.000135236
6.08414e-05
0.000157591
8.93073e-05
0.000173751
0.000107887
0.000182432
0.000125238
0.000184247
0.000134705
0.000179543
0.000144342
0.000169749
0.000150584
0.000156748
0.000156883
0.000141836
0.000163735
0.00012795
0.000165882
0.000114497
0.000173517
0.000104926
0.000168471
9.54107e-05
0.000177057
9.09493e-05
0.000159931
8.38949e-05
0.000169478
8.26261e-05
0.000134286
7.42332e-05
0.000147162
7.19656e-05
8.79159e-05
5.43624e-05
0.000110703
4.31422e-05
1.76749e-05
3.94705e-06
6.68751e-05
-2.06549e-05
-8.24927e-05
-8.97745e-05
3.8325e-05
-0.000113492
-0.000220459
-0.000216131
8.68755e-05
-0.000204772
-0.000405533
-0.00035917
0.0003074
-0.000263133
-0.000678538
-0.000495669
0.000674832
-0.000305311
-0.000887107
-0.000505629
0.000460908
-0.000530536
0.000415395
-4.03764e-05
-0.00269006
-0.00114819
0.0053529
0.000799501
-0.00893042
-0.00331993
0.019873
0.00331821
-0.0301395
0.00235515
-0.00274893
-0.0133985
0.0875908
0.0196587
-0.147671
-0.0107575
0.114232
0.00438464
-0.0468638
-0.0185739
0.078931
-0.00548154
-0.0274026
0.0650212
-0.377633
-0.0738159
0.6974
0.0636743
-0.572849
-0.0191536
0.246478
-0.0749982
0.296319
0.0156788
-0.505626
-0.0870356
0.559122
0.173095
-1.13501
0.000292398
0.75629
0.0234343
0.0364644
0.0116112
-0.180732
-0.191969
0.963996
0.1568
-1.5975
-0.00636857
0.699159
-0.0574847
0.477871
0.124285
-1.00366
-0.0554545
0.69241
-0.168161
0.728033
0.0108678
-0.791293
0.102373
-0.623493
-0.0810243
0.829863
-0.108507
0.282217
-0.329923
0.000434971
9.1983e-05
-0.000431728
0.000423949
6.74794e-05
0.000407424
4.39261e-05
0.000387807
2.58011e-05
0.000364468
1.15643e-05
0.000330355
-6.49596e-06
0.000282646
-3.26657e-05
0.000226048
-5.93408e-05
0.000166934
-7.62868e-05
0.000107511
-8.35848e-05
4.65666e-05
-8.81634e-05
-1.67411e-05
-9.48745e-05
-7.90406e-05
-0.000104128
-0.000133482
-0.000111524
-0.000172713
-0.000108499
-0.000192134
-8.79947e-05
-0.000190406
-5.01959e-05
-0.000168184
-1.28858e-07
-0.000127658
5.70727e-05
-7.27386e-05
0.000116113
-8.47391e-06
0.000170128
6.02971e-05
0.000212287
0.000130231
0.000238728
0.000199874
0.000250044
0.00026844
0.000250591
0.000333635
0.000245116
0.000390817
0.000234335
0.000434864
0.000213498
0.000462849
0.000176766
0.000474723
0.000122779
0.000471714
5.61659e-05
0.000454852
-1.66104e-05
0.000424972
-9.04868e-05
0.00038367
-0.000162735
0.000333426
-0.000230295
0.000277131
-0.000290407
0.000217409
-0.000340258
0.000157029
-0.000380045
9.89571e-05
-0.000409572
4.649e-05
-0.00042993
2.09214e-06
-0.000438591
-3.25369e-05
-0.000435731
-5.70252e-05
-0.000419203
-7.11123e-05
-0.000392807
-7.53837e-05
-0.000355676
-7.00191e-05
-0.000313448
-5.61882e-05
-0.0002641
-3.44919e-05
-0.000214208
-6.91422e-06
-0.000159671
2.53743e-05
-0.000108453
5.97137e-05
-5.53137e-05
9.47094e-05
-9.89061e-06
0.000127412
3.50362e-05
0.000156623
6.90244e-05
0.000179792
0.000101242
0.00019642
0.000122129
0.000205094
0.000141997
0.000206466
0.000152997
0.000200907
0.000164362
0.000189849
0.000172226
0.000175398
0.000179855
0.000158696
0.000188851
0.000143182
0.000191431
0.000127737
0.000201837
0.000116645
0.000195831
0.000104911
0.000208345
9.89666e-05
0.000188062
8.90908e-05
0.00020312
8.61141e-05
0.000161213
7.36942e-05
0.000181869
6.91118e-05
0.000110592
4.53344e-05
0.000145084
3.07812e-05
3.17222e-05
-1.80254e-05
0.00010109
-4.66789e-05
-8.38882e-05
-0.00013017
7.74551e-05
-0.00015638
-0.000249491
-0.000280062
0.000149492
-0.000264554
-0.00048327
-0.000451106
0.000435717
-0.000335588
-0.000843806
-0.000618438
0.000914762
-0.000385124
-0.00115458
-0.000650206
0.000701924
-0.000632717
0.000382091
-0.00014626
-0.00318747
-0.0013333
0.00653597
0.000808661
-0.0110543
-0.00369089
0.0244003
0.00364713
-0.0374519
0.00217504
-0.0012611
-0.0145746
0.104342
0.0206433
-0.182893
-0.0136012
0.148509
0.00887993
-0.0692148
-0.0220665
0.11003
-0.00473773
-0.0447363
0.068432
-0.451424
-0.0811632
0.845407
0.0778027
-0.732597
-0.0226414
0.346989
-0.0802468
0.353979
0.00910792
-0.594937
-0.101536
0.669792
0.190452
-1.42683
0.00184642
0.944905
0.0463642
-0.00806024
0.0128302
-0.147199
-0.217075
1.19388
0.162233
-1.97682
-0.0180964
0.879492
-0.0501508
0.50993
0.135703
-1.18954
-0.0708625
0.89896
-0.180474
0.837568
0.0183708
-0.990214
0.102926
-0.708122
-0.100297
1.03301
-0.117227
0.299068
-0.418835
0.000446171
7.87627e-05
-0.000443909
0.000434097
5.61303e-05
0.000419055
3.35351e-05
0.000399634
1.32434e-05
0.000375389
-2.92176e-06
0.00034105
-1.89602e-05
0.00029417
-4.11144e-05
0.000238051
-6.67142e-05
0.000178371
-8.66647e-05
0.000118467
-9.73082e-05
5.88793e-05
-0.000101796
-7.04498e-07
-0.000103628
-5.84221e-05
-0.000105289
-0.000109493
-0.000105707
-0.000147703
-9.8622e-05
-0.00016805
-7.69146e-05
-0.000168162
-3.93598e-05
-0.000147667
9.91634e-06
-0.000107665
6.63376e-05
-5.11058e-05
0.000125703
1.71948e-05
0.000182356
9.15142e-05
0.000229755
0.000166699
0.000262898
0.000239545
0.00027992
0.000308942
0.000282706