/*--------------------------------*- C++ -*----------------------------------*\
| =========                 |                                                 |
| \\      /  F ield         | OpenFOAM: The Open Source CFD Toolbox           |
|  \\    /   O peration     | Version:  2412                                  |
|   \\  /    A nd           | Website:  www.openfoam.com                      |
|    \\/     M anipulation  |                                                 |
\*---------------------------------------------------------------------------*/
FoamFile
{
    version     2.0;
    format      ascii;
    arch        "LSB;label=32;scalar=64";
    class       surfaceScalarField;
    location    "1.11";
    object      phi;
}
// * * * * * * * * * * * * * * * * * * * * * * * * * * * * * * * * * * * * * //

dimensions      [0 3 -1 0 0 0 0];

oriented        oriented;

internalField   nonuniform List<scalar> 
24930
(
0.0179707
0.0127625
-0.0307371
0.0106038
0.00736687
0.00695198
0.00365183
0.00517539
0.00177659
0.00420307
0.000972326
0.00358001
0.000623065
0.00313398
0.00044603
0.00279441
0.00033958
0.00252518
0.000269231
0.00230523
0.000219953
0.0021214
0.000183834
0.00196495
0.000156448
0.00182983
0.000135114
0.00171171
0.000118127
0.00160735
0.000104352
0.00151434
9.30061e-05
0.00143081
8.35331e-05
0.00135528
7.55306e-05
0.00128657
6.87002e-05
0.00122375
6.28167e-05
0.00116604
5.77076e-05
0.0011128
5.32384e-05
0.00106349
4.93034e-05
0.00101767
4.58182e-05
0.000974952
4.27146e-05
0.000935012
3.99374e-05
0.00089757
3.7441e-05
0.000862382
3.51878e-05
0.000829236
3.31465e-05
0.000797946
3.12909e-05
0.000768349
2.95987e-05
0.0007403
2.8051e-05
0.00071367
2.66318e-05
0.000688346
2.53271e-05
0.000664223
2.41252e-05
0.00064121
2.30156e-05
0.000619223
2.19895e-05
0.000598186
2.10389e-05
0.00057803
2.01572e-05
0.000558693
1.93381e-05
0.000540116
1.85767e-05
0.000522247
1.7868e-05
0.000505037
1.72084e-05
0.000488441
1.65936e-05
0.000472417
1.60213e-05
0.000456926
1.54872e-05
0.000441932
1.49907e-05
0.0004274
1.45271e-05
0.000413299
1.40973e-05
0.000399599
1.36958e-05
0.00038627
1.33255e-05
0.000373288
1.29793e-05
0.000360623
1.26627e-05
0.000348255
1.23662e-05
0.000336155
1.20988e-05
0.000324307
1.18474e-05
0.000312682
1.16255e-05
0.000301267
1.14152e-05
0.000290032
1.12361e-05
0.00027897
1.10634e-05
0.000268048
1.09247e-05
0.000257263
1.07866e-05
0.000246579
1.06866e-05
0.000236002
1.05801e-05
0.000225487
1.05172e-05
0.00021505
1.04394e-05
0.00020464
1.04121e-05
0.000194282
1.03598e-05
0.000183919
1.03657e-05
0.000173585
1.03349e-05
0.000163216
1.03704e-05
0.000152861
1.0356e-05
0.000142447
1.04147e-05
0.000132037
1.04105e-05
0.000121555
1.04819e-05
0.000111072
1.04823e-05
0.000100522
1.05483e-05
8.99654e-05
1.05553e-05
7.93828e-05
1.05811e-05
6.87671e-05
1.06144e-05
5.82322e-05
1.05337e-05
4.75891e-05
1.06422e-05
3.72184e-05
1.03699e-05
2.66609e-05
1.05567e-05
1.64626e-05
1.01977e-05
6.43526e-06
1.00268e-05
-4.03796e-06
1.0473e-05
-1.21352e-05
8.09606e-06
-2.50901e-05
1.29561e-05
-2.79212e-05
2.83099e-06
-4.37266e-05
1.58054e-05
-5.2541e-05
8.81645e-06
-4.34383e-05
-9.11077e-06
-8.79772e-05
4.45392e-05
-5.01358e-05
-3.7844e-05
-0.000112063
6.19314e-05
-6.19225e-05
-5.01312e-05
-8.76747e-05
2.57662e-05
-0.000169925
8.22773e-05
-2.05387e-05
-0.000149423
-0.000252104
0.000231565
-7.32252e-05
-0.000178866
-0.000230646
0.00015741
-0.0002162
-1.44099e-05
-8.85493e-05
-0.000127692
-0.000377939
0.000289417
-2.72306e-05
-0.000350721
-0.000419622
0.000392381
-0.000230906
-0.000188683
-0.000216673
-1.4287e-05
-0.000518032
0.000301392
-9.78361e-05
-0.00042019
-0.000167679
6.9809e-05
-0.00032692
0.000159266
-0.000351354
2.44946e-05
-6.03865e-05
-0.00029099
-0.000314982
0.000254581
-0.000492672
0.000177718
-0.000200344
-0.000292312
-0.000142654
0.0336839
0.016331
-0.0372525
0.0277446
0.0133063
0.0221898
0.00920656
0.0179143
0.00605214
0.0148674
0.00401927
0.0127064
0.00278403
0.011119
0.00203341
0.00990177
0.00155684
0.00893441
0.0012366
0.00814396
0.0010104
0.00748367
0.000844132
0.00692221
0.000717903
0.00643781
0.000619514
0.00601479
0.000541151
0.00564153
0.0004776
0.00530928
0.000425257
0.00501124
0.000381568
0.00474209
0.000344673
0.00449759
0.000313197
0.0042743
0.000286097
0.00406942
0.000262575
0.00388064
0.000242011
0.00370602
0.000223915
0.00354394
0.000207896
0.00339301
0.000193638
0.00325206
0.000180886
0.00312007
0.00016943
0.00299616
0.000159096
0.00287957
0.000149738
0.00276963
0.000141235
0.00266574
0.000133485
0.0025674
0.0001264
0.00247413
0.000119906
0.00238552
0.000113939
0.00230121
0.000108445
0.00222086
0.000103374
0.00214416
9.86874e-05
0.00207086
9.43472e-05
0.0020007
9.03226e-05
0.00193345
8.65855e-05
0.00186892
8.31123e-05
0.0018069
7.98803e-05
0.00174724
7.68722e-05
0.00168976
7.40689e-05
0.00163432
7.14582e-05
0.00158077
6.90232e-05
0.001529
6.67567e-05
0.00147888
6.46422e-05
0.00143029
6.26775e-05
0.00138313
6.08451e-05
0.0013373
5.91488e-05
0.00129271
5.75674e-05
0.00124925
5.61127e-05
0.00120685
5.47571e-05
0.00116543
5.35226e-05
0.0011249
5.23722e-05
0.00108518
5.13409e-05
0.00104622
5.03783e-05
0.00100792
4.95367e-05
0.000970237
4.87471e-05
0.00093308
4.8084e-05
0.000896416
4.74542e-05
0.000860145
4.69606e-05
0.000824251
4.64784e-05
0.000788626
4.61466e-05
0.00075327
4.58e-05
0.000718065
4.56219e-05
0.000683032
4.53974e-05
0.00064804
4.53625e-05
0.000613136
4.52427e-05
0.000578174
4.53362e-05
0.000543236
4.52968e-05
0.000508157
4.54968e-05
0.000473066
4.55038e-05
0.000437772
4.57768e-05
0.000402465
4.579e-05
0.000366931
4.60825e-05
0.000331409
4.60766e-05
0.000295711
4.62776e-05
0.000260023
4.63005e-05
0.000224413
4.61416e-05
0.000188609
4.64441e-05
0.000153584
4.53931e-05
0.00011776
4.63794e-05
8.3742e-05
4.4214e-05
4.90656e-05
4.4702e-05
1.46828e-05
4.48545e-05
-1.45854e-05
3.73641e-05
-5.68049e-05
5.51739e-05
-6.64408e-05
1.24681e-05
-0.000125559
7.49233e-05
-0.000140141
2.33958e-05
-0.000134734
-1.4516e-05
-0.000253593
0.000163395
-0.000154919
-0.000136516
-0.00035123
0.00025824
-0.000175383
-0.000225973
-0.000310323
0.000160683
-0.000472871
0.000244808
-8.38279e-05
-0.000538459
-0.000744675
0.000892403
-0.000234163
-0.000689381
-0.000773257
0.000696502
-0.000623904
-0.000163781
-0.000357021
-0.000394552
-0.00108956
0.00102195
-9.39523e-05
-0.00134632
-0.00127788
0.00157631
-0.000684104
-0.000782466
-0.0007801
8.17456e-05
-0.00155191
0.00107319
-0.000298198
-0.00167389
-0.00056365
0.000335277
-0.00104602
0.00064163
-0.00100991
-1.17e-05
-0.000209308
-0.00109158
-0.00102422
0.0010695
-0.0014882
0.000641686
-0.000558585
-0.00122193
-0.000559878
0.0414545
0.016028
-0.0411515
0.0391624
0.0155984
0.0352303
0.0131386
0.0309422
0.0103403
0.0270261
0.0079353
0.0237364
0.00607376
0.0210616
0.00470824
0.0188926
0.00372581
0.0171148
0.00301443
0.0156355
0.00248973
0.0143857
0.00209394
0.0133151
0.00178852
0.0123867
0.00154785
0.0115732
0.0013547
0.0108536
0.00119717
0.010212
0.00106687
0.00963579
0.000957761
0.00911506
0.000865394
0.00864181
0.000786438
0.00820954
0.000718359
0.00781291
0.000659202
0.00744748
0.000607435
0.00710954
0.000561849
0.00679595
0.000521472
0.00650406
0.000485522
0.00623159
0.000453359
0.00597656
0.000424457
0.00573727
0.000398381
0.00551225
0.000374767
0.00530017
0.00035331
0.00509991
0.000333752
0.00491044
0.000315873
0.00473086
0.000299487
0.00456038
0.000284432
0.00439826
0.000270569
0.00424386
0.000257778
0.0040966
0.000245955
0.00395594
0.000235008
0.00382141
0.000224857
0.00369256
0.000215433
0.003569
0.000206674
0.00345036
0.000198524
0.00333629
0.000190937
0.00322648
0.000183868
0.00312065
0.000177282
0.00301853
0.00017114
0.00291986
0.000165419
0.00282441
0.000160083
0.00273196
0.000155121
0.0026423
0.000150493
0.00255524
0.000146203
0.00247059
0.000142206
0.00238818
0.000138519
0.00230784
0.000135089
0.00222941
0.000131951
0.00215275
0.000129036
0.00207768
0.000126403
0.0020041
0.000123961
0.00193184
0.000121798
0.0018608
0.000119792
0.00179082
0.00011807
0.00172181
0.000116468
0.00165361
0.000115164
0.00158616
0.000113936
0.00151928
0.00011303
0.00145293
0.000112149
0.00138694
0.00011162
0.00132129
0.000111052
0.00125578
0.000110874
0.00119045
0.000110579
0.00112507
0.000110717
0.00105974
0.000110633
0.000994199
0.000111042
0.000928625
0.000111079
0.000862713
0.000111691
0.000796768
0.000111734
0.000730402
0.000112448
0.000664078
0.000112399
0.000597359
0.000112995
0.000530737
0.00011292
0.000464097
0.000112779
0.000397228
0.000113311
0.000331626
0.000110993
0.000264492
0.000113512
0.000200963
0.000107742
0.000135258
0.000110405
7.13296e-05
0.000108781
1.49852e-05
9.3708e-05
-6.20259e-05
0.000132184
-8.2786e-05
3.3228e-05
-0.000194867
0.000187004
-0.000213156
4.16846e-05
-0.000224004
-3.66684e-06
-0.000417745
0.000357134
-0.00026176
-0.000292502
-0.000607219
0.000603699
-0.000293531
-0.000539665
-0.000573241
0.000440388
-0.000781095
0.000452666
-0.000164972
-0.00115459
-0.00127109
0.00199853
-0.000408116
-0.00155236
-0.00140441
0.0016928
-0.00106359
-0.0005046
-0.00071569
-0.000742454
-0.00184096
0.00214721
-0.00016307
-0.00302422
-0.00222053
0.00363377
-0.00115263
-0.00185037
-0.00148644
0.000415541
-0.00265885
0.00224559
-0.000498804
-0.00383394
-0.00105495
0.000891424
-0.00183642
0.0014231
-0.00167751
-0.000170538
-0.000388455
-0.00238064
-0.0018442
0.00252526
-0.00252821
0.0013257
-0.000878293
-0.00287184
-0.00125584
0.045917
0.014729
-0.044618
0.0459986
0.0155168
0.0444179
0.0147193
0.0416923
0.0130659
0.0384471
0.0111806
0.0351409
0.00937988
0.0320415
0.00780766
0.0292632
0.00650416
0.0268247
0.00545289
0.0247
0.00461442
0.022848
0.00394602
0.0212265
0.00340993
0.0197986
0.00297584
0.0185328
0.00262046
0.0174036
0.00232632
0.0163902
0.00208026
0.0154756
0.0018724
0.0146458
0.0016952
0.0138894
0.00154287
0.0131968
0.00141093
0.0125601
0.00129585
0.0119727
0.00119485
0.0114289
0.00110567
0.0109238
0.00102652
0.0104534
0.000955913
0.0100141
0.000892653
0.00960284
0.000835736
0.00921689
0.000784329
0.00885393
0.000737733
0.00851188
0.000695361
0.00818892
0.000656715
0.00788343
0.000621367
0.00759397
0.000588954
0.00731924
0.000559162
0.0070581
0.00053172
0.00680949
0.000506392
0.00657248
0.000482974
0.0063462
0.000461286
0.00612989
0.000441173
0.00592283
0.000422494
0.00572438
0.00040513
0.00553393
0.00038897
0.00535094
0.000373924
0.0051749
0.000359901
0.00500534
0.000346833
0.00484183
0.000334644
0.00468396
0.000323284
0.00453134
0.000312688
0.00438363
0.000302824
0.00424049
0.000293627
0.00410159
0.000285088
0.00396666
0.000277136
0.00383538
0.000269785
0.00370752
0.000262952
0.00358278
0.00025668
0.00346095
0.000250864
0.00334177
0.000245584
0.00322503
0.0002407
0.00311049
0.000236342
0.00299796
0.00023232
0.00288721
0.000228825
0.00277808
0.000225602
0.00267032
0.000222923
0.00256382
0.000220445
0.00245832
0.000218541
0.00235372
0.000216752
0.00224976
0.000215583
0.0021464
0.000214423
0.00204334
0.000213938
0.00194059
0.000213328
0.00183785
0.000213465
0.0017352
0.000213288
0.00163228
0.000213962
0.00152932
0.000214041
0.00142587
0.000215141
0.00132237
0.000215235
0.00121822
0.000216602
0.00111413
0.000216483
0.00100938
0.000217749
0.000904811
0.000217482
0.000800062
0.000217525
0.000695067
0.000218303
0.000591792
0.000214266
0.000486216
0.000219086
0.000386205
0.000207751
0.000282222
0.000214387
0.000182155
0.000208846
9.17087e-05
0.000184154
-2.71321e-05
0.000251024
-6.47951e-05
7.08918e-05
-0.000239237
0.000361445
-0.00026237
6.48153e-05
-0.000301588
3.55452e-05
-0.000573191
0.000628734
-0.000363022
-0.00050267
-0.000871076
0.00111175
-0.000414245
-0.000996496
-0.000869915
0.000896056
-0.00109421
0.000676948
-0.000263077
-0.00198573
-0.00182831
0.00356375
-0.000589628
-0.00279104
-0.00211696
0.00322014
-0.00154098
-0.00108059
-0.0011712
-0.00111222
-0.00263255
0.00360856
-0.000231483
-0.00542529
-0.00324184
0.00664414
-0.00163092
-0.0034613
-0.00234095
0.00112559
-0.00382947
0.0037341
-0.000697897
-0.00696551
-0.00164901
0.00184254
-0.00267948
0.00245357
-0.00235158
-0.00049847
-0.000600189
-0.00413203
-0.00276443
0.0046895
-0.00358539
0.00214666
-0.00114142
-0.00531581
-0.00223427
0.049383
0.013535
-0.048189
0.0503459
0.014554
0.0503629
0.0147023
0.0493394
0.0140893
0.0474933
0.0130267
0.0451172
0.011756
0.042483
0.0104419
0.039797
0.0091901
0.0371942
0.0080557
0.034749
0.00705962
0.0324936
0.00620144
0.0304339
0.00546968
0.0285614
0.00484834
0.0268611
0.00432072
0.025316
0.00387146
0.023909
0.00348721
0.0226246
0.00315685
0.0214485
0.00287121
0.0203686
0.00262284
0.0193738
0.00240567
0.0184549
0.00221477
0.0176036
0.00204611
0.0168129
0.00189638
0.0160766
0.00176285
0.0153892
0.00164328
0.0147461
0.00153578
0.014143
0.00143877
0.0135764
0.00135092
0.013043
0.00127113
0.01254
0.00119843
0.0120647
0.00113201
0.0116149
0.00107117
0.0111885
0.0010153
0.0107838
0.000963901
0.010399
0.000916504
0.0100327
0.00087272
0.00968349
0.000832204
0.00935013
0.000794655
0.0090315
0.000759807
0.00872657
0.000727425
0.00843439
0.000697306
0.0081541
0.000669262
0.00788488
0.000643135
0.00762601
0.000618774
0.00737678
0.000596058
0.00713655
0.000574861
0.00690473
0.000555095
0.00668076
0.000536647
0.00646411
0.000519463
0.0062543
0.000503434
0.00605084
0.000488536
0.00585331
0.000474658
0.00566128
0.00046181
0.00547436
0.000449866
0.00529215
0.000438879
0.00511432
0.000428692
0.00494049
0.000419415
0.00477035
0.000410841
0.00460354
0.000403149
0.0044398
0.000396066
0.00427877
0.00038986
0.00412021
0.000384162
0.00396379
0.000379358
0.00380928
0.000374953
0.00365635
0.00037148
0.00350483
0.000368278
0.00335435
0.000366065
0.00320482
0.000363964
0.00305583
0.000362931
0.00290737
0.000361799
0.00275899
0.000361841
0.0026108
0.000361483
0.0024623
0.000362467
0.00231376
0.000362582
0.00216457
0.000364337
0.0020153
0.000364506
0.0018651
0.000366801
0.00171498
0.000366595
0.00156386
0.000368875
0.00141301
0.000368327
0.00126173
0.0003688
0.0011102
0.000369835
0.000960772
0.000363687
0.000808251
0.000371605
0.000663343
0.000352657
0.000512429
0.000365299
0.000368084
0.00035319
0.000234726
0.000317511
6.64199e-05
0.000419328
5.77612e-06
0.000131536
-0.00024333
0.000610551
-0.000273739
9.52234e-05
-0.000355524
0.000117337
-0.000707715
0.000980922
-0.000449071
-0.000761313
-0.00113243
0.00179511
-0.000530871
-0.00159805
-0.00119346
0.00155865
-0.00140631
0.000889785
-0.000377636
-0.0030144
-0.00240578
0.00559189
-0.000772713
-0.00442412
-0.00290292
0.00535035
-0.00205528
-0.00192824
-0.00173233
-0.00143515
-0.00345773
0.00533395
-0.000300092
-0.00858293
-0.00432426
0.0106683
-0.00210767
-0.00567789
-0.00334642
0.00236434
-0.0050463
0.00543398
-0.000900895
-0.0111109
-0.00234555
0.00328721
-0.00355748
0.0036655
-0.00302744
-0.00102851
-0.00084572
-0.00631374
-0.00376241
0.00760621
-0.00462357
0.00300781
-0.00132714
-0.00861223
-0.0034982
0.0528412
0.0126372
-0.0519434
0.0538691
0.0135261
0.0545521
0.0140193
0.0546201
0.0140213
0.0540205
0.0136264
0.0528224
0.012954
0.0511554
0.012109
0.0491659
0.0111797
0.0469885
0.0102331
0.0447339
0.00931423
0.0424843
0.00845104
0.0402958
0.00765819
0.0382029
0.00694118
0.0362242
0.00629943
0.034367
0.00572867
0.0326315
0.00522276
0.0310135
0.00477483
0.0295066
0.00437808
0.0281033
0.00402613
0.0267957
0.00371323
0.0255762
0.00343432
0.0244373
0.00318498
0.0233723
0.0029614
0.0223748
0.00276031
0.0214392
0.0025789
0.0205602
0.00241476
0.0197331
0.00226583
0.0189537
0.00213033
0.0182181
0.00200672
0.0175229
0.00189368
0.0168648
0.00179007
0.0162411
0.0016949
0.0156491
0.00160729
0.0150865
0.00152649
0.0145512
0.00145183
0.0140412
0.00138275
0.0135547
0.00131871
0.0130901
0.00125927
0.0126458
0.00120404
0.0122206
0.00115265
0.0118131
0.0011048
0.0114222
0.0010602
0.0110467
0.00101861
0.0106857
0.00097979
0.0103382
0.000943561
0.0100033
0.000909727
0.00968023
0.000878149
0.00936822
0.000848655
0.00906651
0.000821154
0.00877445
0.000795484
0.00849138
0.000771599
0.0082167
0.000749334
0.00794981
0.000728693
0.00769017
0.000709494
0.00743724
0.0006918
0.00719054
0.000675389
0.00694956
0.000660401
0.00671385
0.000646551
0.00648292
0.000634075
0.00625639
0.000622596
0.00603379
0.000612472
0.00581475
0.000603199
0.00559882
0.000595295
0.0053857
0.000588084
0.0051749
0.000582289
0.00496618
0.000577003
0.00475904
0.000573208
0.00455332
0.00056969
0.00434849
0.00056777
0.00414447
0.000565822
0.00394069
0.000565622
0.00373724
0.000564943
0.00353344
0.000566265
0.00332963
0.000566391
0.00312498
0.000568989
0.00292023
0.000569261
0.00271422
0.000572812
0.00250829
0.000572522
0.00230092
0.000576244
0.0020939
0.000575341
0.0018861
0.000576598
0.00167803
0.000577906
0.00147236
0.000569353
0.00126277
0.000581187
0.00106289
0.000552537
0.000854746
0.000573443
0.000656315
0.000551618
0.000469582
0.000504245
0.000242472
0.000646437
0.000142316
0.000231692
-0.000187001
0.000939868
-0.000227691
0.000135911
-0.00036946
0.000259108
-0.00080443
0.00141589
-0.000506599
-0.00105914
-0.00137683
0.00266533
-0.000632643
-0.00234223
-0.00153296
0.00245897
-0.00170862
0.00106543
-0.000506722
-0.0042163
-0.00298921
0.00807437
-0.000949424
-0.00646392
-0.00374743
0.00814836
-0.00260124
-0.00307443
-0.0024053
-0.00163106
-0.00430972
0.00723836
-0.000373786
-0.0125189
-0.0054432
0.0157377
-0.00256796
-0.00855313
-0.00449626
0.00429266
-0.00628981
0.00722752
-0.00111932
-0.0162814
-0.00313761
0.00530551
-0.0044501
0.00497799
-0.00369974
-0.00177888
-0.00112223
-0.00889124
-0.0048029
0.0112869
-0.00559976
0.00380467
-0.00141353
-0.0127985
-0.00506902
0.0565613
0.0119504
-0.0558745
0.0574145
0.0126729
0.0582106
0.0132231
0.0587367
0.0134952
0.0588707
0.0134924
0.0585667
0.013258
0.0578342
0.0128415
0.0567209
0.0122929
0.0552954
0.0116586
0.0536331
0.0109765
0.0518075
0.0102767
0.0498839
0.00958178
0.0479169
0.00890814
0.0459496
0.00826673
0.044014
0.00766428
0.0421326
0.00710421
0.04032
0.00658745
0.0385848
0.00611322
0.0369313
0.00567959
0.0353606
0.00528394
0.0338716
0.00492337
0.0324617
0.00459484
0.0311277
0.0042954
0.0298657
0.00402227
0.0286718
0.00377285
0.0275418
0.00354477
0.0264717
0.00333589
0.0254577
0.00314429
0.0244962
0.00296826
0.0235836
0.00280627
0.0227167
0.00265696
0.0218925
0.00251913
0.0211081
0.00239169
0.0203609
0.00227369
0.0196485
0.00216429
0.0189685
0.00206271
0.0183189
0.0019683
0.0176977
0.00188044
0.0171032
0.00179861
0.0165335
0.00172231
0.0159872
0.00165112
0.0154628
0.00158464
0.0149588
0.00152255
0.0144741
0.00146451
0.0140074
0.00141026
0.0135576
0.00135953
0.0131236
0.00131212
0.0127045
0.00126778
0.0122992
0.00122639
0.011907
0.00118771
0.0115269
0.00115167
0.0111582
0.00111804
0.0108001
0.00108682
0.0104518
0.00105775
0.0101127
0.0010309
0.00978209
0.00100599
0.00945931
0.000983179
0.00914377
0.000962089
0.00883482
0.000943025
0.00853194
0.000925481
0.00823449
0.000909928
0.007942
0.000895693
0.00765384
0.000883458
0.00736961
0.000872324
0.00708866
0.000863245
0.00681066
0.000855011
0.00653494
0.000848932
0.00626126
0.000843377
0.00598892
0.000840118
0.00571779
0.000836957
0.00544712
0.000836299
0.00517696
0.000835102
0.00490646
0.00083677
0.00463599
0.000836864
0.00436447
0.000840517
0.00409279
0.000840933
0.00381947
0.000846138
0.00354619
0.000845798
0.00327093
0.000851498
0.00299607
0.000850203
0.00271993
0.000852737
0.00244347
0.000854358
0.00216958
0.000843243
0.00189091
0.00085985
0.00162402
0.000819425
0.00134639
0.000851074
0.00108208
0.000815929
0.000829439
0.000756881
0.000532226
0.000943648
0.000381475
0.000382444
-4.58231e-05
0.00136716
-9.65767e-05
0.00018666
-0.000321466
0.000484002
-0.000840594
0.00193501
-0.000517402
-0.00138233
-0.0015846
0.00373252
-0.000703476
-0.00322335
-0.00187179
0.00362729
-0.00198876
0.00118238
-0.000645789
-0.00555927
-0.00356137
0.0109899
-0.00110963
-0.00891567
-0.0046281
0.0116668
-0.00316822
-0.00453432
-0.00318982
-0.00160948
-0.00518302
0.00923154
-0.000463198
-0.0172387
-0.00657081
0.0218453
-0.00299281
-0.0121311
-0.00576884
0.00706872
-0.00753998
0.00899864
-0.00137194
-0.0224495
-0.00401101
0.00794461
-0.00533664
0.00630361
-0.00436268
-0.00275285
-0.00142043
-0.0118335
-0.00583679
0.0157033
-0.00646453
0.00443241
-0.00137596
-0.017887
-0.00698152
0.0605665
0.0113873
-0.0600035
0.0612507
0.0119887
0.061965
0.0125088
0.0625867
0.0128735
0.0630181
0.0130609
0.0631954
0.0130807
0.0630829
0.012954
0.0626702
0.0127057
0.0619675
0.0123613
0.0609994
0.0119446
0.0598005
0.0114756
0.0584103
0.0109719
0.0568702
0.0104483
0.0552202
0.00991672
0.0534972
0.00938724
0.0517337
0.00886772
0.049957
0.0083642
0.0481891
0.0078811
0.0464473
0.00742138
0.0447444
0.00698681
0.0430896
0.00657814
0.0414891
0.00619538
0.0399465
0.00583796
0.0384639
0.00550494
0.0370416
0.00519508
0.0356793
0.00490706
0.0343758
0.00463944
0.0331292
0.00439082
0.0319377
0.00415981
0.0307989
0.00394509
0.0297104
0.00374541
0.0286699
0.00355961
0.027675
0.0033866
0.0267233
0.00322539
0.0258125
0.00307507
0.0249405
0.00293479
0.024105
0.0028038
0.023304
0.00268139
0.0225357
0.00256693
0.0217982
0.00245985
0.0210897
0.00235963
0.0204085
0.00226578
0.0197532
0.00217787
0.0191222
0.00209551
0.0185141
0.00201835
0.0179276
0.00194604
0.0173614
0.00187832
0.0168143
0.00181488
0.0162851
0.00175554
0.0157728
0.0017
0.0152763
0.00164816
0.0147946
0.00159972
0.0143268
0.00155466
0.0138719
0.00151264
0.013429
0.00147378
0.0129973
0.00143766
0.012576
0.0014045
0.0121643
0.00137382
0.0117613
0.001346
0.0113664
0.00132037
0.0109788
0.00129755
0.0105978
0.00127667
0.0102227
0.00125859
0.00985286
0.00124215
0.00948751
0.0012286
0.00912619
0.00121634
0.00876803
0.0012071
0.00841269
0.00119872
0.00805926
0.00119355
0.00770756
0.00118867
0.0073566
0.00118727
0.00700641
0.00118529
0.00665589
0.0011873
0.00630545
0.0011873
0.00595371
0.00119226
0.00560175
0.00119289
0.00524765
0.00120024
0.0048935
0.00119994
0.0045367
0.0012083
0.00418026
0.00120664
0.00382187
0.00121112
0.00346306
0.00121316
0.00310679
0.00119952
0.00274482
0.00122182
0.00239661
0.00116763
0.00203494
0.00121274
0.00169062
0.00116025
0.0013571
0.00109039
0.000976323
0.00132443
0.000759681
0.000599088
0.000232388
0.00189446
0.000140918
0.000278128
-0.000183187
0.000808108
-0.000785859
0.00253768
-0.000456924
-0.00171127
-0.00172939
0.00500499
-0.000720274
-0.00423247
-0.00218595
0.00509298
-0.00222907
0.00122548
-0.000785993
-0.00700234
-0.00410204
0.014306
-0.00124083
-0.0117769
-0.005514
0.01594
-0.00373776
-0.00631057
-0.00407461
-0.00127249
-0.00607262
0.0112295
-0.00058554
-0.0227258
-0.00767904
0.0289388
-0.0033604
-0.0164498
-0.00712256
0.0108309
-0.00877514
0.0106512
-0.00168367
-0.0295409
-0.00494428
0.0112052
-0.00619705
0.00755637
-0.00500713
-0.00394278
-0.00172209
-0.0151185
-0.00680021
0.0207814
-0.00716132
0.00479352
-0.00118502
-0.0238633
-0.00929238
0.0648506
0.0109029
-0.0643662
0.0654159
0.0114235
0.0660233
0.0119014
0.0666078
0.012289
0.0671067
0.012562
0.0674716
0.0127159
0.0676669
0.0127587
0.0676688
0.0127037
0.0674641
0.012566
0.0670487
0.01236
0.0664261
0.0120982
0.0656069
0.0117911
0.0646069
0.0114482
0.0634461
0.0110775
0.0621471
0.0106863
0.060734
0.0102808
0.0592311
0.00986709
0.0576619
0.00945031
0.056048
0.00903519
0.0544091
0.00862576
0.0527618
0.0082254
0.0511204
0.00783678
0.0494964
0.00746194
0.047899
0.00710233
0.0463353
0.00675884
0.0448104
0.00643196
0.043328
0.00612179
0.0418906
0.00582818
0.0404997
0.00555075
0.0391558
0.00528899
0.037859
0.00504227
0.0366087
0.00480993
0.035404
0.00459124
0.0342439
0.00438548
0.0331271
0.00419193
0.032052
0.00400989
0.0310171
0.00383868
0.0300209
0.00367765
0.0290616
0.00352621
0.0281377
0.00338377
0.0272475
0.0032498
0.0263895
0.00312379
0.0255621
0.00300528
0.0247637
0.00289383
0.023993
0.00278906
0.0232485
0.00269057
0.0225287
0.00259805
0.0218325
0.00251115
0.0211584
0.00242964
0.0205052
0.00235317
0.0198717
0.00228162
0.0192568
0.00221461
0.0186593
0.00215214
0.0180782
0.00209379
0.0175123
0.00203968
0.0169606
0.0019893
0.0164222
0.00194295
0.015896
0.00189998
0.0153811
0.0018609
0.0148766
0.00182485
0.0143816
0.00179264
0.0138951
0.00176311
0.0134163
0.00173742
0.0129444
0.00171405
0.0124784
0.0016946
0.0120177
0.00167704
0.0115613
0.00166358
0.0111086
0.00165143
0.0106585
0.00164365
0.0102107
0.00163643
0.00976404
0.00163394
0.00931847
0.00163087
0.00887255
0.00163322
0.00842678
0.00163307
0.00797938
0.00163967
0.00753165
0.00164062
0.00708114
0.00165075
0.00663042
0.00165066
0.00617617
0.00166255
0.00572212
0.00166068
0.00526523
0.00166802
0.00480769
0.0016707
0.00435239
0.00165481
0.00389036
0.00168385
0.0034439
0.00161409
0.002981
0.00167563
0.00253981
0.00160144
0.00210759
0.00152262
0.00162716
0.00180485
0.00132587
0.000900381
0.000684526
0.0025358
0.00052552
0.000437128
8.94875e-05
0.00124415
-0.000599652
0.00322681
-0.000292649
-0.00201827
-0.00177636
0.0064887
-0.000650643
-0.00535818
-0.00244226
0.0068846
-0.0024041
0.00118726
-0.00091185
-0.00849459
-0.00458731
0.0179814
-0.00132767
-0.0150365
-0.00636566
0.020978
-0.00428166
-0.00839459
-0.00503279
-0.000521488
-0.006971
0.0131677
-0.000763593
-0.0289332
-0.00874328
0.0369185
-0.00364741
-0.0215457
-0.00849168
0.0156752
-0.00996806
0.0121276
-0.00208099
-0.037428
-0.00590867
0.0150329
-0.00701357
0.00866127
-0.00561717
-0.0053392
-0.00199741
-0.0187382
-0.00761429
0.0263983
-0.00762459
0.0048038
-0.000802096
-0.0306858
-0.012096
0.0694225
0.0104755
-0.0689951
0.0699059
0.0109401
0.0704263
0.0113811
0.0709479
0.0117675
0.0714311
0.0120788
0.0718421
0.0123049
0.0721549
0.0124458
0.0723502
0.0125085
0.0724137
0.0125025
0.0723356
0.0124382
0.0721088
0.012325
0.0717296
0.0121703
0.0711974
0.0119805
0.0705144
0.0117605
0.0696861
0.0115145
0.0687211
0.0112459
0.0676305
0.0109577
0.0664276
0.0106532
0.0651274
0.0103354
0.0637457
0.0100074
0.0622987
0.00967247
0.0608018
0.00933367
0.0592698
0.00899392
0.0577162
0.00865592
0.056153
0.00832204
0.0545906
0.00799432
0.053038
0.00767442
0.0515025
0.00736369
0.0499901
0.00706312
0.0485056
0.00677345
0.0470528
0.00649514
0.0456342
0.00622844
0.044252
0.00597344
0.0429074
0.00573009
0.0416012
0.00549822
0.0403335
0.00527758
0.0391043
0.00506787
0.0379132
0.00486874
0.0367596
0.00467982
0.0356427
0.00450072
0.0345614
0.00433104
0.0335148
0.00417039
0.0325017
0.00401839
0.0315209
0.00387465
0.0305711
0.00373884
0.0296511
0.00361056
0.0287596
0.00348954
0.0278953
0.0033754
0.027057
0.00326796
0.0262433
0.0031668
0.0254531
0.00307184
0.0246851
0.00298264
0.023938
0.00289922
0.0232107
0.0028211
0.0225019
0.00274844
0.0218105
0.00268064
0.0211354
0.00261808
0.0204754
0.00255995
0.0198294
0.00250692
0.0191964
0.00245792
0.018575
0.00241396
0.0179645
0.00237361
0.0173636
0.00233833
0.0167715
0.0023062
0.0161868
0.00227928
0.0156089
0.00225496
0.0150364
0.00223609
0.0144687
0.00221912
0.0139044
0.00220794
0.0133432
0.00219769
0.0127834
0.00219376
0.012225
0.00218926
0.0116662
0.002192
0.0111076
0.00219167
0.0105469
0.00220036
0.0099857
0.00220184
0.00942087
0.00221557
0.0088555
0.00221604
0.00828547
0.00223258
0.0077153
0.00223084
0.00714106
0.00224225
0.00656572
0.00224603
0.00599202
0.0022285
0.0054103
0.00226557
0.00484571
0.00217869
0.00426132
0.00226001
0.0037033
0.00215946
0.00315122
0.0020747
0.00255196
0.00240411
0.00214344
0.0013089
0.00136996
0.00330928
0.00112411
0.000682973
0.000576464
0.0017918
-0.000225443
0.0040287
1.45357e-05
-0.00225825
-0.00167984
0.00818307
-0.000449114
-0.0065889
-0.00259632
0.00903182
-0.00247741
0.00106831
-0.00099814
-0.00997385
-0.00498757
0.0219708
-0.00135067
-0.0186735
-0.00713523
0.0267626
-0.0047587
-0.0107711
-0.00601578
0.000735852
-0.00786207
0.015014
-0.00102116
-0.0357741
-0.00974368
0.0456411
-0.00383023
-0.0274592
-0.00978449
0.0216295
-0.0110786
0.0134216
-0.00258225
-0.0459243
-0.00686725
0.019318
-0.00777028
0.00956429
-0.00616455
-0.00694494
-0.00220258
-0.0227002
-0.00818551
0.0323812
-0.00777614
0.00439444
-0.000171086
-0.0382909
-0.0155314
0.0743018
0.0100925
-0.0739188
0.074726
0.0105159
0.0751804
0.0109266
0.0756444
0.0113035
0.076092
0.0116312
0.0764988
0.0118981
0.0768448
0.0120998
0.0771155
0.0122378
0.0773005
0.0123175
0.0773925
0.0123462
0.0773856
0.0123318
0.0772748
0.0122811
0.0770557
0.0121996
0.0767245
0.0120918
0.0762779
0.0119611
0.0757141
0.0118097
0.0750328
0.011639
0.0742358
0.0114502
0.0733271
0.0112441
0.0723125
0.011022
0.0712001
0.0107849
0.0699992
0.0105345
0.0687207
0.0102724
0.0673758
0.0100008
0.0659762
0.00972168
0.0645332
0.00943725
0.063058
0.00914965
0.0615608
0.00886093
0.0600509
0.00857298
0.0585369
0.0082875
0.057026
0.00800599
0.0555247
0.00772972
0.0540384
0.00745973
0.0525717
0.00719689
0.051128
0.00694185
0.0497105
0.0066951
0.0483214
0.00645701
0.0469624
0.00622779
0.0456346
0.00600757
0.0443389
0.00579639
0.0430758
0.00559421
0.0418452
0.00540095
0.0406471
0.00521649
0.0394811
0.00504064
0.0383467
0.00487326
0.0372431
0.00471409
0.0361697
0.00456299
0.0351254
0.00441967
0.0341093
0.00428401
0.0331204
0.00415568
0.0321576
0.00403464
0.0312198
0.00392046
0.0303057
0.00381326
0.0294144
0.00371248
0.0285444
0.00361841
0.0276947
0.00353033
0.026864
0.00344879
0.0260511
0.0033728
0.0252548
0.00330325
0.0244739
0.00323881
0.0237071
0.0031808
0.0229533
0.00312743
0.022211
0.00308058
0.0214794
0.00303783
0.0207569
0.00300183
0.0200426
0.00296926
0.0193349
0.00294379
0.0186331
0.00292089
0.0179355
0.00290556
0.0172416
0.0028916
0.0165494
0.00288592
0.015859
0.00287972
0.015168
0.00288302
0.014477
0.00288262
0.0137833
0.00289405
0.0130887
0.00289647
0.0123894
0.00291491
0.0116889
0.00291651
0.0109823
0.0029392
0.0102748
0.00293827
0.00956172
0.00295537
0.00884666
0.00296109
0.0081322
0.00294296
0.00740803
0.00298974
0.00670217
0.00288454
0.00597262
0.00298956
0.00527427
0.00285781
0.00457742
0.00277154
0.00383657
0.00314495
0.00329395
0.00185153
0.00236784
0.00423538
0.00200854
0.00104227
0.00131992
0.00248043
0.000378249
0.00497037
0.000558619
-0.00243862
-0.00138057
0.0101223
-3.94688e-05
-0.00793
-0.00259003
0.0115824
-0.00239703
0.000875335
-0.00100613
-0.0113647
-0.00526368
0.0262284
-0.00128343
-0.0226537
-0.00776576
0.033245
-0.00511213
-0.0134248
-0.00695036
0.0025739
-0.00871262
0.0167762
-0.00137369
-0.0431131
-0.0106617
0.0549291
-0.00388392