/*--------------------------------*- C++ -*----------------------------------*\
| =========                 |                                                 |
| \\      /  F ield         | OpenFOAM: The Open Source CFD Toolbox           |
|  \\    /   O peration     | Version:  2412                                  |
|   \\  /    A nd           | Website:  www.openfoam.com                      |
|    \\/     M anipulation  |                                                 |
\*---------------------------------------------------------------------------*/
FoamFile
{
    version     2.0;
    format      ascii;
    arch        "LSB;label=32;scalar=64";
    class       volVectorField;
    location    "0.765";
    object      ddt0(U);
}
// * * * * * * * * * * * * * * * * * * * * * * * * * * * * * * * * * * * * * //

dimensions      [0 1 -2 0 0 0 0];

internalField   nonuniform List<vector> 
12600
(
(2.9693 0 -0.511247)
(2.81361 -1.07811e-17 0.917342)
(0.59457 -8.12215e-18 0.346821)
(-4.92816 0 -1.6827)
(-7.66155 1.05166e-18 -3.29916)
(-3.32275 0 -1.59729)
(7.19315 -2.3935e-19 3.47253)
(16.2117 0 7.27508)
(14.1801 0 3.94584)
(-2.09983 0 -6.58093)
(-15.6434 0 -10.4926)
(-12.9531 -2.131e-17 -5.52991)
(5.2533 -1.27026e-17 5.88756)
(22.822 0 12.7196)
(19.4616 -5.59082e-17 6.02867)
(-4.92976 0 -9.01555)
(-24.825 -3.45622e-18 -15.6595)
(-15.8061 0 -3.68038)
(15.332 -3.09703e-18 14.9313)
(31.0029 0 15.0946)
(2.75025 0 -10.574)
(-48.697 0 -31.9563)
(-48.6993 7.72306e-16 -3.68737)
(36.9287 -7.94095e-16 58.1017)
(114.09 -1.1127e-16 68.0834)
(103.762 -6.20466e-16 8.79665)
(-45.0278 0 -83.4158)
(-123.723 0 -74.5678)
(-50.2976 0 -18.4037)
(8.28437 -2.19959e-17 8.93618)
(5.13294 1.52047e-16 0.672738)
(-10.4261 0 -7.29482)
(-6.2043 0 -1.8744)
(5.44689 -1.87032e-17 4.97133)
(5.27038 4.67372e-17 3.13157)
(-3.62691 0 -2.67578)
(-7.31068 0 -3.89029)
(-2.23475 -6.18131e-17 -0.132638)
(3.09831 0 2.7036)
(2.31951 2.32447e-18 1.55635)
(-1.82034 3.40015e-17 -1.05126)
(-3.42307 -1.71664e-18 -1.6979)
(-1.11871 0 -0.0978297)
(1.54204 -1.4422e-17 1.19596)
(1.72325 1.01798e-17 0.81464)
(0.276593 -3.14492e-17 -0.291139)
(-0.478304 1.20556e-17 -0.762073)
(0.207625 0 -0.414856)
(1.31487 9.70405e-18 0.0500629)
(1.82919 1.26636e-18 0.119224)
(1.72547 0 -0.157116)
(1.67343 -5.92042e-19 -0.370782)
(1.96636 -3.81629e-17 -0.351813)
(2.16953 0 -0.355464)
(2.16071 9.40479e-17 -0.32022)
(1.80057 0 -0.465932)
(0.809656 0 -0.782935)
(-0.139599 -1.69291e-18 -0.809379)
(-0.454681 -3.31535e-19 -0.479867)
(-0.621274 -1.05405e-17 -0.220984)
(-0.796349 1.54448e-17 0.156237)
(-1.00495 -3.92971e-17 0.401964)
(-1.42459 0 0.562347)
(-1.89763 -4.36723e-17 0.658103)
(-2.06835 -3.14894e-17 0.712538)
(-2.0278 -1.48197e-17 0.621514)
(-1.34511 3.54575e-17 0.350597)
(-0.146173 0 -0.18519)
(0.173403 0 -1.44422)
(1.27861 0 -1.41538)
(2.57943 0 -2.34525)
(4.6961 0 -2.62596)
(7.15003 -2.95507e-17 -2.74277)
(9.30795 -1.2249e-16 -2.66694)
(9.7074 0 -2.73861)
(11.476 0 -1.65421)
(4.69801 -5.22153e-16 -7.12547)
(0.629031 1.19193e-17 -5.1609)
(1.63739 2.9757e-16 -1.5398)
(1.19276 0 -0.63223)
(1.10759 0 -0.474109)
(1.93451 0 -0.735532)
(1.53215 -2.30342e-20 -0.617084)
(0.0403994 0 -0.357031)
(1.10612 0 -0.703058)
(-6.24686 -3.24853e-16 2.78777)
(-11.818 5.81051e-18 3.78114)
(-15.5998 0 9.36953)
(-12.7113 0 5.74032)
(-5.29306 -2.02502e-15 2.13573)
(-73.3852 2.41793e-15 41.1494)
(67.4963 -4.06534e-15 -41.6889)
(68.1954 -1.87277e-16 -32.052)
(-34.0623 2.16424e-17 6.27292)
(11.6428 -2.86852e-17 -2.24061)
(-0.769249 -4.49249e-15 3.25176)
(-12.49 0 4.15368)
(-1.01656 0 0.243144)
(-5.89864 0 2.53865)
(4.04847 -6.07624e-16 0.713199)
(11.8149 5.17854e-16 -6.96056)
(23.1376 -1.27379e-16 -13.6334)
(24.4321 1.68421e-15 -14.0446)
(20.0638 0 -10.7178)
(11.9678 0 -5.25243)
(2.79826 0 1.05138)
(-10.9188 -2.22486e-15 6.66425)
(-19.3522 0 10.0075)
(-13.7245 7.74879e-16 6.88995)
(-10.0182 0 5.16678)
(-8.60613 0 5.10475)
(-6.83831 -1.88711e-17 4.27456)
(-3.37611 0 2.17981)
(-1.08564 0 0.669035)
(-0.622004 0 -0.069953)
(2.27319 -1.98951e-16 -1.45199)
(4.07696 0 -2.23087)
(1.57289 3.1091e-16 -0.66343)
(-1.62938 0 1.05891)
(-1.19825 -7.11029e-20 0.66659)
(-0.256404 1.22903e-18 -1.70143)
(-1.89934 7.63085e-18 0.470628)
(-5.83672 1.55524e-18 0.174794)
(-10.4628 0 -2.21615)
(-9.54684 -4.76493e-18 -3.60516)
(-0.251186 6.14224e-18 -0.804331)
(12.0134 2.49857e-19 5.55818)
(16.491 1.01473e-17 9.54428)
(6.53114 0 4.52978)
(-10.7218 0 -8.41368)
(-17.2045 0 -13.6964)
(-6.56478 0 -6.71997)
(14.3826 0 9.12255)
(25.4945 0 18.484)
(11.7411 2.59738e-18 8.12433)
(-15.7609 0 -14.1006)
(-26.9339 2.61307e-17 -23.778)
(-5.49466 0 -4.54996)
(27.1226 1.87084e-17 25.502)
(28.3181 -9.83912e-17 25.0678)
(-15.9709 0 -20.4195)
(-60.1254 1.84293e-16 -59.796)
(-17.18 -3.88873e-16 4.11685)
(95.1618 3.56999e-16 127.041)
(135.579 7.08869e-17 131.256)
(54.7209 0 -11.1925)
(-133.899 -3.89219e-16 -204.842)
(-147.828 0 -143.55)
(-37.966 0 -30.2503)
(17.4105 0 17.5025)
(2.33313 -7.94393e-17 1.2869)
(-13.1916 0 -12.1825)
(-4.22903 0 -3.19167)
(7.8256 0 7.46004)
(4.6738 0 4.38603)
(-5.47013 0 -4.41376)
(-7.5517 0 -5.99066)
(-0.829817 6.36002e-17 -0.327219)
(4.30098 0 3.73507)
(2.38221 -7.78929e-17 1.95025)
(-2.20418 -6.59573e-17 -1.80973)
(-3.25843 9.86525e-18 -2.63815)
(-0.334371 0 -0.345711)
(2.32612 0 1.46082)
(2.14932 -2.2168e-17 0.909639)
(0.52662 3.21116e-17 -0.634783)
(-0.0852412 -7.90336e-18 -1.27159)
(0.837411 0 -0.76899)
(2.06821 -9.21046e-18 -0.128854)
(2.58216 0 -0.0759153)
(2.45218 0 -0.53659)
(2.41441 2.47703e-17 -0.959977)
(2.78229 0 -0.986976)
(3.01586 0 -1.01074)
(3.01689 -9.50225e-17 -0.906265)
(2.49599 0 -1.08144)
(1.02274 0 -1.78692)
(-0.168326 -3.32806e-18 -1.60409)
(-0.633022 -1.62846e-17 -0.60752)
(-1.26777 -6.59565e-19 0.073812)
(-2.04955 0 0.888755)
(-2.92995 4.02571e-17 1.53875)
(-3.93087 6.83085e-17 2.05154)
(-4.8168 0 2.26116)
(-4.9624 6.21186e-17 2.20606)
(-4.41996 -1.7131e-18 1.78508)
(-2.71956 0 0.900543)
(0.0195574 1.42927e-17 -0.494772)
(1.54425 0 -4.25171)
(5.57406 0 -4.60471)
(9.16733 0 -7.65142)
(14.5887 0 -8.87514)
(19.8721 4.86149e-17 -10.0119)
(23.9747 1.38671e-16 -10.594)
(24.9882 0 -10.7014)
(26.2689 0 -7.81524)
(12.9686 -4.18851e-16 -19.3237)
(7.91757 2.13961e-17 -11.7039)
(5.69673 -1.25487e-18 -4.01196)
(2.12858 0 -1.24786)
(1.71477 0 -0.967389)
(4.18204 0 -2.18884)
(4.30968 4.25129e-19 -2.21028)
(1.5747 -6.92935e-17 -1.25892)
(4.69957 1.60316e-16 -2.55657)
(-18.1648 3.13872e-16 9.93655)
(-33.7097 8.76716e-18 16.1967)
(-52.5042 -1.95307e-16 30.6902)
(-26.4441 0 14.0905)
(0.114982 1.94639e-15 2.05928)
(-225.444 0 127.328)
(208.394 3.89791e-15 -129.373)
(188.528 0 -99.4937)
(-79.4675 4.04164e-15 24.0913)
(41.7156 -1.67356e-15 -13.0639)
(-10.6415 0 10.0372)
(-28.482 0 13.061)
(-3.12821 2.22927e-15 1.3682)
(-14.2312 1.73199e-15 7.44165)
(12.8029 6.35672e-16 -3.50027)
(44.2141 -4.91823e-16 -26.0451)
(76.86 1.20868e-16 -45.158)
(75.3073 0 -43.6848)
(55.0584 1.63118e-15 -30.9271)
(27.2231 0 -12.7786)
(-0.6948 0 3.90598)
(-35.5953 2.13007e-15 21.465)
(-57.7477 0 32.2247)
(-38.1895 -8.11495e-18 20.9317)
(-27.6582 9.76466e-17 15.4253)
(-26.537 0 15.6195)
(-21.792 0 12.9429)
(-11.1315 0 6.59392)
(-3.12663 -4.41425e-16 1.80156)
(-0.590279 3.53911e-16 -0.204576)
(8.17468 1.87031e-16 -4.95099)
(11.6709 0 -6.65554)
(2.89258 -2.92022e-16 -1.382)
(-5.59698 0 3.42682)
(-3.62009 2.46761e-17 2.05647)
(-1.14609 -2.17926e-18 -0.94139)
(-4.44792 2.61079e-18 -0.497471)
(-9.55493 1.09832e-17 -0.523181)
(-12.7001 0 -0.639217)
(-9.10693 -5.90804e-18 0.558181)
(0.636594 -4.58144e-19 2.67816)
(9.71222 0 4.1802)
(9.96873 -9.63114e-18 3.46187)
(-0.0209128 0 0.452187)
(-11.0741 -7.35653e-19 -2.4613)
(-12.6329 0 -3.42095)
(-1.0642 0 0.0863708)
(14.3819 0 5.85184)
(17.8157 0 8.00286)
(2.50543 2.43057e-17 1.82806)
(-17.0381 0 -7.57326)
(-18.0189 0 -9.96744)
(4.06394 0 0.570705)
(24.4096 -1.46967e-17 14.3555)
(13.3281 5.00646e-18 11.6687)
(-23.2276 0 -10.6826)
(-32.6726 -3.54276e-17 -21.9622)
(27.7815 0 28.8637)
(95.6978 8.92625e-17 97.7525)
(76.0257 0 72.4112)
(-35.9563 0 -78.2311)
(-170.385 3.69167e-16 -244.036)
(-101.871 0 -113.971)
(-8.05984 0 -12.953)
(19.8152 8.763e-17 16.012)
(-1.19013 0 0.385891)
(-11.2781 0 -8.51347)
(-1.65643 0 -2.09456)
(6.72947 0 3.93851)
(2.60876 -5.23869e-17 1.49889)
(-5.01523 0 -3.4097)
(-5.30931 0 -3.66072)
(0.38711 -5.87614e-17 -0.354709)
(3.83601 0 1.53164)
(1.86235 7.74339e-17 0.293692)
(-1.54301 2.91637e-18 -1.61862)
(-1.90071 -9.34019e-18 -1.79544)
(0.515148 0 -0.586168)
(2.47737 0 0.226324)
(2.29293 1.11308e-17 -0.112688)
(1.14839 0 -0.850596)
(0.857633 7.47616e-18 -1.09299)
(1.71811 0 -0.800677)
(2.74826 3.99773e-19 -0.504097)
(3.1828 0 -0.55467)
(3.12114 0 -0.897691)
(3.12944 0 -1.28967)
(3.43213 3.54895e-17 -1.44831)
(3.60285 0 -1.52213)
(3.53788 0 -1.34476)
(2.89851 0 -1.30608)
(1.23058 0 -1.86092)
(-0.00869555 -6.39585e-17 -1.19814)
(-0.873271 0 0.043855)
(-2.05239 -7.23517e-19 1.00436)
(-3.49842 0 2.00895)
(-4.96806 -1.92711e-17 2.93389)
(-6.44875 -6.44048e-17 3.6857)
(-7.62219 0 3.9087)
(-7.68446 -5.71802e-17 3.5441)
(-6.57387 8.97074e-18 2.6416)
(-3.72962 0 1.09008)
(0.731959 -1.34603e-17 -1.02217)
(4.18241 0 -6.30794)
(10.4628 0 -8.38553)
(16.9879 0 -12.3301)
(25.0634 0 -15.1937)
(32.3634 -6.43735e-18 -17.8795)
(37.486 -1.30408e-16 -19.5293)
(38.5563 0 -19.5292)
(37.8676 0 -16.0997)
(20.3555 9.72382e-17 -29.2343)
(15.8461 -1.34384e-16 -13.486)
(8.54624 -1.34829e-16 -5.14603)
(2.10331 0 -0.872166)
(1.51175 0 -0.817589)
(6.03128 0 -3.38139)
(7.12378 9.48869e-16 -3.93601)
(3.79397 -6.67986e-19 -2.54128)
(9.03985 -1.50389e-16 -4.54505)
(-30.1638 0 18.0864)
(-57.8925 -1.36315e-16 32.6379)
(-90.8886 1.83102e-16 52.1565)
(-37.162 0 17.1993)
(12.5373 0 -2.40694)
(-339.613 -2.18875e-15 187.882)
(332.028 0 -207.707)
(303.32 1.65626e-16 -156.177)
(-106.183 -3.27131e-17 43.2414)
(67.8708 1.49992e-15 -28.5618)
(-21.6075 4.02829e-15 16.841)
(-42.065 0 20.3919)
(-6.34542 -2.08624e-15 3.21259)
(-20.4698 -1.62062e-15 10.6149)
(24.2411 -6.461e-16 -13.7694)
(81.3578 0 -49.5972)
(129.882 1.05836e-16 -76.3759)
(120.43 0 -68.5045)
(81.0523 -1.52528e-15 -44.0049)
(33.3568 1.36744e-15 -16.4276)
(-8.08656 0 8.97481)
(-58.8736 -1.9911e-15 36.1235)
(-92.6418 0 52.5038)
(-58.395 -1.34714e-15 31.8436)
(-42.1019 -9.12478e-17 23.3363)
(-42.9833 0 24.8124)
(-35.4325 0 20.2121)
(-18.355 0 10.2267)
(-4.7607 3.32701e-19 2.41539)
(0.37802 -3.3058e-16 -0.794133)
(14.3437 -1.75375e-16 -8.70624)
(18.0506 0 -10.0789)
(3.0325 -2.69109e-16 -0.945579)
(-9.48466 0 5.75987)
(-5.79526 1.84149e-19 3.22949)
(-1.16196 9.60204e-19 0.244097)
(-4.48803 -9.36351e-19 0.041827)
(-9.79444 -4.2025e-18 -0.162137)
(-12.7668 -1.51252e-18 0.43991)
(-9.1425 -4.90141e-18 2.32431)
(-0.361026 -9.83092e-18 4.22066)
(6.81188 0 4.45085)
(5.64891 0 2.60613)
(-3.58791 0 0.212897)
(-12.1468 6.96488e-19 -0.41957)
(-11.1232 0 0.818113)
(0.671405 0 3.51729)
(12.9257 0 5.15518)
(12.4166 0 3.50303)
(-2.56718 0 -0.948311)
(-16.6055 -3.52516e-18 -3.72244)
(-12.339 2.64928e-17 -1.55284)
(7.2837 0 3.27274)
(18.6012 0 5.06268)
(5.31074 8.36951e-17 1.70647)
(-14.2751 -4.06925e-17 2.95992)
(-0.921181 -1.32061e-16 20.1776)
(40.8479 3.51738e-17 38.0791)
(51.2362 -8.45609e-17 27.0601)
(-7.08167 1.93057e-16 -24.4826)
(-97.0587 3.56622e-17 -114.273)
(-137.94 0 -192.921)
(-37.9248 -1.7522e-16 -62.4945)
(18.8006 0 8.96431)
(18.7373 -8.29419e-17 13.7155)
(-5.10535 0 -1.57481)
(-10.2689 0 -6.67672)
(0.208626 0 -1.26584)
(6.30679 7.72067e-18 2.31598)
(1.34784 4.95559e-17 -0.0984127)
(-4.97119 0 -3.36633)
(-4.082 0 -2.87606)
(1.33679 5.55658e-17 -0.324998)
(3.93581 0 0.694288)
(1.75279 -3.3401e-19 -0.509232)
(-1.1732 2.50487e-17 -1.8342)
(-1.11428 0 -1.71483)
(1.23136 0 -0.736863)
(2.90975 0 -0.236169)
(2.62634 0 -0.59501)
(1.61392 2.42155e-17 -1.14572)
(1.4733 0 -1.2598)
(2.36116 1.04854e-17 -0.991531)
(3.33621 7.84513e-18 -0.774837)
(3.73059 0 -0.854438)
(3.68161 0 -1.15639)
(3.71652 0 -1.49906)
(3.92532 -3.34828e-17 -1.78171)
(4.01031 3.52182e-17 -1.90595)
(3.85136 6.76898e-17 -1.66241)
(3.05413 0 -1.44199)
(1.36876 4.55626e-17 -1.52297)
(-0.0300432 5.65379e-17 -0.516598)
(-1.45687 0 0.679861)
(-3.1202 2.21909e-17 1.89472)
(-5.07672 0 3.18203)
(-7.02012 1.93233e-17 4.35054)
(-8.90275 6.22059e-17 5.21529)
(-10.211 0 5.43315)
(-10.0536 2.65542e-17 4.75322)
(-8.27372 -1.13325e-17 3.32282)
(-4.22269 0 1.01076)
(1.92316 0 -2.09155)
(8.19492 0 -7.40272)
(16.3768 1.16055e-17 -11.9298)
(25.8612 3.93574e-17 -16.5881)
(36.0038 0 -21.4272)
(44.9611 -1.12046e-17 -25.4186)
(50.6929 1.3545e-16 -27.6807)
(51.2157 0 -27.4696)
(47.5267 0 -24.0773)
(26.965 2.78274e-16 -36.8228)
(22.2929 -1.13576e-17 -14.6243)
(10.1614 0 -5.51902)
(1.1602 0 -0.103326)
(0.648015 0 -0.539931)
(7.63131 0 -4.56862)
(10.0536 -2.44126e-18 -5.69378)
(6.59335 6.15864e-17 -4.34491)
(14.0345 0 -6.36949)
(-42.478 0 27.2453)
(-85.57 0 50.7608)
(-129.068 1.77715e-16 73.5354)
(-47.7355 0 19.9894)
(27.031 1.74738e-15 -3.78924)
(-371.845 2.0497e-15 199.481)
(416.434 3.46898e-15 -273.341)
(409.435 -1.55044e-16 -205.055)
(-115.025 -3.42469e-15 58.732)
(91.202 -1.40373e-15 -44.2312)
(-32.1902 -3.7694e-15 24.828)
(-53.1635 0 26.2581)
(-10.4936 0 5.31398)
(-24.0373 -1.51256e-15 12.0033)
(40.6011 3.10556e-16 -26.2391)
(122.651 4.28866e-16 -75.8853)
(180.403 1.07444e-18 -106.265)
(157.005 0 -88.4294)
(96.0658 0 -50.8878)
(32.5296 -1.27816e-15 -13.3705)
(-18.049 0 16.268)
(-80.3288 1.86649e-15 50.3849)
(-123.094 0 70.152)
(-73.6871 4.14053e-18 39.8177)
(-53.0211 0 29.4441)
(-57.5214 -3.59354e-16 33.2268)
(-47.4549 -2.19977e-17 26.6648)
(-24.8351 -3.42278e-16 13.3523)
(-5.9429 6.23711e-19 2.70515)
(2.16959 0 -2.13189)
(20.4828 1.63778e-16 -12.5455)
(22.9948 4.0809e-16 -12.7278)
(1.97903 2.51285e-16 -0.0620713)
(-13.1606 0 8.02179)
(-7.67347 2.46672e-19 4.23437)
(-1.10226 0 1.77183)
(-3.36559 -5.01561e-19 1.44952)
(-8.14209 0 1.04909)
(-11.3029 1.42905e-18 1.54496)
(-8.73674 9.91228e-18 3.20641)
(-1.667 4.48614e-18 4.836)
(3.89558 0 4.94228)
(2.21494 0 3.31801)
(-6.03799 3.75426e-18 1.51655)
(-13.0596 -1.0366e-18 1.41979)
(-10.973 6.10886e-18 3.0209)
(0.233525 1.06392e-17 4.96486)
(10.4297 -4.75414e-18 4.96203)
(8.42483 0 2.27311)
(-5.27839 0 -0.994219)
(-16.0893 6.64885e-18 -1.35475)
(-10.2929 -1.56553e-18 1.57512)
(6.89976 0 3.53135)
(15.0205 1.41324e-17 1.53701)
(4.63068 8.02827e-17 -0.0780783)
(-6.17853 3.84741e-17 8.42261)
(7.11256 0 26.4056)
(27.2503 -3.32406e-17 25.2288)
(8.72016 -6.14763e-17 -15.3795)
(-51.5834 -1.8248e-16 -69.3808)
(-96.025 1.52969e-16 -91.2132)
(-59.9677 0 -76.6557)
(15.662 1.88345e-17 -10.8784)
(40.652 0 35.0858)
(13.75 -1.55624e-16 10.8194)
(-9.2757 0 -4.29658)
(-9.62219 0 -5.9342)
(1.62949 0 -0.656791)
(6.03882 -7.29236e-18 1.50562)
(0.448737 0 -1.01651)
(-4.94212 0 -3.42698)
(-3.18602 0 -2.48173)
(2.04031 0 -0.316652)
(4.01839 1.70454e-18 0.194913)
(1.66793 -6.80574e-17 -1.04101)
(-0.91496 0 -2.05513)
(-0.548744 1.42703e-17 -1.75778)
(1.76172 0 -0.881718)
(3.23184 0 -0.561005)
(2.85652 0 -0.963671)
(1.92491 -2.15806e-18 -1.43274)
(1.89573 0 -1.47137)
(2.81396 -9.88665e-18 -1.19905)
(3.75328 0 -1.01327)
(4.11426 0 -1.09989)
(4.0645 1.24972e-17 -1.36506)
(4.09928 0 -1.6543)
(4.23604 0 -1.9783)
(4.22879 -5.12398e-18 -2.14532)
(3.98338 -6.37556e-17 -1.8037)
(3.02534 0 -1.41254)
(1.26029 -3.87366e-18 -1.12261)
(-0.369791 -5.0777e-17 0.111872)
(-2.20546 0 1.45429)
(-4.27389 -1.08399e-17 2.91311)
(-6.65819 0 4.42597)
(-8.98247 -1.81785e-17 5.75223)
(-11.1619 -5.85098e-17 6.63863)
(-12.5094 0 6.7597)
(-12.0516 -2.33789e-17 5.72465)
(-9.54715 -1.44883e-18 3.72011)
(-4.28406 0 0.556448)
(3.60587 0 -3.63433)
(12.0265 0 -10.1457)
(22.9978 -2.3673e-17 -15.3158)
(34.7154 -1.12267e-19 -21.6238)
(46.8482 0 -27.929)
(57.1858 1.27897e-18 -32.7492)
(63.1626 -2.58596e-16 -35.116)
(62.7685 0 -34.2944)
(55.7912 0 -30.7111)
(34.0285 0 -39.857)
(26.6794 -9.86152e-18 -16.1154)
(10.9211 0 -5.01643)
(-0.284483 0 1.09586)
(-0.466171 0 -0.165921)
(9.17765 0 -5.82793)
(13.0627 -4.14061e-16 -7.54716)
(10.0362 5.99082e-17 -6.56227)
(19.4878 0 -7.97636)
(-55.4152 0 37.7807)
(-116.1 0 71.1909)
(-165.3 4.26174e-18 93.3159)
(-62.674 0 23.5505)
(38.8785 -1.63578e-15 -3.40116)
(-272.164 0 131.516)
(427.897 -3.24658e-15 -299.7)
(501.182 0 -242.304)
(-108.544 1.59307e-15 65.1447)
(111.696 0 -58.5209)
(-41.8912 0 33.573)
(-62.135 0 30.5735)
(-14.9328 0 7.46739)
(-24.663 1.41432e-15 11.0296)
(61.148 0 -42.0299)
(166.431 -4.00918e-16 -104.48)
(226.618 -9.35028e-17 -133.276)
(183.554 0 -101.282)
(100.623 0 -50.164)
(23.8398 0 -7.77943)
(-29.5018 0 25.2093)
(-99.7598 3.97442e-19 63.5621)
(-148.391 0 84.2544)
(-84.3016 1.16007e-15 44.2696)
(-60.9156 0 33.4694)
(-70.2892 6.69715e-16 40.4213)
(-58.1799 2.05453e-17 32.0024)
(-30.7012 3.1966e-16 15.8024)
(-6.77051 3.58791e-16 2.55567)
(4.75991 0 -4.17665)
(26.3371 0 -16.2962)
(26.638 -7.59964e-16 -14.3679)
(0.524339 2.31294e-16 1.92074)
(-16.5391 -3.8543e-17 10.1247)
(-9.29568 -1.04943e-17 5.02554)
(-1.01032 0 3.3387)
(-2.19873 -1.74478e-18 3.03908)
(-6.29819 0 2.50492)
(-9.45512 0 2.63373)
(-7.86289 0 3.72513)
(-2.38671 0 5.02466)
(1.77147 0 5.33911)
(-0.34991 -3.29573e-18 4.29826)
(-7.95799 -3.5424e-18 3.01208)
(-14.0299 2.05481e-18 3.00065)
(-11.5902 -1.09711e-17 4.38092)
(-1.28276 -1.00417e-17 5.66549)
(7.37396 4.48766e-18 4.94105)
(4.85227 0 2.16305)
(-7.32293 0 -0.227491)
(-15.9334 -6.0266e-18 0.37172)
(-9.92322 -4.30632e-17 3.03968)
(5.1695 0 3.42648)
(12.2101 -1.33404e-17 0.094177)
(4.7808 -7.57823e-17 -1.09651)
(-3.02322 0 6.75161)
(3.14054 -6.15432e-17 18.2073)
(7.50927 0 9.33885)
(-15.928 6.47695e-17 -28.3939)
(-55.4944 -1.05344e-16 -60.9144)
(-63.108 7.06645e-17 -49.866)
(0.687804 0 5.22146)
(44.2533 1.38466e-16 21.7566)
(38.9963 1.23282e-16 33.5559)
(1.96642 3.02221e-16 5.51635)
(-14.1813 3.39228e-17 -8.75387)
(-8.69346 0 -5.52488)
(3.04594 -5.14505e-17 0.131023)
(5.83341 0 1.23996)
(-0.316012 0 -1.52972)
(-4.92692 0 -3.49759)
(-2.44292 0 -2.23441)
(2.60241 0 -0.277571)
(4.04502 2.86479e-18 -0.107013)
(1.55441 3.1606e-17 -1.40748)
(-0.732355 0 -2.24025)
(-0.10096 -2.83655e-17 -1.80989)
(2.17979 0 -0.976651)
(3.46881 0 -0.770792)
(3.00692 0 -1.22196)
(2.1384 -1.94799e-17 -1.654)
(2.2042 0 -1.64063)
(3.14824 0 -1.35279)
(4.04953 0 -1.1797)
(4.36484 0 -1.27305)
(4.28853 -2.32496e-17 -1.52241)
(4.29942 0 -1.76571)
(4.39312 0 -2.02904)
(4.31876 -2.63953e-17 -2.17289)
(3.96537 0 -1.76854)
(2.83138 0 -1.22414)
(0.845655 -6.92638e-17 -0.830837)
(-0.91982 2.33792e-17 0.751201)
(-3.07205 0 2.30472)
(-5.47478 0 3.97259)
(-8.19361 0 5.65987)
(-10.7945 1.83236e-17 7.08115)
(-13.1644 0 7.91991)
(-14.4791 0 7.86355)
(-13.6908 4.29417e-17 6.41966)
(-10.4521 2.42525e-17 3.81031)
(-3.99714 0 -0.227338)
(5.50539 0 -5.5518)
(16.5388 0 -12.5202)
(29.5512 1.19867e-17 -19.5683)
(43.3339 -3.45829e-17 -27.2106)
(57.2637 -6.23072e-17 -34.5443)
(68.6454 -1.19983e-18 -39.7724)
(74.5092 1.23298e-16 -41.8224)
(72.8927 -2.39695e-16 -40.0075)
(63.1476 0 -34.9747)
(43.0043 0 -35.8001)
(31.1749 8.11743e-17 -14.5515)
(11.0848 0 -3.98464)
(-1.93215 0 2.42588)
(-1.54714 0 0.0226567)
(10.777 0 -7.29637)
(16.0758 0 -9.47619)
(14.0451 -1.13847e-16 -9.11207)
(25.1049 0 -9.08874)
(-69.7602 2.39167e-16 50.2307)
(-149.176 0 93.6496)
(-197.265 4.64271e-18 110.239)
(-83.9639 -1.57355e-15 29.3551)
(44.8169 0 -4.80038)
(-9.28012 0 -28.4568)
(318.878 0 -256.545)
(565.799 0 -263.678)
(-87.6296 -1.46845e-15 64.6967)
(129.283 0 -70.5372)
(-50.3373 0 42.4312)
(-69.3879 0 33.7604)
(-19.0763 0 9.21067)
(-21.8823 0 7.3845)
(85.7155 0 -60.9289)
(211.13 0 -134.199)
(266.316 0 -156.114)
(198.188 -1.21083e-15 -106.36)
(94.5098 0 -42.8427)
(12.0791 0 4.25443)
(-40.7152 0 34.4094)
(-116.319 -1.62944e-15 75.7825)
(-167.545 0 94.8028)
(-90.265 -5.39898e-16 45.8396)
(-66.0501 0 36.1289)
(-81.0292 -1.75291e-18 46.6842)
(-67.7365 0 36.5991)
(-36.0698 -2.97199e-16 17.7607)
(-7.25463 0 2.03474)
(8.07658 0 -6.77715)
(31.6974 0 -19.7844)
(29.003 3.5377e-16 -15.1626)
(-1.86139 -4.29256e-16 3.28377)
(-19.5616 7.30226e-17 12.0033)
(-10.6753 -1.04587e-17 5.64948)
(-0.995851 0 4.43349)
(-1.72985 1.75539e-18 4.08508)
(-5.29208 0 3.48966)
(-8.06296 0 3.36083)
(-6.82532 -2.06162e-18 3.97878)
(-2.35177 -1.75669e-18 4.98235)
(0.74887 -9.49785e-19 5.47521)
(-1.83083 1.02092e-17 4.9495)
(-9.1352 0 4.0895)
(-14.7015 -8.28808e-20 4.11322)
(-12.3781 4.90541e-18 5.1965)
(-3.20091 0 5.97624)
(4.1015 0 4.90711)
(1.45358 0 2.34573)
(-9.14796 0 0.705787)
(-16.0774 4.81336e-19 1.8542)
(-10.4397 1.15652e-18 4.13583)
(2.54951 1.48384e-17 3.4057)
(8.769 -9.44073e-18 -1.02534)
(3.14594 0 -3.45674)
(-4.32452 8.6159e-17 1.18072)
(-4.88478 5.80067e-17 7.16241)
(-8.39331 0 -1.14676)
(-25.5582 5.03229e-17 -24.6357)
(-42.3524 -5.57352e-17 -36.2654)
(-28.2027 -2.32654e-16 -11.6515)
(26.2214 0 32.2869)
(47.8992 0 31.2112)
(21.5536 -1.16169e-16 12.0885)
(-7.46223 -1.72296e-17 -2.30153)
(-17.471 -3.17618e-17 -12.025)
(-6.64513 0 -4.85206)
(4.63891 9.29637e-17 1.44153)
(5.48706 0 1.24637)
(-1.11311 0 -1.86457)
(-4.90317 4.37252e-18 -3.50043)
(-1.76126 0 -1.97826)
(3.03688 -3.59554e-17 -0.20326)
(3.95914 2.69381e-18 -0.32252)
(1.37384 -2.6546e-17 -1.68011)
(-0.605534 0 -2.36423)
(0.26865 -1.15769e-18 -1.82172)
(2.4986 0 -1.02273)
(3.60602 0 -0.911883)
(3.06658 0 -1.40569)
(2.26406 0 -1.80919)
(2.41844 0 -1.75146)
(3.37729 9.37303e-18 -1.44772)
(4.22859 0 -1.28332)
(4.48547 0 -1.38168)
(4.36955 1.07999e-17 -1.61526)
(4.34591 0 -1.80822)
(4.40407 1.28891e-17 -1.9732)
(4.31333 1.24882e-17 -1.96768)
(3.79454 -3.13843e-17 -1.58782)
(2.47335 0 -0.903175)
(0.222498 3.05915e-17 -0.555717)
(-1.5645 2.06383e-17 1.46605)
(-3.99307 0 3.20956)
(-6.65653 0 5.04291)
(-9.61556 0 6.85113)
(-12.3964 -1.72048e-17 8.30716)
(-14.8689 0 9.03496)
(-16.1051 0 8.73855)
(-14.9937 -1.96915e-17 6.84433)
(-11.0621 -2.57765e-17 3.61249)
(-3.49113 0 -1.29913)
(7.68652 0 -7.7554)
(20.7257 0 -15.8256)
(35.7892 0 -24.114)
(51.5363 -3.01537e-17 -32.9263)
(66.9712 5.84194e-17 -40.9772)
(79.0314 0 -46.2569)
(84.4645 0 -47.654)
(81.5015 2.24643e-16 -44.573)
(69.2923 0 -38.1702)
(51.4655 2.63338e-18 -29.485)
(31.9817 1.00007e-16 -16.4219)
(10.7666 0 -2.60924)
(-3.39268 0 3.70074)
(-2.27664 0 -0.139139)
(12.5011 0 -8.99972)
(18.9457 0 -11.4099)
(18.4321 5.40502e-17 -11.9023)
(30.473 0 -9.30703)
(-86.4622 -4.4932e-16 65.5868)
(-184.167 0 117.741)
(-222.653 4.92977e-18 123.04)
(-109.778 -6.31767e-18 36.41)
(37.5443 0 -9.91033)
(378.111 -1.71634e-15 -254.193)
(64.9838 0 -124.062)
(587.719 0 -264.409)
(-56.674 2.73668e-15 59.5698)
(144.035 0 -80.307)
(-56.6866 0 51.2225)
(-75.6705 0 36.2065)
(-22.387 0 10.1745)
(-15.2805 0 0.809375)
(113.72 0 -82.9671)
(254.954 0 -163.901)
(297.529 0 -173.121)
(200.199 1.1312e-15 -102.804)
(80.2119 0 -29.7613)
(-5.29789 0 12.6629)
(-50.7464 0 42.9083)
(-129.601 1.51827e-15 86.0895)
(-180.25 8.04867e-16 101.164)
(-92.4303 4.96209e-16 44.7143)
(-69.2493 7.47401e-17 37.6349)
(-89.7627 -1.87371e-18 51.7934)
(-76.5358 1.89032e-17 40.5353)
(-41.2763 5.53867e-16 19.3409)
(-7.50907 0 1.12286)
(11.9197 -2.46607e-16 -9.85275)
(36.4055 1.27816e-16 -22.8798)
(30.2261 0 -15.0985)
(-3.60751 1.99139e-16 6.02591)
(-22.0969 -3.45767e-17 13.6649)
(-11.8578 9.76249e-18 6.10718)
(-1.19659 0 4.7478)
(-2.04496 -9.00648e-19 4.30809)
(-5.23506 0 3.72578)
(-7.35466 0 3.53959)
(-5.90108 1.94123e-18 3.95118)
(-1.86846 1.65373e-18 4.77292)
(0.55047 8.94044e-19 5.33461)
(-2.32288 -1.06968e-17 5.14029)
(-9.35107 0 4.61628)
(-14.5978 9.37984e-19 4.69857)
(-12.6956 -8.2713e-18 5.5327)
(-4.86396 0 5.95456)
(1.11558 -6.23194e-18 4.77253)
(-1.51621 0 2.58801)
(-10.6456 -1.42725e-17 1.64565)
(-16.3689 2.11725e-18 3.19162)
(-11.6316 1.74496e-17 5.09898)
(-1.00403 -1.39676e-17 3.46044)
(4.15091 1.26091e-17 -2.06366)
(-0.387521 0 -6.23283)
(-7.70599 -8.11029e-17 -4.60663)
(-11.5861 0 -0.784151)
(-16.2104 0 -3.71428)
(-23.2171 -5.33722e-17 -11.3735)
(-22.3455 2.88868e-16 -7.93232)
(-0.478925 0 17.0472)
(36.5214 0 42.6438)
(40.1221 0 29.6454)
(9.2484 1.55264e-16 3.88716)
(-14.9553 -1.21561e-16 -8.55567)
(-16.435 3.07161e-17 -10.0599)
(-3.10559 7.1649e-17 -2.27766)
(7.34382 -7.28574e-17 4.96994)
(4.75041 -1.96997e-17 1.32658)
(-2.04384 2.86448e-17 -2.12645)
(-4.88154 -4.46793e-18 -3.43161)
(-1.12833 0 -1.66702)
(3.32926 3.38163e-17 -0.0948596)
(3.73403 -6.49286e-18 -0.482169)
(1.11127 2.49627e-17 -1.87511)
(-0.53192 0 -2.4153)
(0.566118 1.42896e-17 -1.77671)
(2.7169 1.59712e-17 -1.0176)
(3.63668 2.56749e-18 -0.993292)
(3.03168 -7.0725e-18 -1.51985)
(2.30448 0 -1.89272)
(2.54366 0 -1.79387)
(3.50451 -7.28344e-20 -1.47683)
(4.29226 0 -1.32022)
(4.48049 0 -1.41927)
(4.31858 9.1717e-18 -1.62961)
(4.25652 -8.32988e-18 -1.76383)
(4.28049 -1.21051e-17 -1.82059)
(4.14158 -4.77434e-18 -1.68779)
(3.49203 8.43372e-18 -1.26597)
(1.99112 0 -0.452993)
(-0.191479 0 0.340761)
(-2.24658 -3.84786e-17 2.24731)
(-4.91337 0 4.1335)
(-7.75692 0 6.08995)
(-10.865 1.6143e-17 7.96761)
(-13.7422 0 9.40384)
(-16.2536 0 9.9677)
(-17.393 -3.08298e-17 9.3913)
(-16.0017 1.61423e-17 7.02241)
(-11.4649 2.72934e-17 3.16981)
(-2.90441 0 -2.59628)
(9.66816 -2.5514e-17 -10.1047)
(24.1464 0 -20.2366)
(41.6852 0 -28.9048)
(59.0584 5.42047e-17 -38.5422)
(75.6587 0 -47.0242)
(88.0529 0 -52.0333)
(92.8144 0 -52.5129)
(88.3481 0 -47.9918)
(74.5051 0 -39.3972)
(55.3274 -2.46653e-18 -27.8234)
(32.1877 1.02957e-17 -17.544)
(10.8515 -9.93219e-17 -1.11797)
(-4.30501 -2.00432e-18 4.70076)
(-2.39802 0 -0.795235)
(14.3314 0 -10.9174)
(21.4579 0 -13.2417)
(22.9302 0 -14.8554)
(35.0526 0 -8.12799)
(-106.729 -1.64417e-18 84.5802)
(-219.876 0 142.589)
(-239.28 -1.48471e-16 130.446)
(-131.931 -8.11065e-18 40.7053)
(1.14277 0 -12.0728)
(752.047 1.6048e-15 -463.663)
(-289.863 0 77.5296)
(558.08 1.85735e-16 -243.845)
(-22.2809 -9.42642e-18 52.765)
(156.598 0 -87.5743)
(-60.2019 0 59.2015)
(-81.6704 0 38.3364)
(-24.4743 0 10.0195)
(-4.89301 1.13513e-15 -9.43643)
(144.327 0 -107.95)
(296.122 0 -192.165)
(318.438 -9.78428e-17 -182.971)
(189.852 0 -90.7646)
(59.5744 -1.04984e-15 -12.7451)
(-19.4188 9.35409e-16 27.2786)
(-57.3507 0 49.8382)
(-138.563 -2.83122e-15 94.3933)
(-186.318 -5.90306e-18 103.53)
(-91.8493 -9.22363e-16 41.7787)
(-71.1636 -6.97863e-17 38.6357)
(-96.3136 -2.68722e-16 55.8855)
(-84.8981 -1.76485e-17 44.1192)
(-46.7408 -2.58023e-16 20.7865)
(-7.67991 -2.87072e-16 -0.110906)
(16.0675 2.30212e-16 -13.2534)
(40.3477 -1.19314e-16 -25.4901)
(30.5941 -2.99199e-16 -14.3454)
(-5.27316 -1.56796e-16 8.43844)
(-24.2155 0 15.1107)
(-12.8824 0 6.43433)
(-1.62521 0 4.4785)
(-2.82378 -7.78112e-19 3.97283)
(-5.69611 0 3.44599)
(-7.07376 0 3.33419)
(-5.14116 0 3.74586)
(-1.2662 0 4.48335)
(0.703767 -2.67004e-18 5.02642)
(-2.24692 3.77138e-18 5.00936)
(-8.79378 -2.76202e-18 4.75504)
(-13.6051 -1.70596e-18 4.92926)
(-12.1438 7.77542e-18 5.56187)
(-5.69203 0 5.70734)
(-0.974914 5.85831e-18 4.54379)
(-3.55575 0 2.81872)
(-11.4674 1.34175e-17 2.50696)
(-16.5591 -1.12953e-19 4.33665)
(-13.28 0 5.9434)
(-5.26809 0 3.73981)
(-1.23475 -3.49948e-18 -2.393)
(-4.55945 0 -7.64065)
(-10.4746 0 -7.53555)
(-14.1391 3.57204e-17 -3.40413)
(-15.9712 0 0.10453)
(-14.1569 0 4.25305)
(-3.98279 -1.34402e-16 14.8663)
(15.4224 0 32.7216)
(34.5209 0 41.5729)
(25.7707 0 21.6373)
(-2.57863 -2.72901e-16 -2.69353)
(-18.7057 0 -11.2098)
(-12.9519 2.2652e-17 -6.24226)
(1.16507 -3.74793e-18 1.37499)
(7.98181 2.9127e-17 6.25699)
(3.83714 1.85146e-17 3.05142)
(-3.28118 -5.10031e-17 -2.60585)
(-4.86734 3.33859e-19 -3.28905)
(-0.553113 0 -1.28188)
(3.44856 0 0.0380641)
(3.34691 -1.06789e-17 -0.602778)
(0.757931 1.91742e-17 -1.99839)
(-0.513178 0 -2.38726)
(0.787824 0 -1.66882)
(2.82819 -1.3695e-18 -0.961953)
(3.5555 -2.41125e-18 -1.01908)
(2.90116 6.64161e-18 -1.56522)
(2.26194 6.41388e-18 -1.90065)
(2.58262 0 -1.76286)
(3.53176 -2.13848e-19 -1.43728)
(4.24311 0 -1.28914)
(4.35628 0 -1.38312)
(4.14814 -8.60836e-18 -1.55929)
(4.05077 7.81749e-18 -1.62342)
(4.03728 0 -1.56565)
(3.84214 -6.52387e-18 -1.32408)
(3.06655 7.43817e-18 -0.878625)
(1.45021 0 0.038575)
(-0.605584 0 1.3854)
(-2.9782 3.58897e-17 3.0622)
(-5.77232 0 5.0438)
(-8.71609 0 7.08036)
(-11.8915 -3.10535e-17 8.98004)
(-14.7997 0 10.3518)
(-17.315 0 10.7099)
(-18.3651 5.74932e-17 9.84393)
(-16.7725 -1.51291e-17 6.99241)
(-11.7597 -1.35524e-17 2.54204)
(-2.38345 0 -4.04237)
(11.4929 2.39046e-17 -12.5481)
(27.9098 0 -23.2938)
(46.8284 -1.0161e-17 -33.5777)
(65.634 -2.43018e-17 -43.8515)
(83.0641 0 -52.492)
(95.5007 0 -56.9471)
(99.4531 -1.14177e-16 -56.3125)
(93.7002 -1.95899e-16 -50.3056)
(78.0692 0 -40.2905)
(57.627 0 -26.7794)
(34.2955 -2.00456e-16 -14.3887)
(11.1179 9.29447e-17 0.327504)
(-4.35733 1.50482e-18 5.23172)
(-1.73441 0 -2.02574)
(16.1615 0 -12.9587)
(23.3558 0 -14.8375)
(27.2964 0 -17.8198)
(38.2643 0 -4.95139)
(-131.398 -1.36263e-18 107.991)
(-254.368 0 166.572)
(-244.904 0 130.797)
(-135.637 -1.03384e-17 35.406)
(-78.8373 0 -0.903629)
(932.361 1.52455e-15 -552.765)
(-632.829 0 283.695)
(483.287 -1.73576e-16 -211.167)
(8.60567 -1.02091e-17 46.7534)
(167.177 0 -93.1135)
(-59.8154 0 66.1633)
(-87.9003 0 40.4762)
(-25.1621 0 8.41535)
(10.0076 -8.58231e-18 -22.1993)
(176.697 -2.51266e-16 -134.91)
(332.506 3.22285e-16 -217.701)
(327.8 9.13829e-17 -184.522)
(169.021 0 -71.303)
(37.3339 9.80433e-16 5.93605)
(-30.5784 -8.7352e-16 42.6614)
(-61.0554 0 54.7086)
(-142.604 1.31972e-15 99.8544)
(-186.294 -1.38581e-15 102.053)
(-90.1309 4.2857e-16 37.9706)
(-72.6015 0 39.4509)
(-100.657 2.46865e-16 58.8572)
(-93.0738 0 47.493)
(-52.9712 0 22.3454)
(-8.01173 2.67975e-16 -1.59732)
(20.2642 0 -16.84)
(43.4721 0 -27.5505)
(30.2345 2.79268e-16 -13.0042)
(-6.91473 1.46348e-16 9.91505)
(-25.8511 -3.32364e-17 16.2156)
(-13.7826 -9.89402e-18 6.64671)
(-2.17839 0 4.11952)
(-3.65516 7.31294e-19 3.6041)
(-6.17525 3.13459e-19 3.13134)
(-6.83763 0 3.11563)
(-4.4384 0 3.58218)
(-0.680499 0 4.26156)
(0.922601 2.50898e-18 4.7332)
(-1.98518 0 4.80119)
(-7.88472 2.59469e-18 4.77325)
(-12.0783 0 5.06808)
(-10.8733 0 5.5382)
(-5.56002 5.94392e-18 5.42976)
(-1.82106 0 4.3037)
(-4.22785 -1.28839e-17 3.00873)
(-11.1887 1.25058e-17 3.19581)
(-16.2188 1.06005e-19 5.19987)
(-14.8553 0 6.6798)
(-9.51905 -1.68066e-17 4.49512)
(-6.37106 0 -1.33769)
(-7.95698 3.98766e-18 -6.53045)
(-11.2152 0 -6.68926)