/*--------------------------------*- C++ -*----------------------------------*\
| =========                 |                                                 |
| \\      /  F ield         | OpenFOAM: The Open Source CFD Toolbox           |
|  \\    /   O peration     | Version:  2412                                  |
|   \\  /    A nd           | Website:  www.openfoam.com                      |
|    \\/     M anipulation  |                                                 |
\*---------------------------------------------------------------------------*/
FoamFile
{
    version     2.0;
    format      ascii;
    arch        "LSB;label=32;scalar=64";
    class       surfaceScalarField;
    location    "0.86";
    object      ddtCorrDdt0(phi);
}
// * * * * * * * * * * * * * * * * * * * * * * * * * * * * * * * * * * * * * //

dimensions      [0 3 -2 0 0 0 0];

oriented        oriented;

internalField   nonuniform List<scalar> 
24930
(
-5.65274e-05
-6.60084e-05
-0.000357901
-0.000127841
4.2468e-05
-0.00017448
1.4031e-05
-0.000181981
-1.74636e-05
-0.000173339
-2.82398e-05
-0.00015968
-3.03844e-05
-0.000146085
-2.76948e-05
-0.000129975
-2.59326e-05
-0.000116018
-2.06113e-05
-0.000104306
-1.76963e-05
-9.50487e-05
-1.62437e-05
-8.83091e-05
-1.44313e-05
-8.38513e-05
-1.144e-05
-8.1265e-05
-7.88786e-06
-8.01405e-05
-4.97289e-06
-8.01033e-05
-3.43606e-06
-8.07808e-05
-3.14026e-06
-8.17934e-05
-3.37482e-06
-8.27457e-05
-3.45492e-06
-8.31882e-05
-3.09319e-06
-8.25945e-05
-2.36471e-06
-8.04147e-05
-1.45537e-06
-7.62015e-05
-4.5622e-07
-6.97447e-05
6.87049e-07
-6.11387e-05
2.10402e-06
-5.07412e-05
3.89012e-06
-3.90466e-05
6.0295e-06
-2.65517e-05
8.39197e-06
-1.36827e-05
1.07914e-05
-8.07466e-07
1.30566e-05
1.17093e-05
1.50681e-05
2.34604e-05
1.67551e-05
3.40005e-05
1.80662e-05
4.29049e-05
1.89459e-05
4.98523e-05
1.93306e-05
5.46918e-05
1.91737e-05
5.74658e-05
1.84754e-05
5.83922e-05
1.73018e-05
5.78217e-05
1.57737e-05
5.61933e-05
1.4046e-05
5.39788e-05
1.22777e-05
5.16193e-05
1.06248e-05
4.94588e-05
9.2006e-06
4.76878e-05
8.07826e-06
4.63411e-05
7.21452e-06
4.52673e-05
6.54181e-06
4.42244e-05
5.8416e-06
4.28189e-05
5.00098e-06
4.0753e-05
3.71066e-06
3.76117e-05
2.04092e-06
3.33576e-05
-3.06779e-07
2.77097e-05
-2.77272e-06
2.11077e-05
-5.70338e-06
1.34045e-05
-8.04083e-06
5.4694e-06
-1.02776e-05
-2.98186e-06
-1.1121e-05
-1.04729e-05
-1.21324e-05
-1.84289e-05
-9.78838e-06
-2.37993e-05
-1.04542e-05
-2.98831e-05
-5.20962e-06
-3.33025e-05
-2.23897e-06
-3.56837e-05
-1.44378e-06
-3.79489e-05
1.02747e-05
-3.95276e-05
1.10495e-05
-3.49141e-05
2.36264e-06
-4.56949e-05
4.88205e-05
-2.99794e-05
-1.91609e-05
-4.19186e-05
3.94037e-05
-4.43348e-05
6.10171e-05
-1.73244e-05
-0.000115909
-6.62354e-05
0.000192841
-2.4608e-05
-9.17069e-05
-1.97365e-05
-0.000142947
-0.000121325
0.000531387
7.28188e-05
-0.000776701
-0.000161252
0.000606464
-2.95494e-05
0.000170927
7.97632e-05
-0.00139197
-0.000361414
0.00245863
0.000319155
-0.00237666
-0.000319613
0.000744252
-0.000121814
0.00241839
0.000507358
-0.00577509
-0.000974005
0.00716133
0.00102322
-0.00531478
-0.000649774
-0.000697469
-0.000283495
0.00914643
0.0013369
-0.015036
-0.00220252
0.0175734
0.0022656
-0.00953917
-0.00139353
-0.00508764
-0.000252908
0.0298264
0.00243535
-0.0214259
-0.00384229
0.0409016
0.00412178
-0.0186467
-0.00221659
-0.00207533
-0.000495185
0.0221907
0.00496257
-0.00972118
-0.00758309
0.0274781
0.00604617
-0.00782227
-0.000369624
-0.00057711
-0.00403233
0.0132616
0.00812503
-0.0181943
-0.00572196
0.0105083
-0.0102917
0.000354457
0.00980016
-0.0148909
-0.016456
0.0236709
0.015742
-0.0231634
0.00112576
0.00568251
-0.0211016
0.0288059
0.0216241
-0.0452569
0.00033798
0.0195875
-0.0318742
0.0378531
0.0256723
-0.0617897
0.0170758
0.00619679
-0.0171579
0.0426243
-0.00279131
-0.0285167
0.0131927
-0.000808128
0.0104655
0.00208003
-0.00644394
5.74024e-05
0.000125373
-0.000279625
-0.000105919
0.000151567
-0.000232968
0.000101097
-0.00031041
2.39111e-05
-0.000340163
-3.16081e-05
-0.000339527
-5.90639e-05
-0.000323102
-6.5572e-05
-0.000305637
-6.00837e-05
-0.000288863
-5.22082e-05
-0.000273893
-4.77589e-05
-0.00026153
-4.37808e-05
-0.000253089
-3.6348e-05
-0.000249163
-2.58181e-05
-0.000248805
-1.60409e-05
-0.00024998
-1.05661e-05
-0.000250686
-1.00452e-05
-0.000249849
-1.23302e-05
-0.00024748
-1.43817e-05
-0.000244133
-1.42001e-05
-0.000240171
-1.15109e-05
-0.000235359
-7.19312e-06
-0.000228946
-2.3045e-06
-0.000220046
2.5409e-06
-0.000208029
7.27066e-06
-0.000192727
1.21232e-05
-0.000174401
1.73253e-05
-0.000153534
2.2858e-05
-0.000130609
2.84312e-05
-0.000106044
3.36403e-05
-8.0275e-05
3.8165e-05
-5.39033e-05
4.18561e-05
-2.77671e-05
4.47006e-05
-2.87973e-06
4.67094e-05
1.9737e-05
4.78503e-05
3.92439e-05
4.80338e-05
5.51102e-05
4.72105e-05
6.71521e-05
4.54251e-05
7.54989e-05
4.2888e-05
8.05463e-05
3.98689e-05
8.28968e-05
3.66992e-05
8.33019e-05
3.36026e-05
8.2542e-05
3.08356e-05
8.13327e-05
2.84669e-05
8.01905e-05
2.66148e-05
7.94325e-05
2.50685e-05
7.90477e-05
2.37986e-05
7.8841e-05
2.23757e-05
7.82589e-05
2.0847e-05
7.67959e-05
1.86881e-05
7.36455e-05
1.62437e-05
6.84992e-05
1.29051e-05
6.06839e-05
9.48787e-06
5.05882e-05
5.16553e-06
3.78693e-05
1.26739e-06
2.36886e-05
-3.34478e-06
7.72613e-06
-6.68836e-06
-7.90052e-06
-1.10529e-05
-2.46879e-05
-1.26598e-05
-3.85734e-05
-1.64766e-05
-5.31387e-05
-1.66957e-05
-6.38799e-05
-1.79903e-05
-7.28024e-05
-1.87284e-05
-8.00651e-05
-1.78474e-05
-8.59573e-05
-1.34473e-05
-8.33655e-05
-2.28405e-05
-9.74741e-05
-1.6131e-06
-8.14084e-05
-2.1742e-05
-9.57247e-05
-1.25795e-05
-9.90762e-05
1.11405e-05
-7.14119e-05
-5.02256e-05
-0.000125092
2.36931e-05
-8.37247e-05
-1.03563e-06
-7.89988e-05
-9.81897e-05
-0.000194712
0.000158486
1.33973e-05
-0.000194194
-0.000244671
6.38566e-05
-0.000107043
0.000140675
7.50508e-06
-0.000439162
-0.000473108
0.000568577
0.00025537
-0.00044255
-0.000430402
-7.98685e-05
-0.000227426
0.000806305
0.000463711
-0.00147969
-0.00113841
0.00161413
0.00102624
-0.000932879
-0.000766559
-0.000557333
-0.000363403
0.0023381
0.00150902
-0.00356202
-0.00242812
0.00357955
0.00244854
-0.00171217
-0.00158957
-0.00144987
-0.000130044
0.00470145
0.00277225
-0.00611833
-0.00471839
0.00848735
0.00563705
-0.00565949
-0.00343448
0.00212277
-0.000497236
0.00491799
0.00864441
-0.0132472
-0.0146217
0.0304668
0.0115558
-0.0255405
-0.000902645
0.00634165
-0.0122439
0.0226043
0.0240008
-0.0524492
-0.0192988
0.0550711
-0.00241819
-0.0226789
0.0189159
-0.0297336
-0.0409135
0.0752006
0.0411044
-0.0986611
-0.000116648
0.0430092
-0.0533022
0.0800324
0.067998
-0.163845
-0.00664943
0.0934426
-0.0819028
0.107459
0.0750809
-0.208663
0.0508317
0.0210898
-0.0583941
0.158093
-0.0115257
-0.0730612
0.0450482
-0.0690006
0.0195405
0.0389214
0.0318789
0.000160395
0.000190134
-0.000260522
3.64838e-05
0.000230538
-9.00462e-05
0.000191514
-0.000203145
0.000102385
-0.000283103
1.58833e-05
-0.000322819
-4.71156e-05
-0.000335932
-7.47371e-05
-0.000338023
-7.62219e-05
-0.000336406
-7.06765e-05
-0.000333408
-6.78369e-05
-0.000330754
-6.29737e-05
-0.000331386
-4.97334e-05
-0.000337179
-3.04707e-05
-0.000346921
-1.40072e-05
-0.000356972
-7.44803e-06
-0.000363656
-1.11598e-05
-0.0003653
-1.97366e-05
-0.000362601
-2.64966e-05
-0.000357461
-2.75288e-05
-0.000351412
-2.28032e-05
-0.000344773
-1.46341e-05
-0.000336796
-5.49218e-06
-0.000326342
3.2529e-06
-0.00031254
1.14305e-05
-0.0002951
1.95349e-05
-0.000274268
2.80614e-05
-0.000250528
3.70369e-05
-0.000224312
4.59626e-05
-0.000195918
5.4135e-05
-0.000165674
6.10513e-05
-0.000134171
6.657e-05
-0.000102375
7.0795e-05
-7.15127e-05
7.38131e-05
-4.28303e-05
7.5559e-05
-1.73423e-05
7.58239e-05
4.30031e-06
7.44809e-05
2.18275e-05
7.15975e-05
3.52964e-05
6.75547e-05
4.50447e-05
6.28235e-05
5.16421e-05
5.79616e-05
5.58386e-05
5.3308e-05
5.84366e-05
4.92557e-05
6.0192e-05
4.58526e-05
6.16689e-05
4.32425e-05
6.3245e-05
4.09909e-05
6.49532e-05
3.90171e-05
6.6627e-05
3.65819e-05
6.76828e-05
3.38127e-05
6.75699e-05
2.98976e-05
6.53734e-05
2.54842e-05
6.07237e-05
1.9669e-05
5.28412e-05
1.37821e-05
4.21402e-05
6.59403e-06
2.82209e-05
2.32279e-07
1.23579e-05
-7.0052e-06
-5.83759e-06
-1.19484e-05
-2.40346e-05
-1.77948e-05
-4.3905e-05
-1.95613e-05
-6.09568e-05
-2.33086e-05
-7.90734e-05
-2.23914e-05
-9.32455e-05
-2.3274e-05
-0.000105632
-2.16944e-05
-0.00011623
-2.19904e-05
-0.000125531
-1.55022e-05
-0.000125499
-2.55693e-05
-0.000143781
-7.64612e-06
-0.000129377
-2.3851e-05
-0.000147899
-1.97904e-05
-0.000154754
-1.47191e-07
-0.000128241
-4.47463e-05
-0.000189259
-2.4289e-06
-0.000148918
4.69506e-06
-0.000146677
-0.000102262
-0.000276332
0.00011791
-5.58861e-05
-0.000141558
-0.000337975
1.01768e-05
-0.000195227
0.000149096
-7.55848e-05
-0.000355804
-0.000597226
0.000405447
0.000180441
-0.000236252
-0.000556739
-0.000209081
-0.000347019
0.000767562
0.00039938
-0.00118951
-0.00132616
0.00115358
0.00100102
-0.000458674
-0.000919584
-0.000770606
-0.000484956
0.00205479
0.0014005
-0.00285167
-0.00269548
0.00244019
0.00259335
-0.000866735
-0.00185747
-0.00150281
-1.75762e-05
0.00355645
0.00301235
-0.00505651
-0.0056533
0.00856552
0.00728713
-0.00900466
-0.00497412
0.00729284
-0.000124823
0.00218357
0.0119678
-0.0221904
-0.0218345
0.0584172
0.0184357
-0.0567322
-0.00301978
0.0208991
-0.0200565
0.0431156
0.0400934
-0.113248
-0.0340566
0.129401
0.00205661
-0.0636457
0.0249598
-0.0473173
-0.0664226
0.157303
0.0733573
-0.231326
-0.00513566
0.116425
-0.0810662
0.157188
0.118776
-0.36208
-0.0196521
0.231346
-0.128596
0.214138
0.153559
-0.48198
0.0793295
0.0850123
-0.103958
0.347668
-0.0158217
-0.163587
0.0779103
-0.167175
0.0256418
0.100911
0.0761101
0.000216505
0.000205311
-0.000262654
0.000154865
0.000248861
7.8643e-05
0.000233966
-1.65622e-05
0.000164509
-0.000106799
7.48104e-05
-0.00017626
-5.11327e-06
-0.0002221
-5.14181e-05
-0.000252608
-6.48367e-05
-0.000275572
-6.60261e-05
-0.000292971
-6.88763e-05
-0.000306332
-6.6837e-05
-0.000320149
-4.99078e-05
-0.000338809
-2.18889e-05
-0.000362388
2.1507e-06
-0.000386372
9.60153e-06
-0.000405041
-5.51108e-07
-0.000415205
-1.90054e-05
-0.000417556
-3.3967e-05
-0.000415184
-3.84884e-05
-0.000411008
-3.26382e-05
-0.000406161
-2.07525e-05
-0.000400031
-7.38226e-06
-0.000391268
5.0124e-06
-0.00037877
1.61636e-05
-0.000362156
2.6977e-05
-0.000341703
3.83754e-05
-0.000317976
5.0512e-05
-0.000291444
6.26589e-05
-0.000262353
7.37353e-05
-0.000230945
8.30098e-05
-0.000197782
9.03843e-05
-0.000163915
9.61574e-05
-0.000130731
0.000100527
-9.96299e-05
0.000103343
-7.17221e-05
0.000104176
-4.76961e-05
0.000102728
-2.78383e-05
9.90394e-05
-1.21136e-05
9.36526e-05
-2.10692e-07
8.72416e-05
8.41949e-06
8.05965e-05
1.45223e-05
7.41824e-05
1.89002e-05
6.85622e-05
2.23173e-05
6.38029e-05
2.53428e-05
6.01264e-05
2.83719e-05
5.69099e-05
3.14372e-05
5.40774e-05
3.43685e-05
5.06065e-05
3.65274e-05
4.67547e-05
3.73169e-05
4.13913e-05
3.57216e-05
3.5465e-05
3.13436e-05
2.76491e-05
2.33204e-05
1.97561e-05
1.21263e-05
9.97186e-06
-2.6954e-06
1.26954e-06
-1.97493e-05
-8.76933e-06
-3.95339e-05
-1.56057e-05
-5.9519e-05
-2.35129e-05
-8.16286e-05
-2.59684e-05
-0.000100958
-3.04565e-05
-0.000121789
-2.89152e-05
-0.000138626
-3.00578e-05
-0.000153874
-2.64403e-05
-0.000167366
-2.79504e-05
-0.000179905
-1.88707e-05
-0.000182395
-2.93582e-05
-0.000205181
-1.25033e-05
-0.000192803
-2.5056e-05
-0.000216217
-2.38364e-05
-0.000227409
-6.90675e-06
-0.000202862
-3.69484e-05
-0.000272422
-2.13719e-05
-0.000234257
1.6269e-05
-0.000235394
-0.000104713
-0.000381097
9.3382e-05
-0.000148519
-9.47106e-05
-0.000457154
-3.46783e-05
-0.000310442
0.000168499
-0.000186193
-0.000293945
-0.000752996
0.000275171
7.57253e-05
-4.7498e-05
-0.000717042
-0.000348304
-0.000502605
0.000779419
0.000302418
-0.000982011
-0.00155846
0.000763668
0.000941186
-2.04273e-05
-0.00111956
-0.00103648
-0.000655293
0.00190803
0.0013705
-0.00226574
-0.00302548
0.00146672
0.00271316
-9.13261e-05
-0.00218716
-0.00160717
5.34424e-05
0.00228172
0.00315358
-0.00409389
-0.00663866
0.00942767
0.00898041
-0.0147617
-0.00670476
0.015242
0.000572364
-0.00284831
0.0148461
-0.0330914
-0.0291473
0.0939195
0.0262932
-0.102542
-0.00647744
0.0463927
-0.0273428
0.0673377
0.0559914
-0.197929
-0.0495937
0.234969
0.00909566
-0.127422
0.027927
-0.0605096
-0.0927252
0.268616
0.109761
-0.426247
-0.0136374
0.23464
-0.108074
0.252888
0.172386
-0.641212
-0.0382533
0.441373
-0.14711
0.320373
0.172088
-0.798147
0.101755
0.145725
-0.152972
0.609115
-0.0158079
-0.30322
0.110494
-0.298302
0.0280486
0.193792
0.137248
0.000242419
0.000198346
-0.000266914
0.000216294
0.000229104
0.000187333
0.000229317
0.000132003
0.000187502
6.06838e-05
0.000115676
-9.06231e-06
3.78683e-05
-6.80048e-05
-1.49636e-05
-0.000117912
-3.52061e-05
-0.000161895
-4.24001e-05
-0.000199156
-5.20834e-05
-0.000228314
-5.61634e-05
-0.000253592
-3.90546e-05
-0.000282336
-3.27464e-06
-0.00031799
3.02374e-05
-0.000356886
4.11018e-05
-0.000391257
2.50375e-05
-0.000414952
-5.56601e-06
-0.00042701
-3.25025e-05
-0.000430939
-4.37975e-05
-0.000431215
-3.85393e-05
-0.000430307
-2.33336e-05
-0.000428103
-5.65805e-06
-0.000423133
1.03131e-05
-0.000414009
2.40533e-05
-0.000400161
3.69942e-05
-0.000381838
5.06702e-05
-0.000359694
6.55095e-05
-0.00033431
8.06047e-05
-0.00030597
9.44362e-05
-0.000274867
0.000105954
-0.000241519
0.000115094
-0.000207035
0.000122431
-0.000172972
0.000128348
-0.000140913
0.000132596
-0.00011208
0.000134419
-8.72001e-05
0.000133242
-6.65592e-05
0.000129021
-5.01304e-05
0.000122451
-3.76178e-05
0.000114413
-2.84846e-05
0.000105935
-2.19766e-05
9.7608e-05
-1.72761e-05
9.01912e-05
-1.35951e-05
8.37991e-05
-1.03505e-05
7.87802e-05
-7.12193e-06
7.43452e-05
-3.88067e-06
7.04748e-05
-8.01227e-07
6.5875e-05
1.40925e-06
6.09893e-05
2.10399e-06
5.43311e-05
1.51825e-07
4.71747e-05
-4.86966e-06
3.76463e-05
-1.39227e-05
2.80592e-05
-2.64636e-05
1.58296e-05
-4.30304e-05
4.87795e-06
-6.20903e-05
-8.12614e-06
-8.4282e-05
-1.70404e-05
-0.00010684
-2.74739e-05
-0.000131976
-3.09678e-05
-0.000154313
-3.68617e-05
-0.000178587
-3.50297e-05
-0.000198745
-3.70378e-05
-0.000217528
-3.14719e-05
-0.000234515
-3.43827e-05
-0.000250977
-2.21402e-05
-0.000256564
-3.29958e-05
-0.00028463
-1.54492e-05
-0.000274906
-2.45436e-05
-0.000304072
-2.42545e-05
-0.000320448
-9.27532e-06
-0.000298772
-2.52982e-05
-0.000377965
-3.40232e-05
-0.000343223
3.4628e-05
-0.000348594
-0.000104514
-0.000512516
8.26292e-05
-0.000268163
-4.94503e-05
-0.000605993
-7.06244e-05
-0.000456586
0.000200078
-0.000328798
-0.00024556
-0.000944646
0.00017385
-6.42528e-05
0.000132395
-0.000916463
-0.000497264
-0.000700365
0.000847313
0.000165853
-0.000852379
-0.00184143
0.00045477
0.000838102
0.00039109
-0.00137326
-0.00136361
-0.000881622
0.00192659
0.00129279
-0.00188178
-0.0034252
0.000688882
0.00277934
0.000610395
-0.00260211
-0.00178565
6.80786e-05
0.00113405
0.00318064
-0.00325161
-0.00766587
0.0113898
0.0106636
-0.0225513
-0.00859952
0.02613
0.00154466
-0.0100618
0.0173001
-0.0452947
-0.0362815
0.167738
0.0349645
-0.163537
-0.0111361
0.0847088
-0.0339079
0.0938457
0.0712556
-0.30481
-0.0654325
0.371536
0.0189535
-0.217036
0.027648
-0.0633565
-0.119421
0.405929
0.149359
-0.686981
-0.0250724
0.403577
-0.133203
0.362603
0.226708
-1.00001
-0.0616883
0.729126
-0.198112
0.454284
0.238286
-1.22251
0.117597
0.256725
-0.204053
0.938894
-0.0111028
-0.499029
0.141296
-0.455485
0.0261434
0.320009
0.211599
0.000256012
0.000183141
-0.000273926
0.000236945
0.000199212
0.000231094
0.000201734
0.000207323
0.00017931
0.000163345
0.000130116
0.000108936
6.62763e-05
5.47391e-05
1.63843e-05
1.57343e-06
-4.08611e-06
-5.11444e-05
-1.25548e-05
-9.94264e-05
-2.65024e-05
-0.000138279
-3.70964e-05
-0.000169044
-2.31648e-05
-0.000200453
1.7886e-05
-0.00024059
6.25478e-05
-0.000289446
8.19822e-05
-0.000338897
6.48766e-05
-0.000379021
2.3407e-05
-0.000404865
-1.80551e-05
-0.000418382
-4.01296e-05
-0.000425067
-3.84136e-05
-0.000429249
-2.09824e-05
-0.000431982
1.04525e-06
-0.000431989
2.08e-05
-0.000427591
3.70157e-05
-0.000417897
5.16314e-05
-0.000402989
6.69627e-05
-0.000383547
8.39235e-05
-0.00036032
0.00010158
-0.000333744
0.000117964
-0.000304017
0.000131557
-0.000271561
0.000142216
-0.000237459
0.000150849
-0.000203402
0.000158174
-0.000171198
0.000163911
-0.000142234
0.000166908
-0.000117294
0.000166186
-9.66513e-05
0.000161544
-8.02759e-05
0.000153832
-6.78908e-05
0.000144166
-5.89866e-05
0.000133827
-5.28095e-05
0.000123523
-4.85318e-05
0.000114214
-4.53399e-05
0.00010607
-4.26422e-05
9.9596e-05
-3.99922e-05
9.38315e-05
-3.73691e-05
8.8848e-05
-3.49448e-05
8.30681e-05
-3.34979e-05
7.71807e-05
-3.37143e-05
6.92982e-05
-3.68463e-05
6.10774e-05
-4.33266e-05
4.99776e-05
-5.42295e-05
3.88859e-05
-6.89285e-05
2.42651e-05
-8.80675e-05
1.11479e-05
-0.000109956
-4.93537e-06
-0.000135408
-1.59367e-05
-0.000161386
-2.91405e-05
-0.000190435
-3.36863e-05
-0.000216647
-4.13276e-05
-0.000245271
-3.91422e-05
-0.00026963
-4.23654e-05
-0.000292887
-3.46064e-05
-0.000314264
-3.90981e-05
-0.000335661
-2.30413e-05
-0.000345257
-3.43622e-05
-0.000379724
-1.476e-05
-0.000373627
-2.07132e-05
-0.000409744
-1.95922e-05
-0.000432472
-6.77111e-06
-0.000414922
-7.62489e-06
-0.000505118
-4.04985e-05
-0.000475416
6.08321e-05
-0.000486178
-9.86337e-05
-0.00067086
8.28357e-05
-0.000415483
9.16476e-07
-0.000785533
-9.6155e-05
-0.000635178
0.000241086
-0.000505389
-0.000191552
-0.00117468
8.51859e-05
-0.00024267
0.000321913
-0.0011587
-0.00064617
-0.000944906
0.000942063
-1.53913e-05
-0.000737437
-0.00218131
0.00017146
0.000685095
0.000806434
-0.00168837
-0.00170489
-0.00117275
0.00198565
0.00115661
-0.00152802
-0.00390743
-5.83283e-05
0.00272295
0.00130305
-0.00326567
-0.00182876
2.46733e-05
-0.000346845
0.00307941
-0.00214327
-0.00873728
0.01381
0.0122825
-0.0322973
-0.0106647
0.0401019
0.00276892
-0.0202904
0.0192536
-0.0580008
-0.0431221
0.190547
0.0442074
-0.23995
-0.0168192
0.137428
-0.0396088
0.120642
0.0853315
-0.431657
-0.0811345
0.537841
0.0319408
-0.335589
0.024276
-0.0495401
-0.146016
0.565841
0.19086
-1.01496
-0.0384941
0.627093
-0.155756
0.481596
0.279092
-1.43372
-0.0888296
1.09637
-0.232122
0.59498
0.304829
-1.7523
0.126644
0.424698
-0.25556
1.32985
-0.00189062
-0.755791
0.168548
-0.630989
0.0194268
0.480965
0.295786
0.000264521
0.000165013
-0.000281011
0.000239918
0.00017156
0.000238288
0.000169944
0.000229362
0.000156696
0.000205233
0.00012551
0.000167317
7.8452e-05
0.000122859
3.67788e-05
7.60611e-05
1.82186e-05
2.5725e-05
1.22579e-05
-2.33507e-05
-1.95201e-06
-6.42925e-05
-1.66848e-05
-9.43981e-05
-7.94923e-06
-0.000120633
3.39938e-05
-0.000154585
8.8519e-05
-0.000202435
0.000121339
-0.000259624
0.000111706
-0.000314319
6.61625e-05
-0.000356124
1.16855e-05
-0.000382456
-2.40953e-05
-0.000397791
-2.98247e-05
-0.000408076
-1.24516e-05
-0.000416258
1.35074e-05
-0.000421891
3.74151e-05
-0.000423202
5.6352e-05
-0.000418893
7.24636e-05
-0.000408686
8.89107e-05
-0.000393121
0.000107317
-0.000373085
0.000127006
-0.000349293
0.000145696
-0.000322072
0.000161244
-0.000291715
0.000173167
-0.000259131
0.000182655
-0.000226049
0.000190961
-0.000194522
0.000197981
-0.000166192
0.000202161
-0.000141943
0.000201969
-0.000122023
0.000196917
-0.000106366
0.000188003
-9.47037e-05
0.00017663
-8.65725e-05
0.000164375
-8.12369e-05
0.000152049
-7.78706e-05
0.000140808
-7.56406e-05
0.000130864
-7.39602e-05
0.000122905
-7.23661e-05
0.000115781
-7.08566e-05
0.000109679
-6.95956e-05
0.000102706
-6.94371e-05
9.5861e-05
-7.10942e-05
8.68002e-05
-7.59486e-05
7.76452e-05
-8.44313e-05
6.50601e-05
-9.77481e-05
5.26222e-05
-0.000115175
3.56324e-05
-0.000137491
2.04569e-05
-0.000162823
1.20874e-06
-0.000192204
-1.17809e-05
-0.000222279
-2.79032e-05
-0.000255986
-3.33272e-05
-0.000286825
-4.2929e-05
-0.000320635
-4.01019e-05
-0.00035003
-4.47996e-05
-0.000378714
-3.43983e-05
-0.000405407
-4.06686e-05
-0.000432844
-2.00244e-05
-0.000447474
-3.20392e-05
-0.000489623
-8.9719e-06
-0.00048832
-1.23444e-05
-0.000532818
-8.40373e-06
-0.000563302
1.58225e-06
-0.000551473
1.77145e-05
-0.000654294
-3.97206e-05
-0.000631703
9.64251e-05
-0.000649333
-8.51423e-05
-0.000857787
9.54054e-05
-0.00059263
5.89707e-05
-0.000998362
-0.000108015
-0.000849385
0.00029254
-0.000719747
-0.000125292
-0.00144729
9.01745e-06
-0.000464745
0.000526805
-0.00144918
-0.000789643
-0.00124288
0.00106237
-0.000248427
-0.000625009
-0.0025861
-8.80619e-05
0.000473015
0.00123054
-0.0020745
-0.00204627
-0.00153965
0.00207127
0.000949207
-0.00118101
-0.00448243
-0.000790744
0.0026123
0.0019953
-0.00366194
-0.00188478
-3.51181e-05
-0.00214264
0.00283449
-0.000562489
-0.00986677
0.0165372
0.0137887
-0.0439046
-0.0129034
0.0572055
0.00416519
-0.0338883
0.0205396
-0.0703505
-0.0498147
0.250702
0.0537947
-0.331929
-0.0232807
0.205645
-0.0443655
0.14602
0.0976599
-0.575753
-0.0964046
0.731715
0.0479774
-0.485751
0.0184457
-0.0134964
-0.172225
0.745448
0.232166
-1.4102
-0.0527546
0.905806
-0.174695
0.605395
0.326655
-1.93387
-0.11834
1.54065
-0.256217
0.730119
0.370354
-2.37052
0.12918
0.655014
-0.305587
1.77409
0.010972
-1.07567
0.190454
-0.815852
0.007589
0.676496
0.383442
0.000270164
0.000145422
-0.00028602
0.000238627
0.000147347
0.00023381
0.000141331
0.000228002
0.000131463
0.00021292
0.000112177
0.000185256
7.95923e-05
0.000148933
4.69352e-05
0.000109107
3.08347e-05
6.69159e-05
2.68466e-05
2.29587e-05
1.66335e-05
-1.53689e-05
1.33423e-06
-4.25307e-05
4.95689e-06
-6.08475e-05
4.26279e-05
-8.15509e-05
0.000101227
-0.00011651
0.000147392
-0.000168608
0.00015284
-0.000229056
0.00011408
-0.000283952
5.40779e-05
-0.000324233
5.67697e-06
-0.000350111
-1.06401e-05
-0.000367355
3.34647e-06
-0.000380895
3.18589e-05
-0.000391921
6.01346e-05
-0.000399112
8.24246e-05
-0.000400877
0.000100359
-0.000396437
0.00011775
-0.000385921
0.000137028
-0.000370152
0.000158111
-0.000350157
0.000178773
-0.000326585
0.000196254
-0.000299681
0.000209348
-0.000270022
0.000219243
-0.000239165
0.000227887
-0.000209366
0.000235721
-0.000182621
0.000240943
-0.000160014
0.000241308
-0.000141769
0.00023582
-0.000127728
0.000225571
-0.000117597
0.000212317
-0.00011096
0.000198018
-0.000107118
0.000183585
-0.000105262
0.000170356
-0.000104545
0.000158561
-0.000104403
0.000149105
-0.000104372
0.000140614
-0.000104486
0.000133419
-0.000104898
0.00012525
-0.00010654
0.000117493
-0.00011014
0.000107273
-0.000117223
9.72906e-05
-0.000128212
8.32699e-05
-0.000144473
6.9639e-05
-0.000165174
5.02905e-05
-0.00019126
3.32006e-05
-0.000220646
1.07219e-05
-0.000254629
-4.06699e-06
-0.000289491
-2.31995e-05
-0.000328628
-2.9177e-05
-0.000364881
-4.0873e-05
-0.000404771
-3.69156e-05
-0.000440104
-4.3283e-05
-0.000475262
-2.95732e-05
-0.000508293
-3.78128e-05
-0.000543011
-1.16015e-05
-0.000563834
-2.46174e-05
-0.000615114
3.5493e-06
-0.000619959
1.98218e-06
-0.000674485
1.11139e-05
-0.000714349
1.72047e-05
-0.000710163
5.2746e-05
-0.000827448
-3.00171e-05
-0.000814478
0.000143536
-0.000840741
-6.17918e-05
-0.00107641
0.00012275
-0.000803204
0.000127146
-0.00124845
-0.000102296
-0.00110376
0.000355913
-0.000977029
-4.07997e-05
-0.00176796
-5.32345e-05
-0.000737101
0.00075217
-0.0017946
-0.00092202
-0.00160233
0.00120897
-0.000541801
-0.000505067
-0.00306521
-0.000322094
0.000191173
0.00166741
-0.00254277
-0.00237242
-0.00199485
0.00217249
0.000656952
-0.000814931
-0.00516374
-0.00152118
0.00240657
0.00269934
-0.00432208
-0.00187747
-0.00044949
-0.00401565
0.00245514
0.00132024
-0.0110922
0.0193632
0.0151407
-0.057238
-0.0153324
0.077454
0.00570341
-0.0512239
0.0212768
-0.0816186
-0.0561251
0.316797
0.0633773
-0.439046
-0.030227
0.289806
-0.0481345
0.168502
0.107743
-0.733855
-0.111157
0.950403
0.0666025
-0.669634
0.0112193
0.0488049
-0.197342
0.942204
0.27107
-1.87002
-0.0668291
1.23713
-0.188893
0.729416
0.36667
-2.48813
-0.149204
2.05576
-0.270432
0.848399
0.430969
-3.06357
0.126073
0.948336
-0.351963
2.26227
0.0260167
-1.4572
0.205303
-1.00089
-0.00952482
0.904844
0.474869
0.000274544
0.000125118
-0.00029003
0.000237519
0.000125347
0.000228673
0.000116959
0.000221066
0.000108363
0.000207973
9.64135e-05
0.000184785
7.4626e-05
0.000153385
4.98116e-05
0.000119127
3.58684e-05
8.44983e-05
3.30524e-05
4.78488e-05
2.84278e-05
1.35198e-05
1.66148e-05
-1.16567e-05
1.70455e-05
-2.4979e-05
4.68754e-05
-3.33083e-05
0.000101568
-5.00835e-05
0.000154894
-8.56843e-05
0.000177013
-0.000139056
0.000154557
-0.000198091
0.000100443
-0.00024888
4.60287e-05
-0.000285126
1.92243e-05
-0.000309393
2.67049e-05
-0.000327324
5.5325e-05
-0.000342154
8.7527e-05
-0.00035382
0.000113952
-0.00036091
0.000134661
-0.000362246
0.000153551
-0.000357335
0.000173644
-0.000346548
0.000195617
-0.000331015
0.000217842
-0.000311871
0.00023731
-0.00028955
0.000251799
-0.000264255
0.000261927
-0.000237074
0.000270243
-0.000210261
0.000278199
-0.000186216
0.000284152
-0.000166378
0.000285098
-0.000151004
0.000279212
-0.00013979
0.000267502
-0.000132331
0.000252133
-0.000128231
0.000235579
-0.000126833
0.000218885
-0.000127363
0.000203566
-0.000128969
0.000189831
-0.000131128
0.000178841
-0.00013339
0.000168967
-0.000135851
0.00016071
-0.000138647
0.000151342
-0.000142795
0.000142704
-0.000149016
0.000131306
-0.000158997
0.000120578
-0.000173146
0.000105137
-0.00019303
9.04735e-05
-0.000217694
6.8775e-05
-0.000248292
4.99631e-05
-0.000282486
2.42043e-05
-0.000321888
7.88844e-06
-0.00036236
-1.43156e-05
-0.000407835
-2.03894e-05
-0.00045042
-3.42683e-05
-0.000497426
-2.85048e-05
-0.000539742
-3.67025e-05
-0.000582583
-1.87978e-05
-0.000623124
-2.92055e-05
-0.000666544
3.7998e-06
-0.000694892
-1.06057e-05
-0.000756948
2.46195e-05
-0.000769508
2.38568e-05
-0.000835947
4.10481e-05
-0.000887043
4.18284e-05
-0.000892771
9.98208e-05
-0.00102656
-9.29224e-06
-0.00102619
0.000204771
-0.00106313
-2.60741e-05
-0.00132988
0.000168133
-0.00105089
0.000207863
-0.00153984
-7.43228e-05
-0.00140297
0.000433263
-0.00128257
6.76292e-05
-0.00214231
-9.8419e-05
-0.00106671
0.00100275
-0.00220197
-0.00103716
-0.00203177
0.00138541
-0.00090468
-0.000370639
-0.00362866
-0.000523467
-0.000172172
0.00211919
-0.0031053
-0.00266818
-0.00255222
0.00228618
0.000264509
-0.000412723
-0.00596653
-0.00225022
0.00208382
0.00342641
-0.00510892
-0.00180023
-0.00097156
-0.00605163
0.00189076
0.00351133
-0.012958
0.0224055
0.0163131
-0.0722963
-0.0179986
0.100857
0.00735079
-0.0726579
0.0213091
-0.0909576
-0.0621905
0.389159
0.0726094
-0.560675
-0.0373513
0.389703
-0.0508593
0.186868
0.115287
-0.902376
-0.125504
1.19097
0.0869085
-0.888546
0.00397394
0.139104
-0.22047
1.15405
0.305688
-2.38594
-0.0803791
1.61621
-0.197436
0.848526
0.397113
-3.08125
-0.181106
2.63316
-0.273715
0.937793
0.483728
-3.81176
0.11852
1.3012
-0.392406
2.78406
0.0413999
-1.89477
0.211744
-1.17739
-0.0317052
1.16281
0.554771
0.000278769
0.000105111
-0.00029442
0.000237581
0.000105145
0.000225775
9.61907e-05
0.000215396
8.83426e-05
0.000201375
8.08871e-05
0.000179662
6.6714e-05
0.000151198
4.83158e-05
0.000120738
3.66053e-05
9.12597e-05
3.4927e-05
6.17794e-05
3.48418e-05
3.13415e-05
2.9881e-05
6.97607e-06
2.96002e-05
-5.7679e-06
5.09803e-05
-8.07913e-06
9.56992e-05
-1.03229e-05
0.000147423
-2.62345e-05
0.000181114
-6.29469e-05
0.00017821
-0.000115035
0.000139955
-0.000168607
8.95014e-05
-0.000211842
5.6631e-05
-0.000241784
5.64724e-05
-0.000262373
8.2326e-05
-0.000278264
0.000116958
-0.000291267
0.000147867
-0.000300903
0.000172618
-0.000306068
0.000194356
-0.000305779
0.000216132
-0.000299632
0.000239094
-0.00028837
0.000262584
-0.000273504
0.000284103
-0.000256003
0.000300563
-0.00023592
0.000311331
-0.000213639
0.000319007
-0.000191011
0.000326358
-0.000170717
0.000332577
-0.000154705
0.000334132
-0.000143417
0.000328051
-0.000136387
0.000314916
-0.000132988
0.000297244
-0.000132753
0.000278187
-0.000135041
0.000259013
-0.000139118
0.000241445
-0.000144134
0.00022563
-0.000149623
0.00021303
-0.000155165
0.000201727
-0.000160949
0.000192438
-0.000167097
0.000181854
-0.000174708
0.000172355
-0.000184468
0.000159714
-0.000198239
0.000148282
-0.000216407
0.000131392
-0.000240791
0.000115865
-0.0002703
9.18229e-05
-0.000306347
7.15365e-05
-0.000346287
4.24559e-05
-0.000392104
2.49615e-05
-0.00043917
-3.69791e-07
-0.000492049
-5.96165e-06
-0.000542034
-2.20936e-05
-0.000597355
-1.36617e-05
-0.000647849
-2.38376e-05
-0.000699764
-6.18924e-07
-0.000749144
-1.34212e-05
-0.000802883
2.78893e-05
-0.000840269
1.16071e-05
-0.000914957
5.62501e-05
-0.000937026
5.50472e-05
-0.00101751
8.37611e-05
-0.00108193
7.74553e-05
-0.00110023
0.000161639
-0.00125276
2.49001e-05
-0.00126848
0.000283218
-0.00131843
2.48299e-05
-0.00162059
0.000235545
-0.00133868
0.000303781
-0.00187589
-1.86307e-05
-0.00175111
0.000527199
-0.00164127
0.000206126
-0.0025755
-0.000122242
-0.00146042
0.00128373
-0.00267809
-0.00112812
-0.00253991
0.00159715
-0.00134662
-0.000215372
-0.00428693
-0.000681581
-0.000629794
0.00258751
-0.00377533
-0.00291645
-0.00322718
0.00241219
-0.000245653
4.15395e-05
-0.00690814
-0.00297336
0.00162079
0.00418865
-0.00603472
-0.00165416
-0.00166502
-0.00823084
0.00131526
0.00588192
-0.013546
0.0252621
0.0173868
-0.0883171
-0.0210355
0.127427
0.00917682
-0.0987424
0.0208254
-0.097647
-0.0679867
0.466181
0.0810694
-0.695738
-0.0443939
0.504446
-0.0524463
0.20006
0.1203
-1.07765
-0.139698
1.45073
0.107536
-1.14269
-0.00200049
0.256487
-0.241863
1.3805
0.331602
-2.94745
-0.0937614
2.03419
-0.199836
0.956745
0.417123
-3.69665
-0.214428
3.26385
-0.239851
0.959341
0.525909
-4.5674
0.107527
1.7064
-0.424796
3.32798
0.055294
-2.37884
0.208826
-1.33753
-0.0590551
1.44614
0.615518
0.000283204
8.7272e-05
-0.000299862
0.000238456
8.77892e-05
0.000224737
7.87572e-05
0.000212085
7.14629e-05
0.000196538
6.69141e-05
0.000175298
5.81003e-05
0.000148971
4.49395e-05
0.00012129
3.57901e-05
9.53874e-05
3.53442e-05
7.0679e-05
3.88016e-05
4.45875e-05
4.05872e-05
2.09306e-05
4.22706e-05
6.4475e-06
5.67214e-05
3.80482e-06
8.9551e-05
7.7527e-06
0.000133106
6.19807e-06
0.000170458
-1.24024e-05
0.000183702
-5.02961e-05
0.000165545
-9.82795e-05
0.000127914
-0.000142847
9.60934e-05
-0.000175715
9.00305e-05
-0.000196989
0.000110974
-0.000211106
0.000145639
-0.000221623
0.000180352
-0.000229594
0.000209988
-0.000234659