/*--------------------------------*- C++ -*----------------------------------*\
| =========                 |                                                 |
| \\      /  F ield         | OpenFOAM: The Open Source CFD Toolbox           |
|  \\    /   O peration     | Version:  2412                                  |
|   \\  /    A nd           | Website:  www.openfoam.com                      |
|    \\/     M anipulation  |                                                 |
\*---------------------------------------------------------------------------*/
FoamFile
{
    version     2.0;
    format      ascii;
    arch        "LSB;label=32;scalar=64";
    class       volVectorField;
    location    "0.86";
    object      U_0;
}
// * * * * * * * * * * * * * * * * * * * * * * * * * * * * * * * * * * * * * //

dimensions      [0 1 -1 0 0 0 0];

internalField   nonuniform List<vector> 
12600
(
(18.727 1.25715e-21 2.09306)
(11.6151 1.61118e-20 0.450404)
(7.34934 1.89394e-20 -0.478008)
(5.08911 0 -0.709227)
(3.97689 1.71213e-20 -0.68233)
(3.33651 1.5946e-20 -0.607662)
(2.89543 0 -0.540004)
(2.56428 0 -0.484579)
(2.30469 -4.79527e-20 -0.439133)
(2.09455 0 -0.401397)
(1.92015 2.01178e-20 -0.369526)
(1.77258 1.84231e-20 -0.342195)
(1.64573 -1.68795e-20 -0.318454)
(1.53526 0 -0.297609)
(1.43799 -1.41509e-20 -0.279135)
(1.35153 0 -0.26263)
(1.27406 4.75624e-20 -0.247778)
(1.20415 0 -0.234329)
(1.14066 -1.99116e-20 -0.222083)
(1.08269 -1.82133e-20 -0.210875)
(1.0295 1.66287e-20 -0.200572)
(0.980473 5.47293e-24 -0.191061)
(0.935109 0 -0.182249)
(0.89298 -2.50985e-20 -0.174056)
(0.853727 0 -0.166416)
(0.817042 0 -0.15927)
(0.782663 -1.86188e-20 -0.152569)
(0.750362 0 -0.146271)
(0.719941 4.00824e-24 -0.140337)
(0.691227 1.34654e-20 -0.134734)
(0.664069 1.19926e-20 -0.129433)
(0.638333 1.06281e-20 -0.124409)
(0.6139 -9.3646e-21 -0.119639)
(0.590663 -1.63899e-20 -0.115102)
(0.568529 -1.42253e-20 -0.110781)
(0.547413 1.22129e-20 -0.106658)
(0.527237 0 -0.102719)
(0.507934 -8.66463e-21 -0.0989505)
(0.48944 0 -0.0953405)
(0.471698 5.63344e-21 -0.091878)
(0.454657 0 -0.0885525)
(0.438268 1.74054e-23 -0.0853551)
(0.422489 0 -0.0822771)
(0.407279 1.58472e-23 -0.0793107)
(0.392601 -1.45373e-22 -0.0764487)
(0.378421 1.87482e-21 -0.0736846)
(0.364707 -3.48177e-21 -0.0710118)
(0.35143 0 -0.068425)
(0.338562 0 -0.0659183)
(0.326079 -7.45116e-21 -0.0634875)
(0.313954 -1.70684e-20 -0.0611269)
(0.302169 -1.90212e-20 -0.0588332)
(0.290698 1.93313e-23 -0.0566012)
(0.279527 -2.2325e-20 -0.0544283)
(0.268631 0 -0.0523094)
(0.258 2.49729e-20 -0.0502427)
(0.247609 2.60568e-20 -0.0482231)
(0.237452 2.6987e-20 -0.0462499)
(0.227503 0 -0.0443174)
(0.217763 0 -0.042426)
(0.208201 0 -0.0405699)
(0.198826 -5.91268e-20 -0.0387504)
(0.189603 0 -0.0369609)
(0.180547 0 -0.0352044)
(0.17162 1.21698e-19 -0.0334732)
(0.162843 0 -0.0317718)
(0.154176 0 -0.0300917)
(0.145646 0 -0.0284388)
(0.137207 -1.22001e-19 -0.0268038)
(0.128896 1.21453e-19 -0.0251941)
(0.120664 1.20688e-19 -0.0235996)
(0.112553 2.34005e-23 -0.022029)
(0.104513 -1.18577e-19 -0.0204723)
(0.0965902 0 -0.0189386)
(0.0887381 1.15785e-19 -0.0174185)
(0.0810036 0 -0.0159214)
(0.0733482 0 -0.0144396)
(0.0658123 0 -0.012981)
(0.0583765 2.87844e-23 -0.0115416)
(0.0510626 2.12931e-19 -0.0101259)
(0.0438845 2.08559e-19 -0.00873606)
(0.0368277 -2.03987e-19 -0.00736985)
(0.0299587 -1.99327e-19 -0.0060394)
(0.0232071 0 -0.00473176)
(0.016706 0 -0.00347197)
(0.0103258 3.68903e-19 -0.00223566)
(0.00423291 -7.17492e-19 -0.00105418)
(-0.00165542 6.96496e-19 8.85154e-05)
(-0.00737048 3.37681e-19 0.00119537)
(-0.0126055 0 0.00221273)
(-0.01778 -6.3267e-19 0.00321696)
(-0.0232363 3.05588e-19 0.00427748)
(-0.0247681 -2.95314e-19 0.00458304)
(-0.0367211 5.66457e-19 0.0068805)
(-0.0279996 0 0.00519708)
(-0.0422578 0 0.0080001)
(-0.0520933 0 0.00966795)
(-0.0125808 0 0.00255108)
(-0.102742 0 0.0195107)
(-0.0036504 0 0.000263562)
(-0.0572495 -4.06917e-19 0.0116767)
(-0.132939 -8.15668e-19 0.0244472)
(0.0729792 -8.23845e-19 -0.0135119)
(-0.219479 0 0.041929)
(0.00474123 0 -0.0022511)
(-0.0096176 0 0.00356132)
(-0.31002 -6.28389e-19 0.0580623)
(0.157876 -1.41201e-18 -0.0299428)
(-0.208687 4.95108e-19 0.0416635)
(-0.22283 0 0.0399742)
(0.204534 -1.16213e-18 -0.038195)
(-0.343548 0 0.0669936)
(-0.252772 -1.05729e-18 0.0451419)
(0.22175 1.044e-18 -0.0418566)
(-0.153195 -7.91163e-19 0.0321704)
(-0.488753 -8.09113e-19 0.0925489)
(-0.0742125 9.33181e-19 0.0119627)
(0.0677935 1.62528e-22 -0.0116416)
(-0.368327 7.26073e-19 0.0703286)
(-0.151045 0 0.0274938)
(29.1338 -1.2691e-21 4.02415)
(25.0946 0 1.85658)
(20.2359 -1.91688e-20 -0.214771)
(16.0727 0 -1.2127)
(13.1157 -1.73488e-20 -1.50799)
(11.0746 -3.04678e-20 -1.51896)
(9.60342 -1.41047e-20 -1.44137)
(8.49215 0 -1.34383)
(7.61982 3.55915e-22 -1.24852)
(6.91368 -2.19393e-20 -1.1615)
(6.32814 2.01466e-20 -1.08347)
(5.83317 1.84981e-20 -1.01369)
(5.4082 -1.69824e-20 -0.951164)
(5.03856 1.55876e-20 -0.894914)
(4.71352 2.86626e-20 -0.844081)
(4.42501 0 -0.797931)
(4.16683 -6.47671e-23 -0.755845)
(3.93415 2.20316e-20 -0.717302)
(3.72316 2.02013e-20 -0.681864)
(3.53075 0 -0.64916)
(3.35443 0 -0.618875)
(3.19213 1.53731e-20 -0.59074)
(3.04214 0 -0.564525)
(2.90302 1.27231e-20 -0.540031)
(2.77355 -2.30788e-20 -0.517088)
(2.6527 0 -0.495544)
(2.53958 1.8871e-20 -0.47527)
(2.43341 0 -0.456151)
(2.33354 -1.52499e-20 -0.438085)
(2.23937 -2.72795e-20 -0.420983)
(2.1504 -2.42912e-20 -0.404766)
(2.06618 -1.07576e-20 -0.389361)
(1.98631 9.47606e-21 -0.374705)
(1.91043 3.31779e-20 -0.360742)
(1.83822 2.87899e-20 -0.347419)
(1.76941 0 -0.33469)
(1.70372 0 -0.322512)
(1.64094 -1.71694e-23 -0.310847)
(1.58084 0 -0.29966)
(1.52325 -5.68719e-21 -0.288918)
(1.46799 0 -0.278592)
(1.41489 -6.17571e-21 -0.268655)
(1.36381 0 -0.259082)
(1.31463 -1.79012e-21 -0.24985)
(1.26721 0 -0.240936)
(1.22144 -1.88783e-21 -0.232323)
(1.17721 0 -0.22399)
(1.13444 0 -0.215921)
(1.09302 6.25443e-21 -0.208099)
(1.05287 0 -0.200511)
(1.01391 0 -0.19314)
(0.976078 0 -0.185976)
(0.939285 2.08212e-20 -0.179002)
(0.903486 4.47331e-20 -0.172212)
(0.868598 0 -0.16559)
(0.834588 0 -0.15913)
(0.801373 -2.60322e-20 -0.152816)
(0.768935 -2.69857e-20 -0.146647)
(0.737185 0 -0.140605)
(0.706127 0 -0.134691)
(0.675661 0 -0.128887)
(0.645811 0 -0.123198)
(0.616468 -5.96031e-20 -0.117602)
(0.587675 6.01305e-20 -0.112109)
(0.559312 -1.21005e-19 -0.106696)
(0.531446 0 -0.101375)
(0.50394 0 -0.0961217)
(0.476887 0 -0.0909534)
(0.450136 4.71689e-23 -0.0858409)
(0.423805 -1.20291e-19 -0.0808074)
(0.397731 -1.19425e-19 -0.0758217)
(0.372053 2.36684e-19 -0.0709106)
(0.346602 3.58125e-23 -0.0660425)
(0.321535 -1.15667e-19 -0.0612462)
(0.296689 -1.14137e-19 -0.0564925)
(0.272223 0 -0.0518096)
(0.247998 0 -0.0471746)
(0.22416 0 -0.0426104)
(0.20062 2.13135e-19 -0.0381068)
(0.177475 0 -0.0336743)
(0.154728 0 -0.0293237)
(0.132381 1.99646e-19 -0.0250428)
(0.110581 1.94876e-19 -0.0208755)
(0.089173 0 -0.0167734)
(0.0685007 0 -0.0128247)
(0.0482317 0 -0.00893948)
(0.0288196 6.98359e-19 -0.00523522)
(0.010049 -4.41035e-23 -0.00163724)
(-0.00817591 3.27928e-19 0.00184025)
(-0.0249393 -3.17362e-19 0.00505028)
(-0.041578 6.13121e-19 0.00823516)
(-0.0586262 2.95796e-19 0.0114611)
(-0.0651291 5.71154e-19 0.0127671)
(-0.100281 0 0.0194482)
(-0.0764137 0 0.0146975)
(-0.121378 0 0.0239163)
(-0.144567 0 0.0270737)
(-0.0413735 4.72214e-19 0.00888095)
(-0.295325 0 0.0570561)
(-0.00514831 0 -0.000709326)
(-0.184208 -3.90295e-19 0.038883)
(-0.365541 3.90641e-19 0.0672203)
(0.19079 1.57708e-18 -0.035457)
(-0.646296 -6.25928e-19 0.126428)
(0.0420006 0 -0.0135318)
(-0.0758474 0 0.0216669)
(-0.866103 0 0.16345)
(0.444782 6.72531e-19 -0.0879215)
(-0.657379 -4.71195e-19 0.13494)
(-0.578911 0 0.102346)
(0.538925 2.20881e-18 -0.101933)
(-1.04409 8.11041e-19 0.209637)
(-0.644855 2.00502e-18 0.112662)
(0.608617 0 -0.119015)
(-0.530382 0 0.115327)
(-1.36851 -7.64946e-19 0.262464)
(-0.169643 0 0.0223263)
(0.144049 -7.62951e-19 -0.0228144)
(-1.0794 -6.85628e-19 0.211308)
(-0.382972 0 0.0693519)
(31.8776 0 3.89367)
(31.0649 0 2.81589)
(28.5373 -1.29935e-20 1.02107)
(25.1971 0 -0.38484)
(21.9484 0 -1.2281)
(19.1784 1.51442e-20 -1.65245)
(16.9227 1.33573e-20 -1.82052)
(15.0997 0 -1.85204)
(13.6138 4.20615e-22 -1.81832)
(12.3849 2.07845e-20 -1.75583)
(11.3525 -3.79642e-20 -1.68208)
(10.4726 -1.75269e-20 -1.6054)
(9.71283 1.14615e-22 -1.52978)
(9.04947 -1.47705e-20 -1.45707)
(8.4646 -1.35536e-20 -1.38805)
(7.9445 1.23818e-20 -1.32299)
(7.47854 -2.27915e-20 -1.26187)
(7.05828 -2.0878e-20 -1.20452)
(6.67701 0 -1.15074)
(6.32926 0 -1.10027)
(6.0106 1.59322e-20 -1.05288)
(5.71732 1.45358e-20 -1.00832)
(5.44635 0 -0.966361)
(5.19511 0 -0.926804)
(4.96141 2.18686e-20 -0.889455)
(4.74335 0 -0.854141)
(4.53935 -3.57558e-20 -0.820701)
(4.34801 1.60999e-20 -0.788993)
(4.16811 0 -0.758884)
(3.99859 1.29253e-20 -0.730257)
(3.83854 1.15097e-20 -0.703002)
(3.68712 0 -0.677021)
(3.54362 -8.9896e-21 -0.652225)
(3.40738 -1.57215e-20 -0.628532)
(3.27782 1.19617e-23 -0.605865)
(3.15442 0 -0.584158)
(3.03673 0 -0.563345)
(2.92431 8.30585e-21 -0.543371)
(2.81678 0 -0.52418)
(2.7138 0 -0.505723)
(2.61505 0 -0.487956)
(2.52024 0 -0.470835)
(2.4291 0 -0.45432)
(2.3414 0 -0.438377)
(2.2569 0 -0.422969)
(2.17541 1.74407e-21 -0.408066)
(2.09672 -3.26267e-21 -0.393637)
(2.02066 0 -0.379657)
(1.94706 -5.91728e-21 -0.366094)
(1.87578 0 -0.35293)
(1.80665 0 -0.340136)
(1.73957 1.79771e-20 -0.327697)
(1.67438 0 -0.315583)
(1.61099 -2.11345e-20 -0.303785)
(1.54926 2.24198e-20 -0.292274)
(1.48912 0 -0.281043)
(1.43043 2.46062e-20 -0.270064)
(1.37314 0 -0.259335)
(1.31712 0 -0.248824)
(1.26234 0 -0.238537)
(1.20865 5.47466e-20 -0.22844)
(1.15607 5.55984e-20 -0.218542)
(1.10441 2.82782e-23 -0.208806)
(1.05375 -1.13534e-19 -0.19925)
(1.00388 2.48107e-23 -0.189831)
(0.954901 0 -0.180575)
(0.906582 0 -0.171434)
(0.85908 -1.14439e-19 -0.162442)
(0.812129 3.7979e-23 -0.153547)
(0.765933 0 -0.14479)
(0.720201 0 -0.136115)
(0.675179 -1.11581e-19 -0.12757)
(0.630563 2.88067e-23 -0.119099)
(0.586633 2.68555e-23 -0.110753)
(0.543087 0 -0.10248)
(0.500221 0 -0.0943297)
(0.457764 -2.08291e-19 -0.0862609)
(0.415995 2.04562e-19 -0.0783138)
(0.374722 0 -0.0704698)
(0.334154 0 -0.0627473)
(0.294242 0 -0.0551644)
(0.255046 0 -0.0476997)
(0.216749 0 -0.0404291)
(0.179163 0 -0.0332677)
(0.142789 0 -0.0263704)
(0.107149 0 -0.0195752)
(0.0729357 -6.56554e-19 -0.0130998)
(0.0398406 -3.18279e-19 -0.00678743)
(0.00769295 -3.0821e-19 -0.000706324)
(-0.021977 2.98218e-19 0.00494254)
(-0.0514935 -5.75961e-19 0.0105717)
(-0.0811503 -2.77839e-19 0.0160447)
(-0.0947052 -2.68175e-19 0.0189559)
(-0.152769 0 0.0296246)
(-0.116283 0 0.0224024)
(-0.194066 0 0.039045)
(-0.225458 0 0.0408502)
(-0.0726552 -4.43015e-19 0.0172091)
(-0.475171 0 0.091305)
(-0.00203549 0 -0.00405179)
(-0.321537 3.65951e-19 0.0719456)
(-0.5679 0 0.0988208)
(0.281267 -7.39186e-19 -0.0483129)
(-1.0606 5.86566e-19 0.20895)
(0.101889 0 -0.0355806)
(-0.18505 0 0.0579701)
(-1.36193 0 0.249034)
(0.699095 6.30034e-19 -0.13995)
(-1.13132 0 0.242123)
(-0.85297 -5.39271e-19 0.134458)
(0.796767 4.66366e-22 -0.143259)
(-1.74985 -7.59048e-19 0.361694)
(-0.933827 -1.87483e-18 0.141567)
(0.933165 0 -0.181289)
(-0.966245 7.0189e-19 0.226596)
(-2.1518 7.15515e-19 0.405227)
(-0.220741 8.24784e-19 0.0108367)
(0.164981 0 -0.0139655)
(-1.75974 6.41086e-19 0.347594)
(-0.538174 0 0.0877055)
(32.4001 0 2.95085)
(32.9667 0 2.76482)
(32.4142 1.22832e-20 1.7204)
(30.7723 0 0.519231)
(28.5206 -1.23274e-20 -0.485825)
(26.106 2.50747e-20 -1.20867)
(23.7881 0 -1.67166)
(21.683 -2.18938e-20 -1.93576)
(19.8242 2.09938e-20 -2.06494)
(18.2023 1.89896e-20 -2.10923)
(16.7897 1.78499e-20 -2.10244)
(15.5552 -1.62278e-20 -2.06585)
(14.4705 1.51097e-20 -2.0124)
(13.5112 -2.75531e-20 -1.94991)
(12.6573 0 -1.88311)
(11.8924 -2.33577e-20 -1.81488)
(11.2034 0 -1.74695)
(10.5794 0 -1.68037)
(10.0113 0 -1.61577)
(9.49183 1.645e-20 -1.55347)
(9.01486 -3.42914e-23 -1.49364)
(8.57521 -2.61013e-23 -1.43635)
(8.16851 1.25044e-20 -1.38156)
(7.79109 0 -1.32921)
(7.43977 0 -1.27923)
(7.11183 0 -1.2315)
(6.80493 3.3802e-20 -1.18592)
(6.51702 -6.10867e-24 -1.14237)
(6.24632 0 -1.10075)
(5.99126 0 -1.06095)
(5.75046 0 -1.02285)
(5.5227 0 -0.986372)
(5.30689 1.7004e-20 -0.951409)
(5.10207 0 -0.917877)
(4.90736 -1.291e-20 -0.885692)
(4.72198 0 -0.854775)
(4.54524 0 -0.825053)
(4.3765 -7.87493e-21 -0.796457)
(4.21518 0 -0.768923)
(4.06075 0 -0.742389)
(3.91275 3.91381e-21 -0.716799)
(3.77072 -5.59592e-21 -0.6921)
(3.63427 0 -0.668241)
(3.50304 -1.66643e-21 -0.645176)
(3.37668 0 -0.622858)
(3.25487 -3.27597e-21 -0.601249)
(3.13733 1.87057e-23 -0.580306)
(3.02379 0 -0.559995)
(2.91398 0 -0.540278)
(2.8077 6.63077e-21 -0.521125)
(2.7047 1.52011e-20 -0.502499)
(2.60481 -3.39209e-20 -0.484379)
(2.50779 0 -0.466725)
(2.41351 -1.99028e-20 -0.449523)
(2.32176 -2.11635e-20 -0.432734)
(2.23242 -2.22282e-20 -0.416348)
(2.1453 -2.31806e-20 -0.400325)
(2.06031 0 -0.384663)
(1.97724 0 -0.369318)
(1.89607 -5.06194e-20 -0.354296)
(1.81656 -1.0325e-19 -0.339549)
(1.73874 -5.24388e-20 -0.325092)
(1.66233 3.03474e-23 -0.31087)
(1.58743 5.35141e-20 -0.29691)
(1.51374 5.38172e-20 -0.28315)
(1.4414 0 -0.269627)
(1.37008 0 -0.256272)
(1.29999 1.07845e-19 -0.243134)
(1.23074 2.14843e-19 -0.230137)
(1.16262 0 -0.217342)
(1.09522 1.05997e-19 -0.204666)
(1.02888 1.05024e-19 -0.192181)
(0.96315 1.03921e-19 -0.179801)
(0.898448 2.05236e-19 -0.167604)
(0.834311 0 -0.15551)
(0.771187 0 -0.143596)
(0.708651 1.96007e-19 -0.131796)
(0.64714 -3.84885e-19 -0.120175)
(0.586324 -1.88706e-19 -0.108698)
(0.526561 0 -0.0973988)
(0.467705 0 -0.086295)
(0.409922 0 -0.0753651)
(0.353382 0 -0.0647073)
(0.297914 0 -0.054211)
(0.244127 0 -0.0440876)
(0.191449 -3.17483e-19 -0.0341127)
(0.140773 4.27765e-23 -0.0245999)
(0.0917299 2.98851e-19 -0.0153042)
(0.0440673 0 -0.00637668)
(-7.12936e-05 2.7992e-19 0.00196827)
(-0.0440436 2.70307e-19 0.010307)
(-0.0875136 0 0.0181576)
(-0.110379 -2.51599e-19 0.0231944)
(-0.191104 -4.8183e-19 0.0375517)
(-0.145113 0 0.0284574)
(-0.257304 0 0.0531373)
(-0.292486 0 0.0517333)
(-0.104474 -4.15378e-19 0.0269876)
(-0.638482 0 0.122325)
(0.00502554 0 -0.00877304)
(-0.464939 3.42986e-19 0.109022)
(-0.737781 -3.42705e-19 0.122047)
(0.342923 0 -0.0537412)
(-1.45408 0 0.288448)
(0.178951 0 -0.0645303)
(-0.332398 0 0.107802)
(-1.78948 0 0.319052)
(0.911465 1.43001e-22 -0.184942)
(-1.61761 0 0.35785)
(-1.04447 5.04634e-19 0.144327)
(0.970927 -9.67905e-19 -0.165505)
(-2.4418 0 0.517346)
(-1.12114 7.10319e-22 0.142221)
(1.18318 0 -0.228976)
(-1.44347 2.63734e-22 0.356138)
(-2.82198 0 0.524884)
(-0.23426 -7.71147e-19 -0.0147989)
(0.134065 0 0.00993007)
(-2.38979 5.99029e-19 0.476537)
(-0.603471 0 0.0848207)
(32.5032 0 2.09806)
(33.2613 0 2.22382)
(33.6085 0 1.74877)
(33.2448 0 0.954758)
(32.223 1.16362e-20 0.112996)
(30.7502 -9.00683e-22 -0.636087)
(29.0319 0 -1.2371)
(27.2268 2.06647e-20 -1.68088)
(25.4445 0 -1.98462)
(23.7511 -3.53474e-20 -2.17654)
(22.1789 0 -2.28523)
(20.7381 1.53202e-20 -2.33468)
(19.426 0 -2.34319)
(18.234 2.60145e-20 -2.32401)
(17.151 -1.18531e-20 -2.28644)
(16.1653 2.19084e-20 -2.23692)
(15.2662 -2.0063e-20 -2.17989)
(14.4435 -1.84223e-20 -2.11842)
(13.6887 0 -2.05461)
(12.994 -1.55333e-20 -1.98992)
(12.3528 -1.41976e-20 -1.92534)
(11.7591 -2.58798e-20 -1.86155)
(11.208 -1.18075e-20 -1.79901)
(10.695 0 -1.73801)
(10.2164 0 -1.67875)
(9.76871 0 -1.62133)
(9.34908 -1.59534e-20 -1.56579)
(8.95488 -1.43707e-20 -1.51216)
(8.58385 0 -1.46041)
(8.23395 0 -1.41051)
(7.90339 1.02777e-20 -1.36241)
(7.59056 0 -1.31604)
(7.29404 1.29159e-24 -1.27136)
(7.01253 -1.40559e-20 -1.22828)
(6.74487 1.22026e-20 -1.18675)
(6.49003 0 -1.14669)
(6.24706 0 -1.10804)
(6.0151 7.43253e-21 -1.07074)
(5.79337 0 -1.03471)
(5.58116 0 -0.999896)
(5.37781 -3.69332e-21 -0.966241)
(5.18274 5.28034e-21 -0.933688)
(4.99539 0 -0.902179)
(4.81527 1.57225e-21 -0.871665)
(4.64188 0 -0.842092)
(4.47483 1.53598e-21 -0.813417)
(4.31369 2.88976e-21 -0.785589)
(4.15811 0 -0.75857)
(4.00772 5.22423e-21 -0.732311)
(3.86222 -6.25319e-21 -0.706781)
(3.72129 -2.8639e-20 -0.681931)
(3.58468 1.59782e-20 -0.657737)
(3.45208 -1.74237e-20 -0.63415)
(3.32329 2.52016e-23 -0.611153)
(3.19802 0 -0.588696)
(3.07612 2.0951e-20 -0.566768)
(2.9573 2.18465e-20 -0.545316)
(2.84147 -2.2602e-20 -0.52434)
(2.72831 2.32666e-20 -0.503782)
(2.6178 4.76907e-20 -0.483652)
(2.50961 4.86164e-20 -0.463884)
(2.40377 -4.93317e-20 -0.444502)
(2.29991 4.99425e-20 -0.425432)
(2.19816 0 -0.406711)
(2.0981 0 -0.388255)
(1.99992 5.07727e-20 -0.370116)
(1.90316 0 -0.352199)
(1.80811 0 -0.334574)
(1.71424 -1.01076e-19 -0.317135)
(1.62195 0 -0.299966)
(1.53064 -9.97275e-20 -0.282954)
(1.44081 -1.97564e-19 -0.266196)
(1.35181 0 -0.249579)
(1.26423 -9.6493e-20 -0.233204)
(1.1774 0 -0.216966)
(1.09197 0 -0.200965)
(1.00731 -1.84162e-19 -0.185114)
(0.924051 1.80854e-19 -0.1695)
(0.841686 3.95109e-23 -0.154073)
(0.760758 0 -0.138882)
(0.680984 0 -0.123943)
(0.602679 0 -0.109237)
(0.52595 -1.6179e-19 -0.0948822)
(0.450701 1.57576e-19 -0.0807436)
(0.377587 0 -0.0670906)
(0.306012 5.96004e-19 -0.0536328)
(0.237007 2.89365e-19 -0.04079)
(0.170194 -5.60851e-19 -0.0282107)
(0.105226 -2.71449e-19 -0.0161604)
(0.0448548 -5.2516e-19 -0.00483019)
(-0.0153353 0 0.00651483)
(-0.0740438 0 0.0168796)
(-0.108626 2.35915e-19 0.0246707)
(-0.211901 4.51723e-19 0.0423023)
(-0.160024 -4.38358e-19 0.0322006)
(-0.30763 0 0.0654799)
(-0.343351 0 0.0588201)
(-0.134097 3.89183e-19 0.0379271)
(-0.781499 3.54051e-19 0.148988)
(0.0156065 0 -0.0147288)
(-0.609061 -3.21214e-19 0.149288)
(-0.87441 3.20906e-19 0.135123)
(0.376597 0 -0.0501252)
(-1.81866 0 0.362372)
(0.26596 0 -0.0996853)
(-0.509895 0 0.171434)
(-2.14422 0 0.368639)
(1.07463 -5.51909e-19 -0.219831)
(-2.10208 0 0.479208)
(-1.15923 0 0.128814)
(1.06133 0 -0.163614)
(-3.10098 6.63922e-19 0.671717)
(-1.21725 8.19005e-19 0.111012)
(1.35222 0 -0.256555)
(-1.94115 -6.13899e-19 0.502034)
(-3.36783 0 0.612106)
(-0.220506 -7.20405e-19 -0.0544598)
(0.0605503 0 0.050376)
(-2.94945 -5.59815e-19 0.591905)
(-0.569509 0 0.0545843)
(32.5757 -4.99916e-21 1.4837)
(33.1593 -6.20183e-21 1.62365)
(33.6862 7.36126e-21 1.43283)
(33.9121 8.29362e-21 0.971979)
(33.7201 0 0.38016)
(33.1221 -9.93816e-21 -0.235646)
(32.1916 0 -0.809638)
(31.0193 1.74679e-20 -1.30481)
(29.694 1.67043e-20 -1.70575)
(28.2918 3.22234e-20 -2.01289)
(26.8723 -1.48301e-20 -2.23594)
(25.4776 1.3842e-20 -2.38839)
(24.1347 0 -2.48416)
(22.8594 0 -2.53587)
(21.6587 1.11749e-20 -2.55414)
(20.5346 -1.14586e-22 -2.54751)
(19.4855 1.76133e-22 -2.5226)
(18.5078 1.35976e-22 -2.48451)
(17.5969 0 -2.43706)
(16.7481 0 -2.38313)
(15.9565 0 -2.32489)
(15.2173 2.43178e-20 -2.26392)
(14.5261 1.10684e-20 -2.20145)
(13.8789 0 -2.13835)
(13.2718 0 -2.07528)
(12.7016 1.65928e-20 -2.01274)
(12.1651 0 -1.95106)
(11.6596 0 -1.8905)
(11.1824 0 -1.83125)
(10.7315 0 -1.77341)
(10.3046 -6.48925e-24 -1.71707)
(9.90001 0 -1.66227)
(9.51594 -1.69298e-24 -1.60901)
(9.15091 1.32497e-20 -1.55731)
(8.80351 2.47426e-24 -1.50714)
(8.47248 0 -1.45848)
(8.15666 0 -1.41129)
(7.85501 0 -1.36554)
(7.56655 0 -1.32117)
(7.29039 0 -1.27814)
(7.02572 0 -1.23641)
(6.77179 0 -1.19593)
(6.52789 -3.18932e-21 -1.15664)
(6.29341 -1.51734e-21 -1.11849)
(6.06773 0 -1.08145)
(5.85032 1.4128e-21 -1.04545)
(5.64064 0 -1.01046)
(5.43825 0 -0.976432)
(5.24266 -9.82597e-21 -0.943311)
(5.0535 0 -0.911067)
(4.87034 1.34716e-20 -0.879645)
(4.69285 0 -0.84902)
(4.52064 3.2787e-20 -0.819135)
(4.35346 2.44158e-23 -0.789972)
(4.19091 0 -0.761471)
(4.03281 0 -0.733623)
(3.87877 0 -0.706363)
(3.72868 4.25262e-20 -0.679694)
(3.58212 -4.37743e-20 -0.653542)
(3.43907 -4.48093e-20 -0.627925)
(3.29907 -4.56799e-20 -0.602759)
(3.1622 9.27945e-20 -0.578077)
(3.02795 4.69255e-20 -0.553785)
(2.89649 0 -0.529931)
(2.76726 0 -0.506409)
(2.64053 -2.42136e-23 -0.483286)
(2.51567 0 -0.460444)
(2.39308 0 -0.437968)
(2.27205 -9.49439e-20 -0.415726)
(2.15309 0 -0.393825)
(2.03543 0 -0.372122)
(1.91971 1.85599e-19 -0.350739)
(1.80507 -9.17595e-20 -0.32953)
(1.69229 0 -0.308629)
(1.58048 0 -0.287895)
(1.47047 0 -0.267462)
(1.36143 1.72957e-19 -0.247211)
(1.25421 0 -0.22726)
(1.14808 3.32887e-19 -0.207536)
(1.04381 -1.6295e-19 -0.188112)
(0.940928 0 -0.168995)
(0.839955 0 -0.150172)
(0.740875 1.51821e-19 -0.131779)
(0.643728 -2.65714e-23 -0.113662)
(0.549158 1.43872e-19 -0.0961436)
(0.456601 -2.79502e-19 -0.0788696)
(0.367182 2.71303e-19 -0.0623715)
(0.280553 2.62945e-19 -0.0461768)
(0.196268 2.54509e-19 -0.0306974)
(0.117672 3.11933e-23 -0.0160566)
(0.0392918 0 -0.00138534)
(-0.0363222 -2.29083e-19 0.0116926)
(-0.085215 0 0.022828)
(-0.211102 0 0.0434088)
(-0.157465 4.10659e-19 0.0332468)
(-0.340973 0 0.075405)
(-0.375191 0 0.0619128)
(-0.157968 0 0.0495164)
(-0.900232 -3.31503e-19 0.170373)
(0.0298826 0 -0.0216653)
(-0.747834 -3.00728e-19 0.191554)
(-0.977237 0 0.138499)
(0.384674 0 -0.0379541)
(-2.14623 0 0.428847)
(0.355305 0 -0.139111)
(-0.708144 0 0.2468)
(-2.42294 -4.58042e-19 0.398491)
(1.18386 -5.16537e-19 -0.243072)
(-2.57014 3.615e-19 0.602595)
(-1.20716 0 0.0912625)
(1.07247 0 -0.139013)
(-3.7087 -1.24123e-18 0.81982)
(-1.23868 0 0.053004)
(1.43905 7.58427e-19 -0.262321)
(-2.4376 0 0.658526)
(-3.78036 5.82651e-19 0.667796)
(-0.190056 6.73209e-19 -0.104446)
(-0.0429112 0 0.104203)
(-3.41729 -5.22748e-19 0.688609)
(-0.429487 0 -0.00383907)
(32.6306 4.70785e-21 1.03149)
(33.0418 1.1435e-20 1.11881)
(33.4881 -6.93391e-21 1.03601)
(33.8535 -7.81314e-22 0.772794)
(34.0271 7.5116e-21 0.382635)
(33.953 0 -0.0725286)
(33.6233 0 -0.543586)
(33.0582 -1.64485e-20 -0.994806)
(32.2931 -3.05562e-20 -1.40257)
(31.3703 -7.08569e-22 -1.75385)
(30.3335 1.39633e-20 -2.04414)
(29.2231 -1.30329e-20 -2.27479)
(28.0741 1.17892e-20 -2.45065)
(26.9147 0 -2.57828)
(25.7664 0 -2.66488)
(24.6448 -9.57834e-21 -2.71743)
(23.5602 3.50582e-20 -2.74232)
(22.5192 3.22734e-20 -2.74511)
(21.5252 0 -2.73053)
(20.5796 0 -2.70244)
(19.6822 0 -2.66402)
(18.8318 -6.73755e-23 -2.6178)
(18.0267 -2.07917e-20 -2.56581)
(17.2647 9.44704e-21 -2.50966)
(16.5435 1.71748e-20 -2.45062)
(15.8608 -3.11978e-20 -2.38969)
(15.2141 1.40842e-20 -2.32766)
(14.6012 1.26987e-20 -2.26514)
(14.0198 1.14111e-20 -2.2026)
(13.4679 0 -2.14043)
(12.9436 -9.11651e-21 -2.07889)
(12.4449 8.07431e-21 -2.01822)
(11.9702 -7.12444e-21 -1.95856)
(11.5179 -1.24676e-20 -1.90004)
(11.0866 -2.16591e-20 -1.84273)
(10.6748 0 -1.78671)
(10.2814 0 -1.73199)
(9.90502 -6.61309e-21 -1.67859)
(9.54471 0 -1.62653)
(9.19943 4.31498e-21 -1.57578)
(8.86824 3.29978e-21 -1.52633)
(8.55026 0 -1.47817)
(8.24469 6.01816e-21 -1.43125)
(7.95077 1.42791e-21 -1.38555)
(7.66779 0 -1.34104)
(7.39511 -1.32939e-21 -1.29767)
(7.13208 -2.51504e-21 -1.2554)
(6.87816 0 -1.21421)
(6.63277 9.21535e-21 -1.17403)
(6.39545 -5.49884e-21 -1.13485)
(6.16568 -1.26189e-20 -1.09661)
(5.94306 0 -1.05927)
(5.72709 -2.4676e-23 -1.0228)
(5.51748 3.31143e-20 -0.987157)
(5.31373 0 -0.952288)
(5.11562 0 -0.918186)
(4.92265 -1.92766e-20 -0.884774)
(4.73469 -1.9982e-20 -0.85206)
(4.55123 4.11168e-20 -0.819959)
(4.37222 4.21219e-20 -0.788494)
(4.1971 4.29365e-20 -0.757566)
(4.02595 -4.35922e-20 -0.727217)
(3.85816 -8.81697e-20 -0.697332)
(3.69391 0 -0.667976)
(3.53251 0 -0.639018)
(3.37429 -8.96492e-20 -0.610542)
(3.21847 0 -0.582402)
(3.06552 0 -0.554707)
(2.91457 8.91728e-20 -0.527291)
(2.76625 0 -0.50029)
(2.61958 -8.7917e-20 -0.473524)
(2.47535 -3.23193e-23 -0.447148)
(2.3325 8.61447e-20 -0.420978)
(2.19198 0 -0.395183)
(2.05266 0 -0.369584)
(1.91561 0 -0.344352)
(1.77972 1.62211e-19 -0.319333)
(1.6461 0 -0.294678)
(1.51377 -1.56132e-19 -0.270289)
(1.38376 3.05674e-19 -0.246263)
(1.25536 0 -0.222599)
(1.12934 0 -0.199292)
(1.00552 0 -0.176495)
(0.884125 -2.62961e-23 -0.154032)
(0.76573 -1.34876e-19 -0.132286)
(0.649867 -2.61907e-19 -0.110831)
(0.537703 -2.54277e-19 -0.0903235)
(0.428966 2.46341e-19 -0.0701489)
(0.323102 0 -0.0509047)
(0.224038 2.30582e-19 -0.0325919)
(0.125254 0 -0.0142542)
(0.0307856 2.14574e-19 0.00174027)
(-0.0351868 0 0.0169153)
(-0.184022 0 0.0400663)
(-0.133186 0 0.0309349)
(-0.35263 -3.64234e-19 0.0821161)
(-0.384659 -3.51698e-19 0.0604805)
(-0.171712 0 0.0610652)
(-0.990534 3.10086e-19 0.185305)
(0.0489645 -3.23259e-19 -0.0294761)
(-0.874579 2.81384e-19 0.234422)
(-1.04636 -2.8064e-19 0.132175)
(0.371699 0 -0.0175421)
(-2.42905 0 0.48593)
(0.439649 0 -0.180996)
(-0.916586 0 0.331735)
(-2.62576 4.28311e-19 0.407898)
(1.23848 -2.1702e-22 -0.253539)
(-3.00717 -6.75905e-19 0.724172)
(-1.20356 0 0.0343897)
(1.01479 0 -0.0918682)
(-4.24693 5.79974e-19 0.956749)
(-1.20948 0 -0.02755)
(1.44864 -7.08751e-19 -0.246491)
(-2.91071 0 0.820018)
(-4.057 -1.0882e-18 0.688542)
(-0.152116 0 -0.16202)
(-0.159919 0 0.168556)
(-3.77155 4.88328e-19 0.760597)
(-0.181709 0 -0.0923286)
(32.6554 0 0.678191)
(32.957 -5.26231e-21 0.721698)
(33.294 0 0.672348)
(33.6246 -6.61476e-21 0.509392)
(33.8856 -1.34854e-20 0.247681)
(34.0262 0 -0.0810552)
(34.0179 6.72779e-21 -0.445398)
(33.8494 0 -0.819251)
(33.5211 9.0033e-22 -1.18242)
(33.0427 -2.59123e-20 -1.52043)
(32.4302 0 -1.82397)
(31.7038 0 -2.08815)
(30.8858 -1.10883e-20 -2.31137)
(29.9985 0 -2.49436)
(29.0628 0 -2.63943)
(28.0978 0 -2.74983)
(27.1196 -1.63775e-20 -2.82934)
(26.1416 -1.50921e-20 -2.88192)
(25.1742 -1.36986e-20 -2.91143)
(24.2255 0 -2.92152)
(23.3013 0 -2.91546)
(22.4056 -1.0683e-20 -2.89616)
(21.541 9.75282e-21 -2.86613)
(20.7089 -8.88521e-21 -2.82752)
(19.9099 -1.61533e-20 -2.78213)
(19.1439 2.92256e-20 -2.73146)
(18.4103 -5.43782e-23 -2.67677)
(17.7084 -1.19431e-20 -2.6191)
(17.0371 -1.07319e-20 -2.55929)
(16.3951 0 -2.49803)
(15.7813 0 -2.43589)
(15.1942 -7.59334e-21 -2.37334)
(14.6327 0 -2.31073)
(14.0953 1.17244e-20 -2.24838)
(13.5808 1.01824e-20 -2.18651)
(13.088 -8.75043e-21 -2.12531)
(12.6157 0 -2.06493)
(12.1628 6.21814e-21 -2.00548)
(11.7282 5.0958e-21 -1.94704)
(11.3109 3.58133e-24 -1.88968)
(10.9099 -6.20942e-21 -1.83343)
(10.5244 0 -1.77833)
(10.1533 -2.83595e-21 -1.72438)
(9.79604 0 -1.67159)
(9.45171 0 -1.61996)
(9.11963 0 -1.56946)
(8.79908 1.36136e-23 -1.52009)
(8.48945 0 -1.47181)
(8.19009 -4.32362e-21 -1.42461)
(7.90046 1.03223e-20 -1.37845)
(7.61995 1.18582e-20 -1.3333)
(7.34813 0 -1.28913)
(7.0844 -1.44529e-20 -1.24589)
(6.8284 -3.10675e-20 -1.20358)
(6.57956 0 -1.16211)
(6.33762 0 -1.12151)
(6.10199 1.81075e-20 -1.08167)
(5.8725 1.87321e-20 -1.04263)
(5.64854 -1.93003e-20 -1.00427)
(5.43005 -3.94928e-20 -0.966641)
(5.21637 0 -0.929623)
(5.00759 0 -0.893271)
(4.80294 2.82969e-23 -0.857451)
(4.60268 -4.1698e-20 -0.822244)
(4.40594 0 -0.787492)
(4.21314 4.2065e-20 -0.753304)
(4.0233 0 -0.719501)
(3.83702 0 -0.68622)
(3.65321 0 -0.653259)
(3.47264 0 -0.620786)
(3.29411 3.42336e-23 -0.588581)
(3.11858 -3.20226e-23 -0.556836)
(2.94474 -8.07523e-20 -0.525325)
(2.77374 0 -0.494256)
(2.6042 -7.85861e-20 -0.463408)
(2.43741 0 -0.432991)
(2.272 -1.52105e-19 -0.402816)
(2.10933 1.49247e-19 -0.373069)
(1.94815 -1.46299e-19 -0.343624)
(1.78976 -1.43253e-19 -0.314605)
(1.63321 0 -0.286001)
(1.47954 1.36706e-19 -0.257815)
(1.32835 0 -0.230218)
(1.1801 -1.29839e-19 -0.203012)
(1.03526 -1.2632e-19 -0.176643)
(0.893504 2.45355e-19 -0.15061)
(0.756001 0 -0.125706)
(0.622595 -4.61408e-19 -0.101151)
(0.492616 0 -0.0777724)
(0.370564 2.15857e-19 -0.0553887)
(0.248889 0 -0.0330189)
(0.133326 2.00833e-19 -0.0138111)
(0.0472788 0 0.00607276)
(-0.125171 3.70785e-19 0.0314639)
(-0.0820785 -3.59782e-19 0.0245484)
(-0.337185 3.4085e-19 0.0847202)
(-0.367707 3.29085e-19 0.0540044)
(-0.169988 0 0.071719)
(-1.04777 -5.80091e-19 0.193716)
(0.0750891 6.04778e-19 -0.0382518)
(-0.982106 0 0.276388)
(-1.08215 2.62466e-19 0.116473)
(0.344181 0 0.0101481)
(-2.65987 0 0.531965)
(0.513052 -5.09088e-19 -0.223716)
(-1.12408 0 0.423723)
(-2.75585 0 0.397779)
(1.24249 4.51644e-19 -0.250718)
(-3.39872 6.31638e-19 0.840181)
(-1.16741 3.8403e-19 -0.0376875)
(0.903036 0 -0.0246217)
(-4.69867 0 1.07804)
(-1.15788 0 -0.124494)
(1.39218 0 -0.210087)
(-3.33868 5.01267e-19 0.980627)
(-4.2008 5.08006e-19 0.675447)
(-0.112 0 -0.2249)
(-0.271612 0 0.239146)
(-3.99057 0 0.802041)
(0.170284 0 -0.210787)
(32.6546 4.21524e-21 0.389757)
(32.8868 0 0.405908)
(33.1426 4.93213e-21 0.365424)
(33.4075 0 0.252273)
(33.6506 6.03247e-21 0.0670048)
(33.8403 0 -0.175678)
(33.9539 -6.32327e-21 -0.456639)
(33.9762 1.15988e-20 -0.757939)
(33.8981 2.36788e-20 -1.06442)
(33.7149 7.2813e-22 -1.36409)
(33.4263 0 -1.64795)
(33.0355 0 -1.90978)
(32.5493 0 -2.14572)
(31.9767 0 -2.35371)
(31.3288 0 -2.533)
(30.6176 0 -2.68384)
(29.8555 1.47598e-20 -2.80727)
(29.0548 -1.36805e-20 -2.90487)
(28.227 1.28713e-20 -2.97861)
(27.3825 0 -3.03072)
(26.5307 0 -3.06352)
(25.6792 9.83729e-21 -3.07933)
(24.8346 9.00436e-21 -3.0804)
(24.0019 8.22187e-21 -3.06884)
(23.1853 0 -3.04657)
(22.3877 -1.3697e-20 -3.01533)
(21.6113 -2.47147e-20 -2.97666)
(20.8575 1.11226e-20 -2.9319)
(20.1274 0 -2.88223)
(19.4214 0 -2.82864)
(18.7395 0 -2.772)
(18.0816 7.09907e-21 -2.71303)
(17.4473 0 -2.65236)
(16.8362 0 -2.59051)
(16.2474 9.53955e-21 -2.5279)
(15.6804 8.22021e-21 -2.4649)
(15.1343 0 -2.40182)
(14.6084 5.83685e-21 -2.33889)
(14.1017 -9.5715e-21 -2.27633)
(13.6136 -3.81409e-21 -2.21429)
(13.1431 2.91835e-21 -2.15292)
(12.6894 0 -2.09231)
(12.2519 0 -2.03254)
(11.8296 0 -1.97369)
(11.4219 2.56561e-23 -1.91579)
(11.028 0 -1.85887)
(10.6472 2.20706e-21 -1.80295)
(10.279 3.15969e-21 -1.74806)
(9.92257 0 -1.69417)
(9.5774 -4.83977e-21 -1.64129)
(9.24283 0 -1.5894)
(8.91838 0 -1.53851)
(8.60341 -1.35237e-20 -1.48855)
(8.29753 2.14899e-23 -1.43955)
(8.00009 1.54586e-20 -1.39143)
(7.71081 0 -1.34421)
(7.429 0 -1.29781)
(7.1545 -1.75799e-20 -1.25225)
(6.88657 0 -1.20744)
(6.6252 3.70588e-20 -1.16342)
(6.36956 0 -1.12006)
(6.1198 0 -1.07743)
(5.87499 7.75603e-20 -1.03539)
(5.63546 7.82082e-20 -0.994029)
(5.40016 3.93025e-20 -0.953169)
(5.1696 0 -0.912944)
(4.94262 0 -0.873142)
(4.71992 3.93427e-20 -0.833931)
(4.50018 7.83633e-20 -0.795072)
(4.28436 0 -0.756767)
(4.07098 7.73089e-20 -0.718757)
(3.86121 -7.65636e-20 -0.681272)
(3.65343 7.56999e-20 -0.644041)
(3.44907 -7.46981e-20 -0.607314)
(3.24641 7.36565e-20 -0.57083)
(3.04703 0 -0.534836)
(2.84922 0 -0.499107)