/*--------------------------------*- C++ -*----------------------------------*\
| =========                 |                                                 |
| \\      /  F ield         | OpenFOAM: The Open Source CFD Toolbox           |
|  \\    /   O peration     | Version:  2412                                  |
|   \\  /    A nd           | Website:  www.openfoam.com                      |
|    \\/     M anipulation  |                                                 |
\*---------------------------------------------------------------------------*/
FoamFile
{
    version     2.0;
    format      ascii;
    arch        "LSB;label=32;scalar=64";
    class       volScalarField;
    location    "0.365";
    object      Co;
}
// * * * * * * * * * * * * * * * * * * * * * * * * * * * * * * * * * * * * * //

dimensions      [0 0 0 0 0 0 0];

internalField   nonuniform List<scalar> 
12600
(
0.396724
0.167302
0.0676053
0.0305651
0.0167845
0.0106214
0.00710611
0.00481731
0.00323412
0.00210528
0.00128694
0.000683704
0.000333442
0.000348211
0.000532011
0.000659496
0.00074698
0.000802301
0.000833405
0.000843954
0.000840881
0.000825732
0.00080254
0.000773508
0.000740351
0.000708013
0.000673047
0.000636451
0.000599035
0.000561314
0.000524445
0.000488327
0.000453338
0.000419929
0.000388057
0.000357982
0.00032968
0.000303155
0.000278353
0.000255263
0.000233852
0.00021395
0.000195465
0.000178324
0.000162433
0.000147854
0.000134662
0.000123014
0.000112991
0.000104504
9.72917e-05
9.07527e-05
8.40602e-05
7.62156e-05
6.61726e-05
5.32633e-05
3.75094e-05
2.01622e-05
1.46655e-05
2.25847e-05
3.08825e-05
3.70703e-05
4.04391e-05
3.86011e-05
3.66644e-05
2.75411e-05
3.46102e-05
7.89038e-05
0.000138465
0.000167679
0.00015877
0.000200845
0.000354648
0.000436247
0.00041244
0.000285793
9.72681e-05
9.72244e-05
0.000126538
0.000146762
0.000138428
0.00019408
0.000384564
0.000625077
0.000726791
0.00068411
0.000639232
0.000481966
0.000293788
0.000136265
5.36516e-05
3.97254e-05
4.38e-05
4.10953e-05
3.75829e-05
4.92785e-05
6.02297e-05
5.64234e-05
4.109e-05
3.71055e-05
4.32009e-05
4.0411e-05
2.58725e-05
1.1799e-05
5.15458e-06
4.64873e-06
4.96692e-06
4.63649e-06
3.23124e-06
2.87026e-06
4.55536e-06
4.74785e-06
4.42486e-06
3.66049e-06
7.95314e-06
1.2819e-05
1.94271e-05
2.31386e-05
2.99285e-05
3.49477e-05
0.633115
0.416744
0.247269
0.144198
0.0880205
0.0572935
0.0392049
0.0276039
0.0196725
0.0140238
0.00989508
0.0068234
0.00451159
0.00276117
0.00143476
0.000899882
0.0011543
0.00154949
0.0018283
0.00200978
0.00212304
0.00217639
0.00218724
0.00216364
0.00211453
0.0020499
0.00197071
0.00189581
0.00181178
0.00172004
0.00162504
0.00152802
0.00143083
0.00133541
0.0012424
0.0011528
0.00106729
0.000986017
0.000909189
0.000836938
0.000769373
0.000706181
0.00064713
0.000592063
0.000540718
0.000493227
0.000449822
0.000411081
0.000377396
0.000348776
0.000324637
0.000303406
0.000282653
0.000259286
0.000229686
0.000191034
0.000142324
8.6443e-05
6.12934e-05
7.89654e-05
0.000103515
0.000121364
0.000128732
0.000117585
0.000117877
9.72373e-05
0.000146613
0.000318913
0.00051083
0.000566202
0.000553149
0.000809875
0.00132802
0.00142641
0.00136226
0.00106407
0.000396673
0.000365425
0.000442023
0.000457613
0.000454594
0.000832537
0.00158141
0.00223813
0.00235823
0.00210275
0.00202317
0.00157371
0.000994946
0.0004845
0.000212327
0.000158543
0.000151213
0.000139512
0.00013105
0.00017683
0.000199355
0.000186182
0.000163422
0.000149583
0.00013519
0.000130376
8.60287e-05
3.94195e-05
1.98967e-05
1.90106e-05
1.72525e-05
1.66543e-05
1.34092e-05
1.02758e-05
1.16149e-05
8.78259e-06
1.17855e-05
1.86753e-05
4.12008e-05
5.59365e-05
7.73284e-05
8.69424e-05
0.000109454
0.000124224
0.69897
0.57149
0.417798
0.287749
0.194987
0.133879
0.0942258
0.0678373
0.0495853
0.0365126
0.026896
0.019685
0.014203
0.00999633
0.00674256
0.00425663
0.00232988
0.00157019
0.00193123
0.0024232
0.00277184
0.00299409
0.00312408
0.00317819
0.0031737
0.00312422
0.00303981
0.00294439
0.00284279
0.00273988
0.00262184
0.00249227
0.0023556
0.00221621
0.00207641
0.00193838
0.00180425
0.00167484
0.0015509
0.00143305
0.00132189
0.00121721
0.00111878
0.0010264
0.00093966
0.000858659
0.000783712
0.000716007
0.000656487
0.000605847
0.000563775
0.000528398
0.000496226
0.000462286
0.000419925
0.000362704
0.000286307
0.000192874
0.000137648
0.000152845
0.000188384
0.000213376
0.00021803
0.000189638
0.000207718
0.00019843
0.000333137
0.000678583
0.00100469
0.00101608
0.00104808
0.00175917
0.0027033
0.00253108
0.0024295
0.00213188
0.000837519
0.000724673
0.000821208
0.000736496
0.000884825
0.00190425
0.00336708
0.00423577
0.00403536
0.00344833
0.00348261
0.00282056
0.00185937
0.00095771
0.000458702
0.000329853
0.000273808
0.000247566
0.000238169
0.00033256
0.000346458
0.000343233
0.00035811
0.000319297
0.000223865
0.000233441
0.000160575
7.59529e-05
4.23855e-05
3.97011e-05
3.1334e-05
3.23143e-05
2.96052e-05
2.00115e-05
1.46529e-05
7.95567e-06
2.96378e-05
5.39401e-05
9.75437e-05
0.0001194
0.000156908
0.000168326
0.000209271
0.000232564
0.695524
0.637754
0.534193
0.418436
0.314402
0.23192
0.17084
0.12676
0.0948848
0.0714933
0.0540297
0.0407901
0.0306271
0.0227523
0.0166027
0.0118092
0.00804316
0.00509868
0.00279526
0.00211749
0.00271855
0.00322523
0.00357099
0.00378342
0.00389113
0.0039175
0.00387991
0.00379525
0.0036859
0.00356427
0.00346612
0.00334086
0.00319501
0.00303557
0.00286814
0.00269686
0.002526
0.00235779
0.00219387
0.00203578
0.00188507
0.00174191
0.00160622
0.00147796
0.00135655
0.00124201
0.00113473
0.00103664
0.000949528
0.000875262
0.000814427
0.000765468
0.000724376
0.000684454
0.00063562
0.000566559
0.000467544
0.000337901
0.00024166
0.000241601
0.000282999
0.000310495
0.00030573
0.000255878
0.000306249
0.000340999
0.000601089
0.00114643
0.001601
0.0015036
0.00162966
0.00297024
0.00438845
0.00374141
0.00355978
0.00343183
0.00141192
0.00114836
0.00124292
0.0009412
0.00145834
0.00338153
0.00563431
0.00645842
0.00563141
0.00473545
0.00497682
0.00415966
0.0028355
0.00152674
0.000776851
0.00054504
0.000409893
0.000364071
0.000358803
0.00050889
0.000489701
0.00053058
0.000612532
0.000527006
0.000300096
0.000345954
0.000245022
0.000120789
7.30677e-05
6.60425e-05
4.7459e-05
5.19053e-05
5.14536e-05
3.42767e-05
1.52844e-05
1.70637e-05
6.84209e-05
0.000108851
0.000176609
0.000202357
0.000256926
0.000266469
0.000327274
0.000358388
0.669422
0.646058
0.588867
0.507122
0.417002
0.331933
0.25925
0.200759
0.155114
0.119896
0.0927306
0.0716715
0.0552393
0.0423367
0.032146
0.0240872
0.017687
0.0126093
0.00857134
0.00539861
0.00315624
0.00274075
0.00342046
0.00389075
0.00419429
0.00436634
0.00443293
0.00441928
0.00434338
0.0042235
0.00410989
0.00400997
0.00389402
0.00374842
0.00357989
0.00339679
0.00320629
0.00301293
0.00281981
0.00262988
0.00244615
0.00226957
0.0021005
0.00193923
0.0017851
0.0016381
0.00149868
0.00136965
0.00125392
0.00115497
0.00107487
0.00101297
0.000965303
0.000923666
0.000874263
0.000799863
0.000683501
0.000519699
0.000371017
0.000342089
0.000384103
0.000409073
0.000387993
0.000315569
0.000412049
0.000532118
0.00095566
0.00171113
0.00228156
0.00201518
0.00227734
0.00435677
0.00628786
0.00504965
0.00467782
0.00490924
0.00211255
0.00161084
0.00168168
0.00110905
0.00230405
0.00532735
0.00825916
0.00874368
0.00702578
0.00595984
0.00645689
0.00552784
0.00387171
0.00216192
0.00115275
0.000797574
0.00055854
0.000487592
0.000491709
0.000697927
0.000619267
0.000749579
0.000913674
0.000754915
0.000357379
0.00046409
0.000335149
0.000177808
0.00011673
9.78392e-05
6.63804e-05
7.55336e-05
7.84127e-05
5.63179e-05
3.04802e-05
5.10999e-05
0.000129186
0.000183068
0.000277391
0.00030373
0.00037573
0.000380239
0.000461273
0.000499657
0.640916
0.627808
0.598532
0.54911
0.484339
0.412805
0.342656
0.279163
0.224651
0.179387
0.142531
0.11282
0.0889669
0.0698296
0.0544582
0.042111
0.0321782
0.0241934
0.0177702
0.0126345
0.00852243
0.00526482
0.00343061
0.00339548
0.0039961
0.00439941
0.00464192
0.00475985
0.00477866
0.00472188
0.0046088
0.00449754
0.0043951
0.00430246
0.00416964
0.00400349
0.00381651
0.00361658
0.00340914
0.00319916
0.00299175
0.00278912
0.00259241
0.00240255
0.00221898
0.00204175
0.00187139
0.00171175
0.00156711
0.00144297
0.00134344
0.00126938
0.00121732
0.00117784
0.00113328
0.0010597
0.000931417
0.000736276
0.00052325
0.000451101
0.000488553
0.000505675
0.000461219
0.000368682
0.000524131
0.000762317
0.00138485
0.00235993
0.00302826
0.00253993
0.002971
0.00583167
0.0083008
0.00645322
0.00569852
0.00651065
0.00293163
0.0020866
0.00211012
0.0013751
0.00351196
0.00776553
0.0111003
0.0109341
0.00813164
0.00711793
0.00788787
0.00688131
0.00493294
0.00284187
0.00157484
0.00108153
0.000719542
0.000616744
0.000634798
0.000891643
0.000727547
0.000999353
0.0012481
0.000987656
0.000391227
0.000583888
0.000427231
0.000240874
0.000168756
0.000135133
8.92052e-05
0.000103136
0.000109819
8.23317e-05
4.88818e-05
0.000102197
0.000210099
0.000276114
0.000398281
0.000421928
0.000511601
0.000508457
0.000609007
0.000653885
0.616289
0.60328
0.585438
0.556685
0.515135
0.463243
0.405883
0.347892
0.292917
0.243186
0.199704
0.162598
0.131454
0.105596
0.0842685
0.0667596
0.0524241
0.0407188
0.0311756
0.0234301
0.0171518
0.0120956
0.00803945
0.00481231
0.0035128
0.00392193
0.0044279
0.00475074
0.00492608
0.00498611
0.00495714
0.0048602
0.00474742
0.00464023
0.00458267
0.00447261
0.00432026
0.00413873
0.00393709
0.00372314
0.00350493
0.0032865
0.00307028
0.00285824
0.00265017
0.00244635
0.00224751
0.00205865
0.00188571
0.00173654
0.00161788
0.00153258
0.0014782
0.00144441
0.00140968
0.00134282
0.00120826
0.000985464
0.00069558
0.000565127
0.000592913
0.000596504
0.000521431
0.000414729
0.000640936
0.00102905
0.00188217
0.00307922
0.00382366
0.00306919
0.00369204
0.00731451
0.0103186
0.00794239
0.00652011
0.00817796
0.00386026
0.00255069
0.00249932
0.00177337
0.0049955
0.0105402
0.0140084
0.0128924
0.00890391
0.00820134
0.00924272
0.00818923
0.00599275
0.00354969
0.00203399
0.00139259
0.000893477
0.000749951
0.000785219
0.00108233
0.000809272
0.00127752
0.00160259
0.00121229
0.000399641
0.000701562
0.000518041
0.000308288
0.000228583
0.000178379
0.000117365
0.000134483
0.000144888
0.000111375
8.44013e-05
0.000170606
0.000310127
0.000386388
0.000536996
0.000555185
0.000662316
0.000649646
0.000767985
0.000818081
0.595579
0.580699
0.565474
0.546221
0.519633
0.484693
0.442786
0.396478
0.348534
0.301375
0.256841
0.216149
0.179935
0.148369
0.121282
0.0983199
0.0790261
0.062929
0.0495686
0.0385424
0.0294771
0.0220667
0.0160373
0.0111624
0.00725173
0.00440522
0.00368983
0.00430903
0.00471712
0.00495742
0.00506611
0.00507212
0.00499942
0.00487788
0.00479369
0.00474997
0.00467217
0.0045426
0.0043734
0.00417691
0.00396512
0.00374476
0.00352009
0.00329467
0.00306906
0.00284402
0.00262063
0.00240523
0.00220562
0.00203242
0.00189541
0.00180002
0.0017453
0.00172042
0.00170008
0.00164558
0.00151066
0.00126489
0.000921809
0.000715151
0.000693558
0.00067764
0.000564653
0.000453209
0.000760744
0.00132888
0.00243993
0.00385464
0.00465169
0.00359723
0.00442607
0.008738
0.0122226
0.0094947
0.00702853
0.00984589
0.00488702
0.00297892
0.00281963
0.00227537
0.0067419
0.0135559
0.0168347
0.0145163
0.00934862
0.00920454
0.0105096
0.00943805
0.0070368
0.00427432
0.00252336
0.00172772
0.00108164
0.000885385
0.00093971
0.00126308
0.000861732
0.00158029
0.00196472
0.00141866
0.000382432
0.000813624
0.000604924
0.000378635
0.000295978
0.000228232
0.000152417
0.0001692
0.000182743
0.000142558
0.000145007
0.000255611
0.000427232
0.000511641
0.000690448
0.0007011
0.000825176
0.000801884
0.000935437
0.0009887
0.577444
0.561369
0.545935
0.529737
0.510422
0.486242
0.456762
0.42259
0.384949
0.345324
0.305224
0.26601
0.228796
0.194398
0.163316
0.135771
0.111749
0.0910781
0.0734774
0.0586297
0.0461949
0.0358563
0.0273146
0.0203043
0.0145928
0.0099716
0.00626859
0.00419312
0.0040607
0.00456151
0.00487427
0.00503809
0.00508564
0.00504379
0.00493511
0.00486266
0.00481835
0.00478053
0.00468003
0.00452942
0.00434689
0.00414296
0.00392461
0.00369767
0.00346396
0.00322518
0.00298296
0.00274521
0.00252184
0.00232652
0.0021726
0.00206854
0.00201543
0.00200236
0.00200056
0.00196389
0.00183489
0.00157192
0.00118376
0.000882652
0.000786635
0.000745028
0.000586846
0.000483323
0.000881496
0.00165727
0.00304909
0.00467152
0.00549834
0.00412119
0.00516402
0.0100504
0.0138816
0.0110705
0.00710228
0.0114401
0.00599643
0.00334824
0.00304176
0.00289831
0.00872347
0.0167062
0.0194405
0.0157512
0.00951866
0.0101249
0.0116879
0.0106266
0.00805905
0.00500873
0.00303781
0.00208506
0.00128598
0.00102067
0.00109493
0.00142824
0.000884689
0.00190296
0.00232342
0.00159957
0.000369646
0.000917317
0.000704887
0.000468986
0.000370981
0.000285484
0.00019584
0.000206792
0.000222445
0.000175007
0.00022269
0.000354977
0.000557953
0.000648629
0.000854683
0.000856758
0.00099677
0.000962561
0.00110819
0.00116165
0.56104
0.544533
0.528646
0.513066
0.496518
0.477721
0.455904
0.430804
0.40258
0.371721
0.338946
0.305104
0.271084
0.237748
0.205866
0.176067
0.1488
0.124327
0.102727
0.0839379
0.0677931
0.0540687
0.0425099
0.032858
0.0248656
0.0182987
0.0129505
0.00863208
0.00518134
0.00387149
0.00430047
0.00469254
0.00491818
0.00501348
0.00500876
0.00492731
0.00485021
0.00479927
0.00480735
0.00474121
0.00461821
0.004455
0.00426246
0.00404969
0.00382052
0.00357812
0.00332502
0.00307095
0.00282823
0.00261386
0.00244521
0.00233432
0.0022848
0.00228616
0.00230672
0.00229318
0.00217681
0.00190365
0.00147534
0.00106069
0.000868072
0.000794538
0.000584057
0.000504017
0.00100082
0.00200808
0.00369933
0.00551533
0.00635207
0.00464041
0.00590145
0.0114154
0.0153699
0.0126176
0.00662297
0.0128772
0.00716731
0.00363711
0.00313793
0.00365457
0.0108987
0.0198802
0.021711
0.0165972
0.00949931
0.0109642
0.0127842
0.0117619
0.00905946
0.00574839
0.00357295
0.00246367
0.00150895
0.00115255
0.0012479
0.00157369
0.000969582
0.00224041
0.00266935
0.00175061
0.000378719
0.00101038
0.000815184
0.000577844
0.000453755
0.000350842
0.000248772
0.000246678
0.000263058
0.000215041
0.000313321
0.00046519
0.000697666
0.000793312
0.00102487
0.00101847
0.00117298
0.00112821
0.00128257
0.00133237
0.546037
0.529461
0.5134
0.497903
0.482278
0.465773
0.447856
0.428172
0.406511
0.382829
0.357254
0.33006
0.301642
0.272489
0.243166
0.214276
0.186413
0.160116
0.135807
0.113775
0.0941556
0.0769588
0.0620917
0.049394
0.0386683
0.0296975
0.0222676
0.0161707
0.0112165
0.00723251
0.0045515
0.00394568
0.00442458
0.00471876
0.00486848
0.00490546
0.00485616
0.00476657
0.00473156
0.0047617
0.00473781
0.00464774
0.00450671
0.0043288
0.00412086
0.00388834
0.00363507
0.00337305
0.00311724
0.00288829
0.00270808
0.0025927
0.00254883
0.00256709
0.0026135
0.00262832
0.0025318
0.00225677
0.00179519
0.00124697
0.000934444
0.000822058
0.00055256
0.000513889
0.00119015
0.0024472
0.00437921
0.00637238
0.00720408
0.00515559
0.00663518
0.0126825
0.0164849
0.014087
0.00549445
0.0140676
0.00837175
0.00382613
0.0030833
0.00455098
0.0132178
0.0229609
0.0235664
0.0171021
0.00938598
0.0117262
0.0138071
0.0128532
0.0100408
0.0064894
0.00412398
0.00286308
0.00175332
0.00127649
0.00139643
0.00169718
0.00114313
0.00258722
0.00299525
0.00186983
0.000388706
0.00109121
0.000924254
0.000694906
0.000544444
0.000424732
0.000311742
0.000288233
0.000303698
0.000281034
0.000412971
0.000581503
0.000840664
0.000940856
0.00119541
0.00118187
0.00134902
0.00129447
0.00145443
0.00149602
0.532271
0.51575
0.499702
0.484285
0.469046
0.453523
0.437429
0.420553
0.4027
0.38371
0.363488
0.342004
0.319293
0.295461
0.2707
0.2453
0.219647
0.194205
0.169473
0.145933
0.123994
0.103959
0.086005
0.0701874
0.0564641
0.0447184
0.0347894
0.0264906
0.0196294
0.0140174
0.00947665
0.00584519
0.00405132
0.00407947
0.00445012
0.00465934
0.00474342
0.00473174
0.00464783
0.00463227
0.00465435
0.00467721
0.0046226
0.00450698
0.00434235
0.00413757
0.00389846
0.00363976
0.00337948
0.00314223
0.00295483
0.00283799
0.00280209
0.00283957
0.0029151
0.0029635
0.00289463
0.0026275
0.00214164
0.00153714
0.00107355
0.000823602
0.000489068
0.000511132
0.00140567
0.00293115
0.00507658
0.00723011
0.00804788
0.00566785
0.00735664
0.0137446
0.0171001
0.0154459
0.00540324
0.0149249
0.0095753
0.00389882
0.0028574
0.0055855
0.0156305
0.0258389
0.0249751
0.0173455
0.00926129
0.012413
0.0147633
0.0139079
0.0110064
0.00722734
0.00468483
0.00328271
0.00202184
0.00138629
0.00153947
0.00179825
0.00134394
0.00293827
0.00329608
0.0019573
0.00038771
0.00115871
0.0010312
0.0008196
0.000642978
0.000507078
0.000384447
0.000330845
0.000343622
0.000367234
0.000516549
0.000698388
0.000980675
0.00108598
0.00136035
0.00134201
0.00151974
0.00145635
0.00161924
0.00164788
0.519597
0.503177
0.487222
0.47193
0.456958
0.441968
0.426799
0.411354
0.395528
0.379208
0.3623
0.34472
0.326386
0.307223
0.287174
0.266237
0.244487
0.222102
0.19937
0.176673
0.154446
0.133136
0.113144
0.0947843
0.0782617
0.0636649
0.0509837
0.0401306
0.0309678
0.0233295
0.0170378
0.0119163
0.00779664
0.00466268
0.00366437
0.00411787
0.00439369
0.00453133
0.00456148
0.00451227
0.00448344
0.00449112
0.0045634
0.00454752
0.00445566
0.00430236
0.00409645
0.00385622
0.00360314
0.00336615
0.00317756
0.00306326
0.00303801
0.00309705
0.00320483
0.00329207
0.00325931
0.00301132
0.00251248
0.00185908
0.00121637
0.000798482
0.000390888
0.000493525
0.00162507
0.00343554
0.00577888
0.00807704
0.0088787
0.00617838
0.00804342
0.0145677
0.0174853
0.0169308
0.00696287
0.0153605
0.0107376
0.0038425
0.00244559
0.00708528
0.0183852
0.0284179
0.0259505
0.017418
0.00917924
0.0130214
0.0156552
0.0149287
0.0119584
0.00795752
0.00524829
0.00372122
0.00231687
0.00149158
0.00167741
0.00187838
0.00156448
0.00328891
0.0035821
0.00202696
0.000373688
0.00125194
0.00117356
0.000951208
0.000748903
0.000597147
0.000465607
0.00039169
0.000387694
0.000455031
0.000618269
0.000810055
0.00111148
0.00122341
0.00151401
0.00149392
0.00168012
0.0016088
0.00177259
0.00178383
0.507893
0.491597
0.475767
0.460616
0.445873
0.43126
0.416665
0.402045
0.387346
0.372507
0.357478
0.342217
0.326669
0.310752
0.294357
0.277358
0.259643
0.241144
0.221873
0.201946
0.181586
0.161118
0.140939
0.121471
0.103113
0.0861895
0.0709244
0.0574283
0.0457106
0.0357022
0.0272797
0.0202885
0.0145602
0.00992643
0.0062247
0.00404903
0.00372681
0.00407754
0.00427333
0.00435223
0.00433929
0.00429015
0.00430813
0.00440161
0.00442167
0.00435201
0.00420473
0.00400314
0.00377299
0.00354793
0.0033663
0.00325991
0.00324866
0.00333173
0.00347483
0.0036063
0.00361874
0.00340269
0.0029046
0.00221166
0.00149665
0.000879302
0.000265979
0.000594855
0.00197639
0.00394951
0.00647325
0.00890287
0.00969274
0.00668931
0.00865441
0.0151225
0.0182432
0.0190355
0.00902172
0.0152837
0.0118128
0.00364952
0.00212708
0.00874175
0.0211276
0.0306268
0.0265422
0.0174018
0.0091601
0.0135408
0.0164814
0.0159132
0.0128974
0.00867645
0.00580704
0.00417561
0.00263972
0.00165152
0.00181214
0.0019409
0.00180267
0.00363522
0.00390215
0.00213037
0.000344492
0.00135394
0.00133701
0.00108873
0.00086125
0.000693472
0.000552988
0.000471624
0.000453558
0.00053914
0.000712402
0.00091123
0.00122784
0.0013486
0.00165181
0.00163328
0.00182603
0.00174755
0.00191078
0.00190108
0.497059
0.480898
0.465205
0.450196
0.435653
0.421338
0.407163
0.393102
0.379123
0.365185
0.351259
0.337334
0.323402
0.309437
0.295378
0.281122
0.266532
0.251452
0.235739
0.21929
0.202082
0.184186
0.165782
0.147157
0.128681
0.110765
0.0938058
0.0781384
0.0639986
0.0515106
0.0406954
0.0314925
0.023785
0.0174242
0.0122462
0.00808753
0.00479275
0.00345699
0.00371187
0.003975
0.00410533
0.00413347
0.0040875
0.00412376
0.00418962
0.00424382
0.00419037
0.0040551
0.00386918
0.00367185
0.0035083
0.0034171
0.00342424
0.00353422
0.00371576
0.00389698
0.00396435
0.00379454
0.0033135
0.00259336
0.00181061
0.00110846
0.00040886
0.000849938
0.00234721
0.0044612
0.00714686
0.00969865
0.0104862
0.00720574
0.00913372
0.0153922
0.0186856
0.020939
0.0112929
0.0145861
0.0127518
0.00331817
0.00241582
0.0105041
0.0237671
0.0324239
0.0268242
0.0173588
0.00919545
0.0139549
0.0172367
0.0168547
0.0138211
0.00938356
0.00635567
0.00464074
0.00299035
0.00186979
0.00194682
0.00199082
0.00205544
0.00397403
0.00420669
0.00222513
0.000297964
0.00144499
0.00150438
0.00123084
0.000978488
0.000793912
0.000643542
0.000552743
0.000532614
0.000614637
0.00079409
0.000997912
0.00132627
0.00145843
0.00177107
0.00175728
0.001955
0.00186998
0.00203167
0.00199874
0.487009
0.470985
0.455432
0.440561
0.426194
0.412126
0.398279
0.384639
0.37118
0.357867
0.344672
0.331588
0.318624
0.305792
0.293085
0.280466
0.267858
0.255143
0.242164
0.228753
0.21475
0.200038
0.184562
0.168364
0.151595
0.134517
0.117484
0.100898
0.0851596
0.0706101
0.057494
0.0459425
0.0359799
0.0275474
0.0205286
0.0147758
0.0101291
0.00642645
0.00393533
0.00330012
0.00363587
0.00382378
0.00390109
0.00389213
0.00390677
0.00392913
0.00400797
0.0039763
0.00386425
0.00371671
0.00358683
0.00352094
0.00355249
0.00369299
0.0039163
0.0041529
0.00428548
0.00417764
0.00373265
0.00300103
0.00215713
0.00136857
0.000578813
0.00113134
0.00272531
0.00495792
0.00778728
0.0104561
0.0112549
0.00773666
0.00942275
0.015376
0.0188969
0.022684
0.0138192
0.0131437
0.013503
0.00285393
0.00316771
0.0123332
0.0262341
0.033792
0.02688
0.0173263
0.00925915
0.0142463
0.0179126
0.0177444
0.0147235
0.0100814
0.00689218
0.0051092
0.00336665
0.00210899
0.00208569
0.00203475
0.00231842
0.00430285
0.00449746
0.00235497
0.000351809
0.00160314
0.00167437
0.00137584
0.00109859
0.00089584
0.000733768
0.000629765
0.000603544
0.00067771
0.000860113
0.001068
0.00140567
0.00155176
0.0018715
0.00186514
0.00206664
0.00197563
0.00213513
0.00207807
0.477667
0.461778
0.446364
0.431624
0.417414
0.403554
0.389976
0.376666
0.363608
0.350768
0.338114
0.325632
0.313327
0.301215
0.289313
0.277629
0.266147
0.254818
0.24355
0.232215
0.220651
0.208686
0.196153
0.182917
0.168907
0.154145
0.138762
0.123003
0.107212
0.0917874
0.0771319
0.0635939
0.0514224
0.0407494
0.0315962
0.0238994
0.0175405
0.0123688
0.00822679
0.00495744
0.00331439
0.00325548
0.00351177
0.00364016
0.00367908
0.00365872
0.00372477
0.00372166
0.00372068
0.00365348
0.00357901
0.00355319
0.00361774
0.00379367
0.00406253
0.00436023
0.00456864
0.00453975
0.00415258
0.00342917
0.00253439
0.0016593
0.000776223
0.00142959
0.00309927
0.00542648
0.0083826
0.0111669
0.0119933
0.00829355
0.00947418
0.0150863
0.018943
0.0250116
0.0173096
0.0108657
0.0140218
0.00287763
0.00401955
0.0141866
0.0284686
0.0347371
0.0267878
0.0173206
0.00932021
0.0144031
0.0184973
0.0185733
0.0155953
0.010774
0.00741736
0.00557202
0.00376494
0.00236826
0.00223309
0.0020806
0.00258538
0.00461952
0.00477653
0.00255714
0.000470762
0.00176853
0.00184586
0.00152186
0.00121923
0.000996435
0.000820182
0.000699223
0.000662946
0.000726203
0.000909337
0.00112151
0.00146721
0.00162941
0.00195491
0.00195806
0.00216257
0.00206608
0.00222302
0.00214215
0.468967
0.453208
0.43793
0.423315
0.409246
0.395566
0.382211
0.36917
0.35643
0.343961
0.331731
0.319718
0.307917
0.296334
0.284985
0.27389
0.263061
0.252497
0.242173
0.232028
0.221964
0.211849
0.201523
0.190812
0.179542
0.167569
0.154813
0.141281
0.12709
0.112475
0.0977702
0.0833745
0.0696952
0.0570851
0.0457943
0.0359496
0.0275655
0.0205693
0.0148369
0.0102169
0.00654953
0.00377045
0.00283607
0.00316385
0.00335634
0.00345129
0.00348383
0.00348823
0.0035185
0.0034904
0.00345426
0.00348843
0.00359945
0.00381797
0.00413704
0.00450169
0.00479665
0.00486467
0.00455987
0.00386889
0.00293841
0.00197994
0.00100224
0.0017345
0.00345657
0.00585349
0.00892119
0.0118212
0.0126933
0.00888859
0.00926057
0.0145427
0.0188465
0.0268114
0.0207642
0.00781046
0.0142933
0.00347014
0.00494827
0.0160212
0.0304219
0.0352841
0.0266103
0.0173432
0.00935316
0.0144234
0.0189766
0.0193332
0.0164265
0.0114646
0.00793186
0.00601927
0.00418009
0.00264469
0.00239267
0.0021372
0.00284765
0.00492166
0.00504619
0.00277345
0.000592603
0.00193464
0.00201818
0.00166704
0.00133803
0.00109303
0.000899822
0.00075866
0.000709004
0.00075985
0.000942696
0.00116022
0.0015137
0.0016936
0.0020244
0.0020385
0.00224561
0.0021442
0.00229845
0.00219498
0.460854
0.445218
0.43007
0.415573
0.401632
0.388109
0.374944
0.362126
0.349646
0.337476
0.325585
0.313949
0.302554
0.291397
0.280483
0.269825
0.259441
0.249346
0.239546
0.230032
0.220768
0.211688
0.202692
0.193652
0.184409
0.174785
0.164605
0.153723
0.14205
0.129586
0.116437
0.102828
0.0890879
0.0756185
0.0628308
0.0510804
0.0406155
0.0315542
0.023899
0.0175674
0.0124262
0.00832303
0.00509561
0.00315001
0.0027831
0.00304967
0.00320984
0.00330038
0.00334069
0.00334007
0.00331128
0.00329449
0.00346922
0.00374217
0.00411784
0.00455554
0.00494758
0.00513108
0.00493587
0.00430678
0.00336209
0.00232805
0.00125698
0.00203426
0.00378411
0.00622581
0.00939125
0.0124072
0.0133448
0.00952985
0.0087743
0.0137675
0.018601
0.0279838
0.0240818
0.00423323
0.0143309
0.00412204
0.00592578
0.0177944
0.0320571
0.0354705
0.0263883
0.0173869
0.00934396
0.0143159
0.0193355
0.0200162
0.0172104
0.0121563
0.00843376
0.00644124
0.00460689
0.0029337
0.00256605
0.00221357
0.00309356
0.00520583
0.0053085
0.00300477
0.000717873
0.0021023
0.00219119
0.00180987
0.00145288
0.00118342
0.000970667
0.000806937
0.000741675
0.000780064
0.000962662
0.00118692
0.00154852
0.00174694
0.00208317
0.00210907
0.00231873
0.00221299
0.0023647
0.00224034
0.453275
0.437757
0.422733
0.408348
0.394523
0.381138
0.368138
0.35551
0.343245
0.331319
0.319705
0.308376
0.297314
0.286509
0.275958
0.265664
0.255637
0.24589
0.236439
0.227293
0.218451
0.209895
0.201585
0.193454
0.185404
0.177309
0.169008
0.160329
0.151097
0.141166
0.130444
0.11892
0.106693
0.0939823
0.0811137
0.068489
0.0565236
0.0455752
0.0358871
0.0275667
0.0206004
0.0148947
0.0103059
0.00667865
0.00385949
0.00261396
0.00271651
0.00295048
0.00309679
0.00317671
0.00318803
0.0031237
0.00319099
0.00353435
0.00397676
0.00449448
0.00499371
0.00531135
0.00525532
0.00472352
0.003794
0.00269862
0.00153881
0.00231576
0.00406869
0.00653071
0.00977998
0.0129097
0.013934
0.0102143
0.00802388
0.0127885
0.0182157
0.0286166
0.0271057
0.00382244
0.014136
0.00479206
0.00691953
0.0194643
0.0333472
0.0353394
0.0261407
0.0174395
0.00929046
0.0140959
0.0195591
0.0206113
0.0179444
0.0128515
0.00892049
0.006832
0.00504096
0.0032302
0.00275149
0.00231778
0.00330838
0.00546694
0.0055649
0.0032518
0.000847394
0.0022728
0.00236555
0.00194949
0.00156216
0.00126603
0.00103185
0.000844278
0.00076248
0.000789377
0.00097239
0.00120447
0.0015746
0.00179162
0.00213365
0.00217178
0.00238417
0.00227474
0.00242426
0.00228098
0.446188
0.43078
0.415872
0.401593
0.387875
0.374615
0.361758
0.349293
0.33721
0.325489
0.314102
0.303025
0.292238
0.281727
0.271483
0.261501
0.251782
0.242334
0.233165
0.224289
0.215715
0.207448
0.199479
0.191787
0.184329
0.177039
0.169824
0.162556
0.15508
0.147228
0.138828
0.129735
0.119855
0.109171
0.097776
0.0858803
0.0738079
0.0619616
0.0507601
0.0405628
0.0316059
0.023984
0.0176656
0.0125422
0.00846769
0.00528482
0.00302488
0.00235276
0.0026612
0.00286508
0.00297706
0.00299351
0.00294005
0.00315249
0.00367691
0.0042841
0.00490033
0.00537016
0.00548466
0.00509204
0.00421702
0.00308318
0.00184373
0.00256536
0.00429764
0.0067559
0.0100727
0.0133103
0.014443
0.0109244
0.00703062
0.0116424
0.0177335
0.0289333
0.0299553
0.00686858
0.0134814
0.00546258
0.00794465
0.021038
0.0342761
0.0349328
0.0258664
0.0174852
0.0091988
0.0137797
0.0196341
0.0211003
0.0186234
0.0135478
0.00939454
0.00719394
0.00547715
0.00353096
0.00294329
0.00245523
0.00347426
0.00569824
0.00581548
0.00351495
0.000981623
0.00244704
0.00254255
0.00208603
0.00166489
0.00134001
0.00108357
0.000872034
0.000773983
0.000790725
0.000974864
0.00121512
0.00159391
0.00182899
0.00217728
0.00222774
0.0024432
0.00233077
0.00247856
0.00231838
0.43955
0.424246
0.409449
0.395269
0.381651
0.368502
0.355773
0.34345
0.331524
0.319975
0.30878
0.297912
0.287354
0.277088
0.267103
0.257388
0.247939
0.238754
0.229839
0.221199
0.212843
0.204781
0.197017
0.18955
0.182369
0.175449
0.168749
0.162206
0.155724
0.149181
0.14243
0.135305
0.127643
0.119298
0.110175
0.100254
0.089619
0.0784739
0.0671383
0.0560156
0.0455272
0.0360337
0.0277639
0.0207958
0.0150834
0.0105045
0.00691368
0.00415637
0.00257182
0.00233466
0.00259561
0.00273753
0.00276476
0.0027686
0.00316943
0.00388041
0.00462419
0.00526304
0.00558031
0.00537486
0.00460623
0.00346881
0.00216489
0.00276951
0.00445913
0.00688933
0.0102521
0.0135859
0.0148485
0.0116305
0.00658503
0.01037
0.0171854
0.0290834
0.0324648
0.0102275
0.0119534
0.0060742
0.00907671
0.022568
0.0348317
0.0342887
0.0255518
0.0175053
0.00907811
0.0133782
0.0195504
0.0214607
0.0192325
0.0142282
0.00986614
0.00753832
0.00590637
0.00383759
0.00313236
0.00262656
0.00357029
0.00588975
0.0060583
0.00379398
0.0011205
0.0026244
0.00272354
0.00222076
0.00176091
0.0014051
0.0011268
0.000892234
0.000782894
0.000786785
0.000972365
0.00122028
0.00160752
0.00185972
0.00221468
0.00227749
0.00249639
0.00238172
0.00252825
0.0023532
0.433326
0.418119
0.403427
0.389341
0.375815
0.362768
0.350153
0.337956
0.326166
0.314766
0.303732
0.293042
0.282675
0.272615
0.262848
0.253361
0.244145
0.235194
0.226507
0.218084
0.20993
0.20205
0.194451
0.187138
0.180113
0.173369
0.166893
0.160663
0.154637
0.148751
0.142914
0.13701
0.130897
0.12442
0.117417
0.109749
0.101317
0.0920984
0.0821686
0.0717239
0.0610778
0.0506323
0.0408115
0.0319753
0.0243476
0.0179915
0.0128482
0.00878625
0.00565294
0.00329063
0.00222638
0.00228068
0.0024651
0.00250688
0.0026104
0.00322603
0.00411123
0.00493444
0.00548617
0.00552143
0.00492515
0.00383612
0.00249225
0.00291535
0.00454241
0.00691879
0.0102961
0.0137105
0.0151231
0.0122841
0.0073368
0.0089912
0.0165378
0.0290082
0.0339217
0.0133973
0.00945338
0.00658635
0.010095
0.0238435
0.0350118
0.0334369
0.0251725
0.0174762
0.00893602
0.0128938
0.0193036
0.0216724
0.0197503
0.0148607
0.0103458
0.00787617
0.00631498
0.00415737
0.00330868
0.00282558
0.00357529
0.00602703
0.00628835
0.00408724
0.00126434
0.00280219
0.00290868
0.00235593
0.00185092
0.00146149
0.00116281
0.000911223