/*--------------------------------*- C++ -*----------------------------------*\
| =========                 |                                                 |
| \\      /  F ield         | OpenFOAM: The Open Source CFD Toolbox           |
|  \\    /   O peration     | Version:  2412                                  |
|   \\  /    A nd           | Website:  www.openfoam.com                      |
|    \\/     M anipulation  |                                                 |
\*---------------------------------------------------------------------------*/
FoamFile
{
    version     2.0;
    format      ascii;
    arch        "LSB;label=32;scalar=64";
    class       volVectorField;
    location    "0.365";
    object      ddt0(U);
}
// * * * * * * * * * * * * * * * * * * * * * * * * * * * * * * * * * * * * * //

dimensions      [0 1 -2 0 0 0 0];

internalField   nonuniform List<vector> 
12600
(
(836.919 0 1014.84)
(1474.76 -5.91219e-16 280.781)
(822.377 -5.17281e-16 105.633)
(610.468 0 126.65)
(519.422 -3.63763e-18 154.813)
(445.652 0 160.068)
(382.789 6.9104e-16 149.289)
(323.939 0 138.658)
(277.749 0 129.364)
(255.245 0 113.633)
(190.37 0 51.0619)
(144.508 1.2126e-15 40.3996)
(122.297 1.14689e-15 35.3944)
(114.942 0 32.6652)
(104.454 -2.00954e-15 29.6388)
(92.3253 0 25.46)
(83.9213 -1.29509e-17 22.9588)
(68.2514 0 18.6447)
(61.408 -7.58883e-16 16.2127)
(48.7737 0 13.9079)
(45.6769 0 13.6241)
(45.0449 0 14.7058)
(44.3285 -2.34266e-15 11.3153)
(49.0216 2.18678e-15 3.47215)
(38.1924 2.49255e-17 -1.42875)
(29.044 -9.84221e-16 -4.7837)
(40.4246 0 -2.99803)
(26.0431 0 -11.5187)
(16.3639 0 -10.4507)
(0.301575 1.70995e-15 -14.4214)
(-4.04242 2.86444e-15 -8.76116)
(15.368 0 2.90593)
(20.2963 0 8.40308)
(27.1452 1.18908e-15 13.0331)
(26.1372 1.17192e-15 12.2944)
(28.199 0 14.0617)
(25.234 0 12.0423)
(23.6214 2.05045e-15 11.3869)
(19.2475 0 9.26071)
(14.2214 -5.83929e-18 6.82592)
(10.3278 1.96567e-15 5.72646)
(6.73254 1.76402e-15 3.8789)
(4.52603 0 3.66363)
(2.87283 1.63075e-15 2.82478)
(2.11331 1.60608e-15 2.24183)
(-0.954117 -2.87768e-15 1.11419)
(-0.595151 2.70079e-15 0.476157)
(-2.88506 0 -1.69843)
(-4.15338 -1.92415e-15 -2.56049)
(-5.13678 1.44118e-15 -3.59563)
(-7.52065 0 -4.66743)
(-8.82836 2.61251e-17 -4.61679)
(-8.8719 -2.41129e-16 -3.0193)
(-7.9129 0 -0.767408)
(-5.7786 -1.07553e-15 -0.271734)
(-6.1694 0 -0.177455)
(-4.25803 0 -0.216832)
(-4.13671 -1.5309e-18 0.0239477)
(-2.96213 -3.25746e-18 0.0717993)
(-2.33268 3.18061e-15 -0.112712)
(-2.63947 -3.44149e-15 -0.846448)
(-0.660721 7.43086e-15 -0.527373)
(3.12232 0 -0.139472)
(-9.34997 6.63522e-15 -16.2562)
(-7.34932 7.84467e-15 -5.12667)
(-0.795756 -1.6232e-14 -1.55932)
(-0.265806 8.06207e-15 -2.00707)
(1.93929 0 -2.58566)
(1.39129 0 -1.94021)
(-3.22844 0 -0.855737)
(-9.63898 0 3.56046)
(-35.0054 0 17.331)
(-55.7766 -1.80731e-14 29.0686)
(17.5747 1.77444e-14 -11.6075)
(69.1149 0 -40.7596)
(12.6799 0 -8.66669)
(-16.5152 1.75227e-14 6.54711)
(-3.37206 6.74713e-19 0.420473)
(-14.1623 3.51882e-14 4.79905)
(-13.3469 0 1.09938)
(3.60866 0 -9.87135)
(24.6401 0 -18.8626)
(43.9134 1.25343e-17 -27.972)
(37.4439 0 -22.9226)
(16.8605 0 -13.6677)
(-13.7763 3.56736e-14 -3.83631)
(-39.4585 5.16299e-17 14.466)
(-48.1327 0 21.8734)
(-38.5547 0 17.6805)
(-25.7731 -6.95201e-14 11.2544)
(-17.4549 -6.77327e-14 7.10307)
(-8.75645 -6.66034e-14 2.97241)
(-3.5501 -6.39628e-14 0.352222)
(-0.892841 1.52671e-17 -1.30357)
(-1.81535 5.59542e-18 -0.162766)
(-5.9789 5.77092e-14 2.42791)
(-5.47031 0 1.90152)
(4.00644 0 -3.39107)
(14.4416 0 -8.9637)
(12.7443 1.89968e-13 -7.52419)
(0.254615 -8.99359e-14 -1.0036)
(-7.13883 8.51709e-14 2.87141)
(-6.02032 8.14157e-14 2.50093)
(-3.42729 0 1.46454)
(-2.23071 0 0.596584)
(-0.574952 0 0.151278)
(0.295277 1.27303e-13 -0.280855)
(1.05611 0 -0.851294)
(2.00868 -1.13109e-13 -1.06405)
(1.97386 0 -1.28216)
(1.6132 0 -0.967705)
(0.504282 9.41671e-14 -0.878892)
(-0.900096 0 0.156718)
(-1.78032 0 0.87734)
(-2.45252 0 1.21985)
(-2.30591 -1.46733e-13 1.4721)
(-1.77953 0 1.0858)
(-1.39048 1.25629e-13 0.957221)
(-0.636231 0 0.437802)
(-0.708022 -7.76088e-20 0.375161)
(944.359 1.81483e-16 1652.86)
(1061.79 4.18263e-16 570.664)
(805.25 -2.28577e-17 277.14)
(687.823 0 247.795)
(575.158 6.732e-16 243.589)
(477.626 -7.09205e-16 237.706)
(402.657 -7.20831e-16 214.922)
(341.825 7.2224e-16 195.285)
(291.434 0 180.192)
(240.588 0 156.626)
(176.555 0 91.0897)
(154.841 0 76.2891)
(135.007 0 68.8199)
(127.077 0 62.5176)
(116.254 2.3269e-17 58.575)
(103.936 0 52.7491)
(94.1567 -9.0762e-16 47.3695)
(77.9457 0 41.8712)
(70.4572 1.56006e-15 37.0292)
(58.975 -1.44709e-15 35.842)
(57.6448 0 37.0084)
(57.747 -1.24124e-15 41.2795)
(55.9487 1.20385e-15 40.5161)
(55.2541 -1.12175e-15 22.6807)
(35.0656 1.08442e-15 -1.28113)
(25.2712 0 -8.4491)
(34.5965 -8.94011e-16 -8.84693)
(11.9229 0 -31.876)
(4.2268 0 -28.9912)
(-9.1819 0 -30.1385)
(2.23824 -1.46387e-15 -4.00365)
(25.6811 0 14.0565)
(28.9332 0 19.5019)
(34.3792 0 24.1159)
(31.8867 0 21.6237)
(33.0938 0 22.3473)
(28.7998 0 18.738)
(26.3916 -2.10966e-15 16.6472)
(20.9744 0 13.2149)
(15.465 -3.89489e-15 9.52551)
(11.2838 -4.03176e-15 7.94987)
(7.29451 -1.79977e-15 5.20402)
(4.97622 0 4.71216)
(3.04878 0 3.60244)
(2.1599 -3.27874e-15 2.79997)
(-1.03563 2.9383e-15 1.38948)
(-0.753349 -2.71164e-15 0.607125)
(-3.12283 0 -1.90331)
(-4.22224 1.89547e-15 -2.95979)
(-5.31401 0 -4.37351)
(-7.8792 0 -6.07747)
(-8.67505 5.6698e-16 -5.76209)
(-8.24534 0 -3.79237)
(-7.15752 0 -1.09517)
(-5.31356 1.08666e-15 -0.588436)
(-5.86423 0 -0.30288)
(-4.25339 0 -0.513975)
(-4.06995 -1.87149e-18 0.0564347)
(-2.74215 2.93927e-15 0.0815345)
(-1.83627 9.74361e-18 -0.572817)
(-1.64097 0 -1.96937)
(1.21495 -7.46198e-15 -1.72498)
(3.85972 -7.37849e-15 -2.27053)
(-20.161 0 -40.9716)
(-4.20325 -1.57121e-14 -8.88827)
(3.81056 -1.4032e-17 -4.30814)
(5.73996 0 -5.80796)
(10.2746 8.28518e-15 -7.65873)
(8.74936 0 -5.96007)
(-3.35393 0 -0.488725)
(-23.2801 0 13.1093)
(-89.4649 0 51.6965)
(-161.254 3.55981e-14 88.5516)
(37.0815 -1.75104e-14 -31.4452)
(208.222 0 -122.184)
(59.4107 0 -30.7659)
(-39.1543 1.71717e-14 20.3763)
(-7.49674 1.03045e-18 2.9035)
(-30.9366 1.18991e-17 14.804)
(-27.2035 0 7.37154)
(33.4007 0 -29.6522)
(99.5751 0 -63.8094)
(146.062 1.70252e-17 -88.1811)
(114.393 -3.4979e-14 -67.6052)
(46.2522 3.45055e-14 -30.9539)
(-37.9179 -3.44687e-14 3.93663)
(-107.743 6.83982e-17 54.8238)
(-131.582 -3.43822e-14 70.4025)
(-104.106 0 55.0365)
(-68.0433 6.68213e-14 35.0991)
(-44.7798 0 22.4301)
(-20.5571 6.38606e-14 9.33999)
(-5.27766 0 1.04818)
(2.21989 -1.1936e-13 -3.33171)
(-2.5184 -5.72431e-14 0.358831)
(-15.0094 0 7.83788)
(-11.1746 0 4.96316)
(17.5213 -1.00666e-13 -11.8322)
(46.4284 9.43963e-14 -27.9353)
(37.0956 -1.80597e-13 -21.5617)
(-0.599175 8.54154e-14 0.0520412)
(-18.6258 -8.08175e-14 9.6966)
(-15.0434 0 7.67005)
(-8.65356 7.26718e-14 4.4268)
(-4.742 0 1.96593)
(-1.09515 0 0.401401)
(1.40301 -1.20317e-13 -0.978308)
(3.94084 0 -2.59513)
(5.62214 -9.93944e-20 -3.17693)
(5.891 1.00464e-13 -3.61907)
(3.86843 0 -2.36854)
(0.845687 0 -1.37184)
(-3.41518 0 1.53752)
(-6.29603 7.8711e-14 3.46082)
(-7.79184 -1.48983e-13 4.29841)
(-8.0153 1.37942e-13 4.76159)
(-6.0715 0 3.55401)
(-5.06991 -1.17997e-13 3.06487)
(-2.66466 0 1.56711)
(-2.49891 2.01928e-13 1.38428)
(585.503 -3.85287e-16 1047.28)
(802.534 2.46554e-16 589.495)
(746.545 1.08946e-15 363.054)
(627.768 0 249.85)
(502.377 6.52949e-16 178.793)
(404.306 -5.38573e-18 144.836)
(330.702 0 118.734)
(273.398 -6.85474e-16 97.5581)
(225.829 0 84.7106)
(181.672 -6.41309e-16 69.2712)
(155.541 0 65.4837)
(138.696 0 57.9919)
(121.602 0 54.067)
(114.762 0 47.9386)
(105.099 9.64191e-16 44.187)
(94.8044 0 42.8677)
(85.2571 0 37.3386)
(71.978 0 36.2232)
(65.8599 -7.30998e-16 32.0123)
(57.3937 2.16734e-17 33.2889)
(57.5776 0 35.6095)
(57.5139 2.7291e-17 38.7543)
(54.9338 0 43.6161)
(51.368 9.60373e-16 31.96)
(35.9144 0 12.5421)
(34.0997 0 10.1728)
(38.9878 8.47998e-16 6.85301)
(8.12405 0 -32.4447)
(4.84008 0 -30.0961)
(0.339076 1.41977e-15 -23.6175)
(21.1057 0 17.3447)
(31.7138 0 21.5495)
(29.2608 0 19.5562)
(30.7049 0 17.7681)
(27.8716 -1.13799e-15 14.91)
(27.6539 0 13.0233)
(23.9409 0 10.4995)
(21.4343 1.99153e-15 8.09578)
(16.8117 0 5.99594)
(12.4715 3.67962e-15 4.08065)
(8.75269 1.41574e-18 3.23512)
(5.72486 1.70393e-15 2.10046)
(3.36421 0 1.38232)
(1.98605 0 1.18993)
(1.24319 1.54918e-15 0.600798)
(-1.16782 0 0.471119)
(-0.669125 2.5651e-15 -0.0204391)
(-1.7135 0 -0.292669)
(-2.33455 -1.34287e-17 -0.635999)
(-2.86111 0 -1.1056)
(-4.81862 0 -2.01277)
(-5.39263 0 -1.66876)
(-5.96027 1.82794e-16 -1.53809)
(-6.02318 0 -0.733406)
(-4.59026 0 -0.716537)
(-5.30836 0 -0.348281)
(-3.94489 0 -0.632051)
(-3.81179 4.82108e-15 0.0504447)
(-2.46083 0 -0.0197441)
(-1.33112 3.97217e-18 -1.10885)
(-0.176559 0 -2.24818)
(2.87276 3.52544e-15 -3.001)
(3.04917 6.95682e-15 -5.81089)
(-19.3968 0 -46.1608)
(3.06116 1.49124e-14 -7.27207)
(8.7413 7.62728e-15 -6.77558)
(11.8302 0 -9.18807)
(18.0717 -7.80258e-15 -11.8267)
(14.474 0 -8.69917)
(-3.91303 0 2.14205)
(-34.309 0 23.6127)
(-126.749 0 77.0455)
(-252.375 1.68159e-18 134.398)
(33.953 1.6467e-14 -42.1328)
(327.151 0 -187.69)
(116.192 0 -54.296)
(-54.5264 3.29263e-18 31.1767)
(-14.8343 -3.24146e-14 7.94046)
(-43.4796 -1.61427e-14 22.4025)
(-35.2445 0 10.9163)
(72.3824 0 -52.983)
(179.65 0 -113.149)
(240.456 -6.60045e-14 -141.508)
(174.885 -4.541e-18 -97.2236)
(59.0502 -3.23692e-14 -31.2195)
(-63.2027 0 31.2323)
(-169.007 -3.18504e-14 97.7596)
(-203.682 3.22339e-14 112.771)
(-160.468 0 85.4817)
(-105.366 0 54.7968)
(-69.5838 6.09555e-14 35.4274)
(-31.45 0 14.5401)
(-6.46857 5.73944e-14 1.25498)
(5.18244 -6.43375e-18 -4.68039)
(-3.61164 5.36055e-14 1.79802)
(-22.9358 -5.15684e-14 12.6698)
(-13.6863 0 5.58374)
(33.7605 9.42076e-14 -22.3513)
(76.5525 -8.83266e-14 -45.0913)
(56.6568 1.68969e-13 -30.8859)
(-3.77152 0 3.17731)
(-29.2217 -7.56122e-14 16.3746)
(-22.9777 0 11.9182)
(-13.258 -6.79534e-14 6.78328)
(-6.86404 6.38529e-14 3.09253)
(-1.39295 0 0.455231)
(2.54149 1.12466e-13 -1.75222)
(6.58311 0 -4.12306)
(8.59464 1.99531e-13 -4.79372)
(8.7514 -9.38799e-14 -5.12519)
(4.82469 0 -2.72171)
(0.140173 0 -0.255966)
(-6.81996 0 3.94667)
(-11.417 2.01292e-18 6.61595)
(-13.3666 1.39161e-13 7.63643)
(-13.7365 -1.28833e-13 7.96369)
(-10.4515 0 6.00567)
(-8.82624 -1.10188e-13 5.11483)
(-5.02959 0 2.8797)
(-4.64758 6.32532e-19 2.63124)
(428.781 2.01955e-16 751.887)
(626.71 2.1846e-17 559.844)
(641.452 -5.27419e-16 385.28)
(563.453 5.95605e-16 268.695)
(465.9 6.3501e-16 192.916)
(376.51 1.28757e-15 142.781)
(306.837 0 111.588)
(251.606 0 86.398)
(205.245 0 71.2759)
(165.807 6.07435e-16 57.9245)
(141.769 0 52.5887)
(124.988 0 44.6784)
(109.433 0 41.8296)
(103.639 0 37.8544)
(93.7492 0 30.969)
(84.6486 8.41637e-16 30.9458)
(74.938 -7.85834e-16 25.0137)
(62.9656 0 25.1033)
(57.583 0 21.7173)
(48.8955 1.28026e-15 20.5278)
(48.5751 -1.15893e-15 21.7335)
(46.1232 1.08963e-15 19.6228)
(42.6043 -9.92273e-16 23.4785)
(42.8379 -9.09403e-16 19.6577)
(40.4091 8.54315e-16 20.9728)
(41.3598 -7.64585e-16 23.5387)
(37.9186 0 18.6584)
(17.2156 6.81121e-16 -3.89544)
(21.7047 0 -2.22814)
(14.5421 -1.34375e-15 -9.61843)
(33.3508 0 30.499)
(29.5422 0 19.4874)
(26.0875 0 15.3497)
(26.6088 1.09415e-15 11.518)
(24.4944 1.07649e-15 9.39642)
(24.7732 0 8.20404)
(21.4424 0 6.32809)
(19.5306 -1.88323e-15 4.85384)
(15.3143 0 3.34632)
(11.5598 1.45433e-18 2.27608)
(7.88606 1.80192e-15 1.39756)
(5.45486 0 1.2848)
(3.03547 0 0.347102)
(2.07027 0 0.810132)
(1.15089 0 -0.176255)
(-0.782378 2.60211e-15 0.437828)
(-0.442758 0 -0.409332)
(-1.10518 -1.98745e-15 -0.16436)
(-1.71114 -1.67952e-15 -0.559033)
(-1.98196 0 -0.685928)
(-3.6008 0 -1.17557)
(-4.20988 0 -1.03069)
(-5.17685 -1.72458e-16 -1.72012)
(-5.2352 -2.04916e-16 -0.916974)
(-3.97035 -9.80707e-16 -0.995133)
(-4.85853 0 -0.595912)
(-3.58333 -1.96469e-15 -0.694653)
(-3.5586 -4.54274e-15 0.0153814)
(-2.24635 0 -0.167364)
(-0.793781 -5.70187e-15 -1.45111)
(1.29972 0 -2.18715)
(4.22535 -3.33276e-15 -4.27694)
(3.29323 -6.62197e-15 -7.72007)
(-5.57346 0 -29.0179)
(9.33138 -7.03331e-15 -7.53801)
(13.6261 -7.181e-15 -9.72673)
(17.5835 0 -12.9793)
(24.9604 0 -15.6907)
(18.6279 0 -10.1223)
(-5.59501 7.51997e-15 5.35112)
(-42.6729 7.54671e-15 33.4243)
(-143.698 0 95.6967)
(-323.549 -1.57374e-14 169.127)
(4.48798 -1.54909e-14 -47.3052)
(419.1 0 -243.849)
(180.191 0 -76.5637)
(-61.2293 -1.51543e-14 39.1566)
(-24.8372 -1.44362e-18 14.0085)
(-51.9546 0 27.6697)
(-36.406 0 10.4961)
(117.151 0 -85.3453)
(262.36 0 -165.682)
(322.06 -7.07829e-18 -188.022)
(213.86 3.07764e-14 -113.063)
(52.3512 0 -21.2706)
(-94.1169 0 63.2424)
(-224.454 0 134.872)
(-263.255 3.0222e-14 147.465)
(-206.715 0 109.551)
(-137.428 5.86947e-14 70.9282)
(-91.8242 -5.70821e-14 46.3373)
(-41.6503 5.60284e-14 18.7537)
(-7.4659 -5.37298e-14 0.96385)
(7.47522 1.04655e-13 -6.02741)
(-5.12369 -5.01676e-14 3.44768)
(-29.2949 4.82542e-14 16.6612)
(-12.9536 0 4.01997)
(51.6558 0 -34.6882)
(103.276 -8.26156e-14 -60.985)
(70.5863 -7.90139e-14 -37.067)
(-8.29006 -7.47499e-14 8.14732)
(-38.6888 -4.21423e-18 22.3598)
(-29.7719 0 15.4943)
(-17.1944 0 8.72028)
(-8.69685 -5.96836e-14 3.91954)
(-1.53693 0 0.368943)
(3.58093 -1.05106e-13 -2.52426)
(8.72962 0 -5.47999)
(10.6524 -1.93654e-19 -6.01052)
(10.2979 0 -5.97032)
(4.276 -8.29975e-14 -2.43085)
(-2.04913 7.75686e-14 1.40182)
(-11.2333 7.38861e-14 6.72823)
(-17.0743 1.47082e-18 9.97313)
(-19.1593 0 11.0471)
(-19.3783 1.20314e-13 11.1416)
(-14.9335 1.11508e-13 8.49886)
(-12.6678 1.0289e-13 7.21947)
(-7.78396 0 4.36577)
(-7.19218 9.18498e-19 4.07998)
(334.541 0 585.311)
(493.121 1.9118e-17 493.112)
(533.02 0 381.622)
(487.602 -5.62733e-16 283.261)
(419.94 -1.18357e-15 207.197)
(348.244 -6.09933e-16 153.477)
(286.44 0 117.549)
(235.989 0 90.0794)
(192.357 5.9392e-16 71.801)
(157.915 5.69813e-16 61.9039)
(133.193 -5.41405e-16 53.1721)
(117.658 -1.01575e-15 43.8767)
(103.406 -9.59965e-16 39.8769)
(97.3624 0 37.4363)
(87.5378 0 29.5826)
(78.6874 -1.58813e-15 28.7049)
(69.0602 3.7093e-18 22.2592)
(58.0984 0 22.2395)
(52.7378 6.39344e-16 19.4724)
(43.9106 1.19138e-15 16.2149)
(43.4758 1.09567e-15 17.203)
(40.3452 0 12.7671)
(36.3967 9.38016e-16 15.5201)
(36.4116 -8.38274e-16 11.0155)
(35.5104 -8.07502e-16 12.6575)
(34.7141 6.00004e-18 15.046)
(30.4093 0 7.84089)
(28.0905 -1.0981e-17 14.3298)
(28.9755 0 16.1801)
(26.1499 -1.12387e-15 7.37698)
(36.3363 0 30.9613)
(28.4759 0 23.0362)
(24.2403 0 14.1834)
(24.6785 -1.03343e-15 9.50199)
(22.9533 0 7.14988)
(23.6995 0 6.64149)
(20.2424 0 4.52056)
(18.7448 0 3.60701)
(14.6572 1.87019e-15 2.251)
(11.2393 -3.28796e-15 1.64543)
(7.46805 0 0.395091)
(5.41675 -1.52259e-15 0.877472)
(2.94333 0 -0.275613)
(2.33293 0 0.769674)
(1.17611 0 -0.738899)
(-0.417979 -2.22733e-18 0.329113)
(-0.213097 0 -0.771789)
(-0.689803 1.87396e-15 -0.377458)
(-1.34733 0 -0.91924)
(-1.49207 0 -0.951135)
(-3.02023 8.3211e-16 -1.43689)
(-3.52136 0 -1.16564)
(-4.5994 0 -2.1974)
(-4.47592 1.53734e-18 -1.12306)
(-3.38556 9.2371e-16 -1.28707)
(-4.3998 0 -0.82341)
(-3.1842 3.6618e-20 -0.696865)
(-3.33126 4.27358e-15 -0.032277)
(-2.12589 0 -0.37144)
(-0.307314 2.68371e-15 -1.71401)
(2.58478 0 -2.07485)
(5.50095 3.13529e-15 -5.29472)
(5.97311 6.2285e-15 -7.41038)
(8.41501 0 -11.7776)
(13.9232 6.63152e-15 -9.17384)
(18.6404 6.07368e-19 -12.9425)
(23.2262 0 -16.8122)
(31.0393 0 -18.9597)
(21.2316 0 -10.3159)
(-7.8402 -1.41278e-14 9.551)
(-47.7712 3.2409e-18 41.6059)
(-141.37 0 105.679)
(-373.704 1.47745e-14 192.391)
(-52.079 2.90893e-14 -44.8082)
(484.135 0 -287.361)
(246.913 0 -96.7711)
(-59.0638 0 44.5244)
(-36.059 -2.0625e-18 20.4967)
(-56.371 0 30.3189)
(-33.0056 0 -0.402038)
(167.561 0 -124.315)
(344.296 0 -219.226)
(388.047 2.90139e-14 -223.477)
(230.392 2.88442e-14 -112.547)
(31.1396 0 1.03124)
(-128.083 0 95.134)
(-270.675 0 166.641)
(-310.37 5.07333e-18 173.715)
(-243.469 0 126.666)
(-164.707 -5.49472e-14 83.2153)
(-111.802 0 55.0777)
(-51.4889 -5.24356e-14 22.0679)
(-8.58017 0 0.301399)
(9.22575 -4.89605e-14 -7.0226)
(-6.62687 0 5.35502)
(-33.8011 0 19.4932)
(-9.56281 0 -0.154087)
(70.3094 0 -48.187)
(126.447 7.7249e-14 -74.4779)
(79.8744 0 -39.4455)
(-14.3222 6.98794e-14 13.0388)
(-46.9608 6.6089e-14 27.503)
(-35.6121 0 18.2696)
(-20.5847 0 10.1638)
(-10.2977 0 4.4934)
(-1.63766 0 0.176392)
(4.38588 -2.51194e-18 -3.21781)
(10.2725 0 -6.48611)
(11.7465 -1.74159e-13 -6.64433)
(10.5853 0 -5.96835)
(2.67254 1.55052e-13 -0.936351)
(-5.37567 -7.24472e-14 3.75636)
(-16.296 -6.90034e-14 10.0251)
(-23.0004 -6.41354e-14 13.562)
(-25.0909 0 14.5363)
(-24.9724 0 14.2384)
(-19.5878 -2.0823e-13 11.0352)
(-16.6829 9.6062e-14 9.36656)
(-10.951 8.85029e-14 6.06837)
(-10.1222 -8.21731e-14 5.75183)
(269.555 0 464.34)
(386.857 -5.10161e-16 422.175)
(430.377 0 349.179)
(415.857 0 276.841)
(373.713 0 205.312)
(319.692 0 155.806)
(264.834 0 121.086)
(218.423 -5.75093e-16 93.0942)
(178.523 -5.60379e-16 71.891)
(147.102 -1.07263e-15 61.4249)
(122.592 1.01835e-15 53.0729)
(109.452 9.5867e-16 44.8066)
(95.9463 9.06077e-16 37.9723)
(89.2 0 35.0697)
(79.9587 0 27.5709)
(71.5816 1.49111e-15 26.2222)
(62.7281 1.39135e-15 20.1676)
(52.5414 0 19.2376)
(46.9232 -6.03503e-16 16.9292)
(39.0359 -1.12457e-15 13.4725)
(38.6434 0 14.2874)
(36.1158 -9.43125e-16 10.1627)
(31.9721 0 12.0254)
(32.4486 6.86925e-18 8.71975)
(31.5922 7.39773e-16 7.80728)
(29.5045 4.84415e-18 9.62475)
(27.1327 0 3.77104)
(25.967 -5.96966e-16 9.64765)
(26.395 1.0586e-15 11.6763)
(31.7634 2.1131e-15 15.0608)
(29.6667 1.00705e-15 17.7421)
(27.1753 0 24.2941)
(25.546 9.9116e-16 21.4262)
(23.9409 0 10.4222)
(22.2329 0 6.78552)
(23.1976 0 6.41696)
(19.4519 0 3.7879)
(18.2002 0 2.97198)
(14.2126 -5.16607e-18 1.64087)
(11.1067 1.55098e-15 1.51571)
(7.26572 0 -0.0892769)
(5.43326 2.87139e-15 0.645174)
(2.85965 0 -0.867465)
(2.55099 0 0.691071)
(1.17291 0 -1.28474)
(-0.193491 -2.30959e-15 -0.0195129)
(-0.124049 0 -1.34269)
(-0.441071 0 -0.863929)
(-1.12998 0 -1.50363)
(-1.14828 0 -1.43348)
(-2.63489 -1.56169e-15 -2.00817)
(-2.95246 0 -1.43888)
(-4.07928 0 -2.70418)
(-3.76132 1.80188e-16 -1.35745)
(-2.85112 0 -1.58838)
(-3.93847 0 -1.015)
(-2.76769 3.47903e-15 -0.637938)
(-3.15607 -2.00853e-15 -0.0937267)
(-2.11831 0 -0.634047)
(0.040229 0 -2.00961)
(3.44825 0 -2.29175)
(6.7542 -2.95431e-15 -6.08858)
(9.00029 0 -6.95814)
(14.0961 0 -8.96398)
(17.7625 -1.24652e-14 -12.0581)
(23.7753 1.26795e-14 -16.5423)
(28.8331 0 -20.5234)
(36.2546 0 -21.5664)
(22.4125 0 -9.24155)
(-10.3837 6.62981e-15 14.2916)
(-48.5685 -6.65461e-15 47.139)
(-121.427 -1.34992e-14 107.601)
(-405.399 -1.38606e-14 207.892)
(-137.483 -1.36459e-14 -31.4609)
(519.983 1.36588e-14 -320.383)
(312.766 0 -113.294)
(-48.5722 0 48.2128)
(-46.6553 1.33806e-14 27.2325)
(-57.4803 0 30.3807)
(-22.2883 0 -18.697)
(223.778 0 -168.735)
(421.767 0 -271.799)
(434.869 0 -245.594)
(224.505 -5.40268e-14 -95.6741)
(-1.06336 0 30.2707)
(-160.491 -2.68806e-14 124.158)
(-306.049 0 192.766)
(-345.415 3.15329e-18 193.115)
(-271.189 5.185e-14 138.078)
(-187.45 0 92.4265)
(-129.793 0 62.1125)
(-61.2641 0 24.728)
(-10.1113 0 -0.487727)
(10.349 4.57942e-14 -7.71192)
(-7.85078 0 7.27828)
(-36.2132 0 21.0058)
(-3.4834 0 -5.87684)
(88.7818 0 -62.2078)
(145.543 0 -85.5352)
(84.7351 0 -38.6886)
(-19.7394 0 20.0138)
(-53.6785 0 31.9282)
(-40.5413 -5.89566e-14 20.4512)
(-23.4737 0 11.2321)
(-11.7348 0 4.8787)
(-1.79395 0 -0.0391091)
(4.83383 9.17375e-14 -3.74728)
(11.0691 0 -7.09268)
(11.8185 8.13333e-14 -6.66576)
(9.62107 0 -5.21245)
(-0.38547 1.22599e-17 0.651733)
(-9.63501 0 6.58334)
(-21.8495 6.4437e-14 13.6033)
(-29.0711 0 17.2085)
(-31.1314 0 18.0767)
(-30.5381 0 17.2947)
(-24.4757 9.72016e-14 13.6729)
(-20.9275 -1.79361e-13 11.6158)
(-14.5841 -1.65241e-13 7.99733)
(-13.4365 -7.6709e-14 7.63144)
(223.745 0 368.675)
(304.312 5.1264e-16 350.818)
(344.26 0 306.416)
(345.891 0 252.978)
(323.625 5.53911e-16 194.163)
(284.509 5.55523e-16 147.334)
(240.037 -5.51735e-16 116.917)
(199.036 1.62216e-15 91.8727)
(164.424 0 71.3597)
(135.484 4.7469e-18 58.5014)
(113.812 -4.78117e-16 51.8973)
(102.316 0 46.1596)
(88.8423 0 37.9115)
(81.7146 0 34.2875)
(73.0842 0 27.3034)
(65.1436 -5.56297e-18 25.6953)
(56.8996 -4.66577e-18 20.3905)
(47.1363 -6.06689e-16 18.1244)
(41.516 -5.60931e-16 15.9151)
(34.9967 0 13.3002)
(34.5677 9.53268e-16 13.6485)
(32.7571 8.88897e-16 9.95729)
(28.7323 0 10.9864)
(29.6978 5.51669e-18 9.26679)
(29.0367 -9.89224e-18 7.17839)
(26.1804 6.32725e-16 8.28386)
(25.6933 0 4.67564)
(23.4727 0 5.90093)
(24.5057 -9.97411e-16 8.95815)
(27.5074 -2.73563e-18 9.55022)
(23.9978 -1.898e-15 7.07798)
(22.9194 0 13.042)
(22.8821 -1.86659e-15 19.9951)
(25.6106 0 19.4214)
(21.8822 0 7.93639)
(22.7328 8.57153e-16 6.77392)
(18.7518 0 3.6633)
(17.5585 1.58748e-15 2.46601)
(13.7533 -6.74611e-18 1.14744)
(10.9512 -1.46847e-15 1.50391)
(7.11232 0 -0.306715)
(5.43895 2.09938e-18 0.578082)
(2.7653 0 -1.38912)
(2.68871 0 0.530805)
(1.15409 0 -1.74364)
(-0.0457205 0 -0.432751)
(-0.103716 0 -1.95121)
(-0.274107 -1.65056e-15 -1.44061)
(-0.964315 0 -2.12158)
(-0.864443 0 -1.95563)
(-2.28949 7.3193e-16 -2.60784)
(-2.42099 0 -1.69778)
(-3.57786 1.29852e-16 -3.14044)
(-3.09854 -1.6493e-16 -1.59325)
(-2.37142 8.17696e-16 -1.87284)
(-3.47795 0 -1.15212)
(-2.34937 -1.63413e-15 -0.514276)
(-3.03962 -1.88338e-15 -0.149756)
(-2.19606 0 -0.88825)
(0.197498 0 -2.37423)
(3.79262 0 -3.01478)
(7.8324 2.77392e-15 -6.86482)
(11.1133 0 -7.97487)
(17.2158 0 -10.6457)
(21.5626 5.85275e-15 -15.5503)
(29.1353 -1.19011e-14 -20.3838)
(34.3582 0 -24.0884)
(40.5684 0 -23.4379)
(22.3683 0 -6.93002)
(-12.6699 0 19.1014)
(-43.8923 -6.24552e-15 48.4623)
(-87.5652 1.26572e-14 103.547)
(-427.685 0 223.268)
(-254.911 0 -4.96807)
(525.63 -1.28009e-14 -343.836)
(374.234 0 -125.318)
(-31.1596 -1.24932e-14 51.237)
(-55.2579 1.25398e-14 33.4757)
(-54.7179 0 27.4882)
(-0.201499 0 -37.7915)
(282.849 0 -218.499)
(491.649 0 -319.361)
(459.951 0 -251.968)
(199.234 2.52866e-14 -63.4026)
(-37.2224 0 63.4311)
(-186.768 5.03178e-14 149.305)
(-330.936 0 212.87)
(-370.538 1.58753e-18 206.304)
(-291.259 4.17933e-18 144.363)
(-206.322 0 98.8783)
(-146.374 4.67518e-14 67.7301)
(-71.3588 0 26.918)
(-12.4384 0 -1.26223)
(10.8191 -8.5633e-14 -8.06407)
(-8.52757 0 9.03463)
(-36.4121 0 21.0816)
(3.78785 0 -14.4807)
(106.206 0 -76.1435)
(160.486 0 -93.7823)
(86.2652 0 -35.0809)
(-24.751 0 27.2811)
(-59.2649 0 35.4893)
(-44.7455 5.508e-14 22.0448)
(-25.98 0 11.9421)
(-13.092 0 5.12305)
(-2.12099 0 -0.219188)
(4.82349 -8.56873e-14 -4.04772)
(11.0579 -8.09713e-14 -7.22406)
(10.9001 -7.59553e-14 -6.08883)
(7.52702 7.14636e-14 -3.76257)
(-3.95608 1.08985e-17 3.39177)
(-14.4273 -6.31799e-14 9.85422)
(-27.6436 -1.20328e-13 17.3948)
(-35.1282 0 20.8737)
(-37.2743 1.05794e-13 21.6631)
(-36.1499 9.79207e-14 20.3231)
(-29.6874 0 16.4477)
(-25.4776 8.37155e-14 13.99)
(-18.7293 7.71233e-14 10.1902)
(-17.1234 7.16004e-14 9.71274)
(180.761 0 294.694)
(240.843 -2.48236e-16 285.765)
(278.837 0 261.194)
(288.711 0 221.847)
(278.938 -5.2159e-16 179.963)
(252.001 -5.22999e-16 141.394)
(218.866 5.19337e-16 113.639)
(183.958 -1.52318e-15 90.59)
(153.275 0 72.1716)
(127.578 -4.61681e-16 59.5587)
(109.303 8.83488e-16 53.72)
(97.049 0 48.1631)
(83.6231 -7.84326e-16 40.0574)
(76.098 0 35.9808)
(67.6441 -6.90587e-16 29.3717)
(59.8708 -6.54073e-16 27.4267)
(51.8145 -6.10841e-16 22.924)
(42.4397 5.71071e-16 19.7625)
(37.4457 1.05201e-15 17.9155)
(31.8738 0 15.5324)
(30.9977 -8.97314e-16 15.393)
(29.237 0 11.2702)
(25.6294 0 11.5363)
(26.5183 6.90511e-16 10.3477)
(26.1861 -1.2853e-15 7.47377)
(23.4063 0 8.16668)
(23.8136 0 6.30305)
(21.4211 0 4.98093)
(22.7186 9.37022e-16 8.17928)
(23.4908 -9.30821e-16 6.04278)
(21.0546 -1.25445e-18 4.61117)
(17.9138 -8.99414e-16 4.26361)
(18.8923 1.75309e-15 8.58253)
(23.5739 -8.59262e-16 17.731)
(21.7884 8.47901e-16 14.0819)
(22.5249 6.33044e-19 8.53306)
(18.041 0 4.24279)
(16.8031 -1.49304e-15 2.27118)
(13.2903 -1.55002e-15 0.823485)
(10.6786 1.38089e-15 1.46758)
(6.95076 0 -0.346993)
(5.42005 -1.27323e-15 0.684369)
(2.73096 -1.258e-15 -1.64246)
(2.80191 -1.16767e-15 0.424163)
(1.18214 -1.13381e-15 -1.981)
(0.119541 0 -0.698772)
(-0.0265197 0 -2.33669)
(-0.0638704 4.95561e-18 -1.85168)
(-0.727813 0 -2.5288)
(-0.547764 0 -2.3174)
(-1.9115 6.77695e-16 -3.07833)
(-1.91181 -3.631e-16 -1.88885)
(-3.09785 -1.21954e-16 -3.46965)
(-2.50369 2.57616e-18 -1.81626)
(-1.94516 9.03727e-20 -2.11201)
(-3.01481 0 -1.21318)
(-1.93912 0 -0.327898)
(-2.95914 3.53403e-15 -0.15882)
(-2.29059 0 -1.01617)
(0.144049 0 -2.79898)
(3.71163 -2.3966e-15 -4.09475)
(8.58715 0 -7.81405)
(12.4763 0 -10.1144)
(19.9243 5.6506e-15 -13.2519)
(25.7066 -5.51188e-15 -19.1009)
(34.7368 1.11652e-14 -24.3678)
(39.7077 0 -27.5018)
(43.9718 -5.69215e-15 -24.5048)
(21.2568 0 -3.74793)
(-13.928 0 23.2085)
(-32.4292 1.17083e-14 44.1777)
(-46.811 0 97.5237)
(-455.33 0 249.97)
(-406.093 0 36.8799)
(500.919 0 -357.849)
(428.445 0 -132.552)
(-8.70116 1.16989e-14 54.7388)
(-60.7896 2.41374e-18 38.7187)
(-48.3582 -1.16989e-14 21.2098)
(26.4852 1.19408e-14 -68.6193)
(343.333 0 -271.556)
(550.08 0 -359.414)
(461.992 0 -241.084)
(160.68 0 -18.0537)
(-71.3271 0 95.2501)
(-204.252 2.69761e-18 169.761)
(-346.521 0 228.093)
(-387.783 -2.31891e-14 214.9)
(-305.04 4.01326e-18 146.582)
(-221.861 0 103.102)
(-162.127 -4.37124e-14 72.3572)
(-82.1799 0 28.8621)
(-15.9325 4.1117e-14 -1.84356)
(10.5694 1.16867e-18 -8.09826)
(-8.46504 0 10.4461)
(-34.5469 0 19.6588)
(13.8151 0 -21.7586)
(121.959 0 -89.4763)
(171.243 6.30531e-14 -99.1981)
(84.9544 0 -29.1751)
(-31.7726 0 29.5112)
(-63.4791 5.39168e-14 38.3783)
(-48.3338 0 23.2126)
(-28.2083 -4.8401e-14 12.3567)
(-14.451 4.54659e-14 5.2819)
(-2.71329 0 -0.298571)
(4.2958 1.60042e-13 -4.07324)
(10.2241 -5.78533e-19 -6.88064)
(9.11011 1.41848e-13 -4.97538)
(4.61562 -6.67266e-14 -1.69329)
(-7.92939 -6.31458e-14 6.71127)
(-19.5041 5.89867e-14 13.3161)
(-33.479 5.61684e-14 21.2398)
(-41.0729 5.22013e-14 24.4726)
(-43.517 -9.87605e-14 25.2972)
(-41.8691 -9.14075e-14 23.3827)
(-35.3076 -8.46944e-14 19.418)
(-30.3905 -7.81416e-14 16.5313)
(-23.4462 0 12.6682)
(-21.1726 0 11.9821)
(154.603 0 243.873)
(198.571 -2.49775e-16 238.909)
(230.253 0 222.049)
(243.018 0 193.754)
(238.269 0 161.635)
(220.837 0 134.495)
(195.794 -4.87452e-16 110.16)
(168.442 4.76198e-16 88.017)
(142.268 -4.55802e-16 70.4107)
(121.092 8.75729e-16 59.6521)
(104.746 -8.30531e-16 53.7844)
(91.8521 0 47.8412)
(79.6088 7.3729e-16 40.8604)
(71.2103 0 36.3705)
(62.3139 6.49203e-16 30.0272)
(54.243 6.05167e-16 27.6137)
(45.9434 0 24.0048)
(37.1876 0 20.7381)
(32.7672 -4.92663e-16 19.4729)
(27.5705 0 17.1606)
(26.0381 0 16.4005)
(24.5795 7.64476e-16 12.2811)
(21.7194 0 11.9551)
(22.2681 0 11.0579)
(22.236 6.00232e-16 7.73122)
(19.7863 0 7.75689)
(20.6826 0 6.98909)
(18.8744 0 4.52561)
(20.4563 -1.76412e-15 8.1062)
(20.1631 0 4.9881)
(18.6916 1.87666e-19 4.14159)
(15.8966 4.17607e-18 3.01152)
(16.1502 -8.22673e-16 4.61766)
(18.2802 8.07543e-16 6.48875)
(20.0649 -1.5935e-15 12.0089)
(20.2288 -7.58256e-16 9.66621)
(17.7086 0 6.69199)
(16.0457 0 2.78031)
(12.8686 -1.44107e-15 0.953003)
(10.3293 1.30644e-15 1.53217)
(6.68252 0 -0.394086)
(5.33313 0 0.910994)
(2.75607 4.2151e-18 -1.57598)
(2.8908 1.09663e-15 0.42811)
(1.23493 1.06473e-15 -2.00384)
(0.309291 1.90328e-15 -0.767957)
(0.123485 0 -2.43381)
(0.196698 5.11015e-18 -2.04366)
(-0.419112 0 -2.68572)
(-0.210716 0 -2.48952)
(-1.52003 -6.36071e-16 -3.40428)
(-1.45446 3.40766e-16 -2.0266)
(-2.66883 0 -3.7021)
(-1.99656 1.4291e-16 -2.02451)
(-1.56828 -1.51242e-19 -2.28452)
(-2.54649 0 -1.18898)
(-1.54204 0 -0.0951008)
(-2.86697 -3.31126e-15 -0.0783507)
(-2.32607 0 -0.911231)
(-0.0884064 0 -3.22678)
(3.45376 4.49445e-15 -5.12903)
(9.03069 0 -8.92519)
(13.6558 0 -12.431)
(22.6553 -1.05792e-14 -16.1574)
(30.3171 5.16588e-15 -22.4832)
(40.5091 -5.23304e-15 -28.4155)
(44.7555 0 -30.7457)
(46.4715 5.33303e-15 -24.7154)
(19.4237 0 -0.0588379)
(-13.1424 -5.45306e-15 25.6049)
(-13.3222 -5.4842e-15 33.497)
(-10.7515 0 96.5561)
(-503.064 0 300.217)
(-587.273 1.12453e-14 92.5564)
(440.635 1.12294e-14 -373.3)
(472.797 0 -135.629)
(16.7243 0 59.7781)
(-62.6108 -2.19842e-14 42.7151)
(-37.9403 1.09478e-14 11.0596)
(59.9804 -2.23457e-14 -105.096)
(402.662 0 -326.02)
(594.011 0 -389.153)
(441.555 0 -212.62)
(114.874 0 30.8094)
(-98.7447 0 122.889)
(-212.951 4.86841e-19 184.834)
(-354.642 0 239.413)
(-399.067 0 219.942)
(-313.97 4.39638e-18 145.597)
(-234.569 0 105.514)
(-177.601 -4.08528e-14 76.3687)
(-94.1453 0 30.7827)
(-20.9798 -3.84267e-14 -2.08365)
(9.48741 1.71058e-18 -7.84916)
(-7.58349 0 11.3827)
(-30.5011 0 16.8554)
(26.452 0 -26.5285)
(135.229 0 -101.796)
(178.007 2.04395e-18 -101.777)
(81.7423 5.63161e-14 -21.6097)
(-33.3281 -5.33183e-14 39.073)
(-66.5713 -5.03578e-14 40.8281)
(-51.4922 0 23.9943)
(-30.2553 4.5201e-14 12.5609)
(-15.8826 -4.24576e-14 5.40193)
(-3.64048 0 -0.234293)
(3.24579 -7.47205e-14 -3.8146)
(8.65205 1.41198e-13 -6.08073)
(6.67788 -6.62188e-14 -3.4423)
(1.07176 0 0.634133)
(-12.3753 5.89552e-14 9.62964)
(-24.4829 0 16.8052)
(-39.1222 0 25.0269)
(-46.7973 -4.87287e-14 27.9674)
(-49.8447 0 28.9791)
(-47.763 0 26.4974)
(-41.4151 7.90528e-14 22.6238)
(-35.7156 7.29344e-14 19.2588)
(-28.7803 6.71904e-14 15.4562)
(-25.5715 -6.23755e-14 14.4235)
(134.443 0 200.141)
(164.265 2.34754e-16 198.508)
(189.932 4.79987e-16 185.686)
(202.561 0 166.621)
(200.77 0 141.986)
(190.13 0 121.745)
(171.912 4.58055e-16 102.484)
(152.004 0 83.9114)
(131.29 4.28213e-16 67.6842)
(114.592 0 57.8625)
(99.3385 0 51.5461)
(87.6319 -7.19387e-16 46.1707)
(77.1305 0 40.2134)
(67.6709 -6.37627e-16 35.2686)
(57.8857 5.98067e-16 28.9896)
(49.0294 -5.6833e-16 25.8764)
(40.2358 0 23.109)
(32.2855 4.89796e-16 20.8934)
(27.8421 0 19.5973)
(22.7486 8.40641e-16 17.9013)
(20.4267 0 16.9218)
(19.4408 -7.18021e-16 13.5008)
(17.1881 6.55639e-16 12.675)
(17.2672 0 11.7921)
(17.7968 0 8.83163)
(15.8124 -5.08974e-16 7.83552)
(17.1281 0 8.34926)
(16.1485 0 5.25854)
(17.7725 -1.99131e-18 8.28995)
(16.849 0 5.19593)
(16.1717 1.57788e-15 4.47349)
(14.1072 7.89914e-16 3.55369)
(14.2956 -7.68037e-16 3.82332)
(15.9989 0 4.92217)
(15.1924 1.49522e-15 4.51565)
(18.2877 0 7.10282)