/*--------------------------------*- C++ -*----------------------------------*\
| =========                 |                                                 |
| \\      /  F ield         | OpenFOAM: The Open Source CFD Toolbox           |
|  \\    /   O peration     | Version:  2412                                  |
|   \\  /    A nd           | Website:  www.openfoam.com                      |
|    \\/     M anipulation  |                                                 |
\*---------------------------------------------------------------------------*/
FoamFile
{
    version     2.0;
    format      ascii;
    arch        "LSB;label=32;scalar=64";
    class       surfaceScalarField;
    location    "0.365";
    object      ddtCorrDdt0(phi);
}
// * * * * * * * * * * * * * * * * * * * * * * * * * * * * * * * * * * * * * //

dimensions      [0 3 -2 0 0 0 0];

oriented        oriented;

internalField   nonuniform List<scalar> 
24930
(
1.97215
4.3931
2.00214
0.874522
0.86071
0.5715
0.414868
0.458322
0.136439
0.37299
0.0370386
0.320393
0.0268981
0.270025
0.0124418
0.220016
0.0182387
0.19045
0.00937571
0.194656
-0.0225803
0.13272
0.041475
0.114436
0.00856042
0.0942276
-0.000222129
0.103314
-0.022028
0.0765877
-0.00134495
0.0839357
0.00038672
0.0626769
-0.00100502
0.0570808
0.00609464
0.051809
-0.00586641
0.0339967
0.020514
0.0461328
0.0052724
0.031832
0.0116432
0.0492556
0.00888533
0.0511528
0.00384271
0.0324259
0.042776
0.0362012
0.0274207
0.0539724
-0.0117081
0.0160877
0.0633368
0.032432
0.0182245
-0.0129398
0.0426323
0.0162478
-0.0214317
0.0139832
-0.00357956
0.0199535
-0.00308287
0.0227352
-0.00477214
0.0187317
0.00320875
0.0250572
-0.0118113
0.014963
-0.0112137
0.0225121
-0.0178047
0.00815156
-0.00479588
0.0146492
-0.0102275
0.000910401
-0.00048928
0.00913011
-0.0108681
-0.00381825
-0.00166746
0.00652703
-0.00815442
-0.00474575
0.001355
0.000976504
0.00300416
-0.00303596
0.00366776
-0.00141475
0.00891179
-0.00487636
0.0149533
-0.00235631
0.0108013
-0.00920591
0.0153305
-0.00569093
0.00995658
-0.0117353
0.0121377
-0.00674027
0.00663825
-0.00735004
0.00342159
-0.00794109
0.00546184
-0.00250656
-0.00522774
-0.00813649
0.00665787
0.000356282
0.0076122
-0.00639143
0.00365761
0.00043058
-0.0148347
-0.00182081
0.00446726
0.00996336
0.0246117
-0.0105881
0.0761647
-0.00177731
-0.0592613
0.00149281
-0.00186448
-8.27969e-05
-0.00129231
0.00686716
-0.00706611
-0.00347781
0.0170097
-0.00681857
0.0191682
-0.0366669
0.0237101
-0.0835566
0.0505099
-0.0393718
-0.0331099
0.0937754
-0.12302
0.0756311
0.0229652
-0.00565719
0.083993
-0.0161556
0.0175805
-0.0135052
0.00126288
-0.0296331
0.0168926
0.00227342
-0.0132843
0.0262998
-0.0119278
0.075741
-0.0377832
0.087569
-0.0139513
0.0669157
0.0280005
0.0138897
0.0666704
-0.0512356
0.101423
-0.0987065
0.0480666
-0.101469
0.0163509
-0.07548
-0.0209657
-0.0522275
-0.019648
-0.0323631
-0.0115093
-0.0137412
-0.0136271
-0.0056473
-0.00627282
-0.00125961
0.000839971
-0.009633
0.0106341
-0.0156276
0.0093215
-0.00380882
-0.00935554
0.0306774
-0.0292326
0.0489075
-0.0200068
0.0247921
0.0312156
-0.0102747
0.0333683
-0.0238702
0.0171257
-0.0140586
-0.00638118
-0.0100084
-0.00455608
-0.00533211
-0.0011654
0.00110364
-0.00459994
0.00140966
-0.00298917
0.00655721
-0.00261151
0.0093732
-0.0032603
0.00596446
0.00363578
0.00814279
0.00098093
-0.00275038
0.0115043
-0.00292655
0.000270634
-0.0117118
0.00483683
-0.0106351
0.0018783
-0.0103149
-0.00449547
-0.00892188
-0.000520378
-0.00460378
-0.00331472
-0.00432817
-0.00279824
-0.0010533
0.818859
2.4561
0.900256
0.680363
1.1701
0.61199
0.70019
0.511494
0.413225
0.398432
0.224099
0.325562
0.160441
0.274855
0.109
0.223879
0.0774378
0.186031
0.0624308
0.142634
0.0356854
0.128148
0.0708006
0.113306
0.0562144
0.0927401
0.0516082
0.102834
0.0282898
0.0657381
0.0309664
0.0813061
0.0334105
0.059387
0.0174139
0.0565161
0.0228799
0.051372
0.00302892
0.033279
0.0162422
0.0477316
0.00445429
0.0286923
-0.00394551
0.0455466
-0.00246281
0.0509244
-0.0217418
0.0315138
0.0253552
0.0389102
0.0151535
0.0532057
-0.0495208
0.0173702
0.0689386
0.0322272
0.00985771
-0.0115118
0.0557689
0.023327
-0.0341743
0.0177314
-0.0210318
0.023433
-0.0116939
0.023783
-0.0121402
0.0210351
-0.000774915
0.0257195
-0.00678771
0.0160512
-0.00391005
0.0231151
-0.0128716
0.00807609
-0.00833977
0.0153011
-0.00760981
0.000274846
-0.00110564
0.00974473
-0.00450999
-0.00468499
-0.00282092
0.00666072
-0.00539703
-0.00567093
-0.00509802
0.000761573
-0.00256803
-0.00382169
-0.0104418
-0.00153901
-0.00581962
-0.00509632
-0.00416007
-0.00229438
-0.00685321
-0.00928952
-0.00181218
-0.00494982
0.00085302
-0.0113308
0.00358962
-0.00641078
0.00681429
-0.0073326
0.00359807
-0.00829283
0.00587917
-0.00252665
-0.00570983
-0.00863281
0.00585559
0.000989504
0.00708234
-0.00564005
-0.0024666
0.00311534
-0.014503
0.00159225
-0.00445139
0.0116067
-0.0502125
-0.00362026
0.0814208
0.00528954
-0.0700584
0.0111542
-0.00601495
0.0125324
-0.0077417
0.0217428
-0.00880128
0.00391543
0.0205992
-0.0191993
0.046403
-0.10116
0.0999672
-0.244795
0.193492
-0.131826
-0.150509
0.264394
-0.529642
0.268309
0.0146149
0.0137533
0.335463
-0.0412498
0.0654634
-0.0366597
-0.000808801
-0.0659333
0.0267278
0.0200901
-0.100737
0.144911
-0.156699
0.278005
-0.166396
0.302471
-0.0452502
0.202743
0.125678
0.0307482
0.207345
-0.160431
0.28892
-0.294981
0.164195
-0.30083
0.0179481
-0.22255
-0.101755
-0.149596
-0.0953488
-0.0881586
-0.0716788
-0.0342017
-0.066312
-0.00424111
-0.0399274
0.00316503
-0.0064451
-0.0239855
0.0367438
-0.0399134
0.02862
0.00644389
-0.0607358
0.105486
-0.121398
0.130671
-0.0537637
0.068815
0.0972367
-0.0323109
0.126698
-0.0626518
0.0423952
-0.0415464
-0.0247422
-0.0256555
-0.0212511
-0.01164
-0.0152516
0.0021509
-0.0143458
0.00961413
-0.0141332
0.0207865
-0.0118685
0.0263819
-0.00734442
0.020386
0.00404602
0.0153078
0.0050267
-0.00749544
0.0243211
-0.019233
0.0185516
-0.0368485
0.0169532
-0.0403176
0.0114118
-0.0377611
-0.00696464
-0.0318415
-0.00573538
-0.0213348
-0.0119797
-0.0156729
-0.0115117
-0.00207015
0.406011
1.66378
0.460678
0.59023
1.19567
0.580104
0.802134
0.496261
0.52848
0.405453
0.353241
0.326241
0.252131
0.276092
0.191478
0.226312
0.137847
0.185646
0.110312
0.147095
0.0735474
0.130439
0.0710385
0.117733
0.0542288
0.0959207
0.0498274
0.109724
0.0339657
0.0778754
0.0172481
0.0872592
0.0262075
0.0598843
0.0108536
0.0565266
0.0180073
0.0549319
0.00321213
0.0361801
0.00681969
0.052984
0.00466622
0.0324126
-0.00772675
0.0408791
0.00490267
0.0405875
-0.016922
0.0307465
0.0158434
0.0397998
0.0184631
0.0475096
-0.0478859
0.0198136
0.0721351
0.0363992
0.0236327
-0.000125344
0.0757481
0.0289693
-0.0453846
0.0193665
-0.0138568
0.0255431
0.00570066
0.0250885
-0.00661896
0.0226661
0.00187533
0.027342
0.00117168
0.0172014
0.00178453
0.0247128
-0.00378352
0.00869277
-0.00361812
0.0166823
-0.0023274
0.000418631
-0.00106232
0.0108063
0.0013826
-0.0046658
-0.00253484
0.00752924
0.000612548
-0.005671
-0.00517512
0.00131656
0.00417243
-0.0036081
-0.00563816
-0.00105628
-7.74935e-05
-0.00483743
-0.00173443
-0.00185012
-0.00249314
-0.00894226
0.000635861
-0.00416792
0.00614818
-0.0109378
0.0011147
-0.00584359
0.00924646
-0.0069457
0.00464932
-0.00834268
0.00581114
-0.0022398
-0.0046195
-0.00887728
0.00622774
0.00174072
0.00733156
-0.0045971
-0.0033734
0.00600213
-0.00159839
0.00517519
-0.0125248
0.0112536
-0.0855653
0.00693891
0.0735814
0.013161
-0.0282436
0.0224219
-0.0105517
0.0262281
-0.018729
0.0362008
-0.00993046
0.00914635
0.0337903
-0.0325045
0.0961733
-0.154589
0.218621
-0.392939
0.432951
-0.243119
-0.298285
0.405798
-1.18115
0.473006
-0.0551778
0.0576673
0.750607
-0.0667737
0.181863
-0.061907
-0.000972287
-0.0953857
0.045909
0.0550093
-0.243227
0.293851
-0.410434
0.508109
-0.373404
0.514921
-0.0592978
0.309477
0.335026
0.0133139
0.483378
-0.289526
0.586318
-0.497425
0.368852
-0.499494
0.0216349
-0.368862
-0.231178
-0.249181
-0.21541
-0.146743
-0.171507
-0.0550376
-0.15539
-0.0023927
-0.0943074
0.00616249
-0.0125229
-0.039798
0.0824097
-0.0603358
0.0537288
0.0281412
-0.152528
0.191154
-0.274924
0.229537
-0.100979
0.104575
0.227899
-0.0604054
0.285983
-0.103429
0.0825599
-0.0691826
-0.0544335
-0.0412289
-0.0495097
-0.0176758
-0.0387337
0.00396158
-0.0313766
0.0184291
-0.0322433
0.0348008
-0.0259831
0.0416989
-0.0122751
0.0310184
0.00948349
0.0165443
0.0227394
-0.0194724
0.0499621
-0.0437439
0.0510448
-0.0683659
0.0352252
-0.0753422
0.0243196
-0.0694293
-0.0138554
-0.0583029
-0.0169973
-0.0416767
-0.0270691
-0.0309659
-0.0256918
-0.00327159
0.245364
1.3035
0.278106
0.462354
1.09673
0.51173
0.841328
0.464843
0.604557
0.393935
0.428897
0.321041
0.300239
0.26961
0.224706
0.223766
0.167545
0.179387
0.1332
0.148716
0.111127
0.129218
0.0939814
0.118704
0.0734588
0.0949242
0.0734438
0.10998
0.0715977
0.0803455
0.0504659
0.0876621
0.0547741
0.0649622
0.0357648
0.057132
0.0429741
0.0534249
0.0333024
0.0366888
0.0250556
0.0545397
0.0277411
0.0346335
0.0078022
0.0404895
0.0245013
0.0414962
-0.00276545
0.0324838
0.0108628
0.0405073
0.0172039
0.0314357
-0.0382717
0.020579
0.0424785
0.04085
0.0124551
0.0133701
0.0592342
0.0293788
-0.0551001
0.0192741
-0.0201618
0.0262342
0.0110759
0.0261931
0.00197997
0.0239954
0.00715031
0.0289402
0.010287
0.0182006
0.00645661
0.0263139
0.00558907
0.00930436
0.00213806
0.0180217
0.00271725
0.000651127
-0.00235642
0.0117689
0.00528673
-0.00457933
-0.00208091
0.00834422
0.00724843
-0.00553664
-0.00498635
0.00180741
0.00965919
-0.00323525
-0.00181681
-0.000532339
0.00487751
-0.00446673
0.00111635
-0.00124804
0.00216321
-0.00859267
0.00140022
-0.00348558
0.00868387
-0.0104839
-0.0028976
-0.00518037
0.0109033
-0.00644311
0.0050746
-0.00831094
0.00612161
-0.00185522
-0.00196588
-0.00914622
0.00713851
0.0024729
0.00609713
-0.00351106
-0.00355022
0.00885452
0.0142395
0.00872883
-0.0186935
0.0117937
-0.0620428
0.0188773
0.0492712
0.0224017
-0.00293383
0.0318219
-0.0173276
0.0408906
-0.0351827
0.0502531
-0.00920813
0.0127284
0.0565565
-0.0456273
0.163613
-0.192099
0.362264
-0.517589
0.759871
-0.375051
-0.437974
0.506631
-2.06402
0.685174
-0.235143
0.125732
1.30996
-0.0890407
0.387861
-0.0887071
0.00468309
-0.117359
0.0612434
0.110285
-0.45947
0.489763
-0.803819
0.757139
-0.632284
0.713741
-0.0228615
0.378298
0.677334
-0.0389142
0.896149
-0.434816
0.98022
-0.699151
0.631656
-0.692009
0.0172296
-0.513449
-0.408079
-0.350705
-0.377962
-0.208352
-0.310958
-0.0773993
-0.282963
-0.000729872
-0.172154
0.00831737
-0.0185298
-0.0557271
0.146503
-0.075414
0.0785383
0.0621564
-0.293532
0.286821
-0.489413
0.324148
-0.147915
0.131154
0.427331
-0.0929688
0.505498
-0.144602
0.130755
-0.097037
-0.0969058
-0.0557898
-0.0913395
-0.0234871
-0.0709834
0.00612361
-0.0559189
0.0271679
-0.0570797
0.0475443
-0.0438892
0.0538342
-0.0164644
0.0356951
0.0222943
0.0101419
0.0551044
-0.0379589
0.0888234
-0.0750824
0.0969729
-0.10622
0.059558
-0.115438
0.0397755
-0.105574
-0.0247902
-0.0890869
-0.0337057
-0.0663778
-0.0482144
-0.0509733
-0.0448356
-0.00450767
0.153697
1.01293
0.171018
0.36078
0.925398
0.424253
0.771475
0.417568
0.611863
0.36699
0.455039
0.310076
0.348032
0.261542
0.264967
0.220159
0.199442
0.176997
0.152688
0.147333
0.136278
0.127053
0.11568
0.120652
0.090544
0.0952381
0.0786173
0.108043
0.076703
0.0817335
0.0559248
0.0861399
0.0573275
0.0664826
0.0381176
0.0567479
0.0425886
0.0563664
0.0361876
0.0374037
0.0237959
0.0521365
0.0302141
0.0360335
0.00956559
0.0386431
0.0222134
0.0438414
-0.00115262
0.0338861
-0.00430035
0.0381325
0.00925554
0.0341004
-0.0316018
0.0216891
0.014478
0.0338591
0.0113025
0.0283176
0.0389534
0.0243996
-0.0370495
0.0186119
-0.0240719
0.0264462
0.0117071
0.0273426
0.0084826
0.0255565
0.0112304
0.0305368
0.0189502
0.0194073
0.00872689
0.0279901
0.0085211
0.0100072
0.00412863
0.0193217
0.00710648
0.00109317
-0.00350729
0.0127196
0.00653825
-0.00430448
-0.00427311
0.00909976
0.0111204
-0.0051717
-0.00733516
0.002308
0.0101337
-0.00270547
-0.00336133
7.90583e-05
0.00466619
-0.00395259
-0.000477248
-0.000491497
0.0024463
-0.00812264
-0.00106409
-0.00277404
0.0097693
-0.00986791
-0.00654593
-0.00445328
0.0123535
-0.00585664
0.00516467
-0.00820844
0.0069293
-0.0014074
0.00186487
-0.00948309
0.00774137
0.00313061
0.00260391
-0.00241125
-0.005248
0.0115385
0.0244057
0.0125876
-0.0208533
0.0167101
-0.00532687
0.0284927
0.0342958
0.0331843
-0.00927819
0.0462196
-0.0306926
0.0565515
-0.0504913
0.0635315
-0.00502305
0.0144485
0.0893356
-0.0575227
0.245476
-0.20816
0.51082
-0.608748
1.16193
-0.530624
-0.513331
0.555828
-3.14981
0.893747
-0.5734
0.217735
1.9854
-0.104134
0.700497
-0.115483
0.0228176
-0.127136
0.059918
0.18965
-0.765084
0.65633
-1.28289
1.01765
-0.983953
0.884638
0.102706
0.40016
1.17034
-0.124629
1.42291
-0.588939
1.44983
-0.893157
0.935264
-0.874239
0.00325843
-0.652781
-0.626833
-0.453349
-0.576157
-0.273321
-0.487584
-0.102049
-0.449969
0.000112266
-0.274864
0.00969068
-0.0242088
-0.0703936
0.227019
-0.0833651
0.097112
0.108021
-0.488335
0.389612
-0.760031
0.414572
-0.183362
0.149413
0.699324
-0.129648
0.779142
-0.18633
0.183473
-0.124929
-0.152359
-0.0721063
-0.145084
-0.0293002
-0.11361
0.00822267
-0.0878154
0.0349683
-0.0877926
0.0578331
-0.0639846
0.0615459
-0.0180412
0.0349941
0.043459
-0.00292899
0.101791
-0.0649786
0.142262
-0.113731
0.15526
-0.150531
0.0891365
-0.160933
0.0568039
-0.14695
-0.040005
-0.125106
-0.0559417
-0.0964547
-0.0753125
-0.0766473
-0.0686954
-0.00587176
0.104757
0.812695
0.102524
0.280041
0.794835
0.351473
0.694566
0.369708
0.581245
0.346734
0.442574
0.296786
0.339421
0.25133
0.268024
0.212319
0.204248
0.175309
0.150817
0.143387
0.122488
0.12238
0.10681
0.119598
0.0930692
0.0948363
0.0733595
0.104313
0.0681855
0.0813857
0.0490907
0.0828783
0.04961
0.0667794
0.0329806
0.055231
0.0309727
0.0543304
0.0254242
0.0380101
0.0157887
0.0515673
0.0198998
0.036924
0.00640587
0.0356725
0.0164927
0.0443829
0.00833643
0.0352979
0.000825361
0.0352178
0.00908538
0.0386964
-0.0189122
0.0220351
-0.000669302
0.036816
0.0160764
0.0327653
0.0217356
0.0259434
-0.0170905
0.0137549
-0.0231602
0.025884
0.00475206
0.0279859
0.00574055
0.0271774
0.0101878
0.0317854
0.0203461
0.0205882
0.00905776
0.0296461
0.00862677
0.0107749
0.0032972
0.0204615
0.0104309
0.00164792
-0.00304619
0.0135882
0.00761417
-0.00382266
-0.00846351
0.00970948
0.0122415
-0.00464346
-0.010748
0.00277781
0.00749601
-0.00206237
-0.00843991
0.00072583
0.000275141
-0.00334344
-0.00571332
0.00031871
-0.00101926
-0.00752458
-0.00593149
-0.00208183
0.00984439
-0.00909199
-0.00964919
-0.00368423
0.0134558
-0.00518722
0.00508304
-0.00803605
0.00830415
-0.000929214
0.00672603
-0.00993551
0.00788936
0.00368448
-0.00245477
-0.00137754
-0.00990969
0.0139847
0.021407
0.01702
-0.022083
0.0232877
0.0136596
0.0382263
0.0202821
0.0459004
-0.0357155
0.062076
-0.0487593
0.0731787
-0.0636077
0.0757609
0.00418268
0.0143919
0.132814
-0.0662044
0.336146
-0.199011
0.641333
-0.663058
1.62686
-0.719087
-0.455348
0.534566
-4.40286
1.08906
-1.12781
0.331456
2.74145
-0.108912
1.13065
-0.139888
0.0611654
-0.124266
0.0311091
0.300708
-1.17592
0.905466
-1.90248
1.27844
-1.34703
1.01488
0.357574
0.371784
1.82241
-0.234842
2.02935
-0.74153
1.96513
-1.07443
1.26466
-1.04423
-0.021905
-0.786875
-0.881613
-0.557749
-0.803741
-0.34292
-0.699163
-0.130548
-0.657441
-0.000872726
-0.404861
0.0106256
-0.0313931
-0.0822701
0.320515
-0.0832801
0.103884
0.165026
-0.740205
0.497258
-1.0809
0.497795
-0.195382
0.158547
1.04525
-0.167116
1.10088
-0.227706
0.237213
-0.153085
-0.220302
-0.0882315
-0.211526
-0.0355471
-0.166042
0.00947622
-0.126676
0.0408221
-0.123359
0.0645052
-0.0845907
0.0637234
-0.0152025
0.0267388
0.0749232
-0.0246357
0.162377
-0.0999694
0.209432
-0.159366
0.224629
-0.201441
0.123468
-0.213095
0.0755086
-0.194443
-0.0599377
-0.167572
-0.0832691
-0.133105
-0.108172
-0.109035
-0.0971139
-0.00761918
0.0867333
0.631034
0.0519664
0.214809
0.630899
0.291927
0.585811
0.317742
0.509191
0.319274
0.419091
0.282802
0.322558
0.240249
0.258851
0.202694
0.206705
0.171138
0.161663
0.141294
0.12699
0.120747
0.113386
0.116424
0.102798
0.0935937
0.0804778
0.0995737
0.072941
0.0799883
0.0547226
0.0783362
0.0537473
0.0648323
0.0401325
0.0524335
0.0333882
0.0511872
0.0280321
0.036727
0.0228007
0.0488413
0.0270074
0.0373625
0.0127031
0.0340333
0.0189136
0.0428439
0.0147186
0.0355447
0.00472939
0.0322318
0.0136758
0.0409928
0.00309354
0.0230377
-0.000518123
0.0388336
0.0196149
0.0318
0.010002
0.032327
-0.00397344
0.0174059
-0.0114122
0.0191109
0.00860575
0.027503
0.000978576
0.0285245
0.00815135
0.0325585
0.0226232
0.0215652
0.0105678
0.0311624
0.00565064
0.0116211
0.000961967
0.0213925
0.01206
0.00222848
-0.00279816
0.0142297
0.00960962
-0.00312734
-0.0114084
0.0101225
0.0122306
-0.00401025
-0.0128268
0.00315268
0.00527521
-0.00133937
-0.0124496
0.00137705
-0.00369329
-0.00265699
-0.00981073
0.0011478
-0.00386281
-0.00677485
-0.010048
-0.00145346
0.0104263
-0.00817445
-0.0114146
-0.00291231
0.0143217
-0.00444919
0.00514125
-0.00779801
0.0105318
-0.00045813
0.0125656
-0.0105431
0.00817024
0.00423599
-0.00712552
-0.000541826
-0.0177463
0.0162053
0.00428567
0.0218247
-0.0290416
0.0305799
-0.00768475
0.0491635
0.00115936
0.06092
-0.0650449
0.0799647
-0.0688262
0.0906887
-0.0749646
0.0866803
0.019979
0.0129626
0.187741
-0.0685398
0.427873
-0.162151
0.732016
-0.687648
2.15256
-0.961873
-0.179868
0.422518
-5.78659
1.25852
-1.96403
0.463214
3.53433
-0.10087
1.68345
-0.158918
0.127101
-0.100996
-0.0419577
0.442963
-1.7058
1.1722
-2.64883
1.52594
-1.69118
1.09395
0.779386
0.29705
2.62782
-0.35759
2.67892
-0.883739
2.50032
-1.24081
1.61499
-1.20225
-0.0555369
-0.915536
-1.16599
-0.664826
-1.05266
-0.418889
-0.942272
-0.164762
-0.906052
-0.00490405
-0.564931
0.0113889
-0.0430699
-0.0897901
0.422337
-0.0733821
0.0931375
0.231874
-1.05045
0.606667
-1.44429
0.573069
-0.174186
0.160649
1.46387
-0.208472
1.46559
-0.268834
0.288176
-0.18179
-0.299385
-0.105016
-0.290652
-0.0427422
-0.227905
0.00913801
-0.171869
0.0436957
-0.162461
0.066499
-0.103982
0.0595254
-0.0063572
0.0109831
0.117769
-0.0532258
0.236717
-0.142394
0.289889
-0.211907
0.304478
-0.259213
0.162448
-0.271803
0.0956152
-0.249361
-0.0837061
-0.217927
-0.115225
-0.177803
-0.14662
-0.149406
-0.13017
-0.0103698
0.0749033
0.518106
0.0346
0.175216
0.52148
0.247425
0.500969
0.281536
0.447935
0.285546
0.386177
0.268964
0.32161
0.234044
0.262729
0.197586
0.209054
0.166081
0.166643
0.141901
0.137436
0.121962
0.123804
0.11346
0.108619
0.0926539
0.087701
0.0943218
0.0779634
0.077592
0.0599814
0.0727154
0.0572192
0.0604741
0.0464854
0.048086
0.0372501
0.0470534
0.0352327
0.0337982
0.0281781
0.0438588
0.0299693
0.0354353
0.0139602
0.0308328
0.0183607
0.0405036
0.0175936
0.0350118
0.00439276
0.0286788
0.0103125
0.0401399
0.00511256
0.0237918
-0.00197045
0.0383643
0.0197223
0.0306793
0.00260449
0.032821
-0.00143691
0.020688
-0.00773725
0.0276603
0.0060752
0.0187314
0.00703593
0.0288797
-0.00315453
0.032512
0.0201499
0.021885
0.0123918
0.0324604
0.00426592
0.012504
-0.00143066
0.0220461
0.011443
0.00281745
-0.00153085
0.0145247
0.0122868
-0.00227645
-0.0112865
0.010311
0.0131154
-0.00332399
-0.0123627
0.00337729
0.00521806
-0.000582529
-0.0130415
0.00200296
-0.00483102
-0.0019268
-0.0104865
0.00194587
-0.00415658
-0.00587751
-0.0122603
-0.000943346
0.0115999
-0.00715451
-0.0119393
-0.00218283
0.0148703
-0.00365557
0.00564252
-0.0074939
0.0138439
-1.92647e-05
0.0192615
-0.0113151
0.0096236
0.0042401
-0.00840558
-6.42974e-05
-0.0280548
0.0182345
-0.0193219
0.0266845
-0.0435984
0.0386968
-0.0447174
0.0616429
-0.0252415
0.0786033
-0.0872253
0.100092
-0.0888866
0.108943
-0.0859709
0.0961822
0.0439094
0.0112253
0.254201
-0.0601669
0.509836
-0.0995258
0.767505
-0.704954
2.75774
-1.29274
0.408822
0.194811
-7.27301
1.38763
-3.15629
0.607844
4.31103
-0.0785652
2.35757
-0.168996
0.225689
-0.0561481
-0.173309
0.620929
-2.36788
1.45472
-3.50123
1.7462
-1.97362
1.11161
1.40259
0.187316
3.55946
-0.477622
3.3336
-1.00954
3.04014
-1.39328
1.98896
-1.35041
-0.0937806
-1.03995
-1.47445
-0.776407
-1.31415
-0.503728
-1.21278
-0.207204
-1.19641
-0.0136342
-0.758734
0.0122021
-0.0640939
-0.0914322
0.526536
-0.0551329
0.0620613
0.30684
-1.4169
0.715037
-1.84231
0.638651
-0.110576
0.159251
1.94704
-0.244764
1.87747
-0.309531
0.353267
-0.212353
-0.387842
-0.122875
-0.383279
-0.0515495
-0.298542
0.00634753
-0.222617
0.0426601
-0.203727
0.0630962
-0.120643
0.0485784
0.0097456
-0.0117969
0.173009
-0.089134
0.324286
-0.191463
0.382599
-0.270813
0.39445
-0.324152
0.206829
-0.339169
0.118665
-0.31324
-0.110976
-0.277909
-0.151121
-0.232256
-0.190505
-0.199211
-0.168193
-0.0151762
0.0687583
0.426308
0.00943288
0.152579
0.43586
0.213422
0.421631
0.251487
0.388831
0.256036
0.337516
0.247783
0.2952
0.22285
0.24899
0.193412
0.203063
0.163882
0.162027
0.144024
0.137537
0.123492
0.122135
0.113414
0.106317
0.0939535
0.0884841
0.0901786
0.0753374
0.0752031
0.0558377
0.0668407
0.0487301
0.054289
0.0398735
0.0430905
0.0306619
0.0407816
0.0293173
0.0287079
0.0244885
0.0361209
0.023881
0.031371
0.0102917
0.0259473
0.0115058
0.0348397
0.0118245
0.0324813
-0.00134398
0.0255128
0.00144399
0.0372125
0.00485703
0.0236768
-0.00970999
0.0354412
0.0177703
0.0291684
0.00162209
0.03168
-0.000259219
0.021211
-0.00515901
0.0291608
0.00371795
0.0251958
0.0115841
0.0240907
0.00344611
0.0307912
0.0127347
0.0211647
0.0108244
0.0332067
0.00340757
0.0132129
-0.000846264
0.0224238
0.0117238
0.00335286
-0.00379833
0.0144022
0.0149026
-0.00137063
-0.00881336
0.0102233
0.0142298
-0.00264564
-0.010734
0.00340203
0.00660751
0.000143828
-0.0110402
0.00256632
-0.0042824
-0.00120872
-0.00904783
0.00263555
-0.00300475
-0.0048663
-0.013459
-0.000617539
0.0125922
-0.00608684
-0.0118179
-0.00153803
0.0149262
-0.00281244
0.00678098
-0.00711501
0.0182228
0.00039423
0.0263752
-0.0121968
0.0131449
0.00412148
-0.00453902
-3.51254e-05
-0.0385359
0.0200625
-0.0387179
0.031456
-0.0627204
0.0478334
-0.0759398
0.0759673
-0.0555914
0.0993261
-0.103081
0.122528
-0.108307
0.12779
-0.0972977
0.104313
0.0776174
0.0111917
0.330373
-0.0359901
0.568137
-0.0214834
0.748114
-0.734401
3.47046
-1.74759
1.42297
-0.161406
-8.85686
1.46422
-4.78434
0.759321
5.01224
-0.0416257
3.14543
-0.16632
0.358662
0.0129655
-0.373951
0.833311
-3.17399
1.74401
-4.4302
1.92668
-2.14814
1.06966
2.24769
0.0595308
4.57491
-0.583328
3.96216
-1.11613
3.5799
-1.53383
2.39495
-1.49123
-0.131863
-1.16146
-1.80241
-0.894575
-1.57859
-0.600376
-1.50559
-0.260981
-1.5289
-0.0291392
-0.990932
0.0130226
-0.101262
-0.0861509
0.626119
-0.0265722
0.00688016
0.383821
-1.82514
0.819185
-2.26108
0.69543
-0.000463715
0.15363
2.49082
-0.275921
2.29416
-0.350716
0.427456
-0.239078
-0.490276
-0.142363
-0.483852
-0.0626521
-0.377093
0.000360236
-0.278112
0.0370666
-0.24588
0.0541001
-0.133498
0.0316896
0.0333877
-0.0406787
0.239838
-0.129965
0.424383
-0.245792
0.48771
-0.335499
0.495072
-0.396501
0.258223
-0.415653
0.146418
-0.387843
-0.140123
-0.349428
-0.190142
-0.298365
-0.239688
-0.260084
-0.21179
-0.023627
0.067497
0.343985
-0.0195089
0.131875
0.355926
0.188279
0.348886
0.218591
0.328688
0.231899
0.295091
0.225412
0.261392
0.209509
0.228504
0.186995
0.194683
0.163958
0.16008
0.146272
0.137328
0.126105
0.120087
0.117562
0.106823
0.0987386
0.0909473
0.0893616
0.0755845
0.0745457
0.0541906
0.0627986
0.0417857
0.0485198
0.0332971
0.03841
0.0288921
0.0342627
0.0240118
0.0219011
0.0203031
0.0265791
0.0190847
0.0248219
0.00906687
0.0189951
0.00856861
0.0264521
0.00873043
0.0272463
0.000345634
0.0204443
-0.00394232
0.0310329
0.00719871
0.0231595
-0.00532061
0.030201
0.0120758
0.0261787
-0.00145194
0.0290332
-0.0013417
0.0198963
-0.00116196
0.0289664
-0.000172956
0.0240273
0.0103002
0.0267659
0.00922754
0.0305336
0.0115534
0.0177522
0.0107723
0.0330819
-0.00357794
0.0134287
0.000916941
0.0221124
0.0133682
0.00391587
-0.00607262
0.0137964
0.0141293
-0.000576967
-0.00661369
0.00976854
0.0137356
-0.00203844
-0.0108332
0.00316438
0.00684903
0.000735242
-0.00839445
0.00301608
-0.00454971
-0.000575952
-0.0081596
0.00312168
-0.00250393
-0.00378888
-0.015176
-0.000547299
0.0127204
-0.00503579
-0.0115908
-0.00101112
0.0143221
-0.00191785
0.00853151
-0.00664262
0.023336
0.000841381
0.0330352
-0.0130595
0.018846
0.00369544
0.00428024
-0.00040003
-0.0472103
0.0215881
-0.047712
0.036209
-0.0824926
0.0579868
-0.0949026
0.0924296
-0.0881215
0.126403
-0.124521
0.147133
-0.124745
0.147076
-0.106865
0.111569
0.122445
0.0157237
0.411515
0.00863395
0.58695
0.0494445
0.701631
-0.956494
4.47713
-2.31739
2.78456
-0.660703
-10.5098
1.47012
-6.91286
0.911767
5.56736
0.00919289
4.0346
-0.146916
0.523436
0.109828
-0.653667
1.07609
-4.12734
2.02792
-5.39765
2.04648
-2.15956
0.979889
3.30255
-0.0655455
5.62436
-0.670003
4.55031
-1.20297
4.11935
-1.66301
2.84263
-1.62652
-0.163651
-1.28202
-2.14521
-1.02128
-1.83624
-0.711785
-1.81447
-0.32975
-1.90318
-0.0541734
-1.26713
0.013204
-0.163514
-0.0733072
0.712902
0.0130835
-0.0773382
0.462516
-2.28302
0.917429
-2.70076
0.742654
0.159743
0.145531
3.10172
-0.313101
2.75352
-0.392472
0.501025
-0.272963
-0.600107
-0.164096
-0.597165
-0.0766859
-0.462633
-0.00935077
-0.337696
0.0267727
-0.288015
0.0400696
-0.142173
0.00987269
0.0643828
-0.07316
0.31676
-0.173708
0.535945
-0.30342
0.605491
-0.404811
0.607737
-0.476207
0.31937
-0.502569
0.18199
-0.474803
-0.169205
-0.434386
-0.231212
-0.378045
-0.294017
-0.333697
-0.261817
-0.0378687
0.0712986
0.291077
-0.0220183
0.11738
0.296639
0.169713
0.29991
0.192927
0.284648
0.207968
0.264739
0.206003
0.238739
0.198157
0.215999
0.179879
0.188108
0.163142
0.160524
0.146355
0.13954
0.129589
0.124463
0.123791
0.114212
0.106397
0.0984987
0.0926766
0.0831905
0.0772987
0.0631981
0.0630212
0.0482787
0.0474048
0.0394491
0.0351262
0.0364093
0.0294631
0.0295206
0.0153023
0.0231718
0.0166651
0.0221906
0.0164549
0.0153864
0.00995696
0.013535
0.0161189
0.0117427
0.0181599
0.00416747
0.0141311
0.00120776
0.0219033
0.00396466
0.0190993
-0.00506856
0.0227998
0.00690079
0.0211889
-0.00628743
0.0248464
-0.00745972
0.0159169
0.00234439
0.0273944
0.0023681
0.0213641
0.00414283
0.0256088
0.00786822
0.0304879
0.0109224
0.0214914
0.00936267
0.0264905
0.000408485
0.0126933
-0.00763883
0.0206371
0.0160753
0.00422038
-0.00694555
0.0126858
0.0116874
-0.000101162
-0.00623813
0.00878206
0.0107371
-0.00157823
-0.0122717
0.00262026
0.00394091
0.00102329
-0.00732079
0.0032832
-0.00672995
-0.000107436
-0.00873855
0.0033014
-0.0032569
-0.00268584
-0.0181991
-0.000806482
0.0117075
-0.00407398
-0.0114093
-0.000622939
0.0130142
-0.000961614
0.0107295
-0.00605265
0.0287106
0.00144813
0.0381875
-0.0136996
0.0258381
0.00294846
0.0153166
-0.00291078
-0.0516411
0.0226402
-0.0505776
0.0411294
-0.101564
0.0689534
-0.10922
0.111051
-0.124488
0.144416
-0.149386
0.173425
-0.150628
0.166675
-0.110899
0.119011
0.178887
0.0284349
0.489358
0.0759534
0.551552
0.0774892
0.694208
-1.21125
5.76817
-2.94611
4.51905
-1.23043
-12.2207
1.37944
-9.53189
1.05573
5.88815
0.0719337
5.00516
-0.107301
0.711958
0.23653
-1.02041
1.31616
-5.19621
2.2924
-6.38492
2.0941
-1.95411
0.864421
4.52072
-0.168034
6.65973
-0.743339
5.10954
-1.26909
4.65189
-1.77757
3.33943
-1.75704
-0.179025
-1.40496
-2.49555
-1.1576
-2.07962
-0.840226
-2.13201
-0.417474
-2.31715
-0.0921474
-1.59355
0.011347
-0.261459
-0.0533406
0.778055
0.0614764
-0.183821
0.545787
-2.76914
1.00707
-3.14719
0.782072
0.369995
0.14173
3.75642
-0.343898
3.23925
-0.436147
0.584299
-0.309119
-0.716797
-0.188623
-0.722534
-0.0941057
-0.554306
-0.0229089
-0.40105
0.0122283
-0.329765
0.0224506
-0.147247
-0.0138539
0.101053
-0.106348
0.402236
-0.217035
0.657896
-0.361786
0.737073
-0.477074
0.734793
-0.562589
0.394028
-0.599861
0.229105
-0.5752
-0.195149
-0.534235
-0.27289
-0.472888
-0.353201
-0.421479
-0.319299
-0.0605472
0.0705699
0.251558
-0.030091
0.114172
0.252707
0.152209
0.257687
0.175542
0.249816
0.186137
0.237708
0.189625
0.220041
0.184225
0.201798
0.171713
0.179379
0.160038
0.158495
0.14479
0.139258
0.132033
0.127077
0.127829
0.119115
0.114341
0.104635
0.0990453
0.0907925
0.0835823
0.0752585
0.0681639
0.0590031
0.051767
0.0500895
0.0356753
0.0446307
0.0279633
0.0384465
0.0119733
0.0311573
0.00883549
0.0298853
0.0078158
0.0226218
-0.00062723
0.0164387
0.00370754
0.0150996
0.00662808
0.00220271
0.00355442
0.00225809
0.00982918
0.00434193
0.0114073
-0.0100172
0.0116789
-0.0010741
0.0129537
-0.00216412
0.0192432
-0.00961239
0.00908717
-0.00202293
0.0226004
0.00310353
0.0170552
0.00108015
0.0224603
0.00385913
0.0278676
0.00490246
0.018949
0.00981154
0.0289268
0.00178554
0.00767227
-0.0100097
0.0174742
0.0117035
0.00370976
-0.0066541
0.0107709
0.00858464
-0.000238975
-0.00727661
0.00710686
0.00685704
-0.0014965
-0.0145352
0.00171459
-0.00074596
0.000828725
-0.00820707
0.0032904
-0.0103807
0.000107098
-0.00967471
0.00304143
-0.00415442
-0.00159005
-0.0219536
-0.00146775
0.00933938
-0.00328824
-0.0109152
-0.000382133
0.011232
7.36029e-05
0.0133934
-0.0053253
0.0339987
0.00240679
0.0412304
-0.0138716
0.0326462
0.00202058
0.0244176
-0.00146549
-0.0567011
0.0231225
-0.0523994
0.0462957
-0.121477
0.0806129
-0.132155
0.132022
-0.169288
0.171953
-0.188589
0.201032
-0.178621
0.186498
-0.10507
0.127747
0.246376
0.0531532
0.552057
0.163855
0.45288
0.02737
0.825274
-1.5701
7.37005
-3.50011
6.4457
-1.86411
-13.8516
1.27728
-12.6645
1.19743
5.9658
0.144694
6.04532
-0.0446064
0.911142
0.395468
-1.48208
1.44128
-6.23095
2.52432
-7.47785
2.07774
-1.49942
0.758688
5.82925
-0.229239
7.64994
-0.815839
5.68228
-1.31232
5.15597
-1.87051
3.88754
-1.88338
-0.16046
-1.53694
-2.8401
-1.30447
-2.30717
-0.987435
-2.44989
-0.527867
-2.76668
-0.146786
-1.97657
0.00476146
-0.407107
-0.0275193
0.812013
0.114561
-0.319569
0.628458
-3.28438
1.08722
-3.59112
0.8125
0.629211
0.138127
4.4415
-0.374531
3.75384
-0.484994
0.682907
-0.348648
-0.841743
-0.216448
-0.859891
-0.115051
-0.651656
-0.0399214
-0.468356
-0.00522105
-0.371646
0.00342997
-0.150106
-0.0368386
0.141597
-0.136673
0.494325
-0.256499
0.789285
-0.417779
0.884015
-0.549852
0.879312
-0.654025
0.486784
-0.706743
0.292292
-0.688855
-0.214282
-0.649317
-0.313228
-0.583564
-0.41662
-0.524116
-0.385254
-0.0946041
0.0634985
0.215618
-0.0440236