/*--------------------------------*- C++ -*----------------------------------*\
| =========                 |                                                 |
| \\      /  F ield         | OpenFOAM: The Open Source CFD Toolbox           |
|  \\    /   O peration     | Version:  2412                                  |
|   \\  /    A nd           | Website:  www.openfoam.com                      |
|    \\/     M anipulation  |                                                 |
\*---------------------------------------------------------------------------*/
FoamFile
{
    version     2.0;
    format      ascii;
    arch        "LSB;label=32;scalar=64";
    class       volScalarField;
    location    "0.365";
    object      p;
}
// * * * * * * * * * * * * * * * * * * * * * * * * * * * * * * * * * * * * * //

dimensions      [0 2 -2 0 0 0 0];

internalField   nonuniform List<scalar> 
12600
(
-0.0547093
-88.3752
-68.7969
-14.5698
33.4761
70.6519
100.457
125.364
146.734
165.425
182.002
196.694
209.887
221.786
232.617
242.463
251.456
259.649
267.139
273.999
280.232
285.988
291.215
296.071
300.613
304.683
308.44
312.009
315.129
318.037
320.555
323.012
325.252
327.355
329.26
331.053
332.693
334.18
335.58
336.792
337.945
338.916
339.864
340.633
341.401
342.008
342.596
343.089
343.57
343.976
344.414
344.763
345.163
345.476
345.782
345.986
345.962
345.803
345.242
344.593
343.575
342.448
340.992
339.351
337.151
334.814
332.371
330.073
329.018
331.751
339.238
348.281
347.034
322.187
282.247
257.49
267.372
274.304
266.366
265.167
245.098
204.242
161.853
147.541
191.94
281.044
396.174
494.872
560.41
591.54
606.572
611.429
611.333
608.702
607.955
609.262
609.378
598.492
580.201
566.954
572.818
588.119
598.263
604.689
608.159
609.714
610.296
609.736
609.223
609.566
611.451
616.045
622.816
631.129
640.705
647.781
656.357
659.143
664.779
663.652
63.0804
-17.8264
-30.3829
-3.3364
32.661
66.7827
96.2238
121.375
143.102
162.138
178.961
193.993
207.492
219.671
230.731
240.82
250.011
258.353
265.987
272.977
279.332
285.202
290.531
295.466
300.048
304.161
307.972
311.562
314.725
317.658
320.231
322.75
325.021
327.158
329.082
330.898
332.553
334.055
335.464
336.683
337.844
338.823
339.778
340.554
341.33
341.942
342.539
343.036
343.521
343.93
344.367
344.715
345.117
345.434
345.744
345.955
345.943
345.795
345.248
344.614
343.61
342.5
341.063
339.388
337.249
334.944
332.513
330.204
329.062
331.586
338.825
347.89
347.146
323.267
283.595
257.971
267.17
274.255
266.458
265.478
246.184
205.812
163.052
147.439
190.076
277.988
392.771
492.24
558.84
590.766
606.226
611.329
611.354
608.745
607.941
609.226
609.491
598.883
580.639
567.083
572.567
587.789
598.045
604.56
608.092
609.686
610.294
609.748
609.228
609.545
611.382
615.917
622.644
630.93
640.52
647.61
656.231
659.053
664.725
663.655
91.1995
32.5172
5.02184
12.5865
38.2386
67.7648
95.3339
119.832
141.399
160.446
177.339
192.458
206.064
218.358
229.542
239.697
248.978
257.436
265.16
272.224
278.659
284.61
290.02
295.007
299.604
303.778
307.66
311.236
314.419
317.396
320.033
322.585
324.868
327.022
328.96
330.788
332.453
333.964
335.38
336.607
337.775
338.759
339.721
340.503
341.284
341.901
342.502
343.003
343.492
343.902
344.339
344.689
345.092
345.409
345.719
345.933
345.925
345.79
345.255
344.63
343.633
342.532
341.102
339.365
337.307
335.025
332.609
330.299
329.092
331.479
338.579
347.6
347.25
323.871
284.308
258.273
267.051
274.219
266.516
265.662
246.761
206.715
163.772
147.297
189.073
276.359
391.145
490.934
558.027
590.355
606.036
611.272
611.368
608.766
607.933
609.204
609.553
599.057
580.853
567.152
572.461
587.648
597.949
604.503
608.062
609.674
610.294
609.754
609.231
609.534
611.355
615.87
622.584
630.859
640.448
647.548
656.182
659.018
664.702
663.657
102.303
65.7452
38.3094
34.0317
48.4014
71.2501
95.6886
118.83
139.847
158.698
175.589
190.772
204.48
216.888
228.191
238.467
247.863
256.409
264.216
271.404
277.917
283.943
289.433
294.479
299.124
303.345
307.271
310.832
314.087
317.129
319.81
322.372
324.671
326.84
328.797
330.64
332.319
333.842
335.269
336.507
337.685
338.677
339.647
340.436
341.224
341.849
342.456
342.963
343.455
343.869
344.307
344.658
345.06
345.379
345.691
345.91
345.909
345.785
345.263
344.65
343.665
342.575
341.154
339.377
337.395
335.13
332.723
330.402
329.115
331.333
338.251
347.292
347.376
324.746
285.33
258.594
266.891
274.192
266.598
265.944
247.671
207.95
164.637
147.048
187.408
273.615
388.315
488.807
556.784
589.75
605.77
611.198
611.389
608.803
607.921
609.179
609.656
599.388
581.202
567.239
572.238
587.374
597.774
604.4
608.01
609.652
610.294
609.764
609.234
609.515
611.294
615.755
622.434
630.686
640.29
647.402
656.076
658.942
664.659
663.66
112.269
91.6269
69.5419
58.808
63.0806
78.1649
98.1468
119.047
139.021
157.425
174.155
189.311
203.062
215.542
226.932
237.298
246.781
255.423
263.324
270.563
277.158
283.265
288.82
293.916
298.626
302.912
306.882
310.481
313.76
316.818
319.623
322.17
324.465
326.654
328.629
330.487
332.181
333.717
335.155
336.404
337.591
338.593
339.57
340.369
341.163
341.796
342.409
342.922
343.418
343.835
344.274
344.627
345.028
345.349
345.662
345.886
345.893
345.782
345.273
344.672
343.701
342.62
341.208
339.433
337.486
335.238
332.843
330.508
329.13
331.172
337.907
346.946
347.49
325.577
286.263
258.879
266.723
274.174
266.685
266.22
248.534
209.143
165.424
146.648
185.757
271.208
385.767
486.84
555.609
589.171
605.51
611.125
611.411
608.835
607.909
609.154
609.754
599.671
581.515
567.316
572.053
587.148
597.626
604.313
607.965
609.634
610.294
609.773
609.237
609.498
611.246
615.679
622.329
630.564
640.171
647.297
655.995
658.884
664.624
663.663
123.418
111.99
95.5514
83.0913
80.9498
88.9096
103.406
120.943
139.146
156.703
173.051
188.063
201.789
214.301
225.747
236.183
245.739
254.463
262.438
269.749
276.422
282.575
288.2
293.35
298.112
302.449
306.447
310.108
313.439
316.526
319.349
321.94
324.28
326.451
328.454
330.328
332.035
333.585
335.035
336.296
337.493
338.505
339.49
340.299
341.098
341.741
342.359
342.879
343.378
343.8
344.239
344.595
344.994
345.317
345.631
345.861
345.877
345.778
345.284
344.696
343.741
342.669
341.273
339.517
337.584
335.352
332.967
330.614
329.134
330.984
337.52
346.547
347.562
326.448
287.218
259.103
266.536
274.164
266.78
266.572
249.476
210.353
166.095
146.029
183.738
268.196
382.739
484.578
554.291
588.53
605.228
611.048
611.435
608.873
607.896
609.128
609.87
600.009
581.862
567.385
571.82
586.87
597.451
604.212
607.913
609.613
610.295
609.784
609.239
609.476
611.184
615.563
622.18
630.393
640.014
647.153
655.891
658.81
664.582
663.666
134.192
127.415
115.691
104.672
99.8194
102.546
111.634
125.012
140.577
156.681
172.315
187.016
200.629
213.131
224.612
235.108
244.729
253.526
261.571
268.949
275.691
281.904
287.588
292.785
297.601
301.986
306.017
309.725
313.092
316.222
319.087
321.68
324.04
326.287
328.274
330.162
331.884
333.447
334.91
336.183
337.39
338.413
339.404
340.226
341.03
341.683
342.306
342.833
343.336
343.763
344.202
344.562
344.957
345.284
345.599
345.835
345.861
345.775
345.297
344.722
343.785
342.722
341.346
339.606
337.686
335.473
333.096
330.719
329.121
330.762
337.077
346.066
347.555
327.31
288.138
259.234
266.326
274.167
266.88
266.91
250.452
211.504
166.571
145.118
181.436
265.017
379.504
482.154
552.876
587.842
604.925
610.966
611.462
608.912
607.881
609.102
609.99
600.354
582.213
567.443
571.559
586.587
597.275
604.11
607.862
609.593
610.297
609.796
609.242
609.453
611.121
615.46
622.041
630.234
639.861
647.018
655.789
658.739
664.54
663.669
144.008
139.759
131.627
123.022
117.717
117.39
122.231
131.476
143.794
157.745
172.152
186.236
199.582
212.005
223.494
234.043
243.729
252.6
260.719
268.166
274.977
281.245
286.988
292.238
297.094
301.526
305.595
309.341
312.747
315.907
318.789
321.433
323.82
326.048
328.113
330.004
331.726
333.306
334.78
336.066
337.282
338.317
339.314
340.149
340.958
341.621
342.25
342.785
343.291
343.724
344.163
344.526
344.919
345.249
345.565
345.808
345.845
345.773
345.31
344.751
343.832
342.781
341.423
339.703
337.795
335.599
333.228
330.819
329.084
330.496
336.561
345.466
347.43
328.147
289.02
259.233
266.085
274.186
266.986
267.282
251.448
212.526
166.763
143.84
178.731
261.363
375.88
479.468
551.32
587.087
604.592
610.876
611.49
608.954
607.866
609.075
610.137
600.727
582.575
567.484
571.281
586.273
597.084
604.001
607.807
609.572
610.299
609.808
609.244
609.427
611.049
615.334
621.878
630.048
639.688
646.863
655.674
658.658
664.496
663.672
153.215
150.633
144.937
138.393
133.613
131.981
134.086
139.925
148.969
160.306
172.92
185.929
198.719
210.912
222.344
232.931
242.686
251.641
259.849
267.377
274.263
280.592
286.397
291.7
296.599
301.077
305.177
308.96
312.405
315.59
318.497
321.167
323.591
325.863
327.881
329.826
331.584
333.154
334.647
335.945
337.17
338.218
339.221
340.07
340.883
341.558
342.191
342.735
343.244
343.683
344.121
344.489
344.877
345.211
345.529
345.779
345.828
345.77
345.325
344.781
343.881
342.844
341.505
339.805
337.909
335.731
333.363
330.911
329.018
330.174
335.956
344.712
347.162
328.94
289.835
259.055
265.801
274.229
267.095
267.672
252.433
213.329
166.576
142.099
175.601
257.311
371.868
476.501
549.602
586.249
604.223
610.774
611.518
608.998
607.849
609.047
610.255
601.119
582.943
567.505
570.977
585.936
596.882
603.887
607.75
609.551
610.302
609.822
609.246
609.398
610.971
615.207
621.708
629.857
639.506
646.703
655.554
658.575
664.45
663.674
162.001
160.559
156.393
151.336
147.387
145.495
146.109
149.531
155.783
164.487
174.955
186.429
198.26
209.941
221.158
231.714
241.525
250.575
258.895
266.528
273.51
279.918
285.796
291.163
296.106
300.632
304.772
308.586
312.069
315.278
318.211
320.904
323.356
325.644
327.713
329.628
331.397
333.036
334.51
335.821
337.055
338.116
339.124
339.988
340.806
341.493
342.131
342.684
343.196
343.641
344.077
344.45
344.833
345.171
345.49
345.748
345.812
345.767
345.342
344.813
343.933
342.911
341.592
339.916
338.034
335.868
333.499
330.991
328.913
329.783
335.243
343.782
346.721
329.68
290.733
258.656
265.459
274.304
267.208
268.078
253.369
213.808
165.924
139.858
171.981
252.742
367.388
473.197
547.688
585.312
603.806
610.656
611.545
609.046
607.833
609.017
610.4
601.531
583.313
567.502
570.591
585.567
596.666
603.766
607.69
609.529
610.306
609.836
609.248
609.369
610.888
615.065
621.521
629.646
639.306
646.527
655.421
658.484
664.401
663.676
170.31
169.634
166.489
162.519
159.38
157.663
157.59
159.494
163.652
170.052
178.349
188.024
198.527
209.337
220.063
230.415
240.203
249.331
257.774
265.543
272.654
279.174
285.151
290.599
295.605
300.185
304.373
308.222
311.742
314.973
317.933
320.649
323.124
325.432
327.515
329.463
331.233
332.841
334.393
335.702
336.935
338.013
339.025
339.903
340.727
341.426
342.07
342.631
343.147
343.598
344.031
344.409
344.785
345.126
345.447
345.714
345.793
345.765
345.362
344.848
343.989
342.984
341.687
340.035
338.167
336.014
333.634
331.055
328.762
329.305
334.402
342.634
346.121
330.383
291.231
257.987
265.033
274.422
267.323
268.493
254.203
213.842
164.737
137.094
167.838
247.621
362.381
469.504
545.543
584.253
603.33
610.515
611.568
609.093
607.816
608.984
610.546
601.962
583.683
567.471
570.157
585.166
596.435
603.639
607.628
609.507
610.311
609.853
609.25
609.331
610.796
614.914
621.319
629.422
639.09
646.339
655.278
658.386
664.349
663.675
178.148
178.001
175.63
172.473
169.978
168.541
168.227
169.268
171.992
176.574
182.933
190.792
199.759
209.399
219.323
229.204
238.786
247.891
256.421
264.334
271.61
278.284
284.397
289.962
295.059
299.716
303.964
307.857
311.419
314.675
317.663
320.405
322.901
325.225
327.327
329.287
331.079
332.712
334.205
335.57
336.825
337.904
338.925
339.816
340.645
341.357
342.007
342.577
343.096
343.553
343.982
344.365
344.734
345.078
345.399
345.676
345.773
345.761
345.383
344.884
344.053
343.064
341.794
340.165
338.311
336.167
333.767
331.098
328.553
328.722
333.413
341.238
345.367
331.064
292.984
257.026
264.491
274.594
267.446
268.899
254.882
213.315
162.952
133.751
163.12
241.861
356.766
465.357
543.127
583.049
602.779
610.343
611.584
609.146
607.8
608.947
610.734
602.409
584.05
567.411
569.697
584.726
596.188
603.503
607.563
609.485
610.317
609.869
609.252
609.295
610.697
614.749
621.1
629.178
638.854
646.134
655.121
658.28
664.293
663.672
185.575
185.812
184.045
181.495
179.476
178.316
177.975
178.562
180.36
183.611
188.39
194.599
202.011
210.324
219.206
228.346
237.474
246.362
254.852
262.852
270.29
277.148
283.442
289.172
294.401
299.174
303.512
307.468
311.087
314.381
317.401
320.169
322.687
325.028
327.145
329.118
330.922
332.562
334.09
335.421
336.682
337.818
338.822
339.726
340.561
341.286
341.943
342.521
343.044
343.507
343.932
344.318
344.68
345.024
345.347
345.634
345.748
345.756
345.407
344.924
344.125
343.151
341.912
340.314
338.466
336.329
333.898
331.115
328.274
328.013
332.247
339.565
344.439
331.718
293.521
255.778
263.784
274.83
267.57
269.289
255.317
212.131
160.513
129.78
157.77
235.38
350.45
460.679
540.388
581.674
602.139
610.13
611.587
609.197
607.783
608.905
610.914
602.868
584.413
567.319
569.17
584.246
595.92
603.359
607.493
609.461
610.323
609.892
609.253
609.254
610.59
614.572
620.861
628.914
638.597
645.913
654.948
658.164
664.231
663.665
192.646
193.165
191.846
189.758
188.106
187.189
186.901
187.263
188.487
190.812
194.38
199.2
205.184
212.155
219.873
228.074
236.516
244.962
253.219
261.159
268.673
275.688
282.178
288.122
293.54
298.477
302.953
307.01
310.713
314.07
317.134
319.937
322.48
324.84
326.975
328.957
330.774
332.42
333.951
335.309
336.558
337.667
338.735
339.641
340.475
341.216
341.879
342.465
342.993
343.461
343.88
344.268
344.622
344.966
345.289
345.585
345.718
345.749
345.432
344.967
344.202
343.252
342.046
340.466
338.644
336.502
334.028
331.102
327.914
327.151
330.867
337.584
343.278
332.314
294.629
254.286
262.847
275.142
267.705
269.647
255.428
210.214
157.368
125.139
151.707
228.081
343.325
455.378
537.268
580.096
601.39
609.863
611.571
609.247
607.765
608.853
611.094
603.334
584.77
567.196
568.595
583.717
595.63
603.205
607.42
609.436
610.331
609.911
609.259
609.21
610.473
614.38
620.601
628.628
638.314
645.671
654.757
658.036
664.16
663.652
199.393
200.103
199.128
197.412
196.053
195.33
195.113
195.369
196.243
197.941
200.616
204.336
209.096
214.819
221.361
228.527
236.12
243.929
251.754
259.445
266.875
273.937
280.568
286.72
292.366
297.521
302.193
306.409
310.24
313.696
316.833
319.689
322.271
324.657
326.816
328.807
330.636
332.287
333.822
335.192
336.449
337.578
338.59
339.545
340.399
341.138
341.814
342.411
342.942
343.415
343.827
344.216
344.561
344.901
345.224
345.53
345.681
345.737
345.456
345.013
344.286
343.36
342.191
340.65
338.841
336.693
334.159
331.058
327.461
326.098
329.227
335.254
341.746
332.8
295.638
252.648
261.598
275.491
267.89
269.953
255.125
207.503
153.461
119.789
144.838
219.865
335.268
449.347
533.694
578.28
600.513
609.528
611.528
609.285
607.742
608.789
611.266
603.804
585.126
567.037
567.954
583.145
595.313
603.039
607.341
609.41
610.339
609.935
609.262
609.163
610.348
614.172
620.318
628.316
638.003
645.407
654.544
657.895
664.077
663.632
205.846
206.67
205.981
204.568
203.442
202.87
202.722
202.931
203.589
204.865
206.898
209.778
213.541
218.175
223.614
229.74
236.407
243.444
250.674
257.94
265.107
272.056
278.701
284.975
290.817
296.201
301.114
305.555
309.577
313.189
316.441
319.388
322.035
324.463
326.657
328.664
330.505
332.168
333.705
335.083
336.342
337.478
338.514
339.44
340.298
341.095
341.758
342.351
342.891
343.37
343.774
344.161
344.497
344.83
345.152
345.466
345.636
345.721
345.48
345.064
344.379
343.483
342.356
340.856
339.065
336.906
334.296
330.98
326.903
324.856
327.283
332.526
339.676
333.092
296.542
251.134
259.935
275.977
268.056
270.177
254.321
203.974
148.725
113.683
137.049
210.627
326.14
442.461
529.582
576.187
599.484
609.106
611.447
609.322
607.713
608.705
611.419
604.268
585.48
566.851
567.263
582.51
594.968
602.86
607.256
609.381
610.348
609.96
609.267
609.112
610.212
613.945
620.007
627.974
637.659
645.117
654.306
657.736
663.981
663.602
212.039
212.935
212.462
211.293
210.354
209.904
209.821
210.01
210.53
211.519
213.095
215.347
218.325
222.052
226.519
231.667
237.406
243.606
250.13
256.835
263.585
270.26
276.765
283.022
288.951
294.503
299.641
304.333
308.603
312.441
315.874
318.964
321.722
324.223
326.475
328.515
330.377
332.056
333.598
334.987
336.244
337.386
338.424
339.366
340.216
340.967
341.69
342.319
342.852
343.327
343.719
344.105
344.43
344.753
345.071
345.393
345.582
345.697
345.503
345.119
344.481
343.623
342.546
341.095
339.328
337.154
334.447
330.87
326.228
323.397
324.964
329.337
336.874
333.095
297.32
250.08
257.743
276.231
268.236
270.276
252.939
199.632
143.098
106.762
128.224
200.264
315.794
434.574
524.836
573.764
598.276
608.575
611.314
609.336
607.674
608.594
611.54
604.719
585.837
566.643
566.504
581.82
594.59
602.665
607.163
609.35
610.358
609.989
609.274
609.058
610.064
613.697
619.667
627.6
637.278
644.798
654.038
657.559
663.866
663.561
217.994
218.935
218.621
217.65
216.86
216.509
216.477
216.659
217.091
217.88
219.13
220.915
223.286
226.282
229.93
234.206
239.069
244.433
250.199
256.255
262.475
268.746
274.968
281.06
286.939
292.542
297.82
302.718
307.227
311.326
315.007
318.313
321.249
323.877
326.224
328.327
330.232
331.942
333.497
334.897
336.161
337.308
338.342
339.291
340.149
340.929
341.623
342.23
342.794
343.289
343.676
344.046
344.362
344.672
344.983
345.309
345.518
345.666
345.525
345.18
344.598
343.786
342.768
341.376
339.641
337.449
334.625
330.736
325.428
321.694
322.235
325.613
333.135
332.682
297.72
250.158
254.935
276.684
268.406
270.198
250.917
194.494
136.526
98.9527
118.243
188.663
304.073
425.525
519.345
570.952
596.858
607.908
611.114
609.328
607.617
608.446
611.612
605.145
586.201
566.42
565.701
581.06
594.174
602.452
607.061
609.317
610.37
610.021
609.283
608.999
609.903
613.426
619.294
627.187
636.855
644.446
653.738
657.36
663.729
663.508
223.733
224.687
224.502
223.693
223.027
222.751
222.755
222.935
223.306
223.954
224.964
226.401
228.309
230.729
233.705
237.233
241.306
245.881
250.893
256.258
261.88
267.652
273.483
279.284
284.979
290.503
295.8
300.805
305.484
309.807
313.742
317.306
320.488
323.321
325.829
328.047
330.03
331.798
333.385
334.807
336.084
337.235
338.277
339.226
340.083
340.864
341.58
342.204
342.752
343.237
343.617
343.998
344.294
344.589
344.887
345.215
345.443
345.625
345.547
345.249
344.733
343.977
343.031
341.712
340.018
337.809
334.846
330.589
324.502
319.716
319.097
321.272
328.273
331.456
297.366
250.426
251.33
276.867
268.561
269.88
248.212
188.606
128.986
90.1688
106.991
175.701
290.818
415.13
512.98
567.668
595.187
607.074
610.828
609.282
607.535
608.251
611.617
605.535
586.579
566.197
564.848
580.237
593.718
602.22
606.949
609.28
610.382
610.057
609.296
608.936
609.728
613.127
618.882
626.731
636.384
644.056
653.4
657.135
663.567
663.438
229.281
230.221
230.131
229.454
228.893
228.677
228.709
228.888
229.217
229.76
230.59
231.764
233.319
235.289
237.719
240.625
244.013
247.874
252.175
256.852
261.846
267.061
272.423
277.847
283.249
288.574
293.764
298.757
303.505
307.965
312.097
315.894
319.333
322.419
325.164
327.578
329.703
331.574
333.226
334.692
336
337.168
338.216
339.172
340.034
340.81
341.532
342.162
342.718
343.214
343.583
343.926
344.234
344.505
344.785
345.11
345.355
345.572
345.564
345.328
344.889
344.204
343.342
342.114
340.475
338.257
335.138
330.452
323.458
317.433
315.48
316.242
322.195
328.956
295.293
252.154
246.806
276.863
268.686
269.261
244.816
182
120.476
80.3121
94.3615
161.237
275.865
403.189
505.585
563.812
593.212
606.039
610.426
609.187
607.416
607.997
611.531
605.875
586.979
565.997
563.969
579.348
593.215
601.965
606.825
609.239
610.396
610.098
609.309
608.867
609.536
612.799
618.429
626.227
635.86
643.623
653.02
656.883
663.376
663.351
234.63
235.541
235.531
234.966
234.492
234.323
234.378
234.558
234.854
235.318
236.014
236.986
238.267
239.885
241.877
244.272
247.084
250.32
253.974
258
262.367
267.003
271.85
276.833
281.874
286.907
291.886
296.753
301.459
305.957
310.194
314.151
317.797
321.115
324.112
326.777
329.125
331.181
332.965
334.512
335.876
337.084
338.153
339.12
339.989
340.77
341.499
342.134
342.69
343.189
343.558
343.891
344.164
344.429
344.68
344.996
345.254
345.504
345.574
345.415
345.069
344.474
343.71
342.595
341.031
338.817
335.531
330.359
322.321
314.829
311.389
310.471
314.935
324.951
290.99
250.754
241.462
276.45
268.783
268.285
240.761
174.771
111.064
69.2987
80.2609
145.12
259.053
389.485
496.978
559.267
590.87
604.769
609.87
609.027
607.249
607.672
611.331
606.154
587.411
565.847
563.082
578.399
592.662
601.683
606.685
609.194
610.412
610.143
609.329
608.793
609.326
612.438
617.928
625.67
635.275
643.142
652.59
656.597
663.152
663.243
239.798
240.688
240.731
240.258
239.853
239.723
239.797
239.975
240.244
240.649
241.241
242.055
243.121
244.462
246.104
248.084
250.419
253.123
256.203
259.637
263.408
267.472
271.785
276.291
280.919
285.605
290.298
294.949
299.512
303.944
308.188
312.212
315.986
319.478
322.682
325.584
328.175
330.469
332.471
334.188
335.667
336.948
338.057
339.052
339.945
340.733
341.466
342.119
342.673
343.173
343.546
343.86
344.122
344.354
344.58
344.876
345.14
345.419
345.573
345.505
345.269
344.788
344.145
343.167
341.707
339.521
336.067
330.359
321.14
311.911
307.001
303.941
306.586
319.472
286.258
248.998
236.134
275.484
268.968
266.908
236.136
166.983
100.84
57.0597
64.6312
127.208
240.226
373.795
486.949
553.901
588.087
603.229
609.105
608.787
607.024
607.266
611.002
606.355
587.885
565.787
562.222
577.402
592.053
601.369
606.529
609.141
610.428
610.195
609.349
608.708
609.097
612.041
617.375
625.052
634.624
642.605
652.104
656.275
662.889
663.11
244.791
245.627
245.713
245.326
244.984
244.889
244.979
245.157
245.406
245.764
246.276
246.967
247.862
248.983
250.349
251.993
253.935
256.193
258.778
261.687
264.914
268.437
272.226
276.238
280.422
284.719
289.082
293.455
297.796
302.071
306.23
310.23
314.045
317.634
320.978
324.062
326.862
329.38
331.618
333.564
335.246
336.69
337.9
338.942
339.87
340.683
341.432
342.104
342.665
343.169
343.545
343.844
344.093
344.302
344.488
344.757
345.018
345.317
345.554
345.599
345.485
345.144
344.65
343.842
342.52
340.4
336.796
330.515
319.991
308.718
301.779
296.734
297.245
312.662
283.611
247.037
232.838
273.836
269.286
265.222
231.113
158.863
90.0323
43.6207
47.4692
107.391
219.251
355.897
475.266
547.563
584.755
601.376
608.065
608.452
606.729
606.767
610.533
606.461
588.415
565.867
561.439
576.374
591.383
601.015
606.349
609.081
610.446
610.246
609.378
608.622
608.847
611.604
616.764
624.368
633.897
642.005
651.555
655.911
662.582
662.949
249.615
250.433
250.544
250.219
249.925
249.855
249.954
250.13
250.362
250.682
251.128
251.721
252.48
253.425
254.571
255.945
257.566
259.453
261.621
264.076
266.821
269.848
273.139
276.666
280.393
284.276
288.272
292.333
296.402
300.452
304.446
308.343
312.114
315.722
319.132
322.328
325.281
327.977
330.418
332.584
334.483
336.141
337.548
338.734
339.752
340.604
341.367
342.069
342.655
343.166
343.56
343.853
344.078
344.272
344.417
344.646
344.895
345.201
345.512
345.685
345.722
345.547
345.225
344.618
343.483
341.483
337.772
330.909
318.992
305.415
296.181
288.493
287.099
304.694
282.668
245.293
232.281
271.627
269.867
263.405
225.963
150.569
78.8489
29.0411
28.8637
85.6229
196.029
335.581
461.663
540.057
580.712
599.145
606.68
607.993
606.349
606.17
609.913
606.462
589.012
566.155
560.772
575.348
590.652
600.61
606.137
609
610.46
610.318
609.405
608.534
608.576
611.126
616.091
623.609
633.086
641.335
650.934
655.498
662.225
662.753
254.279
255.048
255.192
254.928
254.684
254.638
254.741
254.914
255.132
255.419
255.81
256.324
256.975
257.778
258.747
259.902
261.261
262.843
264.663
266.732
269.059
271.642
274.476
277.543
280.823
284.284
287.891
291.606
295.377
299.162
302.936
306.663
310.317
313.868
317.273
320.509
323.55
326.369
328.963
331.31
333.4
335.256
336.87
338.25
339.45
340.451
341.283
342.009
342.612
343.139
343.568
343.872
344.09
344.262
344.382
344.553
344.784
345.081
345.448
345.749
345.957
345.981
345.872
345.493
344.601
342.788
339.064
331.622
318.287
302.226
290.435
280.865
276.483
295.6
282.144
241.179
232.676
268.674
270.904
261.666
221.043
142.553
67.7477
13.6282
9.01041
61.9519
170.518
312.667
445.855
531.123
575.751
596.447
604.893
607.364
605.87
605.471
609.131
606.356
589.685
566.733
560.444
574.386
589.852
600.137
605.876
608.897
610.463
610.375
609.445
608.465
608.285
610.604
615.349
622.768
632.18
640.584
650.229
655.03
661.813
662.519
258.803
259.5
259.671
259.463
259.267
259.242
259.351
259.52
259.727
259.988
260.334
260.783
261.346
262.035
262.859
263.836
264.982
266.313
267.845
269.59
271.559
273.755
276.18
278.826
281.683
284.731
287.945
291.294
294.738
298.237
301.759
305.27
308.75
312.177
315.512
318.722
321.786
324.67
327.358
329.837
332.08
334.102
335.897
337.46
338.838
340.024
341.024
341.885
342.57
343.103
343.533
343.868
344.102
344.275
344.377
344.503
344.685
344.974
345.372
345.78
346.17
346.416
346.555
346.465
345.855
344.315
340.703
332.788
318.068
299.287
284.454
271.613
265.566
285.772
282.525
234.709
232.008
265.101
272.633
260.527
216.884
135.12
57.0493
-2.34721
-11.7892
36.5645
142.77
287.036
427.574
520.479
569.686
593.182
602.681
606.476
605.274
604.674
608.174
606.149
590.44
567.692
560.64
573.562
589.003
599.579
605.549
608.748
610.462
610.437
609.481
608.358
607.973
610.035
614.533
621.836
631.168
639.742
649.43
654.498
661.34
662.239
263.192
263.849
264.026
263.862
263.703
263.693
263.804
263.969
264.165
264.404
264.713
265.108
265.599
266.194
266.9
267.731
268.703
269.829
271.124
272.598
274.264
276.127
278.194
280.464
282.934
285.591
288.42
291.399
294.499
297.689
300.939
304.214
307.482
310.733
313.94
317.066
320.091
322.983
325.712
328.266
330.617
332.764
334.709
336.433
337.965
339.317
340.475
341.487
342.339
343.014
343.52
343.866
344.081
344.257
344.383
344.493
344.644
344.869
345.284
345.795
346.343
346.817
347.222
347.466
347.218
346.037
342.698
334.526
318.485
297.087
279.162
263.336
254.752
276.431
283.607
233.108
235.401
262.562
275.625
260.517
214.057
128.986
47.4606
-18.0935
-33.094
9.80242
112.982
258.681
406.626
507.905
562.414
589.26
600.041
605.199
604.549
603.789
607.022
605.846
591.274
569.163
561.303
572.976
588.142
598.919
605.129
608.518
610.395
610.482
609.524
608.263
607.642
609.42
613.639
620.803
630.037
638.795
648.524
653.892
660.796
661.912
267.466
268.079
268.259
268.131
268
268.003
268.114
268.275
268.461
268.681
268.959
269.309
269.74
270.257
270.866
271.579
272.409
273.368
274.467
275.716
277.127
278.708
280.466
282.404
284.524
286.822
289.287
291.907
294.663
297.531
300.487
303.504
306.548
309.596
312.629
315.62
318.551
321.395
324.114
326.692
329.105
331.335
333.386
335.241
336.907
338.401
339.706
340.845
341.833
342.648
343.303
343.805
344.11
344.277
344.36
344.451
344.618
344.86
345.226
345.747
346.447
347.152
347.858
348.461
348.621
347.887
344.991
336.92
319.874
295.812
274.501
255.736
245.01
268.118
284.041
242.781
245.103
268.594
280.958
262.797
213.428
124.621
39.3807
-33.1721
-53.9
-17.7147
81.5522
227.768
382.925
493.261
553.869
584.578
596.95
603.44
603.679
602.815
605.584
605.431
592.169
571.143
562.416
572.748
587.331
598.152
604.591
608.245
610.306
610.5
609.563
608.166
607.294
608.758
612.662
619.662
628.774
637.731
647.494
653.205
660.17
661.533
271.644
272.227
272.403
272.299
272.187
272.196
272.305
272.46
272.634
272.837
273.088
273.4
273.78
274.232
274.762
275.378
276.091
276.911
277.846
278.907
280.103
281.445
282.939
284.59
286.403
288.377
290.509
292.792
295.216
297.764
300.418
303.157
305.955
308.787
311.628
314.45
317.241
319.983
322.642
325.195
327.623
329.897
332.014
333.963
335.736
337.347
338.783
340.042
341.148
342.081
342.846
343.471
343.931
344.243
344.421
344.513
344.582
344.772
345.194
345.796
346.523
347.366
348.284
349.252
349.992
349.758
347.465
339.777
322.398
296.062
271.527
249.976
237.08
261.078
283.232
253.968
256.272
282.934
289.724
268.616
215.786
122.875
33.7337
-46.3336
-73.3866
-45.1012
49.143
194.689
356.545
476.43
543.893
578.964
593.315
601.079
602.609
601.713
603.946
604.85
593.076
573.579
564.243
572.946
586.635
597.292
603.921
607.738
610.121
610.467
609.592
608.063
606.924
608.053
611.601
618.404
627.366
636.533
646.328
652.419
659.45
661.094
275.724
276.244
276.422
276.341
276.25
276.268
276.378
276.527
276.691
276.878
277.106
277.386
277.724
278.122
278.585
279.12
279.736
280.44
281.239
282.143
283.16
284.3
285.57
286.975
288.52
290.21
292.043
294.018
296.131
298.372
300.727
303.181
305.717
308.312
310.946
313.589
316.215
318.815
321.368
323.85
326.244
328.522
330.668
332.673
334.523
336.222
337.763
339.134
340.349
341.397
342.27
342.993
343.561
343.986
344.296
344.527
344.718
344.923
345.169
345.648
346.485
347.522
348.712
349.947
351.019
351.458
349.931
343.125
326.101
297.993
270.223
246.391
231.517
255.359
282.482
263.689
262.141
296.787
302.78
279.246
222.248
124.426
31.0034
-57.1913
-90.8583
-71.1497
16.6737
160.103
327.691
457.366
532.211
572.179
588.976
598.146
601.193
600.454
602.189
603.973
593.936
576.38
566.762
573.658
586.114
596.376
603.125
607.182
609.818
610.361
609.6
607.962
606.581
607.308
610.455
617.023
625.799
635.183
645.01
651.518
658.619
660.586
279.688
280.191
280.371
280.31
280.236
280.258
280.361
280.5
280.651
280.822
281.027
281.278
281.578
281.929
282.335
282.801
283.334
283.94
284.626
285.399
286.268
287.24
288.321
289.516
290.832
292.274
293.845
295.545
297.374
299.329
301.398
303.572
305.841
308.187
310.592
313.035
315.49
317.934
320.351
322.724
325.04
327.278
329.416
331.439
333.335
335.096
336.714
338.177
339.488
340.642
341.629
342.459
343.137
343.669
344.074
344.395
344.674
344.99
345.409
345.937
346.535
347.322
348.562
350.274
351.979
352.886
352.068
346.258
330.522
302.319
271.834
245.871
228.184
249.971
281.152
272.877
265.775
314.276
321.786
295.2
233.384
130.852
32.4136
-63.9582
-104.87