/*--------------------------------*- C++ -*----------------------------------*\
| =========                 |                                                 |
| \\      /  F ield         | OpenFOAM: The Open Source CFD Toolbox           |
|  \\    /   O peration     | Version:  2412                                  |
|   \\  /    A nd           | Website:  www.openfoam.com                      |
|    \\/     M anipulation  |                                                 |
\*---------------------------------------------------------------------------*/
FoamFile
{
    version     2.0;
    format      ascii;
    arch        "LSB;label=32;scalar=64";
    class       volVectorField;
    location    "0.03";
    object      ddt0(U);
}
// * * * * * * * * * * * * * * * * * * * * * * * * * * * * * * * * * * * * * //

dimensions      [0 1 -2 0 0 0 0];

internalField   nonuniform List<vector> 
12600
(
(16.0161 -4.41218e-21 -0.960052)
(15.5282 6.60631e-20 -1.59638)
(13.7116 2.13127e-19 -1.51947)
(11.5171 0 -1.67403)
(9.32015 2.38973e-19 -1.87663)
(7.78391 8.00242e-20 -1.95111)
(7.34327 0 -1.83534)
(7.75124 0 -1.60156)
(8.38323 9.6902e-19 -1.3769)
(8.69766 0 -1.2397)
(8.53747 6.82123e-21 -1.20426)
(8.07067 2.52514e-19 -1.2182)
(7.57495 -4.21072e-19 -1.21688)
(7.21515 0 -1.18509)
(6.95633 -6.23076e-19 -1.13934)
(6.69725 0 -1.10776)
(6.40569 2.83515e-18 -1.10555)
(6.1432 0 -1.1199)
(6.02391 -1.30412e-18 -1.12503)
(6.14027 -1.26221e-18 -1.11496)
(6.39526 1.38689e-18 -1.07337)
(6.60469 -7.57264e-21 -1.02786)
(6.65331 0 -1.01755)
(6.34205 -4.69997e-18 -1.00811)
(5.81098 0 -1.04235)
(5.21322 0 -1.08123)
(4.56157 -3.82558e-18 -1.09055)
(4.16223 0 -1.12496)
(3.90918 -1.65676e-20 -1.11824)
(3.93981 -3.94405e-19 -1.1207)
(4.3133 -1.4856e-18 -1.09568)
(4.87742 -2.17646e-18 -1.04914)
(5.57666 2.18297e-18 -0.996074)
(6.05795 3.122e-18 -0.945955)
(6.28316 1.46121e-18 -0.938687)
(6.13282 4.58603e-19 -0.937919)
(5.85054 0 -0.972174)
(5.50195 -2.33391e-18 -0.976842)
(5.24819 0 -1.00045)
(5.0808 2.01892e-18 -0.993262)
(5.00009 0 -1.00831)
(5.01798 -1.29497e-21 -0.999319)
(5.04212 0 -1.00372)
(5.18886 -3.14272e-21 -1.00911)
(5.27927 -4.14187e-19 -1.00541)
(5.36609 2.57338e-19 -0.999892)
(5.42593 -2.0541e-19 -0.995299)
(5.32154 0 -0.993511)
(5.36009 0 -1.00876)
(5.65555 2.03789e-18 -0.999114)
(5.77101 6.86493e-18 -1.00698)
(5.43148 9.91169e-18 -0.973189)
(5.29114 -1.91704e-21 -1.00568)
(5.54601 9.00431e-18 -1.01861)
(5.07411 0 -0.970658)
(5.10063 -5.71654e-18 -1.01066)
(5.59684 -8.38646e-18 -1.0007)
(4.76313 -1.0973e-17 -0.962199)
(4.97546 0 -1.02479)
(5.4504 0 -0.978117)
(4.32713 0 -0.976018)
(5.13449 -7.83522e-18 -1.00032)
(5.21899 0 -0.922171)
(4.19882 0 -0.978805)
(5.35382 1.46247e-17 -0.929748)
(4.58406 0 -0.910803)
(4.40129 0 -0.955944)
(5.08083 0 -0.85829)
(4.10949 -2.17019e-18 -0.917396)
(4.74536 2.31727e-17 -0.855737)
(4.26167 -1.18829e-17 -0.843906)
(4.19941 -5.04912e-20 -0.859174)
(4.35917 4.40488e-18 -0.777618)
(3.73551 0 -0.827806)
(4.25572 1.62968e-17 -0.734247)
(3.60106 0 -0.755238)
(3.79298 0 -0.717426)
(3.56633 0 -0.680178)
(3.34882 -5.65999e-20 -0.683043)
(3.3474 7.86065e-18 -0.617669)
(3.01741 5.05114e-17 -0.618328)
(3.07762 -2.00428e-17 -0.547179)
(2.65028 -3.4644e-17 -0.545184)
(2.69593 0 -0.479107)
(2.27649 0 -0.462563)
(2.2533 8.36598e-17 -0.402573)
(1.86683 -3.23605e-17 -0.367706)
(1.73754 1.86383e-16 -0.319056)
(1.44872 3.44112e-18 -0.262677)
(1.12769 0 -0.227569)
(0.915963 -1.77269e-17 -0.15298)
(0.587443 7.35775e-17 -0.111088)
(0.28666 -8.57677e-18 -0.0366686)
(-0.113424 1.27861e-16 0.0116131)
(-0.332683 0 0.0972363)
(-0.869566 0 0.152232)
(-1.1865 0 0.238102)
(-1.54797 0 0.30906)
(-1.98582 0 0.389666)
(-2.51135 0 0.471063)
(-2.84608 -6.42947e-17 0.575251)
(-3.508 -8.54932e-17 0.66765)
(-3.97636 -1.53853e-16 0.772099)
(-4.57404 0 0.890803)
(-5.14454 0 0.99659)
(-5.89838 0 1.13828)
(-6.42941 -1.42472e-16 1.24591)
(-7.2837 -1.23406e-16 1.41764)
(-7.9247 1.19691e-16 1.52389)
(-8.84225 0 1.71722)
(-9.59512 -2.05962e-16 1.8601)
(-10.5972 0 2.04215)
(-11.5215 -2.25637e-16 2.23297)
(-12.4384 8.01333e-17 2.40754)
(-13.6926 -2.01446e-16 2.64401)
(-14.9478 -9.36017e-17 2.88994)
(-16.3368 1.66161e-16 3.15288)
(-17.5108 -2.80685e-21 3.38358)
(-19.3314 1.51386e-16 3.71666)
(-23.9371 0 4.65061)
(38.6318 4.4795e-21 -2.47044)
(35.3789 0 -3.74707)
(32.8823 -2.16336e-19 -3.82132)
(29.3269 0 -4.40645)
(26.2103 -2.4257e-19 -4.88412)
(24.0327 -6.4054e-21 -4.98235)
(23.105 1.81875e-19 -4.68419)
(23.026 0 -4.19059)
(23.134 -1.78773e-20 -3.77477)
(22.9241 2.34964e-19 -3.55795)
(22.2969 4.52121e-20 -3.5185)
(21.4564 2.77669e-19 -3.54651)
(20.6652 -4.41136e-19 -3.52737)
(20.0501 5.56458e-19 -3.43983)
(19.5507 1.28261e-18 -3.33011)
(19.0586 0 -3.2596)
(18.5532 2.8221e-20 -3.25567)
(18.1098 1.41959e-18 -3.28722)
(17.8413 1.32342e-18 -3.30344)
(17.8349 0 -3.29569)
(17.9788 0 -3.23709)
(18.0699 1.68098e-18 -3.16327)
(18.0048 0 -3.15721)
(17.5834 2.3865e-18 -3.1453)
(16.9507 -4.92255e-18 -3.18963)
(16.2789 0 -3.24886)
(15.5598 3.84806e-18 -3.23187)
(15.1063 0 -3.26617)
(14.8088 -1.19298e-18 -3.2397)
(14.8006 8.20519e-19 -3.22069)
(15.1502 3.02579e-18 -3.17913)
(15.6929 2.20314e-18 -3.08862)
(16.3713 -2.20909e-18 -3.00368)
(16.8204 -6.26815e-18 -2.92142)
(17.0112 -2.91276e-18 -2.92107)
(16.8255 0 -2.93124)
(16.5185 0 -2.99454)
(16.1549 -8.98488e-21 -3.00793)
(15.8938 0 -3.04196)
(15.7255 -2.03829e-18 -3.03533)
(15.6492 0 -3.05577)
(15.6866 -1.81023e-18 -3.05128)
(15.7293 0 -3.05826)
(15.8939 5.45686e-20 -3.07534)
(16.0008 0 -3.06819)
(16.1106 -2.59086e-19 -3.06038)
(16.1421 0 -3.11414)
(16.039 0 -2.95149)
(16.0842 -1.50305e-18 -3.10478)
(16.4134 0 -3.05898)
(16.5217 0 -3.08364)
(16.1591 0 -3.00297)
(15.9714 -7.85954e-18 -3.05868)
(16.2005 -1.80079e-17 -3.10294)
(15.7073 0 -2.97437)
(15.682 0 -3.04793)
(16.1394 8.34149e-18 -3.06607)
(15.2596 1.09726e-17 -2.92128)
(15.3928 0 -3.05523)
(15.7955 0 -3.00322)
(14.5931 0 -2.88813)
(15.2897 0 -2.9992)
(15.2786 1.50966e-17 -2.84965)
(14.1474 1.31724e-19 -2.84879)
(15.1744 -1.46164e-17 -2.86215)
(14.2886 0 -2.74029)
(13.9516 0 -2.79577)
(14.4845 0 -2.67049)
(13.3473 -2.42715e-20 -2.66936)
(13.7893 -2.29511e-17 -2.60551)
(13.1132 1.17586e-17 -2.51944)
(12.8314 6.18677e-17 -2.52968)
(12.7526 4.3626e-20 -2.3733)
(11.8869 -2.02859e-17 -2.38806)
(12.1486 -1.60649e-17 -2.24979)
(11.2195 0 -2.20071)
(11.1533 0 -2.13554)
(10.6294 0 -2.01926)
(10.0992 5.87419e-17 -1.98397)
(9.77632 0 -1.83631)
(9.07441 0 -1.78003)
(8.77373 1.96161e-17 -1.62703)
(7.93538 3.38703e-17 -1.55196)
(7.56045 0 -1.40515)
(6.70166 0 -1.30078)
(6.20099 0 -1.15385)
(5.32248 3.14987e-17 -1.0145)
(4.65626 4.09481e-20 -0.875812)
(3.82945 3.2846e-18 -0.702211)
(2.91415 -8.38173e-17 -0.565124)
(2.08143 1.71229e-17 -0.360421)
(1.11949 7.12919e-17 -0.206569)
(0.120617 1.6558e-17 0.012385)
(-1.00187 0 0.189782)
(-1.96958 0 0.426742)
(-3.34766 0 0.637486)
(-4.50589 0 0.888322)
(-5.69093 7.72073e-17 1.11387)
(-7.03342 0 1.37123)
(-8.5596 0 1.64445)
(-9.93011 -6.16413e-17 1.94554)
(-11.7279 4.09575e-17 2.25894)
(-13.331 2.9449e-16 2.58116)
(-15.2335 -7.5213e-17 2.94904)
(-17.0193 0 3.28751)
(-19.3242 0 3.73045)
(-21.0681 0 4.06729)
(-23.798 5.8771e-17 4.60154)
(-25.6404 -1.13909e-16 4.93676)
(-28.7147 0 5.5448)
(-30.8958 3.91391e-16 5.9664)
(-34.0667 1.08413e-16 6.5563)
(-36.9919 4.28109e-16 7.14094)
(-39.7773 0 7.66439)
(-43.8441 0 8.45103)
(-47.1246 -8.85771e-17 9.09795)
(-51.8475 0 9.97272)
(-55.2855 -8.69212e-17 10.6743)
(-60.5678 -1.43018e-16 11.7019)
(-74.3267 0 14.3815)
(52.1739 0 -2.87646)
(48.8586 0 -3.9256)
(46.6356 -2.07087e-19 -4.93117)
(42.9541 0 -5.98779)
(39.9179 0 -6.59725)
(37.7927 6.61481e-20 -6.63966)
(36.7977 -1.7243e-19 -6.28415)
(36.4735 0 -5.81495)
(36.2316 -3.57448e-20 -5.49736)
(35.6822 -2.2273e-19 -5.40251)
(34.7894 -1.16737e-19 -5.4438)
(33.7627 -2.63268e-19 -5.49023)
(32.8308 -1.90058e-20 -5.45665)
(32.0776 -5.27552e-19 -5.3523)
(31.4239 -6.16318e-19 -5.24023)
(30.7714 7.07902e-19 -5.17779)
(30.1209 -1.39494e-18 -5.19013)
(29.5612 -1.34571e-18 -5.24055)
(29.1962 0 -5.27666)
(29.105 0 -5.29427)
(29.1687 1.34665e-18 -5.28198)
(29.1709 1.61196e-18 -5.24591)
(29.0233 0 -5.27364)
(28.5354 0 -5.28724)
(27.847 4.66517e-18 -5.30165)
(27.1401 0 -5.34132)
(26.3928 -7.26863e-18 -5.27568)
(25.9073 2.33262e-18 -5.2548)
(25.5838 0 -5.20821)
(25.5518 -3.98927e-19 -5.13876)
(25.8764 -1.44157e-18 -5.09981)
(26.3985 0 -5.00031)
(27.0454 2.05365e-18 -4.94197)
(27.4612 2.94574e-18 -4.88848)
(27.6206 5.40736e-20 -4.91504)
(27.412 0 -4.95349)
(27.0952 0 -5.0139)
(26.7255 2.24168e-18 -5.04264)
(26.4665 0 -5.05619)
(26.2972 0 -5.06418)
(26.2299 0 -5.06441)
(26.2784 0 -5.0809)
(26.3385 0 -5.0859)
(26.5153 0 -5.11774)
(26.6352 0 -5.11142)
(26.7435 2.37138e-19 -5.10947)
(26.7805 -2.11343e-19 -5.21936)
(26.7028 0 -4.86983)
(26.6973 1.42208e-18 -5.2115)
(27.0435 0 -5.09959)
(27.1427 0 -5.13583)
(26.7566 -9.49511e-18 -5.04218)
(26.5275 0 -5.07266)
(26.7256 8.49185e-18 -5.1402)
(26.202 -1.08494e-17 -4.97461)
(26.1228 0 -5.01895)
(26.529 -7.88461e-18 -5.09024)
(25.5954 0 -4.86358)
(25.6463 0 -4.97772)
(25.9563 0 -4.99017)
(24.6729 -1.26487e-17 -4.72531)
(25.2401 7.61015e-18 -4.88239)
(25.1086 -3.71751e-20 -4.76311)
(23.8709 -1.47204e-19 -4.5891)
(24.733 -1.05213e-19 -4.72748)
(23.721 0 -4.51362)
(23.2211 0 -4.48045)
(23.5643 5.51803e-18 -4.4519)
(22.2632 8.13531e-20 -4.28018)
(22.4728 0 -4.26441)
(21.5861 0 -4.10288)
(21.0659 -2.92098e-17 -4.04656)
(20.7088 -1.23142e-22 -3.8966)
(19.5927 1.88749e-20 -3.77329)
(19.5481 0 -3.67557)
(18.3301 0 -3.4972)
(17.9703 -5.51171e-17 -3.41224)
(17.116 -2.20417e-18 -3.23151)
(16.2486 0 -3.10677)
(15.5619 0 -2.92081)
(14.4622 0 -2.75454)
(13.7567 0 -2.56368)
(12.4797 0 -2.36421)
(11.6404 0 -2.16504)
(10.3107 0 -1.93926)
(9.28963 0 -1.71556)
(7.88277 -2.95689e-17 -1.45659)
(6.63951 -8.52302e-17 -1.21726)
(5.23313 -3.08709e-18 -0.932616)
(3.68682 7.8761e-17 -0.659481)
(2.18798 -1.60352e-17 -0.343536)
(0.554993 -6.69636e-17 -0.0480447)
(-1.18537 -7.76041e-18 0.306391)
(-3.06718 0 0.642496)
(-4.82979 0 1.01638)
(-7.08255 0 1.41533)
(-9.12463 0 1.82558)
(-11.1745 -7.24329e-17 2.21762)
(-13.4625 0 2.65954)
(-16.0217 0 3.145)
(-18.4646 5.77963e-17 3.63583)
(-21.4248 0 4.18806)
(-24.1915 -1.38015e-16 4.73419)
(-27.4187 7.04828e-17 5.35253)
(-30.4362 0 5.93491)
(-34.3078 0 6.68085)
(-37.2531 0 7.25011)
(-41.8991 5.50305e-17 8.15181)
(-44.8468 0 8.70715)
(-50.1893 -6.56303e-17 9.75066)
(-53.5585 4.50328e-20 10.404)
(-59.0371 -1.01463e-16 11.4375)
(-63.7695 -4.00696e-16 12.3822)
(-68.3069 0 13.229)
(-75.347 1.7852e-16 14.6164)
(-79.8301 8.28527e-17 15.4885)
(-88.2709 1.47067e-16 17.0607)
(-93.5383 0 18.1579)
(-101.72 1.33726e-16 19.8121)
(-123.946 0 24.0508)
(60.3983 0 -2.71916)
(58.1042 0 -4.04983)
(56.2378 1.95999e-19 -5.6401)
(53.1332 0 -6.8773)
(50.6725 -2.18935e-20 -7.54227)
(48.9702 -1.72525e-19 -7.58998)
(48.1511 0 -7.28091)
(47.7757 4.61474e-19 -6.9331)
(47.3693 -3.89363e-19 -6.76766)
(46.6611 -1.16434e-19 -6.80847)
(45.6793 6.99033e-20 -6.94575)
(44.6251 -2.99961e-19 -7.0422)
(43.6766 4.13773e-19 -7.03336)
(42.8808 -1.12085e-18 -6.95493)
(42.1557 0 -6.88192)
(41.4176 -1.38034e-18 -6.86135)
(40.6879 0 -6.91242)
(40.0717 0 -6.99951)
(39.6668 0 -7.06874)
(39.5402 1.17427e-18 -7.11257)
(39.5688 7.14325e-21 -7.1436)
(39.5265 3.77236e-21 -7.14927)
(39.3352 1.82345e-18 -7.20664)
(38.8194 0 -7.26059)
(38.1079 0 -7.26739)
(37.39 0 -7.30301)
(36.6364 6.81658e-18 -7.22657)
(36.1353 -1.9278e-20 -7.16304)
(35.8024 0 -7.10884)
(35.7634 0 -6.99269)
(36.0782 0 -6.9407)
(36.5947 0 -6.82255)
(37.2232 -3.83764e-18 -6.77163)
(37.6187 0 -6.74133)
(37.7582 1.23401e-18 -6.78908)
(37.5372 0 -6.86402)
(37.219 0 -6.92727)
(36.8494 -2.12415e-18 -6.98174)
(36.5969 0 -6.97961)
(36.4292 0 -7.00572)
(36.3718 1.05865e-18 -6.98704)
(36.4285 -1.60374e-18 -7.01829)
(36.5035 0 -7.02138)
(36.6914 7.39419e-20 -7.06817)
(36.8238 0 -7.0649)
(36.929 -4.46731e-19 -7.06858)
(36.9938 -6.28252e-21 -7.15184)
(36.9006 0 -6.76731)
(36.8489 0 -7.24017)
(37.2195 -1.84787e-18 -7.04299)
(37.3012 -6.05961e-18 -7.0841)
(36.8898 1.79408e-17 -6.9913)
(36.6172 0 -6.99092)
(36.7818 7.87797e-18 -7.06568)
(36.2184 1.02415e-17 -6.89363)
(36.0796 5.10165e-18 -6.89176)
(36.4339 7.29671e-18 -6.9885)
(35.4296 0 -6.73915)
(35.3947 0 -6.79262)
(35.6106 1.28522e-17 -6.84651)
(34.2222 2.40037e-17 -6.51295)
(34.6638 -7.17768e-18 -6.62668)
(34.4029 -8.37164e-20 -6.55423)
(33.0337 2.15194e-20 -6.26996)
(33.7397 6.63122e-18 -6.4213)
(32.5771 0 -6.19991)
(31.9019 0 -6.0565)
(32.054 -5.20011e-18 -6.07342)
(30.5607 3.60579e-18 -5.8078)
(30.5375 0 -5.7581)
(29.4175 -1.05308e-17 -5.57587)
(28.6472 2.75328e-17 -5.42272)
(27.9999 -3.90131e-18 -5.26919)
(26.61 3.59207e-17 -5.04474)
(26.2553 0 -4.92144)
(24.7221 0 -4.67272)
(24.0594 5.18664e-17 -4.52058)
(22.8556 4.1425e-18 -4.29562)
(21.6355 -5.21513e-17 -4.07202)
(20.5707 0 -3.84096)
(19.056 0 -3.56897)
(17.934 0 -3.32082)
(16.1998 0 -3.0152)
(14.8863 0 -2.73682)
(13.0682 0 -2.41153)
(11.5183 -7.20815e-17 -2.08447)
(9.56748 2.25089e-20 -1.72629)
(7.74075 8.01094e-17 -1.3652)
(5.74303 0 -0.980226)
(3.55944 7.39672e-17 -0.566964)
(1.38951 7.51792e-18 -0.139051)
(-0.918318 0 0.301087)
(-3.3991 -7.26225e-18 0.7864)
(-6.03905 -1.08943e-16 1.27866)
(-8.58981 0 1.79597)
(-11.7057 0 2.36882)
(-14.619 0 2.93897)
(-17.5211 -6.79221e-17 3.49643)
(-20.733 0 4.11423)
(-24.2931 0 4.80145)
(-27.7661 5.42098e-17 5.48421)
(-31.8399 -3.59854e-17 6.2525)
(-35.7095 0 7.01553)
(-40.1867 0 7.86765)
(-44.3446 0 8.67635)
(-49.6883 0 9.70045)
(-53.6873 0 10.4779)
(-60.1585 1.08803e-20 11.7243)
(-63.9495 0 12.4487)
(-71.5171 6.14144e-17 13.9162)
(-75.6277 -1.71441e-16 14.7173)
(-83.3701 0 16.1814)
(-89.441 -3.61823e-20 17.3914)
(-95.3563 0 18.498)
(-105.259 -3.26198e-20 20.4451)
(-109.806 0 21.3477)
(-121.982 -1.37502e-16 23.6119)
(-128.26 0 24.9354)
(-138.285 1.24996e-16 27.0729)
(-167.523 0 32.6232)
(65.978 0 -2.92408)
(64.5292 0 -4.47207)
(63.063 0 -6.14451)
(60.82 0 -7.33568)
(59.0982 2.06814e-20 -7.94063)
(57.9502 -4.11712e-20 -8.00964)
(57.3983 0 -7.81697)
(57.0601 -4.35956e-19 -7.64718)
(56.6019 0 -7.6699)
(55.8693 1.51198e-19 -7.86397)
(54.9298 0 -8.10336)
(53.9619 2.83399e-19 -8.2681)
(53.0937 0 -8.31468)
(52.3357 1.0589e-18 -8.28978)
(51.6078 -6.69853e-19 -8.27629)
(50.8481 1.39117e-18 -8.31653)
(50.1003 -1.4295e-18 -8.41979)
(49.4843 -1.32505e-18 -8.55126)
(49.0919 0 -8.66034)
(48.9746 -1.10921e-18 -8.73666)
(49.0091 -1.21023e-18 -8.80892)
(48.9635 -2.8896e-18 -8.85658)
(48.7657 -1.72227e-18 -8.94111)
(48.261 0 -9.03138)
(47.5615 0 -9.04359)
(46.8612 0 -9.07838)
(46.13 -3.20183e-18 -9.00439)
(45.6342 -2.06538e-18 -8.91304)
(45.313 0 -8.85391)
(45.284 0 -8.70796)
(45.6035 -1.23066e-18 -8.6426)
(46.126 0 -8.51476)
(46.746 6.42672e-20 -8.47076)
(47.1322 2.3624e-18 -8.46467)
(47.2626 -1.0041e-18 -8.53466)
(47.043 0 -8.64466)
(46.7344 0 -8.71605)
(46.3764 2.00497e-18 -8.79476)
(46.1375 0 -8.78446)
(45.9778 0 -8.82755)
(45.9337 -9.99077e-19 -8.7993)
(46.0003 1.51341e-18 -8.84171)
(46.0921 0 -8.84092)
(46.2934 -6.97345e-20 -8.89777)
(46.44 0 -8.89962)
(46.5455 2.10077e-19 -8.90934)
(46.6444 1.94215e-19 -8.97133)
(46.5287 0 -8.52004)
(46.4232 -1.25058e-18 -9.17458)
(46.8347 1.7427e-18 -8.86606)
(46.8895 1.13729e-17 -8.91255)
(46.4544 -8.46246e-18 -8.82296)
(46.1378 6.60836e-18 -8.79204)
(46.2665 -8.39484e-20 -8.86988)
(45.6629 0 -8.69729)
(45.4598 -4.80859e-18 -8.64624)
(45.76 -6.87684e-18 -8.76102)
(44.6831 9.39762e-18 -8.4997)
(44.5568 -1.28951e-18 -8.48441)
(44.6784 -1.21087e-17 -8.57285)
(43.181 -1.13725e-17 -8.18584)
(43.4914 -6.8355e-18 -8.2382)
(43.1001 -1.25517e-17 -8.21461)
(41.5923 0 -7.8315)
(42.1372 0 -7.97355)
(40.8212 -1.15281e-17 -7.75931)
(39.9629 0 -7.50012)
(39.9199 0 -7.55202)
(38.2285 -1.64541e-18 -7.20494)
(37.9667 0 -7.10463)
(36.6083 9.9079e-18 -6.91105)
(35.5822 -5.17464e-17 -6.65335)
(34.6402 0 -6.49409)
(32.97 -1.68663e-17 -6.17378)
(32.3013 0 -6.01251)
(30.4471 0 -5.70378)
(29.4763 -4.87671e-17 -5.47502)
(27.9198 -1.94433e-18 -5.20865)
(26.3436 4.56605e-20 -4.88341)
(24.8994 0 -4.60576)
(22.9695 0 -4.22796)
(21.4319 0 -3.91978)
(19.2435 -2.81205e-17 -3.51057)
(17.4594 2.64502e-17 -3.14961)
(15.1592 0 -2.72903)
(13.0898 1.35331e-16 -2.29526)
(10.6059 1.29969e-17 -1.84299)
(8.21153 -1.50344e-16 -1.35889)
(5.63909 -2.71283e-18 -0.87842)
(2.84262 -1.38748e-16 -0.327016)
(0.0283274 0 0.207616)
(-2.92334 0 0.788683)
(-6.10234 6.80951e-18 1.39726)
(-9.45695 1.02136e-16 2.03834)
(-12.7429 -2.54965e-17 2.69168)
(-16.6537 0 3.42566)
(-20.3714 0 4.14297)
(-24.0539 6.36386e-17 4.85357)
(-28.0972 3.60703e-17 5.63174)
(-32.548 0 6.50168)
(-36.9249 -5.07686e-17 7.35536)
(-41.9673 3.36962e-17 8.31208)
(-46.7744 0 9.26364)
(-52.3139 0 10.3144)
(-57.3889 0 11.3103)
(-63.9755 0 12.568)
(-68.7164 0 13.4992)
(-76.7631 -4.82046e-17 15.0409)
(-80.9332 0 15.8507)
(-90.4981 0 17.6982)
(-94.6653 0 18.5183)
(-104.407 8.8643e-17 20.3663)
(-111.057 1.75295e-16 21.6938)
(-117.691 0 22.9449)
(-130.024 -1.56047e-16 25.3641)
(-133.236 0 26.0315)
(-148.693 -1.28561e-16 28.9108)
(-154.834 0 30.2326)
(-165.235 -1.16813e-16 32.6453)
(-199.166 0 39.0151)
(70.0261 -1.1128e-19 -3.58819)
(69.1136 -7.90557e-20 -5.0972)
(68.1449 3.61726e-20 -6.53071)
(66.7962 -2.65475e-20 -7.52448)
(65.7959 0 -8.01056)
(65.1591 1.41933e-19 -8.10706)
(64.8509 0 -8.0724)
(64.5793 -2.73172e-19 -8.11786)
(64.1353 -1.31594e-19 -8.33572)
(63.4646 2.85499e-21 -8.67555)
(62.6584 -2.11285e-19 -9.01238)
(61.8554 3.60883e-19 -9.24713)
(61.1301 0 -9.35993)
(60.463 0 -9.4054)
(59.7821 6.31876e-19 -9.46455)
(59.0506 5.36567e-20 -9.57381)
(58.3339 -8.50744e-20 -9.73347)
(57.7645 -5.92256e-20 -9.91014)
(57.4284 0 -10.0587)
(57.3589 0 -10.1672)
(57.434 0 -10.2757)
(57.4203 2.72733e-18 -10.3636)
(57.2481 1.60074e-18 -10.4738)
(56.7879 0 -10.5963)
(56.1327 0 -10.6228)
(55.4767 3.50653e-18 -10.6591)
(54.7942 0 -10.5963)
(54.3248 0 -10.4899)
(54.0354 0 -10.4286)
(54.0336 0 -10.2674)
(54.3721 5.32481e-20 -10.1904)
(54.9121 0 -10.0614)
(55.5331 8.17678e-20 -10.0261)
(55.9205 -2.22712e-18 -10.0461)
(56.0525 1.10192e-19 -10.1401)
(55.8477 0 -10.284)
(55.5602 0 -10.3681)
(55.2257 0 -10.4694)
(55.0083 0 -10.4575)
(54.8639 0 -10.5154)
(54.8378 0 -10.483)
(54.9174 0 -10.5374)
(55.0287 -2.9646e-19 -10.534)
(55.2457 9.30826e-20 -10.5981)
(55.4095 0 -10.6038)
(55.5187 2.03085e-19 -10.6185)
(55.6614 0 -10.6697)
(55.5112 0 -10.1163)
(55.346 2.32391e-18 -10.9939)
(55.8219 0 -10.5506)
(55.838 -5.32922e-18 -10.6061)
(55.3825 0 -10.5203)
(55.023 -1.24413e-17 -10.4598)
(55.1144 -9.01594e-20 -10.5382)
(54.4728 0 -10.3679)
(54.2021 0 -10.267)
(54.4468 0 -10.3951)
(53.2994 -1.77092e-17 -10.1265)
(53.0779 2.45195e-18 -10.039)
(53.1061 1.09662e-17 -10.1573)
(51.5015 1.09517e-17 -9.72442)
(51.6761 1.28411e-17 -9.70737)
(51.1562 -1.15148e-17 -9.73316)
(49.509 0 -9.25726)
(49.8884 0 -9.37995)
(48.4216 5.93195e-20 -9.17934)
(47.3781 0 -8.80234)
(47.1387 0 -8.88464)
(45.2514 -1.30303e-18 -8.46186)
(44.7501 0 -8.30393)
(43.1552 0 -8.10394)
(41.8759 4.84774e-17 -7.7386)
(40.6427 3.25579e-18 -7.57412)
(38.6955 0 -7.16125)
(37.7176 0 -6.95825)
(35.5475 0 -6.59611)
(34.2733 4.57998e-17 -6.28807)
(32.3739 0 -5.98399)
(30.4518 9.18549e-17 -5.55791)
(28.6418 -6.08837e-18 -5.23617)
(26.3137 0 -4.75561)
(24.3789 0 -4.3904)
(21.7607 2.63878e-17 -3.88299)
(19.5311 2.54525e-20 -3.44319)
(16.7792 1.50067e-17 -2.93493)
(14.2265 -6.34716e-17 -2.39928)
(11.2498 1.22145e-17 -1.86289)
(8.33588 7.0488e-17 -1.26329)
(5.24021 2.54353e-18 -0.699149)
(1.89524 6.04527e-20 -0.0207625)
(-1.49426 0 0.605926)
(-5.01282 -5.51848e-17 1.31366)
(-8.79492 0 2.02645)
(-12.7652 0 2.79698)
(-16.6722 2.38854e-17 3.56472)
(-21.2399 0 4.43255)
(-25.623 0 5.26881)
(-29.9385 0 6.10342)
(-34.6338 -3.3773e-17 7.00731)
(-39.7709 0 8.02061)
(-44.8234 -4.75912e-17 9.00164)
(-50.5782 0 10.0958)
(-56.0364 0 11.1814)
(-62.3233 0 12.3684)
(-67.9474 0 13.4821)
(-75.4044 0 14.8977)
(-80.4026 -1.04253e-16 15.8932)
(-89.6155 -4.51366e-17 17.6448)
(-93.4982 8.73706e-17 18.4174)
(-104.656 0 20.5596)
(-107.975 0 21.2279)
(-119.247 -1.65691e-16 23.3708)
(-125.478 0 24.6109)
(-131.94 5.81566e-17 25.8566)
(-145.993 0 28.5812)
(-146.349 6.77708e-17 28.7416)
(-164.193 1.20138e-16 32.0692)
(-168.89 0 33.11)
(-178.068 -1.09105e-16 35.5251)
(-213.569 0 42.1439)
(72.9927 1.04811e-19 -4.4872)
(72.5121 1.04936e-19 -5.74926)
(72.112 -3.40655e-20 -6.7996)
(71.5307 -4.37061e-20 -7.5313)
(71.1232 -1.09097e-19 -7.92163)
(70.8796 0 -8.09043)
(70.7403 0 -8.23845)
(70.529 2.57319e-19 -8.50214)
(70.1471 1.43131e-19 -8.90238)
(69.6033 8.52287e-20 -9.36167)
(68.9864 1.9906e-19 -9.77294)
(68.3908 -3.39988e-19 -10.0668)
(67.8419 5.22879e-19 -10.244)
(67.2954 0 -10.3626)
(66.6915 0 -10.4969)
(66.0218 -6.90333e-19 -10.6755)
(65.3723 2.78399e-18 -10.8884)
(64.8849 2.52438e-18 -11.1029)
(64.6386 0 -11.2824)
(64.6465 0 -11.4164)
(64.7876 0 -11.5528)
(64.8328 3.01074e-22 -11.676)
(64.7115 -3.00281e-18 -11.8089)
(64.3216 1.69749e-18 -11.9576)
(63.737 3.49111e-18 -12.003)
(63.1467 -6.54603e-18 -12.0421)
(62.5341 2.7228e-18 -11.9957)
(62.1096 1.80779e-18 -11.8848)
(61.8688 8.5958e-19 -11.8228)
(61.9094 0 -11.6577)
(62.2796 1.04249e-18 -11.5716)
(62.8466 -1.38853e-18 -11.4484)
(63.4769 1.45471e-18 -11.4244)
(63.8746 1.79307e-18 -11.4722)
(64.0179 1.4482e-18 -11.592)
(63.8402 0 -11.768)
(63.5847 0 -11.8685)
(63.2847 -1.76652e-18 -11.9899)
(63.0961 0 -11.9815)
(62.9737 1.49115e-18 -12.0514)
(62.9694 8.97965e-19 -12.0185)
(63.0651 0 -12.084)
(63.1983 5.61428e-19 -12.0813)
(63.433 -8.75767e-20 -12.1497)
(63.6164 0 -12.1578)
(63.7317 -1.91082e-19 -12.1755)
(63.9298 -1.89431e-19 -12.2289)
(63.6118 0 -12.1656)
(63.6142 -2.14519e-18 -12.0731)
(64.0687 1.56211e-18 -12.0698)
(64.0325 4.88328e-18 -12.1434)
(63.562 0 -12.0608)
(63.1623 6.3257e-21 -11.9717)
(63.2166 -1.27398e-17 -12.0483)
(62.5414 0 -11.8821)
(62.2022 0 -11.7318)
(62.3916 5.80887e-18 -11.8692)
(61.1795 8.33392e-18 -11.5962)
(60.8622 -2.36878e-18 -11.4354)
(60.801 -1.03086e-17 -11.579)
(59.0964 -1.02941e-17 -11.1063)
(59.1344 -6.02456e-18 -11.0157)
(58.4922 2.1429e-17 -11.0909)
(56.7117 0 -10.5279)
(56.9256 0 -10.6256)
(55.3181 2.01626e-17 -10.4428)
(54.0956 0 -9.94873)
(53.6649 0 -10.0592)
(51.5943 1.22381e-18 -9.56564)
(50.8625 0 -9.34772)
(49.0435 8.55466e-18 -9.14577)
(47.5264 -1.46634e-19 -8.67307)
(46.0184 -3.05658e-18 -8.50633)
(43.8117 0 -8.00519)
(42.5445 0 -7.76184)
(40.0798 0 -7.35341)
(38.5232 4.2832e-17 -6.96813)
(36.3104 0 -6.63256)
(34.0726 -4.3046e-17 -6.11015)
(31.933 1.15294e-17 -5.75103)
(29.249 0 -5.17471)
(26.9606 0 -4.76091)
(23.9667 0 -4.16486)
(21.3472 2.61827e-20 -3.65643)
(18.2072 -1.40684e-17 -3.07296)
(15.2437 -5.94405e-17 -2.44768)
(11.8535 -1.14479e-17 -1.84314)
(8.51011 6.59535e-17 -1.14372)
(4.98711 0 -0.515365)
(1.20758 6.08609e-17 0.270235)
(-2.63589 0 0.96478)
(-6.58952 5.16896e-17 1.77515)
(-10.8182 0 2.56217)
(-15.2414 0 3.43164)
(-19.5874 0 4.27942)
(-24.5976 -6.34704e-17 5.24099)
(-29.4293 -3.68513e-17 6.15378)
(-34.1506 0 7.06876)
(-39.2309 3.172e-17 8.04811)
(-44.7559 -5.0013e-17 9.14882)
(-50.1564 4.45299e-17 10.1952)
(-56.2628 -2.95476e-17 11.3574)
(-61.9744 0 12.5023)
(-68.5818 0 13.7424)
(-74.2619 0 14.8824)
(-82.0995 0 16.3582)
(-86.732 9.74854e-17 17.3044)
(-96.5822 -4.36885e-20 19.1572)
(-99.3627 -1.63356e-16 19.745)
(-111.587 0 22.0727)
(-113.017 0 22.3942)
(-125.227 7.74066e-17 24.7207)
(-129.925 0 25.6454)
(-135.234 -5.43474e-17 26.7233)
(-150.124 0 29.5568)
(-146.237 -1.26699e-16 28.9543)
(-165.29 0 32.5223)
(-167.332 0 33.0195)
(-173.918 1.01921e-16 35.2236)
(-207.521 0 41.4338)
(75.1763 0 -5.35205)
(75.1298 -2.86648e-20 -6.26959)
(75.266 0 -6.95318)
(75.2462 6.4653e-20 -7.47563)
(75.2414 1.87315e-19 -7.83891)
(75.2473 0 -8.13461)
(75.215 -5.27516e-20 -8.4802)
(75.0678 0 -8.93443)
(74.7877 -1.0012e-19 -9.47447)
(74.4177 -3.1229e-19 -10.0155)
(74.0241 0 -10.472)
(73.6534 0 -10.8043)
(73.289 -4.9201e-19 -11.0344)
(72.8713 0 -11.2207)
(72.358 0 -11.4242)
(71.7706 0 -11.6626)
(71.2138 -1.34892e-18 -11.9165)
(70.8327 -1.21491e-18 -12.1548)
(70.698 -1.10749e-18 -12.3518)
(70.8017 0 -12.5011)
(71.024 0 -12.6542)
(71.1451 -1.209e-18 -12.8036)
(71.0921 1.40658e-18 -12.9534)
(70.7894 -1.59697e-18 -13.1198)
(70.2942 -3.28431e-18 -13.1849)
(69.7846 6.05053e-18 -13.2272)
(69.2569 -3.51515e-20 -13.1985)
(68.8918 -1.70058e-18 -13.0911)
(68.7122 -8.08586e-19 -13.0286)
(68.8072 0 -12.8674)
(69.2184 0 -12.7746)
(69.8188 1.306e-18 -12.6625)
(70.4641 0 -12.6526)
(70.8789 -1.68637e-18 -12.7292)
(71.0415 -6.21428e-19 -12.8759)
(70.9016 -6.31223e-19 -13.0815)
(70.6875 0 -13.2004)
(70.4318 1.66119e-18 -13.3389)
(70.2785 1.47663e-18 -13.3381)
(70.1841 -1.9218e-20 -13.4172)
(70.2053 -1.68884e-18 -13.3878)
(70.3204 0 -13.4616)
(70.4775 -2.65508e-19 -13.4612)
(70.7321 0 -13.5308)
(70.9373 0 -13.5403)
(71.0599 0 -13.5591)
(71.2231 -9.25262e-21 -13.6167)
(70.9203 0 -14.0442)
(71.1057 1.00288e-18 -12.9719)
(71.3612 -2.9461e-18 -13.4118)
(71.3563 -4.58906e-18 -13.5039)
(70.8801 0 -13.423)
(70.4457 5.49001e-18 -13.307)
(70.4665 1.17808e-17 -13.3798)
(69.7658 0 -13.219)
(69.3612 0 -13.0214)
(69.4991 -5.45669e-18 -13.1642)
(68.234 -7.81379e-18 -12.8897)
(67.8253 1.13139e-18 -12.6565)
(67.6841 9.14728e-18 -12.8212)
(65.8946 0 -12.3154)
(65.802 0 -12.1501)
(65.0512 -2.52637e-19 -12.2743)
(63.1532 8.00016e-19 -11.6321)
(63.2097 0 -11.7017)
(61.4817 -9.41765e-18 -11.5413)
(60.0979 0 -10.9346)
(59.4921 0 -11.0726)
(57.2641 0 -10.5154)
(56.3248 0 -10.2389)
(54.3089 -1.52683e-19 -10.041)
(52.5858 -1.92699e-19 -9.46563)
(50.8371 2.57873e-18 -9.30222)
(48.4064 0 -8.72087)
(46.8895 -1.13249e-17 -8.44284)
(44.1723 0 -7.9986)
(42.3746 -4.01636e-17 -7.54313)
(39.9019 -1.17326e-18 -7.18642)
(37.403 -4.00563e-17 -6.57756)
(34.9958 -5.45407e-18 -6.19279)
(32.0273 0 -5.53363)
(29.4582 1.36497e-17 -5.08569)
(26.1759 0 -4.41701)
(23.2556 -2.18492e-17 -3.85713)
(19.8267 -1.32003e-17 -3.21791)
(16.5636 5.5684e-17 -2.52334)
(12.8791 0 -1.87452)
(9.2397 -1.2344e-16 -1.09989)
(5.42967 0 -0.43573)
(1.37788 5.67785e-17 0.427398)
(-2.74761 0 1.15551)
(-6.95303 4.8225e-17 2.03368)
(-11.4152 0 2.85359)
(-16.0702 8.35944e-17 3.7798)
(-20.6144 -2.11203e-17 4.66075)
(-25.7875 5.93954e-17 5.66293)
(-30.7843 3.44818e-17 6.59675)
(-35.6193 0 7.53494)
(-40.749 -5.94348e-17 8.525)
(-46.2928 9.34821e-17 9.64254)
(-51.6418 0 10.6773)
(-57.6667 2.7634e-17 11.8232)
(-63.1615 0 12.9377)
(-69.5957 0 14.1334)
(-74.7683 -8.86578e-17 15.1937)
(-82.4409 0 16.6191)
(-86.0227 0 17.3904)
(-95.9427 3.9489e-17 19.2245)
(-96.7661 1.52656e-16 19.4735)
(-109.51 4.68173e-17 21.8687)
(-108.027 0 21.6517)
(-120.584 0 24.0503)
(-122.711 0 24.4384)
(-126.008 0 25.2163)
(-140.879 1.26992e-16 27.9549)
(-131.788 5.92057e-17 26.4175)
(-150.881 0 30.0198)
(-149.465 0 29.7845)
(-152.676 0 31.6217)
(-181.371 0 36.8908)
(76.7697 -4.30955e-21 -6.02529)
(77.1694 0 -6.63091)
(77.6996 -4.67474e-20 -7.08229)
(78.0086 0 -7.51477)
(78.2285 -7.95734e-20 -7.92764)
(78.3713 0 -8.37173)
(78.4147 4.95713e-20 -8.8911)
(78.3545 8.11911e-20 -9.48627)
(78.2184 2.33615e-19 -10.1076)
(78.0556 -5.84286e-20 -10.6817)
(77.8994 0 -11.1521)
(77.7496 0 -11.506)
(77.5582 0 -11.7791)
(77.2629 0 -12.0249)
(76.8433 0 -12.287)
(76.3501 0 -12.5704)
(75.9017 1.37826e-18 -12.8488)
(75.6409 -1.21598e-18 -13.0942)
(75.6279 1.04094e-18 -13.2932)
(75.8351 0 -13.4455)
(76.1434 0 -13.6022)
(76.3476 1.13267e-18 -13.7656)
(76.3719 1.29778e-18 -13.9247)
(76.1642 1.44726e-18 -14.0988)
(75.769 0 -14.1808)
(75.3486 -2.81863e-18 -14.2256)
(74.914 -4.72048e-18 -14.2126)
(74.6185 1.61847e-18 -14.1132)
(74.5082 0 -14.049)
(74.6652 0 -13.8958)
(75.1228 0 -13.7983)
(75.759 -9.98911e-19 -13.7002)
(76.4219 0 -13.7064)
(76.8575 0 -13.8114)
(77.0452 -3.01755e-19 -13.9845)
(76.9515 5.93061e-19 -14.2158)
(76.7871 0 -14.3533)
(76.5838 1.53848e-18 -14.5052)
(76.4716 -2.7713e-18 -14.5146)
(76.4106 -1.29908e-18 -14.6003)
(76.4605 7.93304e-19 -14.5775)
(76.5982 0 -14.6572)
(76.7819 0 -14.6602)
(77.0587 0 -14.7283)
(77.2884 -3.26879e-19 -14.7384)
(77.4216 0 -14.7558)
(77.5649 1.75873e-19 -14.8067)
(77.3834 -2.82677e-19 -15.1061)
(77.5246 0 -14.2877)
(77.7135 1.3878e-18 -14.5747)
(77.7378 0 -14.6759)
(77.2678 0 -14.5947)
(76.8078 5.13052e-18 -14.454)
(76.8024 -1.03061e-19 -14.5216)
(76.089 -7.45897e-18 -14.3679)
(75.627 0 -14.1264)
(75.7223 0 -14.2715)
(74.4219 7.33335e-18 -13.9987)
(73.933 0 -13.6964)
(73.7281 -8.58371e-18 -13.8781)
(71.8773 0 -13.3475)
(71.6685 0 -13.1091)
(70.8319 -1.79264e-17 -13.2822)
(68.8424 -1.73037e-18 -12.5716)
(68.7596 5.19868e-18 -12.6123)
(66.9432 0 -12.4794)
(65.4285 0 -11.7687)
(64.676 -1.24675e-18 -11.9346)
(62.3314 7.13712e-19 -11.3241)
(61.2228 0 -10.9937)
(59.0529 -7.38252e-18 -10.8078)
(57.1732 -1.96659e-17 -10.1392)
(55.237 -2.4174e-18 -9.98718)
(52.6368 -1.25242e-17 -9.33784)
(50.9301 1.06145e-17 -9.0347)
(48.024 0 -8.56867)
(46.047 0 -8.05483)
(43.3915 1.09938e-18 -7.69125)
(40.7102 7.48389e-17 -7.01104)
(38.1226 0 -6.61685)
(34.9689 0 -5.89344)
(32.2196 -1.27853e-17 -5.43104)
(28.7668 0 -4.71166)
(25.6662 0 -4.12356)
(22.0794 1.23608e-17 -3.45417)
(18.6619 5.19856e-17 -2.71749)
(14.8375 0 -2.05476)
(11.0721 5.77302e-17 -1.23687)
(7.15209 0 -0.572367)
(3.02896 -5.31424e-17 0.330912)
(-1.1663 5.82589e-18 1.05081)
(-5.40151 -4.51281e-17 1.95406)
(-9.84348 -5.49667e-18 2.75769)
(-14.4677 -1.54822e-19 3.69053)
(-18.9306 1.97585e-17 4.54997)
(-23.9472 0 5.53193)
(-28.7846 -3.23097e-17 6.424)
(-33.4062 4.86474e-17 7.3212)
(-38.2179 2.78315e-17 8.25065)
(-43.3817 -8.72381e-17 9.30861)
(-48.2562 0 10.2501)
(-53.7497 2.59133e-17 11.292)
(-58.548 0 12.2846)
(-64.3202 0 13.3387)
(-68.4362 8.28702e-17 14.2169)
(-75.4331 0 15.4865)
(-77.3311 0 15.9689)
(-86.8258 -3.70263e-17 17.6757)
(-84.9511 -2.11352e-20 17.4567)
(-97.7776 -3.73856e-20 19.8199)
(-92.5709 -6.1415e-17 18.9154)
(-105.051 0 21.3071)
(-103.874 1.33633e-16 20.9931)
(-104.65 4.77326e-17 21.4112)
(-118.907 -1.1862e-16 23.9014)
(-104.345 -5.54505e-17 21.3828)
(-122.657 0 24.8878)
(-117.679 -5.40448e-17 23.8708)
(-117.466 0 25.3112)
(-139.638 0 29.3637)
(77.8914 4.04886e-21 -6.54146)
(78.6487 -2.64729e-20 -6.96105)
(79.3856 2.88822e-20 -7.35279)
(79.8458 6.20574e-23 -7.80338)
(80.1663 0 -8.30539)