/*--------------------------------*- C++ -*----------------------------------*\
| =========                 |                                                 |
| \\      /  F ield         | OpenFOAM: The Open Source CFD Toolbox           |
|  \\    /   O peration     | Version:  2412                                  |
|   \\  /    A nd           | Website:  www.openfoam.com                      |
|    \\/     M anipulation  |                                                 |
\*---------------------------------------------------------------------------*/
FoamFile
{
    version     2.0;
    format      ascii;
    arch        "LSB;label=32;scalar=64";
    class       surfaceScalarField;
    location    "0.03";
    object      ddtCorrDdt0(phi);
}
// * * * * * * * * * * * * * * * * * * * * * * * * * * * * * * * * * * * * * //

dimensions      [0 3 -2 0 0 0 0];

oriented        oriented;

internalField   nonuniform List<scalar> 
24930
(
0.0184947
0.00556305
-0.0257264
0.0166489
0.00268894
0.0145019
0.00270834
0.0118948
0.001611
0.00960881
0.000294705
0.00847762
-0.000572562
0.00856272
-0.000639529
0.0092947
-0.000123233
0.00989193
0.000480327
0.00995445
0.00081184
0.00953235
0.000727999
0.00892802
0.000438807
0.00843426
0.000269944
0.00812239
0.000293165
0.00784962
0.000434664
0.00754316
0.000533018
0.00720741
0.000464337
0.00697287
0.000263339
0.00695963
7.85464e-05
0.00725081
-6.28316e-05
0.00754325
3.9635e-05
0.00773489
0.000228897
0.0076691
0.000206237
0.00704903
0.000365436
0.00649407
0.000174339
0.005712
-2.04887e-05
0.00503241
9.30544e-05
0.00482022
-0.000215011
0.00446796
-0.000123179
0.00491308
-0.000351141
0.00533737
-0.000384839
0.00622991
-0.000245842
0.00696228
-2.3424e-06
0.00736708
0.000392932
0.00751568
0.000377571
0.00705726
0.000489001
0.00690241
0.00010652
0.00627853
0.000210964
0.00634855
-8.42853e-05
0.00591673
8.97865e-05
0.0062032
-0.000172027
0.00598752
-1.14802e-05
0.00630308
-8.91828e-05
0.00638174
-0.000179368
0.00657102
-0.000109627
0.0066183
5.37331e-05
0.00676389
-9.40362e-05
0.00643605
0.000123001
0.00690857
-0.000243087
0.00720808
-6.23116e-05
0.007265
-0.000517933
0.00641876
0.000801674
0.00700408
-0.000154539
0.00712561
-0.00118682
0.00586126
0.00132894
0.00728749
-0.000356179
0.00718698
-0.0015044
0.00521596
0.00239506
0.00784358
-0.00128435
0.00650071
-0.00139454
0.00500452
0.00298954
0.00871818
-0.0026709
0.00527168
0.000334184
0.00613787
0.00219073
0.00843155
-0.00315267
0.00414189
0.00240294
0.00808076
-0.000651
0.00603885
-0.000867131
0.00554486
0.00180235
0.00789583
-0.0018602
0.00428333
0.00196476
0.00785309
-0.00139093
0.00481479
0.000696877
0.00620438
0.000607972
0.00639786
-0.00119972
0.0044279
0.0017616
0.00705658
-0.00134192
0.00385652
0.00139976
0.00653606
-0.000899122
0.00392119
0.00095152
0.00566963
-0.000321903
0.00416961
0.000403941
0.00445524
0.000516928
0.00439789
-0.000343243
0.00318972
0.0010141
0.00441596
-0.000659178
0.00196855
0.00161039
0.00407762
-0.000973562
0.00100486
0.00152648
0.00304355
-0.000403573
0.000279358
0.00129657
0.00188252
-0.00043424
-0.000811728
0.00152744
0.000400363
8.0016e-05
-0.00172731
0.000878301
-0.00166414
0.000692035
-0.00306523
0.001066
-0.00327176
0.000319499
-0.00501353
0.00140426
-0.00560868
0.00126695
-0.00672082
0.000382155
-0.00870006
0.00199039
-0.00923111
0.00129763
-0.011678
0.0015716
-0.0125718
0.00125033
-0.0154297
0.00259077
-0.0163486
0.00153589
-0.0196504
0.00244331
-0.0213707
0.00230197
-0.0244388
0.00275707
-0.0273106
0.00304547
-0.0306622
0.00327225
-0.0339089
0.00333689
-0.0382243
0.00362489
-0.0421762
0.00514288
-0.0488747
0.00584935
-0.0517716
0.00301411
-0.0607126
0.00871368
-0.0703037
0.0103147
0.0117074
0.0451331
0.00963701
-0.0482344
0.042042
0.00678113
0.0380488
0.00513579
0.0339589
0.00282747
0.0306454
0.00118805
0.0287889
0.000533091
0.0282659
0.000789316
0.0283828
0.00146798
0.0283524
0.00193186
0.027807
0.00194919
0.026861
0.0016491
0.025838
0.00128294
0.0249916
0.00110581
0.024363
0.00116951
0.0237855
0.00132158
0.0231935
0.0013625
0.0226116
0.00119262
0.0221861
0.000905132
0.0220273
0.000649802
0.0222245
0.000431264
0.0224156
0.000357455
0.0224875
0.00039518
0.0223145
0.000187426
0.0215305
9.71894e-05
0.0208583
-8.59184e-05
0.0199671
-0.00035759
0.0191709
-0.000150671
0.0189224
-0.000241739
0.0185028
-0.000114297
0.0189728
-3.36132e-08
0.0194212
3.96553e-05
0.0203749
0.000402474
0.0211537
0.000643745
0.0215684
0.000959035
0.0217268
0.00080668
0.0212275
0.000657081
0.0210899
0.000234405
0.0204363
0.00012458
0.0205587
-4.38269e-05
0.0201299
-3.4842e-05
0.0205062
-0.000141459
0.0203383
-0.000148821
0.0207483
-0.000104087
0.0209045
-0.000291388
0.0211794
-0.000208773
0.0213025
-0.000102314
0.0230656
-0.00149482
0.0211587
0.00206975
0.0217975
-0.00104637
0.0221789
-0.000131007
0.0222929
-0.000685947
0.0213862
0.000589644
0.022051
-0.000166208
0.0222285
-0.00144767
0.0208699
0.00113081
0.0224424
-0.000168819
0.0223548
-0.0018495
0.020207
0.00222899
0.0230534
-0.000950923
0.0215674
-0.00194922
0.0199093
0.00317565
0.0238853
-0.00221037
0.0200849
-0.000287898
0.0209722
0.00288893
0.0233666
-0.00306925
0.0186357
0.0020125
0.0227966
0.000333077
0.0204463
-0.00126429
0.0197795
0.00229148
0.0221291
-0.00135848
0.0180374
0.00183271
0.0216675
-0.0004521
0.0181204
0.00060131
0.0193715
0.00145378
0.0192639
-0.000851219
0.01685
0.00213756
0.0193582
-0.000523348
0.0155341
0.00154162
0.0180291
0.000128741
0.014749
0.00129117
0.0161418
0.000759246
0.0139764
0.000981282
0.0136869
0.00156832
0.0129732
0.00055785
0.0109678
0.00199506
0.0115056
0.000652726
0.00802302
0.00264021
0.00937148
0.000674095
0.00506651
0.00265551
0.0061525
0.00158059
0.00199382
0.00269573
0.00242739
0.00180685
-0.00190278
0.00333404
-0.00212245
0.00255794
-0.00611541
0.00320798
-0.00791075
0.0034941
-0.011332
0.0038193
-0.0136029
0.0034501
-0.0178025
0.00454824
-0.0210137
0.00528698
-0.0250314
0.00441739
-0.0302308
0.00635644
-0.0341692
0.00650301
-0.0404668
0.00668987
-0.0454682
0.00730411
-0.0528901
0.00889097
-0.0586668
0.00863797
-0.0673919
0.00996168
-0.0749131
0.0106654
-0.0843874
0.0118497
-0.0943982
0.0133918
-0.105192
0.0133249
-0.117102
0.016577
-0.130299
0.0152406
-0.14487
0.0211809
-0.163821
0.0236884
-0.178019
0.018088
-0.202345
0.0322182
-0.236845
0.0457218
0.0459326
0.0655987
0.013282
-0.0674937
0.0627028
0.0104034
0.0585409
0.00760005
0.0542125
0.00479412
0.0507959
0.00304339
0.0488076
0.00251467
0.0480418
0.00284641
0.0477613
0.00341267
0.0472893
0.00367338
0.046341
0.00344463
0.0450603
0.00292643
0.0437775
0.00247775
0.0427077
0.00229964
0.0418553
0.00233159
0.0410409
0.00239679
0.0402185
0.00234467
0.0394448
0.0020728
0.0388784
0.00166695
0.0386127
0.00129868
0.0387496
0.000992417
0.038882
0.000747016
0.0388606
0.000606571
0.0386198
0.000241311
0.037717
-7.5456e-05
0.0369465
-0.000252172
0.0359885
-0.00055684
0.035088
-0.000317278
0.0348128
-0.000200276
0.0343462
-4.90134e-05
0.034837
0.000362482
0.0353269
0.000494583
0.0363422
0.00103031
0.037181
0.0012633
0.0376145
0.00146105
0.0377976
0.00117561
0.0372743
0.000756744
0.0371647
0.000305419
0.0364967
-2.72912e-05
0.0366741
-7.40271e-05
0.0362601
-0.000243012
0.0367249
-0.000203264
0.0366163
-0.00039555
0.0371198
-0.000234309
0.0373635
-0.000503738
0.0377216
-0.000411969
0.0378936
-0.000361049
0.0382383
-0.00146138
0.0378301
0.00252367
0.0386283
-0.00209503
0.0390746
-0.000272934
0.0392613
-0.000899732
0.0382943
0.000238554
0.0390278
-0.000225372
0.0392735
-0.00168576
0.0378027
0.000760837
0.0395011
2.0477e-05
0.0394417
-0.00212923
0.0370786
0.00184529
0.0401178
-0.000482529
0.0384991
-0.00241658
0.0366107
0.00318585
0.0408324
-0.00143977
0.0366656
-0.000927755
0.0374922
0.00356594
0.0399847
-0.00264616
0.0347532
0.00151404
0.0390702
0.00159887
0.0363862
-0.00148655
0.0354529
0.00288323
0.0377551
-0.000457512
0.0330996
0.00178201
0.0367066
0.000957126
0.0325738
0.000750372
0.0335745
0.00267175
0.0330854
-3.07911e-05
0.030108
0.0028007
0.0323945
0.000859082
0.0278202
0.00205428
0.0300032
0.0018005
0.0259168
0.00214922
0.0268015
0.00256646
0.0238139
0.00223479
0.0227688
0.00341483
0.021222
0.00232817
0.0182135
0.00385508
0.0178588
0.00304447
0.0131054
0.00468249
0.0134604
0.00360754
0.00765792
0.00497636
0.00751842
0.00506704
0.00166761
0.00553099
0.000621496
0.00577536
-0.00568526
0.00687961
-0.00769208
0.0070189
-0.0139385
0.00765397
-0.0180027
0.00864449
-0.0238741
0.00896084
-0.0286637
0.00918546
-0.0358169
0.0105468
-0.0421686
0.0125086
-0.0496551
0.0119457
-0.0586684
0.014452
-0.0666588
0.0158667
-0.0774583
0.0162187
-0.0873205
0.0183119
-0.100003
0.0203524
-0.11152
0.021595
-0.126417
0.0235586
-0.140687
0.0258451
-0.157493
0.0282479
-0.175362
0.0316279
-0.195051
0.0322085
-0.215954
0.0389304
-0.23991
0.0374886
-0.265467
0.0483195
-0.297366
0.054395
-0.325355
0.0470271
-0.364409
0.0703863
-0.425821
0.108117
0.104376
0.0823845
0.0157436
-0.0831354
0.0801251
0.0127716
0.0764894
0.0095868
0.0726997
0.00688546
0.0697911
0.00531716
0.0680811
0.00490266
0.0673398
0.00522211
0.0668828
0.0055972
0.0661598
0.00555667
0.0649975
0.0050717
0.0635825
0.00439281
0.0622098
0.00383782
0.0610409
0.00358605
0.0600612
0.00355567
0.0590953
0.00352114
0.0581126
0.00333782
0.0572098
0.00293981
0.0565659
0.00241805
0.0562544
0.00194005
0.0563775
0.00154321
0.0565034
0.00115417
0.0564318
0.000858887
0.0561592
0.000382425
0.0551899
-0.000106687
0.0543435
-0.000300359
0.0533533
-0.000614541
0.052375
-0.000380481
0.0520824
-9.9369e-05
0.0516024
8.25561e-05
0.0521212
0.00071189
0.0526805
0.000947811
0.0537701
0.00160322
0.0546872
0.00183428
0.0551555
0.00191116
0.0553763
0.00149779
0.0548487
0.000829855
0.0547749
0.000328813
0.0541106
-0.000208232
0.0543453
-0.000177606
0.0539604
-0.000508361
0.054512
-0.00036615
0.0544719
-0.000730816
0.0550704
-0.000478999
0.0554102
-0.000811042
0.0558583
-0.000712032
0.0560924
-0.000704254
0.0565617
-0.00153662
0.0560794
0.00306563
0.0570794
-0.00338761
0.0575748
-0.000459
0.0578385
-0.00116781
0.0568056
-0.000164998
0.0575982
-0.000324207
0.0579144
-0.00194123
0.056312
0.000342892
0.0581218
0.000197231
0.0580908
-0.0023904
0.0554754
0.00143885
0.058692
4.90014e-05
0.0569284
-0.00280673
0.0547546
0.00323302
0.0592108
-0.000507102
0.0546402
-0.00147811
0.0553492
0.00435568
0.0579254
-0.00202068
0.0521246
0.00112593
0.056554
0.00311126
0.0534872
-0.00149367
0.05221
0.00371986
0.0544157
0.000792345
0.0491055
0.00200629
0.0526233
0.00280648
0.0478106
0.00128094
0.0484702
0.00435226
0.0475108
0.00129346
0.0438564
0.00392828
0.0458315
0.00282018
0.0403774
0.00312176
0.0421409
0.0041639
0.0371068
0.00369693
0.0373519
0.00519543
0.0333904
0.00431972
0.0314312
0.00621271
0.028888
0.00510244
0.0246928
0.00679293
0.0232658
0.00665253
0.0170296
0.00798143
0.0161934
0.00796979
0.00865633
0.00875053
0.00706616
0.0102435
-0.000738016
0.0100773
-0.00351436
0.0116811
-0.0120876
0.0124685
-0.0161646
0.0137212
-0.0249797
0.0145218
-0.0316356
0.0164548
-0.0402992
0.0168262
-0.0479528
0.0178461
-0.0584295
0.019771
-0.0683004
0.0233003
-0.0796495
0.0233339
-0.0928852
0.0266883
-0.105338
0.0297856
-0.121052
0.0305595
-0.136206
0.0346861
-0.154534
0.0373597
-0.17224
0.0408412
-0.193617
0.0435318
-0.215073
0.0482697
-0.239416
0.0521452
-0.265361
0.0579627
-0.294252
0.0602245
-0.323863
0.070095
-0.359029
0.0708142
-0.394675
0.0856569
-0.438912
0.0973489
-0.48073
0.0898601
-0.532542
0.121242
-0.619113
0.195735
0.186443
0.0972509
0.016719
-0.0972093
0.0955263
0.013896
0.092751
0.0110435
0.0898982
0.00882185
0.0877824
0.00767537
0.0865833
0.00742634
0.0860127
0.00761507
0.085511
0.00771379
0.0847036
0.00738266
0.0835084
0.00664886
0.0821291
0.00581579
0.080822
0.00518103
0.0796838
0.00485509
0.0786736
0.00472614
0.0776383
0.00456793
0.0765722
0.00425112
0.075614
0.00373658
0.0749645
0.00311255
0.074676
0.00253672
0.0748398
0.00206089
0.0750166
0.0015637
0.0749462
0.00114031
0.0746838
0.000585
0.073708
-3.11241e-05
0.0728205
-0.00025761
0.0718405
-0.000561308
0.0708244
-0.00035254
0.0705332
5.09825e-05
0.0700816
0.000271534
0.0706445
0.00104934
0.0713053
0.00139406
0.0724862
0.0021231
0.0735015
0.00235126
0.0740235
0.00230354
0.0742983
0.00176142
0.0737922
0.000865207
0.0737674
0.000291072
0.0731319
-0.000427781
0.0734303
-0.00036536
0.0730938
-0.000835972
0.0737362
-0.000637627
0.0737807
-0.00115525
0.0744833
-0.000843762
0.0749341
-0.00121305
0.0754826
-0.00110691
0.0757929
-0.00113043
0.0764357
-0.00175644
0.0757833
0.00381112
0.0770693
-0.00499207
0.0775911
-0.000653827
0.0779367
-0.00147249
0.0768349
-0.000596473
0.0776778
-0.000445241
0.0780692
-0.00218941
0.0763201
-8.88281e-05
0.0782258
0.000380526
0.0782264
-0.00259844
0.0753273
0.00105499
0.0787038
0.000666775
0.0767894
-0.00306565
0.0742801
0.0033662
0.0789561
0.000618598
0.073953
-0.00186944
0.0744878
0.00530118
0.077133
-0.00114413
0.0707038
0.000924704
0.0751994
0.00491321
0.0717067
-0.00120725
0.070013
0.00487024
0.072073
0.00246056
0.0660264
0.00259722
0.0693901
0.00517049
0.0638107
0.00229525
0.0640434
0.00658515
0.0625298
0.00322386
0.0580924
0.00562765
0.0596719
0.00546135
0.0532197
0.00486554
0.0544648
0.00733233
0.0483552
0.00606629
0.0478427
0.00877654
0.0427724
0.00737717
0.0397591
0.0101092
0.0360767
0.00903358
0.0305369
0.0109687
0.0278861
0.0116422
0.0199893
0.0127116
0.0178018
0.0139376
0.00833979
0.0141623
0.00512642
0.0172981
-0.00483158
0.0165302
-0.00951646
0.019716
-0.0205619
0.0203008
-0.0268968
0.022865
-0.0384796
0.0240077
-0.0479198
0.0271248
-0.059576
0.0276155
-0.0702705
0.0296155
-0.0842385
0.0323871
-0.0977739
0.0378115
-0.113108
0.0387086
-0.130661
0.0431577
-0.147628
0.048317
-0.168247
0.0497024
-0.188645
0.0563842
-0.212445
0.0597359
-0.236159
0.0662022
-0.263585
0.0694459
-0.291851
0.0775672
-0.32297
0.0827794
-0.356149
0.0915585
-0.393287
0.0964143
-0.429818
0.10829
-0.475107
0.114124
-0.518157
0.130516
-0.571968
0.149781
-0.625423
0.144398
-0.685345
0.180133
-0.79099
0.302492
0.288016
0.111128
0.0165312
-0.110798
0.109921
0.0142002
0.108162
0.0121399
0.106403
0.0106165
0.105128
0.009892
0.104461
0.00976363
0.104113
0.00977876
0.103656
0.00953531
0.10288
0.00889244
0.101801
0.00797107
0.100609
0.00704289
0.0994945
0.0063439
0.0984906
0.00593874
0.0975341
0.00570137
0.0965048
0.0054127
0.0954289
0.00496056
0.094487
0.00433904
0.0939036
0.00363891
0.0937093
0.00299977
0.0939709
0.00247714
0.0942567
0.00191477
0.0942437
0.00139271
0.0940354
0.00078454
0.093116
8.38894e-05
0.0922303
-0.00018207
0.0913048
-0.000459745
0.0902987
-0.000285811
0.0900326
0.000201065
0.0896559
0.000466951
0.0902861
0.00133677
0.0910829
0.00178945
0.0923764
0.00255432
0.0935117
0.00277233
0.0941099
0.00259565
0.0944575
0.0019209
0.0940035
0.000816923
0.0940442
0.000149259
0.0934671
-0.000726538
0.0938377
-0.000672961
0.0935732
-0.001259
0.0943117
-0.00104742
0.0944617
-0.00169626
0.0952775
-0.00135511
0.0958566
-0.00173433
0.0965172
-0.00161824
0.096916
-0.00165949
0.0977836
-0.00218209
0.0967938
0.00492408
0.0985464
-0.00709472
0.0990533
-0.000824701
0.0994875
-0.0018184
0.0983167
-0.00105246
0.0992008
-0.000589604
0.0996734
-0.00242458
0.0977654
-0.00051797
0.0997489
0.000573573
0.0997865
-0.00273503
0.0965757
0.000723428
0.100091
0.00137986
0.098025
-0.0031533
0.0951315
0.00362081
0.100009
0.00195552
0.0945518
-0.00204278
0.0948538
0.00643306
0.0975531
2.19086e-05
0.0904436
0.000977829
0.0949563
0.0070348
0.0910002
-0.000556482
0.0888218
0.00639143
0.0906892
0.00460522
0.0838326
0.00363788
0.0869824
0.0081085
0.0805582
0.00388628
0.0802863
0.00944562
0.0781447
0.00584965
0.0728295
0.00799297
0.0739424
0.00886577
0.0663918
0.00738961
0.0670389
0.0113952
0.0597512
0.00936487
0.0583902
0.0134096
0.0521093
0.011515
0.0479403
0.0152119
0.0430187
0.0142312
0.0360273
0.0164911
0.03206
0.0181187
0.0223928
0.0189804
0.0187713
0.0216092
0.00728416
0.0213067
0.00237941
0.0263138
-0.00981687
0.0249703
-0.0164518
0.0299348
-0.0300197
0.0304223
-0.0386257
0.0344753
-0.0529704
0.0361035
-0.065157
0.0406242
-0.0797583
0.0412816
-0.0933855
0.0443922
-0.11068
0.0482305
-0.127649
0.0558149
-0.146665
0.0577715
-0.168148
0.0634705
-0.189139
0.0709784
-0.214038
0.0730204
-0.23895
0.0826817
-0.267261
0.0865166
-0.295946
0.0966496
-0.32799
0.0998666
-0.361625
0.112302
-0.397533
0.118163
-0.435753
0.130228
-0.478726
0.13836
-0.518639
0.149988
-0.571176
0.164536
-0.616984
0.178257
-0.675225
0.206544
-0.73558
0.20591
-0.796613
0.240059
-0.910941
0.417991
0.400876
0.124506
0.0158201
-0.124163
0.124013
0.0142237
0.123266
0.0130399
0.122531
0.0121985
0.122026
0.011784
0.121809
0.0116059
0.121648
0.0113483
0.121298
0.0107802
0.120666
0.00987634
0.119825
0.00881748
0.118933
0.00784748
0.118107
0.00713013
0.117316
0.00666881
0.116476
0.00632681
0.115512
0.00591016
0.11449
0.00533448
0.113632
0.00463104
0.113181
0.00389519
0.113149
0.0032381
0.113562
0.00270667
0.114009
0.00212386
0.114108
0.00153964
0.113996
0.000907316
0.113194
0.000167232
0.112356
-0.000136099
0.111526
-0.000377871
0.11058
-0.00024063
0.110366
0.000294785
0.11011
0.000612756
0.110836
0.00153171
0.111802
0.00208631
0.113232
0.00285687
0.114509
0.00305239
0.115208
0.00274239
0.115649
0.00193048
0.11528
0.000639573
0.115405
-0.000136555
0.114919
-0.00114317
0.115371
-0.00113201
0.115204
-0.00180898
0.116044
-0.00162099
0.116319
-0.00237826
0.117256
-0.00203678
0.117981
-0.00239969
0.118765
-0.00226864
0.119259
-0.00230881
0.120442
-0.0029185
0.134327
-0.0088146
0.121342
0.00549789
0.121761
-0.000911837
0.122297
-0.00222207
0.12106
-0.00153724
0.121976
-0.00076455
0.122538
-0.00264845
0.120463
-0.00093695
0.122503
0.000772153
0.122587
-0.00279139
0.119041
0.000462631
0.122671
0.00218761
0.120461
-0.00304167
0.11714
0.0040192
0.122199
0.00350973
0.116278
-0.00195205
0.11629
0.00776767
0.119034
0.00150219
0.111206
0.00133794
0.115689
0.00948842
0.111248
0.000513392
0.108529
0.00832056
0.110169
0.00726275
0.102449
0.00519059
0.105342
0.0116519
0.0980195
0.00612209
0.0971877
0.0129785
0.0943722
0.00922876
0.0881135
0.0110861
0.0887217
0.0130774
0.0800137
0.0107567
0.0800257
0.0163929
0.0715105
0.0136471
0.0692665
0.0191333
0.06174
0.0167739
0.0563867
0.0215514
0.0502076
0.0207219
0.0417507
0.0233746
0.0364785
0.026081
0.0250484
0.0267775
0.0200401
0.0309504
0.0065756
0.030131
7.7184e-05
0.0372057
-0.0142594
0.0352964
-0.0226793
0.0421834
-0.0385878
0.0426468
-0.0492241
0.0483224
-0.0660341
0.0505101
-0.0806066
0.0565997
-0.0977626
0.0574337
-0.113832
0.0616913
-0.133853
0.0667005
-0.153539
0.0765975
-0.175396
0.0796864
-0.199822
0.0866397
-0.223694
0.0966325
-0.251517
0.0991551
-0.279419
0.112061
-0.310389
0.115847
-0.342057
0.130203
-0.376214
0.132284
-0.412644
0.149905
-0.450105
0.155057
-0.489836
0.170446
-0.534812
0.182226
-0.573006
0.190095
-0.628268
0.21752
-0.670674
0.222727
-0.726285
0.260573
-0.78681
0.267673
-0.84076
0.292823
-0.950186
0.528647
0.513143
0.13776
0.0150548
-0.137345
0.138153
0.0142191
0.138293
0.013747
0.138365
0.0133431
0.13845
0.0130322
0.138572
0.0126817
0.138586
0.012116
0.138396
0.0112623
0.138012
0.0101866
0.137518
0.00907468
0.137012
0.0081185
0.136536
0.00741448
0.136001
0.00691145
0.135318
0.00646949
0.134462
0.00593691
0.133549
0.00526737
0.132832
0.00452263
0.132573
0.00379719
0.132759
0.00316724
0.133368
0.00266383
0.134018
0.00210496
0.13428
0.00150156
0.134301
0.000874956
0.133667
0.000139249
0.132922
-0.000192399
0.132223
-0.000392971
0.131387
-0.000285702
0.13125
0.000270882
0.131158
0.000648733
0.132009
0.00158756
0.133176
0.0022335
0.134766
0.00298716
0.136204
0.00314553
0.137027
0.00270044
0.137582
0.00174968
0.137334
0.000295716
0.137563
-0.00059594
0.1372
-0.00170552
0.137745
-0.00176215
0.137701
-0.00250646
0.138649
-0.00237311
0.139069
-0.00321563
0.140137
-0.00290283
0.141023
-0.00322544
0.141944
-0.00307266
0.14254
-0.00308847
0.143713
-0.00364854
0.142857
-0.00779196
0.144805
0.00311285
0.145439
-0.00122817
0.146096
-0.00269948
0.144804
-0.00205487
0.145744
-0.000977137
0.146409
-0.0028643
0.144166
-0.00134219
0.146244
0.00096846
0.146392
-0.00276587
0.142501
0.000280884
0.146223
0.00307983
0.143894
-0.0027162
0.140112
0.00456811
0.145338
0.00527193
0.138969
-0.00156941
0.138644
0.00930159
0.141437
0.00330088
0.132882
0.00203359
0.137302
0.0122601
0.132382
0.00202892
0.129094
0.0106627
0.1305
0.0104337
0.121903
0.00728115
0.12453
0.0157875
0.116301
0.00902658
0.114896
0.0171786
0.111411
0.0133658
0.104196
0.0149143
0.104317
0.018077
0.0944616
0.0149619
0.0938707
0.0222888
0.0841622
0.018884
0.0810883
0.0258932
0.0723809
0.023094
0.0659244
0.0290461
0.0585879
0.0284122
0.0487837
0.0314999
0.0423637
0.0353794
0.0293396
0.0359309
0.0231669
0.041749
0.00796819
0.0403874
0.000189659
0.0496695
-0.0159556
0.047174
-0.0257362
0.0560465
-0.0435163
0.0565011
-0.0556334
0.0638659
-0.0742668
0.0665829
-0.0904839
0.0743162
-0.109404
0.0752811
-0.12699
0.0805933
-0.148653
0.0867128
-0.169811
0.0989164
-0.193093
0.103043
-0.218855
0.111054
-0.243801
0.123477
-0.272464
0.126025
-0.301076
0.142243
-0.332027
0.145046
-0.363842
0.164035
-0.396689
0.163272
-0.432417
0.186887
-0.467245
0.189273
-0.50399
0.207722
-0.546221
0.223257
-0.576726
0.222652
-0.629268
0.267626
-0.661648
0.257309
-0.706932
0.304169
-0.760241
0.322307
-0.79961
0.330923
-0.89032
0.620645
0.611655
0.151148
0.0144503
-0.150331
0.152437
0.0141768
0.153206
0.014045
0.153823
0.0137928
0.15431
0.0134108
0.154681
0.0128322
0.154889
0.01201
0.154941
0.010972
0.154906
0.00983707
0.154845
0.0087625
0.154785
0.00786884
0.154687
0.00718643
0.154426
0.00663446
0.15392
0.00608909
0.153203
0.00544914
0.152444
0.00470929
0.15192
0.00395544
0.151897
0.00327801
0.152344
0.00271528
0.153183
0.00227344
0.154061
0.0017773
0.154524
0.00119708
0.154707
0.000601812
0.154281
-9.32966e-05
0.153672
-0.000439591
0.153129
-0.000597007
0.152446
-0.000505657
0.152413
5.35492e-05
0.152522
0.000498524
0.153527
0.00144065
0.154918
0.00216426
0.156687
0.00288662
0.158301
0.00299524
0.159271
0.00241964
0.159959
0.00133584
0.159867
-0.000250912
0.160221
-0.00125451
0.160016
-0.00243651
0.160665
-0.00257709
0.160769
-0.00336678
0.161833
-0.00331278
0.162419
-0.00421927
0.163629
-0.00396183
0.164696
-0.00422336
0.165766
-0.00404026
0.166472
-0.00400377
0.167684
-0.00442162
0.167311
-0.00722637
0.168999
0.000945447
0.169818
-0.00174344
0.170626
-0.00326916
0.169298
-0.0026087
0.170262
-0.00123378
0.171053
-0.00307758
0.168655
-0.00173452
0.170756
0.00115089
0.171001
-0.00266492
0.166771
0.000175038
0.170572
0.00403466
0.168171
-0.00217825
0.163919
0.00525545
0.16931
0.00721357
0.162539
-0.000889919
0.16185
0.0110067
0.164723
0.00539597
0.15547
0.00306158
0.159817
0.0153028
0.154468
0.00397907
0.150623
0.0133811
0.151828
0.0140721
0.142393
0.00988609
0.144794
0.0204442
0.135714
0.0125641
0.133783
0.0219753
0.129702
0.0181949
0.121587
0.0194122
0.121315
0.0237642
0.110411
0.0199129
0.109339
0.0289495
0.0985779
0.0249416
0.0948377
0.0335188
0.0851388
0.0302906
0.0777949
0.0374752
0.0695457
0.0370621
0.0586709
0.0405878
0.0514326
0.0456886
0.0371721
0.0460799
0.0302593
0.0535867
0.0137913
0.051607
0.00528762
0.0631563
-0.0120763
0.0600111
-0.0225149
0.0708265
-0.041391
0.0712062
-0.0541176
0.0802418
-0.0735814
0.0833259
-0.0903192
0.0926555
-0.10982
0.0936387
-0.127586
0.0997657
-0.14936
0.106737
-0.170274
0.121055
-0.193072
0.125938
-0.218047
0.134588
-0.24174
0.14919
-0.268632
0.151019
-0.295153
0.170433
-0.322892
0.170919
-0.351551
0.194848
-0.379227
0.188965
-0.410393
0.21939
-0.438157
0.216378
-0.467285
0.237432
-0.502064
0.256741
-0.519299
0.242087
-0.564051
0.309777
-0.580958
0.276561
-0.609545
0.330957
-0.649766
0.363947
-0.669883
0.349684
-0.731745
0.683856
0.685691
0.164718
0.013786
-0.163265
0.166684
0.0137634
0.167851
0.0136417
0.168791
0.0133189
0.16954
0.0127864
0.170134
0.0120277
0.170594
0.0110732
0.170992
0.0100006
0.171399
0.00892797
0.17183
0.00796252
0.172237
0.00715917
0.172516
0.00649614
0.172526
0.00588423
0.172209
0.00523139
0.171657
0.00449048
0.171092
0.00369576
0.170805
0.00295031
0.171052
0.00233907
0.171788
0.00186487
0.172878
0.00150142
0.173996
0.00108695
0.174684
0.000558645
0.175048
1.01301e-05
0.174854
-0.000620592
0.174415
-0.0009666
0.174046
-0.00108276
0.173552
-0.000990705
0.173646
-0.000439722
0.173982
7.61544e-05
0.175169
0.00101522
0.176797
0.00180146
0.178759
0.00248587
0.180556
0.00253773
0.181691
0.00184456
0.18253
0.000644026
0.182627
-0.00103735
0.183127
-0.00213736
0.183112
-0.00335892
0.183877
-0.00359046
0.184156
-0.00440624
0.185345
-0.00444961
0.18612
-0.00540238
0.187483
-0.00522366
0.188749
-0.0054067
0.189987
-0.00518269
0.190819
-0.00506684
0.192117
-0.00528438
0.19219
-0.00707074
0.193689
-0.00106831
0.194682
-0.00244188
0.195676
-0.00395159
0.194343
-0.0032075
0.195339
-0.00154499
0.19629
-0.00329995
0.193768
-0.00212414
0.195887
0.00130019
0.196277
-0.002507
0.191739
0.000126865
0.195616
0.00501446
0.19322
-0.00144938
0.188514
0.00604654
0.194085
0.00928223
0.187001
6.37833e-05
0.185946
0.0128255
0.188959
0.0077345
0.179088
0.00438104
0.183384
0.0185306
0.177707
0.00630853
0.173369
0.0163897
0.174459
0.0180778
0.16429
0.0129237
0.166566
0.0254845
0.156766
0.0166285
0.154425
0.0272221
0.149905
0.0235679
0.141034
0.0244304
0.140549
0.0299462
0.128799
0.0254176
0.127471
0.0361329
0.115919
0.0315673
0.1118
0.0417106
0.101437
0.0380419
0.0935689
0.0464674
0.0848082
0.0462742
0.0733074
0.0501902
0.06576
0.0565003
0.050815
0.0566698
0.0437895
0.0658383
0.0267352
0.0631041
0.0182937
0.0768802
0.000545379
0.0729728
-0.00959549
0.0855691
-0.0285195
0.085711
-0.0407093
0.0963079
-0.0597246
0.099457
-0.0755569
0.110195
-0.0941567
0.111022
-0.110479
0.117588
-0.130544
0.124955
-0.149217
0.141014
-0.169361
0.146209
-0.191193
0.154884
-0.211127
0.171265
-0.233511
0.171401
-0.255098
0.19379
-0.276494
0.190331
-0.298871
0.219525
-0.317873
0.205855
-0.341119
0.244064
-0.358186
0.232736
-0.376095
0.255983
-0.400036
0.279281
-0.400366
0.244776
-0.434209
0.340848
-0.43312
0.277966
-0.442006
0.33793
-0.466977
0.390439
-0.467593
0.348852
-0.497505
0.715182
0.730779
0.178327
0.0126672
-0.176315
0.180647
0.0126961
0.182072
0.0124517
0.183227
0.0119866
0.184195
0.0113227
0.185049
0.0104829
0.185849
0.00952503
0.186687
0.00853609
0.1876
0.00760211
0.188543
0.00677496
0.189404
0.00605658
0.190033
0.00539428
0.190296
0.00470763
0.190175
0.00394503
0.189816
0.00311394
0.189485
0.00228412
0.189475
0.00156413
0.190019
0.00102639
0.191059
0.000643776
0.192408
0.000356985
0.193762
2.07371e-05
0.194684
-0.000446086
0.19524
-0.000945162
0.195289
-0.0015042
0.195046
-0.00183928
0.194861
-0.0019216
0.194579
-0.00181534
0.194821
-0.00127739
0.195398
-0.000691809
0.196785
0.000245031
0.198655
0.00107879
0.200812
0.00172438
0.202792
0.00171897
0.204103
0.000929021
0.205107
-0.000361553
0.205423
-0.00209278
0.206091
-0.00326324
0.206293
-0.00449133
0.207188
-0.00481353
0.207663
-0.00564051
0.208989
-0.00579328
0.209974
-0.00677942
0.211507
-0.00669997
0.212991
-0.00679031
0.214416
-0.00651297
0.215397
-0.00629396
0.216819
-0.00627678
0.217311
-0.00728863
0.218675
-0.00297338
0.219865
-0.00334597
0.221092
-0.00477449
0.219796
-0.00386984
0.22084
-0.00193291
0.221999
-0.00355567
0.2194
-0.00253737
0.221543
0.00138276
0.222146
-0.00232777
0.217357
9.77861e-05
0.221321
0.00596054
0.219039
-0.000576973
0.213929
0.00687991
0.219715
0.011396
0.212453
0.00123652
0.211064
0.0146672
0.214312
0.0102276
0.203958
0.00590916
0.208262
0.0218147
0.202416
0.0089132
0.197706
0.0195491
0.198822
0.0222919
0.188099
0.016249
0.190417
0.0307006
0.180111
0.0210374
0.177557
0.0326922
0.172844
0.0292492
0.163451
0.0297304
0.163023
0.0363362
0.15074
0.0311814
0.149482
0.0434882
0.137521
0.0383921
0.133432
0.0500435
0.122864
0.0458959
0.114976
0.0555091
0.10625
0.0555058
0.0947181
0.0597083
0.0875263
0.0671476
0.0726138
0.0669826
0.0662679
0.0777095
0.04948
0.0740252
0.0420598
0.0898792
0.0249347
0.0850527
0.0162092
0.0991541
-0.00154931
0.0988009
-0.0119073
0.11077
-0.0290663
0.113565
-0.0424469
0.125392
-0.0585704
0.125854
-0.0717828
0.132393
-0.0883192
0.13955
-0.10281
0.156846
-0.11826
0.161819
-0.134812
0.169803
-0.148807
0.187524
-0.16441
0.184901
-0.178832
0.210081
-0.191564
0.20096
-0.205525
0.235934
-0.213646
0.211734
-0.227093
0.259034
-0.231721
0.236598
-0.237006
0.261978
-0.249197
0.289957
-0.232252
0.23036
-0.25521
0.360857
-0.237634
0.263035
-0.228349
0.326615
-0.240709
0.404429
-0.226234
0.332831
-0.228942
0.719379
0.750181
0.191912
0.0109327
-0.189582
0.194263
0.0109846
0.195873
0.0106855
0.197229
0.0101727
0.198455
0.00949134
0.199644
0.00868733
0.200874
0.00782445
0.202215
0.00697237
0.203655
0.00617845
0.20509
0.0054508
0.206358
0.00475769
0.207293
0.00404037
0.207788
0.00324423
0.207873
0.00236095
0.20774
0.00144423
0.207685
0.000589391
0.207989
-0.000101681
0.20885
-0.00057688
0.210195
-0.00088592
0.2118
-0.00111444
0.213379
-0.00139197
0.214533
-0.0018045
0.215283
-0.002263
0.215571
-0.00275911
0.215541
-0.0030805
0.215543
-0.00314248
0.215486
-0.00301624
0.215893
-0.0024929
0.216715
-0.0018449
0.218313
-0.000906556
0.220416
-4.01547e-05
0.22276
0.000568791
0.224913
0.000511343
0.226403
-0.000348197
0.227582
-0.00169347
0.22814
-0.00342558
0.228994
-0.00463326
0.229436
-0.00583752
0.230473
-0.0062456
0.231162
-0.00707517
0.232636
-0.00734482
0.233851
-0.00835754
0.235571
-0.00839718
0.237292
-0.00838452
0.238927
-0.00804108
0.240083
-0.00770025
0.241667
-0.00743439
0.242564
-0.00785521
0.243067
-0.00403547
0.245272
-0.00527801
0.246779
-0.00577152
0.245577
-0.00462814
0.246695
-0.00243591
0.24812
-0.00388634
0.245512
-0.00302083
0.247692
0.00134372
0.248595
-0.00218414
0.243642
2.49758e-05
0.247719
0.0067889
0.245692
0.000360802
0.240264
0.00766446
0.246319
0.0134389
0.239064
0.00253644
0.237408
0.0164057
0.241018
0.0127465
0.230379
0.00752002
0.234785
0.0249807
0.228988
0.0116396
0.224085
0.022666
0.225425
0.0264978
0.2144
0.0196555
0.216988
0.0358182
0.206477
0.0255357
0.203976
0.0380849
0.1994
0.0349229
0.189806
0.0349932
0.189782
0.0425659
0.177374
0.036823
0.176598
0.0505758
0.16471
0.0449535
0.161155
0.0579941
0.150942
0.0533034
0.143637
0.0639843
0.135592
0.0641141
0.124721
0.0684481
0.118641
0.0768702
0.104567
0.0762133