/*--------------------------------*- C++ -*----------------------------------*\
| =========                 |                                                 |
| \\      /  F ield         | OpenFOAM: The Open Source CFD Toolbox           |
|  \\    /   O peration     | Version:  2412                                  |
|   \\  /    A nd           | Website:  www.openfoam.com                      |
|    \\/     M anipulation  |                                                 |
\*---------------------------------------------------------------------------*/
FoamFile
{
    version     2.0;
    format      ascii;
    arch        "LSB;label=32;scalar=64";
    class       volVectorField;
    location    "0.145";
    object      U_0;
}
// * * * * * * * * * * * * * * * * * * * * * * * * * * * * * * * * * * * * * //

dimensions      [0 1 -1 0 0 0 0];

internalField   nonuniform List<vector> 
12600
(
(23.7919 0 -1.88769)
(10.2475 -4.9617e-20 -2.24584)
(4.71402 -3.01188e-20 -2.2435)
(2.57136 0 -1.76083)
(1.72111 -7.97477e-23 -1.24882)
(1.27653 0 -0.906915)
(0.979448 -2.63425e-20 -0.686789)
(0.762619 0 -0.534076)
(0.598071 0 -0.421044)
(0.470213 0 -0.334147)
(0.368377 0 -0.266251)
(0.28551 -1.05413e-19 -0.212207)
(0.217352 -1.09746e-19 -0.16787)
(0.160691 0 -0.130939)
(0.113107 2.29708e-19 -0.0998443)
(0.0727977 0 -0.0734322)
(0.0384123 4.70419e-22 -0.0508398)
(0.00888168 0 -0.0314173)
(-0.0164879 1.169e-19 -0.0144969)
(-0.0384316 0 7.97562e-05)
(-0.0575899 0 0.0129592)
(-0.0742274 0 0.0236908)
(-0.0882908 4.50235e-19 0.0332373)
(-0.100696 -4.43227e-19 0.0416862)
(-0.1112 -3.50021e-22 0.049004)
(-0.120365 2.13782e-19 0.0553537)
(-0.128076 0 0.0606447)
(-0.134319 0 0.0651934)
(-0.139649 0 0.0690185)
(-0.143718 -3.90575e-19 0.0721201)
(-0.146932 -7.61148e-19 0.0746209)
(-0.14912 0 0.0765633)
(-0.150488 0 0.0780055)
(-0.150652 -3.50802e-19 0.0787198)
(-0.149347 -3.40774e-19 0.078554)
(-0.146675 0 0.077504)
(-0.142838 0 0.0758979)
(-0.139803 -6.21168e-19 0.0748096)
(-0.140096 0 0.0754896)
(-0.145712 2.61616e-22 0.0792188)
(-0.15683 -5.62876e-19 0.0853818)
(-0.167073 -5.45857e-19 0.0900283)
(-0.164446 0 0.0875163)
(-0.135571 -5.16479e-19 0.0703512)
(-0.0702365 -5.02277e-19 0.0315442)
(0.0339429 9.75132e-19 -0.0274974)
(0.152743 -9.36071e-19 -0.0888851)
(0.246914 0 -0.13698)
(0.290145 8.28381e-19 -0.155548)
(0.256961 -7.61362e-19 -0.132242)
(0.119904 0 -0.0464728)
(-0.132853 1.55196e-21 0.0997571)
(-0.461522 5.58809e-19 0.28349)
(-0.802892 0 0.458577)
(-1.06269 -1.07063e-18 0.59306)
(-1.14517 0 0.62179)
(-1.01061 0 0.542549)
(-0.739151 4.09248e-21 0.391466)
(-0.441883 2.75027e-21 0.228282)
(-0.20258 1.39255e-18 0.100051)
(-0.0441338 -1.36366e-18 0.016165)
(0.04605 2.63022e-18 -0.0308783)
(0.0851105 0 -0.0505347)
(0.0922691 2.39919e-18 -0.0534333)
(0.082513 2.28446e-18 -0.0477999)
(0.0670252 -4.35335e-18 -0.0393088)
(0.0531438 2.0768e-18 -0.0316836)
(0.0438803 0 -0.0267936)
(0.038489 0 -0.0239782)
(0.0348112 0 -0.0220165)
(0.0314029 0 -0.0201656)
(0.0275729 0 -0.0180957)
(0.0234098 -3.1677e-18 -0.015931)
(0.0194856 3.03661e-18 -0.0138867)
(0.0164385 0 -0.0123699)
(0.0148411 0 -0.0116512)
(0.0150146 2.6682e-18 -0.0120478)
(0.0172433 -5.26656e-22 -0.0135495)
(0.0215314 4.90738e-18 -0.0161239)
(0.0276809 0 -0.0197216)
(0.0353687 0 -0.0241588)
(0.0442109 0 -0.0292183)
(0.0537527 -8.37698e-22 -0.0346466)
(0.0635798 0 -0.0402147)
(0.0732864 0 -0.0457002)
(0.0826009 3.63132e-18 -0.050957)
(0.0913061 -5.88959e-22 -0.0558688)
(0.0993244 0 -0.0603986)
(0.106651 0 -0.0645487)
(0.113463 -6.01799e-18 -0.068423)
(0.119938 -5.73302e-18 -0.0721233)
(0.126274 -5.45722e-18 -0.0757636)
(0.132651 -5.19381e-18 -0.0794465)
(0.139454 -7.20864e-22 -0.0833935)
(0.147093 -6.87814e-22 -0.0878325)
(0.15585 4.46679e-18 -0.0929188)
(0.16562 0 -0.0985838)
(0.176114 0 -0.104667)
(0.187099 0 -0.111033)
(0.198453 1.45448e-17 -0.117621)
(0.210341 -6.90139e-18 -0.12452)
(0.222692 6.5481e-18 -0.131693)
(0.235837 6.2115e-18 -0.139324)
(0.24943 0 -0.14722)
(0.264012 0 -0.155686)
(0.278923 0 -0.164348)
(0.295001 1.00239e-17 -0.173683)
(0.311422 0 -0.18322)
(0.328948 -8.98656e-18 -0.193397)
(0.34748 0 -0.204155)
(0.366096 0 -0.214961)
(0.388186 7.61594e-18 -0.227836)
(0.407191 0 -0.238865)
(0.435372 0 -0.255305)
(0.455305 0 -0.266813)
(0.491098 -1.21447e-17 -0.287696)
(0.517959 0 -0.303253)
(0.570052 1.08031e-17 -0.333193)
(0.596358 0 -0.349131)
(0.838062 4.08279e-22 -0.486195)
(36.9099 -1.66673e-20 -2.98161)
(26.9947 2.91922e-20 -4.92732)
(18.1362 1.78172e-20 -5.87762)
(12.1134 0 -5.31475)
(8.50542 -2.54838e-21 -4.22015)
(6.28461 1.59994e-20 -3.27649)
(4.83022 2.74752e-20 -2.57472)
(3.80779 -3.46586e-20 -2.05445)
(3.04749 0 -1.65764)
(2.46107 0 -1.34658)
(1.99677 0 -1.09802)
(1.62187 0 -0.896014)
(1.31442 0 -0.72885)
(1.05873 0 -0.588775)
(0.843684 -1.09961e-21 -0.470234)
(0.661155 0 -0.369085)
(0.505031 1.21733e-19 -0.282191)
(0.370605 0 -0.207151)
(0.254369 -2.42664e-19 -0.141823)
(0.153395 2.40709e-19 -0.0851236)
(0.0647401 0 -0.0353848)
(-0.0119618 2.36039e-19 0.00851776)
(-0.0784951 -2.33682e-19 0.0463712)
(-0.137429 2.29956e-19 0.0796752)
(-0.188711 -2.25865e-19 0.108486)
(-0.233472 0 0.134017)
(-0.272122 2.16321e-19 0.156007)
(-0.304925 0 0.174831)
(-0.333377 0 0.190973)
(-0.356867 0 0.204425)
(-0.376468 3.93466e-19 0.215642)
(-0.392071 0 0.224417)
(-0.404138 0 0.231051)
(-0.411975 0 0.234929)
(-0.414544 0 0.23605)
(-0.412339 0 0.23457)
(-0.406546 0 0.231417)
(-0.40282 6.39107e-19 0.230032)
(-0.407887 0 0.234675)
(-0.427284 1.19431e-18 0.247154)
(-0.459023 1.15468e-18 0.265932)
(-0.482487 5.58707e-19 0.277777)
(-0.464635 0 0.261321)
(-0.368597 0 0.195992)
(-0.163928 1.02602e-18 0.0661647)
(0.146127 -9.95673e-19 -0.117896)
(0.485055 9.54403e-19 -0.303835)
(0.73797 0 -0.437896)
(0.81906 -8.45514e-19 -0.471376)
(0.655453 0 -0.352991)
(0.169584 0 -0.0421062)
(-0.638849 -6.25375e-19 0.441949)
(-1.623 0 1.01608)
(-2.57574 0 1.53618)
(-3.23068 1.08174e-18 1.88784)
(-3.3427 0 1.91796)
(-2.87708 0 1.61001)
(-2.05897 6.8454e-21 1.12366)
(-1.19639 1.39842e-18 0.631897)
(-0.511075 -2.6602e-21 0.253699)
(-0.0595715 0 0.00966087)
(0.19444 -2.63151e-18 -0.124501)
(0.301063 -2.51495e-18 -0.177928)
(0.316699 0 -0.182495)
(0.285545 -4.55297e-18 -0.163139)
(0.240074 1.09732e-22 -0.136818)
(0.200518 0 -0.114385)
(0.17476 1.96771e-18 -0.100091)
(0.159934 0 -0.0918386)
(0.14985 0 -0.0861219)
(0.140614 0 -0.0807693)
(0.130606 0 -0.0749069)
(0.120342 6.23817e-18 -0.0690233)
(0.111479 -2.98413e-18 -0.0639845)
(0.105963 0 -0.060717)
(0.105131 0 -0.0605005)
(0.110199 2.61002e-18 -0.0635739)
(0.121557 -8.5825e-22 -0.0702618)
(0.138965 -8.21325e-22 -0.0804959)
(0.161807 0 -0.0938151)
(0.189002 0 -0.109593)
(0.219317 0 -0.12712)
(0.251362 -1.29548e-21 -0.145595)
(0.283898 -3.84552e-18 -0.164315)
(0.315771 3.67415e-18 -0.182618)
(0.34624 -3.50861e-18 -0.200096)
(0.374766 -8.88696e-22 -0.216438)
(0.401221 -3.18923e-18 -0.23159)
(0.425731 0 -0.245622)
(0.448921 5.78433e-18 -0.258916)
(0.471423 0 -0.271821)
(0.493882 5.23248e-18 -0.284722)
(0.516971 0 -0.297995)
(0.541912 -9.45e-18 -0.312373)
(0.569967 -4.48871e-18 -0.328558)
(0.601828 0 -0.346955)
(0.63709 0 -0.36728)
(0.674783 -7.68015e-18 -0.389001)
(0.714289 7.28654e-18 -0.411733)
(0.755213 -1.38241e-17 -0.435299)
(0.798181 6.55449e-18 -0.460023)
(0.842857 -6.21338e-18 -0.485758)
(0.890415 0 -0.513129)
(0.939583 5.57742e-18 -0.541456)
(0.992317 0 -0.571805)
(1.04621 0 -0.602854)
(1.10437 -9.47018e-18 -0.636326)
(1.16357 0 -0.670438)
(1.22708 1.76036e-21 -0.706982)
(1.29343 8.02213e-18 -0.745236)
(1.36107 0 -0.784157)
(1.43934 0 -0.829339)
(1.5082 0 -0.868994)
(1.60722 6.40399e-18 -0.926209)
(1.6766 -1.20906e-17 -0.966266)
(1.80411 1.14171e-17 -1.03989)
(1.88854 0 -1.0894)
(2.07129 -1.01468e-17 -1.19414)
(2.14112 0 -1.24066)
(2.87973 1.79622e-17 -1.66693)
(40.417 3.61138e-20 -3.20883)
(36.2214 -9.17637e-21 -4.99697)
(29.6414 9.56822e-21 -6.75306)
(22.9365 0 -7.26326)
(17.403 -7.23243e-21 -6.73205)
(13.3242 1.05518e-21 -5.78308)
(10.4191 0 -4.82566)
(8.30937 3.28904e-20 -4.00168)
(6.7244 0 -3.32328)
(5.49757 4.3434e-20 -2.76765)
(4.52515 0 -2.30951)
(3.73932 0 -1.92824)
(3.09388 0 -1.60803)
(2.55659 0 -1.33668)
(2.10437 -1.12263e-19 -1.10493)
(1.72018 0 -0.905631)
(1.39122 0 -0.733239)
(1.10763 0 -0.583402)
(0.861846 1.14834e-19 -0.452468)
(0.64793 -9.92192e-22 -0.337932)
(0.46035 0 -0.237379)
(0.297199 -8.04476e-22 -0.147342)
(0.154024 0 -0.0694221)
(0.0273823 -2.16818e-19 -0.000680734)
(-0.083152 0 0.0601764)
(-0.180307 0 0.11362)
(-0.265699 -2.05186e-19 0.159782)
(-0.339043 0 0.200463)
(-0.403141 0 0.23576)
(-0.457522 -3.81544e-19 0.265863)
(-0.50392 0 0.291478)
(-0.542348 0 0.312471)
(-0.57344 0 0.329298)
(-0.596439 0 0.341211)
(-0.610164 3.32035e-19 0.347738)
(-0.615876 0 0.349207)
(-0.615054 0 0.34867)
(-0.616025 -6.04336e-19 0.35187)
(-0.630117 0 0.363354)
(-0.663901 -1.13017e-18 0.385979)
(-0.712737 -4.41997e-22 0.414673)
(-0.7438 -5.28955e-19 0.427162)
(-0.708587 0 0.38492)
(-0.549935 0 0.261395)
(-0.221173 -4.85098e-19 0.0396903)
(0.265427 0 -0.251361)
(0.785927 -9.02828e-19 -0.529666)
(1.15939 0 -0.70453)
(1.24065 -1.50007e-21 -0.700611)
(0.912749 0 -0.428137)
(0.0609554 0 0.149294)
(-1.27482 0 0.967712)
(-2.83061 -5.38317e-19 1.86787)
(-4.2614 0 2.61672)
(-5.166 0 3.03462)
(-5.21321 0 2.95074)
(-4.41856 0 2.37268)
(-3.11965 2.53768e-18 1.58566)
(-1.77664 0 0.840393)
(-0.713277 -2.11375e-21 0.283772)
(-0.0120493 0 -0.0684885)
(0.380776 1.24058e-18 -0.256395)
(0.543347 2.37122e-18 -0.325452)
(0.564094 0 -0.32417)
(0.51317 4.29077e-18 -0.290313)
(0.441634 2.04056e-18 -0.249165)
(0.380527 0 -0.215974)
(0.341429 -1.8531e-18 -0.195311)
(0.319302 0 -0.183482)
(0.304629 0 -0.175316)
(0.291536 0 -0.167841)
(0.277841 0 -0.159996)
(0.264662 6.62053e-24 -0.152531)
(0.254556 2.80633e-18 -0.147074)
(0.250364 0 -0.145263)
(0.254508 0 -0.148278)
(0.268284 -8.40005e-22 -0.157168)
(0.292229 -4.69502e-18 -0.17198)
(0.325885 -2.24817e-18 -0.192299)
(0.368067 0 -0.217324)
(0.416914 0 -0.245965)
(0.470367 0 -0.277041)
(0.526178 -7.54768e-18 -0.309268)
(0.582378 9.90316e-22 -0.341553)
(0.637192 -3.44664e-18 -0.372907)
(0.689525 0 -0.402766)
(0.738647 -3.13743e-18 -0.430734)
(0.784471 2.9899e-18 -0.456829)
(0.827367 0 -0.481281)
(0.868435 0 -0.504788)
(0.908805 5.15361e-18 -0.527961)
(0.949575 0 -0.551471)
(0.991988 4.65611e-18 -0.576013)
(1.03805 8.66172e-22 -0.602826)
(1.08984 4.20099e-18 -0.633001)
(1.14824 -3.98889e-18 -0.667037)
(1.21258 0 -0.70437)
(1.28113 7.1874e-18 -0.744092)
(1.35305 -6.81802e-18 -0.785661)
(1.42762 1.29307e-17 -0.828814)
(1.50604 0 -0.87415)
(1.58756 -5.8091e-18 -0.921364)
(1.67436 0 -0.971554)
(1.76401 -5.21528e-18 -1.02348)
(1.86017 4.93799e-18 -1.07907)
(1.95833 0 -1.13592)
(2.06433 8.85224e-18 -1.19718)
(2.17192 0 -1.25949)
(2.28764 1.5848e-17 -1.32638)
(2.40771 -7.4964e-18 -1.3959)
(2.53095 0 -1.46719)
(2.67159 0 -1.54856)
(2.7966 0 -1.62101)
(2.97339 -1.04215e-21 -1.7233)
(3.0961 1.12936e-17 -1.7946)
(3.32482 -1.06597e-17 -1.92708)
(3.46317 0 -2.00882)
(3.78944 -9.47278e-18 -2.19531)
(3.8814 0 -2.26629)
(5.07101 -4.50706e-22 -2.9448)
(40.6642 -1.9239e-20 -3.65977)
(39.8677 -6.64076e-21 -4.70653)
(36.6187 3.07961e-21 -6.44754)
(31.734 -1.14225e-20 -7.73717)
(26.4035 -1.83194e-20 -8.10201)
(21.5293 -3.3196e-20 -7.70519)
(17.4902 0 -6.92326)
(14.2823 0 -6.04094)
(11.7538 0 -5.20003)
(9.74432 -4.11353e-20 -4.45062)
(8.12611 0 -3.80002)
(6.80509 0 -3.23985)
(5.71285 0 -2.75774)
(4.79946 0 -2.34162)
(4.02805 0 -1.98109)
(3.37094 -1.06346e-19 -1.66746)
(2.80704 1.07333e-19 -1.39355)
(2.31997 0 -1.1535)
(1.89698 0 -0.942236)
(1.52805 -2.15419e-19 -0.756061)
(1.20434 2.12777e-19 -0.591591)
(0.920686 -2.1135e-19 -0.444978)
(0.671332 2.07815e-19 -0.315893)
(0.450846 2.05305e-19 -0.201467)
(0.257231 -2.0116e-19 -0.0989372)
(0.085328 1.97356e-19 -0.00942928)
(-0.0654826 0 0.0703262)
(-0.197064 -1.89104e-19 0.139909)
(-0.313101 0 0.200836)
(-0.413136 3.6111e-19 0.253817)
(-0.499594 0 0.299601)
(-0.572736 0 0.338389)
(-0.633638 0 0.370539)
(-0.682045 -3.23113e-19 0.395158)
(-0.716586 -3.1409e-19 0.412073)
(-0.738726 0 0.422105)
(-0.751101 0 0.428676)
(-0.764625 5.7147e-19 0.43941)
(-0.792355 0 0.460651)
(-0.840727 4.46841e-22 0.495182)
(-0.903711 -5.16104e-19 0.531711)
(-0.938937 0 0.539578)
(-0.886311 0 0.466514)
(-0.673871 0 0.284042)
(-0.24564 0 -0.0243465)
(0.377891 -8.87322e-19 -0.40756)
(1.03658 0 -0.750512)
(1.49022 8.09881e-19 -0.930217)
(1.53714 7.5624e-19 -0.844826)
(1.01341 0 -0.386177)
(-0.204412 0 0.476471)
(-2.01225 0 1.61178)
(-4.025 5.07868e-19 2.77249)
(-5.77889 -4.77099e-19 3.6443)
(-6.78133 -9.51018e-19 4.02218)
(-6.69422 0 3.74357)
(-5.58537 -1.10498e-18 2.90346)
(-3.89026 -2.38069e-18 1.85958)
(-2.16592 0 0.914835)
(-0.799678 -2.47403e-18 0.22763)
(0.10432 0 -0.199028)
(0.609827 -1.16757e-18 -0.419416)
(0.81706 -2.23238e-18 -0.492768)
(0.840397 0 -0.481434)
(0.772222 -2.01936e-18 -0.433186)
(0.679252 -1.9201e-18 -0.379543)
(0.601237 0 -0.338252)
(0.552049 0 -0.313611)
(0.524942 0 -0.299961)
(0.507835 1.58594e-18 -0.290806)
(0.493449 1.51329e-18 -0.282586)
(0.479288 0 -0.274369)
(0.466895 -2.75694e-18 -0.267502)
(0.459756 -2.6339e-18 -0.263908)
(0.461548 0 -0.265669)
(0.47476 0 -0.274977)
(0.501333 -2.30215e-18 -0.292159)
(0.541719 7.83287e-22 -0.317156)
(0.595014 0 -0.349259)
(0.659339 0 -0.387384)
(0.73208 0 -0.429983)
(0.810398 0 -0.475429)
(0.891291 1.19699e-21 -0.522012)
(0.972168 3.38212e-18 -0.568315)
(1.05079 0 -0.613104)
(1.12582 0 -0.655725)
(1.19648 0 -0.695771)
(1.26281 2.79993e-18 -0.733385)
(1.32555 0 -0.76901)
(1.38627 5.07351e-18 -0.803663)
(1.44666 -4.82609e-18 -0.838235)
(1.50824 4.5864e-18 -0.873679)
(1.57292 -4.35882e-18 -0.911046)
(1.64341 8.27963e-18 -0.952034)
(1.72249 -3.93156e-18 -0.998084)
(1.81109 3.73253e-18 -1.04967)
(1.90824 0 -1.10596)
(2.01144 0 -1.16564)
(2.11981 -6.37455e-18 -1.22813)
(2.23219 -6.04604e-18 -1.29302)
(2.35053 -5.72986e-18 -1.36128)
(2.47345 1.24221e-21 -1.43232)
(2.60433 0 -1.50783)
(2.73934 0 -1.58587)
(2.8841 -4.61554e-18 -1.66936)
(3.03168 0 -1.75465)
(3.19104 -8.26919e-18 -1.84653)
(3.35239 0 -1.93978)
(3.52611 -1.65932e-21 -2.03996)
(3.7054 0 -2.14355)
(3.89006 -6.61769e-18 -2.25018)
(4.09864 6.25697e-18 -2.37063)
(4.28495 5.91011e-18 -2.47856)
(4.54543 -1.20183e-21 -2.62897)
(4.72387 0 -2.73297)
(5.0614 9.95482e-18 -2.92798)
(5.24785 9.39319e-18 -3.03982)
(5.72748 8.84534e-18 -3.31221)
(5.81909 0 -3.40056)
(7.39275 -5.09744e-22 -4.29761)
(40.0779 0 -4.24868)
(40.4581 -5.01088e-21 -4.76283)
(39.555 0 -6.03446)
(37.0557 1.07925e-20 -7.43828)
(33.3488 2.37698e-20 -8.3952)
(29.1091 1.68481e-20 -8.69492)
(24.9232 0 -8.43389)
(21.135 0 -7.82253)
(17.8676 -3.41356e-20 -7.05358)
(15.1129 -3.81339e-20 -6.25437)
(12.8082 4.14784e-20 -5.49157)
(10.8791 8.83631e-20 -4.79284)
(9.2566 9.26119e-20 -4.16538)
(7.88351 0 -3.60711)
(6.71374 0 -3.11234)
(5.71079 2.00396e-19 -2.67433)
(4.84574 -6.37144e-22 -2.28641)
(4.09554 0 -1.94251)
(3.4418 -1.01285e-19 -1.63701)
(2.8698 -2.01769e-19 -1.36543)
(2.36692 -2.01152e-19 -1.12371)
(1.92438 0 -0.907325)
(1.53398 -1.96443e-19 -0.714835)
(1.18805 1.92828e-19 -0.543413)
(0.882202 1.90131e-19 -0.389622)
(0.610585 -4.99594e-22 -0.253945)
(0.371306 0 -0.130808)
(0.159387 4.10941e-22 -0.0238528)
(-0.0275715 0 0.071316)
(-0.190838 3.39886e-19 0.154833)
(-0.333598 0 0.227624)
(-0.456726 0 0.290087)
(-0.56146 0 0.343045)
(-0.648228 3.05179e-19 0.385156)
(-0.715264 0 0.417428)
(-0.765066 0 0.441311)
(-0.801291 0 0.460446)
(-0.835544 0 0.483389)
(-0.881222 -5.20729e-19 0.518765)
(-0.946099 1.00681e-18 0.566051)
(-1.02224 0 0.608531)
(-1.06157 4.70206e-19 0.608342)
(-0.99755 0 0.501881)
(-0.748576 0 0.262386)
(-0.252663 0 -0.12083)
(0.465304 8.15829e-22 -0.574781)
(1.21984 0 -0.953152)
(1.7199 -7.63635e-19 -1.10168)
(1.70818 0 -0.89505)
(0.980099 0 -0.215945)
(-0.581189 -5.97306e-19 0.935689)
(-2.78469 0 2.34781)
(-5.12743 0 3.68104)
(-7.05463 9.05476e-22 4.5634)
(-8.03969 8.95752e-19 4.79678)
(-7.7843 0 4.27359)
(-6.41154 7.7324e-21 3.17934)
(-4.40989 2.22943e-18 1.92856)
(-2.39098 0 0.845521)
(-0.7845 1.1631e-18 0.0788626)
(0.284491 0 -0.386466)
(0.882905 1.0984e-18 -0.617225)
(1.12723 2.09973e-18 -0.683612)
(1.15266 0 -0.658281)
(1.07041 1.89864e-18 -0.596158)
(0.960397 1.17751e-22 -0.532707)
(0.869385 0 -0.486523)
(0.813078 0 -0.460427)
(0.783422 0 -0.446781)
(0.766408 -2.97927e-18 -0.438163)
(0.753556 -3.18396e-22 -0.431046)
(0.742191 0 -0.42476)
(0.734533 2.58783e-18 -0.420781)
(0.73462 4.9433e-18 -0.421698)
(0.746201 0 -0.430582)
(0.772577 0 -0.449029)
(0.815998 0 -0.476947)
(0.876366 7.48304e-22 -0.514349)
(0.952258 0 -0.560299)
(1.0412 0 -0.613208)
(1.13986 0 -0.671089)
(1.24467 0 -0.731907)
(1.35197 3.31514e-18 -0.793604)
(1.45866 3.16706e-18 -0.85451)
(1.56216 0 -0.913246)
(1.66099 0 -0.969149)
(1.75442 0 -1.02188)
(1.84271 -7.04402e-22 -1.07176)
(1.927 0 -1.11952)
(2.00936 -4.74952e-18 -1.16648)
(2.09204 0 -1.21384)
(2.17699 -4.29229e-18 -1.26281)
(2.26681 0 -1.31485)
(2.36482 -3.87283e-18 -1.37205)
(2.47448 0 -1.43614)
(2.59653 0 -1.50742)
(2.72981 0 -1.58482)
(2.87098 0 -1.66659)
(3.01934 5.96049e-18 -1.75225)
(3.17312 0 -1.84117)
(3.33521 5.35651e-18 -1.93479)
(3.50333 5.07596e-18 -2.03211)
(3.6823 0 -2.13551)
(3.86657 0 -2.2422)
(4.0641 0 -2.35626)
(4.26503 0 -2.47257)
(4.48194 1.70847e-21 -2.59779)
(4.70097 0 -2.72456)
(4.93675 -1.3827e-17 -2.86073)
(5.17905 0 -3.00086)
(5.42869 1.2361e-17 -3.14532)
(5.70885 -5.84385e-18 -3.3071)
(5.95873 -5.51954e-18 -3.45239)
(6.30642 -5.21579e-18 -3.65295)
(6.53995 0 -3.78987)
(6.98998 0 -4.04965)
(7.21653 -1.75393e-17 -4.18739)
(7.85324 8.2554e-18 -4.54703)
(7.92668 7.78943e-18 -4.64558)
(9.80709 -7.30755e-18 -5.7099)
(39.5033 0 -4.72143)
(39.9645 4.06307e-20 -5.0316)
(40.1107 0 -5.83477)
(39.3257 0 -6.97641)
(37.4128 0 -8.08426)
(34.589 0 -8.84639)
(31.2371 0 -9.13867)
(27.7207 2.94833e-20 -8.99872)
(24.3071 3.22052e-20 -8.54475)
(21.1563 7.20695e-20 -7.90582)
(18.3389 -7.81264e-20 -7.18507)
(15.8653 -8.33887e-20 -6.45076)
(13.7131 -8.74042e-20 -5.74204)
(11.8466 0 -5.07852)
(10.2278 0 -4.46821)
(8.8212 -1.87858e-19 -3.91261)
(7.59562 -1.89778e-19 -3.4098)
(6.52432 0 -2.95635)
(5.58482 9.56005e-20 -2.54796)
(4.75844 1.9044e-19 -2.1806)
(4.029 0 -1.85035)
(3.38404 1.86382e-19 -1.5527)
(2.81267 0 -1.28531)
(2.30496 -6.05811e-22 -1.04545)
(1.85392 -1.78347e-19 -0.829)
(1.45225 -4.92797e-22 -0.63603)
(1.09547 0 -0.461632)
(0.778435 1.68219e-19 -0.307221)
(0.497365 -3.27936e-19 -0.168675)
(0.249132 -6.40637e-19 -0.0461903)
(0.030241 -3.11877e-19 0.0615394)
(-0.160557 0 0.155855)
(-0.325609 -2.95298e-19 0.236827)
(-0.466492 0 0.302912)
(-0.581156 0 0.356532)
(-0.673111 0 0.3988)
(-0.745221 0 0.43606)
(-0.809461 0 0.477607)
(-0.880281 4.6836e-22 0.530259)
(-0.965122 -4.74283e-19 0.591728)
(-1.05591 0 0.63966)
(-1.1033 -8.85631e-19 0.630969)
(-1.03966 0 0.493185)
(-0.778324 0 0.203748)
(-0.253433 0 -0.238798)
(0.512984 7.87542e-19 -0.740873)
(1.32281 0 -1.1269)
(1.84219 0 -1.2124)
(1.75885 0 -0.852707)
(0.835903 0 0.0691033)
(-1.0234 1.12694e-18 1.49675)
(-3.52474 0 3.13037)
(-6.06228 0 4.53989)
(-8.02861 4.22027e-19 5.3276)
(-8.91515 0 5.34324)
(-8.49371 0 4.55642)
(-6.92183 1.93452e-18 3.23387)
(-4.7014 -1.04542e-18 1.82262)
(-2.46537 0 0.650268)
(-0.672684 0 -0.154801)
(0.52951 0 -0.628908)
(1.20482 -1.0315e-18 -0.851716)
(1.48093 0 -0.901731)
(1.50908 0 -0.8593)
(1.41621 -3.5669e-18 -0.784067)
(1.29336 3.39014e-18 -0.713308)
(1.19308 0 -0.66489)
(1.13259 0 -0.639528)
(1.10296 0 -0.627716)
(1.08866 1.39798e-18 -0.621477)
(1.08052 -1.33346e-18 -0.617168)
(1.07585 -2.5433e-18 -0.614544)
(1.07696 -2.42768e-18 -0.615913)
(1.0879 -2.31762e-18 -0.624793)
(1.11348 2.21255e-18 -0.6435)
(1.1576 0 -0.672855)
(1.22158 0 -0.713838)
(1.30524 1.93585e-18 -0.765788)
(1.40667 0 -0.827299)
(1.52273 0 -0.896398)
(1.6494 0 -0.970693)
(1.78247 0 -1.04778)
(1.91773 0 -1.12533)
(2.05164 -5.93089e-18 -1.20148)
(2.18141 0 -1.27479)
(2.30547 -2.70092e-18 -1.34462)
(2.42327 0 -1.41079)
(2.53528 -7.28536e-22 -1.47382)
(2.64314 4.66935e-18 -1.53474)
(2.74937 0 -1.5952)
(2.85682 0 -1.65669)
(2.9678 0 -1.72068)
(3.08568 0 -1.78903)
(3.21421 3.62037e-18 -1.86417)
(3.35753 0 -1.94805)
(3.51595 0 -2.04068)
(3.68835 0 -2.14081)
(3.87037 0 -2.24624)
(4.06179 0 -2.35667)
(4.25996 0 -2.47122)
(4.469 0 -2.59186)
(4.68529 0 -2.71703)
(4.91553 -4.49111e-18 -2.84995)
(5.1519 0 -2.98675)
(5.40518 0 -3.13288)
(5.66206 0 -3.28152)
(5.93921 7.21563e-18 -3.44136)
(6.21812 0 -3.60269)
(6.51804 6.45658e-18 -3.77577)
(6.82504 0 -3.95317)
(7.1406 -1.42136e-21 -4.13573)
(7.49336 0 -4.33914)
(7.80578 5.15175e-18 -4.52107)
(8.24074 0 -4.7714)
(8.52499 0 -4.93898)
(9.08632 0 -5.26203)
(9.34137 8.18664e-18 -5.42057)
(10.1309 -1.54124e-17 -5.86262)
(10.1727 -1.4542e-17 -5.96897)
(12.2664 -6.82022e-18 -7.14869)
(39.0672 0 -5.01345)
(39.3557 -4.4775e-20 -5.28959)
(39.7268 0 -5.8153)
(39.7468 0 -6.64263)
(39.0736 -3.12277e-20 -7.62267)
(37.6225 -2.91607e-20 -8.52544)
(35.4944 2.89981e-20 -9.16793)
(32.8793 -8.82158e-20 -9.46712)
(29.9891 0 -9.42999)
(27.0164 5.92816e-22 -9.11876)
(24.1105 3.67333e-20 -8.6154)
(21.3706 0 -7.99682)
(18.851 0 -7.32365)
(16.5714 0 -6.63854)
(14.5299 0 -5.96903)
(12.7123 5.48601e-22 -5.33142)
(11.0988 5.28917e-22 -4.73426)
(9.6678 8.91002e-20 -4.18112)
(8.39846 8.91709e-20 -3.67236)
(7.27164 0 -3.20676)
(6.26974 -1.76618e-19 -2.78216)
(5.37802 -1.75653e-19 -2.3953)
(4.58344 0 -2.04382)
(3.87416 -5.84659e-22 -1.72551)
(3.24072 5.29325e-22 -1.43625)
(2.67434 -1.64947e-19 -1.1757)
(2.16842 0 -0.939202)
(1.7165 0 -0.727261)
(1.31327 3.0897e-19 -0.53649)
(0.954571 6.35668e-22 -0.365964)
(0.636255 5.87032e-19 -0.21437)
(0.355908 0 -0.0796893)
(0.109348 5.55822e-19 0.0365572)
(-0.103758 0 0.135801)
(-0.283754 0 0.217811)
(-0.434177 -2.5414e-19 0.286097)
(-0.557592 0 0.347514)
(-0.664897 -4.76938e-19 0.412158)
(-0.770005 4.61664e-22 0.486065)
(-0.881004 4.4563e-19 0.563937)
(-0.99145 0 0.618596)
(-1.0557 5.71331e-22 0.603696)
(-1.00926 0 0.442047)
(-0.765308 0 0.114959)
(-0.254558 0 -0.367933)
(0.512602 0 -0.895387)
(1.33967 0 -1.26468)
(1.85886 6.78852e-19 -1.26091)
(1.70459 0 -0.723845)
(0.613443 0 0.448372)
(-1.47561 -5.30964e-19 2.1258)
(-4.16375 0 3.90967)
(-6.76449 -4.25535e-19 5.29804)
(-8.6633 -3.93913e-19 5.90542)
(-9.41405 7.75445e-19 5.65882)
(-8.8607 0 4.61222)
(-7.16069 -9.05031e-19 3.09313)
(-4.79737 -9.69756e-19 1.56203)
(-2.40564 0 0.33982)
(-0.468729 0 -0.469854)
(0.841696 0 -0.927761)
(1.58193 9.68519e-19 -1.12653)
(1.88649 0 -1.15192)
(1.91871 0 -1.08968)
(1.81864 1.67383e-18 -1.00206)
(1.6867 -3.18107e-18 -0.926247)
(1.58035 0 -0.878118)
(1.51827 0 -0.855741)
(1.49121 0 -0.847509)
(1.48257 0 -0.845173)
(1.48231 -1.24979e-18 -0.845818)
(1.48748 2.3846e-18 -0.849723)
(1.50064 0 -0.859617)
(1.52661 0 -0.87874)
(1.57065 -2.0736e-18 -0.90894)
(1.63585 0 -0.952183)
(1.72384 -1.89428e-18 -1.00842)
(1.83387 1.81204e-18 -1.0768)
(1.96354 0 -1.15556)
(2.10906 0 -1.24227)
(2.26584 0 -1.33418)
(2.42903 0 -1.42857)
(2.594 0 -1.52287)
(2.75681 2.77533e-18 -1.6151)
(2.91456 0 -1.70381)
(3.06562 5.0543e-18 -1.78847)
(3.20969 0 -1.86905)
(3.34743 -7.1585e-22 -1.94631)
(3.48106 -1.30972e-21 -2.02162)
(3.61343 0 -2.09691)
(3.74807 3.94876e-18 -2.17397)
(3.88752 0 -2.25447)
(4.03602 0 -2.34076)
(4.19751 -6.76902e-18 -2.43541)
(4.37686 0 -2.54064)
(4.57373 0 -2.65599)
(4.78727 0 -2.78016)
(5.01194 0 -2.91039)
(5.24833 0 -3.04683)
(5.49254 0 -3.18807)
(5.75024 0 -3.33687)
(6.01601 0 -3.49079)
(6.29884 4.19579e-18 -3.65414)
(6.58806 0 -3.82166)
(6.89784 0 -4.00045)
(7.21074 0 -4.18164)
(7.54799 -6.73589e-18 -4.37621)
(7.88602 -6.37278e-18 -4.57187)
(8.24869 -6.0266e-18 -4.78126)
(8.61863 5.69934e-18 -4.99506)
(8.99683 -1.37289e-21 -5.21416)
(9.41917 -5.09197e-18 -5.45745)
(9.78826 -9.61899e-18 -5.67313)
(10.3055 0 -5.97013)
(10.6313 8.57647e-18 -6.16371)
(11.2958 8.09479e-18 -6.54495)
(11.5649 0 -6.71664)
(12.4915 7.19288e-18 -7.23098)
(12.4959 6.78655e-18 -7.34227)
(14.7057 6.36579e-18 -8.57768)
(38.7037 0 -5.1864)
(38.8623 2.24485e-20 -5.46704)
(39.1648 0 -5.87134)
(39.4 0 -6.47264)
(39.3228 2.9408e-20 -7.24462)
(38.7744 2.74563e-20 -8.07707)
(37.6945 -2.72982e-20 -8.83127)
(36.1063 8.83985e-20 -9.39373)
(34.0929 0 -9.70287)
(31.7702 3.48398e-20 -9.74993)
(29.2631 -7.05774e-20 -9.56395)
(26.6876 0 -9.19297)
(24.1394 7.65428e-20 -8.68948)
(21.6891 0 -8.10161)
(19.3835 8.07404e-20 -7.46914)
(17.2478 8.25179e-20 -6.82243)
(15.2916 8.3411e-20 -6.1831)
(13.5134 -8.3862e-20 -5.56563)
(11.9049 -1.67437e-19 -4.97877)
(10.4545 0 -4.42743)
(9.14862 1.66237e-19 -3.91381)
(7.97415 0 -3.43789)
(6.9183 0 -2.99894)
(5.96892 -1.60318e-19 -2.59623)
(5.11529 3.14844e-19 -2.2266)
(4.34759 0 -1.88977)
(3.6576 0 -1.58193)
(3.03763 0 -1.30292)
(2.48116 -2.89393e-19 -1.04995)
(1.98272 2.83073e-19 -0.821535)
(1.53719 -5.61993e-22 -0.616727)
(1.14084 2.68109e-19 -0.433296)
(0.789257 -5.22023e-19 -0.272672)
(0.481439 2.53438e-19 -0.131166)
(0.213928 -2.46061e-19 -0.0125593)
(-0.0149304 3.40631e-22 0.089684)
(-0.207779 0 0.182696)
(-0.373883 4.48557e-19 0.276678)
(-0.526424 4.33758e-19 0.375888)
(-0.67343 -4.19046e-19 0.473799)
(-0.812632 0 0.538844)
(-0.907183 3.91062e-19 0.523131)
(-0.898753 3.77993e-19 0.350227)
(-0.705828 3.66944e-19 0.00170158)
(-0.254513 3.56688e-19 -0.500813)
(0.465325 0 -1.03203)
(1.27399 0 -1.36488)
(1.78087 1.02178e-21 -1.25241)
(1.56939 0 -0.522864)
(0.353622 0 0.893729)
(-1.87918 -5.03353e-19 2.78226)
(-4.63797 4.4836e-19 4.63641)
(-7.18588 3.99638e-19 5.91411)
(-8.94749 1.94761e-21 6.28284)
(-9.56557 -7.05817e-21 5.76083)
(-8.93396 0 4.47655)
(-7.17448 0 2.79053)
(-4.7288 1.81379e-18 1.1686)
(-2.22604 0 -0.0760041)
(-0.174857 0 -0.864248)
(1.22541 -9.39715e-19 -1.28588)
(2.02233 0 -1.44643)
(2.3534 0 -1.43968)
(2.39129 1.65274e-18 -1.35496)
(2.28701 -1.56974e-18 -1.25541)
(2.14907 2.98269e-18 -1.17641)
(2.03926 0 -1.13073)
(1.97791 -1.35115e-18 -1.11327)
(1.95563 0 -1.11075)
(1.95515 0 -1.11419)
(1.96529 2.3421e-18 -1.12218)
(1.98354 0 -1.13479)
(2.01266 0 -1.15493)
(2.05763 0 -1.18575)
(2.12319 0 -1.23022)
(2.21288 0 -1.28914)
(2.32781 1.77387e-18 -1.36258)
(2.46692 -7.71805e-22 -1.44914)
(2.6273 -1.62251e-18 -1.54665)
(2.80457 1.55249e-18 -1.65228)
(2.9936 0 -1.76297)
(3.18898 0 -1.8757)
(3.3857 0 -1.98775)
(3.57946 0 -2.09703)
(3.76729 0 -2.20215)
(3.94751 -8.74474e-22 -2.30266)
(4.12008 0 -2.39876)
(4.28581 -2.14549e-18 -2.49139)
(4.44753 -1.32099e-21 -2.58231)
(4.60831 0 -2.67364)
(4.7724 -3.692e-18 -2.76754)
(4.94245 0 -2.86577)
(5.12362 3.33056e-18 -2.97119)
(5.31976 9.37792e-22 -3.08641)
(5.53659 0 -3.21389)
(5.77285 0 -3.35255)
(6.02834 0 -3.50122)
(6.29607 0 -3.65647)
(6.57785 4.86003e-18 -3.81907)
(6.86801 0 -3.98692)
(7.17428 0 -4.16372)
(7.48872 4.13581e-18 -4.34588)
(7.82322 0 -4.53902)
(8.16353 -3.70918e-18 -4.73618)
(8.5278 3.5112e-18 -4.94633)
(8.89382 0 -5.15831)
(9.28775 1.25789e-17 -5.38548)
(9.68069 1.67331e-21 -5.6129)
(10.1008 1.12532e-17 -5.85538)
(10.5279 -5.32154e-18 -6.10209)
(10.961 -5.02913e-18 -6.35314)
(11.4452 4.75401e-18 -6.63156)
(11.8603 4.48953e-18 -6.87488)
(12.4489 4.24079e-18 -7.2118)
(12.8027 -8.00627e-18 -7.42395)
(13.5545 -7.55634e-18 -7.85336)
(13.8203 -7.12899e-18 -8.02971)
(14.8575 -6.71104e-18 -8.59891)
(14.8208 0 -8.7151)
(17.0498 0 -9.95082)
(38.3619 0 -5.30291)
(38.4524 2.53793e-20 -5.57963)
(38.6632 0 -5.92982)
(38.8896 0 -6.39688)
(38.9978 0 -6.99276)
(38.8772 0 -7.6844)
(38.4425 3.39267e-20 -8.39754)
(37.6418 -2.96353e-20 -9.04341)
(36.4633 3.2834e-20 -9.54701)
(34.9334 -6.33666e-20 -9.86272)
(33.1071 6.63526e-20 -9.97574)
(31.0555 0 -9.89548)
(28.8552 -7.19552e-20 -9.64665)
(26.5811 0 -9.26158)
(24.3003 -7.59008e-20 -8.77453)
(22.0685 -7.68918e-20 -8.21802)
(19.9275 0 -7.62048)
(17.9055 0 -7.00534)
(16.0185 7.85063e-20 -6.39058)
(14.2732 0 -5.78945)
(12.6693 0 -5.21103)
(11.2022 -1.53533e-19 -4.661)
(9.86462 0 -4.14256)
(8.64797 0 -3.65805)
(7.54306 -1.47752e-19 -3.20676)
(6.54082 0 -2.78951)
(5.63286 0 -2.40415)
(4.81107 0 -2.05054)
(4.06826 5.43386e-19 -1.72687)
(3.39801 0 -1.4316)
(2.79453 -5.4515e-22 -1.1641)
(2.25305 -4.9389e-22 -0.922064)
(1.76861 2.45092e-19 -0.706795)
(1.33829 -2.38174e-19 -0.515735)
(0.958777 4.62091e-19 -0.350479)
(0.627827 2.24309e-19 -0.205168)
(0.343114 0 -0.0724257)
(0.0973963 0 0.0571434)
(-0.119194 4.0665e-19 0.188702)
(-0.31686 -3.92841e-19 0.311457)
(-0.498647 0 0.393048)
(-0.6404 0 0.385591)
(-0.693571 -7.00431e-22 0.217267)
(-0.58653 -3.44617e-19 -0.13347)
(-0.239725 -3.3496e-19 -0.634826)
(0.385212 -6.50794e-19 -1.15034)
(1.14102 0 -1.43262)
(1.6294 1.13097e-21 -1.19961)
(1.386 0 -0.272085)
(0.103848 0 1.37109)
(-2.17736 4.72414e-19 3.4202)
(-4.89425 -4.20762e-19 5.2656)
(-7.29943 0 6.36037)
(-8.89497 3.45253e-19 6.46229)
(-9.41432 -7.61057e-21 5.67885)
(-8.76621 0 4.18667)
(-7.00735 0 2.35697)
(-4.52412 -1.68776e-18 0.66124)
(-1.93893 0 -0.589477)
(0.208095 0 -1.33829)
(1.68696 1.7613e-18 -1.70682)
(2.53523 0 -1.81698)
(2.89184 0 -1.77093)
(2.93682 -3.09833e-18 -1.6608)
(2.83059 1.4712e-18 -1.54927)
(2.68883 -1.3975e-18 -1.46842)
(2.57738 0 -1.42694)
(2.51834 1.26591e-18 -1.41624)
(2.50323 0 -1.41994)
(2.51183 -1.14989e-18 -1.43295)
(2.53514 -1.09665e-18 -1.44963)
(2.56961 0 -1.47194)
(2.61751 0 -1.50393)
(2.68385 1.90244e-18 -1.54897)
(2.77378 1.81628e-18 -1.60921)
(2.89034 0 -1.68567)
(3.0346 0 -1.77785)
(3.205 -3.17353e-18 -1.88399)
(3.39824 1.51833e-18 -2.00156)
(3.60936 -2.90458e-18 -2.12733)
(3.83278 0 -2.25796)
(4.06254 0 -2.39017)
(4.2933 0 -2.52112)
(4.52037 0 -2.64861)
(4.74074 0 -2.77135)
(4.95257 -8.71295e-22 -2.88892)
(5.15611 0 -3.00177)
(5.3522 0 -3.11101)
(5.54429 -1.31438e-21 -3.21876)
(5.7355 0 -3.32727)
(5.93088 -3.44881e-18 -3.43906)
(6.13296 0 -3.55592)
(6.34796 -3.11263e-18 -3.68123)
(6.57928 9.31845e-22 -3.81743)
(6.83367 0 -3.96733)
(7.10862 0 -4.12903)
(7.4051 0 -4.30172)
(7.71425 0 -4.48114)
(8.03971 -1.40498e-21 -4.66898)
(8.37335 4.30193e-18 -4.86208)
(8.72553 -4.07624e-18 -5.06541)
(9.08498 -3.86279e-18 -5.27379)
(9.4672 0 -5.4945)
(9.85354 3.46393e-18 -5.71849)
(10.2667 -3.27887e-18 -5.95687)
(10.6792 0 -6.19592)
(11.1223 -5.87188e-18 -6.45141)
(11.5618 1.11079e-17 -6.70586)
(12.0293 -5.25256e-18 -6.97581)