/*--------------------------------*- C++ -*----------------------------------*\
| =========                 |                                                 |
| \\      /  F ield         | OpenFOAM: The Open Source CFD Toolbox           |
|  \\    /   O peration     | Version:  2412                                  |
|   \\  /    A nd           | Website:  www.openfoam.com                      |
|    \\/     M anipulation  |                                                 |
\*---------------------------------------------------------------------------*/
FoamFile
{
    version     2.0;
    format      ascii;
    arch        "LSB;label=32;scalar=64";
    class       surfaceScalarField;
    location    "1.51";
    object      phi;
}
// * * * * * * * * * * * * * * * * * * * * * * * * * * * * * * * * * * * * * //

dimensions      [0 3 -1 0 0 0 0];

oriented        oriented;

internalField   nonuniform List<scalar> 
24930
(
0.0179929
0.0127834
-0.0307754
0.0106142
0.00737865
0.00695658
0.00365766
0.00517734
0.00177924
0.00420373
0.000973607
0.00357993
0.000623801
0.0031334
0.000446525
0.0027935
0.000339906
0.00252403
0.000269471
0.00230389
0.000220135
0.00211992
0.000183975
0.00196336
0.000156558
0.00182816
0.000135202
0.00170996
0.000118198
0.00160555
0.000104411
0.00151249
9.30542e-05
0.00142892
8.35734e-05
0.00135336
7.55649e-05
0.00128463
6.87297e-05
0.00122179
6.28426e-05
0.00116406
5.77305e-05
0.0011108
5.32588e-05
0.00106148
4.93217e-05
0.00101564
4.58346e-05
0.000972914
4.27294e-05
0.000932964
3.99506e-05
0.000895511
3.74529e-05
0.000860312
3.51987e-05
0.000827156
3.31565e-05
0.000795856
3.13002e-05
0.000766248
2.96076e-05
0.000738188
2.80597e-05
0.000711547
2.66406e-05
0.000686211
2.53363e-05
0.000662076
2.4135e-05
0.000639049
2.30264e-05
0.000617047
2.20016e-05
0.000595994
2.10526e-05
0.00057582
2.01727e-05
0.000556464
1.9356e-05
0.000537867
1.85969e-05
0.000519975
1.78911e-05
0.000502741
1.72341e-05
0.000486118
1.66227e-05
0.000470064
1.60531e-05
0.000454541
1.5523e-05
0.000439512
1.50292e-05
0.000424942
1.45702e-05
0.000410799
1.41429e-05
0.000397053
1.37467e-05
0.000383675
1.33786e-05
0.000370637
1.30386e-05
0.000357913
1.27239e-05
0.000345478
1.2435e-05
0.000333309
1.2169e-05
0.000321383
1.19268e-05
0.000309677
1.17059e-05
0.00029817
1.15071e-05
0.000286842
1.13281e-05
0.000275672
1.11699e-05
0.000264641
1.10304e-05
0.00025373
1.09102e-05
0.000242922
1.08082e-05
0.000232198
1.07236e-05
0.00022154
1.06572e-05
0.000210934
1.06057e-05
0.000200361
1.05728e-05
0.000189809
1.05511e-05
0.00017926
1.05489e-05
0.000168707
1.05526e-05
0.00015813
1.0577e-05
0.000147531
1.05996e-05
0.000136886
1.06447e-05
0.000126209
1.0677e-05
0.000115475
1.07348e-05
0.000104711
1.07643e-05
9.38863e-05
1.08243e-05
8.30508e-05
1.08356e-05
7.21656e-05
1.08852e-05
6.13064e-05
1.08592e-05
5.04221e-05
1.08842e-05
3.9623e-05
1.07991e-05
2.88386e-05
1.07845e-05
1.82208e-05
1.06178e-05
7.67337e-06
1.05475e-05
-2.60751e-06
1.02809e-05
-1.27538e-05
1.01462e-05
-2.25293e-05
9.77554e-06
-3.20757e-05
9.54632e-06
-4.11827e-05
9.10685e-06
-4.99354e-05
8.75256e-06
-5.82436e-05
8.30808e-06
-6.60659e-05
7.82226e-06
-7.33814e-05
7.31546e-06
-8.05648e-05
7.18341e-06
-8.59572e-05
5.39229e-06
-9.39942e-05
8.03712e-06
-9.63908e-05
2.39644e-06
-0.000102094
5.70239e-06
-0.000113178
1.10853e-05
-0.000106236
-6.90885e-06
-0.000118447
1.22084e-05
-0.000119468
1.02195e-06
-0.000124139
4.67127e-06
-0.00013967
1.55338e-05
-0.000110129
-2.95466e-05
-0.000156365
4.62398e-05
-0.000145329
-1.10299e-05
-9.89176e-05
-4.64231e-05
-0.000229553
0.000130645
-0.00013758
-9.19729e-05
-0.000211196
7.36103e-05
-0.000230943
1.97582e-05
-0.000174474
-5.6471e-05
-0.00025453
8.00562e-05
-0.000107461
-0.000147093
-0.000436474
0.000329013
-0.00138221
0.000945803
-0.00161097
0.000228746
-0.000607727
0.0337214
0.0163572
-0.0372952
0.0277728
0.0133273
0.0222091
0.00922133
0.0179265
0.00606183
0.0148747
0.00402547
0.0127104
0.00278808
0.0111207
0.00203617
0.00990186
0.0015588
0.00893327
0.00123806
0.00814188
0.00101152
0.00748084
0.000845011
0.0069188
0.000718605
0.00643392
0.000620083
0.0060105
0.000541618
0.00563692
0.000477986
0.0053044
0.000425581
0.00500613
0.000381842
0.00473679
0.000344907
0.00449212
0.000313398
0.00426869
0.000286272
0.0040637
0.000262729
0.00387481
0.000242148
0.00370009
0.000224036
0.00353793
0.000208004
0.00338692
0.000193736
0.0032459
0.000180975
0.00311384
0.000169511
0.00298987
0.00015917
0.00287322
0.000149807
0.00276322
0.000141301
0.00265927
0.000133548
0.00256087
0.000126462
0.00246755
0.000119968
0.00237888
0.000114002
0.0022945
0.000108509
0.00221409
0.000103442
0.00213733
9.87591e-05
0.00206396
9.44245e-05
0.00199372
9.04062e-05
0.0019264
8.6677e-05
0.00186178
8.32119e-05
0.00179968
7.999e-05
0.00173993
7.69914e-05
0.00168235
7.42004e-05
0.0016268
7.16005e-05
0.00157314
6.918e-05
0.00152125
6.69252e-05
0.00147099
6.48276e-05
0.00142226
6.28754e-05
0.00137494
6.10627e-05
0.00132894
5.93791e-05
0.00128416
5.78212e-05
0.00124051
5.63792e-05
0.00119789
5.50518e-05
0.00115623
5.38298e-05
0.00111544
5.27136e-05
0.00107545
5.16944e-05
0.00103619
5.07736e-05
0.000997573
4.99433e-05
0.000959538
4.92049e-05
0.000922016
4.85519e-05
0.000884941
4.79848e-05
0.00084825
4.74994e-05
0.00081188
4.70932e-05
0.00077577
4.67664e-05
0.000739864
4.65104e-05
0.000704103
4.63325e-05
0.00066844
4.62137e-05
0.000632816
4.61721e-05
0.000597196
4.61723e-05
0.000561524
4.62488e-05
0.000525781
4.63417e-05
0.000489916
4.65101e-05
0.000453935
4.66583e-05
0.000417787
4.68822e-05
0.000381517
4.70349e-05
0.000345074
4.72671e-05
0.00030855
4.73595e-05
0.000271891
4.75443e-05
0.000235255
4.7496e-05
0.000198568
4.75704e-05
0.000162082
4.72859e-05
0.00012568
4.71865e-05
8.97368e-05
4.65607e-05
5.40567e-05
4.62276e-05
1.91883e-05
4.51493e-05
-1.52323e-05
4.4567e-05
-4.8505e-05
4.30483e-05
-8.1062e-05
4.21034e-05
-0.000112109
4.01539e-05
-0.00014211
3.87534e-05
-0.000170551
3.6749e-05
-0.000197397
3.46681e-05
-0.000222801
3.27193e-05
-0.000247063
3.14458e-05
-0.000266621
2.49499e-05
-0.000293522
3.49376e-05
-0.000301531
1.04062e-05
-0.000325621
2.97926e-05
-0.000354912
4.03755e-05
-0.000340222
-2.16313e-05
-0.000379004
5.09916e-05
-0.00038073
2.74722e-06
-0.000403783
2.77242e-05
-0.000440242
5.19907e-05
-0.000364279
-0.000105507
-0.00051193
0.000193888
-0.000448415
-7.4547e-05
-0.000352163
-0.000142671
-0.000711679
0.000490158
-0.000455297
-0.000348353
-0.000696871
0.000315185
-0.000724842
4.77165e-05
-0.000591863
-0.00018945
-0.000805575
0.000293767
-0.000450745
-0.000501914
-0.00157003
0.00144829
-0.00434304
0.00371878
-0.00471543
0.000601192
-0.00242038
0.0414975
0.0160554
-0.0411957
0.0392011
0.0156237
0.0352625
0.0131599
0.0309671
0.0103572
0.0270444
0.00794821
0.023749
0.00608341
0.0210698
0.00471544
0.0188973
0.00373124
0.0171168
0.0030186
0.0156353
0.002493
0.0143838
0.00209654
0.0133118
0.00179063
0.0123823
0.00154959
0.0115677
0.00135614
0.0108474
0.00119837
0.0102051
0.00106788
0.00962827
0.000958625
0.00910704
0.000866136
0.00863336
0.00078708
0.00820072
0.00071892
0.00780375
0.000659695
0.00743803
0.000607872
0.00709983
0.000562238
0.00678601
0.000521821
0.00649391
0.000485836
0.00622124
0.000453644
0.00596604
0.000424718
0.00572659
0.000398622
0.0055014
0.000374993
0.00528918
0.000353524
0.00508877
0.000333957
0.00489916
0.000316072
0.00471944
0.000299683
0.00454882
0.000284627
0.00438656
0.000270767
0.00423202
0.000257981
0.00408461
0.000246165
0.00394381
0.000235229
0.00380912
0.000225091
0.00368012
0.000215682
0.00355639
0.000206939
0.00343757
0.00019881
0.00332331
0.000191244
0.00321331
0.000184201
0.00310727
0.000177639
0.00300492
0.000171528
0.00290601
0.000165835
0.0028103
0.000160536
0.00271758
0.000155604
0.00262762
0.000151021
0.00254024
0.000146762
0.00245524
0.000142818
0.00237246
0.000139165
0.00229171
0.000135798
0.00221284
0.000132697
0.0021357
0.000129858
0.00206013
0.000127263
0.00198599
0.000124912
0.00191315
0.000122789
0.00184146
0.000120894
0.0017708
0.000119213
0.00170104
0.000117745
0.00163205
0.000116481
0.00156373
0.000115416
0.00149595
0.000114547
0.0014286
0.000113859
0.00136157
0.00011336
0.00129477
0.000113018
0.00122808
0.000112858
0.00116143
0.00011282
0.00109473
0.000112955
0.00102791
0.00011316
0.000960891
0.000113526
0.000893662
0.000113887
0.000826149
0.000114395
0.000758392
0.000114793
0.000690332
0.000115327
0.000622084
0.000115607
0.000553597
0.000116032
0.00048509
0.000116003
0.000416497
0.000116164
0.00034819
0.000115593
0.000280038
0.000115339
0.000212638
0.000113961
0.000145704
0.000113162
8.0154e-05
0.000110699
1.54362e-05
0.000109285
-4.71909e-05
0.000105675
-0.000108599
0.000103512
-0.000167217
9.87712e-05
-0.000224031
9.55675e-05
-0.000277895
9.0613e-05
-0.000328894
8.56669e-05
-0.000377342
8.11677e-05
-0.00042319
7.72937e-05
-0.000461428
6.31874e-05
-0.000511515
8.50249e-05
-0.000527838
2.67288e-05
-0.000576669
7.86235e-05
-0.000624522
8.82282e-05
-0.000605862
-4.02916e-05
-0.000676169
0.000121298
-0.000678911
5.48929e-06
-0.000726812
7.56253e-05
-0.000781648
0.000106827
-0.000665894
-0.000221262
-0.00092391
0.000451904
-0.000792955
-0.000205501
-0.000667563
-0.000268063
-0.00125672
0.00107931
-0.000828177
-0.000776894
-0.00127186
0.000758872
-0.00128982
6.56782e-05
-0.0010952
-0.000384069
-0.00145455
0.000653115
-0.000953924
-0.00100254
-0.00301558
0.00350995
-0.0076062
0.00830942
-0.00784747
0.000842328
-0.00561878
0.0459622
0.0147568
-0.0446637
0.0460423
0.0155436
0.0444582
0.014744
0.0417276
0.0130877
0.0384765
0.0111993
0.0351644
0.00939551
0.0320594
0.00782047
0.0292761
0.00651455
0.0268334
0.00546133
0.0247051
0.00462128
0.02285
0.00395165
0.021226
0.00341459
0.0197959
0.00297972
0.0185283
0.00262373
0.0173976
0.00232908
0.0163829
0.00208262
0.0154671
0.00187442
0.0146362
0.00169695
0.0138789
0.0015444
0.0131856
0.00141227
0.0125482
0.00129704
0.0119602
0.0011959
0.0114159
0.00110661
0.0109103
0.00102736
0.0104395
0.000956673
0.00999978
0.000893345
0.00958813
0.00083637
0.00920184
0.000784915
0.00883855
0.00073828
0.0084962
0.000695877
0.00817295
0.000657206
0.00786718
0.00062184
0.00757745
0.000589415
0.00730246
0.000559616
0.00704105
0.000532173
0.00679218
0.00050685
0.0065549
0.000483441
0.00632836
0.000461768
0.00611178
0.000441673
0.00590444
0.000423019
0.0057057
0.000405683
0.00551495
0.000389557
0.00533165
0.000374547
0.00515528
0.000360568
0.00498537
0.000347542
0.0048215
0.000335407
0.00466323
0.000324098
0.0045102
0.000313567
0.00436205
0.00030376
0.00421842
0.000294642
0.00407902
0.000286167
0.00394353
0.000278309
0.00381167
0.000271028
0.00368316
0.000264307
0.00355775
0.000258112
0.00343517
0.000252432
0.0033152
0.000247234
0.0031976
0.000242515
0.00308214
0.000238244
0.00296862
0.00023442
0.00285681
0.000231018
0.00274652
0.000228036
0.00263755
0.000225454
0.0025297
0.000223263
0.00242279
0.000221456
0.00231664
0.00022001
0.00221106
0.00021893
0.00210591
0.000218171
0.00200101
0.000217759
0.00189622
0.000217608
0.00179139
0.000217781
0.00168643
0.000218125
0.0015812
0.000218759
0.00147565
0.000219438
0.00136968
0.000220364
0.00126332
0.000221153
0.00115649
0.000222152
0.00104934
0.000222762
0.000941798
0.00022357
0.000834163
0.000223638
0.000726366
0.00022396
0.00061892
0.000223039
0.000511673
0.000222585
0.000405478
0.000220156
0.000299953
0.000218687
0.000196452
0.0002142
9.41503e-05
0.000211586
-4.85315e-06
0.000204679
-0.000102296
0.000200955
-0.000195345
0.00019182
-0.000285745
0.000185967
-0.000371496
0.000176365
-0.000452959
0.00016713
-0.000530445
0.000158653
-0.000603579
0.000150428
-0.000665913
0.000125521
-0.000744404
0.000163516
-0.000773221
5.55458e-05
-0.000852799
0.000158201
-0.000921594
0.000157022
-0.000902656
-5.92287e-05
-0.00101062
0.000229257
-0.00101578
1.06511e-05
-0.00109386
0.000153704
-0.00116742
0.000180393
-0.00101815
-0.000370536
-0.00139293
0.000826686
-0.00118603
-0.0004124
-0.00104962
-0.000404477
-0.00187082
0.00190051
-0.00126082
-0.00138689
-0.00194244
0.0014405
-0.00193534
5.85236e-05
-0.001695
-0.000624408
-0.00222238
0.00118049
-0.00164293
-0.00158198
-0.00478161
0.00664862
-0.0111329
0.0146607
-0.0109326
0.000642257
-0.0104446
0.04943
0.0135634
-0.0482365
0.0503921
0.0145815
0.0504075
0.0147286
0.0493813
0.014114
0.0475313
0.0130493
0.0451505
0.0117763
0.0425111
0.0104599
0.03982
0.00920571
0.0372122
0.00806914
0.0347623
0.00707112
0.0325027
0.00621127
0.0304392
0.00547807
0.0285634
0.00485551
0.0268603
0.00432687
0.0253126
0.00387675
0.0239034
0.0034918
0.022617
0.00316083
0.0214393
0.00287469
0.0203578
0.0026259
0.0193617
0.00240837
0.0184416
0.00221717
0.0175892
0.00204824
0.0167975
0.00189829
0.0160603
0.00176458
0.0153721
0.00164485
0.0147283
0.0015372
0.0141246
0.00144007
0.0135574
0.00135213
0.0130234
0.00127226
0.0125198
0.00119949
0.012044
0.00113301
0.0115937
0.00107213
0.0111669
0.00101623
0.0107617
0.000964807
0.0103764
0.000917398
0.0100097
0.000873611
0.00966002
0.000833102
0.00932622
0.000795568
0.00900715
0.000760743
0.00870177
0.000728395
0.00840914
0.000698314
0.00812837
0.000670319
0.00785868
0.000644244
0.00759929
0.000619949
0.00734954
0.0005973
0.00710876
0.000576186
0.00687635
0.0005565
0.00665177
0.000538156
0.00643446
0.000521065
0.00622394
0.000505161
0.00601974
0.000490369
0.00582141
0.000476642
0.00562852
0.000463913
0.00544068
0.000452151
0.0052575
0.000441296
0.0050786
0.000431329
0.00490364
0.000422196
0.00473227
0.000413887
0.00456416
0.000406354
0.00439899
0.00039959
0.00423645
0.000393555
0.00407624
0.000388243
0.00391807
0.000383622
0.00376166
0.00037968
0.00360671
0.000376396
0.00345298
0.000373741
0.0033002
0.000371715
0.00314811
0.000370255
0.00299648
0.000369387
0.0028451
0.000368993
0.00269373
0.000369144
0.00254222
0.000369633
0.00239038
0.000370601
0.00223811
0.000371707
0.00208527
0.000373208
0.00193186
0.000374565
0.00177778
0.000376232
0.00162318
0.00037736
0.001468
0.00037875
0.0013126
0.000379041
0.0011569
0.000379657
0.00100158
0.000378359
0.000846461
0.000377708
0.000692683
0.000373934
0.000539755
0.000371615
0.00038954
0.000364415
0.000240912
0.000360214
9.66957e-05
0.000348896
-4.51276e-05
0.000342778
-0.000180948
0.00032764
-0.000313173
0.000318192
-0.000438705
0.000301896
-0.000558369
0.000286794
-0.000672226
0.00027251
-0.000779698
0.0002579
-0.000872811
0.000218634
-0.000986087
0.000276792
-0.00103291
0.00010237
-0.00115019
0.000275479
-0.00124317
0.000249999
-0.00122908
-7.3319e-05
-0.00138138
0.000381558
-0.00139108
2.0358e-05
-0.00150547
0.000268088
-0.00159904
0.000273963
-0.0014239
-0.00054567
-0.00192042
0.00132321
-0.00163268
-0.000700143
-0.00150399
-0.000533164
-0.00255676
0.00295327
-0.00175977
-0.00218388
-0.00271522
0.00239595
-0.00266875
1.25571e-05
-0.00240543
-0.00088773
-0.00312774
0.0019028
-0.00254048
-0.00216925
-0.00686474
0.0109729
-0.0148746
0.0226705
-0.0138718
-0.000360867
-0.0171819
0.05289
0.0126661
-0.0519927
0.0539172
0.0135542
0.0545994
0.0140465
0.0546659
0.0140475
0.0540639
0.0136512
0.0528628
0.0129774
0.051192
0.0121307
0.0491981
0.0111996
0.0470161
0.0102511
0.0447568
0.00933046
0.0425026
0.00846551
0.0403096
0.00767103
0.0382126
0.00695254
0.03623
0.00630945
0.0343692
0.00573751
0.0326305
0.00523055
0.0310096
0.00478172
0.0295001
0.00438418
0.0280945
0.00403155
0.0267848
0.00371807
0.0255633
0.00343865
0.0244227
0.00318886
0.0233561
0.0029649
0.0223572
0.00276348
0.0214202
0.00258179
0.02054
0.0024174
0.0197118
0.00226826
0.0189314
0.00213257
0.0181948
0.00200881
0.0174987
0.00189564
0.0168398
0.00179193
0.0162152
0.00169666
0.0156225
0.00160898
0.0150592
0.00152813
0.0145231
0.00145344
0.0140124
0.00138433
0.0135252
0.00132029
0.0130599
0.00126086
0.012615
0.00120565
0.0121891
0.0011543
0.0117809
0.0011065
0.0113893
0.00106196
0.0110131
0.00102043
0.0106513
0.000981708
0.0103031
0.000945573
0.00996738
0.000911857
0.00964349
0.000880395
0.00933059
0.000851051
0.00902797
0.000823688
0.00873493
0.000798203
0.00845082
0.000774478
0.00817502
0.000752438
0.00790696
0.000731981
0.00764605
0.000713053
0.00739179
0.000695566
0.00714363
0.000679484
0.0069011
0.000664727
0.00666371
0.000651273
0.00643101
0.000639053
0.00620255
0.000628052
0.0059779
0.00061821
0.00575663
0.000609514
0.00553833
0.000601916
0.00532261
0.000595397
0.00510909
0.000589924
0.00489737
0.000585459
0.00468709
0.00058199
0.00447791
0.000579435
0.00426948
0.000577819
0.00406149
0.000576984
0.00385362
0.000577008
0.00364564
0.000577616
0.00343727
0.000578974
0.00322835
0.000580626
0.00301867
0.000582885
0.00280821
0.000585023
0.00259683
0.000587617
0.00238468
0.00058951
0.00217167
0.000591755
0.00195825
0.000592466
0.00174432
0.000593588
0.00153073
0.000591948
0.00131726
0.000591175
0.0011054
0.000585793
0.000894523
0.000582493
0.000687081
0.000571856
0.000481606
0.00056569
0.000281866
0.000548636
8.51912e-05
0.000539453
-0.000103468
0.0005163
-0.000287553
0.000502277
-0.00046249
0.000476833
-0.000629823
0.000454127
-0.000789037
0.000431723
-0.000939528
0.000408391
-0.00107168
0.000350785
-0.00122751
0.000432625
-0.00129946
0.000174318
-0.00146247
0.000438489
-0.00158401
0.000371539
-0.00158172
-7.56126e-05
-0.00178549
0.000585329
-0.00180298
3.78522e-05
-0.00196069
0.000425792
-0.00207659
0.000389866
-0.00188473
-0.000737534
-0.00250652
0.001945
-0.0021371
-0.00106957
-0.00203525
-0.000635002
-0.00331594
0.00423395
-0.00233159
-0.00316823
-0.00359477
0.00365914
-0.00349724
-8.54753e-05
-0.00324149
-0.00114348
-0.00418774
0.00284905
-0.00366327
-0.00269372
-0.00924291
0.0165526
-0.0187638
0.0321914
-0.0165483
-0.00257611
-0.0261617
0.0566119
0.0119797
-0.0559255
0.0574645
0.0127016
0.0582599
0.0132511
0.058785
0.0135223
0.0589176
0.0135187
0.0586117
0.0132833
0.0578767
0.0128657
0.0567604
0.0123159
0.0553313
0.0116802
0.0536651
0.0109967
0.0518352
0.0102954
0.0499073
0.00959901
0.0479359
0.00892392
0.0459642
0.0082811
0.0440244
0.00767732
0.042139
0.007116
0.0403226
0.00659811
0.0385839
0.00612284
0.0369272
0.00568827
0.0353535
0.0052918
0.0338616
0.00493048
0.0324492
0.00460129
0.0311128
0.00430128
0.0298487
0.00402763
0.0286527
0.00377775
0.0275209
0.00354927
0.0264491
0.00334004
0.0254335
0.00314814
0.0244705
0.00297185
0.0235565
0.00280964
0.0226883
0.00266014
0.0218628
0.00252214
0.0210772
0.00239457
0.0203289
0.00227647
0.0196153
0.00216698
0.0189343
0.00206536
0.0182837
0.00197091
0.0176615
0.00188305
0.0170659
0.00180122
0.0164953
0.00172495
0.0159479
0.00165381
0.0154225
0.00158741
0.0149175
0.00152541
0.0144317
0.00146748
0.013964
0.00141335
0.013513
0.00136278
0.0130779
0.00131553
0.0126576
0.0012714
0.012251
0.00123019
0.0118575
0.00119177
0.011476
0.00115596
0.0111058
0.00112264
0.0107461
0.00109168
0.0103962
0.001063
0.0100553
0.00103646
0.00972273
0.00101201
0.00939791
0.000989544
0.00908017
0.000969019
0.00876888
0.000950338
0.00846346
0.000933478
0.00816331
0.000918352
0.00786789
0.000904941
0.00757663
0.000893176
0.00728899
0.00088303
0.00700446
0.000874454
0.00672252
0.000867396
0.00644268
0.000861834
0.00616445
0.000857663
0.00588737
0.000854899
0.00561101
0.000853345
0.00533493
0.00085308
0.0050588
0.000853752
0.00478222
0.000855547
0.00450497
0.000857876
0.00422675
0.000861111
0.00394747
0.000864297
0.00366694
0.000868152
0.00338531
0.000871137
0.00310245
0.000874613
0.00281888
0.000876038
0.00253448
0.000877994
0.00225028
0.000876141
0.00196603
0.000875432
0.00168358
0.000868242
0.00140216
0.000863914
0.0011249
0.000849116
0.000849945
0.000840643
0.000582166
0.000816414
0.000318119
0.000803499
6.44107e-05
0.000770009
-0.000183709
0.000750396
-0.000419782
0.000712906
-0.000646359
0.000680704
-0.000861925
0.00064729
-0.00106612
0.000612589
-0.00124748
0.000532145
-0.00145541
0.000640548
-0.00156154
0.000280448
-0.00177968
0.000656635
-0.00193568
0.000527537
-0.00195424
-5.70563e-05
-0.00221711
0.000848202
-0.00224714
6.7879e-05
-0.0024563
0.000634955
-0.00259817
0.000531732
-0.00240012
-0.000935581
-0.00314964
0.00269452
-0.00270221
-0.001517
-0.00264586
-0.000691347
-0.00414847
0.00573655
-0.00298209
-0.00433461
-0.00458328
0.00526033
-0.00442702
-0.000241673
-0.00421741
-0.0013531
-0.00541547
0.00404711
-0.00501742
-0.00309176
-0.0118719
0.023407
-0.0227163
0.0430358
-0.018832
-0.00646058
-0.0377631
0.060619
0.011417
-0.0600562
0.0613027
0.0120179
0.0620163
0.0125374
0.0626372
0.0129015
0.0630676
0.0130882
0.0632436
0.0131073
0.0631295
0.0129798
0.0627147
0.0127307
0.0620095
0.0123854
0.0610386
0.0119677
0.0598363
0.0114976
0.0584425
0.0109928
0.0568984
0.010468
0.0552443
0.00993522
0.0535171
0.00940452
0.0517493
0.00888378
0.0499684
0.00837908
0.0481964
0.00789484
0.0464506
0.00743405
0.0447439
0.00699847
0.0430855
0.00658887
0.0414816
0.00620525
0.0399358
0.00584706
0.0384501
0.00551332
0.037025
0.00520282
0.0356601
0.00491422
0.034354
0.00464609
0.0331052
0.00439701
0.0319114
0.0041656
0.0307705
0.00395053
0.0296801
0.00375054
0.0286378
0.00356448
0.0276411
0.00339125
0.0266877
0.00322986
0.0257753
0.00307938
0.0249017
0.002939
0.0240647
0.00280792
0.0232622
0.00268547
0.0224925
0.002571
0.0217535
0.00246394
0.0210435
0.00236375
0.020361
0.00226998
0.0197042
0.00218217
0.0190718
0.00209994
0.0184622
0.00202293
0.0178741
0.00195082
0.0173064
0.0018833
0.0167576
0.00182013
0.0162268
0.00176104
0.0157127
0.00170585
0.0152144
0.00165431
0.0147307
0.00160629
0.0142608
0.00156159
0.0138037
0.00152011
0.0133585
0.00148166
0.0129243
0.00144618
0.0125004
0.00141351
0.0120858
0.0013836
0.0116798
0.00135632
0.0112817
0.00133163
0.0108906
0.00130943
0.0105058
0.00128968
0.0101267
0.00127228
0.00975255
0.00125721
0.0093826
0.0012444
0.00901623
0.00123377
0.00865277
0.00122529
0.00829159
0.00121884
0.00793207
0.00121442
0.00757363
0.00121178
0.0072157
0.00121101
0.00685779
0.00121166
0.0064994
0.00121394
0.00614018
0.0012171
0.00577971
0.00122158
0.00541785
0.00122616
0.00505429
0.00123171
0.0046892
0.00123623
0.00432236
0.00124145
0.00395438
0.00124402
0.00358507
0.00124731
0.0032157
0.00124551
0.00284591
0.00124522
0.00247802
0.00123613
0.00211107
0.00123087
0.00174896
0.00121123
0.0013894
0.0012002
0.00103854
0.00116728
0.000692072
0.00114997
0.000358394
0.00110369
3.16654e-05
0.00107712
-0.000279877
0.00102445
-0.000579831
0.000980657
-0.000865208
0.000932667
-0.00113625
0.000883632
-0.00137935
0.000775244
-0.00165107
0.000912265
-0.00180281
0.000432187
-0.00208716
0.000940989
-0.0022856
0.000725977
-0.00233638
-6.28632e-06
-0.00266659
0.00117841
-0.002716
0.00011729
-0.00298593
0.00090488
-0.00315899
0.000704796
-0.00296668
-0.00112789
-0.00384579
0.00357363
-0.00332877
-0.00203401
-0.00333515
-0.000684966
-0.00505263
0.00745402
-0.00371528
-0.00567196
-0.00567891
0.00722397
-0.00546237
-0.00045823
-0.00534452
-0.00147095
-0.00681655
0.00551914
-0.00659438
-0.00331393
-0.0146814
0.031494
-0.0266262
0.0549806
-0.020583
-0.0125037
-0.052411
0.064905
0.0109328
-0.0644207
0.0654698
0.011453
0.0660767
0.0119305
0.0666605
0.0123177
0.0671586
0.0125902
0.0675224
0.0127435
0.0677165
0.0127857
0.067717
0.0127302
0.0675105
0.0125918
0.067093
0.0123852
0.066468
0.0121226
0.0656461
0.0118148
0.0646431
0.011471
0.0634788
0.0110995
0.0621761
0.0107072
0.0607591
0.0103008
0.0592521
0.00988605
0.0576787
0.00946825
0.0560607
0.00905209
0.0544175
0.00864165
0.0527661
0.0082403
0.0511206
0.00785073
0.0494927
0.00747499
0.0478915
0.00711452
0.0463241
0.00677023
0.0447957
0.00644261
0.04331
0.00613176
0.0418695
0.00583753
0.0404755
0.00555955
0.0391287
0.00529729
0.0378291
0.00505014
0.0365762
0.00481741
0.0353691
0.00459838
0.0342066
0.00439233
0.0330874
0.00419854
0.0320101
0.00401631
0.0309731
0.00384495
0.0299747
0.00368383
0.0290134
0.00353233
0.0280875
0.00338987
0.0271953
0.00325592
0.0263353
0.00312997
0.0255059
0.00301156
0.0247056
0.00290026
0.0239329
0.00279566
0.0231863
0.00269741
0.0224644
0.00260514
0.021766
0.00251857
0.0210897
0.00243738
0.0204342
0.00236135
0.0197983
0.00229019
0.0191808
0.00222374
0.0185807
0.00216175
0.0179967
0.00210409
0.0174278
0.00205054
0.016873
0.00200101
0.0163312
0.00195531
0.0158014
0.00191337
0.0152827
0.00187503
0.0147741
0.00184025
0.0142747
0.00180887
0.0137835
0.00178087
0.0132996
0.00175612
0.0128222
0.00173459
0.0123504
0.00171618
0.0118834
0.00170082
0.0114202
0.00168845
0.0109602
0.00167891
0.0105024
0.00167222
0.0100461
0.00166805
0.00959059
0.00166651
0.00913522
0.00166703
0.00867928
0.00166987
0.00822232
0.00167407
0.00776374
0.00168016
0.00730333
0.00168657
0.00684064
0.0016944
0.00637581
0.00170106
0.00590852
0.00170874
0.00543944
0.00171309
0.00496832
0.00171843
0.00449665
0.00171718
0.00402398
0.00171789
0.0035531
0.00170701
0.00308284
0.00170113
0.002618
0.00167607
0.00215581
0.00166239
0.00170384
0.00161924
0.00125685
0.00159696
0.000825378
0.00153516
0.000401995
0.00150051
-1.86372e-06
0.00142831
-0.000392735
0.00137153
-0.000764398
0.00130433
-0.00111841
0.00123765
-0.00143866
0.00109549
-0.00178857
0.00126217
-0.0020002
0.000643811
-0.00236398
0.00130477
-0.00261539
0.000977384
-0.00271266
9.09983e-05
-0.00311914
0.00158489
-0.00319753
0.000195685
-0.00353883
0.00124618
-0.00375028
0.000916243
-0.00357694
-0.00130123
-0.00458761
0.0045843
-0.00401409
-0.00260754
-0.0040981
-0.000600946
-0.00602396
0.00937987
-0.00453188
-0.00716404
-0.00687502
0.00956711
-0.00660374
-0.000729515
-0.00662811
-0.00144658
-0.00838476
0.00727578
-0.00836641
-0.00333227
-0.0175722
0.0406998
-0.0303662
0.0677746
-0.0216588
-0.0212111
-0.0705602
0.0694788
0.0105055
-0.0690515
0.0699619
0.0109699
0.0704818
0.0114106
0.0710028
0.0117967
0.0714852
0.0121077
0.0718954
0.0123333
0.0722072
0.0124739
0.0724013
0.0125361
0.0724635
0.0125296
0.0723838
0.0124648
0.0721553
0.0123512
0.0717741
0.012196
0.0712396
0.0120056
0.070554
0.011785
0.0697229
0.0115384
0.0687547
0.011269
0.0676605
0.0109802
0.0664539
0.0106749
0.0651498
0.0103562
0.0637641
0.0100274
0.0623128
0.00969159
0.0608116
0.00935191
0.0592753
0.00901128
0.0577174
0.00867242
0.0561499
0.00833769
0.0545834
0.00800915
0.0530267
0.00768848
0.0514872
0.00737702
0.049971
0.00707578
0.0484828
0.00678548
0.0470263
0.0065066
0.0456044
0.00623939
0.0442188
0.00598393
0.042871
0.00574018
0.0415615
0.00550796
0.0402908
0.00528703
0.0390587
0.00507709
0.0378647
0.00487779
0.0367083
0.00468874
0.0355886
0.00450957
0.0345046
0.00433988
0.0334553
0.00417927
0.0324395
0.00402736
0.031456
0.00388377
0.0305035
0.00374814
0.0295808
0.00362014
0.0286865
0.00349941
0.0278194
0.00338568
0.0269782
0.00327862
0.0261615
0.00317801
0.0253682
0.00308355
0.0245969
0.00299504
0.0238464
0.00291224
0.0231155
0.002835
0.0224029
0.00276307
0.0217076
0.00269636
0.0210282
0.00263465
0.0203637
0.00257787
0.0197129
0.00252582
0.0190747
0.00247847
0.0184479
0.00243563
0.0178315
0.00239729
0.0172244
0.00236328
0.0166254
0.00233357
0.0160335
0.00230806
0.0154477
0.00228665
0.0148669
0.00226928
0.01429
0.00225577
0.0137161
0.00224611
0.0131442
0.00223994
0.0125734
0.00223736
0.0120027
0.00223769
0.0114314
0.00224122
0.0108587
0.00224675
0.0102839
0.00225495
0.00970663
0.00226382
0.0091263
0.00227472
0.00854299
0.00228437
0.00795622
0.00229551
0.00736675
0.00230256
0.00677418
0.00231101
0.00618026
0.00231109
0.00558439
0.00231376
0.00498993
0.00230147
0.00439543
0.00229563
0.00380671
0.0022648
0.00322044
0.00224866
0.00264588
0.0021938
0.00207671
0.00216613
0.00152594
0.00208593
0.000984436
0.00204201
0.000466447
0.0019463
-3.52312e-05
0.00187321
-0.000513641
0.00178274
-0.000970378
0.00169439
-0.00138675
0.00151187
-0.00183258
0.001708
-0.00212181
0.000933037
-0.00258101
0.00176397
-0.00289929
0.00129567
-0.00306016
0.000251867
-0.00355322
0.00207795
-0.00367365
0.000316111
-0.00409831
0.00167084
-0.00435769
0.00117561
-0.00421791
-0.001441
-0.00536309
0.00572947
-0.00475036
-0.00322028
-0.00492392
-0.000427348
-0.00705381
0.0115097
-0.00542724
-0.00879061
-0.00815807
0.012298
-0.0078449
-0.00104268
-0.00806333
-0.00122814
-0.0100969
0.00930937
-0.0102823
-0.0031469
-0.0204129
0.0508304
-0.0337782
0.0811399
-0.0219175
-0.0330718
-0.0926188
0.07436
0.0101226
-0.073977
0.074784
0.0105459
0.0752381
0.0109565
0.0757015
0.0113332
0.0761485
0.0116607
0.0765545
0.0119274
0.0768996
0.0121288
0.0771693
0.0122664
0.0773532
0.0123457
0.0774439
0.0123741
0.0774357
0.0123594
0.0773233
0.0123083
0.0771025
0.0122264
0.0767693
0.0121182
0.0763205
0.0119871
0.0757543
0.0118353
0.0750703
0.0116641
0.0742704
0.0114748
0.0733584
0.0112682
0.0723403
0.0110455
0.0712241
0.0108078
0.0700193
0.0105567
0.0687366
0.010294
0.0673874
0.0100216
0.0659833
0.00974176
0.0645359
0.00945658
0.0630561
0.00916824
0.0615543
0.00887878
0.06004
0.00859013
0.0585215
0.00830398
0.0570063
0.00802183
0.0555007
0.00774496
0.0540102
0.00747443
0.0525393
0.0072111
0.0510916
0.00695562
0.0496701
0.0067085
0.0482771
0.00647009
0.0469143
0.00624061
0.0455829
0.0060202
0.0442835
0.0058089
0.0430168
0.00560666
0.0417826
0.00541341
0.040581
0.00522901
0.0394114
0.00505331
0.0382734
0.00488612
0.0371663
0.00472726
0.0360892
0.00457649
0.0350413
0.00443364
0.0340214
0.00429845
0.0330287
0.00417077
0.0320619
0.00405035
0.0311199
0.00393703
0.0302015
0.00383059
0.0293056
0.00373091
0.0284309
0.00363777
0.0275762
0.00355108
0.0267403
0.00347062
0.0259218
0.00339635
0.0251195
0.00332807
0.0243323
0.00326574
0.0235587
0.00320919
0.0227976
0.00315841
0.0220476
0.00311322
0.0213076
0.00307361
0.0205762
0.00303946
0.0198522
0.00301068
0.0191342
0.00298721
0.0184212
0.00296883
0.0177117
0.00295557
0.0170047
0.00294696
0.0162989
0.00294317
0.0155932
0.00294334
0.0148866
0.00294785
0.0141781
0.00295522
0.0134668
0.00296626
0.0127522
0.00297848
0.0120333
0.00299358
0.0113103
0.00300741
0.0105824
0.00302341
0.00985044
0.00303449
0.00911387
0.00304758
0.00837472
0.00305024
0.00763214
0.00305634
0.00689014
0.00304348
0.00614694
0.00303883
0.00540948
0.00300225
0.00467387
0.00298427
0.00395122
0.00291645
0.00323407
0.00288328
0.00253827
0.00278173
0.00185274
0.00272754
0.00119551
0.00260353
0.000556495
0.00251222
-5.26173e-05
0.00239185
-0.00063592
0.00227769
-0.00117184
0.00204779
-0.00173541
0.00227157
-0.00212409
0.00132172
-0.00269835
0.00233823
-0.00310116
0.00169848
-0.00334665
0.000497356
-0.00393834
0.00266964
-0.00411809
0.00049586