/*--------------------------------*- C++ -*----------------------------------*\
| =========                 |                                                 |
| \\      /  F ield         | OpenFOAM: The Open Source CFD Toolbox           |
|  \\    /   O peration     | Version:  2412                                  |
|   \\  /    A nd           | Website:  www.openfoam.com                      |
|    \\/     M anipulation  |                                                 |
\*---------------------------------------------------------------------------*/
FoamFile
{
    version     2.0;
    format      ascii;
    arch        "LSB;label=32;scalar=64";
    class       surfaceScalarField;
    location    "0.07";
    object      ddtCorrDdt0(phi);
}
// * * * * * * * * * * * * * * * * * * * * * * * * * * * * * * * * * * * * * //

dimensions      [0 3 -2 0 0 0 0];

oriented        oriented;

internalField   nonuniform List<scalar> 
24930
(
0.00169582
0.00208921
-0.0037858
0.000647036
0.00104874
0.000215247
0.000431794
4.82307e-05
0.000167077
-3.07061e-05
7.89845e-05
-7.972e-05
4.90341e-05
-0.00011321
3.34854e-05
-0.000133324
2.01109e-05
-0.000148269
1.49566e-05
-0.000159443
1.11634e-05
-0.000168138
8.73178e-06
-0.000175244
7.15118e-06
-0.000181144
5.96617e-06
-0.000185958
4.8135e-06
-0.000189658
3.66662e-06
-0.000192514
2.78985e-06
-0.000194733
2.22339e-06
-0.000196578
1.84892e-06
-0.000198324
1.76422e-06
-0.00019988
1.68145e-06
-0.000201362
1.48205e-06
-0.000203075
1.7084e-06
-0.000204676
1.78967e-06
-0.000206579
1.7564e-06
-0.000209254
2.62004e-06
-0.000211459
2.53713e-06
-0.000214425
2.58408e-06
-0.000217448
3.26726e-06
-0.000219496
2.27027e-06
-0.000222804
2.73476e-06
-0.000224965
2.73612e-06
-0.000227834
2.51493e-06
-0.000231229
3.3987e-06
-0.000234192
3.22155e-06
-0.000238641
4.09012e-06
-0.000242133
3.8778e-06
-0.000247255
4.66491e-06
-0.00025169
4.89152e-06
-0.000257435
5.42492e-06
-0.000263421
6.16784e-06
-0.000269961
6.51899e-06
-0.000277212
7.14311e-06
-0.000284497
7.39443e-06
-0.000293142
8.5265e-06
-0.000301907
9.0033e-06
-0.000312344
1.02311e-05
-0.000322849
1.07049e-05
-0.000335169
1.20782e-05
-0.000347869
1.29036e-05
-0.000362606
1.44891e-05
-0.000378336
1.59699e-05
-0.000396533
1.80012e-05
-0.000415182
1.87673e-05
-0.000437089
2.17802e-05
-0.000460558
2.3642e-05
-0.000485849
2.51504e-05
-0.000514757
2.90434e-05
-0.000547476
3.26225e-05
-0.000585654
3.82491e-05
-0.000625384
3.96419e-05
-0.000672564
4.72767e-05
-0.000726489
5.3893e-05
-0.000787723
6.12514e-05
-0.000857898
7.00896e-05
-0.000938238
8.04136e-05
-0.0010304
9.21197e-05
-0.00113626
0.000105892
-0.00125915
0.000122885
-0.00140136
0.000142235
-0.00156601
0.000164603
-0.00175886
0.000192859
-0.00198464
0.000225785
-0.00224546
0.000260848
-0.00255297
0.00030745
-0.0029281
0.000375157
-0.00337526
0.000447178
-0.00387588
0.000500562
-0.00445463
0.000578752
-0.00520872
0.000754183
-0.006207
0.000998166
-0.00735759
0.00115061
-0.00843157
0.00107406
-0.00923537
0.000803724
-0.009744
0.000508639
-0.0100776
0.000333682
-0.0103833
0.00030565
-0.0107455
0.000362216
-0.0111777
0.000432175
-0.0116587
0.000480977
-0.0121668
0.00050809
-0.012692
0.000525145
-0.0132335
0.000541566
-0.0137961
0.000562585
-0.0143885
0.000592424
-0.0150222
0.000633653
-0.0157083
0.000686179
-0.0164541
0.0007458
-0.0172634
0.000809241
-0.0181315
0.000868107
-0.0190598
0.000928289
-0.0200454
0.000985575
-0.0211048
0.00105943
-0.0222416
0.00113686
-0.0234591
0.00121741
-0.0247672
0.0013081
-0.0261624
0.00139529
-0.0276695
0.00150707
-0.0292664
0.0015969
-0.0310054
0.00173899
-0.0328348
0.00182943
-0.0348342
0.00199938
-0.0369512
0.00211702
-0.0392119
0.00226067
-0.0417237
0.00251176
-0.044217
0.0024933
-0.0472014
0.00298442
-0.0500793
0.00287794
-0.0531051
0.00302576
-0.0567492
0.0036441
0.00223836
0.00321192
0.00291489
-0.00403764
0.00216382
0.00209689
0.00128323
0.00131248
0.000683711
0.00076665
0.000307876
0.000454833
6.71627e-05
0.000289724
-8.95455e-05
0.000190221
-0.000202306
0.000132861
-0.000285176
9.78653e-05
-0.000348535
7.45613e-05
-0.000398627
5.89199e-05
-0.000439355
4.79398e-05
-0.000472913
3.95571e-05
-0.000500486
3.2319e-05
-0.000522849
2.59988e-05
-0.000541176
2.10663e-05
-0.00055654
1.76455e-05
-0.000569869
1.53113e-05
-0.000581959
1.38517e-05
-0.000593023
1.28874e-05
-0.00060339
1.20145e-05
-0.000613709
1.18224e-05
-0.00062387
1.21308e-05
-0.000634529
1.2558e-05
-0.000646433
1.4027e-05
-0.000658012
1.47816e-05
-0.000670388
1.47207e-05
-0.00068268
1.52178e-05
-0.000693508
1.39706e-05
-0.000705605
1.3777e-05
-0.00071659
1.43549e-05
-0.000728724
1.45402e-05
-0.000742103
1.63977e-05
-0.00075567
1.7479e-05
-0.000771542
1.90994e-05
-0.000787029
2.02611e-05
-0.000805049
2.18372e-05
-0.00082325
2.38072e-05
-0.000844003
2.58044e-05
-0.000866231
2.8488e-05
-0.000890289
3.06749e-05
-0.000916215
3.28354e-05
-0.000943462
3.50153e-05
-0.000973985
3.8716e-05
-0.00100647
4.19776e-05
-0.00104297
4.62591e-05
-0.00108153
4.97067e-05
-0.00112457
5.45983e-05
-0.0011708
5.96207e-05
-0.00122245
6.56624e-05
-0.00127927
7.32e-05
-0.00134296
8.13456e-05
-0.00141067
8.68093e-05
-0.00148748
9.83193e-05
-0.00156997
0.000106464
-0.00166161
0.000116519
-0.00176634
0.000133971
-0.00188257
0.000148636
-0.00201665
0.000172463
-0.00216128
0.000184142
-0.0023302
0.000216347
-0.00252388
0.00024747
-0.00274496
0.000282441
-0.00299849
0.000323493
-0.00328977
0.000371833
-0.00362482
0.000427117
-0.00401173
0.000492883
-0.00446109
0.000572196
-0.00498121
0.000662406
-0.00558573
0.000769076
-0.00629586
0.000903046
-0.0071278
0.00105768
-0.00809586
0.00122897
-0.00924706
0.00145861
-0.0106473
0.00177533
-0.0123009
0.00210083
-0.0141752
0.00237492
-0.0163916
0.00279507
-0.0192505
0.00361321
-0.0228763
0.00462397
-0.0268702
0.00514441
-0.0304772
0.00468114
-0.0331431
0.00346961
-0.0348709
0.00223642
-0.0360851
0.00154792
-0.0372489
0.00146943
-0.0386099
0.00172322
-0.0401949
0.00201719
-0.0419319
0.00221797
-0.0437527
0.00232894
-0.0456281
0.00240052
-0.0475608
0.00247433
-0.0495727
0.00257449
-0.0516979
0.00271762
-0.053975
0.00291075
-0.0564374
0.00314857
-0.0591052
0.00341365
-0.0619865
0.00369049
-0.0650772
0.00395887
-0.0683752
0.00422632
-0.0719007
0.00451104
-0.0756807
0.0048394
-0.0797316
0.00518782
-0.0840662
0.00555189
-0.0887148
0.00595677
-0.0936777
0.00635819
-0.0990173
0.0068467
-0.104695
0.00727459
-0.110836
0.00788006
-0.117333
0.00832668
-0.124383
0.00904918
-0.131868
0.00960187
-0.139856
0.0102489
-0.14867
0.0113257
-0.157488
0.011311
-0.167966
0.0134625
-0.178053
0.0129646
-0.188862
0.013835
-0.201856
0.0166388
0.0109958
0.00385816
0.0031956
-0.00413888
0.00323355
0.00272159
0.00244063
0.00210544
0.00168917
0.00151808
0.00108293
0.00106099
0.000627716
0.000744878
0.000282399
0.000535527
2.80483e-05
0.000387196
-0.000164363
0.000290301
-0.000313205
0.000223441
-0.000431777
0.000177581
-0.000528644
0.000144855
-0.000608921
0.000119846
-0.000675645
9.8966e-05
-0.000730928
8.12631e-05
-0.000777189
6.72914e-05
-0.000816661
5.71587e-05
-0.000851187
4.99746e-05
-0.00088231
4.4945e-05
-0.000910762
4.14179e-05
-0.000937216
3.86636e-05
-0.000962774
3.71464e-05
-0.000987623
3.71092e-05
-0.00101262
3.78084e-05
-0.00103884
3.96814e-05
-0.00106448
4.10889e-05
-0.00109057
4.06802e-05
-0.00111627
4.04039e-05
-0.00113989
3.85822e-05
-0.00116469
3.75037e-05
-0.00118841
3.86579e-05
-0.00121362
3.97418e-05
-0.00124073
4.30426e-05
-0.00126859
4.61007e-05
-0.00129951
4.90862e-05
-0.0013306
5.23222e-05
-0.00136511
5.54438e-05
-0.00140067
6.00988e-05
-0.00143999
6.47606e-05
-0.00148207
7.06228e-05
-0.00152729
7.60189e-05
-0.0015757
8.09747e-05
-0.00162689
8.6623e-05
-0.00168341
9.48566e-05
-0.00174395
0.000103049
-0.00181112
0.000112898
-0.00188267
0.000121739
-0.00196169
0.000133037
-0.00204705
0.00014552
-0.00214174
0.000159825
-0.00224628
0.000178167
-0.00236257
0.000197258
-0.0024877
0.000212297
-0.00262825
0.000238563
-0.00278142
0.000259997
-0.00294963
0.000284433
-0.00314317
0.000327716
-0.00335647
0.000361707
-0.00359813
0.000414338
-0.00386895
0.000454823
-0.00418152
0.000529061
-0.00454036
0.000606199
-0.00495083
0.000693042
-0.00542221
0.000794729
-0.00596473
0.00091449
-0.00659017
0.0010525
-0.00731408
0.00121687
-0.00815467
0.00141272
-0.00912906
0.00163685
-0.0102659
0.00190586
-0.0116047
0.00224187
-0.0131758
0.00262875
-0.0150129
0.00306618
-0.0172078
0.00365343
-0.0198693
0.00443682
-0.0230024
0.00523389
-0.0265855
0.00595812
-0.0308704
0.00707987
-0.0363399
0.00908283
-0.0430817
0.0113657
-0.0502933
0.012356
-0.0566726
0.0110605
-0.0613609
0.00815788
-0.0644627
0.00533815
-0.0667452
0.00383054
-0.0689866
0.00371071
-0.0715799
0.00431664
-0.0745529
0.00499008
-0.0777773
0.00544245
-0.0811382
0.00568979
-0.0845887
0.00585096
-0.0881395
0.00602525
-0.0918367
0.0062716
-0.0957449
0.00662594
-0.0999323
0.00709813
-0.104453
0.0076691
-0.109338
0.00829901
-0.114601
0.00895303
-0.120238
0.00959636
-0.126252
0.0102401
-0.132681
0.0109398
-0.13956
0.0117184
-0.146919
0.0125471
-0.154779
0.0134118
-0.163191
0.0143684
-0.172158
0.0153251
-0.181774
0.0164635
-0.191993
0.0174928
-0.202994
0.0188812
-0.214633
0.0199655
-0.227192
0.021609
-0.240515
0.0229248
-0.254672
0.0244053
-0.27024
0.0268936
-0.285753
0.0268238
-0.30415
0.0318598
-0.321741
0.0305562
-0.340652
0.0327457
-0.363481
0.0394673
0.0268258
0.00415607
0.00330335
-0.00426374
0.00385995
0.00301775
0.00334153
0.00262379
0.00270443
0.00215507
0.00206357
0.00170179
0.0014871
0.00132131
0.000998792
0.00102383
0.000590579
0.000795394
0.000262707
0.000618179
1.71419e-07
0.000485989
-0.000212693
0.000390509
-0.000388909
0.000321091
-0.000536915
0.000267851
-0.000661845
0.000223846
-0.000767212
0.000186647
-0.000856697
0.000156767
-0.000933834
0.000134318
-0.00100161
0.000117873
-0.00106256
0.000105837
-0.00111817
9.70427e-05
-0.00116961
9.02962e-05
-0.00121849
8.57862e-05
-0.00126541
8.4081e-05
-0.00131144
8.41393e-05
-0.00135812
8.57374e-05
-0.00140358
8.71446e-05
-0.00144878
8.58435e-05
-0.00149304
8.40456e-05
-0.00153442
8.09686e-05
-0.00157659
7.86664e-05
-0.0016176
8.01473e-05
-0.0016602
8.24214e-05
-0.00170526
8.75763e-05
-0.00175153
9.31494e-05
-0.00180156
9.8166e-05
-0.0018523
0.000104033
-0.00190724
0.000109481
-0.0019641
0.000117673
-0.00202587
0.000126182
-0.00209172
0.000136493
-0.00216211
0.000146539
-0.00223711
0.000155688
-0.00231648
0.000166428
-0.00240337
0.000181343
-0.00249652
0.000196741
-0.00259918
0.000215
-0.00270886
0.000231914
-0.00282932
0.000252895
-0.00295964
0.000276394
-0.00310355
0.000303184
-0.00326229
0.000337347
-0.00343819
0.00037276
-0.00362859
0.000403065
-0.00384168
0.00045131
-0.00407597
0.000494673
-0.00433445
0.00054261
-0.00463079
0.00062428
-0.00495284
0.000683503
-0.00532111
0.000782847
-0.00573716
0.000870735
-0.00621641
0.00100843
-0.00676662
0.00115629
-0.00739706
0.00132361
-0.00812196
0.00151946
-0.00895744
0.00175012
-0.00992234
0.00201734
-0.0110409
0.00233548
-0.0123404
0.00271219
-0.0138495
0.00314595
-0.0156152
0.00367154
-0.0176975
0.00432422
-0.0201453
0.00507643
-0.0230189
0.00593993
-0.0264611
0.00709556
-0.0306264
0.00860208
-0.0355254
0.0101329
-0.0411673
0.0116
-0.0479504
0.0138629
-0.056517
0.0176496
-0.0668521
0.0217007
-0.0776844
0.0231882
-0.0871437
0.02052
-0.0940944
0.0151085
-0.0987842
0.0100279
-0.102351
0.00739736
-0.105895
0.00725483
-0.109953
0.00837459
-0.114548
0.0095852
-0.119493
0.010387
-0.124621
0.0108179
-0.129866
0.0110965
-0.13525
0.0114087
-0.140845
0.0118665
-0.146751
0.0125322
-0.153068
0.013415
-0.15987
0.0144715
-0.167201
0.0156294
-0.175072
0.0168245
-0.183487
0.0180113
-0.192458
0.0192111
-0.202033
0.0205146
-0.212245
0.0219304
-0.223137
0.0234398
-0.234733
0.0250074
-0.247102
0.0267373
-0.26024
0.0284634
-0.274275
0.0304987
-0.289131
0.0323488
-0.305048
0.0347981
-0.32182
0.036737
-0.33981
0.0395995
-0.358816
0.0419307
-0.378846
0.044435
-0.400822
0.0488698
-0.422421
0.0484229
-0.448084
0.057523
-0.472252
0.0547238
-0.498133
0.0586264
-0.529431
0.0707656
0.0487698
0.00435287
0.00337391
-0.0044234
0.00421225
0.0031583
0.00392146
0.00291449
0.00348865
0.00258782
0.00296853
0.00222191
0.00242171
0.00186814
0.00189252
0.00155306
0.00140706
0.00128081
0.000975829
0.00104939
0.000603065
0.000858749
0.000287693
0.000705919
1.96713e-05
0.000589104
-0.000210583
0.000498101
-0.000409252
0.00042248
-0.000580511
0.000357939
-0.000728568
0.000304824
-0.000857769
0.000263508
-0.000972063
0.00023226
-0.001075
0.000208686
-0.00116896
0.000190947
-0.00125569
0.000177201
-0.00133734
0.000167179
-0.00141497
0.000161685
-0.00148993
0.000159454
-0.00156432
0.000159501
-0.0016365
0.000159826
-0.00170734
0.000156761
-0.00177644
0.000152448
-0.00184159
0.000147127
-0.00190677
0.000142929
-0.00197041
0.000144179
-0.00203548
0.000147655
-0.00210336
0.000154897
-0.00217282
0.000163389
-0.00224663
0.000171045
-0.00232167
0.000180034
-0.00240157
0.000188513
-0.00248423
0.000201012
-0.00257284
0.000214485
-0.00266687
0.00023052
-0.00276692
0.000246738
-0.00287311
0.000261593
-0.00298536
0.000279122
-0.00310744
0.000303016
-0.00323818
0.000328042
-0.00338159
0.000357838
-0.00353498
0.00038582
-0.00370285
0.000420145
-0.00388447
0.000458599
-0.00408438
0.000502526
-0.00430454
0.000557967
-0.00454805
0.00061586
-0.00481306
0.000668458
-0.00510914
0.000747035
-0.00543436
0.000820295
-0.00579254
0.000900466
-0.00620258
0.00103458
-0.00665366
0.00113431
-0.00716062
0.00129004
-0.00774449
0.00145446
-0.00841193
0.00167601
-0.00917928
0.0019235
-0.0100597
0.00220421
-0.0110733
0.00253281
-0.0122428
0.00291983
-0.0135955
0.00336993
-0.0151654
0.00390547
-0.0169905
0.00453727
-0.0191146
0.00527001
-0.0216058
0.00616268
-0.0245477
0.00726624
-0.0280112
0.00853988
-0.0320905
0.0100193
-0.0369843
0.0119892
-0.0428949
0.0145127
-0.0498474
0.0170854
-0.0578999
0.0196526
-0.0676047
0.0235676
-0.0797344
0.0297795
-0.0941131
0.0360792
-0.108954
0.0380287
-0.12181
0.033377
-0.131292
0.02459
-0.137815
0.0165505
-0.1429
0.0124826
-0.147974
0.0123292
-0.153719
0.0141189
-0.160153
0.0160198
-0.167029
0.0172632
-0.174126
0.0179147
-0.181353
0.0183233
-0.188737
0.0187924
-0.19638
0.0195094
-0.204419
0.0205712
-0.212987
0.021983
-0.222181
0.0236655
-0.232053
0.0255021
-0.242617
0.027388
-0.253876
0.0292706
-0.265846
0.0311805
-0.278576
0.033245
-0.292094
0.0354486
-0.306451
0.0377967
-0.321658
0.0402145
-0.3378
0.0428792
-0.354846
0.0455097
-0.372954
0.0486067
-0.391991
0.0513855
-0.412254
0.0550612
-0.433441
0.0579235
-0.45598
0.0621389
-0.479615
0.0655655
-0.504195
0.0690149
-0.531096
0.075771
-0.556882
0.0742095
-0.587699
0.0883398
-0.615887
0.0829114
-0.64591
0.0886493
-0.681982
0.106838
0.0739374
0.00454524
0.00344047
-0.00461184
0.00444751
0.00325599
0.00428076
0.00308128
0.00401334
0.00285531
0.00365215
0.00258319
0.00322525
0.00229512
0.00276314
0.00201518
0.00229342
0.00175046
0.0018391
0.00150365
0.00141547
0.00128233
0.00102536
0.00109603
0.00067864
0.000935813
0.000370058
0.000806691
9.5951e-05
0.000696566
-0.000147087
0.000601021
-0.000362439
0.000520194
-0.00055396
0.000455
-0.000725587
0.00040395
-0.000881288
0.000364282
-0.00102411
0.000333639
-0.00115622
0.000309475
-0.00128019
0.000290917
-0.0013975
0.000278912
-0.00150973
0.000272081
-0.00161958
0.00026876
-0.00172596
0.00026659
-0.00182971
0.00026068
-0.00193072
0.000252699
-0.0020265
0.000243864
-0.00212108
0.000236705
-0.0022134
0.000236776
-0.0023066
0.000241095
-0.00240269
0.000250419
-0.00250062
0.000262086
-0.0026034
0.000272913
-0.00270789
0.00028546
-0.00281779
0.000297576
-0.00293117
0.000315033
-0.00305144
0.000334493
-0.00317846
0.0003575
-0.00331303
0.000381478
-0.00345536
0.000403635
-0.00360545
0.000429667
-0.0037678
0.000464948
-0.00394131
0.000502111
-0.00413084
0.000546802
-0.0043336
0.000589094
-0.00455483
0.000640757
-0.00479405
0.000698419
-0.00505655
0.000764455
-0.00534513
0.000847019
-0.00566368
0.000934005
-0.00601121
0.00101638
-0.00639921
0.00113467
-0.00682591
0.00124741
-0.00729556
0.00136977
-0.00783242
0.00157171
-0.00841755
0.00171916
-0.00909867
0.00197138
-0.00985728
0.00221291
-0.0107346
0.00255345
-0.0117432
0.00293196
-0.0129016
0.00336283
-0.0142363
0.00386732
-0.0157778
0.0044615
-0.0175624
0.00515446
-0.0196358
0.0059789
-0.022049
0.00695041
-0.0248632
0.00808427
-0.0281696
0.00946903
-0.0320776
0.0111743
-0.0366848
0.013147
-0.0421246
0.0154591
-0.0486549
0.0185195
-0.0565299
0.0223876
-0.0657991
0.0263546
-0.0765813
0.0304348
-0.0895778
0.0365639
-0.105664
0.0458655
-0.12447
0.054886
-0.143681
0.0572391
-0.160274
0.0499701
-0.1726
0.0369158
-0.181234
0.0251849
-0.188078
0.0193264
-0.194889
0.01914
-0.202503
0.0217333
-0.210949
0.0244659
-0.21992
0.026234
-0.229134
0.0271285
-0.238465
0.0276541
-0.247936
0.0282634
-0.257672
0.0292461
-0.267848
0.0307471
-0.278632
0.0327671
-0.290146
0.035179
-0.302451
0.0378076
-0.315558
0.0404943
-0.329464
0.0431772
-0.344178
0.0458943
-0.359745
0.048812
-0.376173
0.0518768
-0.393511
0.0551345
-0.41174
0.0584437
-0.430951
0.0620902
-0.451059
0.0656178
-0.472246
0.0697935
-0.494282
0.0734211
-0.517517
0.0782966
-0.541507
0.0819135
-0.566721
0.087353
-0.592844
0.0916879
-0.619443
0.0956143
-0.648468
0.104796
-0.675121
0.100863
-0.707396
0.120615
-0.73533
0.110845
-0.765005
0.118324
-0.799857
0.14169
0.0974739
0.00475464
0.00349931
-0.00481351
0.00466798
0.00334276
0.00455061
0.0031988
0.00437391
0.00303215
0.00413105
0.0028262
0.00382682
0.0025994
0.00347286
0.00236911
0.00308377
0.00213945
0.00267662
0.00191071
0.0022679
0.00169099
0.00187221
0.00149173
0.00149086
0.00131717
0.00113417
0.0011634
0.000804537
0.0010262
0.000502799
0.000902819
0.000227183
0.000795846
-2.44331e-05
0.000706564
-0.000254722
0.000634255
-0.000466881
0.000576321
-0.000663761
0.000530341
-0.000847377
0.000493242
-0.00102024
0.000463598
-0.001184
0.000442511
-0.00134017
0.000428649
-0.00149199
0.000419996
-0.00163909
0.000413939
-0.00178238
0.000404242
-0.00192207
0.00039161
-0.00205526
0.000377954
-0.00218571
0.000366487
-0.00231283
0.000364052
-0.00243988
0.000368444
-0.0025696
0.00037957
-0.00270133
0.000394537
-0.0028383
0.000409011
-0.0029775
0.000425546
-0.00312253
0.000441826
-0.0032717
0.000464773
-0.00342856
0.000491129
-0.00359343
0.000522309
-0.00376748
0.000555699
-0.00395096
0.000586819
-0.00414385
0.000623012
-0.00435147
0.00067214
-0.00457278
0.000723974
-0.00481363
0.000787076
-0.00507111
0.000847091
-0.00535134
0.000920358
-0.00565404
0.00100173
-0.00598523
0.00109507
-0.0063488
0.00121105
-0.00674935
0.00133414
-0.00718656
0.001454
-0.0076745
0.00162224
-0.00821174
0.00178506
-0.00880262
0.0019603
-0.0094751
0.00224445
-0.0102366
0.00248037
-0.011088
0.00282301
-0.0120281
0.00315283
-0.0131304
0.00365594
-0.0143998
0.00420119
-0.015859
0.00482222
-0.0175413
0.00554939
-0.0194855
0.00640591
-0.021738
0.00740695
-0.0243581
0.00859909
-0.0274119
0.0100041
-0.0309779
0.0116504
-0.0351717
0.0136627
-0.040131
0.0161337
-0.0459836
0.0189995
-0.0529061
0.0223818
-0.0612175
0.0268308
-0.071228
0.0323981
-0.0830223
0.0381489
-0.0967827
0.0441953
-0.113343
0.0531236
-0.133656
0.0661792
-0.157162
0.0783917
-0.181035
0.0811125
-0.201691
0.0706256
-0.217195
0.0524201
-0.228239
0.0362289
-0.237072
0.0281597
-0.245785
0.0278525
-0.255389
0.0313375
-0.265941
0.035018
-0.277087
0.0373794
-0.288478
0.0385197
-0.299937
0.0391132
-0.311464
0.0397902
-0.323192
0.0409743
-0.335326
0.0428811
-0.348072
0.0455138
-0.361581
0.0486874
-0.375925
0.0521519
-0.391105
0.0556743
-0.407107
0.0591792
-0.423919
0.0627066
-0.441571
0.0664637
-0.460033
0.070339
-0.479341
0.074442
-0.499421
0.0785236
-0.520361
0.0830302
-0.541986
0.0872425
-0.564497
0.0923051
-0.587521
0.096445
-0.611461
0.102236
-0.635682
0.106134
-0.660665
0.112337
-0.686044
0.117066
-0.710988
0.120558
-0.738118
0.131926
-0.761132
0.123876
-0.789882
0.149366
-0.812037
0.133
-0.835818
0.142105
-0.862156
0.168028
0.113409
0.00498112
0.00354679
-0.00502849
0.00490406
0.00341998
0.00480252
0.00330046
0.00466716
0.00316767
0.00448944
0.00300403
0.00426811
0.00282075
0.00400576
0.0026314
0.00370647
0.00243864
0.00337677
0.00224033
0.00302725
0.00204047
0.00266954
0.00184943
0.002312
0.00167471
0.0019583
0.0015171
0.00161067
0.00137386
0.00128058
0.00123298
0.000969256
0.00110721
0.000676963
0.000998781
0.000402488
0.000908718
0.000143843
0.000834863
-0.000100894
0.000774873
-0.000332756
0.000725232
-0.000553443
0.000684158
-0.00076417
0.000653034
-0.000965851
0.000630726
-0.00116177
0.000615415
-0.00135236
0.000604652
-0.00153867
0.000590907
-0.00172126
0.00057344
-0.00189674
0.000554238
-0.00206808
0.000537318
-0.00223492
0.000530943
-0.00240048
0.000534341
-0.00256821
0.000546759
-0.00273807
0.000565061
-0.00291356
0.000583685
-0.00309195
0.000604752
-0.00327659
0.000625753
-0.00346599
0.000654666
-0.00366377
0.000688735
-0.0038708
0.000729239
-0.00408871
0.000773779
-0.00431779
0.000815604
-0.00455786
0.000863517
-0.00481509
0.000928943
-0.0050885
0.000997916
-0.005385
0.00108301
-0.00570161
0.00116421
-0.00604542
0.00126354
-0.00641635
0.00137327
-0.00682101
0.00149916
-0.00726477
0.00165527
-0.00775282
0.00182178
-0.008285
0.00198659
-0.00887872
0.00221559
-0.00953295
0.00243971
-0.0102518
0.00267878
-0.01107
0.00306294
-0.0119584
0.00336845
-0.0130109
0.00387572
-0.0141735
0.00431527
-0.0155148
0.00499746
-0.0170579
0.00574409
-0.0188325
0.00659696
-0.0208791
0.00759589
-0.0232457
0.00877265
-0.0259891
0.0101503
-0.029183
0.0117931
-0.0329098
0.0137308
-0.0372654
0.0160061
-0.0423905
0.0187876
-0.0484528
0.0221961
-0.0556122
0.0261589
-0.0640892
0.0308589
-0.0742619
0.0370034
-0.0865014
0.0446375
-0.100938
0.0525858
-0.117812
0.061069
-0.138056
0.0733677
-0.162686
0.0908089
-0.190982
0.106688
-0.219681
0.109812
-0.244664
0.0956092
-0.26367
0.0714257
-0.277417
0.0499754
-0.288441
0.0391841
-0.299155
0.0385666
-0.310772
0.0429548
-0.323409
0.0476548
-0.336683
0.0506534
-0.350182
0.0520182
-0.363655
0.0525865
-0.377048
0.0531836
-0.390475
0.0544014
-0.404157
0.0565624
-0.418337
0.0596939
-0.433198
0.063549
-0.44883
0.0677837
-0.46522
0.0720643
-0.482335
0.0762941
-0.500132
0.0805031
-0.51861
0.0849418
-0.537683
0.0894126
-0.557363
0.0941214
-0.577493
0.0986538
-0.598152
0.10369
-0.61904
0.10813
-0.640382
0.113647
-0.661613
0.117676
-0.683198
0.123822
-0.704279
0.127215
-0.725334
0.133392
-0.745966
0.137699
-0.764887
0.139479
-0.785423
0.152462
-0.799865
0.138318
-0.819681
0.169182
-0.830475
0.143794
-0.842961
0.154591
-0.854088
0.179156
0.116481
0.0052208
0.00358559
-0.00525944
0.00515453
0.00348624
0.00506348
0.00339157
0.00494815
0.00328309
0.00480129
0.00315095
0.00462449
0.00299754
0.00441902
0.00283681
0.0041853
0.00267227
0.0039242
0.0025014
0.0036397
0.00232498
0.00333877
0.00215036
0.00302831
0.00198516
0.00271266
0.00183275
0.00239559
0.00169095
0.00207246
0.00155617
0.00175698
0.00142273
0.00145216
0.00130354
0.00116016
0.00120069
0.000878988
0.00111596
0.000606846
0.00104681
0.00034335
0.000988871
8.78587e-05
0.000939643
-0.000159944
0.000900626
-0.000399627
0.000870764
-0.000633794
0.000849159
-0.000863392
0.000834245
-0.00108963
0.000817554
-0.00131356
0.000796673
-0.00153135
0.000772691
-0.0017446
0.000750232
-0.00195274
0.000739041
-0.00215853
0.000740495
-0.00236595
0.000753679
-0.00257569
0.000775409
-0.00279161
0.000798856
-0.00301143
0.000825318
-0.00323816
0.000851852
-0.00347042
0.000887341
-0.00371177
0.000929957
-0.0039636
0.000980941
-0.00422818
0.00103852
-0.00450582
0.00109296
-0.00479598
0.00115409
-0.00510568
0.00123823
-0.00543393
0.00132667
-0.00578877
0.0014373
-0.00616713
0.00154306
-0.00657721
0.001673
-0.00701912
0.00181578
-0.00749978
0.00197927
-0.00802659
0.0021825
-0.00860514
0.00239993
-0.00923463
0.00261647
-0.00993674
0.00291733
-0.0107108
0.0032142
-0.0115596
0.00352726
-0.0125225
0.00402605
-0.0136266
0.00447224
-0.0147726
0.00502205
-0.0161917
0.00573413
-0.0177717
0.00657769
-0.0195924
0.00756458
-0.0216853
0.00868998
-0.0240995
0.0100099
-0.0268918
0.0115652
-0.0301296
0.013388
-0.033901
0.0155646
-0.0383052
0.0181349
-0.0434558
0.0211568
-0.0495166
0.0248483
-0.0566852
0.0293648
-0.0651552
0.0346288
-0.0751873
0.0408911
-0.0872114
0.0490275
-0.101663
0.0590894
-0.11873
0.0696523
-0.138692
0.0810313
-0.162537
0.0972128
-0.191322
0.119594
-0.224241
0.139607
-0.257713
0.143283
-0.287151
0.125047
-0.30991
0.0941849
-0.326611
0.0666758
-0.339972
0.0525456
-0.352697
0.0512911
-0.366222
0.0564797
-0.380764
0.0621976
-0.395948
0.065837
-0.411306
0.0673764
-0.4265
0.0677806
-0.44138
0.0680633
-0.455995
0.0690162
-0.470552
0.0711198
-0.485328
0.0744697
-0.500545
0.0787658
-0.516317
0.0835555
-0.532623
0.0883706
-0.549409
0.0930801
-0.56659
0.0976844
-0.584128
0.10248
-0.601863
0.107147
-0.619773
0.112032
-0.6376
0.11648
-0.655418
0.121508
-0.672771
0.125483
-0.68993
0.130806
-0.706111
0.133856
-0.721868
0.13958
-0.736115
0.141462
-0.749343
0.146619
-0.76117
0.149526
-0.769896
0.148205
-0.779477
0.162043
-0.781248
0.140089
-0.787678
0.175612
-0.783232
0.139347
-0.780819
0.152178
-0.773003
0.171339
0.104383
0.00547281
0.00361883
-0.00550609
0.00541623
0.00354264
0.00533615
0.00347169
0.00523295
0.00338636
0.00510529
0.00327867
0.0049524
0.0031504
0.0047772
0.00301197
0.00458126
0.00286819
0.00436459
0.00271811
0.00412814
0.00256145
0.00387596
0.00240254
0.00361281
0.00224828
0.00334253
0.00210302
0.00306627
0.00196722
0.00278493
0.00183758
0.00249512
0.00171261
0.00220162
0.00159698
0.00191554
0.00148672
0.00163743
0.00139403
0.00136477
0.00131934
0.00109607
0.00125771
0.000829974
0.00120579
0.000566229
0.00116413
0.000306695
0.0011306
5.00634e-05
0.00110549
-0.000204561
0.00108878
-0.000458373
0.00107182
-0.000713241
0.00105096
-0.000965225
0.0010252
-0.00121435
0.000999167
-0.00145922
0.000983799
-0.00170158
0.000983206
-0.00194538
0.000997056
-0.00219205
0.00102261
-0.00244579
0.00105193
-0.00270502
0.00108521
-0.00297239
0.00111868
-0.00324655
0.00116183
-0.00353075
0.00121408
-0.0038268
0.00127684
-0.00413775
0.00134963
-0.00446399
0.00141893
-0.00480438
0.00149487
-0.0051667
0.00160014
-0.00554982
0.00171026
-0.00596291
0.00184986
-0.00640268
0.0019833
-0.00687869
0.00214842
-0.00739121
0.00232889
-0.00794703
0.00253456
-0.00855612
0.00279199
-0.00922455
0.00306797
-0.00994943
0.00334174
-0.010758
0.00372552
-0.0116497
0.00410629
-0.0126285
0.00450575
-0.0137407
0.00513854
-0.0149569
0.00568808
-0.0163529
0.00641834
-0.0179292
0.00731024
-0.0197604
0.00840907
-0.0218466
0.00965059
-0.0242451
0.0110887
-0.0270118
0.0127764
-0.0302122
0.0147657
-0.0339228
0.0170986
-0.0382452
0.0198871
-0.0432956
0.0231851
-0.0492036
0.0270649
-0.0561526
0.0317972
-0.0643679
0.0375802
-0.0740771
0.0443379
-0.085573
0.0523871
-0.0993239
0.0627783
-0.11583
0.0755952
-0.135344
0.0891661
-0.158167
0.103854
-0.185278
0.124323
-0.217749
0.152065
-0.254781
0.176639
-0.292651
0.181154
-0.326423
0.158819
-0.353028
0.120791
-0.372833
0.0864805
-0.388587
0.0682999
-0.403215
0.0659187
-0.418387
0.0716519
-0.434466
0.0782759
-0.451124
0.0824959
-0.467874
0.0841254
-0.484281
0.0841878
-0.500058
0.0838402
-0.515129
0.0840875
-0.52964
0.0856313
-0.54388
0.0887098
-0.558119
0.093004
-0.572513
0.0979502
-0.58705
0.102907
-0.601663
0.107693
-0.616227
0.112249
-0.630668
0.11692
-0.644738
0.121216
-0.658397
0.125691
-0.671269
0.129352
-0.683451
0.133691
-0.694322
0.136354
-0.704242
0.140726
-0.712211
0.141825
-0.718929
0.146298
-0.723125
0.145658
-0.725349
0.148844
-0.725313
0.14949
-0.721067
0.143959
-0.717018
0.157995
-0.704308
0.127379
-0.695448
0.166752
-0.67532
0.119219
-0.65779
0.134648
-0.632132
0.145681
0.0792916
0.00573881
0.00364822
-0.00576839
0.00568997
0.00359142
0.00562042
0.00354133
0.00552884
0.00347801
0.00541556
0.00339193
0.00527836
0.00328756
0.00512091
0.00316942
0.00494571
0.00304344
0.00475376
0.00291015
0.00454588
0.00276937
0.00432492
0.00262349
0.004095
0.00247814
0.00385925
0.00233875
0.00361893
0.00220757
0.0033733
0.00208328
0.00312167
0.00196431
0.00286582
0.00185277
0.00259859
0.0017539
0.00233684
0.00165578
0.00207949
0.00157661
0.00182737
0.00151001
0.00157578
0.00145751
0.00132207
0.00141762
0.00106753
0.00138535
0.000811487
0.00136133
0.000553495
0.00134662
0.000292786
0.00133299
2.63787e-05
0.00131691
-0.000242368
0.00129432
-0.000512339
0.00126907
-0.000781073
0.00125238
-0.00104877
0.00125122
-0.00131866
0.00126659
-0.00159256
0.00129697
-0.00187491
0.00133368
-0.00216506
0.00137593
-0.00246543
0.00141861
-0.0027747
0.00147134
-0.00309559
0.00153494
-0.00343001
0.0016111
-0.00378193
0.00170168
-0.00415187
0.00178861
-0.00453797
0.00188134
-0.00494859
0.00201036
-0.00538225
0.00214435
-0.00584917
0.00231629
-0.00634549
0.00248008
-0.00688249
0.00268488
-0.00746058
0.00290753
-0.00808576
0.00315925
-0.00877117
0.00347777
-0.00952372
0.00382016
-0.0103363
0.00415466
-0.0112431
0.00463198
-0.0122433
0.0051069
-0.0133406
0.00560273
-0.0145618
0.00636002
-0.015942
0.00706794
-0.0174437
0.00792032
-0.0192808
0.0091471
-0.0213102
0.0104387
-0.0236365
0.0119767
-0.0263095
0.0137618
-0.0293915
0.0158582
-0.0329559
0.0183303
-0.0370873
0.0212299
-0.0418979
0.0246978
-0.047519
0.0288062
-0.0540949
0.0336409
-0.061822
0.0395243
-0.0709488
0.046707
-0.0817352
0.0551242
-0.0944943
0.0651463
-0.109713
0.0779965
-0.127947
0.0938292
-0.149523
0.110743
-0.174742
0.129073
-0.204497
0.154079
-0.239836
0.187404
-0.280061
0.216863
-0.321533
0.222626
-0.359145
0.196431
-0.389415
0.151061
-0.412292
0.109357
-0.430357
0.0863656
-0.446642
0.0822031
-0.463032
0.0880418
-0.480068
0.0953122
-0.49753
0.0999575
-0.514952
0.101548
-0.531831
0.101067
-0.547711
0.0997208
-0.562325
0.0987012
-0.575685
0.0989915
-0.588055
0.10108
-0.599752
0.104701
-0.611008
0.109206
-0.621846
0.113745
-0.632223
0.11807
-0.641988
0.122013
-0.651048
0.12598
-0.659078
0.129247
-0.666047
0.13266
-0.671472
0.134777
-0.675521
0.137741
-0.677429
0.138261
-0.677715
0.141012
-0.675207
0.139316
-0.670826
0.141917
-0.663207
0.138039
-0.653037
0.138674
-0.640215
0.136667
-0.622764
0.126508
-0.605325
0.140556
-0.579675
0.101729
-0.557313
0.14439
-0.525287
0.0871925
-0.49646
0.105822
-0.459147
0.108368
0.0474986
0.00602023
0.00367469
-0.00604681
0.00597742
0.00363446
0.0059164
0.00360245
0.00583522