/*--------------------------------*- C++ -*----------------------------------*\
| =========                 |                                                 |
| \\      /  F ield         | OpenFOAM: The Open Source CFD Toolbox           |
|  \\    /   O peration     | Version:  2412                                  |
|   \\  /    A nd           | Website:  www.openfoam.com                      |
|    \\/     M anipulation  |                                                 |
\*---------------------------------------------------------------------------*/
FoamFile
{
    version     2.0;
    format      ascii;
    arch        "LSB;label=32;scalar=64";
    class       volScalarField;
    location    "0.07";
    object      p;
}
// * * * * * * * * * * * * * * * * * * * * * * * * * * * * * * * * * * * * * //

dimensions      [0 2 -2 0 0 0 0];

internalField   nonuniform List<scalar> 
12600
(
3.03314e-07
-217.458
-272.166
-275.555
-274.568
-273.019
-271.339
-269.722
-268.206
-266.789
-265.463
-264.223
-263.062
-261.975
-260.955
-259.997
-259.096
-258.247
-257.446
-256.689
-255.973
-255.295
-254.653
-254.044
-253.466
-252.917
-252.395
-251.9
-251.429
-250.982
-250.557
-250.154
-249.771
-249.408
-249.064
-248.738
-248.43
-248.138
-247.863
-247.603
-247.358
-247.127
-246.911
-246.707
-246.516
-246.338
-246.171
-246.016
-245.873
-245.74
-245.618
-245.506
-245.405
-245.314
-245.233
-245.161
-245.1
-245.048
-245.006
-244.974
-244.951
-244.937
-244.932
-244.935
-244.947
-244.966
-244.992
-245.023
-245.058
-245.095
-245.132
-245.164
-245.187
-245.197
-245.184
-245.136
-245.044
-244.899
-244.679
-244.348
-243.881
-243.298
-242.664
-242.055
-241.517
-241.062
-240.672
-240.33
-240.023
-239.744
-239.493
-239.271
-239.079
-238.918
-238.787
-238.683
-238.603
-238.546
-238.508
-238.489
-238.486
-238.502
-238.533
-238.581
-238.642
-238.721
-238.812
-238.919
-239.04
-239.172
-239.323
-239.479
-239.652
-239.842
-240.016
-240.247
-240.413
-240.594
-240.79
-240.57
-44.4472
-170.669
-232.446
-256.307
-265.294
-267.947
-268.151
-267.509
-266.568
-265.529
-264.469
-263.424
-262.41
-261.435
-260.503
-259.615
-258.769
-257.966
-257.202
-256.476
-255.786
-255.13
-254.506
-253.912
-253.348
-252.81
-252.299
-251.812
-251.349
-250.909
-250.49
-250.092
-249.714
-249.355
-249.015
-248.692
-248.387
-248.098
-247.825
-247.567
-247.324
-247.095
-246.88
-246.678
-246.489
-246.312
-246.147
-245.993
-245.85
-245.718
-245.597
-245.486
-245.386
-245.295
-245.215
-245.144
-245.083
-245.031
-244.989
-244.959
-244.937
-244.924
-244.919
-244.923
-244.935
-244.955
-244.981
-245.013
-245.048
-245.086
-245.123
-245.157
-245.181
-245.192
-245.18
-245.134
-245.044
-244.902
-244.685
-244.359
-243.896
-243.316
-242.683
-242.072
-241.532
-241.073
-240.682
-240.339
-240.03
-239.751
-239.499
-239.276
-239.083
-238.922
-238.789
-238.685
-238.605
-238.547
-238.508
-238.489
-238.486
-238.502
-238.532
-238.58
-238.641
-238.719
-238.81
-238.917
-239.038
-239.169
-239.32
-239.476
-239.649
-239.839
-240.013
-240.243
-240.41
-240.59
-240.79
-240.57
-68.7542
-144.271
-203.75
-237.644
-254.012
-261.183
-264.034
-264.849
-264.722
-264.17
-263.428
-262.604
-261.752
-260.898
-260.059
-259.243
-258.455
-257.698
-256.972
-256.276
-255.612
-254.977
-254.371
-253.793
-253.241
-252.715
-252.213
-251.735
-251.279
-250.845
-250.432
-250.039
-249.665
-249.31
-248.973
-248.653
-248.35
-248.064
-247.793
-247.537
-247.296
-247.069
-246.855
-246.655
-246.467
-246.291
-246.127
-245.974
-245.832
-245.701
-245.581
-245.47
-245.371
-245.281
-245.201
-245.131
-245.071
-245.02
-244.979
-244.948
-244.926
-244.913
-244.908
-244.913
-244.925
-244.945
-244.971
-245.003
-245.04
-245.078
-245.116
-245.15
-245.175
-245.187
-245.176
-245.132
-245.044
-244.903
-244.689
-244.366
-243.906
-243.328
-242.695
-242.083
-241.541
-241.081
-240.689
-240.345
-240.036
-239.755
-239.503
-239.28
-239.087
-238.924
-238.791
-238.686
-238.606
-238.548
-238.509
-238.489
-238.486
-238.501
-238.531
-238.579
-238.64
-238.718
-238.809
-238.915
-239.036
-239.167
-239.318
-239.474
-239.647
-239.837
-240.01
-240.241
-240.408
-240.587
-240.79
-240.57
-87.2577
-134.119
-181.432
-217.055
-239.464
-251.876
-258.113
-260.999
-262.138
-262.353
-262.088
-261.577
-260.942
-260.247
-259.527
-258.803
-258.087
-257.386
-256.705
-256.047
-255.413
-254.803
-254.219
-253.658
-253.121
-252.608
-252.117
-251.648
-251.201
-250.774
-250.367
-249.979
-249.61
-249.259
-248.926
-248.61
-248.31
-248.026
-247.758
-247.504
-247.265
-247.04
-246.828
-246.629
-246.442
-246.267
-246.104
-245.952
-245.812
-245.682
-245.562
-245.453
-245.354
-245.264
-245.185
-245.116
-245.056
-245.005
-244.964
-244.934
-244.913
-244.9
-244.897
-244.901
-244.914
-244.934
-244.961
-244.994
-245.031
-245.07
-245.108
-245.143
-245.169
-245.182
-245.173
-245.13
-245.044
-244.905
-244.694
-244.375
-243.918
-243.343
-242.71
-242.096
-241.553
-241.091
-240.697
-240.352
-240.042
-239.761
-239.508
-239.284
-239.09
-238.927
-238.794
-238.688
-238.607
-238.548
-238.509
-238.489
-238.486
-238.501
-238.531
-238.578
-238.639
-238.717
-238.807
-238.913
-239.034
-239.165
-239.315
-239.471
-239.644
-239.834
-240.007
-240.237
-240.406
-240.584
-240.791
-240.571
-103.761
-132.702
-165.983
-197.728
-222.845
-239.644
-249.659
-255.249
-258.197
-259.607
-260.115
-260.11
-259.815
-259.359
-258.814
-258.221
-257.606
-256.984
-256.365
-255.758
-255.164
-254.588
-254.031
-253.493
-252.976
-252.479
-252.002
-251.545
-251.108
-250.69
-250.291
-249.91
-249.547
-249.201
-248.872
-248.56
-248.264
-247.983
-247.718
-247.467
-247.23
-247.007
-246.797
-246.599
-246.414
-246.241
-246.079
-245.929
-245.789
-245.66
-245.542
-245.433
-245.335
-245.246
-245.168
-245.099
-245.04
-244.99
-244.95
-244.92
-244.899
-244.887
-244.884
-244.889
-244.902
-244.923
-244.95
-244.983
-245.021
-245.06
-245.1
-245.135
-245.162
-245.176
-245.169
-245.128
-245.043
-244.908
-244.7
-244.384
-243.932
-243.358
-242.726
-242.111
-241.565
-241.101
-240.706
-240.36
-240.049
-239.767
-239.513
-239.288
-239.094
-238.93
-238.796
-238.69
-238.608
-238.549
-238.51
-238.489
-238.486
-238.5
-238.53
-238.577
-238.637
-238.715
-238.805
-238.911
-239.032
-239.163
-239.313
-239.469
-239.641
-239.831
-240.004
-240.234
-240.404
-240.58
-240.792
-240.573
-116.719
-135.479
-157.976
-183.308
-207.151
-225.905
-238.951
-247.377
-252.538
-255.542
-257.173
-257.943
-258.181
-258.095
-257.815
-257.418
-256.95
-256.443
-255.914
-255.377
-254.841
-254.311
-253.791
-253.285
-252.794
-252.319
-251.86
-251.419
-250.995
-250.589
-250.199
-249.827
-249.471
-249.132
-248.809
-248.502
-248.21
-247.934
-247.672
-247.424
-247.19
-246.969
-246.762
-246.566
-246.383
-246.212
-246.051
-245.902
-245.764
-245.636
-245.519
-245.411
-245.314
-245.227
-245.149
-245.081
-245.022
-244.973
-244.933
-244.904
-244.884
-244.872
-244.869
-244.875
-244.889
-244.91
-244.938
-244.972
-245.01
-245.05
-245.09
-245.127
-245.155
-245.17
-245.164
-245.125
-245.043
-244.91
-244.705
-244.394
-243.946
-243.375
-242.743
-242.126
-241.578
-241.112
-240.715
-240.368
-240.056
-239.773
-239.519
-239.293
-239.098
-238.933
-238.798
-238.692
-238.61
-238.55
-238.51
-238.489
-238.485
-238.5
-238.529
-238.576
-238.636
-238.713
-238.803
-238.909
-239.029
-239.16
-239.31
-239.466
-239.638
-239.828
-240.001
-240.23
-240.402
-240.576
-240.793
-240.577
-126.722
-140.118
-155.427
-174.309
-194.532
-212.784
-227.288
-237.884
-245.189
-249.992
-253.014
-254.818
-255.815
-256.276
-256.391
-256.284
-256.034
-255.693
-255.294
-254.859
-254.404
-253.94
-253.475
-253.012
-252.557
-252.112
-251.679
-251.259
-250.854
-250.462
-250.086
-249.725
-249.38
-249.049
-248.733
-248.433
-248.147
-247.875
-247.617
-247.374
-247.143
-246.926
-246.721
-246.528
-246.347
-246.178
-246.02
-245.872
-245.736
-245.609
-245.493
-245.387
-245.291
-245.205
-245.128
-245.061
-245.003
-244.955
-244.916
-244.887
-244.867
-244.856
-244.854
-244.86
-244.874
-244.896
-244.925
-244.959
-244.998
-245.039
-245.08
-245.117
-245.146
-245.163
-245.159
-245.122
-245.042
-244.912
-244.711
-244.404
-243.96
-243.392
-242.761
-242.143
-241.592
-241.123
-240.725
-240.376
-240.063
-239.78
-239.525
-239.298
-239.102
-238.936
-238.801
-238.694
-238.611
-238.551
-238.51
-238.489
-238.485
-238.499
-238.528
-238.574
-238.634
-238.711
-238.801
-238.907
-239.027
-239.157
-239.307
-239.462
-239.634
-239.824
-239.997
-240.226
-240.4
-240.572
-240.794
-240.582
-134.822
-145.137
-155.899
-169.595
-185.68
-201.863
-216.2
-227.833
-236.703
-243.144
-247.624
-250.622
-252.552
-253.734
-254.394
-254.696
-254.755
-254.65
-254.434
-254.145
-253.806
-253.435
-253.045
-252.645
-252.241
-251.838
-251.44
-251.05
-250.669
-250.3
-249.941
-249.596
-249.264
-248.944
-248.639
-248.347
-248.068
-247.803
-247.552
-247.313
-247.088
-246.874
-246.673
-246.484
-246.306
-246.139
-245.983
-245.838
-245.703
-245.578
-245.464
-245.359
-245.265
-245.179
-245.104
-245.038
-244.981
-244.934
-244.895
-244.867
-244.848
-244.838
-244.836
-244.843
-244.858
-244.881
-244.91
-244.945
-244.984
-245.026
-245.068
-245.106
-245.137
-245.155
-245.153
-245.118
-245.041
-244.913
-244.716
-244.414
-243.975
-243.411
-242.779
-242.16
-241.607
-241.136
-240.735
-240.385
-240.072
-239.787
-239.531
-239.304
-239.106
-238.94
-238.804
-238.696
-238.612
-238.552
-238.51
-238.489
-238.484
-238.498
-238.526
-238.573
-238.632
-238.709
-238.799
-238.904
-239.024
-239.154
-239.303
-239.459
-239.63
-239.82
-239.994
-240.22
-240.398
-240.567
-240.795
-240.59
-141.599
-149.876
-157.81
-167.787
-180.213
-193.723
-206.763
-218.319
-227.934
-235.53
-241.27
-245.446
-248.388
-250.396
-251.721
-252.55
-253.018
-253.232
-253.265
-253.172
-252.991
-252.747
-252.461
-252.147
-251.814
-251.47
-251.121
-250.772
-250.426
-250.085
-249.752
-249.428
-249.113
-248.81
-248.518
-248.238
-247.97
-247.714
-247.47
-247.238
-247.019
-246.811
-246.615
-246.43
-246.255
-246.092
-245.939
-245.797
-245.665
-245.542
-245.43
-245.327
-245.234
-245.15
-245.076
-245.011
-244.956
-244.91
-244.871
-244.845
-244.827
-244.817
-244.817
-244.824
-244.84
-244.863
-244.893
-244.929
-244.969
-245.011
-245.054
-245.094
-245.126
-245.146
-245.145
-245.113
-245.038
-244.913
-244.721
-244.424
-243.991
-243.429
-242.799
-242.178
-241.622
-241.149
-240.746
-240.395
-240.08
-239.795
-239.538
-239.309
-239.111
-238.944
-238.807
-238.698
-238.614
-238.552
-238.511
-238.489
-238.484
-238.497
-238.525
-238.571
-238.63
-238.707
-238.796
-238.901
-239.02
-239.151
-239.3
-239.455
-239.626
-239.815
-239.99
-240.215
-240.396
-240.562
-240.797
-240.602
-147.403
-154.212
-160.333
-167.753
-177.28
-188.192
-199.419
-210.103
-219.672
-227.808
-234.414
-239.57
-243.464
-246.324
-248.373
-249.802
-250.764
-251.376
-251.728
-251.889
-251.912
-251.835
-251.685
-251.483
-251.243
-250.978
-250.695
-250.401
-250.102
-249.801
-249.501
-249.206
-248.917
-248.635
-248.361
-248.097
-247.843
-247.599
-247.366
-247.144
-246.933
-246.732
-246.542
-246.363
-246.194
-246.035
-245.886
-245.747
-245.618
-245.499
-245.389
-245.289
-245.198
-245.116
-245.044
-244.98
-244.926
-244.882
-244.846
-244.819
-244.802
-244.794
-244.794
-244.802
-244.819
-244.843
-244.873
-244.91
-244.951
-244.994
-245.038
-245.079
-245.112
-245.134
-245.135
-245.105
-245.033
-244.912
-244.724
-244.433
-244.005
-243.448
-242.819
-242.197
-241.639
-241.163
-240.758
-240.405
-240.089
-239.803
-239.545
-239.315
-239.116
-238.948
-238.81
-238.7
-238.615
-238.553
-238.511
-238.488
-238.483
-238.496
-238.524
-238.569
-238.628
-238.704
-238.793
-238.898
-239.017
-239.147
-239.296
-239.45
-239.622
-239.81
-239.986
-240.208
-240.395
-240.556
-240.799
-240.616
-152.475
-158.174
-163.056
-168.714
-176.056
-184.763
-194.124
-203.521
-212.459
-220.554
-227.558
-233.373
-238.036
-241.671
-244.435
-246.493
-247.992
-249.057
-249.788
-250.26
-250.536
-250.665
-250.685
-250.624
-250.503
-250.337
-250.138
-249.916
-249.677
-249.428
-249.173
-248.916
-248.66
-248.406
-248.157
-247.915
-247.679
-247.452
-247.233
-247.023
-246.823
-246.632
-246.451
-246.279
-246.117
-245.964
-245.82
-245.686
-245.562
-245.446
-245.34
-245.242
-245.154
-245.075
-245.005
-244.944
-244.891
-244.849
-244.813
-244.788
-244.773
-244.766
-244.767
-244.776
-244.794
-244.819
-244.85
-244.888
-244.93
-244.974
-245.019
-245.061
-245.096
-245.119
-245.123
-245.095
-245.026
-244.908
-244.724
-244.439
-244.018
-243.467
-242.84
-242.217
-241.656
-241.178
-240.771
-240.416
-240.099
-239.812
-239.552
-239.322
-239.122
-238.952
-238.813
-238.703
-238.617
-238.554
-238.511
-238.488
-238.482
-238.495
-238.522
-238.567
-238.625
-238.701
-238.79
-238.894
-239.013
-239.143
-239.291
-239.446
-239.617
-239.804
-239.982
-240.2
-240.393
-240.55
-240.8
-240.632
-156.972
-161.802
-165.789
-170.206
-175.935
-182.879
-190.566
-198.574
-206.551
-214.166
-221.127
-227.236
-232.407
-236.653
-240.052
-242.714
-244.758
-246.301
-247.442
-248.268
-248.841
-249.218
-249.444
-249.553
-249.575
-249.529
-249.433
-249.299
-249.135
-248.951
-248.753
-248.544
-248.329
-248.112
-247.895
-247.68
-247.468
-247.262
-247.062
-246.869
-246.683
-246.505
-246.335
-246.173
-246.02
-245.875
-245.738
-245.61
-245.491
-245.381
-245.279
-245.185
-245.101
-245.025
-244.958
-244.899
-244.849
-244.809
-244.776
-244.751
-244.737
-244.732
-244.735
-244.745
-244.764
-244.79
-244.823
-244.861
-244.904
-244.95
-244.996
-245.039
-245.075
-245.1
-245.106
-245.081
-245.015
-244.9
-244.721
-244.442
-244.029
-243.483
-242.86
-242.237
-241.675
-241.193
-240.784
-240.427
-240.109
-239.821
-239.56
-239.329
-239.127
-238.957
-238.817
-238.705
-238.619
-238.555
-238.511
-238.488
-238.481
-238.493
-238.52
-238.565
-238.623
-238.698
-238.786
-238.89
-239.009
-239.138
-239.286
-239.44
-239.612
-239.797
-239.978
-240.192
-240.392
-240.545
-240.802
-240.651
-161.004
-165.137
-168.454
-171.971
-176.506
-182.073
-188.358
-195.068
-201.976
-208.847
-215.426
-221.486
-226.873
-231.513
-235.403
-238.588
-241.146
-243.163
-244.729
-245.925
-246.825
-247.484
-247.948
-248.259
-248.449
-248.546
-248.571
-248.54
-248.466
-248.36
-248.228
-248.078
-247.914
-247.742
-247.564
-247.383
-247.202
-247.022
-246.845
-246.673
-246.506
-246.344
-246.188
-246.039
-245.897
-245.762
-245.635
-245.515
-245.403
-245.299
-245.203
-245.115
-245.035
-244.963
-244.9
-244.844
-244.798
-244.759
-244.729
-244.707
-244.695
-244.691
-244.696
-244.708
-244.728
-244.755
-244.789
-244.829
-244.873
-244.92
-244.967
-245.012
-245.049
-245.075
-245.083
-245.061
-244.998
-244.887
-244.712
-244.44
-244.035
-243.498
-242.879
-242.258
-241.693
-241.209
-240.797
-240.439
-240.119
-239.83
-239.569
-239.336
-239.134
-238.962
-238.821
-238.708
-238.62
-238.556
-238.511
-238.487
-238.48
-238.491
-238.518
-238.562
-238.619
-238.695
-238.782
-238.886
-239.004
-239.133
-239.281
-239.434
-239.607
-239.79
-239.974
-240.183
-240.391
-240.539
-240.803
-240.671
-164.653
-168.218
-171.017
-173.865
-177.502
-182.002
-187.146
-192.731
-198.61
-204.635
-210.62
-216.365
-221.696
-226.491
-230.686
-234.268
-237.261
-239.716
-241.696
-243.271
-244.506
-245.462
-246.191
-246.731
-247.117
-247.38
-247.546
-247.635
-247.665
-247.648
-247.594
-247.513
-247.409
-247.289
-247.157
-247.017
-246.872
-246.725
-246.577
-246.43
-246.285
-246.144
-246.006
-245.873
-245.745
-245.623
-245.506
-245.397
-245.294
-245.198
-245.109
-245.027
-244.954
-244.887
-244.829
-244.777
-244.735
-244.701
-244.672
-244.652
-244.643
-244.642
-244.648
-244.663
-244.684
-244.713
-244.749
-244.79
-244.835
-244.883
-244.931
-244.977
-245.016
-245.044
-245.054
-245.034
-244.974
-244.866
-244.696
-244.431
-244.036
-243.508
-242.896
-242.277
-241.712
-241.226
-240.811
-240.451
-240.13
-239.839
-239.577
-239.344
-239.14
-238.967
-238.825
-238.711
-238.622
-238.557
-238.511
-238.486
-238.479
-238.49
-238.515
-238.559
-238.616
-238.691
-238.778
-238.881
-238.999
-239.127
-239.275
-239.428
-239.601
-239.782
-239.97
-240.173
-240.389
-240.533
-240.803
-240.692
-167.981
-171.075
-173.464
-175.803
-178.755
-182.426
-186.656
-191.298
-196.258
-201.448
-206.749
-212.007
-217.068
-221.798
-226.102
-229.921
-233.234
-236.052
-238.407
-240.345
-241.918
-243.18
-244.181
-244.965
-245.569
-246.023
-246.352
-246.58
-246.729
-246.814
-246.849
-246.846
-246.81
-246.751
-246.672
-246.58
-246.477
-246.367
-246.252
-246.135
-246.017
-245.899
-245.783
-245.669
-245.558
-245.451
-245.349
-245.252
-245.16
-245.074
-244.993
-244.92
-244.854
-244.793
-244.741
-244.695
-244.657
-244.627
-244.601
-244.586
-244.58
-244.582
-244.591
-244.607
-244.631
-244.662
-244.699
-244.741
-244.788
-244.837
-244.887
-244.934
-244.974
-245.004
-245.015
-244.998
-244.941
-244.836
-244.67
-244.413
-244.028
-243.512
-242.91
-242.295
-241.73
-241.242
-240.825
-240.463
-240.14
-239.849
-239.586
-239.351
-239.147
-238.973
-238.829
-238.714
-238.624
-238.557
-238.511
-238.485
-238.477
-238.487
-238.512
-238.556
-238.612
-238.687
-238.773
-238.876
-238.993
-239.122
-239.269
-239.421
-239.595
-239.774
-239.965
-240.162
-240.387
-240.527
-240.802
-240.713
-171.037
-173.735
-175.792
-177.737
-180.16
-183.182
-186.68
-190.544
-194.716
-199.146
-203.759
-208.452
-213.103
-217.596
-221.826
-225.715
-229.211
-232.288
-234.946
-237.205
-239.097
-240.661
-241.94
-242.975
-243.804
-244.462
-244.974
-245.363
-245.65
-245.854
-245.991
-246.076
-246.118
-246.126
-246.108
-246.069
-246.014
-245.946
-245.869
-245.786
-245.699
-245.609
-245.518
-245.426
-245.335
-245.246
-245.16
-245.077
-244.998
-244.924
-244.854
-244.791
-244.733
-244.681
-244.635
-244.596
-244.566
-244.536
-244.517
-244.506
-244.504
-244.509
-244.521
-244.54
-244.567
-244.599
-244.638
-244.683
-244.731
-244.782
-244.833
-244.881
-244.922
-244.953
-244.966
-244.951
-244.897
-244.795
-244.634
-244.384
-244.011
-243.509
-242.918
-242.31
-241.747
-241.258
-240.839
-240.475
-240.151
-239.858
-239.594
-239.359
-239.153
-238.978
-238.833
-238.717
-238.626
-238.558
-238.511
-238.484
-238.475
-238.485
-238.509
-238.552
-238.608
-238.682
-238.768
-238.871
-238.987
-239.115
-239.262
-239.414
-239.588
-239.764
-239.96
-240.151
-240.384
-240.522
-240.801
-240.735
-173.858
-176.221
-178.005
-179.64
-181.647
-184.155
-187.068
-190.296
-193.804
-197.568
-201.542
-205.66
-209.836
-213.977
-217.993
-221.802
-225.338
-228.552
-231.418
-233.93
-236.097
-237.941
-239.491
-240.779
-241.841
-242.707
-243.409
-243.971
-244.415
-244.756
-245.012
-245.198
-245.328
-245.413
-245.462
-245.483
-245.482
-245.462
-245.428
-245.384
-245.331
-245.273
-245.209
-245.142
-245.074
-245.006
-244.938
-244.872
-244.808
-244.747
-244.689
-244.638
-244.59
-244.543
-244.513
-244.481
-244.45
-244.429
-244.416
-244.41
-244.412
-244.422
-244.437
-244.46
-244.489
-244.525
-244.566
-244.612
-244.662
-244.714
-244.766
-244.816
-244.859
-244.89
-244.904
-244.892
-244.84
-244.742
-244.585
-244.343
-243.983
-243.497
-242.92
-242.322
-241.762
-241.272
-240.851
-240.486
-240.16
-239.867
-239.602
-239.366
-239.16
-238.984
-238.837
-238.72
-238.627
-238.558
-238.51
-238.483
-238.473
-238.482
-238.506
-238.548
-238.603
-238.677
-238.762
-238.865
-238.981
-239.108
-239.255
-239.406
-239.581
-239.754
-239.955
-240.139
-240.38
-240.517
-240.798
-240.756
-176.474
-178.55
-180.107
-181.493
-183.172
-185.269
-187.711
-190.42
-193.374
-196.567
-199.974
-203.551
-207.24
-210.974
-214.682
-218.294
-221.743
-224.973
-227.939
-230.617
-232.993
-235.072
-236.867
-238.398
-239.69
-240.772
-241.669
-242.407
-243.012
-243.503
-243.894
-244.2
-244.433
-244.607
-244.733
-244.821
-244.88
-244.914
-244.927
-244.926
-244.912
-244.889
-244.857
-244.818
-244.775
-244.73
-244.683
-244.635
-244.588
-244.544
-244.498
-244.453
-244.429
-244.4
-244.362
-244.336
-244.318
-244.306
-244.299
-244.299
-244.306
-244.319
-244.34
-244.366
-244.398
-244.437
-244.48
-244.529
-244.58
-244.634
-244.688
-244.738
-244.782
-244.815
-244.83
-244.819
-244.77
-244.675
-244.522
-244.289
-243.943
-243.474
-242.915
-242.328
-241.775
-241.285
-240.863
-240.496
-240.169
-239.875
-239.61
-239.373
-239.166
-238.989
-238.842
-238.723
-238.629
-238.559
-238.51
-238.482
-238.471
-238.479
-238.502
-238.544
-238.598
-238.671
-238.756
-238.858
-238.974
-239.101
-239.248
-239.397
-239.574
-239.744
-239.949
-240.127
-240.376
-240.512
-240.795
-240.776
-178.911
-180.739
-182.104
-183.289
-184.704
-186.471
-188.53
-190.815
-193.31
-196.019
-198.933
-202.023
-205.248
-208.564
-211.918
-215.257
-218.523
-221.661
-224.623
-227.37
-229.876
-232.128
-234.123
-235.867
-237.376
-238.667
-239.762
-240.684
-241.456
-242.097
-242.628
-243.064
-243.416
-243.694
-243.91
-244.077
-244.203
-244.297
-244.364
-244.411
-244.441
-244.457
-244.459
-244.452
-244.438
-244.418
-244.395
-244.368
-244.336
-244.311
-244.293
-244.27
-244.234
-244.208
-244.19
-244.177
-244.168
-244.163
-244.164
-244.17
-244.183
-244.202
-244.227
-244.257
-244.293
-244.335
-244.381
-244.432
-244.486
-244.541
-244.596
-244.648
-244.693
-244.726
-244.743
-244.733
-244.687
-244.595
-244.446
-244.221
-243.89
-243.441
-242.902
-242.33
-241.783
-241.296
-240.873
-240.505
-240.177
-239.882
-239.617
-239.38
-239.172
-238.994
-238.846
-238.726
-238.631
-238.559
-238.509
-238.48
-238.468
-238.476
-238.498
-238.539
-238.593
-238.665
-238.75
-238.851
-238.966
-239.093
-239.239
-239.387
-239.565
-239.732
-239.942
-240.115
-240.37
-240.507
-240.79
-240.796
-181.189
-182.802
-184.003
-185.023
-186.224
-187.722
-189.469
-191.407
-193.522
-195.824
-198.314
-200.976
-203.78
-206.694
-209.684
-212.712
-215.732
-218.699
-221.565
-224.291
-226.841
-229.191
-231.326
-233.24
-234.934
-236.417
-237.703
-238.808
-239.751
-240.55
-241.225
-241.791
-242.264
-242.657
-242.978
-243.237
-243.444
-243.606
-243.734
-243.835
-243.913
-243.973
-244.015
-244.044
-244.062
-244.067
-244.069
-244.075
-244.073
-244.059
-244.042
-244.025
-244.013
-244.007
-244.002
-243.999
-243.999
-244.003
-244.012
-244.025
-244.045
-244.069
-244.099
-244.134
-244.174
-244.22
-244.269
-244.322
-244.378
-244.436
-244.492
-244.545
-244.591
-244.625
-244.642
-244.635
-244.591
-244.502
-244.358
-244.142
-243.826
-243.398
-242.88
-242.325
-241.788
-241.305
-240.882
-240.512
-240.184
-239.889
-239.624
-239.386
-239.178
-238.999
-238.85
-238.728
-238.632
-238.559
-238.508
-238.478
-238.465
-238.472
-238.494
-238.534
-238.587
-238.659
-238.743
-238.843
-238.958
-239.084
-239.23
-239.377
-239.557
-239.72
-239.935
-240.102
-240.363
-240.502
-240.783
-240.814
-183.325
-184.751
-185.81
-186.693
-187.719
-188.997
-190.487
-192.139
-193.939
-195.901
-198.03
-200.319
-202.749
-205.296
-207.937
-210.645
-213.388
-216.132
-218.836
-221.463
-223.978
-226.351
-228.558
-230.584
-232.419
-234.062
-235.517
-236.794
-237.904
-238.864
-239.688
-240.393
-240.991
-241.496
-241.924
-242.285
-242.585
-242.83
-243.029
-243.191
-243.326
-243.436
-243.518
-243.585
-243.649
-243.695
-243.723
-243.735
-243.747
-243.756
-243.764
-243.772
-243.778
-243.784
-243.791
-243.799
-243.811
-243.825
-243.843
-243.864
-243.891
-243.921
-243.957
-243.997
-244.042
-244.091
-244.144
-244.2
-244.258
-244.318
-244.376
-244.43
-244.477
-244.512
-244.53
-244.524
-244.483
-244.397
-244.258
-244.051
-243.75
-243.345
-242.851
-242.314
-241.789
-241.311
-240.889
-240.519
-240.191
-239.895
-239.63
-239.392
-239.184
-239.004
-238.854
-238.731
-238.633
-238.559
-238.507
-238.476
-238.462
-238.468
-238.489
-238.528
-238.581
-238.652
-238.735
-238.835
-238.949
-239.074
-239.221
-239.366
-239.547
-239.707
-239.926
-240.089
-240.354
-240.498
-240.776
-240.83
-185.334
-186.594
-187.53
-188.298
-189.18
-190.276
-191.554
-192.967
-194.507
-196.183
-198.006
-199.974
-202.075
-204.294
-206.612
-209.012
-211.473
-213.969
-216.47
-218.943
-221.359
-223.686
-225.899
-227.975
-229.898
-231.657
-233.248
-234.673
-235.937
-237.049
-238.023
-238.869
-239.598
-240.225
-240.762
-241.222
-241.617
-241.953
-242.236
-242.471
-242.668
-242.843
-242.984
-243.094
-243.175
-243.245
-243.304
-243.354
-243.398
-243.435
-243.465
-243.492
-243.514
-243.536
-243.557
-243.58
-243.603
-243.628
-243.656
-243.687
-243.721
-243.759
-243.8
-243.846
-243.896
-243.949
-244.006
-244.065
-244.126
-244.188
-244.248
-244.303
-244.351
-244.387
-244.407
-244.402
-244.364
-244.282
-244.148
-243.95
-243.666
-243.282
-242.813
-242.298
-241.786
-241.314
-240.895
-240.525
-240.196
-239.901
-239.635
-239.398
-239.189
-239.009
-238.857
-238.733
-238.634
-238.559
-238.505
-238.473
-238.458
-238.463
-238.483
-238.522
-238.574
-238.644
-238.726
-238.826
-238.939
-239.064
-239.21
-239.354
-239.537
-239.693
-239.917
-240.075
-240.344
-240.493
-240.766
-240.843
-187.225
-188.34
-189.167
-189.84
-190.603
-191.549
-192.652
-193.871
-195.195
-196.634
-198.199
-199.891
-201.705
-203.631
-205.657
-207.77
-209.957
-212.198
-214.474
-216.758
-219.025
-221.251
-223.409
-225.475
-227.429
-229.254
-230.94
-232.48
-233.872
-235.122
-236.235
-237.22
-238.083
-238.835
-239.491
-240.06
-240.551
-240.977
-241.348
-241.672
-241.947
-242.165
-242.349
-242.508
-242.643
-242.76
-242.86
-242.944
-243.016
-243.078
-243.131
-243.179
-243.223
-243.263
-243.301
-243.338
-243.375
-243.412
-243.451
-243.491
-243.534
-243.58
-243.629
-243.681
-243.736
-243.794
-243.855
-243.918
-243.982
-244.046
-244.108
-244.166
-244.215
-244.253
-244.273
-244.27
-244.235
-244.157
-244.03
-243.84
-243.572
-243.211
-242.767
-242.275
-241.779
-241.315
-240.898
-240.529
-240.201
-239.906
-239.64
-239.403
-239.194
-239.013
-238.861
-238.735
-238.635
-238.558
-238.503
-238.47
-238.454
-238.458
-238.477
-238.515
-238.566
-238.636
-238.717
-238.816
-238.929
-239.052
-239.199
-239.341
-239.526
-239.678
-239.906
-240.061
-240.332
-240.488
-240.756
-240.854
-189.013
-189.994
-190.722
-191.308
-191.961
-192.771
-193.723
-194.779
-195.926
-197.171
-198.523
-199.988
-201.562
-203.238
-205.01
-206.871
-208.809
-210.81
-212.86
-214.94
-217.033
-219.118
-221.173
-223.176
-225.106
-226.944
-228.676
-230.289
-231.774
-233.133
-234.365
-235.473
-236.458
-237.331
-238.111
-238.796
-239.383
-239.906
-240.369
-240.767
-241.104
-241.393
-241.65
-241.874
-242.065
-242.227
-242.366
-242.486
-242.59
-242.682
-242.763
-242.836
-242.902
-242.962
-243.019
-243.072
-243.124
-243.175
-243.226
-243.277
-243.33
-243.385
-243.442
-243.501
-243.562
-243.626
-243.692
-243.759
-243.826
-243.893
-243.958
-244.017
-244.068
-244.107
-244.129
-244.129
-244.097
-244.024
-243.902
-243.723
-243.47
-243.132
-242.714
-242.245
-241.766
-241.312
-240.9
-240.532
-240.204
-239.91
-239.645
-239.408
-239.198
-239.017
-238.864
-238.737
-238.635
-238.557
-238.501
-238.466
-238.449
-238.453
-238.47
-238.508
-238.557
-238.627
-238.707
-238.805
-238.917
-239.04
-239.187
-239.327
-239.513
-239.662
-239.893
-240.047
-240.318
-240.483
-240.745
-240.863
-190.687
-191.6
-192.296
-192.84
-193.398
-194.083
-194.895
-195.799
-196.778
-197.838
-198.99
-200.238
-201.583
-203.021
-204.554
-206.18
-207.891
-209.671
-211.507
-213.387
-215.299
-217.227
-219.153
-221.057
-222.921
-224.728
-226.459
-228.101
-229.644
-231.087
-232.429
-233.656
-234.751
-235.713
-236.592
-237.397
-238.126
-238.756
-239.299
-239.772
-240.187
-240.553
-240.877
-241.162
-241.409
-241.623
-241.811
-241.975
-242.118
-242.244
-242.356
-242.457
-242.547
-242.63
-242.707
-242.779
-242.848
-242.914
-242.979
-243.043
-243.107
-243.171
-243.237
-243.304
-243.373
-243.442
-243.514
-243.585
-243.657
-243.727
-243.795
-243.857
-243.91
-243.951
-243.975
-243.977
-243.949
-243.881
-243.767
-243.597
-243.36
-243.044
-242.652
-242.208
-241.747
-241.304
-240.898
-240.533
-240.207
-239.913
-239.648
-239.412
-239.202
-239.021
-238.866
-238.738
-238.635
-238.555
-238.498
-238.462
-238.444
-238.446
-238.463
-238.499
-238.548
-238.617
-238.696
-238.794
-238.905
-239.027
-239.174
-239.311
-239.5
-239.646
-239.879
-240.033
-240.302
-240.476
-240.732
-240.868
-191.973
-192.748
-193.375
-193.898
-194.481
-195.171
-195.948
-196.788
-197.688
-198.654
-199.696
-200.813
-201.996
-203.232
-204.54
-205.938
-207.42
-208.972
-210.585
-212.254
-213.969
-215.719
-217.49
-219.267
-221.035
-222.776
-224.47
-226.091
-227.615
-229.052
-230.415
-231.7
-232.916
-234.064
-235.087
-235.984
-236.779
-237.49
-238.125
-238.691
-239.192
-239.635
-240.026
-240.371
-240.675
-240.946
-241.188
-241.401
-241.589
-241.756
-241.904
-242.036
-242.155
-242.264
-242.364
-242.457
-242.544
-242.628
-242.708
-242.785
-242.862
-242.938
-243.014
-243.089
-243.166
-243.243
-243.32
-243.397
-243.474
-243.548
-243.619
-243.684
-243.74
-243.784
-243.811
-243.815
-243.791
-243.729
-243.622
-243.462
-243.241
-242.947
-242.581
-242.162
-241.722
-241.293
-240.893
-240.532
-240.207
-239.915
-239.651
-239.415
-239.205
-239.023
-238.868
-238.739
-238.634
-238.553
-238.494
-238.457
-238.438
-238.439
-238.454
-238.49
-238.537
-238.605
-238.684
-238.781
-238.891
-239.012
-239.159
-239.295
-239.484
-239.629
-239.863
-240.019
-240.283
-240.467
-240.718
-240.869
-193.6
-194.309
-194.847
-195.256
-195.68
-196.195
-196.803
-197.48
-198.213
-199.006
-199.872
-200.827
-201.886
-203.06
-204.316
-205.62
-206.962
-208.353
-209.798
-211.294
-212.833
-214.404
-216.001
-217.614
-219.234
-220.853
-222.465
-224.069
-225.663
-227.203
-228.646
-229.988
-231.236
-232.39
-233.45
-234.426
-235.321
-236.134
-236.866
-237.52
-238.104
-238.626
-239.09
-239.504
-239.873
-240.203
-240.497
-240.76
-240.995
-241.206
-241.395
-241.565
-241.718
-241.857
-241.983
-242.1
-242.209
-242.312
-242.409
-242.503
-242.594
-242.682
-242.769
-242.855
-242.941
-243.025
-243.11
-243.193
-243.275
-243.354
-243.429
-243.498
-243.558
-243.604
-243.634
-243.642
-243.622
-243.567
-243.468
-243.319
-243.113
-242.84
-242.501
-242.108
-241.689
-241.275
-240.884
-240.528
-240.205
-239.914
-239.652
-239.416
-239.207
-239.025
-238.869
-238.738
-238.632
-238.55
-238.489
-238.451
-238.431
-238.431
-238.445
-238.48
-238.526
-238.593
-238.671
-238.767
-238.877
-238.997
-239.143
-239.278
-239.468
-239.611
-239.845
-240.004
-240.264
-240.457
-240.704
-240.868
-195.029
-195.643
-196.111
-196.476
-196.865
-197.343
-197.906
-198.528
-199.199
-199.921
-200.703
-201.549
-202.455
-203.417
-204.437
-205.522
-206.679
-207.908
-209.199
-210.544
-211.937
-213.373
-214.849
-216.356
-217.885
-219.425
-220.961
-222.477
-223.958
-225.394
-226.785