/*--------------------------------*- C++ -*----------------------------------*\
| =========                 |                                                 |
| \\      /  F ield         | OpenFOAM: The Open Source CFD Toolbox           |
|  \\    /   O peration     | Version:  2412                                  |
|   \\  /    A nd           | Website:  www.openfoam.com                      |
|    \\/     M anipulation  |                                                 |
\*---------------------------------------------------------------------------*/
FoamFile
{
    version     2.0;
    format      ascii;
    arch        "LSB;label=32;scalar=64";
    class       surfaceScalarField;
    location    "0.07";
    object      phi_0;
}
// * * * * * * * * * * * * * * * * * * * * * * * * * * * * * * * * * * * * * //

dimensions      [0 3 -1 0 0 0 0];

oriented        oriented;

internalField   nonuniform List<scalar> 
24930
(
0.0140626
0.0103196
-0.0243822
0.00794734
0.00611528
0.00533733
0.00261001
0.00417084
0.00116649
0.0035175
0.000653341
0.00308638
0.000431118
0.00277284
0.000313538
0.00253156
0.000241287
0.0023384
0.000193157
0.00217927
0.000159124
0.00204533
0.000133939
0.00193066
0.000114673
0.00183111
9.95535e-05
0.00174367
8.74346e-05
0.00166613
7.75451e-05
0.00159678
6.93488e-05
0.00153432
6.24623e-05
0.00147771
5.66068e-05
0.00142614
5.15758e-05
0.00137892
4.7212e-05
0.00133553
4.33948e-05
0.0012955
4.00303e-05
0.00125845
3.70437e-05
0.00122408
3.43753e-05
0.0011921
3.1977e-05
0.00116229
2.98092e-05
0.00113445
2.78396e-05
0.00110841
2.60414e-05
0.00108402
2.43923e-05
0.00106115
2.28733e-05
0.00103968
2.14684e-05
0.00101951
2.01639e-05
0.00100057
1.89478e-05
0.000982756
1.78097e-05
0.000966015
1.67414e-05
0.000950279
1.57355e-05
0.000935494
1.47854e-05
0.000921608
1.38854e-05
0.000908579
1.30297e-05
0.000896364
1.22144e-05
0.000884929
1.14353e-05
0.000874241
1.06878e-05
0.000864274
9.96757e-06
0.000855004
9.26983e-06
0.000846411
8.59278e-06
0.000838476
7.93509e-06
0.000831186
7.28956e-06
0.000824528
6.6587e-06
0.000818492
6.03543e-06
0.000813072
5.41985e-06
0.000808261
4.8113e-06
0.000804061
4.2002e-06
0.00080046
3.60089e-06
0.000797472
2.9881e-06
0.00079509
2.38179e-06
0.000793327
1.76269e-06
0.000792188
1.13926e-06
0.000791692
4.96381e-07
0.000791855
-1.63213e-07
0.000792669
-8.13525e-07
0.000794165
-1.49662e-06
0.000796378
-2.21259e-06
0.000799337
-2.95923e-06
0.000803077
-3.74016e-06
0.000807639
-4.56185e-06
0.00081307
-5.43117e-06
0.000819425
-6.3552e-06
0.00082677
-7.34484e-06
0.000835181
-8.41048e-06
0.000844744
-9.56375e-06
0.000855568
-1.08235e-05
0.00086778
-1.22118e-05
0.000881523
-1.37433e-05
0.000896964
-1.54405e-05
0.000914331
-1.73674e-05
0.000933915
-1.95836e-05
0.000955974
-2.20597e-05
0.000980767
-2.47924e-05
0.00100877
-2.79983e-05
0.00104077
-3.20001e-05
0.00107755
-3.67888e-05
0.00111936
-4.18099e-05
0.00116569
-4.63249e-05
0.00121566
-4.99704e-05
0.00126861
-5.29479e-05
0.00132436
-5.57526e-05
0.00138316
-5.87976e-05
0.00144541
-6.22501e-05
0.0015115
-6.60926e-05
0.00158175
-7.02529e-05
0.00165644
-7.46863e-05
0.00173583
-7.93889e-05
0.00182021
-8.43862e-05
0.00190993
-8.97164e-05
0.00200536
-9.5431e-05
0.00210694
-0.000101579
0.00221515
-0.000108211
0.00233051
-0.000115361
0.00245359
-0.000123073
0.00258495
-0.000131361
0.00272524
-0.000140297
0.00287513
-0.000149884
0.00303536
-0.000160233
0.00320669
-0.000171328
0.00339
-0.000183309
0.00358616
-0.000196161
0.00379616
-0.000210005
0.00402112
-0.000224955
0.00426199
-0.000240874
0.00452037
-0.000258381
0.00479696
-0.000276582
0.00509402
-0.000297068
0.00541229
-0.000318269
0.00575312
-0.000340823
0.00612175
-0.000368635
0.00650821
-0.000386463
0.00694003
-0.000431815
0.00736736
-0.000427333
0.00785946
-0.0004921
-0.000462686
0.0291065
0.013103
-0.0318899
0.0238284
0.0113934
0.0189227
0.00751567
0.0154157
0.00467357
0.0130721
0.00299695
0.0114516
0.00205161
0.0102672
0.00149793
0.00935777
0.00115068
0.00863209
0.000918842
0.00803565
0.000755557
0.00753438
0.000635217
0.00710568
0.000543368
0.00673388
0.000471354
0.00640766
0.000413659
0.00611861
0.000366596
0.00586035
0.00032761
0.00562793
0.000294873
0.00541749
0.000267055
0.00522589
0.000243168
0.00505064
0.000222463
0.00488968
0.000204363
0.00474129
0.000188418
0.00460406
0.000174274
0.00447679
0.000161645
0.00435846
0.000150301
0.00424822
0.000140054
0.00414531
0.00013075
0.00404909
0.000122261
0.003959
0.00011448
0.00387456
0.000107318
0.00379533
0.000100697
0.00372094
9.45523e-05
0.00365106
8.88275e-05
0.0035854
8.34737e-05
0.00352369
7.845e-05
0.0034657
7.3722e-05
0.00341123
6.92585e-05
0.00336008
6.50316e-05
0.0033121
6.10151e-05
0.00326712
5.71893e-05
0.00322502
5.35347e-05
0.00318568
5.00305e-05
0.00314899
4.66562e-05
0.00311487
4.33908e-05
0.00308324
4.02232e-05
0.00305403
3.71465e-05
0.00302718
3.41319e-05
0.00300266
3.11843e-05
0.00298042
2.82764e-05
0.00296043
2.54065e-05
0.00294268
2.25669e-05
0.00292715
1.97252e-05
0.00291382
1.69267e-05
0.00290273
1.40824e-05
0.00289386
1.12571e-05
0.00288724
8.38194e-06
0.00288289
5.48092e-06
0.0028809
2.49469e-06
0.00288131
-5.73297e-07
0.00288408
-3.59012e-06
0.00288935
-6.76507e-06
0.00289723
-1.00887e-05
0.00290782
-1.3555e-05
0.00292126
-1.71811e-05
0.0029377
-2.09981e-05
0.00295731
-2.50365e-05
0.00298028
-2.93325e-05
0.00300687
-3.39352e-05
0.00303736
-3.88938e-05
0.00307206
-4.42665e-05
0.00311138
-5.01438e-05
0.00315579
-5.66243e-05
0.00320583
-6.37839e-05
0.00326214
-7.17523e-05
0.0033256
-8.08196e-05
0.00339721
-9.12003e-05
0.00347796
-0.000102804
0.00356891
-0.000115749
0.00367194
-0.00013102
0.00378973
-0.000149796
0.00392463
-0.000171685
0.00407696
-0.000194139
0.00424477
-0.000214142
0.00442524
-0.000230443
0.0046164
-0.000244104
0.0048179
-0.000257256
0.00503069
-0.00027158
0.00525615
-0.000287712
0.0054956
-0.000305546
0.00575013
-0.000324784
0.0060207
-0.000345251
0.00630826
-0.000366951
0.00661389
-0.000390016
0.00693881
-0.000414633
0.00728442
-0.000441045
0.0076523
-0.000469453
0.00804417
-0.000500089
0.00846191
-0.000533095
0.00890749
-0.000568658
0.00938303
-0.000606897
0.0098908
-0.000648068
0.0104332
-0.00069228
0.0110129
-0.00073991
0.0116326
-0.000791042
0.0122954
-0.000846112
0.0130045
-0.000905304
0.0137634
-0.000968905
0.0145761
-0.00103764
0.015446
-0.00111079
0.0163787
-0.00119103
0.0173769
-0.00127478
0.0184483
-0.00136847
0.0195957
-0.0014657
0.0208244
-0.00156947
0.0221514
-0.00169563
0.0235443
-0.00177938
0.0250989
-0.00198649
0.0266377
-0.00196609
0.0284237
-0.00227809
-0.00212987
0.0370115
0.0123001
-0.0362086
0.0350433
0.0133616
0.0312733
0.0112857
0.0273671
0.00857983
0.0240373
0.00632672
0.0213878
0.00470114
0.0193065
0.0035792
0.0176527
0.00280449
0.0163106
0.00226097
0.0151974
0.00186869
0.0142566
0.00157606
0.0134488
0.00135117
0.0127462
0.00117395
0.0121284
0.00103141
0.0115803
0.000914767
0.01109
0.000817906
0.0106484
0.000736422
0.0102484
0.000667086
0.00988408
0.000607484
0.00955076
0.00055578
0.00924457
0.000510553
0.0089623
0.000470695
0.00870124
0.000435327
0.00845915
0.00040374
0.00823408
0.000375365
0.0080244
0.000349733
0.0078287
0.00032646
0.00764573
0.000305226
0.00747445
0.000285766
0.00731391
0.000267854
0.00716331
0.000251299
0.00702192
0.000235937
0.00688912
0.000221628
0.00676435
0.00020825
0.0066471
0.000195699
0.00653693
0.000183888
0.00643345
0.000172741
0.00633629
0.000162186
0.00624515
0.000152159
0.00615973
0.000142609
0.00607978
0.000133488
0.00600506
0.000124746
0.00593539
0.000116331
0.00587059
0.000108192
0.00581051
0.0001003
0.00575502
9.26345e-05
0.00570402
8.51322e-05
0.00565741
7.77973e-05
0.00561512
7.05639e-05
0.0055771
6.34314e-05
0.00554329
5.63709e-05
0.0055137
4.93184e-05
0.00548827
4.23585e-05
0.00546704
3.53088e-05
0.00545001
2.82884e-05
0.00543723
2.11616e-05
0.00542875
1.3961e-05
0.00542468
6.56125e-06
0.00542511
-1.0025e-06
0.00543005
-8.52566e-06
0.00543967
-1.63902e-05
0.0054542
-2.46189e-05
0.00547385
-3.32012e-05
0.00549885
-4.21816e-05
0.00552949
-5.16338e-05
0.00556609
-6.16355e-05
0.00560903
-7.22796e-05
0.00565878
-8.36857e-05
0.00571587
-9.59771e-05
0.0057809
-0.000109305
0.00585466
-0.000123896
0.00593802
-0.000139991
0.00603203
-0.00015779
0.00613793
-0.000177652
0.00625737
-0.000200263
0.00639227
-0.000226092
0.00654446
-0.000254994
0.00671615
-0.000287445
0.00691093
-0.000325795
0.00713356
-0.000372426
0.00738773
-0.000425857
0.0076735
-0.000479907
0.00798718
-0.00052782
0.0083239
-0.000567167
0.00868053
-0.000600735
0.00905677
-0.000633491
0.00945439
-0.000669201
0.0098759
-0.000709222
0.0103236
-0.000753268
0.0107995
-0.000800653
0.0113052
-0.000850999
0.0118426
-0.000904352
0.0124137
-0.00096105
0.0130206
-0.00102157
0.0136661
-0.00108649
0.0143529
-0.00115631
0.0150844
-0.00123154
0.0158638
-0.00131256
0.0166949
-0.00139976
0.0175815
-0.00149349
0.0185278
-0.0015943
0.019538
-0.00170257
0.0206171
-0.00181901
0.0217702
-0.00194406
0.0230025
-0.00207846
0.0243202
-0.00222301
0.0257293
-0.00237796
0.0272371
-0.00254546
0.0288497
-0.00272344
0.0305771
-0.00291843
0.0324243
-0.00312195
0.0344048
-0.00334892
0.0365237
-0.00358462
0.0387899
-0.00383569
0.0412348
-0.00414053
0.0437979
-0.00434245
0.0466573
-0.00484595
0.0494844
-0.00479316
0.0527746
-0.00556832
-0.00520457
0.0414324
0.0105262
-0.0396586
0.0419764
0.0128176
0.0405321
0.0127299
0.0378761
0.0112359
0.0348428
0.00936
0.0319312
0.00761271
0.029347
0.00616338
0.0271256
0.00502598
0.025232
0.00415449
0.0236134
0.00348736
0.022218
0.00297139
0.0210036
0.00256565
0.0199366
0.0022409
0.0189914
0.00197665
0.0181477
0.00175846
0.0173896
0.00157597
0.0167044
0.00142158
0.0160819
0.0012896
0.0155137
0.00117573
0.0149928
0.00107665
0.0145136
0.000989762
0.0140713
0.000913031
0.0136618
0.000844824
0.0132817
0.000783823
0.0129281
0.000728958
0.0125985
0.000679348
0.0122907
0.000634267
0.0120028
0.000593108
0.0117332
0.000555363
0.0114804
0.000520605
0.0112433
0.000488469
0.0110206
0.00045864
0.0108113
0.000430848
0.0106147
0.000404858
0.01043
0.000380472
0.0102563
0.000357521
0.0100932
0.000335855
0.00994007
0.000315339
0.00979638
0.000295849
0.0096617
0.000277284
0.00953564
0.000259554
0.00941782
0.000242561
0.00930794
0.000226209
0.00920574
0.000210398
0.00911097
0.00019507
0.00902342
0.000180184
0.00894293
0.000165623
0.00886934
0.000151387
0.00880254
0.000137358
0.00874245
0.000123527
0.00868898
0.000109837
0.00864212
9.61773e-05
0.0086018
8.26799e-05
0.00856807
6.90399e-05
0.00854092
5.54368e-05
0.00852044
4.16435e-05
0.0085067
2.77019e-05
0.00849986
1.33971e-05
0.00850006
-1.20365e-06
0.0085073
-1.57558e-05
0.00852189
-3.09815e-05
0.00854415
-4.68796e-05
0.00857441
-6.34597e-05
0.00861303
-8.08084e-05
0.00866046
-9.90655e-05
0.00871721
-0.000118385
0.00878388
-0.000138947
0.00886118
-0.000160983
0.00894993
-0.000184731
0.00905112
-0.000210496
0.00916594
-0.000238714
0.00929579
-0.000269844
0.0094423
-0.000304298
0.00960747
-0.000342815
0.00979386
-0.000386663
0.0100044
-0.00043666
0.0102421
-0.000492674
0.0105105
-0.000555848
0.0108152
-0.000630494
0.0111632
-0.000720397
0.0115594
-0.000822065
0.0120034
-0.00092389
0.0124895
-0.00101394
0.0130108
-0.00108844
0.0135629
-0.0011529
0.0141458
-0.00121638
0.0147622
-0.00128557
0.0154157
-0.00136278
0.0161099
-0.00144744
0.0168476
-0.00153832
0.0176313
-0.00163476
0.0184639
-0.00173687
0.0193481
-0.00184533
0.0202876
-0.00196107
0.0212863
-0.00208514
0.0223485
-0.0022185
0.023479
-0.00236205
0.024683
-0.00251653
0.0259658
-0.00268263
0.0273334
-0.00286103
0.0287917
-0.00305266
0.0303475
-0.00325836
0.0320077
-0.00347922
0.03378
-0.00371631
0.0356722
-0.00397063
0.0376932
-0.00424404
0.0398517
-0.00453641
0.0421586
-0.00485238
0.0446224
-0.00518726
0.0472577
-0.00555378
0.0500714
-0.00593557
0.0530829
-0.00636045
0.0562996
-0.00680133
0.0597324
-0.00726849
0.0634307
-0.00783881
0.0672961
-0.0082079
0.071605
-0.00915486
0.0758575
-0.00904558
0.0808002
-0.0105111
-0.00985147
0.044638
0.00898826
-0.0431
0.0461715
0.0112841
0.0465565
0.0123449
0.0456546
0.0121379
0.0438526
0.011162
0.0415988
0.00986653
0.0392253
0.00853687
0.0369284
0.00732289
0.0348014
0.00628147
0.0328732
0.00541556
0.031141
0.00470352
0.029588
0.0041187
0.0281932
0.00363568
0.0269365
0.00323337
0.0257998
0.00289515
0.0247676
0.00260817
0.0238267
0.00236251
0.0229658
0.00215049
0.0221754
0.00196609
0.0214475
0.00180457
0.0207751
0.00166214
0.0201524
0.00153576
0.0195743
0.00142298
0.0190363
0.00132176
0.0185348
0.00123045
0.0180665
0.00114768
0.0176285
0.0010723
0.0172182
0.00100334
0.0168336
0.00094
0.0164726
0.000881584
0.0161336
0.000827504
0.015815
0.000777251
0.0155154
0.000730385
0.0152338
0.000686521
0.0149689
0.000645331
0.0147199
0.000606538
0.0144859
0.000569894
0.014266
0.000535176
0.0140597
0.000502178
0.0138662
0.000470733
0.0136851
0.000440689
0.0135158
0.000411887
0.0133578
0.000384172
0.0132108
0.000357375
0.0130745
0.000331392
0.0129485
0.000306159
0.0128327
0.000281483
0.0127267
0.000257357
0.0126305
0.000233588
0.0125438
0.000210159
0.0124667
0.00018697
0.012399
0.000163844
0.0123407
0.000140978
0.0122919
0.000117901
0.0122525
9.48697e-05
0.0122226
7.15387e-05
0.0122023
4.79533e-05
0.0121919
2.37682e-05
0.0121916
-8.68922e-07
0.0122014
-2.55273e-05
0.0122217
-5.12705e-05
0.0122529
-7.81184e-05
0.0122956
-0.000106115
0.0123502
-0.000135405
0.0124173
-0.000166227
0.0124978
-0.000198838
0.0125924
-0.000233545
0.0127021
-0.000270737
0.0128282
-0.000310821
0.012972
-0.000354316
0.0131353
-0.000401964
0.01332
-0.000454527
0.0135284
-0.000512736
0.0137635
-0.000577879
0.0140288
-0.00065201
0.0143286
-0.000736428
0.014667
-0.000831111
0.0150494
-0.000938237
0.0154836
-0.00106465
0.0159788
-0.00121561
0.0165412
-0.00138449
0.0171697
-0.00155239
0.0178565
-0.00170078
0.0185926
-0.00182449
0.0193725
-0.00193277
0.0201962
-0.00204011
0.0210676
-0.00215694
0.0219916
-0.00228678
0.0229728
-0.0024287
0.0240152
-0.00258073
0.0251223
-0.00274183
0.0262977
-0.00291225
0.0275454
-0.00309309
0.0288703
-0.00328589
0.0302775
-0.00349238
0.0317731
-0.0037141
0.0333635
-0.00395251
0.0350557
-0.00420872
0.036857
-0.00448388
0.038775
-0.00477909
0.0408181
-0.00509572
0.0429949
-0.0054352
0.0453148
-0.00579904
0.0477877
-0.00618921
0.0504238
-0.00660673
0.0532349
-0.00705518
0.0562318
-0.00753334
0.0594291
-0.00804962
0.0628368
-0.00859496
0.0664742
-0.00919122
0.0703487
-0.00981004
0.0744856
-0.0104973
0.0788936
-0.0112093
0.0835827
-0.0119577
0.088624
-0.0128801
0.0938711
-0.013455
0.0997079
-0.0149916
0.105458
-0.0147952
0.112106
-0.0171592
-0.0161542
0.0477696
0.00788451
-0.0466658
0.0493143
0.0097393
0.0505364
0.0111229
0.0509506
0.0117236
0.0505011
0.0116115
0.0493661
0.0110015
0.0477853
0.0101177
0.0459718
0.00913632
0.0440815
0.00817184
0.0422127
0.00728432
0.0404202
0.00649608
0.0387308
0.00580811
0.0371542
0.00521221
0.0356904
0.00469714
0.0343344
0.0042512
0.0330789
0.0038637
0.031916
0.0035254
0.0308379
0.00322856
0.0298372
0.00296679
0.028907
0.00273478
0.028041
0.00252812
0.0272336
0.00234318
0.0264797
0.00217689
0.0257747
0.00202669
0.0251147
0.00189045
0.0244961
0.00176633
0.0239156
0.00165281
0.0233703
0.00154858
0.0228578
0.0014525
0.0223758
0.00136364
0.0219221
0.00128115
0.0214951
0.00120432
0.0210929
0.00113252
0.0207143
0.00106519
0.0203577
0.00100186
0.0200221
0.000942123
0.0197064
0.000885614
0.0194096
0.000832008
0.0191308
0.000781
0.0188692
0.000732342
0.018624
0.000685806
0.0183948
0.000641161
0.0181808
0.000598178
0.0179815
0.000556599
0.0177967
0.000516269
0.0176257
0.000477081
0.0174685
0.000438758
0.0173245
0.000401273
0.0171938
0.000364347
0.017076
0.000327942
0.0169711
0.000291906
0.0168789
0.000255976
0.0167995
0.000220423
0.0167328
0.000184579
0.0166789
0.00014878
0.0166379
0.00011254
0.01661
7.58985e-05
0.0165954
3.8352e-05
0.0165944
1.36445e-07
0.016607
-3.81836e-05
0.0166339
-7.81886e-05
0.0166757
-0.000119835
0.0167328
-0.000163255
0.0168061
-0.000208677
0.0168963
-0.000256463
0.0170045
-0.000307011
0.0171317
-0.000360802
0.0172794
-0.000418433
0.0174491
-0.000480535
0.0176428
-0.000547928
0.0178625
-0.000621747
0.0181112
-0.000703165
0.0183918
-0.000793352
0.0187083
-0.000894339
0.0190654
-0.00100918
0.0194688
-0.00113982
0.0199242
-0.00128647
0.0204387
-0.00145275
0.0210226
-0.00164856
0.0216876
-0.00188057
0.022441
-0.00213788
0.0232809
-0.00239237
0.0241977
-0.00261752
0.0251798
-0.00280665
0.0262209
-0.00297382
0.027321
-0.00314021
0.028485
-0.0033209
0.0297191
-0.00352093
0.0310293
-0.00373888
0.0324205
-0.0039719
0.0338971
-0.00421849
0.0354638
-0.00447898
0.0371258
-0.004755
0.0388887
-0.00504888
0.0407596
-0.00536319
0.0427457
-0.0057002
0.0448551
-0.00606198
0.0470967
-0.00645026
0.0494793
-0.00686653
0.0520127
-0.00731247
0.0547068
-0.00778987
0.0575726
-0.00830093
0.0606209
-0.0088474
0.0638642
-0.00943246
0.0673142
-0.0100568
0.0709854
-0.0107263
0.0748897
-0.0114377
0.0790448
-0.0122048
0.0834612
-0.0130113
0.0881623
-0.0138923
0.093154
-0.0148017
0.0984667
-0.01581
0.104109
-0.0168514
0.110086
-0.0179349
0.116492
-0.0192864
0.123127
-0.0200899
0.130477
-0.0223412
0.137709
-0.0220274
0.145991
-0.0254411
-0.0240795
0.0511937
0.00707067
-0.0503798
0.0524392
0.00849375
0.0537774
0.00978473
0.0548068
0.0106942
0.0552882
0.0111301
0.0551742
0.0111155
0.0545411
0.0107508
0.0535158
0.0101616
0.0522275
0.00946011
0.0507844
0.00872746
0.0492672
0.00801326
0.0477321
0.00734326
0.046216
0.0067283
0.0447428
0.00617031
0.0433264
0.00566756
0.0419742
0.00521591
0.0406893
0.00481032
0.0394721
0.00444574
0.0383215
0.00411743
0.0372351
0.00382112
0.0362103
0.00355299
0.0352437
0.00330971
0.0343323
0.00308833
0.0334727
0.00288627
0.0326619
0.00270127
0.0318969
0.00253136
0.0311749
0.00237483
0.0304933
0.00223017
0.0298497
0.00209607
0.0292419
0.0019714
0.028668
0.00185514
0.0281259
0.00174641
0.027614
0.00164441
0.0271307
0.00154845
0.0266747
0.00145791
0.0262445
0.00137226
0.0258391
0.00129104
0.0254573
0.00121381
0.0250981
0.00114018
0.0247607
0.00106979
0.0244441
0.00100236
0.0241477
0.000937575
0.0238708
0.000875118
0.0236127
0.000814639
0.0233731
0.00075591
0.0231514
0.000698792
0.0229472
0.000642895
0.0227603
0.000588183
0.0225904
0.000534259
0.0224373
0.000481068
0.0223008
0.000428395
0.0221809
0.000375864
0.0220775
0.000323844
0.0219907
0.000271416
0.0219204
0.000219023
0.021867
0.000166
0.0218305
0.000112375
0.0218114
5.74544e-05
0.0218099
1.61202e-06
0.0218263
-5.45496e-05
0.0218612
-0.00011311
0.0219154
-0.000174006
0.0219896
-0.000237475
0.0220848
-0.000303862
0.022202
-0.000373687
0.0223425
-0.000447527
0.0225078
-0.000526086
0.0226996
-0.000610223
0.0229199
-0.000700869
0.0231712
-0.000799214
0.0234564
-0.000906901
0.0237788
-0.00102563
0.0241426
-0.00115714
0.0245527
-0.00130441
0.0250152
-0.00147173
0.0255373
-0.00166185
0.0261262
-0.00187542
0.0267913
-0.00211785
0.0275453
-0.00240256
0.0284023
-0.00273757
0.029371
-0.00310655
0.030449
-0.00347037
0.0316245
-0.00379302
0.0328839
-0.00406613
0.0342196
-0.00430944
0.0356315
-0.00455213
0.0371254
-0.00481483
0.0387089
-0.00510444
0.0403892
-0.0054191
0.0421721
-0.00575489
0.0440633
-0.00610967
0.0460681
-0.0064838
0.0481926
-0.0068795
0.0504438
-0.00729999
0.0528294
-0.00774879
0.0553583
-0.00822911
0.0580401
-0.00874376
0.0608848
-0.00929505
0.0639032
-0.00988486
0.0671062
-0.0105155
0.0705054
-0.0111891
0.0741132
-0.0119087
0.0779418
-0.012676
0.082005
-0.0134957
0.0863157
-0.0143674
0.0908898
-0.0153005
0.0957394
-0.0162873
0.100885
-0.0173499
0.106334
-0.0184605
0.112114
-0.0196727
0.118227
-0.020915
0.124707
-0.0222901
0.13156
-0.023704
0.138784
-0.025159
0.146493
-0.0269952
0.154436
-0.0280332
0.163174
-0.0310791
0.171776
-0.0306292
0.181489
-0.0351545
-0.0334613
0.054942
0.0064134
-0.0542847
0.0559075
0.00752821
0.0570719
0.00862032
0.058218
0.00954805
0.0591254
0.0102228
0.0596576
0.0105832
0.0597749
0.0106335
0.0595065
0.0104301
0.058917
0.0100496
0.0580806
0.00956386
0.0570659
0.00902795
0.0559301
0.00847908
0.0547182
0.00794015
0.0534645
0.00742401
0.0521953
0.00693676
0.0509301
0.00648118
0.0496828
0.0060576
0.0484635
0.00566504
0.0472791
0.00530181
0.0461343
0.00496591
0.045032
0.00465526
0.0439739
0.00436786
0.0429605
0.00410175
0.0419917
0.00385506
0.0410669
0.00362606
0.0401851
0.00341313
0.0393451
0.00321478
0.0385457
0.00302965
0.0377852
0.0028565
0.0370624
0.00269421
0.0363758
0.00254178
0.0357239
0.00239827
0.0351055
0.00226285
0.0345192
0.00213475
0.0339638
0.00201329
0.0334382
0.00189788
0.0329412
0.00178798
0.032472
0.00168309
0.0320294
0.00158273
0.0316127
0.0014865
0.031221
0.00139404
0.0308536
0.00130496
0.0305099
0.0012189
0.0301891
0.0011354
0.0298908
0.00105416
0.0296146
0.00097501
0.0293601
0.000897436
0.0291269
0.000821407
0.0289147
0.000746386
0.0287235
0.000672305
0.028553
0.000598879
0.0284033
0.000525595
0.0282742
0.000452941
0.0281659
0.000379709
0.0280785
0.000306461
0.0280121
0.000232324
0.0279672
0.000157309
0.0279442
8.0488e-05
0.0279433
2.456e-06
0.027965
-7.62273e-05
0.0280101
-0.000158247
0.0280796
-0.000243435
0.0281743
-0.000332203
0.0282955
-0.000425036
0.0284444
-0.000522649
0.0286227
-0.000625849
0.0288323
-0.000735602
0.0290751
-0.000853105
0.0293539
-0.00097964
0.0296716
-0.00111687
0.0300317
-0.00126705
0.0304386
-0.00143253
0.0308973
-0.00161577
0.0314137
-0.00182087
0.0319956
-0.00205362
0.0326515
-0.00231778
0.0333907
-0.00261463
0.0342246
-0.00295166
0.0351682
-0.00334621
0.0362382
-0.00380759
0.0374448
-0.0043131
0.0387853
-0.00481092
0.0402464
-0.00525412
0.0418124
-0.00563214
0.0434741
-0.00597107
0.0452311
-0.0063092
0.04709
-0.00667369
0.0490593
-0.00707379
0.0511475
-0.00750725
0.0533616
-0.00796895
0.0557078
-0.00845594
0.0581925
-0.00896846
0.0608222
-0.00950921
0.0636046
-0.0100824
0.0665483
-0.0106925
0.069663
-0.0113439
0.0729595
-0.0120402
0.0764487
-0.0127843
0.0801423
-0.0135785
0.0840523
-0.0144256
0.0881911
-0.0153279
0.0925717
-0.0162893
0.0972069
-0.0173111
0.102111
-0.0183998
0.107296
-0.0195528
0.11278
-0.020784
0.118572
-0.0220791
0.124693
-0.0234712
0.131148
-0.0249159
0.137967
-0.0264916
0.145144
-0.028092
0.152716
-0.0298614
0.160681
-0.0316697
0.169032
-0.03351
0.177892
-0.0358552
0.18698
-0.0371203
0.196877
-0.0409764
0.206643
-0.0403956
0.217479
-0.0459906
-0.044021
0.058985
0.00584666
-0.0584182
0.0597613
0.00675193
0.0607204
0.00766115
0.061768
0.00850045
0.0627669
0.00922395
0.0635869
0.00976323
0.064145
0.0100754
0.0644111
0.010164
0.0643947
0.010066
0.0641284
0.00983017
0.0636532
0.00950315
0.0630099
0.00912238
0.0622349
0.00871508
0.0613594
0.00829959
0.0604087
0.00788741
0.0594044
0.00748545
0.0583647
0.00709731
0.0573045
0.0067253
0.0562359
0.00637042
0.0551689
0.0060329
0.0541116
0.00571253
0.0530706
0.00540889
0.0520509
0.00512141
0.0510566
0.00484941
0.0500905
0.00459214
0.0491548
0.00434882
0.048251
0.00411862
0.0473799
0.00390071
0.0465421
0.00369428
0.0457378
0.00349853
0.0449669
0.00331269
0.0442291
0.00313603
0.0435241
0.00296785
0.0428514
0.00280747
0.0422104
0.00265428
0.0416006
0.00250771
0.0410213
0.00236727
0.0404719
0.00223247
0.0399518
0.00210281
0.0394605
0.00197788
0.0389972
0.0018573
0.0385615
0.00174068
0.0381528
0.00162758
0.0377707
0.00151749
0.0374148
0.00141006
0.0370847
0.0013051
0.0367802
0.00120197
0.0365009
0.00110066
0.0362468
0.0010005
0.0360177
0.000901408
0.0358136
0.000803034
0.0356345
0.0007047
0.0354803
0.000607061
0.0353515
0.000508557
0.035248
0.000409909
0.0351704
0.000310002
0.0351189
0.000208815
0.0350941
0.000105233
0.0350967
-8.35491e-08
0.0351268
-0.000106399
0.0351859
-0.000217283
0.0352748
-0.000332348
0.0353948
-0.000452227
0.0355474
-0.000577589
0.0357341
-0.000709376
0.0359569
-0.000848661
0.036218
-0.000996739
0.0365201
-0.00115519
0.0368662
-0.00132574
0.0372599
-0.00151059
0.0377056
-0.00171271
0.0382083
-0.00193525
0.0387741
-0.00218153
0.0394101
-0.00245694
0.0401255
-0.002769
0.0409304
-0.00312272
0.041836
-0.00352021
0.0428556
-0.00397126
0.0440067
-0.00449732
0.0453082
-0.00510908
0.046772
-0.00577684
0.0483958
-0.00643479
0.0501653
-0.0070236
0.0520629
-0.0075297
0.0540775
-0.00798574
0.0562084
-0.00844007
0.058462
-0.00892732
0.0608479
-0.0094597
0.0633755
-0.0100348
0.0660526
-0.0106461
0.0688865
-0.0112898
0.0718837
-0.0119657
0.0750511
-0.0126767
0.0783966
-0.0134278
0.0819289
-0.0142248
0.0856581
-0.0150731
0.089595
-0.0159771
0.0937513
-0.0169406
0.0981388
-0.0179659
0.10277
-0.0190565
0.107656
-0.0202143
0.112811
-0.0214443
0.118246
-0.0227464
0.123976
-0.0241295
0.130011
-0.0255873
0.136366
-0.0271396
0.14305
-0.0287624
0.150082
-0.0305036
0.157461
-0.0322953
0.165219
-0.0342489
0.173339
-0.0362123
0.18186
-0.0383821
0.190772
-0.0405819
0.200062
-0.0427998
0.209849
-0.0456423
0.21985
-0.0471211
0.230608
-0.051735
0.241271
-0.0510585
0.252871
-0.0575907
-0.0554272
0.0633187
0.00534085
-0.0628129
0.0639743
0.00609625
0.0647742
0.00686132
0.065681
0.0075936
0.0666243
0.00828073
0.0675122
0.00887525
0.0682644
0.00932326
0.0688287
0.00959973
0.0691841
0.00971054
0.0693335
0.00968076
0.069294
0.00954263
0.0690889
0.00932752
0.068742
0.00906193
0.0682754
0.00876617
0.0677083
0.00845459
0.067057
0.00813672
0.0663358
0.00781854
0.0655578
0.00750324
0.0647349
0.00719331
0.0638777
0.00689015
0.0629955
0.00659467
0.062097
0.00630741
0.0611898
0.00602868
0.0602805
0.00575867
0.0593751
0.00549753
0.0584786
0.0052453
0.0575953
0.00500193
0.0567287
0.00476731
0.0558818
0.00454124
0.0550568
0.00432349
0.0542557
0.00411376
0.05348
0.00391172
0.0527309
0.003717
0.0520092
0.00352919
0.0513155
0.00334791
0.0506504
0.0031728
0.0500142
0.00300351
0.049407
0.00283968
0.0488289
0.00268089
0.04828
0.00252683
0.0477601
0.00237718
0.0472692
0.00223157
0.0468072
0.00208961
0.0463739
0.00195073
0.0459694
0.00181459
0.0455935
0.00168102
0.0452462
0.00154929
0.0449274
0.00141943
0.0446373
0.00129063
0.0443758
0.00116284
0.0441432
0.00103565
0.0439397
0.000908202
0.0437654
0.000781361
0.0436208
0.000653183
0.0435061
0.000524576
0.043422
0.000394159
0.0433689
0.00026187
0.0433478
0.000126394
0.043359
-1.13167e-05
0.0434035
-0.000150914
0.0434826
-0.000296339
0.0435975
-0.000447277
0.0437498
-0.000604521
0.0439412
-0.000768969
0.0441736
-0.000941828
0.0444494
-0.00112448
0.0447713
-0.00131858
0.0451423
-0.00152617
0.045566
-0.00174948
0.0460468
-0.00199133
0.0465896
-0.00225552
0.0472004
-0.00254608
0.0478862
-0.00286736
0.0486555
-0.00322619
0.0495184
-0.00363197
0.050487
-0.00409128
0.051574
-0.00460722
0.0527947
-0.00519192
0.0541684
-0.00587104
0.0557161
-0.00665677
0.0574516
-0.00751231
0.0593738
-0.00835701
0.061468
-0.00911779
0.0637151
-0.00977689
0.0661026
-0.0103732
0.0686282
-0.0109657
0.0712981
-0.0115972
0.0741221
-0.0122837
0.0771103
-0.0130229
0.0802715
-0.0138073
0.0836131
-0.0146315
0.0871421
-0.0154946
0.0908651
-0.0163996
0.0947892
-0.017352
0.0989229
-0.0183584
0.103275
-0.0194256
0.107857
-0.0205589
0.112679
-0.0217627
0.117753
-0.0230395
0.123089
-0.0243932
0.1287
-0.0258249
0.134596
-0.0273407
0.140788
-0.0289383
0.147289
-0.0306297
0.154104
-0.0324027
0.16125
-0.0342852
0.168726
-0.0362393
0.176555
-0.0383326
0.184726
-0.0404663
0.193271
-0.0427935
0.202164
-0.045105
0.211443
-0.0476611
0.221089
-0.0502281
0.231088
-0.0527991
0.241543
-0.0560976
0.252201
-0.0577787
0.263515
-0.063049
0.274798
-0.0623415
0.286832
-0.0696246
-0.0673821
0.0679593
0.00488006
-0.0674985
0.0685343
0.0055213
0.0692213
0.00617429
0.0700061
0.00680882
0.0708549
0.00743195
0.071713
0.00801708
0.0725178
0.00851845
0.0732169
0.00890068
0.0737766
0.0091508
0.0741829
0.00927443
0.0744371
0.00928852
0.0745495
0.00921503
0.0745352
0.0090763
0.0744091
0.00889223
0.074185
0.00867867
0.0738745
0.00844727
0.0734872
0.00820585
0.0730311
0.00795932
0.0725138
0.00771061
0.0719427
0.00746124
0.0713249
0.00721252
0.070667
0.00696528
0.0699757
0.00672
0.0692573
0.00647701
0.0685182
0.00623668
0.0677642
0.0059993
0.0670009
0.00576521
0.0662335
0.00553474
0.0654665
0.00530817
0.0647043
0.00508572
0.0639505
0.00486759
0.0632083
0.00465387
0.0624807
0.00444461
0.0617701
0.00423979
0.0610787
0.00403933
0.0604083
0.0038432
0.0597605
0.00365131
0.0591367
0.00346353
0.0585379
0.00327966
0.0579652
0.00309955
0.0574193
0.00292304
0.056901
0.00274989
0.0564108
0.0025798
0.0559493
0.00241226
0.0555169
0.00224694
0.0551141
0.00208381
0.0547414
0.00192201
0.0543991
0.00176173
0.0540877
0.00160203
0.0538076
0.00144291
0.0535593
0.00128394
0.0533435
0.00112406
0.0531604
0.000964447
0.0530109
0.000802689
0.0528955
0.000639976
0.0528151
0.000474601
0.0527704
0.000306481
0.0527626
0.000134208
0.0527925
-4.11484e-05
0.0528611
-0.000219549
0.0529701
-0.000405357
0.0531211
-0.000598307
0.053316
-0.000799379
0.0535568
-0.00100973
0.0538458
-0.00123086
0.0541858
-0.00146448
0.0545799
-0.00171268
0.0550317
-0.001978
0.0555455
-0.00226322
0.056126
-0.00257185
0.0567791
-0.00290859
0.0575115
-0.00327851
0.0583312
-0.00368704
0.0592475
-0.00414256
0.0602721
-0.00465653
0.0614181
-0.00523731
0.0627001
-0.00588922
0.0641348
-0.00662658
0.0657428
-0.00747911
0.0675468
-0.00846068
0.0695623
-0.00952783
0.0717903
-0.010585
0.0742167
-0.0115443
0.0768221
-0.0123822
0.0795918
-0.013143
0.0825221
-0.0138959
0.085618
-0.0146931
0.0888891
-0.0155548
0.0923455
-0.0164794
0.0959964
-0.0174582
0.0998496
-0.0184847
0.103912
-0.0195568
0.108189
-0.0206768
0.112687
-0.02185
0.117413
-0.0230839
0.122373
-0.0243865
0.127579
-0.025764
0.133038
-0.0272217
0.13876
-0.0287618
0.144756
-0.0303889
0.151034
-0.0321028
0.157604
-0.0339107
0.164472
-0.035807
0.17165
-0.0378075
0.17914
-0.0398923
0.186954
-0.0421
0.195089
-0.0443741
0.203564
-0.0468077
0.212361
-0.0492631
0.221512
-0.0519447
0.230983
-0.0545753
0.240812
-0.0574909
0.250973
-0.0603886
0.261456
-0.0632822
0.272342
-0.0669834
0.283427
-0.0688644
0.295054
-0.0746757
0.30674
-0.0740274
0.318985
-0.0818697
-0.0797018
0.0729293
0.00445368
-0.072503
0.0734466
0.005004
0.0740533
0.00556764
0.0747436
0.00611856
0.0755023
0.00667318
0.0762991
0.00722031
0.0770913
0.00772626
0.0778349
0.00815711
0.0784941
0.0084916
0.079046
0.00872246
0.0794812
0.00885335
0.0798007
0.0088955
0.0800126
0.00886442
0.0801279
0.00877692
0.0801579
0.00864866
0.0801125
0.00849267
0.0799996
0.0083188
0.079825