/*--------------------------------*- C++ -*----------------------------------*\
| =========                 |                                                 |
| \\      /  F ield         | OpenFOAM: The Open Source CFD Toolbox           |
|  \\    /   O peration     | Version:  2412                                  |
|   \\  /    A nd           | Website:  www.openfoam.com                      |
|    \\/     M anipulation  |                                                 |
\*---------------------------------------------------------------------------*/
FoamFile
{
    version     2.0;
    format      ascii;
    arch        "LSB;label=32;scalar=64";
    class       volVectorField;
    location    "0.07";
    object      U_0;
}
// * * * * * * * * * * * * * * * * * * * * * * * * * * * * * * * * * * * * * //

dimensions      [0 1 -1 0 0 0 0];

internalField   nonuniform List<vector> 
12600
(
(14.4352 0 -3.48957)
(9.01947 -1.21534e-19 -2.53885)
(5.41705 -9.75781e-20 -2.46615)
(3.89416 0 -2.1431)
(3.22971 1.60001e-21 -1.8369)
(2.81174 0 -1.60864)
(2.50844 8.92806e-20 -1.43909)
(2.27665 0 -1.30843)
(2.09222 0 -1.20414)
(1.94104 0 -1.1184)
(1.81425 0 -1.04623)
(1.706 1.43649e-19 -0.984405)
(1.61219 1.37428e-19 -0.930673)
(1.52988 0 -0.883423)
(1.45691 -2.51533e-19 -0.84146)
(1.39163 0 -0.803872)
(1.33278 -7.01644e-23 -0.769952)
(1.27938 0 -0.739145)
(1.23063 -1.05499e-19 -0.711007)
(1.1859 0 -0.685176)
(1.14468 0 -0.661359)
(1.10653 0 -0.63931)
(1.0711 -3.54313e-19 -0.618826)
(1.03808 3.39147e-19 -0.599734)
(1.00722 3.64604e-23 -0.58189)
(0.978312 -1.5538e-19 -0.565167)
(0.951157 0 -0.549459)
(0.925597 0 -0.534673)
(0.901491 0 -0.520727)
(0.878716 2.60792e-19 -0.50755)
(0.857164 4.99148e-19 -0.495081)
(0.836738 0 -0.483264)
(0.817355 0 -0.472049)
(0.79894 2.1873e-19 -0.461395)
(0.781424 2.09294e-19 -0.451261)
(0.764748 0 -0.441614)
(0.748856 0 -0.43242)
(0.7337 3.66539e-19 -0.423652)
(0.719233 0 -0.415285)
(0.705417 -2.3384e-23 -0.407293)
(0.692213 3.2076e-19 -0.399656)
(0.679588 3.06769e-19 -0.392355)
(0.667511 0 -0.385371)
(0.655956 2.80462e-19 -0.378689)
(0.6449 2.68105e-19 -0.372296)
(0.634318 -5.12549e-19 -0.366178)
(0.624192 4.89889e-19 -0.360324)
(0.614505 0 -0.354724)
(0.605237 -4.4729e-19 -0.349366)
(0.59638 4.27302e-19 -0.344246)
(0.587913 0 -0.339352)
(0.579833 1.53465e-23 -0.334681)
(0.572121 -3.72159e-19 -0.330223)
(0.564772 0 -0.325974)
(0.55778 6.78167e-19 -0.321927)
(0.551132 0 -0.318085)
(0.544825 0 -0.314447)
(0.538849 -1.97889e-23 -0.311013)
(0.533221 -1.90821e-23 -0.307777)
(0.52794 -5.35444e-19 -0.304703)
(0.522976 5.10385e-19 -0.301822)
(0.518345 -9.72705e-19 -0.299139)
(0.514052 0 -0.296654)
(0.510105 -8.82586e-19 -0.29437)
(0.506509 -8.40328e-19 -0.292291)
(0.503276 1.59977e-18 -0.290422)
(0.500418 -7.61155e-19 -0.288771)
(0.497951 0 -0.287347)
(0.495896 0 -0.286162)
(0.494276 0 -0.28523)
(0.493122 0 -0.284569)
(0.492472 0 -0.284202)
(0.492371 1.12192e-18 -0.284155)
(0.492865 -1.06479e-18 -0.28446)
(0.494013 0 -0.285165)
(0.495928 0 -0.286316)
(0.498706 -9.07353e-19 -0.287961)
(0.502398 -3.84184e-24 -0.290137)
(0.507107 -1.62597e-18 -0.29291)
(0.513105 0 -0.296439)
(0.520744 0 -0.300915)
(0.530171 0 -0.306403)
(0.541148 -4.7218e-23 -0.312752)
(0.553167 0 -0.319673)
(0.565741 0 -0.326897)
(0.578612 -1.08137e-18 -0.334292)
(0.591758 -2.01048e-23 -0.341853)
(0.605272 0 -0.349633)
(0.619251 0 -0.357688)
(0.633754 1.70112e-18 -0.366046)
(0.648801 1.60066e-18 -0.374718)
(0.6644 1.50565e-18 -0.383707)
(0.680555 1.41577e-18 -0.393017)
(0.697278 -8.95679e-24 -0.402654)
(0.714592 -6.57553e-24 -0.412632)
(0.732525 -1.17469e-18 -0.422968)
(0.75112 0 -0.433687)
(0.770412 0 -0.44481)
(0.790451 0 -0.456362)
(0.811267 -3.64523e-18 -0.468358)
(0.832912 1.70894e-18 -0.48083)
(0.855403 -1.60178e-18 -0.493797)
(0.878805 -1.50078e-18 -0.507293)
(0.903121 0 -0.521318)
(0.928447 0 -0.535927)
(0.954749 0 -0.551101)
(0.982174 -2.30491e-18 -0.566923)
(1.01062 0 -0.583336)
(1.04034 2.0156e-18 -0.600485)
(1.07109 0 -0.618225)
(1.10335 0 -0.636839)
(1.1365 -1.64419e-18 -0.655969)
(1.1716 0 -0.676223)
(1.20728 0 -0.696817)
(1.2452 0 -0.718703)
(1.28457 2.49551e-18 -0.741424)
(1.32244 0 -0.763307)
(1.37137 -2.16919e-18 -0.791528)
(1.39759 0 -0.806826)
(1.46594 9.31429e-25 -0.846356)
(25.5174 1.19866e-20 -5.97487)
(21.4744 8.121e-20 -6.24779)
(16.8033 1.38191e-20 -6.70965)
(13.4391 0 -6.35921)
(11.2507 1.00651e-19 -5.76217)
(9.75804 -9.49321e-20 -5.19593)
(8.68105 -9.31026e-20 -4.71795)
(7.86338 8.83638e-20 -4.32541)
(7.21556 0 -4.00159)
(6.6859 0 -3.73026)
(6.24246 0 -3.49914)
(5.8643 0 -3.29936)
(5.53695 0 -3.12455)
(5.25005 0 -2.96997)
(4.99596 2.25171e-22 -2.83206)
(4.76889 0 -2.70807)
(4.56441 -1.19915e-19 -2.59582)
(4.37902 0 -2.49359)
(4.20995 2.19472e-19 -2.40001)
(4.05497 -2.09926e-19 -2.31394)
(3.91224 0 -2.23444)
(3.78027 -1.9222e-19 -2.16073)
(3.65778 1.84028e-19 -2.09216)
(3.54373 -1.7607e-19 -2.02818)
(3.43721 1.68451e-19 -1.96832)
(3.33747 0 -1.91217)
(3.24385 -1.54113e-19 -1.85938)
(3.15578 0 -1.80965)
(3.07276 0 -1.76272)
(2.99437 0 -1.71836)
(2.92023 -2.58109e-19 -1.67635)
(2.84999 0 -1.63651)
(2.78337 0 -1.5987)
(2.7201 0 -1.56275)
(2.65995 0 -1.52855)
(2.60271 0 -1.49598)
(2.54818 0 -1.46494)
(2.49619 -3.77104e-19 -1.43532)
(2.44659 0 -1.40705)
(2.39923 -6.8884e-19 -1.38004)
(2.35399 -6.58221e-19 -1.35423)
(2.31075 -3.14423e-19 -1.32954)
(2.2694 0 -1.30593)
(2.22984 0 -1.28333)
(2.19201 -5.4803e-19 -1.26171)
(2.15581 5.23328e-19 -1.24101)
(2.12117 -4.99587e-19 -1.22121)
(2.08805 0 -1.20225)
(2.05636 4.55141e-19 -1.18413)
(2.02609 0 -1.1668)
(1.99715 0 -1.15023)
(1.96953 3.95254e-19 -1.13442)
(1.94318 0 -1.11933)
(1.91807 0 -1.10494)
(1.89418 -6.85174e-19 -1.09125)
(1.87146 0 -1.07823)
(1.84992 0 -1.06589)
(1.82953 -3.42534e-23 -1.05421)
(1.81032 -5.64419e-19 -1.04321)
(1.79223 2.91759e-23 -1.03287)
(1.77524 0 -1.02315)
(1.75939 9.7346e-19 -1.01409)
(1.74471 9.26049e-19 -1.00569)
(1.7312 0 -0.99796)
(1.71889 1.67474e-18 -0.990925)
(1.70782 -3.45917e-23 -0.984601)
(1.69804 0 -0.979015)
(1.68959 -7.18294e-19 -0.9742)
(1.68255 0 -0.970198)
(1.677 0 -0.967058)
(1.67305 0 -0.964843)
(1.67084 0 -0.963635)
(1.67052 -2.20941e-18 -0.963524)
(1.67225 1.04685e-18 -0.964613)
(1.67629 0 -0.967057)
(1.68299 0 -0.971041)
(1.69265 -8.8808e-19 -0.976732)
(1.70551 -6.87809e-24 -0.984264)
(1.72198 -1.63167e-23 -0.9939)
(1.74298 0 -1.00617)
(1.76951 0 -1.02165)
(1.80179 0 -1.04043)
(1.83889 -7.96525e-23 -1.06193)
(1.87916 1.17975e-18 -1.08521)
(1.92118 -1.11032e-18 -1.10944)
(1.96424 1.04482e-18 -1.13426)
(2.00834 -3.43554e-23 -1.15969)
(2.05378 9.24778e-19 -1.1859)
(2.10084 0 -1.21306)
(2.14969 -1.63506e-18 -1.24125)
(2.20038 0 -1.27049)
(2.25291 -1.44364e-18 -1.30081)
(2.30731 0 -1.3322)
(2.36363 2.54609e-18 -1.36469)
(2.42194 1.1949e-18 -1.39833)
(2.48234 0 -1.43318)
(2.54498 0 -1.46932)
(2.60997 1.97242e-18 -1.50683)
(2.67747 -1.84894e-18 -1.54577)
(2.74757 3.46521e-18 -1.58621)
(2.82045 -1.62304e-18 -1.62825)
(2.89616 1.5199e-18 -1.67194)
(2.97492 0 -1.71739)
(3.05673 -1.33152e-18 -1.76461)
(3.14191 0 -1.81378)
(3.23034 0 -1.86482)
(3.32251 2.17833e-18 -1.91802)
(3.41806 0 -1.97318)
(3.51787 -1.59513e-23 -2.03079)
(3.62102 -1.77684e-18 -2.09034)
(3.72923 0 -2.15281)
(3.84033 0 -2.21696)
(3.95792 0 -2.28483)
(4.07741 -1.34865e-18 -2.35381)
(4.20417 2.51561e-18 -2.42702)
(4.33605 -2.34599e-18 -2.50306)
(4.46236 0 -2.57617)
(4.62656 2.0374e-18 -2.67056)
(4.71462 0 -2.72187)
(4.9455 -3.52879e-18 -2.85451)
(28.6872 -2.70893e-20 -8.08044)
(27.8198 2.75442e-20 -8.00034)
(25.1035 1.56789e-19 -8.65047)
(21.9772 0 -8.88911)
(19.2076 8.73043e-20 -8.67913)
(16.9824 2.7191e-21 -8.22666)
(15.2369 0 -7.70334)
(13.8543 -8.38499e-20 -7.19756)
(12.7368 0 -6.73959)
(11.8135 -7.66697e-20 -6.33414)
(11.0354 0 -5.97672)
(10.369 0 -5.66054)
(9.79034 0 -5.37915)
(9.28216 0 -5.12709)
(8.83145 1.24096e-19 -4.89987)
(8.42831 0 -4.69387)
(8.06504 0 -4.50611)
(7.73559 0 -4.33415)
(7.43509 -1.04085e-19 -4.17597)
(7.1596 1.66227e-22 -4.02989)
(6.90591 0 -3.89449)
(6.67135 1.16432e-22 -3.76859)
(6.45369 0 -3.65116)
(6.25106 1.66863e-19 -3.54134)
(6.06187 0 -3.43838)
(5.88475 0 -3.34164)
(5.71853 1.46165e-19 -3.25054)
(5.56221 0 -3.16461)
(5.4149 0 -3.08341)
(5.27583 2.55736e-19 -3.00655)
(5.14433 0 -2.93371)
(5.0198 0 -2.86458)
(4.90171 0 -2.79889)
(4.78958 0 -2.73641)
(4.68301 -2.04449e-19 -2.67693)
(4.58161 0 -2.62024)
(4.48504 0 -2.56617)
(4.393 3.57109e-19 -2.51457)
(4.3052 0 -2.46528)
(4.22139 6.52239e-19 -2.41818)
(4.14135 3.71688e-23 -2.37315)
(4.06486 2.97666e-19 -2.33007)
(3.99174 0 -2.28884)
(3.9218 0 -2.24939)
(3.85492 2.59274e-19 -2.21162)
(3.79094 0 -2.17546)
(3.72973 4.72572e-19 -2.14085)
(3.6712 0 -2.10773)
(3.61522 -3.35073e-23 -2.07604)
(3.56173 0 -2.04574)
(3.51062 0 -2.01677)
(3.46184 0 -1.98911)
(3.41529 3.56105e-19 -1.96271)
(3.37094 0 -1.93754)
(3.32874 0 -1.91359)
(3.28862 0 -1.89081)
(3.25058 0 -1.8692)
(3.21457 -1.11872e-18 -1.84872)
(3.18062 0 -1.82944)
(3.14863 2.50826e-23 -1.81134)
(3.11859 0 -1.79433)
(3.09057 -4.59e-19 -1.77847)
(3.06459 -8.73114e-19 -1.76375)
(3.04068 0 -1.75022)
(3.01889 -1.57821e-18 -1.7379)
(2.99928 -7.49862e-19 -1.72682)
(2.98192 0 -1.71703)
(2.96691 6.76449e-19 -1.7086)
(2.95439 0 -1.70159)
(2.94449 0 -1.69611)
(2.93741 0 -1.69226)
(2.93339 0 -1.69019)
(2.93271 2.57001e-23 -1.69006)
(2.93568 -9.84464e-19 -1.69206)
(2.94274 0 -1.69644)
(2.9545 0 -1.70357)
(2.9715 6.66267e-25 -1.71374)
(2.99418 1.57785e-18 -1.7272)
(3.02334 7.45233e-19 -1.74448)
(3.06054 0 -1.76649)
(3.10729 0 -1.79404)
(3.16375 0 -1.82712)
(3.2282 2.35254e-18 -1.8646)
(3.29788 5.66124e-23 -1.90488)
(3.3705 1.04156e-18 -1.94672)
(3.44502 0 -1.98962)
(3.52146 9.21843e-19 -2.03365)
(3.60033 -8.66975e-19 -2.07911)
(3.68207 0 -2.12626)
(3.76692 0 -2.17521)
(3.85495 -1.43979e-18 -2.22598)
(3.94617 0 -2.2786)
(4.04061 -1.26995e-18 -2.33306)
(4.13833 1.31341e-23 -2.38943)
(4.23949 -1.11879e-18 -2.44777)
(4.34426 1.04961e-18 -2.50821)
(4.45286 0 -2.57086)
(4.5655 -1.84587e-18 -2.63584)
(4.68241 1.73005e-18 -2.70328)
(4.80378 -3.24192e-18 -2.77329)
(4.92985 0 -2.84603)
(5.06074 1.42156e-18 -2.92156)
(5.1968 0 -3.00008)
(5.33802 1.24507e-18 -3.08158)
(5.48493 -1.16464e-18 -3.16637)
(5.63727 0 -3.2543)
(5.79593 -2.03619e-18 -3.34588)
(5.96018 0 -3.44068)
(6.13161 -3.55556e-18 -3.53963)
(6.30846 1.66039e-18 -3.64172)
(6.49388 0 -3.74874)
(6.68379 0 -3.85838)
(6.88465 0 -3.9743)
(7.08833 1.32611e-23 -4.09187)
(7.30388 -2.34976e-18 -4.2164)
(7.52849 2.19112e-18 -4.34571)
(7.74146 0 -4.46937)
(8.02191 1.90264e-18 -4.62983)
(8.16851 0 -4.71622)
(8.56392 -4.26012e-24 -4.94201)
(29.3408 1.48918e-20 -9.73941)
(30.1177 -1.11125e-21 -9.23326)
(29.4171 -6.9613e-20 -9.67466)
(27.6958 7.21829e-20 -10.2201)
(25.5623 7.2247e-20 -10.4672)
(23.4237 1.61934e-19 -10.3853)
(21.4778 0 -10.0849)
(19.7864 0 -9.67566)
(18.3387 0 -9.23047)
(17.0989 7.26103e-20 -8.78974)
(16.0295 0 -8.37263)
(15.0989 0 -7.98591)
(14.2814 0 -7.63031)
(13.5573 0 -7.30404)
(12.9109 0 -7.00448)
(12.3298 1.12089e-19 -6.72892)
(11.8041 -1.07328e-19 -6.4748)
(11.3259 0 -6.23983)
(10.8886 0 -6.02196)
(10.487 1.8848e-19 -5.81941)
(10.1165 -1.80203e-19 -5.63061)
(9.77358 1.7258e-19 -5.45419)
(9.45501 -1.65016e-19 -5.28897)
(9.15818 -1.57984e-19 -5.13389)
(8.88085 1.51063e-19 -4.98803)
(8.62107 -1.4452e-19 -4.8506)
(8.37718 0 -4.72088)
(8.14773 1.32243e-19 -4.59825)
(7.93145 0 -4.48214)
(7.72722 -2.42018e-19 -4.37206)
(7.53407 0 -4.26756)
(7.35113 0 -4.16825)
(7.17764 0 -4.07378)
(7.0129 2.02252e-19 -3.98381)
(6.85632 1.93385e-19 -3.89806)
(6.70733 0 -3.81627)
(6.56544 0 -3.7382)
(6.4302 -3.37667e-19 -3.66363)
(6.30121 0 -3.59236)
(6.17809 -4.37528e-23 -3.52421)
(6.06051 2.94486e-19 -3.45901)
(5.94815 0 -3.39661)
(5.84074 0 -3.33687)
(5.73804 0 -3.27966)
(5.63981 0 -3.22488)
(5.54585 4.67512e-19 -3.17242)
(5.45598 0 -3.12218)
(5.37003 -4.25792e-19 -3.07409)
(5.28784 -4.06274e-19 -3.02806)
(5.2093 0 -2.98404)
(5.13425 0 -2.94194)
(5.06263 0 -2.90174)
(4.99428 -3.35961e-19 -2.86335)
(4.92916 3.20181e-19 -2.82676)
(4.86717 6.10191e-19 -2.7919)
(4.80825 0 -2.75876)
(4.75236 5.53654e-19 -2.72732)
(4.69943 1.05441e-18 -2.69754)
(4.64954 0 -2.66944)
(4.60252 9.55274e-19 -2.64305)
(4.55836 0 -2.61826)
(4.51715 4.32254e-19 -2.59512)
(4.47891 8.22074e-19 -2.57366)
(4.4437 0 -2.55392)
(4.41158 7.42729e-19 -2.53594)
(4.38263 7.05601e-19 -2.51976)
(4.35697 0 -2.50547)
(4.33474 0 -2.49316)
(4.31614 0 -2.48292)
(4.30137 -5.72947e-19 -2.47491)
(4.29071 -5.43393e-19 -2.46928)
(4.28452 0 -2.46625)
(4.28321 9.76404e-19 -2.46607)
(4.28725 9.24852e-19 -2.469)
(4.29729 0 -2.47545)
(4.31421 0 -2.48593)
(4.33877 7.83583e-19 -2.50085)
(4.37168 6.37502e-24 -2.52063)
(4.41419 0 -2.54608)
(4.46843 0 -2.57847)
(4.53632 0 -2.6188)
(4.61782 0 -2.66678)
(4.71033 7.0161e-23 -2.72074)
(4.81009 -1.03792e-18 -2.77847)
(4.91404 0 -2.83836)
(5.02083 0 -2.89981)
(5.13056 0 -2.96299)
(5.24387 -8.12334e-19 -3.0283)
(5.36136 0 -3.09607)
(5.48332 -1.43522e-18 -3.16642)
(5.60981 1.34828e-18 -3.23938)
(5.74084 -1.26628e-18 -3.31494)
(5.87642 1.18886e-18 -3.39313)
(6.01666 -2.23174e-18 -3.474)
(6.16174 1.04703e-18 -3.55766)
(6.3119 -9.82153e-19 -3.64427)
(6.46743 0 -3.73398)
(6.6286 0 -3.82696)
(6.79574 1.6182e-18 -3.92337)
(6.96905 1.51597e-18 -4.02336)
(7.14889 1.41972e-18 -4.12712)
(7.33537 -3.04513e-24 -4.23473)
(7.52896 0 -4.34645)
(7.7296 0 -4.46225)
(7.93802 1.08859e-18 -4.58254)
(8.15377 0 -4.70706)
(8.37813 1.90282e-18 -4.83656)
(8.60986 0 -4.97032)
(8.85137 1.48468e-23 -5.10972)
(9.09977 0 -5.25313)
(9.35991 1.44828e-18 -5.40326)
(9.62528 -1.35175e-18 -5.55649)
(9.90567 -1.26132e-18 -5.71831)
(10.1888 1.43333e-23 -5.88175)
(10.4875 0 -6.05438)
(10.799 -2.04622e-18 -6.23347)
(11.0901 -1.90689e-18 -6.40302)
(11.4799 -1.77662e-18 -6.62495)
(11.6755 0 -6.74158)
(12.2241 -8.96951e-24 -7.0529)
(29.4578 0 -10.9113)
(30.5138 1.07549e-22 -10.3083)
(30.9023 0 -10.4274)
(30.5084 -6.82456e-20 -10.9126)
(29.4848 -1.46428e-19 -11.3792)
(28.0721 -7.49017e-20 -11.6397)
(26.5024 0 -11.6677)
(24.9384 0 -11.5108)
(23.4657 6.9267e-20 -11.2327)
(22.117 6.71677e-20 -10.8869)
(20.8973 -6.48276e-20 -10.5117)
(19.7989 -1.24777e-19 -10.1313)
(18.8096 -1.19866e-19 -9.75925)
(17.9162 0 -9.40262)
(17.1068 0 -9.06431)
(16.3707 -2.1165e-19 -8.74515)
(15.6984 2.22351e-22 -8.44488)
(15.0822 0 -8.1627)
(14.5153 9.28392e-20 -7.89755)
(13.9918 1.77756e-19 -7.64829)
(13.507 1.70337e-19 -7.41378)
(13.0565 0 -7.1929)
(12.6369 1.55968e-19 -6.98462)
(12.2448 -1.49117e-19 -6.78798)
(11.8778 -1.42765e-19 -6.60209)
(11.5333 7.79015e-23 -6.42616)
(11.2094 0 -6.25944)
(10.9042 -5.67119e-23 -6.10129)
(10.6162 0 -5.95109)
(10.344 -2.2849e-19 -5.8083)
(10.0863 0 -5.67242)
(9.84206 0 -5.543)
(9.61027 0 -5.41964)
(9.39005 -1.91011e-19 -5.30196)
(9.18062 0 -5.18962)
(8.98125 0 -5.0823)
(8.79132 0 -4.97974)
(8.61023 0 -4.88165)
(8.43746 3.04465e-19 -4.7878)
(8.27251 -5.81775e-19 -4.69797)
(8.11495 0 -4.61195)
(7.96436 -2.65349e-19 -4.52955)
(7.82039 0 -4.45061)
(7.6827 0 -4.37496)
(7.551 0 -4.30248)
(7.42501 -4.9751e-23 -4.23303)
(7.30448 0 -4.16649)
(7.1892 4.01463e-19 -4.10275)
(7.07895 0 -4.04172)
(6.97359 0 -3.98333)
(6.87288 3.4827e-19 -3.92745)
(6.77677 0 -3.87408)
(6.68504 0 -3.82309)
(6.59762 -2.32072e-23 -3.77446)
(6.5144 -5.74712e-19 -3.72814)
(6.43527 0 -3.68407)
(6.3602 -3.55238e-23 -3.64224)
(6.28909 -9.92543e-19 -3.6026)
(6.22202 0 -3.56517)
(6.15876 -4.49474e-19 -3.53004)
(6.09937 0 -3.49701)
(6.04389 -4.06635e-19 -3.46617)
(5.99237 -7.73215e-19 -3.43756)
(5.94489 0 -3.41121)
(5.90152 -6.98265e-19 -3.3872)
(5.86237 -3.26198e-23 -3.36559)
(5.8276 0 -3.34647)
(5.79741 0 -3.32998)
(5.77202 0 -3.31626)
(5.75174 1.07639e-18 -3.30548)
(5.73693 1.8675e-23 -3.29788)
(5.72807 0 -3.29375)
(5.72569 -9.16642e-19 -3.29339)
(5.73043 -1.73624e-18 -3.2972)
(5.74318 0 -3.30573)
(5.76507 0 -3.31961)
(5.7971 0 -3.33941)
(5.84027 6.16211e-24 -3.36573)
(5.89629 0 -3.39967)
(5.96783 0 -3.44284)
(6.05711 0 -3.49631)
(6.16377 0 -3.55948)
(6.28442 -1.03388e-18 -3.63007)
(6.41433 -9.72663e-19 -3.70531)
(6.54974 0 -3.78331)
(6.68905 0 -3.86344)
(6.83238 0 -3.94594)
(6.9805 -2.46121e-23 -4.03131)
(7.13411 0 -4.1199)
(7.29352 1.34356e-18 -4.21186)
(7.45881 0 -4.30718)
(7.62992 1.18507e-18 -4.40585)
(7.80686 0 -4.50787)
(7.98972 1.04403e-18 -4.61329)
(8.17871 0 -4.72227)
(8.3741 0 -4.83494)
(8.57623 0 -4.95153)
(8.78541 0 -5.07219)
(9.00201 -1.51309e-18 -5.19714)
(9.22626 0 -5.32651)
(9.45855 -1.32721e-18 -5.46054)
(9.69898 -1.24243e-18 -5.59928)
(9.94809 0 -5.74304)
(10.2057 0 -5.89171)
(10.4727 0 -6.04582)
(10.7484 0 -6.20494)
(11.0344 -1.42249e-23 -6.37002)
(11.3288 0 -6.53999)
(11.635 3.10337e-18 -6.71671)
(11.9485 0 -6.89772)
(12.2763 -2.70548e-18 -7.08686)
(12.6087 1.2625e-18 -7.2788)
(12.9593 1.17796e-18 -7.48116)
(13.3112 1.09882e-18 -7.68422)
(13.6808 0 -7.89797)
(14.0661 0 -8.11904)
(14.4193 3.56092e-18 -8.32574)
(14.9011 -1.6587e-18 -8.59847)
(15.1311 -1.54509e-18 -8.73767)
(15.804 1.43569e-18 -9.11683)
(29.5317 0 -11.7397)
(30.3736 -4.54559e-20 -11.2239)
(31.0542 0 -11.1121)
(31.3812 0 -11.3784)
(31.2453 0 -11.8196)
(30.6694 0 -12.2358)
(29.7705 0 -12.5149)
(28.6823 -6.46063e-20 -12.6277)
(27.5111 -6.53775e-20 -12.5907)
(26.3285 -1.25615e-19 -12.438)
(25.1779 1.2154e-19 -12.2046)
(24.0822 1.17771e-19 -11.9207)
(23.052 1.13136e-19 -11.6087)
(22.0901 0 -11.2847)
(21.1951 0 -10.9591)
(20.3635 1.99127e-19 -10.6383)
(19.5908 1.90822e-19 -10.3261)
(18.8723 0 -10.0246)
(18.2034 -8.76217e-20 -9.73502)
(17.5797 -1.67762e-19 -9.45781)
(16.9971 0 -9.19299)
(16.452 -1.53483e-19 -8.94034)
(15.9411 0 -8.69947)
(15.4614 1.32908e-22 -8.46991)
(15.0101 1.34514e-19 -8.25113)
(14.5851 9.31157e-23 -8.04258)
(14.184 0 -7.84373)
(13.8051 -1.17832e-19 -7.65404)
(13.4465 2.25273e-19 -7.47303)
(13.1068 4.30976e-19 -7.30019)
(12.7846 2.06014e-19 -7.13509)
(12.4787 0 -6.97729)
(12.1879 1.88323e-19 -6.82642)
(11.9112 0 -6.68208)
(11.6478 0 -6.54395)
(11.3967 0 -6.41171)
(11.1573 0 -6.28504)
(10.9288 0 -6.16369)
(10.7107 -5.78885e-23 -6.04738)
(10.5022 2.74141e-19 -5.93587)
(10.303 0 -5.82895)
(10.1125 5.00041e-19 -5.72639)
(9.93029 0 -5.62802)
(9.75593 0 -5.53366)
(9.58909 0 -5.44316)
(9.42941 -4.15248e-19 -5.35635)
(9.27661 0 -5.27311)
(9.13041 0 -5.19332)
(8.99053 0 -5.11685)
(8.85681 0 -5.04364)
(8.72896 -6.55609e-19 -4.97354)
(8.6069 0 -4.90654)
(8.49038 0 -4.84249)
(8.37928 -2.83764e-19 -4.78137)
(8.27348 0 -4.72311)
(8.17286 0 -4.66767)
(8.07734 -9.8043e-19 -4.615)
(7.98683 4.66652e-19 -4.56508)
(7.90141 0 -4.51788)
(7.82079 0 -4.47357)
(7.74506 0 -4.43189)
(7.67427 3.82098e-19 -4.39295)
(7.60847 0 -4.3568)
(7.54773 0 -4.32348)
(7.49218 1.31176e-18 -4.29308)
(7.44194 -1.24582e-18 -4.26569)
(7.39721 0 -4.24144)
(7.35822 0 -4.22046)
(7.32527 0 -4.20297)
(7.29874 -5.05121e-19 -4.18917)
(7.27907 4.78901e-19 -4.17936)
(7.26686 9.07692e-19 -4.17389)
(7.26278 8.59908e-19 -4.17318)
(7.26764 8.1425e-19 -4.17771)
(7.28254 -7.70631e-19 -4.18817)
(7.30885 0 -4.20536)
(7.34786 0 -4.22997)
(7.40085 -6.5115e-19 -4.26279)
(7.46996 0 -4.30524)
(7.55833 0 -4.3592)
(7.66839 0 -4.42575)
(7.7995 0 -4.50389)
(7.94751 0 -4.59078)
(8.10681 1.82187e-18 -4.68316)
(8.27304 0 -4.77891)
(8.44431 8.05616e-19 -4.87739)
(8.62071 0 -4.9789)
(8.8031 -2.44982e-23 -5.08401)
(8.99223 -1.33828e-18 -5.19309)
(9.18845 0 -5.30628)
(9.39177 0 -5.42353)
(9.60211 0 -5.5448)
(9.8194 0 -5.67006)
(10.0437 -9.7648e-19 -5.79935)
(10.2752 0 -5.9328)
(10.5141 0 -6.07056)
(10.7608 0 -6.21286)
(11.0157 0 -6.35985)
(11.279 0 -6.51175)
(11.551 0 -6.66867)
(11.8321 0 -6.83086)
(12.1223 0 -6.99829)
(12.4221 1.08643e-18 -7.17133)
(12.7312 0 -7.34972)
(13.0507 0 -7.53409)
(13.3792 0 -7.72372)
(13.7191 -1.66073e-18 -7.91986)
(14.0672 0 -8.12084)
(14.4282 -1.44929e-18 -8.32917)
(14.7955 0 -8.54125)
(15.1786 1.58036e-23 -8.76228)
(15.5637 0 -8.98476)
(15.9694 -1.09994e-18 -9.21884)
(16.3726 0 -9.45148)
(16.794 0 -9.69546)
(17.232 0 -9.94609)
(17.6253 -1.66224e-18 -10.1776)
(18.1698 3.09699e-18 -10.4836)
(18.4171 2.88478e-18 -10.6361)
(19.1659 1.34014e-18 -11.0547)
(29.6191 0 -12.3408)
(30.2276 4.42098e-20 -11.9491)
(30.832 0 -11.7478)
(31.3588 0 -11.8186)
(31.671 5.35794e-20 -12.1132)
(31.6825 5.62405e-20 -12.5059)
(31.3946 -5.78738e-20 -12.8805)
(30.8618 1.77811e-19 -13.167)
(30.1535 0 -13.3374)
(29.3325 1.43251e-21 -13.392)
(28.4488 -5.68867e-20 -13.3461)
(27.5392 0 -13.2203)
(26.6296 0 -13.0349)
(25.7371 0 -12.8077)
(24.8723 0 -12.5532)
(24.0415 -4.93388e-22 -12.2824)
(23.2478 -3.82091e-22 -12.0033)
(22.4926 -8.57342e-20 -11.7214)
(21.7756 -8.2171e-20 -11.4408)
(21.096 0 -11.1642)
(20.4522 1.50799e-19 -10.8935)
(19.8425 1.4464e-19 -10.6299)
(19.2651 0 -10.3742)
(18.718 1.66715e-22 -10.1268)
(18.1994 -1.38029e-22 -9.88808)
(17.7075 1.21261e-19 -9.65794)
(17.2406 0 -9.43636)
(16.7972 0 -9.22319)
(16.3756 -2.12226e-19 -9.01821)
(15.9746 -1.16638e-22 -8.82119)
(15.5928 -3.88019e-19 -8.63186)
(15.2291 0 -8.44995)
(14.8824 -3.54671e-19 -8.27518)
(14.5517 0 -8.10727)
(14.2361 0 -7.94596)
(13.9346 1.54814e-19 -7.79098)
(13.6466 0 -7.64207)
(13.3712 2.82686e-19 -7.49898)
(13.1079 -6.51542e-23 -7.36148)
(12.856 -2.57951e-19 -7.22935)
(12.6149 0 -7.10238)
(12.3841 -4.52077e-23 -6.98035)
(12.1631 0 -6.86308)
(11.9515 0 -6.75041)
(11.7487 0 -6.64217)
(11.5546 0 -6.5382)
(11.3686 0 -6.43839)
(11.1905 -3.55449e-19 -6.34258)
(11.0201 0 -6.25067)
(10.857 0 -6.16257)
(10.701 3.08204e-19 -6.07814)
(10.552 0 -5.99736)
(10.4096 2.79901e-19 -5.92006)
(10.2738 2.66664e-19 -5.84625)
(10.1444 -5.07989e-19 -5.77582)
(10.0213 0 -5.70875)
(9.90433 4.60565e-19 -5.64498)
(9.79342 4.38319e-19 -5.58451)
(9.68866 0 -5.52724)
(9.5897 0 -5.47346)
(9.49669 0 -5.42285)
(9.40964 -3.5876e-19 -5.37551)
(9.32864 0 -5.33152)
(9.25376 0 -5.29093)
(9.18514 -6.15543e-19 -5.25385)
(9.12294 1.169e-18 -5.22039)
(9.06738 0 -5.1907)
(9.01876 0 -5.16495)
(8.97742 0 -5.14339)
(8.9438 0 -5.12629)
(8.91845 4.49039e-19 -5.11398)
(8.90207 -8.51045e-19 -5.10692)
(8.89547 0 -5.10557)
(8.89959 0 -5.11054)
(8.91577 7.2223e-19 -5.12266)
(8.9456 0 -5.14286)
(8.99062 6.45712e-19 -5.17197)
(9.0524 -6.10007e-19 -5.21097)
(9.13346 0 -5.26157)
(9.23734 0 -5.32587)
(9.36662 0 -5.40488)
(9.5204 0 -5.49722)
(9.69392 0 -5.59949)
(9.88084 -8.52709e-19 -5.70807)
(10.0762 0 -5.82064)
(10.2778 -1.50786e-18 -5.93653)
(10.4857 0 -6.05613)
(10.7007 -2.44164e-23 -6.18002)
(10.9235 -4.08e-23 -6.30855)
(11.1546 0 -6.44184)
(11.3938 -1.10442e-18 -6.57982)
(11.6411 0 -6.72236)
(11.8962 0 -6.86939)
(12.1591 1.82599e-18 -7.0209)
(12.4299 0 -7.17699)
(12.7088 0 -7.33778)
(12.9961 0 -7.50346)
(13.2921 0 -7.67416)
(13.5971 0 -7.85006)
(13.9111 0 -8.03123)
(14.2346 0 -8.21787)
(14.5674 0 -8.40987)
(14.91 -1.01499e-18 -8.60758)
(15.2617 0 -8.81055)
(15.6237 0 -9.01949)
(15.9942 0 -9.23333)
(16.3758 1.55108e-18 -9.45356)
(16.7642 1.44909e-18 -9.67781)
(17.1654 1.35342e-18 -9.90932)
(17.5701 -1.2637e-18 -10.143)
(17.9909 1.61303e-23 -10.3858)
(18.4092 1.10079e-18 -10.6275)
(18.8489 2.05397e-18 -10.8811)
(19.2799 0 -11.1298)
(19.7284 -1.78619e-18 -11.3897)
(20.1904 -1.66526e-18 -11.6532)
(20.5979 0 -11.8948)
(21.1646 -1.44549e-18 -12.2104)
(21.4126 -1.34641e-18 -12.3669)
(22.1741 -1.25082e-18 -12.7883)
(29.7019 0 -12.8005)
(30.1553 -2.11773e-20 -12.5114)
(30.6141 0 -12.3076)
(31.0965 0 -12.2663)
(31.5277 -5.04628e-20 -12.4094)
(31.8142 -5.29655e-20 -12.6906)
(31.905 5.44995e-20 -13.0341)
(31.7962 -1.62813e-19 -13.3707)
(31.5111 0 -13.653)
(31.0829 -5.07168e-20 -13.8564)
(30.5453 1.02662e-19 -13.9741)
(29.9289 0 -14.0105)
(29.2595 -9.71009e-20 -13.9759)
(28.5576 0 -13.8825)
(27.8393 -9.04852e-20 -13.7423)
(27.1168 -8.77068e-20 -13.5663)
(26.3993 -8.41607e-20 -13.364)
(25.6934 8.07026e-20 -13.1431)
(25.0038 1.54387e-19 -12.9096)
(24.3338 0 -12.6683)
(23.6855 -1.41938e-19 -12.4228)
(23.06 0 -12.1761)
(22.458 0 -11.9302)
(21.8797 1.24516e-19 -11.6869)
(21.3246 -2.38136e-19 -11.4473)
(20.7924 0 -11.2125)
(20.2823 0 -10.983)
(19.7937 0 -10.7594)
(19.3258 1.99395e-19 -10.5418)
(18.8776 -1.90847e-19 -10.3306)
(18.4484 1.21493e-22 -10.1258)
(18.0374 -1.7437e-19 -9.92746)
(17.6436 3.33496e-19 -9.73551)
(17.2663 -1.59354e-19 -9.54991)
(16.9048 1.52308e-19 -9.37055)
(16.5584 -5.68443e-23 -9.19733)
(16.2263 0 -9.03009)
(15.9079 -2.65847e-19 -8.8687)
(15.6027 -2.53948e-19 -8.71301)
(15.3099 2.42548e-19 -8.56285)
(15.0291 0 -8.41808)
(14.7598 -2.21161e-19 -8.27853)
(14.5014 -2.11091e-19 -8.14407)
(14.2535 -2.01492e-19 -8.01454)
(14.0158 -1.92296e-19 -7.88982)
(13.7877 0 -7.76977)
(13.569 0 -7.65429)
(13.3594 5.11904e-23 -7.54324)
(13.1584 0 -7.43653)
(12.966 0 -7.33408)
(12.7817 2.8944e-19 -7.23574)
(12.6054 -2.75849e-19 -7.14153)
(12.4369 -2.62868e-19 -7.05126)
(12.2761 -2.7612e-23 -6.96497)
(12.1226 5.01241e-23 -6.88252)
(11.9765 0 -6.80392)
(11.8375 0 -6.7291)
(11.7056 -8.22791e-19 -6.65807)
(11.5809 0 -6.59077)
(11.463 0 -6.52741)
(11.352 3.54003e-19 -6.46777)
(11.2481 0 -6.41193)
(11.1512 0 -6.35996)
(11.0614 -6.07712e-19 -6.31195)
(10.979 5.77196e-19 -6.26801)
(10.9041 -1.09612e-18 -6.22829)
(10.837 0 -6.19294)
(10.7779 4.93589e-19 -6.1622)
(10.7274 0 -6.13633)
(10.6858 0 -6.11564)
(10.6539 -8.41589e-19 -6.10056)
(10.6324 0 -6.09157)
(10.6223 0 -6.08923)
(10.6246 0 -6.09426)
(10.6408 0 -6.1076)
(10.6729 0 -6.13032)
(10.7224 -6.04661e-19 -6.16336)
(10.7913 -2.16242e-24 -6.20789)
(10.8824 5.39148e-19 -6.26585)
(10.9995 -5.08503e-19 -6.33952)
(11.1454 0 -6.42977)
(11.3188 0 -6.53485)
(11.5148 0 -6.65093)
(11.7263 0 -6.77405)
(11.9479 0 -6.90178)
(12.1769 -3.70631e-23 -7.03346)
(12.4133 0 -7.16945)
(12.6577 6.23065e-19 -7.31033)
(12.9109 -4.05917e-23 -7.45643)
(13.1733 0 -7.60781)
(13.4447 1.0326e-18 -7.76434)
(13.7248 0 -7.92582)
(14.0134 -9.09658e-19 -8.09211)
(14.3102 1.31823e-23 -8.26311)
(14.6151 0 -8.43883)
(14.9283 0 -8.61933)
(15.2499 0 -8.80472)
(15.58 0 -8.99508)
(15.9188 -1.23502e-18 -9.19052)
(16.2664 0 -9.39099)
(16.6229 0 -9.59668)
(16.9879 -1.01333e-18 -9.80728)
(17.362 0 -10.0231)
(17.7438 8.86742e-19 -10.2435)
(18.1349 -8.29123e-19 -10.4692)
(18.5324 0 -10.6987)
(18.9398 -2.89694e-18 -10.9337)
(19.3508 -1.59495e-23 -11.1711)
(19.7734 -2.52752e-18 -11.4149)
(20.1948 1.17993e-18 -11.6583)
(20.6314 1.10137e-18 -11.9101)
(21.0586 -1.02773e-18 -12.157)
(21.507 -9.58774e-19 -12.4156)
(21.9381 -8.94213e-19 -12.6642)
(22.3853 1.66744e-18 -12.9239)
(22.8381 1.55449e-18 -13.1808)
(23.2328 1.44844e-18 -13.4171)
(23.7752 1.3492e-18 -13.7153)
(24.0094 0 -13.8674)
(24.7159 0 -14.2528)
(29.7698 0 -13.1742)
(30.1256 -2.12396e-20 -12.9564)
(30.4706 0 -12.7796)
(30.8545 0 -12.693)
(31.2548 0 -12.7317)
(31.6079 0 -12.895)
(31.8607 -4.69442e-20 -13.1496)
(31.987 4.96001e-20 -13.4489)
(31.9823 -4.78454e-20 -13.7493)
(31.8549 9.83693e-20 -14.0178)
(31.6193 -9.65553e-20 -14.2343)
(31.2925 0 -14.3898)
(30.8916 9.13177e-20 -14.4831)
(30.4319 0 -14.5183)
(29.927 8.50905e-20 -14.5014)
(29.3885 8.10892e-20 -14.4395)
(28.8262 0 -14.3398)
(28.2487 0 -14.2092)
(27.6627 -7.24391e-20 -14.0538)
(27.0742 0 -13.8792)
(26.4878 0 -13.6897)
(25.9073 1.27075e-19 -13.4892)
(25.3357 0 -13.2808)
(24.7753 0 -13.0672)
(24.2277 1.11853e-19 -12.8505)
(23.6943 0 -12.6325)
(23.1757 0 -12.4147)
(22.6727 0 -12.1983)
(22.1854 -3.74632e-19 -11.9842)
(21.714 0 -11.7732)
(21.2584 1.50211e-22 -11.5659)
(20.8184 1.27383e-22 -11.3626)
(20.3939 -1.56663e-19 -11.1639)
(19.9844 1.49748e-19 -10.9699)
(19.5896 -2.86158e-19 -10.7808)
(19.2092 -1.36765e-19 -10.5967)
(18.8428 0 -10.4178)
(18.4899 0 -10.244)
(18.1501 -2.38407e-19 -10.0753)
(17.8229 2.27702e-19 -9.91185)
(17.5081 0 -9.75346)
(17.2052 0 -9.60012)
(16.9137 5.23619e-23 -9.45176)
(16.6334 1.8922e-19 -9.30832)
(16.3638 1.8057e-19 -9.16974)
(16.1047 3.44498e-19 -9.03594)
(15.8556 0 -8.90684)
(15.6164 5.75035e-23 -8.78238)
(15.3867 0 -8.66247)
(15.1664 0 -8.54709)
(14.955 -2.71651e-19 -8.43611)
(14.7526 2.58871e-19 -8.32957)
(14.5588 0 -8.22729)
(14.3735 -2.34927e-19 -8.12934)
(14.1965 5.47265e-23 -8.03561)
(14.0277 0 -7.94609)
(13.867 0 -7.86077)
(13.7143 7.71623e-19 -7.77964)
(13.5697 0 -7.70258)
(13.4328 0 -7.63004)
(13.3038 -6.63805e-19 -7.56163)
(13.1827 0 -7.49747)
(13.0696 0 -7.43766)
(12.9647 1.13918e-18 -7.38231)
(12.8681 -5.40954e-19 -7.33156)
(12.78 5.13573e-19 -7.28555)
(12.7007 0 -7.2445)
(12.6306 -4.62446e-19 -7.20866)
(12.5702 0 -7.17832)
(12.5199 4.15807e-19 -7.15385)
(12.4806 3.94103e-19 -7.13572)
(12.453 0 -7.12449)
(12.4382 0 -7.12078)
(12.4374 -6.69317e-19 -7.12538)
(12.4523 -6.33256e-19 -7.13938)
(12.4848 0 -7.16392)
(12.5369 0 -7.20006)
(12.6107 1.06908e-18 -7.24911)
(12.7091 -5.04527e-19 -7.31322)
(12.8361 9.51619e-19 -7.39472)
(12.9946 0 -7.49435)
(13.1835 0 -7.61001)
(13.3974 0 -7.73752)
(13.629 0 -7.87275)
(13.8723 0 -8.01318)
(14.1244 -3.68763e-23 -8.15811)
(14.3846 0 -8.30791)
(14.6537 0 -8.46308)
(14.9323 -4.02746e-23 -8.62388)
(15.2207 0 -8.79029)
(15.5186 9.65248e-19 -8.96213)
(15.8256 0 -9.1391)
(16.1412 8.50135e-19 -9.32096)
(16.4649 1.31509e-23 -9.50747)
(16.7966 0 -9.69853)
(17.1359 0 -9.89406)
(17.483 0 -10.0941)
(17.8376 0 -10.2986)
(18.2 -1.15151e-24 -10.5075)
(18.5697 -1.08034e-18 -10.7207)
(18.9469 1.01133e-18 -10.9383)
(19.3308 9.4644e-19 -11.1598)
(19.7219 0 -11.3855)
(20.1183 -8.28111e-19 -11.6143)
(20.5217 7.7426e-19 -11.8471)
(20.9282 0 -12.0817)
(21.3421 1.35249e-18 -12.3205)
(21.755 -2.52685e-18 -12.559)
(22.177 1.17991e-18 -12.8024)
(22.5915 0 -13.0419)
(23.0194 -1.02818e-18 -13.2885)
(23.4294 0 -13.5256)
(23.8593 0 -13.7735)
(24.2616 8.34725e-19 -14.0052)
(24.6793 0 -14.2484)
(25.0891 0 -14.4794)
(25.447 -1.35195e-18 -14.6964)
(25.9206 -1.25929e-18 -14.9518)
(26.1295 -1.17297e-18 -15.0922)
(26.7231 1.08962e-18 -15.4091)
(29.8248 0 -13.4904)
(30.1142 1.99597e-20 -13.3204)
(30.3824 4.08993e-20 -13.1733)
(30.6811 0 -13.0764)
(31.0134 0 -13.059)
(31.3428 0 -13.1345)
(31.6301 4.41175e-20 -13.2962)
(31.8489 0 -13.5219)
(31.9853 4.49614e-20 -13.782)
(32.0352 0 -14.0479)
(32.0008 0 -14.2964)
(31.8885 -8.4335e-20 -14.5116)
(31.7069 0 -14.6849)
(31.4646 -8.02823e-20 -14.8128)
(31.17 7.7849e-20 -14.8957)
(30.8307 -7.61818e-20 -14.936)
(30.4536 0 -14.9371)
(30.0452 6.99098e-20 -14.9032)
(29.6112 0 -14.8385)
(29.1571 1.29142e-19 -14.7473)
(28.6877 0 -14.6336)
(28.2075 -1.19363e-19 -14.5011)
(27.7204 1.13949e-19 -14.3531)