/*--------------------------------*- C++ -*----------------------------------*\
| =========                 |                                                 |
| \\      /  F ield         | OpenFOAM: The Open Source CFD Toolbox           |
|  \\    /   O peration     | Version:  2412                                  |
|   \\  /    A nd           | Website:  www.openfoam.com                      |
|    \\/     M anipulation  |                                                 |
\*---------------------------------------------------------------------------*/
FoamFile
{
    version     2.0;
    format      ascii;
    arch        "LSB;label=32;scalar=64";
    class       surfaceScalarField;
    location    "0.44";
    object      phi;
}
// * * * * * * * * * * * * * * * * * * * * * * * * * * * * * * * * * * * * * //

dimensions      [0 3 -1 0 0 0 0];

oriented        oriented;

internalField   nonuniform List<scalar> 
24930
(
0.0179623
0.0127468
-0.0307093
0.0106032
0.00735907
0.0069548
0.00364839
0.00517959
0.00177521
0.00420786
0.000971726
0.00358511
0.000622753
0.00313928
0.00044583
0.00279979
0.000339481
0.00253063
0.000269172
0.00231071
0.000219921
0.0021269
0.000183821
0.00197046
0.000156446
0.00183535
0.000135117
0.00171721
0.000118132
0.00161286
0.000104357
0.00151985
9.30096e-05
0.00143631
8.35364e-05
0.00136078
7.55343e-05
0.00129208
6.87039e-05
0.00122926
6.28186e-05
0.00117155
5.77051e-05
0.00111832
5.323e-05
0.00106902
4.9289e-05
0.00102322
4.57983e-05
0.000980526
4.26906e-05
0.000940614
3.99098e-05
0.000903203
3.74103e-05
0.00086805
3.51536e-05
0.000834943
3.31078e-05
0.000803698
3.12468e-05
0.000774152
2.95487e-05
0.000746159
2.79943e-05
0.000719592
2.65683e-05
0.000694335
2.52568e-05
0.000670287
2.40483e-05
0.000647356
2.29318e-05
0.000625461
2.1898e-05
0.000604524
2.09387e-05
0.000584477
2.00472e-05
0.000565258
1.92175e-05
0.000546807
1.84457e-05
0.000529076
1.77268e-05
0.000512014
1.70571e-05
0.000495579
1.64327e-05
0.000479729
1.58497e-05
0.000464425
1.53035e-05
0.00044963
1.47931e-05
0.000435312
1.43151e-05
0.000421441
1.38686e-05
0.000407988
1.34521e-05
0.000394926
1.30644e-05
0.000382229
1.27029e-05
0.000369871
1.23652e-05
0.000357829
1.20509e-05
0.00034608
1.17552e-05
0.000334605
1.14805e-05
0.000323386
1.12222e-05
0.000312402
1.09854e-05
0.000301638
1.07636e-05
0.000291071
1.05658e-05
0.000280691
1.038e-05
0.000270475
1.02167e-05
0.000260415
1.0061e-05
0.000250491
9.92369e-06
0.000240695
9.79222e-06
0.000231007
9.68039e-06
0.000221421
9.57724e-06
0.00021192
9.49324e-06
0.000202497
9.41769e-06
0.000193139
9.35413e-06
0.00018384
9.29492e-06
0.00017459
9.24523e-06
0.000165384
9.19936e-06
0.000156206
9.17081e-06
0.000147066
9.13815e-06
0.000137926
9.14198e-06
0.000128832
9.09701e-06
0.000119701
9.13446e-06
0.00011066
9.04325e-06
0.000101538
9.12083e-06
9.25906e-05
8.94588e-06
8.3521e-05
9.06992e-06
7.47143e-05
8.80744e-06
6.57167e-05
8.99884e-06
5.6965e-05
8.75344e-06
4.80032e-05
8.96096e-06
3.92857e-05
8.71549e-06
3.04704e-05
8.8171e-06
2.18421e-05
8.624e-06
1.31923e-05
8.64356e-06
4.83606e-06
8.34949e-06
-3.70555e-06
8.5332e-06
-1.19667e-05
8.25861e-06
-2.07099e-05
8.74291e-06
-2.87373e-05
8.03194e-06
-3.82563e-05
9.52656e-06
-4.79793e-05
9.72422e-06
-5.72639e-05
9.28079e-06
-6.5031e-05
7.76162e-06
-7.32589e-05
8.22647e-06
-8.92524e-05
1.60037e-05
-0.000114486
2.52423e-05
-0.000157255
4.27738e-05
-0.000213393
5.6145e-05
-0.000268646
5.5253e-05
-0.000268155
-4.94815e-07
-0.000205274
-6.28784e-05
-9.44986e-05
-0.000110777
1.07724e-05
-0.000105266
8.17242e-05
-7.09404e-05
0.000109113
-2.73853e-05
0.000135895
-2.67737e-05
0.000146963
-1.10593e-05
0.000200249
-5.32913e-05
0.000257645
-5.73962e-05
0.000336776
-7.91354e-05
0.000455475
-0.000118702
0.00055437
-9.88931e-05
0.000731568
-0.000177199
-0.000192007
0.0336677
0.0163048
-0.0372257
0.0277381
0.0132887
0.0221912
0.00919528
0.017921
0.00604539
0.0148774
0.00401533
0.0127185
0.00278164
0.0111325
0.00203189
0.00991612
0.00155583
0.00894939
0.00123591
0.00815941
0.00100991
0.00749946
0.000843779
0.00693826
0.000717642
0.00645406
0.000619314
0.00603119
0.000540993
0.00565807
0.00047747
0.00532593
0.000425147
0.005028
0.000381471
0.00475895
0.000344586
0.00451454
0.000313113
0.00429134
0.000286013
0.00408655
0.000262486
0.00389786
0.000241913
0.00372334
0.000223807
0.00356137
0.000207776
0.00341056
0.000193506
0.00326973
0.000180741
0.00313788
0.000169269
0.00301412
0.000158917
0.00289769
0.000149539
0.00278792
0.000141015
0.00268423
0.000133241
0.00258609
0.000126131
0.00249304
0.000119611
0.00240468
0.000113617
0.00232063
0.000108094
0.00224056
0.000102995
0.00216418
9.82779e-05
0.00209122
9.39053e-05
0.00202142
8.9846e-05
0.00195457
8.60709e-05
0.00189046
8.25566e-05
0.00182891
7.92817e-05
0.00176974
7.62283e-05
0.00171279
7.33782e-05
0.00165793
7.07178e-05
0.001605
6.82297e-05
0.00155389
6.59043e-05
0.00150447
6.3728e-05
0.00145665
6.1694e-05
0.00141031
5.97923e-05
0.00136535
5.80162e-05
0.0013217
5.63578e-05
0.00127925
5.48077e-05
0.00123794
5.33636e-05
0.00119767
5.20132e-05
0.00115838
5.07612e-05
0.00112
4.95923e-05
0.00108247
4.85179e-05
0.00104572
4.75153e-05
0.00100968
4.66042e-05
0.000974305
4.57529e-05
0.000939532
4.49889e-05
0.000905318
4.4275e-05
0.000871601
4.36422e-05
0.000838345
4.30523e-05
0.000805493
4.25383e-05
0.000773012
4.20646e-05
0.000740853
4.16582e-05
0.000708982
4.12918e-05
0.000677362
4.09762e-05
0.000645962
4.06968e-05
0.000614756
4.04545e-05
0.000583715
4.02439e-05
0.000552808
4.00799e-05
0.000522024
3.9921e-05
0.000491304
3.98604e-05
0.000460704
3.96942e-05
0.000430092
3.97437e-05
0.00039968
3.94532e-05
0.000369193
3.96055e-05
0.000339091
3.90448e-05
0.000308856
3.93018e-05
0.000279205
3.84561e-05
0.000249237
3.89678e-05
0.000219818
3.81738e-05
0.000190003
3.87786e-05
0.000160846
3.78741e-05
0.000131513
3.81478e-05
0.000102792
3.73429e-05
7.40661e-05
3.73683e-05
4.62937e-05
3.61235e-05
1.80435e-05
3.67869e-05
-9.37287e-06
3.56777e-05
-3.80082e-05
3.73806e-05
-6.4651e-05
3.46736e-05
-9.59783e-05
4.08509e-05
-0.000126799
4.05444e-05
-0.000157248
3.97315e-05
-0.000181386
3.19037e-05
-0.000211483
3.83252e-05
-0.000262575
6.70911e-05
-0.00034664
0.000109303
-0.000476779
0.00017291
-0.000649631
0.000228994
-0.000795732
0.000201355
-0.000778647
-1.75748e-05
-0.000558411
-0.000283115
-0.00021838
-0.000450807
0.000110827
-0.000434478
0.000322548
-0.000282666
0.000419984
-0.000124821
0.00050079
-0.000107584
0.000560907
-7.11773e-05
0.000734915
-0.000227296
0.000931638
-0.000254118
0.00120623
-0.00035372
0.0015756
-0.000488069
0.0019281
-0.000451394
0.00247371
-0.000722805
-0.00079677
0.0414348
0.0159969
-0.0411268
0.0391502
0.0155732
0.0352264
0.0131191
0.0309458
0.010326
0.027036
0.00792513
0.023751
0.00606666
0.0210796
0.00470327
0.0189132
0.00372227
0.0171372
0.00301185
0.0156593
0.00248781
0.0144106
0.00209247
0.0133409
0.00178738
0.0124133
0.00154694
0.0116003
0.00135396
0.0108812
0.00119654
0.01024
0.00106634
0.00966421
0.000957293
0.00914383
0.000864973
0.00867089
0.000786048
0.00823891
0.000717987
0.00784256
0.000658836
0.0074774
0.000607067
0.00713973
0.000561472
0.00682643
0.000521081
0.00653483
0.00048511
0.00626265
0.000452922
0.00600793
0.00042399
0.00576897
0.000397878
0.00554429
0.000374223
0.00533258
0.00035272
0.00513271
0.000333113
0.00494366
0.00031518
0.00476453
0.000298737
0.00459452
0.000283621
0.00443291
0.000269695
0.00427907
0.000256837
0.0041324
0.000244943
0.00399239
0.000233921
0.00385855
0.00022369
0.00373044
0.000214178
0.00360767
0.000205324
0.00348988
0.000197073
0.00337673
0.000189379
0.00326791
0.000182197
0.00316314
0.00017549
0.00306216
0.00016922
0.0029647
0.000163358
0.00287055
0.000157873
0.0027795
0.000152745
0.00269134
0.00014795
0.00260589
0.000143467
0.00252297
0.00013928
0.00244241
0.000135366
0.00236406
0.000131716
0.00228776
0.000128307
0.00221337
0.000125143
0.00214076
0.000122192
0.00206981
0.000119471
0.00200038
0.000116937
0.00193237
0.000114619
0.00186566
0.000112462
0.00180014
0.00011051
0.00173571
0.000108698
0.00167228
0.000107075
0.00160976
0.000105576
0.00154805
0.000104251
0.00148708
0.000103039
0.00142676
0.000101981
0.00136702
0.000101031
0.0013078
0.000100203
0.00124903
9.94719e-05
0.00119066
9.88283e-05
0.00113263
9.82749e-05
0.0010749
9.78155e-05
0.00101742
9.74021e-05
0.000960117
9.71625e-05
0.000903036
9.67756e-05
0.000846036
9.67459e-05
0.000789354
9.61366e-05
0.000732692
9.62706e-05
0.000676614
9.5124e-05
0.000620499
9.5419e-05
0.000565259
9.36974e-05
0.000509677
9.4551e-05
0.000454938
9.29119e-05
0.000399721
9.39962e-05
0.000345634
9.19595e-05
0.000291351
9.24304e-05
0.000238236
9.04592e-05
0.000185167
9.04394e-05
0.000133881
8.74118e-05
8.17467e-05
8.89246e-05
3.12845e-05
8.61404e-05
-2.10172e-05
8.96815e-05
-6.99948e-05
8.3648e-05
-0.000127093
9.79454e-05
-0.000182189
9.56391e-05
-0.000237224
9.4765e-05
-0.00028046
7.51412e-05
-0.000338174
9.60375e-05
-0.000430183
0.000159098
-0.000582077
0.000261196
-0.000805479
0.00039631
-0.00109894
0.000522454
-0.00132061
0.000423019
-0.00126296
-7.52219e-05
-0.000850282
-0.000695793
-0.000257069
-0.00104402
0.000317413
-0.00100896
0.000678564
-0.000643815
0.000860958
-0.000307215
0.00100717
-0.000253795
0.0011423
-0.000206312
0.00146398
-0.000548977
0.00183355
-0.000623687
0.0023479
-0.000868068
0.0030039
-0.00114407
0.00366863
-0.00111612
0.00461977
-0.00167395
-0.00186388
0.0458962
0.0146954
-0.0445947
0.0459825
0.0154869
0.0444083
0.0146934
0.04169
0.0130442
0.0384521
0.0111631
0.0351526
0.00936609
0.032059
0.00779695
0.0292853
0.0064959
0.0268507
0.00544651
0.0247291
0.00460943
0.0228795
0.00394208
0.0212601
0.00340677
0.0198338
0.00297325
0.0185694
0.00261831
0.0174415
0.0023245
0.0164291
0.00207869
0.0155154
0.00187102
0.0146864
0.00169396
0.0139307
0.00154175
0.0132388
0.00140988
0.0126028
0.00129486
0.0120159
0.00119388
0.0114727
0.00110471
0.0109682
0.00102555
0.0104984
0.000954935
0.0100597
0.000891646
0.00964898
0.000834688
0.00926363
0.000783228
0.00890128
0.00073657
0.00855988
0.000694125
0.0082376
0.000655396
0.00793282
0.000619957
0.00764411
0.000587446
0.00737018
0.000557547
0.00710987
0.000529992
0.00686216
0.000504544
0.00662611
0.000480997
0.00640086
0.000459171
0.00618564
0.000438909
0.00597975
0.000420068
0.00578254
0.000402529
0.00559343
0.000386184
0.00541187
0.000370938
0.00523737
0.000356704
0.00506946
0.000343407
0.0049077
0.000330974
0.00475171
0.000319349
0.00460112
0.00030847
0.00445557
0.000298297
0.00431474
0.000288779
0.00417833
0.00027988
0.00404605
0.000271561
0.00391763
0.000263785
0.00379282
0.000256529
0.00367137
0.000249753
0.00355305
0.000243455
0.00343766
0.000237584
0.00332497
0.000232157
0.0032148
0.000227106
0.00310695
0.00022247
0.00300125
0.000218164
0.00289752
0.000214246
0.00279559
0.000210619
0.00269532
0.000207351
0.00259656
0.00020434
0.00249915
0.000201658
0.00240298
0.000199211
0.00230791
0.000197056
0.00221382
0.000195122
0.00212061
0.000193418
0.00202817
0.000191915
0.00193642
0.000190579
0.00184526
0.00018943
0.00175463
0.000188448
0.00166445
0.000187588
0.00157461
0.000186998
0.00148516
0.000186231
0.00139592
0.000185979
0.00130719
0.000184871
0.00121862
0.000184844
0.0011309
0.000182849
0.00104327
0.000183042
0.000956877
0.000180095
0.000870153
0.000181276
0.000784648
0.000178418
0.000698638
0.000180006
0.000614356
0.00017624
0.000529906
0.000176879
0.000447358
0.000173009
0.000364956
0.000172842
0.000285397
0.000166974
0.000204632
0.000169692
0.000126633
0.000164139
4.61247e-05
0.000170189
-2.93207e-05
0.00015909
-0.000116623
0.000185245
-0.000199524
0.000178539
-0.000282768
0.000178008
-0.000348472
0.000140847
-0.000439434
0.000186998
-0.000578578
0.000298242
-0.000805482
0.0004881
-0.00112655
0.000717376
-0.00153848
0.000934383
-0.00181656
0.000701096
-0.00168892
-0.000202857
-0.00104736
-0.00133736
-0.000175821
-0.00191555
0.000664189
-0.00184897
0.00118529
-0.00116491
0.00146797
-0.000589896
0.00169596
-0.000481784
0.00193357
-0.000443919
0.00243439
-0.0010498
0.00301286
-0.00120215
0.00381371
-0.00166892
0.00479752
-0.00212788
0.00583166
-0.00215026
0.0072248
-0.00306708
-0.00344247
0.0493626
0.0135
-0.0481672
0.0503282
0.0145213
0.0503493
0.0146722
0.0493314
0.0140621
0.0474918
0.0130027
0.0451226
0.0117353
0.0424952
0.0104244
0.0398156
0.00917544
0.0372186
0.00804357
0.0347784
0.00704961
0.0325273
0.00619317
0.0304713
0.00546281
0.028602
0.00484257
0.0269044
0.00431584
0.0253617
0.00386727
0.0239568
0.00348357
0.0226742
0.00315365
0.0214998
0.00286835
0.0204213
0.00262025
0.0194279
0.00240328
0.0185102
0.00221253
0.0176601
0.00204398
0.0168705
0.00189432
0.0161352
0.00176084
0.0154489
0.00164127
0.0148068
0.00153376
0.0142047
0.00143671
0.0136391
0.00134881
0.0131068
0.00126894
0.0126048
0.00119614
0.0121306
0.00112961
0.0116819
0.00106863
0.0112567
0.00101262
0.0108532
0.00096106
0.0104697
0.000913489
0.0101047
0.000869516
0.00975691
0.000828797
0.00942505
0.000791025
0.00910802
0.000755938
0.0088048
0.000723295
0.00851443
0.000692893
0.00823607
0.000664546
0.00796891
0.000638094
0.00771224
0.000613385
0.00746535
0.000590293
0.00722764
0.000568692
0.0069985
0.000548486
0.0067774
0.000529572
0.00656382
0.000511876
0.00635729
0.000495314
0.00615735
0.00047982
0.00596359
0.000465329
0.0057756
0.000451777
0.00559301
0.000439124
0.00541545
0.000427305
0.0052426
0.000416306
0.00507413
0.000406053
0.00490973
0.000396556
0.00474912
0.000387721
0.00459201
0.000379588
0.00443813
0.000372039
0.00428723
0.000365146
0.00413908
0.00035877
0.00399344
0.000353
0.00385009
0.000347691
0.00370881
0.000342932
0.00356943
0.000338597
0.00343173
0.000334749
0.00329556
0.000331295
0.00316075
0.000328231
0.00302714
0.00032552
0.00289463
0.000323098
0.00276305
0.000321007
0.00263231
0.000319189
0.00250229
0.000317608
0.00237286
0.000316422
0.00224406
0.000315038
0.00211568
0.000314359
0.00198805
0.000312493
0.00186079
0.000312105
0.00173473
0.000308915
0.00160895
0.000308821
0.00148483
0.000304212
0.00136044
0.000305667
0.00123776
0.000301099
0.00111461
0.000303155
0.000993952
0.000296902
0.000873212
0.000297618
0.000755323
0.000290898
0.000637746
0.00029042
0.000524349
0.000280372
0.000409389
0.000284653
0.0002987
0.000274828
0.000184752
0.000284137
7.80715e-05
0.000265769
-4.41619e-05
0.000307477
-0.000158711
0.000293087
-0.00027411
0.000293406
-0.000366049
0.000232787
-0.00049608
0.000317028
-0.000687946
0.000490108
-0.000995444
0.000795599
-0.00141496
0.00113689
-0.00193759
0.00145701
-0.00224601
0.00100951
-0.00201385
-0.000435027
-0.00110607
-0.00224514
6.75973e-05
-0.00308921
0.00119257
-0.00297394
0.00188521
-0.00185755
0.00228616
-0.000990844
0.00261512
-0.000810745
0.00298609
-0.000814887
0.00370037
-0.00176408
0.00452598
-0.00202777
0.00566317
-0.00280611
0.00701523
-0.00347994
0.00847834
-0.00361337
0.0103444
-0.00493308
-0.0055769
0.0528216
0.0126012
-0.0519228
0.0538512
0.0134918
0.0545368
0.0139866
0.0546084
0.0139905
0.0540135
0.0135976
0.0528211
0.0129276
0.0511604
0.0120851
0.0491775
0.0111584
0.0470068
0.0102143
0.0447585
0.00929783
0.0425149
0.00843678
0.0403319
0.00764582
0.038244
0.00693046
0.0362698
0.00629009
0.0344165
0.0057205
0.0326845
0.00521555
0.0310698
0.00476843
0.0295658
0.00437234
0.0281651
0.00402092
0.0268599
0.00370845
0.0256426
0.00342988
0.0245057
0.0031808
0.0234426
0.00295742
0.022447
0.00275647
0.0215131
0.00257515
0.0206359
0.00241106
0.0198104
0.00226213
0.0190327
0.00212658
0.0182987
0.0020029
0.0176051
0.00188976
0.0169487
0.00178601
0.0163266
0.00169067
0.0157364
0.00160287
0.0151756
0.00152185
0.0146421
0.00144695
0.0141341
0.0013776
0.0136496
0.00131327
0.0131871
0.00125351
0.0127451
0.00119792
0.0123223
0.00114615
0.0119173
0.00109788
0.011529
0.00105282
0.0111564
0.00101074
0.0107983
0.000971401
0.010454
0.000934602
0.0101226
0.000900156
0.00980315
0.00086791
0.00949502
0.000837706
0.00919747
0.000809427
0.00890984
0.000782942
0.00863152
0.000758147
0.00836191
0.000734941
0.00810047
0.000713226
0.00784666
0.000692934
0.00759999
0.00067397
0.00735999
0.000656303
0.00712622
0.000639825
0.00689824
0.000624539
0.00667565
0.000610312
0.00645806
0.000597189
0.00624509
0.000585007
0.00603639
0.000573851
0.00583162
0.000563536
0.00563046
0.000554165
0.0054326
0.000545546
0.00523775
0.000537783
0.00504564
0.000530711
0.00485599
0.000524399
0.00466856
0.000518725
0.00448313
0.000513662
0.00429948
0.00050917
0.00411744
0.000505141
0.0039368
0.000501642
0.00375742
0.000498568
0.00357914
0.000495887
0.00340179
0.000493769
0.00322539
0.000491437
0.00304971
0.000490044
0.00287514
0.000487064
0.0027012
0.000486047
0.00252889
0.000481217
0.00235712
0.000480592
0.00218755
0.000473783
0.00201782
0.000475399
0.00185043
0.000468491
0.00168269
0.000470892
0.00151838
0.000461211
0.00135418
0.000461823
0.00119403
0.000451048
0.00103444
0.000450002
0.000880715
0.000434102
0.00072511
0.000440258
0.000575791
0.000424149
0.000422524
0.000437404
0.000279208
0.000409083
0.000116734
0.00046995
-3.32365e-05
0.000443058
-0.000185463
0.000445631
-0.000307503
0.000354828
-0.000482444
0.00049197
-0.000731308
0.000738973
-0.00112259
0.00118688
-0.00163659
0.00165089
-0.00225555
0.00207598
-0.00256066
0.00131461
-0.00218588
-0.00080981
-0.000972868
-0.00345816
0.000531371
-0.00459344
0.00195346
-0.00439603
0.00283036
-0.00273445
0.00337041
-0.00153089
0.00382194
-0.00126227
0.00435992
-0.00135287
0.00532337
-0.00272753
0.00643462
-0.00313901
0.00796061
-0.0043321
0.00971778
-0.0052371
0.011671
-0.00556657
0.0140334
-0.0072955
-0.00830378
0.0565428
0.0119137
-0.0558552
0.0573972
0.0126374
0.058195
0.0131887
0.0587235
0.013462
0.0588606
0.0134605
0.0585606
0.0132276
0.0578329
0.0128128
0.0567252
0.0122661
0.0553058
0.0116337
0.05365
0.0109536
0.051831
0.0102558
0.0499139
0.00956289
0.0479533
0.00889109
0.045992
0.00825138
0.044062
0.00765046
0.0421859
0.00709174
0.0403781
0.00657618
0.0386475
0.00610298
0.0369982
0.00567022
0.0354313
0.00527531
0.0339458
0.00491535
0.0325393
0.00458733
0.0312084
0.0042883
0.0299494
0.00401548
0.0287583
0.00376629
0.0276309
0.00353836
0.0265635
0.00332957
0.0255521
0.003138
0.0245931
0.00296194
0.0236829
0.00279987
0.0228185
0.00265043
0.0219968
0.0025124
0.0212149
0.00238474
0.0204703
0.00226647
0.0197605
0.00215676
0.0190833
0.00205483
0.0184365
0.00196003
0.0178183
0.00187173
0.0172268
0.00178941
0.0166604
0.00171258
0.0161174
0.00164081
0.0155965
0.0015737
0.0150964
0.00151092
0.0146156
0.00145213
0.0141532
0.00139707
0.0137079
0.00134547
0.0132787
0.0012971
0.0128646
0.00125175
0.0124648
0.00120923
0.0120784
0.00116938
0.0117045
0.00113203
0.0113424
0.00109704
0.0109914
0.00106426
0.0106507
0.0010336
0.0103198
0.00100493
0.00999788
0.00097818
0.0096845
0.000953213
0.00937902
0.000930016
0.00908092
0.000908413
0.00878967
0.000888446
0.00850477
0.000869904
0.00822575
0.00085288
0.00795215
0.000837134
0.00768353
0.000822783
0.0074195
0.00080958
0.00715964
0.000797643
0.00690359
0.000786759
0.00665099
0.000777001
0.00640151
0.000768209
0.00615484
0.000760331
0.00591069
0.000753319
0.00566882
0.000747007
0.00542897
0.000741493
0.00519093
0.000736615
0.00495448
0.000732332
0.00471941
0.000728837
0.00448574
0.000725104
0.00425317
0.000722619
0.00402218
0.000718051
0.00379217
0.00071606
0.00356436
0.000709022
0.00333739
0.000707561
0.0031133
0.00069788
0.00288922
0.000699475
0.00266829
0.000689421
0.00244724
0.000691947
0.00223077
0.000677677
0.0020147
0.000677888
0.0018042
0.000661551
0.00159464
0.000659556
0.00139302
0.000635726
0.0011893
0.000643982
0.000994516
0.000618932
0.000795154
0.000636766
0.000609197
0.000595039
0.000400657
0.00067849
0.000209974
0.00063374
1.68959e-05
0.000638709
-0.000138511
0.000510236
-0.000364249
0.000717708
-0.000672249
0.00104697
-0.00114733
0.00166197
-0.00174576
0.00224932
-0.00243917
0.00276939
-0.00269934
0.00157478
-0.00214018
-0.00136898
-0.000581665
-0.00501668
0.00127163
-0.00644674
0.00300903
-0.00613343
0.0040841
-0.0038095
0.00478684
-0.00223363
0.00538434
-0.00185977
0.0061246
-0.00209313
0.00737332
-0.00397625
0.00880647
-0.00457217
0.0107748
-0.00630045
0.0129668
-0.00742904
0.0154714
-0.00807123
0.0183461
-0.0101702
-0.011648
0.0605491
0.01135
-0.0599855
0.0612343
0.0119522
0.0619499
0.0124731
0.0625732
0.0128386
0.0630068
0.0130269
0.0631868
0.0130476
0.0630777
0.0129219
0.0626691
0.0126747
0.0619712
0.0123316
0.0610086
0.0119163
0.0598156
0.0114488
0.0584318
0.0109467
0.0568983
0.0104246
0.055255
0.00989466
0.0535387
0.00936674
0.0517818
0.0088487
0.0500114
0.00834657
0.0482496
0.00786475
0.0465136
0.00740619
0.0448163
0.00697264
0.0431667
0.00656488
0.0415712
0.00618291
0.0400333
0.00582616
0.0385551
0.00549368
0.0371371
0.00518427
0.0357789
0.00489657
0.0344793
0.00462919
0.0332366
0.00438072
0.0320488
0.00414977
0.0309136
0.00393503
0.0298288
0.00373525
0.0287919
0.00354928
0.0278006
0.00337603
0.0268525
0.00321452
0.0259455
0.00306384
0.0250772
0.00292313
0.0242455
0.00279165
0.0234486
0.00266868
0.0226844
0.0025536
0.0219512
0.00244582
0.0212471
0.00234482
0.0205707
0.00225012
0.0199203
0.00216129
0.0192945
0.00207792
0.018692
0.00199966
0.0181113
0.00192616
0.0175512
0.00185714
0.0170107
0.0017923
0.0164885
0.00173143
0.0159836
0.00167427
0.015495
0.00162061
0.0150218
0.00157028
0.014563
0.00152307
0.0141177
0.00147885
0.0136852
0.00143744
0.0132646
0.00139875
0.0128552
0.0013626
0.0124563
0.00132896
0.0120671
0.0012976
0.011687
0.00126856
0.0113153
0.00124156
0.0109515
0.00121672
0.0105949
0.00119373
0.010245
0.00117271
0.00990119
0.00115336
0.00956303
0.00113581
0.00923001
0.00111978
0.00890165
0.00110536
0.00857752
0.00109234
0.00825723
0.00108062
0.00794039
0.00107016
0.00762669
0.00106072
0.00731576
0.00105242
0.00700734
0.00104504
0.00670116
0.00103851
0.00639694
0.00103306
0.0060947
0.00102734
0.00579404
0.00102328
0.00549558
0.00101651
0.00519853
0.00101311
0.00490439
0.00100316
0.00461147
0.00100049
0.00432224
0.000987105
0.0040333
0.000988415
0.00374852
0.000974203
0.00346395
0.000976518
0.00318538
0.000956242
0.00290766
0.000955611
0.00263736
0.000931847
0.00236856
0.000928364
0.00211024
0.000894041
0.00184976
0.000904465
0.00160166
0.000867033
0.00134845
0.000889975
0.00111312
0.00083037
0.000852152
0.000939455
0.00061616
0.000869732
0.000377771
0.000877096
0.000183759
0.00070425
-9.71237e-05
0.000998592
-0.000462616
0.00141247
-0.00101765
0.002217
-0.00168305
0.00291471
-0.00242089
0.00350723
-0.00258621
0.0017401
-0.00179848
-0.00215672
0.00014664
-0.0069618
0.0023656
-0.00866569
0.00443475
-0.00820258
0.00572304
-0.00509778
0.00661432
-0.0031249
0.00738233
-0.00262777
0.00835979
-0.0030706
0.00992867
-0.00554512
0.0117141
-0.00635765
0.0141777
-0.00876404
0.0168229
-0.0100742
0.0199387
-0.011187
0.0233346
-0.0135661
-0.0156186
0.0648344
0.0108651
-0.0643495
0.0654005
0.0113862
0.066009
0.0118646
0.0665948
0.0122528
0.0670954
0.0125263
0.0674623
0.0126808
0.06766
0.0127242
0.0676649
0.0126699
0.0674636
0.0125329
0.0670522
0.0123276
0.0664343
0.0120667
0.0656204
0.0117606
0.0646262
0.0114187
0.0634717
0.0110492
0.0621793
0.0106591
0.060773
0.0102549
0.0592772
0.00984244
0.057715
0.0094269
0.0561082
0.00901296
0.0544762
0.00860467
0.0528357
0.00820535
0.0512009
0.00781771
0.0495833
0.00744374
0.0479922
0.00708488
0.0464344
0.00674204
0.0449153
0.00641568
0.0434385
0.00610593
0.0420066
0.00581262
0.040621
0.00553538
0.0392824
0.00527371
0.0379906
0.00502697
0.0367454
0.00479451
0.0355458
0.0045756
0.0343908
0.00436954
0.0332791
0.00417559
0.0322091
0.00399306
0.0311795
0.00382128
0.0301886
0.00365958
0.0292348
0.00350736
0.0283166
0.00336405
0.0274323
0.0032291
0.0265805
0.003102
0.0257595
0.0029823
0.0249678
0.00286954
0.0242042
0.00276333
0.0234671
0.00266327
0.0227552
0.00256903
0.0220672
0.00248027
0.0214019
0.00239673
0.0207581
0.00231809
0.0201346
0.00224413
0.0195303
0.00217459
0.0189441
0.00210924
0.018375
0.00204791
0.0178221
0.00199038
0.0172843
0.00193654
0.0167607
0.00188615
0.0162505
0.00183916
0.0157528
0.0017953
0.0152668
0.00175459
0.0147917
0.00171671
0.0143266
0.00168177
0.013871
0.00164939
0.013424
0.00161972
0.012985
0.00159236
0.0125533
0.00156747
0.0121284
0.00154472
0.0117096
0.00152416
0.0112963
0.00150556
0.0108882
0.00148877
0.0104846
0.00147373
0.0100852
0.00146012
0.00968955
0.00144809
0.00929723
0.00143735
0.00890796
0.00142777
0.00852135
0.00141967
0.00813747
0.00141123
0.00775576
0.00140498
0.00737701
0.00139526
0.0070002
0.00138993
0.00662717
0.00137619
0.00625579
0.00137186
0.00588912
0.00135377
0.00552309
0.00135444
0.00516248
0.00133482
0.00480254
0.00133646
0.00445031
0.00130847
0.00409954
0.00130638
0.00375847
0.00127291
0.00341963
0.0012672
0.00309442
0.00121925
0.00276722
0.00123167
0.00245678
0.00117747
0.00214088
0.00120588
0.00184865
0.00112259
0.00152832
0.00125979
0.001242
0.00115604
0.000952923
0.00116618
0.000715808
0.000941366
0.000380574
0.00133383
-3.81122e-05
0.00183116
-0.0006667
0.00284559
-0.00137259
0.0036206
-0.00211651
0.00425115
-0.00212847
0.00175204
-0.00106638
-0.00321882
0.00128362
-0.0093118
0.00390509
-0.0112872
0.00632182
-0.0106193
0.00783938
-0.00661534
0.00894637
-0.00423189
0.00990964
-0.00359104
0.0111563
-0.0043173
0.0130774
-0.00746621
0.0152352
-0.00851539
0.0182438
-0.0117727
0.0213449
-0.0131753
0.0251269
-0.0149691
0.0290488
-0.017488
-0.0202049
0.0694076
0.0104372
-0.0689797
0.0698916
0.0109021
0.0704129
0.0113433
0.0709357
0.01173
0.0714203
0.0120417
0.071833
0.0122681
0.0721477
0.0124094
0.0723452
0.0124724
0.0724113
0.0124668
0.0723361
0.0124028
0.0721128
0.01229
0.0717376
0.0121358
0.0712098
0.0119465
0.0705319
0.0117271
0.0697093
0.0114817
0.0687505
0.0112138
0.0676664
0.0109265
0.0664705
0.0106228
0.0651776
0.0103059
0.0638035
0.0099788
0.0623641
0.00964478
0.0608749
0.00930687
0.0593507
0.00896799
0.0578048
0.00863079
0.0562492
0.00829763
0.0546943
0.00797053
0.0531491
0.00765116
0.0516209
0.00734085
0.0501157
0.00704059
0.0486383
0.00675111
0.0471924
0.00647286
0.0457808
0.0062061
0.0444055
0.00595093
0.0430677
0.00570728
0.0417683
0.005475
0.0405075
0.00525383
0.0392853
0.00504347
0.0381014
0.00484355
0.036955
0.00465371
0.0358455
0.00447355
0.0347719
0.00430267
0.0337333
0.00414068
0.0327284
0.00398719
0.0317561
0.0038418
0.0308153
0.00370415
0.0299047
0.00357387
0.0290231
0.00345065
0.0281692
0.00333414
0.0273419
0.00322405
0.0265399
0.00312009
0.025762
0.00302199
0.0250071
0.00292948
0.0242741
0.00284231
0.0235617
0.00276029
0.0228689
0.00268316
0.0221946
0.0026108
0.0215379
0.00254292
0.0208975
0.00247949
0.0202727
0.00242015
0.0196623
0.00236496
0.0190655
0.00231351
0.0184814
0.00226593
0.017909
0.00222177
0.0173475
0.00218119
0.0167961
0.00214373
0.0162541
0.00210955
0.0157205
0.00207824
0.0151948
0.00204986
0.0146763
0.00202412
0.0141642
0.00200082
0.0136581
0.00197989
0.0131573
0.00196091
0.0126613
0.00194405
0.0121697
0.00192894
0.0116821
0.00191535
0.0111981
0.00190375
0.0107176
0.00189171
0.01024
0.00188257
0.00976627
0.00186898
0.00929509
0.0018611
0.00882872
0.00184256
0.00836451
0.00183607
0.00790623
0.00181205
0.00744902
0.00181166
0.00699876
0.00178508
0.00654974
0.00178548
0.00611049
0.00174771
0.0056735
0.00174336
0.00524897
0.00169745
0.00482763
0.00168854
0.00442374
0.00162315
0.00401835
0.00163706
0.00363523
0.00156059
0.00324657
0.00159453
0.00288906
0.0014801
0.00250178
0.00164707
0.00215979
0.00149803
0.00181481
0.00151115
0.00153223
0.00122395
0.00114216
0.0017239
0.000672547
0.00230077
-1.37057e-05
0.00353185
-0.000718873
0.00432577
-0.00142343
0.0049557
-0.00121324
0.00154182
0.000167965
-0.00460003
0.00296222
-0.0121061
0.00600009
-0.014325
0.0087798
-0.013399
0.0105433
-0.00837884
0.0118931
-0.00558168
0.0130758
-0.00477372
0.0146177
-0.00585916
0.0169185
-0.00976703
0.0194523
-0.0110492
0.0230495
-0.0153699
0.0265893
-0.016715
0.0310833
-0.0194631
0.0355353
-0.02194
-0.0253732
0.0742882
0.010054
-0.073905
0.074713
0.0104774
0.0751683
0.0108881
0.0756333
0.011265
0.0760822
0.0115928
0.0764904
0.0118599
0.076838
0.0120618
0.0771106
0.0121999
0.0772977
0.0122797
0.0773919
0.0123085
0.0773877
0.0122942
0.0772799
0.0122436
0.0770642
0.0121622
0.0767368
0.0120545
0.0762945
0.011924
0.0757357
0.0117727
0.0750599
0.0116023
0.0742689
0.0114137
0.0733667
0.0112081
0.0723592
0.0109863
0.0712542
0.0107497
0.0700612
0.0104998
0.0687909
0.0102383
0.0674544
0.00996725
0.0660634
0.00968867
0.0646292
0.00940473
0.0631628
0.00911757
0.0616744
0.00882922
0.0601735
0.00854155
0.0586683
0.00825625
0.0571664
0.00797481
0.055674
0.00769848
0.0541966
0.00742831
0.0527387
0.00716515
0.0513041
0.00690966
0.0498956
0.00666233
0.0485155
0.00642349
0.0471657
0.00619336
0.0458474
0.00597206
0.0445613
0.00575962
0.043308
0.00555601
0.0420875
0.00536112
0.0408999
0.00517483
0.0397447
0.00499695
0.0386216
0.0048273
0.0375298
0.00466565
0.0364687
0.00451179
0.0354373
0.00436547
0.0344349
0.00422649
0.0334604
0.0040946
0.0325128
0.00396957
0.0315911
0.00385118
0.0306943
0.00373918
0.0298211
0.0036334
0.0289707
0.0035336
0.0281418
0.00343966
0.0273335
0.00335127
0.0265445
0.00326842
0.025774
0.00319072
0.0250207
0.00311824
0.0242837
0.00305052
0.0235619
0.00298772
0.0228544
0.0029293
0.0221601
0.00287548
0.0214781
0.00282569
0.0208075
0.00278013
0.0201475
0.00273831
0.019497
0.00270029
0.0188554
0.00266573
0.0182219
0.00263435
0.0175957
0.00260608
0.0169762
0.0025804
0.0163628
0.00255747
0.0157548
0.00253688
0.015152
0.00251822
0.0145535
0.00250218
0.0139597
0.00248554
0.0133695
0.00247272
0.0127843
0.00245423
0.0122022
0.00244315
0.0116262
0.00241862
0.0110528
0.00240944
0.0104868
0.00237807
0.00992232
0.00237612
0.00936663
0.00234078
0.00881286
0.00233926
0.0082713
0.00228928
0.00773299
0.00228167
0.0072104
0.00222004
0.00669226
0.00220668
0.00619614
0.00211926
0.00569945
0.00213376
0.00523186
0.00202818
0.00475902
0.00206737
0.00432689
0.00191224
0.00386437
0.00210958
0.00346106
0.00190134
0.00305501
0.0019172
0.00272539
0.00155357
0.00228273
0.00216657
0.00177686
0.00280664
0.00106734
0.00424137
0.000393645
0.00499946
-0.000221783
0.00557112
0.000292827
0.00102725
0.00204149
-0.0063487
0.00531105
-0.0153756
0.00878191
-0.0177959
0.0119395
-0.0165566
0.0139659
-0.0104052
0.0155837
-0.00719946
0.0170087