/*--------------------------------*- C++ -*----------------------------------*\
| =========                 |                                                 |
| \\      /  F ield         | OpenFOAM: The Open Source CFD Toolbox           |
|  \\    /   O peration     | Version:  2412                                  |
|   \\  /    A nd           | Website:  www.openfoam.com                      |
|    \\/     M anipulation  |                                                 |
\*---------------------------------------------------------------------------*/
FoamFile
{
    version     2.0;
    format      ascii;
    arch        "LSB;label=32;scalar=64";
    class       surfaceScalarField;
    location    "1.02";
    object      phi;
}
// * * * * * * * * * * * * * * * * * * * * * * * * * * * * * * * * * * * * * //

dimensions      [0 3 -1 0 0 0 0];

oriented        oriented;

internalField   nonuniform List<scalar> 
24930
(
0.0179827
0.0127742
-0.0307557
0.0106097
0.00737307
0.0069549
0.00365476
0.005177
0.00177789
0.00420406
0.000972942
0.00358064
0.000623415
0.00313438
0.000446264
0.00279464
0.000339733
0.0025253
0.000269344
0.00230526
0.000220037
0.00212136
0.000183898
0.00196486
0.000156497
0.0018297
0.000135153
0.00171154
0.000118158
0.00160717
0.000104377
0.00151414
9.30255e-05
0.00143059
8.35488e-05
0.00135504
7.55435e-05
0.00128633
6.87109e-05
0.0012235
6.28257e-05
0.00116579
5.7715e-05
0.00111254
5.32444e-05
0.00106324
4.93079e-05
0.00101741
4.58212e-05
0.000974697
4.2716e-05
0.00093476
3.9937e-05
0.00089732
3.7439e-05
0.000862135
3.51843e-05
0.000828993
3.31416e-05
0.000797709
3.12845e-05
0.000768117
2.9591e-05
0.000740075
2.80421e-05
0.000713453
2.66219e-05
0.000688137
2.53162e-05
0.000664024
2.41137e-05
0.000641021
2.30034e-05
0.000619045
2.19771e-05
0.00059802
2.10262e-05
0.000577876
2.01447e-05
0.000558552
1.93254e-05
0.000539988
1.85645e-05
0.000522134
1.78555e-05
0.000504938
1.71965e-05
0.000488358
1.65811e-05
0.00047235
1.60092e-05
0.000456876
1.54742e-05
0.000441899
1.49779e-05
0.000427386
1.45129e-05
0.000413303
1.4083e-05
0.000399624
1.36797e-05
0.000386315
1.33088e-05
0.000373354
1.29605e-05
0.000360711
1.26427e-05
0.000348366
1.23443e-05
0.000336291
1.20749e-05
0.000324468
1.18223e-05
0.00031287
1.15972e-05
0.000301483
1.13874e-05
0.00029028
1.12031e-05
0.000279246
1.10335e-05
0.00026836
1.08865e-05
0.000257605
1.07555e-05
0.000246963
1.06424e-05
0.000236414
1.05491e-05
0.000225947
1.04661e-05
0.000215537
1.04101e-05
0.000205183
1.03528e-05
0.000194848
1.03342e-05
0.00018455
1.02965e-05
0.000174233
1.03153e-05
0.000163942
1.02888e-05
0.000153595
1.03451e-05
0.000143274
1.03184e-05
0.00013286
1.04124e-05
0.000122489
1.03702e-05
0.000111986
1.0502e-05
0.000101561
1.04255e-05
9.09701e-05
1.05908e-05
8.05028e-05
1.04676e-05
6.98682e-05
1.0635e-05
5.93655e-05
1.05025e-05
4.88235e-05
1.05414e-05
3.82255e-05
1.05971e-05
2.80767e-05
1.01476e-05
1.71991e-05
1.08766e-05
7.96184e-06
9.23685e-06
-3.49773e-06
1.14595e-05
-1.25734e-05
9.07744e-06
-2.02332e-05
7.6596e-06
-3.48594e-05
1.46274e-05
-3.59318e-05
1.07286e-06
-5.59944e-05
2.00625e-05
-4.93507e-05
-6.64558e-06
-7.09885e-05
2.16341e-05
-8.65125e-05
1.5535e-05
-5.48135e-05
-3.17091e-05
-0.000120626
6.5813e-05
-7.24147e-05
-4.82017e-05
-0.00012568
5.32684e-05
-0.000111921
-1.37515e-05
-7.47422e-05
-3.71963e-05
-0.00023484
0.000160122
-3.80413e-05
-0.000196813
-0.000219174
0.00018113
-0.000182895
-3.62419e-05
-3.98658e-05
-0.000143083
-0.000473761
0.000433954
1.26003e-06
-0.00047505
-0.000366332
0.000367586
-0.000459958
9.36183e-05
0.000156735
-0.000616776
-0.000857305
0.00101408
-0.000285172
-0.000572097
-1.39025e-05
-0.000271349
-0.000637851
0.000623989
-0.000132148
-0.000505672
2.07198e-05
-0.000152894
5.25818e-05
-3.18879e-05
-0.000125633
0.000178216
0.000149604
0.033704
0.0163443
-0.0372741
0.0277603
0.0133168
0.0222012
0.00921381
0.0179223
0.00605685
0.0148729
0.00402226
0.0127104
0.00278597
0.0111219
0.00203472
0.00990389
0.00155776
0.00893595
0.00123728
0.00814506
0.00101092
0.00748441
0.000844538
0.00692268
0.000718224
0.00643806
0.000619772
0.00601485
0.000541359
0.00564146
0.000477769
0.00530908
0.000425396
0.00501095
0.000381682
0.00474172
0.000344768
0.00449715
0.000313276
0.00427382
0.000286162
0.0040689
0.00026263
0.00388009
0.000242056
0.00370544
0.00022395
0.00354334
0.000207922
0.0033924
0.000193656
0.00325144
0.000180897
0.00311944
0.000169433
0.00299554
0.000159092
0.00287895
0.000149728
0.00276901
0.00014122
0.00266514
0.000133464
0.00256681
0.000126374
0.00247355
0.000119876
0.00238496
0.000113905
0.00230067
0.000108407
0.00222034
0.000103334
0.00214367
9.86448e-05
0.0020704
9.43021e-05
0.00200027
9.02766e-05
0.00193306
8.65374e-05
0.00186856
8.30637e-05
0.00180659
7.98294e-05
0.00174697
7.68209e-05
0.00168954
7.40145e-05
0.00163414
7.14034e-05
0.00158066
6.89644e-05
0.00152894
6.6697e-05
0.00147887
6.45773e-05
0.00143035
6.26111e-05
0.00138325
6.07723e-05
0.00133749
5.9073e-05
0.00129297
5.74845e-05
0.00124958
5.60249e-05
0.00120726
5.46626e-05
0.00116592
5.34206e-05
0.00112547
5.22655e-05
0.00108585
5.12228e-05
0.00104698
5.026e-05
0.00100878
4.94007e-05
0.000971193
4.86181e-05
0.000934152
4.79279e-05
0.000897591
4.73165e-05
0.000861452
4.67819e-05
0.000825666
4.63354e-05
0.00079019
4.59422e-05
0.000754943
4.56563e-05
0.000719907
4.5388e-05
0.000684981
4.52589e-05
0.000650182
4.50938e-05
0.000615379
4.51167e-05
0.00058064
4.50249e-05
0.000545789
4.51931e-05
0.000510972
4.51324e-05
0.00047594
4.54408e-05
0.000440957
4.535e-05
0.000405656
4.58004e-05
0.000370491
4.55884e-05
0.000334889
4.61909e-05
0.000299606
4.5749e-05
0.000263775
4.64654e-05
0.000228469
4.5808e-05
0.000192747
4.62636e-05
0.000157285
4.60582e-05
0.000122694
4.47381e-05
8.61251e-05
4.74445e-05
5.50392e-05
4.03217e-05
1.57265e-05
5.0771e-05
-1.19765e-05
3.67788e-05
-4.40872e-05
3.97709e-05
-8.6016e-05
5.65556e-05
-9.79117e-05
1.2969e-05
-0.00015865
8.08003e-05
-0.00013907
-2.62241e-05
-0.000221676
0.000104241
-0.000245644
3.9492e-05
-0.000179621
-9.77275e-05
-0.000362014
0.000248206
-0.000226474
-0.000183743
-0.000406858
0.000233651
-0.000325709
-9.49009e-05
-0.000273057
-8.98296e-05
-0.000690665
0.00057773
-0.00013564
-0.000751825
-0.000733399
0.000778885
-0.000516619
-0.000253037
-0.000192974
-0.000466701
-0.00137661
0.00161757
-4.872e-06
-0.00184665
-0.00127218
0.00163476
-0.00128945
0.000111104
0.000358269
-0.00226449
-0.00255597
0.0039283
-0.000762613
-0.00236546
-0.000182861
-0.000851069
-0.0019263
0.0023674
-0.000309853
-0.00212213
8.05881e-05
-0.00054332
0.000116501
-6.7764e-05
-0.000409612
0.000704323
0.000608461
0.0414774
0.016041
-0.0411742
0.0391837
0.0156106
0.0352487
0.0131487
0.0309573
0.0103483
0.0270382
0.00794138
0.0237459
0.00607829
0.021069
0.00471161
0.0188984
0.00372835
0.0171193
0.00301637
0.015639
0.00249124
0.0143884
0.00209513
0.0133171
0.00178948
0.0123883
0.00154864
0.0115743
0.00135534
0.0108543
0.0011977
0.0102124
0.00106731
0.00963598
0.000958127
0.00911504
0.000865701
0.00864162
0.000786696
0.00820921
0.000718576
0.00781245
0.000659383
0.00744692
0.000607586
0.0071089
0.000561972
0.00679525
0.00052157
0.00650331
0.000485597
0.00623079
0.000453413
0.00597573
0.000424492
0.00573642
0.000398399
0.00551138
0.000374769
0.0052993
0.000353298
0.00509904
0.000333727
0.00490958
0.000315836
0.00473001
0.000299439
0.00455955
0.000284373
0.00439745
0.000270501
0.00424309
0.000257701
0.00409586
0.000245871
0.00395525
0.000234916
0.00382077
0.000224761
0.00369198
0.00021533
0.00356848
0.000206567
0.0034499
0.000198409
0.0033359
0.000190819
0.00322618
0.000183741
0.00312043
0.000177151
0.0030184
0.000170999
0.00291983
0.000165273
0.00282448
0.000159925
0.00273213
0.000154956
0.00264259
0.000150315
0.00255565
0.000146015
0.00247113
0.000142003
0.00238885
0.000138303
0.00230865
0.000134859
0.00223037
0.000131703
0.00215386
0.000128778
0.00207896
0.00012612
0.00200555
0.000123674
0.00193347
0.000121474
0.00186261
0.000119477
0.00179284
0.000117701
0.00172403
0.000116129
0.00165607
0.000114744
0.00158882
0.000113578
0.00152221
0.000112553
0.00145609
0.000111779
0.0013904
0.000111077
0.00132498
0.000110682
0.00125981
0.000110256
0.0011947
0.000110223
0.00112971
0.000110008
0.00106459
0.000110313
0.000999502
0.000110217
0.000934098
0.000110841
0.000868724
0.000110721
0.000802853
0.000111669
0.000737144
0.000111295
0.000670713
0.000112621
0.000604791
0.00011167
0.000537864
0.000113392
0.000471945
0.000111727
0.000405038
0.00011317
0.00033894
0.000112156
0.000273889
0.000109787
0.000205723
0.000115609
0.000147175
9.88688e-05
7.36253e-05
0.000124319
2.1991e-05
8.8413e-05
-4.19434e-05
0.000103705
-0.000114313
0.000128925
-0.000143772
4.24293e-05
-0.000250241
0.000187269
-0.000220361
-5.61041e-05
-0.000377467
0.000261347
-0.000401901
6.39317e-05
-0.000315836
-0.000183794
-0.000618298
0.000550668
-0.000392799
-0.000409239
-0.000721121
0.000561974
-0.000553736
-0.000262282
-0.000517263
-0.000126335
-0.00117393
0.00123439
-0.000256044
-0.00166971
-0.0013302
0.00185305
-0.000868272
-0.000714959
-0.000422183
-0.000912791
-0.00231988
0.00351527
-1.98025e-05
-0.00414674
-0.00236376
0.00397874
-0.00213332
-0.000119689
0.000496227
-0.00489403
-0.00435653
0.00878107
-0.00117036
-0.00555164
-0.0005292
-0.00149219
-0.00330953
0.00514773
-0.000374082
-0.00505758
0.000151126
-0.00106853
0.000151397
-6.81529e-05
-0.000740073
0.00159579
0.0013727
0.0459409
0.0147416
-0.0446414
0.0460224
0.0155291
0.0444405
0.0147306
0.0417129
0.0130758
0.0384652
0.0111891
0.0351565
0.009387
0.0320546
0.00781349
0.0292741
0.00650889
0.0268337
0.00545672
0.0247074
0.00461753
0.022854
0.00394855
0.0212315
0.00341202
0.0198025
0.00297756
0.018536
0.0026219
0.0174061
0.00232752
0.0163922
0.00208128
0.015477
0.00187325
0.0146468
0.00169592
0.01389
0.00154349
0.0131971
0.00141146
0.0125602
0.0012963
0.0119726
0.00119522
0.0114286
0.00110598
0.0109234
0.00102677
0.0104528
0.000956121
0.0100134
0.000892817
0.00960207
0.000835859
0.00921606
0.000784416
0.00885304
0.000737788
0.00851095
0.000695387
0.00818796
0.000656713
0.00788246
0.00062134
0.00759299
0.000588903
0.00731828
0.000559089
0.00705715
0.000531627
0.00680858
0.00050628
0.0065716
0.000482846
0.00634538
0.000461142
0.00612913
0.000441015
0.00592214
0.00042232
0.00572376
0.000404945
0.00553341
0.000388769
0.00535052
0.000373712
0.00517459
0.000359671
0.00500515
0.000346591
0.00484177
0.000334382
0.00468403
0.00032301
0.00453157
0.00031239
0.00438401
0.000302512
0.00424104
0.000293289
0.00410232
0.000284731
0.00396757
0.000276751
0.0038365
0.000269375
0.00370884
0.000262515
0.00358434
0.00025621
0.00346274
0.000250373
0.00334381
0.000245047
0.00322733
0.000240154
0.00311308
0.00023573
0.00300084
0.000231718
0.00289041
0.000228128
0.00278159
0.000224948
0.0026742
0.000222131
0.00256804
0.000219745
0.00246295
0.000217643
0.00235871
0.000216019
0.00225522
0.000214566
0.00215222
0.000213675
0.00204969
0.000212786
0.00194732
0.000212588
0.00184518
0.000212149
0.00174289
0.000212594
0.00164067
0.000212437
0.00153802
0.000213481
0.0014354
0.000213344
0.00133207
0.000214993
0.00122893
0.000214434
0.00112473
0.000216818
0.00102124
0.00021516
0.000916205
0.000218426
0.000812712
0.000215219
0.000707522
0.000218359
0.000603824
0.000215853
0.000501166
0.000212445
0.000394408
0.000222365
0.000301482
0.000191794
0.000186241
0.00023956
0.000103682
0.000170971
-1.46203e-06
0.00020885
-0.000107136
0.0002346
-0.000161591
9.68847e-05
-0.000320482
0.00034616
-0.000284864
-9.17221e-05
-0.000528185
0.000504668
-0.000549334
8.50712e-05
-0.000456933
-0.000276193
-0.000884816
0.000978551
-0.000566551
-0.000727502
-0.00106202
0.00105744
-0.000796413
-0.000527885
-0.000804992
-0.000117693
-0.00168365
0.00211305
-0.000400143
-0.00295322
-0.00200179
0.0034547
-0.00124324
-0.00147351
-0.000734816
-0.00142119
-0.00329959
0.00608004
-5.001e-05
-0.00739632
-0.00363289
0.00756164
-0.00299878
-0.000753503
0.000551385
-0.00844418
-0.00622993
0.0155624
-0.00149526
-0.0102863
-0.0010802
-0.00190732
-0.00476176
0.00882928
-0.00030063
-0.00951873
0.000225587
-0.00159473
0.000158597
-1.2695e-06
-0.00110556
0.00285994
0.00241559
0.0494078
0.0135474
-0.0482135
0.0503708
0.0145661
0.0503875
0.0147139
0.0493632
0.0141002
0.0475157
0.0130366
0.0451378
0.0117649
0.0425015
0.0104498
0.0398134
0.00919695
0.0372085
0.00806159
0.0347614
0.00706466
0.0325042
0.00620574
0.0304429
0.00547334
0.028569
0.00485144
0.0268675
0.00432337
0.0253214
0.00387372
0.0239135
0.00348915
0.0226282
0.00315851
0.0214515
0.00287264
0.0203709
0.00262406
0.0193757
0.00240673
0.0184563
0.00221568
0.0176046
0.00204688
0.0168136
0.00189704
0.0160769
0.00176341
0.0153893
0.00164375
0.0147459
0.00153616
0.0141427
0.00143907
0.013576
0.00135117
0.0130425
0.00127131
0.0125393
0.00119855
0.0120639
0.00113208
0.0116141
0.00107119
0.0111877
0.00101529
0.0107829
0.000963843
0.0103981
0.000916409
0.0100318
0.000872589
0.00968265
0.000832042
0.00934933
0.000794461
0.00903076
0.000759587
0.00872591
0.000727176
0.00843382
0.000697032
0.00815364
0.000668957
0.00788454
0.000642807
0.0076258
0.000618413
0.00737672
0.000595673
0.00713666
0.000574441
0.00690503
0.000554649
0.00668125
0.000536164
0.00646482
0.00051895
0.00625523
0.000502879
0.00605201
0.000487946
0.00585474
0.000474022
0.00566299
0.00046113
0.00547636
0.000449142
0.00529447
0.000438097
0.00511697
0.000427875
0.00494349
0.000418521
0.00477372
0.000409928
0.00460732
0.000402129
0.00444398
0.000395055
0.00428341
0.000388697
0.0041253
0.000383056
0.0039694
0.000378038
0.00381538
0.000373761
0.00366304
0.000369984
0.00351204
0.000367015
0.00336224
0.000364373
0.00321325
0.000362657
0.00306502
0.000361015
0.00291712
0.000360482
0.00276961
0.000359659
0.00262198
0.000360217
0.00247447
0.000359943
0.00232644
0.000361512
0.00217842
0.000361361
0.00202946
0.000363948
0.00188071
0.000363179
0.00173051
0.000367019
0.00158122
0.000364448
0.00142974
0.000369901
0.00128039
0.00036457
0.00112848
0.000370276
0.000978863
0.000365465
0.000830068
0.000361238
0.000676379
0.000376051
0.000540628
0.000327544
0.000374987
0.000405199
0.000254203
0.000291754
0.000104217
0.000358835
-4.62968e-05
0.000385113
-0.000136067
0.000186656
-0.000354779
0.000564871
-0.000319809
-0.000126691
-0.000661603
0.000846462
-0.000677318
0.000100785
-0.000595007
-0.0003585
-0.00115196
0.00153551
-0.000740994
-0.00113847
-0.00142252
0.00173897
-0.00104982
-0.000900585
-0.00113376
-3.38575e-05
-0.00221342
0.00319271
-0.000568701
-0.00459794
-0.00274007
0.00562608
-0.00164269
-0.0025709
-0.00113883
-0.00192503
-0.00430492
0.00924611
-9.99576e-05
-0.0116013
-0.00506633
0.012528
-0.00388853
-0.00193148
0.000494164
-0.0128269
-0.0081317
0.0241882
-0.00172313
-0.0166949
-0.00185482
-0.00177539
-0.00624852
0.013223
-8.57874e-05
-0.0156815
0.00029927
-0.00197979
0.000145775
0.000152351
-0.00148361
0.00448933
0.00368597
0.0528669
0.0126494
-0.051969
0.0538949
0.0135381
0.054578
0.0140309
0.0546457
0.0140325
0.0540453
0.0136369
0.0528463
0.0129639
0.051178
0.0121181
0.0491869
0.0111881
0.0470078
0.0102407
0.0447513
0.00932107
0.0424999
0.00845713
0.0403097
0.00766358
0.0382152
0.00694594
0.036235
0.00630361
0.0343763
0.00573233
0.0326395
0.00522595
0.0310204
0.00477763
0.0295125
0.00438052
0.0281083
0.00402826
0.0268
0.0037151
0.0255797
0.00343594
0.0244402
0.00318639
0.0233746
0.00296262
0.0223766
0.00276136
0.0214406
0.0025798
0.0205612
0.00241552
0.0197338
0.00226646
0.0189542
0.00213085
0.0182183
0.00200714
0.0175229
0.00189401
0.0168646
0.00179031
0.0162408
0.00169506
0.0156487
0.00160737
0.015086
0.0015265
0.0145507
0.00145178
0.0140406
0.00138263
0.0135541
0.00131854
0.0130895
0.00125905
0.0126453
0.00120377
0.0122202
0.00115233
0.0118128
0.00110444
0.011422
0.00105979
0.0110466
0.00101815
0.0106858
0.000979278
0.0103384
0.000943006
0.0100037
0.000909115
0.0096809
0.000877492
0.00936913
0.000847938
0.0090677
0.000820387
0.00877592
0.000794651
0.00849316
0.000770707
0.00821881
0.000748373
0.00795228
0.000727659
0.00769303
0.000708393
0.00744052
0.000690607
0.00719425
0.00067414
0.00695374
0.000659033
0.00671852
0.000645149
0.00648814
0.000632509
0.00626216
0.000621035
0.00604017
0.000610684
0.00582175
0.00060148
0.00560653
0.00059326
0.00539407
0.000586218
0.00518407
0.000579981
0.00497608
0.00057501
0.00476986
0.000570594
0.00456491
0.000567605
0.00436111
0.000564812
0.00415789
0.000563693
0.00395529
0.000562253
0.00375265
0.000562861
0.00355021
0.000562372
0.00334714
0.000564576
0.0031441
0.000564398
0.00293985
0.000568198
0.00273583
0.000567198
0.00252987
0.000572971
0.00232504
0.000569282
0.00211725
0.000577687
0.00191221
0.00056961
0.00170354
0.000578943
0.00149812
0.000570883
0.00129303
0.000566334
0.00108249
0.000586591
0.000893747
0.000516282
0.000667545
0.0006314
0.000499211
0.000460087
0.000291578
0.000566468
8.727e-05
0.000589422
-4.76168e-05
0.000321544
-0.000333514
0.000850767
-0.000307593
-0.000152613
-0.00076095
0.00129982
-0.000770963
0.000110789
-0.000718425
-0.000411036
-0.00140594
0.00222302
-0.000906544
-0.00163787
-0.00179176
0.00262419
-0.00130655
-0.00138579
-0.00149778
0.000157515
-0.00275434
0.00444926
-0.000761202
-0.00659108
-0.00353185
0.00839674
-0.00206525
-0.00403751
-0.00163979
-0.00235047
-0.00532502
0.0129313
-0.000173834
-0.0167525
-0.00663645
0.0189907
-0.0048045
-0.00376339
0.000281875
-0.0179132
-0.0100155
0.0344855
-0.00184233
-0.024868
-0.00285715
-0.000760836
-0.00773701
0.0181028
0.000301047
-0.0237196
0.000371284
-0.00205
0.000128842
0.000394881
-0.00184006
0.00645823
0.00510216
0.0565881
0.0119625
-0.0559012
0.0574414
0.0126848
0.0582375
0.0132348
0.0587635
0.0135065
0.0588971
0.0135032
0.0585927
0.0132684
0.0578594
0.0128514
0.0567451
0.0123023
0.0553185
0.0116673
0.0536549
0.0109847
0.0518278
0.0102842
0.0499026
0.00958873
0.0479341
0.00891448
0.0459652
0.00827248
0.044028
0.00766947
0.0421451
0.00710887
0.0403311
0.00659163
0.0385947
0.00611695
0.03694
0.00568291
0.0353682
0.0052869
0.0338782
0.00492599
0.0324674
0.00459715
0.0311326
0.00429744
0.0298699
0.00402405
0.0286753
0.0037744
0.0275447
0.0035461
0.0264741
0.00333703
0.0254597
0.00314526
0.0244978
0.00296907
0.0235849
0.00280694
0.0227177
0.0026575
0.0218932
0.00251953
0.0211086
0.00239198
0.0203612
0.00227387
0.0196487
0.00216436
0.0189686
0.00206269
0.018319
0.00196819
0.0176978
0.00188024
0.0171032
0.00179833
0.0165336
0.00172194
0.0159874
0.00165068
0.015463
0.00158413
0.0149592
0.00152196
0.0144747
0.00146384
0.0140082
0.00140952
0.0135586
0.0013587
0.0131249
0.00131122
0.012706
0.00126679
0.0123011
0.00122531
0.0119092
0.00118654
0.0115295
0.0011504
0.0111612
0.00111667
0.0108035
0.00108534
0.0104557
0.00105617
0.0101172
0.00102919
0.00978711
0.00100419
0.00946494
0.000981202
0.00915003
0.000960057
0.00884179
0.000940754
0.00853962
0.000923207
0.00824297
0.000907327
0.00795128
0.000893175
0.00766405
0.00088049
0.0073807
0.000869572
0.00710081
0.000859869
0.00682377
0.00085205
0.00654926
0.0008451
0.00627661
0.000840251
0.00600565
0.000835776
0.0057356
0.000833731
0.0054665
0.000831351
0.00519745
0.000831903
0.00492877
0.000831054
0.00465933
0.000834005
0.00438995
0.000833775
0.00411903
0.000839117
0.00384835
0.000837873
0.00357516
0.000846157
0.00330329
0.000841156
0.00302754
0.000853434
0.00275518
0.000841966
0.00247791
0.000856218
0.00220495
0.000843839
0.00193148
0.000839806
0.0016523
0.00086577
0.00139838
0.000770198
0.00109965
0.00093013
0.000872216
0.00068752
0.00059378
0.000844905
0.000323457
0.000859744
0.00013606
0.000508942
-0.000230452
0.00121728
-0.000224051
-0.00015901
-0.000803698
0.00187947
-0.000809906
0.000116991
-0.000810405
-0.000410523
-0.00162786
0.00304048
-0.00104957
-0.00221615
-0.00215404
0.00372865
-0.00155495
-0.00198488
-0.00188666
0.00048917
-0.00329504
0.00585762
-0.000975036
-0.00891107
-0.00435901
0.0117807
-0.00250687
-0.00588967
-0.00223808
-0.00261922
-0.00635181
0.017045
-0.00027654
-0.0228277
-0.0083028
0.027017
-0.00574799
-0.00631824
-0.000108014
-0.0235532
-0.0118457
0.0462232
-0.00184625
-0.0348675
-0.00406292
0.0014563
-0.00920296
0.0232428
0.000797098
-0.0337196
0.000446887
-0.0016998
0.000135505
0.000706256
-0.0021263
0.00872003
0.00654479
0.0605945
0.0113994
-0.0600314
0.0612787
0.0120006
0.061993
0.0125205
0.0626146
0.0128849
0.0630459
0.013072
0.0632229
0.0130914
0.0631099
0.0129643
0.0626967
0.0127156
0.0619932
0.0123708
0.0610243
0.0119536
0.0598243
0.0114842
0.058433
0.01098
0.0568916
0.0104559
0.0552403
0.00992382
0.0535159
0.00939384
0.051751
0.00887381
0.0499728
0.0083698
0.0482035
0.00788622
0.0464604
0.00742605
0.0447562
0.00699104
0.0431002
0.00658197
0.0414986
0.00619883
0.0399549
0.00584105
0.0384713
0.00550769
0.0370482
0.00519752
0.0356851
0.00490921
0.0343808
0.00464132
0.0331336
0.00439245
0.0319415
0.00416122
0.0308021
0.00394628
0.0297132
0.00374641
0.0286723
0.00356042
0.0276771
0.00338724
0.0267251
0.00322586
0.025814
0.00307538
0.0249418
0.00293495
0.0241061
0.00280382
0.0233051
0.00268128
0.0225367
0.00256671
0.0217992
0.0024595
0.0210907
0.00235916
0.0204096
0.00226519
0.0197544
0.00217717
0.0191236
0.00209468
0.0185157
0.00201741
0.0179294
0.00194497
0.0173635
0.00187715
0.0168167
0.00181357
0.0162879
0.00175411
0.015776
0.00169843
0.01528
0.00164645
0.0147988
0.00159786
0.0143315
0.00155264
0.0138772
0.00151049
0.0134349
0.00147142
0.0130039
0.00143518
0.0125834
0.00140177
0.0121724
0.001371
0.0117703
0.00134284
0.0113763
0.0013172
0.0109897
0.00129392
0.0106098
0.00127313
0.0102358
0.00125443
0.00986715
0.00123827
0.00950317
0.00122386
0.00914308
0.00121213
0.00878648
0.0012017
0.00843249
0.00119424
0.00808085
0.00118741
0.00773058
0.001184
0.00738166
0.00118026
0.00703295
0.00118061
0.00668479
0.0011792
0.00633576
0.00118303
0.00598682
0.00118271
0.00563593
0.00119
0.00528528
0.00118852
0.0049314
0.00120003
0.00457901
0.00119355
0.00422162
0.00121083
0.00386827
0.00119532
0.00350841
0.00121607
0.00315405
0.0011982
0.00279792
0.00119594
0.00243613
0.00122756
0.00210249
0.00110383
0.00171714
0.00131548
0.00141649
0.000988176
0.00105206
0.00120933
0.000703808
0.00120799
0.000448988
0.000763763
-9.57548e-06
0.00167584
-3.43622e-05
-0.000134231
-0.000759942
0.00260505
-0.00076646
0.000123499
-0.000847387
-0.000329608
-0.00179239
0.00398548
-0.00115114
-0.0028574
-0.00248738
0.00506489
-0.0017778
-0.00269446
-0.00228369
0.000995101
-0.00382061
0.00739452
-0.00120439
-0.0115273
-0.00519828
0.0157746
-0.00295925
-0.00812872
-0.00292592
-0.00265251
-0.00737986
0.0214989
-0.000414152
-0.0297935
-0.0100122
0.036615
-0.00671461
-0.0096158
-0.000609857
-0.0296579
-0.0136055
0.0592188
-0.00173694
-0.0467361
-0.00541066
0.00512969
-0.0106313
0.0284635
0.00132225
-0.0456732
0.000540117
-0.000917554
0.000206777
0.0010396
-0.00227669
0.0112035
0.00784829
0.0648798
0.0109148
-0.0643953
0.0654451
0.0114353
0.0660526
0.011913
0.066637
0.0123005
0.0671358
0.0125732
0.0675004
0.0127268
0.0676954
0.0127693
0.067697
0.012714
0.0674918
0.012576
0.0670758
0.0123696
0.0664525
0.0121074
0.0656326
0.0118
0.0646317
0.0114567
0.0634699
0.0110856
0.0621698
0.010694
0.0607555
0.0102881
0.0592513
0.00987393
0.0576808
0.00945672
0.0560657
0.00904116
0.0544254
0.0086313
0.0527769
0.00823051
0.0511342
0.00784148
0.0495091
0.00746624
0.0479105
0.00710623
0.0463457
0.00676236
0.0448198
0.00643512
0.0433365
0.00612461
0.0418983
0.00583068
0.0405065
0.00555295
0.0391619
0.0052909
0.0378644
0.00504392
0.0366135
0.00481132
0.0354083
0.00459239
0.0342478
0.0043864
0.0331306
0.00419263
0.0320551
0.00401037
0.03102
0.00383897
0.0300235
0.00367775
0.0290641
0.00352613
0.0281401
0.00338351
0.0272499
0.00324937
0.0263919
0.00312318
0.0255646
0.00300451
0.0247664
0.00289288
0.0239958
0.00278795
0.0232515
0.00268927
0.0225321
0.00259659
0.0218362
0.0025095
0.0211624
0.00242782
0.0205097
0.00235115
0.0198768
0.0022794
0.0192625
0.00221219
0.0186656
0.00214949
0.0180851
0.00209094
0.01752
0.00203655
0.0169692
0.001986
0.0164316
0.0019393
0.0159064
0.00189621
0.0153926
0.00185665
0.0148893
0.00182058
0.0143954
0.00178773
0.0139103
0.00175832
0.0134329
0.00173178
0.0129625
0.00170874
0.0124982
0.00168814
0.0120391
0.00167125
0.0115846
0.00165619
0.0111336
0.00164523
0.0106858
0.00163523
0.0102398
0.00162991
0.00979579
0.00162431
0.00935212
0.00162427
0.00890925
0.00162207
0.00846533
0.00162695
0.00802153
0.00162651
0.00757527
0.00163626
0.0071292
0.00163459
0.006679
0.00165022
0.0062304
0.00164215
0.0057754
0.00166582
0.00532507
0.00164565
0.00486627
0.00167486
0.00441423
0.00165024
0.00395863
0.00165154
0.00349774
0.00168844
0.00306713
0.00153444
0.00257856
0.00180406
0.00218758
0.00137915
0.00171944
0.00167747
0.00127814
0.0016493
0.000936456
0.00110544
0.000367817
0.00224448
0.000286343
-5.27364e-05
-0.000590798
0.00348219
-0.000602833
0.000135526
-0.000796946
-0.000135447
-0.00186591
0.00505444
-0.00118514
-0.00353817
-0.00276193
0.00664168
-0.00195019
-0.0035062
-0.00266371
0.00170865
-0.00431088
0.00904166
-0.00143852
-0.0143996
-0.00602147
0.0203576
-0.00340835
-0.0107419
-0.00368385
-0.002377
-0.00840412
0.0262191
-0.000593106
-0.0376045
-0.0117037
0.0477257
-0.00769073
-0.0136288
-0.00134115
-0.0360074
-0.0153
0.0731776
-0.00152713
-0.060509
-0.0067948
0.0103976
-0.0120086
0.0336773
0.00177787
-0.0594598
0.000676746
0.000183334
0.000396726
0.00131963
-0.00220577
0.013806
0.00879177
0.069453
0.0104873
-0.0690254
0.0699365
0.0109518
0.0704568
0.0113927
0.0709784
0.0117789
0.0714615
0.0120901
0.0718723
0.0123159
0.0721849
0.0124567
0.0723799
0.012519
0.0724431
0.0125128
0.0723645
0.0124482
0.0721373
0.0123347
0.0717576
0.0121797
0.0712247
0.0119896
0.070541
0.0117693
0.069712
0.011523
0.0687461
0.011254
0.0676545
0.0109655
0.0664506
0.0106606
0.0651493
0.0103424
0.0637665
0.0100141
0.0623183
0.00967877
0.0608202
0.00933957
0.059287
0.00899942
0.0577322
0.00866102
0.0561678
0.00832674
0.0546043
0.00799861
0.0530506
0.00767833
0.0515141
0.00736722
0.0500007
0.0070663
0.0485153
0.00677627
0.0470616
0.00649763
0.0456424
0.0062306
0.0442594
0.00597529
0.0429142
0.00573164
0.0416074
0.00549947
0.0403392
0.00527855
0.0391096
0.00506858
0.0379182
0.00486918
0.0367643
0.00468002
0.0356471
0.00450066
0.0345657
0.00433076
0.0335191
0.00416985
0.032506
0.00401763
0.0315252
0.00387364
0.0305756
0.00373759
0.0296558
0.00360906
0.0287646
0.00348781
0.0279006
0.00337342
0.0270627
0.00326572
0.0262496
0.0031643
0.0254599
0.00306906
0.0246925
0.00297959
0.0239462
0.00289585
0.0232197
0.00281746
0.0225118
0.00274442
0.0218214
0.00267638
0.0211474
0.00261333
0.0204885
0.00255504
0.0198438
0.00250137
0.0192121
0.00245231
0.0185923
0.00240751
0.0179833
0.00236728
0.0173843
0.00233087
0.0167938
0.00229915
0.0162113
0.00227069
0.0156353
0.00224722
0.0150653
0.00222623
0.0144998
0.00221076
0.0139383
0.00219666
0.0133794
0.00218885
0.0128229
0.00218081
0.0122669
0.00218022
0.011712
0.00217698
0.0111558
0.00218316
0.0105997
0.0021826
0.0100404
0.00219552
0.00948123
0.00219378
0.00891674
0.00221472
0.00835385
0.00220503
0.00778281
0.00223686
0.00721697
0.00221149
0.00664024
0.00225159
0.00607152
0.00221896
0.00549682
0.00222624
0.00491747
0.00226778
0.00436959
0.00208233
0.00375825
0.00241539
0.00325647
0.00188093
0.00266392
0.00227002
0.00211103
0.00220219
0.00165981
0.00155666
0.000965977
0.00293831
0.000804527
0.000108693
-0.000247889
0.00453461
-0.000265829
0.000153456
-0.000615983
0.000214666
-0.00180391
0.00624237
-0.00111585
-0.00422623
-0.00293794
0.00846379
-0.00203739
-0.00440675
-0.002991
0.00266228
-0.00473766
0.0107883
-0.00165913
-0.0174781
-0.00679495
0.0254934
-0.00383227
-0.0137046
-0.00447739
-0.00173166
-0.00941486
0.0311566
-0.000816849
-0.0462025
-0.0133133
0.0602222
-0.00864627
-0.018296
-0.00228262
-0.042371
-0.016945
0.0878399
-0.00123095
-0.0762231
-0.00806232
0.017229
-0.0133039
0.0389188
0.00205758
-0.0748212
0.000898088
0.00134311
0.000774603
0.00144312
-0.00180568
0.0163863
0.00909075
0.0743335
0.0101041
-0.0739504
0.0747578
0.0105275
0.0752123
0.0109382
0.0756763
0.011315
0.0761239
0.0116425
0.0765305
0.0119093
0.0768763
0.0121108
0.0771468
0.0122486
0.0773315
0.012328
0.0774231
0.0123565
0.0774159
0.0123419
0.0773047
0.0122909
0.0770852
0.0122091
0.0767534
0.0121011
0.0763062
0.0119701
0.0757418
0.0118184
0.0750599
0.0116475
0.0742621
0.0114584
0.0733525
0.011252
0.0723371
0.0110295
0.0712237
0.0107922
0.0700219
0.0105414
0.0687423
0.010279
0.0673963
0.010007
0.0659956
0.00972749
0.0645515
0.00944266
0.0630752
0.00915467
0.0615769
0.00886555
0.0600659
0.00857721
0.0585509
0.00829135
0.057039
0.00800945
0.0555368
0.0077328
0.0540497
0.00746244
0.0525821
0.00719923
0.0511378
0.00694383
0.0497196
0.00669672
0.0483299
0.00645829
0.0469703
0.00622873
0.0456422
0.00600819
0.0443462
0.00579668
0.0430827
0.00559419
0.041852
0.0054006
0.0406538
0.00521583
0.0394878
0.00503965
0.0383534
0.00487195
0.03725
0.00471244
0.0361768
0.00456103
0.0351329
0.00441736
0.0341172
0.00428137
0.0331289
0.00415267
0.0321667
0.00403126
0.0312295
0.00391672
0.0303163
0.00380908
0.0294258
0.00370794
0.0285569
0.00361336
0.0277083
0.00352497
0.0268788
0.00344277
0.0260673
0.00336656
0.0252725
0.00329616
0.0244932
0.00323163
0.0237282
0.0031725
0.0229762
0.00311927
0.0222362
0.00307092
0.0215067
0.00302868
0.0207867
0.00299064
0.0200748
0.00295914
0.0193701
0.00293089
0.018671
0.00290988
0.0179769
0.00289073
0.0172859
0.00287987
0.0165979
0.00286884
0.0159104
0.00286763
0.0152243
0.00286315
0.0145363
0.00287108
0.0138484
0.00287052
0.0131564
0.00288757
0.0124641
0.00288603
0.011765
0.00291384
0.0110673
0.0029027
0.0103592
0.00294497
0.00965667
0.00291401
0.00894018
0.00296808
0.00823288
0.00292626
0.00751635
0.00294276
0.00679602
0.00298811
0.00610716
0.00277118
0.00535018
0.00317237
0.00471333
0.00251778
0.00397217
0.00301118
0.00328533
0.00288903
0.00269769
0.0021443
0.00185907
0.00377693
0.00159046
0.000377323
0.000357049
0.00576802
0.000286605
0.000223893
-0.000250226
0.000751552
-0.00154737
0.00753951
-0.000894638
-0.00487896
-0.00296309
0.0105322
-0.00199167
-0.00537818
-0.00321662
0.00388726
-0.00506078
0.0126324
-0.00183657
-0.0207023
-0.00747785
0.0311347
-0.00419864
-0.0169838
-0.0052549
-0.000675556
-0.0103898