/*--------------------------------*- C++ -*----------------------------------*\
| =========                 |                                                 |
| \\      /  F ield         | OpenFOAM: The Open Source CFD Toolbox           |
|  \\    /   O peration     | Version:  2412                                  |
|   \\  /    A nd           | Website:  www.openfoam.com                      |
|    \\/     M anipulation  |                                                 |
\*---------------------------------------------------------------------------*/
FoamFile
{
    version     2.0;
    format      ascii;
    arch        "LSB;label=32;scalar=64";
    class       surfaceScalarField;
    location    "1.485";
    object      phi;
}
// * * * * * * * * * * * * * * * * * * * * * * * * * * * * * * * * * * * * * //

dimensions      [0 3 -1 0 0 0 0];

oriented        oriented;

internalField   nonuniform List<scalar> 
24930
(
0.0179925
0.0127828
-0.0307747
0.0106141
0.00737838
0.00695659
0.00365754
0.0051774
0.00177919
0.00420381
0.000973584
0.00358002
0.000623787
0.00313351
0.000446515
0.00279361
0.0003399
0.00252414
0.000269466
0.00230401
0.000220131
0.00212004
0.000183971
0.00196348
0.000156555
0.00182828
0.000135199
0.00171008
0.000118196
0.00160568
0.000104408
0.00151262
9.30518e-05
0.00142905
8.35711e-05
0.00135349
7.55627e-05
0.00128476
6.87276e-05
0.00122192
6.28406e-05
0.00116419
5.77285e-05
0.00111094
5.32569e-05
0.00106162
4.93198e-05
0.00101579
4.58327e-05
0.000973059
4.27275e-05
0.00093311
3.99488e-05
0.00089566
3.74511e-05
0.000860463
3.51968e-05
0.000827309
3.31547e-05
0.000796011
3.12983e-05
0.000766405
2.96056e-05
0.000738348
2.80577e-05
0.000711709
2.66385e-05
0.000686375
2.53342e-05
0.000662242
2.41329e-05
0.000639218
2.30243e-05
0.000617218
2.19993e-05
0.000596168
2.10504e-05
0.000575997
2.01703e-05
0.000556643
1.93536e-05
0.000538049
1.85944e-05
0.00052016
1.78886e-05
0.000502928
1.72313e-05
0.000486307
1.662e-05
0.000470257
1.60499e-05
0.000454736
1.552e-05
0.00043971
1.50256e-05
0.000425143
1.45668e-05
0.000411003
1.41386e-05
0.00039726
1.37429e-05
0.000383885
1.33737e-05
0.00037085
1.30344e-05
0.000358131
1.27183e-05
0.0003457
1.24305e-05
0.000333537
1.21627e-05
0.000321615
1.19221e-05
0.000309916
1.16988e-05
0.000298414
1.15022e-05
0.000287094
1.13203e-05
0.000275929
1.11647e-05
0.000264908
1.10218e-05
0.000254003
1.09048e-05
0.000243205
1.07985e-05
0.000232488
1.07178e-05
0.000221842
1.06463e-05
0.000211243
1.05992e-05
0.000200683
1.05604e-05
0.000190139
1.05438e-05
0.000179605
1.05351e-05
0.000169061
1.05441e-05
0.000158499
1.0562e-05
0.00014791
1.05897e-05
0.000137281
1.0629e-05
0.000126616
1.06657e-05
0.000115897
1.07194e-05
0.000105145
1.07516e-05
9.43345e-05
1.08108e-05
8.35129e-05
1.08216e-05
7.26371e-05
1.08758e-05
6.1793e-05
1.08441e-05
5.09109e-05
1.0882e-05
4.01277e-05
1.07832e-05
2.93342e-05
1.07935e-05
1.87326e-05
1.06016e-05
8.16018e-06
1.05724e-05
-2.10637e-06
1.02666e-05
-1.22976e-05
1.01912e-05
-2.20641e-05
9.76648e-06
-3.16716e-05
9.60754e-06
-4.07888e-05
9.11711e-06
-4.95942e-05
8.80537e-06
-5.79681e-05
8.37387e-06
-6.57593e-05
7.7911e-06
-7.33363e-05
7.577e-06
-8.00848e-05
6.74881e-06
-8.64447e-05
6.35984e-06
-9.33519e-05
6.90719e-06
-9.64192e-05
3.06702e-06
-0.000105993
9.5746e-06
-0.000105848
-1.43732e-07
-0.000106773
9.23004e-07
-0.000130058
2.32889e-05
-0.000112308
-1.77477e-05
-0.00012728
1.49697e-05
-0.000131691
4.41368e-06
-0.000128933
-2.65366e-06
-0.000157998
2.90678e-05
-0.00011509
-4.29147e-05
-0.000156249
4.11553e-05
-0.000201904
4.5663e-05
-0.000109669
-9.22468e-05
-0.000250218
0.000140551
-0.000183609
-6.66028e-05
-0.000161374
-2.22315e-05
-0.000254876
9.34992e-05
-0.000294985
4.01028e-05
-0.000854196
0.00055923
-0.00126469
0.000410532
-0.00107376
-0.000190943
-0.000466165
0.0337208
0.0163564
-0.0372944
0.0277724
0.0133267
0.022209
0.00922099
0.0179265
0.00606162
0.0148748
0.00402534
0.0127106
0.00278799
0.011121
0.00203611
0.00990211
0.00155876
0.00893355
0.00123803
0.00814219
0.0010115
0.00748117
0.000844988
0.00691913
0.000718586
0.00643427
0.000620066
0.00601086
0.000541602
0.00563729
0.000477972
0.00530478
0.000425568
0.00500652
0.00038183
0.00473719
0.000344896
0.00449253
0.000313387
0.00426911
0.000286262
0.00406411
0.00026272
0.00387523
0.000242138
0.00370053
0.000224027
0.00353837
0.000207995
0.00338737
0.000193727
0.00324635
0.000180966
0.0031143
0.000169502
0.00299034
0.000159161
0.00287369
0.000149798
0.0027637
0.000141292
0.00265977
0.000133539
0.00256137
0.000126453
0.00246805
0.000119958
0.0023794
0.000113992
0.00229503
0.000108499
0.00221462
0.000103432
0.00213787
9.87488e-05
0.00206451
9.44142e-05
0.00199428
9.03954e-05
0.00192697
8.66661e-05
0.00186236
8.32003e-05
0.00180027
7.99784e-05
0.00174052
7.69789e-05
0.00168295
7.41879e-05
0.00162742
7.15866e-05
0.00157377
6.91664e-05
0.00152188
6.69097e-05
0.00147164
6.48126e-05
0.00142292
6.28578e-05
0.00137561
6.10462e-05
0.00132962
5.93592e-05
0.00128485
5.7803e-05
0.00124121
5.63568e-05
0.00119861
5.5032e-05
0.00115697
5.38047e-05
0.0011162
5.26922e-05
0.00107623
5.16664e-05
0.00103698
5.07506e-05
0.000998389
4.9912e-05
0.000960374
4.91801e-05
0.000922879
4.8517e-05
0.000885826
4.79577e-05
0.000849165
4.746e-05
0.00081282
4.70634e-05
0.000776745
4.6722e-05
0.000740867
4.64772e-05
0.000705146
4.62826e-05
0.000669514
4.61763e-05
0.000633933
4.61164e-05
0.000598348
4.61299e-05
0.000562723
4.61877e-05
0.00052702
4.6294e-05
0.000491204
4.64453e-05
0.000455265
4.66054e-05
0.000419169
4.68167e-05
0.000382943
4.69776e-05
0.000346548
4.72063e-05
0.000310071
4.72994e-05
0.000273451
4.7496e-05
0.00023686
4.74354e-05
0.000200196
4.75462e-05
0.000163752
4.72271e-05
0.000127343
4.72025e-05
9.14382e-05
4.65062e-05
5.5704e-05
4.63066e-05
2.08656e-05
4.51049e-05
-1.36705e-05
4.47273e-05
-4.69159e-05
4.30119e-05
-7.96813e-05
4.23729e-05
-0.000110706
4.01418e-05
-0.000140968
3.90676e-05
-0.000169455
3.68604e-05
-0.000196445
3.47812e-05
-0.000222354
3.34856e-05
-0.00024559
2.99852e-05
-0.000268114
2.88842e-05
-0.000290818
2.9611e-05
-0.000303198
1.54472e-05
-0.000335457
4.18329e-05
-0.00033215
-3.45316e-06
-0.000347259
1.60332e-05
-0.000408113
8.41413e-05
-0.000361858
-6.40019e-05
-0.000412171
6.52842e-05
-0.000419468
1.171e-05
-0.000424609
2.38692e-06
-0.000500229
0.000104686
-0.000379132
-0.000164007
-0.000525235
0.000187258
-0.000620302
0.000140723
-0.000383971
-0.000328572
-0.000794926
0.000551504
-0.000584789
-0.000276742
-0.000571465
-3.55943e-05
-0.000846916
0.000368949
-0.00106056
0.000253749
-0.00273668
0.00223534
-0.00390502
0.00157886
-0.00314493
-0.000951015
-0.00185536
0.0414967
0.0160546
-0.0411949
0.0392004
0.015623
0.0352621
0.0131594
0.0309669
0.0103568
0.0270443
0.0079479
0.0237492
0.00608318
0.02107
0.00471527
0.0188976
0.00373111
0.0171172
0.0030185
0.0156357
0.00249292
0.0143842
0.00209648
0.0133123
0.00179057
0.0123828
0.00154953
0.0115683
0.00135609
0.010848
0.00119833
0.0102057
0.00106785
0.00962891
0.000958591
0.0091077
0.000866104
0.00863404
0.00078705
0.00820141
0.000718892
0.00780446
0.000659668
0.00743876
0.000607846
0.00710057
0.000562212
0.00678677
0.000521796
0.00649469
0.000485812
0.00622203
0.00045362
0.00596684
0.000424695
0.0057274
0.000398599
0.00550223
0.00037497
0.00529003
0.0003535
0.00508963
0.000333933
0.00490004
0.000316048
0.00472034
0.000299658
0.00454973
0.000284603
0.00438748
0.000270742
0.00423296
0.000257956
0.00408557
0.000246139
0.00394478
0.000235202
0.00381011
0.000225063
0.00368112
0.000215654
0.00355741
0.000206911
0.00343861
0.000198781
0.00332437
0.000191213
0.00321439
0.00018417
0.00310837
0.000177605
0.00300604
0.000171495
0.00290715
0.000165798
0.00281146
0.0001605
0.00271876
0.000155562
0.00262882
0.00015098
0.00254146
0.000146716
0.00245649
0.000142774
0.00237373
0.000139114
0.00229301
0.00013575
0.00221418
0.000132639
0.00213706
0.000129805
0.00206153
0.000127198
0.00198743
0.000124855
0.00191462
0.000122717
0.00184297
0.000120831
0.00177236
0.000119132
0.00170264
0.000117676
0.00163371
0.00011639
0.00156543
0.000115339
0.00149771
0.000114443
0.00143042
0.000113773
0.00136346
0.000113243
0.00129671
0.000112921
0.0012301
0.000112727
0.00116352
0.000112711
0.0010969
0.000112811
0.00103016
0.000113038
0.000963235
0.000113371
0.000896088
0.000113753
0.00082867
0.000114236
0.000760999
0.000114649
0.000693031
0.000115174
0.000624871
0.00011546
0.000556464
0.000115903
0.000488042
0.000115858
0.000419504
0.000116085
0.000351274
0.000115457
0.000283129
0.000115347
0.000215795
0.00011384
0.000148787
0.000113315
8.32951e-05
0.000110596
1.83721e-05
0.00010965
-4.41872e-05
0.000105571
-0.000105969
0.000104155
-0.000164505
9.86779e-05
-0.000221844
9.64065e-05
-0.000275673
9.06888e-05
-0.000327102
8.621e-05
-0.000376194
8.25779e-05
-0.000420536
7.43266e-05
-0.000463891
7.224e-05
-0.000506212
7.19313e-05
-0.000531906
4.11417e-05
-0.000591386
0.000101313
-0.00058545
-9.38525e-06
-0.000623287
5.38697e-05
-0.000720629
0.000181484
-0.000647713
-0.000136917
-0.000741693
0.000159265
-0.00074961
1.96288e-05
-0.00077094
2.37207e-05
-0.000891158
0.000224905
-0.000695454
-0.000359711
-0.00096366
0.000455463
-0.00109039
0.000267456
-0.000723102
-0.000695864
-0.00142341
0.00125181
-0.00105161
-0.000648543
-0.00109226
4.94624e-06
-0.00157947
0.00085616
-0.0020349
0.000709176
-0.00488894
0.00508939
-0.00674552
0.00343544
-0.00523426
-0.00246228
-0.00428091
0.0459614
0.014756
-0.0446628
0.0460415
0.0155429
0.0444576
0.0147433
0.0417272
0.0130871
0.0384763
0.0111988
0.0351644
0.0093951
0.0320595
0.00782014
0.0292763
0.00651428
0.0268337
0.0054611
0.0247055
0.0046211
0.0228505
0.00395149
0.0212266
0.00341446
0.0197966
0.0029796
0.018529
0.00262362
0.0173984
0.00232899
0.0163837
0.00208254
0.0154679
0.00187435
0.0146371
0.00169688
0.0138799
0.00154433
0.0131865
0.00141221
0.0125492
0.00129698
0.0119612
0.00119584
0.0114169
0.00110655
0.0109114
0.0010273
0.0104406
0.000956622
0.0100009
0.000893295
0.00958929
0.000836321
0.00920302
0.000784866
0.00883976
0.000738232
0.00849743
0.000695829
0.00817421
0.000657157
0.00786847
0.000621791
0.00757876
0.000589366
0.00730379
0.000559567
0.00704241
0.000532123
0.00679357
0.000506799
0.00655632
0.000483389
0.00632981
0.000461716
0.00611325
0.000441619
0.00590594
0.000422965
0.00570722
0.000405626
0.0055165
0.0003895
0.00533323
0.000374486
0.00515689
0.000360507
0.00498702
0.000347477
0.00482317
0.000335342
0.00466494
0.000324027
0.00451194
0.000313496
0.00436382
0.000303682
0.00422023
0.000294565
0.00408086
0.00028608
0.00394541
0.000278225
0.00381359
0.000270931
0.00368513
0.000264216
0.00355976
0.000258005
0.00343723
0.000252331
0.00331732
0.000247114
0.00319977
0.000242404
0.00308437
0.00023811
0.00297091
0.000234299
0.00285917
0.000230868
0.00274895
0.000227901
0.00264005
0.000225283
0.00253228
0.000223112
0.00242546
0.000221263
0.0023194
0.000219839
0.00221393
0.000218711
0.00210887
0.000217978
0.00200409
0.000217513
0.00189941
0.000217391
0.00179471
0.000217507
0.00168987
0.000217882
0.00158478
0.000218463
0.00147936
0.000219172
0.00137354
0.000220056
0.00126732
0.00022087
0.00116064
0.000221851
0.00105363
0.000222473
0.000946228
0.000223307
0.00083873
0.000223356
0.000731034
0.00022378
0.000623712
0.000222779
0.0005165
0.000222559
0.000410412
0.000219929
0.0003048
0.000218927
0.000201395
0.000214002
9.88119e-05
0.000212233
6.46758e-08
0.000204318
-9.80732e-05
0.000202293
-0.000190959
0.000191564
-0.000282182
0.00018763
-0.000367788
0.000176294
-0.000450024
0.000168446
-0.000528264
0.000160818
-0.000599466
0.000145529
-0.000669161
0.000141935
-0.000736132
0.000138902
-0.000779992
8.5002e-05
-0.000871481
0.000192802
-0.000865829
-1.50413e-05
-0.000933588
0.00012163
-0.00106872
0.000316613
-0.000970557
-0.000235076
-0.00111736
0.000306071
-0.00112532
2.759e-05
-0.00116985
6.8248e-05
-0.00133536
0.000390407
-0.00107059
-0.000624477
-0.00147377
0.000858645
-0.00161969
0.000413371
-0.00113373
-0.00118183
-0.0021442
0.00226228
-0.00159644
-0.00119631
-0.00173953
0.000148158
-0.00247498
0.00159161
-0.00323217
0.00146636
-0.00730335
0.00916057
-0.00974452
0.0058766
-0.00729512
-0.00491167
-0.00789404
0.0494291
0.0135626
-0.0482357
0.0503913
0.0145807
0.0504068
0.0147279
0.0493807
0.0141133
0.0475308
0.0130486
0.0451502
0.0117757
0.042511
0.0104594
0.03982
0.00920527
0.0372123
0.00806876
0.0347626
0.00707079
0.0325031
0.00621098
0.0304398
0.00547781
0.0285641
0.00485528
0.0268611
0.00432667
0.0253135
0.00387657
0.0239044
0.00349163
0.022618
0.00316068
0.0214404
0.00287455
0.0203589
0.00262577
0.0193629
0.00240825
0.0184428
0.00221705
0.0175905
0.00204814
0.0167989
0.00189819
0.0160617
0.00176448
0.0153736
0.00164475
0.0147297
0.00153711
0.0141261
0.00143998
0.0135589
0.00135204
0.013025
0.00127217
0.0125214
0.0011994
0.0120456
0.00113292
0.0115954
0.00107204
0.0111686
0.00101614
0.0107635
0.000964719
0.0103783
0.000917309
0.0100115
0.000873522
0.00966193
0.000833011
0.00932817
0.000795477
0.00900914
0.00076065
0.0087038
0.0007283
0.00841121
0.000698216
0.00813049
0.00067022
0.00786083
0.000644141
0.00760149
0.000619845
0.00735178
0.000597189
0.00711105
0.000576075
0.00687869
0.000556381
0.00665415
0.000538036
0.0064369
0.000520934
0.00622643
0.000505031
0.00602228
0.000490225
0.005824
0.0004765
0.00563118
0.000463754
0.0054434
0.000451996
0.00526028
0.000441119
0.00508145
0.000431159
0.00490657
0.000421999
0.00473527
0.0004137
0.00456725
0.000406133
0.00440217
0.000399383
0.00423973
0.000393306
0.00407962
0.000388012
0.00392156
0.00038334
0.00376525
0.00037942
0.00361044
0.000376075
0.00345683
0.000373448
0.00330419
0.000371351
0.00315225
0.000369923
0.00300079
0.000368976
0.00284956
0.000368618
0.00269838
0.000368686
0.00254705
0.000369214
0.00239541
0.000370101
0.00224334
0.000371247
0.00209071
0.000372684
0.00193751
0.000374075
0.00178365
0.000375711
0.00162926
0.000376858
0.00147429
0.000378281
0.00131909
0.000378553
0.00116356
0.000379313
0.00100843
0.000377908
0.000853387
0.000377605
0.000699775
0.00037354
0.000546761
0.000371941
0.0003967
0.000364063
0.000247716
0.000361217
0.00010368
0.000348354
-3.88833e-05
0.000344856
-0.000174433
0.000327113
-0.000307808
0.000321005
-0.000433057
0.000301543
-0.000553884
0.000289272
-0.000668583
0.000275518
-0.000773758
0.000250703
-0.000876543
0.000244721
-0.000974425
0.000236783
-0.00104249
0.000153064
-0.00117173
0.00032205
-0.00117075
-1.60243e-05
-0.00127632
0.000227209
-0.00145091
0.000491203
-0.00133063
-0.000355354
-0.00153982
0.000515255
-0.00154771
3.5487e-05
-0.00162362
0.000144159
-0.00183543
0.000602217
-0.00150964
-0.000950273
-0.00205871
0.00140772
-0.00221338
0.000568039
-0.0016242
-0.001771
-0.0029629
0.00360098
-0.00223118
-0.00192803
-0.00253105
0.000448058
-0.00355012
0.00261068
-0.0046629
0.00257914
-0.00995228
0.01445
-0.0128506
0.00877492
-0.00926546
-0.00849682
-0.0128768
0.0528891
0.0126653
-0.0519918
0.0539164
0.0135534
0.0545986
0.0140457
0.0546651
0.0140467
0.0540632
0.0136505
0.0528623
0.0129767
0.0511916
0.01213
0.0491979
0.011199
0.0470161
0.0102506
0.0447569
0.00932996
0.0425028
0.00846506
0.04031
0.00767063
0.0382131
0.00695217
0.0362307
0.00630911
0.03437
0.0057372
0.0326314
0.00523027
0.0310106
0.00478146
0.0295013
0.00438394
0.0280957
0.00403133
0.0267861
0.00371786
0.0255647
0.00343845
0.0244241
0.00318868
0.0233576
0.00296472
0.0223588
0.00276331
0.0214219
0.00258162
0.0205418
0.00241724
0.0197137
0.0022681
0.0189333
0.00213242
0.0181968
0.00200866
0.0175007
0.0018955
0.0168418
0.00179178
0.0162174
0.00169652
0.0156247
0.00160884
0.0150614
0.00152798
0.0145254
0.00145329
0.0140148
0.00138418
0.0135276
0.00132014
0.0130624
0.00126071
0.0126175
0.0012055
0.0121917
0.00115415
0.0117836
0.00110634
0.011392
0.0010618
0.0110159
0.00102027
0.0106542
0.000981542
0.010306
0.000945399
0.00997035
0.000911682
0.00964652
0.000880208
0.00933369
0.000850863
0.00903113
0.000823485
0.00873816
0.000798
0.00845413
0.000774256
0.00817841
0.000752217
0.00791043
0.000731736
0.00764961
0.000712813
0.00739543
0.000695295
0.00714737
0.00067922
0.00690495
0.000664425
0.00666766
0.000650982
0.00643508
0.000638715
0.00620674
0.000627729
0.00598221
0.000617828
0.00576108
0.000609152
0.00554293
0.000601483
0.00532737
0.000594989
0.00511401
0.000589432
0.00490246
0.000584998
0.00469238
0.00058143
0.0044834
0.000578912
0.00427519
0.000577184
0.00406742
0.000576391
0.00385981
0.000576297
0.00365207
0.000576952
0.00344398
0.000578195
0.00323533
0.000579895
0.00302596
0.000582059
0.00281579
0.000584242
0.00260472
0.000586787
0.00239287
0.000588706
0.00218016
0.00059099
0.00196703
0.000591679
0.00175335
0.000592996
0.00154004
0.000591217
0.00132671
0.000590932
0.00111511
0.000585147
0.000904162
0.000582886
0.000696956
0.000571268
0.000491061
0.000567112
0.000291598
0.000547817
9.39893e-05
0.000542465
-9.42463e-05
0.000515349
-0.000279846
0.000506605
-0.000454327
0.000476024
-0.000623266
0.000458212
-0.000783373
0.000435624
-0.000931287
0.000398617
-0.00107543
0.000388862
-0.00121196
0.00037332
-0.00131176
0.000252864
-0.00148563
0.000495911
-0.00149538
-6.27774e-06
-0.00164746
0.000379288
-0.00186378
0.000707522
-0.00172677
-0.000492366
-0.00200788
0.000796373
-0.00201647
4.40709e-05
-0.00213327
0.000260964
-0.00239279
0.000861739
-0.00201657
-0.0013265
-0.00272014
0.00211129
-0.00287609
0.000723984
-0.00220241
-0.00244468
-0.00388347
0.00528204
-0.00296838
-0.00284312
-0.00348335
0.000963028
-0.00481676
0.00394409
-0.00632904
0.00409142
-0.0127889
0.0209098
-0.0159998
0.0119858
-0.0110698
-0.0134268
-0.0194503
0.056611
0.0119789
-0.0559246
0.0574636
0.0127007
0.058259
0.0132502
0.0587842
0.0135215
0.0589169
0.0135179
0.058611
0.0132825
0.0578761
0.012865
0.0567599
0.0123152
0.055331
0.0116795
0.0536649
0.010996
0.0518352
0.0102948
0.0499074
0.00959844
0.0479362
0.00892338
0.0459647
0.0082806
0.0440251
0.00767685
0.0421398
0.00711557
0.0403235
0.0065977
0.038585
0.00612246
0.0369284
0.00568792
0.0353548
0.00529146
0.0338631
0.00493016
0.0324508
0.00460099
0.0311145
0.00430099
0.0298505
0.00402735
0.0286546
0.00377748
0.0275229
0.00354901
0.0264512
0.00333979
0.0254357
0.00314789
0.0244728
0.00297161
0.0235589
0.0028094
0.0226907
0.00265991
0.0218653
0.00252191
0.0210798
0.00239434
0.0203316
0.00227624
0.0196181
0.00216676
0.0189372
0.00206513
0.0182866
0.00197068
0.0176645
0.00188282
0.017069
0.00180099
0.0164984
0.00172472
0.0159512
0.00165358
0.0154258
0.00158717
0.0149209
0.00152516
0.0144353
0.00146723
0.0139676
0.00141309
0.0135167
0.00136252
0.0130817
0.00131525
0.0126614
0.00127112
0.012255
0.00122989
0.0118615
0.00119147
0.0114802
0.00115563
0.0111101
0.00112232
0.0107505
0.00109133
0.0104006
0.00106264
0.0100599
0.00103606
0.00972746
0.00101162
0.00940278
0.000989104
0.00908517
0.00096859
0.00877404
0.000949846
0.00846877
0.000933001
0.0081688
0.000917796
0.00787354
0.000904406
0.00758248
0.000892546
0.00729504
0.000882427
0.00701074
0.000873736
0.00672903
0.000866712
0.00644944
0.000861015
0.00617147
0.000856884
0.00589469
0.00085397
0.00561862
0.000852461
0.00534288
0.000852035
0.00506708
0.000852759
0.00479088
0.000854395
0.00451399
0.00085678
0.00423617
0.00085988
0.0039573
0.000863119
0.00367719
0.000866897
0.00339598
0.000869917
0.00311353
0.000873433
0.00283038
0.000874831
0.00254633
0.000877042
0.00226254
0.000875008
0.00197852
0.000874958
0.00169644
0.000867225
0.00141499
0.000864332
0.00113809
0.000848173
0.000862671
0.00084253
0.000595302
0.000815186
0.00033014
0.000807627
7.70246e-05
0.000768464
-0.000172985
0.000756615
-0.000408376
0.000711415
-0.000637056
0.000686892
-0.000853517
0.000652085
-0.00105496
0.000600061
-0.00125058
0.000584484
-0.00143537
0.00055811
-0.00157624
0.000393733
-0.00180304
0.000722709
-0.00183166
2.23499e-05
-0.00203985
0.000587487
-0.00230122
0.000968884
-0.00215543
-0.000638153
-0.0025178
0.00115874
-0.00252917
5.5444e-05
-0.00269779
0.000429585
-0.00300706
0.00117101
-0.00259345
-0.0017401
-0.0034577
0.00297554
-0.00361163
0.000877907
-0.0028747
-0.00318161
-0.00490801
0.00731535
-0.00381961
-0.00393153
-0.00460929
0.00175272
-0.00627914
0.00561394
-0.00822045
0.00603273
-0.0157451
0.0284345
-0.0191132
0.0153538
-0.0126206
-0.0199193
-0.0278842
0.060618
0.0114162
-0.0600553
0.0613018
0.012017
0.0620155
0.0125365
0.0626364
0.0129006
0.0630668
0.0130874
0.0632429
0.0131065
0.0631288
0.012979
0.0627141
0.0127298
0.062009
0.0123846
0.0610382
0.0119669
0.059836
0.0114969
0.0584424
0.0109921
0.0568985
0.0104673
0.0552445
0.00993455
0.0535175
0.00940388
0.0517499
0.00888317
0.0499691
0.0083785
0.0481972
0.00789429
0.0464516
0.00743352
0.0447451
0.00699796
0.0430869
0.00658839
0.0414831
0.00620479
0.0399375
0.00584661
0.0384519
0.00551289
0.037027
0.00520241
0.0356622
0.00491382
0.0343563
0.0046457
0.0331075
0.00439664
0.0319139
0.00416523
0.0307732
0.00395017
0.0296829
0.00375019
0.0286407
0.00356413
0.0276441
0.0033909
0.0266908
0.00322951
0.0257785
0.00307905
0.024905
0.00293866
0.0240681
0.00280758
0.0232658
0.00268513
0.0224961
0.00257066
0.0217572
0.0024636
0.0210474
0.00236341
0.020365
0.00226963
0.0197083
0.00218181
0.019076
0.00209958
0.0184665
0.00202255
0.0178786
0.00195044
0.0173109
0.0018829
0.0167623
0.00181973
0.0162316
0.00176062
0.0157176
0.00170542
0.0152194
0.00165385
0.0147359
0.00160583
0.0142661
0.00156109
0.0138092
0.0015196
0.0133641
0.0014811
0.0129301
0.00144563
0.0125063
0.00141289
0.0120919
0.00138299
0.0116862
0.00135563
0.0112882
0.00133096
0.0108974
0.00130865
0.0105128
0.00128892
0.010134
0.0012714
0.00976006
0.00125636
0.00939041
0.00124339
0.00902432
0.0012328
0.00866119
0.00122414
0.00830035
0.00121773
0.00794121
0.00121311
0.00758315
0.00121052
0.00722566
0.00120953
0.00686818
0.00121023
0.00651028
0.0012123
0.00615154
0.00121552
0.0057916
0.00121982
0.00543027
0.00122445
0.00506728
0.00122989
0.00470275
0.00123445
0.00433648
0.00123971
0.00396907
0.00124224
0.00360027
0.00124585
0.00323146
0.00124381
0.00286203
0.00124438
0.00249468
0.00123458
0.00212778
0.00123123
0.00176619
0.00120976
0.00140615
0.00120257
0.00105588
0.00116546
0.000708125
0.00115538
0.000375249
0.00110134
4.61939e-05
0.00108567
-0.000264295
0.0010219
-0.000566926
0.000989524
-0.000853131
0.00093829
-0.00112137
0.000868302
-0.00138088
0.000843993
-0.0016258
0.000803033
-0.00181928
0.000587213
-0.0021092
0.00101262
-0.00216712
8.02704e-05
-0.00244221
0.000862572
-0.00275356
0.00128024
-0.00260983
-0.000781888
-0.00306231
0.00161123
-0.00308062
7.37538e-05
-0.00331326
0.000662228
-0.00367528
0.00153302
-0.00323956
-0.00217582
-0.00426822
0.0040042
-0.00442212
0.0010318
-0.00364459
-0.00395912
-0.00603595
0.0097067
-0.00479397
-0.00517351
-0.0059153
0.00287405
-0.00793085
0.00762949
-0.0103119
0.00841375
-0.0187297
0.0368523
-0.0220964
0.0187205
-0.0138167
-0.028199
-0.0385047
0.064904
0.0109319
-0.0644198
0.0654689
0.0114522
0.0660758
0.0119296
0.0666596
0.0123168
0.0671577
0.0125893
0.0675216
0.0127426
0.0677158
0.0127848
0.0677163
0.0127293
0.0675099
0.012591
0.0670925
0.0123843
0.0664676
0.0121218
0.0656458
0.0118139
0.0646429
0.0114702
0.0634788
0.0110986
0.0621762
0.0107064
0.0607593
0.0103
0.0592525
0.0098853
0.0576793
0.00946751
0.0560614
0.00905138
0.0544185
0.00864096
0.0527672
0.00823963
0.0511219
0.00785008
0.0494942
0.00747436
0.0478932
0.00711391
0.0463259
0.00676964
0.0447977
0.00644203
0.0433122
0.0061312
0.0418719
0.00583699
0.0404781
0.00555902
0.0391315
0.00529677
0.0378321
0.00504962
0.0365793
0.0048169
0.0353723
0.00459788
0.03421
0.00439184
0.033091
0.00419805
0.0320138
0.00401582
0.030977
0.00384446
0.0299787
0.00368334
0.0290176
0.00353184
0.0280918
0.00338938
0.0271998
0.00325542
0.0263399
0.00312948
0.0255107
0.00301105
0.0247105
0.00289975
0.0239379
0.00279514
0.0231915
0.00269688
0.0224698
0.00260458
0.0217715
0.00251801
0.0210953
0.00243679
0.02044
0.00236075
0.0198043
0.00228956
0.019187
0.0022231
0.018587
0.00216106
0.0180032
0.0021034
0.0174346
0.00204978
0.0168799
0.00200025
0.0163384
0.00195446
0.0158088
0.00191254
0.0152904
0.00187409
0.014782
0.00183932
0.0142828
0.00180781
0.0137919
0.00177983
0.0133084
0.00175492
0.0128314
0.00173342
0.0123599
0.00171481
0.0118933
0.00169948
0.0114305
0.00168688
0.0109709
0.00167739
0.0105136
0.00167042
0.0100578
0.00166631
0.00960282
0.00166448
0.009148
0.00166506
0.00869269
0.00166761
0.00823635
0.00167186
0.00777847
0.0016777
0.00731875
0.00168417
0.0068568
0.00169184
0.00639271
0.00169853
0.00592617
0.00170625
0.00545788
0.00171054
0.00498745
0.00171627
0.00451657
0.0017147
0.00404442
0.00171652
0.0035743
0.0017047
0.00310422
0.00170131
0.00264013
0.00167386
0.00217747
0.00166522
0.00172635
0.00161658
0.00127793
0.0016038
0.000847543
0.00153173
0.000421543
0.00151167
1.91097e-05
0.00142434
-0.000375159
0.00138379
-0.000747473
0.0013106
-0.00109879
0.00121962
-0.0014374
0.0011826
-0.00175715
0.00112278
-0.00201748
0.000847547
-0.00238302
0.00137816
-0.00248345
0.000180704
-0.0028377
0.00121682
-0.00320631
0.00164886
-0.00307853
-0.000909674
-0.00362952
0.00216223
-0.00366169
0.000105927
-0.00397167
0.000972208
-0.00439084
0.00195219
-0.00395024
-0.00261641
-0.00514488
0.00519883
-0.00530673
0.00119364
-0.00451114
-0.0047547
-0.00726273
0.0124583
-0.00589527
-0.00654098
-0.00739791
0.0043767
-0.00975103
0.00998262
-0.0125599
0.0112226
-0.0216271
0.0459195
-0.0248359
0.0219293
-0.0145413
-0.0384937
-0.0516924
0.0694779
0.0105046
-0.0690505
0.069961
0.010969
0.0704809
0.0114097
0.0710019
0.0117958
0.0714844
0.0121068
0.0718945
0.0123325
0.0722064
0.012473
0.0724005
0.0125352
0.0724628
0.0125287
0.0723832
0.0124639
0.0721547
0.0123502
0.0717736
0.012195
0.0712391
0.0120046
0.0705537
0.0117841
0.0697227
0.0115374
0.0687546
0.0112681
0.0676606
0.0109793
0.0664542
0.010674
0.0651502
0.0103553
0.0637647
0.0100265
0.0623136
0.00969072
0.0608126
0.00935106
0.0592765
0.00901045
0.0577188
0.00867159
0.0561516
0.00833688
0.0545853
0.00800836
0.0530288
0.00768771
0.0514895
0.00737626
0.0499735
0.00707503
0.0484855
0.00678475
0.0470293
0.00650587
0.0456075
0.00623867
0.0442221
0.00598322
0.0428745
0.00573948
0.0415653
0.00550727
0.0402948
0.00528635
0.0390628
0.0050764
0.0378691
0.0048771
0.0367128
0.00468806
0.0355933
0.00450889
0.0345096
0.00433919
0.0334604
0.00417858
0.0324448
0.00402665
0.0314615
0.00388307
0.0305093
0.00374742
0.0295867
0.00361941
0.0286927
0.00349865
0.0278257
0.00338491
0.0269847
0.00327782
0.0261683
0.0031772
0.0253751
0.00308268
0.0246041
0.00299418
0.0238538
0.00291131
0.0231231
0.00283407
0.0224108
0.00276205
0.0217157
0.00269535
0.0210367
0.00263353
0.0203725
0.00257675
0.019722
0.00252457
0.0190841
0.00247723
0.0184577
0.00243422
0.0178416
0.00239589
0.0172348
0.00236168
0.0166363
0.002332
0.0160448
0.00230623
0.0154595
0.00228485
0.0148792
0.00226718
0.0143029
0.00225371
0.0137296
0.00224371
0.0131583
0.00223759
0.0125881
0.00223463
0.0120182
0.00223501
0.0114476
0.00223816
0.0108757
0.00224375
0.0103018
0.00225161
0.00972547
0.00226053
0.0091461
0.0022712
0.00856377
0.00228087
0.00797799
0.00229202
0.00738955
0.00229897
0.00679792
0.0023079
0.00620506
0.00230756
0.00560996
0.00231162
0.00501655
0.00229812
0.00442242
0.00229545
0.00383474
0.00226153
0.00324811
0.00225186
0.00267471
0.00218998
0.00210402
0.00217449
0.00155471
0.00208104
0.00101025
0.00205613
0.000493985
0.0019406
-1.19654e-05
0.00188974
-0.000490363
0.001789
-0.000944714
0.00167397
-0.0013811
0.00161899
-0.00179378
0.00153546
-0.00213854
0.0011923
-0.00259516
0.00183479
-0.00275448
0.000340024
-0.00320222
0.00166455
-0.0036384
0.00208504
-0.00354373
-0.00100434
-0.00420134
0.00281984
-0.00425788
0.000162467
-0.00465933
0.00137366
-0.0051419
0.00243477
-0.00471529
-0.00304303
-0.00607598
0.00655953
-0.00625982
0.00137746
-0.00546686
-0.00554765
-0.00857787
0.0155693
-0.00711858
-0.00800028
-0.0090398
0.00629793
-0.0117005
0.0126433
-0.0149007
0.0144228
-0.0242972
0.055316
-0.0271924
0.0248245
-0.0146589
-0.0510271
-0.0679573
0.074359
0.0101217
-0.0739761
0.074783
0.010545
0.0752371
0.0109556
0.0757006
0.0113323
0.0761476
0.0116598
0.0765536
0.0119265
0.0768988
0.0121278
0.0771685
0.0122655
0.0773524
0.0123448
0.0774432
0.0123732
0.077435
0.0123584
0.0773227
0.0123073
0.077102
0.0122254
0.0767688
0.0121172
0.0763201
0.0119861
0.075754
0.0118342
0.0750702
0.0116631
0.0742703
0.0114738
0.0733584
0.0112672
0.0723405
0.0110445
0.0712245
0.0108068
0.0700199
0.0105557
0.0687374
0.0102929
0.0673884
0.0100206
0.0659845
0.00974073
0.0645374
0.00945556
0.0630578
0.00916722
0.0615563
0.00887778
0.0600422
0.00858914
0.058524
0.00830299
0.057009
0.00802086
0.0555037
0.007744
0.0540134
0.00747347
0.0525427
0.00721014
0.0510953
0.00695467
0.0496741
0.00670756
0.0482814
0.00646915
0.0469188
0.00623968
0.0455876
0.00601927
0.0442885
0.00580796
0.043022
0.00560571
0.0417881
0.00541246
0.0405867
0.00522805
0.0394174
0.00505235
0.0382797
0.00488514
0.0371728
0.00472627
0.036096
0.00457547
0.0350483
0.00443261
0.0340288
0.00429738
0.0330363
0.00416969
0.0320697
0.0040492
0.031128
0.00393588
0.03021
0.00382936
0.0293144
0.00372968
0.02844
0.00363642
0.0275856
0.00354973
0.02675
0.00346914
0.0259319
0.00339488
0.02513
0.00332642
0.0243431
0.00326411
0.02357
0.00320734
0.0228093
0.00315657
0.0220599
0.00311112
0.0213204
0.00307154
0.0205895
0.00303706
0.0198661
0.00300832
0.0191488
0.00298446
0.0184364
0.00296612
0.0177277
0.00295241
0.0170214
0.00294385
0.0163165
0.00293957
0.0156117
0.00293979
0.0149061
0.0029438
0.0141986
0.00295121
0.0134884
0.0029618
0.0127749
0.00297406
0.0120573
0.00298884
0.0113355
0.00300265
0.0106089
0.00301863
0.00987829
0.00302955
0.00914298
0.00304321
0.00840524
0.0030453
0.00766375
0.00305312
0.00692318
0.00303869
0.00618061
0.00303801
0.00544463
0.00299752
0.00470881
0.00298768
0.00398777
0.00291102
0.00326907
0.00289318
0.00257521
0.00277489
0.00188644
0.00274491
0.0012314
0.00259564
0.000587919
0.00253322
-2.06129e-05
0.00239753
-0.000602604
0.00225596
-0.00115977
0.00217616
-0.00168767
0.00206335
-0.0021385
0.00164314
-0.00270536
0.00240165
-0.00294367
0.000578333
-0.0035021
0.00222299
-0.00401987
0.0026028
-0.00397902
-0.00104519
-0.0047516
0.00359243
-0.00484731
0.000258176
-0.0053549
0.00188125