/*--------------------------------*- C++ -*----------------------------------*\
| =========                 |                                                 |
| \\      /  F ield         | OpenFOAM: The Open Source CFD Toolbox           |
|  \\    /   O peration     | Version:  2412                                  |
|   \\  /    A nd           | Website:  www.openfoam.com                      |
|    \\/     M anipulation  |                                                 |
\*---------------------------------------------------------------------------*/
FoamFile
{
    version     2.0;
    format      ascii;
    arch        "LSB;label=32;scalar=64";
    class       surfaceScalarField;
    location    "0.475";
    object      phi;
}
// * * * * * * * * * * * * * * * * * * * * * * * * * * * * * * * * * * * * * //

dimensions      [0 3 -1 0 0 0 0];

oriented        oriented;

internalField   nonuniform List<scalar> 
24930
(
0.0179671
0.0127512
-0.0307183
0.0106055
0.00736164
0.0069558
0.00364967
0.00518001
0.0017758
0.004208
0.000972009
0.00358508
0.000622913
0.00313915
0.000445936
0.0027996
0.00033955
0.00253038
0.000269219
0.00231042
0.000219953
0.00212659
0.000183841
0.00197013
0.000156459
0.001835
0.000135126
0.00171686
0.000118138
0.0016125
0.00010436
0.00151949
9.30123e-05
0.00143595
8.35397e-05
0.00136042
7.55361e-05
0.00129172
6.87013e-05
0.0012289
6.28124e-05
0.0011712
5.77e-05
0.00111798
5.32292e-05
0.00106869
4.92914e-05
0.00102289
4.58004e-05
0.000980192
4.26899e-05
0.000940282
3.9907e-05
0.000902875
3.74067e-05
0.000867726
3.51493e-05
0.000834624
3.31022e-05
0.000803385
3.12404e-05
0.000773844
2.95429e-05
0.000745856
2.799e-05
0.000719294
2.6564e-05
0.000694043
2.52508e-05
0.000670001
2.40399e-05
0.000647076
2.29221e-05
0.000625185
2.18879e-05
0.000604253
2.0929e-05
0.000584211
2.00392e-05
0.000564996
1.92135e-05
0.000546552
1.8446e-05
0.000528824
1.77304e-05
0.000511765
1.70606e-05
0.000495331
1.64343e-05
0.000479481
1.58484e-05
0.000464177
1.53023e-05
0.000449385
1.47913e-05
0.000435068
1.43157e-05
0.0004212
1.387e-05
0.000407746
1.34558e-05
0.000394683
1.30661e-05
0.000381981
1.27033e-05
0.00036962
1.23614e-05
0.000357572
1.20458e-05
0.00034582
1.17503e-05
0.000334339
1.14799e-05
0.000323111
1.12273e-05
0.000312116
1.09956e-05
0.000301335
1.0781e-05
0.000290752
1.05807e-05
0.000280348
1.04002e-05
0.000270111
1.02302e-05
0.000260021
1.00855e-05
0.000250068
9.95129e-06
0.000240234
9.84021e-06
0.000230509
9.73733e-06
0.000220876
9.64526e-06
0.000211326
9.56304e-06
0.000201847
9.48146e-06
0.000192426
9.41701e-06
0.000183062
9.34955e-06
0.000173733
9.31108e-06
0.000164453
9.26393e-06
0.000155181
9.25717e-06
0.000145961
9.21933e-06
0.000136725
9.2405e-06
0.000127546
9.19224e-06
0.000118327
9.23688e-06
0.000109174
9.17097e-06
9.99644e-05
9.22741e-06
9.08234e-05
9.14808e-06
8.16313e-05
9.19379e-06
7.24911e-05
9.13114e-06
6.33188e-05
9.15653e-06
5.41247e-05
9.17582e-06
4.49405e-05
9.15873e-06
3.56883e-05
9.23262e-06
2.65754e-05
9.09959e-06
1.7411e-05
9.17004e-06
8.4809e-06
8.95757e-06
-5.20304e-07
9.03573e-06
-9.5199e-06
9.03597e-06
-1.86534e-05
9.15087e-06
-2.74828e-05
8.83369e-06
-3.67692e-05
9.27931e-06
-4.5234e-05
8.45045e-06
-5.43183e-05
9.06791e-06
-6.27636e-05
8.43159e-06
-7.44615e-05
1.16839e-05
-8.45922e-05
1.01089e-05
-9.55263e-05
1.09193e-05
-0.000100699
5.1784e-06
-0.000109237
8.55621e-06
-0.000124156
1.49282e-05
-0.000188333
6.41779e-05
-0.000287963
9.96316e-05
-0.000377523
8.95636e-05
-0.000345702
-3.18442e-05
-0.000227527
-0.000118179
-6.40091e-05
-0.000163522
5.8079e-05
-0.000122089
0.00012879
-7.07095e-05
0.000144883
-1.60804e-05
0.000150006
-5.10614e-06
0.000180891
-3.08804e-05
0.000212679
-3.1787e-05
0.00031487
-0.000102192
0.000404972
-9.01049e-05
0.000534954
-0.000129985
-0.000186878
0.0336759
0.0163107
-0.0372354
0.0277442
0.0132933
0.0221954
0.00919855
0.0179236
0.00604753
0.014879
0.00401668
0.0127194
0.00278252
0.0111328
0.00203248
0.00991612
0.00155624
0.00894913
0.0012362
0.00815896
0.00101013
0.00749886
0.000843941
0.00693756
0.000717764
0.00645327
0.000619407
0.00603035
0.000541063
0.00565718
0.000477522
0.00532501
0.000425188
0.00502704
0.000381504
0.00475797
0.00034461
0.00451354
0.000313127
0.00429034
0.000286018
0.00408555
0.00026249
0.00389687
0.000241918
0.00372235
0.000223811
0.00356037
0.000207775
0.00340956
0.000193499
0.00326874
0.000180729
0.0031369
0.000169255
0.00301315
0.000158901
0.00289673
0.000149521
0.00278697
0.000140995
0.00268329
0.000133221
0.00258517
0.000126112
0.00249214
0.000119592
0.00240379
0.000113597
0.00231975
0.000108073
0.0022397
0.000102973
0.00216334
9.82559e-05
0.00209038
9.38831e-05
0.0020206
8.98237e-05
0.00195377
8.60516e-05
0.00188967
8.25413e-05
0.00182813
7.92706e-05
0.00176897
7.62182e-05
0.00171203
7.33688e-05
0.00165717
7.0707e-05
0.00160425
6.8221e-05
0.00155315
6.58962e-05
0.00150374
6.37241e-05
0.00145592
6.16918e-05
0.00140958
5.97945e-05
0.00136462
5.80199e-05
0.00132096
5.63639e-05
0.00127851
5.48162e-05
0.00123718
5.33755e-05
0.0011969
5.20336e-05
0.00115759
5.07892e-05
0.00111918
4.96337e-05
0.00108162
4.8565e-05
0.00104482
4.75789e-05
0.00100873
4.66683e-05
0.00097329
4.58387e-05
0.000938448
4.50743e-05
0.000904144
4.43902e-05
0.000870334
4.37625e-05
0.00083696
4.32117e-05
0.000803983
4.27093e-05
0.000771351
4.22732e-05
0.000739029
4.18809e-05
0.000706972
4.15387e-05
0.000675144
4.12475e-05
0.000643521
4.09821e-05
0.000612053
4.07894e-05
0.000580746
4.05792e-05
0.000549526
4.04827e-05
0.000518447
4.02964e-05
0.00048739
4.02939e-05
0.000456472
4.01009e-05
0.000425515
4.01823e-05
0.000394707
3.99684e-05
0.000363815
4.01085e-05
0.000333083
3.9878e-05
0.000302268
4.00106e-05
0.000271598
3.98097e-05
0.000240845
3.99185e-05
0.000210099
3.99324e-05
0.000179319
3.99527e-05
0.000148542
4.00194e-05
0.000118017
3.96325e-05
8.76809e-05
3.94998e-05
5.7728e-05
3.88911e-05
2.7866e-05
3.88743e-05
-2.0926e-06
3.89702e-05
-3.17768e-05
3.88255e-05
-6.15532e-05
3.86094e-05
-9.11955e-05
3.89303e-05
-0.000119991
3.72608e-05
-0.000148385
3.74749e-05
-0.000178049
3.81064e-05
-0.000213476
4.71174e-05
-0.000248279
4.49241e-05
-0.000279024
4.16755e-05
-0.000300947
2.70976e-05
-0.000325969
3.35658e-05
-0.000388012
7.69632e-05
-0.000587166
0.00026333
-0.000894573
0.000407038
-0.00112432
0.000319308
-0.001009
-0.000147136
-0.000613906
-0.000513266
-0.000118371
-0.000659058
0.000257168
-0.000497631
0.000468594
-0.000282138
0.000520392
-6.78901e-05
0.000555894
-4.06204e-05
0.000655949
-0.000130939
0.000789065
-0.000164903
0.00110838
-0.000421509
0.00141306
-0.000394781
0.00183913
-0.000556047
-0.000770864
0.0414441
0.0160032
-0.0411366
0.0391586
0.0155789
0.0352333
0.0131238
0.0309511
0.0103297
0.0270398
0.00792795
0.0237536
0.00606875
0.0210813
0.00470481
0.0189141
0.00372342
0.0171376
0.00301271
0.0156593
0.00248846
0.0144102
0.00209298
0.0133402
0.00178777
0.0124124
0.00154725
0.0115992
0.00135419
0.01088
0.00119673
0.0102387
0.00106649
0.00966282
0.000957414
0.00914236
0.000865067
0.00866937
0.000786118
0.00823735
0.000718037
0.00784097
0.000658875
0.00747579
0.000607099
0.00713811
0.000561493
0.0068248
0.000521089
0.00653319
0.000485107
0.00626101
0.000452909
0.00600629
0.000423971
0.00576734
0.000397853
0.00554267
0.000374193
0.00533098
0.000352687
0.00513112
0.000333078
0.00494209
0.000315145
0.00476298
0.0002987
0.00459299
0.000283582
0.00443141
0.000269654
0.00427758
0.000256796
0.00413094
0.000244901
0.00399095
0.000233878
0.00385713
0.000223645
0.00372905
0.000214135
0.0036063
0.000205284
0.00348853
0.000197038
0.0033754
0.000189346
0.0032666
0.000182166
0.00316185
0.00017546
0.00306087
0.000169194
0.00296344
0.000163335
0.0028693
0.000157858
0.00277826
0.000152735
0.00269011
0.000147947
0.00260466
0.00014347
0.00252173
0.00013929
0.00244116
0.000135386
0.00236279
0.000131747
0.00228646
0.000128358
0.00221204
0.000125208
0.00213939
0.000122284
0.00206838
0.000119576
0.00199888
0.000117076
0.00193078
0.000114768
0.00186396
0.000112659
0.00179832
0.000110718
0.00173375
0.000108968
0.00167015
0.000107363
0.00160742
0.000105941
0.00154548
0.000104645
0.00148424
0.000103515
0.00142362
0.000102497
0.00136354
0.000101618
0.00130393
0.000100855
0.00124474
0.000100181
0.00118588
9.96493e-05
0.00112734
9.91244e-05
0.00106902
9.88076e-05
0.00101095
9.83626e-05
0.000952996
9.82484e-05
0.000895273
9.78202e-05
0.000837564
9.78884e-05
0.000780087
9.74411e-05
0.000722549
9.7643e-05
0.000665267
9.71591e-05
0.000607911
9.73667e-05
0.000550813
9.69102e-05
0.000493602
9.71313e-05
0.000436483
9.7055e-05
0.000379294
9.71457e-05
0.000322302
9.70145e-05
0.000265669
9.62683e-05
0.000209634
9.55335e-05
0.000154092
9.44279e-05
9.89965e-05
9.39632e-05
4.36392e-05
9.43204e-05
-1.05594e-05
9.30209e-05
-6.56862e-05
9.37348e-05
-0.00011931
9.25553e-05
-0.000172591
9.05424e-05
-0.000223506
8.8393e-05
-0.000278987
9.35885e-05
-0.000341022
0.000109155
-0.00040463
0.000108536
-0.000456415
9.34612e-05
-0.000500114
7.07966e-05
-0.000545845
7.92949e-05
-0.000670179
0.000201295
-0.00101833
0.000611486
-0.00154105
0.00092975
-0.001882
0.00066026
-0.00164727
-0.000381855
-0.000929037
-0.0012315
-7.61967e-05
-0.0015119
0.000571257
-0.00114508
0.000931572
-0.00064245
0.00102713
-0.000163445
0.00111284
-0.000126338
0.00130154
-0.000319638
0.0015736
-0.000436966
0.00214229
-0.000990194
0.0027047
-0.000957189
0.00347629
-0.00132764
-0.00180451
0.045906
0.0147018
-0.0446047
0.045992
0.0154929
0.0444169
0.0146989
0.0416975
0.0130491
0.0384583
0.0111672
0.0351576
0.00936949
0.0320627
0.00779971
0.029288
0.0064981
0.0268524
0.00544826
0.0247301
0.00461083
0.0228799
0.00394319
0.02126
0.00340766
0.0198332
0.00297397
0.0185685
0.00261889
0.0174403
0.00232497
0.0164277
0.00207908
0.0155138
0.00187134
0.0146847
0.00169422
0.0139288
0.00154195
0.0132368
0.00141004
0.0126007
0.00129499
0.0120138
0.00119398
0.0114705
0.00110479
0.010966
0.0010256
0.0104962
0.000954962
0.0100574
0.000891655
0.00964671
0.000834682
0.00926136
0.000783209
0.00889901
0.000736539
0.00855762
0.000694086
0.00823534
0.000655351
0.00793058
0.000619908
0.00764189
0.000587392
0.00736798
0.000557488
0.00710771
0.000529929
0.00686002
0.000504478
0.006624
0.000480929
0.00639878
0.000459099
0.00618359
0.000438834
0.00597773
0.000419994
0.00578056
0.000402458
0.00559148
0.000386116
0.00540995
0.000370871
0.00523548
0.000356639
0.00506759
0.000343345
0.00490586
0.00033092
0.0047499
0.0003193
0.00459932
0.000308434
0.00445379
0.000298268
0.00431297
0.000288762
0.00417657
0.000279874
0.00404429
0.000271569
0.00391587
0.000263813
0.00379103
0.000256577
0.00366956
0.000249836
0.0035512
0.000243564
0.00343575
0.000237739
0.00332299
0.000232337
0.00321271
0.000227348
0.00310474
0.000222737
0.00299889
0.000218516
0.00289498
0.000214629
0.00279283
0.000211112
0.00269231
0.000207888
0.00259324
0.000205013
0.00249549
0.000202394
0.0023989
0.000200098
0.00230337
0.000198028
0.00220875
0.000196238
0.00211494
0.000194665
0.00202183
0.000193294
0.00192931
0.000192165
0.00183733
0.000191107
0.00174576
0.000190381
0.00165461
0.000189511
0.00156371
0.000189153
0.00147317
0.000188355
0.00138274
0.000188324
0.00129265
0.000187522
0.00120256
0.000187731
0.00111286
0.000186859
0.00102313
0.0001871
0.000933808
0.000186233
0.000844376
0.000186563
0.000755179
0.000186253
0.00066593
0.000186397
0.000577174
0.000185773
0.000488947
0.000184497
0.000401867
0.000182613
0.000315421
0.000180872
0.000229997
0.000179384
0.000144122
0.000180191
6.03288e-05
0.000176812
-2.47079e-05
0.000178771
-0.000106598
0.000174446
-0.000188867
0.000172812
-0.000266338
0.000165865
-0.000352153
0.000179404
-0.000444498
0.0002015
-0.000540428
0.000204468
-0.000615678
0.000168713
-0.00068548
0.000140598
-0.000758196
0.000152009
-0.000958003
0.000401101
-0.00146726
0.00112075
-0.00220277
0.00166526
-0.00262089
0.00107837
-0.00222416
-0.000778579
-0.00113743
-0.00231824
0.000100648
-0.00274997
0.00103311
-0.00207754
0.00155248
-0.00116182
0.00170317
-0.000314134
0.00186095
-0.000284114
0.00216321
-0.000621908
0.00261344
-0.000887192
0.00346766
-0.00184441
0.00433219
-0.00182172
0.00549952
-0.00249497
-0.00334447
0.0493727
0.0135065
-0.0481774
0.0503381
0.0145275
0.0503589
0.0146781
0.0493403
0.0140676
0.0474998
0.0130077
0.0451296
0.0117397
0.042501
0.0104283
0.0398204
0.00917877
0.0372223
0.00804639
0.0347811
0.00705198
0.0325292
0.00619515
0.0304724
0.00546445
0.0286024
0.00484393
0.0269043
0.00431697
0.0253611
0.00386821
0.0239558
0.00348436
0.0226728
0.00315431
0.0214981
0.0028689
0.0204194
0.0026207
0.0194258
0.00240365
0.0185079
0.00221284
0.0176577
0.00204423
0.016868
0.00189452
0.0161326
0.00176099
0.0154462
0.00164138
0.014804
0.00153383
0.0142019
0.00143676
0.0136363
0.00134883
0.0131039
0.00126893
0.0126019
0.00119612
0.0121277
0.00112957
0.011679
0.00106858
0.0112538
0.00101256
0.0108503
0.000960987
0.0104668
0.000913407
0.0101019
0.000869426
0.00975413
0.000828698
0.0094223
0.000790921
0.00910531
0.000755826
0.00880213
0.000723183
0.0085118
0.000692781
0.00823348
0.000664436
0.00796637
0.000637982
0.00770973
0.000613276
0.00746289
0.000590186
0.00722521
0.000568597
0.00699611
0.000548399
0.00677504
0.000529502
0.00656149
0.000511817
0.00635499
0.000495271
0.00615507
0.000479794
0.00596131
0.000465324
0.00577332
0.000451804
0.00559071
0.000439183
0.00541313
0.000427418
0.00524023
0.000416461
0.0050717
0.000406278
0.0049072
0.000396827
0.00474646
0.000388087
0.0045892
0.000380005
0.00443512
0.00037259
0.00428399
0.000365759
0.00413554
0.000359561
0.00398956
0.000353875
0.00384578
0.000348786
0.00370404
0.000344145
0.00356407
0.000340059
0.00342573
0.000336369
0.0032888
0.000333166
0.00315314
0.000330332
0.00301856
0.00032787
0.00288493
0.000325795
0.00275214
0.000323901
0.00262001
0.000322505
0.00248855
0.000320977
0.00235751
0.000320186
0.00222704
0.00031883
0.00209679
0.000318569
0.00196707
0.00031724
0.00183744
0.000317364
0.00170838
0.000315919
0.00157937
0.000316112
0.00145098
0.000314626
0.00132252
0.000315015
0.00119453
0.00031425
0.00106657
0.000314356
0.000939515
0.000312827
0.000813259
0.000310754
0.00068884
0.000307032
0.000565291
0.00030442
0.000443517
0.000301157
0.000321238
0.000302469
0.000202262
0.000295789
8.18918e-05
0.000299141
-3.31028e-05
0.000289441
-0.000149733
0.000289442
-0.000258293
0.000274425
-0.000379415
0.000300526
-0.000505934
0.000328019
-0.000637844
0.000336378
-0.000739214
0.000270084
-0.000839822
0.000241205
-0.000946106
0.000258292
-0.0012334
0.000688395
-0.00191042
0.00179777
-0.00284721
0.00260205
-0.00329867
0.00152983
-0.00269276
-0.0013845
-0.0011936
-0.00381739
0.000456166
-0.00439974
0.0016843
-0.00330567
0.00237417
-0.00185168
0.00259469
-0.000534651
0.00285021
-0.000539632
0.00329346
-0.00106516
0.00396508
-0.00155882
0.00514116
-0.00302049
0.00635532
-0.00303588
0.00796846
-0.0041081
-0.00544765
0.052832
0.0126078
-0.0519333
0.0538615
0.0134981
0.0545468
0.0139927
0.0546181
0.0139963
0.0540227
0.0136031
0.0528296
0.0129327
0.0511681
0.0120898
0.0491842
0.0111626
0.0470125
0.0102181
0.0447633
0.0093012
0.0425187
0.00843973
0.0403347
0.00764838
0.038246
0.00693266
0.036271
0.00629199
0.0344171
0.00572213
0.0326845
0.00521695
0.0310692
0.00476962
0.0295647
0.00437335
0.0281636
0.00402178
0.0268581
0.00370918
0.0256404
0.0034305
0.0245034
0.00318132
0.02344
0.00295784
0.0224442
0.00275681
0.0215102
0.00257542
0.0206327
0.00241126
0.0198072
0.00226228
0.0190294
0.00212669
0.0182953
0.00200296
0.0176017
0.00188979
0.0169452
0.00178601
0.0163232
0.00169065
0.0157329
0.00160282
0.0151721
0.00152178
0.0146387
0.00144686
0.0141306
0.00137749
0.0136461
0.00131314
0.0131837
0.00125337
0.0127417
0.00119777
0.0123189
0.001146
0.011914
0.00109772
0.0115258
0.00105266
0.0111532
0.00101058
0.0107952
0.000971237
0.0104509
0.000934441
0.0101195
0.000900007
0.00980016
0.000867771
0.00949208
0.000837588
0.00919457
0.000809322
0.00890699
0.000782858
0.0086287
0.000758087
0.00835911
0.000734909
0.00809767
0.000713241
0.00784386
0.000692995
0.00759717
0.000674107
0.00735713
0.000656501
0.00712328
0.000640126
0.0068952
0.000624909
0.00667246
0.000610824
0.00645468
0.000597783
0.00624147
0.000585802
0.00603248
0.000574752
0.00582734
0.000564701
0.00562574
0.000555473
0.00542734
0.000547186
0.00523187
0.000539622
0.00503899
0.000532935
0.00484847
0.000526885
0.00466003
0.000521615
0.00447343
0.000516927
0.00428845
0.000512854
0.00410487
0.000509372
0.00392253
0.000506236
0.00374122
0.000503821
0.00356088
0.000501316
0.00338123
0.000499837
0.0032024
0.000497662
0.00302398
0.000496986
0.00284632
0.000494898
0.00266889
0.000494794
0.00249228
0.00049253
0.00231585
0.000492542
0.00214032
0.000490162
0.00196483
0.000490496
0.00179013
0.000488958
0.00161565
0.000488836
0.00144262
0.00048585
0.00127078
0.000482593
0.00110165
0.000476166
0.000933741
0.000472329
0.000768609
0.000466288
0.00060308
0.000467997
0.000442492
0.000456377
0.000280435
0.000461197
0.000125874
0.000444003
-3.05278e-05
0.000445844
-0.000174775
0.000418672
-0.000336838
0.000462589
-0.000501393
0.000492573
-0.00067317
0.000508155
-0.000803333
0.000400248
-0.000939758
0.00037763
-0.00108573
0.000404259
-0.00147019
0.00107286
-0.00231406
0.00264165
-0.00343039
0.00371837
-0.00386112
0.00196056
-0.00299677
-0.00224886
-0.001042
-0.00577216
0.00103943
-0.00648116
0.00257565
-0.00484189
0.00344931
-0.00272533
0.00375787
-0.000843214
0.00414086
-0.000922626
0.00475381
-0.00167811
0.0056938
-0.00249881
0.00722595
-0.00455264
0.00883886
-0.00464879
0.010946
-0.00621528
-0.00816678
0.0565535
0.0119203
-0.055866
0.0574078
0.0126438
0.0582054
0.013195
0.0587337
0.013468
0.0588705
0.0134663
0.0585701
0.0132331
0.0578418
0.0128181
0.0567334
0.012271
0.0553133
0.0116383
0.0536567
0.0109579
0.0518367
0.0102597
0.0499187
0.00956637
0.0479572
0.00889421
0.045995
0.00825415
0.0440642
0.00765292
0.0421873
0.00709392
0.0403788
0.00657809
0.0386475
0.00610464
0.0369976
0.00567167
0.0354302
0.00527658
0.0339443
0.00491644
0.0325373
0.00458826
0.0312061
0.00428909
0.0299468
0.00401614
0.0287553
0.00376684
0.0276278
0.00353881
0.0265601
0.00332993
0.0255486
0.00313828
0.0245894
0.00296215
0.0236792
0.00280002
0.0228146
0.00265052
0.0219928
0.00251246
0.0212109
0.00238475
0.0204663
0.00226644
0.0197564
0.00215669
0.0190792
0.00205474
0.0184324
0.0019599
0.0178142
0.00187158
0.0172227
0.00178924
0.0166564
0.00171239
0.0161135
0.0016406
0.0155926
0.00157349
0.0150925
0.00151069
0.0146118
0.00145191
0.0141494
0.00139685
0.0137042
0.00134525
0.0132751
0.0012969
0.0128611
0.00125157
0.0124613
0.00120907
0.012075
0.00116924
0.0117011
0.00113192
0.0113391
0.00109696
0.0109881
0.00106425
0.0106474
0.00103365
0.0103165
0.00100508
0.00999454
0.000978414
0.00968108
0.000953588
0.0093755
0.000930491
0.00907723
0.000909086
0.00878577
0.000889243
0.00850059
0.000870983
0.00822122
0.000854122
0.00794717
0.000838751
0.00767802
0.000824624
0.00741331
0.000811899
0.00715266
0.000800272
0.00689564
0.000789954
0.00664192
0.000780603
0.00639111
0.000772426
0.00614291
0.000765125
0.005897
0.000758771
0.00565308
0.000753283
0.00541094
0.000748378
0.00517027
0.000744488
0.004931
0.00074059
0.00469275
0.000738084
0.00445567
0.00073475
0.00421924
0.00073341
0.00398389
0.000730254
0.00374896
0.000729723
0.00351517
0.000726318
0.00328176
0.000725958
0.0030496
0.000722321
0.00281769
0.000722404
0.00258699
0.000719658
0.00235683
0.000718994
0.00212884
0.000713835
0.00190258
0.000708857
0.0016801
0.00069865
0.00145936
0.000693065
0.00124271
0.000682942
0.001026
0.000684705
0.0008163
0.000666074
0.00060528
0.000672217
0.000404504
0.00064478
0.000202631
0.000647718
1.7443e-05
0.000603859
-0.000192939
0.000672971
-0.000399012
0.000698645
-0.000614923
0.000724064
-0.000776313
0.000561639
-0.000953692
0.00055501
-0.001144
0.000594572
-0.00163168
0.00156053
-0.0026318
0.00364178
-0.00389471
0.00498127
-0.00424034
0.00230619
-0.00306667
-0.00342255
-0.000614327
-0.0082245
0.00191454
-0.00901002
0.00376994
-0.00669728
0.00484275
-0.00379814
0.0052608
-0.00126126
0.00580504
-0.00146687
0.00661597
-0.00248905
0.00787426
-0.0037571
0.0097923
-0.00647069
0.0118524
-0.00670891
0.0144981
-0.00886093
-0.0115461
0.0605601
0.0113568
-0.0599966
0.0612452
0.0119588
0.0619607
0.0124795
0.0625839
0.0128449
0.0630173
0.0130329
0.063197
0.0130534
0.0630875
0.0129275
0.0626784
0.0126801
0.06198
0.0123367
0.0610167
0.0119211
0.059823
0.0114534
0.0584384
0.010951
0.0569041
0.0104286
0.05526
0.00989829
0.0535428
0.00937006
0.051785
0.00885172
0.0500138
0.0083493
0.0482512
0.0078672
0.0465145
0.00740839
0.0448165
0.00697461
0.0431663
0.00656662
0.0415702
0.00618443
0.0400318
0.00582748
0.0385531
0.00549482
0.0371347
0.00518524
0.0357761
0.0048974
0.0344762
0.00462989
0.0332331
0.00438129
0.0320451
0.00415023
0.0309097
0.0039354
0.0298247
0.00373554
0.0287877
0.00354949
0.0277962
0.00337617
0.0268481
0.0032146
0.0259409
0.00306385
0.0250726
0.00292309
0.0242409
0.00279156
0.0234439
0.00266855
0.0226798
0.00255343
0.0219465
0.00244562
0.0212425
0.00234459
0.0205662
0.00224988
0.0199158
0.00216102
0.0192901
0.00207764
0.0186876
0.00199937
0.0181069
0.00192587
0.017547
0.00185686
0.0170065
0.00179204
0.0164844
0.00173118
0.0159796
0.00167405
0.0154911
0.00162043
0.0150179
0.00157014
0.0145591
0.00152301
0.0141139
0.00147886
0.0136814
0.00143758
0.0132608
0.00139901
0.0128514
0.00136305
0.0124523
0.00132954
0.012063
0.00129844
0.0116826
0.00126958
0.0113106
0.00124296
0.0109464
0.00121836
0.0105893
0.00119588
0.0102387
0.00117519
0.00989411
0.0011565
0.00955498
0.00113941
0.00922075
0.00112418
0.00889099
0.00111036
0.00856519
0.00109823
0.00824294
0.00108737
0.00792382
0.00107789
0.00760745
0.00106965
0.00729352
0.00106231
0.00698164
0.00105637
0.00667168
0.00105055
0.00636318
0.00104659
0.00605628
0.00104166
0.00575035
0.00103933
0.00544589
0.00103472
0.00514212
0.0010335
0.0048399
0.00102854
0.00453831
0.00102755
0.00423843
0.00102219
0.00393911
0.00102173
0.00364156
0.0010172
0.00334503
0.00101553
0.00305157
0.00100729
0.00276055
0.000999875
0.00247464
0.000984567
0.00219121
0.000976494
0.00191354
0.000960611
0.00163646
0.000961783
0.00136898
0.000933552
0.00110067
0.00094053
0.000846166
0.000899284
0.000591231
0.000902653
0.000355456
0.000839633
9.3668e-05
0.000934759
-0.00015661
0.000948922
-0.000422126
0.00098958
-0.000616251
0.000755765
-0.000839778
0.000778538
-0.00107625
0.000831043
-0.0016682
0.00215248
-0.00280213
0.00477572
-0.00416693
0.00634607
-0.0043531
0.00249235
-0.00281921
-0.00495645
0.000170018
-0.0112137
0.00315898
-0.011999
0.00534391
-0.0088822
0.00663362
-0.00508784
0.00718503
-0.00181267
0.00792822
-0.00221006
0.00896274
-0.00352356
0.010591
-0.00538532
0.0129175
-0.00879728
0.015469
-0.00926041
0.0186918
-0.0120836
-0.0156174
0.0648458
0.0108718
-0.0643609
0.0654118
0.0113928
0.0660202
0.0118711
0.0666059
0.0122591
0.0671063
0.0125325
0.0674729
0.0126868
0.0676704
0.0127301
0.0676749
0.0126756
0.0674733
0.0125384
0.0670614
0.012333
0.066443
0.0120718
0.0656285
0.0117655
0.0646337
0.0114234
0.0634784
0.0110536
0.0621853
0.0106632
0.0607782
0.0102588
0.0592815
0.00984599
0.0577186
0.00943017
0.056111
0.00901598
0.0544782
0.00860742
0.0528369
0.00820786
0.0512014
0.00781996
0.0495831
0.00744574
0.0479913
0.00708665
0.0464329
0.0067436
0.0449133
0.00641705
0.0434361
0.00610711
0.0420037
0.00581362
0.0406177
0.00553623
0.0392787
0.00527442
0.0379867
0.00502756
0.0367412
0.00479499
0.0355414
0.00457597
0.0343862
0.00436981
0.0332743
0.00417577
0.0322042
0.00399315
0.0311745
0.00382129
0.0301835
0.00365952
0.0292297
0.00350724
0.0283115
0.00336387
0.0274272
0.00322887
0.0265753
0.00310174
0.0257543
0.002982
0.0249628
0.00286921
0.0241991
0.00276298
0.0234621
0.00266291
0.0227503
0.00256867
0.0220624
0.00247993
0.0213972
0.00239639
0.0207535
0.00231778
0.0201301
0.00224385
0.0195258
0.00217436
0.0189397
0.0021091
0.0183707
0.00204787
0.0178178
0.0019905
0.01728
0.0019368
0.0167564
0.00188664
0.0162461
0.00183983
0.0157483
0.00179631
0.015262
0.00175584
0.0147865
0.00171846
0.014321
0.00168384
0.0138647
0.00165215
0.013417
0.00162293
0.012977
0.00159647
0.0125442
0.00157223
0.0121178
0.00155057
0.0116973
0.00153088
0.011282
0.00151353
0.0108714
0.00149797
0.0104649
0.00148434
0.0100622
0.00147244
0.00966262
0.00146184
0.00926583
0.00145316
0.00887161
0.00144476
0.00847937
0.00143883
0.00808925
0.00143177
0.00770052
0.00142807
0.00731372
0.00142151
0.00692794
0.00141928
0.0065442
0.00141228
0.00616143
0.00141032
0.00578096
0.00140267
0.00540143
0.00140126
0.00502443
0.0013942
0.00464906
0.0013909
0.00427789
0.00137846
0.0039101
0.00136767
0.00354902
0.00134565
0.00319144
0.00133407
0.00284174
0.0013103
0.00249367
0.00130986
0.00215839
0.00126883
0.00182323
0.00127569
0.00150632
0.0012162
0.00118998
0.00121899
0.000897609
0.00113201
0.000579081
0.00125329
0.00027662
0.00125138
-4.34852e-05
0.00130968
-0.000267695
0.000979976
-0.000543458
0.0010543
-0.000822915
0.0011105
-0.0015143
0.00284387
-0.00274579
0.00600721
-0.00415609
0.00775637
-0.0040989
0.00243514
-0.00215495
-0.00690041
0.00138273
-0.0147514
0.00486669
-0.0154829
0.00739105
-0.0114066
0.00891788
-0.00661466
0.00962765
-0.00252244
0.0106113
-0.00319368
0.0118894
-0.00480169
0.013939
-0.00743497
0.0166867
-0.0115449
0.0197641
-0.0123378
0.0235946
-0.0159142
-0.0203961
0.0694193
0.0104439
-0.0689914
0.0699033
0.0109088
0.0704245
0.0113499
0.0709472
0.0117365
0.0714317
0.0120481
0.0718441
0.0122743
0.0721587
0.0124155
0.0723559
0.0124784
0.0724217
0.0124726
0.0723462
0.0124085
0.0721224
0.0122955
0.0717468
0.0121411
0.0712186
0.0119516
0.0705401
0.011732
0.0697169
0.0114864
0.0687574
0.0112183
0.0676726
0.0109307
0.066476
0.0106268
0.0651823
0.0103096
0.0638074
0.00998234
0.0623672
0.00964808
0.0608772
0.00930991
0.0593522
0.00897076
0.0578055
0.00863331
0.0562492
0.0082999
0.0546937
0.00797257
0.0531478
0.00765298
0.051619
0.00734245
0.0501133
0.00704199
0.0486354
0.00675232
0.047189
0.0064739
0.045777
0.00620699
0.0444013
0.00595166
0.0430633
0.00570788
0.0417636
0.00547546
0.0405026
0.00525416
0.0392802
0.00504367
0.038096
0.00484365
0.0369496
0.00465371
0.03584
0.00447347
0.0347663
0.00430251
0.0337276
0.00414046
0.0327227
0.00398689
0.0317505
0.00384146
0.0308097
0.00370376
0.0298991
0.00357347
0.0290176
0.00345022
0.0281638
0.00333371
0.0273366
0.00322362
0.0265347
0.00311967
0.0257569
0.0030216
0.0250021
0.00292915
0.0242691
0.00284208
0.0235568
0.00276017
0.0228641
0.00268323
0.0221899
0.00261103
0.0215331
0.00254345
0.0208927
0.00248023
0.0202677
0.00242133
0.0196571
0.00236644
0.0190599
0.00231563
0.0184753
0.00226848
0.0179022
0.00222521
0.0173399
0.00218525
0.0167874
0.00214897
0.0162439
0.00211567
0.0157087
0.00208583
0.0151809
0.00205866
0.0146598
0.00203464
0.0141447
0.00201304
0.013635
0.00199408
0.01313
0.00197746
0.0126292
0.00196266
0.0121319
0.00195042
0.011638
0.0019387
0.0111466
0.0019302
0.010658
0.00192038
0.0101712
0.00191487
0.00968688
0.00190581
0.00920396
0.00190219
0.00872369
0.00189256
0.00824476
0.00188924
0.00776882
0.00187862
0.00729434
0.00187573
0.0068233
0.00186524
0.0063547
0.00185949
0.00589167
0.00184149
0.00543318
0.00182616
0.00498334
0.00179549
0.00453836
0.00177906
0.00410391
0.00174475
0.00367258
0.00174119
0.00325797
0.00168344
0.00284503
0.00168863
0.00245578
0.00160545
0.00206871
0.00160606
0.00171195
0.00148877
0.00132924
0.001636
0.000969664
0.00161096
0.000599561
0.00167979
0.000334794
0.00124474
6.47884e-07
0.00138845
-0.000304929
0.00141608
-0.0010861
0.00362505
-0.00236309
0.0072842
-0.0037516
0.00914487
-0.0033578
0.00204133
-0.000957103
-0.00930112
0.00316278
-0.0188713
0.00715116
-0.0194713
0.0100244
-0.0142798
0.0118111
-0.0084014
0.0127033
-0.00341455
0.0139724
-0.00446285
0.0155054
-0.00633463
0.0180252
-0.00995478
0.0211934
-0.0147132
0.0248147
-0.0159591
0.0292736
-0.0203731
-0.0258771
0.0743003
0.0100607
-0.073917
0.074725
0.010484
0.0751803
0.0108947
0.0756452
0.0112716
0.0760939
0.0115993
0.076502
0.0118663
0.0768495
0.012068
0.0771218
0.0122061
0.0773086
0.0122857
0.0774026
0.0123145
0.0773981
0.0123
0.07729
0.0122493
0.0770739
0.0121677
0.076746
0.0120599
0.0763033
0.0119291
0.0757439
0.0117777
0.0750675
0.0116071
0.074276
0.0114184
0.0733731
0.0112125
0.0723649
0.0109906
0.0712592
0.0107538
0.0700655
0.0105036
0.0687943
0.0102419
0.0674571
0.00997055
0.0660653
0.00969172
0.0646303
0.00940753
0.0631632
0.00912012
0.0616741
0.00883153
0.0601725
0.00854363
0.0586667
0.00825812
0.0571641
0.00797646
0.0556712
0.00769993
0.0541933
0.00742956
0.0527349
0.00716622
0.0512998
0.00691055
0.049891
0.00666303
0.0485106
0.00642403
0.0471605
0.00619374
0.0458419
0.00597231
0.0445556
0.00575974
0.0433021
0.00555601
0.0420816
0.00536102
0.0408939
0.00517462
0.0397386
0.00499666
0.0386155
0.00482694
0.0375237
0.00466523
0.0364626
0.00451132
0.0354313
0.00436498
0.034429
0.00422598
0.0334545
0.00409409
0.0325071
0.00396908
0.0315855
0.00385073
0.0306887
0.00373884
0.0298157
0.00363318
0.0289653
0.0035336
0.0281365
0.00343984
0.0273282
0.00335181
0.0265392
0.00326922
0.0257685
0.00319205
0.0250149
0.00311995
0.0242775
0.00305303
0.0235553
0.00299077
0.022847
0.00293349
0.0221517
0.00288048
0.0214685
0.00283222
0.0207964
0.00278782
0.0201342
0.00274793
0.0194814
0.00271154
0.0188367
0.00267927
0.0181996
0.00265021
0.017569
0.00262463
0.0169443
0.00260215
0.0163249
0.00258213
0.0157098
0.00256547
0.0150989
0.0025496
0.0144912
0.00253789
0.0138869
0.00252466
0.0132849
0.00251689
0.012686
0.0025047
0.0120889
0.00249934
0.011495
0.00248642
0.0109029
0.00248135
0.0103146
0.00246695
0.0097283
0.002462
0.00914657
0.00244697
0.00856825
0.00243781
0.00799711
0.00241263
0.00743194
0.00239133
0.00687772
0.0023497
0.0063301
0.00232668
0.00579628
0.00227857
0.00526762
0.00226985
0.00476044
0.00219062
0.00425723
0.00219184
0.00378433
0.00207835
0.00331607
0.00207431
0.00288624
0.0019186
0.00243221
0.00209002
0.00201204
0.00203113
0.00158674
0.00210509
0.00127861
0.00155287
0.000910015
0.00175704
0.000565047
0.00176105
-0.000280693
0.0044708
-0.00153085
0.00853436
-0.00282155
0.0104356
-0.00198685
0.00120662
0.000918913
-0.0122069
0.00564274
-0.0235951
0.0101488
-0.0239774
0.0133795