/*--------------------------------*- C++ -*----------------------------------*\
| =========                 |                                                 |
| \\      /  F ield         | OpenFOAM: The Open Source CFD Toolbox           |
|  \\    /   O peration     | Version:  2412                                  |
|   \\  /    A nd           | Website:  www.openfoam.com                      |
|    \\/     M anipulation  |                                                 |
\*---------------------------------------------------------------------------*/
FoamFile
{
    version     2.0;
    format      ascii;
    arch        "LSB;label=32;scalar=64";
    class       volVectorField;
    location    "0.475";
    object      U;
}
// * * * * * * * * * * * * * * * * * * * * * * * * * * * * * * * * * * * * * //

dimensions      [0 1 -1 0 0 0 0];

internalField   nonuniform List<vector> 
12600
(
(18.7189 1.25026e-21 2.08727)
(11.6145 1.61108e-20 0.448799)
(7.35177 1.89514e-20 -0.47856)
(5.09244 0 -0.709657)
(3.98051 1.71469e-20 -0.682811)
(3.34024 1.59755e-20 -0.608181)
(2.89921 0 -0.540543)
(2.56807 0 -0.485161)
(2.30847 -4.80931e-20 -0.439745)
(2.09832 0 -0.402026)
(1.92391 2.01909e-20 -0.370167)
(1.77632 1.84971e-20 -0.342843)
(1.64944 -1.69545e-20 -0.319108)
(1.53895 0 -0.298267)
(1.44166 -1.42275e-20 -0.279796)
(1.35519 0 -0.263292)
(1.2777 4.78725e-20 -0.248441)
(1.20777 0 -0.234993)
(1.14427 -2.00661e-20 -0.222748)
(1.0863 -1.83679e-20 -0.211542)
(1.0331 1.67831e-20 -0.20124)
(0.984072 5.61102e-24 -0.19173)
(0.938709 0 -0.182919)
(0.896582 -2.53934e-20 -0.174728)
(0.857332 0 -0.167091)
(0.820654 0 -0.159948)
(0.786286 -1.88943e-20 -0.15325)
(0.753999 0 -0.146955)
(0.723595 3.86209e-24 -0.141025)
(0.694902 1.37269e-20 -0.135427)
(0.667767 1.22506e-20 -0.130131)
(0.642058 1.08829e-20 -0.125113)
(0.617654 -9.61614e-21 -0.120349)
(0.59445 -1.68859e-20 -0.115819)
(0.572353 -1.47128e-20 -0.111506)
(0.551278 1.26897e-20 -0.107391)
(0.531148 0 -0.103461)
(0.511894 -9.11414e-21 -0.0997028)
(0.493455 0 -0.0961035)
(0.475774 6.05925e-21 -0.0926524)
(0.458798 0 -0.0893394)
(0.442479 1.72235e-23 -0.0861554)
(0.426775 0 -0.0830922)
(0.411645 1.5692e-23 -0.0801417)
(0.397054 6.35776e-22 -0.0772969)
(0.382967 1.10868e-21 -0.074551)
(0.369354 -2.73527e-21 -0.0718978)
(0.356186 0 -0.0693316)
(0.343435 0 -0.0668474)
(0.331076 -6.74989e-21 -0.0644401)
(0.319086 -1.56963e-20 -0.0621053)
(0.307442 -1.76743e-20 -0.0598386)
(0.296125 1.90964e-23 -0.0576363)
(0.285114 -2.10362e-20 -0.055494)
(0.274393 0 -0.0534089)
(0.263944 2.37381e-20 -0.0513769)
(0.253754 2.4839e-20 -0.0493958)
(0.243803 2.57961e-20 -0.0474618)
(0.234081 0 -0.0455731)
(0.224573 0 -0.0437263)
(0.21527 0 -0.0419199)
(0.206155 -5.69009e-20 -0.0401506)
(0.197225 0 -0.0384174)
(0.188463 0 -0.0367169)
(0.179869 1.17524e-19 -0.0350492)
(0.171422 0 -0.0334105)
(0.16313 0 -0.0318024)
(0.154968 0 -0.0302199)
(0.146952 -1.18047e-19 -0.0286664)
(0.139049 1.17576e-19 -0.0271352)
(0.131292 1.16882e-19 -0.0256324)
(0.123632 2.27298e-23 -0.0241485)
(0.116122 -1.14953e-19 -0.0226939)
(0.108692 0 -0.021255)
(0.101425 1.12334e-19 -0.0198475)
(0.0942233 0 -0.0184528)
(0.0871987 0 -0.0170924)
(0.0802278 0 -0.0157427)
(0.0734467 2.90593e-23 -0.0144297)
(0.0667181 2.06836e-19 -0.0131271)
(0.0601813 2.02667e-19 -0.0118615)
(0.0537168 -1.98319e-19 -0.0106101)
(0.0474274 -1.9387e-19 -0.00939276)
(0.0412553 0 -0.00819814)
(0.0351946 0 -0.00702552)
(0.0293133 3.59919e-19 -0.0058875)
(0.0234586 -7.00606e-19 -0.004755)
(0.0179325 6.81346e-19 -0.00368563)
(0.0123356 3.30908e-19 -0.00260281)
(0.00730717 0 -0.00162939)
(0.00195229 -6.22486e-19 -0.000593727)
(-0.00254915 3.01507e-19 0.000277533)
(-0.00790708 -2.91639e-19 0.00131239)
(-0.0116924 5.64303e-19 0.00204492)
(-0.0172513 0 0.00311737)
(-0.0200739 0 0.00366252)
(-0.0259193 0 0.00479193)
(-0.0271635 0 0.00503228)
(-0.0346015 0 0.00646219)
(-0.0354665 0 0.0066277)
(-0.0448116 -4.36785e-19 0.00842326)
(-0.0411475 -8.43826e-19 0.00770163)
(-0.0510324 -8.08605e-19 0.00962726)
(-0.0427213 0 0.00803889)
(-0.0676113 0 0.0128689)
(-0.0906928 0 0.0172314)
(-0.153266 -6.82549e-19 0.0290191)
(-0.14578 -1.36877e-18 0.0273577)
(-0.12893 6.79034e-19 0.0238637)
(-0.0405937 0 0.00685863)
(-0.00890037 -1.30928e-18 0.00111487)
(0.0538056 0 -0.0107134)
(0.0374059 -1.19207e-18 -0.00734427)
(0.063512 1.12835e-18 -0.012378)
(0.0414658 -1.07875e-18 -0.00821369)
(0.0772955 -1.02042e-18 -0.0151262)
(0.0651184 9.82162e-19 -0.0129612)
(0.133921 -3.49151e-23 -0.0260732)
(0.117741 8.85346e-19 -0.0230477)
(0.209883 0 -0.0407182)
(29.1227 -1.26215e-21 4.01553)
(25.0901 0 1.85208)
(20.237 -1.91809e-20 -0.217156)
(16.0775 0 -1.21432)
(13.1227 -1.73748e-20 -1.50949)
(11.0828 -3.0527e-20 -1.5205)
(9.61238 -1.4137e-20 -1.44298)
(8.50155 0 -1.34553)
(7.62952 3.56486e-22 -1.25028)
(6.92359 -2.20115e-20 -1.16332)
(6.33818 2.02201e-20 -1.08532)
(5.84332 1.85727e-20 -1.01557)
(5.41841 -1.70579e-20 -0.953065)
(5.04882 1.56642e-20 -0.896833)
(4.72382 2.88179e-20 -0.846013)
(4.43533 0 -0.799873)
(4.17717 -6.51769e-23 -0.757796)
(3.94452 2.21881e-20 -0.719261)
(3.73354 2.0358e-20 -0.683832)
(3.54115 0 -0.651136)
(3.36486 0 -0.620859)
(3.20259 1.55283e-20 -0.592732)
(3.05263 0 -0.566525)
(2.91355 1.28726e-20 -0.542042)
(2.78412 -2.33702e-20 -0.519109)
(2.66332 0 -0.497577)
(2.55025 1.91497e-20 -0.477316)
(2.44415 0 -0.45821)
(2.34434 -1.55186e-20 -0.440159)
(2.25025 -2.78089e-20 -0.423074)
(2.16138 -2.48136e-20 -0.406875)
(2.07725 -1.10155e-20 -0.39149)
(1.99748 9.73059e-21 -0.376856)
(1.92172 3.41812e-20 -0.362916)
(1.84964 2.97756e-20 -0.349619)
(1.78096 0 -0.336917)
(1.71542 0 -0.324769)
(1.6528 -1.67658e-23 -0.313137)
(1.59288 0 -0.301984)
(1.53548 -6.11706e-21 -0.291279)
(1.48043 0 -0.280993)
(1.42755 -7.0036e-21 -0.2711)
(1.37671 0 -0.261573)
(1.32778 -2.59287e-21 -0.252391)
(1.28063 0 -0.243531)
(1.23516 -1.11637e-21 -0.234975)
(1.19125 0 -0.226704)
(1.14881 0 -0.2187)
(1.10775 5.53766e-21 -0.210949)
(1.06799 0 -0.203434)
(1.02945 0 -0.196144)
(0.992053 0 -0.189064)
(0.955736 1.94985e-20 -0.182183)
(0.920431 4.21494e-20 -0.175489)
(0.886086 0 -0.168971)
(0.852637 0 -0.162619)
(0.82004 -2.48141e-20 -0.156425)
(0.788236 -2.57948e-20 -0.150378)
(0.757191 0 -0.144472)
(0.726848 0 -0.138697)
(0.697182 0 -0.133047)
(0.668138 0 -0.127514)
(0.639703 -5.74402e-20 -0.122093)
(0.611818 5.80064e-20 -0.116775)
(0.584484 -1.16853e-19 -0.11156)
(0.557637 0 -0.106436)
(0.531296 0 -0.101406)
(0.505383 0 -0.0964576)
(0.479949 4.65754e-23 -0.0915991)
(0.454886 -1.16451e-19 -0.0868104)
(0.430293 -1.15659e-19 -0.0821106)
(0.406021 2.29352e-19 -0.0774702)
(0.382228 3.47922e-23 -0.0729215)
(0.358704 -1.12182e-19 -0.0684219)
(0.335691 -1.10736e-19 -0.0640211)
(0.312898 0 -0.0596595)
(0.290661 0 -0.0554063)
(0.268607 0 -0.0511844)
(0.247148 2.06991e-19 -0.0470798)
(0.225863 0 -0.043004)
(0.205186 0 -0.0390484)
(0.184734 1.94098e-19 -0.0351322)
(0.164852 1.89542e-19 -0.0313278)
(0.145321 0 -0.0275882)
(0.126179 0 -0.0239234)
(0.107582 0 -0.0203633)
(0.0891295 6.81919e-19 -0.016829)
(0.0716833 -4.62677e-23 -0.0134917)
(0.0540748 3.21345e-19 -0.0101192)
(0.0381975 -3.11526e-19 -0.00708355)
(0.0213625 6.03242e-19 -0.00385828)
(0.00714528 2.91839e-19 -0.0011361)
(-0.00959891 5.64038e-19 0.00207282)
(-0.021554 0 0.00435684)
(-0.0387965 0 0.00766678)
(-0.0477154 0 0.00935995)
(-0.0657472 0 0.0128246)
(-0.0699514 4.71283e-19 0.013619)
(-0.092784 0 0.0180457)
(-0.0953376 0 0.0185126)
(-0.123341 -4.18778e-19 0.0238876)
(-0.112282 4.04165e-19 0.0216751)
(-0.14308 1.54762e-18 0.0276286)
(-0.120251 -7.454e-19 0.0233499)
(-0.19831 0 0.0390492)
(-0.263492 0 0.0520595)
(-0.437913 0 0.085301)
(-0.398732 6.51848e-19 0.076126)
(-0.346684 -6.46239e-19 0.0646502)
(-0.082335 0 0.0133113)
(-0.00165928 2.48772e-18 -0.00147462)
(0.184473 1.19243e-18 -0.0363819)
(0.127206 2.26147e-18 -0.0246044)
(0.21363 0 -0.0410189)
(0.145356 0 -0.0282391)
(0.2615 -9.65665e-19 -0.0505272)
(0.225245 0 -0.0443563)
(0.432558 -8.79526e-19 -0.0839886)
(0.385359 -8.36148e-19 -0.0753027)
(0.661428 0 -0.128786)
(31.8665 0 3.88236)
(31.0577 0 2.808)
(28.535 -1.30091e-20 1.01577)
(25.1995 0 -0.38856)
(21.9546 0 -1.23103)
(19.1875 1.51725e-20 -1.6551)
(16.9338 1.33878e-20 -1.82314)
(15.1122 0 -1.8547)
(13.6273 4.21155e-22 -1.82105)
(12.3991 2.08529e-20 -1.75863)
(11.3674 -3.81031e-20 -1.68494)
(10.4878 -1.75975e-20 -1.60832)
(9.72842 1.14851e-22 -1.53275)
(9.06532 -1.48431e-20 -1.46007)
(8.48065 -1.36271e-20 -1.3911)
(7.96074 1.24558e-20 -1.32607)
(7.49492 -2.29401e-20 -1.26497)
(7.0748 -2.10264e-20 -1.20766)
(6.69364 0 -1.1539)
(6.34601 0 -1.10346)
(6.02745 1.60801e-20 -1.05609)
(5.73428 1.46824e-20 -1.01155)
(5.46342 0 -0.96962)
(5.21229 0 -0.93009)
(4.9787 2.21447e-20 -0.892768)
(4.76077 0 -0.857481)
(4.55689 -3.62837e-20 -0.82407)
(4.36569 1.63585e-20 -0.792392)
(4.18593 0 -0.762316)
(4.01658 1.3176e-20 -0.733723)
(3.8567 1.17571e-20 -0.706505)
(3.70547 0 -0.680563)
(3.56217 -9.23045e-21 -0.655809)
(3.42614 -1.61966e-20 -0.63216)
(3.29681 1.17238e-23 -0.609542)
(3.17367 0 -0.587886)
(3.05625 0 -0.567128)
(2.94412 8.73552e-21 -0.547213)
(2.83691 0 -0.528085)
(2.73427 0 -0.509696)
(2.63588 0 -0.492)
(2.54146 0 -0.474956)
(2.45074 0 -0.458524)
(2.36348 0 -0.442669)
(2.27946 0 -0.427355)
(2.19847 1.01463e-21 -0.412553)
(2.12033 -2.55258e-21 -0.398232)
(2.04485 0 -0.384364)
(1.97188 -5.23914e-21 -0.370925)
(1.90126 0 -0.35789)
(1.83285 0 -0.345236)
(1.76652 1.66994e-20 -0.332942)
(1.70215 0 -0.320989)
(1.63961 -1.99132e-20 -0.309355)
(1.57881 2.12218e-20 -0.298026)
(1.51964 0 -0.286982)
(1.46201 2.34548e-20 -0.27621)
(1.40581 0 -0.265692)
(1.35099 0 -0.255417)
(1.29745 0 -0.245368)
(1.24513 5.26073e-20 -0.235537)
(1.19393 5.35039e-20 -0.225908)
(1.14384 2.76785e-23 -0.216475)
(1.09474 -1.09523e-19 -0.20722)
(1.04664 2.44332e-23 -0.198144)
(0.999413 0 -0.189227)
(0.953102 0 -0.180475)
(0.907565 -1.10684e-19 -0.171863)
(0.862885 3.74435e-23 -0.163407)
(0.818881 0 -0.155074)
(0.77571 0 -0.146894)
(0.733122 -1.08124e-19 -0.138819)
(0.69138 2.81143e-23 -0.130903)
(0.650129 2.62616e-23 -0.123073)
(0.609771 0 -0.115414)
(0.56982 0 -0.107824)
(0.530834 -2.02187e-19 -0.100422)
(0.492186 1.98603e-19 -0.0930732)
(0.454574 0 -0.0859298)
(0.417277 0 -0.0788334)
(0.381047 0 -0.0719505)
(0.345211 0 -0.0651301)
(0.310389 0 -0.0585118)
(0.276159 0 -0.0519959)
(0.24266 0 -0.0456219)
(0.210085 0 -0.0394222)
(0.177847 -6.41093e-19 -0.0332863)
(0.147323 -3.11352e-19 -0.0274861)
(0.1166 -3.02023e-19 -0.0216427)
(0.0888152 2.92735e-19 -0.0163672)
(0.0594619 -5.66671e-19 -0.0107799)
(0.0345834 -2.74123e-19 -0.00604303)
(0.00552697 -2.64829e-19 -0.000515902)
(-0.0153902 0 0.00346301)
(-0.0451312 0 0.00912793)
(-0.0607467 0 0.012071)
(-0.0917147 0 0.0179681)
(-0.0994288 -4.42141e-19 0.0194479)
(-0.138411 0 0.0270069)
(-0.142603 0 0.0277614)
(-0.189565 3.92658e-19 0.0366477)
(-0.171022 0 0.0329238)
(-0.224252 -7.25248e-19 0.0431563)
(-0.188677 6.98525e-19 0.0369698)
(-0.323064 0 0.0650414)
(-0.425134 0 0.0861192)
(-0.699009 0 0.136812)
(-0.611117 6.10125e-19 0.114232)
(-0.523857 0 0.0929496)
(-0.0823828 -6.0214e-19 0.00729944)
(0.0328082 -1.24138e-22 -0.012318)
(0.342918 -1.11598e-18 -0.0689294)
(0.236277 -2.11612e-18 -0.046076)
(0.392903 0 -0.0758292)
(0.274818 9.55686e-19 -0.0540905)
(0.481345 9.03262e-19 -0.0940045)
(0.419996 8.68602e-19 -0.0844428)
(0.768186 0 -0.150633)
(0.69099 7.81828e-19 -0.13707)
(1.15148 0 -0.226432)
(32.3902 0 2.93804)
(32.9587 0 2.75441)
(32.4092 1.22979e-20 1.71227)
(30.7712 0 0.51292)
(28.5236 -1.23509e-20 -0.490847)
(26.1127 2.51272e-20 -1.2129)
(23.798 0 -1.67548)
(21.6955 -2.19536e-20 -1.93941)
(19.8388 2.10564e-20 -2.06855)
(18.2185 1.90535e-20 -2.11288)
(16.8071 1.79154e-20 -2.10616)
(15.5737 -1.6294e-20 -2.06964)
(14.4898 1.51772e-20 -2.01626)
(13.5311 -2.76899e-20 -1.95385)
(12.6778 0 -1.88712)
(11.9134 -2.34975e-20 -1.81895)
(11.2248 0 -1.75108)
(10.6011 0 -1.68456)
(10.0333 0 -1.62002)
(9.51419 1.659e-20 -1.55777)
(9.03748 -3.44964e-23 -1.498)
(8.59808 -2.63816e-23 -1.44075)
(8.19163 1.26405e-20 -1.38601)
(7.81445 0 -1.33372)
(7.46336 0 -1.28378)
(7.13566 0 -1.2361)
(6.829 3.43009e-20 -1.19058)
(6.54135 -6.26416e-24 -1.14708)
(6.27091 0 -1.10552)
(6.01612 0 -1.06577)
(5.77561 0 -1.02774)
(5.54815 0 -0.991319)
(5.33266 1.74594e-20 -0.956424)
(5.12818 0 -0.922964)
(4.93383 -1.3351e-20 -0.890853)
(4.74884 0 -0.860016)
(4.57252 0 -0.830378)
(4.40421 -8.28055e-21 -0.801872)
(4.24336 0 -0.774433)
(4.08944 0 -0.748001)
(3.94197 4.28994e-21 -0.722519)
(3.80052 -6.33582e-21 -0.697935)
(3.66469 0 -0.674198)
(3.53411 -2.38362e-21 -0.651263)
(3.40844 0 -0.629085)
(3.28738 -1.89802e-21 -0.607622)
(3.17063 1.83685e-23 -0.586838)
(3.05793 0 -0.566693)
(2.94904 0 -0.547156)
(2.84372 6.00188e-21 -0.528191)
(2.74175 1.39714e-20 -0.50977)
(2.64294 -3.15085e-20 -0.491862)
(2.54711 0 -0.474441)
(2.45406 -1.87506e-20 -0.457479)
(2.36365 -2.00326e-20 -0.440954)
(2.27571 -2.11263e-20 -0.424839)
(2.19011 -2.20946e-20 -0.409117)
(2.1067 0 -0.393761)
(2.02538 0 -0.378757)
(1.94598 -4.85653e-20 -0.36408)
(1.86845 -9.92143e-20 -0.34972)
(1.79263 -5.04632e-20 -0.335652)
(1.71848 2.97628e-23 -0.32187)
(1.64584 5.16232e-20 -0.308348)
(1.5747 5.19699e-20 -0.295086)
(1.5049 0 -0.282055)
(1.43648 0 -0.269264)
(1.36924 1.04306e-19 -0.256679)
(1.30328 2.07877e-19 -0.244321)
(1.23835 0 -0.232142)
(1.17466 1.02654e-19 -0.220187)
(1.11187 1.0177e-19 -0.208386)
(1.05032 1.00745e-19 -0.196815)
(0.989527 1.99051e-19 -0.185372)
(0.930047 0 -0.174176)
(0.871192 0 -0.163082)
(0.813748 1.90263e-19 -0.15226)
(0.756828 -3.73673e-19 -0.141518)
(0.70142 -1.83263e-19 -0.131073)
(0.646495 0 -0.120697)
(0.593141 0 -0.110635)
(0.540366 0 -0.100659)
(0.489103 0 -0.0909857)
(0.438686 0 -0.0814514)
(0.389408 0 -0.0721394)
(0.341455 -3.09744e-19 -0.0630712)
(0.294108 4.46206e-23 -0.0541232)
(0.249217 2.9234e-19 -0.0456502)
(0.20415 0 -0.0371432)
(0.163275 2.74765e-19 -0.0294339)
(0.120251 2.65945e-19 -0.0213027)
(0.0836599 0 -0.0143763)
(0.0412671 -2.48445e-19 -0.006377)
(0.010507 -4.79995e-19 -0.00054788)
(-0.0326297 0 0.0075975)
(-0.0556131 0 0.011907)
(-0.100342 0 0.0203472)
(-0.112162 -4.14439e-19 0.0226485)
(-0.168039 0 0.0334533)
(-0.173781 0 0.034503)
(-0.240032 3.67868e-19 0.0468662)
(-0.214009 -3.54879e-19 0.0416272)
(-0.291218 0 0.0564127)
(-0.244528 0 0.0489735)
(-0.437246 0 0.0903493)
(-0.568837 0 0.118565)
(-0.928408 0 0.183386)
(-0.774563 -1.70105e-22 0.142892)
(-0.654187 0 0.110801)
(-0.0357309 5.63464e-19 -0.00924563)
(0.0981373 -1.08918e-18 -0.0303146)
(0.533093 0 -0.107983)
(0.368475 3.85952e-23 -0.0719233)
(0.606096 0 -0.116965)
(0.433866 -5.46506e-23 -0.0856772)
(0.740933 0 -0.145241)
(0.652723 -8.12113e-19 -0.132469)
(1.14287 0 -0.225437)
(1.03713 7.30733e-19 -0.207611)
(1.67972 0 -0.332865)
(32.4948 0 2.08461)
(33.2537 0 2.21199)
(33.6024 0 1.73863)
(33.2412 0 0.946213)
(32.2225 1.16583e-20 0.105797)
(30.7532 -9.00529e-22 -0.642232)
(29.0384 0 -1.24249)
(27.2365 2.07212e-20 -1.68581)
(25.4572 0 -1.98928)
(23.7663 -3.54675e-20 -2.18109)
(22.1963 0 -2.28977)
(20.7572 1.53826e-20 -2.33926)
(19.4467 0 -2.34785)
(18.256 2.61436e-20 -2.32875)
(17.1741 -1.19185e-20 -2.29127)
(16.1894 2.20402e-20 -2.24185)
(15.291 -2.01948e-20 -2.18491)
(14.4692 -1.85541e-20 -2.12354)
(13.715 0 -2.05982)
(13.0209 -1.56655e-20 -1.99522)
(12.3801 -1.43295e-20 -1.93072)
(11.787 -2.61408e-20 -1.86702)
(11.2363 -1.1936e-20 -1.80456)
(10.7238 0 -1.74364)
(10.2456 0 -1.68446)
(9.79833 0 -1.62712)
(9.37911 -1.61888e-20 -1.57167)
(8.98533 -1.46015e-20 -1.51812)
(8.61472 0 -1.46646)
(8.26525 0 -1.41664)
(7.93513 1.04982e-20 -1.36863)
(7.62276 0 -1.32237)
(7.32671 1.15061e-24 -1.27778)
(7.0457 -1.44792e-20 -1.23481)
(6.77857 1.26183e-20 -1.19338)
(6.52428 0 -1.15344)
(6.28189 0 -1.11491)
(6.05054 7.81535e-21 -1.07772)
(5.82946 0 -1.04183)
(5.61794 0 -1.00716)
(5.41533 -4.04825e-21 -0.973651)
(5.22104 5.97851e-21 -0.941255)
(5.03452 0 -0.909914)
(4.85527 2.2489e-21 -0.879576)
(4.68283 0 -0.850193)
(4.51677 8.86211e-22 -0.821716)
(4.3567 2.25731e-21 -0.794101)
(4.20224 0 -0.767306)
(4.05307 4.62079e-21 -0.741289)
(3.90885 -5.66011e-21 -0.716011)
(3.7693 -2.63203e-20 -0.691436)
(3.63413 1.48411e-20 -0.667526)
(3.50309 -1.63117e-20 -0.644251)
(3.37594 2.47864e-23 -0.621574)
(3.25245 0 -0.599469)
(3.1324 1.99124e-20 -0.577903)
(3.01561 2.08229e-20 -0.556852)
(2.90186 -2.16022e-20 -0.536284)
(2.79101 2.22791e-20 -0.516181)
(2.68285 4.57554e-20 -0.496511)
(2.57729 4.67159e-20 -0.477259)
(2.47411 -4.74721e-20 -0.458396)
(2.37324 4.81293e-20 -0.439912)
(2.27448 0 -0.421775)
(2.17782 0 -0.403983)
(2.08301 4.90558e-20 -0.386501)
(1.99011 0 -0.369338)
(1.89885 0 -0.35245)
(1.80937 -9.7798e-20 -0.335864)
(1.72132 0 -0.31952)
(1.63497 -9.65821e-20 -0.303473)
(1.54987 -1.91442e-19 -0.287634)
(1.46647 0 -0.2721)
(1.38412 -9.35848e-20 -0.256739)
(1.30355 0 -0.241706)
(1.22386 0 -0.226812)
(1.14607 -1.78764e-19 -0.212279)
(1.06901 1.75585e-19 -0.197852)
(0.993988 3.92818e-23 -0.183824)
(0.919642 0 -0.169886)
(0.847416 0 -0.156372)
(0.775978 0 -0.142968)
(0.706607 -1.57357e-19 -0.129979)
(0.63835 1.53421e-19 -0.117162)
(0.571714 0 -0.104664)
(0.506828 5.81472e-19 -0.0924796)
(0.442901 2.82547e-19 -0.0804918)
(0.382204 -5.48629e-19 -0.0691207)
(0.321423 -2.65989e-19 -0.0577428)
(0.266134 -5.15485e-19 -0.0473919)
(0.208158 0 -0.0365236)
(0.158685 0 -0.0272186)
(0.101819 2.32957e-19 -0.0165838)
(0.0602311 4.50003e-19 -0.00874873)
(0.00270473 -4.33805e-19 0.00200296)
(-0.0284006 0 0.007807)
(-0.0878054 0 0.0188914)
(-0.104362 3.88304e-19 0.022165)
(-0.177873 3.72837e-19 0.0363206)
(-0.185054 0 0.0376367)
(-0.270992 -3.44518e-19 0.0533961)
(-0.237554 3.32306e-19 0.0466841)
(-0.340252 0 0.0662807)
(-0.28367 0 0.0583769)
(-0.535262 0 0.113889)
(-0.686861 0 0.14769)
(-1.1178 0 0.222276)
(-0.881368 -5.3418e-19 0.158331)
(-0.732288 0 0.114975)
(0.0619509 0 -0.0388009)
(0.197903 0 -0.0570644)
(0.75912 9.76172e-19 -0.154909)
(0.528001 9.25419e-19 -0.103347)
(0.857984 0 -0.165959)
(0.626518 -8.35496e-19 -0.124436)
(1.04381 0 -0.205828)
(0.926322 -7.5896e-19 -0.189933)
(1.55778 0 -0.309343)
(1.42546 -6.82897e-19 -0.28812)
(2.24459 0 -0.44832)
(32.5686 -5.01653e-21 1.46979)
(33.1527 -6.22034e-21 1.61097)
(33.6803 7.38077e-21 1.42143)
(33.9075 8.31447e-21 0.961835)
(33.7175 0 0.371179)
(33.122 -9.96164e-21 -0.243601)
(32.1943 0 -0.816737)
(31.0251 1.75207e-20 -1.31124)
(29.7028 1.6759e-20 -1.7117)
(28.3037 3.23359e-20 -2.01854)
(26.887 -1.48874e-20 -2.24141)
(25.4948 1.39004e-20 -2.3938)
(24.1542 0 -2.48957)
(22.8808 0 -2.54133)
(21.682 1.12365e-20 -2.55968)
(20.5595 -1.14763e-22 -2.55315)
(19.5118 1.76505e-22 -2.52836)
(18.5353 1.36257e-22 -2.49039)
(17.6256 0 -2.44307)
(16.7779 0 -2.38927)
(15.9871 0 -2.33115)
(15.2488 2.45631e-20 -2.27031)
(14.5584 1.11889e-20 -2.20796)
(13.9119 0 -2.14498)
(13.3056 0 -2.08204)
(12.7361 1.68192e-20 -2.01961)
(12.2002 0 -1.95805)
(11.6953 0 -1.89762)
(11.2189 0 -1.83849)
(10.7685 0 -1.78078)
(10.3423 -6.66277e-24 -1.72457)
(9.93837 0 -1.6699)
(9.55499 -1.86457e-24 -1.61678)
(9.19065 1.36488e-20 -1.56522)
(8.84397 2.10356e-24 -1.5152)
(8.51369 0 -1.46669)
(8.19866 0 -1.41966)
(7.89783 0 -1.37407)
(7.61023 0 -1.32988)
(7.33498 0 -1.28704)
(7.07127 0 -1.24551)
(6.81835 0 -1.20523)
(6.57553 -3.83581e-21 -1.16615)
(6.34218 -2.15415e-21 -1.12824)
(6.1177 0 -1.09144)
(5.90156 8.01515e-22 -1.0557)
(5.69325 0 -1.02098)
(5.49228 0 -0.987238)
(5.29824 -8.68947e-21 -0.954427)
(5.11069 0 -0.922505)
(4.92928 1.238e-20 -0.891433)
(4.75361 0 -0.86117)
(4.58339 3.06932e-20 -0.83168)
(4.41826 2.39867e-23 -0.802924)
(4.25796 0 -0.774872)
(4.10219 0 -0.747482)
(3.95071 0 -0.720731)
(3.80324 4.06445e-20 -0.694579)
(3.6596 -4.19159e-20 -0.669005)
(3.51951 -4.29893e-20 -0.64397)
(3.38283 -4.3893e-20 -0.61946)
(3.2493 8.92959e-20 -0.595435)
(3.11883 4.52208e-20 -0.571885)
(2.99113 0 -0.548771)
(2.8662 0 -0.526093)
(2.74372 -2.3769e-23 -0.503804)
(2.62375 0 -0.481918)
(2.50595 0 -0.46038)
(2.39047 -9.18638e-20 -0.439222)
(2.27688 0 -0.418372)
(2.16553 0 -0.397895)
(2.05581 1.79847e-19 -0.377684)
(1.9483 -8.89542e-20 -0.357856)
(1.84219 0 -0.338251)
(1.73835 0 -0.319058)
(1.6357 0 -0.300042)
(1.53547 1.67886e-19 -0.281482)
(1.43622 0 -0.263059)
(1.33957 3.23283e-19 -0.24514)
(1.24382 -1.5828e-19 -0.227334)
(1.15079 0 -0.21007)
(1.05878 0 -0.192942)
(0.969454 1.47661e-19 -0.176351)
(0.881529 -2.70445e-23 -0.159965)
(0.795781 1.40134e-19 -0.144009)
(0.712238 -2.72686e-19 -0.128437)
(0.630096 2.64906e-19 -0.11316)
(0.551992 2.57213e-19 -0.0986409)
(0.473968 2.4939e-19 -0.0841622)
(0.402788 3.47912e-23 -0.0709376)
(0.328437 0 -0.0571185)
(0.264778 -2.26006e-19 -0.0452273)
(0.192174 0 -0.0317768)
(0.13866 0 -0.0217583)
(0.0656406 4.06394e-19 -0.008257)
(0.025568 0 -0.000809849)
(-0.0495236 0 0.0130341)
(-0.0714872 0 0.0174315)
(-0.16337 -3.49092e-19 0.0350178)
(-0.171856 0 0.0365838)
(-0.277947 -3.22424e-19 0.055696)
(-0.237181 0 0.0475897)
(-0.366769 0 0.0722507)
(-0.300947 0 0.0644704)
(-0.610409 0 0.134459)
(-0.77035 0 0.171751)
(-1.25807 -4.98888e-19 0.251791)
(-0.923059 -4.99293e-19 0.159808)
(-0.752193 4.94748e-19 0.104948)
(0.215543 0 -0.0817582)
(0.336405 0 -0.0930573)
(1.02576 -1.8252e-18 -0.210366)
(0.719716 0 -0.141112)
(1.15369 8.17677e-19 -0.223509)
(0.857257 0 -0.170999)
(1.39337 7.37648e-19 -0.276141)
(1.24388 7.09236e-19 -0.257135)
(2.01341 0 -0.402337)
(1.85731 -6.37959e-19 -0.378677)
(2.84354 0 -0.572348)
(32.6245 4.7242e-21 1.01714)
(33.0362 1.14724e-20 1.10551)
(33.4829 -6.95229e-21 1.02375)
(33.849 -7.79761e-22 0.761557)
(34.0237 7.53376e-21 0.372357)
(33.9512 0 -0.0819214)
(33.6234 0 -0.552181)
(33.0606 -1.64983e-20 -1.00271)
(32.2981 -3.06591e-20 -1.4099)
(31.378 -7.08739e-22 -1.76073)
(30.344 1.40172e-20 -2.05071)
(29.2364 -1.30879e-20 -2.28116)
(28.0901 1.18452e-20 -2.4569)
(26.9333 0 -2.5845)
(25.7874 0 -2.67111)
(24.668 -9.63661e-21 -2.72372)
(23.5855 3.52911e-20 -2.74871)
(22.5464 3.25065e-20 -2.75163)
(21.5541 0 -2.73719)
(20.6101 0 -2.70926)
(19.7141 0 -2.671)
(18.8651 -6.78619e-23 -2.62494)
(18.0612 -2.10183e-20 -2.57312)
(17.3004 9.55804e-21 -2.51714)
(16.5803 1.73923e-20 -2.45826)
(15.8986 -3.16237e-20 -2.3975)
(15.253 1.42924e-20 -2.33563)
(14.641 1.2903e-20 -2.27328)
(14.0606 1.1612e-20 -2.21092)
(13.5097 0 -2.14891)
(12.9862 -9.31203e-21 -2.08755)
(12.4885 8.267e-21 -2.02706)
(12.0148 -7.31486e-21 -1.96758)
(11.5635 -1.28425e-20 -1.90925)
(11.1331 -2.23957e-20 -1.85214)
(10.7223 0 -1.79631)
(10.3299 0 -1.7418)
(9.95461 -6.95191e-21 -1.68863)
(9.59542 0 -1.63679)
(9.25131 4.63617e-21 -1.58628)
(8.92134 3.61423e-21 -1.53708)
(8.60464 0 -1.48917)
(8.30042 7.23465e-21 -1.44253)
(8.00791 2.02719e-21 -1.39712)
(7.72644 0 -1.35291)
(7.45533 -7.54194e-22 -1.30986)
(7.19398 -1.95549e-21 -1.26793)
(6.94183 0 -1.22709)
(6.69834 8.14662e-21 -1.1873)
(6.46301 -4.97419e-21 -1.14852)
(6.23537 -1.1593e-20 -1.11071)
(6.01498 0 -1.07382)
(5.80145 -2.41798e-23 -1.03783)
(5.59434 3.11926e-20 -1.00269)
(5.39335 0 -0.968374)
(5.19806 0 -0.934835)
(5.00822 -1.83718e-20 -0.902047)
(4.82346 -1.90975e-20 -0.869968)
(4.64355 3.93704e-20 -0.838575)
(4.46814 4.0411e-20 -0.807824)
(4.29708 4.12569e-20 -0.7777)
(4.13 -4.19484e-20 -0.748156)
(3.96681 -8.49664e-20 -0.719184)
(3.80716 0 -0.690736)
(3.651 0 -0.662812)
(3.49797 -8.66167e-20 -0.63536)
(3.34813 0 -0.608395)
(3.20103 0 -0.581852)
(3.05689 8.62799e-20 -0.55577)
(2.91515 0 -0.530062)
(2.77621 -8.51429e-20 -0.504807)
(2.63937 -3.17328e-23 -0.479878)
(2.50528 8.35111e-20 -0.455413)
(2.37299 0 -0.431221)
(2.24352 0 -0.407528)
(2.11557 0 -0.384055)
(1.9906 1.57454e-19 -0.361135)
(1.86692 0 -0.338382)
(1.74643 -1.51627e-19 -0.316246)
(1.6271 2.96912e-19 -0.294248)
(1.51113 0 -0.272919)
(1.39645 0 -0.251748)
(1.28511 0 -0.23125)
(1.1755 -2.68141e-23 -0.210988)
(1.0687 -1.31372e-19 -0.191285)
(0.964592 -2.55515e-19 -0.172036)
(0.862415 -2.48281e-19 -0.153201)
(0.765121 2.40964e-19 -0.135268)
(0.66815 0 -0.117442)
(0.579432 2.26328e-19 -0.101095)
(0.487121 0 -0.0840985)
(0.407824 2.11692e-19 -0.0693992)
(0.318066 0 -0.0529439)
(0.251399 0 -0.0405532)
(0.161653 0 -0.0241473)
(0.111658 -3.66942e-19 -0.0149204)
(0.0197536 -3.53082e-19 0.00178953)
(-0.00830835 0 0.00750524)
(-0.119321 3.26639e-19 0.0285665)
(-0.128966 -3.14549e-19 0.0303501)
(-0.255781 3.01684e-19 0.0527381)
(-0.207738 -2.90896e-19 0.0433229)
(-0.365431 0 0.073266)
(-0.290178 0 0.0661452)
(-0.654886 0 0.150563)
(-0.809509 0 0.188706)
(-1.3398 4.66505e-19 0.269587)
(-0.891466 1.73052e-22 0.144881)
(-0.708038 -9.24934e-19 0.0790571)
(0.430003 0 -0.139273)
(0.518469 0 -0.139311)
(1.33822 8.52938e-19 -0.275411)
(0.948989 0 -0.186376)
(1.49827 -7.64121e-19 -0.290848)
(1.13082 0 -0.226479)
(1.79233 -1.37839e-18 -0.357041)
(1.60838 0 -0.334847)
(2.50924 0 -0.504533)
(2.33323 5.95954e-19 -0.479594)
(3.47284 0 -0.70436)
(32.6503 0 0.663482)
(32.9522 -5.2811e-21 0.707892)
(33.2897 0 0.65944)
(33.6207 -6.6347e-21 0.497358)
(33.8824 -1.35283e-20 0.236465)
(34.0239 0 -0.0915131)
(34.0168 6.75105e-21 -0.455159)
(33.8498 0 -0.82838)
(33.5234 9.00068e-22 -1.19099)
(33.047 -2.60115e-20 -1.52852)
(32.4368 0 -1.83168)
(31.7129 0 -2.09556)
(30.8975 -1.11411e-20 -2.31856)
(30.0127 0 -2.50142)
(29.0798 0 -2.64642)
(28.1173 0 -2.7568)
(27.1416 -1.64868e-20 -2.83636)
(26.166 -1.52016e-20 -2.88902)
(25.2008 -1.3808e-20 -2.91866)
(24.2543 0 -2.9289)
(23.3321 0 -2.92301)
(22.4384 -1.0791e-20 -2.9039)
(21.5756 9.85916e-21 -2.87407)
(20.7452 -8.9896e-21 -2.83566)
(19.9477 -1.63578e-20 -2.79047)
(19.1832 2.96252e-20 -2.74002)
(18.4511 -5.48718e-23 -2.68555)
(17.7506 -1.21352e-20 -2.6281)
(17.0807 -1.09209e-20 -2.56851)
(16.44 0 -2.50747)
(15.8275 0 -2.44557)
(15.2418 -7.77455e-21 -2.38325)
(14.6815 0 -2.32088)
(14.1454 1.2077e-20 -2.25877)
(13.6322 1.05286e-20 -2.19714)
(13.1407 -9.08773e-21 -2.1362)
(12.6698 0 -2.07609)
(12.2183 6.53672e-21 -2.01691)
(11.7851 5.4051e-21 -1.95876)
(11.3693 3.39694e-24 -1.90169)
(10.9698 -6.80051e-21 -1.84575)
(10.5858 0 -1.79097)
(10.2165 -3.40759e-21 -1.73736)
(9.86091 0 -1.68493)
(9.51842 0 -1.63367)
(9.18826 0 -1.58356)
(8.86976 1.31885e-23 -1.5346)
(8.56226 0 -1.48676)
(8.26519 -3.82153e-21 -1.44002)
(7.97794 9.33653e-21 -1.39434)
(7.70001 1.08941e-20 -1.34971)
(7.43085 0 -1.30608)
(7.17002 -1.35285e-20 -1.26343)
(6.91702 -2.92629e-20 -1.22172)
(6.67147 0 -1.18092)
(6.4329 0 -1.14099)
(6.20099 1.72575e-20 -1.1019)
(5.9753 1.79018e-20 -1.06361)
(5.75557 -1.84803e-20 -1.02611)
(5.54138 -3.78872e-20 -0.989334)
(5.33252 0 -0.953279)
(5.12858 0 -0.917892)
(4.92943 2.76682e-23 -0.883165)
(4.73463 -4.02228e-20 -0.849046)
(4.54415 0 -0.815535)
(4.35752 4.06419e-20 -0.782575)
(4.17483 0 -0.750182)
(3.99553 0 -0.718284)
(3.81985 0 -0.686927)
(3.64716 0 -0.656009)
(3.4779 3.34418e-23 -0.625623)
(3.31122 -3.14128e-23 -0.595621)
(3.14791 -7.82828e-20 -0.566166)
(2.98683 0 -0.537034)
(2.82916 -7.62416e-20 -0.508492)
(2.67338 0 -0.480208)
(2.5212 -1.47645e-19 -0.452581)
(2.37062 1.44896e-19 -0.42515)
(2.22388 -1.42076e-19 -0.398455)
(2.07859 -1.39147e-19 -0.371919)
(1.93735 0 -0.346189)
(1.79769 1.32901e-19 -0.32064)
(1.66211 0 -0.295908)
(1.52859 -1.26413e-19 -0.271443)
(1.39859 -1.23035e-19 -0.24768)
(1.27181 2.39367e-19 -0.224446)
(1.14759 0 -0.201764)
(1.02913 -4.51333e-19 -0.180126)
(0.911311 0 -0.158686)
(0.803224 2.11866e-19 -0.138947)
(0.691188 0 -0.118527)
(0.594634 1.98128e-19 -0.10078)
(0.486143 0 -0.0811136)
(0.404948 3.69368e-19 -0.0661457)
(0.297093 -3.55988e-19 -0.0466705)
(0.236105 3.43384e-19 -0.0355118)
(0.126139 3.3038e-19 -0.0157903)
(0.0912535 0 -0.0085932)
(-0.0396899 -6.11112e-19 0.0159466)
(-0.0503377 5.88436e-19 0.0179432)
(-0.198553 0 0.0435566)
(-0.143173 2.72057e-19 0.0329261)
(-0.329932 0 0.0682824)
(-0.244031 0 0.062126)
(-0.659834 -4.74838e-19 0.16044)
(-0.793738 0 0.196305)
(-1.35335 0 0.273424)
(-0.778366 4.36209e-19 0.112036)
(-0.593743 8.64199e-19 0.0360481)
(0.710617 4.30113e-19 -0.212203)
(0.749635 0 -0.196807)
(1.70215 0 -0.351063)
(1.22181 0 -0.240267)
(1.89672 0 -0.368891)
(1.45236 6.81508e-19 -0.291827)
(2.24271 6.43798e-19 -0.44896)
(2.02287 0 -0.423597)
(3.04363 0 -0.615693)
(2.85296 0 -0.590847)
(4.12766 0 -0.843481)
(32.6505 4.23653e-21 0.374736)
(32.8829 0 0.391669)
(33.139 4.95366e-21 0.351973)
(33.4043 0 0.239594)
(33.6478 6.05312e-21 0.0550562)
(33.8382 0 -0.186952)
(33.9525 -6.34513e-21 -0.467294)
(33.9758 1.16444e-20 -0.768031)
(33.8989 2.37708e-20 -1.074)
(33.7171 7.27748e-22 -1.37322)
(33.4301 0 -1.6567)
(33.0412 0 -1.9182)
(32.557 0 -2.15389)
(31.9867 0 -2.36167)
(31.3412 0 -2.54081)
(30.6324 0 -2.69156)
(29.8729 1.48617e-20 -2.81496)
(29.0748 -1.37826e-20 -2.91258)
(28.2495 1.2974e-20 -2.9864)
(27.4076 0 -3.03862)
(26.5582 0 -3.07156)
(25.7091 9.93763e-21 -3.08755)
(24.8668 9.10332e-21 -3.08883)
(24.0363 8.31915e-21 -3.07749)
(23.2218 0 -3.05545)
(22.4262 -1.38844e-20 -3.02446)
(21.6518 -2.50812e-20 -2.98605)
(20.9 1.13023e-20 -2.94155)
(20.1718 0 -2.89215)
(19.4675 0 -2.83884)
(18.7874 0 -2.78249)
(18.1312 7.26862e-21 -2.72382)
(17.4987 0 -2.66345)
(16.8892 0 -2.60189)
(16.3022 9.86337e-21 -2.5396)
(15.7369 8.53707e-21 -2.47692)
(15.1925 0 -2.41416)
(14.6683 6.1353e-21 -2.35158)
(14.1635 -1.01523e-20 -2.28937)
(13.6772 -4.09757e-21 -2.22769)
(13.2086 3.19587e-21 -2.1667)
(12.7569 0 -2.10648)
(12.3214 0 -2.04713)
(11.9012 0 -1.9887)
(11.4957 5.42399e-22 -1.93125)
(11.1041 0 -1.8748)
(10.7258 1.71359e-21 -1.81938)
(10.3601 2.67715e-21 -1.765)
(10.0064 0 -1.71166)
(9.66407 -4.37717e-21 -1.65936)
(9.33254 0 -1.60809)
(9.01124 0 -1.55783)
(8.69968 -1.2657e-20 -1.50857)
(8.39732 2.09241e-23 -1.46028)
(8.10374 1.46287e-20 -1.41294)
(7.8184 0 -1.36652)
(7.54096 0 -1.321)
(7.2709 -1.68007e-20 -1.27634)
(7.00794 0 -1.23253)
(6.75157 3.55522e-20 -1.18952)
(6.50158 0 -1.14729)
(6.25747 0 -1.1058)
(6.0191 7.47409e-20 -1.06505)
(5.78595 7.5441e-20 -1.02497)
(5.558 3.79511e-20 -0.985574)
(5.33466 0 -0.946795)
(5.11606 0 -0.908657)
(4.90153 3.80503e-20 -0.871078)
(4.69137 7.582e-20 -0.834112)
(4.48478 0 -0.797647)
(4.28232 7.48693e-20 -0.761788)
(4.08298 -7.41897e-20 -0.726368)
(3.88764 7.33849e-20 -0.691574)
(3.695 -7.24449e-20 -0.657151)
(3.50641 7.1459e-20 -0.623406)
(3.3201 0 -0.589956)