/*--------------------------------*- C++ -*----------------------------------*\
| =========                 |                                                 |
| \\      /  F ield         | OpenFOAM: The Open Source CFD Toolbox           |
|  \\    /   O peration     | Version:  2412                                  |
|   \\  /    A nd           | Website:  www.openfoam.com                      |
|    \\/     M anipulation  |                                                 |
\*---------------------------------------------------------------------------*/
FoamFile
{
    version     2.0;
    format      ascii;
    arch        "LSB;label=32;scalar=64";
    class       volVectorField;
    location    "1.405";
    object      U;
}
// * * * * * * * * * * * * * * * * * * * * * * * * * * * * * * * * * * * * * //

dimensions      [0 1 -1 0 0 0 0];

internalField   nonuniform List<vector> 
12600
(
(18.7474 1.23965e-21 2.09648)
(11.6236 1.6092e-20 0.451694)
(7.35328 1.89178e-20 -0.477762)
(5.09058 0 -0.70933)
(3.97705 1.70923e-20 -0.682425)
(3.33599 1.59137e-20 -0.60768)
(2.89449 0 -0.539956)
(2.56306 0 -0.484454)
(2.30327 -4.7797e-20 -0.43895)
(2.09298 0 -0.401171)
(1.91848 2.00359e-20 -0.369268)
(1.77082 1.83401e-20 -0.341911)
(1.64389 -1.67959e-20 -0.31815)
(1.53337 0 -0.297288)
(1.43605 -1.40672e-20 -0.2788)
(1.34955 0 -0.262283)
(1.27205 4.72311e-20 -0.247422)
(1.20211 0 -0.233965)
(1.1386 -1.97494e-20 -0.221712)
(1.08061 -1.80531e-20 -0.210498)
(1.0274 1.64709e-20 -0.200189)
(0.97836 5.36129e-24 -0.190674)
(0.932981 0 -0.181857)
(0.890839 -2.47989e-20 -0.17366)
(0.851573 0 -0.166016)
(0.814875 0 -0.158867)
(0.780483 -1.83367e-20 -0.152163)
(0.748169 0 -0.145861)
(0.717734 4.13467e-24 -0.139924)
(0.689007 1.32016e-20 -0.134317)
(0.661833 1.17347e-20 -0.129013)
(0.636081 1.03763e-20 -0.123986)
(0.61163 -9.11866e-21 -0.119212)
(0.588375 -1.59097e-20 -0.114671)
(0.566221 -1.37566e-20 -0.110345)
(0.545083 1.17554e-20 -0.106218)
(0.524884 0 -0.102274)
(0.505556 -8.22935e-21 -0.0985008)
(0.487035 0 -0.0948855)
(0.469265 5.21946e-21 -0.091417)
(0.452193 0 -0.0880855)
(0.43577 1.76067e-23 -0.0848814)
(0.419956 0 -0.0817965)
(0.404707 1.60225e-23 -0.0788224)
(0.389989 -8.74186e-22 -0.0759526)
(0.375764 2.58481e-21 -0.0731795)
(0.362004 -4.17382e-21 -0.0704979)
(0.348675 0 -0.0679009)
(0.335755 0 -0.0653843)
(0.323211 -8.09118e-21 -0.0629416)
(0.311028 -1.83158e-20 -0.0605698)
(0.299173 -2.02361e-20 -0.0582625)
(0.287636 1.95245e-23 -0.0560179)
(0.276385 -2.34776e-20 -0.0538293)
(0.265415 0 -0.0516964)
(0.254691 2.60661e-20 -0.0496116)
(0.244218 2.71219e-20 -0.0475764)
(0.233954 2.8023e-20 -0.0455824)
(0.223915 0 -0.0436327)
(0.214052 0 -0.0417175)
(0.204391 0 -0.0398423)
(0.194874 -6.0984e-20 -0.0379955)
(0.185542 0 -0.0361851)
(0.176325 0 -0.0343975)
(0.167277 1.25117e-19 -0.0326433)
(0.15832 0 -0.0309069)
(0.149519 0 -0.0292013)
(0.140788 0 -0.0275096)
(0.132203 -1.25043e-19 -0.0258465)
(0.123674 1.24397e-19 -0.0241945)
(0.115279 1.23549e-19 -0.0225688)
(0.106939 2.35052e-23 -0.0209539)
(0.0987181 -1.21256e-19 -0.0193623)
(0.0905669 0 -0.0177843)
(0.0825134 1.18279e-19 -0.0162253)
(0.0745696 0 -0.0146876)
(0.0666877 0 -0.0131618)
(0.0589891 0 -0.0116713)
(0.0512977 2.86886e-23 -0.0101822)
(0.0439002 2.16945e-19 -0.0087497)
(0.0364397 2.12375e-19 -0.00730485)
(0.0294088 -2.07592e-19 -0.00594268)
(0.0222543 -2.02689e-19 -0.00455646)
(0.0156444 0 -0.00327495)
(0.00892771 0 -0.00197269)
(0.00274622 3.74354e-19 -0.000773248)
(-0.00331089 -7.27236e-19 0.000402572)
(-0.00915737 7.05251e-19 0.00153813)
(-0.0141998 3.4169e-19 0.00251831)
(-0.0199691 0 0.00363968)
(-0.0234881 -6.38763e-19 0.00432687)
(-0.0296526 3.07887e-19 0.00552397)
(-0.0310395 -2.9699e-19 0.00580158)
(-0.0380433 5.70731e-19 0.00715826)
(-0.0371573 0 0.00699676)
(-0.0444793 0 0.00841512)
(-0.0429735 0 0.00812367)
(-0.0481509 0 0.00913959)
(-0.0494165 0 0.00937605)
(-0.0487503 0 0.00927731)
(-0.0541501 -4.20837e-19 0.0103127)
(-0.053884 -8.05022e-19 0.0102501)
(-0.0546851 -7.64537e-19 0.0104292)
(-0.0573248 0 0.0109099)
(-0.045721 0 0.00881381)
(-0.0822898 0 0.0156997)
(-0.0381231 -6.35214e-19 0.00713423)
(-0.0608158 -1.16351e-18 0.011889)
(-0.0837099 5.6134e-19 0.0158212)
(-0.0303282 0 0.00589469)
(-0.101882 -9.80875e-19 0.0195763)
(-0.0611941 0 0.0115228)
(-0.0730058 -8.82917e-19 0.0143924)
(-0.137756 8.21119e-19 0.026475)
(-0.178737 -7.96721e-19 0.0340654)
(-0.123206 -7.73031e-19 0.0236564)
(-0.281721 7.09937e-19 0.053628)
(-0.209296 -1.40281e-22 0.0390109)
(-0.128568 7.1217e-19 0.0242074)
(-0.0734052 0 0.0136573)
(29.1595 -1.25143e-21 4.02895)
(25.1136 0 1.86018)
(20.2491 -1.91469e-20 -0.212892)
(16.0808 0 -1.21206)
(13.1199 -1.73195e-20 -1.50776)
(11.0762 -3.04009e-20 -1.51875)
(9.60322 -1.40688e-20 -1.44108)
(8.4907 0 -1.3434)
(7.61745 3.55889e-22 -1.24797)
(6.91061 -2.1858e-20 -1.16085)
(6.32451 2.00637e-20 -1.08273)
(5.82911 1.84142e-20 -1.01289)
(5.40378 -1.68978e-20 -0.950301)
(5.03385 1.55028e-20 -0.894002)
(4.70857 2.84929e-20 -0.843126)
(4.41985 0 -0.796939)
(4.16149 -6.44762e-23 -0.754821)
(3.92867 2.18655e-20 -0.716251)
(3.71754 2.00368e-20 -0.680789)
(3.52502 0 -0.648063)
(3.3486 0 -0.617759)
(3.18621 1.52157e-20 -0.589606)
(3.03614 0 -0.563375)
(2.89694 1.25713e-20 -0.538867)
(2.7674 -2.27813e-20 -0.515909)
(2.64648 0 -0.494352)
(2.53329 1.85856e-20 -0.474065)
(2.42706 0 -0.454933)
(2.32713 -1.49765e-20 -0.436855)
(2.2329 -2.67454e-20 -0.41974)
(2.14387 -2.37694e-20 -0.40351)
(2.05958 -1.05027e-20 -0.388092)
(1.97964 9.22719e-21 -0.373423)
(1.90369 3.22067e-20 -0.359446)
(1.83141 2.78422e-20 -0.346109)
(1.76252 0 -0.333364)
(1.69675 0 -0.32117)
(1.63388 -1.74012e-23 -0.309488)
(1.5737 0 -0.298283)
(1.51601 -5.26926e-21 -0.287522)
(1.46064 0 -0.277177)
(1.40743 -5.38187e-21 -0.267218)
(1.35624 0 -0.257622)
(1.30693 -1.03661e-21 -0.248365)
(1.25938 0 -0.239427)
(1.21347 -2.60274e-21 -0.230785)
(1.16909 0 -0.222424)
(1.12615 0 -0.214322)
(1.08457 6.91467e-21 -0.206469)
(1.04423 0 -0.198843)
(1.00509 0 -0.191437)
(0.967034 0 -0.18423)
(0.930036 2.20086e-20 -0.177217)
(0.893983 4.70438e-20 -0.170377)
(0.858865 0 -0.163711)
(0.824564 0 -0.157194)
(0.791092 -2.70976e-20 -0.150832)
(0.758319 -2.80217e-20 -0.144596)
(0.726287 0 -0.138501)
(0.694843 0 -0.132511)
(0.664065 0 -0.126648)
(0.633774 0 -0.120872)
(0.604087 -6.14043e-20 -0.115212)
(0.574793 6.18781e-20 -0.109621)
(0.54605 -1.24405e-19 -0.104136)
(0.517618 0 -0.0987046)
(0.489693 0 -0.0933725)
(0.46201 0 -0.0880805)
(0.434796 4.75328e-23 -0.0828813)
(0.407778 -1.23208e-19 -0.0777132)
(0.38119 -1.22256e-19 -0.0726312)
(0.354786 2.42148e-19 -0.0675779)
(0.328762 3.60217e-23 -0.0626025)
(0.302964 -1.18216e-19 -0.0576634)
(0.277476 -1.16596e-19 -0.0527891)
(0.252331 0 -0.0479739)
(0.227381 0 -0.0432022)
(0.202996 0 -0.0385324)
(0.178635 2.17284e-19 -0.0338732)
(0.155177 0 -0.0293813)
(0.13152 0 -0.0248569)
(0.109186 2.03174e-19 -0.0205818)
(0.0864557 1.98164e-19 -0.0162351)
(0.0654136 0 -0.0122098)
(0.0440081 0 -0.00811701)
(0.0242877 0 -0.0043485)
(0.0048831 7.07847e-19 -0.000637618)
(-0.0137899 -4.29557e-23 0.00292765)
(-0.0301055 3.31825e-19 0.00604453)
(-0.0485076 -3.20513e-19 0.00955799)
(-0.0601687 6.1903e-19 0.0117799)
(-0.0797258 2.98026e-19 0.0155196)
(-0.0848463 5.74395e-19 0.0164769)
(-0.106938 0 0.0207224)
(-0.104962 0 0.0202864)
(-0.128201 0 0.0247998)
(-0.123838 0 0.0238554)
(-0.140985 4.64914e-19 0.027245)
(-0.14436 0 0.0277736)
(-0.144221 0 0.0277872)
(-0.16055 -4.0352e-19 0.031)
(-0.159975 3.85584e-19 0.0307216)
(-0.163069 1.46332e-18 0.0314446)
(-0.171037 -6.97319e-19 0.0326877)
(-0.141038 0 0.0274885)
(-0.243014 0 0.0467912)
(-0.114594 0 0.0212938)
(-0.189697 5.54148e-19 0.0375944)
(-0.24562 -5.3423e-19 0.04655)
(-0.0994202 0 0.0193014)
(-0.310074 1.86383e-18 0.060336)
(-0.182766 9.09086e-19 0.0343419)
(-0.237988 1.67509e-18 0.0472241)
(-0.416375 0 0.0818334)
(-0.52664 0 0.10109)
(-0.375914 -7.31642e-19 0.0735422)
(-0.821112 0 0.159707)
(-0.585624 -7.17734e-19 0.109471)
(-0.37458 -6.72537e-19 0.070019)
(-0.200962 0 0.0375107)
(31.9031 0 3.90059)
(31.0876 0 2.82174)
(28.5563 -1.29671e-20 1.02537)
(25.2117 0 -0.382126)
(21.9585 0 -1.22642)
(19.1846 1.51132e-20 -1.6513)
(16.9258 1.33232e-20 -1.81959)
(15.1004 0 -1.85113)
(13.6126 4.20736e-22 -1.81736)
(12.3822 2.07075e-20 -1.75479)
(11.3486 -3.78073e-20 -1.68094)
(10.4677 -1.74474e-20 -1.60418)
(9.70715 1.14517e-22 -1.52847)
(9.04312 -1.46901e-20 -1.45568)
(8.45768 -1.34732e-20 -1.3866)
(7.9371 1.23019e-20 -1.32147)
(7.47072 -2.26326e-20 -1.26029)
(7.0501 -2.07206e-20 -1.20289)
(6.66851 0 -1.14906)
(6.3205 0 -1.09855)
(6.00159 1.5781e-20 -1.05112)
(5.70809 1.4387e-20 -1.00652)
(5.43692 0 -0.96453)
(5.1855 0 -0.924941)
(4.95162 2.15867e-20 -0.887563)
(4.73341 0 -0.852219)
(4.52926 -3.52151e-20 -0.818752)
(4.33777 1.58354e-20 -0.787016)
(4.15773 0 -0.756881)
(3.98807 1.26724e-20 -0.728227)
(3.82788 1.12626e-20 -0.700946)
(3.67633 0 -0.674938)
(3.53269 -8.75415e-21 -0.650115)
(3.3963 -1.52617e-20 -0.626394)
(3.2666 1.21874e-23 -0.603699)
(3.14305 0 -0.581962)
(3.0252 0 -0.561119)
(2.91262 7.88963e-21 -0.541112)
(2.80492 0 -0.521888)
(2.70176 0 -0.503396)
(2.60283 0 -0.485592)
(2.50782 0 -0.468431)
(2.41647 0 -0.451876)
(2.32855 0 -0.435887)
(2.24382 0 -0.420435)
(2.16207 2.42018e-21 -0.405481)
(2.08312 -3.92119e-21 -0.391003)
(2.00677 0 -0.376964)
(1.93288 -6.54193e-21 -0.363346)
(1.86126 0 -0.350116)
(1.79182 0 -0.33726)
(1.72435 1.91296e-20 -0.324744)
(1.6588 0 -0.312562)
(1.59497 -2.22268e-20 -0.300676)
(1.53284 2.34831e-20 -0.289089)
(1.4722 0 -0.277757)
(1.41306 2.56131e-20 -0.266694)
(1.3552 0 -0.255849)
(1.29868 0 -0.245246)
(1.24323 0 -0.234827)
(1.18899 5.65475e-20 -0.224627)
(1.13565 5.73467e-20 -0.214577)
(1.0834 2.85344e-23 -0.204729)
(1.03187 -1.16834e-19 -0.195)
(0.981334 2.50282e-23 -0.185458)
(0.931376 0 -0.176007)
(0.882326 0 -0.166731)
(0.83373 -1.17367e-19 -0.157521)
(0.785967 3.82762e-23 -0.148476)
(0.738573 0 -0.139482)
(0.691939 0 -0.130641)
(0.645645 -1.14157e-19 -0.121844)
(0.600022 2.89786e-23 -0.113188)
(0.554801 2.69742e-23 -0.104587)
(0.510123 0 -0.0961049)
(0.466041 0 -0.0877153)
(0.422302 -2.12566e-19 -0.0794092)
(0.37953 2.08653e-19 -0.0712665)
(0.336802 0 -0.0631515)
(0.295614 0 -0.0553109)
(0.254082 0 -0.0474233)
(0.21481 0 -0.0399521)
(0.174844 0 -0.0323618)
(0.137777 0 -0.0253191)
(0.100045 0 -0.0181525)
(0.0652435 0 -0.0115547)
(0.030894 -6.65478e-19 -0.00502606)
(-0.0020925 -3.22282e-19 0.00121136)
(-0.0312026 -3.11873e-19 0.00674558)
(-0.0636774 3.01179e-19 0.0128743)
(-0.0848689 -5.81515e-19 0.016902)
(-0.119231 -2.79934e-19 0.0233933)
(-0.129258 -2.69696e-19 0.0252693)
(-0.167882 0 0.0326303)
(-0.165625 0 0.0320639)
(-0.206432 0 0.0400076)
(-0.199416 0 0.0383574)
(-0.23052 -4.36167e-19 0.0446256)
(-0.235599 0 0.0451781)
(-0.238166 0 0.0458719)
(-0.265522 3.78352e-19 0.0512946)
(-0.265128 0 0.0507401)
(-0.271292 -6.85756e-19 0.0522802)
(-0.284962 6.53467e-19 0.0540491)
(-0.240709 0 0.0475136)
(-0.40137 0 0.07683)
(-0.19296 0 0.0350865)
(-0.326579 5.18974e-19 0.0660426)
(-0.40393 0 0.075207)
(-0.178693 -4.75539e-19 0.0353364)
(-0.52402 -1.74548e-23 0.102698)
(-0.306253 -8.50809e-19 0.0565698)
(-0.423214 -1.56762e-18 0.0862348)
(-0.698716 0 0.139625)
(-0.869098 7.05685e-19 0.165872)
(-0.636257 6.84362e-19 0.126557)
(-1.34035 6.27651e-19 0.261504)
(-0.922476 0 0.166406)
(-0.612368 6.28846e-19 0.11063)
(-0.306716 0 0.0547797)
(32.4244 0 2.95914)
(32.9897 0 2.77212)
(32.4354 1.22582e-20 1.72653)
(30.7908 0 0.524012)
(28.5358 -1.22977e-20 -0.48225)
(26.1174 2.50127e-20 -1.206)
(23.796 0 -1.66958)
(21.6877 -2.1825e-20 -1.93402)
(19.8262 2.0923e-20 -2.06336)
(18.202 1.89167e-20 -2.10769)
(16.7874 1.77757e-20 -2.10088)
(15.5513 -1.61526e-20 -2.06422)
(14.4652 1.5034e-20 -2.01069)
(13.5047 -2.74014e-20 -1.94812)
(12.6497 0 -1.88124)
(11.884 -2.32067e-20 -1.81292)
(11.1942 0 -1.7449)
(10.5695 0 -1.67825)
(10.0008 0 -1.61357)
(9.48087 1.6305e-20 -1.55121)
(9.00343 -3.41401e-23 -1.49132)
(8.56336 -2.59587e-23 -1.43396)
(8.15629 1.23662e-20 -1.37912)
(7.77852 0 -1.32672)
(7.42688 0 -1.27668)
(7.09865 0 -1.22891)
(6.79146 3.3291e-20 -1.18328)
(6.50329 -5.9224e-24 -1.13969)
(6.23233 0 -1.09802)
(5.97702 0 -1.05817)
(5.73598 0 -1.02003)
(5.50798 0 -0.983503)
(5.29194 1.65589e-20 -0.948496)
(5.08687 0 -0.914918)
(4.89192 -1.2486e-20 -0.882687)
(4.7063 0 -0.851722)
(4.52931 0 -0.821952)
(4.36031 -7.48184e-21 -0.793305)
(4.19872 0 -0.765718)
(4.04402 0 -0.739129)
(3.89572 3.54979e-21 -0.713483)
(3.75339 -4.88656e-21 -0.688723)
(3.61663 0 -0.664802)
(3.48506 -9.93257e-22 -0.641668)
(3.35835 0 -0.619283)
(3.23616 -4.55329e-21 -0.597598)
(3.11823 1.89197e-23 -0.57658)
(3.00426 0 -0.556183)
(2.89403 0 -0.536383)
(2.78726 7.20476e-21 -0.517132)
(2.68378 1.6319e-20 -0.498415)
(2.58333 -3.60972e-20 -0.480182)
(2.48578 0 -0.462428)
(2.39086 -2.09335e-20 -0.445097)
(2.29852 -2.21672e-20 -0.428196)
(2.20845 -2.32041e-20 -0.411663)
(2.12068 -2.41306e-20 -0.395517)
(2.03485 0 -0.379685)
(1.95106 0 -0.364205)
(1.86892 -5.2365e-20 -0.348988)
(1.78861 -1.06647e-19 -0.334092)
(1.70968 -5.40877e-20 -0.319413)
(1.6324 3.06196e-23 -0.305027)
(1.55624 5.50699e-20 -0.290814)
(1.48157 5.53302e-20 -0.276874)
(1.40781 0 -0.263065)
(1.33541 0 -0.249512)
(1.26372 1.10605e-19 -0.236055)
(1.19328 2.20205e-19 -0.222839)
(1.12341 0 -0.209694)
(1.05467 1.08512e-19 -0.196775)
(0.98646 1.0745e-19 -0.183916)
(0.919243 1.0627e-19 -0.171265)
(0.852626 2.09761e-19 -0.158688)
(0.78681 0 -0.146289)
(0.721861 0 -0.134014)
(0.657419 2.00029e-19 -0.121867)
(0.594366 -3.92583e-19 -0.109944)
(0.531382 -1.92383e-19 -0.0980707)
(0.4706 0 -0.086578)
(0.409322 0 -0.0750266)
(0.351281 0 -0.0640618)
(0.29222 0 -0.0529293)
(0.237337 0 -0.042581)
(0.18144 0 -0.0320431)
(0.129814 -3.22181e-19 -0.0223417)
(0.0787179 4.11307e-23 -0.0127)
(0.0297296 3.02612e-19 -0.00353786)
(-0.0139047 0 0.00471072)
(-0.0620873 2.82703e-19 0.0136844)
(-0.0944097 2.72915e-19 0.0198036)
(-0.145172 0 0.0292555)
(-0.16149 -2.53025e-19 0.0323099)
(-0.21826 -4.85508e-19 0.042998)
(-0.216732 0 0.0424762)
(-0.276931 0 0.0541491)
(-0.267596 0 0.0517671)
(-0.314901 -4.08868e-19 0.0613943)
(-0.321244 0 0.0617137)
(-0.329127 0 0.0636967)
(-0.36735 3.54499e-19 0.0712568)
(-0.367998 -3.38607e-19 0.0704334)
(-0.378061 0 0.0730541)
(-0.398038 0 0.0752712)
(-0.343463 0 0.0686447)
(-0.555844 0 0.106182)
(-0.27341 0 0.048994)
(-0.470009 1.12777e-23 0.0967422)
(-0.557462 0 0.102493)
(-0.268786 4.44994e-19 0.0539408)
(-0.741377 -8.16142e-19 0.14628)
(-0.432192 0 0.079021)
(-0.627263 -6.82978e-23 0.13037)
(-0.980458 0 0.199007)
(-1.20379 -9.59095e-23 0.229371)
(-0.900636 0 0.182047)
(-1.83301 -5.86832e-19 0.359831)
(-1.21413 0 0.2129)
(-0.839683 5.87701e-19 0.147414)
(-0.384042 0 0.0656375)
(32.5265 0 2.10722)
(33.2838 0 2.232)
(33.6299 0 1.75604)
(33.2648 0 0.961009)
(32.2409 1.16081e-20 0.118208)
(30.7655 -9.0175e-22 -0.631815)
(29.0443 0 -1.2336)
(27.2362 2.05998e-20 -1.67797)
(25.4509 0 -1.9821)
(23.7547 -3.52094e-20 -2.17426)
(22.1799 0 -2.28307)
(20.7368 1.52492e-20 -2.33257)
(19.4227 0 -2.34107)
(18.229 2.58712e-20 -2.32183)
(17.1444 -1.17816e-20 -2.28418)
(16.1574 2.17659e-20 -2.23458)
(15.257 -1.99216e-20 -2.17746)
(14.4333 -1.82822e-20 -2.1159)
(13.6775 0 -2.052)
(12.982 -1.53964e-20 -1.98721)
(12.3399 -1.40626e-20 -1.92254)
(11.7456 -2.56144e-20 -1.85867)
(11.1938 -1.1677e-20 -1.79605)
(10.6803 0 -1.73497)
(10.2011 0 -1.67563)
(9.75295 0 -1.61813)
(9.33286 -1.57123e-20 -1.56253)
(8.93823 -1.41347e-20 -1.50882)
(8.56678 0 -1.45701)
(8.21648 0 -1.40704)
(7.88553 1.00575e-20 -1.35887)
(7.57233 0 -1.31244)
(7.27543 1.42026e-24 -1.26769)
(6.99355 -1.36461e-20 -1.22454)
(6.72553 1.18028e-20 -1.18294)
(6.47033 0 -1.14282)
(6.22698 0 -1.10409)
(5.99464 7.06151e-21 -1.06671)
(5.77252 0 -1.03061)
(5.55991 0 -0.995719)
(5.35616 -3.3498e-21 -0.961984)
(5.16065 4.61098e-21 -0.929345)
(4.97286 0 -0.89775)
(4.79226 9.3712e-22 -0.867141)
(4.6184 0 -0.837475)
(4.45082 2.13835e-21 -0.808694)
(4.28915 3.47638e-21 -0.780763)
(4.13298 0 -0.753626)
(3.98201 5.78016e-21 -0.727254)
(3.83585 -6.7945e-21 -0.70159)
(3.69428 -3.0747e-20 -0.676617)
(3.55691 1.7004e-20 -0.65227)
(3.4236 -1.84222e-20 -0.628547)
(3.29395 2.54825e-23 -0.605376)
(3.16789 0 -0.582767)
(3.04501 2.18708e-20 -0.56064)
(2.92531 2.27417e-20 -0.539023)
(2.80835 -2.34718e-20 -0.517818)
(2.69423 2.41131e-20 -0.497078)
(2.58242 4.93353e-20 -0.476686)
(2.47316 5.02164e-20 -0.456718)
(2.36584 -5.08843e-20 -0.437037)
(2.26081 5.14529e-20 -0.417748)
(2.15737 0 -0.398685)
(2.056 0 -0.379988)
(1.95591 5.21527e-20 -0.361462)
(1.8577 0 -0.34328)
(1.76051 0 -0.325222)
(1.66503 -1.03598e-19 -0.307489)
(1.57037 0 -0.289845)
(1.47727 -1.02093e-19 -0.272507)
(1.38489 -2.02128e-19 -0.255241)
(1.29388 0 -0.238258)
(1.20368 -9.86206e-20 -0.221363)
(1.11457 0 -0.204714)
(1.02662 0 -0.188213)
(0.939354 -1.87943e-19 -0.171896)
(0.853915 1.84471e-19 -0.155854)
(0.76858 3.93764e-23 -0.139892)
(0.68613 0 -0.124411)
(0.603025 0 -0.108868)
(0.524169 0 -0.0940782)
(0.443945 -1.64522e-19 -0.0790745)
(0.369231 1.60163e-19 -0.0650982)
(0.293115 0 -0.0508586)
(0.222695 6.04825e-19 -0.037746)
(0.152829 2.93301e-19 -0.0246576)
(0.0859257 -5.67912e-19 -0.0122854)
(0.0258086 -2.74681e-19 -0.000984933)
(-0.039937 -5.30382e-19 0.0110904)
(-0.0852242 0 0.0196352)
(-0.154187 0 0.0322801)
(-0.178419 2.37252e-19 0.0368216)
(-0.255134 4.55171e-19 0.0510771)
(-0.255574 -4.37542e-19 0.0508119)
(-0.337171 0 0.0665695)
(-0.326012 0 0.0634338)
(-0.392022 3.83085e-19 0.0770006)
(-0.399187 3.65999e-19 0.0767595)
(-0.41544 0 0.0807876)
(-0.464062 -3.31997e-19 0.0903547)
(-0.467108 3.17068e-19 0.0893381)
(-0.481887 0 0.0933339)
(-0.50907 0 0.0958977)
(-0.447662 0 0.0905941)
(-0.705078 0 0.133985)
(-0.355985 0 0.0629707)
(-0.618042 -4.5452e-19 0.129399)
(-0.705317 0 0.127672)
(-0.369734 0 0.0754646)
(-0.959459 0 0.190501)
(-0.561174 7.44278e-19 0.101647)
(-0.84742 6.85679e-19 0.179699)
(-1.25696 0 0.259005)
(-1.52861 -6.16885e-19 0.29017)
(-1.16422 0 0.239117)
(-2.29336 -5.48237e-19 0.451794)
(-1.45622 0 0.245417)
(-1.05439 -5.49228e-19 0.178796)
(-0.425752 0 0.0673058)
(32.5981 -4.9706e-21 1.49363)
(33.181 -6.17282e-21 1.63258)
(33.7072 7.33227e-21 1.44092)
(33.9323 8.26452e-21 0.979231)
(33.7391 0 0.386565)
(33.1395 -9.90917e-21 -0.230058)
(32.2069 0 -0.804805)
(31.0323 1.74046e-20 -1.30063)
(29.7044 1.66398e-20 -1.7021)
(28.2997 3.20926e-20 -2.00965)
(26.8775 -1.47636e-20 -2.23298)
(25.4802 1.37749e-20 -2.38562)
(24.1349 0 -2.48148)
(22.8573 0 -2.53322)
(21.6547 1.11075e-20 -2.55148)
(20.5287 -1.14537e-22 -2.54479)
(19.4779 1.76009e-22 -2.51982)
(18.4986 1.35838e-22 -2.48163)
(17.5864 0 -2.43409)
(16.7363 0 -2.38006)
(15.9435 0 -2.32171)
(15.2033 2.40678e-20 -2.26064)
(14.5111 1.09456e-20 -2.19806)
(13.863 0 -2.13485)
(13.2552 0 -2.07169)
(12.6842 1.6361e-20 -2.00904)
(12.147 0 -1.94726)
(11.6408 0 -1.88661)
(11.163 0 -1.82726)
(10.7115 0 -1.76932)
(10.284 -6.34011e-24 -1.71289)
(9.87884 0 -1.65799)
(9.49423 -1.56313e-24 -1.60464)
(9.12866 1.28635e-20 -1.55284)
(8.78073 2.70192e-24 -1.50258)
(8.44917 0 -1.45382)
(8.13283 0 -1.40654)
(7.83065 0 -1.36068)
(7.54164 0 -1.31621)
(7.26493 0 -1.27308)
(6.9997 0 -1.23124)
(6.74519 0 -1.19064)
(6.50071 -2.57542e-21 -1.15123)
(6.26559 -9.19423e-22 -1.11297)
(6.03928 0 -1.0758)
(5.82117 1.97984e-21 -1.03966)
(5.61081 0 -1.00454)
(5.40765 0 -0.970353)
(5.21131 -1.0873e-20 -0.937087)
(5.02129 0 -0.904668)
(4.8373 1.4464e-20 -0.873087)
(4.65884 0 -0.842264)
(4.48572 3.46671e-20 -0.812203)
(4.31743 2.47036e-23 -0.782816)
(4.15388 0 -0.754121)
(3.99452 0 -0.726017)
(3.83937 0 -0.698545)
(3.68783 4.41635e-20 -0.671583)
(3.54005 -4.53673e-20 -0.645199)
(3.39535 -4.63563e-20 -0.619246)
(3.254 -4.71847e-20 -0.593825)
(3.11523 9.57157e-20 -0.568759)
(2.97949 4.83459e-20 -0.544187)
(2.84587 0 -0.519895)
(2.71498 0 -0.496065)
(2.5858 -2.44315e-23 -0.472447)
(2.4591 0 -0.449265)
(2.33376 0 -0.426233)
(2.21067 -9.73148e-20 -0.403615)
(2.08867 0 -0.381102)
(1.9687 0 -0.35898)
(1.8497 1.89888e-19 -0.336939)
(1.73247 -9.38352e-20 -0.315263)
(1.61629 0 -0.293682)
(1.50152 0 -0.272422)
(1.3882 0 -0.251329)
(1.27578 1.76508e-19 -0.230481)
(1.16563 0 -0.209953)
(1.05563 3.39375e-19 -0.189545)
(0.949205 -1.66027e-19 -0.16971)
(0.841968 0 -0.149814)
(0.740014 0 -0.130836)
(0.636325 1.54385e-19 -0.1116)
(0.539524 -2.60068e-23 -0.0936386)
(0.440894 1.46068e-19 -0.0753335)
(0.349461 -2.83639e-19 -0.0584657)
(0.258553 2.74998e-19 -0.0415629)
(0.171567 2.66256e-19 -0.0256559)
(0.0927511 2.57539e-19 -0.0109358)
(0.0073358 2.97434e-23 0.00453253)
(-0.0530133 0 0.0158826)
(-0.142218 -2.3082e-19 0.0319784)
(-0.176256 0 0.0383615)
(-0.274937 0 0.05644)
(-0.278843 4.09895e-19 0.0567)
(-0.384058 0 0.0768937)
(-0.371763 0 0.0730413)
(-0.459282 0 0.0911295)
(-0.466827 -3.4269e-19 0.0900415)
(-0.495008 0 0.0969313)
(-0.553223 -3.10741e-19 0.108257)
(-0.560633 0 0.107289)
(-0.580878 0 0.1129)
(-0.616471 0 0.115852)
(-0.551267 0 0.113005)
(-0.84746 0 0.160163)
(-0.440346 -4.64743e-19 0.0770804)
(-0.768271 -4.25128e-19 0.163603)
(-0.846446 4.09382e-19 0.15077)
(-0.480974 0 0.0999119)
(-1.17518 0 0.234754)
(-0.693459 -1.39164e-18 0.124757)
(-1.07993 0 0.233522)
(-1.52325 5.95106e-19 0.318587)
(-1.84072 0 0.34857)
(-1.42096 5.5904e-19 0.296568)
(-2.71535 5.12319e-19 0.536441)
(-1.6437 0 0.264039)
(-1.25357 -5.13051e-19 0.204447)
(-0.423266 0 0.0581497)
(32.6521 4.68095e-21 1.04206)
(33.0627 1.1378e-20 1.12843)
(33.5085 -6.90661e-21 1.04479)
(33.8732 -7.83186e-22 0.780813)
(34.0461 7.48222e-21 0.389919)
(33.971 0 -0.0659473)
(33.6401 0 -0.537671)
(33.0734 -1.63889e-20 -0.989511)
(32.3065 -3.04335e-20 -1.39783)
(31.3816 -7.09243e-22 -1.74958)
(30.3425 1.39007e-20 -2.04025)
(29.2298 -1.29697e-20 -2.27121)
(28.0784 1.17256e-20 -2.44727)
(26.9166 0 -2.57505)
(25.7661 0 -2.66172)
(24.6422 -9.51517e-21 -2.71429)
(23.5556 3.48074e-20 -2.73915)
(22.5126 3.20249e-20 -2.7419)
(21.5168 0 -2.72723)
(20.5695 0 -2.69906)
(19.6706 0 -2.66053)
(18.8187 -6.72355e-23 -2.61419)
(18.0123 -2.05606e-20 -2.56209)
(17.249 9.33365e-21 -2.50581)
(16.5267 1.69524e-20 -2.44665)
(15.8429 -3.07615e-20 -2.38559)
(15.1952 1.38707e-20 -2.32343)
(14.5813 1.24898e-20 -2.26078)
(13.999 1.12067e-20 -2.19812)
(13.4462 0 -2.13581)
(12.9211 -8.92122e-21 -2.07415)
(12.4216 7.88374e-21 -2.01335)
(11.9461 -6.93826e-21 -1.95357)
(11.4931 -1.21045e-20 -1.89492)
(11.061 -2.09502e-20 -1.83749)
(10.6485 0 -1.78134)
(10.2544 0 -1.72649)
(9.87728 -6.28448e-21 -1.67296)
(9.51625 0 -1.62076)
(9.17024 4.00279e-21 -1.56988)
(8.8383 2.99556e-21 -1.52029)
(8.51956 0 -1.47198)
(8.21322 4.86295e-21 -1.42491)
(7.91849 8.65235e-22 -1.37905)
(7.63469 0 -1.33438)
(7.36112 -1.86295e-21 -1.29083)
(7.09721 -3.03437e-21 -1.2484)
(6.84233 0 -1.20701)
(6.59599 1.02e-20 -1.16665)
(6.3576 -5.97792e-21 -1.12725)
(6.12679 -1.35518e-20 -1.0888)
(5.90296 0 -1.05123)
(5.68586 -2.49929e-23 -1.01453)
(5.47488 3.48337e-20 -0.978609)
(5.26989 0 -0.9435)
(5.07022 0 -0.909079)
(4.87588 -2.00683e-20 -0.875404)
(4.68614 -2.07515e-20 -0.842326)
(4.50116 4.2614e-20 -0.809937)
(4.32012 4.3576e-20 -0.778056)
(4.14333 4.43509e-20 -0.746812)
(3.96985 -4.49648e-20 -0.715987)
(3.80021 -9.08391e-20 -0.685757)
(3.6333 0 -0.655857)
(3.46985 0 -0.626519)
(3.30861 -9.20873e-20 -0.597427)
(3.15051 0 -0.568867)
(2.99416 0 -0.540479)
(2.84066 9.13996e-20 -0.512599)
(2.68857 0 -0.484832)
(2.53902 -9.00042e-20 -0.457549)
(2.39071 -3.25085e-23 -0.430347)
(2.24462 8.80934e-20 -0.403599)
(2.09983 0 -0.376945)
(1.9568 0 -0.350694)
(1.81554 0 -0.324618)
(1.6754 1.65543e-19 -0.298858)
(1.53798 0 -0.273451)
(1.40077 -1.59176e-19 -0.248212)
(1.26783 3.11446e-19 -0.223626)
(1.13391 0 -0.198993)
(1.00632 0 -0.175429)
(0.876621 0 -0.151571)
(0.75521 -2.57212e-23 -0.129233)
(0.631512 -1.36935e-19 -0.106466)
(0.516566 -2.65788e-19 -0.0854638)
(0.402074 -2.5774e-19 -0.0643432)
(0.292548 2.49446e-19 -0.0445448)
(0.192535 0 -0.0259933)
(0.0850547 2.32877e-19 -0.0068087)
(0.00725293 0 0.00777152)
(-0.104514 2.16201e-19 0.0275977)
(-0.150551 0 0.0362301)
(-0.273475 0 0.0584074)
(-0.282644 0 0.0595081)
(-0.413945 -3.66855e-19 0.0845211)
(-0.401437 -3.5178e-19 0.0800052)
(-0.513588 0 0.103271)
(-0.521118 3.20673e-19 0.100996)
(-0.565305 -3.0621e-19 0.111707)
(-0.631946 2.90753e-19 0.124448)
(-0.646447 -2.77597e-19 0.123871)
(-0.672731 0 0.131346)
(-0.718325 0 0.134715)
(-0.651816 0 0.135439)
(-0.98128 0 0.184375)
(-0.525652 4.34576e-19 0.0912674)
(-0.917842 -6.22306e-24 0.19883)
(-0.979805 -7.65426e-19 0.171526)
(-0.601131 0 0.127209)
(-1.38505 0 0.278353)
(-0.828856 6.50341e-19 0.148455)
(-1.31982 0 0.290976)
(-1.77417 -5.56129e-19 0.376659)
(-2.13702 0 0.403359)
(-1.66352 -1.04468e-18 0.352907)
(-3.09337 0 0.611798)
(-1.77172 0 0.267205)
(-1.4337 4.79271e-19 0.223308)
(-0.367088 0 0.0354966)
(32.676 0 0.689293)
(32.9771 -5.23439e-21 0.731929)
(33.3137 0 0.681774)
(33.6438 -6.5872e-21 0.518078)
(33.9043 -1.34286e-20 0.25568)
(34.0442 0 -0.0736973)
(34.0351 6.69849e-21 -0.43864)
(33.8656 0 -0.813054)
(33.5361 9.0151e-22 -1.17674)
(33.0563 -2.57939e-20 -1.51522)
(32.4421 0 -1.81917)
(31.7139 0 -2.0837)
(30.8938 -1.10285e-20 -2.30721)
(30.0044 0 -2.49043)
(29.0666 0 -2.63566)
(28.0993 0 -2.74617)
(27.1189 -1.62596e-20 -2.82573)
(26.1387 -1.49753e-20 -2.87831)
(25.1692 -1.35833e-20 -2.9078)
(24.2185 0 -2.91783)
(23.2924 0 -2.91169)
(22.3949 -1.05725e-20 -2.89229)
(21.5286 9.64419e-21 -2.86214)
(20.6949 -8.77855e-21 -2.8234)
(19.8943 -1.59441e-20 -2.77786)
(19.1268 2.88157e-20 -2.72705)
(18.3919 -5.4146e-23 -2.67221)
(17.6887 -1.17466e-20 -2.61439)
(17.0161 -1.05397e-20 -2.55442)
(16.373 0 -2.493)
(15.758 0 -2.43071)
(15.1699 -7.41412e-21 -2.368)
(14.6072 0 -2.30523)
(14.0688 1.13829e-20 -2.24272)
(13.5534 9.84926e-21 -2.18068)
(13.0596 -8.42568e-21 -2.11932)
(12.5863 0 -2.05878)
(12.1325 5.90915e-21 -1.99916)
(11.6969 4.7948e-21 -1.94055)
(11.2787 3.77006e-24 -1.88301)
(10.8767 -5.63754e-21 -1.82659)
(10.4901 0 -1.7713)
(10.1181 -2.29308e-21 -1.71716)
(9.75981 0 -1.66418)
(9.41445 0 -1.61234)
(9.08126 0 -1.56163)
(8.75962 1.38563e-23 -1.51204)
(8.44879 0 -1.46353)
(8.14826 -4.78624e-21 -1.41609)
(7.85731 1.12225e-20 -1.36967)
(7.57554 1.27348e-20 -1.32427)
(7.30224 0 -1.2798)
(7.03713 -1.52833e-20 -1.2363)
(6.77947 -3.26824e-20 -1.19364)
(6.52912 0 -1.15188)
(6.2853 0 -1.11089)
(6.04801 1.88512e-20 -1.07074)
(5.81637 1.94544e-20 -1.03125)
(5.59059 -2.00033e-20 -0.992545)
(5.36965 -4.08576e-20 -0.95441)
(5.15396 0 -0.917012)
(4.94237 0 -0.880082)
(4.7355 2.86166e-23 -0.843845)
(4.53203 -4.29126e-20 -0.807978)
(4.33283 0 -0.772768)
(4.13638 4.32092e-20 -0.737831)
(3.94379 0 -0.703522)
(3.7534 0 -0.669396)
(3.5665 0 -0.635875)
(3.38135 0 -0.602466)
(3.19934 3.44921e-23 -0.569637)
(3.01883 -3.22201e-23 -0.536878)
(2.84103 -8.258e-20 -0.504668)
(2.6648 0 -0.472536)
(2.49072 -8.02819e-20 -0.4409)
(2.3187 0 -0.409429)
(2.14807 -1.5523e-19 -0.378357)
(1.98058 1.52236e-19 -0.347651)
(1.81338 -1.49153e-19 -0.317175)
(1.65113 -1.45959e-19 -0.287412)
(1.48775 0 -0.257628)
(1.33173 1.39128e-19 -0.229049)
(1.1732 0 -0.200148)
(1.02437 -1.31972e-19 -0.173004)
(0.872775 -1.2825e-19 -0.145345)
(0.731511 2.48991e-19 -0.119788)
(0.590601 0 -0.0940086)
(0.455756 -4.67227e-19 -0.0699196)
(0.331742 0 -0.0470822)
(0.199473 2.18009e-19 -0.0238129)
(0.101503 0 -0.00553845)
(-0.0354667 2.0236e-19 0.0183304)
(-0.0960318 0 0.0296838)
(-0.245779 3.7366e-19 0.0562575)
(-0.262341 -3.591e-19 0.0585778)
(-0.422484 3.43303e-19 0.0888104)
(-0.410961 3.29162e-19 0.0837425)
(-0.551229 0 0.112872)
(-0.558416 -5.99965e-19 0.109097)
(-0.623256 5.72855e-19 0.124671)
(-0.696791 0 0.138373)
(-0.721989 2.5962e-19 0.138734)
(-0.754616 0 0.148235)
(-0.812229 0 0.152258)
(-0.746382 -4.44573e-19 0.15738)
(-1.10461 0 0.206346)
(-0.610402 0 0.105363)
(-1.06345 3.71558e-19 0.234465)
(-1.10418 7.15326e-19 0.189805)
(-0.727916 3.40164e-19 0.157078)
(-1.58519 0 0.32055)
(-0.966425 0 0.172773)
(-1.56094 0 0.350882)
(-2.00439 0 0.432094)
(-2.41349 5.03004e-19 0.454319)
(-1.88348 4.87951e-19 0.406365)
(-3.42209 0 0.676332)
(-1.83495 0 0.254051)
(-1.59032 0 0.234273)
(-0.246796 0 -0.00337019)
(32.6744 4.18479e-21 0.401267)
(32.9061 0 0.41664)
(33.1616 4.90239e-21 0.37541)
(33.4261 0 0.261555)
(33.6687 6.00507e-21 0.0756302)
(33.858 0 -0.167664)
(33.9709 -6.29573e-21 -0.44919)
(33.9926 1.15418e-20 -0.751014)
(33.9137 2.3566e-20 -1.05798)
(33.7295 7.29124e-22 -1.35809)
(33.4398 0 -1.64235)
(33.0477 0 -1.90454)
(32.56 0 -2.1408)
(31.9857 0 -2.34905)
(31.336 0 -2.52856)
(30.6229 0 -2.67957)
(29.8588 1.4649e-20 -2.80313)
(29.056 -1.35708e-20 -2.9008)
(28.2261 1.27629e-20 -2.97458)
(27.3796 0 -3.02669)
(26.5256 0 -3.05945)
(25.6721 9.73372e-21 -3.07519)
(24.8254 8.90256e-21 -3.07617)
(23.9908 8.12193e-21 -3.06449)
(23.1723 0 -3.04209)
(22.3729 -1.35046e-20 -3.0107)
(21.5948 -2.43381e-20 -2.97186)
(20.8394 1.09384e-20 -2.92694)
(20.1077 0 -2.87709)
(19.4001 0 -2.82332)
(18.7168 0 -2.76649)
(18.0575 6.93104e-21 -2.70734)
(17.4218 0 -2.64647)
(16.8093 0 -2.58442)
(16.2192 9.22709e-21 -2.52161)
(15.6509 7.91514e-21 -2.45841)
(15.1036 0 -2.39512)
(14.5764 5.54704e-21 -2.33199)
(14.0685 -9.00625e-21 -2.26921)
(13.5792 -3.53856e-21 -2.20696)
(13.1074 2.64986e-21 -2.14537)
(12.6525 0 -2.08453)
(12.2137 0 -2.02453)
(11.7902 0 -1.96543)
(11.3812 -4.57322e-22 -1.90729)
(10.9859 0 -1.8501)
(10.6038 2.66521e-21 -1.79393)
(10.2341 3.60539e-21 -1.73874)
(9.87626 0 -1.68458)
(9.52949 -5.26231e-21 -1.63138)
(9.19339 0 -1.57919)
(8.86717 0 -1.52793)
(8.55054 -1.43025e-20 -1.47766)
(8.24268 2.18401e-23 -1.42824)
(7.94344 1.61959e-20 -1.37977)
(7.65192 0 -1.33209)
(7.36814 0 -1.28531)
(7.09109 -1.82578e-20 -1.23923)
(6.82101 0 -1.194)
(6.55672 3.83396e-20 -1.14938)
(6.29872 0 -1.10557)
(6.04562 0 -1.06225)
(5.7982 7.99105e-20 -1.01972)
(5.55486 8.04868e-20 -0.977569)
(5.31666 4.04098e-20 -0.936168)
(5.08176 0 -0.895045)
(4.85153 0 -0.854645)
(4.62393 4.03513e-20 -0.814422)
(4.40054 8.03219e-20 -0.774899)
(4.17926 0 -0.735469)
(3.96172 7.91448e-20 -0.696718)
(3.74598 -7.8334e-20 -0.658008)
(3.53348 7.74133e-20 -0.619947)
(3.32279 -7.63475e-20 -0.581929)
(3.11468 7.52458e-20 -0.544506)
(2.90891 0 -0.507217)