/*--------------------------------*- C++ -*----------------------------------*\
| =========                 |                                                 |
| \\      /  F ield         | OpenFOAM: The Open Source CFD Toolbox           |
|  \\    /   O peration     | Version:  2412                                  |
|   \\  /    A nd           | Website:  www.openfoam.com                      |
|    \\/     M anipulation  |                                                 |
\*---------------------------------------------------------------------------*/
FoamFile
{
    version     2.0;
    format      ascii;
    arch        "LSB;label=32;scalar=64";
    class       volVectorField;
    location    "0.33";
    object      U;
}
// * * * * * * * * * * * * * * * * * * * * * * * * * * * * * * * * * * * * * //

dimensions      [0 1 -1 0 0 0 0];

internalField   nonuniform List<vector> 
12600
(
(21.0881 0 -1.2056)
(8.78362 -4.04525e-20 -1.87245)
(3.86414 -2.12023e-20 -1.89431)
(2.02027 0 -1.43371)
(1.30096 -1.65969e-22 -0.979293)
(0.919967 0 -0.681737)
(0.664414 -3.0206e-20 -0.49055)
(0.4787 0 -0.358377)
(0.339111 0 -0.261289)
(0.232027 0 -0.187456)
(0.14795 0 -0.130789)
(0.0809886 -1.02955e-19 -0.0863118)
(0.027365 -1.05847e-19 -0.0506027)
(-0.0157726 0 -0.0216564)
(-0.0504982 2.17023e-19 0.00194318)
(-0.0787295 0 0.02146)
(-0.101456 3.48188e-22 0.0364211)
(-0.119016 0 0.0491858)
(-0.133298 1.06502e-19 0.0594689)
(-0.144128 0 0.0675517)
(-0.152362 0 0.0739042)
(-0.158118 0 0.0787503)
(-0.162018 3.95872e-19 0.0823143)
(-0.164352 -3.86303e-19 0.0846098)
(-0.165399 -6.64207e-23 0.0859689)
(-0.165069 1.84406e-19 0.0868538)
(-0.16335 0 0.0872555)
(-0.160655 0 0.0869779)
(-0.157884 0 0.085704)
(-0.154832 -3.23018e-19 0.0838764)
(-0.150848 -6.27983e-19 0.0822377)
(-0.146408 0 0.0804799)
(-0.141687 0 0.0783875)
(-0.136909 -2.82849e-19 0.0760316)
(-0.132065 -2.72724e-19 0.0735492)
(-0.127124 0 0.0710133)
(-0.122181 0 0.0684449)
(-0.117297 -4.86694e-19 0.0658586)
(-0.11248 0 0.0632744)
(-0.107741 8.03273e-23 0.0607183)
(-0.103105 -4.326e-19 0.0582048)
(-0.0985708 -4.15503e-19 0.0557272)
(-0.0941052 0 0.0532678)
(-0.089683 -3.82781e-19 0.0508199)
(-0.085302 -3.67221e-19 0.0483888)
(-0.0810106 7.04323e-19 0.0460029)
(-0.0769184 -6.75166e-19 0.0437219)
(-0.0732042 0 0.0416449)
(-0.070061 6.19718e-19 0.0398802)
(-0.0675877 -5.93551e-19 0.0384845)
(-0.065689 0 0.037407)
(-0.0639041 -4.22987e-23 0.0363934)
(-0.0612904 5.20461e-19 0.0349076)
(-0.0564418 0 0.0320378)
(-0.0475562 -9.52526e-19 0.0268686)
(-0.0334174 0 0.0187829)
(-0.0145742 0 0.00829619)
(0.00513825 3.27892e-24 -0.002675)
(0.0196687 -2.39768e-23 -0.0109)
(0.0252484 7.49865e-19 -0.0141677)
(0.024216 -7.13456e-19 -0.0135513)
(0.021204 1.35664e-18 -0.0117299)
(0.0140959 0 -0.00727397)
(-0.00400823 1.22052e-18 0.00373139)
(-0.0441914 1.15535e-18 0.027305)
(-0.104335 -2.18987e-18 0.0617727)
(-0.183082 1.04074e-18 0.104744)
(-0.205053 0 0.11608)
(-0.170089 0 0.0938979)
(0.0358311 0 -0.0252944)
(0.52125 0 -0.288214)
(0.870941 0 -0.486178)
(0.311956 -1.25309e-18 -0.176164)
(0.0469628 1.29052e-18 -0.0308208)
(0.17724 0 -0.0999141)
(0.201887 0 -0.115966)
(0.297093 1.06601e-18 -0.168085)
(0.365467 1.8724e-21 -0.200669)
(0.107309 1.52914e-18 -0.041934)
(-0.49065 0 0.304484)
(-1.20927 0 0.698226)
(-1.74134 0 0.984544)
(-1.87711 -7.9859e-21 1.04769)
(-1.62836 0 0.903295)
(-1.1053 0 0.606282)
(-0.582445 2.51852e-18 0.316189)
(-0.228021 -1.71261e-21 0.120821)
(-0.00177333 0 -0.00414325)
(0.123299 0 -0.0730293)
(0.163595 -4.37965e-18 -0.0947304)
(0.161461 -4.11461e-18 -0.0927125)
(0.136034 -3.86745e-18 -0.0785731)
(0.140401 -3.64985e-18 -0.0817753)
(0.197367 9.47789e-23 -0.113254)
(0.2346 7.03381e-22 -0.13262)
(0.162229 2.93674e-18 -0.0882279)
(-0.0280984 0 0.0202734)
(-0.182672 0 0.103579)
(-0.200241 0 0.112108)
(-0.132139 9.27023e-18 0.0727522)
(-0.0697449 -4.40585e-18 0.0379208)
(-0.0261253 4.1674e-18 0.0135593)
(-0.00294832 3.92614e-18 0.000790887)
(0.0129122 0 -0.00793901)
(0.0122945 0 -0.00734253)
(0.0038941 0 -0.00254774)
(-0.0139399 6.06968e-18 0.00745158)
(-0.0354159 0 0.0194625)
(-0.0453382 -5.36627e-18 0.0248352)
(-0.0513357 0 0.0275129)
(-0.028034 0 0.0137122)
(-0.00238015 4.54967e-18 -0.00144618)
(0.0401554 0 -0.026058)
(0.0919747 0 -0.0555318)
(0.117989 0 -0.07051)
(0.187476 -7.22349e-18 -0.109939)
(0.184165 0 -0.108052)
(0.27003 6.35433e-18 -0.157071)
(0.247859 0 -0.144386)
(0.3879 5.77935e-23 -0.224348)
(33.3088 -1.61838e-20 -1.87862)
(23.7203 2.33405e-20 -4.02685)
(15.4215 1.50126e-20 -4.91652)
(9.98571 0 -4.33176)
(6.79584 -9.85704e-21 -3.33318)
(4.85035 2.15582e-20 -2.49826)
(3.57946 3.15078e-20 -1.88313)
(2.68802 -3.75379e-20 -1.42949)
(2.02875 0 -1.08572)
(1.52435 0 -0.818602)
(1.12922 0 -0.607847)
(0.814742 0 -0.438924)
(0.561357 0 -0.301699)
(0.355268 0 -0.189353)
(0.186793 -8.56241e-22 -0.0969708)
(0.0472939 0 -0.0204887)
(-0.0657271 1.12854e-19 0.043215)
(-0.158077 0 0.0944213)
(-0.234828 -2.21253e-19 0.136578)
(-0.296348 2.17894e-19 0.171023)
(-0.345943 0 0.198849)
(-0.384862 2.09775e-19 0.22081)
(-0.415182 -2.05524e-19 0.237881)
(-0.437903 2.00532e-19 0.250514)
(-0.454138 -1.95805e-19 0.259402)
(-0.464712 0 0.265327)
(-0.470216 1.84882e-19 0.268786)
(-0.471837 0 0.269801)
(-0.470759 0 0.268231)
(-0.466084 0 0.266169)
(-0.459417 3.24821e-19 0.261586)
(-0.450555 0 0.256656)
(-0.440062 0 0.250927)
(-0.428546 0 0.244275)
(-0.416102 0 0.237138)
(-0.4029 0 0.229674)
(-0.389276 0 0.22199)
(-0.375445 5.00749e-19 0.214157)
(-0.361496 0 0.20625)
(-0.347529 9.24566e-19 0.198346)
(-0.333656 8.87673e-19 0.190494)
(-0.319904 4.25754e-19 0.182689)
(-0.306199 0 0.174885)
(-0.292498 0 0.167075)
(-0.278825 7.50621e-19 0.159286)
(-0.265349 -7.19159e-19 0.151629)
(-0.252421 6.88448e-19 0.144316)
(-0.240604 0 0.137681)
(-0.230517 -6.3057e-19 0.132069)
(-0.222487 0 0.127635)
(-0.216231 0 0.124151)
(-0.210321 -5.51572e-19 0.12069)
(-0.201792 0 0.115451)
(-0.186071 0 0.105677)
(-0.157551 9.62388e-19 0.0883012)
(-0.112349 0 0.0614537)
(-0.0521238 0 0.0268067)
(0.0114275 5.32236e-24 -0.00912809)
(0.0594353 7.91898e-19 -0.0356212)
(0.0789514 7.59574e-23 -0.0457898)
(0.0758376 0 -0.0433013)
(0.064107 -1.35789e-18 -0.0360393)
(0.0371657 -1.28723e-18 -0.019083)
(-0.0271709 0 0.0206515)
(-0.161879 -2.30306e-18 0.101635)
(-0.357318 -3.13824e-22 0.216442)
(-0.600696 0 0.352682)
(-0.659262 9.94231e-19 0.378884)
(-0.538456 0 0.293742)
(0.105796 0 -0.103178)
(1.51886 0 -0.921341)
(2.70328 0 -1.54312)
(1.09036 2.46876e-18 -0.579495)
(0.221329 -1.26748e-18 -0.123333)
(0.560906 0 -0.329619)
(0.669949 0 -0.390992)
(0.934277 1.04466e-18 -0.547027)
(1.04189 2.97257e-21 -0.590379)
(0.0840727 4.55281e-21 1.70706e-05)
(-1.87776 0 1.15613)
(-4.01461 0 2.37283)
(-5.45827 0 3.17652)
(-5.6666 -1.26476e-20 3.26883)
(-4.79667 -1.9096e-18 2.73232)
(-3.21357 2.28073e-18 1.80289)
(-1.67622 -2.43344e-18 0.925041)
(-0.626081 -2.66293e-21 0.334098)
(0.0527848 -2.34818e-18 -0.0467639)
(0.434588 0 -0.257909)
(0.554785 4.2096e-18 -0.321865)
(0.539966 0 -0.310277)
(0.464052 3.70818e-18 -0.266718)
(0.484005 0 -0.281572)
(0.650199 -6.58381e-18 -0.378338)
(0.723454 -3.06422e-18 -0.417108)
(0.451425 0 -0.250862)
(-0.139623 0 0.0938497)
(-0.569776 -4.79954e-18 0.334612)
(-0.588216 4.59489e-18 0.338593)
(-0.373189 -8.80994e-18 0.211188)
(-0.188018 4.1844e-18 0.105221)
(-0.0566583 -3.95438e-18 0.0306714)
(0.00975405 0 -0.00673049)
(0.0556604 3.49392e-18 -0.0324816)
(0.0494542 0 -0.0281578)
(0.0228227 0 -0.0123149)
(-0.0287778 -5.73603e-18 0.01794)
(-0.085871 0 0.0508644)
(-0.101888 7.34441e-22 0.0598869)
(-0.102264 4.78021e-18 0.0596792)
(-0.0151863 0 0.0085053)
(0.0798252 0 -0.0465628)
(0.215832 0 -0.126194)
(0.385119 3.83008e-18 -0.222979)
(0.462258 -7.244e-18 -0.268746)
(0.686162 6.79072e-18 -0.396557)
(0.667939 0 -0.387271)
(0.948784 -5.96831e-18 -0.548267)
(0.86759 0 -0.503575)
(1.31731 1.0422e-17 -0.763387)
(36.8981 3.44446e-20 -1.89431)
(32.4786 -9.11302e-21 -3.81665)
(25.8844 1.98125e-22 -5.51392)
(19.4401 0 -5.9145)
(14.3124 -1.2901e-20 -5.36008)
(10.6275 7.26434e-22 -4.46974)
(8.03545 0 -3.60291)
(6.16536 3.56265e-20 -2.86946)
(4.76897 0 -2.27205)
(3.69586 4.42264e-20 -1.78752)
(2.85289 0 -1.39229)
(2.17925 0 -1.06772)
(1.63372 0 -0.799494)
(1.18754 0 -0.576655)
(0.820217 -1.06294e-19 -0.390925)
(0.515329 0 -0.235815)
(0.264825 0 -0.103237)
(0.0558867 0 0.00411352)
(-0.117385 1.04784e-19 0.0947777)
(-0.259869 -6.84017e-22 0.169448)
(-0.377229 0 0.231114)
(-0.472255 -5.40888e-22 0.281403)
(-0.548837 0 0.321959)
(-0.609253 -1.89804e-19 0.353917)
(-0.655783 0 0.378653)
(-0.690453 0 0.397002)
(-0.71457 -1.75367e-19 0.41002)
(-0.730244 0 0.418056)
(-0.739127 0 0.42089)
(-0.741144 -3.18241e-19 0.421848)
(-0.738391 0 0.418774)
(-0.730573 0 0.413903)
(-0.719251 0 0.407112)
(-0.705171 0 0.398629)
(-0.688638 2.66245e-19 0.389061)
(-0.6702 0 0.378568)
(-0.650446 0 0.367424)
(-0.629797 -4.73958e-19 0.355797)
(-0.608489 0 0.343828)
(-0.586767 -8.75335e-19 0.331655)
(-0.564868 -1.21764e-22 0.319382)
(-0.542887 -4.03082e-19 0.30702)
(-0.520751 0 0.294526)
(-0.498431 0 0.281912)
(-0.476004 -3.55116e-19 0.269254)
(-0.45377 0 0.256773)
(-0.432319 -6.51244e-19 0.244856)
(-0.412595 0 0.234078)
(-0.395637 6.782e-23 0.224994)
(-0.382016 0 0.217808)
(-0.371303 0 0.212033)
(-0.361166 0 0.20597)
(-0.346692 -4.97967e-19 0.196488)
(-0.32022 0 0.179115)
(-0.272497 0 0.148786)
(-0.196971 0 0.102723)
(-0.0961199 0 0.0440045)
(0.0113576 1.57255e-18 -0.0160363)
(0.0943134 0 -0.0595354)
(0.129661 5.47536e-23 -0.0755869)
(0.125045 0 -0.0703245)
(0.102957 6.40329e-19 -0.0554461)
(0.0528069 1.21367e-18 -0.0217457)
(-0.0625592 0 0.0532047)
(-0.29547 2.17116e-18 0.197562)
(-0.62624 1.02691e-18 0.39436)
(-1.02442 0 0.611408)
(-1.11005 -9.36326e-19 0.633065)
(-0.901201 0 0.463401)
(0.151087 0 -0.219764)
(2.31106 0 -1.48496)
(4.42926 0 -2.50637)
(1.96136 6.801e-22 -0.972809)
(0.466042 1.19195e-18 -0.249555)
(0.93856 0 -0.560865)
(1.14634 0 -0.677576)
(1.54086 7.31654e-22 -0.907441)
(1.58746 -1.73416e-18 -0.855511)
(-0.169021 -7.06402e-19 0.280081)
(-3.49541 0 2.25832)
(-6.863 0 4.13771)
(-8.95607 0 5.21897)
(-9.04147 -2.66781e-18 5.15981)
(-7.52439 1.10369e-20 4.17075)
(-5.0079 -2.13955e-18 2.69262)
(-2.60094 0 1.35026)
(-0.938375 -2.27491e-18 0.446872)
(0.150608 2.20143e-18 -0.141795)
(0.77308 0 -0.469695)
(0.970353 0 -0.564643)
(0.939222 3.70139e-18 -0.536683)
(0.817853 0 -0.468587)
(0.854324 3.27337e-18 -0.500576)
(1.11023 -1.54388e-22 -0.648736)
(1.18057 2.87085e-18 -0.670512)
(0.685591 -2.62764e-18 -0.354367)
(-0.277514 0 0.204836)
(-0.927412 4.49161e-18 0.549431)
(-0.921145 -4.29945e-18 0.519703)
(-0.567179 8.23965e-18 0.30745)
(-0.273202 0 0.143048)
(-0.0615976 -3.69764e-18 0.0264713)
(0.0412502 0 -0.0288243)
(0.113735 -3.26706e-18 -0.0675337)
(0.0995262 3.06023e-18 -0.0565795)
(0.0574286 0 -0.030877)
(-0.0210155 5.36175e-18 0.0150116)
(-0.100397 0 0.0592599)
(-0.10797 9.46443e-18 0.0616305)
(-0.0863896 -4.46695e-18 0.0448775)
(0.0723331 0 -0.0505013)
(0.246205 0 -0.152238)
(0.472659 0 -0.285638)
(0.761217 -5.96501e-22 -0.448628)
(0.883181 6.76645e-18 -0.521561)
(1.26242 -6.34115e-18 -0.735114)
(1.22284 0 -0.715174)
(1.70298 -5.57294e-18 -0.988152)
(1.55385 0 -0.908164)
(2.30743 -6.88369e-23 -1.34209)
(37.3772 -1.80912e-20 -2.20094)
(36.2941 -5.48076e-21 -3.31715)
(32.703 6.14576e-21 -5.04518)
(27.6413 -1.41149e-20 -6.21822)
(22.3667 -2.06005e-20 -6.4602)
(17.7118 -4.17675e-20 -6.00838)
(13.9515 0 -5.2424)
(11.0161 0 -4.41821)
(8.73035 0 -3.65274)
(6.93163 -4.189e-20 -2.98242)
(5.49719 0 -2.40885)
(4.33863 0 -1.92203)
(3.39266 0 -1.50963)
(2.61346 0 -1.16019)
(1.9675 0 -0.863919)
(1.42841 -9.99739e-20 -0.612878)
(0.979318 9.99194e-20 -0.398144)
(0.603419 0 -0.218536)
(0.288896 0 -0.065171)
(0.0260495 -1.95216e-19 0.0626489)
(-0.192679 1.91329e-19 0.170143)
(-0.373464 -1.88008e-19 0.259133)
(-0.522211 1.83484e-19 0.332669)
(-0.642949 1.7973e-19 0.39237)
(-0.739347 -1.7513e-19 0.440564)
(-0.815021 1.7032e-19 0.478519)
(-0.872671 0 0.50752)
(-0.915605 -1.59947e-19 0.528533)
(-0.945603 0 0.542149)
(-0.964042 3.01201e-19 0.550202)
(-0.972734 0 0.553508)
(-0.973848 0 0.551736)
(-0.968231 0 0.546804)
(-0.956959 -2.61073e-19 0.539302)
(-0.94112 -2.51857e-19 0.529516)
(-0.921497 0 0.51802)
(-0.899066 0 0.505157)
(-0.874532 4.48184e-19 0.491238)
(-0.848351 0 0.476496)
(-0.820964 1.38911e-22 0.461158)
(-0.792788 -3.97076e-19 0.445405)
(-0.764039 0 0.429284)
(-0.734698 0 0.412772)
(-0.704794 0 0.395927)
(-0.674486 0 0.378901)
(-0.644225 -6.42332e-19 0.362042)
(-0.614847 0 0.345929)
(-0.587661 5.88317e-19 0.331377)
(-0.564124 5.62885e-19 0.319133)
(-0.545049 0 0.309412)
(-0.529874 0 0.301424)
(-0.515416 0 0.292658)
(-0.494941 4.6981e-19 0.278606)
(-0.457981 -4.48727e-19 0.252935)
(-0.391811 -8.57002e-19 0.20883)
(-0.287278 0 0.142909)
(-0.147232 -7.79026e-19 0.0601467)
(0.00359428 -1.48226e-18 -0.023175)
(0.122474 0 -0.0826621)
(0.175543 -1.33835e-18 -0.103707)
(0.170209 0 -0.094667)
(0.135924 -6.03234e-19 -0.0702011)
(0.0587422 -1.14328e-18 -0.0157819)
(-0.112678 0 0.100529)
(-0.446723 -1.02197e-18 0.31369)
(-0.910353 -9.66878e-19 0.59353)
(-1.44896 0 0.878634)
(-1.54896 0 0.878773)
(-1.2501 0 0.607644)
(0.172184 8.17909e-19 -0.368453)
(2.82951 7.67175e-19 -1.96475)
(5.99611 0 -3.40205)
(2.91734 -1.09211e-18 -1.35522)
(0.78985 -1.1187e-18 -0.398806)
(1.31078 0 -0.797577)
(1.62167 0 -0.970557)
(2.09851 -9.22435e-19 -1.24379)
(1.96552 -2.75457e-21 -1.00706)
(-0.685722 0 0.76066)
(-5.32929 0 3.54736)
(-9.66701 0 5.93172)
(-12.093 0 7.08978)
(-11.8693 1.23501e-20 6.74154)
(-9.71161 1.66969e-18 5.30675)
(-6.43441 0 3.36259)
(-3.33144 0 1.64773)
(-1.15651 0 0.490638)
(0.291449 2.06081e-18 -0.27349)
(1.13498 0 -0.701263)
(1.40821 3.69471e-18 -0.82137)
(1.35954 -3.46617e-18 -0.773965)
(1.19863 3.25244e-18 -0.684796)
(1.2498 -3.06437e-18 -0.735277)
(1.56953 5.77148e-18 -0.920728)
(1.59582 -2.68673e-18 -0.898996)
(0.861419 2.45876e-18 -0.419054)
(-0.431753 0 0.333705)
(-1.23906 0 0.744151)
(-1.18635 -4.01829e-18 0.665043)
(-0.705523 -3.85244e-18 0.372658)
(-0.319306 -3.65799e-18 0.158626)
(-0.036203 4.86616e-22 0.00519085)
(0.0954125 0 -0.0634789)
(0.191352 0 -0.113185)
(0.167583 -2.8604e-18 -0.0943255)
(0.115361 0 -0.0615413)
(0.0190361 -5.01022e-18 -0.00449881)
(-0.066303 0 0.0419806)
(-0.0511257 -7.27927e-22 0.0300864)
(0.0101875 0 -0.0126882)
(0.246163 -3.95101e-18 -0.155221)
(0.507331 3.73728e-18 -0.307935)
(0.819186 3.54616e-18 -0.493505)
(1.22738 -6.86187e-22 -0.722249)
(1.38743 0 -0.820172)
(1.92168 5.92183e-18 -1.11876)
(1.85506 5.57098e-18 -1.08645)
(2.53663 5.20382e-18 -1.47236)
(2.3127 0 -1.35539)
(3.3552 -7.45321e-23 -1.95723)
(36.9389 0 -2.72562)
(37.1734 -4.0404e-21 -3.22463)
(35.9334 0 -4.4867)
(33.061 1.3336e-20 -5.81173)
(29.0831 3.09932e-20 -6.63437)
(24.7272 2.05211e-20 -6.8042)
(20.5694 0 -6.45886)
(16.9082 0 -5.81906)
(13.8179 -3.55722e-20 -5.06749)
(11.2568 -3.88895e-20 -4.31514)
(9.14497 4.15394e-20 -3.61532)
(7.40041 8.71482e-20 -2.98746)
(5.95287 9.01431e-20 -2.43443)
(4.74577 0 -1.9521)
(3.73481 0 -1.53374)
(2.88434 1.88557e-19 -1.17255)
(2.16861 -4.4299e-22 -0.85965)
(1.56484 0 -0.592545)
(1.05506 -9.2792e-20 -0.362849)
(0.62543 -1.83297e-19 -0.167459)
(0.263985 -1.80884e-19 -0.000931657)
(-0.0388259 0 0.139169)
(-0.291307 -1.7345e-19 0.256919)
(-0.500328 1.69215e-19 0.354315)
(-0.671291 1.65533e-19 0.43483)
(-0.809936 -3.85767e-22 0.499895)
(-0.92027 0 0.551439)
(-1.00652 -5.12494e-23 0.591414)
(-1.07127 0 0.621881)
(-1.11809 2.84764e-19 0.643724)
(-1.1497 0 0.657932)
(-1.16824 0 0.664928)
(-1.17641 0 0.664954)
(-1.17524 2.46585e-19 0.660979)
(-1.16596 0 0.654001)
(-1.15034 0 0.643799)
(-1.12963 0 0.631346)
(-1.10494 0 0.617001)
(-1.07706 -4.06272e-19 0.601102)
(-1.04669 7.80576e-19 0.584005)
(-1.0145 0 0.565989)
(-0.980888 3.59188e-19 0.547154)
(-0.945957 0 0.527522)
(-0.909842 0 0.507227)
(-0.872822 0 0.486522)
(-0.835521 1.21279e-22 0.465913)
(-0.799024 0 0.446183)
(-0.764995 -5.54723e-19 0.428391)
(-0.735292 0 0.413449)
(-0.710975 0 0.401537)
(-0.691387 -4.84904e-19 0.391494)
(-0.672587 0 0.37992)
(-0.646173 0 0.360902)
(-0.599092 4.9881e-23 0.32635)
(-0.515451 8.07195e-19 0.267865)
(-0.383612 0 0.181792)
(-0.206398 3.83545e-23 0.0753014)
(-0.0134159 1.39541e-18 -0.0302609)
(0.142164 0 -0.104361)
(0.215103 6.29776e-19 -0.129137)
(0.21016 0 -0.115065)
(0.162122 5.67492e-19 -0.0785432)
(0.054211 1.07534e-18 0.00107795)
(-0.177855 0 0.165217)
(-0.614879 9.61565e-19 0.451874)
(-1.20677 -2.28216e-22 0.813398)
(-1.86888 0 1.15086)
(-1.97128 0 1.10973)
(-1.5837 0 0.721054)
(0.170664 -1.53618e-18 -0.541379)
(3.03324 1.0749e-21 -2.33252)
(7.37103 0 -4.20625)
(3.9394 1.02536e-18 -1.72033)
(1.19119 2.09965e-18 -0.569616)
(1.68169 0 -1.03818)
(2.08728 0 -1.26398)
(2.59512 0 -1.53986)
(2.17187 -2.66079e-21 -1.01006)
(-1.44422 0 1.4696)
(-7.30938 0 5.0056)
(-12.32 0 7.68403)
(-14.785 0 8.69003)
(-14.1269 1.15598e-18 7.93513)
(-11.4004 1.54046e-18 6.07802)
(-7.53982 0 3.77951)
(-3.89676 0 1.80052)
(-1.29969 0 0.458659)
(0.462814 -9.25381e-22 -0.442529)
(1.51232 0 -0.950924)
(1.86513 -3.45877e-18 -1.09055)
(1.80229 0 -1.02166)
(1.60702 -3.04387e-18 -0.915572)
(1.66684 0 -0.98422)
(2.02252 -2.70004e-18 -1.18883)
(1.97213 0 -1.09309)
(0.994766 0 -0.439056)
(-0.583243 0 0.475543)
(-1.49505 0 0.908322)
(-1.38618 3.75729e-18 0.762933)
(-0.791588 0 0.398194)
(-0.327947 3.41965e-18 0.146002)
(0.0196118 3.23127e-18 -0.0376649)
(0.173552 0 -0.11415)
(0.291823 0 -0.172846)
(0.258573 0 -0.145036)
(0.204059 0 -0.109464)
(0.0988725 2.36065e-22 -0.0469915)
(0.024291 0 -0.00945149)
(0.0723755 -8.25841e-18 -0.0447976)
(0.18891 0 -0.12433)
(0.503066 7.37988e-18 -0.316415)
(0.858031 -3.49053e-18 -0.524173)
(1.24935 -3.31182e-18 -0.758572)
(1.77764 -3.11951e-18 -1.05166)
(1.97033 0 -1.17151)
(2.65979 0 -1.55278)
(2.56279 -1.04028e-17 -1.50682)
(3.44603 4.85785e-18 -2.00375)
(3.1452 4.55171e-18 -1.85006)
(4.45435 -4.24089e-18 -2.60615)
(36.4483 0 -3.18151)
(36.8743 3.57837e-20 -3.41503)
(36.8266 0 -4.17463)
(35.7175 0 -5.25559)
(33.4369 0 -6.25702)
(30.2782 0 -6.88071)
(26.6769 0 -7.03417)
(23.0185 3.06472e-20 -6.78318)
(19.5656 3.3563e-20 -6.26018)
(16.457 7.32878e-20 -5.59474)
(13.7373 -7.81663e-20 -4.8827)
(11.3946 -8.22497e-20 -4.18309)
(9.39188 -8.50817e-20 -3.52715)
(7.6847 0 -2.92884)
(6.23059 0 -2.39215)
(4.99125 -1.77062e-19 -1.91646)
(3.93543 -1.7712e-19 -1.49645)
(3.0358 0 -1.13024)
(2.26921 8.75894e-20 -0.810931)
(1.61697 1.73016e-19 -0.534951)
(1.06293 0 -0.296951)
(0.594159 1.66526e-19 -0.0930658)
(0.19844 0 0.0804311)
(-0.133254 -3.65118e-22 0.226959)
(-0.409211 -1.55423e-19 0.34969)
(-0.637432 -3.10137e-22 0.451253)
(-0.823531 0 0.534343)
(-0.973638 1.42666e-19 0.601154)
(-1.09212 -2.77056e-19 0.653739)
(-1.18333 -5.36862e-19 0.694038)
(-1.25097 -2.58802e-19 0.7241)
(-1.29889 0 0.745151)
(-1.33041 -2.40688e-19 0.756901)
(-1.34752 0 0.760807)
(-1.35307 0 0.758458)
(-1.34786 0 0.752765)
(-1.33446 0 0.743158)
(-1.31443 0 0.730519)
(-1.28893 1.49044e-22 0.715368)
(-1.25905 -3.67809e-19 0.698165)
(-1.22577 0 0.679329)
(-1.18979 -6.76865e-19 0.659031)
(-1.1514 0 0.637365)
(-1.1109 0 0.614569)
(-1.06873 0 0.591031)
(-1.02572 5.70527e-19 0.567438)
(-0.983207 0 0.544794)
(-0.943193 0 0.524401)
(-0.907924 0 0.507312)
(-0.878714 0 0.493622)
(-0.854861 9.12834e-19 0.481728)
(-0.831777 0 0.467275)
(-0.799606 0 0.442921)
(-0.743009 3.97698e-19 0.398901)
(-0.643269 0 0.325501)
(-0.486392 0 0.219165)
(-0.274731 1.37964e-18 0.089561)
(-0.0414698 -6.56104e-19 -0.0369139)
(0.151207 0 -0.124034)
(0.246238 0 -0.15117)
(0.243155 0 -0.130604)
(0.180088 -5.33475e-19 -0.0792775)
(0.0380015 0 0.0304133)
(-0.258639 0 0.248899)
(-0.798839 -1.80679e-18 0.613005)
(-1.51165 1.70793e-18 1.05267)
(-2.27805 0 1.42427)
(-2.37108 0 1.32289)
(-1.9007 0 0.802116)
(0.14406 7.20689e-19 -0.727245)
(2.90719 -6.77221e-19 -2.58285)
(8.50437 -1.10607e-18 -4.90505)
(5.00153 -9.61875e-19 -2.05766)
(1.66659 -9.84433e-19 -0.753005)
(2.05411 9.13924e-19 -1.28204)
(2.53516 0 -1.5516)
(3.01589 0 -1.78183)
(2.19411 7.21559e-19 -0.85496)
(-2.42546 0 2.39435)
(-9.35899 0 6.58022)
(-14.7077 0 9.31613)
(-16.9503 0 9.97927)
(-15.7972 0 8.76856)
(-12.6195 -2.87243e-18 6.55022)
(-8.35388 0 3.99404)
(-4.31404 -1.85495e-18 1.83569)
(-1.38097 0 0.365866)
(0.653651 -9.3801e-22 -0.640842)
(1.89698 3.42811e-18 -1.21432)
(2.33683 0 -1.37019)
(2.2675 0 -1.28027)
(2.04317 0 -1.16073)
(2.10229 0 -1.24445)
(2.46398 2.52567e-18 -1.44891)
(2.30837 0 -1.25642)
(1.09515 0 -0.426065)
(-0.716501 0 0.618234)
(-1.68489 0 1.0369)
(-1.51543 0 0.81863)
(-0.822392 0 0.388552)
(-0.296335 0 0.107636)
(0.109087 0 -0.10128)
(0.279161 -2.84103e-18 -0.181149)
(0.420114 0 -0.248346)
(0.378359 0 -0.211657)
(0.331594 0 -0.179079)
(0.226503 4.37264e-18 -0.116323)
(0.180257 0 -0.0985103)
(0.269418 3.85642e-18 -0.161201)
(0.455439 0 -0.286122)
(0.84524 -9.62179e-22 -0.52682)
(1.29955 0 -0.792263)
(1.76249 3.09104e-18 -1.07241)
(2.41133 0 -1.42854)
(2.63134 0 -1.56911)
(3.47506 0 -2.03084)
(3.34676 4.85581e-18 -1.9725)
(4.42701 -9.06989e-18 -2.57665)
(4.05358 -8.49804e-18 -2.39071)
(5.59649 -3.95861e-18 -3.28365)
(36.0871 0 -3.46409)
(36.3705 -3.86905e-20 -3.64425)
(36.6596 0 -4.09254)
(36.4919 0 -4.84875)
(35.5356 -2.89129e-20 -5.74001)
(33.7379 -2.79685e-20 -6.52398)
(31.2442 2.85863e-20 -7.02502)
(28.2888 -8.93538e-20 -7.1782)
(25.1193 0 -7.00923)
(21.9487 1.26551e-22 -6.594)
(18.9303 3.67151e-20 -6.02104)
(16.1545 0 -5.36777)
(13.6611 0 -4.69139)
(11.4552 0 -4.02957)
(9.52232 0 -3.40455)
(7.83889 4.19773e-22 -2.82848)
(6.37903 3.76455e-22 -2.30483)
(5.11703 8.25921e-20 -1.83615)
(4.02846 8.19467e-20 -1.41948)
(3.09193 0 -1.05262)
(2.28824 -1.59514e-19 -0.731368)
(1.60099 -1.5695e-19 -0.452104)
(1.01508 0 -0.211154)
(0.518606 -3.42106e-22 -0.00383194)
(0.0996927 3.33851e-22 0.171901)
(-0.251247 -1.42516e-19 0.320293)
(-0.542597 0 0.443964)
(-0.7824 0 0.546008)
(-0.976863 2.61042e-19 0.628956)
(-1.13216 5.02127e-22 0.695219)
(-1.25389 4.87164e-19 0.746479)
(-1.34648 0 0.784949)
(-1.41377 4.53287e-19 0.813436)
(-1.46046 0 0.831565)
(-1.48905 0 0.840417)
(-1.50329 -2.02888e-19 0.840513)
(-1.50442 0 0.836752)
(-1.49507 -3.74937e-19 0.828519)
(-1.47717 1.44829e-22 0.816314)
(-1.4522 3.45991e-19 0.800994)
(-1.42161 0 0.783071)
(-1.38648 1.04763e-22 0.762826)
(-1.34737 0 0.740449)
(-1.30484 0 0.716318)
(-1.25955 0 0.690987)
(-1.21257 0 0.665347)
(-1.16548 0 0.640638)
(-1.12062 4.91115e-19 0.618406)
(-1.08061 0 0.599815)
(-1.04703 0 0.584828)
(-1.01918 -4.29134e-19 0.57134)
(-0.991978 0 0.553993)
(-0.95437 -3.91389e-19 0.52402)
(-0.889112 -3.73717e-19 0.470092)
(-0.775069 7.13456e-19 0.381444)
(-0.596064 0 0.254988)
(-0.353482 -6.48124e-19 0.10318)
(-0.0826113 -6.16389e-19 -0.042609)
(0.147081 0 -0.14095)
(0.266541 0 -0.168838)
(0.267228 0 -0.140042)
(0.188276 5.009e-19 -0.0708757)
(0.00898138 0 0.073974)
(-0.355214 0 0.353072)
(-0.99684 8.48025e-19 0.797322)
(-1.82034 -1.60309e-18 1.30908)
(-2.67025 0 1.69478)
(-2.74432 0 1.5147)
(-2.20208 0 0.851155)
(0.0820012 0 -0.908282)
(2.48866 -6.36455e-19 -2.7349)
(9.3353 1.03707e-18 -5.47759)
(6.06549 0 -2.35409)
(2.20587 0 -0.938936)
(2.43028 -8.56532e-19 -1.52692)
(2.95835 0 -1.82655)
(3.34679 -7.63242e-19 -1.955)
(2.03153 6.80951e-19 -0.52764)
(-3.59066 0 3.5216)
(-11.3875 0 8.21101)
(-16.7267 0 10.7499)
(-18.569 0 10.9283)
(-16.9489 0 9.2564)
(-13.4607 1.33835e-18 6.75994)
(-8.93773 0 4.03424)
(-4.61524 3.467e-18 1.76855)
(-1.41993 0 0.221573)
(0.849689 -9.57525e-22 -0.86169)
(2.27904 -5.95092e-22 -1.48711)
(2.81769 0 -1.6579)
(2.75453 2.83967e-18 -1.5494)
(2.50673 0 -1.41967)
(2.55301 0 -1.51319)
(2.89088 -4.72312e-18 -1.69744)
(2.61044 0 -1.3874)
(1.17798 0 -0.38547)
(-0.815756 0 0.752602)
(-1.80217 0 1.12452)
(-1.57668 0 0.828148)
(-0.799368 0 0.341395)
(-0.224432 0 0.0413379)
(0.233959 0 -0.187934)
(0.414906 2.65422e-18 -0.266893)
(0.580861 0 -0.342999)
(0.532409 0 -0.297756)
(0.505137 0 -0.275014)
(0.407141 -4.08352e-18 -0.216596)
(0.40619 -3.82823e-18 -0.229008)
(0.537952 -3.60006e-18 -0.323376)
(0.805418 3.39604e-18 -0.501547)
(1.26373 -9.38424e-22 -0.787797)
(1.82195 -3.04098e-18 -1.11345)
(2.34784 -5.77133e-18 -1.43457)
(3.11819 0 -1.85268)
(3.36191 5.1396e-18 -2.01243)
(4.35759 4.81703e-18 -2.55106)
(4.2016 0 -2.48338)
(5.46787 4.23315e-18 -3.18669)
(5.03499 3.96614e-18 -2.97692)
(6.76999 3.69496e-18 -3.98287)
(35.8051 0 -3.6209)
(35.9543 1.92389e-20 -3.81099)
(36.2156 0 -4.12389)
(36.3626 0 -4.63793)
(36.1297 2.72261e-20 -5.3204)
(35.3444 2.63315e-20 -6.04816)
(33.9517 -2.69081e-20 -6.67702)
(31.9972 8.72052e-20 -7.0969)
(29.5962 0 -7.25557)
(26.8991 3.34077e-20 -7.15593)
(24.0611 -6.90489e-20 -6.83815)
(21.2198 0 -6.35914)
(18.4816 7.41067e-20 -5.777)
(15.9181 0 -5.14222)
(13.5695 7.69451e-20 -4.49381)
(11.4513 7.79411e-20 -3.85992)
(9.56281 7.80331e-20 -3.25756)
(7.89368 -7.77424e-20 -2.69853)
(6.42784 -1.53984e-19 -2.18744)
(5.14748 0 -1.72653)
(4.03426 1.50149e-19 -1.31491)
(3.07086 0 -0.950689)
(2.24061 0 -0.631257)
(1.5289 -1.41017e-19 -0.352747)
(0.921881 2.74807e-19 -0.112631)
(0.407348 0 0.0934674)
(-0.0258315 0 0.268007)
(-0.387629 0 0.414837)
(-0.686787 -2.449e-19 0.536612)
(-0.931314 2.37313e-19 0.636482)
(-1.12851 -3.62037e-22 0.716845)
(-1.28465 2.2064e-19 0.780145)
(-1.40545 -4.26241e-19 0.828488)
(-1.4954 2.05656e-19 0.86467)
(-1.55971 -1.98181e-19 0.890476)
(-1.60269 1.49888e-22 0.904373)
(-1.62745 0 0.908608)
(-1.63697 3.52631e-19 0.90714)
(-1.63323 3.38823e-19 0.900783)
(-1.61888 -3.25356e-19 0.889579)
(-1.59581 0 0.874616)
(-1.56563 2.99344e-19 0.856231)
(-1.52934 2.86854e-19 0.83473)
(-1.4878 2.74893e-19 0.810667)
(-1.442 2.6331e-19 0.784794)
(-1.39327 0 0.758229)
(-1.34348 0 0.732462)
(-1.29526 -8.38412e-23 0.70928)
(-1.25159 0 0.689937)
(-1.21435 0 0.674216)
(-1.18293 -4.03e-19 0.659461)
(-1.15194 3.84904e-19 0.639279)
(-1.10942 3.67585e-19 0.603513)
(-1.03668 4.93521e-23 0.53942)
(-0.910641 -8.72708e-23 0.435474)
(-0.713133 0 0.289384)
(-0.44404 0 0.116605)
(-0.139128 1.15715e-18 -0.046645)
(0.1269 0 -0.154242)
(0.273162 0 -0.18108)
(0.280028 -4.95525e-19 -0.142052)
(0.18494 0 -0.0517033)
(-0.0339019 0 0.133534)
(-0.467295 8.42872e-19 0.479003)
(-1.2063 -7.95907e-19 1.00448)
(-2.12745 1.50354e-18 1.57962)
(-3.03956 0 1.95837)
(-3.08845 -6.80803e-19 1.68355)
(-2.49174 0 0.871147)
(-0.035464 0 -1.06146)
(1.86685 1.1932e-18 -2.83425)
(9.77241 0 -5.91727)
(7.08525 0 -2.59696)
(2.79249 0 -1.11479)
(2.81055 0 -1.7691)
(3.35066 0 -2.08126)
(3.57585 7.14722e-19 -2.04308)
(1.68875 2.39486e-21 -0.0216727)
(-4.89082 -5.27552e-19 4.82693)
(-13.3013 3.87673e-19 9.83103)
(-18.2993 0 11.9226)
(-19.6761 0 11.5554)
(-17.6797 0 9.47269)
(-14.0215 0 6.77806)
(-9.35169 0 3.94284)
(-4.83267 -5.04109e-21 1.62114)
(-1.43547 0 0.037472)
(1.03594 -1.5781e-18 -1.09746)
(2.64711 -6.23233e-22 -1.76444)
(3.30049 0 -1.95088)
(3.26134 -2.65503e-18 -1.82835)
(2.99679 0 -1.69137)
(3.01655 2.34383e-18 -1.7877)
(3.30231 -2.17325e-22 -1.9322)
(2.88454 0 -1.49006)
(1.25762 0 -0.32677)
(-0.867399 0 0.869674)
(-1.84255 0 1.16855)
(-1.57015 3.06042e-18 0.794914)
(-0.722318 0 0.258473)
(-0.110882 0 -0.0524002)
(0.396882 2.63392e-18 -0.298457)
(0.584084 0 -0.372798)
(0.779074 -2.32632e-18 -0.459391)
(0.725637 2.17849e-18 -0.406258)
(0.730519 0 -0.400821)
(0.643764 7.62658e-18 -0.349657)
(0.703384 4.93622e-22 -0.402045)
(0.874882 6.72245e-18 -0.526004)
(1.2334 -3.17094e-18 -0.763907)
(1.74859 -3.00231e-18 -1.0899)
(2.41514 2.83916e-18 -1.47775)
(2.99332 2.69366e-18 -1.83501)
(3.88685 2.5365e-18 -2.31416)
(4.15168 -4.79791e-18 -2.49332)
(5.29433 -4.49662e-18 -3.10385)
(5.11941 -4.22975e-18 -3.03342)
(6.55213 -3.95058e-18 -3.82336)
(6.08171 0 -3.60315)
(7.95945 0 -4.69441)
(35.5469 0 -3.71663)
(35.624 2.1145e-20 -3.91309)
(35.7981 0 -4.17372)
(35.9741 0 -4.54705)
(36.0094 0 -5.04777)
(35.7672 0 -5.63785)
(35.1405 3.07956e-20 -6.23737)
(34.07 -2.84775e-20 -6.75473)
(32.5506 3.09364e-20 -7.11589)
(30.6257 -6.202e-20 -7.27936)
(28.3748 6.49106e-20 -7.23661)
(25.8981 0 -7.00477)
(23.3014 -6.96626e-20 -6.61689)
(20.6847 0 -6.1133)
(18.1323 -7.23337e-20 -5.5344)
(15.7079 -7.24977e-20 -4.917)
(13.4532 0 -4.29018)
(11.3913 0 -3.67711)
(9.53003 7.2251e-20 -3.09313)
(7.86738 0 -2.54856)
(6.39463 0 -2.04884)
(5.09966 -1.37863e-19 -1.59641)
(3.96823 0 -1.19163)
(2.98594 0 -0.832649)
(2.13824 -1.29048e-19 -0.517822)
(1.41121 0 -0.243698)
(0.791909 0 -0.00751803)
(0.26797 0 0.194289)
(-0.171524 4.59998e-19 0.36481)
(-0.536808 0 0.507343)
(-0.837349 -2.58997e-22 0.624878)
(-1.08129 -1.15095e-22 0.720379)
(-1.27617 2.0026e-19 0.796606)
(-1.42875 -1.93277e-19 0.855773)
(-1.54497 3.72352e-19 0.900238)
(-1.6297 1.79197e-19 0.933868)
(-1.68961 0 0.9536)
(-1.72702 0 0.963302)
(-1.74658 3.18067e-19 0.964526)
(-1.74996 -3.05401e-19 0.960605)
(-1.74057 0 0.951027)
(-1.72065 0 0.936619)
(-1.69169 -8.32103e-23 0.917888)
(-1.65502 -2.58167e-19 0.895568)
(-1.61203 -2.47269e-19 0.870644)
(-1.56439 -4.73278e-19 0.844484)
(-1.51426 0 0.818836)
(-1.46458 -8.24605e-23 0.795731)
(-1.41868 0 0.77649)
(-1.37875 0 0.760684)
(-1.3444 3.78248e-19 0.745074)
(-1.31015 -3.61229e-19 0.722227)
(-1.26353 0 0.680669)
(-1.18489 3.29253e-19 0.606423)
(-1.04975 -8.87104e-23 0.487494)
(-0.838156 0 0.322669)
(-0.54792 0 0.130503)
(-0.213536 -1.08534e-18 -0.0481443)
(0.0874293 0 -0.162892)
(0.262821 0 -0.186726)
(0.278837 9.29295e-19 -0.135189)
(0.168163 0 -0.0200273)
(-0.0915853 0 0.21077)
(-0.594074 -1.5804e-18 0.627559)
(-1.42381 7.4594e-19 1.2334)
(-2.42711 -7.04559e-19 1.8607)
(-3.38088 0 2.21156)
(-3.40343 6.3786e-19 1.82958)
(-2.77642 0 0.868628)
(-0.234928 -5.90698e-19 -1.16428)
(1.16368 -5.58929e-19 -2.93859)
(9.72304 0 -6.16961)
(8.0031 0 -2.77446)
(3.40289 8.07531e-19 -1.26624)
(3.19241 7.53089e-19 -2.00313)
(3.70663 0 -2.30726)
(3.69616 0 -2.02614)
(1.17997 -1.20003e-18 0.665873)
(-6.26951 4.93657e-19 6.27573)
(-15.0122 -7.24854e-19 11.3724)
(-19.3877 0 12.7983)
(-20.3651 0 11.9132)
(-18.1192 0 9.49013)
(-14.4021 0 6.66334)
(-9.65598 0 3.75528)
(-4.9991 -5.24445e-21 1.41272)
(-1.44491 0 -0.176764)
(1.19801 0 -1.34122)
(2.98857 -6.69252e-22 -2.04123)
(3.77616 0 -2.24582)
(3.78412 -2.48205e-18 -2.11573)
(3.51179 0 -1.97438)
(3.49151 -2.19047e-18 -2.06558)