/*--------------------------------*- C++ -*----------------------------------*\
| =========                 |                                                 |
| \\      /  F ield         | OpenFOAM: The Open Source CFD Toolbox           |
|  \\    /   O peration     | Version:  2412                                  |
|   \\  /    A nd           | Website:  www.openfoam.com                      |
|    \\/     M anipulation  |                                                 |
\*---------------------------------------------------------------------------*/
FoamFile
{
    version     2.0;
    format      ascii;
    arch        "LSB;label=32;scalar=64";
    class       volVectorField;
    location    "0.245";
    object      U;
}
// * * * * * * * * * * * * * * * * * * * * * * * * * * * * * * * * * * * * * //

dimensions      [0 1 -1 0 0 0 0];

internalField   nonuniform List<vector> 
12600
(
(22.0984 0 -1.51298)
(9.36877 -4.56903e-20 -2.02438)
(4.20413 -2.5824e-20 -2.03285)
(2.23769 0 -1.56194)
(1.46406 -1.24334e-22 -1.08373)
(1.05522 0 -0.767509)
(0.780981 -2.77326e-20 -0.563673)
(0.581065 0 -0.422273)
(0.429997 0 -0.317915)
(0.313307 0 -0.238068)
(0.221143 0 -0.176064)
(0.146969 -1.02275e-19 -0.127178)
(0.0868419 -1.05747e-19 -0.0875576)
(0.0377818 0 -0.0550625)
(-0.00247295 2.18693e-19 -0.0282239)
(-0.0355639 0 -0.00594427)
(-0.0629587 3.89872e-22 0.0127457)
(-0.0855778 0 0.0277662)
(-0.103768 1.08836e-19 0.0404124)
(-0.118653 0 0.050994)
(-0.130599 0 0.0596564)
(-0.140067 0 0.0666053)
(-0.147383 4.09519e-19 0.072203)
(-0.152825 -4.00795e-19 0.0765293)
(-0.1566 -2.32897e-22 0.0798339)
(-0.159078 1.90997e-19 0.082214)
(-0.160263 0 0.0837924)
(-0.16045 0 0.0848065)
(-0.159706 0 0.0852173)
(-0.158245 -3.40473e-19 0.0851387)
(-0.156111 -6.59805e-19 0.0845947)
(-0.153519 0 0.0836509)
(-0.150512 0 0.0824084)
(-0.147141 -2.98058e-19 0.0809397)
(-0.143566 -2.87764e-19 0.0792625)
(-0.139783 0 0.0774837)
(-0.135921 0 0.0755921)
(-0.131984 -5.16061e-19 0.073622)
(-0.128046 0 0.0716029)
(-0.124112 1.13764e-22 0.0695468)
(-0.120151 -4.60163e-19 0.0674505)
(-0.116168 -4.42673e-19 0.0653186)
(-0.112136 0 0.0631367)
(-0.10805 -4.0901e-19 0.0609008)
(-0.103887 -3.9282e-19 0.0586003)
(-0.0996169 7.54363e-19 0.0562219)
(-0.0951184 -7.24153e-19 0.0537013)
(-0.0901336 0 0.0508953)
(-0.084223 6.66181e-19 0.0475617)
(-0.0767874 -6.38646e-19 0.0432977)
(-0.0671288 0 0.0377707)
(-0.0547889 -4.49024e-23 0.0308145)
(-0.0401536 5.61022e-19 0.0227412)
(-0.0248179 0 0.0146753)
(-0.0123833 -1.02075e-18 0.00793984)
(-0.00814987 0 0.00604274)
(-0.0176822 0 0.0119683)
(-0.0456755 -2.01327e-22 0.0286)
(-0.0958822 -1.39494e-22 0.0572758)
(-0.164811 7.85463e-19 0.0942885)
(-0.226949 -7.56194e-19 0.127708)
(-0.218644 1.47868e-18 0.119473)
(-0.0568605 0 0.0240593)
(0.233996 1.4004e-18 -0.135502)
(0.378268 1.30685e-18 -0.213813)
(0.339631 -2.42459e-18 -0.191437)
(0.278735 1.1394e-18 -0.158899)
(0.301291 0 -0.171707)
(0.394248 0 -0.221161)
(0.399551 0 -0.214702)
(0.0380311 0 0.00659496)
(-0.654355 0 0.401075)
(-1.33598 -9.99268e-19 0.76462)
(-1.78115 1.15155e-18 1.00265)
(-1.81548 0 1.00524)
(-1.4339 0 0.787208)
(-0.886052 2.09419e-18 0.479683)
(-0.423221 -2.53663e-21 0.226145)
(-0.117396 4.24427e-18 0.0582473)
(0.0631321 0 -0.0404891)
(0.14776 0 -0.0865881)
(0.174792 0 -0.100724)
(0.169854 6.00322e-23 -0.0977438)
(0.159686 0 -0.091992)
(0.164996 0 -0.0947428)
(0.174995 2.89802e-18 -0.0994429)
(0.147776 5.72203e-22 -0.0823322)
(0.0621733 0 -0.0326407)
(-0.0435301 0 0.0262126)
(-0.110377 -4.45599e-18 0.0618297)
(-0.116825 -4.2588e-18 0.0646562)
(-0.0889663 -4.06719e-18 0.0488382)
(-0.0574812 -3.87462e-18 0.0310229)
(-0.0302621 -4.21031e-22 0.0158041)
(-0.0122573 -2.92498e-22 0.0059126)
(-0.00372225 3.29057e-18 0.00126111)
(-0.00734537 0 0.00349426)
(-0.0170097 0 0.0088937)
(-0.0325601 0 0.0175754)
(-0.0418294 1.04592e-17 0.0224374)
(-0.0447206 -4.95819e-18 0.0234711)
(-0.0359477 4.71313e-18 0.0181175)
(-0.0149698 4.48208e-18 0.00583406)
(0.00925152 0 -0.0081543)
(0.0428817 0 -0.0274673)
(0.0699945 0 -0.042899)
(0.100643 7.26539e-18 -0.060474)
(0.12425 0 -0.0737)
(0.146909 -6.47511e-18 -0.086826)
(0.166919 0 -0.0980348)
(0.184583 0 -0.108396)
(0.202928 5.39227e-18 -0.118715)
(0.219326 0 -0.128433)
(0.239883 0 -0.140027)
(0.252512 0 -0.147704)
(0.289803 -8.40473e-18 -0.16884)
(0.283276 0 -0.165565)
(0.364244 7.40348e-18 -0.211964)
(0.332794 0 -0.194075)
(0.511779 1.91899e-22 -0.296658)
(34.7102 -1.56913e-20 -2.35997)
(25.0197 2.6805e-20 -4.39602)
(16.4974 1.6055e-20 -5.29997)
(10.8233 0 -4.71639)
(7.46168 -5.90935e-21 -3.67513)
(5.39976 1.83431e-20 -2.79336)
(4.04886 2.89268e-20 -2.14019)
(3.09869 -3.54555e-20 -1.65662)
(2.39326 0 -1.28859)
(1.85094 0 -1.00115)
(1.4237 0 -0.772681)
(1.0811 0 -0.588402)
(0.80278 0 -0.437429)
(0.574146 0 -0.312542)
(0.384837 -9.29436e-22 -0.20856)
(0.227343 0 -0.121611)
(0.0950692 1.14605e-19 -0.0485596)
(-0.0148878 0 0.0132297)
(-0.106269 -2.26027e-19 0.0645027)
(-0.183167 2.23039e-19 0.107194)
(-0.246995 0 0.142939)
(-0.299608 2.16167e-19 0.172518)
(-0.342631 -2.12596e-19 0.196835)
(-0.377348 2.07987e-19 0.216349)
(-0.404695 -2.03083e-19 0.231916)
(-0.426003 0 0.243994)
(-0.441611 1.92256e-19 0.252959)
(-0.45286 0 0.259087)
(-0.459931 0 0.262871)
(-0.463588 0 0.264741)
(-0.464106 3.41136e-19 0.264916)
(-0.462047 0 0.263789)
(-0.457824 0 0.261483)
(-0.451817 0 0.258139)
(-0.444448 0 0.253991)
(-0.435985 0 0.249101)
(-0.426681 0 0.243835)
(-0.416677 5.30965e-19 0.238165)
(-0.406215 0 0.23224)
(-0.395385 9.82225e-19 0.226084)
(-0.384143 9.44213e-19 0.21969)
(-0.372538 4.53585e-19 0.213079)
(-0.36052 0 0.206217)
(-0.348084 0 0.1991)
(-0.335175 8.02909e-19 0.191696)
(-0.321717 -7.70254e-19 0.183956)
(-0.307378 7.38276e-19 0.175654)
(-0.291411 0 0.166326)
(-0.272561 -6.77676e-19 0.15521)
(-0.249049 0 0.141216)
(-0.21894 0 0.123318)
(-0.181084 -5.94617e-19 0.101069)
(-0.136806 0 0.075659)
(-0.0913751 0 0.0504561)
(-0.0556565 1.03132e-18 0.0309091)
(-0.0463634 0 0.02752)
(-0.0803771 0 0.050495)
(-0.171984 -3.60353e-22 0.107317)
(-0.32961 8.29759e-19 0.201292)
(-0.535955 -2.0693e-23 0.31836)
(-0.708875 0 0.412436)
(-0.656899 -1.47822e-18 0.363516)
(-0.147699 -1.45316e-18 0.0452824)
(0.750995 0 -0.463485)
(1.20146 -2.6056e-18 -0.698872)
(1.09261 -1.19843e-21 -0.621269)
(0.916874 0 -0.524966)
(0.977381 1.0712e-18 -0.569457)
(1.20778 0 -0.701926)
(1.08225 0 -0.599632)
(-0.203175 0 0.193085)
(-2.38578 0 1.47037)
(-4.35232 1.96703e-18 2.568)
(-5.49944 -1.11848e-18 3.19639)
(-5.41002 0 3.09951)
(-4.18274 0 2.35585)
(-2.55995 2.03713e-18 1.41356)
(-1.20669 -4.07638e-21 0.650859)
(-0.293993 -1.92143e-21 0.141277)
(0.25019 0 -0.159008)
(0.508827 0 -0.299581)
(0.588976 0 -0.340585)
(0.571408 9.87714e-23 -0.328794)
(0.537984 -3.16371e-18 -0.309974)
(0.547822 2.98236e-18 -0.316549)
(0.559418 -2.80009e-18 -0.322324)
(0.448908 8.76482e-22 -0.253986)
(0.170717 -2.42271e-18 -0.0895321)
(-0.146013 0 0.0918488)
(-0.329679 4.28298e-18 0.193098)
(-0.334724 0 0.192699)
(-0.24552 3.8997e-18 0.139701)
(-0.148481 0 0.0836824)
(-0.0664596 -7.03776e-18 0.0368654)
(-0.0140933 -3.32821e-18 0.00739458)
(0.00929464 0 -0.00530507)
(-0.0035345 0 0.00274422)
(-0.0309513 -5.57454e-18 0.0189482)
(-0.0724236 5.25668e-18 0.0430443)
(-0.0903831 -9.94126e-18 0.0530825)
(-0.0864962 4.70897e-18 0.050668)
(-0.0468874 -4.47222e-18 0.0270386)
(0.0279936 0 -0.0165086)
(0.111502 4.03488e-18 -0.0649646)
(0.219572 0 -0.127572)
(0.308286 0 -0.178506)
(0.404542 -6.86442e-18 -0.234304)
(0.481104 0 -0.277808)
(0.553426 8.7793e-22 -0.319968)
(0.619498 5.74231e-18 -0.35734)
(0.677889 0 -0.391593)
(0.740156 0 -0.426799)
(0.795976 0 -0.459712)
(0.866267 4.48209e-18 -0.499436)
(0.911246 -8.43345e-18 -0.526474)
(1.03565 7.90119e-18 -0.597111)
(1.01743 0 -0.58821)
(1.28705 -6.95372e-18 -0.742837)
(1.17563 0 -0.6815)
(1.75221 1.21888e-17 -1.01545)
(38.2766 3.36375e-20 -2.47164)
(33.9613 -8.41077e-21 -4.30994)
(27.3772 6.32516e-21 -6.01281)
(20.8242 0 -6.44342)
(15.5242 -9.60719e-21 -5.8884)
(11.6701 8.36285e-22 -4.96685)
(8.94084 0 -4.05712)
(6.96296 3.36487e-20 -3.28142)
(5.47987 0 -2.646)
(4.33488 4.30781e-20 -2.12786)
(3.4307 0 -1.70282)
(2.70383 0 -1.35138)
(2.11105 0 -1.05872)
(1.62223 0 -0.813377)
(1.21572 -1.07028e-19 -0.606663)
(0.875631 0 -0.431883)
(0.589179 0 -0.283854)
(0.349028 0 -0.156416)
(0.146246 1.07009e-19 -0.0496827)
(-0.0250076 -7.61129e-22 0.0408323)
(-0.168944 0 0.117395)
(-0.289844 -5.83085e-22 0.181483)
(-0.390566 0 0.235459)
(-0.473874 -1.96394e-19 0.280065)
(-0.541805 0 0.316756)
(-0.596946 0 0.346411)
(-0.640345 -1.82361e-19 0.369911)
(-0.674224 0 0.387862)
(-0.699159 0 0.401084)
(-0.716671 -3.33302e-19 0.410379)
(-0.727584 0 0.415974)
(-0.733151 0 0.418336)
(-0.734055 0 0.418127)
(-0.730778 0 0.41602)
(-0.724349 2.81012e-19 0.412029)
(-0.7152 0 0.406487)
(-0.703937 0 0.39983)
(-0.690811 -5.02438e-19 0.392297)
(-0.676317 0 0.384042)
(-0.660693 -9.29833e-19 0.375119)
(-0.643925 -1.50661e-22 0.365562)
(-0.626144 -4.29432e-19 0.35541)
(-0.607318 0 0.344639)
(-0.587471 0 0.333265)
(-0.566544 -3.79835e-19 0.321241)
(-0.544443 0 0.30848)
(-0.520687 -6.98379e-19 0.294599)
(-0.494141 0 0.278835)
(-0.462882 1.42104e-22 0.259971)
(-0.424132 0 0.236437)
(-0.374956 0 0.206725)
(-0.313696 0 0.170385)
(-0.242609 -5.36846e-19 0.129742)
(-0.170415 0 0.0904325)
(-0.114682 0 0.062545)
(-0.102914 0 0.0627455)
(-0.162557 0 0.108077)
(-0.316641 1.65721e-18 0.20858)
(-0.575492 0 0.366457)
(-0.904497 -4.08069e-23 0.552391)
(-1.16694 0 0.68009)
(-1.06015 6.96539e-19 0.556281)
(-0.235469 1.37013e-18 0.0104707)
(1.22807 0 -0.811419)
(1.99542 2.4573e-18 -1.16933)
(1.84457 1.13803e-18 -1.03414)
(1.56943 0 -0.891497)
(1.6494 -1.0088e-18 -0.966956)
(1.95293 0 -1.12775)
(1.58077 0 -0.79711)
(-0.70644 0 0.671666)
(-4.30459 0 2.77781)
(-7.32959 -1.34162e-21 4.40653)
(-8.91423 1.05185e-18 5.1739)
(-8.55132 0 4.81355)
(-6.52489 0 3.53778)
(-3.97945 -6.32031e-21 2.07715)
(-1.8617 -3.93831e-18 0.921921)
(-0.407346 -1.94294e-18 0.141855)
(0.471046 0 -0.319319)
(0.895896 0 -0.535767)
(1.02695 0 -0.594642)
(0.996752 -6.30012e-18 -0.571366)
(0.938753 -5.98998e-23 -0.539393)
(0.944595 -2.79769e-18 -0.544866)
(0.939826 0 -0.536109)
(0.730286 -2.44714e-18 -0.399297)
(0.262715 2.27128e-18 -0.119988)
(-0.242782 0 0.163262)
(-0.518771 0 0.304915)
(-0.51171 3.82771e-18 0.288818)
(-0.362932 0 0.19813)
(-0.204617 3.47346e-18 0.107789)
(-0.0726814 4.84029e-22 0.0343147)
(0.00975693 3.11546e-18 -0.0101189)
(0.0457363 -2.9395e-18 -0.0274509)
(0.0243775 0 -0.0133506)
(-0.0156855 5.2169e-18 0.0105102)
(-0.0738848 -4.91869e-18 0.0435076)
(-0.0890021 9.29923e-18 0.0505896)
(-0.0675482 0 0.0356052)
(0.0123429 -4.18093e-18 -0.0140176)
(0.146228 0 -0.0928983)
(0.293191 -3.7729e-18 -0.178859)
(0.474751 3.5803e-18 -0.283622)
(0.626533 0 -0.370066)
(0.786229 6.41651e-18 -0.46197)
(0.917232 0 -0.535422)
(1.03877 1.14201e-17 -0.605992)
(1.15354 -5.366e-18 -0.670181)
(1.25391 0 -0.729155)
(1.36404 0 -0.790994)
(1.46152 0 -0.848892)
(1.58632 -4.02709e-22 -0.918864)
(1.66629 7.87748e-18 -0.968189)
(1.88308 -7.37837e-18 -1.08967)
(1.85356 0 -1.07822)
(2.31981 -6.49282e-18 -1.34338)
(2.11821 0 -1.23643)
(3.08288 -2.20076e-22 -1.79417)
(38.6669 -1.77693e-20 -2.84886)
(37.7087 -5.83463e-21 -3.90702)
(34.2643 3.72522e-21 -5.61561)
(29.273 -1.18261e-20 -6.81754)
(23.9652 -1.85108e-20 -7.09459)
(19.2057 -3.64522e-20 -6.65219)
(15.3144 0 -5.86846)
(12.2503 0 -5.01078)
(9.8486 0 -4.2058)
(7.94782 -4.08007e-20 -3.49529)
(6.42348 0 -2.88309)
(5.18504 0 -2.35986)
(4.16724 0 -1.9133)
(3.32267 0 -1.53172)
(2.61635 0 -1.20511)
(2.02214 -1.00997e-19 -0.925106)
(1.51938 1.01343e-19 -0.684997)
(1.09379 0 -0.477681)
(0.732534 0 -0.300761)
(0.425736 -1.99764e-19 -0.148406)
(0.164745 1.96335e-19 -0.018553)
(-0.0562615 -1.9371e-19 0.0922105)
(-0.242777 1.89498e-19 0.186338)
(-0.399896 1.85969e-19 0.265099)
(-0.530445 -1.81265e-19 0.331584)
(-0.638887 1.76763e-19 0.386558)
(-0.727119 0 0.431581)
(-0.798421 -1.67265e-19 0.468035)
(-0.854413 0 0.496716)
(-0.897497 3.15455e-19 0.518792)
(-0.92921 0 0.534772)
(-0.951268 0 0.545467)
(-0.964699 0 0.551882)
(-0.971193 -2.75397e-19 0.554046)
(-0.971995 -2.65826e-19 0.552727)
(-0.96752 0 0.548955)
(-0.958711 0 0.543433)
(-0.946419 4.75115e-19 0.535906)
(-0.931268 0 0.527003)
(-0.913706 1.84958e-22 0.516785)
(-0.893852 -4.2234e-19 0.505296)
(-0.871948 0 0.492653)
(-0.848039 0 0.478856)
(-0.822221 0 0.463958)
(-0.794467 0 0.447916)
(-0.764701 -6.87777e-19 0.430622)
(-0.732366 0 0.411552)
(-0.696051 6.31511e-19 0.389688)
(-0.653349 6.0487e-19 0.363419)
(-0.600775 0 0.330699)
(-0.534611 0 0.289725)
(-0.452842 0 0.240292)
(-0.358603 5.06492e-19 0.185995)
(-0.263493 -4.82963e-19 0.135339)
(-0.191594 -9.19092e-19 0.102437)
(-0.179749 0 0.110326)
(-0.265672 -8.26691e-19 0.18134)
(-0.479096 -1.56264e-18 0.327947)
(-0.829855 0 0.54801)
(-1.26339 -1.4014e-18 0.791867)
(-1.59106 0 0.932635)
(-1.42188 -6.54256e-19 0.713198)
(-0.3328 -1.28685e-18 -0.057397)
(1.62937 0 -1.15854)
(2.73368 -1.15685e-18 -1.62483)
(2.5815 -1.07269e-18 -1.4363)
(2.22686 0 -1.25841)
(2.30341 0 -1.35775)
(2.60007 0 -1.49965)
(1.85655 7.86141e-19 -0.832943)
(-1.48902 6.32493e-19 1.38038)
(-6.36851 0 4.24643)
(-10.1558 -8.6768e-19 6.21082)
(-11.876 -9.7253e-19 6.9236)
(-11.1146 0 6.19374)
(-8.37798 0 4.43075)
(-5.10227 -1.79163e-18 2.54784)
(-2.36791 3.55356e-21 1.08327)
(-0.452076 0 0.0836113)
(0.724566 0 -0.510841)
(1.30658 0 -0.791132)
(1.48756 0 -0.862579)
(1.44573 -9.9332e-23 -0.826395)
(1.36158 2.78329e-18 -0.780361)
(1.35269 0 -0.779122)
(1.3119 0 -0.743393)
(0.989344 0 -0.527982)
(0.341589 2.12921e-18 -0.136379)
(-0.324487 0 0.232824)
(-0.666535 3.75717e-18 0.397523)
(-0.638108 -3.58446e-18 0.357937)
(-0.432557 3.41766e-18 0.230691)
(-0.218642 -3.25169e-18 0.108856)
(-0.0426202 6.16679e-18 0.0120338)
(0.0653946 -2.91566e-18 -0.0445023)
(0.112076 2.75059e-18 -0.0654756)
(0.0846592 0 -0.0461302)
(0.0391103 0 -0.0182777)
(-0.0248337 -4.59956e-18 0.0177046)
(-0.0246639 -4.34815e-18 0.0148424)
(0.0255402 -4.11645e-18 -0.0190107)
(0.15536 1.06855e-21 -0.0994487)
(0.352261 0 -0.215873)
(0.56634 0 -0.341223)
(0.819282 -3.34652e-18 -0.48734)
(1.03533 0 -0.60985)
(1.25573 -5.99427e-18 -0.736856)
(1.4429 0 -0.840991)
(1.61291 -8.17179e-22 -0.940006)
(1.77959 0 -1.0326)
(1.92284 -4.72431e-18 -1.11712)
(2.08539 4.43149e-18 -1.20791)
(2.22622 4.17241e-18 -1.29205)
(2.41079 -4.65197e-22 -1.39485)
(2.52753 0 -1.46809)
(2.84202 6.89046e-18 -1.6426)
(2.80095 6.47002e-18 -1.62994)
(3.46896 6.06277e-18 -2.00735)
(3.17013 0 -1.85407)
(4.49806 -2.47537e-22 -2.62442)
(38.1778 0 -3.40176)
(38.4751 -4.31607e-21 -3.8822)
(37.3788 0 -5.12285)
(34.6611 1.11736e-20 -6.45906)
(30.789 2.6074e-20 -7.31831)
(26.4661 1.81302e-20 -7.52453)
(22.2746 0 -7.19789)
(18.5355 0 -6.55479)
(15.346 -3.41967e-20 -5.78218)
(12.6797 -3.78274e-20 -4.99788)
(10.4644 4.07845e-20 -4.26061)
(8.62159 8.62087e-20 -3.59319)
(7.08174 8.97181e-20 -3.00026)
(5.78815 0 -2.47853)
(4.69579 0 -2.02177)
(3.76927 1.90428e-19 -1.62299)
(2.9801 -5.00008e-22 -1.27571)
(2.30688 0 -0.972479)
(1.7315 -9.46478e-20 -0.709777)
(1.23915 -1.87459e-19 -0.481671)
(0.817597 -1.85615e-19 -0.284827)
(0.457964 0 -0.114113)
(0.150585 -1.79133e-19 0.0318327)
(-0.11027 1.74956e-19 0.156884)
(-0.330419 1.71331e-19 0.262998)
(-0.516225 -3.17071e-22 0.352311)
(-0.670525 0 0.427275)
(-0.798354 2.3378e-22 0.489257)
(-0.902292 0 0.539674)
(-0.985777 2.97325e-19 0.580127)
(-1.05105 0 0.611711)
(-1.10058 0 0.635888)
(-1.1367 0 0.653474)
(-1.16155 2.60113e-19 0.664729)
(-1.17634 0 0.671071)
(-1.18297 0 0.672242)
(-1.18288 0 0.669588)
(-1.17637 0 0.664634)
(-1.16483 -4.31e-19 0.657154)
(-1.14906 8.29034e-19 0.647356)
(-1.12928 0 0.635512)
(-1.10597 3.82606e-19 0.62171)
(-1.0793 0 0.606037)
(-1.04949 0 0.588605)
(-1.01661 0 0.569393)
(-0.980653 1.97617e-22 0.548291)
(-0.941071 0 0.524661)
(-0.896309 -5.95452e-19 0.497266)
(-0.843651 0 0.464181)
(-0.779116 0 0.423031)
(-0.69843 -5.22141e-19 0.371863)
(-0.599354 0 0.310883)
(-0.485758 0 0.245067)
(-0.371694 -2.15174e-23 0.185906)
(-0.28688 8.65675e-19 0.151726)
(-0.276435 0 0.171289)
(-0.387556 -3.13026e-22 0.271206)
(-0.655373 1.47168e-18 0.46487)
(-1.08694 0 0.743031)
(-1.60604 6.59384e-19 1.03224)
(-1.97934 0 1.16369)
(-1.75119 6.155e-19 0.831783)
(-0.463022 1.21041e-18 -0.148018)
(1.91237 0 -1.48383)
(3.39248 1.08924e-18 -2.05208)
(3.29383 -8.40288e-22 -1.81856)
(2.88145 0 -1.61755)
(2.92861 0 -1.73021)
(3.14388 0 -1.78375)
(1.92032 -1.48018e-18 -0.66991)
(-2.50239 3.85367e-21 2.33176)
(-8.48592 0 5.8347)
(-12.7137 8.09539e-19 7.89635)
(-14.3161 1.81662e-18 8.34585)
(-13.1004 0 7.17152)
(-9.78913 0 4.98846)
(-5.96412 0 2.8024)
(-2.74501 3.46962e-21 1.12299)
(-0.441408 0 -0.0374982)
(1.00253 0 -0.733611)
(1.73608 0 -1.0646)
(1.96949 0 -1.14369)
(1.91892 2.76864e-18 -1.09332)
(1.80666 2.60813e-18 -1.03194)
(1.77126 0 -1.01709)
(1.67728 0 -0.940145)
(1.23376 0 -0.636528)
(0.418899 6.06837e-22 -0.139774)
(-0.38079 0 0.294595)
(-0.767589 -3.51725e-18 0.463098)
(-0.712683 0 0.391909)
(-0.454281 -3.1985e-18 0.229575)
(-0.190148 0 0.0803567)
(0.0250268 -2.88463e-18 -0.0355678)
(0.155458 0 -0.101037)
(0.212996 0 -0.12453)
(0.18368 0 -0.101706)
(0.140807 0 -0.074814)
(0.0818742 4.3008e-18 -0.0430378)
(0.108285 0 -0.0647018)
(0.196541 3.84823e-18 -0.123763)
(0.383573 3.65312e-18 -0.24091)
(0.645624 0 -0.39663)
(0.92966 0 -0.563247)
(1.25174 0 -0.748857)
(1.53375 0 -0.907861)
(1.81272 1.06042e-21 -1.06799)
(2.05868 0 -1.20376)
(2.27667 -9.96508e-18 -1.33053)
(2.49931 0 -1.45346)
(2.68594 8.82479e-18 -1.56378)
(2.90601 -4.1389e-18 -1.68628)
(3.09087 -3.89668e-18 -1.7973)
(3.34085 -3.65113e-18 -1.93585)
(3.49437 0 -2.034)
(3.91195 0 -2.26328)
(3.85795 -1.20815e-17 -2.25102)
(4.72877 5.65943e-18 -2.73905)
(4.33257 5.30271e-18 -2.54214)
(5.98502 -4.95931e-18 -3.50217)
(37.6644 0 -3.86127)
(38.1035 3.59851e-20 -4.10788)
(38.1363 0 -4.86316)
(37.164 0 -5.94703)
(35.0365 0 -6.97171)
(32.0092 0 -7.63334)
(28.4935 0 -7.82553)
(24.8668 2.92863e-20 -7.60185)
(21.3969 3.2264e-20 -7.08883)
(18.2346 7.13241e-20 -6.4162)
(15.4379 -7.67448e-20 -5.68323)
(13.0059 -8.13599e-20 -4.95312)
(10.9084 -8.46775e-20 -4.26059)
(9.10514 0 -3.62205)
(7.55567 0 -3.0433)
(6.22341 -1.78708e-19 -2.52433)
(5.07632 -1.79488e-19 -2.06259)
(4.08807 0 -1.65285)
(3.23617 8.93392e-20 -1.29197)
(2.50151 1.76942e-19 -0.974556)
(1.86789 0 -0.696965)
(1.32245 1.71302e-19 -0.454182)
(0.853049 0 -0.243928)
(0.451392 -4.0151e-22 -0.0604604)
(0.10771 -1.60987e-19 0.0960896)
(-0.184601 -3.04522e-22 0.230595)
(-0.431301 0 0.344614)
(-0.638922 1.48921e-19 0.440804)
(-0.811318 -2.88797e-19 0.521036)
(-0.953341 -5.60625e-19 0.587245)
(-1.0685 -2.713e-19 0.640755)
(-1.16031 0 0.683353)
(-1.23187 -2.53645e-19 0.716255)
(-1.28547 0 0.74129)
(-1.3241 0 0.75934)
(-1.35008 0 0.770479)
(-1.36511 0 0.775472)
(-1.37105 0 0.774815)
(-1.36876 2.01257e-22 0.771054)
(-1.35941 -3.90627e-19 0.764045)
(-1.34385 0 0.753594)
(-1.32266 -7.20971e-19 0.74029)
(-1.2963 0 0.724173)
(-1.26517 0 0.705461)
(-1.2295 0 0.68419)
(-1.18943 6.10829e-19 0.660272)
(-1.14452 0 0.632983)
(-1.0932 0 0.600913)
(-1.03264 0 0.56189)
(-0.95858 0 0.513311)
(-0.866379 9.82907e-19 0.45322)
(-0.753633 0 0.382405)
(-0.624724 0 0.307339)
(-0.49565 4.28111e-19 0.242562)
(-0.400834 0 0.210462)
(-0.392414 0 0.245027)
(-0.526067 1.46505e-18 0.376367)
(-0.841252 -6.92101e-19 0.617123)
(-1.34066 0 0.948078)
(-1.92653 0 1.26943)
(-2.32997 0 1.37323)
(-2.05664 -5.76488e-19 0.920831)
(-0.648261 0 -0.246047)
(2.0312 0 -1.76488)
(3.93997 -2.04704e-18 -2.44233)
(3.96418 1.89649e-18 -2.17673)
(3.52197 0 -1.96289)
(3.51477 0 -2.07382)
(3.57114 0 -1.96487)
(1.77241 6.96139e-19 -0.308264)
(-3.69828 -5.61024e-19 3.49846)
(-10.5577 -8.73504e-19 7.47479)
(-14.8885 -7.59432e-19 9.38057)
(-16.1748 -8.47664e-19 9.41708)
(-14.517 1.07964e-18 7.78711)
(-10.792 0 5.26876)
(-6.58736 0 2.8759)
(-3.00485 1.61766e-18 1.058)
(-0.384648 0 -0.212955)
(1.29755 0 -0.983545)
(2.17925 0 -1.35399)
(2.47081 0 -1.43723)
(2.41632 0 -1.37219)
(2.27406 -4.88514e-18 -1.2937)
(2.19982 0 -1.25752)
(2.03671 -2.1608e-18 -1.1276)
(1.46882 0 -0.730075)
(0.504262 5.95115e-22 -0.137415)
(-0.4014 3.48414e-18 0.342443)
(-0.814179 0 0.499017)
(-0.729448 0 0.391924)
(-0.423141 0 0.19631)
(-0.114581 0 0.0232125)
(0.135178 2.69695e-18 -0.108246)
(0.285659 0 -0.180724)
(0.355499 0 -0.206848)
(0.329632 0 -0.183501)
(0.298617 0 -0.162847)
(0.255527 0 -0.141747)
(0.319216 0 -0.18859)
(0.453159 0 -0.277562)
(0.703897 0 -0.435297)
(1.03175 -3.23981e-18 -0.630814)
(1.38833 0 -0.840069)
(1.77653 0 -1.06361)
(2.12676 0 -1.25989)
(2.46166 5.23073e-18 -1.45196)
(2.77001 0 -1.62071)
(3.03467 4.65342e-18 -1.77493)
(3.31826 0 -1.93045)
(3.54756 -6.0195e-22 -2.06661)
(3.83092 0 -2.22355)
(4.05883 3.63775e-18 -2.36144)
(4.38023 0 -2.53836)
(4.56848 0 -2.6615)
(5.09368 0 -2.94641)
(5.02551 5.63937e-18 -2.93638)
(6.09269 -1.05664e-17 -3.5292)
(5.60872 -9.9e-18 -3.29731)
(7.52929 -4.62887e-18 -4.41699)
(37.2831 0 -4.14427)
(37.5653 -3.93119e-20 -4.34967)
(37.8849 0 -4.81137)
(37.7959 0 -5.57584)
(36.9608 -2.84998e-20 -6.48268)
(35.3078 -2.72499e-20 -7.29541)
(32.9593 2.76822e-20 -7.83507)
(30.1278 -8.61383e-20 -8.02869)
(27.0456 0 -7.89367)
(23.9188 2.40579e-22 -7.50001)
(20.9022 3.60474e-20 -6.93378)
(18.0932 0 -6.27279)
(15.5405 0 -5.57632)
(13.2574 0 -4.88466)
(11.2358 0 -4.22276)
(9.457 4.73092e-22 -3.60444)
(7.89763 4.31035e-22 -3.03655)
(6.53415 8.39177e-20 -2.52023)
(5.34424 8.35093e-20 -2.05566)
(4.30724 0 -1.64004)
(3.40462 -1.63485e-19 -1.27085)
(2.62059 -1.61448e-19 -0.943804)
(1.94055 0 -0.656548)
(1.35282 -3.75361e-22 -0.40401)
(0.846034 3.29238e-22 -0.184957)
(0.411094 -1.47993e-19 0.0060151)
(0.039263 0 0.169513)
(-0.276892 0 0.309731)
(-0.543591 2.72102e-19 0.428421)
(-0.767092 3.60297e-22 0.528351)
(-0.952305 5.10865e-19 0.611214)
(-1.10396 0 0.679339)
(-1.22648 4.77645e-19 0.734188)
(-1.32345 0 0.777479)
(-1.39842 0 0.810671)
(-1.45391 -2.14303e-19 0.835566)
(-1.49328 0 0.853098)
(-1.5189 -3.97241e-19 0.862544)
(-1.53258 1.99845e-22 0.865254)
(-1.53621 3.67403e-19 0.862665)
(-1.52996 0 0.85629)
(-1.51552 1.36904e-22 0.845361)
(-1.49346 0 0.830579)
(-1.46452 0 0.812182)
(-1.42916 0 0.790282)
(-1.38776 0 0.76486)
(-1.34009 0 0.735136)
(-1.28473 5.26973e-19 0.69958)
(-1.21891 0 0.655841)
(-1.13828 0 0.601171)
(-1.03802 -4.62064e-19 0.533724)
(-0.915574 0 0.454975)
(-0.775568 -4.22077e-19 0.372958)
(-0.635317 -4.02456e-19 0.305353)
(-0.53288 7.65863e-19 0.27837)
(-0.52608 0 0.330741)
(-0.678171 -6.88411e-19 0.495068)
(-1.032 -6.50771e-19 0.781821)
(-1.58516 0 1.15935)
(-2.22043 0 1.50035)
(-2.64512 0 1.56238)
(-2.35081 5.41295e-19 0.99122)
(-0.907662 0 -0.334005)
(1.9424 0 -1.97991)
(4.34032 9.60952e-19 -2.78575)
(4.57158 -1.78114e-18 -2.504)
(4.1358 0 -2.28657)
(4.05164 0 -2.37708)
(3.86931 0 -2.03493)
(1.42998 0 0.256389)
(-5.01397 -5.32047e-19 4.84701)
(-12.4796 8.18965e-19 9.09124)
(-16.5903 0 10.594)
(-17.4613 0 10.1284)
(-15.4448 -1.01187e-18 8.07347)
(-11.4627 0 5.30993)
(-7.01278 -1.45087e-18 2.79105)
(-3.16752 1.50855e-18 0.899718)
(-0.293932 0 -0.436468)
(1.60094 0 -1.2569)
(2.63002 0 -1.65704)
(2.98888 0 -1.74229)
(2.93785 0 -1.66274)
(2.76437 2.28642e-18 -1.56504)
(2.63961 0 -1.49891)
(2.39416 4.04475e-18 -1.30565)
(1.7032 0 -0.811641)
(0.608887 5.73678e-22 -0.135178)
(-0.376706 6.08233e-23 0.370417)
(-0.801043 0 0.50082)
(-0.686452 2.93179e-18 0.353789)
(-0.337347 0 0.127546)
(0.0102671 0 -0.0657026)
(0.290914 -5.04269e-18 -0.209455)
(0.460409 0 -0.287429)
(0.545272 0 -0.317218)
(0.529376 0 -0.296406)
(0.519336 0 -0.287609)
(0.501607 0 -0.28332)
(0.611082 0 -0.362573)
(0.795712 0 -0.48521)
(1.11482 0 -0.687037)
(1.50748 3.02677e-18 -0.921973)
(1.93903 0 -1.17521)
(2.39018 0 -1.43445)
(2.81173 0 -1.66927)
(3.2 -4.88334e-18 -1.8914)
(3.5753 -4.6011e-18 -2.09521)
(3.88474 -4.34422e-18 -2.27565)
(4.23492 4.08131e-18 -2.46657)
(4.50481 -5.86113e-22 -2.62749)
(4.85741 -3.60747e-18 -2.82202)
(5.1254 -6.79253e-18 -2.98542)
(5.52382 0 -3.20344)
(5.74265 5.98492e-18 -3.35025)
(6.37749 5.60541e-18 -3.69047)
(6.29562 0 -3.68519)
(7.54199 4.93152e-18 -4.37095)
(6.99246 4.62038e-18 -4.11827)
(9.11089 4.32054e-18 -5.35763)
(36.9767 0 -4.30496)
(37.1272 1.96306e-20 -4.51987)
(37.4003 0 -4.85487)
(37.5814 0 -5.38633)
(37.4152 2.6838e-20 -6.08585)
(36.7325 2.56558e-20 -6.83645)
(35.4718 -2.60581e-20 -7.49669)
(33.6651 8.48501e-20 -7.9551)
(31.4108 0 -8.15508)
(28.8427 3.30458e-20 -8.09407)
(26.1032 -6.81298e-20 -7.80721)
(23.3225 0 -7.34771)
(20.6057 7.37463e-20 -6.77182)
(18.0277 0 -6.12977)
(15.6347 7.72252e-20 -5.46188)
(13.449 7.859e-20 -4.79769)
(11.4758 7.90022e-20 -4.15767)
(9.70959 -7.89876e-20 -3.55383)
(8.13863 -1.56877e-19 -2.99387)
(6.748 0 -2.48069)
(5.5217 1.53883e-19 -2.01537)
(4.44415 0 -1.5962)
(3.50015 0 -1.22209)
(2.67618 -1.45753e-19 -0.889117)
(1.95937 2.84648e-19 -0.595965)
(1.33818 0 -0.338063)
(0.802317 0 -0.113682)
(0.342078 0 0.0811511)
(-0.0508046 -2.55307e-19 0.248413)
(-0.384138 2.48004e-19 0.391384)
(-0.664825 -2.91113e-22 0.511934)
(-0.898857 2.32165e-19 0.61321)
(-1.09223 -4.49002e-19 0.696865)
(-1.24963 2.16731e-19 0.765259)
(-1.37601 -2.09036e-19 0.820097)
(-1.47525 1.62061e-22 0.862831)
(-1.55106 0 0.895176)
(-1.60617 3.73608e-19 0.919269)
(-1.64466 3.59363e-19 0.933956)
(-1.66787 -3.4549e-19 0.940626)
(-1.67839 0 0.939354)
(-1.67644 3.18814e-19 0.933664)
(-1.66382 3.05914e-19 0.922359)
(-1.64161 2.93503e-19 0.906219)
(-1.6106 2.81453e-19 0.885484)
(-1.57149 0 0.860216)
(-1.52442 0 0.829625)
(-1.46824 -1.62428e-22 0.792108)
(-1.40042 0 0.745194)
(-1.31673 0 0.686065)
(-1.21228 -4.33875e-19 0.613064)
(-1.08438 4.14944e-19 0.528415)
(-0.937577 3.96407e-19 0.441725)
(-0.789817 -3.79624e-23 0.373855)
(-0.681603 1.85262e-22 0.354571)
(-0.675096 0 0.42684)
(-0.840181 0 0.624923)
(-1.22259 1.22197e-18 0.955689)
(-1.81515 0 1.37323)
(-2.48519 0 1.72349)
(-2.92973 -5.21201e-19 1.73552)
(-2.6479 0 1.05678)
(-1.25518 0 -0.394845)
(1.61377 9.61121e-19 -2.11194)
(4.55425 -9.02279e-19 -3.0739)
(5.09011 1.67152e-18 -2.79427)
(4.70805 0 -2.58068)
(4.52976 -7.3828e-19 -2.62844)
(4.03769 0 -1.97587)
(0.918644 0 1.01939)
(-6.37941 9.99092e-19 6.33346)
(-14.1536 0 10.6078)
(-17.7704 0 11.4941)
(-18.239 0 10.516)
(-15.9872 0 8.10418)
(-11.8806 0 5.16791)
(-7.28214 1.35869e-18 2.5769)
(-3.25357 -3.74739e-21 0.662047)
(-0.181037 -1.39714e-18 -0.701382)
(1.90353 1.34514e-18 -1.54984)
(3.08132 0 -1.97134)
(3.52007 0 -2.05778)
(3.48293 0 -1.96467)
(3.27856 0 -1.84564)
(3.09252 0 -1.74179)
(2.75484 5.17425e-22 -1.47643)
(1.94627 0 -0.88634)
(0.743843 -1.63451e-18 -0.139638)
(-0.297937 -1.08651e-24 0.373106)
(-0.723143 0 0.46595)
(-0.580331 -2.74117e-18 0.277275)
(-0.194126 0 0.0226944)
(0.187818 2.48468e-18 -0.186942)
(0.496305 5.06359e-22 -0.340852)
(0.68492 0 -0.4235)
(0.788574 0 -0.458436)
(0.788915 0 -0.444144)
(0.808426 0 -0.452337)
(0.823727 3.50819e-18 -0.469529)
(0.986114 0 -0.585516)
(1.22365 0 -0.743898)
(1.61436 2.97588e-18 -0.992143)
(2.06916 0 -1.26517)
(2.5783 -2.68255e-18 -1.56372)
(3.08854 2.54557e-18 -1.85646)
(3.58568 0 -2.13159)
(4.02396 9.11959e-18 -2.38201)
(4.47205 9.33164e-22 -2.62332)
(4.82282 8.11214e-18 -2.82841)
(5.24609 -3.81077e-18 -3.05765)
(5.55227 -3.59131e-18 -3.24137)
(5.98028 3.36803e-18 -3.4763)
(6.28263 3.17049e-18 -3.66261)
(6.76304 2.9699e-18 -3.92354)
(7.00592 -5.58702e-18 -4.09174)
(7.74853 -5.23255e-18 -4.48422)
(7.65636 -4.91209e-18 -4.48806)
(9.05153 -4.60209e-18 -5.24762)
(8.46939 0 -4.99426)
(10.705 0 -6.30826)
(36.6924 0 -4.4068)
(36.7737 2.18665e-20 -4.62459)
(36.9578 0 -4.90845)
(37.1501 0 -5.30437)
(37.2146 0 -5.82644)
(37.0256 0 -6.4391)
(36.4833 3.08397e-20 -7.06546)
(35.5283 -2.79735e-20 -7.61548)
(34.1494 3.07058e-20 -8.0147)
(32.3791 -6.09821e-20 -8.21951)
(30.2834 6.40481e-20 -8.21819)
(27.948 0 -8.02405)
(25.4666 -6.9324e-20 -7.6664)
(22.9302 0 -7.18227)
(20.4192 -7.25959e-20 -6.61026)
(17.9979 -7.30581e-20 -5.98598)
(15.7121 0 -5.34003)
(13.5902 0 -4.69591)
(11.6463 7.35879e-20 -4.07156)
(9.8837 0 -3.47879)
(8.29843 0 -2.92547)
(6.88221 -1.41572e-19 -2.41517)
(5.62411 0 -1.95024)
(4.51228 0 -1.52953)
(3.53439 -1.33657e-19 -1.15299)
(2.67821 0 -0.817419)
(1.93231 0 -0.521299)
(1.28542 0 -0.261223)
(0.72774 4.7963e-19 -0.034576)
(0.249263 0 0.161487)
(-0.158273 -2.80969e-22 0.329706)
(-0.502815 -2.37014e-22 0.472927)
(-0.792103 2.10903e-19 0.593488)
(-1.03216 -2.03684e-19 0.694265)
(-1.22948 3.92701e-19 0.777225)
(-1.38916 1.89273e-19 0.844433)
(-1.51636 0 0.897767)
(-1.61526 0 0.938356)
(-1.68906 3.37249e-19 0.969109)
(-1.74206 -3.24228e-19 0.990089)
(-1.77653 0 1.00066)
(-1.7952 0 1.0012)
(-1.79873 -1.22915e-22 0.996085)
(-1.78905 -2.75644e-19 0.984649)
(-1.76756 -2.64306e-19 0.967251)
(-1.7354 -5.06451e-19 0.944192)
(-1.69318 0 0.914672)
(-1.64018 -1.61837e-22 0.877072)
(-1.5743 0 0.828848)
(-1.49157 0 0.767163)
(-1.3872 4.07228e-19 0.690601)
(-1.25832 -3.89423e-19 0.602158)
(-1.10907 0 0.512975)
(-0.957305 3.54659e-19 0.447083)
(-0.84469 2.01679e-22 0.437566)
(-0.836372 0 0.531127)
(-1.00798 0 0.762973)
(-1.40812 -1.14669e-18 1.13524)
(-2.02637 0 1.58669)
(-2.72034 0 1.93924)
(-3.19103 9.76624e-19 1.89961)
(-2.9615 0 1.13268)
(-1.69645 0 -0.41248)
(1.03537 -1.80053e-18 -2.15531)
(4.54141 8.45664e-19 -3.30019)
(5.48916 -7.83506e-19 -3.04403)
(5.22173 0 -2.8373)
(4.93984 6.91702e-19 -2.81626)
(4.07816 0 -1.7778)
(0.272402 -5.83422e-19 1.96818)
(-7.72157 -4.68763e-19 7.90762)
(-15.4989 0 11.9544)
(-18.436 0 12.0722)
(-18.614 6.54492e-19 10.6456)
(-16.2605 8.46093e-19 7.95093)
(-12.1241 0 4.89137)
(-7.43674 0 2.25921)
(-3.28267 -2.63307e-18 0.357396)
(-0.0560178 1.30746e-18 -1.00219)
(2.19635 -2.5166e-18 -1.8589)
(3.5252 0 -2.29442)
(4.05951 0 -2.38235)
(4.05036 0 -2.27755)
(3.81807 0 -2.13538)
(3.56243 0 -1.9867)
(3.12601 5.16764e-22 -1.6427)
(2.2085 0 -0.959605)
(0.91996 0 -0.157175)
(-0.157476 -6.63918e-23 0.34581)
(-0.576971 0 0.39201)
(-0.409545 -2.55994e-18 0.160765)
(0.00828388 0 -0.119546)
(0.420253 -2.3221e-18 -0.342527)
(0.75464 5.01113e-22 -0.504632)
(0.963235 0 -0.591805)
(1.08967 0 -0.633916)
(1.11251 0 -0.628633)
(1.16831 0 -0.658362)
(1.22025 -6.455e-22 -0.702253)