/*--------------------------------*- C++ -*----------------------------------*\
| =========                 |                                                 |
| \\      /  F ield         | OpenFOAM: The Open Source CFD Toolbox           |
|  \\    /   O peration     | Version:  2412                                  |
|   \\  /    A nd           | Website:  www.openfoam.com                      |
|    \\/     M anipulation  |                                                 |
\*---------------------------------------------------------------------------*/
FoamFile
{
    version     2.0;
    format      ascii;
    arch        "LSB;label=32;scalar=64";
    class       volScalarField;
    location    "1";
    object      Co;
}
// * * * * * * * * * * * * * * * * * * * * * * * * * * * * * * * * * * * * * //

dimensions      [0 0 0 0 0 0 0];

internalField   nonuniform List<scalar> 
12600
(
0.314782
0.176671
0.100053
0.0629543
0.0449788
0.0350575
0.0286578
0.0240763
0.0206018
0.0178656
0.0156507
0.0138204
0.0122833
0.0109755
0.00985075
0.00887486
0.00802169
0.00727098
0.00660676
0.0060162
0.0054889
0.00501633
0.00459139
0.00420815
0.00386159
0.00354746
0.0032621
0.00300237
0.00276554
0.00254923
0.00235139
0.00217017
0.00200397
0.00185136
0.00171109
0.00158203
0.00146317
0.0013536
0.00125252
0.0011592
0.00107299
0.000993288
0.000919559
0.000851313
0.000788113
0.000729551
0.000675265
0.000624915
0.000578203
0.00053484
0.000494581
0.00045718
0.000422435
0.000390132
0.00036011
0.00033218
0.000306212
0.00028204
0.00025956
0.000238623
0.00021915
0.000201005
0.00018413
0.0001684
0.000153774
0.000140135
0.00012746
0.000115639
0.000104661
9.44224e-05
8.49245e-05
7.60699e-05
6.78679e-05
6.02285e-05
5.31662e-05
4.65997e-05
4.05446e-05
3.4932e-05
2.97708e-05
2.50132e-05
2.06496e-05
1.66605e-05
1.30211e-05
9.70379e-06
6.76594e-06
3.97648e-06
2.51934e-06
2.07985e-06
4.55621e-06
5.71399e-06
6.00097e-06
9.39539e-06
8.87845e-06
1.13368e-05
1.07086e-05
1.13049e-05
1.39966e-05
1.32041e-05
1.69885e-05
1.60138e-05
1.38076e-05
1.42546e-05
1.34228e-05
2.37811e-05
2.23708e-05
1.45973e-05
2.14649e-05
2.35165e-05
3.69997e-05
3.17834e-05
7.87196e-06
4.17837e-05
4.55064e-05
2.33701e-05
3.33141e-05
3.66932e-05
5.14005e-06
3.4038e-06
7.34982e-06
1.00588e-05
0.477888
0.376505
0.276394
0.202504
0.153161
0.120561
0.098241
0.0821391
0.0699685
0.0604329
0.0527556
0.0464425
0.041164
0.0366908
0.0328579
0.0295431
0.026654
0.0241189
0.0218817
0.0198972
0.0181293
0.0165482
0.0151291
0.0138516
0.0126983
0.0116546
0.0107079
0.00984748
0.00906395
0.00834924
0.00769629
0.00709891
0.00655163
0.00604965
0.00558869
0.00516496
0.00477506
0.00441597
0.00408498
0.00377963
0.00349775
0.00323734
0.00299661
0.00277394
0.00256786
0.00237701
0.00220021
0.00203631
0.00188434
0.00174334
0.00161249
0.00149098
0.00137816
0.0012733
0.00117589
0.0010853
0.00100111
0.000922751
0.000849909
0.00078208
0.000719013
0.000660255
0.000605622
0.000554697
0.000507356
0.000463209
0.000422187
0.00038392
0.000348385
0.000315232
0.000284475
0.000255785
0.000229204
0.000204425
0.000181508
0.000160176
0.000140489
0.000122218
0.000105385
8.98612e-05
7.55549e-05
6.25117e-05
5.04836e-05
3.95967e-05
2.98342e-05
2.04995e-05
1.34408e-05
5.69091e-06
1.21535e-05
1.38157e-05
1.62533e-05
2.76634e-05
2.42578e-05
3.54741e-05
3.18482e-05
3.73967e-05
4.04895e-05
4.18603e-05
5.84026e-05
5.27829e-05
4.8748e-05
4.03124e-05
4.42125e-05
8.41028e-05
8.01624e-05
5.86682e-05
6.36825e-05
7.9765e-05
0.000134881
0.000111844
2.60059e-05
0.000144973
0.000166533
9.88514e-05
0.000106508
0.000137565
2.10123e-05
1.32681e-05
2.58116e-05
3.19526e-05
0.512394
0.468561
0.397261
0.325441
0.264529
0.216476
0.179599
0.151283
0.129203
0.111644
0.0974073
0.0856645
0.0758359
0.0675075
0.0603762
0.0542155
0.0488526
0.0441534
0.0400121
0.0363442
0.033081
0.0301666
0.0275545
0.0252061
0.0230887
0.0211747
0.0194408
0.0178665
0.0164345
0.0151296
0.0139387
0.0128501
0.0118537
0.0109407
0.0101029
0.00933339
0.00862589
0.00797477
0.00737503
0.00682215
0.00631208
0.00584116
0.00540611
0.00500391
0.0046319
0.00428758
0.00396876
0.00367336
0.00339959
0.00314569
0.00291018
0.00269157
0.00248867
0.00230018
0.00212513
0.00196238
0.00181118
0.00167051
0.00153977
0.00141806
0.00130493
0.00119954
0.00110157
0.00101026
0.000925389
0.000846246
0.000772713
0.000704112
0.000640409
0.000580964
0.000525809
0.000474339
0.000426641
0.000382147
0.00034098
0.000302621
0.000267191
0.000234276
0.000203889
0.000175876
0.000149897
0.000126359
0.000104294
8.4639e-05
6.6599e-05
4.93881e-05
3.68638e-05
1.878e-05
2.52506e-05
1.87684e-05
2.60496e-05
4.71388e-05
3.69132e-05
6.38744e-05
5.4531e-05
7.09693e-05
6.56108e-05
7.53691e-05
0.000114321
0.000100472
9.72068e-05
6.84593e-05
8.19399e-05
0.000168705
0.00016503
0.00012926
0.000105032
0.000159249
0.000282656
0.00022936
5.58332e-05
0.000284657
0.000351201
0.000229046
0.000189275
0.000294414
4.96249e-05
2.83111e-05
5.07123e-05
5.75005e-05
0.504337
0.491055
0.453131
0.402732
0.350331
0.30164
0.25912
0.223207
0.193306
0.168474
0.147768
0.130377
0.115645
0.103063
0.0922307
0.082839
0.0746436
0.067451
0.0611061
0.0554832
0.0504798
0.0460111
0.0420067
0.0384076
0.0351639
0.0322333
0.0295797
0.0271718
0.0249828
0.0229893
0.021171
0.0195101
0.0179907
0.0165992
0.0153232
0.0141519
0.0130756
0.0120857
0.0111743
0.0103347
0.00956044
0.00884599
0.0081863
0.00757673
0.00701318
0.00649182
0.00600929
0.0055624
0.00514839
0.00476459
0.00440874
0.00407855
0.00377219
0.00348768
0.00322355
0.00297807
0.00275006
0.00253799
0.00234094
0.00215755
0.00198711
0.00182838
0.00168084
0.00154335
0.00141557
0.00129643
0.00118572
0.00108245
0.000986542
0.00089704
0.000813975
0.000736446
0.000664568
0.000597492
0.000535392
0.000477491
0.00042396
0.000374191
0.000328151
0.00028573
0.000246156
0.000210517
0.000176579
0.000146854
0.000118858
9.24421e-05
7.35344e-05
4.39469e-05
4.53583e-05
1.94261e-05
3.50883e-05
6.62248e-05
4.51805e-05
9.51328e-05
7.72707e-05
0.000111212
8.7464e-05
0.000110523
0.000181545
0.000156941
0.000158178
0.000101859
0.000122656
0.000271279
0.000271933
0.000225214
0.00014029
0.000256924
0.000472511
0.00037939
0.000106123
0.000444357
0.000588168
0.000414248
0.000269505
0.000498526
9.53802e-05
4.84071e-05
7.9911e-05
8.44001e-05
0.488146
0.483331
0.465121
0.43522
0.398578
0.359501
0.32108
0.285221
0.25284
0.224185
0.199109
0.177276
0.158288
0.141749
0.127303
0.114641
0.103501
0.093662
0.0849405
0.0771828
0.0702597
0.0640628
0.0585003
0.0534943
0.0489783
0.0448953
0.0411962
0.0378386
0.0347856
0.032005
0.0294688
0.0271522
0.0250334
0.0230932
0.0213145
0.0196821
0.0181826
0.0168037
0.0155347
0.0143659
0.0132886
0.0122947
0.0113774
0.01053
0.00974688
0.00902262
0.00835253
0.00773213
0.00715757
0.0066251
0.00613155
0.00567374
0.00524908
0.00485483
0.00448891
0.00414892
0.0038332
0.00353963
0.00326691
0.00301314
0.00277733
0.00255776
0.00235369
0.00216356
0.00198685
0.00182212
0.00166904
0.00152625
0.00139362
0.00126985
0.00115494
0.00104768
0.000948199
0.000855332
0.0007693
0.000689039
0.000614768
0.00054567
0.000481633
0.000422642
0.000367345
0.000317772
0.000269952
0.000228652
0.000188836
0.000151779
0.000125258
8.19448e-05
8.15744e-05
2.48842e-05
4.34575e-05
8.33382e-05
4.73256e-05
0.000127838
9.82596e-05
0.000156886
0.000104703
0.000144439
0.000256935
0.000219816
0.000230309
0.000139392
0.000162994
0.000385917
0.000395766
0.000344503
0.000165832
0.000369054
0.000696896
0.000555923
0.000179395
0.000609397
0.000866327
0.000652
0.000337077
0.00074023
0.000159897
7.18426e-05
0.000111308
0.000110018
0.473947
0.46826
0.457316
0.439405
0.415641
0.387901
0.358076
0.327802
0.298304
0.270394
0.244531
0.220913
0.199555
0.180359
0.163167
0.147794
0.134051
0.121758
0.11075
0.100877
0.0920066
0.0840232
0.076825
0.070323
0.0644397
0.0591072
0.0542662
0.0498647
0.0458569
0.0422027
0.0388665
0.0358169
0.033026
0.0304692
0.0281244
0.0259719
0.0239942
0.0221755
0.0205016
0.0189597
0.0175386
0.0162277
0.0150178
0.0139003
0.0128676
0.0119127
0.0110294
0.0102117
0.0094546
0.00875306
0.00810293
0.00749998
0.0069408
0.00642176
0.0059401
0.00549266
0.00507722
0.004691
0.00433225
0.0039985
0.00368838
0.00339968
0.00313137
0.00288142
0.00264911
0.00243256
0.00223132
0.00204362
0.00186923
0.0017065
0.00155537
0.00141429
0.00128338
0.00116113
0.00104782
0.000942055
0.000844097
0.000752901
0.000668256
0.00059027
0.000516889
0.000451303
0.000387395
0.000332791
0.000279096
0.000229825
0.000194149
0.000134987
0.000136496
5.53073e-05
6.69146e-05
9.66959e-05
4.13445e-05
0.000160432
0.00011551
0.000206488
0.000116217
0.000174331
0.000337234
0.000286511
0.000311907
0.000180513
0.000199939
0.00050703
0.000531453
0.00048422
0.000180632
0.000487742
0.000943619
0.000752289
0.000278071
0.000767372
0.00117497
0.000936589
0.000384373
0.00100886
0.000240945
9.54654e-05
0.000142786
0.000131436
0.46265
0.454314
0.444463
0.431386
0.414807
0.395169
0.373203
0.349754
0.325641
0.301565
0.278078
0.255587
0.234358
0.214545
0.196212
0.179356
0.163929
0.149855
0.137041
0.125388
0.114796
0.10517
0.0964197
0.0884607
0.0812167
0.0746182
0.0686026
0.0631135
0.0581
0.0535168
0.0493231
0.0454823
0.0419617
0.0387319
0.0357662
0.0330411
0.0305351
0.0282288
0.0261049
0.0241476
0.0223426
0.0206772
0.0191396
0.0177191
0.0164063
0.0151922
0.0140689
0.013029
0.0120662
0.011174
0.0103471
0.00958034
0.00886923
0.00820921
0.00759674
0.00702783
0.00649963
0.00600863
0.00555256
0.00512832
0.00473411
0.00436717
0.00402613
0.00370846
0.00341318
0.00313796
0.00288215
0.00264357
0.00242186
0.00221495
0.00202275
0.0018433
0.0016767
0.0015211
0.00137678
0.001242
0.00111708
0.00100069
0.000892527
0.00079283
0.000698745
0.000614793
0.000532372
0.000462482
0.000392636
0.000329405
0.000282706
0.000205653
0.000208261
0.000100075
0.000107505
0.000115346
2.63894e-05
0.000191151
0.000126845
0.000258271
0.000121085
0.00019747
0.000419111
0.000354216
0.000400886
0.00022413
0.000230787
0.000629489
0.000674053
0.000640575
0.000213289
0.000607089
0.00120204
0.000961655
0.000402651
0.00090882
0.00150397
0.00125866
0.000406855
0.00129281
0.000334768
0.000117048
0.000172173
0.000145458
0.453313
0.442913
0.432309
0.420449
0.406868
0.391522
0.374592
0.356385
0.337272
0.31764
0.297848
0.278219
0.259025
0.240484
0.222759
0.205961
0.19016
0.175386
0.161639
0.148898
0.137123
0.126267
0.116274
0.107087
0.0986458
0.0908948
0.0837787
0.0772457
0.0712471
0.065738
0.0606768
0.0560253
0.0517484
0.0478141
0.0441933
0.0408592
0.0377877
0.0349565
0.0323457
0.0299367
0.0277129
0.0256591
0.0237614
0.0220071
0.0203847
0.0188834
0.0174939
0.0162071
0.0150151
0.0139103
0.0128862
0.0119362
0.0110551
0.0102372
0.00947803
0.00877283
0.00811802
0.00750929
0.00694382
0.00641778
0.00592895
0.00547391
0.00505095
0.00465696
0.0042907
0.00394931
0.00363193
0.00333592
0.00306076
0.00280396
0.00256533
0.00234249
0.00213551
0.00194215
0.00176268
0.00159502
0.00143947
0.00129448
0.00115955
0.00103512
0.000917423
0.000812456
0.000708853
0.000621416
0.000532912
0.000453775
0.00039385
0.000296907
0.00029924
0.000161444
0.000172981
0.000148811
1.3419e-05
0.00021797
0.000129881
0.000310273
0.000118474
0.000211165
0.000499231
0.000419925
0.000494749
0.000268635
0.000253125
0.000748786
0.000818851
0.000808955
0.000270483
0.000721869
0.00146236
0.00117751
0.000551453
0.00102774
0.0018438
0.00160517
0.000403276
0.00157976
0.000435305
0.000134398
0.000197201
0.000148612
0.445249
0.433525
0.422011
0.410123
0.397499
0.384002
0.369648
0.354531
0.338795
0.322607
0.306137
0.289555
0.273024
0.256696
0.240707
0.225176
0.2102
0.195857
0.182203
0.169275
0.157092
0.145657
0.13496
0.124982
0.115696
0.107071
0.0990713
0.0916609
0.0848023
0.0784588
0.0725946
0.067175
0.0621675
0.0575411
0.0532667
0.0493174
0.0456679
0.042295
0.0391769
0.0362937
0.0336272
0.0311602
0.0288773
0.026764
0.0248072
0.0229947
0.0213154
0.0197589
0.018316
0.0169778
0.0157365
0.0145845
0.0135155
0.0125227
0.0116009
0.0107443
0.00994868
0.00920885
0.00852139
0.00788174
0.00728719
0.00673364
0.00621899
0.00573953
0.0052937
0.00487808
0.00449159
0.00413107
0.00379584
0.00348292
0.00319202
0.00292032
0.00266783
0.00243187
0.00221272
0.0020079
0.00181772
0.00164032
0.00147507
0.00132253
0.00117802
0.00104908
0.000921357
0.000813817
0.000703896
0.000606676
0.000530971
0.000412144
0.000412178
0.000242408
0.000256878
0.000218593
4.97076e-05
0.000257876
0.000122012
0.000360344
0.000107579
0.000212714
0.000574335
0.000480441
0.000590592
0.000311975
0.000264822
0.000861156
0.000961394
0.000984047
0.000332364
0.00082747
0.00171607
0.00139401
0.000720391
0.00112166
0.00218542
0.00195993
0.000375363
0.00185696
0.000534727
0.000145468
0.000215452
0.000137182
0.438118
0.425545
0.413332
0.401143
0.388727
0.375946
0.362767
0.349223
0.335378
0.321312
0.307106
0.292835
0.278575
0.264396
0.25037
0.236564
0.223044
0.209871
0.197101
0.184785
0.172961
0.161661
0.150908
0.140713
0.131082
0.122009
0.113486
0.105497
0.0980245
0.0910464
0.0845391
0.0784782
0.0728384
0.0675946
0.0627222
0.0581972
0.0539963
0.0500976
0.04648
0.0431237
0.0400102
0.0371218
0.0344423
0.0319564
0.02965
0.0275098
0.0255237
0.0236801
0.0219687
0.0203796
0.0189041
0.0175333
0.0162601
0.0150767
0.0139772
0.0129548
0.0120045
0.0111204
0.0102985
0.00953335
0.00882184
0.00815915
0.00754277
0.00696834
0.00643399
0.0059357
0.00547216
0.00503963
0.00463728
0.00426161
0.0039122
0.00358574
0.0032822
0.00299841
0.00273468
0.00248805
0.00225886
0.00204492
0.00184542
0.0016611
0.00148625
0.00133005
0.00117499
0.00104447
0.000910109
0.000792376
0.000697984
0.000555242
0.000550288
0.00034647
0.000362282
0.000307492
0.000111903
0.000309321
0.000103517
0.000409186
8.7476e-05
0.000199339
0.000641288
0.000532383
0.000685147
0.000351736
0.000264022
0.000963624
0.00109746
0.00116009
0.000395777
0.00091991
0.00195622
0.0016062
0.000902995
0.00119113
0.00252023
0.00230482
0.000340998
0.00211188
0.000624462
0.000148445
0.000224307
0.000107317
0.431741
0.418597
0.405884
0.393396
0.38096
0.368454
0.355822
0.343065
0.330217
0.317326
0.304446
0.29162
0.278887
0.266282
0.253831
0.241561
0.229495
0.217661
0.206085
0.194795
0.18382
0.173188
0.162923
0.15305
0.143584
0.134541
0.125928
0.117749
0.110004
0.102687
0.0957902
0.0893025
0.0832103
0.0774983
0.0721499
0.0671479
0.0624746
0.0581119
0.0540424
0.0502485
0.0467135
0.0434209
0.0403555
0.037502
0.0348466
0.0323758
0.0300771
0.0279386
0.0259494
0.0240987
0.0223773
0.0207757
0.0192859
0.0178994
0.0166096
0.015409
0.0142919
0.0132516
0.0122837
0.011382
0.0105428
0.00976067
0.00903273
0.00835394
0.00772214
0.00713267
0.00658399
0.00607178
0.00559504
0.00514971
0.00473526
0.00434787
0.00398742
0.00365028
0.00333671
0.00304331
0.00277041
0.00251548
0.00227751
0.00205739
0.00184837
0.00166133
0.00147542
0.00131876
0.00115665
0.0010157
0.000899363
0.000730592
0.000717312
0.000477643
0.000492567
0.000418113
0.000195015
0.000400298
0.000137201
0.000484207
6.05162e-05
0.000168035
0.000697077
0.000572158
0.000774851
0.000385247
0.000249132
0.00105394
0.00122296
0.00133118
0.000457269
0.000995882
0.00217755
0.00180989
0.00109074
0.00123868
0.00284
0.00262166
0.000351559
0.00233301
0.000696509
0.000141865
0.000220898
5.53628e-05
0.425988
0.412446
0.399378
0.386645
0.374129
0.361728
0.349378
0.337055
0.32477
0.312548
0.300428
0.288445
0.27663
0.265007
0.253595
0.242403
0.231437
0.220702
0.2102
0.199935
0.189915
0.180148
0.170645
0.161418
0.15248
0.143845
0.135525
0.127529
0.119866
0.112542
0.10556
0.0989193
0.0926181
0.0866516
0.0810129
0.0756935
0.0706833
0.0659711
0.0615449
0.057392
0.0534996
0.0498545
0.0464436
0.0432541
0.0402734
0.0374891
0.0348896
0.0324633
0.0301996
0.0280878
0.0261185
0.024282
0.02257
0.0209737
0.019486
0.0180988
0.0168061
0.0156008
0.0144776
0.0134301
0.0124541
0.0115436
0.0106952
0.00990349
0.00916588
0.00847716
0.00783557
0.0072362
0.0066779
0.00615604
0.00567
0.00521539
0.00479207
0.00439587
0.00402704
0.00368169
0.00336015
0.00305953
0.00277859
0.00251844
0.00227115
0.0020494
0.00182888
0.00164261
0.00144918
0.00128206
0.00114017
0.000943134
0.000917585
0.000640467
0.000651575
0.000553989
0.000303134
0.000521317
0.000189107
0.00056261
2.52749e-05
0.000115038
0.000738717
0.000595908
0.000855944
0.000409671
0.000218763
0.00113036
0.00133386
0.0014915
0.000513375
0.00105281
0.00237618
0.0020014
0.00127378
0.00126745
0.00313697
0.00289423
0.000392717
0.00251073
0.000744608
0.000124816
0.000202038
5.50095e-05
0.420766
0.406942
0.393618
0.380695
0.368089
0.35572
0.343526
0.331471
0.319543
0.307749
0.296109
0.28465
0.273396
0.26237
0.251591
0.24107
0.230813
0.220818
0.211084
0.201602
0.192367
0.183373
0.174615
0.166092
0.157803
0.14975
0.141938
0.134371
0.127056
0.119999
0.113204
0.106677
0.100421
0.0944387
0.0887293
0.0832921
0.0781243
0.0732216
0.0685785
0.0641882
0.0600432
0.0561349
0.0524545
0.0489924
0.045739
0.0426844
0.0398189
0.0371325
0.0346158
0.0322592
0.0300539
0.0279906
0.0260615
0.0242577
0.0225723
0.0209971
0.019526
0.0181514
0.0168682
0.0156693
0.0145505
0.013505
0.0125297
0.0116181
0.0107679
0.00997301
0.00923173
0.0085385
0.00789211
0.00728733
0.0067235
0.00619567
0.00570368
0.00524281
0.00481332
0.00441085
0.00403566
0.00368459
0.00335605
0.00305146
0.00276161
0.00250112
0.002242
0.00202243
0.00179388
0.00159736
0.00142604
0.00119835
0.00115606
0.000840026
0.000843701
0.000719313
0.000440716
0.000665314
0.00025165
0.000678581
4.25907e-05
7.24058e-05
0.000762998
0.000599435
0.000924574
0.000422071
0.000171612
0.0011914
0.00142598
0.00163563
0.000560858
0.00108881
0.00254909
0.00217719
0.00144191
0.00127978
0.00340399
0.00311007
0.000418324
0.00263808
0.000772433
0.000116306
0.000195948
0.000132268
0.416001
0.401973
0.388462
0.375396
0.36271
0.350341
0.338234
0.326351
0.314668
0.303175
0.291877
0.280785
0.269918
0.259291
0.248922
0.238824
0.229006
0.219472
0.210221
0.201249
0.192547
0.184106
0.175915
0.167964
0.160243
0.152744
0.145462
0.138392
0.131532
0.124882
0.118441
0.112212
0.106197
0.100399
0.0948185
0.0894583
0.0843194
0.0794016
0.0747045
0.0702259
0.0659634
0.0619131
0.0580705
0.0544303
0.0509867
0.047733
0.0446626
0.0417679
0.039042
0.0364768
0.0340654
0.0317997
0.0296728
0.0276767
0.0258053
0.0240505
0.0224068
0.0208666
0.0194251
0.018075
0.0168122
0.0156298
0.0145244
0.0134895
0.0125224
0.0116169
0.0107711
0.00997904
0.00923941
0.00854649
0.00789964
0.00729337
0.00672753
0.00619691
0.00570176
0.00523729
0.00480366
0.00439751
0.00401682
0.00366344
0.00332671
0.0030234
0.00272157
0.0024649
0.00219728
0.00196797
0.00176312
0.00150222
0.00143831
0.00108191
0.00107395
0.000918916
0.000612705
0.000835995
0.00032724
0.000838072
0.000111534
9.65094e-05
0.000817316
0.00058031
0.000979084
0.000419463
0.000129072
0.00123536
0.00149503
0.00175855
0.000596756
0.00110252
0.00269343
0.00233352
0.00158571
0.00127627
0.00363465
0.00326145
0.000427265
0.00271129
0.000787487
0.000121504
0.00020511
0.000272743
0.41163
0.397454
0.383809
0.370635
0.357883
0.345502
0.333445
0.321675
0.310162
0.29889
0.287849
0.27704
0.266469
0.256145
0.246079
0.236283
0.226765
0.217533
0.208591
0.199937
0.191568
0.183476
0.175654
0.168089
0.160772
0.153688
0.146829
0.140183
0.133741
0.127495
0.12144
0.115572
0.109886
0.104381
0.0990563
0.0939115
0.088947
0.0841631
0.0795602
0.0751385
0.0708978
0.0668372
0.0629557
0.059251
0.0557209
0.0523618
0.0491704
0.0461421
0.0432727
0.0405565
0.0379888
0.0355634
0.0332753
0.0311178
0.0290861
0.027173
0.0253742
0.0236824
0.0220936
0.0206007
0.0192002
0.0178851
0.0166524
0.0154954
0.0144118
0.0133949
0.0124431
0.0115499
0.0107143
0.00993017
0.00919687
0.00850849
0.00786495
0.00726061
0.00669572
0.00616515
0.00566893
0.00520361
0.0047666
0.00436044
0.0039727
0.0036227
0.00327414
0.00297663
0.00266598
0.00240042
0.00215787
0.00186105
0.00177045
0.00137217
0.00134794
0.00115822
0.000824567
0.0010378
0.000418921
0.00102004
0.000211861
0.000186286
0.000885444
0.000595151
0.00106025
0.000398919
0.000119035
0.00125994
0.00153649
0.00185561
0.000618288
0.00109271
0.00280576
0.00246634
0.00169743
0.00125524
0.00382322
0.00334558
0.000421389
0.00272981
0.000786393
0.000129766
0.000209051
0.000446008
0.407603
0.393321
0.379578
0.366325
0.353523
0.341128
0.3291
0.317405
0.306013
0.294903
0.284059
0.273472
0.263139
0.253062
0.243245
0.233692
0.224412
0.215409
0.20669
0.198255
0.190104
0.182236
0.174643
0.167319
0.160255
0.15344
0.146863
0.140513
0.134379
0.128448
0.122712
0.117162
0.111788
0.106585
0.101547
0.0966698
0.0919495
0.0873839
0.0829714
0.0787107
0.0746012
0.0706423
0.0668334
0.0631738
0.0596629
0.0562991
0.0530814
0.0500073
0.0470752
0.0442816
0.0416243
0.0390989
0.0367027
0.0344307
0.0322797
0.0302441
0.0283209
0.0265039
0.0247902
0.0231734
0.0216508
0.0202158
0.0188662
0.0175954
0.0164015
0.0152779
0.0142233
0.0132312
0.0123008
0.0114256
0.0106054
0.00983379
0.00911092
0.00843083
0.00779379
0.0071945
0.00663273
0.00610526
0.00560864
0.0051465
0.00470423
0.00430422
0.00390528
0.00356352
0.00320615
0.00290097
0.00261678
0.00228119
0.00215893
0.00171709
0.00167183
0.00144312
0.00108227
0.00127594
0.000560139
0.00122925
0.000353797
0.000340917
0.00102729
0.00066597
0.00113504
0.000374948
0.000139089
0.00126175
0.00154565
0.00192243
0.000622722
0.00105772
0.00288156
0.0025713
0.00177165
0.0012127
0.00396455
0.00336422
0.00040507
0.00269583
0.000773698
0.000145028
0.000208349
0.000651417
0.403877
0.389519
0.375706
0.362398
0.349559
0.337152
0.325143
0.3135
0.302196
0.291207
0.280513
0.270101
0.259961
0.250088
0.24048
0.231137
0.222061
0.213254
0.204721
0.196462
0.18848
0.180773
0.173339
0.166173
0.15927
0.152621
0.146219
0.140054
0.134115
0.128392
0.122875
0.117553
0.112415
0.107454
0.102659
0.0980235
0.0935403
0.0892033
0.0850079
0.0809497
0.0770256
0.0732328
0.0695696
0.066034
0.0626252
0.0593415
0.0561824
0.0531464
0.0502328
0.0474397
0.0447663
0.0422098
0.0397694
0.0374414
0.0352247
0.0331149
0.0311108
0.0292072
0.0274028
0.0256921
0.0240737
0.0225416
0.0210947
0.0197266
0.0184366
0.0172181
0.0160706
0.0149875
0.0139685
0.0130073
0.0121038
0.0112516
0.0104511
0.00969625
0.00898727
0.00831899
0.00769078
0.0071
0.00654199
0.00602211
0.0055229
0.00507065
0.00461852
0.00422985
0.00382271
0.00347492
0.00314572
0.00276853
0.0026102
0.0021229
0.0020521
0.00177984
0.00139214
0.00155628
0.000782974
0.00147117
0.000534828
0.000530142
0.00119507
0.000747261
0.00126348
0.000442591
0.000217117
0.00124872
0.00154009
0.001976
0.000607362
0.000994645
0.00291489
0.00264398
0.00180559
0.00114253
0.00405384
0.00332322
0.000421411
0.00265087
0.00075415
0.000177021
0.000235237
0.000885998
0.400417
0.386006
0.372145
0.358799
0.345935
0.333521
0.321526
0.309922
0.298683
0.287784
0.277206
0.266932
0.256947
0.247243
0.237812
0.228649
0.219752
0.21112
0.202753
0.194653
0.186819
0.17925
0.171945
0.164901
0.158115
0.151581
0.145293
0.139244
0.133426
0.12783
0.122448
0.117269
0.112284
0.107485
0.10286
0.0984017
0.0941013
0.0899507
0.0859427
0.0820706
0.0783288
0.0747118
0.0712157
0.0678362
0.0645709
0.0614165
0.0583715
0.0554335
0.0526016
0.0498738
0.0472496
0.0447267
0.042305
0.0399819
0.0377573
0.035628
0.0335938
0.0316509
0.0297992
0.0280342
0.0263558
0.0247589
0.0232434
0.0218039
0.0204403
0.0191467
0.0179235
0.0167643
0.0156697
0.0146333
0.0136557
0.0127307
0.0118588
0.0110343
0.0102572
0.00952312
0.00883052
0.00817806
0.00755926
0.00698211
0.0064254
0.00592045
0.00541376
0.00497684
0.0045181
0.00412548
0.00374911
0.00332762
0.00312996
0.00259515
0.00249506
0.00217451
0.00176056
0.00188525
0.00107529
0.00175215
0.000759951
0.000759703
0.00139192
0.000842185
0.00143745
0.000550927
0.000372364
0.00127576
0.00153274
0.00203083
0.00057
0.000897802
0.00289819
0.00273672
0.00185251
0.00103676
0.00408657
0.00326133
0.000527531
0.00262914
0.000731552
0.000253362
0.00034438
0.00114495
0.397191
0.382746
0.368853
0.355482
0.342604
0.330188
0.318206
0.306633
0.295444
0.284616
0.274128
0.263962
0.254102
0.244536
0.235253
0.226244
0.217504
0.209028
0.200813
0.192857
0.18516
0.177719
0.170532
0.163598
0.156913
0.150473
0.144274
0.138311
0.132576
0.127063
0.121765
0.116674
0.111782
0.107081
0.102561
0.0982153
0.0940345
0.0900105
0.0861356
0.0824019
0.0788025
0.0753305
0.0719801
0.0687453
0.0656217
0.0626042
0.0596897
0.056874
0.0541552
0.0515298
0.0489969
0.0465532
0.0441987
0.0419303
0.0397483
0.0376496
0.0356349
0.0337005
0.0318476
0.0300719
0.0283747
0.0267514
0.025203
0.0237247
0.0223176
0.0209762
0.0197018
0.0184887
0.0173381
0.016244
0.0152077
0.0142235
0.0132919
0.012408
0.0115716
0.0107792
0.0100283
0.00931956
0.00864389
0.0080131
0.0074011
0.00684555
0.00628525
0.00580066
0.00529057
0.00485211
0.00442845
0.00396038
0.00372214
0.00313781
0.00300599
0.00263261
0.0021934
0.00226941
0.00142656
0.0020793
0.00103436
0.00103615
0.00162185
0.000955357
0.00163183
0.000676497
0.000552112
0.00140433
0.00160756
0.00206746
0.000578283
0.000898634
0.00288712
0.00280761
0.00188122
0.000884438
0.00405752
0.00322537
0.000710174
0.00259396
0.000708347
0.000369629
0.000515952
0.00142219
0.394174
0.379708
0.365797
0.352412
0.339527
0.327114
0.315146
0.303599
0.292451
0.281679
0.271263
0.261184
0.251426
0.241972
0.232812
0.223934
0.215329
0.20699
0.198912
0.191089
0.183518
0.176198
0.169124
0.162294
0.155705
0.149354
0.143236
0.137346
0.13168
0.126233
0.120997
0.115967
0.111135
0.106495
0.10204
0.0977611
0.0936521
0.089705
0.0859125
0.082267
0.0787617
0.0753891
0.0721431
0.0690168
0.0660048
0.0631008
0.0603005
0.0575983
0.0549909
0.0524733
0.0500436
0.0476972
0.0454332
0.0432475
0.0411399
0.0391066
0.0371483
0.035261
0.0334459
0.0316991
0.030022
0.0284103
0.0268659
0.0253842
0.023967
0.0226095
0.0213135
0.020074
0.0188927
0.0177645
0.0166907
0.0156666
0.0146928
0.0137654
0.0128835
0.0120455
0.011247
0.010492
0.00976753
0.00909075
0.0084293
0.00782867
0.00721897
0.00668999
0.00613187
0.00564835
0.00518037
0.00466427
0.00438714
0.00375182
0.00358784
0.00315791
0.00269492
0.00271487
0.00184168
0.00246011
0.00136301
0.00136663
0.00188918
0.00109237
0.00185323
0.00082573
0.000764211
0.00156559
0.00170365
0.00220795
0.000725795
0.000951955
0.00285485
0.00286086
0.00198172
0.000892954
0.00408534
0.00316755
0.000914498
0.00255323
0.000685882
0.000504716
0.000708526
0.00171104
0.391343
0.376866
0.362947
0.349558
0.336673
0.324267
0.312314
0.300792
0.289679
0.278954
0.268597
0.258589
0.248912
0.239552
0.230494
0.221726
0.213237
0.205017
0.197059
0.189356
0.181903
0.174694
0.167728
0.160998
0.154502
0.148237
0.142197
0.13638
0.130779
0.125391
0.120211
0.115231
0.110448
0.105853
0.101442
0.0972079
0.0931439
0.0892434
0.0855
0.0819068
0.0784575
0.0751452
0.0719641
0.0689072
0.0659693
0.0631436
0.0604254
0.0578085
0.0552889
0.0528608
0.0505211
0.0482644
0.0460888
0.0439889
0.041964
0.0400091
0.0381243
0.0363049
0.0345516
0.0328599
0.0312312
0.029661
0.0281512
0.026697
0.0253007
0.0239576
0.0226698
0.0214328
0.0202485
0.0191125
0.0180261
0.0169858
0.0159914
0.015041
0.0141321
0.0132661
0.0124356
0.011649
0.0108884
0.0101778
0.00947709
0.00884086
0.00819017
0.00762329
0.0070247
0.00649914
0.0059942
0.00542994
0.00511961
0.00443315
0.00423911
0.00375099
0.00326619
0.00322609
0.00232339
0.00290163
0.00174992
0.00175821
0.00219843
0.00125963
0.00210879
0.00100565
0.00101647
0.00175001
0.0018163
0.00235868
0.000899038
0.00102488
0.00293602
0.00303393
0.00211012
0.00094529
0.00410651
0.00310299
0.00114254
0.00251529
0.000665207
0.000659612
0.000920073
0.00200479
0.388679
0.3742
0.36028
0.346893
0.334014
0.321619
0.309683
0.298185
0.287104
0.276419
0.266111
0.256162
0.246554
0.237271
0.228298
0.219623
0.211232
0.203115
0.195263
0.187667
0.180319
0.173215
0.166348
0.159714
0.153308
0.147126
0.141164
0.135418
0.129883
0.124554
0.119427
0.114496
0.109757
0.105204
0.10083
0.0966315
0.0926013
0.0887335
0.0850226
0.0814623
0.0780471
0.0747705
0.0716273
0.0686112
0.0657171
0.0629388
0.0602716
0.0577094
0.0552482
0.0528817
0.0506068
0.0484174
0.0463112
0.0442821
0.0423287
0.0404452
0.0386311
0.0368808
0.0351945
0.0335669
0.0319988
0.0304853
0.0290276
0.027621
0.0262671
0.0249615
0.0237057
0.0224958
0.021333
0.0202141
0.0191393
0.0181067
0.0171147
0.016164
0.0152493
0.0143759
0.0135323
0.0127326
0.0119526
0.0112241
0.0104988
0.00984024
0.00916179
0.00856674
0.00794041
0.00737834
0.00684919
0.00623865
0.00590546
0.00517034
0.00495121
0.00440703
0.00390268
0.00380419
0.00287038
0.00340891
0.00219716
0.00221654
0.002554
0.00146424
0.00240641
0.001224
0.0013171
0.00195762
0.00195009
0.00252263
0.00110062
0.00111682
0.0030112
0.00321625
0.00225055
0.000989518
0.00410766
0.00304623
0.00139445
0.00248795
0.000684367
0.000834329
0.00114841
0.00229706
0.386164
0.37169
0.357776
0.344397
0.331528
0.319147
0.30723
0.295756
0.284704
0.274055
0.26379
0.253891
0.244341
0.235123
0.226222
0.217625
0.209319
0.20129
0.19353
0.186028
0.178775
0.171765
0.164991
0.158446
0.152125
0.146024
0.140138
0.134462
0.128992
0.123722
0.118649
0.113768
0.109073
0.10456
0.100224
0.0960582
0.0920585
0.088219
0.0845346
0.0809993
0.0776084
0.0743558
0.0712367
0.0682454
0.0653773
0.0626264
0.0599888
0.0574583
0.0550314
0.0527021
0.0504673
0.0483209
0.0462605
0.04428
0.0423777
0.0405476
0.0387885
0.0370945
0.0354652
0.033895
0.032384
0.0309268
0.029524
0.0281706
0.0268673
0.02561
0.024399
0.0232312
0.0221062
0.0210222
0.0199775
0.0189724
0.0180024
0.0170717
0.016171
0.0153107
0.0144734
0.0136802
0.0128995
0.0121712
0.0114393
0.0107739
0.0100854
0.00947417
0.00883827
0.00824734
0.00771247
0.00706017
0.00671908
0.00594203
0.00570523
0.00511329
0.00459127
0.00444441
0.00347499
0.00398252
0.00270336
0.00274355
0.00295949
0.00171381
0.00275451
0.00148873
0.00167372
0.00218909
0.00211026
0.00270913
0.0013369
0.00122739
0.0030801
0.0034079
0.00241525
0.00102187
0.00409832
0.00300975
0.00166857
0.00247824
0.000863379
0.0010281
0.00139144
0.002582
0.383783
0.36932
0.355416
0.342049
0.329196
0.316832
0.304935
0.293484
0.282461
0.271845
0.261619
0.251764
0.242263
0.233101
0.224262
0.215731
0.207496
0.199545
0.191864
0.184444
0.177276
0.17035
0.16366
0.157198
0.150957
0.144933
0.13912
0.133512
0.128106
0.122896
0.117877
0.113046
0.108397
0.103925
0.0996257
0.0954939
0.0915248
0.0877129
0.0840537
0.0805415
0.0771718
0.073939
0.0708388