/*--------------------------------*- C++ -*----------------------------------*\
| =========                 |                                                 |
| \\      /  F ield         | OpenFOAM: The Open Source CFD Toolbox           |
|  \\    /   O peration     | Version:  2412                                  |
|   \\  /    A nd           | Website:  www.openfoam.com                      |
|    \\/     M anipulation  |                                                 |
\*---------------------------------------------------------------------------*/
FoamFile
{
    version     2.0;
    format      ascii;
    arch        "LSB;label=32;scalar=64";
    class       volVectorField;
    location    "1";
    object      ddtCorrDdt0(U);
}
// * * * * * * * * * * * * * * * * * * * * * * * * * * * * * * * * * * * * * //

dimensions      [0 1 -2 0 0 0 0];

internalField   nonuniform List<vector> 
12600
(
(0.0181643 -1.12964e-21 0.0115639)
(0.0748111 -1.54672e-21 0.00198649)
(0.072664 2.25416e-22 0.00341685)
(0.0692994 0 0.00367233)
(0.0592247 2.34847e-21 0.00235803)
(0.0509082 2.59669e-21 -3.01265e-05)
(0.0473489 0 -0.00222861)
(0.0470077 0 -0.00463372)
(0.0474858 -1.2588e-20 -0.0055748)
(0.0467653 0 -0.00568457)
(0.0445001 6.22648e-21 -0.00563159)
(0.0415875 5.96081e-21 -0.00561509)
(0.0388262 -5.60138e-21 -0.00558612)
(0.0363053 0 -0.00545437)
(0.033568 -4.74992e-21 -0.00516921)
(0.0300418 0 -0.00471629)
(0.0253586 1.43327e-20 -0.00409998)
(0.0194714 0 -0.00334202)
(0.0126206 -4.86548e-21 -0.00248575)
(0.00522798 -3.58992e-21 -0.00159059)
(-0.00222228 2.43818e-21 -0.000716172)
(-0.00928276 -7.78945e-23 9.41163e-05)
(-0.0156059 0 0.000821024)
(-0.0209616 1.68041e-21 0.00146513)
(-0.0252118 0 0.00203321)
(-0.0282628 0 0.00252366)
(-0.0300301 6.92326e-21 0.00292022)
(-0.0304453 0 0.00319839)
(-0.0295024 6.70571e-23 0.00333968)
(-0.0273176 -9.64893e-21 0.00334439)
(-0.0241617 -1.01379e-20 0.00323476)
(-0.020445 -1.04681e-20 0.0030494)
(-0.0166551 1.06772e-20 0.00283228)
(-0.0132786 2.16028e-20 0.00262535)
(-0.0107246 2.17546e-20 0.00246354)
(-0.00928508 -2.19124e-20 0.00237653)
(-0.00909704 0 0.00238457)
(-0.0101425 2.22039e-20 0.00249845)
(-0.0122166 0 0.00270768)
(-0.0149616 -2.27629e-20 0.0029831)
(-0.0178544 0 0.00326727)
(-0.0203284 -3.78718e-23 0.00349547)
(-0.0217904 0 0.00359082)
(-0.0218214 -4.78591e-23 0.00350243)
(-0.0201256 -4.8255e-20 0.00318687)
(-0.0167487 4.80943e-20 0.0026549)
(-0.0118561 -4.72911e-20 0.00192189)
(-0.00598032 0 0.00106759)
(0.00042141 0 0.000144882)
(0.0065931 -3.99101e-20 -0.000730843)
(0.012158 -7.10773e-20 -0.00152136)
(0.0164678 -6.0068e-20 -0.00212111)
(0.0195464 -1.72451e-22 -0.00255399)
(0.0209938 -3.37954e-20 -0.00274315)
(0.0213172 0 -0.00278879)
(0.0202417 4.54529e-21 -0.00262299)
(0.0186198 -8.84099e-21 -0.00240435)
(0.0160033 -2.14938e-20 -0.0020273)
(0.0134286 0 -0.00168922)
(0.0100347 0 -0.00120922)
(0.00701332 0 -0.000823424)
(0.00295862 9.73056e-20 -0.00025037)
(-0.000642433 0 0.000211849)
(-0.00572213 0 0.000952114)
(-0.0101736 -1.71292e-19 0.00156123)
(-0.0162891 0 0.00252136)
(-0.0208889 0 0.00323719)
(-0.0265041 0 0.00425975)
(-0.0287104 6.86384e-20 0.00474696)
(-0.0307497 -5.13466e-20 0.00535415)
(-0.0275807 -1.89504e-20 0.00504701)
(-0.0243128 3.0372e-22 0.00475738)
(-0.0162438 -1.65393e-20 0.0034698)
(-0.0107834 0 0.00256566)
(-0.00350008 4.25817e-20 0.00113017)
(-0.00209173 0 0.000669765)
(-0.00228371 0 0.000415799)
(-0.00656442 0 0.000956618)
(-0.016188 -8.72548e-23 0.00253797)
(-0.0184125 7.40991e-20 0.00277249)
(-0.0351985 4.53531e-20 0.00584439)
(-0.0258059 -2.92072e-20 0.00400308)
(-0.0428344 -6.89638e-20 0.00712379)
(-0.03502 0 0.00574528)
(-0.0165078 0 0.00250947)
(-0.0744468 -1.08718e-19 0.0139468)
(0.0733314 -2.03183e-18 -0.0128673)
(-0.180099 -2.33216e-18 0.0376271)
(0.262277 1.6576e-18 -0.0473308)
(-0.0696971 0 0.0214794)
(-0.292205 2.49857e-18 0.0516844)
(0.684024 2.45792e-18 -0.12984)
(-0.626657 1.64329e-18 0.133903)
(0.488641 4.69713e-18 -0.0968768)
(-1.18651 0 0.228714)
(1.33916 0 -0.24864)
(0.495903 0 -0.0872442)
(-2.7385 0 0.482513)
(3.48251 0 -0.666341)
(-2.33302 0 0.464583)
(2.11405 -1.41759e-17 -0.436394)
(-1.00627 1.73367e-17 0.203915)
(-2.38135 1.22187e-17 0.397846)
(6.3939 0 -1.17575)
(-7.5815 0 1.46323)
(5.53744 0 -1.12039)
(0.305677 2.24163e-18 -0.0838043)
(-8.10526 6.98716e-17 1.45029)
(11.9631 4.62029e-17 -2.25076)
(-11.9369 0 2.35593)
(1.51725 5.85767e-17 -0.27098)
(11.6814 0 -2.10387)
(-17.4032 1.12606e-16 3.31345)
(6.79435 7.9078e-17 -1.40606)
(9.8028 1.58385e-17 -1.79798)
(-8.16004 2.58332e-17 1.56925)
(0.476834 1.98961e-17 -0.144655)
(3.07244 5.11729e-21 -0.5886)
(1.66666 -1.76101e-17 -0.310809)
(0.642002 0 -0.122054)
(0.006536 1.14013e-21 0.0208385)
(0.0418178 0 0.000783048)
(0.0804581 -2.276e-22 0.0156891)
(0.0996805 0 0.0242795)
(0.0945196 -2.37926e-21 0.0188355)
(0.0901007 -4.85274e-21 0.00723294)
(0.0948717 -2.66402e-21 -0.0024809)
(0.103051 0 -0.00826593)
(0.10842 1.76195e-22 -0.00951773)
(0.107636 -6.35469e-21 -0.00914374)
(0.102591 6.35266e-21 -0.00915845)
(0.0965498 6.17779e-21 -0.00980362)
(0.0912346 -5.86305e-21 -0.0105599)
(0.086496 5.4422e-21 -0.0109923)
(0.081339 9.7616e-21 -0.0109532)
(0.0748573 0 -0.0104434)
(0.0666055 2.22567e-22 -0.00949549)
(0.0566178 6.3395e-21 -0.00817492)
(0.0453137 4.93625e-21 -0.00660803)
(0.0333534 0 -0.00496252)
(0.0214546 0 -0.00338913)
(0.0102102 1.39858e-21 -0.0019706)
(-3.02772e-05 0 -0.000708582)
(-0.00916585 -8.20216e-22 0.000448961)
(-0.0172337 3.47421e-21 0.00155854)
(-0.0242545 0 0.00263897)
(-0.030133 -6.79076e-21 0.00365924)
(-0.0346772 0 0.00456097)
(-0.0377118 9.07791e-21 0.00529499)
(-0.0392068 1.94336e-20 0.00584757)
(-0.0393369 2.04263e-20 0.00624037)
(-0.038458 1.05956e-20 0.00651542)
(-0.0370114 -1.08043e-20 0.00671266)
(-0.0354384 -4.35554e-20 0.00686413)
(-0.0341031 -4.38693e-20 0.00699173)
(-0.0332923 0 0.00712268)
(-0.0331754 0 0.00728068)
(-0.0338289 -6.41467e-23 0.00749292)
(-0.0351399 0 0.00775557)
(-0.0368616 2.29801e-20 0.00804826)
(-0.0385042 0 0.00829523)
(-0.0395578 4.73262e-20 0.00842515)
(-0.0393883 0 0.00832605)
(-0.0376388 4.844e-20 0.00795161)
(-0.0339498 0 0.00722708)
(-0.0284978 -4.84279e-20 0.00620205)
(-0.0213675 0 0.00487009)
(-0.0133244 0 0.00339443)
(-0.00469715 4.37897e-20 0.00180257)
(0.00339825 0 0.000334921)
(0.0108225 0 -0.00102959)
(0.0164266 0 -0.00202913)
(0.0206708 4.80153e-20 -0.00281559)
(0.0224779 6.80591e-20 -0.00312118)
(0.0230932 0 -0.00326972)
(0.0213265 0 -0.00294449)
(0.0191621 8.39883e-21 -0.00263542)
(0.0148777 2.14926e-20 -0.00188723)
(0.0111572 0 -0.00135679)
(0.00536341 0 -0.000367091)
(0.000957681 0 0.000234397)
(-0.00599341 0 0.0014305)
(-0.0109918 9.57706e-20 0.00211929)
(-0.0194946 -9.46027e-20 0.00364718)
(-0.0254099 1.70261e-19 0.00453804)
(-0.0357031 0 0.00652064)
(-0.041867 0 0.00756945)
(-0.05237 0 0.00980157)
(-0.0557694 4.19979e-22 0.0104847)
(-0.0627313 5.08557e-20 0.0122234)
(-0.0592686 1.87523e-20 0.0115842)
(-0.059709 -2.20772e-20 0.0119631)
(-0.0486722 5.78794e-22 0.00952802)
(-0.0448662 -1.69643e-20 0.00880189)
(-0.0323424 -4.19753e-20 0.00578845)
(-0.0308983 0 0.00553291)
(-0.0271786 0 0.00435476)
(-0.0291316 0 0.00527061)
(-0.0430486 9.70541e-20 0.00784771)
(-0.0347366 0 0.00703031)
(-0.0729996 0 0.0142568)
(-0.0369543 2.85862e-20 0.0076637)
(-0.0887606 6.7425e-20 0.017367)
(-0.0629628 0 0.0118279)
(-0.0263547 0 0.00562682)
(-0.19414 0 0.0367059)
(0.200798 1.97945e-18 -0.0362134)
(-0.552724 -8.51182e-22 0.107135)
(0.71182 1.61285e-18 -0.139013)
(-0.369836 1.93982e-19 0.0862243)
(-0.804837 -2.42645e-18 0.134109)
(1.88899 2.38678e-18 -0.362817)
(-1.92796 -3.17956e-18 0.393612)
(1.51964 0 -0.295082)
(-3.40463 0 0.660811)
(3.8262 0 -0.769443)
(0.832624 0 -0.0755752)
(-7.38208 -6.14925e-18 1.32058)
(10.0488 0 -1.9463)
(-7.22192 0 1.47824)
(6.60231 -1.35958e-17 -1.3722)
(-3.56503 -8.30388e-18 0.771622)
(-5.84585 -2.34515e-17 0.951795)
(17.8501 -4.37036e-17 -3.30656)
(-21.9577 0 4.31669)
(17.4434 0 -3.58932)
(-0.916031 0 0.47607)
(-21.0895 -3.33133e-17 3.74289)
(33.99 -4.39714e-17 -6.47317)
(-36.5689 0 7.32141)
(7.28235 -1.11345e-16 -1.94111)
(31.6034 1.06638e-16 -5.72132)
(-49.575 -2.13768e-16 9.653)
(21.3633 0 -4.66698)
(25.141 0 -4.58782)
(-22.9974 2.45017e-17 4.59463)
(3.09129 0 -0.809565)
(8.69625 -3.40255e-18 -1.68967)
(4.49989 1.66258e-17 -0.833045)
(1.61563 0 -0.299314)
(-0.0234599 0 0.00886726)
(0.00262697 0 0.00327873)
(0.0428759 -3.59988e-22 0.0334369)
(0.0658569 0 0.0518499)
(0.069862 0 0.0439499)
(0.0755086 2.31589e-21 0.0214759)
(0.0910836 2.52285e-21 0.00259794)
(0.110146 0 -0.0040156)
(0.122952 1.3505e-22 -0.00234607)
(0.125359 6.02011e-21 0.000235801)
(0.120735 -1.19918e-20 8.34722e-05)
(0.114436 -5.85337e-21 -0.00234703)
(0.109342 -1.67081e-23 -0.0052666)
(0.105358 -5.15686e-21 -0.00753737)
(0.101098 -4.68276e-21 -0.00891512)
(0.0953517 4.20311e-21 -0.00950894)
(0.0875473 -7.17294e-21 -0.00942755)
(0.0776817 -6.00753e-21 -0.00878775)
(0.0661941 0 -0.00779798)
(0.0538253 0 -0.00672242)
(0.0414012 2.63971e-21 -0.00576496)
(0.0295844 1.5198e-21 -0.00498487)
(0.0187016 0 -0.00429965)
(0.00873649 0 -0.00355941)
(-0.000502548 -3.29204e-21 -0.00264184)
(-0.00914276 0 -0.00151251)
(-0.0170909 1.27447e-20 -0.000223685)
(-0.0240618 -7.47401e-21 0.00113696)
(-0.0297444 0 0.0024999)
(-0.0339818 -9.15385e-21 0.0038358)
(-0.0368426 -9.62728e-21 0.0051369)
(-0.0385866 0 0.00639131)
(-0.0395471 1.00453e-20 0.00756019)
(-0.0400517 2.05562e-20 0.00859075)
(-0.0403564 1.92021e-22 0.00942874)
(-0.040687 0 0.0100545)
(-0.041199 0 0.0104695)
(-0.0420315 -2.11821e-20 0.0107147)
(-0.0431575 0 0.0108137)
(-0.0444681 0 0.010807)
(-0.0455738 0 0.0106768)
(-0.0461139 0 0.0104441)
(-0.0455173 0 0.0100558)
(-0.0435704 0 0.0095522)
(-0.0398978 0 0.00886284)
(-0.0347941 4.59298e-20 0.00807855)
(-0.028202 -4.52271e-20 0.00711328)
(-0.0209973 0 0.00613918)
(-0.0132322 -4.14292e-20 0.00503914)
(-0.00620077 0 0.00408639)
(0.000357143 0 0.00308573)
(0.00495131 5.7646e-20 0.00241388)
(0.00857499 0 0.00172974)
(0.00955099 -3.23171e-20 0.00153133)
(0.00985364 1.90152e-20 0.00125881)
(0.00736068 0 0.00157854)
(0.00509344 -7.93873e-21 0.00166089)
(-4.25972e-06 0 0.00242685)
(-0.00372881 0 0.00270603)
(-0.0105467 0 0.00378219)
(-0.0148447 -8.38353e-20 0.00408329)
(-0.0230814 -9.09738e-20 0.00540762)
(-0.0278256 -2.37771e-22 0.00568275)
(-0.0379838 1.78489e-19 0.00735893)
(-0.0435364 -1.26812e-22 0.00769457)
(-0.0560152 0 0.00989177)
(-0.0617236 0 0.0103078)
(-0.07503 9.83713e-20 0.0129993)
(-0.0778119 3.75599e-22 0.0131916)
(-0.0882251 0 0.0159478)
(-0.0838445 0 0.0151864)
(-0.088214 1.07056e-20 0.017236)
(-0.0756684 5.92519e-22 0.0148319)
(-0.0758029 5.74456e-22 0.0159155)
(-0.0611702 0 0.0124118)
(-0.0628276 0 0.0133437)
(-0.0580496 -1.05927e-19 0.0109425)
(-0.0596711 8.64141e-20 0.0118519)
(-0.0786441 0 0.0136629)
(-0.0595328 0 0.0109445)
(-0.118218 0 0.0206505)
(-0.0523443 0 0.0086826)
(-0.139846 0 0.0256287)
(-0.0866747 0 0.0136781)
(-0.0415582 0 0.00966227)
(-0.299577 0 0.0535596)
(0.320552 -1.86498e-18 -0.0535172)
(-0.900967 1.0665e-18 0.167362)
(1.15486 -1.51587e-18 -0.226457)
(-0.742862 -1.82294e-19 0.186052)
(-1.17676 2.29258e-18 0.166327)
(2.96569 -2.24188e-18 -0.548264)
(-3.25643 1.4933e-18 0.655156)
(2.5814 0 -0.492388)
(-5.50842 0 1.03923)
(6.23338 0 -1.31277)
(0.630611 0 0.184064)
(-11.2581 5.769e-18 1.88651)
(16.2656 0 -3.12524)
(-12.4303 0 2.61262)
(11.2652 1.27478e-17 -2.3967)
(-6.49361 0 1.63396)
(-8.14219 1.10205e-17 1.03)
(28.1811 4.09552e-17 -5.00331)
(-35.8843 0 7.03447)
(29.628 0 -6.3377)
(-3.78643 0 1.42235)
(-30.9413 -3.14612e-17 4.91535)
(54.2107 0 -10.0233)
(-61.7225 7.71701e-18 12.6033)
(15.4858 -9.7456e-20 -4.76441)
(48.4088 -9.98021e-17 -8.11678)
(-78.7949 2.00289e-16 15.3467)
(36.3733 0 -8.6113)
(36.428 -1.3749e-17 -6.07376)
(-35.9974 -2.29185e-17 7.32652)
(7.09709 1.74829e-17 -2.0008)
(13.6412 0 -2.65401)
(6.91401 -1.55457e-17 -1.19536)
(2.28892 0 -0.381614)
(-0.0316053 0 0.02094)
(-0.0166556 0 0.0193158)
(0.011668 3.4072e-22 0.0473586)
(0.0298848 0 0.0674013)
(0.0380877 -1.83218e-21 0.0593603)
(0.048387 4.29983e-21 0.030824)
(0.0685253 0 0.00639449)
(0.0936657 -4.98138e-21 0.000463347)
(0.112786 5.39053e-21 0.00708812)
(0.119619 5.51195e-21 0.0137192)
(0.116798 5.64819e-21 0.0141238)
(0.11091 -5.49342e-21 0.00961269)
(0.106355 5.2697e-21 0.00393326)
(0.103578 -9.82866e-21 -0.000603642)
(0.100927 0 -0.00358318)
(0.0968153 -7.98592e-21 -0.00533211)
(0.0904816 0 -0.00612821)
(0.0818447 0 -0.00617808)
(0.071309 0 -0.0057898)
(0.0596431 3.68635e-21 -0.00533408)
(0.0477619 1.09512e-22 -0.00506324)
(0.0364256 1.06517e-22 -0.00499578)
(0.0260078 5.07953e-22 -0.00495017)
(0.0164562 0 -0.00468184)
(0.00747792 0 -0.00402896)
(-0.00115489 0 -0.00298219)
(-0.00938321 -1.17624e-20 -0.00165137)
(-0.0168798 1.68844e-22 -0.000168909)
(-0.0232592 0 0.00138525)
(-0.0283088 0 0.00299398)
(-0.0320725 0 0.00465484)
(-0.0347993 0 0.00633745)
(-0.036796 -1.88515e-20 0.0079593)
(-0.0383468 0 0.00941833)
(-0.0396502 1.94021e-20 0.0106183)
(-0.0408937 0 0.0115209)
(-0.0422072 0 0.0121214)
(-0.043746 1.972e-20 0.0124742)
(-0.045493 0 0.0126129)
(-0.0473852 0 0.0126069)
(-0.0490342 -2.07192e-20 0.0124546)
(-0.0501371 4.21572e-20 0.0122245)
(-0.0501045 0 0.0118788)
(-0.0488084 4.33099e-20 0.0115071)
(-0.0458193 0 0.0110166)
(-0.0415435 -8.6791e-20 0.0105275)
(-0.0357929 -2.11797e-23 0.0098767)
(-0.0295923 0 0.00926371)
(-0.0227596 0 0.00845425)
(-0.016822 3.61475e-20 0.0077887)
(-0.0111572 6.44597e-20 0.00692962)
(-0.00763661 -1.0901e-19 0.00639764)
(-0.00474125 0 0.00568007)
(-0.00475974 -3.08718e-20 0.00551561)
(-0.00496522 -1.79496e-20 0.00510596)
(-0.00840778 -4.85088e-21 0.00546111)
(-0.010988 7.10645e-21 0.00539571)
(-0.0170923 0 0.00628453)
(-0.0209621 0 0.00642794)
(-0.0289141 7.02095e-20 0.00771445)
(-0.0331625 1.57836e-19 0.00784158)
(-0.0427262 8.58038e-20 0.00943323)
(-0.0472177 -2.55345e-22 0.00944514)
(-0.0590197 -8.40684e-20 0.0114455)
(-0.0641466 -7.56169e-20 0.011417)
(-0.078708 0 0.0140425)
(-0.0837886 0 0.0140312)
(-0.0996678 -9.27031e-20 0.01737)
(-0.10156 -1.22772e-19 0.0171849)
(-0.11512 0 0.0209761)
(-0.109573 -1.82684e-20 0.019961)
(-0.117687 -1.1316e-20 0.0234282)
(-0.103654 1.34312e-20 0.020695)
(-0.107908 2.84858e-20 0.0232436)
(-0.0916422 0 0.0189514)
(-0.0970307 0 0.0210262)
(-0.0919465 9.96802e-20 0.0174282)
(-0.0941084 -1.62477e-19 0.0188387)
(-0.118707 -8.64278e-20 0.0201043)
(-0.089475 0 0.0163737)
(-0.169055 0 0.0286382)
(-0.0724299 0 0.011773)
(-0.19881 0 0.0366488)
(-0.111042 0 0.0163794)
(-0.0699198 0 0.0185011)
(-0.398212 9.85839e-20 0.0682387)
(0.420736 -3.19225e-21 -0.0636454)
(-1.22955 -1.00843e-18 0.22139)
(1.57753 0 -0.311594)
(-1.17786 -1.63634e-19 0.32062)
(-1.40057 -1.08014e-18 0.138823)
(3.88729 0 -0.693226)
(-4.55255 1.40926e-18 0.929796)
(3.6628 -4.03067e-18 -0.684987)
(-7.47596 0 1.37804)
(8.53056 0 -1.87083)
(-0.0517124 0 0.56693)
(-14.2584 5.55666e-18 2.20174)
(22.0142 0 -4.23141)
(-17.8428 0 3.8235)
(15.987 1.19588e-17 -3.48373)
(-9.75342 7.24861e-18 2.63893)
(-9.2651 0 0.711648)
(37.2257 0 -6.34855)
(-49.1295 0 9.65706)
(41.5382 0 -9.19216)
(-8.04247 0 3.42638)
(-37.4296 -1.5297e-19 5.32007)
(72.1747 0 -13.0695)
(-86.6421 -7.22138e-18 18.0064)
(25.6562 4.8864e-17 -8.04758)
(61.8816 0 -9.48046)
(-104.012 1.36424e-19 20.385)
(51.074 0 -12.9388)
(43.434 1.27845e-19 -6.5605)
(-46.5465 0 9.69851)
(12.2058 -1.63459e-17 -3.5799)
(17.6993 0 -3.41489)
(8.93649 -1.45143e-17 -1.45771)
(2.65269 0 -0.397831)
(-0.032855 0 0.0378182)
(-0.0244932 0 0.0340388)
(-0.00361724 0 0.0538472)
(0.0117007 0 0.0729989)
(0.0228794 1.7294e-21 0.0661624)
(0.0343037 -2.34258e-23 0.0355983)
(0.0513826 0 0.00802339)
(0.0742398 4.70182e-21 0.00265973)
(0.0951012 0 0.0143629)
(0.105804 -1.03318e-20 0.0264612)
(0.105701 0 0.02891)
(0.100494 5.18617e-21 0.022897)
(0.0958128 0 0.0143452)
(0.0932963 9.27982e-21 0.00737048)
(0.0914919 -4.2604e-21 0.00284514)
(0.0885224 7.60714e-21 0.000156065)
(0.0834109 -6.67843e-21 -0.00126955)
(0.0759643 -5.6657e-21 -0.00178044)
(0.0664712 0 -0.00180163)
(0.0556241 -3.48093e-21 -0.00182847)
(0.0443653 -2.46107e-21 -0.00217101)
(0.0335629 -3.0395e-21 -0.00279769)
(0.0237103 -4.79644e-22 -0.00340823)
(0.0148124 0 -0.00364691)
(0.00652818 0 -0.00331044)
(-0.00149159 0 -0.00242994)
(-0.00928943 5.4709e-21 -0.00119596)
(-0.0165567 6.51454e-21 0.000201173)
(-0.0228615 0 0.00167838)
(-0.0279463 0 0.00325458)
(-0.0318456 -8.16251e-21 0.00496096)
(-0.034827 0 0.0067728)
(-0.0372057 1.69244e-22 0.00858174)
(-0.0392548 1.75807e-20 0.0102509)
(-0.0411346 -1.77682e-20 0.011654)
(-0.043001 0 0.0127433)
(-0.0449486 0 0.0135092)
(-0.0471301 -1.86121e-20 0.014014)
(-0.0495084 0 0.0142846)
(-0.0520373 0 0.0144002)
(-0.0542955 1.95519e-20 0.0143523)
(-0.0560107 -3.97798e-20 0.0142403)
(-0.0565443 0 0.0140261)
(-0.0558392 -4.08622e-20 0.013845)
(-0.053394 0 0.0135775)
(-0.049734 4.09393e-20 0.0133832)
(-0.0445408 4.03224e-20 0.0130259)
(-0.0390196 0 0.0127517)
(-0.0327666 3.70176e-20 0.012211)
(-0.0275882 -3.40891e-20 0.0118312)
(-0.0225095 -1.21619e-19 0.0111212)
(-0.0198306 5.14606e-20 0.0107625)
(-0.0174971 -4.10961e-20 0.0100435)
(-0.0184489 -1.13696e-22 0.0099636)
(-0.0191714 0 0.00944643)
(-0.0236757 4.57214e-21 0.00987931)
(-0.0267214 -6.69744e-21 0.009671)
(-0.0340605 1.73282e-20 0.0107042)
(-0.0383028 -2.56156e-20 0.0106872)
(-0.04767 -6.61474e-20 0.012194)
(-0.0521194 -7.41904e-20 0.0121083)
(-0.0633047 8.02746e-20 0.0139869)
(-0.0677853 -7.98825e-20 0.0136954)
(-0.081507 0 0.0160552)
(-0.086408 0 0.0156082)
(-0.103276 -6.48926e-20 0.0186924)
(-0.107871 0 0.018153)
(-0.12649 0 0.0221394)
(-0.127588 5.79283e-20 0.0214107)
(-0.144407 0 0.0262151)
(-0.137748 1.71878e-20 0.0247499)
(-0.149661 2.18108e-20 0.0296828)
(-0.134175 0 0.0265148)
(-0.142575 -1.31384e-20 0.0307974)
(-0.124759 0 0.0257643)
(-0.133969 0 0.0294816)
(-0.128721 -9.30047e-20 0.0246669)
(-0.131683 7.62939e-20 0.0271726)
(-0.162062 -4.43679e-23 0.0274648)
(-0.123127 0 0.0233241)
(-0.224104 0 0.037343)
(-0.0961547 0 0.0158127)
(-0.264978 -5.78836e-20 0.0489178)
(-0.13606 -1.73221e-20 0.0180123)
(-0.112517 0 0.0311938)
(-0.490421 -1.86541e-19 0.0782453)
(0.497878 8.26249e-19 -0.0656221)
(-1.53858 1.89657e-18 0.26539)
(1.97114 -1.34169e-18 -0.391634)
(-1.66628 3.02602e-19 0.473706)
(-1.47729 0 0.0597247)
(4.6263 0 -0.779733)
(-5.77193 -1.32141e-18 1.17155)
(4.7376 3.77881e-18 -0.867064)
(-9.29671 8.63937e-18 1.66963)
(10.6929 0 -2.42879)
(-1.11485 0 1.20104)
(-16.3623 -5.20624e-18 2.22665)
(27.1517 1.16891e-17 -5.18212)
(-23.2665 0 5.06946)
(20.6515 -1.11998e-17 -4.611)
(-13.3309 -6.78754e-18 3.77047)
(-9.26166 0 -0.0154223)
(44.8557 0 -7.22656)
(-61.2916 0 12.0315)
(52.7786 0 -12.0652)
(-13.9505 0 4.62335)
(-40.6316 2.76963e-17 4.82621)
(87.6733 0 -15.4706)
(-110.474 0 23.302)
(36.8463 0 -12.2794)
(71.9046 8.77114e-17 -9.70247)
(-124.298 -8.77771e-17 24.4086)
(64.7571 0 -17.4797)
(46.115 1.19012e-17 -5.82602)
(-54.1745 0 11.4961)
(18.0672 -1.51305e-17 -5.55248)
(20.7119 0 -3.87764)
(10.6252 1.35641e-17 -1.60354)
(2.70624 0 -0.326151)
(-0.0330129 -1.08036e-22 0.049784)
(-0.0253924 -6.26978e-22 0.0442345)
(-0.00699074 9.41976e-22 0.0567818)
(0.00665538 1.23739e-21 0.0733397)
(0.0205901 0 0.0686892)
(0.0327588 -1.88739e-21 0.0401371)
(0.0440474 0 0.011969)
(0.0589015 4.37947e-21 0.00610725)
(0.0761035 4.60003e-21 0.0204186)
(0.0886509 9.61191e-21 0.0372199)
(0.0921146 -4.85897e-21 0.0427816)
(0.0888278 4.8164e-21 0.036421)
(0.0841422 0 0.0253285)
(0.0810963 0 0.0157731)
(0.0791766 4.01663e-21 0.00960116)
(0.076601 3.27692e-23 0.00602067)
(0.0722628 -9.11766e-23 0.00407187)
(0.0658529 -1.11545e-22 0.0032233)
(0.0574564 0 0.00293337)
(0.0475311 0 0.00255892)
(0.0369107 0 0.00169761)
(0.0265248 3.1189e-21 0.000416202)
(0.0170381 6.99529e-22 -0.000856464)
(0.00862942 0 -0.00162799)
(0.00101008 0 -0.00162787)
(-0.00628391 -3.48609e-21 -0.000921436)
(-0.0134756 0 0.000201451)
(-0.0203573 0 0.00146696)
(-0.0264741 0 0.002779)
(-0.0314952 0 0.00420373)
(-0.0354123 2.06772e-22 0.00582598)
(-0.0385034 0 0.00764296)
(-0.0411042 1.90535e-22 0.0095285)
(-0.0434925 -1.65724e-20 0.0113152)
(-0.0457958 3.41869e-22 0.0128508)
(-0.0481367 0 0.0140839)
(-0.0505641 0 0.0150035)
(-0.053222 0 0.0156799)
(-0.0560474 0 0.0161273)
(-0.0590183 0 0.0164262)
(-0.0616828 0 0.0165486)
(-0.0638126 0 0.0166169)
(-0.0647171 3.77383e-20 0.0165817)
(-0.064422 3.825e-20 0.0166235)
(-0.0623446 0 0.0165889)
(-0.0591453 3.84339e-20 0.0166849)
(-0.0543594 0 0.0165981)
(-0.0493944 0 0.0166382)
(-0.0436004 -6.96943e-20 0.0163341)
(-0.039095 0 0.0162221)
(-0.0345156 5.72918e-20 0.0156419)
(-0.0326359 0 0.01546)
(-0.0308161 7.74353e-20 0.0147369)
(-0.0327077 -7.0064e-23 0.0147627)
(-0.033939 0 0.0141394)
(-0.0395605 0 0.0146743)
(-0.0430949 0 0.0143122)
(-0.051762 -3.24673e-20 0.0155063)
(-0.0564189 4.80531e-20 0.0152989)
(-0.0673277 6.16269e-20 0.0170393)
(-0.0720349 6.92001e-20 0.0167023)
(-0.0849967 -1.50769e-19 0.0188959)
(-0.0895256 -7.46469e-20 0.0182672)
(-0.105332 0 0.021041)
(-0.110046 0 0.0201456)
(-0.129379 1.11097e-22 0.0237658)
(-0.133502 0 0.0226603)
(-0.155018 0 0.0273847)
(-0.155336 5.4843e-20 0.0260496)
(-0.175581 0 0.0319538)
(-0.167837 0 0.0299296)
(-0.183726 -2.14168e-20 0.036409)
(-0.166841 -1.05296e-20 0.0326642)
(-0.179575 0 0.0388112)
(-0.160314 0 0.0329056)
(-0.173549 0 0.0385254)
(-0.16825 8.73457e-20 0.0323252)
(-0.17227 0 0.036383)
(-0.208503 1.52608e-19 0.0353295)
(-0.160199 -5.82887e-20 0.0314599)
(-0.282975 0 0.0466181)
(-0.123126 0 0.0209404)
(-0.337833 5.43171e-20 0.0625396)
(-0.161204 -6.31967e-23 0.0192267)
(-0.169233 1.21008e-19 0.0479729)
(-0.574761 8.81707e-20 0.0844607)
(0.550725 7.81396e-19 -0.0591475)
(-1.8257 -8.91072e-19 0.299974)
(2.32925 1.25796e-18 -0.464628)
(-2.19304 -4.84835e-21 0.642525)
(-1.4132 0 -0.0683944)
(5.15563 -1.8741e-18 -0.803833)
(-6.85336 0 1.41762)
(5.77023 0 -1.03208)
(-10.9603 -8.09347e-18 1.91561)
(12.6957 0 -2.97571)
(-2.51083 0 1.92029)
(-17.5988 0 1.96263)
(31.5333 -1.09446e-17 -5.93056)
(-28.4537 0 6.30372)
(25.141 -1.05141e-17 -5.76143)
(-17.2014 0 5.03128)
(-8.24838 0 -1.13961)
(50.9601 0 -7.6037)
(-71.8973 0 14.0881)
(62.9231 0 -14.8881)
(-20.5183 1.56165e-18 9.54787)
(-40.7598 2.62357e-17 3.36702)
(100.639 3.41104e-17 -17.0251)
(-132.269 0 28.324)
(48.1335 0 -17.0315)
(78.3417 -1.64071e-16 -8.75789)
(-138.901 0 27.3334)
(76.8948 5.72806e-17 -22.1067)
(44.5232 0 -3.93138)
(-58.634 -1.89801e-17 12.6616)
(24.3525 1.41392e-17 -7.72158)
(22.5581 0 -4.08751)
(12.0412 1.26403e-17 -1.65917)
(2.44211 0 -0.173442)
(-0.0322086 1.01736e-22 0.0586324)
(-0.0235372 1.30224e-21 0.0528965)
(-0.005606 -8.87272e-22 0.0597068)
(0.0064563 6.6566e-23 0.0719143)
(0.0218642 1.49746e-21 0.0695407)
(0.0350568 0 0.0467201)
(0.0420001 0 0.0212477)
(0.0484455 -4.124e-21 0.014051)
(0.0591753 -8.64245e-21 0.0272499)
(0.0710551 -4.27625e-23 0.045701)
(0.0779477 4.57501e-21 0.0540791)
(0.0779849 -4.53488e-21 0.0486941)
(0.0742964 4.35552e-21 0.0361175)
(0.0705637 0 0.0242367)
(0.067699 0 0.0163243)
(0.0646237 -3.42226e-21 0.0117652)
(0.0603778 1.21202e-20 0.00925115)
(0.054646 1.03842e-20 0.00806966)
(0.0473131 0 0.00759949)
(0.0384622 0 0.00703467)
(0.0286196 0 0.00581492)
(0.0186341 1.50013e-22 0.00398553)
(0.00931215 -1.46706e-21 0.00208396)
(0.00110316 -3.11262e-23 0.000758992)
(-0.00606746 -1.6186e-21 0.00039594)
(-0.0126848 6.2831e-21 0.000933945)
(-0.0191995 -4.17245e-21 0.00197975)
(-0.0256218 -5.1222e-21 0.00313887)
(-0.0315403 -5.86111e-21 0.00427118)
(-0.0365315 0 0.00548928)
(-0.04049 7.05047e-21 0.00695168)
(-0.0436761 -7.10166e-21 0.00869792)
(-0.0464535 7.50685e-21 0.0105929)
(-0.0491281 1.48591e-20 0.0124403)
(-0.0518072 3.05131e-20 0.014062)
(-0.0545802 0 0.0154081)
(-0.0574381 0 0.0164706)
(-0.0605098 1.57786e-20 0.0173329)
(-0.0636984 0 0.0179938)
(-0.0670174 -1.6491e-20 0.0185321)
(-0.0699871 -1.68902e-20 0.0188889)
(-0.0724423 0 0.0192045)
(-0.073635 -7.07714e-20 0.0194057)
(-0.0736904 -3.59957e-20 0.0197182)
(-0.0719283 0 0.0199435)
(-0.0691662 -3.61648e-20 0.0203446)
(-0.0647659 -3.55352e-20 0.0205209)
(-0.0603674 0 0.0208648)
(-0.0550326 6.54531e-20 0.0207722)
(-0.0512337 -3.01292e-20 0.0209164)
(-0.0471625 -5.37885e-20 0.0204468)
(-0.0461307 0 0.0204499)
(-0.0448331 -8.12337e-24 0.0197206)
(-0.047723 5.19034e-20 0.019884)
(-0.0494631 0 0.0191619)
(-0.056266 0 0.0198411)
(-0.060273 5.5255e-21 0.0193214)
(-0.0703385 1.51915e-20 0.0207122)
(-0.0753812 -4.48664e-20 0.020285)
(-0.087922 -5.79308e-20 0.0222866)
(-0.092856 -6.50441e-20 0.0216466)
(-0.107715 7.07184e-20 0.0241894)
(-0.112256 1.40032e-19 0.023162)
(-0.130292 0 0.0264061)
(-0.134763 0 0.0249957)
(-0.156721 1.14331e-19 0.0292365)
(-0.160306 0 0.0274875)
(-0.184907 0 0.0330604)
(-0.184382 -5.15094e-20 0.0310162)
(-0.208273 0 0.0381424)
(-0.199394 1.61589e-20 0.0354057)
(-0.219507 -3.41447e-22 0.0435564)
(-0.201209 9.88533e-21 0.0390318)
(-0.218547 0 0.0472196)
(-0.197894 0 0.0402334)
(-0.215422 0 0.048087)
(-0.210167 8.13978e-20 0.0402672)
(-0.21552 0 0.0464586)
(-0.257734 -7.15895e-20 0.0436298)
(-0.200363 1.09506e-19 0.0408886)
(-0.34545 0 0.0564623)
(-0.153143 0 0.0273487)
(-0.417177 0 0.0774984)
(-0.186421 -7.6415e-23 0.0201138)
(-0.240112 -1.13442e-19 0.0688822)
(-0.650674 8.58631e-20 0.0864361)
(0.578225 -7.32356e-19 -0.0437146)
(-2.09016 -8.42648e-19 0.323723)
(2.64816 0 -0.528085)
(-2.74185 -1.2641e-19 0.838447)
(-1.22575 0 -0.263379)
(5.45975 1.7554e-18 -0.751781)
(-7.76644 0 1.55141)
(6.71417 0 -1.17034)
(-12.4556 0 2.11127)
(14.5094 -8.79557e-18 -3.50152)
(-4.17115 1.05086e-17 2.62767)
(-18.0405 0 1.41782)
(35.0412 1.03768e-17 -6.44246)
(-33.1397 1.15503e-17 7.46644)
(29.3388 9.83781e-18 -6.90743)
(-21.2935 6.01136e-18 6.44237)
(-6.41581 0 -2.62849)
(55.475 0 -7.45892)
(-80.5411 0 15.7312)
(71.9035 0 -17.589)
(-28.2443 -1.46022e-18 13.8293)
(-38.5201 1.77269e-19 1.05888)
(111.062 -6.3895e-17 -17.7358)
(-151.067 0 32.8471)
(58.5594 0 -22.1439)
(81.0549 7.67066e-17 -6.64902)
(-147.524 0 29.0368)
(87.2647 -5.35287e-17 -26.66)
(38.8865 0 -1.2429)
(-60.1173 3.55826e-17 13.1514)
(30.7 0 -10.027)
(23.2307 0 -3.9976)
(13.2448 -1.18081e-17 -1.63874)
(1.85247 0 0.0666192)
(-0.0311829 0 0.0662237)
(-0.0213829 -6.69568e-22 0.0607465)
(-0.00326323 0 0.0633159)
(0.00714881 -1.1592e-21 0.0711678)
(0.0220499 -2.85598e-21 0.0707779)
(0.0356937 0 0.0550712)
(0.0409579 1.83535e-21 0.0345459)
(0.0423471 0 0.0260844)
(0.0473685 4.86214e-24 0.0352095)
(0.0569294 -8.35391e-21 0.0517803)
(0.0659337 0 0.0615121)
(0.0696288 0 0.0580366)
(0.0679918 -4.09661e-21 0.0455882)
(0.0640314 0 0.0323047)
(0.0598389 0 0.0228469)
(0.0554591 0 0.0172226)
(0.0504274 -5.74244e-21 0.0139925)
(0.0446456 -4.93706e-21 0.0123433)
(0.0379751 -4.24101e-21 0.0116758)
(0.0301414 0 0.0110573)
(0.0212013 0 0.00969802)
(0.0117045 -1.58266e-21 0.00752042)
(0.00243485 7.60298e-22 0.00509964)
(-0.00590842 2.92725e-23 0.00322549)
(-0.0130268 1.52232e-21 0.00244977)
(-0.0192161 -5.32601e-21 0.00279685)
(-0.0250876 3.08924e-22 0.00380541)
(-0.0309793 4.8174e-21 0.00492539)
(-0.0366603 5.51227e-21 0.00591616)
(-0.0416528 0 0.0069143)
(-0.0457016 0 0.0081693)
(-0.0489955 6.67862e-21 0.00979196)
(-0.0519179 0 0.0116528)
(-0.0548318 -1.39734e-20 0.0135269)
(-0.0578491 -1.41689e-20 0.015206)
(-0.0610374 1.39728e-20 0.0166434)
(-0.0643187 0 0.017838)
(-0.0677985 -1.48363e-20 0.0188933)
(-0.0713317 -1.48651e-20 0.0197929)
(-0.0749731 2.53758e-22 0.0206144)
(-0.0782128 3.15397e-20 0.0212577)
(-0.0809697 0 0.0218784)
(-0.0824278 3.31436e-20 0.0223658)
(-0.0828324 0 0.0229939)
(-0.0813812 0 0.0235055)
(-0.0790788 0 0.0242303)
(-0.0750764 1.59195e-22 0.0246659)
(-0.0712892 0 0.0253089)
(-0.0664344 -3.07204e-20 0.025404)
(-0.0634016 5.65315e-20 0.0257957)
(-0.059859 5.05458e-20 0.0254135)
(-0.059748 0 0.0256097)
(-0.0589882 -3.42272e-20 0.0248651)
(-0.0629619 -4.87815e-20 0.0251992)
(-0.0652129 0 0.0243789)
(-0.0732888 0 0.0252513)
(-0.0777451 -5.19039e-21 0.0245666)
(-0.0893078 -1.40005e-20 0.0262047)
(-0.0946916 2.09959e-20 0.0255271)
(-0.108987 5.37975e-20 0.0278378)
(-0.114091 0 0.0268395)
(-0.131005 0 0.0297878)
(-0.135484 -2.79571e-22 0.0282895)
(-0.155936 6.47437e-20 0.0320832)
(-0.160063 0 0.0300722)
(-0.184864 -5.35997e-20 0.0350453)
(-0.187785 0 0.0325515)
(-0.215735 0 0.0391202)
(-0.214231 0 0.0362378)
(-0.242075 0 0.0447582)
(-0.231928 1.72092e-22 0.0411275)
(-0.25661 -2.55618e-22 0.0511353)
(-0.2368 -8.76159e-21 0.0455878)
(-0.25912 0 0.0560508)
(-0.237059 -2.70073e-20 0.0477094)
(-0.259247 0 0.0581711)
(-0.25412 -7.63268e-20 0.048411)
(-0.261131 6.24438e-20 0.0573591)
(-0.309553 -6.70784e-20 0.0522444)
(-0.243376 -5.1397e-20 0.0515692)
(-0.411497 0 0.0667551)
(-0.186127 2.11559e-20 0.0351071)
(-0.503023 0 0.093673)
(-0.211908 1.44052e-20 0.0209307)
(-0.325238 -1.07764e-19 0.0938268)
(-0.718211 -8.04363e-20 0.0844474)
(0.579636 0 -0.0192285)
(-2.33235 1.58213e-18 0.337079)
(2.92539 0 -0.580261)
(-3.30389 -1.10915e-19 1.04308)
(-0.92908 0 -0.508065)
(5.51958 1.66062e-18 -0.620461)
(-8.45287 0 1.63664)
(7.52575 3.16215e-18 -1.2674)
(-13.7665 7.13557e-18 2.25122)
(16.1123 8.23089e-18 -3.99532)
(-5.87186 -9.83299e-18 4.04539)
(-17.8083 0 0.610713)
(37.5945 -1.94972e-17 -6.69029)
(-37.0745 -2.16459e-17 8.5029)
(33.1274 0 -8.01826)
(-25.4878 -5.62208e-18 7.94956)
(-4.01112 0 -4.43589)
(58.3847 0 -6.78336)
(-86.9514 4.22133e-17 16.9074)
(79.315 0 -20.1051)
(-37.2297 0 14.7351)
(-34.4019 -2.30951e-17 -1.98118)
(118.981 5.99458e-17 -17.5818)
(-166.002 -5.53622e-18 36.7102)
(67.3525 0 -27.4577)
(79.9738 0 -3.41289)
(-150.471 0 29.5539)
(95.9282 0 -31.0567)
(29.9677 -9.33566e-18 3.01713)
(-59.3216 -1.66736e-17 13.0388)
(36.7476 0 -12.3531)
(22.8326 0 -3.62085)
(14.28 0 -1.55823)
(0.925961 0 0.412573)
(-0.0303622 5.38726e-22 0.0730664)
(-0.0194603 0 0.0680118)
(-0.00114654 1.0921e-21 0.0679296)
(0.00769504 0 0.07245)
(0.0207196 1.36015e-21 0.0732949)
(0.0338521 0 0.0637129)
(0.0393185 -1.72502e-21 0.0484414)
(0.0394866 3.67744e-21 0.0394301)
(0.0414253 7.6203e-21 0.0434746)
(0.0484224 1.09624e-23 0.0558557)
(0.0577107 0 0.0651744)
(0.0640293 0 0.0637944)
(0.0647772 0 0.0529713)
(0.0613382 0 0.0396183)