/*--------------------------------*- C++ -*----------------------------------*\
| =========                 |                                                 |
| \\      /  F ield         | OpenFOAM: The Open Source CFD Toolbox           |
|  \\    /   O peration     | Version:  2412                                  |
|   \\  /    A nd           | Website:  www.openfoam.com                      |
|    \\/     M anipulation  |                                                 |
\*---------------------------------------------------------------------------*/
FoamFile
{
    version     2.0;
    format      ascii;
    arch        "LSB;label=32;scalar=64";
    class       surfaceScalarField;
    location    "1";
    object      ddtCorrDdt0(phi);
}
// * * * * * * * * * * * * * * * * * * * * * * * * * * * * * * * * * * * * * //

dimensions      [0 3 -2 0 0 0 0];

oriented        oriented;

internalField   nonuniform List<scalar> 
24930
(
7.28853e-05
6.40668e-05
8.00437e-05
8.12187e-05
1.24381e-05
8.01831e-05
3.05877e-05
7.28854e-05
4.45195e-05
6.29396e-05
3.97164e-05
5.49295e-05
2.68774e-05
5.30297e-05
1.62172e-05
5.37279e-05
1.36895e-05
5.43822e-05
1.44392e-05
5.29174e-05
1.55722e-05
4.98277e-05
1.49487e-05
4.64226e-05
1.30526e-05
4.33865e-05
1.10476e-05
4.04834e-05
9.51593e-06
3.7015e-05
8.42058e-06
3.23608e-05
7.56899e-06
2.62599e-05
6.88326e-06
1.88372e-05
6.35896e-06
1.04954e-05
5.94258e-06
1.77315e-06
5.50635e-06
-6.77981e-06
4.91616e-06
-1.46921e-05
4.10521e-06
-2.16175e-05
3.09517e-06
-2.73333e-05
1.9653e-06
-3.16986e-05
8.01292e-07
-3.46041e-05
-3.41495e-07
-3.59499e-05
-1.44087e-06
-3.56748e-05
-2.47628e-06
-3.38241e-05
-3.3931e-06
-3.06139e-05
-4.09261e-06
-2.64476e-05
-4.4635e-06
-2.18734e-05
-4.4257e-06
-1.74926e-05
-3.97135e-06
-1.38655e-05
-3.16047e-06
-1.14297e-05
-2.10375e-06
-1.04642e-05
-9.11239e-07
-1.10499e-05
3.09476e-07
-1.30711e-05
1.4892e-06
-1.61821e-05
2.5488e-06
-1.98555e-05
3.45096e-06
-2.33892e-05
4.12636e-06
-2.60669e-05
4.59259e-06
-2.71965e-05
4.82144e-06
-2.63425e-05
4.93127e-06
-2.32648e-05
4.92629e-06
-1.8146e-05
5.01812e-06
-1.13249e-05
5.17923e-06
-3.54267e-06
5.68802e-06
4.5672e-06
6.38367e-06
1.20852e-05
7.57747e-06
1.85647e-05
8.8512e-06
2.33062e-05
1.05524e-05
2.63993e-05
1.19288e-05
2.74776e-05
1.34928e-05
2.72033e-05
1.41578e-05
2.53232e-05
1.4852e-05
2.2856e-05
1.41869e-05
1.92716e-05
1.37696e-05
1.57661e-05
1.17579e-05
1.12434e-05
1.06238e-05
7.08707e-06
7.72397e-06
1.48885e-06
6.59706e-06
-3.71847e-06
3.27585e-06
-1.10175e-05
2.72143e-06
-1.75756e-05
-8.81277e-07
-2.6344e-05
-4.55145e-07
-3.27449e-05
-4.13308e-06
-4.02171e-05
-1.85969e-06
-4.21724e-05
-5.08775e-06
-4.36647e-05
-3.58123e-07
-3.70059e-05
-4.17039e-06
-3.10763e-05
8.79156e-07
-1.7881e-05
-7.0764e-06
-1.11106e-05
-2.99384e-06
-6.56915e-07
-1.29581e-05
-3.58886e-06
-5.53786e-06
-3.34577e-06
-1.18774e-05
-1.88825e-05
5.64087e-06
-2.57631e-05
4.39396e-06
-4.4381e-05
2.68468e-05
-4.96762e-05
1.16211e-05
-5.73105e-05
2.95362e-05
-6.30977e-05
-1.14304e-05
-5.0243e-05
8.12399e-06
-6.30001e-05
-1.99946e-05
-3.08208e-05
4.81976e-05
-4.13951e-05
1.89758e-05
5.61075e-06
0.000231558
0.000241045
-0.000162941
-0.000348016
-0.000224812
0.000287746
0.000124834
0.000212791
7.36751e-05
-0.000333857
0.00312912
-0.000202387
-0.000167357
-0.000256256
0.00667322
0.0021921
-0.00204453
-0.00249824
0.00452137
0.000430391
-0.00311918
0.00214206
-0.0018179
-0.00275573
0.00506196
0.00187205
-0.00530307
-0.00426208
-0.00131453
0.00369705
-0.00823918
1.21562e-05
0.00407876
-0.00581958
0.00648198
0.00782896
-0.0155078
-0.0104135
0.0182468
0.0049245
-0.0161004
0.00328355
0.00227088
-0.0166199
0.0217046
0.0154717
-0.0118617
-0.00687423
0.0233911
-0.0183737
0.0098682
0.0252064
-0.0432079
0.00286397
0.0234463
-0.0133616
0.0152154
0.00495611
-0.0183518
0.00722106
-0.00202484
0.00400111
0.00239208
0.00118084
1.55156e-05
1.06664e-05
6.76639e-05
7.82247e-05
9.88307e-06
0.000111225
6.0433e-05
0.000118058
9.15194e-05
0.000111536
8.40712e-05
0.000111118
5.61022e-05
0.000119681
3.44726e-05
0.000130292
3.06253e-05
0.000134252
3.72828e-05
0.000130787
4.29503e-05
0.000123625
4.23109e-05
0.000116368
3.71322e-05
0.000110176
3.10795e-05
0.000104239
2.6135e-05
9.72133e-05
2.24592e-05
8.81647e-05
1.96851e-05
7.68194e-05
1.76479e-05
6.34747e-05
1.62682e-05
4.8823e-05
1.52822e-05
3.3743e-05
1.42687e-05
1.90756e-05
1.28844e-05
5.43428e-06
1.10426e-05
-6.87846e-06
8.90669e-06
-1.78127e-05
6.73619e-06
-2.74055e-05
4.71437e-06
-3.5613e-05
2.87225e-06
-4.22467e-05
1.14117e-06
-4.70536e-05
-5.17422e-07
-4.98778e-05
-2.01853e-06
-5.0797e-05
-3.15908e-06
-5.01533e-05
-3.71836e-06
-4.84817e-05
-3.55394e-06
-4.63782e-05
-2.66897e-06
-4.43946e-05
-1.1729e-06
-4.29695e-05
7.56913e-07
-4.24227e-05
2.9741e-06
-4.29173e-05
5.32503e-06
-4.44516e-05
7.72029e-06
-4.67712e-05
1.00036e-05
-4.9402e-05
1.21064e-05
-5.16171e-05
1.38619e-05
-5.26547e-05
1.53278e-05
-5.1739e-05
1.64078e-05
-4.84159e-05
1.73517e-05
-4.24191e-05
1.80331e-05
-3.4029e-05
1.88254e-05
-2.3647e-05
1.94218e-05
-1.22399e-05
2.0338e-05
-5.48875e-07
2.09724e-05
1.01954e-05
2.20799e-05
1.9491e-05
2.263e-05
2.63093e-05
2.37651e-05
3.08385e-05
2.38806e-05
3.23888e-05
2.47557e-05
3.1949e-05
2.39805e-05
2.89078e-05
2.43181e-05
2.48513e-05
2.23e-05
1.87571e-05
2.20786e-05
1.26707e-05
1.86098e-05
4.73904e-06
1.79793e-05
-2.52596e-06
1.30164e-05
-1.21715e-05
1.24868e-05
-2.09021e-05
6.18642e-06
-3.3079e-05
6.45691e-06
-4.38107e-05
-1.15143e-06
-5.85828e-05
5.78469e-07
-6.96911e-05
-8.4282e-06
-8.38168e-05
-4.12015e-06
-8.97506e-05
-1.41062e-05
-9.68484e-05
-5.54853e-06
-9.10765e-05
-1.67516e-05
-8.75877e-05
-3.81231e-06
-7.04485e-05
-1.87084e-05
-6.30181e-05
-9.25011e-07
-4.50087e-05
-1.90985e-05
-4.81585e-05
9.45959e-06
-4.0179e-05
-1.12272e-05
-6.18212e-05
3.3033e-05
-6.24126e-05
5.56022e-06
-9.36962e-05
5.29589e-05
-9.54875e-05
1.33867e-05
-0.000111306
2.88864e-05
-0.000131224
2.29277e-05
-9.54499e-05
-6.12076e-05
-0.000169387
6.76291e-05
-6.48655e-05
-0.000139958
-0.000226371
0.0001762
7.56188e-05
-0.000275542
0.000449366
-0.000492428
-0.00117302
0.00210262
0.000907866
-0.00283159
0.000281108
0.000629381
-0.000809952
0.00127662
-0.00104027
0.00011589
-0.000310664
-0.000159269
0.00552688
-0.00773538
-0.00730648
0.0174294
0.00207784
-0.0119783
0.00503067
-0.00473457
-0.00527035
0.0146632
0.00495781
-0.0150981
-0.0120705
0.023979
0.0129121
-0.0333978
-0.00221697
0.0192234
-0.0125279
0.0159539
0.0232477
-0.0488841
-0.0303582
0.0711257
0.018324
-0.0650251
0.00321776
0.0175961
-0.0472566
0.069807
0.0528542
-0.134141
-0.0237761
0.100128
-0.0496428
0.0363395
0.0749316
-0.167751
0.00480712
0.0931308
-0.0356567
0.0562372
0.0179827
-0.0718882
0.0222249
-0.00643678
0.0112358
0.0137641
0.00743516
-3.58116e-05
8.2204e-06
7.26333e-05
2.42395e-05
1.08402e-05
6.90102e-05
7.31761e-05
8.66765e-05
0.000116806
9.2378e-05
0.000108157
0.000105519
6.76689e-05
0.000129924
3.55938e-05
0.000153467
3.42237e-05
0.000164772
5.24882e-05
0.000163311
6.80225e-05
0.000155602
6.99334e-05
0.000147776
6.15259e-05
0.000141863
5.06156e-05
0.000136714
4.18133e-05
0.000130393
3.57167e-05
0.000121611
3.15179e-05
0.000109961
2.87151e-05
9.57423e-05
2.70288e-05
7.97546e-05
2.59012e-05
6.30653e-05
2.45602e-05
4.66995e-05
2.24685e-05
3.13517e-05
1.96252e-05
1.72533e-05
1.64839e-05
4.26948e-06
1.35955e-05
-7.82646e-06
1.12487e-05
-1.90738e-05
9.35363e-06
-2.92182e-05
7.61544e-06
-3.78362e-05
5.84104e-06
-4.45788e-05
4.12014e-06
-4.93642e-05
2.7762e-06
-5.24132e-05
2.1499e-06
-5.41512e-05
2.42827e-06
-5.5055e-05
3.56184e-06
-5.55537e-05
5.36969e-06
-5.59889e-05
7.62341e-06
-5.66444e-05
1.01993e-05
-5.77216e-05
1.2982e-05
-5.93239e-05
1.59507e-05
-6.13359e-05
1.89401e-05
-6.34294e-05
2.18974e-05
-6.50049e-05
2.45782e-05
-6.54152e-05
2.70914e-05
-6.39734e-05
2.92527e-05
-6.03049e-05
3.14127e-05
-5.41809e-05
3.32317e-05
-4.59089e-05
3.51764e-05
-3.58593e-05
3.65427e-05
-2.49823e-05
3.80451e-05
-1.39411e-05
3.85433e-05
-3.95192e-06
3.92954e-05
4.5761e-06
3.85876e-05
1.05823e-05
3.85355e-05
1.43424e-05
3.65972e-05
1.50571e-05
3.61075e-05
1.38163e-05
3.31464e-05
9.81467e-06
3.27102e-05
4.79628e-06
2.88744e-05
-2.52294e-06
2.88534e-05
-9.7967e-06
2.37292e-05
-1.92279e-05
2.39513e-05
-2.7856e-05
1.67785e-05
-3.92829e-05
1.73794e-05
-4.96037e-05
7.73679e-06
-6.40306e-05
9.4607e-06
-7.67636e-05
-2.8433e-06
-9.44543e-05
1.21598e-06
-0.000107974
-1.3623e-05
-0.000125587
-4.67545e-06
-0.000133985
-2.04745e-05
-0.000144737
-2.56558e-06
-0.000140798
-1.874e-05
-0.000140539
9.12573e-06
-0.000123863
-1.24932e-05
-0.000119169
2.28126e-05
-0.000100044
-1.10378e-05
-0.000106935
3.57548e-05
-9.6255e-05
-1.55883e-05
-0.00012511
5.24289e-05
-0.000120197
-2.18522e-05
-0.0001631
6.54572e-05
-0.00015752
-2.24086e-05
-0.000179755
2.66534e-05
-0.000209697
3.74582e-05
-0.000141778
-0.000126178
-0.000286917
0.000214467
-7.52678e-05
-0.000325577
-0.000408005
0.000560167
9.93674e-05
-0.000750887
0.000569605
-0.000899022
-0.00204501
0.00476005
0.00165309
-0.00648244
0.00014138
0.00209498
-0.00128343
0.00289471
-0.00200978
0.00080371
-0.000234558
-0.00202232
0.00860516
-0.0161634
-0.0125273
0.0388805
0.00454646
-0.0286663
0.00727502
-0.00747747
-0.00723972
0.0291257
0.00804846
-0.0304916
-0.0198398
0.050213
0.0236754
-0.0770276
-0.00598534
0.0489609
-0.0180472
0.0278194
0.0389292
-0.106166
-0.0507954
0.161159
0.039625
-0.155668
-0.00111352
0.0584956
-0.0786881
0.147798
0.0950539
-0.306131
-0.0435648
0.238827
-0.0789294
0.071666
0.125644
-0.37249
0.00299836
0.215863
-0.054986
0.113995
0.0322725
-0.159672
0.0374718
-0.0113078
0.0180502
0.0331169
0.0170359
-5.66297e-05
2.74773e-05
7.52342e-05
-1.25731e-05
2.83355e-05
2.46599e-05
8.22235e-05
4.58855e-05
0.000128341
5.73929e-05
0.000121713
7.7599e-05
7.18266e-05
0.000111063
2.90921e-05
0.000144992
2.90689e-05
0.000164938
6.04577e-05
0.000167838
8.98825e-05
0.000161069
9.75273e-05
0.000153309
8.64988e-05
0.000148246
6.97036e-05
0.000144797
5.60381e-05
0.000140398
4.72418e-05
0.000133264
4.18706e-05
0.000122776
3.87486e-05
0.00010916
3.72347e-05
9.32504e-05
3.63836e-05
7.62696e-05
3.49751e-05
5.94561e-05
3.2238e-05
4.3668e-05
2.83206e-05
2.91686e-05
2.41047e-05
1.57159e-05
2.0567e-05
2.91509e-06
1.81491e-05
-9.38313e-06
1.65658e-05
-2.09067e-05
1.51546e-05
-3.11154e-05
1.34607e-05
-3.95317e-05
1.1566e-05
-4.60001e-05
9.97144e-06
-5.07229e-05
9.19942e-06
-5.41241e-05
9.50553e-06
-5.66587e-05
1.07822e-05
-5.871e-05
1.27613e-05
-6.05689e-05
1.51673e-05
-6.24935e-05
1.79311e-05
-6.46929e-05
2.10162e-05
-6.73075e-05
2.45053e-05
-7.02604e-05
2.82322e-05
-7.32527e-05
3.21544e-05
-7.56881e-05
3.59261e-05
-7.6921e-05
3.97004e-05
-7.62567e-05
4.31843e-05
-7.33364e-05
4.68334e-05
-6.79327e-05
5.00572e-05
-6.03846e-05
5.34199e-05
-5.1058e-05
5.57633e-05
-4.09467e-05
5.80316e-05
-3.06942e-05
5.84783e-05
-2.15778e-05
5.89431e-05
-1.39579e-05
5.69336e-05
-8.97927e-06
5.56813e-05
-6.27698e-06
5.15582e-05
-6.77976e-06
4.96825e-05
-9.25153e-06
4.43729e-05
-1.46989e-05
4.32053e-05
-2.11452e-05
3.73841e-05
-3.01607e-05
3.76898e-05
-3.90187e-05
3.06799e-05
-5.03468e-05
3.19487e-05
-6.06496e-05
2.22426e-05
-7.42093e-05
2.43228e-05
-8.63826e-05
1.09683e-05
-0.000103395
1.47941e-05
-0.000118327
-2.62936e-06
-0.000139212
4.7646e-06
-0.000155196
-1.65482e-05
-0.000176456
-1.65409e-06
-0.000187198
-2.44576e-05
-0.000201705
4.19125e-06
-0.000199441
-1.92477e-05
-0.000202728
2.49911e-05
-0.000186657
-6.68345e-06
-0.000185647
4.91449e-05
-0.000166164
-4.10331e-06
-0.000178603
6.75186e-05
-0.000166377
-2.07436e-05
-0.000204904
8.34123e-05
-0.000195106
-5.17381e-05
-0.000252486
9.52951e-05
-0.000238405
-6.43542e-05
-0.000270291
3.57793e-05
-0.000308034
6.05954e-05
-0.000209322
-0.000222798
-0.000429076
0.000437937
-0.000102367
-0.000629271
-0.000637236
0.00114309
0.000111475
-0.0014552
0.000568004
-0.001302
-0.00296452
0.00838465
0.00250752
-0.011908
-0.00019153
0.00476021
-0.00173937
0.00445265
-0.00295376
0.00200316
-6.65644e-05
-0.0049068
0.0113719
-0.0271397
-0.0179992
0.0683053
0.00793758
-0.0541724
0.00886262
-0.00843029
-0.00972055
0.0476796
0.0111177
-0.0513965
-0.0275315
0.089718
0.035901
-0.140535
-0.0113268
0.0962072
-0.0237187
0.0400074
0.0541291
-0.184223
-0.0711138
0.286353
0.040188
-0.266756
-0.00967404
0.108132
-0.110637
0.248984
0.141168
-0.558868
-0.0652525
0.445233
-0.105259
0.111689
0.175003
-0.652743
-0.00271452
0.393463
-0.0700013
0.181075
0.0638472
-0.293596
0.0522844
0.000245808
0.0243416
0.0609869
0.0307929
-6.32368e-05
5.06639e-05
7.81117e-05
-2.99156e-05
4.84981e-05
-7.17686e-07
8.75989e-05
2.34104e-05
0.000130861
4.00364e-05
0.000129095
5.97515e-05
7.83422e-05
9.06319e-05
2.7974e-05
0.000126273
2.4721e-05
0.00015205
6.44341e-05
0.000160412
0.000107614
0.000155821
0.000123984
0.000147905
0.000112449
0.000142589
8.96333e-05
0.000139785
6.99865e-05
0.000136636
5.77117e-05
0.000130844
5.09421e-05
0.000121513
4.75593e-05
0.000108701
4.64327e-05
9.31309e-05
4.61804e-05
7.60601e-05
4.50018e-05
5.89227e-05
4.17482e-05
4.28239e-05
3.66772e-05
2.81929e-05
3.1184e-05
1.47835e-05
2.68348e-05
2.03928e-06
2.43642e-05
-1.03818e-05
2.32999e-05
-2.22885e-05
2.24786e-05
-3.30787e-05
2.10293e-05
-4.21604e-05
1.89704e-05
-4.9315e-05
1.70389e-05
-5.47595e-05
1.60294e-05
-5.89677e-05
1.63155e-05
-6.24232e-05
1.77251e-05
-6.54969e-05
1.98762e-05
-6.84417e-05
2.24332e-05
-7.14825e-05
2.5398e-05
-7.48124e-05
2.88378e-05
-7.85741e-05
3.29616e-05
-8.26862e-05
3.7597e-05
-8.68337e-05
4.26974e-05
-9.03756e-05
4.77806e-05
-9.26263e-05
5.30386e-05
-9.28461e-05
5.80506e-05
-9.06743e-05
6.34023e-05
-8.58747e-05
6.82284e-05
-7.88334e-05
7.32285e-05
-6.99289e-05
7.67424e-05
-6.02431e-05
8.00086e-05
-5.04304e-05
8.05914e-05
-4.1887e-05
8.10171e-05
-3.49438e-05
7.78676e-05
-3.08835e-05
7.56578e-05
-2.92406e-05
6.944e-05
-3.11191e-05
6.63943e-05
-3.50861e-05
5.87155e-05
-4.23931e-05
5.70043e-05
-5.07371e-05
4.90361e-05
-6.20372e-05
4.98368e-05
-7.30581e-05
4.0595e-05
-8.6965e-05
4.30944e-05
-9.95592e-05
3.03347e-05
-0.000115983
3.42249e-05
-0.00013062
1.65071e-05
-0.000150971
2.30469e-05
-0.00016866
-3.41508e-07
-0.000193486
1.13311e-05
-0.000212399
-1.76475e-05
-0.000238043
4.57459e-06
-0.00025148
-2.6868e-05
-0.000270479
1.45107e-05
-0.000270118
-1.85169e-05
-0.000277744
4.48444e-05
-0.000262422
-2.00167e-07
-0.000266103
8.0434e-05
-0.000246421
3.17534e-06
-0.000265837
0.000107017
-0.000252197
-2.65028e-05
-0.00030244
0.00012702
-0.000287489
-8.60004e-05
-0.000362349
0.000143039
-0.000338405
-0.000116359
-0.000384371
5.81972e-05
-0.000427678
8.74769e-05
-0.000301756
-0.000349038
-0.000597947
0.000735968
-0.000150266
-0.001054
-0.000899108
0.00193817
0.000127127
-0.00242743
0.000595876
-0.00171119
-0.00319665
0.0122603
0.00344334
-0.0185268
-0.000733233
0.00890575
-0.00213175
0.00577519
-0.00384195
0.00371143
0.000183926
-0.00888123
0.0137881
-0.0402226
-0.0235501
0.106067
0.0122409
-0.0895002
0.00970465
-0.0059403
-0.0126371
0.0699378
0.0140222
-0.0781065
-0.0350293
0.138625
0.0494497
-0.225054
-0.0180768
0.163716
-0.029447
0.0511409
0.0678412
-0.281569
-0.0914123
0.450886
0.0653434
-0.423837
-0.0221299
0.195962
-0.14289
0.369738
0.189431
-0.891447
-0.087492
0.722053
-0.127163
0.151211
0.220574
-1.00025
-0.0123709
0.626428
-0.0792585
0.247691
0.0850714
-0.457914
0.0660788
0.019198
0.0300227
0.0969351
0.0492336
-6.42803e-05
6.78662e-05
8.07244e-05
-3.34738e-05
6.444e-05
-9.19116e-06
9.1656e-05
1.78663e-05
0.000128852
3.97324e-05
0.000132874
5.71377e-05
9.0111e-05
7.81131e-05
3.94286e-05
0.000105929
2.99041e-05
0.00013205
6.88874e-05
0.000145796
0.00012029
0.000145677
0.000146162
0.000138849
0.000137509
0.000132728
0.000110533
0.000129236
8.46822e-05
0.000126142
6.80561e-05
0.000120946
5.92302e-05
0.000112509
5.518e-05
0.000100632
5.4284e-05
8.56992e-05
5.48049e-05
6.87486e-05
5.42546e-05
5.12728e-05
5.08451e-05
3.46561e-05
4.47357e-05
1.96568e-05
3.77915e-05
6.21078e-06
3.23112e-05
-6.32587e-06
2.95777e-05
-1.85725e-05
2.9101e-05
-3.05685e-05
2.91508e-05
-4.17349e-05
2.82175e-05
-5.13481e-05
2.60972e-05
-5.90668e-05
2.37768e-05
-6.50901e-05
2.24378e-05
-6.99517e-05
2.26625e-05
-7.41906e-05
2.42225e-05
-7.81816e-05
2.65839e-05
-8.21348e-05
2.93193e-05
-8.62252e-05
3.25087e-05
-9.06099e-05
3.63494e-05
-9.54213e-05
4.12115e-05
-0.000100571
4.69208e-05
-0.000105733
5.34213e-05
-0.000110229
6.0056e-05
-0.00011334
6.70475e-05
-0.000114282
7.38174e-05
-0.0001127
8.11096e-05
-0.000108353
8.77492e-05
-0.000101686
9.46191e-05
-9.30879e-05
9.94932e-05
-8.37476e-05
0.000103991
-7.43218e-05
0.000104883
-6.63498e-05
0.000105525
-6.01155e-05
0.000101393
-5.70717e-05
9.8508e-05
-5.66189e-05
9.03087e-05
-6.00828e-05
8.63973e-05
-6.57781e-05
7.63757e-05
-7.5266e-05
7.44313e-05
-8.58279e-05
6.41876e-05
-9.98301e-05
6.5776e-05
-0.0001134
5.39344e-05
-0.00013039
5.79567e-05
-0.000145712
4.1525e-05
-0.000165584
4.76609e-05
-0.000183147
2.47577e-05
-0.000207489
3.47682e-05
-0.000228393
4.34466e-06
-0.000257878
2.14892e-05
-0.000280163
-1.66052e-05
-0.000310999
1.47442e-05
-0.000327549
-2.72769e-05
-0.00035196
2.94263e-05
-0.000353863
-1.59653e-05
-0.000366877
6.99802e-05
-0.000352589
7.41552e-06
-0.000362223
0.000117822
-0.000342567
1.05605e-05
-0.000370572
0.000155102
-0.000355594
-3.3532e-05
-0.000419734
0.000184837
-0.000399256
-0.000125018
-0.000494841
0.000212564
-0.000459538
-0.000178499
-0.00052474
0.000100615
-0.000570768
0.000116894
-0.000423343
-0.000497341
-0.000795764
0.00110812
-0.000226051
-0.0016011
-0.00119707
0.00295432
0.000133145
-0.00370177
0.000538219
-0.00205302
-0.00455142
0.0174066
0.00438125
-0.0274233
-0.0015044
0.0147592
-0.00240349
0.00664491
-0.00470223
0.00601252
0.000516466
-0.0140248
0.0157809
-0.0549112
-0.0291052
0.15157
0.0173526
-0.13545
0.0097666
0.00158674
-0.0158443
0.0954372
0.016527
-0.110521
-0.0423576
0.19744
0.0640519
-0.331474
-0.0258685
0.253591
-0.0350564
0.0600786
0.0795679
-0.396177
-0.110432
0.615584
0.0930329
-0.627413
-0.0376077
0.326755
-0.174987
0.507053
0.237478
-1.30394
-0.108907
1.06826
-0.14284
0.184965
0.259781
-1.40256
-0.0261273
0.912129
-0.0814862
0.30276
0.109061
-0.648386
0.0782701
0.0499079
0.0350073
0.140073
0.073106
-6.32199e-05
8.0579e-05
8.13187e-05
-3.12378e-05
7.79557e-05
-9.70723e-06
9.73214e-05
1.88644e-05
0.00012675
4.49437e-05
0.000135386
6.11444e-05
0.000105866
7.23793e-05
6.20696e-05
8.81456e-05
4.72309e-05
0.000109523
7.74414e-05
0.00012696
0.000128412
0.000133204
0.000161216
0.000129903
0.000158485
0.000123659
0.000131146
0.000118513
0.000100654
0.000113983
7.94218e-05
0.00010812
6.77236e-05
9.98439e-05
6.21323e-05
8.87749e-05
6.07615e-05
7.47916e-05
6.18354e-05
5.83669e-05
6.22483e-05
4.07395e-05
5.92788e-05
2.34472e-05
5.25952e-05
7.67959e-06
4.42636e-05
-6.18242e-06
3.73023e-05
-1.86425e-05
3.38391e-05
-3.05883e-05
3.37613e-05
-4.24727e-05
3.49003e-05
-5.39156e-05
3.488e-05
-6.40907e-05
3.29646e-05
-7.24518e-05
3.02884e-05
-7.91014e-05
2.8535e-05
-8.46224e-05
2.8649e-05
-8.96452e-05
3.03984e-05
-9.4582e-05
3.3055e-05
-9.96049e-05
3.60384e-05
-0.000104821
3.94933e-05
-0.000110325
4.37696e-05
-0.000116224
4.94454e-05
-0.00012242
5.63656e-05
-0.00012859
6.44751e-05
-0.000134027
7.2902e-05
-0.000137993
8.18903e-05
-0.000139662
9.06603e-05
-0.000138692
0.000100147
-0.000134833
0.000108819
-0.000128604
0.000117803
-0.000120398
0.000124223
-0.000111524
0.000130189
-0.000102626
0.000131547
-9.54069e-05
0.000132668
-9.00778e-05
0.000127691
-8.82946e-05
0.000124436
-8.92792e-05
0.000114357
-9.46311e-05
0.000109934
-0.000102342
9.75848e-05
-0.000114362
9.57917e-05
-0.000127454
8.31166e-05
-0.000144558
8.58823e-05
-0.000161017
7.10153e-05
-0.000181555
7.69759e-05
-0.000199975
5.61491e-05
-0.000223842
6.51274e-05
-0.000244728
3.60506e-05
-0.000273695
5.05132e-05
-0.000298222
1.175e-05
-0.000333109
3.58964e-05
-0.000359179
-1.3077e-05
-0.000396093
2.96966e-05
-0.000416162
-2.52682e-05
-0.000447027
5.00602e-05
-0.000451548
-1.10629e-05
-0.000471174
0.000101886
-0.000458201
1.67663e-05
-0.000475307
0.000163122
-0.000455895
1.84496e-05
-0.000494465
0.000213742
-0.000478211
-4.1971e-05
-0.00055891
0.000259123
-0.000532524
-0.000169673
-0.000652692
0.000307234
-0.000604493
-0.000252612
-0.000695021
0.000169034
-0.00074032
0.000145596
-0.000579062
-0.000659686
-0.00102515
0.00155238
-0.000335725
-0.00226808
-0.00153195
0.00419573
0.000115743
-0.00529048
0.000378404
-0.00224868
-0.00546233
0.0232912
0.00576823
-0.0386148
-0.00255536
0.0230402
-0.00250663
0.00635127
-0.00558009
0.00908935
0.000933567
-0.0204428
0.0173621
-0.0707073
-0.0344889
0.20368
0.02309
-0.192478
0.00909316
0.0155106
-0.0190798
0.123474
0.0184227
-0.14806
-0.049574
0.265343
0.0792924
-0.460323
-0.0342281
0.367037
-0.0402821
0.0658656
0.0889304
-0.525342
-0.129574
0.85896
0.123803
-0.8808
-0.0547004
0.505323
-0.206351
0.65859
0.282272
-1.79241
-0.128667
1.47896
-0.15047
0.206555
0.290722
-1.84337
-0.0445681
1.2476
-0.0763331
0.334219
0.133842
-0.858461
0.0884274
0.0952193
0.039202
0.189159
0.103413
-6.25219e-05
9.22864e-05
8.13591e-05
-2.82215e-05
9.12617e-05
-8.08351e-06
0.000105542
1.9926e-05
0.000127489
4.77228e-05
0.000138662
6.4315e-05
0.000122647
7.02224e-05
8.98105e-05
7.66383e-05
7.24776e-05
9.11758e-05
9.09725e-05
0.000109791
0.000133624
0.000122279
0.000168607
0.000124424
0.000172896
0.000119555
0.000149469
0.000112615
0.000117608
0.000105351
9.27521e-05
9.71837e-05
7.77767e-05
8.76249e-05
6.96478e-05
7.64764e-05
6.66075e-05
6.32422e-05
6.73817e-05
4.76083e-05
6.86647e-05
3.01431e-05
6.67024e-05
1.21778e-05
6.02264e-05
-4.79341e-06
5.10043e-05
-1.97486e-05
4.24424e-05
-3.26641e-05
3.76262e-05
-4.44554e-05
3.73692e-05
-5.60877e-05
3.95393e-05
-6.7655e-05
4.08445e-05
-7.83909e-05
3.95929e-05
-8.75031e-05
3.67547e-05
-9.4878e-05
3.45456e-05
-0.000101092
3.4487e-05
-0.0001069
3.64776e-05
-0.000112809
3.95765e-05
-0.000118984
4.29569e-05
-0.000125455
4.67758e-05
-0.000132225
5.15366e-05
-0.000139349
5.8079e-05
-0.000146705
6.63036e-05
-0.000153979
7.61893e-05
-0.000160448
8.66165e-05
-0.000165366
9.78467e-05
-0.000167862
0.000108842
-0.000167618
0.00012077
-0.000164367
0.000131684
-0.000158719
0.000143031
-0.00015106
0.00015118
-0.000142839
0.000158865
-0.000134665
0.000160835
-0.000128438
0.000162711
-0.000124263
0.000157015
-0.000124046
0.000153724
-0.000126774
0.000141842
-0.000134385
0.000137305
-0.000144459
0.000122604
-0.00015943
0.00012141
-0.000175417
0.000106092
-0.000196091
0.000110532
-0.000215825
9.2143e-05
-0.000240449
0.000100618
-0.000262382
7.45607e-05
-0.000290867
8.71943e-05
-0.000315508
5.07695e-05
-0.000349821
7.09556e-05
-0.000378411
2.22672e-05
-0.000419555
5.53581e-05
-0.00044986
-6.65656e-06
-0.00049388
5.04261e-05
-0.000517904
-2.04104e-05
-0.000556439
7.76774e-05
-0.000563952
-3.31249e-06
-0.000591646
0.000142244
-0.000580278
2.84738e-05
-0.000606696
0.000218571
-0.000587746
2.7446e-05
-0.000639294
0.000285612
-0.000621827
-5.17164e-05
-0.000722336
0.000352882
-0.000689689
-0.000220841
-0.000839063
0.000430993
-0.000776489
-0.000340821
-0.000899521
0.000270186
-0.00094023
0.000169671
-0.000775029
-0.000825909
-0.00129
0.00206459
-0.00048742
-0.00304777
-0.00190795
0.00566245
6.2237e-05
-0.00719799
0.000114514
-0.00223013
-0.00631406
0.029756
0.00648339
-0.0513721
-0.00354665
0.0330287
-0.0022626
0.00516505
-0.00656754
0.0133976
0.00148321
-0.0283828
0.0183847
-0.0869192
-0.0396605
0.262344
0.0291591
-0.26071
0.00780001
0.0367816
-0.0219958
0.153114
0.0195442
-0.189631
-0.0567683
0.341524
0.094606
-0.611653
-0.0426861
0.504228
-0.0448306
0.067729
0.0938088
-0.663912
-0.149025
1.09613
0.157225
-1.18698
-0.0716422
0.734193
-0.236099
0.822901
0.320529
-2.34882
-0.146952
1.94615
-0.148697
0.208064
0.312633
-2.30426
-0.0683935
1.62792
-0.0648951
0.330403
0.158334
-1.08158
0.0963256
0.157106
0.0424611
0.242874
0.141415
-6.30365e-05
0.000103897
8.23647e-05
-2.62759e-05
0.000104417
-6.69613e-06
0.000115387
1.93828e-05
0.000131478
4.64807e-05
0.000143474
6.41869e-05
0.000137969
6.9797e-05
0.000116225
7.21874e-05
9.93542e-05
8.15437e-05
0.000107195
9.89283e-05
0.000137908
0.000115492
0.000170168
0.000123152
0.000180327
0.000121042
0.000163723
0.000113226
0.000134221
0.000103087
0.000107818
9.16959e-05
9.0003e-05
7.95088e-05
7.88332e-05
6.69452e-05
7.29829e-05
5.36281e-05
7.21565e-05
3.86442e-05
7.3565e-05
2.16525e-05
7.27487e-05
3.30963e-06
6.72874e-05
-1.50249e-05
5.81256e-05
-3.18069e-05
4.84109e-05
-4.6134e-05
4.18345e-05
-5.84241e-05
4.05166e-05
-6.99536e-05
4.31674e-05
-8.15286e-05
4.59728e-05
-9.27779e-05
4.59578e-05
-0.000102768
4.33828e-05
-0.000111055
4.07995e-05
-0.00011808
4.04998e-05
-0.000124703
4.2756e-05
-0.000131598
4.64733e-05
-0.000138983
5.04793e-05
-0.000146834
5.48423e-05
-0.00015504
6.01781e-05
-0.00016357
6.76311e-05
-0.00017225
7.72024e-05
-0.000180769
8.89648e-05
-0.000188389
0.000101534
-0.000194375
0.000115204
-0.000197817
0.000128613
-0.000198428
0.000143209
-0.000195921
0.000156555
-0.000191011
0.000170522
-0.000184068
0.000180584
-0.0001767
0.00019026
-0.000169458
0.000192986
-0.000164475
0.000195926
-0.000161717
0.000189625
-0.000163396
0.000186679
-0.000168203
0.000173053
-0.00017849
0.00016886
-0.000191315
0.000151737
-0.000209719
0.00015167
-0.000229018
0.00013343
-0.000253809
0.000140172
-0.000277268
0.000117675
-0.000306612
0.000129438
-0.000332542
9.71762e-05
-0.000366383
0.000114543
-0.000395278
6.93669e-05
-0.00043579
9.6904e-05
-0.000468946
3.63618e-05
-0.000517354
8.0847e-05
-0.000552406
3.13618e-06
-0.000604744
7.81257e-05
-0.000633204
-1.22187e-05
-0.000680858
0.000113763
-0.000691764
7.78396e-06
-0.000729281
0.000192974
-0.000719829
4.30911e-05
-0.000757803
0.000286711
-0.000739533
3.80663e-05
-0.000807025
0.000373904
-0.00078838
-6.26694e-05
-0.000912697
0.000469961
-0.000873434
-0.000279233
-0.00105758
0.000588924
-0.000979239
-0.000445001
-0.00114315
0.000412091
-0.0011752
0.000184981
-0.00101814
-0.000983793
-0.0015953
0.00263849
-0.000690314
-0.00392899
-0.00233048
0.00735051
-4.09293e-05
-0.00942064
-0.000255496
-0.00194089
-0.00711557
0.0366488
0.00714727
-0.0655918
-0.00457984
0.0446959
-0.00246201
0.00300027
-0.00786776
0.0188094
0.00225793
-0.0383906
0.0189531
-0.102872
-0.0450634
0.328022
0.035223
-0.340422
0.00604541
0.0658554
-0.0241594
0.183149
0.0198254
-0.23364
-0.0640029
0.425194
0.109288
-0.784874
-0.0508994
0.66429
-0.0479806
0.0645394
0.0966844
-0.808512
-0.167854
1.36092
0.191446
-1.54616
-0.0866691
1.01227
-0.262963
0.999024
0.349393
-2.96089
-0.165217
2.46043
-0.137067
0.179663
0.326052
-2.76693
-0.0999188
2.05548
-0.0501704
0.280336
0.181623
-1.31325
0.102048
0.236541
0.0445436
0.300221
0.188716
-6.44903e-05
0.000114458
8.43435e-05
-2.59718e-05
0.000116428
-6.71589e-06
0.000125261
1.71816e-05
0.000137272
4.25119e-05
0.000149146
6.1313e-05
0.000150469
6.95489e-05
0.000137572
7.25361e-05
0.000122891
7.95738e-05
0.000123121
9.43646e-05
0.000142515
0.000112049
0.000168672
0.000123489
0.000182227
0.000124571
0.00017311
0.000117297
0.000148668
0.000105506
0.000123005
9.14912e-05
0.00010346
7.6515e-05
8.95647e-05
6.17181e-05
8.04776e-05
4.73745e-05
7.69248e-05
3.25664e-05
7.72844e-05
1.62405e-05
7.7113e-05
-1.86978e-06
7.30698e-05
-2.10863e-05
6.50532e-05
-3.9886e-05
5.53063e-05
-5.65418e-05
4.72894e-05
-7.04102e-05
4.41968e-05
-8.24538e-05
4.63283e-05
-9.41007e-05
5.02809e-05
-0.000105754
5.19416e-05
-0.000116677
5.0274e-05
-0.000126106
4.76374e-05
-0.000134173
4.70962e-05
-0.000141731
4.95918e-05
-0.000149638
5.40679e-05
-0.000158257
5.89652e-05
-0.000167573
6.41375e-05
-0.000177373
7.0213e-05
-0.000187516
7.86495e-05
-0.000197733
8.95796e-05
-0.000207686
0.000103247
-0.000216608
0.000118007
-0.000223792
0.000134237
-0.000228297
0.000150184
-0.000229891
0.000167646
-0.000228264
0.000183594
-0.000224255
0.00020045
-0.000218205
0.000212612
-0.000211907
0.000224589
-0.000205815
0.000228212
-0.000202338
0.000232564
-0.000201262
0.000225769
-0.000205182
0.000223615
-0.000212415
0.000208291
-0.000225829
0.000204985
-0.000241825
0.000185324
-0.000264197
0.000187014
-0.00028727
0.000165492
-0.000316801
0.000175326
-0.00034449
0.000148023
-0.000379292
0.000164084
-0.000409769
0.00012447
-0.000449831
0.00014797
-0.000483551
9.23547e-05
-0.000531259
0.000129306
-0.00056955
5.45581e-05
-0.000626408
0.000113508
-0.000666772
1.68376e-05
-0.000728852
0.000114202
-0.000762271
-1.69506e-07
-0.000820755
0.000160059
-0.000835479
2.27198e-05
-0.000884926
0.000256301
-0.000877697
6.10964e-05
-0.000929956
0.000370479
-0.000912541
5.07012e-05
-0.000999614
0.000482429
-0.000979742
-7.48054e-05
-0.00113278
0.000615214
-0.00108648
-0.000345471
-0.00131209
0.000787427
-0.00121672
-0.000566732
-0.00143114
0.000604113
-0.0014506
0.000187516
-0.00131571
-0.0011193
-0.00194717
0.00326645
-0.000954378
-0.00489694
-0.00280686
0.00925309
-0.000207295
-0.0119487
-0.000735021
-0.00133467
-0.0078721
0.0438176
0.00761036
-0.0810289
-0.00565507
0.0578909
-0.00263256
-7.88936e-05
-0.0102298
0.0264093
0.00305915
-0.051557
0.0190939
-0.1181
-0.0492246
0.479166
0.0409041
-0.430332
0.00398267
0.102656
-0.0250267
0.211977
0.0193301
-0.278014
-0.0712625
0.515611
0.122536
-0.978579
-0.0587529
0.845436
-0.0489134
0.0544219
0.0972986
-0.954655
-0.186928
1.64453
0.224322
-1.95724
-0.0984754
1.33499
-0.285396
1.18575
0.367172
-3.61313
-0.185893
3.01313
-0.116581
0.110088
0.334225
-3.21727
-0.138128
2.52528
-0.0365192
0.178403
0.202942
-1.5526
0.10603
0.333299
0.0451544
0.36093
0.24697
-6.82008e-05
0.000121931
8.91622e-05
-2.84657e-05
0.000125575
-9.04274e-06
0.000133181
1.33749e-05
0.000142708
3.70769e-05
0.000154292
5.66254e-05
0.000159668
6.80678e-05
0.000152921
7.38435e-05
0.000140874
8.07193e-05
0.000136643
9.31976e-05
0.000147109
0.000109468
0.000166434
0.000122281
0.000180661
0.000125892
0.000177876
0.000120219
0.000159454
0.000108525
0.000136152
9.35664e-05
0.000116099
7.69311e-05
0.000100394
6.01534e-05
8.85646e-05
4.43352e-05
8.18992e-05
2.91853e-05
8.01395e-05
1.34864e-05
7.96605e-05
-3.7761e-06
7.68046e-05
-2.28559e-05
7.06262e-05
-4.2917e-05
6.22369e-05
-6.204e-05
5.40005e-05
-7.84304e-05
4.92343e-05
-9.19619e-05
4.98905e-05
-0.000104061
5.40639e-05
-0.000115992
5.73626e-05
-0.000127696
5.72622e-05
-0.000138365
5.51958e-05
-0.000147732
5.46332e-05