/*--------------------------------*- C++ -*----------------------------------*\
| =========                 |                                                 |
| \\      /  F ield         | OpenFOAM: The Open Source CFD Toolbox           |
|  \\    /   O peration     | Version:  2412                                  |
|   \\  /    A nd           | Website:  www.openfoam.com                      |
|    \\/     M anipulation  |                                                 |
\*---------------------------------------------------------------------------*/
FoamFile
{
    version     2.0;
    format      ascii;
    arch        "LSB;label=32;scalar=64";
    class       volScalarField;
    location    "1";
    object      p;
}
// * * * * * * * * * * * * * * * * * * * * * * * * * * * * * * * * * * * * * //

dimensions      [0 2 -2 0 0 0 0];

internalField   nonuniform List<scalar> 
12600
(
-0.0864234
-154.875
-204.933
-201.674
-189.199
-177.602
-167.434
-158.337
-150.095
-142.544
-135.557
-129.037
-122.911
-117.122
-111.623
-106.377
-101.352
-96.5232
-91.8679
-87.3675
-83.0061
-78.7697
-74.6463
-70.6253
-66.6972
-62.8538
-59.0876
-55.392
-51.761
-48.1892
-44.6717
-41.2038
-37.7816
-34.4011
-31.059
-27.7518
-24.4766
-21.2305
-18.0109
-14.8152
-11.6411
-8.48632
-5.34891
-2.22664
0.882058
3.97937
7.06652
10.1457
13.2179
16.2853
19.3484
22.4099
25.4696
28.5306
31.592
34.6575
37.7251
40.7995
43.8774
46.9646
50.0562
53.1592
56.2672
59.3885
62.5145
65.6556
68.8004
71.9613
75.1242
78.3034
81.4818
84.6755
87.8649
91.0672
94.2609
97.4633
100.653
103.845
107.017
110.188
113.32
116.467
119.516
122.652
125.557
128.684
131.452
134.392
137.402
139.3
143.72
143.785
148.858
149.432
152.37
157.046
151.814
166.062
155.409
165.589
167.222
158.721
182.541
155.789
180.171
180.292
154.261
207.239
157.426
185.503
216.161
141.542
230.836
202.508
179.144
232.449
210.441
219.954
207.021
217.321
-24.2393
-123.962
-171.401
-181.013
-177.782
-171.026
-163.266
-155.487
-148.05
-141.028
-134.409
-128.155
-122.227
-116.588
-111.205
-106.05
-101.097
-96.3251
-91.716
-87.2532
-82.9224
-78.7112
-74.6084
-70.6045
-66.6905
-62.8588
-59.1023
-55.4147
-51.7904
-48.224
-44.7109
-41.2467
-37.8274
-34.4493
-31.109
-27.8032
-24.5291
-21.2838
-18.0646
-14.8692
-11.6952
-8.54038
-5.40276
-2.28018
0.828932
3.92673
7.01444
10.0943
13.167
16.2352
19.299
22.3613
25.4217
28.4834
31.5456
34.6118
37.6802
40.7553
43.8341
46.9219
50.0143
53.1181
56.2268
59.3489
62.4756
65.6174
68.7629
71.9245
75.0881
78.268
81.4471
84.6415
87.8316
91.0346
94.229
97.4322
100.622
103.815
106.988
110.16
113.292
116.44
119.49
122.627
125.532
128.66
131.43
134.367
137.385
139.274
143.703
143.769
148.834
149.425
152.337
157.054
151.783
166.043
155.423
165.539
167.254
158.671
182.54
155.817
180.071
180.389
154.186
207.204
157.533
185.3
216.287
141.546
230.612
202.686
179.083
232.321
210.482
219.967
207.034
217.3
-41.0576
-102.52
-145.314
-162.769
-166.084
-163.444
-158.294
-152.137
-145.699
-139.319
-133.132
-127.181
-121.474
-115.999
-110.742
-105.683
-100.807
-96.0956
-91.535
-87.1113
-82.8124
-78.6271
-74.5457
-70.5593
-66.6599
-62.8402
-59.0937
-55.4144
-51.7969
-48.2362
-44.7277
-41.2674
-37.8512
-34.4756
-31.1374
-27.8333
-24.5604
-21.316
-18.0976
-14.9027
-11.729
-8.57428
-5.43668
-2.314
0.795301
3.89337
6.98141
10.0616
13.1348
16.2034
19.2678
22.3305
25.3915
28.4538
31.5165
34.5833
37.6522
40.728
43.8072
46.8957
49.9886
53.093
56.2022
59.3248
62.4521
65.5944
68.7404
71.9025
75.0666
78.247
81.4266
84.6216
87.8121
91.0156
94.2105
97.4141
100.605
103.798
106.971
110.144
113.277
116.425
119.475
122.613
125.519
128.647
131.418
134.355
137.375
139.261
143.695
143.759
148.823
149.42
152.32
157.06
151.765
166.033
155.432
165.51
167.274
158.64
182.543
155.833
180.016
180.443
154.142
207.186
157.593
185.195
216.357
141.535
230.492
202.784
179.039
232.248
210.506
219.974
207.04
217.289
-48.9761
-88.7783
-124.209
-144.73
-152.937
-154.227
-151.917
-147.699
-142.55
-137.031
-131.431
-125.892
-120.48
-115.223
-110.13
-105.198
-100.42
-95.7866
-91.2884
-86.9151
-82.6571
-78.5054
-74.4516
-70.488
-66.6075
-62.8036
-59.0703
-55.402
-51.7937
-48.2407
-44.7387
-41.2837
-37.872
-34.5002
-31.165
-27.8635
-24.5927
-21.35
-18.1329
-14.939
-11.7661
-8.612
-5.4748
-2.35237
0.756822
3.85489
6.94302
10.0234
13.0969
16.1658
19.2305
22.2936
25.355
28.4178
31.4809
34.5482
37.6176
40.6939
43.7736
46.8626
49.9561
53.061
56.1707
59.2939
62.4217
65.5645
68.7111
71.8737
75.0383
78.2192
81.3994
84.5949
87.786
90.99
94.1854
97.3896
100.581
103.775
106.948
110.121
113.255
116.404
119.455
122.593
125.499
128.629
131.4
134.336
137.362
139.24
143.683
143.745
148.804
149.414
152.295
157.066
151.738
166.021
155.44
165.471
167.299
158.595
182.549
155.848
179.941
180.522
154.072
207.17
157.663
185.034
216.476
141.513
230.322
202.933
178.972
232.151
210.545
219.982
207.047
217.27
-54.0256
-80.5237
-107.445
-127.117
-138.225
-142.977
-143.607
-141.649
-138.143
-133.788
-129.011
-124.059
-119.072
-114.129
-109.27
-104.516
-99.8766
-95.3517
-90.9393
-86.6348
-82.4325
-78.3261
-74.3095
-70.3766
-66.5216
-62.7388
-59.0231
-55.3696
-51.7736
-48.231
-44.7377
-41.2901
-37.8846
-34.5179
-31.187
-27.889
-24.6211
-21.3809
-18.1658
-14.9735
-11.8018
-8.64871
-5.51226
-2.39036
0.718467
3.81633
6.90439
9.98481
13.0584
16.1275
19.1925
22.256
25.3177
28.3809
31.4445
34.5123
37.5822
40.659
43.7393
46.8288
49.9228
53.0283
56.1386
59.2623
62.3907
65.5341
68.6812
71.8445
75.0097
78.1911
81.3719
84.5679
87.7596
90.9642
94.1603
97.365
100.557
103.751
106.925
110.099
113.233
116.383
119.434
122.574
125.48
128.611
131.383
134.318
137.349
139.22
143.672
143.731
148.788
149.406
152.271
157.073
151.71
166.011
155.448
165.432
167.326
158.551
182.558
155.86
179.867
180.599
153.997
207.157
157.727
184.879
216.589
141.475
230.153
203.078
178.896
232.051
210.584
219.989
207.053
217.25
-57.3127
-75.4695
-95.0876
-111.969
-123.805
-130.72
-133.763
-133.999
-132.307
-129.36
-125.641
-121.477
-117.076
-112.573
-108.047
-103.547
-99.104
-94.7326
-90.4412
-86.2331
-82.1082
-78.0645
-74.0991
-70.2083
-66.3879
-62.6339
-58.9421
-55.3086
-51.7294
-48.2009
-44.7194
-41.2817
-37.8846
-34.525
-31.2
-27.907
-24.6433
-21.4066
-18.1943
-15.0044
-11.8348
-8.68322
-5.54803
-2.42712
0.680951
3.77826
6.86594
9.94614
13.0196
16.0887
19.1538
22.2175
25.2795
28.343
31.4069
34.4751
37.5455
40.6227
43.7035
46.7935
49.888
52.994
56.1048
59.2291
62.358
65.502
68.6497
71.8135
74.9793
78.1613
81.3426
84.5393
87.7316
90.9368
94.1334
97.3388
100.531
103.726
106.901
110.076
113.21
116.361
119.412
122.553
125.46
128.591
131.365
134.298
137.335
139.199
143.66
143.715
148.769
149.398
152.246
157.081
151.678
166.003
155.455
165.391
167.354
158.501
182.572
155.866
179.789
180.684
153.928
207.15
157.783
184.706
216.729
141.419
229.966
203.236
178.803
231.941
210.63
219.996
207.058
217.227
-58.9335
-71.9564
-86.2928
-99.9939
-111.076
-118.78
-123.327
-125.283
-125.246
-123.746
-121.217
-117.998
-114.338
-110.408
-106.329
-102.177
-98.006
-93.8491
-89.7278
-85.6554
-81.6396
-77.6841
-73.7904
-69.9582
-66.1861
-62.4719
-58.8133
-55.2074
-51.6513
-48.1422
-44.677
-41.253
-37.8674
-34.5176
-31.2008
-27.9148
-24.657
-21.4251
-18.217
-15.0305
-11.8638
-8.71459
-5.58136
-2.46204
0.644762
3.74107
6.82798
9.90762
12.9807
16.0496
19.1145
22.1782
25.2403
28.304
31.3681
34.4366
37.5073
40.5849
43.6661
46.7566
49.8516
52.9581
56.0694
59.1942
62.3237
65.4682
68.6165
71.7809
74.9472
78.1299
81.3118
84.509
87.7019
90.9077
94.1051
97.3111
100.504
103.7
106.875
110.051
113.186
116.338
119.389
122.531
125.438
128.571
131.345
134.278
137.319
139.177
143.647
143.698
148.752
149.389
152.221
157.089
151.644
165.997
155.459
165.347
167.383
158.447
182.591
155.867
179.707
180.774
153.798
207.151
157.828
184.517
216.885
141.343
229.758
203.398
178.694
231.819
210.678
220.002
207.062
217.202
-59.3934
-69.1673
-79.8979
-90.7543
-100.407
-107.951
-113.165
-116.23
-117.468
-117.232
-115.854
-113.629
-110.797
-107.546
-104.014
-100.304
-96.4867
-92.6143
-88.7223
-84.8351
-80.9694
-77.1362
-73.3423
-69.592
-65.8873
-62.2289
-58.6166
-55.0491
-51.5252
-48.043
-44.6005
-41.1955
-37.826
-34.4896
-31.1844
-27.908
-24.6583
-21.4334
-18.2312
-15.0496
-11.887
-8.74124
-5.61089
-2.49396
0.610868
3.70558
6.7912
9.86982
12.9421
16.0104
19.075
22.1384
25.2004
28.264
31.3283
34.3969
37.4678
40.5457
43.6273
46.7181
49.8136
52.9205
56.0323
59.1577
62.2877
65.4327
68.5816
71.7465
74.9134
78.0967
81.2792
84.4771
87.6706
90.8771
94.0751
97.2818
100.475
103.672
106.848
110.024
113.16
116.313
119.365
122.508
125.415
128.549
131.324
134.257
137.303
139.153
143.634
143.68
148.73
149.378
152.194
157.097
151.605
165.993
155.462
165.3
167.415
158.386
182.617
155.861
179.619
180.87
153.701
207.161
157.856
184.307
217.067
141.244
229.523
203.559
178.564
231.681
210.729
220.007
207.063
217.172
-59.1393
-66.7123
-74.9569
-83.5233
-91.6193
-98.5015
-103.789
-107.421
-109.509
-110.245
-109.851
-108.548
-106.541
-104.005
-101.08
-97.8781
-94.4837
-90.9609
-87.3573
-83.708
-80.0385
-76.3672
-72.7073
-69.068
-65.4554
-61.8736
-58.325
-54.8109
-51.3316
-47.8868
-44.4757
-41.0973
-37.7501
-34.4327
-31.1434
-27.8805
-24.6423
-21.4271
-18.2331
-15.0585
-11.9017
-8.76093
-5.63475
-2.52131
0.580601
3.6729
6.75653
9.83354
12.9045
15.9718
19.0355
22.0984
25.1599
28.2233
31.2875
34.3561
37.4271
40.5051
43.5869
46.6781
49.7739
52.8812
55.9935
59.1193
62.2498
65.3954
68.5448
71.7103
74.8778
78.0617
81.2448
84.4433
87.6376
90.8447
94.0434
97.2508
100.445
103.642
106.819
109.996
113.133
116.287
119.339
122.484
125.391
128.526
131.302
134.234
137.285
139.128
143.621
143.661
148.711
149.367
152.167
157.106
151.561
165.993
155.463
165.25
167.447
158.32
182.65
155.846
179.524
180.97
153.57
207.184
157.865
184.072
217.273
141.119
229.255
203.712
178.408
231.525
210.781
220.009
207.063
217.139
-58.4133
-64.3971
-70.8733
-77.683
-84.3657
-90.3932
-95.3909
-99.1861
-101.754
-103.163
-103.534
-103.014
-101.756
-99.9064
-97.5938
-94.927
-91.9943
-88.8661
-85.5977
-82.2318
-78.8015
-75.3316
-71.8412
-68.3445
-64.8519
-61.3711
-57.9076
-54.4652
-51.0464
-47.6526
-44.2846
-40.9427
-37.6264
-34.3351
-31.068
-27.8239
-24.6017
-21.4
-18.2175
-15.0527
-11.9042
-8.77051
-5.65028
-2.54185
0.55583
3.64459
6.72525
9.79982
12.8688
15.9344
18.9968
22.0586
25.1194
28.1822
31.2459
34.3143
37.3852
40.4632
43.5451
46.6364
49.7324
52.8401
55.9528
59.079
62.2099
65.3561
68.506
71.6721
74.8402
78.0247
81.2085
84.4076
87.6026
90.8104
94.0099
97.218
100.413
103.611
106.789
109.967
113.104
116.259
119.312
122.458
125.365
128.502
131.279
134.211
137.267
139.102
143.608
143.64
148.689
149.354
152.139
157.116
151.522
165.997
155.46
165.196
167.481
158.246
182.694
155.821
179.423
181.076
153.425
207.223
157.85
183.807
217.508
140.964
228.946
203.854
178.238
231.349
210.835
220.009
207.059
217.1
-57.345
-62.1366
-67.3145
-72.7925
-78.2882
-83.4473
-87.969
-91.6585
-94.4214
-96.2417
-97.1618
-97.262
-96.6422
-95.4114
-93.6766
-91.5353
-89.072
-86.3579
-83.4513
-80.3997
-77.2408
-74.0048
-70.7152
-67.3906
-64.0453
-60.6905
-57.3347
-53.9842
-50.6438
-47.317
-44.0062
-40.7129
-37.4382
-34.1823
-30.9454
-27.7272
-24.527
-21.344
-18.1775
-15.0263
-11.8894
-8.76558
-5.65375
-2.55245
0.539194
3.62286
6.69922
9.77019
12.8362
15.8993
18.9597
22.0198
25.0792
28.141
31.2039
34.2717
37.3422
40.42
43.5017
46.5931
49.6892
52.7971
55.91
59.0366
62.168
65.3145
68.465
71.6316
74.8003
77.9854
81.1699
84.3697
87.5654
90.774
93.9742
97.1831
100.379
103.578
106.757
109.935
113.074
116.229
119.283
122.431
125.338
128.477
131.254
134.187
137.247
139.074
143.594
143.617
148.667
149.339
152.112
157.125
151.46
166.007
155.454
165.139
167.516
158.164
182.749
155.783
179.314
181.186
153.257
207.282
157.807
183.505
217.773
140.774
228.593
203.98
177.989
231.156
210.893
220.006
207.053
217.058
-56.0151
-59.8937
-64.0926
-68.5523
-73.082
-77.4464
-81.4274
-84.8538
-87.6094
-89.6321
-90.9095
-91.469
-91.3644
-90.6659
-89.4527
-87.8047
-85.7968
-83.496
-80.9599
-78.2374
-75.3693
-72.3887
-69.3228
-66.1936
-63.0186
-59.8119
-56.5847
-53.3456
-50.1018
-46.8585
-43.6198
-40.3888
-37.1678
-33.9583
-30.7612
-27.5772
-24.4065
-21.2488
-18.104
-14.9714
-11.8505
-8.74031
-5.64016
-2.54882
0.534324
3.61077
6.681
9.7468
12.8084
15.8679
18.9252
21.9828
25.0402
28.1003
31.1618
34.2286
37.2982
40.3755
43.4568
46.548
49.644
52.752
55.8651
58.9919
62.1236
65.2706
68.4215
71.5887
74.758
77.9437
81.1288
84.3294
87.5258
90.7351
93.9363
97.146
100.343
103.543
106.722
109.902
113.041
116.198
119.253
122.402
125.31
128.45
131.228
134.161
137.226
139.044
143.581
143.593
148.645
149.322
152.084
157.134
151.4
166.022
155.444
165.078
167.553
158.071
182.818
155.732
179.197
181.301
153.063
207.367
157.733
183.162
218.072
140.543
228.191
204.093
177.736
230.949
210.957
220
207.042
217.005
-54.4846
-57.6523
-61.0946
-64.7623
-68.5139
-72.1888
-75.6368
-78.7247
-81.3426
-83.4113
-84.887
-85.7597
-86.0475
-85.7862
-85.0261
-83.8258
-82.2459
-80.3446
-78.1755
-75.7861
-73.2176
-70.5049
-67.6775
-64.7597
-61.7719
-58.7304
-55.6488
-52.5379
-49.4067
-46.2621
-43.11
-39.9547
-36.7997
-33.6478
-30.501
-27.3607
-24.2279
-21.1031
-17.9869
-14.879
-11.7794
-8.68753
-5.60322
-2.52549
0.545959
3.6124
6.67407
9.73258
12.788
15.8422
18.8951
21.949
25.0033
28.0608
31.1203
34.1854
37.2537
40.3299
43.4105
46.5011
49.5968
52.7046
55.8176
58.9446
62.0765
65.2239
68.3752
71.5428
74.7127
77.899
81.0849
84.2861
87.4834
90.6935
93.8956
97.1062
100.304
103.505
106.686
109.866
113.007
116.165
119.22
122.371
125.28
128.421
131.2
134.134
137.203
139.013
143.567
143.566
148.621
149.304
152.057
157.142
151.326
166.046
155.429
165.013
167.589
157.969
182.902
155.665
179.072
181.421
152.84
207.481
157.622
182.772
218.408
140.263
227.74
204.201
177.428
230.734
211.035
219.989
207.028
216.947
-52.8014
-55.4051
-58.2499
-61.2914
-64.4155
-67.5078
-70.4662
-73.1944
-75.6011
-77.608
-79.1582
-80.2199
-80.7852
-80.8643
-80.4817
-79.6737
-78.4841
-76.9594
-75.1454
-73.0855
-70.8188
-68.3804
-65.8005
-63.1052
-60.3165
-57.4529
-54.5299
-51.5603
-48.5547
-45.5217
-42.4684
-39.4007
-36.3233
-33.2398
-30.1533
-27.0661
-23.9801
-20.8963
-17.8159
-14.7394
-11.6672
-8.59928
-5.53575
-2.47603
0.5798
3.63276
6.68279
9.73131
12.7781
15.8251
18.8717
21.9204
24.9701
28.024
31.0803
34.1428
37.209
40.2836
43.3629
46.4525
49.5475
52.6548
55.7675
58.8944
62.0264
65.1739
68.3255
71.4936
74.664
77.8509
81.0374
84.2395
87.4376
90.6486
93.8516
97.0632
100.262
103.464
106.646
109.828
112.969
116.129
119.185
122.338
125.247
128.391
131.17
134.106
137.179
138.98
143.552
143.538
148.597
149.284
152.028
157.149
151.265
166.073
155.412
164.944
167.627
157.854
183.002
155.58
178.939
181.547
152.583
207.632
157.471
182.329
218.785
139.927
227.24
204.317
177.074
230.52
211.131
219.973
207.011
216.879
-50.9944
-53.1449
-55.5107
-58.0505
-60.6661
-63.2713
-65.7972
-68.1769
-70.3399
-72.2179
-73.7531
-74.9039
-75.6467
-75.9739
-75.8903
-75.4127
-74.5675
-73.3878
-71.9094
-70.1687
-68.2009
-66.0386
-63.7117
-61.2466
-58.6662
-55.9905
-53.2366
-50.4188
-47.5494
-44.6384
-41.6943
-38.7243
-35.7342
-32.7286
-29.7115
-26.6861
-23.655
-20.62
-17.5829
-14.5446
-11.5062
-8.46793
-5.43054
-2.39376
0.641984
3.67742
6.71217
9.74743
12.7827
15.8198
18.8579
21.8992
24.9427
27.9913
31.0431
34.1019
37.165
40.2371
43.3142
46.4023
49.4959
52.6023
55.7144
58.8409
61.9726
65.1202
68.2719
71.4404
74.6112
77.7987
80.9859
84.1887
87.3876
90.5996
93.8037
97.0164
100.217
103.42
106.603
109.786
112.929
116.09
119.148
122.302
125.212
128.358
131.139
134.075
137.154
138.945
143.537
143.508
148.571
149.261
152.003
157.156
151.185
166.092
155.39
164.876
167.662
157.727
183.127
155.474
178.801
181.681
152.288
207.822
157.276
181.828
219.209
139.531
226.698
204.458
176.673
230.316
211.248
219.956
206.989
216.802
-49.085
-50.8678
-52.8453
-54.9783
-57.1786
-59.3781
-61.5296
-63.5882
-65.5021
-67.2156
-68.6764
-69.8415
-70.6799
-71.173
-71.3128
-71.1006
-70.5478
-69.6739
-68.5037
-67.065
-65.387
-63.4983
-61.4263
-59.1963
-56.8314
-54.352
-51.7763
-49.1197
-46.3958
-43.6162
-40.7904
-37.9269
-35.0325
-32.1131
-29.1734
-26.2175
-23.2487
-20.2695
-17.2824
-14.2887
-11.2901
-8.28737
-5.28154
-2.27273
0.738233
3.75181
6.76728
9.78564
12.8061
15.8302
18.857
21.8886
24.9237
27.965
31.0106
34.0642
37.1228
40.1912
43.2652
46.3508
49.4423
52.5472
55.658
58.7837
61.9148
65.0621
68.2137
71.3823
74.5534
77.7414
80.9293
84.1328
87.3327
90.5456
93.7509
96.9647
100.166
103.371
106.556
109.74
112.885
116.048
119.107
122.263
125.175
128.322
131.105
134.041
137.127
138.908
143.52
143.476
148.544
149.237
151.973
157.162
151.12
166.133
155.365
164.802
167.697
157.583
183.271
155.345
178.659
181.821
151.952
208.057
157.033
181.269
219.681
139.073
226.122
204.64
176.225
230.131
211.39
219.938
206.964
216.712
-47.0903
-48.5721
-50.2316
-52.0311
-53.8896
-55.7508
-57.5818
-59.3535
-61.0287
-62.5641
-63.9152
-65.0425
-65.9135
-66.5042
-66.7988
-66.7888
-66.4736
-65.8609
-64.9648
-63.804
-62.4002
-60.7767
-58.9568
-56.9636
-54.8188
-52.5425
-50.1529
-47.6663
-45.097
-42.4575
-39.7588
-37.0101
-34.2196
-31.394
-28.5391
-25.6597
-22.7599
-19.843
-16.9119
-13.9688
-11.0156
-8.05372
-5.08455
-2.10856
0.873029
3.86042
6.85253
9.85019
12.8523
15.8602
18.8727
21.8918
24.9158
27.9477
30.985
34.0315
37.0839
40.1471
43.2167
46.2986
49.3871
52.4895
55.5983
58.7225
61.8525
64.9991
68.1502
71.3187
74.4898
77.6781
80.8665
84.0707
87.2715
90.4854
93.692
96.9071
100.11
103.316
106.503
109.689
112.835
116
119.061
122.22
125.134
128.282
131.069
134.004
137.097
138.869
143.501
143.444
148.514
149.212
151.942
157.166
151.024
166.176
155.335
164.727
167.729
157.438
183.431
155.193
178.516
181.97
151.573
208.339
156.746
180.639
220.211
138.557
225.531
204.877
175.735
229.972
211.558
219.915
206.935
216.608
-45.0233
-46.2571
-47.6537
-49.1774
-50.7526
-52.3307
-53.8888
-55.4083
-56.8636
-58.2214
-59.4457
-60.5021
-61.3602
-61.9948
-62.3864
-62.5208
-62.3896
-61.9913
-61.3304
-60.4172
-59.2657
-57.8929
-56.3171
-54.5579
-52.6344
-50.5653
-48.368
-46.0588
-43.6523
-41.1617
-38.5987
-35.9735
-33.295
-30.5711
-27.8083
-25.0124
-22.1882
-19.3397
-16.4706
-13.5835
-10.6811
-7.76499
-4.83724
-1.89861
1.04927
4.00635
6.97119
9.94441
12.9246
15.913
18.908
21.9117
24.922
27.9419
30.9685
34.0057
37.0501
40.1063
43.1698
46.2467
49.3308
52.4297
55.5355
58.6573
61.7854
64.9306
68.0807
71.2485
74.4194
77.6077
80.7963
84.0011
87.2027
90.4176
93.6254
96.8419
100.047
103.254
106.443
109.631
112.779
115.947
119.01
122.171
125.088
128.237
131.03
133.962
137.066
138.826
143.478
143.41
148.48
149.186
151.912
157.167
150.928
166.224
155.301
164.649
167.759
157.279
183.606
155.021
178.384
182.123
151.151
208.676
156.417
179.958
220.78
137.996
224.939
205.175
175.214
229.832
211.75
219.907
206.912
216.488
-42.8944
-43.9223
-45.1002
-46.3938
-47.7325
-49.073
-50.3989
-51.6992
-52.9565
-54.1456
-55.238
-56.205
-57.0198
-57.6586
-58.1011
-58.3306
-58.3342
-58.1041
-57.6378
-56.938
-56.0117
-54.8694
-53.5242
-51.991
-50.2856
-48.4242
-46.4227
-44.2965
-42.0598
-39.7259
-37.3069
-34.8135
-32.2555
-29.6413
-26.9785
-24.2733
-21.5316
-18.7581
-15.957
-13.1316
-10.2852
-7.41985
-4.53818
-1.6413
1.26871
4.19154
7.12534
10.0706
13.0254
15.9911
18.9656
21.9509
24.9447
27.9499
30.9634
33.9892
37.0232
40.0706
43.1262
46.1963
49.2745
52.3684
55.4699
58.5883
61.7134
64.8563
68.0046
71.1712
74.3411
77.529
80.7176
83.9225
87.1248
90.3405
93.5496
96.7675
99.974
103.184
106.374
109.565
112.715
115.886
118.951
122.115
125.036
128.185
130.987
133.912
137.031
138.78
143.45
143.377
148.441
149.16
151.88
157.166
150.83
166.273
155.266
164.568
167.79
157.113
183.799
154.831
178.248
182.293
150.683
209.042
156.073
179.219
221.404
137.406
224.394
205.537
174.665
229.714
211.96
219.895
206.891
216.353
-40.7116
-41.568
-42.5625
-43.6631
-44.803
-45.9433
-47.0717
-48.1824
-49.2639
-50.2976
-51.2609
-52.1303
-52.8834
-53.4989
-53.9574
-54.242
-54.3379
-54.2336
-53.922
-53.3999
-52.6684
-51.7321
-50.5988
-49.2786
-47.7833
-46.126
-44.3203
-42.3797
-40.3177
-38.1468
-35.8791
-33.5255
-31.0961
-28.5998
-26.0448
-23.4381
-20.7863
-18.0945
-15.3679
-12.6103
-9.82551
-7.01623
-4.18552
-1.33494
1.53296
4.41756
7.31658
10.2303
13.1565
16.0962
19.0472
22.0114
24.9859
27.9739
30.9718
33.9837
37.0052
40.0415
43.0872
46.1488
49.2193
52.3067
55.4024
58.5159
61.6368
64.7763
67.9218
71.0862
74.2544
77.4411
80.629
83.8337
87.0362
90.2525
93.4626
96.6818
99.89
103.102
106.294
109.488
112.64
115.815
118.882
122.049
124.976
128.123
130.938
133.854
136.993
138.73
143.413
143.344
148.394
149.135
151.844
157.16
150.731
166.317
155.235
164.484
167.822
156.944
184
154.624
178.121
182.457
150.207
209.444
155.714
178.455
222.037
136.837
223.896
205.96
174.092
229.608
212.18
219.895
206.884
216.206
-38.482
-39.1946
-40.0347
-40.9722
-41.9442
-42.9148
-43.8749
-44.8221
-45.7492
-46.6424
-47.4838
-48.2547
-48.9364
-49.5108
-49.9606
-50.2694
-50.4227
-50.4075
-50.2136
-49.8342
-49.2658
-48.5082
-47.5644
-46.4399
-45.1423
-43.6812
-42.0672
-40.3117
-38.4263
-36.4225
-34.3118
-32.1046
-29.811
-27.4404
-25.0011
-22.5008
-19.9463
-17.3437
-14.6985
-12.0151
-9.29811
-6.55056
-3.77613
-0.976764
1.84444
4.68658
7.54688
10.4254
13.3195
16.2301
19.1545
22.0946
25.0472
28.0154
30.9952
33.9909
36.9977
40.0209
43.0546
46.1056
49.1666
52.2457
55.3339
58.4411
61.5563
64.6911
67.8324
70.9934
74.1589
77.3435
80.5298
83.7336
86.9357
90.152
93.3627
96.583
99.7926
103.006
106.201
109.398
112.552
115.731
118.802
121.972
124.907
128.05
130.883
133.783
136.95
138.673
143.365
143.314
148.336
149.114
151.801
157.148
150.637
166.35
155.212
164.395
167.853
156.776
184.201
154.413
177.996
182.647
149.703
209.866
155.387
177.654
222.686
136.307
223.474
206.418
173.508
229.501
212.409
219.908
206.902
216.054
-36.211
-36.8027
-37.5121
-38.3111
-39.1404
-39.9669
-40.7832
-41.5895
-42.3817
-43.1494
-43.8786
-44.5542
-45.1612
-45.6842
-46.1085
-46.4193
-46.6028
-46.646
-46.5376
-46.2686
-45.8325
-45.2254
-44.4464
-43.497
-42.3809
-41.104
-39.6738
-38.0989
-36.3888
-34.5535
-32.603
-30.5471
-28.3955
-26.1573
-23.8411
-21.4545
-19.005
-16.4989
-13.9423
-11.3401
-8.6974
-6.01773
-3.30536
-0.562601
2.20689
5.00193
7.81919
10.6586
13.5168
16.3949
19.2895
22.2026
25.1304
28.0761
31.0354
34.0125
37.0022
40.0102
43.0298
46.0684
49.1179
52.1869
55.2659
58.365
61.4729
64.6014
67.7372
70.8935
74.0549
77.2362
80.4198
83.6216
86.8224
90.038
93.2486
96.4694
99.6799
102.896
106.091
109.293
112.449
115.632
118.706
121.879
124.825
127.961
130.82
133.697
136.899
138.609
143.302
143.287
148.262
149.097
151.747
157.128
150.555
166.361
155.205
164.3
167.885
156.617
184.388
154.215
177.877
182.848
149.205
210.287
155.108
176.854
223.303
135.86
223.134
206.886
172.924
229.38
212.625
219.939
206.963
215.911
-33.9035
-34.3932
-34.9915
-35.6723
-36.3798
-37.0831
-37.7764
-38.4614
-39.136
-39.7926
-40.4201
-41.0064
-41.5392
-42.0061
-42.3946
-42.6918
-42.8852
-42.9626
-42.9129
-42.7259
-42.3935
-41.9095
-41.2699
-40.4731
-39.5195
-38.4115
-37.1536
-35.7514
-34.212
-32.5432
-30.7536
-28.8517
-26.8463
-24.7459
-22.5589
-20.2929
-17.9555
-15.5531
-13.0923
-10.5783
-8.01675
-5.41149
-2.76736
-0.0870182
2.6253
5.36813
8.1376
10.9334
13.7518
16.5935
19.4548
22.3376
25.2376
28.1581
31.0941
34.0502
37.0205
40.011
43.0145
46.0386
49.0747
52.1317
55.1997
58.2891
61.3881
64.5086
67.6372
70.7873
73.9432
77.1197
80.2995
83.4979
86.6962
89.91
93.1196
96.3401
99.5507
102.768
105.965
109.169
112.327
115.515
118.594
121.768
124.728
127.852
130.745
133.591
136.839
138.535
143.218
143.264
148.168
149.09
151.678
157.097
150.492
166.337
155.225
164.194
167.917
156.475
184.542
154.055
177.759
183.058
148.727
210.682
154.933
176.063
223.841
135.544
222.867
207.329
172.36
229.226
212.809
219.99
207.087
215.795
-31.5636
-31.967
-32.4705
-33.05
-33.653
-34.2508
-34.8386
-35.4189
-35.9912
-36.5499
-37.0863
-37.5904
-38.0524
-38.4621
-38.8091
-39.0826
-39.2715
-39.3649
-39.3522
-39.2233
-38.9695
-38.5832
-38.0586
-37.3915
-36.5799
-35.6232
-34.5231
-33.2824
-31.9058
-30.3986
-28.7676
-27.0197
-25.1625
-23.2035
-21.1505
-19.0107
-16.7916
-14.4997
-12.1416
-9.7227
-7.2491
-4.7249
-2.15547
0.456311
3.1056
5.79075
8.50725
11.2547
14.0286
16.8299
19.6539
22.5029
25.3717
28.2639
31.1738
34.1063
37.0547
40.0253
43.0105
46.018
49.0387
52.0819
55.1371
58.2149
61.3033
64.4143
67.5342
70.6764
73.8252
76.9955
80.1698
83.3636
86.5581
89.7688
92.9761
96.1952
99.4048
102.623
105.819
109.026
112.186
115.377
118.462
121.634
124.614
127.72
130.657
133.461
136.766
138.45
143.107
143.247
148.046
149.093
151.584
157.053
150.457
166.261
155.284
164.07
167.949
156.359
184.641
153.962
177.636
183.261
148.297
211.017
154.9
175.297
224.239
135.409
222.635
207.717
171.845
229.022
212.959
220.065
207.3
215.73
-29.1948
-29.525
-29.9475
-30.4398
-30.9529
-31.46
-31.9569
-32.4468
-32.9302
-33.4031
-33.8582
-34.2878
-34.6836
-35.0375
-35.3409
-35.5847
-35.7594
-35.8554
-35.8631
-35.7731
-35.5767
-35.2656
-34.8332
-34.2738
-33.5834
-32.7592
-31.8005
-30.7078
-29.483
-28.1296
-26.652
-25.0554
-23.3458
-21.5295
-19.6135
-17.6041
-15.5085
-13.3327
-11.0836
-8.76638
-6.38739
-3.95089
-1.46267
1.07422
3.65439
6.27603
8.93404
11.6279
14.3525
17.1088
19.8913
22.7025
25.5365
28.397
31.2776
34.1834
37.1072
40.0555
43.0199
46.0086
49.0119
52.0393
55.0798
58.1443
61.2204
64.3201
67.4297
70.5624
73.7027
76.8652
80.0326
83.2201
86.4094
89.6155
92.8192
96.0355
99.243
102.46
105.656
108.864
112.025
115.217
118.311
121.477
124.482
127.56
130.553
133.307
136.674
138.352
142.965
143.238
147.89
149.109
151.458
156.99
150.463
166.114
155.398
163.915
167.98
156.279
184.654
153.974
177.493
183.435
147.943
211.251
155.044
174.54
224.431
135.513
222.386
208.025
171.418
228.748
213.086
220.164
207.628
215.744
-26.8003
-27.0684
-27.4213
-27.8383
-28.2737
-28.7025
-29.121
-29.5328
-29.939
-30.3367
-30.72
-31.0824
-31.4175
-31.7185
-31.9783
-32.1894
-32.3438
-32.4331
-32.449
-32.3829
-32.2264
-31.9716
-31.6114
-31.1392
-30.5499
-29.8394
-29.0047
-28.0446
-26.9589
-25.7488
-24.4167
-22.9659
-21.4009
-19.7264
-17.9481
-16.0715
-14.1029
-12.0479
-9.91299
-7.70325
-5.42505
-3.08258
-0.681965
1.77368
4.27852
6.83064
9.42438
12.0591
14.7293
17.4355
20.172
22.941
25.7361
28.5611
31.409
34.2849
37.1811
40.1042
43.0454
46.0128
48.9965
52.0059
55.0299
58.079
61.1412
64.2278
67.3257
70.4471
73.5776
76.7304
79.8898
83.0693
86.2522
89.452
92.651
95.8628
99.0672
102.281
105.476
108.683
111.847
115.036
118.141
121.294
124.332
127.373
130.43
133.127
136.56
138.241
142.787
143.238
147.691
149.14
151.291
156.905
150.519
165.874
155.591
163.725
168.01
156.246
184.548
154.135
177.3
183.55
147.7
211.336
155.391
173.758
224.353
135.917
222.06
208.242
171.131
228.386
213.157
220.288
208.1
215.869
-24.383
-24.5982
-24.8912
-25.2431
-25.6112
-25.9722
-26.323
-26.667
-27.0061
-27.3379
-27.6578
-27.9605
-28.2404
-28.4921
-28.7099
-28.8875
-29.0181
-29.0948
-29.1101
-29.0564
-28.9262
-28.7121
-28.4068
-28.0039
-27.4973
-26.8821
-26.1542
-25.3106
-24.3496
-23.2705
-22.0739
-20.7612
-19.3352
-17.7989
-16.1569
-14.4133
-12.5736
-10.6424
-8.62578
-6.52835
-4.35633
-2.11371
0.193271
2.56151
4.98489
7.46139
9.98498
12.5549
15.1651
17.816
20.5016
23.2236
25.9756
28.7609
31.5723
34.4146
37.28
40.1747
43.09
46.0332
48.9951
51.9839
54.9895
58.0211
61.0678
64.1393
67.224
70.3323
73.4517
76.5931
79.7434
82.913
86.0887
89.2802
92.4739
95.6789
98.88
102.089
105.283
108.484
111.653
114.833
117.956
121.085
124.165
127.158
130.289
132.924
136.421
138.122
142.569
143.249
147.444
149.183
151.076
156.794
150.637
165.525
155.881
163.465
168.037
156.271
184.286
154.498
177.013
183.573
147.611
211.238
155.975
172.906
223.959
136.711
221.603
208.371
171.052
227.92
213.189
220.44
208.746
216.138
-21.9455
-22.1156
-22.3571
-22.6524
-22.962
-23.2642
-23.5562
-23.8415
-24.1221
-24.3964
-24.6605
-24.91
-25.1402
-25.3468
-25.525
-25.6696
-25.775
-25.8353
-25.844
-25.7946
-25.6802
-25.4942
-25.2298
-24.8806
-24.4404
-23.9038
-23.2661
-22.5231
-21.6719
-20.7103
-19.6375
-18.4531
-17.1583
-15.7547
-14.2453
-12.6328
-10.9217
-9.11557
-7.21977
-5.2382
-3.17671
-1.03894
1.16899
3.44407
5.78012
8.17501
10.6226
13.1218
15.6664
18.2566
20.886
23.5561
26.2603
29.0013
31.7722
34.5769
37.4081
40.2707
43.1571
46.0731
49.0105
51.9761
54.9612
57.9728
61.0022
64.0564
67.1267
70.2196
73.327
76.4548
79.5951
82.7528
85.9208
89.1017
92.29
95.4855
98.684
101.884
105.08
108.27
111.448
114.611
117.757
120.854
123.983
126.922
130.128
132.707
136.252
137.999
142.31
143.27
147.142
149.23
150.815
156.66
150.829
165.055
156.287
163.119
168.065
156.374
183.838
155.126
176.572
183.486
147.747
210.861
156.855
171.975
223.23
138.02
220.964
208.438
171.267
227.336
213.188
220.624
209.591
216.583
-19.4902
-19.6219
-19.8189
-20.0649
-20.3235
-20.5746
-20.8156
-21.0498
-21.2796
-21.5036
-21.7186
-21.9209
-22.1067
-22.2723
-22.4138
-22.5269
-22.607
-22.6489
-22.6472
-22.5962
-22.49
-22.3224
-22.0875
-21.779
-21.3912
-20.9185
-20.3556
-19.698
-18.9419
-18.0841
-17.1223
-16.0551
-14.8821
-13.6035
-12.2208
-10.7355
-9.15075
-7.46909
-5.69483
-3.83117
-1.88321
0.145754
2.25013
4.42691
6.67029
8.97786
11.3438
13.7664
16.2399
18.7635
21.3316
23.9444
26.5961
29.2878
32.014
34.7765
37.5698
40.3964
43.2507
46.1358
49.0463
51.9853
54.9477
57.9365
60.9469
63.9812
67.0357
70.111
73.2052
76.3172
79.4468
82.5902
85.7502
88.9181
92.1013
95.2844
98.4814
101.668
104.868
108.042
111.233
114.372
117.546
120.605
123.785
126.673
129.945
132.483
136.052
137.879
142.007
143.296
146.788
149.271
150.525
156.51
151.109
164.463
156.808
162.669
168.101
156.59
183.19
156.083
175.919
183.309
148.222
210.038
158.124
171.039
222.177
139.968
220.081
208.495
171.891
226.629
213.169
220.842
210.654
217.224
-17.0195
-17.1184
-17.2768
-17.4799
-17.694
-17.9006
-18.0971
-18.2869
-18.4723
-18.6523
-18.8242
-18.9849
-19.1311
-19.2598
-19.3678
-19.4514
-19.5067
-19.5296
-19.5152
-19.4587
-19.355
-19.1987
-18.9843
-18.7062
-18.359
-17.9372
-17.4357
-16.8496
-16.1746
-15.4068
-14.5433
-13.5813
-12.5195
-11.3568
-10.0932
-8.72927
-7.26662
-5.70686
-4.05304
-2.30764
-0.474692
1.44283
3.44026