/*--------------------------------*- C++ -*----------------------------------*\
| =========                 |                                                 |
| \\      /  F ield         | OpenFOAM: The Open Source CFD Toolbox           |
|  \\    /   O peration     | Version:  2412                                  |
|   \\  /    A nd           | Website:  www.openfoam.com                      |
|    \\/     M anipulation  |                                                 |
\*---------------------------------------------------------------------------*/
FoamFile
{
    version     2.0;
    format      ascii;
    arch        "LSB;label=32;scalar=64";
    class       surfaceScalarField;
    location    "1";
    object      phi;
}
// * * * * * * * * * * * * * * * * * * * * * * * * * * * * * * * * * * * * * //

dimensions      [0 3 -1 0 0 0 0];

oriented        oriented;

internalField   nonuniform List<scalar> 
24930
(
0.0179839
0.0127754
-0.0307572
0.0106102
0.00737365
0.0069552
0.00365503
0.0051772
0.00177801
0.0042042
0.000972995
0.00358076
0.000623444
0.00313448
0.000446284
0.00279474
0.000339748
0.00252538
0.000269355
0.00230534
0.000220047
0.00212143
0.000183907
0.00196493
0.000156505
0.00182977
0.000135159
0.00171161
0.000118163
0.00160723
0.000104382
0.0015142
9.30299e-05
0.00143065
8.35527e-05
0.00135511
7.55469e-05
0.00128639
6.87138e-05
0.00122357
6.2828e-05
0.00116585
5.77168e-05
0.0011126
5.32458e-05
0.0010633
4.9309e-05
0.00101748
4.58219e-05
0.000974759
4.27164e-05
0.000934822
3.99372e-05
0.000897382
3.74389e-05
0.000862198
3.51838e-05
0.000829056
3.31407e-05
0.000797772
3.12833e-05
0.000768182
2.95895e-05
0.00074014
2.80402e-05
0.00071352
2.66198e-05
0.000688205
2.53138e-05
0.000664093
2.41111e-05
0.000641092
2.30004e-05
0.000619117
2.1974e-05
0.000598094
2.10226e-05
0.000577953
2.01409e-05
0.000558631
1.9321e-05
0.000540071
1.85602e-05
0.00052222
1.78504e-05
0.000505028
1.71917e-05
0.000488452
1.65752e-05
0.000472448
1.60041e-05
0.00045698
1.54677e-05
0.000442007
1.49729e-05
0.0004275
1.45057e-05
0.000413422
1.40783e-05
0.00039975
1.36719e-05
0.000386445
1.33048e-05
0.000373493
1.2952e-05
0.000360853
1.26397e-05
0.000348518
1.23348e-05
0.000336446
1.20732e-05
0.000324635
1.18113e-05
0.000313038
1.15969e-05
0.000301665
1.13738e-05
0.000290462
1.12041e-05
0.000279446
1.10163e-05
0.000268558
1.08894e-05
0.000257824
1.07337e-05
0.000247177
1.0648e-05
0.000236656
1.05215e-05
0.000226181
1.04756e-05
0.000215805
1.03755e-05
0.000205437
1.03674e-05
0.000195146
1.0291e-05
0.000184827
1.03184e-05
0.000174564
1.02624e-05
0.000164243
1.03208e-05
0.000153962
1.02811e-05
0.000143599
1.03634e-05
0.000133264
1.03351e-05
0.000122834
1.04304e-05
0.000112425
1.04099e-05
0.000101926
1.04998e-05
9.14364e-05
1.04894e-05
8.08924e-05
1.05438e-05
7.03402e-05
1.05516e-05
5.97973e-05
1.0542e-05
4.92595e-05
1.05366e-05
3.87067e-05
1.05511e-05
2.84661e-05
1.02388e-05
1.76525e-05
1.08119e-05
8.37223e-06
9.27909e-06
-3.43201e-06
1.18046e-05
-1.02891e-05
6.8588e-06
-2.38085e-05
1.35235e-05
-3.15518e-05
7.74756e-06
-3.50308e-05
3.47855e-06
-5.79983e-05
2.29687e-05
-4.82513e-05
-9.71335e-06
-7.83556e-05
3.01005e-05
-6.12574e-05
-1.71053e-05
-8.76141e-05
2.63589e-05
-0.00011493
2.73346e-05
-5.34289e-05
-6.15141e-05
-0.00015681
0.000103388
-7.72494e-05
-7.95615e-05
-0.000143502
6.62332e-05
-0.000157288
1.37657e-05
-5.66685e-05
-0.000100649
-0.000296113
0.000239476
-4.18414e-05
-0.000254276
-0.000205493
0.000163615
-0.000321411
0.000115973
5.33488e-05
-0.000374835
-0.000574473
0.000627864
-0.00015155
-0.000422885
-0.000119329
-3.23302e-05
-0.000857755
0.000738498
0.000138454
-0.000996261
-0.000407371
0.000545773
-0.000830286
0.000423
0.000146096
-0.000976395
3.07765e-05
0.000115283
-7.25744e-05
0.000103354
-0.000238524
0.000165953
0.000110508
0.0337059
0.0163455
-0.037276
0.0277618
0.0133178
0.0222024
0.00921445
0.0179231
0.00605726
0.0148736
0.00402252
0.0127109
0.00278613
0.0111224
0.00203483
0.00990426
0.00155784
0.00893628
0.00123735
0.00814535
0.00101097
0.00748468
0.000844578
0.00692293
0.000718257
0.0064383
0.000619798
0.00601508
0.000541382
0.00564168
0.000477788
0.0053093
0.000425413
0.00501116
0.000381696
0.00474193
0.00034478
0.00449736
0.000313285
0.00427402
0.00028617
0.0040691
0.000262635
0.00388029
0.00024206
0.00370565
0.000223953
0.00354355
0.000207923
0.00339261
0.000193657
0.00325165
0.000180896
0.00311965
0.000169432
0.00299575
0.000159089
0.00287916
0.000149724
0.00276923
0.000141214
0.00266536
0.000133458
0.00256703
0.000126367
0.00247378
0.000119868
0.0023852
0.000113896
0.00230091
0.000108397
0.00222058
0.000103322
0.00214392
9.86327e-05
0.00207066
9.42885e-05
0.00200053
9.02625e-05
0.00193333
8.65213e-05
0.00186884
8.30476e-05
0.00180688
7.98109e-05
0.00174727
7.68031e-05
0.00168985
7.39936e-05
0.00163447
7.13844e-05
0.001581
6.89411e-05
0.00152929
6.66773e-05
0.00147925
6.45514e-05
0.00143073
6.25911e-05
0.00138366
6.07435e-05
0.00133791
5.90536e-05
0.00129341
5.74525e-05
0.00125004
5.60069e-05
0.00120775
5.46265e-05
0.00116642
5.34047e-05
0.00112601
5.22237e-05
0.00108639
5.12091e-05
0.00104756
5.02096e-05
0.00100937
4.93894e-05
0.000971835
4.85563e-05
0.000934806
4.79201e-05
0.0008983
4.72406e-05
0.000862169
4.678e-05
0.000826449
4.62421e-05
0.000790976
4.59494e-05
0.000755811
4.55414e-05
0.000720771
4.54081e-05
0.000685943
4.51183e-05
0.000651129
4.51329e-05
0.000616444
4.49473e-05
0.000581672
4.50922e-05
0.000546962
4.49907e-05
0.000512086
4.52392e-05
0.000477224
4.51974e-05
0.000442147
4.55084e-05
0.000407053
4.5505e-05
0.000371748
4.58054e-05
0.000336389
4.58491e-05
0.000300941
4.59928e-05
0.00026532
4.61728e-05
0.000229949
4.59119e-05
0.000194153
4.63317e-05
0.000159052
4.56504e-05
0.000123725
4.55641e-05
8.82599e-05
4.62752e-05
5.56992e-05
4.18381e-05
1.69567e-05
5.05449e-05
-6.36329e-06
3.01787e-05
-5.45546e-05
6.17142e-05
-7.40282e-05
2.72208e-05
-9.8217e-05
2.76699e-05
-0.000160072
8.48248e-05
-0.000142354
-2.74644e-05
-0.000232694
0.000120443
-0.000178099
-7.16854e-05
-0.000284297
0.000132565
-0.000329059
7.20899e-05
-0.000183723
-0.000206828
-0.000474442
0.000394103
-0.000241932
-0.00031207
-0.000476772
0.000301074
-0.000454715
-8.24567e-06
-0.000222555
-0.000332807
-0.000883063
0.000899964
-0.000141224
-0.000996111
-0.000721549
0.000743955
-0.000906249
0.000300583
8.15441e-05
-0.00136261
-0.00174385
0.00245323
-0.000414393
-0.00175235
-0.00053678
9.01626e-05
-0.00245159
0.00265328
0.000459931
-0.00390775
-0.00146882
0.00247454
-0.00242242
0.00137654
0.000524777
-0.00392358
5.34588e-05
0.000586626
-0.000275015
0.000431818
-0.000731917
0.00062285
0.000456479
0.0414796
0.0160422
-0.0411763
0.0391857
0.0156117
0.0352506
0.0131496
0.0309589
0.010349
0.0270395
0.0079419
0.023747
0.00607867
0.0210699
0.00471189
0.0188992
0.00372856
0.01712
0.00301653
0.0156396
0.00249137
0.0143889
0.00209524
0.0133176
0.00178956
0.0123887
0.0015487
0.0115747
0.0013554
0.0108548
0.00119774
0.0102128
0.00106735
0.00963638
0.00095816
0.00911544
0.000865727
0.00864201
0.000786716
0.00820959
0.000718592
0.00781283
0.000659395
0.0074473
0.000607594
0.00710928
0.000561977
0.00679563
0.000521573
0.00650369
0.000485597
0.00623117
0.000453411
0.00597611
0.000424488
0.00573681
0.000398392
0.00551177
0.00037476
0.0052997
0.000353286
0.00509944
0.000333713
0.00490999
0.000315819
0.00473043
0.00029942
0.00455997
0.000284352
0.00439789
0.000270478
0.00424354
0.000257676
0.00409632
0.000245844
0.00395572
0.000234887
0.00382125
0.00022473
0.00369248
0.000215295
0.003569
0.000206531
0.00345044
0.000198369
0.00333646
0.000190779
0.00322676
0.000183696
0.00312103
0.000177108
0.00301902
0.000170948
0.00292047
0.000165228
0.00282515
0.000159869
0.00273283
0.000154909
0.00264333
0.000150252
0.00255641
0.000145967
0.00247193
0.000141932
0.00238968
0.000138255
0.00230953
0.000134779
0.00223128
0.000131656
0.00215482
0.000128685
0.00207996
0.000126073
0.0020066
0.000123563
0.00193456
0.000121429
0.00186378
0.000119343
0.00179404
0.000117659
0.00172532
0.000115966
0.00165739
0.000114709
0.00159025
0.000113382
0.00152367
0.000112531
0.00145767
0.000111542
0.001392
0.000111075
0.00132672
0.000110396
0.00126157
0.000110286
0.00119664
0.000109882
0.00113164
0.000110089
0.00106672
0.00010991
0.00100159
0.000110373
0.000936427
0.000110356
0.000870953
0.000110983
0.00080539
0.000111069
0.000739504
0.000111693
0.000673454
0.0001119
0.000607291
0.000112156
0.000540713
0.00011275
0.000474712
0.000111912
0.000407636
0.000113405
0.000342303
0.000110981
0.000275633
0.000112231
0.000210042
0.000111864
0.000147898
0.00010398
7.65675e-05
0.000121874
3.06904e-05
7.60557e-05
-5.91996e-05
0.000151605
-9.18517e-05
5.98759e-05
-0.000147033
8.28546e-05
-0.000249492
0.000187287
-0.000229754
-4.7201e-05
-0.000386747
0.000277438
-0.000294391
-0.000164041
-0.000499345
0.000337533
-0.000546914
0.000119667
-0.000333814
-0.000419915
-0.000818256
0.000878547
-0.000422896
-0.000707431
-0.000859527
0.000737702
-0.000770421
-9.74165e-05
-0.00043955
-0.000663679
-0.00151356
0.00197398
-0.000262999
-0.00224669
-0.00134644
0.00182739
-0.00150639
0.000460651
4.69189e-05
-0.00291592
-0.0030103
0.00551044
-0.00068177
-0.00408089
-0.00114524
0.000553574
-0.00406058
0.00556861
0.00086493
-0.00883328
-0.00280623
0.00614571
-0.00404336
0.00261368
0.00103367
-0.00900061
2.68864e-05
0.0015934
-0.000528914
0.000987626
-0.00126796
0.00136189
0.00102431
0.0459432
0.0147426
-0.0446436
0.0460247
0.0155302
0.0444427
0.0147316
0.041715
0.0130767
0.0384671
0.0111898
0.0351582
0.00938758
0.0320561
0.00781397
0.0292754
0.00650928
0.0268349
0.00545704
0.0247085
0.00461779
0.022855
0.00394877
0.0212324
0.00341219
0.0198034
0.0029777
0.0185367
0.00262202
0.0174069
0.00232762
0.0163929
0.00208136
0.0154777
0.00187332
0.0146475
0.00169597
0.0138907
0.00154353
0.0131978
0.00141149
0.0125608
0.00129632
0.0119732
0.00119524
0.0114292
0.00110599
0.010924
0.00102678
0.0104534
0.000956124
0.010014
0.000892815
0.00960267
0.000835853
0.00921666
0.000784405
0.00885364
0.000737772
0.00851156
0.000695366
0.00818858
0.000656688
0.00788309
0.00062131
0.00759364
0.00058887
0.00731894
0.000559052
0.00705783
0.000531587
0.00680927
0.000506235
0.00657231
0.000482799
0.00634611
0.000461089
0.00612988
0.00044096
0.00592291
0.000422259
0.00572456
0.000404882
0.00553423
0.000388699
0.00535137
0.000373641
0.00517547
0.000359591
0.00500606
0.000346514
0.00484272
0.000334292
0.00468502
0.000322927
0.0045326
0.000312289
0.00438508
0.000302423
0.00424216
0.000293175
0.00410349
0.000284637
0.0039688
0.000276622
0.00383777
0.000269279
0.00371018
0.000262369
0.00358573
0.000256112
0.00346421
0.000250203
0.00334534
0.000244945
0.00322895
0.000239953
0.00311476
0.000235625
0.00300262
0.000231477
0.00289226
0.000228023
0.00278357
0.000224661
0.00267624
0.000222033
0.00257022
0.000219402
0.0024652
0.00021756
0.00236113
0.000215608
0.0022577
0.000214509
0.00215491
0.000213183
0.00205242
0.000212774
0.00195029
0.000212009
0.00184817
0.000212214
0.00174616
0.000211913
0.00164391
0.000212623
0.00154161
0.000212663
0.00143888
0.000213712
0.00133598
0.00021397
0.00123262
0.000215051
0.00112897
0.000215552
0.00102516
0.000215971
0.000920648
0.000217258
0.000817039
0.00021552
0.000711623
0.000218819
0.000609101
0.000213501
0.000503922
0.000217408
0.000401354
0.00021443
0.000302417
0.000202915
0.000191691
0.000232598
0.000116398
0.000151348
-2.38976e-05
0.000291902
-7.22266e-05
0.000108206
-0.000169377
0.00018001
-0.000316144
0.000334056
-0.000300389
-6.29531e-05
-0.000532242
0.000509291
-0.000404174
-0.000292105
-0.000723857
0.000657231
-0.000764812
0.000160627
-0.000499424
-0.000685286
-0.00118505
0.00156418
-0.000617592
-0.00127489
-0.00128657
0.00140668
-0.00110642
-0.000277536
-0.00070889
-0.0010612
-0.00218589
0.00345097
-0.000409978
-0.0040226
-0.00207649
0.00349391
-0.00212655
0.000510448
-4.58599e-05
-0.0049966
-0.00436325
0.00982783
-0.000962856
-0.00748128
-0.00196324
0.00155399
-0.00566505
0.00927041
0.00135808
-0.0158564
-0.0044099
0.0119137
-0.00565821
0.00386196
0.00167695
-0.0163358
-6.76657e-05
0.00333803
-0.000822391
0.00174234
-0.0018317
0.0023712
0.00177471
0.0494101
0.0135483
-0.0482158
0.0503733
0.0145671
0.05039
0.0147149
0.0493656
0.014101
0.047518
0.0130374
0.04514
0.0117656
0.0425035
0.0104504
0.0398153
0.0091975
0.0372103
0.00806207
0.034763
0.00706507
0.0325057
0.00620608
0.0304443
0.00547363
0.0285703
0.00485169
0.0268687
0.00432358
0.0253225
0.00387389
0.0239145
0.00348929
0.0226292
0.00315863
0.0214525
0.00287273
0.0203719
0.00262414
0.0193766
0.00240679
0.0184572
0.00221572
0.0176055
0.00204692
0.0168144
0.00189706
0.0160778
0.00176343
0.0153901
0.00164375
0.0147468
0.00153616
0.0141436
0.00143907
0.0135768
0.00135115
0.0130433
0.00127129
0.0125402
0.00119852
0.0120648
0.00113204
0.011615
0.00107115
0.0111886
0.00101524
0.0107839
0.000963786
0.0103991
0.000916347
0.0100328
0.000872519
0.00968364
0.000831967
0.00935035
0.000794378
0.00903181
0.000759499
0.00872699
0.000727078
0.00843494
0.000696931
0.00815479
0.000668845
0.00788574
0.000642693
0.00762704
0.000618286
0.00737801
0.000595548
0.007138
0.000574297
0.00690641
0.000554513
0.0066827
0.000536001
0.00646632
0.000518802
0.0062568
0.000502694
0.00605365
0.000487787
0.00585646
0.000473813
0.00566477
0.000460963
0.00547824
0.000448904
0.00529643
0.000437923
0.00511903
0.0004276
0.00494564
0.000418336
0.00477599
0.000409602
0.00460968
0.000401934
0.00444649
0.000394668
0.00428602
0.000388496
0.00412809
0.000382598
0.00397228
0.00037784
0.00381847
0.000373217
0.00366623
0.000369802
0.00351547
0.000366368
0.00336576
0.000364222
0.00321705
0.000361889
0.0030689
0.000360924
0.00292133
0.000359582
0.00277387
0.000359674
0.00262661
0.000359165
0.0024791
0.000360137
0.00233152
0.000360249
0.0021834
0.000361833
0.00203501
0.000362353
0.00188601
0.000364055
0.00173656
0.000365008
0.00158685
0.000365678
0.00143613
0.000367981
0.0012866
0.000365043
0.00113446
0.000370964
0.000986418
0.000361537
0.000834204
0.00036962
0.000686408
0.000362223
0.000542073
0.000347248
0.000383776
0.000390893
0.000270791
0.000264334
7.31721e-05
0.000489522
4.71427e-06
0.000176668
-0.000150119
0.000334846
-0.000344994
0.000528933
-0.000341523
-6.64195e-05
-0.000656933
0.000824703
-0.000497247
-0.000451787
-0.000947675
0.00110768
-0.000974263
0.000187226
-0.000675624
-0.000983905
-0.00156625
0.0024548
-0.000821083
-0.00202006
-0.00175249
0.00233808
-0.00146005
-0.000569982
-0.00103206
-0.00148919
-0.00289205
0.00531095
-0.000583662
-0.006331
-0.00290686
0.00581711
-0.00276706
0.000371318
-0.000193318
-0.00757033
-0.0057811
0.0154156
-0.00126387
-0.0119985
-0.00300627
0.00329642
-0.00724267
0.0135068
0.00193453
-0.0250336
-0.00625064
0.0200989
-0.00722733
0.00483865
0.00243589
-0.025999
-0.000224116
0.00599805
-0.001137
0.00265522
-0.00239684
0.00363103
0.00264204
0.0528694
0.0126503
-0.0519714
0.0538975
0.013539
0.0545805
0.0140318
0.0546482
0.0140333
0.0540479
0.0136378
0.0528488
0.0129647
0.0511804
0.0121188
0.0491892
0.0111887
0.04701
0.0102413
0.0447534
0.0093216
0.0425019
0.0084576
0.0403116
0.00766399
0.0382169
0.00694629
0.0362366
0.00630391
0.0343779
0.00573259
0.032641
0.00522618
0.0310218
0.00477782
0.0295139
0.00438068
0.0281096
0.0040284
0.0268012
0.0037152
0.0255809
0.00343603
0.0244414
0.00318645
0.0233758
0.00296267
0.0223778
0.00276139
0.0214418
0.00257982
0.0205624
0.00241553
0.019735
0.00226646
0.0189553
0.00213083
0.0182195
0.00200711
0.017524
0.00189397
0.0168658
0.00179026
0.016242
0.001695
0.0156499
0.0016073
0.0150873
0.00152642
0.0145519
0.00145169
0.0140419
0.00138253
0.0135554
0.00131843
0.0130909
0.00125893
0.0126467
0.00120364
0.0122216
0.00115219
0.0118143
0.00110429
0.0114235
0.00105962
0.0110482
0.00101798
0.0106874
0.000979089
0.0103401
0.000942819
0.0100055
0.000908901
0.00968274
0.000877285
0.00937105
0.000847694
0.00906969
0.00082016
0.00877801
0.000794373
0.00849534
0.000770461
0.00822109
0.000748057
0.00795466
0.000727396
0.00769553
0.000708032
0.00744313
0.000690327
0.007197
0.000673723
0.00695661
0.000658732
0.00672156
0.000644657
0.0064913
0.000632187
0.00626552
0.000620453
0.00604367
0.000610346
0.00582548
0.000600794
0.0056104
0.00059292
0.00539821
0.00058541
0.00518835
0.000579654
0.00498067
0.000574052
0.00477459
0.000570302
0.00457001
0.000566474
0.00436634
0.000564594
0.00416354
0.000562374
0.00396104
0.000562177
0.00375888
0.000561322
0.00355648
0.000562543
0.003354
0.000562728
0.00315086
0.000564968
0.00294737
0.000565852
0.00274305
0.000568373
0.00253809
0.000569971
0.00233273
0.000571033
0.00212598
0.000574733
0.00192069
0.000570338
0.00171185
0.000579793
0.00150839
0.000564999
0.00129901
0.000578994
0.00109613
0.000565097
0.00089612
0.00054726
0.00068052
0.000606491
0.000519675
0.000425179
0.000255434
0.000753764
0.000147871
0.000284232
-6.99144e-05
0.000552637
-0.000315575
0.000774595
-0.000336079
-4.59223e-05
-0.000744039
0.00123266
-0.000559047
-0.000636773
-0.00115643
0.00170508
-0.00116302
0.000193775
-0.000854307
-0.00129259
-0.00194923
0.00354972
-0.00102625
-0.00294304
-0.00224782
0.00355965
-0.00182579
-0.000992033
-0.00140804
-0.00190693
-0.00362157
0.00752446
-0.000784807
-0.00916777
-0.00382604
0.00885836
-0.00342744
-2.91106e-05
-0.000432379
-0.0105654
-0.00723817
0.0222214
-0.00158935
-0.0176474
-0.00428019
0.0059873
-0.00878127
0.0180078
0.00257722
-0.0363921
-0.00827039
0.0309466
-0.00871534
0.00528354
0.00326587
-0.0379802
-0.000423875
0.00968781
-0.00144583
0.00367716
-0.00292492
0.00511011
0.0035275
0.0565907
0.0119634
-0.0559038
0.057444
0.0126857
0.0582401
0.0132357
0.0587661
0.0135073
0.0588998
0.0135041
0.0585953
0.0132692
0.057862
0.0128522
0.0567477
0.012303
0.055321
0.011668
0.0536573
0.0109853
0.0518301
0.0102848
0.0499049
0.00958923
0.0479363
0.00891493
0.0459673
0.00827288
0.0440301
0.00766983
0.0421471
0.00710918
0.040333
0.0065919
0.0385965
0.00611719
0.0369418
0.00568311
0.0353699
0.00528706
0.0338798
0.00492612
0.032469
0.00459726
0.0311342
0.00429752
0.0298715
0.00402411
0.0286768
0.00377444
0.0275462
0.00354613
0.0264757
0.00333704
0.0254612
0.00314525
0.0244993
0.00296904
0.0235864
0.00280689
0.0227192
0.00265743
0.0218948
0.00251945
0.0211102
0.00239188
0.0203628
0.00227376
0.0196503
0.00216424
0.0189703
0.00206255
0.0183207
0.00196804
0.0176995
0.00188007
0.017105
0.00179815
0.0165355
0.00172174
0.0159893
0.00165047
0.015465
0.00158389
0.0149613
0.00152172
0.0144768
0.00146357
0.0140103
0.00140925
0.0135608
0.0013584
0.0131272
0.00131092
0.0127085
0.00126644
0.0123036
0.00122499
0.0119119
0.00118614
0.0115323
0.00115004
0.0111641
0.00111622
0.0108066
0.00108495
0.010459
0.00105565
0.0101205
0.00102877
0.00979065
0.00100359
0.00946863
0.000980747
0.00915394
0.000959349
0.00884587
0.000940262
0.00854395
0.000922372
0.00824749
0.000906806
0.00795609
0.000892194
0.00766906
0.000879958
0.00738605
0.00086842
0.00710636
0.000859345
0.00682972
0.000850691
0.00655541
0.000844613
0.00628323
0.000838651
0.00601244
0.000835378
0.00574295
0.00083187
0.00547399
0.000831137
0.00520557
0.000829736
0.00493695
0.000831166
0.00466828
0.000831403
0.00439881
0.000834432
0.00412886
0.000835802
0.00385785
0.000839386
0.00358595
0.000841873
0.00331345
0.000843539
0.00303908
0.000849094
0.00276637
0.000843051
0.00248908
0.000857076
0.00221843
0.000835647
0.00193989
0.000857536
0.00167018
0.000834801
0.00140224
0.000815199
0.00111775
0.000890982
0.000896684
0.000646243
0.000553813
0.00109664
0.000399024
0.000439022
0.000105042
0.000846625
-0.000200143
0.00107978
-0.000261337
1.52827e-05
-0.000770763
0.00174209
-0.000569331
-0.000838198
-0.00133033
0.00246609
-0.00131404
0.000177596
-0.00102277
-0.00158384
-0.00231687
0.00484382
-0.00122261
-0.0040373
-0.00275805
0.00509509
-0.00219449
-0.00155561
-0.00183165
-0.00226976
-0.00436238
0.0100552
-0.00101281
-0.0125173
-0.00481529
0.0126609
-0.00410714
-0.000735559
-0.000774046
-0.0138985
-0.00871008
0.0301574
-0.00194165
-0.0244158
-0.00577213
0.00981784
-0.0102854
0.022521
0.0032521
-0.0499296
-0.0103782
0.0445769
-0.0100941
0.00499953
0.00409337
-0.0521678
-0.000646277
0.0144275
-0.00171235
0.00474323
-0.00336318
0.00676094
0.00429075
0.0605972
0.0114003
-0.0600341
0.0612815
0.0120015
0.0619958
0.0125213
0.0626174
0.0128857
0.0630487
0.0130728
0.0632256
0.0130922
0.0631127
0.0129651
0.0626994
0.0127163
0.061996
0.0123715
0.061027
0.0119543
0.059827
0.0114848
0.0584356
0.0109806
0.0568942
0.0104564
0.0552428
0.00992429
0.0535183
0.00939427
0.0517533
0.0088742
0.0499751
0.00837014
0.0482057
0.00788652
0.0464625
0.00742631
0.0447583
0.00699126
0.0431023
0.00658215
0.0415006
0.00619898
0.0399569
0.00584117
0.0384733
0.00550778
0.0370501
0.00519759
0.035687
0.00490925
0.0343827
0.00464134
0.0331355
0.00439245
0.0319434
0.00416118
0.030804
0.00394623
0.0297151
0.00374633
0.0286742
0.00356032
0.027679
0.00338711
0.0267271
0.00322572
0.0258161
0.00307522
0.0249438
0.00293477
0.0241083
0.00280362
0.0233073
0.00268106
0.0225389
0.00256647
0.0218015
0.00245923
0.021093
0.00235888
0.0204121
0.00226487
0.0197569
0.00217685
0.0191262
0.00209432
0.0185184
0.00201704
0.0179322
0.00194456
0.0173664
0.00187673
0.0168198
0.0018131
0.0162911
0.00175366
0.0157794
0.00169789
0.0152834
0.00164595
0.0148024
0.00159724
0.0143353
0.00155209
0.0138812
0.00150977
0.0134391
0.00147082
0.0130084
0.00143434
0.012588
0.00140112
0.0121773
0.00137002
0.0117755
0.00134213
0.0113818
0.00131604
0.0109954
0.00129317
0.0106158
0.00127178
0.0102422
0.00125365
0.0098739
0.00123668
0.00951017
0.00122307
0.0091506
0.00121027
0.00879426
0.00120095
0.00844086
0.00119205
0.00808946
0.00118677
0.00773988
0.00118145
0.00739116
0.00117985
0.00704326
0.00117764
0.00669521
0.00117921
0.00634714
0.00117947
0.00599814
0.00118344
0.00564849
0.00118545
0.00529746
0.00119041
0.00494523
0.00119411
0.00459209
0.00119668
0.00423651
0.00120467
0.00388268
0.00119688
0.00352308
0.00121668
0.00317135
0.00118738
0.00280946
0.00121942
0.00245897
0.00118529
0.00210856
0.00116561
0.00174139
0.00125815
0.00144523
0.000942409
0.00101009
0.00153177
0.000794684
0.00065443
0.00041338
0.00122793
3.85567e-05
0.00145461
-8.86051e-05
0.000142441
-0.000706589
0.00236007
-0.000500362
-0.00104442
-0.00144253
0.00340828
-0.00140388
0.000138734
-0.00116201
-0.00182569
-0.00264643
0.00632824
-0.00139535
-0.00528839
-0.00326212
0.00696186
-0.0025519
-0.00226584
-0.00229155
-0.0025301
-0.00510046
0.0128641
-0.00126525
-0.0163526
-0.00584792
0.0172435
-0.00480187
-0.00178217
-0.00122585
-0.0174745
-0.0101769
0.0391085
-0.00232142
-0.0322714
-0.00744466
0.0149412
-0.0117736
0.0268498
0.00390669
-0.0656099
-0.0124505
0.0609342
-0.0113383
0.00388712
0.00482147
-0.0683275
-0.000859443
0.0201084
-0.00188991
0.00577368
-0.00364147
0.00851249
0.00474033
0.0648827
0.0109157
-0.0643981
0.065448
0.0114362
0.0660555
0.0119139
0.0666399
0.0123013
0.0671387
0.012574
0.0675033
0.0127276
0.0676984
0.01277
0.0676999
0.0127148
0.0674947
0.0125767
0.0670787
0.0123703
0.0664554
0.0121081
0.0656354
0.0118006
0.0646345
0.0114573
0.0634727
0.0110862
0.0621725
0.0106944
0.0607582
0.0102885
0.059254
0.00987432
0.0576835
0.00945707
0.0560683
0.00904148
0.054428
0.00863158
0.0527794
0.00823074
0.0511367
0.00784167
0.0495115
0.00746639
0.0479129
0.00710635
0.046348
0.00676246
0.0448221
0.00643518
0.0433388
0.00612464
0.0419006
0.00583068
0.0405088
0.00555292
0.0391642
0.00529084
0.0378667
0.00504383
0.0366158
0.0048112
0.0354107
0.00459224
0.0342502
0.00438622
0.033133
0.00419242
0.0320576
0.00401014
0.0310226
0.00383871
0.0300261
0.00367746
0.0290668
0.00352582
0.0281429
0.00338316
0.0272527
0.003249
0.0263948
0.00312277
0.0255676
0.00300409
0.0247695
0.0028924
0.0239991
0.00278747
0.0232549
0.00268872
0.0225356
0.00259605
0.0218398
0.00250886
0.0211663
0.0024272
0.0205138
0.00235042
0.019881
0.00227872
0.0192669
0.00221135
0.0186702
0.00214874
0.01809
0.00208998
0.0175251
0.00203573
0.0169746
0.00198488
0.0164373
0.00193839
0.0159124
0.00189488
0.0153989
0.00185567
0.0148959
0.00181902
0.0144024
0.00178667
0.0139177
0.00175649
0.0134407
0.00173067
0.0129708
0.00170661
0.0125068
0.00168702
0.0120483
0.00166875
0.0115942
0.00165511
0.0111439
0.00164229
0.0106964
0.00163427
0.0102514
0.0016265
0.00980761
0.00162364
0.00936496
0.0016203
0.00892224
0.00162193
0.00847954
0.00162217
0.0080357
0.00162729
0.007591
0.00163016
0.00714452
0.00163689
0.00669639
0.00164224
0.00624692
0.00164615
0.00579427
0.00165732
0.00534331
0.00164784
0.00488516
0.00167483
0.00443603
0.00163651
0.00397413
0.00168132
0.00352637
0.00163304
0.0030763
0.00161567
0.0026101
0.00172434
0.00222103
0.00133148
0.00167777
0.00207503
0.00138458
0.00094763
0.00089636
0.00171616
0.000423118
0.00192785
0.000234033
0.000331533
-0.000511056
0.00310517
-0.000314093
-0.00124137
-0.00145731
0.00455152
-0.00140022
8.2003e-05
-0.00124462
-0.00198126
-0.00290806
0.00799168
-0.00152363
-0.00667283
-0.00373121
0.00916943
-0.00287686
-0.00312021
-0.00276782
-0.00263912
-0.0058185
0.0159147
-0.00153662
-0.0206344
-0.00688923
0.0225962
-0.00550192
-0.00316939
-0.00178668
-0.0211897
-0.0116248
0.0489465
-0.00272632
-0.0411699
-0.00923026
0.0214452
-0.0132682
0.0308877
0.00447638
-0.0833545
-0.014337
0.0797476
-0.0124124
0.00196284
0.00534849
-0.0860884
-0.00101918
0.0264761
-0.00192172
0.00667622
-0.00366937
0.0102601
0.00462379
0.069456
0.0104881
-0.0690284
0.0699395
0.0109527
0.0704599
0.0113935
0.0709814
0.0117798
0.0714645
0.0120909
0.0718754
0.0123167
0.072188
0.0124574
0.072383
0.0125198
0.0724462
0.0125135
0.0723676
0.0124488
0.0721404
0.0123353
0.0717606
0.0121803
0.0712277
0.0119902
0.070544
0.0117699
0.069715
0.0115235
0.0687491
0.0112545
0.0676575
0.010966
0.0664535
0.010661
0.0651522
0.0103428
0.0637694
0.0100144
0.0623211
0.00967903
0.060823
0.00933979
0.0592898
0.00899961
0.057735
0.00866116
0.0561706
0.00832685
0.0546071
0.00799869
0.0530533
0.00767837
0.0515168
0.00736722
0.0500034
0.00706626
0.0485181
0.0067762
0.0470644
0.00649751
0.0456451
0.00623045
0.0442623
0.00597511
0.0429171
0.00573142
0.0416103
0.00549922
0.0403421
0.00527826
0.0391126
0.00506825
0.0379212
0.00486882
0.0367674
0.00467962
0.0356504
0.00450022
0.0345691
0.00433028
0.0335225
0.00416932
0.0325096
0.00401708
0.0315289
0.00387302
0.0305794
0.00373696
0.0296598
0.00360834
0.0287688
0.0034871
0.027905
0.00337259
0.0270673
0.00326492
0.0262544
0.00316334
0.0254649
0.00306816
0.0246978
0.00297848
0.0239517
0.00289486
0.0232255
0.00281619
0.0225179
0.00274332
0.0218279
0.0026749
0.0211541
0.00261212
0.0204957
0.00255329
0.0198514
0.00250004
0.0192201
0.00245026
0.0186007
0.00240607
0.0179923
0.00236488
0.0173937
0.00232936
0.0168039
0.00229634
0.0162218
0.00226916
0.0156466
0.00224393
0.015077
0.00222474
0.0145124
0.0022069
0.0139513
0.00219531
0.0133935
0.00218436
0.0128373
0.0021798
0.0122826
0.00217498
0.0117279
0.00217662
0.0111733
0.00217686
0.0106171
0.00218341
0.0100598
0.00218747
0.00950019
0.00219652
0.00893828
0.00220415
0.0083744
0.00221003
0.00780634
0.00222538
0.00723973
0.00221446
0.00666416
0.00225039
0.00609862
0.00220204
0.00551724
0.00226269
0.00495285
0.00219743
0.00438292
0.00218561
0.00379839
0.00230886
0.00329527
0.0018346
0.00262529
0.00274501
0.0022331
0.00133982
0.00161688
0.00233239
0.00103317
0.00251156
0.000756608
0.000608097
-0.000130512
0.00399229
4.26396e-05
-0.00141452
-0.00132795
0.00592214
-0.00125905
1.3914e-05
-0.00123233
-0.00200795
-0.00306245
0.00982179
-0.00157828
-0.00815701
-0.00412704
0.0117182
-0.00313889
-0.00410838
-0.00322925
-0.00254874
-0.00649315
0.0191786
-0.00181584
-0.0253118
-0.00789837
0.0286787
-0.006189
-0.00487884
-0.00244073
-0.0249379
-0.0130425
0.0595483
-0.00314813
-0.0510643
-0.0110305
0.0293276
-0.0147765
0.0346337
0.00490118
-0.103032
-0.0158712
0.10052
-0.0132543
-0.000654659
0.00559929
-0.104942
-0.00106564
0.0331411
-0.00174094
0.0073515
-0.0033338
0.011853
0.00362009
0.0743367
0.010105
-0.0739535
0.074761
0.0105283
0.0752155
0.010939
0.0756795
0.0113158
0.0761271
0.0116433
0.0765337
0.0119101
0.0768795
0.0121116
0.07715
0.0122493
0.0773347
0.0123287
0.0774264
0.0123572
0.0774192
0.0123425
0.0773079
0.0122916
0.0770884
0.0122097
0.0767566
0.0121017
0.0763094
0.0119706
0.075745
0.0118189
0.075063
0.0116479
0.0742653
0.0114588
0.0733557
0.0112524
0.0723402
0.0110299
0.0712268
0.0107924
0.070025
0.0105416
0.0687454
0.0102792
0.0673994
0.0100071
0.0659987
0.0097276
0.0645546
0.00944274
0.0630783
0.00915471
0.06158
0.00886555
0.0600691
0.00857716
0.058554
0.00829125
0.0570422
0.00800931
0.05554
0.00773261
0.0540529
0.00746221
0.0525854
0.00719895
0.0511411
0.00694351
0.049723
0.00669636
0.0483334
0.00645789
0.0469739
0.00622827
0.0456458
0.00600769
0.0443499
0.00579612
0.0430866
0.0055936
0.041856
0.00539993
0.0406579
0.00521513
0.0394921
0.00503887
0.0383579
0.00487116
0.0372547
0.00471154
0.0361817
0.00456012
0.035138
0.0044163
0.0341225
0.00428034
0.0331344
0.00415145
0.0321725
0.0040301
0.0312357
0.0039153
0.0303227
0.00380779
0.0294326
0.0037063
0.028564
0.00361193
0.0277159
0.00352305
0.0268868
0.00344119
0.0260758
0.00336429
0.0252814
0.00329441
0.0245027
0.00322897
0.0237382
0.00317061
0.0229869
0.00311616
0.0222474
0.00306893
0.0215187
0.00302504
0.0207992
0.00298861
0.0200883
0.00295488
0.0193841
0.00292888
0.0186861
0.00290488
0.0179925
0.00288889
0.0173029
0.00287405
0.0166153
0.0028674
0.0159294
0.00286082
0.0152435
0.00286251
0.0145575
0.00286289
0.0138696
0.00287132
0.01318
0.0028771
0.0124872
0.00288925
0.0117913
0.00290008
0.0110925
0.00290882
0.0103881
0.00292974
0.0096847
0.0029179
0.00897006
0.00296503
0.00826621
0.00290589
0.00754281
0.00298609
0.00683928
0.00290095
0.00612592
0.00289896
0.00540038
0.00303441
0.00475834
0.00247664
0.00393975
0.00356361
0.00342298
0.00185659
0.00265476
0.00310061
0.00194109
0.00322523
0.00154546
0.00100373
0.000500558
0.00503719
0.000595019
-0.00150897
-0.000994319
0.0075115
-0.000919795
-6.13978e-05
-0.00107311
-0.0018546
-0.00305745
0.0118061
-0.00151842
-0.00969604
-0.00439974
0.0145995
-0.00329519
-0.00521295
-0.00363019
-0.00221371
-0.0070905
0.0226388
-0.00208216
-0.0303201
-0.00882746
0.035424
-0.0068318
-0.00687453
-0.00315132
-0.0286183
-0.0144128