/*--------------------------------*- C++ -*----------------------------------*\
| =========                 |                                                 |
| \\      /  F ield         | OpenFOAM: The Open Source CFD Toolbox           |
|  \\    /   O peration     | Version:  2412                                  |
|   \\  /    A nd           | Website:  www.openfoam.com                      |
|    \\/     M anipulation  |                                                 |
\*---------------------------------------------------------------------------*/
FoamFile
{
    version     2.0;
    format      ascii;
    arch        "LSB;label=32;scalar=64";
    class       surfaceScalarField;
    location    "1";
    object      phi_0;
}
// * * * * * * * * * * * * * * * * * * * * * * * * * * * * * * * * * * * * * //

dimensions      [0 3 -1 0 0 0 0];

oriented        oriented;

internalField   nonuniform List<scalar> 
24930
(
0.0179839
0.0127754
-0.0307572
0.0106102
0.00737365
0.0069552
0.00365502
0.0051772
0.001778
0.0042042
0.000972994
0.00358076
0.000623444
0.00313448
0.000446283
0.00279473
0.000339747
0.00252538
0.000269355
0.00230534
0.000220047
0.00212143
0.000183906
0.00196493
0.000156504
0.00182977
0.000135159
0.00171161
0.000118163
0.00160723
0.000104381
0.0015142
9.30298e-05
0.00143065
8.35526e-05
0.0013551
7.55468e-05
0.00128639
6.87137e-05
0.00122357
6.28279e-05
0.00116585
5.77167e-05
0.00111261
5.32457e-05
0.0010633
4.93089e-05
0.00101748
4.58218e-05
0.00097476
4.27164e-05
0.000934822
3.99372e-05
0.000897383
3.74389e-05
0.000862199
3.51838e-05
0.000829057
3.31408e-05
0.000797773
3.12834e-05
0.000768182
2.95896e-05
0.000740141
2.80403e-05
0.00071352
2.66198e-05
0.000688205
2.53139e-05
0.000664093
2.41111e-05
0.000641092
2.30004e-05
0.000619117
2.1974e-05
0.000598094
2.10225e-05
0.000577953
2.01409e-05
0.000558632
1.9321e-05
0.000540071
1.85601e-05
0.00052222
1.78503e-05
0.000505028
1.71916e-05
0.000488453
1.65751e-05
0.000472448
1.6004e-05
0.00045698
1.54675e-05
0.000442007
1.49727e-05
0.0004275
1.45056e-05
0.000413422
1.40781e-05
0.000399749
1.36717e-05
0.000386444
1.33046e-05
0.000373492
1.29518e-05
0.000360853
1.26396e-05
0.000348518
1.23347e-05
0.000336445
1.2073e-05
0.000324634
1.18111e-05
0.000313038
1.15967e-05
0.000301665
1.13736e-05
0.000290462
1.1204e-05
0.000279446
1.10161e-05
0.000268557
1.08893e-05
0.000257824
1.07336e-05
0.000247177
1.0648e-05
0.000236656
1.05215e-05
0.000226181
1.04756e-05
0.000215806
1.03755e-05
0.000205438
1.03675e-05
0.000195147
1.0291e-05
0.000184828
1.03184e-05
0.000174565
1.02624e-05
0.000164244
1.03208e-05
0.000153963
1.0281e-05
0.000143599
1.03635e-05
0.000133264
1.03351e-05
0.000122834
1.04306e-05
0.000112425
1.041e-05
0.000101926
1.05001e-05
9.14369e-05
1.04893e-05
8.0893e-05
1.05438e-05
7.03412e-05
1.05512e-05
5.97984e-05
1.05417e-05
4.92607e-05
1.05361e-05
3.8708e-05
1.05508e-05
2.84671e-05
1.02389e-05
1.76536e-05
1.08116e-05
8.37264e-06
9.27977e-06
-3.43145e-06
1.18036e-05
-1.02895e-05
6.85868e-06
-2.38134e-05
1.35277e-05
-3.15449e-05
7.73653e-06
-3.50363e-05
3.49269e-06
-5.80024e-05
2.29678e-05
-4.82447e-05
-9.78293e-06
-7.83519e-05
3.01023e-05
-6.12534e-05
-1.70908e-05
-8.76598e-05
2.6398e-05
-0.000114877
2.72355e-05
-5.34359e-05
-6.1442e-05
-0.000156852
0.000103425
-7.71938e-05
-7.9656e-05
-0.000143539
6.63342e-05
-0.000157204
1.36398e-05
-5.67435e-05
-0.000100486
-0.000296113
0.000239395
-4.17241e-05
-0.000254402
-0.000205649
0.000163902
-0.000321203
0.000115594
5.32493e-05
-0.000374519
-0.000574539
0.000627828
-0.000151217
-0.000423304
-0.00011964
-3.16791e-05
-0.000857618
0.000738033
0.000138821
-0.000996481
-0.000407875
0.000546652
-0.000830343
0.00042253
0.000146363
-0.000976708
3.06784e-05
0.000115661
-7.27188e-05
0.000103394
-0.000238605
0.000165901
0.000110481
0.0337059
0.0163455
-0.037276
0.0277618
0.0133178
0.0222024
0.00921445
0.0179231
0.00605726
0.0148736
0.00402252
0.0127109
0.00278613
0.0111224
0.00203483
0.00990426
0.00155784
0.00893627
0.00123735
0.00814535
0.00101097
0.00748468
0.000844577
0.00692293
0.000718256
0.0064383
0.000619798
0.00601508
0.000541381
0.00564168
0.000477788
0.0053093
0.000425412
0.00501116
0.000381696
0.00474193
0.00034478
0.00449736
0.000313285
0.00427402
0.000286169
0.0040691
0.000262635
0.00388029
0.000242059
0.00370565
0.000223953
0.00354355
0.000207923
0.00339261
0.000193657
0.00325165
0.000180896
0.00311965
0.000169432
0.00299575
0.000159089
0.00287916
0.000149724
0.00276923
0.000141214
0.00266536
0.000133458
0.00256703
0.000126367
0.00247378
0.000119868
0.0023852
0.000113896
0.00230091
0.000108397
0.00222058
0.000103322
0.00214392
9.86326e-05
0.00207066
9.42884e-05
0.00200053
9.02623e-05
0.00193333
8.65211e-05
0.00186885
8.30474e-05
0.00180688
7.98106e-05
0.00174727
7.68028e-05
0.00168985
7.39933e-05
0.00163447
7.1384e-05
0.001581
6.89407e-05
0.00152929
6.66769e-05
0.00147925
6.4551e-05
0.00143073
6.25907e-05
0.00138366
6.0743e-05
0.00133791
5.90531e-05
0.00129341
5.7452e-05
0.00125004
5.60065e-05
0.00120775
5.46261e-05
0.00116642
5.34042e-05
0.00112601
5.22232e-05
0.00108639
5.12088e-05
0.00104756
5.02092e-05
0.00100937
4.93891e-05
0.000971835
4.8556e-05
0.000934806
4.79199e-05
0.0008983
4.72404e-05
0.000862169
4.678e-05
0.00082645
4.6242e-05
0.000790977
4.59495e-05
0.000755812
4.55415e-05
0.000720772
4.54083e-05
0.000685945
4.51183e-05
0.000651131
4.51332e-05
0.000616446
4.49473e-05
0.000581674
4.50924e-05
0.000546964
4.49907e-05
0.000512088
4.52394e-05
0.000477226
4.51972e-05
0.000442148
4.55086e-05
0.000407054
4.55047e-05
0.000371749
4.58056e-05
0.000336391
4.58485e-05
0.000300942
4.59929e-05
0.000265322
4.6172e-05
0.000229951
4.59118e-05
0.000194155
4.63312e-05
0.000159055
4.56499e-05
0.000123727
4.55651e-05
8.82632e-05
4.62735e-05
5.57003e-05
4.18408e-05
1.69609e-05
5.05407e-05
-6.36517e-06
3.01842e-05
-5.45639e-05
6.17247e-05
-7.40049e-05
2.71777e-05
-9.82349e-05
2.77263e-05
-0.000160078
8.48117e-05
-0.000142338
-2.74953e-05
-0.000232674
0.000120441
-0.000178094
-7.16801e-05
-0.00028441
0.000132724
-0.000328909
7.17241e-05
-0.000183763
-0.000206577
-0.000474542
0.000394198
-0.000241826
-0.00031237
-0.000476871
0.000301376
-0.000454474
-8.69561e-06
-0.000222814
-0.000332142
-0.000883019
0.000899579
-0.000140971
-0.000996435
-0.000722013
0.000744943
-0.000905643
0.000299141
8.11772e-05
-0.00136131
-0.00174391
0.00245289
-0.000413447
-0.00175375
-0.000537836
9.28317e-05
-0.00245112
0.00265128
0.000460924
-0.00390848
-0.00147032
0.0024779
-0.00242252
0.00137467
0.000525491
-0.0039247
5.31003e-05
0.000588068
-0.000275459
0.000431945
-0.000732143
0.000622574
0.000456332
0.0414796
0.0160422
-0.0411763
0.0391857
0.0156117
0.0352506
0.0131496
0.0309589
0.010349
0.0270395
0.0079419
0.023747
0.00607867
0.0210699
0.00471189
0.0188992
0.00372856
0.01712
0.00301653
0.0156396
0.00249137
0.0143889
0.00209524
0.0133176
0.00178956
0.0123887
0.0015487
0.0115747
0.0013554
0.0108548
0.00119774
0.0102128
0.00106735
0.00963638
0.000958159
0.00911544
0.000865727
0.00864201
0.000786716
0.00820959
0.000718591
0.00781283
0.000659394
0.0074473
0.000607594
0.00710928
0.000561977
0.00679563
0.000521573
0.00650369
0.000485597
0.00623117
0.000453411
0.00597611
0.000424488
0.00573681
0.000398392
0.00551177
0.00037476
0.0052997
0.000353286
0.00509944
0.000333713
0.00490999
0.000315819
0.00473043
0.00029942
0.00455997
0.000284352
0.00439789
0.000270478
0.00424354
0.000257676
0.00409632
0.000245844
0.00395572
0.000234887
0.00382126
0.00022473
0.00369248
0.000215295
0.003569
0.000206531
0.00345044
0.000198369
0.00333646
0.000190779
0.00322676
0.000183695
0.00312103
0.000177108
0.00301903
0.000170948
0.00292047
0.000165227
0.00282515
0.000159868
0.00273284
0.000154908
0.00264333
0.000150251
0.00255641
0.000145966
0.00247193
0.000141932
0.00238968
0.000138255
0.00230953
0.000134778
0.00223128
0.000131655
0.00215482
0.000128684
0.00207995
0.000126073
0.0020066
0.000123562
0.00193456
0.000121429
0.00186378
0.000119343
0.00179404
0.000117658
0.00172532
0.000115966
0.00165739
0.000114709
0.00159025
0.000113382
0.00152367
0.000112531
0.00145767
0.000111542
0.001392
0.000111076
0.00132673
0.000110396
0.00126157
0.000110287
0.00119664
0.000109882
0.00113164
0.000110089
0.00106672
0.00010991
0.00100159
0.000110373
0.000936429
0.000110356
0.000870955
0.000110983
0.000805392
0.000111069
0.000739506
0.000111694
0.000673456
0.000111899
0.000607293
0.000112156
0.000540716
0.000112749
0.000474715
0.000111912
0.00040764
0.000113404
0.000342307
0.00011098
0.000275636
0.000112234
0.000210047
0.00011186
0.000147899
0.000103986
7.65753e-05
0.000121863
3.0688e-05
7.60705e-05
-5.92113e-05
0.000151624
-9.18109e-05
5.97799e-05
-0.000147065
8.29844e-05
-0.000249495
0.000187245
-0.000229728
-4.72595e-05
-0.000386708
0.000277422
-0.000294387
-0.000164001
-0.000499521
0.000337865
-0.00054666
0.000118866
-0.000333903
-0.000419326
-0.000818401
0.000878697
-0.00042275
-0.000708021
-0.000859688
0.000738311
-0.000770024
-9.84386e-05
-0.000440024
-0.000662143
-0.00151345
0.001973
-0.000262636
-0.00224725
-0.00134721
0.00182952
-0.00150538
0.000457415
4.61269e-05
-0.00291281
-0.00301027
0.00550928
-0.000680196
-0.00408385
-0.00114714
0.000559709
-0.00405971
0.00556384
0.000866509
-0.00883472
-0.00280874
0.00615317
-0.00404342
0.00260936
0.00103477
-0.0090029
2.62418e-05
0.00159659
-0.000529664
0.000987854
-0.00126832
0.00136123
0.00102397
0.0459432
0.0147426
-0.0446436
0.0460247
0.0155302
0.0444427
0.0147316
0.041715
0.0130767
0.0384671
0.0111898
0.0351582
0.00938758
0.0320561
0.00781397
0.0292754
0.00650927
0.0268349
0.00545704
0.0247085
0.00461779
0.022855
0.00394876
0.0212324
0.00341219
0.0198034
0.0029777
0.0185367
0.00262202
0.0174069
0.00232762
0.0163929
0.00208136
0.0154777
0.00187332
0.0146475
0.00169597
0.0138907
0.00154353
0.0131978
0.00141149
0.0125608
0.00129632
0.0119732
0.00119524
0.0114292
0.00110599
0.010924
0.00102678
0.0104534
0.000956123
0.010014
0.000892814
0.00960267
0.000835853
0.00921666
0.000784404
0.00885364
0.000737772
0.00851156
0.000695366
0.00818858
0.000656687
0.00788309
0.00062131
0.00759364
0.00058887
0.00731894
0.000559051
0.00705783
0.000531586
0.00680927
0.000506235
0.00657231
0.000482798
0.00634611
0.000461089
0.00612988
0.000440959
0.00592291
0.000422258
0.00572456
0.000404881
0.00553423
0.000388698
0.00535137
0.00037364
0.00517547
0.00035959
0.00500607
0.000346513
0.00484272
0.000334291
0.00468502
0.000322926
0.0045326
0.000312288
0.00438508
0.000302422
0.00424216
0.000293174
0.00410349
0.000284636
0.0039688
0.000276621
0.00383777
0.000269277
0.00371018
0.000262368
0.00358573
0.000256111
0.00346421
0.000250203
0.00334534
0.000244945
0.00322895
0.000239952
0.00311476
0.000235624
0.00300262
0.000231477
0.00289226
0.000228022
0.00278357
0.00022466
0.00267624
0.000222033
0.00257023
0.000219402
0.0024652
0.00021756
0.00236113
0.000215608
0.0022577
0.00021451
0.00215491
0.000213183
0.00205242
0.000212775
0.0019503
0.000212008
0.00184817
0.000212215
0.00174617
0.000211913
0.00164392
0.000212623
0.00154161
0.000212662
0.00143888
0.000213712
0.00133598
0.000213968
0.00123263
0.000215052
0.00112898
0.000215551
0.00102516
0.000215972
0.000920654
0.000217256
0.000817044
0.000215521
0.000711629
0.000218818
0.000609107
0.0002135
0.000503926
0.000217412
0.000401362
0.000214421
0.000302418
0.000202928
0.000191703
0.000232575
0.000116396
0.000151377
-2.39092e-05
0.000291929
-7.21675e-05
0.000108039
-0.000169426
0.000180248
-0.00031614
0.000333961
-0.000300355
-6.30421e-05
-0.000532183
0.00050925
-0.000404174
-0.000292008
-0.000724088
0.000657787
-0.000764448
0.00015923
-0.000499581
-0.000684182
-0.00118523
0.00156434
-0.000617397
-0.00127585
-0.00128679
0.0014077
-0.00110587
-0.00027934
-0.000709608
-0.0010584
-0.00218567
0.00344905
-0.000409501
-0.00402342
-0.00207758
0.0034976
-0.00212512
0.000504707
-4.66736e-05
-0.00499127
-0.00436306
0.00982568
-0.000960643
-0.00748627
-0.00196606
0.00156517
-0.00566375
0.00926151
0.00136018
-0.0158587
-0.0044134
0.0119268
-0.00565816
0.00385409
0.00167835
-0.0163394
-6.89417e-05
0.00334391
-0.000823436
0.00174234
-0.00183219
0.00236998
0.00177409
0.0494101
0.0135483
-0.0482158
0.0503733
0.0145671
0.05039
0.0147149
0.0493656
0.014101
0.047518
0.0130374
0.04514
0.0117656
0.0425035
0.0104504
0.0398153
0.0091975
0.0372103
0.00806207
0.034763
0.00706506
0.0325057
0.00620608
0.0304443
0.00547362
0.0285703
0.00485169
0.0268687
0.00432357
0.0253225
0.00387389
0.0239145
0.00348929
0.0226292
0.00315863
0.0214525
0.00287273
0.0203719
0.00262414
0.0193766
0.00240679
0.0184572
0.00221572
0.0176055
0.00204692
0.0168144
0.00189706
0.0160778
0.00176343
0.0153901
0.00164375
0.0147468
0.00153616
0.0141436
0.00143907
0.0135768
0.00135115
0.0130433
0.00127129
0.0125402
0.00119852
0.0120648
0.00113204
0.011615
0.00107115
0.0111886
0.00101524
0.0107839
0.000963785
0.0103991
0.000916346
0.0100328
0.000872519
0.00968364
0.000831967
0.00935035
0.000794377
0.00903181
0.000759498
0.00872699
0.000727077
0.00843494
0.00069693
0.00815479
0.000668844
0.00788574
0.000642692
0.00762704
0.000618284
0.00737801
0.000595547
0.007138
0.000574296
0.00690641
0.000554512
0.0066827
0.000535999
0.00646632
0.000518801
0.0062568
0.000502693
0.00605365
0.000487786
0.00585646
0.000473812
0.00566477
0.000460961
0.00547824
0.000448902
0.00529643
0.000437921
0.00511903
0.000427599
0.00494564
0.000418335
0.00477599
0.000409601
0.00460969
0.000401933
0.0044465
0.000394668
0.00428602
0.000388496
0.00412809
0.000382597
0.00397228
0.00037784
0.00381847
0.000373217
0.00366623
0.000369802
0.00351547
0.000366368
0.00336576
0.000364222
0.00321705
0.000361889
0.00306891
0.000360924
0.00292133
0.000359582
0.00277387
0.000359675
0.00262662
0.000359164
0.00247911
0.000360136
0.00233152
0.000360247
0.0021834
0.000361833
0.00203502
0.000362351
0.00188602
0.000364056
0.00173656
0.000365005
0.00158686
0.000365679
0.00143613
0.000367979
0.00128661
0.000365046
0.00113446
0.000370962
0.000986427
0.000361535
0.00083421
0.000369626
0.00068642
0.000362208
0.000542075
0.000347269
0.000383794
0.000390854
0.000270788
0.000264382
7.31599e-05
0.000489557
4.77811e-06
0.000176423
-0.000150187
0.000335217
-0.00034498
0.000528755
-0.00034148
-6.65351e-05
-0.000656857
0.000824627
-0.000497252
-0.00045161
-0.000947955
0.0011085
-0.000973788
0.000185065
-0.000675867
-0.00098209
-0.00156644
0.00245492
-0.000820829
-0.00202147
-0.00175277
0.00233964
-0.00145935
-0.000572762
-0.00103305
-0.0014847
-0.00289169
0.00530767
-0.000583069
-0.00633204
-0.00290822
0.00582276
-0.00276523
0.000362303
-0.000194624
-0.00756187
-0.00578066
0.0154117
-0.00126101
-0.0120059
-0.00301006
0.00331425
-0.00724092
0.0134923
0.00193708
-0.0250367
-0.00625506
0.0201189
-0.00722709
0.00482611
0.00243747
-0.026004
-0.000225816
0.00600721
-0.00113832
0.00265484
-0.00239744
0.00362909
0.00264105
0.0528694
0.0126503
-0.0519714
0.0538975
0.013539
0.0545805
0.0140318
0.0546482
0.0140333
0.0540479
0.0136378
0.0528488
0.0129647
0.0511804
0.0121188
0.0491892
0.0111887
0.04701
0.0102413
0.0447534
0.0093216
0.0425019
0.00845759
0.0403115
0.00766399
0.0382169
0.00694629
0.0362366
0.00630391
0.0343779
0.00573259
0.032641
0.00522618
0.0310218
0.00477782
0.0295139
0.00438068
0.0281096
0.0040284
0.0268012
0.0037152
0.0255809
0.00343603
0.0244414
0.00318645
0.0233758
0.00296267
0.0223778
0.00276139
0.0214418
0.00257982
0.0205624
0.00241553
0.019735
0.00226646
0.0189553
0.00213083
0.0182195
0.00200711
0.017524
0.00189397
0.0168658
0.00179026
0.016242
0.00169499
0.0156499
0.0016073
0.0150873
0.00152642
0.0145519
0.00145169
0.0140419
0.00138253
0.0135554
0.00131843
0.0130909
0.00125893
0.0126467
0.00120364
0.0122216
0.00115219
0.0118143
0.00110429
0.0114235
0.00105962
0.0110482
0.00101798
0.0106874
0.000979088
0.0103401
0.000942817
0.0100055
0.000908899
0.00968275
0.000877283
0.00937105
0.000847692
0.00906969
0.000820157
0.00877801
0.000794371
0.00849534
0.000770458
0.00822109
0.000748055
0.00795466
0.000727394
0.00769553
0.000708031
0.00744313
0.000690325
0.00719701
0.000673721
0.00695661
0.000658731
0.00672156
0.000644656
0.00649131
0.000632186
0.00626552
0.000620452
0.00604367
0.000610345
0.00582548
0.000600793
0.0056104
0.00059292
0.00539821
0.000585409
0.00518836
0.000579654
0.00498068
0.000574052
0.0047746
0.000570302
0.00457001
0.000566474
0.00436634
0.000564595
0.00416355
0.000562373
0.00396105
0.000562178
0.00375889
0.00056132
0.00355648
0.000562543
0.003354
0.000562726
0.00315087
0.000564968
0.00294737
0.000565849
0.00274306
0.000568374
0.0025381
0.000569967
0.00233274
0.000571036
0.00212599
0.000574728
0.00192069
0.000570341
0.00171187
0.00057979
0.0015084
0.000564996
0.00129902
0.000579004
0.00109615
0.000565075
0.000896124
0.000547292
0.000680544
0.000606431
0.000519672
0.000425253
0.000255423
0.000753806
0.000147962
0.000283884
-7.00016e-05
0.000553186
-0.000315544
0.000774301
-0.000336031
-4.60552e-05
-0.000743945
0.00123254
-0.000559059
-0.000636493
-0.00115675
0.0017062
-0.00116243
0.000190699
-0.000854652
-0.00128986
-0.00194943
0.00354969
-0.00102593
-0.00294496
-0.00224815
0.00356186
-0.00182494
-0.000995991
-0.00140932
-0.00190031
-0.00362105
0.00751938
-0.000784101
-0.009169
-0.00382763
0.00886631
-0.00342523
-4.14747e-05
-0.000434239
-0.0105528
-0.00723742
0.0222149
-0.00158585
-0.0176575
-0.00428494
0.00601338
-0.00877909
0.0179864
0.00258008
-0.0363958
-0.00827559
0.0309746
-0.00871482
0.0052653
0.00326751
-0.0379863
-0.000426054
0.00970079
-0.00144739
0.00367617
-0.00292562
0.00510731
0.00352604
0.0565907
0.0119634
-0.0559038
0.057444
0.0126857
0.0582401
0.0132357
0.0587661
0.0135073
0.0588998
0.0135041
0.0585953
0.0132692
0.057862
0.0128522
0.0567477
0.012303
0.055321
0.011668
0.0536573
0.0109853
0.0518301
0.0102848
0.0499049
0.00958923
0.0479363
0.00891493
0.0459673
0.00827288
0.0440301
0.00766983
0.0421471
0.00710918
0.040333
0.0065919
0.0385965
0.00611718
0.0369418
0.0056831
0.0353699
0.00528706
0.0338798
0.00492612
0.032469
0.00459726
0.0311342
0.00429752
0.0298715
0.00402411
0.0286768
0.00377444
0.0275462
0.00354613
0.0264757
0.00333704
0.0254612
0.00314525
0.0244993
0.00296904
0.0235864
0.00280689
0.0227192
0.00265743
0.0218948
0.00251945
0.0211102
0.00239188
0.0203628
0.00227376
0.0196503
0.00216424
0.0189703
0.00206255
0.0183207
0.00196803
0.0176995
0.00188007
0.017105
0.00179815
0.0165355
0.00172174
0.0159893
0.00165047
0.015465
0.00158389
0.0149613
0.00152172
0.0144768
0.00146357
0.0140103
0.00140925
0.0135608
0.00135839
0.0131272
0.00131092
0.0127085
0.00126644
0.0123036
0.00122498
0.0119119
0.00118614
0.0115323
0.00115004
0.0111641
0.00111622
0.0108066
0.00108495
0.010459
0.00105565
0.0101205
0.00102877
0.00979065
0.00100359
0.00946863
0.000980746
0.00915394
0.000959348
0.00884587
0.000940261
0.00854395
0.00092237
0.00824749
0.000906805
0.0079561
0.000892193
0.00766906
0.000879957
0.00738605
0.00086842
0.00710636
0.000859345
0.00682972
0.000850691
0.00655541
0.000844614
0.00628324
0.000838651
0.00601245
0.000835379
0.00574296
0.000831869
0.005474
0.000831137
0.00520558
0.000829734
0.00493696
0.000831166
0.00466829
0.0008314
0.00439882
0.000834432
0.00412887
0.000835798
0.00385786
0.000839387
0.00358596
0.000841868
0.00331346
0.000843542
0.0030391
0.000849088
0.00276638
0.000843056
0.0024891
0.000857072
0.00221845
0.000835644
0.0019399
0.000857548
0.0016702
0.000834769
0.00140225
0.000815244
0.00111778
0.000890898
0.000896681
0.000646348
0.000553805
0.00109668
0.000399133
0.000438556
0.000104927
0.000847397
-0.000200092
0.00107932
-0.000261287
1.51535e-05
-0.000770651
0.00174191
-0.000569351
-0.000837789
-0.00133068
0.00246754
-0.00131335
0.000173476
-0.00102323
-0.00157996
-0.00231705
0.00484351
-0.00122223
-0.00403979
-0.00275842
0.00509804
-0.0021935
-0.00156092
-0.00183324
-0.00226056
-0.0043617
0.0100478
-0.001012
-0.0125187
-0.00481707
0.0126714
-0.00410455
-0.000752735
-0.000776521
-0.0138809
-0.00870899
0.0301473
-0.00193752
-0.024429
-0.00577778
0.0098537
-0.0102828
0.0224914
0.00325512
-0.0499338
-0.010384
0.0446138
-0.0100932
0.00497457
0.0040949
-0.0521745
-0.000648952
0.0144447
-0.00171411
0.00474133
-0.00336397
0.00675715
0.00428868
0.0605972
0.0114003
-0.0600341
0.0612815
0.0120015
0.0619958
0.0125213
0.0626174
0.0128857
0.0630487
0.0130728
0.0632256
0.0130922
0.0631127
0.0129651
0.0626994
0.0127163
0.061996
0.0123715
0.061027
0.0119543
0.059827
0.0114848
0.0584356
0.0109806
0.0568942
0.0104564
0.0552428
0.00992429
0.0535183
0.00939427
0.0517533
0.0088742
0.0499751
0.00837014
0.0482057
0.00788652
0.0464625
0.00742631
0.0447583
0.00699126
0.0431023
0.00658215
0.0415006
0.00619898
0.0399569
0.00584117
0.0384733
0.00550778
0.0370501
0.00519759
0.035687
0.00490925
0.0343827
0.00464134
0.0331355
0.00439245
0.0319434
0.00416118
0.030804
0.00394623
0.0297151
0.00374633
0.0286743
0.00356031
0.027679
0.00338711
0.0267271
0.00322572
0.0258161
0.00307522
0.0249438
0.00293477
0.0241083
0.00280362
0.0233073
0.00268106
0.022539
0.00256646
0.0218015
0.00245923
0.0210931
0.00235888
0.0204121
0.00226487
0.019757
0.00217684
0.0191262
0.00209432
0.0185184
0.00201704
0.0179322
0.00194455
0.0173664
0.00187673
0.0168198
0.00181309
0.0162911
0.00175365
0.0157794
0.00169788
0.0152834
0.00164595
0.0148024
0.00159723
0.0143353
0.00155209
0.0138812
0.00150976
0.0134391
0.00147082
0.0130084
0.00143434
0.012588
0.00140111
0.0121773
0.00137002
0.0117755
0.00134213
0.0113818
0.00131604
0.0109954
0.00129316
0.0106159
0.00127178
0.0102422
0.00125365
0.0098739
0.00123668
0.00951018
0.00122307
0.0091506
0.00121026
0.00879427
0.00120095
0.00844087
0.00119205
0.00808947
0.00118677
0.00773989
0.00118145
0.00739118
0.00117985
0.00704327
0.00117764
0.00669522
0.00117921
0.00634716
0.00117947
0.00599815
0.00118344
0.0056485
0.00118545
0.00529748
0.00119041
0.00494524
0.0011941
0.0045921
0.00119669
0.00423653
0.00120466
0.0038827
0.00119689
0.0035231
0.00121667
0.00317137
0.00118737
0.00280947
0.00121944
0.002459
0.00118524
0.00210857
0.00116567
0.00174143
0.00125804
0.00144522
0.000942552
0.00101009
0.00153182
0.00079481
0.000653835
0.000413251
0.00122896
3.86277e-05
0.00145395
-8.85601e-05
0.000142337
-0.000706458
0.0023598
-0.000500393
-0.00104385
-0.0014429
0.00341006
-0.00140308
0.00013345
-0.00116259
-0.00182043
-0.00264659
0.00632751
-0.00139491
-0.00529147
-0.00326251
0.00696565
-0.00255077
-0.00227268
-0.00229344
-0.00251788
-0.00509961
0.012854
-0.00126435
-0.016354
-0.00584979
0.0172569
-0.00479889
-0.00180411
-0.00122899
-0.0174507
-0.0101755
0.0390938
-0.0023167
-0.0322878
-0.00745108
0.0149881
-0.0117706
0.0268109
0.00390967
-0.0656141
-0.0124568
0.0609803
-0.0113369
0.00385455
0.00482277
-0.0683341
-0.000862607
0.0201301
-0.00189184
0.00577055
-0.00364232
0.00850763
0.0047375
0.0648827
0.0109157
-0.0643981
0.065448
0.0114362
0.0660555
0.0119139
0.0666399
0.0123013
0.0671387
0.012574
0.0675033
0.0127276
0.0676984
0.01277
0.0676999
0.0127148
0.0674947
0.0125767
0.0670787
0.0123703
0.0664554
0.0121081
0.0656354
0.0118006
0.0646345
0.0114573
0.0634727
0.0110862
0.0621725
0.0106944
0.0607582
0.0102885
0.059254
0.00987432
0.0576835
0.00945707
0.0560683
0.00904148
0.054428
0.00863158
0.0527794
0.00823074
0.0511367
0.00784167
0.0495115
0.00746639
0.0479129
0.00710635
0.046348
0.00676246
0.0448221
0.00643518
0.0433388
0.00612464
0.0419006
0.00583068
0.0405088
0.00555291
0.0391642
0.00529084
0.0378667
0.00504383
0.0366158
0.0048112
0.0354107
0.00459224
0.0342502
0.00438622
0.033133
0.00419242
0.0320576
0.00401014
0.0310226
0.00383871
0.0300261
0.00367746
0.0290668
0.00352582
0.0281429
0.00338316
0.0272527
0.003249
0.0263948
0.00312277
0.0255676
0.00300408
0.0247695
0.0028924
0.0239991
0.00278746
0.0232549
0.00268872
0.0225356
0.00259604
0.0218399
0.00250886
0.0211663
0.0024272
0.0205138
0.00235041
0.019881
0.00227872
0.0192669
0.00221135
0.0186702
0.00214874
0.01809
0.00208997
0.0175251
0.00203573
0.0169746
0.00198487
0.0164373
0.00193839
0.0159124
0.00189488
0.0153989
0.00185566
0.0148959
0.00181902
0.0144024
0.00178667
0.0139177
0.00175649
0.0134407
0.00173067
0.0129708
0.00170661
0.0125068
0.00168702
0.0120483
0.00166875
0.0115942
0.00165511
0.011144
0.00164229
0.0106965
0.00163427
0.0102514
0.0016265
0.00980762
0.00162364
0.00936497
0.00162029
0.00892226
0.00162193
0.00847956
0.00162216
0.00803571
0.00162728
0.00759101
0.00163015
0.00714454
0.00163689
0.00669641
0.00164223
0.00624694
0.00164616
0.00579429
0.00165731
0.00534333
0.00164785
0.00488518
0.00167482
0.00443605
0.0016365
0.00397415
0.00168134
0.0035264
0.00163299
0.00307631
0.00161575
0.00261015
0.00172419
0.00222103
0.00133167
0.00167778
0.00207507
0.00138472
0.000946897
0.000896218
0.00171747
0.00042321
0.00192696
0.000234083
0.000331472
-0.0005109
0.00310479
-0.00031414
-0.00124061
-0.00145769
0.00455363
-0.00139931
7.55875e-05
-0.00124532
-0.0019744
-0.00290818
0.00799036
-0.00152314
-0.00667651
-0.0037316
0.0091741
-0.00287558
-0.00312873
-0.00277001
-0.00262344
-0.00581748
0.0159014
-0.00153565
-0.0206358
-0.00689117
0.0226124
-0.00549856
-0.00319662
-0.00179051
-0.0211587
-0.0116231
0.0489263
-0.00272106
-0.0411899
-0.00923725
0.0215044
-0.0132649
0.0308385
0.00447912
-0.0833581
-0.0143435
0.079803
-0.0124104
0.00192173
0.0053495
-0.0860941
-0.00102281
0.0265024
-0.00192376
0.00667149
-0.00367027
0.0102541
0.00462002
0.069456
0.0104881
-0.0690284
0.0699395
0.0109527
0.0704599
0.0113935
0.0709814
0.0117798
0.0714645
0.0120909
0.0718754
0.0123167
0.072188
0.0124574
0.072383
0.0125198
0.0724462
0.0125135
0.0723676
0.0124488
0.0721404
0.0123353
0.0717606
0.0121803
0.0712277
0.0119901
0.070544
0.0117698
0.069715
0.0115235
0.0687491
0.0112545
0.0676574
0.010966
0.0664535
0.010661
0.0651522
0.0103428
0.0637694
0.0100144
0.0623211
0.00967903
0.060823
0.00933979
0.0592898
0.0089996
0.057735
0.00866116
0.0561706
0.00832685
0.0546071
0.00799869
0.0530533
0.00767837
0.0515168
0.00736722
0.0500035
0.00706626
0.0485181
0.0067762
0.0470644
0.00649751
0.0456451
0.00623045
0.0442623
0.00597511
0.0429171
0.00573141
0.0416103
0.00549922
0.0403421
0.00527826
0.0391126
0.00506825
0.0379212
0.00486882
0.0367674
0.00467962
0.0356504
0.00450021
0.0345691
0.00433028
0.0335226
0.00416932
0.0325096
0.00401707
0.0315289
0.00387302
0.0305794
0.00373696
0.0296598
0.00360834
0.0287688
0.00348709
0.027905
0.00337259
0.0270673
0.00326491
0.0262544
0.00316334
0.0254649
0.00306816
0.0246978
0.00297848
0.0239517
0.00289485
0.0232255
0.00281618
0.0225179
0.00274332
0.0218279
0.00267489
0.0211542
0.00261212
0.0204957
0.00255328
0.0198514
0.00250004
0.0192201
0.00245025
0.0186007
0.00240607
0.0179924
0.00236487
0.0173937
0.00232936
0.0168039
0.00229634
0.0162218
0.00226916
0.0156466
0.00224392
0.015077
0.00222474
0.0145124
0.0022069
0.0139514
0.00219531
0.0133935
0.00218435
0.0128373
0.0021798
0.0122827
0.00217498
0.011728
0.00217662
0.0111733
0.00217686
0.0106171
0.00218341
0.0100598
0.00218746
0.00950021
0.00219652
0.0089383
0.00220414
0.00837442
0.00221004
0.00780637
0.00222536
0.00723975
0.00221447
0.00666419
0.00225038
0.00609865
0.00220204
0.00551727
0.00226272
0.00495289
0.00219736
0.00438294
0.0021857
0.00379844
0.00230868
0.00329527
0.00183484
0.0026253
0.00274504
0.00223326
0.00133894
0.00161673
0.00233401
0.00103328
0.0025104
0.00075666
0.000608097
-0.000130308
0.00399176
4.25762e-05
-0.00141349
-0.00132834
0.00592456
-0.00125806
5.90072e-06
-0.00123315
-0.00199929
-0.00306253
0.00981974
-0.00157778
-0.00816127
-0.00412742
0.0117237
-0.00313746
-0.00411871
-0.0032317
-0.00252918
-0.00649197
0.0191616
-0.00181485
-0.0253129
-0.00790031
0.0286979
-0.00618527
-0.00491175
-0.00244521
-0.0248988
-0.0130406
0.0595216
-0.00314242
-0.051088
-0.0110378
0.0293999
-0.0147728
0.0345734
0.00490351
-0.103034
-0.0158779
0.100584
-0.0132515
-0.000705184
0.00560002
-0.104946
-0.0010697
0.0331721
-0.00174306
0.00734485
-0.0033347
0.0118458
0.00361515
0.0743367
0.010105
-0.0739535
0.074761
0.0105283
0.0752155
0.010939
0.0756795
0.0113158
0.0761271
0.0116433
0.0765337
0.0119101
0.0768795
0.0121116
0.07715
0.0122493
0.0773347
0.0123287
0.0774263
0.0123572
0.0774192
0.0123425
0.0773079
0.0122916
0.0770884
0.0122097
0.0767566
0.0121016
0.0763094
0.0119706
0.075745
0.0118189
0.075063
0.0116479
0.0742653
0.0114588
0.0733557
0.0112524
0.0723402
0.0110299
0.0712268
0.0107924
0.070025
0.0105416
0.0687454
0.0102792
0.0673994
0.0100071
0.0659987
0.0097276
0.0645546
0.00944274
0.0630783
0.00915471
0.06158
0.00886555
0.0600691
0.00857716
0.058554
0.00829125
0.0570422
0.00800931
0.05554
0.00773261
0.0540529
0.00746221
0.0525854
0.00719895
0.0511411
0.00694351
0.049723
0.00669636
0.0483334
0.00645789
0.0469739
0.00622827
0.0456458
0.00600769
0.0443499
0.00579611
0.0430866
0.00559359
0.041856
0.00539993
0.0406579
0.00521513
0.0394921
0.00503886
0.0383579
0.00487115
0.0372547
0.00471153
0.0361817
0.00456012
0.035138
0.0044163
0.0341225
0.00428033
0.0331344
0.00415144
0.0321725
0.0040301
0.0312357
0.00391529
0.0303228
0.00380779
0.0294326
0.0037063
0.028564
0.00361192
0.0277159
0.00352304
0.0268868
0.00344118
0.0260758
0.00336429
0.0252815
0.00329441
0.0245027
0.00322896
0.0237382
0.00317061
0.0229869
0.00311615
0.0222474
0.00306893
0.0215187
0.00302504
0.0207992
0.00298861
0.0200883
0.00295488
0.0193841
0.00292888
0.0186861
0.00290488
0.0179926
0.00288889
0.0173029
0.00287404
0.0166153
0.0028674
0.0159294
0.00286082
0.0152435
0.00286251
0.0145575
0.00286288
0.0138696
0.00287132
0.01318
0.00287709
0.0124872
0.00288925
0.0117913
0.00290006
0.0110925
0.00290883
0.0103882
0.00292972
0.00968473
0.00291792
0.00897009
0.00296501
0.00826624
0.00290589
0.00754284
0.00298611
0.00683933
0.00290087
0.00612595
0.00289908
0.00540044
0.00303418
0.00475835
0.00247693
0.00393977
0.00356362
0.00342315
0.00185557
0.00265461
0.00310256
0.00194123
0.00322378
0.00154552
0.00100381
0.000500769
0.0050365
0.000594954
-0.00150766
-0.00099471
0.00751424
-0.000918709
-7.06367e-05
-0.00107401
-0.00184396
-0.00305748
0.0118032
-0.00151795
-0.00970081
-0.00440011
0.0146059
-0.00329363
-0.00522522
-0.00363287
-0.00218992
-0.00708918
0.0226179
-0.00208121
-0.0303209
-0.00882941
0.0354461
-0.00682769
-0.0069135
-0.00315638
-0.02857
-0.0144106
0.0707758
-0.00356005