/*--------------------------------*- C++ -*----------------------------------*\
| =========                 |                                                 |
| \\      /  F ield         | OpenFOAM: The Open Source CFD Toolbox           |
|  \\    /   O peration     | Version:  2412                                  |
|   \\  /    A nd           | Website:  www.openfoam.com                      |
|    \\/     M anipulation  |                                                 |
\*---------------------------------------------------------------------------*/
FoamFile
{
    version     2.0;
    format      ascii;
    arch        "LSB;label=32;scalar=64";
    class       volVectorField;
    location    "1";
    object      U;
}
// * * * * * * * * * * * * * * * * * * * * * * * * * * * * * * * * * * * * * //

dimensions      [0 1 -1 0 0 0 0];

internalField   nonuniform List<vector> 
12600
(
(18.7413 1.25245e-21 2.09562)
(11.6217 1.61087e-20 0.451305)
(7.35252 1.89351e-20 -0.477904)
(5.09051 0 -0.709371)
(3.97739 1.71115e-20 -0.682468)
(3.33656 1.59338e-20 -0.607746)
(2.8952 0 -0.540041)
(2.56386 0 -0.484565)
(2.30413 -4.7884e-20 -0.43908)
(2.09389 0 -0.401315)
(1.91942 2.008e-20 -0.369423)
(1.77179 1.83842e-20 -0.342075)
(1.64489 -1.68398e-20 -0.318321)
(1.53438 0 -0.297465)
(1.43708 -1.41105e-20 -0.278982)
(1.3506 0 -0.262469)
(1.2731 4.74003e-20 -0.247611)
(1.20317 0 -0.234157)
(1.13967 -1.98315e-20 -0.221907)
(1.08169 -1.81338e-20 -0.210695)
(1.02849 1.65502e-20 -0.200389)
(0.979451 5.41186e-24 -0.190875)
(0.934079 0 -0.18206)
(0.891943 -2.49482e-20 -0.173865)
(0.852683 0 -0.166223)
(0.815992 0 -0.159076)
(0.781607 -1.84763e-20 -0.152374)
(0.749299 0 -0.146073)
(0.718872 4.07864e-24 -0.140138)
(0.690153 1.33315e-20 -0.134533)
(0.662988 1.18614e-20 -0.129231)
(0.637245 1.04998e-20 -0.124205)
(0.612805 -9.23913e-21 -0.119434)
(0.589561 -1.61445e-20 -0.114895)
(0.56742 -1.39855e-20 -0.110572)
(0.546295 1.19785e-20 -0.106447)
(0.526111 0 -0.102507)
(0.506799 -8.44113e-21 -0.0987364)
(0.488295 0 -0.0951244)
(0.470544 5.42042e-21 -0.0916598)
(0.453491 0 -0.0883321)
(0.437091 1.75219e-23 -0.0851324)
(0.421299 0 -0.0820517)
(0.406076 1.59481e-23 -0.0790829)
(0.391383 -5.21786e-22 -0.0762178)
(0.377189 2.2417e-21 -0.0734508)
(0.363457 -3.83932e-21 -0.0707744)
(0.350164 0 -0.0681845)
(0.337275 0 -0.0656737)
(0.324774 -7.78155e-21 -0.0632393)
(0.312625 -1.77113e-20 -0.0608739)
(0.30082 -1.96471e-20 -0.0585763)
(0.28932 1.94283e-23 -0.0563387)
(0.278127 -2.29169e-20 -0.0541615)
(0.267197 0 -0.052036)
(0.256542 2.55321e-20 -0.0499647)
(0.246111 2.65996e-20 -0.0479373)
(0.235929 2.75145e-20 -0.0459592)
(0.225933 0 -0.0440176)
(0.216166 0 -0.0421211)
(0.206549 0 -0.0402543)
(0.197146 -6.00622e-20 -0.0384295)
(0.187858 0 -0.0366275)
(0.178774 0 -0.0348654)
(0.16977 1.23398e-19 -0.0331196)
(0.160966 0 -0.0314127)
(0.152209 0 -0.0297154)
(0.143652 0 -0.0280573)
(0.135109 -1.23493e-19 -0.0264023)
(0.126774 1.22902e-19 -0.0247878)
(0.118423 1.22082e-19 -0.0231705)
(0.110293 2.34519e-23 -0.0215961)
(0.10212 -1.19871e-19 -0.0200136)
(0.0941862 0 -0.0184776)
(0.0861907 1.16976e-19 -0.0169298)
(0.0784571 0 -0.0154326)
(0.0706499 0 -0.0139214)
(0.0631425 0 -0.0124679)
(0.0555268 2.86727e-23 -0.0109936)
(0.0483345 2.148e-19 -0.00960094)
(0.0408394 2.10294e-19 -0.0081498)
(0.0342154 -2.05662e-19 -0.00686627)
(0.0265764 -2.00779e-19 -0.00538745)
(0.0210058 0 -0.00430595)
(0.0128945 0 -0.0027368)
(0.00852974 3.71559e-19 -0.00188567)
(0.000821841 -7.21141e-19 -0.000394626)
(-0.00480961 7.00175e-19 0.00069005)
(-0.0063486 3.39808e-19 0.00100947)
(-0.0226293 0 0.00412891)
(-0.00907287 -6.39911e-19 0.0015464)
(-0.033549 3.03538e-19 0.0062741)
(-0.0242179 -2.97839e-19 0.00439185)
(-0.0302831 5.66611e-19 0.00570745)
(-0.0510593 0 0.00949816)
(-0.00589999 0 0.00120271)
(-0.0939625 0 0.0178319)
(-0.00381866 0 0.000297497)
(-0.0594182 0 0.0118113)
(-0.0788756 0 0.0144646)
(0.00886375 -4.29504e-19 -0.00130307)
(-0.157286 -7.69809e-19 0.0298283)
(0.0406626 -8.35646e-19 -0.00794906)
(-0.108306 0 0.0216181)
(-0.123795 0 0.0222537)
(0.0927844 0 -0.0166999)
(-0.294943 -5.57819e-19 0.0561112)
(0.0817612 -1.41132e-18 -0.0168116)
(-0.0593827 5.04738e-19 0.0135962)
(-0.364311 0 0.0673841)
(0.283606 -1.22631e-18 -0.0534979)
(-0.415424 0 0.0803047)
(-0.130475 -1.15569e-18 0.0211679)
(0.217923 9.52603e-19 -0.039548)
(-0.53537 -7.91056e-19 0.102348)
(0.0349568 -9.6312e-19 -0.00928513)
(0.0448775 8.17783e-19 -0.00813375)
(-0.0218372 2.20988e-23 0.00442952)
(-0.0300772 7.06766e-19 0.0061236)
(-0.106404 0 0.0201393)
(29.1522 -1.26435e-21 4.02781)
(25.1088 0 1.85911)
(20.2461 -1.91644e-20 -0.213606)
(16.0793 0 -1.21244)
(13.1196 -1.73389e-20 -1.50803)
(11.0768 -3.0442e-20 -1.51903)
(9.60441 -1.409e-20 -1.44138)
(8.4923 0 -1.34375)
(7.61935 3.55933e-22 -1.24835)
(6.91274 -2.19025e-20 -1.16127)
(6.32682 2.01083e-20 -1.08318)
(5.83157 1.84588e-20 -1.01336)
(5.40636 -1.69423e-20 -0.950796)
(5.03653 1.5547e-20 -0.894514)
(4.71133 2.85806e-20 -0.843653)
(4.42268 0 -0.797479)
(4.16439 -6.46107e-23 -0.755373)
(3.93162 2.19499e-20 -0.716813)
(3.72053 2.012e-20 -0.68136)
(3.52805 0 -0.648643)
(3.35167 0 -0.618346)
(3.18932 1.52945e-20 -0.590201)
(3.03928 0 -0.563977)
(2.90012 1.26469e-20 -0.539475)
(2.77061 -2.29292e-20 -0.516524)
(2.64972 0 -0.494974)
(2.53657 1.87269e-20 -0.474693)
(2.43037 0 -0.455568)
(2.33046 -1.51113e-20 -0.437496)
(2.23627 -2.70083e-20 -0.420388)
(2.14727 -2.40258e-20 -0.404164)
(2.06302 -1.06278e-20 -0.388754)
(1.98312 9.3491e-21 -0.374093)
(1.90721 3.26817e-20 -0.360124)
(1.83497 2.83051e-20 -0.346795)
(1.76612 0 -0.334059)
(1.7004 0 -0.321875)
(1.63759 -1.73019e-23 -0.310204)
(1.57746 0 -0.299009)
(1.51983 -5.47213e-21 -0.288261)
(1.46453 0 -0.277927)
(1.41139 -5.76646e-21 -0.267983)
(1.36027 0 -0.2584)
(1.31104 -1.40109e-21 -0.24916)
(1.26357 0 -0.240236)
(1.21775 -2.25725e-21 -0.231614)
(1.17347 0 -0.223269)
(1.13064 0 -0.21519)
(1.08915 6.59532e-21 -0.207354)
(1.04895 0 -0.199755)
(1.00991 0 -0.192368)
(0.972012 0 -0.185192)
(0.935128 2.14315e-20 -0.1782)
(0.899258 4.59198e-20 -0.171397)
(0.864262 0 -0.164753)
(0.830176 0 -0.158279)
(0.796834 -2.65751e-20 -0.15194)
(0.764314 -2.75132e-20 -0.145756)
(0.732418 0 -0.139684)
(0.701272 0 -0.133755)
(0.670634 0 -0.127916)
(0.640693 0 -0.122211)
(0.611148 -6.05046e-20 -0.116574)
(0.582262 6.10056e-20 -0.111065)
(0.553661 -1.22695e-19 -0.105604)
(0.525702 0 -0.100268)
(0.497918 0 -0.0949591)
(0.470775 0 -0.0897753)
(0.443701 4.73159e-23 -0.0845984)
(0.417286 -1.21726e-19 -0.0795512)
(0.39084 -1.20804e-19 -0.0744915)
(0.365091 2.39356e-19 -0.0695694)
(0.339222 3.58684e-23 -0.0646182)
(0.314107 -1.16903e-19 -0.0598155)
(0.288804 -1.15312e-19 -0.0549716)
(0.264325 0 -0.0502892)
(0.239615 0 -0.0455584)
(0.21584 0 -0.0410098)
(0.191734 2.15064e-19 -0.0363953)
(0.168917 0 -0.0320287)
(0.145212 0 -0.027493)
(0.124091 2.01285e-19 -0.0234505)
(0.10001 1.96297e-19 -0.0188423)
(0.0820499 0 -0.0154128)
(0.0565425 0 -0.0105159)
(0.0423861 0 -0.00784747)
(0.0177479 7.01916e-19 -0.00306428)
(0.000580802 -4.74856e-23 8.46577e-05)
(-0.00682784 3.3001e-19 0.00168618)
(-0.0543302 -3.17125e-19 0.0106241)
(-0.016719 6.20148e-19 0.00332548)
(-0.0913271 2.93821e-19 0.0180578)
(-0.0613223 5.76029e-19 0.0114894)
(-0.0852716 0 0.0170482)
(-0.140715 0 0.0264917)
(-0.0185996 0 0.00432339)
(-0.270872 0 0.0524697)
(-0.00356527 4.85996e-19 -0.00080547)
(-0.184926 0 0.0378211)
(-0.217929 0 0.03994)
(0.0127477 -4.11965e-19 -0.0008805)
(-0.454174 3.68696e-19 0.0874364)
(0.119779 1.59946e-18 -0.0246324)
(-0.340409 -6.43403e-19 0.0697875)
(-0.330147 0 0.0585409)
(0.230957 0 -0.041235)
(-0.85475 0 0.165543)
(0.259454 6.72143e-19 -0.0556656)
(-0.230958 -4.80361e-19 0.054205)
(-0.998374 0 0.185144)
(0.778506 2.33074e-18 -0.150028)
(-1.25155 7.16327e-19 0.248935)
(-0.265137 2.19168e-18 0.0376347)
(0.554683 0 -0.0992821)
(-1.5828 0 0.308062)
(0.182287 -9.10908e-19 -0.0464565)
(0.106825 0 -0.0191744)
(-0.072964 -7.574e-19 0.0151392)
(-0.0992459 -6.6762e-19 0.0207236)
(-0.301922 0 0.058994)
(31.8959 0 3.8984)
(31.0816 0 2.8198)
(28.5517 -1.29847e-20 1.0238)
(25.2086 0 -0.383241)
(21.9569 0 -1.22724)
(19.1843 1.51325e-20 -1.65198)
(16.9266 1.33433e-20 -1.82021)
(15.102 0 -1.85175)
(13.6147 4.20747e-22 -1.818)
(12.3848 2.07496e-20 -1.75547)
(11.3517 -3.78917e-20 -1.68165)
(10.4711 -1.74896e-20 -1.60492)
(9.71084 1.14573e-22 -1.52925)
(9.04703 -1.47319e-20 -1.45648)
(8.46179 -1.35147e-20 -1.38742)
(7.94138 1.23429e-20 -1.32232)
(7.47515 -2.27138e-20 -1.26116)
(7.05466 -2.08006e-20 -1.20378)
(6.67318 0 -1.14997)
(6.32527 0 -1.09948)
(6.00645 1.5857e-20 -1.05206)
(5.71304 1.44615e-20 -1.00748)
(5.44195 0 -0.965502)
(5.19061 0 -0.925927)
(4.9568 2.17268e-20 -0.888562)
(4.73866 0 -0.853232)
(4.53457 -3.54828e-20 -0.819778)
(4.34315 1.59661e-20 -0.788056)
(4.16318 0 -0.757934)
(3.99359 1.27969e-20 -0.729294)
(3.83347 1.13841e-20 -0.702026)
(3.68199 0 -0.676034)
(3.53842 -8.86949e-21 -0.651225)
(3.40211 -1.54866e-20 -0.627519)
(3.27249 1.20865e-23 -0.604841)
(3.14903 0 -0.583121)
(3.03127 0 -0.562296)
(2.91879 8.09215e-21 -0.542308)
(2.81119 0 -0.523104)
(2.70814 0 -0.504634)
(2.60932 0 -0.486851)
(2.51443 0 -0.469716)
(2.42321 0 -0.453185)
(2.33543 0 -0.437226)
(2.25084 0 -0.421799)
(2.16926 2.09342e-21 -0.40688)
(2.09046 -3.60288e-21 -0.392429)
(2.01431 0 -0.37843)
(1.94059 -6.2398e-21 -0.364844)
(1.8692 0 -0.35166)
(1.79994 0 -0.338838)
(1.73274 1.85708e-20 -0.326376)
(1.66739 0 -0.31423)
(1.60387 -2.16955e-20 -0.302408)
(1.54195 2.29642e-20 -0.290859)
(1.48168 0 -0.279603)
(1.42277 2.51193e-20 -0.268579)
(1.36534 0 -0.257824)
(1.30905 0 -0.247262)
(1.25412 0 -0.236947)
(1.20013 5.56539e-20 -0.226788)
(1.14739 5.6479e-20 -0.216862)
(1.09538 2.83928e-23 -0.207055)
(1.04456 -1.15186e-19 -0.19747)
(0.994269 2.49066e-23 -0.187967)
(0.945126 0 -0.178683)
(0.896323 0 -0.169444)
(0.848659 -1.15889e-19 -0.160426)
(0.801144 3.81066e-23 -0.151417)
(0.754794 0 -0.142635)
(0.708412 0 -0.13383)
(0.663257 -1.12841e-19 -0.125266)
(0.617908 2.88643e-23 -0.116647)
(0.573877 2.68734e-23 -0.10829)
(0.529529 0 -0.0998552)
(0.486615 0 -0.0917044)
(0.443303 -2.10307e-19 -0.0834642)
(0.401608 2.06496e-19 -0.0755401)
(0.359345 0 -0.0675025)
(0.319276 0 -0.0598794)
(0.277738 0 -0.0519909)
(0.240502 0 -0.0448951)
(0.198406 0 -0.0369118)
(0.166468 0 -0.0308343)
(0.121978 0 -0.0223537)
(0.0966566 0 -0.0176514)
(0.0531728 -6.59902e-19 -0.00914719)
(0.0238689 -3.19956e-19 -0.00407479)
(0.00752271 -3.10167e-19 -0.000182631)
(-0.0702834 2.97996e-19 0.0137929)
(-0.0119485 -5.82574e-19 0.00275908)
(-0.138105 -2.75984e-19 0.0279537)
(-0.0857075 -2.70459e-19 0.0155935)
(-0.133639 0 0.0277943)
(-0.217398 0 0.0396917)
(-0.031003 0 0.00868622)
(-0.436517 0 0.0843078)
(0.00402864 -4.55945e-19 -0.00469003)
(-0.316261 0 0.067341)
(-0.338758 0 0.0588194)
(0.00320248 3.86269e-19 0.00488585)
(-0.734847 0 0.139905)
(0.195316 -7.49573e-19 -0.0417645)
(-0.586465 6.02942e-19 0.125119)
(-0.498748 0 0.080215)
(0.32349 0 -0.050296)
(-1.38627 0 0.267499)
(0.44564 6.29311e-19 -0.101776)
(-0.449466 0 0.116202)
(-1.54493 -4.96926e-19 0.272651)
(1.19874 4.70979e-22 -0.226639)
(-2.08915 -6.70406e-19 0.424841)
(-0.2822 -2.04947e-18 0.0115067)
(0.795957 0 -0.125021)
(-2.60064 7.00377e-19 0.507813)
(0.402944 8.52046e-19 -0.113893)
(0.139712 7.23668e-19 -0.0207915)
(-0.126821 0 0.0280191)
(-0.176185 6.24248e-19 0.0387034)
(-0.477383 0 0.0942228)
(32.4175 0 2.95617)
(32.9835 0 2.76949)
(32.43 1.22749e-20 1.72424)
(30.7865 0 0.522122)
(28.5327 -1.23159e-20 -0.483776)
(26.1157 2.505e-20 -1.20725)
(23.7955 0 -1.67066)
(21.6884 -2.18639e-20 -1.93501)
(19.8279 2.09624e-20 -2.0643)
(18.2044 1.89565e-20 -2.10863)
(16.7905 1.78156e-20 -2.10184)
(15.555 -1.61925e-20 -2.06521)
(14.4693 1.50738e-20 -2.01172)
(13.5093 -2.74804e-20 -1.94918)
(12.6547 0 -1.88232)
(11.8893 -2.32842e-20 -1.81404)
(11.1998 0 -1.74606)
(10.5753 0 -1.67944)
(10.0068 0 -1.61479)
(9.48707 1.63781e-20 -1.55245)
(9.0098 -3.42158e-23 -1.49259)
(8.56989 -2.60295e-23 -1.43525)
(8.16297 1.24352e-20 -1.38043)
(7.78534 0 -1.32806)
(7.43383 0 -1.27805)
(7.10572 0 -1.23029)
(6.79866 3.3544e-20 -1.18469)
(6.51061 -6.01278e-24 -1.14112)
(6.23977 0 -1.09947)
(5.98458 0 -1.05964)
(5.74365 0 -1.02153)
(5.51577 0 -0.985025)
(5.29985 1.67769e-20 -0.950041)
(5.09491 0 -0.916488)
(4.90009 -1.26931e-20 -0.884282)
(4.7146 0 -0.853345)
(4.53775 0 -0.823601)
(4.3689 -7.67312e-21 -0.794985)
(4.20746 0 -0.767427)
(4.05292 0 -0.740872)
(3.9048 3.72635e-21 -0.715258)
(3.76265 -5.23027e-21 -0.690536)
(3.62608 0 -0.666651)
(3.49472 -1.31891e-21 -0.643562)
(3.36821 0 -0.621215)
(3.24627 -3.93596e-21 -0.59958)
(3.12857 1.88233e-23 -0.578604)
(3.01488 0 -0.558266)
(2.9049 0 -0.538511)
(2.79846 6.92707e-21 -0.519329)
(2.69525 1.57773e-20 -0.500661)
(2.59518 -3.5042e-20 -0.482508)
(2.49792 0 -0.464806)
(2.40346 -2.04321e-20 -0.447569)
(2.31143 -2.16774e-20 -0.430723)
(2.2219 -2.27274e-20 -0.4143)
(2.13444 -2.36647e-20 -0.398211)
(2.04925 0 -0.382511)
(1.9658 0 -0.367088)
(1.8844 -5.15036e-20 -0.352026)
(1.80445 -1.04961e-19 -0.337188)
(1.72639 -5.32693e-20 -0.322689)
(1.64947 3.0467e-23 -0.308362)
(1.57433 5.42931e-20 -0.29436)
(1.50003 5.45694e-20 -0.280476)
(1.42744 0 -0.266912)
(1.35541 0 -0.253412)
(1.28507 1.09211e-19 -0.240235)
(1.21499 2.17474e-19 -0.22707)
(1.14664 0 -0.214238)
(1.07828 1.07223e-19 -0.201369)
(1.01173 1.06211e-19 -0.188853)
(0.944924 1.05056e-19 -0.176255)
(0.880053 2.0743e-19 -0.164038)
(0.814728 0 -0.151705)
(0.751506 0 -0.139786)
(0.687696 1.97904e-19 -0.127733)
(0.626248 -3.88525e-19 -0.116137)
(0.563969 -1.90416e-19 -0.104378)
(0.504838 0 -0.0932018)
(0.443651 0 -0.0816754)
(0.388497 0 -0.0712191)
(0.326628 0 -0.0595996)
(0.278925 0 -0.0505555)
(0.213686 0 -0.0382353)
(0.175624 -3.19772e-19 -0.0312372)
(0.111184 4.07076e-23 -0.0186297)
(0.068985 3.00421e-19 -0.0116754)
(0.0403182 0 -0.00460791)
(-0.0667178 2.79696e-19 0.01373)
(0.00813806 2.73413e-19 4.79418e-06)
(-0.170337 0 0.035806)
(-0.0945532 -2.53726e-19 0.0170035)
(-0.172772 -4.82072e-19 0.0377623)
(-0.278123 0 0.0496764)
(-0.0413856 0 0.0139898)
(-0.586813 0 0.113364)
(0.0188467 -4.27399e-19 -0.0104536)
(-0.45011 0 0.0994006)
(-0.43862 0 0.0723635)
(-0.0194986 3.62055e-19 0.0150524)
(-0.994586 -3.2357e-19 0.187721)
(0.264485 0 -0.058385)
(-0.840991 0 0.185388)
(-0.62833 0 0.091011)
(0.36946 0 -0.0471328)
(-1.8804 0 0.362379)
(0.63109 -4.12333e-23 -0.151515)
(-0.70681 0 0.19338)
(-1.99693 4.65009e-19 0.33731)
(1.53275 -1.0213e-18 -0.285102)
(-2.91107 0 0.602796)
(-0.187545 7.05338e-22 -0.0454241)
(0.940379 0 -0.123246)
(-3.56247 -2.61102e-22 0.69772)
(0.687647 0 -0.203654)
(0.141343 -6.76604e-19 -0.0137153)
(-0.177033 0 0.041063)
(-0.25855 5.83566e-19 0.0588067)
(-0.625049 0 0.125433)
(32.5199 0 2.10375)
(33.2776 0 2.2289)
(33.6243 0 1.75323)
(33.2599 0 0.95851)
(32.2369 1.16253e-20 0.116032)
(30.7625 -9.01536e-22 -0.633697)
(29.0424 0 -1.23524)
(27.2355 2.06365e-20 -1.67943)
(25.4513 0 -1.98344)
(23.7561 -3.52845e-20 -2.17554)
(22.1823 0 -2.28433)
(20.74 1.52869e-20 -2.33382)
(19.4267 0 -2.34233)
(18.2336 2.59458e-20 -2.32313)
(17.1496 -1.18185e-20 -2.28551)
(16.163 2.1839e-20 -2.23594)
(15.2631 -1.99938e-20 -2.17886)
(14.4398 -1.83534e-20 -2.11734)
(13.6844 0 -2.05347)
(12.9892 -1.54654e-20 -1.98873)
(12.3474 -1.41304e-20 -1.9241)
(11.7533 -2.57474e-20 -1.86026)
(11.2018 -1.17422e-20 -1.79767)
(10.6885 0 -1.73663)
(10.2096 0 -1.67733)
(9.7616 0 -1.61986)
(9.3417 -1.58316e-20 -1.56429)
(8.94726 -1.42513e-20 -1.51062)
(8.576 0 -1.45884)
(8.22588 0 -1.4089)
(7.89512 1.01657e-20 -1.36076)
(7.58209 0 -1.31437)
(7.28538 1.3578e-24 -1.26965)
(7.00369 -1.38466e-20 -1.22655)
(6.73585 1.19981e-20 -1.18498)
(6.48084 0 -1.14489)
(6.2377 0 -1.10621)
(6.00557 7.24205e-21 -1.06887)
(5.78366 0 -1.03281)
(5.57128 0 -0.997966)
(5.36776 -3.51642e-21 -0.964276)
(5.17251 4.93531e-21 -0.931689)
(4.98497 0 -0.900143)
(4.80466 1.24437e-21 -0.869594)
(4.63108 0 -0.839981)
(4.46383 1.84722e-21 -0.811269)
(4.30247 3.19281e-21 -0.783395)
(4.14668 0 -0.756337)
(3.99604 5.51125e-21 -0.730027)
(3.85032 -6.53261e-21 -0.704455)
(3.70911 -2.97255e-20 -0.679547)
(3.57226 1.65066e-20 -0.655309)
(3.43933 -1.79369e-20 -0.631655)
(3.31029 2.53424e-23 -0.60861)
(3.18465 0 -0.586075)
(3.06248 2.14215e-20 -0.564097)
(2.94322 2.23027e-20 -0.542555)
(2.82709 -2.30449e-20 -0.521526)
(2.71343 2.36956e-20 -0.500864)
(2.60261 4.85237e-20 -0.480678)
(2.49382 4.94224e-20 -0.460789)
(2.38766 -5.01138e-20 -0.44135)
(2.28311 5.06985e-20 -0.422137)
(2.18103 0 -0.403358)
(2.08014 0 -0.384735)
(1.98163 5.14597e-20 -0.366538)
(1.88391 0 -0.348427)
(1.78852 0 -0.330745)
(1.69354 -1.02313e-19 -0.313079)
(1.60092 0 -0.295858)
(1.50832 -1.0088e-19 -0.278584)
(1.41818 -1.99795e-19 -0.261783)
(1.32772 0 -0.244868)
(1.23988 -9.75248e-20 -0.228464)
(1.15144 0 -0.211898)
(1.06583 0 -0.195888)
(0.979429 -1.85945e-19 -0.179689)
(0.896195 1.82565e-19 -0.1641)
(0.811835 3.93532e-23 -0.148293)
(0.731637 0 -0.133238)
(0.648776 0 -0.117761)
(0.573703 0 -0.103605)
(0.490088 -1.6297e-19 -0.0880624)
(0.424632 1.58808e-19 -0.0756964)
(0.336671 0 -0.0592534)
(0.284071 6.00302e-19 -0.0496721)
(0.196364 2.90844e-19 -0.0325153)
(0.140304 -5.63796e-19 -0.0237534)
(0.0956682 -2.73192e-19 -0.0124384)
(-0.0395095 -5.24732e-19 0.0092738)
(0.0468773 0 -0.0055805)
(-0.183988 0 0.0407262)
(-0.0848449 2.37909e-19 0.0148731)
(-0.199525 4.5195e-19 0.0464035)
(-0.319807 -4.35493e-19 0.0553392)
(-0.0474051 0 0.0200007)
(-0.71754 0 0.138241)
(0.0407604 4.00447e-19 -0.01809)
(-0.582181 3.53964e-19 0.133229)
(-0.515572 0 0.079309)
(-0.0538688 -3.39073e-19 0.0300907)
(-1.22885 3.02988e-19 0.229045)
(0.324665 0 -0.0736897)
(-1.09733 0 0.2493)
(-0.72019 0 0.0893186)
(0.371443 0 -0.029668)
(-2.329 0 0.446056)
(0.805242 -5.51105e-19 -0.202884)
(-0.991852 0 0.28544)
(-2.35257 0 0.373612)
(1.77488 0 -0.319843)
(-3.70043 5.86146e-19 0.778038)
(0.00155005 8.95391e-19 -0.135321)
(0.995826 0 -0.0889361)
(-4.44133 -6.12089e-19 0.86951)
(1.01641 0 -0.315296)
(0.112043 -6.32672e-19 0.00426902)
(-0.21598 0 0.0529069)
(-0.343352 -5.45363e-19 0.0806542)
(-0.736465 0 0.150084)
(32.5918 -4.98653e-21 1.48975)
(33.1751 -6.18918e-21 1.62908)
(33.7017 7.34879e-21 1.43769)
(33.9272 8.2812e-21 0.976276)
(33.7346 0 0.383877)
(33.1357 -9.92602e-21 -0.232486)
(32.204 0 -0.806989)
(31.0303 1.74396e-20 -1.3026)
(29.7034 1.6675e-20 -1.70391)
(28.2997 3.21634e-20 -2.01133)
(26.8786 -1.47991e-20 -2.23458)
(25.4823 1.38104e-20 -2.38717)
(24.138 0 -2.48302)
(22.8612 0 -2.53476)
(21.6593 1.11423e-20 -2.55303)
(20.5341 -1.1459e-22 -2.54638)
(19.4839 1.76114e-22 -2.52144)
(18.5052 1.3594e-22 -2.4833)
(17.5935 0 -2.43579)
(16.744 0 -2.38181)
(15.9516 0 -2.32351)
(15.2118 2.4193e-20 -2.26249)
(14.52 1.10069e-20 -2.19996)
(13.8722 0 -2.1368)
(13.2647 0 -2.07368)
(12.694 1.6476e-20 -2.01107)
(12.1571 0 -1.94934)
(11.6512 0 -1.88874)
(11.1737 0 -1.82943)
(10.7224 0 -1.77155)
(10.2953 -6.41798e-24 -1.71516)
(9.89035 0 -1.66031)
(9.506 -1.62929e-24 -1.60701)
(9.14069 1.30524e-20 -1.55526)
(8.79302 2.58884e-24 -1.50504)
(8.46174 0 -1.45634)
(8.14567 0 -1.4091)
(7.84377 0 -1.3633)
(7.55505 0 -1.31889)
(7.27865 0 -1.27582)
(7.01372 0 -1.23404)
(6.75955 0 -1.19351)
(6.5154 -2.87267e-21 -1.15417)
(6.28066 -1.20868e-21 -1.11598)
(6.05471 0 -1.07888)
(5.83703 1.70578e-21 -1.04284)
(5.62706 0 -1.00778)
(5.42439 0 -0.973701)
(5.22847 -1.03666e-20 -0.940512)
(5.03902 0 -0.908213)
(4.85548 1.39831e-20 -0.876715)
(4.67768 0 -0.846031)
(4.50505 3.37533e-20 -0.816059)
(4.33753 2.456e-23 -0.786834)
(4.1745 0 -0.758232)
(4.01604 0 -0.730318)
(3.86144 0 -0.702942)
(3.71097 4.33599e-20 -0.676204)
(3.56377 -4.45817e-20 -0.649918)
(3.42031 -4.55929e-20 -0.624229)
(3.27956 -4.64381e-20 -0.598906)
(3.14227 9.42659e-20 -0.57415)
(3.00713 4.76365e-20 -0.549674)
(2.87523 0 -0.525745)
(2.74496 0 -0.502007)
(2.61778 -2.43012e-23 -0.47881)
(2.4917 0 -0.455716)
(2.36867 0 -0.433167)
(2.2462 -9.61072e-20 -0.410632)
(2.12681 0 -0.388662)
(2.00748 0 -0.366619)
(1.89135 1.87696e-19 -0.345178)
(1.77482 -9.27625e-20 -0.323584)
(1.66168 0 -0.302641)
(1.54776 0 -0.281481)
(1.4375 0 -0.261029)
(1.32618 1.74631e-19 -0.240324)
(1.21892 0 -0.220395)
(1.11019 3.35904e-19 -0.200181)
(1.00671 -1.64384e-19 -0.180897)
(0.899919 0 -0.161122)
(0.802715 0 -0.142899)
(0.695147 1.52928e-19 -0.123114)
(0.609728 -2.5884e-23 -0.107039)
(0.496839 1.44736e-19 -0.0861637)
(0.42767 -2.81518e-19 -0.0736611)
(0.314143 2.72694e-19 -0.0515094)
(0.243043 2.64325e-19 -0.0409249)
(0.178468 2.56143e-19 -0.0243666)
(0.0162868 3.78472e-23 -6.12301e-05)
(0.108339 0 -0.0144513)
(-0.174276 -2.2756e-19 0.0419328)
(-0.0529727 0 0.00885374)
(-0.210059 0 0.0531424)
(-0.338729 4.07976e-19 0.05631)
(-0.0460344 0 0.0263719)
(-0.823923 0 0.158181)
(0.0700339 0 -0.0273514)
(-0.707236 -3.31421e-19 0.167875)
(-0.567877 0 0.0795792)
(-0.0974492 -3.17503e-19 0.0497163)
(-1.43266 0 0.26321)
(0.373769 0 -0.0869211)
(-1.34798 0 0.315225)
(-0.776956 0 0.0762211)
(0.333972 0 0.00102979)
(-2.72362 -4.07132e-19 0.518282)
(0.95746 -5.15415e-19 -0.253515)
(-1.2927 3.69041e-19 0.389586)
(-2.61283 0 0.383669)
(1.92412 0 -0.331407)
(-4.44022 -1.09573e-18 0.945504)
(0.259468 0 -0.251597)
(0.975065 6.93279e-19 -0.0246591)
(-5.20855 0 1.01671)
(1.36071 6.94838e-19 -0.442662)
(0.0535643 5.91221e-19 0.0330429)
(-0.235325 0 0.0616782)
(-0.427183 -5.09576e-19 0.103395)
(-0.801843 0 0.166335)
(32.6461 4.69596e-21 1.03784)
(33.0571 1.14096e-20 1.12456)
(33.5031 -6.92217e-21 1.04122)
(33.8682 -7.82654e-22 0.777493)
(34.0414 7.49854e-21 0.386834)
(33.9668 0 -0.0688072)
(33.6365 0 -0.540315)
(33.0705 -1.64219e-20 -0.991952)
(32.3043 -3.05001e-20 -1.40009)
(31.3804 -7.09149e-22 -1.75169)
(30.3422 1.39341e-20 -2.04224)
(29.2304 -1.30031e-20 -2.27311)
(28.08 1.17588e-20 -2.44912)
(26.9192 0 -2.57686)
(25.7696 0 -2.66352)
(24.6466 -9.54756e-21 -2.7161)
(23.5608 3.49353e-20 -2.74099)
(22.5186 3.2151e-20 -2.74376)
(21.5236 0 -2.72914)
(20.5769 0 -2.70101)
(19.6786 0 -2.66254)
(18.8273 -6.73264e-23 -2.61626)
(18.0214 -2.0676e-20 -2.56421)
(17.2587 9.39013e-21 -2.50799)
(16.5368 1.70629e-20 -2.44889)
(15.8534 -3.09779e-20 -2.38789)
(15.2061 1.39763e-20 -2.32579)
(14.5927 1.2593e-20 -2.2632)
(14.0108 1.13075e-20 -2.2006)
(13.4584 0 -2.13836)
(12.9336 -9.0172e-21 -2.07676)
(12.4345 7.97723e-21 -2.01602)
(11.9594 -7.02947e-21 -1.9563)
(11.5068 -1.22821e-20 -1.89772)
(11.075 -2.12965e-20 -1.84036)
(10.6629 0 -1.78427)
(10.2691 0 -1.72949)
(9.89237 -6.44438e-21 -1.67604)
(9.53172 0 -1.62391)
(9.1861 4.15436e-21 -1.5731)
(8.85456 3.14313e-21 -1.52359)
(8.53626 0 -1.47536)
(8.23033 5.42231e-21 -1.42838)
(7.93608 1.13745e-21 -1.38262)
(7.65273 0 -1.33803)
(7.3797 -1.60507e-21 -1.2946)
(7.11628 -2.78332e-21 -1.25225)
(6.862 0 -1.21099)
(6.61619 9.72374e-21 -1.17073)
(6.3785 -5.74614e-21 -1.13148)
(6.14825 -1.30997e-20 -1.09313)
(5.92523 0 -1.05573)
(5.70874 -2.48384e-23 -1.01914)
(5.4987 3.39973e-20 -0.983424)
(5.29434 0 -0.948428)
(5.09578 0 -0.914243)
(4.90212 -1.96801e-20 -0.880685)
(4.71369 -2.03738e-20 -0.847886)
(4.52941 4.18757e-20 -0.815615)
(4.3499 4.28585e-20 -0.784061)
(4.17384 4.36491e-20 -0.752936)
(4.00217 -4.42836e-20 -0.722494)
(3.83327 -8.95059e-20 -0.692381)
(3.66848 0 -0.662931)
(3.50578 0 -0.633703)
(3.347 -9.0863e-20 -0.605133)
(3.18966 0 -0.576678)
(3.03615 0 -0.54889)
(2.88342 9.02654e-20 -0.521108)
(2.73454 0 -0.494019)
(2.58579 -8.89341e-20 -0.466828)
(2.44104 -3.23799e-23 -0.440377)
(2.29581 8.70863e-20 -0.413723)
(2.15482 0 -0.387871)
(2.01285 0 -0.361734)
(1.87542 0 -0.336473)
(1.73664 1.63782e-19 -0.310878)
(1.6029 0 -0.286238)
(1.46728 -1.57547e-19 -0.261235)
(1.33809 3.08364e-19 -0.237345)
(1.20486 0 -0.212898)
(1.0831 0 -0.190214)
(0.949107 0 -0.165837)
(0.841289 -2.56144e-23 -0.145632)
(0.700996 -1.35686e-19 -0.119988)
(0.612985 -2.63799e-19 -0.10419)
(0.470812 -2.5558e-19 -0.0765649)
(0.383245 2.47631e-19 -0.0641266)
(0.294459 0 -0.0412506)
(0.106335 2.30385e-19 -0.0151055)
(0.197361 0 -0.0274056)
(-0.135656 2.13147e-19 0.0384844)
(0.00527122 0 -0.00154197)
(-0.199743 0 0.057257)
(-0.330656 0 0.0518421)
(-0.0334702 -3.72419e-19 0.0326053)
(-0.900776 -3.39525e-19 0.172141)
(0.107542 0 -0.0380857)
(-0.819123 3.10191e-19 0.202141)
(-0.594268 -3.11197e-19 0.072941)
(-0.146585 2.97079e-19 0.0734987)
(-1.60112 -2.65052e-19 0.288912)
(0.410712 0 -0.0974731)
(-1.58478 0 0.381273)
(-0.803074 0 0.0525699)
(0.264053 0 0.0442334)
(-3.05745 3.80705e-19 0.5749)
(1.07842 -1.2323e-23 -0.301013)
(-1.59709 -6.90117e-19 0.502872)
(-2.78407 0 0.368082)
(1.98654 0 -0.318517)
(-5.11313 5.11947e-19 1.10009)
(0.551393 0 -0.388126)
(0.89582 -6.47868e-19 0.06788)
(-5.83489 0 1.1324)
(1.68479 -1.2981e-18 -0.578766)
(-0.030581 0 0.0724928)
(-0.226443 0 0.065494)
(-0.50614 4.76024e-19 0.126097)
(-0.8104 0 0.171505)
(32.6703 0 0.684775)
(32.9717 -5.24964e-21 0.727741)
(33.3085 0 0.677879)
(33.6389 -6.60249e-21 0.514438)
(33.8997 -1.34598e-20 0.252266)
(34.0399 0 -0.0769043)
(34.0312 6.71431e-21 -0.441654)
(33.8621 0 -0.815886)
(33.5332 9.01256e-22 -1.1794)
(33.054 -2.5857e-20 -1.51773)
(32.4406 0 -1.82155)
(31.7132 0 -2.08597)
(30.894 -1.10597e-20 -2.3094)
(30.0054 0 -2.49256)
(29.0686 0 -2.63774)
(28.1023 0 -2.74822)
(27.1228 -1.63196e-20 -2.82778)
(26.1434 -1.50346e-20 -2.88038)
(25.1748 -1.36415e-20 -2.9099)
(24.225 0 -2.91997)
(23.2996 0 -2.91388)
(22.4029 -1.06278e-20 -2.89453)
(21.5373 9.69843e-21 -2.86445)
(20.7043 -8.83167e-21 -2.82577)
(19.9043 -1.60481e-20 -2.7803)
(19.1375 2.90189e-20 -2.72956)
(18.4031 -5.42896e-23 -2.6748)
(17.7005 -1.18437e-20 -2.61705)
(17.0284 -1.06345e-20 -2.55716)
(16.3858 0 -2.49582)
(15.7714 0 -2.4336)
(15.1837 -7.50204e-21 -2.37097)
(14.6216 0 -2.30829)
(14.0837 1.15499e-20 -2.24585)
(13.5687 1.0012e-20 -2.1839)
(13.0754 -8.58409e-21 -2.12263)
(12.6026 0 -2.06217)
(12.1492 6.05951e-21 -2.00264)
(11.7141 4.9411e-21 -1.94412)
(11.2964 3.67201e-24 -1.88668)
(10.8949 -5.91493e-21 -1.83035)
(10.5089 0 -1.77517)
(10.1374 -2.55594e-21 -1.72114)
(9.7797 0 -1.66827)
(9.43489 0 -1.61654)
(9.10236 0 -1.56597)
(8.78131 1.37381e-23 -1.51649)
(8.47123 0 -1.46814)
(8.17133 -4.56246e-21 -1.42082)
(7.88123 1.0787e-20 -1.37458)
(7.60013 1.231e-20 -1.3293)
(7.32781 0 -1.28504)
(7.06342 -1.48797e-20 -1.24167)
(6.8069 -3.18969e-20 -1.19926)
(6.55732 0 -1.15764)
(6.31483 0 -1.11693)
(6.07834 1.84865e-20 -1.07691)
(5.84827 1.90999e-20 -1.03776)
(5.62332 -1.96566e-20 -0.999201)
(5.40423 -4.01842e-20 -0.961463)
(5.1894 0 -0.924204)
(4.97998 0 -0.88774)
(4.77399 2.84375e-23 -0.851639)
(4.57307 -4.23063e-20 -0.816317)
(4.37475 0 -0.781237)
(4.18127 4.26347e-20 -0.746934)
(3.98958 0 -0.712745)
(3.80262 0 -0.67935)
(3.61662 0 -0.64594)
(3.43538 0 -0.613359)
(3.2543 3.43267e-23 -0.580633)
(3.07812 -3.20842e-23 -0.548793)
(2.90136 -8.16355e-20 -0.516686)
(2.72976 0 -0.485544)
(2.55694 -7.93964e-20 -0.454031)
(2.38966 0 -0.423575)
(2.22065 -1.53579e-19 -0.392684)
(2.05776 1.50661e-19 -0.362942)
(1.89248 -1.47627e-19 -0.33274)
(1.73493 -1.44514e-19 -0.303845)
(1.57251 0 -0.274321)
(1.42353 1.37832e-19 -0.246757)
(1.26036 0 -0.217403)
(1.12748 -1.30855e-19 -0.192621)
(0.957007 -1.27078e-19 -0.161836)
(0.847638 2.47128e-19 -0.14233)
(0.673677 0 -0.108727)
(0.567965 -4.63824e-19 -0.0943415)
(0.45036 0 -0.0640581)
(0.237179 2.15659e-19 -0.036881)
(0.319773 0 -0.0452589)
(-0.0617013 1.99497e-19 0.0293467)
(0.0948171 0 -0.0171273)
(-0.163075 3.71061e-19 0.0578403)
(-0.290655 -3.57328e-19 0.0412146)
(-0.00501966 3.48509e-19 0.0380556)
(-0.942413 3.17695e-19 0.179)
(0.155054 0 -0.0502563)
(-0.910814 -5.80378e-19 0.234627)
(-0.593765 5.82116e-19 0.0593753)
(-0.19636 0 0.100717)
(-1.72934 2.47887e-19 0.305311)
(0.435856 0 -0.104987)
(-1.79906 0 0.445444)
(-0.804247 -4.69338e-19 0.019699)
(0.170499 0 0.0984342)
(-3.32466 0 0.614827)
(1.16165 4.50474e-19 -0.343486)
(-1.89291 6.45135e-19 0.622199)
(-2.87763 3.53592e-19 0.329534)
(1.97435 0 -0.282963)
(-5.70113 0 1.23688)
(0.837415 0 -0.537059)
(0.777966 0 0.184906)
(-6.29196 4.98174e-19 1.2103)
(1.95112 6.06159e-19 -0.715552)
(-0.135413 0 0.121333)
(-0.181041 0 0.0624622)
(-0.575819 0 0.147639)
(-0.75037 0 0.162716)
(32.669 4.20054e-21 0.396509)
(32.901 0 0.412181)
(33.1567 4.91798e-21 0.371228)
(33.4214 0 0.257624)
(33.6642 6.01991e-21 0.0719238)
(33.8538 0 -0.171168)
(33.967 -6.31059e-21 -0.452511)
(33.989 1.1572e-20 -0.754166)
(33.9104 2.36258e-20 -1.06097)
(33.7268 7.28904e-22 -1.36095)
(33.4375 0 -1.64508)
(33.046 0 -1.90715)
(32.5589 0 -2.14332)
(31.9855 0 -2.35149)
(31.3366 0 -2.53093)
(30.6243 0 -2.6819)
(29.861 1.47052e-20 -2.80543)
(29.0592 -1.36263e-20 -2.90309)
(28.2302 1.28176e-20 -2.97688)
(27.3845 0 -3.02901)
(26.5315 0 -3.0618)
(25.6788 9.78549e-21 -3.07759)
(24.833 8.95332e-21 -3.07863)
(23.9993 8.17165e-21 -3.06702)
(23.1816 0 -3.04469)
(22.3829 -1.36e-20 -3.01337)
(21.6056 -2.45244e-20 -2.97462)
(20.8509 1.10293e-20 -2.92978)
(20.1199 0 -2.88002)
(19.413 0 -2.82635)
(18.7303 0 -2.76961)
(18.0717 7.01344e-21 -2.71056)
(17.4366 0 -2.64979)
(16.8247 0 -2.58784)
(16.2353 9.37967e-21 -2.52513)
(15.6676 8.06395e-21 -2.46204)
(15.1209 0 -2.39886)
(14.5943 5.68803e-21 -2.33584)
(14.0871 -9.28098e-21 -2.27317)
(13.5983 -3.67233e-21 -2.21104)
(13.1272 2.78009e-21 -2.14956)
(12.673 0 -2.08886)
(12.2348 0 -2.02898)
(11.812 0 -1.97003)
(11.4037 -2.23759e-22 -1.91201)
(11.0092 0 -1.855)
(10.6279 2.44374e-21 -1.79896)
(10.259 3.38999e-21 -1.74396)
(9.90194 0 -1.68993)
(9.55618 -5.05788e-21 -1.63695)
(9.22088 0 -1.58491)
(8.89583 0 -1.5339)
(8.58005 -1.39239e-20 -1.48378)
(8.27354 2.16588e-23 -1.43466)
(7.97519 1.58361e-20 -1.38635)
(7.68525 0 -1.33901)
(7.4024 0 -1.29239)
(7.12721 -1.79251e-20 -1.24671)
(6.8581 0 -1.20165)
(6.596 3.77077e-20 -1.1575)
(6.33899 0 -1.11384)
(6.08847 0 -1.07109)
(5.84205 7.87368e-20 -1.02871)
(5.60173 7.93493e-20 -0.987209)
(5.36454 3.98531e-20 -0.945953)
(5.13318 0 -0.905591)
(4.90397 0 -0.865324)
(4.68046 3.98421e-20 -0.825977)
(4.45811 7.93244e-20 -0.786575)
(4.24147 0 -0.748142)
(4.02502 7.82036e-20 -0.7095)
(3.81446 -7.74293e-20 -0.6719)
(3.60316 7.65278e-20 -0.633946)
(3.39806 -7.54981e-20 -0.597131)
(3.19141 7.44159e-20 -0.559835)
(2.9914 0 -0.52379)
(2.78918 0 -0.487183)