/*--------------------------------*- C++ -*----------------------------------*\
| =========                 |                                                 |
| \\      /  F ield         | OpenFOAM: The Open Source CFD Toolbox           |
|  \\    /   O peration     | Version:  2412                                  |
|   \\  /    A nd           | Website:  www.openfoam.com                      |
|    \\/     M anipulation  |                                                 |
\*---------------------------------------------------------------------------*/
FoamFile
{
    version     2.0;
    format      ascii;
    arch        "LSB;label=32;scalar=64";
    class       volVectorField;
    location    "1";
    object      U_0;
}
// * * * * * * * * * * * * * * * * * * * * * * * * * * * * * * * * * * * * * //

dimensions      [0 1 -1 0 0 0 0];

internalField   nonuniform List<vector> 
12600
(
(18.7413 1.25243e-21 2.09562)
(11.6217 1.61087e-20 0.451305)
(7.35252 1.8935e-20 -0.477904)
(5.0905 0 -0.709371)
(3.97739 1.71115e-20 -0.682468)
(3.33656 1.59338e-20 -0.607746)
(2.8952 0 -0.540041)
(2.56386 0 -0.484565)
(2.30413 -4.78838e-20 -0.43908)
(2.09389 0 -0.401315)
(1.91942 2.00799e-20 -0.369423)
(1.77179 1.83842e-20 -0.342075)
(1.64489 -1.68398e-20 -0.318321)
(1.53438 0 -0.297465)
(1.43708 -1.41104e-20 -0.278982)
(1.3506 0 -0.262469)
(1.2731 4.74001e-20 -0.247611)
(1.20317 0 -0.234157)
(1.13967 -1.98314e-20 -0.221906)
(1.08169 -1.81338e-20 -0.210695)
(1.02849 1.65501e-20 -0.200389)
(0.979451 5.4121e-24 -0.190875)
(0.934079 0 -0.18206)
(0.891943 -2.49482e-20 -0.173865)
(0.852683 0 -0.166223)
(0.815993 0 -0.159076)
(0.781607 -1.84764e-20 -0.152374)
(0.7493 0 -0.146073)
(0.718873 4.07814e-24 -0.140138)
(0.690153 1.33316e-20 -0.134533)
(0.662989 1.18615e-20 -0.129231)
(0.637246 1.04999e-20 -0.124205)
(0.612805 -9.23922e-21 -0.119434)
(0.589562 -1.61447e-20 -0.114895)
(0.56742 -1.39857e-20 -0.110572)
(0.546295 1.19787e-20 -0.106447)
(0.526111 0 -0.102507)
(0.506799 -8.44121e-21 -0.0987365)
(0.488295 0 -0.0951245)
(0.470544 5.42047e-21 -0.0916599)
(0.453491 0 -0.0883321)
(0.437092 1.75217e-23 -0.0851325)
(0.421299 0 -0.0820518)
(0.406077 1.59477e-23 -0.079083)
(0.391383 -5.21674e-22 -0.0762178)
(0.377189 2.24158e-21 -0.0734509)
(0.363457 -3.8392e-21 -0.0707745)
(0.350164 0 -0.0681845)
(0.337275 0 -0.0656737)
(0.324774 -7.78145e-21 -0.0632393)
(0.312624 -1.77112e-20 -0.0608738)
(0.300819 -1.96469e-20 -0.0585763)
(0.289319 1.94295e-23 -0.0563386)
(0.278127 -2.29169e-20 -0.0541615)
(0.267196 0 -0.0520359)
(0.256542 2.55322e-20 -0.0499647)
(0.24611 2.65997e-20 -0.0479373)
(0.235929 2.75147e-20 -0.0459591)
(0.225933 0 -0.0440176)
(0.216166 0 -0.0421211)
(0.206549 0 -0.0402543)
(0.197146 -6.00627e-20 -0.0384294)
(0.187858 0 -0.0366275)
(0.178774 0 -0.0348655)
(0.16977 1.23398e-19 -0.0331196)
(0.160966 0 -0.0314128)
(0.152209 0 -0.0297155)
(0.143652 0 -0.0280574)
(0.13511 -1.23493e-19 -0.0264024)
(0.126775 1.22901e-19 -0.024788)
(0.118424 1.22081e-19 -0.0231706)
(0.110293 2.34523e-23 -0.0215962)
(0.10212 -1.19871e-19 -0.0200137)
(0.0941863 0 -0.0184776)
(0.0861907 1.16977e-19 -0.0169298)
(0.0784572 0 -0.0154327)
(0.07065 0 -0.0139214)
(0.0631427 0 -0.012468)
(0.0555272 2.86704e-23 -0.0109937)
(0.048335 2.148e-19 -0.009601)
(0.0408402 2.10292e-19 -0.00814992)
(0.0342159 -2.0566e-19 -0.00686635)
(0.0265773 -2.00777e-19 -0.0053876)
(0.0210065 0 -0.00430607)
(0.0128949 0 -0.00273685)
(0.00853114 3.71554e-19 -0.00188595)
(0.000820233 -7.21135e-19 -0.000394357)
(-0.00480617 7.00176e-19 0.000689322)
(-0.00635396 3.3981e-19 0.00101045)
(-0.022628 0 0.00412849)
(-0.00906696 -6.39922e-19 0.00154537)
(-0.0335626 3.03539e-19 0.00627668)
(-0.0242052 -2.97845e-19 0.00438943)
(-0.030293 5.66612e-19 0.00570936)
(-0.0510359 0 0.00949355)
(-0.00592769 0 0.00120772)
(-0.0939723 0 0.0178336)
(-0.00376275 0 0.000287817)
(-0.0594874 0 0.0118246)
(-0.0788287 0 0.0144553)
(0.00882163 -4.29475e-19 -0.0012944)
(-0.157266 -7.69823e-19 0.029824)
(0.0407101 -8.35619e-19 -0.00795703)
(-0.108434 0 0.0216417)
(-0.123644 0 0.0222244)
(0.0926738 0 -0.0166775)
(-0.294949 -5.57857e-19 0.0561129)
(0.0819232 -1.4113e-18 -0.0168406)
(-0.0596221 5.0467e-19 0.0136412)
(-0.364072 0 0.0673371)
(0.283575 -1.22615e-18 -0.0534925)
(-0.415658 0 0.0803468)
(-0.130127 -1.15575e-18 0.0211015)
(0.217787 9.52446e-19 -0.0395199)
(-0.535566 -7.91099e-19 0.102384)
(0.03512 -9.6316e-19 -0.00931651)
(0.0448681 8.17755e-19 -0.00813087)
(-0.0218986 2.20787e-23 0.00444128)
(-0.0301106 7.06752e-19 0.0061298)
(-0.106417 0 0.0201418)
(29.1522 -1.26433e-21 4.02781)
(25.1088 0 1.85911)
(20.2461 -1.91643e-20 -0.213606)
(16.0793 0 -1.21244)
(13.1196 -1.73389e-20 -1.50803)
(11.0768 -3.0442e-20 -1.51903)
(9.60441 -1.409e-20 -1.44138)
(8.4923 0 -1.34375)
(7.61935 3.55933e-22 -1.24835)
(6.91274 -2.19024e-20 -1.16127)
(6.32682 2.01083e-20 -1.08318)
(5.83156 1.84588e-20 -1.01336)
(5.40636 -1.69422e-20 -0.950796)
(5.03653 1.55469e-20 -0.894514)
(4.71133 2.85805e-20 -0.843653)
(4.42268 0 -0.797479)
(4.16439 -6.46107e-23 -0.755373)
(3.93161 2.19498e-20 -0.716813)
(3.72053 2.012e-20 -0.68136)
(3.52805 0 -0.648643)
(3.35167 0 -0.618346)
(3.18932 1.52945e-20 -0.590201)
(3.03928 0 -0.563977)
(2.90012 1.26469e-20 -0.539475)
(2.77061 -2.29292e-20 -0.516524)
(2.64973 0 -0.494974)
(2.53657 1.87269e-20 -0.474693)
(2.43037 0 -0.455568)
(2.33046 -1.51114e-20 -0.437496)
(2.23627 -2.70085e-20 -0.420388)
(2.14727 -2.4026e-20 -0.404165)
(2.06302 -1.06279e-20 -0.388754)
(1.98312 9.34919e-21 -0.374093)
(1.90721 3.26821e-20 -0.360124)
(1.83497 2.83054e-20 -0.346795)
(1.76612 0 -0.334059)
(1.7004 0 -0.321875)
(1.63759 -1.73025e-23 -0.310204)
(1.57746 0 -0.299009)
(1.51983 -5.47219e-21 -0.288261)
(1.46453 0 -0.277927)
(1.41139 -5.76655e-21 -0.267983)
(1.36027 0 -0.2584)
(1.31104 -1.40119e-21 -0.24916)
(1.26357 0 -0.240236)
(1.21775 -2.25713e-21 -0.231614)
(1.17347 0 -0.223269)
(1.13064 0 -0.21519)
(1.08915 6.59521e-21 -0.207354)
(1.04895 0 -0.199755)
(1.00991 0 -0.192368)
(0.972012 0 -0.185192)
(0.935127 2.14314e-20 -0.1782)
(0.899258 4.59198e-20 -0.171397)
(0.864262 0 -0.164753)
(0.830175 0 -0.158279)
(0.796834 -2.65753e-20 -0.15194)
(0.764314 -2.75134e-20 -0.145756)
(0.732418 0 -0.139684)
(0.701272 0 -0.133755)
(0.670634 0 -0.127916)
(0.640693 0 -0.122211)
(0.611148 -6.05051e-20 -0.116574)
(0.582263 6.1006e-20 -0.111065)
(0.553662 -1.22696e-19 -0.105605)
(0.525703 0 -0.100268)
(0.497919 0 -0.0949592)
(0.470776 0 -0.0897755)
(0.443702 4.73129e-23 -0.0845986)
(0.417288 -1.21726e-19 -0.0795514)
(0.390841 -1.20804e-19 -0.0744917)
(0.365093 2.39355e-19 -0.0695696)
(0.339223 3.58698e-23 -0.0646184)
(0.314108 -1.16904e-19 -0.0598157)
(0.288805 -1.15312e-19 -0.0549717)
(0.264325 0 -0.0502893)
(0.239616 0 -0.0455585)
(0.215841 0 -0.0410099)
(0.191735 2.15064e-19 -0.0363955)
(0.168918 0 -0.0320288)
(0.145214 0 -0.0274933)
(0.124092 2.01283e-19 -0.0234507)
(0.100011 1.96294e-19 -0.0188426)
(0.0820512 0 -0.0154131)
(0.056543 0 -0.010516)
(0.0423899 0 -0.0078482)
(0.0177437 7.0191e-19 -0.00306354)
(0.000591669 -4.75009e-23 8.25571e-05)
(-0.00684223 3.30011e-19 0.00168902)
(-0.0543229 -3.17131e-19 0.0106224)
(-0.0167029 6.20159e-19 0.00332279)
(-0.0913648 2.93822e-19 0.018065)
(-0.0612837 5.76039e-19 0.0114818)
(-0.0853021 0 0.0170541)
(-0.140647 0 0.0264785)
(-0.0186772 0 0.00433884)
(-0.270888 0 0.0524711)
(-0.00341635 4.86016e-19 -0.00083188)
(-0.185127 0 0.0378601)
(-0.217784 0 0.0399104)
(0.0126158 -4.11937e-19 -0.00085314)
(-0.454103 3.68702e-19 0.0874208)
(0.119896 1.5994e-18 -0.0246515)
(-0.340766 -6.43366e-19 0.0698537)
(-0.329708 0 0.0584545)
(0.230609 0 -0.0411633)
(-0.854732 0 0.165534)
(0.259876 6.72135e-19 -0.0557405)
(-0.231638 -4.80295e-19 0.0543346)
(-0.997643 0 0.184997)
(0.77836 2.33045e-18 -0.149989)
(-1.25218 7.16331e-19 0.249049)
(-0.264145 2.19181e-18 0.0374415)
(0.554256 0 -0.0991888)
(-1.5833 0 0.308154)
(0.182747 -9.10946e-19 -0.0465484)
(0.106763 0 -0.0191582)
(-0.0731378 -7.57377e-19 0.015173)
(-0.099336 -6.67606e-19 0.0207403)
(-0.301954 0 0.059)
(31.8959 0 3.8984)
(31.0816 0 2.8198)
(28.5517 -1.29847e-20 1.0238)
(25.2086 0 -0.383242)
(21.9569 0 -1.22724)
(19.1843 1.51325e-20 -1.65198)
(16.9266 1.33433e-20 -1.82021)
(15.1019 0 -1.85175)
(13.6147 4.20747e-22 -1.818)
(12.3848 2.07495e-20 -1.75547)
(11.3517 -3.78917e-20 -1.68165)
(10.4711 -1.74896e-20 -1.60492)
(9.71083 1.14573e-22 -1.52925)
(9.04703 -1.47319e-20 -1.45648)
(8.46179 -1.35147e-20 -1.38742)
(7.94138 1.23429e-20 -1.32232)
(7.47514 -2.27137e-20 -1.26116)
(7.05466 -2.08006e-20 -1.20378)
(6.67318 0 -1.14997)
(6.32527 0 -1.09948)
(6.00645 1.58569e-20 -1.05206)
(5.71304 1.44615e-20 -1.00748)
(5.44195 0 -0.965502)
(5.1906 0 -0.925927)
(4.9568 2.17268e-20 -0.888562)
(4.73866 0 -0.853232)
(4.53457 -3.54828e-20 -0.819778)
(4.34315 1.59661e-20 -0.788056)
(4.16318 0 -0.757934)
(3.9936 1.2797e-20 -0.729294)
(3.83347 1.13842e-20 -0.702027)
(3.68199 0 -0.676034)
(3.53842 -8.86958e-21 -0.651225)
(3.40212 -1.54868e-20 -0.62752)
(3.27249 1.20867e-23 -0.604841)
(3.14903 0 -0.583121)
(3.03127 0 -0.562296)
(2.91879 8.09223e-21 -0.542308)
(2.81119 0 -0.523104)
(2.70814 0 -0.504634)
(2.60932 0 -0.486851)
(2.51443 0 -0.469716)
(2.42322 0 -0.453185)
(2.33543 0 -0.437226)
(2.25084 0 -0.421799)
(2.16926 2.09331e-21 -0.40688)
(2.09046 -3.60276e-21 -0.39243)
(2.01431 0 -0.37843)
(1.94059 -6.23968e-21 -0.364844)
(1.8692 0 -0.35166)
(1.79994 0 -0.338838)
(1.73274 1.85707e-20 -0.326376)
(1.66739 0 -0.31423)
(1.60387 -2.16955e-20 -0.302408)
(1.54195 2.29643e-20 -0.290859)
(1.48168 0 -0.279603)
(1.42277 2.51194e-20 -0.268579)
(1.36534 0 -0.257824)
(1.30905 0 -0.247262)
(1.25412 0 -0.236947)
(1.20013 5.56544e-20 -0.226788)
(1.14739 5.64795e-20 -0.216862)
(1.09538 2.83933e-23 -0.207055)
(1.04456 -1.15187e-19 -0.19747)
(0.99427 2.49062e-23 -0.187967)
(0.945127 0 -0.178683)
(0.896325 0 -0.169444)
(0.84866 -1.15888e-19 -0.160426)
(0.801146 3.81043e-23 -0.151417)
(0.754796 0 -0.142636)
(0.708414 0 -0.13383)
(0.663258 -1.12841e-19 -0.125266)
(0.617909 2.88653e-23 -0.116647)
(0.573878 2.68748e-23 -0.10829)
(0.529531 0 -0.0998554)
(0.486617 0 -0.0917047)
(0.443304 -2.10308e-19 -0.0834645)
(0.401609 2.06497e-19 -0.0755404)
(0.359346 0 -0.0675028)
(0.319277 0 -0.0598796)
(0.27774 0 -0.0519914)
(0.240503 0 -0.0448953)
(0.198409 0 -0.0369124)
(0.166469 0 -0.0308346)
(0.121979 0 -0.0223539)
(0.0966625 0 -0.0176525)
(0.0531662 -6.59896e-19 -0.00914611)
(0.0238867 -3.19957e-19 -0.0040781)
(0.00749946 -3.10168e-19 -0.000178056)
(-0.0702687 2.98001e-19 0.0137892)
(-0.0119249 -5.82584e-19 0.00275576)
(-0.138164 -2.75985e-19 0.0279647)
(-0.0856424 -2.70463e-19 0.0155804)
(-0.133691 0 0.0278041)
(-0.217288 0 0.0396709)
(-0.0311287 0 0.00871257)
(-0.436529 0 0.0843039)
(0.00425513 -4.55964e-19 -0.00472767)
(-0.316586 0 0.0674035)
(-0.338509 0 0.058767)
(0.00297747 3.86243e-19 0.00493373)
(-0.734718 0 0.139872)
(0.195479 -7.49549e-19 -0.0417852)
(-0.587029 6.02907e-19 0.125219)
(-0.49803 0 0.0800742)
(0.322898 0 -0.0501692)
(-1.38619 0 0.267471)
(0.446259 6.29304e-19 -0.101875)
(-0.45055 0 0.116402)
(-1.5437 -4.96997e-19 0.272399)
(1.19843 4.71098e-22 -0.226543)
(-2.09012 -6.70409e-19 0.425004)
(-0.280624 -2.0496e-18 0.0111997)
(0.79523 0 -0.124849)
(-2.60137 7.00414e-19 0.507934)
(0.403664 8.52082e-19 -0.11404)
(0.13957 7.23643e-19 -0.0207515)
(-0.127094 0 0.0280722)
(-0.176323 6.24235e-19 0.0387273)
(-0.477429 0 0.0942304)
(32.4175 0 2.95617)
(32.9835 0 2.76949)
(32.43 1.22748e-20 1.72423)
(30.7865 0 0.522121)
(28.5327 -1.23158e-20 -0.483777)
(26.1157 2.50499e-20 -1.20726)
(23.7955 0 -1.67066)
(21.6884 -2.18639e-20 -1.93501)
(19.8278 2.09623e-20 -2.0643)
(18.2044 1.89564e-20 -2.10863)
(16.7905 1.78156e-20 -2.10184)
(15.555 -1.61925e-20 -2.06521)
(14.4693 1.50738e-20 -2.01172)
(13.5092 -2.74803e-20 -1.94918)
(12.6547 0 -1.88232)
(11.8893 -2.32842e-20 -1.81404)
(11.1998 0 -1.74606)
(10.5753 0 -1.67944)
(10.0068 0 -1.61479)
(9.48706 1.6378e-20 -1.55245)
(9.0098 -3.42159e-23 -1.49259)
(8.56989 -2.60298e-23 -1.43525)
(8.16297 1.24352e-20 -1.38043)
(7.78534 0 -1.32806)
(7.43383 0 -1.27805)
(7.10572 0 -1.23029)
(6.79866 3.35441e-20 -1.18469)
(6.51061 -6.01405e-24 -1.14112)
(6.23977 0 -1.09947)
(5.98458 0 -1.05964)
(5.74365 0 -1.02153)
(5.51577 0 -0.985025)
(5.29985 1.67771e-20 -0.950041)
(5.09491 0 -0.916489)
(4.90009 -1.26932e-20 -0.884282)
(4.7146 0 -0.853345)
(4.53775 0 -0.823601)
(4.3689 -7.6732e-21 -0.794985)
(4.20746 0 -0.767428)
(4.05293 0 -0.740872)
(3.9048 3.7264e-21 -0.715258)
(3.76266 -5.23035e-21 -0.690537)
(3.62608 0 -0.666651)
(3.49472 -1.319e-21 -0.643562)
(3.36821 0 -0.621215)
(3.24627 -3.93575e-21 -0.59958)
(3.12857 1.88227e-23 -0.578605)
(3.01488 0 -0.558266)
(2.9049 0 -0.538512)
(2.79846 6.92697e-21 -0.519329)
(2.69525 1.57771e-20 -0.500661)
(2.59518 -3.50418e-20 -0.482508)
(2.49792 0 -0.464806)
(2.40346 -2.04321e-20 -0.447569)
(2.31143 -2.16774e-20 -0.430723)
(2.2219 -2.27275e-20 -0.414301)
(2.13445 -2.36648e-20 -0.398211)
(2.04925 0 -0.382511)
(1.9658 0 -0.367088)
(1.8844 -5.1504e-20 -0.352026)
(1.80445 -1.04962e-19 -0.337189)
(1.72639 -5.32698e-20 -0.32269)
(1.64947 3.04678e-23 -0.308363)
(1.57433 5.42935e-20 -0.29436)
(1.50003 5.45697e-20 -0.280477)
(1.42744 0 -0.266912)
(1.35541 0 -0.253413)
(1.28507 1.09211e-19 -0.240235)
(1.21499 2.17473e-19 -0.22707)
(1.14665 0 -0.214238)
(1.07829 1.07222e-19 -0.201369)
(1.01174 1.0621e-19 -0.188853)
(0.944926 1.05056e-19 -0.176255)
(0.880055 2.07431e-19 -0.164038)
(0.81473 0 -0.151706)
(0.751508 0 -0.139787)
(0.687698 1.97905e-19 -0.127733)
(0.62625 -3.88527e-19 -0.116138)
(0.563971 -1.90416e-19 -0.104379)
(0.50484 0 -0.0932021)
(0.443655 0 -0.081676)
(0.388499 0 -0.0712194)
(0.326632 0 -0.0596004)
(0.278928 0 -0.0505558)
(0.213687 0 -0.0382357)
(0.175632 -3.19768e-19 -0.0312386)
(0.111176 4.07152e-23 -0.0186285)
(0.0690094 3.00422e-19 -0.0116798)
(0.0402865 0 -0.00460163)
(-0.0666944 2.79701e-19 0.0137236)
(0.00816614 2.73418e-19 2.02901e-06)
(-0.170415 0 0.0358199)
(-0.0944622 -2.5373e-19 0.0169849)
(-0.172846 -4.82072e-19 0.037776)
(-0.277974 0 0.0496488)
(-0.0415572 0 0.0140273)
(-0.586812 0 0.113352)
(0.0191332 -4.27417e-19 -0.0104975)
(-0.450549 0 0.0994852)
(-0.438263 0 0.072287)
(-0.0198181 3.62031e-19 0.0151221)
(-0.994392 -3.23576e-19 0.187668)
(0.26467 0 -0.0583993)
(-0.841736 0 0.185515)
(-0.627348 0 0.0908177)
(0.36863 0 -0.046949)
(-1.88024 0 0.362311)
(0.631839 -4.09158e-23 -0.151622)
(-0.708253 0 0.193641)
(-1.99519 4.65075e-19 0.33695)
(1.53223 -1.02117e-18 -0.284941)
(-2.91231 0 0.602986)
(-0.185464 7.04966e-22 -0.0458319)
(0.939358 0 -0.122987)
(-3.56334 -2.61451e-22 0.697852)
(0.688578 0 -0.203848)
(0.141099 -6.76581e-19 -0.0136437)
(-0.177387 0 0.0411313)
(-0.258729 5.83554e-19 0.0588358)
(-0.625102 0 0.125441)
(32.5199 0 2.10375)
(33.2776 0 2.2289)
(33.6243 0 1.75322)
(33.2599 0 0.958508)
(32.2369 1.16252e-20 0.11603)
(30.7625 -9.01536e-22 -0.633698)
(29.0424 0 -1.23524)
(27.2355 2.06365e-20 -1.67943)
(25.4513 0 -1.98344)
(23.7561 -3.52844e-20 -2.17554)
(22.1823 0 -2.28433)
(20.74 1.52868e-20 -2.33382)
(19.4267 0 -2.34233)
(18.2336 2.59457e-20 -2.32313)
(17.1496 -1.18185e-20 -2.28551)
(16.163 2.1839e-20 -2.23594)
(15.2631 -1.99937e-20 -2.17886)
(14.4398 -1.83533e-20 -2.11734)
(13.6844 0 -2.05347)
(12.9892 -1.54654e-20 -1.98873)
(12.3474 -1.41304e-20 -1.9241)
(11.7533 -2.57473e-20 -1.86026)
(11.2018 -1.17422e-20 -1.79767)
(10.6885 0 -1.73663)
(10.2096 0 -1.67733)
(9.7616 0 -1.61986)
(9.3417 -1.58317e-20 -1.56429)
(8.94726 -1.42514e-20 -1.51062)
(8.576 0 -1.45884)
(8.22588 0 -1.4089)
(7.89512 1.01658e-20 -1.36076)
(7.58209 0 -1.31437)
(7.28538 1.35717e-24 -1.26965)
(7.00369 -1.38467e-20 -1.22655)
(6.73585 1.19983e-20 -1.18498)
(6.48084 0 -1.14489)
(6.2377 0 -1.10621)
(6.00557 7.24212e-21 -1.06887)
(5.78366 0 -1.03281)
(5.57128 0 -0.997966)
(5.36776 -3.51646e-21 -0.964276)
(5.17251 4.93538e-21 -0.93169)
(4.98498 0 -0.900143)
(4.80467 1.24445e-21 -0.869594)
(4.63108 0 -0.839981)
(4.46383 1.84712e-21 -0.811269)
(4.30247 3.19271e-21 -0.783395)
(4.14668 0 -0.756337)
(3.99604 5.51116e-21 -0.730027)
(3.85033 -6.53252e-21 -0.704455)
(3.70911 -2.97252e-20 -0.679547)
(3.57226 1.65065e-20 -0.655309)
(3.43933 -1.79369e-20 -0.631655)
(3.31029 2.53434e-23 -0.608611)
(3.18465 0 -0.586075)
(3.06248 2.14216e-20 -0.564097)
(2.94322 2.23028e-20 -0.542555)
(2.82709 -2.3045e-20 -0.521527)
(2.71343 2.36958e-20 -0.500864)
(2.60261 4.85242e-20 -0.480678)
(2.49382 4.94229e-20 -0.460789)
(2.38766 -5.01142e-20 -0.44135)
(2.28311 5.06989e-20 -0.422138)
(2.18103 0 -0.403358)
(2.08015 0 -0.384735)
(1.98163 5.14599e-20 -0.366539)
(1.88391 0 -0.348427)
(1.78853 0 -0.330746)
(1.69354 -1.02313e-19 -0.313079)
(1.60092 0 -0.295859)
(1.50832 -1.0088e-19 -0.278585)
(1.41818 -1.99795e-19 -0.261784)
(1.32772 0 -0.244869)
(1.23988 -9.75251e-20 -0.228465)
(1.15144 0 -0.211899)
(1.06584 0 -0.195889)
(0.979431 -1.85946e-19 -0.179689)
(0.896197 1.82565e-19 -0.164101)
(0.811839 3.93499e-23 -0.148293)
(0.73164 0 -0.133239)
(0.648781 0 -0.117761)
(0.573705 0 -0.103605)
(0.490093 -1.62968e-19 -0.0880634)
(0.424635 1.58806e-19 -0.0756968)
(0.336673 0 -0.059254)
(0.28408 6.00295e-19 -0.0496737)
(0.196353 2.90841e-19 -0.032514)
(0.140334 -5.63797e-19 -0.0237586)
(0.0956287 -2.73193e-19 -0.0124306)
(-0.0394764 -5.24741e-19 0.00926437)
(0.0469069 0 -0.00558168)
(-0.18408 0 0.0407418)
(-0.0847295 2.37913e-19 0.0148496)
(-0.19962 4.5195e-19 0.0464208)
(-0.319621 -4.35505e-19 0.0553058)
(-0.04762 0 0.0200495)
(-0.717518 0 0.138216)
(0.0410891 4.00463e-19 -0.0181344)
(-0.582724 3.53948e-19 0.133332)
(-0.515107 0 0.0792075)
(-0.0542815 -3.3905e-19 0.0301829)
(-1.22858 3.02993e-19 0.228969)
(0.324851 0 -0.0736895)
(-1.09823 0 0.249444)
(-0.718964 0 0.0890778)
(0.370388 0 -0.0294267)
(-2.32873 0 0.445964)
(0.806055 -5.51099e-19 -0.20298)
(-0.993606 0 0.285749)
(-2.35036 0 0.373146)
(1.77415 0 -0.319597)
(-3.70186 5.86148e-19 0.778232)
(0.00403634 8.95445e-19 -0.13581)
(0.994532 0 -0.0885866)
(-4.44226 -6.12121e-19 0.869627)
(1.0175 0 -0.315526)
(0.111682 -6.32651e-19 0.00438)
(-0.216395 0 0.0529845)
(-0.343565 -5.45352e-19 0.0806863)
(-0.73652 0 0.150091)
(32.5918 -4.98651e-21 1.48975)
(33.1751 -6.18915e-21 1.62908)
(33.7017 7.34876e-21 1.43769)
(33.9272 8.28117e-21 0.976275)
(33.7346 0 0.383876)
(33.1357 -9.926e-21 -0.232487)
(32.204 0 -0.806989)
(31.0303 1.74396e-20 -1.30261)
(29.7034 1.6675e-20 -1.70391)
(28.2997 3.21633e-20 -2.01133)
(26.8786 -1.4799e-20 -2.23458)
(25.4823 1.38103e-20 -2.38717)
(24.138 0 -2.48302)
(22.8612 0 -2.53476)
(21.6593 1.11423e-20 -2.55303)
(20.5341 -1.1459e-22 -2.54638)
(19.4839 1.76114e-22 -2.52144)
(18.5052 1.35939e-22 -2.4833)
(17.5935 0 -2.43579)
(16.744 0 -2.38181)
(15.9516 0 -2.32351)
(15.2118 2.41929e-20 -2.26249)
(14.52 1.10069e-20 -2.19996)
(13.8722 0 -2.1368)
(13.2647 0 -2.07368)
(12.694 1.6476e-20 -2.01108)
(12.1571 0 -1.94934)
(11.6512 0 -1.88874)
(11.1737 0 -1.82943)
(10.7224 0 -1.77155)
(10.2953 -6.41925e-24 -1.71516)
(9.89035 0 -1.66031)
(9.506 -1.63016e-24 -1.60701)
(9.14069 1.30526e-20 -1.55526)
(8.79302 2.588e-24 -1.50504)
(8.46174 0 -1.45634)
(8.14567 0 -1.4091)
(7.84377 0 -1.36331)
(7.55505 0 -1.31889)
(7.27865 0 -1.27582)
(7.01373 0 -1.23404)
(6.75955 0 -1.19351)
(6.5154 -2.87274e-21 -1.15417)
(6.28067 -1.20876e-21 -1.11598)
(6.05471 0 -1.07888)
(5.83704 1.70569e-21 -1.04284)
(5.62706 0 -1.00778)
(5.42439 0 -0.973701)
(5.22847 -1.03664e-20 -0.940512)
(5.03902 0 -0.908213)
(4.85548 1.3983e-20 -0.876715)
(4.67768 0 -0.846032)
(4.50505 3.37532e-20 -0.816059)
(4.33753 2.45609e-23 -0.786834)
(4.1745 0 -0.758232)
(4.01604 0 -0.730319)
(3.86145 0 -0.702942)
(3.71097 4.33602e-20 -0.676204)
(3.56377 -4.45821e-20 -0.649918)
(3.42031 -4.55933e-20 -0.624229)
(3.27956 -4.64385e-20 -0.598907)
(3.14227 9.42667e-20 -0.57415)
(3.00713 4.76368e-20 -0.549674)
(2.87524 0 -0.525745)
(2.74496 0 -0.502008)
(2.61779 -2.43013e-23 -0.478811)
(2.49171 0 -0.455716)
(2.36867 0 -0.433167)
(2.2462 -9.6107e-20 -0.410632)
(2.12681 0 -0.388663)
(2.00749 0 -0.36662)
(1.89135 1.87696e-19 -0.345179)
(1.77483 -9.27625e-20 -0.323585)
(1.66168 0 -0.302642)
(1.54777 0 -0.281481)
(1.4375 0 -0.26103)
(1.32618 1.74632e-19 -0.240325)
(1.21892 0 -0.220395)
(1.11019 3.35905e-19 -0.200182)
(1.00671 -1.64384e-19 -0.180898)
(0.899925 0 -0.161123)
(0.802718 0 -0.1429)
(0.695154 1.52926e-19 -0.123116)
(0.609731 -2.58792e-23 -0.107039)
(0.496842 1.44734e-19 -0.0861647)
(0.427681 -2.81515e-19 -0.0736627)
(0.314131 2.72691e-19 -0.0515082)
(0.243079 2.64325e-19 -0.0409309)
(0.178421 2.56144e-19 -0.0243573)
(0.0163305 3.78711e-23 -7.40285e-05)
(0.108368 0 -0.0144499)
(-0.174379 -2.27561e-19 0.0419489)
(-0.0528357 0 0.00882536)
(-0.210174 0 0.053163)
(-0.33851 4.07987e-19 0.0562717)
(-0.0462894 0 0.0264317)
(-0.823873 0 0.158142)
(0.0703875 0 -0.0273904)
(-0.707866 -3.31406e-19 0.167994)
(-0.567308 0 0.079453)
(-0.0979516 -3.17481e-19 0.0498315)
(-1.43232 0 0.26311)
(0.373934 0 -0.0868985)
(-1.349 0 0.315377)
(-0.775518 0 0.0759391)
(0.332714 0 0.00132757)
(-2.72321 -4.07161e-19 0.518088)
(0.958276 -5.1541e-19 -0.253582)
(-1.29471 3.68989e-19 0.389926)
(-2.61019 0 0.383102)
(1.92316 0 -0.331066)
(-4.44178 -1.09573e-18 0.945679)
(0.262246 0 -0.252143)
(0.973527 6.93166e-19 -0.024217)
(-5.20944 0 1.01679)
(1.36189 6.94868e-19 -0.442915)
(0.0530778 5.91201e-19 0.0331972)
(-0.235776 0 0.06176)
(-0.427424 -5.09565e-19 0.103428)
(-0.801892 0 0.166339)
(32.6461 4.69594e-21 1.03784)
(33.0571 1.14096e-20 1.12456)
(33.5031 -6.92214e-21 1.04122)
(33.8682 -7.82654e-22 0.777491)
(34.0414 7.49851e-21 0.386833)
(33.9668 0 -0.0688082)
(33.6365 0 -0.540316)
(33.0705 -1.64219e-20 -0.991952)
(32.3043 -3.05001e-20 -1.40009)
(31.3804 -7.09149e-22 -1.75169)
(30.3422 1.39341e-20 -2.04225)
(29.2304 -1.30031e-20 -2.27311)
(28.08 1.17587e-20 -2.44912)
(26.9192 0 -2.57686)
(25.7696 0 -2.66352)
(24.6466 -9.54754e-21 -2.7161)
(23.5608 3.49352e-20 -2.74099)
(22.5186 3.21509e-20 -2.74376)
(21.5235 0 -2.72914)
(20.5769 0 -2.70101)
(19.6786 0 -2.66254)
(18.8273 -6.73266e-23 -2.61626)
(18.0214 -2.0676e-20 -2.56421)
(17.2587 9.39011e-21 -2.50799)
(16.5368 1.70629e-20 -2.44889)
(15.8534 -3.09779e-20 -2.38789)
(15.2061 1.39763e-20 -2.32579)
(14.5927 1.2593e-20 -2.2632)
(14.0108 1.13075e-20 -2.2006)
(13.4584 0 -2.13836)
(12.9336 -9.01726e-21 -2.07676)
(12.4345 7.9773e-21 -2.01602)
(11.9594 -7.02954e-21 -1.9563)
(11.5068 -1.22822e-20 -1.89772)
(11.075 -2.12967e-20 -1.84036)
(10.6629 0 -1.78427)
(10.2691 0 -1.72949)
(9.89237 -6.44445e-21 -1.67604)
(9.53172 0 -1.62391)
(9.1861 4.1544e-21 -1.5731)
(8.85456 3.14316e-21 -1.52359)
(8.53626 0 -1.47536)
(8.23034 5.42244e-21 -1.42838)
(7.93608 1.13752e-21 -1.38262)
(7.65273 0 -1.33803)
(7.3797 -1.60498e-21 -1.2946)
(7.11628 -2.78323e-21 -1.25225)
(6.862 0 -1.21099)
(6.61619 9.72356e-21 -1.17073)
(6.3785 -5.74606e-21 -1.13148)
(6.14825 -1.30996e-20 -1.09314)
(5.92523 0 -1.05573)
(5.70874 -2.48391e-23 -1.01914)
(5.4987 3.39973e-20 -0.983424)
(5.29434 0 -0.948428)
(5.09579 0 -0.914244)
(4.90212 -1.96802e-20 -0.880685)
(4.71369 -2.03739e-20 -0.847886)
(4.52941 4.1876e-20 -0.815616)
(4.3499 4.28588e-20 -0.784061)
(4.17384 4.36495e-20 -0.752936)
(4.00217 -4.4284e-20 -0.722495)
(3.83327 -8.95066e-20 -0.692381)
(3.66848 0 -0.662931)
(3.50578 0 -0.633704)
(3.34701 -9.08633e-20 -0.605134)
(3.18966 0 -0.576679)
(3.03616 0 -0.548891)
(2.88342 9.02652e-20 -0.521108)
(2.73455 0 -0.49402)
(2.5858 -8.89339e-20 -0.466829)
(2.44104 -3.23788e-23 -0.440378)
(2.29582 8.70864e-20 -0.413724)
(2.15482 0 -0.387872)
(2.01285 0 -0.361735)
(1.87543 0 -0.336474)
(1.73665 1.63783e-19 -0.310879)
(1.60291 0 -0.286238)
(1.46729 -1.57548e-19 -0.261236)
(1.33809 3.08363e-19 -0.237346)
(1.20487 0 -0.212899)
(1.0831 0 -0.190215)
(0.949116 0 -0.165838)
(0.841293 -2.56096e-23 -0.145633)
(0.701001 -1.35684e-19 -0.11999)
(0.612998 -2.63796e-19 -0.104192)
(0.4708 -2.55578e-19 -0.0765641)
(0.383287 2.47631e-19 -0.0641331)
(0.294406 0 -0.04124)
(0.10639 2.30389e-19 -0.0151222)
(0.197385 0 -0.0274003)
(-0.135765 2.13148e-19 0.0384994)
(0.00542649 0 -0.00157304)
(-0.199877 0 0.0572803)
(-0.330407 0 0.0517998)
(-0.0337614 -3.72425e-19 0.0326757)
(-0.900693 -3.39575e-19 0.172088)
(0.107904 0 -0.0381138)
(-0.819823 3.10177e-19 0.20227)
(-0.593605 -3.11208e-19 0.0727916)
(-0.147172 2.97059e-19 0.0736368)
(-1.60069 -2.65056e-19 0.288784)
(0.41084 0 -0.0974207)
(-1.58589 0 0.381423)
(-0.801463 0 0.0522549)
(0.262615 0 0.0445853)
(-3.05688 3.80732e-19 0.574621)
(1.07919 -1.26925e-23 -0.301035)
(-1.59931 -6.90021e-19 0.503227)
(-2.78104 0 0.367425)
(1.98537 0 -0.318074)
(-5.11475 5.11948e-19 1.10022)
(0.554344 0 -0.388707)
(0.894075 -6.47762e-19 0.0684132)
(-5.83567 0 1.13242)
(1.68599 -1.29815e-18 -0.579029)
(-0.0311943 0 0.0726933)
(-0.226908 0 0.065574)
(-0.506405 4.76014e-19 0.126129)
(-0.810437 0 0.171503)
(32.6703 0 0.684774)
(32.9717 -5.24962e-21 0.72774)
(33.3085 0 0.677877)
(33.6389 -6.60246e-21 0.514437)
(33.8997 -1.34597e-20 0.252265)
(34.0399 0 -0.0769054)
(34.0312 6.71429e-21 -0.441655)
(33.8621 0 -0.815886)
(33.5332 9.01255e-22 -1.1794)
(33.054 -2.58569e-20 -1.51773)
(32.4406 0 -1.82156)
(31.7132 0 -2.08597)
(30.894 -1.10597e-20 -2.3094)
(30.0054 0 -2.49256)
(29.0686 0 -2.63774)
(28.1023 0 -2.74822)
(27.1228 -1.63196e-20 -2.82778)
(26.1434 -1.50345e-20 -2.88038)
(25.1748 -1.36415e-20 -2.9099)
(24.225 0 -2.91997)
(23.2996 0 -2.91388)
(22.4029 -1.06277e-20 -2.89453)
(21.5373 9.69841e-21 -2.86445)
(20.7043 -8.83166e-21 -2.82577)
(19.9043 -1.60481e-20 -2.7803)
(19.1375 2.9019e-20 -2.72956)
(18.4031 -5.4291e-23 -2.6748)
(17.7005 -1.18437e-20 -2.61705)
(17.0284 -1.06345e-20 -2.55716)
(16.3858 0 -2.49582)
(15.7714 0 -2.4336)
(15.1837 -7.50211e-21 -2.37097)
(14.6216 0 -2.30829)
(14.0837 1.155e-20 -2.24585)
(13.5687 1.00121e-20 -2.1839)
(13.0754 -8.58417e-21 -2.12263)
(12.6026 0 -2.06217)
(12.1492 6.05957e-21 -2.00264)
(11.7141 4.94115e-21 -1.94412)
(11.2964 3.67193e-24 -1.88668)
(10.8949 -5.91499e-21 -1.83036)
(10.5089 0 -1.77518)
(10.1374 -2.556e-21 -1.72114)
(9.7797 0 -1.66827)
(9.43489 0 -1.61654)
(9.10236 0 -1.56597)
(8.78131 1.37376e-23 -1.51649)
(8.47123 0 -1.46814)
(8.17133 -4.56238e-21 -1.42082)
(7.88123 1.07868e-20 -1.37458)
(7.60013 1.23099e-20 -1.3293)
(7.32781 0 -1.28504)
(7.06342 -1.48797e-20 -1.24167)
(6.80691 -3.18968e-20 -1.19926)
(6.55732 0 -1.15764)
(6.31483 0 -1.11693)
(6.07834 1.84866e-20 -1.07691)
(5.84827 1.91e-20 -1.03776)
(5.62332 -1.96567e-20 -0.999201)
(5.40423 -4.01845e-20 -0.961464)
(5.1894 0 -0.924205)
(4.97999 0 -0.887741)
(4.774 2.84394e-23 -0.85164)
(4.57307 -4.23065e-20 -0.816318)
(4.37476 0 -0.781237)
(4.18128 4.26348e-20 -0.746934)
(3.98958 0 -0.712746)
(3.80262 0 -0.679351)
(3.61663 0 -0.645941)
(3.43538 0 -0.61336)
(3.25431 3.43246e-23 -0.580634)
(3.07813 -3.20828e-23 -0.548794)
(2.90136 -8.16355e-20 -0.516687)
(2.72977 0 -0.485545)
(2.55695 -7.93968e-20 -0.454032)
(2.38967 0 -0.423576)
(2.22066 -1.5358e-19 -0.392685)
(2.05777 1.50661e-19 -0.362943)
(1.89249 -1.47627e-19 -0.332741)
(1.73493 -1.44514e-19 -0.303846)
(1.57252 0 -0.274323)
(1.42353 1.37831e-19 -0.246758)
(1.26037 0 -0.217405)
(1.12749 -1.30854e-19 -0.192621)
(0.957014 -1.27077e-19 -0.161838)
(0.847652 2.47125e-19 -0.142331)
(0.673666 0 -0.108727)
(0.568011 -4.63825e-19 -0.0943483)
(0.450301 0 -0.0640465)
(0.237245 2.15662e-19 -0.0369018)
(0.319792 0 -0.0452487)
(-0.0618117 1.99498e-19 0.0293592)
(0.0949861 0 -0.01716)
(-0.163226 3.71061e-19 0.0578656)
(-0.290379 -3.57339e-19 0.0411695)
(-0.00534291 3.48515e-19 0.038136)
(-0.942296 3.17742e-19 0.178919)
(0.155412 0 -0.0502682)
(-0.911566 -5.80352e-19 0.234761)
(-0.593023 5.82137e-19 0.0592051)
(-0.197022 0 0.100878)
(-1.72883 2.47892e-19 0.305152)
(0.435936 0 -0.104898)
(-1.80023 0 0.44558)
(-0.802508 -4.69379e-19 0.0193604)
(0.168914 0 0.0988364)
(-3.32392 0 0.614533)
(1.16234 4.5047e-19 -0.343447)
(-1.89529 6.45045e-19 0.622551)
(-2.87432 3.53643e-19 0.328799)
(1.97301 0 -0.282414)
(-5.70273 0 1.23695)
(0.840425 0 -0.53765)
(0.776048 0 0.185527)
(-6.29257 4.98199e-19 1.21024)
(1.95231 6.06185e-19 -0.715813)
(-0.136147 0 0.12158)
(-0.181498 0 0.0625346)
(-0.576105 0 0.14767)
(-0.750389 0 0.162708)
(32.669 4.20052e-21 0.396508)
(32.901 0 0.412179)
(33.1567 4.91796e-21 0.371226)
(33.4214 0 0.257623)
(33.6642 6.01989e-21 0.0719223)
(33.8538 0 -0.171169)
(33.967 -6.31058e-21 -0.452512)
(33.989 1.15719e-20 -0.754167)
(33.9104 2.36257e-20 -1.06097)
(33.7268 7.28903e-22 -1.36095)
(33.4375 0 -1.64508)
(33.046 0 -1.90716)
(32.5589 0 -2.14332)
(31.9855 0 -2.35149)
(31.3366 0 -2.53094)
(30.6243 0 -2.68191)
(29.861 1.47052e-20 -2.80543)
(29.0592 -1.36262e-20 -2.90309)
(28.2302 1.28176e-20 -2.97688)
(27.3845 0 -3.02901)
(26.5315 0 -3.0618)
(25.6788 9.78547e-21 -3.07759)
(24.833 8.9533e-21 -3.07863)
(23.9993 8.17164e-21 -3.06702)
(23.1816 0 -3.04469)
(22.3829 -1.36e-20 -3.01337)
(21.6056 -2.45244e-20 -2.97462)
(20.8509 1.10294e-20 -2.92978)
(20.1199 0 -2.88002)
(19.413 0 -2.82635)
(18.7303 0 -2.76961)
(18.0717 7.01349e-21 -2.71056)
(17.4366 0 -2.64979)
(16.8247 0 -2.58784)
(16.2353 9.37977e-21 -2.52513)
(15.6676 8.06403e-21 -2.46204)
(15.1209 0 -2.39886)
(14.5943 5.68809e-21 -2.33584)
(14.0871 -9.28106e-21 -2.27317)
(13.5983 -3.67236e-21 -2.21104)
(13.1272 2.78012e-21 -2.14956)
(12.673 0 -2.08886)
(12.2348 0 -2.02898)
(11.812 0 -1.97003)
(11.4037 -2.23689e-22 -1.91201)
(11.0092 0 -1.855)
(10.6279 2.44366e-21 -1.79896)
(10.259 3.38991e-21 -1.74396)
(9.90194 0 -1.68993)
(9.55618 -5.05781e-21 -1.63695)
(9.22088 0 -1.58491)
(8.89583 0 -1.5339)
(8.58005 -1.39239e-20 -1.48378)
(8.27354 2.16594e-23 -1.43466)
(7.97519 1.58361e-20 -1.38635)
(7.68525 0 -1.33901)
(7.4024 0 -1.29239)
(7.12721 -1.79252e-20 -1.24671)
(6.8581 0 -1.20165)
(6.596 3.7708e-20 -1.1575)
(6.33899 0 -1.11385)
(6.08847 0 -1.07109)
(5.84205 7.87374e-20 -1.02871)
(5.60174 7.93499e-20 -0.98721)
(5.36455 3.98533e-20 -0.945954)
(5.13319 0 -0.905592)
(4.90398 0 -0.865325)
(4.68046 3.9842e-20 -0.825978)
(4.45811 7.93243e-20 -0.786576)
(4.24148 0 -0.748143)
(4.02503 7.82034e-20 -0.709501)
(3.81447 -7.74292e-20 -0.671901)
(3.60317 7.65279e-20 -0.633947)
(3.39806 -7.54984e-20 -0.597132)
(3.19141 7.44163e-20 -0.559836)
(2.9914 0 -0.523791)
(2.78918 0 -0.487184)