/*--------------------------------*- C++ -*----------------------------------*\
| =========                 |                                                 |
| \\      /  F ield         | OpenFOAM: The Open Source CFD Toolbox           |
|  \\    /   O peration     | Version:  2412                                  |
|   \\  /    A nd           | Website:  www.openfoam.com                      |
|    \\/     M anipulation  |                                                 |
\*---------------------------------------------------------------------------*/
FoamFile
{
    version     2.0;
    format      ascii;
    arch        "LSB;label=32;scalar=64";
    class       volVectorField;
    location    "0.305";
    object      ddtCorrDdt0(U);
}
// * * * * * * * * * * * * * * * * * * * * * * * * * * * * * * * * * * * * * //

dimensions      [0 1 -2 0 0 0 0];

internalField   nonuniform List<vector> 
12600
(
(-0.278166 -1.15937e-18 -5.48832)
(-7.54136 -4.17337e-18 -1.41307)
(-4.59526 -6.76736e-18 -0.641177)
(-3.46261 0 -0.426665)
(-2.6345 -9.4412e-18 -0.331451)
(-1.70029 -9.96829e-18 -0.257537)
(-0.510598 0 -0.18236)
(0.912605 0 -0.106847)
(2.43732 3.61659e-17 -0.0341516)
(3.88967 0 0.0409973)
(5.09063 -1.36167e-17 0.119848)
(5.86398 -1.0844e-17 0.190321)
(6.06768 8.06457e-18 0.235471)
(5.6464 0 0.245029)
(4.66423 3.69273e-18 0.21937)
(3.29341 0 0.167313)
(1.76552 -9.23845e-18 0.102017)
(0.308259 0 0.0366545)
(-0.906974 7.2594e-18 -0.0194014)
(-1.78919 9.65279e-18 -0.062419)
(-2.32016 -1.23079e-17 -0.0931635)
(-2.5278 3.78139e-20 -0.113637)
(-2.46102 0 -0.124251)
(-2.17933 3.85922e-17 -0.123719)
(-1.75526 0 -0.111333)
(-1.27429 0 -0.0896361)
(-0.820182 4.29173e-17 -0.0644653)
(-0.448189 0 -0.0420756)
(-0.161312 1.11616e-21 -0.025538)
(0.0877239 -3.81504e-17 -0.0122974)
(0.367562 -3.60648e-17 0.00361506)
(0.720968 -3.37847e-17 0.0278632)
(1.12791 3.10545e-17 0.0608534)
(1.50257 5.53765e-17 0.096008)
(1.72283 4.75261e-17 0.122369)
(1.68606 -3.94142e-17 0.129064)
(1.35419 0 0.110937)
(0.773212 2.61939e-17 0.0702914)
(0.0536311 0 0.0160188)
(-0.665523 -2.10484e-17 -0.0416425)
(-1.26344 0 -0.0931965)
(-1.66182 -2.47911e-21 -0.133588)
(-1.82341 0 -0.160351)
(-1.76027 4.19215e-20 -0.171267)
(-1.50344 -2.72478e-17 -0.166037)
(-1.11147 1.7563e-17 -0.143838)
(-0.66311 -5.99166e-18 -0.107783)
(-0.228942 0 -0.0639865)
(0.121895 0 -0.0194981)
(0.360748 3.17843e-17 0.0193935)
(0.497421 8.31847e-17 0.0509061)
(0.562064 9.7878e-17 0.0768174)
(0.599368 1.35689e-19 0.100436)
(0.628235 1.14537e-16 0.122837)
(0.652653 0 0.141768)
(0.647273 -1.21525e-16 0.152783)
(0.591976 -1.22845e-16 0.150635)
(0.485479 -1.21836e-16 0.135016)
(0.316835 0 0.10733)
(0.130248 0 0.0715628)
(-0.063421 0 0.0339995)
(-0.25966 1.70659e-16 -0.00616603)
(-0.409258 0 -0.043304)
(-0.538864 0 -0.0775969)
(-0.628172 -1.40653e-16 -0.106119)
(-0.628196 0 -0.121645)
(-0.605862 0 -0.126128)
(-0.511943 0 -0.118946)
(-0.357959 -7.80157e-17 -0.099551)
(-0.235122 1.01233e-16 -0.0811688)
(-0.0601015 1.14644e-16 -0.0591911)
(0.0832337 7.3395e-20 -0.0385281)
(0.175355 -9.28989e-17 -0.0275681)
(0.290119 0 -0.01666)
(0.331529 2.07212e-17 -0.0173096)
(0.329304 0 -0.0330361)
(0.293014 0 -0.0387159)
(0.187554 0 -0.0415732)
(-0.00967506 6.01584e-19 -0.00413386)
(-0.18652 -3.33719e-16 0.0779725)
(-0.39823 -3.70661e-16 0.105303)
(-0.42304 3.7007e-16 0.0909923)
(-0.119242 3.69543e-16 0.0291067)
(0.154329 0 -0.0640083)
(0.215496 0 -0.0511537)
(-0.000531577 -4.59213e-16 0.00236852)
(-0.376518 7.18544e-16 0.0892473)
(-0.136523 -4.90912e-16 0.0738299)
(0.391591 -2.04142e-16 0.0696773)
(0.613692 0 0.0307856)
(0.313783 3.02239e-16 0.0587538)
(-0.280935 -1.76109e-16 0.1373)
(-0.534932 1.59207e-16 0.128762)
(-0.0332458 -3.71425e-16 0.00950016)
(0.0324984 0 -0.068439)
(-0.777344 0 0.013699)
(-2.01853 0 0.221235)
(-2.73939 0 0.3411)
(-2.74674 0 0.377047)
(-2.25832 0 0.3327)
(-1.85396 -1.85409e-16 0.300169)
(-1.41551 -3.46742e-16 0.286984)
(-1.40012 -1.44213e-16 0.324872)
(-1.52076 0 0.350982)
(-1.94607 0 0.440139)
(-2.54838 0 0.523846)
(-3.08071 -2.55598e-16 0.587145)
(-2.46703 -8.15869e-16 0.460063)
(-1.1377 4.46643e-16 0.17805)
(0.975599 0 -0.209415)
(2.53917 -9.20335e-16 -0.472112)
(3.2975 0 -0.603289)
(2.66455 -8.28821e-16 -0.475248)
(1.21388 6.55243e-16 -0.13564)
(-1.51521 -8.83321e-16 0.36806)
(-3.87564 -1.07998e-15 0.83784)
(-5.64841 1.18061e-15 1.1392)
(-6.57853 3.05022e-19 1.28318)
(-6.14045 1.69078e-15 1.191)
(-4.53345 0 0.866821)
(0.0201231 1.17024e-18 -8.24896)
(-2.73266 0 -2.71866)
(-2.07782 6.84923e-18 -1.26488)
(-1.6151 0 -0.83844)
(-1.30608 9.56659e-18 -0.601442)
(-0.781732 2.01555e-17 -0.376634)
(0.117773 1.01446e-17 -0.167427)
(1.35447 0 0.0121806)
(2.77934 -9.65314e-20 0.165574)
(4.19216 1.6209e-17 0.303646)
(5.37544 -1.36665e-17 0.424424)
(6.12163 -1.08374e-17 0.506554)
(6.27686 8.02409e-18 0.527377)
(5.78961 -5.55228e-18 0.480382)
(4.73431 -7.4449e-18 0.3779)
(3.29369 0 0.244252)
(1.70687 -2.86471e-20 0.107003)
(0.205454 -5.57285e-18 -0.0110544)
(-1.038 -7.36504e-18 -0.0978171)
(-1.93259 0 -0.153215)
(-2.46092 0 -0.184937)
(-2.65342 -1.51734e-17 -0.201166)
(-2.56441 0 -0.205295)
(-2.26155 -1.95823e-17 -0.196319)
(-1.82595 4.20914e-17 -0.17343)
(-1.34842 0 -0.140706)
(-0.91217 -4.35292e-17 -0.106903)
(-0.566208 0 -0.080215)
(-0.304473 4.06679e-17 -0.0628112)
(-0.0719179 7.72764e-17 -0.0478094)
(0.203552 7.30384e-17 -0.0242576)
(0.563407 3.41963e-17 0.0161371)
(0.983079 -3.14241e-17 0.0718798)
(1.37161 -1.11958e-16 0.129868)
(1.60312 -9.60066e-17 0.1716)
(1.57319 0 0.180566)
(1.24369 0 0.15095)
(0.661707 -7.60376e-20 0.0890863)
(-0.0604304 0 0.0109018)
(-0.781154 2.12492e-17 -0.0676019)
(-1.37647 0 -0.133009)
(-1.76539 4.08149e-17 -0.179693)
(-1.90935 0 -0.207256)
(-1.82174 3.44346e-17 -0.213677)
(-1.53748 0 -0.200881)
(-1.12031 -1.76848e-17 -0.168271)
(-0.652966 0 -0.119971)
(-0.208461 0 -0.0652726)
(0.145784 -2.03753e-17 -0.0123049)
(0.383055 0 0.0313594)
(0.517194 0 0.0644897)
(0.579591 0 0.0919353)
(0.616914 -1.08332e-16 0.118274)
(0.646929 -2.29803e-16 0.145854)
(0.674414 0 0.170207)
(0.67303 0 0.185438)
(0.622714 1.23061e-16 0.183239)
(0.522007 1.2183e-16 0.162561)
(0.357678 0 0.127532)
(0.175158 0 0.0805388)
(-0.0198711 0 0.0334683)
(-0.217781 0 -0.0159032)
(-0.377527 1.37966e-16 -0.0614224)
(-0.517109 -1.04283e-16 -0.101223)
(-0.625114 1.39098e-16 -0.131993)
(-0.645185 0 -0.147665)
(-0.647543 0 -0.144653)
(-0.582431 0 -0.128451)
(-0.450824 -4.7891e-19 -0.0984578)
(-0.354383 -1.00265e-16 -0.0661109)
(-0.180584 -1.13444e-16 -0.0392602)
(-0.0325382 2.14034e-16 -0.0136195)
(0.104952 3.0654e-19 -0.0093837)
(0.293979 -5.99866e-17 -0.0134894)
(0.42465 -2.04264e-17 -0.0335641)
(0.536289 0 -0.0751473)
(0.511242 0 -0.0868023)
(0.364706 0 -0.0822437)
(-0.0994893 -2.85342e-16 0.0134576)
(-0.616304 0 0.163532)
(-1.09531 0 0.241093)
(-1.01203 -3.62194e-16 0.195051)
(-0.095378 -3.61292e-16 0.00330628)
(0.732544 0 -0.191762)
(0.733572 0 -0.147942)
(-0.0949512 0 0.0375981)
(-1.1986 -6.97933e-16 0.27136)
(-0.652838 6.18857e-19 0.180742)
(0.544652 -1.97921e-16 0.0489871)
(0.907414 1.65958e-16 -0.000919544)
(-0.212716 -2.92897e-16 0.196948)
(-1.75519 -1.70498e-16 0.469977)
(-2.06359 -3.0803e-16 0.425446)
(-0.375405 0 0.0540478)
(-0.00793912 0 -0.0713678)
(-2.1176 0 0.241271)
(-5.40254 0 0.882961)
(-7.16798 -5.15392e-17 1.19193)
(-7.28638 0 1.23249)
(-6.21781 0 1.07371)
(-5.41545 -1.77724e-16 0.971065)
(-4.65299 1.66006e-16 0.907275)
(-4.91556 2.75555e-16 1.00864)
(-5.2928 -9.74557e-17 1.09111)
(-6.62547 0 1.35856)
(-7.9978 0 1.59231)
(-8.96333 0 1.72247)
(-6.80844 3.88617e-16 1.26894)
(-2.66349 -4.25071e-16 0.41919)
(3.09342 0 -0.681793)
(6.74383 1.74875e-15 -1.32735)
(8.26455 6.96945e-16 -1.58644)
(5.39286 1.57247e-15 -0.947753)
(0.502602 0 0.0649249)
(-7.18182 0 1.51372)
(-13.9469 -1.02297e-15 2.81249)
(-18.4904 0 3.6378)
(-20.3926 -1.47538e-15 3.94406)
(-19.0135 -1.59727e-15 3.63263)
(-14.009 0 2.66519)
(0.599928 0 -4.27534)
(-0.874362 0 -2.35471)
(-0.792041 6.86511e-18 -1.29624)
(-0.465385 0 -0.812813)
(-0.129317 0 -0.400824)
(0.351932 -9.65398e-18 -0.0226038)
(1.11871 -9.607e-18 0.261318)
(2.18674 0 0.459068)
(3.45278 -2.28085e-19 0.605456)
(4.7277 -1.53558e-17 0.711661)
(5.78488 2.56971e-17 0.764578)
(6.41059 1.02684e-17 0.745304)
(6.45509 -1.23921e-19 0.648581)
(5.87483 5.26121e-18 0.489595)
(4.74965 3.50393e-18 0.298203)
(3.26339 -2.51118e-18 0.10891)
(1.65234 4.46541e-18 -0.0484009)
(0.141895 5.28106e-18 -0.155807)
(-1.10315 0 -0.211022)
(-1.99837 0 -0.225173)
(-2.52964 -1.20242e-17 -0.215335)
(-2.72754 -1.45093e-17 -0.196127)
(-2.64534 0 -0.175167)
(-2.35018 0 -0.154404)
(-1.92361 -3.98841e-17 -0.134489)
(-1.45691 0 -0.11802)
(-1.03254 8.24892e-17 -0.108736)
(-0.697301 -4.02027e-17 -0.107336)
(-0.442638 0 -0.109066)
(-0.21238 -3.66086e-17 -0.10423)
(0.0644693 -3.46016e-17 -0.0839603)
(0.426525 0 -0.0461308)
(0.846246 2.97501e-17 0.00235286)
(1.23139 5.29857e-17 0.0466642)
(1.4573 7.29747e-20 0.0722296)
(1.42275 0 0.0704501)
(1.09316 0 0.0432393)
(0.517973 -2.49881e-17 0.00148501)
(-0.190538 0 -0.0398774)
(-0.892558 0 -0.0696586)
(-1.46689 0 -0.082306)
(-1.83509 0 -0.0786106)
(-1.96032 0 -0.0652308)
(-1.85704 0 -0.0447266)
(-1.56072 0 -0.0226402)
(-1.1355 1.64233e-17 -0.000996709)
(-0.663534 -5.25335e-18 0.0188021)
(-0.217342 0 0.031461)
(0.138026 1.92769e-17 0.0365969)
(0.37672 0 0.034534)
(0.514471 0 0.0273171)
(0.581759 -9.33635e-17 0.0224356)
(0.625424 0 0.0217197)
(0.661038 1.08715e-16 0.0274505)
(0.694155 -1.12726e-16 0.0346621)
(0.697384 0 0.040277)
(0.652313 -1.1632e-16 0.0389454)
(0.557341 0 0.0286374)
(0.398973 0 0.0154777)
(0.223117 0 -0.0042061)
(0.0312152 -1.86314e-16 -0.0197251)
(-0.16321 -1.5999e-16 -0.0334404)
(-0.327832 -1.79265e-19 -0.0442118)
(-0.472398 1.96757e-16 -0.0495469)
(-0.595508 -1.88135e-19 -0.045938)
(-0.632727 0 -0.0403227)
(-0.65905 0 -0.0190534)
(-0.620595 -3.81187e-17 0.00426173)
(-0.512914 -1.37912e-19 0.0271972)
(-0.439267 0 0.0576633)
(-0.267355 0 0.0649448)
(-0.112186 -1.0086e-16 0.0712928)
(0.0712307 1.68527e-19 0.0499474)
(0.326259 2.09179e-19 0.0102725)
(0.536481 0 -0.0383477)
(0.734082 0 -0.0949274)
(0.694208 1.33291e-16 -0.0999877)
(0.477095 -2.14141e-16 -0.0714963)
(-0.263638 0 0.0758808)
(-1.08485 0 0.229846)
(-1.76342 0 0.332779)
(-1.49948 0 0.229308)
(-0.0147708 0 -0.0911646)
(1.24105 0 -0.308009)
(1.06543 0 -0.202438)
(-0.379885 0 0.131335)
(-2.06915 6.55044e-16 0.451222)
(-1.14633 2.23578e-16 0.232327)
(0.574774 1.8602e-16 -0.0664491)
(0.930486 -1.55947e-16 -0.0514565)
(-1.05209 2.75108e-16 0.393029)
(-3.38983 1.60148e-16 0.838415)
(-3.59573 1.44683e-16 0.728437)
(-0.856569 0 0.117007)
(-0.48584 0 0.0769773)
(-3.96902 0 0.69196)
(-9.11007 0 1.76251)
(-11.7165 4.83523e-17 2.16521)
(-11.8793 0 2.14132)
(-10.2419 0 1.85018)
(-9.11799 1.66639e-16 1.68846)
(-8.11015 0 1.5791)
(-8.72839 -1.28915e-16 1.75082)
(-9.41248 9.13271e-17 1.90363)
(-11.6511 0 2.34998)
(-13.5758 0 2.68271)
(-14.6062 0 2.76906)
(-10.6374 3.64023e-16 1.88565)
(-3.82347 0 0.479125)
(5.02949 -4.48163e-16 -1.16268)
(10.0066 -1.88546e-20 -2.00027)
(11.4338 -6.52266e-16 -2.13838)
(5.75249 -1.47166e-15 -0.914924)
(-2.87259 0 0.927599)
(-15.2281 7.83954e-16 3.29095)
(-25.8044 9.56868e-16 5.23352)
(-32.6475 1.04508e-15 6.43531)
(-34.8671 0 6.70958)
(-32.4896 1.4935e-15 6.12231)
(-24.0743 0 4.53517)
(0.65828 0 -2.33048)
(-0.240756 0 -1.8085)
(-0.331985 -6.4898e-18 -1.24167)
(-0.0276069 0 -0.729392)
(0.479828 8.34946e-18 -0.135934)
(1.14296 -1.76518e-17 0.393469)
(1.99474 0 0.730868)
(3.04029 1.69958e-17 0.914617)
(4.21502 -1.61209e-17 1.02365)
(5.36663 -1.40043e-17 1.08232)
(6.28974 -1.20555e-17 1.07258)
(6.78502 9.33384e-18 0.975406)
(6.71544 -7.07328e-18 0.793741)
(6.04598 9.6762e-18 0.553187)
(4.85836 0 0.292052)
(3.3331 4.79712e-18 0.0505774)
(1.70047 0 -0.138509)
(0.178427 0 -0.258028)
(-1.07548 0 -0.30992)
(-1.98175 -9.12215e-18 -0.311327)
(-2.52758 -1.03099e-19 -0.284944)
(-2.74216 -7.50436e-20 -0.249585)
(-2.67683 -1.59165e-17 -0.216002)
(-2.39795 0 -0.188713)
(-1.98731 0 -0.170035)
(-1.53633 0 -0.162021)
(-1.12639 -7.80227e-17 -0.165089)
(-0.802279 -1.4855e-20 -0.174662)
(-0.553707 0 -0.180952)
(-0.324447 0 -0.172379)
(-0.0455417 0 -0.14191)
(0.318411 0 -0.0928791)
(0.737105 -5.62622e-17 -0.0378078)
(1.11744 0 0.00509526)
(1.33624 4.28644e-17 0.021897)
(1.29533 0 0.00861794)
(0.963175 0 -0.0269782)
(0.391221 2.35934e-17 -0.0686797)
(-0.308366 0 -0.0995395)
(-0.997136 0 -0.10864)
(-1.55604 -1.85368e-17 -0.0942709)
(-1.90851 3.63496e-17 -0.0607408)
(-2.01885 0 -0.0194345)
(-1.90223 3.04034e-17 0.0229705)
(-1.59437 0 0.0586785)
(-1.15966 -3.0831e-17 0.0826809)
(-0.679768 1.82202e-19 0.0945207)
(-0.22709 0 0.0907704)
(0.134928 0 0.0741937)
(0.380604 -2.89599e-17 0.0505644)
(0.527049 -7.52435e-17 0.023834)
(0.603562 1.76322e-16 0.0042518)
(0.657377 0 -0.00743636)
(0.701628 1.02638e-16 -0.00937576)
(0.742846 1.06409e-16 -0.00773148)
(0.751613 1.08772e-16 -0.00600255)
(0.711296 1.09804e-16 -0.00853586)
(0.619323 0 -0.0183326)
(0.462588 0 -0.0280611)
(0.287335 1.95485e-16 -0.0422624)
(0.0921344 3.51384e-16 -0.0510569)
(-0.106303 1.50898e-16 -0.056107)
(-0.282217 -1.32845e-19 -0.0560034)
(-0.437761 -9.26742e-17 -0.0514959)
(-0.580519 -6.15179e-17 -0.0334563)
(-0.635608 0 -0.0179019)
(-0.68568 0 0.0144431)
(-0.667901 3.59223e-17 0.046647)
(-0.577829 1.3865e-16 0.0720093)
(-0.516587 0 0.105741)
(-0.338028 1.00739e-16 0.106533)
(-0.166635 9.47546e-17 0.103816)
(0.0655411 8.10321e-17 0.0651333)
(0.381268 1.05904e-16 0.00655115)
(0.658154 0 -0.0605565)
(0.910347 0 -0.122919)
(0.829863 -1.2543e-16 -0.109679)
(0.515815 4.03141e-16 -0.0481979)
(-0.494491 2.53884e-16 0.165873)
(-1.5616 0 0.3579)
(-2.37799 0 0.455799)
(-1.88424 0 0.258741)
(0.0962821 0 -0.182973)
(1.63885 0 -0.406855)
(1.19278 0 -0.192215)
(-0.844682 3.93618e-16 0.286131)
(-2.97437 -1.81584e-19 0.637621)
(-1.63533 -2.09699e-16 0.265865)
(0.47271 0 -0.0994136)
(0.682353 -1.464e-16 0.0155849)
(-2.18281 -1.29099e-16 0.676153)
(-5.16038 0 1.20118)
(-5.16009 1.35794e-16 0.979909)
(-1.55075 3.16593e-16 0.184395)
(-1.46425 0 0.307406)
(-6.34254 0 1.25684)
(-13.1392 0 2.68152)
(-16.3817 4.49007e-17 3.11596)
(-16.5196 0 3.01661)
(-14.3282 0 2.60016)
(-12.9582 1.55995e-16 2.40296)
(-11.7757 -1.45394e-16 2.28597)
(-12.8115 0 2.55581)
(-13.8362 0 2.79437)
(-16.9337 0 3.41622)
(-19.1651 0 3.78723)
(-19.929 0 3.74109)
(-13.982 -5.86029e-20 2.3723)
(-4.76183 0 0.441874)
(6.53558 4.19376e-16 -1.60768)
(12.0753 -7.65729e-16 -2.47527)
(12.5929 0 -2.30125)
(3.72156 -2.38965e-19 -0.355682)
(-8.77833 0 2.26654)
(-25.4138 2.35226e-19 5.52124)
(-39.1362 0 7.97349)
(-47.8589 -9.77116e-16 9.44297)
(-49.8251 0 9.55972)
(-46.509 1.3963e-15 8.66924)
(-34.7378 0 6.48371)
(0.650785 0 -1.27296)
(0.0392321 0 -1.24216)
(-0.0810734 0 -0.96721)
(0.160764 0 -0.494545)
(0.738568 -7.88126e-18 0.166479)
(1.57894 2.24644e-19 0.788357)
(2.61101 0 1.1878)
(3.76343 -1.60417e-17 1.38375)
(4.94932 0 1.4658)
(6.03551 2.60425e-17 1.47404)
(6.85017 0 1.3993)
(7.22557 -8.81179e-18 1.22822)
(7.04883 0 0.970069)
(6.29864 -9.13585e-18 0.65658)
(5.05889 3.10999e-18 0.33053)
(3.50424 -4.6351e-18 0.0352235)
(1.85614 4.41994e-18 -0.19426)
(0.323931 5.21115e-18 -0.339715)
(-0.941806 0 -0.40432)
(-1.86539 8.61381e-18 -0.408337)
(-2.43392 1.08369e-17 -0.378076)
(-2.67398 2.61511e-17 -0.335535)
(-2.63425 1.50294e-17 -0.294298)
(-2.37986 0 -0.261511)
(-1.99249 0 -0.241434)
(-1.56315 0 -0.236236)
(-1.17178 3.68379e-17 -0.244145)
(-0.861204 3.59132e-17 -0.256816)
(-0.62006 0 -0.260812)
(-0.39307 0 -0.243307)
(-0.114237 -3.10138e-17 -0.198934)
(0.248288 0 -0.135534)
(0.661764 4.78235e-22 -0.070533)
(1.03299 4.71616e-17 -0.0253757)
(1.24108 -4.03346e-17 -0.0141497)
(1.19129 0 -0.0375241)
(0.855125 0 -0.0829187)
(0.28555 -2.22679e-17 -0.12918)
(-0.405859 0 -0.1567)
(-1.08243 0 -0.153693)
(-1.62733 1.74925e-17 -0.120796)
(-1.96581 -3.42997e-17 -0.0648726)
(-2.06314 0 -0.00105343)
(-1.93484 -2.86851e-17 0.0602429)
(-1.61672 0 0.109236)
(-1.17312 1.44471e-17 0.138133)
(-0.685122 4.50946e-18 0.146732)
(-0.225004 0 0.133014)
(0.145309 -1.74877e-17 0.10164)
(0.399958 2.73108e-17 0.0630066)
(0.557159 1.4193e-16 0.0225835)
(0.644652 -8.31279e-17 -0.00677516)
(0.710027 9.13068e-17 -0.0250505)
(0.763663 -4.42646e-20 -0.0308578)
(0.813323 0 -0.0317868)
(0.827142 -1.02522e-16 -0.0322571)
(0.790665 -1.03484e-16 -0.0362108)
(0.699763 1.024e-16 -0.0472436)
(0.542463 -9.87645e-17 -0.0570806)
(0.364574 -1.84175e-16 -0.0699311)
(0.163079 -1.65456e-16 -0.0764831)
(-0.0429949 1.41892e-16 -0.0779766)
(-0.232992 -1.15444e-16 -0.0713714)
(-0.401755 0 -0.0620193)
(-0.56537 0 -0.0337621)
(-0.637144 -2.94613e-17 -0.0114252)
(-0.709279 0 0.0296169)
(-0.706482 0 0.0692701)
(-0.629301 -6.52554e-17 0.0971468)
(-0.571744 0 0.13257)
(-0.381605 -9.47805e-17 0.126803)
(-0.188546 -1.78091e-16 0.114608)
(0.0902875 0 0.0582943)
(0.456536 -4.97128e-17 -0.014635)
(0.782532 0 -0.095443)
(1.05825 0 -0.153253)
(0.914318 1.1839e-16 -0.110539)
(0.48472 -1.89542e-16 -0.00507379)
(-0.778014 1.05932e-19 0.28213)
(-2.03755 0 0.500145)
(-2.93437 0 0.56913)
(-2.18421 0 0.255936)
(0.197391 3.001e-16 -0.293834)
(1.8966 -2.71633e-16 -0.479395)
(1.1092 0 -0.11245)
(-1.46749 -7.38806e-16 0.502662)
(-3.90338 -2.88433e-16 0.837747)
(-2.15328 3.9353e-16 0.293185)
(0.181829 1.6385e-16 -0.0906483)
(0.131924 2.74701e-16 0.177943)
(-3.59246 0 1.05126)
(-7.04293 0 1.58727)
(-6.78604 -1.27329e-16 1.21178)
(-2.52482 -2.9681e-16 0.290195)
(-2.9666 2.91698e-16 0.670086)
(-9.21111 0 1.93384)
(-17.431 0 3.68217)
(-21.1147 -4.20692e-17 4.07931)
(-21.1719 9.34878e-17 3.87577)
(-18.451 0 3.33731)
(-16.9089 -1.46093e-16 3.12677)
(-15.6212 1.36146e-16 3.02824)
(-17.1218 0 3.41433)
(-18.5031 0 3.74867)
(-22.3722 0 4.52745)
(-24.66 0 4.86837)
(-24.8901 0 4.60049)
(-16.9258 -3.18751e-16 2.70756)
(-5.65648 0 0.321202)
(7.37489 0 -1.9901)
(12.7744 0 -2.66657)
(11.6706 5.70713e-16 -2.00293)
(-0.563528 6.43896e-16 0.882332)
(-16.9056 0 4.20704)
(-37.3683 -6.85623e-16 8.21149)
(-53.5607 0 10.9976)
(-63.8414 -9.13577e-16 12.6219)
(-65.1068 0 12.4476)
(-61.0304 -1.30489e-15 11.2488)
(-46.0086 0 8.50461)
(0.636611 3.5203e-18 -0.556407)
(0.256391 4.70613e-18 -0.639061)
(0.217422 -5.66599e-18 -0.479922)
(0.406761 -6.44601e-18 -0.0745397)
(0.964833 0 0.550065)
(1.87176 7.5647e-18 1.17443)
(3.0239 0 1.61082)
(4.28643 -1.41449e-17 1.83891)
(5.52523 -1.31143e-17 1.91861)
(6.59685 -2.36985e-17 1.88799)
(7.34739 9.7612e-18 1.74958)
(7.63743 -7.75213e-18 1.50192)
(7.38114 0 1.16408)
(6.57533 0 0.77577)
(5.30838 -2.93203e-18 0.384428)
(3.74752 -7.4405e-20 0.0345758)
(2.10209 2.28423e-19 -0.238602)
(0.570968 2.51969e-19 -0.416438)
(-0.701849 0 -0.502078)
(-1.64295 0 -0.517047)
(-2.2377 0 -0.489835)
(-2.50872 -2.48557e-17 -0.444877)
(-2.50113 -1.43112e-17 -0.398331)
(-2.2782 0 -0.359972)
(-1.92089 0 -0.336128)
(-1.51917 -3.47975e-17 -0.32947)
(-1.151 0 -0.336753)
(-0.857207 0 -0.346925)
(-0.625947 0 -0.343975)
(-0.403796 0 -0.314421)
(-0.128577 -6.33853e-20 -0.25457)
(0.227669 0 -0.176076)
(0.630107 6.66075e-21 -0.100541)
(0.986254 -4.44568e-17 -0.0521426)
(1.17844 8.18359e-20 -0.0452046)
(1.11598 0 -0.0776783)
(0.773487 0 -0.132777)
(0.205064 0 -0.184888)
(-0.478868 0 -0.211646)
(-1.144 0 -0.200082)
(-1.67606 0 -0.15244)
(-2.00212 0 -0.0776979)
(-2.08839 3.01433e-17 0.00582486)
(-1.95041 2.64743e-17 0.0842541)
(-1.62388 0 0.145831)
(-1.17289 1.30655e-17 0.180218)
(-0.677628 0 0.187022)
(-0.210292 0 0.165515)
(0.168831 3.30656e-17 0.121779)
(0.433413 0 0.0704348)
(0.602623 -6.68427e-17 0.018365)
(0.702204 0 -0.0190929)
(0.780064 -1.71873e-16 -0.0425668)
(0.843465 -6.5849e-20 -0.0510528)
(0.901677 0 -0.0537144)
(0.920039 0 -0.0558469)
(0.886734 0 -0.061257)
(0.7955 -1.92729e-16 -0.0738133)
(0.636244 1.85849e-16 -0.0844271)
(0.453478 1.73094e-16 -0.0965516)
(0.243737 1.55423e-16 -0.101312)
(0.027662 -2.66848e-16 -0.0998168)
(-0.178101 -1.08344e-16 -0.0868943)
(-0.361076 0 -0.0732589)
(-0.545581 0 -0.0352741)
(-0.632016 7.33214e-20 -0.00678647)
(-0.723669 0 0.0421969)
(-0.729945 0 0.0882008)
(-0.661005 -6.12095e-17 0.117771)
(-0.599013 0 0.153023)
(-0.393817 0 0.139573)
(-0.17563 1.66951e-16 0.116773)
(0.14458 -7.0997e-17 0.0426418)
(0.548505 0 -0.0416988)
(0.903194 0 -0.131833)
(1.17244 0 -0.176498)
(0.945582 -1.11186e-16 -0.0963318)
(0.389356 0 0.0595603)
(-1.09976 -4.48303e-16 0.417366)
(-2.4974 2.56762e-16 0.645657)
(-3.42611 0 0.663523)
(-2.41794 0 0.220533)
(0.254043 -2.81609e-16 -0.4119)
(1.99001 7.7749e-20 -0.516722)
(0.814457 -2.198e-16 0.0297222)
(-2.22587 3.46412e-16 0.767497)
(-4.85482 -2.70321e-16 1.04504)
(-2.73933 -1.84495e-16 0.321308)
(-0.341164 -1.53624e-16 -0.0340231)
(-0.73843 3.3177e-20 0.427736)
(-5.26271 0 1.50762)
(-9.01999 1.31932e-16 2.00678)
(-8.51132 0 1.44784)
(-3.84144 0 0.456934)
(-5.00696 -2.73266e-16 1.16818)
(-12.4619 0 3.07972)
(-21.924 0 4.75996)
(-25.8677 0 5.051)
(-25.7976 -8.75338e-17 4.7136)
(-22.5787 0 4.05747)
(-20.9304 -1.36525e-16 3.85479)
(-19.5988 0 3.80013)
(-21.5908 0 4.31641)
(-23.3264 0 4.75117)
(-27.8476 0 5.65848)
(-29.961 0 5.90444)
(-29.4693 -1.87377e-16 5.34593)
(-19.574 -2.97866e-16 2.92116)
(-6.67632 3.257e-16 0.161895)
(7.36386 0 -2.22405)
(12.0067 0 -2.56087)
(8.70469 -1.06723e-15 -1.24136)
(-6.92222 0 2.45093)
(-26.8541 4.77063e-16 6.57801)
(-50.6555 0 11.236)
(-68.6711 7.82661e-16 14.1962)
(-80.3139 8.53723e-16 15.8978)
(-80.5638 0 15.3419)
(-76.0216 -1.21936e-15 13.8531)
(-57.8908 0 10.5948)
(0.644299 -3.31517e-18 0.103917)
(0.475352 -8.6986e-18 0.0387128)
(0.574058 5.33706e-18 0.170607)
(0.777476 2.67651e-19 0.510557)
(1.30676 -6.28654e-18 1.04079)
(2.19481 0 1.59971)
(3.35833 0 2.02824)
(4.64679 1.33194e-17 2.27512)
(5.89804 2.40823e-17 2.35735)
(6.95347 5.51917e-19 2.2967)
(7.66249 -9.19066e-18 2.10082)
(7.901 7.29897e-18 1.77968)
(7.60247 -5.24788e-18 1.3628)
(6.77963 0 0.899731)
(5.52544 0 0.444529)
(3.99773 2.15461e-18 0.0423496)
(2.38935 -8.54007e-18 -0.27419)
(0.885175 -1.00149e-17 -0.487656)
(-0.377825 0 -0.600411)
(-1.32684 0 -0.633259)
(-1.94354 0 -0.615216)
(-2.24502 -1.37952e-19 -0.572274)
(-2.27166 2.70529e-17 -0.522808)
(-2.08398 -1.49677e-17 -0.479137)
(-1.76133 -3.18762e-17 -0.449742)
(-1.3918 6.55914e-17 -0.438138)
(-1.05077 -3.28091e-17 -0.440269)
(-0.776891 -3.20282e-17 -0.443322)
(-0.558281 -3.07746e-17 -0.429693)
(-0.34416 0 -0.38583)
(-0.0769284 2.75879e-17 -0.309779)
(0.267218 -2.57908e-17 -0.216423)
(0.651726 2.35633e-17 -0.130814)
(0.985695 4.17013e-17 -0.0792419)
(1.15567 7.13314e-17 -0.0760943)
(1.0757 0 -0.116926)
(0.72366 0 -0.1812)
(0.154463 1.97938e-17 -0.239336)
(-0.523218 0 -0.266305)
(-1.1781 -1.59141e-17 -0.247898)
(-1.69883 -1.53886e-17 -0.187504)
(-2.01449 0 -0.0959654)
(-2.09215 -5.64133e-17 0.00560112)
(-1.94711 -2.4914e-17 0.100088)
(-1.61473 0 0.173699)
(-1.15856 -1.22941e-17 0.213795)
(-0.657642 -3.25662e-18 0.219435)
(-0.18408 0 0.191189)
(0.20371 -3.13553e-17 0.136285)
(0.478622 2.43528e-17 0.0733263)
(0.660747 6.28585e-17 0.0105764)
(0.773323 0 -0.0342017)
(0.864582 1.01775e-19 -0.062286)
(0.938208 -1.71069e-16 -0.072892)
(1.0053 0 -0.0769223)
(1.02797 0 -0.0803688)
(0.997581 9.15289e-17 -0.0871298)
(0.905094 9.05861e-17 -0.101098)
(0.743045 -1.7461e-16 -0.112452)
(0.55383 -1.62712e-16 -0.123774)
(0.334474 -1.46089e-16 -0.126414)
(0.106804 1.25332e-16 -0.121769)
(-0.115843 2.03481e-16 -0.102072)
(-0.313336 0 -0.084091)
(-0.518244 0 -0.0363378)
(-0.616959 5.18545e-17 -0.00207788)
(-0.725274 0 0.0542536)
(-0.734861 0 0.105407)
(-0.669805 5.7489e-17 0.135468)
(-0.596201 0 0.168648)
(-0.373895 -8.30009e-17 0.146018)
(-0.129134 -3.01051e-19 0.11168)
(0.224536 6.66527e-17 0.0198703)
(0.651544 0 -0.0725428)
(1.0131 0 -0.166857)
(1.24868 0 -0.189611)
(0.924105 -1.04838e-16 -0.0642493)
(0.238778 0 0.146994)
(-1.44273 2.10331e-16 0.57094)
(-2.92589 -4.81693e-16 0.792038)
(-3.85036 0 0.737572)
(-2.60794 0 0.156514)
(0.232942 0 -0.531378)
(1.90218 9.60901e-20 -0.511879)
(0.318468 2.06057e-16 0.236155)
(-3.09574 3.24389e-16 1.07727)
(-5.8351 2.53357e-16 1.25758)
(-3.43497 -1.72922e-16 0.355492)
(-1.13072 0 0.0771806)
(-1.93031 -1.20676e-16 0.769495)
(-7.16578 0 2.04281)
(-11.0844 -1.23576e-16 2.45722)
(-10.3823 0 1.69214)
(-5.54939 0 0.69711)
(-7.56386 0 1.79807)
(-16.115 2.13308e-16 4.27173)
(-26.562 1.27123e-16 5.89432)
(-30.5869 0 6.01557)
(-30.3502 8.18257e-17 5.51953)
(-26.6695 -1.25839e-16 4.7535)
(-24.9645 1.27743e-16 4.57827)
(-23.6383 -1.18833e-16 4.59009)
(-26.1212 0 5.24441)
(-28.1926 0 5.77899)
(-33.2275 0 6.77861)
(-34.9827 0 6.87008)
(-33.6721 1.75214e-16 5.96931)
(-22.049 2.03465e-19 3.03253)
(-7.96645 -6.08914e-16 -0.00141358)
(6.37809 0 -2.30471)
(9.80322 0 -2.13914)
(3.90841 4.98793e-16 -0.0251518)
(-14.9119 0 4.57592)
(-38.0942 -4.45817e-16 9.31998)
(-64.7557 0 14.5078)
(-84.0245 -1.46288e-15 17.4916)
(-96.9882 0 19.2176)
(-96.059 0 18.2128)
(-91.4564 1.13908e-15 16.4748)
(-70.3805 0 12.749)
(0.702231 0 0.814046)
(0.707118 4.0133e-18 0.790997)
(0.95131 0 0.930326)
(1.21962 5.46068e-18 1.21752)
(1.74727 1.14731e-17 1.64197)
(2.58602 0 2.10362)
(3.68352 -5.79501e-18 2.48159)
(4.90853 0 2.7109)
(6.10067 -6.98823e-19 2.77501)
(7.0979 1.89091e-17 2.6767)
(7.75177 0 2.42407)
(7.94749 0 2.03456)
(7.63009 4.93591e-18 1.54486)
(6.82239 0 1.01262)
(5.61951 0 0.499159)
(4.16817 0 0.0507407)
(2.64039 4.13943e-18 -0.304495)
(1.20165 4.84495e-18 -0.552691)
(-0.0210718 6.41617e-18 -0.695548)
(-0.955503 0 -0.751326)
(-1.57835 0 -0.747666)
(-1.90002 1.11859e-17 -0.710997)
(-1.95503 -1.27698e-17 -0.661352)
(-1.80008 1.40775e-17 -0.613285)
(-1.51179 2.99803e-17 -0.57735)
(-1.17531 -6.18381e-17 -0.558164)
(-0.862703 -8.19635e-20 -0.551481)
(-0.610154 3.01223e-17 -0.543648)
(-0.406031 2.89429e-17 -0.516433)
(-0.202797 0 -0.456814)
(0.0519963 0 -0.364674)
(0.377863 2.42545e-17 -0.257576)
(0.737 0 -0.163247)
(1.04103 -3.92154e-17 -0.109361)
(1.18174 -3.34916e-17 -0.11002)
(1.07867 2.76044e-17 -0.158556)
(0.713173 0 -0.231099)
(0.140581 -1.86117e-17 -0.294642)
(-0.532775 -1.61758e-17 -0.32176)
(-1.17932 1.98876e-20 -0.297121)
(-1.69101 2.88576e-17 -0.224979)
(-1.99909 0 -0.11788)
(-2.07148 2.63651e-17 0.000578829)
(-1.92294 0 0.110283)
(-1.58821 0 0.195355)
(-1.13008 0 0.241145)
(-0.626016 3.39702e-19 0.245887)
(-0.148083 0 0.211514)
(0.247522 1.47962e-17 0.14619)
(0.532587 -4.58226e-17 0.0723197)
(0.728207 -5.9069e-17 -0.000519183)
(0.854508 0 -0.052151)
(0.960152 7.58156e-17 -0.0845684)
(1.04463 1.6054e-16 -0.0969842)
(1.12126 0 -0.102223)
(1.14843 0 -0.106732)
(1.12121 -8.59777e-17 -0.114733)
(1.02716 -8.49863e-17 -0.129937)
(0.862138 8.19688e-17 -0.141844)
(0.665687 1.52473e-16 -0.152221)
(0.436012 0 -0.152307)
(0.195998 0 -0.144369)
(-0.0441205 -1.79311e-19 -0.117461)
(-0.255771 7.18279e-17 -0.0951563)
(-0.480331 0 -0.0376601)
(-0.588737 -2.43058e-17 0.00185942)
(-0.710974 0 0.0648757)
(-0.718559 0 0.119928)
(-0.653676 0 0.149244)
(-0.562575 0 0.178768)
(-0.322491 3.70492e-19 0.145721)
(-0.0517273 -3.68721e-19 0.0997081)
(0.325638 -6.18279e-17 -0.00880916)
(0.760091 0 -0.105134)
(1.10664 -1.25498e-17 -0.197798)
(1.28504 0 -0.190393)
(0.852888 9.83064e-17 -0.0132539)
(0.0440283 -1.57063e-16 0.25556)
(-1.79087 1.97318e-16 0.73861)
(-3.31073 2.25764e-16 0.93531)
(-4.20868 0 0.791342)
(-2.7777 -2.48324e-16 0.0720866)
(0.107289 0 -0.641142)
(1.62495 2.23743e-16 -0.458912)
(-0.362472 1.92829e-16 0.503709)
(-4.05605 -3.03889e-16 1.42421)
(-6.85673 0 1.47661)
(-4.27795 3.23975e-16 0.40816)
(-2.20948 0 0.252872)
(-3.43362 -1.13094e-16 1.20149)
(-9.27154 0 2.64317)
(-13.2367 -1.15584e-16 2.92318)
(-12.4406 0 1.9586)
(-7.67883 -2.43385e-16 1.02643)
(-10.6116 2.3906e-16 2.59481)
(-20.1299 -1.99613e-16 5.32276)
(-31.2526 -1.18949e-16 7.07251)
(-35.2104 0 6.96048)
(-34.7735 -1.53e-16 6.28187)
(-30.669 2.3526e-16 5.41478)
(-28.9324 0 5.283)
(-27.6425 1.11137e-16 5.38136)
(-30.5823 0 6.17532)
(-32.9598 0 6.80542)
(-38.3672 -3.3364e-17 7.85743)
(-39.6536 0 7.74775)
(-37.5183 0 6.47308)
(-24.4666 2.60138e-16 3.06718)
(-9.61825 5.68951e-16 -0.141097)
(4.4068 3.19924e-16 -2.18833)
(6.33244 0 -1.42535)
(-2.39724 0 1.35386)
(-24.055 0 6.90233)
(-49.9875 0 12.2941)
(-79.0921 5.60476e-16 17.9092)
(-99.1584 6.83443e-16 20.7915)
(-113.568 0 22.5229)
(-111.453 0 21.036)
(-107.302 0 19.1072)
(-83.456 0 14.9585)
(0.822308 -2.38053e-18 1.59077)
(0.965576 0 1.61248)
(1.33342 -3.90797e-18 1.76165)
(1.66928 0 2.00272)
(2.21045 -5.2244e-18 2.33093)
(2.9974 0 2.6861)
(3.99573 5.44658e-18 2.98092)
(5.10376 -9.66678e-18 3.15182)
(6.17998 -1.86609e-17 3.16528)
(7.07198 -6.74121e-19 3.01029)
(7.6405 0 2.69472)
(7.78116 0 2.23986)
(7.44801 0 1.68571)
(6.66901 0 1.09378)
(5.53845 0 0.530826)
(4.19185 0 0.0447275)
(2.77955 -4.49196e-18 -0.341112)
(1.44378 5.2092e-18 -0.618368)
(0.297104 -6.02865e-18 -0.789334)
(-0.591215 0 -0.868956)
(-1.19374 0 -0.881916)
(-1.51441 -1.08739e-17 -0.853932)
(-1.58181 -1.22805e-17 -0.805972)
(-1.44811 -1.34346e-17 -0.754275)
(-1.18618 0 -0.711135)
(-0.877172 2.90933e-17 -0.68235)
(-0.589079 5.82492e-17 -0.664013)
(-0.355323 -2.84987e-17 -0.642484)
(-0.164669 0 -0.599817)
(0.0267817 0 -0.524083)
(0.265992 0 -0.417054)
(0.568239 -2.28142e-17 -0.298406)
(0.895067 0 -0.197689)
(1.16163 0 -0.14314)
(1.26608 -3.12102e-17 -0.148124)
(1.1342 -2.59317e-17 -0.203854)
(0.751012 0 -0.283565)
(0.171945 -1.74961e-17 -0.351445)
(-0.499644 3.03941e-17 -0.378097)
(-1.14055 1.40357e-17 -0.347294)
(-1.64646 -1.35157e-17 -0.263987)
(-1.9509 0 -0.142282)
(-2.02254 0 -0.00795382)
(-1.87532 0 0.116137)
(-1.54302 -1.59834e-17 0.212018)
(-1.08742 0 0.263364)
(-0.583908 2.55539e-18 0.267333)
(-0.104551 -6.004e-18 0.22733)
(0.297105 0 0.152217)
(0.591377 2.15355e-17 0.0680527)
(0.800581 0 -0.0144021)
(0.941018 0 -0.0725302)
(1.06201 7.09074e-17 -0.109157)
(1.15807 -1.23714e-19 -0.123208)
(1.24527 -7.80518e-17 -0.12962)
(1.27759 0 -0.135012)
(1.25448 0 -0.144165)
(1.15937 7.9759e-17 -0.160439)
(0.992068 0 -0.172677)
(0.788659 -1.43076e-16 -0.182027)
(0.54888 0 -0.179144)
(0.296894 0 -0.167929)
(0.0393864 -1.78561e-16 -0.133471)
(-0.185232 -1.34592e-16 -0.107062)
(-0.428547 -4.45056e-17 -0.0399548)
(-0.543896 0 0.00413191)
(-0.677804 0 0.0731197)
(-0.678784 1.30016e-17 0.130803)
(-0.611437 4.99918e-17 0.158183)
(-0.498543 0 0.182864)