/*--------------------------------*- C++ -*----------------------------------*\
| =========                 |                                                 |
| \\      /  F ield         | OpenFOAM: The Open Source CFD Toolbox           |
|  \\    /   O peration     | Version:  2412                                  |
|   \\  /    A nd           | Website:  www.openfoam.com                      |
|    \\/     M anipulation  |                                                 |
\*---------------------------------------------------------------------------*/
FoamFile
{
    version     2.0;
    format      ascii;
    arch        "LSB;label=32;scalar=64";
    class       surfaceScalarField;
    location    "1.315";
    object      phi_0;
}
// * * * * * * * * * * * * * * * * * * * * * * * * * * * * * * * * * * * * * //

dimensions      [0 3 -1 0 0 0 0];

oriented        oriented;

internalField   nonuniform List<scalar> 
24930
(
0.0179852
0.0127763
-0.0307613
0.0106107
0.0073745
0.00695515
0.00365555
0.00517688
0.00177827
0.00420375
0.000973131
0.00358023
0.000623525
0.00313389
0.000446338
0.00279411
0.000339782
0.00252473
0.00026938
0.00230466
0.000220065
0.00212074
0.00018392
0.00196423
0.000156515
0.00182906
0.000135167
0.00171089
0.00011817
0.0016065
0.000104387
0.00151347
9.30343e-05
0.00142991
8.35564e-05
0.00135436
7.55501e-05
0.00128565
6.87168e-05
0.00122281
6.28311e-05
0.00116509
5.772e-05
0.00111185
5.32492e-05
0.00106253
4.93127e-05
0.00101671
4.5826e-05
0.000973985
4.27211e-05
0.000934043
3.99425e-05
0.000896598
3.74448e-05
0.000861407
3.51905e-05
0.000828259
3.31482e-05
0.000796967
3.12915e-05
0.000767368
2.95986e-05
0.000739318
2.80502e-05
0.000712687
2.66306e-05
0.000687362
2.53255e-05
0.000663238
2.41239e-05
0.000640223
2.30141e-05
0.000618234
2.19889e-05
0.000597196
2.10383e-05
0.000577038
2.01583e-05
0.000557698
1.93392e-05
0.000539118
1.85804e-05
0.000521246
1.78714e-05
0.000504031
1.72153e-05
0.000487431
1.65995e-05
0.000471399
1.60317e-05
0.000455903
1.54956e-05
0.000440898
1.50049e-05
0.00042636
1.45378e-05
0.000412245
1.41154e-05
0.000398536
1.37084e-05
0.000385188
1.33476e-05
0.000372195
1.29936e-05
0.000359505
1.26892e-05
0.000347123
1.23821e-05
0.000334993
1.21302e-05
0.000323128
1.18651e-05
0.000311465
1.16627e-05
0.00030003
1.14351e-05
0.000288749
1.12801e-05
0.000277663
1.10864e-05
0.000266686
1.09771e-05
0.000255872
1.08138e-05
0.000245123
1.07492e-05
0.000234509
1.0613e-05
0.000223917
1.0592e-05
0.000213438
1.04795e-05
0.000202937
1.05008e-05
0.000192528
1.04087e-05
0.000182058
1.04701e-05
0.000171664
1.0394e-05
0.000161172
1.04914e-05
0.000150747
1.04254e-05
0.000140193
1.05531e-05
0.000129705
1.04885e-05
0.000119065
1.06394e-05
0.000108501
1.0564e-05
9.77688e-05
1.07322e-05
8.71436e-05
1.06252e-05
7.63311e-05
1.08124e-05
6.56964e-05
1.06347e-05
5.48336e-05
1.08627e-05
4.42921e-05
1.05414e-05
3.34191e-05
1.08729e-05
2.31336e-05
1.02855e-05
1.23071e-05
1.08264e-05
2.40211e-06
9.90498e-06
-8.35302e-06
1.07551e-05
-1.72245e-05
8.87148e-06
-2.83629e-05
1.11383e-05
-3.61204e-05
7.75757e-06
-4.61637e-05
1.00428e-05
-5.53331e-05
9.1699e-06
-6.14704e-05
6.13714e-06
-7.32166e-05
1.1746e-05
-7.5482e-05
2.26573e-06
-8.85483e-05
1.30658e-05
-8.77965e-05
-7.51874e-07
-0.000105214
1.74173e-05
-0.000102203
-3.00797e-06
-0.000116279
1.40747e-05
-0.000113584
-2.69585e-06
-0.000133366
1.97828e-05
-0.000126489
-6.87833e-06
-0.000147686
2.11954e-05
-0.00017448
2.68004e-05
-0.000134856
-3.96285e-05
-0.000190818
5.59593e-05
-0.000191755
9.41498e-07
-0.000232558
4.08041e-05
-0.000247907
1.53497e-05
-0.000254645
6.73358e-06
-0.000378876
0.000124239
-0.000321235
-5.76408e-05
-0.000341305
2.0063e-05
-0.000500142
0.000158845
-0.000361643
-0.0001385
-0.00034895
-1.20986e-05
-0.000380684
3.17375e-05
-0.000351146
-2.95332e-05
-0.000126126
0.0337084
0.0163478
-0.0372798
0.0277632
0.0133197
0.0222028
0.00921592
0.0179228
0.00605826
0.0148728
0.00402317
0.0127097
0.00278657
0.0111209
0.00203514
0.00990265
0.00155806
0.00893453
0.00123751
0.0081435
0.0010111
0.00748274
0.000844673
0.00692092
0.000718334
0.00643623
0.000619861
0.00601297
0.000541434
0.00563952
0.000477832
0.0053071
0.00042545
0.00500893
0.000381729
0.00473967
0.000344809
0.00449508
0.000313312
0.00427171
0.000286195
0.00406677
0.00026266
0.00387794
0.000242085
0.00370327
0.000223978
0.00354115
0.00020795
0.00339018
0.000193684
0.0032492
0.000180925
0.00311718
0.000169463
0.00299325
0.000159123
0.00287664
0.00014976
0.00276668
0.000141253
0.00266277
0.0001335
0.00256441
0.000126412
0.00247113
0.000119917
0.0023825
0.000113948
0.00229817
0.000108454
0.0022178
0.000103383
0.00214109
9.8698e-05
0.00206777
9.43578e-05
0.00199759
9.03378e-05
0.00193033
8.6601e-05
0.00186578
8.31349e-05
0.00180375
7.99027e-05
0.00174406
7.69043e-05
0.00168656
7.40993e-05
0.00163109
7.15016e-05
0.00157752
6.90626e-05
0.00152571
6.68131e-05
0.00147556
6.4691e-05
0.00142692
6.27482e-05
0.00137973
6.09035e-05
0.00133384
5.92351e-05
0.0012892
5.76357e-05
0.00124567
5.62164e-05
0.00120322
5.48361e-05
0.0011617
5.36462e-05
0.0011211
5.24634e-05
0.00108128
5.14874e-05
0.00104223
5.0484e-05
0.0010038
4.97102e-05
0.000966013
4.88708e-05
0.000928701
4.82898e-05
0.000891913
4.76008e-05
0.000855457
4.72051e-05
0.000819416
4.6654e-05
0.000783571
4.64371e-05
0.000748039
4.60115e-05
0.000712574
4.59652e-05
0.00067733
4.56525e-05
0.000642035
4.57644e-05
0.00060688
4.55497e-05
0.000571572
4.57989e-05
0.000536335
4.56623e-05
0.000500872
4.60157e-05
0.000465427
4.59335e-05
0.000429723
4.63428e-05
0.000393999
4.62882e-05
0.00035804
4.66907e-05
0.000322038
4.66273e-05
0.000285893
4.69573e-05
0.000249714
4.68127e-05
0.000213534
4.70433e-05
0.000177431
4.66435e-05
0.00014141
4.68944e-05
0.000105862
4.58328e-05
7.01343e-05
4.65542e-05
3.59574e-05
4.40818e-05
7.93222e-07
4.59191e-05
-3.09147e-05
4.05793e-05
-6.79686e-05
4.81922e-05
-9.40944e-05
3.38833e-05
-0.000130366
4.6315e-05
-0.000157452
3.62554e-05
-0.00018451
3.31948e-05
-0.000216941
4.41769e-05
-0.00023354
1.88649e-05
-0.000268603
4.81291e-05
-0.000277162
7.80723e-06
-0.000324698
6.49535e-05
-0.000324672
-3.03738e-06
-0.000363709
5.31126e-05
-0.000364558
-1.84383e-06
-0.000422648
7.78716e-05
-0.000403174
-2.63507e-05
-0.000484905
0.000102926
-0.000543301
8.51922e-05
-0.000451308
-0.000131618
-0.000612647
0.000217298
-0.000625672
1.39647e-05
-0.000751445
0.000166577
-0.000791211
5.51158e-05
-0.000842531
5.80564e-05
-0.00119402
0.000475725
-0.00101017
-0.000241486
-0.00112581
0.000135705
-0.0015378
0.000570833
-0.00114245
-0.000533842
-0.00110462
-5.05489e-05
-0.00121755
0.000144662
-0.00105258
-0.000194502
-0.000514986
0.0414825
0.0160452
-0.04118
0.0391878
0.0156144
0.0352517
0.013152
0.0309591
0.0103509
0.0270389
0.00794337
0.0237457
0.00607978
0.0210681
0.00471272
0.018897
0.00372919
0.0171175
0.00301701
0.0156368
0.00249175
0.0143859
0.00209554
0.0133145
0.00178981
0.0123854
0.00154891
0.0115713
0.00135557
0.0108512
0.00119789
0.0102092
0.00106748
0.00963264
0.000958273
0.00911162
0.000865828
0.00863812
0.000786809
0.00820564
0.000718678
0.00780882
0.000659478
0.00744323
0.000607674
0.00710515
0.000562056
0.00679145
0.000521652
0.00649946
0.000485678
0.00622689
0.000453494
0.00597177
0.000424574
0.00573241
0.000398483
0.00550732
0.000374856
0.00529518
0.000353387
0.00509486
0.000333821
0.00490534
0.000315934
0.00472572
0.000299543
0.00455518
0.000284482
0.00439302
0.000270618
0.00423857
0.000257825
0.00409127
0.000246004
0.00395057
0.000235057
0.00381599
0.000224914
0.0036871
0.000215489
0.0035635
0.000206743
0.00344481
0.000198593
0.00333069
0.000191023
0.00322083
0.000183952
0.00311494
0.00017739
0.00301276
0.000171243
0.00291402
0.000165554
0.00281851
0.000160208
0.00272597
0.000155285
0.00263623
0.000150641
0.00254906
0.000146401
0.00246432
0.000142379
0.00238178
0.000138756
0.00230133
0.00013529
0.00222274
0.000132233
0.00214593
0.000129271
0.00207068
0.000126738
0.00199693
0.000124236
0.00192444
0.000122195
0.0018532
0.000120116
0.00178295
0.000118541
0.00171369
0.000116854
0.00164517
0.000115723
0.00157743
0.000114398
0.00151017
0.000113694
0.00144348
0.000112704
0.00137704
0.000112403
0.00131097
0.00011172
0.00124495
0.000111789
0.00117912
0.000111382
0.00111315
0.000111768
0.00104721
0.000111596
0.000981022
0.000112208
0.000914727
0.000112228
0.000848138
0.000112932
0.000781316
0.00011311
0.000714293
0.000113713
0.0006469
0.00011402
0.000579575
0.000114282
0.000511733
0.000114654
0.000444407
0.000114369
0.000376496
0.000114555
0.000309565
0.000113825
0.000242393
0.000113004
0.000176085
0.000112863
0.000111235
0.000108932
4.5046e-05
0.000112108
-1.45339e-05
0.000100159
-8.32688e-05
0.000116927
-0.000132758
8.33726e-05
-0.000202346
0.000115903
-0.000250648
8.45572e-05
-0.000306166
8.87136e-05
-0.000361879
9.98895e-05
-0.000399744
5.67294e-05
-0.000459322
0.000107708
-0.000483794
3.22788e-05
-0.000564123
0.000145283
-0.000571618
4.45916e-06
-0.000639228
0.000120722
-0.00064879
7.71437e-06
-0.000749256
0.000178338
-0.000719728
-5.5879e-05
-0.000876004
0.000259202
-0.000958985
0.000168175
-0.000826567
-0.000264037
-0.00110346
0.000494193
-0.00113061
4.11146e-05
-0.00135192
0.000387888
-0.00141713
0.000120321
-0.00153384
0.000174771
-0.00211258
0.00105447
-0.0017894
-0.000564668
-0.00203855
0.000384855
-0.00267754
0.00120982
-0.00200546
-0.00120592
-0.0019615
-9.45109e-05
-0.00215211
0.000335274
-0.00178557
-0.000561044
-0.00122008
0.0459463
0.0147463
-0.0446474
0.0460272
0.0155335
0.0444445
0.0147347
0.041716
0.0130794
0.0384672
0.0111922
0.0351574
0.00938956
0.0320545
0.00781558
0.0292731
0.00651058
0.0268321
0.00545809
0.0247052
0.00461864
0.0228512
0.00394947
0.0212283
0.00341278
0.019799
0.0029782
0.0185321
0.00262244
0.017402
0.00232798
0.0163878
0.00208167
0.0154725
0.0018736
0.0146421
0.00169622
0.0138852
0.00154376
0.0131921
0.0014117
0.0125551
0.00129652
0.0119673
0.00119543
0.0114232
0.00110618
0.0109179
0.00102696
0.0104473
0.000956305
0.0100078
0.000892998
0.00959631
0.00083604
0.00921019
0.000784597
0.00884707
0.000737972
0.00850489
0.000695574
0.0081818
0.000656906
0.00787619
0.00062154
0.00758662
0.000589114
0.0073118
0.000559309
0.00705055
0.000531861
0.00680185
0.000506526
0.00656475
0.000483109
0.00633838
0.000461418
0.00612198
0.000441314
0.00591484
0.000422634
0.00571629
0.000405287
0.00552576
0.000389128
0.00534267
0.000374107
0.00516654
0.000360083
0.00499688
0.000347051
0.00483327
0.000334857
0.00467528
0.000323545
0.00452255
0.000312937
0.00437469
0.000303136
0.00423142
0.000293919
0.00409236
0.00028546
0.00395726
0.000277477
0.00382579
0.000270227
0.00369773
0.00026335
0.00357275
0.000257205
0.00345069
0.00025133
0.00333123
0.000246205
0.00321421
0.000241248
0.00309933
0.000237076
0.00298648
0.000232966
0.00287533
0.000229694
0.00276581
0.000226371
0.00265758
0.000223955
0.00255061
0.000221364
0.00244454
0.000219764
0.00233939
0.000217856
0.00223477
0.000217025
0.00213074
0.000215751
0.0020269
0.000215624
0.00192336
0.000214926
0.00181973
0.000215396
0.00171612
0.000215206
0.00161223
0.000216097
0.00150811
0.000216349
0.00140366
0.000217383
0.00129873
0.000218042
0.00119363
0.000218811
0.00108776
0.000219886
0.000982199
0.000219845
0.000875525
0.000221328
0.000769956
0.000219937
0.000662978
0.000221532
0.000558033
0.000218771
0.000451925
0.000219112
0.000347972
0.000216815
0.000245153
0.00021175
0.000141304
0.000215957
4.65274e-05
0.000194935
-6.11656e-05
0.00022462
-0.00014033
0.000162537
-0.000250919
0.000226492
-0.000325673
0.00015931
-0.00041724
0.000180281
-0.000501237
0.000183886
-0.000566795
0.000122287
-0.000656269
0.000197182
-0.000702197
7.82067e-05
-0.000820887
0.000263972
-0.000839262
2.28338e-05
-0.000942179
0.00022364
-0.000964389
2.99286e-05
-0.00111362
0.000327568
-0.00107822
-9.12779e-05
-0.00132047
0.000501448
-0.00142547
0.000273179
-0.00126345
-0.000426059
-0.00166904
0.000899785
-0.00170941
8.14823e-05
-0.00203881
0.000717287
-0.00213294
0.000214456
-0.00233178
0.000373612
-0.0031385
0.00186118
-0.0026663
-0.00103686
-0.00307976
0.00079831
-0.00391787
0.00204794
-0.00294516
-0.00217863
-0.00291976
-0.000119829
-0.0031692
0.000584714
-0.0025322
-0.00119804
-0.00231168
0.0494135
0.0135524
-0.0482196
0.0503761
0.0145709
0.0503922
0.0147185
0.0493672
0.0141045
0.0475188
0.0130406
0.04514
0.0117684
0.0425026
0.0104529
0.0398135
0.00919965
0.0372077
0.00806391
0.0347597
0.00706664
0.0325018
0.00620742
0.0304398
0.00547478
0.0285653
0.00485268
0.0268633
0.00432443
0.0253167
0.00387464
0.0239084
0.00348995
0.0226228
0.00315921
0.0214457
0.00287326
0.0203649
0.00262462
0.0193694
0.00240723
0.0184497
0.00221614
0.0175979
0.00204731
0.0168066
0.00189743
0.0160698
0.00176379
0.015382
0.00164411
0.0147385
0.00153651
0.0141351
0.00143942
0.0135682
0.00135151
0.0130345
0.00127165
0.0125312
0.0011989
0.0120556
0.00113244
0.0116056
0.00107156
0.0111791
0.00101567
0.0107741
0.000964236
0.0103892
0.000916822
0.0100227
0.00087302
0.00967329
0.0008325
0.00933977
0.000794941
0.00902098
0.000760102
0.0087159
0.000727716
0.00842357
0.000697617
0.00814312
0.000669572
0.00787375
0.000643478
0.00761472
0.000619116
0.00736532
0.000596449
0.00712493
0.000575247
0.00689293
0.000555548
0.00666877
0.00053709
0.00645191
0.000519994
0.00624189
0.000503945
0.00603819
0.000489161
0.00584041
0.000475249
0.0056481
0.000462546
0.00546089
0.000450554
0.00527835
0.000439747
0.00510018
0.000429496
0.00492595
0.000420438
0.00475541
0.000411783
0.00458813
0.000404357
0.00442392
0.000397179
0.00426233
0.000391287
0.00410321
0.000385485
0.00394612
0.000381049
0.00379095
0.000376534
0.00363723
0.000373484
0.00348491
0.000370173
0.00333351
0.000368429
0.00318302
0.000366243
0.00303295
0.000365692
0.00288333
0.000364542
0.00273372
0.000365004
0.00258414
0.000364785
0.00243428
0.000365957
0.00228406
0.000366574
0.00213346
0.000367977
0.0019821
0.000369403
0.0018306
0.000370313
0.00167786
0.000372624
0.00152566
0.000372048
0.00137164
0.000375348
0.00121936
0.000372219
0.00106468
0.000376205
0.000913206
0.000370247
0.000759444
0.000372874
0.000609328
0.000366931
0.000459824
0.000361254
0.000309855
0.000365926
0.000171345
0.000333445
1.62004e-05
0.000379764
-0.000100381
0.000279118
-0.000261243
0.000387354
-0.000368922
0.000266989
-0.000505711
0.000317071
-0.000624109
0.000302283
-0.000725266
0.000223444
-0.000851192
0.000323108
-0.00092527
0.000152285
-0.00108894
0.000427639
-0.00112252
5.6419e-05
-0.00126889
0.000370007
-0.00130828
6.93143e-05
-0.00151383
0.000533121
-0.00147808
-0.000127028
-0.00181773
0.000841102
-0.00194345
0.000398898
-0.00176546
-0.000604056
-0.00231163
0.00144596
-0.00236477
0.000134618
-0.00281551
0.00116803
-0.00294243
0.000341381
-0.00323942
0.000670598
-0.00427107
0.00289284
-0.00364396
-0.00166398
-0.00424942
0.00140377
-0.00524966
0.00304819
-0.00395668
-0.00347161
-0.00397081
-0.000105807
-0.00424889
0.00086279
-0.00326529
-0.00218164
-0.0038744
0.0528728
0.0126548
-0.0519752
0.0539005
0.0135433
0.0545831
0.0140359
0.0546503
0.0140373
0.0540493
0.0136415
0.0528496
0.0129682
0.0511804
0.0121221
0.0491883
0.0111917
0.0470082
0.010244
0.0447508
0.00932403
0.0424985
0.00845976
0.0403073
0.00766592
0.038212
0.006948
0.036231
0.00630543
0.0343717
0.00573394
0.0326343
0.00522738
0.0310146
0.00477889
0.0295062
0.00438166
0.0281015
0.00402929
0.0267927
0.00371602
0.0255721
0.00343679
0.0244322
0.00318717
0.0233663
0.00296335
0.022368
0.00276205
0.0214317
0.00258045
0.020552
0.00241615
0.0197244
0.00226708
0.0189444
0.00213145
0.0182083
0.00200774
0.0175126
0.0018946
0.0168542
0.00179092
0.01623
0.00169567
0.0156377
0.001608
0.0150748
0.00152715
0.0145392
0.00145246
0.0140288
0.00138333
0.0135421
0.00131928
0.0130772
0.00125982
0.0126327
0.00120459
0.0122072
0.00115319
0.0117995
0.00110536
0.0114083
0.00106075
0.0110326
0.0010192
0.0106713
0.000980381
0.0103235
0.000944215
0.0099884
0.000910375
0.00966506
0.000878885
0.00935277
0.000849381
0.00905077
0.000821999
0.0087584
0.000796309
0.00847499
0.000772578
0.00819996
0.000750279
0.00793267
0.000729835
0.00767263
0.000710586
0.00741924
0.000693137
0.00717208
0.000676659
0.00693055
0.00066197
0.00669429
0.000648037
0.00646273
0.00063592
0.00623556
0.000624347
0.0060122
0.000614647
0.00579241
0.000605278
0.00557559
0.000597869
0.00536156
0.000590566
0.0051497
0.000585336
0.0049399
0.000579976
0.00473153
0.0005768
0.00452451
0.000573265
0.00431823
0.000571968
0.00411264
0.000570129
0.00390721
0.000570432
0.00370186
0.000570136
0.00349625
0.000571571
0.00329013
0.000572693
0.0030836
0.000574508
0.00287597
0.000577032
0.0026682
0.000578077
0.00245865
0.000582183
0.00224985
0.000580843
0.00203839
0.000586805
0.00182934
0.000581273
0.00161672
0.000588826
0.00140857
0.000578398
0.00119677
0.000584675
0.000990302
0.000573394
0.00078369
0.000567866
0.000577436
0.00057218
0.000384902
0.000525979
0.000172034
0.000592631
9.4684e-06
0.000441684
-0.000213568
0.000610391
-0.000361955
0.000415375
-0.000555193
0.000510309
-0.000715298
0.000462388
-0.000861961
0.000370106
-0.00103207
0.000493215
-0.00114263
0.00026285
-0.00135888
0.000643884
-0.00141361
0.000111155
-0.00161284
0.000569233
-0.00167491
0.000131386
-0.00194562
0.000803829
-0.00191645
-0.000156193
-0.00236493
0.00128958
-0.00251159
0.000545553
-0.00233433
-0.000781315
-0.00303072
0.00214236
-0.00309773
0.000201625
-0.00368311
0.00175341
-0.0038468
0.000505067
-0.00425655
0.00108036
-0.00550604
0.00414233
-0.00472234
-0.00244768
-0.00554252
0.00222395
-0.00665822
0.00416389
-0.00503128
-0.00509856
-0.00509692
-4.00088e-05
-0.00536166
0.00112753
-0.00394797
-0.00359533
-0.00601022
0.0565941
0.0119682
-0.0559075
0.0574471
0.0126903
0.0582429
0.0132401
0.0587685
0.0135116
0.0589017
0.0135083
0.0585967
0.0132732
0.0578628
0.0128561
0.0567477
0.0123067
0.0553202
0.0116715
0.0536557
0.0109886
0.0518276
0.0102878
0.0499015
0.00959205
0.047932
0.00891752
0.0459621
0.00827525
0.0440241
0.00767199
0.0421403
0.00711115
0.0403255
0.0065937
0.0385884
0.00611883
0.036933
0.00568462
0.0353606
0.00528846
0.0338699
0.00492742
0.0324586
0.00459849
0.0311233
0.00429869
0.0298601
0.00402523
0.0286651
0.00377551
0.027534
0.00354717
0.0264631
0.00333806
0.0254482
0.00314626
0.0244859
0.00297006
0.0235726
0.00280791
0.0227051
0.00265847
0.0218802
0.00252051
0.0210953
0.00239297
0.0203475
0.00227488
0.0196346
0.00216541
0.0189541
0.00206377
0.0183041
0.00196932
0.0176825
0.00188142
0.0170875
0.00179957
0.0165175
0.00172324
0.0159708
0.00165206
0.015446
0.00158557
0.0149416
0.00152352
0.0144565
0.00146547
0.0139895
0.0014113
0.0135393
0.00136056
0.0131049
0.00131326
0.0126854
0.00126891
0.0122797
0.00122767
0.011887
0.00118897
0.0115065
0.00115313
0.0111373
0.00111947
0.0107786
0.0010885
0.0104298
0.00105938
0.0100901
0.00103286
0.00975887
0.00100788
0.00943537
0.000985465
0.00911911
0.000964297
0.00880933
0.000945703
0.0085056
0.000928076
0.00820717
0.000913079
0.00791368
0.000898769
0.00762437
0.000887179
0.00733894
0.000875991
0.00705663
0.000867645
0.00677721
0.000859401
0.00649989
0.000854116
0.0062245
0.000848654
0.00595029
0.000846178
0.0056771
0.000843319
0.00540428
0.000843249
0.00513163
0.000842787
0.00485876
0.000844443
0.00458524
0.000846214
0.00431125
0.000848494
0.00403578
0.000852507
0.00376014
0.00085371
0.00348205
0.00086028
0.00320491
0.000857978
0.0029241
0.000867615
0.00264637
0.000859008
0.00236366
0.000871533
0.00208678
0.000855281
0.0018046
0.000866851
0.00152963
0.000848363
0.00125347
0.000844024
0.000978749
0.000846904
0.000719847
0.000784881
0.000437107
0.000875371
0.000214353
0.000664438
-8.21428e-05
0.000906887
-0.000279868
0.0006131
-0.000543534
0.000773975
-0.000753972
0.000672826
-0.000958605
0.000574739
-0.00118191
0.00071652
-0.00133943
0.000420371
-0.00161703
0.00092148
-0.00170084
0.000194967
-0.00196369
0.000832089
-0.00205515
0.000222841
-0.00240133
0.00115001
-0.00238706
-0.000170476
-0.00295593
0.00185846
-0.00312574
0.000715356
-0.00296885
-0.000938198
-0.00382226
0.00299578
-0.00390662
0.00028598
-0.00463912
0.00248591
-0.00484349
0.000709436
-0.00537838
0.00161525
-0.00683475
0.0055987
-0.00589671
-0.00338571
-0.00694726
0.0032745
-0.00812317
0.0053398
-0.00615481
-0.00706692
-0.00626871
7.37098e-05
-0.00646677
0.00132558
-0.0045327
-0.00552939
-0.00884231
0.0606006
0.0114052
-0.0600377
0.0612846
0.0120063
0.0619986
0.012526
0.0626199
0.0128904
0.0630508
0.0130774
0.0632274
0.0130966
0.063114
0.0129695
0.0627002
0.0127206
0.0619961
0.0123756
0.0610264
0.0119583
0.0598256
0.0114887
0.0584333
0.0109843
0.056891
0.0104599
0.0552386
0.00992759
0.0535133
0.00939736
0.0517473
0.00887709
0.0499682
0.00837285
0.048198
0.00788905
0.0464539
0.00742867
0.0447489
0.00699347
0.0430921
0.00658423
0.0414896
0.00620094
0.0399453
0.00584304
0.0384609
0.00550956
0.0370372
0.00519931
0.0356734
0.00491091
0.0343685
0.00464296
0.0331207
0.00439404
0.031928
0.00416276
0.0307881
0.0039478
0.0296987
0.00374792
0.0286573
0.00356192
0.0276615
0.00338875
0.026709
0.0032274
0.0257974
0.00307695
0.0249246
0.00293657
0.0240885
0.00280549
0.0232869
0.00268301
0.0225179
0.00256852
0.0217798
0.00246138
0.0210707
0.00236116
0.020389
0.00226727
0.0197331
0.00217941
0.0191016
0.00209702
0.0184929
0.00201994
0.0179059
0.00194761
0.0173391
0.00188003
0.0167914
0.00181658
0.0162617
0.00175743
0.0157488
0.00170186
0.0152516
0.00165028
0.0147693
0.0016018
0.0143007
0.00155706
0.0138451
0.00151501
0.0134014
0.00147655
0.0129689
0.00144037
0.0125467
0.00140772
0.012134
0.00137697
0.01173
0.00134975
0.011334
0.00132406
0.0109451
0.00130195
0.0105629
0.00128102
0.0101863
0.00126377
0.00981493
0.00124734
0.00944786
0.00123472
0.00908471
0.00122255
0.00872453
0.0012143
0.008367
0.00120618
0.0080112
0.00120197
0.00765686
0.00119766
0.00730317
0.00119693
0.00694978
0.00119618
0.00659624
0.00119799
0.00624187
0.00120058
0.00588697
0.0012034
0.00553011
0.00120937
0.00517302
0.0012108
0.00481264
0.00122065
0.00445338
0.00121724
0.00408921
0.00123178
0.00372876
0.00121945
0.00336166
0.00123863
0.00300178
0.00121517
0.00263463
0.001234
0.00227669
0.0012063
0.00191619
0.00120453
0.00155843
0.00120466
0.00121836
0.00112495
0.000851196
0.00124254
0.000554704
0.000960929
0.000170628
0.00129096
-8.85861e-05
0.000872314
-0.000441288
0.00112668
-0.000711982
0.00094352
-0.000990363
0.000853119
-0.00127725
0.00100341
-0.00149499
0.000638107
-0.001844
0.00127049
-0.00196747
0.000318433
-0.00230602
0.00117064
-0.0024352
0.00035202
-0.00286885
0.00158367
-0.0028791
-0.000160221
-0.00358021
0.00255957
-0.0037778
0.000912939
-0.00366346
-0.00105254
-0.00467756
0.00400988
-0.00478603
0.000394451
-0.00567615
0.00337603
-0.00592498
0.000958267
-0.00659388
0.00228416
-0.00824289
0.0072477
-0.00715582
-0.00447278
-0.00844306
0.00456174
-0.0096169
0.00651364
-0.00730519
-0.00937863
-0.00744216
0.00021088
-0.00750995
0.00139337
-0.00495879
-0.00808056
-0.0125196
0.064886
0.0109208
-0.0644016
0.0654511
0.0114412
0.0660583
0.0119189
0.0666425
0.0123062
0.0671409
0.0125789
0.0675052
0.0127324
0.0676999
0.0127748
0.0677011
0.0127194
0.0674954
0.0125813
0.0670788
0.0123749
0.0664549
0.0121126
0.0656342
0.011805
0.0646325
0.0114615
0.0634698
0.0110903
0.0621687
0.0106984
0.0607534
0.0102924
0.0592482
0.00987801
0.0576767
0.0094606
0.0560605
0.00904484
0.0544192
0.00863478
0.0527696
0.0082338
0.051126
0.0078446
0.0494998
0.0074692
0.0479003
0.00710904
0.0463346
0.00676505
0.0448078
0.0064377
0.0433237
0.0061271
0.0418846
0.00583308
0.0404921
0.00555529
0.0391467
0.00529319
0.0378484
0.00504618
0.0365968
0.00481357
0.0353909
0.00459464
0.0342297
0.00438866
0.0331117
0.00419492
0.0320355
0.00401271
0.0309997
0.00384137
0.0300025
0.00368022
0.0290423
0.0035287
0.0281175
0.00338617
0.0272265
0.00325217
0.0263676
0.00312609
0.0255394
0.00300762
0.0247403
0.00289612
0.0239688
0.00279144
0.0232235
0.00269291
0.022503
0.00260055
0.021806
0.00251362
0.021131
0.00243234
0.0204771
0.00235584
0.0198427
0.0022846
0.019227
0.00221756
0.0186285
0.0021555
0.0180465
0.0020971
0.0174795
0.0020435
0.0169268
0.00199307
0.0163872
0.00194735
0.0158598
0.00190433
0.0153435
0.001866
0.0148377
0.00182993
0.014341
0.0017986
0.013853
0.00176909
0.0133723
0.00174443
0.0128985
0.00172115
0.0124304
0.00170286
0.0119674
0.00168553
0.0115084
0.0016733
0.0110529
0.00166163
0.0105999
0.00165502
0.0101488
0.00164874
0.00969873
0.00164701
0.00924911
0.0016458
0.0087994
0.0016477
0.00834867
0.00165131
0.00789727
0.00165479
0.00744333
0.00166331
0.00698901
0.00166513
0.00653039
0.00167927
0.00607293
0.00167471
0.00560906
0.00169564
0.00514948
0.00167904
0.00468121
0.0017069
0.00422152
0.00167485
0.0037522
0.00170333
0.00329416
0.00166433
0.00283178
0.00166691
0.00237365
0.00166278
0.00193473
0.00156387
0.00146577
0.0017115
0.0010782
0.00134849
0.00058989
0.00177927
0.000247952
0.00121425
-0.000210255
0.00158488
-0.000551537
0.0012848
-0.000923895
0.00122548
-0.00128618
0.00136569
-0.00158102
0.000932951
-0.002013
0.00170247
-0.00219001
0.00049544
-0.00261764
0.00159828
-0.00279503
0.000529408
-0.00332987
0.00211851
-0.00337564
-0.000114469
-0.00422145
0.00340538
-0.0044541
0.00114558
-0.00440647
-0.00110016
-0.00558189
0.0051853
-0.00572525
0.000537808
-0.00678006
0.00443084
-0.00707696
0.00125517
-0.00788402
0.00309122
-0.00970883
0.00907252
-0.00847946
-0.00570216
-0.0099985
0.00608079
-0.0111027
0.00761785
-0.00844943
-0.0120319
-0.00855581
0.000317106
-0.00842111
0.00125868
-0.00514981
-0.0113519
-0.0172182
0.0694593
0.0104934
-0.0690319
0.0699426
0.0109579
0.0704627
0.0113987
0.070984
0.0117849
0.0714668
0.012096
0.0718774
0.0123218
0.0721897
0.0124625
0.0723843
0.0125248
0.0724471
0.0125185
0.0723682
0.0124538
0.0721404
0.0123403
0.0717601
0.0121853
0.0712266
0.0119951
0.0705422
0.0117747
0.0697124
0.0115283
0.0687456
0.0112592
0.067653
0.0109706
0.0664481
0.0106655
0.0651458
0.0103472
0.0637619
0.0100187
0.0623125
0.00968318
0.0608133
0.00934382
0.059279
0.00900352
0.057723
0.00866497
0.0561576
0.00833055
0.054593
0.0080023
0.0530381
0.0076819
0.0515005
0.0073707
0.0499861
0.00706969
0.0484997
0.0067796
0.047045
0.0065009
0.0456247
0.00623384
0.0442408
0.00597853
0.0428946
0.00573487
0.0415868
0.00550274
0.0403177
0.00528186
0.0390871
0.00507196
0.0378947
0.00487264
0.0367398
0.00468359
0.0356216
0.00450434
0.0345392
0.00433461
0.0334914
0.00417384
0.0324772
0.00402186
0.0314953
0.00387803
0.0305444
0.00374231
0.0296233
0.00361396
0.0287308
0.00349312
0.0278655
0.00337894
0.027026
0.00327176
0.0262113
0.00317056
0.0254199
0.00307597
0.0246508
0.00298673
0.0239025
0.00290381
0.0231739
0.00282564
0.0224638
0.00275362
0.0217711
0.00268577
0.0210945
0.00262398
0.020433
0.00256582
0.0197853
0.00251373
0.0191505
0.00246473
0.0185272
0.00242188
0.0179146
0.00238161
0.0173115
0.0023476
0.0167169
0.00231568
0.0161296
0.00229019
0.0155489
0.00226628
0.0149732
0.00224892
0.0144021
0.00223272
0.0138342
0.00222294
0.0132688
0.00221413
0.0127048
0.00221102
0.0121414
0.00220921
0.0115779
0.00221117
0.0110131
0.0022161
0.0104475
0.00222045
0.0098785
0.00223229
0.00930884
0.00223478
0.00873362
0.00225449
0.00815942
0.00224891
0.00757697
0.0022781
0.00699918
0.00225683
0.00641025
0.00229583
0.00583113
0.00225398
0.0052395
0.00229495
0.00466121
0.00224262
0.00407627
0.00225185
0.00349722
0.00224183
0.00293842
0.00212267
0.00234698
0.00230295
0.00184735
0.00184813
0.00123347
0.00239315
0.000788301
0.00165942
0.000205797
0.00216739
-0.000221292
0.00171189
-0.000715044
0.00171923
-0.00116569
0.00181634
-0.00155935
0.00132662
-0.00208747
0.00223058
-0.00233613
0.0007441
-0.00286752
0.00212968
-0.00310645
0.00076834
-0.00375821
0.00277026
-0.0038516
-2.10432e-05
-0.00485563
0.00440942
-0.0051332
0.00142314
-0.00517791
-0.00105544
-0.00651265
0.00652004
-0.00670621
0.000731365
-0.00792787
0.00565249
-0.00827632
0.00160362
-0.00921941
0.00403431
-0.0112014
0.0110545
-0.00983553
-0.00706805
-0.0115689
0.00781415
-0.0125319
0.00858082
-0.00953991
-0.0150238
-0.00952788
0.000305217
-0.00911145
0.000842243
-0.00501017
-0.0154531
-0.0231896
0.0743399
0.0101104
-0.0739568
0.074764
0.0105338
0.0752183
0.0109444
0.0756821
0.0113212
0.0761294
0.0116487
0.0765357
0.0119155
0.0768813
0.0121169
0.0771514
0.0122547
0.0773358
0.0123341
0.0774271
0.0123626
0.0774195
0.0123479
0.0773078
0.0122969
0.0770878
0.0122151
0.0767554
0.012107
0.0763077
0.011976
0.0757425
0.0118243
0.0750598
0.0116533
0.0742612
0.0114641
0.0733507
0.0112577
0.0723342
0.0110351
0.0712198
0.0107976
0.0700168
0.0105468
0.0687361
0.0102843
0.0673889
0.0100122
0.0659869
0.00973254
0.0645416
0.00944761
0.063064
0.00915952
0.0615644
0.00887031
0.0600522
0.00858189
0.0585358
0.00829595
0.0570227
0.008014
0.0555192
0.00773731
0.0540308
0.00746694
0.052562
0.00720372
0.0511164
0.00694835
0.0496969
0.00670129
0.048306
0.00646294
0.0469451
0.00623346
0.0456157
0.00601306
0.0443183
0.00580167
0.0430535
0.00559939
0.0418214
0.00540597
0.0406218
0.00522149
0.0394543
0.00504551
0.0383184
0.00487821
0.0372134
0.00471894
0.0361385
0.00456803
0.0350928
0.00442462
0.0340753
0.00428928
0.033085
0.00416087
0.0321207
0.00404028
0.0311814
0.00392604
0.0302658
0.00381943
0.0293728
0.0037186
0.0285011
0.0036253
0.0276497
0.00353718
0.0268171
0.00345658
0.0260024
0.00338059
0.0252039
0.00331218
0.0244208
0.0032478
0.0236516
0.00319113
0.0228953
0.00313794
0.0221502
0.00309264
0.0214156
0.00305025
0.0206899
0.00301598
0.0199721
0.00298406
0.0192606
0.0029604
0.0185546
0.00293866
0.0178526
0.00292499
0.0171536
0.00291309
0.0164564
0.0029083
0.0157597
0.00290586
0.0150629
0.00290794
0.0143643
0.00291469
0.0136645
0.00292029
0.0129603
0.00293649
0.0122549
0.00294018
0.0115423
0.00296712
0.0108303
0.0029609
0.0101077
0.00300069
0.00938985
0.00297466
0.00865784
0.00302785
0.00793658
0.00297523
0.00719933
0.0030322
0.00647725
0.00296471
0.00574559
0.00298351
0.00502141
0.00296601
0.00431789
0.00282619
0.00357944
0.0030414
0.0029426
0.00248497
0.00217833
0.00315742
0.00160682
0.00223093
0.000879864
0.00289435
0.000333919
0.00225783
-0.000306849
0.00236
-0.000858215
0.0023677
-0.0013791
0.00184751
-0.00201815
0.00286963
-0.00236194
0.00108789
-0.00301305
0.00278079
-0.00333063
0.00108591
-0.00411673
0.00355636
-0.00427155