/*--------------------------------*- C++ -*----------------------------------*\
| =========                 |                                                 |
| \\      /  F ield         | OpenFOAM: The Open Source CFD Toolbox           |
|  \\    /   O peration     | Version:  2412                                  |
|   \\  /    A nd           | Website:  www.openfoam.com                      |
|    \\/     M anipulation  |                                                 |
\*---------------------------------------------------------------------------*/
FoamFile
{
    version     2.0;
    format      ascii;
    arch        "LSB;label=32;scalar=64";
    class       surfaceScalarField;
    location    "1.185";
    object      phi;
}
// * * * * * * * * * * * * * * * * * * * * * * * * * * * * * * * * * * * * * //

dimensions      [0 3 -1 0 0 0 0];

oriented        oriented;

internalField   nonuniform List<scalar> 
24930
(
0.0179821
0.0127751
-0.0307545
0.010609
0.00737316
0.00695433
0.00365465
0.00517653
0.00177779
0.00420365
0.000972879
0.00358028
0.000623374
0.00313404
0.000446235
0.00279433
0.00033971
0.002525
0.000269326
0.00230498
0.000220024
0.00212109
0.000183888
0.0019646
0.000156489
0.00182946
0.000135146
0.00171131
0.000118152
0.00160694
0.000104372
0.00151391
9.30219e-05
0.00143037
8.35459e-05
0.00135483
7.55412e-05
0.00128612
6.8709e-05
0.0012233
6.28242e-05
0.00116559
5.77139e-05
0.00111235
5.32437e-05
0.00106304
4.93076e-05
0.00101722
4.58213e-05
0.000974505
4.27165e-05
0.000934568
3.9938e-05
0.000897129
3.74403e-05
0.000861944
3.51859e-05
0.000828801
3.31433e-05
0.000797515
3.12865e-05
0.000767922
2.95931e-05
0.000739878
2.80445e-05
0.000713253
2.66242e-05
0.000687934
2.53191e-05
0.000663817
2.41163e-05
0.00064081
2.30067e-05
0.00061883
2.198e-05
0.000597799
2.103e-05
0.000577651
2.01476e-05
0.000558321
1.93299e-05
0.000539752
1.85677e-05
0.000521891
1.78612e-05
0.00050469
1.72e-05
0.000488101
1.65884e-05
0.000472087
1.60132e-05
0.000456603
1.54838e-05
0.00044162
1.49825e-05
0.000427094
1.45255e-05
0.000413005
1.40883e-05
0.000399309
1.3696e-05
0.000385993
1.33147e-05
0.000373012
1.29815e-05
0.000360362
1.26492e-05
0.000347991
1.23708e-05
0.00033591
1.20816e-05
0.000324055
1.18551e-05
0.000312451
1.16036e-05
0.000301024
1.14272e-05
0.000289815
1.12085e-05
0.000278734
1.10814e-05
0.000267843
1.08906e-05
0.00025703
1.08129e-05
0.000246385
1.06449e-05
0.000235767
1.06177e-05
0.000225301
1.04667e-05
0.000214809
1.04917e-05
0.000204458
1.03512e-05
0.000194028
1.04306e-05
0.000183735
1.02928e-05
0.000173308
1.04283e-05
0.000163025
1.0283e-05
0.00015255
1.04754e-05
0.000142241
1.03095e-05
0.000131685
1.05563e-05
0.000121329
1.0356e-05
0.00011068
1.06487e-05
0.000100274
1.04057e-05
8.95526e-05
1.07211e-05
7.91105e-05
1.04418e-05
6.83682e-05
1.07419e-05
5.79515e-05
1.04164e-05
4.72038e-05
1.07473e-05
3.70876e-05
1.01158e-05
2.60884e-05
1.09994e-05
1.69819e-05
9.1062e-06
5.09712e-06
1.18845e-05
-1.73291e-06
6.83007e-06
-1.76885e-05
1.59565e-05
-1.65915e-05
-1.09746e-06
-3.59074e-05
1.93145e-05
-4.47625e-05
8.86039e-06
-3.71074e-05
-7.66667e-06
-7.31577e-05
3.605e-05
-5.02407e-05
-2.29117e-05
-9.77221e-05
4.74806e-05
-6.32927e-05
-3.44283e-05
-0.000123728
6.04355e-05
-0.000100927
-2.27848e-05
-0.000101525
5.80268e-07
-0.00016724
6.57289e-05
-9.40463e-05
-7.31895e-05
-0.000172024
7.79702e-05
-9.26218e-05
-7.94015e-05
-0.000235031
0.000142414
-0.000133829
-0.000101207
-0.000217837
8.39931e-05
-0.000295928
7.81194e-05
-0.000134141
-0.000161799
-0.00024546
0.000111308
-0.000291905
4.64823e-05
-0.000228058
-6.38643e-05
-0.000199609
-2.84664e-05
-0.0004119
0.000212305
-0.000212328
-0.000199569
-0.000278485
6.61377e-05
-0.000437781
0.000159315
-0.000201804
-0.000235974
-0.000146702
-5.51175e-05
-0.000270522
0.000123823
-4.51571e-05
0.0337032
0.0163453
-0.0372733
0.0277591
0.0133172
0.0222
0.00921379
0.017921
0.00605672
0.0148718
0.00402212
0.0127093
0.00278585
0.0111209
0.00203463
0.00990293
0.00155769
0.00893503
0.00123722
0.00814418
0.00101087
0.00748357
0.000844498
0.00692187
0.000718191
0.00643727
0.000619743
0.00601409
0.000541335
0.00564072
0.000477749
0.00530836
0.000425379
0.00501024
0.000381668
0.00474103
0.000344756
0.00449648
0.000313265
0.00427315
0.000286154
0.00406825
0.000262623
0.00387944
0.000242051
0.00370481
0.000223947
0.00354271
0.000207921
0.00339177
0.000193657
0.00325081
0.000180899
0.00311882
0.000169437
0.00299491
0.000159097
0.00287832
0.000149733
0.00276838
0.000141226
0.0026645
0.000133471
0.00256617
0.000126383
0.0024729
0.000119885
0.00238431
0.000113916
0.0023
0.000108419
0.00221966
0.000103348
0.00214298
9.8658e-05
0.00206969
9.43187e-05
0.00199955
9.02918e-05
0.00193232
8.65575e-05
0.0018678
8.30812e-05
0.00180581
7.98543e-05
0.00174617
7.68413e-05
0.00168871
7.4046e-05
0.00163329
7.14273e-05
0.00157977
6.90041e-05
0.00152803
6.67249e-05
0.00147793
6.46274e-05
0.00142937
6.26433e-05
0.00138223
6.08352e-05
0.00133643
5.91101e-05
0.00129185
5.75632e-05
0.00124843
5.60671e-05
0.00120604
5.476e-05
0.00116466
5.34678e-05
0.00112413
5.23842e-05
0.00108446
5.12742e-05
0.00104548
5.04029e-05
0.00100723
4.94557e-05
0.000969526
4.87888e-05
0.00093243
4.79864e-05
0.000895723
4.75199e-05
0.000859524
4.6844e-05
0.000823564
4.65769e-05
0.000788023
4.6008e-05
0.000752573
4.59419e-05
0.000717466
4.54581e-05
0.000682302
4.5595e-05
0.000647425
4.51701e-05
0.000612343
4.55105e-05
0.000577518
4.51088e-05
0.000542346
4.56483e-05
0.000507435
4.52211e-05
0.000472049
4.59433e-05
0.000436968
4.54376e-05
0.000401319
4.62981e-05
0.000366032
4.56922e-05
0.000330194
4.65595e-05
0.000294678
4.59574e-05
0.000258918
4.65014e-05
0.000223153
4.6181e-05
0.000187859
4.60409e-05
0.000152264
4.57108e-05
0.00011708
4.61825e-05
8.38478e-05
4.23385e-05
4.58067e-05
4.99251e-05
2.0909e-05
3.17276e-05
-3.08661e-05
6.77309e-05
-2.77235e-05
-4.24508e-06
-0.000100278
9.1869e-05
-0.000111725
2.03038e-05
-0.000112822
-6.54477e-06
-0.000203744
0.000126972
-0.000156577
-7.00782e-05
-0.000285449
0.000176353
-0.000197727
-0.00012215
-0.000389418
0.000252125
-0.000296517
-0.000115692
-0.000348486
5.25598e-05
-0.00049426
0.000211496
-0.000319386
-0.000248062
-0.000515077
0.000273666
-0.000316007
-0.000278471
-0.000712836
0.00053924
-0.000428246
-0.00038579
-0.000723499
0.000379252
-0.000898584
0.000253186
-0.000454473
-0.000605899
-0.000790296
0.000447142
-0.000922782
0.000178946
-0.000696797
-0.000289821
-0.000688784
-3.64894e-05
-0.001254
0.000777519
-0.00067213
-0.000781439
-0.000925276
0.000319294
-0.00134304
0.00057707
-0.000598674
-0.000980338
-0.000497054
-0.000156733
-0.000832301
0.000459068
-0.000194391
0.0414766
0.0160421
-0.0411734
0.0391825
0.0156113
0.0352473
0.013149
0.0309557
0.0103483
0.0270365
0.00794131
0.0237442
0.00607817
0.0210673
0.00471148
0.0188968
0.00372822
0.0171178
0.00301626
0.0156375
0.00249115
0.0143869
0.00209505
0.0133157
0.00178941
0.0123869
0.00154858
0.0115729
0.00135529
0.010853
0.00119765
0.0102111
0.00106727
0.00963472
0.000958093
0.00911381
0.000865671
0.00864041
0.00078667
0.00820801
0.000718554
0.00781127
0.000659365
0.00744576
0.000607572
0.00710774
0.000561962
0.0067941
0.000521565
0.00650217
0.000485595
0.00622965
0.000453415
0.00597459
0.000424497
0.00573529
0.000398407
0.00551024
0.00037478
0.00529816
0.000353311
0.00509788
0.000333743
0.00490841
0.000315855
0.00472884
0.00029946
0.00455835
0.000284398
0.00439624
0.000270528
0.00424186
0.000257734
0.00409461
0.000245904
0.00395397
0.000234957
0.00381946
0.0002248
0.00369064
0.000215379
0.00356711
0.000206613
0.00344849
0.00019847
0.00333445
0.000190874
0.00322468
0.000183816
0.00311889
0.000177216
0.0030168
0.000171093
0.00291818
0.00016535
0.00282276
0.000160042
0.00273036
0.000155045
0.00264073
0.000150459
0.00255372
0.000146119
0.00246911
0.00014218
0.00238675
0.000138423
0.00230644
0.000135075
0.00222806
0.000131839
0.00215141
0.000129039
0.00207641
0.000126272
0.00200283
0.000123986
0.00193064
0.000121644
0.00185958
0.000119849
0.00178968
0.00011789
0.00172063
0.000116569
0.00165252
0.000114955
0.00158499
0.0001141
0.00151821
0.000112788
0.00145176
0.000112395
0.00138588
0.00011134
0.00132007
0.000111406
0.00125468
0.000110554
0.00118912
0.000111071
0.00112389
0.000110345
0.00105824
0.000111295
0.000992878
0.000110587
0.000926898
0.000111924
0.000861224
0.000111112
0.000794797
0.000112725
0.000728719
0.00011177
0.000661967
0.000113311
0.000595384
0.00011254
0.000528841
0.000113044
0.000461541
0.00011348
0.000396142
0.00011144
0.000328489
0.000113363
0.000263981
0.00011069
0.000199713
0.000106606
0.000130541
0.000119097
8.12693e-05
8.09989e-05
-1.22048e-05
0.000161204
-9.50618e-06
-6.97056e-06
-0.000148275
0.000230638
-0.000157945
2.99787e-05
-0.000181735
1.72219e-05
-0.000327164
0.000272401
-0.000262073
-0.000135169
-0.0004772
0.00039148
-0.000338346
-0.000261001
-0.000678688
0.000592467
-0.000502744
-0.000291635
-0.000637795
0.000187611
-0.000847092
0.000420795
-0.000578243
-0.000516911
-0.000893909
0.000589334
-0.000573657
-0.000598722
-0.00123687
0.00120245
-0.000756384
-0.000866272
-0.00131527
0.000938135
-0.00155569
0.000493617
-0.000835909
-0.00132568
-0.001426
0.00103724
-0.00161871
0.000371663
-0.00122105
-0.000687473
-0.00127755
2.00489e-05
-0.00217328
0.00167325
-0.00117958
-0.00177514
-0.00168679
0.000826511
-0.00232162
0.0012119
-0.00101143
-0.00229053
-0.000913459
-0.000254701
-0.00144202
0.000987631
-0.000496438
0.0459401
0.0147426
-0.0446406
0.0460214
0.01553
0.0444392
0.0147312
0.0417113
0.0130762
0.0384634
0.0111892
0.0351546
0.00938702
0.0320526
0.00781344
0.029272
0.0065088
0.0268317
0.00545662
0.0247054
0.00461742
0.022852
0.00394845
0.0212295
0.00341193
0.0198006
0.00297748
0.018534
0.00262183
0.0174042
0.00232745
0.0163903
0.00208121
0.0154752
0.0018732
0.014645
0.00169587
0.0138882
0.00154344
0.0131954
0.00141142
0.0125585
0.00129627
0.0119708
0.0011952
0.0114268
0.00110596
0.0109216
0.00102676
0.0104511
0.000956118
0.0100117
0.00089282
0.00960035
0.000835868
0.00921433
0.00078443
0.0088513
0.000737807
0.0085092
0.000695411
0.00818621
0.000656741
0.00788069
0.000621374
0.0075912
0.000588942
0.00731647
0.000559135
0.00705532
0.000531678
0.00680671
0.000506341
0.0065697
0.00048291
0.00634344
0.000461218
0.00612714
0.000441092
0.00592011
0.000422415
0.00572168
0.000405038
0.00553126
0.000388885
0.00534831
0.000373823
0.00517231
0.000359815
0.00500281
0.000346723
0.00483934
0.000334558
0.00468152
0.000323164
0.00452896
0.000312607
0.00438131
0.000302692
0.00423821
0.000293554
0.00409939
0.000284942
0.00396449
0.000277074
0.0038333
0.00026962
0.00370546
0.000262908
0.00358081
0.000256492
0.00345901
0.000250844
0.00333991
0.000245368
0.00322318
0.000240715
0.00310873
0.000236093
0.0029962
0.000232384
0.00288555
0.00022854
0.00277638
0.000225737
0.00266873
0.000222601
0.00256215
0.000220678
0.00245677
0.000218176
0.00235204
0.000217119
0.00224821
0.000215173
0.00214465
0.000214968
0.00204172
0.000213481
0.00193869
0.000214105
0.00183609
0.000212943
0.00173303
0.000214352
0.0016303
0.000213321
0.0015268
0.000215424
0.00142362
0.0002143
0.00131946
0.000216878
0.00121564
0.000215595
0.00111097
0.000217976
0.00100631
0.000217203
0.000901939
0.000217414
0.000796005
0.000219413
0.00069348
0.000213965
0.00058653
0.000220312
0.000485849
0.00021137
0.00038314
0.000209315
0.000276203
0.000226033
0.000195268
0.000161934
5.32017e-05
0.000303268
4.70375e-05
-7.75285e-07
-0.000166544
0.00044422
-0.000172643
3.60683e-05
-0.000233314
7.79088e-05
-0.000435311
0.000474398
-0.00035726
-0.00021322
-0.000667198
0.000701419
-0.000477528
-0.000450668
-0.000983816
0.00109876
-0.000717272
-0.000558175
-0.000964846
0.00043519
-0.00122524
0.000681191
-0.000867305
-0.000874848
-0.00131076
0.00103279
-0.000861107
-0.00104837
-0.00180784
0.00214919
-0.00111455
-0.00155957
-0.00199087
0.00181446
-0.00226732
0.000770061
-0.00128233
-0.00231067
-0.00215679
0.00191171
-0.00237269
0.000587553
-0.00180992
-0.00125022
-0.00196652
0.000176628
-0.00316734
0.00287406
-0.00173175
-0.00321073
-0.00256036
0.00165512
-0.00336214
0.00201369
-0.00143875
-0.00421391
-0.00139426
-0.000299189
-0.00208452
0.00167789
-0.00101835
0.0494069
0.0135483
-0.0482126
0.0503699
0.014567
0.0503864
0.0147147
0.0493618
0.0141007
0.047514
0.013037
0.0451359
0.0117651
0.0424994
0.01045
0.0398112
0.00919701
0.0372062
0.0080616
0.034759
0.00706463
0.0325017
0.00620569
0.0304404
0.00547327
0.0285665
0.00485137
0.026865
0.0043233
0.0253188
0.00387364
0.023911
0.00348908
0.0226257
0.00315844
0.021449
0.00287257
0.0203685
0.00262401
0.0193732
0.00240668
0.0184539
0.00221564
0.0176022
0.00204685
0.0168112
0.00189702
0.0160745
0.0017634
0.0153869
0.00164374
0.0147436
0.00153617
0.0141403
0.00143909
0.0135736
0.00135119
0.01304
0.00127134
0.0125369
0.00119859
0.0120615
0.00113213
0.0116116
0.00107125
0.0111852
0.00101535
0.0107804
0.000963922
0.0103956
0.000916496
0.0100292
0.000872691
0.00967999
0.000832151
0.00934662
0.000794589
0.00902799
0.000759719
0.00872307
0.000727333
0.00843092
0.000697191
0.00815065
0.000669151
0.00788148
0.000642997
0.00762264
0.000618651
0.00737346
0.000595899
0.00713328
0.000574733
0.00690153
0.000554916
0.00667762
0.000536519
0.00646104
0.000519263
0.00625128
0.000503312
0.00604791
0.000488312
0.00585044
0.000474548
0.0056585
0.000461558
0.00547163
0.000449778
0.00528953
0.000438593
0.00511174
0.000428637
0.00493802
0.000419089
0.0047679
0.000410833
0.00460121
0.00040278
0.00443747
0.000396129
0.00427656
0.000389444
0.00411797
0.000384327
0.00396167
0.000378897
0.00380709
0.000375264
0.00365429
0.000370971
0.00350262
0.000368788
0.00335229
0.000365507
0.00320252
0.000364743
0.00305367
0.000362325
0.00290485
0.000362932
0.00275663
0.000361164
0.00260792
0.000363064
0.00245961
0.000361632
0.00231036
0.000364667
0.00216146
0.000363207
0.00201132
0.000367016
0.0018615
0.000365416
0.0017106
0.000368876
0.00155953
0.000368274
0.00140893
0.000368009
0.00125593
0.000372414
0.00110786
0.000362037
0.000953009
0.000375157
0.000807845
0.000356533
0.000657912
0.000359247
0.000505088
0.000378857
0.000383808
0.000283215
0.000184965
0.000502109
0.000161755
2.24354e-05
-0.000138814
0.00074479
-0.000139576
3.68377e-05
-0.000254741
0.000193072
-0.000514724
0.000734381
-0.000431162
-0.000296782
-0.000844667
0.00111492
-0.00060589
-0.000689442
-0.00129517
0.00178803
-0.000933085
-0.000920258
-0.0013246
0.000826712
-0.00162235
0.000978935
-0.00118484
-0.00131236
-0.00176206
0.00161002
-0.00117496
-0.00163547
-0.00242065
0.00339487
-0.00149849
-0.00248173
-0.0027467
0.00306268
-0.00302768
0.00105104
-0.00179933
-0.00353902
-0.00298043
0.00309283
-0.00317928
0.000786401
-0.00246908
-0.00196042
-0.00275591
0.000463483
-0.00422678
0.00434492
-0.00232671
-0.0051108
-0.0035386
0.00286702
-0.00444561
0.0029207
-0.00187717
-0.00678236
-0.00193403
-0.000242321
-0.002734
0.00247786
-0.00184254
0.0528659
0.0126503
-0.0519679
0.0538939
0.013539
0.0545768
0.0140317
0.0546444
0.0140332
0.0540438
0.0136376
0.0528446
0.0129644
0.051176
0.0121185
0.0491847
0.0111883
0.0470054
0.0102409
0.0447488
0.00932121
0.0424973
0.00845721
0.0403069
0.00766363
0.0382123
0.00694595
0.036232
0.0063036
0.0343734
0.0057323
0.0326365
0.00522592
0.0310174
0.00477758
0.0295095
0.00438048
0.0281053
0.00402822
0.0267969
0.00371506
0.0255766
0.00343591
0.0244371
0.00318636
0.0233715
0.00296261
0.0223736
0.00276136
0.0214375
0.00257981
0.0205581
0.00241554
0.0197307
0.0022665
0.018951
0.00213089
0.0182152
0.00200719
0.0175197
0.00189407
0.0168614
0.00179039
0.0162375
0.00169515
0.0156454
0.00160748
0.0150827
0.00152663
0.0145473
0.00145192
0.0140372
0.00138279
0.0135506
0.00131871
0.0130859
0.00125925
0.0126417
0.00120398
0.0122164
0.00115258
0.0118089
0.00110469
0.011418
0.00106008
0.0110426
0.00101845
0.0106816
0.000979644
0.0103341
0.000943361
0.00999927
0.000909561
0.00967628
0.000877911
0.00936432
0.000848479
0.0090627
0.000820879
0.0087707
0.000795307
0.00848773
0.000771285
0.00821311
0.000749168
0.00794633
0.000728336
0.00768676
0.000709351
0.00743395
0.000691394
0.0071873
0.000675287
0.00694645
0.000659942
0.00671077
0.000646511
0.00647999
0.000633558
0.00625347
0.00062265
0.00603102
0.000611897
0.00581195
0.000603394
0.00559618
0.000594666
0.00538296
0.000588484
0.00517232
0.000581608
0.00496343
0.000577686
0.00475646
0.000572478
0.00455044
0.000570757
0.00434577
0.000566999
0.0041413
0.000567403
0.00393768
0.00056478
0.00373357
0.000567181
0.00352997
0.000565226
0.00332526
0.00056938
0.00312093
0.000567544
0.00291504
0.000572902
0.00270946
0.000571001
0.00250247
0.000575865
0.00229512
0.000575617
0.00208834
0.000574791
0.00187827
0.000582487
0.00167461
0.000565692
0.00146167
0.000588094
0.00126206
0.000556149
0.00105448
0.000566823
0.000845999
0.000587338
0.000673931
0.000455284
0.000408678
0.000767359
0.000358809
7.23113e-05
-4.50865e-05
0.00114869
-3.39925e-05
2.57271e-05
-0.000228834
0.00038792
-0.000546767
0.00105231
-0.000469095
-0.000374455
-0.000994253
0.00164008
-0.00071043
-0.000973262
-0.00159893
0.00267654
-0.00113917
-0.00138002
-0.00170805
0.0013956
-0.00202834
0.00129922
-0.00152751
-0.00181318
-0.00224063
0.00232314
-0.00151024
-0.00236586
-0.00306639
0.00495102
-0.00190132
-0.00364681
-0.00357379
0.00473516
-0.0038276
0.00130484
-0.0023911
-0.00497552
-0.00388956
0.00459131
-0.00403198
0.00092881
-0.00320175
-0.00279064
-0.00364144
0.00090319
-0.0053381
0.00604157
-0.00296051
-0.0074884
-0.00460532
0.00451183
-0.00554711
0.0038625
-0.00232123
-0.0100082
-0.00251948
-4.40715e-05
-0.00335345
0.00331183
-0.00306787
0.056587
0.0119634
-0.0559001
0.0574402
0.0126857
0.0582363
0.0132357
0.0587622
0.0135073
0.0588957
0.013504
0.0585911
0.0132691
0.0578576
0.012852
0.0567431
0.0123028
0.0553162
0.0116678
0.0536524
0.010985
0.0518251
0.0102845
0.0498998
0.00958896
0.047931
0.00891466
0.045962
0.00827262
0.0440248
0.00766957
0.0421417
0.00710894
0.0403277
0.00659168
0.0385912
0.00611698
0.0369364
0.00568293
0.0353646
0.00528691
0.0338745
0.004926
0.0324637
0.00459717
0.0311289
0.00429747
0.0298661
0.00402409
0.0286715
0.00377444
0.0275409
0.00354616
0.0264703
0.0033371
0.0254558
0.00314534
0.0244939
0.00296917
0.0235809
0.00280705
0.0227136
0.00265762
0.0218891
0.00251968
0.0211045
0.00239214
0.020357
0.00227405
0.0196444
0.00216456
0.0189643
0.00206292
0.0183145
0.00196844
0.0176932
0.00188053
0.0170986
0.00179863
0.0165289
0.0017223
0.0159825
0.00165105
0.015458
0.00158456
0.0149541
0.0015224
0.0144693
0.00146437
0.0140027
0.00141004
0.0135529
0.00135934
0.013119
0.00131183
0.0126999
0.00126757
0.0122947
0.00122604
0.0119025
0.00118748
0.0115226
0.00115126
0.0111539
0.00111781
0.0107959
0.00108634
0.0104477
0.00105754
0.0101087
0.00103036
0.0097782
0.00100583
0.00945558
0.00098256
0.00914008
0.000962009
0.00883131
0.00094233
0.00852844
0.000925524
0.00823117
0.000909162
0.00793864
0.000895924
0.00765068
0.000882629
0.00736633
0.00087283
0.00708558
0.000862359
0.00680736
0.000855904
0.00653184
0.000848002
0.0062578
0.0008448
0.00598564
0.000839161
0.00571394
0.000839097
0.00544344
0.000835282
0.00517246
0.000838166
0.00490217
0.000835518
0.00463055
0.000841
0.00435936
0.00083873
0.00408624
0.000846029
0.00381339
0.000843849
0.0035387
0.000850557
0.00326344
0.000850873
0.00298869
0.000849537
0.00270972
0.000861458
0.00243857
0.000836843
0.00215548
0.000871188
0.00188949
0.000822138
0.0016119
0.000844406
0.00133604
0.000863205
0.00110064
0.000690679
0.000757603
0.00111039
0.0006687
0.000161216
0.000157538
0.00165985
0.000149981
3.32905e-05
-0.000133486
0.000671389
-0.000506267
0.0014251
-0.000451496
-0.000429227
-0.00109489
0.00228348
-0.000773375
-0.00129478
-0.00187593
0.0037791
-0.00131942
-0.00193653
-0.00210047
0.00217666
-0.00242869
0.00162744
-0.00188909
-0.00235278
-0.0027351
0.00316916
-0.00185988
-0.00324108
-0.0037323
0.00682343
-0.00231262
-0.00506649
-0.0044563
0.00687885
-0.00465384
0.00150237
-0.00305865
-0.0065707
-0.00487116
0.00640383
-0.0049232
0.000980842
-0.00400715
-0.00370668
-0.0046125
0.00150856
-0.00648431
0.00791337
-0.00362608
-0.0103466
-0.00573332
0.00661908
-0.00663577
0.00476494
-0.00276192
-0.0138821
-0.00312623
0.000320248
-0.00389355
0.00407915
-0.00481057
0.0605932
0.0114003
-0.0600301
0.0612774
0.0120015
0.0619917
0.0125214
0.0626132
0.0128858
0.0630444
0.0130728
0.0632213
0.0130922
0.0631083
0.0129651
0.0626948
0.0127163
0.0619912
0.0123714
0.061022
0.0119542
0.0598218
0.0114847
0.0584303
0.0109805
0.0568887
0.0104563
0.0552371
0.00992417
0.0535126
0.00939413
0.0517475
0.00887406
0.0499691
0.00837001
0.0481997
0.0078864
0.0464565
0.0074262
0.0447522
0.00699117
0.0430961
0.00658209
0.0414943
0.00619894
0.0399506
0.00584117
0.0384669
0.0055078
0.0370437
0.00519765
0.0356806
0.00490934
0.0343762
0.00464147
0.0331289
0.00439261
0.0319367
0.00416138
0.0307973
0.00394647
0.0297083
0.00374661
0.0286674
0.00356064
0.027672
0.00338748
0.0267199
0.00322613
0.0258088
0.00307568
0.0249364
0.00293529
0.0241007
0.00280419
0.0232995
0.0026817
0.022531
0.00256714
0.0217933
0.00246
0.0210847
0.00235968
0.0204034
0.00226579
0.019748
0.00217779
0.019117
0.00209542
0.0185089
0.00201815
0.0179224
0.00194587
0.0173562
0.00187801
0.0168091
0.00181465
0.01628
0.00175514
0.0157677
0.00169974
0.0152713
0.00164766
0.0147897
0.00159944
0.014322
0.00155406
0.0138671
0.00151238
0.0134244
0.00147308
0.0129928
0.00143744
0.0125717
0.0014037
0.01216
0.0013737
0.0117572
0.00134509
0.0113623
0.00132041
0.0109749
0.00129656
0.0105939
0.00127694
0.010219
0.00125752
0.00984906
0.00124279
0.00948395
0.00122747
0.00912236
0.0012175
0.00876443
0.00120594
0.00840864
0.00120059
0.00805542
0.00119238
0.00770302
0.0011915
0.00735224
0.00118606
0.00700102
0.00118939
0.00665072
0.00118582
0.00629884
0.00119288
0.00594746
0.00119011
0.00559365
0.00119984
0.00524008
0.00119743
0.00488407
0.00120656
0.00452724
0.0012077
0.00417068
0.00120609
0.00380889
0.00122324
0.00345617
0.00118957
0.00308869
0.00123867
0.00274214
0.00116868
0.00237992
0.00120662
0.00202264
0.00122048
0.00170892
0.00100441
0.00127465
0.00154465
0.00113129
0.000304587
0.000501691
0.00228944
0.000459573
7.53969e-05
6.72476e-05
0.00106372
-0.000359043
0.00185139
-0.000352722
-0.00043555
-0.00111816
0.00304892
-0.000770838
-0.0016421
-0.00210018
0.00510844
-0.00145094
-0.00258578
-0.00247951
0.00320525
-0.0028029
0.00195083
-0.00225866
-0.00289702
-0.00322886
0.00413936
-0.0022141
-0.00425584
-0.00440094
0.00901027
-0.00271767
-0.00674977
-0.00536976
0.00953096
-0.00548756
0.00162016
-0.0037974
-0.00826085
-0.00590583
0.00851228
-0.00584396
0.000918981
-0.0048781
-0.00467253
-0.00565059
0.00228107
-0.00764401
0.00990677
-0.00431159
-0.013679
-0.00688239
0.0091899
-0.00767408
0.00555663
-0.00318422
-0.018372
-0.00371538
0.000851423
-0.00429052
0.00465429
-0.00720505
0.0648784
0.0109157
-0.0643939
0.0654437
0.0114362
0.0660511
0.011914
0.0666355
0.0123014
0.0671342
0.0125741
0.0674988
0.0127276
0.0676937
0.0127701
0.0676952
0.0127148
0.0674898
0.0125767
0.0670737
0.0123704
0.0664502
0.0121081
0.0656301
0.0118007
0.064629
0.0114573
0.063467
0.0110862
0.0621666
0.0106945
0.0607521
0.0102886
0.0592477
0.00987436
0.057677
0.00945711
0.0560617
0.00904152
0.0544213
0.00863163
0.0527725
0.00823081
0.0511297
0.00784176
0.0495044
0.00746651
0.0479057
0.00710649
0.0463407
0.00676263
0.0448147
0.00643539
0.0433313
0.00612488
0.0418929
0.00583096
0.0405011
0.00555324
0.0391563
0.00529121
0.0378587
0.00504424
0.0366077
0.00481167
0.0354024
0.00459276
0.0342417
0.0043868
0.0331244
0.00419306
0.0320488
0.00401086
0.0310135
0.00383948
0.0300169
0.00367833
0.0290573
0.00352674
0.0281331
0.0033842
0.0272427
0.00325009
0.0263844
0.00312401
0.0255569
0.00300536
0.0247584
0.00289388
0.0239876
0.00278896
0.023243
0.00269048
0.0225232
0.00259778
0.0218269
0.00251095
0.0211528
0.00242921
0.0204997
0.0023529
0.0198663
0.00228104
0.0192514
0.00221431
0.018654
0.00215143
0.0180729
0.00209349
0.0175072
0.00203882
0.0169556
0.00198904
0.0164173
0.00194195
0.0158912
0.00189983
0.0153765
0.00185976
0.0148721
0.00182489
0.0143772
0.00179138
0.0138907
0.00176345
0.0134122
0.00173607
0.0129401
0.00171485
0.0124744
0.00169319
0.0120134
0.00167851
0.0115572
0.00166214
0.0111039
0.00165384
0.0106541
0.00164223
0.0102055
0.00164012
0.00975902
0.00163252
0.00931215
0.00163626
0.00886647
0.0016315
0.0084189
0.00164046
0.00797189
0.00163712
0.00752182
0.0016499
0.00707189
0.00164736
0.00661874
0.00165971
0.00616441
0.00166203
0.00570989
0.0016606
0.005249
0.00168413
0.00479819
0.00164038
0.0043296
0.00170726
0.00388573
0.00161256
0.00342163
0.00167072
0.00296625
0.00167586
0.00255631
0.00141434
0.0020149
0.00208607
0.00179819
0.000521295
0.00103399
0.00305365
0.000943802
0.00016559
0.000442111
0.00156542
-5.25034e-05
0.002346
-0.00014097
-0.00034708
-0.00102607
0.00393403
-0.000671161
-0.00199701
-0.00223713
0.00667441
-0.00150205
-0.00332086
-0.00281305
0.00451627
-0.00312239
0.00226016
-0.00261827
-0.00340114
-0.00369848
0.00521958
-0.0025594
-0.00539493
-0.00504928
0.0115001
-0.0030966
-0.00870246
-0.00627964
0.012714
-0.00630218
0.00164269
-0.00459379
-0.00996923
-0.00696694
0.0108854
-0.00678288
0.000734803
-0.005798
-0.0056574
-0.00672767
0.00321076
-0.00879
0.0119691
-0.0049983
-0.0174707
-0.00799765
0.0121893
-0.00861646
0.00617544
-0.00356314
-0.0234253
-0.00422973
0.00151803
-0.00446439
0.00488894
-0.0104039
0.0694514
0.0104882
-0.0690239
0.0699349
0.0109528
0.0704552
0.0113936
0.0709767
0.0117799
0.0714598
0.012091
0.0718706
0.0123169
0.0721831
0.0124576
0.072378
0.0125199
0.0724411
0.0125136
0.0723625
0.012449
0.0721351
0.0123355
0.0717552
0.0121805
0.0712221
0.0119904
0.0705383
0.0117701
0.0697091
0.0115237
0.0687429
0.0112547
0.0676511
0.0109662
0.0664469
0.0106613
0.0651454
0.010343
0.0637624
0.0100147
0.0623139
0.0096793
0.0608156
0.00934008
0.0592822
0.00899992
0.0577272
0.0086615
0.0561626
0.00832721
0.0545989
0.00799908
0.053045
0.0076788
0.0515083
0.00736769
0.0499947
0.00706677
0.0485092
0.00677676
0.0470553
0.00649813
0.0456358
0.00623113
0.0442527
0.00597584
0.0429073
0.00573223
0.0416003
0.0055001
0.0403319
0.00527924
0.0391021
0.0050693
0.0379104
0.00486998
0.0367563
0.00468085
0.0356389
0.0045016
0.0345573
0.00433172
0.0335103
0.00417097
0.0324969
0.00401877
0.0315158
0.00387497
0.0305658
0.00373893
0.0296457
0.00361065
0.0287541
0.00348939
0.0278897
0.00337533
0.0270513
0.00326757
0.0262376
0.0031666
0.0254474
0.00307124
0.0246794
0.00298236
0.0239324
0.00289842
0.0232051
0.00282079
0.0224965
0.00274744
0.0218051
0.00268037
0.0211302
0.00261687
0.0204702
0.00255979
0.0198245
0.00250553
0.0191914
0.00245798
0.0185704
0.00241241
0.0179598
0.00237404
0.0173592
0.00233666
0.0167668
0.00230722
0.0161825
0.00227753
0.0156041
0.00225684
0.0150319
0.00223433
0.0144636
0.0022222
0.0138996
0.00220624
0.0133373
0.00220245
0.0127777
0.00219209
0.0122177
0.00219623
0.0116592
0.00219002
0.0110984
0.0022013
0.0105381
0.00219739
0.00997394
0.00221405
0.00940972
0.00221159
0.00884124
0.00222819
0.00827106
0.00223222
0.00769991
0.00223175
0.00712102
0.00226302
0.00655291
0.00220848
0.00596373
0.00229645
0.00540285
0.00217343
0.00481666
0.00225691
0.00424342
0.0022491
0.0037161
0.00194166
0.00304868
0.00275349
0.00273589
0.000834091
0.00181987
0.00396966
0.00166141
0.000324044
0.00102102
0.00220581
0.000414141
0.00295288
0.000255335
-0.000188287
-0.000767802
0.00495717
-0.000433172
-0.00233164
-0.00224144
0.00848268
-0.00142958
-0.00413272
-0.00305678
0.00614348
-0.00334752
0.0025509
-0.00293963
-0.00380903
-0.0041114
0.00639136
-0.00287691
-0.00662941
-0.00564715
0.0142704
-0.00342347
-0.0109261
-0.00713979
0.0164304
-0.00706043
0.00156331
-0.00542106
-0.0116086
-0.00801898
0.0134834
-0.00772398
0.00043985
-0.00673716
-0.00664421
-0.00780445
0.00427807
-0.00988642
0.014051
-0.00565774
-0.0216994
-0.00900838
0.0155399
-0.0094068
0.00657385
-0.00385835
-0.0289737
-0.00458985
0.00224954
-0.00431668
0.00461577
-0.0145696
0.0743318
0.0101051
-0.0739487
0.0747561
0.0105285
0.0752106
0.0109391
0.0756745
0.0113159
0.076122
0.0116435
0.0765286
0.0119103
0.0768743
0.0121118
0.0771447
0.0122495
0.0773294
0.012329
0.077421
0.0123575
0.0774137
0.0123428
0.0773023
0.0122919
0.0770827
0.0122101
0.0767507
0.012102
0.0763034
0.011971
0.0757388
0.0118193
0.0750567
0.0116483
0.0742587
0.0114592
0.0733489
0.0112529
0.0723332
0.0110304
0.0712195
0.010793
0.0700175
0.0105422
0.0687376
0.0102798
0.0673914
0.0100077
0.0659904
0.00972823
0.064546
0.00944341
0.0630694
0.00915541
0.0615708
0.00886629
0.0600597
0.00857795
0.0585443
0.0082921
0.0570322
0.00801021
0.0555298
0.00773358
0.0540424
0.00746325
0.0525745
0.00720008
0.0511299
0.00694471
0.0497115
0.00669768
0.0483215
0.00645929
0.0469616
0.00622982
0.0456332
0.00600932
0.0443368
0.00579793
0.0430731
0.00559549
0.041842
0.00540207
0.0406434
0.00521733
0.039477
0.00504139
0.0383422
0.00487371
0.0372383
0.00471452
0.0361646
0.00456308
0.0351201
0.00441983
0.0341039
0.00428377
0.0331149
0.00415564
0.032152
0.00403409
0.0312141
0.00392028
0.0303001
0.00381241
0.0294087
0.00371223
0.0285388
0.00361728
0.0276891
0.00353009
0.0268586
0.00344738
0.0260457
0.00337268
0.0252497
0.00330159
0.0244687
0.00323894
0.0237022
0.00317893
0.0229482
0.00312801
0.0222063
0.00307855
0.0214744
0.00303914
0.0207523
0.00299969
0.0200374
0.00297165
0.0193301
0.00294164
0.0186275
0.0029248
0.0179303
0.00290352
0.017235
0.00289766
0.0165432
0.00288397
0.0158508
0.00288864
0.01516
0.00288076
0.0144663
0.002895
0.0137731
0.00289065
0.0130748
0.00291228
0.0123761
0.00291032
0.0116717
0.00293258
0.0109648
0.00293913
0.0102557
0.0029408
0.0095372
0.00298155
0.00882973
0.00291596
0.00809742
0.00302875
0.00739671
0.00287414
0.0066649
0.00298872
0.00595063
0.00296337
0.00528108
0.00261121
0.00446537
0.00356919
0.00402941
0.00127005
0.00294205
0.00505703
0.00268925
0.000576841
0.00188242
0.00301265
0.0011505
0.0036848
0.000899264
6.29652e-05
-0.000272463
0.00612889
-1.07566e-05
-0.00259334
-0.00205422
0.0105261
-0.00117531
-0.00501163
-0.00315148
0.00811967
-0.0034237
0.00282311
-0.00318
-0.00405273
-0.00442248
0.00763384
-0.00313949
-0.00791241
-0.00615485
0.0172857
-0.0036648
-0.0134162
-0.00789107