/*--------------------------------*- C++ -*----------------------------------*\
| =========                 |                                                 |
| \\      /  F ield         | OpenFOAM: The Open Source CFD Toolbox           |
|  \\    /   O peration     | Version:  2412                                  |
|   \\  /    A nd           | Website:  www.openfoam.com                      |
|    \\/     M anipulation  |                                                 |
\*---------------------------------------------------------------------------*/
FoamFile
{
    version     2.0;
    format      ascii;
    arch        "LSB;label=32;scalar=64";
    class       volVectorField;
    location    "1.185";
    object      U;
}
// * * * * * * * * * * * * * * * * * * * * * * * * * * * * * * * * * * * * * //

dimensions      [0 1 -1 0 0 0 0];

internalField   nonuniform List<vector> 
12600
(
(18.7393 1.25587e-21 2.09578)
(11.6206 1.61119e-20 0.451315)
(7.35163 1.8937e-20 -0.477865)
(5.08984 0 -0.709295)
(3.97687 1.71127e-20 -0.682386)
(3.33611 1.59348e-20 -0.607669)
(2.8948 0 -0.539972)
(2.56349 0 -0.4845)
(2.30379 -4.78873e-20 -0.439019)
(2.09357 0 -0.401257)
(1.91912 2.00814e-20 -0.369368)
(1.7715 1.83855e-20 -0.342021)
(1.64461 -1.6841e-20 -0.31827)
(1.53411 0 -0.297415)
(1.43682 -1.41114e-20 -0.278934)
(1.35034 0 -0.262422)
(1.27286 4.74033e-20 -0.247565)
(1.20293 0 -0.234112)
(1.13943 -1.98327e-20 -0.221862)
(1.08146 -1.81349e-20 -0.210651)
(1.02826 1.65511e-20 -0.200345)
(0.979227 5.40783e-24 -0.190832)
(0.933857 0 -0.182018)
(0.891723 -2.49496e-20 -0.173823)
(0.852465 0 -0.166181)
(0.815775 0 -0.159034)
(0.78139 -1.84774e-20 -0.152332)
(0.749083 0 -0.146032)
(0.718656 4.07932e-24 -0.140096)
(0.689935 1.33323e-20 -0.134491)
(0.662769 1.18621e-20 -0.129189)
(0.637024 1.05004e-20 -0.124163)
(0.612582 -9.23961e-21 -0.119391)
(0.589335 -1.61452e-20 -0.114852)
(0.56719 -1.3986e-20 -0.110528)
(0.546062 1.19787e-20 -0.106403)
(0.525874 0 -0.102461)
(0.506556 -8.44071e-21 -0.09869)
(0.488048 0 -0.0950772)
(0.47029 5.41944e-21 -0.0916112)
(0.453232 0 -0.0882826)
(0.436824 1.75256e-23 -0.0850812)
(0.421026 0 -0.0819996)
(0.405793 1.59514e-23 -0.0790287)
(0.391094 -5.2636e-22 -0.0761627)
(0.376887 2.2466e-21 -0.0733932)
(0.36315 -3.84495e-21 -0.0707159)
(0.349842 0 -0.0681228)
(0.336948 0 -0.0656114)
(0.324427 -7.78866e-21 -0.063173)
(0.312275 -1.77277e-20 -0.0608072)
(0.300444 -1.96638e-20 -0.0585046)
(0.288944 1.94458e-23 -0.0562671)
(0.277719 -2.29363e-20 -0.0540836)
(0.266792 0 -0.0519589)
(0.256097 2.55539e-20 -0.0498796)
(0.245674 2.66244e-20 -0.0478542)
(0.23544 2.75384e-20 -0.0458658)
(0.225461 0 -0.0439276)
(0.215628 0 -0.0420181)
(0.206037 0 -0.0401566)
(0.19655 -6.01154e-20 -0.0383154)
(0.187302 0 -0.0365214)
(0.178112 0 -0.0347388)
(0.169167 1.23522e-19 -0.0330042)
(0.16023 0 -0.0312717)
(0.151553 0 -0.0295899)
(0.142833 0 -0.0279002)
(0.134397 -1.23612e-19 -0.0262658)
(0.125863 1.22991e-19 -0.0246128)
(0.117648 1.22191e-19 -0.0230219)
(0.10928 2.33701e-23 -0.0214015)
(0.101277 -1.19971e-19 -0.0198518)
(0.0930676 0 -0.0182626)
(0.0852768 1.17064e-19 -0.0167542)
(0.0772337 0 -0.0151973)
(0.0696797 0 -0.0137346)
(0.061803 0 -0.0122099)
(0.054582 2.85148e-23 -0.0108114)
(0.046771 2.14789e-19 -0.00929938)
(0.0402121 2.10396e-19 -0.00802789)
(0.0320344 -2.05513e-19 -0.00644555)
(0.0269613 -2.00931e-19 -0.00545875)
(0.0175243 0 -0.00363548)
(0.0149523 0 -0.00312657)
(0.00401761 3.70205e-19 -0.00101928)
(0.00275188 -7.22088e-19 -0.000766177)
(-0.00537903 6.98072e-19 0.000814664)
(-0.0152557 3.3839e-19 0.00263297)
(-0.00111678 0 6.15025e-05)
(-0.0444467 -6.23371e-19 0.008315)
(0.00354103 3.12474e-19 -0.000915209)
(-0.0520594 -2.86988e-19 0.00987243)
(-0.0148929 5.80506e-19 0.00251127)
(-0.0460264 0 0.00879107)
(-0.0454025 0 0.00828565)
(-0.0223124 0 0.00447652)
(-0.105924 0 0.0199796)
(0.0215922 0 -0.00414795)
(-0.136686 0 0.026144)
(0.00374958 -4.48499e-19 -0.00116688)
(-0.108561 -7.62203e-19 0.0208982)
(-0.0241926 -8.15694e-19 0.00416237)
(-0.0727126 0 0.0143946)
(-0.114475 0 0.0212198)
(-0.00192699 0 0.000731114)
(-0.191866 -6.23607e-19 0.0366125)
(-0.0277326 -1.28304e-18 0.00467294)
(-0.0904665 5.75027e-19 0.0177608)
(-0.0908534 0 0.017285)
(-0.138791 -1.05127e-18 0.0262087)
(-0.0140711 0 0.00270234)
(-0.147989 -9.15688e-19 0.0285859)
(-0.122847 9.51914e-19 0.0226865)
(-0.0280874 -8.85833e-19 0.00561496)
(-0.167434 -8.2044e-19 0.0320556)
(-0.108845 8.08242e-19 0.0200925)
(-0.0134911 -1.19088e-24 0.00249933)
(-0.0859994 7.09063e-19 0.0165816)
(-0.0690429 0 0.0129839)
(29.1499 -1.26781e-21 4.02814)
(25.1066 0 1.85916)
(20.244 -1.91663e-20 -0.21356)
(16.0775 0 -1.2123)
(13.1181 -1.73401e-20 -1.50785)
(11.0754 -3.04444e-20 -1.51884)
(9.60318 -1.40911e-20 -1.44119)
(8.49117 0 -1.34357)
(7.61831 3.55881e-22 -1.24818)
(6.91176 -2.19041e-20 -1.1611)
(6.3259 2.01098e-20 -1.08302)
(5.83068 1.84602e-20 -1.0132)
(5.40551 -1.69435e-20 -0.950644)
(5.03571 1.55481e-20 -0.894366)
(4.71054 2.85826e-20 -0.843508)
(4.42191 0 -0.797338)
(4.16364 -6.45885e-23 -0.755234)
(3.93089 2.19513e-20 -0.716676)
(3.71982 2.01212e-20 -0.681226)
(3.52735 0 -0.64851)
(3.35098 0 -0.618215)
(3.18864 1.52954e-20 -0.590071)
(3.03861 0 -0.563848)
(2.89945 1.26476e-20 -0.539347)
(2.76994 -2.29305e-20 -0.516396)
(2.64906 0 -0.494846)
(2.5359 1.87279e-20 -0.474565)
(2.4297 0 -0.455439)
(2.3298 -1.51122e-20 -0.437367)
(2.2356 -2.70099e-20 -0.420259)
(2.1466 -2.40272e-20 -0.404034)
(2.06234 -1.06284e-20 -0.388623)
(1.98243 9.34958e-21 -0.37396)
(1.90651 3.26832e-20 -0.359989)
(1.83427 2.8306e-20 -0.346659)
(1.76541 0 -0.333921)
(1.69968 0 -0.321735)
(1.63685 -1.73065e-23 -0.31006)
(1.5767 0 -0.298863)
(1.51906 -5.47114e-21 -0.28811)
(1.46374 0 -0.277774)
(1.41058 -5.76344e-21 -0.267824)
(1.35944 0 -0.258239)
(1.31018 -1.39711e-21 -0.248992)
(1.26269 0 -0.240066)
(1.21684 -2.26218e-21 -0.231435)
(1.17254 0 -0.223088)
(1.12966 0 -0.214999)
(1.08816 6.60217e-21 -0.207162)
(1.04789 0 -0.19955)
(1.00885 0 -0.192163)
(0.970872 0 -0.18497)
(0.933985 2.14507e-20 -0.17798)
(0.898018 4.59586e-20 -0.171156)
(0.863031 0 -0.164516)
(0.82882 0 -0.158015)
(0.795503 -2.65999e-20 -0.151684)
(0.762824 -2.75371e-20 -0.145466)
(0.730975 0 -0.139407)
(0.699627 0 -0.133434)
(0.669067 0 -0.127615)
(0.638869 0 -0.121855)
(0.609442 -6.05654e-20 -0.116247)
(0.580232 6.10593e-20 -0.11067)
(0.551803 -1.22819e-19 -0.105248)
(0.523438 0 -0.0998269)
(0.495891 0 -0.0945705)
(0.468247 0 -0.0892827)
(0.44149 4.72864e-23 -0.0841749)
(0.414463 -1.21815e-19 -0.0790011)
(0.388427 -1.20913e-19 -0.0740296)
(0.361944 2.39507e-19 -0.0689566)
(0.336588 3.58207e-23 -0.0641145)
(0.310619 -1.16966e-19 -0.0591371)
(0.285939 -1.15398e-19 -0.054424)
(0.260498 0 -0.0495459)
(0.236556 0 -0.044974)
(0.211643 0 -0.0401965)
(0.188708 2.15178e-19 -0.0358171)
(0.164041 0 -0.0310878)
(0.143061 0 -0.027082)
(0.117386 2.01139e-19 -0.0221604)
(0.100792 1.96445e-19 -0.0190009)
(0.0714272 0 -0.0133584)
(0.0623912 0 -0.0116799)
(0.0283201 0 -0.00508182)
(0.0238751 7.02832e-19 -0.00437559)
(-0.00296516 -3.60503e-23 0.0010134)
(-0.0307317 3.28598e-19 0.0058582)
(0.00519973 -3.19997e-19 -0.000463193)
(-0.119642 6.0408e-19 0.0231488)
(0.0198197 3.02481e-19 -0.00398386)
(-0.149307 5.55053e-19 0.0294566)
(-0.0334198 0 0.00575689)
(-0.134445 0 0.0268342)
(-0.123507 0 0.0227575)
(-0.0685501 0 0.0146384)
(-0.302827 4.58604e-19 0.0574916)
(0.0607236 0 -0.0115416)
(-0.407445 0 0.0793039)
(0.0201591 -4.30019e-19 -0.00541594)
(-0.329729 3.65079e-19 0.064573)
(-0.0623958 1.56118e-18 0.010407)
(-0.22623 -6.69905e-19 0.0459961)
(-0.321666 0 0.0598407)
(-0.0188679 0 0.00519833)
(-0.568289 0 0.110109)
(-0.0709165 6.1105e-19 0.0109783)
(-0.288322 -5.47255e-19 0.0570765)
(-0.266583 0 0.0517705)
(-0.400628 1.99743e-18 0.0759421)
(-0.0495049 1.00599e-18 0.00923895)
(-0.449955 1.73719e-18 0.0887792)
(-0.339241 0 0.06259)
(-0.0980374 0 0.0196614)
(-0.499561 -7.76443e-19 0.0974704)
(-0.29945 0 0.0548007)
(-0.0431231 -7.37417e-19 0.00775724)
(-0.26161 -6.69738e-19 0.0513314)
(-0.191944 0 0.0364492)
(31.8936 0 3.89878)
(31.0792 0 2.81995)
(28.5492 -1.29869e-20 1.02388)
(25.2061 0 -0.383129)
(21.9546 0 -1.22707)
(19.1822 1.51336e-20 -1.65176)
(16.9245 1.33443e-20 -1.81997)
(15.1001 0 -1.8515)
(13.613 4.20684e-22 -1.81775)
(12.3832 2.07511e-20 -1.75521)
(11.3501 -3.78946e-20 -1.6814)
(10.4696 -1.74909e-20 -1.60467)
(9.7094 1.14551e-22 -1.529)
(9.04565 -1.4733e-20 -1.45624)
(8.46045 -1.35157e-20 -1.38719)
(7.94008 1.23438e-20 -1.32209)
(7.47388 -2.27153e-20 -1.26093)
(7.05342 -2.0802e-20 -1.20356)
(6.67197 0 -1.14975)
(6.32407 0 -1.09926)
(6.00527 1.58579e-20 -1.05184)
(5.71188 1.44624e-20 -1.00726)
(5.4408 0 -0.965284)
(5.18946 0 -0.92571)
(4.95566 2.1728e-20 -0.888345)
(4.73753 0 -0.853015)
(4.53344 -3.54848e-20 -0.819561)
(4.34202 1.5967e-20 -0.787838)
(4.16204 0 -0.757715)
(3.99246 1.27977e-20 -0.729073)
(3.83233 1.13847e-20 -0.701804)
(3.68084 0 -0.675809)
(3.53726 -8.86995e-21 -0.650999)
(3.40094 -1.54873e-20 -0.62729)
(3.2713 1.20896e-23 -0.604608)
(3.14782 0 -0.582884)
(3.03004 0 -0.562055)
(2.91753 8.09176e-21 -0.542062)
(2.80991 0 -0.522854)
(2.70683 0 -0.504377)
(2.60798 0 -0.48659)
(2.51305 0 -0.469445)
(2.42181 0 -0.45291)
(2.33397 0 -0.43694)
(2.24935 0 -0.421509)
(2.16771 2.09808e-21 -0.406575)
(2.08888 -3.60822e-21 -0.392122)
(2.01265 0 -0.378104)
(1.93891 -6.24627e-21 -0.364516)
(1.86742 0 -0.351309)
(1.79813 0 -0.338487)
(1.73081 1.85867e-20 -0.325996)
(1.66545 0 -0.313853)
(1.60177 -2.17138e-20 -0.301994)
(1.53986 2.29851e-20 -0.290453)
(1.47938 0 -0.27915)
(1.4205 2.51427e-20 -0.268141)
(1.3628 0 -0.257325)
(1.3066 0 -0.246786)
(1.25132 0 -0.236395)
(1.19746 5.57088e-20 -0.226272)
(1.14428 5.65291e-20 -0.216249)
(1.09247 2.83969e-23 -0.206492)
(1.04109 -1.15288e-19 -0.196786)
(0.991087 2.49016e-23 -0.187354)
(0.941249 0 -0.177919)
(0.892846 0 -0.168775)
(0.844319 -1.15981e-19 -0.159571)
(0.797341 3.8056e-23 -0.150685)
(0.749935 0 -0.141679)
(0.704249 0 -0.13303)
(0.657826 -1.12912e-19 -0.124197)
(0.61335 2.87946e-23 -0.115774)
(0.567842 2.68306e-23 -0.107104)
(0.524554 0 -0.0989037)
(0.479975 0 -0.0904037)
(0.437963 -2.10444e-19 -0.0824439)
(0.394311 2.06549e-19 -0.0741192)
(0.354001 0 -0.0664768)
(0.310823 0 -0.0582537)
(0.273751 0 -0.0512104)
(0.229006 0 -0.042713)
(0.199189 0 -0.0370409)
(0.148388 0 -0.0273751)
(0.131295 0 -0.0242176)
(0.0723408 0 -0.0127994)
(0.0638294 -6.60758e-19 -0.0116484)
(0.0154161 -3.19009e-19 -0.00151783)
(-0.0288229 -3.0884e-19 0.00523761)
(0.0224464 3.00695e-19 -0.00225166)
(-0.1794 -5.67433e-19 0.034463)
(0.0468172 -2.84118e-19 -0.00909126)
(-0.238525 -2.60615e-19 0.0479412)
(-0.0393286 0 0.00580428)
(-0.218798 0 0.0450374)
(-0.188243 0 0.0332097)
(-0.115801 0 0.0268593)
(-0.484991 -4.30246e-19 0.0899884)
(0.0958298 0 -0.0170272)
(-0.675823 0 0.132149)
(0.0452954 4.03198e-19 -0.0128234)
(-0.556687 0 0.110281)
(-0.0899009 -7.31595e-19 0.0127809)
(-0.388863 6.27778e-19 0.0819713)
(-0.508001 0 0.0911062)
(-0.0498285 0 0.0150925)
(-0.93767 0 0.181827)
(-0.104397 5.72097e-19 0.0121987)
(-0.504415 0 0.10203)
(-0.435419 -4.96699e-19 0.0849371)
(-0.650949 -1.43358e-22 0.120708)
(-0.093653 -9.41498e-19 0.0177839)
(-0.757983 -1.62558e-18 0.152175)
(-0.528607 0 0.0927353)
(-0.183554 7.85018e-19 0.0384547)
(-0.82725 7.26268e-19 0.162717)
(-0.465915 7.1459e-19 0.0798711)
(-0.0768307 0 0.0135941)
(-0.440104 6.26229e-19 0.0875363)
(-0.297283 0 0.0550413)
(32.4153 0 2.95657)
(32.9813 0 2.76976)
(32.4276 1.22769e-20 1.72441)
(30.7839 0 0.52228)
(28.5301 -1.23173e-20 -0.483598)
(26.1131 2.50523e-20 -1.20704)
(23.793 0 -1.67042)
(21.6859 -2.18659e-20 -1.93473)
(19.8255 2.0964e-20 -2.06401)
(18.2021 1.8958e-20 -2.10833)
(16.7883 1.7817e-20 -2.10153)
(15.5529 -1.61938e-20 -2.06489)
(14.4673 1.50749e-20 -2.0114)
(13.5073 -2.74824e-20 -1.94886)
(12.6528 0 -1.88201)
(11.8875 -2.32859e-20 -1.81372)
(11.198 0 -1.74574)
(10.5735 0 -1.67912)
(10.0051 0 -1.61448)
(9.48537 1.63791e-20 -1.55214)
(9.00813 -3.42019e-23 -1.49228)
(8.56824 -2.60181e-23 -1.43495)
(8.16133 1.2436e-20 -1.38013)
(7.78371 0 -1.32775)
(7.43221 0 -1.27774)
(7.10411 0 -1.22998)
(6.79705 3.35459e-20 -1.18438)
(6.509 -6.00764e-24 -1.14081)
(6.23815 0 -1.09916)
(5.98296 0 -1.05933)
(5.74202 0 -1.02121)
(5.51413 0 -0.984704)
(5.29819 1.67778e-20 -0.949717)
(5.09323 0 -0.916159)
(4.89839 -1.26935e-20 -0.883949)
(4.71288 0 -0.853005)
(4.536 0 -0.823257)
(4.36711 -7.67276e-21 -0.794632)
(4.20564 0 -0.767069)
(4.05106 0 -0.740503)
(3.9029 3.72521e-21 -0.714883)
(3.7607 -5.22759e-21 -0.690148)
(3.62408 0 -0.666257)
(3.49265 -1.31538e-21 -0.643151)
(3.3661 0 -0.620799)
(3.24407 -3.94475e-21 -0.599143)
(3.12633 1.88293e-23 -0.578163)
(3.01252 0 -0.557798)
(2.90251 0 -0.538041)
(2.79592 6.93342e-21 -0.518824)
(2.69269 1.57918e-20 -0.500157)
(2.59243 -3.50719e-20 -0.481961)
(2.49517 0 -0.464264)
(2.40046 -2.04494e-20 -0.446973)
(2.30845 -2.16971e-20 -0.430139)
(2.21861 -2.27469e-20 -0.413647)
(2.13122 -2.36868e-20 -0.39758)
(2.04563 0 -0.38179)
(1.96229 0 -0.366403)
(1.8804 -5.1549e-20 -0.351228)
(1.80063 -1.05065e-19 -0.336443)
(1.72193 -5.33166e-20 -0.321802)
(1.64529 3.04758e-23 -0.307549)
(1.56935 5.43409e-20 -0.293369)
(1.49546 5.46245e-20 -0.279588)
(1.42187 0 -0.265803)
(1.3504 0 -0.252441)
(1.27881 1.09299e-19 -0.238992)
(1.2095 2.17682e-19 -0.226007)
(1.13962 0 -0.212845)
(1.07226 1.07319e-19 -0.200205)
(1.00386 1.06278e-19 -0.187294)
(0.938305 1.05143e-19 -0.17498)
(0.871283 2.07541e-19 -0.162305)
(0.807478 0 -0.150313)
(0.741824 0 -0.137881)
(0.679877 1.98032e-19 -0.126234)
(0.615582 -3.88625e-19 -0.114057)
(0.556055 -1.90517e-19 -0.10285)
(0.492512 0 -0.0908444)
(0.437493 0 -0.0804426)
(0.37191 0 -0.0681206)
(0.326968 0 -0.0595755)
(0.253042 0 -0.0456819)
(0.226074 0 -0.0406916)
(0.140326 -3.18608e-19 -0.0241675)
(0.126638 4.25784e-23 -0.0224913)
(0.0535491 2.99548e-19 -0.00683846)
(-0.00579868 0 0.000916829)
(0.0537056 2.82285e-19 -0.00547636)
(-0.219677 2.66297e-19 0.042241)
(0.0864409 0 -0.0160759)
(-0.316063 -2.44505e-19 0.0650059)
(-0.0302208 -4.93776e-19 0.00302247)
(-0.296624 0 0.0631327)
(-0.23668 0 0.0402069)
(-0.162468 0 0.0408739)
(-0.648124 -4.03189e-19 0.118245)
(0.126315 0 -0.0206534)
(-0.936597 0 0.18405)
(0.0788106 3.77759e-19 -0.0225573)
(-0.786941 -3.20621e-19 0.157624)
(-0.105025 0 0.011852)
(-0.559082 0 0.121742)
(-0.66968 0 0.116447)
(-0.0956762 0 0.0299479)
(-1.29276 0 0.251256)
(-0.129991 -6.09084e-23 0.0101723)
(-0.736262 0 0.151583)
(-0.593164 4.64795e-19 0.116352)
(-0.888979 -8.74456e-19 0.162463)
(-0.146995 0 0.0285806)
(-1.06673 1.99295e-23 0.217393)
(-0.688641 0 0.115519)
(-0.285085 5.67022e-23 0.0616534)
(-1.14202 0 0.22645)
(-0.607212 -6.68117e-19 0.0977639)
(-0.114915 0 0.0203835)
(-0.617161 5.8537e-19 0.124178)
(-0.379302 0 0.0686992)
(32.5177 0 2.10416)
(33.2754 0 2.22925)
(33.622 0 1.75351)
(33.2575 0 0.958757)
(32.2343 1.16266e-20 0.116268)
(30.7598 -9.01425e-22 -0.633453)
(29.0397 0 -1.23498)
(27.2327 2.06384e-20 -1.67914)
(25.4486 0 -1.98313)
(23.7534 -3.52875e-20 -2.1752)
(22.1797 0 -2.28397)
(20.7374 1.52881e-20 -2.33345)
(19.4242 0 -2.34196)
(18.2311 2.59478e-20 -2.32274)
(17.1472 -1.18194e-20 -2.28512)
(16.1607 2.18406e-20 -2.23555)
(15.2608 -1.99952e-20 -2.17847)
(14.4375 -1.83547e-20 -2.11695)
(13.6822 0 -2.05308)
(12.987 -1.54664e-20 -1.98834)
(12.3452 -1.41313e-20 -1.92371)
(11.7512 -2.57489e-20 -1.85987)
(11.1997 -1.17429e-20 -1.79728)
(10.6864 0 -1.73624)
(10.2075 0 -1.67693)
(9.75951 0 -1.61946)
(9.33961 -1.58325e-20 -1.56389)
(8.94517 -1.42522e-20 -1.51022)
(8.5739 0 -1.45843)
(8.22377 0 -1.40849)
(7.89299 1.01663e-20 -1.36035)
(7.57995 0 -1.31395)
(7.28322 1.35981e-24 -1.26923)
(7.0015 -1.38472e-20 -1.22611)
(6.73364 1.19985e-20 -1.18454)
(6.47859 0 -1.14445)
(6.23541 0 -1.10576)
(6.00324 7.24171e-21 -1.06841)
(5.78129 0 -1.03234)
(5.56885 0 -0.997481)
(5.36528 -3.51534e-21 -0.963783)
(5.16996 4.93278e-21 -0.931179)
(4.98237 0 -0.899624)
(4.80197 1.24103e-21 -0.869053)
(4.62833 0 -0.839433)
(4.46096 1.85136e-21 -0.810692)
(4.29955 3.19757e-21 -0.782813)
(4.14361 0 -0.755719)
(3.99292 5.517e-21 -0.729407)
(3.84702 -6.5386e-21 -0.703789)
(3.70577 -2.9753e-20 -0.678883)
(3.56867 1.65207e-20 -0.654586)
(3.43574 -1.79531e-20 -0.630941)
(3.30638 2.53628e-23 -0.607822)
(3.18076 0 -0.585304)
(3.05818 2.14398e-20 -0.563231)
(2.939 2.23235e-20 -0.54172)
(2.82235 -2.30649e-20 -0.520571)
(2.70883 2.37184e-20 -0.499957)
(2.59735 4.85666e-20 -0.479619)
(2.4888 4.94712e-20 -0.4598)
(2.3818 -5.01583e-20 -0.440171)
(2.27762 5.07494e-20 -0.421058)
(2.17447 0 -0.40204)
(2.07412 0 -0.383554)
(1.97426 5.15037e-20 -0.365061)
(1.8773 0 -0.347133)
(1.78024 0 -0.329086)
(1.68627 -1.02411e-19 -0.31166)
(1.5916 0 -0.293994)
(1.50032 -1.00971e-19 -0.277027)
(1.40771 -1.99922e-19 -0.259693)
(1.3189 0 -0.243159)
(1.22817 -9.75771e-20 -0.226135)
(1.14175 0 -0.210028)
(1.05287 0 -0.193322)
(0.968922 -1.86067e-19 -0.177666)
(0.881871 1.82611e-19 -0.161299)
(0.801088 3.90606e-23 -0.146202)
(0.715108 0 -0.130092)
(0.640092 0 -0.115984)
(0.551681 0 -0.0995582)
(0.489509 -1.63097e-19 -0.0877435)
(0.390557 1.58482e-19 -0.0693946)
(0.351659 0 -0.0621779)
(0.237025 5.98117e-19 -0.040223)
(0.216795 2.91219e-19 -0.0379312)
(0.115724 -5.62165e-19 -0.0158305)
(0.0424625 -2.71976e-19 -0.00812578)
(0.102626 -5.29617e-19 -0.01075)
(-0.236101 0 0.0452628)
(0.140993 0 -0.0253316)
(-0.377651 2.29263e-19 0.0797389)
(-0.00364856 4.62922e-19 -0.00329921)
(-0.364908 -4.24842e-19 0.0806281)
(-0.265865 0 0.0427032)
(-0.206426 0 0.0564373)
(-0.788018 3.77763e-19 0.1405)
(0.152256 3.81018e-19 -0.0218722)
(-1.18385 0 0.233497)
(0.119794 -3.53781e-19 -0.0345999)
(-1.01709 3.00226e-19 0.205983)
(-0.106512 0 0.00694475)
(-0.73472 0 0.164991)
(-0.803616 0 0.134026)
(-0.156198 0 0.0505685)
(-1.62588 0 0.316071)
(-0.150593 -5.00978e-19 0.00504414)
(-0.979634 0 0.205339)
(-0.736085 0 0.144685)
(-1.11471 0 0.200098)
(-0.20903 8.23821e-19 0.0418694)
(-1.37024 7.10913e-19 0.28311)
(-0.818712 0 0.12911)
(-0.401623 -6.86387e-19 0.0898011)
(-1.43465 0 0.286303)
(-0.724095 -6.24244e-19 0.106912)
(-0.156533 0 0.0282106)
(-0.787617 -5.4705e-19 0.160063)
(-0.432147 0 0.075121)
(32.5896 -4.9889e-21 1.49015)
(33.1729 -6.19137e-21 1.62947)
(33.6994 7.35076e-21 1.43805)
(33.9249 8.28293e-21 0.976603)
(33.7322 0 0.384188)
(33.1331 -9.92723e-21 -0.232182)
(32.2013 0 -0.806683)
(31.0276 1.74416e-20 -1.30229)
(29.7006 1.66768e-20 -1.70357)
(28.2969 3.21664e-20 -2.01098)
(26.8757 -1.48005e-20 -2.23421)
(25.4794 1.38116e-20 -2.38677)
(24.1351 0 -2.4826)
(22.8584 0 -2.53433)
(21.6565 1.11431e-20 -2.5526)
(20.5313 -1.1456e-22 -2.54593)
(19.4811 1.76064e-22 -2.52099)
(18.5025 1.35898e-22 -2.48284)
(17.5908 0 -2.43533)
(16.7413 0 -2.38135)
(15.949 0 -2.32304)
(15.2091 2.41945e-20 -2.26202)
(14.5174 1.10076e-20 -2.19948)
(13.8696 0 -2.13632)
(13.2621 0 -2.07319)
(12.6915 1.64769e-20 -2.01059)
(12.1546 0 -1.94885)
(11.6486 0 -1.88824)
(11.1711 0 -1.82893)
(10.7198 0 -1.77104)
(10.2926 -6.41231e-24 -1.71464)
(9.88771 0 -1.65978)
(9.50333 -1.62574e-24 -1.60648)
(9.13799 1.3053e-20 -1.55472)
(8.79029 2.59406e-24 -1.5045)
(8.45896 0 -1.45578)
(8.14285 0 -1.40854)
(7.84089 0 -1.36273)
(7.55213 0 -1.3183)
(7.27565 0 -1.27522)
(7.01067 0 -1.23343)
(6.7564 0 -1.19287)
(6.51219 -2.86983e-21 -1.15352)
(6.27733 -1.20556e-21 -1.1153)
(6.05131 0 -1.07819)
(5.83349 1.70966e-21 -1.04212)
(5.62345 0 -1.00706)
(5.42059 0 -0.972927)
(5.22462 -1.03774e-20 -0.939736)
(5.03492 0 -0.907378)
(4.85135 1.3996e-20 -0.875883)
(4.67324 0 -0.845124)
(4.5006 3.37837e-20 -0.815164)
(4.33268 2.45803e-23 -0.785843)
(4.16968 0 -0.757265)
(4.01071 0 -0.72923)
(3.85621 0 -0.701894)
(3.70508 4.33976e-20 -0.675001)
(3.55806 -4.46246e-20 -0.648777)
(3.41376 -4.56332e-20 -0.622894)
(3.27332 -4.64839e-20 -0.597662)
(3.13495 9.43496e-20 -0.572661)
(3.00028 4.76844e-20 -0.548313)
(2.86702 0 -0.524077)
(2.73743 0 -0.500517)
(2.60855 -2.43074e-23 -0.476938)
(2.48342 0 -0.454079)
(2.35826 0 -0.431061)
(2.23707 -9.61994e-20 -0.408833)
(2.11506 0 -0.386291)
(1.9974 0 -0.364641)
(1.87811 1.87815e-19 -0.342514)
(1.76367 -9.28399e-20 -0.321407)
(1.64683 0 -0.299663)
(1.53546 0 -0.279093)
(1.42099 0 -0.257741)
(1.31277 1.74745e-19 -0.237731)
(1.20062 0 -0.216804)
(1.09634 3.36085e-19 -0.197467)
(0.985611 -1.64375e-19 -0.176896)
(0.88834 0 -0.158707)
(0.774864 0 -0.137863)
(0.693142 1.53048e-19 -0.122353)
(0.567021 -2.66331e-23 -0.0992906)
(0.513898 1.44948e-19 -0.0894064)
(0.368053 -2.80493e-19 -0.0616931)
(0.339663 2.73044e-19 -0.0586079)
(0.20703 2.63563e-19 -0.0291887)
(0.120873 2.55003e-19 -0.0225202)
(0.173662 1.13651e-23 -0.0186026)
(-0.223589 0 0.0426751)
(0.213463 -2.34311e-19 -0.0368356)
(-0.418211 0 0.0912414)
(0.0432427 0 -0.0134196)
(-0.419941 3.97997e-19 0.0969432)
(-0.272352 0 0.0402863)
(-0.244933 0 0.0732443)
(-0.899834 0 0.156194)
(0.174389 -3.56752e-19 -0.0205288)
(-1.41076 0 0.279097)
(0.167087 -3.31115e-19 -0.0485442)
(-1.24268 0 0.254528)
(-0.0933227 0 -0.00209712)
(-0.912934 0 0.211321)
(-0.906649 0 0.143563)
(-0.230291 0 0.0770848)
(-1.92853 -4.55899e-19 0.374655)
(-0.169505 -4.68462e-19 -0.00221272)
(-1.22866 4.19735e-19 0.262229)
(-0.860964 0 0.169187)
(-1.32774 0 0.234256)
(-0.27822 -1.54045e-18 0.0573267)
(-1.66213 0 0.347823)
(-0.918654 6.89177e-19 0.134065)
(-0.53082 0 0.122619)
(-1.69512 5.9309e-19 0.340102)
(-0.817948 5.83347e-19 0.108106)
(-0.199338 0 0.036858)
(-0.945512 -5.1111e-19 0.193729)
(-0.449297 0 0.0731584)
(32.6439 4.69818e-21 1.03824)
(33.0549 1.14137e-20 1.12497)
(33.5009 -6.92402e-21 1.04161)
(33.8659 -7.82607e-22 0.77787)
(34.0391 7.50002e-21 0.387202)
(33.9644 0 -0.0684444)
(33.634 0 -0.539955)
(33.0679 -1.64238e-20 -0.99159)
(32.3016 -3.05036e-20 -1.39972)
(31.3776 -7.09036e-22 -1.7513)
(30.3393 1.39354e-20 -2.04184)
(29.2275 -1.30043e-20 -2.27269)
(28.077 1.17599e-20 -2.44868)
(26.9162 0 -2.57641)
(25.7665 0 -2.66305)
(24.6436 -9.54831e-21 -2.71561)
(23.5578 3.4938e-20 -2.74049)
(22.5156 3.21534e-20 -2.74326)
(21.5205 0 -2.72862)
(20.5739 0 -2.70048)
(19.6755 0 -2.662)
(18.8243 -6.72975e-23 -2.61571)
(18.0184 -2.06773e-20 -2.56366)
(17.2557 9.39071e-21 -2.50743)
(16.5338 1.7064e-20 -2.44832)
(15.8504 -3.09797e-20 -2.38732)
(15.2031 1.39772e-20 -2.32521)
(14.5896 1.25938e-20 -2.26261)
(14.0077 1.13082e-20 -2.20001)
(13.4553 0 -2.13776)
(12.9305 -9.01774e-21 -2.07615)
(12.4314 7.9777e-21 -2.0154)
(11.9563 -7.02984e-21 -1.95567)
(11.5036 -1.22827e-20 -1.89708)
(11.0718 -2.12972e-20 -1.83971)
(10.6596 0 -1.7836)
(10.2657 0 -1.72881)
(9.88896 -6.4441e-21 -1.67534)
(9.52825 0 -1.6232)
(9.18254 4.15365e-21 -1.57237)
(8.85093 3.14218e-21 -1.52285)
(8.53251 0 -1.4746)
(8.22652 5.41698e-21 -1.4276)
(7.93212 1.1345e-21 -1.38181)
(7.6487 0 -1.33721)
(7.37548 -1.60873e-21 -1.29373)
(7.11199 -2.78751e-21 -1.25138)
(6.85748 0 -1.21006)
(6.61161 9.7339e-21 -1.16979)
(6.37361 -5.75142e-21 -1.13047)
(6.14333 -1.31119e-20 -1.09213)
(5.91992 0 -1.05463)
(5.70343 -2.48532e-23 -1.01806)
(5.4929 3.4026e-20 -0.982222)
(5.28859 0 -0.947257)
(5.08939 0 -0.912921)
(4.89585 -1.96984e-20 -0.879415)
(4.70661 -2.03915e-20 -0.846422)
(4.52257 4.1916e-20 -0.814231)
(4.34202 4.28963e-20 -0.782434)
(4.16635 4.36922e-20 -0.751424)
(3.99335 -4.43229e-20 -0.720677)
(3.82503 -8.95959e-20 -0.690724)
(3.65856 0 -0.660892)
(3.49671 0 -0.631885)
(3.33582 -9.09407e-20 -0.60284)
(3.17965 0 -0.574679)
(3.02351 0 -0.546305)
(2.87235 9.0352e-20 -0.518905)
(2.72023 0 -0.491103)
(2.57353 -8.90146e-20 -0.464399)
(2.42486 -3.23198e-23 -0.437091)
(2.28221 8.71591e-20 -0.411045)
(2.13661 0 -0.38419)
(1.99778 0 -0.35879)
(1.8551 0 -0.332397)
(1.72014 1.6389e-19 -0.307666)
(1.58029 0 -0.281782)
(1.45006 -1.57632e-19 -0.257833)
(1.31201 3.08347e-19 -0.232413)
(1.19002 0 -0.209746)
(1.04896 0 -0.184136)
(0.94516 0 -0.164475)
(0.789436 -2.63304e-23 -0.136411)
(0.71956 -1.35885e-19 -0.123382)
(0.539898 -2.62837e-19 -0.0895545)
(0.501467 -2.55908e-19 -0.0854671)
(0.333391 2.46928e-19 -0.0478023)
(0.235152 0 -0.0430933)
(0.272084 2.32567e-19 -0.0298181)
(-0.176366 0 0.0334472)
(0.307592 2.1947e-19 -0.0510824)
(-0.431835 0 0.0983985)
(0.113713 0 -0.0277257)
(-0.457225 0 0.111345)
(-0.252322 -3.71021e-19 0.0322915)
(-0.274563 -3.49192e-19 0.0908499)
(-0.978422 0 0.164246)
(0.194394 3.33956e-19 -0.0165439)
(-1.60966 -2.89108e-19 0.319225)
(0.219433 3.09817e-19 -0.0639243)
(-1.45807 -2.62865e-19 0.302164)
(-0.064841 0 -0.0154169)
(-1.09017 0 0.260121)
(-0.976064 0 0.144331)
(-0.315712 0 0.109477)
(-2.19176 4.26306e-19 0.424968)
(-0.190185 4.43168e-23 -0.0106249)
(-1.47573 -7.84869e-19 0.320793)
(-0.965628 0 0.189127)
(-1.52741 0 0.264788)
(-0.351721 7.1992e-19 0.0746057)
(-1.93575 0 0.409941)
(-0.989261 -6.44039e-19 0.130276)
(-0.668705 0 0.159594)
(-1.91311 -1.10824e-18 0.385461)
(-0.89121 0 0.101604)
(-0.239114 0 0.0457163)
(-1.08421 4.77457e-19 0.223475)
(-0.4241 0 0.0608401)
(32.6681 0 0.685187)
(32.9695 -5.25157e-21 0.728155)
(33.3064 0 0.67829)
(33.6367 -6.60406e-21 0.514845)
(33.8974 -1.34626e-20 0.252671)
(34.0376 0 -0.0764988)
(34.0288 6.71546e-21 -0.441248)
(33.8597 0 -0.815478)
(33.5307 9.01137e-22 -1.17899)
(33.0514 -2.58601e-20 -1.51731)
(32.4379 0 -1.82112)
(31.7103 0 -2.08552)
(30.8911 -1.10608e-20 -2.30893)
(30.0025 0 -2.49208)
(29.0655 0 -2.63725)
(28.0992 0 -2.74771)
(27.1196 -1.63209e-20 -2.82726)
(26.1402 -1.50357e-20 -2.87984)
(25.1716 -1.36426e-20 -2.90934)
(24.2217 0 -2.91939)
(23.2964 0 -2.91329)
(22.3996 -1.06285e-20 -2.89393)
(21.534 9.69904e-21 -2.86384)
(20.7009 -8.83222e-21 -2.82515)
(19.901 -1.60491e-20 -2.77967)
(19.1341 2.90208e-20 -2.72892)
(18.3997 -5.42562e-23 -2.67414)
(17.697 -1.18444e-20 -2.61638)
(17.025 -1.06352e-20 -2.55648)
(16.3823 0 -2.49513)
(15.7678 0 -2.4329)
(15.1802 -7.50249e-21 -2.37026)
(14.618 0 -2.30756)
(14.08 1.15505e-20 -2.24511)
(13.5649 1.00123e-20 -2.18315)
(13.0716 -8.58424e-21 -2.12185)
(12.5987 0 -2.06138)
(12.1453 6.05924e-21 -2.00183)
(11.7101 4.94062e-21 -1.9433)
(11.2923 3.68321e-24 -1.88583)
(10.8907 -5.91316e-21 -1.82949)
(10.5046 0 -1.77428)
(10.133 -2.55344e-21 -1.72023)
(9.77512 0 -1.66732)
(9.43023 0 -1.61558)
(9.09748 0 -1.56495)
(8.77635 1.3749e-23 -1.51546)
(8.46599 0 -1.46704)
(8.16602 -4.56724e-21 -1.41972)
(7.87556 1.07969e-20 -1.37339)
(7.59443 1.23214e-20 -1.32812)
(7.32164 0 -1.28375)
(7.05726 -1.48931e-20 -1.24039)
(6.80014 -3.19238e-20 -1.19784)
(6.55063 0 -1.15626)
(6.30737 0 -1.11536)
(6.07105 1.85038e-20 -1.07541)
(5.84 1.91165e-20 -1.03603)
(5.61535 -1.96755e-20 -0.997564)
(5.39499 -4.02196e-20 -0.959529)
(5.18065 0 -0.922413)
(4.96962 0 -0.885576)
(4.76436 2.84481e-23 -0.849675)
(4.56139 -4.23435e-20 -0.813885)
(4.36411 0 -0.779076)
(4.16806 4.26711e-20 -0.744192)
(3.97781 0 -0.710365)
(3.78764 0 -0.676253)
(3.60356 0 -0.643311)
(3.41838 0 -0.609856)
(3.23979 3.42714e-23 -0.577727)
(3.05883 -3.20256e-23 -0.544836)
(2.8852 -8.17038e-20 -0.513474)
(2.70797 0 -0.481099)
(2.53896 -7.94565e-20 -0.45049)
(2.36524 0 -0.418639)
(2.20085 -1.53679e-19 -0.388804)
(2.03048 1.507e-19 -0.357538)
(1.87163 -1.47707e-19 -0.328587)
(1.70343 -1.44507e-19 -0.297896)
(1.55405 0 -0.270334)
(1.38259 1.37731e-19 -0.239568)
(1.25397 0 -0.215282)
(1.06588 -1.30586e-19 -0.181884)
(0.976504 -1.27268e-19 -0.165201)
(0.760071 2.46227e-19 -0.124872)
(0.709484 0 -0.119519)
(0.501711 -4.62512e-19 -0.0726704)
(0.39199 0 -0.0707356)
(0.404149 2.1775e-19 -0.0454299)
(-0.0877916 0 0.016963)
(0.428086 2.05448e-19 -0.0686812)
(-0.411692 0 0.0999044)
(0.211605 3.79992e-19 -0.0467129)
(-0.471363 -3.487e-19 0.122915)
(-0.201443 3.47202e-19 0.0180857)
(-0.29111 3.26739e-19 0.108647)
(-1.01816 0 0.163716)
(0.215054 -6.24886e-19 -0.0100431)
(-1.77205 5.40821e-19 0.352153)
(0.275814 0 -0.0802285)
(-1.6563 2.45842e-19 0.34751)
(-0.0208936 0 -0.0330024)
(-1.26209 0 0.310566)
(-1.00957 -4.64644e-19 0.135895)
(-0.409032 0 0.147437)
(-2.4063 0 0.465122)
(-0.215641 4.09385e-19 -0.0191869)
(-1.71145 7.33663e-19 0.379154)
(-1.0492 3.54964e-19 0.2042)
(-1.71208 0 0.291727)
(-0.425474 0 0.0929451)
(-2.18432 0 0.467842)
(-1.03178 0 0.118115)
(-0.809726 5.60292e-19 0.199739)
(-2.07827 5.17611e-19 0.420068)
(-0.946804 0 0.0881663)
(-0.269533 0 0.0536579)
(-1.19656 0 0.247398)
(-0.349683 0 0.0364715)
(32.6668 4.20248e-21 0.396933)
(32.8988 0 0.412607)
(33.1545 4.91966e-21 0.371656)
(33.4192 0 0.258052)
(33.662 6.02127e-21 0.0723539)
(33.8515 0 -0.170734)
(33.9647 -6.31167e-21 -0.452073)
(33.9866 1.1574e-20 -0.753723)
(33.908 2.36293e-20 -1.06052)
(33.7243 7.28805e-22 -1.36049)
(33.4349 0 -1.64461)
(33.0434 0 -1.90667)
(32.5562 0 -2.14282)
(31.9827 0 -2.35098)
(31.3337 0 -2.53041)
(30.6213 0 -2.68137)
(29.858 1.47066e-20 -2.80487)
(29.056 -1.36275e-20 -2.90252)
(28.2269 1.28186e-20 -2.97629)
(27.3812 0 -3.0284)
(26.5281 0 -3.06118)
(25.6754 9.78623e-21 -3.07696)
(24.8296 8.95397e-21 -3.07797)
(23.9958 8.17223e-21 -3.06634)
(23.178 0 -3.044)
(22.3793 -1.36008e-20 -3.01267)
(21.6019 -2.4526e-20 -2.97391)
(20.8472 1.10301e-20 -2.92905)
(20.1162 0 -2.87927)
(19.4092 0 -2.82558)
(18.7264 0 -2.76883)
(18.0677 7.01389e-21 -2.70976)
(17.4326 0 -2.64897)
(16.8207 0 -2.587)
(16.2312 9.38003e-21 -2.52428)
(15.6634 8.06409e-21 -2.46117)
(15.1166 0 -2.39796)
(14.5899 5.68781e-21 -2.33492)
(14.0826 -9.28009e-21 -2.27223)
(13.5937 -3.67171e-21 -2.21007)
(13.1225 2.77926e-21 -2.14857)
(12.6682 0 -2.08783)
(12.2299 0 -2.02794)
(11.8068 0 -1.96893)
(11.3984 -2.26735e-22 -1.9109)
(11.0037 0 -1.85382)
(10.6223 2.44743e-21 -1.79777)
(10.2531 3.39385e-21 -1.74269)
(9.89594 0 -1.68866)
(9.54975 -5.06253e-21 -1.63558)
(9.21442 0 -1.58355)
(8.88882 0 -1.5324)
(8.57306 -1.39365e-20 -1.48231)
(8.26584 2.16878e-23 -1.43301)
(7.9676 1.58505e-20 -1.38475)
(7.67673 0 -1.33719)
(7.39411 0 -1.29065)
(7.11774 -1.79407e-20 -1.24469)
(6.84901 0 -1.19975)
(6.5854 3.77409e-20 -1.15524)
(6.32899 0 -1.11177)
(6.07654 0 -1.06856)
(5.83102 7.8816e-20 -1.02642)
(5.58826 7.94192e-20 -0.984362)
(5.35234 3.98935e-20 -0.943438)
(5.1179 0 -0.902374)
(4.89042 0 -0.862546)
(4.66307 3.98741e-20 -0.822334)
(4.44303 7.94007e-20 -0.783501)
(4.22166 0 -0.744011)
(4.00821 7.82744e-20 -0.706093)
(3.7919 -7.74788e-20 -0.667221)
(3.58436 7.65919e-20 -0.630169)
(3.37247 -7.5539e-20 -0.591858)