/*--------------------------------*- C++ -*----------------------------------*\
| =========                 |                                                 |
| \\      /  F ield         | OpenFOAM: The Open Source CFD Toolbox           |
|  \\    /   O peration     | Version:  2412                                  |
|   \\  /    A nd           | Website:  www.openfoam.com                      |
|    \\/     M anipulation  |                                                 |
\*---------------------------------------------------------------------------*/
FoamFile
{
    version     2.0;
    format      ascii;
    arch        "LSB;label=32;scalar=64";
    class       volVectorField;
    location    "0.26";
    object      ddtCorrDdt0(U);
}
// * * * * * * * * * * * * * * * * * * * * * * * * * * * * * * * * * * * * * //

dimensions      [0 1 -2 0 0 0 0];

internalField   nonuniform List<vector> 
12600
(
(-0.767618 9.27843e-20 0.105392)
(-0.279925 3.49577e-19 0.0174919)
(-0.286596 4.92501e-19 0.03701)
(-0.464701 0 0.0332688)
(-0.664566 3.22132e-19 0.0293358)
(-0.781319 1.04902e-19 0.0322487)
(-0.793959 0 0.0293607)
(-0.721675 0 0.0144672)
(-0.575879 2.20626e-18 0.00359788)
(-0.373325 0 0.00314693)
(-0.149748 -1.51734e-18 0.00887798)
(0.0509711 -1.53564e-18 0.0134157)
(0.202727 1.45356e-18 0.0135578)
(0.312302 0 0.0101165)
(0.404662 1.11534e-18 0.00497207)
(0.496154 0 -8.2728e-05)
(0.583795 -2.64539e-18 -0.00384958)
(0.65345 0 -0.00648796)
(0.691207 2.49219e-19 -0.00930245)
(0.688646 -2.65164e-19 -0.0135446)
(0.643673 7.2916e-19 -0.0196499)
(0.56005 -9.44772e-21 -0.0274039)
(0.446151 0 -0.0363805)
(0.313109 -2.64042e-18 -0.0461596)
(0.173209 0 -0.056365)
(0.0391331 0 -0.0666237)
(-0.0763187 -8.16393e-19 -0.076458)
(-0.160849 0 -0.0851761)
(-0.204075 -8.63795e-21 -0.091897)
(-0.199426 -2.68681e-18 -0.0957509)
(-0.145694 -3.74478e-18 -0.0961546)
(-0.0474627 -4.56608e-18 -0.0930334)
(0.0859707 5.06948e-18 -0.086897)
(0.24261 1.0416e-17 -0.0786866)
(0.4097 9.94397e-18 -0.0694351)
(0.574727 -8.7923e-18 -0.05997)
(0.725364 0 -0.050863)
(0.848779 4.79357e-18 -0.0426102)
(0.931409 0 -0.0359119)
(0.960383 1.73403e-19 -0.0318234)
(0.926898 0 -0.0315655)
(0.829306 5.08075e-20 -0.0359776)
(0.674765 0 -0.0451326)
(0.47819 1.18033e-20 -0.0582984)
(0.258721 9.04515e-18 -0.0741588)
(0.0355839 -5.35047e-18 -0.0911834)
(-0.172946 2.35245e-21 -0.107903)
(-0.346278 0 -0.122646)
(-0.462118 0 -0.132764)
(-0.497606 -2.13931e-17 -0.135064)
(-0.436585 -5.54984e-17 -0.126495)
(-0.280022 -6.43979e-17 -0.105722)
(-0.0515126 -2.40236e-20 -0.0741085)
(0.208743 -6.58472e-17 -0.0356933)
(0.465864 0 0.00485001)
(0.693968 4.52382e-17 0.0452899)
(0.882139 2.87298e-17 0.0840201)
(1.03291 9.40405e-18 0.121275)
(1.12837 0 0.153491)
(1.14195 0 0.17458)
(1.03 0 0.174802)
(0.782049 1.30587e-16 0.147274)
(0.422052 0 0.0948402)
(-0.00678181 0 0.0222832)
(-0.416763 -2.6015e-16 -0.0542536)
(-0.790584 0 -0.132895)
(-1.12604 0 -0.20971)
(-1.37974 0 -0.282533)
(-1.51171 -1.24503e-16 -0.333962)
(-1.37265 2.49569e-16 -0.344625)
(-0.958522 3.4831e-16 -0.297567)
(-0.279995 -2.89472e-19 -0.190585)
(0.489486 -3.88434e-16 -0.0235061)
(1.00926 0 0.187345)
(1.10815 1.97196e-16 0.339331)
(0.737191 0 0.407423)
(0.174267 0 0.398669)
(0.091928 0 0.301512)
(0.541529 7.51105e-19 0.180116)
(1.32196 -3.44023e-16 0.0484087)
(1.53647 -4.44631e-16 -0.0173574)
(0.719944 5.00798e-16 0.0798086)
(-0.584068 5.02534e-16 0.17266)
(-1.67843 0 0.0559662)
(-2.42308 0 -0.189558)
(-2.23534 -2.59357e-16 -0.203707)
(-1.91885 -3.82595e-16 -0.303414)
(-1.79324 1.3157e-15 -0.331766)
(-1.61355 1.04328e-15 -0.244806)
(-1.62453 0 -0.122413)
(-2.33345 -2.74884e-15 0.214766)
(-2.72208 1.35583e-15 0.482512)
(-2.67246 -1.22435e-15 0.609499)
(-2.01675 2.10253e-15 0.593481)
(-1.37283 0 0.610083)
(-0.764195 0 0.621272)
(-0.449557 0 0.726562)
(-0.487954 0 0.756882)
(-1.43152 0 0.818747)
(-2.52417 0 0.799426)
(-3.69662 2.5786e-15 0.715621)
(-3.45483 4.2975e-15 0.418992)
(-2.69624 3.02514e-15 0.0275817)
(-1.47356 0 -0.737473)
(-0.609731 0 -0.484276)
(-0.161519 0 -0.627502)
(-0.925069 -4.31811e-15 -0.34932)
(-1.92465 -8.47437e-15 0.403357)
(-4.39387 3.78282e-15 1.06052)
(-6.02513 0 1.5158)
(-7.90813 -3.42529e-15 1.77526)
(-8.74596 0 1.83361)
(-9.22814 -1.56542e-15 1.85949)
(-8.81534 1.28936e-15 1.6654)
(-7.38496 -1.65598e-15 1.58455)
(-5.62457 9.60541e-16 1.35866)
(-5.18793 -1.52031e-15 1.22247)
(-4.10993 -1.05067e-18 1.05032)
(-4.93876 -4.41703e-15 0.943813)
(-5.31077 0 0.897243)
(-1.64772 -9.36523e-20 -0.0170251)
(-1.57569 0 -0.171674)
(-1.45042 -4.98469e-19 -0.0535631)
(-1.33415 0 0.0363025)
(-1.26965 -3.26419e-19 0.0783771)
(-1.20167 -2.43292e-19 0.101519)
(-1.09301 1.197e-19 0.102697)
(-0.926131 0 0.0833818)
(-0.692853 -2.99145e-20 0.0678577)
(-0.416819 1.35898e-18 0.0671542)
(-0.143406 -1.50236e-18 0.0747071)
(0.0831203 -1.52382e-18 0.0782779)
(0.248344 1.44714e-18 0.0711107)
(0.37662 -1.30302e-18 0.0533641)
(0.506518 -2.24725e-18 0.0293269)
(0.65667 0 0.00495538)
(0.815667 3.72079e-20 -0.0152729)
(0.957539 -7.65606e-19 -0.0311504)
(1.06019 -2.52843e-19 -0.0459677)
(1.11269 0 -0.0629898)
(1.11424 0 -0.0831689)
(1.07114 1.10747e-18 -0.105584)
(0.994167 0 -0.128847)
(0.896162 1.34085e-18 -0.151864)
(0.790406 -2.39631e-18 -0.173916)
(0.68999 0 -0.194496)
(0.607731 8.25961e-19 -0.213036)
(0.555587 0 -0.228627)
(0.543171 1.51695e-18 -0.240022)
(0.575899 5.44344e-18 -0.246035)
(0.653876 7.58146e-18 -0.246106)
(0.772148 4.6217e-18 -0.240693)
(0.922271 -5.12981e-18 -0.231262)
(1.09409 -2.10385e-17 -0.219803)
(1.27669 -2.0066e-17 -0.208031)
(1.45825 0 -0.196843)
(1.62537 0 -0.186428)
(1.76266 -7.06425e-20 -0.176824)
(1.85369 0 -0.168601)
(1.88352 -1.75058e-19 -0.163166)
(1.84277 0 -0.162403)
(1.73059 -8.51477e-18 -0.167599)
(1.55555 0 -0.178725)
(1.33404 -1.08583e-17 -0.194535)
(1.08588 0 -0.21289)
(0.830753 5.38758e-18 -0.231495)
(0.586431 0 -0.248265)
(0.373602 0 -0.261342)
(0.213791 1.43072e-17 -0.267095)
(0.130339 0 -0.261369)
(0.138379 0 -0.240008)
(0.237684 0 -0.201604)
(0.403712 6.83528e-17 -0.148162)
(0.597282 1.31947e-16 -0.0858855)
(0.783459 0 -0.022176)
(0.93765 0 0.0401912)
(1.05109 -2.83086e-17 0.0991623)
(1.12715 -9.4036e-18 0.155087)
(1.15325 0 0.203495)
(1.10335 0 0.23661)
(0.941287 0 0.240838)
(0.658731 0 0.205729)
(0.285528 1.466e-16 0.134609)
(-0.125376 -1.46136e-16 0.0343031)
(-0.491932 2.58271e-16 -0.075047)
(-0.77506 0 -0.191064)
(-0.999759 0 -0.305911)
(-1.09131 0 -0.4238)
(-1.06113 -1.57332e-18 -0.512605)
(-0.758612 -2.47183e-16 -0.548712)
(-0.252906 -3.44664e-16 -0.492412)
(0.376253 7.98774e-16 -0.335115)
(0.925942 4.11979e-19 -0.0728025)
(1.00004 -3.07326e-16 0.281744)
(0.480144 -1.9439e-16 0.586278)
(-0.481551 0 0.77955)
(-1.43874 0 0.821251)
(-1.11241 0 0.588541)
(0.297195 -2.50852e-16 0.244353)
(2.22425 0 -0.109349)
(2.68325 0 -0.188139)
(0.773115 -4.9014e-16 0.14227)
(-2.1503 -4.91314e-16 0.518737)
(-4.23769 0 0.285112)
(-5.10837 0 -0.319292)
(-3.65952 0 -0.163079)
(-2.47302 3.79471e-16 -0.328733)
(-2.08379 3.7256e-18 -0.373585)
(-2.25229 1.01823e-15 -0.199698)
(-3.23747 -1.23434e-15 0.127747)
(-6.04976 2.66566e-15 0.958872)
(-7.846 1.31237e-15 1.51776)
(-8.36165 2.36742e-15 1.73204)
(-7.35504 0 1.63906)
(-6.55042 0 1.63286)
(-5.67669 0 1.61279)
(-5.83119 0 1.8293)
(-6.29081 -8.61651e-16 1.95304)
(-8.38709 0 2.22525)
(-9.97333 0 2.26696)
(-10.8902 2.47279e-15 2.08195)
(-8.09613 -2.05813e-15 1.24577)
(-4.512 -5.78623e-15 0.268377)
(-0.148724 8.62328e-16 -1.4031)
(1.42946 0 -0.978179)
(1.41405 0 -1.07202)
(-3.31705 0 -0.320028)
(-8.47024 4.03597e-15 1.7402)
(-16.4291 -3.60012e-15 3.47675)
(-21.7771 0 4.63189)
(-26.3626 6.50527e-15 5.38731)
(-27.6432 2.76697e-15 5.50318)
(-28.4238 2.96879e-15 5.55843)
(-26.0713 0 4.97741)
(-23.5256 0 4.66564)
(-19.1039 9.12856e-16 3.95258)
(-17.613 0 3.61744)
(-15.0198 2.893e-15 3.13482)
(-15.1805 4.17249e-15 2.90802)
(-15.2849 0 2.80336)
(-1.89895 0 -0.177041)
(-1.99313 0 -0.222638)
(-2.04227 -4.82618e-19 -0.118877)
(-2.02273 0 -0.0151251)
(-1.94167 0 0.0633883)
(-1.79289 8.21906e-20 0.12642)
(-1.58059 -1.13356e-19 0.162516)
(-1.30923 0 0.172202)
(-0.984814 -7.24945e-20 0.170815)
(-0.636232 -1.28745e-18 0.172369)
(-0.308391 2.78325e-18 0.177174)
(-0.0397946 1.44381e-18 0.176156)
(0.163115 -4.38141e-20 0.158219)
(0.333414 1.23471e-18 0.118516)
(0.517184 1.05702e-18 0.0636782)
(0.734912 -8.14154e-19 0.00761471)
(0.969561 1.23207e-18 -0.0388727)
(1.18637 7.2552e-19 -0.0745196)
(1.35727 0 -0.105156)
(1.47022 0 -0.136808)
(1.5263 7.86732e-19 -0.17144)
(1.5342 1.10812e-18 -0.207495)
(1.50636 0 -0.242433)
(1.45647 0 -0.27434)
(1.39805 2.27064e-18 -0.302204)
(1.34402 0 -0.325634)
(1.3067 -1.58887e-18 -0.344463)
(1.29735 -2.58773e-19 -0.35836)
(1.32457 0 -0.366795)
(1.39266 -2.57928e-18 -0.369481)
(1.50089 -3.59052e-18 -0.367024)
(1.64428 0 -0.361174)
(1.81541 4.80815e-18 -0.354445)
(2.00579 9.94718e-18 -0.349164)
(2.20596 9.03168e-20 -0.346442)
(2.40427 0 -0.345797)
(2.58606 0 -0.345802)
(2.73381 -4.51918e-18 -0.345103)
(2.8291 0 -0.343324)
(2.85602 0 -0.341231)
(2.80548 0 -0.340163)
(2.67777 0 -0.3409)
(2.48258 0 -0.342951)
(2.23708 0 -0.345088)
(1.96109 0 -0.345513)
(1.67407 -5.11883e-18 -0.342813)
(1.39284 -6.70729e-20 -0.335769)
(1.13765 0 -0.324319)
(0.928707 -1.3536e-17 -0.30673)
(0.789173 0 -0.281777)
(0.73286 0 -0.247822)
(0.760649 6.1219e-17 -0.205707)
(0.848001 0 -0.156904)
(0.958503 -6.23434e-17 -0.105901)
(1.05841 5.46121e-17 -0.0575481)
(1.12607 0 -0.0129023)
(1.15507 2.67578e-17 0.0274298)
(1.15137 0 0.0633649)
(1.10823 0 0.0927244)
(1.00271 0 0.113355)
(0.806914 -9.7062e-17 0.117778)
(0.514521 -1.23677e-16 0.101226)
(0.159416 -2.61906e-20 0.0634243)
(-0.201588 2.75872e-16 0.0091494)
(-0.494417 -1.95972e-19 -0.0557635)
(-0.665052 0 -0.131874)
(-0.764906 0 -0.207967)
(-0.69569 -7.01315e-19 -0.301122)
(-0.526872 -5.35335e-19 -0.375066)
(-0.107131 0 -0.426401)
(0.412464 0 -0.401129)
(0.912202 -3.76796e-16 -0.286371)
(1.15863 2.92423e-19 -0.0758965)
(0.743284 5.49465e-19 0.240461)
(-0.366116 0 0.577575)
(-1.82458 0 0.845721)
(-3.01851 3.69347e-17 0.933638)
(-2.18754 -1.55467e-16 0.59114)
(0.121044 0 0.0662785)
(2.98016 0 -0.424713)
(3.39818 0 -0.374426)
(0.336611 0 0.242579)
(-4.0321 0 0.924644)
(-6.82784 0 0.779873)
(-7.58885 0 -0.0243448)
(-4.94426 0 0.275064)
(-3.14496 -3.62366e-16 0.0679083)
(-2.63698 -6.06093e-16 0.0537324)
(-3.33547 -9.57009e-16 0.294767)
(-5.45582 1.15988e-15 0.64712)
(-10.2374 -2.50548e-15 2.02859)
(-13.2134 -1.2327e-15 2.63791)
(-14.2134 -1.11132e-15 2.8055)
(-12.8811 0 2.60197)
(-12.0292 0 2.55412)
(-10.9821 0 2.48802)
(-11.6994 0 2.77207)
(-12.569 8.08371e-16 3.00893)
(-15.7022 0 3.52512)
(-17.4337 0 3.6273)
(-17.7659 -2.31855e-15 3.30936)
(-12.3399 0 1.94806)
(-6.32757 2.7098e-15 0.573252)
(0.591313 -8.08099e-16 -1.24477)
(1.94864 0 -0.908569)
(0.782483 0 -0.533534)
(-8.24397 0 1.21086)
(-17.6507 3.77829e-15 3.82178)
(-30.639 0 6.42019)
(-38.9958 -2.74149e-15 8.01162)
(-45.7821 -1.9337e-18 9.13835)
(-46.9763 -2.58959e-15 9.18916)
(-47.8425 -2.77671e-15 9.20981)
(-43.3629 0 8.21533)
(-39.7627 1.46635e-15 7.64297)
(-32.8105 -8.53865e-16 6.43673)
(-30.467 -1.34839e-15 5.98567)
(-26.5258 0 5.24994)
(-26.0958 -3.90142e-15 4.97474)
(-25.9418 0 4.84429)
(-1.89847 0 -0.0438958)
(-2.00332 0 -0.0639615)
(-2.18762 4.56235e-19 -0.0519183)
(-2.34315 0 -0.0292462)
(-2.40688 -3.71967e-19 0.0168452)
(-2.32933 3.30867e-19 0.0974731)
(-2.11867 0 0.174151)
(-1.80835 4.50435e-19 0.216154)
(-1.43114 -9.05351e-19 0.230064)
(-1.02741 -1.04942e-18 0.237529)
(-0.642426 -1.28589e-18 0.248403)
(-0.313609 1.23672e-18 0.254223)
(-0.0509891 -1.25537e-18 0.234402)
(0.175457 2.15132e-18 0.174991)
(0.416155 0 0.0853958)
(0.698984 1.4877e-18 -0.00790384)
(1.00812 0 -0.0833687)
(1.30282 0 -0.137537)
(1.5484 0 -0.180201)
(1.7303 4.12043e-19 -0.222159)
(1.85062 5.92243e-20 -0.267892)
(1.91992 4.53873e-20 -0.315968)
(1.95187 1.25157e-18 -0.362768)
(1.96058 0 -0.405224)
(1.95954 0 -0.441554)
(1.9613 0 -0.470984)
(1.97772 1.56426e-18 -0.49325)
(2.01938 4.16772e-20 -0.508121)
(2.09416 0 -0.515372)
(2.20561 0 -0.515341)
(2.3525 0 -0.509695)
(2.52991 0 -0.501547)
(2.73125 -9.02603e-18 -0.494605)
(2.94918 0 -0.491644)
(3.17504 8.87825e-18 -0.493244)
(3.39689 0 -0.497658)
(3.59855 0 -0.502144)
(3.76034 4.05349e-18 -0.50455)
(3.86211 0 -0.504403)
(3.88723 0 -0.502759)
(3.82704 2.43848e-18 -0.50113)
(3.6828 -8.01311e-18 -0.500144)
(3.46509 0 -0.498731)
(3.19154 -9.94913e-18 -0.495168)
(2.88184 0 -0.487208)
(2.55525 9.7531e-18 -0.473506)
(2.22787 6.97934e-20 -0.452725)
(1.91997 0 -0.425266)
(1.65106 0 -0.389665)
(1.44492 1.92683e-17 -0.345922)
(1.31482 4.98403e-17 -0.293361)
(1.26351 -1.15458e-16 -0.234803)
(1.26666 0 -0.172253)
(1.29097 -5.85662e-17 -0.110958)
(1.30371 -5.15518e-17 -0.0548878)
(1.28695 -3.98058e-17 -0.00539592)
(1.23632 -2.49851e-17 0.0373395)
(1.16154 0 0.0725365)
(1.06033 0 0.0969433)
(0.912639 5.78804e-17 0.110396)
(0.695979 1.83146e-16 0.10494)
(0.404823 1.16648e-16 0.080432)
(0.0762682 -1.28626e-19 0.0342898)
(-0.231552 -1.30008e-16 -0.0263574)
(-0.450062 -1.14626e-16 -0.0984509)
(-0.516533 0 -0.185029)
(-0.507278 0 -0.267321)
(-0.306178 6.60907e-19 -0.370023)
(-0.0398515 2.23564e-16 -0.440914)
(0.450171 0 -0.485653)
(0.929154 3.07268e-16 -0.432181)
(1.26492 3.54648e-16 -0.27062)
(1.19035 3.39976e-16 0.00110471)
(0.317646 5.43993e-16 0.394714)
(-1.31164 0 0.8018)
(-3.16683 0 1.09748)
(-4.47318 -3.47564e-17 1.13445)
(-3.09809 2.92818e-16 0.621019)
(0.00144983 2.23718e-16 -0.0652122)
(3.55194 0 -0.620908)
(3.66664 0 -0.376334)
(-0.542374 0 0.560633)
(-6.17211 0 1.45309)
(-9.4252 0 1.46094)
(-9.87803 0 0.784913)
(-6.28271 2.11487e-16 0.598893)
(-4.13946 -8.31065e-19 0.29597)
(-3.6441 5.70997e-16 0.348149)
(-5.02835 0 0.760882)
(-8.2682 1.09225e-15 1.5798)
(-14.912 1.17604e-15 3.16026)
(-18.8124 0 3.81175)
(-20.2012 -1.04214e-15 3.95874)
(-18.5498 -1.78478e-15 3.65743)
(-17.7322 0 3.61758)
(-16.5736 0 3.55425)
(-17.9126 0 3.97311)
(-19.1624 7.60179e-16 4.305)
(-23.2019 0 4.99512)
(-24.7648 0 5.01724)
(-24.2998 -2.17246e-15 4.43766)
(-16.3197 1.80624e-15 2.51124)
(-8.41173 0 0.777826)
(0.222793 0 -1.50048)
(0.647399 0 -0.633977)
(-2.33576 0 0.0786812)
(-15.7909 0 3.41926)
(-29.2916 -1.15062e-18 6.39168)
(-46.7288 0 9.81812)
(-57.3665 2.5654e-15 11.7288)
(-65.9184 -2.84532e-15 13.0847)
(-66.5916 0 12.9649)
(-67.4015 3.58569e-19 12.8943)
(-60.6956 0 11.4432)
(-56.1229 1.86098e-19 10.656)
(-46.7946 0 8.99401)
(-43.7863 1.26069e-15 8.45473)
(-38.6533 0 7.49848)
(-37.7211 -3.64735e-15 7.16377)
(-37.2692 0 7.00087)
(-1.86965 0 0.0684548)
(-1.93804 0 0.0537594)
(-2.15452 0 0.016078)
(-2.39988 0 -0.0147676)
(-2.59456 3.51109e-19 -0.00395224)
(-2.64132 6.57605e-20 0.0694346)
(-2.52145 0 0.160244)
(-2.26399 -4.25149e-19 0.218584)
(-1.90879 0 0.24182)
(-1.50158 1.85333e-18 0.255749)
(-1.0869 0 0.277509)
(-0.703769 -1.16755e-18 0.299025)
(-0.376134 0 0.288302)
(-0.0922185 -2.03119e-18 0.216927)
(0.194613 7.91873e-19 0.09327)
(0.524514 -1.28766e-18 -0.0414312)
(0.893179 8.10034e-19 -0.149551)
(1.25961 3.73632e-19 -0.222295)
(1.58167 0 -0.273834)
(1.83901 -3.89081e-19 -0.321643)
(2.03228 -7.58596e-19 -0.374297)
(2.17281 -2.11897e-18 -0.431272)
(2.27497 -1.18182e-18 -0.488054)
(2.35296 0 -0.540245)
(2.42 0 -0.585007)
(2.48823 0 -0.620923)
(2.56894 -7.56994e-19 -0.647408)
(2.67212 1.91721e-19 -0.664161)
(2.80505 0 -0.671133)
(2.9707 0 -0.669203)
(3.16743 -3.04216e-18 -0.661063)
(3.39021 0 -0.651195)
(3.63276 9.17053e-20 -0.644504)
(3.88844 8.48273e-18 -0.64416)
(4.14906 -8.05973e-18 -0.650076)
(4.40234 0 -0.659085)
(4.63072 0 -0.667048)
(4.81257 -3.82577e-18 -0.671104)
(4.92607 0 -0.670927)
(4.9539 0 -0.668188)
(4.88771 -2.30111e-18 -0.664842)
(4.72959 7.5612e-18 -0.661496)
(4.49077 0 -0.656469)
(4.18905 9.38683e-18 -0.647385)
(3.84377 0 -0.631331)
(3.4739 -4.63841e-18 -0.606852)
(3.09494 -6.06529e-21 -0.57232)
(2.72737 0 -0.528439)
(2.39037 1.18901e-17 -0.473784)
(2.10881 -1.81711e-17 -0.409398)
(1.8959 -9.37772e-17 -0.335341)
(1.75684 5.43593e-17 -0.256504)
(1.66789 -5.70522e-17 -0.175665)
(1.59962 2.44248e-19 -0.0994587)
(1.52054 0 -0.0313489)
(1.41752 3.75186e-17 0.0265026)
(1.28819 2.35471e-17 0.0741261)
(1.14709 -7.32254e-18 0.10995)
(0.995435 -1.00725e-17 0.129094)
(0.816381 -5.45317e-17 0.132847)
(0.591065 -8.628e-17 0.111654)
(0.314081 1.097e-16 0.0702285)
(0.0243453 -1.22827e-16 0.00390658)
(-0.221214 0 -0.0760029)
(-0.359876 0 -0.16722)
(-0.325712 -8.19702e-17 -0.273835)
(-0.21953 0 -0.368606)
(0.086807 0 -0.48201)
(0.41066 -1.05344e-16 -0.542404)
(0.922153 0 -0.563698)
(1.3047 -2.89093e-16 -0.454249)
(1.43967 -6.66881e-16 -0.214571)
(1.02446 0 0.150017)
(-0.274901 -2.55566e-16 0.643107)
(-2.35298 0 1.11307)
(-4.4979 0 1.41016)
(-5.80754 3.35585e-17 1.34666)
(-3.88937 -1.37735e-16 0.622361)
(-0.146897 2.64462e-19 -0.212148)
(3.84606 0 -0.762697)
(3.45101 0 -0.229866)
(-1.8453 0 1.03954)
(-8.5292 4.08131e-16 2.07564)
(-12.0173 -3.54673e-16 2.17035)
(-12.093 0 1.6559)
(-7.75698 -3.96267e-16 0.8193)
(-5.47684 1.61246e-16 0.531774)
(-5.1093 -1.0718e-15 0.705622)
(-7.30317 -8.44467e-16 1.34603)
(-11.8076 -2.05088e-15 2.03656)
(-20.0154 0 4.40417)
(-24.5873 0 5.04107)
(-26.3018 9.77176e-16 5.13119)
(-24.3427 1.67326e-15 4.73397)
(-23.6394 -1.25098e-15 4.72858)
(-22.4204 0 4.69318)
(-24.4301 0 5.26847)
(-26.001 -7.12241e-16 5.68344)
(-30.7927 -1.39595e-15 6.49974)
(-31.8984 0 6.34834)
(-30.522 2.03456e-15 5.43973)
(-20.1867 -1.69135e-15 2.97033)
(-10.9789 0 1.00796)
(-1.29814 0 -1.20224)
(-2.54133 0 0.103073)
(-7.77834 0 1.55256)
(-25.8174 0 5.86173)
(-43.0256 -3.30789e-15 9.52008)
(-64.332 0 13.6121)
(-76.5822 0 15.6639)
(-86.5392 0 17.1295)
(-86.3703 2.2621e-15 16.7428)
(-87.0539 1.21386e-15 16.5404)
(-78.1061 0 14.6174)
(-72.6667 -1.28219e-15 13.6375)
(-61.1352 0 11.5634)
(-57.6063 1.18043e-15 10.9821)
(-51.414 0 9.83883)
(-50.0671 3.40858e-15 9.47156)
(-49.2218 0 9.2685)
(-1.83234 -4.88009e-19 0.0759774)
(-1.89187 -5.63408e-19 0.0729859)
(-2.09349 5.87895e-19 0.0341724)
(-2.34664 5.60379e-19 -0.00381487)
(-2.59918 0 -0.00386947)
(-2.73468 -2.31801e-19 0.0585398)
(-2.71313 0 0.14385)
(-2.54863 -1.08268e-19 0.200798)
(-2.27183 -4.237e-19 0.223302)
(-1.92115 -1.47856e-18 0.237197)
(-1.5311 8.19525e-19 0.263714)
(-1.13273 -8.85745e-19 0.299841)
(-0.760908 0 0.307303)
(-0.432804 0 0.238165)
(-0.120936 -7.46562e-19 0.0891569)
(0.223582 8.06646e-20 -0.0872647)
(0.617891 -1.50292e-19 -0.232059)
(1.0316 -1.36313e-19 -0.325049)
(1.41816 0 -0.383306)
(1.74824 0 -0.432721)
(2.01701 0 -0.487929)
(2.23407 2.10826e-18 -0.550331)
(2.4134 1.19846e-18 -0.614761)
(2.56882 0 -0.675355)
(2.71301 0 -0.72795)
(2.8576 1.56321e-18 -0.77023)
(3.01328 0 -0.801122)
(3.18943 0 -0.820151)
(3.39275 0 -0.827399)
(3.62566 0 -0.82425)
(3.88598 1.009e-19 -0.814368)
(4.1681 0 -0.803556)
(4.46543 1.1474e-19 -0.797894)
(4.77137 -7.99624e-18 -0.800919)
(5.07811 2.34201e-19 -0.811802)
(5.37335 0 -0.825831)
(5.63861 0 -0.837348)
(5.85053 0 -0.842742)
(5.98551 0 -0.841909)
(6.02517 0 -0.837282)
(5.96113 0 -0.831397)
(5.79606 0 -0.824912)
(5.54159 -9.1092e-18 -0.815509)
(5.21555 -9.17097e-18 -0.80009)
(4.83668 0 -0.774974)
(4.4236 -4.61338e-18 -0.738542)
(3.99113 0 -0.688835)
(3.56019 0 -0.6269)
(3.14984 -2.22686e-17 -0.551349)
(2.78645 0 -0.464368)
(2.48339 4.40544e-17 -0.366745)
(2.24898 0 -0.265588)
(2.06034 1.07123e-16 -0.164532)
(1.89281 3.10083e-19 -0.0718875)
(1.71647 0 0.00924246)
(1.5242 0 0.0756008)
(1.31557 0 0.12732)
(1.11097 1.36534e-17 0.16201)
(0.914296 1.90298e-17 0.173109)
(0.712378 5.13902e-17 0.163455)
(0.488491 8.1051e-17 0.121708)
(0.236939 -2.06212e-16 0.0578784)
(-0.00320094 -1.15036e-16 -0.0346952)
(-0.178453 0 -0.13944)
(-0.233362 0 -0.254155)
(-0.103516 3.54531e-19 -0.382733)
(0.0854624 0 -0.488837)
(0.468934 0 -0.607486)
(0.810029 -9.94287e-17 -0.646458)
(1.29547 0 -0.628476)
(1.5313 0 -0.442935)
(1.43669 6.25843e-16 -0.106972)
(0.672367 -2.99081e-16 0.363672)
(-1.01155 0 0.956319)
(-3.46077 0 1.47541)
(-5.7919 0 1.74361)
(-7.0241 -3.15166e-17 1.5394)
(-4.6038 0 0.585206)
(-0.394195 -3.9562e-16 -0.364721)
(3.80039 2.66377e-16 -0.831727)
(2.74317 0 0.0581671)
(-3.53137 0 1.65355)
(-11.0547 -3.82984e-16 2.76946)
(-14.6088 5.61005e-19 2.81812)
(-14.3543 -2.30709e-16 2.15559)
(-9.40608 1.85481e-16 0.997324)
(-7.18909 1.51793e-16 0.816941)
(-7.05686 5.02593e-16 1.15933)
(-10.2131 7.91767e-16 2.07105)
(-15.7378 -1.84363e-18 3.49473)
(-25.4125 0 5.75281)
(-30.4768 -1.01557e-15 6.31638)
(-32.4667 0 6.31902)
(-30.2069 0 5.82235)
(-29.6838 1.17193e-15 5.87)
(-28.4351 0 5.88217)
(-31.1428 0 6.62885)
(-32.9551 0 7.11252)
(-38.3478 1.30705e-15 8.00846)
(-38.7682 0 7.60707)
(-36.4779 1.90417e-15 6.33087)
(-24.0949 0 3.36787)
(-14.1817 0 1.30864)
(-4.08855 0 -0.2483)
(-7.65621 0 1.01532)
(-15.403 0 3.70563)
(-37.9227 -3.17762e-15 8.79309)
(-58.4158 -3.09056e-15 13.0649)
(-83.0164 2.75275e-15 17.6959)
(-96.2999 0 19.7416)
(-107.39 0 21.2257)
(-106.183 -4.22795e-15 20.5136)
(-106.741 0 20.1564)
(-95.6249 9.33269e-16 17.7658)
(-89.4252 0 16.6145)
(-75.8703 -6.9932e-16 14.1689)
(-71.9152 -1.1031e-15 13.5765)
(-64.763 0 12.267)
(-63.1097 3.18485e-15 11.8924)
(-61.7235 0 11.6295)
(-1.77777 4.5957e-19 -0.00324898)
(-1.85415 1.13333e-18 0.00936709)
(-2.04064 -5.53765e-19 -0.00555617)
(-2.26985 6.6219e-20 -0.0244342)
(-2.5255 5.06056e-19 -0.0146005)
(-2.69754 0 0.0455134)
(-2.73789 0 0.122456)
(-2.65059 1.01951e-19 0.171752)
(-2.45765 6.30317e-19 0.190199)
(-2.18877 1.59909e-19 0.19984)
(-1.866 -7.71625e-19 0.220078)
(-1.50272 8.33969e-19 0.257595)
(-1.12825 -6.99509e-19 0.281628)
(-0.782687 0 0.228584)
(-0.470517 0 0.0708997)
(-0.148819 4.65591e-19 -0.140365)
(0.222332 -9.9009e-19 -0.324236)
(0.636451 -2.59794e-19 -0.441122)
(1.05294 0 -0.50599)
(1.43483 0 -0.553507)
(1.76797 0 -0.606668)
(2.05641 6.22208e-20 -0.670412)
(2.31157 -2.30459e-18 -0.739493)
(2.54585 1.15609e-18 -0.806562)
(2.77095 2.03659e-18 -0.865891)
(2.99775 -3.0098e-18 -0.914002)
(3.23631 8.50266e-19 -0.949136)
(3.49531 2.83605e-20 -0.970545)
(3.78073 -8.56532e-19 -0.9784)
(4.09436 0 -0.974532)
(4.43316 2.60526e-18 -0.963472)
(4.7904 -3.07488e-18 -0.952235)
(5.15825 3.56383e-18 -0.948067)
(5.52943 7.03052e-18 -0.954938)
(5.89624 1.35876e-17 -0.971338)
(6.24689 0 -0.990975)
(6.56283 0 -1.00653)
(6.81937 2.80526e-18 -1.01352)
(6.99088 0 -1.012)
(7.05718 8.37213e-19 -1.00523)
(7.00915 2.4712e-18 -0.996435)
(6.84959 0 -0.986396)
(6.59038 1.73943e-17 -0.972145)
(6.24923 8.63046e-18 -0.949803)
(5.84412 0 -0.914832)
(5.39314 4.34101e-18 -0.865418)
(4.91032 3.70806e-19 -0.799249)
(4.41711 0 -0.717808)
(3.93247 2.06689e-17 -0.619767)
(3.48463 -1.57104e-17 -0.508619)
(3.08719 -4.08003e-17 -0.385897)
(2.7521 0 -0.261095)
(2.45754 -3.88922e-19 -0.138738)
(2.18467 9.63886e-17 -0.0290462)
(1.9054 0 0.0651535)
(1.61992 0 0.139299)
(1.32973 -2.03047e-17 0.193516)
(1.06202 -6.35697e-18 0.224655)
(0.822791 -1.80267e-17 0.224436)
(0.603105 -4.8308e-17 0.197559)
(0.38724 -7.61832e-17 0.130833)
(0.169015 9.68083e-17 0.0401666)
(-0.0139803 2.1582e-16 -0.0830555)
(-0.113592 0 -0.216056)
(-0.0836301 0 -0.356175)
(0.13502 1.43758e-16 -0.506123)
(0.390837 0 -0.61963)
(0.823071 0 -0.735669)
(1.1426 9.3385e-17 -0.740606)
(1.5587 0 -0.667563)
(1.60616 -2.54236e-16 -0.38834)
(1.26397 -6.72892e-19 0.0576243)
(0.155363 2.8078e-16 0.640689)
(-1.85982 0 1.3263)
(-4.60028 0 1.87233)
(-7.02328 0 2.07781)
(-8.13016 -3.0173e-17 1.69746)
(-5.28553 0 0.508025)
(-0.803853 1.85736e-16 -0.511846)
(3.3722 -5.0039e-16 -0.816928)
(1.56124 0 0.488905)
(-5.54318 0 2.39471)
(-13.7024 0 3.52547)
(-17.1923 3.2517e-19 3.37209)
(-16.6485 2.16284e-16 2.51944)
(-11.2656 1.73171e-16 1.17578)
(-9.29234 -1.42267e-16 1.17456)
(-9.49118 4.70563e-16 1.73247)
(-13.6291 0 2.95312)
(-20.0907 9.03069e-16 5.32131)
(-31.1074 0 7.19493)
(-36.4097 9.51246e-16 7.61715)
(-38.6297 0 7.50289)
(-36.0641 0 6.90355)
(-35.7649 0 7.01923)
(-34.4917 -6.35995e-16 7.09274)
(-37.9009 -8.81005e-17 8.01751)
(-39.8643 0 8.5503)
(-45.7298 -1.22397e-15 9.48145)
(-45.3201 1.64885e-15 8.77118)
(-42.2201 -1.78169e-15 7.11632)
(-28.1753 1.48072e-15 3.735)
(-18.1304 0 1.721)
(-8.33615 0 0.536058)
(-14.4399 0 2.55871)
(-24.9566 0 5.94355)
(-51.5666 2.97135e-15 12.1444)
(-74.9066 2.22085e-18 16.9407)
(-102.285 -5.14478e-15 21.9687)
(-116.159 0 23.8793)
(-128.209 0 25.3096)
(-125.904 1.97501e-15 24.2357)
(-126.409 0 23.7148)
(-113.289 -8.72142e-16 20.8784)
(-106.421 0 19.575)
(-91.0141 1.30696e-15 16.799)
(-86.6675 0 16.2198)
(-78.6033 0 14.7591)
(-76.7837 -2.97514e-15 14.4098)
(-74.6634 0 14.0592)
(-1.70574 0 -0.126118)
(-1.80103 -5.66977e-19 -0.102403)
(-1.98166 0 -0.0899948)
(-2.18706 -5.58913e-19 -0.0823618)
(-2.42617 -1.01287e-18 -0.0543854)
(-2.60414 0 0.0102902)
(-2.67234 2.66179e-19 0.0832926)
(-2.63068 0 0.127639)
(-2.49769 -1.66199e-19 0.145396)
(-2.29848 7.15588e-19 0.153749)
(-2.04931 0 0.162526)
(-1.74998 0 0.185693)
(-1.41232 6.57926e-19 0.213187)
(-1.07985 0 0.180943)
(-0.786846 0 0.0333636)
(-0.51381 0 -0.197168)
(-0.210901 3.8796e-19 -0.416985)
(0.145383 5.3087e-20 -0.562153)
(0.53554 -4.05046e-19 -0.637159)
(0.92457 0 -0.682174)
(1.28987 0 -0.729803)
(1.62687 -1.01848e-18 -0.790654)
(1.94152 1.10615e-18 -0.860651)
(2.24324 -1.08733e-18 -0.93136)
(2.54196 -1.91546e-18 -0.995437)
(2.84746 2.95842e-18 -1.04806)
(3.16904 7.2728e-20 -1.0866)
(3.51454 -2.6673e-20 -1.10995)
(3.8891 8.05553e-19 -1.11829)
(4.29356 0 -1.11382)
(4.72374 0 -1.10177)
(5.17115 2.89171e-18 -1.09018)
(5.62581 0 -1.08743)
(6.07858 -6.61142e-18 -1.0981)
(6.52134 -6.259e-18 -1.12023)
(6.94317 5.12032e-18 -1.14603)
(7.32655 0 -1.16641)
(7.64629 -2.63772e-18 -1.17572)
(7.87462 -6.78811e-19 -1.17399)
(7.98857 2.21674e-19 -1.16531)
(7.97709 -4.83937e-18 -1.1537)
(7.84238 0 -1.14018)
(7.59624 -8.29306e-18 -1.12113)
(7.25627 0 -1.09185)
(6.83945 0 -1.04682)
(6.36318 0 -0.984019)
(5.84033 1.74883e-19 -0.900733)
(5.29289 0 -0.798988)
(4.73947 -9.63768e-18 -0.677528)
(4.21045 2.93291e-17 -0.541328)
(3.71934 3.83406e-17 -0.392647)
(3.28227 0 -0.24355)
(2.87837 -4.68279e-17 -0.0994365)
(2.49568 -8.97763e-17 0.0273372)
(2.1082 0 0.134164)
(1.72475 0 0.21502)
(1.34874 1.90733e-17 0.269903)
(1.01522 5.67973e-18 0.29504)
(0.731876 8.49828e-18 0.280346)
(0.494767 4.53265e-17 0.232813)
(0.288559 0 0.13727)
(0.106615 0 0.0162059)
(-0.016266 -4.82475e-19 -0.140943)
(-0.0387144 9.99414e-17 -0.304334)
(0.0739867 0 -0.470253)
(0.372925 -6.72735e-17 -0.639542)
(0.678798 0 -0.754949)
(1.1332 0 -0.859484)
(1.39602 0 -0.81737)
(1.70656 0 -0.674446)
(1.53436 5.74818e-19 -0.286744)
(0.938243 -8.21709e-19 0.278955)
(-0.497425 -2.61828e-16 0.975299)
(-2.78271 0 1.7424)
(-5.73497 -1.30336e-16 2.29078)
(-8.16837 0 2.40167)
(-9.13407 2.82932e-17 1.8202)
(-5.97276 -1.14615e-16 0.403189)
(-1.42352 1.75122e-16 -0.634816)
(2.54453 2.34835e-16 -0.706749)
(-0.0552559 0 1.05579)
(-7.81745 -3.38209e-16 3.24372)
(-16.4242 0 4.3216)
(-19.7433 2.91552e-16 3.92058)
(-18.9963 2.02099e-16 2.80574)
(-13.3537 -1.62227e-16 1.37746)
(-11.7827 0 1.61411)
(-12.3935 -8.8095e-16 2.42938)
(-17.6021 0 3.95498)
(-25.0174 8.45634e-16 6.17323)
(-36.8875 0 8.70712)
(-42.2971 8.89353e-16 8.92716)
(-44.7001 0 8.66517)
(-41.8069 1.36994e-15 7.9569)
(-41.746 -1.02332e-15 8.15037)
(-40.4229 5.95164e-16 8.29423)
(-44.5102 8.24359e-17 9.39797)
(-46.5352 0 9.95885)
(-52.7875 2.29035e-15 10.8867)
(-51.5007 -3.0847e-15 9.82884)
(-47.7844 0 7.8063)
(-32.5049 -1.38483e-15 4.09586)
(-22.8246 0 2.25729)
(-13.8182 0 1.5342)
(-22.5206 -8.30272e-16 4.69511)
(-35.8193 0 8.80085)
(-66.0959 0 15.8017)
(-91.8565 2.699e-15 21.0215)
(-121.587 4.80375e-15 26.3256)
(-135.779 1.95315e-15 28.0059)
(-148.715 0 29.3303)
(-145.398 0 27.8879)
(-145.981 0 27.2057)
(-131.12 0 23.9622)
(-123.653 1.04508e-15 22.5195)
(-106.544 -6.10527e-16 19.4489)
(-101.781 0 18.8942)
(-92.78 0 17.2849)
(-90.9724 0 16.9976)
(-87.8919 0 16.5248)
(-1.62113 5.0396e-19 -0.252414)
(-1.72534 0 -0.227007)
(-1.90025 6.11778e-19 -0.194168)
(-2.09011 0 -0.164507)
(-2.31324 5.04493e-19 -0.120689)
(-2.48835 0 -0.0509729)
(-2.56853 -2.50173e-19 0.0207913)
(-2.55195 3.59945e-19 0.0643203)
(-2.45572 5.69931e-20 0.0855411)
(-2.30184 -1.54082e-19 0.097769)
(-2.10708 0 0.097558)
(-1.8703 0 0.0985815)
(-1.58898 0 0.114099)
(-1.29285 0 0.0962129)
(-1.02917 0 -0.0288966)
(-0.808773 0 -0.258207)
(-0.592909 -3.51399e-20 -0.501937)
(-0.337525 -2.35987e-19 -0.676013)
(-0.0320997 3.80583e-19 -0.767271)
(0.304667 0 -0.814011)
(0.649986 0 -0.856288)
(0.992027 1.06965e-18 -0.911659)
(1.32999 1.12395e-18 -0.979008)
(1.66903 1.08854e-18 -1.04989)
(2.01667 0 -1.11577)
(2.3813 -1.42064e-18 -1.17053)
(2.77138 -1.70763e-18 -1.21067)
(3.19402 1.87847e-19 -1.23461)
(3.6534 0 -1.24252)
(4.14921 0 -1.23686)
(4.67589 0 -1.22337)
(5.22279 -2.4267e-18 -1.21082)
(5.77688 0 -1.20864)
(6.3259 0 -1.22223)
(6.86004 -5.24338e-18 -1.24959)
(7.36902 -4.81006e-18 -1.28175)
(7.83737 0 -1.30776)
(8.24082 -1.92546e-18 -1.32044)
(8.5499 1.00456e-18 -1.31941)
(8.73796 -9.47592e-19 -1.30947)
(8.79036 2.36321e-18 -1.29553)
(8.70739 0 -1.27905)
(8.50017 0 -1.25584)
(8.18608 0 -1.22033)
(7.78095 6.92354e-18 -1.16587)
(7.30129 0 -1.09016)
(6.75821 -4.91508e-19 -0.99003)
(6.17403 3.78421e-18 -0.868145)
(5.56647 0 -0.723287)
(4.96808 -1.36753e-17 -0.562091)
(4.39164 0 -0.38746)
(3.85778 0 -0.21422)
(3.34611 -4.30188e-17 -0.0485824)
(2.85264 4.88546e-19 0.0947331)
(2.35334 3.63015e-17 0.213313)
(1.86716 0 0.299561)
(1.39928 0 0.353213)
(0.993739 -5.33038e-18 0.37009)
(0.659797 0 0.338113)
(0.399498 -4.25331e-17 0.267103)
(0.197976 0 0.139645)
(0.0484924 0 -0.0144149)
(-0.0175472 -1.88289e-16 -0.207684)
(0.033487 -1.86882e-16 -0.402425)
(0.222847 -8.17291e-17 -0.593261)
(0.592058 0 -0.778767)
(0.931411 0 -0.889448)
(1.3853 1.39029e-18 -0.973185)
(1.56228 8.25461e-17 -0.871182)
(1.74091 0 -0.645126)
(1.3296 2.23114e-16 -0.137084)
(0.485271 -2.56839e-16 0.554421)
(-1.24929 2.45446e-16 1.36036)
(-3.73904 -1.95004e-16 2.19456)
(-6.82732 1.2216e-16 2.71984)
(-9.20515 0 2.708)
(-10.0426 0 1.90955)
(-6.69297 1.07396e-16 0.281303)
(-2.27926 -3.28879e-16 -0.719907)
(1.3289 0 -0.496706)
(-2.04609 0 1.74791)
(-10.284 3.1679e-16 4.18527)
(-19.1748 0 5.14931)
(-22.2593 0 4.44159)
(-21.4039 -1.89246e-16 3.08085)