/*--------------------------------*- C++ -*----------------------------------*\
| =========                 |                                                 |
| \\      /  F ield         | OpenFOAM: The Open Source CFD Toolbox           |
|  \\    /   O peration     | Version:  2412                                  |
|   \\  /    A nd           | Website:  www.openfoam.com                      |
|    \\/     M anipulation  |                                                 |
\*---------------------------------------------------------------------------*/
FoamFile
{
    version     2.0;
    format      ascii;
    arch        "LSB;label=32;scalar=64";
    class       surfaceScalarField;
    location    "0.26";
    object      phi;
}
// * * * * * * * * * * * * * * * * * * * * * * * * * * * * * * * * * * * * * //

dimensions      [0 3 -1 0 0 0 0];

oriented        oriented;

internalField   nonuniform List<scalar> 
24930
(
0.0179776
0.0127521
-0.0307315
0.0106134
0.00736422
0.00696164
0.00365173
0.00518466
0.00177698
0.004212
0.000972659
0.00358868
0.000623321
0.00314245
0.00044623
0.00280266
0.000339785
0.00253325
0.000269411
0.00231314
0.000220115
0.00212916
0.000183981
0.00197257
0.000156581
0.00183734
0.000135233
0.00171911
0.000118235
0.00161466
0.00010445
0.00152156
9.30975e-05
0.00143794
8.3621e-05
0.00136232
7.56166e-05
0.00129354
6.87848e-05
0.00123064
6.28997e-05
0.00117285
5.77883e-05
0.00111953
5.33165e-05
0.00107015
4.93785e-05
0.00102426
4.58901e-05
0.000981479
4.27833e-05
0.000941477
4.00028e-05
0.000903974
3.75032e-05
0.000868727
3.52469e-05
0.000835525
3.32022e-05
0.000804183
3.13427e-05
0.000774537
2.96457e-05
0.000746445
2.80922e-05
0.000719779
2.6666e-05
0.000694425
2.53539e-05
0.000670281
2.41443e-05
0.000647253
2.30276e-05
0.000625258
2.19944e-05
0.000604222
2.10367e-05
0.000584075
2.01464e-05
0.000564758
1.93173e-05
0.000546214
1.8543e-05
0.000528395
1.78197e-05
0.000511252
1.71422e-05
0.000494743
1.65087e-05
0.000478829
1.59142e-05
0.000463472
1.53577e-05
0.000448638
1.48341e-05
0.000434295
1.43429e-05
0.000420416
1.3879e-05
0.000406974
1.34418e-05
0.000393947
1.30269e-05
0.000381314
1.2633e-05
0.000369056
1.22578e-05
0.000357158
1.18984e-05
0.000345602
1.15553e-05
0.000334379
1.12225e-05
0.000323475
1.09036e-05
0.000312883
1.05916e-05
0.000302589
1.02932e-05
0.000292583
1.00055e-05
0.000282849
9.73397e-06
0.000273364
9.48525e-06
0.000264107
9.25697e-06
0.000255036
9.07051e-06
0.000246116
8.9203e-06
0.000237284
8.83258e-06
0.000228461
8.82438e-06
0.000219583
8.87812e-06
0.000210511
9.073e-06
0.000201271
9.2401e-06
0.000191766
9.50513e-06
0.00018229
9.4754e-06
0.000173022
9.2684e-06
0.000164514
8.50715e-06
0.000157273
7.23966e-06
0.000151598
5.67434e-06
0.000147272
4.32596e-06
0.000142665
4.60556e-06
0.000135463
7.20104e-06
0.000124941
1.05205e-05
0.000112448
1.24921e-05
0.000102575
9.8739e-06
9.77338e-05
4.84212e-06
9.69637e-05
7.71605e-07
9.7187e-05
-2.21668e-07
9.44038e-05
2.78404e-06
8.69044e-05
7.50032e-06
7.71834e-05
9.72265e-06
6.71775e-05
1.00078e-05
6.1391e-05
5.78795e-06
6.58087e-05
-4.4163e-06
8.15448e-05
-1.57355e-05
0.000103549
-2.20056e-05
0.000127899
-2.43503e-05
0.000151474
-2.35776e-05
0.00017548
-2.40072e-05
0.000200403
-2.49254e-05
0.000231179
-3.07782e-05
0.000267428
-3.625e-05
0.000313885
-4.64575e-05
0.0003608
-4.69147e-05
0.000400441
-3.96417e-05
0.000417359
-1.69176e-05
0.000414953
2.40903e-06
0.000393241
2.17126e-05
0.00037244
2.08022e-05
0.000363399
9.04487e-06
0.000388215
-2.48153e-05
0.000458814
-7.05988e-05
0.000561202
-0.000102388
0.000712057
-0.000150857
0.000867894
-0.000155838
0.0010618
-0.000193902
0.00123751
-0.000175718
0.00144275
-0.00020524
0.00161092
-0.000168172
0.0018176
-0.000206676
0.00199371
-0.000176113
0.00227632
-0.000282605
-0.000359179
0.0336923
0.0163098
-0.03725
0.0277611
0.0132955
0.0222112
0.0092016
0.017938
0.00605023
0.0148918
0.00401877
0.0127311
0.00278409
0.0111436
0.00203368
0.00992621
0.0015572
0.00895862
0.00123699
0.00816793
0.0010108
0.00750739
0.000844527
0.00694569
0.000718282
0.00646105
0.000619871
0.0060378
0.000541485
0.00566433
0.000477915
0.00533187
0.000425564
0.00503361
0.000381873
0.00476425
0.00034498
0.00451953
0.000313505
0.00429603
0.000286404
0.00409093
0.000262879
0.00390194
0.00024231
0.00372711
0.000224207
0.00356482
0.00020818
0.00341369
0.000193915
0.00327254
0.000181156
0.00314035
0.000169692
0.00301625
0.000159349
0.00289947
0.000149981
0.00278935
0.000141466
0.00268529
0.0001337
0.00258679
0.000126594
0.00249338
0.000120076
0.00240465
0.000114082
0.00232024
0.000108559
0.0022398
0.000103462
0.00216305
9.87461e-05
0.00208971
9.43753e-05
0.00201955
9.03129e-05
0.00195233
8.65303e-05
0.00188788
8.29993e-05
0.00182599
7.9701e-05
0.00176652
7.66136e-05
0.00170931
7.37249e-05
0.00165421
7.10151e-05
0.00160109
6.84757e-05
0.00154983
6.60874e-05
0.00150033
6.38435e-05
0.00145249
6.17252e-05
0.0014062
5.97265e-05
0.0013614
5.78311e-05
0.001318
5.6032e-05
0.00127594
5.43202e-05
0.00123515
5.26844e-05
0.00119558
5.11244e-05
0.00115718
4.96196e-05
0.0011199
4.81814e-05
0.00108371
4.67852e-05
0.00104854
4.54579e-05
0.00101437
4.41848e-05
0.000981102
4.2998e-05
0.000948683
4.1904e-05
0.000917016
4.0924e-05
0.000885988
4.00995e-05
0.000855452
3.94567e-05
0.000825239
3.90467e-05
0.000795094
3.89693e-05
0.00076484
3.91321e-05
0.000734108
3.98051e-05
0.000702983
4.03636e-05
0.000671308
4.11794e-05
0.000639994
4.07885e-05
0.000609629
3.96335e-05
0.000581963
3.61722e-05
0.000558221
3.09817e-05
0.00053933
2.45646e-05
0.000523843
1.98121e-05
0.000506873
2.15746e-05
0.000481725
3.23484e-05
0.000447273
4.49717e-05
0.00040866
5.1106e-05
0.000379458
3.90781e-05
0.000365228
1.90732e-05
0.000362763
3.2371e-06
0.000361663
8.785e-07
0.000351277
1.31707e-05
0.000327815
3.09616e-05
0.000298876
3.86623e-05
0.000271096
3.77879e-05
0.00025905
1.78352e-05
0.000279543
-2.49099e-05
0.000333001
-6.91938e-05
0.000405716
-9.47227e-05
0.000484057
-0.000102693
0.00056248
-0.000102002
0.000641251
-0.000102778
0.000727141
-0.000110816
0.00082902
-0.000132657
0.000951704
-0.000158934
0.00109881
-0.000193562
0.00124625
-0.000194356
0.001363
-0.00015639
0.00141528
-6.92007e-05
0.00140948
8.2069e-06
0.00136012
7.10704e-05
0.00132173
5.91883e-05
0.00133778
-7.00154e-06
0.00146254
-0.000149577
0.00172957
-0.000337626
0.00209672
-0.000469534
0.00259671
-0.000650852
0.00312347
-0.000682605
0.00374502
-0.000815444
0.00432487
-0.000755568
0.00497684
-0.000857217
0.00553054
-0.000721867
0.00619541
-0.000871551
0.00677549
-0.000756187
0.00768203
-0.00118915
-0.00146336
0.0414618
0.0160003
-0.0411524
0.0391785
0.0155788
0.0352545
0.0131256
0.0309725
0.0103322
0.0270607
0.00793063
0.0237735
0.00607127
0.0211001
0.00470704
0.018932
0.00372535
0.0171546
0.00301438
0.0156755
0.00248993
0.0144257
0.00209429
0.0133551
0.00178895
0.0124266
0.00154832
0.0116129
0.00135518
0.0108932
0.00119766
0.0102513
0.00106739
0.00967491
0.000958307
0.00915392
0.00086597
0.00868038
0.000787039
0.00824781
0.000718978
0.00785086
0.00065983
0.0074851
0.000608066
0.00714683
0.000562479
0.00683291
0.000522099
0.00654069
0.000486143
0.00626787
0.000453974
0.0060125
0.000425065
0.00577287
0.000398979
0.0055475
0.000375352
0.00533509
0.000353875
0.0051345
0.000334288
0.00494472
0.000316369
0.00476487
0.000299934
0.00459413
0.000284823
0.00443178
0.000270901
0.00427719
0.000258051
0.00412978
0.000246164
0.00398901
0.000235144
0.00385442
0.000224902
0.00372558
0.000215366
0.00360212
0.000206466
0.00348366
0.000198152
0.00336991
0.000190371
0.00326054
0.000183088
0.0031553
0.000176257
0.00305393
0.000169851
0.00295619
0.000163826
0.00286187
0.00015816
0.00277079
0.000152812
0.00268275
0.000147762
0.00259761
0.000142975
0.00251521
0.000138432
0.00243541
0.000134113
0.0023581
0.000129992
0.00228316
0.000126066
0.00221049
0.000122293
0.00213997
0.000118695
0.00207154
0.000115221
0.00200506
0.000111933
0.00194045
0.000108793
0.00187756
0.000105887
0.00181626
0.000103204
0.00175636
0.000100829
0.00169766
9.87996e-05
0.00163988
9.7236e-05
0.00158275
9.61763e-05
0.00152583
9.58931e-05
0.00146884
9.61224e-05
0.00141121
9.74323e-05
0.00135315
9.84274e-05
0.00129451
9.98179e-05
0.00123691
9.83824e-05
0.0011814
9.51465e-05
0.001131
8.65678e-05
0.00108744
7.45458e-05
0.00105217
5.98338e-05
0.00102187
5.0108e-05
0.0009883
5.51463e-05
0.000940569
8.0078e-05
0.000878201
0.000107339
0.000811106
0.000118202
0.000761914
8.82719e-05
0.000737959
4.30296e-05
0.000733148
8.04858e-06
0.000728851
5.17551e-06
0.000708679
3.33424e-05
0.000667883
7.17578e-05
0.0006198
8.67459e-05
0.00057672
8.08694e-05
0.000564342
3.02129e-05
0.000609453
-7.0021e-05
0.000709755
-0.000169497
0.000842759
-0.000227729
0.000984226
-0.000244162
0.00112817
-0.000245944
0.00127272
-0.000247335
0.00143391
-0.000272003
0.0016217
-0.000320452
0.00184812
-0.000385349
0.00210941
-0.000454848
0.00236783
-0.000452783
0.00256566
-0.000354217
0.00265844
-0.000161987
0.00265675
9.89632e-06
0.00259981
0.00012801
0.00257611
8.28918e-05
0.00266829
-9.91833e-05
0.00295507
-0.000436355
0.00349012
-0.000872678
0.00419635
-0.00117576
0.00511891
-0.00157342
0.00609193
-0.00165562
0.00721243
-0.00193595
0.00826731
-0.00181045
0.00943595
-0.00202585
0.010444
-0.00172995
0.0116453
-0.00207285
0.012704
-0.00181481
0.0143192
-0.00280437
-0.00340902
0.0459243
0.0146979
-0.0446219
0.0460124
0.0154907
0.0444396
0.0146984
0.0417219
0.0130499
0.0384837
0.0111688
0.0351833
0.00937165
0.0320883
0.00780209
0.0293131
0.00650051
0.0268769
0.00545058
0.0247538
0.00461303
0.0229029
0.00394526
0.0212822
0.0034096
0.0198547
0.00297578
0.0185893
0.00262061
0.0174604
0.00232661
0.016447
0.0020807
0.0155324
0.00187297
0.0147024
0.00169589
0.0139458
0.00154367
0.013253
0.00141181
0.012616
0.0012968
0.0120283
0.00119583
0.011484
0.00110669
0.0109786
0.00102756
0.0105078
0.000956972
0.010068
0.000893727
0.00965625
0.00083682
0.00926981
0.000785417
0.00890635
0.000738817
0.0085638
0.000696427
0.00824034
0.000657744
0.00793437
0.000622339
0.00764445
0.000589851
0.0073693
0.000559972
0.00710777
0.000532436
0.00685881
0.000507009
0.00662149
0.000483479
0.00639498
0.000461659
0.00617851
0.000441375
0.00597139
0.000422483
0.005773
0.00040485
0.00558278
0.000388376
0.00540019
0.000372957
0.00522476
0.000358519
0.00505605
0.000344974
0.00489363
0.000332263
0.00473715
0.000320305
0.00458626
0.000309052
0.00444065
0.000298428
0.00430002
0.000288392
0.00416411
0.00027888
0.00403269
0.000269853
0.00390553
0.000261277
0.00378241
0.000253102
0.00366316
0.000245325
0.00354758
0.00023787
0.0034355
0.000230777
0.00332676
0.000223959
0.00322116
0.000217531
0.00311853
0.000211418
0.00301863
0.00020579
0.00292124
0.000200594
0.00282604
0.000196027
0.00273276
0.000192083
0.00264095
0.000189048
0.00255024
0.000186885
0.00245999
0.00018614
0.00236988
0.000186237
0.00227914
0.000188166
0.00218819
0.00018938
0.00209695
0.000191055
0.00200786
0.000187472
0.00192241
0.000180599
0.00184493
0.000164041
0.00177745
0.000142029
0.00172175
0.000115533
0.00167216
9.96923e-05
0.00161708
0.000110233
0.00154174
0.000155409
0.00144743
0.000201649
0.00134944
0.000216195
0.00127934
0.000158372
0.00124502
7.73514e-05
0.00123674
1.63353e-05
0.00122719
1.47204e-05
0.00119532
6.52135e-05
0.00113627
0.000130811
0.00107005
0.000152964
0.00101546
0.000135458
0.00100992
3.57544e-05
0.00108917
-0.000149266
0.00124632
-0.000326654
0.00144999
-0.000431403
0.00166487
-0.000459043
0.00188593
-0.000467003
0.00210891
-0.000470316
0.00236068
-0.000523778
0.00265083
-0.000610599
0.00299838
-0.000732895
0.00338808
-0.000844548
0.00376802
-0.000832729
0.00405382
-0.000640012
0.00419561
-0.000303785
0.00421266
-7.15118e-06
0.00417555
0.00016512
0.00420866
4.97802e-05
0.00443669
-0.00032721
0.00495563
-0.000955291
0.00583757
-0.00175463
0.00696263
-0.00230082
0.00838918
-0.00299997
0.00988754
-0.00315398
0.0115887
-0.00363706
0.0131938
-0.00341557
0.0149616
-0.00379366
0.0164991
-0.00326743
0.0183271
-0.00390084
0.0199474
-0.00343519
0.0223548
-0.00521169
-0.00630196
0.049392
0.0135022
-0.0481963
0.0503587
0.014524
0.0503815
0.0146757
0.049365
0.0140663
0.0475265
0.0130074
0.0451578
0.0117403
0.0425304
0.0104295
0.0398504
0.00918053
0.0372525
0.00804846
0.0348113
0.00705425
0.032559
0.00619752
0.0305017
0.00546686
0.0286312
0.00484634
0.0269324
0.00431934
0.0253885
0.00387058
0.0239824
0.00348677
0.0226986
0.00315679
0.021523
0.0028715
0.0204432
0.00262342
0.0194486
0.00240648
0.0185296
0.00221577
0.0176782
0.00204726
0.0168872
0.00189765
0.0161505
0.00176424
0.0154627
0.00164475
0.0148191
0.00153733
0.0142156
0.00144038
0.0136484
0.00135259
0.0131144
0.00127283
0.0126107
0.00120013
0.0121347
0.00113369
0.0116843
0.00107279
0.0112573
0.00101684
0.010852
0.000965328
0.0104666
0.000917805
0.0100997
0.000873881
0.00974999
0.0008332
0.0094162
0.000795445
0.00909725
0.000760324
0.00879214
0.000727594
0.00849996
0.000697032
0.00821987
0.000668462
0.00795112
0.000641711
0.00769299
0.000616648
0.00744484
0.000593121
0.00720608
0.000571028
0.00697615
0.000550232
0.00675455
0.000530646
0.00654083
0.000512148
0.00633456
0.000494662
0.00613536
0.000478089
0.00594285
0.000462362
0.0057567
0.000447423
0.0055766
0.000433198
0.00540225
0.000419677
0.00523337
0.000406745
0.00506968
0.000394469
0.00491092
0.000382714
0.00475679
0.000371669
0.004607
0.000361204
0.00446118
0.00035161
0.00431902
0.000342758
0.00418003
0.000335008
0.00404386
0.000328262
0.00390986
0.000323046
0.00377759
0.000319155
0.0036462
0.000317526
0.00351537
0.000317074
0.00338417
0.00031936
0.00325333
0.000320226
0.00312288
0.000321507
0.00299616
0.000314189
0.00287509
0.000301666
0.0027653
0.000273829
0.00266885
0.000238476
0.00258767
0.00019672
0.00251333
0.000174024
0.00243105
0.000192517
0.00232266
0.000263792
0.00219229
0.000332017
0.00206098
0.000347514
0.00196886
0.000250487
0.00192307
0.000123144
0.00190972
2.96878e-05
0.00189268
3.17588e-05
0.00184745
0.000110448
0.00176991
0.00020835
0.0016877
0.00023517
0.00162684
0.000196319
0.00163675
2.58481e-05
0.00176067
-0.000273191
0.00198558
-0.000551563
0.00227109
-0.000716909
0.0025705
-0.00075846
0.00288122
-0.000777726
0.0031963
-0.0007854
0.00355507
-0.000882542
0.00396482
-0.00102035
0.00445128
-0.00121935
0.0049837
-0.00137697
0.00549643
-0.00134546
0.00587936
-0.00102294
0.00608359
-0.00050802
0.00614084
-6.44049e-05
0.00615989
0.000146069
0.00630094
-9.12666e-05
0.00673344
-0.000759707
0.00756203
-0.00178388
0.00887603
-0.00306864
0.0105045
-0.00392934
0.0125226
-0.00501804
0.0146307
-0.00526206
0.0170017
-0.00600811
0.01924
-0.00565388
0.0216989
-0.00625248
0.0238507
-0.00541926
0.0264043
-0.00645442
0.0286817
-0.00571256
0.031963
-0.00849306
-0.0102432
0.0528529
0.0126032
-0.0519538
0.053883
0.0134938
0.0545697
0.013989
0.0546426
0.0139933
0.0540491
0.013601
0.052858
0.0129314
0.0511982
0.0120893
0.049216
0.0111628
0.0470455
0.0102189
0.0447972
0.00930253
0.0425533
0.0084415
0.0403696
0.00765051
0.0382809
0.00693504
0.0363057
0.00629456
0.0344514
0.00572487
0.0327183
0.0052199
0.0311023
0.00477281
0.0295969
0.00437681
0.0281948
0.00402551
0.0268882
0.00371316
0.0256693
0.0034347
0.0245308
0.00318573
0.023466
0.00296248
0.0224685
0.00276167
0.0215328
0.00258051
0.0206535
0.00241659
0.019826
0.00226785
0.0190461
0.0021325
0.0183099
0.00200902
0.017614
0.00189607
0.0169552
0.0017925
0.0163307
0.0016973
0.0157379
0.00160962
0.0151745
0.00152872
0.0146384
0.00145392
0.0141276
0.00138467
0.0136404
0.00132042
0.0131751
0.0012607
0.0127304
0.00120508
0.0123048
0.00115318
0.0118971
0.00110467
0.0115063
0.00105927
0.0111313
0.00101673
0.0107711
0.000976823
0.0104249
0.000939334
0.0100919
0.000904091
0.00977122
0.000870888
0.00946228
0.000839586
0.00916442
0.000810001
0.00887707
0.000782013
0.00859969
0.000755475
0.00833176
0.000730286
0.00807282
0.000706362
0.00782243
0.000683591
0.00758014
0.000661964
0.00734557
0.000641317
0.00711828
0.000621754
0.00689792
0.000603081
0.006684
0.000585587
0.00647613
0.000569069
0.00627377
0.000553973
0.00607647
0.000540061
0.00588357
0.000527905
0.00569458
0.000517249
0.00550869
0.00050894
0.00532537
0.000502481
0.00514357
0.000499324
0.00496303
0.000497618
0.00478271
0.000499678
0.00460373
0.0004992
0.00442629
0.000498952
0.00425471
0.000485762
0.00409127
0.000465107
0.00394283
0.000422264
0.00381123
0.000370074
0.00369833
0.000309624
0.0035927
0.000279655
0.00347672
0.000308489
0.00332941
0.000411102
0.00315876
0.000502668
0.00299153
0.000514746
0.00287589
0.000366125
0.00281696
0.000182081
0.00279639
5.02572e-05
0.00276946
5.86918e-05
0.0027096
0.000170309
0.00261412
0.000303823
0.00251928
0.000330017
0.00245885
0.000256749
0.00249397
-9.2768e-06
0.00267402
-0.000453234
0.00297813
-0.000855675
0.00335726
-0.00109605
0.00375286
-0.00115406
0.00416651
-0.00119137
0.0045879
-0.0012068
0.00507068
-0.00136532
0.00561743
-0.0015671
0.00626066
-0.00186258
0.00695007
-0.00206637
0.00760824
-0.00200363
0.00810051
-0.00151522
0.00838622
-0.000793728
0.00851192
-0.000190105
0.00863161
2.63799e-05
0.00893874
-0.000398398
0.00965037
-0.00147134
0.0108703
-0.0030038
0.0127049
-0.0049032
0.014925
-0.00614946
0.0176262
-0.00771921
0.0204337
-0.00806961
0.0235709
-0.00914535
0.0265341
-0.00861708
0.0297849
-0.00950322
0.032647
-0.00828135
0.0360319
-0.00983931
0.0390748
-0.00875551
0.0433104
-0.0127286
-0.015325
0.056576
0.0119153
-0.0558881
0.0574308
0.012639
0.0582293
0.0131905
0.0587586
0.013464
0.0588968
0.0134628
0.058598
0.0132301
0.0578716
0.0128157
0.0567651
0.0122693
0.0553468
0.0116372
0.0536918
0.0109575
0.0518733
0.01026
0.0499565
0.0095673
0.0479959
0.00889569
0.0460343
0.00825611
0.0441039
0.00765533
0.042227
0.00709679
0.0404183
0.00658147
0.0386866
0.00610856
0.037036
0.0056761
0.0354677
0.00528149
0.0339805
0.00492181
0.0325722
0.00459406
0.0312394
0.0042953
0.0299783
0.00402277
0.0287849
0.00377388
0.0276552
0.00354628
0.0265852
0.00333783
0.0255711
0.00314661
0.0246093
0.0029709
0.0236962
0.00280916
0.0228287
0.00266002
0.0220037
0.00252228
0.0212184
0.00239486
0.0204704
0.00227681
0.019757
0.0021673
0.0190761
0.00206558
0.0184255
0.00197094
0.0178035
0.00188274
0.0172082
0.0018004
0.016638
0.00172341
0.0160913
0.00165131
0.0155669
0.00158372
0.0150633
0.00152027
0.0145795
0.00146066
0.0141142
0.00140458
0.0136666
0.00135177
0.0132355
0.00130196
0.0128202
0.00125493
0.0124197
0.00121042
0.0120335
0.00116827
0.0116607
0.00112828
0.0113007
0.00109029
0.0109528
0.00105419
0.0106166
0.00101984
0.0102913
0.000987229
0.00997649
0.000956132
0.00967153
0.000926713
0.00937591
0.000898705
0.00908897
0.000872528
0.00881016
0.000847882
0.00853871
0.000825415
0.00827405
0.00080473
0.00801528
0.000786671
0.00776179
0.000770735
0.00751256
0.000758178
0.007267
0.000748043
0.00702388
0.00074244
0.00678308
0.00073842
0.00654347
0.000739283
0.00630672
0.000735951
0.00607316
0.000732517
0.0058482
0.000710717
0.00563434
0.000678962
0.00543962
0.000616985
0.00526534
0.000544358
0.00511314
0.000461822
0.00496846
0.000424336
0.00481145
0.000465498
0.00461887
0.000603675
0.00440351
0.000718031
0.00419747
0.000720789
0.00405624
0.000507353
0.00398179
0.000256531
0.00395135
8.06981e-05
0.00391205
9.79969e-05
0.00383671
0.00024565
0.0037247
0.000415826
0.00362182
0.000432898
0.00356997
0.000308606
0.00364103
-8.03351e-05
0.00388924
-0.000701447
0.00428434
-0.00125077
0.00476923
-0.00158094
0.00527281
-0.00165764
0.0058028
-0.00172136
0.00634456
-0.00174856
0.00696818
-0.00198895
0.00766864
-0.00226757
0.00848604
-0.00267998
0.00934656
-0.00292689
0.0101645
-0.00282159
0.0107817
-0.00213237
0.0111735
-0.0011856
0.011402
-0.000418549
0.0116728
-0.000244409
0.0122083
-0.000933965
0.0132763
-0.00253931
0.0149701
-0.00469756
0.0174142
-0.00734731
0.0203151
-0.00905037
0.0237935
-0.0111976
0.0273943
-0.0116704
0.0314
-0.0131511
0.0351887
-0.0124058
0.0393401
-0.0136546
0.0430197
-0.0119609
0.0473454
-0.014165
0.0512755
-0.0126856
0.0565433
-0.0179965
-0.0216247
0.0605844
0.0113513
-0.0600204
0.0612699
0.0119535
0.0619861
0.0124744
0.06261
0.0128401
0.0630443
0.0130284
0.0632252
0.0130492
0.0631172
0.0129238
0.0627097
0.0126768
0.062013
0.0123339
0.0610516
0.0119189
0.0598597
0.0114519
0.0584769
0.0109501
0.0569441
0.0104284
0.0553014
0.00989886
0.0535854
0.00937131
0.0518285
0.0088537
0.0500579
0.00835208
0.0482956
0.00787083
0.0465588
0.00741286
0.0448604
0.0069799
0.0432095
0.0065727
0.0416123
0.00619126
0.0400726
0.00583504
0.0385923
0.00550309
0.0371719
0.00519423
0.0358111
0.0049071
0.0345086
0.00464031
0.0332628
0.00439243
0.0320716
0.00416207
0.0309329
0.0039479
0.0298442
0.00374866
0.0288033
0.00356318
0.0278078
0.00339038
0.0268554
0.00322927
0.0259437
0.00307897
0.0250706
0.00293863
0.0242341
0.00280746
0.0234321
0.0026847
0.0226629
0.00256967
0.0219245
0.00246174
0.0212155
0.00236035
0.0205342
0.00226502
0.0198792
0.0021753
0.019249
0.0020908
0.0186425
0.0020111
0.0180584
0.0019359
0.0174955
0.0018648
0.0169529
0.00179754
0.0164296
0.00173378
0.0159246
0.00167329
0.015437
0.00161581
0.0149662
0.00156115
0.0145112
0.00150917
0.0140714
0.00145967
0.0136459
0.00141267
0.0132342
0.00136788
0.0128353
0.00132555
0.0124487
0.00128532
0.0120734
0.0012478
0.0117088
0.00121254
0.0113537
0.00118047
0.0110075
0.00115096
0.010669
0.00112519
0.0103374
0.00110231
0.0100115
0.00108407
0.00969072
0.00106885
0.0093736
0.00105956
0.00906027
0.00105175
0.00874956
0.00104999
0.0084438
0.00104171
0.00814345
0.00103286
0.00785509
0.000999075
0.00758128
0.000952771
0.00733112
0.000867146
0.00710507
0.000770411
0.00690448
0.000662407
0.00671169
0.000617131
0.00650536
0.000671819
0.00626066
0.00084838
0.0059958
0.000982887
0.00574751
0.000969081
0.00557784
0.000677022
0.0054847
0.000349675
0.00544115
0.00012425
0.00538694
0.000152205
0.00529573
0.000336862
0.00516943
0.000542124
0.00506426
0.000538073
0.00503015
0.00034272
0.00514863
-0.000198822
0.00547729
-0.00103011
0.0059751
-0.00174858
0.00657778
-0.00218363
0.00720067
-0.00228053
0.00785985
-0.00238054
0.00853481
-0.00242352
0.00931478
-0.00276892
0.0101839
-0.00313665
0.0111917
-0.00368784
0.0122371
-0.00397229
0.0132311
-0.00381556
0.0139917
-0.00289302
0.0145193
-0.00171314
0.0148883
-0.000787613
0.015364
-0.000720067
0.0161893
-0.00175928
0.0176878
-0.00403785
0.0199338
-0.00694348
0.0230727
-0.0104862
0.0267416
-0.0127193
0.0310907
-0.0155467
0.035581
-0.0161607
0.0405613
-0.0181314
0.045285
-0.0171296
0.0504515
-0.0188211
0.0550669
-0.0165763
0.0604429
-0.019541
0.065392
-0.0176346
0.0717688
-0.0243733
-0.0292003
0.0648718
0.010866
-0.0643864
0.0654383
0.011387
0.0660473
0.0118654
0.0666336
0.0122537
0.0671348
0.0125273
0.0675023
0.0126818
0.0677008
0.0127252
0.0677065
0.0126711
0.0675062
0.0125342
0.0670959
0.0123292
0.0664792
0.0120686
0.0656665
0.0117628
0.0646735
0.0114214
0.06352
0.0110524
0.0622285
0.0106628
0.060823
0.0102592
0.0593277
0.0098474
0.0577658
0.00943269
0.056159
0.00901965
0.0545267
0.00861227
0.0528855
0.00821387
0.0512497
0.00782711
0.0496307
0.00745404
0.0480377
0.00709608
0.0464778
0.00675415
0.0449562
0.00642873
0.0434765
0.00611992
0.0420414
0.00582757
0.0406522
0.00555129
0.0393095
0.00529055
0.0380135
0.00504471
0.0367636
0.00481308
0.035559
0.00459494
0.0343987
0.00438959
0.0332813
0.00419632
0.0322055
0.00401443
0.0311698
0.0038432
0.0301726
0.00368193
0.0292123
0.00352992
0.0282875
0.00338654
0.0273967
0.00325118
0.0265384
0.00312335
0.0257111
0.00300254
0.0249136
0.00288832
0.0241445
0.00278022
0.0234025
0.00267786
0.0226865
0.00258079
0.0219954
0.00248869
0.021328
0.00240115
0.0206834
0.00231788
0.0200607
0.00223859
0.0194588
0.00216302
0.0188769
0.00209105
0.0183141
0.00202243
0.0177696
0.00195722
0.0172424
0.00189506
0.0167316
0.00183632
0.0162364
0.00178056
0.0157556
0.00172861
0.0152883
0.00167987
0.0148331
0.00163558
0.0143893
0.00159483
0.0139552
0.00155924
0.0135301
0.00152744
0.0131124
0.0015018
0.0127015
0.00147974
0.0122959
0.00146518
0.011896
0.00145166
0.0115006
0.00144538
0.0111128
0.00142943
0.0107334
0.00141234
0.0103699
0.00136252
0.0100249
0.00129775
0.00970847
0.0011836
0.00941984
0.00105904
0.00916012
0.000922128
0.00890872
0.000868524
0.00864379
0.000936755
0.00833941
0.00115276
0.00801971
0.00130258
0.00772496
0.00126384
0.00752304
0.000878947
0.00740712
0.000465593
0.00734666
0.000184712
0.00727496
0.000223909
0.00716779
0.000444028
0.00703011
0.000679801
0.00692931
0.000638875
0.00692296
0.000349073
0.00710038
-0.000376239
0.00752157
-0.0014513
0.00813321
-0.00236021
0.008865
-0.00291543
0.00961726
-0.0030328
0.0104169
-0.00318013
0.0112353
-0.00324194
0.0121842
-0.00371789
0.0132336
-0.00418599
0.0144461
-0.00490031
0.0156892
-0.00521539
0.0168768
-0.00500321
0.0178016
-0.0038178
0.0184971
-0.00240861
0.019045
-0.00133554
0.0197767
-0.00145176
0.0209465
-0.00292905
0.0229401
-0.00603151
0.0258063
-0.00980968
0.0297164
-0.0143963
0.0342348
-0.0172377
0.0395438
-0.0208556
0.0450195
-0.0216364
0.0510807
-0.0241926
0.0568566
-0.0229055
0.0631548
-0.0251194
0.0688343
-0.0222558
0.0753654
-0.0260721
0.0814694
-0.0237386
0.0890308
-0.0319348
-0.0380871
0.0694472
0.0104375
-0.0690188
0.0699317
0.0109025
0.0704534
0.0113437
0.0709767
0.0117304
0.0714619
0.0120421
0.0718751
0.0122685
0.0721904
0.0124099
0.0723886
0.012473
0.0724554
0.0124674
0.0723811
0.0124036
0.0721587
0.012291
0.0717845
0.012137
0.0712579
0.011948
0.0705812
0.0117291
0.0697598
0.0114842
0.0688021
0.0112169
0.0677191
0.0109304
0.0665241
0.0106277
0.065232
0.0103118
0.0638583
0.00998593
0.062419
0.00965314
0.0609297
0.00931649
0.0594048
0.0089789
0.0578578
0.00864303
0.0563007
0.00831124
0.0547439
0.00798555
0.0531962
0.00766762
0.051665
0.00735877
0.0501563
0.00705997
0.048675
0.00677193
0.0472246
0.00649509
0.045808
0.00622968
0.0444271
0.00597577
0.0430834
0.00573332
0.0417776
0.00550216
0.04051
0.00528206
0.0392805
0.00507266
0.0380889
0.00487353
0.0369346
0.0046842
0.035817
0.00450419
0.0347351
0.00433301
0.0336882
0.00417027
0.0326752
0.00401551
0.0316952
0.00386837
0.0307471
0.00372837
0.0298298
0.00359515
0.0289423
0.00346825
0.0280837
0.00334731
0.0272529
0.00323191
0.0264491
0.00312174
0.0256712
0.00301648
0.0249183
0.00291586
0.0241896
0.00281978
0.0234841
0.00272794
0.0228008
0.00264051
0.0221388
0.00255708
0.0214969
0.00247819
0.0208742
0.00240328
0.0202693
0.00233351
0.0196811
0.00226808
0.019108
0.00220866
0.0185488
0.00215398
0.0180019
0.00210617
0.0174662
0.00206319
0.0169398
0.00202816
0.0164223
0.00199722
0.015912
0.00197548
0.0154098
0.0019539
0.0149144
0.00194073
0.0144301
0.00191377
0.0139574
0.00188504
0.0135054
0.0018145
0.0130763
0.00172691
0.0126808
0.00157903
0.012317
0.00142288
0.0119856
0.00125349
0.0116636
0.00119052
0.0113296
0.00127076
0.0109572
0.00152519
0.0105765
0.00168326
0.01023
0.0016103
0.00999091
0.00111809
0.00984717
0.000609337
0.00976537
0.00026651
0.00967342
0.000315863
0.00955033
0.000567119
0.00940459
0.00082554
0.00931522
0.000728244
0.0093469
0.000317391
0.00959423
-0.000623563
0.0101192
-0.00197629
0.0108545
-0.00309551
0.0117253
-0.00378618
0.0126147
-0.00392222
0.013563
-0.00412847
0.0145308
-0.00420974
0.0156565
-0.00484361
0.0168925
-0.00542192
0.0183201
-0.00632798
0.0197718
-0.00666701
0.021171
-0.00640249
0.0222805
-0.00492728
0.0231755
-0.00330357
0.0239358
-0.00209587
0.0249661
-0.00248202
0.0265203
-0.00448334
0.0290559
-0.00856706
0.0325933
-0.0133471
0.0373357
-0.0191387
0.0427746
-0.0226766
0.0491231
-0.0272041
0.0556761
-0.0281894
0.0629193
-0.0314358
0.0698696
-0.0298557
0.0774141
-0.0326639
0.0842927
-0.0291344
0.0920756
-0.0338549
0.0994646
-0.0311276
0.108284
-0.0407544
-0.0482965
0.0743302
0.0100539
-0.0739466
0.0747555
0.0104772
0.0752112
0.0108879
0.0756767
0.0112649
0.0761261
0.0115927
0.0765349
0.0118598
0.0768831
0.0120617
0.0771562
0.0121998
0.0773439
0.0122797
0.0774389
0.0123086
0.0774354
0.0122944
0.0773284
0.012244
0.0771136
0.0121628
0.0767872
0.0120555
0.0763461
0.0119254
0.0757883
0.0117747
0.0751138
0.011605
0.074324
0.0114174
0.073423
0.0112129
0.0724165
0.0109924
0.0713124
0.0107572
0.0701201
0.0105088
0.06885
0.010249
0.0675134
0.00997961
0.0661218
0.00970284
0.0646866
0.00942082
0.0632185
0.00913564
0.061728
0.00884934
0.0602242
0.00856376
0.0587155
0.00828056
0.0572094
0.0080012
0.0557122
0.0077269
0.0542293
0.00745868
0.0527652
0.0071974
0.0513237
0.00694369
0.0499077
0.00669806
0.0485195
0.0064608
0.047161
0.00623204
0.0458335
0.00601177
0.0445377
0.00579991
0.0432745
0.0055963
0.0420439
0.00540083
0.0408461
0.00521326
0.0396811
0.00503345
0.0385484
0.00486105
0.0374477
0.00469584
0.0363785
0.00453742
0.0353403
0.00438552
0.0343325
0.00423975
0.0333544
0.00409984
0.0324053
0.00396551
0.0314847
0.00383652
0.0305916
0.00371284
0.0297254
0.00359419
0.028885
0.0034809
0.0280696
0.00337249
0.0272779
0.00326981
0.026509
0.00317217
0.0257614
0.00308116
0.0250337
0.00299575
0.0243242
0.00291819
0.0236314
0.00284671
0.0229535
0.00278414
0.0222891
0.00272756
0.0216363
0.00268099
0.0209946
0.00263889
0.0203622
0.00260785
0.0197406
0.00257551
0.0191286
0.00255269
0.0185316
0.00251086
0.01795
0.00246661
0.0173944
0.00237009
0.0168663
0.00225498
0.0163775
0.00206786
0.015924
0.00187635
0.0155068
0.00167074
0.0151006
0.00159666
0.0146858
0.00168558
0.0142359
0.0019751
0.013787
0.00213217
0.0133823
0.00201494
0.0130997
0.00140071
0.0129221
0.000786977
0.0128139
0.000374747
0.0126986
0.000431136
0.0125593
0.000706362
0.0124088
0.00097608
0.0123379
0.000799135
0.0124172
0.000238076
0.0127441
-0.000950422
0.0133825
-0.00261474
0.0142492
-0.00396216
0.0152663
-0.00480327
0.0162972
-0.00495317
0.0173982
-0.00522945
0.0185149
-0.0053265
0.0198178
-0.00614644
0.0212387
-0.00684288
0.0228862
-0.0079755
0.0245532
-0.00833395
0.02618
-0.00802933
0.0274914
-0.00623864
0.0286117
-0.00442391
0.0296071
-0.00309124
0.0309616
-0.00383647
0.032918
-0.00643983
0.0360157
-0.0116647
0.0402508
-0.0175822
0.0458648
-0.0247526
0.0522797
-0.0290915
0.0597315
-0.0346559
0.0674447
-0.0359026
0.0759592
-0.0399503
0.0842063
-0.0381028
0.0931044
-0.041562
0.101319
-0.0373487
0.110439
-0.0429751
0.119225
-0.0399136
0.12937
-0.0508997
-0.0598176
0.0795426
0.00970522
-0.079194
0.0799232
0.0100966
0.0803288
0.0104823
0.0807467
0.010847