/*--------------------------------*- C++ -*----------------------------------*\
| =========                 |                                                 |
| \\      /  F ield         | OpenFOAM: The Open Source CFD Toolbox           |
|  \\    /   O peration     | Version:  2412                                  |
|   \\  /    A nd           | Website:  www.openfoam.com                      |
|    \\/     M anipulation  |                                                 |
\*---------------------------------------------------------------------------*/
FoamFile
{
    version     2.0;
    format      ascii;
    arch        "LSB;label=32;scalar=64";
    class       volScalarField;
    location    "0.55";
    object      p;
}
// * * * * * * * * * * * * * * * * * * * * * * * * * * * * * * * * * * * * * //

dimensions      [0 2 -2 0 0 0 0];

internalField   nonuniform List<scalar> 
12600
(
2.18105
-83.5546
-63.0058
-11.3873
33.3121
67.6363
94.9962
117.753
137.219
154.168
169.05
182.243
194.046
204.66
214.255
222.934
230.787
237.9
244.366
250.302
255.793
260.678
264.781
269.11
273.469
276.701
278.633
281.45
284.384
286.89
289.115
291.034
292.737
294.303
295.762
297.092
298.288
299.375
300.376
301.297
302.14
302.911
303.619
304.273
304.877
305.43
305.931
306.386
306.8
307.178
307.526
307.851
308.168
308.489
308.826
309.186
309.571
309.965
310.329
310.585
310.624
310.319
309.567
308.393
306.97
305.603
304.511
303.773
303.289
302.924
302.563
301.896
300.74
298.837
296.058
293.425
292.199
296.845
305.986
321.91
323.898
297.544
287.611
210.312
180.02
229.83
212.432
226.693
222.642
221.747
212.538
188.069
141.946
103.989
105.912
153.045
240.585
339.232
424.138
483.667
520.168
535.287
543.319
545.225
547.899
550.708
551.601
545.242
531.123
518.459
519.096
535.632
541.288
548.875
547.771
550.573
548.157
548.043
545.973
543.039
62.7069
-15.9952
-27.1013
-1.37506
32.1418
63.6318
90.665
113.664
133.474
150.769
166.041
179.599
191.724
202.598
212.434
221.345
229.383
236.672
243.288
249.33
254.899
259.919
264.271
268.483
272.597
276.007
278.497
281.381
284.147
286.605
288.853
290.777
292.496
294.098
295.589
296.936
298.141
299.242
300.259
301.195
302.048
302.826
303.543
304.206
304.818
305.376
305.883
306.343
306.763
307.146
307.497
307.825
308.144
308.466
308.802
309.161
309.543
309.936
310.3
310.561
310.608
310.318
309.586
308.434
307.028
305.66
304.561
303.809
303.314
302.941
302.581
301.93
300.804
298.945
296.196
293.553
292.212
296.65
305.528
321.487
324.05
297.965
288.634
212.114
180.137
229.387
212.494
226.509
222.649
221.856
212.997
189.142
143.239
104.659
105.484
151.36
238.17
336.78
422.211
482.386
519.471
534.97
543.187
545.166
547.828
550.656
551.648
545.489
531.45
518.618
518.917
535.376
541.133
548.798
547.749
550.566
548.182
548.062
546.023
543.067
89.0812
31.2801
5.43604
13.0725
37.1177
64.3809
89.7081
112.125
131.804
149.125
164.458
178.115
190.355
201.352
211.268
220.237
228.39
235.801
242.517
248.618
254.187
259.245
263.857
267.932
271.798
275.51
278.687
281.463
283.983
286.405
288.664
290.597
292.335
293.965
295.475
296.832
298.046
299.157
300.185
301.13
301.99
302.773
303.495
304.164
304.78
305.341
305.852
306.316
306.74
307.125
307.479
307.809
308.128
308.451
308.787
309.145
309.525
309.917
310.28
310.543
310.596
310.318
309.601
308.461
307.061
305.693
304.591
303.832
303.33
302.951
302.592
301.949
300.841
299.011
296.286
293.642
292.215
296.53
305.285
321.227
324.167
298.222
289.247
212.905
180.166
229.184
212.52
226.403
222.656
221.923
213.253
189.668
143.936
105.035
105.197
150.614
237.136
335.751
421.355
481.804
519.143
534.818
543.123
545.136
547.794
550.628
551.675
545.584
531.592
518.692
518.846
535.273
541.067
548.764
547.739
550.562
548.192
548.071
546.041
543.077
97.8973
61.8123
35.9522
32.4455
46.1364
67.3778
89.8999
111.111
130.308
147.474
162.804
176.533
188.877
199.994
210.025
219.1
227.339
234.843
241.695
247.898
253.511
258.58
263.293
267.469
271.268
275.051
278.69
281.369
283.744
286.137
288.423
290.385
292.148
293.804
295.331
296.701
297.928
299.053
300.093
301.047
301.915
302.706
303.435
304.11
304.731
305.298
305.813
306.282
306.71
307.099
307.455
307.787
308.108
308.431
308.767
309.123
309.503
309.893
310.257
310.524
310.584
310.319
309.618
308.494
307.107
305.739
304.63
303.86
303.349
302.965
302.608
301.978
300.895
299.098
296.395
293.741
292.212
296.358
304.902
320.908
324.317
298.592
290.09
214.368
180.117
228.841
212.601
226.256
222.669
222.021
213.662
190.539
144.955
105.495
104.752
149.115
234.99
333.684
419.765
480.762
518.585
534.568
543.018
545.089
547.736
550.588
551.719
545.797
531.861
518.811
518.679
535.056
540.94
548.703
547.722
550.557
548.213
548.089
546.085
543.1
105.667
85.392
64.4669
54.7162
59.0742
73.3397
91.9208
111.174
129.469
146.256
161.453
175.168
187.555
198.75
208.869
218.029
226.349
233.938
240.866
247.162
252.86
257.962
262.707
267.027
270.939
274.642
278.229
280.993
283.445
285.91
288.17
290.181
291.967
293.643
295.184
296.569
297.81
298.948
299.999
300.963
301.839
302.637
303.373
304.055
304.682
305.253
305.774
306.247
306.679
307.072
307.431
307.765
308.088
308.411
308.747
309.102
309.48
309.869
310.234
310.504
310.573
310.321
309.638
308.53
307.152
305.784
304.669
303.889
303.369
302.98
302.624
302.007
300.949
299.187
296.509
293.842
292.2
296.177
304.537
320.577
324.47
298.971
290.893
215.366
179.921
228.526
212.657
226.108
222.684
222.119
214.029
191.333
145.891
105.884
104.229
147.851
233.305
331.99
418.408
479.861
518.091
534.344
542.925
545.046
547.683
550.55
551.762
545.961
532.084
518.912
518.558
534.886
540.836
548.652
547.707
550.552
548.23
548.103
546.116
543.118
114.826
103.678
88.0453
76.5223
74.8573
82.6084
96.3034
112.635
129.424
145.503
160.394
174
186.374
197.607
207.79
217.022
225.411
233.064
240.062
246.44
252.203
257.385
262.169
266.56
270.536
274.183
277.648
280.535
283.118
285.622
287.949
289.967
291.781
293.475
295.03
296.431
297.687
298.839
299.901
300.874
301.758
302.565
303.308
303.996
304.629
305.206
305.732
306.21
306.646
307.043
307.405
307.742
308.066
308.39
308.724
309.078
309.455
309.844
310.209
310.484
310.563
310.325
309.66
308.568
307.2
305.827
304.709
303.919
303.391
302.996
302.642
302.039
301.008
299.282
296.629
293.944
292.177
295.966
304.115
320.22
324.615
299.38
291.702
216.888
179.484
228.166
212.736
225.948
222.701
222.226
214.46
192.209
146.846
106.186
103.553
146.177
231.057
329.86
416.765
478.792
517.52
534.089
542.819
544.997
547.623
550.509
551.813
546.174
532.349
519.02
518.37
534.667
540.71
548.591
547.691
550.547
548.251
548.122
546.16
543.14
123.698
117.151
106.078
95.8683
91.5831
94.4472
103.231
115.896
130.429
145.305
159.627
172.995
185.296
196.536
206.769
216.067
224.52
232.23
239.284
245.727
251.567
256.835
261.66
266.084
270.086
273.728
277.127
280.103
282.833
285.378
287.642
289.775
291.604
293.302
294.871
296.288
297.559
298.725
299.798
300.781
301.674
302.489
303.24
303.935
304.574
305.157
305.688
306.171
306.612
307.012
307.378
307.717
308.042
308.367
308.701
309.053
309.428
309.816
310.183
310.463
310.552
310.33
309.684
308.609
307.25
305.883
304.75
303.95
303.413
303.013
302.662
302.076
301.071
299.384
296.753
294.042
292.137
295.724
303.652
319.826
324.734
299.796
292.46
217.885
178.669
227.773
212.827
225.777
222.718
222.336
214.903
193.088
147.736
106.344
102.695
144.472
228.813
327.682
415.06
477.681
516.922
533.823
542.71
544.946
547.56
550.465
551.866
546.381
532.612
519.121
518.22
534.45
540.583
548.53
547.674
550.543
548.273
548.14
546.201
543.162
131.758
127.711
120.158
112.242
107.463
107.418
112.259
121.188
132.876
145.934
159.262
172.161
184.282
195.49
205.76
215.125
223.649
231.421
238.532
245.035
250.946
256.296
261.171
265.612
269.633
273.3
276.695
279.742
282.546
285.125
287.415
289.457
291.409
293.14
294.707
296.142
297.428
298.607
299.692
300.684
301.587
302.41
303.169
303.871
304.516
305.105
305.641
306.13
306.576
306.98
307.349
307.69
308.017
308.342
308.675
309.027
309.4
309.787
310.155
310.441
310.542
310.337
309.71
308.652
307.303
305.928
304.792
303.982
303.437
303.031
302.684
302.116
301.139
299.491
296.881
294.135
292.077
295.443
303.131
319.381
324.799
300.201
293.128
218.881
177.294
227.329
212.936
225.596
222.733
222.446
215.375
193.961
148.512
106.301
101.608
142.345
226.2
325.219
413.156
476.45
516.264
533.532
542.592
544.892
547.491
550.419
551.924
546.611
532.891
519.219
517.967
534.204
540.444
548.465
547.656
550.538
548.297
548.161
546.249
543.186
139.328
136.913
131.736
125.806
121.508
120.197
122.448
128.228
136.967
147.744
159.569
171.619
183.34
194.415
204.693
214.128
222.74
230.595
237.778
244.349
250.331
255.757
260.686
265.156
269.209
272.915
276.332
279.43
282.272
284.864
287.173
289.265
291.173
292.944
294.562
295.987
297.294
298.487
299.583
300.585
301.496
302.328
303.096
303.805
304.456
305.05
305.593
306.087
306.538
306.946
307.318
307.662
307.991
308.316
308.648
308.998
309.369
309.756
310.126
310.418
310.531
310.344
309.738
308.698
307.357
305.981
304.834
304.014
303.461
303.051
302.709
302.157
301.211
299.603
297.01
294.218
291.99
295.114
302.544
318.867
324.781
300.577
293.653
219.577
175.181
226.813
213.066
225.406
222.742
222.559
215.862
194.784
149.104
106.002
100.262
140.261
223.382
322.547
411.08
475.111
515.546
533.216
542.464
544.834
547.417
550.368
551.983
546.848
533.177
519.31
517.753
533.942
540.296
548.395
547.637
550.533
548.323
548.184
546.299
543.211
146.579
145.261
141.563
137.075
133.585
132.01
132.83
136.336
142.502
150.908
160.863
171.638
182.613
193.337
203.518
212.994
221.707
229.677
236.964
243.626
249.694
255.202
260.196
264.715
268.815
272.568
276.015
279.144
282.003
284.602
286.931
289.04
290.99
292.752
294.357
295.872
297.162
298.365
299.472
300.483
301.403
302.244
303.019
303.735
304.393
304.994
305.542
306.043
306.498
306.911
307.286
307.633
307.963
308.288
308.619
308.966
309.336
309.722
310.094
310.393
310.519
310.352
309.768
308.745
307.412
306.032
304.875
304.046
303.486
303.072
302.729
302.202
301.288
299.72
297.139
294.285
291.866
294.73
301.877
318.261
324.645
300.926
293.97
219.789
172.164
226.192
213.22
225.21
222.745
222.633
216.352
195.507
149.438
105.39
98.6214
137.339
220.216
319.584
408.782
473.634
514.751
532.866
542.324
544.772
547.336
550.313
552.045
547.098
533.471
519.392
517.481
533.653
540.134
548.321
547.617
550.529
548.351
548.209
546.355
543.237
153.447
152.848
150.127
146.693
143.993
142.586
142.741
144.799
149.002
155.288
163.294
172.502
182.372
192.426
202.288
211.689
220.469
228.568
235.996
242.788
248.975
254.591
259.676
264.271
268.436
272.242
275.718
278.87
281.738
284.345
286.696
288.831
290.796
292.585
294.198
295.641
297.04
298.249
299.359
300.379
301.307
302.157
302.94
303.663
304.327
304.934
305.49
305.996
306.457
306.874
307.253
307.602
307.933
308.258
308.587
308.933
309.3
309.685
310.059
310.366
310.506
310.36
309.799
308.795
307.469
306.085
304.916
304.077
303.512
303.094
302.771
302.25
301.37
299.841
297.264
294.331
291.7
294.28
301.118
317.539
324.358
301.264
294.003
219.338
168.116
225.414
213.406
225.015
222.741
222.784
216.829
196.064
149.434
104.423
96.6521
134.587
216.735
316.32
406.246
472.004
513.867
532.474
542.169
544.704
547.247
550.25
552.107
547.353
533.77
519.463
517.19
533.34
539.96
548.242
547.595
550.524
548.382
548.235
546.415
543.265
159.908
159.81
157.814
155.159
153.083
151.952
151.875
153.107
155.95
160.538
166.765
174.34
182.872
191.953
201.204
210.304
219.016
227.192
234.77
241.731
248.084
253.853
259.071
263.778
268.034
271.904
275.419
278.596
281.479
284.1
286.476
288.632
290.614
292.414
294.045
295.524
296.854
298.121
299.256
300.272
301.212
302.069
302.86
303.589
304.26
304.873
305.435
305.948
306.415
306.837
307.219
307.571
307.902
308.226
308.554
308.896
309.261
309.644
310.021
310.335
310.491
310.367
309.831
308.847
307.528
306.137
304.954
304.107
303.537
303.118
302.795
302.301
301.456
299.964
297.382
294.348
291.484
293.752
300.247
316.676
323.876
301.598
293.691
218.013
163.051
224.404
213.632
224.833
222.731
222.842
217.27
196.382
149.021
103.058
94.3266
131.193
212.867
312.703
403.432
470.2
512.875
532.03
541.994
544.629
547.148
550.179
552.151
547.613
534.074
519.523
516.864
532.995
539.769
548.156
547.57
550.519
548.414
548.265
546.481
543.294
166.018
166.286
164.842
162.757
161.139
160.28
160.179
160.978
162.939
166.272
171.025
177.087
184.226
192.146
200.529
209.064
217.483
225.583
233.233
240.355
246.907
252.881
258.287
263.156
267.543
271.508
275.087
278.309
281.223
283.87
286.271
288.454
290.444
292.252
293.893
295.381
296.745
297.978
299.124
300.184
301.112
301.979
302.778
303.514
304.19
304.81
305.379
305.898
306.371
306.798
307.184
307.538
307.87
308.193
308.518
308.857
309.218
309.599
309.977
310.3
310.472
310.372
309.863
308.899
307.587
306.188
304.99
304.134
303.561
303.142
302.827
302.354
301.547
300.087
297.486
294.329
291.21
293.134
299.246
315.648
323.137
301.878
293.053
215.807
157.239
223.06
213.904
224.681
222.725
222.914
217.643
196.363
148.153
101.253
91.6212
127.524
208.576
308.695
400.309
468.2
511.755
531.522
541.794
544.546
547.038
550.096
552.253
547.874
534.38
519.568
516.504
532.617
539.56
548.063
547.543
550.513
548.45
548.296
546.553
543.326
171.819
172.345
171.316
169.659
168.389
167.763
167.717
168.299
169.712
172.167
175.782
180.557
186.389
193.102
200.464
208.218
216.109
223.916
231.47
238.648
245.364
251.558
257.201
262.294
266.871
270.983
274.671
277.977
280.953
283.645
286.079
288.285
290.288
292.106
293.75
295.25
296.621
297.874
299.01
300.044
301.04
301.896
302.695
303.437
304.119
304.746
305.322
305.848
306.326
306.758
307.148
307.504
307.837
308.158
308.48
308.814
309.171
309.549
309.929
310.26
310.449
310.374
309.894
308.953
307.647
306.238
305.026
304.158
303.584
303.166
302.86
302.411
301.64
300.21
297.573
294.267
290.868
292.408
298.078
314.439
322.044
301.967
292.287
212.913
151.254
221.262
214.217
224.582
222.734
222.973
217.912
195.913
146.787
98.9611
88.4991
123.328
203.797
304.239
396.834
465.977
510.484
530.932
541.563
544.453
546.912
549.998
552.287
548.13
534.688
519.6
516.108
532.199
539.331
547.962
547.513
550.506
548.488
548.331
546.631
543.36
177.333
178.031
177.318
175.999
175.002
174.562
174.585
175.063
176.141
178.002
180.776
184.521
189.22
194.791
201.094
207.942
215.124
222.432
229.687
236.746
243.494
249.84
255.709
261.06
265.89
270.222
274.091
277.539
280.623
283.392
285.879
288.119
290.14
291.969
293.628
295.135
296.51
297.768
298.915
299.957
300.893
301.808
302.62
303.36
304.049
304.681
305.263
305.796
306.281
306.717
307.111
307.47
307.803
308.122
308.44
308.768
309.119
309.493
309.873
310.212
310.419
310.371
309.924
309.008
307.709
306.287
305.048
304.177
303.604
303.189
302.893
302.469
301.735
300.328
297.633
294.152
290.446
291.557
296.711
313.028
320.473
301.678
291.707
209.803
145.835
218.879
214.567
224.562
222.777
223.033
218.03
194.937
144.89
96.1353
84.9096
118.594
198.467
299.276
392.959
463.502
509.037
530.238
541.294
544.347
546.769
549.881
552.317
548.378
534.998
519.617
515.675
531.74
539.077
547.852
547.479
550.499
548.529
548.368
546.716
543.397
182.577
183.388
182.923
181.875
181.092
180.794
180.882
181.312
182.183
183.642
185.812
188.767
192.535
197.102
202.398
208.309
214.679
221.337
228.117
234.869
241.473
247.822
253.818
259.387
264.484
269.095
273.223
276.893
280.15
283.047
285.626
287.926
289.986
291.84
293.514
295.034
296.418
297.673
298.822
299.871
300.832
301.704
302.529
303.293
303.975
304.615
305.204
305.744
306.235
306.677
307.075
307.435
307.768
308.085
308.397
308.719
309.062
309.431
309.81
310.156
310.381
310.363
309.95
309.063
307.772
306.337
305.088
304.19
303.619
303.21
302.925
302.527
301.832
300.439
297.662
293.975
289.93
290.562
295.091
311.383
318.339
300.797
291.567
206.964
141.531
215.787
214.943
224.649
222.879
223.109
217.943
193.352
142.437
92.7318
80.757
113.219
192.497
293.733
388.623
460.735
507.386
529.416
540.984
544.227
546.605
549.741
552.326
548.611
535.308
519.623
515.203
531.233
538.796
547.73
547.439
550.489
548.572
548.408
546.808
543.438
187.577
188.457
188.184
187.353
186.738
186.551
186.694
187.102
187.84
189.025
190.762
193.124
196.158
199.883
204.283
209.299
214.833
220.76
226.94
233.236
239.527
245.708
251.677
257.343
262.637
267.51
271.931
275.891
279.406
282.508
285.241
287.652
289.79
291.696
293.403
294.942
296.334
297.598
298.747
299.792
300.754
301.639
302.447
303.2
303.926
304.554
305.146
305.692
306.19
306.637
307.039
307.402
307.734
308.046
308.352
308.666
309
309.361
309.737
310.09
310.333
310.346
309.972
309.118
307.838
306.387
305.107
304.197
303.629
303.227
302.956
302.585
301.929
300.539
297.653
293.729
289.306
289.387
293.12
309.441
315.6
299.173
291.851
204.694
138.36
211.884
215.318
224.856
223.066
223.208
217.594
191.083
139.394
88.7158
75.9871
107.084
185.786
287.527
383.755
457.628
505.507
528.44
540.628
544.09
546.415
549.573
552.31
548.827
535.62
519.619
514.694
530.676
538.485
547.594
547.395
550.478
548.619
548.452
546.907
543.482
192.349
193.265
193.139
192.484
192.004
191.905
192.091
192.489
193.137
194.13
195.554
197.475
199.94
202.984
206.621
210.833
215.569
220.746
226.262
232.003
237.856
243.719
249.501
255.112
260.47
265.507
270.17
274.418
278.236
281.625
284.603
287.206
289.483
291.487
293.261
294.841
296.256
297.53
298.684
299.735
300.691
301.574
302.387
303.135
303.817
304.493
305.093
305.641
306.145
306.599
307.005
307.369
307.7
308.008
308.306
308.609
308.932
309.283
309.654
310.011
310.272
310.318
309.988
309.173
307.908
306.441
305.128
304.198
303.631
303.238
302.982
302.641
302.024
300.623
297.6
293.403
288.556
287.997
290.839
307.097
312.285
296.718
292.361
203.041
136.02
207.098
215.644
225.232
223.361
223.354
216.928
188.094
135.722
84.0564
70.5466
100.086
178.205
280.554
378.264
454.122
503.377
527.289
540.22
543.931
546.197
549.37
552.264
549.02
535.934
519.612
514.15
530.065
538.14
547.443
547.343
550.465
548.669
548.501
547.016
543.529
196.91
197.836
197.824
197.313
196.943
196.91
197.13
197.52
198.105
198.958
200.152
201.742
203.771
206.275
209.283
212.802
216.815
221.276
226.115
231.251
236.588
242.032
247.497
252.906
258.18
263.245
268.034
272.491
276.577
280.267
283.552
286.438
288.951
291.13
293.026
294.688
296.156
297.461
298.63
299.687
300.648
301.529
302.33
303.082
303.779
304.416
305.032
305.6
306.102
306.562
306.973
307.339
307.667
307.97
308.259
308.55
308.859
309.196
309.559
309.918
310.197
310.277
309.996
309.227
307.984
306.5
305.15
304.194
303.625
303.241
303.002
302.691
302.113
300.689
297.496
292.989
287.661
286.375
288.152
304.222
308.46
293.388
292.986
202.02
134.323
201.406
215.851
225.602
223.771
223.562
215.895
184.359
131.368
78.7211
64.2726
92.1035
169.6
272.688
372.043
450.145
500.968
525.939
539.741
543.748
545.947
549.124
552.187
549.189
536.251
519.611
513.576
529.397
537.755
547.273
547.283
550.448
548.722
548.554
547.13
543.581
201.273
202.191
202.266
201.872
201.591
201.611
201.854
202.238
202.775
203.523
204.544
205.883
207.575
209.655
212.155
215.095
218.478
222.285
226.478
231.002
235.785
240.75
245.814
250.908
255.966
260.921
265.703
270.249
274.507
278.435
282.006
285.203
288.023
290.478
292.592
294.408
295.978
297.35
298.562
299.642
300.612
301.492
302.297
303.037
303.728
304.376
304.976
305.537
306.072
306.532
306.941
307.31
307.639
307.934
308.212
308.488
308.78
309.101
309.451
309.809
310.103
310.219
309.992
309.278
308.07
306.569
305.176
304.18
303.609
303.234
303.013
302.734
302.197
300.734
297.339
292.476
286.598
284.47
285.029
300.68
304.196
289.364
293.453
201.713
133.413
194.835
215.856
226.21
224.279
223.827
214.461
179.925
126.299
72.6859
56.9957
83.0152
159.797
263.777
364.966
445.607
498.238
524.36
539.149
543.535
545.664
548.827
552.073
549.333
536.575
519.627
512.981
528.672
537.329
547.081
547.214
550.428
548.777
548.613
547.256
543.637
205.452
206.349
206.488
206.191
205.983
206.042
206.3
206.679
207.176
207.843
208.73
209.875
211.306
213.053
215.146
217.609
220.458
223.692
227.293
231.231
235.457
239.914
244.533
249.244
253.992
258.721
263.371
267.881
272.192
276.256
280.032
283.488
286.603
289.367
291.781
293.859
295.63
297.137
298.433
299.567
300.569
301.464
302.271
303.011
303.701
304.333
304.941
305.503
306.014
306.497
306.93
307.291
307.61
307.899
308.167
308.426
308.697
308.998
309.331
309.683
309.99
310.142
309.974
309.325
308.161
306.656
305.214
304.181
303.585
303.216
303.012
302.766
302.274
300.758
297.128
291.858
285.353
282.252
281.503
296.374
299.54
284.573
293.58
202.226
133.48
187.478
215.577
226.743
224.842
224.133
212.559
174.817
120.462
65.9175
48.572
72.7088
148.601
253.644
356.881
440.398
495.118
522.512
538.383
543.293
545.345
548.468
551.909
549.453
536.91
519.678
512.378
527.891
536.853
546.862
547.134
550.404
548.835
548.678
547.389
543.697
209.457
210.324
210.511
210.292
210.143
210.232
210.5
210.871
211.336
211.938
212.719
213.711
214.936
216.419
218.186
220.262
222.666
225.408
228.486
231.886
235.579
239.527
243.678
247.975
252.36
256.786
261.207
265.57
269.82
273.905
277.779
281.401
284.74
287.771
290.481
292.865
294.927
296.684
298.163
299.41
300.477
301.413
302.245
302.993
303.678
304.316
304.914
305.475
305.999
306.471
306.886
307.269
307.6
307.875
308.124
308.364
308.613
308.888
309.199
309.539
309.854
310.041
309.938
309.367
308.263
306.766
305.267
304.18
303.557
303.188
302.999
302.79
302.342
300.762
296.864
291.125
283.911
279.683
277.557
291.261
294.496
279.133
293
203.332
134.621
179.431
214.991
227.161
225.418
224.429
210.198
169.159
113.878
58.3847
38.8696
61.059
135.806
242.087
347.607
434.371
491.511
520.36
537.376
543.035
544.989
548.038
551.698
549.555
537.261
519.791
511.789
527.059
536.324
546.61
547.038
550.374
548.894
548.75
547.535
543.763
213.3
214.129
214.349
214.196
214.096
214.207
214.479
214.84
215.278
215.825
216.521
217.389
218.45
219.722
221.227
222.989
225.027
227.355
229.981
232.901
236.103
239.564
243.25
247.117
251.117
255.198
259.325
263.458
267.551
271.554
275.42
279.106
282.573
285.791
288.735
291.39
293.745
295.799
297.561
299.043
300.275
301.302
302.18
302.959
303.662
304.304
304.901
305.463
305.98
306.462
306.89
307.256
307.567
307.846
308.09
308.308
308.528
308.774
309.056
309.378
309.695
309.913
309.88
309.399
308.374
306.899
305.352
304.195
303.535
303.154
302.976
302.805
302.408
300.754
296.556
290.288
282.264
276.744
273.09
285.315
288.995
273.081
291.374
204.954
137.005
171.075
214.033
227.343
225.875
224.663
207.312
162.968
106.499
50.0068
27.7696
47.9616
121.197
228.873
336.936
427.347
487.309
517.887
536.104
542.771
544.592
547.535
551.423
549.643
537.635
520.004
511.244
526.191
535.735
546.315
546.921
550.338
548.951
548.829
547.692
543.836
216.989
217.776
218.019
217.919
217.858
217.986
218.258
218.608
219.021
219.523
220.147
220.915
221.842
222.943
224.237
225.743
227.48
229.464
231.705
234.208
236.971
239.983
243.224
246.665
250.268
253.991
257.793
261.641
265.504
269.341
273.109
276.763
280.263
283.576
286.671
289.525
292.12
294.442
296.488
298.259
299.762
301.012
302.037
302.883
303.614
304.278
304.893
305.46
305.983
306.465
306.885
307.261
307.575
307.834
308.054
308.253
308.448
308.658
308.906
309.202
309.513
309.758
309.794
309.419
308.495
307.067
305.477
304.24
303.521
303.124
302.951
302.818
302.481
300.747
296.217
289.338
280.416
273.45
268.17
278.535
282.909
266.429
288.359
206.823
140.128
163.371
212.495
227.15
226.096
224.729
203.96
156.397
98.4202
40.7356
15.1946
33.2812
104.562
213.734
324.627
419.128
482.408
515.093
534.568
542.504
544.138
546.964
551.053
549.722
538.039
520.367
510.798
525.316
535.085
545.965
546.773
550.292
549.005
548.915
547.856
543.917
220.533
221.276
221.533
221.476
221.448
221.586
221.856
222.193
222.583
223.046
223.61
224.295
225.112
226.073
227.194
228.491
229.981
231.679
233.597
235.744
238.123
240.732
243.561
246.593
249.804
253.162
256.629
260.169
263.758
267.368
270.964
274.508
277.959
281.28
284.44
287.411
290.17
292.698
294.982
297.013
298.79
300.317
301.603
302.663
303.522
304.228
304.853
305.44
305.988
306.48
306.911
307.277
307.582
307.835
308.042
308.211
308.369
308.548
308.754
309.016
309.311
309.578
309.68
309.422
308.622
307.273
305.658
304.334
303.556
303.114
302.945
302.846
302.579
300.763
295.88
288.331
278.388
269.77
262.667
270.908
276.069
259.129
283.452
209.62
145.143
158.037
210.306
226.551
225.986
224.539
200.09
149.388
89.5654
30.4191
1.067
16.8185
85.6881
196.374
310.413
409.498
476.714
511.953
532.761
542.153
543.618
546.338
550.54
549.793
538.48
520.929
510.533
524.481
534.378
545.546
546.585
550.229
549.045
549.007
548.043
544.01
223.94
224.638
224.902
224.88
224.878
225.024
225.288
225.612
225.98
226.408
226.921
227.536
228.261
229.107
230.085
231.21
232.496
233.957
235.605
237.449
239.497
241.752
244.211
246.865
249.701
252.697
255.825
259.053
262.351
265.697
269.071
272.441
275.773
279.031
282.18
285.19
288.036
290.695
293.151
295.388
297.398
299.176
300.723
302.046
303.156
304.069
304.805
305.411
305.955
306.473
306.937
307.319
307.62
307.847
308.035
308.182
308.308
308.44
308.607
308.827
309.096
309.376
309.535
309.405
308.753
307.522
305.91
304.495
303.634
303.149
302.985
302.923
302.732
300.843
295.577
287.254
276.208
265.828
256.717
262.449
268.291
251.053
276.254
213.603
153.102
157.186
207.596
225.522
225.439
224.01
195.84
142.105
80.1036
19.0415
-14.6154
-1.46178
64.3951
176.468
293.994
398.214
470.091
508.375
530.588
541.556
543.031
545.671
549.826
549.842
538.958
521.746
510.546
523.753
533.637
545.039
546.34
550.139
549.071
549.106
548.234
544.118
227.218
227.87
228.136
228.142
228.162
228.312
228.568
228.878
229.225
229.623
230.091
230.646
231.294
232.043
232.903
233.885
235.002
236.265
237.687
239.277
241.042
242.99
245.122
247.435
249.923
252.574
255.368
258.283
261.29
264.362
267.483
270.635
273.793
276.926
279.999
282.982
285.846
288.567
291.124
293.502
295.687
297.668
299.44
301.001
302.356
303.516
304.494
305.303
305.95
306.467
306.914
307.326
307.663
307.895
308.052
308.163
308.256
308.352
308.468
308.647
308.879
309.158
309.366
309.365
308.886
307.817
306.249
304.756
303.801
303.26
303.11
303.085
302.988
301.033
295.384
286.269
273.973
261.584
250.153
253.266
259.418
241.987
266.309
217.107
163.372
161.185
204.619
224.262
224.501
223.077
191.215
134.442
69.9279
6.38719
-31.91
-22.092
40.4947
153.691
275.039
384.98
462.316
504.158
527.959
540.532
542.398
544.972
548.86
549.838
539.468
522.862
510.926
523.207
532.896
544.434
546.024
550.01
549.056
549.205
548.436
544.246
230.373
230.981
231.245
231.273
231.309
231.461
231.709
232.004
232.332
232.701
233.131
233.633
234.215
234.882
235.642
236.505
237.481
238.58
239.812
241.188
242.714
244.398
246.245
248.256
250.43
252.761
255.237
257.843
260.559
263.36
266.223
269.134
272.079
275.037
277.981
280.879
283.703
286.425
289.023
291.479
293.776
295.902
297.848
299.606
301.174
302.554
303.756
304.792
305.673
306.401
306.955
307.35
307.649
307.901
308.081
308.171
308.221
308.278
308.35
308.487
308.677
308.942
309.189
309.304
309.017
308.159
306.691
305.143
304.088
303.49
303.364
303.389
303.401
301.42
295.363
285.314
271.724
257.358
243.443
243.538
249.348
231.686
253.327
217.931
176.251
168.802
201.685
222.92
223.36
221.838
186.452
126.656
59.3076
-7.40199
-50.7128
-44.614
13.9001
127.748
253.208
369.455
453.094
499.101
524.823
538.999
541.739
544.229
547.626
549.758
539.992
524.299
511.755
522.914
532.208
543.73
545.625
549.821
548.995
549.302
548.644
544.4
233.412
233.976
234.235
234.281
234.331
234.483
234.721
235.002
235.31
235.654
236.049
236.506
237.03
237.627
238.303
239.065
239.922
240.884
241.957
243.152
244.476
245.935
247.537
249.284
251.179
253.22
255.401
257.713
260.144
262.675
265.285
267.953
270.668
273.419
276.189
278.953
281.685
284.357
286.943
289.422
291.776
293.99
296.053
297.957
299.694
301.261
302.658
303.891
304.969
305.903
306.691
307.309
307.719
307.939
308.031
308.127
308.189
308.222
308.254
308.345
308.506
308.77
309.025
309.245
309.15
308.545
307.245
305.685
304.538
303.889
303.823
303.909
304.061
302.061
295.641
284.765
269.719
253.033
236.159
232.991
238.034
220.019
237.237
215.523
191.076
179.331
199.347
221.952
222.24
220.29
181.744
118.738
48.2191
-22.5368
-71.1442
-69.675
-15.3949
98.4052
228.175
351.269
442.116
493.042
521.151
536.991
540.988
543.409
546.181
549.412
540.507
526.041
513.073
522.924
531.621
542.948
545.137
549.55
548.868
549.392
548.846
544.586
236.342
236.864
237.115
237.175
237.236
237.387
237.614
237.88
238.17
238.49
238.854
239.271
239.746
240.283
240.887
241.563
242.32
243.165
244.105
245.147
246.299
247.568
248.96
250.479
252.129
253.912
255.826
257.866
260.025
262.291
264.649
267.082
269.569
272.101
274.669
277.262
279.857
282.43
284.957
287.412
289.775
292.029
294.16
296.157
298.012
299.72
301.276
302.679
303.93
305.033
305.993
306.806
307.457
307.906
308.136
308.133
308.047
308.095
308.188
308.288
308.372
308.574
308.901
309.217
309.29
308.973
307.915
306.401
305.173
304.487
304.482
304.708
305.064
303.149
296.31
284.419
267.937
249.271
229.485
222.559
225.782
207.077
218.078
210.258
192.034
188.051
195.958
221.181
221.569
218.755
177.39
111.16
37.1254
-38.5571
-92.7806
-97.1526
-47.417
65.5515
199.669
330.031
429.046
485.821
516.819
534.533
539.951
542.478
544.642
549.184
540.997
528.049
514.907
523.279
531.173
542.133
544.565
549.18
548.676
549.464
549.039
544.812
239.168
239.65
239.892
239.963
240.032
240.18
240.396
240.648
240.921
241.219
241.555
241.937
242.368
242.853
243.394
243.998
244.669
245.415
246.242
247.156
248.163
249.269
250.482
251.805
253.243
254.799
256.474
258.267
260.174
262.188
264.301
266.499
268.766
271.086
273.447
275.845
278.27
280.704
283.127
285.514
287.844
290.094
292.25
294.297
296.225
298.027
299.696
301.23
302.625
303.878
304.988
305.953
306.761
307.401
307.851
308.108
308.204
308.073
307.925
308.079
308.363
308.641
308.803
309.141
309.468
309.444
308.692
307.269
305.999
305.288
305.5
305.849
306.481
304.719
297.599
285.007
266.97
245.802
222.519
211.817
212.514
193.384
196.79
199.992
180.247
189.5
188.582
221.157