/*--------------------------------*- C++ -*----------------------------------*\
| =========                 |                                                 |
| \\      /  F ield         | OpenFOAM: The Open Source CFD Toolbox           |
|  \\    /   O peration     | Version:  2412                                  |
|   \\  /    A nd           | Website:  www.openfoam.com                      |
|    \\/     M anipulation  |                                                 |
\*---------------------------------------------------------------------------*/
FoamFile
{
    version     2.0;
    format      ascii;
    arch        "LSB;label=32;scalar=64";
    class       surfaceScalarField;
    location    "0.55";
    object      phi_0;
}
// * * * * * * * * * * * * * * * * * * * * * * * * * * * * * * * * * * * * * //

dimensions      [0 3 -1 0 0 0 0];

oriented        oriented;

internalField   nonuniform List<scalar> 
24930
(
0.0160784
0.0211089
-0.0372387
0.00667955
0.00939889
0.00310845
0.00357109
0.00176029
0.00134816
0.00114648
0.000613803
0.000786509
0.000359952
0.000543485
0.00024301
0.00036841
0.000175077
0.000237832
0.000130589
0.000138423
9.93951e-05
6.08319e-05
7.75714e-05
-3.40801e-07
6.11682e-05
-4.81287e-05
4.77793e-05
-8.61755e-05
3.80557e-05
-0.00011604
2.98565e-05
-0.000139358
2.32927e-05
-0.000157612
1.82388e-05
-0.000171448
1.38596e-05
-0.00018145
1.00448e-05
-0.000188518
7.05592e-06
-0.000193047
4.41026e-06
-0.00019579
2.75084e-06
-0.000196344
1.03856e-06
-0.00019517
-1.49764e-06
-0.000193094
-3.18109e-06
-0.00019037
-3.03665e-06
-0.00018638
-2.70506e-06
-0.000181696
-4.11921e-06
-0.00017656
-5.17436e-06
-0.000171057
-5.59199e-06
-0.000165301
-5.78849e-06
-0.000159308
-5.96072e-06
-0.000153204
-6.07346e-06
-0.000147098
-6.09571e-06
-0.000141017
-6.07669e-06
-0.000134976
-6.01974e-06
-0.000129056
-5.89352e-06
-0.000123291
-5.75111e-06
-0.000117702
-5.58695e-06
-0.000112293
-5.40182e-06
-0.000107056
-5.22461e-06
-0.000102001
-5.04414e-06
-9.70997e-05
-4.89551e-06
-9.23283e-05
-4.76322e-06
-8.76924e-05
-4.63159e-06
-8.32142e-05
-4.47899e-06
-7.89437e-05
-4.27294e-06
-7.49812e-05
-3.96356e-06
-7.14293e-05
-3.552e-06
-6.84014e-05
-3.02906e-06
-6.59765e-05
-2.42847e-06
-6.41874e-05
-1.79306e-06
-6.29769e-05
-1.21548e-06
-6.21467e-05
-8.35723e-07
-6.12983e-05
-8.53773e-07
-5.97394e-05
-1.5632e-06
-5.63987e-05
-3.34673e-06
-4.98183e-05
-6.5843e-06
-3.82919e-05
-1.15302e-05
-2.03317e-05
-1.79641e-05
4.50386e-06
-2.48386e-05
3.42057e-05
-2.97061e-05
6.41531e-05
-2.9951e-05
8.741e-05
-2.32602e-05
9.7922e-05
-1.05109e-05
9.44492e-05
3.46009e-06
8.15818e-05
1.28623e-05
6.69366e-05
1.4645e-05
5.67302e-05
1.02103e-05
5.48341e-05
1.89748e-06
6.12217e-05
-6.39044e-06
6.7005e-05
-5.79135e-06
5.98448e-05
7.16328e-06
1.88584e-05
4.09918e-05
-7.54802e-05
9.43506e-05
-0.000233035
0.000157565
-0.000414095
0.000181078
-0.000529275
0.000115137
-0.000469425
-5.97874e-05
-1.95719e-05
-0.000449825
0.000654737
-0.00067431
0.00109891
-0.000444193
0.00214668
-0.00104781
0.0017098
0.000436712
0.000167914
0.001542
5.18197e-05
0.000116226
7.0044e-05
-1.79284e-05
0.000266757
-0.000196726
0.000561263
-0.000294483
0.000726901
-0.000165653
0.000769132
-4.21701e-05
0.000199528
0.00056963
-0.0011459
0.00134543
-0.00288262
0.00173673
-0.00428902
0.00140641
-0.00496351
0.000674408
-0.00478552
-0.000177897
-0.00390124
-0.000884291
-0.0026646
-0.00123667
-0.00151034
-0.00115426
-0.000576551
-0.000933785
-2.47626e-05
-0.000551784
0.000229015
-0.000253773
0.000344433
-0.000115419
0.000492739
-0.000148307
0.000723721
-0.000230983
0.000954155
-0.000230432
0.000849014
0.000105178
0.000279197
0.000569827
-0.000403725
0.000682927
-0.000624755
0.000221032
-0.000256164
-0.000368602
0.000129713
-0.000385883
0.000418308
-0.000288596
0.000575342
-0.000157035
0.000745141
-0.000169799
0.000818637
-7.34962e-05
0.000939222
-0.000120585
0.00103602
-9.68031e-05
-0.000111029
0.033901
0.0300043
-0.0427964
0.0228867
0.0204132
0.0145624
0.0118954
0.00941861
0.00649196
0.00638662
0.00364577
0.00451987
0.00222667
0.0032769
0.00148594
0.00239397
0.001058
0.00173897
0.000785607
0.0012381
0.000600265
0.000847906
0.000467695
0.000539412
0.000369606
0.000293335
0.00029386
9.70011e-05
0.000234467
-6.26962e-05
0.00018959
-0.00019555
0.000156062
-0.000301241
0.00012379
-0.000385287
9.79002e-05
-0.000451148
7.61218e-05
-0.000502357
5.84764e-05
-0.000540962
4.27689e-05
-0.000569427
3.05771e-05
-0.000588451
2.05039e-05
-0.000599858
1.0943e-05
-0.000605354
2.3019e-06
-0.000606147
-3.26863e-06
-0.000602069
-6.86198e-06
-0.000594294
-1.19758e-05
-0.000583606
-1.5944e-05
-0.000570613
-1.85724e-05
-0.000555729
-2.07194e-05
-0.000539325
-2.23034e-05
-0.000521885
-2.34101e-05
-0.00050381
-2.41104e-05
-0.000485298
-2.45849e-05
-0.000466518
-2.47916e-05
-0.000447775
-2.45963e-05
-0.00042924
-2.42389e-05
-0.000411017
-2.37857e-05
-0.000393181
-2.32338e-05
-0.000375755
-2.26484e-05
-0.000358789
-2.19979e-05
-0.00034223
-2.14444e-05
-0.000326015
-2.09847e-05
-0.000310188
-2.04706e-05
-0.000294849
-1.98254e-05
-0.000280184
-1.89417e-05
-0.00026653
-1.76255e-05
-0.000254248
-1.58466e-05
-0.000243723
-1.35694e-05
-0.000235233
-1.09323e-05
-0.000228871
-8.16615e-06
-0.000224438
-5.65799e-06
-0.000221245
-4.03796e-06
-0.000217911
-4.19694e-06
-0.00021206
-7.42373e-06
-0.000200032
-1.53824e-05
-0.000176847
-2.97775e-05
-0.000136755
-5.16303e-05
-7.47557e-05
-7.9971e-05
1.0646e-05
-0.000110249
0.000112855
-0.000131924
0.000216718
-0.000133824
0.0002988
-0.000105352
0.000338321
-5.00406e-05
0.000329829
1.19395e-05
0.000287813
5.48749e-05
0.000237895
6.45542e-05
0.000202142
4.59586e-05
0.000194577
9.47403e-06
0.000213656
-2.5444e-05
0.000228263
-2.03771e-05
0.00019322
4.22248e-05
3.49289e-05
0.000199298
-0.000303471
0.000432771
-0.000849815
0.000703944
-0.00143913
0.00077042
-0.00179238
0.000468431
-0.0015354
-0.000316802
-0.00011478
-0.00187052
0.00206851
-0.00285767
0.00357746
-0.00195318
0.0068852
-0.00435566
0.00589675
0.00142514
0.000920553
0.00651824
0.000281227
0.000755446
0.000303655
-4.05592e-05
0.000955292
-0.000848259
0.00197973
-0.00131889
0.00245478
-0.000640724
0.00233492
7.76526e-05
-3.33138e-05
0.00293778
-0.00473064
0.00604273
-0.0103521
0.00735817
-0.0145699
0.00562428
-0.0162334
0.00233802
-0.0153026
-0.00110865
-0.0123109
-0.00387602
-0.00831519
-0.00523231
-0.00463234
-0.0048371
-0.00169263
-0.0038735
0.000106968
-0.00235139
0.000909362
-0.00105616
0.00131891
-0.000524954
0.00185408
-0.000683479
0.00261596
-0.00099286
0.00324753
-0.000862014
0.00267577
0.00067691
0.000690294
0.00255529
-0.00138951
0.00276274
-0.00183552
0.000667047
-0.00061331
-0.0015908
0.000672237
-0.00167142
0.00157365
-0.00119001
0.00212695
-0.000710334
0.00264747
-0.000690311
0.00291952
-0.000345535
0.00329741
-0.000498466
0.00362311
-0.00042249
-0.000573508
0.0437292
0.0322183
-0.0459433
0.036471
0.0276714
0.0278707
0.0204957
0.0204007
0.013962
0.0148387
0.00920781
0.0109277
0.00613765
0.00817044
0.00424315
0.006169
0.00305943
0.00466804
0.00228656
0.00351213
0.00175616
0.0026038
0.001376
0.00187949
0.00109388
0.00129555
0.000877778
0.000821467
0.000708561
0.000435534
0.000575546
0.000121655
0.000469944
-0.000136121
0.000381518
-0.000347124
0.000308843
-0.000517205
0.000246221
-0.000653713
0.000195111
-0.000761517
0.000150645
-0.000845381
0.000114182
-0.000908888
8.3716e-05
-0.000954615
5.78076e-05
-0.000985734
3.44957e-05
-0.00100442
1.48948e-05
-0.00101296
8.40096e-07
-0.00101264
-1.22972e-05
-0.00100536
-2.30866e-05
-0.000991928
-3.19996e-05
-0.000973605
-3.91106e-05
-0.000951286
-4.45262e-05
-0.00092598
-4.86161e-05
-0.00089852
-5.1549e-05
-0.000869427
-5.36829e-05
-0.000839146
-5.50395e-05
-0.000808301
-5.53824e-05
-0.000777288
-5.5211e-05
-0.000746366
-5.46944e-05
-0.000715749
-5.38448e-05
-0.000685548
-5.28326e-05
-0.0006559
-5.16256e-05
-0.000626766
-5.05685e-05
-0.000598081
-4.96735e-05
-0.000569955
-4.86023e-05
-0.0005426
-4.71837e-05
-0.000516369
-4.51758e-05
-0.000491863
-4.21381e-05
-0.000469747
-3.79752e-05
-0.000450703
-3.26265e-05
-0.000435229
-2.64172e-05
-0.000423499
-1.99074e-05
-0.000415141
-1.40264e-05
-0.000408914
-1.02771e-05
-0.00040233
-1.07917e-05
-0.000391126
-1.8638e-05
-0.000368771
-3.77465e-05
-0.000326454
-7.21035e-05
-0.000253992
-0.000124102
-0.000142597
-0.000191376
1.0572e-05
-0.000263427
0.000194499
-0.00031586
0.00038246
-0.000321795
0.000533495
-0.000256396
0.000609886
-0.000126438
0.00060022
2.15962e-05
0.000528338
0.00012675
0.000439536
0.00015335
0.000374291
0.000111201
0.000358615
2.5158e-05
0.000388362
-5.51721e-05
0.000406363
-3.83589e-05
0.000328526
0.000120078
2.31013e-05
0.000504735
-0.000607502
0.0010634
-0.00159322
0.00168969
-0.00260759
0.00178482
-0.00317545
0.0010363
-0.0026775
-0.000814778
-0.000310343
-0.00423769
0.00347098
-0.00663904
0.00599318
-0.00447543
0.0117255
-0.010088
0.0107191
0.00243131
0.00215838
0.0150789
0.000671953
0.00224182
0.000620423
1.11513e-05
0.00177858
-0.00200636
0.00360124
-0.00314152
0.00431315
-0.00135267
0.00373224
0.000658447
-0.000880098
0.00755009
-0.00952401
0.0146866
-0.0191208
0.016955
-0.0257723
0.0122758
-0.0279073
0.00447297
-0.0258531
-0.00316277
-0.0205877
-0.00914147
-0.013783
-0.012037
-0.00758583
-0.0110342
-0.00263252
-0.0088268
0.000428886
-0.00541279
0.00180803
-0.0024353
0.00255899
-0.0012759
0.00354759
-0.00167208
0.00486005
-0.00230533
0.005783
-0.00178496
0.00452809
0.00193182
0.000973895
0.00610949
-0.00243911
0.00617575
-0.00291114
0.00113908
-0.000751414
-0.00375051
0.00148226
-0.00390508
0.00301803
-0.00272578
0.00400388
-0.00169618
0.00488723
-0.00157365
0.00537917
-0.000837469
0.00602649
-0.00114577
0.0066117
-0.00100769
-0.00149585
0.0495548
0.0316778
-0.0490143
0.0463772
0.030849
0.0401302
0.0267427
0.0327638
0.0213283
0.0258523
0.0161193
0.0201152
0.0118748
0.0156212
0.0087371
0.0121575
0.00652315
0.00947312
0.00497091
0.00736553
0.00386372
0.00568793
0.00305357
0.00433662
0.00244518
0.00323756
0.00197683
0.0023374
0.00160872
0.00159723
0.00131571
0.000987257
0.0010799
0.0004837
0.000885074
6.9996e-05
0.000722542
-0.000273003
0.000589198
-0.000553078
0.000475154
-0.000779657
0.000377272
-0.00096127
0.000295999
-0.00110453
0.000226746
-0.00121505
0.000168083
-0.00129783
0.000117656
-0.00135749
7.43759e-05
-0.00139689
3.88613e-05
-0.00141893
9.61985e-06
-0.00142699
-1.48205e-05
-0.00142425
-3.46994e-05
-0.00141109
-5.23298e-05
-0.00138983
-6.56956e-05
-0.00136217
-7.61787e-05
-0.00132961
-8.41016e-05
-0.00129318
-9.01101e-05
-0.00125377
-9.44099e-05
-0.00121245
-9.66408e-05
-0.00116997
-9.76496e-05
-0.00112686
-9.77947e-05
-0.00108356
-9.71437e-05
-0.00104033
-9.60366e-05
-0.000997479
-9.44571e-05
-0.000955033
-9.30069e-05
-0.000912968
-9.17434e-05
-0.000871503
-9.00738e-05
-0.000830997
-8.76931e-05
-0.000792007
-8.417e-05
-0.00075544
-7.87132e-05
-0.000722302
-7.11262e-05
-0.000693619
-6.13243e-05
-0.00067014
-4.9908e-05
-0.000652124
-3.79351e-05
-0.000639023
-2.71392e-05
-0.000628984
-2.03286e-05
-0.000618302
-2.14855e-05
-0.000600634
-3.63166e-05
-0.000566289
-7.21011e-05
-0.000502258
-0.000136145
-0.000393559
-0.00023281
-0.000227247
-0.000357698
1.4721e-06
-0.000492156
0.00027635
-0.000590747
0.000559791
-0.000605246
0.00079164
-0.000488254
0.00091492
-0.000249726
0.000909702
2.68061e-05
0.000808192
0.000228252
0.000676867
0.000284668
0.000577499
0.000210567
0.000550126
5.25382e-05
0.000587339
-9.23681e-05
0.000601536
-5.25335e-05
0.000462496
0.000259137
-2.64725e-05
0.000993722
-0.00100036
0.00203731
-0.00247385
0.00316322
-0.00392802
0.00323901
-0.00467974
0.00178801
-0.00390142
-0.0015931
-0.000653383
-0.00748575
0.00481631
-0.0121088
0.00816377
-0.00782298
0.0165267
-0.0184509
0.016292
0.00266609
0.00400969
0.0273612
0.00128827
0.00496317
0.0010425
0.000256682
0.00274988
-0.00371369
0.00541273
-0.00580435
0.00627233
-0.0022123
0.00485434
0.00207636
-0.00262832
0.0150327
-0.0156202
0.0276786
-0.0290995
0.0304342
-0.037653
0.0208294
-0.0396661
0.00648609
-0.036159
-0.00666993
-0.0285393
-0.0167611
-0.0189689
-0.0216074
-0.010322
-0.0196811
-0.00337906
-0.0157697
0.000977796
-0.00976964
0.00295727
-0.00441476
0.00409712
-0.00241574
0.00560332
-0.00317827
0.0074686
-0.00417061
0.00855351
-0.00286987
0.00638506
0.00410027
0.0011434
0.0113512
-0.0034773
0.0107964
-0.0037691
0.00143088
-0.000610184
-0.00690941
0.00259608
-0.00711134
0.00478383
-0.00491352
0.00622572
-0.00313807
0.00748697
-0.0028349
0.00821424
-0.00156473
0.00915134
-0.00208286
0.0100272
-0.00188359
-0.00298778
0.0533846
0.0305196
-0.0522265
0.0528584
0.0313752
0.0496002
0.030001
0.0441681
0.0267604
0.0377169
0.0225705
0.0312922
0.0182994
0.0255158
0.0145135
0.0206121
0.0114268
0.0165637
0.00901932
0.0132532
0.00717417
0.0105463
0.00576045
0.00832433
0.00466713
0.0064914
0.00380978
0.00497255
0.00312758
0.00371003
0.0025782
0.00265867
0.00213122
0.00178188
0.00176184
0.00105108
0.00145337
0.000443984
0.00119634
-5.79042e-05
0.000977031
-0.000474591
0.000793916
-0.00081441
0.000635912
-0.00108931
0.000501478
-0.00130863
0.000386897
-0.00148054
0.000289494
-0.00161176
0.000206347
-0.00170901
0.000136331
-0.00177768
7.83014e-05
-0.00182099
2.86824e-05
-0.00184226
-1.33389e-05
-0.00184839
-4.61356e-05
-0.00183917
-7.48516e-05
-0.00181805
-9.72026e-05
-0.00178752
-0.00011462
-0.00174942
-0.000128197
-0.00170527
-0.000138515
-0.00165679
-0.000145058
-0.00160528
-0.000149131
-0.00155165
-0.000151408
-0.0014967
-0.000152078
-0.00144099
-0.000151726
-0.00138505
-0.000150375
-0.00132908
-0.000148971
-0.00127315
-0.000147675
-0.00121764
-0.000145586
-0.00116311
-0.000142222
-0.00111037
-0.000136916
-0.00106067
-0.000128421
-0.00101541
-0.000116402
-0.000975996
-0.00010075
-0.000943481
-8.2436e-05
-0.000918227
-6.32009e-05
-0.000899496
-4.58823e-05
-0.000884768
-3.50697e-05
-0.000869003
-3.72636e-05
-0.000843604
-6.17267e-05
-0.000795498
-0.000120218
-0.000707181
-0.000224473
-0.000558527
-0.000381475
-0.000332071
-0.000584165
-2.14668e-05
-0.000802771
0.000354476
-0.0009667
0.000744938
-0.000995718
0.00107049
-0.000813819
0.00125247
-0.000431708
0.0012596
1.96612e-05
0.0011306
0.000357242
0.000953901
0.000461359
0.000815518
0.000348948
0.000771709
9.63544e-05
0.000811222
-0.000131864
0.000811253
-5.25467e-05
0.000587985
0.000482422
-0.000123551
0.00170527
-0.00149926
0.00341306
-0.00350585
0.00516984
-0.0054016
0.00513478
-0.00629063
0.00267703
-0.00520675
-0.00267699
-0.00120314
-0.0114894
0.00604587
-0.0193578
0.00996065
-0.0117379
0.0211428
-0.0296332
0.0226471
0.00116191
0.0065954
0.0434128
0.00219601
0.00936249
0.00159854
0.00085415
0.00387585
-0.00599095
0.00739765
-0.00932613
0.00827133
-0.003086
0.00556634
0.0047813
-0.0053936
0.0259927
-0.0230638
0.0453488
-0.0401095
0.0474799
-0.0498313
0.0305512
-0.0511252
0.00777999
-0.0459375
-0.0118576
-0.0359893
-0.0267093
-0.0237809
-0.0338157
-0.0128085
-0.0306535
-0.00390459
-0.0246736
0.00176741
-0.0154416
0.00438458
-0.00703191
0.00596798
-0.00399914
0.00805209
-0.00526237
0.0104552
-0.00657368
0.0115498
-0.00396449
0.00825966
0.00739039
0.00126752
0.0183433
-0.00442813
0.0164921
-0.00436792
0.00137067
-0.00017732
-0.0111
0.0040256
-0.0113143
0.00689009
-0.00777801
0.00881071
-0.00505869
0.0104655
-0.0044897
0.0114438
-0.00254299
0.0126962
-0.0033353
0.0138913
-0.00307861
-0.00516333
0.056563
0.0295546
-0.055598
0.0571682
0.0307699
0.0561949
0.0309743
0.0532048
0.0297505
0.0485167
0.0272585
0.0428321
0.023984
0.0368646
0.020481
0.0311425
0.017149
0.0259621
0.0141996
0.0214331
0.0117031
0.0175504
0.00964315
0.0142543
0.00796318
0.011468
0.00659613
0.0091158
0.00547981
0.0071309
0.00456306
0.00545649
0.00380557
0.00404424
0.00317406
0.00285434
0.00264332
0.00185424
0.00219653
0.00101564
0.00181566
0.000316338
0.00149314
-0.000264227
0.0012164
-0.000743138
0.000980247
-0.00113362
0.000777159
-0.0014483
0.000604256
-0.00169767
0.000456503
-0.00189136
0.000330721
-0.00203722
0.000224423
-0.0021436
0.000135057
-0.00221686
5.98173e-05
-0.00225734
-5.45161e-06
-0.00227727
-5.4865e-05
-0.00227635
-9.80483e-05
-0.0022589
-0.000132057
-0.00222801
-0.000159051
-0.00218622
-0.000180255
-0.00213617
-0.00019506
-0.00207991
-0.000205361
-0.00201898
-0.000212321
-0.0019547
-0.000216331
-0.00188807
-0.000218331
-0.00182001
-0.00021842
-0.00175097
-0.000217997
-0.00168124
-0.000217414
-0.00161141
-0.000215413
-0.00154233
-0.000211307
-0.00147509
-0.00020416
-0.00141136
-0.00019216
-0.00135297
-0.000174797
-0.0013018
-0.000151943
-0.00125921
-0.000125037
-0.00122571
-9.67094e-05
-0.00120038
-7.12268e-05
-0.00117999
-5.54786e-05
-0.00115806
-5.92064e-05
-0.00112359
-9.62083e-05
-0.00105991
-0.000183912
-0.000944769
-0.000339622
-0.000752638
-0.000573618
-0.000461215
-0.000875599
-6.19494e-05
-0.00120205
0.000423741
-0.0014524
0.000932973
-0.00150496
0.0013664
-0.00124725
0.00162153
-0.00068685
0.00165156
-1.03812e-05
0.00149919
0.000509601
0.00127513
0.000685412
0.00109252
0.00053155
0.00102621
0.000162674
0.00106073
-0.000166363
0.00103289
-2.46999e-05
0.000697339
0.000817992
-0.000284883
0.00268751
-0.00212094
0.00524914
-0.00470084
0.00774978
-0.0070274
0.00746136
-0.00799962
0.00364924
-0.00660657
-0.00407007
-0.00202752
-0.0160684
0.00708951
-0.0284749
0.011352
-0.0160005
0.0255191
-0.0438003
0.0298179
-0.00313653
0.010036
0.0631946
0.00348136
0.0159171
0.00232622
0.00200931
0.00516057
-0.00882526
0.00953278
-0.0136983
0.010247
-0.00380026
0.00573324
0.00929505
-0.00930865
0.0410346
-0.0318085
0.0678486
-0.0518612
0.0675326
-0.0619049
0.040595
-0.0619714
0.00784635
-0.0550327
-0.0187963
-0.0428832
-0.0388588
-0.0282291
-0.0484698
-0.0150728
-0.0438098
-0.00422187
-0.0355245
0.00280768
-0.0224712
0.00611148
-0.0103357
0.00819861
-0.00608625
0.0109165
-0.00798025
0.0138294
-0.00948658
0.0147707
-0.00490583
0.0101647
0.0119965
0.00140976
0.0270982
-0.0052072
0.0231091
-0.00464263
0.000806103
0.000605435
-0.0163481
0.0057916
-0.0165004
0.00935602
-0.0113424
0.0117752
-0.00747787
0.0138383
-0.00655283
0.0150858
-0.00379044
0.0166864
-0.00493589
0.0182179
-0.00461007
-0.00812618
0.0598656
0.0288823
-0.0591932
0.0606648
0.0299708
0.0608646
0.0307744
0.0597832
0.0308319
0.0571516
0.0298901
0.0531252
0.0280104
0.0481182
0.025488
0.0426148
0.0226523
0.0370414
0.0197731
0.0317084
0.0170361
0.0268028
0.0145487
0.0224095
0.0123565
0.0185432
0.0104624
0.0151786
0.0088444
0.0122719
0.00746979
0.00977323
0.00630416
0.00763306
0.00531419
0.0058056
0.00447081
0.00425057
0.00375164
0.00293157
0.0031347
0.00181801
0.00260664
0.000882301
0.002152
0.000101516
0.00176094
-0.000546637
0.0014253
-0.00107876
0.00113658
-0.00151067
0.000888918
-0.00185658
0.000677033
-0.00212838
0.000496334
-0.00233652
0.000343109
-0.00249067
0.000213917
-0.00260269
0.000106614
-0.00267035
1.28107e-05
-0.00270962
-5.87836e-05
-0.002722
-0.00011966
-0.00271187
-0.000169141
-0.00268339
-0.000208677
-0.00264057
-0.000237829
-0.00258655
-0.000259349
-0.00252378
-0.000275078
-0.00245435
-0.000285735
-0.0023799
-0.000292754
-0.00230192
-0.000296374
-0.00222132
-0.000298588
-0.00213868
-0.000300059
-0.00205495
-0.000299148
-0.00197131
-0.00029494
-0.00188925
-0.000286223
-0.00181091
-0.000270516
-0.00173862
-0.000247095
-0.00167476
-0.000215814
-0.00162112
-0.000178693
-0.00157837
-0.000139473
-0.00154541
-0.0001042
-0.00151829
-8.26186e-05
-0.00148902
-8.84829e-05
-0.0014441
-0.00014115
-0.00136308
-0.000264942
-0.00121882
-0.000483897
-0.000980155
-0.000812293
-0.000619674
-0.00123609
-0.000126066
-0.00169567
0.000477355
-0.00205583
0.00111687
-0.00214449
0.00167333
-0.00180373
0.00201812
-0.00103165
0.00208545
-7.77018e-05
0.00191645
0.000678581
0.00164459
0.00095727
0.00141244
0.000763689
0.00131601
0.000259113
0.00133542
-0.00018575
0.00126211
4.8639e-05
0.000780476
0.00129964
-0.00052567
0.00399368
-0.00288251
0.00760602
-0.00606764
0.010935
-0.00879901
0.0101927
-0.00979585
0.00464605
-0.00812848
-0.00573747
-0.00319717
-0.0209998
0.00785826
-0.0395304
0.0124666
-0.020609
0.0297943
-0.0611279
0.0377707
-0.0111128
0.014438
0.0865272
0.00524457
0.0251103
0.00327322
0.00398066
0.00660689
-0.0121589
0.0117853
-0.0188767
0.0121137
-0.00412868
0.00521083
0.0161979
-0.0144593
0.0607048
-0.0417293
0.0951186
-0.0639868
0.0897901
-0.0734892
0.0500974
-0.0720131
0.00637028
-0.0634139
-0.0273955
-0.0492572
-0.0530156
-0.0323783
-0.0653486
-0.0171848
-0.0590032
-0.00436587
-0.0483434
0.00409697
-0.030934
0.00815223
-0.0143909
0.0108096
-0.0087436
0.0142128
-0.0113835
0.0175985
-0.0128723
0.0182221
-0.00552945
0.0121412
0.0180775
0.00166286
0.0375765
-0.00573373
0.0305056
-0.00456465
-0.00036296
0.00173157
-0.0226443
0.00790347
-0.0226723
0.0121961
-0.0156351
0.0151339
-0.0104157
0.0176227
-0.00904156
0.0191583
-0.00532609
0.0211492
-0.0069267
0.0230158
-0.00647669
-0.0119571
0.06354
0.0283887
-0.0630464
0.0641903
0.0293204
0.0647315
0.0302332
0.0646883
0.030875
0.0636387
0.0309397
0.0613776
0.0302715
0.0579481
0.0289175
0.0535708
0.0270297
0.0485543
0.0247895
0.043222
0.0223684
0.0378606
0.01991
0.0326922
0.0175249
0.0278657
0.0152889
0.0234641
0.013246
0.0195192
0.0114147
0.0160287
0.00979467
0.0129692
0.00837363
0.0103071
0.00713289
0.00800533
0.00605351
0.00602559
0.00511448
0.00433243
0.00429979
0.00289203
0.00359235
0.00167404
0.00297891
0.000651194
0.0024482
-0.000201087
0.00198902
-0.00090534
0.00159337
-0.00148088
0.00125263
-0.00194509
0.00096048
-0.00231334
0.00071129
-0.00259916
0.000499771
-0.00281373
0.000321364
-0.00297422
0.000173469
-0.00307916
4.61602e-05
-0.00314364
-5.51518e-05
-0.00317492
-0.000137809
-0.00317621
-0.000207334
-0.00315392
-0.000260062
-0.00311291
-0.00030033
-0.0030569
-0.000331068
-0.00298911
-0.000353502
-0.00291209
-0.000369735
-0.00282821
-0.00038024
-0.00273901
-0.000387778
-0.00264556
-0.000393504
-0.00254931
-0.000395401
-0.00245192
-0.000392325
-0.00235535
-0.000382804
-0.00226228
-0.000363597
-0.00217565
-0.00033373
-0.00209844
-0.000293045
-0.00203288
-0.000244259
-0.00197991
-0.000192458
-0.00193829
-0.000145842
-0.00190332
-0.000117603
-0.00186551
-0.00012631
-0.00180874
-0.000197931
-0.00170878
-0.000364919
-0.00153347
-0.000659212
-0.00124596
-0.00109982
-0.000813444
-0.00166862
-0.000221241
-0.00228788
0.00050659
-0.00278368
0.00128722
-0.00292512
0.00198259
-0.00249911
0.00243665
-0.00148573
0.00255844
-0.000199496
0.00238372
0.000853284
0.00206564
0.00127534
0.00177885
0.00105048
0.00164309
0.000394876
0.00163419
-0.000176836
0.00149299
0.000189874
0.000825634
0.00196701
-0.000862596
0.00568193
-0.00380014
0.0105436
-0.00761105
0.0147459
-0.0107063
0.013288
-0.0116766
0.00561635
-0.0098244
-0.00758973
-0.00477388
-0.0260503
0.0082447
-0.052549
0.0136224
-0.0259867
0.0343072
-0.0818128
0.046399
-0.0232044
0.0198864
0.11304
0.00759807
0.0373986
0.00449758
0.00708116
0.00821694
-0.0158782
0.0141125
-0.0247722
0.013774
-0.00379015
0.0038633
0.0261086
-0.0208849
0.085453
-0.0526146
0.126848
-0.0760922
0.113268
-0.0843196
0.0583247
-0.0812427
0.00329339
-0.0712105
-0.0374277
-0.0552598
-0.0689662
-0.0363706
-0.0842378
-0.0192706
-0.0761032
-0.00441052
-0.0632035
0.00561827
-0.0409627
0.0105084
-0.0192811
0.0138076
-0.0120428
0.0179459
-0.0155218
0.0217682
-0.0166945
0.021923
-0.00568429
0.014243
0.0257575
0.00212314
0.0496964
-0.00592959
0.0385584
-0.00410341
-0.00218915
0.00320963
-0.0299573
0.010372
-0.0298347
0.015425
-0.0206881
0.0189021
-0.0138927
0.021838
-0.0119775
0.0236803
-0.00716839
0.0261135
-0.00935988
0.0282862
-0.00864932
-0.0166936
0.0675678
0.0279823
-0.0671615
0.0680515
0.0288368
0.0685648
0.0297198
0.068891
0.0305488
0.0687196
0.0311111
0.0677648
0.0312263
0.0658569
0.0308254
0.0629648
0.0299217
0.0591784
0.0285759
0.0546727
0.026874
0.04967
0.0249127
0.0444059
0.022789
0.0391011
0.0205937
0.0339404
0.0184068
0.0290612
0.0162938
0.0245524
0.0143034
0.0204601
0.0124659
0.0167979
0.0107951
0.0135577
0.00929378
0.0107172
0.00795498
0.00824768
0.00676939
0.00611618
0.00572387
0.00428953
0.00480559
0.00273539
0.00400238
0.00142285
0.00330159
0.000323419
0.00269277
-0.000589324
0.00216525
-0.00133923
0.00171026
-0.00194775
0.0013198
-0.00243421
0.000986311
-0.00281574
0.000702997
-0.00310699
0.000464815
-0.00332602
0.000265174
-0.00347928
9.81237e-05
-0.00357655
-4.04652e-05
-0.00363286
-0.000150961
-0.00365111
-0.000241756
-0.00363934
-0.000312066
-0.00360319
-0.000367201
-0.00354754
-0.00040912
-0.00347631
-0.00044094
-0.00339305
-0.000463479
-0.00330031
-0.000480505
-0.00319989
-0.000493923
-0.00309391
-0.000501378
-0.00298472
-0.000501519
-0.00287483
-0.000492692
-0.00276764
-0.000470802
-0.00266677
-0.00043461
-0.00257588
-0.000383948
-0.0024978
-0.000322351
-0.00243377
-0.000256506
-0.00238248
-0.000197153
-0.00233855
-0.000161544
-0.00229099
-0.000173888
-0.00222112
-0.000267816
-0.00210091
-0.000485139
-0.0018933
-0.000866842
-0.00155569
-0.00143744
-0.00104972
-0.0021746
-0.000356605
-0.00298101
0.000500408
-0.0036407
0.00143173
-0.00385646
0.00228226
-0.00334964
0.0028674
-0.00207088
0.00306598
-0.000398095
0.00290011
0.00101915
0.00254041
0.00163503
0.00219454
0.00139634
0.00200844
0.000580993
0.00195465
-0.00012304
0.00171809
0.000426469
0.000819239
0.00286588
-0.001313
0.0078142
-0.00488782
0.0141185
-0.00933096
0.0191891
-0.0127365
0.0166935
-0.0136522
0.00653198
-0.011773
-0.00946894
-0.0067945
-0.0310289
0.00813202
-0.0674755
0.015237
-0.0330918
0.0394709
-0.106047
0.055491
-0.0392245
0.0264323
0.142098
0.0106596
0.0531712
0.0060688
0.011672
0.00999377
-0.0198032
0.0164606
-0.0312391
0.0151136
-0.00244318
0.0015673
0.0396549
-0.0285697
0.11559
-0.0641932
0.162472
-0.0878298
0.136904
-0.0943275
0.0648224
-0.0898492
-0.00118486
-0.0786683
-0.0486087
-0.0611088
-0.0865257
-0.0403868
-0.10496
-0.0214964
-0.0949936
-0.00446795
-0.0802319
0.00733727
-0.0527679
0.0131655
-0.0251093
0.0171817
-0.0160589
0.0221074
-0.0204475
0.0263431
-0.0209302
0.0259055
-0.00524674
0.0165464
0.0351166
0.00289683
0.063346
-0.00572832
0.0471835
-0.00324799
-0.00466948
0.00504158
-0.0382469
0.0132056
-0.0379987
0.0190584
-0.026541
0.0230975
-0.0179318
0.0265101
-0.0153901
0.0286722
-0.00933047
0.0316087
-0.0122963
0.0340236
-0.0110642
-0.0223127
0.0719076
0.027624
-0.0715493
0.0722904
0.0284539
0.0727049
0.0293053
0.0730769
0.0301768
0.0732479
0.0309401
0.0730115
0.0314627
0.0721705
0.0316664
0.070579
0.0315132
0.0681649
0.0309901
0.0649323
0.0301066
0.0609539
0.028891
0.0563581
0.0273848
0.0513133
0.0256385
0.0460092
0.0237109
0.0406361
0.0216669
0.0353655
0.019574
0.030335
0.0174963
0.0256422
0.0154879
0.0213464
0.0135896
0.0174744
0.011827
0.0140294
0.0102144
0.0109979
0.00875542
0.00835611
0.00744745
0.00607444
0.00628403
0.00412049
0.00525547
0.00246139
0.00435173
0.00106478
0.00356168
-9.98914e-05
0.00287486
-0.00106107
0.00228104
-0.00184514
0.00177049
-0.00247584
0.00133379
-0.00297502
0.000964046
-0.00336052
0.000650679
-0.00365217
0.000389792
-0.00386625
0.000173686
-0.00400487
-1.2288e-05
-0.00409406
-0.000152524
-0.00413559
-0.000270509
-0.00413886
-0.00036391
-0.00411117
-0.000436771
-0.00405845
-0.000493634
-0.00398597
-0.000535934
-0.00389774
-0.000568725
-0.00379663
-0.000595035
-0.00368573
-0.000612272
-0.0035683
-0.000618948
-0.00344764
-0.000613358
-0.00332795
-0.000590499
-0.00321372
-0.000548854
-0.00310943
-0.000488261
-0.00301859
-0.000413201
-0.00294289
-0.000332222
-0.00288106
-0.000259001
-0.00282715
-0.00021547
-0.00276875
-0.000232302
-0.00268476
-0.000351818
-0.00254355
-0.000626366
-0.00230331
-0.0011071
-0.00191588
-0.00182488
-0.00133712
-0.00275338
-0.00054331
-0.00377483
0.000445089
-0.00462911
0.00153478
-0.00494616
0.00255637
-0.00437125
0.00329657
-0.00281109
0.00359835
-0.000699883
0.00346189
0.00115559
0.00306905
0.00202786
0.00266107
0.00180431
0.00241271
0.00082937
0.00229311
-3.43493e-06
0.00192817
0.000791427
0.000746277
0.0040478
-0.00189398
0.0104545
-0.00615628
0.0183808
-0.0112221
0.024255
-0.014878
0.0203494
-0.0157547
0.00740855
-0.0140781
-0.0111456
-0.00925643
-0.0358505
0.00741493
-0.0841468
0.017607
-0.0432839
0.0454876
-0.133927
0.0646507
-0.0583875
0.0340666
0.172682
0.0145416
0.072696
0.00806774
0.0181458
0.0119435
-0.0236788
0.0187653
-0.0380608
0.0160122
0.000309898
-0.00176664
0.0574338
-0.0374418
0.151265
-0.0761761
0.201206
-0.0989742
0.159702
-0.103661
0.0695096
-0.0981606
-0.00668582
-0.0860883
-0.0606809
-0.0670514
-0.105563
-0.0446181
-0.127393
-0.0240483
-0.115563
-0.00468407
-0.0995961
0.00919859
-0.0666505
0.0160888
-0.0319994
0.0208969
-0.020867
0.0266707
-0.0262213
0.031327
-0.0255865
0.0302167
-0.00413642
0.0191429
0.0461904
0.00409097
0.078398
-0.00506711
0.0563416
-0.00198205
-0.00775455
0.00723201
-0.0474609
0.0164166
-0.0471832
0.0231167
-0.0332411
0.0277429
-0.022558
0.0316717
-0.0193189
0.0341556
-0.0118144
0.0376587
-0.0157993
0.0402147
-0.0136202
-0.0287167
0.0765611
0.027299
-0.0762361
0.0768906
0.0281243
0.0772314
0.0289646
0.0775588
0.0298493
0.0778064
0.0306925
0.0778649
0.0314042
0.0775986
0.0319327
0.0768677
0.0322441
0.0755494
0.0323084
0.0735537
0.0321023
0.0708322
0.0316125
0.0673831
0.0308338
0.0632537
0.029768
0.0585389
0.0284257
0.0533763
0.0268295
0.047933
0.0250173
0.0423878
0.0230414
0.0369108
0.0209648
0.0316468
0.0188536
0.026705
0.0167689
0.0221575
0.0147619
0.018043
0.01287
0.0143732
0.0111172
0.0111408
0.00951641
0.00832494
0.00807121
0.00589697
0.00677956
0.00382363
0.00563492
0.00207007
0.00462843
0.000601437
0.00374979
-0.000615453
0.00298751
-0.00161247
0.00233087
-0.0024193
0.0017709
-0.0030614
0.00129279
-0.00356248
0.000890914
-0.00394398
0.000555268
-0.00423227
0.000276094
-0.00442621
4.14583e-05
-0.00455559
-0.000141103
-0.00462747
-0.000292008
-0.00465127
-0.000412926
-0.00463607
-0.000508802
-0.00458975
-0.000582238
-0.00451836
-0.000640101
-0.00442635
-0.000687046
-0.00431821
-0.00072041
-0.00419846
-0.000738695
-0.00407143
-0.00074039
-0.00394238
-0.00071956
-0.00381682
-0.000674431
-0.00370023
-0.00060487
-0.00359701
-0.000516435
-0.00350944
-0.000419809
-0.00343647
-0.00033199
-0.00337175
-0.000280204
-0.00330169
-0.000302376
-0.00320304
-0.000450491
-0.00304088
-0.000788543
-0.00276905
-0.00137894
-0.00233409
-0.00225986
-0.0016859
-0.00340158
-0.00079482
-0.00466593
0.000323877
-0.00574782