/*--------------------------------*- C++ -*----------------------------------*\
| =========                 |                                                 |
| \\      /  F ield         | OpenFOAM: The Open Source CFD Toolbox           |
|  \\    /   O peration     | Version:  2412                                  |
|   \\  /    A nd           | Website:  www.openfoam.com                      |
|    \\/     M anipulation  |                                                 |
\*---------------------------------------------------------------------------*/
FoamFile
{
    version     2.0;
    format      ascii;
    arch        "LSB;label=32;scalar=64";
    class       volVectorField;
    location    "0.725";
    object      ddtCorrDdt0(U);
}
// * * * * * * * * * * * * * * * * * * * * * * * * * * * * * * * * * * * * * //

dimensions      [0 1 -2 0 0 0 0];

internalField   nonuniform List<vector> 
12600
(
(0.187239 -8.90923e-21 -0.0542974)
(0.0405539 -1.28764e-20 -0.0104141)
(0.0567175 -8.84468e-21 -0.00349592)
(0.0516717 0 -0.00396496)
(0.0454441 -6.87901e-21 -0.00299975)
(0.0399178 -6.28994e-21 -0.0016267)
(0.0320778 0 -0.000844397)
(0.0233454 0 -0.00160116)
(0.0168707 1.74118e-20 -0.00216267)
(0.0133671 0 -0.00245267)
(0.011431 -7.07485e-21 -0.00252649)
(0.00949821 -6.50857e-21 -0.00242119)
(0.00681588 6.01096e-21 -0.00225211)
(0.00348286 0 -0.00210107)
(-5.67916e-05 5.06722e-21 -0.00190884)
(-0.00349244 0 -0.00155062)
(-0.00676289 -1.72919e-20 -0.000990418)
(-0.00992171 0 -0.000325307)
(-0.0129922 8.21953e-21 0.000307278)
(-0.0159018 8.20862e-21 0.000836976)
(-0.018488 -8.30236e-21 0.00128284)
(-0.0205665 -1.78469e-23 0.00170159)
(-0.0220268 0 0.0021312)
(-0.0228787 1.85329e-20 0.00257248)
(-0.0232127 0 0.00300167)
(-0.0231179 0 0.00338864)
(-0.0226388 2.19687e-20 0.00370744)
(-0.021795 0 0.00393988)
(-0.0206217 1.27329e-22 0.00407575)
(-0.019185 -2.4923e-20 0.00411176)
(-0.0175724 -2.56429e-20 0.0040513)
(-0.0158852 -2.61354e-20 0.00390517)
(-0.0142377 2.6375e-20 0.00369248)
(-0.0127521 5.26957e-20 0.00343934)
(-0.0115381 5.21013e-20 0.00317524)
(-0.0106643 -5.10071e-20 0.00292685)
(-0.0101417 0 0.00271346)
(-0.00992422 4.73969e-20 0.00254373)
(-0.00993184 0 0.00241724)
(-0.0100683 -4.25484e-20 0.00232543)
(-0.0102441 0 0.00225654)
(-0.0103727 -1.94211e-22 0.00219566)
(-0.0103872 0 0.0021302)
(-0.010226 -1.8309e-22 0.00204723)
(-0.00986193 -5.88568e-20 0.00194056)
(-0.00927272 5.44766e-20 0.00180361)
(-0.00848179 -5.00748e-20 0.00163946)
(-0.00750315 0 0.0014483)
(-0.00640121 0 0.00124212)
(-0.0051971 -3.83909e-20 0.00102341)
(-0.00397291 -6.90561e-20 0.000808468)
(-0.00273603 -6.12527e-20 0.00059566)
(-0.00159094 -1.29354e-22 0.000402941)
(-0.000535361 -4.4985e-20 0.000222097)
(0.000278366 0 7.66341e-05)
(0.000860586 2.77118e-20 -4.5977e-05)
(0.00100426 1.89681e-20 -0.000110343)
(0.000753663 1.07425e-20 -0.000131607)
(-0.000142491 0 -5.74795e-05)
(-0.00155284 0 8.96589e-05)
(-0.00373264 0 0.000374445)
(-0.00638432 3.97429e-20 0.000750776)
(-0.00973053 0 0.00128373)
(-0.0132557 0 0.00188568)
(-0.017167 -1.43115e-19 0.00261737)
(-0.0207362 0 0.00334334)
(-0.024213 0 0.00412635)
(-0.0267042 0 0.00479202)
(-0.0285643 1.6454e-19 0.0054213)
(-0.0288222 -1.59174e-19 0.00581884)
(-0.0280317 -1.54477e-19 0.00608536)
(-0.0254521 1.49372e-22 0.00602193)
(-0.0221329 1.45116e-19 0.00575978)
(-0.0180154 0 0.00518563)
(-0.0145542 -1.41374e-19 0.00453058)
(-0.0121705 0 0.00385739)
(-0.0118222 0 0.00341019)
(-0.0138717 0 0.00332714)
(-0.0177557 -2.33722e-22 0.00365452)
(-0.023742 -3.79286e-19 0.00456181)
(-0.0294431 -4.18639e-19 0.00567613)
(-0.0363019 4.78146e-19 0.00710091)
(-0.0407351 4.80232e-19 0.00801893)
(-0.0463069 0 0.00904306)
(-0.0480799 0 0.00927622)
(-0.0520526 -1.01441e-18 0.00982197)
(-0.0519073 2.1355e-18 0.00947075)
(-0.055309 -1.55221e-18 0.0100013)
(-0.0546077 -9.11921e-19 0.01005)
(-0.0577796 0 0.0108686)
(-0.0577494 9.5559e-19 0.0108239)
(-0.0600157 -7.39288e-19 0.0111434)
(-0.0595167 1.10197e-19 0.0111092)
(-0.060359 -1.08661e-18 0.0112205)
(-0.0635387 0 0.0112773)
(-0.0586072 0 0.0107479)
(-0.0705336 0 0.0123861)
(-0.071541 0 0.0111753)
(-0.0794736 0 0.0155138)
(0.020625 0 -0.00524074)
(-0.446963 4.58693e-18 0.0845177)
(0.514336 -5.47245e-18 -0.080696)
(0.151347 -4.30517e-18 -0.0333877)
(-1.94417 0 0.336982)
(3.17925 0 -0.577527)
(-0.190873 0 0.0479402)
(-5.30899 3.78405e-17 0.937739)
(6.39925 -1.64373e-16 -1.17281)
(-0.147862 -7.09118e-17 -0.220358)
(-9.31434 0 1.61267)
(10.5245 -1.40501e-16 -1.93678)
(8.36649 0 -1.42882)
(-15.4932 1.08654e-16 2.83019)
(-5.3262 1.71022e-16 0.848344)
(10.7958 -7.78987e-18 -1.94335)
(4.56901 8.34106e-17 -0.833908)
(-3.90068 -2.71257e-17 0.714209)
(-5.77902 -2.23727e-22 1.08075)
(-3.38421 1.06152e-18 0.648957)
(-0.548075 0 0.0972565)
(0.141007 8.99461e-21 -0.116998)
(0.0820966 0 -0.0416418)
(0.0965302 8.95116e-21 -0.00894407)
(0.10543 0 -0.00223319)
(0.0972359 6.97036e-21 -0.000945638)
(0.0819382 1.29952e-20 0.00019468)
(0.0638195 5.70176e-21 0.000488038)
(0.0470447 0 -0.00144511)
(0.0360374 1.22634e-22 -0.00363838)
(0.030605 8.1163e-21 -0.00535959)
(0.0281056 -7.39209e-21 -0.00617873)
(0.0255321 -6.77626e-21 -0.00613197)
(0.0214025 6.22768e-21 -0.00575505)
(0.0159757 -5.70573e-21 -0.00544185)
(0.0100164 -1.03473e-20 -0.0050388)
(0.00373414 0 -0.00417527)
(-0.00312078 -1.07209e-22 -0.00279873)
(-0.0105916 -8.54423e-21 -0.00125076)
(-0.0182549 -8.33898e-21 9.17039e-05)
(-0.0255198 0 0.00112912)
(-0.0320052 0 0.00202445)
(-0.0376481 -8.60478e-21 0.00298464)
(-0.0425763 0 0.00409484)
(-0.0469262 -9.37395e-21 0.00530909)
(-0.0507289 1.96663e-20 0.0065277)
(-0.0538946 0 0.00766158)
(-0.0562751 -2.19345e-20 0.00865171)
(-0.05775 0 0.00946252)
(-0.0582772 2.43249e-20 0.0100713)
(-0.0578874 5.02864e-20 0.0104632)
(-0.0566643 5.17451e-20 0.0106342)
(-0.0547409 2.64538e-20 0.0105956)
(-0.0523074 -2.66889e-20 0.010377)
(-0.0495942 -1.06413e-19 0.0100219)
(-0.0468309 -1.05247e-19 0.00958127)
(-0.0441916 0 0.00910273)
(-0.041773 0 0.00862571)
(-0.0395966 4.27543e-23 0.00817563)
(-0.0376488 0 0.00776791)
(-0.0358932 4.29544e-20 0.00740451)
(-0.0343004 0 0.00708329)
(-0.0328188 7.50173e-20 0.0067912)
(-0.0314092 0 0.00651885)
(-0.0300016 6.43974e-20 0.00624737)
(-0.0285713 0 0.00597104)
(-0.0270605 -5.48544e-20 0.0056723)
(-0.0254996 0 0.00535825)
(-0.0238658 0 0.00501897)
(-0.0222637 4.26407e-20 0.00468092)
(-0.020675 0 0.00433548)
(-0.0192528 0 0.00402254)
(-0.0179383 0 0.00372124)
(-0.016937 5.34079e-20 0.00348101)
(-0.0161361 9.0371e-20 0.00326123)
(-0.015838 0 0.00313008)
(-0.0158611 0 0.00302668)
(-0.0166322 -1.93603e-20 0.00305203)
(-0.0178619 -1.07422e-20 0.00312594)
(-0.0201386 0 0.0033989)
(-0.0230007 0 0.00376193)
(-0.0271897 0 0.00441475)
(-0.0319347 0 0.00518737)
(-0.0380926 5.11146e-20 0.00631378)
(-0.044449 -6.1219e-20 0.00752382)
(-0.0520074 1.41203e-19 0.00907925)
(-0.0590566 0 0.0105871)
(-0.066836 0 0.0123492)
(-0.0731584 0 0.0138608)
(-0.0795891 -5.41532e-22 0.0154951)
(-0.0835782 1.57651e-19 0.0166679)
(-0.087096 1.5286e-19 0.0178156)
(-0.087668 -2.94967e-19 0.0183134)
(-0.0878952 5.47401e-22 0.0186443)
(-0.0860841 1.43011e-19 0.0183047)
(-0.0852055 1.39363e-19 0.0178763)
(-0.084534 0 0.0171956)
(-0.0861699 0 0.0167969)
(-0.0902309 0 0.0168691)
(-0.0961227 -3.40641e-19 0.0175119)
(-0.105303 0 0.019296)
(-0.113171 0 0.0212549)
(-0.124677 -4.67968e-19 0.0241622)
(-0.131012 -4.69508e-19 0.0257297)
(-0.142511 0 0.0281243)
(-0.145228 0 0.0283535)
(-0.155997 0 0.0300303)
(-0.155414 -2.07297e-18 0.029062)
(-0.165789 3.33412e-21 0.0309635)
(-0.163235 -8.84424e-19 0.03077)
(-0.172588 5.805e-19 0.033486)
(-0.170221 -9.2974e-19 0.0328593)
(-0.177209 -7.17825e-19 0.0339036)
(-0.174501 -2.12962e-19 0.0333448)
(-0.176541 0 0.0340185)
(-0.181119 0 0.0343311)
(-0.170944 0 0.0320164)
(-0.190847 0 0.0365867)
(-0.183431 5.75335e-21 0.0331515)
(-0.216003 0 0.0390011)
(0.0693537 0 -0.00969277)
(-1.22216 4.39939e-18 0.236324)
(1.38772 2.62318e-18 -0.264813)
(0.317284 8.27614e-18 -0.0174532)
(-5.17489 1.73726e-17 0.912767)
(8.82191 0 -1.71888)
(-1.38894 0 0.378325)
(-13.8265 0 2.48421)
(17.7418 7.83171e-17 -3.48635)
(-1.83549 6.74867e-17 0.858678)
(-23.8539 0 4.26237)
(30.1006 2.66868e-16 -6.00265)
(19.9929 -1.29953e-16 -3.33336)
(-43.3398 -2.05926e-16 8.44401)
(-12.0966 0 1.78658)
(30.114 0 -5.82019)
(11.1758 7.88087e-17 -1.92469)
(-11.8485 0 2.38689)
(-16.3493 -1.94698e-17 3.11669)
(-9.64455 -8.89203e-19 1.78822)
(-1.46196 0 0.229365)
(0.108369 0 -0.0838575)
(0.0826983 0 -0.0441837)
(0.0896649 8.22556e-21 -0.00832924)
(0.102885 0 0.00517892)
(0.101715 0 0.00918883)
(0.087669 -6.16661e-21 0.0107228)
(0.067547 -5.39967e-21 0.00987938)
(0.048303 0 0.00631762)
(0.0350097 9.3297e-23 0.000927311)
(0.0284592 -7.68911e-21 -0.00401751)
(0.0260844 1.41172e-20 -0.00662202)
(0.0240926 6.42051e-21 -0.00685285)
(0.0201844 4.72605e-23 -0.00617207)
(0.0144459 5.40664e-21 -0.00571963)
(0.00787187 4.93265e-21 -0.00533305)
(0.000713455 -4.57229e-21 -0.00431844)
(-0.00747905 8.43939e-21 -0.00260503)
(-0.0167702 8.09688e-21 -0.000842185)
(-0.0264038 0 0.000371257)
(-0.0354011 0 0.00104393)
(-0.0432832 -8.02781e-21 0.00163568)
(-0.0501891 -8.17733e-21 0.00256459)
(-0.0565083 0 0.00392308)
(-0.0624915 0 0.00554504)
(-0.0681055 -1.86349e-20 0.00721302)
(-0.0731092 0 0.00878724)
(-0.0772185 4.14683e-20 0.0102139)
(-0.0802365 -2.17456e-20 0.0114776)
(-0.0820894 0 0.0125618)
(-0.0827914 -2.37291e-20 0.0134387)
(-0.0824117 -2.44255e-20 0.0140852)
(-0.0810797 0 0.0144967)
(-0.0790018 2.50491e-20 0.0146898)
(-0.0764389 5.0302e-20 0.014691)
(-0.0736514 1.43574e-22 0.0145297)
(-0.0708309 0 0.0142329)
(-0.0680857 0 0.013832)
(-0.0654505 -4.53859e-20 0.0133613)
(-0.0629446 0 0.0128627)
(-0.060574 0 0.0123698)
(-0.0583655 0 0.0119143)
(-0.0563095 0 0.0115062)
(-0.054411 0 0.0111567)
(-0.0526145 0 0.0108519)
(-0.0509215 0 0.0105933)
(-0.0492613 5.22102e-20 0.0103525)
(-0.047687 -4.80604e-20 0.0101394)
(-0.0461488 0 0.00992736)
(-0.044791 -4.03421e-20 0.00975166)
(-0.0435515 0 0.00958215)
(-0.0426438 0 0.0094773)
(-0.0419333 5.84912e-20 0.00938718)
(-0.0417147 0 0.00939174)
(-0.0417568 -4.28068e-20 0.00940823)
(-0.0425001 3.47456e-20 0.00954857)
(-0.0435822 0 0.0096859)
(-0.0456336 1.82997e-20 0.00998099)
(-0.0481019 0 0.0102607)
(-0.0518861 0 0.0107656)
(-0.0561617 0 0.011267)
(-0.0621246 -2.3277e-20 0.0121008)
(-0.0684948 -3.57331e-20 0.0129485)
(-0.0767536 -6.46424e-22 0.0142406)
(-0.0849741 1.14953e-19 0.0155213)
(-0.0949987 -6.37989e-22 0.0173164)
(-0.104153 0 0.0189914)
(-0.114776 0 0.0211794)
(-0.12343 1.52882e-19 0.0230607)
(-0.133068 -3.54128e-22 0.0254022)
(-0.139596 0 0.0272247)
(-0.146635 0 0.0294103)
(-0.149937 1.39254e-19 0.0308756)
(-0.153908 6.44738e-22 0.0325476)
(-0.155009 6.91412e-22 0.033395)
(-0.15795 0 0.0343176)
(-0.160405 0 0.0346341)
(-0.165816 2.75214e-19 0.0350753)
(-0.173393 -2.88957e-19 0.035615)
(-0.182855 0 0.036411)
(-0.196152 0 0.0383411)
(-0.207093 0 0.0401045)
(-0.223472 0 0.0434683)
(-0.232046 0 0.0450297)
(-0.249358 0 0.0485867)
(-0.253213 0 0.0489208)
(-0.270834 0 0.0522262)
(-0.270055 1.94388e-18 0.0511551)
(-0.287957 7.05381e-19 0.0547394)
(-0.283828 8.31244e-19 0.053816)
(-0.300488 -5.45482e-19 0.0581169)
(-0.295534 8.77029e-19 0.0563974)
(-0.308589 6.74248e-19 0.0585374)
(-0.302647 9.99142e-20 0.0570117)
(-0.307683 0 0.0583888)
(-0.311414 0 0.0587879)
(-0.297776 0 0.0552245)
(-0.322981 0 0.0612863)
(-0.308567 -5.39662e-21 0.0562421)
(-0.35683 0 0.0596048)
(0.0751524 0 -0.000536652)
(-1.91667 -4.12499e-18 0.359329)
(2.20861 0 -0.462495)
(0.229658 -3.89536e-18 0.105574)
(-7.93735 -1.62801e-17 1.30163)
(14.0579 0 -2.79323)
(-3.36622 0 1.16895)
(-20.6473 0 3.45219)
(28.1962 7.34989e-17 -5.6721)
(-5.44802 0 1.34102)
(-35.3279 -8.9387e-18 5.89116)
(48.8801 -1.80975e-21 -10.2195)
(27.3702 1.21622e-16 -3.63684)
(-69.0002 1.92393e-16 13.791)
(-15.2269 0 1.285)
(47.9386 6.48815e-18 -9.4753)
(15.116 -7.3716e-17 -2.08063)
(-20.2425 -2.35247e-17 4.3926)
(-26.0451 0 4.92308)
(-15.2781 8.31467e-19 2.64354)
(-2.15012 0 0.243368)
(0.0973765 0 -0.0428603)
(0.075898 0 -0.0309449)
(0.0746287 -7.77562e-21 -0.0072833)
(0.0841225 0 0.00666955)
(0.086725 6.56659e-21 0.0148935)
(0.0778728 -1.15525e-20 0.0211322)
(0.0616115 0 0.0231278)
(0.0434789 9.05161e-21 0.0187331)
(0.0285108 -8.13509e-21 0.00943941)
(0.0194333 -7.48896e-21 2.0337e-06)
(0.0154873 -6.72675e-21 -0.00528549)
(0.013197 6.2049e-21 -0.0058751)
(0.00939197 -5.62544e-21 -0.00444876)
(0.00347614 1.03496e-20 -0.00346616)
(-0.00342701 0 -0.00301952)
(-0.0107722 8.69352e-21 -0.00196859)
(-0.0191583 0 -4.85154e-05)
(-0.0289514 0 0.00179084)
(-0.0393293 0 0.00265021)
(-0.0489454 -7.57244e-21 0.00263658)
(-0.0570975 -2.97867e-23 0.00257961)
(-0.064045 -2.35472e-23 0.00317571)
(-0.070456 -7.99648e-21 0.00452864)
(-0.0767645 0 0.00631142)
(-0.0829392 0 0.00815135)
(-0.0886309 0 0.00985148)
(-0.0934455 -3.90548e-20 0.011384)
(-0.097132 8.30093e-23 0.0127824)
(-0.0996121 0 0.0140562)
(-0.100908 0 0.0151747)
(-0.101091 0 0.0161006)
(-0.100287 0 0.0168211)
(-0.0987067 -4.72761e-20 0.0173483)
(-0.0966236 0 0.0176965)
(-0.0943044 4.69289e-20 0.0178717)
(-0.0919312 0 0.0178731)
(-0.0895955 0 0.0177155)
(-0.0873173 4.28297e-20 0.0174332)
(-0.0851207 0 0.0170852)
(-0.0830256 0 0.016725)
(-0.0810867 -3.61946e-20 0.0164036)
(-0.0793091 6.75337e-20 0.0161378)
(-0.0777199 0 0.0159443)
(-0.0762611 5.80204e-20 0.0158033)
(-0.0749508 0 0.0157171)
(-0.0737019 -9.8697e-20 0.0156457)
(-0.0725918 -2.84713e-23 0.0156049)
(-0.0715468 0 0.0155568)
(-0.0707573 0 0.0155511)
(-0.0701225 3.46681e-20 0.0155418)
(-0.0699241 6.23054e-20 0.0156104)
(-0.069957 -1.10485e-19 0.0156826)
(-0.0706147 0 0.0158735)
(-0.0715518 -4.05582e-20 0.0160627)
(-0.0733562 -3.27985e-20 0.0164105)
(-0.0754857 -2.53167e-20 0.0167291)
(-0.0787856 -1.75731e-20 0.0172441)
(-0.0824373 0 0.017696)
(-0.0876619 0 0.0184215)
(-0.0932585 8.08024e-21 0.0190771)
(-0.10089 4.34017e-20 0.0201377)
(-0.108743 3.37023e-20 0.0211337)
(-0.118944 -5.84181e-22 0.0226879)
(-0.128821 -5.38827e-20 0.0241474)
(-0.141097 -6.19095e-20 0.026295)
(-0.15209 0 0.0282381)
(-0.165308 0 0.0309348)
(-0.176003 -1.44073e-19 0.0332264)
(-0.188625 -2.88155e-19 0.0362697)
(-0.197441 0 0.0386577)
(-0.20789 -1.36517e-19 0.0417263)
(-0.213799 -1.3219e-19 0.0438962)
(-0.221618 -1.28345e-19 0.0465837)
(-0.225716 -2.55876e-19 0.0482199)
(-0.232865 0 0.0501611)
(-0.238765 0 0.0512273)
(-0.248616 -2.58983e-19 0.0525096)
(-0.260212 5.43567e-19 0.0536582)
(-0.274132 2.99576e-19 0.0549749)
(-0.292169 0 0.0573979)
(-0.307216 0 0.0594202)
(-0.329143 0 0.0635809)
(-0.341026 0 0.0655908)
(-0.364829 0 0.0706559)
(-0.370814 0 0.0715376)
(-0.395969 8.67772e-19 0.076868)
(-0.39579 -4.78095e-22 0.0760693)
(-0.422063 -6.60801e-19 0.0814934)
(-0.416859 0 0.0798019)
(-0.44205 -5.15771e-19 0.0854008)
(-0.434409 -4.12297e-19 0.0827343)
(-0.455075 0 0.0863963)
(-0.445151 9.34444e-20 0.0838712)
(-0.455395 9.30661e-19 0.0859793)
(-0.456384 0 0.0858874)
(-0.441739 0 0.082479)
(-0.469751 0 0.0888643)
(-0.450235 1.45417e-21 0.0826863)
(-0.505947 0 0.0848541)
(0.036827 0 0.0244775)
(-2.5342 -3.88122e-18 0.455162)
(2.95544 -2.31621e-18 -0.649657)
(-0.0851715 0 0.301299)
(-10.19 0 1.53869)
(18.7372 0 -3.78228)
(-6.05917 0 2.00994)
(-25.7124 0 3.98228)
(37.407 4.91947e-20 -7.69158)
(-10.2871 0 3.2202)
(-43.5019 8.3646e-18 6.72404)
(66.181 -1.16811e-16 -14.3596)
(30.5936 0 -2.76582)
(-91.694 -4.26689e-20 18.7147)
(-15.0626 0 -0.251335)
(63.7932 -1.3455e-19 -12.881)
(16.2948 0 -1.50977)
(-28.7577 2.19948e-17 6.53708)
(-34.7314 0 6.51572)
(-20.2097 7.21641e-19 3.31176)
(-2.62329 0 0.166683)
(0.0911395 0 -0.0161293)
(0.0736185 0 -0.0165459)
(0.0691423 0 -0.004096)
(0.0726073 0 0.00714037)
(0.0741584 -6.19842e-21 0.0169417)
(0.0698275 3.29995e-23 0.0270446)
(0.0599718 0 0.0332405)
(0.0461002 -8.5435e-21 0.0304174)
(0.0310547 0 0.0189168)
(0.0184903 1.42386e-20 0.00516248)
(0.0104985 0 -0.00359058)
(0.00564103 -5.85786e-21 -0.00508095)
(0.0005573 0 -0.0027252)
(-0.00646209 -9.77167e-21 -0.00076896)
(-0.0145178 4.51075e-21 -8.90211e-05)
(-0.0225309 -8.29228e-21 0.00092975)
(-0.0310535 7.78008e-21 0.00304602)
(-0.0410736 7.40425e-21 0.00508431)
(-0.0521509 0 0.0056771)
(-0.0626347 7.15046e-21 0.00490811)
(-0.0713278 7.19819e-21 0.00403232)
(-0.0783698 1.46695e-20 0.00414661)
(-0.0846853 7.55082e-21 0.00542052)
(-0.091011 0 0.00733516)
(-0.0974386 0 0.00930492)
(-0.103561 0 0.011043)
(-0.108862 1.84039e-20 0.0125519)
(-0.113009 1.93394e-20 0.013939)
(-0.11591 0 0.0152644)
(-0.117612 0 0.0165068)
(-0.118198 -2.1522e-20 0.0176187)
(-0.117797 0 0.0185804)
(-0.116622 7.58413e-23 0.0194019)
(-0.114952 4.4437e-20 0.0200873)
(-0.113065 -4.40431e-20 0.020619)
(-0.111142 0 0.0209648)
(-0.10926 0 0.0211176)
(-0.107424 -4.04236e-20 0.0211064)
(-0.10566 0 0.0210013)
(-0.103996 0 0.0208681)
(-0.102508 3.41554e-20 0.0207694)
(-0.101207 -6.37251e-20 0.0207221)
(-0.100131 0 0.0207452)
(-0.099211 -5.47412e-20 0.0208114)
(-0.0984739 0 0.0209279)
(-0.0978091 4.65734e-20 0.0210467)
(-0.097317 4.28541e-20 0.0211962)
(-0.0968954 0 0.0213297)
(-0.0967824 3.59507e-20 0.0215159)
(-0.0968356 -3.2694e-20 0.0216902)
(-0.0974105 -1.1746e-19 0.0219588)
(-0.0982288 5.20989e-20 0.0222173)
(-0.099792 -4.51897e-20 0.0226181)
(-0.101636 -2.2617e-23 0.0229979)
(-0.104509 0 0.0235715)
(-0.107683 2.3862e-20 0.0240848)
(-0.112235 1.65617e-20 0.0248401)
(-0.117071 -9.71469e-21 0.0254847)
(-0.123757 2.758e-21 0.0264663)
(-0.130697 -7.61275e-21 0.0273127)
(-0.140051 -2.02017e-20 0.028652)
(-0.149441 3.07904e-20 0.0298387)
(-0.161682 -4.17518e-20 0.0317031)
(-0.173311 0 0.0333628)
(-0.187989 0 0.0358811)
(-0.200959 -6.23077e-20 0.0380705)
(-0.216985 0 0.041254)
(-0.229904 0 0.0438944)
(-0.24578 1.35482e-19 0.0475981)
(-0.257101 0 0.0504835)
(-0.271291 1.28441e-19 0.0544167)
(-0.280045 2.49246e-19 0.0572588)
(-0.292099 0 0.0610091)
(-0.299441 1.20659e-19 0.0634822)
(-0.311251 0 0.066608)
(-0.32086 0 0.0686076)
(-0.335694 2.44491e-19 0.0710462)
(-0.351607 -2.55366e-19 0.0731034)
(-0.370649 -5.12889e-22 0.0753194)
(-0.393781 0 0.0785088)
(-0.413747 0 0.0810342)
(-0.441681 0 0.0860316)
(-0.457837 3.88261e-19 0.0884303)
(-0.488702 -4.39938e-19 0.0948297)
(-0.49782 0 0.09608)
(-0.531168 -1.62893e-18 0.103316)
(-0.532482 -8.55655e-19 0.102693)
(-0.567911 1.24072e-18 0.110173)
(-0.562231 7.33527e-19 0.107869)
(-0.597035 9.6944e-19 0.115335)
(-0.586881 0 0.111826)
(-0.616808 0 0.117429)
(-0.602511 -8.76191e-20 0.113665)
(-0.620316 -8.72508e-19 0.117005)
(-0.616969 7.36378e-19 0.116009)
(-0.60448 0 0.113118)
(-0.632747 0 0.119619)
(-0.610575 -1.36213e-21 0.112558)
(-0.667669 -5.74667e-19 0.109931)
(-0.0445732 0 0.0664817)
(-3.0799 3.63485e-18 0.522613)
(3.60386 2.16888e-18 -0.824088)
(-0.586444 0 0.593297)
(-11.9313 0 1.59891)
(22.7359 0 -4.63455)
(-9.21094 0 3.26797)
(-29.0992 0 3.99993)
(45.2716 -6.44151e-17 -9.43817)
(-15.9767 0 6.34545)
(-48.5715 0 6.61338)
(81.4199 0 -18.2258)
(30.0082 -1.06174e-16 -0.579791)
(-110.757 -8.40542e-17 22.9132)
(-12.269 0 -2.7377)
(77.358 -5.54675e-18 -15.8784)
(14.7932 0 -0.0627189)
(-37.02 2.0366e-17 8.73678)
(-42.3108 0 7.80794)
(-24.4084 -6.74426e-19 3.73788)
(-2.90114 0 0.000190755)
(0.0866789 7.92095e-21 -0.00028311)
(0.0748602 7.48934e-21 -0.00354906)
(0.0713882 -6.98467e-21 0.001767)
(0.0705998 -6.41931e-21 0.00921511)
(0.0695488 0 0.0182896)
(0.0677864 5.08649e-21 0.029442)
(0.0642399 0 0.0382687)
(0.0567633 -8.2621e-21 0.0382997)
(0.0446971 -7.52746e-21 0.0273898)
(0.030397 -1.36143e-20 0.0111824)
(0.0177705 6.23405e-21 -0.00107945)
(0.00851685 -5.65374e-21 -0.00438041)
(0.000605798 0 -0.00151112)
(-0.00854505 0 0.0015942)
(-0.0187839 -4.25265e-21 0.0025743)
(-0.0284724 -3.72132e-23 0.00330898)
(-0.0376469 7.78927e-23 0.00546172)
(-0.0479548 5.64142e-23 0.0078819)
(-0.0599211 0 0.00850771)
(-0.0719324 0 0.0070968)
(-0.0820612 0 0.00530683)
(-0.0899113 -1.38556e-20 0.00481138)
(-0.0964934 -7.12827e-21 0.00597817)
(-0.102953 0 0.00809418)
(-0.109696 0 0.0102874)
(-0.116371 -1.63657e-20 0.0121187)
(-0.122341 0 0.0136043)
(-0.127136 0 0.0149448)
(-0.130613 0 0.016279)
(-0.132838 0 0.0176093)
(-0.133927 7.67068e-23 0.0188786)
(-0.134012 0 0.0200565)
(-0.133296 7.18959e-23 0.0211511)
(-0.132062 -4.18885e-20 0.0221592)
(-0.130606 1.18049e-22 0.0230423)
(-0.129118 0 0.0237371)
(-0.127677 0 0.0242144)
(-0.126275 0 0.0244963)
(-0.124938 0 0.0246632)
(-0.1237 0 0.0247908)
(-0.12266 0 0.0249505)
(-0.121836 0 0.025154)
(-0.121282 5.57449e-20 0.0254198)
(-0.120914 5.15769e-20 0.0257115)
(-0.120773 0 0.0260424)
(-0.120721 4.3851e-20 0.026357)
(-0.120885 0 0.0267003)
(-0.12113 0 0.0270178)
(-0.121745 -6.76882e-20 0.0274008)
(-0.12254 0 0.0277641)
(-0.123951 5.52879e-20 0.0282419)
(-0.125617 0 0.0286947)
(-0.128159 8.50761e-20 0.0293167)
(-0.130981 2.39742e-24 0.0298948)
(-0.135006 0 0.0307052)
(-0.139302 0 0.0314197)
(-0.145205 0 0.0324292)
(-0.151318 1.83779e-20 0.0332786)
(-0.159587 -5.30177e-21 0.0345427)
(-0.167983 6.5708e-21 0.0356069)
(-0.179208 1.8346e-20 0.0372708)
(-0.190267 -5.76078e-20 0.0386919)
(-0.204726 -3.85054e-20 0.0409303)
(-0.218256 0 0.0428444)
(-0.235547 0 0.0458058)
(-0.250668 3.1059e-22 0.0482948)
(-0.269754 0 0.0520357)
(-0.285097 0 0.055068)
(-0.304535 1.27129e-19 0.059497)
(-0.318589 0 0.0629112)
(-0.336887 0 0.0677706)
(-0.348742 -2.35221e-19 0.0713043)
(-0.365469 1.15257e-19 0.0761731)
(-0.376336 0 0.0794877)
(-0.393327 0 0.0838551)
(-0.406959 0 0.0868021)
(-0.427392 -2.29614e-19 0.0904944)
(-0.447964 0 0.0935333)
(-0.472841 -5.27495e-19 0.0968377)
(-0.501431 2.86439e-19 0.10096)
(-0.527136 0 0.10425)
(-0.561497 0 0.11025)
(-0.582869 -3.64338e-19 0.113216)
(-0.621318 5.05023e-22 0.121012)
(-0.634586 -3.94955e-19 0.122704)
(-0.676776 7.63849e-19 0.131849)
(-0.68057 -8.02685e-19 0.131411)
(-0.725993 -5.8197e-19 0.141103)
(-0.720621 -6.87751e-19 0.138387)
(-0.766226 1.69254e-21 0.148084)
(-0.754028 0 0.143755)
(-0.794992 5.59293e-19 0.151478)
(-0.776209 0 0.146646)
(-0.804026 0 0.151932)
(-0.795178 -6.89848e-19 0.149492)
(-0.788305 0 0.147637)
(-0.8145 0 0.154067)
(-0.792621 0 0.146478)
(-0.846177 5.38067e-19 0.136882)
(-0.169485 0 0.122171)
(-3.56079 3.40807e-18 0.56965)
(4.13119 0 -0.978013)
(-1.23516 0 0.951895)
(-13.1855 0 1.49398)
(25.9823 0 -5.32848)
(-12.5711 0 5.11009)
(-30.9864 2.80323e-17 3.5585)
(51.5872 -6.02813e-17 -10.8815)
(-22.4878 -4.96049e-17 8.44339)
(-50.7514 0 5.64656)
(94.1526 0 -21.7103)
(26.0477 1.98435e-16 2.7532)
(-125.631 0 26.3023)
(-7.70621 1.23948e-16 -6.08125)
(88.374 0 -18.3009)
(10.7623 -6.01189e-17 2.15376)
(-44.6505 -1.90317e-17 10.9115)
(-48.7075 0 8.84184)
(-27.8685 -5.85499e-19 3.90885)
(-3.0067 0 -0.254326)
(0.0841901 -7.4594e-21 0.00986012)
(0.0764015 -1.41219e-20 0.00708353)
(0.0751201 6.57921e-21 0.00875961)
(0.0729169 2.97931e-23 0.012881)
(0.0702552 -5.416e-21 0.0198803)
(0.0694333 0 0.0298335)
(0.0699679 0 0.0390432)
(0.0684012 7.77998e-21 0.0414864)
(0.0614254 1.43031e-20 0.0333642)
(0.048755 -9.45641e-23 0.0175995)
(0.0337901 -5.86972e-21 0.00317252)
(0.0205341 5.32327e-21 -0.00246792)
(0.00945429 -4.87725e-21 9.53086e-06)
(-0.00190341 0 0.0040066)
(-0.0144887 0 0.00522952)
(-0.0265262 3.73422e-21 0.00523888)
(-0.0370032 -1.40264e-20 0.00693147)
(-0.0476542 -1.33056e-20 0.00973397)
(-0.0603168 0 0.0107886)
(-0.0741234 0 0.00901916)
(-0.086533 0 0.00625789)
(-0.0961493 6.33087e-24 0.00493392)
(-0.10364 1.34151e-20 0.00585971)
(-0.1105 -6.96127e-21 0.00820335)
(-0.117643 -1.45801e-20 0.010736)
(-0.12499 3.07503e-20 0.012769)
(-0.131863 -1.61528e-20 0.0142823)
(-0.137608 -1.69659e-20 0.0155783)
(-0.141956 -1.77297e-20 0.0169071)
(-0.144966 0 0.0183176)
(-0.146797 1.9031e-20 0.0197435)
(-0.147592 -1.93325e-20 0.021136)
(-0.147536 1.96303e-20 0.0224989)
(-0.1469 3.91647e-20 0.0238265)
(-0.145999 7.78149e-20 0.0250645)
(-0.145052 0 0.0261202)
(-0.144156 0 0.0269405)
(-0.14329 3.56885e-20 0.0275392)
(-0.142474 0 0.0280079)
(-0.14174 -3.22132e-20 0.0284319)
(-0.141213 -3.02545e-20 0.0288905)
(-0.14092 0 0.0293867)
(-0.14094 -1.04911e-19 0.0299357)
(-0.141174 -4.85371e-20 0.0304878)
(-0.141681 0 0.0310626)
(-0.142296 -4.12621e-20 0.0315955)
(-0.143178 -3.79266e-20 0.0321517)
(-0.144151 0 0.0326671)
(-0.145565 6.36186e-20 0.033261)
(-0.147172 -2.88797e-20 0.0338245)
(-0.1495 -5.18918e-20 0.0345258)
(-0.152093 0 0.0351848)
(-0.155705 -3.68084e-23 0.0360447)
(-0.159588 6.77294e-20 0.036834)
(-0.164866 0 0.0379008)
(-0.170375 0 0.0388308)
(-0.177743 -1.48508e-20 0.0401184)
(-0.185232 -8.6821e-21 0.0411908)
(-0.195214 5.16258e-21 0.0427706)
(-0.205174 -6.1767e-21 0.0440794)
(-0.218419 -1.72442e-20 0.0461147)
(-0.23126 2.69168e-20 0.0478074)
(-0.248105 7.21143e-20 0.0504795)
(-0.263659 0 0.0526913)
(-0.283758 0 0.0561637)
(-0.301165 1.09278e-19 0.0589937)
(-0.323548 0 0.0633598)
(-0.341472 0 0.0668148)
(-0.364762 -1.19401e-19 0.0720313)
(-0.381737 0 0.0759919)
(-0.404504 1.1425e-19 0.0818354)
(-0.419681 -4.25685e-22 0.0860669)
(-0.441525 -1.08204e-19 0.0921107)
(-0.456177 0 0.0962676)
(-0.478894 0 0.101944)
(-0.496862 0 0.105858)
(-0.523553 -2.17034e-19 0.110912)
(-0.54915 0 0.11501)
(-0.580645 2.47349e-19 0.11959)
(-0.615111 -5.3721e-19 0.124808)
(-0.64747 0 0.129122)
(-0.68876 0 0.136327)
(-0.716401 0 0.140084)
(-0.763049 4.43274e-22 0.14943)
(-0.781616 3.70259e-19 0.151698)
(-0.833409 7.15706e-19 0.162854)
(-0.840848 7.5231e-19 0.162659)
(-0.897235 -5.47004e-19 0.174738)
(-0.893221 0 0.17172)
(-0.950957 -4.28082e-19 0.183969)
(-0.937506 0 0.17891)
(-0.99137 -5.2387e-19 0.189016)
(-0.968287 0 0.183763)
(-1.00898 0 0.190271)
(-0.993765 0 0.187019)
(-0.996179 -4.22342e-20 0.186689)
(-1.01841 4.84737e-19 0.192741)
(-1.00033 0 0.185013)
(-1.0468 -5.03229e-19 0.166663)
(-0.339169 -1.34596e-18 0.192423)
(-3.99019 -3.18885e-18 0.593073)
(4.51825 -1.92201e-18 -1.10619)
(-1.98383 0 1.37286)
(-14.0095 0 1.23381)
(28.434 0 -5.84376)
(-16.2713 0 5.60687)
(-31.6231 -2.62127e-17 2.69603)
(56.395 1.3545e-20 -11.9751)
(-28.8423 9.26681e-17 12.002)
(-50.634 0 3.89857)
(104.128 0 -24.6791)
(19.2922 -9.26914e-17 7.11543)
(-136.011 0 28.7159)
(-2.25643 -1.1583e-16 -10.0489)
(96.623 0 -20.0885)
(4.50879 1.12258e-16 5.115)
(-51.323 0 12.9456)
(-53.9133 0 9.57459)
(-30.6059 5.46973e-19 3.83847)
(-2.96609 0 -0.592682)
(0.0828916 0 0.0171316)
(0.0770729 6.64923e-21 0.0150903)
(0.0776258 0 0.0152055)
(0.0758441 5.66082e-21 0.0172692)
(0.0729327 1.02368e-20 0.0220932)
(0.0721694 0 0.0297082)
(0.0740202 -4.18994e-21 0.0376186)
(0.075703 0 0.0411711)
(0.0733067 1.21416e-22 0.0363491)
(0.0643873 1.24135e-20 0.0234146)
(0.0503069 0 0.00902602)
(0.0353116 0 0.00143569)
(0.0221851 4.58733e-21 0.00264842)
(0.00970654 0 0.00694216)
(-0.00403953 0 0.00835923)
(-0.0179897 0 0.00732407)
(-0.0300825 6.62721e-21 0.00783785)
(-0.0411231 6.28196e-21 0.0106555)
(-0.0538532 6.0938e-21 0.0124554)
(-0.0688769 0 0.0108082)
(-0.0837481 0 0.00717221)
(-0.0959309 6.13274e-21 0.00474869)
(-0.105145 -6.30434e-21 0.00513121)
(-0.112836 6.54727e-21 0.00758873)
(-0.120458 1.3713e-20 0.0105268)
(-0.128454 -2.87713e-20 0.0128875)
(-0.136322 9.59036e-23 0.0145139)
(-0.14326 1.59564e-20 0.0157859)
(-0.148787 1.66745e-20 0.0170984)
(-0.152882 0 0.0185816)
(-0.155733 0 0.0201674)
(-0.157512 1.81809e-20 0.0217782)
(-0.158381 0 0.0234074)
(-0.158576 -3.683e-20 0.0250518)
(-0.158422 -3.6526e-20 0.0266502)
(-0.158185 3.5736e-20 0.0280829)
(-0.158 0 0.0292694)
(-0.157842 -3.35571e-20 0.0302112)
(-0.157715 -3.19565e-20 0.0310111)
(-0.157636 3.58946e-23 0.0317657)
(-0.157749 5.68686e-20 0.0325638)
(-0.158096 0 0.0333968)
(-0.158789 4.93071e-20 0.0342744)
(-0.159718 0 0.0351287)
(-0.160968 0 0.0359858)
(-0.16234 0 0.0367686)
(-0.164035 2.02295e-24 0.0375652)
(-0.165826 0 0.0382994)
(-0.16813 -2.98815e-20 0.039124)
(-0.17063 5.4259e-20 0.0399021)
(-0.173963 4.87634e-20 0.0408433)
(-0.177559 0 0.0417198)
(-0.182333 -3.75463e-20 0.0428341)
(-0.187353 -6.35862e-20 0.0438452)
(-0.193979 0 0.0451867)
(-0.200775 0 0.0463428)
(-0.209712 1.39501e-20 0.0479305)
(-0.218654 8.24011e-21 0.0492383)
(-0.230468 -2.45932e-21 0.0511631)
(-0.242071 5.50482e-21 0.0527342)
(-0.257472 0 0.0551815)
(-0.272179 0 0.0571704)
(-0.291568 -1.87101e-22 0.0603297)
(-0.309234 4.0487e-20 0.0628707)
(-0.332333 0 0.0669198)
(-0.352127 -5.11766e-20 0.070126)
(-0.378043 0 0.0751912)
(-0.398673 0 0.0791013)
(-0.426114 0 0.0851826)
(-0.44617 0 0.0897152)
(-0.473787 2.42461e-22 0.0966211)
(-0.492488 -3.7362e-22 0.101568)
(-0.519924 1.02499e-19 0.108865)
(-0.538619 0 0.113876)
(-0.567657 9.97697e-20 0.120946)
(-0.590289 0 0.125852)
(-0.623968 2.03513e-19 0.132382)
(-0.654996 -2.12508e-19 0.137607)
(-0.69398 2.32276e-19 0.143632)
(-0.734817 2.5171e-19 0.150092)
(-0.774853 0 0.155664)
(-0.82368 -3.17595e-19 0.164283)
(-0.858766 0 0.169074)
(-0.914357 3.61773e-19 0.180177)
(-0.93952 3.4649e-19 0.183207)
(-1.00182 -6.70475e-19 0.196561)
(-1.01426 0 0.196733)
(-1.08275 1.02565e-18 0.21142)
(-1.0814 0 0.208228)
(-1.15278 -4.04056e-19 0.22334)
(-1.1392 0 0.217663)
(-1.20791 -4.91574e-19 0.230714)
(-1.18141 0 0.224794)
(-1.23754 -7.09947e-19 0.233843)
(-1.21604 6.10042e-19 0.228388)
(-1.23157 3.9523e-20 0.230484)
(-1.24844 -4.5357e-19 0.236579)
(-1.23823 0 0.228923)
(-1.27552 9.41621e-19 0.200993)
(-0.556206 2.52368e-18 0.276323)
(-4.38299 0 0.600227)
(4.75014 1.79754e-18 -1.20363)
(-2.78967 0 1.83883)
(-14.4851 0 0.836839)
(30.061 -3.14388e-17 -6.17459)
(-19.452 0 8.14561)
(-31.2835 0 1.48148)
(59.6835 5.26716e-17 -12.7108)
(-35.0076 -8.62177e-17 14.5447)
(-48.8384 5.54689e-18 1.50362)
(111.268 0 -27.0617)
(10.4442 0 12.3207)
(-141.891 0 30.1201)
(3.26944 0 -14.4361)
(101.953 3.88876e-18 -21.1628)
(-3.5195 -5.23937e-17 8.70004)
(-56.7881 0 14.7704)
(-57.971 0 10.0249)
(-32.665 0 3.53504)
(-2.80773 0 -1.00861)
(0.0818448 -6.77335e-21 0.0233318)
(0.0770764 0 0.0215624)
(0.0789143 -5.85014e-21 0.0209931)
(0.07803 0 0.0219394)
(0.0755232 -4.83218e-21 0.0250165)
(0.0745454 0 0.0301904)
(0.0759361 3.938e-21 0.0359909)
(0.0780676 -7.28997e-21 0.0394185)
(0.0779865 -1.30963e-20 0.037117)
(0.0726661 8.62162e-23 0.0279393)
(0.0613832 0 0.0154856)
(0.0470464 0 0.00699526)
(0.033495 0 0.00649547)
(0.0212477 0 0.0103404)
(0.00812334 0 0.0119265)
(-0.00622663 0 0.00997363)