/*--------------------------------*- C++ -*----------------------------------*\
| =========                 |                                                 |
| \\      /  F ield         | OpenFOAM: The Open Source CFD Toolbox           |
|  \\    /   O peration     | Version:  2412                                  |
|   \\  /    A nd           | Website:  www.openfoam.com                      |
|    \\/     M anipulation  |                                                 |
\*---------------------------------------------------------------------------*/
FoamFile
{
    version     2.0;
    format      ascii;
    arch        "LSB;label=32;scalar=64";
    class       volVectorField;
    location    "0.725";
    object      U_0;
}
// * * * * * * * * * * * * * * * * * * * * * * * * * * * * * * * * * * * * * //

dimensions      [0 1 -1 0 0 0 0];

internalField   nonuniform List<vector> 
12600
(
(18.712 1.22186e-21 2.08724)
(11.6073 1.60642e-20 0.448774)
(7.34686 1.89003e-20 -0.478168)
(5.08878 0 -0.709125)
(3.97736 1.70968e-20 -0.682267)
(3.33736 1.59268e-20 -0.607666)
(2.89651 0 -0.540058)
(2.5655 0 -0.484695)
(2.306 -4.7922e-20 -0.439292)
(2.09592 0 -0.401586)
(1.92158 2.01123e-20 -0.369737)
(1.77404 1.84215e-20 -0.342421)
(1.64721 -1.68813e-20 -0.318692)
(1.53675 0 -0.297856)
(1.43949 -1.41579e-20 -0.279389)
(1.35304 0 -0.262888)
(1.27557 4.76068e-20 -0.24804)
(1.20565 0 -0.234594)
(1.14216 -1.99398e-20 -0.22235)
(1.08419 -1.82439e-20 -0.211144)
(1.031 1.66614e-20 -0.200842)
(0.981966 5.57427e-24 -0.191331)
(0.936597 0 -0.18252)
(0.894463 -2.51725e-20 -0.174327)
(0.855205 0 -0.166687)
(0.818516 0 -0.159542)
(0.784132 -1.86974e-20 -0.152841)
(0.751827 0 -0.146543)
(0.721403 3.90463e-24 -0.140609)
(0.692687 1.35456e-20 -0.135006)
(0.665528 1.20728e-20 -0.129706)
(0.639791 1.07082e-20 -0.124682)
(0.615358 -9.44429e-21 -0.119913)
(0.592122 -1.65482e-20 -0.115377)
(0.569991 -1.43824e-20 -0.111056)
(0.548878 1.23685e-20 -0.106934)
(0.528708 0 -0.102997)
(0.509411 -8.81638e-21 -0.0992299)
(0.490925 0 -0.0956218)
(0.473193 5.78089e-21 -0.0921612)
(0.456163 0 -0.0888382)
(0.439787 1.72894e-23 -0.0856435)
(0.424023 0 -0.0825686)
(0.40883 1.57498e-23 -0.0796056)
(0.394171 1.2549e-22 -0.0767475)
(0.380012 1.60903e-21 -0.0739874)
(0.366323 -3.22099e-21 -0.0713194)
(0.353071 0 -0.0687375)
(0.340233 0 -0.0662367)
(0.32778 -7.20541e-21 -0.0638116)
(0.315691 -1.6587e-20 -0.0614581)
(0.303942 -1.85494e-20 -0.0591712)
(0.292514 1.92387e-23 -0.0569476)
(0.281384 -2.18724e-20 -0.0547825)
(0.270539 0 -0.0526735)
(0.259955 2.45383e-20 -0.0506158)
(0.249624 2.56314e-20 -0.0486079)
(0.239522 2.65699e-20 -0.0466449)
(0.229644 0 -0.0447261)
(0.219964 0 -0.0428463)
(0.210485 0 -0.0410061)
(0.201177 -5.83571e-20 -0.0391996)
(0.19205 0 -0.0374285)
(0.183069 0 -0.0356864)
(0.174252 1.20255e-19 -0.0339764)
(0.165559 0 -0.0322909)
(0.157016 0 -0.030635)
(0.148578 0 -0.0289997)
(0.140282 -1.20685e-19 -0.0273921)
(0.132071 1.20167e-19 -0.0258016)
(0.123998 1.19438e-19 -0.0242379)
(0.115995 2.33528e-23 -0.0226881)
(0.108131 -1.17395e-19 -0.0211654)
(0.100323 0 -0.0196537)
(0.0926616 1.14671e-19 -0.0181706)
(0.0850448 0 -0.0166962)
(0.0775904 0 -0.0152533)
(0.0701706 0 -0.0138172)
(0.0629382 2.88611e-23 -0.0124173)
(0.0557308 2.11105e-19 -0.0110224)
(0.0487471 2.06836e-19 -0.00967055)
(0.0417765 -2.02364e-19 -0.00832133)
(0.0350799 -1.97791e-19 -0.00702477)
(0.028378 0 -0.00572736)
(0.0220169 0 -0.00449537)
(0.0156197 3.66666e-19 -0.00325662)
(0.00965 -7.13358e-19 -0.00209994)
(0.00359111 6.9298e-19 -0.000926447)
(-0.00192982 3.36313e-19 0.000144292)
(-0.00762793 0 0.0012475)
(-0.0126491 -6.31252e-19 0.00222179)
(-0.017985 3.05171e-19 0.00325569)
(-0.0224665 -2.9488e-19 0.00412568)
(-0.0274656 5.68921e-19 0.005094)
(-0.0314132 0 0.00586105)
(-0.0360619 0 0.00676075)
(-0.0396791 0 0.00746373)
(-0.0437886 0 0.0082584)
(-0.0475258 0 0.00898346)
(-0.0505746 0 0.0095716)
(-0.0582345 -4.30671e-19 0.0110243)
(-0.0481629 -8.2917e-19 0.00914337)
(-0.0784306 -7.8132e-19 0.0149085)
(-0.0620135 0 0.0115244)
(-0.0393771 0 0.00789414)
(-0.146327 0 0.0278041)
(-0.0468235 -6.92207e-19 0.00819566)
(-0.0253795 -1.24511e-18 0.00579703)
(-0.235394 5.72382e-19 0.0447374)
(-0.0264391 0 0.00374619)
(0.0341535 -1.0881e-18 -0.00468243)
(-0.387812 0 0.0742818)
(-0.332531 -1.08191e-18 0.060683)
(0.103366 1.11064e-18 -0.0201655)
(-0.0544257 -9.24033e-19 0.0123904)
(-0.353574 -8.74492e-19 0.0673458)
(-0.342901 9.18851e-19 0.0641387)
(-0.144175 -2.24886e-22 0.0256692)
(0.0488536 9.40841e-19 -0.0106454)
(0.169426 0 -0.0327945)
(29.1121 -1.23347e-21 4.01499)
(25.0778 0 1.85183)
(20.2254 -1.91292e-20 -0.216567)
(16.0671 0 -1.21322)
(13.1132 -1.7324e-20 -1.50816)
(11.0741 -3.04299e-20 -1.51912)
(9.60424 -1.40901e-20 -1.44161)
(8.49382 0 -1.34418)
(7.6221 3.56032e-22 -1.24896)
(6.91641 -2.19288e-20 -1.16202)
(6.3312 2.01407e-20 -1.08404)
(5.83649 1.84962e-20 -1.01431)
(5.41171 -1.69839e-20 -0.951819)
(5.04223 1.5592e-20 -0.895597)
(4.7173 2.86767e-20 -0.844786)
(4.42888 0 -0.798654)
(4.17077 -6.50512e-23 -0.756583)
(3.93816 2.20571e-20 -0.718052)
(3.7272 2.02299e-20 -0.682624)
(3.53483 0 -0.649929)
(3.35854 0 -0.61965)
(3.19627 1.54079e-20 -0.591521)
(3.04629 0 -0.56531)
(2.90719 1.27606e-20 -0.540821)
(2.77773 -2.31554e-20 -0.517881)
(2.65689 0 -0.49634)
(2.54378 1.89503e-20 -0.476069)
(2.43762 0 -0.456953)
(2.33775 -1.53308e-20 -0.43889)
(2.2436 -2.74417e-20 -0.421791)
(2.15464 -2.44535e-20 -0.405576)
(2.07044 -1.08386e-20 -0.390174)
(1.99058 9.5567e-21 -0.375522)
(1.91471 3.34981e-20 -0.361563)
(1.84253 2.91074e-20 -0.348244)
(1.77373 0 -0.33552)
(1.70807 0 -0.323348)
(1.64532 -1.7022e-23 -0.311689)
(1.58526 0 -0.300509)
(1.5277 -5.83604e-21 -0.289774)
(1.47248 0 -0.279457)
(1.41943 -6.46376e-21 -0.269529)
(1.36841 0 -0.259967)
(1.31928 -2.06807e-21 -0.250746)
(1.27192 0 -0.241845)
(1.22622 -1.6202e-21 -0.233245)
(1.18208 0 -0.224928)
(1.13938 0 -0.216875)
(1.09806 6.00256e-21 -0.209072)
(1.05801 0 -0.201502)
(1.01916 0 -0.194154)
(0.981441 0 -0.187011)
(0.944785 2.03579e-20 -0.180065)
(0.909114 4.38257e-20 -0.173299)
(0.874387 0 -0.166708)
(0.840524 0 -0.160276)
(0.807497 -2.56067e-20 -0.154)
(0.775226 -2.65686e-20 -0.147862)
(0.743698 0 -0.141863)
(0.712828 0 -0.135985)
(0.68262 0 -0.130231)
(0.652981 0 -0.124582)
(0.623935 -5.88531e-20 -0.119044)
(0.595378 5.93957e-20 -0.113597)
(0.567358 -1.19569e-19 -0.10825)
(0.539752 0 -0.102979)
(0.51264 0 -0.0978022)
(0.485874 0 -0.0926886)
(0.45957 4.69897e-23 -0.0876629)
(0.433554 -1.19018e-19 -0.0826894)
(0.407982 -1.18188e-19 -0.077801)
(0.382644 2.34276e-19 -0.0729549)
(0.357752 3.57299e-23 -0.0681944)
(0.333047 -1.14536e-19 -0.0634676)
(0.308808 -1.1304e-19 -0.0588305)
(0.284718 0 -0.0542198)
(0.261138 0 -0.0497079)
(0.237673 0 -0.045216)
(0.214792 2.11263e-19 -0.0408375)
(0.191997 0 -0.0364731)
(0.169893 0 -0.0322433)
(0.147838 1.98057e-19 -0.0280202)
(0.126624 1.93375e-19 -0.0239615)
(0.105406 0 -0.0198984)
(0.0852305 0 -0.0160393)
(0.0649606 0 -0.0121574)
(0.0459945 6.94334e-19 -0.00853138)
(0.0267797 -4.5598e-23 -0.00485137)
(0.00920206 3.26597e-19 -0.00149231)
(-0.00888213 -3.16169e-19 0.00197333)
(-0.0249077 6.11743e-19 0.00503215)
(-0.0418491 2.95392e-19 0.00828071)
(-0.0561908 5.7031e-19 0.011015)
(-0.0720576 0 0.0140615)
(-0.0847139 0 0.0164695)
(-0.0994679 0 0.0193097)
(-0.111017 0 0.021501)
(-0.1241 4.69485e-19 0.0240281)
(-0.135875 0 0.0262601)
(-0.145915 0 0.0282452)
(-0.167975 -4.12924e-19 0.0323185)
(-0.142138 3.97153e-19 0.0275646)
(-0.229067 1.49541e-18 0.0444633)
(-0.177177 -7.31473e-19 0.0330247)
(-0.12897 0 0.0264526)
(-0.422677 0 0.0818142)
(-0.125978 0 0.0211979)
(-0.105508 5.93052e-19 0.0241226)
(-0.676775 -5.44739e-19 0.130723)
(-0.0557196 0 0.00491875)
(0.0307803 2.06815e-18 0.000806672)
(-1.14079 8.69109e-19 0.226084)
(-0.886017 2.05173e-18 0.160692)
(0.300484 0 -0.0625882)
(-0.223342 0 0.0514892)
(-1.02563 -8.27417e-19 0.201753)
(-0.945015 0 0.178002)
(-0.352019 -8.93021e-19 0.0609506)
(0.190376 -8.88421e-19 -0.0420681)
(0.525249 0 -0.102757)
(31.8554 0 3.8837)
(31.0448 0 2.80882)
(28.521 -1.29644e-20 1.01677)
(25.1852 0 -0.387258)
(21.9406 0 -1.22944)
(19.1739 1.51256e-20 -1.65329)
(16.9208 1.33435e-20 -1.82119)
(15.0997 0 -1.85269)
(13.6151 4.2054e-22 -1.81901)
(12.3873 2.07746e-20 -1.75659)
(11.3558 -3.79531e-20 -1.68291)
(10.4765 -1.75251e-20 -1.60629)
(9.7173 1.1472e-22 -1.53073)
(9.05435 -1.47746e-20 -1.45806)
(8.46981 -1.35602e-20 -1.38909)
(7.95 1.23904e-20 -1.32406)
(7.48425 -2.28126e-20 -1.26297)
(7.06418 -2.09022e-20 -1.20565)
(6.68306 0 -1.1519)
(6.33545 0 -1.10145)
(6.0169 1.59632e-20 -1.05408)
(5.72371 1.45684e-20 -1.00953)
(5.45283 0 -0.967588)
(5.20166 0 -0.928045)
(4.96801 2.19411e-20 -0.890709)
(4.75001 0 -0.855406)
(4.54606 -3.59059e-20 -0.821977)
(4.35476 1.61757e-20 -0.790278)
(4.1749 0 -0.760179)
(4.00544 1.30021e-20 -0.731561)
(3.84542 1.15865e-20 -0.704316)
(3.69405 0 -0.678346)
(3.55059 -9.06576e-21 -0.653559)
(3.41439 -1.58731e-20 -0.629876)
(3.28488 1.17979e-23 -0.607221)
(3.16154 0 -0.585525)
(3.04391 0 -0.564725)
(2.93155 8.45089e-21 -0.544764)
(2.82409 0 -0.525588)
(2.72119 0 -0.507147)
(2.62252 0 -0.489397)
(2.5278 0 -0.472294)
(2.43676 0 -0.4558)
(2.34917 0 -0.439877)
(2.26479 0 -0.424494)
(2.18342 1.49105e-21 -0.409616)
(2.10487 -3.01461e-21 -0.395216)
(2.02896 0 -0.381264)
(1.95553 -5.67898e-21 -0.367736)
(1.88442 0 -0.354605)
(1.81549 0 -0.341852)
(1.7486 1.75296e-20 -0.329449)
(1.68365 0 -0.317383)
(1.62049 -2.07055e-20 -0.305628)
(1.55903 2.20003e-20 -0.294173)
(1.49915 0 -0.282991)
(1.44079 2.4204e-20 -0.272077)
(1.38379 0 -0.261403)
(1.32815 0 -0.250968)
(1.2737 0 -0.240744)
(1.22045 5.40075e-20 -0.230734)
(1.16824 5.4874e-20 -0.220905)
(1.1171 2.81311e-23 -0.211271)
(1.06685 -1.12146e-19 -0.201792)
(1.01757 2.46868e-23 -0.19249)
(0.969042 0 -0.18332)
(0.921405 0 -0.174313)
(0.874403 -1.13175e-19 -0.165417)
(0.82823 3.78236e-23 -0.156673)
(0.782581 0 -0.148021)
(0.737727 0 -0.139516)
(0.6933 -1.10446e-19 -0.131085)
(0.649662 2.87406e-23 -0.122803)
(0.606367 2.67954e-23 -0.114579)
(0.56389 0 -0.106511)
(0.521685 0 -0.0984884)
(0.48037 -2.06367e-19 -0.0906364)
(0.439265 2.02718e-19 -0.0828184)
(0.399171 0 -0.075196)
(0.359233 0 -0.067597)
(0.320485 0 -0.0602298)
(0.281831 0 -0.0528733)
(0.244618 0 -0.045799)
(0.207411 0 -0.0387167)
(0.171982 0 -0.0319844)
(0.136413 0 -0.0252128)
(0.103062 -6.52767e-19 -0.0188795)
(0.0693189 -3.1667e-19 -0.0124548)
(0.0383569 -3.0696e-19 -0.00657999)
(0.00657723 2.97097e-19 -0.000524255)
(-0.0217066 -5.74663e-19 0.00483606)
(-0.0514881 -2.7746e-19 0.0105154)
(-0.0768549 -2.67776e-19 0.0153138)
(-0.10474 0 0.0206439)
(-0.12716 0 0.0248708)
(-0.153087 0 0.0298513)
(-0.173481 0 0.0336746)
(-0.196526 -4.40455e-19 0.0381346)
(-0.217102 0 0.0419768)
(-0.235178 0 0.0456573)
(-0.271141 3.87169e-19 0.0519345)
(-0.233609 0 0.045734)
(-0.37372 -7.00782e-19 0.0727354)
(-0.284817 6.85474e-19 0.0515935)
(-0.228364 0 0.049266)
(-0.683429 0 0.131815)
(-0.19455 0 0.0286151)
(-0.212294 5.55626e-19 0.0532909)
(-1.08944 0 0.20891)
(-0.0690269 -5.52739e-19 -0.00368973)
(-0.0392847 4.34275e-22 0.0308556)
(-1.86557 -8.13394e-19 0.377173)
(-1.33864 -1.91854e-18 0.224042)
(0.481393 0 -0.105731)
(-0.444619 8.19489e-19 0.112971)
(-1.65583 7.73948e-19 0.330391)
(-1.46312 8.11837e-19 0.265858)
(-0.479344 0 0.0688947)
(0.37769 8.30705e-19 -0.0898897)
(0.903747 0 -0.17906)
(32.3791 0 2.94088)
(32.9462 0 2.75657)
(32.3953 1.22557e-20 1.71417)
(30.7562 0 0.514787)
(28.5079 -1.23088e-20 -0.488887)
(26.0966 2.5043e-20 -1.21078)
(23.7818 0 -1.67319)
(21.6793 -2.1875e-20 -1.93699)
(19.8228 2.09798e-20 -2.06603)
(18.2027 1.89805e-20 -2.11028)
(16.7916 1.78446e-20 -2.10352)
(15.5583 -1.6226e-20 -2.06696)
(14.4746 1.51109e-20 -2.01356)
(13.5161 -2.75607e-20 -1.95113)
(12.6628 0 -1.88439)
(11.8986 -2.33739e-20 -1.81621)
(11.2101 0 -1.74833)
(10.5864 0 -1.6818)
(10.0186 0 -1.61724)
(9.49949 1.64773e-20 -1.55498)
(9.02277 -3.44257e-23 -1.49519)
(8.58334 -2.62278e-23 -1.43793)
(8.17684 1.25365e-20 -1.38316)
(7.79958 0 -1.33085)
(7.44841 0 -1.28089)
(7.12061 0 -1.23319)
(6.81383 3.39436e-20 -1.18763)
(6.52604 -6.2711e-24 -1.1441)
(6.25544 0 -1.1025)
(6.00048 0 -1.06272)
(5.75978 0 -1.02464)
(5.53211 0 -0.988182)
(5.3164 1.71479e-20 -0.953239)
(5.11167 0 -0.919727)
(4.91706 -1.30519e-20 -0.887562)
(4.73178 0 -0.856667)
(4.55515 0 -0.826967)
(4.38651 -8.0118e-21 -0.798394)
(4.22531 0 -0.770885)
(4.07101 0 -0.744377)
(3.92314 4.04459e-21 -0.718815)
(3.78126 -5.85312e-21 -0.694145)
(3.64497 0 -0.670319)
(3.5139 -1.9146e-21 -0.647286)
(3.38772 0 -0.625007)
(3.2661 -2.798e-21 -0.603436)
(3.14878 1.85883e-23 -0.582537)
(3.03546 0 -0.56227)
(2.9259 0 -0.542604)
(2.81988 6.41046e-21 -0.523501)
(2.71717 1.47698e-20 -0.504935)
(2.61756 -3.3076e-20 -0.486871)
(2.52089 0 -0.469288)
(2.42695 -1.94981e-20 -0.452149)
(2.3356 -2.07674e-20 -0.435442)
(2.24664 -2.18404e-20 -0.419128)
(2.15999 -2.28013e-20 -0.403201)
(2.07543 0 -0.38762)
(1.99292 0 -0.372386)
(1.91223 -4.99067e-20 -0.357455)
(1.83336 -1.01856e-19 -0.342836)
(1.75607 -5.17555e-20 -0.328481)
(1.68041 3.01966e-23 -0.314408)
(1.60611 5.28599e-20 -0.300561)
(1.53328 5.31784e-20 -0.286972)
(1.46161 0 -0.273575)
(1.39128 0 -0.260416)
(1.32191 1.06654e-19 -0.247418)
(1.2538 2.12524e-19 -0.234643)
(1.18649 0 -0.222001)
(1.12037 1.04899e-19 -0.209576)
(1.05491 1.03955e-19 -0.197257)
(0.990614 1.02884e-19 -0.185155)
(0.926848 2.03227e-19 -0.173137)
(0.864291 0 -0.161346)
(0.802148 0 -0.149621)
(0.741309 1.94196e-19 -0.138143)
(0.680791 -3.81416e-19 -0.126713)
(0.621744 -1.87047e-19 -0.115567)
(0.562935 0 -0.104454)
(0.505847 0 -0.0936746)
(0.448907 0 -0.0829112)
(0.394042 0 -0.072553)
(0.339201 0 -0.0621849)
(0.286913 0 -0.0523179)
(0.234447 -3.15553e-19 -0.042398)
(0.185157 4.37773e-23 -0.033105)
(0.135344 2.97337e-19 -0.023686)
(0.0895071 0 -0.015053)
(0.042558 2.78865e-19 -0.00617218)
(0.00060475 2.69697e-19 0.00172132)
(-0.0434095 0 0.0100544)
(-0.0811158 -2.51216e-19 0.0171317)
(-0.122318 -4.83945e-19 0.0249537)
(-0.155695 0 0.0311936)
(-0.194 0 0.0385124)
(-0.224268 0 0.0441298)
(-0.258395 -4.12871e-19 0.0507181)
(-0.288622 0 0.0562958)
(-0.315868 0 0.0619209)
(-0.365402 3.62735e-19 0.0700995)
(-0.320325 -3.48781e-19 0.0636169)
(-0.509502 0 0.0997618)
(-0.383651 0 0.0681819)
(-0.334764 0 0.0751727)
(-0.923873 0 0.178099)
(-0.254348 0 0.0327908)
(-0.341692 1.18363e-22 0.0903806)
(-1.46558 0 0.280418)
(-0.0728221 5.17236e-19 -0.0175187)
(-0.170903 -9.06277e-19 0.0792863)
(-2.543 0 0.52378)
(-1.68869 7.08932e-22 0.260565)
(0.636573 0 -0.146158)
(-0.70767 2.61262e-22 0.189862)
(-2.2233 0 0.450627)
(-1.88342 -7.59041e-19 0.331871)
(-0.519511 0 0.0548632)
(0.612341 7.76304e-19 -0.150938)
(1.30557 0 -0.2616)
(32.4834 0 2.08814)
(33.2417 0 2.21505)
(33.5893 0 1.74141)
(33.227 0 0.948847)
(32.2072 1.16186e-20 0.108379)
(30.7369 -8.99389e-22 -0.639635)
(29.0213 0 -1.23983)
(27.2189 2.0647e-20 -1.68304)
(25.4392 0 -1.9864)
(23.7481 -3.53304e-20 -2.1781)
(22.1779 0 -2.28668)
(20.7388 1.53185e-20 -2.33609)
(19.4283 0 -2.34461)
(18.2376 2.60216e-20 -2.32545)
(17.1557 -1.18588e-20 -2.28792)
(16.171 2.19235e-20 -2.23846)
(15.2726 -2.00813e-20 -2.18149)
(14.4507 -1.84435e-20 -2.12008)
(13.6965 0 -2.05633)
(13.0023 -1.55591e-20 -1.99169)
(12.3615 -1.42251e-20 -1.92716)
(11.7683 -2.59378e-20 -1.86342)
(11.2175 -1.18378e-20 -1.80093)
(10.7049 0 -1.73998)
(10.2265 0 -1.68076)
(9.77913 0 -1.62337)
(9.35974 -1.60202e-20 -1.56788)
(8.96576 -1.44382e-20 -1.51428)
(8.59493 0 -1.46257)
(8.24523 0 -1.4127)
(7.91484 1.03459e-20 -1.36463)
(7.60219 0 -1.3183)
(7.30583 1.1861e-24 -1.27365)
(7.02449 -1.41906e-20 -1.23061)
(6.757 1.23362e-20 -1.18911)
(6.50233 0 -1.14909)
(6.25953 0 -1.11047)
(6.02774 7.5617e-21 -1.0732)
(5.80619 0 -1.03721)
(5.59417 0 -1.00244)
(5.39103 -3.81673e-21 -0.968823)
(5.19617 5.52303e-21 -0.936312)
(5.00905 0 -0.90485)
(4.82915 1.80639e-21 -0.874384)
(4.65603 0 -0.844865)
(4.48924 1.31059e-21 -0.816243)
(4.3284 2.66882e-21 -0.788477)
(4.17312 0 -0.761518)
(4.02308 5.01223e-21 -0.735331)
(3.87793 -6.04542e-21 -0.709869)
(3.7374 -2.78258e-20 -0.685102)
(3.60118 1.55799e-20 -0.660985)
(3.46905 -1.70342e-20 -0.637494)
(3.34071 2.50678e-23 -0.614583)
(3.21599 0 -0.592237)
(3.09459 2.05855e-20 -0.570406)
(2.97641 2.14889e-20 -0.549083)
(2.86114 -2.22518e-20 -0.528217)
(2.74873 2.29241e-20 -0.507808)
(2.63886 4.70192e-20 -0.487801)
(2.53153 4.79598e-20 -0.468206)
(2.4264 -4.86884e-20 -0.448961)
(2.32355 4.93137e-20 -0.430091)
(2.2226 0 -0.411522)
(2.12369 0 -0.393296)
(2.0264 5.01844e-20 -0.375326)
(1.93097 0 -0.357673)
(1.8369 0 -0.340235)
(1.74456 -9.99846e-20 -0.323096)
(1.65334 0 -0.306133)
(1.56376 -9.86941e-20 -0.289459)
(1.4751 -1.95552e-19 -0.272928)
(1.38805 0 -0.256685)
(1.30173 -9.55486e-20 -0.240555)
(1.21706 0 -0.224726)
(1.13296 0 -0.208984)
(1.05062 -1.82459e-19 -0.19357)
(0.968723 1.79223e-19 -0.17822)
(0.888795 3.96314e-23 -0.163245)
(0.809195 0 -0.148313)
(0.731887 0 -0.133823)
(0.654784 0 -0.119353)
(0.580429 -1.60541e-19 -0.105417)
(0.506121 1.56458e-19 -0.0914696)
(0.435182 0 -0.0781818)
(0.364034 5.9238e-19 -0.0648268)
(0.29707 2.87694e-19 -0.0522965)
(0.229459 -5.58008e-19 -0.0396055)
(0.167077 -2.70343e-19 -0.0279481)
(0.103302 -5.23179e-19 -0.0159737)
(0.0460924 0 -0.00529646)
(-0.0137223 0 0.00594475)
(-0.0652498 2.35555e-19 0.0155358)
(-0.121233 4.53705e-19 0.0260887)
(-0.166914 -4.36789e-19 0.0345522)
(-0.218952 0 0.0444406)
(-0.260261 0 0.0520211)
(-0.306728 3.86835e-19 0.0609719)
(-0.347562 3.70951e-19 0.0684054)
(-0.385197 0 0.0762802)
(-0.448189 -3.39711e-19 0.0860093)
(-0.399605 3.26595e-19 0.0806299)
(-0.633358 0 0.124635)
(-0.472377 0 0.0821587)
(-0.444261 0 0.103762)
(-1.13981 0 0.218876)
(-0.307427 0 0.0337124)
(-0.487425 -4.86719e-19 0.135318)
(-1.79915 0 0.340895)
(-0.0744065 0 -0.0355654)
(-0.353225 0 0.147291)
(-3.15484 7.10926e-19 0.660684)
(-1.94128 8.38124e-19 0.26537)
(0.758612 0 -0.181414)
(-0.997129 -7.16712e-19 0.281615)
(-2.7071 0 0.556238)
(-2.196 -7.08764e-19 0.368651)
(-0.469184 0 0.0141637)
(0.894728 -7.25485e-19 -0.22689)
(1.73164 0 -0.350504)
(32.557 -4.9836e-21 1.4737)
(33.1407 -6.18637e-21 1.61461)
(33.6677 7.34619e-21 1.42487)
(33.8942 8.27944e-21 0.965155)
(33.7032 0 0.37442)
(33.1068 -9.92573e-21 -0.240408)
(32.1781 0 -0.813556)
(31.0079 1.74536e-20 -1.30803)
(29.6848 1.66937e-20 -1.70844)
(28.2849 3.22084e-20 -2.01519)
(26.8676 -1.4826e-20 -2.23797)
(25.4749 1.38407e-20 -2.39024)
(24.134 0 -2.48591)
(22.8603 0 -2.53758)
(21.6612 1.11803e-20 -2.55585)
(20.5385 -1.14604e-22 -2.54924)
(19.4906 1.76204e-22 -2.52438)
(18.5139 1.36067e-22 -2.48634)
(17.604 0 -2.43895)
(16.7561 0 -2.38509)
(15.9652 0 -2.32691)
(15.2267 2.43722e-20 -2.26602)
(14.5361 1.10967e-20 -2.20361)
(13.8894 0 -2.14057)
(13.2828 0 -2.07757)
(12.713 1.66544e-20 -2.01508)
(12.1769 0 -1.95346)
(11.6718 0 -1.89296)
(11.195 0 -1.83376)
(10.7443 0 -1.77597)
(10.3178 -6.61661e-24 -1.71968)
(9.91346 0 -1.66492)
(9.52967 -1.801e-24 -1.61172)
(9.1649 1.33767e-20 -1.56007)
(8.81776 2.29304e-24 -1.50995)
(8.48699 0 -1.46134)
(8.17144 0 -1.4142)
(7.87004 0 -1.3685)
(7.58185 0 -1.32418)
(7.30596 0 -1.28121)
(7.04158 0 -1.23954)
(6.78794 0 -1.19911)
(6.54436 -3.41365e-21 -1.15989)
(6.3102 -1.73764e-21 -1.12181)
(6.08487 0 -1.08484)
(5.86781 1.20072e-21 -1.04892)
(5.65853 0 -1.01401)
(5.45654 0 -0.980055)
(5.26141 -9.42671e-21 -0.947028)
(5.07269 0 -0.914873)
(4.89005 1.30887e-20 -0.88356)
(4.71307 0 -0.853034)
(4.54147 3.20536e-20 -0.823273)
(4.37485 2.42783e-23 -0.794222)
(4.213 0 -0.765864)
(4.05555 0 -0.738141)
(3.90232 0 -0.711047)
(3.75295 4.18672e-20 -0.684518)
(3.60734 -4.31297e-20 -0.658558)
(3.4651 -4.41778e-20 -0.633098)
(3.32621 -4.50624e-20 -0.608154)
(3.19024 9.15842e-20 -0.583647)
(3.05727 4.63342e-20 -0.55961)
(2.92681 0 -0.535951)
(2.79906 0 -0.512723)
(2.67345 -2.40978e-23 -0.489817)
(2.5503 0 -0.467311)
(2.42895 0 -0.445076)
(2.30987 -9.39184e-20 -0.423218)
(2.19229 0 -0.401582)
(2.07685 0 -0.380312)
(1.96262 1.83709e-19 -0.35922)
(1.85049 -9.08437e-20 -0.338494)
(1.73933 0 -0.317907)
(1.6303 0 -0.297702)
(1.52202 0 -0.277603)
(1.41599 1.71357e-19 -0.257919)
(1.31055 0 -0.238314)
(1.20761 3.2996e-19 -0.219179)
(1.1051 -1.61551e-19 -0.200097)
(1.00549 0 -0.181569)
(0.906143 0 -0.163065)
(0.810261 1.50649e-19 -0.145231)
(0.714447 -2.69853e-23 -0.127381)
(0.622865 1.42867e-19 -0.110358)
(0.531042 -2.77802e-19 -0.0932515)
(0.444464 2.69735e-19 -0.0771774)
(0.357121 2.61611e-19 -0.0609071)
(0.276323 2.53472e-19 -0.0459296)
(0.193861 3.27015e-23 -0.0305655)
(0.119613 0 -0.016824)
(0.0422285 -2.28768e-19 -0.0023972)
(-0.0247866 0 0.00997846)
(-0.0972049 0 0.0235224)
(-0.156711 4.0919e-19 0.0344488)
(-0.224015 0 0.0471566)
(-0.277676 0 0.056897)
(-0.33791 0 0.0684593)
(-0.390411 -3.47326e-19 0.0778944)
(-0.439781 0 0.0883014)
(-0.516315 -3.17938e-19 0.0993883)
(-0.468155 0 0.0962791)
(-0.741764 0 0.146829)
(-0.549104 0 0.0935156)
(-0.552041 0 0.134157)
(-1.32703 0 0.253406)
(-0.355137 -5.06149e-19 0.0321353)
(-0.641964 -4.55435e-19 0.186505)
(-2.08436 4.16914e-19 0.389905)
(-0.0801435 0 -0.0556768)
(-0.572488 0 0.231563)
(-3.68389 -1.32892e-18 0.783411)
(-2.1042 0 0.242119)
(0.843611 8.05485e-19 -0.209602)
(-1.29537 0 0.384001)
(-3.08602 6.31464e-19 0.642401)
(-2.39186 6.6233e-19 0.376069)
(-0.325769 0 -0.0523221)
(1.2255 -6.77655e-19 -0.317272)
(2.18328 0 -0.445977)
(32.6127 4.6932e-21 1.02138)
(33.0241 1.14084e-20 1.10956)
(33.4704 -6.91972e-21 1.02766)
(33.836 -7.79061e-22 0.765385)
(34.0102 7.50148e-21 0.376132)
(33.9369 0 -0.0781854)
(33.6084 0 -0.548471)
(33.0447 -1.6435e-20 -0.999007)
(32.2812 -3.05373e-20 -1.40619)
(31.3602 -7.07738e-22 -1.75698)
(30.3253 1.39594e-20 -2.04689)
(29.2168 -1.30317e-20 -2.27725)
(28.0697 1.17906e-20 -2.45289)
(26.9122 0 -2.58039)
(25.7657 0 -2.6669)
(24.6458 -9.58503e-21 -2.71941)
(23.5628 3.50906e-20 -2.74429)
(22.5232 3.23107e-20 -2.74712)
(21.5305 0 -2.73257)
(20.5861 0 -2.70455)
(19.6897 0 -2.66619)
(18.8403 -6.74719e-23 -2.62005)
(18.0361 -2.0845e-20 -2.56814)
(17.2749 9.47458e-21 -2.51207)
(16.5545 1.72315e-20 -2.4531)
(15.8724 -3.13136e-20 -2.39225)
(15.2263 1.41429e-20 -2.33029)
(14.614 1.27582e-20 -2.26785)
(14.0331 1.1471e-20 -2.20538)
(13.4817 0 -2.14328)
(12.9579 -9.17692e-21 -2.08182)
(12.4596 8.13449e-21 -2.02121)
(11.9854 -7.1845e-21 -1.96162)
(11.5335 -1.25868e-20 -1.90317)
(11.1026 -2.18956e-20 -1.84594)
(10.6912 0 -1.78998)
(10.2981 0 -1.73533)
(9.9221 -6.7273e-21 -1.68201)
(9.56217 0 -1.63002)
(9.21727 4.42591e-21 -1.57935)
(8.88647 3.40894e-21 -1.52998)
(8.5689 0 -1.48189)
(8.26374 6.44022e-21 -1.43506)
(7.97025 1.63523e-21 -1.38945)
(7.68773 0 -1.34503)
(7.4155 -1.12984e-21 -1.30175)
(7.15298 -2.31956e-21 -1.25959)
(6.89957 0 -1.2185)
(6.65476 8.83994e-21 -1.17844)
(6.41801 -5.31503e-21 -1.13937)
(6.18889 -1.22591e-20 -1.10126)
(5.96691 0 -1.06406)
(5.7517 -2.45177e-23 -1.02774)
(5.54279 3.24392e-20 -0.992236)
(5.33991 0 -0.957546)
(5.14259 0 -0.9236)
(4.95063 -1.89605e-20 -0.890394)
(4.76356 -1.96722e-20 -0.857854)
(4.58126 4.0511e-20 -0.825991)
(4.40325 4.15282e-20 -0.79472)
(4.22949 4.23561e-20 -0.764066)
(4.05945 -4.30236e-20 -0.733933)
(3.89323 -8.70586e-20 -0.704366)
(3.73022 0 -0.67525)
(3.57063 0 -0.646656)
(3.41379 -8.861e-20 -0.618448)
(3.26007 0 -0.590725)
(3.10866 0 -0.563327)
(2.96012 8.82096e-20 -0.536388)
(2.81349 0 -0.509715)
(2.66957 -8.70053e-20 -0.483488)
(2.52721 -3.22356e-23 -0.457473)
(2.38747 8.52849e-20 -0.431905)
(2.24897 0 -0.406503)
(2.11312 0 -0.381564)
(1.97823 0 -0.356751)
(1.84613 1.6071e-19 -0.332443)
(1.71476 0 -0.308225)
(1.58648 -1.54759e-19 -0.284579)
(1.45872 3.03047e-19 -0.260992)
(1.33451 0 -0.238078)
(1.21062 0 -0.215187)
(1.09095 0 -0.193109)
(0.97137 -2.67419e-23 -0.171008)
(0.856935 -1.33934e-19 -0.149909)
(0.742218 -2.60311e-19 -0.128708)
(0.633868 -2.52807e-19 -0.108758)
(0.524626 2.45088e-19 -0.0885725)
(0.423322 0 -0.0699539)
(0.32008 2.2971e-19 -0.050875)
(0.226795 0 -0.033763)
(0.129844 2.14279e-19 -0.0158409)
(0.045466 0 -0.00039043)
(-0.0452615 0 0.0164331)
(-0.120306 0 0.0300799)
(-0.204613 -3.68e-19 0.0458877)
(-0.272106 -3.5353e-19 0.0579975)
(-0.347722 0 0.072452)
(-0.413076 3.25001e-19 0.0840356)
(-0.47567 -3.11135e-19 0.0972905)
(-0.566068 2.97487e-19 0.109508)
(-0.522033 -2.85952e-19 0.109894)
(-0.830802 0 0.165587)
(-0.611349 0 0.101897)
(-0.65244 0 0.165289)
(-1.48151 0 0.28111)
(-0.3978 4.73294e-19 0.0284651)
(-0.796529 -9.84554e-23 0.242227)
(-2.31668 -7.79353e-19 0.426618)
(-0.0944951 0 -0.0762231)
(-0.811963 0 0.329008)
(-4.11496 6.20869e-19 0.887714)
(-2.1892 0 0.192644)
(0.892574 -7.52728e-19 -0.229713)
(-1.58257 0 0.492494)
(-3.34023 -1.17973e-18 0.703787)
(-2.46522 0 0.351347)
(-0.0888361 0 -0.145371)
(1.60538 6.33037e-19 -0.422126)
(2.66236 0 -0.548284)
(32.6383 0 0.668001)
(32.94 -5.25098e-21 0.712269)
(33.2772 0 0.663709)
(33.6079 -6.60431e-21 0.501557)
(33.8692 -1.34681e-20 0.240631)
(34.0103 0 -0.0873617)
(34.0026 6.72201e-21 -0.451014)
(33.8349 0 -0.824235)
(33.5078 8.98936e-22 -1.18683)
(33.0306 -2.59021e-20 -1.52435)
(32.4195 0 -1.82746)
(31.6946 0 -2.09128)
(30.8783 -1.10896e-20 -2.31421)
(29.9926 0 -2.49698)
(29.0587 0 -2.64188)
(28.0955 0 -2.75216)
(27.1189 -1.63927e-20 -2.8316)
(26.1425 -1.51096e-20 -2.88414)
(25.1766 -1.37181e-20 -2.91366)
(24.2294 0 -2.92377)
(23.3066 0 -2.91777)
(22.4122 -1.07069e-20 -2.89853)
(21.5488 9.77784e-21 -2.86858)
(20.7178 -8.91111e-21 -2.83005)
(19.9198 -1.62066e-20 -2.78474)
(19.1547 2.93342e-20 -2.73416)
(18.422 -5.45529e-23 -2.67957)
(17.7209 -1.1999e-20 -2.62199)
(17.0504 -1.07883e-20 -2.56227)
(16.4091 0 -2.5011)
(15.796 0 -2.43906)
(15.2096 -7.64994e-21 -2.3766)
(14.6486 0 -2.31409)
(14.1118 1.18364e-20 -2.25182)
(13.5979 1.02936e-20 -2.19004)
(13.1056 -8.86027e-21 -2.12894)
(12.6339 0 -2.06865)
(12.1815 6.32553e-21 -2.0093)
(11.7474 5.20153e-21 -1.95096)
(11.3306 3.44778e-24 -1.89369)
(10.9301 -6.41455e-21 -1.83755)
(10.5451 0 -1.78255)
(10.1746 -3.03425e-21 -1.72871)
(9.81789 0 -1.67603)
(9.47415 0 -1.62451)
(9.14265 0 -1.57414)
(8.82275 1.34695e-23 -1.52489)
(8.51376 0 -1.47675)
(8.21511 -4.14726e-21 -1.42969)
(7.92619 9.9769e-21 -1.38368)
(7.64649 1.15201e-20 -1.33869)
(7.37544 0 -1.29468)
(7.11262 -1.41291e-20 -1.25163)
(6.85749 -3.04335e-20 -1.20949)
(6.6097 0 -1.16824)
(6.36872 0 -1.12782)
(6.1343 1.78106e-20 -1.08824)
(5.90588 1.84413e-20 -1.0494)
(5.68333 -1.90158e-20 -1.01134)
(5.46604 -3.89356e-20 -0.973941)
(5.25399 0 -0.937255)
(5.04654 0 -0.901164)
(4.84378 2.81313e-23 -0.865728)
(4.645 -4.11874e-20 -0.83081)
(4.45045 0 -0.7965)
(4.2593 4.15773e-20 -0.762635)
(4.07199 0 -0.729338)
(3.88755 0 -0.696415)
(3.70665 0 -0.664032)
(3.52812 0 -0.631956)
(3.35292 3.41293e-23 -0.600405)
(3.17964 -3.19332e-23 -0.569099)
(3.00958 -7.99458e-20 -0.53832)
(2.84104 0 -0.50773)
(2.67573 -7.78292e-20 -0.477689)
(2.51159 0 -0.447787)
(2.35083 -1.50698e-19 -0.418482)
(2.19094 1.479e-19 -0.389276)
(2.03476 -1.45011e-19 -0.360747)
(1.87919 -1.42022e-19 -0.332278)
(1.72788 0 -0.304605)
(1.57692 1.35615e-19 -0.276949)
(1.431 0 -0.250257)
(1.28515 -1.28917e-19 -0.223527)
(1.14542 -1.25436e-19 -0.197985)
(1.00535 2.4386e-19 -0.172316)
(0.872831 0 -0.148129)
(0.739274 -4.5906e-19 -0.123659)
(0.615134 0 -0.101048)
(0.488763 2.15037e-19 -0.077896)
(0.374205 0 -0.0570778)
(0.255438 2.00555e-19 -0.0353115)
(0.151589 0 -0.0164795)
(0.0404284 3.72432e-19 0.0039418)
(-0.052079 -3.58459e-19 0.0206142)
(-0.155362 3.44374e-19 0.0398226)
(-0.238354 3.30799e-19 0.0545356)
(-0.33119 0 0.0721897)
(-0.410709 -6.08058e-19 0.0860833)
(-0.488203 5.82058e-19 0.102513)
(-0.592992 0 0.115736)
(-0.556567 2.67433e-19 0.120696)
(-0.896036 0 0.180156)
(-0.655778 0 0.106882)
(-0.738968 -4.64497e-19 0.195918)
(-1.59958 0 0.300763)
(-0.434249 0 0.0228609)
(-0.941436 3.9813e-19 0.300454)
(-2.49287 7.28026e-19 0.450289)
(-0.11877 3.95059e-19 -0.0961596)
(-1.05321 0 0.435554)
(-4.43547 0 0.970038)
(-2.20962 0 0.120409)
(0.912047 0 -0.24205)
(-1.83766 5.85494e-19 0.601772)
(-3.45246 5.50897e-19 0.735712)
(-2.41264 0 0.293916)
(0.240399 0 -0.264511)
(2.03553 0 -0.541356)
(3.17141 0 -0.657787)
(32.6384 4.20847e-21 0.379512)
(32.8706 0 0.396331)
(33.1265 4.92565e-21 0.356541)
(33.3915 0 0.244097)
(33.6348 6.02515e-21 0.0595276)
(33.8248 0 -0.182485)
(33.9388 -6.31783e-21 -0.462817)
(33.9616 1.1592e-20 -0.763535)
(33.8842 2.36673e-20 -1.06948)
(33.7018 7.26971e-22 -1.36867)
(33.4141 0 -1.6521)
(33.0245 0 -1.91355)
(32.5394 0 -2.14917)
(31.9682 0 -2.35688)
(31.3217 0 -2.53594)
(30.612 0 -2.6866)
(29.8515 1.47744e-20 -2.80989)
(29.0524 -1.36971e-20 -2.9074)
(28.2261 1.28896e-20 -2.98109)
(27.3833 0 -3.03318)
(26.5329 0 -3.06598)
(25.6829 9.85968e-21 -3.08183)
(24.8397 9.02771e-21 -3.08295)
(24.0084 8.24604e-21 -3.07146)
(23.1931 0 -3.04927)
(22.3967 -1.37479e-20 -3.01812)
(21.6214 -2.48181e-20 -2.97955)
(20.8688 1.11748e-20 -2.93489)
(20.1397 0 -2.88533)
(19.4346 0 -2.83185)
(18.7536 0 -2.77532)
(18.0966 7.15198e-21 -2.71647)
(17.4632 0 -2.65592)
(16.8528 0 -2.59418)
(16.2648 9.64352e-21 -2.53169)
(15.6986 8.3234e-21 -2.46881)
(15.1532 0 -2.40584)
(14.6279 5.93739e-21 -2.34304)
(14.122 -9.76997e-21 -2.2806)
(13.6345 -3.91193e-21 -2.21869)
(13.1647 3.01463e-21 -2.15744)
(12.7118 0 -2.09696)
(12.2749 0 -2.03734)
(11.8534 0 -1.97862)
(11.4464 2.04752e-22 -1.92086)
(11.0532 0 -1.8641)
(10.6733 2.03466e-21 -1.80834)
(10.3058 2.99086e-21 -1.7536)
(9.95029 0 -1.69989)
(9.60597 -4.67769e-21 -1.64719)
(9.27238 0 -1.5955)
(8.94887 0 -1.54479)
(8.635 -1.322e-20 -1.49507)
(8.33015 2.13132e-23 -1.44627)
(8.03397 1.51679e-20 -1.39841)
(7.74582 0 -1.35142)
(7.46546 0 -1.30532)
(7.19222 -1.7307e-20 -1.26001)
(6.92597 0 -1.21554)
(6.66599 3.65361e-20 -1.1718)
(6.41229 0 -1.12884)
(6.16409 0 -1.08652)
(5.92153 7.65822e-20 -1.04493)
(5.68373 7.72503e-20 -1.00392)
(5.45103 3.88351e-20 -0.963583)
(5.22241 0 -0.92374)
(4.99842 0 -0.884541)
(4.77789 3.89074e-20 -0.845755)
(4.56161 7.75162e-20 -0.807585)
(4.34819 0 -0.769753)
(4.13878 7.6507e-20 -0.732524)
(3.93167 -7.57833e-20 -0.695562)
(3.72841 7.49439e-20 -0.659207)
(3.52698 -7.39659e-20 -0.623055)
(3.32939 7.2947e-20 -0.587537)
(3.13318 0 -0.552165)
(2.94098 0 -0.517485)