/*--------------------------------*- C++ -*----------------------------------*\
| =========                 |                                                 |
| \\      /  F ield         | OpenFOAM: The Open Source CFD Toolbox           |
|  \\    /   O peration     | Version:  2412                                  |
|   \\  /    A nd           | Website:  www.openfoam.com                      |
|    \\/     M anipulation  |                                                 |
\*---------------------------------------------------------------------------*/
FoamFile
{
    version     2.0;
    format      ascii;
    arch        "LSB;label=32;scalar=64";
    class       volVectorField;
    location    "1.08";
    object      U_0;
}
// * * * * * * * * * * * * * * * * * * * * * * * * * * * * * * * * * * * * * //

dimensions      [0 1 -1 0 0 0 0];

internalField   nonuniform List<vector> 
12600
(
(19.2098 0 -0.629102)
(7.76244 -3.80284e-20 -1.60339)
(3.26608 -1.74454e-20 -1.65429)
(1.65132 0 -1.21445)
(1.03435 -2.28588e-22 -0.80535)
(0.705294 0 -0.542737)
(0.485002 -3.01512e-20 -0.375473)
(0.326087 0 -0.260832)
(0.208111 0 -0.177507)
(0.119023 0 -0.11506)
(0.0499796 0 -0.0683728)
(-0.00390198 -9.62425e-20 -0.0321073)
(-0.0458172 -9.85001e-20 -0.00343398)
(-0.0786817 0 0.0197688)
(-0.10421 1.99619e-19 0.0366408)
(-0.122976 0 0.0505593)
(-0.137964 2.31239e-22 0.0614167)
(-0.148788 0 0.0698187)
(-0.156441 9.66079e-20 0.076233)
(-0.16117 0 0.0806527)
(-0.163866 0 0.083295)
(-0.165062 0 0.0847002)
(-0.164462 3.54867e-19 0.0858217)
(-0.162177 -3.46071e-19 0.086288)
(-0.158755 -3.08217e-22 0.0856104)
(-0.155571 1.62071e-19 0.0837312)
(-0.151921 0 0.0818959)
(-0.146763 0 0.0801556)
(-0.141142 0 0.0779021)
(-0.135786 -2.8494e-19 0.075103)
(-0.130359 -5.50407e-19 0.0722097)
(-0.124691 0 0.0693997)
(-0.118942 0 0.0665127)
(-0.11325 -2.46421e-19 0.063474)
(-0.107639 -2.37158e-19 0.0603988)
(-0.102104 0 0.0574189)
(-0.0966951 0 0.0545397)
(-0.0914737 -4.21822e-19 0.0517035)
(-0.0864471 0 0.0489101)
(-0.0816131 4.26052e-23 0.0461975)
(-0.0769667 -3.73463e-19 0.0436293)
(-0.0725382 -3.58352e-19 0.0411941)
(-0.0683155 0 0.0388366)
(-0.0642814 -3.29316e-19 0.0365553)
(-0.0604169 -3.15598e-19 0.0343782)
(-0.0567172 6.04757e-19 0.032306)
(-0.053221 -5.79168e-19 0.030347)
(-0.0499589 0 0.0285116)
(-0.0469721 5.30527e-19 0.0268293)
(-0.0443182 -5.07579e-19 0.0253389)
(-0.042039 0 0.024063)
(-0.0401674 -1.45806e-23 0.023018)
(-0.0387023 4.43651e-19 0.0221971)
(-0.0375979 0 0.0215677)
(-0.0367632 -8.10049e-19 0.0210902)
(-0.0360336 0 0.0206732)
(-0.0351704 0 0.0201797)
(-0.0338405 1.66818e-23 0.0194006)
(-0.031606 1.55972e-23 0.0180887)
(-0.0279543 6.42173e-19 0.0159664)
(-0.022391 -6.12404e-19 0.0127584)
(-0.0145111 1.16734e-18 0.00825611)
(-0.00416587 0 0.00242397)
(0.00835248 1.05806e-18 -0.00469673)
(0.0225758 1.0061e-18 -0.0128231)
(0.0379535 -1.91201e-18 -0.021645)
(0.0538647 9.07901e-19 -0.0308091)
(0.069815 0 -0.040022)
(0.0849741 0 -0.0487893)
(0.0980906 0 -0.0563784)
(0.10706 0 -0.0615877)
(0.109375 0 -0.0629956)
(0.103693 -1.32554e-18 -0.0597169)
(0.0910444 1.25826e-18 -0.0525462)
(0.0743455 0 -0.0428834)
(0.0599038 0 -0.0342742)
(0.0515335 1.06988e-18 -0.0290824)
(0.0438086 2.18351e-22 -0.0240599)
(0.028614 1.87506e-18 -0.0149799)
(0.00754489 0 -0.00266624)
(-0.0173876 0 0.0115414)
(-0.0431433 0 0.0259748)
(-0.0592148 7.7308e-23 0.0346524)
(-0.0728192 0 0.0415741)
(-0.0947788 0 0.0534982)
(-0.132832 1.2357e-18 0.0747753)
(-0.154175 -4.11577e-22 0.0867101)
(-0.197369 0 0.110982)
(-0.206415 0 0.115394)
(-0.243885 -2.23366e-18 0.136015)
(-0.146216 -2.2491e-18 0.0784377)
(0.0290926 -2.16852e-18 -0.0204442)
(0.0329234 -2.11014e-18 -0.0250814)
(0.754928 1.08944e-21 -0.427785)
(0.926555 2.16473e-21 -0.524939)
(0.959218 1.46372e-18 -0.54355)
(1.55042 0 -0.878455)
(0.84141 0 -0.475443)
(0.335649 0 -0.199152)
(0.0984763 3.24565e-18 -0.0580998)
(-0.0516045 -1.60167e-18 0.0278957)
(-0.062726 1.49519e-18 0.0365504)
(-0.127469 1.4018e-18 0.0716622)
(0.0164558 0 -0.0123427)
(0.246174 0 -0.138862)
(0.25124 0 -0.142526)
(0.334597 2.07434e-18 -0.19038)
(0.407708 0 -0.23002)
(0.261357 -1.45414e-18 -0.138497)
(-0.233877 0 0.150546)
(-0.876259 0 0.514569)
(-1.39958 6.05863e-19 0.801232)
(-1.73416 0 0.986286)
(-1.94497 0 1.10564)
(-1.86343 0 1.0546)
(-1.55513 -3.65357e-18 0.87748)
(-1.13977 0 0.639081)
(-0.637943 4.17528e-18 0.35839)
(0.281452 0 -0.151733)
(0.820863 -2.09843e-21 -0.463694)
(30.7144 -1.50659e-20 -0.955105)
(21.3688 2.19282e-20 -3.36341)
(13.5035 1.33171e-20 -4.24774)
(8.53187 0 -3.67304)
(5.67015 -1.21107e-20 -2.76151)
(3.94474 2.25713e-20 -2.01669)
(2.82583 3.14525e-20 -1.47419)
(2.04648 -3.67238e-20 -1.07775)
(1.47539 0 -0.780268)
(1.04323 0 -0.551835)
(0.708949 0 -0.374539)
(0.447136 0 -0.234469)
(0.240275 0 -0.122703)
(0.0737741 0 -0.0327745)
(-0.0569924 -7.69369e-22 0.0402023)
(-0.160249 0 0.0968187)
(-0.24395 1.0293e-19 0.142193)
(-0.308859 0 0.178262)
(-0.359333 -2.00643e-19 0.206568)
(-0.397278 1.96207e-19 0.22781)
(-0.425226 0 0.242943)
(-0.444616 1.88191e-19 0.25319)
(-0.45648 -1.84293e-19 0.260155)
(-0.462219 1.79564e-19 0.264174)
(-0.46331 -1.73972e-19 0.264536)
(-0.461467 0 0.261485)
(-0.455593 1.63366e-19 0.25797)
(-0.446034 0 0.253508)
(-0.434637 0 0.247334)
(-0.422121 0 0.239717)
(-0.408186 2.84627e-19 0.231603)
(-0.393121 0 0.223252)
(-0.377452 0 0.214538)
(-0.361461 0 0.205419)
(-0.345229 0 0.196154)
(-0.328905 0 0.186965)
(-0.312732 0 0.177915)
(-0.296906 4.34003e-19 0.168991)
(-0.281487 0 0.160234)
(-0.266505 7.98934e-19 0.151722)
(-0.25201 7.66379e-19 0.143551)
(-0.238111 3.6724e-19 0.135723)
(-0.224763 0 0.128153)
(-0.211926 0 0.120845)
(-0.199589 6.45127e-19 0.113834)
(-0.187747 -6.17496e-19 0.107123)
(-0.176512 5.90626e-19 0.100761)
(-0.16599 0 0.094804)
(-0.156327 -5.39856e-19 0.0893484)
(-0.147719 0 0.0845114)
(-0.140305 0 0.0803658)
(-0.134192 -4.70706e-19 0.0769672)
(-0.129384 0 0.0743026)
(-0.125731 0 0.0722747)
(-0.122947 8.18435e-19 0.0707198)
(-0.120503 0 0.0693167)
(-0.117618 0 0.0676014)
(-0.113189 2.80874e-23 0.0649135)
(-0.10579 6.76485e-19 0.0604311)
(-0.0937674 -2.61324e-23 0.0532221)
(-0.0755113 0 0.042395)
(-0.0496928 -1.16828e-18 0.0272678)
(-0.0158507 -1.1111e-18 0.00759316)
(0.0253329 0 -0.0162972)
(0.0724426 -2.00519e-18 -0.0435665)
(0.123796 -7.66666e-24 -0.0732171)
(0.177375 0 -0.104099)
(0.23144 8.55119e-19 -0.135198)
(0.28304 0 -0.164768)
(0.327894 0 -0.19027)
(0.359045 0 -0.207649)
(0.368371 0 -0.212279)
(0.351109 2.61049e-18 -0.201423)
(0.30999 -1.23716e-18 -0.177263)
(0.253252 0 -0.144429)
(0.19981 0 -0.113847)
(0.162076 1.04753e-18 -0.092581)
(0.126103 3.47162e-22 -0.0714479)
(0.0693708 4.01168e-22 -0.0380214)
(-0.00170188 0 0.00349766)
(-0.0811548 0 0.0494907)
(-0.159699 0 0.0943731)
(-0.203909 1.21126e-22 0.1191)
(-0.236021 -1.30876e-18 0.137575)
(-0.296312 1.24675e-18 0.173126)
(-0.40924 -1.19395e-18 0.23865)
(-0.472357 -6.24145e-22 0.274885)
(-0.599911 -1.11636e-18 0.348962)
(-0.618998 0 0.358808)
(-0.722561 2.14694e-18 0.416224)
(-0.403234 0 0.220291)
(0.154426 2.07922e-18 -0.0959156)
(0.164238 0 -0.122814)
(2.34724 -3.88947e-18 -1.38773)
(2.90254 -1.54222e-18 -1.67993)
(2.98754 0 -1.74758)
(4.85599 0 -2.80413)
(2.78963 -1.52415e-18 -1.55935)
(1.25735 1.67346e-18 -0.703447)
(0.373281 -3.08529e-18 -0.201775)
(-0.132859 1.52116e-18 0.0817273)
(-0.213306 -1.41876e-18 0.125636)
(-0.375581 0 0.215303)
(0.0835358 1.3246e-18 -0.0612201)
(0.755185 0 -0.443577)
(0.785856 0 -0.456089)
(1.05531 -1.96249e-18 -0.614667)
(1.20821 0 -0.697125)
(0.576997 -5.35999e-21 -0.316611)
(-1.11255 9.08503e-19 0.673267)
(-3.08413 0 1.81373)
(-4.54365 0 2.64767)
(-5.41684 0 3.14546)
(-5.90759 1.05237e-18 3.4227)
(-5.56003 -2.94471e-18 3.20699)
(-4.59521 3.4347e-18 2.64151)
(-3.33477 0 1.9047)
(-1.98076 -3.92165e-18 1.10428)
(0.650112 0 -0.419266)
(2.46968 5.9194e-18 -1.4418)
(34.3227 3.21656e-20 -0.813831)
(29.736 -8.40432e-21 -2.93623)
(23.168 -2.39168e-21 -4.64235)
(16.9827 0 -5.00451)
(12.2153 -1.43759e-20 -4.46971)
(8.86703 5.9032e-22 -3.65042)
(6.54363 0 -2.87124)
(4.88373 3.48564e-20 -2.22156)
(3.65611 0 -1.69858)
(2.72251 4.21068e-20 -1.27924)
(1.99768 0 -0.941428)
(1.42584 0 -0.668172)
(0.96992 0 -0.446186)
(0.602055 0 -0.265675)
(0.308556 -9.77994e-20 -0.114063)
(0.0704726 0 0.00511064)
(-0.12207 0 0.103291)
(-0.276155 0 0.18203)
(-0.39938 9.49981e-20 0.245302)
(-0.495926 -5.55008e-22 0.295294)
(-0.570566 0 0.334011)
(-0.626735 -2.45013e-22 0.36309)
(-0.667353 0 0.384057)
(-0.69498 -1.69177e-19 0.398487)
(-0.711817 0 0.406891)
(-0.720862 0 0.408545)
(-0.721526 -1.54958e-19 0.407694)
(-0.715451 0 0.403817)
(-0.704566 0 0.397002)
(-0.689945 -2.7908e-19 0.387796)
(-0.671857 0 0.377209)
(-0.651204 0 0.365448)
(-0.628749 0 0.352754)
(-0.604946 0 0.339335)
(-0.580144 2.31608e-19 0.32547)
(-0.554786 0 0.311352)
(-0.529303 0 0.297166)
(-0.504003 -4.10809e-19 0.283075)
(-0.479057 0 0.269203)
(-0.454606 -7.56476e-19 0.255636)
(-0.43082 -6.88628e-23 0.242446)
(-0.407877 -3.47684e-19 0.229689)
(-0.385702 0 0.217316)
(-0.364263 0 0.205351)
(-0.343594 -3.05219e-19 0.193811)
(-0.323701 0 0.182707)
(-0.304766 -5.58707e-19 0.172153)
(-0.286976 0 0.162268)
(-0.270592 3.47076e-23 0.15322)
(-0.255958 0 0.145197)
(-0.243318 0 0.138323)
(-0.232863 0 0.13269)
(-0.224602 -4.24558e-19 0.12828)
(-0.218288 0 0.124928)
(-0.213448 0 0.122318)
(-0.209186 0 0.119877)
(-0.204172 0 0.116792)
(-0.196512 1.33988e-18 0.111949)
(-0.183787 0 0.103951)
(-0.1632 -2.15244e-23 0.0912085)
(-0.132015 0 0.0722436)
(-0.0879671 5.50873e-19 0.045938)
(-0.0302575 1.0476e-18 0.0117823)
(0.0402457 0 -0.0294968)
(0.121238 1.88972e-18 -0.0766184)
(0.209985 8.96298e-19 -0.127938)
(0.303064 0 -0.181532)
(0.397398 -8.05312e-19 -0.235583)
(0.487767 0 -0.286923)
(0.566739 0 -0.331032)
(0.62244 0 -0.36089)
(0.641058 0 -0.368803)
(0.61396 3.51897e-23 -0.350194)
(0.544685 1.16344e-18 -0.308317)
(0.445614 0 -0.250639)
(0.346874 0 -0.194324)
(0.269696 1.89426e-22 -0.150418)
(0.19535 -1.8451e-18 -0.105883)
(0.0905042 -8.59885e-19 -0.0430433)
(-0.0324889 0 0.0289995)
(-0.1648 0 0.105142)
(-0.291398 0 0.17571)
(-0.356696 -2.60502e-18 0.209935)
(-0.397138 1.16474e-22 0.232793)
(-0.486502 -1.16955e-18 0.286404)
(-0.665759 0 0.389532)
(-0.766165 -1.08408e-18 0.446164)
(-0.968087 1.04659e-18 0.561748)
(-0.989453 0 0.570547)
(-1.14495 0 0.648611)
(-0.606764 2.01763e-18 0.303074)
(0.3128 0 -0.208082)
(0.341524 1.88881e-18 -0.290125)
(3.7678 -1.4624e-21 -2.2749)
(4.77997 1.44941e-18 -2.75898)
(4.82971 -1.31342e-18 -2.84946)
(7.9932 0 -4.59168)
(4.85172 1.42634e-18 -2.63825)
(2.36214 -1.56585e-18 -1.28733)
(0.727701 2.88643e-18 -0.369688)
(-0.175134 0 0.118152)
(-0.369526 -1.32716e-18 0.221849)
(-0.58508 0 0.325515)
(0.170918 -1.23859e-18 -0.142022)
(1.23103 1.13331e-18 -0.729515)
(1.29859 0 -0.75313)
(1.74321 1.83443e-18 -1.01659)
(1.89749 0 -1.07121)
(0.641502 2.57951e-18 -0.279212)
(-2.30128 -8.48963e-19 1.46276)
(-5.4778 0 3.27683)
(-7.64986 0 4.47587)
(-8.87303 0 5.13725)
(-9.46503 -5.31745e-21 5.44429)
(-8.77308 2.75061e-18 4.98899)
(-7.19257 -3.18949e-18 4.05575)
(-5.19117 0 2.8899)
(-3.21194 -3.65757e-18 1.72074)
(0.803499 0 -0.582957)
(3.93449 2.259e-21 -2.30254)
(34.9467 -1.69362e-20 -1.00923)
(33.6383 -4.96989e-21 -2.26619)
(29.8043 6.61299e-21 -4.04913)
(24.6684 -1.43541e-20 -5.18457)
(19.5218 -2.05017e-20 -5.38278)
(15.119 -4.30027e-20 -4.9357)
(11.6441 0 -4.22121)
(8.97753 0 -3.47314)
(6.92892 0 -2.79117)
(5.33627 -3.9885e-20 -2.20288)
(4.08132 0 -1.70656)
(3.08037 0 -1.29143)
(2.27469 0 -0.945214)
(1.62028 0 -0.657357)
(1.08913 0 -0.415269)
(0.655711 -9.16797e-20 -0.217116)
(0.301572 9.13915e-20 -0.0516157)
(0.0128444 0 0.0833464)
(-0.221435 0 0.19403)
(-0.409778 -1.75849e-19 0.283392)
(-0.55969 1.72019e-19 0.355067)
(-0.677102 -1.68894e-19 0.411389)
(-0.767044 1.64341e-19 0.454692)
(-0.834251 1.60199e-19 0.486809)
(-0.882521 -1.55188e-19 0.509542)
(-0.914968 1.51088e-19 0.523357)
(-0.932799 0 0.530987)
(-0.939643 -1.41533e-19 0.532016)
(-0.938005 0 0.527195)
(-0.928089 2.64137e-19 0.519843)
(-0.911846 0 0.509346)
(-0.890567 0 0.496604)
(-0.865489 0 0.482023)
(-0.837408 -2.27581e-19 0.466029)
(-0.807035 -2.19092e-19 0.448993)
(-0.775122 0 0.431218)
(-0.742348 0 0.413036)
(-0.709246 3.88469e-19 0.39473)
(-0.676161 0 0.376511)
(-0.643388 7.86111e-23 0.358506)
(-0.611217 -3.42876e-19 0.340847)
(-0.579938 0 0.323637)
(-0.549507 0 0.306838)
(-0.519924 0 0.290508)
(-0.491277 0 0.27468)
(-0.463598 -5.51645e-19 0.259398)
(-0.437152 0 0.24484)
(-0.412221 5.04268e-19 0.231189)
(-0.389188 4.81929e-19 0.218691)
(-0.368549 0 0.207614)
(-0.350664 0 0.198133)
(-0.335813 0 0.190375)
(-0.324028 4.00552e-19 0.1843)
(-0.314971 -3.82134e-19 0.179657)
(-0.307974 -7.28966e-19 0.175981)
(-0.301769 0 0.172433)
(-0.294471 -6.62598e-19 0.167835)
(-0.283411 -1.2629e-18 0.160573)
(-0.265185 0 0.148661)
(-0.235858 -1.14579e-18 0.129876)
(-0.191588 0 0.102166)
(-0.129175 -5.18801e-19 0.0640208)
(-0.0473745 -9.86433e-19 0.01483)
(0.0528043 0 -0.0444215)
(0.168278 -8.89362e-19 -0.112034)
(0.295364 -8.4349e-19 -0.185724)
(0.429258 0 -0.262798)
(0.565508 0 -0.340589)
(0.696545 0 -0.414413)
(0.811774 6.79609e-19 -0.477677)
(0.894443 6.43482e-19 -0.520361)
(0.92509 0 -0.53173)
(0.890683 -1.15376e-18 -0.505267)
(0.794362 -1.0931e-18 -0.445119)
(0.651273 0 -0.361016)
(0.500765 0 -0.275673)
(0.373034 -9.24457e-19 -0.20376)
(0.249203 -3.28152e-22 -0.129973)
(0.08972 0 -0.0342246)
(-0.0860539 0 0.068582)
(-0.267935 0 0.173177)
(-0.435883 0 0.265126)
(-0.513736 -9.00247e-23 0.303386)
(-0.551523 1.15127e-18 0.32537)
(-0.659742 0 0.393676)
(-0.895347 0 0.530204)
(-1.0281 0 0.605223)
(-1.2932 9.79154e-19 0.756581)
(-1.3096 0 0.759505)
(-1.50152 1.87836e-18 0.84569)
(-0.750845 -1.88942e-18 0.344691)
(0.484901 1.82019e-18 -0.332232)
(0.588702 -1.76822e-18 -0.520379)
(4.89489 3.4151e-18 -3.04153)
(6.51025 -1.35645e-18 -3.77774)
(6.37686 1.22901e-18 -3.82315)
(10.8604 0 -6.25452)
(7.01134 0 -3.73494)
(3.66882 -1.46227e-18 -1.94335)
(1.19042 -1.34972e-18 -0.571705)
(-0.166115 -1.32943e-18 0.139192)
(-0.525506 -8.7246e-23 0.321159)
(-0.744275 0 0.406389)
(0.277583 0 -0.244708)
(1.6675 -1.05931e-18 -1.00639)
(1.78338 0 -1.04285)
(2.37912 -1.71644e-18 -1.39637)
(2.43925 0 -1.36035)
(0.410883 4.90118e-21 -0.0620369)
(-3.80798 0 2.45192)
(-7.9948 -5.54622e-19 4.83076)
(-10.6047 4.92518e-19 6.24417)
(-11.9745 6.73067e-19 6.96345)
(-12.4991 -6.11652e-21 7.20615)
(-11.3868 0 6.46562)
(-9.25672 2.9786e-18 5.19309)
(-6.6535 3.35513e-18 3.6683)
(-4.26721 3.41533e-18 2.21872)
(0.763832 0 -0.70233)
(5.17347 2.55565e-21 -3.07821)
(34.5975 0 -1.49654)
(34.7172 -3.61873e-21 -2.04925)
(33.214 0 -3.3723)
(30.0799 1.35618e-20 -4.69362)
(25.9582 3.22207e-20 -5.46721)
(21.6114 2.09475e-20 -5.59224)
(17.5881 0 -5.2371)
(14.1342 0 -4.62729)
(11.2786 -3.43054e-20 -3.93513)
(8.95252 -3.70981e-20 -3.25847)
(7.06323 3.93026e-20 -2.64096)
(5.52466 8.19403e-20 -2.09645)
(4.26668 8.4236e-20 -1.62478)
(3.23299 0 -1.22099)
(2.38279 0 -0.875056)
(1.68174 1.72989e-19 -0.584104)
(1.10269 -3.62012e-22 -0.33822)
(0.625415 0 -0.132819)
(0.232967 -8.4202e-20 0.0385319)
(-0.0878229 -1.65471e-19 0.179787)
(-0.348152 -1.62631e-19 0.295447)
(-0.557491 0 0.388732)
(-0.723546 -1.55356e-19 0.462745)
(-0.853268 1.50766e-19 0.520094)
(-0.952053 1.46685e-19 0.563324)
(-1.02388 -1.26483e-22 0.595696)
(-1.07372 0 0.617667)
(-1.10549 3.29226e-22 0.630316)
(-1.12236 0 0.63351)
(-1.12653 2.49283e-19 0.630134)
(-1.1196 0 0.623224)
(-1.10406 0 0.612266)
(-1.08171 0 0.598271)
(-1.05385 2.14951e-19 0.581844)
(-1.0217 0 0.563491)
(-0.986398 0 0.543674)
(-0.948959 0 0.522905)
(-0.910222 0 0.501601)
(-0.870788 -3.5161e-19 0.480072)
(-0.831161 6.74737e-19 0.458517)
(-0.791794 0 0.43715)
(-0.753133 3.09882e-19 0.416135)
(-0.715217 0 0.395454)
(-0.678108 0 0.375215)
(-0.641972 0 0.355487)
(-0.60689 6.83897e-23 0.336358)
(-0.573222 0 0.318085)
(-0.541362 -4.75473e-19 0.300922)
(-0.511818 0 0.285201)
(-0.485248 0 0.271275)
(-0.46214 -4.14343e-19 0.259365)
(-0.442869 0 0.249632)
(-0.427498 0 0.242003)
(-0.415605 1.45792e-23 0.236136)
(-0.406326 6.86599e-19 0.231395)
(-0.398026 0 0.226657)
(-0.388265 2.3705e-23 0.220357)
(-0.373602 1.18886e-18 0.210376)
(-0.349671 0 0.194135)
(-0.311425 5.3913e-19 0.16879)
(-0.253957 0 0.131759)
(-0.173152 4.88063e-19 0.0811819)
(-0.0672919 9.27821e-19 0.016418)
(0.0625774 0 -0.0612679)
(0.212691 8.36217e-19 -0.149801)
(0.378519 -6.56548e-24 -0.246275)
(0.553923 0 -0.347257)
(0.733102 0 -0.449212)
(0.90619 0 -0.545899)
(1.05954 -1.27683e-18 -0.628621)
(1.17171 1.55419e-23 -0.684372)
(1.21764 0 -0.699432)
(1.1792 1.08327e-18 -0.665393)
(1.05796 2.05216e-18 -0.586653)
(0.870071 0 -0.474731)
(0.662039 0 -0.356857)
(0.473311 0 -0.250714)
(0.289458 -3.22753e-22 -0.141217)
(0.0698685 0 -0.0092381)
(-0.158394 0 0.123596)
(-0.385749 0 0.253527)
(-0.58782 0 0.360976)
(-0.669979 1.14488e-18 0.396567)
(-0.695248 1.07849e-18 0.412044)
(-0.813243 0 0.491249)
(-1.0963 0 0.655836)
(-1.2578 0 0.746495)
(-1.57668 -7.48775e-22 0.926288)
(-1.58289 0 0.918418)
(-1.79842 -1.75842e-18 0.998245)
(-0.846217 0 0.339111)
(0.633941 -1.70348e-18 -0.457329)
(0.930036 0 -0.830492)
(5.6155 -1.59836e-18 -3.61275)
(8.07903 0 -4.70134)
(7.56564 0 -4.61374)
(13.387 0 -7.71669)
(9.23696 0 -4.82349)
(5.17809 1.36727e-18 -2.67355)
(1.79162 0 -0.818142)
(-0.0958057 1.2428e-18 0.14002)
(-0.672972 1.16001e-18 0.41977)
(-0.853582 0 0.44892)
(0.395601 0 -0.369335)
(2.06865 0 -1.26871)
(2.24468 0 -1.31933)
(2.95494 -1.10402e-21 -1.73899)
(2.82539 0 -1.52756)
(-0.0980163 -2.26885e-18 0.379715)
(-5.5663 0 3.65274)
(-10.5257 1.03736e-18 6.42695)
(-13.3099 -4.6e-19 7.8714)
(-14.6691 -6.2859e-19 8.52852)
(-15.0086 -8.47114e-19 8.61366)
(-13.4319 0 7.54321)
(-10.8352 0 5.98354)
(-7.77054 -6.2587e-18 4.1944)
(-5.11998 3.184e-18 2.56142)
(0.633258 2.97009e-18 -0.803961)
(6.19586 -2.41427e-18 -3.73603)
(34.1466 0 -1.95761)
(34.5554 3.2506e-20 -2.17466)
(34.3522 0 -2.96157)
(32.987 0 -4.05629)
(30.4403 0 -5.0326)
(27.082 0 -5.6058)
(23.3887 0 -5.71121)
(19.7507 2.96927e-20 -5.43671)
(16.41 3.237e-20 -4.92341)
(13.474 6.99e-20 -4.29809)
(10.9587 -7.39853e-20 -3.64852)
(8.83233 -7.73401e-20 -3.02536)
(7.0461 -7.95117e-20 -2.45318)
(5.54896 0 -1.94202)
(4.29644 0 -1.49094)
(3.24931 -1.62585e-19 -1.10028)
(2.37412 -1.62143e-19 -0.76344)
(1.64415 0 -0.476116)
(1.03676 7.94838e-20 -0.232393)
(0.533832 1.56195e-19 -0.0272521)
(0.119278 0 0.143599)
(-0.219818 1.495e-19 0.28457)
(-0.494592 0 0.399286)
(-0.714851 -1.66028e-22 0.491337)
(-0.888528 -1.38348e-19 0.563739)
(-1.02234 -2.19226e-22 0.619561)
(-1.12239 0 0.660748)
(-1.19408 1.2589e-19 0.690212)
(-1.24241 -2.4306e-19 0.708806)
(-1.27086 -4.70303e-19 0.716565)
(-1.28344 -2.27083e-19 0.714986)
(-1.2818 0 0.70918)
(-1.269 -2.10456e-19 0.698651)
(-1.24718 0 0.684228)
(-1.21814 0 0.666695)
(-1.18354 0 0.646706)
(-1.14485 0 0.624983)
(-1.10331 0 0.602098)
(-1.05988 9.19898e-23 0.578478)
(-1.01534 -3.17956e-19 0.554418)
(-0.970366 0 0.530242)
(-0.92562 -5.83971e-19 0.506192)
(-0.881277 0 0.482281)
(-0.837499 0 0.458687)
(-0.79457 0 0.435531)
(-0.752645 4.90011e-19 0.412964)
(-0.712193 0 0.391335)
(-0.673736 0 0.370979)
(-0.63792 0 0.352323)
(-0.605572 0 0.335802)
(-0.577317 7.80029e-19 0.32169)
(-0.553638 0 0.310169)
(-0.534634 0 0.301128)
(-0.519808 3.38702e-19 0.294116)
(-0.508108 0 0.288309)
(-0.497533 0 0.282278)
(-0.4851 1.17346e-18 0.274052)
(-0.466615 -5.58972e-19 0.260997)
(-0.436776 0 0.239953)
(-0.389479 0 0.207488)
(-0.3188 0 0.160552)
(-0.219751 -4.58647e-19 0.0970037)
(-0.0901495 0 0.0162344)
(0.0690078 0 -0.0801864)
(0.253383 -1.57099e-18 -0.189806)
(0.457692 1.48946e-18 -0.309144)
(0.674555 0 -0.434064)
(0.896918 0 -0.560186)
(1.1128 0 -0.679741)
(1.30576 5.99205e-19 -0.781969)
(1.44999 -5.67157e-19 -0.850977)
(1.51495 -1.07353e-18 -0.870142)
(1.47674 -1.01623e-18 -0.828971)
(1.33392 -9.62438e-19 -0.731665)
(1.10169 9.11696e-19 -0.590804)
(0.831337 0 -0.437096)
(0.571481 0 -0.291115)
(0.317247 7.62151e-19 -0.14034)
(0.0327839 0 0.0298223)
(-0.246292 0 0.191254)
(-0.513957 0 0.342672)
(-0.74206 0 0.459407)
(-0.820277 0 0.485841)
(-0.824161 -2.01987e-18 0.490146)
(-0.943476 0 0.577703)
(-1.26511 -9.18237e-19 0.766378)
(-1.45219 0 0.871095)
(-1.81579 -7.79106e-22 1.07373)
(-1.80789 1.68776e-18 1.05192)
(-2.03575 0 1.11386)
(-0.899028 0 0.295888)
(0.721617 0 -0.560994)
(1.39268 0 -1.2263)
(5.82519 1.49748e-18 -3.93134)
(9.45792 0 -5.53536)
(8.36132 0 -5.20988)
(15.4589 0 -8.96274)
(11.462 0 -5.87849)
(6.88168 0 -3.4671)
(2.5606 0 -1.11759)
(0.0503575 0 0.119404)
(-0.801777 0 0.512802)
(-0.911357 -1.01112e-18 0.456729)
(0.518201 0 -0.510257)
(2.43324 0 -1.52084)
(2.68188 0 -1.58779)
(3.45736 1.49912e-18 -2.03916)
(3.02933 0 -1.56896)
(-0.889735 1.06163e-18 1.02651)
(-7.52127 0 5.00589)
(-12.9545 9.02373e-22 7.98317)
(-15.6624 0 9.3033)
(-16.8826 5.7849e-19 9.82961)
(-16.9604 0 9.71955)
(-14.9053 0 8.30572)
(-11.9461 0 6.51368)
(-8.56338 2.91846e-18 4.53749)
(-5.74645 -5.94237e-18 2.75392)
(0.540052 -5.54711e-18 -0.978616)
(6.98954 -2.25803e-18 -4.29832)
(33.8176 0 -2.25138)
(34.1139 -3.49234e-20 -2.38594)
(34.3467 0 -2.82176)
(34.0241 0 -3.58007)
(32.8364 -2.67944e-20 -4.46044)
(30.778 -2.63321e-20 -5.20978)
(28.0464 2.72264e-20 -5.66006)
(24.9181 -8.5833e-20 -5.76263)
(21.665 0 -5.55912)
(18.5036 2.64855e-23 -5.13534)
(15.5739 3.47639e-20 -4.58235)
(12.9456 0 -3.97452)
(10.6379 0 -3.3632)
(8.63899 0 -2.78061)
(6.92319 0 -2.2423)
(5.45946 3.11399e-22 -1.75792)
(4.21595 2.91949e-22 -1.3283)
(3.16383 7.54107e-20 -0.952569)
(2.277 7.44767e-20 -0.62718)
(1.53299 0 -0.348114)
(0.911789 -1.43708e-19 -0.111267)
(0.396489 -1.40907e-19 0.0881657)
(-0.0279667 0 0.253755)
(-0.374462 -1.43497e-22 0.389872)
(-0.654047 1.55908e-22 0.500019)
(-0.876202 -1.26673e-19 0.587862)
(-1.04954 0 0.655982)
(-1.18162 0 0.70695)
(-1.27817 2.29014e-19 0.744259)
(-1.34535 6.8591e-23 0.769857)
(-1.38832 4.27666e-19 0.782414)
(-1.41132 0 0.783631)
(-1.41712 3.96331e-19 0.779467)
(-1.40874 0 0.769998)
(-1.38907 0 0.755769)
(-1.36041 -1.76416e-19 0.737793)
(-1.32485 0 0.717032)
(-1.28416 -3.25062e-19 0.694237)
(-1.23977 8.78116e-23 0.669972)
(-1.19283 2.99173e-19 0.644652)
(-1.14432 0 0.618742)
(-1.09518 7.21403e-23 0.592581)
(-1.04581 0 0.566229)
(-0.996507 0 0.539957)
(-0.947723 0 0.513954)
(-0.899717 0 0.488454)
(-0.853092 0 0.463913)
(-0.808516 4.21027e-19 0.440756)
(-0.766784 0 0.419517)
(-0.728902 0 0.400714)
(-0.695646 -3.66713e-19 0.384669)
(-0.667612 0 0.371583)
(-0.644953 -3.33795e-19 0.361291)
(-0.627102 -3.18332e-19 0.353219)
(-0.612825 6.06997e-19 0.346336)
(-0.599769 0 0.338889)
(-0.584422 -5.51269e-19 0.328485)
(-0.561872 -5.25082e-19 0.311973)
(-0.525934 0 0.285625)
(-0.469516 0 0.245471)
(-0.385752 0 0.188062)
(-0.268843 4.30642e-19 0.111076)
(-0.116165 0 0.014015)
(0.07139 0 -0.101219)
(0.289014 7.37221e-19 -0.231786)
(0.530779 -1.39774e-18 -0.37368)
(0.788194 0 -0.522117)
(1.05313 0 -0.671938)
(1.31181 0 -0.813958)
(1.5454 0 -0.935471)
(1.72425 -5.31867e-19 -1.01786)
(1.81248 1.00655e-18 -1.04165)
(1.77974 0 -0.994112)
(1.62008 0 -0.878664)
(1.34557 -8.5444e-19 -0.708129)
(1.00956 0 -0.515644)
(0.669572 -7.62635e-19 -0.324487)
(0.3355 7.1464e-19 -0.127376)
(-0.0174643 0 0.0819808)
(-0.34476 0 0.269271)
(-0.6468 0 0.437564)
(-0.892636 0 0.556819)
(-0.9594 0 0.567644)
(-0.934709 9.45284e-19 0.557072)
(-1.04821 0 0.651255)
(-1.40055 1.71809e-18 0.860365)
(-1.61124 0 0.977748)
(-2.01245 -7.8072e-22 1.19757)
(-1.98916 -1.72085e-21 1.15884)
(-2.2218 0 1.19202)
(-0.921411 1.54017e-18 0.222208)
(0.705473 0 -0.625056)
(1.98152 0 -1.69971)
(5.47074 -2.8013e-18 -3.96233)
(10.6434 0 -6.27388)
(8.79483 0 -5.62173)
(17 0 -9.93761)
(13.5962 0 -6.86115)
(8.75306 0 -4.30888)
(3.52215 0 -1.47565)
(0.289004 0 0.0741032)
(-0.900067 0 0.594991)
(-0.923536 9.44635e-19 0.429894)
(0.63735 0 -0.663059)
(2.76356 0 -1.76249)
(3.09883 0 -1.84667)
(3.87751 -1.40233e-18 -2.28477)
(3.04128 -1.22149e-18 -1.45943)
(-1.93618 -9.99488e-19 1.88433)
(-9.58346 6.63488e-19 6.47089)
(-15.1566 3.63503e-22 9.42275)
(-17.6 -3.94436e-19 10.4915)
(-18.6164 -1.0756e-18 10.8339)
(-18.4312 0 10.5048)
(-15.915 2.03927e-18 8.75108)
(-12.6932 2.389e-18 6.79337)
(-9.10701 0 4.70658)
(-6.15302 2.77236e-18 2.79334)
(0.649039 2.58982e-18 -1.30532)
(7.57124 2.10768e-18 -4.75225)
(33.575 0 -2.41186)
(33.7313 1.73095e-20 -2.55523)
(33.9784 0 -2.83278)
(34.0609 0 -3.32658)
(33.6942 2.52298e-20 -3.99331)
(32.7071 2.47893e-20 -4.69661)
(31.0668 -2.56265e-20 -5.28649)
(28.8545 8.29868e-20 -5.65612)
(26.2232 0 -5.76268)
(23.3551 3.1387e-20 -5.62037)
(20.4248 -6.51393e-20 -5.27873)
(17.5747 0 -4.80026)
(14.9044 6.93646e-20 -4.24413)
(12.4707 0 -3.65914)
(10.2971 7.11714e-20 -3.07913)
(8.38445 7.16781e-20 -2.5281)
(6.71941 7.15133e-20 -2.01893)
(5.28221 -7.09867e-20 -1.55859)
(4.05028 -1.40009e-19 -1.14908)
(3.00111 0 -0.789669)
(2.11302 1.35278e-19 -0.478152)
(1.36615 0 -0.210897)
(0.742424 0 0.0156055)
(0.22556 -1.25945e-19 0.205562)
(-0.198747 2.44933e-19 0.362792)
(-0.543134 0 0.491218)
(-0.818951 0 0.594186)
(-1.03617 0 0.675003)
(-1.20342 -2.15346e-19 0.736664)
(-1.3282 2.08392e-19 0.781847)
(-1.41711 -2.27916e-22 0.814737)
(-1.47749 1.93475e-19 0.831892)
(-1.51267 -3.72617e-19 0.837533)
(-1.52758 1.79301e-19 0.835544)
(-1.52527 -1.72549e-19 0.827625)
(-1.50931 8.44294e-23 0.814162)
(-1.48249 0 0.796586)
(-1.44734 3.05724e-19 0.775821)
(-1.40589 2.93305e-19 0.752602)
(-1.35979 -2.8133e-19 0.727482)
(-1.31041 0 0.7011)
(-1.25909 2.58287e-19 0.673922)
(-1.2065 2.47217e-19 0.646068)
(-1.15318 2.36629e-19 0.617926)
(-1.09977 2.26421e-19 0.589775)
(-1.0467 0 0.56195)
(-0.994716 0 0.535032)
(-0.94467 -4.52718e-23 0.509549)
(-0.897517 0 0.486147)
(-0.854455 0 0.465435)
(-0.816422 -3.44432e-19 0.447776)
(-0.78414 3.28643e-19 0.433383)
(-0.757827 3.13493e-19 0.422025)
(-0.73686 1.48409e-23 0.412987)
(-0.719835 -2.68214e-23 0.405012)
(-0.704069 0 0.396007)
(-0.685547 0 0.383147)
(-0.658687 9.85707e-19 0.362765)
(-0.616496 0 0.330599)
(-0.550983 0 0.282201)
(-0.454445 -4.24894e-19 0.213813)
(-0.320352 0 0.123035)
(-0.14568 0 0.0095814)
(0.0688272 7.28866e-19 -0.124273)
(0.31798 -6.91399e-19 -0.275298)
(0.595334 1.3107e-18 -0.439004)
(0.891463 0 -0.610048)
(1.19741 -5.8786e-19 -0.782603)
(1.49807 0 -0.946259)
(1.77275 0 -1.08655)
(1.98862 9.96869e-19 -1.18236)
(2.10477 0 -1.21144)
(2.08378 0 -1.15862)
(1.91359 0 -1.0259)
(1.6008 0 -0.825461)
(1.19778 0 -0.591774)
(0.77025 7.14156e-19 -0.350769)
(0.347999 3.45553e-22 -0.103285)
(-0.0760269 -6.23907e-19 0.14492)
(-0.448034 5.79607e-19 0.354398)
(-0.778076 0 0.53439)
(-1.03354 0 0.649311)
(-1.08249 0 0.638614)
(-1.02413 0 0.610758)
(-1.1261 0 0.711013)
(-1.50208 -5.35693e-22 0.937944)
(-1.73536 0 1.06743)
(-2.16852 -7.48932e-19 1.30015)
(-2.13055 -1.75984e-21 1.24333)
(-2.36419 0 1.23977)
(-0.928201 -1.44004e-18 0.131011)
(0.551092 0 -0.634899)
(2.65978 1.34655e-18 -2.21671)
(4.58095 -7.65874e-22 -3.71822)
(11.6457 0 -6.93878)
(8.95191 0 -5.89258)
(17.9563 0 -10.6409)
(15.5358 0 -7.73139)
(10.7472 1.10868e-18 -5.17612)
(4.69281 0 -1.89333)
(0.640263 0 0.00121917)
(-0.9541 9.46404e-19 0.660952)
(-0.897309 0 0.374449)
(0.745594 -8.79485e-19 -0.823103)
(3.06071 8.09997e-19 -1.99637)
(3.49674 0 -2.09775)
(4.20378 2.62025e-18 -2.46646)
(2.84821 -2.54523e-21 -1.19041)
(-3.20726 1.87004e-18 2.9314)
(-11.661 -6.19502e-19 7.98187)
(-17.0211 -4.2396e-19 10.6711)
(-19.1035 3.68257e-19 11.4246)
(-19.8865 4.99913e-19 11.5718)
(-19.4967 6.67091e-19 11.0541)
(-16.5589 -1.90371e-18 8.98312)
(-13.1597 -2.23011e-18 6.90956)
(-9.46052 -2.52283e-18 4.7604)
(-6.36861 -2.58213e-18 2.69629)
(1.06521 0 -1.84547)
(7.95201 0 -5.10949)
(33.3602 0 -2.50452)
(33.4361 1.877e-20 -2.66131)
(33.6008 0 -2.88124)
(33.7532 0 -3.21972)
(33.7322 0 -3.69251)
(33.3803 0 -4.25589)
(32.5819 2.83558e-20 -4.8231)
(31.2855 -2.68316e-20 -5.29904)
(29.507 2.8884e-20 -5.61079)
(27.3186 -5.86135e-20 -5.7219)
(24.8306 6.12337e-20 -5.63115)
(22.1708 0 -5.36358)
(19.4645 -6.52059e-20 -4.95878)
(16.8196 0 -4.46173)
(14.3176 -6.69091e-20 -3.91366)
(12.0112 -6.6805e-20 -3.35007)
(9.9277 0 -2.79711)
(8.07518 0 -2.27311)
(6.44857 6.57228e-20 -1.78926)
(5.03518 0 -1.35149)
(3.81803 0 -0.962088)
(2.77852 -1.24012e-19 -0.620474)
(1.89781 0 -0.324794)
(1.15756 0 -0.0719166)
(0.540835 -1.15042e-19 0.141734)
(0.0319383 0 0.319917)
(-0.383395 0 0.466388)
(-0.718065 0 0.584832)
(-0.983556 4.04795e-19 0.678639)
(-1.19002 0 0.750929)
(-1.34665 -1.99672e-22 0.804409)
(-1.46026 -1.94753e-22 0.844019)
(-1.53951 1.75044e-19 0.867507)
(-1.5892 -1.6851e-19 0.878085)
(-1.61504 3.24241e-19 0.878604)
(-1.62038 1.5586e-19 0.872804)
(-1.60958 0 0.86091)
(-1.58603 0 0.844409)
(-1.55254 2.75404e-19 0.824195)
(-1.51144 -2.64145e-19 0.800974)
(-1.46464 0 0.775595)
(-1.41397 0 0.74868)
(-1.36052 -5.11635e-23 0.720427)
(-1.30511 -2.22231e-19 0.69137)
(-1.24868 -2.12627e-19 0.661898)
(-1.19185 -4.06607e-19 0.632469)
(-1.13559 0 0.603808)
(-1.08093 -4.41621e-23 0.576559)
(-1.02902 0 0.551489)
(-0.981258 0 0.529301)
(-0.938768 3.23277e-19 0.510395)
(-0.902405 -3.08429e-19 0.49499)
(-0.872471 0 0.482771)
(-0.848306 2.80482e-19 0.472867)
(-0.828355 -2.69637e-23 0.463778)
(-0.809634 0 0.453056)
(-0.78767 0 0.437443)
(-0.756279 -9.24481e-19 0.412771)
(-0.707751 0 0.374285)
(-0.633317 0 0.317138)
(-0.524556 7.96774e-19 0.237365)
(-0.374307 0 0.132606)
(-0.179199 0 0.00288927)
(0.0601981 -1.36637e-18 -0.149082)
(0.338404 6.48001e-19 -0.319687)
(0.648597 -6.1415e-19 -0.504)
(0.980638 0 -0.69624)
(1.32504 5.50778e-19 -0.890067)
(1.66596 0 -1.07411)
(1.98151 -4.93396e-19 -1.23239)
(2.23655 -4.66841e-19 -1.3416)
(2.38555 0 -1.37673)
(2.3835 0 -1.32002)
(2.21077 7.91293e-19 -1.17138)
(1.86599 7.49349e-19 -0.94141)
(1.39718 0 -0.664793)
(0.876854 0 -0.370133)
(0.359626 -1.25346e-18 -0.0693933)
(-0.136909 5.83847e-19 0.215938)
(-0.549556 -1.085e-18 0.443028)
(-0.901261 0 0.629224)
(-1.15904 0 0.733175)
(-1.18551 0 0.695818)
(-1.09086 0 0.649841)
(-1.17716 0 0.756759)
(-1.57078 -5.49836e-22 0.999756)
(-1.82674 0 1.14137)
(-2.28832 0 1.38349)
(-2.23901 -1.77902e-21 1.30813)
(-2.47444 0 1.26247)
(-0.938094 -1.34195e-18 0.0381733)
(0.245009 0 -0.587997)
(3.34412 -1.25845e-18 -2.71743)