/*--------------------------------*- C++ -*----------------------------------*\
| =========                 |                                                 |
| \\      /  F ield         | OpenFOAM: The Open Source CFD Toolbox           |
|  \\    /   O peration     | Version:  2412                                  |
|   \\  /    A nd           | Website:  www.openfoam.com                      |
|    \\/     M anipulation  |                                                 |
\*---------------------------------------------------------------------------*/
FoamFile
{
    version     2.0;
    format      ascii;
    arch        "LSB;label=32;scalar=64";
    class       volVectorField;
    location    "0.835";
    object      U;
}
// * * * * * * * * * * * * * * * * * * * * * * * * * * * * * * * * * * * * * //

dimensions      [0 1 -1 0 0 0 0];

internalField   nonuniform List<vector> 
12600
(
(19.2353 0 -0.653019)
(7.77 -3.60439e-20 -1.60952)
(3.27832 -1.62961e-20 -1.65744)
(1.6597 0 -1.21824)
(1.04004 -2.20327e-22 -0.808639)
(0.709658 0 -0.545407)
(0.488439 -3.11261e-20 -0.377615)
(0.328844 0 -0.262565)
(0.21024 0 -0.178924)
(0.120546 0 -0.116144)
(0.0510137 0 -0.0691152)
(-0.00315293 -9.80359e-20 -0.0325635)
(-0.0452887 -1.00088e-19 -0.00374757)
(-0.0785245 0 0.0194984)
(-0.104538 2.0287e-19 0.036563)
(-0.123682 0 0.050788)
(-0.138737 2.85767e-22 0.0619194)
(-0.149577 0 0.0703523)
(-0.15749 9.7789e-20 0.0766542)
(-0.162685 0 0.0811554)
(-0.165676 0 0.0842243)
(-0.166736 0 0.0860706)
(-0.166156 3.60178e-19 0.0870112)
(-0.164354 -3.49835e-19 0.0871681)
(-0.161581 -1.61113e-22 0.0865676)
(-0.158116 1.6452e-19 0.0852698)
(-0.153948 0 0.0834766)
(-0.149086 0 0.0814433)
(-0.143858 0 0.0791123)
(-0.138403 -2.89375e-19 0.076501)
(-0.132814 -5.58545e-19 0.0736925)
(-0.127117 0 0.0707759)
(-0.121373 0 0.0678065)
(-0.11565 -2.5016e-19 0.0648043)
(-0.109996 -2.40754e-19 0.0617882)
(-0.10445 0 0.0587978)
(-0.0990457 0 0.0558685)
(-0.0938034 -4.27961e-19 0.0530145)
(-0.0887601 0 0.050252)
(-0.0839293 5.97572e-23 0.0475823)
(-0.0793298 -3.78724e-19 0.045025)
(-0.0749574 -3.6336e-19 0.0425878)
(-0.070773 0 0.0402511)
(-0.0667706 -3.33988e-19 0.0380108)
(-0.0629401 -3.20003e-19 0.0358618)
(-0.0592596 6.13046e-19 0.0337942)
(-0.0557541 -5.87046e-19 0.0318257)
(-0.0524739 0 0.0299846)
(-0.049487 5.37667e-19 0.0283111)
(-0.0468929 -5.14294e-19 0.0268614)
(-0.0447825 0 0.0256873)
(-0.0432327 -1.04823e-23 0.0248329)
(-0.0422936 4.49259e-19 0.0243034)
(-0.0419053 0 0.0240826)
(-0.041934 -8.20033e-19 0.0241013)
(-0.0421349 0 0.0242029)
(-0.0420655 0 0.0241295)
(-0.041079 2.028e-23 0.0235525)
(-0.038389 2.18304e-23 0.02194)
(-0.03309 6.50474e-19 0.0188392)
(-0.0244201 -6.20467e-19 0.0138338)
(-0.0121205 1.18281e-18 0.00681809)
(0.00336972 0 -0.00187822)
(0.0204517 1.07142e-18 -0.011563)
(0.0373966 1.01801e-18 -0.0212103)
(0.0526437 -1.93246e-18 -0.0299178)
(0.0660207 9.16324e-19 -0.0375613)
(0.0785191 0 -0.04467)
(0.091736 0 -0.0521357)
(0.106738 0 -0.0605689)
(0.123017 0 -0.0697074)
(0.139579 0 -0.079023)
(0.153769 -1.27997e-18 -0.0868865)
(0.163638 1.19288e-18 -0.0922727)
(0.165949 0 -0.0934358)
(0.159423 0 -0.0898295)
(0.14435 9.55026e-19 -0.0814611)
(0.122407 2.55952e-22 -0.0690763)
(0.0959212 1.66388e-18 -0.0541247)
(0.0710279 0 -0.0402684)
(0.0535317 0 -0.0306811)
(0.0421756 0 -0.024525)
(0.0370211 2.26803e-23 -0.021311)
(0.0340133 0 -0.0188353)
(0.000958877 0 0.00157453)
(-0.0893999 1.06998e-18 0.0546826)
(-0.252167 2.73864e-22 0.147899)
(-0.458185 0 0.261872)
(-0.656466 0 0.372675)
(-0.706105 -1.94024e-18 0.399004)
(-0.536326 -2.03449e-18 0.300559)
(-0.155575 -1.96762e-18 0.0883866)
(-0.100619 -1.79151e-18 0.0561395)
(1.02471 2.35833e-21 -0.573494)
(1.95152 6.364e-21 -1.102)
(0.391664 6.41819e-19 -0.225567)
(-0.268776 0 0.145323)
(0.218963 0 -0.122771)
(-0.0168925 0 0.00735564)
(0.0944162 3.28012e-18 -0.0571955)
(0.23668 -1.44586e-18 -0.135077)
(0.296171 1.38836e-18 -0.169192)
(0.351943 1.18928e-18 -0.197022)
(0.136956 0 -0.0669043)
(-0.328862 0 0.202382)
(-0.855144 0 0.498675)
(-1.25142 1.01596e-18 0.713983)
(-1.47586 0 0.837497)
(-1.5277 -1.85009e-18 0.863729)
(-1.4092 0 0.794783)
(-1.11997 0 0.627517)
(-0.649899 2.87929e-18 0.360996)
(-0.362098 0 0.199384)
(-0.101789 0 0.0525672)
(0.0988607 0 -0.0592288)
(0.145273 -5.01113e-18 -0.0839375)
(0.119738 0 -0.0686693)
(0.112224 4.30881e-18 -0.0624195)
(-0.0599075 0 0.0344248)
(0.0336134 1.86309e-22 -0.0203436)
(30.7306 -1.5688e-20 -0.995696)
(21.3904 2.05621e-20 -3.38111)
(13.5316 1.33105e-20 -4.25828)
(8.55637 0 -3.68388)
(5.69029 -1.32036e-20 -2.77139)
(3.96125 2.36385e-20 -2.02518)
(2.83939 3.24695e-20 -1.48131)
(2.05766 -3.76725e-20 -1.08366)
(1.48452 0 -0.785154)
(1.05053 0 -0.555769)
(0.71464 0 -0.377562)
(0.451477 0 -0.236653)
(0.243406 0 -0.124224)
(0.0757577 0 -0.0338015)
(-0.0562074 -7.11826e-22 0.0396884)
(-0.160521 0 0.0970489)
(-0.245002 1.04646e-19 0.143088)
(-0.310668 0 0.179549)
(-0.362035 -2.03167e-19 0.207981)
(-0.400895 1.99244e-19 0.229547)
(-0.429483 0 0.245561)
(-0.449296 1.91311e-19 0.256802)
(-0.461934 -1.86992e-19 0.263764)
(-0.46881 1.81535e-19 0.2672)
(-0.47074 -1.75904e-19 0.267704)
(-0.468416 0 0.266139)
(-0.4624 1.65599e-19 0.262834)
(-0.453623 0 0.257663)
(-0.44265 0 0.251403)
(-0.429938 0 0.244204)
(-0.415933 2.88805e-19 0.236221)
(-0.400939 0 0.22773)
(-0.385284 0 0.218914)
(-0.369231 0 0.209867)
(-0.352961 0 0.200676)
(-0.336675 0 0.191479)
(-0.320564 0 0.182392)
(-0.304742 4.40319e-19 0.173473)
(-0.289346 0 0.164789)
(-0.274443 8.10529e-19 0.156366)
(-0.260121 7.77163e-19 0.14827)
(-0.246412 3.72392e-19 0.14051)
(-0.233221 0 0.133035)
(-0.220539 0 0.12584)
(-0.208347 6.54127e-19 0.118916)
(-0.196595 -6.25959e-19 0.112239)
(-0.18537 5.98676e-19 0.105873)
(-0.174842 0 0.0999177)
(-0.165232 -5.47128e-19 0.0945089)
(-0.156864 0 0.0898314)
(-0.150034 0 0.086054)
(-0.144997 -4.76739e-19 0.0833156)
(-0.141883 0 0.0816664)
(-0.14052 0 0.0809894)
(-0.140491 8.28523e-19 0.0810224)
(-0.140964 0 0.0812859)
(-0.140481 0 0.0809188)
(-0.137046 3.42331e-23 0.0786757)
(-0.127997 6.85053e-19 0.0730372)
(-0.110482 -4.02932e-23 0.0624235)
(-0.082064 0 0.045523)
(-0.0419021 -1.18375e-18 0.0220435)
(0.00853388 -1.12566e-18 -0.00709125)
(0.064431 0 -0.0392696)
(0.12018 -2.02894e-18 -0.0711999)
(0.170535 -5.83864e-23 -0.099941)
(0.214518 0 -0.125095)
(0.254922 8.61446e-19 -0.148331)
(0.296639 0 -0.172485)
(0.343123 0 -0.199417)
(0.393027 0 -0.228265)
(0.443566 0 -0.257333)
(0.48665 2.52133e-18 -0.28181)
(0.51649 -1.17385e-18 -0.298459)
(0.523353 0 -0.301689)
(0.503577 0 -0.289251)
(0.457813 9.35561e-19 -0.261929)
(0.39055 4.00887e-22 -0.222497)
(0.309019 2.73085e-22 -0.175268)
(0.233274 0 -0.132175)
(0.181307 0 -0.103044)
(0.146526 0 -0.0838124)
(0.124593 4.15564e-23 -0.0714472)
(0.100344 -1.20833e-18 -0.0561695)
(-0.0273247 1.12353e-18 0.0217715)
(-0.337776 -1.03382e-18 0.206781)
(-0.864252 4.65483e-22 0.515168)
(-1.499 -9.01594e-19 0.879623)
(-2.08977 0 1.21525)
(-2.20059 1.86492e-18 1.26659)
(-1.68161 0 0.94585)
(-0.523078 1.8866e-18 0.284538)
(-0.346372 0 0.159871)
(2.95607 -3.29342e-18 -1.78056)
(6.01816 -9.8546e-19 -3.45218)
(1.45433 0 -0.759228)
(-0.677279 0 0.398931)
(0.661988 -1.63469e-18 -0.390425)
(0.00325737 1.48813e-18 0.00320513)
(0.347727 -3.11682e-18 -0.210762)
(0.768776 1.37318e-18 -0.448571)
(0.950266 -1.3174e-18 -0.552807)
(1.01275 0 -0.581221)
(0.205794 8.87822e-19 -0.0982547)
(-1.33126 0 0.799075)
(-2.9231 0 1.71661)
(-4.00389 -9.5433e-19 2.33021)
(-4.53088 0 2.62841)
(-4.58105 9.0769e-21 2.64957)
(-4.16709 2.19358e-18 2.40127)
(-3.28785 0 1.88006)
(-1.85063 0 1.04934)
(-1.00367 0 0.565493)
(-0.21396 2.66352e-18 0.111544)
(0.367209 -5.09493e-18 -0.218992)
(0.492886 4.71091e-18 -0.284339)
(0.384286 0 -0.221519)
(0.326407 -4.04705e-18 -0.183791)
(-0.191433 0 0.112681)
(0.136235 7.02806e-18 -0.0810929)
(34.3358 3.33303e-20 -0.853058)
(29.7586 -8.98403e-21 -2.96028)
(23.1997 -4.63873e-21 -4.65883)
(17.0173 0 -5.01942)
(12.2484 -1.54277e-20 -4.48394)
(8.89636 5.86001e-22 -3.66365)
(6.56894 0 -2.88306)
(4.90535 3.57568e-20 -2.23182)
(3.67435 0 -1.70734)
(2.73762 4.30389e-20 -1.28661)
(2.00997 0 -0.947485)
(1.43569 0 -0.672938)
(0.977595 0 -0.449701)
(0.607689 0 -0.268048)
(0.312056 -9.94814e-20 -0.115582)
(0.0720152 0 0.00457594)
(-0.122153 0 0.103689)
(-0.277673 0 0.183356)
(-0.402363 9.62264e-20 0.24744)
(-0.500409 -4.92138e-22 0.298168)
(-0.576431 0 0.337735)
(-0.633919 -4.73342e-22 0.367697)
(-0.675911 0 0.389246)
(-0.704942 -1.71427e-19 0.403789)
(-0.722696 0 0.412565)
(-0.731616 0 0.415783)
(-0.732892 -1.57077e-19 0.415028)
(-0.727855 0 0.410587)
(-0.717284 0 0.404036)
(-0.7027 -2.8334e-19 0.395149)
(-0.684779 0 0.384654)
(-0.664261 0 0.37292)
(-0.641855 0 0.360276)
(-0.618101 0 0.346936)
(-0.593393 2.35044e-19 0.333096)
(-0.568156 0 0.319025)
(-0.542798 0 0.304927)
(-0.517579 -4.16857e-19 0.290929)
(-0.492774 0 0.27717)
(-0.468542 -7.67418e-19 0.263727)
(-0.445068 -7.16698e-23 0.25072)
(-0.422459 -3.52561e-19 0.23816)
(-0.400596 0 0.225983)
(-0.379478 0 0.214202)
(-0.3591 -3.09475e-19 0.202812)
(-0.339401 0 0.191794)
(-0.320533 -5.66323e-19 0.181275)
(-0.302791 0 0.171431)
(-0.286556 3.20918e-23 0.162505)
(-0.272374 0 0.154808)
(-0.260755 0 0.148624)
(-0.252129 0 0.144175)
(-0.246706 -4.2994e-19 0.141556)
(-0.244225 0 0.140502)
(-0.243986 0 0.140513)
(-0.244533 0 0.140789)
(-0.243408 0 0.139827)
(-0.237296 1.35653e-18 0.135373)
(-0.221615 0 0.125032)
(-0.191624 -3.38512e-23 0.10612)
(-0.143221 0 0.0765436)
(-0.0749752 5.58163e-19 0.0359625)
(0.0106707 1.06134e-18 -0.0141069)
(0.105985 0 -0.068972)
(0.201463 1.91217e-18 -0.123194)
(0.287985 9.05941e-19 -0.171872)
(0.363352 0 -0.21435)
(0.431735 -8.1127e-19 -0.253302)
(0.501051 0 -0.293309)
(0.577194 0 -0.337273)
(0.658279 0 -0.383781)
(0.740146 0 -0.430117)
(0.809832 4.9524e-22 -0.468818)
(0.858188 1.10391e-18 -0.494788)
(0.86952 0 -0.499182)
(0.838326 0 -0.477476)
(0.765056 4.02899e-22 -0.432125)
(0.656347 -1.6354e-18 -0.367837)
(0.523809 -7.62933e-19 -0.291543)
(0.401262 0 -0.223421)
(0.318516 0 -0.178748)
(0.261485 0 -0.148166)
(0.217446 -2.40952e-18 -0.123128)
(0.157704 -2.71342e-22 -0.0826067)
(-0.0846665 -1.05396e-18 0.0720875)
(-0.632877 0 0.406969)
(-1.52292 -8.92856e-19 0.932442)
(-2.55764 8.45244e-19 1.52338)
(-3.48794 0 2.03286)
(-3.60415 0 2.0528)
(-2.76029 1.82252e-18 1.50641)
(-0.887875 0 0.455345)
(-0.540784 1.60528e-18 0.182788)
(4.25406 -2.86943e-21 -2.68583)
(9.79231 9.37754e-19 -5.55908)
(2.75177 -5.74469e-19 -1.32512)
(-0.910239 0 0.539428)
(1.07062 1.52981e-18 -0.638185)
(0.0773826 -1.39245e-18 -0.0340289)
(0.633926 2.9146e-18 -0.399048)
(1.30338 0 -0.767334)
(1.58561 -1.23327e-18 -0.922425)
(1.54913 0 -0.858639)
(0.0576975 -8.30174e-19 0.0627993)
(-2.55648 5.84034e-19 1.59569)
(-5.09074 0 3.03101)
(-6.66636 8.92061e-19 3.88598)
(-7.32406 0 4.22456)
(-7.27961 3.23896e-18 4.17073)
(-6.55647 -2.04984e-18 3.71537)
(-5.14394 0 2.86699)
(-2.82466 0 1.53846)
(-1.51459 0 0.809696)
(-0.235753 -1.20545e-21 0.0859085)
(0.673184 4.75906e-18 -0.413037)
(0.860315 -4.39999e-18 -0.495259)
(0.646192 0 -0.367642)
(0.514353 -3.78091e-18 -0.276136)
(-0.311769 0 0.185449)
(0.267419 -2.13538e-22 -0.165132)
(34.9599 -1.74806e-20 -1.04551)
(33.6562 -4.95205e-21 -2.29482)
(29.8313 7.67181e-21 -4.0707)
(24.7037 -1.53774e-20 -5.20267)
(19.5611 -2.14978e-20 -5.39982)
(15.1581 -4.49066e-20 -4.95224)
(11.6806 0 -4.23684)
(9.01041 0 -3.48745)
(6.95778 0 -2.80393)
(5.3611 -4.07679e-20 -2.21399)
(4.10234 0 -1.71598)
(3.09794 0 -1.29916)
(2.28903 0 -0.951289)
(1.63153 0 -0.66186)
(1.09729 0 -0.418426)
(0.660962 -9.3279e-20 -0.218904)
(0.304311 9.28067e-20 -0.0520501)
(0.0132912 0 0.0842374)
(-0.223225 0 0.196222)
(-0.413806 -1.78638e-19 0.286791)
(-0.565922 1.74829e-19 0.359549)
(-0.685531 -1.71482e-19 0.416808)
(-0.777475 1.66666e-19 0.461028)
(-0.846337 1.6233e-19 0.494057)
(-0.895734 -1.57608e-19 0.517595)
(-0.929093 1.53178e-19 0.532326)
(-0.94819 0 0.540274)
(-0.956114 -1.43666e-19 0.54121)
(-0.954881 0 0.536961)
(-0.945398 2.68169e-19 0.529879)
(-0.929573 0 0.519569)
(-0.908617 0 0.50699)
(-0.88375 0 0.492599)
(-0.855911 -2.31083e-19 0.476751)
(-0.825803 -2.22342e-19 0.459797)
(-0.794153 0 0.442167)
(-0.761657 0 0.424188)
(-0.728786 3.94188e-19 0.406073)
(-0.696005 0 0.388054)
(-0.663618 9.11569e-23 0.370271)
(-0.631942 -3.47693e-19 0.352918)
(-0.601193 0 0.336026)
(-0.571268 0 0.319534)
(-0.5422 0 0.303486)
(-0.514022 0 0.287895)
(-0.486682 -5.59215e-19 0.272761)
(-0.460409 0 0.258288)
(-0.435627 5.1114e-19 0.244742)
(-0.412881 4.88424e-19 0.232477)
(-0.392939 0 0.221935)
(-0.376527 0 0.213509)
(-0.364252 0 0.207498)
(-0.356423 4.0563e-19 0.203993)
(-0.352674 -3.86912e-19 0.202603)
(-0.352008 -7.37965e-19 0.202569)
(-0.35237 0 0.20269)
(-0.350322 -6.70741e-19 0.200774)
(-0.341174 -1.27858e-18 0.193671)
(-0.318578 0 0.17793)
(-0.275928 -1.16054e-18 0.149903)
(-0.20753 0 0.106814)
(-0.111368 -5.2565e-19 0.0483991)
(0.0093736 -9.99356e-19 -0.0229015)
(0.144145 0 -0.100583)
(0.279708 -8.99939e-19 -0.17708)
(0.402975 -8.52653e-19 -0.245599)
(0.51012 0 -0.305239)
(0.606179 0 -0.359578)
(0.701716 0 -0.41479)
(0.805043 6.79027e-19 -0.474684)
(0.914082 6.37892e-19 -0.537345)
(1.02382 0 -0.599176)
(1.11733 -1.11505e-18 -0.65018)
(1.18267 -1.03811e-18 -0.683724)
(1.1988 0 -0.688307)
(1.1583 0 -0.65773)
(1.06141 -8.25864e-19 -0.595854)
(0.916496 -3.49606e-22 -0.508649)
(0.738555 0 -0.40578)
(0.574499 0 -0.315754)
(0.4654 0 -0.258304)
(0.387341 0 -0.217139)
(0.314784 -4.74942e-23 -0.175474)
(0.202037 1.06327e-18 -0.0979316)
(-0.178656 0 0.151445)
(-0.98289 0 0.65275)
(-2.22985 0 1.39688)
(-3.62283 7.91239e-19 2.19093)
(-4.8178 0 2.82674)
(-4.86932 1.62615e-18 2.76269)
(-3.72679 -1.70671e-18 1.98601)
(-1.22955 1.65379e-18 0.588637)
(-0.575238 -1.50281e-18 0.079851)
(4.60289 2.8982e-18 -3.15664)
(13.1617 -8.77607e-19 -7.48232)
(4.28327 5.37533e-19 -1.92933)
(-0.940888 0 0.60325)
(1.44232 0 -0.875483)
(0.209885 -1.30056e-18 -0.0978774)
(0.951912 -1.36262e-18 -0.612818)
(1.83349 -1.2021e-18 -1.09149)
(2.18039 -5.98169e-22 -1.27071)
(1.92489 0 -1.04082)
(-0.339569 0 0.381086)
(-3.99819 -5.45896e-19 2.53629)
(-7.29329 0 4.3863)
(-9.13538 -8.27035e-19 5.354)
(-9.75485 0 5.64532)
(-9.54658 -8.88571e-21 5.47204)
(-8.50885 0 4.81064)
(-6.62971 -2.21791e-18 3.65627)
(-3.54194 2.35317e-18 1.88562)
(-1.89231 2.38152e-18 0.98031)
(-0.167944 -1.3722e-21 0.00656854)
(1.0137 0 -0.630252)
(1.2432 4.10903e-18 -0.713416)
(0.901439 3.86269e-18 -0.508359)
(0.676046 3.53048e-18 -0.351635)
(-0.410901 0 0.247056)
(0.432043 -2.49292e-22 -0.270634)
(34.6114 0 -1.53066)
(34.7311 -3.60932e-21 -2.08068)
(33.2339 0 -3.39814)
(30.1089 1.45286e-20 -4.71502)
(25.9953 3.41021e-20 -5.48651)
(21.6534 2.18446e-20 -5.61081)
(17.6316 0 -5.25522)
(14.1765 0 -4.64469)
(11.3179 -3.51246e-20 -3.95141)
(8.98796 -3.79315e-20 -3.27325)
(7.0945 4.01047e-20 -2.65398)
(5.5518 8.3402e-20 -2.10755)
(4.28973 8.56017e-20 -1.63394)
(3.25196 0 -1.22824)
(2.39769 0 -0.880545)
(1.69278 1.75997e-19 -0.587794)
(1.11026 -3.61903e-22 -0.340125)
(0.629734 0 -0.132978)
(0.234115 -8.53753e-20 0.0400722)
(-0.0898062 -1.67988e-19 0.182939)
(-0.353195 -1.65288e-19 0.300078)
(-0.565496 0 0.39468)
(-0.734186 -1.57554e-19 0.470034)
(-0.866203 1.53052e-19 0.528648)
(-0.966826 1.48973e-19 0.572988)
(-1.04054 -1.22481e-22 0.605807)
(-1.09199 0 0.628557)
(-1.12512 2.15739e-22 0.641666)
(-1.14264 0 0.645858)
(-1.14781 2.52953e-19 0.642649)
(-1.14166 0 0.636034)
(-1.12673 0 0.625438)
(-1.10487 0 0.611784)
(-1.07755 2.1826e-19 0.595622)
(-1.04591 0 0.577462)
(-1.01108 0 0.557936)
(-0.97414 0 0.537517)
(-0.935855 0 0.516531)
(-0.896946 -3.56819e-19 0.495327)
(-0.857918 6.84452e-19 0.474126)
(-0.819271 0 0.453217)
(-0.781379 3.14258e-19 0.43266)
(-0.744201 0 0.412417)
(-0.707836 0 0.392578)
(-0.672385 0 0.373191)
(-0.637832 6.35604e-23 0.35429)
(-0.604491 0 0.336177)
(-0.572926 -4.81952e-19 0.319211)
(-0.543848 0 0.303871)
(-0.518248 0 0.290728)
(-0.49707 -4.19748e-19 0.280279)
(-0.481102 0 0.272886)
(-0.470746 0 0.268627)
(-0.465538 1.14238e-23 0.266962)
(-0.4642 6.95074e-19 0.266818)
(-0.464071 0 0.266572)
(-0.460756 2.63733e-23 0.263309)
(-0.44823 1.20361e-18 0.252976)
(-0.418442 0 0.231122)
(-0.363033 5.46066e-19 0.193196)
(-0.274808 0 0.135882)
(-0.151197 4.94506e-19 0.0591171)
(0.00401653 9.39978e-19 -0.0335897)
(0.177762 0 -0.133942)
(0.353305 8.46218e-19 -0.232348)
(0.513573 -5.39131e-23 -0.320245)
(0.652708 0 -0.396539)
(0.776052 0 -0.465589)
(0.896363 0 -0.53497)
(1.02436 -1.27589e-18 -0.609208)
(1.15815 2.09818e-22 -0.68593)
(1.29242 0 -0.760802)
(1.40706 1.0479e-18 -0.821806)
(1.48796 1.9494e-18 -0.861112)
(1.50953 0 -0.86501)
(1.46245 0 -0.826053)
(1.34658 0 -0.749375)
(1.17124 -3.31835e-22 -0.642141)
(0.953848 0 -0.51636)
(0.75346 0 -0.408499)
(0.621922 0 -0.34152)
(0.523529 0 -0.29015)
(0.415321 1.0589e-18 -0.226654)
(0.231128 9.96898e-19 -0.0972348)
(-0.311993 0 0.26733)
(-1.38864 0 0.950833)
(-2.98022 0 1.90811)
(-4.68104 -4.5516e-22 2.87212)
(-6.05851 0 3.56973)
(-5.97568 -1.52232e-18 3.35997)
(-4.56289 0 2.35827)
(-1.54097 -1.54775e-18 0.675902)
(-0.36261 0 -0.176506)
(3.87486 -1.35711e-18 -3.09457)
(16.0911 0 -9.17823)
(6.01301 0 -2.55034)
(-0.77743 0 0.574505)
(1.78642 0 -1.09761)
(0.395257 1.21608e-18 -0.192261)
(1.29445 0 -0.852023)
(2.35457 1.12377e-18 -1.41536)
(2.71924 1.07843e-18 -1.58066)
(2.1364 0 -1.09241)
(-0.965751 0 0.887839)
(-5.59721 0 3.61884)
(-9.44273 0 5.73337)
(-11.3376 3.814e-21 6.66182)
(-11.8053 0 6.81432)
(-11.4006 -2.79552e-18 6.48676)
(-10.064 0 5.61949)
(-7.78109 4.13725e-18 4.19465)
(-4.04554 -2.19782e-18 2.06477)
(-2.17661 -2.22415e-18 1.06641)
(-0.0379757 -2.16787e-18 -0.131962)
(1.37888 0 -0.870124)
(1.63721 0 -0.9357)
(1.15096 -7.21355e-18 -0.639373)
(0.822632 3.29767e-18 -0.407399)
(-0.480718 3.04702e-18 0.291436)
(0.628928 -2.8596e-18 -0.401185)
(34.1613 0 -1.99)
(34.5684 3.34295e-20 -2.20665)
(34.3673 0 -2.99014)
(33.0082 0 -4.08087)
(30.4698 0 -5.05431)
(27.1194 0 -5.62601)
(23.432 0 -5.7308)
(19.7971 3.04566e-20 -5.45599)
(16.4565 3.3143e-20 -4.94217)
(13.5187 7.14694e-20 -4.31588)
(11.0003 -7.54915e-20 -3.66486)
(8.87 -7.87196e-20 -3.0399)
(7.07939 -8.08007e-20 -2.46572)
(5.57756 0 -1.95247)
(4.32021 0 -1.49931)
(3.26835 -1.65394e-19 -1.1065)
(2.38871 -1.64672e-19 -0.767483)
(1.65448 0 -0.478016)
(1.04293 8.05913e-20 -0.232192)
(0.535903 1.58571e-19 -0.0250161)
(0.117377 0 0.147756)
(-0.225513 1.51787e-19 0.290505)
(-0.503759 0 0.40691)
(-0.727167 -1.73042e-22 0.500468)
(-0.903546 -1.40375e-19 0.57422)
(-1.03991 -1.71967e-22 0.630916)
(-1.14228 0 0.673027)
(-1.21563 1.27899e-19 0.703428)
(-1.2654 -2.46816e-19 0.72297)
(-1.29537 -4.77081e-19 0.731375)
(-1.30916 -2.30167e-19 0.730239)
(-1.30857 0 0.724926)
(-1.29665 -2.13686e-19 0.714954)
(-1.27575 0 0.700958)
(-1.24755 0 0.683779)
(-1.21372 0 0.664271)
(-1.17583 0 0.643081)
(-1.13505 0 0.620675)
(-1.09242 1.04647e-22 0.597538)
(-1.04875 -3.2253e-19 0.573997)
(-1.00477 0 0.550461)
(-0.961077 -5.92228e-19 0.527033)
(-0.917749 0 0.503709)
(-0.874987 0 0.480654)
(-0.833002 0 0.457963)
(-0.791843 4.96741e-19 0.435723)
(-0.751922 0 0.414349)
(-0.713955 0 0.394311)
(-0.678825 0 0.376217)
(-0.647742 0 0.360766)
(-0.62187 7.90211e-19 0.348557)
(-0.602179 0 0.34)
(-0.58917 0 0.335134)
(-0.582292 3.4294e-19 0.333247)
(-0.579993 0 0.332914)
(-0.579012 0 0.332058)
(-0.574044 1.18788e-18 0.327011)
(-0.557791 -5.65904e-19 0.312817)
(-0.520598 0 0.284076)
(-0.452486 0 0.235452)
(-0.344879 0 0.163263)
(-0.194676 -4.64685e-19 0.067813)
(-0.00613965 0 -0.0462395)
(0.205518 0 -0.168817)
(0.42038 -1.5898e-18 -0.288454)
(0.617477 1.50577e-18 -0.394992)
(0.788543 0 -0.487215)
(0.938617 0 -0.57015)
(1.08212 0 -0.652575)
(1.23209 5.98839e-19 -0.739561)
(1.38717 -5.62414e-19 -0.828342)
(1.54237 -1.05376e-18 -0.914046)
(1.67527 -9.83049e-19 -0.983014)
(1.77028 -9.14466e-19 -1.0266)
(1.79821 8.48343e-19 -1.02915)
(1.74767 0 -0.982756)
(1.61819 0 -0.893132)
(1.41911 6.75647e-19 -0.768689)
(1.16908 0 -0.62354)
(0.937824 0 -0.50167)
(0.787437 0 -0.427889)
(0.668749 0 -0.365929)
(0.51683 0 -0.274119)
(0.241013 -1.86752e-18 -0.0767968)
(-0.48889 0 0.424075)
(-1.85057 -7.99884e-19 1.30311)
(-3.76519 0 2.46204)
(-5.71249 -5.4276e-22 3.55439)
(-7.17901 1.36847e-18 4.24647)
(-6.89395 0 3.84006)
(-5.25706 0 2.62327)
(-1.83383 0 0.71646)
(0.104495 0 -0.563325)
(2.2424 1.27193e-18 -2.60217)
(18.538 0 -10.6781)
(7.89287 0 -3.16137)
(-0.413013 0 0.476762)
(2.10895 0 -1.30894)
(0.630265 0 -0.312606)
(1.65567 0 -1.11158)
(2.85951 0 -1.73475)
(3.18324 0 -1.84009)
(2.165 -8.72641e-19 -1.01297)
(-1.81428 0 1.56272)
(-7.29919 0 4.79442)
(-11.446 0 7.01075)
(-13.1954 7.18265e-19 7.77424)
(-13.4337 0 7.75125)
(-12.8225 1.3017e-18 7.27024)
(-11.2171 0 6.20711)
(-8.60247 -6.3908e-21 4.53602)
(-4.36269 0 2.12805)
(-2.38751 2.07229e-18 1.10291)
(0.134947 0 -0.306319)
(1.76064 0 -1.12501)
(2.03823 0 -1.1585)
(1.39391 3.36746e-18 -0.761772)
(0.960319 -6.15791e-18 -0.452573)
(-0.513564 -5.68891e-18 0.313942)
(0.856819 -2.66894e-18 -0.554649)
(33.833 0 -2.28231)
(34.1277 -3.57821e-20 -2.41711)
(34.3601 0 -2.85142)
(34.0399 0 -3.60704)
(32.8577 -2.76134e-20 -4.48461)
(30.807 -2.71118e-20 -5.23182)
(28.0832 2.79643e-20 -5.68089)
(24.9614 -8.79941e-20 -5.78298)
(21.7127 0 -5.57926)
(18.5531 2.15931e-23 -5.15506)
(15.6231 3.54699e-20 -4.60119)
(12.9927 0 -3.99202)
(10.6816 0 -3.37898)
(8.67825 0 -2.79438)
(6.95744 0 -2.25389)
(5.48847 3.25517e-22 -1.76717)
(4.23974 2.88213e-22 -1.33509)
(3.18245 7.64992e-20 -0.956889)
(2.29048 7.55315e-20 -0.629019)
(1.54141 0 -0.347501)
(0.915271 -1.45872e-19 -0.108292)
(0.395223 -1.43063e-19 0.0933507)
(-0.033684 0 0.260982)
(-0.384293 -1.84061e-22 0.398928)
(-0.66756 1.72124e-22 0.510699)
(-0.893072 -1.28477e-19 0.599855)
(-1.06941 0 0.669279)
(-1.20398 0 0.721558)
(-1.30297 2.32553e-19 0.759522)
(-1.37215 1.89183e-22 0.786205)
(-1.41698 4.33503e-19 0.799593)
(-1.44136 0 0.801881)
(-1.44865 4.02434e-19 0.798334)
(-1.44169 0 0.789524)
(-1.42329 0 0.775845)
(-1.39579 -1.78906e-19 0.758592)
(-1.36142 0 0.738588)
(-1.32186 -3.29894e-19 0.716466)
(-1.27863 1.02291e-22 0.692876)
(-1.23289 3.0346e-19 0.668274)
(-1.1857 0 0.643217)
(-1.13796 6.28502e-23 0.617866)
(-1.08992 0 0.592274)
(-1.04196 0 0.566699)
(-0.994421 0 0.541305)
(-0.94747 0 0.51625)
(-0.901632 0 0.492082)
(-0.857789 4.26779e-19 0.469392)
(-0.817 0 0.448926)
(-0.780694 0 0.431513)
(-0.750259 -3.71503e-19 0.417844)
(-0.726847 0 0.408364)
(-0.711064 -3.38044e-19 0.403047)
(-0.702275 -3.22321e-19 0.401005)
(-0.698694 6.14501e-19 0.400371)
(-0.696462 0 0.398624)
(-0.689431 -5.58039e-19 0.391306)
(-0.669099 -5.31579e-19 0.372601)
(-0.624366 0 0.336205)
(-0.543791 0 0.276134)
(-0.417569 0 0.188529)
(-0.242094 4.36312e-19 0.0742426)
(-0.021949 0 -0.0608209)
(0.225921 0 -0.204867)
(0.478841 7.46065e-19 -0.34474)
(0.712144 -1.41314e-18 -0.46889)
(0.914829 0 -0.576074)
(1.091 0 -0.671879)
(1.25612 0 -0.766082)
(1.42543 0 -0.864115)
(1.59843 -5.27821e-19 -0.962866)
(1.77107 9.88009e-19 -1.0571)
(1.91954 0 -1.13193)
(2.02751 0 -1.17826)
(2.06294 -7.95067e-19 -1.17897)
(2.01246 0 -1.12618)
(1.87502 -6.82106e-19 -1.02592)
(1.65929 6.33583e-19 -0.88754)
(1.38377 0 -0.726885)
(1.12695 0 -0.594826)
(0.960595 0 -0.516488)
(0.820763 0 -0.44258)
(0.616105 0 -0.314517)
(0.227606 8.74197e-19 -0.0315279)
(-0.712307 0 0.626733)
(-2.36584 1.49766e-18 1.71035)
(-4.57139 0 3.05103)
(-6.6937 -6.49772e-22 4.22153)
(-8.15429 -3.06256e-21 4.8357)
(-7.61757 0 4.18896)
(-5.8228 1.38751e-18 2.78905)
(-2.137 0 0.719916)
(0.733274 0 -1.00563)
(0.273654 -2.37831e-18 -1.99206)
(20.505 0 -11.9701)
(9.85979 0 -3.73706)
(0.140019 0 0.316354)
(2.4212 0 -1.51011)
(0.907859 0 -0.457354)
(2.02804 0 -1.38724)
(3.34082 0 -2.0432)
(3.55632 0 -2.034)
(2.00994 8.15255e-19 -0.785466)
(-2.85314 0 2.40086)
(-9.02876 0 6.02259)
(-13.214 0 8.15954)
(-14.6731 -6.62279e-19 8.65717)
(-14.6678 -8.67885e-19 8.43818)
(-13.87 -1.19863e-18 7.80035)
(-12.03 1.52515e-18 6.56136)
(-9.14906 -6.36286e-21 4.68194)
(-4.55972 -1.90514e-18 2.09547)
(-2.55864 -3.86732e-18 1.09626)
(0.317488 0 -0.506075)
(2.14771 3.61506e-18 -1.39025)
(2.44228 3.34421e-18 -1.37901)
(1.63278 0 -0.874394)
(1.09983 2.8745e-18 -0.489765)
(-0.503785 2.65514e-18 0.310291)
(1.11057 2.49125e-18 -0.729652)
(33.5908 0 -2.44178)
(33.7462 1.77113e-20 -2.58536)
(33.9921 0 -2.86243)
(34.0746 0 -3.35477)
(33.7103 2.60009e-20 -4.01939)
(32.7281 2.55233e-20 -4.72056)
(31.0947 -2.63211e-20 -5.3088)
(28.8897 8.50217e-20 -5.67746)
(26.2654 0 -5.78359)
(23.4028 3.20654e-20 -5.64103)
(20.476 -6.64415e-20 -5.29899)
(17.6273 0 -4.81976)
(14.9561 7.0513e-20 -4.26247)
(12.5198 0 -3.67588)
(10.3422 7.23928e-20 -3.09391)
(8.42459 7.29047e-20 -2.5406)
(6.75414 7.26401e-20 -2.02891)
(5.31123 -7.20113e-20 -1.5659)
(4.07342 -1.42005e-19 -1.15361)
(3.01831 0 -0.791395)
(2.12433 1.37315e-19 -0.477124)
(1.3717 0 -0.207264)
(0.742466 0 0.0216533)
(0.220414 -1.27814e-19 0.213802)
(-0.20863 2.48516e-19 0.373041)
(-0.557355 0 0.503209)
(-0.83716 0 0.60779)
(-1.05792 0 0.69011)
(-1.22844 -2.18448e-19 0.752974)
(-1.35619 2.11218e-19 0.79922)
(-1.44749 -1.69298e-22 0.833331)
(-1.51006 1.96381e-19 0.851807)
(-1.54722 -3.78376e-19 0.858867)
(-1.56421 1.81991e-19 0.857607)
(-1.5637 -1.75016e-19 0.850547)
(-1.54938 7.74786e-23 0.838067)
(-1.52425 0 0.821505)
(-1.49071 3.10269e-19 0.801644)
(-1.45086 2.97628e-19 0.779325)
(-1.40635 -2.85361e-19 0.755155)
(-1.35868 0 0.729873)
(-1.30914 2.61954e-19 0.70372)
(-1.25828 2.50753e-19 0.676821)
(-1.20665 2.39981e-19 0.649557)
(-1.15485 2.29575e-19 0.622183)
(-1.10318 0 0.594941)
(-1.05229 0 0.568535)
(-1.00327 -4.15816e-23 0.543691)
(-0.957353 0 0.521301)
(-0.916188 0 0.502326)
(-0.88139 -3.48942e-19 0.48754)
(-0.854296 3.32891e-19 0.477406)
(-0.835622 3.17483e-19 0.471809)
(-0.824691 1.1421e-23 0.469642)
(-0.819462 -2.33889e-23 0.468613)
(-0.815541 0 0.465674)
(-0.806026 0 0.455573)
(-0.781313 9.97895e-19 0.431689)
(-0.729024 0 0.386895)
(-0.636462 0 0.314717)
(-0.492758 -4.30411e-19 0.211316)
(-0.293835 0 0.0782675)
(-0.0444036 0 -0.0771869)
(0.237313 7.38147e-19 -0.241632)
(0.526396 -6.99749e-19 -0.400432)
(0.794812 1.32524e-18 -0.540877)
(1.02856 0 -0.661828)
(1.23018 -5.92694e-19 -0.769337)
(1.41545 0 -0.873988)
(1.60165 0 -0.981385)
(1.7894 9.89507e-19 -1.08811)
(1.97617 0 -1.18875)
(2.13768 0 -1.2676)
(2.25755 0 -1.31548)
(2.30176 0 -1.31425)
(2.25513 0 -1.25623)
(2.11569 6.38746e-19 -1.14756)
(1.89067 3.16464e-22 -0.99843)
(1.59702 -5.53017e-19 -0.826011)
(1.31966 5.17673e-19 -0.687264)
(1.13927 0 -0.605881)
(0.976355 0 -0.517485)
(0.708972 0 -0.343615)
(0.186417 0 0.0441182)
(-0.984105 0 0.879627)
(-2.92829 5.06818e-22 2.17093)
(-5.38105 0 3.66405)
(-7.59918 -6.0537e-19 4.85522)
(-8.9639 -3.29374e-21 5.32231)
(-8.15273 0 4.41473)
(-6.29813 -1.29732e-18 2.88215)
(-2.48718 0 0.702505)
(1.37474 1.14425e-18 -1.41557)
(-1.25646 1.44898e-21 -1.69812)
(21.9136 0 -13.1053)
(11.8539 0 -4.25762)
(0.868214 0 0.114138)
(2.73471 0 -1.70411)
(1.22172 9.88549e-19 -0.622213)
(2.40353 0 -1.67363)
(3.78949 0 -2.33337)
(3.82435 8.81755e-19 -2.14615)
(1.6698 0 -0.408193)
(-4.04611 -6.06061e-19 3.3788)
(-10.7089 4.24783e-19 7.24957)
(-14.6747 0 9.13033)
(-15.7684 1.23191e-18 9.31134)
(-15.5388 7.96611e-21 8.91465)
(-14.5756 2.22937e-18 8.14028)
(-12.5438 -1.42406e-18 6.74017)
(-9.46588 -1.67037e-18 4.6809)
(-4.69591 1.77871e-18 2.01658)
(-2.7062 1.80412e-18 1.06427)
(0.475431 1.75955e-18 -0.708917)
(2.5276 -3.37473e-18 -1.65902)
(2.84575 -3.12176e-18 -1.59449)
(1.87016 -2.93531e-18 -0.978919)
(1.2493 -2.68442e-18 -0.525751)
(-0.447032 0 0.277669)
(1.38383 0 -0.922225)
(33.3763 0 -2.53381)
(33.4516 1.9142e-20 -2.69065)
(33.6153 0 -2.91042)
(33.767 0 -3.24818)
(33.7463 0 -3.71966)
(33.3965 0 -4.28138)
(32.6023 2.90017e-20 -4.84694)
(31.3117 -2.74694e-20 -5.32156)
(29.54 2.95253e-20 -5.63248)
(27.3587 -5.98996e-20 -5.74312)
(24.8772 6.24579e-20 -5.65204)
(22.2223 0 -5.38407)
(19.519 -6.62855e-20 -4.97866)
(16.8749 0 -4.4806)
(14.3714 -6.80573e-20 -3.93108)
(12.0618 -6.79272e-20 -3.36558)
(9.9739 0 -2.81033)
(8.11596 0 -2.28371)
(6.48329 6.6666e-20 -1.79699)
(5.06345 0 -1.35619)
(3.83966 0 -0.963746)
(2.79347 -1.25795e-19 -0.61918)
(1.9062 0 -0.320716)
(1.15967 0 -0.0652629)
(0.537045 -1.16735e-19 0.150815)
(0.0226185 0 0.331138)
(-0.397886 0 0.479564)
(-0.737285 0 0.599822)
(-1.00709 4.10538e-19 0.695241)
(-1.21741 0 0.769133)
(-1.3774 -1.40493e-22 0.824231)
(-1.49406 -1.49124e-22 0.865155)
(-1.57604 1.77751e-19 0.890467)
(-1.62845 -1.71038e-19 0.902673)
(-1.65691 3.28869e-19 0.903961)
(-1.66447 1.58068e-19 0.899528)
(-1.65593 0 0.889026)
(-1.63455 0 0.873698)
(-1.60319 2.79436e-19 0.854644)
(-1.56417 -2.67921e-19 0.832636)
(-1.51952 0 0.808638)
(-1.4711 0 0.782992)
(-1.41981 -5.10002e-23 0.755915)
(-1.36652 -2.2538e-19 0.727939)
(-1.31211 -2.15589e-19 0.699435)
(-1.25708 -4.12218e-19 0.670746)
(-1.20228 0 0.642756)
(-1.14899 -4.08725e-23 0.61634)
(-1.09863 0 0.592543)
(-1.0531 0 0.57246)
(-1.01422 3.2751e-19 0.55694)
(-0.983536 -3.12416e-19 0.54645)
(-0.961884 0 0.540754)
(-0.948501 2.84e-19 0.538604)
(-0.941295 -2.35789e-23 0.53697)
(-0.935252 0 0.532514)
(-0.922853 0 0.519115)
(-0.893531 -9.35894e-19 0.489407)
(-0.833842 0 0.435543)
(-0.730057 0 0.350732)
(-0.570423 8.07106e-19 0.231362)
(-0.350411 0 0.0798856)
(-0.0746445 0 -0.0950486)
(0.23788 -1.38378e-18 -0.278518)
(0.560591 6.55827e-19 -0.454643)
(0.862542 -6.20984e-19 -0.609814)
(1.12655 0 -0.743138)
(1.35299 5.55307e-19 -0.861073)
(1.55721 0 -0.974831)
(1.75821 -4.93737e-19 -1.09)
(1.95793 -4.63496e-19 -1.20288)
(2.15594 0 -1.30804)
(2.32831 0 -1.38928)
(2.45931 7.53656e-19 -1.43771)
(2.51384 6.98596e-19 -1.43442)
(2.47478 0 -1.37253)
(2.3392 0 -1.2578)
(2.11212 -1.11131e-18 -1.10103)
(1.80758 5.17509e-19 -0.920341)
(1.51419 -9.68856e-19 -0.77792)
(1.32054 0 -0.694074)
(1.13133 0 -0.587275)
(0.790375 0 -0.35634)
(0.112907 0 0.156044)
(-1.30444 0 1.18613)
(-3.52814 4.29545e-22 2.68052)
(-6.17287 0 4.28701)
(-8.4045 0 5.43695)
(-9.59942 -3.53637e-21 5.69711)
(-8.53118 0 4.53495)
(-6.74323 -1.20634e-18 2.94285)
(-2.91175 0 0.677878)
(1.88928 -1.06938e-18 -1.73523)
(-1.72829 2.62073e-21 -2.06274)