/*--------------------------------*- C++ -*----------------------------------*\
| =========                 |                                                 |
| \\      /  F ield         | OpenFOAM: The Open Source CFD Toolbox           |
|  \\    /   O peration     | Version:  2412                                  |
|   \\  /    A nd           | Website:  www.openfoam.com                      |
|    \\/     M anipulation  |                                                 |
\*---------------------------------------------------------------------------*/
FoamFile
{
    version     2.0;
    format      ascii;
    arch        "LSB;label=32;scalar=64";
    class       volVectorField;
    location    "0.835";
    object      U_0;
}
// * * * * * * * * * * * * * * * * * * * * * * * * * * * * * * * * * * * * * //

dimensions      [0 1 -1 0 0 0 0];

internalField   nonuniform List<vector> 
12600
(
(19.2355 0 -0.653025)
(7.77009 -3.6045e-20 -1.60954)
(3.27837 -1.62968e-20 -1.65746)
(1.65974 0 -1.21826)
(1.04006 -2.20605e-22 -0.808652)
(0.709676 0 -0.545419)
(0.488451 -3.11229e-20 -0.377627)
(0.328857 0 -0.262576)
(0.210264 0 -0.17893)
(0.120579 0 -0.116145)
(0.0510347 0 -0.0691186)
(-0.00316585 -9.80111e-20 -0.0325779)
(-0.0453196 -1.00089e-19 -0.00376751)
(-0.0785175 0 0.0194926)
(-0.104464 2.02927e-19 0.0365825)
(-0.123607 0 0.0508066)
(-0.138763 2.85424e-22 0.0619004)
(-0.149696 0 0.0703052)
(-0.15755 9.79404e-20 0.0766371)
(-0.162576 0 0.0811958)
(-0.16549 0 0.0842748)
(-0.166654 0 0.0860768)
(-0.166264 3.58674e-19 0.086953)
(-0.164579 -3.4996e-19 0.0870739)
(-0.161746 -1.5338e-22 0.0865076)
(-0.158051 1.65644e-19 0.0853203)
(-0.15374 0 0.0835881)
(-0.148956 0 0.0815011)
(-0.143858 0 0.0790987)
(-0.13844 -2.89519e-19 0.0764737)
(-0.132795 -5.58765e-19 0.0736919)
(-0.127075 0 0.0707835)
(-0.121363 0 0.0678022)
(-0.115668 -2.50145e-19 0.0647931)
(-0.110006 -2.40803e-19 0.0617828)
(-0.104444 0 0.0587995)
(-0.0990408 0 0.0558708)
(-0.0938114 -4.27904e-19 0.0530142)
(-0.0887761 0 0.0502516)
(-0.083944 6.00418e-23 0.0475853)
(-0.0793416 -3.78743e-19 0.045031)
(-0.0749708 -3.6337e-19 0.0425944)
(-0.0707907 0 0.0402575)
(-0.0667911 -3.34013e-19 0.0380178)
(-0.0629615 -3.20036e-19 0.0358698)
(-0.0592816 6.13122e-19 0.0338032)
(-0.0557774 -5.87129e-19 0.0318354)
(-0.0524986 0 0.029995)
(-0.0495128 5.37765e-19 0.0283224)
(-0.0469197 -5.14396e-19 0.0268736)
(-0.0448103 0 0.0257005)
(-0.0432615 -1.0633e-23 0.0248471)
(-0.0423239 4.49372e-19 0.0243169)
(-0.0419356 0 0.0240957)
(-0.041964 -8.20263e-19 0.0241146)
(-0.0421649 0 0.0242166)
(-0.0420947 0 0.0241442)
(-0.0411082 1.98798e-23 0.0235682)
(-0.0384194 2.19449e-23 0.0219552)
(-0.0331197 6.50694e-19 0.0188538)
(-0.0244461 -6.20689e-19 0.0138469)
(-0.0121423 1.18321e-18 0.00682696)
(0.00335553 0 -0.00187128)
(0.0204467 1.07166e-18 -0.01156)
(0.0374023 1.01829e-18 -0.0212122)
(0.0526609 -1.93322e-18 -0.029924)
(0.0660451 9.16652e-19 -0.0375706)
(0.0785433 0 -0.0446815)
(0.091756 0 -0.0521467)
(0.106754 0 -0.0605749)
(0.123026 0 -0.0697058)
(0.13957 0 -0.0790153)
(0.153735 -1.27865e-18 -0.0868707)
(0.163576 1.18998e-18 -0.0922506)
(0.165916 0 -0.0933495)
(0.15937 0 -0.0897689)
(0.14428 9.55253e-19 -0.081416)
(0.122338 2.5428e-22 -0.0690363)
(0.0958622 1.66381e-18 -0.0540906)
(0.0709869 0 -0.0402466)
(0.0535137 0 -0.0306755)
(0.0421799 0 -0.0245288)
(0.0370309 2.04261e-23 -0.0213156)
(0.0340159 0 -0.0188336)
(0.000945308 0 0.00158409)
(-0.0894177 1.06919e-18 0.0546948)
(-0.252168 2.77557e-22 0.147903)
(-0.458125 0 0.261843)
(-0.656441 0 0.372662)
(-0.706179 -1.93809e-18 0.399043)
(-0.536597 -2.03251e-18 0.300709)
(-0.156086 -1.96847e-18 0.0886509)
(-0.101414 -1.79397e-18 0.0565473)
(1.02815 2.3566e-21 -0.57545)
(1.95108 6.35723e-21 -1.10176)
(0.390629 6.39434e-19 -0.22501)
(-0.268349 0 0.145085)
(0.218818 0 -0.122686)
(-0.0168479 0 0.0073302)
(0.0945409 3.27539e-18 -0.0572635)
(0.236698 -1.44106e-18 -0.135087)
(0.296308 1.38551e-18 -0.169268)
(0.351904 1.18942e-18 -0.196998)
(0.136734 0 -0.0667738)
(-0.329273 0 0.202616)
(-0.855571 0 0.498913)
(-1.25169 1.01639e-18 0.714133)
(-1.47583 0 0.837481)
(-1.52747 -1.85167e-18 0.863584)
(-1.40889 0 0.794607)
(-1.11975 0 0.627392)
(-0.649714 2.87928e-18 0.360892)
(-0.36186 0 0.199249)
(-0.101632 0 0.0524783)
(0.0989253 0 -0.059265)
(0.1453 -5.01117e-18 -0.0839534)
(0.119743 0 -0.0686716)
(0.112182 4.30937e-18 -0.0623953)
(-0.0599473 0 0.0344464)
(0.0336114 1.86318e-22 -0.0203428)
(30.7308 -1.56871e-20 -0.995706)
(21.3906 2.05629e-20 -3.38114)
(13.5317 1.33093e-20 -4.25832)
(8.55647 0 -3.68392)
(5.69037 -1.31996e-20 -2.77143)
(3.96131 2.36341e-20 -2.02522)
(2.83944 3.24662e-20 -1.48134)
(2.05771 -3.76722e-20 -1.08369)
(1.48458 0 -0.785174)
(1.05059 0 -0.555781)
(0.714676 0 -0.377578)
(0.451472 0 -0.236684)
(0.243392 0 -0.124259)
(0.0758013 0 -0.0338101)
(-0.0561009 -7.27109e-22 0.0397124)
(-0.160448 0 0.0970625)
(-0.245055 1.04523e-19 0.143043)
(-0.310791 0 0.179479)
(-0.362051 -2.03507e-19 0.207976)
(-0.400739 1.99574e-19 0.22962)
(-0.4293 0 0.245619)
(-0.449266 1.90599e-19 0.256773)
(-0.46212 -1.86266e-19 0.263618)
(-0.469082 1.81675e-19 0.267016)
(-0.470861 -1.76942e-19 0.267638)
(-0.468222 0 0.266312)
(-0.462145 1.65558e-19 0.263003)
(-0.453476 0 0.257783)
(-0.442666 0 0.251374)
(-0.429975 0 0.244149)
(-0.415896 2.88911e-19 0.236214)
(-0.400883 0 0.22774)
(-0.38527 0 0.218905)
(-0.369244 0 0.209847)
(-0.352963 0 0.200665)
(-0.336662 0 0.191481)
(-0.320555 0 0.182395)
(-0.304749 4.40261e-19 0.173472)
(-0.289363 0 0.164789)
(-0.27446 8.10575e-19 0.156372)
(-0.260137 7.77199e-19 0.14828)
(-0.246432 3.72401e-19 0.140522)
(-0.233249 0 0.133048)
(-0.220571 0 0.125855)
(-0.208382 6.54194e-19 0.118933)
(-0.196632 -6.26037e-19 0.112258)
(-0.185411 5.98759e-19 0.105895)
(-0.174886 0 0.099941)
(-0.16528 -5.47227e-19 0.0945345)
(-0.156914 0 0.0898593)
(-0.150088 0 0.0860843)
(-0.145054 -4.76846e-19 0.0833488)
(-0.141944 0 0.081701)
(-0.140582 0 0.0810241)
(-0.140555 8.28755e-19 0.081058)
(-0.14103 0 0.0813229)
(-0.140547 0 0.0809581)
(-0.137114 3.37575e-23 0.0787161)
(-0.128067 6.85271e-19 0.0730768)
(-0.11055 -4.03957e-23 0.0624605)
(-0.0821234 0 0.0455545)
(-0.0419489 -1.18415e-18 0.0220655)
(0.00850832 -1.12597e-18 -0.007077)
(0.0644311 0 -0.0392687)
(0.120208 -2.02951e-18 -0.0712137)
(0.170587 -6.12587e-23 -0.0999664)
(0.214584 0 -0.125127)
(0.254985 8.61528e-19 -0.148365)
(0.296687 0 -0.172513)
(0.343146 0 -0.199427)
(0.393013 0 -0.228251)
(0.443495 0 -0.257293)
(0.486513 2.51869e-18 -0.28174)
(0.516295 -1.17105e-18 -0.298354)
(0.52319 0 -0.301443)
(0.503346 0 -0.28907)
(0.457561 9.35842e-19 -0.261779)
(0.390316 4.0038e-22 -0.222364)
(0.308824 2.67572e-22 -0.175157)
(0.233149 0 -0.132107)
(0.181266 0 -0.103028)
(0.146555 0 -0.0838311)
(0.124633 3.82478e-23 -0.0714687)
(0.10035 -1.20845e-18 -0.0561688)
(-0.0273792 1.12245e-18 0.021805)
(-0.33786 -1.03306e-18 0.20683)
(-0.864293 4.72401e-22 0.515192)
(-1.49885 -9.03049e-19 0.879538)
(-2.08971 0 1.21522)
(-2.20076 1.86286e-18 1.2667)
(-1.68236 0 0.946297)
(-0.524451 1.88741e-18 0.28532)
(-0.348898 0 0.161152)
(2.96699 -3.29347e-18 -1.78689)
(6.01677 -9.81884e-19 -3.45113)
(1.45121 0 -0.757481)
(-0.676126 0 0.39824)
(0.661533 -1.6403e-18 -0.390148)
(0.00343648 1.49171e-18 0.003094)
(0.348097 -3.1123e-18 -0.210972)
(0.768834 1.36862e-18 -0.448606)
(0.950622 -1.31469e-18 -0.553014)
(1.01255 0 -0.581095)
(0.205005 8.88619e-19 -0.0977888)
(-1.33254 0 0.799821)
(-2.92435 0 1.71733)
(-4.00462 -9.54744e-19 2.33063)
(-4.5307 0 2.6283)
(-4.58024 9.13375e-21 2.6491)
(-4.16613 2.19357e-18 2.40072)
(-3.2872 0 1.87969)
(-1.8501 0 1.04903)
(-1.00296 0 0.565085)
(-0.21349 2.66388e-18 0.111276)
(0.367398 -5.09498e-18 -0.219098)
(0.492964 4.71095e-18 -0.284383)
(0.384288 0 -0.221519)
(0.326272 -4.04757e-18 -0.183712)
(-0.191538 0 0.112741)
(0.136237 7.02776e-18 -0.081095)
(34.3359 3.33282e-20 -0.853093)
(29.7588 -8.9827e-21 -2.96032)
(23.1999 -4.63347e-21 -4.65887)
(17.0175 0 -5.01946)
(12.2485 -1.5423e-20 -4.48398)
(8.89646 5.86243e-22 -3.6637)
(6.56903 0 -2.8831)
(4.90544 3.57565e-20 -2.23186)
(3.67444 0 -1.70737)
(2.7377 4.30314e-20 -1.28664)
(2.01002 0 -0.947517)
(1.4357 0 -0.672974)
(0.977614 0 -0.449729)
(0.607761 0 -0.268055)
(0.312165 -9.94911e-20 -0.115582)
(0.0720704 0 0.00455537)
(-0.122206 0 0.103639)
(-0.277751 0 0.183326)
(-0.402332 9.63997e-20 0.247474)
(-0.500262 -5.98437e-22 0.298222)
(-0.576307 0 0.337728)
(-0.633956 -3.48483e-22 0.367603)
(-0.67611 0 0.389102)
(-0.705137 -1.71927e-19 0.403689)
(-0.722676 0 0.412629)
(-0.731331 0 0.416077)
(-0.732634 -1.57038e-19 0.415224)
(-0.72773 0 0.410695)
(-0.717327 0 0.403993)
(-0.70273 -2.8358e-19 0.395096)
(-0.684733 0 0.384646)
(-0.664206 0 0.372923)
(-0.641843 0 0.360265)
(-0.618112 0 0.346919)
(-0.593393 2.35085e-19 0.333089)
(-0.568145 0 0.319025)
(-0.542794 0 0.304929)
(-0.517591 -4.16809e-19 0.290929)
(-0.492796 0 0.277173)
(-0.468565 -7.67459e-19 0.263735)
(-0.445094 -7.27545e-23 0.250731)
(-0.422491 -3.5257e-19 0.238173)
(-0.400635 0 0.225999)
(-0.379522 0 0.21422)
(-0.359149 -3.09506e-19 0.202833)
(-0.339453 0 0.191817)
(-0.32059 -5.66401e-19 0.181301)
(-0.302852 0 0.171459)
(-0.286622 3.29483e-23 0.162536)
(-0.272445 0 0.154843)
(-0.26083 0 0.148662)
(-0.252209 0 0.144217)
(-0.24679 -4.30048e-19 0.141603)
(-0.244312 0 0.14055)
(-0.244076 0 0.140562)
(-0.244626 0 0.140841)
(-0.243503 0 0.139882)
(-0.237395 1.35693e-18 0.135428)
(-0.221715 0 0.125085)
(-0.19172 -3.38436e-23 0.106168)
(-0.143305 0 0.0765818)
(-0.0750366 5.58352e-19 0.0359878)
(0.0106419 1.06162e-18 -0.0140965)
(0.105996 0 -0.0689834)
(0.201517 1.91271e-18 -0.123228)
(0.288074 9.06305e-19 -0.171922)
(0.363458 0 -0.214405)
(0.431834 -8.11347e-19 -0.253353)
(0.501123 0 -0.293344)
(0.577218 0 -0.337276)
(0.658232 0 -0.383741)
(0.740003 0 -0.430027)
(0.809584 5.2568e-22 -0.468674)
(0.857857 1.10127e-18 -0.494571)
(0.869188 0 -0.498812)
(0.837895 0 -0.477185)
(0.764617 4.35084e-22 -0.431869)
(0.655948 -1.63614e-18 -0.367612)
(0.523484 -7.62893e-19 -0.291363)
(0.401064 0 -0.223318)
(0.318468 0 -0.178732)
(0.261553 0 -0.148211)
(0.217533 -2.4121e-18 -0.123177)
(0.157726 -2.63978e-22 -0.0826136)
(-0.0847614 -1.05294e-18 0.0721475)
(-0.633042 0 0.407065)
(-1.52302 -8.9355e-19 0.932497)
(-2.55741 8.46608e-19 1.52325)
(-3.48785 0 2.03282)
(-3.60436 0 2.05296)
(-2.76136 1.82074e-18 1.50707)
(-0.889832 0 0.456466)
(-0.544903 1.60748e-18 0.184666)
(4.27198 -2.86709e-21 -2.6962)
(9.78985 9.34397e-19 -5.55716)
(2.74668 -5.72345e-19 -1.32235)
(-0.908612 0 0.53842)
(1.06988 1.53506e-18 -0.63772)
(0.0777117 -1.3958e-18 -0.0342536)
(0.634521 2.91036e-18 -0.39938)
(1.30348 0 -0.767399)
(1.58611 -1.23077e-18 -0.922697)
(1.54868 0 -0.858338)
(0.0562873 -8.3092e-19 0.0636529)
(-2.55857 5.83876e-19 1.59691)
(-5.09268 0 3.0321)
(-6.66741 8.92448e-19 3.88653)
(-7.32363 0 4.22426)
(-7.27823 3.24159e-18 4.1699)
(-6.55495 -2.04983e-18 3.7145)
(-5.14295 0 2.86644)
(-2.82384 0 1.53799)
(-1.51348 0 0.809061)
(-0.235005 -1.20684e-21 0.0854959)
(0.673482 4.75911e-18 -0.413197)
(0.860436 -4.40003e-18 -0.495319)
(0.646181 0 -0.367629)
(0.514127 -3.7814e-18 -0.276003)
(-0.311922 0 0.185531)
(0.267433 -2.13157e-22 -0.165144)
(34.96 -1.74794e-20 -1.04556)
(33.6564 -4.95133e-21 -2.29487)
(29.8314 7.66857e-21 -4.07074)
(24.7039 -1.53727e-20 -5.20271)
(19.5613 -2.14933e-20 -5.39987)
(15.1582 -4.48995e-20 -4.9523)
(11.6808 0 -4.2369)
(9.01053 0 -3.4875)
(6.9579 0 -2.80398)
(5.3612 -4.07608e-20 -2.21404)
(4.10242 0 -1.71603)
(3.09798 0 -1.2992)
(2.28908 0 -0.951319)
(1.63162 0 -0.661875)
(1.0974 0 -0.418443)
(0.661014 -9.32037e-20 -0.218942)
(0.304278 9.27347e-20 -0.0520948)
(0.0132552 0 0.0842309)
(-0.223168 0 0.196264)
(-0.413679 -1.78834e-19 0.286822)
(-0.565843 1.74591e-19 0.359505)
(-0.685591 -1.7096e-19 0.41669)
(-0.777629 1.66666e-19 0.460926)
(-0.84642 1.62803e-19 0.494073)
(-0.895578 -1.57812e-19 0.517788)
(-0.928783 1.52932e-19 0.532614)
(-0.947945 0 0.540505)
(-0.956085 -1.43491e-19 0.541228)
(-0.954957 0 0.536891)
(-0.945417 2.68396e-19 0.529832)
(-0.929515 0 0.519569)
(-0.908565 0 0.506993)
(-0.883744 0 0.492586)
(-0.855924 -2.31097e-19 0.476737)
(-0.825804 -2.22381e-19 0.459793)
(-0.794146 0 0.44217)
(-0.76166 0 0.424191)
(-0.728806 3.94143e-19 0.406075)
(-0.696035 0 0.38806)
(-0.66365 9.23603e-23 0.370283)
(-0.631978 -3.47707e-19 0.352934)
(-0.601236 0 0.336044)
(-0.571319 0 0.319555)
(-0.542257 0 0.30351)
(-0.514084 0 0.287923)
(-0.486749 -5.59281e-19 0.272791)
(-0.460481 0 0.258322)
(-0.435705 5.11219e-19 0.244778)
(-0.412964 4.88512e-19 0.232517)
(-0.393027 0 0.221979)
(-0.376621 0 0.213557)
(-0.364352 0 0.207551)
(-0.356529 4.05731e-19 0.204051)
(-0.352783 -3.87017e-19 0.202664)
(-0.352122 -7.38169e-19 0.202632)
(-0.352488 0 0.202756)
(-0.350442 -6.70928e-19 0.200843)
(-0.341298 -1.27896e-18 0.19374)
(-0.318703 0 0.177996)
(-0.276046 -1.16093e-18 0.149961)
(-0.207631 0 0.106859)
(-0.11144 -5.25829e-19 0.0484246)
(0.00934472 -9.99627e-19 -0.0228981)
(0.144168 0 -0.100607)
(0.279786 -9.00194e-19 -0.177132)
(0.403098 -8.52999e-19 -0.245669)
(0.510261 0 -0.305314)
(0.606306 0 -0.359642)
(0.7018 0 -0.414826)
(0.805053 6.79182e-19 -0.474672)
(0.913988 6.3828e-19 -0.53727)
(1.02359 0 -0.599027)
(1.11696 -1.1139e-18 -0.649952)
(1.18218 -1.03595e-18 -0.683395)
(1.19827 0 -0.687837)
(1.15766 0 -0.657328)
(1.06078 -8.26143e-19 -0.595493)
(0.915936 -3.54007e-22 -0.508336)
(0.738109 0 -0.405538)
(0.574238 0 -0.315625)
(0.465357 0 -0.2583)
(0.387462 0 -0.217219)
(0.314934 -4.30488e-23 -0.175558)
(0.202085 1.06337e-18 -0.0979473)
(-0.178792 0 0.151535)
(-0.983147 0 0.6529)
(-2.23002 0 1.39697)
(-3.62255 7.92521e-19 2.19077)
(-4.81768 0 2.8267)
(-4.86951 1.62429e-18 2.76288)
(-3.72799 -1.70505e-18 1.98679)
(-1.23175 1.65451e-18 0.589974)
(-0.58045 -1.50487e-18 0.0818267)
(4.62651 2.89825e-18 -3.17037)
(13.1585 -8.74466e-19 -7.47869)
(4.27636 5.35545e-19 -1.92565)
(-0.93909 0 0.602029)
(1.44134 0 -0.874843)
(0.210371 -1.30366e-18 -0.0982261)
(0.95271 -1.36064e-18 -0.613259)
(1.83365 -1.19815e-18 -1.09158)
(2.18094 -6.23728e-22 -1.271)
(1.92411 0 -1.04029)
(-0.341645 0 0.382359)
(-4.00098 -5.45748e-19 2.53792)
(-7.29573 0 4.38766)
(-9.13657 -8.27391e-19 5.35458)
(-9.75406 0 5.64478)
(-9.54466 -8.90025e-21 5.47087)
(-8.50686 0 4.80951)
(-6.62849 -2.21743e-18 3.65561)
(-3.54089 2.35316e-18 1.88501)
(-1.89086 2.38195e-18 0.979479)
(-0.166959 -1.37373e-21 0.00603421)
(1.01409 0 -0.630454)
(1.24335 4.10907e-18 -0.713487)
(0.901404 3.86313e-18 -0.508326)
(0.675737 3.53094e-18 -0.351451)
(-0.411081 0 0.247151)
(0.432074 -2.48586e-22 -0.270659)
(34.6115 0 -1.53071)
(34.7313 -3.60899e-21 -2.08074)
(33.234 0 -3.39819)
(30.109 1.45242e-20 -4.71506)
(25.9955 3.40937e-20 -5.48656)
(21.6536 2.18414e-20 -5.61087)
(17.6318 0 -5.25528)
(14.1767 0 -4.64475)
(11.3181 -3.51228e-20 -3.95147)
(8.9881 -3.79241e-20 -3.27331)
(7.09461 4.00943e-20 -2.65403)
(5.55188 8.33955e-20 -2.1076)
(4.28982 8.56239e-20 -1.63398)
(3.25208 0 -1.22827)
(2.39782 0 -0.880579)
(1.69285 1.75862e-19 -0.587843)
(1.11026 -3.48805e-22 -0.340165)
(0.629738 0 -0.132975)
(0.234187 -8.54626e-20 0.0401087)
(-0.0896981 -1.68052e-19 0.182948)
(-0.353142 -1.65063e-19 0.300014)
(-0.565551 0 0.394565)
(-0.734284 -1.57554e-19 0.469959)
(-0.866185 1.53186e-19 0.528722)
(-0.966607 1.49165e-19 0.573224)
(-1.04028 -2.73303e-22 0.606015)
(-1.09187 0 0.628652)
(-1.12517 1.03398e-22 0.641603)
(-1.14273 0 0.645758)
(-1.14781 2.53169e-19 0.642616)
(-1.1416 0 0.636044)
(-1.12668 0 0.625442)
(-1.10487 0 0.611771)
(-1.07756 2.18273e-19 0.59561)
(-1.04591 0 0.577462)
(-1.01108 0 0.557942)
(-0.974151 0 0.537523)
(-0.935883 0 0.516538)
(-0.896983 -3.5682e-19 0.495338)
(-0.857959 6.84485e-19 0.474142)
(-0.819316 0 0.453237)
(-0.781433 3.14265e-19 0.432684)
(-0.744264 0 0.412443)
(-0.707905 0 0.392608)
(-0.672461 0 0.373225)
(-0.637913 6.45437e-23 0.354327)
(-0.604579 0 0.336217)
(-0.57302 -4.82027e-19 0.319255)
(-0.543949 0 0.303919)
(-0.518355 0 0.290781)
(-0.497183 -4.19832e-19 0.280336)
(-0.481222 0 0.272948)
(-0.470872 0 0.268695)
(-0.465668 1.18469e-23 0.267034)
(-0.464335 6.95267e-19 0.266893)
(-0.464211 0 0.26665)
(-0.460898 2.63483e-23 0.26339)
(-0.448377 1.20397e-18 0.253056)
(-0.418588 0 0.231198)
(-0.363169 5.46251e-19 0.193261)
(-0.274922 0 0.13593)
(-0.151275 4.94674e-19 0.0591406)
(0.00398945 9.40232e-19 -0.0335944)
(0.177798 0 -0.133981)
(0.353406 8.46462e-19 -0.232419)
(0.513723 -5.54657e-23 -0.320336)
(0.652876 0 -0.39663)
(0.776197 0 -0.46566)
(0.896448 0 -0.535)
(1.02435 -1.27618e-18 -0.609173)
(1.15799 2.0541e-22 -0.685809)
(1.29209 0 -0.760584)
(1.40655 1.04696e-18 -0.821484)
(1.4873 1.94556e-18 -0.860671)
(1.50875 0 -0.864496)
(1.4616 0 -0.825537)
(1.34576 0 -0.748908)
(1.17052 -3.36762e-22 -0.641744)
(0.953289 0 -0.516064)
(0.753148 0 -0.408355)
(0.621891 0 -0.341536)
(0.523712 0 -0.290272)
(0.415542 1.06003e-18 -0.226774)
(0.231206 9.96981e-19 -0.0972581)
(-0.312173 0 0.267456)
(-1.38899 0 0.951042)
(-2.98047 0 1.90822)
(-4.68071 -4.53732e-22 2.87191)
(-6.05836 0 3.56969)
(-5.9758 -1.52058e-18 3.36014)
(-4.564 0 2.35904)
(-1.54312 -1.54843e-18 0.677315)
(-0.367983 0 -0.175112)
(3.9019 -1.35713e-18 -3.11031)
(16.0864 0 -9.17376)
(6.00431 0 -2.54588)
(-0.775748 0 0.57321)
(1.78524 0 -1.09683)
(0.395889 1.21898e-18 -0.192744)
(1.29544 0 -0.852557)
(2.35478 1.12008e-18 -1.41548)
(2.71976 1.07627e-18 -1.5809)
(2.13521 0 -1.09158)
(-0.968513 0 0.889551)
(-5.60061 0 3.62082)
(-9.44548 0 5.73487)
(-11.3388 3.82018e-21 6.66231)
(-11.8041 0 6.81346)
(-11.3982 -2.79775e-18 6.48529)
(-10.0616 0 5.61818)
(-7.77977 4.13634e-18 4.19395)
(-4.0443 -2.19781e-18 2.06404)
(-2.17489 -2.22455e-18 1.06543)
(-0.0367855 -2.16816e-18 -0.13259)
(1.37936 0 -0.870355)
(1.63737 0 -0.935773)
(1.15089 -7.21436e-18 -0.639311)
(0.822248 3.29809e-18 -0.40717)
(-0.480909 3.0471e-18 0.29153)
(0.628981 -2.85948e-18 -0.401228)
(34.1614 0 -1.99005)
(34.5685 3.34254e-20 -2.20671)
(34.3674 0 -2.9902)
(33.0083 0 -4.08092)
(30.47 0 -5.05437)
(27.1196 0 -5.62607)
(23.4322 0 -5.73087)
(19.7973 3.04568e-20 -5.45606)
(16.4567 3.31412e-20 -4.94224)
(13.5189 7.14552e-20 -4.31595)
(11.0004 -7.54725e-20 -3.66492)
(8.87011 -7.87135e-20 -3.03995)
(7.07951 -8.08216e-20 -2.46577)
(5.5777 0 -1.95251)
(4.32035 0 -1.49936)
(3.26844 -1.65284e-19 -1.10655)
(2.38874 -1.64577e-19 -0.767522)
(1.65452 0 -0.478015)
(1.04301 8.06737e-20 -0.23217)
(0.535999 1.58631e-19 -0.0250274)
(0.117421 0 0.147682)
(-0.225539 1.51733e-19 0.290404)
(-0.503782 0 0.406869)
(-0.72707 -3.33802e-22 0.500563)
(-0.903327 -1.40127e-19 0.574406)
(-1.03972 -1.97934e-22 0.631041)
(-1.14225 0 0.673004)
(-1.21572 1.27849e-19 0.703332)
(-1.26547 -2.47099e-19 0.72288)
(-1.29533 -4.77435e-19 0.731368)
(-1.30908 -2.30115e-19 0.730257)
(-1.30852 0 0.72493)
(-1.29665 -2.13632e-19 0.71494)
(-1.27577 0 0.700949)
(-1.24756 0 0.683782)
(-1.21372 0 0.664281)
(-1.17585 0 0.643091)
(-1.13508 0 0.620685)
(-1.09247 1.04435e-22 0.597553)
(-1.0488 -3.22545e-19 0.574019)
(-1.00483 0 0.550487)
(-0.961141 -5.92242e-19 0.527061)
(-0.917823 0 0.503741)
(-0.875069 0 0.48069)
(-0.833091 0 0.458002)
(-0.791938 4.96799e-19 0.435766)
(-0.752024 0 0.414396)
(-0.714064 0 0.394362)
(-0.678941 0 0.376272)
(-0.647865 0 0.360827)
(-0.622 7.90368e-19 0.348622)
(-0.602316 0 0.340071)
(-0.589312 0 0.335211)
(-0.58244 3.43033e-19 0.333329)
(-0.580147 0 0.332999)
(-0.579171 0 0.332147)
(-0.574205 1.18821e-18 0.327102)
(-0.557955 -5.66073e-19 0.312905)
(-0.52076 0 0.284157)
(-0.452636 0 0.235521)
(-0.345003 0 0.163311)
(-0.194758 -4.64844e-19 0.0678323)
(-0.00616346 0 -0.0462541)
(0.205565 0 -0.168871)
(0.4205 -1.59026e-18 -0.288543)
(0.617651 1.50639e-18 -0.3951)
(0.788731 0 -0.487319)
(0.938773 0 -0.570224)
(1.08219 0 -0.652592)
(1.23204 5.98973e-19 -0.739493)
(1.38695 -5.62751e-19 -0.828168)
(1.54194 -1.05407e-18 -0.913751)
(1.67462 -9.82167e-19 -0.982593)
(1.76945 -9.12764e-19 -1.02605)
(1.79719 8.47287e-19 -1.02859)
(1.74661 0 -0.982125)
(1.61717 0 -0.892564)
(1.41824 6.7596e-19 -0.768214)
(1.16842 0 -0.6232)
(0.937466 0 -0.501519)
(0.787424 0 -0.427934)
(0.668996 0 -0.366095)
(0.517122 0 -0.274277)
(0.241119 -1.86767e-18 -0.0768225)
(-0.489116 0 0.424243)
(-1.85102 -7.99319e-19 1.30338)
(-3.76551 0 2.46218)
(-5.71211 -5.41595e-22 3.55415)
(-7.17882 1.36905e-18 4.24642)
(-6.89392 0 3.84019)
(-5.25785 0 2.6239)
(-1.83569 0 0.717811)
(0.100018 0 -0.563197)
(2.26937 1.27195e-18 -2.61792)
(18.5318 0 -10.6724)
(7.8825 0 -3.15618)
(-0.411729 0 0.475501)
(2.10763 0 -1.30804)
(0.631023 0 -0.313222)
(1.65682 0 -1.1122)
(2.85977 0 -1.73489)
(3.18364 0 -1.84024)
(2.16334 -8.72863e-19 -1.01179)
(-1.81772 0 1.56487)
(-7.30304 0 4.79666)
(-11.4488 0 7.01225)
(-13.1963 7.18569e-19 7.77453)
(-13.4321 0 7.7501)
(-12.8197 1.30274e-18 7.26852)
(-11.2146 0 6.20571)
(-8.60114 -6.38517e-21 4.53533)
(-4.36128 0 2.12721)
(-2.38559 2.07266e-18 1.10181)
(0.136318 0 -0.307024)
(1.76119 0 -1.12526)
(2.03839 0 -1.15857)
(1.3938 3.36784e-18 -0.761675)
(0.959873 -6.1587e-18 -0.452304)
(-0.513753 -5.68906e-18 0.314024)
(0.856894 -2.66883e-18 -0.554709)
(33.8331 0 -2.28237)
(34.1279 -3.57786e-20 -2.41717)
(34.3602 0 -2.85148)
(34.04 0 -3.6071)
(32.8579 -2.76108e-20 -4.48467)
(30.8072 -2.71102e-20 -5.23189)
(28.0834 2.79638e-20 -5.68096)
(24.9616 -8.7994e-20 -5.78306)
(21.7129 0 -5.57933)
(18.5533 2.15442e-23 -5.15513)
(15.6232 3.54613e-20 -4.60126)
(12.9929 0 -3.99208)
(10.6818 0 -3.37904)
(8.67843 0 -2.79444)
(6.9576 0 -2.25396)
(5.48859 3.17403e-22 -1.76723)
(4.23983 2.83381e-22 -1.33514)
(3.18253 7.65033e-20 -0.956898)
(2.29058 7.55642e-20 -0.629016)
(1.5415 0 -0.347529)
(0.915327 -1.45877e-19 -0.108366)
(0.395245 -1.43012e-19 0.0932679)
(-0.0336342 0 0.26096)
(-0.384153 -2.77574e-22 0.399)
(-0.66738 2.26201e-22 0.510796)
(-0.892974 -1.28112e-19 0.59987)
(-1.06945 0 0.669188)
(-1.20408 0 0.721439)
(-1.30299 2.32819e-19 0.759474)
(-1.37208 2.56128e-22 0.786218)
(-1.41689 4.33369e-19 0.799619)
(-1.44133 0 0.801882)
(-1.44866 4.02343e-19 0.79832)
(-1.4417 0 0.789518)
(-1.4233 0 0.775852)
(-1.3958 -1.78896e-19 0.758604)
(-1.36144 0 0.7386)
(-1.3219 -3.29868e-19 0.716479)
(-1.27868 1.02275e-22 0.692895)
(-1.23295 3.03471e-19 0.668301)
(-1.18576 0 0.643248)
(-1.13803 6.2775e-23 0.617899)
(-1.09001 0 0.592311)
(-1.04205 0 0.56674)
(-0.99452 0 0.541351)
(-0.947576 0 0.5163)
(-0.901746 0 0.492136)
(-0.857911 4.26842e-19 0.46945)
(-0.817129 0 0.448988)
(-0.78083 0 0.431581)
(-0.750403 -3.71577e-19 0.417917)
(-0.726998 0 0.408442)
(-0.711221 -3.38127e-19 0.403132)
(-0.702438 -3.22407e-19 0.401096)
(-0.698863 6.1467e-19 0.400464)
(-0.696635 0 0.398721)
(-0.689606 -5.58195e-19 0.391404)
(-0.669277 -5.31738e-19 0.372695)
(-0.62454 0 0.33629)
(-0.54395 0 0.276204)
(-0.417698 0 0.188575)
(-0.242177 4.36462e-19 0.0742553)
(-0.0219685 0 -0.0608467)
(0.225979 0 -0.204936)
(0.478977 7.46282e-19 -0.344846)
(0.712336 -1.41372e-18 -0.469012)
(0.915034 0 -0.576186)
(1.09116 0 -0.67195)
(1.25618 0 -0.76608)
(1.42534 0 -0.864009)
(1.59814 -5.28123e-19 -0.962632)
(1.77053 9.88301e-19 -1.05672)
(1.91875 0 -1.1314)
(2.02649 0 -1.17759)
(2.06173 -7.94078e-19 -1.17828)
(2.0112 0 -1.12544)
(1.87382 -6.82503e-19 -1.02526)
(1.65827 6.33884e-19 -0.886995)
(1.38301 0 -0.726509)
(1.12655 0 -0.594678)
(0.9606 0 -0.516567)
(0.821069 0 -0.442791)
(0.616462 0 -0.314707)
(0.227732 8.74262e-19 -0.0315473)
(-0.712584 0 0.62695)
(-2.36639 1.49661e-18 1.71068)
(-4.57176 0 3.05117)
(-6.69327 -6.48921e-22 4.22124)
(-8.15407 -3.06847e-21 4.83563)
(-7.61731 0 4.18898)
(-5.82302 1.38617e-18 2.78941)
(-2.13848 0 0.721124)
(0.730349 0 -1.00711)
(0.296467 -2.37834e-18 -2.0054)
(20.4984 0 -11.9623)
(9.84785 0 -3.73116)
(0.14066 0 0.315214)
(2.41979 0 -1.50915)
(0.908711 0 -0.458098)
(2.02934 0 -1.38792)
(3.3411 0 -2.04334)
(3.55654 0 -2.03397)
(2.00774 8.15462e-19 -0.783881)
(-2.85721 0 2.40342)
(-9.0329 0 6.02498)
(-13.2168 0 8.16091)
(-14.6738 -6.62545e-19 8.65718)
(-14.6657 -8.69137e-19 8.43669)
(-13.8669 -1.19959e-18 7.79844)
(-12.0274 1.52515e-18 6.55995)
(-9.1478 -6.35595e-21 4.68132)
(-4.55814 -1.90515e-18 2.09452)
(-2.55659 -3.86801e-18 1.09508)
(0.319034 0 -0.506848)
(2.14833 3.61509e-18 -1.39051)
(2.44243 3.34424e-18 -1.37905)
(1.63262 0 -0.874256)
(1.09933 2.87487e-18 -0.489467)
(-0.503961 2.65521e-18 0.310353)
(1.11066 2.49115e-18 -0.72973)
(33.5909 0 -2.44184)
(33.7463 1.77098e-20 -2.58542)
(33.9922 0 -2.86249)
(34.0748 0 -3.35483)
(33.7105 2.59985e-20 -4.01946)
(32.7283 2.55218e-20 -4.72063)
(31.0949 -2.63207e-20 -5.30887)
(28.8899 8.5021e-20 -5.67753)
(26.2656 0 -5.78366)
(23.403 3.20591e-20 -5.64111)
(20.4762 -6.6427e-20 -5.29907)
(17.6275 0 -4.81983)
(14.9563 7.05268e-20 -4.26254)
(12.52 0 -3.67595)
(10.3423 7.23882e-20 -3.09399)
(8.42476 7.28671e-20 -2.54067)
(6.75427 7.26061e-20 -2.02896)
(5.31136 -7.20151e-20 -1.56593)
(4.07354 -1.42053e-19 -1.15363)
(3.01842 0 -0.791434)
(2.12441 1.37319e-19 -0.477193)
(1.37177 0 -0.207333)
(0.742571 0 0.0216261)
(0.220564 -1.27696e-19 0.213819)
(-0.2085 2.48001e-19 0.373041)
(-0.55732 0 0.503137)
(-0.837213 0 0.607668)
(-1.05797 0 0.69001)
(-1.22841 -2.18629e-19 0.752954)
(-1.3561 2.11289e-19 0.799239)
(-1.44741 -1.92115e-22 0.833349)
(-1.51004 1.96288e-19 0.851798)
(-1.54723 -3.78311e-19 0.858853)
(-1.56422 1.82007e-19 0.857604)
(-1.5637 -1.75027e-19 0.850556)
(-1.54939 7.91123e-23 0.838082)
(-1.52428 0 0.82152)
(-1.49075 3.10244e-19 0.801661)
(-1.45091 2.97629e-19 0.779349)
(-1.40641 -2.85372e-19 0.755185)
(-1.35875 0 0.729908)
(-1.30922 2.6196e-19 0.703757)
(-1.25837 2.50763e-19 0.676863)
(-1.20675 2.39997e-19 0.649603)
(-1.15496 2.29597e-19 0.622233)
(-1.10329 0 0.594995)
(-1.05242 0 0.568594)
(-1.0034 -4.25902e-23 0.543755)
(-0.957493 0 0.521369)
(-0.916336 0 0.5024)
(-0.881545 -3.49009e-19 0.487619)
(-0.854459 3.32962e-19 0.477491)
(-0.835791 3.17561e-19 0.4719)
(-0.824865 1.1924e-23 0.469739)
(-0.819642 -2.43065e-23 0.468712)
(-0.815724 0 0.465776)
(-0.806211 0 0.455676)
(-0.7815 9.98194e-19 0.431787)
(-0.729205 0 0.386982)
(-0.636627 0 0.314786)
(-0.49289 -4.30567e-19 0.211358)
(-0.293917 0 0.0782717)
(-0.0444186 0 -0.0772251)
(0.23738 7.38316e-19 -0.241716)
(0.526545 -6.99956e-19 -0.400553)
(0.795019 1.32578e-18 -0.541012)
(1.02877 0 -0.661946)
(1.23034 -5.92745e-19 -0.769401)
(1.4155 0 -0.873963)
(1.60152 0 -0.981235)
(1.78903 9.90061e-19 -1.08781)
(1.97552 0 -1.18829)
(2.13674 0 -1.26697)
(2.25635 0 -1.31471)
(2.30037 0 -1.31341)
(2.25367 0 -1.25538)
(2.11432 6.39118e-19 -1.14681)
(1.88951 3.18135e-22 -0.997825)
(1.59616 -5.52964e-19 -0.825609)
(1.31923 5.17502e-19 -0.687124)
(1.13929 0 -0.605996)
(0.976708 0 -0.517737)
(0.709379 0 -0.343827)
(0.18655 0 0.0441174)
(-0.984437 0 0.879901)
(-2.92892 5.13393e-22 2.17131)
(-5.38144 0 3.66417)
(-7.59868 -6.06356e-19 4.85487)
(-8.96363 -3.29905e-21 5.32222)
(-8.15212 0 4.41455)
(-6.29756 -1.29607e-18 2.8821)
(-2.48834 0 0.703584)
(1.37329 1.1458e-18 -1.41846)
(-1.24178 1.44504e-21 -1.70676)
(21.9078 0 -13.0971)
(11.8406 0 -4.25113)
(0.868023 0 0.113172)
(2.73321 0 -1.7031)
(1.22263 9.90837e-19 -0.623073)
(2.40496 0 -1.67437)
(3.78977 0 -2.33348)
(3.82431 8.80147e-19 -2.14588)
(1.66705 0 -0.406176)
(-4.05075 -6.06604e-19 3.38174)
(-10.7131 4.24653e-19 7.25198)
(-14.6772 0 9.13146)
(-15.7687 1.2324e-18 9.31105)
(-15.5364 7.97486e-21 8.91291)
(-14.5724 2.23115e-18 8.13827)
(-12.5412 -1.42406e-18 6.73881)
(-9.46471 -1.67002e-18 4.68035)
(-4.69416 1.77872e-18 2.01551)
(-2.70411 1.80444e-18 1.06307)
(0.477165 1.75978e-18 -0.709764)
(2.52829 -3.37476e-18 -1.65929)
(2.84589 -3.1218e-18 -1.5945)
(1.86995 -2.93564e-18 -0.978736)
(1.24877 -2.68476e-18 -0.525433)
(-0.447188 0 0.277706)
(1.38394 0 -0.922318)
(33.3765 0 -2.53387)
(33.4518 1.91408e-20 -2.69071)
(33.6155 0 -2.91048)
(33.7671 0 -3.24824)
(33.7464 0 -3.71973)
(33.3967 0 -4.28145)
(32.6024 2.90011e-20 -4.84701)
(31.3119 -2.7469e-20 -5.32164)
(29.5402 2.95226e-20 -5.63256)
(27.3589 -5.98877e-20 -5.7432)
(24.8774 6.24443e-20 -5.65212)
(22.2225 0 -5.38415)
(19.5193 -6.62984e-20 -4.97873)
(16.8751 0 -4.48068)
(14.3716 -6.8053e-20 -3.93117)
(12.0621 -6.79047e-20 -3.36567)
(9.97408 0 -2.8104)
(8.11613 0 -2.28375)
(6.48345 6.66819e-20 -1.79703)
(5.06359 0 -1.35624)
(3.83979 0 -0.963811)
(2.7936 -1.25847e-19 -0.619247)
(1.90635 0 -0.320766)
(1.15981 0 -0.0653079)
(0.537141 -1.16505e-19 0.150737)
(0.0226332 0 0.331017)
(-0.397915 0 0.479441)
(-0.737282 0 0.599749)
(-1.00702 4.10822e-19 0.695236)
(-1.2173 0 0.769152)
(-1.37733 -1.40489e-22 0.824233)
(-1.49404 -1.34019e-22 0.865137)
(-1.57605 1.77725e-19 0.89045)
(-1.62845 -1.71053e-19 0.902673)
(-1.65691 3.28886e-19 0.903972)
(-1.66448 1.58058e-19 0.899543)
(-1.65595 0 0.889043)
(-1.63459 0 0.873719)
(-1.60324 2.79437e-19 0.854671)
(-1.56423 -2.67929e-19 0.832669)
(-1.51959 0 0.808676)
(-1.47119 0 0.783033)
(-1.4199 -5.10505e-23 0.75596)
(-1.36662 -2.25395e-19 0.727989)
(-1.31222 -2.15609e-19 0.699489)
(-1.2572 -4.12263e-19 0.670805)
(-1.20241 0 0.64282)
(-1.14913 -4.17705e-23 0.616408)
(-1.09878 0 0.592615)
(-1.05325 0 0.572537)
(-1.01439 3.27573e-19 0.557023)
(-0.983707 -3.12482e-19 0.546538)
(-0.962061 0 0.540849)
(-0.948682 2.84076e-19 0.538706)
(-0.941482 -2.45795e-23 0.537073)
(-0.935441 0 0.532619)
(-0.923044 0 0.519219)
(-0.893722 -9.36176e-19 0.489505)
(-0.834027 0 0.435628)
(-0.730223 0 0.350797)
(-0.570554 8.07399e-19 0.231396)
(-0.350491 0 0.0798799)
(-0.0746555 0 -0.0950996)
(0.237952 -1.3841e-18 -0.278616)
(0.560749 6.5602e-19 -0.454779)
(0.86276 -6.21239e-19 -0.60996)
(1.12677 0 -0.743258)
(1.35315 5.55354e-19 -0.861127)
(1.55724 0 -0.974779)
(1.75804 -4.93819e-19 -1.08981)
(1.95749 -4.63751e-19 -1.20252)
(2.15518 0 -1.30748)
(2.32723 0 -1.38855)
(2.45795 7.53076e-19 -1.43683)
(2.51227 6.98219e-19 -1.43347)
(2.47314 0 -1.37158)
(2.33767 0 -1.25697)
(2.11083 -1.11184e-18 -1.10037)
(1.80664 5.17459e-19 -0.919922)
(1.51372 -9.68531e-19 -0.777795)
(1.32056 0 -0.694224)
(1.13172 0 -0.587559)
(0.790811 0 -0.35656)
(0.113031 0 0.156077)
(-1.30483 0 1.18646)
(-3.52884 4.36674e-22 2.68094)
(-6.17325 0 4.28708)
(-8.40394 0 5.43654)
(-9.59909 -3.54123e-21 5.69698)
(-8.53008 0 4.53447)
(-6.74171 -1.20519e-18 2.94232)
(-2.91286 0 0.678972)
(1.88873 -1.07083e-18 -1.73892)