/*--------------------------------*- C++ -*----------------------------------*\
| =========                 |                                                 |
| \\      /  F ield         | OpenFOAM: The Open Source CFD Toolbox           |
|  \\    /   O peration     | Version:  2412                                  |
|   \\  /    A nd           | Website:  www.openfoam.com                      |
|    \\/     M anipulation  |                                                 |
\*---------------------------------------------------------------------------*/
FoamFile
{
    version     2.0;
    format      ascii;
    arch        "LSB;label=32;scalar=64";
    class       surfaceScalarField;
    location    "1.665";
    object      ddtCorrDdt0(phi);
}
// * * * * * * * * * * * * * * * * * * * * * * * * * * * * * * * * * * * * * //

dimensions      [0 3 -2 0 0 0 0];

oriented        oriented;

internalField   nonuniform List<scalar> 
24930
(
-0.000488099
-0.00127997
3.89306e-05
0.000138006
-0.000252014
0.000267495
4.41121e-06
0.000254568
2.9231e-05
0.000234293
2.52394e-05
0.000215656
1.71215e-05
0.000200989
9.42846e-06
0.000181101
6.42035e-06
0.000157124
4.88848e-06
0.000127687
5.45497e-06
9.4527e-05
5.80733e-06
6.04903e-05
5.37916e-06
2.84211e-05
4.19958e-06
6.55123e-07
2.48392e-06
-2.13548e-05
6.15314e-07
-3.71324e-05
-9.74354e-07
-4.68999e-05
-2.03834e-06
-5.11664e-05
-2.61631e-06
-5.04565e-05
-2.93645e-06
-4.52612e-05
-3.24825e-06
-3.61535e-05
-3.70034e-06
-2.3949e-05
-4.30178e-06
-9.78017e-06
-4.95806e-06
4.98851e-06
-5.53762e-06
1.89807e-05
-5.92902e-06
3.10829e-05
-6.08244e-06
4.06573e-05
-6.0245e-06
4.75959e-05
-5.83455e-06
5.22041e-05
-5.59687e-06
5.50078e-05
-5.37435e-06
5.65781e-05
-5.20883e-06
5.74201e-05
-5.13733e-06
5.79018e-05
-5.19321e-06
5.82296e-05
-5.41015e-06
5.84319e-05
-5.80234e-06
5.83762e-05
-6.3541e-06
5.77861e-05
-6.98809e-06
5.63331e-05
-7.5906e-06
5.37403e-05
-8.0237e-06
4.99568e-05
-8.20882e-06
4.52355e-05
-8.13562e-06
4.02058e-05
-7.93768e-06
3.57467e-05
-7.83054e-06
3.28728e-05
-8.13925e-06
3.2409e-05
-9.12502e-06
3.48509e-05
-1.10039e-05
4.01088e-05
-1.37472e-05
4.76061e-05
-1.71876e-05
5.62011e-05
-2.0826e-05
6.45415e-05
-2.40915e-05
7.11114e-05
-2.61962e-05
7.47264e-05
-2.655e-05
7.44938e-05
-2.45743e-05
7.02547e-05
-2.01874e-05
6.23122e-05
-1.34876e-05
5.17273e-05
-5.19595e-06
3.9776e-05
3.86683e-06
2.81458e-05
1.24208e-05
1.82667e-05
1.9396e-05
1.15098e-05
2.36248e-05
8.51673e-06
2.45388e-05
9.49307e-06
2.18055e-05
1.38021e-05
1.58443e-05
2.04127e-05
7.40132e-06
2.78442e-05
-2.17865e-06
3.44424e-05
-1.12325e-05
3.86984e-05
-1.79958e-05
3.91278e-05
-2.06027e-05
3.53153e-05
-1.8288e-05
2.70427e-05
-1.04379e-05
1.6015e-05
1.15072e-06
3.20928e-06
1.55458e-05
-8.45756e-06
2.88315e-05
-1.87858e-05
4.04022e-05
-2.49916e-05
4.6039e-05
-2.87129e-05
4.78014e-05
-2.70495e-05
4.21981e-05
-2.36882e-05
3.45193e-05
-1.53826e-05
2.06829e-05
-8.44251e-06
8.75889e-06
1.6582e-06
-7.28992e-06
6.7216e-06
-1.63776e-05
1.48012e-05
-2.8514e-05
1.63964e-05
-2.97365e-05
2.33182e-05
-3.61361e-05
2.33533e-05
-3.18952e-05
3.07465e-05
-3.7843e-05
2.65591e-05
-2.89936e-05
3.29534e-05
-3.01774e-05
2.76294e-05
-1.15963e-05
2.45082e-05
2.27304e-06
4.88961e-05
-1.38379e-05
5.65783e-06
3.9493e-05
7.61718e-05
-3.60585e-05
5.06737e-05
9.70024e-06
0.00010813
-0.000545596
0.000224575
-0.000182416
-0.000453969
0.000461672
0.000362642
-0.000763298
0.000353251
-1.97335e-05
0.000284879
-3.94724e-05
-0.00176942
0.00172008
0.00144098
-0.0020902
-0.000284154
0.000254757
-0.00242662
0.00268941
0.00752222
-0.00589592
-0.0102112
0.0142269
-0.000804329
-0.00459059
0.00149731
-0.00425804
-0.0114729
0.0125857
0.0117361
-0.0176181
-0.0265193
0.0325036
-0.0112055
-0.00682104
0.0398851
-0.0527611
-0.0176241
0.0450549
0.00904816
-0.0223327
0.0204982
-0.0119453
-0.0103786
0.0263268
0.0108968
-0.0195737
-0.0143908
-0.000607011
-0.000972724
0.000487785
-0.000142151
-0.000434957
0.000111434
-0.0001309
0.000230372
-3.26811e-05
0.000290015
1.90202e-06
0.000322971
-5.06656e-07
0.000341476
-1.35898e-05
0.00035014
-1.65578e-05
0.000340574
-1.14619e-05
0.000313024
-4.68662e-06
0.000272431
-1.68592e-06
0.000225115
-3.60552e-06
0.000176784
-9.26264e-06
0.000131665
-1.66389e-05
9.20383e-05
-2.33085e-05
5.84321e-05
-2.72382e-05
3.05401e-05
-2.77096e-05
8.17276e-06
-2.53725e-05
-8.37084e-06
-2.14921e-05
-1.85196e-05
-1.71778e-05
-2.19143e-05
-1.30216e-05
-1.8844e-05
-9.10767e-06
-1.04196e-05
-5.235e-06
1.59559e-06
-1.18953e-06
1.52092e-05
3.064e-06
2.86897e-05
7.31663e-06
4.09023e-05
1.12043e-05
5.13578e-05
1.44118e-05
6.00196e-05
1.68506e-05
6.70616e-05
1.86551e-05
7.27112e-05
2.00481e-05
7.7201e-05
2.11885e-05
8.07508e-05
2.2117e-05
8.35568e-05
2.27387e-05
8.57322e-05
2.29082e-05
8.72435e-05
2.25024e-05
8.78334e-05
2.15472e-05
8.70809e-05
2.01646e-05
8.45333e-05
1.85683e-05
7.99888e-05
1.68878e-05
7.36656e-05
1.52394e-05
6.63662e-05
1.35825e-05
5.93388e-05
1.19183e-05
5.41356e-05
1.01285e-05
5.21454e-05
8.30093e-06
5.43948e-05
6.39462e-06
6.11629e-05
4.5837e-06
7.20822e-05
2.80093e-06
8.59408e-05
1.32365e-06
0.000101115
1.38603e-07
0.000115548
-3.57313e-07
0.00012742
-2.16875e-07
0.000135058
9.77171e-07
0.000137622
2.97401e-06
0.000134778
5.98719e-06
0.000127249
9.38121e-06
0.000116134
1.31056e-05
0.000103337
1.6197e-05
9.06614e-05
1.84803e-05
8.01137e-05
1.90633e-05
7.2877e-05
1.82083e-05
6.96849e-05
1.56161e-05
7.02495e-05
1.18861e-05
7.38684e-05
7.00975e-06
7.93113e-05
1.51379e-06
8.49271e-05
-3.84486e-06
8.89929e-05
-8.30112e-06
8.92546e-05
-1.00386e-05
8.4786e-05
-9.53578e-06
7.45987e-05
-5.35965e-06
6.0714e-05
-8.2032e-07
4.37273e-05
6.21491e-06
2.7393e-05
1.06774e-05
1.10966e-05
1.7348e-05
-9.88225e-07
1.82741e-05
-1.13995e-05
2.15453e-05
-1.46181e-05
1.54645e-05
-1.60232e-05
1.46061e-05
-9.65037e-06
3.20159e-06
-5.67438e-06
3.68703e-06
3.83787e-06
-8.62399e-06
5.87267e-06
-3.48846e-06
1.46565e-05
-1.81507e-05
1.5043e-05
-1.00059e-05
2.77424e-05
-2.94064e-05
2.95678e-05
-1.63074e-05
4.9491e-05
-4.34771e-05
4.50144e-05
-1.16696e-05
7.51653e-05
-5.76384e-05
5.96593e-05
5.32363e-06
8.03719e-05
-3.07561e-05
0.000140695
-8.62339e-05
1.30196e-05
0.000175126
0.000280394
-0.000329825
4.94334e-05
0.000287222
0.000560647
-0.00676135
0.00040537
7.33699e-05
-0.00120394
0.00218665
0.00126743
-0.00300837
0.00110008
0.000187403
0.000666325
0.000417385
-0.00503902
0.00762035
0.00500003
-0.0128307
-0.0045513
0.0109062
-0.00538787
0.00264442
0.0236885
-0.0382487
-0.0304917
0.0707683
0.0026843
-0.0406962
-0.0036539
0.00406067
-0.0315781
0.039243
0.0437263
-0.0977048
-0.0790129
0.158786
-0.0269358
-0.0645165
0.091208
-0.168022
-0.0549232
0.198471
0.0431975
-0.117822
0.055769
-0.0229087
-0.0372735
0.12108
0.0354806
-0.0941503
-0.0543465
-0.000670829
-0.000795202
0.000589139
-0.000445209
-0.000563534
-0.000201478
-0.00030343
-2.77638e-05
-0.000160551
9.89886e-05
-9.57432e-05
0.000193083
-8.17799e-05
0.000267688
-8.57643e-05
0.000321415
-7.77871e-05
0.000346423
-5.58326e-05
0.000342979
-3.27915e-05
0.000318204
-1.94387e-05
0.000281191
-1.77875e-05
0.00023982
-2.47912e-05
0.000199601
-3.57039e-05
0.00016315
-4.51537e-05
0.000130576
-4.88859e-05
0.000100995
-4.57184e-05
7.41299e-05
-3.74889e-05
5.08534e-05
-2.71767e-05
3.27113e-05
-1.7122e-05
2.10598e-05
-8.3594e-06
1.63703e-05
-8.13338e-07
1.79572e-05
6.13687e-06
2.41929e-05
1.30517e-05
3.30792e-05
2.00243e-05
4.28889e-05
2.66053e-05
5.25511e-05
3.21004e-05
6.16323e-05
3.60543e-05
7.00412e-05
3.85641e-05
7.77448e-05
4.01632e-05
8.46604e-05
4.14583e-05
9.0703e-05
4.27971e-05
9.58526e-05
4.41778e-05
0.000100185
4.52731e-05
0.000103796
4.5648e-05
0.000106683
4.49525e-05
0.0001086
4.31667e-05
0.00010908
4.05018e-05
0.000107586
3.73566e-05
0.000103846
3.40065e-05
9.80672e-05
3.07283e-05
9.11269e-05
2.75782e-05
8.44099e-05
2.47176e-05
7.96319e-05
2.21183e-05
7.83164e-05
2.00306e-05
8.15896e-05
1.83431e-05
8.97842e-05
1.71047e-05
0.000102563
1.58031e-05
0.000118696
1.44158e-05
0.000136519
1.24618e-05
0.000153887
1.0269e-05
0.000168869
7.65298e-06
0.000179629
5.48563e-06
0.000185158
3.79429e-06
0.000184937
3.57619e-06
0.000179532
4.51934e-06
0.000169922
7.23152e-06
0.00015798
1.06449e-05
0.000145554
1.47098e-05
0.000134736
1.80038e-05
0.00012676
2.06796e-05
0.000122358
2.18142e-05
0.000121297
2.14835e-05
0.000123005
1.87466e-05
0.000126545
1.33226e-05
0.000130423
5.89328e-06
0.000132992
-2.63495e-06
0.000131667
-8.9022e-06
0.000125417
-1.33467e-05
0.000113014
-1.27066e-05
9.68783e-05
-1.15851e-05
7.74413e-05
-4.79104e-06
5.87488e-05
2.79247e-07
3.944e-05
1.281e-05
2.41666e-05
1.8462e-05
9.84271e-06
3.0373e-05
3.4182e-06
2.62625e-05
-1.37187e-06
3.1076e-05
2.6957e-06
1.65036e-05
3.23878e-06
2.18201e-05
9.95212e-06
2.98264e-06
7.70235e-06
1.19e-05
1.46182e-05
-1.66846e-05
1.33611e-05
-8.53288e-06
2.99406e-05
-5.00608e-05
3.44258e-05
-3.12757e-05
6.49605e-05
-8.59187e-05
6.23294e-05
-2.59387e-05
0.000117695
-0.00013251
8.9313e-05
1.38141e-05
0.000143682
-0.000105127
0.000233782
-0.000184113
2.58284e-05
0.000382633
0.000514
-0.000825187
3.46704e-05
0.000800969
0.0011053
-0.00242082
0.000495345
0.000737289
-0.00190135
0.00455719
0.00236231
-0.00755082
0.00180817
0.000762792
0.000913326
0.00124912
-0.00810578
0.0166975
0.00859698
-0.0296801
-0.0105795
0.0302026
-0.00783148
0.000128448
0.0400947
-0.0865173
-0.0508684
0.162271
0.00861578
-0.100179
-0.0136503
0.0262166
-0.05263
0.0786776
0.0789436
-0.229834
-0.129581
0.367903
-0.0385251
-0.154227
0.126655
-0.335438
-0.0945273
0.416939
0.0951581
-0.310527
0.0878169
-0.0154791
-0.0719212
0.280747
0.0644413
-0.231015
-0.121718
-0.000688869
-0.000689565
0.000583243
-0.000602947
-0.00059558
-0.000440669
-0.000407951
-0.000286581
-0.000267821
-0.000157763
-0.000197596
-4.40389e-05
-0.000182921
6.00022e-05
-0.000187766
0.0001473
-0.000173408
0.000206397
-0.00013398
0.000233123
-9.01719e-05
0.000233173
-6.11282e-05
0.000216391
-5.14696e-05
0.000192017
-5.67301e-05
0.000166907
-6.93544e-05
0.000144501
-8.04923e-05
0.000124723
-8.27637e-05
0.000105785
-7.39366e-05
8.66718e-05
-5.72611e-05
6.82725e-05
-3.81186e-05
5.27624e-05
-2.05824e-05
4.23085e-05
-6.20153e-06
3.80601e-05
5.46603e-06
3.9751e-05
1.57497e-05
4.5914e-05
2.58033e-05
5.457e-05
3.58781e-05
6.40443e-05
4.52014e-05
7.34433e-05
5.25855e-05
8.25683e-05
5.73506e-05
9.14801e-05
5.98398e-05
0.000100136
6.11235e-05
0.000108314
6.23006e-05
0.000115753
6.39322e-05
0.000122302
6.59294e-05
0.000127997
6.76668e-05
0.000132959
6.83806e-05
0.00013723
6.75058e-05
0.000140562
6.50323e-05
0.000142436
6.13153e-05
0.000142219
5.69484e-05
0.00013957
5.22895e-05
0.000134692
4.76715e-05
0.000128531
4.31439e-05
0.000122582
3.89911e-05
0.00011867
3.53125e-05
0.000118374
3.26418e-05
0.00012283
3.09354e-05
0.000132331
3.02574e-05
0.000146486
2.97353e-05
0.000163982
2.90991e-05
0.000183082
2.73575e-05
0.000201559
2.46795e-05
0.000217425
2.05717e-05
0.000228782
1.61797e-05
0.000234596
1.1595e-05
0.000234319
8.44365e-06
0.000228537
6.62553e-06
0.000218261
7.39829e-06
0.000205455
9.64881e-06
0.00019208
1.36312e-05
0.000180309
1.76819e-05
0.000171376
2.22238e-05
0.000165913
2.60463e-05
0.000163643
2.88537e-05
0.000163996
2.87644e-05
0.000166215
2.44884e-05
0.000168796
1.66248e-05
0.000170072
5.95265e-06
0.000167051
-2.58453e-06
0.00015867
-1.02757e-05
0.000143522
-1.2218e-05
0.000124575
-1.54793e-05
0.000102103
-1.10078e-05
8.05819e-05
-8.97955e-06
5.78828e-05
6.03697e-06
3.93568e-05
1.24831e-05
2.12814e-05
3.05841e-05
1.21923e-05
2.57644e-05
4.60799e-06
3.64211e-05
7.14285e-06
1.89717e-05
4.85406e-06
3.35e-05
9.54973e-06
1.11453e-05
3.718e-06
3.02531e-05
9.77197e-06
-1.07871e-05
7.80813e-06
1.58447e-06
2.93044e-05
-6.56255e-05
3.73137e-05
-3.77389e-05
8.25117e-05
-0.000132418
7.92688e-05
-2.65071e-05
0.000161139
-0.000224356
0.00011818
4.9312e-05
0.000211281
-0.000213148
0.00032627
-0.000308194
4.00436e-05
0.00067687
0.000760226
-0.00156501
5.2234e-06
0.00161098
0.00167368
-0.00339186
0.000517927
0.00196893
-0.00256334
0.00763741
0.00362916
-0.0136969
0.0024124
0.00201643
0.00105549
0.00258035
-0.0109424
0.0288565
0.0121381
-0.0531792
-0.0177646
0.0606967
-0.00990176
-0.00805342
0.0561604
-0.153122
-0.0709608
0.291203
0.0172416
-0.189601
-0.0282513
0.0725842
-0.0749878
0.124938
0.116051
-0.423047
-0.17607
0.662767
-0.045033
-0.287015
0.146993
-0.527941
-0.135342
0.701238
0.168096
-0.615312
0.116086
0.0374917
-0.114402
0.512074
0.0978014
-0.44466
-0.21468
-0.000677889
-0.000601943
0.000598252
-0.000649767
-0.000562945
-0.000561897
-0.000445693
-0.000453249
-0.000334799
-0.00035242
-0.000272121
-0.000261013
-0.000263045
-0.000170504
-0.00027783
-8.25488e-05
-0.000269913
-1.02357e-05
-0.000225088
3.71263e-05
-0.000167794
5.9726e-05
-0.000125251
6.41771e-05
-0.000106809
5.86314e-05
-0.00010858
5.05869e-05
-0.000121763
4.49677e-05
-0.000134678
4.24034e-05
-0.000136029
4.02828e-05
-0.000121179
3.61436e-05
-9.4326e-05
3.00633e-05
-6.38934e-05
2.43585e-05
-3.65361e-05
2.18296e-05
-1.47013e-05
2.42984e-05
2.44154e-06
3.19999e-05
1.71082e-05
4.36889e-05
3.12857e-05
5.73434e-05
4.55762e-05
7.11899e-05
5.88656e-05
8.44035e-05
6.92563e-05
9.70328e-05
7.56474e-05
0.000109386
7.8622e-05
0.000121515
7.99357e-05
0.000133121
8.13363e-05
0.000143802
8.3663e-05
0.000153301
8.67123e-05
0.00016163
8.94925e-05
0.000168963
9.08622e-05
0.000175418
9.00396e-05
0.000180786
8.70712e-05
0.000184524
8.25104e-05
0.000185934
7.71669e-05
0.000184629
7.14388e-05
0.000180822
6.56406e-05
0.000175548
5.97484e-05
0.000170421
5.41693e-05
0.000167378
4.91903e-05
0.000168058
4.57489e-05
0.000173602
4.39715e-05
0.000184261
4.4016e-05
0.000199586
4.46514e-05
0.000218176
4.53355e-05
0.000238214
4.44665e-05
0.000257373
4.19505e-05
0.000273601
3.68407e-05
0.00028492
3.04707e-05
0.000290268
2.29095e-05
0.000289076
1.6425e-05
0.000281969
1.11602e-05
0.00027002
9.13859e-06
0.000255325
9.30697e-06
0.000239993
1.23781e-05
0.000226301
1.66239e-05
0.000215507
2.28924e-05
0.000208164
2.97863e-05
0.000203986
3.64772e-05
0.000202405
3.99888e-05
0.00020283
3.76621e-05
0.000203667
3.00946e-05
0.000203187
1.7745e-05
0.000197919
7.46334e-06
0.00018683
-3.41916e-06
0.000168288
-8.06806e-06
0.000145899
-1.66858e-05
0.000119651
-1.52879e-05
9.45848e-05
-1.73729e-05
6.76913e-05
2.88484e-07
4.53208e-05
7.25302e-06
2.29277e-05
3.25915e-05
1.09492e-05
2.66868e-05
2.40363e-07
4.46796e-05
1.23324e-06
2.40225e-05
-4.13379e-06
5.02346e-05
-1.16657e-06
2.36343e-05
-1.04875e-05
5.4729e-05
-4.40846e-06
-2.44542e-06
-6.53788e-06
1.34576e-05
2.10185e-05
-8.63589e-05
3.31148e-05
-4.89407e-05
9.26448e-05
-0.000194567
8.8851e-05
-2.96333e-05
0.000200125
-0.000348866
0.000140054
9.85284e-05
0.000277102
-0.00036829
0.000410872
-0.000453416
5.08342e-05
0.00103974
0.00101029
-0.00254337
-3.79495e-05
0.00271358
0.00223275
-0.00588033
0.000462593
0.00381961
-0.0031764
0.0113301
0.00503321
-0.0219958
0.00286581
0.00422962
0.00113676
0.00427965
-0.0135275
0.0437209
0.015615
-0.0828239
-0.0257696
0.102808
-0.0116954
-0.0223075
0.0714219
-0.23749
-0.0902659
0.45493
0.0290011
-0.310109
-0.0471658
0.149591
-0.0989186
0.176815
0.153394
-0.679615
-0.216492
1.03586
-0.0449984
-0.459617
0.150454
-0.72528
-0.176376
1.03017
0.264124
-1.05781
0.141245
0.161128
-0.163155
0.817583
0.134999
-0.745983
-0.332466
-0.000668373
-0.000539092
0.000623868
-0.000648925
-0.000519346
-0.000605034
-0.000450764
-0.00053448
-0.000371436
-0.000464127
-0.000318751
-0.000404528
-0.000312165
-0.000348861
-0.000334207
-0.000288963
-0.000339399
-0.000230201
-0.00030331
-0.00018267
-0.000246118
-0.000150637
-0.000199219
-0.000132854
-0.000175993
-0.000125
-0.000174706
-0.00012077
-0.000187847
-0.000113766
-0.000203282
-0.000101373
-0.000206101
-8.61436e-05
-0.000187453
-7.24268e-05
-0.000150789
-6.21249e-05
-0.000107605
-5.3733e-05
-6.82367e-05
-4.42687e-05
-3.69016e-05
-3.1338e-05
-1.26985e-05
-1.40726e-05
7.4318e-06
6.71583e-06
2.64868e-05
2.90129e-05
4.57918e-05
5.07659e-05
6.41192e-05
7.10051e-05
7.86982e-05
8.99793e-05
8.76727e-05
0.00010836
9.17253e-05
0.000126433
9.34289e-05
0.000143897
9.54067e-05
0.000160182
9.89133e-05
0.00017485
0.000103629
0.000187818
0.000108102
0.000199272
0.000110711
0.000209406
0.000110402
0.000218087
0.000107295
0.000224791
0.000102196
0.000228792
9.61834e-05
0.000229674
8.96953e-05
0.000227673
8.29872e-05
0.000223918
7.59042e-05
0.000220154
6.89669e-05
0.000218451
6.26837e-05
0.000220508
5.84856e-05
0.000227486
5.67347e-05
0.000239588
5.77316e-05
0.000256323
5.9868e-05
0.000276212
6.23172e-05
0.000297369
6.28036e-05
0.000317374
6.09353e-05
0.000334106
5.52339e-05
0.000345501
4.72018e-05
0.000350456
3.6836e-05
0.000348357
2.70616e-05
0.000339853
1.82527e-05
0.000326068
1.32391e-05
0.000309222
1.10423e-05
0.000291557
1.2891e-05
0.000275457
1.70961e-05
0.000262221
2.50249e-05
0.000252349
3.51926e-05
0.000245589
4.61013e-05
0.00024139
5.36311e-05
0.000239338
5.34923e-05
0.000237703
4.65167e-05
0.000234702
3.26853e-05
0.000226342
2.11829e-05
0.000211701
7.32251e-06
0.000188866
2.81938e-07
0.000162158
-1.42085e-05
0.000131131
-1.60108e-05
0.000101541
-2.29967e-05
6.93637e-05
-2.35168e-06
4.22596e-05
4.35041e-06
1.4624e-05
3.73916e-05
-8.66113e-07
2.88734e-05
-1.54847e-05
5.49729e-05
-1.64631e-05
2.9738e-05
-2.55474e-05
6.99848e-05
-2.43003e-05
3.77944e-05
-3.72635e-05
8.33298e-05
-3.04468e-05
6.09024e-06
-3.2478e-05
2.64349e-05
2.17578e-06
-0.000112867
1.85367e-05
-6.30773e-05
9.31151e-05
-0.000270891
8.90606e-05
-3.15444e-05
0.000229146
-0.000502247
0.000150797
0.000166962
0.000338266
-0.000574365
0.000482612
-0.000610177
5.62793e-05
0.00147233
0.00125648
-0.00377278
-0.000107452
0.00414171
0.00277958
-0.00873408
0.000326533
0.00636558
-0.0037284
0.0154232
0.00652609
-0.0323603
0.00314145
0.00767529
0.00121071
0.00618418
-0.0158583
0.0610429
0.019017
-0.118313
-0.0342254
0.156946
-0.0132813
-0.0435446
0.085418
-0.337446
-0.108375
0.651336
0.0450045
-0.465407
-0.0696544
0.265761
-0.124494
0.231645
0.18872
-0.996623
-0.249668
1.47839
-0.0366429
-0.674253
0.137423
-0.901161
-0.217898
1.38774
0.387146
-1.66724
0.16562
0.386605
-0.214337
1.19899
0.17489
-1.1355
-0.47278
-0.000669433
-0.000498323
0.000645817
-0.000642905
-0.000485321
-0.000618852
-0.000443879
-0.000571497
-0.000389463
-0.000521679
-0.000346657
-0.000485564
-0.000338854
-0.000460378
-0.000361215
-0.000435602
-0.000376
-0.000404842
-0.000355537
-0.000374045
-0.000309391
-0.000348432
-0.000267832
-0.000330565
-0.000245827
-0.000320378
-0.000243581
-0.000314299
-0.000256465
-0.000305308
-0.000275036
-0.000287648
-0.000282901
-0.000261747
-0.000265826
-0.000233002
-0.00022355
-0.000206156
-0.000169082
-0.000181927
-0.000117085
-0.000158183
-7.48187e-05
-0.000132509
-4.20903e-05
-0.000103539
-1.54403e-05
-7.14325e-05
8.99634e-06
-3.79851e-05
3.36752e-05
-5.65884e-06
5.7829e-05
2.40882e-05
7.78587e-05
5.15179e-05
9.06671e-05
7.77702e-05
9.66162e-05
0.000103613
9.90987e-05
0.000128918
0.0001019
0.000152977
0.000106966
0.00017507
0.000113966
0.000194882
0.000120917
0.000212507
0.000125565
0.000228184
0.000126459
0.000241872
0.000123752
0.000253119
0.000118541
0.000261201
0.000112251
0.000265675
0.000105402
0.000266778
9.81768e-05
0.000265723
9.02285e-05
0.000264393
8.21594e-05
0.000265011
7.47085e-05
0.000269354
6.98862e-05
0.000278597
6.83588e-05
0.000292893
7.06215e-05
0.000311701
7.4663e-05
0.000333469
7.93655e-05
0.000356254
8.17252e-05
0.000377548
8.10391e-05
0.000395177
7.52329e-05
0.000406989
6.59817e-05
0.000411841
5.31568e-05
0.000409066
4.03561e-05
0.000399333
2.81425e-05
0.0003838
2.01726e-05
0.000364795
1.55267e-05
0.000344683
1.59894e-05
0.000325948
1.99891e-05
0.000309941
2.94942e-05
0.00029713
4.30402e-05
0.000287326
5.83411e-05
0.000279985
7.0149e-05
0.000274878
7.23054e-05
0.000270079
6.61863e-05
0.000263779
5.10773e-05
0.00025143
3.89882e-05
0.000232309
2.24492e-05
0.000204145
1.35476e-05
0.000172065
-7.17124e-06
0.000135037
-1.19779e-05
9.97398e-05
-2.45511e-05
6.0985e-05
-3.83435e-07
2.81033e-05
5.05728e-06
-5.87957e-06
4.62868e-05
-2.56307e-05
3.31954e-05
-4.51012e-05
6.82631e-05
-4.85091e-05
3.652e-05
-6.19837e-05
9.33001e-05
-6.22992e-05
5.3314e-05
-7.90043e-05
0.000115959
-7.05316e-05
1.37257e-05
-7.22245e-05
4.00989e-05
-2.93234e-05
-0.000146352
-8.65459e-06
-8.02412e-05
8.18058e-05
-0.000362043
7.7476e-05
-3.22613e-05
0.000247862
-0.000686075
0.000146596
0.000259801
0.000394056
-0.000841542
0.000536577
-0.000765074
5.5054e-05
0.00196176
0.00149175
-0.00524239
-0.000201099
0.00590578
0.00329328
-0.0123481
0.000107914
0.00965588
-0.00420723
0.0197946
0.00804981
-0.0447624
0.00323587
0.0125664
0.00133683
0.00805606
-0.0179557
0.0806357
0.0223429
-0.159328
-0.0428055
0.223175
-0.0147086
-0.0719837
0.0977992
-0.4516
-0.125093
0.877282
0.108908
-0.678396
-0.0944998
0.447815
-0.151618
0.288881
0.219404
-1.3731
-0.275848
1.97845
-0.0183141
-0.933581
0.11148
-1.03269
-0.261267
1.76348
0.401906
-2.33309
0.192284
0.596127
-0.261452
1.65449
0.215782
-1.62195
-0.63304
-0.000680953
-0.000469885
0.000666003
-0.0006464
-0.000460064
-0.000629902
-0.000433212
-0.000595419
-0.000397264
-0.000557589
-0.000364368
-0.000534112
-0.00035442
-0.000527025
-0.000371569
-0.000526821
-0.000389832
-0.000523276
-0.000383125
-0.000513519
-0.000353294
-0.000503087
-0.000322335
-0.000495471
-0.000305847
-0.000493213
-0.000304515
-0.000495762
-0.000316412
-0.000497028
-0.000336906
-0.000488258
-0.000351741
-0.000465363
-0.000342446
-0.000431957
-0.000302266
-0.000394718
-0.000242222
-0.000357476
-0.00018029
-0.000320246
-0.000127705
-0.000281656
-8.6019e-05
-0.000240523
-5.2192e-05
-0.000196424
-2.22194e-05
-0.000150599
7.53099e-06
-0.000105846
3.76109e-05
-6.45399e-05
6.41136e-05
-2.68817e-05
8.22445e-05
8.64291e-06
9.12483e-05
4.35416e-05
9.50002e-05
7.81869e-05
9.8675e-05
0.000111892
0.000105347
0.000143597
0.000114987
0.000172572
0.000125119
0.000198643
0.000132696
0.000222
0.00013565
0.000242695
0.000134041
0.000260393
0.000129249
0.000274415
0.000123135
0.000284292
0.00011639
0.000290215
0.00010916
0.000293445
0.000100839
0.000296004
9.20408e-05
0.000300304
8.37068e-05
0.000308231
7.85129e-05
0.000320979
7.7514e-05
0.000338625
8.14698e-05
0.000360564
8.793e-05
0.000385149
9.54721e-05
0.000410385
0.000100296
0.000433681
0.00010138
0.000452827
9.59899e-05
0.000465591
8.60009e-05
0.0004708
7.11178e-05
0.000467733
5.56456e-05
0.000457086
4.02922e-05
0.000440036
2.95759e-05
0.000419009
2.26112e-05
0.000396466
2.17673e-05
0.000374998
2.563e-05
0.000356025
3.68148e-05
0.000340002
5.3969e-05
0.000326817
7.38962e-05
0.00031591
9.02769e-05
0.00030722
9.48347e-05
0.000298587
8.98522e-05
0.000288212
7.36293e-05
0.000270958
6.15848e-05
0.000246386
4.2606e-05
0.000211766
3.24623e-05
0.000173137
5.20757e-06
0.00012873
-2.13777e-06
8.64053e-05
-2.09104e-05
3.96413e-05
7.60411e-06
-1.53244e-07
1.06745e-05
-4.17074e-05
6.08259e-05
-6.65314e-05
4.08959e-05
-9.18755e-05
8.60374e-05
-9.81083e-05
4.51916e-05
-0.000116579
0.00012111
-0.000118054
6.99688e-05
-0.000138455
0.000152574
-0.000127145
1.91236e-05
-0.000128249
5.38974e-05
-7.57841e-05
-0.000188522
-5.09019e-05
-0.000100767
5.6365e-05
-0.000469355
5.15271e-05
-3.1844e-05
0.000252499
-0.000900819
0.000136371
0.000367677
0.000438673
-0.00116424
0.000566484
-0.000906212
4.64189e-05
0.00249311
0.00171004
-0.00694366
-0.000320725
0.00801553
0.00377952
-0.016534
-0.00018916
0.0137423
-0.00460193
0.0243074
0.00954117
-0.0590849
0.00317151
0.0190319
0.0015736
0.00962313
-0.0198587
0.10241
0.0256114
-0.205609
-0.0512108
0.301247
-0.0160174
-0.107586
0.108353
-0.577789
-0.140482
1.12958
0.0634063
-0.88473
-0.120144
0.633543
-0.180007
0.34888
0.242842
-1.80174
-0.296829
2.52347
0.0109855
-1.24339
0.0791836
-1.10223
-0.305632
2.15141
0.554025
-3.19855
0.227565
0.927105
-0.295245
2.17931
0.256315
-2.16739
-0.808867
-0.000700048
-0.000447148
0.000688353
-0.000659873
-0.000440137
-0.000646393
-0.000422326
-0.000619607
-0.000399836
-0.000589842
-0.000376163
-0.000573097
-0.000365172
-0.000573847
-0.000375654
-0.000585934
-0.000392943
-0.000599082
-0.000395619
-0.000606419
-0.000381335
-0.000611267
-0.000362227
-0.000617282
-0.000352427
-0.000627419
-0.000352868
-0.000643209
-0.000362731
-0.000661119
-0.000381938
-0.000671736
-0.000401576
-0.000666123
-0.000402786
-0.00064288
-0.000372178
-0.000607523
-0.00031497
-0.000566027
-0.000249332
-0.000521045
-0.000190064
-0.000473173
-0.000141112
-0.000422449
-0.000100582
-0.000368465
-6.55009e-05
-0.000311641
-3.18198e-05
-0.000254661
3.04939e-06
-0.000201027
3.60707e-05
-0.000152139
6.07745e-05
-0.00010663
7.42599e-05
-6.22118e-05
7.99963e-05
-1.76174e-05
8.44375e-05
2.68523e-05
9.22623e-05
6.9892e-05
0.000104322
0.000110184
0.000117943
0.000147027
0.000129198
0.000180369
0.000135119
0.000210282
0.000135424
0.00023658
0.000131669
0.000258681
0.000126223
0.000276095
0.000120087
0.00028891
0.000113471
0.000298364
0.000105454
0.000306604
9.65356e-05
0.000316281
8.77614e-05
0.000329452
8.25479e-05
0.00034735
8.24531e-05
0.00036995
8.86133e-05
0.000396536
9.81123e-05
0.000425328
0.000109205
0.000454257
0.000117205
0.000480641
0.000120757
0.000502251
0.000116392
0.000516788
0.000106227
0.000523073
8.97639e-05
0.000520336
7.20744e-05
0.000509316
5.39676e-05
0.000491197
4.08849e-05
0.000468484
3.19479e-05
0.000443712
3.01345e-05
0.000419581
3.41793e-05
0.000397606
4.73544e-05
0.00037825
6.84962e-05
0.000361481
9.33847e-05
0.000346676
0.000114726
0.00033393
0.000121854
0.000320806
0.000118352
0.000305582
0.00010116
0.000282495
8.98062e-05
0.000251467
6.85834e-05
0.000209175
5.79418e-05
0.000162699
2.39003e-05
0.000109377
1.47524e-05
5.85765e-05
-1.08196e-05
2.23269e-06
2.31233e-05
-4.57097e-05
2.25327e-05
-9.61971e-05
8.2607e-05
-0.000126976
5.31946e-05
-0.0001593
0.000109783
-0.00016867
5.64262e-05
-0.000192663
0.000154219
-0.000194611
8.72312e-05
-0.00021851
0.000192986
-0.000202861
2.06533e-05
-0.000203094
6.7287e-05
-0.000139506
-0.000241271
-0.000110606
-0.000124844
1.45595e-05
-0.000594265
8.91102e-06
-3.03081e-05
0.000240734
-0.00114698
0.000106381
0.000494499
0.000456848
-0.00153638
0.00055068
-0.00101058
3.01335e-05
0.00302371
0.00190707
-0.00886207
-0.000467218
0.0104763
0.00423908
-0.021356
-0.000554954
0.0186661
-0.00490335
0.0286352
0.0109363
-0.0751332
0.0029958
0.0270879
0.00196942
0.0106123
-0.0216176
0.126376
0.0288724
-0.25699
-0.0591995
0.390724
-0.0172106
-0.150048
0.117079
-0.714093
-0.154833
1.40529
0.0847035
-1.12727
-0.144837
0.865961
-0.20903
0.413239
0.257228
-2.27465
-0.315671
3.10211
0.0511815
-1.61238
0.0499261
-1.10176
-0.351583
2.55638
0.666387
-4.22354
0.273732
1.32385
-0.307274
2.76262
0.293334
-2.78799
-0.995092
-0.000725512
-0.000428333
0.000714955
-0.000682171
-0.000424042
-0.000670374
-0.000412891
-0.000648491
-0.000399985
-0.000624978
-0.000383982
-0.000612917
-0.000373447
-0.000616493
-0.000378686
-0.000632444
-0.000393593
-0.000652682
-0.000402314
-0.000671487
-0.000399172
-0.000687573
-0.000391116
-0.000705599
-0.000387005
-0.000727375
-0.000389432
-0.000754977
-0.000396887
-0.000787864
-0.000411639
-0.000819033
-0.000430916
-0.000837394
-0.000439904
-0.000835752
-0.000421876
-0.000815211
-0.000374658
-0.000781312
-0.000312734
-0.000738393
-0.000252496
-0.00068893
-0.000200119
-0.000634779
-0.000154928
-0.000576468
-0.000115853
-0.000513732
-7.99621e-05
-0.000448363
-4.27603e-05
-0.000384532
-4.88073e-06
-0.000325393
2.65293e-05
-0.000270671
4.57321e-05
-0.000217763
5.44162e-05
-0.000164293
5.9539e-05
-0.000109638
6.7558e-05
-5.49744e-05
8.09571e-05
-2.21363e-06
9.75364e-05
4.71369e-05
0.000112666
9.24692e-05
0.000122219
0.000133679
0.000125208
0.000170681
0.000123117
0.000203036
0.000118801
0.000230256
0.000113734
0.000252256
0.000108388
0.000270142
0.000101507
0.000286125
9.32881e-05
0.000303147
8.46791e-05
0.000323526
7.98649e-05
0.000348599
8.10469e-05
0.000378218
8.99239e-05
0.000411497
0.000103129
0.000446436
0.000118594
0.000480839
0.000130626
0.000511898
0.00013751
0.000537367
0.00013493
0.000554895
0.000125289
0.00056333
0.000107837
0.000561879
8.84941e-05
0.000551345
6.81304e-05
0.000532912
5.32091e-05
0.000509146
4.28355e-05
0.000482623
4.06311e-05
0.000456161
4.54187e-05
0.000431393
6.11037e-05
0.000408819
8.67765e-05
0.000388469
0.000117109
0.000369597
0.000143971
0.000352429
0.000154001
0.000334229
0.000152475
0.000313432
0.000134509
0.000283615
0.000124562
0.000245124
0.000101303
0.000193884
9.11e-05
0.000138161
5.01021e-05
7.42525e-05
4.0163e-05
1.34023e-05
7.1396e-06
-5.42414e-05
4.78202e-05
-0.000111687
4.20195e-05
-0.000172642
0.000113302
-0.000210352
7.12983e-05
-0.000250876
0.000141006
-0.000263618
7.07605e-05
-0.000293595
0.000193354
-0.000295034
0.000104313
-0.000322082
0.000236936
-0.000300226
1.64314e-05
-0.00029925
7.98009e-05
-0.000222648
-0.000306693
-0.000189992
-0.000152485
-4.55641e-05
-0.000738411
-5.23712e-05
-2.76181e-05
0.000210514
-0.001425
5.7523e-05
0.000640188
0.000458077
-0.00196025
0.000565327
-0.00113033
5.4183e-06
0.00359786
0.00208242
-0.0109834
-0.000645258
0.0132964
0.00469629
-0.0268183
-0.000985554
0.0244895
-0.0050965
0.0330515
0.0121755
-0.0926398
0.00277617
0.0366226
0.00255187
0.0107885
-0.0232855
0.152623
0.032214
-0.313451
-0.0665974
0.491076
-0.0182512
-0.198926
0.124201
-0.858687
-0.168635
1.70218
0.105918
-1.40509
-0.167124
1.14225
-0.237784
0.484077
0.262186
-2.78171
-0.335851
3.70617
0.101064
-2.05157
0.0340973
-1.03504
-0.397495
2.99154
0.749132
-5.37821
0.327608
1.74946
-0.292225
3.38514
0.325785
-3.39642
-1.18311
-0.000754792
-0.00041339
0.000742497
-0.00070959
-0.000411819
-0.00069959
-0.000405157
-0.000681544
-0.000398926
-0.000663392
-0.00038899
-0.000655591
-0.000380003
-0.000660686
-0.000382253
-0.000677205
-0.000395179
-0.000700141
-0.00040752
-0.000724929
-0.000411835
-0.000749379
-0.000412087
-0.000776106
-0.00041291
-0.000806737
-0.000417061
-0.000842488
-0.000422702
-0.0008847
-0.000431762
-0.000930262
-0.000445855
-0.000969603
-0.000456656
-0.00099204
-0.00044886
-0.000993275
-0.000414532
-0.000976044
-0.000361811
-0.000944727
-0.000305955
-0.000902661
-0.000254627
-0.000853063
-0.000207875
-0.00079799
-0.000166379
-0.000737177
-0.000129811
-0.000670938
-9.31303e-05
-0.000602886
-5.36183e-05
-0.000537607
-1.71878e-05
-0.000476758
8.0007e-06