/*--------------------------------*- C++ -*----------------------------------*\
| =========                 |                                                 |
| \\      /  F ield         | OpenFOAM: The Open Source CFD Toolbox           |
|  \\    /   O peration     | Version:  2412                                  |
|   \\  /    A nd           | Website:  www.openfoam.com                      |
|    \\/     M anipulation  |                                                 |
\*---------------------------------------------------------------------------*/
FoamFile
{
    version     2.0;
    format      ascii;
    arch        "LSB;label=32;scalar=64";
    class       surfaceScalarField;
    location    "1.665";
    object      phi;
}
// * * * * * * * * * * * * * * * * * * * * * * * * * * * * * * * * * * * * * //

dimensions      [0 3 -1 0 0 0 0];

oriented        oriented;

internalField   nonuniform List<scalar> 
24930
(
0.0179705
0.0127616
-0.0307424
0.0106033
0.00736721
0.00695104
0.00365225
0.0051742
0.00177684
0.00420174
0.000972456
0.00357859
0.000623141
0.00313251
0.000446082
0.0027929
0.000339609
0.00252364
0.000269253
0.00230367
0.00021997
0.00211982
0.000183848
0.00196336
0.000156459
0.00182823
0.000135124
0.00171009
0.000118138
0.00160572
0.000104363
0.0015127
9.30174e-05
0.00142915
8.35454e-05
0.00135361
7.5544e-05
0.00128489
6.87148e-05
0.00122205
6.28324e-05
0.00116432
5.77244e-05
0.00111106
5.32562e-05
0.00106174
4.93221e-05
0.0010159
4.58378e-05
0.000973157
4.2735e-05
0.000933195
3.99584e-05
0.00089573
3.74628e-05
0.000860517
3.52104e-05
0.000827344
3.31701e-05
0.000796027
3.13155e-05
0.000766401
2.96245e-05
0.000738321
2.80782e-05
0.00071166
2.66606e-05
0.000686301
2.53576e-05
0.000662143
2.41578e-05
0.000639092
2.30503e-05
0.000617065
2.20268e-05
0.000595987
2.10788e-05
0.000575787
2.02004e-05
0.000556403
1.93842e-05
0.000537777
1.86268e-05
0.000519856
1.79212e-05
0.000502591
1.7266e-05
0.000485938
1.66543e-05
0.000469852
1.60869e-05
0.000454297
1.5556e-05
0.000439233
1.50651e-05
0.00042463
1.46044e-05
0.000410451
1.41811e-05
0.00039667
1.3782e-05
0.000383253
1.34191e-05
0.000370181
1.30748e-05
0.000357416
1.2767e-05
0.000344947
1.24717e-05
0.000332735
1.22148e-05
0.000320773
1.19638e-05
0.000309021
1.17549e-05
0.000297479
1.15438e-05
0.0002861
1.13807e-05
0.000274896
1.12059e-05
0.000263811
1.10873e-05
0.000252867
1.09451e-05
0.000241999
1.087e-05
0.000231244
1.0756e-05
0.000220522
1.0724e-05
0.000209889
1.06339e-05
0.000199245
1.06455e-05
0.000188672
1.05742e-05
0.000178045
1.06287e-05
0.000167478
1.05683e-05
0.000156815
1.06641e-05
0.000146211
1.0605e-05
0.000135471
1.07401e-05
0.000124803
1.06691e-05
0.000113965
1.08381e-05
0.00010323
1.07362e-05
9.22988e-05
1.09312e-05
8.15214e-05
1.07777e-05
7.05298e-05
1.09918e-05
5.97686e-05
1.07614e-05
4.87871e-05
1.09817e-05
3.81456e-05
1.06418e-05
2.72925e-05
1.08534e-05
1.69141e-05
1.03788e-05
6.35335e-06
1.05611e-05
-3.6202e-06
9.97397e-06
-1.37273e-05
1.01075e-05
-2.31009e-05
9.37407e-06
-3.25313e-05
9.43092e-06
-4.12138e-05
8.68293e-06
-4.97059e-05
8.49262e-06
-5.73311e-05
7.62565e-06
-6.56376e-05
8.30698e-06
-7.00405e-05
4.40353e-06
-8.10115e-05
1.09715e-05
-7.92252e-05
-1.78578e-06
-9.47111e-05
1.54864e-05
-9.32107e-05
-1.49895e-06
-8.89312e-05
-4.27905e-06
-0.000114785
2.5854e-05
-9.15994e-05
-2.31844e-05
-0.000136008
4.44097e-05
-7.2637e-05
-6.3372e-05
-0.00019279
0.000120155
-8.33979e-05
-0.000109389
-0.000104495
2.10942e-05
-0.000325961
0.000221472
7.60407e-05
-0.000402006
-0.000498045
0.000574085
-0.000126127
-0.000371913
-0.000120264
-5.87438e-06
-0.000829015
0.000708755
0.000339198
-0.00116821
-0.00104826
0.00138744
-0.000977729
-7.05086e-05
0.000294824
-0.00127257
-0.000856388
0.0011512
8.46638e-05
-0.000941043
0.000523782
-0.000439115
0.000587102
0.0336843
0.0163332
-0.0372559
0.0277436
0.0133079
0.0221878
0.00920806
0.0179115
0.00605317
0.014864
0.00401994
0.0127026
0.00278449
0.011115
0.00203373
0.0098975
0.00155706
0.00892997
0.00123677
0.0081394
0.00101054
0.00747899
0.000844247
0.00691744
0.000718001
0.00643296
0.0006196
0.00600986
0.00054123
0.00563655
0.000477674
0.00530423
0.00042533
0.00500612
0.000381641
0.00473691
0.000344748
0.00449235
0.000313273
0.004269
0.000286175
0.00406406
0.000262657
0.00387521
0.000242096
0.00370052
0.000224002
0.00353837
0.000207986
0.00338736
0.000193732
0.00324633
0.000180983
0.00311426
0.000169531
0.00299026
0.0001592
0.00287358
0.000149847
0.00276355
0.000141349
0.00265956
0.000133605
0.00256111
0.000126527
0.00246773
0.00012004
0.002379
0.000114081
0.00229457
0.000108595
0.00221408
0.000103533
0.00213725
9.88568e-05
0.00206381
9.45271e-05
0.00199349
9.0515e-05
0.00192609
8.67897e-05
0.00186138
8.33309e-05
0.0017992
8.01116e-05
0.00173934
7.71198e-05
0.00168167
7.433e-05
0.00162602
7.17381e-05
0.00157226
6.93175e-05
0.00152026
6.70726e-05
0.00146989
6.49727e-05
0.00142105
6.30327e-05
0.00137362
6.12146e-05
0.0013275
5.95462e-05
0.0012826
5.79784e-05
0.00123881
5.65559e-05
0.00119608
5.52131e-05
0.00115428
5.40166e-05
0.00111337
5.28781e-05
0.00107324
5.18923e-05
0.00103385
5.09404e-05
0.000995077
5.01536e-05
0.000956914
4.9373e-05
0.000919228
4.8777e-05
0.000882023
4.81532e-05
0.000845156
4.7741e-05
0.000808657
4.72576e-05
0.00077236
4.7024e-05
0.000736331
4.66656e-05
0.000700371
4.66082e-05
0.000664591
4.63569e-05
0.000628754
4.64687e-05
0.000593029
4.62962e-05
0.00055713
4.65649e-05
0.0005213
4.64364e-05
0.000485195
4.68474e-05
0.000449151
4.67141e-05
0.000412755
4.72353e-05
0.000376466
4.70256e-05
0.000339782
4.76158e-05
0.000303309
4.72513e-05
0.000266434
4.78678e-05
0.000229945
4.72506e-05
0.000193102
4.7825e-05
0.000156916
4.68282e-05
0.000120486
4.72849e-05
8.50579e-05
4.58073e-05
4.95425e-05
4.60773e-05
1.53834e-05
4.41339e-05
-1.85961e-05
4.4088e-05
-5.10142e-05
4.17931e-05
-8.27542e-05
4.11719e-05
-0.000113071
3.9001e-05
-0.000141349
3.67718e-05
-0.000169042
3.5319e-05
-0.000195274
3.45399e-05
-0.000214226
2.33573e-05
-0.00024768
4.44269e-05
-0.000245808
-3.65605e-06
-0.000299309
6.89885e-05
-0.000284872
-1.59342e-05
-0.000292425
3.27538e-06
-0.000351364
8.47943e-05
-0.000304192
-7.03548e-05
-0.000413228
0.000153447
-0.000250067
-0.00022653
-0.000612066
0.000482152
-0.000251113
-0.00047034
-0.000397952
0.00016794
-0.000914463
0.000737978
0.000171755
-0.00148822
-0.00153071
0.00227655
-0.000359374
-0.00154326
-0.000525726
0.000160489
-0.00224735
0.00243036
0.000982668
-0.00439822
-0.00339422
0.00576433
-0.00277462
-0.00069012
0.000726833
-0.00477402
-0.00254898
0.00442701
0.00046451
-0.00395453
0.00153254
-0.00150714
0.00246979
0.0414552
0.016032
-0.041154
0.0391615
0.0156016
0.0352281
0.0131414
0.0309387
0.0103426
0.0270216
0.00793702
0.023731
0.00607505
0.0210555
0.00470921
0.018886
0.00372655
0.0171078
0.00301501
0.0156281
0.0024902
0.014378
0.00209433
0.0133072
0.00178885
0.0123786
0.00154815
0.0115649
0.00135496
0.0108452
0.00119741
0.0102034
0.0010671
0.00962703
0.000957984
0.00910615
0.000865614
0.00863276
0.000786657
0.00820035
0.000718579
0.00780357
0.000659424
0.007438
0.000607662
0.00709992
0.00056208
0.00678619
0.000521709
0.00649414
0.000485766
0.00622151
0.00045361
0.00596632
0.000424716
0.00572687
0.00039865
0.00550166
0.000375047
0.00528941
0.000353603
0.00508895
0.000334059
0.00489928
0.000316196
0.00471949
0.000299827
0.00454878
0.00028479
0.00438642
0.000270947
0.00423178
0.000258177
0.00408426
0.000246377
0.00394333
0.000235454
0.00380852
0.000225332
0.00367937
0.000215934
0.0035555
0.000207207
0.00343652
0.000199087
0.00332211
0.000191537
0.00321194
0.0001845
0.00310573
0.000177956
0.0030032
0.000171849
0.0029041
0.000166177
0.0028082
0.000160878
0.00271526
0.00015597
0.0026251
0.000151381
0.0025375
0.000147152
0.00245229
0.000143194
0.00236927
0.000139578
0.00228831
0.000136188
0.0022092
0.000133132
0.00213182
0.000130259
0.002056
0.000127723
0.00198162
0.000125323
0.0019085
0.000123277
0.00183656
0.000121313
0.00176561
0.000119732
0.0016956
0.000118172
0.00162631
0.000117036
0.00155772
0.000115842
0.00148962
0.000115133
0.00142201
0.000114272
0.00135464
0.000113982
0.00128759
0.000113415
0.00122054
0.00011352
0.00115365
0.000113186
0.00108657
0.000113651
0.00101953
0.000113475
0.000952126
0.000114258
0.000884712
0.000114129
0.000816803
0.000115146
0.000748925
0.000114905
0.000680495
0.000116047
0.00061223
0.000115516
0.000543431
0.000116668
0.00047506
0.000115622
0.00040628
0.000116606
0.000338358
0.00011475
0.000270262
0.000115381
0.000203601
0.000112469
0.000137066
0.000112613
7.26199e-05
0.000108581
8.86092e-06
0.000107848
-5.25678e-05
0.000103223
-0.000112267
0.000100872
-0.000170016
9.67511e-05
-0.000223189
8.99462e-05
-0.000276758
8.88887e-05
-0.00032506
8.2843e-05
-0.00036428
6.25786e-05
-0.000423985
0.000104133
-0.000425815
-1.82312e-06
-0.000524331
0.000167506
-0.000494077
-4.61867e-05
-0.000524565
3.37658e-05
-0.000614035
0.000174266
-0.000548041
-0.000136348
-0.000719867
0.000325274
-0.000463351
-0.000483041
-0.00107749
0.00109628
-0.000448476
-0.00109935
-0.000771229
0.000490703
-0.00151782
0.00148456
0.00023672
-0.00324275
-0.0026627
0.00517597
-0.000625291
-0.00358068
-0.0011002
0.000635417
-0.00359658
0.00492671
0.0016863
-0.00968109
-0.00608116
0.0135318
-0.00456984
-0.00220145
0.00105962
-0.0104035
-0.00433247
0.0098191
0.00112915
-0.00941615
0.00255765
-0.00293563
0.00583794
0.0459177
0.0147342
-0.0446199
0.045998
0.0155213
0.044416
0.0147234
0.0416891
0.0130695
0.0384425
0.0111836
0.0351351
0.00938244
0.0320345
0.00780975
0.0292552
0.00650586
0.0268159
0.00545429
0.0246906
0.00461558
0.0228379
0.00394699
0.021216
0.00341077
0.0197875
0.00297657
0.0185214
0.00262112
0.0173919
0.00232691
0.0163781
0.00208082
0.0154632
0.00187292
0.0146331
0.0016957
0.0138764
0.00154336
0.0131835
0.00141142
0.0125466
0.00129634
0.0119589
0.00119533
0.0114149
0.00110616
0.0109096
0.00102701
0.0104389
0.000956417
0.00999933
0.000893169
0.00958778
0.000836265
0.00920155
0.000784875
0.00883829
0.000738299
0.00849594
0.000695951
0.00817266
0.00065733
0.00786685
0.00062201
0.00757704
0.000589629
0.00730196
0.00055987
0.00704045
0.000532464
0.00679145
0.000507174
0.00655403
0.0004838
0.00632732
0.000462156
0.00611056
0.000442093
0.00590304
0.000423464
0.00570409
0.000406158
0.00551312
0.000390053
0.00532959
0.000375073
0.00515298
0.000361111
0.00498282
0.000348118
0.00481867
0.000335996
0.00466013
0.000324725
0.00450681
0.000314201
0.00435835
0.000304436
0.00421442
0.000295316
0.00407469
0.000286889
0.00393887
0.000279016
0.00380666
0.000271794
0.00367781
0.000265045
0.00355203
0.000258922
0.00342909
0.000253197
0.00330873
0.000248091
0.00319076
0.000243305
0.00307489
0.000239152
0.00296097
0.000235234
0.00284872
0.000231984
0.00273803
0.000228872
0.00262859
0.00022648
0.00252033
0.000224106
0.00241292
0.000222538
0.00230636
0.000220842
0.00220027
0.000220073
0.0020947
0.000218986
0.00198926
0.000218967
0.00188407
0.00021838
0.00177868
0.000219042
0.00167334
0.00021882
0.00156752
0.000220073
0.00146163
0.00022002
0.00135508
0.000221696
0.00124847
0.00022152
0.00114111
0.000223408
0.00103384
0.000222785
0.000925862
0.000224648
0.000818325
0.000223159
0.000710284
0.000224647
0.000603288
0.000221747
0.000496172
0.000222498
0.000390924
0.000217718
0.000286048
0.000217489
0.000184013
0.000210618
8.30685e-05
0.000208793
-1.43253e-05
0.000200618
-0.000108946
0.000195494
-0.000200987
0.000188793
-0.000285637
0.000174597
-0.000371597
0.00017485
-0.000447877
0.000159124
-0.000513417
0.00012812
-0.000604909
0.000195627
-0.000615266
8.53615e-06
-0.000765134
0.000317374
-0.000719745
-9.15738e-05
-0.000782231
9.62548e-05
-0.000903493
0.000295529
-0.000820568
-0.000219272
-0.00105859
0.000563299
-0.000712148
-0.000829481
-0.00158522
0.00196935
-0.000682288
-0.00200227
-0.00122363
0.00103206
-0.0021412
0.00240211
0.000264311
-0.00564825
-0.00388814
0.00932841
-0.000936595
-0.00653223
-0.00185998
0.00155883
-0.00487175
0.00793845
0.00246124
-0.0170141
-0.00906115
0.0250542
-0.00635878
-0.00490385
0.00123479
-0.017997
-0.00615734
0.0172112
0.00214393
-0.0177174
0.00358617
-0.00437786
0.0108683
0.0493837
0.013541
-0.0481905
0.0503455
0.0145594
0.0503615
0.0147074
0.0493368
0.0140941
0.0474894
0.0130311
0.0451119
0.0117599
0.0424762
0.0104454
0.0397889
0.00919315
0.0371849
0.00805833
0.0347385
0.0070619
0.0324821
0.00620342
0.0304215
0.00547141
0.0285482
0.00484986
0.0268472
0.00432208
0.0253014
0.00387269
0.0238939
0.00348835
0.0226089
0.00315792
0.0214323
0.00287223
0.0203519
0.00262382
0.0193567
0.00240662
0.0184373
0.0022157
0.0175856
0.00204703
0.0167945
0.00189729
0.0160577
0.00176377
0.0153699
0.00164421
0.0147263
0.00153671
0.0141229
0.00143972
0.0135558
0.0013519
0.013022
0.00127214
0.0125185
0.00119947
0.0120427
0.00113309
0.0115924
0.00107229
0.0111656
0.00101648
0.0107603
0.00096513
0.010375
0.000917791
0.0100081
0.000874068
0.00965827
0.000833621
0.00932428
0.000796143
0.009005
0.000761376
0.00869939
0.000729075
0.0084065
0.000699049
0.00812546
0.000671094
0.00785546
0.000645073
0.00759576
0.000620813
0.00734567
0.000598219
0.00710453
0.000577134
0.00687175
0.000557509
0.00664677
0.000539185
0.00642905
0.000522161
0.00621811
0.000506263
0.00601346
0.000491546
0.00581467
0.000477808
0.0056213
0.000465167
0.00543298
0.000453375
0.00524928
0.000442627
0.00506988
0.000432606
0.00489437
0.000423607
0.00472246
0.000415214
0.00455377
0.000407849
0.00438805
0.000400966
0.00422489
0.000395146
0.0040641
0.000389665
0.00390527
0.000385311
0.00374826
0.000381124
0.00359263
0.000378173
0.00343829
0.000375183
0.00328478
0.000373588
0.00313208
0.000371685
0.00297969
0.00037136
0.0028277
0.00037037
0.00267555
0.000371198
0.00252347
0.000370907
0.00237081
0.00037273
0.00221801
0.00037282
0.00206436
0.000375353
0.00191052
0.000375355
0.00175569
0.000378238
0.00160085
0.000377626
0.00144505
0.000380448
0.00128968
0.00037853
0.00113364
0.000380691
0.000978816
0.000376573
0.000823858
0.000377457
0.000671228
0.00037035
0.000519171
0.000369547
0.000370789
0.000359001
0.000223977
0.000355606
8.19766e-05
0.00034262
-5.60391e-05
0.000333511
-0.000190758
0.000323513
-0.000314967
0.000298808
-0.000441254
0.000301138
-0.000552862
0.000270734
-0.00065214
0.0002274
-0.000782193
0.000325681
-0.00080726
3.36059e-05
-0.00101565
0.000525766
-0.000957498
-0.000149724
-0.00106205
0.000200811
-0.00121678
0.000450264
-0.00111978
-0.000316275
-0.00142873
0.000872248
-0.000996052
-0.00126215
-0.0021327
0.00310599
-0.000955884
-0.00317908
-0.00175513
0.00183132
-0.00278559
0.00343255
0.000246058
-0.00867988
-0.00519172
0.0147662
-0.00130077
-0.0104232
-0.00282253
0.00308063
-0.00607146
0.0111873
0.00331169
-0.0263972
-0.0122507
0.0406166
-0.00813804
-0.00901655
0.00116152
-0.0272966
-0.00796686
0.0263396
0.00355563
-0.0292399
0.00460383
-0.00542603
0.0177059
0.0528416
0.0126438
-0.0519443
0.0538687
0.0135323
0.054551
0.0140252
0.0546181
0.014027
0.0540173
0.0136318
0.052818
0.0129592
0.0511496
0.0121138
0.0491586
0.0111842
0.0469797
0.0102372
0.0447237
0.00931796
0.0424727
0.00845441
0.0402829
0.00766122
0.0381888
0.00694393
0.0362089
0.00630192
0.0343507
0.00573095
0.0326142
0.00522486
0.0309953
0.0047768
0.0294876
0.00437994
0.0280835
0.0040279
0.0267752
0.00371494
0.0255549
0.00343597
0.0244153
0.00318659
0.0233496
0.00296299
0.0223515
0.00276189
0.0214152
0.00258048
0.0205356
0.00241635
0.0197078
0.00226743
0.0189278
0.00213196
0.0181915
0.00200838
0.0174956
0.00189539
0.0168369
0.00179184
0.0162124
0.00169673
0.0156197
0.00160919
0.0150564
0.00152846
0.0145203
0.00145389
0.0140095
0.00138489
0.0135221
0.00132095
0.0130567
0.00126162
0.0126115
0.00120651
0.0121854
0.00115524
0.0117769
0.00110753
0.0113849
0.00106306
0.0110084
0.00102163
0.0106462
0.000982964
0.0102975
0.000946918
0.00996139
0.000913256
0.00963701
0.000881889
0.00932362
0.000852586
0.00902046
0.000825324
0.00872687
0.000799861
0.00844217
0.000776246
0.00816578
0.000754205
0.00789708
0.000733874
0.00763554
0.000714919
0.00738059
0.000697583
0.00713176
0.000681443
0.00688851
0.000666872
0.0066504
0.000653322
0.00641693
0.000641333
0.00618771
0.000630188
0.00596222
0.000620637
0.00574016
0.000611731
0.00552099
0.000604493
0.00530445
0.000597662
0.00508999
0.000592636
0.00487744
0.000587739
0.00466619
0.000584846
0.00445616
0.000581716
0.0042467
0.000580823
0.00403787
0.000579206
0.00382894
0.00058013
0.00362014
0.00057971
0.00341067
0.000582204
0.00320098
0.000582504
0.00299021
0.000586128
0.00277912
0.000586449
0.00256671
0.000590647
0.00235414
0.000590192
0.00214028
0.000594314
0.00192678
0.000592029
0.00171234
0.000595133
0.00149925
0.000589659
0.00128593
0.000590783
0.00107539
0.000580893
0.000865558
0.000579377
0.000660296
0.000564265
0.000457087
0.000558816
0.000260067
0.000539641
6.82612e-05
0.000525318
-0.000119187
0.000510963
-0.000292767
0.00047239
-0.000469078
0.00047745
-0.000625062
0.000426719
-0.000767208
0.000369547
-0.000944046
0.000502521
-0.000991812
8.13747e-05
-0.00126679
0.000800743
-0.00120022
-0.000216289
-0.00135821
0.0003588
-0.00154839
0.000640446
-0.00144207
-0.000422593
-0.00182749
0.00125766
-0.00131296
-0.00177667
-0.00271592
0.00450894
-0.00127069
-0.00462431
-0.00236332
0.00292397
-0.00345232
0.00452152
0.000171476
-0.0123037
-0.00655291
0.0214906
-0.00172216
-0.015254
-0.00400039
0.00535891
-0.00720782
0.0143947
0.00423294
-0.0378379
-0.0155314
0.060381
-0.00990522
-0.0146428
0.000721062
-0.0379228
-0.0097203
0.0367809
0.00538126
-0.0443415
0.00559996
-0.00564469
0.0264527
0.0565613
0.0119574
-0.0558749
0.0574139
0.0126797
0.0582094
0.0132297
0.0587349
0.0135016
0.058868
0.0134987
0.0585631
0.0132641
0.0578294
0.0128475
0.0567148
0.0122987
0.0552879
0.0116641
0.0536242
0.0109817
0.051797
0.0102816
0.0498718
0.0095864
0.0479033
0.00891244
0.0459344
0.00827073
0.0439974
0.00766801
0.0421145
0.0071077
0.0403006
0.00659074
0.0385642
0.00611634
0.0369095
0.00568256
0.0353376
0.00528679
0.0338475
0.00492611
0.0324366
0.00459751
0.0311015
0.00429802
0.0298385
0.00402485
0.0286436
0.0037754
0.0275126
0.00354731
0.0264416
0.00333844
0.0254267
0.00314686
0.0244642
0.00297087
0.0235507
0.00280894
0.0226828
0.0026597
0.0218576
0.00252194
0.0210722
0.00239459
0.020324
0.00227669
0.0196105
0.0021674
0.0189294
0.00206595
0.0182787
0.00197167
0.0176563
0.00188396
0.0170606
0.00180229
0.0164896
0.00172616
0.015942
0.00165516
0.0154162
0.00158888
0.0149108
0.00152701
0.0144246
0.00146919
0.0139563
0.0014152
0.0135048
0.00136472
0.0130691
0.00131761
0.0126482
0.00127355
0.012241
0.00123249
0.0118467
0.00119412
0.0114645
0.00115846
0.0110936
0.00112517
0.0107331
0.00109438
0.0103823
0.00106568
0.0100406
0.00103935
0.00970717
0.00101485
0.00938142
0.000992631
0.00906275
0.000971999
0.00875046
0.000953629
0.00844405
0.000936601
0.00814283
0.000921863
0.00784637
0.000908199
0.00755396
0.000896906
0.00726525
0.000886376
0.0069795
0.000878383
0.00669646
0.000870785
0.00641534
0.000865975
0.00613598
0.000861076
0.00585755
0.000859255
0.00558006
0.000856701
0.00530259
0.000857607
0.00502534
0.000856955
0.00474732
0.000860228
0.00446902
0.000860804
0.00418935
0.000865808
0.00390917
0.000866623
0.00362727
0.000872551
0.003345
0.000872463
0.00306096
0.00087835
0.00277716
0.000875833
0.002492
0.000880296
0.00220827
0.00087339
0.00192405
0.000875006
0.00164304
0.000861902
0.00136276
0.000859653
0.001088
0.000839035
0.000815704
0.000831109
0.000551126
0.000804221
0.000292797
0.000783648
4.04516e-05
0.00076331
-0.000194241
0.000707084
-0.000432544
0.000715754
-0.000643979
0.000638156
-0.000840248
0.000565818
-0.00107389
0.000736166
-0.00115445
0.000161939
-0.00150541
0.0011517
-0.00143712
-0.000284581
-0.00166143
0.00058312
-0.00188956
0.000868579
-0.00178139
-0.00053077
-0.00224938
0.00172566
-0.00165837
-0.00236767
-0.00332908
0.00617964
-0.00162517
-0.00632822
-0.00304174
0.00434057
-0.00414341
0.00562317
1.65136e-05
-0.0164636
-0.00795
0.0294571
-0.00220056
-0.0210034
-0.00539279
0.00855119
-0.00830983
0.0173117
0.00520651
-0.0513542
-0.0187647
0.0843523
-0.0116544
-0.0217532
-0.000186685
-0.0493905
-0.0114127
0.0480069
0.00758625
-0.0633405
0.00657243
-0.00463083
0.0371574
0.0605661
0.0113947
-0.0600034
0.0612498
0.0119959
0.0619636
0.0125159
0.0625847
0.0128805
0.0630156
0.0130678
0.0631922
0.0130876
0.0630788
0.0129608
0.0626651
0.0127124
0.0619613
0.012368
0.0609919
0.0119511
0.0597915
0.011482
0.0583998
0.0109781
0.056858
0.0104542
0.0552063
0.00992242
0.0534817
0.0093927
0.0517164
0.00887294
0.049938
0.00836919
0.0481684
0.00788588
0.046425
0.00742598
0.0447205
0.00699124
0.0430642
0.00658243
0.0414621
0.00619955
0.0399181
0.00584204
0.038434
0.00550894
0.0370104
0.00519903
0.0356467
0.00491097
0.0343418
0.00464335
0.0330939
0.00439474
0.031901
0.00416376
0.0307608
0.0039491
0.029671
0.00374949
0.0286292
0.00356378
0.0276329
0.00339088
0.0266798
0.0032298
0.0257676
0.00307962
0.024894
0.0029395
0.024057
0.00280868
0.0232545
0.00268647
0.0224846
0.00257223
0.0217454
0.00246538
0.0210351
0.00236541
0.0203522
0.00227182
0.019695
0.00218421
0.019062
0.00210215
0.0184519
0.00202534
0.0178633
0.00195337
0.0172948
0.00188606
0.0167454
0.00182301
0.0162137
0.00176414
0.0156988
0.00170902
0.0151996
0.00165771
0.014715
0.00160974
0.0142441
0.00156528
0.013786
0.0015238
0.0133397
0.00148563
0.0129045
0.0014501
0.0124794
0.00141777
0.0120636
0.00138775
0.0116564
0.00136088
0.011257
0.00133601
0.0108645
0.00131431
0.0104785
0.00129426
0.0100979
0.00127748
0.00972234
0.00126194
0.00935085
0.00124988
0.00898305
0.00123859
0.00861795
0.00123108
0.00825531
0.00122372
0.00789406
0.00122051
0.00753415
0.00121662
0.00717441
0.00121735
0.00681505
0.00121632
0.00645478
0.0012205
0.00609417
0.00122142
0.00573181
0.00122817
0.00536872
0.00122971
0.00500336
0.00123791
0.00463733
0.00123849
0.0042689
0.00124678
0.00390045
0.00124428
0.00353003
0.00125072
0.00316101
0.00124241
0.00279103
0.00124498
0.00242464
0.0012283
0.00205881
0.00122548
0.00169943
0.00119841
0.00134283
0.00118771
0.000995614
0.00115144
0.000655733
0.00112353
0.000324087
0.00109496
1.4342e-05
0.00101683
-0.000301733
0.00103183
-0.000581981
0.000918406
-0.000846322
0.000830161
-0.00114897
0.00103881
-0.00127506
0.000288032
-0.00171306
0.00158971
-0.0016525
-0.000345144
-0.00195781
0.00088844
-0.00222738
0.00113815
-0.00212826
-0.000629888
-0.0026853
0.00228269
-0.00202456
-0.00302839
-0.00396383
0.00811889
-0.00201411
-0.00827794
-0.00377928
0.00610577
-0.0048604
0.00670426
-0.000142518
-0.0211814
-0.00936277
0.0386773
-0.00273239
-0.0276338
-0.00698159
0.0128005
-0.0094175
0.0197475
0.00619772
-0.0669694
-0.0218084
0.112358
-0.0133616
-0.0302
-0.00141753
-0.0613345
-0.0130783
0.0596677
0.0100712
-0.08649
0.00752955
-0.00208917
0.0498028
0.0648498
0.0109106
-0.0643656
0.0654146
0.0114311
0.0660216
0.0119089
0.0666056
0.0122965
0.067104
0.0125694
0.0674683
0.0127233
0.067663
0.0127661
0.0676642
0.0127112
0.0674587
0.0125735
0.0670422
0.0123675
0.0664185
0.0121057
0.065598
0.0117986
0.0645966
0.0114556
0.0634342
0.0110848
0.0621334
0.0106934
0.0607185
0.0102878
0.0592138
0.00987395
0.0576426
0.00945702
0.0560269
0.00904174
0.0543859
0.00863216
0.0527367
0.00823164
0.0510934
0.00784289
0.0494675
0.00746794
0.0478682
0.00710823
0.0463025
0.00676467
0.0447757
0.00643773
0.0432916
0.00612754
0.0418524
0.00583392
0.0404596
0.00555651
0.0391139
0.00529481
0.0378152
0.00504817
0.036563
0.00481593
0.0353566
0.00459737
0.0341946
0.00439176
0.0330758
0.00419839
0.0319988
0.00401654
0.0309619
0.00384555
0.0299636
0.00368477
0.0290022
0.00353361
0.0280761
0.00339146
0.0271837
0.00325782
0.0263234
0.00313215
0.0254936
0.00301404
0.0246927
0.00290299
0.0239194
0.00279868
0.0231721
0.00270064
0.0224495
0.00260866
0.0217503
0.00252227
0.021073
0.00244139
0.0204166
0.00236549
0.0197796
0.00229465
0.0191611
0.00222828
0.0185598
0.00216663
0.0179746
0.00210899
0.0174044
0.00205582
0.0168482
0.00200626
0.016305
0.00196101
0.0157738
0.00191896
0.0152535
0.00188116
0.0147434
0.00184617
0.0142422
0.00181545
0.0137494
0.0017871
0.0132637
0.00176315
0.0127846
0.00174106
0.0123109
0.00172361
0.0118421
0.00170744
0.0113768
0.0016963
0.0109149
0.00168566
0.0104549
0.0016805
0.00999676
0.00167478
0.00953897
0.00167514
0.00908172
0.00167358
0.0086234
0.00167882
0.00816462
0.00168021
0.00770362
0.00168917
0.00724157
0.00169176
0.00677653
0.00170296
0.00631038
0.00170464
0.00584095
0.00171622
0.0053711
0.00171413
0.00489836
0.00172345
0.00442684
0.00171394
0.00395359
0.00171823
0.00348414
0.00169775
0.00301482
0.00169481
0.00255285
0.00166038
0.00209375
0.00164682
0.00164579
0.0015994
0.00120615
0.00156318
0.000777135
0.00152397
0.000371575
0.00142239
-3.81932e-05
0.0014416
-0.000402013
0.00128223
-0.000751965
0.00118012
-0.00113839
0.00142524
-0.00132594
0.000475589
-0.00186433
0.00212809
-0.00182413
-0.000385345
-0.00222727
0.00129159
-0.00254338
0.00145426
-0.00246849
-0.000704768
-0.00312117
0.00293537
-0.00239957
-0.00374998
-0.00460832
0.0103276
-0.00242737
-0.0104589
-0.00455929
0.00823772
-0.00560249
0.00774742
-0.000369172
-0.0264147
-0.0107757
0.0490838
-0.00331002
-0.0350995
-0.00872693
0.0182174
-0.0105718
0.0215923
0.00715923
-0.0847005
-0.0245366
0.144054
-0.0149736
-0.039763
-0.00314642
-0.0731616
-0.0147727
0.071294
0.0126802
-0.113943
0.00849301
0.00209807
0.0642912
0.0694212
0.0104834
-0.068994
0.0699042
0.010948
0.0704242
0.0113889
0.0709453
0.0117753
0.0714281
0.0120867
0.0718386
0.0123127
0.0721509
0.0124538
0.0723456
0.0125165
0.0724085
0.0125106
0.0723296
0.0124464
0.072102
0.0123333
0.0717218
0.0121788
0.0711884
0.011989
0.0705042
0.0117691
0.0696745
0.0115231
0.0687078
0.0112545
0.0676154
0.0109663
0.0664107
0.0106618
0.0651085
0.0103439
0.0637248
0.0100159
0.0622755
0.00968088
0.0607764
0.00934201
0.0592421
0.00900219
0.0576862
0.00866412
0.0561207
0.00833019
0.054556
0.00800243
0.053001
0.00768251
0.0514632
0.00737178
0.0499484
0.00707125
0.0484616
0.00678164
0.0470063
0.00650342
0.0455854
0.00623684
0.0442008
0.005982
0.0428537
0.00573882
0.041545
0.00550716
0.0402747
0.00528676
0.0390429
0.00507733
0.0378492
0.0048785
0.0366929
0.00468993
0.0355732
0.00451119
0.0344891
0.00434194
0.0334395
0.00418172
0.0324233
0.00403022
0.0314393
0.00388699
0.0304862
0.00375177
0.0295628
0.00362408
0.0286677
0.00350376
0.0277997
0.0033903
0.0269574
0.00328365
0.0261397
0.00318325
0.0253451
0.00308921
0.0245726
0.00300085
0.0238207
0.0029185
0.0230884
0.00284134
0.0223743
0.00276992
0.0216773
0.00270321
0.0209963
0.00264209
0.02033
0.00258521
0.0196773
0.00253386
0.0190372
0.00248628
0.0184084
0.00244429
0.01779
0.00240555
0.0171806
0.00237255
0.0165794
0.00234218
0.0159852
0.00231789
0.0153971
0.00229551
0.0148137
0.00227971
0.0142345
0.00226484
0.0136579
0.00225713
0.0130837
0.00224904
0.0125099
0.00224888
0.0119369
0.00224661
0.0113625
0.00225318
0.0107875
0.00225522
0.0102097
0.00226705
0.00963027
0.00227115
0.0090469
0.00228633
0.00846179
0.00228974
0.00787218
0.00230583
0.0072815
0.00230481
0.00668664
0.00231832
0.00609252
0.00230806
0.00549547
0.00231527
0.00490224
0.00229099
0.00430825
0.0022888
0.00372239
0.00224624
0.00313911
0.0022301
0.0025688
0.00216971
0.00200751
0.00212447
0.00145958
0.00207191
0.00093758
0.00194439
0.000415706
0.00196348
-5.32602e-05
0.00175119
-0.000512862
0.00163972
-0.00100067
0.00191305
-0.00126962
0.00074454
-0.00192469
0.00278317
-0.0019211
-0.000388934
-0.00244169
0.00181219
-0.00281172
0.00182429
-0.0027814
-0.000735085
-0.00353636
0.00369032
-0.00276586
-0.00452045
-0.00524573
0.0128075
-0.00284848
-0.0128561
-0.00535898
0.0107483
-0.00636339
0.00875179
-0.000661206
-0.0321168
-0.0121784
0.0606009
-0.00392203
-0.0433559
-0.0105678
0.0248633
-0.0118008
0.0228252
0.00804229
-0.104543
-0.0268515
0.178948
-0.0163898
-0.0502249
-0.00521561
-0.0843356
-0.0165141
0.0825924
0.0152411
-0.145698
0.00949766
0.00784156
0.0804228
0.0742998
0.0101007
-0.0739171
0.0747237
0.0105241
0.0751778
0.0109348
0.0756414
0.0113117
0.0760886
0.0116394
0.0764949
0.0119065
0.0768404
0.0121082
0.0771106
0.0122463
0.0772951
0.0123261
0.0773865
0.012355
0.077379
0.0123408
0.0772675
0.0122903
0.0770476
0.0122089
0.0767153
0.0121013
0.0762676
0.0119708
0.0757026
0.0118195
0.0750199
0.011649
0.0742213
0.0114603
0.0733108
0.0112544
0.0722943
0.0110324
0.0711798
0.0107954
0.0699767
0.010545
0.0686958
0.0102831
0.0673485
0.0100115
0.0659463
0.0097324
0.0645007
0.00944801
0.0630227
0.00916047
0.0615227
0.00887181
0.06001
0.00858395
0.058493
0.00829858
0.0569792
0.00801721
0.055475
0.0077411
0.0539857
0.00747132
0.0525158
0.0072087
0.051069
0.00695393
0.0496483
0.00670748
0.0482559
0.00646973
0.0468935
0.00624088
0.0455623
0.0060211
0.0442632
0.00581037
0.0429964
0.00560873
0.0417621
0.00541601
0.0405601
0.00523217
0.0393902
0.00505696
0.0382516
0.00489033
0.0371438
0.0047319
0.0360659
0.00458169
0.0350169
0.00443922
0.033996
0.00430459
0.033002
0.00417722
0.0320339
0.00405736
0.0310905
0.00394428
0.0301705
0.00383844
0.029273
0.0037389
0.0283965
0.00364643
0.0275399
0.00355978
0.0267019
0.0034801
0.0258814
0.00340575
0.0250769
0.00333838
0.0242873
0.00327582
0.0235113
0.00322035
0.0227477
0.00316912
0.021995
0.00312521
0.0212524
0.00308483
0.0205181
0.00305223
0.0197913
0.00302229
0.0190702
0.00300079
0.0183543
0.00298077
0.0176415
0.00296996
0.0169315
0.00295901
0.0162221
0.00295826
0.0155135
0.00295524
0.0148031
0.00296357
0.0140917
0.00296662
0.0133765
0.00298225
0.0126591
0.00298856
0.0119363
0.00300908
0.0112109
0.00301518
0.0104793
0.00303746
0.00974555
0.00303854
0.00900577
0.00305809
0.00826589
0.00304794
0.00752128
0.00305989
0.00678009
0.00303218
0.00603665
0.00303223
0.00530184
0.00298105
0.00456878
0.00296316
0.00385043
0.00288806
0.00314136
0.00283354
0.00244867
0.00276459
0.00178411
0.00260896
0.00112379
0.0026238
0.000518417
0.00235657
-7.25306e-05
0.00223067
-0.000680371
0.00252089
-0.00105572
0.00111989
-0.00184783
0.00357528
-0.00190091
-0.000335862
-0.00256241
0.00247369
-0.00299676
0.00225864
-0.0030375
-0.000694343
-0.00390139
0.00455421
-0.00309853
-0.0053233
-0.00585226
0.0155612
-0.0032528
-0.0154556
-0.00614851
0.013644
-0.00712815
0.00973138
-0.00100672
-0.0382382
-0.0135632
0.0731574
-0.00455138