/*--------------------------------*- C++ -*----------------------------------*\
| =========                 |                                                 |
| \\      /  F ield         | OpenFOAM: The Open Source CFD Toolbox           |
|  \\    /   O peration     | Version:  2412                                  |
|   \\  /    A nd           | Website:  www.openfoam.com                      |
|    \\/     M anipulation  |                                                 |
\*---------------------------------------------------------------------------*/
FoamFile
{
    version     2.0;
    format      ascii;
    arch        "LSB;label=32;scalar=64";
    class       volScalarField;
    location    "0.385";
    object      p;
}
// * * * * * * * * * * * * * * * * * * * * * * * * * * * * * * * * * * * * * //

dimensions      [0 2 -2 0 0 0 0];

internalField   nonuniform List<scalar> 
12600
(
0.0909597
-154.955
-205.224
-201.969
-189.421
-177.751
-167.519
-158.364
-150.07
-142.472
-135.442
-128.882
-122.72
-116.896
-111.365
-106.089
-101.036
-96.1811
-91.5009
-86.9773
-82.594
-78.3371
-74.1947
-70.1559
-66.2114
-62.3528
-58.5728
-54.8645
-51.2221
-47.6401
-44.1134
-40.6375
-37.2084
-33.8223
-30.4757
-27.1652
-23.8881
-20.6413
-17.4223
-14.2287
-11.058
-7.90815
-4.77706
-1.66275
1.43663
4.52294
7.59779
10.6629
13.7197
16.7698
19.8144
22.8551
25.8929
28.9295
31.9655
35.0027
38.0414
41.0834
44.1288
47.1792
50.2345
53.2964
56.3645
59.4403
62.5235
65.6147
68.7142
71.8214
74.938
78.0619
81.1953
84.3352
87.4847
90.6406
93.8041
96.9732
100.146
103.323
106.5
109.673
112.846
116.008
119.185
122.342
125.52
128.641
131.772
134.885
138.02
141.174
144.288
147.387
150.491
153.641
156.939
160.119
163.134
166.391
170.076
174.566
179.304
184.708
191.474
199.681
207.993
215.047
220.698
225.217
229.385
234.083
238.461
243.819
247.788
253.691
256.537
260.496
259.507
257.327
253.701
245.519
-24.0849
-123.99
-171.59
-181.232
-177.964
-171.153
-163.338
-155.507
-148.021
-140.954
-134.293
-128
-122.036
-116.363
-110.948
-105.762
-100.782
-95.9838
-91.35
-86.8639
-82.5113
-78.2795
-74.1577
-70.1359
-66.2055
-62.3586
-58.5882
-54.888
-51.2521
-47.6755
-44.1532
-40.681
-37.2548
-33.871
-30.5261
-27.2171
-23.9409
-20.6949
-17.4764
-14.2829
-11.1123
-7.96238
-4.83106
-1.7164
1.38342
4.47023
7.54565
10.6114
13.6689
16.7197
19.765
22.8064
25.845
28.8823
31.9191
34.957
37.9965
41.0393
44.0854
47.1366
50.1927
53.2553
56.3242
59.4007
62.4846
65.5765
68.6766
71.7846
74.9019
78.0264
81.1604
84.301
87.4511
90.6076
93.7717
96.9414
100.115
103.293
106.47
109.644
112.818
115.98
119.158
122.315
125.494
128.615
131.746
134.86
137.995
141.15
144.264
147.364
150.468
153.617
156.916
160.098
163.115
166.371
170.05
174.536
179.272
184.669
191.423
199.623
207.937
215.002
220.663
225.189
229.357
234.055
238.43
243.79
247.756
253.663
256.514
260.484
259.511
257.34
253.728
245.534
-40.9444
-102.502
-145.411
-162.915
-166.22
-163.543
-158.349
-152.146
-145.664
-139.24
-133.012
-127.024
-121.281
-115.773
-110.484
-105.396
-100.492
-95.7546
-91.1694
-86.7225
-82.4017
-78.196
-74.0955
-70.0913
-66.1753
-62.3404
-58.58
-54.888
-51.259
-47.688
-44.1704
-40.7019
-37.2789
-33.8976
-30.5547
-27.2473
-23.9724
-20.7273
-17.5094
-14.3165
-11.1461
-7.9963
-4.86498
-1.7502
1.34982
4.43691
7.51267
10.5788
13.6367
16.688
19.7338
22.7758
25.8149
28.8528
31.8901
34.9286
37.9687
41.012
44.0587
47.1105
50.1671
53.2303
56.2997
59.3768
62.4613
65.5536
68.6543
71.7628
74.8806
78.0056
81.1401
84.2812
87.4317
90.5887
93.7533
96.9234
100.098
103.275
106.453
109.627
112.802
115.964
119.143
122.3
125.479
128.602
131.733
134.847
137.982
141.137
144.252
147.353
150.456
153.606
156.904
160.088
163.104
166.359
170.037
174.521
179.255
184.65
191.398
199.594
207.909
214.979
220.645
225.175
229.343
234.041
238.414
243.775
247.739
253.648
256.501
260.477
259.515
257.348
253.741
245.542
-48.8704
-88.7198
-124.227
-144.8
-153.017
-154.289
-151.947
-147.691
-142.503
-136.944
-131.306
-125.731
-120.284
-114.995
-109.871
-104.91
-100.104
-95.4453
-90.9227
-86.5263
-82.2465
-78.0744
-74.0015
-70.0202
-66.1233
-62.3042
-58.5569
-54.876
-51.2562
-47.6928
-44.1816
-40.7186
-37.3
-33.9224
-30.5826
-27.2777
-24.0048
-20.7614
-17.5448
-14.3529
-11.1833
-8.03404
-4.90309
-1.78854
1.31137
4.39847
7.47433
10.5406
13.5988
16.6504
19.6965
22.7389
25.7784
28.8167
31.8546
34.8936
37.9342
40.978
44.0252
47.0775
50.1346
53.1983
56.2683
59.3459
62.4309
65.5237
68.625
71.734
74.8522
77.9777
81.1127
84.2543
87.4053
90.5627
93.7278
96.8983
100.073
103.251
106.429
109.604
112.779
115.942
119.121
122.279
125.458
128.581
131.713
134.827
137.962
141.118
144.233
147.334
150.438
153.587
156.885
160.071
163.088
166.341
170.015
174.497
179.229
184.617
191.354
199.546
207.866
214.945
220.618
225.153
229.32
234.018
238.389
243.751
247.714
253.626
256.483
260.469
259.52
257.36
253.764
245.553
-53.9057
-80.4308
-107.4
-127.115
-138.241
-142.989
-143.6
-141.615
-138.077
-133.688
-128.876
-123.891
-118.871
-113.897
-109.008
-104.226
-99.5597
-95.0094
-90.5729
-86.2456
-82.0216
-77.8949
-73.8593
-69.9088
-66.0373
-62.2395
-58.5099
-54.8437
-51.2363
-47.6833
-44.1809
-40.7251
-37.3127
-33.9402
-30.6047
-27.3033
-24.0333
-20.7923
-17.5777
-14.3873
-11.219
-8.0707
-4.94048
-1.82646
1.27311
4.36
7.43578
10.5021
13.5604
16.6122
19.6586
22.7013
25.7413
28.78
31.8183
34.8578
37.8989
40.9433
43.991
47.0438
50.1015
53.1658
56.2363
59.3145
62.4
65.4935
68.5953
71.7048
74.8236
77.9497
81.0852
84.2273
87.3789
90.5368
93.7024
96.8735
100.049
103.227
106.406
109.581
112.757
115.92
119.099
122.258
125.438
128.562
131.694
134.808
137.944
141.1
144.216
147.317
150.421
153.569
156.868
160.056
163.072
166.324
169.994
174.474
179.204
184.587
191.315
199.502
207.825
214.912
220.593
225.132
229.299
233.996
238.365
243.729
247.689
253.604
256.466
260.462
259.526
257.373
253.785
245.564
-57.1688
-75.3437
-94.9915
-111.904
-123.759
-130.677
-133.712
-133.929
-132.214
-129.239
-125.491
-121.297
-116.867
-112.334
-107.78
-103.253
-98.7841
-94.3879
-90.073
-85.8424
-81.6962
-77.6325
-73.6482
-69.7398
-65.9032
-62.1342
-58.4287
-54.7825
-51.1919
-47.6531
-44.1625
-40.7167
-37.3127
-33.9472
-30.6177
-27.3213
-24.0555
-20.8179
-17.6062
-14.4182
-11.2518
-8.10508
-4.97611
-1.86307
1.23574
4.32208
7.39748
10.4636
13.5218
16.5736
19.6201
22.663
25.7032
28.7422
31.7809
34.8208
37.8623
40.9071
43.9554
47.0087
50.0669
53.1317
56.2028
59.2814
62.3675
65.4615
68.5638
71.6739
74.7933
77.9199
81.056
84.1986
87.3507
90.5092
93.6752
96.8468
100.023
103.202
106.381
109.557
112.733
115.896
119.076
122.235
125.416
128.54
131.672
134.788
137.923
141.079
144.196
147.298
150.402
153.55
156.848
160.038
163.055
166.305
169.971
174.448
179.175
184.551
191.269
199.453
207.781
214.877
220.565
225.109
229.274
233.972
238.339
243.704
247.662
253.582
256.448
260.456
259.533
257.387
253.809
245.576
-58.76
-71.7962
-86.1522
-99.8751
-110.974
-118.684
-123.228
-125.174
-125.12
-123.598
-121.045
-117.801
-114.114
-110.159
-106.053
-101.876
-97.6805
-93.4999
-89.3559
-85.2618
-81.2252
-77.25
-73.3378
-69.4884
-65.7002
-61.9713
-58.2991
-54.6807
-51.1133
-47.5939
-44.1196
-40.6876
-37.2951
-33.9395
-30.6182
-27.3288
-24.0688
-20.8362
-17.6286
-14.4441
-11.2806
-8.1362
-5.00919
-1.89773
1.19981
4.28515
7.35977
10.4253
13.4831
16.5346
19.5811
22.624
25.6642
28.7034
31.7423
34.7825
37.8243
40.8696
43.9182
46.972
50.0307
53.096
56.1676
59.2468
62.3334
65.4279
68.5308
71.6414
74.7613
77.8885
81.0251
84.1683
87.3209
90.4799
93.6465
96.8187
99.9949
103.175
106.355
109.531
112.708
115.871
119.052
122.211
125.392
128.517
131.65
134.766
137.901
141.058
144.175
147.278
150.381
153.529
156.828
160.02
163.037
166.284
169.945
174.42
179.144
184.513
191.22
199.401
207.734
214.841
220.537
225.085
229.249
233.947
238.311
243.678
247.634
253.558
256.43
260.45
259.542
257.404
253.835
245.587
-59.1866
-68.9707
-79.7156
-90.5882
-100.254
-107.805
-113.02
-116.078
-117.305
-117.052
-115.656
-113.41
-110.556
-107.281
-103.726
-99.9923
-96.1525
-92.2579
-88.3444
-84.4365
-80.5509
-76.6986
-72.8868
-69.1196
-65.3993
-61.7264
-58.1007
-54.521
-50.9859
-47.4936
-44.0421
-40.6292
-37.2529
-33.9109
-30.6011
-27.3214
-24.0697
-20.8439
-17.6423
-14.4626
-11.3033
-8.1624
-5.03828
-1.92922
1.16634
4.25007
7.3234
10.3879
13.4449
16.4959
19.5419
22.5845
25.6246
28.6638
31.7028
34.7431
37.7852
40.8307
43.8797
46.9339
49.993
53.0587
56.1308
59.2105
62.2976
65.3927
68.4961
71.6072
74.7277
77.8554
80.9926
84.1363
87.2895
90.4491
93.6162
96.7889
99.9657
103.146
106.327
109.504
112.681
115.845
119.026
122.186
125.368
128.493
131.626
134.742
137.878
141.035
144.153
147.256
150.36
153.507
156.807
160.001
163.017
166.261
169.917
174.389
179.11
184.471
191.167
199.345
207.685
214.804
220.508
225.06
229.222
233.919
238.281
243.65
247.603
253.532
256.411
260.445
259.552
257.423
253.864
245.599
-58.8971
-66.4781
-74.734
-83.3132
-91.42
-98.3089
-103.598
-107.227
-109.307
-110.031
-109.623
-108.303
-106.277
-103.721
-100.775
-97.5527
-94.1376
-90.5943
-86.9707
-83.3019
-79.6135
-75.9241
-72.247
-68.5915
-64.9637
-61.3679
-57.8063
-54.2803
-50.7901
-47.3355
-43.9156
-40.5294
-37.1756
-33.8526
-30.5589
-27.2928
-24.0526
-20.8367
-17.6432
-14.4706
-11.3172
-8.18131
-5.06138
-1.95584
1.13679
4.21809
7.28941
10.3523
13.408
16.4579
19.5031
22.5451
25.5848
28.6237
31.6625
34.7028
37.745
40.7907
43.8399
46.8944
49.9538
53.0199
56.0924
59.1725
62.2602
65.3557
68.4596
71.5713
74.6923
77.8205
80.9583
84.1026
87.2563
90.4165
93.5842
96.7575
99.9349
103.116
106.297
109.475
112.652
115.817
118.999
122.159
125.342
128.468
131.601
134.718
137.853
141.011
144.13
147.233
150.337
153.483
156.784
159.981
162.996
166.236
169.887
174.356
179.074
184.425
191.108
199.285
207.634
214.765
220.477
225.033
229.193
233.889
238.249
243.62
247.571
253.506
256.391
260.441
259.564
257.444
253.897
245.612
-58.1341
-64.1242
-70.61
-77.4304
-84.1223
-90.1559
-95.1563
-98.9501
-101.513
-102.914
-103.274
-102.74
-101.467
-99.6
-97.2695
-94.5843
-91.6329
-88.4862
-85.1993
-81.8155
-78.3675
-74.8807
-71.374
-67.8619
-64.3548
-60.8606
-57.3846
-53.9307
-50.5014
-47.0981
-43.7216
-40.3722
-37.0494
-33.7528
-30.4814
-27.2343
-24.0102
-20.808
-17.6262
-14.4634
-11.3184
-8.18957
-5.07565
-1.97518
1.11319
4.1909
7.25923
10.3196
13.3733
16.4215
19.4654
22.5063
25.5452
28.5835
31.6219
34.6619
37.7039
40.7495
43.7988
46.8534
49.9131
52.9795
56.0524
59.1329
62.2209
65.3169
68.4213
71.5335
74.6551
77.7838
80.9221
84.067
87.2213
90.3821
93.5503
96.7243
99.9023
103.084
106.266
109.444
112.622
115.788
118.97
122.13
125.314
128.441
131.575
134.691
137.827
140.986
144.105
147.209
150.312
153.458
156.76
159.959
162.973
166.208
169.854
174.321
179.034
184.378
191.045
199.221
207.58
214.724
220.445
225.005
229.162
233.858
238.215
243.588
247.536
253.477
256.37
260.438
259.578
257.468
253.934
245.625
-57.0276
-61.8244
-67.0108
-72.4983
-78.0021
-83.167
-87.6918
-91.3814
-94.1414
-95.956
-96.8678
-96.9574
-96.3251
-95.0802
-93.3301
-91.1727
-88.6929
-85.962
-83.0387
-79.9705
-76.7954
-73.5436
-70.2388
-66.8997
-63.5408
-60.1732
-56.8055
-53.4441
-50.0937
-46.7578
-43.4388
-40.1384
-36.8575
-33.5966
-30.3557
-27.1345
-23.9326
-20.7493
-17.5837
-14.4347
-11.3014
-8.18257
-5.07713
-1.98386
1.09839
4.17094
7.23492
10.2917
13.3422
16.3879
19.4297
22.469
25.5064
28.5437
31.5812
34.6206
37.6621
40.7075
43.7566
46.8112
49.871
52.9375
56.0106
59.0915
62.1799
65.2763
68.3811
71.4938
74.6159
77.7452
80.884
84.0295
87.1843
90.3457
93.5146
96.6892
99.8678
103.05
106.233
109.411
112.591
115.756
118.939
122.1
125.285
128.413
131.547
134.663
137.799
140.959
144.079
147.183
150.286
153.431
156.734
159.936
162.948
166.179
169.818
174.282
178.993
184.317
190.977
199.153
207.523
214.682
220.412
224.975
229.129
233.824
238.179
243.553
247.499
253.448
256.349
260.437
259.594
257.496
253.975
245.639
-55.6593
-59.5423
-63.7488
-68.217
-72.7543
-77.1242
-81.1085
-84.5361
-87.2903
-89.3094
-90.5808
-91.1323
-91.0179
-90.3079
-89.0818
-87.42
-85.3977
-83.0819
-80.5307
-77.7932
-74.9101
-71.915
-68.8351
-65.6924
-62.5046
-59.2859
-56.0474
-52.7981
-49.5448
-46.2929
-43.0465
-39.8088
-36.5819
-33.3676
-30.1668
-26.9802
-23.8081
-20.6503
-17.5065
-14.3764
-11.2592
-8.15415
-5.06053
-1.97735
1.09631
4.16154
7.2193
10.2708
13.3169
16.3589
19.3975
22.4342
25.4695
28.505
31.5411
34.5794
37.6201
40.6648
43.7135
46.7679
49.8275
52.894
55.9672
59.0482
62.1369
65.2336
68.3389
71.452
74.5746
77.7044
80.8438
83.9898
87.1452
90.3073
93.4767
96.652
99.8313
103.015
106.198
109.377
112.557
115.723
118.906
122.068
125.254
128.383
131.517
134.634
137.769
140.93
144.052
147.156
150.258
153.402
156.707
159.912
162.921
166.146
169.778
174.24
178.941
184.26
190.904
199.081
207.463
214.638
220.377
224.944
229.094
233.788
238.141
243.517
247.46
253.416
256.327
260.437
259.612
257.527
254.023
245.653
-54.0903
-57.2618
-60.7108
-64.3865
-68.1451
-71.8254
-75.277
-78.3666
-80.9845
-83.0511
-84.5228
-85.3897
-85.67
-85.3996
-84.629
-83.417
-81.8246
-79.9102
-77.7277
-75.3248
-72.7427
-70.0167
-67.1763
-64.2461
-61.2463
-58.1936
-55.1015
-51.9809
-48.8408
-45.6882
-42.5288
-39.3672
-36.2068
-33.0505
-29.9003
-26.7577
-23.6238
-20.4992
-17.3842
-14.2789
-11.1833
-8.09683
-5.01922
-1.94981
1.11201
4.1671
7.21617
10.2603
13.3001
16.3367
19.3708
22.4037
25.4358
28.4687
31.5026
34.5391
37.5784
40.622
43.6698
46.7235
49.7827
52.849
55.9221
59.0031
62.092
65.1889
68.2945
71.408
74.531
77.6613
80.8012
83.9478
87.1038
90.2665
93.4366
96.6126
99.7926
102.977
106.16
109.341
112.521
115.688
118.872
122.034
125.221
128.351
131.485
134.603
137.738
140.9
144.022
147.127
150.229
153.372
156.678
159.886
162.892
166.111
169.735
174.193
178.903
184.195
190.825
199.004
207.4
214.592
220.34
224.91
229.056
233.75
238.1
243.479
247.418
253.383
256.303
260.438
259.633
257.562
254.078
245.669
-52.3684
-54.9753
-57.8262
-60.8751
-64.006
-67.1036
-70.0658
-72.7964
-75.2039
-77.21
-78.7577
-79.8155
-80.3752
-80.4473
-80.0563
-79.2388
-78.0387
-76.5028
-74.6771
-72.6051
-70.3264
-67.8759
-65.2842
-62.5774
-59.7776
-56.9036
-53.9708
-50.9921
-47.9781
-44.9376
-41.8776
-38.804
-35.7216
-32.6341
-29.5446
-26.4554
-23.3685
-20.2851
-17.2063
-14.1327
-11.0647
-8.00234
-4.9457
-1.8945
1.15153
4.19297
7.23025
10.2642
13.2953
16.3244
19.3522
22.3796
25.4072
28.4362
31.4669
34.5007
37.5378
40.5796
43.626
46.6786
49.737
52.8027
55.8754
58.9562
62.045
65.142
68.2478
71.3615
74.4849
77.6156
80.7561
83.9032
87.0598
90.2232
93.394
96.5708
99.7515
102.936
106.121
109.302
112.483
115.651
118.836
121.999
125.186
128.317
131.452
134.57
137.705
140.868
143.991
147.096
150.198
153.339
156.647
159.859
162.861
166.072
169.69
174.145
178.833
184.126
190.742
198.923
207.333
214.543
220.3
224.875
229.017
233.71
238.057
243.438
247.373
253.348
256.278
260.441
259.657
257.602
254.14
245.687
-50.5223
-52.6756
-55.0471
-57.5939
-60.216
-62.8265
-65.3564
-67.7389
-69.9034
-71.7816
-73.3157
-74.464
-75.2029
-75.525
-75.4351
-74.9499
-74.0961
-72.907
-71.4186
-69.6674
-67.6889
-65.516
-63.1784
-60.7028
-58.1123
-55.427
-52.6639
-49.8377
-46.9604
-44.0424
-41.0921
-38.1167
-35.1219
-32.1127
-29.0929
-26.0659
-23.0342
-19.9998
-16.9645
-13.9293
-10.8952
-7.86283
-4.83254
-1.80446
1.22131
4.24504
7.26688
10.2874
13.3068
16.3259
19.345
22.365
25.3861
28.4097
31.4358
34.4657
37.4995
40.5387
43.5829
46.6337
49.6907
52.7553
55.8272
58.9074
61.9959
65.0927
68.1985
71.3124
74.4361
77.5672
80.7081
83.8558
87.013
90.1771
93.3485
96.5261
99.7077
102.893
106.079
109.261
112.443
115.611
118.797
121.961
125.149
128.281
131.416
134.535
137.67
140.834
143.959
147.063
150.165
153.305
156.615
159.829
162.828
166.031
169.639
174.091
178.788
184.054
190.655
198.837
207.263
214.492
220.259
224.837
228.975
233.668
238.013
243.396
247.327
253.311
256.252
260.447
259.684
257.646
254.212
245.708
-48.5737
-50.359
-52.3417
-54.4813
-56.6879
-58.8928
-61.0485
-63.1103
-65.0263
-66.7408
-68.2014
-69.3653
-70.2013
-70.6909
-70.826
-70.608
-70.0485
-69.167
-67.9884
-66.5409
-64.8537
-62.9556
-60.8741
-58.6347
-56.2607
-53.7726
-51.1884
-48.5241
-45.793
-43.0068
-40.1752
-37.3067
-34.4081
-31.4853
-28.5432
-25.5859
-22.6167
-19.6385
-16.6533
-13.6629
-10.6689
-7.67212
-4.67353
-1.67359
1.32726
4.32898
7.33141
10.3349
13.3393
16.3453
19.353
22.3631
25.3757
28.3918
31.4115
34.4361
37.4653
40.5006
43.5415
46.5897
49.6444
52.7073
55.7778
58.857
61.9448
65.0412
68.1467
71.2606
74.3843
77.5157
80.6569
83.8052
86.9629
90.1277
93.2998
96.4784
99.6607
102.847
106.034
109.217
112.4
115.569
118.756
121.92
125.11
128.244
131.379
134.498
137.633
140.799
143.924
147.029
150.13
153.268
156.58
159.798
162.792
165.987
169.589
174.038
178.722
183.979
190.565
198.748
207.189
214.437
220.213
224.797
228.931
233.624
237.967
243.352
247.278
253.272
256.225
260.454
259.716
257.697
254.292
245.732
-46.5395
-48.0237
-49.688
-51.4937
-53.3585
-55.225
-57.0603
-58.8354
-60.5133
-62.0503
-63.4023
-64.5293
-65.3991
-65.9875
-66.279
-66.2649
-65.9447
-65.326
-64.4232
-63.2551
-61.8436
-60.2119
-58.3839
-56.3825
-54.2296
-51.9454
-49.5483
-47.0545
-44.4786
-41.8331
-39.1291
-36.3758
-33.5815
-30.7528
-27.8958
-25.0152
-22.1152
-19.1993
-16.2704
-13.3307
-10.3822
-7.42636
-4.46451
-1.49748
1.47393
4.44937
7.42838
10.411
13.397
16.3867
19.38
22.3774
25.3789
28.3855
31.3968
34.4141
37.437
40.4669
43.5033
46.5477
49.5992
52.6595
55.7279
58.8054
61.8919
64.9873
68.0923
71.2058
74.3294
77.4608
80.6023
83.751
86.9092
90.0748
93.2475
96.427
99.6102
102.798
105.986
109.169
112.354
115.524
118.712
121.877
125.069
128.203
131.339
134.459
137.593
140.761
143.888
146.993
150.094
153.23
156.543
159.765
162.755
165.941
169.529
173.977
178.664
183.903
190.474
198.656
207.111
214.377
220.163
224.754
228.884
233.578
237.921
243.307
247.229
253.231
256.197
260.464
259.752
257.753
254.382
245.759
-44.4329
-45.6688
-47.0699
-48.5996
-50.1809
-51.7644
-53.3268
-54.85
-56.3083
-57.6684
-58.8941
-59.9511
-60.809
-61.4425
-61.8323
-61.964
-61.8293
-61.4265
-60.7605
-59.8415
-58.6837
-57.3042
-55.7215
-53.9553
-52.0247
-49.9487
-47.7447
-45.4291
-43.0167
-40.5207
-37.9529
-35.3235
-32.6416
-29.9149
-27.1503
-24.3534
-21.5292
-18.6819
-15.815
-12.9314
-10.0337
-7.12369
-4.20325
-1.27359
1.66414
4.60927
7.56103
10.5192
13.4833
16.4535
19.4293
22.4113
25.3991
28.3935
31.3941
34.4021
37.4169
40.4398
43.4701
46.5092
49.5563
52.6129
55.6782
58.7532
61.8377
64.9316
68.0353
71.148
74.2712
77.4024
80.5439
83.6929
86.8515
90.0177
93.1912
96.3716
99.5557
102.745
105.933
109.118
112.305
115.475
118.665
121.831
125.024
128.161
131.297
134.418
137.552
140.722
143.85
146.955
150.057
153.19
156.505
159.73
162.715
165.894
169.479
173.916
178.603
183.829
190.385
198.563
207.028
214.312
220.108
224.707
228.836
233.532
237.875
243.262
247.179
253.189
256.168
260.478
259.793
257.816
254.481
245.789
-42.264
-43.294
-44.4761
-45.7756
-47.1202
-48.466
-49.7963
-51.1005
-52.3611
-53.5529
-54.6474
-55.6156
-56.431
-57.0698
-57.5114
-57.7395
-57.7409
-57.5078
-57.0378
-56.3336
-55.4024
-54.2548
-52.9039
-51.3648
-49.6535
-47.7862
-45.779
-43.6472
-41.4053
-39.0666
-36.6433
-34.1463
-31.5852
-28.9687
-26.3042
-23.5984
-20.8569
-18.0846
-15.2857
-12.4639
-9.62211
-6.76289
-3.88846
-1.00047
1.89951
4.81049
7.73135
10.6617
13.6006
16.5481
19.5035
22.4672
25.4386
28.4185
31.4061
34.4026
37.4072
40.4212
43.4436
46.476
49.5172
52.5687
55.6298
58.7013
61.7828
64.8743
67.9762
71.0876
74.2097
77.3404
80.4816
83.6306
86.7894
89.9562
93.1302
96.3117
99.4967
102.687
105.877
109.063
112.251
115.423
118.614
121.782
124.976
128.115
131.253
134.375
137.509
140.68
143.81
146.916
150.019
153.149
156.465
159.694
162.676
165.847
169.42
173.856
178.547
183.76
190.299
198.468
206.939
214.239
220.045
224.657
228.786
233.486
237.83
243.218
247.13
253.146
256.139
260.495
259.842
257.886
254.59
245.822
-40.0412
-40.8994
-41.8981
-43.0043
-44.1499
-45.2953
-46.4281
-47.5428
-48.628
-49.6648
-50.6306
-51.5019
-52.2563
-52.8725
-53.3311
-53.6152
-53.71
-53.604
-53.29
-52.7648
-52.0297
-51.0894
-49.9517
-48.6268
-47.1267
-45.4646
-43.6541
-41.7088
-39.6423
-37.4674
-35.196
-32.8392
-30.4071
-27.9089
-25.3526
-22.7456
-20.0941
-17.4038
-14.6795
-11.9254
-9.14524
-6.34198
-3.51838
-0.676538
2.18152
5.05447
7.94079
10.8398
13.7503
16.6721
19.6043
22.547
25.4995
28.4623
31.4346
34.4175
37.4098
40.4129
43.4257
46.4496
49.4834
52.5285
55.5839
58.6507
61.7281
64.8164
67.9156
71.0248
74.1453
77.2749
80.4153
83.5641
86.7227
89.8899
93.0643
96.2467
99.4325
102.624
105.815
109.003
112.193
115.367
118.56
121.729
124.925
128.067
131.206
134.331
137.464
140.638
143.769
146.877
149.981
153.108
156.425
159.658
162.637
165.804
169.371
173.8
178.496
183.699
190.222
198.375
206.844
214.156
219.972
224.601
228.734
233.44
237.788
243.176
247.085
253.104
256.111
260.518
259.898
257.965
254.708
245.858
-37.7711
-38.4855
-39.3295
-40.2724
-41.2498
-42.2255
-43.1901
-44.1414
-45.0723
-45.9689
-46.8132
-47.5865
-48.2701
-48.8458
-49.2965
-49.6058
-49.7589
-49.743
-49.5479
-49.1667
-48.5959
-47.8355
-46.8885
-45.7605
-44.4592
-42.9943
-41.3764
-39.6171
-37.7281
-35.721
-33.6071
-31.3973
-29.1017
-26.7295
-24.2893
-21.7888
-19.235
-16.6339
-13.9912
-11.3114
-8.59896
-5.85735
-3.08987
-0.299073
2.51255
5.34327
8.19119
11.0553
13.9341
16.8271
19.7331
22.6522
25.5831
28.5265
31.4812
34.4482
37.4262
40.4166
43.4178
46.4316
49.4563
52.4934
55.5418
58.6026
61.6748
64.7586
67.8541
70.9604
74.0785
77.2063
80.3453
83.4933
86.6514
89.8187
92.9932
96.1764
99.363
102.556
105.749
108.938
112.13
115.306
118.502
121.672
124.871
128.015
131.157
134.285
137.418
140.594
143.728
146.838
149.945
153.069
156.385
159.623
162.603
165.767
169.321
173.751
178.458
183.653
190.158
198.286
206.741
214.061
219.887
224.54
228.68
233.395
237.749
243.138
247.046
253.063
256.086
260.546
259.962
258.055
254.835
245.895
-35.4593
-36.0527
-36.7658
-37.5699
-38.4045
-39.2359
-40.0567
-40.8672
-41.6633
-42.4346
-43.1671
-43.8456
-44.4548
-44.9798
-45.4056
-45.7175
-45.9017
-45.9452
-45.8366
-45.5668
-45.1294
-44.5207
-43.7396
-42.7877
-41.669
-40.3893
-38.9562
-37.3785
-35.6656
-33.8277
-31.8748
-29.8169
-27.6637
-25.4245
-23.1077
-20.7213
-18.2727
-15.7683
-13.2143
-10.6158
-7.9776
-5.30381
-2.59823
0.136147
2.89633
5.68023
8.48548
11.3108
14.1542
17.0151
19.8917
22.7842
25.691
28.6125
31.5472
34.4962
37.4578
40.4334
43.4214
46.4232
49.4372
52.4649
55.5048
58.5582
61.6238
64.7021
67.7928
70.8951
74.0098
77.1351
80.272
83.4187
86.5757
89.7427
92.9169
96.1007
99.2877
102.482
105.676
108.868
112.062
115.241
118.439
121.611
124.812
127.961
131.105
134.237
137.372
140.551
143.687
146.8
149.912
153.033
156.349
159.592
162.575
165.742
169.294
173.716
178.438
183.628
190.112
198.202
206.63
213.951
219.787
224.47
228.624
233.349
237.712
243.103
247.013
253.026
256.066
260.582
260.036
258.156
254.97
245.931
-33.1105
-33.6018
-34.2037
-34.8894
-35.6019
-36.3101
-37.0079
-37.6971
-38.3757
-39.036
-39.667
-40.2565
-40.7921
-41.2614
-41.6519
-41.9507
-42.1455
-42.224
-42.1749
-41.9881
-41.6554
-41.1708
-40.5302
-39.732
-38.7767
-37.667
-36.4071
-35.0029
-33.4616
-31.791
-29.9997
-28.0964
-26.09
-23.989
-21.8019
-19.5365
-17.2002
-14.7998
-12.3417
-9.83145
-7.2744
-4.67496
-2.03748
0.63466
3.33795
6.06994
8.82779
11.6099
14.4139
17.2389
20.0829
22.9456
25.8252
28.7221
31.6343
34.563
37.506
40.465
43.4376
46.4259
49.4274
52.4441
55.474
58.5186
61.5764
64.6479
67.7326
70.83
73.9403
77.0622
80.1961
83.3408
86.496
89.6622
92.8357
96.0198
99.2068
102.402
105.598
108.792
111.988
115.17
118.371
121.546
124.75
127.904
131.052
134.19
137.325
140.509
143.648
146.766
149.884
153.003
156.319
159.569
162.561
165.739
169.284
173.702
178.443
183.632
190.091
198.126
206.509
213.823
219.668
224.39
228.564
233.303
237.676
243.071
246.988
252.993
256.052
260.628
260.121
258.27
255.116
245.964
-30.7287
-31.1336
-31.6406
-32.2248
-32.8327
-33.4353
-34.0274
-34.6119
-35.1883
-35.751
-36.291
-36.7985
-37.2636
-37.6761
-38.0255
-38.3012
-38.492
-38.5871
-38.5757
-38.4478
-38.1946
-37.8086
-37.2839
-36.6164
-35.8041
-34.8465
-33.7453
-32.5036
-31.1258
-29.6176
-27.9856
-26.237
-24.3793
-22.4203
-20.3676
-18.2288
-16.0112
-13.7214
-11.3662
-8.95119
-6.48212
-3.96373
-1.4008
1.20294
3.84348
6.51808
9.22337
11.9575
14.7176
17.5026
20.31
23.1395
25.9886
28.8579
31.7449
34.6507
37.5728
40.5129
43.4682
46.4409
49.4282
52.4323
55.4506
58.4851
61.5336
64.5972
67.6746
70.766
73.8709
76.9885
80.1185
83.2605
86.4131
89.578
92.75
95.9341
99.1208
102.317
105.514
108.71
111.909
115.094
118.299
121.477
124.683
127.843
130.997
134.142
137.279
140.468
143.612
146.737
149.865
152.984
156.298
159.558
162.564
165.749
169.307
173.717
178.483
183.673
190.101
198.062
206.377
213.675
219.526
224.297
228.499
233.256
237.638
243.041
246.969
252.965
256.044
260.684
260.216
258.399
255.27
245.994
-28.3175
-28.6492
-29.0749
-29.5716
-30.0895
-30.6013
-31.1025
-31.5965
-32.0841
-32.5609
-33.0199
-33.4531
-33.8523
-34.2092
-34.5154
-34.7618
-34.9388
-35.037
-35.0466
-34.9583
-34.7632
-34.4532
-34.0216
-33.4626
-32.7723
-31.9482
-30.9892
-29.8962
-28.6712
-27.3175
-25.8396
-24.2429
-22.5335
-20.7177
-18.8024
-16.7944
-14.7005
-12.5273
-10.2812
-7.96796
-5.59355
-3.16285
-0.68102
1.84797
4.41967
7.03106
9.67827
12.3593
15.0706
17.8111
20.5777
23.37
26.1851
29.0234
31.882
34.7621
37.6605
40.5793
43.5151
46.4703
49.4414
52.4312
55.4362
58.4591
61.4969
64.5513
67.6201
70.7044
73.8028
76.9151
80.0403
83.1788
86.328
89.4909
92.6608
95.8444
99.0302
102.228
105.424
108.623
111.825
115.014
118.222
121.404
124.614
127.781
130.94
134.095
137.236
140.432
143.58
146.716
149.856
152.976
156.292
159.562
162.593
165.827
169.371
173.771
178.565
183.758
190.147
198.011
206.234
213.504
219.362
224.189
228.428
233.205
237.598
243.009
246.953
252.938
256.043
260.751
260.321
258.543
255.433
246.019
-25.8799
-26.1494
-26.5053
-26.9266
-27.3667
-27.8
-28.2227
-28.6386
-29.0489
-29.4505
-29.8378
-30.204
-30.5426
-30.8469
-31.1098
-31.3238
-31.4809
-31.5728
-31.5911
-31.5271
-31.3726
-31.1196
-30.7608
-30.2898
-29.7015
-28.9916
-28.1576
-27.1979
-26.1127
-24.903
-23.5713
-22.1212
-20.5568
-18.8834
-17.1063
-15.2314
-13.2649
-11.2127
-9.08107
-6.8755
-4.60192
-2.26528
0.129043
2.57694
5.07355
7.61572
10.1991
12.8214
15.4787
18.1699
20.891
23.6419
26.4189
29.2226
32.0493
34.9006
37.7724
40.6673
43.5809
46.5163
49.4691
52.4426
55.4326
58.4422
61.4677
64.5115
67.5705
70.6465
73.7371
76.8433
79.9626
83.0968
86.2418
89.402
92.5691
95.7517
98.936
102.134
105.331
108.532
111.736
114.93
118.141
121.328
124.541
127.717
130.883
134.049
137.194
140.399
143.555
146.703
149.859
152.985
156.303
159.589
162.646
165.946
169.483
173.87
178.694
183.891
190.231
197.976
206.081
213.311
219.173
224.063
228.348
233.149
237.552
242.97
246.932
252.91
256.042
260.826
260.435
258.702
255.607
246.039
-23.4188
-23.6353
-23.9312
-24.2872
-24.6598
-25.0251
-25.3799
-25.728
-26.0711
-26.407
-26.7309
-27.0373
-27.3209
-27.5761
-27.7972
-27.9779
-28.1115
-28.191
-28.2091
-28.158
-28.0303
-27.8184
-27.5152
-27.1141
-26.6092
-25.9955
-25.2688
-24.4264
-23.4665
-22.3885
-21.193
-19.8815
-18.4567
-16.9221
-15.2818
-13.5403
-11.703
-9.77492
-7.76176
-5.66864
-3.50133
-1.26453
1.03621
3.39687
5.81222
8.2791
10.7926
13.3506
15.9485
18.585
21.2558
23.9606
26.6951
29.4602
32.2512
35.0702
37.9122
40.78
43.6688
46.5818
49.5139
52.469
55.4419
58.4365
61.4479
64.4796
67.5273
70.5938
73.6754
76.7744
79.8868
83.0158
86.1555
89.3125
92.4759
95.6571
98.8393
102.038
105.234
108.438
111.644
114.842
118.057
121.249
124.466
127.651
130.825
134.005
137.156
140.371
143.537
146.699
149.876
153.01
156.333
159.637
162.738
166.103
169.646
174.017
178.873
184.074
190.354
197.957
205.919
213.097
218.963
223.918
228.257
233.087
237.499
242.923
246.897
252.873
256.04
260.908
260.544
258.877
255.788
246.051
-20.9366
-21.1079
-21.3522
-21.6514
-21.9653
-22.2717
-22.5676
-22.8568
-23.1414
-23.4197
-23.6878
-23.9411
-24.1751
-24.3853
-24.5669
-24.7148
-24.8234
-24.8867
-24.8984
-24.8519
-24.7404
-24.5571
-24.2952
-23.9484
-23.5104
-22.9759
-22.3401
-21.5989
-20.7494
-19.7896
-18.7184
-17.5358
-16.2428
-14.8413
-13.334
-11.7241
-10.0158
-8.21301
-6.32087
-4.34374
-2.28705
-0.155088
2.04663
4.31431
6.6425
9.02815
11.466
13.9538
16.4865
19.0631
21.6782
24.3321
27.0195
29.7415
32.4927
35.2754
38.084
40.9216
43.7823
46.6701
49.5788
52.5131
55.4666
58.4442
61.4397
64.4576
67.4923
70.5479
73.6192
76.7099
79.8141
82.9371
86.0706
89.2235
92.3826
95.5618
98.7412
101.94
105.136
108.341
111.548
114.752
117.97
121.169
124.389
127.585
130.767
133.962
137.12
140.348
143.525
146.704
149.905
153.052
156.385
159.712
162.864
166.271
169.859
174.212
179.096
184.301
190.512
197.956
205.754
212.867
218.734
223.755
228.15
233.016
237.441
242.863
246.842
252.821
256.016
260.989
260.74
259.064
255.979
246.056
-18.4356
-18.5685
-18.7681
-19.0179
-19.2806
-19.5356
-19.7804
-20.0185
-20.252
-20.4799
-20.6989
-20.9051
-21.0947
-21.264
-21.4091
-21.5256
-21.609
-21.6541
-21.6555
-21.6076
-21.5045
-21.34
-21.1079
-20.8023
-20.4172
-19.947
-19.3866
-18.7313
-17.9775
-17.1218
-16.1623
-15.0973
-13.9267
-12.6506
-11.2705
-9.78815
-8.2065
-6.52844
-4.75809
-2.89895
-0.955941
1.0673
3.16543
5.33507
7.57067
9.86946
12.2258
14.6378
17.0997
19.6106
22.1648
24.7626
27.3978
30.0721
32.7791
35.5215
38.2926
41.0964
43.9256
46.7851
49.6675
52.5782
55.5099
58.4681
61.4456
64.4477
67.4678
70.5109
73.5703
76.6513
79.7462
82.8621
85.9884
89.1364
92.2903
95.4668
98.6431
101.841
105.036
108.243
111.452
114.66
117.881
121.087
124.311
127.518
130.709
133.92
137.088
140.329
143.521
146.718
149.945
153.109
156.448
159.803
163.01
166.482
170.115
174.45
179.355
184.564
190.698
197.97
205.588
212.623
218.491
223.576
228.029
232.935
237.375
242.792
246.762
252.749
255.972
261.054
260.838
259.263
256.172
246.052
-15.918
-16.0181
-16.179
-16.3857
-16.6037
-16.814
-17.0142
-17.2077
-17.3968
-17.5806
-17.7564
-17.9209
-18.071
-18.2034
-18.315
-18.4021
-18.4609
-18.487
-18.4759
-18.4226
-18.3221
-18.169
-17.9578
-17.6829
-17.3387
-16.9199
-16.4212
-15.8379
-15.1656
-14.4005
-13.5395
-12.5803
-11.5213
-10.3614
-9.10088
-7.74015
-6.28097
-4.72499
-3.07534
-1.3345