/*--------------------------------*- C++ -*----------------------------------*\
| =========                 |                                                 |
| \\      /  F ield         | OpenFOAM: The Open Source CFD Toolbox           |
|  \\    /   O peration     | Version:  2412                                  |
|   \\  /    A nd           | Website:  www.openfoam.com                      |
|    \\/     M anipulation  |                                                 |
\*---------------------------------------------------------------------------*/
FoamFile
{
    version     2.0;
    format      ascii;
    arch        "LSB;label=32;scalar=64";
    class       volVectorField;
    location    "0.385";
    object      U;
}
// * * * * * * * * * * * * * * * * * * * * * * * * * * * * * * * * * * * * * //

dimensions      [0 1 -1 0 0 0 0];

internalField   nonuniform List<vector> 
12600
(
(18.8019 1.23469e-21 2.09826)
(11.6577 1.6117e-20 0.452957)
(7.37558 1.89593e-20 -0.478637)
(5.10561 0 -0.711209)
(3.98825 1.71304e-20 -0.684375)
(3.34518 1.59471e-20 -0.609437)
(2.90241 0 -0.541519)
(2.57007 0 -0.485846)
(2.30959 -4.78756e-20 -0.440206)
(2.09877 0 -0.402322)
(1.92383 2.00629e-20 -0.370333)
(1.77583 1.83622e-20 -0.342906)
(1.64862 -1.68136e-20 -0.319087)
(1.53785 0 -0.298177)
(1.44033 -1.40778e-20 -0.279648)
(1.35367 0 -0.263097)
(1.27603 4.72525e-20 -0.248206)
(1.20597 0 -0.234725)
(1.14236 -1.97523e-20 -0.222451)
(1.0843 -1.80528e-20 -0.211221)
(1.03103 1.6468e-20 -0.200899)
(0.981938 5.32499e-24 -0.191373)
(0.936525 0 -0.182548)
(0.894358 -2.47825e-20 -0.174346)
(0.855078 0 -0.166698)
(0.818375 0 -0.159547)
(0.783986 -1.83153e-20 -0.152842)
(0.751684 0 -0.146542)
(0.72127 4.17038e-24 -0.140607)
(0.692571 1.31797e-20 -0.135006)
(0.665435 1.17133e-20 -0.129708)
(0.639729 1.03557e-20 -0.124689)
(0.615334 -9.09912e-21 -0.119925)
(0.592143 -1.58732e-20 -0.115395)
(0.570062 -1.37232e-20 -0.111083)
(0.549006 1.17254e-20 -0.106971)
(0.528898 0 -0.103044)
(0.50967 -8.20721e-21 -0.0992894)
(0.491258 0 -0.0956946)
(0.473607 5.20625e-21 -0.0922487)
(0.456665 0 -0.0889417)
(0.440384 1.75772e-23 -0.0857643)
(0.424721 0 -0.082708)
(0.409637 1.59807e-23 -0.0797651)
(0.395093 -8.49846e-22 -0.0769285)
(0.381059 2.54986e-21 -0.0741916)
(0.3675 -4.12797e-21 -0.0715483)
(0.354391 0 -0.0689931)
(0.341702 0 -0.0665205)
(0.329411 -8.01306e-21 -0.064126)
(0.317492 -1.81379e-20 -0.0618047)
(0.305927 -2.00373e-20 -0.0595526)
(0.29469 1.9429e-23 -0.0573654)
(0.283769 -2.32375e-20 -0.05524)
(0.273141 0 -0.0531721)
(0.262794 2.57864e-20 -0.0511596)
(0.252707 2.68226e-20 -0.0491983)
(0.242873 2.77061e-20 -0.0472865)
(0.233271 0 -0.0454203)
(0.223894 0 -0.0435985)
(0.214724 0 -0.0418173)
(0.205757 -6.02171e-20 -0.0400759)
(0.196977 0 -0.0383711)
(0.188378 0 -0.0367022)
(0.179949 1.23415e-19 -0.0350665)
(0.171683 0 -0.0334628)
(0.163573 0 -0.0318897)
(0.155609 0 -0.0303452)
(0.147791 -1.23187e-19 -0.0288295)
(0.140105 1.22523e-19 -0.0273397)
(0.13256 1.21652e-19 -0.0258773)
(0.125139 2.36163e-23 -0.0244393)
(0.117856 -1.19352e-19 -0.0230283)
(0.110698 0 -0.0216415)
(0.103681 1.16409e-19 -0.0202823)
(0.096795 0 -0.0189486)
(0.0900572 0 -0.0176435)
(0.0834486 0 -0.0163635)
(0.0769927 2.9607e-23 -0.0151132)
(0.0706364 2.13797e-19 -0.0138823)
(0.0644515 2.09415e-19 -0.0126844)
(0.0583145 -2.0485e-19 -0.0114966)
(0.0524218 -2.00223e-19 -0.0103578)
(0.0466779 0 -0.00924658)
(0.0412722 0 -0.00820194)
(0.0359312 3.71435e-19 -0.00716337)
(0.0304842 -7.22893e-19 -0.00611016)
(0.0253367 7.02745e-19 -0.00511377)
(0.0200948 3.41338e-19 -0.00410505)
(0.0158386 0 -0.00328256)
(0.0109891 -6.42432e-19 -0.0023416)
(0.00690793 3.11143e-19 -0.001547)
(0.00121104 -3.01108e-19 -0.000447735)
(-0.00265213 5.82568e-19 0.000293364)
(-0.00760383 0 0.00123506)
(-0.00952215 0 0.00162155)
(-0.0189078 0 0.00341887)
(-0.0256861 0 0.0047019)
(-0.0394002 0 0.00731487)
(-0.0420963 0 0.00780841)
(-0.0556623 -4.60535e-19 0.0103947)
(-0.0595965 -8.95869e-19 0.0111136)
(-0.0718172 -8.76431e-19 0.0133384)
(-0.0502927 0 0.00908159)
(-0.0337499 0 0.00583402)
(0.00933662 0 -0.00235961)
(0.019288 -7.98062e-19 -0.00415065)
(0.0508901 -1.53377e-18 -0.0101179)
(0.0424753 7.35168e-19 -0.00848737)
(0.0754382 0 -0.0148509)
(0.0662183 -1.35235e-18 -0.0131188)
(0.115409 0 -0.0226107)
(0.106779 -1.24106e-18 -0.0209752)
(0.17852 1.19337e-18 -0.0348166)
(0.174194 -1.13281e-18 -0.0339033)
(0.263552 -1.07932e-18 -0.0510114)
(0.249899 1.00846e-18 -0.0479975)
(0.326648 2.28529e-23 -0.0626603)
(0.287456 8.66131e-19 -0.0549487)
(0.370831 0 -0.0710354)
(29.2302 -1.24641e-21 4.03117)
(25.1789 0 1.86383)
(20.3061 -1.91888e-20 -0.212525)
(16.1275 0 -1.21482)
(13.1579 -1.7358e-20 -1.51184)
(11.1079 -3.04626e-20 -1.52307)
(9.63058 -1.40956e-20 -1.44525)
(8.51484 0 -1.34731)
(7.63912 3.56774e-22 -1.25161)
(6.93034 -2.18905e-20 -1.16425)
(6.34269 2.00906e-20 -1.08593)
(5.84602 1.84362e-20 -1.01591)
(5.41965 -1.69155e-20 -0.953171)
(5.04884 1.55168e-20 -0.896741)
(4.72282 2.85144e-20 -0.845752)
(4.43347 0 -0.799468)
(4.17459 -6.44952e-23 -0.757268)
(3.94132 2.1872e-20 -0.718628)
(3.72982 2.00397e-20 -0.683107)
(3.53699 0 -0.650333)
(3.36032 0 -0.619988)
(3.19773 1.52106e-20 -0.591803)
(3.04749 0 -0.565547)
(2.90817 1.25629e-20 -0.541019)
(2.77854 -2.27625e-20 -0.518047)
(2.65756 0 -0.496483)
(2.54434 1.8564e-20 -0.476193)
(2.43812 0 -0.457064)
(2.33821 -1.49541e-20 -0.438994)
(2.24404 -2.6701e-20 -0.421893)
(2.15509 -2.37261e-20 -0.405682)
(2.07092 -1.04818e-20 -0.390288)
(1.99113 9.20742e-21 -0.375649)
(1.91535 3.21329e-20 -0.361707)
(1.84327 2.77746e-20 -0.34841)
(1.77461 0 -0.335711)
(1.7091 0 -0.323568)
(1.64652 -1.73935e-23 -0.311943)
(1.58666 0 -0.3008)
(1.52932 -5.25592e-21 -0.290108)
(1.47433 0 -0.279837)
(1.42155 -5.37485e-21 -0.26996)
(1.37081 0 -0.260452)
(1.32199 -1.05037e-21 -0.251291)
(1.27496 0 -0.242454)
(1.22962 -2.56755e-21 -0.233924)
(1.18586 0 -0.225681)
(1.14359 0 -0.217709)
(1.10271 6.84699e-21 -0.209992)
(1.06314 0 -0.202515)
(1.0248 0 -0.195265)
(0.987635 0 -0.188229)
(0.951557 2.1788e-20 -0.181394)
(0.916518 4.65627e-20 -0.174751)
(0.882448 0 -0.168286)
(0.849306 0 -0.161994)
(0.817025 -2.67983e-20 -0.15586)
(0.785575 -2.77047e-20 -0.149882)
(0.754891 0 -0.144045)
(0.724949 0 -0.138347)
(0.69569 0 -0.132775)
(0.667099 0 -0.127329)
(0.639121 -6.06095e-20 -0.121996)
(0.611743 6.10589e-20 -0.116776)
(0.58492 -1.22713e-19 -0.111659)
(0.558635 0 -0.106644)
(0.532859 0 -0.101723)
(0.507564 0 -0.0968932)
(0.482746 4.7244e-23 -0.0921532)
(0.458363 -1.21351e-19 -0.0874945)
(0.434437 -1.20379e-19 -0.0829226)
(0.410917 2.38393e-19 -0.0784266)
(0.387845 3.60149e-23 -0.0740165)
(0.365176 -1.16355e-19 -0.069682)
(0.342963 -1.14753e-19 -0.0654346)
(0.321164 0 -0.0612661)
(0.299838 0 -0.057187)
(0.278918 0 -0.0531856)
(0.258477 2.14024e-19 -0.0492744)
(0.238366 0 -0.0454258)
(0.218782 0 -0.0416782)
(0.199403 2.0049e-19 -0.0379676)
(0.180777 1.95752e-19 -0.0344102)
(0.162643 0 -0.0309411)
(0.14549 0 -0.0276677)
(0.128527 0 -0.0244062)
(0.111346 7.0361e-19 -0.0211178)
(0.0951442 -4.85145e-23 -0.0180121)
(0.0787546 3.31471e-19 -0.0148892)
(0.0652936 -3.21398e-19 -0.0123184)
(0.0499274 6.22573e-19 -0.00937027)
(0.0370669 3.01168e-19 -0.00688227)
(0.0193543 5.82351e-19 -0.00348604)
(0.00767329 0 -0.00125935)
(-0.00778212 0 0.00166559)
(-0.0144227 0 0.00302174)
(-0.0433694 0 0.00868112)
(-0.0628591 4.86953e-19 0.0124969)
(-0.102736 0 0.020101)
(-0.108759 0 0.0212344)
(-0.148765 -4.41521e-19 0.0289569)
(-0.156251 4.29083e-19 0.0303868)
(-0.188063 1.67735e-18 0.0360294)
(-0.118048 -8.24188e-19 0.021866)
(-0.0696302 0 0.0120597)
(0.0582961 0 -0.0123585)
(0.0836447 0 -0.0169468)
(0.178766 7.30465e-19 -0.0348255)
(0.152987 -6.99662e-19 -0.0298422)
(0.255973 0 -0.0496822)
(0.228566 2.56959e-18 -0.0446368)
(0.380692 1.23376e-18 -0.0740142)
(0.354595 2.35435e-18 -0.0692298)
(0.574738 0 -0.11183)
(0.55571 0 -0.108227)
(0.824048 -1.02147e-18 -0.15985)
(0.766616 0 -0.148234)
(0.999061 -8.86089e-19 -0.192556)
(0.863079 -8.18203e-19 -0.166699)
(1.13027 0 -0.218239)
(31.9734 0 3.90094)
(31.1597 0 2.82453)
(28.628 -1.29902e-20 1.02708)
(25.2793 0 -0.38296)
(22.0196 0 -1.22945)
(19.239 1.51451e-20 -1.65572)
(16.9742 1.33486e-20 -1.82471)
(15.1438 0 -1.8565)
(13.6518 4.22107e-22 -1.82273)
(12.418 2.07382e-20 -1.76005)
(11.3817 -3.78576e-20 -1.68604)
(10.4985 -1.74682e-20 -1.6091)
(9.73599 1.14812e-22 -1.53323)
(9.07032 -1.47033e-20 -1.46028)
(8.48348 -1.34834e-20 -1.39105)
(7.96171 1.23092e-20 -1.32579)
(7.49431 -2.26429e-20 -1.26449)
(7.07283 -2.07268e-20 -1.20699)
(6.69051 0 -1.15308)
(6.34187 0 -1.10249)
(6.02244 1.57783e-20 -1.055)
(5.72852 1.43822e-20 -1.01035)
(5.457 0 -0.968314)
(5.20529 0 -0.928692)
(4.9712 2.15688e-20 -0.891289)
(4.75282 0 -0.85593)
(4.54857 -3.51743e-20 -0.822457)
(4.35703 1.58145e-20 -0.790724)
(4.17699 0 -0.760601)
(4.0074 1.26514e-20 -0.731969)
(3.84731 1.12421e-20 -0.704718)
(3.69592 0 -0.67875)
(3.55248 -8.73544e-21 -0.653976)
(3.41636 -1.52268e-20 -0.630312)
(3.28697 1.21834e-23 -0.607684)
(3.16379 0 -0.586022)
(3.04635 0 -0.565264)
(2.93423 7.86844e-21 -0.545352)
(2.82706 0 -0.526233)
(2.72447 0 -0.507857)
(2.62617 0 -0.490178)
(2.53185 0 -0.473156)
(2.44126 0 -0.456749)
(2.35416 0 -0.440924)
(2.27031 0 -0.425644)
(2.18953 2.38709e-21 -0.410881)
(2.11161 -3.87779e-21 -0.396604)
(2.03638 0 -0.382786)
(1.96369 -6.47789e-21 -0.369401)
(1.89338 0 -0.356427)
(1.8253 0 -0.343838)
(1.75934 1.89414e-20 -0.331616)
(1.69536 0 -0.319738)
(1.63326 -2.19994e-20 -0.308191)
(1.57291 2.32366e-20 -0.29695)
(1.51425 0 -0.286006)
(1.45715 2.53303e-20 -0.275336)
(1.40155 0 -0.264934)
(1.34734 0 -0.254777)
(1.29447 0 -0.24486)
(1.24284 5.58527e-20 -0.235162)
(1.19242 5.66251e-20 -0.225682)
(1.14311 2.82682e-23 -0.216399)
(1.09488 -1.15287e-19 -0.207313)
(1.04765 2.47975e-23 -0.198406)
(1.00139 0 -0.189676)
(0.956056 0 -0.181111)
(0.911587 -1.15663e-19 -0.172704)
(0.867974 3.79837e-23 -0.164454)
(0.825149 0 -0.156347)
(0.783141 0 -0.148392)
(0.741863 -1.12387e-19 -0.140569)
(0.701387 2.89355e-23 -0.132897)
(0.661628 2.70074e-23 -0.125357)
(0.622679 0 -0.117969)
(0.584458 0 -0.110717)
(0.547068 -2.09246e-19 -0.10362)
(0.51039 2.05456e-19 -0.0966566)
(0.474544 0 -0.0898462)
(0.439298 0 -0.0831476)
(0.40496 0 -0.0766203)
(0.371047 0 -0.0701705)
(0.338423 0 -0.0639875)
(0.306686 0 -0.0579609)
(0.276545 0 -0.0522499)
(0.246746 0 -0.0465416)
(0.216713 -6.61484e-19 -0.0408293)
(0.188442 -3.21129e-19 -0.0354433)
(0.159964 -3.11541e-19 -0.0300729)
(0.136358 3.0201e-19 -0.0255946)
(0.109422 -5.8483e-19 -0.0204507)
(0.0869852 -2.82885e-19 -0.0161045)
(0.0564247 -2.73428e-19 -0.0102827)
(0.0366721 0 -0.0065667)
(0.00981951 0 -0.0015428)
(-0.00243429 0 0.00109854)
(-0.05184 0 0.010906)
(-0.0830853 -4.56843e-19 0.0170966)
(-0.148104 0 0.0292464)
(-0.155313 0 0.0305029)
(-0.221156 4.13983e-19 0.0431699)
(-0.22728 0 0.0441204)
(-0.274241 -7.85994e-19 0.0513791)
(-0.149981 7.72358e-19 0.0252721)
(-0.0712935 0 0.00884964)
(0.141172 0 -0.0312285)
(0.177464 0 -0.0372228)
(0.337699 6.83943e-19 -0.0667351)
(0.29351 0 -0.0582761)
(0.471695 -6.28223e-19 -0.0925938)
(0.425259 -1.02358e-22 -0.084497)
(0.686428 -1.15467e-18 -0.134922)
(0.641018 -2.2029e-18 -0.127135)
(1.01602 0 -0.199684)
(0.973951 1.00354e-18 -0.191827)
(1.42359 9.55461e-19 -0.277739)
(1.30481 8.92076e-19 -0.253236)
(1.69869 0 -0.327448)
(1.44716 7.65047e-19 -0.279759)
(1.91699 0 -0.371397)
(32.493 0 2.95787)
(33.0603 0 2.77252)
(32.5085 1.22801e-20 1.72729)
(30.8649 0 0.523723)
(28.6084 -1.23199e-20 -0.484111)
(26.1868 2.50594e-20 -1.20941)
(23.8611 0 -1.67425)
(21.7483 -2.18607e-20 -1.93958)
(19.8825 2.09563e-20 -2.06944)
(18.2543 1.89434e-20 -2.11405)
(16.8362 1.77992e-20 -2.10734)
(15.597 -1.61712e-20 -2.07068)
(14.5082 1.50496e-20 -2.01708)
(13.5453 -2.74252e-20 -1.95441)
(12.6883 0 -1.88741)
(11.9209 -2.32203e-20 -1.81898)
(11.2296 0 -1.75086)
(10.6035 0 -1.68411)
(10.0337 0 -1.61934)
(9.51272 1.63047e-20 -1.55689)
(9.03445 -3.42294e-23 -1.49693)
(8.59367 -2.60292e-23 -1.43951)
(8.18601 1.236e-20 -1.38461)
(7.80775 0 -1.33217)
(7.45572 0 -1.2821)
(7.12718 0 -1.23431)
(6.81978 3.32524e-20 -1.18867)
(6.53146 -5.94221e-24 -1.14508)
(6.26045 0 -1.10344)
(6.00516 0 -1.06361)
(5.76422 0 -1.02552)
(5.53639 0 -0.989049)
(5.3206 1.65235e-20 -0.95411)
(5.11586 0 -0.920613)
(4.92131 -1.24557e-20 -0.888474)
(4.73617 0 -0.857616)
(4.55973 0 -0.827965)
(4.39135 -7.46172e-21 -0.799452)
(4.23047 0 -0.772014)
(4.07656 0 -0.745589)
(3.92913 3.54204e-21 -0.720121)
(3.78777 -4.87996e-21 -0.695558)
(3.65206 0 -0.671848)
(3.52163 -1.00521e-21 -0.648947)
(3.39616 0 -0.62681)
(3.27534 -4.4909e-21 -0.605397)
(3.15886 1.87921e-23 -0.584668)
(3.04649 0 -0.564589)
(2.93795 0 -0.545123)
(2.83303 7.13497e-21 -0.526241)
(2.73151 1.616e-20 -0.507907)
(2.6332 -3.57419e-20 -0.490099)
(2.5379 0 -0.472782)
(2.44545 -2.07192e-20 -0.45594)
(2.35568 -2.19345e-20 -0.439539)
(2.26845 -2.29548e-20 -0.423566)
(2.1836 -2.38639e-20 -0.407988)
(2.10102 0 -0.392797)
(2.02056 0 -0.37796)
(1.94213 -5.17399e-20 -0.363472)
(1.86558 -1.05336e-19 -0.349302)
(1.79086 -5.34071e-20 -0.335449)
(1.71782 3.03722e-23 -0.321882)
(1.64643 5.43407e-20 -0.308602)
(1.57655 5.45774e-20 -0.295584)
(1.50815 0 -0.282823)
(1.44113 0 -0.270304)
(1.37544 1.08999e-19 -0.258016)
(1.31103 2.16934e-19 -0.245958)
(1.24782 0 -0.234109)
(1.18583 1.06845e-19 -0.222482)
(1.12495 1.05783e-19 -0.211051)
(1.06527 1.046e-19 -0.19984)
(1.00666 2.06456e-19 -0.188822)
(0.94926 0 -0.178028)
(0.892936 0 -0.16743)
(0.837839 1.96905e-19 -0.157057)
(0.783788 -3.86566e-19 -0.146877)
(0.73096 -1.89491e-19 -0.136916)
(0.67904 0 -0.127122)
(0.628439 0 -0.117574)
(0.578553 0 -0.108156)
(0.530514 0 -0.0991295)
(0.483811 0 -0.0903333)
(0.439287 0 -0.0819648)
(0.395314 -3.19652e-19 -0.0735775)
(0.35119 4.65322e-23 -0.0652448)
(0.309726 3.0152e-19 -0.0573986)
(0.268088 0 -0.0496351)
(0.233269 2.8347e-19 -0.0430753)
(0.193616 2.74467e-19 -0.0355428)
(0.160748 0 -0.029163)
(0.116471 -2.56511e-19 -0.0207902)
(0.0883427 -4.95521e-19 -0.015552)
(0.0490673 0 -0.0083094)
(0.0303859 0 -0.00408989)
(-0.0401573 0 0.0100508)
(-0.081817 -4.28214e-19 0.0184232)
(-0.170714 0 0.0347709)
(-0.17673 0 0.0357463)
(-0.267362 3.87816e-19 0.0531393)
(-0.266405 -3.76681e-19 0.0524424)
(-0.324069 0 0.0597722)
(-0.140154 0 0.0203314)
(-0.033809 0 -0.00261195)
(0.262416 0 -0.0580226)
(0.304797 0 -0.0643162)
(0.531866 -6.11926e-23 -0.105472)
(0.467871 0 -0.0933637)
(0.726347 5.87871e-19 -0.143107)
(0.659122 -1.12506e-18 -0.131946)
(1.03527 0 -0.204559)
(0.96713 1.04117e-22 -0.193531)
(1.50249 0 -0.297062)
(1.42682 -6.35035e-23 -0.283203)
(2.05922 0 -0.403429)
(1.86089 -8.3406e-19 -0.362523)
(2.42295 0 -0.467468)
(2.03842 7.15254e-19 -0.395436)
(2.72733 0 -0.531125)
(32.5943 0 2.10551)
(33.3522 0 2.2307)
(33.7004 0 1.75513)
(33.3376 0 0.959799)
(32.3151 1.1629e-20 0.116209)
(30.8399 -9.05514e-22 -0.634836)
(29.1176 0 -1.23771)
(27.3074 2.06335e-20 -1.6831)
(25.5195 0 -1.98808)
(23.8203 -3.52574e-20 -2.18089)
(22.2425 0 -2.29015)
(20.7964 1.52667e-20 -2.33993)
(19.4795 0 -2.34859)
(18.2831 2.58937e-20 -2.32943)
(17.1961 -1.17898e-20 -2.2918)
(16.2069 2.17783e-20 -2.24218)
(15.3046 -1.99298e-20 -2.18502)
(14.4792 -1.8287e-20 -2.12341)
(13.7219 0 -2.05945)
(13.0251 -1.53961e-20 -1.99461)
(12.3819 -1.40601e-20 -1.92989)
(11.7865 -2.56055e-20 -1.86597)
(11.234 -1.16711e-20 -1.8033)
(10.7197 0 -1.74218)
(10.24 0 -1.68282)
(9.79132 0 -1.6253)
(9.37086 -1.5694e-20 -1.5697)
(8.97598 -1.4116e-20 -1.51601)
(8.60438 0 -1.46422)
(8.25404 0 -1.41429)
(7.92316 1.00392e-20 -1.36618)
(7.61012 0 -1.31983)
(7.31349 1.37035e-24 -1.27516)
(7.03198 -1.36148e-20 -1.23213)
(6.76443 1.17741e-20 -1.19065)
(6.50979 0 -1.15066)
(6.26711 0 -1.11209)
(6.03555 7.04253e-21 -1.07489)
(5.81431 0 -1.03898)
(5.60269 0 -1.0043)
(5.40003 -3.34249e-21 -0.970799)
(5.20575 4.60476e-21 -0.938417)
(5.0193 0 -0.907099)
(4.84018 9.48401e-22 -0.876794)
(4.66791 0 -0.847454)
(4.50209 2.10898e-21 -0.819032)
(4.3423 3.43781e-21 -0.791482)
(4.18821 0 -0.764764)
(4.03944 5.72345e-21 -0.738833)
(3.8957 -6.72867e-21 -0.713655)
(3.75668 -3.04475e-20 -0.689188)
(3.62212 1.68366e-20 -0.665404)
(3.49174 -1.82373e-20 -0.64226)
(3.36534 2.52559e-23 -0.619737)
(3.24265 0 -0.597791)
(3.12351 2.16358e-20 -0.576407)
(3.00767 2.24904e-20 -0.555544)
(2.89499 -2.32061e-20 -0.535191)
(2.78525 2.38321e-20 -0.515304)
(2.67835 4.87464e-20 -0.495882)
(2.57406 4.95992e-20 -0.47688)
(2.47232 -5.02438e-20 -0.458299)
(2.37292 5.07866e-20 -0.4401)
(2.2758 0 -0.422283)
(2.18079 0 -0.404813)
(2.08783 5.14278e-20 -0.387689)
(1.99679 0 -0.370887)
(1.90759 0 -0.354396)
(1.82017 -1.0206e-19 -0.338212)
(1.73442 0 -0.322309)
(1.65035 -1.00525e-19 -0.306704)
(1.56782 -1.9899e-19 -0.291362)
(1.48694 0 -0.276318)
(1.40754 -9.70667e-20 -0.26153)
(1.32978 0 -0.247043)
(1.25348 0 -0.232817)
(1.17885 -1.85005e-19 -0.21889)
(1.10564 1.81643e-19 -0.205217)
(1.03407 4.03747e-23 -0.191835)
(0.963771 0 -0.178682)
(0.895234 0 -0.165851)
(0.82777 0 -0.153219)
(0.762734 -1.62512e-19 -0.141109)
(0.699536 1.58396e-19 -0.129309)
(0.639072 0 -0.118038)
(0.579454 6.00072e-19 -0.106725)
(0.519863 2.91533e-19 -0.0955624)
(0.463952 -5.65855e-19 -0.0850653)
(0.407931 -2.74369e-19 -0.0747465)
(0.360701 -5.31816e-19 -0.0659109)
(0.30708 0 -0.0557885)
(0.26286 0 -0.0472009)
(0.203947 2.40521e-19 -0.036166)
(0.167062 4.64558e-19 -0.029385)
(0.114228 -4.48647e-19 -0.0197608)
(0.0884391 0 -0.0136729)
(-0.00365771 0 0.00495786)
(-0.054021 4.0121e-19 0.0151997)
(-0.165392 3.87053e-19 0.0352072)
(-0.167614 0 0.03535)
(-0.281538 -3.63199e-19 0.0570488)
(-0.267132 3.5272e-19 0.0531776)
(-0.331353 0 0.0587767)
(-0.0830058 0 0.00449063)
(0.0473994 0 -0.0244867)
(0.42626 0 -0.0945706)
(0.469608 0 -0.0998313)
(0.765362 -5.98929e-19 -0.152559)
(0.679662 0 -0.136613)
(1.02326 0 -0.202681)
(0.932337 0 -0.18834)
(1.42902 1.00994e-18 -0.284147)
(1.3329 9.63284e-19 -0.269391)
(2.03299 0 -0.404542)
(1.91126 -8.77329e-19 -0.382394)
(2.72739 0 -0.536421)
(2.43142 -7.79639e-19 -0.475318)
(3.16946 0 -0.611692)
(2.63683 -6.6843e-19 -0.512924)
(3.5565 0 -0.696372)
(32.6655 -4.97279e-21 1.49196)
(33.2484 -6.17716e-21 1.63057)
(33.7755 7.3392e-21 1.43882)
(34.0022 8.27402e-21 0.976873)
(33.8108 0 0.383731)
(33.2126 -9.92486e-21 -0.233514)
(32.281 0 -0.808991)
(31.1067 1.74275e-20 -1.30562)
(29.7784 1.66608e-20 -1.70788)
(28.3726 3.21328e-20 -2.01617)
(26.9489 -1.47797e-20 -2.24014)
(25.5498 1.37886e-20 -2.39329)
(24.2025 0 -2.48956)
(22.9228 0 -2.5416)
(21.718 1.11152e-20 -2.56008)
(20.59 -1.15124e-22 -2.55354)
(19.5372 1.76926e-22 -2.52866)
(18.5562 1.36559e-22 -2.49055)
(17.6423 0 -2.44304)
(16.7908 0 -2.38903)
(15.9967 0 -2.33068)
(15.2552 2.40589e-20 -2.26961)
(14.5621 1.09396e-20 -2.20702)
(13.9131 0 -2.14381)
(13.3045 0 -2.08064)
(12.7329 1.63442e-20 -2.018)
(12.1952 0 -1.95624)
(11.6886 0 -1.89562)
(11.2106 0 -1.83632)
(10.7589 0 -1.77846)
(10.3315 -6.47047e-24 -1.7221)
(9.92646 0 -1.6673)
(9.54212 -1.66604e-24 -1.61407)
(9.17695 1.2834e-20 -1.56241)
(8.82954 2.53104e-24 -1.5123)
(8.49863 0 -1.46372)
(8.18306 0 -1.41662)
(7.88178 0 -1.37099)
(7.59382 0 -1.32676)
(7.31829 0 -1.2839)
(7.05438 0 -1.24235)
(6.80134 0 -1.20207)
(6.55848 -2.57734e-21 -1.16301)
(6.32516 -9.29666e-22 -1.12512)
(6.1008 0 -1.08836)
(5.88485 1.95253e-21 -1.05268)
(5.6768 0 -1.01803)
(5.47619 0 -0.984368)
(5.28256 -1.07664e-20 -0.951653)
(5.09554 0 -0.919846)
(4.9147 1.43231e-20 -0.888899)
(4.73974 0 -0.858784)
(4.57027 3.43189e-20 -0.829452)
(4.40602 2.44405e-23 -0.80088)
(4.24667 0 -0.77302)
(4.09198 0 -0.745855)
(3.94165 0 -0.719332)
(3.79549 4.36634e-20 -0.693445)
(3.65319 -4.48386e-20 -0.668138)
(3.51464 -4.58028e-20 -0.643411)
(3.37954 -4.66047e-20 -0.61921)
(3.24779 9.45108e-20 -0.595538)
(3.11913 4.77197e-20 -0.572344)
(2.99348 0 -0.549633)
(2.87062 0 -0.527358)
(2.75046 -2.41886e-23 -0.505521)
(2.63282 0 -0.48409)
(2.51762 0 -0.463055)
(2.40475 -9.58687e-20 -0.442406)
(2.29408 0 -0.422118)
(2.18563 0 -0.402207)
(2.0792 1.86939e-19 -0.382632)
(1.97491 -9.23595e-20 -0.363434)
(1.87256 0 -0.344564)
(1.77234 0 -0.326074)
(1.67401 0 -0.307914)
(1.57783 1.73748e-19 -0.29013)
(1.48347 0 -0.272667)
(1.39123 3.3427e-19 -0.255568)
(1.30065 -1.63609e-19 -0.238766)
(1.21232 0 -0.222369)
(1.1255 0 -0.206251)
(1.0417 1.52499e-19 -0.190795)
(0.960305 -2.83701e-23 -0.175731)
(0.882165 1.44684e-19 -0.161289)
(0.805285 -2.81408e-19 -0.146786)
(0.728694 2.7333e-19 -0.132564)
(0.656943 2.65289e-19 -0.119206)
(0.585143 2.57246e-19 -0.106142)
(0.524162 3.66804e-23 -0.094812)
(0.45521 0 -0.0818871)
(0.398649 -2.3323e-19 -0.070912)
(0.324114 0 -0.057103)
(0.278005 0 -0.0487257)
(0.210379 4.20298e-19 -0.0365428)
(0.176972 0 -0.0283578)
(0.0631708 0 -0.0051941)
(0.00618754 0 0.00651503)
(-0.12612 -3.62403e-19 0.0296617)
(-0.12166 0 0.0284291)
(-0.2569 -3.39873e-19 0.053888)
(-0.222088 0 0.045258)
(-0.289159 0 0.0475673)
(0.0276408 0 -0.0229266)
(0.177496 0 -0.0573639)
(0.637502 0 -0.141417)
(0.676422 -5.83584e-19 -0.144333)
(1.04272 -5.60064e-19 -0.20856)
(0.932778 5.36157e-19 -0.188508)
(1.36584 0 -0.271686)
(1.24701 0 -0.253856)
(1.86914 -1.88831e-18 -0.373734)
(1.73781 0 -0.354428)
(2.60572 8.64657e-19 -0.521559)
(2.4239 0 -0.488613)
(3.42432 7.80437e-19 -0.675872)
(3.01325 7.2856e-19 -0.591037)
(3.93559 0 -0.759739)
(3.24289 -6.24655e-19 -0.632827)
(4.3978 0 -0.866445)
(32.7189 4.68302e-21 1.04039)
(33.1296 1.13842e-20 1.12618)
(33.5757 -6.91314e-21 1.04211)
(33.9412 -7.86364e-22 0.777706)
(34.1151 7.4895e-21 0.386324)
(34.0414 0 -0.0700678)
(33.7117 0 -0.54235)
(33.1462 -1.64105e-20 -0.99479)
(32.3802 -3.0469e-20 -1.40374)
(31.4559 -7.12578e-22 -1.75612)
(30.4169 1.39159e-20 -2.04742)
(29.3039 -1.29826e-20 -2.27895)
(28.1519 1.17344e-20 -2.45554)
(26.9892 0 -2.58377)
(25.8375 0 -2.67083)
(24.7124 -9.51992e-21 -2.72373)
(23.6244 3.48188e-20 -2.74886)
(22.58 3.2031e-20 -2.75183)
(21.5829 0 -2.73735)
(20.6342 0 -2.70931)
(19.734 0 -2.67089)
(18.8811 -6.77225e-23 -2.62465)
(18.0736 -2.0549e-20 -2.5726)
(17.3094 9.32672e-21 -2.51639)
(16.5863 1.69371e-20 -2.45727)
(15.9018 -3.07294e-20 -2.39627)
(15.2535 1.38537e-20 -2.33418)
(14.6392 1.24725e-20 -2.2716)
(14.0567 1.11894e-20 -2.20903)
(13.5038 0 -2.14683)
(12.9786 -8.90479e-21 -2.08529)
(12.4793 7.86773e-21 -2.02463)
(12.0041 -6.92328e-21 -1.965)
(11.5515 -1.20762e-20 -1.90653)
(11.12 -2.08987e-20 -1.84929)
(10.7082 0 -1.79335)
(10.3149 0 -1.73875)
(9.93888 -6.2672e-21 -1.68549)
(9.57904 0 -1.63358)
(9.23439 3.9923e-21 -1.58302)
(8.90399 2.9887e-21 -1.53379)
(8.58697 0 -1.48587)
(8.28252 4.86625e-21 -1.43922)
(7.9899 8.74874e-22 -1.39382)
(7.7084 0 -1.34964)
(7.43738 -1.83725e-21 -1.30664)
(7.17621 -3.00074e-21 -1.26478)
(6.92436 0 -1.22403)
(6.68126 1.01001e-20 -1.18434)
(6.44644 -5.92007e-21 -1.14568)
(6.21941 -1.34199e-20 -1.10801)
(5.99976 0 -1.07129)
(5.78705 -2.46502e-23 -1.03548)
(5.58093 3.44771e-20 -1.00055)
(5.38099 0 -0.966459)
(5.18696 0 -0.933183)
(4.99843 -1.98465e-20 -0.900665)
(4.81519 -2.05166e-20 -0.8689)
(4.63686 4.21174e-20 -0.837824)
(4.46327 4.30557e-20 -0.807442)
(4.29405 4.38057e-20 -0.777687)
(4.12911 -4.43988e-20 -0.748569)
(3.96808 -8.96625e-20 -0.720025)
(3.81088 0 -0.692065)
(3.65721 0 -0.66463)
(3.50699 -9.0807e-20 -0.637728)
(3.35997 0 -0.611317)
(3.21605 0 -0.58539)
(3.07508 9.00414e-20 -0.559932)
(2.93692 0 -0.534917)
(2.80155 -8.86205e-20 -0.51036)
(2.66876 -3.24359e-23 -0.486217)
(2.53866 8.6708e-20 -0.462534)
(2.41101 0 -0.439253)
(2.28602 0 -0.416435)
(2.1634 0 -0.39402)
(2.04344 1.62952e-19 -0.37206)
(1.92576 0 -0.350491)
(1.81071 -1.5678e-19 -0.329363)
(1.69778 3.06908e-19 -0.308606)
(1.58761 0 -0.288343)
(1.47946 0 -0.26845)
(1.37494 0 -0.249365)
(1.27344 -2.81227e-23 -0.230756)
(1.1757 -1.35637e-19 -0.212855)
(1.07978 -2.63687e-19 -0.194882)
(0.984483 -2.56176e-19 -0.177361)
(0.895334 2.48528e-19 -0.160916)
(0.806167 0 -0.1449)
(0.729951 2.33497e-19 -0.130843)
(0.644173 0 -0.114898)
(0.574208 2.18458e-19 -0.101352)
(0.482968 0 -0.0846661)
(0.427066 0 -0.0746332)
(0.343332 0 -0.059716)
(0.302017 -3.79337e-19 -0.049226)
(0.166629 -3.65055e-19 -0.0215686)
(0.105452 0 -0.0088867)
(-0.0462055 3.39066e-19 0.0167754)
(-0.0318745 -3.28288e-19 0.0135399)
(-0.186022 3.18011e-19 0.0420189)
(-0.123464 -3.08677e-19 0.0268827)
(-0.190395 0 0.0241734)
(0.198057 0 -0.0634097)
(0.361842 0 -0.102547)
(0.901173 0 -0.19968)
(0.930053 5.45703e-19 -0.198902)
(1.36859 5.7075e-23 -0.27453)
(1.23111 -1.00246e-18 -0.250025)
(1.75724 0 -0.350925)
(1.60486 0 -0.329087)
(2.35632 8.82415e-19 -0.473652)
(2.18057 0 -0.44864)
(3.21795 -8.08025e-19 -0.647694)
(2.96108 0 -0.601221)
(4.14605 -1.4584e-18 -0.820941)
(3.60373 0 -0.709158)
(4.71835 0 -0.910956)
(3.85797 5.83525e-19 -0.755182)
(5.24255 0 -1.03994)
(32.7422 0 0.68748)
(33.0434 -5.23637e-21 0.729516)
(33.3802 0 0.67882)
(33.7107 -6.59263e-21 0.514592)
(33.9717 -1.34396e-20 0.251637)
(34.1124 0 -0.0783065)
(34.1042 6.70391e-21 -0.443807)
(33.9356 0 -0.818772)
(33.6073 9.05561e-22 -1.18301)
(33.1285 -2.58172e-20 -1.52204)
(32.5153 0 -1.82653)
(31.7878 0 -2.09159)
(30.9683 -1.10369e-20 -2.31561)
(30.0792 0 -2.49932)
(29.1414 0 -2.64502)
(28.174 0 -2.75596)
(27.1932 -1.62642e-20 -2.83592)
(26.2125 -1.49777e-20 -2.88887)
(25.2423 -1.35823e-20 -2.91868)
(24.2909 0 -2.92899)
(23.3641 0 -2.92309)
(22.4658 -1.05679e-20 -2.9039)
(21.5988 9.63855e-21 -2.87393)
(20.7644 -8.77203e-21 -2.83534)
(19.9632 -1.59297e-20 -2.78995)
(19.1952 2.87843e-20 -2.73928)
(18.4598 -5.47814e-23 -2.68458)
(17.7562 -1.17303e-20 -2.6269)
(17.0835 -1.05234e-20 -2.56708)
(16.4402 0 -2.50583)
(15.8253 0 -2.44372)
(15.2374 -7.39907e-21 -2.3812)
(14.6751 0 -2.31864)
(14.1372 1.13563e-20 -2.25635)
(13.6224 9.82488e-21 -2.19457)
(13.1294 -8.40338e-21 -2.13348)
(12.6572 0 -2.07323)
(12.2045 5.8929e-21 -2.01394)
(11.7703 4.78137e-21 -1.95569)
(11.3536 3.49804e-24 -1.89854)
(10.9534 -5.6244e-21 -1.84254)
(10.5688 0 -1.78771)
(10.1989 -2.29449e-21 -1.73408)
(9.84306 0 -1.68164)
(9.50034 0 -1.63039)
(9.17009 0 -1.58032)
(8.85162 1.35301e-23 -1.53142)
(8.54431 0 -1.48366)
(8.24753 -4.73936e-21 -1.43702)
(7.96075 1.11141e-20 -1.39148)
(7.68338 1.26109e-20 -1.34699)
(7.41496 0 -1.30355)
(7.15497 -1.51299e-20 -1.26109)
(6.90302 -3.23481e-20 -1.21962)
(6.6586 0 -1.17907)
(6.42141 0 -1.13944)
(6.19095 1.86429e-20 -1.10066)
(5.96698 1.92343e-20 -1.06274)
(5.74903 -1.97702e-20 -1.0256)
(5.53691 -4.037e-20 -0.989251)
(5.33017 0 -0.953625)
(5.12869 0 -0.918739)
(4.93204 2.81474e-23 -0.884514)
(4.74012 -4.23441e-20 -0.85097)
(4.55254 0 -0.818036)
(4.36922 4.26084e-20 -0.785728)
(4.18985 0 -0.753993)
(4.01432 0 -0.722831)
(3.84242 0 -0.692219)
(3.674 0 -0.662132)
(3.50901 3.42642e-23 -0.632587)
(3.3472 -3.20958e-23 -0.603534)
(3.18869 -8.12803e-20 -0.575026)
(3.03319 0 -0.546996)
(2.88093 -7.90087e-20 -0.519513)
(2.73156 0 -0.492506)
(2.58542 -1.528e-19 -0.466036)
(2.44205 1.49896e-19 -0.44003)
(2.30185 -1.46905e-19 -0.414544)
(2.16428 -1.43831e-19 -0.389509)
(2.03004 0 -0.36506)
(1.89839 1.37277e-19 -0.341084)
(1.77098 0 -0.318066)
(1.64728 -1.30512e-19 -0.295608)
(1.52782 -1.27029e-19 -0.27394)
(1.41092 2.47023e-19 -0.252203)
(1.29501 0 -0.231122)
(1.18673 -4.65501e-19 -0.211347)
(1.0784 0 -0.192147)
(0.985315 2.18576e-19 -0.175112)
(0.881071 0 -0.15592)
(0.79655 2.0446e-19 -0.139619)
(0.687401 0 -0.119954)
(0.621031 3.81303e-19 -0.108182)
(0.519812 -3.68162e-19 -0.0903568)
(0.470534 3.54984e-19 -0.077429)
(0.313912 3.41583e-19 -0.0454248)
(0.251259 0 -0.0323489)
(0.0818417 -6.34347e-19 -0.00481968)
(0.109563 6.14119e-19 -0.010748)
(-0.0607301 0 0.0198484)
(0.0370743 2.88687e-19 -0.00362715)
(-0.0275252 0 -0.012759)
(0.434771 0 -0.118247)
(0.606211 -5.42742e-19 -0.161095)
(1.22269 0 -0.270329)
(1.23574 0 -0.264506)
(1.74786 4.8943e-19 -0.351339)
(1.5787 9.36846e-19 -0.321934)
(2.20042 4.49011e-19 -0.440921)
(2.00734 0 -0.414353)
(2.89057 0 -0.583894)
(2.65938 0 -0.551723)
(3.86622 0 -0.782244)
(3.51911 7.15631e-19 -0.719499)
(4.88849 6.81195e-19 -0.970754)
(4.20084 0 -0.829287)
(5.51399 0 -1.0647)
(4.4838 0 -0.880308)
(6.07986 0 -1.21506)
(32.7398 4.18183e-21 0.399242)
(32.9718 0 0.41405)
(33.2275 4.9016e-21 0.372263)
(33.4923 0 0.257851)
(33.7352 6.00889e-21 0.0713475)
(33.9248 0 -0.172542)
(34.0383 -6.30082e-21 -0.454661)
(34.0605 1.15479e-20 -0.757061)
(33.9824 2.35822e-20 -1.06458)
(33.7991 7.32509e-22 -1.36523)
(33.5103 0 -1.65001)
(33.1192 0 -1.91269)
(32.6325 0 -2.14943)
(32.0592 0 -2.35816)
(31.4104 0 -2.53813)
(30.698 0 -2.6896)
(29.9344 1.46494e-20 -2.8136)
(29.1321 -1.35697e-20 -2.91171)
(28.3024 1.27619e-20 -2.9859)
(27.456 0 -3.0384)
(26.6021 0 -3.07153)
(25.7485 9.72782e-21 -3.0876)
(24.9017 8.89587e-21 -3.08888)
(24.067 8.11461e-21 -3.07747)
(23.2483 0 -3.05533)
(22.4488 -1.34895e-20 -3.02418)
(21.6706 -2.4306e-20 -2.98559)
(20.9151 1.09218e-20 -2.94091)
(20.1835 0 -2.8913)
(19.476 0 -2.83778)
(18.7929 0 -2.78121)
(18.134 6.91612e-21 -2.72233)
(17.4988 0 -2.66175)
(16.887 0 -2.6)
(16.2977 9.2031e-21 -2.53751)
(15.7304 7.89419e-21 -2.47465)
(15.1842 0 -2.41173)
(14.6584 5.53098e-21 -2.349)
(14.1521 -8.98059e-21 -2.28665)
(13.6645 -3.52904e-21 -2.22487)
(13.1947 2.64357e-21 -2.16378)
(12.7421 0 -2.10349)
(12.3057 0 -2.04408)
(11.8849 0 -1.98562)
(11.4789 -4.42838e-22 -1.92816)
(11.087 0 -1.87174)
(10.7085 2.63584e-21 -1.81637)
(10.3428 3.5693e-21 -1.76206)
(9.98924 0 -1.70882)
(9.64722 -5.21151e-21 -1.65665)
(9.31615 0 -1.60553)
(8.99554 0 -1.55546)
(8.68478 -1.41595e-20 -1.50641)
(8.38348 2.12742e-23 -1.45838)
(8.09106 1.60263e-20 -1.41132)
(7.80717 0 -1.36523)
(7.53128 0 -1.32005)
(7.26309 -1.80513e-20 -1.2758)
(7.00207 0 -1.2324)
(6.74801 3.7882e-20 -1.18987)
(6.50038 0 -1.14814)
(6.25905 0 -1.10722)
(6.0235 7.88759e-20 -1.06704)
(5.79363 7.94207e-20 -1.02763)
(5.56898 3.98599e-20 -0.9889)
(5.34946 0 -0.95088)
(5.13467 0 -0.913507)
(4.92453 3.97649e-20 -0.876789)
(4.71875 7.9128e-20 -0.840697)
(4.51718 0 -0.805211)
(4.31971 7.79277e-20 -0.770345)
(4.1261 -7.71168e-20 -0.736048)
(3.93643 7.61949e-20 -0.702378)
(3.75037 -7.5142e-20 -0.669261)
(3.56817 7.40525e-20 -0.636774)
(3.38944 0 -0.604838)
(3.21451 0 -0.573516)
(3.04291 -1.40455e-19 -0.542734)
(2.87504 2.75241e-19 -0.51255)