/*--------------------------------*- C++ -*----------------------------------*\
| =========                 |                                                 |
| \\      /  F ield         | OpenFOAM: The Open Source CFD Toolbox           |
|  \\    /   O peration     | Version:  2412                                  |
|   \\  /    A nd           | Website:  www.openfoam.com                      |
|    \\/     M anipulation  |                                                 |
\*---------------------------------------------------------------------------*/
FoamFile
{
    version     2.0;
    format      ascii;
    arch        "LSB;label=32;scalar=64";
    class       surfaceScalarField;
    location    "0.405";
    object      phi_0;
}
// * * * * * * * * * * * * * * * * * * * * * * * * * * * * * * * * * * * * * //

dimensions      [0 3 -1 0 0 0 0];

oriented        oriented;

internalField   nonuniform List<scalar> 
24930
(
0.0179883
0.0127662
-0.0307542
0.0106169
0.00737137
0.00696192
0.00365498
0.00518357
0.00177835
0.00421029
0.000973279
0.00358662
0.000623664
0.00314016
0.000446457
0.00280024
0.000339918
0.00253073
0.000269502
0.00231055
0.000220175
0.00212653
0.000184018
0.00196993
0.000156602
0.00183468
0.000135244
0.00171644
0.000118238
0.00161199
0.000104448
0.00151891
9.30884e-05
0.0014353
8.36041e-05
0.00135971
7.55922e-05
0.00129095
6.87533e-05
0.00122809
6.2862e-05
0.00117035
5.77455e-05
0.00111708
5.3269e-05
0.00106775
4.93265e-05
0.00102192
4.58331e-05
0.000979195
4.27213e-05
0.000939261
3.99356e-05
0.000901833
3.74304e-05
0.000866667
3.51687e-05
0.000833549
3.31192e-05
0.000802294
3.12561e-05
0.000772738
2.95578e-05
0.000744735
2.80041e-05
0.000718157
2.65791e-05
0.00069289
2.52679e-05
0.000668833
2.40578e-05
0.000645893
2.29396e-05
0.000623989
2.1904e-05
0.000603045
2.09432e-05
0.000582993
2.00518e-05
0.000563772
1.92222e-05
0.000545323
1.84498e-05
0.000527593
1.77306e-05
0.000510534
1.70591e-05
0.000494101
1.64325e-05
0.000478253
1.58474e-05
0.000462953
1.52996e-05
0.000448165
1.47865e-05
0.000433858
1.43069e-05
0.00042
1.38574e-05
0.000406563
1.34369e-05
0.000393517
1.30465e-05
0.000380841
1.26784e-05
0.000368503
1.23394e-05
0.000356489
1.20172e-05
0.000344768
1.17221e-05
0.00033333
1.14397e-05
0.000322145
1.11843e-05
0.000311206
1.09401e-05
0.000300485
1.07203e-05
0.000289973
1.05133e-05
0.000279648
1.03256e-05
0.0002695
1.01508e-05
0.00025951
9.99357e-06
0.000249668
9.84615e-06
0.000239958
9.71416e-06
0.000230369
9.59341e-06
0.000220895
9.47908e-06
0.000211514
9.38487e-06
0.000202234
9.284e-06
0.000193021
9.21687e-06
0.000183899
9.12633e-06
0.000174821
9.08279e-06
0.000165823
9.00166e-06
0.000156848
8.9742e-06
0.000147938
8.90827e-06
0.000139041
8.89112e-06
0.000130187
8.84815e-06
0.000121349
8.83005e-06
0.000112547
8.79493e-06
0.000103788
8.75021e-06
9.50993e-05
8.67781e-06
8.64723e-05
8.6159e-06
7.79795e-05
8.48191e-06
6.93818e-05
8.58306e-06
6.09694e-05
8.40212e-06
5.23784e-05
8.58241e-06
4.43307e-05
8.03899e-06
3.59762e-05
8.34928e-06
2.79739e-05
7.99439e-06
1.94108e-05
8.55497e-06
1.12004e-05
8.19924e-06
3.10738e-06
8.08001e-06
-4.93934e-06
8.03589e-06
-1.40481e-05
9.09647e-06
-2.28832e-05
8.83274e-06
-3.15631e-05
8.68007e-06
-3.87544e-05
7.19979e-06
-5.23831e-05
1.36346e-05
-7.3157e-05
2.07774e-05
-9.85161e-05
2.53627e-05
-0.000124866
2.63526e-05
-0.000155904
3.10426e-05
-0.000184558
2.86631e-05
-0.000188294
3.76349e-06
-0.0001464
-4.18867e-05
-7.22105e-05
-7.41869e-05
9.51077e-06
-8.17201e-05
6.81379e-05
-5.86217e-05
0.000105649
-3.75084e-05
0.00013159
-2.59343e-05
0.00016152
-2.9926e-05
0.00021133
-4.9809e-05
0.000265576
-5.4243e-05
0.000359166
-9.35891e-05
0.000447289
-8.81218e-05
0.000584287
-0.000137
0.000730224
-0.000145937
0.000858616
-0.000128392
0.00102406
-0.000165446
-0.00014411
0.0337111
0.0163293
-0.0372742
0.0277729
0.0133096
0.0222169
0.00921093
0.0179392
0.006056
0.0148902
0.00402229
0.0127276
0.0027863
0.0111389
0.00203515
0.00992059
0.0015582
0.00895238
0.00123771
0.00816123
0.00101132
0.00750034
0.000844899
0.00693839
0.000718552
0.00645357
0.000620066
0.00603018
0.000541622
0.00565663
0.000478002
0.00532412
0.000425602
0.00502585
0.000381865
0.00475651
0.00034493
0.00451185
0.000313417
0.00428842
0.000286284
0.00408344
0.00026273
0.00389457
0.000242133
0.00371989
0.000224004
0.00355777
0.000207951
0.00340684
0.000193658
0.0032659
0.000180872
0.00313395
0.000169381
0.00301011
0.000159014
0.00289361
0.000149626
0.00278377
0.000141095
0.00268001
0.000133319
0.00258181
0.000126208
0.0024887
0.000119688
0.00240028
0.000113691
0.00231617
0.000108163
0.00223605
0.000103057
0.00215962
9.83323e-05
0.00208662
9.39509e-05
0.00201679
8.98837e-05
0.00194992
8.61011e-05
0.00188579
8.25795e-05
0.00182423
7.92988e-05
0.00176505
7.62397e-05
0.0017081
7.33839e-05
0.00165323
7.07177e-05
0.00160031
6.82221e-05
0.00154921
6.58869e-05
0.00149981
6.36987e-05
0.00145202
6.16521e-05
0.00140572
5.97335e-05
0.00136082
5.79476e-05
0.00131723
5.62713e-05
0.00127485
5.47152e-05
0.00123361
5.32514e-05
0.00119344
5.18955e-05
0.00115426
5.0616e-05
0.001116
4.94396e-05
0.00107861
4.83295e-05
0.00104201
4.73168e-05
0.00100615
4.63653e-05
0.000970977
4.55019e-05
0.000936433
4.46912e-05
0.000902464
4.39621e-05
0.00086903
4.32779e-05
0.00083608
4.2662e-05
0.000803573
4.20973e-05
0.000771477
4.15731e-05
0.000739739
4.11187e-05
0.000708352
4.06701e-05
0.000677243
4.03209e-05
0.000646433
3.99344e-05
0.000615829
3.96834e-05
0.000585478
3.93534e-05
0.000555267
3.91836e-05
0.000525259
3.892e-05
0.000495345
3.88103e-05
0.00046558
3.86181e-05
0.000435902
3.85158e-05
0.000406367
3.83364e-05
0.000377001
3.81235e-05
0.000347871
3.78165e-05
0.000318997
3.74989e-05
0.000290459
3.70267e-05
0.000261776
3.72771e-05
0.000233498
3.66867e-05
0.000205053
3.70333e-05
0.00017795
3.51465e-05
0.000150257
3.6049e-05
0.000123377
3.48784e-05
9.50653e-05
3.68724e-05
6.80307e-05
3.52435e-05
4.11993e-05
3.49166e-05
1.46582e-05
3.45882e-05
-1.51741e-05
3.89352e-05
-4.3806e-05
3.74677e-05
-7.15657e-05
3.64396e-05
-9.63153e-05
3.19431e-05
-0.000141876
5.91917e-05
-0.000206972
8.58704e-05
-0.000285493
0.000103881
-0.000364478
0.000105336
-0.000457822
0.00012438
-0.000534205
0.000105038
-0.000530155
-2.76614e-07
-0.000384123
-0.000187927
-0.000148036
-0.000310273
0.00010673
-0.000336487
0.000286927
-0.000238818
0.000410529
-0.000161112
0.00049505
-0.000110459
0.00060972
-0.000144599
0.000768562
-0.000208653
0.000969282
-0.000254967
0.00126368
-0.000387993
0.00157354
-0.000397982
0.00200788
-0.000571341
0.00246144
-0.000599495
0.00287608
-0.000543031
0.0033499
-0.000639264
-0.000642984
0.0414839
0.0160219
-0.0411765
0.0391962
0.0155973
0.0352667
0.0131404
0.0309793
0.0103434
0.0270628
0.00793879
0.0237719
0.00607715
0.0210958
0.00471129
0.0189255
0.00372846
0.0171465
0.0030167
0.0156662
0.00249167
0.0144154
0.0020956
0.013344
0.00178995
0.012415
0.00154909
0.0116009
0.00135576
0.0108808
0.00119808
0.0102388
0.00106766
0.00966217
0.000958442
0.00914112
0.000865983
0.00866759
0.000786944
0.00823508
0.000718787
0.00783826
0.000659553
0.00747268
0.00060771
0.00713463
0.000562046
0.00682099
0.000521591
0.00652909
0.000485561
0.00625664
0.000453318
0.00600169
0.000424337
0.00576252
0.000398187
0.00553765
0.000374504
0.00532576
0.000352984
0.00512571
0.000333367
0.0049365
0.000315428
0.00475721
0.000298976
0.00458705
0.00028385
0.00442531
0.000269908
0.00427133
0.000257031
0.00412455
0.000245116
0.00398443
0.000234071
0.0038505
0.000223817
0.00372232
0.000214283
0.0035995
0.000205408
0.00348166
0.000197139
0.00336848
0.00018943
0.00325963
0.000182233
0.00315483
0.000175512
0.00305383
0.000169222
0.00295639
0.000163336
0.00286226
0.00015782
0.00277126
0.000152662
0.00268316
0.000147827
0.00259779
0.000143319
0.00251497
0.000139094
0.00243452
0.00013516
0.00235631
0.000131468
0.00228017
0.000128036
0.00220597
0.000124808
0.00213359
0.000121825
0.00206289
0.000119022
0.00199376
0.00011645
0.00192608
0.00011404
0.00185974
0.000111841
0.00179465
0.000109782
0.0017307
0.000107918
0.0016678
0.000106175
0.00160586
0.000104598
0.00154481
0.000103147
0.00148458
0.000101812
0.00142506
0.000100628
0.00136624
9.94964e-05
0.00130799
9.85644e-05
0.00125032
9.76043e-05
0.0011931
9.69055e-05
0.00113636
9.60989e-05
0.00107994
9.56011e-05
0.0010239
9.49569e-05
0.000968098
9.46146e-05
0.000912591
9.41263e-05
0.000857295
9.38146e-05
0.0008023
9.33341e-05
0.000747651
9.27757e-05
0.000693455
9.20143e-05
0.000639764
9.11919e-05
0.000586626
9.01666e-05
0.000533382
9.05225e-05
0.000480787
8.92835e-05
0.000428214
8.96086e-05
0.000377774
8.55862e-05
0.000326556
8.72696e-05
0.000276633
8.48016e-05
0.000224501
8.90039e-05
0.000174879
8.48693e-05
0.000125449
8.43449e-05
7.66612e-05
8.338e-05
2.22937e-05
9.33021e-05
-2.92552e-05
8.90174e-05
-7.93386e-05
8.6523e-05
-0.000125708
7.83103e-05
-0.00020917
0.000142654
-0.000323144
0.000199843
-0.000458757
0.000239492
-0.00059179
0.000238369
-0.000747741
0.000280328
-0.000862255
0.00021955
-0.000832121
-3.04265e-05
-0.000555903
-0.000464147
-0.00013536
-0.000730814
0.000310379
-0.000782226
0.000623575
-0.000552012
0.000848289
-0.000385826
0.00100535
-0.000267517
0.00123133
-0.000370588
0.00152196
-0.000499275
0.00190888
-0.000641896
0.00243762
-0.000916736
0.00301849
-0.000978849
0.00379031
-0.00134316
0.00458239
-0.00139157
0.00531386
-0.0012745
0.00610246
-0.00142786
-0.00156489
0.0459475
0.0147205
-0.044646
0.0460333
0.0155115
0.0444568
0.0147169
0.0417346
0.0130656
0.0384916
0.0111818
0.0351866
0.00938214
0.0320874
0.00781044
0.0293088
0.0065071
0.0268697
0.00545577
0.0247442
0.00461711
0.0228914
0.00394847
0.0212692
0.00341214
0.0198405
0.0029778
0.018574
0.00262219
0.0174443
0.00232783
0.0164303
0.00208158
0.0155152
0.00187355
0.014685
0.0016962
0.0139282
0.00154374
0.0132353
0.00141167
0.0125984
0.00129646
0.0120108
0.00119531
0.0114669
0.001106
0.0109617
0.00102671
0.0104913
0.000955961
0.0100521
0.000892557
0.00964095
0.000835499
0.00925518
0.000783958
0.00889245
0.00073724
0.00855068
0.000694754
0.00822805
0.000655997
0.00792295
0.000620537
0.00763392
0.000588001
0.0073597
0.000558074
0.00709912
0.000530482
0.00685116
0.000504993
0.00661488
0.000481402
0.00638942
0.000459529
0.00617402
0.000439219
0.00596798
0.000420332
0.00577064
0.000402749
0.00558142
0.000386365
0.00539976
0.000371087
0.00522517
0.000356821
0.00505719
0.000343494
0.0048954
0.000331021
0.00473939
0.000319347
0.0045888
0.000308407
0.00444329
0.000298173
0.00430253
0.000288582
0.00416622
0.00027963
0.00403408
0.000271242
0.00390582
0.00026342
0.0037812
0.000256083
0.00365999
0.00024925
0.00354196
0.000242833
0.0034269
0.000236885
0.00331462
0.000231306
0.00320489
0.000226169
0.00309757
0.000221361
0.00299246
0.000216958
0.00288939
0.000212841
0.00278822
0.000209094
0.0026888
0.000205599
0.00259097
0.000202424
0.00249462
0.000199499
0.00239962
0.000196814
0.00230583
0.000194407
0.00221319
0.00019214
0.00212154
0.000190218
0.00203083
0.000188309
0.0019409
0.000186833
0.00185176
0.000185242
0.0017632
0.000184157
0.00167528
0.000182881
0.00158779
0.000182104
0.0015008
0.000181109
0.00141422
0.000180403
0.00132816
0.000179398
0.00124267
0.000178259
0.00115794
0.000176754
0.001074
0.000175131
0.000990891
0.000173273
0.000907767
0.000173648
0.000825652
0.000171399
0.00074384
0.000171423
0.000665066
0.000164359
0.000585348
0.000166991
0.000507552
0.000162597
0.000426865
0.000169691
0.000350283
0.000161454
0.000273808
0.000160818
0.0001986
0.000158591
0.000115383
0.000176519
3.74153e-05
0.000166986
-3.8593e-05
0.000162532
-0.000111162
0.000150879
-0.000238257
0.000269749
-0.00040513
0.000366715
-0.000600559
0.00043492
-0.000787378
0.000425187
-0.00100289
0.000495834
-0.00114227
0.000358932
-0.0010642
-0.000108515
-0.000629412
-0.000898937
3.46552e-08
-0.00136026
0.000653585
-0.00143578
0.00111281
-0.00101123
0.00145472
-0.000727735
0.0017021
-0.000514899
0.00206697
-0.000735462
0.0025172
-0.000949506
0.00312993
-0.00125462
0.0039321
-0.00171891
0.00483056
-0.00187731
0.00597961
-0.0024922
0.00714072
-0.00255268
0.00821366
-0.00234744
0.00932642
-0.00254063
-0.00297286
0.0494157
0.0135253
-0.0482206
0.0503812
0.014546
0.0504018
0.0146963
0.0493822
0.0140851
0.0475398
0.0130242
0.0451669
0.0117551
0.042535
0.0104423
0.0398508
0.00919135
0.037249
0.00805754
0.0348043
0.00706179
0.032549
0.00620374
0.0304892
0.00547198
0.0286164
0.00485054
0.0269159
0.00432277
0.0253704
0.00387332
0.0239631
0.00348889
0.0226783
0.00315835
0.0215019
0.00287255
0.0204216
0.00262401
0.0194266
0.00240667
0.0185075
0.00221558
0.0176561
0.00204673
0.0168653
0.00189679
0.016129
0.00176306
0.0154416
0.00164327
0.0147986
0.00153555
0.0141958
0.00143832
0.0136295
0.00135028
0.0130965
0.00127029
0.0125938
0.00119741
0.012119
0.00113081
0.0116698
0.00106979
0.011244
0.00101372
0.01084
0.000962098
0.010456
0.000914456
0.0100906
0.000870405
0.00974242
0.000829605
0.00941021
0.000791749
0.00909285
0.000756577
0.00878934
0.000723851
0.00849872
0.000693371
0.00822013
0.000664953
0.00795278
0.00063844
0.00769593
0.000613674
0.0074489
0.000590524
0.00721107
0.000568852
0.00698186
0.00054856
0.00676073
0.000529539
0.00654716
0.000511737
0.00634069
0.000495052
0.00614086
0.000479463
0.00594725
0.000464855
0.00575945
0.000451216
0.00557711
0.000438423
0.00539987
0.000426491
0.00522741
0.000415292
0.0050594
0.000404892
0.00489556
0.000395144
0.00473559
0.000386143
0.00457922
0.000377723
0.00442619
0.00036999
0.00427627
0.000362763
0.0041292
0.000356162
0.00398479
0.00035001
0.00384281
0.000344405
0.00370307
0.000339233
0.0035654
0.000334491
0.00342959
0.000330209
0.00329552
0.000326211
0.00316298
0.000322758
0.00303189
0.000319402
0.00290201
0.000316709
0.00277334
0.00031392
0.00264559
0.000311896
0.00251883
0.00030965
0.00239278
0.000308152
0.00226753
0.000306358
0.00214294
0.000304998
0.00201917
0.000303161
0.0018963
0.000301136
0.00177454
0.000298514
0.00165393
0.00029574
0.00153452
0.000292684
0.00141523
0.000292932
0.00129748
0.000289154
0.00118039
0.000288515
0.0010674
0.000277345
0.000953322
0.000281073
0.000842026
0.000273892
0.000727275
0.000284441
0.000618637
0.000270095
0.000509968
0.000269484
0.000403558
0.000265004
0.000286723
0.000293352
0.000178443
0.000275267
7.20476e-05
0.000268927
-3.10472e-05
0.000253973
-0.000207291
0.000445994
-0.00042985
0.000589273
-0.000686162
0.000691232
-0.000923956
0.000662982
-0.00119227
0.000764147
-0.00133827
0.000504933
-0.00118641
-0.000260382
-0.000562909
-0.00152244
0.000295533
-0.00221869
0.00117789
-0.00231814
0.0017969
-0.00163024
0.00227425
-0.00120509
0.0026318
-0.000872445
0.00316547
-0.00126914
0.00380501
-0.00158905
0.00468493
-0.00213453
0.00580071
-0.0028347
0.00706258
-0.00313918
0.00862657
-0.0040562
0.0101829
-0.00410903
0.0116217
-0.00378626
0.0130623
-0.00398115
-0.00492938
0.052877
0.0126268
-0.0519784
0.0539063
0.0135167
0.0545917
0.0140109
0.0546626
0.0140142
0.0540664
0.0136205
0.052872
0.0129494
0.0512086
0.0121057
0.0492223
0.0111776
0.0470477
0.0102321
0.0447954
0.00931411
0.0425476
0.00845155
0.0403604
0.00765915
0.0382685
0.00694242
0.0362905
0.00630081
0.0344337
0.00573008
0.0326985
0.00522413
0.0310807
0.00477614
0.029574
0.00437929
0.0281707
0.00402723
0.0268632
0.00371418
0.0256437
0.00343508
0.024505
0.00318551
0.0234401
0.00296169
0.0224428
0.00276034
0.0215074
0.00257865
0.0206287
0.00241423
0.019802
0.002265
0.0190231
0.00212921
0.0182881
0.00200533
0.0175934
0.00189204
0.0169361
0.00178818
0.0163131
0.00169274
0.015722
0.00160483
0.0151604
0.0015237
0.0146262
0.00144868
0.0141174
0.00137919
0.0136323
0.00131473
0.0131692
0.00125483
0.0127267
0.0011991
0.0123033
0.0011472
0.0118979
0.0010988
0.0115092
0.00105363
0.0111362
0.00101144
0.0107779
0.000972004
0.0104333
0.000935107
0.0101016
0.000900543
0.00978204
0.000868156
0.00947379
0.000837783
0.0091762
0.000809334
0.00888859
0.000782657
0.00861035
0.000757707
0.00834089
0.000734316
0.00807966
0.00071245
0.00782615
0.000691932
0.00757986
0.000672775
0.00734036
0.000654792
0.00710719
0.000638065
0.00687994
0.000622388
0.0066582
0.000607881
0.00644161
0.00059431
0.00622979
0.000581814
0.00602241
0.000570137
0.00581914
0.000559439
0.00561968
0.000549471
0.00542372
0.000540365
0.005231
0.000531953
0.00504125
0.000524238
0.00485422
0.000517241
0.00466969
0.000510736
0.0044874
0.00050505
0.00430721
0.000499598
0.0041288
0.000495112
0.00395214
0.000490583
0.00377688
0.000487153
0.00360305
0.000483485
0.00343032
0.000480882
0.00325878
0.000477895
0.00308825
0.000475526
0.00291896
0.000472454
0.00275095
0.000469149
0.00258452
0.000464939
0.00241967
0.000460597
0.00225648
0.000455867
0.00209365
0.000455766
0.00193305
0.00044975
0.00177357
0.000448001
0.00161945
0.000431467
0.00146413
0.000436389
0.00131277
0.000425255
0.00115756
0.00043965
0.00101093
0.000416724
0.000864124
0.000416289
0.000721089
0.000408042
0.000565345
0.000449095
0.000422544
0.000418069
0.000280871
0.0004106
0.000142621
0.000392222
-8.75756e-05
0.000676191
-0.000366843
0.000868539
-0.000683046
0.00100743
-0.0009658
0.000945736
-0.0012758
0.00107415
-0.00140465
0.000633779
-0.00114961
-0.000515425
-0.000305088
-0.00236696
0.000805241
-0.00332902
0.00193318
-0.00344607
0.00272669
-0.00242375
0.00335985
-0.00183824
0.00384897
-0.00136156
0.0045831
-0.00200327
0.00544222
-0.00244817
0.00663117
-0.00332348
0.00809984
-0.00430337
0.00976818
-0.00480752
0.0117815
-0.00606951
0.0137545
-0.00608201
0.0155858
-0.00561758
0.0173502
-0.00574552
-0.00749181
0.0566005
0.0119394
-0.0559131
0.0574546
0.0126625
0.0582522
0.0132134
0.0587802
0.0134861
0.0589167
0.013484
0.0586157
0.0132505
0.0578865
0.0128349
0.0567767
0.0122874
0.0553548
0.011654
0.053696
0.0109729
0.0518736
0.010274
0.0499529
0.00957986
0.0479885
0.00890686
0.0460233
0.00826595
0.0440895
0.00766387
0.0422096
0.00710405
0.0403983
0.00658747
0.0386642
0.00611336
0.0370117
0.00567977
0.0354417
0.0052841
0.0339534
0.00492343
0.0325442
0.00459473
0.0312108
0.00429508
0.0299494
0.00402168
0.0287562
0.00377195
0.0276269
0.00354353
0.0265576
0.0033343
0.0255444
0.00314235
0.0245838
0.00296599
0.0236721
0.00280367
0.0228063
0.00265403
0.0219832
0.00251584
0.0212
0.002388
0.0204542
0.00226955
0.0197432
0.00215964
0.0190649
0.0020575
0.0184172
0.00196249
0.017798
0.00187398
0.0172057
0.00179144
0.0166385
0.0017144
0.0160948
0.00164243
0.0155733
0.00157514
0.0150726
0.0015122
0.0145913
0.00145326
0.0141284
0.00139805
0.0136827
0.00134626
0.0132531
0.00129768
0.0128389
0.00125207
0.0124389
0.0012093
0.0120524
0.00116916
0.0116785
0.00113157
0.0113166
0.00109629
0.0109657
0.00106328
0.0106254
0.00103228
0.0102949
0.00100329
0.00997358
0.000976075
0.00966092
0.000950716
0.00935637
0.000926941
0.00905935
0.000904895
0.0087694
0.000884263
0.00848599
0.000865221
0.0082087
0.000847421
0.00793707
0.00083107
0.00767071
0.000815833
0.0074092
0.000801878
0.00715218
0.000788974
0.00689929
0.000777129
0.00665018
0.000766349
0.00640457
0.000756353
0.00616207
0.000747539
0.00592251
0.00073916
0.00568548
0.000732139
0.00545089
0.000725176
0.00521831
0.000719732
0.00498774
0.000714057
0.00475878
0.000709842
0.00453153
0.000705147
0.00430575
0.000701302
0.00408174
0.000696474
0.00385949
0.000691398
0.00363941
0.000685013
0.00342141
0.000678606
0.00320568
0.00067159
0.00299062
0.000670823
0.00277874
0.000661637
0.0025685
0.000658245
0.00236511
0.000634848
0.00216052
0.000640981
0.00196145
0.000624329
0.00175836
0.00064274
0.00156685
0.000608236
0.00137505
0.00060808
0.00118926
0.000593833
0.000988752
0.000649605
0.000806805
0.000600017
0.000624771
0.000592635
0.000446847
0.000570146
0.000159241
0.000963797
-0.00017598
0.00120376
-0.000548504
0.00137996
-0.00086621
0.00126344
-0.00120163
0.00140957
-0.00128366
0.000715805
-0.000892414
-0.000906674
0.000204344
-0.00346372
0.00158897
-0.00471364
0.00298029
-0.00483739
0.00396376
-0.00340722
0.00477497
-0.00264945
0.00541777
-0.00200436
0.00638456
-0.00297006
0.00749245
-0.00355606
0.00903063
-0.00486167
0.0108886
-0.00616135
0.0130015
-0.00692038
0.015495
-0.00856306
0.0178998
-0.0084868
0.0201551
-0.00787291
0.0222302
-0.00782057
-0.0107053
0.0606094
0.0113758
-0.0600458
0.0612944
0.0119776
0.0620097
0.0124981
0.0626326
0.0128631
0.0630657
0.0130509
0.0632451
0.0130711
0.0631351
0.0129449
0.0627253
0.0126972
0.0620258
0.0123534
0.0610613
0.0119374
0.059866
0.0114692
0.0584795
0.0109663
0.056943
0.0104434
0.0552964
0.00991252
0.0535767
0.00938364
0.0518161
0.00886462
0.050042
0.00836153
0.0482766
0.00787879
0.046537
0.00741936
0.0448361
0.00698498
0.0431832
0.0065764
0.0415843
0.00619363
0.0400432
0.0058361
0.038562
0.00550288
0.0371412
0.00519277
0.0357803
0.00490442
0.0344782
0.00463645
0.0332331
0.00438745
0.032043
0.00415605
0.0309058
0.00394095
0.0298189
0.00374089
0.0287801
0.00355465
0.027787
0.00338115
0.0268371
0.00321936
0.0259284
0.00306837
0.0250586
0.00292736
0.0242255
0.00279556
0.0234272
0.00267228
0.0226617
0.00255689
0.0219273
0.00244881
0.0212222
0.00234752
0.0205448
0.00225255
0.0198936
0.00216348
0.0192669
0.00207988
0.0186636
0.00200138
0.0180823
0.00192761
0.0175217
0.00185827
0.0169807
0.00179307
0.0164581
0.00173182
0.015953
0.00167426
0.0154643
0.00162025
0.0149911
0.00156951
0.0145325
0.00152194
0.0140875
0.00147722
0.0136555
0.00143534
0.0132356
0.00139598
0.012827
0.00135925
0.0124292
0.00132478
0.0120414
0.00129275
0.0116629
0.00126275
0.0112931
0.00123501
0.0109314
0.00120905
0.0105774
0.00118515
0.0102303
0.00116286
0.0098898
0.00114241
0.00955531
0.00112347
0.00922638
0.00110606
0.00890255
0.00109018
0.00858344
0.00107546
0.00826857
0.00106241
0.00795767
0.00105006
0.00765022
0.00103958
0.0073461
0.00102931
0.00704474
0.00102108
0.00674614
0.00101266
0.0064498
0.00100618
0.00615582
0.000999126
0.00586392
0.000993206
0.00557442
0.000985971
0.0052873
0.000978519
0.00500307
0.000969246
0.00472149
0.000960187
0.00444297
0.000950108
0.00416555
0.000948243
0.00389249
0.000934696
0.00362169
0.000929046
0.00335955
0.00089699
0.0030963
0.000904232
0.00284063
0.000879991
0.00258104
0.00090233
0.00233664
0.000852639
0.002092
0.000852724
0.00185654
0.000829288
0.00160479
0.00090136
0.00137863
0.000826175
0.00115072
0.000820548
0.000929179
0.000791684
0.000582224
0.00131075
0.000194357
0.00159163
-0.000227688
0.001802
-0.000565482
0.00160124
-0.000904537
0.00174862
-0.000903755
0.000715024
-0.000339495
-0.00147093
0.00103572
-0.00483894
0.00272003
-0.00639795
0.00439247
-0.00650983
0.0055819
-0.00459665
0.00659469
-0.00366223
0.00741291
-0.00282259
0.00864345
-0.00420061
0.0100263
-0.00493887
0.0119494
-0.00678484
0.014228
-0.00843989
0.016816
-0.00950838
0.0198174
-0.0115645
0.0226619
-0.0113313
0.0253806
-0.0105917
0.0277427
-0.0101826
-0.0145939
0.0648973
0.0108908
-0.0644123
0.0654633
0.0114116
0.0660716
0.0118898
0.0666571
0.0122776
0.0671572
0.0125508
0.0675235
0.0127048
0.0677206
0.0127478
0.0677246
0.0126931
0.0675223
0.0125557
0.0671097
0.01235
0.0664904
0.0120886
0.0656747
0.011782
0.0646785
0.0114396
0.0635215
0.0110695
0.0622264
0.0106787
0.0608172
0.0102738
0.0593181
0.00986058
0.0577526
0.0094443
0.0561424
0.00902963
0.0545068
0.00862058
0.0528627
0.00822049
0.0512243
0.00783204
0.0496031
0.00745725
0.0480084
0.00709758
0.0464472
0.00675394
0.0449248
0.00642682
0.0434449
0.00611634
0.04201
0.00582237
0.0406215
0.00554457
0.0392801
0.00528241
0.0379857
0.00503528
0.0367379
0.00480246
0.0355358
0.0045832
0.0343784
0.00437675
0.0332644
0.0041824
0.0321923
0.00399944
0.0311607
0.00382722
0.0301679
0.00366509
0.0292123
0.00351244
0.0282924
0.0033687
0.0274066
0.00323335
0.0265533
0.00310587
0.0257309
0.00298583
0.0249381
0.00287273
0.0241733
0.00276618
0.0234352
0.00266573
0.0227224
0.00257105
0.0220337
0.00248179
0.0213678
0.00239772
0.0207235
0.00231853
0.0200997
0.00224406
0.0194953
0.00217395
0.0189091
0.00210808
0.0183403
0.00204604
0.0177878
0.00198785
0.0172507
0.00193306
0.0167281
0.00188183
0.0162192
0.0018337
0.0157231
0.00178888
0.015239
0.00174684
0.0147661
0.00170787
0.0143038
0.00167137
0.0138513
0.00163768
0.0134079
0.00160624
0.012973
0.00157731
0.0125459
0.00155049
0.0121262
0.00152581
0.0117131
0.00150324
0.0113063
0.00148233
0.010905
0.00146368
0.010509
0.00144611
0.0101175
0.00143104
0.00973043
0.00141638
0.00934708
0.00140444
0.00896739
0.00139235
0.00859076
0.00138281
0.00821732
0.00137257
0.00784668
0.00136384
0.00747924
0.00135341
0.00711491
0.00134285
0.00675431
0.00132984
0.00639706
0.00131744
0.00604383
0.00130333
0.00569226
0.00129981
0.00534653
0.00128043
0.00500375
0.00127183
0.00467178
0.00122895
0.00433897
0.00123705
0.00401643
0.00120253
0.00369035
0.00122841
0.00338379
0.0011592
0.00307727
0.00115923
0.00278439
0.00112218
0.00247423
0.00121151
0.00219833
0.00110207
0.00191875
0.00110013
0.00165052
0.00105991
0.00124392
0.00171735
0.000809938
0.00202561
0.000349024
0.00226291
1.33755e-05
0.00193688
-0.000303704
0.0020657
-0.000175974
0.00058729
0.000594856
-0.00224176
0.00228365
-0.00652774
0.00428662
-0.00840091
0.00625778
-0.00848099
0.00766931
-0.00600817
0.00890767
-0.00490059
0.00992139
-0.0038363
0.0114435
-0.00572277
0.0131219
-0.00661724
0.0154579
-0.00912086
0.0181806
-0.0111626
0.0212643
-0.012592
0.0247988
-0.0150991
0.0280819
-0.0146144
0.0313139
-0.0138237
0.0339281
-0.0127968
-0.0191497
0.0694733
0.0104628
-0.0690453
0.0699573
0.0109276
0.0704784
0.0113686
0.071001
0.0117551
0.0714852
0.0120666
0.0718974
0.0122927
0.0722115
0.0124337
0.0724083
0.0124964
0.0724736
0.0124904
0.0723976
0.0124261
0.0721732
0.012313
0.0717968
0.0121584
0.0712677
0.0119687
0.0705882
0.011749
0.0697637
0.0115032
0.0688027
0.0112349
0.0677162
0.010947
0.0665177
0.0106429
0.0652219
0.0103254
0.0638446
0.00999783
0.0624019
0.00966322
0.0609093
0.00932465
0.0593815
0.00898505
0.057832
0.0086471
0.0562727
0.00831317
0.0547143
0.0079853
0.0531654
0.00766518
0.0516337
0.00735414
0.050125
0.00705323
0.0486442
0.00676318
0.0471951
0.00648445
0.0457803
0.00621726
0.0444018
0.00596165
0.043061
0.00571754
0.0417587
0.00548474
0.0404951
0.00526302
0.0392702
0.0050521
0.0380837
0.00485161
0.036935
0.00466121
0.0358232
0.00448049
0.0347475
0.00430907
0.0337068
0.00414657
0.0327
0.0039926
0.031726
0.00384674
0.0307835
0.00370863
0.0298714
0.00357782
0.0289885
0.003454
0.0281335
0.0033368
0.0273052
0.00322603
0.0265024
0.00312131
0.0257239
0.00302252
0.0249687
0.00292923
0.0242354
0.00284133
0.0235231
0.00275834
0.0228307
0.00268028
0.0221571
0.00260664
0.0215013
0.00253761
0.0208624
0.00247261
0.0202393
0.00241194
0.0196312
0.00235494
0.0190371
0.00230196
0.0184562
0.00225227
0.0178877
0.00220628
0.0173306
0.00216329
0.0167843
0.00212365
0.0162479
0.00208685
0.0157208
0.00205291
0.0152022
0.00202181
0.0146916
0.00199298
0.0141881
0.00196718
0.0136913
0.00194289
0.0132004
0.00192191
0.0127152
0.00190161
0.0122348
0.00188484
0.0117591
0.001868
0.0112875
0.00185444
0.01082
0.00184006
0.0103562
0.00182765
0.00989657
0.00181307
0.00944085
0.00179858
0.00898986
0.00178082
0.00854301
0.0017643
0.00810135
0.00174499
0.00766203
0.00173913
0.00723034
0.00171212
0.00680235
0.00169983
0.00638776
0.00164354
0.00597278
0.00165204
0.00557151
0.0016038
0.0051674
0.00163251
0.00478798
0.00153862
0.0044093
0.00153791
0.00405025
0.00148124
0.00367378
0.00158798
0.00334214
0.00143372
0.00300494
0.00143734
0.00268811
0.00137674
0.002224
0.00218146
0.00175406
0.00249555
0.0012688
0.00274817
0.000956355
0.00224932
0.000702601
0.00231945
0.000997773
0.000292122
0.0020188
-0.00326279
0.00405373
-0.00856266
0.00639429
-0.0107415
0.00868153
-0.0107682
0.0103309
-0.00765751
0.0118181
-0.00638783
0.0130444
-0.00506255
0.0148802
-0.0075586
0.0168666
-0.00860364
0.0196312
-0.0118855
0.0228111
-0.0143425
0.026398
-0.0161789
0.0304898
-0.0191908
0.0341995
-0.0183241
0.0380055
-0.0176297
0.0408256
-0.0156168
-0.0243231
0.0743568
0.0100794
-0.0739734
0.0747817
0.0105027
0.0752369
0.0109134
0.0757017
0.0112903
0.0761503
0.011618
0.076558
0.0118849
0.0769052
0.0120865
0.0771772
0.0122244
0.0773636
0.012304
0.0774571
0.0123326
0.0774521
0.012318
0.0773434
0.0122672
0.0771266
0.0121855
0.0767981
0.0120776
0.0763546
0.0119467
0.0757942
0.0117952
0.0751167
0.0116245
0.0743238
0.0114357
0.0734195
0.0112298
0.0724095
0.0110077
0.0713019
0.0107708
0.0701061
0.0105205
0.0688327
0.0102585
0.067493
0.00998684
0.0660985
0.00970764
0.0646607
0.00942306
0.0631907
0.00913524
0.0616986
0.00884622
0.0601939
0.00855792
0.0586851
0.00827205
0.0571794
0.00799011
0.0556833
0.00771332
0.0542023
0.00744269
0.0527408
0.00717902
0.0513026
0.00692296
0.0498906
0.00667498
0.0485073
0.00643548
0.0471542
0.00620466
0.0458327
0.00598267
0.0445437
0.00576954
0.0432875
0.00556525
0.0420644
0.0053697
0.0408742
0.00518278
0.0397167
0.00500429
0.0385913
0.00483402
0.0374974
0.00467167
0.0364344
0.00451704
0.0354014
0.00436983
0.0343974
0.00422995
0.0334217
0.00409706
0.0324731
0.00397112
0.0315507
0.00385168
0.0306533
0.00373869
0.02978
0.00363163
0.0289297
0.00353057
0.0281014
0.00343494
0.027294
0.00334499
0.0265065
0.00326008
0.0257379
0.00318057
0.0249872
0.00310568
0.0242533
0.00303587
0.0235353
0.00297024
0.0228322
0.00290934
0.0221432
0.0028523
0.0214673
0.00279956
0.0208037
0.00275051
0.0201514
0.00270518
0.0195096
0.00266355
0.0188777
0.00262492
0.0182546
0.00259023
0.0176399
0.00255759
0.0170326
0.00252923
0.0164324
0.00250186
0.0158382
0.00247902
0.01525
0.00245619
0.0146669
0.00243755
0.014089
0.00241791
0.0135158
0.00240084
0.0129479
0.00238106
0.0123847
0.0023617
0.0118275
0.00233809
0.0112752
0.00231659
0.0107295
0.00229069
0.0101869
0.00228169
0.00965411
0.00224494
0.00912576
0.00222818
0.0086139
0.00215539
0.00810229
0.00216365
0.0076087
0.00209739
0.00711332
0.00212789
0.00664879
0.00200315
0.00618624
0.00200046
0.00575122
0.00191626
0.0052997
0.0020395
0.0049058
0.00182762
0.004505
0.00183814
0.00413909
0.00174265
0.00362217
0.00269838
0.00313011
0.00298761
0.00263959
0.00323869
0.00238428
0.00250463
0.00223417
0.00246956
0.00274839
-0.000222103
0.00406199
-0.0045764
0.00647248
-0.0109732
0.00916882
-0.0134378
0.0117891
-0.0133885
0.0136909
-0.00955928
0.0154482
-0.00814514
0.0168997
-0.00651406
0.0190626
-0.00972149
0.0213585
-0.0108996
0.0245509
-0.0150779
0.0281874