/*--------------------------------*- C++ -*----------------------------------*\
| =========                 |                                                 |
| \\      /  F ield         | OpenFOAM: The Open Source CFD Toolbox           |
|  \\    /   O peration     | Version:  2412                                  |
|   \\  /    A nd           | Website:  www.openfoam.com                      |
|    \\/     M anipulation  |                                                 |
\*---------------------------------------------------------------------------*/
FoamFile
{
    version     2.0;
    format      ascii;
    arch        "LSB;label=32;scalar=64";
    class       volVectorField;
    location    "1.47";
    object      ddtCorrDdt0(U);
}
// * * * * * * * * * * * * * * * * * * * * * * * * * * * * * * * * * * * * * //

dimensions      [0 1 -2 0 0 0 0];

internalField   nonuniform List<vector> 
12600
(
(0.104091 8.16215e-22 0.0318729)
(0.0697848 1.18661e-21 0.00735957)
(0.0271526 1.14977e-21 -0.00181529)
(0.00868826 0 -0.00307881)
(0.00202101 8.71158e-22 -0.00243429)
(-0.00085819 7.37703e-22 -0.0017172)
(-0.0024636 0 -0.00121272)
(-0.00338547 0 -0.00069866)
(-0.00391692 -1.63854e-21 -0.000335027)
(-0.00426933 0 -7.24226e-05)
(-0.00454291 5.18455e-22 0.000133915)
(-0.00479621 3.99093e-22 0.000304079)
(-0.00504369 -2.95917e-22 0.000445073)
(-0.00526493 0 0.000557853)
(-0.00542591 -1.28229e-22 0.000642354)
(-0.00549989 0 0.000700284)
(-0.00547885 -1.40194e-23 0.000735597)
(-0.00537481 0 0.000753774)
(-0.00521556 1.99283e-22 0.000761028)
(-0.00503801 2.73344e-22 0.00076354)
(-0.00487964 -3.29689e-22 0.000766489)
(-0.00476913 -1.41209e-24 0.000772985)
(-0.00471995 0 0.000783653)
(-0.00473024 8.66512e-22 0.00079727)
(-0.0047895 0 0.000812278)
(-0.00488687 0 0.000828052)
(-0.00501685 1.01867e-21 0.000845459)
(-0.00517906 0 0.000866248)
(-0.00537554 2.51706e-24 0.000892354)
(-0.00560495 -1.22859e-21 0.000924737)
(-0.00586064 -1.31934e-21 0.000963298)
(-0.00612744 -1.41895e-21 0.00100625)
(-0.00638681 1.52492e-21 0.00105134)
(-0.0066164 3.26709e-21 0.00109542)
(-0.00679969 3.4796e-21 0.00113644)
(-0.00691981 -3.68236e-21 0.00117178)
(-0.00697106 0 0.00120082)
(-0.00694296 3.96673e-21 0.00122133)
(-0.00683742 0 0.00123338)
(-0.0066416 -4.03837e-21 0.00123355)
(-0.00636254 0 0.00122243)
(-0.00598677 2.29338e-24 0.00119598)
(-0.00553793 0 0.00115749)
(-0.00500739 -2.9974e-24 0.00110315)
(-0.00444158 -5.59636e-21 0.00103995)
(-0.00383046 4.5985e-21 0.000963047)
(-0.00324805 -3.45337e-21 0.000884036)
(-0.00268254 0 0.000797064)
(-0.00224666 0 0.000720599)
(-0.00191531 2.56777e-22 0.000646271)
(-0.00183563 2.74902e-21 0.000600131)
(-0.00193851 4.5835e-21 0.00056805)
(-0.0023889 -1.48711e-23 0.000583673)
(-0.00302327 6.46291e-21 0.000620755)
(-0.00399931 0 0.000717697)
(-0.00501042 -5.41036e-21 0.0008265)
(-0.00621847 -3.86736e-21 0.000988732)
(-0.00718006 -1.85796e-21 0.0011291)
(-0.0081507 0 0.00130069)
(-0.00861287 0 0.001405)
(-0.00903939 0 0.0015251)
(-0.00887858 -1.13485e-20 0.00154701)
(-0.00888358 0 0.00160078)
(-0.00840049 0 0.00155342)
(-0.00841731 2.67259e-20 0.00158396)
(-0.00802985 0 0.00152207)
(-0.00838525 0 0.00158671)
(-0.00822277 0 0.00154975)
(-0.00885384 -2.33892e-20 0.00166439)
(-0.00869065 2.33906e-20 0.00163944)
(-0.00931866 2.29388e-20 0.00177115)
(-0.00894921 1.61851e-24 0.00172121)
(-0.00951266 -2.09368e-20 0.0018412)
(-0.00909743 0 0.0017679)
(-0.00984858 1.77975e-20 0.00189593)
(-0.00972184 0 0.0018479)
(-0.0107998 0 0.0020157)
(-0.0109926 0 0.00202309)
(-0.0120933 2.56284e-23 0.00220773)
(-0.0122736 4.72598e-20 0.00224116)
(-0.0129034 5.16962e-20 0.00237214)
(-0.0127568 -5.53525e-20 0.00237908)
(-0.0126904 -5.56639e-20 0.00240652)
(-0.0121204 0 0.00234869)
(-0.0116012 0 0.00229543)
(-0.0104424 8.35416e-20 0.00211361)
(-0.0103493 -1.30378e-19 0.00212578)
(-0.00769815 9.47954e-20 0.00162793)
(-0.0101003 2.7806e-20 0.00209596)
(-0.00335741 0 0.000783519)
(-0.0118756 5.06181e-21 0.00241517)
(0.00348986 -8.83504e-21 -0.00055604)
(-0.0149552 2.14908e-20 0.00297606)
(0.0121567 -4.14359e-20 -0.00222016)
(-0.0175939 0 0.00346433)
(0.0200889 0 -0.00366049)
(-0.00519032 0 0.000956308)
(-0.0171426 0 0.00303818)
(0.0826707 0 -0.0152915)
(-0.175626 0 0.0180907)
(0.338613 -9.08744e-20 -0.0649731)
(0.0066744 7.13589e-19 -0.0030979)
(-0.681215 4.13287e-19 0.125546)
(0.788161 0 -0.151839)
(-0.1745 0 0.0440262)
(-0.200014 0 0.0382916)
(0.267295 1.87619e-19 -0.0503204)
(-0.508595 4.223e-19 0.0940643)
(1.54665 -1.29617e-19 -0.287024)
(-1.00016 0 0.207492)
(-0.249682 -1.16757e-18 0.0305808)
(1.3984 0 -0.257183)
(-1.74256 9.8243e-19 0.340673)
(0.577071 -7.10277e-19 -0.12667)
(1.65685 -6.1787e-20 -0.315361)
(1.61243 6.29384e-19 -0.305632)
(3.4373 -4.12011e-18 -0.556427)
(-0.377043 1.0039e-20 0.0672621)
(-5.72059 -7.10254e-18 1.07839)
(-2.66776 0 0.488476)
(0.147802 -8.2406e-22 0.0515295)
(0.126008 0 0.0220676)
(0.0869157 -1.16353e-21 0.00387058)
(0.0550389 0 -0.00292981)
(0.0342409 -8.82664e-22 -0.0042704)
(0.0211865 -1.45957e-21 -0.00378915)
(0.0127329 -6.12115e-22 -0.0029232)
(0.00699999 0 -0.00193576)
(0.00283347 1.80444e-24 -0.00112358)
(-0.000336674 -6.67936e-22 -0.000460837)
(-0.00289201 5.28408e-22 0.000104822)
(-0.00505533 4.081e-22 0.000591337)
(-0.00691442 -3.03987e-22 0.000995832)
(-0.00847149 2.13099e-22 0.00131234)
(-0.0097014 2.63167e-22 0.00154322)
(-0.0105971 0 0.00170118)
(-0.0111881 5.81625e-24 0.00180489)
(-0.0115366 -1.071e-22 0.00187397)
(-0.0117247 -2.02167e-22 0.00192622)
(-0.0118397 0 0.00197582)
(-0.0119569 0 0.00203111)
(-0.0121237 -3.76925e-22 0.00209314)
(-0.0123518 0 0.00215697)
(-0.0126241 -4.38743e-22 0.00221591)
(-0.0129149 9.23618e-22 0.00226636)
(-0.0132083 0 0.00230992)
(-0.0135067 -1.02679e-21 0.00235275)
(-0.0138258 0 0.00240209)
(-0.0141851 1.16276e-21 0.00246421)
(-0.0145947 2.48396e-21 0.00254147)
(-0.0150526 2.66656e-21 0.00263352)
(-0.0155378 1.43623e-21 0.00273573)
(-0.0160244 -1.54307e-21 0.00284394)
(-0.016478 -6.59727e-21 0.00295183)
(-0.0168795 -7.02466e-21 0.0030574)
(-0.0172049 0 0.00315556)
(-0.0174559 0 0.00324749)
(-0.0176132 -1.17968e-23 0.00332669)
(-0.0176862 0 0.00339466)
(-0.0176388 4.07689e-21 0.00343967)
(-0.0174874 0 0.0034655)
(-0.0171856 7.68088e-21 0.00345787)
(-0.016785 0 0.00342905)
(-0.0162349 6.50011e-21 0.0033623)
(-0.0156322 0 0.00327982)
(-0.014902 -4.6304e-21 0.00315804)
(-0.0142017 0 0.00303358)
(-0.0134282 0 0.00287553)
(-0.0128295 1.00538e-21 0.00274119)
(-0.0122461 0 0.00258632)
(-0.012027 0 0.00249298)
(-0.0119054 0 0.00239567)
(-0.0123394 -5.88002e-21 0.00240619)
(-0.0128738 -1.29401e-20 0.00242296)
(-0.0140709 0 0.00258726)
(-0.0151875 0 0.0027384)
(-0.0169226 3.89115e-21 0.00304868)
(-0.0181927 1.85787e-21 0.00327972)
(-0.0199649 0 0.00365365)
(-0.0208249 0 0.00385014)
(-0.0222063 0 0.00418065)
(-0.0223627 0 0.00424687)
(-0.0233591 -1.28168e-20 0.00449195)
(-0.0229968 1.3465e-20 0.00442543)
(-0.0240166 -2.65809e-20 0.00464171)
(-0.0235465 0 0.00451893)
(-0.0249876 0 0.00480102)
(-0.0246043 0 0.00468987)
(-0.0264905 1.80798e-24 0.00507628)
(-0.0260172 -2.31669e-20 0.00496661)
(-0.0280897 -2.26988e-20 0.00541368)
(-0.0273192 4.4286e-20 0.00525035)
(-0.0294585 -3.09902e-24 0.00570576)
(-0.0285486 -1.92705e-20 0.00548795)
(-0.0309258 -1.75443e-20 0.00596588)
(-0.0302751 0 0.00577318)
(-0.0329492 0 0.0063075)
(-0.0327104 0 0.00620413)
(-0.0352494 4.06536e-20 0.00674167)
(-0.035179 0 0.00670034)
(-0.036883 0 0.00710413)
(-0.0366388 5.41745e-20 0.00704691)
(-0.0371072 5.44211e-20 0.00721299)
(-0.0363492 0 0.00705433)
(-0.0359724 0 0.00703008)
(-0.0337255 0 0.00657741)
(-0.0345333 1.27021e-19 0.00673403)
(-0.0275863 7.87201e-23 0.00536961)
(-0.0352589 2.71236e-20 0.00681815)
(-0.0155304 -1.31677e-20 0.00299748)
(-0.0409136 -4.82731e-21 0.00785239)
(0.00526629 -8.47663e-21 -0.00108479)
(-0.0501885 -4.15412e-20 0.0096594)
(0.0320317 0 -0.00632468)
(-0.0584028 0 0.0113532)
(0.0565274 0 -0.0113117)
(-0.0252362 0 0.00557708)
(-0.044481 -8.12804e-20 0.0072244)
(0.224101 0 -0.0412998)
(-0.507118 0 -0.081115)
(0.988954 -8.79252e-20 -0.196854)
(-0.108184 -3.41144e-19 0.037693)
(-1.7996 -7.95888e-19 0.331999)
(2.33079 -7.89734e-19 -0.464052)
(-0.675423 0 0.164135)
(-0.446318 0 0.0757952)
(0.719159 0 -0.133296)
(-1.3402 -2.0195e-19 0.23992)
(4.183 1.23357e-19 -0.802759)
(-3.16541 0 0.66118)
(-0.241625 2.2131e-18 -0.0054203)
(3.81194 1.20281e-18 -0.699582)
(-5.05052 -1.86959e-18 0.998489)
(2.23722 0 -0.496667)
(4.86433 0 -0.950915)
(4.60109 5.9065e-19 -0.90596)
(8.99955 0 -1.63179)
(-2.00469 1.16049e-17 0.523333)
(-15.915 6.72791e-18 3.09206)
(-6.94715 0 1.27818)
(0.148435 0 0.0451072)
(0.141553 0 0.0292578)
(0.122093 -9.43334e-22 0.0149358)
(0.0975786 0 0.00578971)
(0.0741976 0 0.000682318)
(0.0547589 7.12069e-22 -0.0016158)
(0.0396182 5.79627e-22 -0.00222535)
(0.0280087 0 -0.00204776)
(0.019019 7.1096e-24 -0.00151957)
(0.011908 6.32744e-22 -0.000842561)
(0.00608835 -9.99839e-22 -0.000121389)
(0.0011777 -3.86657e-22 0.000561364)
(-0.00300972 -1.05094e-24 0.0011397)
(-0.00652736 -2.01921e-22 0.00158076)
(-0.00938216 -1.26063e-22 0.00189092)
(-0.0116038 6.16105e-23 0.00210391)
(-0.0132719 -2.46321e-25 0.00226107)
(-0.0145064 1.0149e-22 0.00239777)
(-0.0154455 0 0.00253885)
(-0.0162233 0 0.0026972)
(-0.0169483 -3.09534e-22 0.00287211)
(-0.0176828 -3.52728e-22 0.00305005)
(-0.0184362 0 0.00321165)
(-0.0191791 0 0.0033421)
(-0.0198742 -8.75176e-22 0.0034391)
(-0.0205039 0 0.00351242)
(-0.0210809 1.94383e-21 0.00357852)
(-0.0216371 -1.02884e-21 0.00365207)
(-0.0222084 0 0.00374304)
(-0.0228153 -1.17455e-21 0.0038533)
(-0.0234618 -1.26074e-21 0.00398107)
(-0.0241254 0 0.00411932)
(-0.0247802 1.45051e-21 0.00426477)
(-0.0253878 3.11846e-21 0.00441173)
(-0.0259349 1.3835e-23 0.00456296)
(-0.0263983 0 0.00471406)
(-0.0267929 0 0.00487079)
(-0.0270957 -3.78386e-21 0.0050222)
(-0.0273278 0 0.005172)
(-0.0274346 0 0.00529877)
(-0.0274479 0 0.00541174)
(-0.0272929 0 0.00548508)
(-0.0270528 0 0.00554244)
(-0.0266352 0 0.0055496)
(-0.0261871 0 0.00554504)
(-0.0255652 4.39343e-21 0.00547877)
(-0.025007 -3.31863e-21 0.00541413)
(-0.0243086 0 0.00528397)
(-0.0238435 -9.51183e-22 0.0051857)
(-0.0233007 0 0.00502299)
(-0.0232166 0 0.00493687)
(-0.0231029 -4.26248e-21 0.00479102)
(-0.0236957 0 0.00478394)
(-0.0242227 6.10899e-21 0.00471941)
(-0.0256462 -5.96304e-21 0.00486224)
(-0.0267703 0 0.00492491)
(-0.0288518 -3.67799e-21 0.00524847)
(-0.0301687 0 0.00542089)
(-0.0324507 0 0.00588367)
(-0.0333969 0 0.00607463)
(-0.0354705 8.03672e-21 0.00658363)
(-0.0357242 1.06081e-20 0.00668342)
(-0.0375982 2.30163e-23 0.00717346)
(-0.0373018 -2.54159e-20 0.00713403)
(-0.0393802 5.45924e-24 0.00762254)
(-0.0389039 0 0.00747879)
(-0.0415848 0 0.0080434)
(-0.0410989 -2.24071e-20 0.0078577)
(-0.0444136 -3.99388e-24 0.00855646)
(-0.0437357 0 0.00834472)
(-0.047428 0 0.00916448)
(-0.0463625 -2.08805e-20 0.00889183)
(-0.0502858 -1.60595e-24 0.00977722)
(-0.0490147 -3.42505e-24 0.00942956)
(-0.0532635 0 0.0103509)
(-0.0522258 0 0.00998713)
(-0.0567267 -3.16666e-20 0.0109366)
(-0.0561376 3.45085e-20 0.0106391)
(-0.0602763 0 0.0115488)
(-0.0599623 0 0.0113397)
(-0.0628421 0 0.0120586)
(-0.0624834 0 0.0118899)
(-0.063589 0 0.0122848)
(-0.0626734 0 0.0120427)
(-0.0625905 0 0.0121604)
(-0.0593762 0 0.0115155)
(-0.0612767 -1.19535e-19 0.0118836)
(-0.0502439 -4.34226e-20 0.00982597)
(-0.0633725 -2.54927e-20 0.0121631)
(-0.0308608 1.23734e-20 0.00606775)
(-0.0733795 4.44187e-21 0.0139454)
(0.00380148 7.96202e-21 -0.000760586)
(-0.0897026 1.94939e-20 0.017122)
(0.04899 0 -0.00974588)
(-0.104507 0 0.0203014)
(0.0910705 0 -0.0189574)
(-0.0543445 0 0.0133582)
(-0.0642536 7.62543e-20 0.00766518)
(0.34668 0 -0.0600194)
(-0.771012 0 -0.0349125)
(1.61355 8.24413e-20 -0.325358)
(-0.331532 0 0.124733)
(-2.70017 3.75254e-19 0.460972)
(3.82206 7.40073e-19 -0.775169)
(-1.30202 0 0.345239)
(-0.52869 0 0.0576562)
(1.0981 0 -0.190214)
(-2.00601 -1.93286e-19 0.317423)
(6.50161 0 -1.22219)
(-5.41559 2.87561e-18 1.17815)
(0.169754 -2.97515e-21 -0.196298)
(5.88049 -1.1257e-18 -1.00043)
(-8.14966 1.75806e-18 1.6088)
(4.31111 0 -1.04696)
(7.89712 5.99508e-20 -1.55799)
(7.39046 -5.52482e-19 -1.47783)
(13.5674 -3.60812e-18 -2.46016)
(-4.41845 0 1.29123)
(-25.1305 -6.29083e-18 4.88395)
(-10.2448 0 1.76015)
(0.142089 0 0.0395137)
(0.140796 0 0.0319427)
(0.133807 8.91722e-22 0.0227096)
(0.12057 0 0.0146497)
(0.103781 -6.89928e-22 0.00843372)
(0.0862441 1.23709e-21 0.00413387)
(0.0696562 0 0.00149554)
(0.0548573 -8.72778e-22 0.000112395)
(0.0421054 7.35875e-22 -0.000363055)
(0.0312655 5.87043e-22 -0.000225941)
(0.0220048 4.72039e-22 0.000263622)
(0.0140014 -3.63807e-22 0.000873477)
(0.00705961 2.73371e-22 0.00142911)
(0.00111198 -3.8761e-22 0.00184398)
(-0.0038541 0 0.00211849)
(-0.00788044 -1.19017e-22 0.00230594)
(-0.0110783 0 0.00246938)
(-0.0136158 0 0.00265528)
(-0.0156823 0 0.00288784)
(-0.0174569 -2.35967e-22 0.00317003)
(-0.0190829 3.14552e-24 0.00348414)
(-0.0206442 2.46975e-24 0.00379596)
(-0.0221572 -3.6319e-22 0.00406856)
(-0.0235873 0 0.00427931)
(-0.0248888 0 0.00443019)
(-0.0260418 0 0.00454275)
(-0.027068 -1.83448e-21 0.0046458)
(-0.0280139 2.23379e-24 0.00476118)
(-0.0289314 0 0.00490064)
(-0.0298507 0 0.0050631)
(-0.0307818 0 0.00524356)
(-0.0317023 0 0.00543168)
(-0.0325886 -2.73632e-21 0.00562516)
(-0.0334008 0 0.00581952)
(-0.0341335 3.12632e-21 0.00602289)
(-0.0347652 0 0.00623161)
(-0.0353257 0 0.00645553)
(-0.0357885 3.54174e-21 0.00667834)
(-0.0361895 0 0.00690524)
(-0.0364571 0 0.00710509)
(-0.036643 -3.54459e-21 0.00729322)
(-0.0366456 6.81375e-21 0.00743315)
(-0.0365845 0 0.00756063)
(-0.0363246 5.7863e-21 0.00762453)
(-0.0360685 0 0.00768029)
(-0.0356023 -8.29716e-21 0.00765267)
(-0.0352501 -2.8684e-24 0.00763329)
(-0.0347014 0 0.00752017)
(-0.0344627 0 0.00745254)
(-0.0340607 -1.64793e-22 0.00728355)
(-0.034229 -2.32931e-21 0.00721525)
(-0.0342401 8.0022e-21 0.00704187)
(-0.03512 0 0.00704996)
(-0.035753 5.70234e-21 0.00694796)
(-0.0375177 5.62889e-21 0.00712309)
(-0.0387317 4.81219e-21 0.00715643)
(-0.0412365 3.46506e-21 0.00755386)
(-0.0426307 0 0.00772191)
(-0.0454502 0 0.00831772)
(-0.0464606 -4.3254e-21 0.00853011)
(-0.0492197 -1.51192e-20 0.00922901)
(-0.0495202 -1.00053e-20 0.00935507)
(-0.0522632 3.173e-23 0.0100734)
(-0.0519865 1.19761e-20 0.0100344)
(-0.0551456 1.18239e-20 0.0107736)
(-0.0546443 0 0.0105879)
(-0.0586337 0 0.0114312)
(-0.0580576 2.1116e-20 0.0111693)
(-0.0629151 4.12401e-20 0.0121981)
(-0.0620689 0 0.0118946)
(-0.0675349 2.01642e-20 0.0131132)
(-0.0662283 1.96654e-20 0.0127381)
(-0.0721266 1.83638e-20 0.0140798)
(-0.070565 3.42154e-20 0.0136058)
(-0.0769133 0 0.0150078)
(-0.0755747 0 0.0144875)
(-0.0821607 2.9799e-20 0.0159131)
(-0.081317 -6.49125e-20 0.0154513)
(-0.087331 -3.59044e-20 0.0168105)
(-0.0868712 0 0.0164634)
(-0.0912077 0 0.0175689)
(-0.0908333 0 0.0173015)
(-0.0928556 0 0.0179725)
(-0.0918859 0 0.0176425)
(-0.0923678 0 0.0179166)
(-0.088308 -7.20275e-20 0.0170791)
(-0.0915371 -3.36556e-23 0.0176263)
(-0.0765958 4.08958e-20 0.01491)
(-0.0953215 0 0.0180698)
(-0.0502244 1.17594e-20 0.00985694)
(-0.110042 -2.06242e-21 0.0205198)
(-0.00178844 0 0.000319822)
(-0.134208 1.8225e-20 0.025154)
(0.0621462 3.503e-20 -0.0124785)
(-0.156723 0 0.0300519)
(0.122941 0 -0.0264114)
(-0.0936489 0 0.0234649)
(-0.076704 7.17231e-20 0.00406868)
(0.454332 0 -0.0726194)
(-0.969071 0 0.146978)
(2.19 7.84271e-20 -0.446742)
(-0.644742 2.96212e-19 0.242942)
(-3.37296 0 0.530434)
(5.21575 0 -1.07297)
(-2.03305 0 0.567842)
(-0.438669 0 -0.00105833)
(1.39618 0 -0.227367)
(-2.51942 -1.9218e-21 0.35039)
(8.51767 0 -1.5829)
(-7.65908 -2.69091e-18 1.71997)
(0.931924 -9.63931e-19 -0.494921)
(7.57827 0 -1.19851)
(-10.9467 2.80725e-21 2.17043)
(6.71573 0 -1.71884)
(10.6568 3.03977e-21 -2.11678)
(9.91498 0 -2.01907)
(17.1337 3.37348e-18 -2.98148)
(-7.52577 0 2.33061)
(-33.2504 -5.87858e-18 6.51045)
(-12.4851 0 2.00538)
(0.137103 0 0.0383747)
(0.136015 0 0.0333029)
(0.13354 0 0.026967)
(0.127503 0 0.0206067)
(0.118062 6.51206e-22 0.0150524)
(0.106304 -3.44191e-23 0.0104937)
(0.0932512 0 0.00694167)
(0.0797744 8.23705e-22 0.0043827)
(0.0666048 0 0.00277068)
(0.054227 -1.09569e-21 0.00199278)
(0.0428338 0 0.00183471)
(0.0324411 3.43425e-22 0.00200685)
(0.0230362 0 0.00224507)
(0.0146587 3.65924e-22 0.00239815)
(0.00738119 -1.17751e-22 0.00244822)
(0.00123135 1.16722e-22 0.00246383)
(-0.00386609 -1.46997e-23 0.00252854)
(-0.00808095 7.64903e-23 0.00269556)
(-0.0116275 0 0.00298024)
(-0.0147168 2.22823e-22 0.00336678)
(-0.0175251 2.73496e-22 0.00381308)
(-0.0201666 6.22664e-22 0.00425839)
(-0.0226785 3.4295e-22 0.00464374)
(-0.0250311 0 0.00493646)
(-0.0271718 0 0.00514328)
(-0.0290726 0 0.00529964)
(-0.0307573 8.65083e-22 0.00544855)
(-0.0322844 9.16598e-22 0.00561904)
(-0.0337223 0 0.0058229)
(-0.0351125 0 0.00605371)
(-0.0364733 -1.11306e-21 0.00630147)
(-0.0377842 0 0.00655164)
(-0.0390258 7.83565e-24 0.00680319)
(-0.0401572 2.73865e-21 0.00705327)
(-0.0411811 -2.91297e-21 0.00731637)
(-0.0420758 0 0.00758965)
(-0.0428867 0 0.00788738)
(-0.0435827 -3.34277e-21 0.00818694)
(-0.0442175 0 0.00849539)
(-0.0447019 0 0.00877123)
(-0.0451115 3.3449e-21 0.00903764)
(-0.0453155 -6.42949e-21 0.00924706)
(-0.0454747 0 0.00944964)
(-0.0454074 -5.45928e-21 0.00957568)
(-0.0453788 0 0.00970026)
(-0.0450985 3.91147e-21 0.00972034)
(-0.0449871 2.95998e-21 0.00975976)
(-0.0446177 0 0.00967775)
(-0.0446439 8.89652e-22 0.0096603)
(-0.0444162 1.55408e-22 0.00950367)
(-0.0448843 4.3435e-21 0.00947759)
(-0.0450612 -3.75019e-21 0.00929765)
(-0.0462879 4.80006e-21 0.00934717)
(-0.0470764 -4.88518e-23 0.00922593)
(-0.0492549 0 0.00945513)
(-0.0506141 -4.53568e-21 0.00946665)
(-0.0536241 -3.26562e-21 0.00994815)
(-0.0551499 1.58827e-21 0.0101034)
(-0.0585924 2.29895e-22 0.0108307)
(-0.0597127 4.07516e-21 0.0110451)
(-0.0632415 7.10134e-21 0.0119321)
(-0.0636205 -9.34508e-21 0.0120683)
(-0.0673143 1.07007e-20 0.0130286)
(-0.0670745 0 0.0129879)
(-0.071399 0 0.0140126)
(-0.070882 1.0752e-20 0.0137932)
(-0.0762798 0 0.0149624)
(-0.0756249 0 0.014629)
(-0.0821524 -1.94102e-20 0.0160359)
(-0.0811597 0 0.0156321)
(-0.0885612 -1.89714e-20 0.0172974)
(-0.0870477 -3.70014e-20 0.0168028)
(-0.0951193 0 0.01866)
(-0.093313 -1.60902e-20 0.0180446)
(-0.101996 0 0.0200061)
(-0.100417 0 0.0193154)
(-0.109363 -2.79984e-20 0.0213075)
(-0.108343 3.04944e-20 0.0206556)
(-0.116548 3.79968e-23 0.0225524)
(-0.116042 0 0.0220249)
(-0.122187 0 0.0236016)
(-0.121913 0 0.0231916)
(-0.125227 -4.50694e-20 0.0242263)
(-0.124327 4.36454e-20 0.0237853)
(-0.125754 0 0.0242969)
(-0.120981 1.35216e-19 0.0232933)
(-0.125884 5.27431e-20 0.0240569)
(-0.107209 -7.6806e-20 0.0207898)
(-0.131757 -2.2635e-20 0.0246857)
(-0.0743126 -2.21419e-20 0.0146429)
(-0.151582 0 0.0277994)
(-0.0123443 0 0.00248345)
(-0.184396 -1.70889e-20 0.0340294)
(0.0705777 -3.28411e-20 -0.0142499)
(-0.215846 5.331e-20 0.0409822)
(0.151251 0 -0.03367)
(-0.143989 0 0.0370157)
(-0.082291 -6.71998e-20 -0.00359502)
(0.539965 -6.84625e-20 -0.0770351)
(-1.15608 0 0.188072)
(2.70928 -7.34492e-20 -0.556934)
(-1.02037 -2.77373e-19 0.40216)
(-3.82589 0 0.528022)
(6.46895 0 -1.34548)
(-2.83813 0 0.825092)
(-0.188194 0 -0.113814)
(1.60621 0 -0.235764)
(-2.89657 1.71069e-19 0.33098)
(10.252 0 -1.86451)
(-9.80409 0 2.25848)
(1.96995 0 -0.909408)
(8.89801 1.04846e-18 -1.28545)
(-13.3539 -7.72885e-19 2.64294)
(9.33132 0 -2.50784)
(13.0577 -5.52557e-20 -2.60729)
(12.1184 0 -2.50074)
(19.7137 3.1006e-18 -3.25831)
(-11.208 0 3.59522)
(-40.2205 5.49376e-18 7.86946)
(-13.6376 0 1.94763)
(0.133002 -6.50118e-22 0.0393582)
(0.131323 -6.32877e-22 0.0346936)
(0.129672 6.04723e-22 0.0295912)
(0.126663 5.6858e-22 0.0244616)
(0.121717 0 0.0197974)
(0.114912 -5.05084e-22 0.0157173)
(0.106495 0 0.0121917)
(0.096781 7.07433e-22 0.00924487)
(0.0861845 5.96811e-22 0.00698323)
(0.0751678 1.00349e-21 0.00546061)
(0.0641057 -3.98115e-22 0.00459521)
(0.0532432 3.13107e-22 0.00415528)
(0.0427602 0 0.00386756)
(0.0328511 0 0.00354917)
(0.0237441 1.10993e-22 0.00317271)
(0.0156329 1.08354e-24 0.00283044)
(0.00858621 -3.63502e-24 0.00263845)
(0.00252578 -4.35522e-24 0.00266363)
(-0.00272168 0 0.00291073)
(-0.00735837 0 0.00333933)
(-0.0115725 0 0.00387738)
(-0.0155064 -5.81552e-22 0.00443246)
(-0.0192294 -3.18944e-22 0.0049177)
(-0.0227296 0 0.00528459)
(-0.0259501 0 0.00554149)
(-0.0288449 -7.6764e-22 0.00573806)
(-0.031426 0 0.00593375)
(-0.0337546 0 0.00616582)
(-0.0359147 0 0.00644522)
(-0.0379617 0 0.00675787)
(-0.0399261 5.56779e-24 0.00708702)
(-0.0417907 0 0.00741278)
(-0.0435438 8.93534e-24 0.00773551)
(-0.0451426 -2.58159e-21 0.00805398)
(-0.0465982 2.46367e-23 0.00838966)
(-0.0478849 0 0.00874024)
(-0.0490648 0 0.00912488)
(-0.0501007 0 0.00951352)
(-0.0510693 0 0.00991559)
(-0.0518618 0 0.0102779)
(-0.0525831 0 0.0106331)
(-0.0530675 0 0.0109213)
(-0.0535236 5.59303e-21 0.0112094)
(-0.0537154 5.08067e-21 0.0114065)
(-0.0539816 0 0.0116106)
(-0.0539441 3.65842e-21 0.011687)
(-0.054134 0 0.0117965)
(-0.0539916 0 0.0117545)
(-0.0543377 -1.68899e-21 0.0117999)
(-0.0543249 0 0.0116647)
(-0.0551464 -2.02196e-21 0.0116952)
(-0.0555251 0 0.0115181)
(-0.0571543 -8.97836e-21 0.0116254)
(-0.0581311 -5.77139e-23 0.0114944)
(-0.0607837 0 0.0117955)
(-0.0623183 0 0.0117928)
(-0.065901 0 0.012376)
(-0.0675869 -2.98102e-21 0.0125221)
(-0.0717297 -4.28334e-22 0.0133974)
(-0.0729873 -3.77432e-21 0.0136133)
(-0.0773757 -6.60229e-21 0.0147062)
(-0.0778587 1.75417e-20 0.0148508)
(-0.0826073 9.99548e-21 0.0160763)
(-0.0824261 0 0.0160335)
(-0.088036 0 0.017375)
(-0.0875208 -4.97864e-24 0.0171226)
(-0.0944663 0 0.0186572)
(-0.0937479 0 0.018251)
(-0.102111 -1.82763e-20 0.0200812)
(-0.100989 0 0.0195709)
(-0.110525 0 0.0217342)
(-0.108827 3.47786e-20 0.0211084)
(-0.119311 -1.62347e-20 0.0235417)
(-0.117292 0 0.0227701)
(-0.128592 0 0.0253654)
(-0.126816 0 0.0244879)
(-0.138453 2.62948e-20 0.0271354)
(-0.137315 0 0.0262741)
(-0.148093 6.32495e-20 0.0288085)
(-0.147617 -3.59575e-20 0.0280771)
(-0.156001 0 0.0302322)
(-0.155919 0 0.0296557)
(-0.160999 4.22924e-20 0.0311621)
(-0.160269 -4.84533e-23 0.030595)
(-0.16314 3.68633e-20 0.0314373)
(-0.157764 -6.34113e-20 0.0302819)
(-0.164815 4.94931e-20 0.0313013)
(-0.142563 3.60358e-20 0.0276221)
(-0.173285 2.12225e-20 0.0320743)
(-0.103752 -7.72914e-23 0.0205259)
(-0.198654 0 0.0358363)
(-0.028674 6.31818e-21 0.00584563)
(-0.240942 0 0.043764)
(0.073403 0 -0.0148986)
(-0.282677 -4.99414e-20 0.0530593)
(0.175214 0 -0.0404011)
(-0.206435 0 0.053406)
(-0.0814962 0 -0.0148824)
(0.600781 6.41029e-20 -0.0739436)
(-1.31387 0 0.194432)
(3.1586 -7.03171e-20 -0.652273)
(-1.43458 0 0.580177)
(-4.07355 0 0.458936)
(7.54548 0 -1.58193)
(-3.67709 0 1.11435)
(0.200424 0 -0.270664)
(1.71781 1.3193e-19 -0.21581)
(-3.14591 1.63011e-19 0.263974)
(11.7136 -7.10068e-20 -2.07279)
(-11.7631 0 2.78681)
(3.20914 0 -1.41471)
(9.84662 -1.99555e-18 -1.25051)
(-15.2902 0 3.01248)
(12.0206 -5.48176e-19 -3.38589)
(15.0291 0 -3.00923)
(13.9498 -4.33028e-19 -2.91599)
(21.3625 -2.89747e-18 -3.27669)
(-15.2903 0 5.1947)
(-45.9823 5.1127e-18 8.98159)
(-13.6811 0 1.60153)
(0.128916 6.12242e-22 0.0407166)
(0.127166 1.13716e-21 0.036277)
(0.125584 -5.69622e-22 0.031782)
(0.123538 -5.17573e-23 0.0273783)
(0.120557 4.46665e-22 0.0233141)
(0.116527 0 0.0196772)
(0.11143 0 0.0164354)
(0.105241 -6.66124e-22 0.0135572)
(0.0980005 -1.09192e-21 0.0111237)
(0.0898709 -2.22804e-23 0.00925132)
(0.0810731 3.74812e-22 0.00793328)
(0.0717949 -2.94773e-22 0.00700878)
(0.0621912 2.17397e-22 0.00623511)
(0.0524475 0 0.00542251)
(0.0428382 0 0.00453871)
(0.0336907 -5.36935e-23 0.00370733)
(0.0252639 3.45276e-23 0.00310046)
(0.0176601 -1.24568e-22 0.00282621)
(0.0108358 0 0.00289599)
(0.00466892 0 0.00325139)
(-0.000990471 0 0.00379288)
(-0.00628503 3.08377e-24 0.00439644)
(-0.011313 5.98164e-22 0.00494265)
(-0.0160921 -3.20712e-22 0.00535827)
(-0.0205689 -6.81264e-22 0.00564503)
(-0.0246711 1.4427e-21 0.00586382)
(-0.0283781 -7.60716e-22 0.00609251)
(-0.0317339 -8.05911e-22 0.00637945)
(-0.0348296 -8.56625e-22 0.0067353)
(-0.0377343 0 0.00713622)
(-0.0404938 9.82725e-22 0.00755644)
(-0.0430964 -1.04502e-21 0.00796897)
(-0.0455399 1.12811e-21 0.00837517)
(-0.0477794 2.38596e-21 0.00877467)
(-0.0498341 5.09538e-21 0.00919624)
(-0.0516692 0 0.00963731)
(-0.0533634 0 0.0101228)
(-0.0548714 2.87802e-21 0.0106142)
(-0.0562992 0 0.0111239)
(-0.0575164 -2.93361e-21 0.0115851)
(-0.0586638 -2.88445e-21 0.0120418)
(-0.0595327 0 0.0124194)
(-0.0603884 -1.04722e-20 0.012805)
(-0.0609297 -4.78123e-21 0.0130833)
(-0.0615836 0 0.013379)
(-0.0618685 -3.44243e-21 0.013521)
(-0.0624449 -2.60568e-21 0.0137133)
(-0.0625971 0 0.0137201)
(-0.0633406 1.613e-21 0.0138425)
(-0.0635981 7.9117e-23 0.0137381)
(-0.0648458 1.79646e-21 0.0138414)
(-0.0654722 0 0.0136771)
(-0.0675747 6.83058e-23 0.0138615)
(-0.0687761 -9.25915e-21 0.013731)
(-0.0719743 0 0.0141261)
(-0.0737121 0 0.0141185)
(-0.0779432 2.82411e-21 0.0148265)
(-0.07981 1.39724e-21 0.0149685)
(-0.0847382 3.98908e-22 0.0160141)
(-0.0861492 3.54795e-21 0.0162304)
(-0.0914973 6.20577e-21 0.0175511)
(-0.0920974 -8.22331e-21 0.0176975)
(-0.0980196 -1.87472e-20 0.0192134)
(-0.0979069 0 0.0191599)
(-0.104943 0 0.020852)
(-0.104435 -1.89836e-20 0.0205586)
(-0.113095 0 0.0225042)
(-0.112316 0 0.0220172)
(-0.122713 1.71654e-20 0.0243285)
(-0.121463 0 0.0237002)
(-0.133373 -1.67662e-20 0.0264295)
(-0.131498 6.07542e-24 0.0256544)
(-0.14468 1.52413e-20 0.0287433)
(-0.142462 0 0.0277908)
(-0.156721 0 0.0311148)
(-0.154772 0 0.0300214)
(-0.169501 2.46582e-20 0.0334374)
(-0.168283 0 0.0323327)
(-0.182099 -2.96512e-20 0.0356337)
(-0.181703 6.74043e-20 0.0346582)
(-0.192862 0 0.0375305)
(-0.193034 0 0.0367431)
(-0.200479 0 0.0388609)
(-0.199982 -5.54645e-23 0.0381297)
(-0.204943 -3.45584e-20 0.0394263)
(-0.199027 -5.93749e-20 0.0381146)
(-0.208864 -4.6387e-20 0.0394545)
(-0.183147 3.38401e-20 0.0354395)
(-0.220521 0 0.0403972)
(-0.139165 9.83073e-21 0.0276265)
(-0.251944 0 0.0447177)
(-0.0515728 -5.918e-21 0.0105756)
(-0.304539 0 0.0544434)
(0.0697455 0 -0.014252)
(-0.358013 0 0.0664253)
(0.194026 4.00371e-20 -0.0465525)
(-0.281888 6.4643e-20 0.073138)
(-0.0750844 0 -0.030207)
(0.631978 -5.83331e-20 -0.0621637)
(-1.44496 1.0119e-19 0.166965)
(3.53122 6.57941e-20 -0.730017)
(-1.85768 2.40828e-19 0.784006)
(-4.14335 0 0.323215)
(8.41784 0 -1.77349)
(-4.50455 0 1.41895)
(0.691761 0 -0.469167)
(1.72311 -1.23369e-19 -0.162516)
(-3.27373 1.3107e-21 0.148576)
(12.9052 1.26464e-19 -2.20651)
(-13.4688 0 3.27773)
(4.57087 0 -1.99011)
(10.4452 9.48991e-19 -1.09278)
(-16.7 0 3.25749)
(14.6362 5.12256e-19 -4.32011)
(16.5189 0 -3.30716)
(15.3727 8.01948e-19 -3.24954)
(22.1776 0 -3.04331)
(-19.6887 0 6.63508)
(-50.5455 -4.77607e-18 9.79596)
(-12.6292 0 0.950085)
(0.124817 0 0.0420727)
(0.123281 -5.09018e-22 0.0379559)
(0.121845 0 0.0338771)
(0.120173 -4.55189e-22 0.0299162)
(0.117954 -7.98401e-22 0.0262039)
(0.115158 0 0.0228248)
(0.111816 3.07341e-22 0.0197855)
(0.107856 0 0.0170525)
(0.103178 3.54255e-23 0.0146476)
(0.0977557 -8.05143e-22 0.0126729)
(0.0916311 0 0.011149)
(0.084858 0 0.00996119)
(0.0774499 -2.04452e-22 0.00889985)
(0.0694263 0 0.00776668)
(0.0609112 0 0.00649767)
(0.0521775 0 0.00521587)
(0.0435591 -1.69998e-23 0.004145)
(0.0353138 5.71361e-23 0.00346018)
(0.027562 1.18637e-22 0.00321262)
(0.0203159 0 0.00335084)
(0.0135219 0 0.00376556)
(0.00708678 2.5333e-22 0.00431393)
(0.000910198 -2.80129e-22 0.00484807)
(-0.00505645 3.01646e-22 0.00526271)
(-0.0107783 6.40756e-22 0.00554026)
(-0.0161592 -1.35104e-21 0.00574413)
(-0.0211267 3.12643e-24 0.00597078)
(-0.025677 7.57961e-22 0.00628449)
(-0.0298854 8.05645e-22 0.00669919)
(-0.0338256 0 0.00718035)
(-0.0375592 0 0.00769056)
(-0.041079 9.82773e-22 0.00819299)
(-0.0443941 0 0.00868907)
(-0.0474556 -2.24373e-21 0.00917776)
(-0.0502913 -2.38251e-21 0.00969486)
(-0.0528497 2.47595e-21 0.0102364)
(-0.055225 0 0.0108343)
(-0.0573577 -2.70614e-21 0.0114404)
(-0.0593911 -2.71226e-21 0.0120715)
(-0.061169 4.12517e-23 0.0126441)
(-0.0628781 5.3842e-21 0.0132156)
(-0.0642558 0 0.0136937)
(-0.0656352 4.89656e-21 0.0141896)
(-0.0666356 0 0.0145596)
(-0.0677912 0 0.0149607)
(-0.068496 0 0.0151784)
(-0.069566 1.51789e-23 0.0154676)
(-0.0700966 0 0.0155329)
(-0.0713352 -7.63466e-22 0.0157482)
(-0.0719322 -1.27642e-22 0.015684)
(-0.0736982 -1.68816e-21 0.0158786)
(-0.0746282 0 0.0157366)
(-0.0772934 3.87603e-21 0.0160199)
(-0.0787624 8.56357e-21 0.0158998)
(-0.0825953 0 0.0164142)
(-0.0845665 0 0.0164099)
(-0.0895393 -2.65283e-21 0.0172704)
(-0.0916059 -1.27705e-21 0.0174127)
(-0.0974225 -1.87495e-22 0.018657)
(-0.0989972 -3.29453e-21 0.0188719)
(-0.105424 0 0.0204491)
(-0.106144 0 0.0205892)
(-0.11338 4.05691e-23 0.0224277)
(-0.113332 -9.23726e-21 0.0223509)
(-0.12196 0 0.0244346)
(-0.121448 8.90677e-21 0.024086)
(-0.13202 0 0.0264963)
(-0.131162 0 0.0259132)
(-0.14383 0 0.0287732)
(-0.142432 0 0.028008)
(-0.157 -1.31903e-23 0.0313851)
(-0.154927 7.78853e-24 0.0304344)
(-0.17115 -1.43034e-20 0.034275)
(-0.168717 0 0.033107)
(-0.186346 -1.21178e-20 0.0372737)
(-0.184213 0 0.0359228)
(-0.202523 -2.3122e-20 0.0402425)
(-0.201223 2.51077e-20 0.0388466)
(-0.218654 -2.77199e-20 0.0430701)
(-0.218344 -3.15667e-20 0.0417957)
(-0.232946 0 0.0455561)
(-0.233379 3.67942e-20 0.0444977)
(-0.24395 0 0.0474032)
(-0.243683 -3.58816e-20 0.0464521)
(-0.25157 -3.22966e-20 0.048365)
(-0.2451 5.56227e-20 0.0468724)
(-0.258571 0 0.0486352)
(-0.229415 -6.34139e-20 0.0443593)
(-0.274133 0 0.0497602)
(-0.181167 9.34742e-21 0.036029)
(-0.312196 0 0.0545659)
(-0.0818318 -5.37817e-21 0.0168805)
(-0.375945 0 0.0661489)
(0.0587186 -2.65275e-20 -0.0121092)
(-0.44274 4.35586e-20 0.0811622)
(0.206903 -3.74666e-20 -0.0518983)
(-0.37148 -6.04869e-20 0.0960865)
(-0.0637852 0 -0.0491246)
(0.631539 1.08392e-19 -0.0414618)
(-1.54354 -1.89277e-19 0.150159)
(3.81971 0 -0.788182)
(-2.26646 -2.25234e-19 0.996604)
(-4.06777 0 0.141128)
(9.06998 0 -1.91404)
(-5.26894 4.46051e-19 1.73054)
(1.2424 0 -0.700437)
(1.61852 0 -0.0753314)
(-3.28668 -1.43685e-19 -0.0154575)
(13.8274 -1.05553e-19 -2.26495)
(-14.871 -2.05481e-18 3.72497)
(5.96407 0 -2.6685)
(10.73 0 -0.819462)