/*--------------------------------*- C++ -*----------------------------------*\
| =========                 |                                                 |
| \\      /  F ield         | OpenFOAM: The Open Source CFD Toolbox           |
|  \\    /   O peration     | Version:  2412                                  |
|   \\  /    A nd           | Website:  www.openfoam.com                      |
|    \\/     M anipulation  |                                                 |
\*---------------------------------------------------------------------------*/
FoamFile
{
    version     2.0;
    format      ascii;
    arch        "LSB;label=32;scalar=64";
    class       surfaceScalarField;
    location    "1.47";
    object      phi_0;
}
// * * * * * * * * * * * * * * * * * * * * * * * * * * * * * * * * * * * * * //

dimensions      [0 3 -1 0 0 0 0];

oriented        oriented;

internalField   nonuniform List<scalar> 
24930
(
0.0179912
0.0127815
-0.0307726
0.0106135
0.00737768
0.00695633
0.00365721
0.00517728
0.00177905
0.00420377
0.000973516
0.00358002
0.000623749
0.00313353
0.00044649
0.00279365
0.000339883
0.00252419
0.000269455
0.00230407
0.000220122
0.00212011
0.000183964
0.00196356
0.00015655
0.00182836
0.000135195
0.00171017
0.000118192
0.00160576
0.000104405
0.00151272
9.30497e-05
0.00142915
8.35694e-05
0.00135358
7.55612e-05
0.00128486
6.87264e-05
0.00122202
6.28395e-05
0.00116429
5.77276e-05
0.00111103
5.32561e-05
0.00106172
4.93191e-05
0.00101588
4.58321e-05
0.000973156
4.27269e-05
0.000933208
3.99483e-05
0.000895757
3.74506e-05
0.000860561
3.51964e-05
0.000827407
3.31543e-05
0.000796108
3.12981e-05
0.000766503
2.96054e-05
0.000738445
2.80576e-05
0.000711807
2.66384e-05
0.000686473
2.53341e-05
0.00066234
2.41327e-05
0.000639316
2.30242e-05
0.000617316
2.19991e-05
0.000596266
2.10502e-05
0.000576096
2.01701e-05
0.000556742
1.93534e-05
0.000538148
1.8594e-05
0.00052026
1.78883e-05
0.000503029
1.72308e-05
0.000486409
1.66196e-05
0.00047036
1.60492e-05
0.000454841
1.55195e-05
0.000439816
1.50247e-05
0.00042525
1.45662e-05
0.000411112
1.41375e-05
0.00039737
1.37422e-05
0.000383998
1.33722e-05
0.000370964
1.30336e-05
0.000358248
1.27164e-05
0.000345818
1.24295e-05
0.000333658
1.21602e-05
0.000321737
1.19209e-05
0.000310042
1.16956e-05
0.000298541
1.15006e-05
0.000287225
1.13161e-05
0.000276062
1.11628e-05
0.000265046
1.10164e-05
0.000254143
1.09026e-05
0.000243351
1.07919e-05
0.000232636
1.07153e-05
0.000221998
1.06382e-05
0.000211401
1.05966e-05
0.00020085
1.05508e-05
0.000190309
1.0541e-05
0.000179785
1.05238e-05
0.000169244
1.05414e-05
0.000158695
1.0549e-05
0.000148107
1.05874e-05
0.000137493
1.06146e-05
0.000126829
1.0664e-05
0.000116125
1.07039e-05
0.000105374
1.07508e-05
9.4579e-05
1.07948e-05
8.37572e-05
1.08218e-05
7.28966e-05
1.08605e-05
6.20508e-05
1.08458e-05
5.11816e-05
1.08691e-05
4.0395e-05
1.07865e-05
2.96096e-05
1.07853e-05
1.90029e-05
1.06066e-05
8.43065e-06
1.05722e-05
-1.841e-06
1.02716e-05
-1.20435e-05
1.02025e-05
-2.18173e-05
9.7737e-06
-3.1445e-05
9.62773e-06
-4.05783e-05
9.13326e-06
-4.94001e-05
8.82182e-06
-5.78268e-05
8.42662e-06
-6.5599e-05
7.7722e-06
-7.33148e-05
7.71588e-06
-7.991e-05
6.59518e-06
-8.67631e-05
6.85318e-06
-9.29105e-05
6.14745e-06
-9.6941e-05
4.03049e-06
-0.000105351
8.40954e-06
-0.000104286
-1.06845e-06
-0.000115399
1.11137e-05
-0.000125113
9.71351e-06
-0.000104337
-2.07763e-05
-0.000140129
3.57923e-05
-0.000129812
-1.03167e-05
-0.000133452
3.63989e-06
-0.000151587
1.81354e-05
-0.000124927
-2.66596e-05
-0.000183962
5.90343e-05
-0.000167026
-1.69337e-05
-0.000123124
-4.39023e-05
-0.000256481
0.000133358
-0.000139244
-0.000117236
-0.000192288
5.30428e-05
-0.000319595
0.000127307
-0.00041754
9.79444e-05
-0.000980939
0.000563403
-0.00112736
0.000146428
-0.000825978
-0.000301382
-0.000373473
0.0337186
0.0163549
-0.0372919
0.0277708
0.0133255
0.0222078
0.00922014
0.0179258
0.00606107
0.0148743
0.00402499
0.0127103
0.00278777
0.0111208
0.00203596
0.00990207
0.00155865
0.00893357
0.00123795
0.00814226
0.00101144
0.00748128
0.000844942
0.00691928
0.000718549
0.00643444
0.000620036
0.00601106
0.000541578
0.00563751
0.000477953
0.00530501
0.000425552
0.00500676
0.000381816
0.00473744
0.000344884
0.00449279
0.000313378
0.00426937
0.000286253
0.00406439
0.000262712
0.00387551
0.000242132
0.00370081
0.000224021
0.00353865
0.00020799
0.00338765
0.000193722
0.00324664
0.000180962
0.00311459
0.000169499
0.00299063
0.000159158
0.00287399
0.000149796
0.002764
0.00014129
0.00266007
0.000133537
0.00256167
0.000126451
0.00246835
0.000119956
0.0023797
0.000113991
0.00229533
0.000108498
0.00221493
0.000103431
0.00213818
9.87472e-05
0.00206482
9.44126e-05
0.00199459
9.03936e-05
0.00192728
8.66643e-05
0.00186268
8.31981e-05
0.00180059
7.99763e-05
0.00174084
7.69762e-05
0.00168328
7.41854e-05
0.00162774
7.15832e-05
0.0015741
6.91633e-05
0.00152222
6.69054e-05
0.00147197
6.4809e-05
0.00142326
6.28525e-05
0.00137596
6.10419e-05
0.00132998
5.93526e-05
0.00128522
5.77979e-05
0.00124158
5.63484e-05
0.00119899
5.50259e-05
0.00115735
5.37942e-05
0.00111659
5.26848e-05
0.00107663
5.16532e-05
0.00103739
5.07416e-05
0.000998812
4.98954e-05
0.000960805
4.91693e-05
0.000923325
4.84964e-05
0.000886282
4.79451e-05
0.000849639
4.74349e-05
0.000813305
4.7049e-05
0.000777252
4.66918e-05
0.000741387
4.64612e-05
0.000705691
4.62467e-05
0.000670073
4.61587e-05
0.000634522
4.60744e-05
0.000598952
4.61113e-05
0.000563362
4.61396e-05
0.000527674
4.6275e-05
0.000491897
4.63915e-05
0.000455974
4.65872e-05
0.000419919
4.67586e-05
0.000383708
4.69614e-05
0.000347357
4.71463e-05
0.000310891
4.7287e-05
0.000274313
4.74384e-05
0.00023773
4.74287e-05
0.000201102
4.74975e-05
0.00016466
4.72283e-05
0.000128272
4.71727e-05
9.23633e-05
4.65153e-05
5.6626e-05
4.63093e-05
2.17817e-05
4.51158e-05
-1.27967e-05
4.47808e-05
-4.60397e-05
4.30165e-05
-7.89024e-05
4.24904e-05
-0.00010992
4.01504e-05
-0.000140318
3.92201e-05
-0.000168849
3.69574e-05
-0.000195948
3.48719e-05
-0.000222071
3.3839e-05
-0.000245125
2.96486e-05
-0.000268895
3.06238e-05
-0.000289343
2.65956e-05
-0.000305242
1.99297e-05
-0.000332194
3.53614e-05
-0.000329988
-3.27991e-06
-0.00037233
5.34557e-05
-0.000389775
2.71583e-05
-0.000343662
-6.68895e-05
-0.000446705
0.000138836
-0.000413717
-4.33047e-05
-0.000437914
2.78369e-05
-0.00048039
6.06107e-05
-0.000418515
-8.8534e-05
-0.000596855
0.000237376
-0.000522175
-9.16126e-05
-0.000432297
-0.000133779
-0.000803961
0.000505023
-0.000468756
-0.000452441
-0.000682107
0.000266394
-0.00105269
0.000497887
-0.00143259
0.000477852
-0.00306825
0.00219907
-0.00346624
0.000544422
-0.0024242
-0.00134342
-0.00148827
0.0414942
0.016053
-0.0411924
0.0391982
0.0156215
0.0352602
0.0131582
0.0309654
0.0103558
0.0270432
0.00794718
0.0237484
0.00608265
0.0210695
0.00471487
0.0188973
0.00373081
0.017117
0.00301827
0.0156357
0.00249274
0.0143843
0.00209633
0.0133124
0.00179046
0.012383
0.00154944
0.0115685
0.00135601
0.0108482
0.00119826
0.010206
0.00106779
0.00962925
0.000958546
0.00910806
0.000866066
0.00863442
0.000787017
0.00820181
0.000718863
0.00780488
0.000659643
0.00743919
0.000607824
0.00710102
0.000562193
0.00678723
0.000521779
0.00649516
0.000485797
0.00622251
0.000453607
0.00596733
0.000424683
0.0057279
0.000398588
0.00550273
0.00037496
0.00529053
0.000353492
0.00509014
0.000333925
0.00490055
0.000316041
0.00472085
0.000299652
0.00455025
0.000284597
0.00438801
0.000270736
0.00423349
0.00025795
0.0040861
0.000246133
0.00394532
0.000235197
0.00381066
0.000225057
0.00368167
0.000215648
0.00355797
0.000206904
0.00343917
0.000198774
0.00332494
0.000191205
0.00321496
0.000184162
0.00310895
0.000177596
0.00300663
0.000171486
0.00290774
0.000165787
0.00281206
0.000160489
0.00271937
0.000155549
0.00262944
0.000150968
0.0025421
0.000146699
0.00245713
0.000142759
0.00237439
0.000139093
0.00229368
0.000135733
0.00221486
0.000132613
0.00213776
0.000129785
0.00206225
0.000127167
0.00198816
0.00012483
0.00191538
0.000122678
0.00184375
0.000120802
0.00177316
0.000119084
0.00170346
0.000117642
0.00163456
0.000116333
0.00156631
0.0001153
0.00149863
0.000114375
0.00143136
0.000113728
0.00136445
0.000113162
0.00129773
0.000112871
0.00123118
0.000112633
0.00116463
0.000112656
0.00109807
0.000112703
0.00103136
0.000112981
0.000964502
0.000113251
0.000897393
0.000113695
0.000830047
0.000114105
0.000762414
0.000114595
0.000694521
0.000115039
0.000626395
0.000115413
0.000558061
0.000115772
0.000489666
0.000115824
0.00042119
0.000115973
0.000352976
0.000115442
0.000284871
0.000115277
0.000217541
0.000113845
0.00015053
0.000113321
8.50392e-05
0.000110606
2.00366e-05
0.000109783
-4.24963e-05
0.000105549
-0.000104468
0.000104462
-0.00016295
9.86325e-05
-0.000220588
9.68581e-05
-0.000274405
9.07745e-05
-0.000326155
8.66219e-05
-0.000375459
8.31438e-05
-0.000419702
7.38911e-05
-0.000464991
7.5913e-05
-0.000503526
6.51305e-05
-0.000535751
5.21545e-05
-0.00058478
8.43905e-05
-0.000584087
-3.96587e-06
-0.000664779
0.000134148
-0.000686154
4.85332e-05
-0.000622706
-0.000130338
-0.000797703
0.000313834
-0.000738123
-0.000102885
-0.000793833
8.35467e-05
-0.000857886
0.000124663
-0.000770032
-0.000176387
-0.00107432
0.000541666
-0.00092903
-0.000236904
-0.000815782
-0.000247025
-0.00142909
0.00111833
-0.000872438
-0.00100909
-0.00130557
0.000699525
-0.00194291
0.00113523
-0.00266354
0.00119849
-0.00539054
0.00492606
-0.00596117
0.00111505
-0.00404054
-0.00326404
-0.00343282
0.0459587
0.0147544
-0.0446602
0.0460389
0.0155413
0.0444552
0.0147419
0.0417251
0.0130859
0.0384745
0.0111977
0.0351629
0.00939423
0.0320584
0.00781943
0.0292755
0.00651371
0.0268331
0.00546064
0.0247051
0.00462072
0.0228503
0.00395118
0.0212265
0.0034142
0.0197966
0.00297939
0.0185291
0.00262345
0.0173986
0.00232884
0.0163839
0.00208241
0.0154683
0.00187424
0.0146375
0.00169678
0.0138803
0.00154425
0.013187
0.00141214
0.0125498
0.00129692
0.0119618
0.00119579
0.0114175
0.0011065
0.010912
0.00102726
0.0104412
0.000956584
0.0100016
0.000893261
0.00958995
0.00083629
0.0092037
0.000784839
0.00884046
0.000738207
0.00849814
0.000695807
0.00817493
0.000657137
0.0078692
0.000621773
0.0075795
0.000589348
0.00730455
0.000559551
0.00704317
0.000532107
0.00679434
0.000506784
0.0065571
0.000483375
0.00633059
0.000461702
0.00611405
0.000441605
0.00590674
0.00042295
0.00570804
0.00040561
0.00551733
0.000389484
0.00533406
0.000374469
0.00515774
0.000360489
0.00498787
0.000347457
0.00482404
0.000335322
0.00466582
0.000324004
0.00451284
0.000313474
0.00436473
0.000303654
0.00422116
0.000294539
0.00408181
0.000286047
0.00394638
0.000278194
0.00381458
0.000270891
0.00368613
0.000264179
0.00356079
0.000257956
0.00343829
0.000252288
0.0033184
0.000247055
0.00320088
0.000242353
0.00308552
0.000238037
0.00297208
0.000234238
0.00286039
0.00023078
0.0027502
0.00022783
0.00264135
0.000225178
0.00253362
0.000223031
0.00242686
0.000221138
0.00232084
0.000219747
0.00221544
0.000218563
0.00211043
0.000217875
0.00200573
0.00021734
0.00190111
0.000217277
0.0017965
0.000217309
0.00169172
0.00021776
0.00158673
0.000218241
0.00148138
0.000219046
0.00137567
0.000219815
0.00126951
0.000220747
0.00116295
0.000221599
0.00105601
0.000222362
0.000948715
0.000223061
0.00084127
0.000223269
0.000733675
0.000223569
0.00062639
0.000222727
0.000519245
0.000222423
0.000413177
0.000219913
0.00030757
0.000218927
0.000204181
0.000213995
0.00010149
0.000212474
2.6996e-06
0.00020434
-9.56303e-05
0.000202791
-0.000188398
0.0001914
-0.000280107
0.000188568
-0.000365625
0.000176292
-0.000448427
0.000169424
-0.000526863
0.00016158
-0.000598097
0.000145125
-0.000670419
0.000148235
-0.00073205
0.000126762
-0.000785648
0.000105752
-0.000861361
0.000160104
-0.000866323
9.98798e-07
-0.000991086
0.000258911
-0.00101598
7.34215e-05
-0.000941993
-0.000204319
-0.00119546
0.000567301
-0.00110592
-0.000192426
-0.00120351
0.000181138
-0.00128907
0.000210224
-0.00118341
-0.000282041
-0.00161878
0.000977027
-0.00139592
-0.000459759
-0.00128014
-0.000362807
-0.00214092
0.00197911
-0.00136321
-0.0017868
-0.00207854
0.00141486
-0.00300992
0.00206661
-0.00411712
0.0023057
-0.00793327
0.00874221
-0.00856997
0.00175176
-0.00563962
-0.00619439
-0.0063268
0.0494264
0.013561
-0.0482329
0.0503886
0.0145791
0.0504041
0.0147264
0.0493782
0.0141119
0.0475285
0.0130474
0.0451482
0.0117746
0.0425092
0.0104584
0.0398185
0.00920441
0.0372112
0.00806802
0.0347617
0.00707016
0.0325025
0.00621044
0.0304393
0.00547736
0.0285638
0.00485489
0.0268609
0.00432634
0.0253135
0.00387629
0.0239045
0.00349138
0.0226183
0.00316047
0.0214407
0.00287437
0.0203593
0.00262561
0.0193634
0.00240811
0.0184433
0.00221693
0.0175911
0.00204803
0.0167995
0.00189809
0.0160624
0.00176439
0.0153743
0.00164467
0.0147305
0.00153704
0.0141269
0.00143992
0.0135597
0.00135199
0.0130258
0.00127212
0.0125223
0.00119935
0.0120466
0.00113288
0.0115963
0.001072
0.0111696
0.00101611
0.0107644
0.000964684
0.0103793
0.000917276
0.0100126
0.00087349
0.00966296
0.00083298
0.00932921
0.000795446
0.0090102
0.000760619
0.00870488
0.00072827
0.0084123
0.000698185
0.0081316
0.000670189
0.00786196
0.000644107
0.00760264
0.000619811
0.00735294
0.000597152
0.00711223
0.000576038
0.00687989
0.000556338
0.00665537
0.000537994
0.00643814
0.000520885
0.0062277
0.000504983
0.00602358
0.000490167
0.00582533
0.000476444
0.00563253
0.000463684
0.00544478
0.000451931
0.0052617
0.000441036
0.00508291
0.000431083
0.00490806
0.000421899
0.00473681
0.00041361
0.00456883
0.000406012
0.00440379
0.000399277
0.00424141
0.000393161
0.00408135
0.000387889
0.00392337
0.000383167
0.00376712
0.000379278
0.00361239
0.000375869
0.00345885
0.000373286
0.0033063
0.000371108
0.00315444
0.000369739
0.00300309
0.000368693
0.00285195
0.000368414
0.0027009
0.00036836
0.00254966
0.000368993
0.00239817
0.000369735
0.0022462
0.000371016
0.00209373
0.000372284
0.00194063
0.000373845
0.00178694
0.000375292
0.00163266
0.000376644
0.00147785
0.000377869
0.00132274
0.000378375
0.00116736
0.000378951
0.0010123
0.000377786
0.000857363
0.000377361
0.0007038
0.000373476
0.000550809
0.000371919
0.00040079
0.000364013
0.000251674
0.00036159
0.000107731
0.000348283
-3.52245e-05
0.000345747
-0.000170571
0.000326746
-0.000304638
0.000322634
-0.000429705
0.00030136
-0.000551373
0.000291092
-0.000666241
0.000276448
-0.000771612
0.000250495
-0.000877717
0.00025434
-0.000968715
0.00021776
-0.00104991
0.000186949
-0.00115794
0.000268136
-0.001174
1.70575e-05
-0.00134899
0.000433905
-0.00137835
0.000102773
-0.00130204
-0.000280623
-0.00163996
0.000905218
-0.0015184
-0.000313986
-0.00166951
0.000332254
-0.00177672
0.000317432
-0.00166304
-0.000395725
-0.002233
0.00154699
-0.0019295
-0.000763254
-0.00183328
-0.000459029
-0.00294579
0.00309162
-0.00195551
-0.00277708
-0.00301714
0.0024765
-0.00426601
0.00331547
-0.0057975
0.00383719
-0.0106615
0.0136062
-0.0112432
0.0023335
-0.00717351
-0.0102641
-0.0103179
0.0528862
0.0126636
-0.0519889
0.0539135
0.0135518
0.0545958
0.0140442
0.0546624
0.0140452
0.0540606
0.0136491
0.0528598
0.0129754
0.0511894
0.0121288
0.0491959
0.0111979
0.0470143
0.0102496
0.0447554
0.00932907
0.0425016
0.00846427
0.040309
0.00766992
0.0382124
0.00695155
0.0362301
0.00630857
0.0343697
0.00573672
0.0326312
0.00522985
0.0310106
0.00478109
0.0295014
0.00438361
0.0280959
0.00403104
0.0267864
0.0037176
0.0255652
0.00343822
0.0244247
0.00318847
0.0233583
0.00296454
0.0223595
0.00276315
0.0214227
0.00258147
0.0205426
0.00241711
0.0197146
0.00226798
0.0189342
0.00213231
0.0181978
0.00200856
0.0175017
0.0018954
0.0168429
0.0017917
0.0162185
0.00169644
0.0156258
0.00160876
0.0150626
0.00152792
0.0145266
0.00145323
0.014016
0.00138412
0.0135289
0.00132008
0.0130637
0.00126066
0.0126189
0.00120544
0.0121931
0.00115409
0.011785
0.00110628
0.0113934
0.00106174
0.0110173
0.00102021
0.0106556
0.000981483
0.0103074
0.000945335
0.00997186
0.000911618
0.00964806
0.000880137
0.00933527
0.000850793
0.00903275
0.000823404
0.00873981
0.00079792
0.00845581
0.000774162
0.00818013
0.000752126
0.00791219
0.000731626
0.00765142
0.000712707
0.00739729
0.000695164
0.00714927
0.000679096
0.0069069
0.000664268
0.00666968
0.000650838
0.00643716
0.000638527
0.00620888
0.000627559
0.00598444
0.000617604
0.00576337
0.000608954
0.00554532
0.000601217
0.00532984
0.000594761
0.00511659
0.000589116
0.00490514
0.000584737
0.00469519
0.000581058
0.00448631
0.000578615
0.00427825
0.00057675
0.00407061
0.00057606
0.00386317
0.000575797
0.00365557
0.000576591
0.00344768
0.000577631
0.00323918
0.000579514
0.00303002
0.00058144
0.00282001
0.000583856
0.00260917
0.000586134
0.00239748
0.000588339
0.002185
0.000590342
0.00197202
0.00059136
0.00175855
0.000592418
0.00154536
0.000590977
0.0013322
0.000590524
0.00112068
0.000584993
0.00090979
0.000582807
0.000702668
0.000571135
0.000496629
0.00056763
0.000297314
0.000547598
9.92167e-05
0.000543844
-8.87044e-05
0.000514668
-0.00027523
0.00050916
-0.000449407
0.000475537
-0.000619495
0.00046118
-0.000779721
0.000436675
-0.000928042
0.000398816
-0.00107618
0.000402475
-0.00120434
0.000345923
-0.0013208
0.000303409
-0.00146803
0.000415368
-0.00150212
5.11459e-05
-0.00173404
0.000665826
-0.00177051
0.000139247
-0.00170165
-0.000349484
-0.00212923
0.00133279
-0.00197576
-0.000467453
-0.00219298
0.000549478
-0.00232226
0.000446712
-0.00221215
-0.000505833
-0.00291871
0.00225355
-0.00253599
-0.00114597
-0.00248212
-0.000512896
-0.00384904
0.00445854
-0.00266396
-0.00396216
-0.0041344
0.00394695
-0.00571739
0.00489845
-0.0077
0.00581981
-0.0135216
0.0194277
-0.0139208
0.00273275
-0.00858273
-0.0156022
-0.0155906
0.056608
0.0119773
-0.0559216
0.0574607
0.0126991
0.0582561
0.0132487
0.0587814
0.01352
0.0589141
0.0135164
0.0586083
0.0132811
0.0578735
0.0128636
0.0567575
0.0123139
0.0553288
0.0116783
0.0536629
0.0109949
0.0518335
0.0102937
0.0499059
0.00959751
0.0479349
0.00892252
0.0459636
0.00827982
0.0440242
0.00767614
0.0421391
0.00711493
0.0403231
0.00659712
0.0385848
0.00612194
0.0369284
0.00568745
0.0353549
0.00529104
0.0338634
0.00492978
0.0324512
0.00460065
0.031115
0.00430068
0.0298511
0.00402707
0.0286554
0.00377723
0.0275237
0.00354878
0.0264521
0.00333958
0.0254367
0.0031477
0.0244738
0.00297143
0.02356
0.00280924
0.0226919
0.00265976
0.0218666
0.00252177
0.0210811
0.00239421
0.0203329
0.00227612
0.0196195
0.00216664
0.0189386
0.00206502
0.0182881
0.00197058
0.0176661
0.00188272
0.0170706
0.00180089
0.0165001
0.00172463
0.0159529
0.00165348
0.0154275
0.00158708
0.0149227
0.00152506
0.014437
0.00146713
0.0139694
0.00141299
0.0135186
0.00136242
0.0130836
0.00131514
0.0126634
0.001271
0.012257
0.00122977
0.0118636
0.00119134
0.0114823
0.00115549
0.0111122
0.00112218
0.0107527
0.00109116
0.0104029
0.00106248
0.0100622
0.00103587
0.00972985
0.00101144
0.00940525
0.000988873
0.00908771
0.000968372
0.00877667
0.000949571
0.00847148
0.000932746
0.00817162
0.000917469
0.00787646
0.00090411
0.00758552
0.000892157
0.0072982
0.000882085
0.00701404
0.000873276
0.00673246
0.000866319
0.00645304
0.000860473
0.00617522
0.000856436
0.00589863
0.000853336
0.00562274
0.000851958
0.00534723
0.000851304
0.00507161
0.000852206
0.00479568
0.000853567
0.004519
0.000856189
0.00424147
0.000858967
0.00396282
0.000862513
0.00368302
0.000865928
0.00340203
0.000869329
0.00311991
0.000872462
0.00283697
0.000874304
0.00255322
0.000876159
0.00226961
0.000874586
0.00198583
0.000874308
0.0017039
0.000866919
0.00142257
0.000864142
0.00114581
0.000847895
0.000870251
0.000843188
0.000603105
0.000814743
0.000337371
0.000809577
8.46854e-05
0.000767354
-0.000166478
0.000760323
-0.000401407
0.000710466
-0.000631578
0.00069135
-0.000848083
0.00065318
-0.00105019
0.000600924
-0.00125044
0.000602729
-0.00142546
0.000520942
-0.00158659
0.00046454
-0.00178147
0.000610248
-0.0018423
0.000111969
-0.00213872
0.000962254
-0.0021871
0.000187624
-0.00213701
-0.000399575
-0.00265875
0.00185453
-0.00247626
-0.000649949
-0.00277281
0.000846032
-0.0029252
0.000599101
-0.00283214
-0.000598891
-0.00367602
0.00309743
-0.00322068
-0.00160132
-0.00323151
-0.00050206
-0.00485474
0.00608177
-0.00350152
-0.00531539
-0.00543779
0.00588323
-0.00736177
0.00682244
-0.0098083
0.00826634
-0.0164411
0.0260605
-0.0165293
0.00282095
-0.0097958
-0.0223357
-0.0223768
0.060615
0.0114145
-0.0600522
0.0612987
0.0120154
0.0620124
0.012535
0.0626334
0.0128991
0.0630639
0.0130859
0.06324
0.013105
0.063126
0.0129776
0.0627114
0.0127285
0.0620065
0.0123833
0.0610358
0.0119656
0.0598338
0.0114957
0.0584403
0.010991
0.0568966
0.0104662
0.0552429
0.00993356
0.0535161
0.00940295
0.0517487
0.00888231
0.0499681
0.0083777
0.0481965
0.00789355
0.0464511
0.00743284
0.0447448
0.00699734
0.0430868
0.00658782
0.0414832
0.00620427
0.0399377
0.00584614
0.0384523
0.00551246
0.0370275
0.00520201
0.0356629
0.00491345
0.0343571
0.00464536
0.0331085
0.00439632
0.031915
0.00416495
0.0307743
0.0039499
0.0296841
0.00374994
0.028642
0.0035639
0.0276455
0.00339069
0.0266923
0.00322932
0.0257801
0.00307886
0.0249066
0.00293848
0.0240698
0.00280741
0.0232675
0.00268497
0.0224979
0.0025705
0.0217591
0.00246344
0.0210494
0.00236325
0.020367
0.00226948
0.0197104
0.00218165
0.0190781
0.00209942
0.0184687
0.00202239
0.0178808
0.00195028
0.0173132
0.00188273
0.0167647
0.00181956
0.016234
0.00176043
0.0157201
0.00170523
0.015222
0.00165364
0.0147385
0.00160562
0.0142688
0.00156085
0.0138119
0.00151937
0.013367
0.00148082
0.0129331
0.00144535
0.0125094
0.00141256
0.0120951
0.00138268
0.0116894
0.00135524
0.0112916
0.00133059
0.0109008
0.00130819
0.0105165
0.00128849
0.0101378
0.00127085
0.00976398
0.00125587
0.00939451
0.00124274
0.0090286
0.00123223
0.00866569
0.00122338
0.00830504
0.00121709
0.00794616
0.00121222
0.00758833
0.00120979
0.00723113
0.0012085
0.00687391
0.00120943
0.00651635
0.00121113
0.00615789
0.00121465
0.00579834
0.00121852
0.00543731
0.00122355
0.00507474
0.0012285
0.00471051
0.00123355
0.00434467
0.0012383
0.00397756
0.00124142
0.00360918
0.00124455
0.00324064
0.00124312
0.00287156
0.00124339
0.00250445
0.00123403
0.00213774
0.00123085
0.00177638
0.00120925
0.00141623
0.00120334
0.00106629
0.00116468
0.000717889
0.00115798
0.000385571
0.00109967
5.51354e-05
0.00109076
-0.000254656
0.00102026
-0.000559172
0.000995866
-0.000845304
0.000939312
-0.00111452
0.000870141
-0.00137924
0.000867447
-0.00161313
0.000754838
-0.00183048
0.000681884
-0.00208338
0.000863153
-0.00218176
0.000210343
-0.00255147
0.00133197
-0.00261913
0.000255286
-0.00260064
-0.000418069
-0.00322069
0.00247459
-0.00301548
-0.000855159
-0.00340466
0.00123521
-0.00358233
0.000776768
-0.00352155
-0.000659663
-0.00450271
0.00407858
-0.00398692
-0.00211711
-0.00408298
-0.000405987
-0.00596475
0.00796353
-0.00447746
-0.00680268
-0.00692653
0.00833231
-0.00918555
0.00908146
-0.0120916
0.0111724
-0.0193269
0.0332958
-0.0189815
0.0024755
-0.0107261
-0.030591
-0.0309644
0.0649008
0.0109303
-0.0644166
0.0654657
0.0114505
0.0660727
0.011928
0.0666565
0.0123152
0.0671546
0.0125878
0.0675185
0.0127411
0.0677128
0.0127834
0.0677134
0.0127279
0.0675071
0.0125896
0.0670898
0.012383
0.066465
0.0121205
0.0656433
0.0118127
0.0646406
0.011469
0.0634767
0.0110975
0.0621743
0.0107053
0.0607576
0.010299
0.059251
0.00988429
0.057678
0.00946656
0.0560604
0.00905048
0.0544176
0.00864012
0.0527666
0.00823884
0.0511215
0.00784935
0.049494
0.00747368
0.0478932
0.00711327
0.0463261
0.00676905
0.0447981
0.00644149
0.0433128
0.00613069
0.0418726
0.00583651
0.0404789
0.00555858
0.0391325
0.00529636
0.0378332
0.00504924
0.0365805
0.00481654
0.0353737
0.00459754
0.0342115
0.00439152
0.0330926
0.00419775
0.0320155
0.00401554
0.0309788
0.00384419
0.0299806
0.00368309
0.0290195
0.00353159
0.0280938
0.00338914
0.0272019
0.00325518
0.0263422
0.00312924
0.025513
0.00301082
0.0247129
0.00289952
0.0239404
0.0027949
0.023194
0.00269664
0.0224724
0.00260433
0.0217742
0.00251776
0.0210981
0.00243652
0.0204429
0.00236048
0.0198073
0.00228926
0.0191901
0.00222281
0.0185902
0.00216072
0.0180065
0.00210306
0.017438
0.00204939
0.0168835
0.00199987
0.016342
0.00195401
0.0158126
0.0019121
0.0152943
0.00187355
0.0147861
0.00183881
0.0142871
0.00180718
0.0137963
0.00177924
0.013313
0.00175417
0.0128361
0.00173273
0.0123649
0.00171393
0.0118985
0.00169869
0.011436
0.00168584
0.0109766
0.00167648
0.0105196
0.0016692
0.0100642
0.00166529
0.00960959
0.00166306
0.00915509
0.00166392
0.00870023
0.00166599
0.00824426
0.00167063
0.00778687
0.0016759
0.00732755
0.00168287
0.00686615
0.0016899
0.00640248
0.00169723
0.00593651
0.00170426
0.00546863
0.0017093
0.00499877
0.00171441
0.00452827
0.00171362
0.00405662
0.00171504
0.00358686
0.0017038
0.00311709
0.00170062
0.00265335
0.00167299
0.00219064
0.00166604
0.00173998
0.00161534
0.00129088
0.00160708
0.000861221
0.00152933
0.000433646
0.00151833
3.22123e-05
0.00142169
-0.000364422
0.0013925
-0.000736472
0.00131136
-0.00108916
0.00122283
-0.00143345
0.00121175
-0.0017411
0.00106249
-0.00202881
0.000969594
-0.00235253
0.00118687
-0.00250178
0.000359598
-0.00295527
0.00178545
-0.00305264
0.000352656
-0.00308006
-0.000390642
-0.0038028
0.00319732
-0.00358514
-0.00107282
-0.00407976
0.00172984
-0.00428665
0.000983654
-0.00427492
-0.000671385
-0.00539318
0.00519684
-0.00483472
-0.00267557
-0.00503333
-0.00020737
-0.00717708
0.0101073
-0.00559439
-0.00838538
-0.00858861
0.0113265
-0.0111606
0.0116534
-0.0145024
0.0145143
-0.0220654
0.0408588
-0.0211726
0.00158267
-0.0112684
-0.0404952
-0.0416931
0.0694745
0.010503
-0.0690472
0.0699577
0.0109674
0.0704776
0.0114081
0.0709986
0.0117942
0.0714811
0.0121052
0.0718913
0.0123309
0.0722032
0.0124715
0.0723974
0.0125337
0.0724598
0.0125272
0.0723803
0.0124625
0.0721519
0.0123488
0.0717709
0.0121937
0.0712365
0.0120033
0.0705512
0.0117828
0.0697203
0.0115362
0.0687524
0.0112669
0.0676586
0.0109781
0.0664524
0.0106728
0.0651486
0.0103542
0.0637633
0.0100255
0.0623124
0.00968972
0.0608117
0.0093501
0.0592758
0.00900955
0.0577183
0.00867074
0.0561513
0.00833608
0.0545852
0.0080076
0.0530289
0.00768699
0.0514898
0.00737558
0.049974
0.0070744
0.0484862
0.00678415
0.0470301
0.00650531
0.0456085
0.00623814
0.0442233
0.00598273
0.0428759
0.00573901
0.0415668
0.00550682
0.0402964
0.00528592
0.0390646
0.005076
0.037871
0.00487671
0.0367149
0.00468768
0.0355955
0.00450853
0.0345118
0.00433883
0.0334629
0.00417823
0.0324474
0.00402631
0.0314642
0.00388272
0.030512
0.00374707
0.0295896
0.00361906
0.0286956
0.00349829
0.0278288
0.00338455
0.0269879
0.00327743
0.0261716
0.00317682
0.0253786
0.00308227
0.0246076
0.00299376
0.0238575
0.00291084
0.0231269
0.0028336
0.0224148
0.00276152
0.0217198
0.00269482
0.0210409
0.00263291
0.0203769
0.00257615
0.0197266
0.00252385
0.0190889
0.00247654
0.0184627
0.00243337
0.0178468
0.00239509
0.0172403
0.00236068
0.016642
0.00233107
0.0160509
0.00230505
0.0154658
0.00228378
0.0148858
0.00226579
0.0143098
0.00225249
0.0137369
0.00224208
0.013166
0.00223619
0.0125964
0.00223273
0.0120268
0.00223345
0.0114568
0.00223598
0.0108854
0.00224204
0.0103121
0.00224916
0.00973631
0.00225871
0.00915765
0.00226856
0.00857586
0.00227902
0.00799083
0.00228929
0.00740296
0.00229718
0.00681208
0.00230528
0.00621977
0.00230593
0.00562535
0.00230946
0.00503245
0.00229669
0.0044388
0.00229427
0.00385165
0.00226014
0.00326507
0.00225262
0.00269233
0.00218808
0.00212094
0.00217847
0.00157259
0.00207768
0.00102636
0.00206456
0.000511274
0.00193677
2.18991e-06
0.00190158
-0.000475174
0.00178873
-0.000931408
0.00167906
-0.00137381
0.00165415
-0.00177358
0.00146225
-0.00214903
0.00134505
-0.00255932
0.00159716
-0.00277582
0.000576095
-0.0033259
0.00233553
-0.00346684
0.000493594
-0.00355617
-0.000301306
-0.00438697
0.00402812
-0.00417149
-0.00128829
-0.00478337
0.00234171
-0.0050259
0.00122618
-0.00508115
-0.000616131
-0.00633702
0.00645271
-0.00575869
-0.00325391
-0.00607252
0.000106471
-0.00848349
0.0125182
-0.00684454
-0.0100243
-0.0103974
0.0148794
-0.0132406
0.0144966
-0.016974
0.0182477
-0.0245228
0.0484077
-0.0229757
3.53335e-05
-0.011294
-0.0521769
-0.0550742
0.0743555
0.0101201
-0.0739726
0.0747796
0.0105434
0.0752337
0.010954
0.0756972
0.0113307
0.0761443
0.0116582
0.0765503
0.0119249
0.0768955
0.0121263
0.0771653
0.0122639
0.0773492
0.0123433
0.0774401
0.0123717
0.077432
0.0123569
0.0773198
0.0123059
0.0770991
0.012224
0.076766
0.0121158
0.0763175
0.0119847
0.0757515
0.0118329
0.0750678
0.0116618
0.0742681
0.0114725
0.0733564
0.0112659
0.0723386
0.0110432
0.0712228
0.0108056
0.0700183
0.0105545
0.0687361
0.0102918
0.0673873
0.0100195
0.0659837
0.0097397
0.0645367
0.00945457
0.0630574
0.00916628
0.0615561
0.00887688
0.0600422
0.00858828
0.0585242
0.00830218
0.0570094
0.00802008
0.0555043
0.00774326
0.0540143
0.00747277
0.0525438
0.00720947
0.0510966
0.00695403
0.0496756
0.00670694
0.048283
0.00646856
0.0469206
0.00623911
0.0455896
0.00601872
0.0442907
0.00580743
0.0430243
0.0056052
0.0417906
0.00541196
0.0405893
0.00522755
0.0394202
0.00505186
0.0382826
0.00488464
0.0371759
0.00472578
0.0360992
0.00457496
0.0350517
0.00443211
0.0340323
0.00429684
0.0330399
0.00416916
0.0320736
0.00404862
0.031132
0.00393531
0.0302141
0.00382872
0.0293187
0.00372905
0.0284445
0.00363571
0.0275903
0.00354903
0.0267549
0.00346832
0.025937
0.00339408
0.0251354
0.00332547
0.0243487
0.00326319
0.0235759
0.00320623
0.0228154
0.00315551
0.0220663
0.00310981
0.0213271
0.00307032
0.0205966
0.00303551
0.0198735
0.0030069
0.0191566
0.00298263
0.0184446
0.00296449
0.0177364
0.00295026
0.0170306
0.00294199
0.0163263
0.00293706
0.0156221
0.00293769
0.0149171
0.00294091
0.0142103
0.0029489
0.0135009
0.00295855
0.012788
0.00297157
0.0120713
0.00298528
0.0113503
0.00300008
0.0106246
0.00301492
0.0098948
0.003027
0.00916048
0.0030396
0.00842349
0.00304291
0.00768292
0.00305003
0.00694309
0.00303652
0.00620123
0.00303614
0.00546599
0.00299537
0.0047304
0.00298822
0.00401025
0.00290823
0.0032909
0.00289782
0.00259828
0.0027703
0.00190759
0.00275525
0.00125404
0.00259033
0.000607543
0.00254808
9.85284e-07
0.00239528
-0.000584576
0.00226462
-0.00114781
0.00221739
-0.00166227
0.00197671
-0.00214686
0.00182964
-0.00266317
0.00211347
-0.00296694
0.000879868
-0.00362961
0.0029982
-0.00383175
0.000695731
-0.00400097