/*--------------------------------*- C++ -*----------------------------------*\
| =========                 |                                                 |
| \\      /  F ield         | OpenFOAM: The Open Source CFD Toolbox           |
|  \\    /   O peration     | Version:  2412                                  |
|   \\  /    A nd           | Website:  www.openfoam.com                      |
|    \\/     M anipulation  |                                                 |
\*---------------------------------------------------------------------------*/
FoamFile
{
    version     2.0;
    format      ascii;
    arch        "LSB;label=32;scalar=64";
    class       surfaceScalarField;
    location    "0.135";
    object      phi;
}
// * * * * * * * * * * * * * * * * * * * * * * * * * * * * * * * * * * * * * //

dimensions      [0 3 -1 0 0 0 0];

oriented        oriented;

internalField   nonuniform List<scalar> 
24930
(
0.0201766
0.0227019
-0.0428785
0.00908829
0.0110883
0.00460806
0.00448023
0.00282137
0.00178668
0.00199416
0.000827211
0.00150491
0.000489251
0.00117104
0.00033387
0.000925717
0.000245324
0.000738209
0.000187508
0.000590837
0.000147372
0.000472628
0.000118209
0.000375806
9.6822e-05
0.000295462
8.03444e-05
0.000228243
6.7219e-05
0.000171582
5.66611e-05
0.000123565
4.80169e-05
8.2745e-05
4.082e-05
4.80125e-05
3.47325e-05
1.85244e-05
2.94881e-05
-6.41028e-06
2.49346e-05
-2.76308e-05
2.12205e-05
-4.53493e-05
1.77185e-05
-5.99396e-05
1.45903e-05
-7.14473e-05
1.15077e-05
-8.06983e-05
9.25099e-06
-8.75881e-05
6.88982e-06
-9.2436e-05
4.84791e-06
-9.57111e-05
3.27515e-06
-9.78057e-05
2.0946e-06
-9.97438e-05
1.93807e-06
-0.000101762
2.01819e-06
-0.000104336
2.57421e-06
-0.000105671
1.33455e-06
-0.000101653
-4.0174e-06
-8.6917e-05
-1.47364e-05
-5.57247e-05
-3.11923e-05
-3.33888e-06
-5.23858e-05
6.38783e-05
-6.72172e-05
0.000139277
-7.53987e-05
0.000202911
-6.36344e-05
0.000227801
-2.48897e-05
0.000193038
3.47632e-05
6.81774e-05
0.000124861
-0.000149261
0.000217438
-0.000449376
0.000300115
-0.000791761
0.000342385
-0.00110669
0.000314924
-0.00131032
0.000203636
-0.00132329
1.29693e-05
-0.00117983
-0.000143459
-0.000932452
-0.00024738
-0.000659373
-0.000273079
-0.000415574
-0.000243799
-0.000226303
-0.00018927
-9.36201e-05
-0.000132683
-9.11735e-06
-8.45028e-05
3.86112e-05
-4.77286e-05
6.1474e-05
-2.28627e-05
6.90731e-05
-7.59908e-06
6.86187e-05
4.54374e-07
6.47792e-05
3.83941e-06
6.01042e-05
4.67503e-06
5.5822e-05
4.28224e-06
5.20051e-05
3.81684e-06
4.88634e-05
3.14178e-06
4.6296e-05
2.56764e-06
4.42388e-05
2.05736e-06
4.29549e-05
1.28387e-06
4.28336e-05
1.21284e-07
4.42449e-05
-1.41142e-06
4.75081e-05
-3.26314e-06
5.28688e-05
-5.36065e-06
6.0462e-05
-7.59323e-06
7.02975e-05
-9.83552e-06
8.22633e-05
-1.19658e-05
9.61363e-05
-1.3873e-05
0.000111601
-1.54646e-05
0.000128287
-1.66858e-05
0.000145785
-1.74981e-05
0.00016371
-1.79249e-05
0.000181697
-1.79871e-05
0.000199485
-1.7788e-05
0.000216862
-1.73772e-05
0.000233792
-1.69301e-05
0.000250299
-1.65067e-05
0.000266594
-1.62952e-05
0.000282873
-1.62786e-05
0.000299624
-1.67516e-05
0.000317275
-1.7651e-05
0.000336415
-1.91396e-05
0.000357318
-2.09032e-05
0.000380824
-2.35058e-05
0.000407752
-2.69284e-05
0.000439391
-3.16389e-05
0.000475773
-3.63822e-05
0.000516921
-4.11471e-05
0.000561655
-4.47346e-05
0.000610268
-4.8613e-05
0.000662142
-5.18743e-05
0.000718666
-5.65233e-05
0.000779275
-6.06093e-05
0.000845725
-6.64502e-05
0.000916949
-7.12234e-05
0.000995069
-7.812e-05
0.00107862
-8.35559e-05
0.00117029
-9.16653e-05
0.00126829
-9.79991e-05
0.0013759
-0.00010761
0.00149108
-0.000115183
0.00161791
-0.000126826
0.00175392
-0.000136015
0.00190522
-0.000151295
0.00206759
-0.000162373
0.00225417
-0.000186579
0.00245409
-0.000199921
0.00269913
-0.000245041
0.00298652
-0.000287385
0.00331241
-0.000325895
0.0041541
-0.000841687
-0.000795357
0.041022
0.0311227
-0.0494429
0.0294877
0.0226227
0.0199974
0.0139706
0.0137543
0.00802969
0.00991904
0.00466252
0.00750894
0.00289935
0.00588037
0.00196244
0.00470398
0.00142172
0.00381337
0.00107811
0.0031166
0.00084415
0.00255764
0.000677167
0.00210109
0.000553371
0.00172266
0.000458775
0.00140522
0.000384661
0.00113656
0.000325312
0.000907687
0.000276894
0.000711791
0.000236717
0.000543666
0.000202857
0.000399264
0.00017389
0.000275415
0.000148785
0.000169704
0.000126931
8.01235e-05
0.000107299
7.41804e-06
8.72958e-05
-6.19338e-05
8.08595e-05
-0.000117392
6.47097e-05
-0.000161824
5.13211e-05
-0.000196832
3.98564e-05
-0.000224304
3.0747e-05
-0.000245872
2.36627e-05
-0.000264332
2.03977e-05
-0.00028082
1.85066e-05
-0.000295594
1.73483e-05
-0.000303198
8.93855e-06
-0.000291283
-1.59332e-05
-0.000244561
-6.14576e-05
-0.000146501
-0.000129253
1.29172e-05
-0.000211804
0.000214231
-0.000268531
0.0004312
-0.000292368
0.00059682
-0.000229255
0.000627859
-5.59284e-05
0.000450166
0.000212456
-2.51204e-05
0.000600147
-0.000747665
0.000939983
-0.00171539
0.00126784
-0.00276773
0.00139472
-0.00367599
0.00122319
-0.00419402
0.000721664
-0.00414398
-3.70683e-05
-0.0036373
-0.000650137
-0.00284581
-0.00103887
-0.00199118
-0.00112771
-0.00123259
-0.00100239
-0.000643054
-0.000778802
-0.000228698
-0.00054704
3.59635e-05
-0.000349164
0.000184146
-0.000195911
0.000256962
-9.56793e-05
0.000282811
-3.34479e-05
0.000283804
-5.38221e-07
0.000274384
1.32593e-05
0.000262622
1.64363e-05
0.000252173
1.47321e-05
0.000243885
1.21041e-05
0.000237906
9.12089e-06
0.000234195
6.27825e-06
0.000233006
3.24689e-06
0.000235146
-8.56264e-07
0.000241715
-6.44772e-06
0.000253846
-1.35427e-05
0.000272494
-2.19113e-05
0.000298314
-3.118e-05
0.000331598
-4.08772e-05
0.000372262
-5.05e-05
0.000419818
-5.95215e-05
0.000473437
-6.7492e-05
0.000532029
-7.40567e-05
0.000594354
-7.9011e-05
0.000659107
-8.22508e-05
0.000725075
-8.38929e-05
0.000791192
-8.41045e-05
0.000856711
-8.33065e-05
0.000921144
-8.18106e-05
0.000984512
-8.02981e-05
0.00104714
-7.91381e-05
0.00110984
-7.8991e-05
0.00117356
-7.99971e-05
0.00123999
-8.31804e-05
0.00131083
-8.84917e-05
0.00138797
-9.62854e-05
0.00147285
-0.000105785
0.0015683
-0.000118949
0.00167753
-0.000136161
0.00180418
-0.00015829
0.00194863
-0.000180835
0.0021102
-0.000202711
0.00228602
-0.000220559
0.00247639
-0.000238979
0.00268076
-0.000256242
0.00290251
-0.000278279
0.00314161
-0.000299708
0.00340218
-0.000327016
0.00368301
-0.00035206
0.00398909
-0.000384201
0.0043184
-0.000412858
0.00467733
-0.000450595
0.00506338
-0.000484048
0.00548415
-0.000528386
0.00593791
-0.00056894
0.00643174
-0.000620654
0.00696878
-0.00067306
0.00755116
-0.000733671
0.00819539
-0.000806603
0.00889589
-0.000887084
0.00968821
-0.000992241
0.0105822
-0.00113899
0.0116612
-0.00136644
0.0128403
-0.001505
0.0156088
-0.00361018
-0.0033182
0.0516813
0.032428
-0.0529865
0.045131
0.0291729
0.036409
0.0226926
0.0282062
0.0162325
0.0217064
0.0111623
0.0169361
0.00766973
0.0134749
0.00542361
0.0109078
0.00398883
0.00894293
0.00304296
0.0073961
0.00239098
0.0061507
0.00192257
0.00512974
0.00157433
0.00428068
0.00130783
0.00356641
0.00109893
0.00295996
0.000931768
0.00244132
0.000795535
0.00199538
0.000682656
0.00161051
0.000587724
0.00127763
0.000506772
0.000989522
0.000436891
0.000740492
0.000375961
0.00052552
0.00032227
0.000341157
0.000271659
0.000185131
0.000236885
5.38931e-05
0.000195948
-5.77532e-05
0.000162967
-0.000151042
0.000133145
-0.0002269
0.000106605
-0.000289004
8.57662e-05
-0.000341771
7.31653e-05
-0.000387176
6.39112e-05
-0.000425443
5.56154e-05
-0.000447461
3.09567e-05
-0.000434881
-2.85133e-05
-0.000363
-0.000133338
-0.000207362
-0.000284891
4.27315e-05
-0.000461897
0.000363134
-0.000588933
0.000693721
-0.000622955
0.000924279
-0.000459813
0.00091669
-4.83397e-05
0.000546674
0.000582472
-0.000298305
0.00144513
-0.00160038
0.00224205
-0.00324403
0.0029115
-0.00495214
0.00310282
-0.00634707
0.00261812
-0.00705685
0.00143145
-0.00686559
-0.000228327
-0.00595897
-0.00155676
-0.00462135
-0.00237649
-0.00320063
-0.00254843
-0.0019443
-0.00225872
-0.000966451
-0.00175665
-0.000277242
-0.00123625
0.000163552
-0.000789958
0.000416314
-0.000448672
0.000541058
-0.000220423
0.000587699
-8.00892e-05
0.000593287
-6.12641e-06
0.000581766
2.47809e-05
0.000566785
3.14169e-05
0.00055436
2.71573e-05
0.000546189
2.02752e-05
0.000542664
1.26458e-05
0.000543777
5.165e-06
0.000550158
-3.13437e-06
0.000563286
-1.39842e-05
0.000585026
-2.81877e-05
0.000617172
-4.56892e-05
0.000661257
-6.59959e-05
0.000718285
-8.82081e-05
0.00078861
-0.000111202
0.000871865
-0.000133755
0.000967038
-0.000154695
0.00107256
-0.000173017
0.00118647
-0.00018796
0.00130657
-0.000199113
0.00143064
-0.000206322
0.00155667
-0.000209922
0.00168296
-0.000210396
0.0018084
-0.000208751
0.0019324
-0.000205809
0.00205524
-0.000203134
0.00217776
-0.000201662
0.00230162
-0.000202843
0.00242878
-0.000207159
0.00256243
-0.000216831
0.00270579
-0.000231854
0.00286236
-0.000252851
0.00303506
-0.000278484
0.00322917
-0.000313064
0.00345061
-0.0003576
0.00370545
-0.000413126
0.00399418
-0.000469569
0.00431541
-0.00052394
0.00466457
-0.000569726
0.00504238
-0.000616789
0.00544851
-0.000662372
0.00588891
-0.000718671
0.00636404
-0.000774844
0.00688107
-0.000844049
0.00743857
-0.00090956
0.00804525
-0.000990876
0.00869828
-0.00106589
0.00940894
-0.00116125
0.0101735
-0.00124865
0.0110055
-0.00136035
0.0119027
-0.00146612
0.012877
-0.00159501
0.0139364
-0.00173239
0.0150808
-0.00187813
0.0163467
-0.00207247
0.0177104
-0.00225073
0.019255
-0.00253693
0.0209579
-0.00284184
0.0230113
-0.00341982
0.0251739
-0.0036676
0.0299529
-0.00838917
-0.00763439
0.0575528
0.0313067
-0.0564315
0.0554808
0.0312448
0.0500871
0.0280863
0.042986
0.0233336
0.0357635
0.0183847
0.0293799
0.0140533
0.0241337
0.0106699
0.0199413
0.00818123
0.0165961
0.0063881
0.0138997
0.00508741
0.0116968
0.00412545
0.00987325
0.0033979
0.00834571
0.00283538
0.00705314
0.0023915
0.00595016
0.00203475
0.00500249
0.0017432
0.00418388
0.00150127
0.00347391
0.00129769
0.00285654
0.00112414
0.00231896
0.000974471
0.00185093
0.000843996
0.00144375
0.000729446
0.00109062
0.000624787
0.00078718
0.000540327
0.000526348
0.000456779
0.000304818
0.000384498
0.000118751
0.000319213
-3.70459e-05
0.000262402
-0.000170941
0.000219661
-0.000283576
0.000185801
-0.00037918
0.000159515
-0.00045803
0.000134465
-0.000509389
8.23149e-05
-0.000510053
-2.78491e-05
-0.000428276
-0.000215115
-0.000232801
-0.000480366
8.60975e-05
-0.000780796
0.000497114
-0.000999949
0.000909812
-0.00103565
0.0011695
-0.000719504
0.00108538
3.57889e-05
0.000474896
0.00119295
-0.00078152
0.00270154
-0.00266302
0.00412355
-0.0049528
0.00520128
-0.00724609
0.00539612
-0.00902254
0.00439457
-0.00982672
0.00223562
-0.00943947
-0.000615577
-0.00811634
-0.00287989
-0.00624426
-0.00424857
-0.0042766
-0.00451609
-0.00253717
-0.00399815
-0.00117822
-0.0031156
-0.000214796
-0.00219967
0.000403574
-0.00140833
0.000762274
-0.000807373
0.000942566
-0.000400715
0.00101419
-0.000151718
0.00102865
-2.05792e-05
0.00101971
3.37179e-05
0.00100644
4.46895e-05
0.000997574
3.6021e-05
0.000995766
2.20831e-05
0.00100147
6.94079e-06
0.00101508
-8.44162e-06
0.00103781
-2.58641e-05
0.00107159
-4.77676e-05
0.00111905
-7.56437e-05
0.00118269
-0.000109336
0.00126454
-0.000147838
0.00136574
-0.000189417
0.00148655
-0.000232012
0.00162623
-0.000273429
0.00178311
-0.000311573
0.00195478
-0.000344696
0.00213834
-0.000371512
0.00233061
-0.000391386
0.00252846
-0.000404172
0.00272913
-0.000410591
0.0029304
-0.000411665
0.00313094
-0.000409288
0.00333022
-0.000405091
0.003529
-0.000401919
0.0037289
-0.000401561
0.00393264
-0.000406581
0.00414352
-0.000418044
0.00436651
-0.000439813
0.00460662
-0.000471969
0.00486924
-0.000515473
0.00515924
-0.000568485
0.00548477
-0.000638592
0.00585474
-0.000727574
0.00627762
-0.000835998
0.00675398
-0.000945929
0.00728157
-0.00105153
0.00785447
-0.00114262
0.00847392
-0.00123624
0.00914039
-0.00132884
0.00986241
-0.00144069
0.0106416
-0.00155403
0.0114881
-0.00169055
0.012401
-0.00182244
0.0133926
-0.00198251
0.0144602
-0.00213349
0.0156198
-0.00232084
0.0168675
-0.00249633
0.018222
-0.0027149
0.0196826
-0.00292671
0.0212641
-0.00317648
0.0229836
-0.00345194
0.0248316
-0.00372613
0.0268783
-0.00411919
0.0290583
-0.00443069
0.0315377
-0.00501634
0.0342075
-0.00551166
0.0374298
-0.00664212
0.0407111
-0.00694893
0.0475096
-0.0151876
-0.0137629
0.0614314
0.0299079
-0.0600325
0.0617458
0.0309304
0.0596269
0.0302053
0.0552069
0.0277536
0.0493565
0.0242352
0.0430526
0.0203571
0.0370128
0.0167097
0.0316063
0.0135877
0.0269405
0.0110539
0.0229787
0.00904923
0.0196283
0.00747575
0.0167889
0.00623732
0.0143705
0.00525384
0.0122985
0.00446349
0.0105131
0.00382011
0.00896681
0.0032895
0.00762175
0.00284633
0.0064477
0.00247174
0.0054204
0.00215145
0.00452018
0.00187469
0.00373111
0.00163307
0.00303977
0.00142078
0.00243514
0.00122942
0.00190959
0.00106588
0.0014533
0.000913066
0.00106016
0.000777638
0.000723634
0.000655741
0.000437169
0.000548867
0.000194585
0.000462245
-9.94557e-06
0.000390331
-0.000189752
0.000339322
-0.000336263
0.000280976
-0.000440691
0.000186742
-0.000477086
8.54639e-06
-0.000411366
-0.000280835
-0.000205681
-0.000686052
0.000147025
-0.0011335
0.000610871
-0.0014638
0.00106673
-0.00149152
0.00131836
-0.000971132
0.00112366
0.000230485
0.000236215
0.0020804
-0.00143833
0.00437608
-0.00387934
0.00656457
-0.00675324
0.00807518
-0.00952968
0.00817255
-0.0115701
0.00643495
-0.0123812
0.00304679
-0.0117584
-0.00123844
-0.0100234
-0.00461487
-0.00764438
-0.00662757
-0.00516112
-0.00699935
-0.00296188
-0.00619739
-0.0012345
-0.00484298
1.05003e-06
-0.00343522
0.000795399
-0.00220268
0.00126322
-0.0012752
0.00150343
-0.00064092
0.00160493
-0.000253219
0.00163379
-4.94352e-05
0.00163329
3.42143e-05
0.00162831
4.96725e-05
0.00163008
3.42438e-05
0.00164235
9.81532e-06
0.00166629
-1.69954e-05
0.00170229
-4.44446e-05
0.00175217
-7.57467e-05
0.00181875
-0.000114348
0.00190515
-0.000162034
0.00201438
-0.000218572
0.00214887
-0.000282327
0.0023099
-0.00035045
0.00249749
-0.000419593
0.00271033
-0.000486274
0.00294602
-0.000547263
0.00320122
-0.000599896
0.00347199
-0.000642279
0.00375417
-0.00067357
0.00404373
-0.000693736
0.00433725
-0.000704104
0.00463207
-0.000706493
0.00492683
-0.000704046
0.00522127
-0.000699525
0.00551685
-0.000697504
0.0058162
-0.000700913
0.00612343
-0.000713806
0.00644343
-0.000738051
0.00678328
-0.000779657
0.00715007
-0.00083876
0.00755144
-0.000916847
0.00799458
-0.00101162
0.00849097
-0.00113498
0.00905269
-0.0012893
0.00969071
-0.00147402
0.0104055
-0.00166071
0.0111941
-0.00184019
0.0120493
-0.00199781
0.0129734
-0.00216033
0.0139676
-0.002323
0.0150437
-0.00251676
0.0162041
-0.0027145
0.017463
-0.00294943
0.0188194
-0.00317886
0.0202905
-0.00345362
0.0218729
-0.00371584
0.0235885
-0.0040365
0.0254325
-0.00434024
0.0274302
-0.00471263
0.0295811
-0.00507756
0.0319042
-0.00549958
0.0344247
-0.00597251
0.0371248
-0.00642624
0.0401063
-0.00710061
0.0432642
-0.00758861
0.0468422
-0.00859441
0.0506419
-0.00931136
0.0552043
-0.0112045
0.0597258
-0.0114704
0.06849
-0.0239518
-0.0216279
0.0649
0.0288404
-0.0638325
0.0659298
0.0299006
0.0658248
0.0303103
0.0639694
0.029609
0.060415
0.0277896
0.0556244
0.0251477
0.0501964
0.0221378
0.0446448
0.0191393
0.0393221
0.0163766
0.0344228
0.0139485
0.0300236
0.0118749
0.0261282
0.0101328
0.022702
0.00867997
0.0196959
0.00746964
0.0170581
0.00645792
0.0147405
0.00560706
0.0127008
0.00488601
0.0109028
0.00426982
0.00931556
0.00373865
0.00791342
0.00327683
0.00667471
0.00287178
0.00558107
0.00251441
0.00461685
0.00219364
0.00377052
0.00191222
0.00302897
0.00165461
0.00238291
0.0014237
0.00182315
0.0012155
0.00134072
0.0010313
0.000927037
0.000875924
0.000572371
0.000744998
0.000270873
0.00064082
2.21107e-05
0.000529738
-0.000172271
0.000381124
-0.000283546
0.000119821
-0.000270818
-0.000293563
-9.67326e-05
-0.000860137
0.000241282
-0.00147152
0.000710353
-0.00193287
0.00116565
-0.00194681
0.00137471
-0.00118019
0.00104345
0.000561746
-0.000121528
0.00324538
-0.00220587
0.00646043
-0.00515455
0.00951324
-0.00852232
0.011443
-0.0116641
0.0113143
-0.0138584
0.00862925
-0.0146125
0.0038009
-0.0137466
-0.00210432
-0.0116247
-0.0067368
-0.00877703
-0.00947521
-0.0058117
-0.00996468
-0.00317489
-0.0088342
-0.00109
-0.00692787
0.000406286
-0.00493151
0.00138706
-0.00318345
0.00196841
-0.00185655
0.00227408
-0.000946585
0.00241154
-0.000390679
0.00246132
-9.92147e-05
0.0024768
1.87356e-05
0.00248755
3.89145e-05
0.00250866
1.31421e-05
0.00254475
-2.62785e-05
0.00259728
-6.95238e-05
0.0026678
-0.00011497
0.0027583
-0.000166241
0.00287196
-0.000228013
0.00301274
-0.000302811
0.00318421
-0.00039004
0.00338895
-0.000487065
0.00362818
-0.000589681
0.00390157
-0.000692987
0.00420724
-0.00079194
0.0045419
-0.000881924
0.00490121
-0.000959211
0.00528017
-0.00102124
0.00567362
-0.00106701
0.00607664
-0.00109676
0.00648521
-0.00111268
0.0068964
-0.00111768
0.00730893
-0.00111657
0.00772299
-0.00111359
0.00814102
-0.00111553
0.00856688
-0.00112677
0.00900633
-0.00115325
0.00946617
-0.00119789
0.00995586
-0.00126935
0.0104849
-0.00136777
0.0110635
-0.00149542
0.0117015
-0.00164961
0.0124141
-0.00184763
0.0132168
-0.00209198
0.014123
-0.00238023
0.0151331
-0.00267077
0.0162436
-0.00295072
0.017446
-0.0032002
0.018744
-0.00345835
0.0201396
-0.00371864
0.0216483
-0.00402539
0.0232733
-0.00433956
0.0250329
-0.00470905
0.0269264
-0.00507228
0.0289757
-0.00550298
0.0311769
-0.00591704
0.0335582
-0.00641774
0.0361133
-0.00689537
0.0388741
-0.00747341
0.0418408
-0.00804425
0.0450342
-0.00869303
0.0484914
-0.00942967
0.052178
-0.0101129
0.0562385
-0.0111611
0.060509
-0.0118592
0.0653348
-0.0134202
0.0703881
-0.0143647
0.0764286
-0.0172449
0.082293
-0.0173348
0.0929009
-0.0345597
-0.0310942
0.068646
0.028061
-0.0678667
0.0696268
0.0289199
0.0702979
0.0296392
0.0700428
0.029864
0.0685129
0.0293195
0.0656862
0.0279744
0.0618025
0.0260214
0.0572085
0.0237333
0.0522492
0.021336
0.0472113
0.0189864
0.0423052
0.016781
0.0376669
0.0147711
0.0333709
0.012976
0.0294462
0.0113943
0.0258924
0.0100117
0.022692
0.00880744
0.0198193
0.00775874
0.0172457
0.00684347
0.0149429
0.00604144
0.0128846
0.00533514
0.0110469
0.00470941
0.00940873
0.00415262
0.00795086
0.00365151
0.00665842
0.00320466
0.00551541
0.00279762
0.00450938
0.00242973
0.00362835
0.00209653
0.00286094
0.00179872
0.00219636
0.0015405
0.00162269
0.00131867
0.00113118
0.00113233
0.000715872
0.000945045
0.000383402
0.000713595
0.000153151
0.000350072
6.02363e-05
-0.000200648
0.000138577
-0.000938477
0.000404752
-0.00173769
0.000820739
-0.00234885
0.0012269
-0.00235297
0.00136086
-0.00131415
0.000879729
0.00104288
-0.000527412
0.00465252
-0.00299269
0.0089257
-0.00636558
0.0128861
-0.0101139
0.0151913
-0.0134979
0.0146983
-0.0157542
0.0108855
-0.0164174
0.00446414
-0.0153252
-0.00319657
-0.0128571
-0.00920486
-0.00958404
-0.0127483
-0.00617008
-0.0133786
-0.00311661
-0.0118877
-0.000683524
-0.00936096
0.00107488
-0.00668991
0.00224052
-0.00434908
0.00294042
-0.00255645
0.00331776
-0.00132393
0.00349801
-0.000570927
0.00357623
-0.000177438
0.00361528
-2.03211e-05
0.00365168
2.52298e-06
0.00370178
-3.69631e-05
0.00377291
-9.74086e-05
0.00386734
-0.000163954
0.00398633
-0.000233954
0.00413278
-0.0003127
0.0043105
-0.000405726
0.00452378
-0.000516094
0.00477662
-0.000642878
0.00507184
-0.000782285
0.00541056
-0.000928403
0.00579202
-0.00107444
0.00621359
-0.00121351
0.00667107
-0.0013394
0.00715904
-0.00144718
0.00767137
-0.00153357
0.00820188
-0.00159753
0.00874481
-0.00163969
0.00929557
-0.00166344
0.00985102
-0.00167313
0.0104101
-0.00167566
0.0109737
-0.00167716
0.0115453
-0.00168716
0.0121303
-0.00171177
0.0127364
-0.00175933
0.0133725
-0.00183397
0.0140507
-0.00194761
0.0147832
-0.00210025
0.0155831
-0.00229533
0.0164632
-0.00252975
0.0174429
-0.00282728
0.0185407
-0.00318982
0.019773
-0.00361248
0.0211397
-0.00403743
0.0226372
-0.00444831
0.0242558
-0.00481878
0.0260009
-0.00520344
0.027875
-0.00559273
0.0298974
-0.0060478
0.032072
-0.00651417
0.0344216
-0.00705867
0.0369449
-0.00759554
0.0396695
-0.00822762
0.04259
-0.00883747
0.0457409
-0.00956866
0.0491141
-0.0102686
0.0527474
-0.0111068
0.0566414
-0.0119383
0.0608173
-0.0128689
0.0653237
-0.0139361
0.0701078
-0.014897
0.0753555
-0.0164087
0.0808434
-0.0173471
0.0870119
-0.0195887
0.0934037
-0.0207564
0.100991
-0.0248325
0.108256
-0.0245991
0.120523
-0.0468269
-0.0419504
0.0727997
0.0274246
-0.0721634
0.0735747
0.0281449
0.0743422
0.0288718
0.0747552
0.0294509
0.0744605
0.0296143
0.0732267
0.0292082
0.0710074
0.0282407
0.0679012
0.0268395
0.0640889
0.0251483
0.0597808
0.0232946
0.055182
0.0213798
0.0504738
0.0194792
0.0458041
0.0176457
0.0412846
0.0159139
0.0369918
0.0143045
0.0329719
0.0128273
0.0292472
0.0114835
0.0258226
0.010268
0.0226922
0.00917184
0.0198435
0.0081839
0.0172606
0.00729229
0.0149266
0.0064866
0.0128241
0.00575404
0.010938
0.00509074
0.00925182
0.00448381
0.00775146
0.00393009
0.00642324
0.00342475
0.00525409
0.00296787
0.00423147
0.00256312
0.00334157
0.00220857
0.00257277
0.00190113
0.00191471
0.00160311
0.00136741
0.00126089
0.000940101
0.000777384
0.000670421
6.90319e-05
0.000583076
-0.000851133
0.000704752
-0.00185937
0.000997096
-0.0026412
0.0013
-0.00265588
0.00132953
-0.00134368
0.00069886
0.00167355
-0.000915028
0.00626641
-0.00367647
0.0116871
-0.00736306
0.0165727
-0.0113641
0.0191923
-0.0148766
0.0182109
-0.0171326
0.0131415
-0.0177043
0.00503589
-0.0164259
-0.00447498
-0.0136606
-0.0119701
-0.010004
-0.016405
-0.00616963
-0.017213
-0.0027156
-0.0153417
5.9452e-05
-0.012136
0.00207817
-0.00870863
0.00343116
-0.00570207
0.00425486
-0.00338015
0.0047102
-0.00177927
0.00494032
-0.000801041
0.00505482
-0.000291942
0.00512659
-9.20895e-05
0.00519738
-6.8264e-05
0.00528836
-0.00012795
0.00540744
-0.000216481
0.00555765
-0.000314167
0.00574117
-0.000417476
0.00596086
-0.000532391
0.00622113
-0.000665997
0.00652694
-0.000821899
0.00688265
-0.000998595
0.00729121
-0.00119084
0.00775353
-0.00139073
0.00826838
-0.00158929
0.00883237
-0.00177751
0.00944029
-0.00194732
0.0100856
-0.00209248
0.010761
-0.00220895
0.0114592
-0.00229574
0.0121736
-0.00235408
0.012899
-0.00238887
0.0136321
-0.00240626
0.0143722
-0.00241576
0.0151208
-0.00242577
0.0158829
-0.00244918
0.0166652
-0.00249412
0.0174777
-0.00257186
0.0183317
-0.00268795
0.0192423
-0.00285815
0.0202241
-0.00308213
0.0212939
-0.00336505
0.0224673
-0.00370318
0.0237679
-0.00412793
0.0252177
-0.00463955
0.0268355
-0.00523029
0.0286211
-0.00582309
0.0305714
-0.00639856
0.0326748
-0.00692223
0.034939
-0.00746755
0.0373663
-0.00802004
0.0399801
-0.00866165
0.0427843
-0.00931833
0.0458063
-0.0100807
0.0490437
-0.0108329
0.0525297
-0.0117136
0.0562564
-0.0125642
0.0602648
-0.013577
0.064544
-0.0145478
0.0691364
-0.0156992
0.0740432
-0.0168451
0.0792821
-0.0181078
0.0849159
-0.0195699
0.0908661
-0.0208471
0.0973643
-0.022907
0.104119
-0.0241017
0.11167
-0.0271395
0.119416
-0.0285026
0.128546
-0.0339629
0.137204
-0.0332572
0.150892
-0.0605143
-0.0539408
0.0773074
0.0268571
-0.0767399
0.0779315
0.0275207
0.0785948
0.0282085
0.0791566
0.0288891
0.0794004
0.0293704
0.0791077
0.0295009
0.078127
0.0292215
0.0763993
0.0285672
0.0739456
0.027602
0.070843
0.0263971
0.0672012
0.0250216
0.0631448
0.0235356
0.058803
0.0219875
0.0543014
0.0204155
0.0497549
0.0188509
0.0452627
0.0173195
0.0409041
0.0158421
0.0367374
0.0144347
0.0328018
0.0131074
0.0291205
0.0118653
0.0257041
0.0107087
0.0225548
0.00963589
0.0196683
0.00864056
0.017038
0.00772103
0.0146533
0.00686853
0.0125032
0.00608012
0.010576
0.00535195
0.00885948
0.00468442
0.00734126
0.00408135
0.00600717
0.00354266
0.00484352
0.00306478
0.00383535
0.00261128
0.00297455
0.00212169
0.00226444
0.0014875
0.00171409
0.000619381
0.00137195
-0.000508994
0.00125442
-0.00174183
0.00133731
-0.00272409
0.00147399
-0.00279256
0.00137073
-0.00124042
0.000605397
0.00243889
-0.00115703
0.00802883
-0.00410598
0.0146361
-0.00797636
0.0204431
-0.0120991
0.0233151
-0.0156475
0.0217593
-0.0178763
0.0153702
-0.0183863
0.00554587
-0.0169786
-0.00588267
-0.0139691
-0.0149796
-0.00996579
-0.0204083
-0.00573171
-0.021447
-0.00188579
-0.0191876
0.00121616
-0.015238
0.00350526
-0.0109977
0.00504871
-0.00724552
0.00600108
-0.00433252
0.00654019
-0.00231838
0.0068267
-0.00108756
0.00698471
-0.000449955
0.00709751
-0.000204885
0.00721367
-0.000184425
0.00735683
-0.000271108
0.00753733
-0.000396986
0.00775861
-0.000535445
0.008023
-0.000681864
0.00833415
-0.000843543
0.00869696
-0.0010288
0.00911686
-0.0012418
0.00959863
-0.00148036
0.0101454
-0.00173756
0.0107578
-0.00200319
0.0114343
-0.00226575
0.0121706
-0.00251379
0.0129604
-0.00273718
0.0137961
-0.00292817
0.0146691
-0.00308192
0.0155709
-0.00319757
0.0164939
-0.0032771
0.0174324
-0.00332733
0.0183826
-0.00335652
0.0193443
-0.00337738
0.0203195
-0.00340096
0.0213145
-0.00344423
0.022338
-0.00351759
0.023402
-0.0036359
0.0245203
-0.00380623
0.025711
-0.0040489
0.0269919
-0.00436297
0.0283827
-0.00475592
0.0299026
-0.00522301
0.0315791
-0.00580446
0.033437
-0.00649746
0.0354983
-0.00729159
0.0377625
-0.00808727
0.0402271
-0.00886317
0.042879
-0.00957415
0.0457278
-0.0103163
0.0487752
-0.0110674
0.0520484
-0.0119349
0.0555503
-0.0128202
0.0593132
-0.0138436
0.0633322
-0.0148519
0.0676462
-0.0160275
0.072244
-0.017162
0.0771718
-0.0185048
0.0824158
-0.0197918
0.0880207
-0.0213042
0.0939885
-0.0228128
0.10033
-0.0244495
0.107122
-0.0263613
0.114258
-0.0279834
0.122009
-0.0306581
0.130024
-0.0321167
0.138921
-0.0360364
0.147973
-0.0375544
0.158555
-0.0445455
0.168522
-0.043224
0.183341
-0.0753336
-0.0667768
0.0821356
0.0263345
-0.0816129
0.0826758
0.0269805
0.0832398
0.0276445
0.0837751
0.0283539
0.084175
0.0289705
0.0843031
0.0293728
0.0840259
0.0294987
0.0832437
0.0293493
0.0819001
0.0289456
0.0799795
0.0283177
0.0774986
0.0275025
0.0744973
0.0265369
0.071033
0.0254518
0.0671775
0.024271
0.0630147
0.0230137
0.0586367
0.0216975
0.0541378
0.0203411
0.0496087
0.0189638
0.0451307
0.0175853
0.0407721
0.0162239
0.0365862
0.0148946
0.0326121
0.0136099
0.0288761
0.0123765
0.0253953
0.0112018
0.0221775
0.0100864
0.0192253
0.00903237
0.0165366
0.00804065
0.0141065
0.00711454
0.0119278
0.00626004
0.00998991
0.0054805
0.00828016
0.00477453
0.00678103
0.00411041
0.00547657
0.00342615
0.00435526
0.00260881
0.00341738
0.00155727
0.0027044
0.000203986
0.00222947
-0.00126691
0.00199683
-0.00249145
0.00188927
-0.00268501
0.00161935
-0.000970501
0.000746798
0.00331144
-0.00109908
0.00987471
-0.00410568
0.0176427
-0.00801975
0.0243572
-0.0121422
0.0274376
-0.0156607
0.0252778
-0.0178711
0.0175806
-0.0183734
0.00604821
-0.0169053
-0.00735081
-0.0137064
-0.0181785
-0.00938789
-0.0247268
-0.00476481
-0.0260701
-0.000519043
-0.0234334
0.00290256
-0.0186596
0.00545907
-0.0135542
0.00719652
-0.00898298
0.00828135
-0.00541734
0.00890848
-0.00294551
0.00925641
-0.00143549
0.00946408
-0.000657621
0.00962541
-0.000366215
0.00979556
-0.000354578
0.0100023
-0.000477812
0.0102567
-0.000651455
0.0105633
-0.000842055
0.010925
-0.00104351
0.0113456
-0.00126421
0.0118308
-0.001514
0.0123866
-0.0017976
0.0130183
-0.00211201
0.0137291
-0.00244836
0.0145198
-0.00279386
0.0153881
-0.00313412
0.0163293
-0.00345495
0.0173359
-0.00374383
0.0183991
-0.00399133
0.0195088
-0.00419165
0.0206554
-0.00434414
0.0218299
-0.00445162
0.0230257
-0.00452316
0.0242387
-0.00456949
0.0254685
-0.00460714
0.0267177
-0.00465022
0.027994
-0.00472049
0.0293074
-0.004831
0.0306724
-0.00500092
0.032105
-0.00523885
0.0336267
-0.00557055
0.0352577
-0.00599399
0.0370217
-0.00651989
0.0389403
-0.00714158
0.0410452
-0.00790942
0.0433635
-0.00881579
0.0459204
-0.00984844
0.048715
-0.0108819
0.0517465
-0.0118946
0.0549997
-0.0128273
0.0584862
-0.0138028
0.0622058
-0.014787
0.0661896
-0.0159188
0.0704382
-0.0170687
0.0749884
-0.0183938
0.0798322
-0.0196957
0.0850129
-0.0212083
0.0905157
-0.0226648
0.0963904
-0.0243795
0.10262
-0.0260216
0.10925
-0.0279336
0.116281
-0.0298445
0.123717
-0.0318849
0.131643
-0.0342873
0.139929
-0.0362698
0.148874
-0.039603
0.158078
-0.0413206
0.168218
-0.0461764
0.178453
-0.0477894
0.190327
-0.0564194
0.201439
-0.0543358
0.217071
-0.0909661
-0.0801702
0.0872959
0.0258459
-0.0868072
0.0877884
0.0264879
0.08829
0.0271429
0.0887756
0.0278682
0.0891927
0.0285535
0.0894674
0.029098
0.089514
0.0294521
0.0892526
0.0296108
0.088618
0.0295802
0.0875649
0.0293708
0.0860661
0.0290013
0.0841082
0.0284948
0.0816887
0.0278713
0.0788159
0.0271437
0.0755117
0.0263179
0.0718133
0.025396
0.0677741
0.0243802
0.0634624
0.0232755
0.0589569
0.0220908
0.0543415
0.0208393
0.0496988
0.0195372
0.0451056
0.0182031
0.0406281
0.0168541
0.0363214
0.0155085
0.0322278
0.0141799
0.0283791
0.0128811
0.0247969
0.0116228
0.0214955
0.0104159
0.018483
0.00927263
0.0157606
0.00820286
0.0133239
0.00721125
0.0111587
0.00627557
0.00924487
0.00534
0.00755908
0.00429459
0.00609542
0.00302092
0.00484451
0.00145489
0.00389142
-0.000313825
0.00320781
-0.00180783
0.00275049
-0.00222769
0.0022633
-0.000483316
0.00130933
0.00426541
-0.000565853
0.0117499
-0.00348299
0.0205598
-0.00729677
0.0281709
-0.0113144
0.0314552
-0.0147654
0.0287288
-0.0169937
0.0198089
-0.0175603
0.00661485
-0.0161102
-0.00880096
-0.012781
-0.0215077
-0.00817678
-0.0293311
-0.0031646
-0.0310823
0.00143846
-0.0280364
0.005223
-0.0224441
0.00805337
-0.0163846
0.00998875
-0.0109184
0.0112084
-0.00663703
0.0119255
-0.0036626
0.0123372
-0.00184716
0.0125978
-0.000918244
0.0128124
-0.000580792
0.0130432
-0.000585396
0.0133214
-0.000756009
0.0136601
-0.000990121
0.0140642
-0.00124615
0.014537
-0.00151635
0.0150832
-0.00181038
0.0157089
-0.00213968
0.0164208
-0.00250958
0.017225
-0.0029162
0.0181252
-0.00334849
0.0191221
-0.00379076
0.0202133
-0.00422539
0.0213934
-0.00463504
0.022654
-0.00500443
0.0239849
-0.00532219
0.0253745
-0.0055813
0.0268117
-0.00578127
0.0282858
-0.00592577
0.0297891
-0.00602644
0.0313163
-0.00609672
0.0328668
-0.00615761
0.0344433
-0.00622667
0.0360541
-0.00633137
0.0377108
-0.00648764
0.0394298
-0.00671995
0.0412293
-0.00703833
0.0431337
-0.00747497
0.045166
-0.00802625
0.0473532
-0.00870715
0.0497194
-0.00950778
0.0523
-0.01049
0.0551233
-0.0116391
0.0582179