/*--------------------------------*- C++ -*----------------------------------*\
| =========                 |                                                 |
| \\      /  F ield         | OpenFOAM: The Open Source CFD Toolbox           |
|  \\    /   O peration     | Version:  2412                                  |
|   \\  /    A nd           | Website:  www.openfoam.com                      |
|    \\/     M anipulation  |                                                 |
\*---------------------------------------------------------------------------*/
FoamFile
{
    version     2.0;
    format      ascii;
    arch        "LSB;label=32;scalar=64";
    class       volVectorField;
    location    "0.045";
    object      ddt0(U);
}
// * * * * * * * * * * * * * * * * * * * * * * * * * * * * * * * * * * * * * //

dimensions      [0 1 -2 0 0 0 0];

internalField   nonuniform List<vector> 
12600
(
(4.03029 0 -0.879108)
(2.09792 -6.16779e-20 -0.479102)
(1.06815 -5.5771e-20 -0.44238)
(0.602317 0 -0.364229)
(0.412642 -1.08487e-22 -0.279896)
(0.303067 0 -0.218861)
(0.222299 6.69096e-20 -0.17423)
(0.164279 0 -0.134122)
(0.119838 0 -0.102993)
(0.0848281 0 -0.0788074)
(0.0572211 0 -0.0594158)
(0.0347965 1.31385e-19 -0.0433558)
(0.0156526 1.30986e-19 -0.029657)
(-0.00138743 0 -0.0177644)
(-0.0167527 -2.62029e-19 -0.00737331)
(-0.0305402 0 0.00177876)
(-0.0428316 1.23097e-22 0.00992271)
(-0.0537924 0 0.017254)
(-0.0638343 -1.27582e-19 0.0239885)
(-0.0732602 0 0.0302361)
(-0.0821296 0 0.0360822)
(-0.0907755 0 0.0417261)
(-0.0991948 -4.94732e-19 0.0471163)
(-0.10724 4.95051e-19 0.0522913)
(-0.11554 -3.59889e-22 0.0574989)
(-0.123688 -2.42418e-19 0.0625581)
(-0.131733 0 0.0676954)
(-0.140606 0 0.0730617)
(-0.149222 0 0.0783152)
(-0.158266 4.80862e-19 0.0837884)
(-0.167754 9.3564e-19 0.0892487)
(-0.176694 0 0.0947037)
(-0.18642 0 0.100382)
(-0.196161 4.59702e-19 0.106154)
(-0.206608 4.63798e-19 0.112347)
(-0.217727 0 0.118753)
(-0.229463 0 0.125701)
(-0.242346 8.98965e-19 0.13304)
(-0.255847 0 0.140884)
(-0.270794 3.2783e-22 0.149301)
(-0.286723 8.85535e-19 0.158264)
(-0.304146 8.75433e-19 0.167938)
(-0.323063 0 0.178266)
(-0.343836 8.52368e-19 0.189185)
(-0.365533 8.37334e-19 0.201921)
(-0.389137 -1.67682e-18 0.21736)
(-0.41561 1.64522e-18 0.233916)
(-0.44553 0 0.252259)
(-0.478437 -1.61449e-18 0.272096)
(-0.515152 1.60897e-18 0.294167)
(-0.555705 0 0.31829)
(-0.601468 -1.15475e-21 0.345563)
(-0.652881 -1.5351e-18 0.37605)
(-0.710348 0 0.410349)
(-0.77549 2.99317e-18 0.449703)
(-0.848722 0 0.490907)
(-0.933073 0 0.536081)
(-1.02857 7.46243e-21 0.590271)
(-1.13546 3.70057e-21 0.653977)
(-1.25699 -2.85182e-18 0.724868)
(-1.39601 2.81588e-18 0.806227)
(-1.55695 -5.58396e-18 0.900653)
(-1.74038 0 1.00849)
(-1.94751 -5.50117e-18 1.13101)
(-2.19065 -5.46642e-18 1.27638)
(-2.48223 1.09325e-17 1.46011)
(-2.82184 -5.46299e-18 1.6664)
(-3.19092 0 1.87593)
(-3.60555 0 2.12135)
(-4.16522 0 2.45322)
(-4.94094 0 2.90388)
(-5.85073 0 3.4194)
(-6.67844 1.13418e-17 3.87654)
(-7.2321 -1.10773e-17 4.17356)
(-7.47269 0 4.29702)
(-7.50277 0 4.30926)
(-7.46407 -9.76844e-18 4.28929)
(-7.45129 -2.31437e-21 4.28691)
(-7.49319 -1.81712e-17 4.31527)
(-7.57945 0 4.3671)
(-7.68939 0 4.4304)
(-7.80431 0 4.49504)
(-7.91312 -1.63084e-21 4.55562)
(-8.01679 0 4.61355)
(-8.12919 0 4.6682)
(-8.24395 -1.4523e-17 4.74501)
(-8.37597 -8.47307e-22 4.8252)
(-8.5251 0 4.9132)
(-8.68826 0 5.00845)
(-8.86333 2.53934e-17 5.11015)
(-9.04906 2.45178e-17 5.21776)
(-9.24485 2.36398e-17 5.33105)
(-9.45051 2.27948e-17 5.44995)
(-9.66609 -1.07189e-21 5.57452)
(-9.89179 -1.02858e-21 5.70487)
(-10.1279 -2.04375e-17 5.84116)
(-10.3745 0 5.98356)
(-10.6322 0 6.13228)
(-10.9013 0 6.28751)
(-11.182 -6.9876e-17 6.44952)
(-11.4749 3.35413e-17 6.6185)
(-11.7805 -3.21676e-17 6.79482)
(-12.099 -3.08409e-17 6.97859)
(-12.4315 0 7.17038)
(-12.7776 0 7.37008)
(-13.1393 0 7.57872)
(-13.5151 -5.19785e-17 7.79552)
(-13.9087 0 8.02263)
(-14.3162 4.74475e-17 8.25773)
(-14.7451 0 8.50521)
(-15.1864 0 8.75987)
(-15.6544 -4.12326e-17 9.02997)
(-16.1315 0 9.30529)
(-16.6429 0 9.60054)
(-17.1603 0 9.89923)
(-17.6995 6.79082e-17 10.2106)
(-18.3213 0 10.5697)
(-18.7564 -6.13854e-17 10.8219)
(-19.6138 0 11.3188)
(-20.107 8.33658e-22 11.5992)
(5.94444 1.39339e-20 -1.05797)
(4.79914 4.29577e-20 -0.997807)
(3.52392 1.55407e-21 -1.12649)
(2.5088 0 -1.06691)
(1.83058 6.64575e-20 -0.905573)
(1.37805 -6.86057e-20 -0.742402)
(1.06287 -6.97651e-20 -0.596675)
(0.831683 7.04215e-20 -0.471446)
(0.650318 0 -0.372375)
(0.506933 0 -0.294214)
(0.392052 0 -0.230707)
(0.297514 0 -0.177245)
(0.217078 0 -0.130975)
(0.146734 0 -0.0903955)
(0.0844725 -4.46484e-22 -0.0546835)
(0.0292034 0 -0.0230536)
(-0.0200684 -1.34879e-19 0.00526051)
(-0.0643482 0 0.0308958)
(-0.10483 2.65875e-19 0.0545161)
(-0.142532 -2.63561e-19 0.0765511)
(-0.177974 0 0.0972592)
(-0.211809 -2.6088e-19 0.117134)
(-0.244417 2.57148e-19 0.136214)
(-0.275854 -2.57157e-19 0.154582)
(-0.306968 2.5673e-19 0.172865)
(-0.33779 0 0.190859)
(-0.368505 -2.53287e-19 0.208955)
(-0.400224 0 0.227614)
(-0.432063 0 0.246106)
(-0.464376 0 0.264964)
(-0.497265 -4.8403e-19 0.283914)
(-0.529881 0 0.302847)
(-0.563631 0 0.322463)
(-0.598351 0 0.342614)
(-0.634983 0 0.363991)
(-0.67367 0 0.386373)
(-0.714711 0 0.410325)
(-0.758762 -9.24879e-19 0.4358)
(-0.805589 0 0.462962)
(-0.856125 -1.83901e-18 0.492074)
(-0.910342 -1.81775e-18 0.52329)
(-0.969062 -8.98017e-19 0.556965)
(-1.03289 0 0.593402)
(-1.10224 0 0.632523)
(-1.17614 -1.71202e-18 0.675681)
(-1.2581 1.7121e-18 0.725296)
(-1.34919 -1.67925e-18 0.779573)
(-1.45163 0 0.840269)
(-1.56409 1.64461e-18 0.906422)
(-1.68948 0 0.980283)
(-1.82789 0 1.06139)
(-1.9841 1.59055e-18 1.15327)
(-2.15946 0 1.25601)
(-2.35618 0 1.37172)
(-2.58146 -3.02412e-18 1.50399)
(-2.8348 0 1.64513)
(-3.11504 0 1.81578)
(-3.44395 8.05386e-21 2.0004)
(-3.81554 -2.89316e-18 2.2158)
(-4.2364 -2.13654e-21 2.46176)
(-4.71991 0 2.74435)
(-5.28021 5.58941e-18 3.07189)
(-5.9205 5.5243e-18 3.4462)
(-6.65063 0 3.87508)
(-7.51217 1.08917e-17 4.38724)
(-8.55096 -3.61533e-21 5.00525)
(-9.74684 0 5.70407)
(-11.0524 -5.42042e-18 6.45181)
(-12.5665 0 7.33542)
(-14.5753 0 8.51625)
(-17.211 0 10.0563)
(-20.1342 0 11.7398)
(-22.6704 -2.23335e-17 13.1711)
(-24.2981 1.08972e-17 14.0637)
(-24.9793 0 14.4173)
(-25.0688 0 14.4488)
(-24.9935 -9.56945e-18 14.4028)
(-25.0163 -3.68512e-21 14.422)
(-25.2036 -2.51376e-21 14.537)
(-25.5145 0 14.7204)
(-25.884 0 14.934)
(-26.2589 0 15.1478)
(-26.6141 -2.74128e-21 15.3483)
(-26.9617 1.50782e-17 15.5426)
(-27.3373 -1.45414e-17 15.7373)
(-27.7338 1.40322e-17 15.9897)
(-28.187 -1.50022e-21 16.2594)
(-28.6926 1.30934e-17 16.5552)
(-29.2416 0 16.8743)
(-29.828 -2.44074e-17 17.2142)
(-30.4481 0 17.5732)
(-31.1005 -2.26663e-17 17.9505)
(-31.7847 0 18.3461)
(-32.501 4.20662e-17 18.7601)
(-33.2498 2.02733e-17 19.1928)
(-34.032 0 19.6447)
(-34.8483 0 20.1163)
(-35.6999 3.60981e-17 20.6083)
(-36.5878 -3.46295e-17 21.1212)
(-37.5131 6.64286e-17 21.6558)
(-38.4771 -3.18553e-17 22.2126)
(-39.4815 3.05233e-17 22.7928)
(-40.5268 0 23.3965)
(-41.6159 -2.80448e-17 24.0256)
(-42.7481 0 24.6795)
(-43.9286 0 25.3613)
(-45.153 4.91285e-17 26.0684)
(-46.4329 0 26.8077)
(-47.7547 2.04389e-21 27.571)
(-49.1433 -4.27299e-17 28.373)
(-50.5669 0 29.1951)
(-52.0754 0 30.0662)
(-53.604 0 30.9491)
(-55.2438 -3.52633e-17 31.8959)
(-56.893 6.71264e-17 32.848)
(-58.6031 -6.38395e-17 33.8369)
(-60.5918 0 34.9814)
(-61.9311 5.76561e-17 35.7596)
(-64.7026 0 37.3599)
(-66.2687 -1.03997e-16 38.2294)
(6.1192 -3.13618e-20 -1.10893)
(5.78018 2.22228e-20 -1.13032)
(5.10723 1.06405e-19 -1.28768)
(4.25727 0 -1.37043)
(3.43422 6.26054e-20 -1.32675)
(2.75172 1.73518e-22 -1.1958)
(2.21386 0 -1.02559)
(1.78726 -6.68145e-20 -0.856305)
(1.44592 0 -0.708642)
(1.1715 -6.6613e-20 -0.585096)
(0.948078 0 -0.480818)
(0.762449 0 -0.390258)
(0.604205 0 -0.309973)
(0.466195 0 -0.238388)
(0.344374 1.30079e-19 -0.174653)
(0.236285 0 -0.117672)
(0.139794 0 -0.066208)
(0.0529129 0 -0.0192299)
(-0.0264168 -1.2631e-19 0.0242933)
(-0.0999811 -6.80226e-22 0.0651142)
(-0.168867 0 0.103627)
(-0.2342 -6.13564e-22 0.14046)
(-0.296747 0 0.175906)
(-0.356876 2.44718e-19 0.210078)
(-0.415773 0 0.243804)
(-0.473757 0 0.277212)
(-0.531324 2.40225e-19 0.310532)
(-0.589746 0 0.344457)
(-0.648197 0 0.378245)
(-0.707103 4.73563e-19 0.412106)
(-0.766445 0 0.44624)
(-0.825677 0 0.480356)
(-0.886431 0 0.515535)
(-0.94885 0 0.55194)
(-1.01441 -4.5473e-19 0.5902)
(-1.08327 0 0.630477)
(-1.15612 0 0.673171)
(-1.23377 8.77667e-19 0.718638)
(-1.3163 0 0.766989)
(-1.40474 1.74284e-18 0.818684)
(-1.4995 -3.51057e-22 0.874263)
(-1.60168 8.50161e-19 0.934118)
(-1.71249 0 0.999272)
(-1.83264 0 1.06972)
(-1.96212 8.10161e-19 1.14549)
(-2.10669 0 1.2301)
(-2.26614 1.58845e-18 1.32355)
(-2.44511 0 1.42842)
(-2.64155 6.23356e-22 1.54325)
(-2.86048 0 1.67167)
(-3.10229 0 1.81315)
(-3.37509 0 1.97359)
(-3.68154 1.4729e-18 2.15298)
(-4.02627 0 2.35526)
(-4.42239 0 2.58615)
(-4.8598 0 2.84705)
(-5.35453 0 3.1433)
(-5.92884 -5.55222e-18 3.47756)
(-6.58262 0 3.85968)
(-7.32483 1.70018e-22 4.29786)
(-8.17958 0 4.80308)
(-9.17049 -2.63573e-18 5.38874)
(-10.3054 -5.20855e-18 6.05914)
(-11.6065 0 6.83323)
(-13.1454 -1.02592e-17 7.76255)
(-15.0037 -5.12043e-18 8.85437)
(-17.1309 0 10.0918)
(-19.4663 5.10468e-18 11.4591)
(-22.2136 0 13.0952)
(-25.8061 0 15.2488)
(-30.3726 0 17.9409)
(-35.2836 0 20.7457)
(-39.4397 3.11511e-21 23.0219)
(-42.0583 -1.02479e-17 24.3756)
(-43.1485 0 24.8822)
(-43.318 0 24.9244)
(-43.2524 -3.64753e-21 24.8856)
(-43.3563 1.72959e-17 24.9682)
(-43.7213 8.33144e-18 25.2012)
(-44.2736 0 25.5321)
(-44.9063 0 25.8988)
(-45.5378 0 26.2573)
(-46.1359 2.93166e-17 26.5933)
(-46.727 2.19851e-21 26.9236)
(-47.3596 1.3641e-17 27.274)
(-48.0471 0 27.6939)
(-48.8244 1.27016e-17 28.1553)
(-49.6856 -1.22751e-17 28.6599)
(-50.6167 0 29.202)
(-51.608 0 29.7771)
(-52.6539 -2.20572e-17 30.3828)
(-53.7518 0 31.018)
(-54.9007 -2.04503e-17 31.6823)
(-56.1008 1.17175e-21 32.3759)
(-57.3525 -1.89843e-17 33.0993)
(-58.6569 1.82643e-17 33.8528)
(-60.0148 0 34.6371)
(-61.4274 -3.3782e-17 35.453)
(-62.8958 3.24028e-17 36.3011)
(-64.4215 -6.21515e-17 37.1821)
(-66.0055 0 38.0968)
(-67.6498 2.85516e-17 39.0462)
(-69.3545 0 40.0306)
(-71.1231 2.62238e-17 41.0518)
(-72.9533 -2.5102e-17 42.1085)
(-74.8526 0 43.2051)
(-76.8118 -4.59228e-17 44.3363)
(-78.849 0 45.5126)
(-80.9384 -8.37051e-17 46.719)
(-83.1221 3.99296e-17 47.9799)
(-85.3396 0 49.2603)
(-87.6804 0 50.6118)
(-90.0192 0 51.9627)
(-92.5236 -1.02523e-21 53.4085)
(-95.0041 -6.2701e-17 54.8398)
(-97.5396 5.96301e-17 56.3097)
(-100.543 0 58.0298)
(-102.328 5.38466e-17 59.08)
(-106.59 0 61.5421)
(-108.648 -1.83282e-21 62.6469)
(5.95192 1.71905e-20 -1.10756)
(5.9113 1.39711e-21 -1.13993)
(5.7036 -5.00407e-20 -1.25774)
(5.25977 5.51303e-20 -1.40036)
(4.66599 5.80992e-20 -1.47435)
(4.0357 1.22374e-19 -1.45151)
(3.43643 0 -1.3557)
(2.90112 0 -1.21861)
(2.4376 0 -1.07061)
(2.04542 6.30787e-20 -0.928094)
(1.71462 0 -0.796743)
(1.43327 0 -0.676004)
(1.18995 0 -0.56488)
(0.975817 0 -0.463265)
(0.78546 0 -0.371116)
(0.615448 1.22669e-19 -0.287517)
(0.462803 -1.21636e-19 -0.211071)
(0.324774 0 -0.140548)
(0.198583 0 -0.074692)
(0.0816981 2.37473e-19 -0.0125508)
(-0.0275708 -2.35801e-19 0.0463383)
(-0.130852 2.34953e-19 0.10266)
(-0.229357 -2.32849e-19 0.15693)
(-0.323786 -2.31696e-19 0.209326)
(-0.415669 2.32333e-19 0.260797)
(-0.505622 -2.27228e-19 0.311818)
(-0.594437 0 0.362474)
(-0.683606 2.26178e-19 0.413558)
(-0.772422 0 0.464431)
(-0.861456 -4.48159e-19 0.514974)
(-0.950654 0 0.565844)
(-1.03973 0 0.616724)
(-1.13056 0 0.669002)
(-1.22359 4.2725e-19 0.723185)
(-1.3208 4.30124e-19 0.779816)
(-1.42244 0 0.839427)
(-1.52957 0 0.902221)
(-1.64318 -8.29887e-19 0.968976)
(-1.76373 0 1.03975)
(-1.89231 3.37998e-22 1.11517)
(-2.02985 8.13946e-19 1.1962)
(-2.17778 0 1.28318)
(-2.33799 0 1.3778)
(-2.51182 0 1.4799)
(-2.69893 0 1.59031)
(-2.90721 1.53265e-18 1.71368)
(-3.1364 0 1.84961)
(-3.39361 -1.49952e-18 2.00181)
(-3.67621 -1.46874e-18 2.16849)
(-3.99128 0 2.35486)
(-4.33962 0 2.56044)
(-4.73253 0 2.79365)
(-5.17435 -1.38958e-18 3.05442)
(-5.67215 1.37888e-18 3.34891)
(-6.24314 2.69981e-18 3.68475)
(-6.87343 0 4.07334)
(-7.59996 2.64192e-18 4.49085)
(-8.4273 5.23345e-18 4.98576)
(-9.37539 0 5.54866)
(-10.4569 5.09181e-18 6.19061)
(-11.7041 0 6.93298)
(-13.1505 2.48122e-18 7.79401)
(-14.8109 4.90127e-18 8.78137)
(-16.7235 0 9.92648)
(-18.9896 4.82701e-18 11.3017)
(-21.7077 4.81221e-18 12.92)
(-24.8192 0 14.7451)
(-28.2734 0 16.7795)
(-32.3649 0 19.2402)
(-37.6353 -4.84034e-18 22.4315)
(-44.1528 -4.90561e-18 26.2902)
(-50.9855 0 30.1664)
(-56.6598 9.86638e-18 33.2033)
(-60.1984 9.63162e-18 34.947)
(-61.6879 0 35.5768)
(-61.9748 0 35.6378)
(-61.9706 8.44703e-18 35.6319)
(-62.1979 2.58472e-21 35.8029)
(-62.765 0 36.1691)
(-63.5659 0 36.6517)
(-64.4555 0 37.1667)
(-65.3291 0 37.6597)
(-66.153 2.25503e-21 38.1198)
(-66.9697 -1.3267e-17 38.5767)
(-67.841 0 39.0708)
(-68.7984 0 39.6466)
(-69.874 0 40.286)
(-71.0595 -1.15031e-17 40.9824)
(-72.3362 0 41.7271)
(-73.6906 -2.1428e-17 42.5141)
(-75.1149 2.06554e-17 43.3398)
(-76.6048 -1.98852e-17 44.2025)
(-78.1584 1.91445e-17 45.1015)
(-79.7751 -3.68769e-17 46.0365)
(-81.4546 1.77667e-17 47.0075)
(-83.197 -1.70905e-17 48.0146)
(-85.0025 0 49.0579)
(-86.8712 0 50.1377)
(-88.8032 3.03114e-17 51.2539)
(-90.7989 2.90637e-17 52.4068)
(-92.8578 2.78694e-17 53.5961)
(-94.9805 1.45683e-21 54.8222)
(-97.165 0 56.084)
(-99.4136 0 57.3828)
(-101.72 2.34629e-17 58.715)
(-104.092 0 60.0851)
(-106.513 4.29192e-17 61.4834)
(-109.006 0 62.9229)
(-111.527 -1.84304e-21 64.3791)
(-114.136 0 65.886)
(-116.734 3.55825e-17 67.387)
(-119.457 -3.39051e-17 68.959)
(-122.099 -3.23118e-17 70.4863)
(-124.919 -1.26879e-21 72.1143)
(-127.62 0 73.6713)
(-130.297 -5.56868e-17 75.2309)
(-133.602 -5.29309e-17 77.1084)
(-134.981 -5.02799e-17 77.9466)
(-139.908 0 80.7927)
(-141.253 -1.86585e-21 81.4121)
(5.83339 0 -1.03738)
(5.79992 1.28068e-21 -1.10717)
(5.751 0 -1.19703)
(5.58475 -5.21179e-20 -1.32916)
(5.2836 -1.10916e-19 -1.44937)
(4.87715 -5.76011e-20 -1.51186)
(4.40826 0 -1.50563)
(3.91958 0 -1.44685)
(3.4452 5.99557e-20 -1.35436)
(3.00502 6.02988e-20 -1.24239)
(2.60877 -6.03298e-20 -1.11822)
(2.25592 -1.20216e-19 -0.989767)
(1.94091 -1.19392e-19 -0.862418)
(1.65711 0 -0.740407)
(1.4 0 -0.626206)
(1.16668 -2.31939e-19 -0.520064)
(0.954466 -1.68027e-22 -0.421028)
(0.760732 0 -0.328081)
(0.582579 1.1396e-19 -0.240066)
(0.417057 2.25837e-19 -0.156116)
(0.262035 2.22888e-19 -0.0759052)
(0.115499 0 0.00116064)
(-0.0241577 2.20079e-19 0.0756856)
(-0.157908 -2.19642e-19 0.147878)
(-0.287539 -2.19568e-19 0.218725)
(-0.413945 -5.66867e-22 0.288963)
(-0.538158 0 0.358584)
(-0.661928 4.52787e-22 0.428374)
(-0.784769 0 0.497834)
(-0.907413 -4.23558e-19 0.566578)
(-1.02986 0 0.635618)
(-1.15198 0 0.704732)
(-1.27588 0 0.77554)
(-1.40227 -4.03503e-19 0.848899)
(-1.53361 0 0.925281)
(-1.67037 0 1.00553)
(-1.8139 0 1.08971)
(-1.96541 0 1.17895)
(-2.12576 7.86059e-19 1.27334)
(-2.29615 -1.55636e-18 1.37361)
(-2.47799 0 1.48124)
(-2.67306 -7.58744e-19 1.5965)
(-2.88394 0 1.72178)
(-3.11276 0 1.85679)
(-3.3587 0 2.00308)
(-3.63182 6.71817e-22 2.16645)
(-3.93169 0 2.34611)
(-4.26798 1.41384e-18 2.54701)
(-4.63771 0 2.76705)
(-5.05002 0 3.01318)
(-5.50617 1.35208e-18 3.2849)
(-6.02045 0 3.59336)
(-6.59924 0 3.93843)
(-7.25166 1.51484e-22 4.3289)
(-7.99965 -2.54284e-18 4.7718)
(-8.83179 0 5.2812)
(-9.78347 5.39657e-22 5.84514)
(-10.8733 -4.92676e-18 6.49968)
(-12.1229 0 7.24804)
(-13.5513 -2.39573e-18 8.10389)
(-15.2007 0 9.09493)
(-17.1147 -2.33417e-18 10.2442)
(-19.3168 -4.60998e-18 11.5642)
(-21.8627 0 13.1001)
(-24.8814 -4.53289e-18 14.9414)
(-28.4825 -3.43143e-21 17.1116)
(-32.6103 0 19.5522)
(-37.232 0 22.2959)
(-42.7214 0 25.6356)
(-49.6885 9.08653e-18 29.9014)
(-58.1115 7.03007e-21 34.9092)
(-66.7766 0 39.7806)
(-73.8917 -9.25591e-18 43.4819)
(-78.3264 -1.80837e-17 45.5469)
(-80.2445 0 46.2791)
(-80.7014 0 46.3746)
(-80.8051 0 46.429)
(-81.1827 2.54819e-21 46.7098)
(-81.9593 0 47.218)
(-83.0005 0 47.849)
(-84.1267 0 48.4998)
(-85.2126 0 49.1089)
(-86.2259 -1.28859e-17 49.6718)
(-87.2248 -1.24362e-17 50.232)
(-88.2872 0 50.8401)
(-89.457 0 51.5431)
(-90.767 0 52.324)
(-92.2051 -1.31516e-21 53.1709)
(-93.7474 0 54.0721)
(-95.3764 2.00596e-17 55.0198)
(-97.0813 0 56.0091)
(-98.8555 1.861e-17 57.0371)
(-100.695 0 58.1022)
(-102.598 1.72519e-17 59.2031)
(-104.561 0 60.3388)
(-106.584 0 61.5081)
(-108.663 0 62.71)
(-110.797 0 63.9432)
(-112.983 -2.83425e-17 65.2064)
(-115.218 0 66.498)
(-117.499 -2.60534e-17 67.8158)
(-119.822 -2.49552e-17 69.1583)
(-122.182 0 70.5218)
(-124.578 0 71.9056)
(-126.996 0 73.3025)
(-129.441 0 74.7154)
(-131.887 2.18062e-21 76.1283)
(-134.358 0 77.5558)
(-136.789 7.30679e-17 78.9605)
(-139.257 0 80.3863)
(-141.615 -6.64723e-17 81.7494)
(-144.051 3.16665e-17 83.1559)
(-146.261 3.01764e-17 84.4345)
(-148.61 2.87336e-17 85.7913)
(-150.672 0 86.9767)
(-152.558 0 88.0922)
(-155.187 9.88456e-17 89.5538)
(-155.064 -4.69478e-17 89.5595)
(-159.592 -4.45884e-17 92.1741)
(-158.591 4.23163e-17 91.3679)
(5.76345 0 -0.947083)
(5.69312 -4.35981e-20 -1.05094)
(5.64884 0 -1.13493)
(5.58102 0 -1.23833)
(5.45176 0 -1.35473)
(5.24362 0 -1.45238)
(4.96038 0 -1.50687)
(4.61857 -5.58689e-20 -1.51823)
(4.24072 -5.65816e-20 -1.49654)
(3.85022 -1.14082e-19 -1.44744)
(3.46589 1.14238e-19 -1.37017)
(3.099 1.13455e-19 -1.268)
(2.7543 1.1268e-19 -1.15029)
(2.43121 0 -1.02695)
(2.12865 0 -0.905034)
(1.84623 2.19012e-19 -0.787328)
(1.58327 2.17648e-19 -0.674118)
(1.33879 0 -0.565012)
(1.11102 -1.07551e-19 -0.459293)
(0.897423 -2.13133e-19 -0.356545)
(0.695955 0 -0.256921)
(0.504594 -2.10957e-19 -0.160195)
(0.321582 0 -0.0659124)
(0.145882 -4.09343e-22 0.0260399)
(-0.0243388 2.07984e-19 0.116553)
(-0.190125 -6.07015e-22 0.206485)
(-0.35262 0 0.295746)
(-0.513795 -2.02047e-19 0.385014)
(-0.673462 3.95638e-19 0.473922)
(-0.832509 7.99016e-19 0.561861)
(-0.991033 3.91221e-19 0.650066)
(-1.14894 0 0.738469)
(-1.30844 3.88627e-19 0.828855)
(-1.47047 0 0.922409)
(-1.63795 0 1.01957)
(-1.81164 0 1.1214)
(-1.99318 0 1.22791)
(-2.18398 0 1.34049)
(-2.38535 -2.55952e-22 1.45934)
(-2.59854 7.33519e-19 1.58522)
(-2.82546 0 1.72019)
(-3.06824 1.42999e-18 1.86444)
(-3.3301 0 2.0211)
(-3.61411 0 2.18978)
(-3.91884 0 2.37246)
(-4.2565 -1.3621e-18 2.57621)
(-4.62633 0 2.79998)
(-5.0407 0 3.04997)
(-5.49637 0 3.32369)
(-6.00457 0 3.63003)
(-6.56694 -2.54575e-18 3.96829)
(-7.20054 0 4.35258)
(-7.91405 0 4.78252)
(-8.71848 -1.22229e-18 5.26993)
(-9.64032 0 5.81927)
(-10.6687 0 6.45412)
(-11.8457 -4.68038e-18 7.16135)
(-13.1933 2.31643e-18 7.98006)
(-14.7405 0 8.91634)
(-16.5122 0 9.98927)
(-18.5599 0 11.2329)
(-20.9373 2.19215e-18 12.675)
(-23.678 0 14.3338)
(-26.854 0 16.2693)
(-30.6184 8.51291e-18 18.5867)
(-35.0952 -8.48731e-18 21.3113)
(-40.2342 0 24.376)
(-46.0247 0 27.8473)
(-52.8998 0 32.0823)
(-61.5033 -4.26078e-18 37.4099)
(-71.7185 4.31696e-18 43.5046)
(-82.0943 8.72396e-18 49.274)
(-90.5802 8.68308e-18 53.5492)
(-95.9172 8.48171e-18 55.8856)
(-98.3218 -8.15418e-18 56.7146)
(-99.0137 0 56.8638)
(-99.267 0 56.9999)
(-99.8067 -7.14348e-18 57.4009)
(-100.782 0 58.0485)
(-102.038 0 58.8142)
(-103.365 0 59.578)
(-104.615 0 60.2735)
(-105.759 0 60.9036)
(-106.867 2.32959e-17 61.525)
(-108.034 0 62.1986)
(-109.318 1.0825e-17 62.9738)
(-110.753 0 63.834)
(-112.323 -1.39437e-21 64.7627)
(-114 -1.94568e-17 65.7452)
(-115.76 0 66.7715)
(-117.59 0 67.8347)
(-119.479 0 68.9305)
(-121.42 0 70.0555)
(-123.408 -1.61383e-17 71.2066)
(-125.437 0 72.3809)
(-127.502 0 73.5755)
(-129.597 0 74.7871)
(-131.715 0 76.0121)
(-133.85 0 77.2465)
(-135.994 0 78.4863)
(-138.139 0 79.726)
(-140.275 0 80.9612)
(-142.392 2.2334e-17 82.1844)
(-144.48 0 83.3918)
(-146.52 0 84.571)
(-148.513 0 85.7227)
(-150.416 -3.74611e-17 86.823)
(-152.257 0 87.8877)
(-153.945 -3.41241e-17 88.8643)
(-155.579 0 89.8084)
(-156.951 -1.73618e-21 90.6035)
(-158.319 0 91.3928)
(-159.255 -2.81812e-17 91.9377)
(-160.263 0 92.5208)
(-160.758 0 92.7971)
(-160.899 0 92.9222)
(-161.841 -4.61425e-17 93.3745)
(-159.221 8.76599e-17 91.9862)
(-162.334 8.32502e-17 93.7674)
(-157.538 3.95022e-17 90.7207)
(5.70124 0 -0.864252)
(5.62683 4.30094e-20 -0.975925)
(5.5657 0 -1.06492)
(5.5042 0 -1.15193)
(5.42827 4.84687e-20 -1.25137)
(5.32002 5.01171e-20 -1.34993)
(5.16702 -5.15358e-20 -1.42813)
(4.96433 1.57996e-19 -1.4808)
(4.71521 0 -1.51141)
(4.42986 -9.87344e-23 -1.51945)
(4.12161 -5.40062e-20 -1.50058)
(3.80424 0 -1.44929)
(3.48572 0 -1.36914)
(3.17151 0 -1.26857)
(2.86381 0 -1.15873)
(2.56493 2.44066e-22 -1.04586)
(2.27664 4.19896e-22 -0.932407)
(2.00066 -1.02621e-19 -0.818957)
(1.73764 -1.02075e-19 -0.705317)
(1.48658 0 -0.591656)
(1.24639 1.99759e-19 -0.47881)
(1.01571 1.98797e-19 -0.367191)
(0.793078 0 -0.256819)
(0.577772 -4.56464e-22 -0.147882)
(0.368266 3.32916e-22 -0.0397743)
(0.163637 1.91974e-19 0.0682866)
(-0.0371132 0 0.17609)
(-0.236007 0 0.28409)
(-0.433143 -3.72721e-19 0.392001)
(-0.629529 -8.75802e-23 0.498994)
(-0.825366 -7.38085e-19 0.606371)
(-1.02044 0 0.714216)
(-1.21687 -7.32603e-19 0.824406)
(-1.41576 0 0.938407)
(-1.6203 0 1.05663)
(-1.83169 3.53709e-19 1.18031)
(-2.0518 0 1.30943)
(-2.28229 6.97618e-19 1.44555)
(-2.52485 -3.45056e-22 1.58904)
(-2.78078 -6.90453e-19 1.74061)
(-3.05245 0 1.90294)
(-3.34231 3.04173e-23 2.07613)
(-3.65411 0 2.26404)
(-3.99207 0 2.46613)
(-4.35381 0 2.68476)
(-4.75365 0 2.92834)
(-5.1905 0 3.19548)
(-5.67938 -1.25282e-18 3.49369)
(-6.2169 0 3.81991)
(-6.81636 0 4.18524)
(-7.47959 1.197e-18 4.58844)
(-8.22612 0 5.04685)
(-9.06704 1.15918e-18 5.55946)
(-10.0153 1.14923e-18 6.14156)
(-11.1004 -2.25092e-18 6.79537)
(-12.3141 0 7.55246)
(-13.7049 2.19894e-18 8.39903)
(-15.2959 2.1759e-18 9.37874)
(-17.1247 0 10.4989)
(-19.2217 0 11.7842)
(-21.6465 0 13.2748)
(-24.4627 -2.05825e-18 15.0034)
(-27.7147 0 16.9942)
(-31.4885 0 19.3218)
(-35.9556 -3.99348e-18 22.1054)
(-41.2578 7.9579e-18 25.3674)
(-47.3552 0 29.0402)
(-54.2576 0 33.2233)
(-62.4295 0 38.3243)
(-72.52 0 44.6475)
(-84.3352 4.03432e-18 51.7213)
(-96.255 -8.17952e-18 58.2675)
(-106.036 0 63.0242)
(-112.301 0 65.5922)
(-115.271 7.64211e-18 66.5222)
(-116.273 0 66.7464)
(-116.712 6.97436e-18 66.9796)
(-117.41 -6.69712e-18 67.5006)
(-118.554 0 68.2729)
(-119.982 0 69.1482)
(-121.454 0 69.9921)
(-122.805 0 70.7327)
(-123.994 0 71.3792)
(-125.107 -1.09044e-17 72.0003)
(-126.254 0 72.6678)
(-127.508 -2.02623e-17 73.4342)
(-128.91 0 74.284)
(-130.44 -1.45644e-21 75.1966)
(-132.066 -2.67705e-21 76.1546)
(-133.759 0 77.1451)
(-135.499 -1.69246e-17 78.159)
(-137.272 0 79.1895)
(-139.066 0 80.2309)
(-140.872 3.01797e-17 81.2778)
(-142.678 0 82.3247)
(-144.475 0 83.3658)
(-146.253 0 84.3951)
(-147.999 0 85.406)
(-149.701 0 86.3912)
(-151.345 0 87.3433)
(-152.917 0 88.2532)
(-154.403 0 89.113)
(-155.781 -2.08654e-17 89.9109)
(-157.04 0 90.6397)
(-158.149 0 91.2819)
(-159.106 0 91.8365)
(-159.855 3.49929e-17 92.2713)
(-160.431 3.34196e-17 92.6053)
(-160.712 3.1872e-17 92.7702)
(-160.83 -3.03991e-17 92.8387)
(-160.509 -1.77363e-21 92.6583)
(-160.102 2.76165e-17 92.421)
(-159.037 5.26261e-17 91.8125)
(-157.999 0 91.2146)
(-156.211 -4.76769e-17 90.1655)
(-153.962 -4.53302e-17 88.9333)
(-152.505 0 87.9551)
(-146.956 -4.09157e-17 84.9376)
(-147.978 -3.88556e-17 85.4713)
(-138.951 -3.68691e-17 79.9717)
(5.6384 0 -0.791518)
(5.57502 -2.06715e-20 -0.894616)
(5.51364 0 -0.987207)
(5.4448 0 -1.07023)
(5.37165 -4.56499e-20 -1.15743)
(5.29203 -4.71987e-20 -1.24597)
(5.19621 4.85304e-20 -1.32547)
(5.07437 -1.48825e-19 -1.39259)
(4.92034 0 -1.44915)
(4.73281 -5.05551e-20 -1.49277)
(4.51564 1.01595e-19 -1.51622)
(4.27601 0 -1.51305)
(4.02206 -1.0024e-19 -1.48038)
(3.75779 0 -1.42145)
(3.48655 -9.82748e-20 -1.34237)
(3.21101 -9.74186e-20 -1.25134)
(2.93369 -9.706e-20 -1.15288)
(2.65784 9.65933e-20 -1.04922)
(2.38633 1.92512e-19 -0.940763)
(2.12004 0 -0.828175)
(1.8595 -1.88014e-19 -0.712708)
(1.60461 0 -0.595274)
(1.35469 0 -0.476484)
(1.10973 1.84592e-19 -0.356996)
(0.868917 -3.69781e-19 -0.236676)
(0.631772 0 -0.115042)
(0.397812 0 0.00751601)
(0.165285 0 0.131105)
(-0.0660378 3.52515e-19 0.255434)
(-0.297202 -3.53987e-19 0.379431)
(-0.528496 -1.0092e-21 0.50428)
(-0.759442 -3.45786e-19 0.630169)
(-0.991802 6.90216e-19 0.758976)
(-1.22664 -3.39864e-19 0.892375)
(-1.46726 3.40202e-19 1.03076)
(-1.71525 4.98009e-22 1.17542)
(-1.97273 0 1.32634)
(-2.24157 -6.56058e-19 1.48518)
(-2.52381 -6.55373e-19 1.65247)
(-2.82077 6.49223e-19 1.82879)
(-3.13513 0 2.0175)
(-3.46969 -6.32687e-19 2.21853)
(-3.82852 -6.21305e-19 2.43645)
(-4.2172 -6.1604e-19 2.67055)
(-4.63199 -6.04618e-19 2.92342)
(-5.08922 0 3.20488)
(-5.58742 0 3.51313)
(-6.14426 -1.53632e-22 3.85702)
(-6.75614 0 4.23273)
(-7.43835 0 4.65371)
(-8.1927 1.1252e-18 5.11785)
(-9.04074 -1.11292e-18 5.64599)
(-9.99591 -1.08864e-18 6.23602)
(-11.0732 2.51546e-22 6.90711)
(-12.3034 -1.40726e-21 7.65996)
(-13.6855 0 8.52654)
(-15.2648 0 9.50776)
(-17.0734 -4.08456e-18 10.638)
(-19.154 0 11.93)
(-21.5415 0 13.4137)
(-24.3025 1.95317e-18 15.135)
(-27.5096 0 17.1311)
(-31.2177 0 19.4321)
(-35.5233 -3.77665e-18 22.1253)
(-40.6101 3.74034e-18 25.3427)
(-46.6391 -7.45589e-18 29.0999)
(-53.5867 0 33.3341)
(-61.4772 3.70358e-18 38.1749)
(-70.774 0 44.0629)
(-82.1081 0 51.2604)
(-95.2429 -7.5541e-18 59.1566)
(-108.477 0 66.3269)
(-119.449 0 71.4606)
(-126.666 0 74.2202)
(-130.292 0 75.258)
(-131.685 0 75.5777)
(-132.343 -6.53102e-18 75.917)
(-133.182 -2.73401e-21 76.5477)
(-134.445 6.03667e-18 77.4181)
(-135.981 -5.84706e-18 78.3665)
(-137.531 0 79.2472)
(-138.898 0 79.9814)
(-140.031 0 80.5802)
(-141.016 0 81.1221)
(-141.981 0 81.6901)
(-143.021 -1.84708e-21 82.3425)
(-144.185 0 83.066)
(-145.457 8.82581e-18 83.8375)
(-146.799 -2.78259e-21 84.6371)
(-148.176 0 85.4489)
(-149.562 1.58241e-17 86.2612)
(-150.937 0 87.0643)
(-152.284 -1.46545e-17 87.8495)
(-153.588 1.83168e-21 88.6086)
(-154.834 0 89.3333)
(-156.007 0 90.0149)
(-157.09 0 90.6441)
(-158.066 0 91.2114)
(-158.917 -2.31422e-17 91.7062)
(-159.625 0 92.1181)
(-160.169 0 92.4349)
(-160.529 -2.03605e-17 92.6458)
(-160.68 0 92.7359)
(-160.608 1.86843e-17 92.6963)
(-160.273 -1.78776e-17 92.5057)
(-159.678 0 92.1641)
(-158.754 -6.53591e-17 91.6335)
(-157.553 2.22074e-21 90.9412)
(-155.925 -5.95237e-17 90.0046)
(-154.052 2.8384e-17 88.9225)
(-151.589 2.70648e-17 87.5071)
(-149.01 -2.57835e-17 86.0134)
(-145.592 -2.45663e-17 84.0483)
(-142.249 -2.33899e-17 82.1191)
(-137.97 4.45071e-17 79.6228)
(-133.32 4.2315e-17 77.0292)
(-129.364 4.02145e-17 74.556)
(-121.382 3.81956e-17 70.206)
(-120.194 0 69.4008)
(-108.057 0 62.1383)
(5.57641 0 -0.726493)
(5.52209 -2.07404e-20 -0.817384)
(5.47022 0 -0.907)
(5.40436 0 -0.98938)
(5.32969 0 -1.07005)
(5.25318 0 -1.15016)
(5.17269 -4.61463e-20 -1.22446)
(5.08245 4.66966e-20 -1.29185)
(4.97628 -4.70804e-20 -1.35509)
(4.84899 9.53544e-20 -1.41327)
(4.69874 -9.55486e-20 -1.45972)
(4.52764 0 -1.48717)
(4.34 9.42663e-20 -1.491)
(4.13862 0 -1.47239)
(3.92533 9.24115e-20 -1.43265)
(3.69927 9.2509e-20 -1.37604)
(3.46275 0 -1.30477)
(3.21815 0 -1.22243)
(2.96864 -9.0671e-20 -1.13057)
(2.71566 0 -1.03077)
(2.46081 0 -0.924586)
(2.20509 1.77223e-19 -0.812906)
(1.94866 0 -0.696515)
(1.69233 0 -0.576279)
(1.43609 1.7395e-19 -0.452498)
(1.18012 0 -0.325139)
(0.924727 0 -0.19478)
(0.668789 0 -0.061736)
(0.412207 -6.63715e-19 0.0736243)
(0.154044 0 0.209964)
(-0.106065 -9.5299e-22 0.348184)
(-0.367308 -6.70045e-22 0.488488)
(-0.630818 -3.24558e-19 0.632668)
(-0.897336 3.19373e-19 0.782515)
(-1.16997 -6.3949e-19 0.938371)
(-1.45059 -3.13058e-19 1.1015)
(-1.7415 0 1.27184)
(-2.04475 0 1.45109)
(-2.3627 -6.14934e-19 1.63992)
(-2.69654 6.09505e-19 1.83869)
(-3.04916 0 2.05142)
(-3.4237 0 2.27779)
(-3.8242 -5.86127e-22 2.5231)
(-4.25789 5.78518e-19 2.78639)
(-4.71917 5.67747e-19 3.07024)
(-5.22619 1.13308e-18 3.38597)
(-5.77702 0 3.7313)
(-6.39187 -1.92756e-22 4.11641)
(-7.06687 0 4.53645)
(-7.81908 0 5.00743)
(-8.65013 -1.05604e-18 5.52584)
(-9.5829 1.04442e-18 6.11637)
(-10.6329 0 6.77522)
(-11.8172 -1.0128e-18 7.5257)
(-13.167 -1.67528e-21 8.36845)
(-14.6927 0 9.32303)
(-16.4215 0 10.4314)
(-18.4102 3.83078e-18 11.6936)
(-20.6979 0 13.1368)
(-23.3237 0 14.7952)
(-26.3589 -3.66232e-18 16.7193)
(-29.884 0 18.95)
(-33.9632 0 21.5227)
(-38.6995 7.07805e-18 24.5357)
(-44.2809 -3.50547e-18 28.13)
(-50.8876 3.49198e-18 32.3117)
(-58.5172 0 37.0274)
(-67.2014 -3.46987e-18 42.4304)
(-77.3694 0 48.9763)
(-89.6124 3.48226e-18 56.8714)
(-103.692 3.53417e-18 65.3825)
(-117.927 0 72.9852)
(-129.925 0 78.3666)
(-138.085 -6.97595e-18 81.2644)
(-142.449 -6.71221e-18 82.4096)
(-144.318 0 82.8405)
(-145.228 0 83.2889)
(-146.18 1.17452e-17 84.0094)
(-147.497 -5.64906e-18 84.9402)
(-149.061 1.09436e-17 85.9147)
(-150.604 0 86.7801)
(-151.897 0 87.4484)
(-152.857 0 87.9268)
(-153.565 0 88.2989)
(-154.164 0 88.659)
(-154.774 -1.86093e-21 89.074)
(-155.464 0 89.5361)
(-156.225 0 90.0221)
(-157.016 -2.85547e-21 90.5105)
(-157.797 0 90.9833)
(-158.537 1.47951e-17 91.4255)
(-159.207 0 91.8244)
(-159.788 1.36956e-17 92.1688)
(-160.257 1.8991e-21 92.4477)
(-160.597 0 92.6503)
(-160.786 0 92.7654)
(-160.805 0 92.7816)
(-160.634 0 92.6873)
(-160.25 -2.57908e-21 92.4701)
(-159.634 -2.07218e-17 92.1181)
(-158.762 1.98604e-17 91.618)
(-157.615 1.90164e-17 90.9589)
(-156.166 0 90.1255)
(-154.404 -1.74489e-17 89.1108)
(-152.292 1.66947e-17 87.8938)
(-149.841 0 86.4806)
(-146.98 3.05153e-17 84.8319)
(-143.789 -5.82826e-17 82.9901)
(-140.099 2.77883e-17 80.8641)
(-136.162 0 78.5878)
(-131.566 -2.52704e-17 75.9425)
(-126.934 0 73.2597)
(-121.389 0 70.0687)
(-116.115 2.18338e-17 67.0231)
(-109.824 0 63.3571)
(-103.518 0 59.8312)
(-97.7151 -3.75357e-17 56.2403)
(-88.6895 -3.56503e-17 51.3613)
(-85.8126 -3.3852e-17 49.5063)
(-72.9642 3.21182e-17 41.8978)
(5.51651 0 -0.666465)
(5.4676 1.9491e-20 -0.746212)
(5.42526 4.08412e-20 -0.828504)
(5.36874 0 -0.908325)
(5.29892 0 -0.985143)
(5.22388 0 -1.06005)
(5.14694 4.33679e-20 -1.12957)
(5.06607 0 -1.19335)
(4.9779 4.42424e-20 -1.25476)
(4.87833 0 -1.31491)
(4.7643 0 -1.36963)
(4.63585 -8.84932e-20 -1.41244)