/*--------------------------------*- C++ -*----------------------------------*\
| =========                 |                                                 |
| \\      /  F ield         | OpenFOAM: The Open Source CFD Toolbox           |
|  \\    /   O peration     | Version:  2412                                  |
|   \\  /    A nd           | Website:  www.openfoam.com                      |
|    \\/     M anipulation  |                                                 |
\*---------------------------------------------------------------------------*/
FoamFile
{
    version     2.0;
    format      ascii;
    arch        "LSB;label=32;scalar=64";
    class       surfaceScalarField;
    location    "0.045";
    object      phi_0;
}
// * * * * * * * * * * * * * * * * * * * * * * * * * * * * * * * * * * * * * //

dimensions      [0 3 -1 0 0 0 0];

oriented        oriented;

internalField   nonuniform List<scalar> 
24930
(
0.0139779
0.0102504
-0.0242283
0.00790539
0.00607254
0.00531484
0.00259055
0.00415646
0.00115838
0.00350723
0.000649225
0.00307871
0.000428522
0.002767
0.000311705
0.00252697
0.000240037
0.00233479
0.000192179
0.00217645
0.000158335
0.00204317
0.000133285
0.00192905
0.00011412
0.00182997
9.90763e-05
0.00174295
8.70165e-05
0.00166578
7.71742e-05
0.00159676
6.90152e-05
0.00153461
6.21586e-05
0.00147828
5.63277e-05
0.00142696
5.13166e-05
0.00137999
4.69689e-05
0.00133683
4.31649e-05
0.00129702
3.98108e-05
0.00126019
3.68323e-05
0.00122602
3.41701e-05
0.00119424
3.17763e-05
0.00116463
2.96115e-05
0.00113698
2.76438e-05
0.00111114
2.58461e-05
0.00108694
2.41961e-05
0.00106427
2.2675e-05
0.001043
2.12667e-05
0.00102304
1.99573e-05
0.00100431
1.8735e-05
0.000986718
1.75896e-05
0.000970205
1.65127e-05
0.000954708
1.54969e-05
0.000940174
1.45346e-05
0.000926554
1.36196e-05
0.000913808
1.27464e-05
0.000901896
1.19112e-05
0.000890788
1.11087e-05
0.000880453
1.03347e-05
0.000870868
9.58471e-06
0.000862014
8.85429e-06
0.000853873
8.14139e-06
0.000846433
7.43975e-06
0.000839683
6.74967e-06
0.000833619
6.06389e-06
0.000828241
5.37873e-06
0.000823547
4.6932e-06
0.000819547
4.00047e-06
0.000816244
3.30298e-06
0.000813656
2.5877e-06
0.0008118
1.85609e-06
0.000810699
1.10094e-06
0.000810383
3.16304e-07
0.00081088
-4.96983e-07
0.000812242
-1.36198e-06
0.000814521
-2.27877e-06
0.000817773
-3.25256e-06
0.000822072
-4.29842e-06
0.000827507
-5.435e-06
0.00083418
-6.67388e-06
0.000842207
-8.02691e-06
0.000851744
-9.53637e-06
0.000863
-1.12567e-05
0.000876196
-1.31953e-05
0.000891514
-1.53183e-05
0.000909215
-1.7701e-05
0.000929866
-2.06508e-05
0.00095429
-2.44244e-05
0.000983099
-2.88087e-05
0.0010162
-3.30982e-05
0.00105278
-3.65801e-05
0.00109181
-3.90286e-05
0.00113256
-4.07557e-05
0.00117485
-4.22882e-05
0.00121888
-4.40283e-05
0.00126501
-4.61335e-05
0.0013136
-4.85899e-05
0.00136493
-5.13244e-05
0.00141919
-5.42654e-05
0.00147656
-5.73697e-05
0.0015372
-6.06441e-05
0.00160134
-6.41367e-05
0.00166923
-6.7889e-05
0.00174118
-7.19477e-05
0.00181752
-7.6345e-05
0.00189861
-8.10891e-05
0.00198481
-8.61932e-05
0.00207648
-9.16765e-05
0.00217405
-9.7563e-05
0.00227793
-0.000103881
0.00238859
-0.000110661
0.00250652
-0.000117938
0.00263228
-0.000125752
0.00276642
-0.000134139
0.00290956
-0.000143149
0.00306239
-0.000152826
0.00322561
-0.000163221
0.00340001
-0.000174396
0.00358641
-0.000186406
0.00378573
-0.00019932
0.00399894
-0.000213205
0.00422709
-0.000228148
0.00447129
-0.000244208
0.00473282
-0.000261523
0.00501291
-0.000280098
0.00531311
-0.000300197
0.00563478
-0.000321668
0.0059798
-0.000345019
0.00634962
-0.000369826
0.00674654
-0.000396916
0.00717202
-0.000425483
0.00762924
-0.000457213
0.00811656
-0.000487327
0.00864761
-0.000531043
0.00918679
-0.000539188
0.00980668
-0.000619884
-0.000550378
0.0289505
0.0130158
-0.0317159
0.0237054
0.0113176
0.018833
0.00746298
0.0153509
0.00464046
0.0130239
0.00297618
0.0114146
0.00203788
0.0102378
0.00148847
0.00933408
0.00114377
0.00861276
0.000913498
0.00801984
0.000751261
0.00752146
0.000631666
0.0070952
0.000540375
0.00672549
0.000468785
0.00640109
0.000411418
0.00611365
0.000364618
0.00585682
0.000325839
0.00562571
0.00029327
0.00541645
0.00026559
0.00522595
0.000241816
0.00505172
0.000221202
0.0048917
0.000203178
0.00474422
0.000187295
0.00460785
0.0001732
0.00448141
0.000160609
0.00436389
0.000149295
0.00425444
0.00013907
0.0041523
0.000129781
0.00405684
0.0001213
0.00396752
0.000113521
0.00388384
0.000106354
0.00380538
9.97225e-05
0.00373178
9.35604e-05
0.0036627
8.78112e-05
0.00359787
8.24272e-05
0.00353701
7.73676e-05
0.00347991
7.25969e-05
0.00342637
6.80804e-05
0.0033762
6.37886e-05
0.00332925
5.96953e-05
0.00328538
5.57809e-05
0.00324446
5.2022e-05
0.0032064
4.83993e-05
0.00317109
4.48904e-05
0.00313847
4.14775e-05
0.00310846
3.81481e-05
0.00308103
3.48709e-05
0.00305614
3.16465e-05
0.00303375
2.84462e-05
0.00301388
2.52528e-05
0.00299652
2.2057e-05
0.00298168
1.88323e-05
0.00296941
1.55803e-05
0.00295974
1.2253e-05
0.00295275
8.84452e-06
0.00294852
5.33065e-06
0.00294716
1.68182e-06
0.00294877
-2.10975e-06
0.00295354
-6.13241e-06
0.00296166
-1.04024e-05
0.00297336
-1.49492e-05
0.0029889
-1.98408e-05
0.00300863
-2.51597e-05
0.00303292
-3.09642e-05
0.00306222
-3.73291e-05
0.00309714
-4.44528e-05
0.00313844
-5.25594e-05
0.00318693
-6.16828e-05
0.00324333
-7.17203e-05
0.00330877
-8.31452e-05
0.00338534
-9.72214e-05
0.00347567
-0.000114745
0.00358133
-0.000134475
0.00370156
-0.000153332
0.00383349
-0.000168504
0.00397378
-0.000179325
0.00412032
-0.00018729
0.00427267
-0.000194634
0.00443162
-0.000202983
0.00459842
-0.000212934
0.00477422
-0.000224393
0.00495994
-0.000237043
0.00515627
-0.000250594
0.0053638
-0.000264898
0.00558318
-0.000280022
0.00581522
-0.000296181
0.00606089
-0.000313555
0.00632129
-0.000332349
0.00659762
-0.000352678
0.00689112
-0.000374587
0.00720307
-0.000398143
0.00753483
-0.000423435
0.00788784
-0.000450574
0.00826365
-0.000479691
0.00866391
-0.000510924
0.00909042
-0.000544447
0.00954508
-0.000580411
0.01003
-0.000619016
0.0105473
-0.000660454
0.0110994
-0.000704944
0.0116889
-0.000752728
0.0123186
-0.000804062
0.0129913
-0.0008592
0.0137105
-0.000918465
0.0144794
-0.000982145
0.0153019
-0.00105062
0.0161819
-0.00112421
0.0171238
-0.00120342
0.0181322
-0.00128847
0.0192121
-0.00138017
0.0203689
-0.00147846
0.0216086
-0.00158465
0.022937
-0.00169828
0.0243611
-0.00182094
0.0258875
-0.00195191
0.0275254
-0.00209511
0.0292716
-0.00223351
0.0311727
-0.00243213
0.0331043
-0.00247081
0.0353397
-0.00285529
-0.00253347
0.0368287
0.0122119
-0.0360248
0.0348724
0.0132739
0.0311256
0.0112098
0.0272453
0.00852068
0.0239388
0.00628275
0.0213079
0.00466874
0.0192413
0.00355504
0.0175989
0.00278625
0.0162657
0.00224667
0.0151598
0.00185713
0.014225
0.00156648
0.0134223
0.00134307
0.0127241
0.001167
0.0121102
0.00102534
0.0115654
0.000909416
0.0110781
0.000813126
0.0106393
0.000732104
0.0102417
0.000663149
0.00987965
0.00060386
0.00954844
0.000552413
0.00924422
0.0005074
0.00896379
0.000467718
0.0087045
0.000432491
0.00846409
0.000401018
0.00824066
0.000372733
0.00803256
0.000347169
0.00783839
0.000323946
0.00765695
0.000302744
0.00748717
0.000283299
0.00732814
0.000265386
0.00717905
0.000248814
0.00703919
0.000233419
0.00690794
0.000219058
0.00678476
0.000205613
0.00666914
0.00019298
0.00656067
0.000181071
0.00645895
0.0001698
0.00636365
0.000159093
0.00627446
0.000148883
0.00619112
0.000139123
0.00611339
0.000129753
0.00604106
0.000120726
0.00597396
0.000111985
0.00591195
0.00010349
0.0058549
9.52013e-05
0.00580272
8.70494e-05
0.00575534
7.90296e-05
0.00571271
7.10763e-05
0.00567482
6.31433e-05
0.00564167
5.52073e-05
0.00561329
4.72045e-05
0.00558974
3.91298e-05
0.00557112
3.08778e-05
0.00555754
2.24206e-05
0.00554917
1.37036e-05
0.00554618
4.67131e-06
0.00554882
-4.75047e-06
0.00555743
-1.47353e-05
0.00557235
-2.53226e-05
0.00559401
-3.66159e-05
0.00562295
-4.878e-05
0.0056598
-6.20112e-05
0.0057053
-7.64633e-05
0.00576032
-9.23512e-05
0.00582603
-0.000110163
0.00590388
-0.000130409
0.00599536
-0.000153159
0.00610196
-0.000178318
0.00622597
-0.000207156
0.00637124
-0.000242489
0.00654216
-0.000285664
0.00674098
-0.000333296
0.00696581
-0.000378164
0.00721143
-0.00041412
0.00747219
-0.000440088
0.00774467
-0.000459777
0.00802839
-0.000478352
0.00832485
-0.000499443
0.00863624
-0.000524317
0.00896455
-0.000552707
0.00931137
-0.000583866
0.00967793
-0.000617154
0.0100653
-0.000652289
0.0104748
-0.000689484
0.0109079
-0.000729253
0.0113663
-0.000772028
0.0118523
-0.000818271
0.0123678
-0.00086823
0.0129152
-0.000922021
0.0134969
-0.00097981
0.0141153
-0.00104182
0.014773
-0.00110832
0.015473
-0.00117962
0.0162181
-0.00125607
0.0170117
-0.00133805
0.0178573
-0.00142596
0.0187585
-0.00152024
0.0197194
-0.00162138
0.0207443
-0.00172987
0.0218379
-0.0018463
0.0230051
-0.00197126
0.0242513
-0.00210536
0.0255821
-0.00224933
0.0270039
-0.00240388
0.0285231
-0.00256985
0.0301469
-0.00274803
0.031883
-0.00293947
0.0337394
-0.00314491
0.035725
-0.00336575
0.0378491
-0.00360261
0.0401217
-0.00385724
0.0425538
-0.00413039
0.045156
-0.00442309
0.047941
-0.00473698
0.0509234
-0.00507749
0.0540969
-0.00540698
0.0575479
-0.00588314
0.0610465
-0.00596945
0.0651047
-0.00691345
-0.0061527
0.0412384
0.0104387
-0.0394653
0.0417831
0.0127292
0.0403481
0.0126449
0.0377085
0.0111602
0.0346952
0.00929609
0.0318036
0.00756034
0.0292376
0.00612103
0.027032
0.00499181
0.025152
0.0041267
0.0235447
0.00346443
0.022159
0.00295215
0.0209529
0.00254924
0.0198932
0.0022267
0.0189543
0.00196421
0.0181163
0.00174745
0.0173633
0.00156613
0.0166827
0.00141269
0.0160643
0.00128149
0.0154999
0.00116827
0.0149826
0.00106973
0.0145067
0.000983294
0.0140675
0.000906938
0.0136609
0.000839037
0.0132837
0.000778287
0.0129328
0.000723622
0.0126058
0.00067417
0.0123005
0.000629206
0.0120151
0.000588129
0.011748
0.000550434
0.0114977
0.000515692
0.011263
0.00048354
0.0110427
0.000453662
0.010836
0.000425786
0.0106419
0.000399682
0.0104598
0.000375152
0.0102888
0.000352023
0.0101285
0.000330134
0.00997823
0.000309341
0.00983759
0.000289516
0.00970616
0.000270561
0.00958354
0.000252367
0.00946943
0.000234841
0.00936353
0.000217878
0.00926563
0.000201393
0.00917552
0.000185313
0.00909306
0.000169505
0.00901814
0.000153952
0.00895068
0.000138537
0.00889065
0.000123173
0.00883805
0.000107804
0.00879294
9.23149e-05
0.00875539
7.66839e-05
0.00872555
6.0721e-05
0.00870361
4.43603e-05
0.0086898
2.75107e-05
0.00868442
1.00531e-05
0.00868783
-8.167e-06
0.00870056
-2.74652e-05
0.00872318
-4.79372e-05
0.00875635
-6.97874e-05
0.00880091
-9.33371e-05
0.00885785
-0.000118958
0.00892836
-0.000146964
0.00901381
-0.000177805
0.00911606
-0.000212412
0.00923737
-0.000251716
0.00938005
-0.000295846
0.00954656
-0.00034483
0.00974061
-0.000401199
0.00996796
-0.000469839
0.0102348
-0.000552487
0.0105438
-0.000642308
0.0108917
-0.000726104
0.0112708
-0.000793204
0.011673
-0.000842272
0.0120936
-0.000880362
0.0125321
-0.00091684
0.0129908
-0.00095813
0.0134728
-0.0010064
0.0139812
-0.00106109
0.0145182
-0.00112084
0.0150856
-0.00118453
0.015685
-0.00125172
0.0163184
-0.00132289
0.0169881
-0.00139899
0.017697
-0.00148084
0.0184479
-0.00156925
0.0192444
-0.00166465
0.0200896
-0.00176726
0.0209872
-0.00187739
0.0219408
-0.00199547
0.0229545
-0.00212199
0.0240324
-0.00225753
0.0251791
-0.00240272
0.0263993
-0.00255825
0.0276982
-0.00272488
0.0290813
-0.00290338
0.0305546
-0.00309465
0.0321243
-0.00329959
0.0337972
-0.00351921
0.0355805
-0.00375458
0.037482
-0.00400682
0.0395098
-0.00427717
0.0416729
-0.00456692
0.0439805
-0.00487748
0.0464428
-0.00521028
0.0490703
-0.00556701
0.0518746
-0.00594918
0.0548675
-0.0063587
0.0580623
-0.00679734
0.0614718
-0.00726674
0.0651116
-0.00777021
0.0689946
-0.00830615
0.073139
-0.00888135
0.0775634
-0.00950183
0.0822539
-0.0100975
0.0873436
-0.0109729
0.0924829
-0.0111087
0.0984314
-0.012862
-0.011513
0.0444345
0.00889979
-0.0428955
0.045967
0.0111967
0.0463537
0.0122581
0.0454589
0.0120551
0.0436688
0.0110862
0.04143
0.0097991
0.0390729
0.00847818
0.0367923
0.00727244
0.0346807
0.00623828
0.0327666
0.00537852
0.0310471
0.00467164
0.0295053
0.00409102
0.0281206
0.00361139
0.026873
0.00321187
0.0257445
0.00287596
0.0247197
0.00259089
0.0237856
0.00234683
0.0229309
0.00213615
0.0221463
0.00195288
0.0214237
0.00179231
0.0207563
0.00165068
0.0201383
0.00152498
0.0195646
0.00141275
0.0190309
0.00131199
0.0185334
0.00122106
0.018069
0.00113858
0.0176348
0.00106343
0.0172283
0.000994644
0.0168473
0.000931413
0.0164899
0.000873053
0.0161545
0.000818973
0.0158395
0.000768664
0.0155436
0.000721683
0.0152656
0.00067765
0.0150046
0.00063624
0.0147594
0.00059717
0.0145294
0.000560175
0.0143137
0.000525015
0.0141117
0.00049148
0.0139229
0.000459405
0.0137466
0.000428609
0.0135825
0.000398939
0.0134302
0.000370221
0.0132893
0.000342315
0.0131595
0.000315089
0.0130407
0.000288334
0.0129326
0.000262009
0.0128352
0.000235926
0.0127485
0.000209939
0.0126723
0.000183948
0.0126069
0.000157766
0.0125522
0.000131338
0.0125086
0.00010437
0.0124762
7.67286e-05
0.0124554
4.82764e-05
0.0124467
1.87928e-05
0.0124505
-1.19938e-05
0.0124676
-4.45671e-05
0.0124988
-7.91221e-05
0.012545
-0.000116028
0.0126075
-0.000155816
0.0126877
-0.000199109
0.0127872
-0.000246456
0.012908
-0.000298658
0.0130529
-0.000357251
0.0132249
-0.000423728
0.0134274
-0.000498351
0.013664
-0.000581444
0.01394
-0.000677244
0.0142633
-0.000793148
0.0146418
-0.000930971
0.0150785
-0.00107901
0.0155687
-0.00121625
0.0161018
-0.00132634
0.0166674
-0.00140788
0.0172595
-0.00147244
0.0178776
-0.00153488
0.0185247
-0.00160524
0.0192051
-0.00168682
0.0199227
-0.00177866
0.0206804
-0.00187859
0.0214807
-0.00198487
0.0223259
-0.00209692
0.0232186
-0.00221557
0.024162
-0.0023424
0.0251599
-0.00247875
0.0262165
-0.00262585
0.0273363
-0.00278437
0.0285237
-0.00295467
0.0297835
-0.00313725
0.0311208
-0.00333278
0.0325409
-0.00354205
0.0340493
-0.00376596
0.0356521
-0.0040055
0.0373556
-0.00426179
0.0391667
-0.00453592
0.0410925
-0.00482921
0.0431408
-0.00514291
0.0453197
-0.00547849
0.0476379
-0.00583743
0.0501047
-0.00622136
0.0527298
-0.00663195
0.0555237
-0.00707105
0.0584973
-0.00754055
0.0616623
-0.00804248
0.065031
-0.00857895
0.0686162
-0.00915222
0.0724317
-0.00976468
0.0764915
-0.0104185
0.0808111
-0.011117
0.085405
-0.0118606
0.0902915
-0.0126567
0.0954837
-0.0134983
0.101002
-0.0144001
0.106869
-0.0153681
0.113056
-0.0162847
0.119743
-0.0176603
0.126465
-0.0178304
0.134188
-0.0205849
-0.0185666
0.0475547
0.0077942
-0.0464491
0.0491
0.00965142
0.0503223
0.0110359
0.0507388
0.0116386
0.0502948
0.0115302
0.0491685
0.0109254
0.047599
0.0100477
0.0457985
0.00907291
0.0439219
0.00811493
0.0420669
0.00723349
0.0402879
0.00645069
0.0386112
0.00576766
0.0370466
0.00517597
0.035594
0.0046645
0.0342483
0.00422166
0.0330024
0.0038368
0.0318485
0.00350077
0.0307787
0.00320588
0.0297858
0.00294579
0.0288629
0.00271521
0.0280038
0.00250978
0.0272029
0.00232588
0.0264552
0.00216047
0.0257562
0.00201101
0.0251019
0.00187538
0.0244887
0.00175176
0.0239135
0.00163863
0.0233734
0.00153469
0.022866
0.00143882
0.022389
0.00135008
0.0219403
0.00126763
0.0215183
0.00119075
0.0211211
0.00111881
0.0207475
0.00105125
0.0203962
0.000987612
0.0200659
0.000927479
0.0197556
0.000870463
0.0194644
0.000816214
0.0191914
0.000764417
0.018936
0.000714827
0.0186974
0.000667175
0.0184752
0.000621235
0.0182686
0.000576745
0.0180774
0.000533493
0.0179013
0.000491286
0.0177398
0.000449799
0.0175928
0.000408969
0.0174602
0.000368515
0.017342
0.000328217
0.017238
0.000287909
0.0171485
0.000247311
0.0170735
0.000206329
0.0170133
0.000164525
0.0169683
0.000121687
0.016939
7.75901e-05
0.0169259
3.19019e-05
0.0169297
-1.58123e-05
0.0169514
-6.62599e-05
0.0169921
-0.000119774
0.017053
-0.000176945
0.0171358
-0.000238587
0.0172423
-0.000305654
0.0173749
-0.000379026
0.0175362
-0.000459981
0.0177298
-0.00055083
0.0179599
-0.000653791
0.0182309
-0.000769373
0.0185478
-0.000898385
0.0189178
-0.00104718
0.0193506
-0.00122602
0.0198561
-0.00143644
0.0204376
-0.00166047
0.0210887
-0.00186742
0.0217965
-0.00203413
0.0225479
-0.00215924
0.0233354
-0.00225995
0.0241584
-0.0023579
0.0250208
-0.0024676
0.0259278
-0.00259381
0.0268842
-0.00273508
0.0278938
-0.00288823
0.0289597
-0.00305072
0.0300846
-0.00322184
0.0312719
-0.0034029
0.0325258
-0.00359626
0.0338509
-0.00380391
0.0352527
-0.00402764
0.0367367
-0.00426836
0.0383086
-0.0045266
0.0399745
-0.00480308
0.0417404
-0.00509873
0.0436131
-0.0054147
0.0455993
-0.00575223
0.0477066
-0.00611273
0.0499425
-0.00649775
0.0523154
-0.00690882
0.0548339
-0.00734767
0.0575071
-0.00781614
0.0603448
-0.00831612
0.0633569
-0.00884962
0.0665544
-0.0094188
0.0699483
-0.0100259
0.0735504
-0.0106732
0.0773731
-0.0113632
0.0814291
-0.0120984
0.0857317
-0.0128816
0.0902948
-0.0137153
0.0951328
-0.0146026
0.10026
-0.0155455
0.105692
-0.0165491
0.111442
-0.0176112
0.117531
-0.0187448
0.123966
-0.0199336
0.13077
-0.0212038
0.137961
-0.0225594
0.145498
-0.023822
0.153595
-0.0257572
0.161702
-0.0259378
0.170893
-0.0297753
-0.0270932
0.0509659
0.00697877
-0.0501504
0.052213
0.00840429
0.0535521
0.00969675
0.0545829
0.0106078
0.055067
0.0110461
0.0549577
0.0110347
0.0543313
0.0106741
0.0533146
0.0100896
0.0520364
0.00939308
0.0506045
0.00866547
0.049099
0.00795614
0.0475759
0.00729075
0.0460719
0.00668005
0.0446104
0.00612593
0.0432054
0.00562667
0.0418641
0.00517808
0.0405897
0.00477521
0.0393825
0.00441304
0.0382415
0.00408687
0.0371642
0.00379242
0.0361481
0.00352593
0.0351899
0.00328408
0.0342864
0.00306392
0.0334346
0.0028629
0.0326312
0.00267877
0.0318733
0.00250959
0.0311583
0.00235364
0.0304836
0.00220943
0.0298467
0.00207566
0.0292456
0.0019512
0.0286782
0.00183503
0.0281427
0.00172626
0.0276374
0.0016241
0.0271608
0.00152784
0.0267115
0.0014369
0.0262883
0.00135072
0.02589
0.00126881
0.0255155
0.00119071
0.0251639
0.00111598
0.0248344
0.0010443
0.0245263
0.000975316
0.0242388
0.000908711
0.0239714
0.000844129
0.0237236
0.000781277
0.023495
0.000719887
0.0232853
0.000659507
0.0230943
0.000600038
0.0229217
0.000541093
0.0227675
0.000482352
0.0226319
0.000423582
0.0225148
0.000364377
0.0224165
0.000304596
0.0223374
0.000243627
0.022278
0.000181145
0.0222388
0.000116823
0.0222205
5.0183e-05
0.0222241
-1.94174e-05
0.0222508
-9.29576e-05
0.022302
-0.00017096
0.0223793
-0.000254303
0.0224849
-0.000344154
0.0226211
-0.000441894
0.0227909
-0.000548833
0.0229978
-0.00066686
0.0232462
-0.00079924
0.0235415
-0.000949097
0.0238895
-0.00111734
0.0242965
-0.00130544
0.0247716
-0.00152221
0.0253266
-0.00178105
0.025973
-0.00208288
0.0267148
-0.00240223
0.0275444
-0.00269702
0.0284463
-0.002936
0.0294048
-0.00311778
0.0304109
-0.00326609
0.0314637
-0.00341063
0.0325674
-0.00357134
0.0337284
-0.0037548
0.0349524
-0.00395907
0.0362439
-0.00417972
0.0376065
-0.00441329
0.0390435
-0.00465885
0.0405588
-0.00491825
0.0421574
-0.00519486
0.043845
-0.00549145
0.0456278
-0.00581046
0.0475125
-0.0061531
0.049506
-0.00652007
0.0516152
-0.00691228
0.0538474
-0.00733094
0.0562103
-0.00777753
0.0587117
-0.00825365
0.0613601
-0.00876112
0.0641642
-0.00930186
0.0671332
-0.00987782
0.0702767
-0.0104912
0.0736048
-0.0111442
0.0771279
-0.0118392
0.0808568
-0.0125785
0.0848028
-0.0133648
0.0889775
-0.0142006
0.0933929
-0.0150886
0.0980614
-0.0160317
0.102995
-0.0170324
0.108208
-0.018094
0.113711
-0.0192187
0.119519
-0.0204105
0.125643
-0.02167
0.132099
-0.0230046
0.138895
-0.024407
0.146049
-0.0258986
0.153563
-0.0274482
0.161458
-0.0290988
0.169746
-0.0308477
0.178375
-0.0324507
0.187565
-0.0349475
0.196751
-0.0351233
0.206966
-0.0399908
-0.0367377
0.0547002
0.00632043
-0.0540419
0.0556675
0.00743707
0.0568336
0.00853062
0.0579815
0.00945987
0.058891
0.0101366
0.0594263
0.0104994
0.0595478
0.0105526
0.0592849
0.0103524
0.0587024
0.00997566
0.057874
0.00949383
0.0568683
0.00896184
0.0557422
0.00841683
0.0545407
0.00788159
0.0532977
0.00736891
0.0520393
0.00688504
0.0507849
0.00643251
0.0495484
0.00601171
0.0483398
0.00562169
0.0471659
0.00526076
0.0460314
0.00492693
0.0449391
0.00461817
0.0438908
0.00433245
0.0428869
0.00406781
0.0419274
0.0038224
0.0410116
0.0035945
0.0401387
0.00338249
0.0393075
0.0031849
0.0385165
0.00300036
0.0377645
0.00282765
0.0370501
0.00266566
0.0363717
0.00251336
0.0357282
0.00236982
0.0351181
0.00223421
0.0345402
0.00210575
0.0339933
0.00198377
0.0334763
0.00186767
0.0329883
0.00175686
0.0325282
0.00165082
0.0320952
0.00154901
0.0316884
0.00145107
0.0313072
0.00135653
0.0309509
0.00126503
0.0306189
0.00117611
0.0303108
0.00108939
0.0300261
0.00100455
0.0297646
0.000920992
0.0295261
0.000838567
0.0293104
0.000756783
0.0291175
0.000675208
0.0289476
0.000593525
0.0288008
0.000511183
0.0286774
0.00042799
0.0285779
0.00034312
0.0285029
0.000256126
0.0284532
0.000166534
0.0284297
7.37027e-05
0.0284335
-2.32594e-05
0.0284662
-0.000125661
0.0285295
-0.000234266
0.0286255
-0.000350305
0.0287568
-0.000475381
0.0289263
-0.000611387
0.0291376
-0.000760185
0.0293951
-0.000924395
0.0297043
-0.0011084
0.0300717
-0.00131646
0.0305044
-0.00155004
0.0310104
-0.00181146
0.0316004
-0.00211219
0.0322883
-0.00246895
0.0330873
-0.00288188
0.0340021
-0.00331708
0.0350247
-0.00371954
0.0361373
-0.00404859
0.0373218
-0.00430235
0.0385674
-0.00451168
0.0398722
-0.00471547
0.041241
-0.00494009
0.0426807
-0.0051945
0.044198
-0.00547634
0.045798
-0.00577978
0.0474849
-0.00610018
0.0492623
-0.00643624
0.0511345
-0.00679042
0.0531068
-0.00716721
0.0551858
-0.00757039
0.0573785
-0.00800316
0.0596924
-0.00846704
0.0621352
-0.00896287
0.0647147
-0.00949173
0.0674388
-0.0100551
0.0703158
-0.0106546
0.0733544
-0.0112922
0.0765633
-0.0119701
0.0799519
-0.0126904
0.0835296
-0.0134556
0.0873063
-0.0142679
0.091292
-0.0151299
0.0954971
-0.0160442
0.0999321
-0.0170135
0.104608
-0.0180404
0.109535
-0.0191276
0.114724
-0.0202779
0.120186
-0.021494
0.125932
-0.0227786
0.131973
-0.0241347
0.138318
-0.0255638
0.144978
-0.0270706
0.151961
-0.0286531
0.159279
-0.0303218
0.166933
-0.0320618
0.17494
-0.0339056
0.183294
-0.0358017
0.192011
-0.0378162
0.201095
-0.039931
0.210491
-0.0418474
0.220397
-0.0448534
0.230308
-0.0450342
0.241083
-0.0507658
-0.0471096
0.0587286
0.00575292
-0.0581611
0.0595063
0.00665938
0.0604673
0.00756961
0.061517
0.0084102
0.0625183
0.00913531
0.0633411
0.00967658
0.0639026
0.009991
0.0641728
0.0100822
0.0641615
0.00998705
0.063901
0.00975429
0.0634324
0.0094304
0.0627965
0.00905273
0.0620297
0.00864847
0.0611627
0.00823587
0.0602213
0.00782646
0.0592266
0.00742718
0.0581968
0.00704154
0.0571466
0.00667188
0.0560882
0.00631914
0.0550316
0.00598358
0.0539847
0.00566504
0.0529541
0.00536308
0.0519448
0.0050771
0.0509607
0.00480644
0.0500049
0.00455035
0.0490794
0.00430803
0.0481856
0.00407865
0.0473246
0.0038614
0.0464968
0.00365546
0.0457024
0.00346002
0.0449414
0.00327432
0.0442137
0.0030976
0.0435187
0.00292916
0.0428562
0.0027683
0.0422255
0.00261443
0.0416262
0.00246698
0.0410577
0.00232538
0.0405194
0.0021891
0.0400108
0.00205758
0.0395314
0.00193045
0.0390808
0.00180719
0.0386584
0.00168743
0.0382638
0.00157063
0.0378969
0.00145636
0.0375572
0.00134423
0.0372447
0.00123352
0.0369592
0.00112405
0.0367008
0.00101522
0.0364695
0.000906473
0.0362656
0.000797415
0.0360895
0.00068733
0.0359415
0.000575977
0.0358223
0.000462292
0.0357327
0.000345679
0.0356738
0.0002255
0.0356466
0.000100916
0.0356526
-2.92486e-05
0.0356936
-0.000166658
0.0357717
-0.000312407
0.0358895
-0.000468128
0.0360501
-0.000635922
0.036257
-0.000818301
0.0365146
-0.00101779
0.036828
-0.00123784
0.0372037
-0.00148413
0.0376495
-0.00176223
0.0381739
-0.00207442
0.0387864
-0.00242397
0.0394992
-0.00282503
0.040328
-0.00329776
0.0412877
-0.00384155
0.0423843
-0.00441365
0.0436097
-0.00494492
0.0449449
-0.00538386
0.0463698
-0.00572718
0.0478711
-0.006013
0.0494458
-0.00629023
0.0510985
-0.00659274
0.0528365
-0.00693256
0.0546674
-0.00730717
0.0565968
-0.00770922
0.0586292
-0.00813258
0.0607683
-0.00857533
0.0630184
-0.00904049
0.065385
-0.00953381
0.0678748
-0.0100602
0.0704955
-0.0106239
0.0732551
-0.0112266
0.0761616
-0.0118694
0.0792233
-0.0125534
0.0824484
-0.0132801
0.0858453
-0.0140515
0.0894227
-0.0148696
0.0931893
-0.0157367
0.0971541
-0.0166552
0.101326
-0.0176276
0.105714
-0.0186563
0.110328
-0.019744
0.115177
-0.0208931
0.12027
-0.0221064
0.125616
-0.0233863
0.131224
-0.0247353
0.137102
-0.026156
0.143259
-0.0276507
0.149702
-0.0292215
0.156438
-0.0308711
0.163474
-0.0325999
0.170817
-0.0344131
0.178469
-0.036305
0.186438
-0.0382908
0.194721
-0.0403449
0.20333
-0.0425149
0.212251
-0.0447231
0.221503
-0.047068
0.231075
-0.0495028
0.240928
-0.0517003
0.251208
-0.0551341
0.261537
-0.0553625
0.272513
-0.061742
-0.0579064
0.063047
0.0052465
-0.0625405
0.0637038
0.00600257
0.0645053
0.00676812
0.0654142
0.00750127
0.0663599
0.00818965
0.0672507
0.00878576
0.068006
0.00923563
0.0685741
0.00951421
0.0689338
0.00962735
0.069088
0.00960008
0.0690538
0.00946454
0.0688545
0.00925203
0.068514
0.00898897
0.0680543
0.00869562
0.0674944
0.00838633
0.066851
0.00807061
0.0661381
0.00775439
0.0653689
0.00744112
0.064555
0.00713299
0.0637072
0.00683147
0.0628347
0.0065375
0.0619461
0.00625162
0.0610491
0.00597414
0.0601502
0.00570529
0.0592554
0.00544516
0.0583697
0.00519379
0.0574972
0.00495114
0.0566415
0.00471707
0.0558056
0.00449139
0.0549917
0.00427386
0.0542019
0.00406415
0.0534376
0.00386192
0.0527
0.00366677
0.05199
0.0034783
0.0513083
0.0032961
0.0506555
0.00311983
0.0500318
0.00294906
0.0494375
0.00278334
0.0488729
0.00262223
0.0483379
0.00246538
0.0478328
0.00231237
0.0473574
0.00216281
0.0469118
0.00201617
0.0464962
0.00187201
0.0461105
0.00172995
0.0457549
0.0015891
0.0454296
0.00144935
0.0451349
0.00130995
0.0448711
0.00117027
0.0446387
0.00102983
0.0444383
0.000887745
0.0442705
0.000743752
0.0441363
0.000596507
0.0440367
0.000445282
0.0439729
0.000289235
0.0439465
0.000127314
0.0439592
-4.19628e-05
0.0440132
-0.000220648
0.0441111
-0.000410232
0.0442557
-0.000612796
0.0444508
-0.000831002
0.0447006
-0.00106807
0.0450101
-0.00132727
0.0453852
-0.00161302
0.0458335
-0.00193236
0.0463637
-0.00229242
0.0469857
-0.00269649
0.0477107
-0.0031489
0.0485519
-0.00366631
0.0495264
-0.00427226
0.0506506
-0.00496569
0.0519321
-0.00569516
0.053364
-0.00637686
0.0549272
-0.00694703
0.0565996
-0.0073996
0.058366
-0.00777937
0.0602214
-0.00814569
0.0621696
-0.00854085
0.0642179
-0.00898087
0.0663742
-0.00946352
0.0686449
-0.00997994
0.0710345
-0.0105222
0.0735465
-0.0110873
0.0761847
-0.0116787
0.0789541
-0.0123033
0.0818613
-0.0129674
0.0849139
-0.0136764
0.08812
-0.0144327
0.0914876
-0.015237
0.0950248
-0.0160906
0.0987396
-0.016995
0.10264
-0.0179519
0.106734
-0.0189636
0.11103
-0.0200323
0.115535
-0.0211603
0.120257
-0.0223501
0.125205
-0.0236039
0.130385
-0.0249242
0.135805
-0.0263132
0.141472
-0.0277733
0.147393
-0.0293066
0.153572
-0.0309152
0.160017
-0.0326009
0.166732
-0.0343658
0.173722
-0.0362108
0.180989
-0.0381388
0.188538
-0.0401481
0.19637
-0.0422454
0.204485
-0.0444206
0.212889
-0.0466948
0.221575
-0.0490301
0.230553
-0.0514936
0.239806
-0.0539761
0.249356
-0.0566179
0.259184
-0.0593305
0.269274
-0.0617906
0.27972
-0.0655798
0.290286
-0.0659285
0.301307
-0.0727628
-0.0690006
0.0676713
0.00478521
-0.06721
0.0682472
0.00542669
0.0689356
0.00607969
0.0697223
0.00671459
0.0705734
0.00733855
0.0714343
0.00792483
0.0722423
0.00842764
0.072945
0.00881157
0.0735087
0.00906361
0.0739195
0.00918934
0.0741783
0.00920565
0.074296
0.0091344
0.0742871
0.00899789
0.0741667
0.00881593
0.0739487
0.00860434
0.0736446
0.00837475
0.073264
0.00813496
0.0728152
0.0078899
0.0723056
0.00764264
0.0717425
0.00739455
0.071133
0.00714703
0.0704839
0.00690076
0.0698017
0.0066563
0.0690929
0.00641406
0.0683638
0.00617433
0.0676201
0.00593745
0.0668675
0.00570375
0.066111
0.00547352
0.0653554
0.00524703
0.0646047
0.00502452
0.0638628
0.00480612
0.0631328
0.00459192
0.0624176
0.00438193
0.0617198
0.0041761
0.0610415
0.00397437
0.0603847
0.00377669
0.0597509
0.00358287
0.0591415
0.00339272
0.0585578
0.00320593
0.0580008
0.00302236
0.0574715
0.00284169
0.0569706
0.00266367
0.056499
0.00248782
0.0560572
0.00231375
0.055646
0.00214114
0.0552661
0.00196903
0.0549181
0.00179735
0.0546028
0.0016253
0.0543209
0.00145217
0.0540732
0.00127744
0.0538609
0.00110006
0.0536849
0.000919761
0.0535465
0.000734918
0.0534471
0.000544677
0.0533884
0.000347994
0.0533721
0.000143567
0.0534005
-7.0354e-05
0.0534761
-0.000296296
0.0536021
-0.000536154
0.0537818
-0.000792496
0.0540193
-0.00106859
0.0543197
-0.00136842
0.0546886
-0.00169613
0.0551326
-0.00205711
0.0556601
-0.00245985
0.0562809
-0.00291318
0.0570061
-0.0034217
0.057848
-0.0039908
0.058821
-0.00463928
0.0599425
-0.0053938
0.0612302
-0.00625337
0.0626938
-0.00715874
0.0643285
-0.00801162
0.0661164
-0.00873487
0.0680346
-0.00931788
0.070066
-0.00981072
0.0722033
-0.010283
0.0744485
-0.0107861
0.0768085
-0.0113409
0.0792913
-0.0119463
0.0819034
-0.0125921
0.0846495
-0.0132682
0.0875324
-0.0139702
0.0905549
-0.0147012
0.093721
-0.0154694
0.0970363
-0.0162827
0.100508
-0.0171479
0.104143
-0.0180678
0.107949
-0.0190435
0.111935
-0.0200759
0.116106
-0.0211662
0.12047
-0.0223162
0.125034
-0.0235277
0.129805
-0.0248028
0.134788
-0.0261436
0.13999
-0.0275522
0.145417
-0.0290307
0.151074
-0.030581
0.156966
-0.032205
0.163097
-0.0339046
0.169472
-0.0356814
0.176094
-0.0375369
0.182965
-0.0394725
0.190089
-0.0414896
0.197467
-0.0435887
0.205101
-0.0457725
0.21299
-0.0480379
0.221139
-0.0503936
0.229543
-0.052825
0.23821
-0.0553614
0.24713
-0.057951
0.256322
-0.0606849
0.265764
-0.0634185
0.275489
-0.0663422
0.285474
-0.0693154
0.295728
-0.0720455
0.306305
-0.0761568
0.317096
-0.0767191
0.328218
-0.083885
-0.0804445
0.072624
0.00435839
-0.0721972
0.0731421
0.00490859
0.07375
0.00547182
0.0744419
0.00602264
0.0752028
0.00657764
0.0760022
0.00712549
0.0767974
0.00763243
0.0775444
0.00806456
0.0782074
0.00840056
0.0787636
0.00863314
0.0792034
0.0087659
0.0795278
0.00881001
0.0797448
0.00878089
0.0798654
0.0086953
0.0799009
0.00856883
0.0798612
0.00841448
0.0797541
0.00824205
0.0795856
0.00805839
0.0793603
0.00786792
0.0790816
0.00767321
0.0787531