/*--------------------------------*- C++ -*----------------------------------*\
| =========                 |                                                 |
| \\      /  F ield         | OpenFOAM: The Open Source CFD Toolbox           |
|  \\    /   O peration     | Version:  2412                                  |
|   \\  /    A nd           | Website:  www.openfoam.com                      |
|    \\/     M anipulation  |                                                 |
\*---------------------------------------------------------------------------*/
FoamFile
{
    version     2.0;
    format      ascii;
    arch        "LSB;label=32;scalar=64";
    class       volVectorField;
    location    "0.045";
    object      U_0;
}
// * * * * * * * * * * * * * * * * * * * * * * * * * * * * * * * * * * * * * //

dimensions      [0 1 -1 0 0 0 0];

internalField   nonuniform List<vector> 
12600
(
(14.3416 0 -3.46879)
(8.97061 -1.21029e-19 -2.52757)
(5.39203 -9.71766e-20 -2.45572)
(3.87994 0 -2.13446)
(3.21988 1.59664e-21 -1.8302)
(2.80444 0 -1.60331)
(2.50294 8.91097e-20 -1.43474)
(2.27236 0 -1.30496)
(2.08885 0 -1.20135)
(1.93839 0 -1.11614)
(1.8122 0 -1.04442)
(1.70445 1.43695e-19 -0.982951)
(1.61107 1.37524e-19 -0.929524)
(1.52914 0 -0.882539)
(1.45649 -2.5189e-19 -0.840805)
(1.39151 0 -0.80342)
(1.33293 -7.28686e-23 -0.769683)
(1.27977 0 -0.73904)
(1.23124 -1.05794e-19 -0.711052)
(1.18672 0 -0.68536)
(1.1457 0 -0.661671)
(1.10773 0 -0.639742)
(1.07247 -3.55775e-19 -0.619372)
(1.03963 3.40659e-19 -0.600389)
(1.00893 3.94974e-23 -0.582649)
(0.980181 -1.56177e-19 -0.566027)
(0.953182 0 -0.550417)
(0.927775 0 -0.535726)
(0.903822 0 -0.521875)
(0.881199 2.62478e-19 -0.508792)
(0.8598 5.02541e-19 -0.496416)
(0.839529 0 -0.484692)
(0.820304 0 -0.473573)
(0.80205 2.20448e-19 -0.463015)
(0.7847 2.11012e-19 -0.45298)
(0.768195 0 -0.443433)
(0.752481 0 -0.434344)
(0.73751 3.6995e-19 -0.425684)
(0.72324 0 -0.41743)
(0.709631 -2.76174e-23 -0.409558)
(0.696649 3.24119e-19 -0.402047)
(0.684262 3.10109e-19 -0.39488)
(0.67244 0 -0.388039)
(0.661162 2.8375e-19 -0.38151)
(0.650403 2.71362e-19 -0.375278)
(0.640143 -5.19002e-19 -0.369341)
(0.630364 4.96284e-19 -0.363686)
(0.621051 0 -0.358306)
(0.612195 -4.53552e-19 -0.353193)
(0.603785 4.33493e-19 -0.348341)
(0.595815 0 -0.343746)
(0.588278 1.93797e-23 -0.339404)
(0.581171 -3.78123e-19 -0.335313)
(0.574495 0 -0.331474)
(0.568249 6.89754e-19 -0.32789)
(0.562444 0 -0.324554)
(0.557089 0 -0.321463)
(0.552194 -2.49698e-23 -0.318628)
(0.547774 -2.23484e-23 -0.316068)
(0.543844 -5.46026e-19 -0.313796)
(0.540429 5.20721e-19 -0.311824)
(0.537562 -9.92831e-19 -0.310172)
(0.535281 0 -0.308862)
(0.533626 -9.01444e-19 -0.307919)
(0.532651 -8.58438e-19 -0.307375)
(0.532438 1.63428e-18 -0.307289)
(0.533079 -7.77421e-19 -0.307736)
(0.534661 0 -0.308716)
(0.537234 0 -0.310271)
(0.540985 0 -0.312521)
(0.546303 0 -0.315687)
(0.55357 0 -0.319968)
(0.56282 1.13524e-18 -0.325358)
(0.573625 -1.0742e-18 -0.331596)
(0.585307 0 -0.338299)
(0.597293 0 -0.345157)
(0.609304 -9.09891e-19 -0.352032)
(0.621339 -1.69361e-23 -0.358931)
(0.633525 -1.62892e-18 -0.365931)
(0.646 0 -0.373105)
(0.658857 0 -0.380503)
(0.672143 0 -0.388148)
(0.685868 -6.39549e-24 -0.396042)
(0.700029 0 -0.404183)
(0.714638 0 -0.412575)
(0.729722 -1.09626e-18 -0.421239)
(0.745313 2.33939e-24 -0.430212)
(0.76146 0 -0.439514)
(0.77821 0 -0.449168)
(0.7956 1.73645e-18 -0.459193)
(0.813667 1.6366e-18 -0.46961)
(0.832443 1.54188e-18 -0.480439)
(0.851963 1.4521e-18 -0.491697)
(0.872261 1.21032e-23 -0.503405)
(0.893372 1.22919e-23 -0.515582)
(0.915331 -1.21009e-18 -0.528249)
(0.938176 0 -0.541429)
(0.961945 0 -0.555141)
(0.986678 0 -0.569411)
(1.01241 -3.77532e-18 -0.584259)
(1.0392 1.77227e-18 -0.599713)
(1.06707 -1.66331e-18 -0.615796)
(1.09608 -1.56051e-18 -0.632536)
(1.12628 0 -0.649958)
(1.15771 0 -0.668095)
(1.19042 0 -0.68697)
(1.22448 -2.40923e-18 -0.706624)
(1.25992 0 -0.727072)
(1.29683 2.11231e-18 -0.748375)
(1.33521 0 -0.77052)
(1.37524 0 -0.793619)
(1.41676 -1.72994e-18 -0.817581)
(1.46019 0 -0.842646)
(1.50503 0 -0.868523)
(1.55216 0 -0.895728)
(1.60055 2.63901e-18 -0.923662)
(1.65064 0 -0.952587)
(1.70558 -2.29973e-18 -0.984304)
(1.74763 0 -1.00874)
(1.82464 -7.31774e-24 -1.05329)
(25.3794 1.19472e-20 -5.9496)
(21.3625 8.08765e-20 -6.22415)
(16.7207 1.37296e-20 -6.683)
(13.3799 0 -6.33384)
(11.2072 1.0035e-19 -5.74045)
(9.72484 -9.4699e-20 -5.17784)
(8.65491 -9.29247e-20 -4.70304)
(7.84227 8.82333e-20 -4.31324)
(7.19835 0 -3.99159)
(6.6718 0 -3.722)
(6.2309 0 -3.49231)
(5.85486 0 -3.29375)
(5.52932 0 -3.11998)
(5.24398 0 -2.9663)
(4.99126 2.32181e-22 -2.82918)
(4.76541 0 -2.70589)
(4.56201 -1.20168e-19 -2.59427)
(4.37761 0 -2.49263)
(4.20945 2.2008e-19 -2.39957)
(4.0553 -2.10573e-19 -2.31398)
(3.91335 0 -2.23493)
(3.7821 -1.9294e-19 -2.16165)
(3.6603 1.84786e-19 -2.09348)
(3.5469 -1.76853e-19 -2.02988)
(3.44101 1.69255e-19 -1.97039)
(3.34188 0 -1.91459)
(3.24884 -1.54946e-19 -1.86215)
(3.16135 0 -1.81276)
(3.0789 0 -1.76616)
(3.00107 0 -1.72212)
(2.92748 -2.59862e-19 -1.68044)
(2.85781 0 -1.64093)
(2.79176 0 -1.60344)
(2.72907 0 -1.56784)
(2.6695 0 -1.53398)
(2.61286 0 -1.50176)
(2.55895 0 -1.47108)
(2.50761 -3.80612e-19 -1.44183)
(2.45869 0 -1.41395)
(2.41205 -6.95771e-19 -1.38736)
(2.36757 -6.65105e-19 -1.36199)
(2.32513 -3.17835e-19 -1.33777)
(2.28465 0 -1.31465)
(2.24603 0 -1.29259)
(2.20919 -5.54681e-19 -1.27153)
(2.17407 5.29917e-19 -1.25146)
(2.14061 -5.06093e-19 -1.23234)
(2.10875 0 -1.21413)
(2.07846 4.61498e-19 -1.19682)
(2.04971 0 -1.18038)
(2.02246 0 -1.16481)
(1.99669 4.01377e-19 -1.15009)
(1.9724 0 -1.13622)
(1.94959 0 -1.12319)
(1.92825 -6.96881e-19 -1.11102)
(1.90843 0 -1.0997)
(1.89012 0 -1.08925)
(1.87337 -4.59437e-23 -1.07969)
(1.85825 -5.75286e-19 -1.07106)
(1.84482 3.70653e-23 -1.0634)
(1.83316 0 -1.05677)
(1.8234 9.93595e-19 -1.05123)
(1.81565 9.45557e-19 -1.04687)
(1.81008 0 -1.04376)
(1.80688 1.71084e-18 -1.04204)
(1.80635 -2.15691e-23 -1.04189)
(1.80883 0 -1.04351)
(1.81456 -7.33365e-19 -1.04699)
(1.82381 0 -1.05251)
(1.83729 0 -1.06049)
(1.8562 0 -1.07164)
(1.88153 0 -1.08651)
(1.91309 -2.23575e-18 -1.10492)
(1.94934 1.05627e-18 -1.12595)
(1.98817 0 -1.14836)
(2.02791 0 -1.17124)
(2.06784 -8.90628e-19 -1.1942)
(2.10801 -3.00564e-23 -1.21732)
(2.14883 -2.24712e-23 -1.24084)
(2.19072 0 -1.26499)
(2.23393 0 -1.2899)
(2.27859 0 -1.31565)
(2.3247 -1.17941e-23 -1.34223)
(2.37228 1.19107e-18 -1.36965)
(2.42138 -1.12336e-18 -1.39793)
(2.4721 1.0592e-18 -1.42714)
(2.52455 4.5933e-24 -1.45738)
(2.57891 9.40792e-19 -1.48874)
(2.6353 0 -1.52127)
(2.69384 -1.66902e-18 -1.55506)
(2.75466 0 -1.59016)
(2.81787 -1.47837e-18 -1.62664)
(2.88356 0 -1.66456)
(2.95187 2.61526e-18 -1.70398)
(3.02288 1.22916e-18 -1.74497)
(3.09674 0 -1.78761)
(3.17355 0 -1.83195)
(3.25344 2.03732e-18 -1.87806)
(3.33653 -1.91233e-18 -1.92603)
(3.42296 3.58881e-18 -1.97593)
(3.51288 -1.68317e-18 -2.02784)
(3.60641 1.57828e-18 -2.08183)
(3.7037 0 -2.138)
(3.80491 -1.38628e-18 -2.19643)
(3.9102 0 -2.25721)
(4.01971 0 -2.32044)
(4.13365 2.27685e-18 -2.38622)
(4.25212 0 -2.45461)
(4.37543 -5.82182e-23 -2.52581)
(4.50351 -1.86455e-18 -2.59975)
(4.63699 0 -2.67681)
(4.77533 0 -2.75668)
(4.91989 0 -2.84014)
(5.06897 -1.4226e-18 -2.92621)
(5.22553 2.65701e-18 -3.0166)
(5.38619 -2.48089e-18 -3.10932)
(5.55213 0 -3.20521)
(5.73493 2.16001e-18 -3.31042)
(5.8748 0 -3.39164)
(6.13395 -3.74726e-18 -3.54015)
(28.5452 -2.70087e-20 -8.05377)
(27.6852 2.74612e-20 -7.97331)
(24.9842 1.56241e-19 -8.61975)
(21.8771 0 -8.85635)
(19.1263 8.70589e-20 -8.6472)
(16.9166 2.70816e-21 -8.19748)
(15.1831 0 -7.67774)
(13.81 -8.37264e-20 -7.17558)
(12.7 0 -6.72086)
(11.7826 -7.66208e-20 -6.31821)
(11.0095 0 -5.96317)
(10.3472 0 -5.64905)
(9.77215 0 -5.36946)
(9.26704 0 -5.11898)
(8.81902 1.24265e-19 -4.89318)
(8.41827 0 -4.68845)
(8.05715 0 -4.50184)
(7.72963 0 -4.33093)
(7.43089 -1.0437e-19 -4.17371)
(7.15702 1.75177e-22 -4.02853)
(6.90483 0 -3.89397)
(6.67168 1.24091e-22 -3.76884)
(6.45534 0 -3.65216)
(6.25396 1.67593e-19 -3.54304)
(6.06596 0 -3.44076)
(5.88998 0 -3.34466)
(5.72487 1.46955e-19 -3.2542)
(5.56963 0 -3.16889)
(5.42338 0 -3.08829)
(5.28535 2.57369e-19 -3.01204)
(5.15489 0 -2.93979)
(5.03139 0 -2.87125)
(4.91433 0 -2.80616)
(4.80325 0 -2.74429)
(4.69774 -2.06113e-19 -2.68542)
(4.59743 0 -2.62936)
(4.50197 0 -2.57594)
(4.41108 3.60412e-19 -2.52501)
(4.32449 0 -2.47643)
(4.24195 6.58784e-19 -2.43007)
(4.16324 4.58126e-23 -2.38582)
(4.08817 3.00896e-19 -2.34357)
(4.01656 0 -2.30323)
(3.94825 0 -2.26472)
(3.8831 2.62417e-19 -2.22797)
(3.821 0 -2.19292)
(3.76184 4.78727e-19 -2.1595)
(3.70552 0 -2.12768)
(3.65198 -4.47373e-23 -2.09741)
(3.60115 0 -2.06866)
(3.55298 0 -2.04142)
(3.50743 0 -2.01565)
(3.46449 3.61792e-19 -1.99136)
(3.42416 0 -1.96854)
(3.38644 0 -1.9472)
(3.35136 0 -1.92738)
(3.31894 0 -1.9091)
(3.28928 -1.13964e-18 -1.8924)
(3.26249 0 -1.87733)
(3.23868 3.18888e-23 -1.86396)
(3.218 0 -1.85241)
(3.20066 -4.68492e-19 -1.84279)
(3.18691 -8.91507e-19 -1.83525)
(3.177 0 -1.82995)
(3.1713 -1.61224e-18 -1.82712)
(3.17036 -7.66051e-19 -1.82708)
(3.17476 0 -1.83014)
(3.18494 6.90642e-19 -1.83654)
(3.20144 0 -1.84663)
(3.22553 0 -1.86123)
(3.25916 0 -1.88146)
(3.30373 0 -1.90801)
(3.35868 -8.39446e-23 -1.94034)
(3.42129 -9.93328e-19 -1.97676)
(3.48809 0 -2.01529)
(3.55644 0 -2.05452)
(3.62524 -3.4638e-23 -2.09398)
(3.69466 1.58111e-18 -2.13384)
(3.76535 7.46592e-19 -2.1745)
(3.83797 0 -2.21633)
(3.91291 0 -2.25951)
(3.99034 0 -2.30412)
(4.07027 2.36972e-18 -2.35018)
(4.15273 5.13333e-24 -2.39767)
(4.23782 1.05379e-18 -2.44667)
(4.3257 0 -2.49729)
(4.4166 9.36185e-19 -2.54969)
(4.51078 -8.81986e-19 -2.60401)
(4.60846 0 -2.66036)
(4.70984 0 -2.71885)
(4.81511 -1.47199e-18 -2.77959)
(4.92444 0 -2.84268)
(5.03802 -1.30244e-18 -2.90822)
(5.15602 -1.8465e-23 -2.97633)
(5.27864 -1.1508e-18 -3.04709)
(5.40605 1.08117e-18 -3.12063)
(5.53846 0 -3.19706)
(5.67606 -1.9066e-18 -3.27648)
(5.81905 1.78936e-18 -3.35901)
(5.96763 -3.35748e-18 -3.44478)
(6.12203 0 -3.5339)
(6.28245 1.47611e-18 -3.6265)
(6.44913 0 -3.72271)
(6.62228 1.29626e-18 -3.82266)
(6.80216 -1.2141e-18 -3.9265)
(6.98896 0 -4.03433)
(7.18301 -2.12827e-18 -4.14635)
(7.3844 0 -4.26261)
(7.59365 -3.72605e-18 -4.3834)
(7.81056 1.74235e-18 -4.50862)
(8.03613 0 -4.63884)
(8.26934 0 -4.77347)
(8.5125 0 -4.91384)
(8.76252 3.61536e-23 -5.05817)
(9.02448 -2.48183e-18 -5.20941)
(9.29253 2.31703e-18 -5.36405)
(9.568 0 -5.52341)
(9.8731 2.01708e-18 -5.69841)
(10.1018 0 -5.8324)
(10.5375 5.99577e-24 -6.08007)
(29.2027 1.48508e-20 -9.71263)
(29.9804 -1.09411e-21 -9.20575)
(29.2841 -6.93885e-20 -9.64438)
(27.5726 7.19863e-20 -10.1864)
(25.4524 7.20837e-20 -10.4315)
(23.3279 1.61557e-19 -10.3498)
(21.3954 0 -10.0511)
(19.7158 0 -9.64466)
(18.2782 0 -9.20269)
(17.047 7.25642e-20 -8.76521)
(15.985 0 -8.35114)
(15.0606 0 -7.96716)
(14.2486 0 -7.61404)
(13.5293 0 -7.29001)
(12.8871 0 -6.99248)
(12.3097 1.1227e-19 -6.71878)
(11.7874 -1.0754e-19 -6.46636)
(11.3123 0 -6.23295)
(10.8778 0 -6.01653)
(10.4787 1.89053e-19 -5.81533)
(10.1106 -1.80804e-19 -5.62779)
(9.76985 1.7322e-19 -5.45256)
(9.45336 -1.65676e-19 -5.28846)
(9.15849 -1.58675e-19 -5.13446)
(8.88303 1.51769e-19 -4.98963)
(8.62504 -1.45243e-19 -4.85319)
(8.38287 0 -4.72443)
(8.15509 1.32993e-19 -4.60274)
(7.94043 0 -4.48755)
(7.73781 -2.43563e-19 -4.37837)
(7.54624 0 -4.27477)
(7.36487 0 -4.17636)
(7.19294 0 -4.08278)
(7.02978 2.03819e-19 -3.99372)
(6.87479 1.94959e-19 -3.90889)
(6.72743 0 -3.82804)
(6.5872 0 -3.75093)
(6.45367 -3.4079e-19 -3.67735)
(6.32645 0 -3.60712)
(6.20519 -5.25469e-23 -3.54005)
(6.08956 2.97555e-19 -3.47599)
(5.97928 0 -3.4148)
(5.87408 0 -3.35635)
(5.77373 0 -3.30053)
(5.67802 0 -3.24723)
(5.58678 4.73364e-19 -3.19637)
(5.49986 0 -3.14786)
(5.41711 -4.31515e-19 -3.10166)
(5.33843 -4.11939e-19 -3.05769)
(5.26371 0 -3.01593)
(5.1929 0 -2.97633)
(5.12593 0 -2.93887)
(5.06277 -3.41326e-19 -2.90354)
(5.00342 3.25458e-19 -2.87035)
(4.9479 6.20578e-19 -2.83931)
(4.89623 0 -2.81047)
(4.84846 5.63687e-19 -2.78386)
(4.80474 1.0741e-18 -2.75951)
(4.7652 0 -2.73757)
(4.73001 9.74122e-19 -2.71812)
(4.6994 0 -2.70131)
(4.67369 4.41187e-19 -2.68732)
(4.65321 8.39387e-19 -2.67638)
(4.63838 0 -2.66871)
(4.62975 7.58747e-19 -2.66469)
(4.62808 7.20857e-19 -2.66478)
(4.63424 0 -2.66941)
(4.64888 0 -2.67896)
(4.67289 0 -2.69402)
(4.7081 -5.83959e-19 -2.71576)
(4.75712 -5.52895e-19 -2.7457)
(4.82159 0 -2.78453)
(4.90042 9.88206e-19 -2.83123)
(4.98973 9.33372e-19 -2.88335)
(5.08479 0 -2.9382)
(5.18212 0 -2.99401)
(5.28032 7.85862e-19 -3.05025)
(5.37964 2.62499e-23 -3.10721)
(5.48098 0 -3.16546)
(5.58516 0 -3.22543)
(5.69268 0 -3.28737)
(5.80374 0 -3.35135)
(5.91836 1.02921e-23 -3.41737)
(6.03656 -1.04782e-18 -3.48542)
(6.15847 0 -3.55562)
(6.28435 0 -3.62813)
(6.41451 0 -3.70315)
(6.54928 -8.26338e-19 -3.78087)
(6.68897 0 -3.86144)
(6.83383 -1.46487e-18 -3.94502)
(6.98412 1.37844e-18 -4.03173)
(7.14006 -1.29662e-18 -4.12172)
(7.30189 1.21928e-18 -4.21511)
(7.46983 -2.29224e-18 -4.31203)
(7.64414 1.07699e-18 -4.41263)
(7.82503 -1.01168e-18 -4.51704)
(8.01274 0 -4.62538)
(8.20752 0 -4.73781)
(8.40962 1.6736e-18 -4.85446)
(8.61926 1.56999e-18 -4.97548)
(8.83671 1.47223e-18 -5.101)
(9.0622 -3.40667e-23 -5.23117)
(9.296 0 -5.36613)
(9.53833 0 -5.50602)
(9.78947 1.13482e-18 -5.651)
(10.0496 0 -5.80118)
(10.3191 1.98879e-18 -5.95675)
(10.598 0 -6.11774)
(10.8868 5.17924e-23 -6.28448)
(11.1851 0 -6.45672)
(11.4943 1.52165e-18 -6.63522)
(11.8126 -1.42215e-18 -6.819)
(12.1433 -1.32869e-18 -7.00991)
(12.4815 3.93643e-23 -7.20517)
(12.8346 0 -7.40901)
(13.1939 -2.16381e-18 -7.6162)
(13.5602 -2.01897e-18 -7.8284)
(13.968 -1.88347e-18 -8.0614)
(14.264 0 -8.23641)
(14.8474 -3.28398e-24 -8.56487)
(29.3226 0 -10.886)
(30.3792 1.18843e-22 -10.2814)
(30.7686 0 -10.3983)
(30.3781 -6.80598e-20 -10.8803)
(29.361 -1.46055e-19 -11.344)
(27.9572 -7.47327e-20 -11.6027)
(26.3978 0 -11.6303)
(24.8445 0 -11.4743)
(23.3821 6.91939e-20 -11.198)
(22.043 6.71222e-20 -10.8549)
(20.832 -6.48087e-20 -10.4826)
(19.7414 -1.24789e-19 -10.105)
(18.7591 -1.19923e-19 -9.7358)
(17.872 0 -9.38182)
(17.0683 0 -9.046)
(16.3372 -2.11989e-19 -8.72917)
(15.6696 2.27419e-22 -8.43108)
(15.0577 0 -8.15094)
(14.4946 9.30821e-20 -7.8877)
(13.9748 1.78281e-19 -7.64025)
(13.4933 1.70906e-19 -7.40743)
(13.0459 0 -7.18816)
(12.6292 1.56592e-19 -6.98141)
(12.2399 -1.49758e-19 -6.78624)
(11.8755 -1.43432e-19 -6.60176)
(11.5335 8.35125e-23 -6.42719)
(11.212 0 -6.26179)
(10.9092 -6.16042e-23 -6.10492)
(10.6235 0 -5.95598)
(10.3535 -2.29934e-19 -5.81443)
(10.098 0 -5.67978)
(9.85596 0 -5.55159)
(9.62633 0 -5.42945)
(9.40828 -1.92491e-19 -5.313)
(9.20103 0 -5.20191)
(9.00389 0 -5.09586)
(8.81621 0 -4.99459)
(8.63743 0 -4.89785)
(8.46705 3.0738e-19 -4.80539)
(8.30459 -5.87581e-19 -4.71701)
(8.14964 0 -4.63252)
(8.00181 -2.68207e-19 -4.55174)
(7.86076 0 -4.47452)
(7.72619 0 -4.40071)
(7.59782 0 -4.33019)
(7.47541 -6.24089e-23 -4.26285)
(7.35876 0 -4.1986)
(7.24769 4.06859e-19 -4.13736)
(7.14204 0 -4.07905)
(7.04168 0 -4.02363)
(6.94654 3.53454e-19 -3.97106)
(6.85652 0 -3.92131)
(6.77157 0 -3.87436)
(6.69171 -3.07846e-23 -3.83024)
(6.61695 -5.84495e-19 -3.78895)
(6.54732 0 -3.75055)
(6.4829 -4.70052e-23 -3.71511)
(6.42385 -1.01106e-18 -3.68268)
(6.37037 0 -3.65342)
(6.32269 -4.5834e-19 -3.62748)
(6.28112 0 -3.60504)
(6.24605 -4.1504e-19 -3.58636)
(6.21796 -7.89499e-19 -3.57172)
(6.1974 0 -3.56147)
(6.18512 -7.13338e-19 -3.55608)
(6.18213 -2.07537e-23 -3.55619)
(6.18952 0 -3.56236)
(6.20824 0 -3.57511)
(6.23952 0 -3.59528)
(6.28575 1.09712e-18 -3.62445)
(6.35007 -3.22614e-23 -3.6644)
(6.43425 0 -3.71573)
(6.53662 -9.27945e-19 -3.77685)
(6.65224 -1.75234e-18 -3.84455)
(6.77525 0 -3.91554)
(6.90139 0 -3.98778)
(7.02896 0 -4.06072)
(7.15828 2.63748e-23 -4.13481)
(7.29041 0 -4.2107)
(7.42632 0 -4.28891)
(7.5666 0 -4.36969)
(7.71144 0 -4.45311)
(7.86084 -1.04135e-18 -4.53912)
(8.0148 -9.81838e-19 -4.62775)
(8.1735 0 -4.7191)
(8.33724 0 -4.81341)
(8.50639 0 -4.9109)
(8.68138 6.48084e-24 -5.01179)
(8.86253 0 -5.11627)
(9.05016 1.37132e-18 -5.22452)
(9.24455 0 -5.33667)
(9.44596 1.21347e-18 -5.45289)
(9.65464 0 -5.57332)
(9.87085 1.07231e-18 -5.69809)
(10.0948 0 -5.82736)
(10.3268 0 -5.96126)
(10.5671 0 -6.09992)
(10.8158 0 -6.24349)
(11.0732 -1.56488e-18 -6.3921)
(11.3396 0 -6.54587)
(11.6152 -1.37629e-18 -6.70494)
(11.9001 -1.29007e-18 -6.86941)
(12.1946 0 -7.03941)
(12.4988 0 -7.21502)
(12.813 0 -7.39638)
(13.1371 0 -7.58351)
(13.4715 -5.63757e-23 -7.77657)
(13.816 0 -7.97546)
(14.1712 3.25204e-18 -8.1805)
(14.5362 0 -8.39122)
(14.9124 -2.8425e-18 -8.60844)
(15.2974 1.32825e-18 -8.83069)
(15.6951 1.24088e-18 -9.0603)
(16.0986 1.15902e-18 -9.29326)
(16.5175 0 -9.53515)
(16.94 0 -9.77867)
(17.3664 3.77018e-18 -10.0261)
(17.8421 -1.75841e-18 -10.2966)
(18.1745 -1.63944e-18 -10.4955)
(18.8499 1.52448e-18 -10.8716)
(29.3981 0 -11.7165)
(30.2416 -4.53771e-20 -11.1981)
(30.923 0 -11.0843)
(31.2513 0 -11.3481)
(31.1181 0 -11.7865)
(30.5466 0 -12.2001)
(29.6538 0 -12.4775)
(28.573 -6.45246e-20 -12.5895)
(27.4099 -6.53087e-20 -12.5528)
(26.2358 -1.25534e-19 -12.4012)
(25.0934 1.21506e-19 -12.1697)
(24.0057 1.17783e-19 -11.888)
(22.9831 1.13191e-19 -11.5786)
(22.0283 0 -11.2573)
(21.1399 0 -10.9343)
(20.3144 1.99437e-19 -10.616)
(19.5474 1.91186e-19 -10.3062)
(18.8342 0 -10.0071)
(18.1702 -8.7851e-20 -9.71978)
(17.551 -1.68258e-19 -9.44474)
(16.9728 0 -9.182)
(16.4317 -1.54034e-19 -8.93134)
(15.9246 0 -8.69239)
(15.4485 1.39349e-22 -8.46468)
(15.0008 1.35131e-19 -8.24768)
(14.579 9.87647e-23 -8.04086)
(14.1811 0 -7.8437)
(13.8052 -1.18496e-19 -7.65566)
(13.4497 2.2661e-19 -7.47626)
(13.1129 4.3369e-19 -7.30501)
(12.7936 2.07379e-19 -7.14149)
(12.4905 0 -6.98527)
(12.2025 1.89703e-19 -6.83596)
(11.9286 0 -6.69321)
(11.668 0 -6.55667)
(11.4198 0 -6.42605)
(11.1833 0 -6.30104)
(10.9577 0 -6.18139)
(10.7426 -6.77026e-23 -6.06684)
(10.5373 2.76873e-19 -5.95718)
(10.3414 0 -5.85218)
(10.1544 5.05418e-19 -5.75167)
(9.97582 0 -5.65545)
(9.80537 0 -5.5634)
(9.64267 0 -5.47534)
(9.48745 -4.20434e-19 -5.39119)
(9.33946 0 -5.31081)
(9.19846 0 -5.23412)
(9.06428 0 -5.16106)
(8.93676 0 -5.09155)
(8.81577 -6.65359e-19 -5.02556)
(8.70123 0 -4.96306)
(8.59307 0 -4.90404)
(8.4913 -2.88434e-19 -4.84852)
(8.39592 0 -4.79653)
(8.30701 0 -4.74814)
(8.22464 -9.98165e-19 -4.70343)
(8.14902 4.75355e-19 -4.66248)
(8.08038 0 -4.6255)
(8.01903 0 -4.59266)
(7.96534 0 -4.56421)
(7.91981 3.89989e-19 -4.54048)
(7.88304 0 -4.52181)
(7.85573 0 -4.50865)
(7.83881 1.34008e-18 -4.50162)
(7.83352 -1.27279e-18 -4.5015)
(7.84123 0 -4.50898)
(7.86315 0 -4.52475)
(7.90087 0 -4.54991)
(7.95727 -5.14868e-19 -4.5864)
(8.0359 4.87323e-19 -4.6362)
(8.1386 9.21613e-19 -4.6997)
(8.2632 8.70511e-19 -4.77475)
(8.40384 8.21847e-19 -4.85741)
(8.55363 -7.75814e-19 -4.94391)
(8.7076 0 -5.03198)
(8.86375 0 -5.12113)
(9.02235 -6.52539e-19 -5.21188)
(9.18458 0 -5.305)
(9.35152 0 -5.40103)
(9.5238 0 -5.50021)
(9.70159 0 -5.60256)
(9.88484 0 -5.70802)
(10.0735 1.83899e-18 -5.81659)
(10.2678 0 -5.92839)
(10.468 8.16521e-19 -6.04366)
(10.6745 0 -6.16267)
(10.8878 6.59372e-24 -6.28566)
(11.1083 -1.36354e-18 -6.41281)
(11.3363 0 -6.5443)
(11.5719 0 -6.68028)
(11.8156 0 -6.82089)
(12.0676 0 -6.96627)
(12.328 -1.00287e-18 -7.11654)
(12.597 0 -7.27183)
(12.875 0 -7.43224)
(13.1619 0 -7.59788)
(13.4581 0 -7.76884)
(13.7637 0 -7.94522)
(14.0787 0 -8.12707)
(14.4034 0 -8.31447)
(14.7377 0 -8.50745)
(15.0817 1.12952e-18 -8.70604)
(15.4354 0 -8.91024)
(15.7988 0 -9.12006)
(16.1718 0 -9.3354)
(16.5545 -1.73573e-18 -9.5563)
(16.9462 0 -9.78245)
(17.3474 -1.5187e-18 -10.0141)
(17.7567 0 -10.2504)
(18.1757 4.69727e-23 -10.4923)
(18.6004 0 -10.7375)
(19.0361 -1.15864e-18 -10.989)
(19.4729 0 -11.2412)
(19.9232 0 -11.5013)
(20.3712 0 -11.7593)
(20.8182 -1.75991e-18 -12.0194)
(21.3144 3.28313e-18 -12.2995)
(21.6487 3.06093e-18 -12.5031)
(22.3395 1.42301e-18 -12.8821)
(29.4871 0 -12.3194)
(30.0972 4.41536e-20 -11.9251)
(30.7028 0 -11.7215)
(31.231 0 -11.7902)
(31.5447 5.35062e-20 -12.0824)
(31.5584 5.61655e-20 -12.4726)
(31.2737 -5.78028e-20 -12.845)
(30.7454 1.77612e-19 -13.1298)
(30.0424 0 -13.2993)
(29.2274 1.42586e-21 -13.3537)
(28.3502 -5.68711e-20 -13.3084)
(27.4474 0 -13.1837)
(26.5447 0 -12.9999)
(25.6589 0 -12.7748)
(24.8007 0 -12.5227)
(23.9763 -4.97407e-22 -12.2542)
(23.1888 -3.86207e-22 -11.9775)
(22.4395 -8.59221e-20 -11.698)
(21.7281 -8.23791e-20 -11.4198)
(21.0538 0 -11.1456)
(20.415 1.51283e-19 -10.8771)
(19.8102 1.45159e-19 -10.6158)
(19.2373 0 -10.3623)
(18.6947 1.73073e-22 -10.1171)
(18.1803 -1.44021e-22 -9.88044)
(17.6925 1.21858e-19 -9.65236)
(17.2296 0 -9.4328)
(16.7899 0 -9.22162)
(16.3721 -2.13486e-19 -9.0186)
(15.9747 -1.25382e-22 -8.82352)
(15.5965 -3.90583e-19 -8.63611)
(15.2363 0 -8.45612)
(14.8931 -3.57262e-19 -8.28327)
(14.5658 0 -8.11729)
(14.2536 0 -7.95793)
(13.9557 1.5611e-19 -7.80493)
(13.6712 0 -7.65804)
(13.3995 2.85265e-19 -7.51702)
(13.1399 -7.51709e-23 -7.38168)
(12.8918 -2.60504e-19 -7.25178)
(12.6547 0 -7.12714)
(12.4281 -5.36247e-23 -7.00758)
(12.2115 0 -6.89291)
(12.0045 0 -6.78301)
(11.8068 0 -6.67772)
(11.6179 0 -6.57694)
(11.4377 0 -6.48055)
(11.2658 -3.60195e-19 -6.38846)
(11.1021 0 -6.30061)
(10.9464 0 -6.21694)
(10.7985 3.12783e-19 -6.13741)
(10.6584 0 -6.06199)
(10.5259 2.84343e-19 -5.9907)
(10.4011 2.71039e-19 -5.92356)
(10.284 -5.16598e-19 -5.86062)
(10.1747 0 -5.80194)
(10.0732 4.68891e-19 -5.74767)
(9.97989 4.46474e-19 -5.6979)
(9.89495 0 -5.65286)
(9.81877 0 -5.61278)
(9.7518 0 -5.57798)
(9.69464 -3.66169e-19 -5.54883)
(9.64799 0 -5.52576)
(9.61271 0 -5.50933)
(9.58989 -6.28836e-19 -5.50026)
(9.58101 1.19434e-18 -5.4995)
(9.58767 0 -5.50787)
(9.61135 0 -5.52621)
(9.654 0 -5.55589)
(9.71885 0 -5.59914)
(9.8098 4.57035e-19 -5.65807)
(9.92871 -8.64097e-19 -5.73281)
(10.0731 0 -5.82065)
(10.2363 0 -5.91705)
(10.4106 7.27087e-19 -6.01783)
(10.5904 0 -6.12059)
(10.7733 6.47726e-19 -6.22486)
(10.9594 -6.11349e-19 -6.33125)
(11.15 0 -6.44056)
(11.3461 0 -6.55333)
(11.5485 0 -6.66978)
(11.7572 0 -6.78988)
(11.972 0 -6.91349)
(12.193 -8.60699e-19 -7.04059)
(12.4202 0 -7.17127)
(12.6539 -1.52823e-18 -7.30579)
(12.8945 0 -7.44441)
(13.1425 6.6848e-24 -7.58736)
(13.3982 1.56436e-23 -7.73482)
(13.6619 0 -7.88693)
(13.9339 -1.12894e-18 -8.04383)
(14.2143 0 -8.20562)
(14.5033 0 -8.37239)
(14.8011 1.8753e-18 -8.54423)
(15.1077 0 -8.72118)
(15.4233 0 -8.90332)
(15.7479 0 -9.09065)
(16.0814 0 -9.2832)
(16.424 0 -9.48096)
(16.7756 0 -9.68389)
(17.136 0 -9.89194)
(17.5051 0 -10.105)
(17.8827 -1.05525e-18 -10.323)
(18.2686 0 -10.5458)
(18.6624 0 -10.7731)
(19.0636 0 -11.0048)
(19.4721 1.62103e-18 -11.2406)
(19.8868 1.51645e-18 -11.48)
(20.3079 1.41818e-18 -11.7231)
(20.7332 -1.32593e-18 -11.9687)
(21.1645 4.73943e-23 -12.2177)
(21.5963 1.15804e-18 -12.4671)
(22.0352 2.16356e-18 -12.7204)
(22.468 0 -12.9703)
(22.9106 -1.8864e-18 -13.2259)
(23.3416 -1.76082e-18 -13.4738)
(23.7674 0 -13.7226)
(24.2317 -1.53235e-18 -13.9819)
(24.5369 -1.42862e-18 -14.1722)
(25.1617 -1.32818e-18 -14.5076)
(29.5714 0 -12.7808)
(30.0262 -2.11551e-20 -12.4891)
(30.4862 0 -12.283)
(30.9702 0 -12.2397)
(31.4029 -5.03939e-20 -12.3807)
(31.6911 -5.28948e-20 -12.6597)
(31.784 5.44326e-20 -13.001)
(31.6778 -1.62657e-19 -13.3357)
(31.396 0 -13.6165)
(30.9717 -5.07061e-20 -13.8189)
(30.4386 1.02651e-19 -13.9361)
(29.8272 0 -13.9726)
(29.1631 -9.71487e-20 -13.9386)
(28.4668 0 -13.8463)
(27.7543 -9.05886e-20 -13.7076)
(27.0376 -8.78385e-20 -13.5335)
(26.3259 -8.43164e-20 -13.3332)
(25.6258 8.08795e-20 -13.1144)
(24.9419 1.54776e-19 -12.8831)
(24.2774 0 -12.6441)
(23.6345 -1.42393e-19 -12.401)
(23.0143 0 -12.1565)
(22.4174 0 -11.913)
(21.844 1.25041e-19 -11.672)
(21.2938 -2.39213e-19 -11.4348)
(20.7662 0 -11.2022)
(20.2607 0 -10.975)
(19.7766 0 -10.7536)
(19.313 2.00563e-19 -10.5383)
(18.8691 -1.92038e-19 -10.3293)
(18.4442 1.29789e-22 -10.1268)
(18.0372 -1.75573e-19 -9.93063)
(17.6476 3.3592e-19 -9.74092)
(17.2745 -1.60566e-19 -9.55758)
(16.9171 1.53522e-19 -9.38052)
(16.5748 -6.29668e-23 -9.20962)
(16.247 0 -9.04476)
(15.9329 -2.68272e-19 -8.8858)
(15.632 -2.56363e-19 -8.73263)
(15.3438 2.44949e-19 -8.5851)
(15.0677 0 -8.44306)
(14.8032 -2.23528e-19 -8.30639)
(14.55 -2.1343e-19 -8.17496)
(14.3075 -2.03811e-19 -8.04867)
(14.0755 -1.94593e-19 -7.92738)
(13.8536 0 -7.81103)
(13.6415 0 -7.69951)
(13.4389 6.35524e-23 -7.59277)
(13.2457 0 -7.49076)
(13.0617 0 -7.39342)
(12.8867 2.93721e-19 -7.30075)
(12.7206 -2.80072e-19 -7.21273)
(12.5634 -2.67039e-19 -7.12939)
(12.415 -3.61106e-23 -7.05079)
(12.2756 6.58694e-23 -6.97697)
(12.1452 0 -6.90803)
(12.0239 0 -6.84416)
(11.912 -8.38087e-19 -6.78547)
(11.8099 0 -6.73223)
(11.7179 0 -6.68474)
(11.6366 3.6114e-19 -6.64333)
(11.5667 0 -6.60847)
(11.5089 0 -6.58067)
(11.4643 -6.20703e-19 -6.56055)
(11.4342 5.8967e-19 -6.549)
(11.4201 -1.11989e-18 -6.54706)
(11.4239 0 -6.55568)
(11.4474 5.04067e-19 -6.57587)
(11.4927 0 -6.60923)
(11.5635 0 -6.65821)
(11.6636 -8.56625e-19 -6.72497)
(11.7952 0 -6.80935)
(11.9555 0 -6.90813)
(12.1375 0 -7.01632)
(12.3328 0 -7.12945)
(12.5352 0 -7.24505)
(12.7418 -6.06547e-19 -7.36267)
(12.9523 -2.65123e-23 -7.48292)
(13.1681 5.4016e-19 -7.60662)
(13.3902 -5.09598e-19 -7.73429)
(13.6193 0 -7.86608)
(13.8553 0 -8.00187)
(14.0981 0 -8.14146)
(14.3473 0 -8.28474)
(14.603 0 -8.43179)
(14.8655 2.84396e-24 -8.58279)
(15.135 0 -8.738)
(15.4119 6.33721e-19 -8.89761)
(15.6966 1.5815e-23 -9.06175)
(15.9893 0 -9.23054)
(16.2901 1.05553e-18 -9.40403)
(16.599 0 -9.58227)
(16.9162 -9.32763e-19 -9.76529)
(17.2416 -2.00478e-23 -9.95307)
(17.5752 0 -10.1456)
(17.9169 0 -10.3428)
(18.2665 0 -10.5446)
(18.624 0 -10.7509)
(18.9889 -1.27715e-18 -10.9616)
(19.361 0 -11.1764)
(19.74 0 -11.3951)
(20.1254 -1.05208e-18 -11.6176)
(20.5167 0 -11.8435)
(20.9132 9.23069e-19 -12.0724)
(21.3144 -8.64226e-19 -12.304)
(21.7194 0 -12.5378)
(22.1275 -3.02756e-18 -12.7735)
(22.5374 -5.51206e-23 -13.0101)
(22.9489 -2.64841e-18 -13.2477)
(23.3592 1.23803e-18 -13.4846)
(23.7703 1.15708e-18 -13.7219)
(24.1751 -1.08118e-18 -13.9557)
(24.5818 -1.00992e-18 -14.1904)
(24.9739 -9.43125e-19 -14.4169)
(25.3713 1.76098e-18 -14.6464)
(25.7464 1.64369e-18 -14.8617)
(26.115 1.53344e-18 -15.0782)
(26.5017 1.43021e-18 -15.2907)
(26.7553 0 -15.4541)
(27.2506 0 -15.7104)
(29.6408 0 -13.1559)
(29.9978 -2.12342e-20 -12.9359)
(30.3439 0 -12.7569)
(30.7292 0 -12.6682)
(31.1311 0 -12.705)
(31.4859 0 -12.8663)
(31.7404 -4.69179e-20 -13.1189)
(31.8687 4.95614e-20 -13.4164)
(31.8664 -4.78284e-20 -13.7151)
(31.7417 9.83328e-20 -13.9822)
(31.5092 -9.65451e-20 -14.1977)
(31.1859 0 -14.3525)
(30.7888 9.13628e-20 -14.4457)
(30.3333 0 -14.4811)
(29.8328 8.51878e-20 -14.4649)
(29.299 8.12094e-20 -14.404)
(28.7416 0 -14.3057)
(28.169 0 -14.1767)
(27.5882 -7.26201e-20 -14.0232)
(27.0048 0 -13.8505)
(26.4236 0 -13.663)
(25.8483 1.27516e-19 -13.4646)
(25.2819 0 -13.2584)
(24.7266 0 -13.0471)
(24.1841 1.12357e-19 -12.8327)
(23.6556 0 -12.6171)
(23.1421 0 -12.4017)
(22.6439 0 -12.1877)
(22.1615 -3.76819e-19 -11.976)
(21.6948 0 -11.7674)
(21.244 1.58582e-22 -11.5625)
(20.8087 1.35291e-22 -11.3618)
(20.3888 -1.57799e-19 -11.1655)
(19.984 1.50887e-19 -10.974)
(19.594 -2.88432e-19 -10.7875)
(19.2183 -1.37905e-19 -10.6061)
(18.8567 0 -10.4298)
(18.5087 0 -10.2588)
(18.1738 -2.40656e-19 -10.093)
(17.8519 2.29939e-19 -9.93249)
(17.5424 0 -9.77721)
(17.245 0 -9.62713)
(16.9593 6.08716e-23 -9.48221)
(16.6851 1.91398e-19 -9.34244)
(16.422 1.82727e-19 -9.20773)
(16.1697 3.48753e-19 -9.07809)
(15.9281 0 -8.95348)
(15.6968 7.04603e-23 -8.83386)
(15.4758 0 -8.71924)
(15.2648 0 -8.60961)
(15.0637 -2.7567e-19 -8.50499)
(14.8726 2.62835e-19 -8.40539)
(14.6912 0 -8.31088)
(14.5198 -2.38774e-19 -8.22154)
(14.3583 7.16462e-23 -8.13746)
(14.2068 0 -8.05877)
(14.0656 0 -7.98567)
(13.935 7.85945e-19 -7.91835)
(13.8153 0 -7.85711)
(13.7069 0 -7.80227)
(13.6106 -6.77179e-19 -7.75425)
(13.527 0 -7.71356)
(13.4571 0 -7.6808)
(13.402 1.16353e-18 -7.65667)
(13.363 -5.52645e-19 -7.64216)
(13.3419 5.24716e-19 -7.63842)
(13.3408 0 -7.64653)
(13.3616 -4.72263e-19 -7.66761)
(13.4068 0 -7.70346)
(13.4799 4.23974e-19 -7.75668)
(13.5851 4.01168e-19 -7.82937)
(13.7246 0 -7.92111)
(13.8956 0 -8.02825)
(14.0911 -6.75943e-19 -8.14551)
(14.3024 -6.37755e-19 -8.26826)
(14.5226 0 -8.39404)
(14.7482 0 -8.52238)
(14.9787 1.0715e-18 -8.65389)
(15.2151 -5.05474e-19 -8.78933)
(15.4583 9.53665e-19 -8.92913)
(15.709 0 -9.07337)
(15.9672 0 -9.22185)
(16.2323 0 -9.37426)
(16.5041 0 -9.53037)
(16.7821 0 -9.69016)
(17.0666 2.82269e-24 -9.85377)
(17.3577 0 -10.0214)
(17.6558 0 -10.1931)
(17.961 1.59679e-23 -10.369)
(18.2734 0 -10.5491)
(18.593 9.86589e-19 -10.7335)
(18.9197 0 -10.922)
(19.2535 8.71727e-19 -11.1146)
(19.5942 -2.02378e-23 -11.3111)
(19.9414 0 -11.5115)
(20.2948 0 -11.7155)
(20.6541 0 -11.9228)
(21.0189 0 -12.1334)
(21.3886 3.83552e-23 -12.3468)
(21.7626 -1.11865e-18 -12.5626)
(22.1402 1.04858e-18 -12.7806)
(22.5207 9.82625e-19 -13.0003)
(22.9033 0 -13.2212)
(23.287 -8.62036e-19 -13.4427)
(23.671 8.07041e-19 -13.6643)
(24.0539 0 -13.8854)
(24.4349 1.41345e-18 -14.1054)
(24.8122 -2.64419e-18 -14.3232)
(25.1857 1.23632e-18 -14.5388)
(25.5518 0 -14.7502)
(25.9131 -1.08013e-18 -14.9587)
(26.2612 0 -15.1599)
(26.6061 0 -15.3588)
(26.9285 8.80383e-19 -15.545)
(27.2529 0 -15.7324)
(27.5446 0 -15.8993)
(27.8332 -1.4313e-18 -16.0702)
(28.1152 -1.3349e-18 -16.2206)
(28.3061 -1.24457e-18 -16.3497)
(28.6438 1.15707e-18 -16.5123)
(29.6973 0 -13.4734)
(29.9878 1.99546e-20 -13.3015)
(30.2569 4.08977e-20 -13.1523)
(30.5568 0 -13.0534)
(30.8906 0 -13.0342)
(31.2216 0 -13.1079)
(31.5106 4.40928e-20 -13.2678)
(31.7312 0 -13.4916)
(31.8696 4.49455e-20 -13.7501)
(31.9217 0 -14.0146)
(31.8896 0 -14.2618)
(31.78 -8.43725e-20 -14.4761)
(31.6012 0 -14.6487)
(31.362 -8.03584e-20 -14.7763)
(31.0706 7.79445e-20 -14.8591)
(30.7349 -7.62948e-20 -14.8997)
(30.3616 0 -14.9015)
(29.9571 7.00587e-20 -14.8686)
(29.5273 0 -14.8051)
(29.0775 1.29501e-19 -14.7154)
(28.6126 0 -14.6034)
(28.137 -1.19777e-19 -14.4726)
(27.6546 1.14378e-19 -14.3264)
(27.1689 0 -14.1676)
(26.6828 0 -13.9988)
(26.1989 -1.00609e-19 -13.8221)