/*--------------------------------*- C++ -*----------------------------------*\
| =========                 |                                                 |
| \\      /  F ield         | OpenFOAM: The Open Source CFD Toolbox           |
|  \\    /   O peration     | Version:  2412                                  |
|   \\  /    A nd           | Website:  www.openfoam.com                      |
|    \\/     M anipulation  |                                                 |
\*---------------------------------------------------------------------------*/
FoamFile
{
    version     2.0;
    format      ascii;
    arch        "LSB;label=32;scalar=64";
    class       volVectorField;
    location    "1.585";
    object      ddt0(U);
}
// * * * * * * * * * * * * * * * * * * * * * * * * * * * * * * * * * * * * * //

dimensions      [0 1 -2 0 0 0 0];

internalField   nonuniform List<vector> 
12600
(
(0.30954 2.58231e-21 -0.00323394)
(-0.116207 4.21361e-21 0.0204205)
(-0.172267 3.14357e-21 0.0145069)
(-0.202773 0 0.0108789)
(-0.202615 6.16888e-22 0.0101247)
(-0.184958 -3.90689e-22 0.00875147)
(-0.159943 0 0.00847057)
(-0.133943 0 0.0132312)
(-0.115052 9.65868e-21 0.0164309)
(-0.102806 0 0.0176086)
(-0.0907779 -6.18586e-21 0.017254)
(-0.0740822 -6.73794e-21 0.0157953)
(-0.0523324 7.22244e-21 0.0137052)
(-0.0285986 0 0.0114245)
(-0.00664903 7.6678e-21 0.0092534)
(0.0111798 0 0.00731016)
(0.0245524 -2.90579e-20 0.00556923)
(0.0344848 0 0.00394699)
(0.0423175 1.24461e-20 0.00237823)
(0.0489961 1.11223e-20 0.000845706)
(0.0548952 -9.71887e-21 -0.00063478)
(0.0600221 4.09838e-23 -0.00204439)
(0.064293 0 -0.00337859)
(0.0676775 1.05003e-20 -0.00464299)
(0.0701776 0 -0.00583687)
(0.0717297 0 -0.0069389)
(0.0721362 1.89458e-21 -0.00790359)
(0.0710776 0 -0.00866844)
(0.0681969 -7.22128e-23 -0.00916665)
(0.0632123 4.53429e-21 -0.00934088)
(0.0560138 6.01228e-21 -0.00915359)
(0.0467119 7.09412e-21 -0.0085926)
(0.0356304 -7.78122e-21 -0.00767068)
(0.0232605 -1.62003e-20 -0.00642268)
(0.0101959 -1.62029e-20 -0.00490099)
(-0.00291944 1.57107e-20 -0.00317479)
(-0.01543 0 -0.00132964)
(-0.0266859 -1.3818e-20 0.000530397)
(-0.0360824 0 0.00228921)
(-0.0431074 1.15992e-20 0.00382828)
(-0.0474386 0 0.00504895)
(-0.0490037 4.33069e-23 0.00588656)
(-0.0480389 0 0.00632711)
(-0.045025 5.13127e-23 0.00639896)
(-0.0406437 1.27479e-20 0.00617275)
(-0.0356225 -9.98547e-21 0.00573693)
(-0.0307098 6.5082e-21 0.00520083)
(-0.0265241 0 0.00466662)
(-0.023616 0 0.00424402)
(-0.022302 -7.09349e-21 0.0040124)
(-0.0227812 -2.42046e-20 0.0040421)
(-0.0248954 -3.37342e-20 0.00433969)
(-0.0283699 1.44836e-22 0.00489368)
(-0.0325508 -4.81135e-20 0.00561475)
(-0.0368331 0 0.00641951)
(-0.0403026 5.32342e-20 0.00715318)
(-0.0423613 5.1603e-20 0.00771484)
(-0.0421727 4.7785e-20 0.00794326)
(-0.0394991 0 0.00778541)
(-0.0338323 0 0.00712166)
(-0.0255359 0 0.00599448)
(-0.0145637 -3.82984e-20 0.00435372)
(-0.00202253 0 0.0023694)
(0.0117022 0 6.46431e-05)
(0.0248337 7.41394e-21 -0.00226031)
(0.0368865 0 -0.00454945)
(0.045796 0 -0.00641937)
(0.0516121 0 -0.00787841)
(0.0525346 -1.20545e-20 -0.00854992)
(0.0498076 3.00804e-20 -0.0086284)
(0.0422061 4.35101e-20 -0.00781398)
(0.0324273 9.34139e-23 -0.00655899)
(0.0195609 -6.8187e-20 -0.00462115)
(0.00747451 0 -0.00269184)
(-0.00520517 6.36641e-20 -0.000468287)
(-0.0140099 0 0.00119761)
(-0.0216906 0 0.00282923)
(-0.0235834 0 0.0034769)
(-0.024501 -4.33711e-22 0.00402291)
(-0.0195399 -1.25008e-19 0.00343184)
(-0.0158634 -1.87735e-19 0.00304384)
(-0.00753464 1.90118e-19 0.00165071)
(-0.0038453 2.10905e-19 0.00103985)
(0.00375681 0 -0.00043225)
(0.00384541 0 -0.000562737)
(0.0090036 -1.00785e-19 -0.00170411)
(0.00447219 5.30104e-20 -0.00106773)
(0.00770043 3.11188e-19 -0.00187297)
(-0.000109196 2.14446e-19 -0.000560119)
(0.00299269 0 -0.00108066)
(-0.00145226 -5.96601e-19 -2.28062e-05)
(0.00345934 3.18975e-19 -0.000608236)
(0.0109129 -9.40001e-20 -0.00166589)
(0.022033 5.83977e-19 -0.00393485)
(0.0155596 0 -0.00255915)
(0.0839233 0 -0.0159541)
(-0.053798 0 0.0098558)
(0.206304 0 -0.0394867)
(-0.0569979 0 0.0101925)
(-0.0920196 0 0.0177817)
(0.604349 -3.08289e-18 -0.113343)
(-0.841746 3.43128e-18 0.16162)
(1.00008 -1.77745e-18 -0.196286)
(-0.115782 0 0.0182437)
(-1.03255 0 0.183373)
(1.75392 0 -0.331519)
(-0.739202 4.40735e-18 0.151971)
(0.0317731 -1.96275e-18 -0.010946)
(-0.468736 1.37761e-18 0.0823724)
(2.11084 0 -0.395398)
(-1.1343 -1.09062e-17 0.245224)
(-1.61832 0 0.216081)
(5.4282 -1.64592e-17 -1.01267)
(-7.29755 -4.08607e-18 1.38655)
(4.97169 1.27138e-17 -0.922627)
(8.09165 -2.60729e-17 -1.40781)
(-19.9289 -2.24329e-17 3.77781)
(3.38184 -8.82124e-20 -0.157593)
(17.1189 2.64771e-17 -3.21417)
(1.12626 0 -0.319014)
(0.35776 -2.60563e-21 -0.0396687)
(0.108285 0 0.0591168)
(-0.0736201 -3.18268e-21 0.0460327)
(-0.220932 0 0.0165925)
(-0.292335 -6.2579e-22 0.00563811)
(-0.306809 6.25417e-22 0.00511994)
(-0.296357 1.18904e-21 0.011001)
(-0.281232 0 0.0242317)
(-0.27361 -1.01576e-22 0.0350261)
(-0.268254 5.49778e-21 0.0411021)
(-0.256372 -6.11307e-21 0.0427688)
(-0.232987 -6.69316e-21 0.0411743)
(-0.199621 7.21062e-21 0.0378601)
(-0.162097 -7.58228e-21 0.0341486)
(-0.12639 -1.55177e-20 0.0307551)
(-0.0957774 0 0.0277822)
(-0.0704014 2.92526e-23 0.0249786)
(-0.048564 -1.37891e-20 0.0220569)
(-0.0283925 -1.26275e-20 0.0188901)
(-0.00884312 0 0.0155214)
(0.0102276 0 0.0120588)
(0.0285358 -8.40881e-21 0.00857329)
(0.0458304 0 0.00507043)
(0.0620395 -5.3471e-21 0.0015284)
(0.0771359 7.80428e-21 -0.0020459)
(0.0909258 0 -0.00558488)
(0.102935 -2.14335e-21 -0.00896224)
(0.112454 0 -0.0120177)
(0.118689 -2.71608e-21 -0.014588)
(0.120962 -9.08065e-21 -0.0165345)
(0.118861 -1.20878e-20 -0.0177592)
(0.11232 -7.18044e-21 -0.0182086)
(0.101596 7.87377e-21 -0.0178657)
(0.0872012 3.27073e-20 -0.0167426)
(0.0698087 3.27307e-20 -0.0148757)
(0.0502201 0 -0.0123386)
(0.0293551 0 -0.00925376)
(0.00828989 -1.20839e-23 -0.00580962)
(-0.0117932 0 -0.00224458)
(-0.0296932 -1.171e-20 0.00117552)
(-0.04443 0 0.00421768)
(-0.0553861 -1.93096e-20 0.00670747)
(-0.0624761 0 0.00856871)
(-0.0660142 -1.52694e-20 0.00979043)
(-0.0666967 0 0.0104417)
(-0.0653031 1.00547e-20 0.0106128)
(-0.0627783 0 0.0104572)
(-0.0599336 0 0.0101207)
(-0.0577175 1.88674e-21 0.0098141)
(-0.0567825 0 0.00969275)
(-0.0578348 0 0.00994394)
(-0.0609256 0 0.0106037)
(-0.0660927 4.18863e-20 0.0117213)
(-0.0724991 9.62818e-20 0.0131383)
(-0.0795588 0 0.0147646)
(-0.0857661 0 0.0162838)
(-0.0904055 -5.1626e-20 0.0175654)
(-0.0918228 -4.77827e-20 0.0182402)
(-0.0898005 0 0.0182671)
(-0.0829504 0 0.0173107)
(-0.0720326 0 0.0155229)
(-0.0561642 0 0.0126559)
(-0.0374336 -2.39037e-20 0.00913564)
(-0.0154328 1.28988e-20 0.00480633)
(0.00638131 -7.48328e-21 0.000395262)
(0.0284243 0 -0.00423956)
(0.0462551 0 -0.00812581)
(0.0612545 0 -0.0115757)
(0.0686608 1.70387e-22 -0.0135058)
(0.0719349 -2.97921e-20 -0.014641)
(0.0663927 -4.30542e-20 -0.0138921)
(0.0582795 1.22587e-19 -0.0125736)
(0.0426501 6.20483e-23 -0.00954809)
(0.0285776 -7.4401e-20 -0.00675657)
(0.00972146 -6.27588e-20 -0.00278881)
(-0.00243016 0 -0.000141845)
(-0.0171625 0 0.0031948)
(-0.0208657 0 0.00422338)
(-0.027281 -8.12826e-20 0.00588445)
(-0.0204637 0 0.00465952)
(-0.0199024 0 0.00472343)
(-0.00589009 -1.86071e-19 0.00181051)
(-0.00432521 -2.06197e-19 0.00145907)
(0.0115755 0 -0.00198067)
(0.00836858 0 -0.00147248)
(0.0237897 0 -0.00478793)
(0.0133868 -5.34737e-20 -0.00284433)
(0.0290655 -1.01182e-21 -0.00610333)
(0.012792 2.06922e-19 -0.00276671)
(0.029404 -3.02363e-19 -0.00592285)
(0.0186535 5.77994e-19 -0.00315556)
(0.0323976 3.09339e-19 -0.00571124)
(0.0452696 1.82224e-19 -0.00783511)
(0.0663743 0 -0.0124296)
(0.0402119 0 -0.00841794)
(0.226807 0 -0.0436494)
(-0.158541 0 0.0285451)
(0.595459 -5.85294e-19 -0.117367)
(-0.188513 0 0.043198)
(-0.170531 0 0.0121041)
(1.68644 -2.95998e-18 -0.314743)
(-2.35017 -1.64443e-18 0.457004)
(2.98045 3.39532e-18 -0.60022)
(-0.606771 -5.17936e-18 0.151856)
(-2.61759 0 0.456661)
(5.01747 0 -0.965789)
(-2.44721 0 0.513985)
(0.333086 9.33955e-19 -0.0774644)
(-1.10956 -1.31108e-18 0.185025)
(5.72275 0 -1.09878)
(-3.54135 2.07224e-17 0.6985)
(-3.79429 -1.80947e-17 0.551615)
(15.0229 3.12535e-17 -2.8064)
(-20.4864 0 3.97687)
(15.364 0 -3.2497)
(20.7158 -2.48004e-17 -3.50811)
(-55.9939 0 10.8617)
(13.6278 -5.27069e-18 -3.69728)
(48.2539 -2.50858e-17 -9.19114)
(1.6152 0 0.00742879)
(0.397749 0 0.0488564)
(0.281377 0 0.11194)
(0.139462 -2.21142e-21 0.0839785)
(-0.0099374 0 0.0247095)
(-0.123 0 -0.0140396)
(-0.186744 -2.80639e-22 -0.0228979)
(-0.219456 -1.12618e-21 -0.0111439)
(-0.24311 0 0.00855073)
(-0.267916 -6.75724e-23 0.0274522)
(-0.289252 -5.20837e-21 0.0406503)
(-0.298358 1.14967e-20 0.0469939)
(-0.290155 6.34163e-21 0.048216)
(-0.266686 -7.44631e-23 0.0471818)
(-0.235049 7.18466e-21 0.046115)
(-0.202685 7.3313e-21 0.0458123)
(-0.173876 -7.20897e-21 0.0459039)
(-0.149072 1.39393e-20 0.0455975)
(-0.126425 1.30669e-20 0.0443368)
(-0.103875 0 0.0420519)
(-0.0804418 0 0.0390034)
(-0.0562823 -9.40897e-21 0.0354772)
(-0.03202 -8.02052e-21 0.0315973)
(-0.00813074 0 0.0273366)
(0.0152097 0 0.0226386)
(0.0378999 -7.39497e-21 0.0175244)
(0.0596182 0 0.0121218)
(0.0796849 4.13417e-21 0.00663303)
(0.0971313 2.73206e-22 0.00128226)
(0.110902 0 -0.00372574)
(0.120093 4.25284e-21 -0.00822984)
(0.124133 5.68488e-21 -0.0121126)
(0.122854 0 -0.0152847)
(0.116447 -7.35304e-21 -0.0176579)
(0.105359 -1.54574e-20 -0.019136)
(0.0901837 -7.27263e-23 -0.0196215)
(0.07164 0 -0.019059)
(0.0506055 0 -0.0174727)
(0.0282123 1.32314e-20 -0.0150046)
(0.00579858 0 -0.011888)
(-0.0151923 0 -0.0084154)
(-0.0335431 0 -0.00485059)
(-0.0484273 0 -0.00141674)
(-0.0596319 0 0.00174761)
(-0.0673321 0 0.00451846)
(-0.0721056 0 0.00683345)
(-0.0745238 -9.71164e-21 0.00861716)
(-0.0753833 6.49805e-21 0.00989965)
(-0.0753021 0 0.010715)
(-0.0752335 -1.78504e-21 0.0112582)
(-0.0757984 0 0.0116726)
(-0.0779109 0 0.0122246)
(-0.0816464 3.13533e-20 0.0129787)
(-0.0873152 0 0.0141077)
(-0.0940103 -4.54302e-20 0.0154762)
(-0.101419 4.89425e-20 0.0171303)
(-0.107808 0 0.0187302)
(-0.11277 4.87979e-20 0.0202779)
(-0.11426 0 0.0213098)
(-0.112464 0 0.0219092)
(-0.105403 0 0.0215556)
(-0.0944054 5.07156e-20 0.0205365)
(-0.0777654 3.65095e-20 0.0183272)
(-0.0584201 -1.20527e-22 0.0155342)
(-0.0348584 -2.44551e-20 0.0116281)
(-0.0117906 -6.04247e-23 0.00760517)
(0.0126621 0 0.00285513)
(0.0322673 0 -0.00122626)
(0.0503586 -2.95818e-21 -0.00550648)
(0.0597088 7.65454e-23 -0.008251)
(0.0664104 0 -0.0108419)
(0.0624705 0 -0.0112584)
(0.057695 -5.77437e-20 -0.0116471)
(0.0427984 2.39408e-23 -0.00965078)
(0.0316769 -3.98951e-23 -0.00834666)
(0.0123728 0 -0.00481982)
(0.00283659 0 -0.00314486)
(-0.0134702 -4.17092e-20 0.000517794)
(-0.0144121 -1.76792e-21 0.00104063)
(-0.0231664 0 0.00363857)
(-0.0127739 0 0.0020336)
(-0.0151689 0 0.00332542)
(0.00358184 0 -0.000262748)
(0.00117531 0 0.000652006)
(0.0233567 0 -0.00409849)
(0.0148201 0 -0.00234401)
(0.0391617 0 -0.00780385)
(0.0219293 5.22268e-20 -0.00452731)
(0.0503024 -1.40982e-19 -0.010832)
(0.0257718 -1.9448e-19 -0.00582234)
(0.0577502 2.84125e-19 -0.0127612)
(0.0409333 -5.42718e-19 -0.00831208)
(0.0660507 -2.9056e-19 -0.0134659)
(0.0833368 -8.57573e-20 -0.0155813)
(0.113711 0 -0.0205382)
(0.0696627 0 -0.0151752)
(0.360759 0 -0.0657799)
(-0.252879 0 0.0433389)
(0.963211 5.49102e-19 -0.190882)
(-0.343859 0 0.087286)
(-0.162046 0 -0.00874058)
(2.63719 2.77536e-18 -0.466271)
(-3.70842 0 0.703689)
(4.9345 -1.58801e-18 -1.01316)
(-1.30729 4.8537e-18 0.476782)
(-3.74058 0 0.565536)
(8.04114 0 -1.53624)
(-4.3267 0 0.959238)
(0.889522 8.65918e-19 -0.221112)
(-1.53759 0 0.197437)
(8.84323 2.96225e-18 -1.66084)
(-5.92599 -1.41951e-20 1.40843)
(-5.02106 1.69347e-17 0.567278)
(23.503 -2.9294e-17 -4.19022)
(-32.4238 0 6.24859)
(26.1085 -1.12809e-17 -5.9892)
(30.3438 2.31977e-17 -4.26847)
(-88.6204 -1.99474e-17 17.0787)
(27.6725 0 -6.08076)
(76.5957 2.3456e-17 -14.3011)
(-0.00501773 0 0.63791)
(0.401894 0 0.0717596)
(0.352933 0 0.117215)
(0.281529 2.09004e-21 0.100045)
(0.192842 0 0.0411062)
(0.101819 -4.01835e-22 -0.0124589)
(0.0286734 -6.64967e-22 -0.0362207)
(-0.0297592 0 -0.0316152)
(-0.0836624 3.32186e-21 -0.0111467)
(-0.137353 -4.20652e-21 0.0126052)
(-0.186059 -4.77261e-21 0.0305061)
(-0.220962 -5.39488e-21 0.0393586)
(-0.235938 5.83758e-21 0.0414558)
(-0.231822 -6.39098e-21 0.0413715)
(-0.215484 1.33152e-20 0.0425007)
(-0.195242 0 0.0456152)
(-0.176578 1.35763e-20 0.0495319)
(-0.160698 0 0.0526015)
(-0.145829 0 0.0538602)
(-0.129629 0 0.053324)
(-0.110934 -1.00885e-20 0.0515581)
(-0.0900132 4.5105e-23 0.0490709)
(-0.0677804 3.15827e-23 0.0460127)
(-0.0449539 -6.215e-21 0.0422644)
(-0.0218227 0 0.0376925)
(0.00146143 0 0.0323251)
(0.0244976 0 0.0263626)
(0.0464648 -4.03691e-21 0.0200921)
(0.0662142 -7.47652e-23 0.0137949)
(0.0825141 0 0.00769259)
(0.0943254 0 0.00193261)
(0.100995 0 -0.00338772)
(0.102323 0 -0.00817802)
(0.0984856 1.38227e-20 -0.0123064)
(0.0899016 0 -0.0155894)
(0.0770934 -1.4568e-20 -0.0178149)
(0.060686 0 -0.0188201)
(0.041461 0 -0.0185528)
(0.0205048 -1.24341e-20 -0.0171234)
(-0.000842512 0 -0.0147567)
(-0.0210906 0 -0.0117457)
(-0.0390029 9.56433e-21 -0.00833929)
(-0.0537505 -1.73772e-20 -0.00475606)
(-0.0651699 0 -0.00114784)
(-0.0734276 -1.38278e-20 0.0022878)
(-0.0790729 0 0.00539027)
(-0.0825216 1.84183e-20 0.00795099)
(-0.0844515 8.33729e-23 0.00991163)
(-0.0852854 0 0.0112287)
(-0.0859506 0 0.0121079)
(-0.086962 5.89711e-21 0.01269)
(-0.0893485 2.07782e-20 0.0133133)
(-0.0931009 -5.89673e-20 0.0140475)
(-0.0987178 0 0.0151581)
(-0.105149 -4.25308e-20 0.0164958)
(-0.112332 -4.61998e-20 0.0182081)
(-0.118299 -4.72819e-20 0.0198993)
(-0.122997 -4.59552e-20 0.0216794)
(-0.124026 0 0.0229693)
(-0.122061 0 0.023967)
(-0.114575 -6.22025e-20 0.0239627)
(-0.103558 -9.57953e-20 0.0233904)
(-0.086501 -3.44347e-20 0.0214657)
(-0.0672549 -1.30211e-22 0.0190084)
(-0.0431735 1.15744e-20 0.0151518)
(-0.0202417 3.4164e-21 0.0112114)
(0.00498429 0 0.00615171)
(0.0244997 0 0.00184134)
(0.043758 2.78774e-21 -0.00311818)
(0.0530999 2.07755e-20 -0.00631889)
(0.0614509 0 -0.00981862)
(0.0575102 3.7945e-20 -0.0106865)
(0.0548415 5.42644e-20 -0.0119679)
(0.0397389 5.97155e-20 -0.0101413)
(0.0310823 1.32135e-19 -0.00951137)
(0.0111079 0 -0.00571183)
(0.00435488 0 -0.00447353)
(-0.0132594 3.92492e-20 -0.000141235)
(-0.0109437 2.9139e-21 -1.15345e-05)
(-0.0216716 7.04938e-20 0.00345461)
(-0.00726734 0 0.00122363)
(-0.012481 0 0.00342252)
(0.0111959 0 -0.0012201)
(0.00469356 0 0.000628411)
(0.0331995 0 -0.0057261)
(0.0190877 0 -0.00289922)
(0.0524128 8.97153e-20 -0.0106167)
(0.0280178 7.95532e-22 -0.00592937)
(0.0693107 1.3088e-19 -0.0151584)
(0.0359284 0 -0.00821331)
(0.0840153 2.65818e-19 -0.0187683)
(0.0598984 2.54635e-19 -0.0121229)
(0.0980056 0 -0.0202733)
(0.117929 -8.07777e-20 -0.0222121)
(0.157654 -5.0136e-19 -0.02779)
(0.0989559 0 -0.0231691)
(0.482586 0 -0.0847979)
(-0.335815 0 0.0526454)
(1.30741 5.17424e-19 -0.259807)
(-0.511662 0 0.137497)
(-0.0868456 0 -0.122416)
(3.44671 2.60358e-18 -0.576978)
(-4.8988 1.44931e-18 0.914251)
(6.82701 0 -1.42749)
(-2.2532 0 0.569427)
(-4.40004 0 0.550277)
(10.7528 0 -2.05098)
(-6.30342 0 1.45108)
(1.68976 -6.21992e-21 -0.429136)
(-1.84053 0 0.170636)
(11.4892 -2.77198e-18 -2.13128)
(-8.31227 -9.06037e-18 1.78326)
(-5.41186 0 0.233775)
(30.8165 -2.23636e-20 -5.2762)
(-42.9739 0 8.28117)
(36.8842 -2.16425e-20 -8.73262)
(37.1377 0 -4.05799)
(-117.04 1.86502e-17 22.5687)
(43.3635 0 -13.0235)
(101.629 2.20209e-17 -18.6213)
(-3.7514 0 2.54437)
(0.397463 0 0.0605387)
(0.371286 0 0.0939231)
(0.338208 0 0.0877024)
(0.301483 0 0.0425758)
(0.25121 3.79015e-22 -0.00489895)
(0.197308 -1.17539e-22 -0.0322177)
(0.143156 0 -0.0348334)
(0.0863009 -3.13576e-21 -0.018157)
(0.026226 0 0.00605204)
(-0.032497 8.9381e-21 0.0254279)
(-0.0821254 0 0.0339329)
(-0.115584 -5.51124e-21 0.0337518)
(-0.130739 0 0.0314663)
(-0.131726 -1.25718e-20 0.0323353)
(-0.125998 6.35121e-21 0.0374519)
(-0.119802 -1.26861e-20 0.0446551)
(-0.115477 1.21584e-20 0.051033)
(-0.111744 1.14261e-20 0.0548822)
(-0.10596 0 0.0561955)
(-0.0964218 9.52628e-21 0.0559059)
(-0.0831851 8.36102e-21 0.05483)
(-0.0673515 1.42097e-20 0.0531513)
(-0.0499349 5.86862e-21 0.050596)
(-0.0313818 0 0.0468876)
(-0.0118626 0 0.0420319)
(0.00822146 0 0.0363054)
(0.0279899 1.9334e-21 0.0300886)
(0.0461787 -1.73413e-22 0.0237146)
(0.0614242 0 0.0174006)
(0.0725767 0 0.0112486)
(0.0789126 4.816e-21 0.00530293)
(0.0802055 0 -0.000373565)
(0.0766264 -1.00205e-22 -0.0056256)
(0.0685864 -1.33923e-20 -0.0101961)
(0.0565681 1.34745e-20 -0.0137691)
(0.0411275 0 -0.0160856)
(0.0229582 0 -0.0170272)
(0.00308433 1.17356e-20 -0.0166769)
(-0.0171914 0 -0.015241)
(-0.0363796 0 -0.0129855)
(-0.0532728 -9.0255e-21 -0.0101024)
(-0.0670798 1.63972e-20 -0.00676242)
(-0.0777243 0 -0.00309466)
(-0.0853995 1.30463e-20 0.000650275)
(-0.0906736 0 0.00422516)
(-0.0938578 -8.71941e-21 0.00729256)
(-0.0955773 -5.86913e-21 0.00971252)
(-0.0961175 0 0.0113654)
(-0.0964356 1.28283e-21 0.0124678)
(-0.0969635 -5.56131e-21 0.0131431)
(-0.0988612 -3.89607e-20 0.0137847)
(-0.102017 2.76849e-20 0.01444)
(-0.10711 -3.44275e-20 0.0154527)
(-0.112906 2.06563e-22 0.0166415)
(-0.11958 0 0.0182625)
(-0.12488 4.4565e-20 0.0198649)
(-0.129105 4.33102e-20 0.0216956)
(-0.129451 -4.01243e-20 0.0230692)
(-0.127092 3.51607e-20 0.0243357)
(-0.118918 5.86037e-20 0.0245992)
(-0.10762 4.5176e-20 0.0244764)
(-0.0898555 -3.26669e-20 0.0229104)
(-0.0704636 2.02805e-20 0.0209646)
(-0.0456266 0 0.0173985)
(-0.0227028 0 0.0138694)
(0.00336994 3.7457e-23 0.00885274)
(0.0226988 0 0.00470765)
(0.0429456 0 -0.000585843)
(0.0518907 -9.76496e-21 -0.003921)
(0.0614313 0 -0.00813546)
(0.056819 -3.57005e-20 -0.00933164)
(0.0555756 -1.02031e-19 -0.0115569)
(0.0394166 0 -0.010015)
(0.0324643 -6.21301e-20 -0.0103377)
(0.0109488 0 -0.00653396)
(0.00630451 0 -0.00610539)
(-0.0133652 -3.74083e-20 -0.00135257)
(-0.00827032 -1.17532e-21 -0.0019025)
(-0.0215464 -3.47554e-22 0.00237964)
(-0.00340727 0 -0.000532929)
(-0.0118676 0 0.00280536)
(0.0166431 0 -0.00270849)
(0.00575509 1.71297e-19 0.000493951)
(0.0406709 -1.30354e-19 -0.00721788)
(0.0207709 0 -0.00293883)
(0.0632629 -1.68996e-19 -0.0128152)
(0.0313821 -2.41451e-20 -0.00650064)
(0.0858149 -2.44934e-19 -0.0188397)
(0.0428731 -1.6956e-19 -0.00988015)
(0.107657 -4.98215e-19 -0.0245159)
(0.0747272 0 -0.0154364)
(0.127321 0 -0.0276106)
(0.147681 7.57422e-20 -0.0289386)
(0.197206 4.70033e-19 -0.0350161)
(0.126744 4.11155e-19 -0.0330882)
(0.591215 0 -0.0991891)
(-0.407589 0 0.0562041)
(1.62413 -4.84795e-19 -0.322089)
(-0.687581 1.22656e-18 0.197898)
(0.0764667 0 -0.143896)
(4.11323 -2.43832e-18 -0.638117)
(-5.91814 -1.35712e-18 1.07551)
(8.60756 0 -1.82781)
(-3.27397 0 1.06955)
(-4.61949 0 0.3923)
(13.1 0 -2.47397)
(-8.28419 0 1.97366)
(2.69852 -7.52544e-19 -0.706981)
(-2.10792 0 0.112052)
(13.6859 0 -2.48401)
(-10.4457 0 2.77739)
(-5.07226 -1.48844e-17 -0.356159)
(36.986 1.2842e-17 -5.99146)
(-52.0575 0 9.96037)
(47.2085 9.88291e-18 -11.7041)
(41.4016 0 -2.90565)
(-140.869 1.75194e-17 26.9591)
(59.9644 0 -20.6669)
(123.186 -2.05793e-17 -22.0741)
(-9.91441 0 4.27805)
(0.393695 -1.86575e-21 0.0477909)
(0.371014 -1.39279e-21 0.0668931)
(0.345679 9.41994e-22 0.0639497)
(0.333448 4.94786e-22 0.0340378)
(0.312243 0 -0.000465154)
(0.279538 4.39673e-22 -0.0231418)
(0.239727 0 -0.0282609)
(0.195915 -2.9724e-21 -0.0161126)
(0.149422 -3.59653e-21 0.00658504)
(0.102072 -8.2906e-21 0.0270226)
(0.057254 4.58789e-21 0.03566)
(0.0197923 -5.04618e-21 0.0327938)
(-0.0061761 0 0.0263933)
(-0.020435 0 0.0243683)
(-0.0270887 -5.98788e-21 0.0292324)
(-0.0315898 8.93853e-23 0.0383607)
(-0.0372557 -1.65352e-22 0.0474041)
(-0.0438378 -1.49844e-22 0.0534604)
(-0.0487072 0 0.0561924)
(-0.0493643 0 0.0569002)
(-0.0451675 0 0.0568667)
(-0.0371408 -1.32609e-20 0.0564094)
(-0.0266216 -5.43102e-21 0.0550705)
(-0.0143164 0 0.0523436)
(-0.000420706 0 0.0481579)
(0.0147508 -3.98887e-21 0.04286)
(0.030363 0 0.036937)
(0.045112 0 0.0307789)
(0.0575358 0 0.0245881)
(0.0663724 0 0.0184019)
(0.0708036 -1.12044e-22 0.0121896)
(0.070548 0 0.00596825)
(0.0657584 -1.15884e-22 -9.53752e-05)
(0.0568523 1.26243e-20 -0.00567757)
(0.0443051 -1.98282e-22 -0.0103623)
(0.0286375 0 -0.0137986)
(0.0104663 0 -0.015808)
(-0.00925916 0 -0.0164516)
(-0.0293012 0 -0.0159166)
(-0.0481878 0 -0.0144334)
(-0.0647387 0 -0.0121197)
(-0.0781772 0 -0.00908102)
(-0.0884962 -1.38883e-20 -0.00540993)
(-0.0959049 -1.22982e-20 -0.00140718)
(-0.101003 0 0.00259434)
(-0.104012 -8.2861e-21 0.00612654)
(-0.105534 0 0.00897428)
(-0.105731 0 0.0109453)
(-0.105622 -2.33854e-21 0.0122745)
(-0.105557 0 0.0130625)
(-0.106852 1.82393e-20 0.013755)
(-0.109286 0 0.0143601)
(-0.113741 6.46076e-20 0.0152967)
(-0.118778 2.19101e-22 0.0163371)
(-0.124843 0 0.0178542)
(-0.12937 0 0.0193338)
(-0.13304 0 0.0211788)
(-0.132606 7.5439e-20 0.022589)
(-0.129785 -6.61308e-20 0.0240899)
(-0.120825 -5.51484e-20 0.0245845)
(-0.109186 -4.26166e-20 0.0248991)
(-0.0906222 6.15437e-20 0.0236789)
(-0.0710468 1.92969e-20 0.0222612)
(-0.0453784 0 0.0189954)
(-0.0224671 0 0.0159193)
(0.00449016 9.81923e-23 0.0109707)
(0.0235596 0 0.00704968)
(0.0447726 0 0.00145166)
(0.0531539 -9.26872e-21 -0.00195144)
(0.063783 0 -0.00685716)
(0.0582223 0 -0.00831465)
(0.0582262 9.57568e-20 -0.0114743)
(0.0406352 -5.26112e-20 -0.0101534)
(0.0351633 0 -0.0114361)
(0.0116677 0 -0.0075626)
(0.00890823 0 -0.00796111)
(-0.0132847 3.51321e-20 -0.00270699)
(-0.00560815 0 -0.00394901)
(-0.0219312 -1.23485e-19 0.00126617)
(-0.000232345 9.3669e-20 -0.00231603)
(-0.0124689 0 0.00232757)
(0.020763 0 -0.00402643)
(0.00499354 -1.60742e-19 0.000714309)
(0.0463355 3.94382e-24 -0.0083483)
(0.0201959 -1.0744e-19 -0.00245875)
(0.0719715 7.95221e-20 -0.0145428)
(0.0320602 -2.36933e-20 -0.00645653)
(0.0998192 1.1451e-19 -0.022042)
(0.0464497 1.58979e-19 -0.010825)
(0.128521 5.23685e-22 -0.0297506)
(0.0850573 0 -0.0178269)
(0.153752 -2.39762e-19 -0.0346299)
(0.171882 0 -0.0347511)
(0.231966 0 -0.0413916)
(0.15202 -3.85175e-19 -0.0438083)
(0.685329 0 -0.109402)
(-0.468718 0 0.0546379)
(1.90909 0 -0.377363)
(-0.858862 -1.14845e-18 0.260638)
(0.286955 0 -0.204997)
(4.62616 -2.28242e-18 -0.651077)
(-6.7649 0 1.18945)
(10.2502 0 -2.2057)
(-4.35666 0 1.73478)
(-4.46293 0 0.101565)
(15.0415 0 -2.79074)
(-10.1673 3.19053e-18 2.50443)
(3.86303 -6.8964e-19 -1.04489)
(-2.41196 1.00745e-18 0.0459982)
(15.5138 0 -2.74424)
(-12.3975 0 3.69667)
(-4.20135 2.78419e-17 -1.18175)
(42.055 0 -6.36443)
(-59.6007 -3.03616e-18 11.3124)
(56.6953 0 -14.728)
(43.4981 1.91075e-17 -0.845727)
(-159.337 -1.63717e-17 30.2141)
(77.2613 0 -24.2373)
(141.085 -1.93543e-17 -24.7558)
(-17.9272 0 8.03423)
(0.387332 1.75703e-21 0.0347586)
(0.364622 2.38612e-21 0.0434992)
(0.336062 -8.87279e-22 0.0419185)
(0.329976 -2.28516e-22 0.0246883)
(0.321776 -1.9949e-22 0.00221848)
(0.301085 0 -0.0151453)
(0.271744 0 -0.0210037)
(0.240985 2.79915e-21 -0.0126181)
(0.212493 6.73601e-21 0.00751806)
(0.186058 5.27478e-23 0.0293329)
(0.159958 -4.31994e-21 0.0405774)
(0.133699 4.75138e-21 0.0378611)
(0.109652 -5.06085e-21 0.0284487)
(0.0907382 0 0.0224864)
(0.0772362 0 0.0250171)
(0.0664382 5.51314e-21 0.0342624)
(0.0550748 -2.10836e-20 0.0449689)
(0.0420582 -1.98275e-20 0.0527463)
(0.0292587 0 0.0564056)
(0.0197724 0 0.0574069)
(0.0154072 0 0.0576658)
(0.0157576 1.06062e-22 0.0578682)
(0.0193354 1.01437e-20 0.0574311)
(0.0250808 -3.95145e-21 0.0555257)
(0.0327098 -5.77449e-21 0.0519066)
(0.0420678 7.47605e-21 0.0469614)
(0.0525033 -1.78224e-21 0.0413)
(0.0627904 -5.6359e-25 0.0353863)
(0.0714326 1.5875e-21 0.02941)
(0.0770648 0 0.0233319)
(0.0787434 -4.16925e-21 0.0170287)
(0.0760878 4.878e-21 0.0104533)
(0.0692023 -5.55797e-21 0.00376777)
(0.0585154 -1.14261e-20 -0.00264827)
(0.0445311 -2.33067e-20 -0.0082836)
(0.0277781 0 -0.0126975)
(0.0088145 0 -0.0156532)
(-0.0115019 -1.00829e-20 -0.0171951)
(-0.0320375 0 -0.0174965)
(-0.0513591 8.59597e-21 -0.0167549)
(-0.0683066 7.87934e-21 -0.0150088)
(-0.0820789 0 -0.0122904)
(-0.0927099 2.60809e-20 -0.00864558)
(-0.10041 1.15734e-20 -0.00442133)
(-0.105831 0 -3.1449e-05)
(-0.109115 7.7969e-21 0.00392633)
(-0.110861 5.32799e-21 0.00717219)
(-0.1111 0 0.00944678)
(-0.110914 2.06035e-21 0.0110164)
(-0.110554 -4.6626e-21 0.0119555)
(-0.111509 -1.67633e-20 0.0127641)
(-0.113429 0 0.0133934)
(-0.117431 -2.32169e-22 0.0143355)
(-0.121849 6.99957e-20 0.0152958)
(-0.127438 0 0.0167701)
(-0.131285 0 0.0181628)
(-0.13451 -3.79602e-20 0.0200505)
(-0.133361 -3.54205e-20 0.0215)
(-0.130177 6.20433e-20 0.0232407)
(-0.120486 5.18408e-20 0.0239515)
(-0.108611 4.00571e-20 0.0247067)
(-0.0892953 -2.89567e-20 0.0238212)
(-0.0696539 -3.63563e-20 0.022954)
(-0.0431985 0 0.019998)
(-0.020435 0 0.0174312)
(0.00736731 -3.59992e-22 0.0125889)
(0.0260191 0 0.00898679)
(0.0481612 0 0.00314728)
(0.0557845 8.70532e-21 -0.000198398)
(0.0674576 0 -0.00572493)
(0.0607012 -3.14355e-20 -0.00730902)
(0.061894 -7.36293e-23 -0.0113551)
(0.0425617 4.93919e-20 -0.0101398)
(0.0385023 0 -0.0123868)
(0.0126544 0 -0.00836557)
(0.0117119 0 -0.00965831)
(-0.0134438 3.30296e-20 -0.00385258)
(-0.00325774 0 -0.00589559)
(-0.0231598 5.78023e-20 0.000316811)
(0.00201228 -1.7553e-19 -0.00404088)
(-0.0146189 0 0.00203017)
(0.0232907 0 -0.00524322)
(0.00201163 0 0.00121486)
(0.0498478 5.92993e-23 -0.0092689)
(0.0168402 1.00722e-19 -0.0015613)
(0.0780452 7.5204e-20 -0.0159359)
(0.0293514 2.22064e-20 -0.0058459)
(0.110648 1.06208e-19 -0.0248013)
(0.0457802 0 -0.0110028)
(0.145738 2.18074e-19 -0.0345305)
(0.0898046 0 -0.0192815)
(0.17632 2.24576e-19 -0.0413642)
(0.189153 0 -0.039526)
(0.260988 0 -0.0469183)
(0.173184 0 -0.05535)
(0.763701 -3.03767e-19 -0.114973)
(-0.520318 2.15631e-19 0.0473793)
(2.15907 0 -0.42479)
(-1.02957 1.07326e-18 0.327936)
(0.501882 1.62483e-18 -0.434971)
(4.99899 2.13561e-18 -0.616164)
(-7.44131 1.18936e-18 1.25275)
(11.7009 0 -2.54951)
(-5.53767 0 2.07238)
(-3.98369 0 -0.310658)
(16.5534 0 -2.99243)
(-11.8501 -2.98344e-18 3.01782)
(5.11346 8.14395e-21 -1.43056)
(-2.80281 -1.88427e-18 -0.0145472)
(16.9929 0 -2.91664)
(-14.2406 0 3.96438)
(-2.93703 -1.30164e-17 -2.21262)
(46.0998 0 -6.39878)
(-65.5877 2.8373e-18 12.3026)
(65.0266 0 -17.6872)
(43.7948 -3.57093e-17 2.04434)
(-172.309 0 32.1754)
(92.242 0 -32.3204)
(155.436 1.80799e-17 -26.2595)
(-27.1201 0 13.0877)
(0.377997 0 0.0212913)
(0.356577 -1.01065e-21 0.0255786)
(0.324822 0 0.0258007)
(0.317588 -2.23595e-22 0.017021)
(0.312531 5.24752e-22 0.0029964)
(0.296347 0 -0.0100746)
(0.272431 -1.04814e-21 -0.0162896)
(0.249691 0 -0.0109409)
(0.233742 -2.00288e-23 0.00613792)
(0.224872 7.15367e-21 0.0283963)
(0.218686 0 0.0434292)
(0.210106 0 0.0441725)
(0.197259 4.76009e-21 0.035023)
(0.182397 0 0.0264484)
(0.168673 0 0.0258763)
(0.156892 0 0.0336225)
(0.145224 9.82436e-21 0.044801)
(0.131586 9.24036e-21 0.0538593)
(0.116203 8.30581e-21 0.058253)
(0.101804 0 0.0590687)
(0.0912942 0 0.0588321)
(0.0854915 5.73579e-21 0.0589272)
(0.0832422 -4.73058e-21 0.0588793)
(0.0831799 3.71647e-21 0.0575058)
(0.0848161 5.43108e-21 0.05425)
(0.0881633 -6.93884e-21 0.0494676)
(0.092898 1.15563e-23 0.0438992)
(0.0980468 5.47054e-25 0.0381151)
(0.102209 -1.493e-21 0.032311)
(0.103982 0 0.0263713)
(0.102295 0 0.0200669)
(0.0966256 -4.58742e-21 0.0132646)
(0.0869834 0 0.00609847)
(0.0737924 1.0745e-20 -0.00101589)
(0.0576139 1.08481e-20 -0.00748115)
(0.0390417 -1.03629e-20 -0.0127667)
(0.018613 0 -0.0165726)
(-0.00290852 9.48073e-21 -0.0189276)
(-0.0245362 8.63966e-21 -0.0199978)
(-0.044909 -1.12525e-22 -0.0199598)
(-0.0628886 -1.47306e-20 -0.0187768)
(-0.0776074 0 -0.0164055)
(-0.0891051 -1.2231e-20 -0.0128324)
(-0.0975794 0 -0.00844376)
(-0.103769 0 -0.00372545)
(-0.107763 0 0.000596156)
(-0.110186 1.41402e-23 0.00418731)
(-0.110911 0 0.00672583)
(-0.111085 -9.37022e-22 0.00852551)
(-0.110819 8.68545e-21 0.00963305)
(-0.111797 1.57527e-20 0.0106108)
(-0.113507 0 0.0113346)
(-0.117341 -2.82296e-20 0.0123726)
(-0.121369 -6.52983e-20 0.0133382)
(-0.126717 0 0.0148597)
(-0.130064 0 0.0162327)
(-0.133043 3.5658e-20 0.0182285)
(-0.13132 3.30024e-20 0.0197517)
(-0.127953 -2.90984e-20 0.0217693)
(-0.117642 -4.84741e-20 0.0227017)
(-0.105711 0 0.0239182)
(-0.0857383 0 0.0233584)
(-0.0662173 -6.6383e-23 0.0230659)
(-0.0390537 -9.52474e-21 0.0204153)
(-0.016639 0 0.0184051)
(0.0119467 2.20263e-22 0.0136837)
(0.0299591 0 0.0104847)
(0.0529858 0 0.00444307)
(0.0595955 0 0.0012786)
(0.072278 0 -0.00481228)
(0.064019 3.52442e-24 -0.00637123)
(0.0663715 -8.49523e-23 -0.0112538)
(0.0449262 -4.61451e-20 -0.00998914)
(0.0422567 0 -0.0131885)
(0.0136096 -4.32492e-20 -0.0088841)
(0.01447 0 -0.0111175)
(-0.0141881 -3.09719e-20 -0.00464669)
(-0.00151009 -6.24157e-22 -0.00758927)
(-0.0256567 5.39017e-20 -0.000260856)
(0.00296284 8.21768e-20 -0.00551539)
(-0.0188414 0 0.00213962)
(0.0237794 -1.26432e-19 -0.00618121)
(-0.0038255 0 0.00219157)
(0.0506592 1.0739e-19 -0.00985163)
(0.00992844 9.42496e-20 -9.31084e-05)
(0.080794 -7.04513e-20 -0.016902)
(0.0223138 0 -0.00452775)
(0.117454 -1.9851e-19 -0.0270216)
(0.0397807 0 -0.0102455)
(0.158324 2.03234e-19 -0.0387327)
(0.0877626 0 -0.0195271)
(0.193983 2.09734e-19 -0.0476022)
(0.198067 0 -0.0428467)
(0.283328 3.87016e-19 -0.0513804)
(0.188638 3.34272e-19 -0.0671476)
(0.825141 2.84265e-19 -0.115939)
(-0.5635 -2.01766e-19 0.0348956)
(2.3716 0 -0.463764)
(-1.18923 -2.00599e-18 0.396477)
(0.757809 -3.03933e-18 -0.552358)
(5.23326 0 -0.535197)
(-7.95118 -1.11233e-18 1.26552)
(12.931 0 -2.85001)
(-6.66064 0 2.58326)
(-3.26723 5.09836e-18 -0.829659)
(17.632 0 -3.07325)
(-13.2384 0 3.49135)
(6.36944 5.95126e-19 -1.84722)
(-3.30006 1.76236e-18 -0.061624)
(18.2156 -2.07729e-18 -3.01641)
(-15.7213 0 4.796)
(-1.48245 0 -3.41299)
(49.2131 0 -6.11462)
(-70.0608 0 12.9474)
(71.9828 -8.00973e-18 -20.5877)
(42.6539 1.66808e-17 5.65221)
(-179.729 0 32.8942)
(105.085 0 -38.5254)
(165.831 0 -26.6251)
(-36.9038 0 16.2296)
(0.367922 9.11785e-22 0.00934421)
(0.348783 0 0.0124298)
(0.315384 1.92043e-22 0.0140917)
(0.305481 0 0.0099945)
(0.300177 -3.16871e-22 0.00134334)
(0.285714 0 -0.00809307)