/*--------------------------------*- C++ -*----------------------------------*\
| =========                 |                                                 |
| \\      /  F ield         | OpenFOAM: The Open Source CFD Toolbox           |
|  \\    /   O peration     | Version:  2412                                  |
|   \\  /    A nd           | Website:  www.openfoam.com                      |
|    \\/     M anipulation  |                                                 |
\*---------------------------------------------------------------------------*/
FoamFile
{
    version     2.0;
    format      ascii;
    arch        "LSB;label=32;scalar=64";
    class       volVectorField;
    location    "1.08";
    object      ddt0(U);
}
// * * * * * * * * * * * * * * * * * * * * * * * * * * * * * * * * * * * * * //

dimensions      [0 1 -2 0 0 0 0];

internalField   nonuniform List<vector> 
12600
(
(0.138481 -1.02364e-21 -0.0835729)
(0.10763 -9.77197e-22 -0.0211522)
(0.175845 -5.91211e-23 -0.00214248)
(0.182437 0 -0.00517213)
(0.162908 9.40445e-22 -0.00717129)
(0.146935 1.25853e-21 -0.0065779)
(0.134941 0 -0.00565747)
(0.122976 0 -0.00867479)
(0.111703 -6.7342e-21 -0.0109705)
(0.101685 0 -0.0123551)
(0.0924004 3.38731e-21 -0.0131585)
(0.0836249 3.27218e-21 -0.0135411)
(0.0753221 -3.09705e-21 -0.0135787)
(0.0673406 0 -0.0132842)
(0.0593251 -2.59736e-21 -0.0126531)
(0.0509149 0 -0.0117175)
(0.0419915 7.90311e-21 -0.0105595)
(0.0327324 0 -0.00927579)
(0.0234673 -2.52896e-21 -0.00793601)
(0.0144965 -1.77054e-21 -0.00656655)
(0.0060031 1.01076e-21 -0.0051644)
(-0.00191962 -1.65067e-23 -0.00372347)
(-0.00918493 0 -0.00225577)
(-0.0156483 2.11021e-21 -0.000798241)
(-0.0211076 0 0.000595304)
(-0.0253581 0 0.00186951)
(-0.0282585 4.62678e-21 0.00298048)
(-0.0297598 0 0.00389844)
(-0.0298888 2.6436e-23 0.00460294)
(-0.0287048 -4.6301e-21 0.0050757)
(-0.0262767 -4.08343e-21 0.00530106)
(-0.0226817 -3.28634e-21 0.00526937)
(-0.0180341 2.26783e-21 0.00498458)
(-0.0124861 2.1239e-21 0.00446206)
(-0.00623497 -5.85326e-22 0.00372853)
(0.000513389 3.54783e-21 0.00281174)
(0.00752011 0 0.00174644)
(0.0145385 -9.59358e-21 0.000567635)
(0.0212445 0 -0.000672314)
(0.0273029 1.52777e-20 -0.00191793)
(0.0322974 0 -0.00309082)
(0.0359009 -7.22882e-23 -0.00412471)
(0.0377837 0 -0.00493959)
(0.0378652 -3.42417e-23 -0.0054965)
(0.0360821 4.41048e-20 -0.00574598)
(0.0327194 -4.32403e-20 -0.00570586)
(0.0279794 4.12667e-20 -0.00537158)
(0.0224578 0 -0.00482692)
(0.0164376 0 -0.0040961)
(0.0106197 3.07709e-20 -0.00330552)
(0.00509318 5.30444e-20 -0.00246398)
(0.00049944 4.45158e-20 -0.00170911)
(-0.00343102 4.62619e-23 -0.00099469)
(-0.00612848 2.8481e-20 -0.000454933)
(-0.00824356 0 2.81516e-05)
(-0.00914015 -1.47569e-20 0.000306743)
(-0.00982941 -8.97244e-21 0.000570994)
(-0.00950731 -3.95607e-21 0.000639823)
(-0.00958913 0 0.000781139)
(-0.00899373 0 0.000760103)
(-0.00957186 0 0.000933571)
(-0.00979676 -2.20618e-20 0.000991771)
(-0.0118945 0 0.00138147)
(-0.0135959 0 0.0016706)
(-0.0173488 8.45135e-20 0.00236671)
(-0.0199079 0 0.0028614)
(-0.0239647 0 0.00370915)
(-0.0254827 0 0.0041416)
(-0.02766 -1.26263e-19 0.00479123)
(-0.0261903 1.26507e-19 0.00481402)
(-0.0248996 1.20888e-19 0.00492549)
(-0.0200315 1.09469e-23 0.00434856)
(-0.0155893 -9.09698e-20 0.00379508)
(-0.00973689 0 0.00285318)
(-0.00463571 4.8504e-20 0.00191573)
(-0.00229127 0 0.00137552)
(0.00144382 0 0.000466374)
(-0.00263208 0 0.00100229)
(0.000692672 -1.39465e-23 9.98984e-05)
(-0.00828129 5.17501e-21 0.00160675)
(-0.00465669 1.0492e-20 0.000741346)
(-0.0110626 -1.82832e-20 0.00188792)
(-0.0139729 -2.47233e-20 0.00240967)
(-0.00115375 0 -7.63301e-06)
(-0.0329309 0 0.00617664)
(0.0329506 3.98618e-20 -0.00632966)
(-0.0732697 -1.12452e-19 0.0142564)
(0.0759103 -5.67835e-20 -0.0138386)
(0.0104758 -3.25722e-20 -0.00107473)
(-0.119845 0 0.0231016)
(0.296518 2.87012e-19 -0.0554255)
(-0.320783 -1.72881e-19 0.0633372)
(0.820073 2.48119e-19 -0.155917)
(-1.17695 5.992e-19 0.223079)
(0.737153 0 -0.167737)
(1.28364 0 -0.234011)
(-3.05947 0 0.566364)
(2.99137 0 -0.580901)
(-3.66207 0 0.707872)
(3.47705 0 -0.680071)
(-0.69629 -1.43699e-18 0.125561)
(-4.27382 1.97657e-19 0.717228)
(8.06362 6.43503e-20 -1.50459)
(-9.86974 0 1.89038)
(6.31264 0 -1.23785)
(-1.91736 0 0.406775)
(-2.75763 4.45045e-18 0.490958)
(9.62065 2.28508e-19 -1.71709)
(-11.1696 1.5889e-18 2.11366)
(6.46174 0 -1.27832)
(-1.28812 -8.99541e-18 0.874928)
(-4.94376 0 0.856658)
(9.6523 1.64007e-18 -1.84942)
(-2.17036 2.60917e-18 0.491428)
(-4.89515 -1.31275e-19 0.916808)
(1.41565 1.30077e-18 -0.301728)
(3.04502 -4.01353e-19 -0.526185)
(-2.63845 -5.48634e-22 0.532026)
(-3.0715 -5.4923e-19 0.561891)
(-0.0209612 0 0.00380049)
(0.0392716 1.03402e-21 -0.156717)
(0.0696982 0 -0.0696536)
(0.175998 6.05788e-23 -0.0102479)
(0.239978 0 0.00258904)
(0.251607 -9.52157e-22 0.000778849)
(0.246822 -2.38032e-21 -0.00258633)
(0.238635 -1.42314e-21 -0.00642927)
(0.229099 0 -0.0144315)
(0.221608 6.71276e-23 -0.0212646)
(0.214708 -3.39657e-21 -0.0263074)
(0.207546 3.37273e-21 -0.0299503)
(0.199764 3.27218e-21 -0.0324673)
(0.191121 -3.10627e-21 -0.0339496)
(0.181124 2.88614e-21 -0.0343438)
(0.169033 5.25812e-21 -0.0336357)
(0.154344 0 -0.0320027)
(0.137224 -9.20142e-24 -0.0297702)
(0.118419 3.30293e-21 -0.0272353)
(0.0988016 2.56602e-21 -0.0245416)
(0.0789778 0 -0.0216847)
(0.0592065 0 -0.0186029)
(0.0395766 2.88051e-22 -0.0152656)
(0.0202503 0 -0.0117142)
(0.00160022 -1.05935e-21 -0.00805197)
(-0.0158328 3.14282e-21 -0.00440463)
(-0.0315016 0 -0.000882775)
(-0.0450002 -4.59451e-21 0.00243169)
(-0.0560884 0 0.00546851)
(-0.0646157 4.96727e-21 0.00814731)
(-0.0704238 9.35269e-21 0.0103685)
(-0.0733442 8.25638e-21 0.0120359)
(-0.073252 3.32631e-21 0.0130797)
(-0.070169 -2.29478e-21 0.0134798)
(-0.0642568 -4.34485e-21 0.0132495)
(-0.055815 1.11757e-21 0.0124307)
(-0.0451624 0 0.0110604)
(-0.0326933 0 0.00919604)
(-0.0188004 9.5378e-23 0.00689195)
(-0.00406566 0 0.00425713)
(0.0109092 -1.54234e-20 0.00139978)
(0.025273 0 -0.00149934)
(0.038342 -3.96022e-20 -0.00430414)
(0.0492652 0 -0.0068118)
(0.0576758 -4.40624e-20 -0.00893284)
(0.0630078 0 -0.0104931)
(0.0654635 4.35403e-20 -0.0115108)
(0.0648395 0 -0.0118756)
(0.0619867 0 -0.0117574)
(0.056887 -3.50581e-20 -0.0110923)
(0.0508654 0 -0.0101832)
(0.0436839 0 -0.0089333)
(0.0369435 0 -0.0077371)
(0.0298185 -3.63939e-20 -0.00637308)
(0.0241131 -5.71642e-20 -0.00529848)
(0.0181869 0 -0.00410595)
(0.0142308 0 -0.00334944)
(0.00964876 9.03463e-21 -0.00240087)
(0.00722409 3.95586e-21 -0.00195971)
(0.00326035 0 -0.00115085)
(0.00146162 0 -0.000887682)
(-0.00312358 0 -2.36198e-06)
(-0.00553686 0 0.00032172)
(-0.0121175 -2.84682e-20 0.00158653)
(-0.0161509 3.50353e-20 0.00223403)
(-0.02527 -8.39092e-20 0.0040741)
(-0.0304812 0 0.00504459)
(-0.0406887 0 0.00724385)
(-0.044757 0 0.00811461)
(-0.0530572 2.71417e-22 0.0100797)
(-0.0531658 -1.25298e-19 0.0102491)
(-0.05664 -1.19623e-19 0.0113144)
(-0.051578 2.14288e-19 0.0103977)
(-0.0489519 -4.68346e-23 0.010133)
(-0.0413745 -6.89309e-20 0.00847854)
(-0.0338569 -4.7814e-20 0.00704966)
(-0.0307652 0 0.00610301)
(-0.0194862 0 0.00391386)
(-0.0280255 0 0.00528829)
(-0.0115028 4.0255e-21 0.00215703)
(-0.0320382 0 0.00604355)
(-0.0129119 0 0.00242806)
(-0.0292054 1.7894e-20 0.00566949)
(-0.0310644 2.41713e-20 0.00601515)
(0.00357013 0 -0.000464378)
(-0.0865392 0 0.0168371)
(0.0994067 0 -0.0188882)
(-0.217468 1.09594e-19 0.0423777)
(0.221838 1.08146e-22 -0.0443035)
(-0.028878 -3.06457e-20 0.0111584)
(-0.352422 1.21356e-19 0.0626887)
(0.791826 -2.77077e-19 -0.151163)
(-0.986267 -1.675e-19 0.180127)
(2.23705 -4.79722e-19 -0.42791)
(-3.42213 0 0.67247)
(2.4463 0 -0.555428)
(3.23087 0 -0.542841)
(-8.4955 0 1.58918)
(8.92264 2.52744e-19 -1.7365)
(-10.7724 0 2.10848)
(10.1767 0 -2.05558)
(-2.87562 -1.37298e-18 0.650739)
(-10.5844 -9.43689e-20 1.8059)
(22.6683 -1.285e-19 -4.23683)
(-28.9701 -6.01973e-18 5.63576)
(18.7864 0 -3.82448)
(-7.37632 0 1.67339)
(-5.6199 0 0.89265)
(26.901 -1.09286e-19 -4.94998)
(-32.0573 -1.51216e-18 6.25452)
(19.7657 0 -4.05931)
(-6.98685 1.24023e-17 2.146)
(-12.185 -7.8364e-20 2.11723)
(28.2891 -3.11199e-18 -5.50716)
(-8.48286 0 1.92821)
(-12.9842 0 2.44539)
(4.87233 1.23608e-18 -1.07931)
(7.91393 0 -1.42425)
(-8.3987 2.70763e-19 1.73114)
(-8.20242 5.19333e-19 1.52815)
(0.498247 0 -0.162612)
(-0.0214888 0 -0.135726)
(0.00323782 0 -0.0823726)
(0.0785506 -5.4824e-23 -0.0169584)
(0.148342 0 0.0163399)
(0.187699 0 0.0265446)
(0.206082 1.15748e-21 0.0229168)
(0.214252 1.34781e-21 0.0122039)
(0.21883 0 3.0273e-05)
(0.2232 5.34758e-23 -0.0113643)
(0.227074 3.21779e-21 -0.0210068)
(0.229809 -6.35924e-21 -0.0287717)
(0.230784 -3.10034e-21 -0.0348176)
(0.229438 1.71733e-23 -0.0391286)
(0.224977 -2.73478e-21 -0.041516)
(0.216383 -2.48496e-21 -0.0420037)
(0.203043 2.19624e-21 -0.0410656)
(0.185352 -3.78808e-21 -0.0394)
(0.164561 -3.12989e-21 -0.0375035)
(0.142048 0 -0.035472)
(0.118728 0 -0.0331281)
(0.0949567 1.01731e-21 -0.0302698)
(0.0708313 3.12331e-22 -0.0268303)
(0.0465491 0 -0.0228949)
(0.0225992 0 -0.0186242)
(-0.000309365 -2.97804e-21 -0.0141595)
(-0.021482 0 -0.00957791)
(-0.0404351 8.67579e-21 -0.00491841)
(-0.0568898 -4.62522e-21 -0.000253977)
(-0.0706234 0 0.0042631)
(-0.0813195 -4.41858e-21 0.00841203)
(-0.0885983 -3.9052e-21 0.0119781)
(-0.0921343 0 0.0148074)
(-0.0918304 2.20391e-21 0.0168395)
(-0.0877973 2.08037e-21 0.0180596)
(-0.0803413 -6.51426e-23 0.0184835)
(-0.0697725 0 0.0181018)
(-0.0565019 0 0.0169386)
(-0.0409138 9.08796e-21 0.0150097)
(-0.0236706 0 0.0124257)
(-0.00542979 0 0.00928029)
(0.0127695 0 0.00578856)
(0.0301556 0 0.00207598)
(0.0456212 0 -0.00158997)
(0.0587416 0 -0.00511746)
(0.0686214 0 -0.00820481)
(0.0754721 -4.11732e-20 -0.0108562)
(0.07869 3.93272e-20 -0.0127814)
(0.0792902 0 -0.0141703)
(0.0767848 3.31682e-20 -0.0147496)
(0.0728955 0 -0.0149266)
(0.0668065 0 -0.0143816)
(0.0608283 -4.24329e-20 -0.013739)
(0.0533628 0 -0.0125161)
(0.0472877 2.70532e-20 -0.0115309)
(0.0398631 -2.02303e-20 -0.0100278)
(0.0347869 0 -0.00905549)
(0.0278642 -8.53971e-21 -0.0074881)
(0.0239111 0 -0.00667684)
(0.016999 0 -0.0050725)
(0.0135744 0 -0.00444805)
(0.00565837 1.46368e-20 -0.00273676)
(0.00180933 2.07335e-20 -0.00221585)
(-0.00835795 8.10984e-24 -0.000186962)
(-0.0135027 -6.61362e-20 0.00043667)
(-0.0264685 5.7696e-23 0.00301493)
(-0.0324157 0 0.00382332)
(-0.0466895 0 0.00688387)
(-0.0510771 -1.12023e-19 0.00762725)
(-0.0635465 2.59912e-22 0.0107332)
(-0.0636007 0 0.0109441)
(-0.0710311 0 0.0134297)
(-0.0656872 -1.01017e-19 0.012708)
(-0.0659378 2.89423e-23 0.0138433)
(-0.0584246 -3.89485e-23 0.012388)
(-0.0511874 0 0.0117126)
(-0.050278 0 0.0109579)
(-0.0344337 -2.78978e-20 0.00819159)
(-0.0502737 1.09816e-20 0.0103613)
(-0.0221546 0 0.00497614)
(-0.0566634 0 0.0110238)
(-0.0211745 0 0.00392539)
(-0.0503338 0 0.0097241)
(-0.0475891 0 0.00836526)
(0.0041236 0 -0.000267675)
(-0.13858 0 0.0255065)
(0.160527 0 -0.0295525)
(-0.361212 -1.03289e-19 0.0694446)
(0.371568 2.58164e-20 -0.0778279)
(-0.105215 2.88038e-20 0.0395756)
(-0.539879 -1.14035e-19 0.0859714)
(1.23551 2.59191e-19 -0.224322)
(-1.63129 1.5733e-19 0.294443)
(3.48699 2.25172e-19 -0.632052)
(-5.57227 0 1.09966)
(4.32168 0 -1.04384)
(4.57189 0 -0.589893)
(-13.2875 0 2.38911)
(14.6867 -2.37117e-19 -2.83356)
(-17.7548 0 3.46817)
(16.6764 0 -3.45619)
(-5.82664 1.28732e-18 1.59121)
(-14.787 0 2.16752)
(35.8186 6.27347e-20 -6.41954)
(-47.3689 5.64118e-18 9.22951)
(30.9206 0 -6.53543)
(-14.4941 0 3.56678)
(-5.8449 0 0.384193)
(42.368 -1.08457e-19 -7.54642)
(-51.3649 0 10.091)
(33.2453 1.8012e-18 -7.09495)
(-15.4444 -1.56823e-20 3.82098)
(-16.7681 7.32851e-20 2.45859)
(46.107 2.91752e-18 -8.96101)
(-16.5194 0 4.08597)
(-19.4171 1.19134e-19 3.44734)
(8.71204 -1.15618e-18 -2.10018)
(11.5818 -3.58724e-19 -1.94752)
(-14.5416 0 3.12851)
(-12.4169 -4.85585e-19 2.19946)
(1.46695 0 -0.456661)
(-0.0331267 0 -0.0861163)
(-0.0300752 0 -0.0678399)
(0.00590708 5.20749e-23 -0.020781)
(0.0528272 0 0.0163715)
(0.0936467 -7.68371e-22 0.0372813)
(0.122056 2.05594e-21 0.0418817)
(0.141373 0 0.0339988)
(0.155827 -2.70608e-21 0.0200326)
(0.168521 2.93177e-21 0.00474927)
(0.180597 2.95648e-21 -0.00900471)
(0.191835 2.99181e-21 -0.0203086)
(0.20135 -2.88235e-21 -0.0291937)
(0.208191 2.76729e-21 -0.0356325)
(0.211274 -5.11531e-21 -0.0393764)
(0.209261 0 -0.0405382)
(0.201164 -4.14623e-21 -0.0399701)
(0.187214 0 -0.0388394)
(0.168899 0 -0.0378696)
(0.148049 0 -0.0370441)
(0.125933 1.64892e-21 -0.0359144)
(0.103054 1.09562e-23 -0.0340728)
(0.0795188 1.3535e-23 -0.0313999)
(0.0555036 -3.19653e-22 -0.0280322)
(0.0315107 0 -0.0241896)
(0.00831024 0 -0.0200114)
(-0.0133388 0 -0.015507)
(-0.0329468 -8.14568e-21 -0.0106363)
(-0.050283 2.44814e-23 -0.00545156)
(-0.06516 0 -0.000165967)
(-0.0772129 0 0.00488961)
(-0.0859404 0 0.0094052)
(-0.090877 0 0.0131766)
(-0.0918417 -4.1873e-21 0.016136)
(-0.0889068 0 0.0182599)
(-0.0823799 -4.09128e-22 0.0195427)
(-0.0725374 0 0.0199235)
(-0.05977 0 0.0193888)
(-0.0443997 -8.40658e-21 0.0179135)
(-0.0271033 0 0.0156104)
(-0.00850442 0 0.0125553)
(0.010276 1.57171e-20 0.0089883)
(0.0285092 -3.50029e-20 0.00500766)
(0.0449625 0 0.000924674)
(0.0592974 -3.91422e-20 -0.00319311)
(0.0704154 0 -0.00694632)
(0.0786694 7.77311e-20 -0.010362)
(0.0831475 -3.83353e-23 -0.0130064)
(0.0851176 0 -0.0151279)
(0.0836493 0 -0.0162724)
(0.0808901 -2.77361e-20 -0.0169786)
(0.0754 -4.78167e-20 -0.0167147)
(0.0701773 8.01918e-20 -0.0163441)
(0.0627505 0 -0.0151122)
(0.0570362 2.56261e-20 -0.0141943)
(0.0490688 1.90967e-20 -0.0124621)
(0.0440346 1.33092e-20 -0.0114502)
(0.0360095 8.10968e-21 -0.00950388)
(0.0318708 0 -0.00862226)
(0.0233272 0 -0.00654694)
(0.0196425 -7.58535e-21 -0.00590959)
(0.00966374 -2.76108e-20 -0.00370046)
(0.0056786 -1.95552e-20 -0.00329689)
(-0.00690773 3.79252e-24 -0.000759575)
(-0.0119313 3.11662e-20 -0.000388493)
(-0.0276472 3.72473e-20 0.00276296)
(-0.0331236 0 0.00324328)
(-0.0504289 0 0.00703985)
(-0.0539872 1.05569e-19 0.00747833)
(-0.0697447 2.21308e-19 0.011564)
(-0.0687905 0 0.0115523)
(-0.0796283 1.05766e-19 0.0152158)
(-0.0734467 9.48845e-20 0.0143165)
(-0.0765702 7.97859e-20 0.0165846)
(-0.0691577 1.2244e-19 0.0149534)
(-0.0628257 0 0.0149405)
(-0.064758 0 0.0141981)
(-0.0453422 2.62525e-20 0.0110967)
(-0.0696949 -2.07878e-20 0.0141726)
(-0.0306387 -3.62594e-21 0.0069413)
(-0.081081 0 0.0155929)
(-0.0284348 0 0.00507276)
(-0.0738683 0 0.0144452)
(-0.0632577 0 0.0104177)
(2.66306e-07 0 0.00167594)
(-0.189238 0 0.0332941)
(0.215223 -3.46135e-20 -0.0374072)
(-0.503544 -1.6756e-22 0.0954267)
(0.523561 -2.41095e-20 -0.113402)
(-0.216051 0 0.0810945)
(-0.673582 -1.0621e-19 0.0861961)
(1.62205 -1.2142e-19 -0.282196)
(-2.23657 0 0.390081)
(4.57899 2.11353e-19 -0.79155)
(-7.58777 -5.08468e-19 1.4896)
(6.29899 0 -1.62003)
(5.31968 0 -0.440814)
(-17.3095 0 2.99262)
(20.1216 -2.19446e-19 -3.85176)
(-24.495 0 4.80055)
(22.9115 0 -4.89115)
(-9.48207 1.19703e-18 3.02689)
(-16.8954 8.16773e-20 1.90498)
(47.3356 0 -8.15845)
(-64.5504 0 12.6463)
(42.3499 0 -9.2854)
(-23.2786 0 5.83584)
(-3.49478 0 -0.828682)
(55.8081 -7.3739e-21 -9.47357)
(-68.4549 0 13.5531)
(46.4725 -1.68548e-18 -10.1957)
(-26.3069 -3.31874e-18 6.64693)
(-18.5725 0 1.97737)
(62.5873 7.32679e-21 -12.1397)
(-25.9157 0 6.73376)
(-24.1187 7.51584e-22 4.02932)
(12.6474 0 -3.22556)
(14.0449 3.35411e-19 -2.10892)
(-20.8067 0 4.61967)
(-15.6827 -4.54255e-19 2.62811)
(2.75209 0 -0.833031)
(-0.0341728 0 -0.048573)
(-0.0367982 0 -0.0462966)
(-0.0213986 0 -0.0166349)
(0.00372395 0 0.0163747)
(0.0342367 7.25401e-22 0.039709)
(0.0613491 -1.25848e-23 0.0497593)
(0.0820208 0 0.0466831)
(0.0977016 2.55432e-21 0.0338979)
(0.11116 0 0.0169121)
(0.124354 -5.52467e-21 0.000523602)
(0.137862 0 -0.0131134)
(0.150983 2.72121e-21 -0.0236766)
(0.162533 0 -0.0311805)
(0.171215 4.82974e-21 -0.0353717)
(0.175393 -2.18193e-21 -0.036387)
(0.1734 3.89494e-21 -0.0354235)
(0.164701 -3.35469e-21 -0.0342175)
(0.150498 -2.78677e-21 -0.0338447)
(0.132891 0 -0.0341866)
(0.113565 -1.55702e-21 -0.0344326)
(0.0932751 -9.18921e-22 -0.0338739)
(0.0721804 -5.94262e-22 -0.0322904)
(0.0504072 3.01848e-22 -0.0298605)
(0.0283958 0 -0.0268694)
(0.00691597 0 -0.0234574)
(-0.0132084 0 -0.0195551)
(-0.0314436 3.83125e-21 -0.0150189)
(-0.0476039 4.10702e-21 -0.00985735)
(-0.0616034 0 -0.00433265)
(-0.0731257 0 0.00111845)
(-0.0816207 -3.49059e-21 0.00610093)
(-0.0865066 0 0.0103809)
(-0.0875166 -2.17869e-23 0.0139081)
(-0.0846807 2.01739e-21 0.0166662)
(-0.0783205 2.40758e-22 0.0186327)
(-0.0686941 0 0.0196898)
(-0.0561858 0 0.0197818)
(-0.0410512 7.9343e-21 0.0188391)
(-0.0239757 0 0.0169766)
(-0.00552424 0 0.0142462)
(0.0131184 -1.48317e-20 0.0109068)
(0.0313052 3.30289e-20 0.00701043)
(0.0477014 0 0.00289818)
(0.062105 3.693e-20 -0.00141363)
(0.073241 0 -0.00544275)
(0.081667 -3.6632e-20 -0.00927068)
(0.086186 -3.50088e-20 -0.0123288)
(0.0883904 0 -0.014952)
(0.0869165 -2.95568e-20 -0.0164954)
(0.0844109 2.61567e-20 -0.0176482)
(0.0787899 9.02183e-20 -0.0176336)
(0.0738058 -3.78328e-20 -0.0175702)
(0.0660571 3.0842e-20 -0.0163822)
(0.0605658 5.87853e-23 -0.0156291)
(0.0520416 0 -0.0137502)
(0.0472332 -1.25445e-20 -0.0128136)
(0.0383524 -7.64292e-21 -0.0105651)
(0.034442 3.41422e-21 -0.00972697)
(0.0246749 3.24146e-22 -0.00724227)
(0.0212713 7.14649e-21 -0.00670192)
(0.00968598 1.30039e-20 -0.00403373)
(0.00612556 -1.84141e-20 -0.00384855)
(-0.00847562 2.38689e-20 -0.000816888)
(-0.0128716 0 -0.000807151)
(-0.0310415 0 0.002901)
(-0.0356307 4.04443e-20 0.00289879)
(-0.0558077 0 0.00739026)
(-0.0582195 0 0.00731796)
(-0.0772321 -1.04009e-19 0.0123447)
(-0.0750181 0 0.0118929)
(-0.0893078 -9.95097e-20 0.0167606)
(-0.0820612 -1.78361e-19 0.0155061)
(-0.0881548 0 0.0190746)
(-0.080659 -5.75794e-20 0.0171754)
(-0.0753852 0 0.0181868)
(-0.0801009 0 0.0174255)
(-0.0572615 -2.50218e-20 0.0144499)
(-0.0904067 9.82711e-21 0.0183605)
(-0.0402217 -5.95333e-23 0.00956265)
(-0.107728 0 0.0208322)
(-0.0365404 0 0.00658518)
(-0.101155 0 0.0202031)
(-0.0790469 -1.9895e-20 0.0120811)
(-0.0097254 2.22385e-20 0.00536219)
(-0.239036 0 0.0396228)
(0.262499 6.49822e-20 -0.0422438)
(-0.644382 4.57556e-20 0.119418)
(0.675237 4.51748e-20 -0.150968)
(-0.360366 2.472e-20 0.137916)
(-0.750559 1.98862e-19 0.0638966)
(1.93902 0 -0.316431)
(-2.79203 0 0.451419)
(5.52042 -1.9818e-19 -0.896334)
(-9.44003 4.76697e-19 1.83455)
(8.30091 3.78963e-19 -2.2548)
(5.52118 0 -0.0623655)
(-20.4917 0 3.34592)
(25.0779 2.05605e-19 -4.73882)
(-30.8673 9.26837e-19 6.05482)
(28.8207 0 -6.31143)
(-13.7913 -1.12102e-18 4.65508)
(-17.0622 -7.64483e-20 1.03131)
(57.1392 0 -9.32078)
(-80.0146 0 15.7237)
(52.7701 0 -11.9679)
(-33.5492 0 8.56891)
(1.08197 0 -2.83568)
(67.0431 1.01942e-19 -10.7141)
(-82.687 0 16.4436)
(59.0402 0 -13.2552)
(-39.3033 0 10.0871)
(-17.7396 -6.20732e-20 0.611894)
(77.2556 -1.28497e-18 -14.851)
(-36.0805 0 9.81799)
(-27.1564 -1.04918e-19 4.08816)
(16.3661 0 -4.39753)
(15.3791 3.15964e-19 -1.93596)
(-26.8829 0 6.13933)
(-18.0352 4.24504e-19 2.77144)
(4.18567 0 -1.3622)
(-0.0352496 2.91287e-22 -0.0227938)
(-0.0325539 -2.65623e-24 -0.0234174)
(-0.0207805 2.68945e-22 -0.00527336)
(-0.00785624 4.90621e-22 0.0201343)
(0.012387 0 0.0410218)
(0.0349439 -8.95344e-22 0.0519607)
(0.0539279 0 0.051575)
(0.0676598 2.28614e-21 0.0412789)
(0.077831 2.43149e-21 0.024621)
(0.0868904 5.08797e-21 0.00681912)
(0.0964911 -2.52757e-21 -0.0085788)
(0.106985 2.48328e-21 -0.0204272)
(0.117676 0 -0.0286612)
(0.127531 0 -0.0330542)
(0.135025 2.05712e-21 -0.0336262)
(0.137923 -1.65277e-23 -0.0317296)
(0.134426 2.3827e-23 -0.0297359)
(0.124672 1.544e-23 -0.0293375)
(0.110542 0 -0.0304824)
(0.0940749 0 -0.0319625)
(0.0763836 0 -0.0326528)
(0.0577867 5.77267e-22 -0.0321529)
(0.0383965 -2.61775e-22 -0.0306563)
(0.0185525 0 -0.0285223)
(-0.00103725 0 -0.0259182)
(-0.019473 -3.07194e-21 -0.0227118)
(-0.0360842 0 -0.0186433)
(-0.0506539 0 -0.0136481)
(-0.0632274 0 -0.00801998)
(-0.0736444 0 -0.00230607)
(-0.0813976 -4.16072e-24 0.00300304)
(-0.0858016 0 0.00764421)
(-0.0864626 -2.28013e-23 0.0115996)
(-0.0833261 -1.90168e-21 0.0148761)
(-0.0767257 -8.03032e-23 0.0174425)
(-0.0669196 0 0.0191219)
(-0.0543137 0 0.0198133)
(-0.0391016 0 0.0193988)
(-0.0219835 0 0.0179996)
(-0.00345392 0 0.0156407)
(0.0152266 0 0.0126027)
(0.0335031 0 0.00888137)
(0.0499191 -3.30386e-20 0.0048478)
(0.0644316 -3.44452e-20 0.000452056)
(0.0755676 0 -0.00373773)
(0.0841246 -3.42851e-20 -0.00787737)
(0.0885891 0 -0.0112559)
(0.0909295 0 -0.0143185)
(0.0893058 5.56455e-20 -0.0162104)
(0.0869347 0 -0.0177966)
(0.0810235 -4.24998e-20 -0.0180216)
(0.0761697 0 -0.01829)
(0.0679473 -5.81381e-20 -0.0171558)
(0.062603 6.14118e-23 -0.0166063)
(0.0533886 0 -0.0145851)
(0.048771 0 -0.0137584)
(0.0389228 0 -0.0111937)
(0.0352551 -6.46787e-21 -0.0104277)
(0.0241724 -5.79142e-22 -0.00750415)
(0.0211069 -6.65289e-21 -0.00709021)
(0.00782012 -1.21969e-20 -0.00391829)
(0.00476319 3.46356e-20 -0.00398018)
(-0.0119739 2.24396e-20 -0.000388828)
(-0.0156527 0 -0.000770886)
(-0.0364355 0 0.00357511)
(-0.0400458 -5.31372e-23 0.00304484)
(-0.0633066 0 0.00832041)
(-0.0644863 0 0.00766721)
(-0.0870142 -9.73229e-20 0.0137312)
(-0.083443 0 0.0127376)
(-0.101458 0 0.0189159)
(-0.0930174 1.673e-19 0.0171643)
(-0.102349 -7.02725e-20 0.0221702)
(-0.0946337 0 0.0198254)
(-0.0906698 0 0.022072)
(-0.0980895 0 0.0210851)
(-0.0719855 2.34994e-20 0.0185266)
(-0.114084 0 0.0230493)
(-0.0525329 6.58275e-21 0.0129222)
(-0.138021 -3.82992e-21 0.0267495)
(-0.0468809 0 0.0085857)
(-0.13337 0 0.0270756)
(-0.0961199 1.86692e-20 0.0136083)
(-0.0261648 -6.26205e-23 0.011005)
(-0.28897 2.24622e-20 0.0448225)
(0.30111 -3.04754e-20 -0.0437563)
(-0.784335 4.31993e-20 0.141515)
(0.823572 -2.11459e-20 -0.188855)
(-0.53854 -2.31783e-20 0.202857)
(-0.768848 -4.14029e-22 0.022356)
(2.17342 0 -0.323605)
(-3.28062 1.27324e-19 0.496463)
(6.31484 0 -0.948396)
(-11.104 0 2.12635)
(10.2461 -3.55005e-19 -2.92682)
(5.23259 0 0.514988)
(-22.8009 0 3.44019)
(29.4204 0 -5.45868)
(-36.7263 -8.67809e-19 7.21256)
(34.3138 0 -7.71025)
(-18.631 -1.05731e-18 6.34479)
(-15.556 0 -0.425662)
(65.1836 0 -9.87868)
(-93.2847 0 18.394)
(61.9543 0 -14.5358)
(-44.9881 0 11.6497)
(7.342 3.286e-18 -5.52871)
(75.8934 1.1861e-19 -11.1971)
(-93.4728 1.1778e-18 18.675)
(70.68 0 -16.1766)
(-53.8577 0 14.0512)
(-14.7065 1.14868e-19 -1.6013)
(89.6501 0 -16.9789)
(-46.249 1.91288e-18 13.1754)
(-28.6762 0 3.66651)
(19.5863 -9.54431e-19 -5.54384)
(15.7423 -2.95285e-19 -1.44191)
(-32.4435 0 7.62301)
(-19.5474 3.96808e-19 2.6547)
(5.6442 0 -1.90977)
(-0.0353475 -2.74304e-22 -0.00277978)
(-0.026902 5.14877e-23 -0.00257764)
(-0.0122193 -2.53347e-22 0.00831467)
(-0.003681 2.30963e-23 0.02569)
(0.0101774 6.57696e-22 0.0418228)
(0.0288178 0 0.0514946)
(0.0464317 0 0.052292)
(0.0591708 -2.15278e-21 0.0443751)
(0.0669128 -4.50784e-21 0.0296571)
(0.0715929 -7.0554e-23 0.0118357)
(0.0753551 2.37987e-21 -0.00474996)
(0.0797052 -2.33815e-21 -0.0178753)
(0.0850456 2.19793e-21 -0.0271044)
(0.0912443 0 -0.0321955)
(0.0977037 0 -0.0328655)
(0.102508 -1.70787e-21 -0.0301949)
(0.102856 5.87942e-21 -0.0270058)
(0.0972299 4.89535e-21 -0.0258994)
(0.086506 0 -0.0272824)
(0.0726834 0 -0.0296772)
(0.0572175 0 -0.0314548)
(0.0406882 1.81853e-24 -0.0319258)
(0.0232974 4.86805e-22 -0.031242)
(0.00530936 -7.09316e-22 -0.0298301)
(-0.0126982 -2.22396e-21 -0.0279218)
(-0.0297965 5.76002e-21 -0.0253684)
(-0.0450961 -3.32705e-21 -0.0217967)
(-0.058204 -3.5865e-21 -0.0170248)
(-0.0692546 -3.63596e-21 -0.0113347)
(-0.078351 0 -0.005381)
(-0.0851792 3.10221e-21 0.000223477)
(-0.0890108 -2.55108e-21 0.00516567)
(-0.0892862 1.8031e-21 0.00946683)
(-0.0857908 1.91539e-21 0.0131774)
(-0.0788396 -1.93902e-22 0.0162765)
(-0.0687002 0 0.0185296)
(-0.055834 0 0.0197894)
(-0.0403757 -6.71257e-21 0.0198838)
(-0.0230438 0 0.0189449)
(-0.00424093 1.0983e-20 0.0169698)
(0.0146804 1.28072e-20 0.0142683)
(0.033269 0 0.0107716)
(0.049914 6.19435e-20 0.0068857)
(0.0647572 3.24151e-20 0.00247874)
(0.0760891 0 -0.00178605)
(0.0849881 3.2261e-20 -0.00616068)
(0.0895657 3.07573e-20 -0.00977805)
(0.0922254 0 -0.0132241)
(0.0905738 -5.22656e-20 -0.0154101)
(0.0884862 2.31468e-20 -0.0174144)
(0.0823535 3.99896e-20 -0.0178613)
(0.0777403 0 -0.0184889)
(0.0690502 -4.74327e-23 -0.0174187)
(0.0639208 -4.30617e-20 -0.0171279)
(0.0539538 0 -0.0149792)
(0.0495601 0 -0.014324)
(0.038625 6.90113e-21 -0.0114425)
(0.0352227 3.05974e-21 -0.0108061)
(0.0226624 4.79713e-22 -0.00742039)
(0.0199616 6.25388e-21 -0.00718683)
(0.00477017 1.14644e-20 -0.00346241)
(0.00225548 -1.62699e-20 -0.00382174)
(-0.0168572 -4.21654e-20 0.000407137)
(-0.0197544 0 -0.00041849)
(-0.0434227 0 0.00466757)
(-0.0459642 -7.1324e-20 0.00354168)
(-0.072623 0 0.00971835)
(-0.072463 0 0.00838562)
(-0.0988587 9.14072e-20 0.0156109)
(-0.0937986 0 0.0139324)
(-0.115904 -8.72325e-20 0.0215545)
(-0.106118 -1.75141e-22 0.0191143)
(-0.119055 6.59726e-20 0.025731)
(-0.110988 0 0.0227145)
(-0.108689 0 0.0264654)
(-0.118759 0 0.0250045)
(-0.0896521 2.23098e-20 0.0232508)
(-0.14088 0 0.0281341)
(-0.06786 -3.12181e-21 0.0170569)
(-0.172189 7.20841e-21 0.0333481)
(-0.0599324 0 0.0112229)
(-0.170822 0 0.0351783)
(-0.11516 0 0.015182)
(-0.0497448 -6.83031e-23 0.0188346)
(-0.339929 -2.10578e-20 0.0490111)
(0.330522 -2.84704e-20 -0.0415758)
(-0.924336 -4.04884e-20 0.161564)
(0.966615 -1.96719e-20 -0.226264)
(-0.748243 0 0.281575)
(-0.729309 -8.67607e-20 -0.0432087)
(2.31284 0 -0.299463)
(-3.69131 -1.19259e-19 0.504085)
(6.96721 0 -0.944066)
(-12.5588 0 2.35327)
(12.0613 0 -3.61651)
(4.53207 -3.3072e-19 1.27919)
(-24.2527 -4.48851e-19 3.26783)
(33.0397 0 -5.9789)
(-41.9238 8.11916e-19 8.2347)
(39.2969 3.55282e-19 -9.05185)
(-23.7877 9.8928e-19 8.2071)
(-12.7434 7.10932e-20 -2.40484)
(71.4548 0 -9.8152)
(-103.973 0 20.565)
(69.7995 0 -16.9191)
(-57.0892 0 14.9462)
(14.5582 -3.07263e-18 -8.76689)
(82.154 1.69722e-20 -10.8768)
(-100.412 -2.20671e-18 20.1328)
(81.2884 0 -18.8675)
(-69.1439 0 18.3243)
(-10.1998 -5.3104e-20 -4.55893)
(99.3337 0 -18.3943)
(-55.5054 -1.78752e-18 16.6112)
(-28.9167 0 2.78175)
(22.0936 1.78628e-18 -6.59879)
(15.3548 0 -0.663462)
(-37.186 0 8.98628)
(-20.3475 -3.70664e-19 2.29101)
(6.98367 0 -2.49858)
(-0.034579 0 0.012864)
(-0.0231329 -4.60991e-23 0.0135455)
(-0.00517387 0 0.0200364)
(0.00288559 -4.56574e-22 0.0312003)
(0.0136249 -1.23244e-21 0.0424943)
(0.0294057 0 0.0498848)
(0.0456932 8.62157e-22 0.0510299)
(0.0582998 0 0.0450554)
(0.0656566 7.01956e-23 0.0328758)
(0.0683659 -4.24432e-21 0.0165248)
(0.0682764 0 -0.000167093)
(0.0671642 0 -0.0141984)
(0.0662669 -2.06728e-21 -0.024556)
(0.0663504 0 -0.0309598)
(0.0681006 0 -0.0327897)
(0.0710196 0 -0.0303462)
(0.0725381 -2.74982e-21 -0.0262838)
(0.0697872 -2.29098e-21 -0.0240848)
(0.0620338 -1.77836e-21 -0.0250927)
(0.0505821 0 -0.0279352)
(0.0369542 0 -0.0305274)
(0.0219831 -2.60314e-22 -0.0318022)
(0.00607129 -2.26019e-22 -0.031789)
(-0.0104749 6.67128e-22 -0.0309378)
(-0.0272293 2.09168e-21 -0.0295642)
(-0.0433611 -5.37332e-21 -0.0275752)
(-0.0577787 2.05828e-23 -0.0245226)
(-0.0697416 3.37308e-21 -0.020059)
(-0.0793049 3.41955e-21 -0.0143712)
(-0.0868627 0 -0.00819027)
(-0.0924886 0 -0.00228436)
(-0.0955744 2.39912e-21 0.00293489)
(-0.0954181 0 0.00751641)
(-0.0915595 -1.8012e-21 0.0115764)
(-0.0842265 5.252e-23 0.0151348)
(-0.0736787 -1.96699e-21 0.0179097)
(-0.0604711 0 0.0197063)
(-0.0446888 6.31168e-21 0.0202878)
(-0.0270751 8.25603e-21 0.0198018)
(-0.00790584 -1.37467e-22 0.0182159)
(0.0113591 -2.39429e-20 0.0158814)
(0.0303943 0 0.0126557)
(0.0473939 -2.90025e-20 0.008987)
(0.0627236 0 0.00464215)
(0.0743885 0 0.000393471)
(0.0838063 0 -0.00413337)
(0.0886345 -1.47042e-22 -0.00789422)
(0.0917925 0 -0.0116545)
(0.0902267 2.45347e-20 -0.0140588)
(0.0885933 -4.34625e-20 -0.0164487)
(0.0823213 -3.75788e-20 -0.0170764)
(0.0781075 0 -0.0180781)
(0.0689845 2.57586e-20 -0.0170638)
(0.064205 4.05642e-20 -0.0170854)
(0.053456 0 -0.0148162)
(0.0493991 0 -0.0144078)
(0.0372894 -6.48259e-21 -0.0112104)
(0.0342627 -2.96458e-21 -0.0107865)
(0.0200841 -2.08547e-22 -0.00692019)
(0.0178634 -5.76808e-21 -0.00695214)
(0.000569485 0 -0.00262925)
(-0.00127313 0 -0.00337093)
(-0.0230124 1.16817e-23 0.00157547)
(-0.0249701 -2.42843e-20 0.000219062)
(-0.0518272 0 0.00615925)
(-0.0531163 3.34548e-20 0.00433817)
(-0.0835383 0 0.0115586)
(-0.0818368 0 0.00942036)
(-0.112518 0 0.0179693)
(-0.105747 0 0.0154373)
(-0.13239 2.03335e-22 0.0246831)
(-0.121034 -1.81828e-22 0.0213347)
(-0.13804 -6.16363e-20 0.0297852)
(-0.129447 0 0.0258335)
(-0.129266 -3.32351e-20 0.0314038)
(-0.141919 0 0.0291669)
(-0.110179 -2.09199e-20 0.0286564)
(-0.17069 8.53637e-21 0.0335776)
(-0.0862691 -3.07415e-21 0.0220126)
(-0.210173 -3.38945e-21 0.0405773)
(-0.0759972 0 0.0145876)
(-0.213459 1.18719e-20 0.0444744)
(-0.136784 0 0.0169451)
(-0.0804102 -1.82116e-20 0.0288625)
(-0.392902 -1.97141e-20 0.0523639)
(0.350884 2.6671e-20 -0.0356401)
(-1.06581 0 0.179647)
(1.10351 3.67643e-20 -0.262311)
(-0.988825 0 0.370375)
(-0.631974 -8.03883e-20 -0.128913)
(2.34559 0 -0.245111)
(-4.00741 -1.09584e-19 0.478873)
(7.47946 0 -0.880545)
(-13.7883 3.98793e-19 2.51091)
(13.6882 3.14302e-19 -4.30489)
(3.50641 3.09466e-19 2.20431)
(-24.9078 4.20008e-19 2.83463)
(35.8571 0 -6.27296)
(-46.3125 -1.51896e-18 9.08841)
(43.688 -6.70628e-19 -10.3071)
(-29.03 0 10.2722)
(-9.07431 -6.64498e-20 -4.82798)
(75.9522 0 -9.1198)
(-111.81 0 22.1827)
(76.3208 2.30844e-18 -19.0796)
(-69.1626 0 18.3199)
(21.9291 0 -12.2874)
(85.6017 -1.19602e-19 -9.72753)
(-103.394 2.07101e-18 20.7726)
(90.9051 -1.29685e-18 -21.2645)
(-84.0419 0 22.7141)
(-5.14406 0 -8.1056)
(105.881 0 -18.9972)
(-62.8829 0 19.9197)
(-28.1625 8.74395e-20 1.50266)
(23.7672 -8.35623e-19 -7.52334)
(14.4809 0 0.341771)
(-40.8553 0 10.1783)
(-20.5983 0 1.71547)
(8.08783 0 -3.08848)
(-0.0338797 -1.2751e-22 0.0246431)
(-0.0213142 0 0.0252054)
(-0.00126014 2.94768e-22 0.0290938)
(0.00741217 0 0.0361385)
(0.0166488 5.76767e-22 0.0435234)
(0.0301943 0 0.0484176)
(0.0447835 -8.10344e-22 0.0491173)
(0.0568675 1.71923e-21 0.0446019)
(0.0645294 3.72269e-21 0.0347631)
(0.0673786 6.80125e-23 0.0208628)