/*--------------------------------*- C++ -*----------------------------------*\
| =========                 |                                                 |
| \\      /  F ield         | OpenFOAM: The Open Source CFD Toolbox           |
|  \\    /   O peration     | Version:  2412                                  |
|   \\  /    A nd           | Website:  www.openfoam.com                      |
|    \\/     M anipulation  |                                                 |
\*---------------------------------------------------------------------------*/
FoamFile
{
    version     2.0;
    format      ascii;
    arch        "LSB;label=32;scalar=64";
    class       surfaceScalarField;
    location    "1.08";
    object      phi_0;
}
// * * * * * * * * * * * * * * * * * * * * * * * * * * * * * * * * * * * * * //

dimensions      [0 3 -1 0 0 0 0];

oriented        oriented;

internalField   nonuniform List<scalar> 
24930
(
0.0179714
0.0127627
-0.0307385
0.0106042
0.00736716
0.00695222
0.00365201
0.00517553
0.00177669
0.00420315
0.000972374
0.00358006
0.000623093
0.00313401
0.000446049
0.00279442
0.000339592
0.00252518
0.000269241
0.00230523
0.000219961
0.00212139
0.000183841
0.00196493
0.000156454
0.00182982
0.00013512
0.00171168
0.000118134
0.00160733
0.000104359
0.00151431
9.30134e-05
0.00143078
8.35406e-05
0.00135524
7.55384e-05
0.00128653
6.87082e-05
0.00122371
6.28251e-05
0.00116599
5.77161e-05
0.00111274
5.32469e-05
0.00106343
4.93117e-05
0.00101761
4.58261e-05
0.000974884
4.27218e-05
0.000934939
3.99438e-05
0.000897492
3.74466e-05
0.000862298
3.51925e-05
0.000829147
3.31504e-05
0.000797852
3.12938e-05
0.000768251
2.96006e-05
0.000740198
2.80522e-05
0.000713565
2.66322e-05
0.000688238
2.53271e-05
0.000664113
2.41247e-05
0.000641099
2.30151e-05
0.000619111
2.19887e-05
0.000598074
2.10386e-05
0.000577919
2.01568e-05
0.000558582
1.93387e-05
0.000540007
1.85773e-05
0.00052214
1.787e-05
0.000504933
1.721e-05
0.000488339
1.6597e-05
0.000472319
1.60236e-05
0.00045683
1.54919e-05
0.00044184
1.49933e-05
0.00042731
1.45325e-05
0.000413213
1.40992e-05
0.000399514
1.37014e-05
0.00038619
1.33259e-05
0.000373207
1.29845e-05
0.000360548
1.26607e-05
0.000348178
1.23707e-05
0.000336085
1.20938e-05
0.000324234
1.18511e-05
0.000312617
1.16172e-05
0.000301199
1.14183e-05
0.000289974
1.12242e-05
0.000278908
1.10661e-05
0.000267998
1.09094e-05
0.000257208
1.07893e-05
0.000246539
1.06679e-05
0.000235955
1.05832e-05
0.000225459
1.04955e-05
0.000215015
1.04429e-05
0.000204626
1.03879e-05
0.000194261
1.03633e-05
0.000183919
1.03399e-05
0.00017358
1.03375e-05
0.000163235
1.03444e-05
0.000152879
1.03552e-05
0.000142487
1.03909e-05
0.000132084
1.04024e-05
0.000121618
1.04659e-05
0.000111158
1.04607e-05
0.000100608
1.05508e-05
9.00979e-05
1.051e-05
7.94826e-05
1.06156e-05
6.89468e-05
1.05358e-05
5.83426e-05
1.06041e-05
4.77918e-05
1.05506e-05
3.73694e-05
1.04221e-05
2.67605e-05
1.06085e-05
1.68195e-05
9.94061e-06
6.01078e-06
1.08085e-05
-2.89516e-06
8.9059e-06
-1.38066e-05
1.09114e-05
-2.34375e-05
9.63269e-06
-2.95719e-05
6.13523e-06
-4.49573e-05
1.53887e-05
-4.37619e-05
-1.19429e-06
-6.67863e-05
2.30284e-05
-5.69579e-05
-9.82909e-06
-6.64965e-05
9.53289e-06
-0.000112436
4.5951e-05
-4.66879e-05
-6.57643e-05
-0.000144192
9.74993e-05
-6.88763e-05
-7.53258e-05
-0.00012961
6.07235e-05
-0.000164807
3.52467e-05
-2.04663e-05
-0.000144379
-0.000324801
0.000304367
-4.63168e-05
-0.000278495
-0.000291253
0.000244916
-0.0002554
-3.57971e-05
-7.67557e-05
-0.000178684
-0.000512688
0.000435968
5.15124e-06
-0.000517843
-0.000526136
0.000531245
-0.000439713
-8.8826e-05
-4.37163e-05
-0.000396039
-0.000484876
0.000441183
-0.000221054
-0.000263761
-5.83022e-05
-0.000162782
-0.000118291
5.99648e-05
-0.000507557
0.000389286
-0.000336226
-0.000171323
-9.41134e-06
-0.000326831
-8.95396e-06
0.0336852
0.0163314
-0.0372539
0.0277456
0.0133067
0.0221906
0.00920697
0.0179149
0.00605244
0.0148678
0.00401948
0.0127067
0.00278418
0.0111192
0.00203352
0.00990191
0.00155691
0.0089345
0.00123666
0.00814401
0.00101045
0.00748368
0.000844174
0.0069222
0.00071794
0.00643777
0.000619549
0.00601473
0.000541184
0.00564146
0.000477631
0.00530919
0.000425288
0.00501114
0.000381597
0.00474197
0.000344702
0.00449746
0.000313225
0.00427416
0.000286124
0.00406927
0.000262603
0.00388048
0.000242038
0.00370585
0.000223941
0.00354376
0.00020792
0.00339282
0.000193661
0.00325185
0.000180907
0.00311985
0.000169449
0.00299593
0.000159112
0.00287933
0.000149752
0.00276937
0.000141247
0.00266548
0.000133494
0.00256712
0.000126408
0.00247384
0.000119912
0.00238522
0.000113944
0.0023009
0.000108448
0.00222054
0.000103378
0.00214384
9.86896e-05
0.00207053
9.43504e-05
0.00200036
9.03253e-05
0.00193312
8.65904e-05
0.00186858
8.31165e-05
0.00180657
7.98878e-05
0.00174691
7.68781e-05
0.00168943
7.40791e-05
0.001634
7.14652e-05
0.00158046
6.90358e-05
0.0015287
6.67634e-05
0.00147858
6.46561e-05
0.00143
6.26821e-05
0.00138285
6.0859e-05
0.00133703
5.91488e-05
0.00129244
5.75799e-05
0.001249
5.61058e-05
0.0012066
5.47671e-05
0.00116519
5.35068e-05
0.00112466
5.23791e-05
0.00108497
5.13149e-05
0.001046
5.03822e-05
0.00100773
4.94994e-05
0.000970046
4.87481e-05
0.00093292
4.80348e-05
0.000896255
4.74531e-05
0.000860023
4.68997e-05
0.000824128
4.6476e-05
0.000788548
4.60742e-05
0.000753193
4.57963e-05
0.00071804
4.55388e-05
0.000683009
4.53919e-05
0.000648076
4.52707e-05
0.000613177
4.52337e-05
0.000578281
4.52375e-05
0.000543355
4.52789e-05
0.000508348
4.53954e-05
0.000473281
4.54679e-05
0.000438057
4.56883e-05
0.000402798
4.57193e-05
0.000367301
4.60464e-05
0.000331882
4.5929e-05
0.000296131
4.63669e-05
0.00026067
4.59967e-05
0.000224818
4.64566e-05
0.000189442
4.59268e-05
0.000153938
4.59259e-05
0.000118547
4.59995e-05
8.4453e-05
4.4034e-05
4.82097e-05
4.70513e-05
1.79975e-05
3.91179e-05
-2.02254e-05
4.91341e-05
-4.92815e-05
3.86877e-05
-7.60634e-05
3.2918e-05
-0.000121128
6.04526e-05
-0.000124308
1.98997e-06
-0.000199095
9.78146e-05
-0.000160501
-4.84217e-05
-0.000217093
6.61238e-05
-0.000322226
0.000151076
-0.000155304
-0.000232681
-0.000441839
0.000384029
-0.000203402
-0.000313761
-0.000445987
0.000303301
-0.000458797
4.80223e-05
-9.94686e-05
-0.000503705
-0.00094481
0.00114969
-0.000152432
-0.00107087
-0.000977644
0.00107012
-0.000734067
-0.000279402
-0.000334767
-0.00057796
-0.00146943
0.00157064
3.16475e-05
-0.00201892
-0.00164796
0.00221088
-0.00127162
-0.000462742
-0.000223574
-0.00144407
-0.00148712
0.00170471
-0.000627866
-0.00112304
-0.000178039
-0.000612593
-0.000435949
0.000317885
-0.0015214
0.00147474
-0.000969599
-0.00072312
2.51192e-06
-0.00129893
-1.05823e-05
0.0414559
0.0160285
-0.041153
0.0391637
0.015599
0.0352315
0.0131391
0.0309432
0.0103408
0.027027
0.00793569
0.0237371
0.00607407
0.0210621
0.00470849
0.018893
0.00372601
0.0171151
0.00301458
0.0156357
0.00248986
0.0143858
0.00209405
0.0133151
0.00178862
0.0123867
0.00154795
0.0115731
0.00135478
0.0108535
0.00119724
0.0102119
0.00106694
0.00963565
0.000957829
0.0091149
0.000865458
0.00864162
0.000786499
0.00820933
0.000718418
0.00781268
0.000659259
0.00744722
0.000607491
0.00710926
0.000561902
0.00679566
0.000521522
0.00650375
0.000485569
0.00623125
0.000453402
0.0059762
0.000424497
0.0057369
0.000398417
0.00551185
0.000374799
0.00529975
0.000353339
0.00509947
0.000333777
0.00490998
0.000315896
0.00473039
0.000299506
0.00455988
0.000284449
0.00439775
0.000270584
0.00424333
0.000257792
0.00409606
0.000245967
0.00395539
0.000235021
0.00382085
0.000224869
0.003692
0.000215447
0.00356843
0.000206686
0.00344979
0.000198541
0.00333572
0.000190951
0.00322592
0.000183888
0.0031201
0.000177295
0.00301798
0.000171162
0.00291932
0.00016543
0.00282387
0.000160106
0.00273144
0.000155126
0.00264179
0.000150514
0.00255474
0.000146198
0.0024701
0.000142222
0.00238771
0.0001385
0.00230738
0.000135098
0.00222898
0.000131915
0.00215232
0.000129038
0.00207729
0.000126347
0.00200372
0.000123955
0.0019315
0.00012172
0.00186047
0.000119778
0.00179053
0.000117968
0.00172154
0.000116447
0.0016534
0.000115037
0.00158596
0.00011391
0.00151916
0.000112878
0.00145284
0.000112117
0.00138693
0.000111443
0.0013213
0.000111014
0.0012559
0.000110675
0.00119059
0.000110533
0.00112533
0.000110496
0.00106003
0.000110574
0.000994627
0.000110801
0.000929099
0.000110993
0.000863329
0.000111457
0.000797456
0.000111592
0.000731194
0.000112308
0.000665022
0.000112101
0.000598253
0.000113136
0.000532016
0.000112234
0.000464939
0.000113534
0.000398924
0.000111942
0.000332256
0.000112594
0.000266326
0.000111928
0.000202022
0.000108338
0.000134486
0.000114587
7.71508e-05
9.64528e-05
4.53935e-06
0.000121745
-4.72243e-05
9.04523e-05
-0.000102447
8.81413e-05
-0.000180947
0.000138954
-0.000194323
1.53663e-05
-0.000328006
0.000231499
-0.000259196
-0.00011723
-0.000380332
0.000187262
-0.000534326
0.000305069
-0.000275539
-0.000491472
-0.000763035
0.000871519
-0.000349153
-0.00072765
-0.000814958
0.000769106
-0.000762992
-3.92762e-06
-0.000215545
-0.00105115
-0.00159739
0.00253152
-0.000268009
-0.00240026
-0.00177976
0.00258188
-0.00124869
-0.000810474
-0.000700052
-0.00112661
-0.00246155
0.00333213
9.09941e-05
-0.00457147
-0.0029055
0.00520738
-0.00211623
-0.00125203
-0.000509852
-0.00305044
-0.00259025
0.0037851
-0.000988582
-0.00272472
-0.000325441
-0.00127574
-0.000834578
0.000827026
-0.00258799
0.00322814
-0.00157202
-0.00173908
5.55725e-05
-0.00292653
2.47373e-05
0.0459184
0.0147295
-0.0446194
0.046
0.0155174
0.0444193
0.0147199
0.0416936
0.0130664
0.0384483
0.0111811
0.035142
0.00938034
0.0320424
0.00780806
0.0292639
0.0065045
0.0268253
0.00545319
0.0247005
0.00461468
0.0228483
0.00394624
0.0212268
0.00341014
0.0197987
0.00297602
0.0185329
0.00262063
0.0174037
0.00232647
0.0163902
0.00208041
0.0154755
0.00187253
0.0146456
0.00169532
0.0138892
0.00154298
0.0131965
0.00141104
0.0125598
0.00129596
0.0119724
0.00119495
0.0114285
0.00110576
0.0109234
0.0010266
0.010453
0.000955996
0.0100137
0.000892731
0.00960237
0.000835809
0.00921639
0.000784396
0.00885339
0.000737796
0.00851131
0.000695419
0.00818831
0.000656766
0.0078828
0.000621413
0.00759331
0.000588996
0.00731855
0.0005592
0.00705738
0.000531754
0.00680875
0.000506425
0.00657172
0.000483004
0.00634543
0.000461316
0.0061291
0.0004412
0.00592203
0.000422524
0.00572356
0.000405156
0.00553311
0.000389002
0.00535011
0.000373949
0.00517408
0.000359934
0.00500452
0.000346855
0.00484102
0.000334677
0.00468315
0.0003233
0.00453055
0.000312718
0.00438285
0.000302828
0.00423972
0.000293652
0.00410085
0.000285075
0.00396592
0.000277151
0.00383468
0.000269748
0.00370682
0.000262954
0.00358212
0.000256615
0.00346031
0.000250852
0.00334118
0.000245485
0.00322446
0.000240673
0.00310997
0.000236205
0.00299747
0.000232275
0.0028868
0.000228646
0.0027777
0.000225542
0.00267003
0.000222701
0.00256357
0.00022037
0.00245818
0.000218273
0.00235363
0.000216664
0.0022498
0.000215269
0.00214649
0.000214321
0.00204358
0.000213579
0.0019409
0.000213213
0.00183833
0.000213057
0.00173575
0.000213152
0.00163304
0.000213504
0.00153016
0.000213872
0.00142695
0.000214671
0.00132355
0.000214988
0.00121959
0.000216271
0.00111571
0.000215975
0.00101093
0.000217922
0.000906925
0.000216238
0.000801542
0.000218916
0.00069788
0.000215604
0.000592885
0.000217589
0.000489431
0.000215382
0.000387732
0.000210036
0.000281911
0.000220407
0.000190644
0.00018772
7.7948e-05
0.000234441
-2.2182e-06
0.000170618
-9.59908e-05
0.000181916
-0.000213366
0.00025633
-0.000243511
4.55169e-05
-0.000443105
0.000431094
-0.000346592
-0.00021374
-0.000547389
0.00038806
-0.000743958
0.000501632
-0.000402292
-0.000833139
-0.00110346
0.00157268
-0.000505311
-0.0013258
-0.00123003
0.00149383
-0.00108033
-0.000153686
-0.000370841
-0.00176064
-0.00227972
0.00444039
-0.000389837
-0.00429015
-0.00268858
0.00488062
-0.00180705
-0.00169202
-0.00118506
-0.00174857
-0.00348449
0.00563155
0.000185117
-0.00824108
-0.00428797
0.00968047
-0.00296427
-0.00257572
-0.000921528
-0.00509318
-0.00378127
0.00664484
-0.00128209
-0.00522391
-0.000512249
-0.00204557
-0.00130863
0.00162341
-0.0036858
0.00560531
-0.0021191
-0.00330578
0.000152132
-0.00519776
0.000117774
0.0493845
0.0135355
-0.0481906
0.0503474
0.0145545
0.0503644
0.0147029
0.0493409
0.0140899
0.0474947
0.0130272
0.0451186
0.0117565
0.0424842
0.0104424
0.0397981
0.00919057
0.0371952
0.00805613
0.0347499
0.00706001
0.0324943
0.00620181
0.0304344
0.00547002
0.0285618
0.00484865
0.0268614
0.00432101
0.0253162
0.00387172
0.0239091
0.00348746
0.0226246
0.00315707
0.0214485
0.00287142
0.0203684
0.00262303
0.0193736
0.00240585
0.0184547
0.00221494
0.0176033
0.00204627
0.0168126
0.00189653
0.0160762
0.001763
0.0153887
0.00164342
0.0147456
0.00153591
0.0141425
0.00143889
0.0135758
0.00135104
0.0130424
0.00127124
0.0125393
0.00119853
0.0120639
0.0011321
0.0116141
0.00107125
0.0111877
0.00101538
0.0107829
0.000963973
0.0103981
0.00091657
0.0100318
0.000872783
0.00968251
0.000832261
0.00934912
0.000794712
0.00903047
0.000759858
0.00872552
0.00072748
0.00843332
0.000697354
0.00815302
0.000669315
0.0078838
0.000643178
0.00762491
0.000618825
0.00737568
0.000596093
0.00713546
0.000574908
0.00690365
0.000555117
0.00667969
0.000536688
0.00646306
0.000519466
0.00625325
0.000503463
0.00604982
0.000488511
0.00585231
0.000474669
0.00566031
0.000461748
0.00547341
0.000449855
0.00529126
0.000438772
0.00511345
0.000428657
0.00493968
0.000419255
0.00476958
0.000410777
0.00460285
0.00040293
0.00443916
0.000395972
0.00427823
0.000389574
0.00411973
0.000384039
0.00396343
0.000379004
0.00380899
0.000374802
0.00365621
0.000371052
0.00350478
0.000368098
0.00335448
0.00036556
0.00320504
0.000363758
0.00305627
0.000362347
0.00290791
0.000361569
0.0027598
0.000361168
0.00261172
0.000361225
0.00246353
0.000361695
0.00231511
0.000362284
0.00216626
0.00036352
0.00201714
0.000364109
0.00186724
0.000366168
0.00171741
0.000365804
0.0015663
0.000369038
0.00141621
0.000366325
0.0012641
0.000371025
0.00111443
0.000365273
0.000962582
0.00036944
0.000813234
0.000364731
0.000665561
0.000357708
0.000513093
0.000372875
0.000379465
0.000321348
0.000217466
0.000396439
9.73675e-05
0.000290717
-4.07747e-05
0.000320059
-0.000202621
0.000418177
-0.000257871
0.00010077
-0.00053123
0.000704453
-0.000411792
-0.000333177
-0.000707836
0.000684107
-0.000941439
0.000735228
-0.000529513
-0.00124506
-0.00145442
0.00249758
-0.000667217
-0.00211301
-0.00168529
0.0025119
-0.00140857
-0.000430377
-0.000567857
-0.00260134
-0.00298158
0.00685409
-0.000514943
-0.00675681
-0.00369309
0.00805878
-0.00241028
-0.00297484
-0.00180523
-0.00235362
-0.00452715
0.00835346
0.000316032
-0.0130843
-0.00576823
0.0157647
-0.0038007
-0.00454326
-0.0014785
-0.00741537
-0.00503727
0.0102036
-0.00149712
-0.00876408
-0.000747669
-0.00279501
-0.00184811
0.00272386
-0.00478367
0.00854086
-0.00258542
-0.00550403
0.000300854
-0.00808402
0.000277969
0.0528428
0.0126377
-0.051945
0.0538707
0.0135267
0.0545537
0.0140198
0.0546217
0.0140219
0.054022
0.0136269
0.0528239
0.0129546
0.0511569
0.0121095
0.0491672
0.0111802
0.0469898
0.0102336
0.044735
0.00931474
0.0424853
0.00845153
0.0402967
0.00765866
0.0382037
0.00694163
0.0362249
0.00629986
0.0343675
0.00572907
0.0326318
0.00522313
0.0310137
0.00477518
0.0295068
0.0043784
0.0281034
0.00402643
0.0267957
0.00371352
0.0255761
0.00343459
0.0244371
0.00318523
0.023372
0.00296164
0.0223744
0.00276054
0.0214387
0.00257912
0.0205597
0.00241497
0.0197325
0.00226603
0.0189531
0.00213051
0.0182174
0.00200689
0.0175221
0.00189385
0.016864
0.00179023
0.0162402
0.00169504
0.0156481
0.00160742
0.0150855
0.00152661
0.0145501
0.00145195
0.01404
0.00138285
0.0135535
0.00131881
0.0130888
0.00125937
0.0126446
0.00120413
0.0122193
0.00115274
0.0118118
0.00110488
0.0114208
0.00106029
0.0110453
0.00101868
0.0106843
0.000979868
0.0103368
0.000943615
0.0100019
0.000909795
0.00967886
0.000878181
0.00936685
0.000848709
0.00906517
0.000821156
0.00877312
0.000795518
0.00849008
0.000771559
0.00821541
0.000749339
0.00794856
0.000728599
0.00768896
0.000709464
0.00743609
0.000691639
0.00718943
0.000675318
0.00694853
0.000660163
0.00671287
0.000646435
0.00648205
0.000633748
0.00625559
0.000622429
0.00603312
0.000612046
0.00581418
0.000602982
0.00559842
0.000594765
0.0053854
0.000587819
0.0051748
0.000581646
0.00496621
0.000576688
0.00475932
0.000572444
0.00455375
0.00056933
0.00434921
0.00056688
0.00414535
0.000565422
0.00394193
0.000564585
0.00373865
0.000564502
0.00353528
0.000565061
0.00333166
0.000565905
0.00312749
0.000567685
0.00292295
0.000568652
0.00271738
0.000571739
0.00251183
0.000571356
0.00230453
0.000576332
0.0020985
0.000572353
0.00188968
0.00057985
0.00168407
0.000570887
0.00147521
0.000578293
0.00127
0.000569948
0.00106609
0.000561611
0.000857005
0.000581962
0.000670842
0.00050751
0.000449292
0.000617989
0.000281263
0.000458745
8.85044e-05
0.00051282
-0.000127296
0.000633979
-0.000218732
0.00019221
-0.00057465
0.00106037
-0.000439275
-0.000468549
-0.00084705
0.00109189
-0.0011132
0.00100137
-0.000648013
-0.00171026
-0.00180322
0.00365278
-0.000826852
-0.00308939
-0.00217026
0.0038553
-0.00174236
-0.000858306
-0.000807581
-0.00353611
-0.00369044
0.00973693
-0.000639444
-0.00980782
-0.00477364
0.012193
-0.00305495
-0.00469354
-0.00257388
-0.00283467
-0.00558106
0.0113606
0.000479807
-0.0191451
-0.00730578
0.0235504
-0.00460664
-0.00724241
-0.00219687
-0.00982513
-0.00633282
0.0143395
-0.00163224
-0.0134647
-0.00103723
-0.00339
-0.00243629
0.00412294
-0.0058429
0.0119475
-0.00294417
-0.00840276
0.00051424
-0.0115424
0.000496046
0.056563
0.0119509
-0.0558762
0.0574161
0.0126735
0.0582122
0.0132237
0.0587384
0.0134958
0.0588723
0.013493
0.0585683
0.0132586
0.0578357
0.0128421
0.0567224
0.0122935
0.0552969
0.0116592
0.0536345
0.0109771
0.0518088
0.0102772
0.0498851
0.00958236
0.0479181
0.00890871
0.0459506
0.00826728
0.0440149
0.00766481
0.0421333
0.00710472
0.0403206
0.00658794
0.0385853
0.00611368
0.0369317
0.00568002
0.0353609
0.00528436
0.0338717
0.00492376
0.0324617
0.00459522
0.0311276
0.00429577
0.0298655
0.00402261
0.0286714
0.00377317
0.0275413
0.00354507
0.0264712
0.00333618
0.0254571
0.00314457
0.0244955
0.00296853
0.0235828
0.00280652
0.0227158
0.0026572
0.0218915
0.00251935
0.0211071
0.0023919
0.0203598
0.00227389
0.0196473
0.00216447
0.0189672
0.00206289
0.0183176
0.00196846
0.0176964
0.0018806
0.0171017
0.00179875
0.016532
0.00172245
0.0159857
0.00165124
0.0154612
0.00158477
0.0149572
0.00152266
0.0144725
0.00146463
0.0140058
0.00141034
0.0135559
0.00135963
0.0131219
0.00131217
0.0127028
0.00126786
0.0122976
0.00122639
0.0119054
0.00118775
0.0115253
0.00115161
0.0111566
0.00111804
0.0107985
0.00108668
0.0104503
0.00105769
0.0101113
0.00103067
0.00978074
0.00100587
0.00945806
0.000982839
0.00914259
0.000961902
0.00883378
0.000942558
0.008531
0.000925216
0.00823372
0.00090932
0.00794135
0.000895349
0.00765342
0.000882699
0.00736933
0.000871902
0.00708866
0.00086232
0.00681083
0.000854508
0.00653545
0.000847826
0.00626198
0.000842798
0.00599003
0.000838821
0.00571914
0.000836313
0.00544894
0.000834778
0.00517904
0.0008344
0.00490911
0.000834989
0.0046389
0.000836107
0.00436803
0.000838559
0.00409665
0.000840028
0.00382393
0.000844456
0.00355115
0.000844139
0.00327606
0.000851418
0.00300245
0.000845965
0.0027251
0.000857197
0.00245177
0.000844219
0.00217389
0.000856173
0.00190094
0.000842896
0.0016286
0.000833957
0.00135101
0.000859548
0.00110006
0.000758462
0.000806911
0.000911137
0.000579686
0.00068597
0.000320628
0.00077188
4.06687e-05
0.000913939
-0.000101308
0.00033419
-0.000549755
0.00150882
-0.000407493
-0.000610809
-0.000944887
0.00162929
-0.00124082
0.0012973
-0.000744197
-0.00220688
-0.00213226
0.00504083
-0.00097196
-0.00424969
-0.00266954
0.00555288
-0.00207312
-0.00145474
-0.00108779
-0.00452142
-0.0043931
0.0130422
-0.000758817
-0.0134421
-0.00590228
0.0173365
-0.00373222
-0.00686361
-0.00349691
-0.00306994
-0.00664399
0.0145077
0.000661873
-0.026451
-0.00885144
0.0330637
-0.00535953
-0.0107343
-0.00308138
-0.0121032
-0.00764512
0.0189033
-0.00170178
-0.0194081
-0.00138017
-0.00371159
-0.00304874
0.00579151
-0.00681952
0.0157182
-0.00316518
-0.0120571
0.000811634
-0.0155192
0.000736192
0.0605683
0.0113879
-0.0600053
0.0612524
0.0119893
0.0619667
0.0125094
0.0625884
0.0128741
0.0630198
0.0130615
0.0631971
0.0130813
0.0630846
0.0129546
0.0626719
0.0127063
0.0619691
0.0123619
0.061001
0.0119452
0.059802
0.0114762
0.0584118
0.0109726
0.0568716
0.0104489
0.0552215
0.00991737
0.0534985
0.00938789
0.0517348
0.00886835
0.049958
0.00836482
0.0481899
0.0078817
0.046448
0.00742196
0.044745
0.00698736
0.0430901
0.00657867
0.0414894
0.0061959
0.0399467
0.00583846
0.0384639
0.00550541
0.0370415
0.00519554
0.0356791
0.00490749
0.0343754
0.00463986
0.0331288
0.00439122
0.0319371
0.0041602
0.0307982
0.00394546
0.0297096
0.00374576
0.028669
0.00355994
0.027674
0.00338691
0.0267222
0.00322569
0.0258113
0.00307535
0.0249391
0.00293506
0.0241036
0.00280404
0.0233025
0.00268163
0.0225341
0.00256715
0.0217965
0.00246007
0.021088
0.00235982
0.0204068
0.00226597
0.0197514
0.00217803
0.0191204
0.00209568
0.0185122
0.00201847
0.0179257
0.00194618
0.0173595
0.00187839
0.0168124
0.00181498
0.0162832
0.00175555
0.0157709
0.00170006
0.0152744
0.00164809
0.0147928
0.00159971
0.014325
0.00155447
0.0138701
0.00151256
0.0134273
0.00147346
0.0129957
0.00143748
0.0125745
0.00140404
0.0121629
0.00137354
0.0117601
0.00134536
0.0113653
0.00131998
0.0109779
0.00129672
0.0105971
0.00127616
0.0102223
0.00125754
0.00985266
0.00124152
0.00948766
0.00122731
0.00912658
0.00121559
0.00876885
0.00120555
0.00841379
0.00119785
0.00806089
0.00119172
0.00770951
0.00118769
0.00735917
0.00118511
0.00700933
0.00118423
0.00665955
0.00118477
0.00630949
0.00118617
0.0059586
0.00118945
0.00560705
0.00119158
0.00525376
0.00119774
0.00490026
0.00119764
0.00454376
0.00120792
0.00418888
0.00120084
0.00382912
0.00121696
0.00347418
0.00119916
0.00311307
0.00121728
0.00275834
0.00119762
0.00240306
0.00118924
0.00204285
0.00121975
0.00171244
0.00108888
0.00133348
0.0012901
0.00103305
0.000986403
0.000691924
0.001113
0.000330029
0.00127584
0.000128448
0.000535775
-0.000425566
0.00206283
-0.000286547
-0.000749825
-0.000974153
0.0023169
-0.00129939
0.00162252
-0.000798483
-0.00270779
-0.00241793
0.00666027
-0.00108466
-0.00558296
-0.00316045
0.00762867
-0.00238663
-0.00222859
-0.00140102
-0.00550701
-0.00507566
0.0167168
-0.000868024
-0.0176498
-0.00704292
0.0235114
-0.00442536
-0.00948119
-0.00456674
-0.00292858
-0.00771959
0.0176605
0.000833823
-0.0350044
-0.0103516
0.0442492
-0.00603084
-0.0150552
-0.00411601
-0.014018
-0.00895621
0.0237435
-0.00173954
-0.0266248
-0.00176676
-0.00368436
-0.00365319
0.00767797
-0.00766378
0.0197288
-0.00321334
-0.0165076
0.00122303
-0.0199556
0.000927081
0.0648525
0.0109035
-0.0643681
0.0654177
0.0114241
0.0660251
0.011902
0.0666096
0.0122896
0.0671085
0.0125626
0.0674734
0.0127165
0.0676687
0.0127593
0.0676706
0.0127044
0.0674659
0.0125666
0.0670504
0.0123607
0.0664278
0.0120989
0.0656086
0.0117918
0.0646086
0.0114489
0.0634477
0.0110782
0.0621486
0.010687
0.0607354
0.0102816
0.0592324
0.00986781
0.0576631
0.00945103
0.0560491
0.0090359
0.0544101
0.00862646
0.0527627
0.00822608
0.0511211
0.00783744
0.049497
0.00746259
0.0478994
0.00710295
0.0463355
0.00675945
0.0448105
0.00643254
0.043328
0.00612235
0.0418905
0.00582872
0.0404994
0.00555128
0.0391554
0.0052895
0.0378584
0.00504276
0.0366079
0.0048104
0.0354031
0.00459169
0.0342429
0.0043859
0.0331259
0.00419233
0.0320507
0.00401027
0.0310157
0.00383904
0.0300193
0.003678
0.02906
0.00352653
0.028136
0.00338408
0.0272457
0.00325008
0.0263876
0.00312407
0.0255601
0.00300552
0.0247617
0.00289408
0.023991
0.00278924
0.0232464
0.00269076
0.0225266
0.00259816
0.0218303
0.00251129
0.0211562
0.00242966
0.0205031
0.00235324
0.0198696
0.00228153
0.0192547
0.0022146
0.0186573
0.00215191
0.0180762
0.00209367
0.0175104
0.00203927
0.0169588
0.00198906
0.0164205
0.00194233
0.0158945
0.00189959
0.0153798
0.00186004
0.0148755
0.0018243
0.0143807
0.00179151
0.0138944
0.00176239
0.013416
0.001736
0.0129443
0.00171315
0.0124788
0.00169286
0.0120184
0.00167596
0.0115625
0.00166147
0.0111102
0.00165017
0.0106608
0.00164115
0.0102134
0.00163501
0.00976756
0.00163098
0.00932246
0.00162933
0.00887749
0.00162972
0.00843223
0.00163143
0.00798592
0.00163576
0.00753874
0.00163875
0.0070893
0.00164719
0.00663942
0.00164752
0.00618562
0.00166172
0.00573353
0.00165294
0.0052751
0.00167539
0.00482228
0.00165197
0.00436127
0.0016783
0.0039082
0.00165069
0.00345286
0.00164458
0.00299331
0.0016793
0.00256594
0.00151624
0.00208438
0.00177166
0.00169364
0.00137714
0.0012524
0.00155425
0.000795057
0.00173318
0.000514633
0.000816203
-0.000162754
0.00274022
-3.02692e-05
-0.000882307
-0.000898861
0.0031855
-0.00125526
0.0019789
-0.000783361
-0.00317968
-0.00262899
0.00850588
-0.00113976
-0.00707221
-0.00361204
0.010101
-0.00266104
-0.00317962
-0.00173182
-0.0064362
-0.00572251
0.0207075
-0.000961157
-0.0224111
-0.00815296
0.0307032
-0.00510739
-0.0125268
-0.00575495
-0.00228085
-0.00881349
0.020719
0.000952997
-0.0447709
-0.011755
0.0569572
-0.00658462
-0.0202256
-0.00525326
-0.0153494
-0.0102517
0.0287419
-0.00179884
-0.0350776
-0.00217538
-0.0033078
-0.00420975
0.00971235
-0.00831994
0.023839
-0.003045
-0.0217825
0.0017937
-0.0247943
0.000951457
0.0694245
0.0104761
-0.0689971
0.0699079
0.0109407
0.0704282
0.0113817
0.0709498
0.011768
0.071433
0.0120794
0.071844
0.0123055
0.0721568
0.0124464
0.0723521
0.0125091
0.0724156
0.0125031
0.0723374
0.0124388
0.0721107
0.0123257
0.0717314
0.012171
0.0711992
0.0119812
0.0705162
0.0117613
0.0696879
0.0115153
0.0687228
0.0112466
0.0676321
0.0109585
0.0664291
0.010654
0.0651289
0.0103362
0.0637471
0.0100082
0.0622999
0.00967327
0.0608029
0.00933446
0.0592708
0.00899471
0.057717
0.0086567
0.0561537
0.0083228
0.0545912
0.00799506
0.0530384
0.00767515
0.0515027
0.0073644
0.0499901
0.00706382
0.0485055
0.00677413
0.0470525
0.00649579
0.0456338
0.00622907
0.0442514
0.00597405
0.0429067
0.00573068
0.0416002
0.00549878
0.0403324
0.00527812
0.039103
0.00506838
0.0379118
0.00486923
0.0367581
0.00468028
0.035641
0.00450116
0.0345596
0.00433145
0.0335129
0.00417079
0.0324997
0.00401874
0.0315188
0.003875
0.0305689
0.0037391
0.0296489
0.00361084
0.0287573
0.00348971
0.027893
0.00337561
0.0270547
0.00326801
0.026241
0.00316691
0.0254508
0.00307174
0.0246828
0.00298263
0.0239358
0.00289894
0.0232085
0.00282095
0.0224998
0.00274793
0.0218086
0.00268032
0.0211336
0.00261729
0.0204738
0.00255943
0.019828
0.00250581
0.0191951
0.00245718
0.0185742
0.00241249
0.0179639
0.00237263
0.0173635
0.00233647
0.0167716
0.00230497
0.0161875
0.00227697
0.01561
0.00225347
0.0150382
0.00223328
0.014471
0.00221736
0.0139075
0.00220459
0.0133469
0.0021957
0.012788
0.00218978
0.0122303
0.00218708
0.0116727
0.00218729
0.0111148
0.00218936
0.0105555
0.00219506
0.00999501
0.00219923
0.00943153
0.00221066
0.00886726
0.00221179
0.00829788
0.0022311
0.00773013
0.00222069
0.00715421
0.00225131
0.00658458
0.00222159
0.00600422
0.00225866
0.00543342
0.00222149
0.00485795
0.00222004
0.00427934
0.00225792
0.00373434
0.00206124
0.00313032
0.00237568
0.00262867
0.00187879
0.00206618
0.00211674
0.0014954
0.00230396
0.0011128
0.00119882
0.000302545
0.00355047
0.000369927
-0.000949686
-0.000672483
0.00422791
-0.0010628
0.0023692
-0.00066114
-0.00358134
-0.00272443
0.0105692
-0.0011023
-0.00869435
-0.00398314
0.0129818
-0.00286383
-0.00429895
-0.00205349
-0.0072465
-0.00631347
0.0249674
-0.00102975
-0.0276949
-0.0091847
0.0388581
-0.00573906
-0.0159725
-0.00700666
-0.00101341
-0.00992459
0.0236369
0.000967928
-0.0556635
-0.0130167
0.0709418
-0.00697508
-0.0262672
-0.00640507
-0.0159193
-0.0115121
0.0338488
-0.00194416
-0.0446456
-0.00256935
-0.00268259
-0.00467084
0.0118139
-0.00872406
0.0278922
-0.00260317
-0.0279034
0.00258936
-0.0299868
0.000639522
0.0743038
0.0100931
-0.0739209
0.074728
0.0105165
0.0751825
0.0109272
0.0756464
0.0113041
0.0760941
0.0116318
0.0765008
0.0118988
0.0768468
0.0121004
0.0771175
0.0122384
0.0773025
0.0123181
0.0773944
0.0123469
0.0773876
0.0123325
0.0772768
0.0122818
0.0770577
0.0122003
0.0767264
0.0120926
0.0762798
0.0119619
0.075716
0.0118105
0.0750347
0.0116398
0.0742377
0.011451
0.0733288
0.011245
0.0723142
0.0110228
0.0712017
0.0107858
0.0700008
0.0105354
0.0687222
0.0102733
0.0673772
0.0100017
0.0659774
0.00972258
0.0645343
0.00943814
0.0630589
0.00915053
0.0615615
0.0088618
0.0600515
0.00857384
0.0585372
0.00828836
0.0570262
0.00800683
0.0555247
0.00773053
0.0540383
0.00746052
0.0525713
0.00719766
0.0511275
0.00694259
0.0497098
0.00669582
0.0483205
0.00645769
0.0469612
0.00622845
0.0456333
0.0060082
0.0443375
0.005797
0.0430742
0.00559478
0.0418435
0.00540151
0.0406452
0.00521697
0.0394791
0.00504113
0.0383446
0.00487364
0.037241
0.00471449
0.0361674
0.00456325
0.0351231
0.00441996
0.034107
0.00428412
0.0331181
0.00415584
0.0321553
0.00403454
0.0312174
0.00392047
0.0303034
0.00381292
0.0294121
0.0037123
0.0285423
0.00361777
0.0276927
0.00352993
0.0268621
0.00344779
0.0260494
0.00337214
0.0252534
0.00330184
0.0244727
0.00323785
0.0237063
0.00317892
0.0229528
0.00312614
0.0222111
0.00307818
0.0214798
0.0030362
0.020758
0.00299883
0.0200442
0.00296726
0.0193373
0.00294012
0.0186362
0.00291851
0.0179396
0.00290116
0.0172464
0.00288888
0.0165555
0.00288067
0.0158659
0.00287672
0.0151764
0.00287681
0.0144863
0.00287942
0.0137943
0.00288705
0.0131007
0.00289285
0.012403
0.00290832
0.011704
0.0029108
0.0109983
0.00293687
0.0102938
0.0029251
0.00957887
0.00296629
0.0088707
0.00292976
0.00814857
0.00298079
0.00743755
0.00293251
0.00671862
0.00293898
0.00599785
0.00297868
0.00531095
0.00274814
0.00456113
0.00312551
0.00392398
0.00251593
0.00321544
0.00282529
0.0025092
0.0030102
0.00199691
0.00171111
0.00104028
0.00450709
0.00101224
-0.000921644
-0.000239022
0.00547919
-0.000659049
0.00278921
-0.000382232
-0.00385814
-0.00265037
0.0128373
-0.000924134
-0.0104206
-0.00422041
0.0162781
-0.00294825
-0.00557114
-0.00232441
-0.00787031
-0.00681869
0.0294616
-0.00105908
-0.0334545
-0.0100856
0.0478847
-0.00626495