/*--------------------------------*- C++ -*----------------------------------*\
| =========                 |                                                 |
| \\      /  F ield         | OpenFOAM: The Open Source CFD Toolbox           |
|  \\    /   O peration     | Version:  2412                                  |
|   \\  /    A nd           | Website:  www.openfoam.com                      |
|    \\/     M anipulation  |                                                 |
\*---------------------------------------------------------------------------*/
FoamFile
{
    version     2.0;
    format      ascii;
    arch        "LSB;label=32;scalar=64";
    class       volScalarField;
    location    "0.76";
    object      Co;
}
// * * * * * * * * * * * * * * * * * * * * * * * * * * * * * * * * * * * * * //

dimensions      [0 0 0 0 0 0 0];

internalField   nonuniform List<scalar> 
12600
(
0.314295
0.17643
0.0999508
0.0629157
0.0449668
0.0350573
0.0286637
0.0240858
0.0206133
0.0178783
0.0156641
0.0138341
0.012297
0.0109891
0.00986416
0.00888799
0.00803449
0.00728342
0.0066188
0.00602784
0.00550014
0.00502716
0.00460183
0.0042182
0.00387126
0.00355676
0.00327105
0.00301097
0.00277381
0.0025572
0.00235905
0.00217754
0.00201107
0.0018582
0.00171768
0.00158838
0.00146929
0.00135951
0.00125823
0.00116472
0.00107833
0.000998457
0.000924566
0.000856171
0.000792827
0.000734133
0.00067972
0.000629254
0.000582429
0.000538966
0.000498608
0.000461121
0.000426288
0.000393914
0.000363814
0.000335825
0.000309788
0.000285568
0.000263028
0.000242054
0.000222529
0.000204356
0.000187435
0.000171686
0.000157018
0.000143369
0.000130656
0.000118831
0.000107818
9.75815e-05
8.80505e-05
7.92006e-05
7.09653e-05
6.33304e-05
5.62318e-05
4.96655e-05
4.35684e-05
3.79458e-05
3.27352e-05
2.79499e-05
2.35276e-05
1.94878e-05
1.57694e-05
1.23951e-05
9.30673e-06
6.52663e-06
4.0021e-06
2.03516e-06
2.1748e-06
3.84623e-06
5.30708e-06
6.57587e-06
7.66996e-06
8.60355e-06
9.37804e-06
1.00905e-05
1.04867e-05
1.12199e-05
1.1498e-05
1.08644e-05
1.39274e-05
1.31179e-05
1.21328e-05
1.80527e-05
1.69828e-05
1.66127e-05
2.20921e-05
2.07578e-05
2.39233e-05
2.57558e-05
3.19199e-05
3.34685e-05
5.56766e-05
5.21896e-05
1.59487e-05
2.59991e-05
3.85001e-05
3.60346e-05
2.33308e-05
1.24902e-05
0.477174
0.375995
0.276068
0.202312
0.153054
0.120507
0.0982177
0.0821355
0.0699776
0.0604505
0.0527788
0.0464695
0.0411935
0.0367218
0.0328898
0.0295754
0.0266863
0.024151
0.0219132
0.0199282
0.0181596
0.0165777
0.0151578
0.0138795
0.0127254
0.0116808
0.0107333
0.00987196
0.00908761
0.0083721
0.00771838
0.00712024
0.00657224
0.00606956
0.00560793
0.00518355
0.00479304
0.00443336
0.00410181
0.00379594
0.00351355
0.00325266
0.00301148
0.00278838
0.00258189
0.00239067
0.0022135
0.00204928
0.00189698
0.00175569
0.00162455
0.0015028
0.00138971
0.00128466
0.00118702
0.00109626
0.00101186
0.000933371
0.000860348
0.000792418
0.000729192
0.000670362
0.000615587
0.000564617
0.000517149
0.000472983
0.000431845
0.000393581
0.00035794
0.000324808
0.000293951
0.000265295
0.000238615
0.000213873
0.000190852
0.000169546
0.000149743
0.000131467
0.000114507
9.89147e-05
8.44787e-05
7.12719e-05
5.90869e-05
4.8007e-05
3.78363e-05
2.86541e-05
2.02881e-05
1.27924e-05
7.76164e-06
8.90996e-06
1.36596e-05
1.77896e-05
2.13723e-05
2.44378e-05
2.69869e-05
2.94155e-05
3.05405e-05
3.35678e-05
3.35284e-05
3.22599e-05
4.34897e-05
4.04128e-05
3.99844e-05
5.63505e-05
5.75862e-05
6.23115e-05
6.60545e-05
7.3544e-05
9.35203e-05
7.13538e-05
0.000111027
0.000132196
0.000182527
0.000179717
5.17478e-05
9.85605e-05
0.000123507
0.000111947
8.81207e-05
5.11319e-05
0.511657
0.467935
0.396772
0.325084
0.264284
0.216316
0.1795
0.151226
0.129177
0.111639
0.097418
0.0856862
0.0758656
0.0675428
0.0604154
0.0542574
0.0488963
0.0441981
0.0400573
0.0363894
0.033126
0.030211
0.0275982
0.0252489
0.0231306
0.0212156
0.0194806
0.0179052
0.0164721
0.0151661
0.0139741
0.0128845
0.0118871
0.0109729
0.0101342
0.0093637
0.00865526
0.00800325
0.00740265
0.00684894
0.00633808
0.00586642
0.00543064
0.00502778
0.00465512
0.0043102
0.00399079
0.00369487
0.00342057
0.00316621
0.00293023
0.00271123
0.0025079
0.00231908
0.00214365
0.00198064
0.0018291
0.00168822
0.00155718
0.00143531
0.00132191
0.00121641
0.00111821
0.00102683
0.000941749
0.000862589
0.00078886
0.000720282
0.0006564
0.000597012
0.00054169
0.000490303
0.000442443
0.000398044
0.00035671
0.000318436
0.00028283
0.000249946
0.000219392
0.000191272
0.000165197
0.000141305
0.000119217
9.90903e-05
8.05689e-05
6.37995e-05
4.8475e-05
3.46888e-05
2.22324e-05
1.6574e-05
2.06827e-05
2.79951e-05
3.43728e-05
3.98262e-05
4.43614e-05
4.88374e-05
5.04553e-05
5.70339e-05
5.51239e-05
5.41905e-05
7.68909e-05
7.11098e-05
7.48378e-05
9.93731e-05
0.000111344
0.000129736
0.000110349
0.000148082
0.00020158
0.000115368
0.000223699
0.000291072
0.000336741
0.000360579
9.60691e-05
0.000210813
0.000223194
0.000204365
0.000188505
0.000112253
0.503629
0.490408
0.452569
0.402267
0.349963
0.301362
0.258918
0.223066
0.193213
0.168419
0.147741
0.130371
0.115656
0.103086
0.0922631
0.0828783
0.0746881
0.0674992
0.0611569
0.0555358
0.0505334
0.0460652
0.0420608
0.0384614
0.0352172
0.0322859
0.0296313
0.0272224
0.0250323
0.0230377
0.0212182
0.0195561
0.0180355
0.0166428
0.0153656
0.0141931
0.0131157
0.0121246
0.0112122
0.0103715
0.00959621
0.00888081
0.00822018
0.00760974
0.00704532
0.00652317
0.00603986
0.00559227
0.00517756
0.00479315
0.00443666
0.00410594
0.003799
0.00351406
0.00324941
0.00300356
0.00277509
0.00256274
0.00236528
0.00218168
0.00201087
0.001852
0.00170413
0.00156657
0.00143849
0.00131934
0.00120837
0.00110515
0.001009
0.000919595
0.000836306
0.000758922
0.000686832
0.000619927
0.000557616
0.000499881
0.00044614
0.00039646
0.000350263
0.00030769
0.000268168
0.000231894
0.000198309
0.000167636
0.000139355
0.000113675
9.01518e-05
6.89118e-05
4.96632e-05
3.23794e-05
2.78951e-05
3.63278e-05
4.5884e-05
5.40469e-05
6.08489e-05
6.77251e-05
6.97408e-05
8.09693e-05
7.58076e-05
7.65757e-05
0.000112677
0.000103808
0.000116225
0.000144147
0.000174148
0.000216229
0.000150813
0.000237523
0.000342224
0.000168068
0.000357505
0.000502661
0.000501341
0.000585755
0.000146534
0.000361949
0.000326937
0.000312166
0.000318551
0.000193017
0.487474
0.482702
0.464545
0.434708
0.398138
0.359134
0.320784
0.284989
0.252665
0.224058
0.199022
0.177222
0.15826
0.141742
0.127312
0.114663
0.103533
0.0937022
0.0849869
0.0772338
0.0703141
0.0641197
0.0585588
0.0535538
0.0490383
0.0449554
0.0412561
0.0378979
0.0348442
0.0320628
0.0295256
0.0272079
0.0250879
0.0231465
0.0213666
0.019733
0.0182322
0.0168521
0.0155819
0.014412
0.0133334
0.0123385
0.0114201
0.0105717
0.00978752
0.00906233
0.0083913
0.00777007
0.00719465
0.00666144
0.00616711
0.00570867
0.0052833
0.00488852
0.00452195
0.00418153
0.00386523
0.00357133
0.00329809
0.00304407
0.0028078
0.00258807
0.00238359
0.00219339
0.00201631
0.00185158
0.00169817
0.00155547
0.00142254
0.00129892
0.00118375
0.00107671
0.000976979
0.00088438
0.000798109
0.000718124
0.000643633
0.000574709
0.000510571
0.000451391
0.000396399
0.00034584
0.00029897
0.000256069
0.000216451
0.000180373
0.000147261
0.000117256
8.99963e-05
6.53937e-05
4.40786e-05
4.17218e-05
5.4928e-05
6.62005e-05
7.56304e-05
8.52932e-05
8.7769e-05
0.000104573
9.51078e-05
9.90527e-05
0.000149518
0.000136855
0.000163169
0.000188321
0.000242144
0.000318573
0.000184529
0.000335596
0.000508811
0.000232791
0.000501161
0.000757517
0.000661636
0.000845497
0.000193154
0.000541339
0.000424542
0.00043343
0.00047215
0.000290554
0.473309
0.467659
0.456754
0.438888
0.415174
0.387487
0.357718
0.327499
0.298055
0.270194
0.244376
0.220797
0.199472
0.180305
0.163136
0.147783
0.134057
0.121778
0.11078
0.100915
0.0920522
0.0840742
0.0768801
0.0703812
0.0645002
0.0591693
0.0543293
0.0499283
0.0459207
0.0422663
0.0389297
0.0358795
0.0330878
0.0305301
0.0281843
0.0260307
0.0240519
0.022232
0.0205569
0.0190139
0.0175915
0.0162795
0.0150684
0.0139499
0.0129161
0.0119602
0.0110758
0.0102573
0.00949916
0.00879681
0.00814578
0.00754213
0.00698213
0.00646249
0.00598009
0.00553216
0.00511605
0.00472945
0.0043701
0.00403608
0.00372542
0.00343655
0.00316776
0.00291775
0.00268501
0.0024685
0.00226687
0.00207931
0.00190458
0.00174207
0.00159065
0.00144988
0.0013187
0.00119684
0.00108328
0.000977931
0.000879771
0.000788866
0.00070422
0.000626022
0.000553295
0.000486324
0.000424167
0.000367157
0.000314431
0.000266291
0.000222026
0.000181785
0.000145142
0.000111933
8.21199e-05
5.98463e-05
6.03948e-05
7.52662e-05
8.77745e-05
0.000100656
0.000103806
0.000126954
0.000112477
0.000121086
0.000186109
0.000168507
0.000214345
0.000229953
0.000311705
0.000433012
0.000209556
0.000436622
0.000694059
0.000307219
0.000644346
0.00104404
0.000805481
0.00112948
0.000229131
0.000738425
0.00050659
0.00056555
0.000643144
0.000402082
0.462045
0.45374
0.443923
0.43088
0.414339
0.39474
0.372816
0.34941
0.325341
0.301307
0.277862
0.25541
0.234217
0.214436
0.196132
0.179301
0.163896
0.149841
0.137042
0.125403
0.114822
0.105206
0.0964624
0.0885094
0.0812702
0.0746756
0.0686629
0.0631759
0.058164
0.0535818
0.0493887
0.0455482
0.0420275
0.0387974
0.0358312
0.0331054
0.0305986
0.0282914
0.0261666
0.0242083
0.0224023
0.0207358
0.0191971
0.0177756
0.0164617
0.0152465
0.0141222
0.0130814
0.0121176
0.0112245
0.0103967
0.00962922
0.00891723
0.00825658
0.00764331
0.00707389
0.00654495
0.00605356
0.00559682
0.0051723
0.00477751
0.0044104
0.00406883
0.00375112
0.00345537
0.00318024
0.002924
0.00268562
0.00246354
0.00225695
0.00206443
0.00188541
0.00171854
0.00156348
0.00141892
0.00128473
0.00115965
0.00104371
0.000935688
0.000835782
0.000742787
0.000657025
0.00057734
0.000504113
0.000436294
0.000374222
0.000317049
0.000264918
0.000217346
0.000174072
0.000135127
9.97575e-05
7.72312e-05
8.0035e-05
9.61738e-05
0.000112765
0.000116958
0.000147096
0.000127245
0.000141953
0.000221139
0.000196954
0.000268131
0.000267487
0.000379479
0.00055537
0.000224879
0.000535585
0.000890331
0.000389898
0.000794425
0.00136434
0.00092375
0.00142709
0.000250397
0.000942339
0.000564812
0.000705349
0.000825515
0.000524939
0.452738
0.442367
0.431792
0.419961
0.40641
0.391096
0.374198
0.356023
0.336945
0.317347
0.29759
0.277995
0.258835
0.240325
0.222629
0.205859
0.190082
0.175331
0.161604
0.148879
0.13712
0.126277
0.116295
0.107117
0.0986839
0.0909395
0.0838288
0.0773002
0.0713051
0.0657988
0.0607397
0.0560897
0.0518139
0.0478804
0.0442599
0.0409259
0.0378543
0.0350228
0.0324114
0.0300018
0.0277773
0.0257227
0.0238242
0.022069
0.0204456
0.0189435
0.017553
0.0162654
0.0150724
0.0139668
0.0129418
0.0119911
0.0111091
0.0102906
0.00953062
0.00882493
0.00816935
0.00756026
0.00699409
0.00646781
0.00597835
0.00552319
0.00509967
0.0047057
0.00433894
0.00399769
0.00367988
0.00338415
0.00310861
0.00285225
0.00261329
0.00239103
0.0021838
0.00199114
0.00181148
0.00164461
0.00148899
0.00134463
0.00121004
0.00108543
0.000969341
0.000862133
0.000762417
0.000670616
0.000585482
0.000507385
0.000435333
0.000369452
0.000309209
0.000254224
0.000204622
0.000159381
0.000119276
9.5083e-05
9.95344e-05
0.000120405
0.000126155
0.000163848
0.000138593
0.000160742
0.000253283
0.000220344
0.000322654
0.000299706
0.000442424
0.000681223
0.000230267
0.000628173
0.00108997
0.000478091
0.00093667
0.0016973
0.00101055
0.00172771
0.00025528
0.00114192
0.00059243
0.000849207
0.00101359
0.000656659
0.444703
0.433004
0.421516
0.409654
0.397056
0.383586
0.369258
0.354168
0.33846
0.322299
0.305857
0.289302
0.272799
0.256499
0.240537
0.225031
0.210079
0.195759
0.182127
0.169219
0.157053
0.145634
0.134951
0.124985
0.11571
0.107095
0.0991036
0.0917002
0.0848475
0.078509
0.0726488
0.0672326
0.0622277
0.0576034
0.0533306
0.0493825
0.0457338
0.0423614
0.0392436
0.0363605
0.0336938
0.0312265
0.0289432
0.0268294
0.024872
0.0230588
0.0213788
0.0198217
0.018378
0.0170391
0.0157971
0.0146445
0.0135746
0.0125813
0.0116587
0.0108018
0.0100054
0.00926524
0.00857709
0.00793728
0.0073421
0.00678851
0.0062733
0.00579394
0.0053476
0.00493223
0.00454531
0.00418519
0.00384959
0.00353725
0.00324605
0.00297509
0.00272238
0.00248734
0.00226807
0.00206428
0.00187414
0.00169761
0.00153293
0.0013803
0.00123799
0.00110639
0.000983862
0.000870862
0.000765932
0.00066947
0.000580331
0.000498614
0.000423742
0.000355193
0.000293206
0.000236461
0.000186016
0.000140113
0.000113246
0.000122152
0.00013012
0.000175903
0.000145508
0.000176346
0.000281167
0.00023679
0.000375845
0.000325653
0.000497825
0.000806075
0.000246589
0.00071082
0.00128564
0.000568173
0.00106382
0.00202697
0.00106303
0.00202099
0.000244305
0.00132618
0.000584451
0.000993233
0.00120225
0.000795182
0.4376
0.425049
0.412858
0.400693
0.3883
0.375543
0.362388
0.348866
0.335044
0.321002
0.306818
0.29257
0.278332
0.264176
0.250172
0.236388
0.222889
0.209738
0.196989
0.184691
0.172886
0.161603
0.150866
0.140686
0.131067
0.122006
0.113494
0.105515
0.0980503
0.0910793
0.0845783
0.0785227
0.0728874
0.0676475
0.0627783
0.0582559
0.0540572
0.0501601
0.0465438
0.0431886
0.0400757
0.0371877
0.0345085
0.0320227
0.0297162
0.0275758
0.0255894
0.0237455
0.0220337
0.0204442
0.0189681
0.017597
0.0163231
0.0151394
0.0140392
0.0130166
0.0120656
0.0111814
0.0103588
0.00959364
0.00888155
0.00821895
0.00760204
0.00702784
0.00649302
0.00599513
0.00553117
0.00509921
0.00469652
0.0043216
0.00397193
0.00364643
0.00334273
0.00306012
0.00279635
0.00255105
0.00232204
0.00210926
0.00191062
0.00172633
0.00155436
0.00139512
0.00124669
0.00110959
0.000982104
0.000864673
0.000755983
0.0006561
0.000564401
0.000480207
0.00040389
0.000333791
0.000271302
0.0002142
0.000163072
0.000136043
0.000127321
0.000181781
0.000146733
0.000187454
0.000303334
0.000244372
0.000425497
0.000344515
0.000543261
0.000925556
0.000277111
0.000780641
0.00147072
0.000656068
0.0011716
0.00233917
0.00108082
0.002297
0.000219688
0.00148483
0.000537849
0.00113985
0.00139301
0.000938777
0.43125
0.418125
0.405433
0.392965
0.380551
0.368065
0.355454
0.342718
0.32989
0.317019
0.304158
0.291352
0.278638
0.266051
0.253619
0.241367
0.22932
0.217503
0.205944
0.194672
0.183714
0.173098
0.16285
0.152991
0.143539
0.134509
0.125908
0.11774
0.110005
0.102697
0.0958088
0.0893284
0.0832426
0.0775363
0.0721929
0.0671951
0.0625254
0.0581659
0.0540989
0.0503072
0.046774
0.0434829
0.0404186
0.037566
0.0349113
0.032441
0.0301426
0.0280043
0.026015
0.0241645
0.0224429
0.0208412
0.0193511
0.0179646
0.0166743
0.0154737
0.0143561
0.013316
0.0123475
0.011446
0.0106063
0.00982449
0.00909611
0.00841774
0.00778553
0.00719665
0.00664762
0.00613618
0.00565916
0.0052148
0.00480018
0.00441399
0.00405349
0.00371781
0.00340434
0.0031126
0.00284006
0.00258664
0.00234987
0.00212997
0.00192458
0.00173415
0.00155646
0.00139206
0.001239
0.00109772
0.000966751
0.000846113
0.000735137
0.00063297
0.000540135
0.000454604
0.000378141
0.000307997
0.000245102
0.000192859
0.00014029
0.000179821
0.000140708
0.000192555
0.000318184
0.000241113
0.000469317
0.000355477
0.000576558
0.00103555
0.000304101
0.000835379
0.00163947
0.000737681
0.00125724
0.0026209
0.00106506
0.00254642
0.000184546
0.00160873
0.000451604
0.0013298
0.00162574
0.00108604
0.425522
0.411998
0.398948
0.386233
0.373736
0.361354
0.349022
0.336719
0.324451
0.312248
0.300145
0.288179
0.276381
0.264775
0.253378
0.242201
0.231251
0.220531
0.210043
0.199793
0.189788
0.180035
0.170545
0.161332
0.152408
0.143786
0.135477
0.127493
0.119841
0.112528
0.105555
0.0989226
0.0926294
0.0866701
0.0810379
0.0757243
0.0707193
0.0660117
0.0615895
0.0574402
0.0535508
0.0499083
0.0464997
0.0433121
0.040333
0.0375501
0.0349517
0.0325263
0.0302632
0.0281521
0.0261832
0.0243472
0.0226353
0.0210394
0.0195515
0.0181647
0.0168719
0.0156669
0.0145435
0.0134965
0.0125202
0.0116102
0.0107616
0.00997048
0.00923259
0.0085447
0.00790287
0.00730453
0.00674606
0.00622544
0.00573933
0.00528623
0.00486299
0.00446859
0.00410003
0.00375673
0.0034358
0.00313708
0.00285775
0.00259805
0.00235524
0.00212982
0.00191922
0.00172408
0.00154213
0.00137387
0.00121762
0.00107338
0.000940411
0.000817688
0.000705896
0.000602602
0.000509993
0.000424723
0.000348172
0.000283691
0.000208159
0.000203214
0.000125439
0.000189956
0.0003239
0.000224936
0.000504969
0.000357552
0.000595698
0.0011323
0.000323681
0.000873291
0.00178709
0.000809215
0.00131915
0.00286094
0.00101741
0.00276082
0.000142037
0.00169026
0.000326543
0.00151691
0.00185944
0.00123587
0.420324
0.406515
0.393207
0.380301
0.367713
0.355361
0.343183
0.331145
0.319234
0.307457
0.295833
0.284389
0.273151
0.26214
0.251375
0.240867
0.230623
0.220642
0.210919
0.20145
0.192227
0.183245
0.174499
0.165987
0.15771
0.149668
0.141867
0.134311
0.127007
0.11996
0.113175
0.106657
0.10041
0.0944352
0.0887333
0.0833031
0.0781417
0.0732448
0.068607
0.0642216
0.0600808
0.0561765
0.0524994
0.0490404
0.0457897
0.0427375
0.0398739
0.0371894
0.0346742
0.032319
0.0301147
0.0280526
0.0261241
0.0243213
0.0226363
0.021062
0.0195911
0.0182174
0.0169343
0.0157362
0.0146173
0.0135728
0.0125973
0.0116868
0.0108365
0.0100428
0.00930143
0.00860955
0.00796313
0.00735994
0.00679619
0.00627023
0.00577848
0.00531982
0.00489081
0.00449084
0.00411655
0.00376782
0.00344139
0.00313754
0.00285312
0.00258872
0.00234138
0.00211181
0.00189745
0.00169884
0.00151407
0.00134312
0.00118521
0.00103909
0.000905642
0.000781998
0.000670817
0.000568081
0.000475738
0.000396866
0.000306948
0.000284543
0.000151611
0.000187503
0.000318344
0.000193604
0.000530104
0.000349406
0.000598695
0.00121238
0.000333226
0.000892981
0.00190965
0.000867372
0.00135664
0.00305023
0.000939046
0.00293293
9.46121e-05
0.00172354
0.000185233
0.00169702
0.00209159
0.00138743
0.415581
0.401567
0.388072
0.37502
0.362349
0.349996
0.337905
0.326037
0.314369
0.302891
0.291608
0.280531
0.269678
0.259065
0.248708
0.238623
0.228817
0.219294
0.210055
0.201093
0.192402
0.183971
0.17579
0.167849
0.160137
0.152648
0.145375
0.138315
0.131464
0.124823
0.118391
0.112171
0.106164
0.100374
0.0948012
0.0894485
0.0843165
0.0794053
0.0747143
0.0702415
0.0659842
0.0619388
0.0581007
0.0544646
0.0510246
0.0477744
0.0447069
0.041815
0.0390914
0.0365287
0.0341191
0.0318553
0.0297298
0.0277354
0.0258649
0.0241116
0.0224687
0.0209299
0.0194889
0.0181401
0.0168777
0.0156966
0.0145915
0.013558
0.0125911
0.0116872
0.0108415
0.0100512
0.00931174
0.0086208
0.00797424
0.00737026
0.00680489
0.00627693
0.00578253
0.00532105
0.0048887
0.00448537
0.00410738
0.00375507
0.00342485
0.00311742
0.00282941
0.00256164
0.00231118
0.00207868
0.00186198
0.00166102
0.00147497
0.00130239
0.00114435
0.000997523
0.000865089
0.000742283
0.000631758
0.000536074
0.000429945
0.00039664
0.000243958
0.000243573
0.000318774
0.000144608
0.000542401
0.000329166
0.000583436
0.00127265
0.000330253
0.000893164
0.00200374
0.000909395
0.00136943
0.0031819
0.000830164
0.00306915
5.48759e-05
0.00170456
0.000149624
0.00187669
0.00232053
0.00154006
0.411231
0.397068
0.383437
0.370277
0.357539
0.345172
0.333129
0.321373
0.309874
0.298616
0.287588
0.276793
0.266235
0.255924
0.24587
0.236085
0.226579
0.217357
0.208425
0.199781
0.191421
0.183339
0.175525
0.167969
0.16066
0.153584
0.146733
0.140094
0.13366
0.127422
0.121375
0.115514
0.109835
0.104338
0.0990203
0.0938826
0.0889248
0.0841475
0.0795509
0.0751352
0.0709002
0.0668452
0.0629687
0.0592689
0.0557431
0.0523883
0.0492007
0.0461762
0.0433098
0.0405969
0.0380318
0.0356092
0.0333232
0.0311682
0.0291381
0.0272273
0.0254297
0.02374
0.0221522
0.0206613
0.0192616
0.0179484
0.0167163
0.0155613
0.0144782
0.0134633
0.012512
0.011621
0.0107859
0.0100042
0.00927146
0.00858585
0.00794306
0.00734189
0.00677808
0.00625104
0.00575655
0.00529458
0.00486097
0.00445621
0.00407625
0.00372192
0.00338941
0.00307971
0.0027895
0.00251954
0.00226739
0.00203302
0.0018155
0.00161322
0.00142746
0.00125439
0.00109779
0.000952062
0.000820715
0.000705521
0.000581075
0.000533675
0.000361051
0.000354133
0.000386795
0.000135212
0.000565412
0.000294179
0.000547424
0.00131003
0.000312468
0.000872365
0.00206607
0.000933026
0.00135717
0.00325119
0.00068979
0.00318464
9.38501e-05
0.00168089
0.00028958
0.00212913
0.00254497
0.00169316
0.407224
0.392954
0.379223
0.365984
0.353194
0.340812
0.328797
0.317114
0.305736
0.294638
0.283807
0.273232
0.262911
0.252846
0.24304
0.233498
0.224229
0.215236
0.206526
0.198101
0.189959
0.182099
0.174514
0.167198
0.160141
0.153333
0.146763
0.14042
0.134291
0.128367
0.122638
0.117093
0.111726
0.106529
0.101497
0.0966258
0.0919115
0.0873518
0.082945
0.0786901
0.0745861
0.0706326
0.0668289
0.0631744
0.0596681
0.056309
0.0530955
0.0500258
0.0470974
0.0443077
0.0416536
0.0391318
0.0367383
0.0344695
0.0323208
0.0302882
0.0283669
0.0265526
0.0248405
0.0232263
0.021705
0.0202726
0.018924
0.0176557
0.0164628
0.0153418
0.014288
0.0132987
0.0123691
0.0114969
0.0106775
0.00990921
0.00918742
0.00851105
0.0078755
0.0072803
0.00672082
0.00619721
0.00570485
0.00524441
0.00481138
0.0044068
0.0040264
0.00367136
0.00333797
0.00302714
0.00273614
0.00246499
0.00221268
0.00197739
0.00176069
0.00155818
0.00137435
0.00120263
0.0010476
0.000909935
0.000764808
0.000699908
0.000506494
0.000488724
0.000508075
0.000197021
0.000622552
0.000247891
0.000496473
0.00133017
0.000277814
0.000828488
0.00209314
0.000936444
0.00131886
0.00325521
0.00051602
0.00326156
0.000161977
0.00168384
0.000496044
0.00237956
0.00276371
0.00184602
0.403517
0.38917
0.375369
0.362073
0.349246
0.33685
0.324853
0.313222
0.301929
0.290952
0.280269
0.269868
0.25974
0.249878
0.240281
0.230948
0.221881
0.213084
0.20456
0.196311
0.188337
0.180638
0.173211
0.166052
0.159156
0.152514
0.146118
0.139958
0.134025
0.128308
0.122796
0.117479
0.112347
0.10739
0.1026
0.0979696
0.0934912
0.0891592
0.0849685
0.0809152
0.0769959
0.073208
0.0695494
0.0660186
0.0626142
0.0593351
0.0561802
0.0531486
0.0502389
0.04745
0.0447801
0.0422276
0.0397903
0.0374661
0.0352521
0.0331459
0.0311441
0.0292439
0.0274416
0.0257341
0.0241174
0.0225885
0.0211431
0.0197783
0.0184895
0.0172743
0.0161279
0.0150481
0.0140304
0.0130727
0.0121704
0.0113221
0.010523
0.00977247
0.00906545
0.00840181
0.00777655
0.00719009
0.00663739
0.0061194
0.00563115
0.00517398
0.00474313
0.00434009
0.0039607
0.00360609
0.00327324
0.00296224
0.00267201
0.00240057
0.00214975
0.00191462
0.0017004
0.00149952
0.0013178
0.00115451
0.000986118
0.000900088
0.000684634
0.000651856
0.000655604
0.000275944
0.000758863
0.000326252
0.000545518
0.00138072
0.000224765
0.000773263
0.00209539
0.000918318
0.00128457
0.00322343
0.00030614
0.00330091
0.000259356
0.00170906
0.000759761
0.00262534
0.00297542
0.00199773
0.400074
0.385674
0.371824
0.358489
0.345636
0.333233
0.321249
0.309655
0.298426
0.287539
0.276971
0.266707
0.256733
0.247038
0.237617
0.228464
0.219577
0.210954
0.202596
0.194504
0.186677
0.179116
0.171818
0.164782
0.158002
0.151474
0.145192
0.139148
0.133336
0.127745
0.122367
0.117193
0.112213
0.107417
0.102797
0.0983423
0.0940458
0.0898991
0.085895
0.0820268
0.0782887
0.0746757
0.0711834
0.067808
0.0645463
0.061396
0.0583547
0.0554207
0.0525924
0.0498686
0.0472477
0.0447288
0.0423103
0.0399911
0.0377694
0.0356438
0.0336123
0.0316732
0.0298238
0.0280625
0.0263862
0.0247929
0.0232793
0.0218435
0.0204815
0.0191917
0.01797
0.0168147
0.0157216
0.0146892
0.0137132
0.0127926
0.0119226
0.0111028
0.0103283
0.00959931
0.00891046
0.00826262
0.00765039
0.00707513
0.0065314
0.00602097
0.00553861
0.00508617
0.00465907
0.00425873
0.00388184
0.0035286
0.0031979
0.00288757
0.00259981
0.00232908
0.00208151
0.00184834
0.00163692
0.00144475
0.00125035
0.00113942
0.000900315
0.000848422
0.00083342
0.000375846
0.000914747
0.000448864
0.000629013
0.0014543
0.000248765
0.000818987
0.00211703
0.000922051
0.00131074
0.0031722
0.00013017
0.00337313
0.000385114
0.00171916
0.00103923
0.00286459
0.00317853
0.002147
0.396865
0.38243
0.368548
0.355187
0.342319
0.329913
0.317941
0.306377
0.295198
0.28438
0.273902
0.263745
0.253895
0.244338
0.235064
0.226065
0.217333
0.208866
0.200659
0.192711
0.185021
0.177588
0.170408
0.16348
0.156802
0.150368
0.144175
0.138216
0.132486
0.126978
0.121685
0.116598
0.11171
0.107012
0.102496
0.0981536
0.0939761
0.0899553
0.0860834
0.0823528
0.0787564
0.0752875
0.0719399
0.0687083
0.0655875
0.0625732
0.0596615
0.0568492
0.0541332
0.0515113
0.0489811
0.046541
0.0441892
0.0419244
0.039745
0.03765
0.0356377
0.0337072
0.0318565
0.0300847
0.0283896
0.0267702
0.0252238
0.0237495
0.0223442
0.0210069
0.0197342
0.0185253
0.0173764
0.0162869
0.0152524
0.0142729
0.0133436
0.0124649
0.0116316
0.0108445
0.0100982
0.00939413
0.00872649
0.00809724
0.00750053
0.00693865
0.00640593
0.0059047
0.00542996
0.00498353
0.00456179
0.00416514
0.00379244
0.00344138
0.00311459
0.00280588
0.00252243
0.00225418
0.00201026
0.00178611
0.00156296
0.0014234
0.00115869
0.00108377
0.00104606
0.000506927
0.00109584
0.000601068
0.000733651
0.00160231
0.000380317
0.000909428
0.00216437
0.00101671
0.00139769
0.00315938
0.000219865
0.00350024
0.000537392
0.0017183
0.00133114
0.00309565
0.00337108
0.00229214
0.393864
0.379407
0.365506
0.352131
0.339255
0.326851
0.314893
0.303355
0.292216
0.281453
0.271046
0.260976
0.251226
0.241781
0.23263
0.22376
0.215163
0.206832
0.198761
0.190946
0.183383
0.176069
0.169002
0.162179
0.155596
0.14925
0.143137
0.137253
0.131592
0.126149
0.120917
0.115891
0.111063
0.106427
0.101975
0.0976991
0.0935929
0.0896486
0.0858587
0.0822158
0.0787127
0.0753426
0.0720988
0.0689749
0.0659649
0.0630633
0.0602649
0.0575652
0.0549597
0.0524449
0.0500171
0.0476736
0.0454114
0.0432287
0.041123
0.039093
0.0371365
0.0352527
0.0334394
0.0316962
0.0300208
0.0284129
0.0268703
0.0253925
0.023977
0.0226236
0.0213293
0.0200941
0.0189145
0.0177908
0.016719
0.0156998
0.0147285
0.0138062
0.0129279
0.0120951
0.0113022
0.0105514
0.00983666
0.00916056
0.00851694
0.00790873
0.00732987
0.00678326
0.00626355
0.00577297
0.0053077
0.00486834
0.00445381
0.00406166
0.00369503
0.00334708
0.00302615
0.0027208
0.00244217
0.00218339
0.00192895
0.00175739
0.00146488
0.0013635
0.00129832
0.00070984
0.00130764
0.000785388
0.000862242
0.00176174
0.000537014
0.00102187
0.00228238
0.00120181
0.00150393
0.00318932
0.000519041
0.0036268
0.000714081
0.00171165
0.00163264
0.00331671
0.0035507
0.00243101
0.391049
0.376581
0.36267
0.34929
0.336414
0.324016
0.312072
0.300559
0.289454
0.278737
0.268388
0.258388
0.24872
0.239368
0.230318
0.221557
0.213076
0.204864
0.196913
0.189217
0.18177
0.174569
0.167608
0.160885
0.154395
0.148135
0.1421
0.136288
0.130692
0.125309
0.120132
0.115156
0.110376
0.105786
0.101378
0.0971463
0.093085
0.0891871
0.085446
0.0818551
0.0784078
0.0750976
0.0719181
0.0688632
0.0659267
0.0631028
0.0603859
0.0577708
0.0552524
0.0528262
0.0504876
0.048233
0.0460583
0.0439607
0.0419368
0.0399844
0.0381006
0.0362839
0.0345316
0.0328429
0.0312153
0.0296483
0.0281395
0.0266888
0.0252937
0.0239543
0.0226678
0.0214347
0.0202518
0.01912
0.0180354
0.0169995
0.0160077
0.0150619
0.0141571
0.0132955
0.0124715
0.011688
0.0109389
0.0102273
0.00954702
0.00890156
0.00828452
0.0076995
0.00714077
0.00661112
0.0061065
0.00562781
0.00517406
0.00474268
0.00433742
0.00395073
0.00359227
0.00324914
0.0029347
0.00263967
0.00235197
0.00214594
0.00182328
0.00169295
0.00159491
0.000987547
0.00155621
0.0010043
0.00101788
0.00193705
0.000726318
0.00115674
0.00239929
0.00141379
0.00162844
0.00320905
0.000848472
0.00375734
0.000913336
0.00170477
0.00194083
0.00352539
0.00371443
0.00256112
0.388399
0.373929
0.360017
0.346638
0.333768
0.32138
0.309453
0.297962
0.286889
0.276212
0.265912
0.25597
0.246369
0.237093
0.228128
0.21946
0.211076
0.202967
0.195121
0.187531
0.18019
0.173092
0.166231
0.159603
0.153202
0.147026
0.141069
0.135327
0.129797
0.124472
0.119349
0.114423
0.109687
0.105137
0.100767
0.0965707
0.0925431
0.0886779
0.0849692
0.0814111
0.0779976
0.074723
0.0715813
0.0685668
0.0656739
0.062897
0.0602307
0.0576699
0.0552092
0.0528442
0.0505697
0.0483817
0.0462757
0.0442481
0.0422949
0.0404131
0.0385991
0.0368507
0.0351645
0.033539
0.031971
0.0304598
0.0290023
0.0275983
0.0262447
0.0249419
0.0236867
0.0224798
0.0213178
0.0202021
0.0191287
0.0180995
0.0171099
0.0161625
0.015252
0.0143815
0.0135452
0.0127467
0.0119795
0.0112479
0.010545
0.00987535
0.00923204
0.00861942
0.00803142
0.00747141
0.00693517
0.00642387
0.0059367
0.00547092
0.005031
0.00460863
0.00421491
0.00383547
0.00348585
0.00315473
0.0028328
0.0025915
0.00223648
0.00207624
0.0019399
0.00131567
0.00184796
0.00125968
0.00120392
0.00213362
0.000955714
0.00131459
0.00251925
0.00165838
0.00177062
0.00322953
0.00120099
0.00389615
0.00113375
0.00170254
0.002252
0.0037183
0.00385868
0.00267961
0.385897
0.371432
0.357525
0.344154
0.331293
0.31892
0.30701
0.295543
0.284499
0.273857
0.263599
0.253707
0.244164
0.234953
0.226059
0.217468
0.209168
0.201146
0.193392
0.185896
0.17865
0.171645
0.164876
0.158337
0.152022
0.145926
0.140045
0.134373
0.128907
0.123642
0.118573
0.113695
0.109004
0.104495
0.100161
0.0959983
0.0920012
0.0881642
0.0844819
0.0809489
0.0775596
0.0743089
0.0711913
0.0682015
0.0653344
0.0625849
0.0599479
0.0574186
0.054992
0.0526637
0.0504289
0.0482835
0.0462229
0.0442434
0.0423407
0.0405115
0.0387518
0.0370589
0.0354289
0.0338599
0.0323481
0.0308923
0.0294887
0.0281368
0.0268329
0.0255771
0.0243658
0.0231996
0.0220747
0.0209923
0.0199483
0.0189448
0.0179768
0.0170474
0.0161509
0.0152909
0.0144614
0.0136665
0.0128995
0.0121653
0.0114566
0.0107785
0.010124
0.00949793
0.00889391
0.00831583
0.00775931
0.00722574
0.00671453
0.00622271
0.00575548
0.0053038
0.0048801
0.0044688
0.00408711
0.0037228
0.00336726
0.00309258
0.00270359
0.00251456
0.00233562
0.00169549
0.00218895
0.00155232
0.00142425
0.00235882
0.00123233
0.00149638
0.0026492
0.00194008
0.00193047
0.00326165
0.0015747
0.00404545
0.00137407
0.00170828
0.00256085
0.00389079
0.00397919
0.00278344
0.383529
0.369073
0.355178
0.341818
0.328972
0.316615
0.304725
0.293282
0.282265
0.271656
0.261436
0.251588
0.242093
0.232937
0.224104
0.21558
0.207351
0.199405
0.191731
0.184317
0.177154
0.170234
0.163549
0.157092
0.150856
0.144837
0.139028
0.133425
0.128023
0.122817
0.117802
0.112974
0.108329
0.10386
0.0995638
0.0954349
0.0914683
0.087659
0.0840018
0.0804919
0.0771239