/*--------------------------------*- C++ -*----------------------------------*\
| =========                 |                                                 |
| \\      /  F ield         | OpenFOAM: The Open Source CFD Toolbox           |
|  \\    /   O peration     | Version:  2412                                  |
|   \\  /    A nd           | Website:  www.openfoam.com                      |
|    \\/     M anipulation  |                                                 |
\*---------------------------------------------------------------------------*/
FoamFile
{
    version     2.0;
    format      ascii;
    arch        "LSB;label=32;scalar=64";
    class       surfaceScalarField;
    location    "0.6";
    object      ddtCorrDdt0(phi);
}
// * * * * * * * * * * * * * * * * * * * * * * * * * * * * * * * * * * * * * //

dimensions      [0 3 -2 0 0 0 0];

oriented        oriented;

internalField   nonuniform List<scalar> 
24930
(
-0.000124676
-0.000167845
3.46477e-05
-3.20989e-05
-2.60539e-05
-1.53533e-05
-2.70473e-06
-2.7616e-05
-9.55976e-06
-3.60075e-05
-6.74669e-06
-3.61363e-05
-4.83606e-07
-3.38683e-05
1.56233e-06
-3.23991e-05
8.34233e-07
-3.25094e-05
-2.34958e-07
-3.39004e-05
-1.29711e-07
-3.66111e-05
9.91754e-07
-4.04371e-05
2.53398e-06
-4.46823e-05
3.97236e-06
-4.84983e-05
4.90183e-06
-5.13997e-05
5.15854e-06
-5.34881e-05
4.91612e-06
-5.52348e-05
4.58694e-06
-5.70581e-05
4.5754e-06
-5.90362e-05
5.06984e-06
-6.08989e-05
6.00646e-06
-6.22019e-05
7.18906e-06
-6.2512e-05
8.44169e-06
-6.15106e-05
9.67857e-06
-5.90256e-05
1.08729e-05
-5.50433e-05
1.19931e-05
-4.97172e-05
1.29708e-05
-4.33517e-05
1.37046e-05
-3.63457e-05
1.40678e-05
-2.91246e-05
1.39209e-05
-2.2095e-05
1.31418e-05
-1.56252e-05
1.16716e-05
-1.00297e-05
9.54203e-06
-5.55426e-06
6.87752e-06
-2.3599e-06
3.86439e-06
-5.17738e-07
7.24082e-07
7.60079e-09
-2.33366e-06
-6.5583e-07
-5.11816e-06
-2.29037e-06
-7.49819e-06
-4.65214e-06
-9.35473e-06
-7.45713e-06
-1.06326e-05
-1.04561e-05
-1.12426e-05
-1.33464e-05
-1.11965e-05
-1.59133e-05
-1.04161e-05
-1.78532e-05
-9.02205e-06
-1.90692e-05
-6.93879e-06
-1.93014e-05
-4.48498e-06
-1.86788e-05
-1.56391e-06
-1.69822e-05
1.21818e-06
-1.46559e-05
4.14893e-06
-1.1428e-05
6.28904e-06
-8.11379e-06
8.40058e-06
-4.19866e-06
9.0441e-06
-9.66006e-07
9.77687e-06
2.57351e-06
8.30426e-06
4.53003e-06
7.42425e-06
6.75578e-06
3.47207e-06
6.61487e-06
1.22743e-06
7.28165e-06
-5.03043e-06
5.02033e-06
-7.55002e-06
4.68489e-06
-1.52643e-05
8.38804e-07
-1.64378e-05
3.39114e-07
-2.4849e-05
-4.59336e-06
-2.35597e-05
-4.75207e-06
-3.25459e-05
-1.07929e-05
-2.80419e-05
-1.08352e-05
-3.69785e-05
-1.86001e-05
-2.78346e-05
-1.91927e-05
-3.50952e-05
-2.90482e-05
-2.0373e-05
-3.01432e-05
-2.5315e-05
-4.10336e-05
-6.87234e-06
-4.1248e-05
-1.11115e-05
-5.08587e-05
6.60035e-06
-4.8582e-05
6.78635e-07
-5.52877e-05
1.25932e-05
-5.10577e-05
2.60765e-06
-5.51756e-05
5.1124e-06
-5.06933e-05
-6.53219e-06
-5.4523e-05
-4.55743e-06
-5.14578e-05
-1.51336e-05
-5.508e-05
3.7552e-06
-5.39728e-05
9.56782e-06
-6.18944e-05
4.64119e-05
-5.68897e-05
8.8113e-06
-7.22489e-05
8.15235e-05
-6.53987e-05
-2.21191e-05
-8.39597e-05
6.04954e-06
-7.81255e-05
-5.85465e-05
-0.000104592
-3.61017e-05
-8.01771e-05
-0.000130717
-0.000138373
1.65483e-05
-0.000115703
-0.000114245
-0.000112758
-0.000237861
-0.000154626
0.000569018
-7.35464e-05
-0.000778029
-0.000244734
0.000234645
-7.80512e-05
-0.000455777
-0.00031781
0.000613883
-0.000219644
0.000333176
-5.52219e-06
-0.00142121
5.77896e-05
0.000654148
0.000174272
0.000101684
0.000328607
3.45996e-05
0.000410923
0.000314221
-0.00132424
0.000116234
0.000365003
0.000784599
0.00401213
-0.00514773
-0.00562443
0.0105615
-0.00978494
0.0138563
0.00680111
-0.00942102
0.0168426
-0.0143609
0.00362381
0.00500692
-0.0151971
0.0266009
-0.0138717
0.000813281
-0.00981706
-0.00135402
-0.00217478
-0.00224769
0.0015628
-0.00388892
0.00445306
-0.00366968
0.00302917
0.000643754
0.00158281
-0.000154026
-0.000110425
0.00010336
-0.000118027
-5.70254e-05
-0.000102594
-3.14053e-05
-0.0001032
-2.52539e-05
-0.000104741
-1.49947e-05
-0.000102649
-7.29729e-06
-9.82945e-05
-5.86024e-06
-9.4871e-05
-7.42466e-06
-9.35517e-05
-7.94309e-06
-9.47663e-05
-6.3036e-06
-9.84817e-05
-3.37183e-06
-0.000103947
-5.56759e-07
-0.000109674
8.20707e-07
-0.000114049
4.34886e-08
-0.00011621
-2.49425e-06
-0.000116488
-5.39919e-06
-0.000116044
-7.10091e-06
-0.000116047
-6.74889e-06
-0.000117016
-4.53714e-06
-0.000118675
-1.35921e-06
-0.000120218
1.82569e-06
-0.000120703
4.4636e-06
-0.000119337
6.49897e-06
-0.000115629
8.1797e-06
-0.000109445
9.8013e-06
-0.000100994
1.15491e-05
-9.07513e-05
1.343e-05
-7.93274e-05
1.52633e-05
-6.7342e-05
1.67253e-05
-5.53699e-05
1.74794e-05
-4.39396e-05
1.72908e-05
-3.35419e-05
1.61022e-05
-2.46171e-05
1.39866e-05
-1.75222e-05
1.11244e-05
-1.2488e-05
7.69486e-06
-9.57666e-06
3.90853e-06
-8.68059e-06
-7.34059e-08
-9.56004e-06
-3.99302e-06
-1.19252e-05
-7.62451e-06
-1.5463e-05
-1.06091e-05
-1.9876e-05
-1.27663e-05
-2.4808e-05
-1.38372e-05
-2.99188e-05
-1.38868e-05
-3.47683e-05
-1.2801e-05
-3.90494e-05
-1.08499e-05
-4.23395e-05
-7.96221e-06
-4.45575e-05
-4.58634e-06
-4.5398e-05
-6.65318e-07
-4.51688e-05
3.15903e-06
-4.36232e-05
6.93809e-06
-4.14899e-05
9.83732e-06
-3.83715e-05
1.20132e-05
-3.55108e-05
1.26293e-05
-3.21663e-05
1.21693e-05
-3.02315e-05
9.92311e-06
-2.81919e-05
6.69815e-06
-2.86283e-05
1.91255e-06
-2.87199e-05
-3.30167e-06
-3.20303e-05
-9.3109e-06
-3.40872e-05
-1.47015e-05
-4.00205e-05
-1.97627e-05
-4.33844e-05
-2.31621e-05
-5.14598e-05
-2.55523e-05
-5.55338e-05
-2.59093e-05
-6.56013e-05
-2.55158e-05
-7.05309e-05
-2.33342e-05
-8.32021e-05
-2.15032e-05
-8.98078e-05
-1.81597e-05
-0.000105564
-1.66745e-05
-0.000113895
-1.30531e-05
-0.00013158
-1.24008e-05
-0.000140055
-7.33779e-06
-0.000156958
-5.97334e-06
-0.000163492
3.19387e-06
-0.000177365
6.62847e-06
-0.000181962
2.01463e-05
-0.00019257
2.21388e-05
-0.000196806
3.59429e-05
-0.000206701
3.28409e-05
-0.000212654
3.91249e-05
-0.000222753
2.71032e-05
-0.000231907
3.45437e-05
-0.000247308
2.05385e-05
-0.000253365
9.28261e-06
-0.000277391
9.89185e-06
-0.000282054
5.99365e-06
-0.000309166
-2.73374e-05
-0.000315381
-1.82477e-05
-0.00034996
-1.66834e-05
-0.000333668
-6.0756e-05
-0.000407227
-1.59945e-05
-0.000397478
-1.62369e-05
-0.000396069
-0.000143732
-0.000454612
0.000158858
-0.000373794
-8.26626e-05
-0.000603327
-1.89872e-05
-0.000468577
0.000113197
-0.000769094
0.000526254
-0.00061346
6.31708e-05
-0.000150049
-0.00101088
0.00012843
-0.000207713
0.000553111
-0.000187826
0.00128681
-0.00129977
0.00034424
0.000751769
-0.00430448
0.00773179
0.0028778
-0.0102555
0.00949455
-0.0103537
-0.0185283
0.0360705
-0.0261625
0.0159396
0.0237684
-0.0585344
0.0494752
-0.0374832
0.00453515
0.0543382
-0.0450241
0.0622462
-0.0438658
0.00263709
-0.0274686
-0.0193383
-0.00730446
-0.0214013
0.00648899
-0.0191562
0.0138175
-0.00982615
0.00821727
0.00680379
0.00850181
-0.000153897
-7.90073e-05
0.000117577
-0.000162934
-6.76621e-05
-0.00016152
-5.01736e-05
-0.000160213
-3.46325e-05
-0.000159066
-2.18963e-05
-0.000155016
-1.63935e-05
-0.000148754
-1.72168e-05
-0.000142822
-1.87776e-05
-0.000139449
-1.74438e-05
-0.000139743
-1.33007e-05
-0.000143588
-8.17041e-06
-0.000149706
-4.22249e-06
-0.000155876
-3.47045e-06
-0.000159764
-6.83676e-06
-0.000160134
-1.31694e-05
-0.000157529
-1.95314e-05
-0.000153834
-2.28847e-05
-0.000151048
-2.18283e-05
-0.000150208
-1.70994e-05
-0.000151077
-1.07375e-05
-0.000152537
-4.76614e-06
-0.000153205
-2.90273e-07
-0.000151918
2.64633e-06
-0.000147972
4.66641e-06
-0.000141186
6.54317e-06
-0.000131846
8.84345e-06
-0.000120563
1.17438e-05
-0.000108061
1.50058e-05
-9.50192e-05
1.8088e-05
-8.20257e-05
2.04162e-05
-6.96081e-05
2.15877e-05
-5.82751e-05
2.14884e-05
-4.85136e-05
2.01742e-05
-4.0739e-05
1.78276e-05
-3.52265e-05
1.45572e-05
-3.20486e-05
1.05149e-05
-3.10816e-05
5.77513e-06
-3.20666e-05
6.89218e-07
-3.47244e-05
-4.4067e-06
-3.87826e-05
-8.83794e-06
-4.40012e-05
-1.23182e-05
-5.0058e-05
-1.43305e-05
-5.66163e-05
-1.50809e-05
-6.31912e-05
-1.42427e-05
-6.94178e-05
-1.23969e-05
-7.47914e-05
-9.11062e-06
-7.91793e-05
-5.29068e-06
-8.22159e-05
-2.80725e-07
-8.42036e-05
4.51952e-06
-8.48502e-05
9.98884e-06
-8.49006e-05
1.4005e-05
-8.39021e-05
1.79529e-05
-8.31609e-05
1.91527e-05
-8.18967e-05
2.00897e-05
-8.21344e-05
1.74779e-05
-8.229e-05
1.51175e-05
-8.51041e-05
8.77386e-06
-8.7613e-05
3.95226e-06
-9.3604e-05
-4.71892e-06
-9.84115e-05
-9.55944e-06
-0.000107495
-1.77335e-05
-0.000114121
-1.9389e-05
-0.000125968
-2.46946e-05
-0.000133907
-2.13938e-05
-0.00014843
-2.36831e-05
-0.000157917
-1.60035e-05
-0.000175826
-1.7584e-05
-0.000187811
-7.9942e-06
-0.00020962
-1.21675e-05
-0.000224157
-2.48107e-06
-0.000248621
-9.87758e-06
-0.00026411
2.1739e-06
-0.000288501
-4.62408e-06
-0.000302946
1.51464e-05
-0.000325021
1.31542e-05
-0.000338484
4.26938e-05
-0.000357869
4.21421e-05
-0.000371963
7.4745e-05
-0.000391292
6.69275e-05
-0.000408189
8.86076e-05
-0.00042877
6.29568e-05
-0.000450357
7.49657e-05
-0.000477606
3.96096e-05
-0.000496959
3.60821e-05
-0.000534391
8.69911e-06
-0.000553019
2.3498e-05
-0.000593959
-2.25631e-05
-0.000614667
3.2495e-06
-0.000662655
-2.28933e-05
-0.000664526
-1.55805e-05
-0.000751964
-2.51643e-05
-0.000752624
1.00748e-06
-0.000759837
-0.000134955
-0.000832593
0.000120143
-0.000760681
-5.64249e-05
-0.0010518
0.00016772
-0.000949247
0.000163151
-0.0013065
0.000487906
-0.00105952
8.228e-05
-0.000339066
-0.00141705
0.000176125
-0.000810498
0.000880305
-0.00103966
0.00215884
-0.0028035
-0.00016179
0.00318
-0.00736803
0.0145532
0.00581431
-0.0217989
0.0136653
-0.017218
-0.0331866
0.0803617
-0.0405675
0.0244323
0.0443168
-0.143727
0.0812061
-0.0765924
0.000851424
0.135606
-0.0783064
0.138971
-0.0753757
0.00387355
-0.0453534
-0.0503091
-0.0117145
-0.05228
0.0124813
-0.0451709
0.0236982
-0.0205994
0.013071
0.0173892
0.0202984
-0.00015205
-6.40453e-05
0.000118274
-0.000177388
-6.80196e-05
-0.00018431
-5.41643e-05
-0.000185197
-3.59426e-05
-0.000185185
-2.46202e-05
-0.000182748
-2.32347e-05
-0.000177539
-2.67024e-05
-0.000171542
-2.81196e-05
-0.000167724
-2.46682e-05
-0.000167969
-1.76393e-05
-0.000172502
-9.91202e-06
-0.000179994
-4.55199e-06
-0.000187822
-4.33837e-06
-0.000192952
-1.05337e-05
-0.000193448
-2.1309e-05
-0.000189639
-3.2001e-05
-0.0001839
-3.77041e-05
-0.00017913
-3.61409e-05
-0.0001771
-2.85726e-05
-0.000177795
-1.84411e-05
-0.00017984
-9.1569e-06
-0.000181407
-2.5894e-06
-0.000180936
1.17401e-06
-0.00017749
3.20196e-06
-0.000170834
4.88268e-06
-0.000161347
7.29925e-06
-0.000149796
1.08761e-05
-0.000137049
1.53279e-05
-0.000123867
1.98664e-05
-0.000110851
2.36529e-05
-9.85205e-05
2.61163e-05
-8.73821e-05
2.71134e-05
-7.79431e-05
2.67177e-05
-7.06465e-05
2.51305e-05
-6.57772e-05
2.23696e-05
-6.33859e-05
1.84827e-05
-6.33036e-05
1.34045e-05
-6.5233e-05
7.55058e-06
-6.88901e-05
1.35344e-06
-7.40361e-05
-4.1952e-06
-8.048e-05
-8.73126e-06
-8.79317e-05
-1.15091e-05
-9.60543e-05
-1.2938e-05
-0.00010433
-1.24929e-05
-0.000112352
-1.11022e-05
-0.000119569
-7.91824e-06
-0.000125831
-4.30921e-06
-0.000130757
1.10918e-06
-0.00013467
6.18396e-06
-0.000137273
1.28125e-05
-0.000139344
1.75508e-05
-0.000140409
2.32739e-05
-0.000141842
2.53443e-05
-0.000142846
2.85684e-05
-0.000145555
2.67679e-05
-0.000148326
2.70846e-05
-0.000154019
2.10445e-05
-0.000159535
1.90105e-05
-0.000168842
9.73704e-06
-0.000177096
7.88966e-06
-0.000190035
-1.82945e-06
-0.000200658
-2.22299e-08
-0.000216998
-8.03237e-06
-0.000229549
-7.14712e-07
-0.000249263
-7.0835e-06
-0.000264095
5.5408e-06
-0.00028803
-1.48572e-06
-0.00030626
1.43677e-05
-0.000334995
3.26488e-06
-0.000356719
2.08125e-05
-0.000388957
5.22489e-06
-0.000412609
2.73646e-05
-0.000445647
1.17624e-05
-0.000469351
4.41013e-05
-0.000500979
3.26216e-05
-0.000524901
7.66943e-05
-0.000554667
6.5593e-05
-0.00058054
0.000114495
-0.000611262
9.51561e-05
-0.000641484
0.000135575
-0.000674944
9.86259e-05
-0.000711806
0.000128951
-0.000753795
8.03679e-05
-0.000789758
9.884e-05
-0.000844053
4.97784e-05
-0.000880463
8.81446e-05
-0.000939453
2.09688e-05
-0.000978643
6.9741e-05
-0.00104547
8.51764e-06
-0.00106563
6.13949e-05
-0.00117093
-1.22244e-06
-0.00121484
0.000115876
-0.00121112
-0.00015084
-0.00130274
0.000151853
-0.00124675
-3.41262e-06
-0.00160599
0.000376897
-0.00153676
0.000314506
-0.0019425
0.000486276
-0.00158497
-0.000122667
-0.000591526
-0.00221796
0.000153192
-0.00163272
0.00112065
-0.00213404
0.00282353
-0.00465921
-0.00109942
0.00755008
-0.010481
0.0241892
0.00891244
-0.0420029
0.0163183
-0.0236997
-0.0493079
0.144959
-0.0525885
0.0275622
0.0679082
-0.251836
0.110747
-0.120718
-0.00794416
0.257852
-0.114616
0.241105
-0.107919
0.000270796
-0.0631699
-0.0972309
-0.015283
-0.0980296
0.0194376
-0.0818159
0.0339239
-0.034435
0.0174233
0.0343643
0.0376208
-0.000154422
-5.20482e-05
0.000128507
-0.000178902
-5.71394e-05
-0.000187507
-4.78345e-05
-0.000190038
-3.33665e-05
-0.000191951
-2.52238e-05
-0.000192084
-2.64871e-05
-0.000190018
-3.18337e-05
-0.000186926
-3.37607e-05
-0.000184872
-2.90282e-05
-0.000186107
-1.93857e-05
-0.000191622
-8.78623e-06
-0.00020079
-1.37775e-06
-0.000211339
-9.48744e-07
-0.000219855
-9.51026e-06
-0.000223325
-2.49774e-05
-0.000221017
-4.09834e-05
-0.000215088
-5.02479e-05
-0.00020919
-4.89533e-05
-0.000206195
-3.85719e-05
-0.000206767
-2.41322e-05
-0.000209561
-1.08491e-05
-0.000212371
-1.69021e-06
-0.000213192
3.0724e-06
-0.000210762
4.96582e-06
-0.0002047
6.10438e-06
-0.000195418
8.23883e-06
-0.000183842
1.2158e-05
-0.000171029
1.75632e-05
-0.000157865
2.33855e-05
-0.000144997
2.84688e-05
-0.000132938
3.20447e-05
-0.000122189
3.395e-05
-0.000113265
3.43066e-05
-0.000106637
3.3365e-05
-0.000102602
3.10573e-05
-0.000101197
2.73119e-05
-0.000102209
2.19006e-05
-0.000105301
1.53023e-05
-0.000110179
8.05704e-06
-0.000116633
1.49628e-06
-0.000124518
-3.94977e-06
-0.000133574
-7.32862e-06
-0.000143456
-9.31025e-06
-0.000153613
-9.18878e-06
-0.000163585
-8.27342e-06
-0.00017279
-5.26192e-06
-0.000181048
-1.99561e-06
-0.000187983
3.71857e-06
-0.000193927
8.94538e-06
-0.000198599
1.67053e-05
-0.000202795
2.21564e-05
-0.000206057
2.98139e-05
-0.0002098
3.29498e-05
-0.00021326
3.89008e-05
-0.000218641
3.834e-05
-0.000224298
4.20181e-05
-0.000233158
3.68049e-05
-0.000242071
3.83338e-05
-0.000255112
2.89034e-05
-0.000267358
3.07935e-05
-0.000284724
1.9735e-05
-0.000300063
2.55596e-05
-0.000321624
1.45992e-05
-0.000339685
2.62079e-05
-0.000365485
1.50817e-05
-0.000386755
3.29247e-05
-0.000417787
1.96861e-05
-0.00044356
4.25622e-05
-0.000480471
2.40107e-05
-0.000510908
5.09872e-05
-0.000552378
2.70011e-05
-0.000585985
6.1534e-05
-0.000629355
3.68814e-05
-0.000664395
8.43128e-05
-0.000707487
6.23838e-05
-0.000744238
0.000123139
-0.000786544
9.95883e-05
-0.000826909
0.000167161
-0.000871498
0.000134314
-0.00091821
0.000196962
-0.000967398
0.000148271
-0.00102317
0.000202818
-0.00108317
0.000140517
-0.00113993
0.000186205
-0.00121481
0.000115217
-0.0012739
0.000180577
-0.00135513
8.50958e-05
-0.00141849
0.000161621
-0.00150871
6.04078e-05
-0.00155334
0.000158952
-0.00168517
3.80256e-05
-0.00172527
0.000204217
-0.00176849
-0.000113835
-0.00188297
0.000209121
-0.00185135
6.99781e-05
-0.00228455
0.000600923
-0.00224919
0.00053732
-0.00269354
0.000547557
-0.0022095
-0.000457649
-0.000934404
-0.00333394
2.03227e-05
-0.00262066
0.00122214
-0.003446
0.00320208
-0.00682591
-0.00250179
0.0137334
-0.013631
0.0350692
0.0119444
-0.0689293
0.0172396
-0.028062
-0.0665332
0.234552
-0.0619579
0.0238187
0.0936165
-0.442968
0.136775
-0.165917
-0.0223437
0.420942
-0.15332
0.371028
-0.140822
-0.00849187
-0.0806328
-0.15967
-0.017906
-0.158451
0.0272325
-0.129148
0.0442652
-0.0513559
0.0211152
0.0578861
0.0604477
-0.000161166
-4.15957e-05
0.000143732
-0.000180424
-4.48557e-05
-0.000187998
-4.03543e-05
-0.000191055
-3.12269e-05
-0.000193842
-2.57431e-05
-0.00019601
-2.77553e-05
-0.000197055
-3.35919e-05
-0.000197649
-3.61323e-05
-0.000198536
-3.12809e-05
-0.000201072
-2.01592e-05
-0.000206864
-6.99219e-06
-0.000216516
3.17356e-06
-0.000229106
5.38571e-06
-0.00024179
-3.79091e-06
-0.000250647
-2.30263e-05
-0.000253017
-4.48792e-05
-0.000249526
-5.93605e-05
-0.000243784
-6.00572e-05
-0.000239859
-4.77372e-05
-0.000239747
-2.88508e-05
-0.000242731
-1.08536e-05
-0.000246521
1.67523e-06
-0.00024871
7.97306e-06
-0.000247604
9.91212e-06
-0.000242501
1.03613e-05
-0.000233694
1.18893e-05
-0.000222214
1.58351e-05
-0.00020934
2.19909e-05
-0.000196158
2.8992e-05
-0.000183413
3.52888e-05
-0.000171629
3.98442e-05
-0.000161284
4.24488e-05
-0.000152883
4.32927e-05
-0.000146918
4.27215e-05
-0.000143713
4.06128e-05
-0.000143312
3.67864e-05
-0.000145469
3.08414e-05
-0.000149806
2.33318e-05
-0.000155999
1.49285e-05
-0.000163867
7.35194e-06
-0.000173302
1.10715e-06
-0.000184092
-2.64904e-06
-0.000195883
-4.9115e-06
-0.000208099
-4.81602e-06
-0.000220222
-4.11274e-06
-0.000231642
-1.01544e-06
-0.000242142
2.11123e-06
-0.000251363
8.33484e-06
-0.000259624
1.38612e-05
-0.000266687
2.29336e-05
-0.000273334
2.91885e-05
-0.000279163
3.89458e-05
-0.000285591
4.32116e-05
-0.000291934
5.2115e-05
-0.000300412
5.28939e-05
-0.000309449
6.02773e-05
-0.000321972
5.60302e-05
-0.000334876
6.16157e-05
-0.000352252
5.22262e-05
-0.000369223
5.85755e-05
-0.000391751
4.64423e-05
-0.0004127
5.72234e-05
-0.000440368
4.34955e-05
-0.000465017
6.04443e-05
-0.000497966
4.45071e-05
-0.000526966
6.87288e-05
-0.000566352
4.8928e-05
-0.000601199
8.02026e-05
-0.000647757
5.35651e-05
-0.000688713
9.1778e-05
-0.000741139
5.86108e-05
-0.000786829
0.000108043
-0.000842539
7.34992e-05
-0.000891386
0.000139214
-0.000948245
0.000105643
-0.00100067
0.000186561
-0.00105815
0.000148579
-0.00111628
0.000238568
-0.0011778
0.000189472
-0.00124482
0.00027868
-0.00131326
0.000215697
-0.00139235
0.000300115
-0.0014744
0.000221475
-0.00155701
0.00030094
-0.0016571
0.000205449
-0.00174469
0.00030494
-0.0018534
0.000175925
-0.00194759
0.000288135
-0.00206712
0.00014175
-0.00214345
0.000294227
-0.00230849
0.000106573
-0.00238287
0.000344386
-0.00244679
-6.41867e-05
-0.00260093
0.000315169
-0.00259843
0.000179301
-0.0031116
0.000888321
-0.00311065
0.000823149
-0.00358474
0.0006293
-0.00296513
-0.000934541
-0.00140974
-0.00476088
-0.000278663
-0.00380114
0.00111492
-0.00496191
0.00320406
-0.00913968
-0.00439837
0.0219292
-0.0168454
0.047818
0.0146516
-0.101052
0.0163384
-0.0287749
-0.0844123
0.323937
-0.068753
0.00884628
0.12075
-0.598377
0.157951
-0.205263
-0.0425995
0.62642
-0.193636
0.519766
-0.173474
-0.0249562
-0.0974549
-0.238389
-0.0195339
-0.234073
0.035698
-0.186827
0.054471
-0.0697917
0.0240074
0.0891303
0.0890195
-0.000170799
-3.52654e-05
0.000157881
-0.000186536
-3.70635e-05
-0.000192714
-3.56933e-05
-0.000195985
-3.07568e-05
-0.000199286
-2.71146e-05
-0.000202506
-2.86179e-05
-0.000205705
-3.35858e-05
-0.000208925
-3.63006e-05
-0.000212404
-3.21242e-05
-0.000215972
-2.11768e-05
-0.000220957
-6.76535e-06
-0.000228975
6.06138e-06
-0.00024103
1.16387e-05
-0.000256169
4.73448e-06
-0.000270805
-1.54592e-05
-0.000280409
-4.205e-05
-0.000282757
-6.29201e-05
-0.000279732
-6.80944e-05
-0.000275807
-5.59975e-05
-0.000274648
-3.35242e-05
-0.000276979
-1.04904e-05
-0.000281061
6.28117e-06
-0.000284374
1.50056e-05
-0.000284808
1.75806e-05
-0.000281155
1.74769e-05
-0.000273326
1.81493e-05
-0.000262274
2.17368e-05
-0.000249482
2.83573e-05
-0.000236317
3.64203e-05
-0.000223719
4.39145e-05
-0.000212268
4.94223e-05
-0.000202414
5.26136e-05
-0.000194626
5.3737e-05
-0.000189399
5.32871e-05
-0.000187102
5.11423e-05
-0.000187821
4.70408e-05
-0.000191296
4.0389e-05
-0.000197096
3.18103e-05
-0.00020484
2.21158e-05
-0.000214344
1.34807e-05
-0.000225534
6.51559e-06
-0.000238263
2.6123e-06
-0.000252181
3.86683e-07
-0.00026671
8.43328e-07
-0.000281261
1.7061e-06
-0.000295211
5.28241e-06
-0.000308287
8.60488e-06
-0.000320163
1.5696e-05
-0.000331124
2.17856e-05
-0.000341006
3.24651e-05
-0.000350551
3.96734e-05
-0.000359451
5.17389e-05
-0.000369075
5.71591e-05
-0.000378881
6.91874e-05
-0.000391032
7.12658e-05
-0.000404115
8.2581e-05
-0.00042096
7.9248e-05
-0.000438634
8.92662e-05
-0.000461114
7.99357e-05
-0.00048373
9.1416e-05
-0.000512319
7.83668e-05
-0.000539958
9.51322e-05
-0.000574777
7.88455e-05
-0.000607286
0.000102455
-0.000648599
8.18003e-05
-0.000686828
0.00011396
-0.000735983
8.73908e-05
-0.000781665
0.000128835
-0.000839527
9.34781e-05
-0.000893087
0.000145048
-0.000958422
0.000101752
-0.00101866
0.000168881
-0.001089
0.000123391
-0.00115454
0.000211049
-0.00122782
0.0001646
-0.00129927
0.000270028
-0.00137501
0.000215862
-0.00145483
0.000333169
-0.00153688
0.000265285
-0.00162882
0.000386395
-0.00172072
0.0003061
-0.00182847
0.000426329
-0.00193744
0.000327673
-0.00205206
0.000447868
-0.00218295
0.000324004
-0.00230621
0.000465855
-0.00244867
0.000297755
-0.002582
0.000455135
-0.00273789
0.000256888
-0.00285531
0.000474715
-0.0030617
0.000210011
-0.0031789
0.000528567
-0.00327204
1.69935e-05
-0.00345763
0.00044554
-0.0035141
0.000358964
-0.00411777
0.00124289
-0.00415102
0.00116846
-0.00464945
0.000722069
-0.00389315
-0.00153918
-0.00207222
-0.00645565
-0.000813429
-0.00511082
0.000713882
-0.00662079
0.00272993
-0.0114115
-0.00681098
0.0321341
-0.0201874
0.0610606
0.0167709
-0.139264
0.013501
-0.0243975
-0.102389
0.464917
-0.0726814
-0.020082
0.147701
-0.827945
0.172992
-0.232741
-0.0687432
0.87388
-0.234696
0.684389
-0.205112
-0.0506486
-0.113374
-0.333109
-0.0201562
-0.32494
0.0446345
-0.254301
0.0642866
-0.0892361
0.0259897
0.127401
0.123334
-0.00018225
-3.23801e-05
0.000170593
-0.000196686
-3.32359e-05
-0.00020177
-3.33715e-05
-0.000205393
-3.11139e-05
-0.000209483
-2.87529e-05
-0.000213341
-2.93624e-05
-0.000217406
-3.27896e-05
-0.000222084
-3.51883e-05
-0.000226748
-3.21622e-05
-0.000230963
-2.26819e-05
-0.000234601
-8.99724e-06
-0.000239492
5.18129e-06
-0.000248098
1.44405e-05
-0.000261989
1.23589e-05
-0.000279685
-4.73023e-06
-0.000296427
-3.25669e-05
-0.00030713
-5.8925e-05
-0.000310243
-7.05186e-05
-0.000308747
-6.1751e-05
-0.000307277
-3.79763e-05
-0.000308486
-1.05957e-05
-0.000312026
1.09392e-05
-0.000315896
2.31502e-05
-0.000317893
2.74135e-05
-0.000316287
2.73682e-05
-0.000310307
2.71736e-05
-0.000300482
2.99734e-05
-0.000288319
3.65961e-05
-0.000275493
4.54659e-05
-0.000263257
5.41211e-05
-0.000252352
6.06391e-05
-0.000243237
6.44343e-05
-0.000236313
6.57448e-05
-0.000232055
6.52568e-05
-0.000230887
6.29299e-05
-0.000232981
5.84724e-05
-0.000238103
5.10623e-05
-0.00024577
4.13494e-05
-0.000255493
3.02544e-05
-0.00026704
2.04762e-05
-0.000280341
1.27884e-05
-0.000295335
8.90133e-06
-0.000311706
6.99135e-06
-0.000328903
8.19887e-06
-0.000346263
9.60741e-06
-0.000363158
1.40975e-05
-0.000379234
1.79935e-05
-0.000394222
2.63859e-05
-0.000408348
3.33706e-05
-0.000421561
4.60552e-05
-0.000434527
5.44396e-05
-0.000447089
6.91203e-05
-0.000460503
7.57522e-05
-0.000474439
9.11337e-05
-0.000490924
9.44405e-05
-0.000508815
0.000109932
-0.000530736
0.000107378
-0.000554072
0.000122205
-0.000582529
0.000112832
-0.000611839
0.000130125
-0.000647497
0.00011619
-0.000683057
0.000140042
-0.000726196
0.000121322
-0.000768013
0.000153114
-0.000819051
0.000127821
-0.000868212
0.000169827
-0.000928722
0.000136318
-0.000987254
0.000190178
-0.00105828
0.000145489
-0.00112685
0.000213099
-0.00120731
0.000158657
-0.00128496
0.000246899
-0.00137254
0.000189212
-0.00145815
0.000303169
-0.0015509
0.000242337
-0.00164533
0.0003775
-0.00174292
0.000305147
-0.00184907
0.000455806
-0.00195592
0.000366365
-0.00207825
0.000526078
-0.00219863
0.000425059
-0.00234144
0.000588407
-0.00248322
0.000465401
-0.0026373
0.000634848
-0.00280576
0.000477663
-0.00297339
0.00067201
-0.00315724
0.000458151
-0.00333988
0.000672735
-0.00354074
0.000413915
-0.0037109
0.000712256
-0.00396836
0.000357781
-0.0041409
0.000772957
-0.00427583
0.000140017
-0.00453084
0.000648068
-0.0046456
0.000603998
-0.00536231
0.00170334
-0.00540527
0.00154747
-0.00593283
0.000806039
-0.00504779
-0.00225743
-0.00299386
-0.00838477
-0.00167134
-0.00649054
-8.47e-05
-0.00835282
0.00167233
-0.0134545
-0.00977881
0.0443303
-0.0237593
0.075264
0.0179958
-0.182783
0.00917849
-0.0143735
-0.12021
0.537201
-0.074589
-0.0650678
0.172884
-1.07642
0.18076
-0.242799
-0.100513
1.16162
-0.275641
0.857787
-0.235758
-0.0864417
-0.128163
-0.44401
-0.0198003
-0.430865
0.0538355
-0.330843
0.0734542
-0.108572
0.0269918
0.177311
0.163248
-0.00019495
-3.10435e-05
0.000183401
-0.000209347
-3.13367e-05
-0.000213661
-3.21783e-05
-0.000217689
-3.14244e-05
-0.000222754
-2.9867e-05
-0.000227219
-2.97747e-05
-0.000231456
-3.18118e-05
-0.000236398
-3.37788e-05
-0.000241421
-3.20583e-05
-0.000245708
-2.4679e-05
-0.000248296
-1.31063e-05
-0.000250155
5.10934e-07
-0.000254047
1.21625e-05
-0.000263353
1.5566e-05
-0.000279512
4.85615e-06
-0.000299777
-1.94789e-05
-0.000318126
-4.77455e-05
-0.000329446
-6.54289e-05
-0.000333298
-6.25769e-05
-0.000333428
-4.07786e-05
-0.000333883
-1.11093e-05
-0.000336205
1.47768e-05
-0.000339684
3.12464e-05
-0.000342694
3.85471e-05
-0.00034336
3.98085e-05
-0.000340143
3.93015e-05
-0.000332711
4.10831e-05
-0.000322188
4.71107e-05
-0.000310404
5.62899e-05
-0.000298992
6.59094e-05
-0.000289003
7.34852e-05
-0.00028101
7.80032e-05
-0.000275355
7.95356e-05
-0.000272449
7.89515e-05
-0.000272756
7.63881e-05
-0.000276589
7.16219e-05
-0.000283804
6.35686e-05
-0.000293892
5.28195e-05
-0.00030621
4.03033e-05
-0.000320403
2.92874e-05
-0.000336343
2.0781e-05
-0.000354061
1.6967e-05
-0.00037331
1.55668e-05
-0.000393624
1.78777e-05
-0.000414268
2.01887e-05
-0.000434615
2.60171e-05
-0.000454201
3.08432e-05
-0.000472838
4.09886e-05
-0.000490666
4.9215e-05
-0.000507799
6.43726e-05
-0.000524783
7.42044e-05
-0.000541673
9.19086e-05
-0.000559542
9.98506e-05
-0.000578356
0.00011891
-0.000599908
0.000123382
-0.000623459
0.000143384
-0.00065129
0.000141448
-0.000681287
0.000161547
-0.000716687
0.000151953
-0.000753862
0.000175825
-0.000797699
0.000160925
-0.000842557
0.000193092
-0.000895311
0.000171951
-0.000948066
0.000213667
-0.00101034
0.000183727
-0.00107236
0.000237838
-0.00114599
0.000197158
-0.00121967
0.000266196
-0.00130596
0.00021151
-0.00139228
0.000298507
-0.00149037
0.000231795
-0.00158873
0.000345336
-0.00169652
0.00027398
-0.00180609
0.000419464
-0.00192185
0.000342416
-0.00204387
0.000513577
-0.00216749
0.000420657
-0.00230545
0.000611985
-0.0024421
0.000497856
-0.00260132
0.000704432
-0.00275614
0.000578857
-0.00294166
0.000794366
-0.00312329
0.000642069
-0.00332582
0.000871228
-0.00354004
0.000674771
-0.0037626
0.000933987
-0.00399716
0.000666259
-0.00424153
0.00095305
-0.00449792
0.000622676
-0.00473527
0.00102076
-0.00505569
0.000560818
-0.00529972
0.00109236
-0.00549039
0.000318812
-0.00582799
0.000928543
-0.00600338
0.000917476
-0.00678323
0.00219873
-0.00685559
0.00197308
-0.00749883
0.00102269
-0.00649399
-0.00310273
-0.00426541
-0.0104864
-0.00295637
-0.00785856
-0.00140308
-0.0100665
-8.84696e-05
-0.0150793
-0.0133549
0.0584168
-0.0277437
0.0896737
0.0180612
-0.230199
0.0029017
0.002064
-0.136275
0.733671
-0.0750992
-0.126175
0.194629
-1.34789
0.18035
-0.230593
-0.137376
1.48644
-0.31572
1.03453
-0.264612
-0.133376
-0.14163
-0.570555
-0.0185155
-0.551418
0.0631047
-0.415572
0.0817789
-0.126962
0.026937
0.226811
0.20834
-0.000208656
-3.041e-05
0.000197117
-0.000223666
-3.0275e-05
-0.000227384
-3.14822e-05
-0.000231685
-3.15351e-05
-0.000237642
-3.05047e-05
-0.000242768
-3.01067e-05
-0.000247027
-3.12867e-05
-0.00025173
-3.28957e-05
-0.000256689
-3.21708e-05
-0.000260555
-2.70416e-05
-0.000262786
-1.79837e-05
-0.000262922
-6.4443e-06
-0.000263065
5.64719e-06
-0.000266927
1.32182e-05
-0.000278054
9.77234e-06
-0.000296774
-7.41353e-06
-0.000318664
-3.27961e-05
-0.00033696
-5.35718e-05
-0.000347463
-5.71148e-05
-0.000351135
-4.0204e-05
-0.000351865
-1.12322e-05
-0.000352706
1.73943e-05
-0.000354624
3.80478e-05
-0.000357264
4.95177e-05
-0.000359379
5.38129e-05
-0.00035908
5.43917e-05
-0.000354966
5.55754e-05
-0.000347236
6.0586e-05
-0.000337449
6.94013e-05
-0.0003275
7.95336e-05
-0.000318859
8.80769e-05
-0.000312378
9.34688e-05
-0.000308427
9.53809e-05
-0.000307321
9.47548e-05
-0.000309511
9.1976e-05
-0.000315475
8.70475e-05
-0.000325243
7.86343e-05
-0.000338364
6.71632e-05
-0.000354022
5.3379e-05
-0.000371649
4.10921e-05
-0.000390945
3.15983e-05
-0.000411999
2.77837e-05
-0.00043466
2.69625e-05
-0.000458628
3.06659e-05
-0.000483114
3.41872e-05
-0.000507514
4.17447e-05
-0.000531207
4.77948e-05
-0.000554113
6.01203e-05
-0.000576256
6.99052e-05
-0.000597974
8.8044e-05
-0.000619648
9.96121e-05
-0.000641619
0.000120842
-0.000664685
0.000130224
-0.000689218
0.000153405
-0.000716654
0.000159003
-0.000746818
0.000183991
-0.000781488
0.000182516
-0.000819264
0.000208506
-0.000862671
0.00019847
-0.000909013
0.000229849
-0.000962249
0.000213807
-0.00101794
0.00025572
-0.00108173
0.000232051
-0.00114725
0.000285706
-0.00122242
0.000250968
-0.00129948
0.000319839
-0.00138818
0.000271613
-0.0014796
0.000359159
-0.00158348
0.000293667
-0.00169071
0.000404155
-0.00180922
0.00032386
-0.00193207
0.000467814
-0.00206342
0.000381027
-0.00220148
0.000564351
-0.00234423
0.00046886
-0.00249925
0.000683568
-0.00265373
0.000567235
-0.00282992
0.000808099
-0.00300222
0.000665666
-0.00320602
0.00092923
-0.00340229
0.000774751
-0.00363967
0.00105361
-0.00386955
0.000866425
-0.00413133
0.00116819
-0.00440118
0.000925494
-0.00469148
0.00126479
-0.00498809
0.000933491
-0.00530936
0.00131121
-0.00563422
0.000895799
-0.00595654
0.00141783
-0.00635451
0.000833124
-0.00669027
0.0015069
-0.00695371
0.000570117
-0.0073956
0.00130961
-0.00765428
0.00132445
-0.00856576
0.00281549
-0.00878402
0.00258183
-0.00924917
0.000973327
-0.00829502
-0.00385072
-0.00600175
-0.0126441
-0.00478829
-0.00913033
-0.00338439
-0.0116427
-0.00268224
-0.0161107
-0.0176341
0.0742605
-0.0323524
0.104544
0.0167207
-0.28122
-0.00399921
0.0242979
-0.151993
0.823721
-0.0752001
-0.203141
0.211209
-1.63635
0.171161
-0.192423
-0.178541
1.84381
-0.354461
1.20862
-0.291653
-0.191735
-0.153631
-0.712385
-0.0163555
-0.685966
0.0722946
-0.507513
0.0890371
-0.143333
0.0259583