/*--------------------------------*- C++ -*----------------------------------*\
| =========                 |                                                 |
| \\      /  F ield         | OpenFOAM: The Open Source CFD Toolbox           |
|  \\    /   O peration     | Version:  2412                                  |
|   \\  /    A nd           | Website:  www.openfoam.com                      |
|    \\/     M anipulation  |                                                 |
\*---------------------------------------------------------------------------*/
FoamFile
{
    version     2.0;
    format      ascii;
    arch        "LSB;label=32;scalar=64";
    class       volScalarField;
    location    "0.18";
    object      Co;
}
// * * * * * * * * * * * * * * * * * * * * * * * * * * * * * * * * * * * * * //

dimensions      [0 0 0 0 0 0 0];

internalField   nonuniform List<scalar> 
12600
(
0.433142
0.189632
0.0793978
0.0371644
0.0210799
0.0138458
0.00969622
0.00697049
0.00505802
0.00366922
0.0026384
0.00185818
0.00125938
0.000797223
0.000438741
0.000218362
0.000233333
0.000368191
0.000469857
0.000543613
0.000599569
0.00063579
0.000661307
0.00067236
0.000677466
0.000673775
0.000665694
0.000652422
0.000636391
0.00061744
0.000596968
0.00057497
0.000552176
0.00052864
0.000505434
0.000482519
0.000459527
0.000437025
0.000415635
0.000396351
0.000380155
0.000364642
0.000348112
0.000330627
0.000307704
0.000275113
0.000228452
0.000165428
8.85384e-05
8.06566e-05
0.00013735
0.000159774
0.000152165
0.000126774
0.000138625
0.000265626
0.000422254
0.000507745
0.000494139
0.000469645
0.000385202
0.000292552
0.000302327
0.000434342
0.000611003
0.000771808
0.000843679
0.000799699
0.000731888
0.000538444
0.000304261
0.000115989
6.15637e-05
8.27735e-05
7.92541e-05
7.48973e-05
5.6824e-05
3.22476e-05
1.40276e-05
8.22278e-06
7.75536e-06
5.2979e-06
2.79157e-06
1.82833e-06
2.19319e-06
3.87033e-06
6.86434e-06
8.48385e-06
8.30523e-06
7.80475e-06
5.92979e-06
4.23311e-06
6.19055e-06
1.08633e-05
1.51063e-05
1.88364e-05
2.19063e-05
2.45163e-05
2.66022e-05
2.83898e-05
2.97681e-05
3.10133e-05
3.1983e-05
3.29992e-05
3.38256e-05
3.4791e-05
3.55951e-05
3.65378e-05
3.73875e-05
3.82675e-05
3.92524e-05
4.00109e-05
4.12886e-05
4.18626e-05
4.38443e-05
4.41546e-05
4.81635e-05
4.85621e-05
5.77743e-05
6.73899e-05
0.683289
0.462786
0.282727
0.169546
0.106176
0.0709555
0.0500397
0.0365245
0.0271909
0.0204578
0.0154564
0.0116622
0.00873777
0.00645749
0.00466474
0.00324752
0.00212552
0.00123643
0.000641114
0.000664311
0.00100832
0.00126232
0.00146036
0.0015943
0.00169511
0.00175451
0.00179
0.00179956
0.00179294
0.00177009
0.00173678
0.00169365
0.00164375
0.00158778
0.00152846
0.00146685
0.00140437
0.00134389
0.00128565
0.00123316
0.0011855
0.00113608
0.00108472
0.00103395
0.000969258
0.000879229
0.000750231
0.000572412
0.000350795
0.000307796
0.000432326
0.000438818
0.000409959
0.000370382
0.000585818
0.00113731
0.00157365
0.00172001
0.00154108
0.00151104
0.00124436
0.000926245
0.00105777
0.00157999
0.0021682
0.00261115
0.00268479
0.00247138
0.0023324
0.00177438
0.00103917
0.000455049
0.000273391
0.000297183
0.000259303
0.000256046
0.000203338
0.000125992
5.29548e-05
1.49915e-05
1.07134e-05
1.56479e-05
2.12433e-05
1.78504e-05
1.87238e-05
1.30928e-05
1.0548e-05
1.1082e-05
8.63965e-06
9.05747e-06
1.56739e-05
3.07163e-05
4.60574e-05
6.08926e-05
7.37837e-05
8.48173e-05
9.37604e-05
0.000101378
0.000107479
0.000112766
0.000116884
0.000120705
0.000123777
0.000127087
0.000129859
0.000133104
0.000135855
0.000139059
0.000141973
0.000144993
0.000148345
0.000151003
0.000155219
0.000157361
0.000163921
0.000164808
0.000179496
0.000178065
0.000214053
0.00024241
0.746682
0.622966
0.466757
0.329832
0.229084
0.161068
0.116198
0.0859946
0.0648937
0.0496158
0.0382353
0.0295725
0.0228695
0.0176176
0.0134626
0.0101509
0.00749829
0.00536402
0.00364321
0.00230192
0.00121807
0.00106835
0.0015501
0.00190283
0.00218317
0.00237748
0.00251897
0.00260509
0.00265451
0.002668
0.0026567
0.00262205
0.00257043
0.00250372
0.00242614
0.00234088
0.00225261
0.0021663
0.00208388
0.00200825
0.00193484
0.00185243
0.00177234
0.00170413
0.00162169
0.00150754
0.00133751
0.00108753
0.000756431
0.000642333
0.000741285
0.000631712
0.000635617
0.000848228
0.00147507
0.00242411
0.00303425
0.00303992
0.00256188
0.00261926
0.00217229
0.00154938
0.00199281
0.00306247
0.00408202
0.00467194
0.00448917
0.00407932
0.00405426
0.0032301
0.00198297
0.000971918
0.000610891
0.000559854
0.000449315
0.000470769
0.000394206
0.000262664
0.000127961
3.43962e-05
3.01731e-05
5.40291e-05
5.96739e-05
4.77233e-05
5.23411e-05
4.45804e-05
3.03935e-05
1.61231e-05
1.76758e-05
3.87891e-05
6.40284e-05
9.22401e-05
0.000119225
0.000143918
0.000164414
0.000181516
0.000195079
0.00020673
0.000216011
0.000224208
0.000230562
0.000236722
0.000241738
0.000247423
0.000252191
0.000257927
0.000262749
0.000268423
0.000273605
0.00027888
0.00028496
0.000289469
0.000297218
0.000300712
0.000312979
0.00031327
0.000342889
0.000333864
0.000409563
0.000454605
0.738145
0.684734
0.584262
0.467862
0.359838
0.271669
0.204838
0.155724
0.119698
0.0929278
0.0726917
0.0571422
0.0450239
0.0354697
0.0278659
0.0217689
0.016852
0.0128689
0.00962864
0.00702886
0.00487336
0.00317387
0.0017714
0.00151343
0.00207144
0.00248466
0.00280405
0.00302859
0.00318713
0.00328254
0.0033322
0.00333961
0.00331514
0.00326234
0.00318857
0.00309905
0.00300109
0.00290167
0.00280608
0.00271519
0.00262175
0.00250765
0.00240486
0.00233699
0.00226043
0.00215334
0.00197894
0.00169347
0.00128155
0.00104671
0.00101916
0.000706498
0.00084558
0.00150956
0.00272941
0.00403439
0.00469386
0.00438236
0.00359296
0.00378748
0.00315135
0.00214514
0.00312798
0.00484178
0.00625265
0.00682098
0.00614538
0.00563327
0.00585223
0.00483678
0.00307826
0.00162859
0.00105199
0.000860583
0.000656643
0.0007203
0.000627021
0.000438184
0.000233265
8.26098e-05
8.31026e-05
0.000117805
0.000118794
9.44323e-05
0.000103704
9.52796e-05
7.54176e-05
5.42465e-05
7.09355e-05
0.000107184
0.000147739
0.000189914
0.000228364
0.000262039
0.000288799
0.00031063
0.000327602
0.000342381
0.000354103
0.000364685
0.000372855
0.000381139
0.000387977
0.000396069
0.00040288
0.000411218
0.000418216
0.000426439
0.000434056
0.00044156
0.000450643
0.000456833
0.000468486
0.000473035
0.000491676
0.000490222
0.000538018
0.000515807
0.000640337
0.000699319
0.708409
0.686602
0.633106
0.554386
0.465021
0.378191
0.302077
0.239422
0.18956
0.150428
0.119778
0.0956664
0.0765667
0.0613248
0.0490768
0.0391747
0.0311288
0.0245646
0.0191869
0.0148061
0.0111796
0.00824234
0.00578957
0.00383616
0.00226298
0.00195645
0.00254176
0.00298022
0.00331288
0.00354622
0.00370504
0.00379588
0.00383398
0.00382559
0.00378153
0.00370989
0.00362154
0.00352615
0.00343036
0.00333453
0.0032278
0.00308614
0.00296269
0.00291437
0.00286735
0.00279634
0.0026514
0.0023649
0.00190033
0.00148459
0.00122554
0.000634959
0.00105299
0.00233131
0.00428157
0.00587656
0.00645584
0.00568072
0.00461797
0.00498991
0.00415226
0.00269399
0.0044629
0.00685735
0.00856145
0.0089133
0.00753879
0.00711119
0.00765862
0.00651486
0.00426469
0.00238968
0.00157841
0.0011923
0.000883937
0.00100405
0.00089856
0.000649076
0.000366533
0.000151413
0.00016323
0.000207621
0.000200933
0.000161987
0.000173837
0.000165413
0.000139807
0.000119096
0.000158363
0.000212369
0.000269641
0.000326176
0.000375596
0.000417248
0.00044897
0.000474313
0.000493637
0.000510758
0.000524271
0.000536756
0.000546343
0.000556514
0.000565008
0.000575444
0.00058425
0.000595149
0.000604314
0.000614968
0.000625073
0.000634529
0.000646785
0.000654171
0.000670013
0.000674947
0.000700437
0.000695714
0.000763911
0.000723257
0.000901314
0.000970631
0.677819
0.663847
0.636173
0.589777
0.527901
0.45795
0.38777
0.322837
0.265886
0.217624
0.177566
0.144687
0.117828
0.0959028
0.0779801
0.0632934
0.0512264
0.0412879
0.0330783
0.0263131
0.0206923
0.0160687
0.0122094
0.00905835
0.00642318
0.00428976
0.00265699
0.00235839
0.00294419
0.0033833
0.0037098
0.0039347
0.00407906
0.00415268
0.00417067
0.0041446
0.00408907
0.00401698
0.00393668
0.00384831
0.00373761
0.00357573
0.00342521
0.00341782
0.00342441
0.00341695
0.00333231
0.00307632
0.00258615
0.00192254
0.00133006
0.000401844
0.00157555
0.00359737
0.00605317
0.00785164
0.00823142
0.006891
0.00562689
0.00620497
0.0051544
0.00327455
0.00597741
0.0090239
0.0108746
0.010812
0.00858775
0.00849547
0.00942038
0.00820383
0.00549657
0.00322582
0.00217383
0.00154995
0.00113454
0.00132188
0.00120644
0.000892683
0.000526643
0.00024179
0.0002727
0.00032542
0.000309012
0.000254717
0.000263398
0.000255294
0.000223847
0.000223427
0.000284555
0.000358044
0.000432639
0.000503306
0.000562792
0.000611213
0.000646566
0.000674271
0.000694976
0.000713721
0.000728402
0.000742313
0.000752888
0.000764646
0.00077453
0.000787111
0.00079771
0.000810942
0.000822088
0.000834822
0.00084728
0.000858131
0.000873521
0.000881283
0.000901342
0.000905565
0.000938064
0.00092805
0.00101797
0.00095425
0.00118616
0.00126126
0.651724
0.636922
0.618645
0.591129
0.551905
0.50252
0.447176
0.390346
0.335532
0.285002
0.239935
0.200687
0.167073
0.138601
0.114649
0.0945775
0.07779
0.0637619
0.0520356
0.0422538
0.0340661
0.0272477
0.0215319
0.016792
0.0128183
0.00954086
0.00680264
0.00456256
0.00294978
0.00269843
0.00326446
0.00368517
0.00398904
0.00419067
0.00431024
0.00436369
0.00436984
0.00434512
0.00429988
0.00423463
0.00413277
0.00396142
0.00376365
0.00382171
0.00390689
0.0039896
0.00399438
0.00379902
0.00331049
0.00245992
0.00143163
0.000167152
0.00219318
0.00505858
0.00795805
0.00986498
0.00995062
0.00799566
0.00660123
0.00740845
0.00614042
0.00403726
0.00762364
0.0112336
0.0130518
0.0123971
0.00924356
0.00976057
0.0110877
0.009853
0.00673726
0.00411361
0.00282614
0.00193129
0.00141095
0.00167332
0.00154869
0.00116728
0.000713337
0.000355196
0.000413794
0.000473727
0.000446683
0.000377555
0.000373089
0.000365204
0.000329086
0.000371118
0.00045318
0.00054702
0.000638915
0.000723078
0.000791541
0.000845507
0.000883247
0.000912282
0.000933486
0.000953165
0.000968372
0.000983163
0.0009942
0.0010071
0.00101793
0.00103224
0.0010442
0.00105925
0.00107194
0.00108607
0.00110048
0.00111176
0.00112997
0.00113682
0.00116083
0.00116271
0.00120201
0.00118422
0.00129584
0.00120565
0.00148721
0.00156247
0.629605
0.612926
0.596326
0.576702
0.550837
0.517461
0.47757
0.433365
0.38726
0.341395
0.297444
0.256571
0.219468
0.186429
0.157449
0.13232
0.110712
0.0922446
0.0765236
0.0631958
0.0519039
0.0423772
0.0343252
0.0275624
0.0218586
0.017091
0.013084
0.00975521
0.00697432
0.00468424
0.00314278
0.00295863
0.00348816
0.00387486
0.00414517
0.00432024
0.00442356
0.00447584
0.00449016
0.00446844
0.00439297
0.00422934
0.00395676
0.00409352
0.00428425
0.00448333
0.00460559
0.00450042
0.00404187
0.00312009
0.00173955
0.000525903
0.00322193
0.00663607
0.00990578
0.011832
0.0115668
0.00900356
0.00751796
0.00857846
0.00709899
0.00496589
0.00932922
0.0133624
0.0149588
0.0135816
0.00950101
0.0108828
0.0126236
0.0114268
0.0079617
0.00503604
0.00352707
0.0023369
0.0017152
0.00205815
0.00192402
0.00147202
0.000927134
0.00049344
0.000588866
0.000655318
0.000617709
0.000535147
0.000503075
0.000495091
0.000484696
0.000562667
0.000666661
0.000780967
0.00088961
0.000986331
0.00106257
0.00112089
0.00115987
0.00118929
0.00121015
0.00123005
0.00124504
0.00126004
0.00127084
0.00128422
0.00129531
0.00131061
0.00132321
0.00133921
0.00135268
0.00136708
0.00138269
0.00139299
0.0014133
0.00141747
0.00144473
0.00144208
0.00148746
0.00145902
0.00159087
0.00147229
0.00179545
0.00186432
0.610045
0.59238
0.57542
0.558108
0.538272
0.514273
0.485663
0.452975
0.417237
0.379679
0.341534
0.303911
0.267733
0.233707
0.202323
0.173865
0.148428
0.125965
0.106313
0.089261
0.0745414
0.0619102
0.0510953
0.0418865
0.0340457
0.0274111
0.0217905
0.0170639
0.013083
0.00975925
0.00698082
0.00468282
0.00323772
0.00312208
0.00360443
0.00395369
0.00419884
0.00436571
0.00447092
0.00451932
0.0044939
0.00435955
0.00405988
0.00419459
0.00451761
0.00485992
0.0051277
0.00514279
0.00474456
0.00377697
0.00221143
0.00116178
0.00434917
0.00824922
0.0118083
0.0136849
0.0130581
0.00994417
0.00834948
0.00969394
0.0080231
0.00595242
0.0109982
0.0152798
0.0164822
0.0143195
0.00939355
0.0118393
0.0140009
0.0129015
0.00915457
0.00598142
0.0042724
0.00277011
0.00204867
0.00247637
0.00233193
0.00180697
0.0011692
0.000658498
0.000800251
0.000873075
0.000825751
0.000731636
0.000670451
0.000662599
0.000700756
0.000799878
0.00092586
0.00106012
0.00118459
0.00129278
0.00137563
0.00143723
0.00147644
0.00150541
0.00152507
0.00154437
0.00155828
0.00157259
0.00158221
0.0015951
0.00160546
0.00162064
0.00163278
0.00164839
0.00166148
0.00167455
0.0016902
0.00169755
0.00171884
0.00171799
0.00174732
0.00173743
0.00178759
0.00174546
0.00189438
0.00174705
0.00210078
0.00215613
0.592263
0.57432
0.557013
0.540177
0.522574
0.503044
0.480942
0.456148
0.428861
0.399512
0.368685
0.337027
0.305187
0.273782
0.243374
0.21445
0.1874
0.162498
0.139893
0.119634
0.101662
0.0858689
0.0720808
0.0601299
0.0498105
0.0409551
0.0333715
0.0269163
0.021428
0.0167919
0.0128792
0.00960059
0.00685713
0.00458166
0.00323892
0.00318633
0.00362972
0.00395893
0.00419538
0.0043487
0.00440472
0.00433104
0.00407442
0.00406805
0.00455708
0.00507152
0.00551432
0.00568164
0.00537727
0.00439475
0.00266871
0.00186831
0.00550125
0.00981446
0.0135858
0.0153759
0.014424
0.0108567
0.00906379
0.0107332
0.00890932
0.00693177
0.0125202
0.0168619
0.0175409
0.0146101
0.00898377
0.0126091
0.0151998
0.0142605
0.0103943
0.00702931
0.00506179
0.00323687
0.00241198
0.00292829
0.00277274
0.00217303
0.00144126
0.000852355
0.00104992
0.00112942
0.00107366
0.000969857
0.000896859
0.000893864
0.000962061
0.00108221
0.00122948
0.00138268
0.00152183
0.0016404
0.00172881
0.00179279
0.0018314
0.00185911
0.0018767
0.00189446
0.00190619
0.00191866
0.00192587
0.00193694
0.00194517
0.00195868
0.00196885
0.00198224
0.00199338
0.00200297
0.00201707
0.00201898
0.00203963
0.00203095
0.0020607
0.00204044
0.00209347
0.0020347
0.00219603
0.00202093
0.00239247
0.00242733
0.575966
0.558046
0.54067
0.523983
0.507213
0.489629
0.470783
0.450493
0.428689
0.405425
0.380869
0.35527
0.328919
0.302133
0.275252
0.248641
0.222674
0.197715
0.174087
0.152054
0.131793
0.113405
0.0968989
0.0822374
0.0693158
0.0580203
0.0481987
0.0397161
0.0324172
0.0261749
0.0208514
0.0163385
0.0125225
0.00931635
0.00663325
0.00441021
0.00317335
0.00318276
0.00360254
0.00390592
0.00408404
0.00411011
0.0039378
0.00368671
0.00433787
0.0050589
0.00570882
0.00606375
0.00589168
0.00493263
0.00307869
0.00258861
0.00660357
0.0112505
0.0151717
0.0168758
0.0156762
0.0117759
0.00962358
0.011671
0.00975378
0.00781867
0.0137796
0.0180029
0.0180942
0.0144893
0.00848267
0.0131756
0.0162035
0.0154888
0.0117095
0.00821736
0.00589817
0.00374539
0.00280444
0.00341439
0.0032476
0.002572
0.00174545
0.00107689
0.00133913
0.00142584
0.00136294
0.00125081
0.00117665
0.00118215
0.0012665
0.00140657
0.00157367
0.00174442
0.00189697
0.00202492
0.00211806
0.00218376
0.0022211
0.00224686
0.00226145
0.00227655
0.00228479
0.00229397
0.00229721
0.00230474
0.0023091
0.0023189
0.00232519
0.00233404
0.00234124
0.00234472
0.00235528
0.0023488
0.00236682
0.00234716
0.00237524
0.00234131
0.00239479
0.00231676
0.00248477
0.00228388
0.00266012
0.00266854
0.560985
0.543188
0.525896
0.509367
0.49304
0.476404
0.459184
0.441274
0.422601
0.403124
0.382867
0.3619
0.34031
0.318191
0.295649
0.272821
0.249884
0.227066
0.204629
0.182857
0.162024
0.142376
0.124101
0.107332
0.0921245
0.0784895
0.0663743
0.0557062
0.0463748
0.0382723
0.0312718
0.0252614
0.0201215
0.015752
0.0120529
0.0089447
0.00635445
0.00422375
0.00308619
0.00312303
0.00347518
0.00364972
0.00360482
0.00329292
0.0037839
0.00474718
0.00564128
0.0062249
0.00623068
0.00534332
0.00340569
0.00325945
0.00758078
0.012483
0.0165136
0.0181684
0.0168265
0.0127179
0.00998517
0.0124755
0.0105494
0.00851713
0.0146676
0.0186266
0.0181414
0.014017
0.00820773
0.0135223
0.0169927
0.0165673
0.0129756
0.00943788
0.0067866
0.00430574
0.00322314
0.00393493
0.00375836
0.00300647
0.00208449
0.00134574
0.00166787
0.00176224
0.00169309
0.00157309
0.0014974
0.00151022
0.00160886
0.00176668
0.00195154
0.00213812
0.00230279
0.00243926
0.00253657
0.00260362
0.00263924
0.00266242
0.00267306
0.00268426
0.00268749
0.00269166
0.0026891
0.00269101
0.0026894
0.00269307
0.00269323
0.00269481
0.0026958
0.00269017
0.00269493
0.00267688
0.00269001
0.00265611
0.00268024
0.00262946
0.00268073
0.00258142
0.00275005
0.00252602
0.00289475
0.00287275
0.547163
0.529528
0.51238
0.496035
0.480044
0.464002
0.447717
0.431145
0.414241
0.396969
0.379328
0.361352
0.343081
0.324536
0.305718
0.28662
0.26725
0.24765
0.227908
0.208166
0.188614
0.169475
0.150981
0.133361
0.116802
0.101457
0.0874138
0.0747164
0.0633526
0.0532816
0.0444263
0.0367011
0.0300022
0.0242314
0.0192859
0.015077
0.0115203
0.0085451
0.00608111
0.00405666
0.00294597
0.00288345
0.00302563
0.00288964
0.00282517
0.00403902
0.00522538
0.00608681
0.00632597
0.00557141
0.00360903
0.00381485
0.00836111
0.0134477
0.0175716
0.0192414
0.0178731
0.0136704
0.010098
0.0131065
0.0112834
0.00893102
0.0150937
0.0186911
0.0177136
0.0132564
0.0080077
0.0136308
0.0175443
0.0174696
0.0141714
0.0106817
0.0077323
0.00492908
0.00366134
0.00448913
0.0043073
0.00347986
0.0024615
0.0016732
0.0020345
0.00213644
0.00206112
0.0019325
0.0018534
0.00187081
0.00198052
0.002153
0.00235292
0.00255337
0.00272887
0.00287321
0.00297442
0.00304273
0.00307646
0.00309659
0.00310237
0.00310832
0.00310493
0.00310218
0.00309183
0.00308579
0.00307593
0.00307077
0.00306241
0.00305375
0.00304615
0.00302828
0.00302494
0.00299217
0.00299816
0.00294701
0.00296501
0.00289466
0.00294123
0.00281943
0.00298311
0.00273909
0.0030901
0.00303631
0.534367
0.516912
0.499935
0.483777
0.46807
0.45247
0.436826
0.421119
0.405321
0.389398
0.373345
0.357192
0.340987
0.324763
0.308523
0.292239
0.275859
0.259326
0.242597
0.225662
0.208553
0.19136
0.174215
0.157297
0.140802
0.124937
0.109887
0.0958122
0.082822
0.0709861
0.0603227
0.050817
0.0424181
0.0350601
0.0286591
0.0231328
0.0183962
0.0143737
0.0109879
0.00815979
0.00579671
0.00379472
0.00255513
0.00221021
0.00197225
0.00282586
0.00435477
0.00555327
0.00609445
0.00555057
0.00364151
0.00419044
0.00888009
0.0140913
0.0183121
0.0200749
0.0187893
0.0145901
0.00990458
0.0135139
0.0119351
0.00897416
0.0149941
0.0181896
0.0168599
0.0122599
0.00760265
0.0134825
0.0178315
0.0181628
0.0152697
0.0119372
0.00873735
0.00562649
0.00410641
0.00507371
0.00489642
0.00399625
0.00288052
0.00204796
0.00243509
0.00254375
0.00246126
0.00232175
0.00223567
0.00225338
0.00236969
0.00255278
0.00276453
0.00297664
0.00316171
0.00331344
0.00341856
0.00348836
0.00352031
0.0035371
0.00353724
0.00353666
0.00352508
0.00351348
0.00349333
0.00347697
0.00345661
0.0034399
0.00342067
0.0033989
0.00338049
0.0033475
0.003334
0.00328379
0.00328073
0.00320997
0.00322009
0.00312834
0.00316832
0.00302378
0.00317818
0.00291779
0.00324358
0.00315939
0.52249
0.505222
0.488426
0.472447
0.456986
0.44174
0.426582
0.411501
0.396482
0.381485
0.36649
0.351516
0.336608
0.321816
0.307176
0.292693
0.278342
0.264064
0.249784
0.23542
0.220904
0.206195
0.191292
0.176244
0.161145
0.146133
0.131375
0.117054
0.103348
0.0904181
0.0783886
0.0673478
0.0573371
0.0483636
0.0403988
0.0333963
0.0272929
0.0220234
0.0175149
0.0136903
0.0104553
0.00770113
0.00530167
0.00313042
0.00162314
0.00133434
0.00289173
0.00450426
0.00543213
0.00519821
0.00344564
0.0043281
0.00908261
0.0143691
0.0187004
0.0206327
0.0195198
0.0154054
0.00984831
0.0136374
0.0124744
0.00857866
0.0143361
0.0171446
0.0156309
0.011059
0.0069797
0.013061
0.0178271
0.0186103
0.016239
0.0131885
0.0097964
0.00640691
0.00453737
0.00568054
0.00552625
0.00456005
0.00334648
0.00245439
0.00286346
0.00297696
0.002885
0.00273078
0.00263247
0.00264465
0.00276187
0.00295079
0.00317067
0.00339209
0.00358549
0.00374428
0.00385355
0.00392531
0.00395588
0.00396928
0.00396327
0.00395505
0.00393392
0.00391172
0.00388003
0.00385119
0.00381835
0.00378768
0.00375564
0.00371831
0.00368736
0.00363696
0.00361186
0.00354229
0.00352898
0.00343725
0.00343857
0.00332473
0.00335721
0.00319081
0.00333329
0.0030605
0.00335663
0.00324577
0.511438
0.494354
0.477741
0.461935
0.446689
0.431737
0.416964
0.402369
0.387938
0.373634
0.359422
0.345301
0.331298
0.317458
0.30383
0.290449
0.277332
0.264463
0.251797
0.239266
0.226783
0.214257
0.201608
0.18878
0.175748
0.162534
0.149197
0.135846
0.122616
0.109671
0.097175
0.0852873
0.0741404
0.0638358
0.0544339
0.0459619
0.0384131
0.0317618
0.0259615
0.0209535
0.0166562
0.0129687
0.00976443
0.00690657
0.00426278
0.00174321
0.000933981
0.00277782
0.00420722
0.00440874
0.00294722
0.00417883
0.00892307
0.0142418
0.0186942
0.020858
0.0199834
0.0160247
0.010191
0.0134052
0.0128596
0.00769652
0.0131159
0.0155984
0.0140646
0.00966475
0.00613019
0.0123526
0.0175057
0.018777
0.0170441
0.0144168
0.0108944
0.00727396
0.00492312
0.00629346
0.00619365
0.00517511
0.00386538
0.002886
0.00331137
0.0034266
0.00332159
0.00314732
0.00302998
0.00302954
0.00314114
0.00333058
0.00355474
0.00378309
0.00398368
0.00414933
0.00426317
0.00433752
0.00436734
0.00437754
0.00436513
0.00434847
0.00431682
0.00428267
0.00423817
0.00419519
0.00414847
0.00410208
0.00405598
0.00400146
0.00395705
0.00388796
0.00385068
0.00376101
0.0037372
0.00362443
0.00361701
0.00348173
0.0035069
0.00332065
0.00345034
0.00316934
0.00343427
0.00330196
0.50113
0.484224
0.467792
0.452149
0.437094
0.422392
0.407938
0.393729
0.379762
0.365998
0.3524
0.338948
0.325649
0.312529
0.299627
0.286985
0.274639
0.262611
0.250899
0.239476
0.228289
0.217267
0.20632
0.195358
0.184298
0.173073
0.161646
0.150014
0.138215
0.126326
0.114458
0.102751
0.0913555
0.0804247
0.070094
0.0604755
0.0516465
0.0436538
0.0365104
0.0302036
0.0246882
0.0198916
0.0157053
0.0119978
0.00862304
0.00546406
0.00247473
0.00136032
0.00228343
0.00304133
0.00204644
0.0037043
0.00836463
0.0136727
0.0182421
0.0206746
0.0200804
0.0163462
0.0105117
0.0127288
0.0130253
0.00717883
0.011359
0.0136017
0.0121809
0.00807444
0.00505097
0.011349
0.0168471
0.0189857
0.0180217
0.0156029
0.0120076
0.0082211
0.0052633
0.00688466
0.00688838
0.00584271
0.0044436
0.00333544
0.00376924
0.00388164
0.00375886
0.003558
0.00341369
0.00339272
0.00349178
0.00367648
0.00390128
0.00413449
0.00434141
0.00451388
0.00463284
0.00471049
0.00474031
0.00474762
0.00472888
0.00470333
0.00466064
0.00461375
0.00455579
0.00449776
0.00443658
0.00437359
0.00431312
0.00424085
0.00418309
0.00409525
0.00404629
0.00393708
0.00390356
0.00377101
0.00375596
0.00360113
0.0036202
0.00341702
0.00353452
0.00324941
0.00348399
0.00333576
0.491493
0.47476
0.458503
0.443016
0.428134
0.413648
0.399461
0.385571
0.371977
0.358646
0.345539
0.332628
0.319904
0.307376
0.295064
0.282999
0.271216
0.259747
0.248617
0.237834
0.227386
0.217239
0.207339
0.197616
0.187986
0.178362
0.168662
0.158816
0.148775
0.138523
0.128076
0.117487
0.106842
0.0962599
0.0858747
0.0758304
0.0662629
0.0572923
0.04901
0.0414773
0.0347155
0.0287092
0.0233974
0.0186804
0.0144236
0.0104865
0.00680579
0.00366832
0.00229593
0.00176529
0.000626599
0.00287997
0.00738209
0.0126281
0.017288
0.0199931
0.019703
0.0162592
0.0105254
0.0115028
0.0128845
0.00739008
0.00909519
0.011204
0.0100078
0.00627929
0.0037451
0.0100466
0.015838
0.0191394
0.0191335
0.0167313
0.0131054
0.00922822
0.00587421
0.00741278
0.00758858
0.00655816
0.00508616
0.00379545
0.00422708
0.00433059
0.0041844
0.00394967
0.00376992
0.0037204
0.00380038
0.00397576
0.0041984
0.00443512
0.00464804
0.0048276
0.00495237
0.00503405
0.00506462
0.00506944
0.00504459
0.00501
0.00495622
0.00489635
0.00482497
0.00475178
0.00467639
0.00459697
0.00452281
0.0044334
0.00436344
0.00425801
0.00419886
0.0040719
0.00403039
0.00388042
0.00385962
0.00368805
0.00370285
0.00348617
0.00359303
0.00330741
0.00351399
0.00335483
0.482467
0.465898
0.449811
0.434471
0.419747
0.40545
0.391494
0.377872
0.364585
0.351607
0.338899
0.32643
0.314184
0.302154
0.290347
0.278777
0.267467
0.256447
0.245743
0.235378
0.225366
0.215706
0.206378
0.197348
0.188565
0.179962
0.171464
0.16299
0.15446
0.145806
0.136972
0.127931
0.118681
0.109255
0.0997183
0.0901668
0.0807182
0.0715053
0.0626608
0.0543076
0.0465419
0.0394272
0.03298
0.0271687
0.0219078
0.0170759
0.0125755
0.00841832
0.00503202
0.0031986
0.00186778
0.00337118
0.00695491
0.0114483
0.0157831
0.0187198
0.0187482
0.0156534
0.0101361
0.00960926
0.0122846
0.00768359
0.006372
0.0084512
0.00756605
0.00424703
0.00222199
0.0084499
0.0151353
0.0197068
0.0201822
0.0177913
0.0141572
0.0102622
0.00679164
0.00782532
0.00825618
0.00730542
0.00579292
0.00434767
0.0046757
0.00476251
0.00458673
0.0043108
0.00408744
0.0040021
0.00405769
0.00422067
0.00443978
0.00467983
0.00489926
0.00508667
0.00521813
0.00530455
0.00533656
0.00533924
0.00530857
0.005265
0.00520036
0.00512774
0.0050435
0.00495574
0.00486714
0.00477235
0.004686
0.00458107
0.00450084
0.00437996
0.00431284
0.00417075
0.00412353
0.00395913
0.00393481
0.00374969
0.0037622
0.0035355
0.00363349
0.0033502
0.00353171
0.00336541
0.473998
0.457583
0.441659
0.42646
0.411881
0.397754
0.383998
0.370606
0.357578
0.344892
0.332513
0.320408
0.308558
0.296949
0.285576
0.274441
0.263555
0.252935
0.242601
0.232578
0.222884
0.213534
0.204532
0.195871
0.187531
0.179477
0.171662
0.164028
0.156505
0.149022
0.141504
0.133884
0.126105
0.11813
0.109946
0.101569
0.0930432
0.0844447
0.0758733
0.0674471
0.0592875
0.0515095
0.0442033
0.0374228
0.0311696
0.0253886
0.0200028
0.014978
0.0104701
0.00693081
0.00507887
0.00565366
0.00853922
0.0127339
0.0162407
0.0176792
0.0171303
0.0144304
0.00924701
0.00695501
0.0110385
0.00775085
0.00323898
0.00563615
0.00597895
0.00397697
0.00284843
0.00922753
0.0160445
0.0206078
0.0211498
0.0187728
0.0151392
0.01128
0.00776928
0.00807094
0.00883526
0.00805089
0.00655244
0.00502418
0.00510783
0.00516817
0.00495636
0.00463254
0.00435863
0.00423191
0.00425991
0.00440951
0.00462561
0.00487022
0.00509763
0.00529419
0.00543345
0.00552536
0.00555941
0.00556024
0.00552404
0.00547164
0.00539653
0.00531163
0.00521539
0.00511408
0.0050137
0.00490515
0.00480858
0.0046903
0.00460215
0.00446845
0.00439579
0.0042415
0.0041909
0.00401513
0.00398939
0.00379376
0.00380562
0.00357193
0.00366248
0.00338348
0.00354273
0.00337177
0.466035
0.449768
0.433999
0.418935
0.40449
0.390516
0.376938
0.363747
0.350941
0.338501
0.326396
0.314595
0.303075
0.29182
0.280818
0.270064
0.259556
0.249302
0.239313
0.229605
0.220197
0.211103
0.202337
0.193905
0.185807
0.178031
0.170558
0.163356
0.156383
0.149587
0.142908
0.136282
0.129641
0.122921
0.116067
0.109036
0.101806
0.094378
0.0867797
0.0790668
0.0713172
0.0636268
0.0560973
0.048826
0.0418876
0.0353164
0.0291084
0.0232533
0.017841
0.0132013
0.00997479
0.00904333
0.0107369
0.0144255
0.0180692
0.019716
0.0180066
0.0134126
0.00777315
0.00351449
0.00894559
0.00733796
0.00196207
0.00495002
0.00686921
0.00543502
0.00478618
0.0106352
0.0170693
0.0214662
0.0220217
0.0196614
0.0160355
0.012239
0.00876325
0.00811752
0.00925893
0.00873919
0.00733507
0.00577082
0.00551808
0.00554033
0.00528611
0.00490926
0.0045801
0.00440898
0.00440883
0.00454643
0.00476191
0.00501358
0.00525118
0.00545856
0.0056069
0.00570507
0.00574171
0.00574097
0.00569953
0.00563852
0.00555339
0.00545677
0.00534946
0.00523575
0.00512509
0.00500453
0.00489974
0.00477037
0.00467654
0.00453257
0.00445658
0.00429276
0.00424073
0.00405622
0.00403063
0.00382696
0.00383916
0.00360086
0.00368476
0.00341121
0.00355049
0.00337632
0.458536
0.442409
0.426787
0.411853
0.397533
0.3837
0.370281
0.357266
0.344654
0.332426
0.320553
0.309008
0.297765
0.286809
0.276123
0.265697
0.255524
0.245601
0.235932
0.226525
0.217392
0.208544
0.199994
0.191754
0.183829
0.176222
0.168928
0.161935
0.155224
0.148766
0.142525
0.136456
0.130509
0.124625
0.118746
0.112813
0.106772
0.100578
0.0942021
0.0876344
0.0808851
0.0739871
0.0669919
0.0599678
0.0529912
0.0461347
0.0394575
0.033012
0.0268943
0.0213099
0.0167423
0.0140574
0.0140034
0.0165906
0.020026
0.0220554
0.0210331
0.0164287
0.00907989
0.00111324
0.00588199
0.0068588
0.0040754
0.00513527
0.0077587
0.00697446
0.00691524
0.0121296
0.0181213
0.0222706
0.0227807
0.0204367
0.0168338
0.0131068
0.00972147
0.00797257
0.00946836
0.00929653
0.00808665
0.00655819
0.00590333
0.00587442
0.00557144
0.00513832
0.00475222
0.00453686
0.00451077
0.00463985
0.00485838
0.00512024
0.00537049
0.0055904
0.005749
0.00585415
0.00589392
0.00589194
0.00584562
0.00577635
0.00568169
0.00557397
0.00545644
0.00533141
0.00521179
0.00508079
0.00496946
0.0048309
0.00473316
0.004581
0.00450331
0.00433202
0.00427988
0.00408854
0.00406399
0.00385407
0.00386694
0.00362568
0.00370313
0.00343563
0.00355671
0.00338013
0.451462
0.435468
0.419986
0.405175
0.390974
0.37727
0.363996
0.35114
0.338698
0.326655
0.314982
0.303654
0.292648
0.281944
0.271528
0.261384
0.251502
0.241874
0.232497
0.223371
0.214503
0.205898
0.197565
0.189514
0.181754
0.174289
0.167122
0.160252
0.153673
0.147371
0.141329
0.135523
0.12992
0.124485
0.119173
0.113934
0.108719
0.103472
0.0981448
0.0926918
0.0870783
0.0812822
0.0752958
0.0691276
0.0628025
0.0563619
0.0498575
0.0433652
0.0370068
0.0309238
0.0254117
0.0211163
0.0189544
0.0197095
0.0222836
0.0243967
0.0240463
0.0202649
0.0134439
0.00496341
0.00760925
0.00956942
0.00802741
0.00651464
0.00860448
0.00853169
0.00920149
0.0136867
0.019186
0.0230046
0.0234079
0.0210732
0.0175177
0.0138653
0.010597
0.00815261
0.00944016
0.0096476
0.00873003
0.00733293
0.00626139
0.00616718
0.00580952
0.00531964
0.00487844
0.00462216
0.00457469
0.00469997
0.00492561
0.00520059
0.00546551
0.0056992
0.00586895
0.00598165
0.00602503
0.00602224
0.00597157
0.00589456
0.00579098
0.00567285
0.00554591
0.0054105
0.00528299
0.00514277
0.00502609
0.00487976
0.00477927
0.00462035
0.00454191
0.00436455
0.00431294
0.00411603
0.0040928
0.00387783
0.00389116
0.00364815
0.00371895
0.00345778
0.00356202
0.00338355
0.444777
0.428909
0.413562
0.398869
0.38478
0.371196
0.358055
0.345342
0.333053
0.321172
0.309675
0.298535
0.287731
0.277244
0.267058
0.257157