/*--------------------------------*- C++ -*----------------------------------*\
| =========                 |                                                 |
| \\      /  F ield         | OpenFOAM: The Open Source CFD Toolbox           |
|  \\    /   O peration     | Version:  2412                                  |
|   \\  /    A nd           | Website:  www.openfoam.com                      |
|    \\/     M anipulation  |                                                 |
\*---------------------------------------------------------------------------*/
FoamFile
{
    version     2.0;
    format      ascii;
    arch        "LSB;label=32;scalar=64";
    class       volVectorField;
    location    "0.18";
    object      ddt0(U);
}
// * * * * * * * * * * * * * * * * * * * * * * * * * * * * * * * * * * * * * //

dimensions      [0 1 -2 0 0 0 0];

internalField   nonuniform List<vector> 
12600
(
(7.0171 0 10.7265)
(-8.27257 -9.60302e-19 3.84728)
(-9.03854 -1.13221e-18 3.32784)
(-8.19021 0 3.81771)
(-7.56104 -4.83723e-20 3.94669)
(-7.0409 0 3.84705)
(-6.62818 1.85373e-18 3.70605)
(-6.27209 0 3.55929)
(-5.94265 0 3.41009)
(-5.63039 0 3.25511)
(-5.33943 0 3.07983)
(-5.04139 4.08286e-18 2.92699)
(-4.74852 4.133e-18 2.77615)
(-4.46637 0 2.62372)
(-4.19027 -8.42596e-18 2.47363)
(-3.91258 0 2.33334)
(-3.65078 4.47046e-20 2.17468)
(-3.43607 0 2.07009)
(-3.18582 -4.1951e-18 1.77909)
(-2.93293 0 1.87201)
(-2.51424 0 1.61965)
(-2.27596 0 1.45728)
(-2.36302 -1.73732e-17 1.35873)
(-2.0999 1.64516e-17 1.21717)
(-1.89087 -5.45419e-20 1.09712)
(-1.78354 -7.87825e-18 1.1396)
(-1.69948 0 1.05465)
(-1.5431 0 1.00603)
(-1.52804 0 0.96755)
(-1.48556 1.49459e-17 0.944985)
(-1.52498 2.9449e-17 0.954607)
(-1.56729 0 0.983367)
(-1.68968 0 1.03151)
(-1.94373 1.33702e-17 1.07321)
(-1.99624 1.23488e-17 1.34388)
(-1.90231 0 1.44311)
(-2.92165 0 0.903526)
(-3.6631 9.87492e-18 1.37122)
(-1.0067 0 3.2421)
(-1.24477 -5.72452e-18 1.29531)
(-4.63654 6.81969e-18 -0.00558068)
(-4.59069 -4.92884e-18 2.28062)
(-3.20346 0 4.7476)
(-6.43916 2.13737e-17 5.13847)
(-11.7563 2.36021e-17 6.53723)
(-16.6404 -4.60131e-17 8.88079)
(-20.8907 4.39079e-17 11.5167)
(-23.9004 0 13.1229)
(-24.0518 -3.90596e-17 12.7319)
(-21.146 4.04983e-17 10.1753)
(-13.5745 0 6.74152)
(-0.606155 -4.22234e-19 -1.17043)
(17.6754 -3.33528e-17 -10.8148)
(38.5003 0 -23.3191)
(60.9277 6.99249e-17 -35.1165)
(79.3224 0 -45.0994)
(83.5915 0 -45.6462)
(65.0825 -1.35169e-19 -34.2253)
(25.4256 1.84761e-18 -10.0884)
(-23.8848 -1.39937e-16 14.9803)
(-53.6407 1.29354e-16 30.8044)
(-62.6134 -2.2687e-16 34.2226)
(-50.2629 0 26.9013)
(-24.3714 -1.70849e-16 10.2004)
(2.9719 -1.52928e-16 -3.45398)
(24.0409 2.76803e-16 -13.438)
(24.4634 -1.28733e-16 -12.1043)
(-2.23056 0 2.54723)
(-40.2969 0 23.6013)
(-58.5249 0 33.2852)
(-50.6484 0 28.0692)
(-32.6174 0 17.8365)
(-16.4136 1.59262e-16 8.6407)
(-6.08689 -1.56578e-16 2.62454)
(2.00132 0 -1.14197)
(7.80521 0 -4.47445)
(10.1766 -1.49041e-16 -5.65719)
(8.54789 3.1539e-20 -4.71768)
(4.17357 -2.91717e-16 -2.45933)
(-0.650245 0 0.369246)
(-3.80541 0 2.14351)
(-4.36597 0 2.35212)
(-3.16142 1.56907e-18 1.54375)
(-0.545379 0 0.966593)
(1.18895 0 -0.312354)
(1.79534 -2.41616e-16 -0.792476)
(1.58519 -4.26059e-21 -0.567243)
(0.51173 0 -0.122668)
(-0.82022 0 0.656087)
(-2.15591 4.145e-16 1.44139)
(-3.3392 3.93142e-16 2.04386)
(-4.1549 3.71885e-16 2.46973)
(-4.5817 3.52002e-16 2.69478)
(-4.62479 1.04559e-20 2.69202)
(-4.38902 -2.03329e-20 2.53984)
(-3.97201 -2.98571e-16 2.29192)
(-3.50687 0 2.02234)
(-3.06571 0 1.76954)
(-2.7038 0 1.56354)
(-2.41372 -9.74492e-16 1.39873)
(-2.21546 4.64509e-16 1.28661)
(-2.07644 -4.42311e-16 1.20775)
(-2.01971 -4.21603e-16 1.17622)
(-1.99565 0 1.16247)
(-2.0209 0 1.17719)
(-2.05729 0 1.19741)
(-2.10358 -6.95135e-16 1.22418)
(-2.17689 0 1.26506)
(-2.21432 6.30497e-16 1.29015)
(-2.32677 0 1.35603)
(-2.35305 0 1.36513)
(-2.51086 -5.42745e-16 1.46118)
(-2.5155 0 1.45327)
(-2.70044 0 1.57066)
(-2.718 0 1.57152)
(-2.69911 8.82888e-16 1.56872)
(-3.09316 0 1.78721)
(-2.55691 -7.95443e-16 1.48284)
(-3.42961 0 1.98817)
(-3.9321 1.45627e-20 2.26112)
(4.87888 3.8621e-19 15.6352)
(-9.65082 7.10111e-19 10.2767)
(-17.7433 -1.76262e-19 9.93091)
(-20.9974 0 11.2268)
(-22.0083 1.68314e-18 12.0017)
(-21.8608 -1.90615e-18 12.1133)
(-21.3473 -1.93345e-18 11.9332)
(-20.7253 2.08048e-18 11.6386)
(-20.0399 0 11.2874)
(-19.3118 0 10.8978)
(-18.55 0 10.4592)
(-17.7425 0 10.0214)
(-16.9235 0 9.57161)
(-16.0958 0 9.109)
(-15.26 -8.67747e-20 8.63949)
(-14.4149 0 8.17992)
(-13.5731 -4.41814e-18 7.68632)
(-12.9243 0 7.28792)
(-11.7728 8.79835e-18 6.94308)
(-11.177 -8.80387e-18 6.3056)
(-10.1918 0 5.26965)
(-8.94317 -9.28225e-18 5.57989)
(-9.25775 9.05069e-18 5.19607)
(-8.31406 -8.53332e-18 4.69698)
(-7.32036 8.26117e-18 4.10438)
(-7.07353 0 4.16601)
(-6.76736 -8.30394e-18 3.89327)
(-6.28659 0 3.69417)
(-6.11227 0 3.56164)
(-5.92278 0 3.4685)
(-5.94204 -1.53065e-17 3.49348)
(-6.01767 0 3.59176)
(-6.33604 0 3.74991)
(-6.81702 0 3.95886)
(-7.10797 0 4.65016)
(-7.63548 0 4.7842)
(-9.33182 0 3.72565)
(-9.35671 -1.016e-17 5.26499)
(-6.14376 0 9.1701)
(-9.00647 -9.82276e-17 4.18871)
(-13.0707 -1.78968e-17 2.22833)
(-12.6209 -9.88585e-18 8.88627)
(-14.3287 0 14.9726)
(-23.7861 0 17.0758)
(-36.3017 -4.86259e-17 22.1524)
(-49.5078 4.69822e-17 29.3012)
(-61.5502 -4.51924e-17 36.2539)
(-69.1808 0 40.0369)
(-67.6642 4.06188e-17 37.8572)
(-55.8818 0 29.2854)
(-29.9481 0 15.2437)
(11.245 3.87385e-17 -10.1325)
(65.6984 0 -43.4176)
(132.22 0 -80.3091)
(196.337 -7.06493e-17 -118.575)
(243.58 0 -143.198)
(243.205 0 -137.879)
(175.31 -2.64153e-19 -95.4288)
(47.8834 -1.29884e-16 -21.5699)
(-90.248 -3.90011e-20 59.6862)
(-170.014 0 101.356)
(-185.626 2.26831e-16 107.167)
(-140.299 1.93656e-16 77.557)
(-56.7881 0 26.091)
(21.4038 3.05192e-16 -16.6741)
(71.5022 -2.26853e-19 -42.4444)
(57.6956 0 -31.3307)
(-26.9219 -1.32934e-16 21.2079)
(-134.606 0 82.1904)
(-180.561 0 105.149)
(-152.249 0 86.0402)
(-97.4779 0 53.7485)
(-48.3422 -3.1402e-16 25.8557)
(-15.4272 1.5425e-16 6.98924)
(8.356 0 -5.23526)
(24.7922 0 -14.7283)
(30.8455 -1.45761e-16 -17.7751)
(25.0433 5.41472e-20 -13.8616)
(11.2907 -1.11458e-20 -6.3663)
(-3.20575 0 2.03351)
(-11.8353 0 7.04539)
(-12.734 0 7.29964)
(-8.51718 2.25081e-18 4.55892)
(-1.47881 1.58152e-16 2.69195)
(2.53085 -2.35417e-16 -1.10604)
(3.93163 2.33452e-16 -2.12797)
(2.57317 -1.04507e-20 -1.30955)
(-0.879677 2.23917e-16 0.452583)
(-5.05293 0 2.83841)
(-9.01592 -3.98406e-16 5.33286)
(-12.2867 0 7.25564)
(-14.4244 -3.5657e-16 8.41253)
(-15.3579 0 8.93593)
(-15.1673 6.36871e-16 8.78892)
(-14.2056 3.01157e-16 8.20952)
(-12.7879 0 7.37697)
(-11.3031 0 6.51467)
(-9.94898 5.12837e-16 5.73214)
(-8.86731 -4.87299e-16 5.1097)
(-8.01729 9.26712e-16 4.62051)
(-7.4554 -4.4116e-16 4.29886)
(-7.06948 4.19701e-16 4.07755)
(-6.94014 0 4.00543)
(-6.89258 -3.80761e-16 3.97886)
(-7.0097 0 4.04706)
(-7.12998 0 4.11702)
(-7.31599 6.57518e-16 4.22314)
(-7.53294 0 4.3502)
(-7.7024 2.47276e-19 4.44845)
(-8.03124 -5.66609e-16 4.644)
(-8.15706 0 4.7058)
(-8.63719 0 4.99445)
(-8.67155 0 4.99788)
(-9.29492 -4.61081e-16 5.37404)
(-9.31825 8.75261e-16 5.3682)
(-9.41896 -8.29993e-16 5.44296)
(-10.5289 0 6.07348)
(-8.90032 7.47119e-16 5.13457)
(-11.6348 0 6.75829)
(-13.0632 -1.34148e-15 7.54523)
(6.31885 -9.46855e-19 21.2752)
(-4.1474 6.42283e-19 16.7825)
(-15.8787 2.7584e-18 15.1884)
(-25.3138 0 15.9329)
(-31.0765 1.76655e-18 17.5133)
(-33.7019 -6.16045e-20 18.6638)
(-34.6329 0 19.1564)
(-34.724 -1.97434e-18 19.2176)
(-34.3445 0 19.0247)
(-33.6648 -2.09452e-18 18.6723)
(-32.775 0 18.2052)
(-31.7409 0 17.644)
(-30.6001 0 17.0179)
(-29.3777 0 16.3428)
(-28.0925 4.2764e-18 15.6278)
(-26.7585 0 14.8932)
(-25.3745 0 14.1229)
(-24.1418 0 13.3828)
(-22.2976 -4.2064e-18 13.1337)
(-21.6199 -7.58587e-20 11.637)
(-19.1535 0 11.0405)
(-17.8894 -8.30692e-20 9.74559)
(-17.8864 0 9.83692)
(-16.2734 7.97107e-18 9.19937)
(-14.4609 0 8.05185)
(-13.8826 0 7.98733)
(-13.2546 7.87647e-18 7.46873)
(-12.4157 0 7.15747)
(-11.9764 0 6.8701)
(-11.557 1.53663e-17 6.70229)
(-11.4693 0 6.67554)
(-11.5154 0 6.78387)
(-11.9265 0 7.00873)
(-12.5087 0 7.36895)
(-13.1464 -1.38355e-17 8.13498)
(-14.1587 0 8.39948)
(-15.7655 0 7.72789)
(-15.1588 2.34909e-17 9.99621)
(-13.4011 0 13.1939)
(-17.6224 6.27157e-17 7.691)
(-20.5602 -8.17303e-18 7.72356)
(-20.9538 9.35946e-18 16.8795)
(-27.4373 0 23.7926)
(-41.4421 0 29.072)
(-59.4154 2.31855e-17 38.1226)
(-79.3635 0 49.0131)
(-97.6136 4.27501e-17 58.1901)
(-108.115 0 61.838)
(-103.804 3.4028e-19 56.1104)
(-82.2518 0 40.1133)
(-37.6395 0 12.9923)
(33.3123 0 -26.148)
(119.895 3.22662e-17 -85.9559)
(228.01 0 -144.129)
(325.778 0 -202.597)
(391.413 0 -229.854)
(376.235 0 -206.449)
(255.352 -2.1884e-16 -125.641)
(52.6843 0 1.77825)
(-161.337 -2.84066e-20 117.611)
(-279.532 0 169.754)
(-294.354 -1.0691e-16 166.322)
(-213.484 -1.82586e-16 109.703)
(-76.1065 0 27.3644)
(43.1589 -2.88329e-16 -37.1109)
(108.843 -1.29471e-16 -65.4672)
(72.5381 0 -35.0493)
(-64.1539 1.25195e-16 56.2503)
(-226.9 0 144.458)
(-291.451 0 168.598)
(-243.443 0 133.183)
(-156.005 0 81.4404)
(-77.0467 -2.22938e-19 38.3184)
(-22.7447 -1.45058e-16 8.45333)
(15.5318 0 -11.7316)
(41.682 0 -25.1802)
(49.7669 4.1234e-20 -28.4231)
(39.1315 2.71812e-16 -20.4892)
(16.2642 1.3371e-16 -7.86417)
(-6.91428 0 4.72199)
(-19.5809 0 11.9437)
(-20.3355 0 11.4909)
(-13.1901 4.76374e-16 6.83683)
(-2.75762 3.12636e-17 3.4797)
(3.02054 2.2084e-16 -1.67002)
(4.67554 0 -2.51956)
(1.90613 2.12121e-16 -0.694628)
(-4.03255 -2.09922e-16 2.27534)
(-10.5821 0 6.56759)
(-16.9666 0 10.2244)
(-21.9614 -3.5306e-16 13.0923)
(-25.0584 0 14.6682)
(-26.2154 -3.15575e-16 15.2067)
(-25.6107 -1.73879e-20 14.7399)
(-23.845 -2.81994e-16 13.6483)
(-21.4409 2.6687e-16 12.2309)
(-19.0076 0 10.8306)
(-16.8397 -4.79934e-16 9.59986)
(-15.1406 4.55967e-16 8.6473)
(-13.8247 -8.67245e-16 7.91216)
(-12.9823 0 7.45087)
(-12.416 3.92785e-16 7.142)
(-12.2721 0 7.07652)
(-12.2375 3.56039e-16 7.0652)
(-12.4898 -3.39127e-16 7.21812)
(-12.7077 0 7.34645)
(-13.0796 -6.14614e-16 7.56115)
(-13.4346 0 7.7701)
(-13.7955 -1.11276e-15 7.97216)
(-14.3155 5.29476e-16 8.28285)
(-14.6036 0 8.4335)
(-15.3753 0 8.8983)
(-15.4888 0 8.93706)
(-16.5569 -3.91881e-20 9.58537)
(-16.5836 -8.17559e-16 9.55146)
(-16.9323 7.75493e-16 9.81393)
(-18.656 0 10.7443)
(-16.0498 6.97892e-16 9.27613)
(-20.5007 0 11.9586)
(-22.5796 -2.21897e-20 13.024)
(7.60797 5.50046e-19 25.8807)
(1.79863 1.28489e-19 22.655)
(-8.56382 -1.39539e-18 20.1374)
(-20.2905 1.67421e-18 19.7267)
(-30.6631 1.85373e-18 21.199)
(-38.2274 3.60602e-18 23.1614)
(-42.9943 0 24.715)
(-45.6655 0 25.6706)
(-46.9541 0 26.1085)
(-47.3308 1.98367e-18 26.1589)
(-47.0792 0 25.9205)
(-46.3766 0 25.4675)
(-45.3412 0 24.8518)
(-44.0511 0 24.1111)
(-42.5609 0 23.2695)
(-40.9165 4.11456e-18 22.356)
(-39.1298 -4.0948e-18 21.3776)
(-37.4163 0 20.3455)
(-35.1604 0 19.6981)
(-33.5154 7.98501e-18 18.1349)
(-30.5142 -8.023e-18 18.1391)
(-29.5197 8.41987e-18 14.8554)
(-28.1241 -8.31667e-18 15.107)
(-26.1776 -7.54778e-18 14.541)
(-23.8208 7.57267e-18 12.5957)
(-22.3674 -7.74168e-18 12.8755)
(-21.3702 0 11.8529)
(-20.0945 7.5729e-18 11.3848)
(-19.2956 0 10.879)
(-18.5229 -1.45433e-17 10.6365)
(-18.2274 0 10.4925)
(-18.1215 0 10.5708)
(-18.4836 0 10.8182)
(-19.0594 1.34287e-17 11.2756)
(-19.9598 1.30877e-17 11.8967)
(-21.1849 0 12.3507)
(-22.3552 0 12.4916)
(-21.9985 -2.22133e-17 14.2774)
(-22.3544 0 15.629)
(-25.8172 -8.2239e-18 12.8582)
(-27.8302 1.74805e-17 14.8668)
(-30.1503 0 25.0445)
(-40.9904 0 32.3797)
(-58.2424 0 41.0154)
(-80.4158 0 53.5038)
(-105.271 4.26756e-17 67.1909)
(-127.438 0 77.7358)
(-138.983 -3.89104e-17 79.8503)
(-130.959 -3.65832e-17 69.132)
(-99.5603 0 43.8799)
(-35.8019 0 3.39947)
(58.2591 0 -57.7422)
(178.144 -3.04406e-17 -135.011)
(322.275 3.00081e-17 -211.348)
(445.111 6.29988e-17 -282.144)
(516.082 0 -304.598)
(477.081 8.32004e-17 -254.935)
(304.583 2.05555e-16 -132.612)
(37.8749 0 42.07)
(-234.843 2.49841e-16 179.556)
(-377.655 0 233.453)
(-383.424 1.00874e-16 216.596)
(-268.057 1.72942e-16 128.818)
(-85.4755 0 17.6467)
(63.8258 1.35852e-16 -58.9941)
(131.036 1.21663e-16 -79.545)
(66.8221 0 -24.3494)
(-113.811 0 98.6194)
(-313.118 0 204.573)
(-386.545 -1.06185e-16 224.035)
(-321.512 -9.31136e-17 172.158)
(-206.786 0 103.388)
(-101.953 1.39157e-16 47.0774)
(-27.8803 1.36552e-16 7.72213)
(23.687 0 -19.3744)
(57.7581 0 -35.7213)
(66.3251 1.28573e-16 -37.8441)
(50.1663 -5.67827e-20 -25.5796)
(18.9041 0 -7.87324)
(-11.326 0 8.35773)
(-26.9608 0 16.6179)
(-27.1413 0 15.2068)
(-17.3884 3.18547e-19 8.81291)
(-4.40198 -1.68445e-16 4.25266)
(2.4212 0 -1.60868)
(3.71382 0 -1.97554)
(-0.788479 0 0.889022)
(-9.03464 -1.92721e-16 5.18909)
(-17.6723 0 11.2063)
(-26.0643 -3.4892e-16 15.8154)
(-32.3784 3.30623e-16 19.2871)
(-36.031 -3.12461e-16 21.0981)
(-37.1205 2.95425e-16 21.5052)
(-35.9422 -5.58167e-16 20.6373)
(-33.325 2.63909e-16 19.0139)
(-29.9812 -2.49719e-16 17.0409)
(-26.6997 0 15.1598)
(-23.8389 0 13.546)
(-21.6406 4.26579e-16 12.3261)
(-19.963 4.05567e-16 11.3991)
(-18.9314 3.8616e-16 10.8456)
(-18.2555 2.90854e-20 10.4858)
(-18.1597 0 10.4595)
(-18.1755 0 10.4834)
(-18.6104 3.16983e-16 10.7458)
(-18.9397 0 10.941)
(-19.5491 5.7449e-16 11.2916)
(-20.0367 0 11.5815)
(-20.6528 -3.59005e-20 11.9245)
(-21.3367 0 12.341)
(-21.8633 4.69668e-16 12.617)
(-22.8872 -4.46584e-16 13.2438)
(-23.1438 -4.23681e-16 13.3474)
(-24.6459 -2.24694e-20 14.2679)
(-24.6828 0 14.205)
(-25.3884 -7.24211e-16 14.7152)
(-27.6186 -6.87637e-16 15.8843)
(-24.1912 -6.51667e-16 13.9768)
(-30.142 0 17.6374)
(-32.4336 -2.70952e-20 18.7109)
(7.38255 0 27.9409)
(4.96208 1.00943e-19 26.3784)
(-1.30375 0 24.4637)
(-10.9334 -1.58188e-18 23.4456)
(-22.2528 -3.33012e-18 24.0804)
(-33.3473 -1.73492e-18 25.8788)
(-42.6971 0 28.0628)
(-49.7265 0 30.0463)
(-54.5746 1.90785e-18 31.5326)
(-57.6421 1.9273e-18 32.4705)
(-59.3433 -1.94278e-18 32.9177)
(-60.0155 -3.9039e-18 32.9583)
(-59.9078 -3.91941e-18 32.6704)
(-59.1952 0 32.1224)
(-58.0054 0 31.3621)
(-56.4426 -7.80294e-18 30.4314)
(-54.5564 -2.07049e-20 29.3736)
(-52.559 0 28.1602)
(-50.0311 3.84406e-18 27.2894)
(-47.816 7.64956e-18 25.4803)
(-44.7447 7.58459e-18 24.7251)
(-42.5068 0 22.3528)
(-40.5921 7.86154e-18 21.4002)
(-38.3029 -7.27607e-18 20.8871)
(-34.8601 -7.15746e-18 18.9716)
(-33.0899 -1.64535e-20 18.0063)
(-31.5292 0 17.0004)
(-29.4818 3.73254e-20 16.5208)
(-28.1897 0 15.7095)
(-26.9416 -1.38441e-17 15.3002)
(-26.2641 0 15.01)
(-25.82 0 15.0478)
(-25.9563 0 15.2597)
(-26.3813 -1.26834e-17 15.7626)
(-27.3561 0 16.271)
(-28.5864 0 16.7798)
(-29.4558 0 17.4292)
(-29.8577 0 18.221)
(-31.4542 2.5358e-17 18.4148)
(-33.5818 -2.60385e-17 19.0293)
(-35.51 0 22.0315)
(-41.2994 -2.77384e-17 30.1513)
(-53.9438 0 41.0773)
(-73.0708 0 53.2304)
(-98.2812 0 68.0252)
(-126.285 1.03553e-19 83.2873)
(-150.618 0 93.6795)
(-161.819 3.66885e-17 92.8855)
(-149.547 0 76.03)
(-108.612 0 40.5541)
(-28.3697 3.30189e-17 -14.0922)
(96.0297 0 -81.5152)
(240.331 0 -185.971)
(409.321 9.04428e-20 -281.819)
(548.864 -5.93359e-17 -354.679)
(615.084 0 -362.639)
(546.915 -6.33088e-19 -280.208)
(327.697 -1.92623e-16 -116.482)
(7.46788 0 87.3772)
(-301.668 -1.17564e-16 243.364)
(-461 0 289.233)
(-458.4 -9.48969e-17 247.478)
(-308.357 -1.62661e-16 134.254)
(-89.1273 0 0.736953)
(77.5047 -1.2839e-16 -78.6793)
(135.08 -6.95516e-20 -81.8304)
(42.6512 0 0.757518)
(-168.302 0 148.579)
(-388.01 0 260.255)
(-464.935 1.99672e-16 268.714)
(-387.311 -3.45676e-19 201.505)
(-250.911 0 118.775)
(-123.616 -1.31024e-16 51.9003)
(-31.4237 -2.56486e-16 4.62508)
(32.3003 0 -27.9062)
(72.6102 0 -45.829)
(80.4362 0 -45.5366)
(58.5136 -5.29335e-20 -28.5693)
(19.7957 0 -6.06844)
(-16.2451 0 12.6791)
(-33.9842 0 21.043)
(-33.3918 0 18.4843)
(-21.5596 -2.09361e-16 10.5049)
(-7.57367 -2.09721e-16 3.8831)
(0.36483 0 -0.789102)
(0.957205 0 -0.198213)
(-5.26395 0 3.98937)
(-15.2701 1.0241e-18 10.1809)
(-26.2836 0 16.6325)
(-36.1867 3.26639e-16 22.0697)
(-43.4092 0 25.9297)
(-47.3319 2.92424e-16 27.7211)
(-48.1583 0 27.8237)
(-46.3213 2.61108e-16 26.4691)
(-42.8579 0 24.3006)
(-38.6459 0 21.815)
(-34.6199 0 19.5266)
(-31.174 0 17.6107)
(-28.5771 -3.9887e-16 16.1999)
(-26.6208 0 15.1456)
(-25.4738 -3.60999e-16 14.5565)
(-24.7413 -3.43319e-16 14.1879)
(-24.744 0 14.2383)
(-24.8362 0 14.3179)
(-25.4944 0 14.717)
(-25.9422 0 14.9843)
(-26.8367 2.38385e-20 15.4998)
(-27.4459 0 15.8632)
(-28.3796 9.71409e-16 16.3847)
(-29.1947 0 16.8837)
(-30.0319 -8.77392e-16 17.3304)
(-31.2576 4.17098e-16 18.0837)
(-31.7176 3.95682e-16 18.2923)
(-33.6133 3.75734e-16 19.4563)
(-33.671 0 19.3656)
(-34.7687 0 20.1684)
(-37.4099 1.28412e-15 21.4818)
(-33.3152 -6.08477e-16 19.251)
(-40.4895 -5.77332e-16 23.7399)
(-42.4881 5.45903e-16 24.4782)
(6.66524 0 28.7007)
(5.75033 -1.58917e-18 28.3291)
(3.07299 0 27.5518)
(-2.66711 0 26.7734)
(-11.4527 0 26.7871)
(-22.2835 0 27.8939)
(-33.6797 0 29.88)
(-44.3894 -1.82529e-18 32.2838)
(-53.5698 -1.79999e-18 34.6525)
(-60.8265 -3.66771e-18 36.6767)
(-66.1553 3.69159e-18 38.2012)
(-69.7703 3.68415e-18 39.1874)
(-71.9471 3.69901e-18 39.6683)
(-72.9457 0 39.7078)
(-72.9867 0 39.3682)
(-72.2552 7.40905e-18 38.7028)
(-70.8728 7.36849e-18 37.7968)
(-69.0588 0 36.5929)
(-66.6281 -3.62826e-18 35.6051)
(-64.0768 -7.22002e-18 33.7955)
(-60.8388 0 32.6562)
(-58.0212 -7.35007e-18 30.4132)
(-55.3863 0 28.8139)
(-52.5289 -8.3301e-20 28.0061)
(-48.2743 6.85429e-18 26.6638)
(-46.4859 1.71209e-20 23.9852)
(-43.363 0 23.4149)
(-40.9204 -6.78725e-18 22.2456)
(-38.9897 1.33359e-17 21.283)
(-36.9868 2.61375e-17 20.7725)
(-35.7578 1.28701e-17 20.233)
(-34.799 0 20.1201)
(-34.5232 1.23143e-17 20.194)
(-34.619 0 20.6184)
(-35.3618 0 21.043)
(-36.321 0 21.6619)
(-37.1399 0 22.3114)
(-37.9786 0 22.6422)
(-39.818 -9.95605e-19 22.7699)
(-41.4944 1.21762e-17 24.9902)
(-44.1965 0 28.7765)
(-52.4902 5.08402e-17 34.7941)
(-65.2355 0 48.9917)
(-85.2151 0 64.8495)
(-112.236 0 81.0382)
(-141.641 -3.8011e-17 96.8152)
(-166.593 0 105.829)
(-176.562 0 100.952)
(-160.092 0 77.0606)
(-110.764 0 30.4368)
(-13.1074 -6.21165e-17 -37.9159)
(127.884 0 -125.212)
(297.585 0 -237.727)
(484.456 -2.66809e-17 -351.52)
(633.172 0 -417.155)
(686.136 0 -402.473)
(587.856 -1.45466e-16 -283.491)
(332.199 9.03418e-17 -81.7586)
(-21.9744 0 145.651)
(-356.934 0 304.869)
(-528.318 0 336.32)
(-511.258 8.90763e-17 275.715)
(-336.418 0 128.926)
(-92.23 0 -20.1466)
(79.3575 2.41536e-16 -92.6464)
(119.895 -2.14634e-16 -71.3017)
(3.61456 0 36.2029)
(-221.681 0 200.288)
(-447.746 0 308.929)
(-525.892 -9.37868e-17 303.31)
(-441.448 8.23912e-17 222.559)
(-289.111 1.26275e-16 128.497)
(-142.602 1.22913e-16 53.1468)
(-33.909 1.20348e-16 -0.620446)
(40.8065 -1.20055e-16 -37.082)
(85.7823 0 -55.2636)
(91.9201 0 -51.4847)
(64.3578 -1.12053e-16 -29.4719)
(19.0915 0 -2.87935)
(-21.5758 0 17.2764)
(-40.5567 0 25.4539)
(-39.3921 0 21.4658)
(-26.1457 0 12.2384)
(-11.7872 4.01532e-16 4.06314)
(-3.17641 0 1.09176)
(-3.80913 1.80176e-16 2.58145)
(-11.8338 0 7.93173)
(-23.4212 3.30219e-19 15.902)
(-36.1932 -3.21925e-16 23.0868)
(-47.2684 0 28.9671)
(-55.0757 0 32.9453)
(-59.0164 0 34.5561)
(-59.4319 0 34.255)
(-56.893 -2.44184e-16 32.3783)
(-52.6172 0 29.6825)
(-47.6213 0 26.7361)
(-42.9556 0 24.1075)
(-39.0238 0 21.9524)
(-36.1172 0 20.4072)
(-33.9512 0 19.2685)
(-32.7501 0 18.6823)
(-31.9993 0 18.329)
(-32.1391 3.05562e-16 18.4804)
(-32.3178 0 18.623)
(-33.2294 0 19.1758)
(-33.7845 0 19.5105)
(-35.0011 -5.01429e-16 20.2095)
(-35.697 0 20.6311)
(-37 -4.53664e-16 21.3552)
(-37.8812 0 21.9084)
(-39.092 -1.32712e-20 22.5523)
(-40.4254 0 23.3895)
(-41.1426 -3.69508e-16 23.7227)
(-43.3266 0 25.0816)
(-43.4116 0 24.9557)
(-44.8574 0 26.0315)
(-47.7683 -5.99438e-16 27.3921)
(-43.1663 1.13612e-15 24.9375)
(-51.1774 1.07793e-15 30.0573)
(-52.3977 5.09636e-16 30.1441)
(6.26522 0 29.3533)
(5.68637 1.64729e-18 29.4863)
(4.74858 0 29.4783)
(2.14593 0 29.2627)
(-3.00041 1.74189e-18 29.2113)
(-10.7917 1.75527e-18 29.8085)
(-20.7079 -1.76586e-18 31.2149)
(-31.9261 5.26591e-18 33.316)
(-43.4622 0 35.8575)
(-54.3764 -3.49396e-20 38.5314)
(-63.9653 -1.75095e-18 41.0436)
(-71.8333 0 43.172)
(-77.8642 0 44.7922)
(-82.1407 0 45.862)
(-84.8469 0 46.3936)
(-86.1935 2.31353e-20 46.4124)
(-86.3741 2.11489e-20 46.0269)
(-85.6195 -3.47748e-18 45.1593)
(-83.968 -3.45383e-18 44.3023)
(-81.6931 0 42.7103)
(-78.6557 6.87017e-18 41.3266)
(-75.6126 6.92694e-18 39.2741)
(-72.4751 0 37.2347)
(-69.15 -5.61501e-20 36.1347)
(-64.5912 4.85524e-20 34.31)
(-61.5319 6.50441e-18 31.9647)
(-57.6677 0 31.002)
(-54.7921 0 28.8589)
(-51.6235 -1.25646e-17 27.9758)
(-48.9572 1.35216e-20 26.8904)
(-46.9818 -2.42566e-17 26.1268)
(-45.2029 0 25.8705)
(-44.2761 -2.32119e-17 25.7058)
(-43.7883 0 25.9598)
(-44.0559 0 26.2256)
(-44.634 1.0655e-17 26.7064)
(-45.3227 0 27.1427)
(-46.2022 2.30735e-17 27.3822)
(-47.9093 -5.53777e-19 27.7797)
(-49.6559 -1.55391e-17 30.4184)
(-52.7893 0 34.794)
(-61.2279 -1.13769e-18 41.8442)
(-73.1082 0 58.9812)
(-94.0466 0 75.4427)
(-121.704 0 91.9501)
(-150.962 0 107.266)
(-175.331 0 113.972)
(-183.656 -3.2914e-17 104.238)
(-163.609 0 72.8883)
(-107.931 0 14.1859)
(0.940267 2.91819e-17 -66.1972)
(151.895 0 -183.056)
(347.542 2.51475e-17 -296.951)
(546.645 2.50098e-17 -412.486)
(694.47 -5.16517e-17 -466.636)
(729.24 0 -423.408)
(604.575 6.80072e-17 -267.793)
(326.81 8.37376e-17 -33.3978)
(-46.1344 0 204.787)
(-396.399 0 361.265)
(-576.746 0 373.735)
(-548.446 -8.36363e-17 295.251)
(-359.069 0 115.7)
(-99.6402 0 -41.8578)
(66.3344 -1.13502e-16 -98.4588)
(87.3937 2.0129e-16 -48.8885)
(-42.0054 0 80.3509)
(-267.437 0 249.179)
(-490.379 0 348.794)
(-570.697 0 328.443)
(-485.684 7.81432e-17 236.388)
(-322.692 -1.18393e-16 133.363)
(-159.749 0 51.228)
(-35.9453 0 -7.67701)
(48.593 1.12515e-16 -46.7462)
(96.9817 0 -63.7547)
(100.793 1.05758e-16 -55.6087)
(67.928 -1.04881e-16 -28.4743)
(17.2118 0 1.5855)
(-26.6926 0 22.8739)
(-46.9444 0 29.7227)
(-45.4252 0 24.3743)
(-31.3741 0 14.2328)
(-16.6071 -1.92011e-16 6.1747)
(-8.67506 0 3.76626)
(-10.4053 -3.37249e-16 6.84683)
(-20.1149 0 13.299)
(-33.395 3.53389e-20 22.1014)
(-47.3806 1.25524e-19 30.1859)
(-59.2659 0 36.4154)
(-67.3948 -2.70524e-16 40.3458)
(-71.1973 0 41.6398)
(-71.1316 0 40.8609)
(-67.8965 4.56605e-16 38.448)
(-62.8657 0 35.254)
(-57.1671 0 31.9004)
(-51.9466 0 28.9935)
(-47.5959 0 26.6521)
(-44.4357 0 25.018)
(-42.0935 0 23.8257)
(-40.8692 0 23.2696)
(-40.1051 0 22.9425)
(-40.3948 -2.8547e-16 23.2072)
(-40.6386 0 23.4047)
(-41.81 0 24.1162)
(-42.428 0 24.495)
(-43.9787 4.68356e-16 25.3841)
(-44.6903 4.45636e-16 25.8233)
(-46.3854 4.23692e-16 26.7626)
(-47.2273 -4.03115e-16 27.3079)
(-48.842 -1.00833e-20 28.1681)
(-50.1419 3.63725e-16 29.0029)
(-51.1381 6.90015e-16 29.4789)
(-53.44 0 30.927)
(-53.54 -6.21637e-16 30.7576)
(-55.1913 -5.89486e-16 32.0412)
(-58.1791 0 33.3119)
(-53.2295 -5.30285e-16 30.7385)
(-61.5742 -5.03103e-16 36.1955)
(-61.6674 -4.75682e-16 35.3957)
(6.16061 0 30.1027)
(5.59971 -8.09094e-19 30.3658)
(5.07954 0 30.6542)
(4.02763 0 30.8641)
(1.66502 -1.64038e-18 31.0683)
(-2.64957 -1.65268e-18 31.5518)
(-9.22705 1.66236e-18 32.5251)
(-18.0047 -5.06082e-18 34.0879)
(-28.5688 0 36.232)
(-40.2537 -1.74998e-18 38.84)
(-52.2593 3.41294e-18 41.7097)
(-63.7755 0 44.6002)
(-74.1206 -3.38549e-18 47.2796)
(-82.8426 0 49.5568)
(-89.7332 -3.36079e-18 51.3138)
(-94.7638 -3.31775e-18 52.4633)
(-98.0461 -3.29728e-18 53.066)
(-99.7473 3.27302e-18 53.0002)
(-100.047 6.51872e-18 52.6769)
(-99.1234 0 51.6323)
(-97.0484 -6.46631e-18 50.3469)
(-94.4423 0 48.6355)
(-91.3211 0 46.4846)
(-87.8484 6.21698e-18 45.1366)
(-83.0758 -1.22876e-17 43.1242)
(-79.2524 0 40.6518)
(-74.7342 0 39.0856)
(-70.7539 0 36.8582)
(-66.6335 1.1847e-17 35.6975)
(-63.2267 -1.16055e-17 33.832)
(-59.9966 -6.81963e-21 32.9852)
(-57.3315 -1.11551e-17 32.1881)
(-55.5121 2.18578e-17 31.7225)
(-54.0986 -1.07005e-17 31.763)
(-53.6092 1.04819e-17 31.7503)
(-53.5411 9.74182e-20 32.0039)
(-53.8621 0 32.1618)
(-54.5044 -2.17005e-17 32.333)
(-55.9144 -1.9762e-17 32.8969)
(-57.6125 1.46122e-17 35.6843)
(-60.9223 0 40.4892)
(-68.4189 -2.07885e-17 47.8405)
(-79.8664 -1.89625e-17 65.1772)
(-99.7659 -1.90835e-17 84.2787)
(-126.43 -1.79907e-17 100.348)
(-154.209 0 114.453)
(-177.208 0 118.24)
(-183.983 -1.35785e-19 103.263)
(-161.637 0 64.4426)
(-101.763 0 -6.25571)
(17.4382 2.71891e-17 -97.6477)
(183.303 -2.32874e-17 -220.06)
(383.753 -2.36161e-17 -354.138)
(590.65 -4.98396e-20 -465.497)
(731.012 4.07145e-19 -501.361)
(746.534 0 -426.535)
(603.908 0 -237.724)
(320.771 -1.56586e-16 23.3149)
(-57.8785 0 262)
(-417.911 0 411.537)
(-609.865 8.957e-17 402.42)
(-581.932 0 292.504)
(-377.675 0 97.5326)
(-115.144 -1.20775e-16 -61.5627)
(37.4527 1.07124e-16 -95.7332)
(42.3111 -1.88647e-16 -17.6949)
(-91.5994 0 118.645)
(-300.475 8.89615e-17 291.734)
(-515.637 0 379.831)
(-601.335 0 345.807)
(-521.994 -1.46986e-16 244.529)
(-353.272 0 134.392)
(-176.165 0 46.68)
(-38.2904 0 -16.2017)
(55.1441 0 -56.6123)
(105.993 0 -71.1539)
(107.166 -9.9035e-17 -57.9407)
(69.5603 4.24444e-20 -25.7618)
(14.4767 9.70144e-17 7.08808)
(-32.7633 -9.06686e-17 27.2017)
(-53.2753 0 34.0426)
(-51.7943 0 27.408)
(-37.587 0 16.6538)
(-23.1268 0 8.75212)
(-15.6327 0 7.97689)
(-19.0474 -3.43585e-20 11.6693)
(-29.6698 0 20.3683)
(-44.5235 1.46645e-16 29.7257)
(-59.6284 1.02046e-19 38.1115)
(-72.1123 0 44.4251)
(-80.4094 2.52935e-16 48.1575)
(-83.9994 0 49.0574)
(-83.4463 -2.25914e-16 47.7725)
(-79.5578 -8.41273e-21 44.8336)
(-73.8386 0 41.1769)
(-67.502 0 37.4587)
(-61.7796 0 34.3145)
(-57.0352 0 31.8117)
(-53.6356 -3.25627e-16 30.1066)
(-51.1066 0 28.8621)
(-49.8514 0 28.3384)
(-49.0369 -2.80056e-16 28.0214)
(-49.4542 0 28.3902)
(-49.6992 2.53673e-16 28.609)
(-51.1041 -2.41488e-16 29.4642)
(-51.6948 0 29.838)
(-53.5597 -8.74763e-16 30.9024)
(-54.1627 1.02195e-20 31.2935)
(-56.2419 -7.9126e-16 32.4362)
(-56.8776 3.76394e-16 32.8869)
(-58.899 3.57218e-16 33.954)
(-59.9537 -3.39584e-16 34.6757)
(-61.2336 -3.22099e-16 35.2853)
(-63.3972 -3.05821e-16 36.6865)
(-63.4945 5.80309e-16 36.4512)
(-65.1362 5.50275e-16 37.8264)
(-67.9403 5.22372e-16 38.8426)
(-62.8282 4.94995e-16 36.2585)
(-70.873 0 41.6909)
(-69.6936 0 39.892)
(6.1112 0 30.8093)
(5.59532 -8.73988e-19 31.1083)
(5.09716 0 31.4762)
(4.52961 0 31.8951)
(3.54913 0 32.3444)
(1.61068 0 32.9174)
(-1.84139 -1.68165e-18 33.7338)
(-7.20182 1.62039e-18 34.9191)
(-14.6484 -1.66178e-18 36.5648)
(-24.1206 3.21797e-18 38.7026)
(-35.2998 -3.20871e-18 41.2963)
(-47.623 0 44.2399)
(-60.3627 3.18265e-18 47.3683)
(-72.7481 0 50.4691)
(-84.0903 3.15939e-18 53.3466)
(-93.8456 3.16658e-18 55.7805)
(-101.721 0 57.7079)
(-107.569 0 58.9097)
(-111.461 -3.07221e-18 59.62)
(-113.478 0 59.5839)
(-113.71 0 58.9198)
(-112.728 6.09133e-18 57.8315)
(-110.615 0 55.992)
(-107.718 0 54.6374)
(-103.283 5.7937e-18 52.62)
(-99.1256 0 50.1511)
(-94.1252 0 48.211)
(-89.3248 0 45.7215)
(-84.3446 -2.22781e-17 44.029)
(-79.7123 0 41.8951)
(-75.2898 -7.34278e-21 40.7329)
(-71.6023 -9.70651e-21 39.1903)
(-68.3714 -1.02745e-17 38.5275)
(-65.8477 1.00561e-17 37.991)
(-64.3151 -1.97029e-17 37.5929)
(-63.2461 -9.50932e-18 37.5555)
(-62.8902 0 37.3454)
(-63.0023 0 37.3455)
(-63.9048 -1.8211e-17 37.8909)
(-65.2392 1.59987e-17 40.6642)
(-68.1019 0 45.7034)
(-74.3088 0 53.585)
(-86.2428 -2.48061e-19 66.1989)
(-101.006 1.79225e-17 91.3992)
(-126.346 1.68948e-17 106.215)
(-151.767 3.17821e-17 118.424)
(-173.006 0 119.082)
(-178.77 -1.3286e-19 98.88)
(-155.848 0 52.9487)
(-93.9536 0 -28.1188)
(29.0259 -2.55179e-17 -130.953)
(197.793 2.18535e-17 -271.22)
(408.623 0 -403.659)
(613.646 -2.19876e-17 -508.181)
(742.822 4.70394e-19 -520.936)
(742.076 0 -414.792)
(593.603 0 -199.041)
(318.326 1.45555e-16 77.4413)
(-54.0433 0 314.504)
(-421.343 0 456.055)
(-627.516 -1.68186e-16 424.643)
(-601.419 0 293.426)
(-397.437 0 77.1288)
(-140.924 2.26783e-16 -77.128)
(-5.9134 -1.00397e-16 -86.162)
(-9.28841 8.8369e-17 18.2023)
(-125.052 0 168.76)
(-317.526 -8.33528e-17 325.536)
(-524.908 0 402.938)
(-620.031 7.81086e-17 357.261)
(-551.705 6.90796e-17 249.198)
(-382.935 0 132.078)
(-193.231 0 40.149)
(-41.8513 -9.93589e-17 -25.8078)
(59.9667 -9.92289e-17 -66.4148)
(112.716 0 -77.3782)
(111.259 0 -58.5912)
(69.6565 1.83695e-16 -21.5562)
(11.0668 -9.07857e-17 13.447)
(-37.324 1.69645e-16 34.5085)
(-59.5732 0 38.5582)
(-58.7229 0 30.7324)
(-44.8891 0 19.6505)
(-30.868 0 12.5322)
(-24.6589 0 12.5266)
(-28.9714 -3.33769e-20 18.1783)
(-40.9521 0 27.6152)
(-56.9509 0 37.6795)
(-72.8083 8.39052e-20 46.5683)
(-85.7493 0 52.9073)
(-94.1628 2.36331e-16 56.3826)
(-97.563 0 56.8651)
(-96.5843 2.11132e-16 55.082)
(-92.1172 -7.18247e-21 51.6455)
(-85.7754 0 47.5614)
(-78.8351 0 43.5053)
(-72.6163 0 40.139)
(-67.4446 0 37.469)
(-63.7623 -1.31437e-20 35.6803)
(-60.9763 -2.89105e-16 34.3542)
(-59.6311 2.75136e-16 33.8375)
(-58.6737 2.61568e-16 33.4853)
(-59.1521 0 33.9243)
(-59.282 -2.36901e-16 34.1024)
(-60.8552 2.2551e-16 35.0641)
(-61.2752 0 35.3541)
(-63.3991 4.08404e-16 36.5594)
(-63.714 -7.77119e-16 36.8028)
(-66.136 3.69386e-16 38.1208)
(-66.3421 0 38.352)
(-68.7432 -3.33505e-16 39.6067)
(-69.2844 0 40.0615)
(-70.8335 0 40.7959)
(-72.5461 2.85476e-16 41.9672)
(-72.6142 0 41.6482)
(-73.997 0 42.979)
(-76.3014 -4.87575e-16 43.5523)
(-71.2568 -4.62009e-16 41.0831)
(-78.298 -4.38308e-16 46.0746)
(-75.9036 4.14454e-16 43.299)
(6.02824 0 31.4269)
(5.60361 8.21431e-19 31.7683)
(5.15137 1.7061e-18 32.1778)
(4.69569 0 32.6733)
(4.16707 0 33.239)
(3.327 0 33.8968)
(1.79521 1.58032e-18 34.6992)
(-0.848112 0 35.72)
(-5.01686 1.56135e-18 37.0343)
(-11.0509 0 38.7076)
(-19.1364 0 40.7908)
(-29.2429 -3.11928e-18 43.301)
(-41.0985 0 46.2078)
(-54.1988 -3.062e-18 49.4068)
(-67.8684 3.03331e-18 52.7704)
(-81.316 -2.97397e-18 56.0706)
(-93.8259 0 59.1673)
(-104.749 2.9466e-18 61.7605)
(-113.697 0 63.8445)
(-120.436 5.80281e-18 65.2451)
(-124.807 0 65.7887)
(-127.209 -5.72071e-18 65.7846)
(-127.7 5.66189e-18 64.8054)
(-126.709 0 63.8984)
(-123.692 0 62.2276)
(-120.094 -5.43698e-18 60.0385)
(-115.272 0 57.9677)
(-110.109 0 55.3545)
(-104.466 -5.32132e-21 53.2854)
(-98.8109 0 50.7996)
(-93.2542 2.01823e-17 49.0653)
(-88.0976 9.85379e-18 47.1046)
(-83.3745 -9.66226e-18 46.0548)