/*--------------------------------*- C++ -*----------------------------------*\
| =========                 |                                                 |
| \\      /  F ield         | OpenFOAM: The Open Source CFD Toolbox           |
|  \\    /   O peration     | Version:  2412                                  |
|   \\  /    A nd           | Website:  www.openfoam.com                      |
|    \\/     M anipulation  |                                                 |
\*---------------------------------------------------------------------------*/
FoamFile
{
    version     2.0;
    format      ascii;
    arch        "LSB;label=32;scalar=64";
    class       volVectorField;
    location    "0.165";
    object      U_0;
}
// * * * * * * * * * * * * * * * * * * * * * * * * * * * * * * * * * * * * * //

dimensions      [0 1 -1 0 0 0 0];

internalField   nonuniform List<vector> 
12600
(
(16.036 1.22443e-21 1.77502)
(10.1202 1.48694e-20 0.329121)
(6.49014 1.74596e-20 -0.462518)
(4.58462 0 -0.647271)
(3.65036 1.63623e-20 -0.620386)
(3.10257 1.55721e-20 -0.55601)
(2.71989 0 -0.49761)
(2.4303 0 -0.450177)
(2.2015 -5.02271e-20 -0.411554)
(2.01491 0 -0.37937)
(1.85905 2.20643e-20 -0.351901)
(1.72639 2.0687e-20 -0.328102)
(1.61168 -1.94139e-20 -0.307243)
(1.51122 0 -0.288778)
(1.42226 -1.71054e-20 -0.272289)
(1.34277 0 -0.257455)
(1.27117 6.06176e-20 -0.244021)
(1.20624 0 -0.231782)
(1.14701 -2.68626e-20 -0.220576)
(1.09268 -2.53355e-20 -0.210266)
(1.04264 2.38787e-20 -0.200743)
(0.996351 1.59182e-23 -0.191915)
(0.953381 0 -0.183706)
(0.913369 -4.00459e-20 -0.17605)
(0.876011 0 -0.168893)
(0.841049 0 -0.162188)
(0.808263 -3.36702e-20 -0.155896)
(0.777465 0 -0.149982)
(0.748493 -8.92358e-24 -0.144417)
(0.721208 2.83313e-20 -0.139175)
(0.69549 2.67528e-20 -0.134233)
(0.671237 2.52613e-20 -0.129574)
(0.648359 -2.38504e-20 -0.12518)
(0.626782 -4.50287e-20 -0.121037)
(0.606444 -4.24955e-20 -0.117133)
(0.587292 4.0094e-20 -0.113458)
(0.569283 0 -0.110004)
(0.552379 -3.56335e-20 -0.106762)
(0.536546 0 -0.103725)
(0.521748 3.15948e-20 -0.100886)
(0.507952 0 -0.0982372)
(0.495107 4.7498e-24 -0.095768)
(0.483161 0 -0.0934679)
(0.472033 6.03313e-24 -0.0913206)
(0.461639 4.61397e-20 -0.0893101)
(0.451855 -4.3237e-20 -0.0874124)
(0.442571 4.04838e-20 -0.085607)
(0.433636 0 -0.0838654)
(0.424945 0 -0.0821683)
(0.416357 3.32e-20 -0.0804889)
(0.407821 6.21615e-20 -0.078818)
(0.399229 5.8217e-20 -0.0771349)
(0.390597 4.43037e-24 -0.0754435)
(0.381819 5.11617e-20 -0.0737236)
(0.372938 0 -0.0719853)
(0.363813 -4.50903e-20 -0.0702043)
(0.354607 -4.23576e-20 -0.0684171)
(0.345371 -3.97687e-20 -0.0666393)
(0.33672 0 -0.0649901)
(0.329119 0 -0.063551)
(0.323493 0 -0.0624991)
(0.320259 5.97833e-20 -0.0619794)
(0.319992 0 -0.0619436)
(0.322094 0 -0.0623956)
(0.326574 -9.13357e-20 -0.0633003)
(0.332331 0 -0.0644204)
(0.339069 0 -0.0656897)
(0.345337 0 -0.0668536)
(0.35119 6.22182e-20 -0.0679219)
(0.355393 -5.66813e-20 -0.0686905)
(0.359105 -5.15864e-20 -0.0693746)
(0.361346 1.8155e-23 -0.069812)
(0.364385 4.16554e-20 -0.0704167)
(0.366742 0 -0.0709248)
(0.371546 -3.11192e-20 -0.0719081)
(0.376256 0 -0.072897)
(0.384858 0 -0.0746265)
(0.393489 0 -0.0763736)
(0.407059 6.84218e-23 -0.0790505)
(0.4203 -2.46595e-21 -0.0816698)
(0.438985 9.22137e-21 -0.0853022)
(0.456523 -2.05526e-20 -0.0887233)
(0.479603 -3.07671e-20 -0.0931611)
(0.500139 0 -0.0971312)
(0.526187 0 -0.102102)
(0.54801 1.12024e-19 -0.1063)
(0.575583 -2.46324e-19 -0.111536)
(0.596888 2.67019e-19 -0.115625)
(0.624951 1.40266e-19 -0.120946)
(0.644761 0 -0.124748)
(0.672851 -2.99241e-19 -0.130074)
(0.690463 1.52749e-19 -0.13346)
(0.718688 -1.53199e-19 -0.138825)
(0.734283 3.08193e-19 -0.141829)
(0.762923 0 -0.147283)
(0.776457 0 -0.1499)
(0.805923 0 -0.155525)
(0.817957 0 -0.157861)
(0.84866 0 -0.163731)
(0.85915 0 -0.165775)
(0.891205 -2.79959e-19 -0.171921)
(0.900861 -5.50702e-19 -0.173812)
(0.935138 -5.38522e-19 -0.180394)
(0.944532 0 -0.18223)
(0.980775 0 -0.189193)
(0.98944 0 -0.19089)
(1.02751 -4.95741e-19 -0.198214)
(1.0356 -9.73865e-19 -0.199814)
(1.07664 4.76287e-19 -0.207716)
(1.0843 0 -0.209244)
(1.12971 -9.18321e-19 -0.217981)
(1.1361 0 -0.219274)
(1.18734 -8.87419e-19 -0.229125)
(1.19082 8.7481e-19 -0.229863)
(1.2496 -8.58682e-19 -0.241165)
(1.24829 -8.4455e-19 -0.240969)
(1.31478 8.30333e-19 -0.253781)
(1.31305 -8.66318e-23 -0.25343)
(1.37209 7.97737e-19 -0.264936)
(1.43265 0 -0.276274)
(25.5585 -1.23645e-21 3.53433)
(22.0579 0 1.49358)
(17.8232 -1.76754e-20 -0.333469)
(14.2722 0 -1.16417)
(11.7877 -1.65819e-20 -1.39963)
(10.0699 -2.99505e-20 -1.40331)
(8.82143 -1.41654e-20 -1.33508)
(7.87066 0 -1.25152)
(7.11894 3.34643e-22 -1.1703)
(6.50631 -2.35454e-20 -1.09579)
(5.99496 2.21192e-20 -1.02837)
(5.55994 2.07856e-20 -0.967554)
(5.18411 -1.954e-20 -0.912629)
(4.85522 1.83766e-20 -0.862862)
(4.5643 3.46474e-20 -0.817589)
(4.3046 0 -0.776235)
(4.07093 -8.86187e-23 -0.738306)
(3.85925 2.88633e-20 -0.703383)
(3.66633 2.72535e-20 -0.671111)
(3.4896 0 -0.641189)
(3.32695 0 -0.613364)
(3.17665 2.28171e-20 -0.587417)
(3.03728 0 -0.563164)
(2.90765 2.02962e-20 -0.540446)
(2.78675 -3.82589e-20 -0.519128)
(2.67374 0 -0.49909)
(2.56789 3.40808e-20 -0.480231)
(2.46858 0 -0.462462)
(2.3753 -3.03917e-20 -0.445707)
(2.28758 -5.73672e-20 -0.429897)
(2.20504 -5.41594e-20 -0.414976)
(2.12733 -2.5569e-20 -0.400892)
(2.05417 2.41342e-20 -0.387601)
(1.9853 9.10906e-20 -0.375067)
(1.92052 8.59423e-20 -0.363257)
(1.85964 0 -0.352141)
(1.80249 0 -0.341696)
(1.74894 1.48993e-24 -0.331896)
(1.69885 0 -0.322721)
(1.65208 -3.18962e-20 -0.314141)
(1.60847 0 -0.306132)
(1.56784 -5.63472e-20 -0.298655)
(1.52999 0 -0.291674)
(1.49463 -4.96054e-20 -0.28513)
(1.46147 0 -0.27897)
(1.43012 4.35368e-20 -0.273116)
(1.40021 0 -0.267504)
(1.37128 0 -0.262047)
(1.34302 -3.56764e-20 -0.256693)
(1.31501 0 -0.251364)
(1.2871 0 -0.24604)
(1.25898 0 -0.240665)
(1.23074 -5.47308e-20 -0.23526)
(1.20209 -1.0259e-19 -0.229769)
(1.17324 0 -0.224236)
(1.1439 0 -0.21861)
(1.11473 4.23879e-20 -0.213038)
(1.08604 3.97667e-20 -0.207607)
(1.05981 0 -0.202711)
(1.03733 0 -0.198608)
(1.02129 0 -0.195778)
(1.01258 0 -0.194434)
(1.01258 5.47701e-20 -0.194856)
(1.01935 -5.00059e-20 -0.196508)
(1.03286 9.09062e-20 -0.199346)
(1.04967 0 -0.202714)
(1.0691 0 -0.206435)
(1.08694 0 -0.209782)
(1.10384 3.74524e-23 -0.212857)
(1.11625 5.61391e-20 -0.215104)
(1.12802 5.10464e-20 -0.217225)
(1.13609 -9.21937e-20 -0.218743)
(1.14743 3.3808e-23 -0.22091)
(1.15721 3.60414e-20 -0.222894)
(1.175 3.06764e-20 -0.226416)
(1.1926 0 -0.229994)
(1.22232 0 -0.235867)
(1.25179 0 -0.241762)
(1.29635 -1.45217e-20 -0.250486)
(1.33918 0 -0.258936)
(1.39854 0 -0.270452)
(1.4534 2.01151e-20 -0.281177)
(1.52515 3.008e-20 -0.294974)
(1.58805 0 -0.307195)
(1.66797 0 -0.32246)
(1.73399 0 -0.335242)
(1.81798 2.39563e-19 -0.351204)
(1.88213 -1.20766e-22 -0.363603)
(1.96753 1.36075e-19 -0.379799)
(2.02712 -1.42065e-19 -0.391314)
(2.11279 2.89894e-19 -0.40755)
(2.166 1.4777e-19 -0.417844)
(2.25254 2.96247e-19 -0.434267)
(2.29984 0 -0.443435)
(2.38808 0 -0.460196)
(2.42948 0 -0.468241)
(2.52075 0 -0.485612)
(2.55783 2.85048e-19 -0.492835)
(2.65317 0 -0.511)
(2.68598 0 -0.517395)
(2.78605 -2.68372e-19 -0.536502)
(2.81673 2.63759e-19 -0.542498)
(2.92382 1.03064e-18 -0.562985)
(2.95364 -5.05674e-19 -0.568792)
(3.06698 0 -0.590478)
(3.09483 0 -0.5959)
(3.21456 0 -0.618814)
(3.24119 4.63795e-19 -0.624032)
(3.37073 -4.53282e-19 -0.648819)
(3.39632 0 -0.653878)
(3.53956 1.74481e-18 -0.681264)
(3.56151 8.59266e-19 -0.685658)
(3.72257 1.68339e-18 -0.716437)
(3.73616 0 -0.71923)
(3.91994 0 -0.754386)
(3.91957 -7.99081e-19 -0.754418)
(4.12651 0 -0.794187)
(4.12361 -7.69455e-19 -0.793414)
(4.30662 -7.53278e-19 -0.829536)
(4.47309 0 -0.860984)
(28.2937 0 3.35515)
(27.59 0 2.32651)
(25.3177 -1.24565e-20 0.703894)
(22.3841 0 -0.5164)
(19.5958 0 -1.22953)
(17.2468 1.47871e-20 -1.58147)
(15.3389 1.34162e-20 -1.71782)
(13.7941 0 -1.74096)
(12.5297 3.79857e-22 -1.71019)
(11.4784 2.23072e-20 -1.65542)
(10.5901 -4.17135e-20 -1.59102)
(9.82836 -1.9695e-20 -1.52392)
(9.16665 1.16783e-22 -1.45746)
(8.5854 -1.74137e-20 -1.39325)
(8.06988 -1.6384e-20 -1.33202)
(7.6088 1.53637e-20 -1.27402)
(7.19338 -2.904e-20 -1.21928)
(6.81669 -2.73523e-20 -1.16769)
(6.47319 0 -1.1191)
(6.15838 0 -1.07333)
(5.86859 2.28554e-20 -1.03019)
(5.6008 2.15564e-20 -0.989501)
(5.3525 0 -0.951098)
(5.12159 0 -0.914826)
(4.9063 3.62527e-20 -0.880544)
(4.70512 0 -0.848122)
(4.51679 -6.45565e-20 -0.817447)
(4.34021 3.04599e-20 -0.788414)
(4.17446 0 -0.760934)
(4.01871 2.71675e-20 -0.734923)
(3.87229 2.56481e-20 -0.710311)
(3.73458 0 -0.687034)
(3.60508 -2.2846e-20 -0.665035)
(3.48334 -4.31351e-20 -0.644266)
(3.36896 -9.05725e-24 -0.624684)
(3.2616 0 -0.606248)
(3.16096 0 -0.588922)
(3.06675 3.40897e-20 -0.572663)
(2.97871 0 -0.557434)
(2.89653 0 -0.543182)
(2.81993 0 -0.529858)
(2.74852 0 -0.517386)
(2.68191 0 -0.505693)
(2.61958 0 -0.494671)
(2.561 0 -0.484222)
(2.50544 -4.12201e-20 -0.474207)
(2.45229 3.85789e-20 -0.464518)
(2.40073 0 -0.455013)
(2.35024 3.37532e-20 -0.44561)
(2.30008 0 -0.436192)
(2.25005 0 -0.426742)
(2.19961 -5.52883e-20 -0.417181)
(2.14896 0 -0.407554)
(2.09765 4.85054e-20 -0.397789)
(2.04618 -4.54887e-20 -0.387989)
(1.99418 0 -0.378118)
(1.94305 -4.00658e-20 -0.368498)
(1.89344 0 -0.359354)
(1.8488 0 -0.351401)
(1.81117 0 -0.345058)
(1.78493 -6.10468e-20 -0.341022)
(1.77104 -5.63722e-20 -0.339457)
(1.77153 2.82075e-23 -0.340932)
(1.78297 9.4468e-20 -0.344184)
(1.80527 2.78149e-23 -0.349123)
(1.8325 0 -0.354689)
(1.8639 0 -0.360648)
(1.89254 6.40446e-20 -0.365881)
(1.92016 3.00461e-23 -0.370707)
(1.94092 0 -0.374319)
(1.96178 0 -0.377989)
(1.97728 4.34848e-20 -0.380942)
(1.9994 2.88798e-23 -0.385261)
(2.01942 3.27105e-23 -0.389484)
(2.05372 0 -0.396471)
(2.08768 0 -0.403624)
(2.14253 3.64718e-20 -0.414707)
(2.1964 -2.51671e-20 -0.425753)
(2.27595 0 -0.441554)
(2.35146 0 -0.456683)
(2.45511 0 -0.476932)
(2.54963 0 -0.495554)
(2.67301 0 -0.519302)
(2.77982 0 -0.54009)
(2.91604 0 -0.566011)
(3.02717 0 -0.587483)
(3.16971 -2.2501e-19 -0.614374)
(3.27734 -1.21893e-19 -0.635098)
(3.42225 -1.27893e-19 -0.662346)
(3.52214 1.33495e-19 -0.68157)
(3.66787 -2.72213e-19 -0.708938)
(3.75732 -1.38799e-19 -0.726195)
(3.90512 -1.39074e-19 -0.754024)
(3.98481 0 -0.769445)
(4.13609 0 -0.79798)
(4.20624 0 -0.811616)
(4.36327 0 -0.841342)
(4.42636 -2.67421e-19 -0.853656)
(4.5907 0 -0.884819)
(4.6471 0 -0.895852)
(4.82013 2.51632e-19 -0.928789)
(4.87339 0 -0.939262)
(5.05855 -4.82952e-19 -0.974597)
(5.11024 4.73872e-19 -0.984717)
(5.30628 0 -1.02214)
(5.35498 0 -1.03168)
(5.56276 0 -1.07138)
(5.60997 4.3418e-19 -1.08074)
(5.83515 0 -1.12377)
(5.88091 -4.17211e-19 -1.13296)
(6.12964 -1.34028e-22 -1.18043)
(6.16954 -8.0418e-19 -1.1886)
(6.44826 -1.57497e-18 -1.24172)
(6.47485 0 -1.24739)
(6.79114 7.60482e-19 -1.30771)
(6.79559 7.47441e-19 -1.30896)
(7.14945 7.34151e-19 -1.3769)
(7.15025 0 -1.37641)
(7.45954 7.04339e-19 -1.43873)
(7.72471 0 -1.48665)
(28.9392 0 2.41595)
(29.5074 0 2.26064)
(28.992 1.17761e-20 1.30791)
(27.501 0 0.239702)
(25.5118 -1.21927e-20 -0.635792)
(23.418 2.49821e-20 -1.25401)
(21.4307 0 -1.64302)
(19.637 -2.27065e-20 -1.86129)
(18.0568 2.20927e-20 -1.96584)
(16.6766 2.0499e-20 -1.99955)
(15.4708 1.96283e-20 -1.99074)
(14.4128 -1.82976e-20 -1.95702)
(13.4785 1.74009e-20 -1.90909)
(12.6478 -3.25503e-20 -1.85344)
(11.9044 0 -1.79402)
(11.2348 -2.89962e-20 -1.73325)
(10.6283 0 -1.67262)
(10.076 0 -1.61303)
(9.57064 0 -1.55503)
(9.10626 2.28685e-20 -1.49894)
(8.67788 -4.73874e-23 -1.44493)
(8.28133 -3.90921e-23 -1.39309)
(7.91314 1.92019e-20 -1.34344)
(7.57036 0 -1.29595)
(7.2505 0 -1.2506)
(6.95144 0 -1.20732)
(6.67135 6.09992e-20 -1.16606)
(6.40868 -2.56248e-23 -1.12676)
(6.16209 0 -1.08936)
(5.93042 0 -1.05379)
(5.71267 0 -1.02)
(5.50797 0 -0.987947)
(5.31557 4.31954e-20 -0.957576)
(5.13482 0 -0.928843)
(4.96513 -3.84682e-20 -0.90171)
(4.80599 0 -0.876131)
(4.65693 0 -0.852065)
(4.5175 -3.22208e-20 -0.829458)
(4.38727 0 -0.808255)
(4.26575 0 -0.78838)
(4.15247 2.6842e-20 -0.769754)
(4.04683 -5.0432e-20 -0.752261)
(3.94821 0 -0.735788)
(3.85579 -4.43921e-20 -0.720173)
(3.76879 0 -0.705266)
(3.68612 7.78953e-20 -0.690869)
(3.60687 7.5517e-24 -0.676831)
(3.52986 0 -0.662955)
(3.4543 0 -0.649138)
(3.37915 -2.98267e-20 -0.63523)
(3.30411 -5.57987e-20 -0.621224)
(3.22842 1.04419e-19 -0.607026)
(3.1524 0 -0.592722)
(3.07547 4.57979e-20 -0.578233)
(2.99854 4.29395e-20 -0.563748)
(2.92126 4.02906e-20 -0.549289)
(2.84594 3.78154e-20 -0.535404)
(2.77365 0 -0.522496)
(2.70945 0 -0.511626)
(2.65594 6.20101e-20 -0.503331)
(2.61914 1.15193e-19 -0.498491)
(2.59971 5.31685e-20 -0.497248)
(2.60035 3.07707e-23 -0.499952)
(2.61584 -4.45513e-20 -0.504961)
(2.64616 -4.05e-20 -0.512067)
(2.68277 0 -0.519747)
(2.72519 0 -0.527774)
(2.76379 -6.03542e-20 -0.534694)
(2.80191 -1.0982e-19 -0.541144)
(2.83127 0 -0.546119)
(2.86241 -4.54287e-20 -0.551524)
(2.88701 -4.10077e-20 -0.556259)
(2.92249 -3.65844e-20 -0.563257)
(2.95548 -6.40734e-20 -0.570353)
(3.00977 0 -0.581561)
(3.06332 0 -0.593055)
(3.14714 -3.43207e-20 -0.610192)
(3.22854 4.74591e-20 -0.627145)
(3.34678 1.3159e-20 -0.650825)
(3.45758 0 -0.673258)
(3.60876 0 -0.702916)
(3.74474 0 -0.729864)
(3.92242 0 -0.764067)
(4.07416 0 -0.793661)
(4.26891 0 -0.830601)
(4.42559 -9.5985e-20 -0.860858)
(4.62873 1.19102e-22 -0.898965)
(4.78003 1.14283e-19 -0.928049)
(4.98664 0 -0.966642)
(5.12694 1.25182e-19 -0.993589)
(5.33528 1.27729e-19 -1.03245)
(5.46117 0 -1.0567)
(5.67329 -1.30401e-19 -1.09639)
(5.78557 -2.61926e-19 -1.11811)
(6.00345 0 -1.15898)
(6.10266 0 -1.17828)
(6.32949 0 -1.22102)
(6.41897 -2.50596e-19 -1.23851)
(6.65666 0 -1.2834)
(6.73731 0 -1.29921)
(6.98812 2.35697e-19 -1.3468)
(7.06483 -2.31519e-19 -1.36193)
(7.33297 0 -1.41297)
(7.40734 0 -1.42756)
(7.69122 0 -1.4816)
(7.76177 0 -1.49545)
(8.06325 0 -1.55293)
(8.13233 -7.71067e-23 -1.56668)
(8.45922 0 -1.629)
(8.52662 3.90411e-19 -1.64264)
(8.88702 -7.63843e-19 -1.71121)
(8.94661 0 -1.72354)
(9.34882 1.42598e-22 -1.79994)
(9.39101 0 -1.80902)
(9.84439 -1.34236e-22 -1.89518)
(9.85826 0 -1.89855)
(10.3607 -6.86404e-19 -1.99486)
(10.3736 0 -1.99591)
(10.8044 6.58184e-19 -2.08435)
(11.1677 0 -2.14775)
(29.1302 0 1.5495)
(29.9028 0 1.72626)
(30.2387 0 1.31233)
(29.8996 0 0.606657)
(28.9736 1.15095e-20 -0.136055)
(27.6644 -7.28084e-22 -0.789678)
(26.1581 0 -1.30671)
(24.5929 2.14336e-20 -1.68303)
(23.0596 0 -1.93714)
(21.6095 -3.82783e-20 -2.09535)
(20.2656 0 -2.18303)
(19.0332 1.72753e-20 -2.22089)
(17.9086 0 -2.22447)
(16.8835 3.0734e-20 -2.20487)
(15.9482 -1.43818e-20 -2.16983)
(15.0931 2.72329e-20 -2.12473)
(14.3093 -2.56209e-20 -2.07324)
(13.5887 -2.41758e-20 -2.01793)
(12.9242 0 -1.96058)
(12.3096 -2.15946e-20 -1.90242)
(11.7397 -2.03694e-20 -1.84433)
(11.2098 -3.83868e-20 -1.78693)
(10.716 -1.8132e-20 -1.73063)
(10.2549 0 -1.67575)
(9.82344 0 -1.62248)
(9.41919 0 -1.57096)
(9.03991 -2.87837e-20 -1.52128)
(8.68369 -2.71755e-20 -1.4735)
(8.34888 0 -1.42766)
(8.03403 0 -1.38376)
(7.7379 2.28571e-20 -1.34182)
(7.45939 0 -1.30183)
(7.19755 -1.08631e-23 -1.26379)
(6.95153 -3.84598e-20 -1.22769)
(6.72059 3.62895e-20 -1.19349)
(6.50404 0 -1.16118)
(6.30127 0 -1.13072)
(6.11164 3.04107e-20 -1.10204)
(5.93454 0 -1.07509)
(5.76931 0 -1.04976)
(5.61525 -2.53298e-20 -1.02595)
(5.47152 4.75879e-20 -1.0035)
(5.33726 0 -0.982256)
(5.21133 4.18831e-20 -0.961995)
(5.09263 0 -0.942519)
(4.97973 -3.67451e-20 -0.923566)
(4.87137 -3.43852e-20 -0.904943)
(4.76596 0 -0.886402)
(4.66246 -3.0084e-20 -0.867825)
(4.55943 2.81282e-20 -0.849038)
(4.45648 1.0524e-19 -0.830054)
(4.35258 -4.92305e-20 -0.810774)
(4.24819 4.609e-20 -0.791338)
(4.14263 1.65137e-24 -0.77168)
(4.03729 0 -0.752105)
(3.93194 -3.79754e-20 -0.732734)
(3.82995 -3.56388e-20 -0.714392)
(3.73285 3.34317e-20 -0.697702)
(3.6474 -3.13069e-20 -0.684081)
(3.57662 -5.84223e-20 -0.674156)
(3.52813 -5.42686e-20 -0.668922)
(3.50197 5.01362e-20 -0.668328)
(3.50156 -4.5996e-20 -0.672568)
(3.51972 0 -0.679439)
(3.55668 0 -0.688662)
(3.60118 -3.46103e-20 -0.698273)
(3.65347 0 -0.708134)
(3.70107 0 -0.716505)
(3.74948 5.16908e-20 -0.724459)
(3.78769 0 -0.73082)
(3.83034 4.27414e-20 -0.738195)
(3.8656 7.71827e-20 -0.745114)
(3.9169 0 -0.755384)
(3.9653 3.0146e-20 -0.766029)
(4.04277 0 -0.782265)
(4.11864 0 -0.798879)
(4.23483 3.24515e-20 -0.822926)
(4.34627 -2.23508e-20 -0.846505)
(4.50641 1.04159e-22 -0.878839)
(4.65439 0 -0.909116)
(4.85588 0 -0.948795)
(5.03445 0 -0.984378)
(5.26873 -2.46543e-20 -1.02946)
(5.4658 3.24932e-20 -1.06795)
(5.7211 0 -1.11618)
(5.92323 1.80071e-19 -1.15517)
(6.18896 9.90275e-20 -1.2047)
(6.38362 -2.14386e-19 -1.24202)
(6.65418 -1.12429e-19 -1.29219)
(6.83445 -2.34791e-19 -1.32672)
(7.10807 0 -1.37737)
(7.26997 0 -1.40852)
(7.54957 1.22271e-19 -1.46049)
(7.69395 2.45559e-19 -1.4884)
(7.98206 -2.43036e-19 -1.54213)
(8.10991 0 -1.56702)
(8.4105 0 -1.6234)
(8.52595 2.34792e-19 -1.646)
(8.84119 2.29688e-19 -1.7053)
(8.9459 0 -1.72588)
(9.2789 -2.20735e-19 -1.78889)
(9.37902 2.16791e-19 -1.80871)
(9.7345 0 -1.8762)
(9.83147 0 -1.89527)
(10.2075 0 -1.96669)
(10.2999 0 -1.98491)
(10.6995 0 -2.06094)
(10.7908 -3.80173e-19 -2.07924)
(11.2237 0 -2.16161)
(11.3132 0 -2.17991)
(11.7891 0 -2.27024)
(11.8695 7.03167e-19 -2.28707)
(12.3978 6.88608e-19 -2.38714)
(12.4581 0 -2.40029)
(13.0486 -6.64752e-19 -2.51216)
(13.0778 0 -2.51889)
(13.7235 -6.41346e-19 -2.64259)
(13.7613 0 -2.64722)
(14.3002 -6.15095e-19 -2.76019)
(14.7683 0 -2.83837)
(29.2665 -5.46327e-21 0.904145)
(29.8791 -6.61634e-21 1.11418)
(30.4099 7.71096e-21 0.985725)
(30.6363 8.59983e-21 0.595441)
(30.4685 0 0.0801993)
(29.9315 -1.01266e-20 -0.458424)
(29.1009 0 -0.958074)
(28.0642 1.85655e-20 -1.385)
(26.903 1.80171e-20 -1.72703)
(25.6841 3.5172e-20 -1.98617)
(24.457 -1.65672e-20 -2.17198)
(23.2554 1.57725e-20 -2.29698)
(22.1002 0 -2.37368)
(21.0027 0 -2.41318)
(19.9679 1.35595e-20 -2.4246)
(18.9965 -1.04148e-22 -2.41516)
(18.0867 1.64424e-22 -2.39044)
(17.2356 1.3086e-22 -2.35466)
(16.4394 0 -2.31102)
(15.6942 0 -2.26192)
(14.9962 0 -2.2092)
(14.3417 3.60943e-20 -2.15425)
(13.7274 1.7014e-20 -2.0981)
(13.1502 0 -2.04155)
(12.6074 0 -1.98522)
(12.0965 2.86538e-20 -1.92957)
(11.6153 0 -1.87495)
(11.1619 0 -1.82163)
(10.7345 0 -1.76983)
(10.3315 0 -1.71971)
(9.9518 -2.01153e-23 -1.6714)
(9.59404 0 -1.62499)
(9.25722 -1.31657e-23 -1.58056)
(8.94039 3.62543e-20 -1.53816)
(8.64271 -1.61242e-23 -1.49783)
(8.36338 0 -1.45956)
(8.10167 0 -1.42335)
(7.8568 0 -1.38915)
(7.62805 0 -1.3569)
(7.41452 0 -1.32648)
(7.21536 0 -1.29777)
(7.02945 0 -1.27057)
(6.85569 -4.20947e-20 -1.24468)
(6.69261 -3.94744e-20 -1.21982)
(6.53881 0 -1.19575)
(6.39245 -3.46298e-20 -1.17215)
(6.25194 0 -1.14878)
(6.11523 0 -1.12535)
(5.98098 5.66761e-20 -1.10174)
(5.84732 0 -1.07775)
(5.71371 -4.95581e-20 -1.05342)
(5.57879 0 -1.02867)
(5.44319 -8.6799e-20 -1.0037)
(5.30603 5.70627e-25 -0.978475)
(5.16934 0 -0.953452)
(5.033 0 -0.928888)
(4.90161 0 -0.905932)
(4.77715 -6.29347e-20 -0.885453)
(4.66816 5.89322e-20 -0.869227)
(4.57789 5.50111e-20 -0.857923)
(4.51561 5.11083e-20 -0.852577)
(4.48049 -9.43686e-20 -0.852853)
(4.47686 -4.33295e-20 -0.858766)
(4.49541 0 -0.867498)
(4.53694 0 -0.878714)
(4.58728 -2.51618e-23 -0.89002)
(4.64795 0 -0.90146)
(4.70334 0 -0.911049)
(4.76175 4.86528e-20 -0.920404)
(4.80889 0 -0.928186)
(4.86413 0 -0.937771)
(4.9113 -7.25915e-20 -0.947248)
(4.98056 3.24276e-20 -0.96134)
(5.04628 0 -0.976134)
(5.14966 0 -0.998114)
(5.24987 0 -1.0205)
(5.40126 -3.04768e-20 -1.05219)
(5.54441 0 -1.08297)
(5.74905 -2.35227e-20 -1.12459)
(5.93525 2.40482e-21 -1.16309)
(6.18927 0 -1.21328)
(6.41072 0 -1.25765)
(6.70349 2.31351e-20 -1.31392)
(6.94559 -8.24887e-23 -1.36128)
(7.26319 3.64873e-20 -1.42101)
(7.51003 -8.43897e-20 -1.46856)
(7.84024 9.26477e-20 -1.52967)
(8.0773 1.00469e-19 -1.57503)
(8.41403 1.05413e-19 -1.63697)
(8.63315 7.68309e-23 -1.67885)
(8.97476 0 -1.74158)
(9.17144 -1.14277e-19 -1.77938)
(9.52172 0 -1.84403)
(9.69685 0 -1.87788)
(10.0588 2.27678e-19 -1.94496)
(10.2139 0 -1.9752)
(10.592 0 -2.04576)
(10.732 0 -2.07324)
(11.1286 -2.15059e-19 -2.14752)
(11.2561 0 -2.17269)
(11.6751 -2.06529e-19 -2.25171)
(11.7975 0 -2.27605)
(12.2437 0 -2.36053)
(12.3622 0 -2.38391)
(12.8333 0 -2.47315)
(12.9468 0 -2.49562)
(13.4469 -3.62363e-19 -2.59057)
(13.5596 -3.55426e-19 -2.61336)
(14.1003 3.4718e-19 -2.71599)
(14.2117 0 -2.739)
(14.8036 0 -2.85104)
(14.9053 -1.31464e-18 -2.8726)
(15.558 0 -2.99581)
(15.6394 6.33443e-19 -3.0137)
(16.3607 0 -3.14995)
(16.4135 6.10113e-19 -3.16157)
(17.1882 5.99326e-19 -3.31002)
(17.2686 0 -3.32096)
(17.8923 -5.74498e-19 -3.45509)
(18.4769 0 -3.54875)
(29.3827 5.14479e-21 0.423006)
(29.8209 1.23991e-20 0.585293)
(30.2841 -7.26319e-21 0.570083)
(30.6589 -5.78695e-22 0.373927)
(30.8448 7.99595e-21 0.0513268)
(30.7949 0 -0.337368)
(30.507 0 -0.74399)
(30.0051 -1.74824e-20 -1.13368)
(29.3261 -3.32057e-20 -1.48423)
(28.5115 -5.73616e-22 -1.78424)
(27.6015 1.55995e-20 -2.03009)
(26.6318 -1.48511e-20 -2.22339)
(25.6323 1.38282e-20 -2.36886)
(24.6263 0 -2.47274)
(23.6311 0 -2.54158)
(22.6587 -1.19537e-20 -2.58161)
(21.7173 4.49794e-20 -2.59838)
(20.8118 4.25195e-20 -2.59665)
(19.9449 0 -2.58038)
(19.1174 0 -2.55286)
(18.3293 0 -2.51676)
(17.5799 -6.9098e-23 -2.47422)
(16.868 -3.19858e-20 -2.427)
(16.192 1.50816e-20 -2.37648)
(15.5506 2.84944e-20 -2.32378)
(14.9421 -5.38988e-20 -2.2698)
(14.365 2.54282e-20 -2.21527)
(13.818 2.40211e-20 -2.16076)
(13.2996 2.26913e-20 -2.10676)
(12.8088 0 -2.05366)
(12.3443 -2.02697e-20 -2.00176)
(11.9052 1.91198e-20 -1.95133)
(11.4905 -1.807e-20 -1.90258)
(11.0994 -3.40862e-20 -1.85566)
(10.7312 -6.43564e-20 -1.8107)
(10.3849 0 -1.76778)
(10.0599 0 -1.72693)
(9.75548 -2.69631e-20 -1.68816)
(9.47069 0 -1.6514)
(9.20457 2.38942e-20 -1.61655)
(8.95613 2.24664e-20 -1.58347)
(8.72403 0 -1.55194)
(8.50696 7.92342e-20 -1.52173)
(8.30314 3.71481e-20 -1.49251)
(8.11089 0 -1.46399)
(7.92794 3.25854e-20 -1.43579)
(7.7524 3.04937e-20 -1.40765)
(7.5817 0 -1.37924)
(7.41419 -5.3328e-20 -1.35044)
(7.24749 2.49313e-20 -1.32103)
(7.08086 4.66262e-20 -1.29112)
(6.91252 0 -1.2606)
(6.7432 -5.58532e-25 -1.22978)
(6.57183 -7.64642e-20 -1.19868)
(6.40105 0 -1.16793)
(6.23084 0 -1.13795)
(6.06716 3.15444e-20 -1.11027)
(5.91237 2.95864e-20 -1.086)
(5.77683 -5.54135e-20 -1.06728)
(5.66393 -5.17117e-20 -1.05478)
(5.58465 -4.80388e-20 -1.04951)
(5.53716 4.43603e-20 -1.05072)
(5.52698 8.14701e-20 -1.05831)
(5.54254 0 -1.06877)
(5.58569 0 -1.08175)
(5.63915 6.12303e-20 -1.09444)
(5.70621 0 -1.10716)
(5.7678 0 -1.11772)
(5.83559 -4.56954e-20 -1.12837)
(5.89137 0 -1.13759)
(5.9599 3.77999e-20 -1.1496)
(6.01965 -3.15143e-23 -1.16195)
(6.10849 -3.04433e-20 -1.18035)
(6.19266 0 -1.19979)
(6.32396 0 -1.22812)
(6.44958 0 -1.25679)
(6.63821 -2.87964e-20 -1.29673)
(6.81372 0 -1.33508)
(7.06468 1.10837e-20 -1.38649)
(7.28911 -4.61809e-21 -1.43341)
(7.59723 0 -1.49444)
(7.86092 0 -1.54759)
(8.21359 0 -1.61526)
(8.49954 -8.25223e-23 -1.67128)
(8.88093 -3.42058e-20 -1.74264)
(9.17096 -7.88473e-20 -1.79844)
(9.56743 -8.6833e-20 -1.87125)
(9.84511 9.3955e-20 -1.92426)
(10.2502 0 -1.99814)
(10.5062 1.03002e-19 -2.04697)
(10.9186 0 -2.12205)
(11.1478 1.07039e-19 -2.16608)
(11.5719 0 -2.24377)
(11.7754 0 -2.28312)
(12.2145 0 -2.36396)
(12.3943 -2.11759e-19 -2.39912)
(12.8534 -2.08122e-19 -2.48432)
(13.0155 0 -2.51623)
(13.4965 2.01164e-19 -2.60593)
(13.6445 -1.97879e-19 -2.63526)
(14.152 1.93243e-19 -2.73068)
(14.2945 -1.89699e-19 -2.75916)
(14.8335 0 -2.86091)
(14.9714 0 -2.88822)
(15.5387 0 -2.99539)
(15.6712 0 -3.02177)
(16.2719 3.3884e-19 -3.13555)
(16.4044 7.73717e-23 -3.16258)
(17.0512 -6.49085e-19 -3.28507)
(17.1834 0 -3.3127)
(17.8875 0 -3.44559)
(18.0113 6.143e-19 -3.47212)
(18.7805 0 -3.61691)
(18.8874 -5.91953e-19 -3.6404)
(19.7254 0 -3.79828)
(19.813 -1.13999e-18 -3.81683)
(20.6918 0 -3.98558)
(20.8377 0 -4.00636)
(21.5134 5.3667e-19 -4.15652)
(22.2279 0 -4.26658)
(29.4701 0 0.0489319)
(29.7918 -5.80199e-21 0.163498)
(30.1462 0 0.181759)
(30.4924 -7.07655e-21 0.0846103)
(30.77 -1.45643e-20 -0.11247)
(30.9302 0 -0.378623)
(30.9469 7.38916e-21 -0.68312)
(30.8112 0 -1.00013)
(30.5267 7.14851e-22 -1.30971)
(30.1051 -2.90259e-20 -1.5979)
(29.5635 0 -1.85601)
(28.922 0 -2.07945)
(28.2015 -1.30066e-20 -2.26675)
(27.422 0 -2.41875)
(26.602 0 -2.53776)
(25.7575 0 -2.6269)
(24.902 -2.10567e-20 -2.68969)
(24.0465 -1.99195e-20 -2.72967)
(23.1994 -1.86745e-20 -2.75024)
(22.3673 0 -2.75455)
(21.5548 0 -2.74544)
(20.7655 -1.5894e-20 -2.72541)
(20.0015 1.50156e-20 -2.69662)
(19.2643 -1.4185e-20 -2.66091)
(18.5547 -2.68002e-20 -2.61987)
(17.8733 5.05564e-20 -2.57481)
(17.2199 -6.43464e-23 -2.52686)
(16.5946 -2.25921e-20 -2.47694)
(15.997 -2.13411e-20 -2.42586)
(15.4269 0 -2.37429)
(14.8837 0 -2.32279)
(14.3672 -1.79811e-20 -2.27182)
(13.8769 0 -2.22179)
(13.4123 3.20546e-20 -2.17302)
(12.973 3.02498e-20 -2.12575)
(12.5585 -2.85143e-20 -2.08019)
(12.1683 0 -2.03645)
(11.8016 2.5353e-20 -1.99459)
(11.4578 2.38661e-20 -1.95462)
(11.1359 -5.83053e-24 -1.91643)
(10.8348 -4.22414e-20 -1.8799)
(10.5531 0 -1.84481)
(10.2895 -3.72453e-20 -1.81089)
(10.0417 0 -1.7778)
(9.80805 0 -1.74521)
(9.58578 0 -1.71269)
(9.37274 3.30073e-24 -1.67998)
(9.16585 0 -1.6467)
(8.96315 2.50611e-20 -1.61275)
(8.76162 -4.68613e-20 -1.57791)
(8.56032 -4.38154e-20 -1.54231)
(8.35688 0 -1.50591)
(8.1521 3.83549e-20 -1.46909)
(7.94453 7.18391e-20 -1.43194)
(7.73746 0 -1.3953)
(7.53086 0 -1.35979)
(7.33206 -2.96313e-20 -1.32732)
(7.14364 -2.77943e-20 -1.29928)
(6.97796 2.60252e-20 -1.27814)
(6.8383 4.85987e-20 -1.26452)
(6.73764 0 -1.25939)
(6.67301 0 -1.26135)
(6.6516 2.96314e-23 -1.27056)
(6.65953 3.49503e-20 -1.28247)
(6.7003 0 -1.29688)
(6.75319 -2.87495e-20 -1.31057)
(6.824 0 -1.32424)
(6.88952 0 -1.33546)
(6.96558 0 -1.34726)
(7.029 0 -1.35787)
(7.11093 2.84048e-23 -1.37245)
(7.18307 -3.23179e-23 -1.3879)
(7.29232 2.86283e-20 -1.41098)
(7.39499 0 -1.4354)
(7.55533 2.14125e-20 -1.47055)
(7.70621 0 -1.50581)
(7.93316 2.70023e-20 -1.55441)
(8.1404 -1.88495e-20 -1.60053)
(8.43861 1.06013e-20 -1.66204)
(8.70006 2.2144e-21 -1.71736)
(9.06307 0 -1.78943)
(9.36727 1.32235e-20 -1.85114)
(9.78072 0 -1.93028)
(10.1084 -2.66335e-20 -1.99461)
(10.5547 -3.19036e-20 -2.07763)
(10.8855 7.38642e-20 -2.1412)
(11.3499 0 -2.22576)
(11.6655 -1.75895e-19 -2.2859)
(12.1412 0 -2.37184)
(12.431 9.63023e-20 -2.42703)
(12.9167 0 -2.51466)
(13.1752 1.00096e-19 -2.56432)
(13.6762 0 -2.65532)
(13.9044 2.01329e-19 -2.69952)
(14.4237 -1.9929e-19 -2.79447)
(14.6246 1.98163e-19 -2.83386)
(15.1673 1.9474e-19 -2.93402)
(15.3478 0 -2.96969)
(15.9153 -3.76327e-19 -3.07502)
(16.0801 3.70146e-19 -3.10788)
(16.6774 0 -3.21979)
(16.8366 1.77413e-19 -3.25182)
(17.4686 0 -3.37074)
(17.623 0 -3.40143)
(18.2853 -3.31304e-19 -3.52619)
(18.4342 0 -3.55599)
(19.1319 0 -3.68786)
(19.2821 3.10559e-19 -3.71877)
(20.0291 6.06522e-19 -3.85991)
(20.1811 2.98016e-19 -3.89203)
(20.988 0 -4.0439)
(21.1354 0 -4.07574)
(22.0063 0 -4.23921)
(22.1451 0 -4.26949)
(23.0762 5.41904e-19 -4.4446)
(23.2138 5.32415e-19 -4.47267)
(24.1609 0 -4.65537)
(24.3982 0 -4.68991)
(25.0863 0 -4.84972)
(25.9409 0 -4.9768)
(29.5304 5.06373e-21 -0.254582)
(29.7773 0 -0.173665)
(30.0466 5.7175e-21 -0.149998)
(30.3265 0 -0.199876)
(30.5877 6.61822e-21 -0.322819)
(30.7985 0 -0.504837)
(30.9353 -6.94482e-21 -0.727639)
(30.9835 1.31399e-20 -0.973786)
(30.9348 2.67108e-20 -1.22835)
(30.786 5.73438e-22 -1.47944)
(30.5383 0 -1.71825)
(30.1963 0 -1.93871)
(29.7673 0 -2.13693)
(29.2608 0 -2.31079)
(28.6873 0 -2.45956)
(28.058 0 -2.5836)
(27.3841 1.92623e-20 -2.68396)
(26.6764 -1.82953e-20 -2.76215)
(25.9447 1.7547e-20 -2.82005)
(25.198 0 -2.85965)
(24.4439 0 -2.88308)
(23.6892 1.47511e-20 -2.89241)
(22.9393 1.39588e-20 -2.88963)
(22.1988 1.3205e-20 -2.87661)
(21.4713 0 -2.85505)
(20.7597 -2.37144e-20 -2.82648)
(20.0665 -4.47414e-20 -2.79228)
(19.3934 2.11107e-20 -2.75365)
(18.742 0 -2.71166)
(18.1133 0 -2.66726)
(17.5083 0 -2.62125)
(16.9277 1.68381e-20 -2.57435)
(16.3721 0 -2.52716)
(15.8417 0 -2.48019)
(15.3369 2.8358e-20 -2.43387)
(14.8577 2.67869e-20 -2.38853)
(14.4042 0 -2.34443)
(13.9762 2.37872e-20 -2.3017)
(13.5732 -4.48235e-20 -2.26043)
(13.1945 -2.10968e-20 -2.22057)
(12.8393 1.98365e-20 -2.18204)
(12.5062 0 -2.14461)
(12.1938 0 -2.10804)
(11.9001 0 -2.07196)
(11.6229 3.07319e-20 -2.03604)
(11.3594 0 -1.99982)
(11.1073 -2.6918e-20 -1.96303)
(10.8628 -2.51744e-20 -1.92529)
(10.6239 0 -1.8865)
(10.3867 2.20003e-20 -1.84647)
(10.1502 0 -1.80538)
(9.91113 0 -1.76321)
(9.67033 3.60042e-20 -1.72046)
(9.42572 -2.68226e-24 -1.67729)
(9.18119 -3.1597e-20 -1.63478)
(8.93643 0 -1.59376)
(8.70015 0 -1.55654)
(8.47491 2.60847e-20 -1.52478)
(8.27511 0 -1.50127)
(8.10376 -4.56037e-20 -1.48653)
(7.97617 0 -1.48145)
(7.88818 0 -1.484)
(7.8494 -7.18756e-20 -1.49443)
(7.84359 -6.56024e-20 -1.5074)
(7.87666 -2.98204e-20 -1.5228)
(7.92412 0 -1.53701)
(7.99504 0 -1.5512)
(8.06129 -2.21657e-20 -1.56272)
(8.14367 -4.02908e-20 -1.57544)
(8.21278 0 -1.5873)
(8.30731 -3.32794e-20 -1.60448)
(8.3905 3.00442e-20 -1.62308)
(8.51994 -2.68371e-20 -1.65104)
(8.63983 2.35548e-20 -1.68059)
(8.82917 -2.00693e-20 -1.7228)
(9.00373 0 -1.76475)
(9.26892 0 -1.82223)
(9.50581 1.76623e-20 -1.87605)
(9.85112 -1.99762e-20 -1.94778)
(10.147 0 -2.01126)
(10.5649 0 -2.09438)
(10.9066 -1.2386e-20 -2.16425)
(11.3811 0 -2.25481)
(11.7473 0 -2.3269)
(12.2594 2.98746e-20 -2.4215)
(12.6275 6.8905e-20 -2.49222)
(13.1612 0 -2.58849)
(13.5109 8.22832e-20 -2.65505)
(14.0593 0 -2.7531)
(14.3788 -9.01348e-20 -2.81388)
(14.9405 9.18373e-20 -2.91419)
(15.2236 -9.3668e-20 -2.96864)
(15.8041 -9.37654e-20 -3.07316)
(16.0522 -9.09818e-23 -3.12133)
(16.6543 1.8644e-19 -3.23056)
(16.8712 0 -3.27331)
(17.4994 -1.82023e-19 -3.38851)
(17.6935 1.79812e-19 -3.42709)
(18.3482 1.75942e-19 -3.54798)
(18.5252 -3.46022e-19 -3.58352)
(19.2116 0 -3.71165)
(19.3833 1.65778e-19 -3.74646)
(20.1062 0 -3.88202)
(20.2735 0 -3.91542)
(21.0265 3.09676e-19 -4.05682)
(21.1887 0 -4.08946)
(21.9763 0 -4.23796)
(22.1418 -2.90067e-19 -4.27235)
(22.978 -7.78309e-23 -4.43001)
(23.1494 -7.71285e-23 -4.46655)
(24.0435 -2.72202e-19 -4.6344)