/*--------------------------------*- C++ -*----------------------------------*\
| =========                 |                                                 |
| \\      /  F ield         | OpenFOAM: The Open Source CFD Toolbox           |
|  \\    /   O peration     | Version:  2412                                  |
|   \\  /    A nd           | Website:  www.openfoam.com                      |
|    \\/     M anipulation  |                                                 |
\*---------------------------------------------------------------------------*/
FoamFile
{
    version     2.0;
    format      ascii;
    arch        "LSB;label=32;scalar=64";
    class       volVectorField;
    location    "0.09";
    object      U;
}
// * * * * * * * * * * * * * * * * * * * * * * * * * * * * * * * * * * * * * //

dimensions      [0 1 -1 0 0 0 0];

internalField   nonuniform List<vector> 
12600
(
(-1.62729 1.48523e-22 -0.559361)
(-0.746597 -1.13075e-21 -0.0757061)
(-0.320425 -9.33055e-22 8.4904e-05)
(-0.120212 0 -0.00206708)
(0.00784217 -6.93325e-22 -0.0144308)
(0.103637 -5.38275e-22 -0.0268081)
(0.179817 0 -0.0374326)
(0.241744 0 -0.0470153)
(0.293807 -5.64485e-22 -0.0555858)
(0.338442 0 -0.0632355)
(0.377294 1.16849e-21 -0.0700898)
(0.411545 1.60064e-21 -0.0762641)
(0.442055 -2.01947e-21 -0.0818565)
(0.469468 0 -0.0869495)
(0.494282 -2.80245e-21 -0.0916116)
(0.516887 0 -0.0958987)
(0.537595 1.41282e-20 -0.0998574)
(0.556658 0 -0.103526)
(0.574281 -8.36593e-21 -0.106936)
(0.590634 -8.99704e-21 -0.110115)
(0.605858 9.56934e-21 -0.113088)
(0.620076 2.54039e-23 -0.115875)
(0.633388 0 -0.118492)
(0.645884 -2.21533e-20 -0.120957)
(0.657641 0 -0.123281)
(0.668722 0 -0.125477)
(0.679192 -2.46568e-20 -0.127556)
(0.689119 0 -0.12947)
(0.69854 -4.21229e-23 -0.13127)
(0.707501 2.65787e-20 -0.132988)
(0.716028 2.71293e-20 -0.134628)
(0.724148 2.76287e-20 -0.136191)
(0.731917 -2.80802e-20 -0.137695)
(0.739348 -5.69724e-20 -0.139137)
(0.746467 -5.76911e-20 -0.140517)
(0.753333 5.83882e-20 -0.141857)
(0.759929 0 -0.143144)
(0.766293 -5.93535e-20 -0.144388)
(0.772475 0 -0.145604)
(0.778434 6.00777e-20 -0.146772)
(0.784253 0 -0.147919)
(0.789923 -8.82764e-23 -0.149036)
(0.795448 0 -0.150127)
(0.800901 -7.94586e-23 -0.151206)
(0.806233 1.21535e-19 -0.152262)
(0.811528 -1.21375e-19 -0.153312)
(0.816744 1.21245e-19 -0.154345)
(0.821935 0 -0.155375)
(0.827103 0 -0.1564)
(0.832249 1.20088e-19 -0.157421)
(0.837432 2.39054e-19 -0.158449)
(0.842616 2.37777e-19 -0.159477)
(0.847871 -9.89382e-23 -0.160518)
(0.853163 2.34692e-19 -0.161565)
(0.858555 0 -0.162632)
(0.864014 -2.31268e-19 -0.163711)
(0.869594 -2.29335e-19 -0.164812)
(0.875276 -2.2721e-19 -0.165932)
(0.881102 0 -0.167079)
(0.887069 0 -0.168252)
(0.893212 0 -0.169459)
(0.899539 4.36323e-19 -0.1707)
(0.906072 0 -0.17198)
(0.912824 0 -0.1733)
(0.919814 -8.4189e-19 -0.174666)
(0.927053 0 -0.176079)
(0.934564 0 -0.177543)
(0.942378 0 -0.179065)
(0.950519 7.97668e-19 -0.180648)
(0.959013 -7.86173e-19 -0.182299)
(0.967882 -7.74537e-19 -0.18402)
(0.977143 -1.5167e-22 -0.185816)
(0.986822 7.50866e-19 -0.187691)
(0.99694 0 -0.189649)
(1.00753 -7.26769e-19 -0.191698)
(1.0186 0 -0.193836)
(1.03019 0 -0.196074)
(1.04229 0 -0.198408)
(1.05497 -2.1787e-22 -0.200855)
(1.06817 -1.33101e-18 -0.203399)
(1.08204 -1.30623e-18 -0.20607)
(1.09642 1.28126e-18 -0.208837)
(1.11156 1.25647e-18 -0.211752)
(1.12717 0 -0.214754)
(1.14372 0 -0.217937)
(1.16061 -2.36482e-18 -0.221183)
(1.17868 4.63051e-18 -0.224656)
(1.19688 -4.53224e-18 -0.228151)
(1.21662 -2.21711e-18 -0.231946)
(1.23614 0 -0.235691)
(1.25772 4.23876e-18 -0.239839)
(1.27856 -2.07109e-18 -0.243835)
(1.30216 2.02254e-18 -0.24837)
(1.32432 -3.94956e-18 -0.25262)
(1.35011 0 -0.257571)
(1.37361 0 -0.262079)
(1.40176 0 -0.267472)
(1.42665 0 -0.272221)
(1.45739 0 -0.278112)
(1.48374 0 -0.283134)
(1.51741 3.29549e-18 -0.28959)
(1.54501 6.40672e-18 -0.294848)
(1.58213 6.23038e-18 -0.301966)
(1.61025 0 -0.307327)
(1.65144 0 -0.315223)
(1.67927 0 -0.320533)
(1.72503 5.53078e-18 -0.329296)
(1.75306 1.07196e-17 -0.334649)
(1.80303 -5.19217e-18 -0.344213)
(1.83303 0 -0.349941)
(1.88542 9.72804e-18 -0.359974)
(1.91885 0 -0.366356)
(1.97157 9.09163e-18 -0.376467)
(2.0072 -8.77662e-18 -0.383267)
(2.06205 8.47387e-18 -0.393825)
(2.08886 8.16507e-18 -0.398916)
(2.1551 -7.87104e-18 -0.411818)
(2.12909 4.80762e-22 -0.406751)
(2.22558 -7.26911e-18 -0.425379)
(1.84897 0 -0.353319)
(-2.99239 -1.50584e-22 -1.2896)
(-1.78007 0 -0.398731)
(-0.968916 9.46271e-22 -0.159803)
(-0.449851 0 -0.110547)
(-0.0823264 7.03342e-22 -0.111932)
(0.197857 8.93906e-22 -0.128056)
(0.422087 2.56563e-22 -0.147601)
(0.606049 0 -0.167623)
(0.761924 -3.27881e-23 -0.186873)
(0.896543 -7.62254e-22 -0.20493)
(1.01451 1.19485e-21 -0.221713)
(1.11914 1.62068e-21 -0.237272)
(1.21286 -2.0363e-21 -0.251701)
(1.29752 2.43931e-21 -0.265103)
(1.37453 5.67232e-21 -0.277581)
(1.44502 0 -0.289225)
(1.50989 -4.03689e-23 -0.300115)
(1.56986 7.79768e-21 -0.31032)
(1.62553 8.48847e-21 -0.319905)
(1.67738 0 -0.328925)
(1.72584 0 -0.337432)
(1.77126 1.0227e-20 -0.345471)
(1.81394 0 -0.353079)
(1.85414 1.12189e-20 -0.360291)
(1.8921 -2.32504e-20 -0.36714)
(1.928 0 -0.373652)
(1.96204 2.48624e-20 -0.379855)
(1.99439 0 -0.385727)
(2.02516 -2.63139e-20 -0.391318)
(2.05449 -5.37636e-20 -0.396672)
(2.08249 -5.48677e-20 -0.401807)
(2.10924 -2.79655e-20 -0.406723)
(2.13487 2.84144e-20 -0.411457)
(2.15946 1.15151e-19 -0.416015)
(2.18307 1.16575e-19 -0.420393)
(2.20586 0 -0.424643)
(2.22782 0 -0.428745)
(2.24902 9.59617e-23 -0.43271)
(2.26963 0 -0.436588)
(2.28954 -6.06503e-20 -0.440329)
(2.30896 0 -0.443992)
(2.32791 -1.22108e-19 -0.447574)
(2.34636 0 -0.451066)
(2.36456 -1.22397e-19 -0.454524)
(2.38234 0 -0.457902)
(2.39997 1.22215e-19 -0.46126)
(2.41731 0 -0.464565)
(2.43453 0 -0.467851)
(2.45163 -1.21046e-19 -0.471121)
(2.46862 0 -0.474372)
(2.48567 0 -0.477641)
(2.50267 0 -0.480902)
(2.51984 -2.36998e-19 -0.484199)
(2.53708 -4.70414e-19 -0.487508)
(2.55456 0 -0.490872)
(2.57219 0 -0.494264)
(2.59014 2.29256e-19 -0.49772)
(2.60835 2.27196e-19 -0.501225)
(2.62695 0 -0.504808)
(2.64592 0 -0.508464)
(2.66537 0 -0.512216)
(2.68532 0 -0.516065)
(2.70585 4.29431e-19 -0.520026)
(2.727 -4.24013e-19 -0.524105)
(2.74881 8.37134e-19 -0.528315)
(2.77132 0 -0.532661)
(2.79461 0 -0.537157)
(2.81876 0 -0.54182)
(2.84384 -2.95421e-22 -0.546666)
(2.86994 7.78646e-19 -0.551706)
(2.89712 7.66422e-19 -0.556956)
(2.92543 -1.50788e-18 -0.562424)
(2.95495 -2.39981e-22 -0.568125)
(2.98574 7.28823e-19 -0.574071)
(3.0179 7.16422e-19 -0.580282)
(3.05144 0 -0.586758)
(3.0865 0 -0.593527)
(3.12302 0 -0.600578)
(3.16127 -1.33083e-18 -0.607962)
(3.20101 0 -0.615631)
(3.24268 0 -0.623676)
(3.28583 -1.25398e-18 -0.632002)
(3.33124 -1.22841e-18 -0.640767)
(3.37798 0 -0.649784)
(3.4275 0 -0.65934)
(3.47795 0 -0.669072)
(3.53192 -4.50673e-18 -0.679487)
(3.58618 4.53121e-22 -0.68995)
(3.64507 -2.15279e-18 -0.701315)
(3.7031 2.1031e-18 -0.712504)
(3.76745 -4.10747e-18 -0.72492)
(3.82923 -2.00445e-18 -0.736835)
(3.89961 -3.91148e-18 -0.750407)
(3.96509 0 -0.763043)
(4.04204 0 -0.777868)
(4.11119 0 -0.79123)
(4.19525 0 -0.807397)
(4.26817 -3.43386e-18 -0.821502)
(4.36 0 -0.839133)
(4.43688 0 -0.85404)
(4.53739 3.15933e-18 -0.873305)
(4.61781 -3.06853e-18 -0.888933)
(4.7284 -1.19242e-17 -0.910101)
(4.8105 5.78331e-18 -0.926073)
(4.93289 0 -0.949508)
(5.01428 0 -0.965325)
(5.14995 0 -0.991365)
(5.23155 -5.10517e-18 -1.00717)
(5.37977 4.94138e-18 -1.0357)
(5.46624 0 -1.05239)
(5.62236 -1.84839e-17 -1.08245)
(5.71821 -8.92777e-18 -1.10095)
(5.87605 -1.7247e-17 -1.13127)
(5.97826 0 -1.1511)
(6.14355 0 -1.18261)
(6.21912 7.72646e-18 -1.19753)
(6.42414 0 -1.236)
(6.34385 7.14999e-18 -1.22125)
(6.66224 6.86487e-18 -1.27693)
(5.63058 0 -1.07588)
(-3.43981 0 -1.97126)
(-2.38398 0 -1.01371)
(-1.47154 4.63096e-22 -0.591547)
(-0.768136 0 -0.416142)
(-0.223478 0 -0.348534)
(0.210814 -4.81677e-22 -0.328268)
(0.567433 -2.43179e-22 -0.330108)
(0.865774 0 -0.341443)
(1.12155 -2.95423e-23 -0.357255)
(1.3445 7.22501e-22 -0.375059)
(1.54142 -2.27139e-21 -0.393556)
(1.71726 -1.53616e-21 -0.412067)
(1.87572 6.03725e-24 -0.430233)
(2.01963 -2.31207e-21 -0.447866)
(2.1512 -2.6805e-21 -0.464873)
(2.27216 3.01967e-21 -0.481212)
(2.38394 -6.74538e-21 -0.496871)
(2.48768 -7.39057e-21 -0.511857)
(2.58434 0 -0.526189)
(2.67469 0 -0.539896)
(2.75942 9.09779e-21 -0.553013)
(2.83908 9.61505e-21 -0.565568)
(2.91417 0 -0.577592)
(2.98512 0 -0.589114)
(3.05229 2.20325e-20 -0.600162)
(3.11599 0 -0.610766)
(3.17653 -4.70538e-20 -0.620954)
(3.23418 2.41767e-20 -0.63077)
(3.28916 0 -0.640217)
(3.34169 2.54353e-20 -0.649312)
(3.39196 2.59584e-20 -0.658085)
(3.44008 0 -0.666538)
(3.48627 -2.68079e-20 -0.674703)
(3.53067 -5.44811e-20 -0.682612)
(3.57338 -9.23243e-23 -0.690245)
(3.61464 0 -0.697668)
(3.65447 0 -0.704876)
(3.69297 5.66932e-20 -0.711856)
(3.73041 0 -0.718698)
(3.76663 0 -0.725324)
(3.80196 0 -0.731819)
(3.83643 0 -0.738189)
(3.87003 0 -0.744404)
(3.90311 0 -0.750567)
(3.93546 0 -0.75659)
(3.96744 -1.15433e-19 -0.762578)
(3.99891 1.15189e-19 -0.768472)
(4.03008 0 -0.774331)
(4.06101 1.14519e-19 -0.780158)
(4.09169 0 -0.785947)
(4.12238 0 -0.791759)
(4.15294 -2.25298e-19 -0.797547)
(4.1837 0 -0.803391)
(4.2145 2.22324e-19 -0.809245)
(4.24564 -2.20435e-19 -0.815179)
(4.27697 0 -0.82115)
(4.30876 -2.16694e-19 -0.827219)
(4.34091 0 -0.833358)
(4.37364 0 -0.83962)
(4.40694 0 -0.845992)
(4.44097 -4.15306e-19 -0.852515)
(4.47578 -4.10414e-19 -0.859187)
(4.51148 -1.70682e-22 -0.866036)
(4.54813 8.00605e-19 -0.87307)
(4.58584 -1.53142e-22 -0.880311)
(4.62467 0 -0.887767)
(4.66472 0 -0.895466)
(4.70615 7.56886e-19 -0.903431)
(4.74908 -2.46745e-22 -0.911689)
(4.79362 0 -0.92026)
(4.83991 0 -0.929167)
(4.88802 7.10854e-19 -0.938424)
(4.93808 -1.99309e-22 -0.948059)
(4.9902 -1.89037e-22 -0.95809)
(5.04455 0 -0.96855)
(5.10112 0 -0.979435)
(5.16015 1.30132e-18 -0.990796)
(5.22157 -1.27703e-18 -1.00261)
(5.28579 0 -1.01497)
(5.35242 0 -1.02778)
(5.42222 0 -1.04121)
(5.49439 0 -1.05509)
(5.57028 0 -1.06968)
(5.64829 0 -1.08468)
(5.73087 0 -1.10056)
(5.81491 0 -1.11671)
(5.90479 4.23661e-18 -1.13399)
(5.99497 2.07086e-18 -1.15131)
(6.09295 2.02333e-18 -1.17015)
(6.18917 -1.97622e-18 -1.18863)
(6.29619 3.8582e-18 -1.20919)
(6.39834 1.88276e-18 -1.22882)
(6.51539 1.83646e-18 -1.2513)
(6.62329 0 -1.27205)
(6.75137 0 -1.29661)
(6.86486 0 -1.31847)
(7.00491 0 -1.34528)
(7.12405 3.22151e-18 -1.36831)
(7.27711 0 -1.39754)
(7.40223 0 -1.42181)
(7.56968 -2.96225e-18 -1.45369)
(7.70031 0 -1.47913)
(7.88419 5.58772e-18 -1.51405)
(8.01771 -5.41958e-18 -1.5401)
(8.22069 0 -1.57866)
(8.35325 0 -1.60448)
(8.57775 0 -1.6473)
(8.71018 -4.7797e-18 -1.67294)
(8.95538 0 -1.71994)
(9.09461 4.47373e-18 -1.7467)
(9.35364 8.85054e-22 -1.79645)
(9.50719 8.35541e-18 -1.82591)
(9.77022 1.61373e-17 -1.87623)
(9.93335 0 -1.90784)
(10.2112 -7.50611e-18 -1.96024)
(10.3281 -7.22713e-18 -1.98373)
(10.6813 -6.96056e-18 -2.04836)
(10.5404 0 -2.02374)
(11.1113 -6.41886e-18 -2.1173)
(9.53586 0 -1.81085)
(-3.43806 0 -2.57551)
(-2.6125 0 -1.68272)
(-1.75412 -4.38133e-22 -1.15021)
(-0.995684 0 -0.855825)
(-0.355384 3.7855e-22 -0.699982)
(0.184267 -6.35626e-22 -0.620073)
(0.64356 0 -0.583048)
(1.03808 -7.94263e-24 -0.569238)
(1.38212 3.21957e-22 -0.568985)
(1.686 7.18833e-22 -0.576758)
(1.95728 1.07747e-21 -0.589307)
(2.20167 -1.45465e-21 -0.604698)
(2.4236 1.82036e-21 -0.62174)
(2.6265 -4.34008e-21 -0.639678)
(2.81308 0 -0.658023)
(2.98556 -5.70001e-21 -0.676452)
(3.14573 0 -0.694748)
(3.29505 0 -0.712765)
(3.43475 0 -0.730413)
(3.56586 8.05194e-21 -0.747637)
(3.68925 -3.6179e-23 -0.76441)
(3.80568 -3.62503e-23 -0.780713)
(3.9158 9.51928e-21 -0.796538)
(4.02016 0 -0.811885)
(4.11927 0 -0.826762)
(4.21354 0 -0.841183)
(4.30337 4.43792e-20 -0.85516)
(4.38914 -6.42771e-23 -0.868711)
(4.47113 0 -0.881844)
(4.54965 0 -0.89457)
(4.62495 0 -0.906926)
(4.69721 0 -0.91891)
(4.7667 5.0645e-20 -0.930543)
(4.83363 0 -0.941875)
(4.89811 -5.20605e-20 -0.952869)
(4.96046 0 -0.9636)
(5.02078 0 -0.974074)
(5.07914 -5.34326e-20 -0.98425)
(5.13591 0 -0.994256)
(5.19094 0 -1.00399)
(5.2446 5.42707e-20 -1.01354)
(5.29699 -1.08845e-19 -1.02294)
(5.34807 0 -1.03214)
(5.39831 -1.09108e-19 -1.04127)
(5.44745 0 -1.05021)
(5.49596 2.18001e-19 -1.0591)
(5.54369 -1.07102e-22 -1.06786)
(5.59088 0 -1.07657)
(5.63766 0 -1.08524)
(5.68399 -1.07495e-19 -1.09385)
(5.73023 -2.13853e-19 -1.10249)
(5.77621 4.2531e-19 -1.11109)
(5.82234 0 -1.11976)
(5.86845 2.09607e-19 -1.12843)
(5.91492 2.0808e-19 -1.13721)
(5.96157 2.06153e-19 -1.14602)
(6.00875 2.04265e-19 -1.15497)
(6.05636 0 -1.164)
(6.10468 0 -1.17319)
(6.15369 3.96041e-19 -1.18253)
(6.20363 7.83298e-19 -1.19206)
(6.25456 3.87086e-19 -1.20179)
(6.30664 -1.83219e-22 -1.21176)
(6.35995 -3.77372e-19 -1.22196)
(6.41466 -3.72341e-19 -1.23245)
(6.47083 0 -1.24322)
(6.52864 0 -1.25432)
(6.58826 -7.13267e-19 -1.26578)
(6.64988 -1.40467e-18 -1.27764)
(6.71366 0 -1.28992)
(6.77978 -6.80217e-19 -1.30265)
(6.84835 -6.69049e-19 -1.31585)
(6.91956 -6.58012e-19 -1.32957)
(6.99355 -1.29311e-18 -1.34382)
(7.07055 0 -1.35866)
(7.15055 0 -1.37408)
(7.2339 -1.22456e-18 -1.39014)
(7.32047 2.40266e-18 -1.40682)
(7.41086 1.17809e-18 -1.42423)
(7.5045 0 -1.44227)
(7.60247 0 -1.46114)
(7.70363 0 -1.48062)
(7.80991 0 -1.50109)
(7.91898 0 -1.52209)
(8.03441 0 -1.54431)
(8.15165 2.03463e-18 -1.56688)
(8.27707 -4.31731e-22 -1.59102)
(8.40256 -1.94415e-18 -1.61517)
(8.53915 0 -1.64145)
(8.67268 -1.85467e-18 -1.66715)
(8.8218 -1.81063e-18 -1.69583)
(8.96311 0 -1.72304)
(9.12625 1.72261e-18 -1.75439)
(9.27492 3.35862e-18 -1.78305)
(9.4536 0 -1.81732)
(9.60922 0 -1.84739)
(9.80484 0 -1.88483)
(9.96735 3.01927e-18 -1.91634)
(10.1813 0 -1.95717)
(10.3512 0 -1.99027)
(10.5851 -2.77494e-18 -2.03475)
(10.762 2.69388e-18 -2.06938)
(11.0184 0 -2.11799)
(11.1993 0 -2.1535)
(11.4814 0 -2.20697)
(11.6614 0 -2.24223)
(11.9725 0 -2.3015)
(12.1518 5.95122e-22 -2.33637)
(12.4913 0 -2.40145)
(12.6784 -4.18635e-18 -2.4375)
(13.0378 8.09263e-18 -2.5066)
(13.2428 0 -2.54598)
(13.6097 -9.00204e-22 -2.61614)
(13.8256 0 -2.65819)
(14.2177 7.98702e-22 -2.73166)
(14.3648 0 -2.7621)
(14.8755 6.50785e-18 -2.85369)
(14.6658 0 -2.81868)
(15.5107 -5.99912e-18 -2.94951)
(13.5266 0 -2.55925)
(-3.19703 0 -3.10218)
(-2.56596 0 -2.31291)
(-1.82651 0 -1.74537)
(-1.10035 0 -1.37051)
(-0.436967 -3.57561e-22 -1.13408)
(0.15504 5.89796e-23 -0.988968)
(0.68013 0 -0.90179)
(1.14495 7.50232e-24 -0.851354)
(1.55919 0 -0.824688)
(1.93127 -1.38624e-21 -0.813525)
(2.26791 0 -0.812611)
(2.57455 1.37401e-21 -0.818574)
(2.8556 0 -0.829193)
(3.11463 4.09941e-21 -0.842975)
(3.35452 -2.36551e-21 -0.858894)
(3.57768 5.36013e-21 -0.876226)
(3.78608 -5.94404e-21 -0.894453)
(3.98139 -6.5134e-21 -0.913205)
(4.16499 0 -0.932215)
(4.33806 -7.6048e-21 -0.951295)
(4.50163 -8.09422e-21 -0.970312)
(4.65657 -1.7078e-20 -0.989165)
(4.80363 -8.99006e-21 -1.00778)
(4.9435 0 -1.0261)
(5.07676 0 -1.0441)
(5.20392 0 -1.06175)
(5.32545 -2.09223e-20 -1.07903)
(5.44178 -2.1531e-20 -1.09596)
(5.5533 0 -1.11251)
(5.66035 0 -1.12867)
(5.76326 2.30183e-20 -1.14448)
(5.86225 0 -1.15992)
(5.95763 -5.16054e-23 -1.17499)
(6.04968 -4.83494e-20 -1.18977)
(6.13854 4.8958e-20 -1.20418)
(6.22457 0 -1.21831)
(6.30794 0 -1.23217)
(6.3887 5.04318e-20 -1.2457)
(6.46732 0 -1.25903)
(6.54367 0 -1.27206)
(6.6181 -5.12137e-20 -1.28488)
(6.69084 1.02707e-19 -1.29754)
(6.76179 0 -1.30994)
(6.83153 1.02942e-19 -1.32228)
(6.89976 0 -1.33439)
(6.96705 -1.02773e-19 -1.34643)
(7.03323 -1.02545e-19 -1.35832)
(7.09861 0 -1.37015)
(7.16333 -1.01747e-19 -1.38192)
(7.22737 1.01373e-19 -1.39361)
(7.29115 4.03144e-19 -1.40534)
(7.35449 -2.00432e-19 -1.41701)
(7.41787 1.98925e-19 -1.42876)
(7.48111 -1.45961e-22 -1.44051)
(7.54466 0 -1.45237)
(7.60834 -1.94306e-19 -1.46428)
(7.67255 -1.92507e-19 -1.47633)
(7.73718 1.90491e-19 -1.48849)
(7.8026 -1.88518e-19 -1.50083)
(7.86878 -3.73124e-19 -1.51335)
(7.93601 -3.68849e-19 -1.5261)
(8.00436 3.64233e-19 -1.53908)
(8.07406 -3.59879e-19 -1.55235)
(8.14521 0 -1.56591)
(8.21802 0 -1.57981)
(8.29258 -3.454e-19 -1.59406)
(8.36911 0 -1.60871)
(8.44782 0 -1.6238)
(8.52895 6.6084e-19 -1.63937)
(8.6127 0 -1.65546)
(8.69931 6.39975e-19 -1.67211)
(8.78891 1.25853e-18 -1.68934)
(8.88178 0 -1.70721)
(8.97804 6.0795e-19 -1.72575)
(9.07804 0 -1.745)
(9.18172 0 -1.76496)
(9.28956 1.15043e-18 -1.78573)
(9.40136 -1.12895e-18 -1.80726)
(9.51789 -3.12687e-22 -1.82969)
(9.63844 0 -1.8529)
(9.7644 0 -1.87715)
(9.89424 0 -1.90214)
(10.0305 1.01955e-18 -1.92836)
(10.1701 -9.97872e-19 -1.95523)
(10.3178 0 -1.98365)
(10.4675 -3.81938e-18 -2.01244)
(10.6277 -1.86698e-18 -2.04325)
(10.7875 3.64839e-18 -2.07399)
(10.9618 1.78155e-18 -2.10749)
(11.1313 3.47937e-18 -2.1401)
(11.3215 0 -2.17662)
(11.5001 0 -2.21103)
(11.7083 -1.61522e-18 -2.25095)
(11.8954 -3.14873e-18 -2.28703)
(12.1237 3.06716e-18 -2.33072)
(12.3183 0 -2.36837)
(12.5687 0 -2.41615)
(12.7707 -2.82885e-18 -2.4554)
(13.0448 -2.75118e-18 -2.50752)
(13.2548 0 -2.54857)
(13.5543 2.59879e-18 -2.60529)
(13.7723 -2.5225e-18 -2.64816)
(14.0996 0 -2.70993)
(14.3228 0 -2.75395)
(14.6817 0 -2.82163)
(14.9041 0 -2.86541)
(15.2985 0 -2.94023)
(15.5196 4.18539e-18 -2.98334)
(15.9494 0 -3.06555)
(16.1782 0 -3.10962)
(16.6342 0 -3.19717)
(16.8828 -7.30749e-18 -3.24483)
(17.3509 -7.05626e-18 -3.33412)
(17.6091 0 -3.38459)
(18.1168 6.56172e-18 -3.47873)
(18.2796 0 -3.51388)
(18.9558 6.08162e-18 -3.63211)
(18.6697 0 -3.58699)
(19.7926 5.60637e-18 -3.752)
(17.549 0 -3.307)
(-2.83033 -2.47423e-22 -3.56897)
(-2.34279 -2.92848e-23 -2.88698)
(-1.73158 -1.17226e-22 -2.33236)
(-1.08173 -1.83971e-22 -1.9167)
(-0.446825 0 -1.62031)
(0.151404 2.02491e-22 -1.41666)
(0.705271 0 -1.27731)
(1.21129 1.43869e-22 -1.18452)
(1.67353 4.14849e-22 -1.12442)
(2.09689 1.37439e-21 -1.08725)
(2.48596 -1.01142e-21 -1.06627)
(2.84497 1.32003e-21 -1.05688)
(3.1776 0 -1.05583)
(3.48703 0 -1.06087)
(3.77596 2.23105e-21 -1.07036)
(4.04667 -6.22987e-24 -1.08312)
(4.30113 1.81192e-23 -1.09826)
(4.541 2.23738e-23 -1.11512)
(4.76771 0 -1.13321)
(4.9825 0 -1.15218)
(5.18642 0 -1.17173)
(5.38042 1.60433e-20 -1.19165)
(5.56531 8.4152e-21 -1.21178)
(5.74182 0 -1.23198)
(5.91059 0 -1.25216)
(6.07218 1.89861e-20 -1.27224)
(6.22712 0 -1.29217)
(6.37589 0 -1.3119)
(6.5189 0 -1.3314)
(6.65655 0 -1.35062)
(6.7892 -5.40253e-23 -1.36958)
(6.91714 0 -1.38824)
(7.04068 -5.02915e-23 -1.40658)
(7.16017 4.55788e-20 -1.42468)
(7.27576 -9.28019e-23 -1.44245)
(7.38782 0 -1.45995)
(7.49662 0 -1.47721)
(7.60218 0 -1.49413)
(7.70503 0 -1.51088)
(7.80507 0 -1.52731)
(7.90266 0 -1.54353)
(7.99809 0 -1.55959)
(8.09126 -9.66863e-20 -1.57538)
(8.18279 -9.67547e-20 -1.59111)
(8.2724 0 -1.60658)
(8.3607 -9.66054e-20 -1.62199)
(8.44754 0 -1.63723)
(8.53325 0 -1.6524)
(8.61803 1.91576e-19 -1.6675)
(8.70185 0 -1.68253)
(8.78519 -1.89751e-19 -1.69758)
(8.86786 0 -1.71256)
(8.9504 -3.74462e-19 -1.72763)
(9.03262 -1.46494e-22 -1.7427)
(9.11504 0 -1.75789)
(9.19747 0 -1.77312)
(9.28037 0 -1.78852)
(9.36364 -3.58459e-19 -1.80402)
(9.44768 3.54717e-19 -1.81974)
(9.53249 3.50702e-19 -1.83564)
(9.6184 3.46665e-19 -1.85182)
(9.7055 -6.85166e-19 -1.86825)
(9.79407 -3.38196e-19 -1.88501)
(9.88421 0 -1.9021)
(9.9762 0 -1.91957)
(10.0702 1.55382e-22 -1.93745)
(10.1663 0 -1.9558)
(10.265 0 -1.97465)
(10.3664 6.2074e-19 -1.99406)
(10.4707 0 -2.01408)
(10.5784 0 -2.03474)
(10.6895 -1.18227e-18 -2.05608)
(10.8044 5.8094e-19 -2.07816)
(10.9232 0 -2.10101)
(11.0464 0 -2.12471)
(11.1738 0 -2.14923)
(11.3061 -1.08042e-18 -2.1747)
(11.4429 0 -2.20105)
(11.5854 -2.07798e-18 -2.22846)
(11.7324 1.01821e-18 -2.25677)
(11.8859 0 -2.28631)
(12.0438 0 -2.3167)
(12.2094 -9.56725e-19 -2.34856)
(12.3787 2.46681e-22 -2.38114)
(12.5577 -9.15589e-19 -2.41558)
(12.7386 1.79105e-18 -2.4504)
(12.9325 -1.75013e-18 -2.48767)
(13.125 -1.7104e-18 -2.52472)
(13.3357 -1.67036e-18 -2.56519)
(13.5391 -3.66016e-22 -2.60436)
(13.769 0 -2.64847)
(13.9824 1.55181e-18 -2.68963)
(14.2342 0 -2.73785)
(14.4564 0 -2.78079)
(14.733 -2.87334e-18 -2.83363)
(14.9626 0 -2.87816)
(15.2664 0 -2.93601)
(15.5029 0 -2.98213)
(15.836 2.57595e-18 -3.04531)
(16.0801 0 -3.09327)
(16.4438 2.43183e-18 -3.16195)
(16.6965 0 -3.21194)
(17.0927 0 -3.28645)
(17.3517 0 -3.33785)
(17.784 0 -3.41909)
(18.0427 0 -3.47033)
(18.5159 4.0439e-18 -3.55982)
(18.7725 3.91346e-18 -3.61012)
(19.2873 -3.78592e-18 -3.70844)
(19.5507 0 -3.75929)
(20.0978 0 -3.86429)
(20.381 1.36627e-17 -3.91862)
(20.9466 0 -4.02627)
(21.2339 -6.35792e-18 -4.08297)
(21.8581 0 -4.19756)
(22.0192 -5.90126e-18 -4.2349)
(22.8649 -5.68316e-18 -4.3794)
(22.4993 0 -4.32493)
(23.881 5.23731e-18 -4.51863)
(21.5318 0 -4.04446)
(-2.40586 2.32968e-22 -3.99099)
(-2.01816 1.23392e-22 -3.40523)
(-1.51857 1.10409e-22 -2.8878)
(-0.957657 9.35951e-23 -2.46265)
(-0.380396 -8.18233e-23 -2.13024)
(0.190762 0 -1.88214)
(0.74232 0 -1.69592)
(1.26162 -1.35517e-22 -1.56093)
(1.74853 -8.55512e-22 -1.46462)
(2.20401 5.55831e-23 -1.39717)
(2.62988 9.5271e-22 -1.35134)
(3.02851 -1.2434e-21 -1.32174)
(3.40235 1.55208e-21 -1.30442)
(3.75376 0 -1.29642)
(4.08488 0 -1.29556)
(4.39764 -2.37023e-21 -1.3002)
(4.69374 1.0519e-20 -1.30906)
(4.97469 1.15164e-20 -1.32118)
(5.24181 0 -1.33581)
(5.49628 0 -1.35239)
(5.73911 0 -1.37046)
(5.97122 -2.54762e-23 -1.38967)
(6.19342 -1.58244e-20 -1.40973)
(6.40643 8.25937e-21 -1.4304)
(6.6109 1.71941e-20 -1.45153)
(6.80742 -3.57046e-20 -1.47296)
(6.9965 1.84102e-20 -1.49457)
(7.17864 1.8953e-20 -1.51628)
(7.35429 1.94535e-20 -1.53801)
(7.52384 0 -1.55967)
(7.68769 -2.03838e-20 -1.58124)
(7.84616 2.07132e-20 -1.60267)
(7.99955 -2.11046e-20 -1.62392)
(8.14825 -4.27286e-20 -1.64503)
(8.29245 -8.66349e-20 -1.66591)
(8.43248 0 -1.6866)
(8.56869 0 -1.70712)
(8.7011 -4.45162e-20 -1.72735)
(8.83024 0 -1.74745)
(8.95609 4.50442e-20 -1.76727)
(9.07895 4.52261e-20 -1.7869)
(9.1992 0 -1.80641)
(9.31671 1.81862e-19 -1.82566)
(9.43216 9.1054e-20 -1.84487)
(9.54528 0 -1.86383)
(9.65668 9.09032e-20 -1.88274)
(9.76627 9.0596e-20 -1.90147)
(9.87437 0 -1.92014)
(9.98124 -1.80051e-19 -1.93875)
(10.0868 8.95633e-20 -1.95727)
(10.1917 1.78163e-19 -1.97583)
(10.2956 0 -1.99432)
(10.3991 1.53664e-22 -2.01291)
(10.5022 -3.49263e-19 -2.03149)
(10.6052 0 -2.0502)
(10.7081 0 -2.06895)
(10.8113 1.70025e-19 -2.08788)
(10.9148 1.68452e-19 -2.10691)
(11.019 -3.33252e-19 -2.12619)
(11.1239 -3.29667e-19 -2.14566)
(11.2298 -3.25844e-19 -2.16543)
(11.3369 3.21888e-19 -2.18548)
(11.4456 6.35469e-19 -2.20588)
(11.5558 0 -2.22664)
(11.668 0 -2.24783)
(11.7823 6.09888e-19 -2.26947)
(11.899 0 -2.29162)
(12.0183 0 -2.31433)
(12.1407 -5.83005e-19 -2.33767)
(12.2662 0 -2.36166)
(12.3954 5.64134e-19 -2.38639)
(12.5283 2.2725e-22 -2.41186)
(12.6655 -5.45389e-19 -2.43818)
(12.8069 0 -2.46535)
(12.9533 0 -2.49346)
(13.1043 0 -2.5225)
(13.2608 -1.01316e-18 -2.55259)
(13.4224 0 -2.58367)
(13.5902 9.74585e-19 -2.61596)
(13.7632 -1.90993e-18 -2.64923)
(13.9434 0 -2.68389)
(14.1284 0 -2.71949)
(14.3223 0 -2.75677)
(14.5199 2.46725e-22 -2.79482)
(14.7291 8.58335e-19 -2.83501)
(14.9396 1.67798e-18 -2.87553)
(15.1657 1.64029e-18 -2.91896)
(15.3888 -1.60206e-18 -2.96192)
(15.6343 0 -3.00901)
(15.869 -1.52745e-18 -3.05426)
(16.1368 0 -3.10555)
(16.3817 -1.45352e-18 -3.15286)
(16.6754 0 -3.20897)
(16.9286 0 -3.25801)
(17.2518 0 -3.31958)
(17.5112 2.61811e-18 -3.37007)
(17.8671 2.54806e-18 -3.43761)
(18.1319 0 -3.48949)
(18.5225 -2.40989e-18 -3.56331)
(18.7938 2.34118e-18 -3.61693)
(19.2199 -2.2754e-18 -3.69706)
(19.4998 2.20771e-18 -3.75282)
(19.9621 0 -3.83938)
(20.2493 0 -3.89684)
(20.7508 0 -3.99064)
(21.0389 0 -4.04809)
(21.585 -3.78139e-18 -4.15098)
(21.8705 -5.71307e-22 -4.20719)
(22.4635 7.07842e-18 -4.3202)
(22.7536 0 -4.37631)
(23.385 0 -4.49735)
(23.6924 -6.38451e-18 -4.55637)
(24.3508 0 -4.68123)
(24.6521 5.94148e-18 -4.74153)
(25.3925 0 -4.87573)
(25.534 1.1027e-17 -4.91271)
(26.5463 0 -5.08117)
(26.1067 0 -5.01994)
(27.7026 -4.89245e-18 -5.23306)
(25.3912 0 -4.75597)
(-1.96308 0 -4.38033)
(-1.64318 -9.01296e-23 -3.87481)
(-1.23139 0 -3.40326)
(-0.754093 7.49667e-23 -2.98953)
(-0.245677 6.15516e-23 -2.64387)
(0.280088 0 -2.36362)
(0.807173 8.53464e-23 -2.14182)
(1.31652 0 -1.96996)
(1.80681 -9.32542e-23 -1.83875)
(2.27549 -1.43158e-21 -1.73996)
(2.72165 0 -1.66679)
(3.14564 0 -1.61378)
(3.54846 -1.46028e-21 -1.57664)
(3.93136 0 -1.55202)
(4.2957 0 -1.53732)
(4.64284 0 -1.53049)
(4.97406 -4.94465e-21 -1.52995)
(5.29056 -5.41106e-21 -1.53443)
(5.59343 -5.84961e-21 -1.54293)
(5.88366 0 -1.55468)
(6.16215 0 -1.56903)
(6.42971 -7.07005e-21 -1.58548)
(6.68708 7.43077e-21 -1.60361)
(6.93492 -7.76973e-21 -1.6231)
(7.17384 -1.61744e-20 -1.64365)
(7.40438 3.34853e-20 -1.66507)
(7.62705 -4.9318e-23 -1.68714)
(7.84232 -1.78278e-20 -1.70973)
(8.05062 -1.82981e-20 -1.73271)
(8.25233 0 -1.75593)
(8.44785 0 -1.77935)
(8.63751 -1.94813e-20 -1.80288)
(8.82159 0 -1.82643)
(9.00049 4.01848e-20 -1.85003)
(9.17442 4.0695e-20 -1.87358)
(9.34368 -4.10608e-20 -1.89707)
(9.50865 0 -1.92053)
(9.66935 4.18599e-20 -1.9438)
(9.8263 4.20607e-20 -1.96703)
(9.97956 -7.07239e-23 -1.99007)
(10.1294 -8.49763e-20 -2.01299)
(10.2761 0 -2.03586)
(10.4197 -8.54272e-20 -2.05851)
(10.5609 0 -2.08118)
(10.6993 0 -2.10362)
(10.8356 0 -2.12604)
(10.9697 -1.02667e-22 -2.14832)
(11.102 0 -2.17055)
(11.2328 8.45647e-20 -2.19275)
(11.3619 -1.68251e-19 -2.21488)
(11.49 -1.67424e-19 -2.23706)
(11.6169 0 -2.25917)
(11.7432 1.65252e-19 -2.2814)
(11.8687 3.27867e-19 -2.30362)
(11.994 0 -2.32599)
(12.1189 0 -2.3484)
(12.244 -1.59714e-19 -2.37099)
(12.3691 -1.57996e-19 -2.39371)
(12.4948 1.56445e-19 -2.41667)
(12.6211 3.09192e-19 -2.43985)
(12.7484 0 -2.46334)
(12.8768 0 -2.48713)
(13.0066 -1.81806e-22 -2.51129)
(13.138 2.94133e-19 -2.53584)
(13.2713 0 -2.56084)
(13.4068 -2.86173e-19 -2.58631)
(13.5448 0 -2.61234)
(13.6854 0 -2.63897)
(13.8292 0 -2.66628)
(13.9764 0 -2.69429)
(14.1274 -2.39715e-22 -2.72309)
(14.2824 2.27579e-22 -2.7527)
(14.4418 5.11196e-19 -2.78322)
(14.6059 0 -2.81467)
(14.7752 4.93092e-19 -2.84713)
(14.9496 0 -2.88059)
(15.1298 9.50038e-19 -2.9152)
(15.3155 -9.31379e-19 -2.95088)
(15.508 9.13058e-19 -2.98787)
(15.7059 8.95047e-19 -3.02592)
(15.9119 0 -3.0655)
(16.1228 -8.58182e-19 -3.10605)
(16.3437 0 -3.1485)
(16.5681 8.22063e-19 -3.19169)
(16.8058 8.03718e-19 -3.23732)
(17.0439 -1.57193e-18 -3.28317)
(17.3004 0 -3.33237)
(17.5516 3.00056e-18 -3.38079)
(17.8298 0 -3.43407)
(18.0928 -1.42959e-18 -3.48483)
(18.3963 0 -3.54286)
(18.6689 -1.36013e-18 -3.59561)
(19.0023 0 -3.65916)
(19.2816 -2.58362e-18 -3.71345)
(19.6495 2.51629e-18 -3.7833)
(19.9328 -2.45001e-18 -3.8387)
(20.339 -2.38421e-18 -3.91549)
(20.6251 0 -3.9719)
(21.0714 4.50849e-18 -4.05591)
(21.362 -4.37952e-18 -4.11379)
(21.8482 0 -4.20484)
(22.147 -2.06473e-18 -4.26491)
(22.6719 0 -4.36274)
(22.9795 0 -4.42485)
(23.5448 3.76766e-18 -4.53009)
(23.8549 0 -4.59246)
(24.4669 0 -4.70731)
(24.7738 -3.41971e-18 -4.76815)
(25.437 -6.61484e-18 -4.89424)
(25.7453 -3.19689e-18 -4.95408)
(26.4532 0 -5.0896)
(26.7733 0 -5.15129)
(27.5191 0 -5.29208)
(27.8177 0 -5.35327)
(28.6722 -5.35107e-18 -5.50598)
(28.7773 -5.15027e-18 -5.54037)
(29.9439 0 -5.7294)
(29.4462 0 -5.66517)
(31.1915 0 -5.8847)
(29.0372 0 -5.42752)
(-1.52332 3.52642e-22 -4.74683)
(-1.24961 0 -4.30591)
(-0.903908 1.71483e-22 -3.88008)
(-0.498715 0 -3.48884)
(-0.0542485 1.45001e-23 -3.14564)
(0.419612 0 -2.84716)
(0.905881 -8.02142e-23 -2.60134)
(1.39011 4.4984e-22 -2.40042)
(1.86719 1.11027e-21 -2.23869)
(2.33269 -9.19737e-23 -2.1103)
(2.78375 0 -2.00968)
(3.219 0 -1.93192)
(3.63802 0 -1.87287)
(4.04096 0 -1.82908)
(4.42829 0 -1.79777)
(4.80068 0 -1.77666)
(5.1589 4.67446e-21 -1.76391)
(5.50373 -5.09573e-21 -1.75802)
(5.83595 5.49769e-21 -1.75779)
(6.15629 0 -1.76224)
(6.46546 0 -1.77055)
(6.7641 6.61514e-21 -1.78208)
(7.05283 6.94899e-21 -1.79627)
(7.3322 7.26366e-21 -1.81269)
(7.60272 0 -1.83094)
(7.86489 -1.57107e-20 -1.85074)
(8.11912 -3.2413e-20 -1.87181)
(8.36585 1.66634e-20 -1.89393)
(8.60546 0 -1.91692)
(8.8383 0 -1.94059)
(9.06472 0 -1.96482)
(9.28506 1.82178e-20 -1.98951)
(9.49956 0 -2.01453)
(9.70859 0 -2.03987)
(9.91238 3.80726e-20 -2.0654)
(10.1112 3.85759e-20 -2.09109)
(10.3054 0 -2.11695)
(10.495 3.91787e-20 -2.14278)
(10.6805 -7.89517e-20 -2.16873)
(10.862 -3.97179e-20 -2.19463)
(11.0397 3.98779e-20 -2.22052)
(11.214 0 -2.24647)
(11.3848 0 -2.2723)
(11.5528 0 -2.29823)
(11.7178 8.00373e-20 -2.32401)
(11.8803 0 -2.34983)
(12.0404 -7.987e-20 -2.37557)
(12.1982 -7.95317e-20 -2.4013)
(12.3542 0 -2.42705)
(12.5084 7.89466e-20 -2.45276)
(12.6611 0 -2.47855)
(12.8124 0 -2.50431)
(12.9628 1.54841e-19 -2.5302)
(13.1122 -1.43251e-22 -2.55611)
(13.2611 -1.52424e-19 -2.58219)
(13.4093 0 -2.60831)
(13.5576 0 -2.63464)
(13.7057 1.48279e-19 -2.6611)
(13.8541 0 -2.68782)
(14.003 -2.90138e-19 -2.71478)
(14.1526 0 -2.74206)
(14.3033 0 -2.76964)
(14.4552 -5.59086e-19 -2.79762)
(14.6086 -5.51686e-19 -2.826)
(14.7639 -2.71981e-19 -2.85485)
(14.9213 0 -2.8842)
(15.0811 0 -2.91413)
(15.2436 -2.60198e-19 -2.94469)
(15.4093 -5.12301e-19 -2.97597)
(15.5783 0 -3.00799)
(15.7513 -4.96044e-19 -3.04083)
(15.9283 4.87657e-19 -3.07452)
(16.11 -4.79211e-19 -3.10917)
(16.2965 4.705e-19 -3.14479)
(16.4884 -4.62159e-19 -3.1815)
(16.6855 0 -3.21925)
(16.8889 0 -3.25821)
(17.0978 8.72715e-19 -3.29829)
(17.3141 -1.71062e-18 -3.33978)
(17.5358 0 -3.38235)
(17.7663 0 -3.42658)
(18.0016 8.0383e-19 -3.47179)
(18.248 0 -3.51907)
(18.4973 0 -3.56704)
(18.7616 -7.52602e-19 -3.61772)
(19.025 -1.47095e-18 -3.66844)
(19.3097 0 -3.72298)
(19.5863 -1.40428e-18 -3.77631)
(19.8949 0 -3.83531)
(20.1825 1.33803e-18 -3.89092)
(20.5195 -1.30487e-18 -3.95517)
(20.8152 1.27278e-18 -4.01258)
(21.186 1.24021e-18 -4.08302)
(21.4861 5.99375e-22 -4.14159)
(21.8965 -2.35404e-18 -4.21921)
(22.197 0 -4.27835)
(22.6516 2.22908e-18 -4.36388)
(22.9511 -2.16748e-18 -4.42344)
(23.4513 -2.10792e-18 -4.51712)
(23.7526 4.09445e-18 -4.57776)
(24.2961 0 -4.67905)
(24.6052 -1.92964e-18 -4.7419)
(25.1882 0 -4.85004)
(25.5082 0 -4.91537)
(26.1308 -3.5217e-18 -5.03068)
(26.4556 0 -5.09666)
(27.1252 0 -5.22176)
(27.446 3.19463e-18 -5.28587)
(28.1705 5.43346e-22 -5.4232)
(28.4879 5.13108e-22 -5.48515)