/*--------------------------------*- C++ -*----------------------------------*\
| =========                 |                                                 |
| \\      /  F ield         | OpenFOAM: The Open Source CFD Toolbox           |
|  \\    /   O peration     | Version:  2412                                  |
|   \\  /    A nd           | Website:  www.openfoam.com                      |
|    \\/     M anipulation  |                                                 |
\*---------------------------------------------------------------------------*/
FoamFile
{
    version     2.0;
    format      ascii;
    arch        "LSB;label=32;scalar=64";
    class       volVectorField;
    location    "0.09";
    object      U_0;
}
// * * * * * * * * * * * * * * * * * * * * * * * * * * * * * * * * * * * * * //

dimensions      [0 1 -1 0 0 0 0];

internalField   nonuniform List<vector> 
12600
(
(-1.63152 1.47853e-22 -0.559812)
(-0.749789 -1.13642e-21 -0.0755572)
(-0.322824 -9.40711e-22 0.000361318)
(-0.122179 0 -0.00179091)
(0.00614866 -7.02807e-22 -0.0141819)
(0.102128 -5.47857e-22 -0.0265634)
(0.178445 0 -0.0372055)
(0.240482 0 -0.0467997)
(0.29264 -5.24766e-22 -0.0553816)
(0.337357 0 -0.0630429)
(0.376282 1.14812e-21 -0.0699079)
(0.410597 1.58033e-21 -0.076092)
(0.441165 -1.99944e-21 -0.0816934)
(0.46863 0 -0.0867949)
(0.493491 -2.78347e-21 -0.0914646)
(0.516139 0 -0.0957588)
(0.536886 1.40561e-20 -0.0997241)
(0.555986 0 -0.103399)
(0.573643 -8.3312e-21 -0.106815)
(0.590026 -8.96297e-21 -0.109999)
(0.60528 9.53622e-21 -0.112978)
(0.619524 2.53514e-23 -0.115769)
(0.632862 0 -0.118391)
(0.645383 -2.20941e-20 -0.12086)
(0.657163 0 -0.123189)
(0.668266 0 -0.125389)
(0.678756 -2.46036e-20 -0.127472)
(0.688702 0 -0.129392)
(0.698142 -4.20965e-23 -0.131195)
(0.70712 2.65321e-20 -0.132916)
(0.715665 2.70832e-20 -0.134559)
(0.723801 2.75853e-20 -0.136125)
(0.731585 -2.80384e-20 -0.137632)
(0.739031 -5.68898e-20 -0.139077)
(0.746163 -5.76167e-20 -0.140459)
(0.753043 5.83138e-20 -0.141802)
(0.759652 0 -0.143091)
(0.766029 -5.92881e-20 -0.144337)
(0.772223 0 -0.145556)
(0.778194 6.00178e-20 -0.146726)
(0.784023 0 -0.147875)
(0.789704 -8.8241e-23 -0.148995)
(0.795239 0 -0.150086)
(0.800702 -7.94265e-23 -0.151168)
(0.806044 1.21441e-19 -0.152225)
(0.811347 -1.21278e-19 -0.153278)
(0.816573 1.2116e-19 -0.154312)
(0.821771 0 -0.155343)
(0.826947 0 -0.15637)
(0.8321 1.2001e-19 -0.157392)
(0.83729 2.38912e-19 -0.158422)
(0.842481 2.37642e-19 -0.15945)
(0.847742 -9.89627e-23 -0.160493)
(0.853041 2.34572e-19 -0.161541)
(0.858438 0 -0.162609)
(0.863903 -2.31161e-19 -0.163689)
(0.869488 -2.29229e-19 -0.164791)
(0.875175 -2.27117e-19 -0.165912)
(0.881006 0 -0.16706)
(0.886977 0 -0.168234)
(0.893124 0 -0.169441)
(0.899455 4.3618e-19 -0.170683)
(0.905992 0 -0.171964)
(0.912748 0 -0.173285)
(0.919741 -8.41638e-19 -0.174652)
(0.926984 0 -0.176065)
(0.934498 0 -0.17753)
(0.942316 0 -0.179052)
(0.95046 7.97485e-19 -0.180636)
(0.958957 -7.86013e-19 -0.182287)
(0.967829 -7.7438e-19 -0.18401)
(0.977094 -1.51713e-22 -0.185806)
(0.986776 7.5073e-19 -0.187682)
(0.996896 0 -0.189641)
(1.00749 -7.26662e-19 -0.19169)
(1.01856 0 -0.193829)
(1.03015 0 -0.196067)
(1.04225 0 -0.198402)
(1.05494 -2.17976e-22 -0.200849)
(1.06815 -1.33089e-18 -0.203393)
(1.08202 -1.30613e-18 -0.206065)
(1.09639 1.28118e-18 -0.208832)
(1.11154 1.25638e-18 -0.211748)
(1.12715 0 -0.21475)
(1.14371 0 -0.217934)
(1.1606 -2.36472e-18 -0.221179)
(1.17867 4.63036e-18 -0.224654)
(1.19687 -4.53214e-18 -0.228149)
(1.21662 -2.21708e-18 -0.231944)
(1.23613 0 -0.235689)
(1.25772 4.23878e-18 -0.239837)
(1.27856 -2.07113e-18 -0.243835)
(1.30216 2.02258e-18 -0.248369)
(1.32432 -3.94969e-18 -0.25262)
(1.35012 0 -0.257572)
(1.37362 0 -0.26208)
(1.40177 0 -0.267473)
(1.42667 0 -0.272223)
(1.4574 0 -0.278114)
(1.48376 0 -0.283137)
(1.51743 3.29575e-18 -0.289592)
(1.54503 6.40727e-18 -0.294852)
(1.58215 6.23092e-18 -0.301969)
(1.61028 0 -0.307332)
(1.65147 0 -0.315228)
(1.6793 0 -0.320539)
(1.72506 5.5314e-18 -0.329302)
(1.7531 1.07208e-17 -0.334656)
(1.80307 -5.19281e-18 -0.344221)
(1.83308 0 -0.349948)
(1.88547 9.72933e-18 -0.359983)
(1.9189 0 -0.366365)
(1.97162 9.09291e-18 -0.376477)
(2.00726 -8.77791e-18 -0.383278)
(2.0621 8.47514e-18 -0.393835)
(2.08894 8.16633e-18 -0.39893)
(2.15516 -7.87228e-18 -0.411829)
(2.12918 4.80922e-22 -0.406768)
(2.22565 -7.27031e-18 -0.425392)
(1.84899 0 -0.353323)
(-3.00118 -1.49904e-22 -1.29062)
(-1.78745 0 -0.398553)
(-0.975115 9.54036e-22 -0.15928)
(-0.455205 0 -0.109951)
(-0.0870661 7.12961e-22 -0.111366)
(0.193597 9.12514e-22 -0.127396)
(0.418189 2.6612e-22 -0.146995)
(0.60245 0 -0.167046)
(0.758578 -3.29429e-23 -0.186321)
(0.893419 -7.41942e-22 -0.204404)
(1.01158 1.17437e-21 -0.221212)
(1.11638 1.60024e-21 -0.236794)
(1.21026 -2.01614e-21 -0.251245)
(1.29506 2.4196e-21 -0.264668)
(1.3722 5.63388e-21 -0.277165)
(1.44281 0 -0.288827)
(1.50779 -4.02943e-23 -0.299734)
(1.56786 7.76189e-21 -0.309956)
(1.62362 8.45323e-21 -0.319556)
(1.67556 0 -0.328591)
(1.7241 0 -0.337112)
(1.7696 1.01945e-20 -0.345164)
(1.81235 0 -0.352785)
(1.85263 1.11889e-20 -0.360009)
(1.89065 -2.31924e-20 -0.36687)
(1.92661 0 -0.373392)
(1.96071 2.48087e-20 -0.379606)
(1.99311 0 -0.38549)
(2.02394 -2.62642e-20 -0.391091)
(2.05332 -5.36691e-20 -0.396455)
(2.08138 -5.47744e-20 -0.401598)
(2.10817 -2.79215e-20 -0.406523)
(2.13385 2.83722e-20 -0.411264)
(2.15848 1.14984e-19 -0.415831)
(2.18213 1.16424e-19 -0.420216)
(2.20496 0 -0.424473)
(2.22696 0 -0.428583)
(2.2482 9.59644e-23 -0.432555)
(2.26884 0 -0.43644)
(2.28878 -6.05899e-20 -0.440187)
(2.30824 0 -0.443855)
(2.32722 -1.21995e-19 -0.447444)
(2.3457 0 -0.450941)
(2.36393 -1.22292e-19 -0.454404)
(2.38174 0 -0.457788)
(2.39939 1.22117e-19 -0.461151)
(2.41676 0 -0.46446)
(2.434 0 -0.467751)
(2.45113 -1.20966e-19 -0.471026)
(2.46814 0 -0.474281)
(2.48521 0 -0.477554)
(2.50223 0 -0.480818)
(2.51942 -2.36869e-19 -0.484119)
(2.53667 -4.70172e-19 -0.487432)
(2.55417 0 -0.490798)
(2.57183 0 -0.494194)
(2.58979 2.2915e-19 -0.497653)
(2.60801 2.27103e-19 -0.50116)
(2.62662 0 -0.504746)
(2.64561 0 -0.508405)
(2.66507 0 -0.512159)
(2.68504 0 -0.516011)
(2.70558 4.29288e-19 -0.519974)
(2.72674 -4.23888e-19 -0.524056)
(2.74856 8.36883e-19 -0.528267)
(2.77108 0 -0.532615)
(2.79438 0 -0.537113)
(2.81854 0 -0.541778)
(2.84364 -2.95542e-22 -0.546626)
(2.86974 7.78488e-19 -0.551668)
(2.89693 7.66266e-19 -0.55692)
(2.92525 -1.50761e-18 -0.56239)
(2.95478 -2.40049e-22 -0.568092)
(2.98558 7.2871e-19 -0.57404)
(3.01775 7.16317e-19 -0.580253)
(3.05129 0 -0.58673)
(3.08636 0 -0.593501)
(3.12289 0 -0.600554)
(3.16115 -1.33069e-18 -0.607939)
(3.20089 0 -0.615609)
(3.24257 0 -0.623655)
(3.28573 -1.2539e-18 -0.631982)
(3.33114 -1.22832e-18 -0.640749)
(3.37789 0 -0.649767)
(3.42741 0 -0.659324)
(3.47788 0 -0.669058)
(3.53185 -4.50658e-18 -0.679473)
(3.58611 4.53235e-22 -0.689938)
(3.64501 -2.15276e-18 -0.701303)
(3.70305 2.1031e-18 -0.712494)
(3.7674 -4.10749e-18 -0.724911)
(3.82919 -2.00449e-18 -0.736827)
(3.89957 -3.91156e-18 -0.750399)
(3.96506 0 -0.763037)
(4.04201 0 -0.777863)
(4.11117 0 -0.791227)
(4.19523 0 -0.807394)
(4.26817 -3.43407e-18 -0.821501)
(4.35999 0 -0.839132)
(4.43688 0 -0.854041)
(4.5374 3.15958e-18 -0.873306)
(4.61783 -3.0688e-18 -0.888936)
(4.72841 -1.19252e-17 -0.910104)
(4.81053 5.78387e-18 -0.92608)
(4.93292 0 -0.949514)
(5.01433 0 -0.965334)
(5.15 0 -0.991375)
(5.2316 -5.10577e-18 -1.00718)
(5.37983 4.94198e-18 -1.03571)
(5.4663 0 -1.0524)
(5.62244 -1.84863e-17 -1.08247)
(5.71829 -8.92901e-18 -1.10097)
(5.87614 -1.72494e-17 -1.13129)
(5.97836 0 -1.15112)
(6.14365 0 -1.18263)
(6.21927 7.72765e-18 -1.19756)
(6.42424 0 -1.23602)
(6.34403 7.15115e-18 -1.22128)
(6.66238 6.866e-18 -1.27695)
(5.6306 0 -1.07588)
(-3.45091 0 -1.97252)
(-2.39402 0 -1.0139)
(-1.4805 4.70233e-22 -0.591238)
(-0.776181 0 -0.415601)
(-0.230709 0 -0.347901)
(0.204209 -4.90672e-22 -0.32747)
(0.561268 -2.52238e-22 -0.329318)
(0.860052 0 -0.340662)
(1.1162 -2.9638e-23 -0.35649)
(1.33948 7.03248e-22 -0.374315)
(1.53669 -2.23263e-21 -0.392834)
(1.71279 -1.51679e-21 -0.411368)
(1.87149 5.96627e-24 -0.429557)
(2.01562 -2.29339e-21 -0.447213)
(2.14737 -2.66232e-21 -0.464243)
(2.26852 3.00199e-21 -0.480604)
(2.38047 -6.71081e-21 -0.496285)
(2.48437 -7.35665e-21 -0.511292)
(2.58117 0 -0.525644)
(2.67167 0 -0.539372)
(2.75652 9.0662e-21 -0.552507)
(2.8363 9.58452e-21 -0.565081)
(2.91151 0 -0.577123)
(2.98257 0 -0.588662)
(3.04984 2.19775e-20 -0.599727)
(3.11365 0 -0.610346)
(3.17429 -4.6952e-20 -0.62055)
(3.23203 2.41274e-20 -0.630381)
(3.28709 0 -0.639842)
(3.33971 2.53905e-20 -0.648951)
(3.39005 2.59142e-20 -0.657738)
(3.43825 0 -0.666205)
(3.48452 -2.6768e-20 -0.674382)
(3.52899 -5.44019e-20 -0.682303)
(3.57176 -9.23373e-23 -0.689948)
(3.61309 0 -0.697383)
(3.65299 0 -0.704602)
(3.69154 5.66306e-20 -0.711593)
(3.72904 0 -0.718445)
(3.76532 0 -0.725081)
(3.8007 0 -0.731585)
(3.83523 0 -0.737965)
(3.86888 0 -0.744189)
(3.90201 0 -0.750361)
(3.9344 0 -0.756392)
(3.96642 -1.1534e-19 -0.762388)
(3.99794 1.15108e-19 -0.76829)
(4.02915 0 -0.774156)
(4.06012 1.14444e-19 -0.779991)
(4.09083 0 -0.785787)
(4.12156 0 -0.791605)
(4.15216 -2.2517e-19 -0.7974)
(4.18294 0 -0.803249)
(4.21378 2.2221e-19 -0.809109)
(4.24495 -2.20323e-19 -0.815049)
(4.27631 0 -0.821024)
(4.30812 -2.16594e-19 -0.827098)
(4.3403 0 -0.833242)
(4.37306 0 -0.839508)
(4.40638 0 -0.845885)
(4.44043 -4.15151e-19 -0.852411)
(4.47526 -4.1028e-19 -0.859087)
(4.51097 -1.70731e-22 -0.86594)
(4.54765 8.00369e-19 -0.872978)
(4.58538 -1.53164e-22 -0.880222)
(4.62422 0 -0.887682)
(4.66429 0 -0.895384)
(4.70574 7.56716e-19 -0.903353)
(4.74868 -2.46829e-22 -0.911614)
(4.79324 0 -0.920188)
(4.83955 0 -0.929098)
(4.88767 7.10726e-19 -0.938358)
(4.93775 -1.9937e-22 -0.947996)
(4.98988 -1.89068e-22 -0.958029)
(5.04424 0 -0.968491)
(5.10082 0 -0.979379)
(5.15987 1.30116e-18 -0.990743)
(5.22131 -1.2769e-18 -1.00256)
(5.28553 0 -1.01492)
(5.35218 0 -1.02774)
(5.42198 0 -1.04116)
(5.49417 0 -1.05504)
(5.57006 0 -1.06964)
(5.64808 0 -1.08464)
(5.73068 0 -1.10052)
(5.81473 0 -1.11667)
(5.90462 4.23648e-18 -1.13395)
(5.9948 2.07082e-18 -1.15128)
(6.09279 2.0233e-18 -1.17011)
(6.18902 -1.97622e-18 -1.1886)
(6.29604 3.85822e-18 -1.20917)
(6.39821 1.88279e-18 -1.2288)
(6.51526 1.8365e-18 -1.25127)
(6.62318 0 -1.27203)
(6.75126 0 -1.29659)
(6.86476 0 -1.31845)
(7.00481 0 -1.34527)
(7.12397 3.2217e-18 -1.36829)
(7.27703 0 -1.39752)
(7.40216 0 -1.4218)
(7.56961 -2.96249e-18 -1.45368)
(7.70025 0 -1.47912)
(7.88413 5.58822e-18 -1.51404)
(8.01768 -5.42011e-18 -1.5401)
(8.22065 0 -1.57865)
(8.35324 0 -1.60448)
(8.57774 0 -1.6473)
(8.71018 -4.78027e-18 -1.67294)
(8.95539 0 -1.71994)
(9.09462 4.4743e-18 -1.7467)
(9.35367 8.85336e-22 -1.79645)
(9.50721 8.35656e-18 -1.82592)
(9.77027 1.61395e-17 -1.87624)
(9.93342 0 -1.90785)
(10.2112 -7.50724e-18 -1.96025)
(10.3283 -7.22824e-18 -1.98375)
(10.6813 -6.96165e-18 -2.04837)
(10.5406 0 -2.02378)
(11.1114 -6.41992e-18 -2.11731)
(9.53582 0 -1.81084)
(-3.45028 0 -2.57693)
(-2.62406 0 -1.6833)
(-1.76486 -4.44885e-22 -1.15024)
(-1.00562 0 -0.855506)
(-0.364521 3.87218e-22 -0.699429)
(0.175756 -6.51994e-22 -0.61935)
(0.635531 0 -0.582236)
(1.03054 9.30399e-24 -0.568387)
(1.37502 3.04154e-22 -0.568119)
(1.67929 7.00773e-22 -0.575891)
(1.95092 1.05918e-21 -0.588447)
(2.19564 -1.43649e-21 -0.603849)
(2.41786 1.80235e-21 -0.620906)
(2.62102 -4.30488e-21 -0.638861)
(2.80786 0 -0.657226)
(2.98057 -5.66655e-21 -0.675675)
(3.14095 0 -0.693992)
(3.29047 0 -0.71203)
(3.43036 0 -0.729699)
(3.56165 8.02124e-21 -0.746945)
(3.68521 -3.60508e-23 -0.763739)
(3.80181 -3.61274e-23 -0.780063)
(3.91207 9.49157e-21 -0.795909)
(4.01658 0 -0.811276)
(4.11583 0 -0.826172)
(4.21023 0 -0.840612)
(4.30019 4.42831e-20 -0.854609)
(4.38608 -6.42118e-23 -0.868179)
(4.46819 0 -0.88133)
(4.54682 0 -0.894074)
(4.62223 0 -0.906447)
(4.6946 0 -0.918447)
(4.76418 5.05697e-20 -0.930096)
(4.83121 0 -0.941444)
(4.89579 -5.19931e-20 -0.952454)
(4.95823 0 -0.9632)
(5.01864 0 -0.973688)
(5.07708 -5.33736e-20 -0.983878)
(5.13393 0 -0.993897)
(5.18904 0 -1.00364)
(5.24277 5.42166e-20 -1.01321)
(5.29524 -1.08744e-19 -1.02263)
(5.34638 0 -1.03183)
(5.39669 -1.09014e-19 -1.04097)
(5.4459 0 -1.04992)
(5.49447 2.17827e-19 -1.05883)
(5.54225 -1.07187e-22 -1.0676)
(5.58951 0 -1.07632)
(5.63634 0 -1.085)
(5.68272 -1.07425e-19 -1.09362)
(5.72901 -2.13726e-19 -1.10226)
(5.77504 4.25068e-19 -1.11087)
(5.82121 0 -1.11955)
(5.86736 2.09499e-19 -1.12823)
(5.91387 2.07974e-19 -1.13701)
(5.96057 2.06057e-19 -1.14584)
(6.00779 2.04171e-19 -1.15479)
(6.05543 0 -1.16383)
(6.10378 0 -1.17302)
(6.15283 3.95893e-19 -1.18237)
(6.2028 7.83005e-19 -1.19191)
(6.25376 3.8696e-19 -1.20164)
(6.30586 -1.83251e-22 -1.21161)
(6.3592 -3.77261e-19 -1.22182)
(6.41393 -3.72229e-19 -1.23231)
(6.47013 0 -1.24309)
(6.52796 0 -1.2542)
(6.58761 -7.13106e-19 -1.26566)
(6.64926 -1.40435e-18 -1.27752)
(6.71306 0 -1.2898)
(6.7792 -6.80078e-19 -1.30254)
(6.84779 -6.68928e-19 -1.31574)
(6.91902 -6.57893e-19 -1.32947)
(6.99303 -1.29291e-18 -1.34373)
(7.07005 0 -1.35857)
(7.15007 0 -1.37399)
(7.23344 -1.22441e-18 -1.39005)
(7.32003 2.40242e-18 -1.40673)
(7.41042 1.17797e-18 -1.42415)
(7.50408 0 -1.44219)
(7.60207 0 -1.46106)
(7.70325 0 -1.48055)
(7.80953 0 -1.50102)
(7.91862 0 -1.52202)
(8.03405 0 -1.54424)
(8.15131 2.03454e-18 -1.56681)
(8.27674 -4.31885e-22 -1.59096)
(8.40224 -1.94411e-18 -1.61511)
(8.53884 0 -1.64139)
(8.67239 -1.85467e-18 -1.6671)
(8.82151 -1.81064e-18 -1.69577)
(8.96284 0 -1.72299)
(9.12598 1.72265e-18 -1.75433)
(9.27467 3.35872e-18 -1.783)
(9.45335 0 -1.81727)
(9.60899 0 -1.84735)
(9.8046 0 -1.88478)
(9.96714 3.01944e-18 -1.9163)
(10.1811 0 -1.95712)
(10.351 0 -1.99023)
(10.5849 -2.77516e-18 -2.03471)
(10.7618 2.69411e-18 -2.06935)
(11.0182 0 -2.11795)
(11.1992 0 -2.15347)
(11.4812 0 -2.20694)
(11.6613 0 -2.24221)
(11.9724 0 -2.30147)
(12.1517 5.95292e-22 -2.33634)
(12.4912 0 -2.40143)
(12.6782 -4.18688e-18 -2.43748)
(13.0377 8.0937e-18 -2.50658)
(13.2427 0 -2.54596)
(13.6096 -9.0045e-22 -2.61613)
(13.8255 0 -2.65818)
(14.2176 7.98941e-22 -2.73165)
(14.3648 0 -2.7621)
(14.8754 6.50888e-18 -2.85367)
(14.666 0 -2.8187)
(15.5107 -6.00011e-18 -2.94951)
(13.5264 0 -2.55922)
(-3.20968 0 -3.10371)
(-2.57828 0 -2.31379)
(-1.83828 0 -1.74572)
(-1.1115 0 -1.37049)
(-0.447423 -3.65747e-22 -1.13377)
(0.145149 5.91155e-23 -0.98835)
(0.67066 0 -0.901045)
(1.13596 -8.78821e-24 -0.850533)
(1.55065 0 -0.823817)
(1.92313 -1.3522e-21 -0.812623)
(2.26015 0 -0.811691)
(2.56714 1.35685e-21 -0.817646)
(2.84852 0 -0.828265)
(3.10784 4.06616e-21 -0.842053)
(3.34802 -2.34928e-21 -0.857981)
(3.57144 5.32849e-21 -0.875326)
(3.78009 -5.91313e-21 -0.893569)
(3.97563 -6.48315e-21 -0.912338)
(4.15945 0 -0.931367)
(4.33273 -7.57582e-21 -0.950467)
(4.4965 -8.06612e-21 -0.969504)
(4.65162 -1.70238e-20 -0.988378)
(4.79887 -8.9639e-21 -1.00701)
(4.93892 0 -1.02535)
(5.07234 0 -1.04337)
(5.19966 0 -1.06104)
(5.32134 -2.08769e-20 -1.07835)
(5.43783 -2.1487e-20 -1.09529)
(5.54949 0 -1.11186)
(5.65668 0 -1.12805)
(5.75972 2.29789e-20 -1.14387)
(5.85884 0 -1.15933)
(5.95434 -5.1533e-23 -1.17443)
(6.04651 -4.82789e-20 -1.18922)
(6.13549 4.88942e-20 -1.20365)
(6.22163 0 -1.2178)
(6.30511 0 -1.23168)
(6.38598 5.03761e-20 -1.24522)
(6.4647 0 -1.25857)
(6.54114 0 -1.27161)
(6.61567 -5.11626e-20 -1.28445)
(6.6885 1.02612e-19 -1.29712)
(6.75954 0 -1.30954)
(6.82936 1.02853e-19 -1.32189)
(6.89768 0 -1.33401)
(6.96504 -1.0269e-19 -1.34607)
(7.0313 -1.02473e-19 -1.35797)
(7.09675 0 -1.36981)
(7.16154 -1.0168e-19 -1.38159)
(7.22564 1.01308e-19 -1.3933)
(7.28949 4.02905e-19 -1.40503)
(7.35289 -2.00318e-19 -1.41671)
(7.41633 1.98816e-19 -1.42847)
(7.47962 -1.45998e-22 -1.44023)
(7.54323 0 -1.45211)
(7.60695 -1.94216e-19 -1.46402)
(7.67121 -1.92418e-19 -1.47609)
(7.73589 1.90412e-19 -1.48825)
(7.80135 -1.88438e-19 -1.5006)
(7.86757 -3.72985e-19 -1.51312)
(7.93484 -3.68711e-19 -1.52588)
(8.00323 3.64114e-19 -1.53887)
(8.07297 -3.59759e-19 -1.55215)
(8.14415 0 -1.56571)
(8.21699 0 -1.57962)
(8.29159 -3.45309e-19 -1.59387)
(8.36815 0 -1.60853)
(8.44689 0 -1.62362)
(8.52805 6.60689e-19 -1.6392)
(8.61183 0 -1.6553)
(8.69847 6.39845e-19 -1.67195)
(8.7881 1.25831e-18 -1.68919)
(8.88098 0 -1.70707)
(8.97728 6.07855e-19 -1.7256)
(9.07729 0 -1.74486)
(9.181 0 -1.76483)
(9.28886 1.1503e-18 -1.7856)
(9.40068 -1.12883e-18 -1.80713)
(9.51724 -3.12777e-22 -1.82957)
(9.6378 0 -1.85278)
(9.76378 0 -1.87703)
(9.89363 0 -1.90202)
(10.0299 1.01948e-18 -1.92825)
(10.1696 -9.97818e-19 -1.95513)
(10.3173 0 -1.98354)
(10.467 -3.81921e-18 -2.01234)
(10.6272 -1.86692e-18 -2.04315)
(10.787 3.64831e-18 -2.07389)
(10.9613 1.78152e-18 -2.10739)
(11.1308 3.47937e-18 -2.14)
(11.321 0 -2.17653)
(11.4996 0 -2.21094)
(11.7079 -1.61525e-18 -2.25086)
(11.8949 -3.14883e-18 -2.28694)
(12.1232 3.06728e-18 -2.33064)
(12.3179 0 -2.36829)
(12.5683 0 -2.41606)
(12.7703 -2.82902e-18 -2.45532)
(13.0444 -2.75137e-18 -2.50744)
(13.2544 0 -2.54849)
(13.5539 2.59899e-18 -2.60521)
(13.7719 -2.52272e-18 -2.64809)
(14.0992 0 -2.70986)
(14.3225 0 -2.75388)
(14.6813 0 -2.82156)
(14.9037 0 -2.86534)
(15.2982 0 -2.94016)
(15.5192 4.18588e-18 -2.98327)
(15.9491 0 -3.06548)
(16.1779 0 -3.10956)
(16.6339 0 -3.19711)
(16.8825 -7.3085e-18 -3.24477)
(17.3506 -7.05726e-18 -3.33406)
(17.6089 0 -3.38454)
(18.1165 6.5627e-18 -3.47868)
(18.2794 0 -3.51386)
(18.9555 6.08258e-18 -3.63205)
(18.6696 0 -3.58698)
(19.7924 5.6073e-18 -3.75196)
(17.5487 0 -3.30694)
(-2.84305 -2.42216e-22 -3.57055)
(-2.35537 -2.29094e-23 -2.88807)
(-1.74386 -1.24833e-22 -2.33299)
(-1.09357 -1.92723e-22 -1.91699)
(-0.458069 0 -1.62035)
(0.140647 2.09661e-22 -1.41613)
(0.694765 0 -1.27668)
(1.20121 1.28818e-22 -1.1838)
(1.66386 3.99211e-22 -1.12363)
(2.08762 1.34243e-21 -1.08639)
(2.47706 -9.9535e-22 -1.06537)
(2.83641 1.30397e-21 -1.05594)
(3.16938 0 -1.05487)
(3.47912 0 -1.0599)
(3.76834 2.21573e-21 -1.06939)
(4.03933 -6.25928e-24 -1.08215)
(4.29405 1.81502e-23 -1.09729)
(4.53417 2.2351e-23 -1.11416)
(4.76112 0 -1.13227)
(4.97613 0 -1.15125)
(5.18027 0 -1.17082)
(5.37448 1.59924e-20 -1.19076)
(5.55957 8.39069e-21 -1.2109)
(5.73628 0 -1.23112)
(5.90524 0 -1.25132)
(6.06701 1.89415e-20 -1.27142)
(6.22213 0 -1.29137)
(6.37107 0 -1.31112)
(6.51424 0 -1.33064)
(6.65205 0 -1.34988)
(6.78485 -5.39673e-23 -1.36886)
(6.91294 0 -1.38754)
(7.03662 -5.02357e-23 -1.4059)
(7.15625 4.55124e-20 -1.42402)
(7.27198 -9.29552e-23 -1.44181)
(7.38417 0 -1.45933)
(7.49309 0 -1.47661)
(7.59878 0 -1.49355)
(7.70175 0 -1.51031)
(7.80191 0 -1.52676)
(7.8996 0 -1.543)
(7.99514 0 -1.55907)
(8.08841 -9.6601e-20 -1.57488)
(8.18004 -9.66707e-20 -1.59063)
(8.26976 0 -1.60611)
(8.35814 -9.65281e-20 -1.62154)
(8.44508 0 -1.63679)
(8.53087 0 -1.65197)
(8.61574 1.91449e-19 -1.66709)
(8.69964 0 -1.68213)
(8.78306 -1.89638e-19 -1.69719)
(8.86579 0 -1.71219)
(8.94841 -3.74258e-19 -1.72727)
(9.03069 -1.46537e-22 -1.74235)
(9.11318 0 -1.75755)
(9.19567 0 -1.77279)
(9.27863 0 -1.7882)
(9.36195 -3.58311e-19 -1.80371)
(9.44604 3.54567e-19 -1.81943)
(9.5309 3.50571e-19 -1.83535)
(9.61687 3.46536e-19 -1.85153)
(9.70401 -6.84941e-19 -1.86797)
(9.79262 -3.38083e-19 -1.88474)
(9.88281 0 -1.90184)
(9.97484 0 -1.91932)
(10.0688 1.55417e-22 -1.93721)
(10.165 0 -1.95556)
(10.2637 0 -1.97442)
(10.3651 6.20597e-19 -1.99384)
(10.4696 0 -2.01386)
(10.5772 0 -2.03452)
(10.6884 -1.18206e-18 -2.05587)
(10.8033 5.80835e-19 -2.07796)
(10.9221 0 -2.10082)
(11.0453 0 -2.12452)
(11.1728 0 -2.14905)
(11.3051 -1.0803e-18 -2.17451)
(11.442 0 -2.20087)
(11.5845 -2.07778e-18 -2.22829)
(11.7315 1.01811e-18 -2.2566)
(11.885 0 -2.28614)
(12.0429 0 -2.31653)
(12.2085 -9.56657e-19 -2.3484)
(12.3778 2.46775e-22 -2.38099)
(12.5569 -9.15546e-19 -2.41542)
(12.7378 1.79097e-18 -2.45024)
(12.9317 -1.75008e-18 -2.48752)
(13.1242 -1.71036e-18 -2.52457)
(13.3349 -1.67033e-18 -2.56504)
(13.5383 -3.66145e-22 -2.60422)
(13.7682 0 -2.64833)
(13.9817 1.55184e-18 -2.68949)
(14.2335 0 -2.73772)
(14.4557 0 -2.78065)
(14.7323 -2.87345e-18 -2.83349)
(14.9619 0 -2.87803)
(15.2657 0 -2.93588)
(15.5022 0 -2.98201)
(15.8353 2.57612e-18 -3.04518)
(16.0795 0 -3.09315)
(16.4431 2.43202e-18 -3.16182)
(16.6959 0 -3.21181)
(17.0921 0 -3.28633)
(17.351 0 -3.33773)
(17.7833 0 -3.41897)
(18.0421 0 -3.47021)
(18.5152 4.04436e-18 -3.55971)
(18.7719 3.91392e-18 -3.61001)
(19.2868 -3.78639e-18 -3.70833)
(19.5501 0 -3.75918)
(20.0972 0 -3.86418)
(20.3804 1.36646e-17 -3.91851)
(20.946 0 -4.02616)
(21.2334 -6.35886e-18 -4.08287)
(21.8575 0 -4.19745)
(22.0188 -5.90217e-18 -4.23483)
(22.8643 -5.68405e-18 -4.37929)
(22.499 0 -4.32488)
(23.8805 5.23817e-18 -4.51853)
(21.5312 0 -4.04436)
(-2.41846 2.28065e-22 -3.99258)
(-2.03074 1.10848e-22 -3.40644)
(-1.53101 1.17574e-22 -2.88863)
(-0.969878 9.21642e-23 -2.46321)
(-0.391967 -9.44979e-23 -2.13075)
(0.179645 0 -1.88159)
(0.731092 0 -1.69543)
(1.25078 -1.2134e-22 -1.56037)
(1.73806 -8.26063e-22 -1.46395)
(2.1939 5.5603e-23 -1.39641)
(2.62012 9.3757e-22 -1.3505)
(3.01907 -1.22827e-21 -1.32085)
(3.39322 1.53708e-21 -1.30348)
(3.74493 0 -1.29545)
(4.07634 0 -1.29458)
(4.38937 -2.35614e-21 -1.2992)
(4.68573 1.0464e-20 -1.30805)
(4.96694 1.14628e-20 -1.32017)
(5.23431 0 -1.33481)
(5.489 0 -1.3514)
(5.73206 0 -1.36948)
(5.96439 -2.53738e-23 -1.38869)
(6.1868 -1.57783e-20 -1.40876)
(6.40002 8.23712e-21 -1.42946)
(6.60469 1.71509e-20 -1.4506)
(6.8014 -3.56206e-20 -1.47204)
(6.99067 1.837e-20 -1.49368)
(7.17299 1.89141e-20 -1.5154)
(7.34882 1.94161e-20 -1.53715)
(7.51854 0 -1.55883)
(7.68256 -2.03489e-20 -1.58042)
(7.84119 2.06799e-20 -1.60187)
(7.99474 -2.10732e-20 -1.62314)
(8.14359 -4.26664e-20 -1.64427)
(8.28794 -8.65212e-20 -1.66517)
(8.42812 0 -1.68588)
(8.56447 0 -1.70642)
(8.69702 -4.44667e-20 -1.72666)
(8.82629 0 -1.74678)
(8.95227 4.49987e-20 -1.76662)
(9.07525 4.51811e-20 -1.78627)
(9.19563 0 -1.8058)
(9.31326 1.81702e-19 -1.82507)
(9.42882 9.0975e-20 -1.8443)
(9.54205 0 -1.86327)
(9.65355 9.08305e-20 -1.88219)
(9.76326 9.05316e-20 -1.90094)
(9.87145 0 -1.91962)
(9.97841 -1.79932e-19 -1.93825)
(10.0841 8.95054e-20 -1.95679)
(10.189 1.78056e-19 -1.97537)
(10.293 0 -1.99387)
(10.3967 1.53734e-22 -2.01247)
(10.4998 -3.49082e-19 -2.03106)
(10.6029 0 -2.04978)
(10.7058 0 -2.06854)
(10.8091 1.69947e-19 -2.08748)
(10.9127 1.68383e-19 -2.10653)
(11.0169 -3.33111e-19 -2.12581)
(11.1218 -3.29544e-19 -2.1453)
(11.2279 -3.25722e-19 -2.16507)
(11.335 3.21782e-19 -2.18513)
(11.4437 6.35256e-19 -2.20554)
(11.554 0 -2.22631)
(11.6663 0 -2.24751)
(11.7806 6.09728e-19 -2.26915)
(11.8974 0 -2.29131)
(12.0167 0 -2.31403)
(12.1391 -5.82871e-19 -2.33737)
(12.2647 0 -2.36138)
(12.3939 5.64019e-19 -2.38611)
(12.5269 2.27327e-22 -2.41159)
(12.664 -5.4529e-19 -2.43791)
(12.8055 0 -2.46509)
(12.9519 0 -2.49321)
(13.103 0 -2.52225)
(13.2595 -1.01304e-18 -2.55235)
(13.4211 0 -2.58343)
(13.589 9.74487e-19 -2.61572)
(13.7619 -1.90976e-18 -2.649)
(13.9422 0 -2.68366)
(14.1272 0 -2.71927)
(14.3211 0 -2.75655)
(14.5188 2.46824e-22 -2.7946)
(14.7279 8.58295e-19 -2.8348)
(14.9385 1.67791e-18 -2.87532)
(15.1646 1.64024e-18 -2.91875)
(15.3877 -1.60203e-18 -2.96172)
(15.6332 0 -3.0088)
(15.868 -1.52745e-18 -3.05406)
(16.1357 0 -3.10535)
(16.3807 -1.45354e-18 -3.15266)
(16.6743 0 -3.20877)
(16.9276 0 -3.25782)
(17.2507 0 -3.31939)
(17.5102 2.61822e-18 -3.36989)
(17.8661 2.54818e-18 -3.43742)
(18.1309 0 -3.48931)
(18.5215 -2.41005e-18 -3.56312)
(18.7929 2.34135e-18 -3.61675)
(19.2189 -2.27558e-18 -3.69688)
(19.4988 2.2079e-18 -3.75264)
(19.9611 0 -3.8392)
(20.2484 0 -3.89666)
(20.7499 0 -3.99046)
(21.038 0 -4.04792)
(21.5841 -3.78182e-18 -4.1508)
(21.8696 -5.7148e-22 -4.20702)
(22.4626 7.07929e-18 -4.32002)
(22.7527 0 -4.37614)
(23.3841 0 -4.49718)
(23.6915 -6.38539e-18 -4.5562)
(24.3499 0 -4.68107)
(24.6513 5.94235e-18 -4.74138)
(25.3916 0 -4.87556)
(25.5333 1.10287e-17 -4.91259)
(26.5454 0 -5.081)
(26.1062 0 -5.01984)
(27.7018 -4.89325e-18 -5.2329)
(25.3904 0 -4.75582)
(-1.97546 0 -4.38188)
(-1.65561 -8.39775e-23 -3.87606)
(-1.24383 0 -3.40418)
(-0.766559 8.40675e-23 -2.99012)
(-0.257002 8.5971e-23 -2.64407)
(0.268944 0 -2.36371)
(0.795347 7.93058e-23 -2.14167)
(1.30519 0 -1.96961)
(1.79583 -9.30828e-23 -1.83825)
(2.26482 -1.40328e-21 -1.73933)
(2.71128 0 -1.66606)
(3.13557 0 -1.61297)
(3.53866 -1.44617e-21 -1.57577)
(3.92183 0 -1.5511)
(4.28644 0 -1.53636)
(4.63384 0 -1.52951)
(4.96532 -4.91876e-21 -1.52894)
(5.28206 -5.38583e-21 -1.53341)
(5.58516 -5.8251e-21 -1.54191)
(5.87562 0 -1.55365)
(6.15433 0 -1.568)
(6.42211 -7.04767e-21 -1.58446)
(6.67969 7.40911e-21 -1.6026)
(6.92774 -7.7488e-21 -1.62209)
(7.16686 -1.61338e-20 -1.64266)
(7.3976 3.34064e-20 -1.66409)
(7.62046 -4.92955e-23 -1.68618)
(7.83592 -1.77912e-20 -1.70878)
(8.0444 -1.82629e-20 -1.73177)
(8.24629 0 -1.75501)
(8.44199 0 -1.77845)
(8.63182 -1.945e-20 -1.80199)
(8.81607 0 -1.82556)
(8.99513 4.01263e-20 -1.84918)
(9.16922 4.06414e-20 -1.87275)
(9.33863 -4.10088e-20 -1.89626)
(9.50376 0 -1.91974)
(9.66461 4.18133e-20 -1.94302)
(9.8217 4.20137e-20 -1.96627)
(9.9751 -7.08122e-23 -1.98933)
(10.125 -8.4892e-20 -2.01227)
(10.2719 0 -2.03515)
(10.4157 -8.53518e-20 -2.05783)
(10.5569 0 -2.08051)
(10.6955 0 -2.10297)
(10.8319 0 -2.12541)
(10.9661 -1.02878e-22 -2.1477)
(11.0985 0 -2.16995)
(11.2294 8.45088e-20 -2.19217)
(11.3587 -1.68142e-19 -2.21431)
(11.4869 -1.67324e-19 -2.2365)
(11.6138 0 -2.25863)
(11.7402 1.65161e-19 -2.28087)
(11.8658 3.27697e-19 -2.3031)
(11.9912 0 -2.32549)
(12.1162 0 -2.34791)
(12.2413 -1.5964e-19 -2.37052)
(12.3665 -1.5793e-19 -2.39324)
(12.4923 1.56379e-19 -2.41622)
(12.6187 3.09077e-19 -2.43941)
(12.746 0 -2.46291)
(12.8744 0 -2.48671)
(13.0043 -1.81761e-22 -2.51088)
(13.1358 2.94046e-19 -2.53543)
(13.2692 0 -2.56044)
(13.4047 -2.86098e-19 -2.58592)
(13.5427 0 -2.61196)
(13.6834 0 -2.6386)
(13.8273 0 -2.66591)
(13.9745 0 -2.69394)
(14.1255 -2.39737e-22 -2.72274)
(14.2805 2.27667e-22 -2.75236)
(14.44 5.11104e-19 -2.78288)
(14.6041 0 -2.81434)
(14.7735 4.93019e-19 -2.84681)
(14.9479 0 -2.88028)
(15.1281 9.49924e-19 -2.91489)
(15.3138 -9.31283e-19 -2.95057)
(15.5064 9.12966e-19 -2.98757)
(15.7043 8.94966e-19 -3.02562)
(15.9103 0 -3.0652)
(16.1213 -8.58123e-19 -3.10576)
(16.3422 0 -3.14821)
(16.5667 8.22019e-19 -3.19141)
(16.8043 8.03681e-19 -3.23704)
(17.0424 -1.57186e-18 -3.28289)
(17.2989 0 -3.33209)
(17.5502 3.0005e-18 -3.38052)
(17.8284 0 -3.4338)
(18.0914 -1.42958e-18 -3.48457)
(18.3949 0 -3.54259)
(18.6675 -1.36015e-18 -3.59536)
(19.0009 0 -3.65889)
(19.2803 -2.5837e-18 -3.71319)
(19.6481 2.51639e-18 -3.78304)
(19.9315 -2.45012e-18 -3.83845)
(20.3376 -2.38433e-18 -3.91523)
(20.6237 0 -3.97164)
(21.0701 4.50878e-18 -4.05565)
(21.3607 -4.37983e-18 -4.11354)
(21.8469 0 -4.20459)
(22.1457 -2.06491e-18 -4.26466)
(22.6705 0 -4.36249)
(22.9782 0 -4.4246)
(23.5435 3.76804e-18 -4.52985)
(23.8536 0 -4.59222)
(24.4656 0 -4.70707)
(24.7725 -3.42012e-18 -4.76791)
(25.4358 -6.61565e-18 -4.894)
(25.744 -3.19729e-18 -4.95385)
(26.4519 0 -5.08936)
(26.7721 0 -5.15105)
(27.5178 0 -5.29185)
(27.8166 0 -5.35306)
(28.6709 -5.35188e-18 -5.50575)
(28.7764 -5.15106e-18 -5.54018)
(29.9426 0 -5.72916)
(29.4453 0 -5.66501)
(31.1904 0 -5.8845)
(29.0361 0 -5.42732)
(-1.53545 3.48287e-22 -4.74833)
(-1.2618 0 -4.30718)
(-0.916087 1.6349e-22 -3.88105)
(-0.510712 0 -3.48947)
(-0.0658302 2.75689e-24 -3.14557)
(0.40789 0 -2.84779)
(0.894172 -7.45369e-23 -2.60148)
(1.37863 4.36292e-22 -2.40028)
(1.85596 1.08355e-21 -2.23836)
(2.32171 -9.18006e-23 -2.10983)
(2.77301 0 -2.00909)
(3.20851 0 -1.93123)
(3.62778 0 -1.87209)
(4.03095 0 -1.82824)
(4.41852 0 -1.79688)
(4.79115 0 -1.77573)
(5.14959 4.65015e-21 -1.76294)
(5.49465 -5.07209e-21 -1.75703)
(5.82709 5.47465e-21 -1.75679)
(6.14764 0 -1.76122)
(6.45702 0 -1.76952)
(6.75587 6.59422e-21 -1.78104)
(7.0448 6.92872e-21 -1.79524)
(7.32437 7.24403e-21 -1.81165)
(7.5951 0 -1.82992)
(7.85745 -1.56737e-20 -1.84972)
(8.11188 -3.2342e-20 -1.8708)
(8.35879 1.66292e-20 -1.89293)
(8.59858 0 -1.91593)
(8.8316 0 -1.93961)
(9.05821 0 -1.96386)
(9.27872 1.81883e-20 -1.98856)
(9.49339 0 -2.01359)
(9.70259 0 -2.03895)
(9.90654 3.8022e-20 -2.0645)
(10.1055 3.85271e-20 -2.0902)
(10.2998 0 -2.11608)
(10.4896 3.91348e-20 -2.14193)
(10.6753 -7.88636e-20 -2.1679)
(10.8569 -3.96776e-20 -2.19381)
(11.0347 3.98384e-20 -2.21972)
(11.2092 0 -2.24569)
(11.3802 0 -2.27154)
(11.5483 0 -2.29748)
(11.7134 7.99745e-20 -2.32328)
(11.876 0 -2.34911)
(12.0362 -7.98131e-20 -2.37487)
(12.1942 -7.94742e-20 -2.40061)
(12.3503 0 -2.42638)
(12.5046 7.88956e-20 -2.45211)
(12.6574 0 -2.47791)
(12.8088 0 -2.50368)
(12.9593 1.54756e-19 -2.52959)
(13.1088 -1.43305e-22 -2.55551)
(13.2577 -1.52346e-19 -2.5816)
(13.4061 0 -2.60774)
(13.5544 0 -2.63408)
(13.7026 1.48217e-19 -2.66055)
(13.8511 0 -2.68729)
(14.0001 -2.9003e-19 -2.71425)
(14.1498 0 -2.74154)
(14.3005 0 -2.76914)
(14.4525 -5.58899e-19 -2.79713)
(14.606 -5.51522e-19 -2.82552)
(14.7613 -2.71899e-19 -2.85438)
(14.9188 0 -2.88373)
(15.0786 0 -2.91367)
(15.2412 -2.60139e-19 -2.94424)
(15.4069 -5.12183e-19 -2.97553)
(15.576 0 -3.00755)
(15.749 -4.95942e-19 -3.0404)
(15.9261 4.87569e-19 -3.0741)
(16.1078 -4.79125e-19 -3.10876)
(16.2943 4.70426e-19 -3.14439)
(16.4862 -4.62091e-19 -3.18111)
(16.6834 0 -3.21886)
(16.8868 0 -3.25783)
(17.0958 8.72626e-19 -3.29792)
(17.312 -1.71045e-18 -3.3394)
(17.5338 0 -3.38199)
(17.7644 0 -3.42622)
(17.9997 8.03776e-19 -3.47143)
(18.2461 0 -3.51871)
(18.4954 0 -3.56669)
(18.7597 -7.52567e-19 -3.61737)
(19.0232 -1.47088e-18 -3.6681)
(19.3079 0 -3.72264)
(19.5845 -1.40424e-18 -3.77597)
(19.8931 0 -3.83497)
(20.1807 1.33803e-18 -3.89059)
(20.5177 -1.30488e-18 -3.95483)
(20.8135 1.2728e-18 -4.01225)
(21.1842 1.24024e-18 -4.08268)
(21.4843 5.99557e-22 -4.14127)
(21.8947 -2.35413e-18 -4.21887)
(22.1953 0 -4.27803)
(22.6498 2.22919e-18 -4.36355)
(22.9494 -2.1676e-18 -4.42312)
(23.4495 -2.10805e-18 -4.5168)
(23.7509 4.09474e-18 -4.57743)
(24.2944 0 -4.67873)
(24.6035 -1.9298e-18 -4.74158)
(25.1865 0 -4.84972)
(25.5065 0 -4.91505)
(26.1292 -3.52205e-18 -5.03037)
(26.4539 0 -5.09636)
(27.1236 0 -5.22145)
(27.4444 3.19501e-18 -5.28557)
(28.1689 5.43495e-22 -5.42289)
(28.4863 5.13262e-22 -5.48485)
(29.262 2.8858e-18 -5.63301)