/*--------------------------------*- C++ -*----------------------------------*\
| =========                 |                                                 |
| \\      /  F ield         | OpenFOAM: The Open Source CFD Toolbox           |
|  \\    /   O peration     | Version:  2412                                  |
|   \\  /    A nd           | Website:  www.openfoam.com                      |
|    \\/     M anipulation  |                                                 |
\*---------------------------------------------------------------------------*/
FoamFile
{
    version     2.0;
    format      ascii;
    arch        "LSB;label=32;scalar=64";
    class       volVectorField;
    location    "0.365";
    object      U_0;
}
// * * * * * * * * * * * * * * * * * * * * * * * * * * * * * * * * * * * * * //

dimensions      [0 1 -1 0 0 0 0];

internalField   nonuniform List<vector> 
12600
(
(18.8599 1.24228e-21 2.10738)
(11.6882 1.6147e-20 0.456165)
(7.39192 1.89895e-20 -0.478684)
(5.11448 0 -0.7123)
(3.99346 1.71405e-20 -0.685467)
(3.34854 1.59475e-20 -0.610315)
(2.90465 0 -0.542204)
(2.57154 0 -0.486338)
(2.31052 -4.7785e-20 -0.440554)
(2.0993 0 -0.402564)
(1.92406 1.99988e-20 -0.370497)
(1.77582 1.82914e-20 -0.343009)
(1.64844 -1.6738e-20 -0.319143)
(1.53754 0 -0.298196)
(1.43992 -1.39971e-20 -0.279639)
(1.35319 0 -0.263065)
(1.27549 4.69249e-20 -0.248158)
(1.2054 0 -0.234664)
(1.14177 -1.95921e-20 -0.222381)
(1.08369 -1.78953e-20 -0.211143)
(1.03042 1.63135e-20 -0.200816)
(0.981331 5.11826e-24 -0.191286)
(0.935927 0 -0.18246)
(0.893777 -2.44875e-20 -0.174258)
(0.854518 0 -0.166611)
(0.817843 0 -0.159463)
(0.783486 -1.80285e-20 -0.152763)
(0.751219 0 -0.146467)
(0.720844 4.26734e-24 -0.140538)
(0.692185 1.29018e-20 -0.134943)
(0.665092 1.14398e-20 -0.129653)
(0.63943 1.00875e-20 -0.12464)
(0.61508 -8.83708e-21 -0.119884)
(0.591935 -1.5363e-20 -0.115363)
(0.569901 -1.32275e-20 -0.111058)
(0.548892 1.12443e-20 -0.106954)
(0.528832 0 -0.103036)
(0.509652 -7.75833e-21 -0.0992904)
(0.49129 0 -0.0957048)
(0.473689 4.79011e-21 -0.0922683)
(0.456797 0 -0.0889707)
(0.440567 1.77805e-23 -0.0858031)
(0.424955 0 -0.0827566)
(0.409923 1.61605e-23 -0.0798236)
(0.395432 -1.54159e-21 -0.0769969)
(0.38145 3.21629e-21 -0.0742697)
(0.367944 -4.77372e-21 -0.071636)
(0.354887 0 -0.0690904)
(0.342249 0 -0.0666272)
(0.330009 -8.59848e-21 -0.064242)
(0.318139 -1.92652e-20 -0.0619298)
(0.306623 -2.11275e-20 -0.0596869)
(0.295435 1.94454e-23 -0.0575087)
(0.284562 -2.42481e-20 -0.0553924)
(0.27398 0 -0.0533332)
(0.26368 2.6712e-20 -0.0513295)
(0.253639 2.76966e-20 -0.0493765)
(0.243849 2.85411e-20 -0.047473)
(0.234291 0 -0.0456149)
(0.224957 0 -0.0438012)
(0.215831 0 -0.0420283)
(0.206908 -6.15716e-20 -0.0402953)
(0.198172 0 -0.0385992)
(0.189619 0 -0.036939)
(0.181237 1.25755e-19 -0.0353126)
(0.173023 0 -0.0337188)
(0.164969 0 -0.0321565)
(0.157065 0 -0.0306238)
(0.149315 -1.25085e-19 -0.0291209)
(0.141698 1.24334e-19 -0.0276443)
(0.13423 1.23372e-19 -0.0261965)
(0.12688 2.352e-23 -0.0247722)
(0.119673 -1.20879e-19 -0.0233754)
(0.112578 0 -0.0220007)
(0.10562 1.17732e-19 -0.0206527)
(0.0987716 0 -0.0193259)
(0.092073 0 -0.0180285)
(0.0854908 0 -0.0167534)
(0.0791102 2.94709e-23 -0.0155171)
(0.0728478 2.15586e-19 -0.0143048)
(0.0668639 2.11047e-19 -0.0131463)
(0.0609175 -2.06311e-19 -0.0119935)
(0.0551411 -2.01517e-19 -0.0108734)
(0.0491668 0 -0.00971787)
(0.0434438 0 -0.00861376)
(0.0381576 3.73126e-19 -0.00759474)
(0.0333047 -7.26021e-19 -0.00665741)
(0.0286598 7.05694e-19 -0.00575118)
(0.0233975 3.42442e-19 -0.00472807)
(0.018384 0 -0.00376162)
(0.0129357 -6.43848e-19 -0.00271282)
(0.00874393 3.11965e-19 -0.00190969)
(0.00411932 -3.02148e-19 -0.00101995)
(0.000959678 5.84501e-19 -0.000398526)
(-0.00709471 0 0.00114338)
(-0.0138439 0 0.00242523)
(-0.0257339 0 0.004692)
(-0.0283034 0 0.00516335)
(-0.0362262 0 0.00668444)
(-0.0390597 0 0.00720267)
(-0.0536777 -4.69385e-19 0.00996333)
(-0.0456874 -9.19717e-19 0.00831801)
(-0.0383842 -9.02964e-19 0.00679726)
(-0.00341379 0 6.59876e-05)
(0.0114055 0 -0.0026983)
(0.0432564 0 -0.00870297)
(0.0422417 -7.96655e-19 -0.00845642)
(0.0693464 -1.52892e-18 -0.0136585)
(0.065701 7.33264e-19 -0.0129939)
(0.10378 0 -0.0203335)
(0.103141 -1.34551e-18 -0.0202348)
(0.157576 0 -0.0307294)
(0.164835 -1.22652e-18 -0.0320964)
(0.240776 1.16437e-18 -0.0465517)
(0.234751 -1.08647e-18 -0.0450671)
(0.306759 -1.01034e-18 -0.0587458)
(0.262891 9.19548e-19 -0.0502466)
(0.32013 5.33548e-23 -0.0612996)
(0.254549 7.6966e-19 -0.0486452)
(0.378299 0 -0.072733)
(29.3063 -1.25407e-21 4.04454)
(25.2417 0 1.87296)
(20.3542 -1.92193e-20 -0.20909)
(16.162 0 -1.21514)
(13.182 -1.73682e-20 -1.51349)
(11.1251 -3.04583e-20 -1.52489)
(9.64311 -1.40854e-20 -1.44688)
(8.52411 0 -1.34862)
(7.646 3.57206e-22 -1.25262)
(6.93542 -2.18339e-20 -1.16502)
(6.34639 2.00257e-20 -1.08651)
(5.84865 1.83647e-20 -1.01632)
(5.42142 -1.68392e-20 -0.953458)
(5.04995 1.54371e-20 -0.896923)
(4.7234 2.83507e-20 -0.84585)
(4.43363 0 -0.799499)
(4.17442 -6.39103e-23 -0.757244)
(3.9409 2.17078e-20 -0.718559)
(3.72919 1.98772e-20 -0.683003)
(3.53621 0 -0.650201)
(3.35942 0 -0.619836)
(3.19674 1.50569e-20 -0.591636)
(3.04646 0 -0.56537)
(2.90712 1.24135e-20 -0.540839)
(2.77749 -2.2467e-20 -0.517868)
(2.65654 0 -0.496308)
(2.54336 1.82738e-20 -0.476027)
(2.43719 0 -0.456909)
(2.33736 -1.46693e-20 -0.438852)
(2.24327 -2.61384e-20 -0.421766)
(2.15442 -2.31723e-20 -0.405572)
(2.07035 -1.02104e-20 -0.390197)
(1.99067 8.94226e-21 -0.375578)
(1.915 3.11009e-20 -0.361656)
(1.84304 2.67722e-20 -0.348381)
(1.7745 0 -0.335705)
(1.70912 0 -0.323586)
(1.64667 -1.76295e-23 -0.311986)
(1.58694 0 -0.300869)
(1.52974 -4.83581e-21 -0.290203)
(1.4749 0 -0.279959)
(1.42226 -4.59546e-21 -0.270109)
(1.37166 0 -0.26063)
(1.32299 -3.27434e-22 -0.251497)
(1.27612 0 -0.242689)
(1.23093 -3.2386e-21 -0.234187)
(1.18732 0 -0.225971)
(1.14519 0 -0.218027)
(1.10446 7.45417e-21 -0.210337)
(1.06504 0 -0.202888)
(1.02684 0 -0.195665)
(0.989818 0 -0.188656)
(0.953881 2.28384e-20 -0.181847)
(0.918983 4.8589e-20 -0.175231)
(0.885051 0 -0.168792)
(0.852045 0 -0.162526)
(0.819899 -2.76728e-20 -0.156417)
(0.78858 -2.85397e-20 -0.150463)
(0.758026 0 -0.144651)
(0.728214 0 -0.138978)
(0.699086 0 -0.133431)
(0.670628 0 -0.12801)
(0.642785 -6.1896e-20 -0.122703)
(0.615547 6.22767e-20 -0.11751)
(0.58887 -1.2504e-19 -0.112422)
(0.56274 0 -0.107436)
(0.537134 0 -0.102549)
(0.512021 0 -0.0977545)
(0.487404 4.71363e-23 -0.0930534)
(0.463225 -1.23145e-19 -0.0884339)
(0.43952 -1.22081e-19 -0.0839048)
(0.416208 2.41575e-19 -0.0794486)
(0.393351 3.58098e-23 -0.0750794)
(0.370859 -1.17751e-19 -0.0707783)
(0.348814 -1.16057e-19 -0.0665624)
(0.327121 0 -0.0624133)
(0.305916 0 -0.0583572)
(0.285085 0 -0.0543736)
(0.264883 2.1592e-19 -0.0505099)
(0.245063 0 -0.0467208)
(0.22607 0 -0.0430899)
(0.207205 2.0192e-19 -0.0394754)
(0.188858 1.97017e-19 -0.0359588)
(0.170024 0 -0.0323442)
(0.152086 0 -0.0289245)
(0.13545 0 -0.0257548)
(0.120046 7.06655e-19 -0.0228185)
(0.105152 -4.7293e-23 -0.0199497)
(0.0885309 3.32547e-19 -0.0167466)
(0.0729168 -3.22207e-19 -0.0137486)
(0.0560519 6.23945e-19 -0.0105295)
(0.0431609 3.01961e-19 -0.0080739)
(0.0285654 5.84363e-19 -0.00529888)
(0.0182281 0 -0.00324533)
(-0.00657628 0 0.00159348)
(-0.0263606 0 0.00545633)
(-0.0608161 0 0.012019)
(-0.0667099 4.92424e-19 0.0130559)
(-0.0906448 0 0.0176663)
(-0.0972762 0 0.0190608)
(-0.137692 -4.4998e-19 0.0266455)
(-0.107976 4.40498e-19 0.020448)
(-0.0845584 1.72812e-18 0.0152971)
(0.0209548 -8.44842e-19 -0.00516407)
(0.0614015 0 -0.0128396)
(0.156107 0 -0.030662)
(0.151245 0 -0.029596)
(0.235405 7.28158e-19 -0.0457177)
(0.224535 -6.9785e-19 -0.0438276)
(0.342222 0 -0.0665492)
(0.340002 2.55661e-18 -0.0663577)
(0.50714 1.22307e-18 -0.0987098)
(0.524693 2.32679e-18 -0.102355)
(0.74962 0 -0.145438)
(0.719083 0 -0.139129)
(0.929832 -9.56353e-19 -0.179276)
(0.787568 0 -0.151529)
(0.968476 -7.98247e-19 -0.186195)
(0.768711 -7.27051e-19 -0.148576)
(1.1672 0 -0.226068)
(32.0493 0 3.91637)
(31.2318 0 2.83744)
(28.6932 -1.29986e-20 1.03555)
(25.3347 0 -0.378855)
(22.0645 0 -1.22832)
(19.2744 1.51455e-20 -1.65621)
(17.002 1.33389e-20 -1.82591)
(15.1655 0 -1.8579)
(13.6689 4.23104e-22 -1.82408)
(12.4315 2.06846e-20 -1.76125)
(11.3923 -3.77342e-20 -1.68707)
(10.5067 -1.74004e-20 -1.60995)
(9.74237 1.1472e-22 -1.53392)
(9.0752 -1.46278e-20 -1.46083)
(8.48714 -1.3406e-20 -1.39147)
(7.96439 1.22311e-20 -1.3261)
(7.49619 -2.24861e-20 -1.26471)
(7.07405 -2.05712e-20 -1.20713)
(6.69119 0 -1.15315)
(6.34212 0 -1.10251)
(6.02235 1.56306e-20 -1.05497)
(5.72815 1.4237e-20 -1.01028)
(5.45643 0 -0.968221)
(5.20458 0 -0.928583)
(4.97039 2.12888e-20 -0.891172)
(4.75197 0 -0.855812)
(4.54771 -3.46244e-20 -0.822342)
(4.3562 1.5542e-20 -0.790619)
(4.17622 0 -0.760509)
(4.00671 1.23849e-20 -0.731894)
(3.84673 1.09799e-20 -0.704663)
(3.69546 0 -0.678719)
(3.55216 -8.48445e-21 -0.65397)
(3.41619 -1.47381e-20 -0.630334)
(3.28697 1.23104e-23 -0.607737)
(3.16396 0 -0.586108)
(3.04671 0 -0.565385)
(2.93479 7.43921e-21 -0.545509)
(2.82782 0 -0.526428)
(2.72545 0 -0.508092)
(2.62736 0 -0.490454)
(2.53327 0 -0.473473)
(2.44291 0 -0.45711)
(2.35604 0 -0.441328)
(2.27244 0 -0.426093)
(2.19189 3.02172e-21 -0.411374)
(2.11421 -4.49238e-21 -0.397141)
(2.03923 0 -0.383367)
(1.96677 -7.05235e-21 -0.370025)
(1.89669 0 -0.357094)
(1.82885 0 -0.344548)
(1.76312 1.99762e-20 -0.332369)
(1.69937 0 -0.320534)
(1.6375 -2.29574e-20 -0.309029)
(1.57738 2.41475e-20 -0.29783)
(1.51894 0 -0.286928)
(1.46207 2.61568e-20 -0.2763)
(1.40669 0 -0.265938)
(1.35269 0 -0.255821)
(1.30005 0 -0.245946)
(1.24864 5.7205e-20 -0.23629)
(1.19844 5.7901e-20 -0.226852)
(1.14935 2.80554e-23 -0.217613)
(1.10136 -1.17587e-19 -0.208573)
(1.05438 2.46023e-23 -0.199714)
(1.00839 0 -0.191035)
(0.963338 0 -0.182526)
(0.919173 -1.17559e-19 -0.174178)
(0.875894 3.78371e-23 -0.165993)
(0.833403 0 -0.15795)
(0.791756 0 -0.150063)
(0.750814 -1.13887e-19 -0.142303)
(0.710684 2.87449e-23 -0.134696)
(0.671205 2.67965e-23 -0.127206)
(0.632526 0 -0.119867)
(0.594474 0 -0.112645)
(0.557293 -2.11361e-19 -0.105587)
(0.520774 2.07425e-19 -0.098658)
(0.485349 0 -0.0919352)
(0.450595 0 -0.0853429)
(0.417224 0 -0.0790075)
(0.384094 0 -0.0726964)
(0.351859 0 -0.0665471)
(0.318966 0 -0.0602637)
(0.287741 0 -0.0543744)
(0.258678 0 -0.0488925)
(0.231584 -6.64347e-19 -0.0437689)
(0.205242 -3.22479e-19 -0.0386985)
(0.176206 -3.12552e-19 -0.033117)
(0.149202 3.02771e-19 -0.0279525)
(0.12016 -5.8612e-19 -0.0224689)
(0.0980385 -2.8363e-19 -0.0182998)
(0.0724999 -2.74372e-19 -0.0134835)
(0.0540805 0 -0.00971529)
(0.0117581 0 -0.00135069)
(-0.02055 0 0.00502481)
(-0.0765734 0 0.0154431)
(-0.0840361 -4.61975e-19 0.0165208)
(-0.124275 0 0.0242504)
(-0.132306 0 0.0261156)
(-0.195206 4.21914e-19 0.0374833)
(-0.137783 0 0.0246322)
(-0.0972187 -8.0978e-19 0.0148795)
(0.080081 7.91713e-19 -0.019509)
(0.142122 0 -0.0309729)
(0.299993 0 -0.0600628)
(0.289285 0 -0.0576327)
(0.434284 6.81785e-19 -0.0853344)
(0.415534 0 -0.0823886)
(0.617381 -6.26035e-19 -0.121398)
(0.612324 -9.43295e-23 -0.121238)
(0.89704 -1.14466e-18 -0.176435)
(0.918885 -2.17717e-18 -0.18139)
(1.29161 0 -0.252023)
(1.2232 9.62711e-19 -0.237664)
(1.57091 8.94551e-19 -0.302678)
(1.31911 8.13595e-19 -0.253102)
(1.63724 0 -0.313772)
(1.29795 6.79818e-19 -0.25185)
(1.99904 0 -0.389845)
(32.5658 0 2.97402)
(33.1322 0 2.7868)
(32.5784 1.2288e-20 1.73872)
(30.9305 0 0.531735)
(28.6673 -1.23164e-20 -0.479237)
(26.238 2.5047e-20 -1.20698)
(23.9046 0 -1.67352)
(21.7848 -2.18252e-20 -1.93989)
(19.9127 2.09137e-20 -2.07032)
(18.2792 1.8891e-20 -2.11518)
(16.8567 1.77407e-20 -2.10853)
(15.6138 -1.61067e-20 -2.07183)
(14.5219 1.49812e-20 -2.01814)
(13.5565 -2.72827e-20 -1.95536)
(12.6974 0 -1.88824)
(11.9282 -2.30727e-20 -1.81969)
(11.2354 0 -1.75145)
(10.6081 0 -1.68459)
(10.0373 0 -1.61973)
(9.51547 1.61625e-20 -1.5572)
(9.03648 -3.41431e-23 -1.49716)
(8.59512 -2.59908e-23 -1.43968)
(8.18699 1.22247e-20 -1.38474)
(7.80836 0 -1.33227)
(7.45605 0 -1.28218)
(7.12732 0 -1.23437)
(6.81979 3.27324e-20 -1.18873)
(6.53141 -5.937e-24 -1.14514)
(6.26038 0 -1.1035)
(6.00512 0 -1.06369)
(5.76424 0 -1.02561)
(5.53652 0 -0.989166)
(5.32085 1.60489e-20 -0.954253)
(5.11626 0 -0.920787)
(4.92189 -1.20071e-20 -0.888683)
(4.73695 0 -0.857863)
(4.56073 0 -0.828254)
(4.39259 -7.05629e-21 -0.799786)
(4.23196 0 -0.772395)
(4.07832 0 -0.74602)
(3.93118 3.18033e-21 -0.720604)
(3.7901 -4.18337e-21 -0.696094)
(3.65469 0 -0.67244)
(3.52458 -3.59393e-22 -0.649596)
(3.39942 0 -0.627516)
(3.27892 -5.68989e-21 -0.606161)
(3.16276 1.89362e-23 -0.58549)
(3.05071 0 -0.565469)
(2.94249 0 -0.54606)
(2.83789 7.66032e-21 -0.527235)
(2.73668 1.71711e-20 -0.508959)
(2.63869 -3.76961e-20 -0.491208)
(2.5437 0 -0.47395)
(2.45157 -2.16236e-20 -0.457165)
(2.36211 -2.27943e-20 -0.440821)
(2.27519 -2.37816e-20 -0.424905)
(2.19065 -2.46441e-20 -0.409383)
(2.10838 0 -0.394249)
(2.02822 0 -0.379468)
(1.9501 -5.30786e-20 -0.365039)
(1.87386 -1.07888e-19 -0.350927)
(1.79946 -5.46105e-20 -0.337134)
(1.72675 3.01789e-23 -0.32363)
(1.6557 5.54252e-20 -0.310415)
(1.58618 5.56135e-20 -0.297465)
(1.51815 0 -0.284778)
(1.45154 0 -0.272338)
(1.38627 1.10785e-19 -0.260134)
(1.32232 2.20281e-19 -0.248165)
(1.25957 0 -0.236404)
(1.19808 1.08358e-19 -0.224871)
(1.13765 1.07196e-19 -0.213523)
(1.07844 1.0594e-19 -0.202398)
(1.0202 2.08935e-19 -0.191445)
(0.963168 0 -0.180714)
(0.907072 0 -0.170156)
(0.852277 1.98896e-19 -0.159839)
(0.798466 -3.90272e-19 -0.149714)
(0.746249 -1.91172e-19 -0.139885)
(0.695021 0 -0.130249)
(0.645744 0 -0.120967)
(0.596853 0 -0.111714)
(0.549274 0 -0.102689)
(0.501 0 -0.0935252)
(0.455275 0 -0.0849947)
(0.412558 -3.21107e-19 -0.077025)
(0.37248 4.66087e-23 -0.0695123)
(0.333384 3.02789e-19 -0.0619953)
(0.290808 0 -0.0538377)
(0.251557 2.84187e-19 -0.0463665)
(0.209499 2.75073e-19 -0.038512)
(0.177526 0 -0.0325459)
(0.139972 -2.57397e-19 -0.0255237)
(0.112633 -4.97183e-19 -0.0197878)
(0.052174 0 -0.00773771)
(0.00816589 0 0.00104105)
(-0.0682329 0 0.0149635)
(-0.0754409 -4.32994e-19 0.0156914)
(-0.13208 0 0.0265672)
(-0.138398 0 0.0284015)
(-0.220164 3.95217e-19 0.0424424)
(-0.128961 -3.86652e-19 0.0214212)
(-0.0709391 0 0.00650858)
(0.17883 0 -0.0420032)
(0.257825 0 -0.0563234)
(0.479191 0 -0.096445)
(0.460365 0 -0.0922038)
(0.669957 -6.06693e-23 -0.132164)
(0.641961 0 -0.128147)
(0.9323 5.85823e-19 -0.184325)
(0.922039 -1.11939e-18 -0.184085)
(1.32833 0 -0.262965)
(1.34639 6.67692e-23 -0.268026)
(1.86497 0 -0.365549)
(1.74467 2.41589e-23 -0.340412)
(2.22875 0 -0.429749)
(1.85718 -7.60683e-19 -0.356616)
(2.32848 0 -0.446035)
(1.844 6.35542e-19 -0.360287)
(2.87057 0 -0.563941)
(32.6646 0 2.12231)
(33.4218 0 2.24552)
(33.7696 0 1.76787)
(33.4053 0 0.970036)
(32.3798 1.16258e-20 0.123865)
(30.9001 -9.097e-22 -0.629552)
(29.1724 0 -1.23445)
(27.3564 2.06e-20 -1.68142)
(25.5625 0 -1.98755)
(23.8577 -3.51567e-20 -2.18113)
(22.2747 0 -2.29088)
(20.8239 1.52058e-20 -2.34094)
(19.5029 0 -2.34973)
(18.303 2.57591e-20 -2.33061)
(17.2129 -1.17208e-20 -2.29295)
(16.2211 2.16389e-20 -2.24326)
(15.3165 -1.97903e-20 -2.18602)
(14.4892 -1.81486e-20 -2.12431)
(13.7302 0 -2.06025)
(13.032 -1.52618e-20 -1.99532)
(12.3876 -1.39283e-20 -1.93051)
(11.7912 -2.53462e-20 -1.86651)
(11.2378 -1.15434e-20 -1.80378)
(10.7228 0 -1.74262)
(10.2425 0 -1.68321)
(9.79342 0 -1.62567)
(9.37263 -1.54485e-20 -1.57005)
(8.9775 -1.38727e-20 -1.51634)
(8.60574 0 -1.46455)
(8.25531 0 -1.41463)
(7.92439 9.80513e-21 -1.36653)
(7.61138 0 -1.32019)
(7.31482 1.43546e-24 -1.27555)
(7.03342 -1.3179e-20 -1.23254)
(6.76602 1.13509e-20 -1.1911)
(6.51156 0 -1.15115)
(6.26911 0 -1.11263)
(6.03779 6.65987e-21 -1.07547)
(5.81682 0 -1.03961)
(5.6055 0 -1.00499)
(5.40317 -3.00115e-21 -0.971549)
(5.20923 3.94744e-21 -0.939229)
(5.02313 0 -0.907976)
(4.84437 3.39081e-22 -0.877739)
(4.67248 0 -0.848466)
(4.50704 2.67445e-21 -0.820113)
(4.34765 3.98535e-21 -0.792632)
(4.19394 0 -0.765983)
(4.04556 6.23491e-21 -0.740121)
(3.90222 -7.22411e-21 -0.715013)
(3.76359 -3.23542e-20 -0.690616)
(3.62942 1.77579e-20 -0.666902)
(3.49944 -1.91214e-20 -0.64383)
(3.37343 2.53034e-23 -0.621377)
(3.25114 0 -0.599502)
(3.13239 2.24151e-20 -0.57819)
(3.01694 2.32256e-20 -0.557397)
(2.90466 -2.39078e-20 -0.537116)
(2.79531 2.44985e-20 -0.517301)
(2.68881 5.00077e-20 -0.497954)
(2.58493 5.0801e-20 -0.479027)
(2.4836 -5.13776e-20 -0.460526)
(2.38462 5.18662e-20 -0.442407)
(2.28795 0 -0.424676)
(2.1934 0 -0.407296)
(2.10094 5.2357e-20 -0.390268)
(2.01042 0 -0.373569)
(1.92177 0 -0.357186)
(1.83494 -1.03634e-19 -0.341115)
(1.74977 0 -0.325323)
(1.66632 -1.01948e-19 -0.309834)
(1.58435 -2.0165e-19 -0.294594)
(1.50405 0 -0.279652)
(1.4251 -9.82323e-20 -0.264941)
(1.34779 0 -0.250528)
(1.27178 0 -0.23635)
(1.19755 -1.86877e-19 -0.222497)
(1.12467 1.83385e-19 -0.208906)
(1.05391 4.01356e-23 -0.195706)
(0.984492 0 -0.182763)
(0.917607 0 -0.170267)
(0.851298 0 -0.157806)
(0.786772 -1.63566e-19 -0.145644)
(0.721659 1.59262e-19 -0.133374)
(0.660055 0 -0.122018)
(0.602289 6.02803e-19 -0.11136)
(0.547769 2.92795e-19 -0.101229)
(0.49451 -5.68239e-19 -0.0910078)
(0.437184 -2.75265e-19 -0.0800783)
(0.384747 -5.33161e-19 -0.0701582)
(0.328732 0 -0.0598316)
(0.286189 0 -0.0519765)
(0.235463 2.41351e-19 -0.042568)
(0.198476 4.66116e-19 -0.0346105)
(0.119438 -4.49342e-19 -0.0187395)
(0.0648591 0 -0.00776282)
(-0.0306399 0 0.00913492)
(-0.0357346 4.05689e-19 0.00901736)
(-0.108627 3.93132e-19 0.0229552)
(-0.109437 0 0.0240615)
(-0.206289 -3.7013e-19 0.0395366)
(-0.0754699 3.62057e-19 0.00839176)
(-0.000572422 0 -0.0120821)
(0.321828 0 -0.0746557)
(0.412671 0 -0.0905916)
(0.697955 0 -0.14137)
(0.668415 0 -0.134799)
(0.946187 -5.9704e-19 -0.187664)
(0.906692 0 -0.182455)
(1.28949 0 -0.256574)
(1.27032 0 -0.255934)
(1.80122 1.00122e-18 -0.359019)
(1.80555 9.52082e-19 -0.362459)
(2.46776 0 -0.485671)
(2.28154 -8.41711e-19 -0.446832)
(2.90315 0 -0.559688)
(2.4027 -7.11165e-19 -0.461173)
(3.04481 0 -0.582457)
(2.40891 -5.93938e-19 -0.474001)
(3.77594 0 -0.747776)
(32.7337 -4.95552e-21 1.50959)
(33.3159 -6.16123e-21 1.64606)
(33.8426 7.32485e-21 1.45235)
(34.0687 8.26054e-21 0.988341)
(33.8761 0 0.393098)
(33.2758 -9.91382e-21 -0.226171)
(32.3412 0 -0.803531)
(31.1631 1.73869e-20 -1.30183)
(29.8305 1.66149e-20 -1.70551)
(28.4201 3.20335e-20 -2.01493)
(26.9917 -1.47243e-20 -2.23978)
(25.588 1.37294e-20 -2.39357)
(24.2363 0 -2.49029)
(22.9525 0 -2.54262)
(21.744 1.10501e-20 -2.56127)
(20.6126 -1.15314e-22 -2.55482)
(19.5569 1.77181e-22 -2.52996)
(18.5732 1.36754e-22 -2.49181)
(17.657 0 -2.44424)
(16.8034 0 -2.39016)
(16.0075 0 -2.33174)
(15.2646 2.38141e-20 -2.2706)
(14.5701 1.08188e-20 -2.20795)
(13.92 0 -2.14468)
(13.3104 0 -2.08146)
(12.738 1.61103e-20 -2.01878)
(12.1997 0 -1.95699)
(11.6926 0 -1.89635)
(11.2142 0 -1.83703)
(10.7623 0 -1.77916)
(10.3347 -6.47341e-24 -1.7228)
(9.92951 0 -1.66801)
(9.54512 -1.61644e-24 -1.61479)
(9.17996 1.24231e-20 -1.56315)
(8.83263 2.62696e-24 -1.51307)
(8.50185 0 -1.46453)
(8.18646 0 -1.41748)
(7.8854 0 -1.37189)
(7.5977 0 -1.32772)
(7.32247 0 -1.28491)
(7.05889 0 -1.24343)
(6.8062 0 -1.20322)
(6.56372 -1.98156e-21 -1.16423)
(6.33081 -3.55808e-22 -1.12641)
(6.10687 0 -1.08973)
(5.89135 2.48518e-21 -1.05412)
(5.68374 0 -1.01955)
(5.48358 0 -0.985965)
(5.29041 -1.17298e-20 -0.953329)
(5.10384 0 -0.921601)
(4.92346 1.52209e-20 -0.890736)
(4.74896 0 -0.860702)
(4.57995 3.59839e-20 -0.831453)
(4.41618 2.45399e-23 -0.802965)
(4.2573 0 -0.775188)
(4.10308 0 -0.748106)
(3.95322 0 -0.721668)
(3.80753 4.49842e-20 -0.695867)
(3.66572 -4.60931e-20 -0.670648)
(3.52766 -4.69899e-20 -0.646012)
(3.39306 -4.77356e-20 -0.621903)
(3.26183 9.66444e-20 -0.59833)
(3.13369 4.87355e-20 -0.575235)
(3.0086 0 -0.552631)
(2.88631 0 -0.530467)
(2.76675 -2.40593e-23 -0.50875)
(2.64976 0 -0.487445)
(2.53523 0 -0.466541)
(2.42307 -9.73496e-20 -0.44603)
(2.3131 0 -0.425873)
(2.20538 0 -0.406098)
(2.09961 1.89439e-19 -0.38664)
(1.996 -9.35441e-20 -0.367558)
(1.89417 0 -0.348772)
(1.79449 0 -0.330366)
(1.6965 0 -0.312262)
(1.60082 1.75506e-19 -0.294573)
(1.50688 0 -0.27722)
(1.41565 3.37236e-19 -0.260357)
(1.32613 -1.64981e-19 -0.24382)
(1.23976 0 -0.22782)
(1.1542 0 -0.211863)
(1.07096 1.53488e-19 -0.196286)
(0.987395 -2.7592e-23 -0.180666)
(0.908349 1.45365e-19 -0.166271)
(0.833962 -2.82689e-19 -0.152695)
(0.763365 2.74513e-19 -0.139689)
(0.694427 2.66407e-19 -0.126497)
(0.621039 2.58087e-19 -0.112595)
(0.554382 3.58052e-23 -0.100074)
(0.483351 0 -0.087155)
(0.429419 -2.33841e-19 -0.0772922)
(0.364293 0 -0.0653063)
(0.317058 0 -0.0549264)
(0.21917 4.20949e-19 -0.035186)
(0.155457 0 -0.0222991)
(0.0421946 0 -0.00292799)
(0.0411613 0 -0.00430701)
(-0.0475423 -3.68094e-19 0.0125461)
(-0.0383676 0 0.0120375)
(-0.146535 -3.46326e-19 0.0277087)
(0.0294322 0 -0.0152493)
(0.119644 0 -0.0415979)
(0.514296 0 -0.118071)
(0.611428 0 -0.134378)
(0.961074 0 -0.195462)
(0.917795 -5.8262e-19 -0.186013)
(1.26698 -5.58296e-19 -0.252355)
(1.21271 5.34764e-19 -0.245689)
(1.69135 0 -0.338419)
(1.65807 0 -0.336826)
(2.31549 -1.87201e-18 -0.464398)
(2.29449 0 -0.464234)
(3.09807 8.4397e-19 -0.611956)
(2.8323 0 -0.556623)
(3.59431 7.31005e-19 -0.692783)
(2.95677 6.64572e-19 -0.567828)
(3.78799 0 -0.7242)
(2.99431 -5.55003e-19 -0.593877)
(4.70621 0 -0.940167)
(32.7851 4.66676e-21 1.05872)
(33.1952 1.13483e-20 1.14241)
(33.6408 -6.89962e-21 1.0564)
(34.0059 -7.92019e-22 0.790093)
(34.1792 7.47132e-21 0.396853)
(34.1043 0 -0.0613167)
(33.7731 0 -0.535282)
(33.2056 -1.63723e-20 -0.989293)
(32.437 -3.03783e-20 -1.39967)
(31.5096 -7.15783e-22 -1.7533)
(30.4672 1.38636e-20 -2.04566)
(29.3504 -1.29268e-20 -2.27809)
(28.1946 1.16748e-20 -2.45539)
(27.0281 0 -2.58419)
(25.8726 0 -2.67166)
(24.7439 -9.45787e-21 -2.72486)
(23.6526 3.45701e-20 -2.75019)
(22.6052 3.17843e-20 -2.75326)
(21.6052 0 -2.73882)
(20.654 0 -2.71079)
(19.7515 0 -2.67235)
(18.8964 -6.81234e-23 -2.62607)
(18.0871 -2.03211e-20 -2.57399)
(17.3214 9.214e-21 -2.51774)
(16.5969 1.67141e-20 -2.45859)
(15.9112 -3.02883e-20 -2.39755)
(15.2619 1.36351e-20 -2.33542)
(14.6468 1.2256e-20 -2.27281)
(14.0636 1.09753e-20 -2.21021)
(13.5101 0 -2.148)
(12.9845 -8.69706e-21 -2.08644)
(12.4848 7.66427e-21 -2.02577)
(12.0095 -6.7246e-21 -1.96615)
(11.5567 -1.16895e-20 -1.90769)
(11.1252 -2.01477e-20 -1.85048)
(10.7134 0 -1.79457)
(10.3202 0 -1.74)
(9.94429 -5.92802e-21 -1.68679)
(9.58466 0 -1.63493)
(9.24027 3.67807e-21 -1.58443)
(8.91018 2.68611e-21 -1.53526)
(8.59351 0 -1.48741)
(8.28944 3.74488e-21 -1.44083)
(7.99723 3.34838e-22 -1.39551)
(7.71617 0 -1.35141)
(7.44561 -2.33846e-21 -1.30849)
(7.18493 -3.486e-21 -1.26671)
(6.93356 0 -1.22605)
(6.69095 1.10065e-20 -1.18644)
(6.45664 -6.35889e-21 -1.14787)
(6.23012 -1.42644e-20 -1.11028)
(6.011 0 -1.07366)
(5.79881 -2.47121e-23 -1.03794)
(5.59323 3.59867e-20 -1.00311)
(5.39383 0 -0.969108)
(5.20034 0 -0.935927)
(5.01236 -2.04973e-20 -0.903506)
(4.82968 -2.11374e-20 -0.871841)
(4.65191 4.32968e-20 -0.840868)
(4.4789 4.41716e-20 -0.810593)
(4.31028 4.48687e-20 -0.780948)
(4.14595 -4.54015e-20 -0.751948)
(3.98555 -9.15718e-20 -0.723522)
(3.82902 0 -0.69569)
(3.67604 0 -0.668389)
(3.52654 -9.24493e-20 -0.641631)
(3.38029 0 -0.615369)
(3.23715 0 -0.589597)
(3.09702 9.14322e-20 -0.564298)
(2.95966 0 -0.539432)
(2.82513 -8.98776e-20 -0.515028)
(2.69308 -3.21291e-23 -0.491014)
(2.56375 8.78201e-20 -0.467458)
(2.43668 0 -0.444266)
(2.31231 0 -0.42154)
(2.19008 0 -0.399188)
(2.07073 1.64603e-19 -0.377346)
(1.95357 0 -0.355919)
(1.83972 -1.58172e-19 -0.335082)
(1.72801 3.09482e-19 -0.314645)
(1.62005 0 -0.294831)
(1.51324 0 -0.275072)
(1.40934 0 -0.255788)
(1.30554 -2.73785e-23 -0.236563)
(1.20729 -1.36276e-19 -0.218898)
(1.11451 -2.64887e-19 -0.202151)
(1.02602 -2.57286e-19 -0.185995)
(0.939773 2.49579e-19 -0.169558)
(0.848888 0 -0.152481)
(0.766863 2.3409e-19 -0.137202)
(0.679611 0 -0.121568)
(0.61337 2.1903e-19 -0.109571)
(0.532554 0 -0.0948245)
(0.474625 0 -0.0818421)
(0.357784 0 -0.0582416)
(0.286656 -3.7997e-19 -0.0438169)
(0.156935 -3.66708e-19 -0.0225345)
(0.162003 0 -0.0256809)
(0.0582315 3.44381e-19 -0.00617729)
(0.0824442 -3.33607e-19 -0.00933351)
(-0.0335533 3.24049e-19 0.00468976)
(0.192704 -3.16807e-19 -0.0512296)
(0.295664 0 -0.0834924)
(0.761679 0 -0.173474)
(0.859181 0 -0.188801)
(1.27358 0 -0.259812)
(1.21301 5.44801e-19 -0.246883)
(1.63627 5.85936e-23 -0.327154)
(1.56278 -9.99854e-19 -0.318585)
(2.13982 0 -0.430397)
(2.0856 0 -0.427011)
(2.87031 8.74805e-19 -0.579016)
(2.8112 0 -0.572991)
(3.75411 -7.88692e-19 -0.743958)
(3.39604 0 -0.669561)
(4.3029 -1.36611e-18 -0.828935)
(3.52099 0 -0.676628)
(4.55862 0 -0.871094)
(3.60119 5.1846e-19 -0.720176)
(5.64889 0 -1.1392)
(32.8063 0 0.706301)
(33.1071 -5.21672e-21 0.74641)
(33.4436 0 0.693854)
(33.7737 -6.57538e-21 0.527824)
(34.0341 -1.34007e-20 0.263131)
(34.1741 0 -0.0684681)
(34.165 6.68139e-21 -0.435531)
(33.9953 0 -0.811961)
(33.6654 9.10184e-22 -1.17756)
(33.1848 -2.57173e-20 -1.51782)
(32.5694 0 -1.82343)
(31.8394 0 -2.08948)
(31.0171 -1.09808e-20 -2.31437)
(30.1249 0 -2.49883)
(29.1841 0 -2.64515)
(28.2135 0 -2.75658)
(27.2295 -1.6147e-20 -2.83693)
(26.2456 -1.48614e-20 -2.89016)
(25.2725 -1.3467e-20 -2.92017)
(24.3183 0 -2.93061)
(23.3888 0 -2.92479)
(22.4881 -1.0459e-20 -2.90565)
(21.6189 9.5312e-21 -2.87571)
(20.7825 -8.66601e-21 -2.83714)
(19.9795 -1.572e-20 -2.79175)
(19.2099 2.83684e-20 -2.74106)
(18.4731 -5.53256e-23 -2.68634)
(17.7684 -1.15267e-20 -2.62864)
(17.0945 -1.03221e-20 -2.5688)
(16.4504 0 -2.50752)
(15.8348 0 -2.44539)
(15.2463 -7.20772e-21 -2.38286)
(14.6835 0 -2.3203)
(14.1453 1.09927e-20 -2.25801)
(13.6302 9.47183e-21 -2.19624)
(13.1371 -8.06116e-21 -2.13517)
(12.6648 0 -2.07496)
(12.2122 5.57398e-21 -2.0157)
(11.7781 4.47413e-21 -1.9575)
(11.3616 3.47151e-24 -1.90041)
(10.9616 -5.05542e-21 -1.84447)
(10.5773 0 -1.78971)
(10.2078 -1.76739e-21 -1.73614)
(9.85232 0 -1.68378)
(9.51004 0 -1.63261)
(9.18025 0 -1.58263)
(8.86227 1.34517e-23 -1.53381)
(8.55547 0 -1.48614)
(8.25921 -5.16531e-21 -1.43959)
(7.97296 1.19388e-20 -1.39413)
(7.69615 1.34045e-20 -1.34974)
(7.4283 0 -1.30639)
(7.16889 -1.58655e-20 -1.26404)
(6.91752 -3.37661e-20 -1.22267)
(6.67371 0 -1.18222)
(6.43712 0 -1.1427)
(6.20728 1.92542e-20 -1.10403)
(5.98394 1.98172e-20 -1.06622)
(5.76664 -2.0324e-20 -1.02919)
(5.55519 -4.1418e-20 -0.992972)
(5.34914 0 -0.957473)
(5.14838 0 -0.922723)
(4.95246 2.81599e-23 -0.888636)
(4.76131 -4.31923e-20 -0.855242)
(4.57454 0 -0.822464)
(4.39207 4.33793e-20 -0.790324)
(4.21358 0 -0.758762)
(4.03895 0 -0.727775)
(3.868 0 -0.697342)
(3.70048 0 -0.667422)
(3.53643 3.39858e-23 -0.638044)
(3.37544 -3.17621e-23 -0.609129)
(3.21778 -8.23239e-20 -0.580755)
(3.06291 0 -0.552816)
(2.91134 -7.99103e-20 -0.525431)
(2.76242 0 -0.498497)
(2.61699 -1.54348e-19 -0.472168)
(2.47423 1.51336e-19 -0.446339)
(2.33542 -1.4821e-19 -0.421201)
(2.19921 -1.45038e-19 -0.396538)
(2.0674 0 -0.372581)
(1.93713 1.38261e-19 -0.3487)
(1.81046 0 -0.325401)
(1.68445 -1.31227e-19 -0.302298)
(1.56499 -1.27627e-19 -0.281104)
(1.45186 2.48146e-19 -0.260909)
(1.34346 0 -0.241307)
(1.23817 -4.6747e-19 -0.221348)
(1.1282 0 -0.200887)
(1.02953 2.19132e-19 -0.182684)
(0.924687 0 -0.164197)
(0.845126 2.04993e-19 -0.149926)
(0.747268 0 -0.132242)
(0.67836 3.82602e-19 -0.116535)
(0.542598 -3.68739e-19 -0.0891643)
(0.466014 3.55575e-19 -0.0736492)
(0.321046 3.4313e-19 -0.051018)
(0.334395 0 -0.0564264)
(0.216573 -6.44288e-19 -0.0346742)
(0.261344 6.24063e-19 -0.041645)
(0.140703 0 -0.0305871)
(0.42165 2.9629e-19 -0.100932)
(0.53381 0 -0.138966)
(1.0698 0 -0.24192)
(1.16147 -5.5089e-19 -0.254879)
(1.6408 0 -0.335383)
(1.55882 0 -0.318303)
(2.05795 4.87883e-19 -0.41277)
(1.95957 9.34411e-19 -0.401674)
(2.63634 4.47457e-19 -0.532784)
(2.55277 0 -0.526504)
(3.46426 0 -0.702561)
(3.35355 0 -0.6883)
(4.43413 0 -0.88124)
(3.9723 6.86895e-19 -0.785537)
(5.0294 6.3813e-19 -0.968259)
(4.09667 0 -0.788222)
(5.35485 0 -1.02319)
(4.22927 0 -0.852889)
(6.58778 0 -1.34216)
(32.8021 4.15192e-21 0.418396)
(33.0337 0 0.431469)
(33.2892 4.87462e-21 0.387962)
(33.5536 0 0.271861)
(33.7961 5.98843e-21 0.0837137)
(33.9852 0 -0.161753)
(34.0979 -6.27966e-21 -0.445368)
(34.1194 1.14981e-20 -0.749173)
(34.0402 2.34849e-20 -1.058)
(33.8558 7.36268e-22 -1.35986)
(33.5656 0 -1.64575)
(33.1729 0 -1.90945)
(32.6843 0 -2.14711)
(32.109 0 -2.35666)
(31.4579 0 -2.53737)
(30.743 0 -2.68948)
(29.9769 1.4537e-20 -2.81402)
(29.1719 -1.34586e-20 -2.91257)
(28.3395 1.26536e-20 -2.98712)
(27.4905 0 -3.03989)
(26.6339 0 -3.07323)
(25.7779 9.62413e-21 -3.08947)
(24.9287 8.79376e-21 -3.09088)
(24.0917 8.01389e-21 -3.07957)
(23.271 0 -3.0575)
(22.4695 -1.32937e-20 -3.0264)
(21.6896 -2.39178e-20 -2.98783)
(20.9326 1.07295e-20 -2.94315)
(20.1996 0 -2.89354)
(19.4909 0 -2.84001)
(18.8068 0 -2.78343)
(18.1469 6.73611e-21 -2.72454)
(17.5111 0 -2.66396)
(16.8986 0 -2.60221)
(16.3089 8.87133e-21 -2.53973)
(15.7412 7.5727e-21 -2.47689)
(15.1948 0 -2.41399)
(14.6689 5.23143e-21 -2.35129)
(14.1625 -8.40336e-21 -2.28899)
(13.6749 -3.2515e-21 -2.22725)
(13.2053 2.37635e-21 -2.16621)
(12.7529 0 -2.10599)
(12.3168 0 -2.04665)
(11.8964 0 -1.98827)
(11.4908 -9.02535e-22 -1.93088)
(11.0993 0 -1.87454)
(10.7213 3.06422e-21 -1.81925)
(10.3561 3.98353e-21 -1.76503)
(10.003 0 -1.71188)
(9.66156 -5.5987e-21 -1.6598)
(9.33107 0 -1.60878)
(9.01104 0 -1.55881)
(8.70091 -1.48499e-20 -1.50987)
(8.40024 2.14685e-23 -1.46194)
(8.10847 1.66588e-20 -1.41499)
(7.82525 0 -1.36902)
(7.55003 0 -1.32396)
(7.28254 -1.85983e-20 -1.27984)
(7.02224 0 -1.23656)
(6.76894 3.88654e-20 -1.19418)
(6.52209 0 -1.15259)
(6.28157 0 -1.11183)
(6.04686 8.05577e-20 -1.07181)
(5.81789 8.10122e-20 -1.03256)
(5.59415 4.06196e-20 -0.994012)
(5.3756 0 -0.956183)
(5.16182 0 -0.919006)
(4.95269 4.04185e-20 -0.882485)
(4.74797 8.03529e-20 -0.84659)
(4.5474 0 -0.811285)
(4.35096 7.90339e-20 -0.776596)
(4.15823 -7.81496e-20 -0.742443)
(3.96948 7.71732e-20 -0.708911)
(3.7841 -7.60473e-20 -0.675886)
(3.60267 7.48976e-20 -0.643501)
(3.42442 0 -0.611646)
(3.25033 0 -0.580492)
(3.07941 -1.41804e-19 -0.549925)
(2.91312 2.77686e-19 -0.520146)
(2.74992 0 -0.49092)