/*--------------------------------*- C++ -*----------------------------------*\
| =========                 |                                                 |
| \\      /  F ield         | OpenFOAM: The Open Source CFD Toolbox           |
|  \\    /   O peration     | Version:  2412                                  |
|   \\  /    A nd           | Website:  www.openfoam.com                      |
|    \\/     M anipulation  |                                                 |
\*---------------------------------------------------------------------------*/
FoamFile
{
    version     2.0;
    format      ascii;
    arch        "LSB;label=32;scalar=64";
    class       surfaceScalarField;
    location    "1.04";
    object      ddtCorrDdt0(phi);
}
// * * * * * * * * * * * * * * * * * * * * * * * * * * * * * * * * * * * * * //

dimensions      [0 3 -2 0 0 0 0];

oriented        oriented;

internalField   nonuniform List<scalar> 
24930
(
-0.574478
-1.46667
-0.76524
-0.20148
-0.350838
-0.113083
-0.109911
-0.0676176
-0.0523826
-0.0385134
-0.0292089
-0.0202697
-0.0170967
-0.0106971
-0.00705239
-0.00783396
0.00168201
-0.00639944
0.00357749
0.00830194
-0.015777
0.0391427
-0.0373909
0.0628333
-0.0340888
0.0504664
0.00429493
-0.0335929
0.0939936
-0.0277746
-0.0215803
0.0213221
0.0144961
0.0835856
-0.0292735
0.0965193
-0.007193
0.0323994
0.0284905
-0.102674
0.0292529
-0.187074
-0.0348982
0.0451681
-0.315887
0.464601
-0.236725
0.482034
0.445367
-0.508315
1.52732
-0.200091
-0.0738579
-0.175832
-0.386346
0.164609
-0.609363
0.184849
-0.245028
0.0650643
0.0345958
-0.0118928
0.141106
0.00520507
0.0713245
0.0363682
-0.0273034
0.0306512
-0.0508226
0.0106027
-0.0148101
0.00160718
0.0293401
0.0110128
0.037324
0.0227561
0.00432738
0.0205018
-0.0250636
0.0116918
-0.022111
0.00805891
-0.00246695
0.00986588
0.0173337
0.0128859
0.0230751
0.0132312
0.00409117
0.0106637
-0.0111148
0.0082778
-0.0127006
0.00800852
-0.00602197
0.00887833
0.000803334
0.00941018
0.00310733
0.00908924
0.00132016
0.00851881
-0.00253226
0.00840149
-0.00404055
0.00884703
-0.00329004
0.0094928
-0.00189468
0.010064
-0.00171338
0.010321
-0.00220532
0.0103558
-0.00368513
0.0105854
-0.00119583
0.0105676
0.000336919
0.0106466
0.000706588
0.0108304
4.76796e-05
0.0109941
-0.000105908
0.0110847
-0.00140609
0.0111596
-0.00378217
0.0120798
-0.00805234
0.0126354
-0.0126854
0.014569
-0.0194501
0.0157246
-0.00982651
0.0162031
0.0130759
0.0151505
0.134763
0.0156705
0.0701835
0.0157435
0.0338212
0.0140839
0.00638336
0.0129367
0.00366108
0.00817961
-0.0012902
0.00655646
-0.00368976
0.00160293
0.00227684
0.000298569
0.0406865
-0.00262877
0.0774917
-0.0046443
0.0418875
-0.00291238
0.0124458
-0.00395423
0.000571719
-0.00130491
-0.00876159
0.000692097
-0.0080496
0.00114008
-0.00443533
0.00364379
-0.00453713
0.00641805
-0.00939741
0.00426302
-0.00521326
0.00520916
-0.00309551
-0.0041414
0.00394785
0.00555521
-0.00659186
-0.015716
0.0456326
-0.018738
0.00772154
0.0355081
-0.0575145
0.0364436
0.0109726
0.0367688
0.0339812
0.00616319
0.0275029
0.00729237
-0.00195429
0.0127769
-0.00116867
-0.0190648
0.0277001
-0.0059106
-0.0163476
-0.0102351
0.00480002
-0.01146
0.000830145
-0.00170281
-0.0185688
-0.00646152
-0.000212961
-0.00071841
-0.00633729
0.0112639
0.00527316
0.0234219
0.00741585
0.0354684
-0.00603385
0.039622
-0.00396926
0.0459726
-0.00620608
0.0564132
-0.0144933
0.0417661
0.030036
-0.00812712
0.0789235
-0.0470254
0.0394951
-0.056009
0.000554872
-0.044729
-0.0180558
0.00183653
-0.0483025
0.0432581
-0.0419672
-0.00398006
-0.27042
-0.830688
-0.348076
-0.214002
-0.429076
-0.137982
-0.206075
-0.0848691
-0.110094
-0.0489375
-0.0641851
-0.0270185
-0.0417344
-0.0164735
-0.0276875
-0.0108099
-0.0130509
0.0019207
0.00577951
0.0259698
0.0182136
0.0529006
0.0125699
0.0578481
-0.0182145
0.0279978
-0.0605607
0.171972
-0.113383
0.00821361
0.0475789
0.0615852
0.0599196
0.0994335
0.0472915
0.062944
0.006457
-0.0158793
-0.0109956
-0.0932506
0.107574
-0.0559101
0.312051
0.16928
-0.249443
0.401299
-0.889605
0.225984
-0.720567
-0.462952
1.78431
-0.170079
-0.239074
-0.0314962
0.246341
0.209208
0.378552
0.144079
0.607795
0.0282817
0.323922
-0.0130238
0.0587935
0.0215518
-0.0386459
0.0455423
-0.0185949
0.0295043
0.00681372
0.0102686
-0.00655248
0.00645946
-0.0149658
0.0175314
0.00211525
0.0271755
0.0107458
0.0222111
0.00213091
0.0128526
-0.00622848
0.0105197
-0.00926865
0.0129607
-0.00461269
0.0152162
0.00342214
0.0146495
0.00372658
0.0115651
-0.00226964
0.00909157
-0.00656247
0.0089034
-0.00608082
0.00975062
-0.00304535
0.0100805
-0.000784157
0.00948382
-0.0010295
0.00864662
-0.00238289
0.00841399
-0.002827
0.00880213
-0.00178162
0.00932494
-0.00014204
0.00967155
0.000491493
0.00961801
0.00028306
0.00938783
0.000236904
0.00951283
0.000417769
0.0095274
0.000790717
0.00985392
0.00103539
0.0105804
0.000764313
0.0115736
0.000113469
0.0130558
-0.00149975
0.0149945
-0.00380597
0.0182136
-0.00683676
0.0211155
-0.00788327
0.0252001
-0.0104018
0.0278869
-0.01218
0.0287984
-0.0117572
0.0277268
0.197776
0.0265141
0.0200401
0.0236699
0.0113736
0.0169702
0.0159088
0.00986471
0.0148847
-0.00179727
0.0124015
-0.012118
0.0111395
-0.0208663
0.00133076
-0.0273091
0.00623627
-0.0341799
0.0402755
-0.0373519
0.00686726
-0.0340246
-0.00259509
-0.0324452
-0.00762656
-0.0251135
-0.0108917
-0.0184181
-0.0138338
-0.0135444
-0.0109068
-0.0071184
-0.00979699
-0.00269567
-0.00929074
-0.00551509
1.08735e-05
-0.0091621
0.00544732
-0.02733
0.0176582
-0.000164014
-0.0358091
-0.0661283
0.0885599
-0.064848
-0.000949444
0.101764
-0.222939
0.122681
-0.0353979
0.114681
0.0183507
0.0421734
0.0927973
0.0407081
0.004496
0.0540425
-0.0103761
-0.0384339
0.129071
-0.00821159
-0.0442577
-0.0167698
0.0115735
-0.0278984
0.0169562
0.00236157
-0.0449906
-0.0129052
0.0232766
0.003232
-0.0229695
0.044178
-0.0447272
0.0897969
-0.0534915
0.115475
-0.0311669
0.121716
-0.0084149
0.1373
-0.0204066
0.169796
-0.0436004
0.129498
0.0573117
-0.024315
0.218558
-0.150678
0.169298
-0.182085
0.0470149
-0.151464
-0.0427582
-0.0152852
-0.184856
0.128708
-0.19134
-0.0397184
-0.109468
-0.545084
-0.19108
-0.156389
-0.40739
-0.122087
-0.248813
-0.0812298
-0.150113
-0.0481305
-0.092286
-0.0263019
-0.0587013
-0.0154081
-0.0360904
-0.00851131
-0.0161402
0.00608394
0.00289826
0.0311321
0.0148233
0.0546102
0.0075289
0.0508765
-0.0291435
0.00915999
-0.0790859
-0.0168596
-0.0861601
0.0231517
0.0233141
0.0805451
0.0860346
0.106172
0.0801488
0.0361524
0.0120411
-0.0573175
-0.0401557
-0.0804407
0.0823077
0.0996882
0.404117
0.293404
0.0981713
0.23223
-0.988148
-0.129812
-1.56846
-0.214585
1.28314
-0.183798
0.471065
0.112142
0.463339
0.219451
0.886748
0.103172
0.898919
-0.00247085
0.334794
-0.0166703
-0.0325251
0.0295498
-0.0873793
0.0500972
-0.0157407
0.0282531
0.0179156
0.00909991
-0.00635456
0.00779294
-0.0217813
0.0196819
9.19924e-05
0.0286854
0.0138625
0.022679
0.00310138
0.0128143
-0.00810489
0.010861
-0.0108168
0.0136245
-0.00568327
0.0156302
0.00258516
0.0146376
0.00363033
0.0112191
-0.00256591
0.00858941
-0.00726737
0.00836842
-0.00695149
0.009167
-0.00402509
0.00935614
-0.00175945
0.00856349
-0.00165186
0.00751429
-0.002432
0.00710599
-0.00236472
0.00732505
-0.00100079
0.00763707
0.000869903
0.00774169
0.00186684
0.00743536
0.00186836
0.00700294
0.0017892
0.00706244
0.00171404
0.00717874
0.0016715
0.00788471
0.00159583
0.00926756
0.000988259
0.0113445
-0.000443365
0.0144415
-0.0032097
0.0184652
-0.00666349
0.0241727
-0.0104736
0.0295742
-0.0120891
0.0359668
-0.0130761
0.040255
-0.0148861
0.0412811
-0.0179696
0.0401832
0.168072
0.0363821
0.0111586
0.0296922
0.0176119
0.0171937
0.0307917
0.00316979
0.0318825
-0.0160651
0.0297014
-0.0304001
0.0263934
-0.048283
0.0132994
-0.0598477
0.0157505
-0.0701127
0.0174593
-0.0736057
0.0031711
-0.0676347
-0.00846143
-0.062301
-0.0165048
-0.0501761
-0.0220145
-0.037577
-0.0267265
-0.0279487
-0.0226586
-0.0173726
-0.0186522
-0.0114215
-0.0117517
-0.0146943
0.001761
-0.0238263
0.0186704
-0.0504974
0.0398056
-0.00430551
-0.0800772
-0.114417
0.194206
-0.11273
-0.00633305
0.166895
-0.49863
0.211253
-0.0960622
0.196712
0.0323679
0.0880794
0.194584
0.0815676
0.016464
0.100185
-0.0250592
-0.0480815
0.279888
-0.00769273
-0.0823542
-0.0225892
0.0249595
-0.0433372
0.0418773
0.009652
-0.0993794
-0.0174847
0.0528518
0.00865901
-0.0496515
0.0841118
-0.119262
0.154467
-0.122989
0.200882
-0.0735362
0.199015
-0.00641492
0.222187
-0.0439748
0.275369
-0.0956157
0.206664
0.122343
-0.051256
0.480601
-0.259706
0.378955
-0.310355
0.102016
-0.265192
-0.0881543
-0.0486088
-0.401034
0.205584
-0.450478
-0.111834
-0.0281621
-0.387908
-0.150876
-0.096332
-0.349069
-0.0934554
-0.251658
-0.0678245
-0.168553
-0.0403945
-0.109536
-0.0203077
-0.07076
-0.0100958
-0.0436783
-0.00344604
-0.0214961
0.0109284
-0.00408465
0.0340319
0.00358036
0.0523623
-0.00611841
0.0434813
-0.035689
0.00570875
-0.0671154
0.00239895
-0.0495463
0.0402477
0.0254075
0.093261
0.0810232
0.103964
0.068859
0.0210597
0.00635354
-0.0616835
-0.0178332
-0.0444242
0.0890654
0.136673
0.290514
0.27451
-0.00850176
0.108742
-0.964748
-0.348988
-1.6141
0.0032136
0.282608
-0.068033
0.750923
0.207761
0.498192
0.191173
0.705362
0.0489959
0.780272
-0.0300726
0.179055
-0.0178414
-0.134597
0.0377898
-0.1174
0.0543826
-0.00642809
0.0270944
0.0250876
0.00803925
-0.0057545
0.00899021
-0.0238072
0.0213888
6.68515e-05
0.029775
0.0151177
0.0230284
0.00178981
0.012741
-0.0105516
0.0110034
-0.0112752
0.0140112
-0.005224
0.0158195
0.00237782
0.0144333
0.00290584
0.0106941
-0.00358958
0.00790143
-0.00819511
0.00763866
-0.00761766
0.00838925
-0.00467303
0.00844863
-0.00249506
0.00746732
-0.00224222
0.0062199
-0.00260617
0.00563397
-0.00202427
0.00567881
-0.000202377
0.0057855
0.00200085
0.00566922
0.00327696
0.00514398
0.00336063
0.00454789
0.00320975
0.00459931
0.0028384
0.00488759
0.0022726
0.00605565
0.00167176
0.00820969
0.000471232
0.0114755
-0.00218984
0.016328
-0.00670232
0.0226015
-0.0117451
0.030981
-0.0166181
0.0390447
-0.0190199
0.0478666
-0.0193694
0.0537507
-0.0208474
0.0548413
-0.0229881
0.0532517
0.020401
0.0463029
0.0115234
0.0349506
0.0298275
0.0157306
0.0523831
-0.0061015
0.0564159
-0.0336609
0.0544505
-0.0556166
0.0482935
-0.0801947
0.0314155
-0.0965099
0.0306884
-0.109637
0.0177586
-0.112536
0.000932184
-0.103058
-0.0165987
-0.0937558
-0.0296434
-0.0750182
-0.0391732
-0.0562762
-0.0456728
-0.0415907
-0.0394921
-0.0267472
-0.0316701
-0.0193098
-0.0157554
-0.0232644
0.00405371
-0.0379969
0.0371703
-0.0730963
0.0695214
-0.00760816
-0.143084
-0.152796
0.333304
-0.159282
-0.00394337
0.221117
-0.872428
0.298982
-0.192329
0.282819
0.0470693
0.144365
0.325
0.130154
0.0358947
0.15098
-0.0423033
-0.0536788
0.485659
-0.00454391
-0.128596
-0.0282488
0.0465593
-0.0582959
0.0762482
0.018417
-0.177029
-0.019369
0.0932071
0.0166984
-0.0861199
0.131633
-0.220022
0.237604
-0.228144
0.288942
-0.120914
0.271731
0.010909
0.301117
-0.0737208
0.370339
-0.163529
0.26205
0.224674
-0.0962516
0.843467
-0.374969
0.659668
-0.437061
0.169982
-0.384071
-0.140456
-0.0985201
-0.686112
0.269198
-0.822797
-0.232899
0.017847
-0.286054
-0.126773
-0.0463123
-0.285173
-0.060754
-0.231208
-0.047777
-0.168912
-0.0267614
-0.11618
-0.00966338
-0.0784223
-0.00143391
-0.0520412
0.00333718
-0.0308574
0.0160719
-0.0141891
0.036575
-0.00658266
0.0509709
-0.0131742
0.0401347
-0.0309104
0.0104668
-0.0430869
0.0197672
-0.0183729
0.0567799
0.0280423
0.100722
0.0617814
0.101022
0.0397565
0.014272
-0.0106959
-0.0551053
-0.00096214
-0.0153724
0.0942196
0.126801
0.175246
0.19658
-0.130922
0.0229613
-0.78095
-0.254017
-1.02485
0.0446978
0.397527
0.135027
0.996712
0.209198
1.26133
0.109335
0.424083
-0.00718381
0.375354
-0.0524657
-0.0140277
-0.0146087
-0.217677
0.0482214
-0.127551
0.0588988
0.0130204
0.0259474
0.0334748
0.00704525
-0.00549351
0.0104227
-0.0255096
0.0231977
-0.000705485
0.0308159
0.0155737
0.0234491
0.000639721
0.0128104
-0.0128
0.0112113
-0.0118793
0.0144143
-0.0047799
0.0160115
0.00229663
0.0142202
0.00207361
0.0101633
-0.00480708
0.00720556
-0.00924116
0.00688929
-0.00820463
0.00758261
-0.00500741
0.00750923
-0.002763
0.00633729
-0.00241559
0.00488621
-0.00254677
0.00412131
-0.00152263
0.00399771
0.000795938
0.0039168
0.00338619
0.00360863
0.00487391
0.0029068
0.00490647
0.00219612
0.00451674
0.00229865
0.00380356
0.00282711
0.00263139
0.00452236
0.00133184
0.00754017
-0.000902384
0.0120912
-0.00530423
0.0188016
-0.0123366
0.0274407
-0.0195023
0.0386196
-0.0256648
0.0494608
-0.0288772
0.0607758
-0.028481
0.0682278
-0.0288717
0.0695114
-0.0268074
0.0665712
0.000812463
0.0560901
0.0232965
0.0392412
0.0486646
0.012358
0.0815222
-0.018167
0.0894245
-0.0548036
0.0874318
-0.0847518
0.0774662
-0.116629
0.0560836
-0.137078
0.0496829
-0.152221
0.0273304
-0.15339
-0.00174475
-0.139372
-0.0282539
-0.116056
-0.0563719
-0.0992979
-0.0538845
-0.073953
-0.0706164
-0.0540162
-0.0611194
-0.0349331
-0.048347
-0.0261682
-0.0208608
-0.0310385
0.00690762
-0.0513326
0.0611646
-0.0940804
0.106326
-0.0111223
-0.222511
-0.169729
0.485893
-0.200132
0.0225602
0.249485
-1.31407
0.378548
-0.332375
0.371746
0.0543521
0.210683
0.476411
0.187138
0.065102
0.209247
-0.0619503
-0.0495306
0.744458
0.00116392
-0.177173
-0.0341811
0.0783689
-0.073647
0.120275
0.0289045
-0.280609
-0.0186525
0.14306
0.0285459
-0.133676
0.189251
-0.393824
0.331415
-0.367926
0.378128
-0.163122
0.3373
0.0513413
0.375391
-0.112673
0.454143
-0.241069
0.291301
0.383855
-0.165914
1.30547
-0.494548
0.988964
-0.559231
0.239536
-0.502999
-0.196645
-0.162679
-1.0252
0.318663
-1.30879
-0.412203
0.0446163
-0.216761
-0.113957
-0.00759211
-0.227701
-0.0286145
-0.200141
-0.0244167
-0.157173
-0.00969668
-0.114912
0.00350753
-0.0826295
0.0091377
-0.0599468
0.011725
-0.0409182
0.0224703
-0.0236096
0.0403134
-0.0128698
0.0522008
-0.0128388
0.041642
-0.019776
0.0192941
-0.019436
0.0346247
0.00239375
0.0710829
0.0254644
0.106064
0.0358663
0.0995634
0.00580742
0.0156185
-0.0325922
-0.0432266
0.00376651
0.000372571
0.102
0.100629
0.132098
0.129611
-0.11015
-0.0131635
-0.473999
-0.117087
-0.413761
0.106581
0.587885
0.210323
1.0243
0.207634
1.04902
0.0343693
0.392666
-0.0572537
-0.0255655
-0.0653325
0.0325729
-0.00495404
-0.191675
0.0618316
-0.114967
0.0632654
0.0452344
0.0244043
0.0403355
0.00603939
-0.00729513
0.0122505
-0.0268579
0.0253293
-0.00166209
0.0318948
0.0153053
0.0239334
-0.000494007
0.0130537
-0.0147329
0.0115677
-0.0123352
0.0149233
-0.00427256
0.0162752
0.00210869
0.0140505
0.0010381
0.00967623
-0.00608903
0.00655771
-0.0102223
0.00618004
-0.00867411
0.00680547
-0.00518712
0.00659006
-0.00284617
0.00522169
-0.00240112
0.00356693
-0.0022858
0.00262791
-0.00082244
0.00234749
0.00199678
0.00209922
0.00496303
0.00162877
0.00660635
0.000790958
0.00650916
1.52355e-05
0.00578314
0.000227303
0.0046378
0.00105661
0.00268525
0.00333772
0.000368
0.00729266
-0.0032537
0.0131815
-0.00986192
0.021802
-0.0200851
0.0328762
-0.0299058
0.0469409
-0.037656
0.0606537
-0.0416545
0.0745253
-0.0400419
0.0835341
-0.0380552
0.0849079
-0.0303436
0.0801229
0.00170286
0.0657344
0.0419602
0.0426532
0.0737754
0.0071884
0.119127
-0.0329191
0.131736
-0.0793861
0.129529
-0.117748
0.114862
-0.165607
0.0941906
-0.181444
0.0656641
-0.197537
0.0376772
-0.195681
-0.00778157
-0.176224
-0.0452112
-0.151048
-0.0853031
-0.122484
-0.0801274
-0.0902933
-0.102279
-0.0650219
-0.0881523
-0.0418207
-0.0689504
-0.0319515
-0.0269453
-0.0379896
0.0105803
-0.0636995
0.0905304
-0.111742
0.147726
-0.016227
-0.313825
-0.150752
0.613725
-0.228093
0.0953847
0.232825
-1.76548
0.441615
-0.578074
0.459877
0.0369127
0.285432
0.640076
0.252573
0.103693
0.276837
-0.0834658
-0.0233031
1.04375
0.00816769
-0.205143
-0.0407484
0.126703
-0.089945
0.174187
0.0390085
-0.410339
-0.0147703
0.199089
0.0478663
-0.196429
0.259143
-0.601563
0.434502
-0.540353
0.464822
-0.18857
0.395586
0.120038
0.447132
-0.164969
0.525117
-0.317415
0.289429
0.615159
-0.259005
1.85887
-0.616397
1.34732
-0.673992
0.302674
-0.620487
-0.249891
-0.239691
-1.40452
0.352633
-1.90555
-0.658919
0.0616655
-0.167269
-0.108462
0.0218989
-0.179777
0.000412838
-0.166625
-0.000776254
-0.138791
0.00830002
-0.107968
0.0172653
-0.0833235
0.0203837
-0.0656229
0.0215124
-0.0489512
0.0306185
-0.0303826
0.0461544
-0.0155004
0.0563226
-0.0087923
0.0471762
-0.00835285
0.0297011
-0.00302954
0.0465421
0.0118093
0.0820972
0.0167854
0.109782
0.00920888
0.100332
-0.0227882
0.0244323
-0.0465709
-0.0273802
0.0118971
0.00868363
0.119571
0.072807
0.148022
0.0871848
-0.00105715
-0.0076653
-0.182988
0.00201451
-0.00195057
0.168008
0.584157
0.23158
0.753376
0.155392
0.507411
-0.0192274
-0.0600683
-0.100706
-0.401647
-0.0464815
-0.343454
0.00957883
0.0948497
0.0784766
-0.0448999
0.0662055
0.084607
0.0221487
0.0408351
0.00507098
-0.0123821
0.0145078
-0.0281422
0.02781
-0.00260813
0.0329915
0.0144472
0.0244325
-0.00157489
0.0134602
-0.0163322
0.0120811
-0.0127984
0.0155351
-0.00392532
0.0166003
0.00170565
0.0139173
-0.000154689
0.0092339
-0.00736874
0.00596641
-0.0111301
0.00552255
-0.00907268
0.00607031
-0.00528044
0.0057053
-0.0028067
0.00413959
-0.00223186
0.00228936
-0.00185017
0.00119097
4.90617e-05
0.000774355
0.00336139
0.000386246
0.00668953
-0.000210314
0.00845795
-0.00113754
0.0081924
-0.00192659
0.00706705
-0.00155332
0.00535722
-0.000377393
0.00239539
0.00252512
-0.00130345
0.00747441
-0.00674045
0.0147026
-0.0159389
0.0252389
-0.0299873
0.0387731
-0.0429955
0.0557689
-0.0526618
0.0724202
-0.0574158
0.0889056
-0.0539904
0.0994856
-0.0482009
0.100836
-0.0331058
0.0940022
0.00726333
0.0747542
0.108424
0.0452714
0.107511
0.000509437
0.165956
-0.0499939
0.184117
-0.107106
0.181566
-0.154362
0.161069
-0.196229
0.127558
-0.229264
0.09702
-0.244985
0.0479365
-0.23864
-0.0184541
-0.212899
-0.0680717
-0.180693
-0.121542
-0.144128
-0.114347
-0.104948
-0.140754
-0.074338
-0.120597
-0.0472537
-0.0932106
-0.0364625
-0.0337453
-0.0438745
0.0155136
-0.0748525
0.125178
-0.123566
0.189169
-0.0242206
-0.408229
-0.0834325
0.66637
-0.237767
0.24452
0.147674
-2.1401
0.474588
-0.894878
0.541595
-0.0283199
0.365305
0.804527
0.325336
0.149196
0.356264
-0.111567
-0.00835936
1.4062
0.0154441
-0.22603
-0.0485636
0.188464
-0.107576
0.238248
0.0479102
-0.566399
-0.00750042
0.256729
0.0745811
-0.278558
0.34095
-0.863553
0.545201
-0.740939
0.545476
-0.183733
0.446508
0.218141
0.518018
-0.237386
0.583373
-0.38138
0.260848
0.933198
-0.371368
2.4957
-0.73769
1.7141
-0.781016
0.351539
-0.733919
-0.296913
-0.327411
-1.80908
0.371897
-2.60924
-0.981745
0.0740009
-0.130296
-0.107189
0.044711
-0.141156
0.0255198
-0.135179
0.0212769
-0.117988
0.0254921
-0.0973743
0.0303521
-0.0803356
0.0316289
-0.0675057
0.0326115
-0.0532965
0.0406213
-0.0343843
0.0540367
-0.0164504
0.0623963
-0.00548179
0.0546679
-0.0013324
0.0397341
0.00416101
0.0551382
0.0122616
0.0897908
0.0062597
0.11302
-0.0110827
0.104551
-0.0390732
0.0411663
-0.0485121
-0.00516928
0.0242121
0.017077
0.135317
0.0537303
0.175015
0.0644872
0.103982
0.0204417
0.0164238
0.0868073
0.165467
0.204549
0.415999
0.217586
0.342139
0.0975785
-0.0182044
-0.0606974
-0.435643
-0.107389
-0.566076
-0.0497187
-0.395443
0.0535052
-0.0314912
0.0934261
-0.0332519
0.0661261
0.091834
0.0191498
0.030836
0.00437812
-0.0211461
0.0172771
-0.0292119
0.030668
-0.00319332
0.0341156
0.0132044
0.0249349
-0.00262278
0.0140464
-0.0175858
0.012784
-0.0132824
0.0162695
-0.00377589
0.0170017
0.00112006
0.0138388
-0.00141953
0.00885909
-0.00857146
0.00545928
-0.0119171
0.00494609
-0.00937577
0.00540682
-0.00528179
0.00488677
-0.00266046
0.00312842
-0.00194492
0.00109963
-0.00129635
-0.000133283
0.00102779
-0.000656884
0.00482268
-0.00115147
0.00850399
-0.00183469
0.0103824
-0.00280393
0.00992364
-0.0035581
0.008338
-0.00298325
0.00591972
-0.00143352
0.00170894
0.00209918
-0.00373906
0.00816738
-0.0115667
0.0165864
-0.0234794
0.0289923
-0.042081
0.0449619
-0.0587985
0.0648923
-0.0706972
0.0845316
-0.0761434
0.103703
-0.0702466
0.115926
-0.0592012
0.117269
-0.0348685
0.108583
0.0159977
0.0844732
0.0846142
0.0480003
0.147891
-0.00690025
0.222658
-0.0686792
0.24745
-0.137352
0.244485
-0.19419
0.21682
-0.243824
0.168133
-0.281197
0.13273
-0.294244
0.0560492
-0.281743
-0.0356544
-0.249401
-0.0974695
-0.208426
-0.166782
-0.164005
-0.156633
-0.117788
-0.186175
-0.0818816
-0.158522
-0.0511614
-0.120926
-0.0396505
-0.0410576
-0.0484652
0.0195621
-0.0845209
0.164922
-0.127007
0.223829
-0.0375466
-0.492118
0.0320811
0.590975
-0.228536
0.498668
-0.0198792
-2.33659
0.45868
-1.3857
0.607465
-0.171243
0.444375
0.955321
0.402389
0.196524
0.449391
-0.155764
0.0139451
1.83848
0.0234273
-0.232444
-0.0572023
0.265945
-0.126451
0.312899
0.0542655
-0.747511
0.00379408
0.309457
0.112173
-0.386779
0.437247
-1.18347
0.660179
-0.959701
0.615863
-0.134121
0.49107
0.341911
0.587819
-0.33489
0.626905
-0.418338
0.215487
1.33948
-0.491613
3.20757
-0.858077
2.08122
-0.881696
0.381133
-0.843781
-0.334785
-0.425079
-2.22566
0.377316
-3.41597
-1.38902
0.0840986
-0.101804
-0.108333
0.0630451
-0.110497
0.0468859
-0.107801
0.0409405
-0.0975189
0.0411596
-0.0848106
0.0424785
-0.0739655
0.0429205
-0.0650673
0.0451239
-0.0535235
0.0524716
-0.0363049
0.0631323
-0.0178907
0.0688302
-0.00548352
0.0617889
-6.64384e-05
0.0479474
0.00433662
0.0605271
0.00861749
0.0948903
-0.00101374
0.117136
-0.0209092
0.113073
-0.0427908
0.0656658
-0.0433529
0.0232832
0.0301061
0.0292998
0.132091
0.0453798
0.180525
0.0546087
0.151071
0.0506406
0.107574
0.138667
0.158714
0.209983
0.175422
0.182683
-0.0375521
0.0491566
-0.392113
-0.0808025
-0.628965
-0.0932687
-0.559554
-0.0123049
-0.271678
0.0841824
0.0662115
0.0943998
0.134246
0.0625208
0.0769571
0.0157751
0.0065605
0.00444794
-0.0322432
0.0207061
-0.029326
0.0339435
-0.0029309
0.0353108
0.0118949
0.0254731
-0.00366534
0.014863
-0.018516
0.0137424
-0.0137708
0.0171785
-0.00382252
0.0175253
0.00040522
0.0138633
-0.00267958
0.00860296
-0.00964108
0.00509087
-0.012547
0.00450582
-0.00956023
0.00486938
-0.00518533
0.00419029
-0.00242882
0.00224927
-0.00159092
6.71837e-05
-0.000692482
-0.00126637
0.00204082
-0.00186092
0.00631097
-0.00242546
0.0103481
-0.00315661
0.0123391
-0.00412538
0.0116776
-0.00480744
0.00957463
-0.00400993
0.0063009
-0.00208564
0.000599928
0.00205138
-0.00696396
0.00887954
-0.0174343
0.0187341
-0.0328225
0.0329097
-0.0563491
0.0512409
-0.077292
0.0740728
-0.0917368
0.096742
-0.097807
0.118701
-0.0887791
0.132721
-0.0710551
0.134174
-0.0355403
0.123322
0.0296627
0.0937809
0.111188
0.0509509
0.194216
-0.0142713
0.28891
-0.0878994
0.322136
-0.1692
0.319391
-0.236527
0.2831
-0.293785
0.216138
-0.317468
0.155437
-0.345162
0.0786968
-0.324673
-0.0612526
-0.288435
-0.130836
-0.234337
-0.225446
-0.182112
-0.206924
-0.128898
-0.238542
-0.0877127
-0.201961
-0.0535371
-0.151927
-0.0412395
-0.0489272
-0.0515701
0.0285203
-0.0923494
0.209468
-0.120904
0.2441
-0.0614786
-0.545426
0.170614
0.354344
-0.209896
0.871173
-0.268533
-2.2656
0.383319
-2.04852
0.648674
-0.431689
0.514146
1.07771
0.477789
0.239024
0.557054
-0.232096
0.0522843
2.33908
0.0314186
-0.207652
-0.0664852
0.360181
-0.146005
0.398239
0.0577025
-0.951472
0.0201975
0.349289
0.161685
-0.527588
0.515899
-1.53177
0.774097
-1.21296
0.671796
-0.02644
0.530538
0.482062
0.652629
-0.457781
0.65747
-0.422791
0.172507
1.81875
-0.608332
3.99312
-0.979589
2.45307
-0.979813
0.387586
-0.950036
-0.364681
-0.530423
-2.64295
0.371886
-4.32258
-1.88721
0.0931443
-0.0793815
-0.111122
0.0785407
-0.0861613
0.0651683
-0.0848585
0.0582201
-0.0788356
0.0553517
-0.0715885
0.0539036
-0.0651063
0.0544452
-0.0590319
0.0588635
-0.0503191
0.0660498
-0.036709
0.0728684
-0.020577
0.0746455
-0.00861375
0.0672419
-0.00271679
0.0537135
0.00156014
0.0631802
0.00547489
0.0979883
-0.00248624
0.122404
-0.0208675
0.125037
-0.0384987
0.0956373
-0.0376439
0.055784
0.0226945
0.0464087
0.104312
0.0447771
0.155617
0.0520403
0.140624
0.0682806
0.113353
0.155645
0.0814084
0.191368
-0.0357094
0.141489
-0.280287
0.0233515
-0.550539
-0.073649
-0.62349
-0.0586624
-0.421526
0.0321229
-0.100985
0.102191
0.150479
0.0979966
0.178535
0.0559283
0.0818282
0.0131663
-0.0184043
0.00589803
-0.0363766
0.0250212
-0.0259599
0.0376863
-0.00178797
0.0366379
0.0109785
0.0261155
-0.00476565
0.0159873
-0.0191833
0.0150471
-0.0142367
0.0183386
-0.00402688
0.0182392
-0.000368991
0.0140593
-0.00385847
0.00853499
-0.0105225
0.00493269
-0.0129785
0.00427267
-0.00959765
0.00452649
-0.00498776
0.00368448
-0.00214189
0.00157515
-0.00122959
-0.000727673
-0.000110412
-0.00212096
0.00301942
-0.00274664
0.00776658
-0.00334553
0.0121758
-0.00409166
0.0143006
-0.0050281
0.0134439
-0.00561817
0.010778
-0.00460293
0.0065075
-0.00233694
-0.000917667
0.00233951
-0.0109584
0.00996581
-0.0244323
0.0210155
-0.0437967
0.0368018
-0.0726938
0.0573759
-0.0983899
0.0830468
-0.115719
0.108793
-0.122385
0.133692
-0.10963
0.149781
-0.0839105
0.151716
-0.0353555
0.139302
0.0462118
0.105557
0.148017
0.0553285
0.259889
-0.0198138
0.365035
-0.106243
0.408818
-0.201376
0.40756
-0.280439
0.361258
-0.346022
0.27276
-0.380056
0.188525
-0.401186
0.094854
-0.368388
-0.0993793
-0.302575
-0.193705
-0.258483
-0.274405
-0.198781
-0.265063
-0.138633
-0.297833
-0.0920632
-0.251075
-0.0544029
-0.186257
-0.0412118
-0.0574747
-0.0525137
0.0365353
-0.0978528
0.258687
-0.107443
0.245022
-0.105081
-0.541307
0.278604
-0.0327388
-0.201494
1.34156
-0.557767
-1.89841
0.246402
-2.86155
0.654284
-0.835049
0.563775
1.15556
0.54319
0.266644
0.678522
-0.36387
0.107237
2.90505
0.0406864
-0.136534
-0.0754589
0.472241
-0.165283
0.494455
0.0583224
-1.17526
0.0433209
0.366726
0.22707
-0.711437
0.651229
-1.94921
0.884609
-1.44122
0.710424
0.15312
0.564352
0.627013
0.702863
-0.59729
0.672659
-0.390044
0.155862
2.3296
-0.708713
4.86268
-1.10735
2.85252
-1.0793
0.366144
-1.05376
-0.390483
-0.636504
-3.05781
0.36358
-5.32681
-2.47289
0.101682
-0.0613313
-0.115167
0.0923171
-0.0665434
0.0811831
-0.0658187
0.0735763
-0.0624197
0.0684156
-0.0586654
0.0648928
-0.0549596
0.0660431
-0.0507834
0.07313
-0.0447997
0.0809188
-0.035668
0.0834606
-0.023589
0.0803414
-0.012885
0.0715729
-0.00621322
0.0576605
-0.000723003
0.0637917
0.00510345
0.0989701
0.00123338
0.12735
-0.0144012
0.137764
-0.0310312
0.126683
-0.0345054
0.0887227
0.00416663
0.0680986
0.0606956
0.0479065
0.108176
0.0531817
0.101144
0.0706606
0.0782719
0.147113
0.0136417
0.161696
-0.145941
0.106832
-0.34971
0.0145201
-0.504238
-0.0408224
-0.46522
-0.0101277
-0.218357
0.073195
0.0612832
0.115597
0.20584
0.0946949
0.17319
0.0483207
0.0523148
0.0115853
-0.0440199
0.0103836
-0.0501444
0.0301333
-0.00671416
0.0419521
0.00239782
0.0381317
0.0104309
0.026963
-0.00611452
0.0175212
-0.0196758
0.0168084
-0.0146495
0.0198456
-0.00432403
0.0192271
-0.00111758
0.0145092
-0.00487995
0.00873627
-0.0111616
0.00506603
-0.0131684
0.00432561
-0.00946062
0.00445247
-0.0046951
0.00344213
-0.00184096
0.00118244
-0.000925808
-0.00120246
0.000383009
-0.0026098
0.00391017
-0.00322651
0.00915174
-0.0038295
0.0139645
-0.00456876
0.016263
-0.00545769
0.0152374
-0.00595945
0.0119786
-0.00476318
0.00658223
-0.0022266
-0.0027852
0.00287859
-0.0156446
0.0111922
-0.0324845
0.0232673
-0.0562667
0.0404516
-0.0909265
0.0631125
-0.121938
0.0915428
-0.142548
0.120433
-0.14988
0.148499
-0.132954
0.167073
-0.0981261
0.170069
-0.0348685
0.156834
0.0647427
0.120111
0.188934
0.0619894
0.310393
-0.0225518
0.449892
-0.122076
0.507686
-0.232253
0.510332
-0.324715
0.45308
-0.399673
0.339311
-0.436976
0.225435
-0.4323
0.0855796
-0.389658
-0.147993
-0.337772
-0.243486
-0.281676
-0.335604
-0.21467
-0.331037
-0.1476
-0.364067
-0.0953086
-0.306248
-0.0537924
-0.224293
-0.0390778
-0.0672821
-0.0509526
0.044651
-0.100297
0.312074
-0.0934076
0.22907
-0.177725
-0.450469
0.293454
-0.506653
-0.226431
1.85036
-0.822621
-1.29377
0.0718889
-3.76466
0.624318
-1.38112
0.58293
1.18406
0.58654
0.27051
0.810805
-0.583453
0.180903
3.52843
0.0644635
-0.015025
-0.0818957
0.613262
-0.183137
0.6028
0.0571475
-1.41569
0.0756327
0.350877
0.306903
-0.942094
0.779948
-2.415
0.98683
-1.64252
0.718151
0.427036
0.587996
0.756153
0.726457
-0.736393
0.677653
-0.339467
0.189221
2.8113
-0.784371
5.84148
-1.2484
3.31742
-1.18379
0.308463
-1.15451
-0.420213
-0.723074
-3.48664
0.3715
-6.42528
-3.11491
0.109989
-0.0463693
-0.120116
0.105067
-0.050292
0.0956265
-0.0498618
0.0875601
-0.048177
0.0807143
-0.0466086
0.0755833
-0.0445821
0.0772892
-0.0416114
0.0869752
-0.037864
0.096298
-0.0329173
0.095503
-0.0253375
0.0874723
-0.0162151
0.076662
-0.00841441
0.0615676
-0.00107304
0.0635572
0.00727253
0.0975537
0.00771164
0.129554
-0.00527169
0.147751
-0.0229521
0.153539
-0.033188
0.118193
-0.0177202
0.0924241
0.0161432
0.0535519
0.0545351
0.0557243
0.0613561
0.0645576
0.0457169
0.125236
-0.00560733
0.133928
-0.13912
0.0888612
-0.271627
0.0300994
-0.325973
0.00728979
-0.233937
0.0416064
-0.0183001
0.104771
0.174766
0.121586
0.218186
0.0866982
0.134873
0.0410182
0.0129882
0.0129976
-0.0623681
0.0166489
-0.0544067
0.03688
-0.0109919
0.0464148
0.0047021
0.0398304
0.00770904
0.0281649
-0.00813945
0.0196036
-0.0201589
0.019164
-0.0149699
0.021818
-0.00462659
0.0205892
-0.00173592
0.0153091
-0.00566715
0.00929932
-0.0115075
0.00558054
-0.0130753
0.00474884
-0.00912641
0.00472364
-0.00432398
0.00353581
-0.00157509
0.00114611
-0.000740915
-0.00127755
0.000737141
-0.00265141
0.00468489
-0.00322279
0.010458
-0.00380974
0.0157207
-0.0045366
0.01825
-0.00538494
0.017101
-0.00583073
0.0132386
-0.00452614
0.00660695
-0.00183065
-0.00489464
0.00354539
-0.0208786
0.0124108
-0.0414683
0.0253163
-0.0700341
0.0436295
-0.110753
0.0681952
-0.147716
0.099302
-0.17211
0.131442
-0.180346
0.162993
-0.159055
0.184639
-0.114326
0.189556
-0.0350338
0.176349
0.0841046
0.136691
0.232904
0.0725633
0.377087
-0.0203491
0.538302
-0.133214
0.619352
-0.259892
0.629389
-0.367861
0.560805
-0.453989
0.417813
-0.494802
0.266575
-0.488839
0.0748309
-0.443918
-0.197132
-0.36997
-0.315359
-0.304913
-0.406438
-0.230709
-0.404913
-0.156598
-0.437385
-0.0979068
-0.36819
-0.0516789
-0.266888
-0.0343537
-0.0794003
-0.046144
0.0524165
-0.0985576
0.36873
-0.0887025
0.209648
-0.280423
-0.252659
0.182702
-0.972231
-0.296894
2.31812
-0.989745
-0.596439
-0.0901277
-4.67449
0.57251
-2.0338
0.562527
1.18144
0.589687
0.252094
0.9478