/*--------------------------------*- C++ -*----------------------------------*\
| =========                 |                                                 |
| \\      /  F ield         | OpenFOAM: The Open Source CFD Toolbox           |
|  \\    /   O peration     | Version:  2412                                  |
|   \\  /    A nd           | Website:  www.openfoam.com                      |
|    \\/     M anipulation  |                                                 |
\*---------------------------------------------------------------------------*/
FoamFile
{
    version     2.0;
    format      ascii;
    arch        "LSB;label=32;scalar=64";
    class       volScalarField;
    location    "1.04";
    object      p;
}
// * * * * * * * * * * * * * * * * * * * * * * * * * * * * * * * * * * * * * //

dimensions      [0 2 -2 0 0 0 0];

internalField   nonuniform List<scalar> 
12600
(
-1.37839
-85.198
-63.0029
-12.1095
31.0811
64.0963
90.3396
112.112
130.675
146.776
160.898
173.47
184.752
194.847
203.727
211.713
219.089
225.965
232.221
237.758
242.42
246.267
250.417
255.837
261.5
262.69
264.36
266.138
269.164
272.149
274.412
276.147
277.834
279.508
281.041
282.384
283.552
284.692
285.839
286.872
287.781
288.603
289.354
290.064
290.712
291.271
291.773
292.237
292.675
293.105
293.53
293.955
294.419
294.93
295.486
296.092
296.703
297.287
297.834
298.225
298.432
298.347
297.858
296.977
295.558
293.758
291.498
288.996
286.334
283.713
281.33
279.549
278.487
278.578
279.995
283.075
287.917
294.122
301.224
308.42
314.099
319.135
322.664
325.296
325.892
326.795
326.986
327.697
327.662
326.194
324.549
298.752
284.816
227.463
176.182
144.793
104.951
135.731
110.825
133.273
139.927
131.258
144.319
139.624
135.563
131.736
128.732
103.593
69.9252
33.1108
33.2101
68.3666
142.168
212.302
296.272
360.467
429.538
457.74
498.557
442.441
57.2486
-19.4768
-28.5538
-2.91541
29.6975
60.0988
86.0885
108.13
127.053
143.53
158.08
171.022
182.583
192.822
202.031
210.269
217.895
224.946
231.229
236.712
241.472
245.86
250.583
255.753
260.207
261.719
263.651
266.08
269.278
272.064
274.157
275.893
277.661
279.373
280.894
282.234
283.426
284.598
285.761
286.796
287.708
288.541
289.303
290.019
290.67
291.232
291.737
292.207
292.649
293.082
293.508
293.932
294.398
294.91
295.466
296.075
296.684
297.267
297.815
298.209
298.422
298.353
297.883
297.025
295.63
293.854
291.61
289.118
286.457
283.827
281.436
279.637
278.538
278.583
279.958
282.985
287.776
293.934
301.011
308.212
313.927
319.004
322.565
325.244
325.878
326.793
326.985
327.694
327.668
326.199
324.798
299.25
285.565
228.777
177.302
145.785
105.183
135.719
110.965
132.937
139.935
131.2
144.178
139.708
135.641
131.797
129.035
104.301
70.8057
33.6362
32.9615
67.2284
140.552
210.558
294.62
358.986
428.466
456.978
498.597
442.962
82.6679
26.3733
2.3705
10.6573
34.3302
60.7457
85.1334
106.637
125.453
141.978
156.6
169.631
181.28
191.622
200.88
209.301
217.069
224.191
230.48
235.938
240.805
245.714
250.926
255.523
258.557
260.76
263.22
266.209
269.422
272.012
273.992
275.731
277.543
279.278
280.795
282.14
283.349
284.534
285.704
286.742
287.657
288.496
289.264
289.984
290.637
291.202
291.71
292.183
292.628
293.064
293.492
293.917
294.384
294.897
295.452
296.06
296.668
297.249
297.799
298.195
298.415
298.358
297.9
297.055
295.674
293.909
291.674
289.191
286.538
283.896
281.502
279.683
278.565
278.582
279.929
282.927
287.69
293.831
300.901
308.107
313.84
318.935
322.508
325.211
325.867
326.791
326.985
327.691
327.674
326.208
324.951
299.498
285.982
229.397
177.769
146.189
105.316
135.714
111.069
132.788
139.946
131.176
144.101
139.749
135.676
131.829
129.167
104.602
71.2119
33.8908
32.8069
66.7842
140.017
209.981
294.056
358.481
428.089
456.706
498.628
443.161
90.9512
55.8024
31.3545
28.8314
42.6937
63.4776
85.2595
105.649
124.027
140.423
155.054
168.145
179.867
190.311
199.738
208.308
216.163
223.359
229.701
235.239
240.298
245.357
250.485
254.696
256.98
260.064
263.05
266.413
269.485
271.881
273.777
275.534
277.392
279.151
280.671
282.023
283.251
284.45
285.627
286.67
287.59
288.436
289.212
289.937
290.594
291.161
291.673
292.15
292.599
293.037
293.468
293.895
294.363
294.876
295.431
296.038
296.646
297.228
297.78
298.18
298.408
298.362
297.92
297.092
295.729
293.982
291.762
289.29
286.642
284.001
281.594
279.748
278.597
278.578
279.887
282.841
287.563
293.667
300.718
307.933
313.697
318.822
322.426
325.167
325.851
326.786
326.983
327.688
327.68
326.222
325.163
299.914
286.617
230.459
178.69
146.995
105.463
135.703
111.165
132.517
139.963
131.123
143.99
139.824
135.741
131.885
129.425
105.195
71.9156
34.264
32.5392
65.7492
138.546
208.437
292.605
357.191
427.166
456.064
498.673
443.609
98.124
78.3586
58.4163
49.7095
54.6503
68.9105
87.0633
105.666
123.227
139.282
153.795
166.868
178.618
189.141
198.676
207.363
215.309
222.555
228.947
234.59
239.798
244.866
249.771
253.764
256.49
259.913
263.25
266.685
269.5
271.694
273.544
275.333
277.239
279.022
280.544
281.903
283.15
284.363
285.545
286.594
287.519
288.373
289.156
289.885
290.546
291.118
291.633
292.115
292.568
293.009
293.442
293.87
294.34
294.854
295.409
296.015
296.622
297.205
297.759
298.165
298.401
298.368
297.941
297.132
295.786
294.055
291.849
289.384
286.739
284.096
281.672
279.807
278.627
278.571
279.839
282.751
287.434
293.509
300.552
307.775
313.565
318.718
322.346
325.123
325.835
326.781
326.98
327.686
327.689
326.242
325.375
300.295
287.228
231.379
179.408
147.598
105.584
135.681
111.247
132.283
139.984
131.09
143.878
139.891
135.796
131.938
129.667
105.678
72.497
34.5506
32.2244
64.9532
137.58
207.4
291.616
356.31
426.524
455.609
498.708
443.941
106.523
95.7149
80.7977
70.2002
69.2696
77.3577
90.9832
106.929
123.141
138.569
152.812
165.786
177.523
188.094
197.701
206.475
214.486
221.78
228.244
233.969
239.274
244.314
249.049
252.972
256.217
259.849
263.406
266.779
269.358
271.467
273.277
275.125
277.083
278.887
280.412
281.778
283.045
284.27
285.458
286.513
287.444
288.305
289.095
289.829
290.494
291.07
291.59
292.076
292.534
292.978
293.413
293.843
294.314
294.829
295.384
295.989
296.596
297.18
297.737
298.15
298.395
298.375
297.966
297.174
295.848
294.135
291.943
289.488
286.846
284.204
281.769
279.87
278.656
278.559
279.783
282.648
287.287
293.331
300.354
307.594
313.417
318.602
322.259
325.076
325.817
326.775
326.978
327.684
327.699
326.266
325.598
300.731
287.909
232.406
180.194
148.351
105.667
135.637
111.287
132.004
140.012
131.022
143.752
139.97
135.862
132
129.935
106.255
73.1221
34.7837
31.7914
63.8067
136.072
205.853
290.168
355.032
425.614
454.979
498.731
444.377
114.624
108.386
97.8851
88.4201
84.8305
88.1945
97.1944
109.768
123.954
138.326
152.081
164.859
176.542
187.139
196.797
205.635
213.7
221.036
227.571
233.39
238.764
243.768
248.421
252.4
256.027
259.808
263.436
266.656
269.08
271.07
273.046
274.919
276.931
278.75
280.275
281.647
282.934
284.173
285.365
286.426
287.363
288.231
289.029
289.768
290.437
291.018
291.543
292.034
292.496
292.943
293.381
293.814
294.285
294.802
295.356
295.96
296.568
297.153
297.714
298.134
298.389
298.384
297.993
297.221
295.916
294.221
292.044
289.596
286.956
284.311
281.853
279.934
278.684
278.542
279.718
282.533
287.128
293.139
300.15
307.406
313.262
318.481
322.168
325.026
325.798
326.769
326.976
327.682
327.71
326.295
325.823
301.177
288.629
233.409
181.062
148.992
105.691
135.554
111.254
131.714
140.046
130.98
143.609
140.05
135.927
132.067
130.221
106.813
73.6714
34.8951
31.2241
62.6733
134.711
204.445
288.846
353.862
424.779
454.392
498.727
444.784
121.975
118.218
111.148
103.832
99.6575
100.14
105.347
114.416
126.003
138.764
151.668
164.064
175.619
186.216
195.915
204.811
212.932
220.318
226.935
232.854
238.286
243.289
247.899
251.988
255.856
259.713
263.304
266.36
268.713
270.724
272.658
274.765
276.797
278.609
280.134
281.513
282.819
284.072
285.268
286.333
287.276
288.152
288.958
289.702
290.375
290.961
291.491
291.988
292.455
292.906
293.346
293.781
294.254
294.771
295.326
295.929
296.537
297.124
297.689
298.118
298.384
298.394
298.023
297.272
295.989
294.313
292.151
289.713
287.073
284.424
281.981
279.997
278.71
278.519
279.642
282.402
286.95
292.929
299.925
307.204
313.097
318.352
322.073
324.975
325.778
326.762
326.974
327.683
327.724
326.326
326.042
301.646
289.401
234.404
181.761
149.738
105.637
135.409
111.1
131.392
140.086
130.923
143.443
140.136
135.998
132.136
130.528
107.384
74.1311
34.844
30.4833
61.2548
133.003
202.729
287.25
352.46
423.791
453.703
498.687
445.235
128.884
126.72
121.969
116.559
112.787
111.962
114.621
120.674
129.508
140.197
151.782
163.469
174.722
185.247
194.974
203.935
212.134
219.594
226.316
232.347
237.842
242.872
247.47
251.657
255.656
259.509
263.01
265.95
268.284
270.37
272.462
274.577
276.666
278.477
279.987
281.376
282.701
283.967
285.165
286.235
287.185
288.068
288.882
289.63
290.307
290.9
291.436
291.938
292.411
292.865
293.309
293.746
294.221
294.738
295.292
295.895
296.504
297.093
297.662
298.101
298.379
298.406
298.056
297.328
296.069
294.413
292.267
289.837
287.198
284.542
282.081
280.073
278.735
278.489
279.553
282.254
286.753
292.699
299.688
306.99
312.922
318.218
321.973
324.921
325.756
326.755
326.972
327.684
327.739
326.356
326.247
302.129
290.226
235.358
182.521
150.299
105.484
135.17
110.767
131.033
140.132
130.872
143.249
140.223
136.07
132.214
130.855
107.919
74.4317
34.5823
29.5437
59.7557
131.247
200.97
285.616
351.021
422.782
452.994
498.597
445.68
135.503
134.397
131.087
127.076
124.055
122.911
124.126
127.959
134.343
142.824
152.716
163.29
173.934
184.213
193.897
202.918
211.221
218.794
225.655
231.821
237.403
242.482
247.101
251.345
255.394
259.194
262.596
265.473
267.858
270.053
272.273
274.472
276.502
278.315
279.854
281.233
282.581
283.859
285.058
286.133
287.089
287.978
288.8
289.553
290.234
290.833
291.375
291.885
292.363
292.821
293.268
293.708
294.184
294.702
295.256
295.857
296.467
297.059
297.634
298.083
298.375
298.42
298.093
297.389
296.156
294.52
292.392
289.97
287.33
284.666
282.19
280.132
278.755
278.45
279.449
282.085
286.533
292.452
299.426
306.765
312.738
318.077
321.869
324.864
325.732
326.747
326.972
327.686
327.757
326.385
326.432
302.636
291.104
236.275
183.204
151.074
105.217
134.804
110.181
130.621
140.18
130.82
143.021
140.313
136.145
132.283
131.189
108.403
74.5123
34.0713
28.3808
57.9656
129.211
198.969
283.767
349.399
421.655
452.203
498.446
446.139
141.767
141.351
138.988
135.998
133.724
132.704
133.224
135.621
140.102
146.572
154.649
163.803
173.489
183.23
192.692
201.694
210.094
217.811
224.855
231.19
236.906
242.06
246.739
251.016
255.065
258.802
262.127
264.999
267.481
269.801
272.124
274.348
276.379
278.143
279.675
281.121
282.46
283.748
284.948
286.025
286.987
287.883
288.712
289.47
290.156
290.761
291.311
291.827
292.311
292.774
293.224
293.667
294.144
294.663
295.217
295.816
296.427
297.022
297.603
298.065
298.37
298.435
298.133
297.455
296.249
294.636
292.526
290.112
287.47
284.797
282.297
280.234
278.776
278.399
279.327
281.893
286.286
292.179
299.148
306.526
312.546
317.927
321.761
324.806
325.707
326.738
326.971
327.686
327.777
326.414
326.599
303.179
292.029
237.18
183.908
151.552
104.843
134.252
109.265
130.135
140.227
130.766
142.751
140.405
136.22
132.366
131.53
108.77
74.3112
33.2783
26.9729
56.0248
127.007
196.825
281.792
347.663
420.455
451.36
498.22
446.589
147.653
147.714
146.048
143.807
142.127
141.353
141.612
143.171
146.316
151.151
157.538
165.17
173.646
182.546
191.515
200.307
208.703
216.546
223.792
230.337
236.248
241.528
246.309
250.637
254.678
258.379
261.675
264.586
267.186
269.624
272.006
274.236
276.236
277.99
279.523
280.945
282.364
283.645
284.836
285.914
286.881
287.783
288.619
289.382
290.071
290.684
291.241
291.764
292.255
292.723
293.177
293.623
294.101
294.621
295.174
295.772
296.383
296.982
297.57
298.044
298.366
298.451
298.176
297.527
296.351
294.762
292.67
290.265
287.62
284.936
282.41
280.305
278.789
278.337
279.185
281.672
286.008
291.88
298.851
306.276
312.343
317.771
321.649
324.745
325.681
326.728
326.971
327.687
327.798
326.446
326.758
303.775
292.986
238.12
184.646
152.175
104.368
133.461
107.94
129.539
140.265
130.716
142.441
140.498
136.295
132.432
131.866
108.968
73.7557
32.1811
25.2951
53.8203
124.522
194.437
279.606
345.742
419.134
450.434
497.902
447.029
153.212
153.621
152.48
150.783
149.538
149.012
149.224
150.332
152.598
156.21
161.179
167.374
174.556
182.407
190.62
198.949
207.137
214.979
222.372
229.139
235.293
240.775
245.717
250.156
254.236
257.954
261.282
264.266
266.979
269.506
271.917
274.127
276.089
277.828
279.381
280.836
282.209
283.537
284.73
285.799
286.772
287.678
288.52
289.287
289.981
290.601
291.166
291.698
292.196
292.668
293.126
293.575
294.054
294.574
295.127
295.723
296.335
296.938
297.533
298.022
298.361
298.469
298.223
297.604
296.461
294.897
292.826
290.429
287.78
285.083
282.527
280.391
278.795
278.264
279.02
281.419
285.694
291.55
298.531
306.025
312.132
317.609
321.534
324.683
325.653
326.717
326.971
327.686
327.819
326.483
326.925
304.432
293.943
239.149
185.483
152.658
103.81
132.389
106.146
128.783
140.296
130.678
142.081
140.592
136.366
132.498
132.176
108.92
72.8003
30.7447
23.3368
51.3505
121.767
191.83
277.234
343.652
417.698
449.434
497.473
447.441
158.488
159.139
158.389
157.095
156.178
155.868
156.114
156.987
158.699
161.445
165.308
170.267
176.214
182.944
190.232
197.871
205.613
213.247
220.627
227.539
233.924
239.67
244.85
249.489
253.696
257.509
260.933
264.019
266.833
269.423
271.834
274.015
275.948
277.671
279.242
280.717
282.123
283.408
284.607
285.695
286.658
287.57
288.416
289.187
289.886
290.512
291.087
291.627
292.132
292.609
293.071
293.524
294.004
294.524
295.075
295.669
296.283
296.89
297.492
297.996
298.355
298.486
298.272
297.686
296.579
295.043
292.995
290.607
287.952
285.24
282.65
280.464
278.825
278.178
278.829
281.13
285.338
291.183
298.188
305.723
311.914
317.44
321.416
324.62
325.624
326.706
326.972
327.684
327.838
326.522
327.114
305.142
294.869
240.289
186.454
153.182
103.194
130.99
103.864
127.798
140.313
130.652
141.681
140.686
136.432
132.541
132.439
108.552
71.4061
28.9334
21.0829
48.5505
118.659
188.933
274.622
341.35
416.113
448.35
496.91
447.811
163.498
164.308
163.854
162.875
162.211
162.072
162.372
163.125
164.488
166.641
169.681
173.644
178.507
184.162
190.467
197.274
204.374
211.586
218.738
225.629
232.138
238.127
243.585
248.508
252.95
256.955
260.543
263.767
266.685
269.327
271.734
273.892
275.806
277.535
279.123
280.609
282.018
283.316
284.486
285.56
286.563
287.46
288.308
289.083
289.785
290.419
291.002
291.551
292.064
292.547
293.012
293.469
293.95
294.47
295.02
295.611
296.225
296.836
297.446
297.967
298.346
298.504
298.325
297.775
296.706
295.202
293.177
290.798
288.137
285.407
282.778
280.544
278.826
278.059
278.61
280.799
284.934
290.774
297.817
305.446
311.687
317.267
321.297
324.557
325.595
326.693
326.971
327.678
327.851
326.554
327.329
305.882
295.75
241.525
187.564
153.631
102.535
129.23
101.127
126.493
140.311
130.646
141.247
140.775
136.491
132.56
132.605
107.772
69.5617
26.7018
18.5148
45.361
115.173
185.729
271.766
338.829
414.367
447.196
496.188
448.117
168.26
169.172
168.947
168.216
167.748
167.737
168.091
168.781
169.923
171.667
174.109
177.304
181.272
185.97
191.328
197.256
203.601
210.223
216.956
223.624
230.083
236.191
241.874
247.091
251.837
256.124
259.958
263.375
266.429
269.149
271.581
273.745
275.668
277.412
279.023
280.527
281.927
283.217
284.387
285.45
286.421
287.362
288.203
288.974
289.679
290.32
290.912
291.471
291.992
292.48
292.95
293.411
293.893
294.411
294.959
295.547
296.16
296.777
297.395
297.933
298.335
298.521
298.379
297.869
296.844
295.373
293.374
291.006
288.336
285.586
282.914
280.623
278.822
277.939
278.361
280.423
284.474
290.313
297.411
305.127
311.452
317.09
321.178
324.496
325.567
326.68
326.97
327.666
327.854
326.568
327.561
306.622
296.602
242.804
188.775
154.036
101.835
127.109
98.0386
124.76
140.278
130.679
140.795
140.858
136.543
132.539
132.631
106.503
67.2567
24.0204
15.6087
41.7276
111.24
182.148
268.621
336.051
412.428
445.988
495.276
448.339
172.794
173.767
173.718
173.184
172.866
172.952
173.35
174.007
175.002
176.461
178.469
181.083
184.339
188.231
192.74
197.821
203.376
209.313
215.491
221.765
227.989
234.037
239.806
245.223
250.242
254.835
258.977
262.664
265.927
268.793
271.314
273.541
275.515
277.3
278.941
280.456
281.856
283.133
284.286
285.349
286.33
287.227
288.093
288.869
289.57
290.218
290.819
291.386
291.916
292.41
292.884
293.349
293.831
294.348
294.893
295.477
296.09
296.71
297.336
297.893
298.319
298.536
298.436
297.969
296.992
295.559
293.589
291.232
288.552
285.778
283.057
280.704
278.811
277.794
278.082
279.998
283.952
289.793
296.965
304.802
311.237
316.913
321.062
324.439
325.542
326.668
326.967
327.645
327.843
326.547
327.795
307.333
297.457
244.067
190.005
154.292
101.072
124.643
94.7409
122.477
140.2
130.768
140.348
140.929
136.584
132.468
132.435
104.629
64.5026
20.8585
12.3783
37.5595
106.833
178.137
265.164
332.997
410.272
444.752
494.131
448.456
177.116
178.118
178.203
177.826
177.626
177.785
178.216
178.853
179.746
180.999
182.688
184.864
187.565
190.803
194.585
198.9
203.698
208.923
214.472
220.234
226.077
231.889
237.568
243.03
248.202
253.028
257.458
261.452
265.007
268.124
270.839
273.211
275.299
277.165
278.857
280.395
281.792
283.059
284.207
285.254
286.231
287.141
287.971
288.751
289.466
290.112
290.723
291.299
291.836
292.336
292.815
293.283
293.766
294.281
294.822
295.401
296.012
296.636
297.27
297.845
298.298
298.548
298.492
298.076
297.151
295.762
293.823
291.479
288.788
285.986
283.21
280.787
278.792
277.647
277.773
279.526
283.364
289.203
296.468
304.451
310.948
316.738
320.951
324.39
325.524
326.658
326.961
327.613
327.808
326.481
328.019
307.986
298.335
245.272
191.173
154.328
100.24
121.919
91.3631
119.515
140.046
130.934
139.94
140.99
136.635
132.325
131.974
102.132
61.2785
17.222
8.79192
32.8529
101.894
173.616
261.351
329.626
407.859
443.491
492.698
448.444
181.241
182.248
182.433
182.184
182.077
182.288
182.741
183.363
184.182
185.282
186.731
188.575
190.844
193.559
196.74
200.394
204.504
209.042
213.946
219.134
224.5
229.943
235.374
240.714
245.883
250.809
255.43
259.686
263.543
266.981
270.002
272.636
274.93
276.94
278.723
280.31
281.726
282.993
284.136
285.182
286.151
287.043
287.878
288.637
289.343
290.018
290.625
291.208
291.753
292.259
292.742
293.215
293.698
294.21
294.746
295.319
295.926
296.553
297.194
297.788
298.27
298.556
298.55
298.189
297.321
295.982
294.08
291.751
289.046
286.214
283.375
280.874
278.767
277.473
277.421
278.991
282.697
288.531
295.908
304.077
310.715
316.562
320.852
324.353
325.516
326.653
326.953
327.562
327.747
326.358
328.227
308.556
299.227
246.383
192.257
154.055
99.3458
119.084
87.9572
115.757
139.777
131.199
139.619
141.048
136.656
132.08
131.121
98.8831
57.5817
13.0986
4.79401
27.5035
96.3898
168.505
257.148
325.906
405.138
442.163
490.914
448.282
185.181
186.174
186.434
186.288
186.255
186.504
186.968
187.576
188.339
189.322
190.586
192.171
194.104
196.404
199.096
202.195
205.704
209.616
213.898
218.499
223.34
228.336
233.406
238.485
243.502
248.385
253.065
257.476
261.568
265.305
268.663
271.639
274.245
276.503
278.453
280.142
281.616
282.914
284.071
285.12
286.083
286.972
287.786
288.541
289.239
289.893
290.535
291.121
291.668
292.181
292.668
293.145
293.628
294.135
294.666
295.23
295.832
296.46
297.109
297.721
298.233
298.56
298.606
298.308
297.506
296.223
294.363
292.051
289.333
286.466
283.555
280.967
278.733
277.276
277.031
278.422
281.962
287.772
295.272
303.667
310.443
316.426
320.768
324.337
325.527
326.657
326.94
327.487
327.652
326.171
328.402
309.013
300.109
247.372
193.297
153.483
98.4488
116.167
84.4587
111.107
139.321
131.577
139.445
141.119
136.769
131.718
129.838
94.9883
53.3498
8.52278
0.311294
21.5721
90.2386
162.718
252.495
321.791
402.036
440.655
488.722
447.96
188.946
189.914
190.227
190.164
190.191
190.466
190.934
191.526
192.242
193.133
194.252
195.634
197.301
199.271
201.567
204.208
207.207
210.568
214.281
218.316
222.623
227.137
231.788
236.516
241.266
245.977
250.586
255.026
259.242
263.187
266.823
270.123
273.07
275.656
277.886
279.783
281.391
282.771
283.98
285.058
286.029
286.91
287.715
288.459
289.143
289.805
290.424
291.028
291.589
292.098
292.593
293.074
293.556
294.058
294.581
295.136
295.731
296.358
297.012
297.642
298.186
298.557
298.661
298.432
297.709
296.486
294.675
292.387
289.653
286.748
283.754
281.071
278.7
277.053
276.604
277.792
281.137
286.911
294.546
303.219
310.178
316.233
320.705
324.35
325.564
326.679
326.92
327.384
327.513
325.905
328.515
309.338
300.956
248.223
194.345
152.671
97.6559
113.333
80.6917
105.496
138.601
132.07
139.484
141.223
136.859
131.185
127.955
90.2997
48.547
3.45564
-4.72692
14.9103
83.3737
156.178
247.326
317.234
398.476
438.815
486.088
447.499
192.546
193.479
193.83
193.834
193.908
194.203
194.669
195.242
195.918
196.735
197.737
198.956
200.41
202.114
204.09
206.356
208.929
211.819
215.028
218.543
222.337
226.366
230.577
234.911
239.324
243.77
248.198
252.549
256.768
260.804
264.609
268.143
271.373
274.271
276.824
279.03
280.903
282.479
283.807
284.952
285.959
286.853
287.655
288.386
289.07
289.722
290.348
290.937
291.499
292.034
292.524
293.003
293.485
293.981
294.493
295.037
295.622
296.246
296.902
297.55
298.126
298.547
298.713
298.561
297.924
296.778
295.023
292.763
290.016
287.071
283.983
281.185
278.649
276.798
276.137
277.074
280.228
285.942
293.708
302.712
309.904
316.188
320.685
324.4
325.64
326.726
326.893
327.25
327.318
325.538
328.543
309.484
301.751
248.89
195.464
151.762
96.9904
110.564
76.5541
98.9107
137.476
132.661
139.824
141.394
137.038
130.488
125.48
85.1129
43.0976
-2.08774
-10.465
7.64041
75.67
148.825
241.545
312.17
394.383
436.491
483
446.955
195.991
196.883
197.259
197.317
197.43
197.737
198.198
198.751
199.39
200.144
201.051
202.136
203.417
204.906
206.621
208.58
210.8
213.293
216.067
219.122
222.444
226.009
229.779
233.71
237.756
241.881
246.049
250.215
254.328
258.336
262.19
265.845
269.257
272.392
275.225
277.742
279.939
281.825
283.414
284.733
285.829
286.763
287.585
288.327
289.009
289.656
290.279
290.863
291.422
291.943
292.454
292.941
293.414
293.903
294.405
294.935
295.507
296.125
296.78
297.443
298.051
298.526
298.761
298.696
298.155
297.103
295.408
293.192
290.434
287.446
284.248
281.337
278.617
276.496
275.611
276.263
279.25
284.871
292.772
302.154
309.62
316.108
320.705
324.5
325.769
326.813
326.862
327.079
327.058
325.048
328.444
309.43
302.444
249.35
196.704
150.992
96.6076
107.958
72.0211
91.3547
135.826
133.276
140.49
141.673
137.315
129.508
122.191
79.1843
36.9466
-8.2403
-17.0073
-0.489826
67.0263
140.598
235.043
306.526
389.688
433.591
479.465
446.382
199.296
200.143
200.534
200.633
200.776
201.091
201.542
202.074
202.678
203.378
204.205
205.179
206.317
207.629
209.13
210.836
212.763
214.924
217.33
219.985
222.887
226.024
229.373
232.903
236.578
240.36
244.222
248.132
252.051
255.933
259.729
263.393
266.881
270.156
273.189
275.958
278.448
280.651
282.562
284.18
285.515
286.594
287.478
288.244
288.947
289.606
290.225
290.809
291.365
291.891
292.389
292.877
293.357
293.834
294.317
294.832
295.388
295.995
296.646
297.319
297.959
298.491
298.801
298.834
298.403
297.455
295.859
293.675
290.92
287.894
284.574
281.479
278.602
276.183
275.004
275.356
278.065
283.629
291.669
301.496
309.331
316.092
320.774
324.662
325.954
326.953
326.831
326.868
326.723
324.404
328.171
309.08
303.066
249.596
198.133
150.613
96.3918
105.509
67.3047
82.9499
133.454
133.856
141.593
142.073
137.729
128.348
118.222
73.0024
30.0947
-15.0156
-24.6047
-9.31434
57.2993
131.45
227.679
300.204
384.328
430.074
475.497
445.793
202.473
203.273
203.668
203.798
203.963
204.28
204.719
205.23
205.802
206.453
207.21
208.092
209.11
210.274
211.598
213.094
214.777
216.66
218.754
221.067
223.601
226.353
229.312
232.458
235.766
239.203
242.74
246.354
250.019
253.7
257.354
260.937
264.408
267.73
270.874
273.811
276.522
278.986
281.186
283.11
284.754
286.123
287.234
288.125
288.866
289.534
290.171
290.769
291.324
291.848
292.345
292.829
293.3
293.768
294.24
294.73
295.268
295.858
296.499
297.18
297.848
298.439
298.836
298.974
298.669
297.846
296.349
294.263
291.494
288.435
284.977
281.767
278.551
275.64
274.293
274.3
276.773
282.37
290.507
300.792
309.017
315.988
320.909
324.899
326.281
327.16
326.812
326.61
326.278
323.57
327.649
308.445
303.478
249.664
199.793
150.568
96.7761
103.389
62.3096
73.7657
130.211
134.175
142.992
142.679
138.261
126.773
113.24
66.0608
22.4376
-22.6866
-33.3832
-19.194
46.4001
121.302
219.292
293.09
378.186
425.946
471.113
445.2
205.529
206.281
206.671
206.824
207.003
207.319
207.745
208.234
208.774
209.381
210.078
210.88
211.796
212.836
214.01
215.33
216.808
218.457
220.287
222.307
224.523
226.935
229.54
232.327
235.281
238.379
241.592
244.896
248.275
251.706
255.158
258.594
261.976
265.268
268.439
271.459
274.303
276.947
279.369
281.549
283.477
285.146
286.564
287.742
288.699
289.465
290.108
290.701
291.284
291.831
292.333
292.808
293.263
293.717
294.165
294.644
295.148
295.72
296.344
297.025
297.718
298.367
298.859
299.114
298.952
298.278
296.912
294.924
292.204
289.112
285.485
282.002
278.521
275.857
273.455
273.015
275.283
280.62
289.08
299.941
308.686
316.033
321.114
325.221
326.497
327.437
326.81
326.299
325.783
322.51
326.802
307.454
303.658
249.495
201.675
150.379
96.9504
101.633
57.0509
63.931
125.918
134.128
144.802
143.302
139.039
125.034
107.649
58.9886
14.1203
-31.2294
-43.6242
-30.0645
34.1227
110.063
209.693
285.04
371.191
421.122
466.348
444.644
208.462
209.165
209.549
209.717
209.907
210.218
210.628
211.095
211.606
212.174
212.817
213.55
214.379
215.313
216.36
217.53
218.835
220.284
221.889
223.658
225.597
227.711
230
232.46
235.083
237.852
240.75
243.752
246.838
249.997
253.21
256.451
259.688
262.887
266.015
269.04
271.936
274.677
277.241
279.608
281.762
283.692
285.393
286.865
288.117
289.16
290.007
290.679
291.24
291.778
292.319
292.818
293.262
293.685
294.114
294.557
295.045
295.581
296.184
296.861
297.568
298.273
298.863
299.253
299.252
298.757
297.553
295.71
293.051
289.944
286.132
282.399
278.504
275.038
272.496
271.457
273.504
278.91
287.596
299.037
308.312
316.054
321.4
325.665
327.023
327.802
326.844
325.931
325.067
321.163
325.512
306.067
303.437
249.219
203.723
149.581
97.1763
100.265
51.6611
53.3799
120.44
133.317
146.55
144.376
139.784
122.812
100.921
50.9036
4.83261
-41.1024
-55.4775
-42.3425
20.4612
97.5711
198.719
275.882
363.198
415.518
461.249
444.175
211.276
211.933
212.307
212.488
212.684
212.987
213.381
213.825
214.308
214.839
215.435
216.106
216.86
217.702
218.64
219.682
220.838
222.117
223.529
225.082
226.782
228.636
230.647
232.814
235.133
237.597
240.193
242.904
245.711
248.597
251.554
254.568
257.616
260.669
263.694
266.662
269.542
272.31
274.943
277.423
279.735
281.863
283.797
285.525
287.045
288.363
289.491
290.44
291.213
291.817
292.301
292.779
293.269
293.709
294.097
294.502
294.944
295.468
296.028
296.681
297.404
298.16
298.845
299.397
299.567
299.286
298.287
296.636
294.091
291.026
287.081
282.9
278.531
274.373
271.088
269.505
271.269
276.724
285.747
297.986
307.911
316.195
321.793
326.22
327.625
328.275
326.928
325.521
324.239
319.476
323.664
304.187
302.702
248.63
205.948
148.455
97.1071
99.0433
45.4098
41.9943
113.688
131.623
148.454
144.923
140.794
120.269
93.8177
42.6315
-5.07925
-52.1296
-69.2192
-56.149
5.09416
83.6615
186.228
265.401
354.023
409.038
455.761
443.877
213.985
214.594
214.954
215.141
215.34
215.634
216.009
216.43
216.885
217.382
217.934
218.551
219.239
220.002
220.845
221.777
222.806
223.939
225.186
226.553
228.048
229.677
231.445
233.353
235.402
237.587
239.903
242.338
244.877
247.503
250.205
252.976
255.803
258.667
261.542
264.4
267.211
269.95
272.595
275.127
277.528
279.785
281.884
283.811
285.557
287.117
288.495
289.704
290.753
291.643
292.353
292.88
293.258
293.663
294.106
294.512
294.888
295.338
295.884
296.538
297.228
298.015
298.807
299.526
299.902
299.867
299.126
297.732
295.358
292.319
288.216
283.629
278.621
273.502
269.391
267.061
268.416
274.084
283.721
296.745
307.461
316.188
322.262
326.868
328.387
328.888
327.097
325.075
323.192
317.399
321.106
301.698
301.216
247.978
208.112
148.047
97.3871
97.8722
38.6811
29.2347
105.468
128.688
149.797
145.854
141.55
117.409
85.5936
33.0159
-16.3181
-64.987
-85.0218
-71.8838
-11.9384
68.0943
172.178
253.418
343.526
401.559
449.624
443.703
216.584
217.147
217.489
217.679
217.878
218.161
218.517
218.915
219.344
219.808
220.32
220.888
221.517
222.211
222.973
223.81
224.73
225.739
226.845
228.054
229.373
230.809
232.367
234.049
235.859
237.795
239.854
242.031
244.315
246.693
249.15
251.677
254.269
256.918
259.606
262.312
265.01
267.677
270.287
272.82
275.256
277.581
279.778
281.837
283.748
285.503
287.099
288.538
289.823
290.959
291.947
292.766
293.383
293.8
294.05
294.415
294.875
295.329
295.757
296.329
297.078
297.912
298.746
299.619
300.259
300.494
300.074
299.017
296.901
294.067
289.779
284.614
278.892
272.551
266.999
263.758
264.639
270.637
280.984
295.264
306.84
316.445
322.913
327.892
329.341
329.653
327.361
324.623
321.931
314.823
317.691
298.472
298.754
247.147
210.318
149.402
98.7634
96.6168
31.2886
14.8898
95.7784
124.388
150.486
145.431
142.099
113.753
77.294
23.1852
-28.1615
-79.2798
-103.033
-89.9546
-31.1509
50.6835
156.489
239.813
331.638
392.98
442.52
443.258
219.063
219.584
219.912
220.103
220.301
220.573
220.91
221.285
221.688
222.122
222.597
223.121
223.698
224.33
225.022
225.778
226.604
227.507
228.493
229.567
230.737
232.008
233.385
234.872
236.472
238.186
240.014
241.952
243.996
246.135
248.359
250.655
253.016
255.441
257.922
260.448
262.998
265.552
268.086
270.576
273.002
275.344
277.588
279.721
281.737
283.627
285.389
287.018
288.511
289.863
291.07
292.121
293.016
293.743
294.288
294.589
294.711
295.129
295.739
296.35
296.889
297.69
298.707
299.772
300.59
301.204
301.128
300.511
298.744
296.019
291.757
286.074
279.254
271.504
264.417
259.657
259.526
266.02
277.529
293.427