/*--------------------------------*- C++ -*----------------------------------*\
| =========                 |                                                 |
| \\      /  F ield         | OpenFOAM: The Open Source CFD Toolbox           |
|  \\    /   O peration     | Version:  2412                                  |
|   \\  /    A nd           | Website:  www.openfoam.com                      |
|    \\/     M anipulation  |                                                 |
\*---------------------------------------------------------------------------*/
FoamFile
{
    version     2.0;
    format      ascii;
    arch        "LSB;label=32;scalar=64";
    class       volScalarField;
    location    "0.455";
    object      p;
}
// * * * * * * * * * * * * * * * * * * * * * * * * * * * * * * * * * * * * * //

dimensions      [0 2 -2 0 0 0 0];

internalField   nonuniform List<scalar> 
12600
(
0.64622
-86.9604
-66.9337
-14.4699
31.3087
66.5208
94.6137
117.998
138.009
155.427
170.748
184.388
196.604
207.567
217.431
226.393
234.586
242.098
248.855
254.903
260.424
265.598
270.459
274.886
278.714
282.028
285.069
288.099
291.061
293.626
295.833
297.863
299.767
301.501
303.048
304.444
305.739
306.939
308.027
309.004
309.894
310.722
311.491
312.189
312.814
313.383
313.916
314.417
314.873
315.277
315.644
316.003
316.38
316.777
317.179
317.571
317.953
318.307
318.546
318.506
317.988
316.948
315.606
314.331
313.37
312.591
311.728
310.645
309.25
307.37
304.737
301.146
298.45
298.1
303.409
312.344
321.088
334.983
273.658
181.318
219.078
232.466
218.561
231.814
225.284
215.788
192.577
144.9
108.471
112.277
167.397
264.862
370.69
460.506
519.162
549.175
563.436
570.636
568.428
567.709
568.554
569.581
566.069
550.896
532.341
527.79
538.835
551.24
557.235
559.275
559.579
557.739
554.826
551.097
546.383
543.863
540.733
542.166
542.335
544.364
61.697
-18.2558
-30.1503
-4.12874
30.1194
62.4042
90.1571
113.784
134.143
151.927
167.659
181.667
194.193
205.418
215.525
224.78
233.161
240.809
247.68
253.865
259.552
264.872
269.81
274.227
278.065
281.478
284.671
287.806
290.757
293.287
295.517
297.595
299.535
301.288
302.851
304.269
305.587
306.804
307.904
308.892
309.794
310.634
311.413
312.118
312.749
313.326
313.867
314.374
314.833
315.239
315.61
315.975
316.355
316.751
317.148
317.538
317.92
318.276
318.523
318.493
317.993
316.975
315.654
314.393
313.426
312.631
311.755
310.683
309.334
307.492
304.903
301.316
298.56
298.062
303.18
311.975
320.572
335.104
275.925
182.721
218.573
232.457
218.569
231.651
225.458
216.282
193.761
146.335
109.181
111.714
165.338
262.04
367.877
458.369
517.874
548.521
563.12
570.554
568.459
567.705
568.519
569.592
566.303
551.324
532.647
527.744
538.553
551.016
557.134
559.242
559.589
557.787
554.897
551.192
546.465
543.928
540.749
542.145
542.304
544.337
88.4782
30.0394
3.30407
10.7453
35.2314
63.1661
89.1624
112.187
132.41
150.23
166.034
180.137
192.767
204.105
214.333
223.651
232.153
239.889
246.822
253.097
258.893
264.295
269.249
273.634
277.526
281.099
284.473
287.662
290.542
293.042
295.294
297.411
299.377
301.145
302.721
304.156
305.488
306.716
307.825
308.821
309.732
310.58
311.364
312.073
312.709
313.291
313.836
314.346
314.808
315.216
315.59
315.957
316.338
316.734
317.13
317.518
317.897
318.253
318.503
318.483
317.998
316.995
315.683
314.433
313.457
312.656
311.773
310.703
309.382
307.564
305.007
301.431
298.641
298.031
303.031
311.756
320.274
335.233
277.12
183.529
218.262
232.466
218.569
231.55
225.566
216.559
194.369
147.141
109.597
111.328
164.393
260.733
366.622
457.365
517.244
548.189
562.959
570.509
568.474
567.702
568.499
569.602
566.377
551.513
532.792
527.713
538.444
550.919
557.088
559.227
559.596
557.807
554.922
551.22
546.49
543.947
540.755
542.135
542.288
544.323
97.7791
61.3416
34.7023
30.7575
44.5639
66.2613
89.3522
111.129
130.855
148.52
164.326
178.501
191.231
202.684
213.038
222.484
231.087
238.89
245.93
252.32
258.214
263.673
268.645
273.053
277.004
280.675
284.202
287.449
290.271
292.743
295.035
297.193
299.185
300.969
302.563
304.016
305.365
306.607
307.726
308.732
309.653
310.51
311.302
312.016
312.658
313.246
313.797
314.311
314.776
315.187
315.563
315.933
316.315
316.711
317.106
317.492
317.871
318.229
318.485
318.475
318.005
317.019
315.721
314.478
313.499
312.691
311.806
310.741
309.447
307.662
305.139
301.565
298.725
297.988
302.806
311.452
319.882
335.374
278.835
184.376
217.822
232.494
218.565
231.423
225.72
216.993
195.329
148.262
110.069
110.745
162.568
258.25
364.277
455.623
516.214
547.671
562.711
570.449
568.5
567.697
568.472
569.616
566.606
551.868
533.032
527.662
538.2
550.735
557.007
559.203
559.606
557.849
554.985
551.308
546.562
544.002
540.767
542.117
542.263
544.3
106.046
85.5673
64.071
53.8112
58.0122
72.4721
91.4585
111.194
129.981
147.252
162.924
177.083
189.856
201.386
211.837
221.371
230.058
237.944
245.069
251.55
257.538
263.035
268.026
272.499
276.561
280.345
283.904
287.12
289.911
292.468
294.78
296.977
298.995
300.794
302.405
303.876
305.242
306.495
307.625
308.641
309.573
310.439
311.238
311.959
312.606
313.2
313.757
314.275
314.743
315.157
315.536
315.908
316.292
316.687
317.081
317.466
317.844
318.203
318.466
318.467
318.013
317.045
315.759
314.52
313.538
312.725
311.84
310.782
309.512
307.761
305.276
301.705
298.812
297.936
302.584
311.135
319.465
335.465
280.313
184.989
217.323
232.539
218.558
231.291
225.879
217.395
196.23
149.312
110.462
110.056
160.987
256.175
362.26
454.075
515.276
547.187
562.48
570.392
568.525
567.692
568.444
569.632
566.747
552.167
533.24
527.604
538.011
550.583
556.939
559.181
559.616
557.883
555.028
551.357
546.606
544.036
540.776
542.1
542.239
544.279
115.72
104.444
88.3953
76.3901
74.433
82.1655
96.0668
112.743
129.947
146.473
161.822
175.864
188.623
200.194
210.713
220.317
229.072
237.027
244.24
250.817
256.857
262.39
267.422
271.962
276.116
279.977
283.556
286.764
289.555
292.085
294.539
296.77
298.793
300.612
302.239
303.73
305.113
306.379
307.519
308.546
309.489
310.364
311.17
311.898
312.552
313.152
313.714
314.237
314.708
315.126
315.508
315.882
316.267
316.662
317.054
317.438
317.815
318.177
318.447
318.46
318.023
317.072
315.8
314.565
313.579
312.762
311.877
310.83
309.584
307.868
305.419
301.85
298.896
297.871
302.327
310.781
318.982
335.456
281.679
185.274
216.708
232.585
218.547
231.149
226.054
217.856
197.207
150.36
110.733
109.172
158.926
253.532
359.811
452.257
514.202
546.642
562.222
570.331
568.553
567.687
568.415
569.651
566.964
552.522
533.469
527.529
537.761
550.398
556.86
559.158
559.629
557.926
555.092
551.445
546.675
544.089
540.786
542.08
542.211
544.255
125.106
118.452
107.046
96.4231
91.8263
94.5509
103.369
116.217
131.045
146.295
161.033
174.818
187.497
199.077
209.646
219.309
228.126
236.149
243.442
250.097
256.195
261.765
266.832
271.442
275.677
279.592
283.175
286.372
289.206
291.802
294.227
296.535
298.61
300.418
302.07
303.58
304.979
306.258
307.409
308.447
309.401
310.286
311.1
311.834
312.494
313.101
313.669
314.196
314.671
315.092
315.478
315.854
316.24
316.635
317.026
317.408
317.785
318.15
318.427
318.453
318.035
317.102
315.842
314.61
313.622
312.801
311.917
310.881
309.662
307.982
305.57
301.998
298.974
297.788
302.04
310.385
318.424
335.319
282.748
185.178
215.925
232.664
218.534
230.997
226.243
218.335
198.195
151.325
110.818
108.055
156.811
250.808
357.25
450.339
513.064
546.06
561.948
570.267
568.583
567.68
568.383
569.672
567.162
552.88
533.695
527.436
537.511
550.212
556.78
559.136
559.643
557.969
555.148
551.511
546.736
544.133
540.795
542.058
542.18
544.228
133.647
129.503
121.666
113.404
108.338
108.107
112.873
121.848
133.699
147.025
160.697
173.969
186.448
197.988
208.59
218.311
227.195
235.292
242.666
249.394
255.545
261.156
266.271
270.942
275.234
279.188
282.775
285.982
288.858
291.512
294.004
296.285
298.363
300.257
301.891
303.425
304.842
306.133
307.295
308.344
309.309
310.204
311.026
311.767
312.434
313.048
313.622
314.154
314.633
315.057
315.446
315.824
316.211
316.605
316.995
317.376
317.754
318.122
318.407
318.447
318.047
317.134
315.886
314.657
313.665
312.841
311.96
310.938
309.745
308.105
305.727
302.147
299.042
297.681
301.71
309.936
317.784
335.069
283.441
184.755
214.907
232.762
218.521
230.833
226.444
218.84
199.171
152.14
110.646
106.648
154.148
247.686
354.381
448.214
511.813
545.419
561.647
570.199
568.614
567.673
568.349
569.695
567.392
553.262
533.923
527.322
537.223
550.007
556.695
559.112
559.659
558.019
555.217
551.605
546.809
544.189
540.805
542.034
542.146
544.198
141.67
139.172
133.749
127.518
122.96
121.453
123.579
129.315
138.105
149.039
161.112
173.465
185.502
196.887
207.482
217.258
226.223
234.411
241.878
248.688
254.9
260.563
265.731
270.458
274.798
278.772
282.371
285.602
288.527
291.234
293.756
296.071
298.144
299.987
301.748
303.276
304.701
306.005
307.177
308.238
309.215
310.119
310.949
311.697
312.372
312.993
313.572
314.109
314.592
315.02
315.412
315.793
316.181
316.574
316.962
317.341
317.72
318.091
318.385
318.441
318.061
317.167
315.931
314.705
313.71
312.884
312.006
310.998
309.834
308.231
305.891
302.294
299.095
297.543
301.328
309.421
317.078
334.758
283.717
184.208
213.578
232.891
218.511
230.656
226.655
219.357
200.089
152.721
110.148
104.909
151.62
244.272
351.239
445.884
510.441
544.709
561.314
570.122
568.647
567.665
568.313
569.719
567.629
553.656
534.148
527.182
536.913
549.789
556.605
559.089
559.677
558.071
555.287
551.686
546.881
544.242
540.814
542.008
542.108
544.164
149.355
147.971
144.054
139.291
135.563
133.801
134.479
137.89
144.031
152.5
162.609
173.602
184.828
195.819
206.286
216.078
225.129
233.432
241.016
247.932
254.231
259.967
265.199
269.982
274.361
278.358
281.976
285.242
288.218
290.971
293.519
295.842
297.932
299.809
301.488
303.118
304.57
305.872
307.058
308.13
309.118
310.032
310.869
311.624
312.306
312.935
313.52
314.062
314.549
314.982
315.377
315.76
316.148
316.54
316.927
317.304
317.683
318.058
318.362
318.433
318.075
317.201
315.977
314.752
313.754
312.928
312.056
311.064
309.93
308.364
306.057
302.435
299.126
297.368
300.881
308.822
316.319
334.426
283.59
183.829
211.844
233.059
218.515
230.467
226.88
219.877
200.891
152.974
109.257
102.798
147.839
240.441
347.751
443.306
508.924
543.916
560.94
570.034
568.68
567.657
568.273
569.743
567.884
554.064
534.369
527.012
536.568
549.552
556.51
559.065
559.698
558.128
555.365
551.791
546.963
544.302
540.824
541.978
542.065
544.126
156.641
155.991
153.073
149.384
146.463
144.88
144.889
146.828
150.96
157.243
165.324
174.669
184.718
194.98
205.078
214.754
223.842
232.261
239.991
247.05
253.477
259.32
264.641
269.493
273.92
277.95
281.6
284.907
287.931
290.721
293.286
295.617
297.715
299.61
301.349
302.927
304.409
305.756
306.93
308.019
309.019
309.942
310.787
311.549
312.239
312.875
313.467
314.013
314.505
314.941
315.34
315.726
316.114
316.505
316.888
317.264
317.642
318.022
318.336
318.425
318.089
317.236
316.024
314.8
313.801
312.973
312.108
311.134
310.03
308.503
306.224
302.565
299.127
297.143
300.355
308.12
315.494
334.05
283.067
183.818
209.6
233.275
218.531
230.267
227.113
220.385
201.499
152.804
107.921
100.268
144.468
236.2
343.884
440.446
507.241
543.024
560.516
569.931
568.713
567.649
568.23
569.765
568.148
554.482
534.582
526.809
536.189
549.296
556.408
559.04
559.721
558.19
555.447
551.888
547.047
544.363
540.833
541.945
542.017
544.082
163.504
163.365
161.193
158.304
156.02
154.723
154.5
155.604
158.35
162.892
169.135
176.781
185.427
194.654
204.082
213.402
222.375
230.841
238.709
245.942
252.542
258.542
263.993
268.947
273.45
277.536
281.236
284.594
287.663
290.482
293.06
295.396
297.507
299.422
301.175
302.79
304.254
305.587
306.845
307.913
308.918
309.851
310.702
311.472
312.169
312.813
313.411
313.963
314.459
314.9
315.302
315.69
316.078
316.467
316.847
317.22
317.598
317.982
318.306
318.413
318.102
317.271
316.071
314.847
313.836
313.019
312.164
311.208
310.136
308.645
306.388
302.678
299.09
296.856
299.736
307.3
314.562
333.536
282.047
184.093
206.722
233.542
218.569
230.064
227.349
220.857
201.831
152.127
106.086
97.2839
140.187
231.476
339.576
437.262
505.366
542.016
560.028
569.806
568.742
567.641
568.183
569.784
568.423
554.907
534.787
526.564
535.767
549.019
556.299
559.015
559.746
558.258
555.537
552.006
547.14
544.43
540.843
541.907
541.961
544.031
170.002
170.238
168.637
166.338
164.524
163.504
163.262
163.93
165.781
169.04
173.768
179.851
187.05
195.062
203.567
212.263
220.887
229.23
237.14
244.521
251.318
257.524
263.161
268.27
272.894
277.076
280.855
284.28
287.399
290.246
292.838
295.186
297.314
299.242
301.017
302.642
304.124
305.461
306.649
307.807
308.826
309.758
310.618
311.394
312.098
312.749
313.355
313.911
314.412
314.856
315.262
315.652
316.04
316.426
316.803
317.172
317.548
317.936
318.271
318.398
318.112
317.306
316.118
314.893
313.897
313.065
312.222
311.286
310.247
308.791
306.546
302.768
299.006
296.502
299.006
306.347
313.463
332.807
280.329
184.316
203.073
233.855
218.637
229.861
227.678
221.269
201.778
150.885
103.697
93.8158
135.604
226.207
334.768
433.704
503.27
540.874
559.463
569.653
568.765
567.632
568.13
569.797
568.703
555.336
534.983
526.278
535.307
548.713
556.182
558.989
559.773
558.331
555.633
552.119
547.24
544.501
540.853
541.865
541.897
543.972
176.183
176.683
175.513
173.658
172.205
171.425
171.242
171.695
172.99
175.355
178.916
183.675
189.526
196.285
203.723
211.585
219.625
227.623
235.394
242.8
249.741
256.156
262.023
267.349
272.161
276.496
280.4
283.922
287.109
289.999
292.616
294.984
297.129
299.084
300.871
302.505
303.993
305.342
306.567
307.668
308.718
309.677
310.529
311.314
312.027
312.685
313.297
313.858
314.363
314.812
315.221
315.613
316
316.383
316.755
317.119
317.493
317.883
318.229
318.377
318.12
317.34
316.164
314.937
313.929
313.111
312.282
311.367
310.361
308.938
306.694
302.827
298.864
296.07
298.146
305.254
312.189
331.869
277.656
183.526
198.517
234.194
218.778
229.667
227.98
221.587
201.23
149.031
100.695
89.8172
130.332
220.321
329.383
429.711
500.916
539.579
558.804
569.462
568.778
567.621
568.069
569.799
568.984
555.766
535.169
525.957
534.796
548.377
556.054
558.962
559.803
558.41
555.738
552.255
547.348
544.577
540.864
541.817
541.824
543.905
182.066
182.744
181.904
180.403
179.234
178.648
178.539
178.89
179.848
181.608
184.31
188.012
192.698
198.281
204.621
211.533
218.815
226.264
233.69
240.936
247.878
254.419
260.492
266.063
271.122
275.681
279.773
283.443
286.74
289.705
292.374
294.781
296.958
298.935
300.738
302.383
303.87
305.225
306.454
307.582
308.61
309.565
310.467
311.239
311.954
312.621
313.238
313.805
314.314
314.767
315.18
315.573
315.959
316.338
316.703
317.061
317.431
317.822
318.179
318.348
318.122
317.372
316.211
314.981
313.97
313.155
312.342
311.45
310.479
309.084
306.828
302.846
298.652
295.545
297.129
304.005
310.727
330.781
273.861
182.389
192.969
234.516
218.983
229.489
228.335
221.77
200.082
146.528
97.0177
85.2279
124.395
213.733
323.336
425.211
498.26
538.109
558.034
569.221
568.777
567.605
567.998
569.781
569.261
556.193
535.347
525.599
534.239
548.008
555.914
558.933
559.834
558.495
555.85
552.388
547.465
544.659
540.874
541.763
541.738
543.826
187.672
188.467
187.888
186.671
185.727
185.291
185.253
185.56
186.311
187.664
189.748
192.642
196.374
200.925
206.227
212.167
218.596
225.35
232.257
239.158
245.919
252.431
258.602
264.363
269.669
274.497
278.845
282.735
286.206
289.302
292.068
294.547
296.778
298.791
300.615
302.269
303.767
305.125
306.357
307.489
308.531
309.481
310.34
311.168
311.89
312.556
313.181
313.752
314.264
314.721
315.138
315.533
315.918
316.291
316.649
316.998
317.361
317.752
318.119
318.31
318.118
317.402
316.257
315.024
314.005
313.198
312.403
311.536
310.599
309.227
306.942
302.819
298.358
294.909
295.931
302.568
309.053
329.565
268.949
178.635
186.457
234.747
219.263
229.329
228.73
221.768
198.236
143.346
92.6061
79.9439
117.656
206.341
316.532
420.115
495.248
536.444
557.138
568.918
568.753
567.582
567.913
569.74
569.525
556.615
535.516
525.21
533.62
547.6
555.759
558.901
559.868
558.587
555.972
552.543
547.593
544.745
540.883
541.7
541.638
543.734
193.027
193.895
193.519
192.532
191.765
191.448
191.471
191.761
192.382
193.458
195.101
197.389
200.369
204.057
208.438
213.456
219.017
225.001
231.269
237.677
244.093
250.404
256.515
262.34
267.809
272.871
277.491
281.659
285.382
288.689
291.621
294.225
296.546
298.623
300.486
302.162
303.672
305.038
306.279
307.409
308.452
309.41
310.285
311.07
311.815
312.503
313.122
313.698
314.216
314.676
315.096
315.493
315.875
316.243
316.59
316.929
317.283
317.671
318.046
318.259
318.104
317.428
316.305
315.069
314.041
313.237
312.464
311.623
310.718
309.369
307.035
302.74
297.968
294.141
294.537
300.884
307.12
328.165
263.293
173.905
179.223
234.783
219.615
229.18
229.156
221.526
195.609
139.449
87.4122
73.8637
109.981
198.024
308.861
414.317
491.813
534.56
556.097
568.532
568.7
567.547
567.809
569.67
569.767
557.03
535.684
524.778
532.947
547.15
555.588
558.867
559.903
558.687
556.104
552.703
547.732
544.838
540.891
541.627
541.521
543.626
198.151
199.056
198.837
198.037
197.415
197.192
197.265
197.549
198.084
198.967
200.294
202.132
204.53
207.522
211.121
215.312
220.048
225.251
230.82
236.639
242.588
248.555
254.448
260.182
265.679
270.87
275.699
280.128
284.137
287.725
290.908
293.717
296.191
298.376
300.313
302.038
303.577
304.96
306.209
307.347
308.391
309.341
310.217
311.018
311.743
312.427
313.084
313.652
314.167
314.632
315.055
315.453
315.833
316.193
316.529
316.854
317.196
317.578
317.958
318.193
318.079
317.449
316.355
315.117
314.078
313.283
312.526
311.712
310.839
309.507
307.104
302.602
297.467
293.214
292.874
298.875
304.852
326.448
257.708
168.133
171.893
234.498
220.019
229.04
229.626
220.962
192.151
134.796
81.3977
66.9529
101.248
188.635
300.199
407.697
487.882
532.427
554.894
568.036
568.607
567.495
567.68
569.563
569.979
557.433
535.856
524.313
532.211
546.652
555.397
558.828
559.939
558.794
556.247
552.88
547.882
544.936
540.896
541.542
541.386
543.5
203.058
203.975
203.878
203.232
202.728
202.579
202.691
202.974
203.449
204.195
205.291
206.793
208.745
211.185
214.141
217.623
221.614
226.074
230.938
236.12
241.524
247.048
252.6
258.103
263.482
268.666
273.587
278.191
282.44
286.307
289.784
292.873
295.589
297.962
300.033
301.849
303.451
304.874
306.146
307.294
308.34
309.295
310.164
310.962
311.697
312.378
312.999
313.6
314.129
314.59
315.015
315.416
315.792
316.144
316.466
316.775
317.101
317.472
317.853
318.108
318.038
317.464
316.408
315.173
314.122
313.309
312.59
311.808
310.966
309.642
307.148
302.402
296.84
292.093
290.91
296.46
302.146
324.181
253.355
162.429
165.565
233.752
220.444
228.783
230.097
220.041
187.834
129.335
74.5244
59.046
91.3179
178
290.402
400.118
483.367
530.008
553.503
567.399
568.464
567.42
567.518
569.412
570.148
557.824
536.042
523.821
531.415
546.103
555.183
558.784
559.978
558.909
556.403
553.071
548.048
545.041
540.898
541.444
541.228
543.353
207.764
208.675
208.671
208.153
207.746
207.656
207.797
208.079
208.511
209.155
210.078
211.326
212.936
214.945
217.382
220.27
223.614
227.401
231.594
236.136
240.958
245.978
251.11
256.278
261.416
266.459
271.342
276.003
280.391
284.466
288.199
291.574
294.582
297.228
299.529
301.517
303.236
304.736
306.059
307.237
308.297
309.256
310.128
310.929
311.648
312.338
312.974
313.549
314.074
314.559
314.983
315.377
315.752
316.096
316.403
316.692
316.998
317.352
317.729
318.002
317.978
317.469
316.466
315.244
314.177
313.407
312.666
311.915
311.104
309.78
307.171
302.138
296.072
290.738
288.593
293.48
298.872
321.146
251.336
157.721
161.373
232.491
220.852
228.485
230.521
218.695
182.693
123.037
66.7769
49.9552
80.057
165.92
279.302
391.424
478.163
527.237
551.891
566.582
568.261
567.314
567.318
569.21
570.266
558.2
536.254
523.316
530.561
545.497
554.942
558.734
560.02
559.032
556.572
553.276
548.226
545.151
540.895
541.33
541.044
543.182
212.283
213.174
213.242
212.828
212.502
212.457
212.619
212.901
213.299
213.865
214.656
215.709
217.055
218.725
220.747
223.149
225.947
229.144
232.725
236.659
240.9
245.386
250.051
254.822
259.632
264.428
269.153
273.749
278.16
282.337
286.24
289.838
293.11
296.043
298.633
300.887
302.824
304.478
305.899
307.139
308.238
309.219
310.1
310.898
311.629
312.309
312.938
313.52
314.042
314.504
314.945
315.359
315.721
316.049
316.341
316.608
316.889
317.219
317.584
317.87
317.893
317.462
316.528
315.332
314.254
313.456
312.761
312.046
311.263
309.932
307.183
301.815
295.152
289.108
286.041
289.785
294.888
317.089
251.167
154.288
159.274
230.669
221.188
227.948
230.843
216.864
176.774
115.87
58.1467
39.5385
67.3391
152.181
266.705
381.435
472.126
524.018
550.011
565.547
567.99
567.169
567.07
568.951
570.325
558.56
536.51
522.815
529.656
544.83
554.671
558.674
560.063
559.165
556.757
553.499
548.422
545.271
540.889
541.196
540.833
542.981
216.628
217.489
217.609
217.283
217.023
217.014
217.191
217.469
217.84
218.345
219.032
219.933
221.073
222.475
224.167
226.175
228.519
231.212
234.254
237.631
241.318
245.274
249.45
253.786
258.222
262.7
267.175
271.6
275.923
280.091
284.06
287.791
291.252
294.419
297.277
299.817
302.037
303.947
305.57
306.945
308.121
309.149
310.061
310.877
311.613
312.294
312.925
313.495
314.018
314.489
314.915
315.305
315.683
316.017
316.285
316.526
316.777
317.077
317.421
317.71
317.78
317.437
316.594
315.445
314.367
313.568
312.892
312.213
311.464
310.115
307.199
301.443
294.071
287.166
282.803
285.318
290.064
312.036
251.318
151.443
158.021
228.427
221.411
227.145
230.967
214.49
170.203
107.877
48.6559
27.6813
53.0436
136.563
252.392
369.942
465.068
520.217
547.814
564.276
567.635
566.977
566.771
568.628
570.321
558.906
536.833
522.344
528.714
544.099
554.362
558.603
560.103
559.307
556.959
553.744
548.634
545.398
540.878
541.039
540.589
542.747
220.808
221.632
221.791
221.537
221.333
221.351
221.538
221.811
222.159
222.615
223.219
223.998
224.973
226.163
227.591
229.28
231.252
233.522
236.1
238.983
242.161
245.612
249.302
253.188
257.22
261.345
265.514
269.69
273.832
277.893
281.827
285.592
289.15
292.471
295.531
298.311
300.798
302.987
304.883
306.502
307.866
309.008
309.977
310.828
311.591
312.286
312.918
313.491
314.009
314.469
314.903
315.301
315.656
315.963
316.23
316.451
316.667
316.929
317.241
317.523
317.633
317.387
316.661
315.587
314.526
313.724
313.083
312.45
311.732
310.355
307.247
301.045
292.843
284.923
279.13
279.959
284.303
305.962
251.208
148.894
156.322
225.832
221.492
225.997
230.832
211.564
163.082
99.0719
38.2873
14.2973
37.1091
118.849
236.12
356.709
456.766
515.695
545.251
562.744
567.163
566.726
566.418
568.235
570.252
559.24
537.26
521.939
527.76
543.303
554.007
558.512
560.139
559.456
557.178
553.993
548.866
545.537
540.863
540.863
540.309
542.475
224.835
225.617
225.804
225.61
225.452
225.491
225.682
225.95
226.277
226.691
227.227
227.909
228.752
229.771
230.985
232.416
234.083
236.002
238.186
240.642
243.367
246.353
249.58
253.019
256.635
260.385
264.222
268.103
271.999
275.874
279.687
283.396
286.961
290.348
293.528
296.477
299.172
301.601
303.757
305.643
307.267
308.642
309.785
310.731
311.535
312.252
312.906
313.491
314.01
314.473
314.897
315.288
315.645
315.948
316.187
316.381
316.568
316.783
317.05
317.31
317.449
317.306
316.721
315.762
314.749
313.96
313.362
312.791
312.106
310.691
307.365
300.652
291.477
282.383
275.003
273.875
277.548
298.907
251.306
147.48
155.466
223.184
221.476
224.501
230.336
208.055
155.597
89.6051
27.0997
-0.631164
19.4204
98.8394
217.628
341.476
446.985
510.329
542.269
560.934
566.478
566.409
566.012
567.756
570.123
559.568
537.833
521.654
526.839
542.444
553.595
558.394
560.166
559.61
557.419
554.294
549.122
545.689
540.845
540.67
539.99
542.159
228.717
229.455
229.66
229.516
229.396
229.452
229.644
229.904
230.212
230.591
231.071
231.672
232.407
233.287
234.328
235.549
236.965
238.594
240.449
242.54
244.87
247.44
250.24
253.255
256.46
259.825
263.312
266.881
270.495
274.129
277.753
281.33
284.823
288.195
291.414
294.452
297.284
299.889
302.255
304.374
306.246
307.874
309.264
310.433
311.4
312.196
312.868
313.463
314.004
314.484
314.911
315.296
315.637
315.932
316.162
316.332
316.48
316.65
316.86
317.08
317.229
317.184
316.764
315.965
315.046
314.3
313.763
313.28
312.64
311.175
307.605
300.333
290.048
279.565
270.343
266.854
269.792
290.963
251.844
148.815
156.784
220.762
221.388
222.772
229.51
204.076
147.873
79.532
15.0398
-17.0907
-0.0328766
76.3754
196.643
323.961
435.469
504.001
538.777
558.81
565.466
566.036
565.552
567.17
569.931
559.894
538.589
521.584
526.02
541.542
553.109
558.236
560.177
559.763
557.665
554.599
549.4
545.848
540.826
540.461
539.627
541.793
232.463
233.156
233.372
233.268
233.18
233.249
233.44
233.691
233.981
234.33
234.763
235.296
235.941
236.708
237.607
238.655
239.866
241.255
242.836
244.618
246.609
248.815
251.232
253.855
256.67
259.656
262.786
266.029
269.35
272.715
276.103
279.49
282.844
286.132
289.318
292.372
295.266
297.978
300.49
302.79
304.867
306.716
308.338
309.743
310.945
311.955
312.782
313.439
313.978
314.458
314.911
315.314
315.656
315.934
316.144
316.301
316.419
316.537
316.686
316.848
316.982
317.018
316.777
316.187
315.422
314.768
314.34
313.982
313.397
311.885
308.036
300.142
288.589
276.557
265.416
259.327
261.13
282.325
252.621
150.696
160.478
218.908
221.439
220.966
228.351
199.664
140.115
69.1188
2.2571
-34.932
-21.2339
51.3595
172.905
303.874
421.926
496.53
534.618
556.319
564.031
565.623
565.032
566.454
569.667
560.226
539.566
521.842
525.402
540.634
552.538
558.017
560.158
559.904
557.949
554.931
549.718
546.056
540.808
540.238
539.217
541.371
236.081
236.729
236.95
236.88
236.819
236.896
237.084
237.325
237.599
237.921
238.313
238.79
239.36
240.032
240.814
241.72
242.762
243.952
245.304
246.827
248.53
250.421
252.503
254.773
257.227
259.853
262.633
265.545
268.561
271.651
274.784
277.942
281.106
284.25
287.341
290.348
293.241
295.994
298.588
301.005
303.231
305.257
307.075
308.688
310.104
311.33
312.375
313.241
313.933
314.467
314.894
315.283
315.651
315.949
316.157
316.291
316.389
316.465
316.547
316.634
316.727
316.806
316.744
316.408
315.864
315.368
315.071
314.935
314.446
312.907
308.733
300.228
287.314
273.481
260.168
251.155
251.757
272.887
253.308
152.442
164.995
217.823
222.025
219.452
227.111
195.185
132.512
58.4585
-11.3397
-54.0587
-44.4542
23.7843
146.202
280.93
406.034
487.645
529.587
553.406
562.141
565.16
564.423
565.595
569.3
560.566
540.803
522.545
525.102
539.786
551.872
557.723
560.09
560.025
558.213
555.288
550.051
546.22
540.792
539.999
538.756
540.886
239.58
240.183
240.404
240.361
240.322
240.405
240.588
240.819
241.078
241.376
241.733
242.161
242.669
243.261
243.946
244.734
245.635
246.66
247.821
249.127
250.588
252.21
254
255.96
258.089
260.382
262.83
265.417
268.126
270.93
273.805
276.722
279.665
282.62
285.564
288.468
291.303
294.04
296.657
299.134
301.453
303.601
305.568
307.352
308.951
310.368
311.603
312.662
313.558
314.299
314.888
315.322
315.636
315.9
316.137
316.301
316.388
316.433
316.456
316.465
316.488
316.564
316.65
316.575
316.319
316.11
316.048
316.147
315.851
314.324
309.862
300.641
286.243
270.496
255.042
242.997
241.846
262.584
253.785
161.17
173.172
218.988
223.366
218.933
226.014
190.792
125.318
47.9878
-25.3666
-74.0532
-68.8349
-6.20213
116.432
254.897
387.492
477.056
523.515
550.009
559.828
564.555
563.712
564.607
568.674
560.906
542.311
523.798
525.234
539.077
551.13
557.326
559.951
560.088
558.483
555.646
550.432
546.564
540.79
539.749
538.242
540.333
242.965
243.524
243.743
243.723
243.702
243.789
243.966
244.186
244.43
244.706
245.032
245.419
245.873
246.398
247.001
247.69
248.474
249.362
250.364
251.489
252.744
254.138
255.678
257.367
259.209
261.203
263.344
265.624
268.032
270.55
273.158
275.832
278.548
281.291
284.049
286.803
289.528
292.198
294.788
297.273
299.633
301.852
303.919
305.826
307.57
309.146
310.548
311.778
312.842
313.756
314.531
315.167
315.646
315.954
316.12
316.229
316.364
316.447
316.445
316.365
316.297
316.33
316.508
316.669
316.776
316.925
317.23
317.717
317.669
316.196
311.496
301.645
285.82
267.868
249.934
234.641
231.552
252.532
253.013
174.812
183.6
227.105
226.497
220.209
225.776
187.24
118.975
37.9217
-39.8751
-94.8714
-94.8686
-38.2278
83.6113
225.639
366.053
464.51
516.297
546.025
557.128
563.604
562.89
563.529
567.944
561.242
544.07
525.659
525.912
538.593
550.345
556.824
559.716
560.106
558.74
556.022
550.844
546.757
540.807
539.494
537.672
539.707
246.244
246.762
246.976
246.973
246.967
247.057
247.227
247.435
247.665
247.921
248.22
248.571
248.979
249.447
249.981
250.587
251.272
252.046
252.915
253.887
254.97
256.171
257.497
258.954
260.545
262.273
264.138
266.135
268.258
270.497
272.837
275.262
277.75
280.281
282.836
285.408
287.981
290.537
293.051
295.497
297.854
300.1
302.22
304.207
306.051
307.746
309.285
310.661
311.879
312.944
313.865
314.648
315.294
315.796
316.14
316.329
316.365
316.351
316.422
316.401
316.264
316.132
316.301
316.671
317.159
317.729
318.46
319.379
319.89
318.597
313.807
303.326
285.896
265.871
245.765
227.374
221.297
242.581
250.234
186.599
186.787
233.759
230.904
223.99
227.37
184.788
113.89
29.0086
-54.0264
-115.648
-121.884
-71.8266
48.0038
193.162
341.507
449.746
507.771
541.248
554.001
562.045
561.962
562.393
566.465
561.55
546.015
528.191
527.14
538.39
549.584
556.21
559.365
560.016
558.986
556.386
551.295
547.113
540.852
539.247
537.058
539.005
249.424
249.902
250.109
250.121
250.127
250.218
250.38
250.578
250.793
251.032
251.306
251.625
251.993
252.412
252.887
253.423
254.026
254.702
255.459
256.304
257.241
258.28
259.425
260.683
262.058
263.554
265.173
266.915
268.776
270.752
272.833
275.008
277.262
279.577
281.934
284.315
286.712
289.115
291.51
293.873
296.181
298.412
300.547
302.574
304.48
306.256
307.892
309.383
310.729
311.931
312.99
313.906
314.675
315.298
315.789
316.164
316.433
316.572
316.473
316.254
316.182
316.132
316.257
316.543
317.258
318.36
319.801
321.444
322.326
321.437
316.652
306.084
287.319
264.888
242.055
220.376
211.324
232.396
246.313
196.709
187.59
243.433
236.111
230.629
231.604