/*--------------------------------*- C++ -*----------------------------------*\
| =========                 |                                                 |
| \\      /  F ield         | OpenFOAM: The Open Source CFD Toolbox           |
|  \\    /   O peration     | Version:  2412                                  |
|   \\  /    A nd           | Website:  www.openfoam.com                      |
|    \\/     M anipulation  |                                                 |
\*---------------------------------------------------------------------------*/
FoamFile
{
    version     2.0;
    format      ascii;
    arch        "LSB;label=32;scalar=64";
    class       surfaceScalarField;
    location    "0.785";
    object      ddtCorrDdt0(phi);
}
// * * * * * * * * * * * * * * * * * * * * * * * * * * * * * * * * * * * * * //

dimensions      [0 3 -2 0 0 0 0];

oriented        oriented;

internalField   nonuniform List<scalar> 
24930
(
-0.00111335
-0.0172392
-0.0120411
0.00338114
-0.00345375
0.00366257
0.00167272
0.00329221
0.00198399
0.00130642
0.00143763
-0.00176438
-0.000326282
-0.00275745
-0.00289028
0.00115147
-0.00303036
0.00829356
0.00174245
0.0131699
0.00712642
0.00649603
0.00946029
-0.00858714
0.00265537
-0.0186397
-0.00859434
-0.00897041
-0.0143578
0.0177212
-0.00470925
0.0394729
0.0140624
0.0299586
0.0241108
-0.0126785
0.0114723
-0.0578351
-0.0138349
-0.0627956
-0.0248867
-0.0208326
0.00271631
0.0745996
0.00287063
0.135508
-0.000856414
0.107404
-0.00657661
0.0210877
0.0234522
-0.143344
0.159256
-0.129724
-0.147502
0.0141034
-0.181725
0.051356
0.00270192
0.0161575
0.0709035
-0.0108715
0.0212592
-0.00998281
-0.016856
0.00127813
-0.0123121
0.00551674
0.0045999
0.00216729
0.00919055
-0.00130887
0.00208207
-0.00180953
-0.00365089
-0.0010169
-0.00259961
-0.000896118
0.000736934
-0.00102083
0.00136973
-0.000675477
-0.000387563
-0.000306213
-0.00144871
-0.000600039
-0.00124233
-0.0012975
-0.00136705
-0.00153908
-0.00239239
-0.00107656
-0.00322314
-0.000482455
-0.00315768
-0.000424213
-0.00274367
-0.000735555
-0.00288595
-0.00087886
-0.00337095
-0.000447497
-0.0034821
0.000254541
-0.00288045
0.000742074
-0.00199658
0.000831213
-0.0014294
0.000630871
-0.00165682
0.000655098
-0.00197575
0.000906327
-0.00115576
0.00140469
-0.00104726
0.00210696
-0.000768524
0.0027466
-0.000274196
0.00328728
0.000224187
0.00350662
0.000610011
0.00319793
0.000869167
0.00232437
0.000749576
0.000636937
0.000661191
-0.00117193
0.000618314
-0.0037778
0.000413679
-0.00569111
0.00259396
-0.00736246
0.00559911
-0.00891314
0.00386431
-0.011328
0.0018077
-0.0114984
0.00107684
-0.0127759
0.00260548
-0.00871902
0.00116849
-0.00737706
0.00258777
-0.00184842
0.00515287
-0.000965445
0.0054577
0.000981193
0.00154996
0.00451469
-0.01667
0.00707296
-0.00188281
0.0210939
-0.0141235
0.0200104
0.0028291
0.0365428
-0.0184746
0.0171106
0.00630964
0.0301284
-0.0141647
0.00194262
0.0117796
-0.0126647
0.00820666
-0.026892
-0.00383631
-0.0187324
0.0169987
-0.00808019
-0.0121417
-0.145912
0.151143
-0.138737
0.0272755
0.10654
-0.221237
0.000773749
0.0671892
0.00611941
0.0161621
0.00200325
-0.0292203
-0.0131334
0.0208484
-0.0106868
0.000232914
-0.0225956
0.0142709
-0.0124638
-0.00175271
0.0230013
-0.0243983
0.0682057
-0.0390198
0.0810353
-0.0171023
0.0753346
0.00376243
0.0298977
0.0255647
-0.0127475
0.0251336
-0.0402237
0.00862886
-0.0445863
-0.00333908
-0.0427502
-0.00564852
-0.0533504
0.00871798
-0.0419627
-0.00721263
-0.0293515
-0.0122331
-0.0178487
-0.0105156
-0.00469633
-0.0134132
-0.000708149
-0.00489131
0.00874225
-0.00893358
0.0150602
-0.0105805
0.00690898
0.00786703
-0.00585583
0.00857552
0.00140251
-0.000849381
-0.0110264
-0.0034713
0.000300204
-0.00336985
0.0013739
0.000250568
0.00155198
-6.99337e-05
-0.00089525
-0.00109721
-0.00377052
-0.0021564
-0.00273562
-0.00278136
0.00405278
-0.00105454
0.0120203
0.00353042
0.0121661
0.00689506
0.00118081
0.00540892
-0.0146258
-0.00290086
-0.0186833
-0.00964963
-0.00174202
-0.00656134
0.0275861
0.00492777
0.0416894
0.0143955
0.0190706
0.00843694
-0.0295326
-0.00947019
-0.0640937
-0.0115093
-0.0467179
0.0266557
0.0171609
0.0931153
0.100951
0.0278401
0.121016
-0.124415
0.0601489
-0.239829
-0.0301721
-0.108434
-0.135346
0.244256
-0.0849216
-0.141612
0.0426098
-0.0912877
0.0488305
0.0972721
0.00658287
0.102661
-0.0142411
0.0174767
-0.00802309
-0.0185528
0.00416642
-0.00733856
0.00692272
0.0044957
0.00246849
0.00336046
-0.00111106
-0.00137569
-0.00146146
-0.00169119
-0.000710993
9.79428e-05
-0.000603905
8.60607e-05
-0.000648454
-0.00166484
-0.000261369
-0.00208028
6.89953e-05
-0.000997174
-0.000312053
-0.000511204
-0.00102853
-0.00156761
-0.00118301
-0.00285456
-0.000601045
-0.0028309
7.04758e-05
-0.00177561
0.000154595
-0.00103243
-0.000119696
-0.00132316
-0.000163781
-0.00192037
0.000442854
-0.00191047
0.00136384
-0.00127435
0.00210557
-0.000730356
0.00243628
-0.000697194
0.00264836
-0.002333
0.00314702
-0.0027521
0.00403967
-0.00267513
0.00528074
-0.00256263
0.00682485
-0.00225392
0.00831211
-0.00179825
0.00954832
-0.00126528
0.0100294
-0.000578828
0.00919557
0.000524103
0.00670599
0.00193658
0.00202945
0.0038558
-0.00411844
0.00501644
-0.0118173
0.00575627
-0.0191927
0.00915706
-0.0261309
0.0113971
-0.0317526
0.00777785
-0.0363884
0.00508732
-0.0363738
0.00167897
-0.0356729
0.000782217
-0.0275723
-0.00205121
-0.0211389
-0.00403905
-0.00900725
-0.00567254
-0.00118898
-0.00726585
0.00829528
-0.00864533
0.0207578
-0.0297765
0.0340756
-0.0129935
0.0606666
-0.0224968
0.0724831
-0.0146395
0.0982965
-0.0275015
0.0762453
0.00386116
0.0777301
0.00327383
0.0216019
0.0385603
-0.0467002
0.092532
-0.114163
0.0603876
-0.0923045
-0.0237902
0.0504358
-0.183587
-0.512512
0.758189
-0.530369
-0.00606178
0.3115
-1.037
0.0477955
0.314268
-0.00290932
0.0917473
0.0272152
-0.0783421
-0.0522485
0.118422
-0.0383593
-0.0159946
-0.0666484
0.0380808
-0.0259841
-0.0391875
0.101177
-0.155707
0.238004
-0.160448
0.27825
-0.066258
0.228136
0.0626425
0.0837138
0.167111
-0.0606284
0.189703
-0.144678
0.0976408
-0.144895
0.000797145
-0.139665
-0.00766279
-0.166246
0.0278942
-0.137268
-0.0417943
-0.0918973
-0.0605793
-0.0534029
-0.0502924
-0.0156531
-0.0464393
0.00494616
-0.0257569
0.0343946
-0.0318434
0.0490662
-0.0232781
0.0149053
0.0454609
-0.0153683
0.0389747
0.00829867
-0.000495573
-0.00733298
-0.0012609
-0.000110063
-0.00319164
0.000767169
-0.000888072
0.000365433
-0.00183378
-0.0024324
-0.00301982
-0.00508173
-0.00307051
-0.00278514
-0.00147084
0.0055015
0.00227016
0.0133441
0.00610469
0.01107
0.00597706
-0.00310094
0.000471139
-0.0191629
-0.00717416
-0.0189025
-0.00795655
0.00506262
0.00117727
0.0354741
0.0115492
0.0422608
0.00967496
0.00868283
-0.00712804
-0.0441711
-0.0199013
-0.0669558
0.00419231
-0.0240384
0.0726235
0.0686672
0.129868
0.116793
0.0232029
0.0760324
-0.211147
-0.0260173
-0.422354
-0.092083
-0.240608
-0.0879706
0.212587
-0.0188182
-0.0553389
0.0647627
0.0411292
0.0430672
0.159698
-0.00291094
0.100675
-0.0172481
0.00472631
-0.0066675
-0.0224086
0.00597999
-0.00524146
0.00767093
0.00477433
0.00257726
0.00111606
-0.000974197
-0.0028684
-0.0011862
-0.00129876
-0.000435294
0.000806145
-0.000335027
-0.000338265
-0.000280049
-0.00271424
0.000230868
-0.00277245
0.000623106
-0.00112642
0.000247956
-0.000632786
-0.000428851
-0.00202216
-0.00046346
-0.00337896
0.000269859
-0.00304311
0.00106038
-0.0016866
0.0012117
-0.000949466
0.00100249
-0.00141382
0.00106896
-0.00210346
0.00185032
-0.00198934
0.00298465
-0.00127387
0.00396123
-0.000853257
0.00459741
-0.00115193
0.0051511
-0.0027226
0.00610738
-0.00410447
0.00760713
-0.00432052
0.0095727
-0.00407694
0.0119277
-0.00370079
0.0141996
-0.0032639
0.0160145
-0.00261651
0.0165803
-0.00142237
0.014979
0.000934962
0.0104951
0.00459802
0.00233997
0.0095686
-0.00865611
0.0137061
-0.0217953
0.0176519
-0.0349452
0.0225605
-0.047324
0.0194649
-0.0567104
0.0165489
-0.0629363
0.00977302
-0.0619451
0.000888256
-0.0582762
-0.00520106
-0.0452146
-0.0114029
-0.032786
-0.0166177
-0.0133759
-0.0207421
0.00194588
-0.0261421
0.0193977
-0.0260731
0.0414072
-0.0424392
0.0658487
-0.0345817
0.104896
-0.0473971
0.129104
-0.046289
0.163779
-0.0496265
0.136013
0.00239408
0.124314
0.0360397
0.0418921
0.0936944
-0.0829022
0.22458
-0.217322
0.191771
-0.188832
-0.049204
0.111591
-0.518629
-0.900121
1.83052
-0.99884
0.0555869
0.483291
-2.52718
0.115799
0.658776
-0.00410185
0.240946
0.0491579
-0.162944
-0.0918372
0.274303
-0.0655675
-0.0461318
-0.106783
0.0766374
-0.0271562
-0.11234
0.20153
-0.388681
0.432576
-0.379779
0.483561
-0.128657
0.367105
0.188406
0.116217
0.410875
-0.130475
0.43877
-0.26019
0.22929
-0.244898
-0.0160982
-0.233543
-0.0186864
-0.280911
0.0697079
-0.23562
-0.0894327
-0.157704
-0.140595
-0.0900247
-0.118909
-0.0257008
-0.106983
0.0151698
-0.0681595
0.0642577
-0.0763914
0.0827825
-0.0432419
0.0187671
0.112011
-0.0362327
0.092455
0.00874478
0.000865753
-0.00467487
-0.00252488
0.00176308
-0.00175767
0.00209298
-0.000696437
0.000759581
-0.00221641
-0.0024395
-0.00336687
-0.00467355
-0.00263493
-0.00138698
4.21279e-05
0.00745801
0.00424458
0.0144133
0.00708393
0.0100592
0.0047502
-0.0059039
-0.00249978
-0.0210854
-0.00868083
-0.0175029
-0.00559386
0.00936309
0.0060736
0.0392593
0.0138328
0.0412969
0.00453515
0.00312244
-0.0168694
-0.0482121
-0.0219238
-0.0626225
0.0207974
-0.0096189
0.0999731
0.0800913
0.131316
0.109731
-0.0137514
0.0383693
-0.285782
-0.0957417
-0.483829
-0.119787
-0.298676
-0.0170504
0.133463
0.0390658
0.153545
0.071111
0.113812
0.0333349
0.170468
-0.0117992
0.0739056
-0.0194972
-0.013828
-0.00517093
-0.0256226
0.00750203
-0.00303586
0.00820157
0.00530372
0.00264771
-0.000225576
-0.000840363
-0.00364276
-0.000981167
-0.000915142
-0.000269465
0.00124124
-0.000173061
-0.00073419
1.07837e-05
-0.00341401
0.000667326
-0.00315566
0.00112496
-0.00116828
0.000761419
-0.000788586
0.000141668
-0.00249192
0.000250875
-0.00388745
0.00115745
-0.00326714
0.00208557
-0.00166947
0.00232413
-0.000973172
0.00220557
-0.00160465
0.00241416
-0.00236421
0.00340534
-0.00213451
0.00479066
-0.00134823
0.00604593
-0.0010928
0.00701881
-0.00187501
0.00796416
-0.00383981
0.00939659
-0.00581532
0.0115374
-0.00622262
0.0142559
-0.00603681
0.0174325
-0.0057198
0.0204703
-0.00531892
0.0228041
-0.00440274
0.023332
-0.00228
0.0207557
0.00209971
0.0140041
0.00915879
0.002005
0.0186603
-0.0142578
0.0275654
-0.033595
0.0356533
-0.0523222
0.0385335
-0.0703013
0.0352199
-0.0830691
0.0292581
-0.0903805
0.0152111
-0.0877393
-0.00168718
-0.0803004
-0.0152946
-0.0612934
-0.0262062
-0.0419898
-0.0359922
-0.0145546
-0.0431329
0.00906273
-0.0532639
0.0345971
-0.0545619
0.0667803
-0.0643843
0.102576
-0.0699022
0.154392
-0.0857346
0.204856
-0.0997089
0.230534
-0.0665257
0.194773
0.00620126
0.16916
0.0844903
0.0622796
0.172491
-0.123807
0.424918
-0.335628
0.403007
-0.31271
-0.0675103
0.135794
-1.01013
-1.33083
3.37561
-1.5272
0.217107
0.625049
-4.715
0.192807
1.06715
0.00507152
0.463468
0.0670917
-0.259633
-0.131656
0.490811
-0.0913084
-0.0905324
-0.140284
0.123246
-0.0111825
-0.235227
0.329453
-0.735959
0.64561
-0.685253
0.685471
-0.181163
0.484868
0.399556
0.119506
0.770519
-0.220618
0.798948
-0.380306
0.39423
-0.337488
-0.0603468
-0.323001
-0.0326154
-0.394931
0.13611
-0.336812
-0.149489
-0.226701
-0.252539
-0.12792
-0.218331
-0.0344725
-0.196388
0.0301491
-0.133657
0.100296
-0.140818
0.114615
-0.0584059
0.0176808
0.211908
-0.0554509
0.164438
0.00758166
0.00235944
-0.0020829
-0.00310268
0.00377033
-6.40034e-05
0.00375882
-2.83718e-06
0.00168902
-0.00183276
-0.0017594
-0.00278505
-0.00331841
-0.00149022
0.000879156
0.00156112
0.00975879
0.00526339
0.0153512
0.00678565
0.00902908
0.00317276
-0.0078548
-0.00401881
-0.0215447
-0.00807898
-0.0151874
-0.00257075
0.0130319
0.00904616
0.0412818
0.0131477
0.0398704
-0.000723513
0.000449052
-0.0220134
-0.0471778
-0.0191353
-0.0551743
0.0325127
-0.00226081
0.106683
0.0732431
0.111186
0.0872136
-0.0495608
0.0118849
-0.30862
-0.102294
-0.439359
-0.102392
-0.199014
0.0153985
0.192993
0.0828777
0.34726
0.0515801
0.203082
0.020044
0.14548
-0.0198637
0.0369492
-0.0206753
-0.0329098
-0.00327454
-0.0257972
0.00899192
1.62624e-05
0.00871254
0.00615128
0.00283698
-0.000810806
-0.000560809
-0.00378489
-0.000692604
-0.00057712
-6.02007e-05
0.00128339
5.9407e-05
-0.00133009
0.000411627
-0.00414381
0.00123213
-0.00357582
0.0017485
-0.00143633
0.00139281
-0.00129466
0.000843371
-0.00329672
0.00111916
-0.00467755
0.00221842
-0.00376296
0.00329724
-0.00194587
0.00363645
-0.00128528
0.0036277
-0.00203834
0.00400349
-0.00282392
0.00523096
-0.00248043
0.00689275
-0.00167759
0.00844781
-0.0016956
0.00976082
-0.0030781
0.0111319
-0.00544557
0.0130711
-0.00789274
0.0158616
-0.00864538
0.019332
-0.00864678
0.0233061
-0.00842656
0.0270536
-0.00795861
0.0298108
-0.00644318
0.0301632
-0.00272044
0.0264265
0.00477087
0.0171661
0.0167096
0.00101893
0.0324855
-0.020873
0.0478004
-0.0463
0.0598178
-0.0716658
0.062862
-0.0945791
0.0577857
-0.110379
0.0453401
-0.118111
0.020287
-0.113033
-0.00750375
-0.100977
-0.0309744
-0.0750723
-0.0481031
-0.0480199
-0.0640947
-0.0119436
-0.0745767
0.0200807
-0.0892756
0.054375
-0.0865846
0.0964221
-0.1032
0.144158
-0.118373
0.208766
-0.136638
0.245153
-0.145271
0.297832
-0.104543
0.250548
0.0206654
0.210499
0.150845
0.0841429
0.271333
-0.166612
0.681041
-0.465421
0.704579
-0.459222
-0.0663312
0.0686245
-1.59129
-1.82586
5.36803
-2.06058
0.412523
0.751014
-7.58567
0.282862
1.51512
0.0268006
0.757553
0.0816033
-0.351278
-0.1719
0.764579
-0.115645
-0.151746
-0.164578
0.169864
0.0267196
-0.421828
0.486536
-1.20634
0.874505
-1.06402
0.873944
-0.193748
0.569683
0.717731
0.0933756
1.24241
-0.328139
1.22277
-0.496278
0.56589
-0.417527
-0.142025
-0.405414
-0.0449276
-0.509384
0.234368
-0.438282
-0.223123
-0.298719
-0.394641
-0.168214
-0.350287
-0.0419634
-0.318863
0.0501726
-0.22605
0.138573
-0.223756
0.143674
-0.0648532
0.0120642
0.347077
-0.0763705
0.251537
0.00216184
0.00353957
-0.000321631
-0.00329297
0.00520711
0.00117669
0.00489967
0.000904429
0.00219099
-0.000977074
-0.00125161
-0.00185512
-0.00183319
-0.00031655
0.00332199
0.00264783
0.0120143
0.00545019
0.0160791
0.0057795
0.00805502
0.00180392
-0.00910583
-0.00416923
-0.0210008
-0.00588784
-0.0124209
0.000834688
0.0160486
0.0106021
0.0421141
0.0104899
0.0384484
-0.00609855
0.000192704
-0.0248394
-0.0424372
-0.0153697
-0.0465349
0.0381725
0.000628879
0.1007
0.0588937
0.0868263
0.0608173
-0.0641244
-0.00502174
-0.271655
-0.0853324
-0.331474
-0.0664894
-0.080669
0.0397409
0.242931
0.0920296
0.337783
0.045661
0.178983
-0.00156869
0.0414222
-0.0262184
0.00441946
-0.0202595
-0.0476781
-0.000770075
-0.0220358
0.0105338
0.00447732
0.00923159
0.00709099
0.00316614
-0.00120649
-9.82803e-05
-0.00362611
-0.000261467
-0.000269507
0.000258782
0.00106722
0.000430642
-0.00206218
0.000995451
-0.00482095
0.00199192
-0.00391643
0.00255382
-0.00175579
0.00219952
-0.00197097
0.00173501
-0.00428581
0.00220071
-0.00562292
0.00350809
-0.00441844
0.00474356
-0.00242819
0.00519074
-0.00184055
0.0053069
-0.00271927
0.005871
-0.0035265
0.00735441
-0.00309069
0.00930802
-0.00231906
0.0111743
-0.00267312
0.012837
-0.00467
0.0146454
-0.00762453
0.0171111
-0.0105068
0.0205443
-0.011705
0.0247421
-0.0119978
0.0294647
-0.0118967
0.0338464
-0.0112477
0.0369266
-0.00880295
0.0369842
-0.00282214
0.0319488
0.00884499
0.0200362
0.0271266
-0.00044336
0.0509543
-0.0281511
0.0743089
-0.0601994
0.0907736
-0.0917391
0.0951246
-0.119735
0.0862613
-0.138109
0.0640027
-0.145645
0.0249514
-0.137365
-0.0166942
-0.119849
-0.0525384
-0.0861632
-0.0778821
-0.0506921
-0.100973
-0.00553183
-0.115097
0.0354959
-0.134923
0.0784316
-0.135463
0.130534
-0.153912
0.19037
-0.17903
0.268008
-0.199735
0.312817
-0.201112
0.364383
-0.140446
0.301681
0.0483648
0.247906
0.233323
0.106821
0.383756
-0.212558
1.0358
-0.604306
1.10236
-0.619546
-0.0427796
-0.128059
-2.14419
-2.37536
7.74012
-2.51533
0.515483
0.892455
-11.0734
0.390461
1.99856
0.0628773
1.12438
0.0938553
-0.4217
-0.212176
1.09365
-0.138568
-0.230949
-0.176467
0.205736
0.0907175
-0.685329
0.676042
-1.80639
1.11031
-1.48915
1.03651
-0.133894
0.61564
1.15457
0.0359072
1.81908
-0.441326
1.72566
-0.599967
0.728509
-0.48204
-0.263414
-0.482731
-0.0443385
-0.622922
0.368903
-0.539915
-0.308841
-0.37569
-0.561349
-0.212445
-0.515662
-0.0484412
-0.479142
0.0744462
-0.351389
0.179791
-0.323337
0.169016
-0.0554319
0.00225016
0.517799
-0.0982807
0.350773
-0.0086647
0.00445729
0.000840937
-0.00362668
0.00607313
0.00211358
0.00530524
0.00169837
0.00205554
-0.000199083
-0.00117404
-0.00107932
-0.00065872
0.000413182
0.00546329
0.00299844
0.0139533
0.00488256
0.0166629
0.00447051
0.00740447
0.000980202
-0.00951627
-0.0030954
-0.0196202
-0.00268415
-0.00954255
0.0041668
0.0182369
0.0109731
0.0419567
0.00665236
0.0372896
-0.0113784
0.0020163
-0.0266931
-0.0353126
-0.0124435
-0.0383212
0.0391778
-0.000642229
0.0901406
0.0403163
0.069985
0.0355642
-0.0537184
-0.0127681
-0.198609
-0.0593784
-0.206436
-0.0308161
0.00819748
0.0562069
0.241002
0.0840948
0.260808
0.0343985
0.1001
-0.0170578
-0.0330638
-0.0258361
-0.0655992
-0.0172911
-0.0516548
0.00235083
-0.0155247
0.0120301
0.009831
0.00972206
0.00783007
0.0036348
-0.00158439
0.000536502
-0.00319429
0.000297829
8.28095e-06
0.000680431
0.000625577
0.000939632
-0.0028917
0.00176013
-0.00539847
0.00293576
-0.00414322
0.00352225
-0.00210319
0.00316224
-0.00279515
0.00280138
-0.00542801
0.00348322
-0.00668292
0.00501312
-0.00519028
0.00640825
-0.00307655
0.00696907
-0.00260421
0.00722491
-0.00361596
0.00799756
-0.00444285
0.00975294
-0.00393978
0.0120074
-0.00324978
0.0141899
-0.00400171
0.0162051
-0.00665364
0.0184467
-0.0103253
0.0214415
-0.0137258
0.0254937
-0.0154179
0.0303727
-0.0160733
0.035774
-0.0160894
0.0407012
-0.0151254
0.0440074
-0.011409
0.0436852
-0.00251231
0.037341
0.0143317
0.0226914
0.0405219
-0.00215493
0.0741363
-0.0357543
0.10717
-0.0745796
0.129105
-0.112447
0.134796
-0.145132
0.119412
-0.165699
0.084951
-0.172445
0.028602
-0.160242
-0.0300166
-0.136533
-0.0807744
-0.0942877
-0.116271
-0.0498517
-0.147261
0.00473178
-0.165214
0.0547226
-0.190552
0.106259
-0.181869
0.168353
-0.214298
0.240862
-0.25281
0.33186
-0.275491
0.382142
-0.264172
0.428794
-0.170025
0.346337
0.0939312
0.280858
0.330092
0.132954
0.503928
-0.260338
1.45538
-0.74966
1.59919
-0.775593
-0.00745622
-0.433509
-2.55315
-2.90647
10.3637
-2.79166
0.365019
1.09135
-15.0277
0.523942
2.5519
0.114902
1.58117
0.10608
-0.453674
-0.252095
1.47708
-0.160149
-0.32928
-0.173129
0.216671
0.18503
-1.03513
0.734862
-2.37337
1.34261
-2.08905
1.16222
0.0325672
0.620255
1.71534
-0.0404212
2.47952
-0.557531
2.2596
-0.685354
0.858447
-0.533391
-0.419712
-0.558093
-0.0198219
-0.736387
0.541472
-0.64021
-0.408172
-0.391223
-0.813405
-0.263138
-0.646293
-0.0549219
-0.683719
0.10319
-0.509854
0.221469
-0.435779
0.190529
-0.0259554
-0.0107664
0.723588
-0.120676
0.459307
-0.0255009
0.00524691
0.00149505
-0.00411997
0.00658809
0.00246146
0.00522843
0.00194882
0.00154939
0.000234102
-0.00138886
-0.000617537
0.000127358
0.000633844
0.00708843
0.0027085
0.0154015
0.00386201
0.0171176
0.00323113
0.00721285
0.000836636
-0.00908731
-0.00114414
-0.0176903
0.00084039
-0.00698674
0.00691372
0.0193567
0.0103371
0.0409688
0.00240611
0.0366992
-0.0160007
0.00587345
-0.0278488
-0.0262952
-0.0107277
-0.030376
0.037184
-0.00398451
0.079711
0.0221247
0.0630291
0.015042
-0.0257413
-0.0147635
-0.11487
-0.0319394
-0.099338
-0.000754732
0.0540824
0.0637085
0.192867
0.071149
0.15693
0.021073
0.0098833
-0.0233759
-0.08871
-0.0285749
-0.0900533
-0.0108647
-0.0442923
0.00620449
-0.00138579
0.0133202
0.0148733
0.0101646
0.00818745
0.00427664
-0.0018743
0.00134175
-0.00249262
0.0009756
0.000218903
0.00120436
-3.48779e-05
0.00159426
-0.00376751
0.0027084
-0.0058233
0.00405229
-0.00423078
0.00463254
-0.00247107
0.00425946
-0.00375351
0.004025
-0.00669129
0.00495066
-0.00781482
0.00671447
-0.0060387
0.00826784
-0.00386001
0.00894538
-0.00355247
0.00935424
-0.00470743
0.0103532
-0.00555465
0.0123908
-0.00501533
0.0149464
-0.00446411
0.0174393
-0.0056795
0.019799
-0.00903692
0.0224592
-0.0135109
0.025965
-0.0175289
0.0305956
-0.0197489
0.0360907
-0.0208133
0.0420852
-0.020932
0.0474659
-0.0195159
0.05092
-0.0142001
0.050185
-0.00177069
0.0422759
0.021488
0.025297
0.0564595
-0.00377736
0.101867
-0.0431619
0.146239
-0.0887061
0.174617
-0.132881
0.180362
-0.170218
0.157402
-0.19268
0.107931
-0.198144
0.0308145
-0.18139
-0.0480391
-0.150879
-0.116234
-0.0994579
-0.163944
-0.0457279
-0.203189
0.0183305
-0.224859
0.0763052
-0.254562
0.137246
-0.233966
0.209765
-0.284735
0.295368
-0.340264
0.400244
-0.364267
0.453068
-0.331328
0.489528
-0.188217
0.383169
0.161408
0.311164
0.435882
0.166628
0.618743
-0.312781
1.75874
-0.900002
2.19537
-0.9074
0.0100059
-0.762868
-2.76931
-3.28473
13.0586
-2.80058
-0.154029
1.38782
-19.3016
0.694754
3.23772
0.184484
2.15322
0.120964
-0.432034
-0.290711
1.9162
-0.179924
-0.447162
-0.152051
0.186472
0.310751
-1.49668
1.09204
-3.17513
1.56116
-2.54977
1.24381
0.336242
0.59181
2.38845
-0.121095
3.19096
-0.651456
2.86502
-0.750731
0.957984
-0.578748
-0.596578
-0.637776
0.039274
-0.849327
0.74738
-0.738073
-0.522833
-0.521843
-1.03303
-0.323666
-0.847258
-0.06154
-0.942255
0.136129
-0.709635
0.263311
-0.556878
0.208589
0.0272901
-0.0273286
0.964495
-0.142948
0.573397
-0.0482699
0.00602021
0.00154519
-0.00490937
0.00692872
0.00222528
0.00492512
0.00173593
0.000924924
0.000350645
-0.0016912
-0.00042918
0.000677307
0.000535664
0.00827422
0.00214653
0.0163991
0.00283067
0.0174718
0.00234676
0.00743026
0.00126406
-0.00808987
0.00113931
-0.015733
0.00398011
-0.00532509
0.00869712
0.0190986
0.00901974
0.0392198
-0.00137157
0.0368739
-0.0191835
0.011721
-0.0280779
-0.0155974
-0.010086
-0.0222646
0.0330952
-0.00749598
0.0702273
0.00643935
0.0623789
0.000421922
0.00695233
-0.0118241
-0.042258
-0.00824008
-0.0250192
0.0209904
0.0623425
0.0635312
0.121904
0.0566393
0.0571022
0.0100064
-0.0612715
-0.0252631
-0.117619
-0.025038
-0.0897686
-0.00625265
-0.029612
0.0103443
0.0125389
0.0138726
0.0204386
0.0104825
0.00897889
0.00511484
-0.00207406
0.00230963
-0.00149851
0.00175752
0.000334968
0.00183139
-0.000912642
0.00240388
-0.00462742
0.00383908
-0.00605007
0.0053216
-0.00418102
0.00585475
-0.00288386
0.00546329
-0.00485622
0.00538333
-0.00806011
0.00658112
-0.0089918
0.00858576
-0.00694267
0.0102905
-0.00476661
0.0110849
-0.00467711
0.0116581
-0.00598305
0.012897
-0.00684948
0.0152193
-0.006308
0.0180654
-0.00595656
0.0208512
-0.00770103
0.0235365
-0.0118163
0.0265853
-0.0171351
0.0305667
-0.0218614
0.0357196
-0.0246339
0.0417512
-0.0261358
0.0482469
-0.0263411
0.0539991
-0.0243501
0.0575609
-0.0171483
0.0564597
-0.000649957
0.0475601
0.0297335
0.0281017
0.0750824
-0.00487685
0.133803
-0.049776
0.191206
-0.101951
0.227157
-0.152474
0.232725
-0.194444
0.20019
-0.218691
0.132805
-0.222561
0.031257
-0.20079
-0.0712263
-0.163031
-0.159321
-0.101996
-0.221493
-0.0388438
-0.26883
0.03461
-0.293926
0.102692
-0.32917
0.168965
-0.307015
0.254169
-0.367368
0.353618
-0.442127
0.47325
-0.467187
0.525034
-0.398473
0.545037
-0.188544
0.411196
0.254464
0.340691
0.542357
0.203335
0.722369
-0.370917
2.53449
-1.05622
2.89498
-1.00164
-0.0343908
-0.986468
-2.85975
-3.3663
15.6212
-2.49588
-1.05696
1.79742
-23.6083
0.908452
4.12379
0.261885
2.85946
0.141042
-0.353636
-0.326655
2.41314
-0.197331
-0.584253
-0.111543
0.0980933
0.468562
-2.0733
1.34836
-4.07719
1.75342
-2.94656
1.28228
0.794312
0.545234
3.14887
-0.193382
3.92683
-0.719003
3.33909
-0.801854
1.04202
-0.629608
-0.774274
-0.728895
0.138903
-0.962547
0.975329
-0.830627
-0.658495
-0.613588
-1.25387
-0.399174
-1.06457
-0.0716571
-1.26625
0.171489
-0.955131
0.303678
-0.682697
0.224089
0.105402
-0.0383773
1.23234
-0.16463
0.698027
-0.0762582
0.00669451
0.00130987
-0.00591208
0.0071936
0.0018039
0.00453723
0.00133292
0.000313798
0.000272459
-0.00191657
-0.000360191
0.00119994
0.000399641
0.00926633
0.00168859
0.0171965
0.00214006
0.0178685
0.00192507
0.00797185
0.00196542
-0.0068912
0.00317726
-0.0143206
0.00624348
-0.0051116
0.00946825
0.0171618
0.00754502
0.0366621
-0.0038507
0.0377464
-0.0202961
0.0192636
-0.0272041
-0.00345342
-0.0105307
-0.0134403
0.0267642
-0.0096072
0.0599272
-0.00531097
0.0618359
-0.00913748
0.0331767
-0.00805094
0.00863322
0.00841488
0.0169475
0.0334135
0.0500341
0.0579506
0.0556423
0.0432686
-0.0141507
0.00321473
-0.0965146
-0.0227859
-0.115434
-0.0185439
-0.0701425
-0.000665897
-0.0102881
0.0130475
0.0224543
0.0154783
0.0215952
0.00993766
0.00725946
0.00606292
-0.00112262
0.00339453
-0.000866197
0.00262086
0.000186486
0.00256824
-0.00198205
0.00337928
-0.00540373
0.00514496
-0.0060507
0.00671284
-0.00403249
0.00714866
-0.00340139
0.00673868
-0.00613415
0.00684741
-0.00953156
0.00834431
-0.0102015
0.01059
-0.00789993
0.0124327
-0.00580229
0.0133406
-0.00598268
0.0140864
-0.00743931
0.0155737
-0.00831788
0.0181738
-0.00780889
0.0212875
-0.00771894
0.0243354
-0.010054
0.0273155
-0.0149709
0.0307124
-0.0211507
0.0351182
-0.0266483
0.0407258
-0.0299922
0.0472084
-0.0319507
0.0541177
-0.0322377
0.0601849
-0.0295837
0.0638712
-0.02028
0.0625429
0.000709089
0.0528307
0.0388953
0.0314011
0.0958723
-0.00494265
0.169381
-0.0549291
0.241595
-0.113574
0.286449
-0.170564
0.291835
-0.217388
0.247994
-0.243582
0.159708
-0.245803
0.0298682
-0.218766
-0.0998168
-0.1735
-0.21024
-0.102606
-0.289017
-0.0300727
-0.344059
0.0525472
-0.372181
0.126954
-0.409445
0.206435
-0.392622
0.301441
-0.459867
0.41564
-0.559352
0.552186
-0.586745
0.597227
-0.459591
0.593821
-0.163821
0.429296
0.376382
0.373723
0.635771
0.253402
0.805366
-0.449642
3.24794
-1.21942
3.68124
-1.05743
-0.186606
-1.03358
-2.96087
-3.0612
17.8278
-1.86837
-2.28382
2.33337
-27.8
1.18256
5.2964
0.357504
3.74976
0.169829
-0.209177
-0.358068
2.97181
-0.210578
-0.740094
-0.0445128
-0.0709699
0.660037
-2.77666
1.61211
-5.05287
1.90873
-3.23443
1.27135
1.41922
0.500605
3.94464
-0.25025
4.67099
-0.775636
3.8693
-0.843701
1.11057
-0.698952
-0.924898
-0.838337
0.279029
-1.07661
1.20782
-0.913854
-0.825263
-0.709779
-1.46194
-0.494995
-1.28229
-0.087811
-1.66997
0.208063
-1.25353
0.341952
-0.809896
0.238302
0.207581
-0.0503335
1.52674
-0.185243
0.831134
-0.108139
0.00724115
0.00120064
-0.00686586
0.0074648
0.00152275
0.0041455
0.00100853
-0.000217013
0.000216478
-0.00198816
-0.000218619
0.00182459
0.000414939
0.0102896
0.00150221
0.0180806
0.00186942
0.0185121
0.00184307
0.00882494
0.00256158
-0.0057122
0.00453194
-0.0137477
0.00749348
-0.00657113
0.00956059
0.0134363
0.00655503
0.0331448
-0.0044606
0.0388634
-0.0191578
0.0277382
-0.0254068
0.00955594
-0.0123115
-0.0036555
0.0176621
-0.00935376
0.0466943
-0.012711
0.0565395
-0.0149069
0.0474053
-0.00560685
0.0378316
0.0170941
0.0375959
0.0377685
0.0369084
0.0500222
0.015268
0.033081
-0.0438118
0.00157041
-0.0929759
-0.0156208
-0.0883002
-0.010449
-0.0393842
0.00457283
0.00805854
0.0149018
0.0273284
0.0157667
0.019606
0.0114691
0.00558945
0.00665691
-0.00234632
0.00450188
-0.000865364
0.00352658
-0.000416684
0.0034348
-0.00315451
0.00454009
-0.00597648
0.006613
-0.00583155
0.00818423
-0.00387021
0.00846588
-0.00411583
0.00804605
-0.00762906
0.00838379
-0.0111073
0.0102023
-0.0114416
0.0126798
-0.00892392
0.0146391
-0.00698644
0.0156538
-0.00748066
0.0165774
-0.00907426
0.0183146
-0.00994885
0.0211748
-0.00950651
0.0245199
-0.00973817
0.0277868
-0.0127178
0.0310195
-0.0184659
0.0347174
-0.0254992
0.0394861
-0.0318022
0.0454761
-0.0357366
0.0523279
-0.0381717
0.0595822
-0.0385627
0.0659498
-0.0352156
0.0698505
-0.0236951
0.0685385
0.00206278
0.0583962
0.0485976
0.0355855
0.118228
-0.00342229
0.207877
-0.0579306
0.296785
-0.122867
0.352241
-0.186591
0.357923
-0.238782
0.301276
-0.267458
0.18913
-0.268322
0.026934
-0.236037
-0.133773
-0.183186
-0.268998
-0.102367
-0.366645
-0.0205755
-0.42865
0.0710464
-0.459407
0.15532
-0.499255
0.2433
-0.48122
0.351504
-0.566028
0.481567
-0.692974
0.598957
-0.686052
0.668278
-0.546202
0.634666
-0.107083
0.439408
0.527292
0.413457
0.701186
0.305801
0.875117
-0.554998
4.12038
-1.39067
4.53482
-1.0849
-0.483586
-0.939364
-3.1844
-2.94731
20.0614
-1.07454
-4.25249
2.85552
-31.8605
1.51516
6.66285
0.472037
4.86086
0.208465
0.0107898
-0.382658
3.59495
-0.217309
-0.914307
0.0487333
-0.340785
0.88023
-3.60912
1.87586
-6.07379
2.02494
-3.37233
1.23391
2.19813
0.484584
4.7204
-0.267308
5.41675
-0.803861
4.41589
-0.891102
1.19631
-0.797704
-1.02436
-0.971053
0.453532
-1.19268
1.42343
-0.981588
-1.04067
-0.80705
-1.64054
-0.615656
-1.47662
-0.114443
-2.16779
0.243496
-1.61448
0.37836
-0.937694
0.252764
0.331704
-0.0584514
1.84405
-0.20448
0.975161
-0.142298
0.00768201
0.00136143
-0.00755437
0.00765953
0.00154771
0.00374763
0.000926469
-0.000647131
0.000320857
-0.00190007
6.22317e-05
0.00257711
0.000596966
0.011428
0.00151896
0.0191972
0.00182933
0.0195407
0.00182088
0.0100392
0.00274388
-0.00453095
0.0050212
-0.0138598
0.00790011
-0.00938537
0.00949575
0.00819829
0.00658704
0.0285419
-0.00303171
0.0394319
-0.0160394
0.0358622
-0.023057
0.0223202
-0.0154575
0.00676796
0.00595829
-0.00647562
0.0300408
-0.0158996
0.0452339
-0.0178272
0.0501727
-0.00496615
0.0517966
0.0193348
0.0497835
0.0368113
0.0361008
0.0424861
0.00790553
0.0272944
-0.0348865
0.00403138
-0.0609087
-0.0078808
-0.0480058
-0.00233549
-0.0100138
0.00885974
0.0199778
0.0159259
0.0264985
0.0160238
0.0151691
0.0123789
0.00373092
0.0082438
-0.00121861
0.00602205
-0.000521079
0.00453223
-0.00109366
0.00439931
-0.00418013
0.00590232
-0.00622694
0.008224
-0.0054591
0.00968748
-0.00378977
0.00975445
-0.00514012
0.00934601
-0.00937983
0.00995776
-0.0127864
0.0121114
-0.0127161
0.0147991
-0.0100409
0.0168456
-0.00834721
0.0179573
-0.00918325
0.0190606
-0.0108822
0.021042
-0.0117258
0.0241332
-0.0113844
0.0276608
-0.0119944
0.0310927
-0.0156628
0.0345274
-0.022254
0.0384773
-0.0301159
0.0435449
-0.0372294
0.0498494
-0.0417819
0.057004
-0.0447284
0.0645666
-0.045291
0.0712755
-0.041302
0.0755634
-0.0275775
0.0746127
0.00306622
0.0645356
0.0583463
0.0410354
0.14144
0.000232201
0.248409
-0.0581238
0.356038
-0.129198
0.424395
-0.200127
0.431357
-0.258569
0.36086
-0.29072
0.222024