/*--------------------------------*- C++ -*----------------------------------*\
| =========                 |                                                 |
| \\      /  F ield         | OpenFOAM: The Open Source CFD Toolbox           |
|  \\    /   O peration     | Version:  2412                                  |
|   \\  /    A nd           | Website:  www.openfoam.com                      |
|    \\/     M anipulation  |                                                 |
\*---------------------------------------------------------------------------*/
FoamFile
{
    version     2.0;
    format      ascii;
    arch        "LSB;label=32;scalar=64";
    class       volScalarField;
    location    "0.785";
    object      p;
}
// * * * * * * * * * * * * * * * * * * * * * * * * * * * * * * * * * * * * * //

dimensions      [0 2 -2 0 0 0 0];

internalField   nonuniform List<scalar> 
12600
(
-0.483383
-84.6005
-62.564
-11.056
32.9596
66.6469
93.4276
115.651
134.623
151.114
165.58
178.382
189.753
199.897
209.049
217.37
225.025
231.937
238.077
243.436
248.216
252.678
257.163
261.616
265.654
268.918
271.069
272.939
275.334
277.752
279.783
281.467
282.995
284.46
285.823
287.038
288.112
289.081
289.969
290.777
291.505
292.163
292.756
293.285
293.748
294.153
294.507
294.813
295.067
295.266
295.412
295.517
295.588
295.629
295.641
295.622
295.573
295.493
295.37
295.182
294.896
294.476
293.915
293.248
292.607
292.204
292.287
293.022
294.429
296.347
298.421
300.215
301.386
301.68
301
299.306
296.527
292.852
288.235
282.683
274.954
265.688
255.028
244.334
237.601
237.594
252.455
272.169
317.777
326.304
343.751
346.781
189.498
214.63
269.437
221.387
252.137
238.037
248.484
241.107
235.832
196.501
152.484
124.1
131.872
178.753
249.419
328.719
394.242
437.191
471.698
495.831
511.398
512.34
513.734
506.979
501.732
494.326
500.748
506.625
59.486
-17.864
-27.4203
-1.47663
31.7007
62.6694
89.1532
111.629
130.959
147.816
162.673
175.81
187.47
197.87
207.342
215.902
223.725
230.745
236.96
242.429
247.4
252.136
256.796
261.202
265.032
268.087
270.352
272.527
275.105
277.524
279.52
281.211
282.778
284.278
285.661
286.888
287.976
288.96
289.862
290.682
291.422
292.091
292.693
293.229
293.699
294.11
294.471
294.784
295.042
295.246
295.397
295.506
295.581
295.625
295.639
295.622
295.574
295.495
295.373
295.186
294.902
294.487
293.929
293.265
292.621
292.207
292.269
292.979
294.366
296.263
298.334
300.145
301.345
301.673
301.029
299.376
296.639
292.991
288.399
282.895
275.251
266.051
255.424
244.671
237.776
237.452
251.967
271.211
316.927
325.874
343.122
348.39
191.622
213.877
269.283
221.662
251.899
238.059
248.427
241.242
236.399
197.579
153.449
124.443
131.348
177.407
247.66
327.001
392.952
436.283
471.02
495.36
511.19
512.304
513.788
507.116
501.879
494.347
500.614
506.555
85.7394
28.876
4.29874
12.519
36.5113
63.3799
88.209
110.123
129.333
146.228
161.145
174.366
186.128
196.657
206.198
214.873
222.823
229.884
236.126
241.67
246.802
251.783
256.549
260.819
264.349
267.19
269.701
272.256
274.977
277.374
279.339
281.039
282.635
284.159
285.554
286.791
287.889
288.884
289.795
290.623
291.369
292.044
292.652
293.192
293.666
294.082
294.447
294.763
295.025
295.232
295.386
295.498
295.576
295.622
295.637
295.621
295.575
295.496
295.375
295.189
294.907
294.494
293.939
293.276
292.63
292.207
292.253
292.951
294.324
296.214
298.285
300.104
301.319
301.67
301.05
299.418
296.699
293.067
288.486
283.017
275.407
266.242
255.648
244.871
237.887
237.352
251.721
270.732
316.497
325.664
342.696
349.259
192.683
213.448
269.2
221.806
251.781
238.073
248.395
241.311
236.65
198.076
153.914
124.616
131.072
176.9
247.035
326.358
392.43
435.932
470.767
495.162
511.095
512.287
513.81
507.171
501.938
494.357
500.564
506.525
94.5991
59.0183
34.0626
31.2723
45.1919
66.2471
88.3776
109.134
127.882
144.631
159.549
172.834
184.694
195.342
205.014
213.818
221.819
228.964
235.304
240.959
246.227
251.31
256.067
260.2
263.47
266.287
269.181
272.059
274.802
277.174
279.118
280.836
282.463
284.01
285.421
286.67
287.782
288.79
289.711
290.548
291.304
291.987
292.602
293.148
293.628
294.048
294.419
294.739
295.006
295.216
295.374
295.489
295.57
295.619
295.636
295.621
295.576
295.498
295.377
295.193
294.913
294.503
293.951
293.289
292.639
292.206
292.235
292.912
294.264
296.143
298.216
300.05
301.289
301.668
301.077
299.478
296.792
293.189
288.636
283.207
275.656
266.537
255.961
245.133
238.011
237.211
251.298
269.896
315.812
325.324
342.196
350.473
194.179
212.781
269.101
222.021
251.582
238.094
248.351
241.434
237.143
198.964
154.672
124.841
130.582
175.698
245.448
324.88
391.347
435.166
470.192
494.773
510.929
512.261
513.858
507.288
502.059
494.369
500.447
506.468
102.248
82.2014
61.8805
52.826
57.6096
71.9287
90.2884
109.18
127.073
143.459
158.248
171.519
183.424
194.154
203.912
212.8
220.876
228.096
234.511
240.284
245.656
250.763
255.475
259.547
262.856
265.79
268.82
271.92
274.66
276.959
278.893
280.635
282.292
283.861
285.286
286.547
287.673
288.693
289.626
290.472
291.236
291.928
292.549
293.102
293.587
294.014
294.389
294.714
294.985
295.199
295.361
295.48
295.564
295.615
295.634
295.621
295.577
295.5
295.381
295.198
294.921
294.514
293.964
293.303
292.649
292.204
292.215
292.866
294.205
296.074
298.148
299.996
301.258
301.668
301.108
299.54
296.88
293.299
288.769
283.383
275.888
266.817
256.271
245.392
238.13
237.05
250.895
269.164
315.175
324.993
341.628
351.464
195.411
212.073
269.003
222.221
251.398
238.116
248.307
241.546
237.559
199.724
155.322
125.014
130.101
174.793
244.368
323.782
390.489
434.588
469.771
494.457
510.785
512.238
513.897
507.379
502.154
494.377
500.36
506.421
111.128
100.118
84.9066
73.9643
72.7722
80.75
94.4188
110.538
127.012
142.731
157.23
170.399
182.299
193.074
202.891
211.842
219.973
227.262
233.768
239.641
245.08
250.196
254.854
258.901
262.317
265.448
268.631
271.745
274.427
276.746
278.662
280.425
282.117
283.706
285.145
286.42
287.559
288.593
289.536
290.392
291.165
291.866
292.495
293.054
293.545
293.977
294.358
294.689
294.963
295.182
295.348
295.471
295.558
295.612
295.633
295.622
295.578
295.503
295.385
295.204
294.929
294.525
293.979
293.317
292.657
292.199
292.19
292.82
294.138
295.997
298.075
299.939
301.228
301.67
301.142
299.608
296.981
293.428
288.931
283.589
276.15
267.127
256.6
245.658
238.237
236.856
250.425
268.271
314.455
324.614
340.98
352.332
196.626
211.211
268.899
222.435
251.184
238.141
248.258
241.682
238.06
200.592
156.011
125.14
129.493
173.56
242.755
322.291
389.393
433.83
469.205
494.064
510.614
512.212
513.943
507.495
502.272
494.383
500.242
506.364
119.691
113.27
102.515
92.7476
88.8805
92.0412
100.949
113.565
127.911
142.508
156.481
169.436
181.279
192.072
201.933
210.936
219.117
226.471
233.063
239.026
244.524
249.624
254.246
258.31
261.859
265.158
268.428
271.53
274.191
276.385
278.412
280.227
281.936
283.548
284.999
286.288
287.442
288.489
289.443
290.309
291.092
291.801
292.438
293.003
293.501
293.939
294.326
294.661
294.941
295.164
295.334
295.461
295.552
295.609
295.632
295.622
295.58
295.506
295.39
295.211
294.939
294.538
293.994
293.331
292.665
292.192
292.162
292.767
294.065
295.914
297.997
299.879
301.196
301.675
301.182
299.683
297.089
293.561
289.098
283.805
276.428
267.452
256.943
245.925
238.324
236.62
249.876
267.336
313.689
324.214
340.233
352.975
197.846
210.165
268.799
222.652
250.954
238.168
248.202
241.817
238.573
201.433
156.645
125.187
128.793
172.278
241.282
320.847
388.295
433.097
468.669
493.663
510.436
512.184
513.998
507.608
502.386
494.385
500.126
506.306
127.453
123.523
116.223
108.644
104.207
104.455
109.491
118.494
130.131
143.022
156.08
168.618
180.316
191.094
200.99
210.046
218.284
225.712
232.39
238.436
243.98
249.075
253.683
257.785
261.46
264.892
268.209
271.272
273.903
276.134
278.102
279.996
281.777
283.384
284.851
286.153
287.321
288.381
289.346
290.222
291.015
291.734
292.379
292.951
293.455
293.899
294.292
294.633
294.918
295.145
295.32
295.451
295.546
295.605
295.631
295.623
295.583
295.51
295.395
295.219
294.949
294.552
294.01
293.346
292.671
292.182
292.129
292.708
293.986
295.825
297.913
299.817
301.165
301.683
301.226
299.766
297.206
293.712
289.282
284.04
276.726
267.794
257.296
246.186
238.383
236.333
249.299
266.283
312.847
323.791
339.369
353.395
199.245
208.855
268.681
222.872
250.702
238.195
248.139
241.966
239.093
202.29
157.213
125.129
127.958
170.88
239.482
319.167
387.045
432.264
468.054
493.217
510.23
512.152
514.049
507.731
502.51
494.381
499.993
506.242
134.731
132.409
127.445
121.792
117.774
116.716
119.175
125.095
133.884
144.606
156.262
168.035
179.394
190.076
199.988
209.104
217.42
224.942
231.721
237.857
243.452
248.558
253.172
257.326
261.106
264.63
267.961
270.986
273.597
275.844
277.876
279.768
281.563
283.248
284.695
286.015
287.199
288.271
289.247
290.133
290.936
291.664
292.317
292.896
293.407
293.858
294.257
294.604
294.894
295.126
295.306
295.441
295.54
295.602
295.63
295.624
295.585
295.515
295.402
295.228
294.962
294.567
294.028
293.362
292.677
292.169
292.09
292.642
293.898
295.729
297.825
299.751
301.133
301.695
301.277
299.857
297.333
293.851
289.478
284.292
277.044
268.152
257.653
246.431
238.401
235.984
248.587
265.125
311.916
323.323
338.349
353.564
200.881
207.176
268.595
223.094
250.425
238.222
248.063
242.132
239.622
203.084
157.671
124.94
126.985
169.271
237.625
317.387
385.699
431.391
467.419
492.731
510
512.113
514.102
507.856
502.636
494.374
499.851
506.173
141.686
140.439
136.926
132.68
129.426
128.062
129.074
132.741
139.015
147.449
157.332
167.924
178.622
189.014
198.858
208.022
216.438
224.086
230.997
237.247
242.917
248.06
252.708
256.919
260.779
264.359
267.687
270.68
273.287
275.567
277.642
279.583
281.387
283.03
284.582
285.882
287.074
288.159
289.146
290.042
290.856
291.593
292.254
292.84
293.357
293.815
294.221
294.574
294.869
295.106
295.291
295.431
295.534
295.599
295.629
295.625
295.588
295.52
295.409
295.238
294.975
294.584
294.046
293.377
292.681
292.151
292.044
292.568
293.801
295.624
297.73
299.682
301.101
301.711
301.334
299.957
297.47
294.055
289.69
284.563
277.382
268.522
258.008
246.65
238.366
235.559
247.776
263.836
310.874
322.767
337.115
353.41
202.97
204.98
268.475
223.314
250.124
238.244
247.97
242.292
240.135
203.782
157.984
124.594
125.847
167.516
235.514
315.399
384.201
430.43
466.721
492.19
509.734
512.064
514.155
507.984
502.769
494.36
499.694
506.098
148.259
147.716
145.158
141.938
139.441
138.212
138.537
140.755
145.089
151.453
159.458
168.569
178.25
188.049
197.626
206.743
215.242
223.04
230.124
236.53
242.318
247.543
252.256
256.535
260.459
264.075
267.395
270.371
272.99
275.307
277.428
279.4
281.225
282.886
284.349
285.751
286.957
288.046
289.043
289.95
290.774
291.52
292.189
292.782
293.306
293.772
294.184
294.543
294.843
295.086
295.276
295.422
295.528
295.597
295.629
295.627
295.592
295.525
295.417
295.248
294.989
294.602
294.065
293.392
292.682
292.129
291.99
292.483
293.693
295.51
297.628
299.61
301.069
301.732
301.398
300.068
297.62
294.234
289.917
284.853
277.741
268.9
258.351
246.829
238.263
235.045
246.833
262.406
309.7
322.079
335.615
352.813
204.403
202.056
268.432
223.528
249.798
238.261
247.856
242.452
240.607
204.326
158.114
124.073
124.532
165.465
233.245
313.233
382.552
429.399
465.98
491.59
509.424
512.002
514.205
508.111
502.906
494.341
499.523
506.016
154.429
154.373
152.52
150.056
148.158
147.184
147.255
148.636
151.615
156.305
162.576
170.118
178.536
187.437
196.466
205.33
213.799
221.713
228.986
235.594
241.559
246.925
251.753
256.125
260.118
263.771
267.096
270.074
272.716
275.08
277.237
279.231
281.065
282.734
284.24
285.571
286.826
287.944
288.94
289.859
290.692
291.447
292.123
292.723
293.254
293.727
294.146
294.511
294.817
295.065
295.262
295.412
295.523
295.595
295.629
295.629
295.596
295.531
295.425
295.26
295.004
294.621
294.085
293.407
292.682
292.1
291.926
292.386
293.573
295.384
297.518
299.534
301.038
301.758
301.472
300.19
297.783
294.44
290.161
285.163
278.112
269.286
258.671
246.953
238.077
234.429
245.789
260.812
308.37
321.228
333.809
351.563
207.865
198.169
268.343
223.732
249.451
238.269
247.714
242.603
241.003
204.662
158.027
123.361
123.026
163.312
230.716
310.835
380.718
428.275
465.179
490.922
509.06
511.924
514.248
508.236
503.049
494.316
499.337
505.927
160.249
160.548
159.229
157.315
155.858
155.137
155.168
156.103
158.196
161.64
166.463
172.534
179.615
187.416
195.637
203.99
212.217
220.106
227.506
234.322
240.513
246.089
251.098
255.614
259.711
263.429
266.788
269.795
272.475
274.88
277.07
279.084
280.913
282.588
284.098
285.46
286.683
287.813
288.854
289.763
290.61
291.374
292.056
292.663
293.201
293.681
294.108
294.479
294.791
295.045
295.247
295.403
295.518
295.593
295.63
295.631
295.601
295.538
295.434
295.272
295.02
294.64
294.105
293.421
292.678
292.065
291.851
292.276
293.438
295.246
297.399
299.454
301.007
301.79
301.556
300.326
297.96
294.66
290.421
285.491
278.499
269.668
258.955
247.005
237.793
233.696
244.573
259.034
306.857
320.188
331.679
349.431
208.068
193.06
268.273
223.918
249.091
238.267
247.539
242.735
241.278
204.722
157.699
122.443
121.308
160.838
227.95
308.196
378.684
427.058
464.322
490.182
508.629
511.824
514.282
508.355
503.199
494.286
499.134
505.829
165.764
166.311
165.391
163.888
162.763
162.261
162.334
163.04
164.578
167.146
170.843
175.653
181.466
188.106
195.356
202.975
210.722
218.371
225.736
232.67
239.074
244.902
250.16
254.892
259.157
262.996
266.439
269.511
272.248
274.7
276.92
278.943
280.786
282.459
283.972
285.342
286.582
287.7
288.722
289.708
290.536
291.301
291.991
292.603
293.149
293.636
294.069
294.446
294.764
295.025
295.234
295.395
295.515
295.593
295.632
295.635
295.606
295.544
295.443
295.284
295.036
294.66
294.126
293.434
292.67
292.022
291.763
292.148
293.286
295.091
297.269
299.368
300.976
301.829
301.652
300.478
298.155
294.895
290.698
285.837
278.897
270.037
259.189
246.967
237.396
232.832
243.196
257.044
305.12
318.931
329.278
346.193
208.332
186.439
268.14
224.082
248.728
238.252
247.327
242.834
241.378
204.458
157.097
121.308
119.352
158.121
224.882
305.276
376.422
425.734
463.403
489.365
508.122
511.698
514.303
508.464
503.356
494.253
498.914
505.722
170.992
171.704
171.086
169.906
169.04
168.713
168.843
169.435
170.63
172.601
175.464
179.26
183.965
189.498
195.726
202.478
209.554
216.749
223.867
230.744
237.247
243.285
248.811
253.821
258.333
262.373
265.97
269.161
271.989
274.508
276.769
278.814
280.667
282.347
283.869
285.234
286.481
287.612
288.637
289.558
290.462
291.238
291.926
292.545
293.097
293.591
294.031
294.414
294.738
295.006
295.221
295.389
295.513
295.594
295.635
295.64
295.612
295.552
295.453
295.297
295.053
294.68
294.146
293.445
292.658
291.97
291.66
292.002
293.113
294.918
297.126
299.277
300.947
301.875
301.762
300.648
298.369
295.151
290.993
286.201
279.301
270.381
259.356
246.824
236.869
231.816
241.629
254.808
303.105
317.416
326.706
341.685
206.832
178.055
267.911
224.22
248.38
238.23
247.067
242.874
241.246
203.828
156.189
119.946
117.123
155.088
221.491
302.048
373.911
424.295
462.429
488.472
507.529
511.537
514.307
508.56
503.521
494.219
498.677
505.605
175.953
176.771
176.389
175.466
174.802
174.607
174.792
175.326
176.307
177.873
180.132
183.149
186.943
191.495
196.745
202.588
208.881
215.458
222.141
228.763
235.188
241.301
247.02
252.293
257.094
261.411
265.248
268.634
271.612
274.242
276.58
278.672
280.553
282.248
283.776
285.154
286.398
287.528
288.565
289.517
290.367
291.164
291.874
292.488
293.048
293.549
293.994
294.383
294.713
294.987
295.21
295.384
295.513
295.597
295.64
295.646
295.618
295.56
295.462
295.309
295.069
294.7
294.165
293.455
292.641
291.908
291.541
291.833
292.914
294.722
296.966
299.179
300.919
301.931
301.889
300.838
298.605
295.428
291.307
286.579
279.704
270.687
259.439
246.557
236.198
230.616
239.851
252.282
300.732
315.574
324.129
335.911
203.649
167.948
267.489
224.331
248.068
238.207
246.794
242.939
240.705
202.813
154.935
118.343
114.575
151.694
217.722
298.47
371.125
422.72
461.399
487.513
506.838
511.327
514.288
508.641
503.697
494.188
498.423
505.476
180.669
181.551
181.351
180.633
180.127
180.034
180.265
180.769
181.609
182.895
184.722
187.153
190.225
193.955
198.33
203.3
208.779
214.646
220.757
226.962
233.126
239.138
244.899
250.331
255.37
259.971
264.106
267.771
270.989
273.806
276.282
278.471
280.415
282.149
283.697
285.083
286.333
287.47
288.499
289.452
290.32
291.095
291.8
292.455
293.005
293.509
293.959
294.353
294.69
294.971
295.201
295.381
295.515
295.602
295.647
295.653
295.627
295.568
295.472
295.321
295.085
294.719
294.184
293.462
292.619
291.837
291.403
291.637
292.686
294.498
296.787
299.072
300.891
301.998
302.035
301.052
298.867
295.729
291.64
286.969
280.1
270.94
259.421
246.148
235.361
229.237
237.841
249.423
297.892
313.313
321.577
329.363
198.895
156.932
266.75
224.421
247.818
238.198
246.463
242.917
239.789
201.38
153.293
116.479
111.657
147.911
213.526
294.499
368.035
420.979
460.315
486.494
506.046
511.048
514.251
508.704
503.887
494.166
498.153
505.335
185.158
186.072
186.011
185.459
185.079
185.064
185.331
185.815
186.558
187.646
189.16
191.154
193.667
196.731
200.361
204.545
209.241
214.374
219.839
225.515
231.277
237.022
242.655
248.087
253.239
258.044
262.449
266.422
269.953
273.056
275.766
278.129
280.195
282.008
283.604
285.017
286.28
287.422
288.463
289.412
290.273
291.055
291.754
292.371
292.968
293.477
293.927
294.327
294.669
294.957
295.195
295.382
295.52
295.611
295.657
295.664
295.636
295.578
295.482
295.332
295.1
294.738
294.203
293.469
292.593
291.754
291.245
291.41
292.421
294.239
296.581
298.954
300.865
302.077
302.204
301.295
299.16
296.059
291.994
287.369
280.478
271.123
259.286
245.578
234.335
227.639
235.574
246.204
294.452
310.516
319.035
323.323
193.641
147.3
265.551
224.503
247.655
238.227
246.119
242.79
238.425
199.532
151.224
114.32
108.301
143.648
208.836
290.077
364.602
419.026
459.163
485.425
505.153
510.676
514.193
508.748
504.095
494.161
497.872
505.182
189.436
190.358
190.403
189.985
189.707
189.752
190.044
190.513
191.184
192.128
193.409
195.074
197.159
199.695
202.711
206.217
210.203
214.631
219.433
224.52
229.791
235.146
240.501
245.776
250.889
255.766
260.341
264.565
268.402
271.837
274.868
277.509
279.788
281.749
283.443
284.92
286.222
287.386
288.436
289.389
290.253
291.023
291.725
292.357
292.917
293.443
293.906
294.301
294.65
294.946
295.192
295.385
295.529
295.623
295.67
295.677
295.649
295.588
295.492
295.344
295.114
294.756
294.221
293.475
292.564
291.658
291.066
291.149
292.114
293.938
296.343
298.82
300.838
302.17
302.4
301.57
299.49
296.424
292.372
287.768
280.833
271.225
259.016
244.823
233.089
225.773
233.009
242.446
290.28
307.057
316.132
320.031
190.308
142.981
263.794
224.604
247.601
238.319
245.732
242.532
236.53
197.241
148.685
111.812
104.436
138.843
203.58
285.137
360.777
416.799
457.924
484.309
504.164
510.184
514.094
508.772
504.328
494.187
497.587
505.016
193.516
194.428
194.553
194.245
194.049
194.14
194.448
194.904
195.519
196.352
197.456
198.871
200.625
202.747
205.267
208.208
211.576
215.361
219.526
224.012
228.744
233.639
238.614
243.604
248.539
253.349
257.964
262.327
266.388
270.109
273.463
276.435
279.022
281.239
283.122
284.727
286.114
287.332
288.412
289.377
290.241
291.017
291.715
292.336
292.908
293.417
293.874
294.3
294.641
294.939
295.193
295.393
295.542
295.639
295.688
295.694
295.664
295.601
295.503
295.355
295.128
294.774
294.24
293.481
292.533
291.556
290.86
290.85
291.755
293.584
296.062
298.665
300.81
302.279
302.628
301.885
299.862
296.83
292.779
288.171
281.147
271.231
258.598
243.861
231.59
223.602
230.08
238.564
285.252
302.848
312.381
319.733
190.957
146.951
261.48
224.77
247.656
238.505
245.363
242.122
234.087
194.512
145.653
108.882
99.9748
133.371
197.673
279.598
356.503
414.234
456.564
483.141
503.084
509.557
513.978
508.778
504.592
494.259
497.309
504.839
197.411
198.301
198.485
198.267
198.137
198.262
198.58
199.022
199.591
200.336
201.301
202.521
204.017
205.814
207.939
210.416
213.264
216.485
220.067
223.975
228.162
232.562
237.107
241.733
246.385
251.006
255.533
259.907
264.071
267.975
271.576
274.841
277.748
280.287
282.468
284.317
285.876
287.202
288.349
289.354
290.239
291.021
291.72
292.348
292.907
293.415
293.867
294.26
294.633
294.942
295.197
295.404
295.56
295.661
295.711
295.717
295.685
295.618
295.516
295.366
295.142
294.792
294.26
293.49
292.503
291.447
290.634
290.502
291.339
293.163
295.726
298.481
300.777
302.405
302.897
302.245
300.288
297.289
293.223
288.578
281.412
271.128
258.014
242.661
229.794
221.079
226.883
233.081
279.24
297.823
307.584
320.297
193.967
157.179
258.612
225.036
247.817
238.811
245.017
241.54
231.024
191.278
142.089
105.427
94.8066
127.129
191.026
273.369
351.713
411.275
455.04
481.893
501.924
508.792
513.855
508.767
504.899
494.404
497.059
504.652
201.131
201.989
202.217
202.073
201.997
202.147
202.469
202.897
203.426
204.098
204.952
206.015
207.307
208.846
210.655
212.758
215.175
217.917
220.985
224.364
228.028
231.933
236.027
240.252
244.559
248.903
253.235
257.501
261.643
265.606
269.342
272.809
275.973
278.811
281.316
283.487
285.337
286.89
288.184
289.272
290.207
291.022
291.738
292.37
292.933
293.438
293.874
294.28
294.628
294.94
295.221
295.425
295.582
295.688
295.741
295.747
295.711
295.639
295.532
295.379
295.156
294.812
294.284
293.505
292.478
291.335
290.39
290.103
290.843
292.667
295.316
298.254
300.736
302.547
303.214
302.662
300.777
297.814
293.717
288.989
281.625
270.908
257.252
241.197
227.657
218.151
223.183
228.31
272.251
291.881
301.912
319.504
196.444
167.368
255.21
225.404
248.063
239.258
244.677
240.756
227.405
187.554
138.002
101.352
88.842
119.97
183.536
266.343
346.32
407.882
453.298
480.525
500.688
507.892
513.696
508.743
505.257
494.649
496.86
504.459
204.687
205.508
205.766
205.682
205.65
205.818
206.141
206.552
207.047
207.657
208.419
209.355
210.48
211.812
213.368
215.168
217.231
219.573
222.201
225.113
228.298
231.73
235.374
239.188
243.123
247.138
251.198
255.258
259.269
263.178
266.935
270.495
273.821
276.884
279.661
282.139
284.311
286.178
287.747
289.041
290.098
290.978
291.735
292.395
292.969
293.471
293.912
294.3
294.648
294.956
295.214
295.446
295.62
295.727
295.781
295.786
295.746
295.667
295.553
295.395
295.173
294.834
294.314
293.529
292.464
291.227
290.127
289.652
290.27
292.048
294.819
297.966
300.677
302.703
303.581
303.144
301.343
298.423
294.277
289.414
281.785
270.569
256.294
239.424
225.114
214.755
218.891
222.278
264.363
284.901
295.272
317.568
197.935
174.107
251.56
225.859
248.133
239.85
244.343
239.724
223.182
183.226
133.337
96.5063
82.0754
111.766
175.064
258.384
340.215
404.015
451.275
478.997
499.356
506.87
513.464
508.708
505.679
495.026
496.742
504.265
208.089
208.867
209.146
209.11
209.115
209.296
209.615
210.01
210.474
211.031
211.714
212.543
213.532
214.694
216.042
217.595
219.369
221.379
223.637
226.146
228.905
231.902
235.118
238.522
242.078
245.743
249.486
253.275
257.074
260.836
264.516
268.07
271.461
274.653
277.62
280.336
282.784
284.951
286.831
288.428
289.751
290.821
291.678
292.384
292.988
293.512
293.959
294.347
294.693
294.986
295.256
295.477
295.645
295.768
295.829
295.836
295.791
295.705
295.582
295.417
295.195
294.863
294.354
293.568
292.468
291.131
289.855
289.152
289.596
291.327
294.167
297.594
300.591
302.87
303.997
303.709
302.022
299.141
294.928
289.865
281.899
270.109
255.135
237.326
222.116
210.84
213.97
215.71
255.656
276.867
287.425
314.831
199.682
180.889
247.825
226.421
248.379
240.604
244.021
238.427
218.526
178.374
128.158
90.7866
74.34
102.331
165.417
249.314
333.257
399.601
448.902
477.254
497.907
505.739
513.098
508.674
506.164
495.562
496.732
504.078
211.343
212.078
212.368
212.372
212.406
212.596
212.909
213.289
213.723
214.235
214.851
215.59
216.464
217.482
218.659
220.007
221.542
223.276
225.222
227.387
229.776
232.384
235.203
238.215
241.394
244.707
248.118
251.603
255.137
258.688
262.217
265.684
269.051
272.282
275.345
278.213
280.86
283.267
285.418
287.306
288.932
290.298
291.414
292.294
292.975
293.524
293.991
294.4
294.749
295.046
295.304
295.521
295.701
295.824
295.886
295.895
295.85
295.755
295.622
295.448
295.225
294.901
294.408
293.629
292.5
291.06
289.583
288.602
288.8
290.436
293.38
297.068
300.459
303.039
304.467
304.377
302.792
299.993
295.701
290.368
281.989
269.546
253.756
234.84
218.58
206.331
208.338
208.348
246.228
267.875
278.284
310.922
201.884
188.577
244.268
227.16
248.267
241.463
243.721
236.859
213.413
172.846
122.334
83.9902
65.5239
91.4554
154.327
238.912
325.263
394.496
446.095
475.235
496.326
504.505
512.507
508.667
506.718
496.275
496.855
503.905
214.459
215.148
215.444
215.48
215.538
215.733
216.038
216.402
216.811
217.282
217.841
218.503
219.279
220.176
221.207
222.383
223.717
225.22
226.904
228.777
230.845
233.111
235.572
238.219
241.037
244.002
247.088
250.263
253.51
256.808
260.132
263.448
266.72
269.912
272.989
275.921
278.682
281.249
283.604
285.732
287.624
289.274
290.682
291.851
292.784
293.492
294.015
294.425
294.788
295.107
295.373
295.59
295.758
295.887
295.96
295.973
295.927
295.825
295.679
295.493
295.269
294.954
294.484
293.721
292.574
291.031
289.33
288.006
287.867
289.334
292.359
296.366
300.243
303.201
305.004
305.172
303.706
301.025
296.633
290.967
282.078
268.885
252.17
231.984
214.465
201.16
201.896
200.15
236.139
258.047
267.853
306.142
204.402
196.048
241.429
227.924
247.777
242.403
243.364
234.983
208.104
166.859
115.997
76.0623
55.5349
78.8894
141.525
226.926
316.015
388.509
442.746
472.908
494.584
503.175
511.635
508.738
507.318
497.189
497.13
503.755
217.443
218.087
218.383
218.444
218.521
218.719
219.015
219.363
219.749
220.186
220.695
221.291
221.983
222.778
223.686
224.716
225.879
227.186
228.647
230.271
232.064
234.032
236.176
238.493
240.976
243.61
246.377
249.253
252.213
255.242
258.326
261.442
264.561
267.648
270.669
273.593
276.392
279.042
281.525
283.822
285.919
287.804
289.469
290.909
292.124
293.116
293.888
294.448
294.838
295.133
295.41
295.659
295.848
295.979
296.045
296.066
296.022
295.915
295.757
295.558
295.335
295.028
294.587
293.854
292.708
291.067
289.112
287.371
286.753
287.967
291.031
295.409
299.885
303.333
305.617
306.147
304.942
302.304
297.787
291.699
282.222
268.176
250.358
228.678
209.668
195.231
194.583
191.231
225.31
247.57
256.22
300.434
208.442
204.031
240.139
228.614
246.866
243.441
243.04
232.844
202.546
160.179
108.84
66.7138
44.1571
64.4078
126.709
213.081
305.258
381.443
438.725
470.241
492.64
501.764
510.51
508.937
507.969
498.285
497.563
503.638
220.302
220.902
221.194
221.274
221.365
221.563
221.85
222.183
222.547
222.954
223.422
223.962
224.584
225.292
226.094
227
228.019
229.16
230.432
231.843
233.401
235.111
236.978
239.003
241.182
243.51
245.974
248.559
251.242
254.004
256.832
259.716
262.637
265.566
268.474
271.33
274.105
276.773
279.314
281.709
283.942
285.999
287.866
289.534
290.994
292.246
293.29
294.129
294.765
295.2
295.48
295.679
295.886
296.07
296.167
296.188
296.137
296.028
295.874
295.651
295.42
295.133
294.736
294.041
292.91
291.194
288.987
286.748
285.465
286.255
289.279
294.068
299.309
303.413
306.318
307.343
306.411
303.886
299.242
292.644
282.468
267.436
248.375
225.012
204.202
188.493
186.365
181.622
213.633
236.669
243.828
292.442
214.795
216.815
241.368
229.27
245.338
244.43
242.501
230.406
196.999
153.206
101.114
56.0459
31.2957
47.7586
109.586
197.05
292.694
373.095
433.873
467.157
490.436
500.284
509.22
509.283
508.62
499.568
498.182
503.563
223.042
223.599
223.884
223.978
224.08
224.276
224.552
224.869
225.214
225.595
226.027
226.521
227.083
227.718
228.433
229.234
230.131
231.132
232.244
233.474
234.831
236.32
237.947
239.715
241.625
243.674
245.856
248.162
250.575
253.079
255.655
258.294
260.988
263.721
266.47
269.208
271.906
274.539
277.082
279.515
281.82
283.982
285.988
287.826
289.485
290.957
292.236
293.32
294.214
294.923
295.447
295.786
295.982
296.082
296.227
296.318
296.303
296.166
295.992
295.787
295.571
295.273
294.92
294.299
293.233
291.45
288.944
286.122
284.067
284.107
286.946
292.165
298.393
303.365
307.097
308.79
308.234
305.887
301.089
293.871
282.902
266.768
246.212
220.898
197.974
180.848
177.218
171.394
201.186
225.39
230.993
282.055
222.561
233.236
244.857
229.213
243.084
245.393
242.004
227.768
191.332
145.557
92.3179
43.6981
16.6233
28.6559
89.7444
178.442
277.948
363.164
427.971
463.529
487.884
498.712
507.878
509.561
509.266
500.947
498.972
503.537
225.671
226.185
226.46
226.564
226.673
226.865
227.128
227.43
227.756
228.113
228.515
228.969
229.481
230.055
230.696
231.411
232.206
233.088
234.065
235.143
236.329
237.629
239.05
240.594
242.266
244.065
245.989
248.033
250.187
252.439
254.773
257.174
259.634
262.149
264.706
267.285
269.862
272.412
274.91
277.331
279.657
281.87
283.956
285.904
287.704
289.345
290.817
292.113
293.228
294.163
294.928
295.537
295.986
296.27
296.358
296.325
296.386
296.367
296.223
295.928
295.701
295.475
295.217
294.638
293.617
291.855
289.169
285.676
282.407
281.367
283.79
289.441
296.95
303.163
307.991
310.555
310.581
308.434
303.449
295.541
283.607
266.191
243.984
216.54
191.115
172.335
167.228
160.783
188.225
213.724
217.671
270.303
228.984
246.803
248.766
227.864
239.371
246.117
241.123
224.93
185.757
137.822
82.9447
30.0449
0.0406789
6.88656
66.7756
156.769
260.551
351.197
420.726
459.187
484.919
496.961
506.547
509.635
509.861
502.368
499.9
503.564
228.192
228.667
228.929
229.039
229.152
229.338
229.589
229.874
230.182
230.517
230.89
231.309
231.778
232.3
232.879
233.521
234.23
235.013
235.876
236.825
237.866
239.005
240.248
241.599
243.063
244.64
246.332
248.136
250.047
252.059
254.159
256.334
258.571
260.865
263.213
265.605
268.025
270.451
272.859
275.226
277.529
279.748
281.87
283.879
285.765
287.519
289.131
290.592
291.893
293.03
294.001
294.815
295.486
296.025
296.424
296.651
296.565
296.321
296.293
296.227
296.048
295.676
295.441
295.094
294.3
292.474
289.445
285.203
280.808
278.153
279.526
285.461
294.545
302.654
308.95
312.796
313.574
311.673
306.487
297.769
284.68
265.912
241.728
211.879