/*--------------------------------*- C++ -*----------------------------------*\
| =========                 |                                                 |
| \\      /  F ield         | OpenFOAM: The Open Source CFD Toolbox           |
|  \\    /   O peration     | Version:  2412                                  |
|   \\  /    A nd           | Website:  www.openfoam.com                      |
|    \\/     M anipulation  |                                                 |
\*---------------------------------------------------------------------------*/
FoamFile
{
    version     2.0;
    format      ascii;
    arch        "LSB;label=32;scalar=64";
    class       volVectorField;
    location    "0.21";
    object      ddtCorrDdt0(U);
}
// * * * * * * * * * * * * * * * * * * * * * * * * * * * * * * * * * * * * * //

dimensions      [0 1 -2 0 0 0 0];

internalField   nonuniform List<vector> 
12600
(
(-3.88105 0 8.45891)
(-6.42926 -1.06518e-17 2.54456)
(-7.82055 -7.27162e-18 1.29288)
(-7.0007 0 2.21604)
(-5.8423 1.2856e-19 2.40071)
(-5.48169 0 2.11062)
(-5.38435 -1.74724e-19 1.75089)
(-5.27107 0 1.4427)
(-5.06399 0 1.20236)
(-4.61063 0 1.15323)
(-3.60387 0 1.47063)
(-2.22599 -1.0499e-17 1.91171)
(-0.940958 -7.16836e-18 2.26718)
(0.0651535 0 2.4831)
(0.957174 -9.80784e-18 2.65724)
(1.53136 0 2.68259)
(1.20192 4.77446e-19 2.19018)
(-0.936422 0 1.06418)
(-3.2449 -1.31473e-17 -0.269003)
(-4.19583 0 -0.825467)
(-4.04697 0 -0.780856)
(-3.94579 0 -0.844314)
(-5.64908 5.42707e-17 -1.81867)
(-6.6847 -9.22494e-17 -2.18783)
(-3.89248 -1.88223e-18 -0.156266)
(3.80873 4.60826e-17 4.37982)
(9.58934 0 7.36341)
(5.02056 0 3.90608)
(-5.7302 0 -1.86898)
(-5.61038 -2.68106e-17 1.05055)
(15.362 4.68789e-17 14.8147)
(36.8243 0 18.0787)
(4.67048 0 -20.2426)
(-55.4257 2.16395e-16 -49.7104)
(-62.5698 -2.21387e-16 -23.0155)
(17.756 0 35.3824)
(77.0586 0 37.6518)
(-0.211642 9.98254e-16 -30.9605)
(-58.5183 0 -43.0667)
(-10.4621 3.10053e-17 4.59938)
(15.4069 1.59176e-16 12.9705)
(2.4583 2.57786e-16 2.81252)
(-7.9131 0 -0.772973)
(-11.7204 1.37877e-16 -1.23861)
(-16.4405 -4.30376e-17 -2.1768)
(-18.8422 5.27425e-16 -2.07932)
(-12.8471 -8.35898e-16 2.06456)
(-2.72756 0 6.03227)
(3.07237 4.48063e-16 5.84074)
(4.2494 -1.81993e-17 3.18655)
(5.85215 0 2.50091)
(11.4016 -2.16365e-17 3.65361)
(15.0898 -1.14975e-15 2.31936)
(3.88992 0 -11.9979)
(-3.30777 1.05899e-15 -18.8908)
(3.2544 0 -18.1712)
(13.8294 0 -14.1377)
(12.602 -1.44878e-17 -10.7732)
(1.42288 8.61384e-18 1.92746)
(-12.9335 2.17285e-15 12.1866)
(-0.606263 -1.14996e-15 13.0405)
(26.7555 -2.19919e-15 19.9768)
(16.2451 0 22.4349)
(-24.5181 -7.97316e-15 3.22734)
(-30.4933 -5.24632e-15 -16.2542)
(17.3893 2.82546e-15 -32.3528)
(57.5878 6.79944e-16 -47.325)
(71.3731 0 -47.8606)
(65.4989 0 -39.1474)
(42.0408 0 -10.2289)
(0.287944 0 27.3026)
(-46.2025 0 56.555)
(-62.1819 1.93657e-15 47.6121)
(-43.4081 -5.59408e-15 30.6559)
(-28.1686 0 15.6038)
(-20.1093 0 5.89598)
(-15.921 -2.21442e-15 1.72246)
(-9.77472 3.01177e-18 0.823757)
(-4.64781 2.6993e-15 0.694538)
(-1.71758 0 0.0295028)
(1.97399 0 -2.4572)
(9.11498 0 -5.0223)
(14.2176 -7.6447e-18 -6.03971)
(11.8752 0 -4.56942)
(5.14352 0 -1.4358)
(-0.586062 -6.17855e-16 1.59884)
(-4.34597 1.52599e-18 2.04501)
(-5.14786 0 2.42425)
(-4.58876 0 1.8128)
(-3.24254 -4.18183e-16 0.667638)
(-1.05951 -6.92512e-16 -0.291269)
(0.797196 -8.47773e-16 -0.676696)
(1.96412 -6.90174e-16 -0.647003)
(1.49955 -7.10588e-18 -0.354985)
(0.693026 -3.12522e-17 0.94161)
(-1.19655 -2.87936e-16 1.017)
(-2.77471 0 1.67983)
(-3.76504 0 2.09939)
(-4.31722 0 2.34493)
(-4.30292 -4.47301e-16 2.32827)
(-4.00338 -1.45534e-17 2.13001)
(-3.43743 1.46724e-16 1.91749)
(-2.74966 1.27297e-16 1.65852)
(-2.34869 0 1.39836)
(-1.84437 0 1.1876)
(-1.65056 0 1.06826)
(-1.55972 -4.87963e-16 0.873216)
(-1.44571 0 0.86783)
(-1.47615 4.72655e-16 0.804509)
(-1.52374 0 0.76275)
(-1.44622 0 0.84005)
(-1.50047 6.76328e-18 0.835747)
(-1.501 0 0.868671)
(-1.42432 0 0.900921)
(-1.61634 0 0.969749)
(-1.46677 3.35549e-18 0.864254)
(-1.92789 0 1.15081)
(-1.72922 -3.10851e-16 1.00822)
(-2.0046 0 1.16449)
(-2.80821 -1.57063e-19 1.62327)
(-9.43074 2.0892e-18 12.1551)
(-17.222 7.31657e-18 4.8463)
(-19.5436 2.28857e-18 4.53045)
(-17.5854 0 7.00763)
(-16.1013 3.85116e-18 7.68981)
(-15.3031 -1.68764e-18 7.22255)
(-14.6654 1.82153e-19 6.54068)
(-14.01 -2.78763e-18 5.94375)
(-13.2029 0 5.47206)
(-11.9766 0 5.28944)
(-10.2375 0 5.53085)
(-8.37023 0 5.90327)
(-6.76577 0 6.12239)
(-5.45402 0 6.14913)
(-4.26662 -1.88481e-18 6.14034)
(-3.57528 0 5.98081)
(-4.09419 -1.72122e-17 5.01315)
(-6.65877 0 3.08356)
(-8.44836 2.52054e-17 1.48196)
(-8.74252 -1.10624e-17 0.359405)
(-8.13217 0 0.357474)
(-7.99511 1.70487e-17 0.252805)
(-9.85218 -3.00067e-17 -1.37552)
(-9.73049 4.89063e-17 -2.10004)
(-4.4518 -5.55821e-17 1.64961)
(5.78772 0 9.84598)
(11.2476 -5.79644e-18 15.2635)
(2.68839 0 8.22707)
(-9.33954 0 -2.58112)
(-1.96598 0 5.29122)
(26.8761 -3.7712e-17 32.7313)
(35.1678 0 31.7946)
(-33.8451 0 -59.4103)
(-95.4713 0 -113.153)
(-57.557 0 -35.7687)
(57.331 0 90.5475)
(80.7072 0 68.2472)
(-49.6157 -1.02713e-15 -87.7672)
(-85.3587 0 -92.6281)
(0.5147 1.99023e-16 16.161)
(18.843 -4.03456e-16 28.7631)
(-4.24922 -2.7614e-16 6.8658)
(-16.3323 0 1.48327)
(-21.4237 0 2.70135)
(-28.394 1.09894e-16 2.9515)
(-32.197 -5.38517e-16 4.36017)
(-26.6679 8.7251e-16 10.5823)
(-17.2641 0 15.739)
(-11.3887 -4.42597e-16 14.3849)
(-7.83027 0 8.08754)
(0.35057 0 4.56038)
(16.1792 8.41347e-16 0.881708)
(33.7267 0 -3.03689)
(32.0896 0 -33.3276)
(40.5913 -1.06999e-15 -48.5518)
(57.8324 0 -50.9237)
(67.7637 0 -41.9324)
(46.2346 -1.05893e-17 -23.1337)
(-4.27997 2.58782e-15 11.7066)
(-58.9123 -8.31081e-18 41.8564)
(-48.3726 0 40.634)
(1.96802 2.36543e-15 37.323)
(-7.50401 7.36816e-15 46.2261)
(-58.7603 0 11.4252)
(-17.7531 1.02267e-14 -37.3168)
(122.817 -1.01911e-16 -102.338)
(230.384 0 -149.726)
(250.001 4.27369e-15 -145.61)
(193.921 0 -108.101)
(84.0134 0 -28.0343)
(-60.1576 0 80.7212)
(-193.057 0 150.671)
(-212.72 -3.87035e-15 134.106)
(-146.034 5.52134e-15 86.4707)
(-85.5872 0 45.4311)
(-46.7192 0 18.8986)
(-27.1735 -2.1333e-15 6.89317)
(-14.6158 3.73167e-18 3.33261)
(-7.97021 1.64414e-18 2.46396)
(-2.09269 0 0.0161996)
(10.1863 0 -8.16702)
(28.6735 0 -16.9094)
(37.9115 -1.42366e-17 -19.5046)
(29.1503 -4.25483e-16 -13.5405)
(10.2934 -5.75404e-16 -3.69112)
(-4.61817 5.96972e-16 5.49389)
(-13.0785 8.97306e-19 7.26922)
(-14.4265 3.26393e-16 7.84144)
(-11.6512 0 5.78085)
(-6.74855 4.01941e-16 2.37357)
(-1.12012 0 -0.896817)
(3.22451 8.12861e-16 -2.10034)
(4.62981 0 -2.11248)
(2.68605 -4.32139e-16 -0.713663)
(-0.247811 -1.07762e-16 3.22923)
(-5.72926 0 3.83153)
(-9.90534 0 5.86268)
(-12.4308 6.3062e-16 7.18599)
(-13.6331 -3.76484e-16 7.77487)
(-13.3587 4.1546e-16 7.57626)
(-12.2471 1.38208e-17 6.88875)
(-10.6383 -1.39223e-16 6.07251)
(-8.81445 0 5.16447)
(-7.54723 5.64833e-17 4.40109)
(-6.26895 0 3.74337)
(-5.67203 0 3.39531)
(-5.24273 4.62017e-16 2.98559)
(-5.04937 0 2.94705)
(-5.00766 -1.50261e-18 2.82886)
(-5.12814 -2.06415e-16 2.82983)
(-5.10077 0 2.9424)
(-5.29056 0 3.01214)
(-5.36806 0 3.0905)
(-5.36454 1.78667e-16 3.17017)
(-5.86889 -7.55368e-17 3.41405)
(-5.40809 -3.1546e-18 3.12994)
(-6.94499 0 4.04076)
(-6.16193 2.91967e-16 3.55187)
(-7.06831 0 4.1038)
(-9.56738 -1.62733e-17 5.53449)
(-12.6285 -3.61811e-18 12.365)
(-18.7761 1.23446e-18 7.05882)
(-21.864 8.32933e-18 7.9528)
(-23.7993 0 10.3517)
(-24.6734 3.34553e-18 11.5605)
(-24.5207 8.97299e-20 11.7278)
(-23.7412 0 11.447)
(-22.6837 2.64563e-18 11.044)
(-21.3966 0 10.6435)
(-19.7574 5.21833e-18 10.3398)
(-17.8571 0 10.0851)
(-15.983 0 9.79036)
(-14.3719 0 9.36117)
(-12.9434 0 8.84921)
(-11.5914 7.318e-18 8.34348)
(-10.7743 0 7.81351)
(-11.0592 0 6.84777)
(-12.8509 0 5.39606)
(-13.3636 -1.09335e-17 5.0447)
(-13.0739 2.96537e-18 3.94571)
(-11.8184 0 4.05212)
(-11.5064 2.14181e-18 3.85533)
(-12.6924 0 2.92698)
(-11.0695 -4.83687e-17 2.68838)
(-4.98127 0 5.37482)
(3.57752 0 9.93181)
(5.53985 5.49708e-18 12.2563)
(-3.44175 0 7.58589)
(-9.89458 0 2.3287)
(1.85965 4.83625e-17 9.64246)
(21.6177 0 25.0341)
(7.43619 0 11.392)
(-65.7459 0 -79.5599)
(-89.6266 0 -106.643)
(-17.8372 1.49639e-16 -3.17192)
(71.7478 0 106.185)
(33.706 0 29.6378)
(-85.895 1.22527e-16 -118.054)
(-68.2235 0 -76.3772)
(10.8232 -6.01712e-18 22.9383)
(10.9618 -6.11583e-17 27.6462)
(-12.6435 2.61437e-16 9.07762)
(-22.4373 0 7.07439)
(-27.7297 0 10.9904)
(-35.6005 -6.23792e-17 13.7951)
(-40.5375 0 16.5486)
(-37.7324 -8.25362e-16 20.264)
(-30.6095 0 21.8996)
(-24.0185 7.71277e-19 18.5808)
(-16.755 0 9.99915)
(-2.77043 0 2.16815)
(20.9153 0 -10.2212)
(47.7613 1.15959e-15 -23.5982)
(63.5245 0 -52.7245)
(86.7402 0 -70.7055)
(109.437 0 -76.2162)
(113.98 0 -62.1312)
(69.4171 4.76632e-15 -28.6673)
(-15.4611 0 30.008)
(-104.996 -1.53552e-17 74.4596)
(-97.5385 0 66.0117)
(-32.3963 -1.1584e-15 38.4586)
(-38.7553 -6.94702e-15 45.5444)
(-76.8909 0 15.9816)
(19.4666 -9.26121e-15 -62.9288)
(243.232 -1.19878e-15 -179.849)
(399.693 0 -246.883)
(404.581 -4.02474e-15 -222.245)
(288.241 0 -143.635)
(93.769 0 -19.1181)
(-137.744 0 135.238)
(-331.426 0 219.786)
(-340.356 2.14941e-17 194.845)
(-233.488 -5.19245e-15 123.998)
(-135.584 0 66.0896)
(-70.5629 0 29.2166)
(-37.4485 1.57008e-17 11.8673)
(-19.5229 -8.82457e-16 5.9347)
(-10.601 -1.239e-15 3.82468)
(-0.987925 0 -1.73531)
(20.2211 0 -15.0592)
(48.0989 0 -29.094)
(59.2788 -2.47998e-15 -31.4917)
(43.5201 2.35177e-17 -19.8649)
(13.2694 5.39776e-16 -4.01637)
(-9.66124 0 10.1236)
(-21.6391 5.30595e-16 12.8113)
(-23.105 -3.05992e-16 12.7562)
(-17.9142 0 9.16492)
(-9.62235 0 3.87339)
(-1.13959 6.70003e-16 -1.24068)
(4.80622 0 -3.06083)
(5.78771 6.00787e-16 -2.85351)
(1.97407 8.21314e-18 -0.425378)
(-3.45045 -5.78881e-17 5.44708)
(-11.6075 2.7855e-16 7.43285)
(-17.8248 0 10.6528)
(-21.4557 -5.9016e-16 12.5613)
(-22.9988 3.52276e-16 13.2164)
(-22.2857 -3.80643e-16 12.6639)
(-20.3135 0 11.447)
(-17.7181 -1.34238e-16 9.98745)
(-14.9044 0 8.46465)
(-12.8496 -5.28158e-17 7.29905)
(-10.9466 -1.30202e-17 6.28543)
(-10.0165 0 5.77549)
(-9.2976 -4.3187e-16 5.31212)
(-9.08064 0 5.26049)
(-9.00735 -8.30104e-16 5.15028)
(-9.19896 1.92887e-16 5.29023)
(-9.2952 0 5.3694)
(-9.64969 0 5.58421)
(-9.82384 0 5.68972)
(-9.99445 5.41267e-20 5.84135)
(-10.7489 7.0557e-17 6.24253)
(-10.0484 2.61446e-18 5.85541)
(-12.6347 0 7.35395)
(-11.2171 2.73539e-16 6.48187)
(-12.7727 0 7.48904)
(-16.7603 4.81757e-19 9.72626)
(-12.6096 1.55025e-18 13.7267)
(-14.508 -5.67477e-19 11.7276)
(-18.6239 -3.14582e-18 11.7859)
(-24.2497 3.44686e-18 12.806)
(-28.5814 2.78425e-18 13.8928)
(-30.8637 2.73296e-18 14.7524)
(-31.4376 0 15.2611)
(-30.9807 0 15.376)
(-29.9156 0 15.2037)
(-28.3611 -4.94239e-18 14.8947)
(-26.4904 0 14.4912)
(-24.6016 0 13.9693)
(-22.8825 0 13.3159)
(-21.2322 0 12.6122)
(-19.6148 0 11.9071)
(-18.5794 1.23155e-17 11.1519)
(-18.5376 -1.46677e-17 10.1668)
(-19.6338 0 8.93708)
(-19.6013 0 8.63842)
(-18.6251 7.13335e-18 7.61645)
(-16.7693 6.56401e-18 7.76367)
(-16.37 -1.73507e-17 7.19682)
(-16.5865 3.25409e-17 7.08048)
(-14.0137 4.5801e-17 6.88701)
(-8.005 -3.68897e-17 8.36622)
(-1.69941 1.34869e-17 9.03648)
(-1.80543 0 8.21748)
(-8.5276 2.83446e-17 7.08395)
(-10.128 0 8.18838)
(-0.288972 -4.57788e-17 10.9353)
(5.26057 0 6.55885)
(-22.0381 0 -13.2953)
(-63.1557 0 -51.4492)
(-46.4553 -2.11185e-16 -44.391)
(17.6071 -1.41553e-16 28.9478)
(48.9441 0 76.4871)
(-26.193 0 -27.8709)
(-90.6531 -1.15857e-16 -109.686)
(-31.6015 0 -28.6368)
(13.4945 7.64777e-17 24.2103)
(0.509043 2.72742e-16 22.222)
(-19.9215 0 11.6119)
(-28.1595 0 12.2979)
(-34.278 0 17.2937)
(-43.4326 0 20.9801)
(-49.4004 -5.28298e-16 24.0849)
(-47.4283 0 27.2369)
(-40.5338 7.15762e-16 27.5064)
(-32.6601 3.94406e-16 22.0461)
(-21.7049 0 10.5654)
(-2.16731 0 -2.13063)
(29.4772 0 -20.6331)
(62.432 -1.09402e-15 -47.2683)
(93.4545 1.02139e-15 -75.4728)
(126.443 8.43335e-16 -96.61)
(152.525 0 -100.297)
(149.161 -1.66758e-15 -76.8012)
(86.9751 -4.42423e-15 -20.2616)
(-30.4464 0 53.1575)
(-149.198 -3.80882e-15 108.263)
(-145.876 0 91.0968)
(-61.9101 1.10366e-15 48.413)
(-62.6608 6.63152e-15 44.4943)
(-80.8096 0 10.6286)
(69.4095 4.28313e-15 -112.169)
(370.114 9.80844e-16 -270.943)
(554.967 0 -340.618)
(523.401 0 -279.862)
(339.238 0 -153.578)
(68.5088 5.16187e-15 4.63408)
(-218.027 2.90552e-15 198.311)
(-439.337 0 289.56)
(-436.979 1.71546e-15 244.055)
(-301.655 4.76632e-15 152.504)
(-176.641 0 81.0558)
(-91.9845 0 36.7035)
(-47.5842 1.86757e-15 15.4457)
(-24.5754 -3.44305e-18 7.9722)
(-12.5163 0 4.27978)
(2.37324 0 -4.04964)
(31.5641 0 -23.3562)
(66.9372 0 -41.0743)
(78.02 1.88199e-17 -41.7528)
(54.5428 3.52261e-16 -24.3392)
(14.1687 0 -2.74934)
(-16.1367 0 14.0265)
(-30.0992 0 18.0487)
(-31.0531 -2.81551e-16 17.2406)
(-23.5652 0 11.8739)
(-12.3027 3.90008e-16 4.99677)
(-1.37529 -6.27425e-16 -1.01069)
(5.2183 7.14179e-16 -3.40777)
(5.31507 -5.62427e-16 -2.58372)
(-0.346245 3.45282e-16 1.24473)
(-8.81563 5.41715e-17 7.61105)
(-18.695 -2.60649e-16 11.7186)
(-26.4751 0 15.8707)
(-30.8346 0 18.0564)
(-32.4075 3.25667e-16 18.638)
(-31.0989 1.76725e-16 17.6626)
(-28.2625 -2.19256e-17 15.9151)
(-24.7085 -2.20939e-18 13.8906)
(-21.0268 0 11.8706)
(-18.2981 0 10.3472)
(-15.9128 1.21699e-17 9.07111)
(-14.7228 0 8.43983)
(-13.8564 4.02209e-16 7.90866)
(-13.644 0 7.88071)
(-13.6117 9.70975e-19 7.78915)
(-13.9294 0 8.03462)
(-14.1431 9.92817e-18 8.15554)
(-14.7182 7.76309e-18 8.51747)
(-14.9875 8.82918e-17 8.66088)
(-15.3985 4.63684e-20 8.95886)
(-16.3663 0 9.46837)
(-15.5181 -2.44152e-18 9.02604)
(-19.0781 1.58271e-16 11.0807)
(-17.0191 -2.55421e-16 9.80768)
(-19.2149 0 11.2987)
(-24.3132 6.59354e-19 14.1286)
(-11.1183 0 16.0748)
(-10.8848 1.30762e-19 15.4978)
(-14.7014 0 14.9615)
(-20.868 -3.25672e-18 14.9527)
(-26.9036 -5.62049e-18 15.406)
(-31.7684 -1.23071e-18 16.3704)
(-34.9057 0 17.5799)
(-36.4723 0 18.4891)
(-36.8374 -3.74636e-18 18.8894)
(-36.2561 -4.39831e-18 18.9044)
(-35.0239 4.2843e-18 18.663)
(-33.5133 6.63626e-18 18.2023)
(-31.9325 3.19492e-18 17.5698)
(-30.2298 0 16.8691)
(-28.4625 0 16.1392)
(-27.2435 -2.29163e-17 15.3205)
(-26.9109 4.99573e-19 14.3671)
(-27.4426 0 13.195)
(-26.9905 7.5217e-18 12.8018)
(-25.4685 4.6096e-18 11.8091)
(-23.3033 -6.2056e-18 11.5906)
(-22.5094 0 10.67)
(-22.0658 -3.07609e-17 10.8403)
(-19.0476 3.87102e-17 10.3544)
(-13.3937 3.48675e-17 10.2844)
(-7.86966 -1.72545e-18 9.5981)
(-7.86394 0 8.13625)
(-12.8135 3.10318e-18 8.38871)
(-12.9897 0 11.2158)
(-6.4842 -5.41308e-17 11.3288)
(-8.21393 0 -1.07316)
(-31.9049 0 -17.8063)
(-41.092 0 -9.62599)
(-10.3395 1.9947e-16 13.0788)
(21.0059 0 31.0988)
(0.91177 0 18.0485)
(-60.83 0 -52.3288)
(-68.5793 0 -72.2236)
(4.23673 -2.35668e-16 20.3492)
(12.7935 -2.93835e-16 28.2235)
(-7.95887 0 20.5337)
(-26.2958 -2.29231e-16 14.2391)
(-33.4098 0 16.9001)
(-40.1274 0 22.666)
(-50.1872 0 26.8523)
(-56.6748 3.13675e-19 30.016)
(-54.8708 0 32.5243)
(-47.6376 -6.74892e-16 31.3037)
(-38.1836 0 23.4802)
(-23.5626 0 8.96098)
(1.1229 3.19453e-16 -8.68969)
(39.5599 0 -32.9861)
(80.22 0 -67.0317)
(121.413 -2.08315e-17 -98.3261)
(161.109 -7.94316e-16 -120.414)
(187.676 0 -119.54)
(175.797 5.62034e-17 -84.5694)
(97.136 4.04066e-15 -4.68608)
(-48.0387 0 79.9509)
(-189.364 1.78055e-15 141.266)
(-193.114 0 114.895)
(-91.635 -1.03827e-15 57.9087)
(-78.5118 -6.23745e-15 43.2163)
(-72.3675 0 -9.03946)
(133.564 -3.62506e-15 -178.675)
(501.117 -7.5858e-17 -366.406)
(690.284 0 -421.34)
(601.89 0 -309.702)
(348.041 0 -132.836)
(32.7604 -9.5859e-15 69.9165)
(-292.154 -1.3422e-16 264.254)
(-522.439 0 344.939)
(-508.682 -1.52066e-15 276.257)
(-354.498 -8.86371e-15 169.618)
(-210.092 0 89.7749)
(-110.881 0 41.5934)
(-57.2543 0 18.1466)
(-29.4203 -4.52639e-18 9.6027)
(-13.3874 0 3.83695)
(6.42698 0 -9.39352)
(43.6687 0 -32.7117)
(84.6653 0 -52.4786)
(93.9974 1.06576e-15 -49.9626)
(62.6309 2.67895e-16 -26.5338)
(13.3574 0 0.145595)
(-22.5946 0 19.0689)
(-38.1337 0 23.0761)
(-38.3597 2.51581e-18 21.1254)
(-28.7213 0 14.0928)
(-15.0524 -3.65104e-16 5.88416)
(-2.34786 0 -0.433861)
(4.24477 -6.68381e-16 -2.95671)
(3.24143 0 -1.08681)
(-4.46765 -1.57695e-16 3.92096)
(-15.5334 0 10.9744)
(-26.754 0 16.8185)
(-35.7528 0 21.4823)
(-40.4875 0 23.719)
(-41.9012 -3.04514e-16 24.0456)
(-39.9211 0 22.5666)
(-36.2656 2.04971e-17 20.3015)
(-31.8235 1.19389e-16 17.7583)
(-27.4123 0 15.3428)
(-24.097 0 13.5321)
(-21.3575 0 12.088)
(-19.9549 0 11.3804)
(-19.03 -1.09588e-18 10.8399)
(-18.8373 0 10.8531)
(-18.8982 7.20918e-16 10.8193)
(-19.3537 0 11.1714)
(-19.7051 -1.80432e-17 11.3584)
(-20.5255 -7.25056e-18 11.883)
(-20.8848 -8.24571e-17 12.0613)
(-21.5942 -1.45664e-16 12.5553)
(-22.7311 0 13.1287)
(-21.8115 0 12.6981)
(-26.2327 -2.95522e-16 15.2313)
(-23.5653 -2.38185e-16 13.5621)
(-26.3615 -1.05475e-16 15.5541)
(-32.0736 5.43975e-18 18.6614)
(-10.3388 0 17.1834)
(-9.82184 -1.52946e-18 17.0106)
(-12.1852 0 16.8384)
(-16.6655 0 16.7429)
(-22.1669 0 16.687)
(-27.8401 0 17.3087)
(-32.8472 0 18.6799)
(-36.8172 2.4014e-18 20.1565)
(-39.5864 3.53458e-18 21.2437)
(-41.0864 8.1523e-18 21.8878)
(-41.4961 -7.9533e-18 22.1657)
(-41.1781 -6.26299e-18 22.1092)
(-40.3784 -3.01549e-18 21.773)
(-39.1372 0 21.2704)
(-37.6308 0 20.6504)
(-36.525 2.09295e-17 19.872)
(-36.1482 2.48598e-17 18.9735)
(-36.3614 0 17.8365)
(-35.6559 -7.09973e-18 17.2741)
(-33.701 -4.35092e-18 16.3049)
(-31.2504 0 15.811)
(-30.0163 1.46244e-17 14.7141)
(-29.2224 0 14.388)
(-25.8936 -1.73201e-18 13.8908)
(-20.5458 -2.94768e-17 12.4438)
(-14.8249 -9.64117e-20 11.3207)
(-14.2469 0 9.56717)
(-17.8468 -2.82013e-17 10.133)
(-17.7339 5.26968e-17 13.0462)
(-13.4612 1.02698e-16 12.6923)
(-15.6595 4.38631e-17 1.905)
(-30.6129 0 -7.28298)
(-29.6776 -7.16377e-17 9.08719)
(-2.88023 0 29.6286)
(4.21563 0 19.2586)
(-32.9957 0 -17.423)
(-58.1563 0 -32.8136)
(-28.7062 0 -12.8814)
(23.7082 1.75995e-16 47.9741)
(9.74072 1.70327e-16 36.9871)
(-16.2862 0 19.4477)
(-31.9943 4.24407e-16 16.5905)
(-37.7753 0 21.0644)
(-44.8116 0 27.3446)
(-55.3955 0 31.6903)
(-61.942 4.69041e-16 34.6168)
(-59.8415 0 36.2683)
(-51.9514 0 33.358)
(-40.8325 0 23.0456)
(-22.8749 0 5.3444)
(6.35739 -5.88541e-16 -17.0541)
(50.5052 0 -46.3688)
(97.9545 0 -85.381)
(145.965 -8.85734e-16 -120.084)
(189.598 0 -141.171)
(214.288 0 -133.57)
(192.725 2.78911e-15 -85.9773)
(95.1908 -1.86359e-15 4.50567)
(-63.6089 0 108.133)
(-223.087 0 172.169)
(-238.522 0 137.208)
(-122.019 9.49464e-16 66.1084)
(-87.8146 0 38.6203)
(-50.7692 0 -40.5569)
(210.456 6.57117e-15 -256.827)
(628.014 -1.52663e-15 -462.743)
(796.997 0 -482.807)
(635.625 0 -308.157)
(320.862 0 -87.1248)
(-43.4292 4.446e-15 99.7851)
(-358.084 -2.43502e-15 325.732)
(-581.503 -8.82282e-16 387.595)
(-559.142 1.4266e-15 295.868)
(-394.279 4.11734e-15 178.194)
(-236.826 -4.62574e-15 93.439)
(-127.186 0 44.1889)
(-66.3556 0 19.972)
(-33.9304 3.72263e-16 10.693)
(-13.4086 0 2.47422)
(11.761 0 -16.1522)
(56.3007 0 -42.723)
(100.761 0 -63.0859)
(107.013 0 -56.1841)
(67.9709 -4.64259e-16 -26.6216)
(11.1396 0 4.22778)
(-29.245 7.34926e-16 24.2385)
(-45.7503 0 27.8189)
(-45.0234 2.5632e-18 24.5928)
(-33.5146 -1.62059e-16 16.113)
(-18.1259 0 6.83874)
(-4.54479 0 0.271652)
(1.7487 0 -1.6236)
(-0.74822 0 1.25938)
(-10.1078 1.20281e-16 7.91716)
(-23.2678 0 15.6729)
(-35.7565 0 22.4655)
(-45.567 0 27.4609)
(-50.419 0 29.5412)
(-51.5308 0 29.5268)
(-48.8452 0 27.515)
(-44.4454 0 24.7707)
(-39.1937 0 21.7559)
(-34.1939 -9.70764e-17 19.0278)
(-30.366 0 16.9764)
(-27.3905 0 15.4317)
(-25.8002 0 14.6701)
(-24.8977 -3.50019e-16 14.1573)
(-24.7119 0 14.2166)
(-24.9183 -3.36182e-16 14.2584)
(-25.4896 0 14.7135)
(-25.9988 4.39734e-19 14.9729)
(-27.0603 0 15.6586)
(-27.4908 7.68314e-17 15.8592)
(-28.5324 0 16.5669)
(-29.7715 0 17.1616)
(-28.8516 0 16.7916)
(-33.9532 1.37935e-16 19.696)
(-30.7446 4.44452e-16 17.6591)
(-34.0789 1.99236e-16 20.1451)
(-39.8207 3.23436e-18 23.1814)
(-10.2233 0 17.326)
(-9.81371 1.62371e-18 17.3885)
(-10.954 0 17.7621)
(-13.6666 0 17.9289)
(-17.5109 1.78899e-18 17.8026)
(-22.1531 3.66908e-19 18.1426)
(-27.1596 1.08772e-18 19.2918)
(-32.201 -6.82796e-18 20.8412)
(-36.8683 0 22.2976)
(-40.7169 -1.91555e-19 23.5017)
(-43.5377 3.68441e-18 24.4335)
(-45.3836 0 25.0354)
(-46.339 0 25.2803)
(-46.446 0 25.2268)
(-45.9655 0 24.917)
(-45.5973 -4.00127e-19 24.3286)
(-45.6905 -4.3364e-19 23.5691)
(-46.0115 -1.01268e-17 22.5296)
(-45.308 -6.34665e-18 21.903)
(-43.1934 0 20.9741)
(-40.6117 -4.44936e-18 20.2794)
(-39.0287 -1.37831e-17 19.0799)
(-37.9069 0 18.3749)
(-34.4491 -1.25536e-18 17.5527)
(-28.789 3.16441e-19 15.8085)
(-22.8635 -9.70995e-18 14.1949)
(-21.5785 0 12.0217)
(-23.8312 0 12.5012)
(-23.4653 -4.965e-17 15.1707)
(-20.2697 2.92483e-18 15.4446)
(-20.8071 -7.74187e-17 8.25394)
(-28.6299 0 4.11441)
(-25.3542 1.10961e-16 18.5206)
(-8.04232 0 29.8582)
(-10.5296 0 14.2803)
(-39.3667 -1.15559e-16 -12.9494)
(-41.0709 0 -3.38268)
(-0.978847 -3.26682e-16 30.2635)
(17.6081 1.2398e-16 41.6957)
(-1.24209 -2.68923e-16 33.7012)
(-25.4286 0 18.6241)
(-36.3868 -9.58248e-18 18.9272)
(-40.9636 0 24.8135)
(-48.1263 0 31.286)
(-58.8943 0 35.4445)
(-65.1206 0 37.8485)
(-62.4162 0 38.4302)
(-53.725 5.7323e-16 33.7205)
(-41.0588 0 20.9279)
(-20.2999 0 0.0853869)
(12.5891 2.70647e-16 -26.7371)
(61.0802 0 -60.3188)
(113.47 8.44212e-16 -103.075)
(165.903 7.90962e-16 -139.813)
(211.144 -6.44391e-16 -158.139)
(232.48 0 -142.264)
(202.226 -1.28275e-15 -81.9232)
(94.0908 -1.59744e-15 22.9461)
(-74.8256 0 135.863)
(-248.486 0 199.921)
(-281.23 0 158.285)
(-153.722 -8.91496e-16 72.73)
(-92.1263 0 28.5812)
(-17.0543 0 -83.5574)
(297.453 -2.97143e-15 -342.712)
(743.171 1.33196e-15 -556.088)
(867.808 0 -518.73)
(623.846 0 -274.121)
(260.681 0 -18.9645)
(-93.9671 0 182.758)
(-404.791 -2.02755e-15 378.046)
(-622.246 8.27259e-16 419.158)
(-595.037 0 306.031)
(-424.637 0 180.029)
(-258.264 4.33531e-15 92.8344)
(-141.026 0 44.5395)
(-74.737 1.46283e-15 20.8385)
(-38.0284 3.58916e-16 11.1419)
(-12.446 0 0.184169)
(19.3563 0 -21.8002)
(68.7038 0 -53.0239)
(114.893 0 -72.5688)
(117.108 0 -60.3147)
(70.8964 1.9973e-16 -24.7298)
(7.84749 0 9.39093)
(-36.0667 -1.38429e-15 29.1134)
(-52.9235 0 32.0616)
(-51.1522 2.53481e-18 27.7799)
(-38.3101 9.61314e-18 17.9303)
(-21.785 0 8.02879)
(-8.216 5.49761e-16 1.13956)
(-2.33782 0 0.701323)
(-6.13251 0 5.02006)
(-17.0129 -2.08972e-16 13.2112)
(-32.0501 0 21.4298)
(-45.5453 0 28.6488)
(-55.8923 0 33.7321)
(-60.6747 0 35.5294)
(-61.4373 0 35.1071)
(-58.0586 0 32.5515)
(-53.0101 0 29.3785)
(-47.0149 0 25.9376)
(-41.5434 9.06932e-17 22.9786)
(-37.2381 0 20.7211)
(-34.1102 0 19.1389)
(-32.3176 0 18.3261)
(-31.4891 3.2418e-16 17.879)
(-31.2633 2.86191e-16 17.9636)
(-31.6444 3.1157e-16 18.1026)
(-32.2763 -1.44049e-16 18.6302)
(-32.9439 3.66862e-19 18.966)
(-34.2037 -6.76803e-18 19.7893)
(-34.6648 -1.43223e-16 19.9896)
(-36.0267 0 20.9108)
(-37.2764 5.42567e-17 21.4628)
(-36.4084 -4.08808e-18 21.198)
(-41.9381 0 24.317)
(-38.2859 -2.07319e-16 21.9593)
(-42.0647 -9.40667e-17 24.9011)
(-47.2564 -3.01802e-18 27.5096)
(-10.1184 0 17.4677)
(-9.70248 -7.57627e-19 17.6742)
(-10.4288 0 18.191)
(-12.1638 0 18.57)
(-14.451 -1.68471e-18 18.6653)
(-17.3951 -3.45468e-19 18.961)
(-21.0461 -1.02389e-18 19.8477)
(-25.409 6.43295e-18 21.1773)
(-30.2793 0 22.6083)
(-35.2711 2.9072e-18 23.9999)
(-40.0161 -6.04248e-18 25.328)
(-44.2212 0 26.5042)
(-47.6072 2.531e-18 27.4128)
(-49.9843 0 27.9981)
(-51.5134 -4.6161e-18 28.2356)
(-52.8071 -8.75087e-18 28.0778)
(-54.183 -1.04507e-17 27.6655)
(-55.3099 9.53172e-18 26.9236)
(-55.1398 1.15413e-17 26.4208)
(-53.3293 0 25.6558)
(-50.9176 4.18805e-18 24.9529)
(-49.2191 0 23.8122)
(-47.8567 0 22.941)
(-44.262 -2.96874e-17 22.0174)
(-38.336 5.13557e-17 20.1411)
(-32.156 0 18.0929)
(-29.9811 0 15.6123)
(-30.9347 0 15.7075)
(-30.1358 5.53768e-17 17.9305)
(-27.2777 -4.85259e-17 18.9399)
(-26.0347 -3.10394e-18 14.7408)
(-29.1964 -2.35464e-17 12.6689)
(-26.0476 -5.75921e-17 23.2763)
(-16.1719 6.40242e-17 28.25)
(-20.9195 -5.96919e-17 14.8323)
(-37.546 -1.30008e-17 1.12695)
(-29.4696 0 15.5291)
(2.20801 3.07239e-16 39.1842)
(3.92259 -7.5723e-17 30.0385)
(-15.8961 2.52884e-16 20.0191)
(-32.7982 0 15.7801)
(-39.4492 -1.75398e-16 21.4943)
(-42.7744 -1.29427e-16 28.3102)
(-50.0284 -7.43425e-17 34.3653)
(-60.6814 5.30606e-17 38.0553)
(-66.2817 0 39.7366)
(-62.7994 0 39.1289)
(-53.3463 -1.10478e-17 32.6119)
(-39.4587 0 17.4601)
(-16.6396 0 -6.32855)
(18.7721 2.34936e-16 -37.1806)
(70.1861 -5.64533e-16 -74.0347)
(125.51 -7.92863e-16 -119.454)
(180.218 -1.99089e-17 -156.867)
(225.355 1.58273e-17 -171.041)
(242.957 0 -146.087)
(206.387 0 -73.9534)
(93.1849 2.93215e-15 42.0199)
(-79.1054 0 161.627)
(-264.932 0 223.001)
(-319.556 -7.53671e-16 179.664)
(-187.611 0 77.8969)
(-92.9128 0 12.2387)
(26.4428 -4.35596e-15 -137.215)
(387.435 2.33715e-15 -435.608)
(840.705 -1.19705e-15 -637.574)
(897.007 0 -524.164)
(571.384 -2.24262e-15 -210.233)
(193.738 0 58.7514)
(-123.972 0 285.631)
(-444.548 3.68119e-15 424.288)
(-651.687 0 444.467)
(-623.512 0 311.335)
(-449.52 0 177.534)
(-276.049 0 88.8781)
(-152.562 0 42.7707)
(-82.1875 -1.36985e-15 20.6187)
(-41.6845 4.96648e-18 10.8777)
(-10.8899 -9.37745e-16 -2.95385)
(26.6695 7.72743e-16 -29.7122)
(80.5064 0 -63.3099)
(126.799 0 -80.7423)
(124.392 0 -62.4033)
(71.813 0 -21.0229)
(3.83812 0 15.2779)
(-42.1918 -7.56754e-18 34.8296)
(-59.5466 0 36.2007)
(-57.0466 2.0926e-16 30.5922)
(-43.2991 9.16081e-18 19.7797)
(-26.2826 0 9.61342)
(-12.804 -5.14017e-16 3.37278)
(-7.92499 0 3.83416)
(-13.3945 4.09125e-16 9.13028)
(-25.7653 6.56824e-18 18.3439)
(-41.7536 0 27.7268)
(-55.9803 0 35.2632)
(-66.6736 0 40.3089)
(-71.3127 0 41.731)
(-71.7475 -2.41526e-16 40.8913)
(-67.7214 0 37.8028)
(-62.1286 0 34.2563)
(-55.4341 1.07846e-16 30.4172)
(-49.5811 0 27.2844)
(-44.7866 -4.26374e-17 24.8254)
(-41.5582 -5.88609e-18 23.2388)
(-39.4981 0 22.3502)
(-38.7721 -6.03772e-16 21.9817)
(-38.4099 -1.50742e-18 22.0487)
(-38.9796 -5.80448e-16 22.2847)
(-39.5676 1.345e-16 22.8348)
(-40.3786 6.41457e-18 23.2322)
(-41.7472 6.31886e-18 24.1454)
(-42.1772 6.67393e-17 24.3077)
(-43.8029 1.18003e-16 25.4092)
(-44.9341 -5.06496e-17 25.8387)
(-44.1571 3.81612e-18 25.7094)
(-49.7816 -1.19276e-16 28.8463)
(-45.8113 1.92856e-16 26.233)
(-49.8822 0 29.5511)
(-54.0286 0 31.4308)
(-9.92346 0 17.9107)
(-9.38671 -3.84313e-19 18.1183)
(-10.0837 0 18.5234)
(-11.4773 0 18.9777)
(-12.8908 0 19.2867)
(-14.4992 0 19.6496)
(-16.5737 1.10976e-18 20.3724)
(-19.3709 -2.00862e-18 21.455)
(-23.0066 2.50172e-18 22.6883)
(-27.443 -5.89983e-18 23.9648)
(-32.5197 5.68043e-18 25.304)
(-37.9234 0 26.6854)
(-43.1954 -2.37915e-18 28.0077)
(-47.9145 0 29.1511)
(-52.0045 4.3394e-18 30.0161)
(-55.7978 6.96425e-18 30.4869)
(-59.4028 0 30.6752)
(-62.2962 0 30.5153)
(-63.5172 -5.23414e-18 30.427)
(-62.7784 0 30.0618)
(-61.1435 0 29.6101)
(-59.8149 -1.04913e-17 28.7562)
(-58.526 0 28.009)
(-55.0069 0 27.1824)
(-49.0285 -2.39814e-17 25.3786)
(-42.7285 0 23.0122)
(-39.7292 0 20.2028)
(-39.452 0 19.6691)
(-38.0413 -1.07022e-16 21.246)
(-35.3233 0 22.4064)
(-32.8845 -6.24937e-18 19.9109)
(-33.0296 -8.5808e-18 18.3102)
(-30.4214 1.56773e-17 25.3972)
(-25.1465 -6.01692e-17 26.9192)
(-28.4065 1.10888e-16 18.0964)
(-35.4518 1.14359e-16 13.4572)
(-24.1875 0 26.6545)
(-3.03179 0 38.0638)
(-6.62676 -1.26882e-16 26.0002)
(-25.6012 2.10618e-16 15.3538)
(-37.6107 0 14.3854)
(-41.3125 0 22.105)
(-43.6649 3.53512e-19 30.8041)
(-50.6553 6.98191e-17 36.5662)
(-60.864 -4.98279e-17 39.5855)
(-65.6485 -3.74842e-16 40.3925)
(-61.3531 0 38.5822)
(-51.3508 -1.24917e-17 30.3595)
(-36.7563 0 13.0705)
(-12.8052 0 -13.353)
(23.8102 -2.20506e-16 -47.8812)
(76.7993 5.29809e-16 -86.7577)
(133.04 0 -133.919)
(188.263 -6.78263e-16 -170.863)
(232.364 1.39795e-17 -180.021)
(247.028 0 -146.012)
(207.733 0 -63.916)
(95.8733 -2.63608e-15 60.6843)
(-74.9065 0 184.541)
(-269.965 0 243.858)
(-352.963 1.38649e-15 199.316)
(-224.937 0 81.8514)
(-91.5289 0 -9.91847)
(76.4636 7.92968e-15 -200.123)
(474.743 -2.19035e-15 -530.789)
(913.548 5.54875e-16 -701.766)
(882.019 0 -496.022)
(487.258 2.10111e-15 -123.219)
(117.869 0 133.269)
(-176.052 -3.03071e-15 317.536)
(-464.796 -1.66818e-15 465.499)
(-677.532 0 468.166)
(-651.966 0 316.015)
(-473.5 -3.03594e-15 173.098)
(-292.219 -3.55328e-15 82.546)
(-162.137 0 39.0097)
(-88.4591 0 19.1542)
(-44.8924 -6.42451e-16 9.85446)
(-9.0581 8.77535e-16 -6.77894)
(34.2888 -1.46645e-15 -37.6302)
(91.2186 0 -73.2825)
(136.352 0 -87.469)
(129.087 0 -62.5527)
(71.1108 0 -15.8211)
(-0.493862 0 21.7968)
(-48.1255 -6.13557e-18 40.2105)
(-65.684 0 40.2355)
(-62.8128 0 33.3057)
(-48.6919 8.40851e-18 21.7589)
(-31.6049 0 11.6585)
(-18.4739 -4.88799e-16 6.60084)
(-14.8167 0 8.06847)
(-21.4043 -3.82356e-16 14.7036)
(-35.0261 4.45292e-18 24.7129)
(-52.1384 0 34.5367)
(-66.9001 0 42.2115)
(-77.8911 0 47.1385)
(-82.4086 0 48.1704)
(-82.6181 2.01387e-18 46.9415)
(-78.0178 -1.07676e-16 43.3464)
(-71.9865 -3.11714e-17 39.4818)
(-64.5997 -1.00727e-16 35.2546)
(-58.4145 0 31.986)
(-53.0572 3.98184e-17 29.2978)
(-49.7342 5.49657e-18 27.7204)
(-47.2801 0 26.6966)
(-46.649 2.81088e-16 26.4063)
(-45.9999 -4.94599e-16 26.3787)
(-46.7444 2.70309e-16 26.7044)
(-47.1359 0 27.1935)
(-48.0503 -5.4711e-18 27.6309)
(-49.3917 0 28.5563)
(-49.7061 0 28.6332)
(-51.4919 -1.10153e-16 29.8588)
(-52.3415 0 30.0654)
(-51.6825 0 30.0933)
(-57.001 1.11331e-16 33.012)
(-52.8679 -1.80005e-16 30.229)
(-56.9942 -9.03167e-17 33.7789)
(-59.7601 -1.7059e-18 34.7202)
(-9.73813 0 18.5051)
(-9.05419 3.61202e-19 18.6603)
(-9.74868 1.58217e-18 18.9287)
(-11.0398 0 19.3548)
(-12.1304 0 19.7538)
(-13.0631 0 20.1667)
(-14.0601 -1.04286e-18 20.7943)
(-15.4052 0 21.696)
(-17.3993 -2.35041e-18 22.7383)
(-20.3139 0 23.8142)
(-24.286 0 24.9553)
(-29.2111 3.46455e-18 26.2155)
(-34.759 0 27.5747)
(-40.5656 -3.49478e-19 28.9413)
(-46.5085 3.10434e-18 30.2153)
(-52.6949 -6.54037e-18 31.2523)
(-58.9379 0 32.1175)
(-64.396 5.83104e-18 32.7303)
(-67.9882 0 33.3336)
(-69.3539 1.40656e-18 33.6479)
(-69.4527 0 33.7583)
(-69.347 9.85334e-18 33.4769)
(-68.8305 -1.5635e-17 33.1605)
(-65.9647 0 32.676)
(-60.4941 0 31.1053)
(-54.4358 9.45188e-18 28.6191)
(-50.8755 0 25.5591)
(-49.5703 0 24.3235)
(-47.6626 -1.11169e-18 24.9341)
(-45.1435 0 25.5072)