/*--------------------------------*- C++ -*----------------------------------*\
| =========                 |                                                 |
| \\      /  F ield         | OpenFOAM: The Open Source CFD Toolbox           |
|  \\    /   O peration     | Version:  2412                                  |
|   \\  /    A nd           | Website:  www.openfoam.com                      |
|    \\/     M anipulation  |                                                 |
\*---------------------------------------------------------------------------*/
FoamFile
{
    version     2.0;
    format      ascii;
    arch        "LSB;label=32;scalar=64";
    class       volVectorField;
    location    "0.935";
    object      ddtCorrDdt0(U);
}
// * * * * * * * * * * * * * * * * * * * * * * * * * * * * * * * * * * * * * //

dimensions      [0 1 -2 0 0 0 0];

internalField   nonuniform List<vector> 
12600
(
(7.52603 0 0.533725)
(4.64263 2.96756e-18 0.197484)
(0.130111 1.95152e-18 -0.738169)
(-1.73569 0 -1.83272)
(2.831 1.04336e-20 -0.845585)
(11.0335 0 1.83952)
(10.2956 1.11614e-17 1.25595)
(-6.56264 0 -5.64056)
(-22.7708 0 -11.2621)
(-8.66776 0 -2.4107)
(27.2391 0 13.4049)
(31.6341 -1.47553e-17 12.9455)
(-21.8865 -1.90584e-18 -11.8347)
(-65.0535 0 -27.8662)
(-4.44985 1.12102e-16 2.26957)
(114.014 0 50.0075)
(100.953 1.06237e-17 32.349)
(-109.457 0 -61.4834)
(-261.324 1.57411e-16 -101.075)
(-54.5826 0 26.8917)
(361.02 0 197.54)
(446.041 0 141.015)
(-75.9691 -3.56117e-15 -184.947)
(-610.507 9.84507e-16 -353.569)
(-427.358 2.40817e-17 -105.841)
(157.462 1.83504e-15 186.966)
(387.513 0 239.077)
(147.409 0 63.6197)
(-65.8006 0 -46.1896)
(-39.5716 -2.08355e-16 -15.2466)
(40.8363 2.37586e-17 21.7962)
(23.3994 0 7.11274)
(-23.1403 0 -12.6128)
(-17.6525 -1.40152e-16 -5.462)
(12.2542 -7.2023e-17 7.92453)
(14.1252 0 5.69764)
(-5.12296 0 -3.75856)
(-12.1025 -3.31375e-17 -5.86121)
(-0.226522 0 1.5203)
(7.46984 6.45897e-18 4.41861)
(1.70288 5.93298e-17 1.04269)
(-5.38948 2.95044e-17 -1.75395)
(-4.19416 0 -0.917188)
(0.958269 -1.87074e-17 0.942527)
(2.32099 1.35711e-17 1.21549)
(-0.394805 -4.59549e-17 0.298986)
(-2.33293 1.09871e-17 -0.243388)
(-1.26077 0 -0.00121092)
(0.652756 1.72043e-17 0.347222)
(0.988956 3.63616e-18 0.299138)
(0.0359338 0 0.0223587)
(-0.516715 1.57651e-19 -0.126154)
(-0.0599528 6.98458e-18 -0.0659418)
(0.567418 0 -0.0274599)
(0.596087 8.65991e-18 -0.0816711)
(0.152981 0 -0.130249)
(-0.21144 0 -0.169825)
(-0.141355 -1.07786e-19 -0.16656)
(0.24679 -4.99122e-20 -0.122478)
(0.625781 -2.26797e-17 -0.0427673)
(0.749796 3.41338e-17 0.0564962)
(0.58539 -7.42406e-17 0.12951)
(0.268449 0 0.147639)
(-0.0424604 -3.37573e-18 0.0932222)
(-0.307034 3.98439e-17 -0.0113006)
(-0.542579 -1.16494e-16 -0.0479985)
(-0.730057 5.14204e-17 0.183796)
(-0.874656 0 0.714727)
(-1.2581 0 1.37068)
(-2.19727 0 1.96213)
(-3.73393 0 2.42928)
(-5.18413 0 2.6956)
(-5.70849 7.30723e-18 2.72732)
(-4.93388 2.98524e-17 2.54997)
(-3.58843 0 2.04697)
(-2.75877 0 1.64507)
(-2.86362 -5.62356e-17 1.26591)
(-3.23662 1.68503e-19 1.16951)
(-3.1249 9.4843e-17 1.32229)
(-2.29059 0 1.18875)
(-0.832578 0 0.586839)
(-0.0471528 0 -0.258822)
(0.476891 3.08916e-18 -0.907063)
(2.2805 0 -1.51451)
(5.2857 0 -2.2608)
(7.08846 5.80513e-17 -2.65682)
(6.79614 -1.67412e-18 -3.45475)
(5.34426 0 -3.0683)
(3.76585 0 -2.4111)
(4.037 5.24635e-16 -2.61751)
(2.8584 2.80015e-16 -1.91195)
(4.54297 -8.35079e-18 -2.82077)
(8.7972 -1.90017e-18 -5.09957)
(-15.9011 2.6671e-18 9.27734)
(25.5052 -4.49829e-18 -14.0497)
(5.03614 -1.09746e-16 -2.3088)
(-11.7169 0 6.56918)
(10.8757 0 -6.05187)
(-2.54169 0 1.31144)
(0.00367167 -1.49045e-16 0.0284426)
(0.354269 1.73854e-16 -0.0791654)
(-2.76255 -2.75135e-17 1.39456)
(0.248507 -1.15354e-16 -0.327236)
(-2.69323 0 1.44052)
(-1.85018 0 0.950508)
(1.65587 0 -1.1509)
(7.4606 1.61924e-16 -4.44774)
(12.03 0 -6.83957)
(11.3656 -2.93553e-16 -6.24328)
(6.32266 0 -3.39237)
(-0.018113 0 0.262)
(-5.78913 -1.05965e-16 3.31966)
(-10.5063 0 5.99675)
(-11.6054 0 6.64369)
(-13.2036 0 7.52117)
(-11.224 -1.82935e-16 6.35766)
(-3.5388 0 1.98741)
(-1.53234 -1.05321e-16 0.846881)
(-1.08854 0 0.671544)
(1.85794 -4.84008e-21 -1.03156)
(10.8929 -5.17048e-19 1.47666)
(8.19433 -1.98339e-18 0.501316)
(2.33713 -3.76929e-19 -2.06321)
(0.506802 0 -3.94028)
(7.24898 4.97907e-19 -2.13046)
(14.6244 -4.99123e-18 1.28129)
(7.15667 -1.16447e-17 -1.31015)
(-14.9613 7.27108e-18 -12.0653)
(-23.2811 0 -17.3835)
(5.82826 0 -1.00884)
(42.616 0 23.0606)
(26.7514 0 19.2072)
(-42.8396 0 -20.2274)
(-66.5598 0 -40.8913)
(31.9965 1.79243e-18 9.44741)
(145.38 0 77.3345)
(66.6467 -1.14842e-16 36.5997)
(-183.477 0 -108.104)
(-256.055 -3.72681e-16 -137.607)
(86.2188 6.39357e-16 103.83)
(498.584 0 363.503)
(359.589 -1.17773e-15 175.188)
(-401.87 1.72037e-15 -505.452)
(-802.136 -3.15307e-16 -714.328)
(-269.671 -1.62804e-15 -77.0189)
(422.739 0 484.321)
(465.319 -8.89692e-17 417.414)
(105.344 0 109.061)
(-109.622 0 -90.4555)
(-30.4134 0 -27.4768)
(55.7945 -2.43601e-17 36.0886)
(19.7246 0 10.6576)
(-29.2116 0 -20.0315)
(-14.0499 0 -7.29679)
(18.178 0 12.9529)
(14.2638 0 8.07752)
(-8.23477 0 -6.60948)
(-12.3663 3.40845e-17 -8.42751)
(2.23306 0 2.367)
(8.66454 -1.84034e-17 6.20506)
(0.871292 -1.21277e-16 1.07016)
(-6.3699 -2.13727e-17 -2.87478)
(-4.1318 0 -1.31769)
(1.53956 0 1.58231)
(2.52565 -2.94986e-17 1.85367)
(-0.659926 4.69238e-17 0.301419)
(-2.5746 -8.11375e-18 -0.525047)
(-1.17147 0 -0.0542097)
(0.950062 -1.62578e-17 0.516019)
(1.27343 0 0.368606)
(0.287276 0 -0.153105)
(-0.173997 4.15434e-19 -0.429077)
(0.422835 0 -0.373931)
(1.16325 0 -0.299488)
(1.24308 -8.74968e-18 -0.404689)
(0.812084 0 -0.543961)
(0.446299 0 -0.62263)
(0.504285 -3.36828e-19 -0.585454)
(0.843555 -1.20261e-17 -0.454786)
(1.11962 1.2076e-19 -0.261582)
(1.07146 0 -0.0366253)
(0.675418 7.4084e-17 0.157975)
(0.0615924 4.85777e-17 0.297073)
(-0.617131 0 0.3881)
(-1.35774 -7.99281e-17 0.492927)
(-2.21313 1.55285e-19 0.78451)
(-3.27609 0 1.58137)
(-4.64729 2.81185e-17 2.9636)
(-6.75194 0 4.73927)
(-9.75891 0 6.53646)
(-13.3991 0 8.11595)
(-16.1672 0 8.99209)
(-16.6271 -1.28241e-17 8.89566)
(-14.2276 -3.03437e-17 7.81417)
(-10.2992 0 6.046)
(-7.60607 0 4.47998)
(-6.83559 -5.48159e-17 3.52668)
(-6.98345 2.90364e-19 3.37631)
(-6.83755 -2.00098e-22 3.57271)
(-5.05295 0 2.79336)
(-1.00832 0 0.814742)
(1.80011 0 -1.21872)
(3.70013 4.25034e-18 -2.81035)
(7.98027 -3.43353e-16 -5.03188)
(14.9113 2.65409e-16 -7.99107)
(18.8214 -5.60944e-17 -9.54734)
(19.0258 -1.97222e-18 -10.6454)
(15.9634 2.96166e-16 -9.28505)
(12.2937 0 -7.41434)
(13.7741 -5.04268e-16 -8.29466)
(12.2454 0 -7.20177)
(15.3431 8.00675e-18 -9.34778)
(27.6899 0 -15.3861)
(-54.9834 -6.10742e-16 31.2959)
(80.5043 -6.19475e-16 -46.0187)
(20.3138 0 -9.4773)
(-36.7908 0 20.8181)
(30.9721 -6.97159e-16 -18.3081)
(-7.41681 -1.35122e-16 4.57166)
(0.155354 1.40621e-16 -0.217395)
(-0.295659 -1.65115e-16 0.343596)
(-7.96284 2.61072e-17 4.37536)
(0.849024 0 -0.736679)
(-8.46544 -1.58106e-16 4.82736)
(-5.51589 0 2.95362)
(7.71162 0 -4.80366)
(26.4548 -1.53574e-16 -15.6221)
(37.8963 0 -21.9818)
(32.8357 1.07458e-18 -18.3282)
(15.4587 1.40141e-16 -8.57792)
(-4.34689 0 2.41398)
(-19.5959 0 11.529)
(-32.1119 0 18.7376)
(-34.6622 2.17361e-17 20.2205)
(-38.8722 -3.91904e-17 22.64)
(-33.4074 1.71976e-16 19.0858)
(-11.2418 0 6.21614)
(-4.32155 9.8923e-17 2.41889)
(-3.58196 0 1.73566)
(5.0957 -5.54476e-16 -3.02748)
(10.8643 5.08032e-19 0.81306)
(8.4211 2.98299e-20 -0.0352514)
(3.57174 -2.89093e-18 -2.85182)
(3.81941 0 -4.20987)
(10.7699 -1.82204e-18 -2.94713)
(14.3108 3.1929e-18 -2.39829)
(3.02339 0 -6.57689)
(-15.0194 -6.89954e-18 -12.4255)
(-12.5636 0 -9.51153)
(19.3848 8.58805e-18 5.1113)
(43.8393 0 17.6967)
(14.0067 0 8.83589)
(-47.4639 0 -15.5655)
(-45.9511 0 -19.1089)
(53.202 -5.71949e-17 14.4803)
(122.919 0 37.9672)
(14.6844 0 -5.36414)
(-174.535 0 -66.9717)
(-139.635 1.98178e-16 -14.3661)
(187.201 -1.26426e-16 153.881)
(386.062 0 190.121)
(31.0211 2.97138e-16 -122.202)
(-559.249 0 -561.286)
(-540.059 -8.02359e-16 -441.769)
(109.006 0 243.755)
(571.384 0 665.353)
(351.718 8.44691e-17 337.989)
(9.47907 0 42.69)
(-123.428 0 -89.6546)
(-8.99971 -2.26474e-16 -16.3245)
(55.1799 0 27.2636)
(11.5926 0 4.0031)
(-26.162 0 -13.6383)
(-7.42053 0 -1.26952)
(17.9243 1.69936e-17 10.1398)
(10.4657 0 3.39512)
(-8.56484 0 -6.22413)
(-9.13661 -5.62498e-17 -4.60339)
(3.08698 0 1.96212)
(7.05659 3.14114e-17 3.16464)
(-0.222272 2.02059e-18 -0.433611)
(-5.91163 2.02321e-17 -2.37342)
(-3.27344 0 -0.725875)
(1.77161 0 1.24767)
(2.29104 1.47894e-17 1.06547)
(-0.735475 0 -0.250689)
(-2.27011 7.67446e-18 -0.759233)
(-0.696765 0 -0.264972)
(1.38822 1.05991e-18 0.146288)
(1.6944 0 -0.108037)
(0.811238 0 -0.628039)
(0.488941 0 -0.889762)
(1.15539 -6.45114e-18 -0.918184)
(1.97974 0 -0.841477)
(2.11055 0 -0.957602)
(1.70098 0 -1.14678)
(1.36558 0 -1.21316)
(1.42786 -1.45156e-17 -1.12367)
(1.71436 0 -0.925307)
(1.86306 4.2084e-19 -0.67381)
(1.61115 0 -0.398777)
(0.971343 -3.48376e-17 -0.115564)
(0.0868218 -4.58013e-17 0.193646)
(-0.872765 0 0.604147)
(-1.95926 7.5955e-17 1.21468)
(-3.34401 5.4471e-17 2.12516)
(-5.34119 0 3.55296)
(-8.11728 -2.64806e-17 5.58967)
(-12.0691 0 8.22841)
(-17.0861 0 11.0642)
(-22.6086 0 13.6536)
(-26.4615 0 15.0054)
(-26.7677 2.15767e-18 14.5589)
(-22.8745 2.8536e-17 12.2456)
(-16.4775 0 9.09997)
(-11.8449 0 6.32729)
(-9.88742 3.23902e-19 4.95154)
(-9.56317 -2.36766e-17 4.70591)
(-9.24751 -4.35094e-17 4.66038)
(-6.45423 0 3.00772)
(-0.0171286 0 -0.276522)
(4.57535 0 -2.88741)
(7.47582 -4.40786e-16 -4.83864)
(13.3537 -7.37698e-19 -8.48975)
(23.2514 -2.48974e-16 -13.5605)
(28.7342 0 -16.1882)
(29.7826 1.53256e-16 -16.5576)
(25.1574 -2.77655e-16 -14.2342)
(19.8608 0 -11.5993)
(23.0883 0 -13.589)
(23.3179 -2.48188e-16 -13.7292)
(25.9046 0 -15.9044)
(44.995 7.24645e-19 -23.0903)
(-97.1603 4.13074e-19 54.2176)
(132.796 5.65532e-16 -77.5794)
(45.071 1.14309e-16 -20.0602)
(-60.3367 0 33.7083)
(46.6171 6.52423e-16 -27.6917)
(-11.3624 1.26434e-16 7.66321)
(0.963104 -1.29635e-16 -1.02292)
(-2.02905 0 1.68912)
(-12.6022 2.35572e-17 6.91971)
(1.26092 0 -0.843637)
(-13.8194 1.47841e-16 8.0889)
(-8.4556 -3.5736e-17 4.26867)
(15.7145 0 -10.3194)
(47.0244 1.43553e-16 -28.1815)
(62.2436 0 -35.9668)
(49.9909 5.14321e-16 -27.0038)
(19.7006 -1.30957e-16 -9.92163)
(-11.4393 0 7.96453)
(-33.4536 0 20.3547)
(-51.4155 0 30.0656)
(-54.3541 3.78309e-20 31.4558)
(-60.6047 3.66071e-17 34.8282)
(-52.6921 -1.61899e-16 29.3024)
(-18.7795 0 9.79491)
(-6.76562 9.18727e-17 3.65035)
(-5.73084 0 3.1115)
(7.43924 -2.81906e-19 -4.46972)
(9.86197 -1.67178e-20 -0.467489)
(6.8293 4.06329e-19 -1.35446)
(3.54325 1.25089e-18 -3.47531)
(6.12442 -3.4608e-18 -4.23573)
(13.3772 -5.96456e-18 -3.33849)
(14.5946 -7.86919e-19 -3.82781)
(2.31007 0 -7.69513)
(-11.1608 0 -10.5713)
(-2.04049 0 -5.11477)
(29.3459 -8.13424e-18 7.30046)
(42.7569 0 13.1468)
(3.85721 0 1.78279)
(-49.6905 0 -14.4035)
(-32.4774 0 -10.0852)
(61.0813 0 12.1212)
(102.346 4.0919e-17 12.8153)
(-6.67863 -1.39459e-16 -20.6455)
(-136.2 0 -23.2256)
(-57.4747 0 60.2124)
(173.356 -4.5485e-16 124.995)
(180.286 -4.03741e-17 -22.5591)
(-181.304 7.76768e-16 -328.72)
(-425.357 1.10946e-16 -370.135)
(-130.087 7.59863e-16 13.0104)
(381.711 -8.0508e-17 469.044)
(513.785 -5.75174e-16 589.446)
(190.34 0 245.327)
(-105.986 1.31062e-16 -57.1955)
(-123.006 0 -88.2599)
(16.7411 2.14351e-16 0.787382)
(56.1297 0 25.9004)
(4.23946 0 -1.20729)
(-24.9995 0 -12.0984)
(-2.49069 -9.61812e-17 2.2855)
(18.2349 -1.60733e-17 9.95905)
(7.4981 0 0.936277)
(-9.54992 0 -7.1818)
(-7.60153 5.31919e-17 -3.80457)
(4.17819 0 2.38956)
(6.56544 3.50681e-18 2.49738)
(-0.989914 5.21445e-17 -1.255)
(-5.82777 0 -2.59438)
(-2.64615 0 -0.572072)
(2.1644 0 1.2244)
(2.31152 0 0.72091)
(-0.685449 3.92758e-17 -0.681759)
(-1.92022 0 -1.08295)
(-0.142472 1.9706e-17 -0.521852)
(1.95754 1.35133e-17 -0.176566)
(2.2492 0 -0.5439)
(1.44388 0 -1.12802)
(1.25184 0 -1.40456)
(2.02724 6.08636e-18 -1.45086)
(2.88776 -2.58572e-18 -1.45579)
(3.05036 7.15484e-18 -1.6183)
(2.68616 0 -1.82082)
(2.39144 8.77052e-18 -1.86791)
(2.46386 1.25121e-17 -1.73232)
(2.7056 0 -1.47723)
(2.74787 3.88122e-17 -1.16803)
(2.33066 0 -0.827879)
(1.48725 3.16158e-17 -0.444908)
(0.358503 4.07765e-17 0.0253979)
(-0.893601 0 0.695514)
(-2.38362 -3.58129e-17 1.70045)
(-4.36432 -4.96628e-17 3.13644)
(-7.29521 0 5.22508)
(-11.3818 0 8.05071)
(-17.0433 0 11.6313)
(-23.9151 -3.02435e-17 15.4295)
(-31.1396 -4.50248e-17 18.8544)
(-35.9294 0 20.5052)
(-36.0152 2.94688e-18 19.6425)
(-30.6378 -2.99958e-17 16.2157)
(-21.9398 0 11.6187)
(-15.1922 0 7.85925)
(-11.9197 4.80621e-17 5.93662)
(-10.9739 -1.72463e-19 5.35107)
(-10.2033 0 5.01794)
(-6.24614 0 2.52958)
(2.28091 0 -1.98811)
(8.05022 0 -5.13369)
(11.352 -5.48267e-19 -7.25714)
(18.2325 3.02754e-16 -11.7077)
(30.4874 0 -18.2093)
(37.3565 0 -21.2987)
(38.635 0 -21.6901)
(32.6567 -2.58464e-16 -18.3491)
(26.3513 0 -15.3116)
(31.9141 -4.32504e-16 -18.8499)
(36.1627 2.32417e-16 -21.0839)
(36.3606 8.47462e-18 -22.5599)
(59.475 -6.77954e-19 -28.1346)
(-138.559 5.35198e-16 75.9283)
(179.562 -5.29263e-16 -109.019)
(83.1972 -1.06962e-16 -36.2886)
(-81.4767 0 45.7202)
(57.2453 0 -34.9011)
(-14.2077 1.19013e-16 10.2916)
(2.47 6.00601e-17 -2.24872)
(-4.98516 1.43363e-16 3.75217)
(-16.6676 -8.00253e-19 9.12889)
(1.3913 0 -0.876799)
(-18.4116 0 10.9417)
(-10.0704 3.34025e-17 4.68418)
(25.9191 0 -17.3665)
(68.6117 -1.33852e-16 -41.5664)
(83.7835 0 -48.4333)
(61.0867 -1.74228e-18 -32.8193)
(18.42 0 -8.12416)
(-21.8466 1.25095e-17 13.9889)
(-46.7112 -8.72081e-17 28.7379)
(-67.6143 -4.85996e-17 39.8988)
(-69.729 5.30806e-20 40.5968)
(-77.4037 0 44.6492)
(-68.5791 1.51194e-16 37.7482)
(-25.8907 1.88033e-16 12.9518)
(-8.81407 -8.57876e-17 4.62128)
(-7.78711 0 4.13586)
(8.81383 -4.55178e-19 -5.51984)
(8.65285 0 -1.86302)
(4.86111 1.3385e-19 -2.732)
(2.98443 0 -3.86434)
(7.61538 3.26983e-18 -3.65726)
(15.3694 7.2639e-18 -2.45443)
(15.5662 2.12358e-18 -2.90087)
(3.8691 0 -5.9264)
(-5.60233 0 -7.49368)
(6.83518 -7.07336e-18 -2.85159)
(34.5694 1.97491e-18 5.1865)
(38.4367 -1.86636e-17 6.09128)
(-4.49415 -5.0068e-17 -4.55799)
(-49.2393 -8.14172e-18 -13.7288)
(-22.7506 0 -6.26116)
(62.3834 0 6.95081)
(87.9114 -8.118e-17 -1.60416)
(-8.18222 -5.59016e-18 -21.5909)
(-98.4293 0 3.23961)
(-26.4643 -8.92521e-17 75.2132)
(108.276 -3.21401e-16 69.6269)
(44.5876 3.81438e-17 -110.147)
(-192.605 0 -293.895)
(-208.114 -1.04946e-16 -160.15)
(130.712 9.8056e-17 231.516)
(413.373 7.5943e-17 446.772)
(295.44 -2.0076e-16 302.668)
(-8.04396 0 48.8596)
(-207.974 -1.7243e-16 -167.149)
(-96.1886 0 -72.1378)
(43.9958 1.53034e-16 20.153)
(54.3837 0 25.2216)
(-2.82466 0 -5.53013)
(-23.6077 0 -11.6453)
(1.44594 9.08427e-17 4.14656)
(17.5669 0 9.09809)
(4.55208 0 -1.1678)
(-10.0665 0 -7.77628)
(-5.97359 0 -3.15591)
(5.11085 -4.73496e-17 2.67229)
(6.0211 -4.15608e-17 1.93129)
(-1.64379 0 -1.92836)
(-5.61666 -7.12292e-18 -2.79783)
(-1.98464 0 -0.505796)
(2.53067 0 1.10869)
(2.32588 0 0.321768)
(-0.592373 -1.4081e-18 -1.1498)
(-1.51003 0 -1.45576)
(0.454235 -1.85807e-17 -0.844581)
(2.54992 0 -0.568389)
(2.82643 0 -1.04053)
(2.10972 8.61141e-18 -1.6789)
(2.05692 0 -1.96165)
(2.9447 0 -2.0046)
(3.83523 1.61106e-19 -2.08675)
(4.02828 -6.73901e-18 -2.30043)
(3.71151 0 -2.51892)
(3.46359 -8.68975e-19 -2.54779)
(3.55308 -1.03649e-17 -2.37011)
(3.76049 0 -2.06464)
(3.71426 -1.79569e-17 -1.70353)
(3.1591 0 -1.30108)
(2.14064 -2.97426e-17 -0.82689)
(0.795671 -3.83536e-17 -0.20513)
(-0.731869 0 0.704369)
(-2.62014 3.30943e-17 2.07518)
(-5.19049 1.46322e-18 4.019)
(-9.0216 0 6.77934)
(-14.341 0 10.4075)
(-21.5803 0 14.9037)
(-30.1225 5.63896e-17 19.5697)
(-38.8573 1.22541e-18 23.6563)
(-44.4645 0 25.4369)
(-44.3443 3.51324e-18 24.0747)
(-37.6263 5.87982e-17 19.5656)
(-26.751 0 13.5997)
(-17.8489 0 8.85298)
(-13.0863 0 6.31983)
(-11.2581 -1.99484e-19 5.33101)
(-9.82364 0 4.56334)
(-4.72387 0 1.11034)
(5.5568 0 -4.46061)
(12.0447 0 -7.80659)
(15.2478 1.94906e-16 -9.79464)
(22.4584 2.84138e-16 -14.6748)
(36.4043 0 -22.1335)
(44.3922 0 -25.3048)
(45.7435 0 -25.7824)
(38.6723 1.48828e-18 -21.4533)
(31.9431 0 -18.4809)
(40.4328 4.04887e-16 -24.0862)
(50.4604 0 -29.3355)
(46.7385 -7.93129e-18 -29.189)
(69.9304 0 -29.2272)
(-170.978 -2.49471e-16 91.5679)
(218.328 0 -137.536)
(137.157 0 -59.9772)
(-100.041 0 57.0245)
(63.287 0 -39.818)
(-15.7273 -1.11283e-16 12.5388)
(4.45345 0 -3.7866)
(-8.95792 -1.34022e-16 6.72125)
(-20.3424 -1.9841e-17 10.9436)
(1.26748 0 -0.722923)
(-21.9451 0 13.2072)
(-10.1104 0 3.47533)
(38.0664 0 -26.2746)
(90.4263 8.30591e-19 -55.2061)
(101.534 0 -58.289)
(65.9908 -4.42456e-16 -34.1956)
(12.3924 0 -2.73115)
(-32.7925 -2.31445e-17 22.419)
(-58.2755 8.14508e-17 36.3154)
(-80.5619 4.53883e-17 47.6267)
(-80.8185 -1.77932e-17 46.9626)
(-89.2912 0 51.3001)
(-81.7069 0 44.0969)
(-32.5348 -3.52063e-16 15.599)
(-10.5703 -7.83174e-17 5.17339)
(-9.66825 -1.80657e-16 4.63076)
(9.48627 2.26361e-16 -6.16627)
(7.5792 0 -2.88924)
(3.57718 -9.47168e-19 -3.56225)
(3.01352 0 -3.72873)
(9.12879 0 -2.49175)
(16.9749 0 -0.690004)
(16.3105 0 -0.778825)
(5.15718 0 -3.4166)
(-1.73376 6.84946e-18 -5.36987)
(11.8545 6.67415e-18 -3.33328)
(35.5342 -5.47863e-18 0.247048)
(33.0579 3.71997e-17 -1.48222)
(-9.61923 4.72567e-17 -9.05657)
(-45.6175 7.6835e-18 -11.8325)
(-14.5612 0 -3.36974)
(60.7429 0 2.15694)
(77.3332 7.79944e-17 -11.4037)
(-2.95495 2.56669e-16 -22.2437)
(-70.2698 0 11.7979)
(-22.7719 8.42473e-17 66.3279)
(46.7277 3.03388e-16 35.1945)
(-11.3991 0 -104.373)
(-113.428 1.74663e-16 -177.67)
(-21.9346 0 -11.0307)
(222.34 -3.03688e-16 242.294)
(299.034 6.01516e-16 278.347)
(79.9871 6.73674e-17 64.0552)
(-172.323 0 -124.474)
(-205.077 4.5832e-17 -165.437)
(-33.4404 -4.14662e-16 -33.3901)
(69.1733 -2.10694e-16 40.8928)
(47.1742 1.5853e-16 21.3753)
(-10.3286 0 -10.2868)
(-21.8769 -4.35137e-17 -12.0578)
(4.83021 0 4.87008)
(16.1703 0 7.6003)
(1.73577 0 -3.0624)
(-10.0204 0 -7.98188)
(-4.09684 0 -2.45433)
(5.96719 6.37288e-18 2.83901)
(5.43297 2.08695e-17 1.35239)
(-2.15732 0 -2.51701)
(-5.21207 9.86053e-18 -2.95852)
(-1.21978 0 -0.489398)
(2.92318 0 0.913292)
(2.37801 0 -0.127574)
(-0.413693 -3.35658e-17 -1.64204)
(-1.00052 0 -1.85903)
(1.12472 0 -1.21648)
(3.18907 0 -1.01603)
(3.44389 0 -1.58699)
(2.82026 -1.63769e-17 -2.27335)
(2.90623 0 -2.5624)
(3.89242 0 -2.61061)
(4.81921 2.14033e-18 -2.74188)
(5.04084 0 -3.00481)
(4.77428 0 -3.23781)
(4.57977 -1.29387e-17 -3.24623)
(4.69335 4.50615e-18 -3.02793)
(4.87688 0 -2.67611)
(4.75879 0 -2.26831)
(4.08902 0 -1.80991)
(2.92208 2.60202e-17 -1.25383)
(1.38916 0 -0.491349)
(-0.38589 0 0.645262)
(-2.64339 -6.13835e-17 2.36872)
(-5.76605 8.29734e-17 4.80958)
(-10.435 0 8.23233)
(-16.8816 0 12.6408)
(-25.5384 0 17.9916)
(-35.5479 -2.6261e-17 23.4115)
(-45.6014 3.85336e-17 27.9918)
(-51.9367 4.83765e-17 29.7593)
(-51.6803 -3.29593e-18 27.8488)
(-43.8301 -2.87409e-17 22.3155)
(-30.9343 4.36863e-18 15.1174)
(-19.8773 0 9.36018)
(-13.4535 0 6.14613)
(-10.5057 1.01898e-17 4.64955)
(-8.20112 0 3.32608)
(-2.00344 0 -1.12039)
(9.66173 0 -7.45187)
(16.3952 0 -10.6601)
(19.0161 0 -12.2545)
(25.9238 -5.3193e-16 -17.3242)
(40.9042 0 -25.406)
(49.6513 -3.89377e-17 -28.6316)
(51.2561 0 -28.8031)
(43.2711 1.9834e-18 -23.7199)
(36.7135 -4.76232e-16 -21.2679)
(48.7647 0 -29.5266)
(65.9288 0 -38.2549)
(56.6729 0 -35.4359)
(74.7404 0 -25.9216)
(-180.697 2.25262e-16 93.4059)
(244.025 0 -160.966)
(207.395 0 -90.5471)
(-116.561 0 68.3226)
(65.1138 0 -42.853)
(-16.002 0 14.1371)
(6.65076 0 -5.39654)
(-13.8598 0 10.1569)
(-23.6881 0 12.6216)
(0.820055 8.12385e-17 -0.410403)
(-24.2198 0 14.726)
(-7.68017 0 1.25445)
(52.0769 0 -36.7381)
(111.427 1.16046e-16 -68.5192)
(114.254 0 -64.9104)
(64.3129 2.05749e-16 -31.1025)
(2.6019 0 4.89722)
(-44.4091 2.21308e-18 29.3871)
(-67.6146 0 42.6858)
(-89.9526 -4.18085e-17 53.5232)
(-87.506 0 51.0118)
(-95.9277 0 55.2588)
(-92.6276 0 49.2665)
(-38.7484 1.64778e-16 17.6692)
(-11.8879 1.45335e-16 5.44473)
(-10.9193 3.37965e-16 5.1809)
(9.58493 2.12789e-16 -6.58885)
(6.723 0 -3.26395)
(3.30295 6.58275e-19 -3.69129)
(4.04887 0 -3.22304)
(11.0076 0 -1.35649)
(18.0381 -1.24635e-18 0.725914)
(15.6755 -7.2137e-19 0.676283)
(4.11436 2.571e-18 -2.12455)
(-1.35706 -1.97792e-17 -5.05272)
(12.8841 0 -5.44281)
(34.1545 1.48626e-18 -4.79162)
(29.2226 -1.8455e-17 -6.8617)
(-10.1384 0 -10.2185)
(-38.8704 0 -7.82336)
(-7.94449 0 -0.205687)
(56.135 0 -2.09136)
(67.6972 -1.03776e-17 -19.9265)
(3.60646 -1.35089e-17 -26.1169)
(-48.921 -8.73874e-17 10.0774)
(-23.7689 1.6977e-17 55.4537)
(13.304 0 32.2)
(-11.691 -2.38854e-16 -51.3323)
(-23.5551 -1.6462e-16 -68.019)
(79.278 0 45.6904)
(195.972 -1.17099e-16 146.484)
(137.463 -3.04096e-17 76.7472)
(-76.271 5.98631e-16 -96.2649)
(-213.798 0 -174.913)
(-125.915 0 -78.7693)
(21.9754 3.907e-16 16.5099)
(79.5157 9.0731e-17 50.3722)
(33.7094 -3.13079e-16 14.5229)
(-17.7126 0 -15.865)
(-19.3677 8.80087e-17 -12.8741)
(8.1178 0 5.21343)
(14.2333 0 5.6486)
(-0.795508 3.88547e-17 -4.74633)
(-9.32786 0 -7.76196)
(-1.95424 -5.8916e-17 -1.61872)
(6.71154 6.97735e-18 2.86915)
(4.77791 -2.30688e-17 0.681088)
(-2.51668 0 -3.05588)
(-4.59168 -3.18771e-18 -3.06146)
(-0.346096 0 -0.510132)
(3.33498 0 0.626527)
(2.46497 0 -0.642643)
(-0.144903 0 -2.15996)
(-0.387731 0 -2.28489)
(1.8669 1.31596e-17 -1.63177)
(3.8693 0 -1.51751)
(4.09698 0 -2.17944)
(3.57331 7.77698e-18 -2.90246)
(3.79857 0 -3.19358)
(4.87222 -3.95048e-18 -3.24991)
(5.82924 -1.71068e-18 -3.42409)
(6.07975 -4.71023e-18 -3.73021)
(5.8685 0 -3.97255)
(5.73421 5.62732e-18 -3.95773)
(5.8792 2.51161e-18 -3.69902)
(6.04914 0 -3.30308)
(5.87449 0 -2.8526)
(5.11101 0 -2.34458)
(3.82074 -2.44315e-17 -1.71576)
(2.12989 0 -0.823606)
(0.143264 0 0.527883)
(-2.43777 2.84348e-17 2.58973)
(-6.05042 -7.34998e-17 5.51028)
(-11.4645 0 9.56873)
(-18.901 0 14.7115)
(-28.7885 0 20.8336)
(-40.0547 0 26.8805)
(-51.2461 3.3075e-17 31.8053)
(-58.2632 -4.5358e-17 33.4464)
(-58.0053 0 30.9608)
(-49.3057 0 24.4616)
(-34.6238 -4.0944e-18 16.1337)
(-21.4039 0 9.39155)
(-13.1326 3.68058e-17 5.45803)
(-8.8295 1.00145e-17 3.34265)
(-5.4564 0 1.36253)
(1.74057 0 -4.05724)
(14.3388 0 -10.8505)
(20.8477 0 -13.5633)
(22.4657 0 -14.5458)
(28.6069 2.48834e-16 -19.5501)
(44.0671 0 -27.9709)
(53.4178 7.34408e-17 -31.0503)
(55.2689 0 -30.9473)
(46.6411 2.52626e-18 -25.2317)
(40.8108 6.89502e-18 -23.7934)
(57.1365 0 -35.3538)
(82.1721 -1.81466e-16 -47.6113)
(65.2827 0 -40.5798)
(73.1531 0 -18.3934)
(-150.36 -4.1459e-16 71.6411)
(248.745 0 -175.189)
(288.97 0 -126.638)
(-131.806 0 81.5539)
(63.1752 0 -44.1876)
(-15.066 0 15.1672)
(8.76088 0 -6.79402)
(-19.0815 0 13.8838)
(-26.8503 0 14.1262)
(0.0133993 -7.58968e-17 0.0777586)
(-25.026 0 15.345)
(-3.54875 0 -4.0007)
(67.6286 0 -48.4474)
(130.552 -1.04768e-16 -80.8861)
(121.048 -1.66471e-16 -67.4957)
(56.4116 -1.88681e-16 -23.8537)
(-9.11069 9.60933e-17 14.071)
(-53.8436 6.31834e-18 36.5445)
(-74.3326 7.02404e-17 47.4506)
(-96.1271 7.77045e-17 57.3471)
(-90.5418 0 52.7234)
(-97.9435 2.65515e-17 56.5074)
(-102.677 1.26139e-16 53.7493)
(-44.5712 0 19.2239)
(-12.8678 -6.74173e-17 5.35839)
(-11.9075 -1.58049e-16 5.12942)
(9.35551 -1.98622e-16 -6.83592)
(5.98786 0 -3.20595)
(3.57929 -2.35659e-19 -3.53651)
(5.52056 0 -2.92455)
(12.7518 0 -1.06884)
(18.1515 1.17333e-18 0.731262)
(13.3216 6.78847e-19 0.390441)
(0.69616 -2.41978e-18 -2.54177)
(-3.71555 1.95657e-17 -5.79646)
(11.7367 0 -7.1484)
(32.7316 4.68327e-18 -7.45492)
(28.3421 2.59724e-17 -8.49331)
(-6.56345 0 -8.09372)
(-30.8072 1.07278e-18 -2.59233)
(-4.25788 0 2.76001)
(48.1949 5.70939e-17 -5.6099)
(58.3647 -2.38444e-17 -26.7097)
(11.4731 -9.98879e-17 -30.7549)
(-28.3453 8.22609e-17 5.22298)
(-17.8215 -3.33937e-19 49.0304)
(4.11834 0 44.275)
(5.17587 2.24837e-16 1.6449)
(28.9001 0 -6.7374)
(94.9366 0 29.5543)
(110.925 2.97613e-16 21.0587)
(1.86674 -8.39394e-16 -75.9504)
(-149.203 0 -170.552)
(-177.269 0 -146.848)
(-55.0481 0 -25.8682)
(60.0949 -1.69322e-16 49.7652)
(70.2373 -2.65821e-17 41.7288)
(14.3532 9.20853e-18 -0.546075)
(-28.986 -3.07996e-17 -29.5372)
(-14.1605 -9.51129e-17 -11.1337)
(11.5832 2.38399e-17 5.67619)
(11.8731 2.74289e-17 3.43881)
(-2.83565 -8.89729e-18 -6.09897)
(-7.95855 0 -7.11937)
(0.354401 5.54111e-17 -0.712672)
(7.27478 2.73146e-17 2.72257)
(4.06039 2.1693e-17 -0.093285)
(-2.70096 0 -3.54596)
(-3.76331 2.11301e-19 -3.11113)
(0.608463 1.33619e-17 -0.57504)
(3.74366 -3.98749e-19 0.244575)
(2.57679 -1.47242e-17 -1.22114)
(0.205774 0 -2.69737)
(0.312899 0 -2.72747)
(2.65921 -1.56213e-18 -2.08673)
(4.5685 0 -2.0698)
(4.76591 0 -2.81336)
(4.35052 7.55206e-18 -3.5597)
(4.71543 -5.90793e-19 -3.84751)
(5.86635 3.7102e-18 -3.91275)
(6.84752 1.25053e-19 -4.12392)
(7.12872 5.58559e-19 -4.46499)
(6.97881 0 -4.71064)
(6.91141 0 -4.66986)
(7.09433 -3.80801e-18 -4.37089)
(7.25933 0 -3.93254)
(7.04091 0 -3.44238)
(6.20188 1.87701e-17 -2.88984)
(4.81202 0 -2.1963)
(2.99515 0 -1.18556)
(0.840049 1.91555e-18 0.366549)
(-2.00439 -2.39927e-17 2.74707)
(-6.02247 6.35107e-17 6.1193)
(-12.0604 0 10.7702)
(-20.3219 -1.07419e-17 16.5829)
(-31.234 0 23.3795)
(-43.5485 0 29.9291)
(-55.724 -6.00852e-17 35.0724)
(-63.4264 0 36.5086)
(-63.3572 0 33.4525)
(-54.1374 0 26.0653)
(-37.949 0 16.7223)
(-22.5927 0 8.99894)
(-12.2806 -3.4466e-17 4.30755)
(-6.37373 2.84612e-19 1.45931)
(-1.73962 -2.71625e-17 -1.25673)
(6.30945 1.02626e-17 -7.58998)
(19.3556 0 -14.4894)
(25.1817 0 -16.3413)
(25.4701 0 -16.5093)
(30.4779 0 -21.3607)
(45.9783 0 -29.9183)
(55.8239 7.28354e-19 -32.7767)
(58.0065 0 -32.3366)
(48.9804 1.92907e-16 -26.1335)
(44.4116 8.36708e-18 -26.2174)
(65.8256 0 -41.7752)
(98.721 1.69669e-16 -57.0781)
(70.9991 0 -43.4723)
(65.3818 -2.59514e-18 -8.26684)
(-65.4158 8.62235e-18 18.5488)
(221.97 0 -172.895)
(372.021 0 -161.01)
(-147.601 0 97.8042)
(57.4337 0 -44.075)
(-13.1977 -7.96948e-17 15.6161)
(10.4265 0 -7.92094)
(-23.8655 0 17.7551)
(-30.0544 -1.09595e-17 15.3536)
(-1.16442 0 0.698159)
(-24.3407 9.83916e-17 14.9351)
(3.1874 -1.85219e-17 -10.9141)
(84.1413 0 -61.2614)
(146.838 1.92654e-16 -91.3541)
(121.263 2.98265e-18 -65.5738)
(43.5203 3.50824e-16 -13.1997)
(-20.4058 -8.97238e-17 23.056)
(-60.043 1.50221e-18 43.193)
(-78.8018 -6.5579e-17 50.9946)
(-99.3515 -3.61006e-17 59.5614)
(-90.896 1.47952e-17 52.9318)
(-96.4647 -2.47863e-17 56.0982)
(-113.164 -1.17749e-16 58.6217)
(-50.1655 -1.47026e-16 20.3067)
(-13.5501 6.12811e-17 4.95945)
(-12.408 0 5.05168)
(8.88881 0 -7.00673)
(5.17696 0 -3.18733)
(3.68499 3.22127e-19 -3.61408)
(6.59049 0 -3.23802)
(13.7601 0 -1.87014)
(17.3217 0 -0.660424)
(10.1184 0 -1.20469)
(-3.30422 4.95326e-20 -3.65296)
(-6.39735 -6.60492e-18 -6.10275)
(10.7279 1.13871e-17 -6.99742)
(32.5033 -2.70526e-18 -7.11901)
(29.7757 -2.44147e-17 -7.1288)
(-1.21983 0 -4.51222)
(-23.8818 -1.008e-18 2.16511)
(-4.30426 0 5.16789)
(37.7914 -5.36749e-17 -7.27818)
(50.2345 -1.32848e-17 -29.713)
(21.3402 0 -33.3159)
(-6.72605 0 -0.445036)
(-6.54168 -1.47132e-17 41.5172)
(3.19655 0 50.3368)
(11.0998 0 27.9401)
(34.8175 -1.0784e-16 7.38705)
(60.1992 0 -13.7504)
(28.463 0 -69.2598)
(-66.9263 3.14435e-16 -142.019)
(-140.137 0 -160.51)
(-102.686 0 -84.1918)
(7.46911 0 19.4264)
(71.5846 1.93744e-16 56.624)
(47.8854 0 24.0733)
(-8.78522 3.2533e-17 -18.8987)
(-28.4907 3.99599e-17 -30.5156)
(-3.58913 4.78114e-17 -7.20025)
(14.1962 -2.2404e-17 6.03164)
(9.14909 -5.14161e-17 1.11302)
(-4.19169 -2.59834e-17 -7.02035)
(-5.94407 0 -6.10671)
(2.67539 0 0.148285)
(7.58011 1.12259e-17 2.34763)
(3.30039 2.12996e-17 -0.963671)
(-2.68436 0 -3.97596)
(-2.74549 0 -3.1132)
(1.60395 -1.90073e-18 -0.693516)
(4.12276 3.74572e-19 -0.230882)
(2.70341 1.38272e-17 -1.85146)
(0.627612 2.07557e-17 -3.24142)
(1.08027 0 -3.17724)
(3.47447 -1.64623e-18 -2.57391)
(5.26085 0 -2.6647)
(5.42815 0 -3.47868)
(5.13048 -7.08821e-18 -4.23386)
(5.63441 5.54451e-19 -4.5129)
(6.85198 0 -4.58774)
(7.85139 1.39001e-18 -4.82971)
(8.16582 5.77039e-19 -5.19625)
(8.08353 0 -5.4386)
(8.08901 0 -5.36894)
(8.31478 1.87499e-18 -5.02946)
(8.48104 0 -4.54931)
(8.22846 0 -4.02064)
(7.32882 -3.38474e-17 -3.42652)
(5.86148 0 -2.67441)
(3.95204 0 -1.55598)
(1.67778 -3.79775e-18 0.179806)
(-1.35739 2.24867e-17 2.85258)
(-5.67733 -2.83267e-17 6.63728)
(-12.1942 0 11.8227)
(-21.0953 1.00643e-17 18.2273)
(-32.8175 0 25.5965)
(-45.9865 1.98054e-17 32.5379)
(-59.0305 2.72454e-17 37.8058)
(-67.4733 0 38.9995)
(-67.8315 0 35.4099)
(-58.458 3.6542e-17 27.2193)
(-41.0974 9.14217e-18 16.9571)
(-23.6111 0 8.32911)
(-11.0961 0 2.76818)
(-3.32032 -1.84045e-17 -0.946466)
(2.77812 2.54184e-17 -4.44837)
(11.5044 -1.64322e-17 -11.5935)
(24.4872 0 -18.2142)
(29.1881 0 -18.8483)
(27.9086 0 -18.0788)
(31.6066 0 -22.733)
(46.8222 0 -31.3161)
(57.1376 8.44876e-19 -33.9187)
(59.7199 0 -33.1257)
(50.5045 0 -26.5761)
(47.7218 9.8954e-18 -28.7346)
(75.0173 0 -49.2028)
(115.002 1.51548e-16 -66.1702)
(71.599 0 -42.5941)
(51.8069 2.42545e-18 2.12027)
(73.3707 1.08339e-17 -64.4095)
(152.677 0 -146.397)
(437.043 0 -187.83)
(-166.112 0 114.73)
(47.954 0 -42.5191)
(-10.7993 6.08132e-18 15.619)
(11.6659 -2.6916e-17 -8.24153)
(-27.591 9.84622e-17 21.1708)
(-33.2156 1.0236e-17 16.4343)
(-2.67574 0 1.37768)
(-21.9168 -9.18863e-17 13.2852)
(13.0495 1.72963e-17 -18.3447)
(100.833 0 -74.5599)
(159.324 -8.85335e-17 -99.2122)
(114.821 2.81511e-16 -58.923)
(27.7446 -1.63055e-16 -0.51429)
(-29.8551 0 30.7538)
(-64.0363 8.02808e-18 46.1951)
(-81.0975 0 53.3189)
(-100.428 0 60.368)
(-90.2808 -1.38111e-17 52.3818)
(-93.8611 0 55.2735)
(-125.287 0 64.4751)
(-55.7386 1.37233e-16 20.9626)
(-14.0653 -5.71974e-17 4.28955)
(-12.7761 -1.40897e-16 4.65412)
(8.29527 1.76815e-16 -7.11879)
(4.20782 0 -3.33971)
(3.37131 -3.02788e-19 -3.88836)
(7.00623 -1.22786e-18 -3.87431)
(14.0697 0 -3.11443)
(16.2453 0 -2.41107)
(7.56685 0 -2.77186)
(-5.83647 -4.66374e-20 -4.1149)
(-7.4719 0 -5.12703)
(10.8681 -1.06974e-17 -5.17233)
(33.0166 0 -5.21908)
(31.6516 0 -5.11511)
(3.51208 -3.10294e-17 -1.83642)
(-19.4274 0 5.10926)
(-7.42712 3.30675e-17 7.14487)
(26.5072 -5.47869e-17 -6.07327)
(43.5689 1.24784e-17 -27.9123)
(31.4402 0 -33.1767)
(12.6563 5.8394e-17 -7.93735)
(3.31865 0 27.2063)
(-0.987047 4.51097e-17 40.9938)
(0.819942 0 28.0021)
(14.5604 1.01291e-16 0.570276)