/*--------------------------------*- C++ -*----------------------------------*\
| =========                 |                                                 |
| \\      /  F ield         | OpenFOAM: The Open Source CFD Toolbox           |
|  \\    /   O peration     | Version:  2412                                  |
|   \\  /    A nd           | Website:  www.openfoam.com                      |
|    \\/     M anipulation  |                                                 |
\*---------------------------------------------------------------------------*/
FoamFile
{
    version     2.0;
    format      ascii;
    arch        "LSB;label=32;scalar=64";
    class       volVectorField;
    location    "0.575";
    object      U_0;
}
// * * * * * * * * * * * * * * * * * * * * * * * * * * * * * * * * * * * * * //

dimensions      [0 1 -1 0 0 0 0];

internalField   nonuniform List<vector> 
12600
(
(19.6525 0 -0.762083)
(7.99819 -3.67694e-20 -1.66846)
(3.41337 -1.7312e-20 -1.71161)
(1.74597 0 -1.26861)
(1.10426 -2.03561e-22 -0.84958)
(0.762428 0 -0.578852)
(0.53315 -3.08296e-20 -0.405773)
(0.367296 0 -0.28674)
(0.243564 0 -0.199892)
(0.149546 0 -0.134406)
(0.0763513 0 -0.0849426)
(0.0189386 -9.8899e-20 -0.046377)
(-0.0262444 -1.01154e-19 -0.0158546)
(-0.0619052 0 0.00862937)
(-0.090056 2.05626e-19 0.0278931)
(-0.111884 0 0.0430756)
(-0.128658 2.91866e-22 0.0552864)
(-0.141493 0 0.0648749)
(-0.150797 9.96415e-20 0.0721319)
(-0.157278 0 0.0775213)
(-0.161666 0 0.0813268)
(-0.163985 0 0.0839292)
(-0.164417 3.67673e-19 0.0855013)
(-0.163368 -3.57255e-19 0.0860667)
(-0.161448 -7.20495e-23 0.0858391)
(-0.158787 1.68771e-19 0.0851135)
(-0.155198 0 0.083964)
(-0.150869 0 0.0822483)
(-0.146179 0 0.0801302)
(-0.141185 -2.9685e-19 0.0777758)
(-0.135904 -5.73042e-19 0.0752279)
(-0.13049 0 0.0725044)
(-0.125006 0 0.0696851)
(-0.119499 -2.56816e-19 0.0668234)
(-0.114048 -2.47258e-19 0.0639481)
(-0.108665 0 0.0610692)
(-0.103372 0 0.0582162)
(-0.0982306 -4.39847e-19 0.0554277)
(-0.0932508 0 0.0527063)
(-0.0884429 6.69699e-23 0.0500617)
(-0.0838096 -3.89642e-19 0.0475007)
(-0.0793409 -3.73965e-19 0.0450222)
(-0.0750453 0 0.0426246)
(-0.0708973 -3.43985e-19 0.0402985)
(-0.0668821 -3.29706e-19 0.0380427)
(-0.0630071 6.31887e-19 0.0358627)
(-0.0592813 -6.05344e-19 0.0337654)
(-0.0557428 0 0.0317741)
(-0.0524451 5.54898e-19 0.0299199)
(-0.0494517 -5.31008e-19 0.0282397)
(-0.0468419 0 0.0267783)
(-0.0446764 -1.83636e-23 0.0255698)
(-0.0430096 4.64452e-19 0.0246292)
(-0.0418358 0 0.0239597)
(-0.0410563 -8.48372e-19 0.0235078)
(-0.0404419 0 0.0231479)
(-0.0395496 0 0.0226292)
(-0.0376747 2.66124e-23 0.0215157)
(-0.0338107 2.74107e-23 0.0192259)
(-0.0267181 6.73794e-19 0.0150978)
(-0.0153371 -6.42721e-19 0.00856003)
(0.000803885 1.22487e-18 -0.000476496)
(0.0203961 0 -0.0114995)
(0.0401864 1.10731e-18 -0.022705)
(0.0554437 1.05071e-18 -0.0314309)
(0.0623858 -1.99283e-18 -0.0355265)
(0.0608902 9.45134e-19 -0.0347385)
(0.0547752 0 -0.0312618)
(0.0484693 0 -0.0276849)
(0.0439906 0 -0.0251578)
(0.0441553 0 -0.0252132)
(0.0488447 0 -0.027765)
(0.0550773 -1.3716e-18 -0.0311269)
(0.0543333 1.29258e-18 -0.0304035)
(0.0404951 0 -0.0218784)
(-0.000130738 0 0.00227367)
(-0.0740151 1.06343e-18 0.0450397)
(-0.183682 7.59105e-23 0.106365)
(-0.272309 1.91894e-18 0.154852)
(-0.316085 0 0.178448)
(-0.16253 0 0.0884203)
(0.140165 0 -0.0789837)
(0.326405 -3.09913e-22 -0.19033)
(0.525997 0 -0.29011)
(1.53385 0 -0.857511)
(0.386212 7.04307e-19 -0.213398)
(-0.114674 -1.37654e-21 0.0577885)
(0.081831 0 -0.0460579)
(-0.00563762 0 0.00149769)
(0.175076 -1.52343e-18 -0.102479)
(0.228889 -1.43793e-18 -0.13079)
(0.319501 -1.30477e-18 -0.181296)
(0.288226 -1.11767e-18 -0.157193)
(-0.0227387 3.44262e-21 0.0296104)
(-0.628074 2.08213e-21 0.375589)
(-1.23306 4.66433e-19 0.707391)
(-1.64751 0 0.934284)
(-1.76654 0 0.99515)
(-1.59448 0 0.895161)
(-1.19465 6.12284e-18 0.665545)
(-0.743688 -3.32569e-18 0.411478)
(-0.354657 3.39622e-18 0.193689)
(-0.137491 3.29946e-18 0.0735923)
(0.00497169 0 -0.00567556)
(0.0631586 0 -0.0376051)
(0.0929301 0 -0.055232)
(0.158663 5.26242e-18 -0.0924169)
(0.230888 0 -0.132625)
(0.246175 -4.56208e-18 -0.139853)
(0.185533 0 -0.102294)
(-0.0467781 0 0.029712)
(-0.139839 3.56535e-18 0.0788514)
(-0.119807 0 0.0659424)
(0.00202081 0 -0.00398891)
(0.0584702 0 -0.0347791)
(0.118286 -5.6695e-18 -0.0691029)
(0.124139 0 -0.071524)
(0.16179 4.916e-18 -0.0935054)
(0.161679 0 -0.0928104)
(0.196942 -1.00146e-22 -0.113156)
(31.2627 -1.60468e-20 -1.18149)
(21.8967 2.09875e-20 -3.52619)
(13.9573 1.36901e-20 -4.40944)
(8.88605 0 -3.83551)
(5.95148 -1.24174e-20 -2.90523)
(4.17574 2.31066e-20 -2.13973)
(3.02072 3.21598e-20 -1.57993)
(2.21391 -3.75396e-20 -1.16945)
(1.62062 0 -0.860319)
(1.16981 0 -0.621881)
(0.819499 0 -0.435689)
(0.543664 0 -0.2878)
(0.324025 0 -0.169185)
(0.14751 0 -0.073277)
(0.00560355 -7.55108e-22 0.00462994)
(-0.1078 0 0.067451)
(-0.199005 1.06222e-19 0.117525)
(-0.27205 0 0.157866)
(-0.329336 -2.06991e-19 0.189712)
(-0.373658 2.03012e-19 0.214435)
(-0.407542 0 0.233123)
(-0.432035 1.95038e-19 0.246996)
(-0.448656 -1.90859e-19 0.256786)
(-0.459052 1.85399e-19 0.262104)
(-0.464349 -1.80036e-19 0.264251)
(-0.465211 0 0.264223)
(-0.461844 1.69758e-19 0.262784)
(-0.455412 0 0.259163)
(-0.446566 0 0.25388)
(-0.435698 0 0.247607)
(-0.423191 2.96283e-19 0.240552)
(-0.409517 0 0.232777)
(-0.394975 0 0.224546)
(-0.379864 0 0.216029)
(-0.364482 0 0.207349)
(-0.348933 0 0.198555)
(-0.333347 0 0.189758)
(-0.317968 4.52549e-19 0.181082)
(-0.302866 0 0.172548)
(-0.288109 8.33604e-19 0.164203)
(-0.273747 7.99556e-19 0.156073)
(-0.259783 3.83244e-19 0.148163)
(-0.246255 0 0.140485)
(-0.23311 0 0.13301)
(-0.220323 6.73952e-19 0.125736)
(-0.207932 -6.45197e-19 0.118686)
(-0.19598 6.17309e-19 0.111891)
(-0.184598 0 0.105433)
(-0.173967 -5.64637e-19 0.0994178)
(-0.164295 0 0.0939691)
(-0.155839 0 0.0892323)
(-0.148797 -4.92649e-19 0.0853171)
(-0.143324 0 0.0822944)
(-0.139401 0 0.0801464)
(-0.136708 8.57155e-19 0.0786694)
(-0.134504 0 0.0773973)
(-0.131366 0 0.0754641)
(-0.124987 4.5692e-23 0.0714909)
(-0.112137 7.09485e-19 0.0635883)
(-0.0889209 -4.80034e-23 0.0495722)
(-0.051972 0 0.0276692)
(6.49531e-05 -1.22584e-18 -0.00255236)
(0.0633429 -1.16482e-18 -0.0390548)
(0.12786 0 -0.0758414)
(0.17867 -2.09419e-18 -0.104286)
(0.203321 -1.11912e-22 -0.117543)
(0.200446 0 -0.115003)
(0.181495 8.90026e-19 -0.103713)
(0.160858 0 -0.0919498)
(0.145505 0 -0.0835733)
(0.144569 0 -0.083595)
(0.157701 0 -0.0914438)
(0.174623 2.70139e-18 -0.100999)
(0.167751 -1.27138e-18 -0.095786)
(0.115348 0 -0.0631202)
(-0.0246733 0 0.0213457)
(-0.268349 1.04165e-18 0.165462)
(-0.61322 1.3212e-22 0.363602)
(-0.878427 -3.93332e-22 0.512082)
(-0.994062 0 0.568837)
(-0.513892 0 0.271117)
(0.417393 0 -0.261909)
(1.0962 -5.02747e-22 -0.647176)
(1.46777 -1.53293e-18 -0.898343)
(4.70162 1.03432e-18 -2.71077)
(1.34612 -6.80495e-19 -0.697114)
(-0.221884 -2.07158e-21 0.138799)
(0.254539 -7.93067e-19 -0.150127)
(0.0082841 0 -0.00917539)
(0.595088 1.46428e-18 -0.35312)
(0.745102 0 -0.435007)
(0.990548 1.25103e-18 -0.573411)
(0.769113 0 -0.432088)
(-0.353962 -1.54882e-18 0.239635)
(-2.2773 -5.18874e-19 1.3615)
(-4.05468 0 2.37316)
(-5.14986 0 2.99258)
(-5.34864 -1.74009e-18 3.09144)
(-4.74033 2.38075e-18 2.72234)
(-3.50272 -5.80269e-18 1.99527)
(-2.15328 3.15855e-18 1.21589)
(-0.994826 -3.22263e-18 0.553949)
(-0.356471 0 0.194771)
(0.0621495 3.00125e-18 -0.042662)
(0.236863 0 -0.138916)
(0.343559 0 -0.201387)
(0.546181 -4.97297e-18 -0.319086)
(0.760901 0 -0.441833)
(0.759749 -1.20799e-21 -0.438019)
(0.520921 3.9334e-18 -0.292915)
(-0.187513 0 0.118391)
(-0.408791 0 0.238379)
(-0.315884 0 0.179632)
(0.067109 3.04129e-18 -0.0434918)
(0.216619 -5.67289e-18 -0.127832)
(0.415208 5.32983e-18 -0.241492)
(0.416213 0 -0.241078)
(0.547477 -4.61736e-18 -0.316871)
(0.531252 0 -0.307712)
(0.652128 7.95507e-18 -0.377059)
(34.8593 3.40338e-20 -1.10929)
(30.3466 -9.11833e-21 -3.16327)
(23.799 -3.7196e-21 -4.86025)
(17.5689 0 -5.23143)
(12.7277 -1.48356e-20 -4.69275)
(9.30597 6.19365e-22 -3.8573)
(6.92131 0 -3.05755)
(5.21184 3.563e-20 -2.38767)
(3.94316 0 -1.84631)
(2.97462 4.31938e-20 -1.41053)
(2.21949 0 -1.05794)
(1.6212 0 -0.771164)
(1.14151 0 -0.536802)
(0.753471 0 -0.344517)
(0.438778 -1.00786e-19 -0.185387)
(0.18305 0 -0.0546369)
(-0.0253704 0 0.0517139)
(-0.194595 0 0.138933)
(-0.33112 9.80263e-20 0.209191)
(-0.439983 -5.60877e-22 0.265867)
(-0.526235 0 0.310615)
(-0.592682 -4.70989e-22 0.345452)
(-0.642796 0 0.371962)
(-0.679206 -1.75222e-19 0.390355)
(-0.703819 0 0.402483)
(-0.718537 0 0.409489)
(-0.724976 -1.61021e-19 0.41214)
(-0.724753 0 0.410625)
(-0.718751 0 0.405788)
(-0.707789 -2.90622e-19 0.398948)
(-0.693072 0 0.390129)
(-0.675319 0 0.379828)
(-0.655239 0 0.368379)
(-0.633469 0 0.356109)
(-0.610595 2.41364e-19 0.34327)
(-0.586901 0 0.329987)
(-0.562681 0 0.316478)
(-0.538406 -4.28418e-19 0.302967)
(-0.514262 0 0.289517)
(-0.490411 -7.89249e-19 0.276232)
(-0.466991 -8.1952e-23 0.263171)
(-0.444045 -3.62836e-19 0.250365)
(-0.42167 0 0.237859)
(-0.399815 0 0.225614)
(-0.378463 -3.1885e-19 0.21364)
(-0.357697 0 0.201995)
(-0.337608 -5.83948e-19 0.190744)
(-0.318426 0 0.18004)
(-0.300464 4.58009e-23 0.170067)
(-0.284083 0 0.161043)
(-0.269718 0 0.153209)
(-0.257708 0 0.146745)
(-0.248298 -4.44453e-19 0.141775)
(-0.241461 0 0.138229)
(-0.236657 0 0.135716)
(-0.232641 0 0.133376)
(-0.22701 0 0.129673)
(-0.215862 1.40455e-18 0.122284)
(-0.193794 0 0.108046)
(-0.154338 -4.0037e-23 0.083331)
(-0.0918828 0 0.0453452)
(-0.00420728 5.78013e-19 -0.00657119)
(0.102728 1.09825e-18 -0.0685433)
(0.212686 0 -0.130446)
(0.300843 1.97377e-18 -0.178016)
(0.345749 9.34311e-19 -0.200142)
(0.343744 0 -0.19599)
(0.312997 -8.38184e-19 -0.177062)
(0.277817 0 -0.157178)
(0.250618 0 -0.14297)
(0.247017 0 -0.142728)
(0.266609 0 -0.154856)
(0.291295 1.98503e-22 -0.16797)
(0.274384 1.19563e-18 -0.153371)
(0.17677 0 -0.0884991)
(-0.069932 0 0.0652489)
(-0.486911 4.09325e-22 0.316158)
(-1.05751 -1.83556e-18 0.642525)
(-1.47998 -8.79029e-19 0.869269)
(-1.64554 0 0.92633)
(-0.866198 0 0.418261)
(0.627988 0 -0.43761)
(1.87766 -2.91893e-18 -1.12733)
(2.11766 -2.63917e-21 -1.38033)
(7.67617 -9.70264e-19 -4.40501)
(2.46691 0 -1.17524)
(-0.193822 -8.3807e-19 0.143392)
(0.425735 7.435e-19 -0.252726)
(0.047233 0 -0.0446744)
(1.03102 0 -0.6268)
(1.26387 1.29428e-18 -0.743331)
(1.6117 0 -0.92747)
(1.09599 1.01172e-18 -0.565368)
(-0.932836 -4.15953e-21 0.680033)
(-4.12502 4.91278e-19 2.54073)
(-6.89447 -4.15071e-19 4.0778)
(-8.43801 0 4.89405)
(-8.55387 1.62846e-18 4.89976)
(-7.48237 -2.2277e-18 4.21335)
(-5.478 5.41019e-18 3.03101)
(-3.34451 0 1.81415)
(-1.50824 -3.00776e-18 0.78992)
(-0.505036 0 0.247212)
(0.157655 -2.80639e-18 -0.115795)
(0.439608 2.6218e-18 -0.2635)
(0.63189 0 -0.377264)
(0.961502 4.64849e-18 -0.56823)
(1.29993 0 -0.75606)
(1.24012 8.05102e-18 -0.704102)
(0.795778 -3.67562e-18 -0.42241)
(-0.34183 0 0.231062)
(-0.627885 0 0.363415)
(-0.451602 0 0.241915)
(0.182584 -5.41862e-22 -0.125744)
(0.396944 5.29892e-18 -0.239989)
(0.740473 -4.97761e-18 -0.434368)
(0.720584 0 -0.418534)
(0.954371 -4.31204e-18 -0.553553)
(0.907577 0 -0.525728)
(1.12099 1.10111e-22 -0.64816)
(35.457 -1.78249e-20 -1.34136)
(34.2223 -5.05339e-21 -2.54664)
(30.4662 7.40964e-21 -4.3073)
(25.3674 -1.51241e-20 -5.44768)
(20.2069 -2.12783e-20 -5.65495)
(15.7552 -4.40903e-20 -5.20662)
(12.2189 0 -4.47988)
(9.49144 0 -3.71343)
(7.38698 0 -3.01095)
(5.74422 -4.0914e-20 -2.40213)
(4.44447 0 -1.8861)
(3.40345 0 -1.45233)
(2.5613 0 -1.08872)
(1.87462 0 -0.784191)
(1.31217 0 -0.528704)
(0.850399 -9.45494e-20 -0.315238)
(0.470808 9.42098e-20 -0.137414)
(0.158252 0 0.0102258)
(-0.0974663 0 0.132128)
(-0.305498 -1.81959e-19 0.231889)
(-0.47417 1.78165e-19 0.312731)
(-0.608478 -1.74833e-19 0.377637)
(-0.714195 1.70045e-19 0.428834)
(-0.795207 1.65923e-19 0.468126)
(-0.855433 -1.61354e-19 0.49732)
(-0.89845 1.56632e-19 0.51772)
(-0.92677 0 0.530514)
(-0.942512 -1.46925e-19 0.536766)
(-0.948318 0 0.536217)
(-0.945245 2.75061e-19 0.531762)
(-0.934775 0 0.524426)
(-0.91856 0 0.51412)
(-0.897691 0 0.501717)
(-0.873269 -2.37215e-19 0.48765)
(-0.846271 -2.28321e-19 0.472338)
(-0.817259 0 0.456005)
(-0.786766 0 0.439013)
(-0.755544 4.0512e-19 0.421715)
(-0.723966 0 0.404235)
(-0.692336 1.02056e-22 0.386755)
(-0.660925 -3.57699e-19 0.369385)
(-0.629862 0 0.352204)
(-0.599334 0 0.335289)
(-0.569328 0 0.318617)
(-0.539858 0 0.302229)
(-0.511068 -5.76357e-19 0.286229)
(-0.483117 0 0.270732)
(-0.456339 5.27241e-19 0.25597)
(-0.43119 5.04042e-19 0.242215)
(-0.408188 0 0.229779)
(-0.387945 0 0.219)
(-0.370942 0 0.210121)
(-0.357524 4.19322e-19 0.203288)
(-0.347647 -4.00119e-19 0.198368)
(-0.340543 -7.63421e-19 0.194761)
(-0.334449 0 0.191193)
(-0.326002 -6.94286e-19 0.18543)
(-0.309781 -1.32382e-18 0.174121)
(-0.278312 0 0.152819)
(-0.222678 -1.20212e-18 0.116564)
(-0.135155 0 0.0616599)
(-0.0125263 -5.44359e-19 -0.0123628)
(0.137421 -1.03417e-18 -0.0997988)
(0.292873 0 -0.186525)
(0.41977 -9.28953e-19 -0.252877)
(0.487567 -8.79426e-19 -0.283732)
(0.489184 0 -0.278068)
(0.448175 0 -0.251588)
(0.398519 0 -0.223578)
(0.358572 7.07354e-19 -0.203507)
(0.350561 6.69462e-19 -0.202808)
(0.374166 0 -0.21832)
(0.403024 -1.19418e-18 -0.232587)
(0.371254 -1.12386e-18 -0.204158)
(0.220754 0 -0.0998905)
(-0.139909 0 0.131411)
(-0.731569 -9.19475e-19 0.493821)
(-1.51263 -6.89111e-23 0.940162)
(-2.06592 0 1.22525)
(-2.25475 0 1.2574)
(-1.21674 0 0.541304)
(0.740975 0 -0.592699)
(2.64831 2.96475e-22 -1.61025)
(2.40283 1.35109e-18 -1.72693)
(10.4215 0 -6.00848)
(3.76918 0 -1.67178)
(-0.0121402 0 0.0973889)
(0.600672 6.97171e-19 -0.357224)
(0.11693 0 -0.102639)
(1.47331 1.2841e-18 -0.915426)
(1.77646 -1.21202e-18 -1.05324)
(2.15992 1.10143e-18 -1.23804)
(1.23078 -9.47112e-19 -0.574364)
(-1.7848 1.37448e-18 1.30578)
(-6.14764 -4.59768e-19 3.85746)
(-9.66299 3.88394e-19 5.77371)
(-11.3834 0 6.63239)
(-11.2705 0 6.44853)
(-9.72616 -2.06041e-18 5.44308)
(-7.05727 -2.52588e-18 3.85045)
(-4.28515 -2.74548e-18 2.26884)
(-1.88011 3.32197e-21 0.940835)
(-0.578093 0 0.25402)
(0.293601 0 -0.215116)
(0.672357 -2.45061e-18 -0.40683)
(0.958094 0 -0.576438)
(1.40146 -4.3436e-18 -0.83481)
(1.83867 0 -1.07177)
(1.67716 1.16106e-21 -0.945697)
(1.00768 0 -0.5135)
(-0.496423 -3.10613e-18 0.349114)
(-0.781534 2.92918e-18 0.454797)
(-0.521858 2.7692e-18 0.268512)
(0.349898 -6.12867e-22 -0.237887)
(0.598081 0 -0.365641)
(1.09214 4.64846e-18 -0.643011)
(1.03366 4.32141e-18 -0.602218)
(1.3787 4.02644e-18 -0.801085)
(1.28595 0 -0.746818)
(1.598 1.26369e-22 -0.926142)
(35.0931 0 -1.84295)
(35.2486 -3.69459e-21 -2.37128)
(33.8222 0 -3.6699)
(30.7693 1.42893e-20 -4.98501)
(26.7007 3.3365e-20 -5.76663)
(22.3669 2.14956e-20 -5.90084)
(18.3224 0 -5.5473)
(14.8257 0 -4.92974)
(11.9174 -3.51323e-20 -4.22267)
(9.536 -3.80468e-20 -3.52688)
(7.59254 4.0323e-20 -2.88831)
(6.00261 8.40436e-20 -2.32217)
(4.69622 8.64414e-20 -1.82924)
(3.6179 0 -1.40442)
(2.72493 0 -1.04013)
(1.98403 1.78382e-19 -0.729613)
(1.36861 -3.73604e-22 -0.466403)
(0.857023 0 -0.244415)
(0.433629 -8.68856e-20 -0.0570326)
(0.0835937 -1.71056e-19 0.0983795)
(-0.203991 -1.68441e-19 0.227298)
(-0.43805 0 0.332823)
(-0.627095 -1.60748e-19 0.418314)
(-0.777281 1.56417e-19 0.486174)
(-0.894394 1.52513e-19 0.539006)
(-0.983544 -2.82844e-22 0.578848)
(-1.04862 0 0.608064)
(-1.0938 1.661e-22 0.627877)
(-1.12196 0 0.63875)
(-1.13602 2.59358e-19 0.64135)
(-1.13871 0 0.637772)
(-1.13102 0 0.630888)
(-1.1154 0 0.620175)
(-1.09343 2.24051e-19 0.606675)
(-1.06659 0 0.590969)
(-1.03587 0 0.573385)
(-1.00212 0 0.554469)
(-0.966463 0 0.534731)
(-0.929531 -3.66827e-19 0.514378)
(-0.891837 7.03892e-19 0.493692)
(-0.853844 0 0.472856)
(-0.815814 3.23392e-19 0.452014)
(-0.778067 0 0.4313)
(-0.740671 0 0.410717)
(-0.7037 0 0.390357)
(-0.667387 8.04063e-23 0.370384)
(-0.631972 0 0.350977)
(-0.59791 -4.97134e-19 0.332457)
(-0.565806 0 0.315193)
(-0.536338 0 0.299592)
(-0.510301 -4.33525e-19 0.286088)
(-0.488317 0 0.274976)
(-0.470826 0 0.266418)
(-0.457765 2.07697e-23 0.26019)
(-0.448143 7.19052e-19 0.255449)
(-0.439692 0 0.250468)
(-0.428119 3.83932e-23 0.242273)
(-0.406547 1.24618e-18 0.226492)
(-0.365557 0 0.197429)
(-0.293959 5.65629e-19 0.148895)
(-0.182066 0 0.0764706)
(-0.0256595 5.12106e-19 -0.0199256)
(0.166094 9.72726e-19 -0.132591)
(0.366656 0 -0.24351)
(0.533568 8.73598e-19 -0.327956)
(0.62717 -8.8103e-23 -0.367157)
(0.635611 0 -0.360121)
(0.586296 0 -0.32637)
(0.522521 0 -0.29035)
(0.46903 -1.32899e-18 -0.264411)
(0.454775 5.21195e-23 -0.262993)
(0.479748 0 -0.280706)
(0.509107 1.12158e-18 -0.292942)
(0.45754 2.11018e-18 -0.245273)
(0.246717 0 -0.0932223)
(-0.234596 0 0.223685)
(-1.00027 0 0.700223)
(-1.97331 -3.98983e-23 1.25373)
(-2.62896 0 1.57244)
(-2.81921 0 1.55116)
(-1.5724 0 0.641344)
(0.731192 0 -0.716672)
(3.3846 1.28228e-18 -2.07615)
(2.33013 1.27128e-18 -1.93136)
(12.9474 0 -7.49636)
(5.25513 0 -2.18785)
(0.322251 0 -0.00639404)
(0.788937 3.52967e-22 -0.464245)
(0.218215 0 -0.187523)
(1.91047 -1.2021e-18 -1.21378)
(2.27625 0 -1.3578)
(2.62413 -1.0308e-18 -1.48)
(1.1725 0 -0.422272)
(-2.87724 -6.45119e-19 2.14049)
(-8.27507 0 5.28911)
(-12.2636 0 7.39309)
(-13.9224 0 8.11423)
(-13.4911 0 7.65647)
(-11.506 1.9266e-18 6.33816)
(-8.28375 0 4.40468)
(-5.01402 2.56662e-18 2.5525)
(-2.13557 2.6257e-18 0.992716)
(-0.590528 0 0.207893)
(0.463514 0 -0.343512)
(0.931141 0 -0.570405)
(1.31601 0 -0.800005)
(1.86017 2.57245e-22 -1.11683)
(2.37083 0 -1.38249)
(2.07551 -7.03138e-18 -1.15209)
(1.17556 0 -0.559374)
(-0.633172 5.80295e-18 0.466624)
(-0.867042 -2.73579e-18 0.501009)
(-0.538446 -2.5862e-18 0.251212)
(0.559759 -2.47694e-18 -0.383655)
(0.815063 0 -0.505049)
(1.46491 0 -0.866781)
(1.35197 -8.0699e-18 -0.789904)
(1.81594 3.7593e-18 -1.05696)
(1.66406 3.49771e-18 -0.96767)
(2.07855 -3.23757e-18 -1.20669)
(34.6368 0 -2.30737)
(35.0526 3.40704e-20 -2.5209)
(34.8948 0 -3.29231)
(33.6051 0 -4.37572)
(31.1397 0 -5.35265)
(27.8467 0 -5.93477)
(24.1904 0 -6.04985)
(20.5586 3.04195e-20 -5.77984)
(17.198 3.31497e-20 -5.2632)
(14.2243 7.16878e-20 -4.62705)
(11.661 -7.58952e-20 -3.96097)
(9.48181 -7.93239e-20 -3.31761)
(7.64108 -8.1592e-20 -2.72334)
(6.0902 0 -2.1888)
(4.78481 0 -1.71559)
(3.68674 -1.67614e-19 -1.30166)
(2.76364 -1.67136e-19 -0.942956)
(1.98811 0 -0.634513)
(1.33836 8.20163e-20 -0.370391)
(0.79533 1.61466e-19 -0.146838)
(0.343614 0 0.0420241)
(-0.0299754 1.54813e-19 0.199291)
(-0.336745 0 0.329472)
(-0.586017 -2.39325e-22 0.435467)
(-0.785925 -1.43392e-19 0.520804)
(-0.943965 -2.25026e-22 0.587886)
(-1.06604 0 0.639174)
(-1.15729 1.30851e-19 0.677316)
(-1.22213 -2.52974e-19 0.704762)
(-1.2657 -4.89095e-19 0.721332)
(-1.29087 -2.35926e-19 0.728101)
(-1.30146 0 0.72623)
(-1.29879 -2.1924e-19 0.720526)
(-1.28575 0 0.71035)
(-1.2646 0 0.696614)
(-1.23682 0 0.679854)
(-1.20373 0 0.660821)
(-1.16689 0 0.640216)
(-1.12733 1.15409e-22 0.618349)
(-1.08583 -3.31687e-19 0.595627)
(-1.04313 0 0.572327)
(-0.999682 -6.09433e-19 0.548684)
(-0.95599 0 0.524908)
(-0.912258 0 0.501042)
(-0.868655 0 0.477251)
(-0.825532 5.11954e-19 0.453777)
(-0.783236 0 0.430876)
(-0.742356 0 0.408974)
(-0.703656 0 0.388538)
(-0.667979 0 0.370081)
(-0.636303 8.16135e-19 0.354122)
(-0.609396 0 0.341006)
(-0.58779 0 0.330889)
(-0.571407 3.54639e-19 0.323432)
(-0.559041 0 0.317517)
(-0.54794 0 0.310923)
(-0.532932 1.22955e-18 0.299907)
(-0.505784 -5.85915e-19 0.27907)
(-0.45529 0 0.241528)
(-0.368194 0 0.180012)
(-0.23301 0 0.0896011)
(-0.0445257 -4.81241e-19 -0.0292062)
(0.187213 0 -0.166593)
(0.431918 0 -0.300832)
(0.639783 -1.64129e-18 -0.402557)
(0.762168 1.55314e-18 -0.449763)
(0.781161 0 -0.441516)
(0.726141 0 -0.400759)
(0.649021 0 -0.356916)
(0.58133 6.23699e-19 -0.325213)
(0.558913 -5.90091e-19 -0.322829)
(0.582327 -1.11537e-18 -0.341407)
(0.607843 -1.05217e-18 -0.348633)
(0.531353 -9.89776e-19 -0.275503)
(0.2528 9.29207e-19 -0.0668016)
(-0.354677 0 0.343711)
(-1.29077 0 0.935143)
(-2.43329 7.57634e-19 1.57974)
(-3.16053 0 1.90572)
(-3.33433 0 1.80951)
(-1.94176 0 0.726231)
(0.586411 0 -0.806644)
(4.05895 0 -2.50359)
(1.98982 -2.38355e-18 -2.05273)
(15.2129 0 -8.9066)
(6.91379 -5.24326e-19 -2.71553)
(0.818081 0 -0.155723)
(1.00083 4.21398e-22 -0.576396)
(0.353392 1.17943e-18 -0.299647)
(2.33158 0 -1.51604)
(2.7539 0 -1.65046)
(2.98178 0 -1.64723)
(0.907615 0 -0.107563)
(-4.18569 6.11155e-19 3.15854)
(-10.4304 0 6.78041)
(-14.5917 0 8.86825)
(-15.9787 0 9.31904)
(-15.189 0 8.56746)
(-12.8277 0 6.96357)
(-9.17597 0 4.75197)
(-5.55038 0 2.70736)
(-2.28925 0 0.970663)
(-0.549183 -2.38075e-18 0.121925)
(0.663487 0 -0.495497)
(1.21263 0 -0.750957)
(1.70052 0 -1.04314)
(2.33178 3.7908e-18 -1.41004)
(2.88962 0 -1.68404)
(2.43345 3.2842e-18 -1.329)
(1.30903 0 -0.575674)
(-0.738851 4.44041e-22 0.572181)
(-0.878067 0 0.505792)
(-0.504442 2.41315e-18 0.201687)
(0.807817 0 -0.554772)
(1.04456 0 -0.654575)
(1.85428 0 -1.10177)
(1.6719 3.76708e-18 -0.979619)
(2.26097 -7.01913e-18 -1.31828)
(2.03882 -6.53061e-18 -1.18773)
(2.55563 -3.02246e-18 -1.48729)
(34.3041 0 -2.60079)
(34.5983 -3.65127e-20 -2.74113)
(34.8479 0 -3.17321)
(34.5706 0 -3.92407)
(33.4516 -2.78967e-20 -4.80111)
(31.4724 -2.72674e-20 -5.55424)
(28.815 2.80445e-20 -6.01364)
(25.7433 -8.80747e-20 -6.12643)
(22.5221 0 -5.9298)
(19.3663 4.32334e-23 -5.50666)
(16.4195 3.56563e-20 -4.94717)
(13.757 0 -4.32636)
(11.4033 0 -3.69716)
(9.35166 0 -3.09277)
(7.57922 0 -2.5314)
(6.05732 3.42525e-22 -2.02191)
(4.75633 3.079e-22 -1.56716)
(3.64792 7.77309e-20 -1.16649)
(2.7071 7.68242e-20 -0.81651)
(1.91142 0 -0.514316)
(1.2414 -1.48674e-19 -0.254963)
(0.680333 -1.45914e-19 -0.0347455)
(0.213094 0 0.150708)
(-0.172702 -2.36524e-22 0.305071)
(-0.488248 2.25003e-22 0.431975)
(-0.743633 -1.31186e-19 0.534787)
(-0.947026 0 0.616576)
(-1.10594 0 0.680183)
(-1.22682 2.38354e-19 0.727902)
(-1.31506 2.21004e-22 0.762757)
(-1.37645 4.44335e-19 0.786371)
(-1.41542 0 0.797843)
(-1.43589 4.12895e-19 0.798861)
(-1.44033 0 0.794942)
(-1.43186 0 0.786068)
(-1.41298 -1.83738e-19 0.772536)
(-1.38554 0 0.755511)
(-1.35172 -3.39013e-19 0.735899)
(-1.31303 1.1272e-22 0.714133)
(-1.27066 3.1206e-19 0.690773)
(-1.22568 0 0.666215)
(-1.17883 7.26079e-23 0.640811)
(-1.13087 0 0.614869)
(-1.0822 0 0.588493)
(-1.03313 0 0.561941)
(-0.984157 0 0.535552)
(-0.935776 0 0.509675)
(-0.888721 4.40185e-19 0.484854)
(-0.843931 0 0.461663)
(-0.80242 0 0.44072)
(-0.76535 -3.83686e-19 0.422631)
(-0.73364 0 0.407774)
(-0.707913 -3.49418e-19 0.396287)
(-0.688085 -3.33299e-19 0.387687)
(-0.672751 6.35657e-19 0.380552)
(-0.658704 0 0.372139)
(-0.639968 -5.77608e-19 0.357912)
(-0.607083 -5.50359e-19 0.331455)
(-0.547255 0 0.284772)
(-0.445412 0 0.209679)
(-0.288467 0 0.100981)
(-0.0701819 4.51857e-19 -0.0400193)
(0.199037 0 -0.201347)
(0.486258 0 -0.357792)
(0.735622 7.70248e-19 -0.475805)
(0.889867 -1.45764e-18 -0.530557)
(0.923615 0 -0.52136)
(0.866202 0 -0.473903)
(0.777054 0 -0.422529)
(0.694791 0 -0.385214)
(0.662289 -5.53456e-19 -0.381602)
(0.680942 1.04577e-18 -0.399513)
(0.698295 0 -0.397798)
(0.591268 0 -0.292748)
(0.237636 -8.70851e-19 -0.0183201)
(-0.500029 0 0.493288)
(-1.59985 -7.59102e-19 1.19759)
(-2.88566 7.09711e-19 1.91393)
(-3.65381 0 2.21993)
(-3.80318 0 2.03338)
(-2.33655 0 0.806591)
(0.316792 0 -0.872186)
(4.63688 0 -2.87093)
(1.59113 1.1167e-18 -2.21202)
(17.183 0 -10.2124)
(8.71664 9.77586e-19 -3.24116)
(1.47711 0 -0.344536)
(1.25003 4.70419e-22 -0.694067)
(0.523641 -7.82072e-22 -0.43945)
(2.72685 0 -1.81645)
(3.19957 9.94082e-19 -1.92291)
(3.22132 0 -1.71741)
(0.439239 0 0.382989)
(-5.66312 -1.14624e-18 4.3408)
(-12.5225 0 8.27289)
(-16.557 0 10.1356)
(-17.5407 0 10.217)
(-16.4284 0 9.17263)
(-13.769 0 7.3291)
(-9.80173 0 4.90923)
(-5.94175 0 2.74741)
(-2.3736 0 0.885813)
(-0.468364 2.22421e-18 -2.76836e-06)
(0.886031 0 -0.668792)
(1.51049 0 -0.946198)
(2.10318 0 -1.30251)
(2.80948 -3.54008e-18 -1.71036)
(3.39056 -3.32193e-18 -1.97211)
(2.7578 -3.06919e-18 -1.47356)
(1.4258 2.80427e-18 -0.566554)
(-0.801903 3.89197e-22 0.658961)
(-0.819606 -2.38358e-18 0.464481)
(-0.431073 -4.50528e-18 0.120353)
(1.08492 0 -0.749722)
(1.2822 4.02679e-18 -0.812646)
(2.25432 3.78241e-18 -1.34539)
(1.99031 0 -1.1695)
(2.70825 3.27614e-18 -1.58191)
(2.40899 3.0481e-18 -1.40532)
(3.02231 2.82121e-18 -1.76341)
(34.0558 0 -2.76139)
(34.2112 1.80833e-20 -2.91217)
(34.462 0 -3.19363)
(34.5632 0 -3.68703)
(34.2365 2.62681e-20 -4.35211)
(33.3103 2.56703e-20 -5.05636)
(31.7451 -2.6397e-20 -5.65168)
(29.6114 8.53029e-20 -6.03055)
(27.0513 0 -6.14761)
(24.2374 3.22774e-20 -6.01389)
(21.3386 -6.68437e-20 -5.67625)
(18.4959 0 -5.19555)
(15.8108 7.11586e-20 -4.63078)
(13.3443 0 -4.03082)
(11.1248 7.32445e-20 -3.43154)
(9.15718 7.38644e-20 -2.85712)
(7.43208 7.37055e-20 -2.32231)
(5.93214 -7.31697e-20 -1.83505)
(4.63694 -1.44416e-19 -1.39788)
(3.52524 0 -1.01136)
(2.57646 1.3995e-19 -0.673029)
(1.77158 0 -0.380257)
(1.09277 0 -0.129411)
(0.524642 -1.30521e-19 0.0836266)
(0.0526632 2.53767e-19 0.261978)
(-0.335797 0 0.409803)
(-0.65184 0 0.530489)
(-0.905474 0 0.62742)
(-1.10541 -2.23824e-19 0.703605)
(-1.25957 2.16482e-19 0.761604)
(-1.37461 -1.5806e-22 0.804257)
(-1.4565 2.01367e-19 0.835367)
(-1.51194 -3.88199e-19 0.851755)
(-1.54416 1.86794e-19 0.857168)
(-1.55773 -1.79695e-19 0.855643)
(-1.55534 8.51861e-23 0.848318)
(-1.53999 0 0.835722)
(-1.51455 3.18845e-19 0.819275)
(-1.48125 3.05962e-19 0.799501)
(-1.44177 -2.93448e-19 0.777148)
(-1.39765 0 0.752757)
(-1.35002 2.69552e-19 0.726829)
(-1.29998 2.58111e-19 0.699793)
(-1.24818 2.47116e-19 0.671836)
(-1.19516 2.36493e-19 0.643331)
(-1.14161 0 0.614736)
(-1.08819 0 0.58651)
(-1.03582 -5.59053e-23 0.559329)
(-0.985621 0 0.533881)
(-0.938787 0 0.510892)
(-0.896673 -3.60363e-19 0.491052)
(-0.860351 3.43936e-19 0.474761)
(-0.830542 3.28166e-19 0.462122)
(-0.807169 2.09353e-23 0.452484)
(-0.78865 -3.90426e-23 0.444092)
(-0.771379 0 0.433653)
(-0.748669 0 0.415833)
(-0.709993 1.03314e-18 0.383227)
(-0.64121 0 0.326829)
(-0.525711 0 0.237725)
(-0.34902 -4.45854e-19 0.11067)
(-0.103844 0 -0.0520332)
(0.199624 0 -0.236238)
(0.527014 7.63165e-19 -0.413543)
(0.817922 -7.22516e-19 -0.546695)
(1.00706 1.36702e-18 -0.608472)
(1.06042 0 -0.598388)
(1.0046 -6.12135e-19 -0.544835)
(0.905401 0 -0.486341)
(0.808578 0 -0.443665)
(0.764135 1.03738e-18 -0.438583)
(0.774668 0 -0.454104)
(0.779407 0 -0.438664)
(0.635692 0 -0.295004)
(0.200161 0 0.0545601)
(-0.669922 0 0.673648)
(-1.92322 7.10844e-19 1.48576)
(-3.32329 -1.00253e-22 2.25139)
(-4.10409 -6.3351e-19 2.51149)
(-4.23377 6.11434e-19 2.23006)
(-2.76963 0 0.893496)
(-0.0370369 0 -0.939461)
(5.0749 0 -3.15964)
(1.43235 0 -2.58046)
(18.7638 0 -11.3889)
(10.62 -5.87912e-21 -3.74751)
(2.29827 0 -0.561435)
(1.55016 -5.35783e-19 -0.819524)
(0.729991 -7.95155e-22 -0.605962)
(3.08813 0 -2.10973)
(3.60175 -9.29448e-19 -2.16549)
(3.32809 0 -1.67857)
(-0.224593 7.39105e-19 1.0499)
(-7.25463 -2.81795e-21 5.65314)
(-14.4586 0 9.70225)
(-18.0968 0 11.1495)
(-18.6327 0 10.8301)
(-17.276 0 9.54471)
(-14.4039 1.5259e-18 7.50137)
(-10.2237 0 4.92875)
(-6.22977 0 2.70614)
(-2.42305 2.12996e-18 0.76172)
(-0.361265 0 -0.148535)
(1.12312 -1.99583e-18 -0.858644)
(1.81683 1.86538e-18 -1.15173)
(2.51417 0 -1.57243)
(3.28589 6.61159e-18 -2.01312)
(3.87043 -2.64989e-22 -2.24388)
(3.05349 5.73286e-18 -1.59078)
(1.53966 -2.61838e-18 -0.543305)
(-0.814538 -2.36335e-18 0.72097)
(-0.696093 2.22539e-18 0.383017)
(-0.32563 2.1026e-18 0.0152262)
(1.38393 2.01381e-18 -0.96216)
(1.5244 -3.75909e-18 -0.976799)
(2.65933 -3.53082e-18 -1.59407)
(2.30483 -3.28273e-18 -1.35816)
(3.15183 -3.058e-18 -1.84456)
(2.77375 0 -1.6203)
(3.4707 0 -2.03109)
(33.834 0 -2.85558)
(33.9107 1.95935e-20 -3.01888)
(34.0771 0 -3.24524)
(34.2357 0 -3.58816)
(34.2317 0 -4.06328)
(33.9134 0 -4.62865)
(33.1675 2.93557e-20 -5.19955)
(31.9399 -2.76314e-20 -5.682)
(30.24 2.97686e-20 -6.00295)
(28.1315 -6.02105e-20 -6.12452)
(25.7154 6.28365e-20 -6.04345)
(23.1111 0 -5.78249)
(20.4382 -6.68921e-20 -5.37955)
(17.8027 0 -4.87802)
(15.2872 -6.88572e-20 -4.31939)
(12.9479 -6.8794e-20 -3.73906)
(10.8166 0 -3.16442)
(8.90581 0 -2.61505)
(7.21414 6.77881e-20 -2.10313)
(5.73196 0 -1.63608)
(4.44474 0 -1.21666)
(3.33578 -1.2829e-19 -0.845414)
(2.38743 0 -0.520858)
(1.58267 0 -0.240183)
(0.905024 -1.19202e-19 -0.000545967)
(0.339212 0 0.201922)
(-0.128729 0 0.370717)
(-0.511508 0 0.509571)
(-0.820529 4.20609e-19 0.621912)
(-1.06609 0 0.711003)
(-1.25736 -1.55033e-22 0.779792)
(-1.40252 -1.3311e-22 0.83101)
(-1.50798 1.82359e-19 0.869148)
(-1.58175 -1.75551e-19 0.891759)
(-1.62813 3.37643e-19 0.902515)
(-1.65254 1.62332e-19 0.903398)
(-1.65742 0 0.898387)
(-1.64733 0 0.887557)
(-1.62523 2.87246e-19 0.871962)
(-1.59349 -2.75498e-19 0.852541)
(-1.5543 0 0.829991)
(-1.50925 0 0.804993)
(-1.45992 -5.96608e-23 0.778133)
(-1.40736 -2.3208e-19 0.749697)
(-1.35235 -2.22085e-19 0.7202)
(-1.29585 -4.24791e-19 0.690244)
(-1.23877 0 0.660414)
(-1.18219 -5.49397e-23 0.631532)
(-1.12747 0 0.604411)
(-1.076 0 0.579887)
(-1.02931 3.3823e-19 0.55873)
(-0.98866 -3.22781e-19 0.541354)
(-0.954869 0 0.52781)
(-0.927885 2.93664e-19 0.517257)
(-0.905996 -3.90184e-23 0.507582)
(-0.885262 0 0.494931)
(-0.858408 0 0.47317)
(-0.814041 -9.68935e-19 0.433964)
(-0.736938 0 0.367416)
(-0.609267 0 0.264078)
(-0.415382 8.36068e-19 0.118876)
(-0.146894 0 -0.0647519)
(0.186856 0 -0.270476)
(0.55129 -1.43073e-18 -0.467102)
(0.88319 6.77165e-19 -0.61412)
(1.11013 -6.40572e-19 -0.68233)
(1.18799 0 -0.67217)
(1.13896 5.7352e-19 -0.612504)
(1.03255 0 -0.547401)
(0.921715 -5.13728e-19 -0.499714)
(0.863642 -4.85836e-19 -0.492937)
(0.862534 0 -0.504123)
(0.849528 0 -0.470441)
(0.663248 8.14839e-19 -0.280118)
(0.139671 7.64788e-19 0.154028)
(-0.862816 0 0.885463)
(-2.25569 0 1.79696)
(-3.73922 -1.24347e-18 2.58697)
(-4.50992 5.92835e-19 2.77924)
(-4.6405 -1.14309e-18 2.41074)
(-3.25008 0 0.994202)
(-0.403201 0 -1.05091)
(5.31917 0 -3.35682)
(1.8051 0 -3.32149)
(19.8121 0 -12.3465)
(12.5602 -8.27547e-21 -4.21279)
(3.27264 0 -0.792931)
(1.91448 0 -0.954622)
(0.973628 -7.99112e-22 -0.797184)
(3.40934 0 -2.39103)
(3.94763 -8.69365e-19 -2.36702)
(3.29407 0 -1.51517)