/*--------------------------------*- C++ -*----------------------------------*\
| =========                 |                                                 |
| \\      /  F ield         | OpenFOAM: The Open Source CFD Toolbox           |
|  \\    /   O peration     | Version:  2412                                  |
|   \\  /    A nd           | Website:  www.openfoam.com                      |
|    \\/     M anipulation  |                                                 |
\*---------------------------------------------------------------------------*/
FoamFile
{
    version     2.0;
    format      ascii;
    arch        "LSB;label=32;scalar=64";
    class       volVectorField;
    location    "0.865";
    object      U_0;
}
// * * * * * * * * * * * * * * * * * * * * * * * * * * * * * * * * * * * * * //

dimensions      [0 1 -1 0 0 0 0];

internalField   nonuniform List<vector> 
12600
(
(18.7284 1.25895e-21 2.09339)
(11.6159 1.61147e-20 0.450506)
(7.3497 1.8942e-20 -0.478005)
(5.08927 0 -0.709248)
(3.97698 1.71233e-20 -0.682349)
(3.33655 1.59477e-20 -0.607675)
(2.89545 0 -0.540012)
(2.56428 0 -0.484583)
(2.30467 -4.79569e-20 -0.439134)
(2.09453 0 -0.401395)
(1.92013 2.01193e-20 -0.369523)
(1.77255 1.84244e-20 -0.34219)
(1.6457 -1.68806e-20 -0.318449)
(1.53522 0 -0.297603)
(1.43795 -1.41517e-20 -0.279128)
(1.35149 0 -0.262622)
(1.27401 4.75648e-20 -0.24777)
(1.2041 0 -0.23432)
(1.14061 -1.99125e-20 -0.222074)
(1.08264 -1.82141e-20 -0.210866)
(1.02945 1.66294e-20 -0.200563)
(0.980423 5.47277e-24 -0.191051)
(0.935058 0 -0.182239)
(0.892929 -2.50996e-20 -0.174046)
(0.853676 0 -0.166406)
(0.816991 0 -0.15926)
(0.782612 -1.86197e-20 -0.15256)
(0.750311 0 -0.146261)
(0.71989 4.00847e-24 -0.140327)
(0.691176 1.34662e-20 -0.134724)
(0.664018 1.19932e-20 -0.129423)
(0.638281 1.06287e-20 -0.124399)
(0.613847 -9.36498e-21 -0.119629)
(0.59061 -1.63903e-20 -0.115092)
(0.568476 -1.42254e-20 -0.110771)
(0.547359 1.22125e-20 -0.106648)
(0.527183 0 -0.102709)
(0.507879 -8.66343e-21 -0.0989404)
(0.489385 0 -0.0953304)
(0.471643 5.63135e-21 -0.0918678)
(0.454601 0 -0.0885423)
(0.438212 1.7425e-23 -0.0853449)
(0.422433 0 -0.0822668)
(0.407223 1.5866e-23 -0.0793004)
(0.392544 -1.53659e-22 -0.0764384)
(0.378364 1.88383e-21 -0.0736741)
(0.364649 -3.49154e-21 -0.0710013)
(0.351372 0 -0.0684144)
(0.338504 0 -0.0659077)
(0.32602 -7.46292e-21 -0.0634767)
(0.313895 -1.70931e-20 -0.0611161)
(0.30211 -1.90468e-20 -0.0588222)
(0.290638 1.93546e-23 -0.0565902)
(0.279467 -2.23517e-20 -0.0544171)
(0.268571 0 -0.0522981)
(0.257939 2.49995e-20 -0.0502313)
(0.247548 2.60831e-20 -0.0482117)
(0.237391 2.70124e-20 -0.0462382)
(0.227443 0 -0.0443058)
(0.217701 0 -0.0424142)
(0.208141 0 -0.0405582)
(0.198763 -5.91673e-20 -0.0387382)
(0.189541 0 -0.0369489)
(0.180481 0 -0.0351917)
(0.171555 1.21763e-19 -0.0334607)
(0.162774 0 -0.0317583)
(0.154107 0 -0.0300785)
(0.14557 0 -0.0284243)
(0.137133 -1.22052e-19 -0.0267896)
(0.128814 1.215e-19 -0.0251783)
(0.120584 1.20735e-19 -0.0235844)
(0.112463 2.34018e-23 -0.0220119)
(0.104427 -1.18621e-19 -0.0204559)
(0.0964934 0 -0.01892)
(0.0886478 1.15824e-19 -0.0174012)
(0.0809 0 -0.0159015)
(0.0732539 0 -0.0144215)
(0.0657029 0 -0.0129599)
(0.0582793 2.87623e-23 -0.0115228)
(0.050949 2.12972e-19 -0.0101039)
(0.0437865 2.0862e-19 -0.00871707)
(0.036714 -2.04021e-19 -0.00734779)
(0.0298643 -1.99357e-19 -0.00602101)
(0.0230999 0 -0.00471093)
(0.0166203 0 -0.00345515)
(0.0102384 3.68972e-19 -0.00221852)
(0.00416087 -7.17513e-19 -0.00103986)
(-0.00171033 6.96421e-19 9.97533e-05)
(-0.0074004 3.3775e-19 0.00120155)
(-0.0126876 0 0.00222943)
(-0.0175421 -6.32787e-19 0.00317209)
(-0.0237562 3.05388e-19 0.00437821)
(-0.0237537 -2.95338e-19 0.00439122)
(-0.0369024 5.65979e-19 0.00691344)
(-0.0297428 0 0.00551214)
(-0.0373497 0 0.007079)
(-0.0610729 0 0.0113908)
(-0.00358913 0 0.000775849)
(-0.100747 0 0.0191619)
(-0.0219114 0 0.00356196)
(-0.030504 -4.13101e-19 0.00660427)
(-0.161767 -8.00685e-19 0.0301169)
(0.0843701 -8.4101e-19 -0.0158874)
(-0.195006 0 0.0375647)
(-0.0460101 0 0.00717008)
(0.0381129 0 -0.00570607)
(-0.330361 -6.02567e-19 0.062599)
(0.134266 -1.42151e-18 -0.0259607)
(-0.138416 5.06692e-19 0.0285692)
(-0.287859 0 0.0527445)
(0.205391 -1.20199e-18 -0.0389241)
(-0.264956 0 0.0528449)
(-0.33016 -1.02121e-18 0.0602358)
(0.20622 1.06904e-18 -0.039322)
(-0.0727768 -8.02421e-19 0.0169984)
(-0.502656 -7.91273e-19 0.0954309)
(-0.117011 9.23759e-19 0.0198946)
(0.089785 1.52826e-22 -0.0160654)
(-0.344142 7.19308e-19 0.065867)
(-0.156246 0 0.028579)
(29.1357 -1.27092e-21 4.02467)
(25.0962 0 1.85688)
(20.237 -1.91714e-20 -0.214658)
(16.0734 0 -1.21268)
(13.1161 -1.73508e-20 -1.50801)
(11.0749 -3.04711e-20 -1.51898)
(9.6036 -1.41062e-20 -1.44139)
(8.49225 0 -1.34384)
(7.61987 3.55926e-22 -1.24852)
(6.9137 -2.19411e-20 -1.1615)
(6.32812 2.01482e-20 -1.08346)
(5.83313 1.84995e-20 -1.01368)
(5.40814 -1.69835e-20 -0.95115)
(5.03848 1.55886e-20 -0.894898)
(4.71343 2.86643e-20 -0.844062)
(4.4249 0 -0.797909)
(4.16671 -6.47655e-23 -0.755821)
(3.93403 2.20326e-20 -0.717278)
(3.72303 2.02022e-20 -0.681839)
(3.53061 0 -0.649134)
(3.35429 0 -0.618848)
(3.19199 1.53737e-20 -0.590712)
(3.042 0 -0.564497)
(2.90287 1.27237e-20 -0.540003)
(2.77341 -2.30799e-20 -0.517059)
(2.65255 0 -0.495515)
(2.53943 1.88719e-20 -0.475241)
(2.43326 0 -0.456122)
(2.33338 -1.52507e-20 -0.438056)
(2.23922 -2.7281e-20 -0.420954)
(2.15025 -2.42925e-20 -0.404736)
(2.06603 -1.07581e-20 -0.389332)
(1.98616 9.47644e-21 -0.374676)
(1.91028 3.31788e-20 -0.360713)
(1.83807 2.879e-20 -0.34739)
(1.76925 0 -0.334661)
(1.70357 0 -0.322483)
(1.64078 -1.71852e-23 -0.310818)
(1.58069 0 -0.29963)
(1.5231 -5.68508e-21 -0.288889)
(1.46783 0 -0.278563)
(1.41473 -6.16977e-21 -0.268626)
(1.36366 0 -0.259052)
(1.31447 -1.78256e-21 -0.24982)
(1.26705 0 -0.240906)
(1.22128 -1.8969e-21 -0.232293)
(1.17705 0 -0.223959)
(1.13428 0 -0.21589)
(1.09285 6.26559e-21 -0.208068)
(1.05271 0 -0.20048)
(1.01375 0 -0.193108)
(0.975911 0 -0.185944)
(0.939118 2.08476e-20 -0.17897)
(0.903316 4.47867e-20 -0.17218)
(0.868427 0 -0.165557)
(0.834413 0 -0.159096)
(0.801196 -2.60585e-20 -0.152782)
(0.768754 -2.70111e-20 -0.146612)
(0.737005 0 -0.14057)
(0.70594 0 -0.134655)
(0.675475 0 -0.128851)
(0.645617 0 -0.12316)
(0.616275 -5.96409e-20 -0.117564)
(0.587471 6.01652e-20 -0.112069)
(0.559109 -1.21069e-19 -0.106656)
(0.531228 0 -0.101333)
(0.503725 0 -0.0960803)
(0.476652 0 -0.0909079)
(0.449906 4.71655e-23 -0.0857967)
(0.423551 -1.20338e-19 -0.080758)
(0.397484 -1.19472e-19 -0.0757743)
(0.371776 2.36771e-19 -0.0708569)
(0.346337 3.58185e-23 -0.0659917)
(0.321235 -1.15708e-19 -0.0611879)
(0.296407 -1.14177e-19 -0.0564385)
(0.2719 0 -0.0517468)
(0.247701 0 -0.0471177)
(0.223816 0 -0.0425435)
(0.200309 2.13204e-19 -0.0380476)
(0.177113 0 -0.0336041)
(0.154412 0 -0.0292636)
(0.132014 1.99679e-19 -0.0249717)
(0.110271 1.94906e-19 -0.0208168)
(0.088821 0 -0.0167054)
(0.0682123 0 -0.0127705)
(0.0479333 0 -0.00888201)
(0.0285664 6.9838e-19 -0.00518778)
(0.00984164 -4.4097e-23 -0.00159805)
(-0.00831806 3.27996e-19 0.0018674)
(-0.0252177 -3.17216e-19 0.00510012)
(-0.0409821 6.13236e-19 0.00812437)
(-0.0601441 2.95601e-19 0.0117465)
(-0.0622393 5.71202e-19 0.0121935)
(-0.101178 0 0.0196775)
(-0.0808963 0 0.0154402)
(-0.107668 0 0.021369)
(-0.170157 0 0.0320213)
(-0.0147569 4.75881e-19 0.00341765)
(-0.292819 0 0.0571342)
(-0.053616 0 0.00799335)
(-0.10746 -3.96257e-19 0.0242014)
(-0.451668 3.83463e-19 0.0844684)
(0.229458 1.60989e-18 -0.0442553)
(-0.58399 -6.20413e-19 0.115665)
(-0.0971257 0 0.0126744)
(0.0619227 0 -0.00589121)
(-0.940286 0 0.17987)
(0.394532 6.77024e-19 -0.0799338)
(-0.462846 -4.8222e-19 0.0982501)
(-0.772046 0 0.141294)
(0.561218 2.28437e-18 -0.108687)
(-0.833473 8.10575e-19 0.171179)
(-0.870906 1.93655e-18 0.158189)
(0.582827 0 -0.116611)
(-0.30482 0 0.0719788)
(-1.42209 -7.48182e-19 0.274684)
(-0.285754 0 0.0439296)
(0.212914 -7.72195e-19 -0.0372278)
(-1.01638 -6.79296e-19 0.199623)
(-0.400056 0 0.0731336)
(31.8796 0 3.89424)
(31.0667 0 2.81632)
(28.5389 -1.29954e-20 1.02135)
(25.1984 0 -0.384689)
(21.9493 0 -1.22802)
(19.1791 1.51459e-20 -1.65242)
(16.9232 1.33587e-20 -1.82052)
(15.1001 0 -1.85204)
(13.614 4.2064e-22 -1.81832)
(12.385 2.07862e-20 -1.75583)
(11.3526 -3.79672e-20 -1.68207)
(10.4726 -1.75282e-20 -1.60539)
(9.71281 1.1462e-22 -1.52976)
(9.04941 -1.47714e-20 -1.45705)
(8.46451 -1.35543e-20 -1.38803)
(7.94439 1.23824e-20 -1.32296)
(7.47839 -2.27927e-20 -1.26183)
(7.05812 -2.0879e-20 -1.20449)
(6.67683 0 -1.1507)
(6.32907 0 -1.10023)
(6.01039 1.59329e-20 -1.05284)
(5.71711 1.45364e-20 -1.00827)
(5.44613 0 -0.966316)
(5.19489 0 -0.926759)
(4.96117 2.18696e-20 -0.88941)
(4.74312 0 -0.854095)
(4.53911 -3.57576e-20 -0.820655)
(4.34777 1.61007e-20 -0.788947)
(4.16786 0 -0.758838)
(3.99835 1.2926e-20 -0.73021)
(3.8383 1.15103e-20 -0.702955)
(3.68688 0 -0.676975)
(3.54337 -8.98996e-21 -0.652178)
(3.40713 -1.5722e-20 -0.628485)
(3.27757 1.19666e-23 -0.605818)
(3.15417 0 -0.584111)
(3.03647 0 -0.563298)
(2.92405 8.30471e-21 -0.543324)
(2.81653 0 -0.524133)
(2.71355 0 -0.505676)
(2.61479 0 -0.487908)
(2.51998 0 -0.470787)
(2.42885 0 -0.454272)
(2.34114 0 -0.438329)
(2.25665 0 -0.422921)
(2.17515 1.75261e-21 -0.408018)
(2.09646 -3.2719e-21 -0.393589)
(2.0204 0 -0.379608)
(1.9468 -5.92784e-21 -0.366045)
(1.87551 0 -0.352881)
(1.80638 0 -0.340086)
(1.7393 1.80013e-20 -0.327645)
(1.67411 0 -0.315532)
(1.61071 -2.11598e-20 -0.303732)
(1.54898 2.24453e-20 -0.29222)
(1.48883 0 -0.280988)
(1.43014 2.4631e-20 -0.270008)
(1.37284 0 -0.259277)
(1.31682 0 -0.248766)
(1.26203 0 -0.238477)
(1.20833 5.47878e-20 -0.228379)
(1.15574 5.56366e-20 -0.218478)
(1.10408 2.82645e-23 -0.208742)
(1.0534 -1.13599e-19 -0.199181)
(1.00353 2.47981e-23 -0.189763)
(0.954527 0 -0.180501)
(0.906213 0 -0.171362)
(0.858677 -1.14488e-19 -0.162363)
(0.811733 3.79726e-23 -0.15347)
(0.765494 0 -0.144704)
(0.719774 0 -0.136033)
(0.674701 -1.11622e-19 -0.127477)
(0.630104 2.8813e-23 -0.119011)
(0.586113 2.68542e-23 -0.110652)
(0.542597 0 -0.102386)
(0.499659 0 -0.0942199)
(0.457243 -2.08359e-19 -0.0861614)
(0.415392 2.0462e-19 -0.0781959)
(0.374174 0 -0.0703655)
(0.333517 0 -0.0626228)
(0.293678 0 -0.0550577)
(0.254393 0 -0.0475724)
(0.21619 0 -0.0403239)
(0.178528 0 -0.0331443)
(0.142259 0 -0.0262717)
(0.106592 0 -0.0194676)
(0.0724538 -6.56574e-19 -0.013011)
(0.0394253 -3.18245e-19 -0.00670975)
(0.00737446 -3.08274e-19 -0.000643991)
(-0.0224992 2.98081e-19 0.00502753)
(-0.050664 -5.76069e-19 0.010435)
(-0.0836499 -2.77656e-19 0.0164879)
(-0.0901082 -2.68198e-19 0.0180285)
(-0.154715 0 0.0302053)
(-0.122823 0 0.0233719)
(-0.172549 0 0.0353089)
(-0.266385 0 0.0485937)
(-0.0288038 -4.46455e-19 0.00789225)
(-0.475327 0 0.0931813)
(-0.0747149 0 0.00785265)
(-0.198757 3.71541e-19 0.0489635)
(-0.710634 0 0.127838)
(0.351035 -7.54544e-19 -0.0658738)
(-0.970622 5.81397e-19 0.195862)
(-0.113 0 0.00358434)
(0.0374315 0 0.0129211)
(-1.50067 0 0.281625)
(0.640226 6.34062e-19 -0.134553)
(-0.82768 0 0.186844)
(-1.17124 -5.14913e-19 0.200116)
(0.857001 3.53282e-22 -0.164622)
(-1.43055 -7.58611e-19 0.306729)
(-1.30132 -1.81069e-18 0.217401)
(0.916191 0 -0.187269)
(-0.611613 7.12074e-19 0.159586)
(-2.25521 6.99834e-19 0.43232)
(-0.397722 8.16308e-19 0.042061)
(0.282115 0 -0.0399312)
(-1.66712 6.35165e-19 0.33157)
(-0.568675 0 0.095058)
(32.4019 0 2.95141)
(32.9685 0 2.76531)
(32.4159 1.2285e-20 1.72079)
(30.7739 0 0.519513)
(28.522 -1.23289e-20 -0.485636)
(26.1071 2.50774e-20 -1.20855)
(23.789 0 -1.67159)
(21.6837 -2.18959e-20 -1.93572)
(19.8248 2.09957e-20 -2.06491)
(18.2027 1.89912e-20 -2.10921)
(16.7899 1.78513e-20 -2.10243)
(15.5554 -1.6229e-20 -2.06583)
(14.4706 1.51107e-20 -2.01237)
(13.5112 -2.75548e-20 -1.94988)
(12.6573 0 -1.88308)
(11.8924 -2.3359e-20 -1.81484)
(11.2033 0 -1.74691)
(10.5792 0 -1.68033)
(10.0111 0 -1.61572)
(9.49163 1.64507e-20 -1.55342)
(9.01463 -3.42939e-23 -1.49359)
(8.57496 -2.6104e-23 -1.43629)
(8.16825 1.25049e-20 -1.3815)
(7.79081 0 -1.32916)
(7.43948 0 -1.27917)
(7.11154 0 -1.23144)
(6.80463 3.38037e-20 -1.18586)
(6.51671 -6.11525e-24 -1.14231)
(6.24601 0 -1.10069)
(5.99094 0 -1.06089)
(5.75014 0 -1.02279)
(5.52237 0 -0.986309)
(5.30656 1.70047e-20 -0.951347)
(5.10173 0 -0.917814)
(4.90702 -1.29101e-20 -0.885629)
(4.72164 0 -0.854712)
(4.5449 0 -0.82499)
(4.37616 -7.87387e-21 -0.796394)
(4.21483 0 -0.768859)
(4.06041 0 -0.742325)
(3.9124 3.91157e-21 -0.716734)
(3.77037 -5.59068e-21 -0.692035)
(3.63392 0 -0.668175)
(3.50269 -1.65974e-21 -0.64511)
(3.37632 0 -0.622792)
(3.25452 -3.29209e-21 -0.601182)
(3.13697 1.87253e-23 -0.580239)
(3.02343 0 -0.559928)
(2.91362 0 -0.54021)
(2.80734 6.64126e-21 -0.521056)
(2.70433 1.52231e-20 -0.50243)
(2.60443 -3.39666e-20 -0.484308)
(2.50741 0 -0.466653)
(2.41312 -1.99266e-20 -0.449449)
(2.32136 -2.11875e-20 -0.432659)
(2.23202 -2.2252e-20 -0.416271)
(2.14489 -2.3204e-20 -0.400247)
(2.05989 0 -0.384582)
(1.97682 0 -0.369236)
(1.89563 -5.06605e-20 -0.35421)
(1.81612 -1.03327e-19 -0.339462)
(1.73827 -5.24748e-20 -0.325)
(1.66186 3.03346e-23 -0.310779)
(1.58694 5.35449e-20 -0.296812)
(1.51324 5.38461e-20 -0.283053)
(1.44087 0 -0.269521)
(1.36954 0 -0.256168)
(1.2994 1.07891e-19 -0.24302)
(1.23016 2.14933e-19 -0.230027)
(1.16199 0 -0.217218)
(1.0946 1.06039e-19 -0.204547)
(1.02819 1.05063e-19 -0.192044)
(0.962481 1.0396e-19 -0.179672)
(0.89769 2.05309e-19 -0.167455)
(0.833591 0 -0.155372)
(0.770364 0 -0.143434)
(0.707883 1.9607e-19 -0.131649)
(0.646252 -3.84994e-19 -0.120001)
(0.585512 -1.88767e-19 -0.108543)
(0.525616 0 -0.0972138)
(0.466862 0 -0.0861356)
(0.408945 0 -0.0751747)
(0.352534 0 -0.0645487)
(0.29695 0 -0.0540241)
(0.243308 0 -0.0439369)
(0.19058 -3.17543e-19 -0.0339453)
(0.140007 4.25853e-23 -0.0244606)
(0.0910414 2.98818e-19 -0.0151766)
(0.0434989 0 -0.00626621)
(-0.00089685 2.79791e-19 0.00209323)
(-0.0431181 2.70358e-19 0.0101792)
(-0.0909843 0 0.018736)
(-0.104292 -2.51621e-19 0.0219529)
(-0.194398 -4.81433e-19 0.038582)
(-0.153077 0 0.0293612)
(-0.229149 0 0.0485945)
(-0.347239 0 0.0619214)
(-0.0441428 -4.18608e-19 0.0137204)
(-0.644159 0 0.127094)
(-0.0855899 0 0.00459754)
(-0.301335 3.48259e-19 0.0790271)
(-0.934994 -3.36386e-19 0.162781)
(0.446509 0 -0.0814184)
(-1.34668 0 0.276131)
(-0.0975211 0 -0.0154644)
(-0.0322148 0 0.0461633)
(-2.00064 0 0.370265)
(0.860191 5.29171e-23 -0.186942)
(-1.22123 0 0.288027)
(-1.48131 4.8184e-19 0.236479)
(1.08198 -1.0008e-18 -0.205463)
(-2.03757 0 0.452001)
(-1.61896 7.58048e-22 0.24761)
(1.19179 0 -0.248402)
(-0.978349 3.50302e-22 0.269301)
(-2.9835 0 0.570557)
(-0.457942 -7.63223e-19 0.0225837)
(0.298597 0 -0.0282916)
(-2.27746 5.93553e-19 0.458468)
(-0.648491 0 0.0963462)
(32.505 0 2.09863)
(33.2631 0 2.22433)
(33.6102 0 1.74921)
(33.2465 0 0.955123)
(32.2245 1.16375e-20 0.113281)
(30.7516 -9.00788e-22 -0.635875)
(29.0331 0 -1.23695)
(27.2279 2.06667e-20 -1.68078)
(25.4454 0 -1.98455)
(23.7519 -3.53504e-20 -2.17649)
(22.1795 0 -2.2852)
(20.7385 1.53213e-20 -2.33465)
(19.4263 0 -2.34317)
(18.2343 2.60161e-20 -2.32398)
(17.1511 -1.18538e-20 -2.28641)
(16.1654 2.19096e-20 -2.23688)
(15.2662 -2.0064e-20 -2.17985)
(14.4435 -1.84232e-20 -2.11837)
(13.6886 0 -2.05456)
(12.9939 -1.5534e-20 -1.98987)
(12.3526 -1.41982e-20 -1.92528)
(11.7589 -2.58809e-20 -1.86149)
(11.2077 -1.1808e-20 -1.79895)
(10.6947 0 -1.73795)
(10.2161 0 -1.67868)
(9.76839 0 -1.62126)
(9.34874 -1.59542e-20 -1.56572)
(8.95454 -1.43714e-20 -1.51209)
(8.58349 0 -1.46034)
(8.23358 0 -1.41044)
(7.90301 1.02782e-20 -1.36233)
(7.59018 0 -1.31597)
(7.29364 1.28703e-24 -1.27128)
(7.01212 -1.40562e-20 -1.22821)
(6.74446 1.22027e-20 -1.18667)
(6.48962 0 -1.14662)
(6.24664 0 -1.10797)
(6.01468 7.43152e-21 -1.07066)
(5.79294 0 -1.03463)
(5.58073 0 -0.999816)
(5.37738 -3.6912e-21 -0.966161)
(5.18231 5.27539e-21 -0.933607)
(4.99495 0 -0.902097)
(4.81482 1.56594e-21 -0.871582)
(4.64144 0 -0.842009)
(4.47438 1.54357e-21 -0.813333)
(4.31323 2.89797e-21 -0.785505)
(4.15765 0 -0.758484)
(4.00725 5.23358e-21 -0.732225)
(3.86176 -6.26308e-21 -0.706693)
(3.72082 -2.86804e-20 -0.681843)
(3.5842 1.59997e-20 -0.657646)
(3.45159 -1.74458e-20 -0.634059)
(3.32279 2.52394e-23 -0.611058)
(3.19752 0 -0.588599)
(3.07561 2.09734e-20 -0.566667)
(2.95678 2.18685e-20 -0.545214)
(2.84092 -2.26233e-20 -0.524234)
(2.72776 2.32871e-20 -0.503675)
(2.61723 4.77295e-20 -0.483539)
(2.50903 4.8653e-20 -0.463771)
(2.40316 -4.93657e-20 -0.444382)
(2.2993 4.99742e-20 -0.425312)
(2.19751 0 -0.406581)
(2.09744 0 -0.388127)
(1.99921 5.07976e-20 -0.369976)
(1.90245 0 -0.352062)
(1.80734 0 -0.334421)
(1.71348 -1.01118e-19 -0.316987)
(1.62111 0 -0.299798)
(1.52982 -9.9767e-20 -0.282794)
(1.43988 -1.97636e-19 -0.266013)
(1.35091 0 -0.249405)
(1.26321 -9.65274e-20 -0.233004)
(1.17644 0 -0.216779)
(1.09086 0 -0.200747)
(1.00627 -1.84222e-19 -0.184915)
(0.92285 1.80905e-19 -0.169263)
(0.840579 3.94727e-23 -0.153861)
(0.759472 0 -0.13863)
(0.679826 0 -0.123725)
(0.601338 0 -0.108975)
(0.524773 -1.61815e-19 -0.0946626)
(0.449359 1.57611e-19 -0.0804834)
(0.37643 0 -0.066879)
(0.304769 5.96117e-19 -0.0533936)
(0.235897 2.89374e-19 -0.0405901)
(0.169159 -5.60791e-19 -0.0280199)
(0.104328 -2.71505e-19 -0.0159858)
(0.0436561 -5.24919e-19 -0.00466027)
(-0.014459 0 0.00643701)
(-0.0784824 0 0.0175648)
(-0.101304 2.35936e-19 0.0231675)
(-0.216792 4.51351e-19 0.0439109)
(-0.168857 -4.37775e-19 0.0326753)
(-0.274106 0 0.0605897)
(-0.410268 0 0.0709589)
(-0.0583776 3.9221e-19 0.0207671)
(-0.795091 3.5122e-19 0.157592)
(-0.0868863 0 -0.00188698)
(-0.410649 -3.26152e-19 0.114014)
(-1.12252 3.14989e-19 0.187001)
(0.515149 0 -0.0893802)
(-1.70362 0 0.354312)
(-0.0570609 0 -0.0446762)
(-0.140384 0 0.0949709)
(-2.43219 0 0.440483)
(1.04406 -5.55353e-19 -0.234369)
(-1.62963 0 0.400009)
(-1.70403 0 0.2459)
(1.23042 0 -0.225639)
(-2.63492 6.63983e-19 0.602873)
(-1.8301 7.90896e-19 0.24354)
(1.39846 0 -0.295295)
(-1.38517 -6.22883e-19 0.400157)
(-3.59302 0 0.678906)
(-0.476173 -7.1288e-19 -0.015299)
(0.269353 0 -0.000293709)
(-2.82761 -5.54697e-19 0.574686)
(-0.629306 0 0.0707144)
(32.5775 -5.00005e-21 1.48429)
(33.1611 -6.20278e-21 1.62419)
(33.6879 7.36226e-21 1.4333)
(33.9138 8.29464e-21 0.972391)
(33.7217 0 0.380508)
(33.1237 -9.93923e-21 -0.235362)
(32.193 0 -0.809415)
(31.0206 1.74695e-20 -1.30464)
(29.6951 1.67058e-20 -1.70562)
(28.2929 3.22261e-20 -2.0128)
(26.8732 -1.48313e-20 -2.23587)
(25.4783 1.3843e-20 -2.38834)
(24.1353 0 -2.48411)
(22.8598 0 -2.53583)
(21.6591 1.11755e-20 -2.5541)
(20.5349 -1.14597e-22 -2.54746)
(19.4857 1.7615e-22 -2.52256)
(18.5079 1.35989e-22 -2.48446)
(17.597 0 -2.43701)
(16.7481 0 -2.38308)
(15.9564 0 -2.32483)
(15.2171 2.43188e-20 -2.26386)
(14.5259 1.10688e-20 -2.20139)
(13.8786 0 -2.13828)
(13.2716 0 -2.07521)
(12.7013 1.65936e-20 -2.01266)
(12.1648 0 -1.95099)
(11.6592 0 -1.89043)
(11.1821 0 -1.83117)
(10.7311 0 -1.77333)
(10.3042 -6.49879e-24 -1.71699)
(9.89958 0 -1.66218)
(9.51551 -1.70007e-24 -1.60893)
(9.15046 1.32501e-20 -1.55722)
(8.80305 2.46554e-24 -1.50705)
(8.47201 0 -1.45839)
(8.15619 0 -1.4112)
(7.85452 0 -1.36544)
(7.56605 0 -1.32108)
(7.28989 0 -1.27805)
(7.02521 0 -1.23632)
(6.77127 0 -1.19583)
(6.52737 -3.18403e-21 -1.15654)
(6.29289 -1.51142e-21 -1.1184)
(6.0672 0 -1.08135)
(5.84978 1.41993e-21 -1.04535)
(5.6401 0 -1.01036)
(5.4377 0 -0.976329)
(5.24211 -9.84358e-21 -0.943207)
(5.05294 0 -0.910961)
(4.86977 1.34911e-20 -0.879538)
(4.69227 0 -0.84891)
(4.52005 3.28285e-20 -0.819023)
(4.35285 2.44551e-23 -0.789856)
(4.19029 0 -0.761352)
(4.03218 0 -0.733499)
(3.87813 0 -0.706238)
(3.72801 4.25663e-20 -0.679562)
(3.58144 -4.38129e-20 -0.65341)
(3.43836 -4.48458e-20 -0.627784)
(3.29836 -4.57143e-20 -0.602618)
(3.16144 9.28584e-20 -0.577926)
(3.02719 4.69553e-20 -0.553634)
(2.89567 0 -0.529768)
(2.76644 0 -0.506247)
(2.63964 -2.42046e-23 -0.483109)
(2.51479 0 -0.46027)
(2.39211 0 -0.437774)
(2.27109 -9.49837e-20 -0.415538)
(2.15203 0 -0.393613)
(2.03439 0 -0.371917)
(1.91853 1.85667e-19 -0.350505)
(1.80393 -9.1794e-20 -0.329308)
(1.69099 0 -0.308372)
(1.57924 0 -0.287655)
(1.46905 0 -0.26718)
(1.3601 1.73012e-19 -0.246954)
(1.25266 0 -0.226954)
(1.14665 3.32995e-19 -0.207262)
(1.04214 -1.62982e-19 -0.187784)
(0.939419 0 -0.16871)
(0.838206 0 -0.14983)
(0.739325 1.51844e-19 -0.131491)
(0.641955 -2.65249e-23 -0.113318)
(0.547609 1.43872e-19 -0.0958616)
(0.454919 -2.79555e-19 -0.0785461)
(0.365661 2.71312e-19 -0.0620996)
(0.279094 2.62916e-19 -0.0459081)
(0.194955 2.54562e-19 -0.0304428)
(0.116023 3.10067e-23 -0.0158326)
(0.0399703 0 -0.00136416)
(-0.0417318 -2.28931e-19 0.0124531)
(-0.0769436 0 0.0211259)
(-0.21778 0 0.0456699)
(-0.166652 4.10114e-19 0.0331376)
(-0.303428 0 0.0706298)
(-0.452487 0 0.0755088)
(-0.0683343 0 0.0286139)
(-0.923513 -3.28851e-19 0.183821)
(-0.0788798 0 -0.0112266)
(-0.521117 -3.0539e-19 0.152881)
(-1.27117 0 0.200713)
(0.557695 0 -0.089857)
(-2.03268 0 0.428213)
(0.00107957 0 -0.0820728)
(-0.278796 0 0.157559)
(-2.78824 -4.3937e-19 0.492217)
(1.18339 -5.1959e-19 -0.274383)
(-2.03856 3.70288e-19 0.519216)
(-1.84483 0 0.230983)
(1.30063 0 -0.227003)
(-3.20312 -1.2415e-18 0.7544)
(-1.94652 0 0.209461)
(1.5296 7.76043e-19 -0.325293)
(-1.81081 0 0.546548)
(-4.07105 5.69996e-19 0.757419)
(-0.463546 6.66177e-19 -0.0676848)
(0.205057 0 0.0413937)
(-3.29644 -5.18027e-19 0.674986)
(-0.503164 0 0.0170762)
(32.6323 4.70869e-21 1.03209)
(33.0435 1.14367e-20 1.11936)
(33.4898 -6.93485e-21 1.0365)
(33.8551 -7.81462e-22 0.773237)
(34.0287 7.51241e-21 0.383023)
(33.9545 0 -0.0721948)
(33.6248 0 -0.543306)
(33.0596 -1.64501e-20 -0.994577)
(32.2944 -3.05588e-20 -1.40239)
(31.3715 -7.08652e-22 -1.7537)
(30.3346 1.39644e-20 -2.04403)
(29.2241 -1.30338e-20 -2.27471)
(28.0749 1.179e-20 -2.45057)
(26.9154 0 -2.57822)
(25.767 0 -2.66482)
(24.6453 -9.57885e-21 -2.71737)
(23.5606 3.506e-20 -2.74226)
(22.5195 3.22749e-20 -2.74506)
(21.5255 0 -2.73047)
(20.5797 0 -2.70239)
(19.6822 0 -2.66396)
(18.8318 -6.73834e-23 -2.61774)
(18.0266 -2.07926e-20 -2.56575)
(17.2646 9.44744e-21 -2.5096)
(16.5433 1.71756e-20 -2.45056)
(15.8606 -3.11992e-20 -2.38962)
(15.2138 1.40848e-20 -2.32759)
(14.6009 1.26994e-20 -2.26506)
(14.0195 1.14117e-20 -2.20252)
(13.4675 0 -2.14034)
(12.9432 -9.11698e-21 -2.07881)
(12.4445 8.07468e-21 -2.01813)
(11.9698 -7.12472e-21 -1.95847)
(11.5175 -1.24679e-20 -1.89994)
(11.0861 -2.16592e-20 -1.84264)
(10.6743 0 -1.78661)
(10.2808 0 -1.73189)
(9.90449 -6.6122e-21 -1.67849)
(9.54416 0 -1.62642)
(9.19887 4.31344e-21 -1.57567)
(8.86767 3.29791e-21 -1.52623)
(8.54969 0 -1.47806)
(8.2441 6.0082e-21 -1.43114)
(7.95018 1.42234e-21 -1.38544)
(7.66719 0 -1.34092)
(7.39449 -1.3361e-21 -1.29755)
(7.13145 -2.52228e-21 -1.25529)
(6.87752 0 -1.21409)
(6.63213 9.23188e-21 -1.17391)
(6.3948 -5.50755e-21 -1.13473)
(6.16502 -1.26372e-20 -1.09648)
(5.94238 0 -1.05915)
(5.72641 -2.47163e-23 -1.02266)
(5.51677 3.31539e-20 -0.98702)
(5.31301 0 -0.952148)
(5.11487 0 -0.918039)
(4.92189 -1.9296e-20 -0.884625)
(4.7339 -2.00008e-20 -0.851903)
(4.55042 4.1153e-20 -0.8198)
(4.37137 4.21561e-20 -0.788325)
(4.19625 4.29688e-20 -0.757396)
(4.02505 -4.36222e-20 -0.727034)
(3.85724 -8.82258e-20 -0.69715)
(3.69292 0 -0.667778)
(3.53152 0 -0.638821)
(3.37321 -8.96933e-20 -0.610326)
(3.21739 0 -0.582189)
(3.06434 0 -0.554469)
(2.9134 8.92102e-20 -0.52706)
(2.76495 0 -0.500028)
(2.6183 -8.79519e-20 -0.473272)
(2.47391 -3.23164e-23 -0.446859)
(2.3311 8.61771e-20 -0.420704)
(2.19039 0 -0.394864)
(2.05113 0 -0.369287)
(1.91386 0 -0.344001)
(1.77806 1.62263e-19 -0.319012)
(1.64418 0 -0.294295)
(1.51198 -1.56183e-19 -0.269946)
(1.38168 3.05733e-19 -0.245852)
(1.25346 0 -0.22224)
(1.12714 0 -0.19886)
(1.00355 0 -0.176129)
(0.881865 -2.62656e-23 -0.153593)
(0.763733 -1.34876e-19 -0.131923)
(0.647678 -2.61957e-19 -0.110409)
(0.535704 -2.54285e-19 -0.0899678)
(0.426998 2.46314e-19 -0.0697863)
(0.321285 0 -0.0505533)
(0.221854 2.30476e-19 -0.0323025)
(0.125583 0 -0.0140922)
(0.0243929 2.14432e-19 0.0025324)
(-0.0262669 0 0.0150994)
(-0.192615 0 0.0430565)
(-0.142342 0 0.0299724)
(-0.312422 -3.65015e-19 0.0779266)
(-0.470492 -3.49807e-19 0.0749914)
(-0.0699368 0 0.0366807)
(-1.02456 3.07631e-19 0.204753)
(-0.0612669 -3.2209e-19 -0.0231904)
(-0.626214 2.85746e-19 0.194334)
(-1.37973 -2.75435e-19 0.203523)
(0.577048 0 -0.0826918)
(-2.32507 0 0.495663)
(0.0688541 0 -0.125873)
(-0.437499 0 0.232188)
(-3.06476 4.10851e-19 0.523671)
(1.27309 -1.28628e-22 -0.305086)
(-2.43352 -6.9241e-19 0.641964)
(-1.91484 0 0.193327)
(1.29809 0 -0.207128)
(-3.72354 5.80173e-19 0.901525)
(-1.98807 0 0.148324)
(1.58475 -7.25214e-19 -0.337074)
(-2.23326 0 0.703525)
(-4.41029 -1.06459e-18 0.802246)
(-0.431248 0 -0.131657)
(0.120609 0 0.0944737)
(-3.66215 4.83918e-19 0.753426)
(-0.26711 0 -0.0668878)
(32.657 0 0.678806)
(32.9586 -5.26301e-21 0.722264)
(33.2956 0 0.672865)
(33.6262 -6.61552e-21 0.50986)
(33.8872 -1.34868e-20 0.2481)
(34.0278 0 -0.0806849)
(34.0194 6.72841e-21 -0.445076)
(33.8508 0 -0.818975)
(33.5226 9.0045e-22 -1.18219)
(33.0441 -2.59144e-20 -1.52024)
(32.4315 0 -1.82381)
(31.705 0 -2.08801)
(30.8869 -1.10891e-20 -2.31126)
(29.9994 0 -2.49427)
(29.0637 0 -2.63935)
(28.0986 0 -2.74976)
(27.1203 -1.63783e-20 -2.82927)
(26.1421 -1.50928e-20 -2.88185)
(25.1746 -1.36992e-20 -2.91137)
(24.2258 0 -2.92146)
(23.3015 0 -2.9154)
(22.4058 -1.06834e-20 -2.8961)
(21.5411 9.75321e-21 -2.86607)
(20.7089 -8.88558e-21 -2.82746)
(19.9098 -1.6154e-20 -2.78206)
(19.1437 2.92269e-20 -2.73139)
(18.4101 -5.43944e-23 -2.6767)
(17.7082 -1.19437e-20 -2.61902)
(17.0368 -1.07325e-20 -2.55921)
(16.3948 0 -2.49795)
(15.7809 0 -2.43581)
(15.1938 -7.59368e-21 -2.37325)
(14.6322 0 -2.31064)
(14.0948 1.17247e-20 -2.24828)
(13.5803 1.01825e-20 -2.18641)
(13.0875 -8.75016e-21 -2.12521)
(12.6152 0 -2.06482)
(12.1623 6.2173e-21 -2.00537)
(11.7277 5.09464e-21 -1.94693)
(11.3103 3.57586e-24 -1.88956)
(10.9093 -6.2059e-21 -1.83332)
(10.5237 0 -1.77821)
(10.1527 -2.83127e-21 -1.72426)
(9.79539 0 -1.67147)
(9.45104 0 -1.61983)
(9.11895 0 -1.56934)
(8.79839 1.36221e-23 -1.51996)
(8.48875 0 -1.47168)
(8.18937 -4.33138e-21 -1.42447)
(7.89973 1.03386e-20 -1.37831)
(7.61921 1.18753e-20 -1.33315)
(7.34736 0 -1.28898)
(7.08362 -1.44712e-20 -1.24574)
(6.8276 -3.11046e-20 -1.20342)
(6.57874 0 -1.16195)
(6.33677 0 -1.12134)
(6.10112 1.81257e-20 -1.0815)
(5.87159 1.87497e-20 -1.04244)
(5.64761 -1.93172e-20 -1.00408)
(5.42907 -3.95249e-20 -0.966443)
(5.21538 0 -0.929423)
(5.00653 0 -0.893056)
(4.80187 2.83064e-23 -0.857236)
(4.60152 -4.17221e-20 -0.822009)
(4.40478 0 -0.787259)
(4.21187 4.20857e-20 -0.753046)
(4.02203 0 -0.719247)
(3.83562 0 -0.685935)
(3.65182 0 -0.652982)
(3.47109 0 -0.620471)
(3.29258 3.42318e-23 -0.588278)
(3.11686 -3.20179e-23 -0.556487)
(2.94306 -8.07827e-20 -0.524995)
(2.77183 0 -0.49387)
(2.60236 -7.86133e-20 -0.463048)
(2.4353 0 -0.432566)
(2.26999 -1.52154e-19 -0.402427)
(2.10701 1.49289e-19 -0.372603)
(1.94597 -1.46347e-19 -0.343205)
(1.78723 -1.43281e-19 -0.314102)
(1.63089 0 -0.28556)
(1.47684 1.36729e-19 -0.257282)
(1.32591 0 -0.229765)
(1.17729 -1.29868e-19 -0.202466)
(1.03276 -1.2632e-19 -0.17619)
(0.890735 2.45402e-19 -0.150075)
(0.753453 0 -0.125254)
(0.620031 -4.61359e-19 -0.100678)
(0.490207 0 -0.0773074)
(0.367756 2.15758e-19 -0.0550215)
(0.248715 0 -0.0326898)
(0.125938 2.007e-19 -0.0130003)
(0.0565377 0 0.00422665)
(-0.135757 3.70482e-19 0.0352192)
(-0.0909123 -3.59292e-19 0.0225622)
(-0.295638 3.41581e-19 0.0815789)
(-0.460228 3.27316e-19 0.0688761)
(-0.0581317 0 0.044214)
(-1.09306 -5.75509e-19 0.21942)
(-0.0327941 6.02562e-19 -0.0376774)
(-0.718621 0 0.236897)
(-1.44748 2.57598e-19 0.195504)
(0.578222 0 -0.0684914)
(-2.57218 0 0.554613)
(0.138557 -5.0233e-19 -0.174205)
(-0.605529 0 0.31658)
(-3.26058 0 0.534957)
(1.31266 4.54231e-19 -0.325414)
(-2.80012 6.47208e-19 0.764505)
(-1.92993 3.66506e-19 0.136396)
(1.23359 0 -0.168184)
(-4.1784 0 1.03949)
(-1.98028 0 0.0656177)
(1.57043 0 -0.330451)
(-2.63076 5.08944e-19 0.86528)
(-4.60851 4.96989e-19 0.813352)
(-0.387644 0 -0.204371)
(0.033872 0 0.155056)
(-3.90269 0 0.804032)
(0.0764896 0 -0.181281)
(32.6562 4.21561e-21 0.39038)
(32.8884 0 0.406486)
(33.1442 4.93258e-21 0.365958)
(33.4091 0 0.252762)
(33.6521 6.03308e-21 0.0674491)
(33.8419 0 -0.175279)
(33.9554 -6.32384e-21 -0.456284)
(33.9777 1.15998e-20 -0.757627)
(33.8995 2.36807e-20 -1.06415)
(33.7163 7.2823e-22 -1.36385)
(33.4276 0 -1.64774)
(33.0368 0 -1.9096)
(32.5505 0 -2.14557)
(31.9778 0 -2.35358)
(31.3298 0 -2.53288)
(30.6185 0 -2.68374)
(29.8563 1.47605e-20 -2.80718)
(29.0555 -1.36811e-20 -2.90479)
(28.2276 1.28718e-20 -2.97854)
(27.3831 0 -3.03065)
(26.5312 0 -3.06345)
(25.6796 9.83767e-21 -3.07927)
(24.8349 9.00471e-21 -3.08034)
(24.0021 8.2222e-21 -3.06878)
(23.1854 0 -3.04651)
(22.3877 -1.36976e-20 -3.01527)
(21.6112 -2.47158e-20 -2.97659)
(20.8575 1.11231e-20 -2.93183)
(20.1273 0 -2.88215)
(19.4212 0 -2.82856)
(18.7392 0 -2.77191)
(18.0813 7.09937e-21 -2.71295)
(17.447 0 -2.65227)
(16.8358 0 -2.59041)
(16.247 9.53953e-21 -2.5278)
(15.6799 8.21996e-21 -2.4648)
(15.1338 0 -2.40171)
(14.6078 5.83603e-21 -2.33878)
(14.1012 -9.56931e-21 -2.27621)
(13.613 -3.81272e-21 -2.21417)
(13.1425 2.91669e-21 -2.15279)
(12.6888 0 -2.09218)
(12.2512 0 -2.03241)
(11.8289 0 -1.97356)
(11.4212 2.02374e-23 -1.91565)
(11.0273 0 -1.85873)
(10.6465 2.21344e-21 -1.80281)
(10.2782 3.16651e-21 -1.74791)
(9.92179 0 -1.69402)
(9.5766 -4.84744e-21 -1.64114)
(9.24201 0 -1.58924)
(8.91754 0 -1.53834)
(8.60255 -1.35408e-20 -1.48838)
(8.29664 2.15328e-23 -1.43937)
(7.99917 1.54761e-20 -1.39124)
(7.70985 0 -1.34402)
(7.42802 0 -1.29761)
(7.15347 -1.75964e-20 -1.25204)
(6.88552 0 -1.20723)
(6.62408 3.7089e-20 -1.16319)
(6.36843 0 -1.11983)
(6.11859 0 -1.07718)
(5.87377 7.76097e-20 -1.03514)
(5.63413 7.82534e-20 -0.993756)
(5.39883 3.93237e-20 -0.952898)
(5.16814 0 -0.912643)
(4.94115 0 -0.872846)
(4.7183 3.93597e-20 -0.833597)
(4.49857 7.83963e-20 -0.794747)
(4.28256 0 -0.756396)
(4.0692 7.73396e-20 -0.718401)
(3.85919 -7.65917e-20 -0.680859)
(3.65147 7.57284e-20 -0.643651)
(3.44683 -7.47247e-20 -0.606856)
(3.24424 7.36819e-20 -0.570403)
(3.04454 0 -0.534329)
(2.84684 0 -0.498643)