/*--------------------------------*- C++ -*----------------------------------*\
| =========                 |                                                 |
| \\      /  F ield         | OpenFOAM: The Open Source CFD Toolbox           |
|  \\    /   O peration     | Version:  2412                                  |
|   \\  /    A nd           | Website:  www.openfoam.com                      |
|    \\/     M anipulation  |                                                 |
\*---------------------------------------------------------------------------*/
FoamFile
{
    version     2.0;
    format      ascii;
    arch        "LSB;label=32;scalar=64";
    class       volVectorField;
    location    "0.19";
    object      ddt0(U);
}
// * * * * * * * * * * * * * * * * * * * * * * * * * * * * * * * * * * * * * //

dimensions      [0 1 -2 0 0 0 0];

internalField   nonuniform List<vector> 
12600
(
(-38.7499 0 -5.01348)
(-7.27422 -3.85734e-19 0.131052)
(-0.448947 -3.27372e-19 0.633372)
(1.59641 0 0.0399436)
(2.20433 4.61044e-21 -0.62371)
(2.20553 0 -0.917589)
(2.10987 4.3423e-19 -1.00762)
(1.98835 0 -1.01513)
(1.85475 0 -0.984553)
(1.71772 0 -0.92923)
(1.60991 0 -0.829549)
(1.49149 7.72637e-19 -0.763378)
(1.37523 7.42369e-19 -0.704648)
(1.26812 0 -0.650966)
(1.1703 -1.35833e-18 -0.604481)
(1.0889 0 -0.568299)
(1.02152 -5.616e-21 -0.537016)
(0.985831 0 -0.525725)
(0.969788 -5.43231e-19 -0.484522)
(0.953904 0 -0.496341)
(0.984805 0 -0.504787)
(1.01912 0 -0.52328)
(1.07559 -1.82378e-18 -0.554767)
(1.14197 1.71972e-18 -0.599915)
(1.23272 9.70161e-21 -0.654801)
(1.34242 -7.77594e-19 -0.718178)
(1.47541 0 -0.789695)
(1.63102 0 -0.87291)
(1.81093 0 -0.966432)
(2.0079 1.47555e-18 -1.0654)
(2.22543 2.9693e-18 -1.1876)
(2.46207 0 -1.32877)
(2.74184 0 -1.4822)
(3.0582 1.4298e-18 -1.65566)
(3.41563 1.40184e-18 -1.85378)
(3.78486 0 -2.07766)
(4.16496 0 -2.28274)
(4.56216 2.70865e-18 -2.48414)
(4.94143 0 -2.66187)
(5.25539 1.23856e-23 -2.82977)
(5.56291 3.02741e-18 -2.99659)
(5.88391 3.18505e-18 -3.16909)
(6.25311 0 -3.36066)
(6.65009 3.60533e-18 -3.55972)
(7.01425 3.90211e-18 -3.72199)
(7.0814 -8.69672e-18 -3.69165)
(6.55526 9.76046e-18 -3.28832)
(4.28396 0 -1.84499)
(-0.587012 -8.13413e-18 0.858104)
(-7.94768 1.27494e-17 4.67089)
(-17.3692 0 9.99843)
(-27.248 5.68011e-21 15.7791)
(-33.8522 -8.74658e-18 19.0055)
(-34.6618 0 18.9314)
(-29.9633 8.54055e-18 15.7562)
(-19.0379 0 10.7968)
(-4.11704 0 0.473896)
(16.9678 2.75156e-18 -12.8601)
(40.0438 7.53896e-19 -23.1737)
(59.7446 5.14421e-18 -34.5349)
(78.1891 -3.04478e-17 -44.5432)
(86.8371 3.43602e-17 -48.2757)
(73.8166 0 -38.7417)
(38.4509 -1.24708e-17 -17.8064)
(-12.565 -2.23814e-17 8.37977)
(-56.7958 3.54382e-17 33.9141)
(-72.1477 -2.22627e-16 37.403)
(-55.4185 0 28.4539)
(-29.969 0 15.9513)
(-15.7032 0 8.75521)
(-15.585 0 9.15761)
(-20.3436 0 11.7924)
(-20.1163 2.26359e-17 11.3864)
(-14.7698 -4.60232e-17 8.21619)
(-7.94009 0 4.2699)
(-2.05964 0 1.01482)
(3.23741 -1.69793e-17 -1.9383)
(8.21948 -3.73415e-20 -4.85237)
(11.1725 -3.69276e-17 -6.33841)
(10.1962 0 -5.60342)
(6.31848 0 -3.41014)
(1.13376 0 -0.453035)
(-2.89541 1.72285e-19 1.67865)
(-4.03553 0 2.23572)
(-3.30853 0 1.84409)
(-1.40441 -5.1223e-17 0.759015)
(0.634782 -3.96524e-19 -0.362016)
(1.98644 0 -1.08574)
(2.27841 0 -1.20925)
(1.56344 1.53683e-16 -0.860377)
(0.378864 1.39833e-16 -0.0588652)
(-1.06327 1.55257e-16 0.692166)
(-2.35746 1.38775e-16 1.45953)
(-3.29567 3.20984e-19 1.94847)
(-3.81736 2.65019e-19 2.21589)
(-3.89645 -9.05965e-17 2.25748)
(-3.67747 0 2.1232)
(-3.25244 0 1.87779)
(-2.77273 0 1.60527)
(-2.29469 -1.99948e-16 1.33516)
(-1.88953 8.69194e-17 1.10822)
(-1.56502 -7.60103e-17 0.926365)
(-1.33986 -6.73573e-17 0.80174)
(-1.20256 0 0.725512)
(-1.12498 0 0.684035)
(-1.11663 0 0.680488)
(-1.10627 -8.75599e-17 0.675847)
(-1.16987 0 0.70848)
(-1.18144 7.43468e-17 0.713153)
(-1.28154 0 0.775695)
(-1.30135 0 0.783257)
(-1.42537 -6.03601e-17 0.861299)
(-1.44786 0 0.869459)
(-1.5618 0 0.941749)
(-1.61707 0 0.971744)
(-1.511 9.29132e-17 0.914103)
(-2.01374 0 1.2039)
(-1.57892 -8.22218e-17 0.947765)
(-2.23334 0 1.34104)
(-3.22808 -5.40299e-21 1.88992)
(-44.7948 1.44663e-19 -5.41783)
(-25.8459 2.78153e-19 -0.678772)
(-12.444 -2.228e-20 0.984843)
(-3.61417 0 0.476279)
(1.24482 4.35482e-19 -0.96058)
(3.45473 -4.43948e-19 -1.93938)
(4.38355 -4.5292e-19 -2.41992)
(4.72092 4.39667e-19 -2.61169)
(4.76166 0 -2.6408)
(4.64528 0 -2.57338)
(4.44323 0 -2.41589)
(4.16181 0 -2.26382)
(3.86787 0 -2.10931)
(3.57564 0 -1.95767)
(3.29893 1.0759e-20 -1.81665)
(3.05513 0 -1.69836)
(2.84674 -6.31849e-19 -1.59455)
(2.7357 0 -1.52844)
(2.60338 1.12351e-18 -1.50621)
(2.55478 -1.05032e-18 -1.45941)
(2.61454 0 -1.47723)
(2.68505 -9.64551e-19 -1.54329)
(2.8369 9.42488e-19 -1.63976)
(3.03771 -8.88142e-19 -1.77234)
(3.31713 8.591e-19 -1.9409)
(3.65766 0 -2.14194)
(4.07134 -7.82652e-19 -2.37217)
(4.55417 0 -2.63776)
(5.11109 0 -2.93621)
(5.67938 0 -3.34838)
(6.35451 -1.53127e-18 -3.76226)
(7.10427 0 -4.23009)
(7.96773 0 -4.74616)
(8.9283 0 -5.32642)
(10.0005 0 -5.96756)
(11.1761 0 -6.54992)
(12.3077 0 -7.17942)
(13.4249 -2.78699e-18 -7.79904)
(14.425 0 -8.40893)
(15.2872 -6.02553e-18 -8.88446)
(16.1161 -6.21949e-18 -9.3565)
(16.9728 -3.2653e-18 -9.81019)
(17.8922 0 -10.3491)
(18.8122 0 -10.8662)
(19.4591 -7.9769e-18 -11.1899)
(18.9887 8.88015e-18 -10.8015)
(16.4512 -1.00291e-17 -9.11356)
(8.55219 0 -4.15112)
(-6.11021 1.10612e-17 5.3356)
(-27.834 0 18.3825)
(-55.9993 0 34.7294)
(-84.5705 1.12175e-17 50.9998)
(-101.871 0 59.5312)
(-101.857 0 57.4973)
(-84.4877 -8.62769e-18 46.5535)
(-48.7082 0 27.1117)
(2.25019 0 -4.50541)
(68.6539 7.03274e-18 -43.1636)
(135.92 6.24975e-18 -82.468)
(195.548 7.8939e-19 -116.621)
(244.059 0 -142.884)
(256.329 -3.47635e-17 -147.755)
(201.781 -1.00722e-17 -110.534)
(86.7806 0 -41.9327)
(-61.1169 4.39092e-17 41.0557)
(-180.318 5.25346e-18 109.071)
(-208.081 0 113.733)
(-154.098 -2.25845e-17 83.2027)
(-85.3111 0 45.9979)
(-50.3691 0 27.9269)
(-54.155 0 31.6485)
(-67.5703 0 39.3429)
(-64.5656 -4.46514e-17 36.8255)
(-46.1472 4.57954e-17 25.7755)
(-23.5883 0 12.7381)
(-4.45455 0 2.0195)
(12.3292 -1.65589e-17 -7.77073)
(27.3294 -5.15249e-20 -16.3007)
(34.6852 3.81978e-21 -20.1437)
(30.027 0 -16.9802)
(17.1309 0 -9.48963)
(1.32022 0 -0.378711)
(-9.86301 2.91742e-19 5.93008)
(-12.4903 4.91568e-17 7.26423)
(-9.79704 -4.79351e-17 5.50602)
(-3.96678 4.94919e-17 2.10407)
(1.75632 -6.88851e-19 -1.18452)
(5.1479 5.99749e-17 -3.05379)
(5.3507 0 -3.08262)
(2.90222 -1.47716e-16 -1.5057)
(-1.04925 0 0.867192)
(-5.41444 -1.48863e-16 3.28333)
(-9.25933 0 5.40428)
(-11.8006 2.3079e-16 6.88355)
(-13.0831 1.00166e-16 7.55926)
(-13.067 0 7.54262)
(-12.2148 0 7.03102)
(-10.8248 1.27092e-16 6.21841)
(-9.34294 -1.09559e-16 5.36024)
(-7.91259 1.89616e-16 4.53417)
(-6.74405 -8.25503e-17 3.86297)
(-5.82372 7.21249e-17 3.33447)
(-5.22902 0 2.99508)
(-4.87566 -5.63588e-17 2.79393)
(-4.7277 0 2.71001)
(-4.748 0 2.72442)
(-4.79744 8.25397e-17 2.75031)
(-5.0196 0 2.88029)
(-5.12753 -6.22607e-20 2.93512)
(-5.47358 -6.51873e-17 3.14344)
(-5.59475 0 3.20258)
(-6.03896 0 3.46964)
(-6.13755 0 3.51428)
(-6.60881 -4.95354e-17 3.79539)
(-6.7779 9.26492e-17 3.87868)
(-6.59967 -8.73466e-17 3.78994)
(-8.10836 0 4.6575)
(-6.69084 7.72267e-17 3.83318)
(-8.88063 0 5.14488)
(-11.4173 -1.36727e-16 6.60549)
(-44.8833 -3.14579e-19 -9.39569)
(-36.497 1.82466e-19 -4.5891)
(-25.4382 7.14867e-19 -1.15472)
(-14.2138 0 0.265431)
(-5.3152 4.06668e-19 -0.29692)
(0.350087 2.9003e-21 -1.44449)
(3.55059 0 -2.37795)
(5.2517 -4.17245e-19 -2.96295)
(6.08008 0 -3.2613)
(6.38221 -3.91364e-19 -3.3617)
(6.35156 0 -3.3317)
(6.12572 0 -3.20397)
(5.78902 0 -3.02896)
(5.39535 0 -2.83296)
(4.98664 6.58253e-19 -2.63217)
(4.60071 0 -2.44912)
(4.25215 0 -2.28652)
(4.01274 0 -2.15318)
(3.74826 -5.297e-19 -2.16799)
(3.67043 5.57366e-21 -2.04659)
(3.66138 0 -2.10141)
(3.74127 8.75129e-21 -2.17297)
(3.9553 0 -2.31228)
(4.24851 8.14633e-19 -2.52602)
(4.6786 0 -2.79318)
(5.21534 0 -3.12284)
(5.8779 7.42376e-19 -3.50625)
(6.65541 0 -3.95718)
(7.53922 0 -4.45762)
(8.49455 1.39137e-18 -5.09992)
(9.63348 0 -5.77313)
(10.889 0 -6.52209)
(12.3167 0 -7.35009)
(13.898 0 -8.26534)
(15.6661 -1.28618e-18 -9.2652)
(17.3983 0 -10.4491)
(19.1588 0 -11.4454)
(20.8727 2.6939e-18 -12.3891)
(22.5085 0 -13.1074)
(23.7949 5.71555e-18 -13.8278)
(24.9983 -2.58169e-21 -14.5278)
(26.2026 3.09151e-18 -15.1888)
(27.4584 0 -15.9104)
(28.6297 0 -16.5076)
(29.1979 3.77417e-18 -16.6317)
(27.7825 0 -15.3905)
(22.8145 9.48739e-18 -11.7527)
(9.16036 0 -2.79844)
(-14.5922 2.3299e-18 13.7038)
(-48.9432 0 35.751)
(-93.2414 0 61.3721)
(-137.328 0 84.4648)
(-162.426 8.54563e-18 94.6467)
(-159.992 0 87.7179)
(-128.992 0 66.9664)
(-67.8945 0 30.5393)
(19.5346 0 -20.8873)
(126.796 2.09413e-17 -84.904)
(235.152 0 -149.65)
(328.793 1.13678e-18 -202.879)
(399.596 0 -232.316)
(403.046 1.65024e-17 -226.91)
(300.275 9.49373e-18 -152.977)
(108.764 0 -36.7051)
(-120.889 -4.02594e-17 91.3037)
(-294.453 -2.34792e-17 179.342)
(-321.241 0 174.196)
(-234.892 2.12674e-17 121.397)
(-133.522 0 67.0676)
(-85.5001 0 46.271)
(-94.475 0 55.9495)
(-114.592 0 66.8937)
(-107.711 1.52181e-19 60.4646)
(-76.0825 -4.30657e-17 40.8714)
(-37.8408 0 18.8758)
(-5.36046 0 0.905229)
(22.5225 2.75265e-20 -15.3267)
(46.3616 3.04945e-17 -28.1197)
(56.438 1.69218e-17 -32.561)
(47.1077 0 -25.7649)
(25.0975 0 -12.7679)
(-0.218717 0 1.35631)
(-16.9194 1.00702e-16 10.7968)
(-20.6633 2.36263e-20 11.8248)
(-15.7402 4.49668e-17 8.50498)
(-6.44061 0 2.97931)
(2.4044 4.95519e-17 -1.5543)
(6.95848 -5.62265e-17 -4.10668)
(6.52608 0 -3.61994)
(1.92363 0 -1.04909)
(-4.53274 -1.36843e-16 3.1218)
(-11.4285 0 7.09064)
(-17.3466 -1.23364e-16 10.3238)
(-21.1272 -1.97772e-19 12.4354)
(-22.8621 -9.33051e-17 13.2482)
(-22.565 8.03786e-17 12.9788)
(-21.0056 0 12.0089)
(-18.6727 -1.18938e-16 10.6348)
(-16.2705 1.02514e-16 9.25427)
(-13.9968 -1.77062e-16 7.96108)
(-12.1878 0 6.949)
(-10.7779 6.7229e-17 6.16434)
(-9.92093 0 5.70034)
(-9.41957 5.26994e-17 5.4336)
(-9.28146 -4.71277e-17 5.37029)
(-9.36001 0 5.42994)
(-9.5356 -7.71538e-17 5.53285)
(-9.92021 0 5.77067)
(-10.1865 -1.31006e-16 5.91451)
(-10.7734 6.09153e-17 6.27218)
(-11.0479 0 6.41177)
(-11.8177 0 6.88048)
(-12.0159 0 6.96828)
(-12.8958 1.52812e-20 7.50681)
(-13.158 -8.65413e-17 7.61726)
(-13.033 8.1524e-17 7.6013)
(-15.4239 0 8.94603)
(-13.0542 7.20807e-17 7.57456)
(-16.6906 0 9.81992)
(-20.2383 5.85346e-21 11.7607)
(-43.2562 1.6806e-19 -12.897)
(-40.3458 2.06839e-20 -8.58737)
(-33.8973 -3.50804e-19 -4.37004)
(-24.9768 3.826e-19 -1.4446)
(-15.4826 3.92853e-19 -0.501135)
(-7.32757 7.91171e-19 -0.875035)
(-1.37424 0 -1.71551)
(2.53391 0 -2.52899)
(4.92309 0 -3.11923)
(6.26327 3.70659e-19 -3.46256)
(6.89184 0 -3.59593)
(7.04554 0 -3.57062)
(6.89176 0 -3.44269)
(6.54697 0 -3.25458)
(6.09621 0 -3.03428)
(5.61105 5.83908e-19 -2.81439)
(5.13044 -5.56829e-19 -2.61308)
(4.74362 0 -2.43496)
(4.36925 0 -2.38481)
(4.14624 9.38845e-19 -2.26503)
(4.03055 -8.93375e-19 -2.33955)
(4.08668 8.58524e-19 -2.3899)
(4.26686 -8.15738e-19 -2.58906)
(4.59829 -7.71387e-19 -2.85099)
(5.12546 7.3747e-19 -3.19774)
(5.79671 -6.90389e-19 -3.6527)
(6.6519 0 -4.18215)
(7.67097 6.61053e-19 -4.81904)
(8.86339 0 -5.52245)
(10.2141 -1.31686e-18 -6.31671)
(11.7597 0 -7.23345)
(13.48 0 -8.25029)
(15.4188 0 -9.37924)
(17.5503 1.23282e-18 -10.6108)
(19.8458 1.21668e-18 -11.9256)
(22.1452 0 -13.4553)
(24.5113 0 -14.7634)
(26.7493 -2.54744e-18 -15.9839)
(28.8021 0 -16.8964)
(30.3546 -5.04133e-21 -17.764)
(31.8028 2.7887e-18 -18.5978)
(33.1785 0 -19.3976)
(34.5597 0 -20.1662)
(35.6887 0 -20.648)
(35.813 0 -20.2791)
(33.0937 7.86376e-18 -17.7889)
(25.4376 0 -11.6485)
(6.30741 -1.03507e-17 1.81407)
(-26.6027 -1.20755e-17 23.3559)
(-70.9393 0 54.4939)
(-127.88 0 87.9744)
(-183.254 0 116.051)
(-213.358 -8.06224e-18 125.376)
(-207.108 5.93002e-18 111.778)
(-162.495 8.27477e-18 78.7871)
(-75.6896 0 25.3703)
(45.6369 5.31547e-18 -46.8759)
(188.306 -8.01991e-18 -139.202)
(336.465 0 -220.245)
(457.09 -1.46736e-17 -285.984)
(537.04 0 -314.854)
(521.23 -1.59723e-17 -289.143)
(366.322 -1.05765e-17 -173.927)
(105.892 0 -10.9378)
(-187.532 1.87307e-17 148.885)
(-391.721 2.08809e-17 244.243)
(-409.558 0 220.549)
(-296.753 0 148.835)
(-174.222 0 83.893)
(-120.402 -1.96378e-17 64.6616)
(-134.739 -1.93982e-17 80.5073)
(-159.248 0 93.1971)
(-147.916 1.96222e-17 81.9063)
(-103.658 4.12858e-17 53.8648)
(-50.4523 0 23.2516)
(-4.76484 0 -1.70568)
(33.7234 1.45841e-17 -23.6448)
(64.6951 8.93127e-21 -39.9259)
(75.7455 0 -43.7077)
(60.9184 0 -32.5502)
(30.1243 0 -14.0606)
(-3.2175 0 4.30863)
(-24.2661 -1.25071e-19 15.447)
(-28.2546 -4.32673e-17 16.2295)
(-21.1251 0 11.2248)
(-8.95269 0 3.8808)
(1.91827 0 -1.84461)
(7.04429 -5.29618e-17 -4.29365)
(5.54287 0 -2.93858)
(-0.949309 -1.30849e-16 1.2856)
(-9.92977 1.28146e-16 6.70825)
(-19.1279 -1.30304e-16 11.7525)
(-26.6139 1.15487e-16 15.9195)
(-31.2529 -2.0141e-16 18.3812)
(-33.1118 8.73212e-17 19.1729)
(-32.3503 -7.52127e-17 18.5604)
(-30.0297 0 17.1069)
(-26.7979 0 15.1957)
(-23.5763 9.57232e-17 13.3462)
(-20.5794 8.27548e-17 11.647)
(-18.2598 7.1898e-17 10.3595)
(-16.466 -4.53773e-20 9.37063)
(-15.4513 0 8.83297)
(-14.8612 0 8.52796)
(-14.8056 4.40503e-17 8.51937)
(-14.9591 0 8.62977)
(-15.3196 7.20165e-17 8.83667)
(-15.8585 0 9.16875)
(-16.339 2.80852e-20 9.42536)
(-17.1393 0 9.91934)
(-17.6147 5.29289e-17 10.1584)
(-18.6877 -4.95337e-17 10.8173)
(-19.003 -4.60726e-17 10.9533)
(-20.3127 1.57866e-20 11.7559)
(-20.6363 0 11.8694)
(-20.6707 -7.6133e-17 11.9827)
(-23.7935 -7.17773e-17 13.7178)
(-20.5467 -6.73063e-17 11.846)
(-25.4596 0 14.951)
(-29.4613 6.66963e-21 17.0938)
(-40.7425 0 -14.2204)
(-39.9045 2.05951e-20 -10.8905)
(-37.403 0 -7.2349)
(-32.3343 -3.61474e-19 -3.94747)
(-25.0715 -7.34521e-19 -1.82837)
(-17.0258 -3.7349e-19 -0.981766)
(-9.64078 0 -1.06716)
(-3.6849 0 -1.62574)
(0.687914 3.55433e-19 -2.27747)
(3.64626 3.43966e-19 -2.81133)
(5.47371 -3.32564e-19 -3.15113)
(6.45271 -6.48394e-19 -3.29755)
(6.82507 -6.26604e-19 -3.28587)
(6.77716 0 -3.16338)
(6.45166 0 -2.96884)
(5.96891 -1.10296e-18 -2.74181)
(5.40762 1.22292e-21 -2.51637)
(4.8798 0 -2.29743)
(4.35883 4.66112e-19 -2.20121)
(3.96498 8.80557e-19 -2.0567)
(3.70708 8.44583e-19 -2.08188)
(3.62613 0 -2.12954)
(3.70335 7.71107e-19 -2.36452)
(4.01844 -7.16374e-19 -2.63182)
(4.53458 -6.97036e-19 -3.0633)
(5.27026 4.05824e-21 -3.60125)
(6.25637 0 -4.23982)
(7.45276 -3.30296e-21 -5.03624)
(8.88473 0 -5.91823)
(10.506 -1.22893e-18 -6.95475)
(12.3935 0 -8.12046)
(14.4999 0 -9.41476)
(16.8613 0 -10.8528)
(19.4496 -1.16439e-18 -12.4101)
(22.262 0 -14.0342)
(25.2127 0 -15.5568)
(28.0077 0 -17.0864)
(30.6159 0 -18.5164)
(32.9142 2.43295e-18 -19.7195)
(34.7318 -5.08111e-18 -20.6081)
(36.3285 0 -21.4551)
(37.7599 -2.72664e-18 -22.2222)
(39.0576 0 -22.8949)
(39.8864 0 -23.0485)
(39.2718 0 -21.8908)
(35.0102 -6.34596e-20 -17.7987)
(24.6167 0 -8.77087)
(0.437197 9.76008e-18 9.29756)
(-37.3239 0 40.1242)
(-91.5955 0 74.768)
(-158.053 1.06295e-17 113.84)
(-221.338 0 144.085)
(-254.371 0 150.231)
(-243.631 1.09986e-19 128.428)
(-185.726 -7.79214e-18 81.9581)
(-74.7167 0 10.5766)
(78.2424 9.51737e-19 -81.6679)
(253.434 3.82557e-18 -198.333)
(434.896 0 -293.013)
(575.818 7.82201e-18 -362.685)
(653.25 0 -386.165)
(611.794 1.50244e-17 -330.421)
(404.589 9.94434e-18 -171.684)
(85.4273 0 32.6047)
(-251.936 -1.67199e-17 211.44)
(-469.63 -2.49998e-18 298.984)
(-472.686 0 255.628)
(-343.779 0 164.3)
(-209.722 0 95.819)
(-154.186 3.70513e-17 82.158)
(-172.386 -2.56386e-21 103.956)
(-199.498 0 116.892)
(-184.297 -1.77248e-17 100.326)
(-128.89 -7.80836e-17 64.2799)
(-61.752 0 25.6406)
(-3.2136 0 -5.92393)
(45.1584 0 -32.9118)
(81.8732 4.48333e-21 -51.2903)
(92.4774 0 -53.0626)
(71.7103 0 -36.9467)
(32.8048 0 -13.2008)
(-7.302 0 8.36381)
(-31.5395 -4.40631e-17 20.2118)
(-35.3275 -4.05832e-17 20.3839)
(-26.3549 0 13.5481)
(-11.9518 0 4.84347)
(0.4602 0 -1.05971)
(5.34352 -5.70765e-20 -3.36526)
(2.49193 0 -0.931516)
(-6.42442 1.22494e-16 4.0332)
(-17.1454 0 11.5395)
(-28.1592 1.21948e-16 17.4986)
(-36.8742 0 22.1434)
(-41.9989 9.41657e-17 24.7337)
(-43.7563 0 25.3067)
(-42.425 0 24.2477)
(-39.3353 0 22.2901)
(-35.2641 0 19.8785)
(-31.3184 -8.95053e-17 17.6294)
(-27.6952 0 15.6004)
(-24.9653 -6.72131e-17 14.1179)
(-22.8587 -5.87152e-17 12.987)
(-21.7582 0 12.4363)
(-21.1073 0 12.1236)
(-21.1808 0 12.2086)
(-21.4015 0 12.3728)
(-21.9866 -3.28536e-20 12.7136)
(-22.6448 0 13.1283)
(-23.3808 1.14245e-16 13.5278)
(-24.3453 0 14.1301)
(-25.0577 -9.88567e-17 14.4957)
(-26.384 4.62632e-17 15.3158)
(-26.828 4.30278e-17 15.5106)
(-28.5458 4.03321e-17 16.5712)
(-28.8971 0 16.6584)
(-29.1444 0 16.964)
(-32.8525 1.34019e-16 18.9676)
(-28.8438 -6.28055e-17 16.6748)
(-34.8054 -5.93004e-17 20.5321)
(-38.7843 5.56169e-17 22.5091)
(-38.3367 0 -14.5637)
(-37.9941 -4.01978e-19 -12.0552)
(-37.6423 0 -9.27721)
(-35.6571 0 -6.33103)
(-31.4048 0 -3.74976)
(-25.4296 0 -1.97443)
(-18.732 0 -1.09648)
(-12.1893 -3.44507e-19 -0.941381)
(-6.43852 -3.35297e-19 -1.2242)
(-1.83633 -6.47413e-19 -1.67418)
(1.53791 6.25657e-19 -2.09631)
(3.78989 6.11875e-19 -2.38798)
(5.11387 5.91365e-19 -2.5191)
(5.71649 0 -2.50662)
(5.78569 0 -2.38215)
(5.49315 1.03785e-18 -2.18324)
(4.96865 9.89214e-19 -1.95411)
(4.35586 0 -1.70405)
(3.69655 -4.39962e-19 -1.55091)
(3.10373 -8.31138e-19 -1.36853)
(2.63347 0 -1.33716)
(2.34113 -7.46955e-19 -1.35253)
(2.24581 0 -1.54724)
(2.4072 6.09707e-21 -1.8182)
(2.81038 6.45651e-19 -2.30039)
(3.53121 3.70091e-21 -2.86907)
(4.51945 0 -3.62205)
(5.79899 -5.86268e-19 -4.53808)
(7.404 1.19451e-18 -5.54478)
(9.23501 2.31289e-18 -6.76124)
(11.3971 1.14901e-18 -8.13181)
(13.8272 0 -9.65465)
(16.5557 1.08874e-18 -11.3359)
(19.5399 0 -13.1404)
(22.7514 0 -15.0109)
(26.0374 0 -16.8693)
(29.2252 0 -18.5527)
(32.1801 0 -20.0843)
(34.8187 -1.51647e-20 -21.2169)
(36.7834 2.38782e-18 -22.1012)
(38.4241 0 -22.9164)
(39.7711 5.12123e-18 -23.5828)
(40.8128 0 -24.027)
(41.1286 0 -23.6648)
(39.5664 0 -21.4843)
(33.6768 -6.92659e-18 -15.5505)
(20.7435 0 -3.46746)
(-6.93876 0 18.8401)
(-48.4119 0 57.8865)
(-110.179 0 95.296)
(-182.163 -2.00178e-17 137.955)
(-250.344 0 168.086)
(-285.003 0 169.121)
(-269.921 -5.35874e-18 137.793)
(-199.947 0 76.7698)
(-66.8253 0 -12.3181)
(114.132 -1.19633e-17 -123.194)
(317.381 -1.87829e-18 -261.737)
(525.241 0 -366.795)
(679.153 0 -432.523)
(747.246 0 -441.232)
(674.773 -1.45298e-17 -351.219)
(419.298 0 -148.922)
(54.5545 0 89.6056)
(-308.546 3.10661e-17 272.972)
(-525.681 -2.94927e-17 342.025)
(-517.048 0 273.968)
(-378.93 0 171.087)
(-240.454 0 104.114)
(-184.969 -1.74613e-17 97.8478)
(-204.793 1.71002e-17 124.711)
(-233.466 2.91604e-17 136.972)
(-215.893 1.66269e-17 115.807)
(-152.021 3.68893e-17 71.8743)
(-72.0562 -2.43634e-17 26.1856)
(-1.13859 0 -11.4666)
(56.3446 0 -42.7199)
(97.3917 -1.26033e-17 -61.981)
(106.385 0 -60.5876)
(79.5654 0 -39.0945)
(33.3754 0 -10.649)
(-12.1646 0 13.1675)
(-38.4747 0 25.3148)
(-42.1858 7.60152e-17 24.0465)
(-31.6002 0 15.7768)
(-15.6561 3.88885e-17 6.08575)
(-2.86839 0 -0.241096)
(1.64542 -4.06167e-20 -1.31861)
(-2.73514 -1.05556e-16 2.36246)
(-13.0695 0 9.36158)
(-26.042 0 17.0952)
(-38.4368 0 23.9268)
(-47.9577 0 28.8995)
(-53.2942 -8.79377e-17 31.3922)
(-54.7692 0 31.6229)
(-52.8024 0 30.0686)
(-48.9644 0 27.613)
(-44.1236 0 24.7393)
(-39.5491 0 22.1473)
(-35.3865 0 19.8394)
(-32.3341 0 18.2142)
(-29.9686 0 16.9732)
(-28.8402 4.84361e-17 16.4426)
(-28.1382 0 16.1282)
(-28.3768 0 16.3241)
(-28.6384 0 16.5278)
(-29.4817 -6.28241e-17 17.0152)
(-30.2073 0 17.4827)
(-31.2388 -5.3342e-17 18.0378)
(-32.292 0 18.7115)
(-33.2809 1.87764e-20 19.2147)
(-34.7779 0 20.1541)
(-35.367 -4.01499e-17 20.4077)
(-37.4308 0 21.6927)
(-37.7757 0 21.7256)
(-38.2583 0 22.2347)
(-42.3627 -6.25522e-17 24.3946)
(-37.7517 1.17248e-16 21.7692)
(-44.4756 1.10701e-16 26.2477)
(-47.9345 5.19022e-17 27.7812)
(-36.413 0 -14.8967)
(-36.1215 4.09602e-19 -12.8814)
(-36.4225 0 -10.6705)
(-36.0467 0 -8.18218)
(-34.1592 3.63195e-19 -5.664)
(-30.6881 3.51106e-19 -3.50065)
(-25.9639 -3.40417e-19 -1.91398)
(-20.4724 9.79875e-19 -0.958701)
(-14.7821 0 -0.562065)
(-9.43812 -5.42055e-22 -0.563315)
(-4.85045 -2.93802e-19 -0.771705)
(-1.24781 0 -1.02439)
(1.32195 0 -1.21399)
(2.93779 0 -1.29233)
(3.74654 0 -1.25112)
(3.92831 -2.90827e-21 -1.10462)
(3.64974 -3.80043e-21 -0.892139)
(3.08577 -4.30762e-19 -0.6231)
(2.34844 -4.05939e-19 -0.410272)
(1.56526 0 -0.174652)
(0.841401 7.32193e-19 -0.0613349)
(0.259985 7.03964e-19 -0.0100636)
(-0.122644 0 -0.137303)
(-0.234693 6.3633e-21 -0.370768)
(-0.0511244 -6.36231e-21 -0.816466)
(0.488737 5.73076e-19 -1.38848)
(1.34218 0 -2.21201)
(2.61939 0 -3.16376)
(4.22834 -1.12538e-18 -4.33519)
(6.15923 -5.70074e-21 -5.66656)
(8.49568 -2.15268e-18 -7.20517)
(11.1483 0 -8.92681)
(14.1437 -2.04395e-18 -10.8244)
(17.4255 0 -12.8499)
(20.9629 0 -14.9217)
(24.6051 1.01886e-18 -16.8958)
(28.1065 0 -18.67)
(31.3313 2.09814e-18 -20.2892)
(34.2176 -1.73953e-20 -21.4147)
(36.3122 -2.21292e-18 -22.2188)
(37.949 0 -22.9256)
(39.1301 -1.90368e-20 -23.3924)
(39.7927 0 -23.4908)
(39.4619 0 -22.4589)
(36.8776 0 -19.0943)
(29.4876 0 -11.207)
(14.5369 0 3.87382)
(-15.4788 -8.61898e-18 29.882)
(-60.6467 0 71.9604)
(-124.498 0 114.86)
(-199.024 9.41435e-18 159.245)
(-269.686 0 187.511)
(-305.378 6.9356e-18 182.092)
(-286.808 5.23923e-18 140.471)
(-206.994 -7.23084e-18 63.9288)
(-54.6108 0 -42.0751)
(152.392 5.97829e-18 -166.136)
(377.917 -2.96581e-18 -323.117)
(605.184 0 -434.533)
(762.717 0 -494.044)
(816.601 0 -479.875)
(712.285 1.36409e-17 -352.165)
(415.709 0 -108.959)
(20.3151 0 155.812)
(-352.754 -1.44164e-17 330.395)
(-561.51 2.26341e-17 373.562)
(-545.026 0 280.295)
(-404.003 0 170.958)
(-266.362 0 108.828)
(-210.495 0 110.344)
(-229.585 1.60672e-17 141.321)
(-259.716 -2.73413e-17 152.695)
(-242.639 0 127.662)
(-173.116 0 77.3415)
(-81.8543 2.2832e-17 25.1048)
(0.883964 0 -18.1151)
(66.7541 1.18803e-17 -52.7572)
(110.913 -1.18053e-17 -71.6866)
(117.447 0 -66.1455)
(84.7424 0 -39.0913)
(32.3263 0 -6.52389)
(-17.4185 0 18.6911)
(-45.3173 0 30.1926)
(-48.7813 -3.55783e-17 27.6069)
(-37.1528 0 18.0191)
(-20.401 -7.28004e-17 7.81372)
(-6.96249 0 2.87378)
(-3.85344 -3.54051e-20 1.87)
(-9.74374 -2.3282e-19 6.79764)
(-21.3282 0 15.9305)
(-36.303 -1.08842e-16 23.8281)
(-49.7008 0 31.0548)
(-59.7508 0 36.0775)
(-65.0857 1.64387e-16 38.3289)
(-66.18 0 38.1249)
(-63.5662 0 36.0466)
(-59.0243 0 33.1139)
(-53.4787 0 29.8212)
(-48.3507 0 26.942)
(-43.7014 0 24.4011)
(-40.3813 0 22.6802)
(-37.7725 0 21.3528)
(-36.6438 -4.52511e-17 20.8704)
(-35.867 0 20.5508)
(-36.2835 0 20.8717)
(-36.532 0 21.0895)
(-37.649 5.86159e-17 21.7359)
(-38.3611 5.39907e-17 22.215)
(-39.7123 4.97693e-17 22.9427)
(-40.7504 -4.62716e-17 23.6293)
(-42.0402 1.78293e-20 24.2879)
(-43.5903 4.02917e-17 25.2784)
(-44.3298 7.49602e-17 25.5985)
(-46.627 0 27.0447)
(-46.9244 -6.56823e-17 26.992)
(-47.6019 -6.1872e-17 27.7073)
(-51.8757 0 29.86)
(-46.8454 -5.47163e-17 27.0194)
(-53.9926 -5.16598e-17 31.9189)
(-56.5253 -4.84434e-17 32.7142)
(-34.7911 0 -15.2963)
(-34.4991 -1.99487e-19 -13.5628)
(-34.8089 0 -11.6431)
(-34.9857 0 -9.51057)
(-34.4217 -3.42021e-19 -7.26528)
(-32.8347 -3.30562e-19 -5.10154)
(-30.1506 3.2043e-19 -3.19237)
(-26.467 -9.31137e-19 -1.67345)
(-22.0363 0 -0.611487)
(-17.2265 -2.9332e-19 0.0167428)
(-12.4545 5.59517e-19 0.302239)
(-8.11435 0 0.36817)
(-4.5007 -5.22591e-19 0.33744)
(-1.77513 0 0.30618)
(0.0309585 -4.80407e-19 0.335426)
(0.993188 -4.56612e-19 0.456037)
(1.24317 -4.34102e-19 0.655893)
(0.951574 4.05438e-19 0.940768)
(0.278111 7.59591e-19 1.21607)
(-0.622948 0 1.52213)
(-1.59928 -6.89165e-19 1.74237)
(-2.52629 0 1.89836)
(-3.2993 0 1.8869)
(-3.8195 5.88226e-19 1.74814)
(-4.02368 -1.12697e-18 1.38672)
(-3.83705 0 0.861748)
(-3.25502 0 0.0789721)
(-2.19469 0 -0.860909)
(-0.750665 1.03828e-18 -2.15267)
(1.16095 -1.01717e-18 -3.53915)
(3.51717 1.15333e-20 -5.20161)
(6.26904 -9.76203e-19 -7.06387)
(9.42631 1.90994e-18 -9.11759)
(12.9085 -9.42479e-19 -11.3086)
(16.6822 9.33687e-19 -13.5337)
(20.5829 -6.6389e-21 -15.6267)
(24.3481 0 -17.4462)
(27.8213 -1.97323e-18 -19.1122)
(30.974 -2.00072e-18 -20.166)
(33.1965 2.08088e-18 -20.8575)
(34.818 0 -21.4139)
(35.7975 -2.24015e-18 -21.6154)
(36.0289 -2.34019e-18 -21.2835)
(35.0204 -2.49539e-18 -19.4868)
(31.4967 -2.66962e-18 -14.8858)
(22.9592 0 -5.10663)
(6.80282 0 12.6454)
(-23.922 9.50615e-20 41.5723)
(-69.3299 0 87.2819)
(-133.501 0 132.413)
(-207.82 8.85601e-18 177.035)
(-279.283 -7.9722e-18 202.256)
(-316.132 -6.51385e-18 189.593)
(-295.787 8.32638e-20 137.177)
(-209.081 -8.21345e-20 44.5915)
(-40.5462 0 -77.26)
(181.118 0 -222.786)
(426.426 6.81764e-18 -388.181)
(672.269 0 -491.547)
(823.44 0 -546.021)
(861.844 -1.80642e-17 -501.661)
(727.564 0 -335.039)
(399.548 0 -55.4137)
(-10.8514 -4.75955e-18 228.266)
(-382.545 1.32326e-17 381.574)
(-578.551 -1.65778e-17 394.752)
(-557.196 0 283.7)
(-422.487 5.28868e-18 165.557)
(-286.653 0 109.54)
(-228.535 0 118.215)
(-244.938 -3.01463e-17 152.72)
(-277.327 0 163.731)
(-264.361 0 135.738)
(-192.46 0 81.2076)
(-91.8756 0 22.7144)
(2.19267 0 -25.5887)
(75.8493 -1.11244e-17 -62.7884)
(122.176 3.41907e-21 -80.2371)
(125.742 1.2089e-17 -69.7465)
(87.5946 -1.37867e-17 -37.1097)
(30.0589 0 -1.11395)
(-22.8651 0 24.6242)
(-51.8702 0 35.1572)
(-55.3637 0 31.0613)
(-43.2225 0 20.4437)
(-26.1331 1.31046e-21 10.0557)
(-13.4896 0 5.34876)
(-11.2663 4.07339e-17 6.16417)
(-18.5712 -9.39587e-19 12.2628)
(-32.1361 0 21.3867)
(-47.5932 1.01765e-16 31.1404)
(-61.7755 0 38.7008)
(-72.1444 -8.79639e-17 43.6373)
(-77.3785 -4.76912e-20 45.536)
(-78.0691 0 44.8543)
(-74.84 0 42.2538)
(-69.6556 0 38.8736)
(-63.4591 0 35.1946)
(-57.83 -7.29306e-17 32.065)
(-52.7128 0 29.3089)
(-49.1476 0 27.5132)
(-46.274 -4.77727e-17 26.0942)
(-45.1449 0 25.6645)
(-44.235 3.73892e-17 25.3112)
(-44.8222 -3.34512e-17 25.7523)
(-44.9695 0 25.9377)
(-46.3614 -1.09447e-16 26.7382)
(-46.9432 -2.53421e-20 27.1662)
(-48.6275 -9.29218e-17 28.0647)
(-49.5029 4.32043e-17 28.687)
(-51.11 4.02044e-17 29.4998)
(-52.5441 -3.76175e-17 30.4499)
(-53.4342 -3.49842e-17 30.8279)
(-55.7906 -3.27749e-17 32.3391)
(-55.987 6.13155e-17 32.1628)
(-56.7808 5.77564e-17 33.0378)
(-60.9122 5.44553e-17 35.0027)
(-55.6822 5.104e-17 32.0649)
(-62.8057 0 37.145)
(-64.1079 0 37.0206)
(-33.2483 0 -15.6282)
(-32.9641 -2.07961e-19 -14.09)
(-33.2112 0 -12.3763)
(-33.5168 0 -10.5099)
(-33.485 0 -8.53424)
(-32.9064 0 -6.51856)
(-31.642 -3.18692e-19 -4.56437)
(-29.605 2.95635e-19 -2.78802)
(-26.785 -2.89799e-19 -1.28656)
(-23.2892 5.45281e-19 -0.109868)
(-19.3434 -5.25938e-19 0.741614)
(-15.2559 0 1.31052)
(-11.3582 4.91192e-19 1.67065)
(-7.95165 0 1.90708)
(-5.26084 4.51561e-19 2.09767)
(-3.40374 4.25212e-19 2.30865)
(-2.39299 0 2.5647)
(-2.1514 0 2.90126)
(-2.54186 -3.54896e-19 3.26001)
(-3.40655 0 3.66201)
(-4.56245 0 4.01842)
(-5.84006 6.00476e-19 4.32394)
(-7.08064 0 4.48433)
(-8.14311 0 4.50768)
(-8.91338 5.26769e-19 4.30569)
(-9.28473 0 3.91023)
(-9.20896 0 3.23477)
(-8.60233 0 2.35185)
(-7.48909 -1.94111e-18 1.12348)
(-5.8433 0 -0.289388)
(-3.65283 1.10374e-20 -2.00842)
(-0.96461 9.04525e-21 -3.94669)
(2.19549 -8.94464e-19 -6.11826)
(5.75346 8.85655e-19 -8.41499)
(9.66605 -1.75032e-18 -10.7444)
(13.7603 -8.94217e-19 -12.9125)
(17.7459 0 -14.7388)
(21.4497 0 -16.4577)
(24.9123 -1.84119e-18 -17.4186)
(27.3099 1.91312e-18 -17.9729)
(28.9627 0 -18.3516)
(29.7751 0 -18.2464)
(29.6128 2.67406e-20 -17.4464)
(28.0167 2.34352e-18 -14.8686)
(23.8043 2.50697e-18 -9.11041)
(14.6895 5.44645e-18 2.31247)
(-1.60534 0 22.1643)
(-31.1109 1.54654e-19 53.0405)
(-74.6885 0 100.795)
(-136.586 0 147.191)
(-208.348 -8.31277e-18 190.987)
(-279.613 7.48238e-18 212.652)
(-318.382 0 192.517)
(-298.551 -4.69391e-18 129.283)
(-208.046 -8.50309e-20 21.2664)
(-29.8124 0 -116.46)
(209.149 0 -268.297)
(469.599 -8.82351e-18 -439.53)
(715.011 0 -550.706)
(862.74 0 -582.556)
(884.091 3.34281e-17 -507.115)
(724.578 0 -302.42)
(376.234 0 7.94689)
(-36.1573 8.79032e-18 301.41)
(-398.305 -1.24038e-17 426.031)
(-581.741 6.69878e-18 408.044)
(-563.786 0 275.894)
(-434.627 -4.95393e-18 156.064)
(-300.331 0 105.529)
(-237.456 1.51729e-17 120.302)
(-249.788 1.41326e-17 158.316)
(-285.705 0 170.052)
(-280.482 0 140.752)
(-210.809 -2.73565e-17 83.4378)
(-102.962 -1.99315e-17 19.4251)
(2.02148 0 -33.5693)
(83.1549 0 -72.5429)
(131.044 2.06784e-17 -87.5159)
(131.475 -1.1313e-17 -71.4745)
(88.5524 2.57258e-17 -33.3902)
(27.0168 0 5.32667)
(-28.2546 0 30.8974)
(-58.2613 0 40.0534)
(-62.0542 0 34.5674)
(-49.9536 0 23.158)
(-33.2146 1.44289e-20 12.9547)
(-21.966 0 7.77568)
(-19.9581 0 11.2429)
(-28.2766 -9.01024e-19 19.1627)
(-42.8913 0 29.5348)
(-59.7214 9.55882e-17 39.0889)
(-74.4717 0 46.7581)
(-85.078 8.22083e-17 51.513)
(-90.2126 -4.30347e-20 53.0279)
(-90.5597 0 51.8729)
(-86.7909 0 48.7759)
(-81.0342 0 44.9839)
(-74.2176 0 40.9412)
(-68.103 2.8738e-20 37.5805)
(-62.4854 -5.87745e-17 34.6039)
(-58.6507 5.10867e-17 32.7325)
(-55.4367 4.46191e-17 31.1918)
(-54.2659 0 30.8007)
(-53.1156 -3.4917e-17 30.3618)
(-53.8338 3.12378e-17 30.9043)
(-53.7459 0 30.9874)
(-55.3875 5.10829e-17 31.9272)
(-55.6744 -9.40751e-17 32.2165)
(-57.6815 4.33676e-17 33.2775)
(-58.1967 0 33.7272)
(-60.1148 -3.74993e-17 34.6893)
(-61.2097 0 35.4731)
(-62.2328 0 35.8996)
(-64.4159 3.05945e-17 37.3441)
(-64.4383 0 36.9966)
(-65.232 0 37.9778)
(-68.8474 -5.08279e-17 39.5236)
(-63.6635 -4.76387e-17 36.6339)
(-70.2394 -4.49612e-17 41.5704)
(-70.1929 4.21755e-17 40.4276)
(-31.7273 0 -15.8855)
(-31.4597 1.95468e-19 -14.5145)
(-31.7014 3.85533e-19 -12.9927)
(-32.0392 0 -11.3322)
(-32.1595 0 -9.56062)
(-31.9807 0 -7.70872)
(-31.456 2.99486e-19 -5.83571)
(-30.4881 0 -4.01234)
(-28.9654 2.72265e-19 -2.3108)
(-26.8338 0 -0.792849)
(-24.1335 0 0.50177)
(-20.9979 -4.93105e-19 1.56188)
(-17.6351 0 2.40419)
(-14.3047 -4.48971e-19 3.0693)
(-11.2812 4.26609e-19 3.60837)
(-8.81172 -3.99288e-19 4.08469)
(-7.0748 0 4.5382)
(-6.16078 3.52337e-19 5.02621)
(-6.05516 0 5.53401)
(-6.67054 6.22944e-19 6.08514)
(-7.84771 0 6.62388)
(-9.40019 -5.63941e-19 7.13475)
(-11.1263 5.3168e-19 7.53282)
(-12.834 0 7.79979)
(-14.3476 0 7.84997)