/*--------------------------------*- C++ -*----------------------------------*\
| =========                 |                                                 |
| \\      /  F ield         | OpenFOAM: The Open Source CFD Toolbox           |
|  \\    /   O peration     | Version:  2412                                  |
|   \\  /    A nd           | Website:  www.openfoam.com                      |
|    \\/     M anipulation  |                                                 |
\*---------------------------------------------------------------------------*/
FoamFile
{
    version     2.0;
    format      ascii;
    arch        "LSB;label=32;scalar=64";
    class       volVectorField;
    location    "0.01";
    object      ddt0(U);
}
// * * * * * * * * * * * * * * * * * * * * * * * * * * * * * * * * * * * * * //

dimensions      [0 1 -2 0 0 0 0];

internalField   nonuniform List<vector> 
12600
(
(-6.23518 0 6.67541)
(-8.82632 1.71933e-19 3.22898)
(-7.38305 1.63599e-19 3.12091)
(-6.31052 0 3.11742)
(-5.87475 -4.10413e-21 3.00818)
(-5.64616 0 2.89861)
(-5.49751 -2.2092e-19 2.81579)
(-5.39243 0 2.77066)
(-5.32209 0 2.75725)
(-5.27617 0 2.77306)
(-5.25922 0 2.80028)
(-5.27188 -4.55118e-19 2.83646)
(-5.31199 -4.53377e-19 2.88202)
(-5.37748 0 2.93741)
(-5.46792 8.99905e-19 3.00402)
(-5.58349 0 3.08311)
(-5.72373 5.99965e-22 3.17489)
(-5.8895 0 3.28081)
(-6.08244 4.32223e-19 3.40191)
(-6.3043 0 3.53911)
(-6.55769 0 3.69452)
(-6.84538 0 3.8701)
(-7.17133 1.55655e-18 4.06831)
(-7.53963 -1.50438e-18 4.29182)
(-7.95359 -5.19666e-22 4.54362)
(-8.41983 6.98607e-19 4.82854)
(-8.94362 0 5.14972)
(-9.53227 0 5.51286)
(-10.1985 0 5.92465)
(-10.9496 -1.15586e-18 6.38902)
(-11.8046 -2.1708e-18 6.91579)
(-12.7643 0 7.5019)
(-13.8614 0 8.16993)
(-15.186 -8.2467e-19 8.95626)
(-16.668 -7.32945e-19 9.80724)
(-18.2362 0 10.6697)
(-19.9 0 11.4921)
(-22.2402 -1.29129e-18 13.3019)
(-25.628 0 15.2122)
(-29.8242 -5.15489e-20 18.0298)
(-36.0433 2.10563e-18 22.129)
(-44.1529 2.96828e-18 26.5834)
(-51.9907 0 30.6915)
(-57.5561 3.27436e-18 33.4392)
(-59.9881 2.8819e-18 34.4588)
(-59.6574 -4.60342e-18 34.0421)
(-57.6581 3.34268e-18 32.8199)
(-55.1454 0 31.409)
(-52.9224 -1.51136e-18 30.215)
(-51.3494 9.70545e-19 29.4025)
(-50.4503 0 28.9609)
(-50.0765 -6.02104e-21 28.7969)
(-50.0427 -2.49748e-19 28.8063)
(-50.2012 0 28.9111)
(-50.4614 1.07273e-19 29.066)
(-50.7787 0 29.2499)
(-51.1364 0 29.455)
(-51.5299 2.90793e-21 29.6787)
(-51.9585 2.43068e-21 29.9191)
(-52.428 4.65324e-19 30.1718)
(-52.915 -5.347e-19 30.4701)
(-53.4322 1.18979e-18 30.7825)
(-53.9833 0 31.1091)
(-54.5675 1.37024e-18 31.452)
(-55.1845 1.43281e-18 31.8124)
(-55.8344 -2.9772e-18 32.1907)
(-56.5176 1.52893e-18 32.5877)
(-57.2348 0 33.0038)
(-57.9867 0 33.4396)
(-58.7742 0 33.8957)
(-59.5985 0 34.3728)
(-60.4606 0 34.8715)
(-61.3617 -3.21182e-18 35.3926)
(-62.3033 3.19617e-18 35.937)
(-63.2866 0 36.5054)
(-64.3134 0 37.0988)
(-65.385 3.08754e-18 37.718)
(-66.5034 -2.01394e-21 38.3641)
(-67.6702 5.95683e-18 39.0381)
(-68.8875 0 39.7412)
(-70.1571 0 40.4745)
(-71.4813 0 41.2392)
(-72.8623 -2.74785e-21 42.0367)
(-74.3023 0 42.8682)
(-75.8038 0 43.7352)
(-77.3695 4.9941e-18 44.6392)
(-79.002 -2.01101e-21 45.5818)
(-80.7041 0 46.5645)
(-82.4789 0 47.5892)
(-84.3295 -8.77532e-18 48.6575)
(-86.2591 -8.47449e-18 49.7716)
(-88.2714 -8.16736e-18 50.9332)
(-90.3698 -7.87901e-18 52.1447)
(-92.5584 -2.32677e-21 53.408)
(-94.8409 -2.16627e-21 54.7257)
(-97.2219 7.00953e-18 56.1002)
(-99.7057 0 57.534)
(-102.297 0 59.0299)
(-105.001 0 60.5908)
(-107.823 2.36975e-17 62.2197)
(-110.768 -1.13278e-17 63.9199)
(-113.843 1.08237e-17 65.6948)
(-117.053 1.03364e-17 67.5479)
(-120.406 0 69.4833)
(-123.908 0 71.505)
(-127.567 0 73.6173)
(-131.392 1.70628e-17 75.8249)
(-135.39 0 78.1329)
(-139.571 -1.54255e-17 80.5465)
(-143.945 0 83.0716)
(-148.523 0 85.7143)
(-153.317 1.3158e-17 88.4814)
(-158.338 0 91.3798)
(-163.602 0 94.4187)
(-169.118 0 97.6034)
(-174.92 -2.11241e-17 100.953)
(-180.988 0 104.456)
(-187.391 1.87936e-17 108.155)
(-194.338 0 112.163)
(-200.659 2.05285e-21 115.811)
(-11.249 -3.98122e-20 12.0036)
(-16.0547 -1.18446e-19 8.65206)
(-17.5598 -1.48777e-20 8.59404)
(-17.5329 0 8.93047)
(-17.1642 -2.11931e-19 9.02768)
(-16.8379 2.17224e-19 8.98707)
(-16.5678 2.30283e-19 8.96872)
(-16.3883 -2.31378e-19 8.97154)
(-16.3016 0 9.00676)
(-16.2947 0 9.08497)
(-16.368 0 9.19296)
(-16.5145 0 9.3301)
(-16.7326 0 9.49864)
(-17.0214 0 9.70127)
(-17.3837 -1.78294e-21 9.94134)
(-17.8229 0 10.2223)
(-18.3411 4.62268e-19 10.5467)
(-18.9434 0 10.918)
(-19.636 -8.97654e-19 11.3405)
(-20.4256 8.7741e-19 11.8185)
(-21.3228 0 12.3588)
(-22.3382 8.30881e-19 12.968)
(-23.486 -8.07901e-19 13.6549)
(-24.7819 7.80573e-19 14.4294)
(-26.2422 -7.52649e-19 15.3013)
(-27.8911 0 16.2872)
(-29.7498 6.95194e-19 17.3975)
(-31.8503 0 18.6543)
(-34.234 0 20.0819)
(-36.9392 0 21.6964)
(-40.0302 1.12364e-18 23.5385)
(-43.5287 0 25.6089)
(-47.5771 0 28.0038)
(-52.3937 0 30.835)
(-57.8317 0 33.9318)
(-63.7646 0 37.2381)
(-70.2781 0 40.7757)
(-79.8397 1.32802e-18 46.5137)
(-91.6364 0 54.6687)
(-107.454 -1.63805e-18 64.4387)
(-129.099 -4.15506e-18 77.8079)
(-154.109 -2.8731e-18 92.143)
(-176.81 0 104.51)
(-192.035 0 112.164)
(-197.874 -5.91697e-18 114.423)
(-195.866 4.70164e-18 112.496)
(-189.393 -3.52995e-18 108.42)
(-181.814 0 104.037)
(-175.364 1.60835e-18 100.484)
(-170.959 0 98.1589)
(-168.563 0 96.9635)
(-167.681 4.11237e-19 96.5841)
(-167.759 0 96.7028)
(-168.375 0 97.0927)
(-169.28 -1.09501e-19 97.6275)
(-170.356 0 98.2502)
(-171.559 0 98.9411)
(-172.876 5.62722e-21 99.6936)
(-174.307 3.82857e-19 100.504)
(-175.856 -3.86749e-21 101.365)
(-177.478 0 102.338)
(-179.202 -1.1843e-18 103.359)
(-181.033 -1.27818e-18 104.432)
(-182.967 0 105.56)
(-185.007 -2.84812e-18 106.745)
(-187.151 4.82227e-21 107.989)
(-189.402 0 109.294)
(-191.761 1.54638e-18 110.66)
(-194.232 0 112.089)
(-196.816 0 113.584)
(-199.517 0 115.146)
(-202.338 0 116.776)
(-205.283 6.31762e-18 118.479)
(-208.356 -3.13385e-18 120.254)
(-211.561 0 122.106)
(-214.902 0 124.036)
(-218.384 3.01507e-18 126.048)
(-222.012 -3.5831e-21 128.143)
(-225.791 -3.31902e-21 130.326)
(-229.726 0 132.598)
(-233.822 0 134.964)
(-238.086 0 137.427)
(-242.523 -4.80777e-21 139.989)
(-247.14 -5.12133e-18 142.655)
(-251.943 4.97681e-18 145.429)
(-256.938 -4.82441e-18 148.314)
(-262.133 -3.45757e-21 151.313)
(-267.534 -4.5171e-18 154.432)
(-273.148 0 157.674)
(-278.984 8.43322e-18 161.044)
(-285.048 0 164.546)
(-291.349 7.82983e-18 168.184)
(-297.893 0 171.964)
(-304.691 -1.44879e-17 175.889)
(-311.748 -6.97235e-18 179.964)
(-319.075 0 184.196)
(-326.679 0 188.587)
(-334.57 -1.22959e-17 193.144)
(-342.755 1.177e-17 197.87)
(-351.242 -2.25164e-17 202.772)
(-360.042 1.07571e-17 207.854)
(-369.161 -1.02693e-17 213.12)
(-378.607 0 218.576)
(-388.39 9.33399e-18 224.225)
(-398.515 0 230.073)
(-408.991 0 236.124)
(-419.823 -1.61158e-17 242.38)
(-431.017 0 248.846)
(-442.578 4.59858e-21 255.524)
(-454.509 1.37835e-17 262.416)
(-466.813 0 269.524)
(-479.491 0 276.848)
(-492.541 0 284.387)
(-505.963 1.11071e-17 292.142)
(-519.738 -2.10377e-17 300.101)
(-533.903 1.9857e-17 308.287)
(-548.344 0 316.632)
(-563.181 -1.76506e-17 325.215)
(-579.042 0 334.364)
(-592.22 3.11183e-17 341.774)
(-11.0182 8.95433e-20 16.36)
(-16.2253 -5.93286e-20 12.9262)
(-20.4474 -2.88694e-19 11.9216)
(-23.086 0 12.2323)
(-24.4423 -1.84959e-19 12.8569)
(-25.0639 -6.28386e-21 13.3731)
(-25.3376 0 13.7883)
(-25.5321 2.19495e-19 14.1365)
(-25.7373 0 14.44)
(-25.9977 2.20299e-19 14.724)
(-26.3294 0 15.017)
(-26.7415 0 15.3383)
(-27.2434 0 15.7004)
(-27.843 0 16.1128)
(-28.55 -4.42754e-19 16.5835)
(-29.3751 0 17.1192)
(-30.3267 0 17.7258)
(-31.4162 0 18.4108)
(-32.6564 4.25005e-19 19.1828)
(-34.0617 -4.53573e-21 20.0508)
(-35.6515 0 21.0277)
(-37.4462 -4.00905e-21 22.1256)
(-39.472 0 23.3612)
(-41.7582 -7.35654e-19 24.7526)
(-44.3365 0 26.3179)
(-47.2511 0 28.0874)
(-50.5424 -6.59237e-19 30.0812)
(-54.2719 0 32.3414)
(-58.5108 0 34.9132)
(-63.3361 -1.1433e-18 37.8317)
(-68.8619 0 41.1783)
(-75.1423 0 44.9716)
(-82.429 0 49.4042)
(-91.0436 0 54.6374)
(-100.849 7.50975e-19 60.3919)
(-111.707 0 66.753)
(-124.023 0 74.0815)
(-141.737 -2.7859e-18 84.2997)
(-162.418 0 99.8801)
(-190.6 1.42893e-18 117.618)
(-227.294 8.12419e-20 140.28)
(-267.878 2.72041e-18 163.472)
(-303.923 0 182.029)
(-327.702 0 192.379)
(-336.538 2.81167e-18 194.278)
(-333.033 0 190.133)
(-322.578 3.34034e-18 183.251)
(-310.481 0 176.379)
(-300.254 3.58993e-20 171.072)
(-293.319 0 167.764)
(-289.583 0 166.183)
(-288.249 0 165.798)
(-288.429 2.5687e-19 166.12)
(-289.461 0 166.822)
(-290.953 0 167.731)
(-292.723 0 168.774)
(-294.7 0 169.925)
(-296.863 5.28674e-19 171.179)
(-299.207 0 172.53)
(-301.728 -4.04858e-21 173.979)
(-304.397 0 175.551)
(-307.226 5.56197e-19 177.21)
(-310.219 1.20399e-18 178.957)
(-313.376 0 180.794)
(-316.696 2.67232e-18 182.722)
(-320.18 1.38803e-18 184.743)
(-323.829 0 186.858)
(-327.646 -1.45553e-18 189.068)
(-331.633 0 191.376)
(-335.793 0 193.783)
(-340.13 0 196.291)
(-344.649 0 198.904)
(-349.352 -4.42287e-21 201.622)
(-354.244 2.94614e-18 204.45)
(-359.329 0 207.389)
(-364.612 0 210.442)
(-370.098 -3.31497e-21 213.612)
(-375.792 -5.56447e-18 216.901)
(-381.697 -2.7248e-18 220.313)
(-387.82 0 223.849)
(-394.164 0 227.514)
(-400.734 0 231.309)
(-407.535 -9.89904e-18 235.237)
(-414.57 3.74777e-21 239.301)
(-421.844 -4.66779e-18 243.503)
(-429.36 0 247.844)
(-437.122 -4.3764e-18 252.327)
(-445.131 4.23411e-18 256.953)
(-453.39 0 261.723)
(-461.901 0 266.639)
(-470.663 7.6089e-18 271.7)
(-479.676 0 276.906)
(-488.938 7.05576e-18 282.256)
(-498.447 3.24057e-21 287.748)
(-508.197 6.52096e-18 293.38)
(-518.183 -6.25373e-18 299.148)
(-528.395 0 305.048)
(-538.825 1.15059e-17 311.073)
(-549.458 -1.10122e-17 317.216)
(-560.279 2.10542e-17 323.468)
(-571.269 0 329.817)
(-582.405 -9.59621e-18 336.252)
(-593.661 0 342.756)
(-605.006 -8.72726e-18 349.312)
(-616.402 8.31317e-18 355.898)
(-627.81 0 362.492)
(-639.181 1.50632e-17 369.064)
(-650.46 0 375.585)
(-661.585 2.71946e-17 382.017)
(-672.487 -1.28794e-17 388.321)
(-683.085 0 394.451)
(-693.292 0 400.356)
(-703.006 0 405.978)
(-712.126 -2.86608e-21 411.258)
(-720.506 1.965e-17 416.112)
(-728.085 -1.85367e-17 420.504)
(-734.565 0 424.263)
(-739.97 -1.6477e-17 427.43)
(-745.411 0 430.523)
(-742.859 1.5334e-21 428.637)
(-10.7112 -4.90523e-20 18.6353)
(-14.2327 -5.75816e-21 16.0796)
(-18.5233 1.3386e-19 14.6039)
(-22.6004 -1.49484e-19 14.454)
(-25.9191 -1.5859e-19 15.0734)
(-28.348 -3.7073e-19 15.9477)
(-30.0634 0 16.795)
(-31.3179 0 17.5881)
(-32.3365 0 18.3199)
(-33.2371 -2.08598e-19 19.0084)
(-34.1059 0 19.6621)
(-34.998 0 20.3096)
(-35.9524 0 20.9785)
(-36.9963 0 21.693)
(-38.1548 0 22.4716)
(-39.4513 -4.1219e-19 23.3281)
(-40.9051 4.09083e-19 24.275)
(-42.5376 0 25.3252)
(-44.3711 0 26.4937)
(-46.4293 -7.83911e-19 27.7959)
(-48.7427 7.59406e-19 29.2519)
(-51.3428 -7.42461e-19 30.8811)
(-54.2696 7.16197e-19 32.7092)
(-57.5671 6.96422e-19 34.7642)
(-61.2843 -6.70348e-19 37.0737)
(-65.4869 6.46685e-19 39.6846)
(-70.2361 0 42.6278)
(-75.6252 -5.97725e-19 45.9688)
(-81.7565 0 49.7759)
(-88.7507 1.08182e-18 54.105)
(-96.7803 0 59.0811)
(-105.94 0 64.7451)
(-116.581 0 71.3812)
(-129.126 -8.00835e-19 79.1887)
(-143.539 -7.1019e-19 87.7963)
(-159.722 0 97.4913)
(-178.437 0 109.046)
(-204.296 2.63396e-18 124.711)
(-234.507 0 147.091)
(-274.582 -3.69433e-20 173.053)
(-324.67 1.70827e-18 204.775)
(-379.038 0 235.623)
(-426.898 0 258.967)
(-458.573 0 270.889)
(-470.681 0 271.853)
(-466.521 4.39863e-18 265.447)
(-453.042 0 256.049)
(-437.186 -2.28297e-18 247.085)
(-423.638 -1.47157e-18 240.372)
(-414.355 0 236.312)
(-409.279 0 234.456)
(-407.384 0 234.081)
(-407.511 -2.42925e-19 234.563)
(-408.78 1.44178e-19 235.498)
(-410.672 1.22776e-19 236.684)
(-412.936 0 238.037)
(-415.475 -1.36872e-19 239.531)
(-418.257 -4.86832e-19 241.158)
(-421.269 0 242.912)
(-424.504 -8.07619e-19 244.792)
(-427.935 0 246.804)
(-431.565 -5.16869e-19 248.929)
(-435.394 -1.12124e-18 251.165)
(-439.422 0 253.511)
(-443.646 -1.25456e-18 255.967)
(-448.064 -1.29709e-18 258.532)
(-452.676 0 261.207)
(-457.481 0 263.992)
(-462.481 0 266.888)
(-467.676 1.39226e-18 269.895)
(-473.066 1.39521e-18 273.015)
(-478.652 0 276.247)
(-484.436 -2.78373e-18 279.592)
(-490.417 -2.75887e-18 283.051)
(-496.596 0 286.623)
(-502.973 0 290.31)
(-509.548 -2.65582e-18 294.11)
(-516.319 3.17777e-21 298.023)
(-523.284 0 302.049)
(-530.442 0 306.185)
(-537.789 0 310.431)
(-545.32 0 314.783)
(-553.03 4.27532e-21 319.238)
(-560.911 4.50034e-18 323.792)
(-568.956 0 328.44)
(-577.153 0 333.176)
(-585.491 0 337.994)
(-593.955 3.96124e-18 342.885)
(-602.529 0 347.839)
(-611.192 7.38643e-18 352.845)
(-619.923 -7.12459e-18 357.89)
(-628.696 6.85437e-18 362.959)
(-637.481 -6.60463e-18 368.036)
(-646.245 1.26833e-17 373.102)
(-654.951 -6.10225e-18 378.134)
(-663.557 5.85136e-18 383.108)
(-672.015 0 387.998)
(-680.273 0 392.772)
(-688.273 -1.02898e-17 397.398)
(-695.949 -9.8426e-18 401.837)
(-703.231 -9.39565e-18 406.049)
(-710.04 4.26462e-21 409.988)
(-716.291 0 413.606)
(-721.891 0 416.848)
(-726.74 -7.77006e-18 419.657)
(-730.73 0 421.971)
(-733.745 -1.40661e-17 423.722)
(-735.663 0 424.84)
(-736.355 -5.04694e-21 425.25)
(-735.689 0 424.876)
(-733.525 -1.14241e-17 423.638)
(-729.725 1.08046e-17 421.455)
(-724.148 1.02478e-17 418.245)
(-716.669 -3.59432e-21 413.936)
(-707.131 0 408.439)
(-695.515 1.7311e-17 401.741)
(-681.529 1.63552e-17 393.668)
(-665.323 1.53858e-17 384.373)
(-648.657 0 374.565)
(-619.135 2.40134e-21 357.28)
(-11.0542 0 19.7251)
(-12.8618 -5.97755e-21 18.1783)
(-15.7433 0 16.7859)
(-19.4115 1.41393e-19 16.1829)
(-23.287 3.15566e-19 16.404)
(-26.8704 1.71733e-19 17.1794)
(-29.956 0 18.2137)
(-32.553 0 19.3323)
(-34.7553 -1.86665e-19 20.4638)
(-36.6771 -1.89545e-19 21.5875)
(-38.4239 1.91255e-19 22.6953)
(-40.0797 3.8445e-19 23.7842)
(-41.7176 3.85819e-19 24.8705)
(-43.3925 0 25.9826)
(-45.1516 0 27.1494)
(-47.0368 7.75534e-19 28.3942)
(-49.0833 -3.49243e-21 29.7381)
(-51.326 0 31.2017)
(-53.8002 -3.72844e-19 32.8073)
(-56.5414 -7.30295e-19 34.5777)
(-59.5931 -7.17767e-19 36.5416)
(-62.9992 0 38.7263)
(-66.8149 -6.76868e-19 41.1674)
(-71.1002 6.52218e-19 43.9039)
(-75.9213 6.33468e-19 46.9732)
(-81.367 -1.72988e-21 50.4404)
(-87.519 0 54.3476)
(-94.503 1.71058e-22 58.7843)
(-102.452 0 63.8445)
(-111.529 1.02857e-18 69.6032)
(-121.97 0 76.2351)
(-133.912 0 83.8029)
(-147.778 0 92.6725)
(-164.091 7.56244e-19 103.101)
(-182.988 0 114.637)
(-204.426 0 127.829)
(-229.426 0 143.851)
(-262.939 0 164.975)
(-301.707 -6.97122e-19 194.338)
(-352.341 -1.14432e-18 227.874)
(-413.548 0 267.374)
(-479.503 -2.24138e-18 304.355)
(-537.915 0 331.06)
(-577.553 0 343.638)
(-594.09 0 343.418)
(-590.886 6.63018e-20 335.032)
(-575.816 0 323.644)
(-557.12 2.15356e-18 313.101)
(-540.618 0 305.342)
(-528.955 0 300.703)
(-522.288 5.98228e-19 298.593)
(-519.499 0 298.151)
(-519.221 0 298.656)
(-520.376 4.86746e-21 299.657)
(-522.313 -1.16496e-19 300.935)
(-524.708 0 302.399)
(-527.429 6.09157e-21 304.022)
(-530.425 4.4676e-19 305.793)
(-533.676 0 307.703)
(-537.166 3.77493e-19 309.745)
(-540.866 0 311.921)
(-544.77 4.85772e-19 314.215)
(-548.877 1.05375e-18 316.62)
(-553.179 0 319.132)
(-557.669 1.16923e-18 321.748)
(-562.341 4.47996e-21 324.466)
(-567.19 0 327.283)
(-572.208 0 330.196)
(-577.392 0 333.203)
(-582.735 -2.61164e-18 336.3)
(-588.231 -2.82851e-21 339.484)
(-593.874 0 342.752)
(-599.657 2.6037e-18 346.1)
(-605.571 5.17369e-18 349.523)
(-611.608 0 353.015)
(-617.756 0 356.572)
(-624.005 0 360.187)
(-630.341 3.24688e-21 363.851)
(-636.748 0 367.557)
(-643.211 0 371.294)
(-649.709 0 375.052)
(-656.223 0 378.818)
(-662.726 4.34295e-18 382.578)
(-669.193 4.20873e-18 386.317)
(-675.593 0 390.018)
(-681.892 0 393.661)
(-688.055 0 397.224)
(-694.04 -2.92096e-21 400.685)
(-699.801 0 404.018)
(-705.29 -6.91428e-18 407.193)
(-710.452 0 410.179)
(-715.228 -6.41447e-18 412.943)
(-719.554 0 415.447)
(-723.36 -5.93143e-18 417.652)
(-726.573 0 419.513)
(-729.112 0 420.986)
(-730.892 0 422.021)
(-731.822 0 422.565)
(-731.808 9.62123e-18 422.564)
(-730.75 0 421.961)
(-728.545 8.78337e-18 420.695)
(-725.089 8.38261e-18 418.707)
(-720.274 0 415.934)
(-713.994 0 412.315)
(-706.147 0 407.79)
(-696.631 0 402.302)
(-685.356 6.24185e-21 395.796)
(-672.24 0 388.227)
(-657.216 -2.37181e-17 379.556)
(-640.238 0 369.754)
(-621.279 2.1337e-17 358.808)
(-600.344 -1.00915e-17 346.719)
(-577.467 -9.57087e-18 333.506)
(-552.733 -9.04383e-18 319.219)
(-526.223 0 303.907)
(-498.209 0 287.724)
(-468.656 -3.05376e-17 270.644)
(-438.153 1.43577e-17 253.118)
(-408.438 1.34942e-17 235.588)
(-367.868 -1.26715e-17 212.448)
(-11.517 0 20.4155)
(-12.5394 1.27468e-19 19.5008)
(-14.0762 0 18.459)
(-16.5005 0 17.694)
(-19.6306 0 17.5116)
(-23.0855 0 17.9164)
(-26.5581 0 18.7614)
(-29.8826 1.65862e-19 19.889)
(-32.9911 1.76213e-19 21.1845)
(-35.8798 3.52909e-19 22.5659)
(-38.5732 -3.56671e-19 24.0086)
(-41.132 -3.62882e-19 25.4894)
(-43.6066 -3.64167e-19 27.0057)
(-46.0586 0 28.5561)
(-48.5463 0 30.1595)
(-51.1266 -7.23506e-19 31.8377)
(-53.8486 -7.1879e-19 33.6179)
(-56.7606 0 35.5269)
(-59.9115 3.51879e-19 37.5944)
(-63.3485 6.89211e-19 39.8504)
(-67.1288 0 42.3321)
(-71.3092 6.48192e-19 45.0745)
(-75.9594 0 48.1227)
(-81.1564 -4.21676e-21 51.5277)
(-86.9814 -5.92006e-19 55.3352)
(-93.547 -2.49084e-21 59.6297)
(-100.953 0 64.4633)
(-109.354 5.32605e-19 69.948)
(-118.913 -1.01905e-18 76.2066)
(-129.824 -1.94226e-18 83.3267)
(-142.389 -9.19773e-19 91.5396)
(-156.785 0 100.924)
(-173.473 -8.02232e-19 111.908)
(-193.056 0 124.838)
(-215.908 0 139.181)
(-242.035 0 155.754)
(-272.525 0 176.049)
(-312.393 0 202.303)
(-358.132 -1.63656e-20 237.873)
(-416.922 5.29888e-19 277.781)
(-486.084 0 323.433)
(-560.827 4.15802e-18 364.866)
(-628.322 0 393.622)
(-676.197 0 406.226)
(-698.842 0 404.901)
(-698.855 -3.97187e-18 395.089)
(-684.206 0 382.407)
(-663.942 0 370.854)
(-644.959 0 362.371)
(-630.798 0 357.237)
(-622.11 -1.14299e-18 354.788)
(-617.89 0 354.094)
(-616.661 0 354.388)
(-617.175 -1.33198e-19 355.197)
(-618.637 0 356.289)
(-620.634 0 357.573)
(-622.984 2.22253e-19 359.015)
(-625.614 -2.07026e-19 360.6)
(-628.49 0 362.315)
(-631.583 0 364.146)
(-634.859 0 366.091)
(-638.305 -4.49391e-19 368.133)
(-641.91 0 370.259)
(-645.66 0 372.463)
(-649.541 -2.19041e-18 374.736)
(-653.539 2.27518e-18 377.072)
(-657.638 0 379.463)
(-661.825 0 381.902)
(-666.085 0 384.38)
(-670.402 1.22381e-18 386.89)
(-674.76 -1.22634e-18 389.421)
(-679.141 -2.44686e-18 391.964)
(-683.526 -2.4421e-18 394.508)
(-687.894 -2.42387e-18 397.042)
(-692.222 2.39449e-18 399.551)
(-696.485 0 402.022)
(-700.656 0 404.439)
(-704.705 2.28805e-18 406.786)
(-708.6 0 409.043)
(-712.306 0 411.19)
(-715.784 0 413.206)
(-718.992 0 415.066)
(-721.886 0 416.743)
(-724.416 -7.87849e-18 418.211)
(-726.53 0 419.439)
(-728.172 -3.70228e-18 420.393)
(-729.281 0 421.04)
(-729.794 -3.02238e-21 421.343)
(-729.642 6.69213e-18 421.262)
(-728.753 0 420.755)
(-727.054 0 419.78)
(-724.467 0 418.292)
(-720.91 0 416.245)
(-716.301 5.5402e-18 413.589)
(-710.558 0 410.279)
(-703.598 0 406.265)
(-695.338 0 401.501)
(-685.701 0 395.941)
(-674.614 0 389.543)
(-662.009 0 382.268)
(-647.829 0 374.083)
(-632.03 0 364.963)
(-614.582 -7.46202e-18 354.889)
(-595.474 0 343.855)
(-574.715 0 331.867)
(-552.343 0 318.946)
(-528.42 1.22716e-17 305.129)
(-503.042 0 290.469)
(-476.336 1.10745e-17 275.042)
(-448.468 0 258.942)
(-419.635 -4.51328e-21 242.285)
(-390.072 0 225.205)
(-360.04 8.93016e-18 207.855)
(-329.845 0 190.41)
(-299.756 0 173.03)
(-270.22 0 155.97)
(-241.267 1.42531e-17 139.24)
(-213.729 -2.6806e-17 123.464)
(-188.224 -2.51918e-17 108.244)
(-158.248 -1.18395e-17 91.7433)
(-11.8581 0 20.9776)
(-12.6697 -1.29867e-19 20.3871)
(-13.52 0 19.6856)
(-14.8949 0 19.0214)
(-16.9262 -1.34901e-19 18.6401)
(-19.4992 -1.40423e-19 18.6884)
(-22.4256 1.46098e-19 19.173)
(-25.5523 -4.58902e-19 20.0295)
(-28.7698 0 21.1782)
(-32.0051 -5.16484e-21 22.5428)
(-35.2185 1.66059e-19 24.063)
(-38.3933 0 25.7102)
(-41.5399 0 27.4721)
(-44.6824 0 29.3429)
(-47.8556 0 31.3155)
(-51.1092 6.20196e-21 33.3891)
(-54.4916 5.75295e-21 35.5808)
(-58.0554 3.27724e-19 37.9148)
(-61.8553 3.22914e-19 40.4232)
(-65.9449 0 43.1408)
(-70.3908 -6.19213e-19 46.1112)
(-75.2592 -6.10862e-19 49.3756)
(-80.631 0 52.9859)
(-86.5983 -5.51128e-21 57.0047)
(-93.2528 4.56876e-21 61.4826)
(-100.728 -5.39372e-19 66.5235)
(-109.138 0 72.1871)
(-118.658 0 78.6031)
(-129.481 9.60066e-19 85.9257)
(-141.813 5.59815e-22 94.2444)
(-156.016 1.73409e-18 103.851)
(-172.308 0 114.83)
(-191.148 1.51543e-18 127.645)
(-213.176 0 142.766)
(-239.035 0 159.561)
(-268.78 -5.26928e-19 179.079)
(-303.329 0 203.062)
(-347.605 4.70098e-19 233.557)
(-397.801 -8.50623e-20 274.399)
(-461.758 -5.2714e-19 318.631)
(-534.989 0 368.386)
(-614.966 -6.96436e-20 412.383)
(-689.424 0 441.848)
(-745.43 0 453.916)
(-775.881 0 451.694)
(-781.762 0 441.176)
(-770.122 0 428.057)
(-750.095 -2.06301e-18 416.175)
(-729.43 0 407.331)
(-712.75 0 401.765)
(-701.543 5.45158e-19 398.831)
(-695.21 0 397.627)
(-692.325 2.27409e-19 397.399)
(-691.517 1.35309e-19 397.68)
(-691.843 -1.27344e-19 398.237)
(-692.778 0 398.973)
(-694.075 -1.01102e-19 399.849)
(-695.625 -1.83476e-19 400.842)
(-697.375 0 401.932)
(-699.281 0 403.101)
(-701.301 0 404.338)
(-703.41 4.21717e-19 405.624)
(-705.589 0 406.942)
(-707.816 0 408.277)
(-710.065 1.02518e-18 409.619)
(-712.312 -2.12554e-18 410.953)
(-714.534 0 412.267)
(-716.703 0 413.548)
(-718.796 0 414.781)
(-720.784 0 415.951)
(-722.639 -1.14421e-18 417.042)
(-724.332 2.29393e-18 418.037)
(-725.828 0 418.917)
(-727.095 0 419.663)
(-728.094 -2.24397e-18 420.253)
(-728.788 0 420.666)
(-729.135 -2.17482e-18 420.878)
(-729.09 2.13691e-18 420.862)
(-728.606 0 420.593)
(-727.634 0 420.041)
(-726.122 0 419.176)
(-724.013 0 417.967)
(-721.251 0 416.38)
(-717.776 3.68548e-18 414.381)
(-713.526 0 411.933)
(-708.437 6.92587e-18 409.001)
(-702.445 0 405.548)
(-695.485 -3.12425e-21 401.535)
(-687.493 -5.77461e-21 396.925)
(-678.405 0 391.682)
(-668.162 5.81823e-18 385.772)
(-656.705 0 379.16)
(-643.983 0 371.817)
(-629.953 -1.03565e-17 363.718)
(-614.577 0 354.842)
(-597.833 0 345.174)
(-579.708 0 334.709)
(-560.208 0 323.448)
(-539.355 0 311.405)
(-517.192 0 298.605)
(-493.785 0 285.086)
(-469.225 0 270.899)
(-443.627 6.97175e-18 256.113)
(-417.137 0 240.811)
(-389.925 0 225.091)
(-362.188 0 209.067)
(-334.147 -1.14502e-17 192.868)
(-306.045 -1.08597e-17 176.634)
(-278.138 -1.03328e-17 160.513)
(-250.692 9.78364e-18 144.66)
(-223.975 -4.07152e-21 129.229)
(-198.248 -8.78896e-18 114.372)
(-173.749 -1.66732e-17 100.227)
(-150.713 0 86.9282)
(-129.277 1.4914e-17 74.5596)
(-109.718 1.40707e-17 63.2753)
(-91.8026 0 52.9366)
(-76.2532 1.25105e-17 44.113)
(-62.4032 1.17563e-17 35.5794)
(-48.5756 1.10553e-17 28.6896)
(-12.0674 0 21.4975)
(-12.8128 6.33108e-20 21.0816)
(-13.4351 0 20.6072)
(-14.2727 0 20.1246)
(-15.5201 1.27073e-19 19.7379)
(-17.1972 1.32273e-19 19.5937)
(-19.2609 -1.37613e-19 19.7735)
(-21.6539 4.23631e-19 20.2925)
(-24.3175 0 21.1295)
(-27.196 1.40137e-19 22.2474)
(-30.2445 -2.94345e-19 23.6028)
(-33.4281 0 25.1639)
(-36.7276 3.01532e-19 26.9062)
(-40.1289 0 28.835)
(-43.6474 3.05424e-19 30.9436)
(-47.2954 3.13006e-19 33.2318)
(-51.1057 3.11483e-19 35.6912)
(-55.1191 -3.08531e-19 38.3301)
(-59.3848 -6.01963e-19 41.1722)
(-63.9512 0 44.2497)
(-68.8843 5.82889e-19 47.6086)
(-74.2514 0 51.2928)
(-80.1353 0 55.357)
(-86.6375 -5.3694e-19 59.8735)
(-93.8522 1.03534e-18 64.8916)
(-101.927 0 70.5331)
(-110.984 0 76.8608)
(-121.207 0 84.0141)
(-132.811 -8.95695e-19 92.1805)
(-146.002 8.61184e-19 101.436)
(-161.172 -1.98784e-21 112.134)
(-178.59 7.67324e-19 124.356)
(-198.68 -1.43049e-18 138.552)
(-222.049 6.52507e-19 155.365)
(-249.591 -5.7599e-19 174.043)
(-281.433 1.51047e-20 195.766)
(-318.12 0 222.505)
(-364.29 -4.41756e-19 255.854)
(-415.165 6.76975e-19 302.081)
(-481.734 4.95254e-19 346.83)
(-554.599 0 398.355)
(-635.478 -1.74421e-18 442.834)
(-713.744 -2.12124e-18 471.5)
(-776.743 -2.30108e-18 482.303)
(-816.015 -2.17434e-18 479.254)
(-830.305 0 468.7)
(-824.667 0 456.057)
(-807.324 -5.50524e-20 444.646)
(-786.361 0 435.924)
(-767.504 0 430.065)
(-753.418 5.46581e-19 426.528)
(-744.28 -3.48557e-19 424.546)
(-738.959 -2.13765e-19 423.46)
(-736.067 5.49995e-21 422.847)
(-734.524 -8.70739e-21 422.489)
(-733.678 0 422.284)
(-733.193 0 422.186)
(-732.911 3.38385e-19 422.161)
(-732.752 0 422.18)
(-732.656 0 422.218)
(-732.569 -3.45317e-19 422.26)
(-732.455 0 422.281)
(-732.286 0 422.259)
(-732.029 9.05204e-19 422.175)
(-731.651 -9.51215e-19 422.011)
(-731.117 1.98391e-18 421.75)
(-730.394 0 421.373)
(-729.446 -1.0415e-18 420.861)
(-728.239 0 420.195)
(-726.735 0 419.354)
(-724.896 2.14157e-18 418.317)
(-722.684 0 417.061)
(-720.057 0 415.564)
(-716.972 0 413.8)
(-713.385 0 411.744)
(-709.25 0 409.371)
(-704.519 2.03667e-18 406.652)
(-699.145 -3.4575e-21 403.561)
(-693.077 -1.95472e-18 400.068)
(-686.266 1.91469e-18 396.144)
(-678.661 0 391.762)
(-670.212 0 386.891)
(-660.87 0 381.504)
(-650.588 0 375.573)
(-639.321 0 369.072)
(-627.027 -3.71683e-21 361.978)
(-613.67 0 354.269)
(-599.22 -3.03009e-18 345.929)
(-583.655 -5.87439e-21 336.943)
(-566.959 0 327.304)
(-549.131 -5.44037e-18 317.01)
(-530.18 0 306.067)
(-510.13 5.0354e-18 294.488)
(-489.019 4.03443e-21 282.297)
(-466.904 0 269.524)
(-443.861 0 256.216)
(-419.987 0 242.426)
(-395.397 0 228.222)
(-370.23 7.83347e-18 213.685)
(-344.642 0 198.904)
(-318.811 0 183.983)
(-292.929 6.82164e-18 169.033)
(-267.206 0 154.175)
(-241.855 -6.19756e-18 139.533)
(-217.098 5.90385e-18 125.235)
(-193.153 0 111.407)
(-170.227 2.13812e-17 98.1691)
(-148.513 4.95977e-21 85.6335)
(-128.181 1.92928e-17 73.8976)
(-109.369 -9.13542e-18 63.0418)
(-92.181 -8.67775e-18 53.1262)
(-76.6839 8.20584e-18 44.1891)
(-62.8983 7.78163e-18 36.2428)
(-50.8252 7.34969e-18 29.2862)
(-40.3637 -1.39227e-17 23.266)
(-31.5723 -1.3135e-17 18.2064)
(-23.9844 -1.24086e-17 13.839)
(-18.2319 -1.16732e-17 10.6797)
(-12.9817 0 7.10539)
(-9.13526 0 6.06542)
(-12.1859 0 21.9843)
(-12.8712 6.64244e-20 21.6815)
(-13.4167 0 21.3523)
(-14.0511 0 21.0173)
(-14.9099 0 20.7205)
(-16.0211 0 20.5386)
(-17.3994 1.26534e-19 20.555)
(-19.0512 -1.30504e-19 20.8227)
(-20.9743 1.3036e-19 21.3621)
(-23.1577 -2.72596e-19 22.1719)
(-25.5878 2.769e-19 23.2379)
(-28.2521 0 24.5441)
(-31.1406 -2.83639e-19 26.0768)
(-34.2481 0 27.8316)
(-37.5708 -2.87277e-19 29.8154)
(-41.1124 -2.79871e-19 32.0405)
(-44.8937 0 34.509)
(-48.9343 0 37.2231)
(-53.2728 2.80225e-19 40.1902)
(-57.9457 0 43.4317)
(-63.0107 0 46.9879)
(-68.5272 -5.15154e-19 50.9025)
(-74.5683 0 55.2275)
(-81.236 0 60.0438)
(-88.6165 -4.83849e-19 65.3925)
(-96.8591 0 71.4094)
(-106.088 0 78.1564)
(-116.475 0 85.7692)
(-128.252 1.67478e-18 94.4718)
(-141.608 0 104.306)
(-156.927 -5.96869e-21 115.685)
(-174.529 -4.75616e-21 128.682)
(-194.796 6.72664e-19 143.674)
(-218.21 -6.13354e-19 161.52)
(-245.848 1.07782e-18 181.34)
(-277.947 4.51821e-19 204.28)
(-314.586 0 232.561)
(-359.398 0 267.068)
(-407.324 1.01778e-19 318.608)
(-474.554 6.84613e-19 359.51)
(-541.998 0 410.669)
(-618.924 0 453.494)
(-696.731 7.06445e-20 479.696)
(-764.074 2.16058e-18 488.197)
(-811.738 2.04157e-18 484.003)
(-836.095 3.47156e-18 473.765)
(-839.352 0 462.365)
(-827.66 -5.38798e-20 452.264)
(-808.542 0 444.29)
(-788.518 0 438.441)
(-771.621 -5.13139e-19 434.318)
(-759.2 3.27207e-19 431.384)
(-750.757 0 429.167)
(-745.069 -1.24569e-19 427.345)
(-740.98 -9.23839e-21 425.737)
(-737.702 0 424.249)
(-734.796 0 422.824)
(-732.041 -3.06182e-19 421.418)
(-729.319 0 419.994)
(-726.553 0 418.519)
(-723.674 6.43516e-19 416.973)
(-720.637 0 415.329)
(-717.408 0 413.559)
(-713.948 -1.6912e-18 411.641)
(-710.216 8.91616e-19 409.553)
(-706.173 -9.27476e-19 407.276)
(-701.779 0 404.789)
(-696.996 9.75927e-19 402.07)
(-691.784 0 399.099)
(-686.104 -9.95649e-19 395.852)
(-679.916 -1.00164e-18 392.307)
(-673.181 0 388.443)
(-665.857 0 384.237)
(-657.907 1.97604e-18 379.666)
(-649.29 1.95585e-18 374.707)
(-639.967 0 369.339)
(-629.901 0 363.541)
(-619.057 -3.73581e-18 357.291)
(-607.402 1.82945e-18 350.571)
(-594.905 -3.58056e-18 343.364)
(-581.541 0 335.655)
(-567.289 0 327.431)
(-552.133 0 318.685)
(-536.065 0 309.411)
(-519.085 0 299.609)
(-501.202 -3.72572e-21 289.286)
(-482.437 0 278.451)
(-462.821 0 267.125)
(-442.4 -5.83989e-21 255.332)
(-421.231 0 243.107)
(-399.39 -5.07603e-18 230.494)
(-376.965 0 217.542)
(-354.062 -4.70635e-18 204.314)
(-330.801 3.92401e-21 190.88)
(-307.32 0 177.318)
(-283.767 0 163.714)
(-260.304 0 150.163)
(-237.102 0 136.764)
(-214.337 -5.41744e-21 123.617)
(-192.188 6.98905e-18 110.827)
(-170.829 -6.67312e-18 98.4942)
(-150.427 -6.37163e-18 86.7157)
(-131.134 0 75.5796)
(-113.086 5.78802e-18 65.1637)
(-96.3919 -5.5134e-18 55.5315)
(-81.1341 0 46.7305)
(-67.364 -9.97994e-18 38.7902)
(-55.0999 1.89241e-17 31.7211)
(-44.3279 -9.00444e-18 25.5148)
(-35.0032 0 20.1452)
(-27.0529 8.09414e-18 15.5699)
(-20.3828 0 11.7342)
(-14.875 0 8.5704)
(-10.4224 -6.86081e-18 6.01439)
(-6.84408 0 3.96834)
(-4.16118 0 2.43256)
(-1.87817 1.15821e-17 1.12656)
(-0.693952 1.08954e-17 0.600067)
(0.898152 1.02307e-17 -0.854867)
(1.00838 -9.62978e-18 0.267169)
(-12.2402 0 22.4303)
(-12.8625 -6.242e-20 22.2153)
(-13.3562 -1.26486e-19 21.9904)
(-13.8981 0 21.7628)
(-14.5845 0 21.5663)
(-15.4232 0 21.427)
(-16.4127 -1.18924e-19 21.3982)
(-17.5708 0 21.5351)
(-18.917 -1.22518e-19 21.8753)
(-20.4639 0 22.4382)
(-22.2202 0 23.2298)
(-24.1959 2.48671e-19 24.2491)
(-26.4025 0 25.495)
(-28.8537 2.53681e-19 26.97)
(-31.56 -2.54858e-19 28.6865)
(-34.5363 2.62988e-19 30.6518)
(-37.7968 0 32.8898)
(-41.3697 -2.52554e-19 35.4112)
(-45.2809 0 38.2439)
(-49.5615 -4.91265e-19 41.3958)
(-54.2606 0 44.8976)
(-59.4304 4.83988e-19 48.7882)
(-65.1298 -4.60722e-19 53.1109)
(-71.4541 0 57.955)
(-78.4758 0 63.3487)
(-86.3288 4.25291e-19 69.4382)
(-95.1371 0 76.2832)
(-105.041 0 83.9997)
(-116.27 -1.3337e-20 92.8523)
(-129.002 0 102.826)
(-143.557 -1.41682e-18 114.385)
(-160.292 -6.73016e-19 127.608)