/*--------------------------------*- C++ -*----------------------------------*\
| =========                 |                                                 |
| \\      /  F ield         | OpenFOAM: The Open Source CFD Toolbox           |
|  \\    /   O peration     | Version:  2412                                  |
|   \\  /    A nd           | Website:  www.openfoam.com                      |
|    \\/     M anipulation  |                                                 |
\*---------------------------------------------------------------------------*/
FoamFile
{
    version     2.0;
    format      ascii;
    arch        "LSB;label=32;scalar=64";
    class       volScalarField;
    location    "0.01";
    object      p;
}
// * * * * * * * * * * * * * * * * * * * * * * * * * * * * * * * * * * * * * //

dimensions      [0 2 -2 0 0 0 0];

internalField   nonuniform List<scalar> 
12600
(
-3.98687e-06
-217.829
-273.268
-277.526
-277.289
-276.368
-275.242
-274.139
-273.095
-272.116
-271.2
-270.349
-269.56
-268.831
-268.159
-267.54
-266.971
-266.448
-265.969
-265.53
-265.129
-264.763
-264.43
-264.127
-263.852
-263.602
-263.373
-263.163
-262.968
-262.782
-262.6
-262.414
-262.216
-261.992
-261.728
-261.412
-261.019
-260.512
-259.813
-258.907
-257.673
-256.103
-254.27
-252.337
-250.495
-248.89
-247.591
-246.596
-245.855
-245.305
-244.886
-244.556
-244.288
-244.065
-243.883
-243.736
-243.623
-243.542
-243.49
-243.467
-243.47
-243.5
-243.555
-243.633
-243.735
-243.859
-244.004
-244.171
-244.358
-244.565
-244.791
-245.036
-245.3
-245.582
-245.882
-246.201
-246.536
-246.889
-247.26
-247.647
-248.052
-248.473
-248.911
-249.366
-249.838
-250.326
-250.831
-251.353
-251.891
-252.446
-253.018
-253.606
-254.211
-254.832
-255.471
-256.126
-256.797
-257.486
-258.191
-258.913
-259.651
-260.406
-261.177
-261.965
-262.768
-263.587
-264.421
-265.27
-266.134
-267.01
-267.9
-268.799
-269.707
-270.621
-271.534
-272.442
-273.307
-274.148
-274.727
-274.932
-45.2355
-171.43
-233.657
-258.206
-267.894
-271.188
-271.979
-271.859
-271.394
-270.794
-270.146
-269.492
-268.852
-268.238
-267.656
-267.109
-266.599
-266.124
-265.684
-265.278
-264.905
-264.564
-264.251
-263.967
-263.708
-263.472
-263.256
-263.058
-262.873
-262.698
-262.525
-262.349
-262.162
-261.949
-261.698
-261.395
-261.019
-260.534
-259.859
-258.992
-257.802
-256.267
-254.453
-252.519
-250.658
-249.023
-247.692
-246.668
-245.905
-245.34
-244.912
-244.575
-244.302
-244.077
-243.892
-243.743
-243.628
-243.545
-243.492
-243.467
-243.47
-243.499
-243.552
-243.63
-243.731
-243.854
-243.999
-244.165
-244.351
-244.558
-244.783
-245.028
-245.291
-245.573
-245.873
-246.191
-246.526
-246.879
-247.249
-247.637
-248.041
-248.462
-248.9
-249.355
-249.826
-250.314
-250.819
-251.34
-251.878
-252.433
-253.004
-253.593
-254.197
-254.819
-255.457
-256.112
-256.783
-257.472
-258.177
-258.898
-259.637
-260.391
-261.162
-261.949
-262.753
-263.572
-264.406
-265.255
-266.118
-266.995
-267.884
-268.784
-269.692
-270.606
-271.518
-272.427
-273.293
-274.137
-274.722
-274.924
-70.0279
-145.511
-205.222
-239.612
-256.591
-264.359
-267.748
-269.082
-269.441
-269.341
-269.021
-268.595
-268.123
-267.636
-267.151
-266.681
-266.231
-265.806
-265.407
-265.035
-264.69
-264.372
-264.08
-263.814
-263.57
-263.348
-263.145
-262.958
-262.785
-262.619
-262.457
-262.291
-262.114
-261.912
-261.673
-261.382
-261.019
-260.552
-259.9
-259.051
-257.887
-256.376
-254.576
-252.642
-250.769
-249.114
-247.762
-246.719
-245.942
-245.367
-244.932
-244.591
-244.314
-244.087
-243.899
-243.749
-243.632
-243.547
-243.493
-243.468
-243.469
-243.497
-243.55
-243.627
-243.727
-243.85
-243.994
-244.16
-244.346
-244.551
-244.777
-245.021
-245.284
-245.566
-245.866
-246.183
-246.518
-246.871
-247.241
-247.628
-248.032
-248.453
-248.891
-249.345
-249.817
-250.305
-250.809
-251.331
-251.869
-252.423
-252.995
-253.583
-254.187
-254.809
-255.447
-256.102
-256.773
-257.462
-258.166
-258.888
-259.626
-260.381
-261.152
-261.939
-262.742
-263.561
-264.395
-265.244
-266.108
-266.985
-267.874
-268.773
-269.682
-270.596
-271.509
-272.418
-273.284
-274.13
-274.72
-274.922
-88.999
-135.811
-183.201
-219.14
-242.04
-254.995
-261.76
-265.143
-266.762
-267.434
-267.599
-267.494
-267.245
-266.921
-266.56
-266.185
-265.81
-265.445
-265.094
-264.762
-264.45
-264.16
-263.892
-263.646
-263.42
-263.213
-263.024
-262.85
-262.688
-262.534
-262.383
-262.227
-262.061
-261.871
-261.643
-261.365
-261.017
-260.57
-259.943
-259.124
-257.993
-256.511
-254.726
-252.79
-250.9
-249.221
-247.843
-246.778
-245.983
-245.396
-244.953
-244.607
-244.327
-244.097
-243.908
-243.755
-243.636
-243.55
-243.495
-243.468
-243.468
-243.495
-243.547
-243.624
-243.723
-243.845
-243.989
-244.154
-244.339
-244.545
-244.77
-245.014
-245.276
-245.558
-245.857
-246.174
-246.509
-246.862
-247.231
-247.618
-248.022
-248.443
-248.881
-249.335
-249.806
-250.294
-250.799
-251.32
-251.858
-252.412
-252.983
-253.571
-254.176
-254.797
-255.435
-256.09
-256.761
-257.449
-258.154
-258.876
-259.614
-260.368
-261.139
-261.926
-262.729
-263.548
-264.382
-265.231
-266.095
-266.971
-267.86
-268.76
-269.668
-270.583
-271.495
-272.405
-273.272
-274.119
-274.717
-274.924
-105.916
-134.802
-168.096
-200.025
-225.497
-242.75
-253.25
-259.323
-262.738
-264.593
-265.534
-265.941
-266.04
-265.961
-265.779
-265.54
-265.27
-264.986
-264.701
-264.423
-264.155
-263.901
-263.663
-263.442
-263.239
-263.052
-262.88
-262.721
-262.573
-262.432
-262.294
-262.151
-261.997
-261.82
-261.606
-261.343
-261.012
-260.584
-259.984
-259.197
-258.102
-256.651
-254.883
-252.946
-251.04
-249.335
-247.93
-246.84
-246.027
-245.427
-244.976
-244.625
-244.341
-244.108
-243.916
-243.761
-243.641
-243.553
-243.496
-243.468
-243.468
-243.493
-243.544
-243.62
-243.719
-243.84
-243.983
-244.147
-244.332
-244.537
-244.762
-245.005
-245.268
-245.549
-245.848
-246.165
-246.499
-246.852
-247.221
-247.608
-248.011
-248.432
-248.87
-249.324
-249.795
-250.283
-250.787
-251.308
-251.846
-252.4
-252.971
-253.559
-254.163
-254.784
-255.422
-256.077
-256.748
-257.436
-258.141
-258.862
-259.6
-260.355
-261.126
-261.912
-262.715
-263.534
-264.368
-265.217
-266.08
-266.957
-267.846
-268.745
-269.654
-270.568
-271.481
-272.391
-273.259
-274.108
-274.715
-274.931
-119.235
-137.964
-160.447
-185.878
-209.961
-229.066
-242.527
-251.393
-257.001
-260.442
-262.493
-263.674
-264.31
-264.608
-264.699
-264.66
-264.543
-264.378
-264.186
-263.982
-263.774
-263.57
-263.373
-263.187
-263.013
-262.851
-262.701
-262.562
-262.432
-262.307
-262.184
-262.055
-261.916
-261.755
-261.556
-261.309
-260.997
-260.591
-260.02
-259.266
-258.21
-256.793
-255.046
-253.111
-251.188
-249.457
-248.023
-246.907
-246.075
-245.461
-245.001
-244.644
-244.356
-244.12
-243.925
-243.768
-243.646
-243.557
-243.498
-243.468
-243.466
-243.491
-243.541
-243.616
-243.714
-243.834
-243.977
-244.14
-244.325
-244.529
-244.753
-244.996
-245.258
-245.539
-245.838
-246.154
-246.489
-246.841
-247.21
-247.596
-248
-248.42
-248.858
-249.312
-249.782
-250.27
-250.774
-251.295
-251.833
-252.387
-252.958
-253.545
-254.15
-254.771
-255.408
-256.063
-256.734
-257.422
-258.126
-258.848
-259.586
-260.34
-261.11
-261.897
-262.7
-263.519
-264.353
-265.201
-266.064
-266.941
-267.83
-268.729
-269.638
-270.552
-271.465
-272.376
-273.244
-274.095
-274.713
-274.942
-129.572
-142.957
-158.236
-177.171
-197.553
-216.066
-230.904
-241.882
-249.593
-254.812
-258.244
-260.45
-261.837
-262.684
-263.175
-263.433
-263.538
-263.545
-263.487
-263.389
-263.267
-263.133
-262.993
-262.855
-262.72
-262.592
-262.472
-262.358
-262.25
-262.146
-262.041
-261.931
-261.809
-261.665
-261.485
-261.256
-260.964
-260.581
-260.04
-259.324
-258.31
-256.932
-255.211
-253.282
-251.346
-249.589
-248.124
-246.982
-246.127
-245.498
-245.028
-244.664
-244.372
-244.133
-243.935
-243.776
-243.651
-243.56
-243.499
-243.468
-243.465
-243.489
-243.538
-243.611
-243.708
-243.828
-243.97
-244.133
-244.316
-244.52
-244.744
-244.987
-245.248
-245.528
-245.827
-246.143
-246.477
-246.829
-247.198
-247.584
-247.987
-248.407
-248.845
-249.298
-249.769
-250.256
-250.76
-251.281
-251.819
-252.373
-252.943
-253.531
-254.135
-254.756
-255.393
-256.047
-256.719
-257.406
-258.111
-258.832
-259.569
-260.323
-261.094
-261.881
-262.683
-263.502
-264.335
-265.184
-266.047
-266.923
-267.812
-268.712
-269.62
-270.535
-271.448
-272.359
-273.229
-274.081
-274.712
-274.955
-137.98
-148.297
-159.024
-172.744
-188.939
-205.313
-219.91
-231.859
-241.086
-247.906
-252.775
-256.162
-258.474
-260.031
-261.064
-261.734
-262.153
-262.401
-262.531
-262.583
-262.58
-262.543
-262.483
-262.41
-262.331
-262.249
-262.168
-262.088
-262.01
-261.932
-261.851
-261.763
-261.662
-261.539
-261.379
-261.172
-260.903
-260.545
-260.035
-259.357
-258.389
-257.058
-255.371
-253.455
-251.512
-249.731
-248.237
-247.065
-246.187
-245.54
-245.058
-244.687
-244.39
-244.146
-243.946
-243.784
-243.657
-243.563
-243.501
-243.468
-243.464
-243.486
-243.534
-243.606
-243.702
-243.821
-243.962
-244.124
-244.308
-244.511
-244.734
-244.976
-245.237
-245.517
-245.815
-246.131
-246.465
-246.816
-247.185
-247.571
-247.974
-248.394
-248.83
-249.284
-249.754
-250.242
-250.745
-251.266
-251.803
-252.357
-252.928
-253.515
-254.119
-254.739
-255.377
-256.031
-256.702
-257.389
-258.093
-258.814
-259.552
-260.306
-261.076
-261.863
-262.665
-263.483
-264.317
-265.166
-266.029
-266.905
-267.794
-268.694
-269.602
-270.517
-271.43
-272.342
-273.213
-274.067
-274.71
-274.97
-145.043
-153.332
-161.232
-171.213
-183.718
-197.369
-210.609
-222.421
-232.337
-240.268
-246.364
-250.906
-254.216
-256.591
-258.278
-259.466
-260.294
-260.862
-261.246
-261.498
-261.657
-261.75
-261.798
-261.814
-261.809
-261.789
-261.761
-261.726
-261.687
-261.644
-261.594
-261.533
-261.457
-261.359
-261.225
-261.041
-260.798
-260.468
-259.996
-259.351
-258.434
-257.157
-255.516
-253.626
-251.684
-249.886
-248.363
-247.16
-246.255
-245.588
-245.092
-244.712
-244.409
-244.161
-243.957
-243.792
-243.663
-243.567
-243.503
-243.468
-243.462
-243.483
-243.529
-243.601
-243.696
-243.814
-243.954
-244.115
-244.298
-244.5
-244.723
-244.965
-245.225
-245.505
-245.802
-246.118
-246.451
-246.802
-247.171
-247.556
-247.959
-248.378
-248.815
-249.268
-249.739
-250.226
-250.729
-251.249
-251.786
-252.34
-252.91
-253.497
-254.101
-254.722
-255.359
-256.013
-256.683
-257.371
-258.075
-258.796
-259.533
-260.287
-261.057
-261.843
-262.646
-263.464
-264.298
-265.146
-266.009
-266.885
-267.774
-268.674
-269.583
-270.498
-271.412
-272.324
-273.197
-274.053
-274.709
-274.985
-151.115
-157.944
-164.034
-171.447
-181.027
-192.047
-203.429
-214.316
-224.134
-232.558
-239.481
-244.973
-249.212
-252.423
-254.824
-256.602
-257.912
-258.874
-259.575
-260.083
-260.449
-260.711
-260.898
-261.029
-261.119
-261.181
-261.221
-261.246
-261.257
-261.257
-261.246
-261.22
-261.176
-261.108
-261.002
-260.846
-260.632
-260.333
-259.941
-259.288
-258.426
-257.212
-255.63
-253.782
-251.856
-250.05
-248.502
-247.269
-246.334
-245.644
-245.132
-244.74
-244.43
-244.177
-243.969
-243.801
-243.669
-243.57
-243.504
-243.468
-243.46
-243.479
-243.524
-243.594
-243.688
-243.805
-243.945
-244.105
-244.287
-244.489
-244.711
-244.952
-245.212
-245.491
-245.788
-246.103
-246.436
-246.787
-247.155
-247.54
-247.943
-248.362
-248.798
-249.252
-249.721
-250.208
-250.711
-251.232
-251.768
-252.322
-252.892
-253.479
-254.082
-254.703
-255.34
-255.993
-256.664
-257.351
-258.055
-258.776
-259.513
-260.267
-261.037
-261.823
-262.625
-263.444
-264.277
-265.126
-265.988
-266.865
-267.754
-268.653
-269.562
-270.477
-271.392
-272.305
-273.179
-274.037
-274.706
-275
-156.441
-162.164
-167.02
-172.663
-180.04
-188.831
-198.314
-207.871
-217.011
-225.348
-232.628
-238.744
-243.726
-247.689
-250.789
-253.185
-255.022
-256.424
-257.493
-258.307
-258.925
-259.395
-259.753
-260.026
-260.236
-260.399
-260.524
-260.622
-260.697
-260.751
-260.787
-260.804
-260.797
-260.764
-260.692
-260.568
-260.386
-260.12
-259.738
-259.148
-258.346
-257.206
-255.699
-253.912
-252.02
-250.219
-248.654
-247.392
-246.427
-245.71
-245.178
-244.773
-244.453
-244.194
-243.982
-243.81
-243.675
-243.574
-243.505
-243.467
-243.457
-243.475
-243.519
-243.587
-243.68
-243.796
-243.934
-244.094
-244.275
-244.476
-244.698
-244.938
-245.198
-245.476
-245.773
-246.088
-246.42
-246.771
-247.138
-247.523
-247.925
-248.344
-248.78
-249.233
-249.703
-250.189
-250.692
-251.212
-251.749
-252.302
-252.872
-253.459
-254.062
-254.682
-255.319
-255.973
-256.643
-257.33
-258.034
-258.755
-259.492
-260.245
-261.015
-261.801
-262.604
-263.422
-264.255
-265.104
-265.966
-266.843
-267.731
-268.631
-269.54
-270.456
-271.37
-272.285
-273.16
-274.021
-274.703
-275.015
-161.177
-166.035
-170.001
-174.399
-180.15
-187.158
-194.943
-203.079
-211.219
-219.034
-226.23
-232.603
-238.06
-242.61
-246.323
-249.306
-251.676
-253.546
-255.015
-256.167
-257.073
-257.786
-258.347
-258.791
-259.144
-259.426
-259.654
-259.839
-259.989
-260.109
-260.202
-260.269
-260.306
-260.313
-260.28
-260.192
-260.044
-259.812
-259.448
-258.92
-258.18
-257.121
-255.705
-253.999
-252.163
-250.384
-248.814
-247.528
-246.532
-245.787
-245.232
-244.81
-244.48
-244.213
-243.996
-243.82
-243.681
-243.577
-243.506
-243.466
-243.454
-243.47
-243.512
-243.58
-243.671
-243.786
-243.923
-244.082
-244.262
-244.463
-244.683
-244.923
-245.182
-245.46
-245.756
-246.071
-246.403
-246.753
-247.12
-247.505
-247.906
-248.325
-248.761
-249.214
-249.683
-250.169
-250.672
-251.192
-251.728
-252.281
-252.851
-253.437
-254.041
-254.661
-255.297
-255.951
-256.621
-257.308
-258.012
-258.732
-259.469
-260.222
-260.992
-261.778
-262.581
-263.398
-264.232
-265.08
-265.943
-266.819
-267.708
-268.608
-269.517
-270.432
-271.347
-272.263
-273.14
-274.003
-274.699
-275.031
-165.437
-169.601
-172.9
-176.397
-180.944
-186.559
-192.922
-199.737
-206.778
-213.813
-220.589
-226.876
-232.516
-237.429
-241.608
-245.095
-247.961
-250.292
-252.174
-253.689
-254.906
-255.885
-256.676
-257.316
-257.835
-258.258
-258.606
-258.892
-259.129
-259.324
-259.482
-259.606
-259.695
-259.747
-259.756
-259.708
-259.597
-259.402
-259.081
-258.599
-257.918
-256.946
-255.634
-254.03
-252.271
-250.536
-248.974
-247.673
-246.649
-245.874
-245.294
-244.853
-244.51
-244.234
-244.011
-243.83
-243.688
-243.581
-243.507
-243.464
-243.45
-243.464
-243.505
-243.571
-243.661
-243.775
-243.911
-244.069
-244.248
-244.448
-244.668
-244.907
-245.165
-245.443
-245.738
-246.052
-246.384
-246.734
-247.101
-247.485
-247.886
-248.305
-248.74
-249.193
-249.662
-250.148
-250.65
-251.17
-251.706
-252.259
-252.828
-253.415
-254.018
-254.638
-255.274
-255.927
-256.597
-257.284
-257.988
-258.708
-259.445
-260.198
-260.968
-261.754
-262.556
-263.373
-264.207
-265.055
-265.917
-266.794
-267.682
-268.582
-269.491
-270.407
-271.323
-272.239
-273.118
-273.985
-274.693
-275.046
-169.303
-172.899
-175.684
-178.512
-182.155
-186.691
-191.898
-197.569
-203.556
-209.716
-215.865
-221.802
-227.351
-232.389
-236.846
-240.705
-243.986
-246.738
-249.021
-250.902
-252.445
-253.71
-254.748
-255.602
-256.308
-256.892
-257.376
-257.78
-258.116
-258.397
-258.629
-258.817
-258.963
-259.065
-259.12
-259.116
-259.044
-258.889
-258.617
-258.185
-257.558
-256.676
-255.479
-253.992
-252.333
-250.662
-249.126
-247.82
-246.774
-245.97
-245.363
-244.902
-244.543
-244.258
-244.027
-243.84
-243.694
-243.584
-243.507
-243.461
-243.445
-243.458
-243.496
-243.561
-243.65
-243.762
-243.898
-244.055
-244.233
-244.432
-244.651
-244.889
-245.147
-245.424
-245.719
-246.033
-246.364
-246.713
-247.08
-247.464
-247.865
-248.283
-248.718
-249.17
-249.639
-250.125
-250.627
-251.146
-251.682
-252.235
-252.804
-253.39
-253.993
-254.613
-255.249
-255.902
-256.572
-257.259
-257.962
-258.682
-259.419
-260.172
-260.941
-261.727
-262.529
-263.347
-264.18
-265.028
-265.89
-266.766
-267.655
-268.555
-269.464
-270.381
-271.297
-272.214
-273.095
-273.965
-274.686
-275.061
-172.839
-175.964
-178.341
-180.661
-183.615
-187.313
-191.592
-196.303
-201.354
-206.656
-212.093
-217.512
-222.76
-227.701
-232.236
-236.305
-239.884
-242.979
-245.619
-247.849
-249.718
-251.278
-252.578
-253.662
-254.567
-255.325
-255.964
-256.501
-256.952
-257.331
-257.646
-257.907
-258.115
-258.273
-258.378
-258.421
-258.392
-258.281
-258.043
-257.671
-257.106
-256.317
-255.238
-253.881
-252.338
-250.751
-249.259
-247.961
-246.901
-246.072
-245.439
-244.956
-244.58
-244.283
-244.043
-243.851
-243.7
-243.586
-243.506
-243.458
-243.44
-243.45
-243.487
-243.55
-243.638
-243.749
-243.883
-244.039
-244.216
-244.414
-244.633
-244.871
-245.128
-245.404
-245.699
-246.012
-246.342
-246.691
-247.057
-247.441
-247.842
-248.26
-248.694
-249.146
-249.615
-250.1
-250.602
-251.121
-251.657
-252.21
-252.779
-253.365
-253.967
-254.586
-255.223
-255.875
-256.545
-257.231
-257.935
-258.654
-259.391
-260.144
-260.913
-261.699
-262.5
-263.318
-264.151
-264.999
-265.861
-266.737
-267.626
-268.526
-269.435
-270.352
-271.268
-272.187
-273.07
-273.944
-274.678
-275.075
-176.092
-178.821
-180.869
-182.796
-185.217
-188.26
-191.797
-195.717
-199.963
-204.487
-209.213
-214.041
-218.851
-223.524
-227.956
-232.068
-235.803
-239.134
-242.058
-244.591
-246.763
-248.613
-250.18
-251.504
-252.622
-253.568
-254.37
-255.051
-255.632
-256.123
-256.536
-256.879
-257.159
-257.378
-257.538
-257.632
-257.651
-257.596
-257.371
-257.071
-256.574
-255.877
-254.917
-253.696
-252.282
-250.795
-249.364
-248.09
-247.025
-246.176
-245.519
-245.013
-244.62
-244.31
-244.061
-243.862
-243.706
-243.588
-243.505
-243.454
-243.433
-243.441
-243.477
-243.538
-243.624
-243.734
-243.867
-244.022
-244.198
-244.395
-244.613
-244.85
-245.107
-245.382
-245.677
-245.989
-246.319
-246.668
-247.033
-247.417
-247.817
-248.234
-248.669
-249.121
-249.589
-250.074
-250.576
-251.095
-251.63
-252.182
-252.751
-253.337
-253.939
-254.558
-255.194
-255.847
-256.516
-257.202
-257.905
-258.625
-259.361
-260.114
-260.883
-261.668
-262.47
-263.287
-264.12
-264.968
-265.83
-266.706
-267.595
-268.495
-269.404
-270.321
-271.238
-272.158
-273.043
-273.922
-274.668
-275.088
-179.102
-181.494
-183.272
-184.889
-186.894
-189.417
-192.361
-195.634
-199.202
-203.044
-207.115
-211.346
-215.655
-219.949
-224.139
-228.143
-231.891
-235.334
-238.443
-241.208
-243.638
-245.751
-247.575
-249.141
-250.48
-251.624
-252.602
-253.438
-254.154
-254.768
-255.291
-255.732
-256.095
-256.384
-256.607
-256.758
-256.83
-256.829
-256.711
-256.406
-255.978
-255.369
-254.526
-253.441
-252.163
-250.789
-249.433
-248.197
-247.139
-246.278
-245.6
-245.073
-244.662
-244.338
-244.079
-243.873
-243.712
-243.59
-243.503
-243.449
-243.426
-243.432
-243.465
-243.525
-243.609
-243.718
-243.849
-244.003
-244.179
-244.375
-244.592
-244.828
-245.084
-245.359
-245.653
-245.965
-246.295
-246.642
-247.008
-247.39
-247.79
-248.208
-248.642
-249.093
-249.561
-250.046
-250.547
-251.066
-251.601
-252.153
-252.721
-253.307
-253.909
-254.528
-255.163
-255.816
-256.485
-257.171
-257.873
-258.593
-259.329
-260.081
-260.85
-261.635
-262.437
-263.254
-264.086
-264.934
-265.796
-266.672
-267.561
-268.461
-269.371
-270.288
-271.206
-272.127
-273.015
-273.898
-274.656
-275.099
-181.9
-184.003
-185.554
-186.924
-188.598
-190.708
-193.174
-195.919
-198.922
-202.179
-205.668
-209.341
-213.142
-217.005
-220.862
-224.641
-228.276
-231.708
-234.893
-237.802
-240.421
-242.751
-244.803
-246.595
-248.152
-249.499
-250.661
-251.663
-252.525
-253.267
-253.906
-254.454
-254.915
-255.29
-255.585
-255.799
-255.939
-255.974
-255.91
-255.68
-255.325
-254.801
-254.071
-253.121
-251.982
-250.728
-249.462
-248.276
-247.237
-246.372
-245.678
-245.132
-244.704
-244.366
-244.097
-243.884
-243.717
-243.59
-243.5
-243.443
-243.417
-243.421
-243.452
-243.51
-243.593
-243.7
-243.83
-243.983
-244.158
-244.353
-244.569
-244.805
-245.06
-245.334
-245.627
-245.938
-246.268
-246.615
-246.98
-247.362
-247.762
-248.179
-248.613
-249.063
-249.531
-250.016
-250.517
-251.035
-251.57
-252.121
-252.69
-253.275
-253.876
-254.495
-255.13
-255.782
-256.451
-257.137
-257.839
-258.558
-259.294
-260.046
-260.815
-261.6
-262.401
-263.218
-264.051
-264.898
-265.76
-266.636
-267.525
-268.425
-269.335
-270.253
-271.171
-272.093
-272.984
-273.873
-274.642
-275.109
-184.51
-186.363
-187.723
-188.893
-190.302
-192.078
-194.157
-196.471
-199.006
-201.768
-204.75
-207.922
-211.241
-214.666
-218.146
-221.627
-225.054
-228.369
-231.524
-234.478
-237.204
-239.685
-241.918
-243.907
-245.664
-247.207
-248.554
-249.727
-250.746
-251.627
-252.387
-253.043
-253.609
-254.084
-254.466
-254.759
-254.953
-255.08
-255.045
-254.897
-254.616
-254.179
-253.558
-252.739
-251.737
-250.611
-249.444
-248.322
-247.313
-246.454
-245.751
-245.189
-244.745
-244.394
-244.115
-243.893
-243.72
-243.589
-243.495
-243.435
-243.406
-243.408
-243.437
-243.493
-243.575
-243.68
-243.81
-243.961
-244.135
-244.329
-244.544
-244.779
-245.034
-245.307
-245.599
-245.91
-246.239
-246.586
-246.95
-247.332
-247.731
-248.148
-248.581
-249.031
-249.499
-249.983
-250.484
-251.002
-251.536
-252.087
-252.655
-253.24
-253.842
-254.46
-255.095
-255.747
-256.415
-257.101
-257.803
-258.522
-259.257
-260.009
-260.778
-261.563
-262.363
-263.18
-264.012
-264.86
-265.722
-266.598
-267.486
-268.387
-269.297
-270.215
-271.134
-272.058
-272.951
-273.847
-274.626
-275.117
-186.954
-188.589
-189.785
-190.791
-191.986
-193.491
-195.254
-197.214
-199.362
-201.708
-204.254
-206.984
-209.868
-212.875
-215.971
-219.12
-222.277
-225.396
-228.431
-231.339
-234.085
-236.643
-238.995
-241.133
-243.058
-244.775
-246.297
-247.639
-248.817
-249.845
-250.738
-251.511
-252.18
-252.754
-253.24
-253.624
-253.934
-254.073
-254.123
-254.054
-253.851
-253.502
-252.988
-252.294
-251.429
-250.432
-249.373
-248.327
-247.361
-246.518
-245.814
-245.241
-244.784
-244.42
-244.13
-243.901
-243.722
-243.586
-243.488
-243.425
-243.394
-243.393
-243.42
-243.474
-243.554
-243.659
-243.787
-243.937
-244.109
-244.303
-244.517
-244.751
-245.005
-245.278
-245.57
-245.88
-246.208
-246.554
-246.918
-247.299
-247.698
-248.114
-248.547
-248.997
-249.464
-249.948
-250.449
-250.966
-251.5
-252.051
-252.619
-253.203
-253.804
-254.422
-255.057
-255.709
-256.377
-257.062
-257.764
-258.482
-259.218
-259.969
-260.738
-261.522
-262.323
-263.139
-263.971
-264.819
-265.68
-266.556
-267.445
-268.345
-269.256
-270.174
-271.094
-272.02
-272.916
-273.818
-274.607
-275.122
-189.248
-190.692
-191.747
-192.617
-193.638
-194.92
-196.422
-198.091
-199.918
-201.915
-204.09
-206.435
-208.932
-211.557
-214.287
-217.098
-219.958
-222.832
-225.682
-228.468
-231.156
-233.713
-236.116
-238.345
-240.39
-242.248
-243.922
-245.42
-246.752
-247.927
-248.956
-249.857
-250.639
-251.313
-251.901
-252.398
-252.751
-252.996
-253.133
-253.144
-253.026
-252.769
-252.36
-251.787
-251.054
-250.189
-249.243
-248.284
-247.374
-246.559
-245.861
-245.284
-244.817
-244.442
-244.143
-243.906
-243.721
-243.581
-243.479
-243.412
-243.379
-243.375
-243.401
-243.453
-243.532
-243.635
-243.761
-243.911
-244.082
-244.274
-244.488
-244.721
-244.974
-245.246
-245.537
-245.847
-246.174
-246.52
-246.883
-247.264
-247.663
-248.078
-248.511
-248.96
-249.427
-249.91
-250.411
-250.928
-251.461
-252.012
-252.579
-253.163
-253.764
-254.382
-255.016
-255.668
-256.336
-257.02
-257.722
-258.44
-259.175
-259.926
-260.694
-261.479
-262.279
-263.095
-263.927
-264.774
-265.636
-266.512
-267.4
-268.301
-269.211
-270.131
-271.052
-271.979
-272.878
-273.787
-274.586
-275.124
-191.404
-192.679
-193.609
-194.369
-195.247
-196.347
-197.633
-199.064
-200.629
-202.337
-204.199
-206.212
-208.367
-210.649
-213.041
-215.525
-218.081
-220.686
-223.308
-225.917
-228.48
-230.967
-233.351
-235.608
-237.719
-239.673
-241.463
-243.092
-244.564
-245.878
-247.044
-248.074
-248.974
-249.762
-250.438
-251.016
-251.484
-251.837
-252.064
-252.164
-252.136
-251.973
-251.669
-251.215
-250.611
-249.876
-249.049
-248.186
-247.343
-246.567
-245.887
-245.313
-244.84
-244.458
-244.151
-243.908
-243.717
-243.572
-243.466
-243.397
-243.361
-243.355
-243.379
-243.429
-243.506
-243.608
-243.733
-243.881
-244.051
-244.243
-244.455
-244.688
-244.94
-245.212
-245.502
-245.811
-246.138
-246.483
-246.846
-247.227
-247.624
-248.039
-248.472
-248.921
-249.387
-249.87
-250.37
-250.886
-251.42
-251.97
-252.537
-253.121
-253.721
-254.339
-254.973
-255.623
-256.291
-256.976
-257.677
-258.395
-259.129
-259.88
-260.648
-261.432
-262.232
-263.048
-263.88
-264.727
-265.588
-266.464
-267.353
-268.253
-269.164
-270.084
-271.006
-271.936
-272.838
-273.755
-274.561
-275.122
-193.454
-194.575
-195.394
-196.055
-196.802
-197.732
-198.829
-200.059
-201.407
-202.878
-204.48
-206.216
-208.083
-210.069
-212.164
-214.355
-216.628
-218.966
-221.347
-223.746
-226.141
-228.504
-230.81
-233.033
-235.151
-237.146
-239.005
-240.727
-242.308
-243.736
-245.024
-246.186
-247.186
-248.097
-248.893
-249.555
-250.112
-250.57
-250.904
-251.106
-251.175
-251.111
-250.912
-250.573
-250.095
-249.489
-248.785
-248.026
-247.261
-246.537
-245.885
-245.322
-244.851
-244.465
-244.152
-243.903
-243.708
-243.558
-243.45
-243.377
-243.339
-243.331
-243.353
-243.402
-243.477
-243.578
-243.702
-243.849
-244.018
-244.209
-244.42
-244.652
-244.904
-245.174
-245.464
-245.772
-246.099
-246.443
-246.806
-247.186
-247.583
-247.998
-248.429
-248.878
-249.344
-249.826
-250.326
-250.842
-251.375
-251.925
-252.492
-253.075
-253.675
-254.292
-254.926
-255.576
-256.244
-256.928
-257.628
-258.346
-259.08
-259.831
-260.598
-261.382
-262.182
-262.998
-263.829
-264.676
-265.537
-266.413
-267.302
-268.202
-269.114
-270.034
-270.957
-271.889
-272.794
-273.719
-274.534
-275.117
-195.27
-196.332
-197.15
-197.789
-198.455
-199.234
-200.16
-201.207
-202.352
-203.596
-204.951
-206.423
-208.012
-209.712
-211.524
-213.442
-215.451
-217.534
-219.674
-221.856
-224.06
-226.267
-228.453
-230.595
-232.671
-234.658
-236.546
-238.335
-240.004
-241.528
-242.887
-244.151
-245.344
-246.367
-247.243
-248.002
-248.65
-249.194
-249.638
-249.954
-250.132
-250.174
-250.083
-249.859
-249.504
-249.026
-248.445
-247.795
-247.12
-246.459
-245.847
-245.306
-244.843
-244.458
-244.143
-243.891
-243.691
-243.539
-243.427
-243.353
-243.312
-243.303
-243.323
-243.371
-243.445
-243.544
-243.667
-243.813
-243.981
-244.171
-244.382
-244.613
-244.864
-245.134
-245.423
-245.731
-246.056
-246.401
-246.762
-247.142
-247.539
-247.953
-248.384
-248.832
-249.298
-249.78
-250.279
-250.795
-251.327
-251.877
-252.443
-253.026
-253.625
-254.242
-254.875
-255.525
-256.192
-256.876
-257.577
-258.294
-259.028
-259.778
-260.545
-261.329
-262.128
-262.944
-263.775
-264.621
-265.483
-266.358
-267.247
-268.148
-269.059
-269.98
-270.904
-271.839
-272.747
-273.681
-274.502
-275.107
-196.842
-197.721
-198.399
-198.944
-199.562
-200.366
-201.296
-202.291
-203.343
-204.473
-205.698
-207.016
-208.411
-209.856
-211.4
-213.05
-214.794
-216.615
-218.503
-220.449
-222.44
-224.461
-226.492
-228.511
-230.495
-232.412
-234.215
-235.961
-237.645
-239.266
-240.817
-242.198
-243.415
-244.51
-245.496
-246.362
-247.104
-247.734
-248.265
-248.693
-248.993
-249.153
-249.176
-249.068
-248.834
-248.481
-248.024
-247.489
-246.91
-246.324
-245.765
-245.256
-244.811
-244.433
-244.12
-243.867
-243.666
-243.512
-243.398
-243.322
-243.28
-243.269
-243.288
-243.335
-243.408
-243.506
-243.628
-243.773
-243.941
-244.13
-244.34
-244.57
-244.82
-245.09
-245.378
-245.685
-246.011
-246.354
-246.715
-247.094
-247.491
-247.904
-248.335
-248.783
-249.248
-249.729
-250.228
-250.743
-251.276
-251.825
-252.39
-252.973
-253.572
-254.188
-254.821
-255.471
-256.137
-256.821
-257.521
-258.238
-258.971
-259.721
-260.488
-261.271
-262.07
-262.886
-263.717
-264.563
-265.424
-266.299
-267.188
-268.089
-269.001
-269.923
-270.848
-271.785
-272.697
-273.639
-274.467
-275.092
-198.646
-199.453
-200.059
-200.521
-201.009
-201.603
-202.297
-203.069
-203.91
-204.828
-205.837
-206.953
-208.196
-209.588
-211.062
-212.587
-214.161
-215.786
-217.468
-219.203
-220.983
-222.797
-224.635
-226.491
-228.358
-230.239
-232.14
-233.941
-235.624
-237.214
-238.71
-240.109
-241.415
-242.612
-243.686
-244.639
-245.477
-246.201
-246.815
-247.33
-247.744
-248.031
-248.18
-248.194
-248.082
-247.852
-247.519
-247.101
-246.626
-246.125
-245.629
-245.163
-244.746
-244.384
-244.079
-243.829
-243.629
-243.474
-243.36
-243.283
-243.24
-243.229
-243.247
-243.293
-243.365
-243.463
-243.584
-243.729
-243.896
-244.084
-244.293
-244.523
-244.772
-245.041
-245.329
-245.636
-245.961
-246.304
-246.665
-247.043
-247.439
-247.852
-248.282
-248.73
-249.194
-249.675
-250.173
-250.688
-251.22
-251.769
-252.334
-252.916
-253.515
-254.131
-254.763
-255.412
-256.078
-256.761
-257.461
-258.177
-258.911
-259.66
-260.427
-261.209
-262.008
-262.823
-263.654
-264.5
-265.361
-266.236
-267.125
-268.026
-268.939
-269.862
-270.788
-271.728
-272.643
-273.594
-274.427
-275.072
-200.281
-200.98
-201.5
-201.896
-202.323
-202.858
-203.498
-204.213
-204.988
-205.827
-206.74
-207.729
-208.793
-209.925
-211.124
-212.4
-213.759
-215.198
-216.711
-218.284
-219.91
-221.581
-223.288
-225.017
-226.754
-228.479
-230.179
-231.852
-233.497
-235.091
-236.619
-238.068
-239.422
-240.669
-241.813
-242.851
-243.779
-244.594
-245.299
-245.897
-246.397
-246.799
-247.078
-247.224
-247.24
-247.136
-246.926
-246.626
-246.259
-245.851
-245.43
-245.02
-244.64
-244.303
-244.013
-243.771
-243.576
-243.424
-243.311
-243.235
-243.192
-243.181
-243.199
-243.244
-243.317
-243.414
-243.535
-243.679
-243.845
-244.033
-244.242
-244.471
-244.72
-244.989
-245.276
-245.582
-245.907
-246.249
-246.61
-246.987
-247.383
-247.796
-248.225
-248.672
-249.136
-249.617
-250.115
-250.629
-251.16
-251.709
-252.273
-252.855
-253.453
-254.069
-254.701
-255.35
-256.015
-256.698
-257.397
-258.113
-258.846
-259.595
-260.361
-261.143
-261.942
-262.756
-263.587
-264.433
-265.293
-266.169
-267.058
-267.959
-268.872
-269.796
-270.724
-271.667
-272.585
-273.545
-274.383
-275.046
-201.881
-202.506
-202.972
-203.326
-203.701
-204.163
-204.705
-205.305
-205.95
-206.647
-207.407
-208.237
-209.143
-210.127
-211.192
-212.334
-213.548
-214.827
-216.166
-217.558
-219
-220.487
-222.014
-223.575
-225.165
-226.774
-228.396
-230.013
-231.601
-233.147
-234.642