/*--------------------------------*- C++ -*----------------------------------*\
| =========                 |                                                 |
| \\      /  F ield         | OpenFOAM: The Open Source CFD Toolbox           |
|  \\    /   O peration     | Version:  2412                                  |
|   \\  /    A nd           | Website:  www.openfoam.com                      |
|    \\/     M anipulation  |                                                 |
\*---------------------------------------------------------------------------*/
FoamFile
{
    version     2.0;
    format      ascii;
    arch        "LSB;label=32;scalar=64";
    class       surfaceScalarField;
    location    "1.235";
    object      phi;
}
// * * * * * * * * * * * * * * * * * * * * * * * * * * * * * * * * * * * * * //

dimensions      [0 3 -1 0 0 0 0];

oriented        oriented;

internalField   nonuniform List<scalar> 
24930
(
0.0179818
0.0127738
-0.0307549
0.010609
0.00737281
0.00695434
0.00365462
0.00517652
0.00177782
0.00420362
0.000972904
0.00358022
0.000623392
0.00313398
0.000446248
0.00279425
0.000339721
0.00252492
0.000269334
0.00230489
0.000220031
0.002121
0.000183893
0.0019645
0.000156494
0.00182935
0.00013515
0.00171119
0.000118156
0.00160682
0.000104376
0.00151379
9.30252e-05
0.00143024
8.35489e-05
0.0013547
7.55438e-05
0.00128599
6.87115e-05
0.00122316
6.28265e-05
0.00116544
5.77161e-05
0.00111219
5.32458e-05
0.00106288
4.93097e-05
0.00101706
4.58234e-05
0.000974341
4.27186e-05
0.0009344
3.99402e-05
0.000896957
3.74427e-05
0.000861768
3.51884e-05
0.000828622
3.31461e-05
0.000797332
3.12895e-05
0.000767736
2.95965e-05
0.000739688
2.80481e-05
0.000713059
2.66283e-05
0.000687736
2.53232e-05
0.000663616
2.4121e-05
0.000640605
2.30113e-05
0.00061862
2.19854e-05
0.000597585
2.1035e-05
0.000577431
2.01539e-05
0.000558096
1.93353e-05
0.000539522
1.85749e-05
0.000521655
1.78667e-05
0.000504447
1.72084e-05
0.000487854
1.65938e-05
0.000471831
1.60231e-05
0.000456342
1.54887e-05
0.000441348
1.49943e-05
0.000426818
1.45295e-05
0.000412716
1.41024e-05
0.000399017
1.36984e-05
0.000385685
1.33321e-05
0.000372704
1.29816e-05
0.000360033
1.26709e-05
0.000347665
1.23675e-05
0.000335556
1.21091e-05
0.000323709
1.18472e-05
0.000312071
1.16388e-05
0.000300658
1.14131e-05
0.000289404
1.12537e-05
0.000278346
1.10589e-05
0.000267397
1.09489e-05
0.000256618
1.07794e-05
0.000245897
1.07204e-05
0.000235328
1.05695e-05
0.000224763
1.05645e-05
0.000214338
1.04246e-05
0.00020386
1.04772e-05
0.000193521
1.03388e-05
0.000183067
1.04529e-05
0.000172763
1.03041e-05
0.000162279
1.04834e-05
0.000151968
1.03103e-05
0.000141411
1.05571e-05
0.000131065
1.03455e-05
0.000120408
1.06565e-05
0.00011001
1.03978e-05
9.92595e-05
1.07506e-05
8.87978e-05
1.04615e-05
7.80148e-05
1.07828e-05
6.74623e-05
1.05522e-05
5.67988e-05
1.06633e-05
4.61004e-05
1.06981e-05
3.57691e-05
1.0331e-05
2.50324e-05
1.07362e-05
1.49575e-05
1.00748e-05
4.56057e-06
1.03962e-05
-5.28372e-06
9.84425e-06
-1.40302e-05
8.74615e-06
-2.65303e-05
1.25004e-05
-3.01858e-05
3.65549e-06
-4.79357e-05
1.77499e-05
-4.60442e-05
-1.89033e-06
-6.80022e-05
2.19571e-05
-6.29357e-05
-5.06567e-06
-8.06602e-05
1.77216e-05
-9.28191e-05
1.21622e-05
-8.83698e-05
-4.35687e-06
-0.000106596
1.82251e-05
-8.77587e-05
-1.88411e-05
-0.000151155
6.3402e-05
-9.5226e-05
-5.59281e-05
-0.000161461
6.62287e-05
-0.000140885
-2.05688e-05
-0.000160411
1.95203e-05
-0.000208803
4.83977e-05
-0.000170303
-3.84965e-05
-0.000185042
1.47281e-05
-0.00024939
6.43546e-05
-0.000262937
1.35463e-05
-0.000198495
-6.44535e-05
-0.000343697
0.000145206
-0.000247926
-9.57659e-05
-0.000310491
6.25564e-05
-0.000378712
6.82314e-05
-0.000231237
-0.00014748
-0.000328005
9.6766e-05
-0.000454323
0.000126328
-0.000266244
-0.000188081
-0.000194346
-7.19057e-05
-3.97893e-05
0.0337026
0.0163443
-0.0372731
0.0277587
0.0133167
0.0221997
0.00921363
0.0179208
0.0060567
0.0148716
0.00402215
0.0127091
0.00278589
0.0111207
0.00203466
0.00990266
0.00155772
0.00893475
0.00123725
0.00814388
0.0010109
0.00748326
0.000844518
0.00692154
0.000718209
0.00643693
0.00061976
0.00601373
0.000541351
0.00564034
0.000477763
0.00530797
0.000425393
0.00500984
0.000381681
0.00474062
0.000344769
0.00449605
0.000313277
0.00427271
0.000286165
0.00406779
0.000262634
0.00387897
0.000242062
0.00370432
0.000223958
0.00354221
0.000207932
0.00339126
0.000193668
0.00325029
0.00018091
0.00311828
0.000169449
0.00299436
0.00015911
0.00287776
0.000149748
0.00276781
0.000141241
0.00266391
0.000133487
0.00256556
0.0001264
0.00247229
0.000119904
0.00238368
0.000113935
0.00229936
0.000108439
0.002219
0.000103368
0.00214231
9.86808e-05
0.002069
9.43407e-05
0.00199884
9.03173e-05
0.0019316
8.6581e-05
0.00186706
8.31101e-05
0.00180505
7.9879e-05
0.00174538
7.68741e-05
0.00168791
7.40712e-05
0.00163247
7.14649e-05
0.00157893
6.90292e-05
0.00152715
6.67685e-05
0.00147703
6.46512e-05
0.00142844
6.26946e-05
0.00138128
6.08561e-05
0.00133544
5.91714e-05
0.00129084
5.75791e-05
0.00124737
5.61416e-05
0.00120497
5.47683e-05
0.00116352
5.35594e-05
0.00112299
5.23816e-05
0.00108324
5.13884e-05
0.00104427
5.03849e-05
0.00100592
4.95993e-05
0.00096823
4.875e-05
0.000931011
4.81685e-05
0.000894338
4.74532e-05
0.000857982
4.70767e-05
0.000822078
4.64733e-05
0.000786335
4.63075e-05
0.00075097
4.57895e-05
0.000715604
4.58424e-05
0.000680565
4.53766e-05
0.000645361
4.56566e-05
0.000610464
4.52002e-05
0.000575229
4.57174e-05
0.000540323
4.52147e-05
0.000504899
4.59803e-05
0.000469882
4.53621e-05
0.000434158
4.63804e-05
0.000398979
4.55763e-05
0.000362925
4.68034e-05
0.000327573
4.58134e-05
0.000291337
4.70184e-05
0.000255732
4.6157e-05
0.000219843
4.65522e-05
0.000183593
4.69476e-05
0.000149213
4.47104e-05
0.000111892
4.80562e-05
7.9529e-05
4.24374e-05
4.28676e-05
4.70574e-05
1.17905e-05
4.09205e-05
-2.2923e-05
4.34592e-05
-5.76985e-05
4.72751e-05
-7.93353e-05
2.52923e-05
-0.000129311
6.77256e-05
-0.000132912
1.70816e-06
-0.000199316
8.83616e-05
-0.000184559
-1.98231e-05
-0.000253347
8.65104e-05
-0.00027504
3.38531e-05
-0.000284689
5.20235e-06
-0.000318437
5.19748e-05
-0.000293568
-4.37096e-05
-0.000454379
0.00022421
-0.000311549
-0.000198757
-0.000504311
0.000258991
-0.000447057
-7.78238e-05
-0.000524608
9.70746e-05
-0.00065405
0.000177836
-0.000548169
-0.000144376
-0.000599135
6.57027e-05
-0.000810581
0.000275799
-0.00080584
8.89865e-06
-0.000671158
-0.000199129
-0.00106681
0.000540863
-0.000795145
-0.000367435
-0.00100575
0.000273161
-0.00117116
0.00023364
-0.000742435
-0.000576203
-0.00107517
0.000429506
-0.00136833
0.000419483
-0.000820611
-0.000735801
-0.000589383
-0.000303129
-0.00015969
0.0414759
0.0160414
-0.041173
0.0391818
0.0156107
0.0352467
0.0131488
0.0309552
0.0103482
0.027036
0.0079413
0.0237437
0.0060782
0.0210668
0.00471153
0.0188963
0.00372827
0.0171172
0.00301631
0.0156369
0.00249119
0.0143864
0.0020951
0.0133151
0.00178945
0.0123863
0.00154861
0.0115723
0.00135532
0.0108524
0.00119768
0.0102105
0.0010673
0.00963401
0.000958125
0.00911308
0.000865702
0.00863965
0.0007867
0.00820723
0.000718584
0.00781047
0.000659395
0.00744493
0.000607602
0.00710689
0.000561992
0.00679323
0.000521595
0.00650127
0.000485626
0.00622873
0.000453447
0.00597365
0.00042453
0.00573432
0.000398441
0.00550925
0.000374816
0.00529714
0.000353349
0.00509684
0.000333783
0.00490735
0.000315897
0.00472775
0.000299505
0.00455724
0.000284444
0.0043951
0.000270577
0.00424069
0.000257783
0.00409341
0.000245959
0.00395274
0.00023501
0.0038182
0.000224861
0.00368934
0.000215436
0.00356577
0.00020668
0.00344712
0.000198531
0.00333305
0.000190949
0.00322324
0.00018388
0.0031174
0.000177301
0.00301528
0.000171157
0.0029166
0.000165447
0.00282114
0.000160106
0.00272868
0.000155158
0.00263902
0.000150521
0.00255194
0.000146251
0.00246728
0.000142236
0.00238484
0.00013858
0.00230449
0.00013512
0.00222602
0.000132029
0.00214933
0.000129068
0.00207422
0.000126504
0.00200061
0.000123992
0.00192828
0.000121931
0.00185721
0.000119821
0.00178713
0.000118249
0.00171809
0.000116498
0.00164976
0.000115408
0.00158226
0.000113968
0.0015152
0.000113367
0.00144881
0.000112183
0.00138257
0.000112081
0.00131686
0.000111082
0.00125103
0.000111489
0.00118564
0.000110582
0.00111984
0.000111516
0.00105449
0.00011057
0.000988407
0.00011206
0.000922868
0.0001109
0.00085627
0.000112978
0.00079045
0.000111396
0.000723234
0.000114019
0.00065712
0.000111927
0.000589492
0.000114646
0.000522945
0.000112703
0.000455858
0.000113639
0.000388037
0.000114769
0.000323874
0.000108872
0.000253359
0.000118571
0.000193755
0.000102041
0.000123525
0.000117287
6.54466e-05
9.89981e-05
-2.9183e-06
0.000111824
-6.15159e-05
0.000105872
-0.000109252
7.30277e-05
-0.000195046
0.000153519
-0.000210066
1.67302e-05
-0.000327017
0.000205312
-0.000304003
-4.28371e-05
-0.000437403
0.000219911
-0.000464634
6.10851e-05
-0.000500019
4.05846e-05
-0.00054686
9.88159e-05
-0.000528489
-6.20782e-05
-0.000783367
0.000479088
-0.000554969
-0.000427155
-0.000889437
0.000593461
-0.000789895
-0.000177366
-0.000946936
0.000254115
-0.00115305
0.000383951
-0.000979939
-0.000317486
-0.00108391
0.000169671
-0.00145209
0.000643981
-0.00140965
-3.36631e-05
-0.00123169
-0.000377095
-0.0018765
0.00118567
-0.00141286
-0.000831075
-0.00180639
0.000666693
-0.00204212
0.00046938
-0.0013279
-0.00129042
-0.00193643
0.00103803
-0.00234045
0.000823511
-0.00140582
-0.00167043
-0.00101005
-0.0006989
-0.000385542
0.0459393
0.0147422
-0.0446401
0.0460205
0.0155296
0.0444383
0.0147309
0.0417105
0.013076
0.0384626
0.0111892
0.0351538
0.00938704
0.0320518
0.00781349
0.0292713
0.00650886
0.0268309
0.00545669
0.0247046
0.00461749
0.0228511
0.00394853
0.0212286
0.003412
0.0197997
0.00297755
0.0185331
0.00262189
0.0174033
0.00232752
0.0163893
0.00208128
0.0154741
0.00187326
0.0146439
0.00169593
0.0138871
0.0015435
0.0131942
0.00141148
0.0125573
0.00129633
0.0119696
0.00119526
0.0114256
0.00110603
0.0109204
0.00102682
0.0104498
0.00095618
0.0100104
0.000892884
0.00959896
0.000835934
0.0092129
0.000784499
0.00884984
0.000737879
0.00850771
0.000695486
0.00818467
0.00065682
0.00787911
0.000621455
0.00758959
0.000589028
0.00731481
0.000559224
0.00705361
0.000531772
0.00680496
0.000506436
0.00656791
0.000483013
0.0063416
0.000461321
0.00612525
0.000441205
0.00591816
0.000422524
0.00571968
0.000405163
0.00552921
0.000389002
0.0053462
0.000373961
0.00517014
0.000359937
0.00500056
0.000346878
0.00483704
0.000334686
0.00467914
0.000323341
0.00452651
0.000312737
0.00437877
0.000302895
0.00423561
0.000293684
0.00409668
0.000285177
0.00396172
0.000277198
0.00383041
0.000269896
0.00370251
0.000263019
0.00357772
0.00025682
0.00345585
0.000250935
0.00333659
0.000245764
0.00321981
0.000240776
0.00310516
0.000236576
0.00299258
0.0002324
0.00288169
0.000229138
0.0027725
0.000225692
0.00266456
0.000223349
0.00255798
0.000220551
0.00245222
0.000219127
0.00234752
0.000216878
0.00224322
0.000216385
0.00213974
0.000214562
0.00203622
0.000215009
0.00193335
0.000213442
0.00183001
0.000214857
0.00172727
0.000213308
0.00162359
0.000215744
0.00152061
0.000213873
0.00141618
0.000217413
0.00131279
0.000214783
0.0012074
0.000219413
0.00110356
0.000215761
0.000997448
0.000220759
0.000892961
0.00021719
0.000787516
0.000219083
0.000681053
0.000221231
0.000580013
0.000209912
0.000469016
0.000229567
0.00037552
0.000195536
0.000263947
0.000228859
0.000172953
0.000189992
6.73397e-05
0.000217436
-2.37104e-05
0.000196921
-0.000107241
0.000156558
-0.000234423
0.000280701
-0.000266806
4.91121e-05
-0.000442458
0.000380963
-0.000414046
-7.12486e-05
-0.000624675
0.000430541
-0.000656801
9.32084e-05
-0.000727866
0.000111651
-0.00079035
0.000161301
-0.00078755
-6.48826e-05
-0.00113739
0.000828929
-0.00082175
-0.000742798
-0.00131737
0.00108908
-0.0011673
-0.000327436
-0.00142707
0.000513888
-0.00170667
0.000663551
-0.00146708
-0.000557077
-0.0016448
0.0003474
-0.00217094
0.00117012
-0.00208076
-0.000123768
-0.00188225
-0.000575602
-0.00277563
0.00207905
-0.00209988
-0.00150682
-0.00271226
0.00127907
-0.00298956
0.000746679
-0.00199046
-0.00228952
-0.00290642
0.00195399
-0.00336028
0.00127737
-0.00200933
-0.00302138
-0.00144662
-0.0012616
-0.000758973
0.0494061
0.0135481
-0.048212
0.050369
0.0145667
0.0503854
0.0147145
0.0493608
0.0141006
0.0475131
0.013037
0.0451349
0.0117652
0.0424984
0.01045
0.0398102
0.00919709
0.0372052
0.0080617
0.0347579
0.00706473
0.0325007
0.00620579
0.0304393
0.00547338
0.0285653
0.00485148
0.0268638
0.00432341
0.0253176
0.00387375
0.0239097
0.00348918
0.0226244
0.00315855
0.0214476
0.00287268
0.020367
0.00262411
0.0193717
0.00240678
0.0184523
0.00221574
0.0176006
0.00204696
0.0168095
0.00189712
0.0160728
0.00176351
0.0153851
0.00164385
0.0147418
0.00153628
0.0141385
0.00143921
0.0135717
0.00135131
0.0130381
0.00127147
0.0125348
0.00119872
0.0120594
0.00113226
0.0116095
0.00107139
0.011183
0.0010155
0.0107781
0.000964072
0.0103933
0.000916654
0.0100269
0.000872852
0.00967754
0.000832323
0.0093441
0.000794762
0.0090254
0.000759907
0.00872041
0.000727518
0.00842817
0.000697398
0.00814783
0.000669349
0.00787857
0.000643226
0.00761964
0.00061886
0.00737037
0.000596155
0.0071301
0.000574952
0.00689824
0.000555204
0.00667423
0.000536746
0.00645753
0.000519591
0.00624768
0.000503541
0.00604417
0.000488688
0.00584659
0.000474774
0.00565449
0.000461995
0.00546752
0.000449991
0.00528523
0.000439108
0.00510734
0.000428827
0.0049334
0.000419704
0.00476319
0.000410986
0.00459625
0.000403523
0.00443242
0.000396226
0.0042712
0.000390355
0.00411255
0.000384346
0.00395587
0.000380029
0.00380125
0.000375174
0.00364797
0.000372402
0.0034963
0.000368547
0.00334536
0.000367326
0.00319565
0.000364275
0.00304604
0.000364615
0.00289738
0.000362098
0.0027482
0.000364035
0.00259985
0.00036166
0.00245031
0.000365285
0.0023017
0.000362481
0.00215116
0.000367954
0.00200199
0.000363954
0.00185008
0.000371321
0.00170026
0.000365577
0.00154723
0.00037379
0.00139648
0.000367939
0.00124415
0.000371415
0.00109063
0.000374744
0.000944184
0.000356362
0.000784061
0.000389689
0.00064849
0.000331106
0.00048644
0.000390909
0.000354944
0.000321487
0.000201903
0.000370477
6.89694e-05
0.000329854
-5.77229e-05
0.00028325
-0.000231862
0.000454839
-0.000289394
0.000106645
-0.000532842
0.000624411
-0.000503385
-0.000100706
-0.000805034
0.00073219
-0.000842177
0.000130352
-0.000961063
0.000230536
-0.00104276
0.000242997
-0.00106552
-4.20994e-05
-0.00151095
0.00127436
-0.00110846
-0.00114529
-0.0017842
0.00176483
-0.00157535
-0.00053629
-0.00196375
0.000902295
-0.00231167
0.00101147
-0.00201121
-0.000857539
-0.00228341
0.000619603
-0.00296468
0.00185139
-0.00282129
-0.000267214
-0.00262595
-0.00077093
-0.00376075
0.00321385
-0.00285576
-0.00241181
-0.00372057
0.00214389
-0.00400573
0.00103183
-0.00273055
-0.00356469
-0.00397719
0.00320064
-0.00441
0.00171017
-0.00261848
-0.0048129
-0.00188163
-0.00199845
-0.00133813
0.0528652
0.0126502
-0.0519673
0.053893
0.0135389
0.0545759
0.0140316
0.0546433
0.0140331
0.0540428
0.0136375
0.0528435
0.0129644
0.0511749
0.0121186
0.0491835
0.0111885
0.0470042
0.010241
0.0447476
0.00932136
0.042496
0.00845737
0.0403056
0.00766379
0.0382109
0.00694612
0.0362306
0.00630377
0.0343718
0.00573247
0.0326349
0.00522609
0.0310157
0.00477775
0.0295078
0.00438065
0.0281035
0.00402839
0.026795
0.00371523
0.0255747
0.00343608
0.0244351
0.00318653
0.0233695
0.00296278
0.0223714
0.00276153
0.0214353
0.00257998
0.0205559
0.00241572
0.0197284
0.00226668
0.0189486
0.00213108
0.0182127
0.00200739
0.0175171
0.00189428
0.0168588
0.0017906
0.0162348
0.00169537
0.0156426
0.00160771
0.0150798
0.00152686
0.0145443
0.00145217
0.0140341
0.00138304
0.0135475
0.00131898
0.0130827
0.00125952
0.0126383
0.00120427
0.012213
0.00115286
0.0118054
0.001105
0.0114143
0.00106039
0.0110388
0.0010188
0.0106777
0.00097997
0.0103301
0.000943751
0.00999512
0.000909905
0.00967197
0.000878348
0.00935988
0.000848837
0.0090581
0.000821373
0.00876597
0.000795674
0.00848281
0.000771848
0.00820805
0.000749534
0.00794106
0.000728986
0.00768134
0.000709707
0.00742829
0.000692154
0.00718151
0.000675617
0.00694037
0.000660841
0.00670456
0.000646798
0.00647344
0.000634637
0.0062468
0.000622869
0.00602395
0.000613208
0.00580478
0.000603515
0.00558852
0.000596287
0.00537523
0.000588467
0.00516398
0.000583649
0.00495506
0.000577473
0.00474732
0.000575065
0.00454134
0.000570245
0.0043357
0.000570255
0.00413141
0.000566389
0.00392658
0.000568865
0.00372288
0.000565361
0.00351772
0.000570443
0.00331378
0.000566424
0.00310735
0.000574376
0.00290268
0.00056863
0.0026944
0.000579597
0.00248882
0.000571158
0.00227888
0.000583723
0.002072
0.000574823
0.00186265
0.000580762
0.0016521
0.000585292
0.00145005
0.000558411
0.00123059
0.000609154
0.00104303
0.000518661
0.000819782
0.000614156
0.000638455
0.000502813
0.00042687
0.000582061
0.000241877
0.000514846
6.39196e-05
0.000461208
-0.000166086
0.000684845
-0.000259547
0.000200105
-0.000580684
0.000945547
-0.000556446
-0.000124942
-0.000964098
0.00113984
-0.00100729
0.000173542
-0.0011891
0.000412348
-0.00129408
0.00034798
-0.00135427
1.80605e-05
-0.00189524
0.00181533
-0.0014095
-0.00163104
-0.00228231
0.00263764
-0.00200767
-0.000810931
-0.0025524
0.00144703
-0.00296169
0.00142076
-0.00261225
-0.00120699
-0.00299771
0.00100508
-0.00382803
0.0026817
-0.00363107
-0.000464159
-0.00346299
-0.000939003
-0.00482424
0.00457509
-0.00367803
-0.00355801
-0.004823
0.00328886
-0.00507866
0.00128749
-0.00354511
-0.00509824
-0.00513364
0.00478917
-0.00546589
0.00204243
-0.00321605
-0.00706274
-0.00228819
-0.0029263
-0.00220144
0.0565861
0.0119634
-0.0558993
0.0574393
0.0126857
0.0582353
0.0132356
0.0587611
0.0135073
0.0588946
0.013504
0.0585899
0.0132691
0.0578564
0.0128521
0.0567419
0.012303
0.055315
0.011668
0.0536511
0.0109852
0.0518237
0.0102847
0.0498983
0.00958919
0.0479295
0.0089149
0.0459604
0.00827286
0.0440231
0.00766982
0.04214
0.00710919
0.0403258
0.00659193
0.0385892
0.00611724
0.0369344
0.00568318
0.0353625
0.00528717
0.0338723
0.00492625
0.0324614
0.00459743
0.0311264
0.00429773
0.0298636
0.00402435
0.0286689
0.00377471
0.0275382
0.00354643
0.0264675
0.00333738
0.0254529
0.00314563
0.0244908
0.00296946
0.0235778
0.00280735
0.0227104
0.00265794
0.0218858
0.00252
0.021101
0.00239248
0.0203535
0.0022744
0.0196407
0.00216493
0.0189605
0.00206329
0.0183106
0.00196883
0.0176892
0.00188093
0.0170944
0.00179906
0.0165246
0.00172272
0.0159781
0.00165151
0.0154535
0.00158501
0.0149493
0.00152291
0.0144645
0.00146485
0.0139976
0.00141061
0.0135477
0.00135985
0.0131135
0.00131246
0.0126943
0.0012681
0.0122889
0.00122675
0.0118965
0.00118803
0.0115163
0.00115206
0.0111475
0.00111837
0.0107892
0.00108726
0.0104408
0.00105809
0.0101016
0.00103143
0.00977083
0.00100635
0.00944785
0.000983822
0.00913217
0.000962477
0.00882298
0.000943834
0.00851994
0.00092591
0.00822217
0.000910978
0.00792949
0.000896188
0.00764092
0.000884864
0.00735646
0.000872921
0.00707495
0.000865162
0.00679667
0.000855747
0.00652019
0.000851547
0.00624618
0.000844255
0.00597281
0.000843621
0.00570132
0.000837883
0.0054293
0.000840882
0.0051588
0.000835855
0.00488655
0.000842691
0.00461587
0.000837106
0.00434206
0.000848182
0.00407044
0.000840249
0.00379419
0.000855851
0.00352131
0.000844038
0.00324269
0.000862336
0.00296801
0.000849509
0.00268967
0.000859099
0.00241026
0.000864702
0.00214049
0.000828183
0.0018496
0.000900043
0.00159811
0.000770152
0.00130103
0.000911231
0.00105848
0.000745363
0.00077536
0.00086518
0.000527827
0.000762378
0.00028962
0.000699415
-4.94995e-06
0.000979413
-0.000153317
0.000348473
-0.000562374
0.0013546
-0.000551868
-0.00013545
-0.00108196
0.00166993
-0.0011334
0.000224984
-0.00139688
0.000675823
-0.00152942
0.000480525
-0.00164164
0.000130303
-0.00227742
0.00245111
-0.00171614
-0.00219232
-0.00279956
0.00372107
-0.00245416
-0.00115633
-0.00318377
0.00217664
-0.00364643
0.00188342
-0.00326709
-0.00158633
-0.00378083
0.00151882
-0.00475243
0.0036533
-0.00450671
-0.000709887
-0.00438888
-0.00105683
-0.0059542
0.00614041
-0.00456123
-0.00495098
-0.00600402
0.00473166
-0.00619145
0.00147492
-0.00442513
-0.00686456
-0.00635188
0.00671593
-0.00649857
0.0021891
-0.00377853
-0.00978278
-0.00262761
-0.00407721
-0.00345154
0.0605923
0.0114004
-0.0600293
0.0612765
0.0120016
0.0619907
0.0125214
0.0626121
0.0128858
0.0630433
0.0130729
0.0632201
0.0130923
0.063107
0.0129652
0.0626935
0.0127165
0.0619899
0.0123716
0.0610207
0.0119544
0.0598204
0.011485
0.0584288
0.0109808
0.0568871
0.0104566
0.0552355
0.0099245
0.0535108
0.00939448
0.0517456
0.00887441
0.0499671
0.00837037
0.0481976
0.00788676
0.0464542
0.00742656
0.0447499
0.00699154
0.0430937
0.00658246
0.0414918
0.00619931
0.0399479
0.00584154
0.0384641
0.00550819
0.0370408
0.00519804
0.0356775
0.00490973
0.034373
0.00464187
0.0331256
0.00439302
0.0319332
0.00416181
0.0307937
0.0039469
0.0297046
0.00374706
0.0286635
0.0035611
0.027668
0.00338796
0.0267158
0.00322663
0.0258045
0.0030762
0.024932
0.00293582
0.0240961
0.00280474
0.0232947
0.00268226
0.022526
0.00256774
0.0217882
0.0024606
0.0210793
0.00236034
0.0203979
0.00226643
0.0197423
0.0021785
0.0191111
0.0020961
0.0185028
0.00201893
0.017916
0.00194659
0.0173496
0.00187889
0.0168023
0.00181541
0.0162729
0.00175612
0.0157604
0.00170052
0.0152637
0.00164877
0.0147818
0.00160024
0.0143138
0.00155533
0.0138587
0.00151317
0.0134156
0.00147455
0.0129837
0.00143821
0.0125621
0.00140542
0.0121502
0.0013744
0.0117469
0.00134713
0.0113518
0.00132101
0.0109638
0.00129901
0.0105826
0.0012774
0.0102069
0.00126052
0.0098368
0.00124303
0.00947074
0.00123122
0.00910907
0.00121742
0.00874995
0.00121067
0.00839419
0.00120001
0.00803948
0.00119833
0.00768731
0.00119005
0.00733466
0.00119353
0.00698403
0.00118648
0.0066313
0.00119542
0.00628057
0.00118784
0.00592594
0.00120281
0.005574
0.00119219
0.00521619
0.00121367
0.00486249
0.00119774
0.00450138
0.00122344
0.00414517
0.00120572
0.00378374
0.00122052
0.00342152
0.00122692
0.00306967
0.00118003
0.00269311
0.00127661
0.00236336
0.0010999
0.0019776
0.00129699
0.00166001
0.00106295
0.00129002
0.00123517
0.000966702
0.00108569
0.00065187
0.00101425
0.000266025
0.00136526
6.21918e-05
0.000552305
-0.000446367
0.00186316
-0.000460792
-0.000121022
-0.00113154
0.00234069
-0.00119492
0.000288358
-0.00156304
0.00104395
-0.00172737
0.000644852
-0.00190995
0.000312874
-0.00263943
0.00318059
-0.00201529
-0.00281647
-0.00331813
0.00502392
-0.00290012
-0.00157434
-0.00384234
0.00311887
-0.00435044
0.00239151
-0.00396812
-0.00196865
-0.00461958
0.00217028
-0.00572497
0.00475869
-0.00543982
-0.000995044
-0.00539264
-0.001104
-0.0071335
0.00788127
-0.00549556
-0.00658893
-0.00723924
0.00647534
-0.00732106
0.00155674
-0.00535347
-0.00883215
-0.00759747
0.00895993
-0.00747132
0.00206297
-0.0042731
-0.012981
-0.00284617
-0.00550413
-0.0052192
0.0648775
0.0109159
-0.064393
0.0654427
0.0114363
0.06605
0.0119141
0.0666344
0.0123015
0.067133
0.0125742
0.0674975
0.0127278
0.0676925
0.0127703
0.0676939
0.0127151
0.0674885
0.012577
0.0670723
0.0123707
0.0664488
0.0121085
0.0656285
0.011801
0.0646274
0.0114577
0.0634653
0.0110866
0.0621648
0.0106949
0.0607502
0.010289
0.0592457
0.00987483
0.0576749
0.0094576
0.0560594
0.00904201
0.0544189
0.00863213
0.05277
0.00823132
0.051127
0.00784228
0.0495015
0.00746703
0.0479027
0.00710703
0.0463376
0.00676317
0.0448114
0.00643594
0.0433278
0.00612545
0.0418893
0.00583153
0.0404972
0.00555383
0.0391523
0.00529181
0.0378545
0.00504487
0.0366033
0.00481231
0.0353979
0.00459342
0.034237
0.00438748
0.0331194
0.00419377
0.0320437
0.00401158
0.0310082
0.00384024
0.0300113
0.0036791
0.0290515
0.00352756
0.0281271
0.00338502
0.0272364
0.00325098
0.026378
0.00312489
0.0255501
0.00300634
0.0247514
0.00289482
0.0239803
0.00279003
0.0232355
0.00269147
0.0225154
0.00259897
0.0218188
0.00251199
0.0211444
0.00243054
0.0204909
0.00235398
0.0198572
0.00228254
0.019242
0.00221541
0.0186442
0.00215313
0.0180628
0.00209459
0.0174965
0.00204078
0.0169446
0.00199012
0.0164058
0.00194423
0.0158794
0.00190083
0.0153641
0.00186245
0.0148593
0.00182577
0.0143637
0.0017946
0.013877
0.00176414
0.0133975
0.00174001
0.0129252
0.00171527
0.0124584
0.00169809
0.0119972
0.00167853
0.0115396
0.00166832
0.0110864
0.00165323
0.0106347
0.00165001
0.0101864
0.00163838
0.00973759
0.0016423
0.00929145
0.00163262
0.00884279
0.00164408
0.00839662
0.001634
0.00794563
0.0016538
0.00749787
0.00163995
0.00704272
0.00166881
0.00659248
0.00164798
0.00613278
0.00168314
0.00567903
0.00165947
0.00521804
0.00168152
0.00475664
0.00168832
0.00430583
0.00163083
0.00382683
0.00175561
0.00340176
0.00152497
0.00290988
0.00178887
0.00250059
0.00147223
0.00202562
0.00171014
0.00161035
0.00150097
0.0012004
0.0014242
0.000711926
0.00185373
0.000439405
0.000824825
-0.000190448
0.00249302
-0.00024411
-6.73661e-05
-0.0010767
0.00317328
-0.00115725
0.000368905
-0.00165801
0.00154471
-0.00185796
0.000844806
-0.00213434
0.000589262
-0.0029562
0.00400244
-0.00228795
-0.00348471
-0.00381315
0.00654912
-0.00332481
-0.00206269
-0.00450456
0.00429863
-0.00505154
0.00293848
-0.00470105
-0.00231913
-0.00549275
0.00296199
-0.00672721
0.00599315
-0.00641469
-0.00130757
-0.00645468
-0.001064
-0.00833849
0.00976508
-0.00646516
-0.00846225
-0.00849362
0.00850381
-0.00843671
0.00149981
-0.00630157
-0.0109673
-0.00882361
0.011482
-0.00833849
0.00157782
-0.00465379
-0.0166657
-0.00287178
-0.00728614
-0.00766482
0.0694504
0.0104884
-0.0690229
0.0699338
0.0109529
0.0704541
0.0113938
0.0709755
0.01178
0.0714586
0.0120912
0.0718693
0.0123171
0.0721818
0.0124578
0.0723766
0.0125202
0.0724397
0.0125139
0.072361
0.0124494
0.0721336
0.0123359
0.0717537
0.012181
0.0712205
0.0119908
0.0705366
0.0117706
0.0697073
0.0115242
0.0687411
0.0112553
0.0676491
0.0109668
0.0664449
0.0106619
0.0651432
0.0103437
0.06376
0.0100153
0.0623114
0.00967997
0.0608129
0.00934076
0.0592793
0.00900061
0.0577241
0.00866221
0.0561594
0.00832794
0.0545955
0.00799983
0.0530414
0.00767956
0.0515044
0.00736847
0.0499907
0.00706758
0.0485049
0.00677759
0.0470508
0.00649898
0.0456311
0.006232
0.0442478
0.00597674
0.0429021
0.00573315
0.0415948
0.00550106
0.0403262
0.00528021
0.0390961
0.00507032
0.0379042
0.00487102
0.0367498
0.00468195
0.0356321
0.0045027
0.0345502
0.00433291
0.033503
0.00417214
0.0324892
0.00402006
0.0315078
0.00387622
0.0305575
0.00374036
0.029637
0.00361198
0.028745
0.00349096
0.0278803
0.00337672
0.0270415
0.00326933
0.0262274
0.00316805
0.0254368
0.00307321
0.0246683
0.00298384
0.0239208
0.00290065
0.0231931
0.00282228
0.0224839
0.00275
0.0217922
0.00268182
0.0211166
0.00261985
0.0204562
0.00256116
0.0198097
0.00250903
0.0191762
0.00245921
0.0185542
0.00241659
0.0179433
0.00237503
0.0173416
0.00234174
0.016749
0.00230786
0.0161633
0.00228385
0.0155848
0.00225697
0.0150109
0.00224228
0.0144426
0.00222153
0.0138763
0.00221624
0.0133144
0.00220034
0.012752
0.00220469
0.0121929
0.00219169
0.0116308
0.00220623
0.0110717
0.00219311
0.0105065
0.00221893
0.00994522
0.00220125
0.00937465
0.00223938
0.00880979
0.00221283
0.00823297
0.00225996
0.00766314
0.0022293
0.00708347
0.00226118
0.00650383
0.00226797
0.00593437
0.00220029
0.00533333
0.00235666
0.00479282
0.00206547
0.0041744
0.0024073
0.00365349
0.00199314
0.00305219
0.00231143
0.00252542
0.00202773
0.00199853
0.00195109
0.00138966
0.0024626
0.0010245
0.00118999
0.000256406
0.00326111
0.00014621
4.28365e-05
-0.000869955
0.00418945
-0.000973906
0.000472853
-0.00164141
0.00221221
-0.00188013
0.00108353
-0.00228055
0.000989687
-0.00319333
0.00491522
-0.00250717
-0.00417087
-0.00425087
0.00829282
-0.00369971
-0.00261385
-0.00513664
0.00573557
-0.00571866
0.0035205
-0.00544211
-0.00259568
-0.00636902
0.0038889
-0.00773319
0.00735732
-0.00740522
-0.00163554
-0.00754438
-0.000924824
-0.00953679
0.0117575
-0.0074456
-0.0105534
-0.00971965
0.0107779
-0.00949756
0.00127776
-0.00722565
-0.0132392
-0.0099688
0.0142251
-0.00904158
0.000650646
-0.00485645
-0.0208508
-0.00261053
-0.00953206
-0.0110044
0.0743307
0.0101053
-0.0739476
0.0747549
0.0105287
0.0752094
0.0109394
0.0756732
0.0113162
0.0761207
0.0116438
0.0765272
0.0119106
0.076873
0.0121121
0.0771433
0.0122498
0.0773279
0.0123293
0.0774195
0.0123578
0.0774121
0.0123432
0.0773008
0.0122923
0.077081
0.0122106
0.076749
0.0121026
0.0763017
0.0119716
0.075737
0.0118199
0.0750547
0.011649
0.0742567
0.0114599
0.0733468
0.0112536
0.0723309
0.0110311
0.0712171
0.0107938
0.0700149
0.010543
0.0687349
0.0102806
0.0673884
0.0100086
0.0659872
0.00972916
0.0645427
0.00944436
0.0630658
0.00915639
0.061567
0.00886731
0.0600556
0.008579
0.05854
0.00829317
0.0570276
0.00801132
0.0555249
0.00773472
0.0540372
0.00746443
0.0525691
0.00720129
0.0511242
0.00694597
0.0497054
0.00669896
0.0483151
0.00646063
0.046955
0.00623118
0.0456262
0.00601076
0.0443295
0.00579938
0.0430653
0.00559705
0.0418339
0.00540361
0.0406349
0.00521903
0.0394681
0.00504303
0.0383329
0.00487557
0.0372286
0.00471625
0.0361544
0.00456513
0.0351095
0.00442166
0.0340928
0.00428605
0.0331033
0.00415754
0.0321399
0.00403664
0.0312015
0.00392223
0.0302868
0.0038153
0.0293949
0.00371419
0.0285243
0.00362058
0.0276741
0.00353202
0.0268428
0.00345121
0.0260294
0.0033745
0.0252324
0.00330608
0.024451
0.00324059
0.0236833
0.00318427
0.022929
0.00312936
0.0221857
0.00308503
0.0214535
0.00304004
0.0207297
0.00300773
0.0200147
0.00297189
0.0193053
0.00295175
0.0186028
0.00292402
0.0179028
0.00291623
0.0172081
0.00289506
0.0165128
0.00289999
0.0158215
0.00288295
0.0151263
0.00290139
0.0144348
0.00288467
0.0137356
0.00291806
0.0130409
0.00289603
0.0123345
0.00294576
0.0116345
0.00291278
0.0109195
0.00297498
0.0102124
0.00293637
0.00949228
0.00298135
0.00877243
0.00298782
0.00806163
0.00291109
0.00731577
0.00310251
0.00663634
0.00274491
0.0058676
0.00317603
0.00521143
0.00264932
0.00445878
0.00306409
0.00379712
0.00268938
0.00312745
0.00262076
0.0023763
0.00321375
0.00189182
0.00167447
0.000963384
0.00418954
0.000766473
0.000239742
-0.000450734
0.00540665
-0.000581825
0.000603942
-0.00145909
0.00308947
-0.00173818
0.00136263
-0.00230192
0.00155343
-0.00330387
0.00591716
-0.00263529
-0.00483946
-0.00458634
0.0102439
-0.00398632
-0.00321388