/*--------------------------------*- C++ -*----------------------------------*\
| =========                 |                                                 |
| \\      /  F ield         | OpenFOAM: The Open Source CFD Toolbox           |
|  \\    /   O peration     | Version:  2412                                  |
|   \\  /    A nd           | Website:  www.openfoam.com                      |
|    \\/     M anipulation  |                                                 |
\*---------------------------------------------------------------------------*/
FoamFile
{
    version     2.0;
    format      ascii;
    arch        "LSB;label=32;scalar=64";
    class       volVectorField;
    location    "0.11";
    object      U;
}
// * * * * * * * * * * * * * * * * * * * * * * * * * * * * * * * * * * * * * //

dimensions      [0 1 -1 0 0 0 0];

internalField   nonuniform List<vector> 
12600
(
(22.1498 0 -1.74325)
(9.7099 -5.55389e-20 -2.15807)
(4.56166 -3.5364e-20 -2.17525)
(2.58081 0 -1.73007)
(1.79904 5.83089e-23 -1.26258)
(1.38697 0 -0.950072)
(1.11164 -1.46733e-20 -0.748637)
(0.911158 0 -0.609018)
(0.759394 0 -0.505875)
(0.641773 0 -0.426747)
(0.548415 0 -0.365011)
(0.472542 -7.95622e-20 -0.316264)
(0.410277 -8.43142e-20 -0.27648)
(0.358694 0 -0.243513)
(0.315569 1.81531e-19 -0.215927)
(0.279253 0 -0.192674)
(0.248513 4.82728e-22 -0.172969)
(0.222419 0 -0.156215)
(0.200254 9.67832e-20 -0.141955)
(0.181464 0 -0.129831)
(0.165617 0 -0.119564)
(0.152369 0 -0.110932)
(0.141447 3.89446e-19 -0.103757)
(0.13263 -3.87561e-19 -0.0978959)
(0.12577 -4.48612e-22 -0.0931946)
(0.120777 1.91121e-19 -0.089385)
(0.117337 0 -0.0865361)
(0.11574 0 -0.0844299)
(0.115878 0 -0.0833726)
(0.114907 -3.57909e-19 -0.0843217)
(0.116245 -7.41432e-19 -0.0839726)
(0.122012 0 -0.0830735)
(0.125965 0 -0.085986)
(0.129618 -3.37189e-19 -0.0883611)
(0.134352 -3.32373e-19 -0.0912263)
(0.140032 0 -0.0941139)
(0.146171 0 -0.0969874)
(0.152642 -6.31291e-19 -0.100055)
(0.159216 0 -0.103293)
(0.165797 5.56193e-22 -0.106596)
(0.172347 -5.8983e-19 -0.109913)
(0.178751 -5.76233e-19 -0.113184)
(0.184887 0 -0.116344)
(0.190654 -5.48014e-19 -0.119328)
(0.195968 -5.33608e-19 -0.122066)
(0.200867 1.03933e-18 -0.124587)
(0.205418 -1.01229e-18 -0.126937)
(0.20966 0 -0.129132)
(0.213622 9.57796e-19 -0.131187)
(0.217353 -9.31074e-19 -0.133129)
(0.220888 0 -0.134973)
(0.224254 -4.28503e-22 -0.136734)
(0.227477 8.53317e-19 -0.138423)
(0.230569 0 -0.140046)
(0.233537 -1.60655e-18 -0.141604)
(0.236384 0 -0.143098)
(0.239105 0 -0.144525)
(0.241694 5.72146e-22 -0.14588)
(0.244142 5.35136e-22 -0.147158)
(0.246442 1.37376e-18 -0.148355)
(0.248586 -1.33032e-18 -0.149465)
(0.250566 2.57409e-18 -0.150486)
(0.252378 0 -0.151414)
(0.254021 2.40757e-18 -0.15225)
(0.255494 2.32601e-18 -0.152994)
(0.256803 -4.49465e-18 -0.153648)
(0.257954 2.17036e-18 -0.154219)
(0.25896 0 -0.154712)
(0.259835 0 -0.155138)
(0.260598 0 -0.155506)
(0.261269 0 -0.15583)
(0.261874 0 -0.156123)
(0.262441 -3.48707e-18 -0.156402)
(0.263 3.3583e-18 -0.156685)
(0.26359 0 -0.156982)
(0.264243 0 -0.157318)
(0.264996 2.99061e-18 -0.157716)
(0.26589 -6.59301e-22 -0.158201)
(0.266969 5.52515e-18 -0.158799)
(0.268278 0 -0.159533)
(0.26987 0 -0.160436)
(0.271806 0 -0.161542)
(0.274143 -1.02088e-21 -0.162884)
(0.276942 0 -0.164499)
(0.280298 0 -0.166441)
(0.284321 4.13934e-18 -0.168773)
(0.289085 -8.4219e-22 -0.171538)
(0.294645 0 -0.17477)
(0.301157 0 -0.178562)
(0.308918 -6.96765e-18 -0.183082)
(0.318188 -6.67022e-18 -0.18847)
(0.328945 -6.3807e-18 -0.194707)
(0.340879 -6.10392e-18 -0.201612)
(0.353579 -1.20147e-21 -0.208956)
(0.366788 -1.1356e-21 -0.216596)
(0.380438 5.32622e-18 -0.224497)
(0.394598 0 -0.232698)
(0.409342 0 -0.241242)
(0.424725 0 -0.250158)
(0.440755 1.7658e-17 -0.259451)
(0.45746 -8.41488e-18 -0.269136)
(0.474821 8.0179e-18 -0.279204)
(0.492913 7.63778e-18 -0.289695)
(0.511653 0 -0.300566)
(0.531255 0 -0.311934)
(0.551434 0 -0.323643)
(0.572747 1.25191e-17 -0.336004)
(0.594433 0 -0.34859)
(0.617753 -1.13044e-17 -0.362115)
(0.641067 0 -0.375647)
(0.666679 0 -0.3905)
(0.692035 9.67556e-18 -0.405212)
(0.719747 0 -0.42134)
(0.74866 0 -0.438138)
(0.776862 0 -0.454587)
(0.813755 -1.56311e-17 -0.475958)
(0.838934 0 -0.490667)
(0.8944 1.40099e-17 -0.522718)
(0.918457 0 -0.536868)
(1.07611 8.86554e-22 -0.625743)
(34.8322 -1.45336e-20 -2.75175)
(25.5275 3.35357e-20 -4.75156)
(17.269 1.70583e-20 -5.71207)
(11.7242 0 -5.21485)
(8.43301 7.06106e-21 -4.22709)
(6.41174 5.11037e-21 -3.37382)
(5.08989 1.53042e-20 -2.73909)
(4.16301 -2.19757e-20 -2.26941)
(3.47614 0 -1.91229)
(2.94847 0 -1.63337)
(2.53248 0 -1.4113)
(2.19803 0 -1.23186)
(1.92522 0 -1.08417)
(1.69966 0 -0.961156)
(1.51126 -1.09193e-21 -0.857763)
(1.35263 0 -0.770256)
(1.21825 9.85324e-20 -0.695808)
(1.10395 0 -0.632249)
(1.0065 -2.00714e-19 -0.577893)
(0.923384 2.01116e-19 -0.531414)
(0.852639 0 -0.491761)
(0.79269 2.01543e-19 -0.458089)
(0.742272 -2.02045e-19 -0.429714)
(0.700369 2.00993e-19 -0.406078)
(0.666159 -1.99582e-19 -0.386813)
(0.638588 0 -0.371888)
(0.617159 1.9513e-19 -0.360482)
(0.601868 0 -0.351968)
(0.591827 0 -0.346526)
(0.584048 0 -0.345949)
(0.583846 3.82691e-19 -0.343027)
(0.589427 0 -0.341485)
(0.594532 0 -0.347194)
(0.602428 0 -0.353064)
(0.612879 0 -0.360574)
(0.626291 0 -0.368072)
(0.641284 0 -0.375998)
(0.657392 6.49509e-19 -0.384723)
(0.67425 0 -0.394073)
(0.691522 1.23924e-18 -0.403778)
(0.709041 1.20953e-18 -0.413626)
(0.726416 5.894e-19 -0.423363)
(0.743283 0 -0.432788)
(0.759263 0 -0.441681)
(0.774022 1.09015e-18 -0.449886)
(0.787683 -1.06121e-18 -0.457523)
(0.800461 1.03074e-18 -0.46468)
(0.812443 0 -0.471395)
(0.823711 -9.73234e-19 -0.477715)
(0.834398 0 -0.483717)
(0.844596 0 -0.489449)
(0.85437 -8.90795e-19 -0.494947)
(0.863777 0 -0.500243)
(0.872847 0 -0.505349)
(0.881585 1.62316e-18 -0.51027)
(0.889985 0 -0.514999)
(0.898027 0 -0.519525)
(0.905683 1.02023e-21 -0.523831)
(0.912923 1.42566e-18 -0.527899)
(0.919716 -8.84415e-22 -0.531712)
(0.926038 0 -0.535255)
(0.931869 -2.575e-18 -0.538518)
(0.937196 -2.48641e-18 -0.541492)
(0.942018 0 -0.544179)
(0.946345 -4.63454e-18 -0.546582)
(0.950197 1.15412e-21 -0.548714)
(0.953608 0 -0.550595)
(0.956622 2.0767e-18 -0.55225)
(0.959296 0 -0.553711)
(0.961697 0 -0.555018)
(0.963903 0 -0.556216)
(0.966002 0 -0.557354)
(0.968091 6.86577e-18 -0.558488)
(0.970276 -3.29967e-18 -0.55968)
(0.972659 0 -0.561011)
(0.97537 0 -0.562535)
(0.978536 2.9253e-18 -0.564326)
(0.982297 -1.05595e-21 -0.566464)
(0.986803 -9.95024e-22 -0.569034)
(0.992206 0 -0.572125)
(0.99869 0 -0.575843)
(1.00646 0 -0.580306)
(1.01572 -1.58089e-21 -0.58563)
(1.02669 -4.36147e-18 -0.591945)
(1.0397 4.17651e-18 -0.599444)
(1.05512 -3.99945e-18 -0.608334)
(1.07321 -1.2709e-21 -0.618765)
(1.09422 -3.66042e-18 -0.630879)
(1.11872 0 -0.645024)
(1.14764 6.6971e-18 -0.661731)
(1.18165 0 -0.681382)
(1.22052 6.11792e-18 -0.703815)
(1.26319 0 -0.728407)
(1.30842 -1.116e-17 -0.754442)
(1.35548 -5.32702e-18 -0.78152)
(1.40423 0 -0.809566)
(1.45492 0 -0.838726)
(1.50773 -9.24056e-18 -0.869116)
(1.56286 8.80649e-18 -0.900841)
(1.62029 -1.67819e-17 -0.933895)
(1.68018 7.99189e-18 -0.968352)
(1.74237 -7.60804e-18 -1.00415)
(1.80722 0 -1.04146)
(1.87434 6.88503e-18 -1.0801)
(1.94455 0 -1.12049)
(2.01679 0 -1.16209)
(2.09303 -1.18264e-17 -1.20595)
(2.17065 0 -1.25064)
(2.25388 2.74671e-21 -1.29854)
(2.33724 1.01242e-17 -1.34655)
(2.42836 0 -1.399)
(2.51874 0 -1.45103)
(2.6171 0 -1.50773)
(2.71925 8.18711e-18 -1.56654)
(2.81932 -1.55117e-17 -1.62431)
(2.94691 1.46946e-17 -1.69779)
(3.03581 0 -1.74932)
(3.21954 -1.31587e-17 -1.85556)
(3.29224 0 -1.89991)
(3.73405 2.34571e-17 -2.15745)
(38.3139 3.16997e-20 -3.03865)
(34.3292 -6.30459e-21 -4.86106)
(28.1495 2.18703e-20 -6.61356)
(21.945 0 -7.14999)
(16.8968 1.60355e-21 -6.70725)
(13.2065 1.21946e-21 -5.87355)
(10.5911 0 -5.026)
(8.69937 2.08548e-20 -4.2964)
(7.28434 0 -3.69726)
(6.19422 3.08046e-20 -3.20847)
(5.33462 0 -2.80729)
(4.64394 0 -2.47509)
(4.08018 0 -2.19774)
(3.6141 0 -1.96429)
(3.22484 -8.84441e-20 -1.76644)
(2.89708 0 -1.59782)
(2.61931 0 -1.45349)
(2.3828 0 -1.32957)
(2.1808 9.48912e-20 -1.22298)
(2.00801 -1.1649e-21 -1.13128)
(1.86028 0 -1.0525)
(1.73428 -9.97685e-22 -0.985022)
(1.6273 0 -0.927537)
(1.53713 -1.88913e-19 -0.878942)
(1.46185 0 -0.838384)
(1.39979 0 -0.805494)
(1.35001 -1.85081e-19 -0.779033)
(1.31167 0 -0.758146)
(1.28207 0 -0.744352)
(1.25991 -3.57426e-19 -0.736987)
(1.24993 0 -0.728023)
(1.24674 0 -0.724178)
(1.2463 0 -0.729148)
(1.25219 0 -0.734979)
(1.26433 3.25913e-19 -0.74102)
(1.27975 0 -0.750743)
(1.29832 0 -0.761327)
(1.31933 -6.12902e-19 -0.773189)
(1.34221 0 -0.786127)
(1.36636 -1.17166e-18 -0.79975)
(1.3914 -8.35568e-22 -0.813787)
(1.41666 -5.58004e-19 -0.82779)
(1.44151 0 -0.841436)
(1.46525 0 -0.854337)
(1.48727 -5.15472e-19 -0.866255)
(1.50777 0 -0.877425)
(1.52706 -9.75018e-19 -0.887997)
(1.54524 0 -0.897989)
(1.56244 8.63446e-22 -0.907475)
(1.57885 0 -0.916571)
(1.59461 0 -0.925331)
(1.60979 0 -0.933797)
(1.62447 -8.14953e-19 -0.942005)
(1.63869 0 -0.949963)
(1.65244 0 -0.957662)
(1.66569 0 -0.965083)
(1.6784 0 -0.972197)
(1.69051 2.77893e-18 -0.978971)
(1.70198 0 -0.985372)
(1.71273 -7.75043e-22 -0.991369)
(1.72274 0 -0.996937)
(1.73195 1.21382e-18 -1.00206)
(1.74036 2.3443e-18 -1.00672)
(1.74797 0 -1.01094)
(1.7548 4.36538e-18 -1.01471)
(1.76089 2.10551e-18 -1.01807)
(1.7663 0 -1.02106)
(1.77112 -1.95573e-18 -1.02372)
(1.77545 0 -1.02612)
(1.77942 0 -1.02833)
(1.78316 0 -1.03043)
(1.78683 0 -1.0325)
(1.7906 -1.24147e-21 -1.03466)
(1.79466 3.10305e-18 -1.037)
(1.79919 0 -1.03966)
(1.80442 0 -1.04274)
(1.81057 -9.5888e-22 -1.04636)
(1.81787 -5.27569e-18 -1.05068)
(1.82659 -2.53108e-18 -1.05584)
(1.837 0 -1.06199)
(1.84941 0 -1.06932)
(1.8642 0 -1.07804)
(1.8817 -8.54469e-18 -1.08836)
(1.90234 1.26115e-21 -1.10051)
(1.92669 -3.91788e-18 -1.11484)
(1.95539 0 -1.1317)
(1.9889 -3.5877e-18 -1.15136)
(2.02772 3.43163e-18 -1.17411)
(2.0729 0 -1.20061)
(2.12592 0 -1.23171)
(2.18776 5.99463e-18 -1.26789)
(2.25784 0 -1.30874)
(2.33437 5.47068e-18 -1.35315)
(2.41529 1.43691e-21 -1.39999)
(2.49954 4.98475e-18 -1.44869)
(2.58686 -4.75535e-18 -1.49918)
(2.67774 0 -1.55173)
(2.77239 8.64768e-18 -1.60649)
(2.87121 -8.24022e-18 -1.66364)
(2.97405 1.56963e-17 -1.72313)
(3.08129 0 -1.78513)
(3.19251 -7.1121e-18 -1.84947)
(3.30848 0 -1.9165)
(3.4283 -6.43798e-18 -1.98581)
(3.55362 6.11957e-18 -2.05824)
(3.68232 0 -2.1327)
(3.81807 1.10547e-17 -2.21114)
(3.95602 0 -2.29097)
(4.10374 1.99341e-17 -2.37632)
(4.25152 -9.46068e-18 -2.46184)
(4.41258 0 -2.55495)
(4.5722 0 -2.64724)
(4.74525 0 -2.74741)
(4.92467 -1.62572e-21 -2.85092)
(5.09961 1.44891e-17 -2.95256)
(5.32162 -1.37188e-17 -3.08029)
(5.47487 0 -3.17013)
(5.78796 -1.22837e-17 -3.35048)
(5.90039 0 -3.42189)
(6.58211 -9.63329e-22 -3.81154)
(38.6103 -1.69738e-20 -3.56157)
(37.8595 -6.52363e-21 -4.63604)
(34.786 -2.97895e-21 -6.38146)
(30.233 -4.27868e-21 -7.67164)
(25.3458 -1.02508e-20 -8.08636)
(20.9388 -1.42094e-20 -7.78791)
(17.3244 0 -7.12806)
(14.4751 0 -6.37066)
(12.2432 0 -5.6466)
(10.4799 -2.91749e-20 -5.00235)
(9.06858 0 -4.44505)
(7.92377 0 -3.96757)
(6.98371 0 -3.55912)
(6.20346 0 -3.20906)
(5.54996 0 -2.90824)
(4.99848 -8.45055e-20 -2.64902)
(4.53022 8.6342e-20 -2.42512)
(4.13071 0 -2.23138)
(3.78869 0 -2.06358)
(3.49528 -1.79657e-19 -1.91824)
(3.24341 1.79084e-19 -1.79251)
(3.02742 -1.80158e-19 -1.68403)
(2.84269 1.78784e-19 -1.59082)
(2.68546 1.78876e-19 -1.5112)
(2.55266 -1.76914e-19 -1.44367)
(2.44177 1.75508e-19 -1.38682)
(2.35039 0 -1.33977)
(2.27627 -1.71762e-19 -1.30147)
(2.21668 0 -1.27255)
(2.17188 3.38274e-19 -1.25112)
(2.14135 0 -1.23439)
(2.11976 0 -1.22543)
(2.1077 0 -1.22278)
(2.10379 -3.13892e-19 -1.22697)
(2.10968 -3.08291e-19 -1.22969)
(2.12042 0 -1.23799)
(2.13677 0 -1.24844)
(2.15729 5.79555e-19 -1.26077)
(2.18122 0 -1.27474)
(2.2077 9.33471e-22 -1.28983)
(2.23613 -5.40055e-19 -1.30577)
(2.26551 0 -1.32193)
(2.29498 0 -1.33788)
(2.32348 0 -1.35304)
(2.3501 0 -1.36706)
(2.37505 -9.45077e-19 -1.38031)
(2.39872 0 -1.39299)
(2.42121 8.92804e-19 -1.40509)
(2.44265 8.68022e-19 -1.4167)
(2.46327 0 -1.42795)
(2.48322 0 -1.4389)
(2.50259 0 -1.44957)
(2.52145 7.68861e-19 -1.45999)
(2.53981 -7.44497e-19 -1.47017)
(2.55766 -1.44249e-18 -1.48005)
(2.57493 0 -1.48962)
(2.59154 -1.35214e-18 -1.4988)
(2.6074 -2.61755e-18 -1.50756)
(2.62243 0 -1.51584)
(2.63654 -2.44743e-18 -1.52359)
(2.64966 0 -1.53077)
(2.66174 -1.14187e-18 -1.53736)
(2.67275 -2.20498e-18 -1.54336)
(2.68271 0 -1.54876)
(2.69164 -2.05396e-18 -1.5536)
(2.69961 -1.9794e-18 -1.55791)
(2.70672 0 -1.56176)
(2.7131 0 -1.56521)
(2.71891 0 -1.56837)
(2.72432 1.70364e-18 -1.57134)
(2.72954 1.63917e-18 -1.57424)
(2.73481 0 -1.5772)
(2.74037 -3.03253e-18 -1.58037)
(2.7465 -2.91293e-18 -1.5839)
(2.75348 0 -1.58795)
(2.76161 0 -1.59269)
(2.77122 -2.5802e-18 -1.59832)
(2.78264 9.82698e-22 -1.60503)
(2.79626 0 -1.61303)
(2.81246 0 -1.62256)
(2.83172 0 -1.63388)
(2.85453 0 -1.6473)
(2.88144 1.47502e-21 -1.66311)
(2.91304 3.83575e-18 -1.68167)
(2.95019 0 -1.7035)
(2.99377 0 -1.72907)
(3.0445 0 -1.7588)
(3.10316 3.2131e-18 -1.79316)
(3.1713 0 -1.83311)
(3.25088 5.87251e-18 -1.87978)
(3.34306 -5.61366e-18 -1.9337)
(3.44679 5.36097e-18 -1.99409)
(3.55955 -5.12136e-18 -2.05942)
(3.67857 9.77615e-18 -2.12815)
(3.8025 -4.66506e-18 -2.19962)
(3.931 4.44972e-18 -2.27372)
(4.06477 0 -2.35088)
(4.204 0 -2.43122)
(4.34932 -7.7031e-18 -2.51505)
(4.50034 -7.33892e-18 -2.60219)
(4.65775 -6.98495e-18 -2.69296)
(4.82073 2.00823e-21 -2.787)
(4.99059 0 -2.88492)
(5.16568 0 -2.98595)
(5.34874 -5.71996e-18 -3.09145)
(5.53621 0 -3.19964)
(5.73382 -1.03255e-17 -3.31352)
(5.93403 0 -3.42909)
(6.14818 -2.60408e-21 -3.55251)
(6.36177 0 -3.67581)
(6.59407 -8.38078e-18 -3.80977)
(6.82371 7.9477e-18 -3.94222)
(7.07163 7.53419e-18 -4.08551)
(7.32845 -1.87905e-21 -4.23324)
(7.57663 0 -4.37745)
(7.89232 1.28116e-17 -4.55845)
(8.10553 1.21186e-17 -4.68396)
(8.544 1.14701e-17 -4.93597)
(8.68471 0 -5.02946)
(9.56306 -1.10316e-21 -5.53321)
(38.0643 0 -4.19478)
(38.4646 -4.91126e-21 -4.73236)
(37.6116 0 -6.02948)
(35.2635 4.04299e-21 -7.44226)
(31.8394 8.25097e-21 -8.42789)
(27.9922 7.9993e-21 -8.79454)
(24.25 0 -8.6374)
(20.9051 0 -8.15445)
(18.0491 -2.3432e-20 -7.5239)
(15.6618 -2.70989e-20 -6.86219)
(13.68 3.02806e-20 -6.22982)
(12.0335 6.59235e-20 -5.65194)
(10.6593 7.03603e-20 -5.13539)
(9.50576 0 -4.67866)
(8.53157 0 -4.277)
(7.70434 1.59082e-19 -3.92468)
(6.99849 -6.74354e-22 -3.61603)
(6.3938 0 -3.34582)
(5.87417 -8.32128e-20 -3.10943)
(5.42667 -1.67628e-19 -2.90286)
(5.04092 -1.69296e-19 -2.72263)
(4.70845 0 -2.56579)
(4.42235 -1.68996e-19 -2.42979)
(4.17689 1.67422e-19 -2.31243)
(3.96729 1.67209e-19 -2.21178)
(3.78951 -7.28011e-22 -2.12629)
(3.64013 0 -2.05441)
(3.51607 5.10002e-22 -1.99481)
(3.41489 0 -1.94555)
(3.33467 3.17599e-19 -1.90535)
(3.27281 0 -1.8742)
(3.22481 0 -1.85453)
(3.19069 0 -1.8417)
(3.16971 2.9646e-19 -1.83613)
(3.16018 0 -1.8356)
(3.15963 0 -1.83858)
(3.16714 0 -1.84514)
(3.18106 0 -1.85472)
(3.20042 -5.32856e-19 -1.86673)
(3.22403 1.04194e-18 -1.8806)
(3.25109 0 -1.89597)
(3.2803 4.95442e-19 -1.91198)
(3.31054 0 -1.92811)
(3.3404 0 -1.94356)
(3.36858 0 -1.95796)
(3.39526 1.12264e-21 -1.97176)
(3.42087 0 -1.9852)
(3.44547 -8.41805e-19 -1.9982)
(3.4692 0 -2.01084)
(3.49229 0 -2.02328)
(3.51488 -7.69079e-19 -2.03553)
(3.53704 0 -2.04762)
(3.55882 0 -2.05954)
(3.5802 6.18781e-22 -2.07128)
(3.60112 1.35863e-18 -2.08276)
(3.62147 0 -2.09392)
(3.64113 9.97734e-22 -2.10468)
(3.65996 2.46233e-18 -2.11496)
(3.67784 0 -2.12469)
(3.69464 1.15121e-18 -2.1338)
(3.71026 0 -2.14225)
(3.72463 1.0742e-18 -2.14999)
(3.73772 2.07394e-18 -2.15701)
(3.74953 0 -2.16333)
(3.76012 1.929e-18 -2.16898)
(3.76957 1.04386e-21 -2.17402)
(3.77802 0 -2.17854)
(3.78564 0 -2.18262)
(3.79264 0 -2.18641)
(3.79927 -3.19989e-18 -2.19005)
(3.8058 -7.38683e-22 -2.19369)
(3.81255 0 -2.19751)
(3.81984 2.84453e-18 -2.20171)
(3.82802 5.46738e-18 -2.20648)
(3.83748 0 -2.21206)
(3.84861 0 -2.21866)
(3.86183 0 -2.22652)
(3.8776 9.45129e-22 -2.2359)
(3.8964 0 -2.24709)
(3.91875 0 -2.26039)
(3.94526 0 -2.27615)
(3.9766 0 -2.29476)
(4.01347 3.75287e-18 -2.31662)
(4.05669 3.59154e-18 -2.34223)
(4.10737 0 -2.37225)
(4.16665 0 -2.40731)
(4.23551 0 -2.44795)
(4.31504 -1.06442e-21 -2.49487)
(4.4073 0 -2.54933)
(4.51465 -5.49749e-18 -2.61267)
(4.6383 0 -2.68537)
(4.77672 -5.01717e-18 -2.76626)
(4.9267 0 -2.85337)
(5.08478 -4.5726e-18 -2.94481)
(5.2494 0 -3.03987)
(5.42009 0 -3.13844)
(5.59777 0 -3.24107)
(5.7825 0 -3.34784)
(5.9752 7.20273e-18 -3.45916)
(6.17512 0 -3.57469)
(6.38338 6.52981e-18 -3.69495)
(6.59852 6.21403e-18 -3.81926)
(6.82263 0 -3.94862)
(7.05296 0 -4.08171)
(7.29364 0 -4.22059)
(7.5392 0 -4.36253)
(7.79793 2.70668e-21 -4.5118)
(8.05889 0 -4.6627)
(8.33788 -1.73901e-17 -4.82367)
(8.61479 0 -4.9838)
(8.91554 1.56538e-17 -5.15746)
(9.21168 -7.42294e-18 -5.32848)
(9.52995 -7.03629e-18 -5.51278)
(9.85965 -6.66747e-18 -5.7024)
(10.1742 0 -5.88591)
(10.5775 0 -6.11662)
(10.8414 -2.26276e-17 -6.2734)
(11.3953 1.07042e-17 -6.59037)
(11.5528 1.0106e-17 -6.69991)
(12.593 -9.54165e-18 -7.28933)
(37.5099 0 -4.69651)
(38.001 3.53074e-20 -5.02584)
(38.1614 0 -5.86644)
(37.421 0 -7.03864)
(35.64 0 -8.17599)
(33.061 0 -8.98653)
(30.0534 0 -9.35748)
(26.9501 2.02872e-20 -9.32739)
(23.9828 2.21089e-20 -9.00842)
(21.2798 5.15284e-20 -8.52009)
(18.8905 -5.72075e-20 -7.95587)
(16.8137 -6.22154e-20 -7.37671)
(15.0236 -6.64062e-20 -6.81739)
(13.4853 0 -6.29538)
(12.1636 0 -5.81794)
(11.0268 -1.48884e-19 -5.38666)
(10.0469 -1.52237e-19 -5.00015)
(9.20074 0 -4.65561)
(8.46868 7.85413e-20 -4.34967)
(7.8345 1.58214e-19 -4.07891)
(7.28472 0 -3.84002)
(6.80815 1.57995e-19 -3.62995)
(6.39544 0 -3.44591)
(6.03877 -8.14772e-22 -3.2854)
(5.73157 -1.56287e-19 -3.14613)
(5.46825 -7.11236e-22 -3.02606)
(5.24396 0 -2.92339)
(5.05433 1.52654e-19 -2.83648)
(4.89563 -3.01351e-19 -2.7638)
(4.76575 -5.97171e-19 -2.7033)
(4.66041 -2.88892e-19 -2.65354)
(4.57507 0 -2.61549)
(4.51031 -2.8419e-19 -2.58696)
(4.46323 0 -2.56725)
(4.42869 0 -2.55832)
(4.40856 0 -2.55299)
(4.39939 0 -2.5529)
(4.39973 0 -2.55653)
(4.40808 9.98754e-22 -2.56366)
(4.42294 -4.906e-19 -2.57349)
(4.44326 0 -2.58564)
(4.46746 -9.3296e-19 -2.59905)
(4.49416 0 -2.61309)
(4.52155 0 -2.62676)
(4.54791 0 -2.63961)
(4.5733 8.38496e-19 -2.65224)
(4.59816 0 -2.66489)
(4.6225 0 -2.67741)
(4.64639 0 -2.68986)
(4.67005 0 -2.70239)
(4.69359 1.44708e-18 -2.71498)
(4.71703 0 -2.72762)
(4.74038 0 -2.74026)
(4.76358 6.59302e-19 -2.75285)
(4.7865 0 -2.76529)
(4.80899 0 -2.77747)
(4.83086 2.39182e-18 -2.78928)
(4.85191 -1.15729e-18 -2.80061)
(4.87196 0 -2.81135)
(4.89085 0 -2.82142)
(4.90843 0 -2.83074)
(4.9246 -1.00815e-18 -2.83927)
(4.93933 0 -2.847)
(4.9526 0 -2.85394)
(4.96447 -3.62277e-18 -2.86013)
(4.97506 3.49212e-18 -2.86565)
(4.98454 0 -2.87059)
(4.99311 0 -2.8751)
(5.00105 0 -2.87934)
(5.00866 1.50129e-18 -2.88347)
(5.0163 -1.444e-18 -2.88771)
(5.02435 -2.77521e-18 -2.89229)
(5.03323 -2.66848e-18 -2.89742)
(5.04337 -2.56352e-18 -2.90338)
(5.05524 2.46055e-18 -2.91042)
(5.06934 0 -2.91883)
(5.08619 0 -2.9289)
(5.10635 2.17503e-18 -2.94097)
(5.13041 0 -2.95537)
(5.15902 0 -2.97248)
(5.19293 0 -2.99274)
(5.23298 0 -3.01664)
(5.28002 0 -3.04467)
(5.33509 -6.72563e-18 -3.07745)
(5.39957 0 -3.11581)
(5.47482 -3.07779e-18 -3.16052)
(5.5621 0 -3.21226)
(5.66284 -1.10419e-21 -3.27193)
(5.77954 5.37941e-18 -3.34112)
(5.91489 0 -3.4213)
(6.0701 0 -3.51283)
(6.24313 0 -3.61412)
(6.43018 0 -3.7228)
(6.62711 4.27364e-18 -3.83668)
(6.83223 0 -3.95504)
(7.04482 0 -4.07773)
(7.26606 0 -4.20543)
(7.49576 0 -4.3381)
(7.73519 0 -4.47631)
(7.98307 0 -4.61945)
(8.24114 0 -4.76833)
(8.507 0 -4.92181)
(8.7838 -5.52019e-18 -5.0814)
(9.06722 0 -5.24503)
(9.36326 0 -5.41564)
(9.66382 0 -5.58922)
(9.98047 9.00936e-18 -5.77167)
(10.2979 0 -5.9551)
(10.6374 8.12016e-18 -6.15068)
(10.972 0 -6.34402)
(11.3351 -2.21918e-21 -6.55349)
(11.6907 0 -6.75858)
(12.0711 6.56675e-18 -6.97882)
(12.465 0 -7.20478)
(12.835 0 -7.42124)
(13.3145 0 -7.69429)
(13.6168 1.05613e-17 -7.87553)
(14.2678 -1.99836e-17 -8.24638)
(14.4304 -1.88663e-17 -8.36673)
(15.5884 -8.90441e-18 -9.02035)
(37.0831 0 -5.01314)
(37.4014 -3.9666e-20 -5.30871)
(37.7882 0 -5.87203)
(37.8191 0 -6.7419)
(37.1911 -2.48734e-20 -7.7612)
(35.8548 -2.22271e-20 -8.71087)
(33.9311 2.14218e-20 -9.41744)
(31.6121 -6.31562e-20 -9.80474)
(29.0977 0 -9.8829)
(26.5585 9.87199e-22 -9.71249)
(24.1179 2.69798e-20 -9.36972)
(21.851 0 -8.92405)
(19.7936 0 -8.42902)
(17.9544 0 -7.92171)
(16.3257 0 -7.42582)
(14.8917 4.27275e-22 -6.95536)
(13.6332 4.62433e-22 -6.51774)
(12.5307 7.21789e-20 -6.11615)
(11.5658 7.30331e-20 -5.75121)
(10.7217 0 -5.42201)
(9.9837 -1.47841e-19 -5.12683)
(9.33897 -1.48899e-19 -4.86353)
(8.77642 0 -4.62985)
(8.28646 -7.7065e-22 -4.42347)
(7.86086 7.26501e-22 -4.24217)
(7.49247 -1.46164e-19 -4.08381)
(7.17506 0 -3.94644)
(6.9031 0 -3.82815)
(6.67194 2.83915e-19 -3.7269)
(6.47763 1.63333e-21 -3.6409)
(6.31484 5.44291e-19 -3.57022)
(6.18151 0 -3.51061)
(6.07422 5.34865e-19 -3.46066)
(5.98857 0 -3.42309)
(5.92218 0 -3.39832)
(5.87228 -2.51432e-19 -3.38293)
(5.83839 0 -3.3719)
(5.81729 -4.81704e-19 -3.36666)
(5.80757 9.92896e-22 -3.36571)
(5.80715 4.60046e-19 -3.3686)
(5.81481 0 -3.3748)
(5.82861 7.81716e-22 -3.38307)
(5.84693 0 -3.39267)
(5.86759 0 -3.4024)
(5.88838 0 -3.41176)
(5.90912 0 -3.42147)
(5.93024 0 -3.43179)
(5.95167 7.42868e-19 -3.44245)
(5.97338 0 -3.4535)
(5.99554 0 -3.46504)
(6.0182 -6.79955e-19 -3.47701)
(6.04132 0 -3.48933)
(6.06483 -6.3835e-19 -3.50195)
(6.08861 -6.18473e-19 -3.51473)
(6.11247 1.19793e-18 -3.52754)
(6.13616 0 -3.54023)
(6.15942 -1.12315e-18 -3.55263)
(6.182 -1.08537e-18 -3.5646)
(6.20363 0 -3.57601)
(6.2241 0 -3.58672)
(6.2432 0 -3.59666)
(6.2608 9.46575e-19 -3.60575)
(6.27683 0 -3.61398)
(6.29126 0 -3.62136)
(6.30415 1.69951e-18 -3.62792)
(6.31563 -3.27494e-18 -3.63377)
(6.32589 0 -3.63902)
(6.33519 0 -3.64383)
(6.34384 0 -3.6484)
(6.35221 0 -3.65293)
(6.36073 -1.35261e-18 -3.65768)
(6.36986 2.60202e-18 -3.6629)
(6.38008 0 -3.6689)
(6.39194 0 -3.67596)
(6.40599 -2.30602e-18 -3.68441)
(6.42282 0 -3.69458)
(6.44304 -2.12251e-18 -3.70682)
(6.46732 2.0357e-18 -3.72153)
(6.49638 0 -3.73911)
(6.53098 0 -3.76001)
(6.572 0 -3.78475)
(6.62043 0 -3.8139)
(6.6773 0 -3.84806)
(6.74383 3.14713e-18 -3.88798)
(6.82164 0 -3.93463)
(6.91234 5.7593e-18 -3.98889)
(7.01743 0 -4.0516)
(7.13864 -1.08636e-21 -4.12388)
(7.2789 -2.06283e-21 -4.20757)
(7.44113 0 -4.30424)
(7.62652 4.59109e-18 -4.41407)
(7.83253 0 -4.53505)
(8.05491 0 -4.6645)
(8.28888 -7.98996e-18 -4.79993)
(8.53261 0 -4.94065)
(8.78504 0 -5.08642)
(9.04763 0 -5.23808)
(9.31976 0 -5.39536)
(9.6032 0 -5.55907)
(9.8959 0 -5.7282)
(10.2004 0 -5.90396)
(10.5131 0 -6.08457)
(10.8385 5.1572e-18 -6.27225)
(11.1702 0 -6.46382)
(11.5165 0 -6.66347)
(11.866 0 -6.86542)
(12.2342 -8.40919e-18 -7.07764)
(12.6006 -7.98458e-18 -7.28948)
(12.9925 -7.57843e-18 -7.51534)
(13.3756 7.19072e-18 -7.73682)
(13.791 -2.14163e-21 -7.9766)
(14.1949 -6.4668e-18 -8.20957)
(14.6247 -1.22606e-17 -8.45885)
(15.0692 0 -8.7134)
(15.4801 1.10003e-17 -8.95492)
(16.0172 1.04159e-17 -9.25954)
(16.3441 0 -9.45789)
(17.0641 9.32605e-18 -9.86572)
(17.2229 8.80437e-18 -9.99156)
(18.4512 8.311e-18 -10.6768)
(36.7257 0 -5.20624)
(36.9055 2.00311e-20 -5.51018)
(37.2268 0 -5.94894)
(37.472 0 -6.59412)
(37.408 2.3424e-20 -7.41311)
(36.8997 2.09283e-20 -8.29758)
(35.9134 -2.01668e-20 -9.11259)
(34.4906 6.57178e-20 -9.75029)
(32.7248 0 -10.155)
(30.7329 2.71737e-20 -10.3219)
(28.6303 -5.36857e-20 -10.2807)
(26.5156 0 -10.0772)
(24.4635 5.90681e-20 -9.75909)
(22.5245 0 -9.36869)
(20.728 6.3489e-20 -8.94001)
(19.0877 6.53672e-20 -8.49843)
(17.6055 6.68267e-20 -8.06177)
(16.2762 -6.7938e-20 -7.64182)
(15.0904 -1.37125e-19 -7.24588)
(14.0367 0 -6.87799)
(13.1032 1.39153e-19 -6.53999)
(12.2783 0 -6.23224)
(11.5512 0 -5.95417)
(10.9117 -1.38684e-19 -5.70458)
(10.351 2.75173e-19 -5.48197)
(9.86078 0 -5.28462)
(9.43393 0 -5.11078)
(9.0639 0 -4.95861)
(8.74496 -2.6465e-19 -4.82622)
(8.47209 2.62234e-19 -4.71181)
(8.23975 -1.99383e-22 -4.61417)
(8.04379 2.53327e-19 -4.53112)
(7.88084 -5.0167e-19 -4.46139)
(7.74756 2.45383e-19 -4.40139)
(7.63893 -2.40595e-19 -4.35313)
(7.55158 6.55863e-22 -4.31994)
(7.48272 0 -4.29803)
(7.4322 4.53024e-19 -4.2799)
(7.39661 4.4287e-19 -4.26837)
(7.37391 -4.32589e-19 -4.26142)
(7.36248 0 -4.25902)
(7.36005 4.11689e-19 -4.25967)
(7.36478 4.00438e-19 -4.2625)
(7.37409 3.89959e-19 -4.26614)
(7.38526 3.79501e-19 -4.27002)
(7.39774 0 -4.27503)
(7.41194 0 -4.28144)
(7.42765 -9.74282e-22 -4.28886)
(7.44473 0 -4.29727)
(7.46324 0 -4.30675)
(7.48314 -6.37206e-19 -4.31715)
(7.50431 6.17855e-19 -4.32835)
(7.52659 5.9951e-19 -4.34023)
(7.54977 6.30923e-22 -4.3526)
(7.57357 -1.17506e-21 -4.36525)
(7.59764 0 -4.378)
(7.62164 0 -4.39063)
(7.64523 2.03657e-18 -4.40294)
(7.66805 0 -4.41476)
(7.6898 0 -4.42593)
(7.71023 -9.18394e-19 -4.43633)
(7.72912 0 -4.44587)
(7.74637 0 -4.4545)
(7.76192 1.65078e-18 -4.46224)
(7.77582 -1.59163e-18 -4.46912)
(7.78817 3.06889e-18 -4.47525)
(7.7992 0 -4.48075)
(7.80919 -1.42277e-18 -4.48581)
(7.81849 0 -4.49065)
(7.82753 0 -4.49551)
(7.83681 2.53438e-18 -4.50069)
(7.84684 0 -4.50648)
(7.85821 0 -4.51323)
(7.87154 0 -4.52127)
(7.88747 0 -4.53098)
(7.90669 0 -4.54275)
(7.9299 1.98758e-18 -4.55698)
(7.95789 -9.71142e-22 -4.57413)
(7.99146 -1.82629e-18 -4.59466)
(8.03149 1.75015e-18 -4.61909)
(8.07902 0 -4.64802)
(8.13513 0 -4.6821)
(8.20104 0 -4.72202)
(8.27812 0 -4.76864)
(8.36822 0 -4.82308)
(8.47314 -1.22215e-21 -4.88632)
(8.59463 0 -4.95933)
(8.73465 -2.46137e-18 -5.04341)
(8.8965 -2.08217e-21 -5.14063)
(9.08321 0 -5.25258)
(9.29602 -4.29256e-18 -5.37926)
(9.53195 0 -5.51826)
(9.78643 3.91097e-18 -5.66664)
(10.0541 1.57265e-21 -5.82165)
(10.333 0 -5.9827)
(10.6215 0 -6.14933)
(10.9215 0 -6.32261)
(11.2317 0 -6.50191)
(11.5546 5.87073e-18 -6.68836)
(11.8869 0 -6.88039)
(12.2325 0 -7.07979)
(12.5859 5.06139e-18 -7.28387)
(12.9536 0 -7.4958)
(13.3262 -4.57677e-18 -7.71097)
(13.7154 4.34977e-18 -7.93513)
(14.105 0 -8.16025)
(14.5159 1.57031e-17 -8.3968)
(14.9206 2.64908e-21 -8.63081)
(15.3541 1.41503e-17 -8.88036)
(15.7731 -6.71406e-18 -9.12257)
(16.2275 -6.36791e-18 -9.38469)
(16.665 6.03758e-18 -9.63676)
(17.1283 5.72232e-18 -9.90577)
(17.6053 5.41992e-18 -10.178)
(18.04 -1.0269e-17 -10.4348)
(18.6097 -9.72308e-18 -10.756)
(18.9472 -9.19507e-18 -10.9636)
(19.6988 -8.70032e-18 -11.3864)
(19.8461 0 -11.514)
(21.0878 0 -12.1999)
(36.3901 0 -5.33653)
(36.4936 2.3117e-20 -5.64076)
(36.7201 0 -6.02467)
(36.9575 0 -6.53398)
(37.0721 0 -7.17948)
(36.9633 0 -7.92634)
(36.5617 2.79508e-20 -8.70131)
(35.8322 -2.28181e-20 -9.41814)
(34.781 2.60408e-20 -10.0056)
(33.45 -4.8069e-20 -10.4226)
(31.9029 5.0476e-20 -10.6583)
(30.2113 0 -10.7246)
(28.4446 -5.55332e-20 -10.6464)
(26.6633 0 -10.4541)
(24.9172 -5.96891e-20 -10.1781)
(23.2436 -6.14362e-20 -9.8461)
(21.668 0 -9.4814)
(20.2054 0 -9.10253)
(18.8628 6.42908e-20 -8.72356)
(17.6411 0 -8.35461)
(16.5369 0 -8.00265)
(15.5445 -1.29715e-19 -7.67211)
(14.6566 0 -7.36552)
(13.8655 0 -7.08407)
(13.1634 -1.29029e-19 -6.82795)
(12.5425 0 -6.59667)
(11.9957 0 -6.3893)
(11.516 0 -6.20462)
(11.0974 4.96401e-19 -6.0411)
(10.734 0 -5.89729)
(10.4199 -4.10954e-22 -5.77198)
(10.1505 -7.93854e-22 -5.66284)
(9.92138 2.35236e-19 -5.56832)
(9.7278 -2.30599e-19 -5.4881)
(9.56676 4.51434e-19 -5.41804)
(9.43313 2.21605e-19 -5.35912)
(9.32301 0 -5.31665)
(9.23325 0 -5.28721)
(9.16434 4.14167e-19 -5.26141)
(9.11201 -4.04627e-19 -5.24255)
(9.07483 0 -5.22915)
(9.05018 0 -5.21982)
(9.03587 -7.14392e-22 -5.21377)
(9.02901 -3.66217e-19 -5.20934)
(9.02631 -3.56368e-19 -5.20592)
(9.0268 -6.91997e-19 -5.20456)
(9.03076 0 -5.20561)
(9.03788 -9.72687e-22 -5.20851)
(9.04782 0 -5.21317)
(9.06051 0 -5.21962)
(9.07581 5.98052e-19 -5.22764)
(9.09347 -5.79836e-19 -5.23702)
(9.11322 0 -5.24757)
(9.13475 5.44346e-19 -5.25905)
(9.15765 -1.17547e-21 -5.27119)
(9.18148 0 -5.28373)
(9.2058 0 -5.29639)
(9.23013 -1.90828e-18 -5.30893)
(9.25403 0 -5.32112)
(9.27709 0 -5.33275)
(9.29897 1.72144e-18 -5.34367)
(9.31938 0 -5.35376)
(9.33814 0 -5.36293)
(9.35513 -3.09337e-18 -5.37119)
(9.37036 1.4917e-18 -5.37856)
(9.38393 -1.43745e-18 -5.38513)
(9.39604 0 -5.39104)
(9.40699 1.333e-18 -5.39649)
(9.41716 0 -5.40173)
(9.42703 -1.23316e-18 -5.40701)
(9.43712 -1.18649e-18 -5.41267)
(9.44805 0 -5.41905)
(9.46048 0 -5.42653)
(9.47508 2.103e-18 -5.43549)
(9.49261 2.01883e-18 -5.44636)
(9.51383 0 -5.45958)
(9.53956 0 -5.47561)
(9.57066 -3.5649e-18 -5.49496)
(9.60806 1.70902e-18 -5.51814)
(9.65272 -3.27433e-18 -5.54575)
(9.70581 0 -5.57846)
(9.76853 0 -5.61697)
(9.84222 0 -5.66209)
(9.9284 0 -5.71475)
(10.0291 0 -5.77619)
(10.1463 -1.21668e-21 -5.84747)
(10.2819 0 -5.92969)
(10.4381 0 -6.02427)
(10.6184 -2.0713e-21 -6.13348)
(10.8258 0 -6.25882)
(11.0618 -4.00871e-18 -6.40015)
(11.3229 0 -6.55467)
(11.6046 -3.65505e-18 -6.71931)
(11.9008 1.56489e-21 -6.89107)
(12.2096 0 -7.0695)
(12.5286 0 -7.25386)
(12.8601 0 -7.44544)
(13.2019 0 -7.64314)
(13.5574 -2.29982e-21 -7.84852)
(13.9219 5.21898e-18 -8.05926)
(14.3009 -4.96685e-18 -8.27791)
(14.6862 -4.72727e-18 -8.50059)
(15.0873 0 -8.73176)
(15.4908 4.27416e-18 -8.96487)
(15.9126 -4.06195e-18 -9.20773)
(16.3308 0 -9.44944)
(16.7723 -7.32998e-18 -9.7035)
(17.2019 1.39158e-17 -9.95204)
(17.6626 -6.6046e-18 -10.2172)
(18.102 0 -10.4713)
(18.5785 5.94073e-18 -10.7462)
(19.0315 0 -11.007)
(19.5094 0 -11.2851)
(19.9964 -5.05935e-18 -11.5621)
(20.4366 0 -11.8239)
(21.0079 0 -12.1437)
(21.3426 8.58256e-18 -12.353)
(22.0823 8.12053e-18 -12.7656)
(22.2128 7.66404e-18 -12.8913)
(23.4113 -7.23598e-18 -13.5424)
(36.065 0 -5.43088)
(36.1254 -2.17269e-20 -5.72281)
(36.2899 -4.3311e-20 -6.07188)
(36.4779 0 -6.50148)
(36.6095 0 -7.02674)
(36.6348 0 -7.64313)
(36.5087 -2.62666e-20 -8.32108)
(36.1858 0 -9.00919)
(35.6358 -2.44673e-20 -9.65051)
(34.8524 0 -10.1976)
(33.8521 0 -10.6201)
(32.6668 5.43437e-20 -10.9058)
(31.3365 0 -11.0566)
(29.9044 5.62362e-20 -11.0847)
(28.4138 -5.72737e-20 -11.0075)
(26.9047 5.7704e-20 -10.8453)
(25.4125 0 -10.6181)