/*--------------------------------*- C++ -*----------------------------------*\
| =========                 |                                                 |
| \\      /  F ield         | OpenFOAM: The Open Source CFD Toolbox           |
|  \\    /   O peration     | Version:  2412                                  |
|   \\  /    A nd           | Website:  www.openfoam.com                      |
|    \\/     M anipulation  |                                                 |
\*---------------------------------------------------------------------------*/
FoamFile
{
    version     2.0;
    format      ascii;
    arch        "LSB;label=32;scalar=64";
    class       surfaceScalarField;
    location    "1.68";
    object      ddtCorrDdt0(phi);
}
// * * * * * * * * * * * * * * * * * * * * * * * * * * * * * * * * * * * * * //

dimensions      [0 3 -2 0 0 0 0];

oriented        oriented;

internalField   nonuniform List<scalar> 
24930
(
-0.000301988
-0.000692592
0.000372718
2.40093e-05
-0.000139512
2.63893e-05
-6.71641e-06
1.49059e-05
2.81895e-05
3.36463e-05
4.16426e-05
5.20292e-05
4.09315e-05
6.44959e-05
3.46627e-05
7.23733e-05
3.50304e-05
8.08196e-05
3.75212e-05
9.03434e-05
4.05872e-05
0.00010026
4.17039e-05
0.000109625
4.01965e-05
0.000117018
3.70909e-05
0.000120786
3.41095e-05
0.000119671
3.23246e-05
0.000113257
3.1507e-05
0.000102026
3.06622e-05
8.71435e-05
2.90273e-05
7.01461e-05
2.65495e-05
5.26188e-05
2.36504e-05
3.59299e-05
2.07621e-05
2.10843e-05
1.80975e-05
8.70653e-06
1.5712e-05
-8.84008e-07
1.3653e-05
-7.54393e-06
1.20186e-05
-1.11766e-05
1.09085e-05
-1.1666e-05
1.0365e-05
-8.89979e-06
1.03808e-05
-2.84424e-06
1.09514e-05
6.3971e-06
1.20951e-05
1.85754e-05
1.38155e-05
3.33307e-05
1.60439e-05
5.02262e-05
1.86252e-05
6.87511e-05
2.13551e-05
8.82935e-05
2.40284e-05
0.000108113
2.64486e-05
0.000127336
2.8408e-05
0.000144987
2.96588e-05
0.000160049
2.99127e-05
0.000171556
2.88611e-05
0.000178701
2.62218e-05
0.000180931
2.1799e-05
0.00017802
1.55626e-05
0.000170094
7.70487e-06
0.000157636
-1.34837e-06
0.000141431
-1.09705e-05
0.000122479
-2.04056e-05
0.000101834
-2.88475e-05
8.04881e-05
-3.55827e-05
5.92392e-05
-4.00687e-05
3.87241e-05
-4.21278e-05
1.94012e-05
-4.18564e-05
1.71337e-06
-3.97504e-05
-1.39739e-05
-3.62669e-05
-2.71683e-05
-3.20588e-05
-3.75137e-05
-2.72321e-05
-4.45331e-05
-2.20713e-05
-4.81021e-05
-1.60273e-05
-4.79466e-05
-9.32982e-06
-4.43945e-05
-1.30029e-06
-3.74634e-05
7.0035e-06
-2.80173e-05
1.59063e-05
-1.62273e-05
2.32947e-05
-3.46781e-06
2.98192e-05
1.0077e-05
3.33566e-05
2.24241e-05
3.61116e-05
3.35423e-05
3.63216e-05
4.08063e-05
3.74488e-05
4.47677e-05
3.6063e-05
4.25813e-05
3.56179e-05
3.65145e-05
2.87591e-05
2.41981e-05
2.08873e-05
1.0429e-05
3.04276e-06
-7.05642e-06
-1.28486e-05
-2.12749e-05
-3.4629e-05
-3.60249e-05
-4.52289e-05
-4.31087e-05
-5.31818e-05
-4.93893e-05
-4.1655e-05
-4.57418e-05
-2.51758e-05
-4.30421e-05
8.83572e-06
-3.02139e-05
3.4207e-05
-1.94576e-05
6.15406e-05
1.04314e-07
6.98605e-05
1.26325e-05
7.05024e-05
3.20302e-05
6.2259e-05
4.30139e-05
4.88603e-05
5.3986e-05
3.95699e-05
3.3759e-05
3.49586e-05
6.57016e-05
-7.86924e-05
3.14804e-05
4.28655e-05
3.91756e-05
-0.000208178
0.000106273
-0.000166117
4.03248e-05
-0.000141769
0.000171913
-0.000163298
0.000100298
-0.00017638
0.000115944
-0.000921609
0.000543507
-0.000333921
-8.80843e-05
0.000107092
0.000117996
-6.24105e-05
-0.00078774
0.000578185
0.00192117
-0.00257337
-0.00317689
0.00388046
0.000146721
-0.00290068
0.00460645
-0.00744853
-0.0114689
0.00241875
0.0156526
-0.0242504
-0.00692343
0.0230872
-0.00909147
0.00302477
0.0112638
-0.0250233
-0.011936
-0.0185572
0.014579
-0.0220089
-0.0179981
0.032043
0.00170169
-0.0298753
0.0450112
-0.0395898
0.00913877
0.0266785
-0.00621815
0.0180828
0.0119376
-0.0161641
-0.00596907
0.0205562
0.00607698
-0.0110257
-0.0110163
-0.000643354
-0.000630603
0.00067882
-0.000390419
-0.000293796
-0.000267227
-5.86891e-05
-0.000172903
1.54041e-05
-8.22489e-05
4.61125e-05
-7.03833e-06
6.06116e-05
4.83184e-05
7.29794e-05
9.08174e-05
9.12196e-05
0.000124363
0.00010861
0.000152762
0.000118496
0.000178865
0.000117957
0.00020379
0.000109344
0.000225987
9.82282e-05
0.000242068
8.97069e-05
0.000248914
8.55914e-05
0.000245367
8.42653e-05
0.000232505
8.28773e-05
0.000212802
7.96719e-05
0.000189056
7.46981e-05
0.000163679
6.89952e-05
0.000138446
6.35067e-05
0.000114516
5.86392e-05
9.25362e-05
5.44487e-05
7.28074e-05
5.09413e-05
5.55191e-05
4.81467e-05
4.09754e-05
4.60293e-05
2.96922e-05
4.44714e-05
2.23107e-05
4.34002e-05
1.94141e-05
4.29208e-05
2.13879e-05
4.32885e-05
2.83997e-05
4.47345e-05
4.04636e-05
4.7297e-05
5.74853e-05
5.08064e-05
7.92241e-05
5.49921e-05
0.000105189
5.95841e-05
0.000134551
6.42948e-05
0.000166123
6.87522e-05
0.000198412
7.24517e-05
0.000229712
7.47997e-05
0.000258246
7.51831e-05
0.000282315
7.30738e-05
0.00030045
6.81207e-05
0.000311527
6.02505e-05
0.000314868
4.9681e-05
0.000310333
3.68603e-05
0.000298338
2.24202e-05
0.000279794
7.11595e-06
0.000255913
-8.14862e-06
0.000228039
-2.24879e-05
0.000197432
-3.50339e-05
0.000165306
-4.53167e-05
0.000132743
-5.30157e-05
0.000100886
-5.83179e-05
7.0748e-05
-6.12008e-05
4.34842e-05
-6.21066e-05
1.99306e-05
-6.07765e-05
1.04728e-06
-5.76498e-05
-1.27883e-05
-5.21653e-05
-2.09468e-05
-4.51311e-05
-2.37341e-05
-3.58315e-05
-2.09735e-05
-2.57832e-05
-1.38076e-05
-1.41591e-05
-2.28944e-06
-3.56807e-06
1.17247e-05
7.35242e-06
2.82878e-05
1.51212e-05
4.47818e-05
2.26556e-05
6.15588e-05
2.56947e-05
7.48231e-05
2.95978e-05
8.53399e-05
2.84992e-05
8.83383e-05
2.98007e-05
8.66412e-05
2.39126e-05
7.57161e-05
2.12026e-05
6.20055e-05
8.78346e-06
4.09948e-05
3.44811e-06
2.27781e-05
-1.13797e-05
9.18511e-07
-1.1461e-05
-1.19126e-05
-2.04899e-05
-2.6505e-05
-6.80121e-06
-2.79969e-05
-5.66801e-06
-3.27387e-05
2.16429e-05
-2.19045e-05
2.29786e-05
-1.51502e-05
4.79183e-05
7.47544e-06
3.64639e-05
1.87341e-05
5.71318e-05
4.56391e-05
2.77075e-05
5.64299e-05
4.64446e-05
8.35392e-05
4.05943e-06
6.24841e-05
3.71748e-05
0.000126257
-8.67585e-05
9.98823e-05
-2.21149e-05
0.000113457
-1.259e-05
0.000267295
-0.000320525
8.93862e-05
0.000154525
0.000437661
-0.000431653
-3.02947e-05
0.000387709
0.000413099
-2.89732e-05
0.00140166
-0.0014417
-0.000230287
0.00224807
0.000326356
-0.000910191
-0.00201745
0.00338784
0.00532048
-0.00984741
-0.00901958
0.0176032
0.0013349
-0.0114955
0.00986281
-0.0146184
-0.0270431
0.051499
0.0279015
-0.0749341
-0.0241697
0.0676153
-0.0233625
-0.00172642
0.027832
-0.0666875
-0.0348876
0.0871654
0.057448
-0.120962
-0.0665412
0.163403
-0.0970531
-0.00956051
0.134254
-0.255385
0.0249574
0.137253
-0.00930487
0.0531608
0.0349536
-0.0603952
-0.0233041
0.074491
0.0217382
-0.0560701
-0.0388384
-0.000780601
-0.000546627
0.000749607
-0.000657602
-0.00035332
-0.000508324
-0.000130531
-0.000371039
-3.69983e-05
-0.00023953
-4.63945e-07
-0.000123632
2.9027e-05
-3.21357e-05
6.76642e-05
3.72895e-05
0.000113595
8.94906e-05
0.000153373
0.000131067
0.000175187
0.000168607
0.000175448
0.000205883
0.000160068
0.000241825
0.000140573
0.000271581
0.000127044
0.000290007
0.00012276
0.00029479
0.000124231
0.000287173
0.000125671
0.00027057
0.000123536
0.000248684
0.000117838
0.000224397
0.000110553
0.000199582
0.000103528
0.000175333
9.76234e-05
0.000152194
9.30223e-05
0.000130368
8.97213e-05
0.000110005
8.76198e-05
9.15189e-05
8.64035e-05
7.57043e-05
8.56324e-05
6.35717e-05
8.50625e-05
5.60567e-05
8.48792e-05
5.3822e-05
8.55851e-05
5.72502e-05
8.76339e-05
6.65528e-05
9.11251e-05
8.18358e-05
9.58068e-05
0.000103034
0.000101294
0.000129759
0.00010724
0.000161187
0.000113275
0.000196046
0.000118859
0.000232701
0.000123192
0.000269272
0.000125317
0.000303782
0.000124258
0.000334305
0.000119217
0.00035911
0.000109716
0.000376769
9.57334e-05
0.000386287
7.76638e-05
0.000387234
5.61801e-05
0.000379795
3.21655e-05
0.000364733
6.67001e-06
0.000343167
-1.89777e-05
0.00031639
-4.3397e-05
0.000285649
-6.51462e-05
0.00025222
-8.33501e-05
0.000217318
-9.73076e-05
0.000182317
-0.000107084
0.00014849
-0.000112422
0.000117281
-0.000113877
8.97418e-05
-0.000111022
6.70485e-05
-0.00010474
4.97024e-05
-9.44351e-05
3.84988e-05
-8.17462e-05
3.31411e-05
-6.56422e-05
3.3864e-05
-4.85308e-05
3.9373e-05
-2.87477e-05
4.96411e-05
-1.03116e-05
6.26209e-05
9.23054e-06
7.85491e-05
2.38851e-05
9.46786e-05
3.81048e-05
0.000111703
4.41799e-05
0.000125425
5.08915e-05
0.000136785
4.84614e-05
0.000140193
4.99439e-05
0.000138847
3.99168e-05
0.000127335
3.64511e-05
0.000113036
1.7897e-05
9.04368e-05
1.1802e-05
7.12183e-05
-1.07925e-05
4.75425e-05
-1.01168e-05
3.41274e-05
-2.68364e-05
1.77672e-05
-7.55227e-06
1.59217e-05
-1.19549e-05
9.05419e-06
2.76767e-05
1.99639e-05
2.51624e-05
2.48062e-05
7.00575e-05
4.82344e-05
5.56187e-05
5.60845e-05
0.000105744
8.44311e-05
6.53097e-05
8.91886e-05
0.000112921
0.000125242
2.63969e-05
9.81508e-05
9.48665e-05
0.000190942
-0.000110038
0.000164398
-3.53317e-05
0.000186819
-5.22189e-06
0.000427255
-0.000521765
0.000122594
0.000388809
0.00072159
-0.000953415
-0.000251613
0.00135239
0.000774212
-0.00129433
0.00220261
-0.00302654
-0.000463624
0.00483972
0.000512236
-0.00204274
-0.00301631
0.00718365
0.00881223
-0.0215439
-0.0152712
0.0404062
0.00330749
-0.0275022
0.0136745
-0.0258673
-0.0417311
0.105829
0.0419371
-0.158424
-0.0441533
0.152841
-0.0293549
-0.0214297
0.0405676
-0.131233
-0.0558416
0.185678
0.110349
-0.289272
-0.120555
0.401945
-0.150555
0.0133008
0.225838
-0.62883
0.0383749
0.32115
-0.00205444
0.0958948
0.0590155
-0.120732
-0.0431715
0.175716
0.0425141
-0.141063
-0.0903772
-0.000809795
-0.00044655
0.00074869
-0.000752279
-0.000338143
-0.00063326
-0.00016776
-0.000503724
-8.44027e-05
-0.000370699
-5.41347e-05
-0.00024272
-1.94907e-05
-0.000130725
3.89236e-05
-3.98198e-05
0.000112152
2.98358e-05
0.000177679
8.31375e-05
0.00021631
0.000128413
0.000221209
0.000172759
0.000200355
0.000217471
0.00017166
0.000257612
0.000152072
0.000286113
0.000148028
0.000298773
0.000154393
0.000296324
0.00016138
0.000282959
0.000162426
0.000263498
0.000157016
0.000241509
0.000148345
0.000219018
0.000139678
0.000197043
0.000132658
0.000176025
0.000127714
0.000156055
0.000124881
0.000137167
0.000123922
0.000119742
0.000124146
0.000104691
0.000124642
9.32357e-05
0.000124893
8.64998e-05
0.000125171
8.52437e-05
0.000126294
8.98766e-05
0.000128999
0.000100626
0.000133453
0.00011764
0.000139298
0.000140902
0.000146013
0.000170043
0.000153197
0.000204203
0.00016044
0.000242031
0.000167063
0.000281802
0.000171976
0.000321563
0.000173835
0.000359276
0.000171288
0.000392952
0.000163273
0.000420774
0.000149225
0.000441213
0.000129232
0.00045316
0.000103924
0.000456097
7.42287e-05
0.000450166
4.12811e-05
0.000436119
6.40025e-06
0.000415075
-2.86949e-05
0.000388329
-6.21953e-05
0.000357118
-9.2168e-05
0.000322748
-0.000117478
0.000286501
-0.000137152
0.000249887
-0.000151252
0.000214319
-0.000159249
0.000181409
-0.000161778
0.0001523
-0.00015804
0.000128286
-0.000149316
0.00010989
-0.000134824
9.79992e-05
-0.000117167
9.22335e-05
-9.49044e-05
9.28393e-05
-7.15779e-05
9.8295e-05
-4.45225e-05
0.000108597
-1.94293e-05
0.000121456
7.61584e-06
0.000137337
2.78215e-05
0.000153315
4.77495e-05
0.000170477
5.58003e-05
0.00018415
6.50592e-05
0.00019556
6.10627e-05
0.000198269
6.36573e-05
0.000196075
5.02259e-05
0.000182665
4.83507e-05
0.000166634
2.5609e-05
0.000141384
2.28563e-05
0.000120489
-4.98206e-06
9.44689e-05
6.45026e-07
8.03808e-05
-2.33242e-05
6.21912e-05
3.48747e-06
6.03391e-05
-1.00114e-05
5.15775e-05
4.02817e-05
6.31152e-05
2.54076e-05
6.62504e-05
8.57596e-05
9.07638e-05
5.73766e-05
9.51432e-05
0.000134606
0.00012494
7.30067e-05
0.000124232
0.000155562
0.000171593
5.69158e-06
0.000136124
0.000131844
0.000260895
-0.000185543
0.000231579
-5.78086e-05
0.000266741
-1.16893e-05
0.000594294
-0.000803193
0.000156203
0.000800823
0.00101947
-0.00174545
-0.000479683
0.00290055
0.00119409
-0.00305548
0.0029759
-0.00491467
-0.000782368
0.00872729
0.000745924
-0.0037363
-0.00379572
0.0119946
0.0122978
-0.0375804
-0.0217134
0.0728532
0.00583205
-0.0526201
0.0159246
-0.036016
-0.0554644
0.177057
0.0656581
-0.279659
-0.0663072
0.28405
-0.0412734
-0.0499302
0.0478843
-0.215533
-0.0751326
0.311786
0.181635
-0.555423
-0.177275
0.770464
-0.206698
0.0332931
0.313687
-1.14438
0.0505852
0.582618
0.019581
0.128328
0.0830303
-0.183787
-0.0694199
0.327338
0.0686708
-0.278735
-0.164345
-0.000806287
-0.000355118
0.000774053
-0.000766364
-0.000290932
-0.000679955
-0.000175504
-0.000575567
-0.000112378
-0.000464632
-8.93958e-05
-0.00034899
-5.5794e-05
-0.000235325
1.00377e-05
-0.000131291
9.91561e-05
-4.43365e-05
0.000185994
2.31513e-05
0.000243732
7.64046e-05
0.000258375
0.000124532
0.000235608
0.000173178
0.000197653
0.000220107
0.000169562
0.000257551
0.000163799
0.000278703
0.000175359
0.000282381
0.000190002
0.000272757
0.000196486
0.000255839
0.000192583
0.000236266
0.000182684
0.000216433
0.000172077
0.000197309
0.000163627
0.000179277
0.000158116
0.000162374
0.000155649
0.000146497
0.000155934
0.000131875
0.000157899
0.000119415
0.000160011
0.000110505
0.000161321
0.000106461
0.000162146
0.000108141
0.0001637
0.000115944
0.000167098
0.000130055
0.000172616
0.000150605
0.000179762
0.000177593
0.000187848
0.000210651
0.000196411
0.000248874
0.00020503
0.000290825
0.000212917
0.000334687
0.000218678
0.000378428
0.000220546
0.000419952
0.000216749
0.00045721
0.000205936
0.000488309
0.000187457
0.00051162
0.000161521
0.00052594
0.000129
0.000530682
9.10694e-05
0.000525964
4.91065e-05
0.000512557
4.69308e-06
0.00049161
-4.00415e-05
0.000464452
-8.28385e-05
0.000432351
-0.000121247
0.000396675
-0.000153892
0.000358797
-0.000179541
0.000320387
-0.000198291
0.000282991
-0.000209294
0.00024839
-0.000213257
0.000217789
-0.000208875
0.000192591
-0.000197835
0.000173303
-0.000179041
0.000160895
-0.000156164
0.000154856
-0.000127195
0.000155452
-9.70071e-05
0.000160896
-6.17497e-05
0.00017125
-2.91588e-05
0.000183953
6.4004e-06
0.00019977
3.27844e-05
0.000215515
5.91654e-05
0.000232735
6.93935e-05
0.000246128
8.18376e-05
0.000257318
7.63849e-05
0.000258851
8.09287e-05
0.000255341
6.39755e-05
0.000239351
6.44153e-05
0.000221
3.67464e-05
0.000192275
3.78737e-05
0.000169073
3.30475e-06
0.000139785
1.43442e-05
0.000124394
-1.88609e-05
0.000103363
1.68745e-05
0.00010099
-7.33311e-06
8.94043e-05
5.64626e-05
0.000101373
2.72574e-05
0.000101996
0.000107095
0.000127706
6.23034e-05
0.000127968
0.000172641
0.00016005
8.45621e-05
0.000154003
0.000211673
0.000214027
-1.90749e-05
0.000170648
0.00018175
0.000332595
-0.000287816
0.000296836
-6.73723e-05
0.000350485
-3.07969e-05
0.00076478
-0.00117103
0.000189816
0.0013451
0.0013307
-0.00280468
-0.000701566
0.00496721
0.00166338
-0.00574654
0.0037071
-0.00706095
-0.00117903
0.0135673
0.00106394
-0.00626558
-0.00438963
0.017701
0.0157216
-0.0576364
-0.0282342
0.115237
0.00871014
-0.0868652
0.0165712
-0.0441743
-0.0680792
0.260892
0.0917845
-0.439221
-0.0896829
0.464541
-0.0575458
-0.0836875
0.0484254
-0.31899
-0.0933716
0.45761
0.303596
-0.943231
-0.233206
1.30332
-0.263395
0.0546125
0.391383
-1.7962
0.0625953
0.90987
0.0596685
0.133203
0.106384
-0.229965
-0.101828
0.534651
0.0998475
-0.479875
-0.261111
-0.000805869
-0.000292651
0.000807725
-0.000759863
-0.000247654
-0.00069286
-0.00016863
-0.000612089
-0.000119935
-0.000527557
-9.86362e-05
-0.000434572
-6.73691e-05
-0.000332293
-4.46525e-06
-0.000226461
8.65276e-05
-0.000127388
0.000183631
-4.52218e-05
0.000257461
1.76796e-05
0.00028595
6.81666e-05
0.000267452
0.000115773
0.000223085
0.000163968
0.00018438
0.000207419
0.000172615
0.000237387
0.000186747
0.000249226
0.000209526
0.000245278
0.000223664
0.000232058
0.000223118
0.000215562
0.000212623
0.000198934
0.000199973
0.000183199
0.000189885
0.000168723
0.000183625
0.000155616
0.000181341
0.000143678
0.000182852
0.000132857
0.000186862
0.000123882
0.000191105
0.000118248
0.000193923
0.000117542
0.000195521
0.000122815
0.000197566
0.000134499
0.000201697
0.000152722
0.000208384
0.000177571
0.000216987
0.000209053
0.000226593
0.000246821
0.000236647
0.000289954
0.000246732
0.000336942
0.000255984
0.000385861
0.000262718
0.000434588
0.000264708
0.00048095
0.00025972
0.000522831
0.000246093
0.000558248
0.0002231
0.000585461
0.000191099
0.000603144
0.000151238
0.000610614
0.000104954
0.000607938
5.38762e-05
0.000595886
-1.45494e-07
0.000575626
-5.45436e-05
0.000548527
-0.000106591
0.000515886
-0.000153298
0.000479153
-0.000193092
0.0004398
-0.000224513
0.000399667
-0.000247781
0.000360442
-0.000261719
0.000324083
-0.000267134
0.000291861
-0.000262093
0.0002653
-0.000248715
0.000244876
-0.00022542
0.000231659
-0.000197051
0.000224985
-0.000160813
0.000225172
-0.000123145
0.000230143
-7.8765e-05
0.000240096
-3.7942e-05
0.000252163
7.01255e-06
0.000267496
3.98987e-05
0.000282556
7.31714e-05
0.000299424
8.53156e-05
0.000312012
0.000101247
0.000322481
9.39937e-05
0.000322172
0.000101126
0.00031675
8.01654e-05
0.00029739
8.36398e-05
0.000276065
5.00165e-05
0.000242964
5.58555e-05
0.000216778
1.30477e-05
0.000183203
3.09475e-05
0.000165804
-1.30552e-05
0.000140796
3.44476e-05
0.000137306
-2.15623e-06
0.000121825
7.86949e-05
0.000133929
3.16478e-05
0.000131098
0.000134511
0.000158063
6.79113e-05
0.000153591
0.000216253
0.000188833
9.25795e-05
0.000177728
0.000272223
0.000252251
-6.06119e-05
0.000201403
0.000234569
0.000400498
-0.000427417
0.000357862
-7.54151e-05
0.000438146
-7.54286e-05
0.000935994
-0.00162334
0.000224098
0.00202764
0.00165416
-0.0041449
-0.000930846
0.00759633
0.00218626
-0.00844306
0.00437668
-0.00935128
-0.00163002
0.019638
0.00149461
-0.00941581
-0.00483914
0.0243034
0.0190589
-0.0814828
-0.0347332
0.167377
0.0117536
-0.130527
0.0155894
-0.0482394
-0.0795582
0.35481
0.120054
-0.638393
-0.113137
0.696436
-0.073742
-0.125126
0.0412111
-0.430754
-0.110353
0.613225
0.247142
-1.3079
-0.283044
1.84242
-0.319137
0.0812181
0.45221
-2.56362
0.0743469
1.28263
0.121386
0.0882534
0.129642
-0.237571
-0.139622
0.802897
0.135088
-0.754055
-0.380272
-0.000814278
-0.000251486
0.000833158
-0.000757682
-0.000213684
-0.000699525
-0.000154212
-0.000633868
-0.000112013
-0.000567612
-8.73215e-05
-0.000493337
-5.67847e-05
-0.000405646
-1.44157e-06
-0.00030618
8.16764e-05
-0.000203434
0.00017744
-0.000110558
0.000259738
-3.76368e-05
0.000302491
1.54214e-05
0.000295065
5.80261e-05
0.00025116
9.97699e-05
0.000203127
0.000141674
0.000180865
0.000176405
0.000191743
0.000196024
0.00021977
0.000198949
0.000242259
0.000190363
0.000247062
0.000177266
0.000237129
0.000163977
0.000222538
0.000151831
0.000210613
0.000141208
0.000203382
0.00013244
0.000200906
0.000125396
0.000203278
0.000119643
0.000209392
0.000115435
0.000216325
0.000114172
0.000221341
0.000117726
0.000224169
0.000127468
0.000226881
0.000143942
0.000231827
0.000167208
0.000239832
0.000197263
0.00025013
0.000234097
0.000261503
0.000277404
0.000273227
0.000326285
0.000284887
0.000379181
0.000295587
0.000434055
0.000303392
0.000488659
0.000305611
0.000540733
0.00029949
0.000588094
0.000283019
0.00062869
0.000255393
0.000660676
0.000217165
0.000682592
0.000169808
0.000693638
0.000115049
0.000693804
5.47779e-05
0.000683843
-8.89227e-06
0.00066494
-7.29362e-05
0.000638503
-0.000134147
0.000605865
-0.000188962
0.000568557
-0.000235652
0.000528141
-0.000272549
0.00048663
-0.000300091
0.00044584
-0.000316746
0.000407922
-0.000323492
0.000374198
-0.000317631
0.000346331
-0.000301778
0.00032474
-0.000273671
0.000310616
-0.000239478
0.000303115
-0.00019534
0.000302651
-0.000149556
0.000306827
-9.50781e-05
0.000316053
-4.52806e-05
0.000327107
1.00284e-05
0.000341612
4.97533e-05
0.000355558
9.04865e-05
0.000371653
0.00010431
0.000382849
0.000124206
0.000392016
0.00011479
0.000389069
0.000125337
0.000381007
9.97867e-05
0.000357291
0.000107225
0.000332163
6.63993e-05
0.000293537
7.79846e-05
0.000263481
2.50358e-05
0.000224306
5.15208e-05
0.000203996
-5.33461e-06
0.000173594
5.72286e-05
0.000168272
5.90811e-06
0.00014759
0.000108089
0.000159514
3.90775e-05
0.000152109
0.00016977
0.000180552
7.52597e-05
0.0001707
0.000267911
0.000210353
9.80928e-05
0.000194469
0.000339195
0.000285657
-0.000118737
0.000227688
0.000291803
0.000467424
-0.000606055
0.000414979
-7.83157e-05
0.000531014
-0.000155326
0.00110525
-0.00215005
0.000259818
0.00284045
0.00198684
-0.00577233
-0.00111418
0.0107418
0.00274731
-0.0130424
0.00496989
-0.0116811
-0.00210673
0.0267042
0.00204894
-0.013814
-0.00518892
0.0318235
0.0223097
-0.108927
-0.0410977
0.229021
0.0148293
-0.183454
0.0130757
-0.0467226
-0.0900378
0.456374
0.149711
-0.877486
-0.135637
0.980062
-0.0893737
-0.173367
0.026215
-0.543151
-0.127475
0.771185
0.335925
-1.77695
-0.323092
2.51075
-0.372037
0.120569
0.491437
-3.42362
0.0845572
1.69226
0.205162
-0.029945
0.15501
-0.18657
-0.180394
1.13717
0.172853
-1.10677
-0.52129
-0.000828316
-0.000218734
0.000853392
-0.000762764
-0.000183928
-0.000708036
-0.000134714
-0.00064967
-9.44582e-05
-0.000591903
-6.4685e-05
-0.000527362
-3.34503e-05
-0.000450473
1.41319e-05
-0.000360056
8.55258e-05
-0.000260812
0.000172574
-0.000163728
0.000254584
-8.25936e-05
0.000307622
-2.51473e-05
0.000315221
1.27965e-05
0.000280593
4.31761e-05
0.000229674
7.45953e-05
0.000196174
0.000105643
0.000197482
0.000128315
0.000224431
0.000136728
0.000252876
0.000132413
0.000264023
0.000121925
0.000256133
0.000110845
0.000239993
0.000101233
0.000225976
9.35701e-05
0.000217425
8.85286e-05
0.000214113
8.63803e-05
0.000216399
8.6436e-05
0.000223994
8.81689e-05
0.000233797
9.24686e-05
0.000241735
0.00010133
0.000246449
0.000116535
0.000250134
0.000138858
0.000256002
0.000168309
0.000265486
0.000204736
0.000277787
0.000248048
0.000291298
0.000297968
0.000305009
0.000353655
0.000318447
0.000413536
0.000330732
0.000475451
0.000339762
0.000536981
0.000342403
0.000595735
0.000335324
0.000649479
0.000316074
0.00069613
0.000283745
0.00073377
0.000239129
0.000760811
0.000184107
0.000776312
0.000120743
0.000780165
5.11932e-05
0.000773095
-2.21804e-05
0.000756303
-9.58867e-05
0.000731248
-0.00016623
0.000699299
-0.000229028
0.000662067
-0.000282412
0.000621189
-0.0003245
0.000578841
-0.000356035
0.000536958
-0.000375103
0.000497886
-0.000382938
0.000462996
-0.000375944
0.000434091
-0.00035732
0.000411508
-0.000323911
0.000396574
-0.000283419
0.000388236
-0.000230607
0.000387054
-0.00017599
0.000390278
-0.000110328
0.000398605
-5.07729e-05
0.000408392
1.59757e-05
0.000421825
6.29282e-05
0.000434274
0.00011189
0.000449197
0.000127212
0.000458381
0.00015177
0.000465626
0.000139777
0.000459148
0.00015475
0.000447616
0.000123851
0.00041838
0.000136395
0.000388445
8.68424e-05
0.000342879
0.000105498
0.000307829
4.00782e-05
0.0002614
7.72532e-05
0.000237024
4.84217e-06
0.000199474
8.62438e-05
0.000191438
1.69783e-05
0.000163973
0.000145558
0.000175364
4.94728e-05
0.000162106
0.000214121
0.000192472
8.43216e-05
0.000176671
0.000329057
0.000222436
0.00010054
0.000202184
0.000413345
0.000312515
-0.000195082
0.000247787
0.000353621
0.000531355
-0.000826856
0.000473226
-8.12698e-05
0.000616371
-0.000262628
0.00126848
-0.0027555
0.000296535
0.00377634
0.00233312
-0.00770327
-0.00132122
0.014446
0.00339664
-0.0169153
0.00547241
-0.0138643
-0.00256668
0.0347728
0.00272555
-0.0193303
-0.00548586
0.0403334
0.0254991
-0.139852
-0.0472149
0.299854
0.0178852
-0.24538
0.00929212
-0.0383413
-0.0997676
0.563346
0.179792
-1.15618
-0.156398
1.31394
-0.103626
-0.22813
0.00466259
-0.648062
-0.145665
0.925678
0.424626
-2.3531
-0.351673
3.29627
-0.41987
0.178883
0.507041
-4.34683
0.0889576
2.07922
0.306672
-0.245013
0.186123
-0.0649578
-0.219625
1.54165
0.211119
-1.53702
-0.683398
-0.000844274
-0.000187646
0.000872771
-0.000771463
-0.000154633
-0.000717824
-0.000111583
-0.000662206
-7.18414e-05
-0.000606949
-3.80946e-05
-0.000545396
-6.39728e-06
-0.000474125
3.46568e-05
-0.00039177
9.47766e-05
-0.000299635
0.000170377
-0.000204628
0.000245956
-0.000119334
0.000302938
-5.63198e-05
0.000324697
-1.8849e-05
0.00030577
1.87382e-06
0.000261169
1.87738e-05
0.000221284
3.824e-05
0.000210355
5.67385e-05
0.000229277
6.66458e-05
0.00025832
6.48387e-05
0.00027478
5.53052e-05
0.000270318
4.41654e-05
0.000253573
3.46214e-05
0.000237398
2.7488e-05
0.000227169
2.38051e-05
0.000222329
2.46478e-05
0.000223131
2.95926e-05
0.000230647
3.73235e-05
0.000242594
4.7716e-05
0.000253762
6.24598e-05
0.000261022
8.36864e-05
0.000266056
0.000112537
0.000272903
0.000149052
0.000283907
0.000192892
0.000298426
0.0002438
0.000314441
0.000301464
0.000330508
0.000365106
0.000345975
0.000433182
0.000359985
0.000503413
0.000370391
0.000573138
0.000373715
0.000639758
0.000365995
0.000700969
0.00034419
0.000754711
0.00030719
0.000799056
0.000256068
0.0008323
0.00019323
0.000853348
0.00012115
0.000861961
4.22695e-05
0.000858823
-4.08365e-05
0.000845143
-0.000124217
0.000822444
-0.000203688
0.000792131
-0.000274389
0.00075589
-0.000334315
0.000715414
-0.000381331
0.000673028
-0.000416569
0.000630761
-0.000437687
0.000591172
-0.000446294
0.000555666
-0.000437736
0.000526202
-0.000415924
0.000502993
-0.000376558
0.000487527
-0.000329152
0.000478507
-0.000266728
0.000476696
-0.000202468
0.000478945
-0.000124407
0.000486327
-5.42609e-05
0.00049469
2.51584e-05
0.00050688
7.9786e-05
0.000517471
0.000137973
0.000530825
0.00015468
0.000537336
0.000184855
0.000542003
0.000169835
0.000531009
0.000190505
0.000515086
0.000153356
0.000478994
0.000172488
0.000443096
0.00011244
0.00038892
0.00013994
0.000347537
5.93195e-05
0.000291865
0.00010985
0.000262044
1.84708e-05
0.000215252
0.000123107
0.000203478
3.15575e-05
0.000167356
0.000192493
0.000177861
6.28702e-05
0.000157316
0.000268962
0.000190355
9.46689e-05
0.000168127
0.000400859
0.000222263
9.86574e-05
0.000198179
0.000495284
0.000330518
-0.000291436
0.00025944
0.000420446
0.000589822
-0.00109212
0.000522104
-8.00584e-05
0.000710484
-0.000416053
0.00139679
-0.00339133
0.000330627
0.00479654
0.00269165
-0.00995259
-0.00146204
0.0186499
0.00406795
-0.0233777
0.0058674
-0.0157805
-0.00297037
0.0435956
0.00349353
-0.0259963
-0.0057719
0.0499118
0.0286736
-0.174228
-0.0529855
0.379508
0.0209639
-0.315977
0.00465013
-0.0221951
-0.109069
0.674382
0.209191
-1.47334
-0.175086
1.69511
-0.115659
-0.289546
-0.0209702
-0.739179
-0.165761
1.07463
0.510364
-3.03531
-0.369903
4.18612
-0.46052
0.259432
0.503881
-5.30743
0.0863963
2.63593
0.416053
-0.572808
0.226869
0.125468
-0.25085
2.01798
0.247628
-2.03506
-0.865596
-0.00086077
-0.000157683
0.000892707
-0.000781959
-0.000125326
-0.000728233
-8.71883e-05
-0.000673119
-4.83911e-05
-0.000617929
-1.27075e-05
-0.000556547
1.84289e-05
-0.000487753
5.40451e-05
-0.00041129
0.000104827
-0.000326935
0.000169515
-0.000238107
0.000236212
-0.000153647
0.000291454
-8.65477e-05
0.000322929
-4.56798e-05
0.000321078
-2.85118e-05
0.000290145
-2.30628e-05
0.000251886
-1.75497e-05
0.000231339
-8.73742e-06
0.000238282
-2.02855e-06
0.000261825
-3.74851e-06
0.000280524
-1.3956e-05
0.000280221
-2.74973e-05
0.000264526
-4.00061e-05
0.000246803
-4.99284e-05
0.000234852
-5.59217e-05
0.000228171
-5.59406e-05
0.000226289
-4.93522e-05
0.000231595
-3.76421e-05
0.000243812
-2.21372e-05
0.000257557
-2.05063e-06
0.000267636
2.47671e-05
0.000274326
5.98713e-05
0.000282098
0.000103477
0.000294411
0.000155096
0.000311072
0.000214237
0.000329718
0.000280446
0.000348367
0.000352957
0.000366025
0.000430285
0.000381786
0.000510063
0.000393582
0.000589318
0.000397788
0.000665104
0.000389831
0.000734974
0.000365865
0.000796933
0.000324369
0.000849128
0.00026669
0.000889791
0.000195908
0.000917657
0.000115035
0.000932326
2.68254e-05
0.000934414
-6.59843e-05
0.000925128
-0.000159005
0.000906052
-0.000247584
0.000878624
-0.000326115
0.000844601
-0.000392461
0.000805705
-0.000444162
0.000764386
-0.000482813
0.00072274
-0.00050558
0.000683551
-0.000514599
0.000648246
-0.000503978
0.00061896
-0.000478489
0.000595741
-0.00043238
0.000580255
-0.000377325
0.000570927
-0.000304197
0.000568791
-0.000229396
0.000570242
-0.000137572
0.000576823
-5.59451e-05
0.000583759
3.75532e-05
0.000594662
0.000100382
0.000603113
0.000169071
0.000614562
0.000187132
0.00061776
0.000224198
0.000619214
0.000205685
0.000602683
0.000233683
0.000581409
0.000189289
0.000536997
0.000216965
0.000493868
0.000144436
0.000429181
0.000183172
0.000379942
8.42265e-05
0.000312704
0.000151539
0.000275842
3.69961e-05
0.000217355
0.000170061
0.000200673
5.05672e-05
0.000153683
0.000250859
0.000162952
7.94502e-05
0.000133491
0.000335915
0.000170297
0.000105422
0.000141233
0.000484198
0.000206608
9.02882e-05
0.000179301
0.000585291
0.000336993
-0.000410243
0.000259955
0.000492688
0.00064016
-0.00140405
0.00056046
-7.19845e-05
0.00079643
-0.000617703
0.00157165
-0.00411939
0.000343135
0.00597786
0.00307986
-0.0125719
-0.00165503
0.0234418
0.00481986
-0.0295638
0.00615052
-0.0172341
-0.00326983
0.0530202
0.00430359
-0.0337948
-0.00607949
0.0606206
0.0318943
-0.212119
-0.0583419
0.467612
0.0242056
-0.394991
-0.000306494
0.00221869
-0.118244
0.78885
0.23678
-1.82702
-0.191894
2.11967
-0.124776
-0.358638
-0.0472558
-0.812926
-0.187983
1.21943
0.587474
-3.81709
-0.381681
5.16497
-0.491442
0.358954
0.488237
-6.28271
0.0693374
2.90978
0.518036
-1.01989
0.279213
0.365677
-0.266951
2.56265
0.280177
-2.5818
-1.06634
-0.000876273
-0.000132304
0.000912298
-0.00079259
-0.000100194
-0.000738137
-6.54207e-05
-0.000682838
-2.78283e-05
-0.000627392
8.25926e-06
-0.000566052
3.80169e-05
-0.000498981
6.88875e-05
-0.000426921
0.000112034
-0.000349518
0.000167453
-0.00026831
0.000225366
-0.000188822
0.000276009
-0.000121247
0.000311967
-7.63074e-05
0.000324214
-5.7146e-05
0.000309609
-5.62856e-05
0.000279891
-6.10702e-05
0.000255608
-6.28914e-05
0.000251105
-6.24103e-05
0.000265051
-6.61319e-05
0.000282053
-7.78911e-05
0.000285578
-9.50467e-05
0.000272983
-0.000112727
0.000255307
-0.000128259
0.000242221
-0.000140038
0.000234086
-0.000145394
0.00022934
-0.000142148
0.000230835
-0.000130813
0.000240869
-0.000113329
0.000255411
-9.01507e-05
0.000267773
-5.96535e-05
0.000276132
-2.0035e-05
0.000284631
2.92234e-05
0.000297769
8.76277e-05
0.00031607
0.000154483
0.000337006
0.000229108
0.000358069
0.000310632
0.000377789
0.000397615
0.000395052