/*--------------------------------*- C++ -*----------------------------------*\
| =========                 |                                                 |
| \\      /  F ield         | OpenFOAM: The Open Source CFD Toolbox           |
|  \\    /   O peration     | Version:  2412                                  |
|   \\  /    A nd           | Website:  www.openfoam.com                      |
|    \\/     M anipulation  |                                                 |
\*---------------------------------------------------------------------------*/
FoamFile
{
    version     2.0;
    format      ascii;
    arch        "LSB;label=32;scalar=64";
    class       surfaceScalarField;
    location    "0.975";
    object      ddtCorrDdt0(phi);
}
// * * * * * * * * * * * * * * * * * * * * * * * * * * * * * * * * * * * * * //

dimensions      [0 3 -2 0 0 0 0];

oriented        oriented;

internalField   nonuniform List<scalar> 
24930
(
0.566646
1.53664
1.08384
0.198555
0.252066
0.117216
0.080612
0.0793825
0.0132772
0.0606623
0.0158885
0.0538021
0.0126733
0.0546285
0.00584557
0.0362177
0.0370604
0.0247308
0.0416924
-0.00646436
0.0314751
0.00547889
-0.0149486
0.0375548
-0.0479338
0.0861853
-0.0500623
0.0561031
0.029588
-0.0234637
0.128249
-0.0822926
0.0954289
-0.064509
-0.051886
0.0380802
-0.214314
0.157197
-0.245446
0.173431
-0.00400788
0.191068
0.229639
-0.05018
0.616995
-0.383801
0.395592
-0.436511
-0.269814
0.391503
-1.6552
0.368121
-0.0792506
0.0933615
0.464705
-0.100668
0.336816
-0.0748325
0.042174
0.0170495
-0.104952
0.0132405
-0.114646
-0.0385362
0.00031536
-0.0442329
0.0305054
-0.0413834
0.0133753
-0.0362517
0.0053114
-0.0261543
-0.035357
-0.0538068
-0.0137768
-0.0553747
0.0145974
-0.034637
-0.00315211
-0.0340901
0.0147426
-0.0312789
0.0184967
-0.0250502
-0.0238154
-0.0437371
-0.00828231
-0.0406604
0.0147783
-0.0325724
0.00598873
-0.0272322
-0.00223259
-0.0205539
-0.00176295
-0.0133547
-0.00372075
-0.0160284
0.0101277
-0.0164338
0.0211486
-0.015291
0.0188131
-0.00830314
0.0083142
-0.0184252
0.00954567
-0.0267228
-0.0154381
-0.00428513
-0.0441802
-0.0379513
0.0147168
-0.0185744
-0.0188673
-0.015526
0.00109874
-0.0128849
0.00544249
-0.0105621
0.0106268
-0.0153609
0.0126139
-0.0128791
0.00449427
-0.0201897
0.00923781
-0.00620566
-0.00584078
-0.0115811
0.00575016
-0.00559951
0.0137857
0.00259039
-0.00250959
-0.00134079
0.00477148
0.00819869
0.00437462
0.0118341
0.00274284
0.0122436
0.0111449
0.0184359
0.00647591
0.0103683
0.00138406
0.014393
0.00248853
0.00855011
0.00835786
0.00870322
0.00177336
0.00754441
-0.00143771
0.000847618
0.0123334
0.00519732
0.00930998
0.00157887
0.0145378
-0.00453201
0.0236997
-0.000873378
0.0169133
-0.00670858
0.0127118
-0.000269941
0.000324562
-0.00444575
0.00212455
0.00413245
-0.00107457
0.00387605
-0.00597565
0.0126477
-0.00515364
0.0252785
0.0316216
0.0311216
-0.0123718
0.0378712
-0.00585289
0.0319958
-0.000864631
0.0449785
0.0154359
0.00847241
0.0533784
-0.0371825
0.0342304
0.00353848
-0.100974
0.0255528
-0.0299921
0.0252361
-0.00418534
0.0124666
0.00540567
0.010323
-0.000620872
0.00501639
0.0137867
-0.00297775
0.00625572
0.00152704
-0.0131984
0.00805269
-0.0052572
0.00826477
-0.000998862
0.0142872
-0.0164207
0.0287363
-0.0197973
0.0412489
-0.0190502
0.0436822
-0.0066567
0.0311368
0.0121574
0.0162873
0.0148148
-0.00706192
0.0571341
-0.0389396
0.0958505
-0.0569994
0.0179101
-0.0444613
-0.0192016
-0.0216611
-0.0276977
-0.0239392
-0.001673
-0.0260968
-0.000456839
0.00212143
-0.0304542
-0.0157717
0.280189
0.840601
0.376975
0.192368
0.352673
0.137926
0.14244
0.0909727
0.0639849
0.0604427
0.0341782
0.0542326
0.0209099
0.0563339
0.0071639
0.0302706
0.00380357
0.00610893
-0.000701346
-0.012047
0.0146153
0.0217078
0.0355688
0.0494771
0.033845
0.074601
-0.0229593
0.0165443
-0.0908235
-0.0564693
-0.0746612
-0.0842674
0.0124754
-0.0249605
0.130498
0.0932305
0.138342
0.17651
-0.0738392
0.125535
-0.327814
0.0775306
-0.482007
-0.155325
0.37233
-0.29609
1.01945
-0.181913
0.917835
0.443173
-1.84744
0.234837
0.499976
-0.0121152
0.341297
-0.108252
-0.203266
-0.0415945
-0.326285
0.0338637
-0.159462
0.00468491
-0.0522925
-0.0491363
0.0100253
-0.0453684
-0.0239442
-0.0414179
-0.039092
-0.0366487
0.00521665
-0.0295688
-0.011215
-0.0598503
-0.0173414
-0.0572106
-0.00655809
-0.0332909
-0.0301344
-0.0352578
0.00431521
-0.0341722
0.031518
-0.028436
-0.0134391
-0.0477435
-0.0206287
-0.0436737
-0.00429233
-0.0341484
-0.0132575
-0.0290628
-0.0111706
-0.0214747
0.00222414
-0.0139995
0.000538514
-0.0167178
0.0027556
-0.0168057
0.00498529
-0.0148168
-0.000410804
-0.0103871
-0.00336612
-0.01659
0.0126623
-0.0269861
-0.0267196
-0.00607404
-0.0741779
-0.0393601
0.0181622
-0.0193614
-0.0303611
-0.0162328
0.000741644
-0.0162629
0.00984756
-0.0145775
0.016318
-0.0203762
0.0148816
-0.0183396
0.00517295
-0.0260523
0.00839701
-0.010428
-0.00477652
-0.0147172
0.00245378
-0.00572557
0.0124736
0.00609356
-0.00714436
0.00545381
-0.000877698
0.0193688
-5.30523e-05
0.0262883
-0.00139234
0.02824
0.00898775
0.033743
0.007547
0.0240296
0.00387343
0.0244164
0.00947049
0.0152945
0.00955333
0.0145912
0.00136597
0.0130694
-0.00275819
0.00477761
0.00981434
0.00705511
0.0119728
-0.000728637
0.00628777
-0.0101357
0.0248232
-0.00973029
0.00935167
-0.018177
0.00812552
-0.0116839
-0.000353304
-0.0164032
0.00234465
-0.00619648
0.000127029
0.00117067
-0.0147121
0.0259919
-0.0234395
0.0589158
0.0273404
0.0823073
-0.0353099
0.0926401
-0.00311197
0.0811049
0.00840663
0.123774
-0.0508974
-0.00164511
0.173763
-0.148432
0.188362
-0.0315963
-0.16013
0.065427
-0.136254
0.0654245
-0.00851354
0.0222309
0.0387889
0.0227728
-0.0056679
-0.00378779
0.0426335
-0.0273028
0.0265902
-0.00652267
-0.0445602
-0.00272913
-0.00308786
0.00440863
-0.00861448
0.0265791
-0.0241874
0.0830387
-0.0797442
0.124165
-0.0695316
0.117114
-6.23246e-05
0.0702901
0.0551767
0.0121605
0.0797724
-0.0540614
0.0822601
-0.146044
0.132841
-0.205977
0.0707976
-0.162517
-0.0666594
-0.0823108
-0.109221
-0.0782116
-0.0105331
-0.0832931
0.00267842
-0.00325585
-0.110828
-0.0651341
0.178644
0.523465
0.0748592
0.183852
0.331256
0.145477
0.176744
0.10142
0.0810776
0.0679923
0.0324017
0.0588841
0.015513
0.0611649
0.00750294
0.0307018
-2.99128e-05
0.00733526
0.000213217
-0.00633916
0.0118703
0.0303002
0.0294373
0.0524504
0.0164868
0.0702062
-0.0398607
0.00924313
-0.121167
-0.06371
-0.110808
-0.0754909
0.00419256
0.00180321
0.174002
0.121516
0.221743
0.184227
-0.0241644
0.0759041
-0.439548
-0.0739109
-0.794106
-0.241015
-0.277933
-0.0947907
1.02151
0.182635
1.72728
0.213041
-1.05028
0.202462
-0.318591
-0.113212
0.272768
-0.0954702
-0.525362
-0.00893542
-0.454319
0.0463573
-0.119061
0.000692069
-0.0102624
-0.0565106
0.000357595
-0.0473953
-0.047127
-0.0416939
-0.0573831
-0.0384757
-0.000752334
-0.0319563
-0.0143123
-0.0638761
-0.0324117
-0.0601644
-0.00979248
-0.0331002
-0.0309345
-0.036106
-0.00128975
-0.0365495
0.0321292
-0.0300524
-0.0123034
-0.0500017
-0.0298747
-0.0456791
-0.00777332
-0.035182
-0.0148208
-0.0297901
-0.0127946
-0.0218869
0.00271913
-0.0140569
0.000158016
-0.0172245
-0.00261034
-0.017627
-0.00301996
-0.0158255
-0.0118029
-0.0120516
-0.0193291
-0.0158588
0.0135731
-0.0272083
-0.0181567
-0.0142939
-0.0649672
-0.0363734
0.0284755
-0.0206307
-0.0319605
-0.0185607
0.00375345
-0.0198686
0.0193008
-0.0189377
0.0233871
-0.0258471
0.0173676
-0.024144
0.00717968
-0.0323065
0.00640693
-0.0147099
-0.00544632
-0.0177096
-0.00449185
-0.005577
0.00713201
0.0104073
-0.0139511
0.0134382
-0.0096562
0.0320354
-0.00420275
0.0423951
-0.00755854
0.0461049
0.00598627
0.050225
0.0114527
0.0394349
0.0106182
0.0346658
0.0176132
0.0210227
0.0136423
0.0181827
0.00277875
0.0156207
-0.00357078
0.00521504
0.00995043
0.00508648
0.0188618
-0.00656367
0.0152175
-0.0193631
0.0320521
-0.0215167
0.0190604
-0.0318803
0.0113311
-0.0244011
0.00132628
-0.0284884
0.0017845
-0.0154968
-0.000619285
0.00137026
-0.0367657
0.0439945
-0.0624133
0.09934
-0.0353559
0.140445
-0.0809891
0.153495
-0.0057526
0.134597
0.0241755
0.209278
-0.128043
-0.00589927
0.397649
-0.267614
0.45044
-0.0738273
-0.347139
0.106813
-0.333201
0.110853
-0.0151827
0.0353254
0.111088
0.035462
-0.00881867
-0.0143399
0.0956268
-0.0534032
0.0636632
-0.0169296
-0.0901631
-0.0167338
0.00573393
0.000421718
-0.0263811
0.0481172
-0.0726883
0.137862
-0.175591
0.218154
-0.157877
0.187813
0.0294477
0.0944673
0.144006
-0.0098373
0.189962
-0.113961
0.181437
-0.262131
0.279364
-0.361572
0.164974
-0.286651
-0.14866
-0.145002
-0.25434
-0.129739
-0.0310406
-0.140618
0.0093981
-0.0126427
-0.239871
-0.146663
0.121055
0.366206
0.0281617
0.150825
0.288033
0.129545
0.18198
0.0975738
0.0960121
0.0711307
0.0411767
0.0625602
0.0169164
0.063183
0.00588529
0.0312151
-0.00440406
0.008577
-0.00273802
-0.00319608
0.00191047
0.0307436
0.00765824
0.0455251
-0.0142224
0.0585396
-0.0589027
0.00633319
-0.124709
-0.0541785
-0.10227
-0.0537905
0.0205812
0.0153072
0.166213
0.110132
0.17043
0.151819
-0.0834689
0.029031
-0.437389
-0.0802387
-0.566622
-0.187481
-0.087096
0.0575228
1.11816
0.395638
1.70886
0.0745433
0.0960004
-0.0176982
-0.5913
-0.146428
0.202917
-0.0619504
-0.379634
0.0238779
-0.37942
0.0546977
-0.013369
-0.00430751
0.0494851
-0.0642778
-0.0121014
-0.0502262
-0.0604139
-0.0420242
-0.0604454
-0.0413669
-0.000577409
-0.0350242
-0.0152509
-0.0677928
-0.0407639
-0.0641535
-0.00258078
-0.0337938
-0.0196305
-0.0373788
-0.000658694
-0.0396202
0.0348727
-0.0321375
-0.00679315
-0.0525086
-0.0333907
-0.0481504
-0.00697937
-0.0367497
-0.0116789
-0.0308618
-0.0113076
-0.0226977
0.00451315
-0.0144596
0.00109271
-0.0180334
-0.00600432
-0.0187432
-0.00822815
-0.0169746
-0.0188314
-0.0209324
-0.0184729
-0.00844917
0.0132958
-0.0281223
-0.00910635
-0.0244373
-0.0411469
-0.0327291
0.0254827
-0.0232425
-0.0205795
-0.0217868
0.0126213
-0.0241439
0.0309665
-0.0240012
0.0313201
-0.0320623
0.0206991
-0.0305336
0.0098124
-0.0391259
0.00405583
-0.0193039
-0.00714396
-0.0207301
-0.0136953
-0.00517099
-0.00152823
0.0154843
-0.0245541
0.0226001
-0.0231722
0.0463491
-0.0124192
0.0605558
-0.0177559
0.0661821
0.000344458
0.0685894
0.0166996
0.0568506
0.0225621
0.0456062
0.0294811
0.0259575
0.0232033
0.0195575
0.00805236
0.0148558
-0.00254613
0.00167449
0.0120308
-0.000973719
0.0284205
-0.0162959
0.0273117
-0.0320719
0.0438335
-0.0359821
0.0311781
-0.0475855
0.0150861
-0.0379179
0.00143438
-0.0401967
-0.000866424
-0.0227189
-0.00531342
0.00546102
-0.0694654
0.0680014
-0.1211
0.147308
-0.153437
0.205195
-0.143501
0.221762
-0.0116203
0.192137
0.0504227
0.298818
-0.237017
0.00276699
0.703535
-0.387031
0.841088
-0.128375
-0.6008
0.145957
-0.625462
0.161781
-0.0332983
0.0526254
0.217414
0.0480442
-0.00787246
-0.0262619
0.173142
-0.0803527
0.115722
-0.0283376
-0.151746
-0.0331583
0.0205522
-0.00204777
-0.0584571
0.0793512
-0.171391
0.22545
-0.327955
0.319372
-0.26037
0.249741
0.0982516
0.098446
0.290225
-0.0497068
0.344365
-0.187226
0.311139
-0.382189
0.473437
-0.518108
0.296056
-0.41278
-0.261379
-0.206808
-0.463855
-0.175721
-0.0676789
-0.195825
0.0252208
-0.0245833
-0.412312
-0.260725
0.0888121
0.255113
-0.00358208
0.117838
0.221601
0.105862
0.154487
0.0853096
0.0962693
0.0706155
0.0519871
0.0653736
0.0263827
0.0637755
0.0118667
0.0318705
-7.05157e-06
0.00836109
-0.00139448
-0.00311003
-0.00811881
0.0270721
-0.0155984
0.0375994
-0.0375675
0.0471523
-0.0617247
0.00842953
-0.106079
-0.0378213
-0.0867894
-0.0327302
0.0167439
0.0220965
0.122772
0.0843541
0.109805
0.122772
-0.0894686
0.00794691
-0.314013
-0.0393151
-0.286468
-0.0701105
0.13031
0.14919
0.959722
0.332688
1.00014
0.0159356
-0.202371
-0.189772
-0.816877
-0.104912
-0.500533
-0.00538306
-0.185698
0.0555536
-0.201285
0.058951
0.0653516
-0.0128774
0.11345
-0.0727153
-0.0243677
-0.0531489
-0.0781501
-0.0421959
-0.0590067
-0.0450067
0.0029968
-0.0388396
-0.0148523
-0.0714294
-0.0469803
-0.0687762
0.00533451
-0.0350703
-0.00567702
-0.0387638
-9.17764e-05
-0.0431863
0.0343276
-0.0347659
-0.00238138
-0.0552023
-0.036639
-0.0510388
-0.00836367
-0.038732
-0.0101536
-0.0321994
-0.0117601
-0.0238212
0.00388959
-0.0151812
0.000589849
-0.0190825
-0.0092819
-0.0201313
-0.0120465
-0.0185824
-0.022104
-0.025613
-0.0120061
-0.00638697
0.0274894
-0.0302747
6.60938e-05
-0.0307746
-0.00871065
-0.0326973
0.0247924
-0.0262222
-0.00235312
-0.0256668
0.0215485
-0.029124
0.0386058
-0.0297352
0.0385711
-0.0388796
0.0250311
-0.0374095
0.0133945
-0.0463527
0.00179688
-0.0240773
-0.0093252
-0.0236647
-0.0243587
-0.00442471
-0.0133496
0.0213365
-0.0400622
0.0329677
-0.0426069
0.0622733
-0.0270597
0.0807552
-0.0324496
0.0885342
-0.00800864
0.0895565
0.0211289
0.0759201
0.0387169
0.0574461
0.0472671
0.0300821
0.0412733
0.0183031
0.0197727
0.010204
0.00283392
-0.00649046
0.0181545
-0.0118165
0.0422871
-0.0303622
0.0407078
-0.048477
0.0602481
-0.0530329
0.0430617
-0.0649797
0.019658
-0.051978
-0.000215889
-0.0510609
-0.00676824
-0.0278766
-0.0146308
0.0139826
-0.124881
0.0989602
-0.201972
0.201599
-0.254207
0.275007
-0.221845
0.295173
-0.0200743
0.251605
0.09105
0.389968
-0.376761
0.0294855
1.0764
-0.497161
1.36856
-0.196325
-1.01849
0.177958
-1.0227
0.218373
-0.0757306
0.0747079
0.35914
0.0601554
0.00228194
-0.0392401
0.275916
-0.107587
0.182012
-0.040283
-0.228998
-0.050686
0.0419914
-0.00126232
-0.109141
0.122373
-0.274185
0.322248
-0.5345
0.423554
-0.37053
0.295881
0.22526
0.0795631
0.501321
-0.105201
0.535884
-0.265253
0.455467
-0.504894
0.713674
-0.67125
0.456651
-0.53493
-0.40631
-0.266716
-0.736134
-0.216593
-0.123857
-0.24842
0.0522348
-0.0376581
-0.624588
-0.406705
0.0650406
0.184828
-0.0308582
0.0868732
0.173536
0.0848017
0.136918
0.0730573
0.0981949
0.0690608
0.0667895
0.0681397
0.0430979
0.0647236
0.0227762
0.0323006
0.00536574
0.00495702
-9.86563e-05
-0.00702717
-0.0118403
0.0217058
-0.0280079
0.032457
-0.0503018
0.0380038
-0.0593779
0.0114489
-0.0845788
-0.0206381
-0.0729096
-0.0156347
0.00471426
0.0211672
0.0783282
0.0572957
0.0672044
0.0829422
-0.0515936
0.0092709
-0.169596
0.0116228
-0.098043
0.0309516
0.175502
0.17372
0.599076
0.224814
0.372643
-0.0605675
-0.561037
-0.208533
-0.843388
-0.0941036
-0.481092
0.0534261
-0.100953
0.0725246
0.0354357
0.0585223
-0.0143764
-0.0272166
0.0871648
-0.0820442
-0.0442002
-0.0551229
-0.103123
-0.0418509
-0.0606742
-0.0492055
0.00787517
-0.0433252
-0.0142298
-0.0744832
-0.0539229
-0.0736856
0.00967262
-0.0369269
0.00734277
-0.0401855
-0.000229939
-0.0470832
0.0309903
-0.0379297
0.00150887
-0.0579919
-0.0384207
-0.0541743
-0.0105272
-0.0410218
-0.00893008
-0.0337155
-0.0121322
-0.0251777
0.00271299
-0.0161842
6.55513e-05
-0.0203739
-0.01163
-0.0217838
-0.0142421
-0.0203121
-0.0219356
-0.029508
-0.0103515
-0.0066087
0.0302699
-0.033122
0.0146169
-0.0337869
0.0206679
-0.0356857
0.0284721
-0.0297749
0.0150809
-0.0301263
0.0308278
-0.0346782
0.0466679
-0.0360208
0.0470598
-0.0461939
0.0306868
-0.0446953
0.0175995
-0.0539163
-0.000684956
-0.0290307
-0.0123688
-0.0265572
-0.0368512
-0.00345492
-0.0284046
0.0277731
-0.0598282
0.0442958
-0.0671282
0.0795532
-0.0469446
0.102775
-0.0510185
0.113034
-0.0181943
0.113501
0.0240281
0.0963303
0.0557034
0.0704327
0.0731056
0.0336467
0.068887
0.0143862
0.0393959
0.00125459
0.0138268
-0.0200283
0.0288352
-0.0279828
0.0600334
-0.0491617
0.0563267
-0.0685452
0.0773375
-0.0725709
0.0549736
-0.0839899
0.0237456
-0.0663829
-0.00557139
-0.0607985
-0.017377
-0.029414
-0.0313752
0.0271006
-0.177914
0.136388
-0.306952
0.263034
-0.373413
0.348188
-0.312211
0.372968
-0.0325236
0.312053
0.14912
0.473444
-0.540052
0.0786756
1.48474
-0.578598
2.02686
-0.281589
-1.18854
0.197576
-1.52653
0.27978
-0.159845
0.102354
0.535216
0.0715291
0.0277816
-0.0527442
0.403794
-0.134407
0.261534
-0.0524188
-0.321315
-0.0680672
0.0695761
0.00409199
-0.182848
0.17928
-0.448301
0.431502
-0.793844
0.523783
-0.472129
0.31895
0.4295
0.035891
0.778794
-0.170087
0.749106
-0.346523
0.617489
-0.625991
0.99351
-0.818644
0.64345
-0.653079
-0.581098
-0.326845
-1.06669
-0.25404
-0.203152
-0.298463
0.0914349
-0.0521818
-0.872608
-0.584171
0.0477939
0.154608
-0.0367895
0.0628535
0.150396
0.0658134
0.129871
0.0621992
0.102694
0.0664964
0.0802636
0.06865
0.0594915
0.0643799
0.0364949
0.032403
0.0125216
-1.25585e-05
0.000174528
-0.0143546
-0.0122416
0.014742
-0.0294793
0.0303375
-0.0516889
0.0316695
-0.0541092
0.0132642
-0.0649908
-0.00551257
-0.0608951
-0.00240717
-0.00859692
0.018611
0.0416644
0.0374005
0.0395902
0.0659247
-0.0164264
0.0204113
-0.0673794
0.0547402
-0.00081202
0.0940347
0.134101
0.157218
0.231025
0.12106
-0.0350938
-0.106951
-0.662848
-0.187454
-0.711483
-0.0574325
-0.244326
0.0861378
0.144428
0.100706
0.250013
0.0309139
0.127204
-0.0435132
-0.0213368
-0.0921329
-0.0924283
-0.0554075
-0.133206
-0.0407163
-0.0646116
-0.0541891
0.00913596
-0.0487681
-0.0132673
-0.0769282
-0.0624008
-0.0787633
0.00790976
-0.0395732
0.01665
-0.0417856
-0.00205695
-0.0513127
0.0243188
-0.0417804
0.00364275
-0.0610156
-0.039408
-0.0576151
-0.0138572
-0.0437173
-0.00877417
-0.0355143
-0.0126713
-0.0268563
0.000883556
-0.0175648
-0.000866178
-0.0220027
-0.0136201
-0.0237805
-0.0153589
-0.0222928
-0.0186424
-0.0326534
-0.0100734
-0.0108265
0.0337844
-0.0367892
0.0375507
-0.0348018
0.0525384
-0.0397844
0.0338298
-0.0340436
0.0321275
-0.0351373
0.0406091
-0.0407523
0.0557653
-0.0428065
0.0568964
-0.0539442
0.0374853
-0.0523521
0.0221441
-0.0617855
-0.00345652
-0.0342129
-0.016576
-0.0295144
-0.0513917
-0.00246463
-0.0469278
0.0345092
-0.0839822
0.0562496
-0.096782
0.0977949
-0.0721077
0.126225
-0.0735536
0.139346
-0.0301291
0.139865
0.0269474
0.118563
0.0770254
0.0848636
0.108155
0.0370299
0.107667
0.00797619
0.0692806
-0.0122369
0.0324644
-0.0426911
0.0486352
-0.0500298
0.0784936
-0.0729138
0.0740272
-0.0922141
0.094609
-0.0943328
0.066157
-0.104483
0.0264255
-0.0809395
-0.0157942
-0.0690802
-0.0342905
-0.0281501
-0.0576386
0.0462165
-0.257957
0.180548
-0.43659
0.328899
-0.51312
0.422453
-0.411463
0.453347
-0.0505779
0.372063
0.227659
0.543027
-0.713334
0.150641
1.89196
-0.621053
2.79721
-0.372703
-1.42982
0.199863
-2.12548
0.344817
-0.306841
0.136412
0.743043
0.0823624
0.0753675
-0.0659594
0.555961
-0.160405
0.353687
-0.0650154
-0.427312
-0.0837764
0.101287
0.017934
-0.286579
0.251302
-0.681612
0.550588
-1.10083
0.612212
-0.543394
0.312442
0.728827
-0.0304875
1.11583
-0.242421
0.968798
-0.425262
0.788463
-0.744471
1.31329
-0.960091
0.852763
-0.765983
-0.785242
-0.390076
-1.44718
-0.292173
-0.308065
-0.347356
0.140935
-0.0678802
-1.15415
-0.79219
0.0360996
0.142335
-0.0307527
0.0441604
0.137357
0.0467637
0.123616
0.050814
0.106504
0.0618982
0.0910417
0.0661872
0.0717215
0.06084
0.0475123
0.0306575
0.0199428
-0.00467461
0.00228743
-0.0223923
-0.00844165
0.00664391
-0.0205806
0.0300753
-0.0410342
0.0282039
-0.045675
0.0130928
-0.0492685
0.00613616
-0.0498788
0.00752739
-0.0187281
0.0166213
0.0160517
0.0256549
0.0223494
0.0578792
0.0138073
0.0327006
-0.00792794
0.0815774
0.0358748
0.116986
0.0726585
0.126845
-0.0165399
0.0379721
-0.261692
-0.124079
-0.566538
-0.142995
-0.470764
-0.0135409
-0.0101282
0.106062
0.336704
0.097596
0.313739
0.00865725
0.114837
-0.0574195
-0.0720227
-0.100347
-0.0710763
-0.053256
-0.134259
-0.0386757
-0.0716866
-0.0599268
0.00526991
-0.0555675
-0.0107224
-0.0788223
-0.0711292
-0.0838254
-0.000576849
-0.0431697
0.0216813
-0.0437161
-0.00560184
-0.0558394
0.0144732
-0.0464176
0.00272609
-0.0644159
-0.0405052
-0.0614137
-0.0185286
-0.0468924
-0.0103724
-0.0376871
-0.0139163
-0.028924
-0.0020387
-0.0193965
-0.00310296
-0.0240259
-0.0165346
-0.0261312
-0.0167872
-0.0246369
-0.0152886
-0.035658
-0.00976864
-0.0216311
0.0395609
-0.0410703
0.0520383
-0.0309093
0.0608951
-0.0443567
0.0418968
-0.0389713
0.047564
-0.0406217
0.0504477
-0.0472555
0.0658477
-0.0500097
0.0678524
-0.0620466
0.0451248
-0.060331
0.0267768
-0.0699331
-0.00655716
-0.0396906
-0.0221402
-0.0326861
-0.0681146
-0.00172921
-0.0692022
0.0411643
-0.112902
0.068384
-0.13202
0.116494
-0.10316
0.150619
-0.100596
0.167059
-0.0445194
0.168131
0.0304755
0.142956
0.101955
0.101155
0.152545
0.0408895
0.158881
-0.000404186
0.111886
-0.0301132
0.0611858
-0.0637514
0.0714594
-0.0782829
0.105352
-0.101891
0.0929307
-0.119346
0.110079
-0.118026
0.074962
-0.12667
0.027421
-0.0954587
-0.0327757
-0.0757132
-0.0590844
-0.0225826
-0.0953526
0.0709621
-0.357282
0.230781
-0.591433
0.398635
-0.671913
0.495668
-0.514588
0.535254
-0.0770078
0.431221
0.329039
0.593586
-0.878646
0.24441
2.25672
-0.603004
3.64402
-0.459114
-1.56851
0.180853
-2.79324
0.411474
-0.539912
0.178796
0.976074
0.093084
0.15334
-0.077801
0.730942
-0.185229
0.458633
-0.0786556
-0.54463
-0.0963855
0.132933
0.0416491
-0.427288
0.33847
-0.979229
0.675025
-1.44562
0.68006
-0.55831
0.270614
1.13798
-0.114362
1.49453
-0.309738
1.17236
-0.496411
0.9636
-0.858656
1.67616
-1.09626
1.08395
-0.873115
-1.01914
-0.458063
-1.86703
-0.33424
-0.439459
-0.410695
0.210679
-0.0858272
-1.48083
-1.03027
0.0237646
0.133376
-0.0205649
0.0267775
0.129067
0.029662
0.119363
0.0390018
0.108974
0.0533138
0.0976699
0.0590697
0.079024
0.0529544
0.0543508
0.025967
0.0275349
-0.0081735
0.0100472
-0.0280222
0.00182917
-0.00116616
-0.00526123
0.0297721
-0.0232606
0.0270782
-0.0343987
0.0115131
-0.0364719
0.0140372
-0.037211
0.0152049
-0.0200659
0.015879
0.00723203
0.0222174
0.0183287
0.0535617
0.0371582
0.0418235
0.0211274
0.0928215
0.0354062
0.106868
0.00245854
0.0913758
-0.125114
-0.0110651
-0.332374
-0.119493
-0.380135
-0.0884564
-0.17109
0.0311761
0.182931
0.109832
0.421989
0.0787334
0.297551
-0.0155003
0.011554
-0.0852272
-0.170302
-0.094619
-0.162532
-0.0496816
-0.108677
-0.0358631
-0.0754639
-0.0660048
-0.00866079
-0.0641995
-0.00655169
-0.0804036
-0.075177
-0.0885986
-0.014968
-0.0478535
0.0239738
-0.0461625
-0.00849627
-0.0606437
0.00336987
-0.051888
-0.00118259
-0.0683279
-0.0420142
-0.0656206
-0.0239695
-0.0505914
-0.0135591
-0.0403125
-0.0158981
-0.0314397
-0.0058508
-0.0217411
-0.00677942
-0.0264753
-0.0209201
-0.0288476
-0.0193631
-0.0274566
-0.0145323
-0.0388168
-0.0103708
-0.0281518
0.0382725
-0.0454121
0.0564547
-0.0324417
0.0703024
-0.0496119
0.0476849
-0.044468
0.0601983
-0.0464606
0.0603571
-0.0540643
0.0768936
-0.0575251
0.0796784
-0.0704036
0.0533391
-0.0685822
0.0313388
-0.078344
-0.00996649
-0.0455698
-0.0291303
-0.0362731
-0.0870263
-0.0015929
-0.0953877
0.0472765
-0.146872
0.0801717
-0.173244
0.135062
-0.140713
0.175395
-0.132772
0.195702
-0.0623648
0.19801
0.03417
0.169706
0.130231
0.119888
0.206609
0.0461234
0.223676
-0.00977194
0.16958
-0.0518081
0.102843
-0.0942836
0.102935
-0.112989
0.137384
-0.135873
0.111638
-0.149658
0.122587
-0.143324
0.079581
-0.158246
0.0325636
-0.109828
-0.0635369
-0.0806214
-0.0937978
-0.0129053
-0.146787
0.101736
-0.478529
0.286461
-0.770993
0.470407
-0.846131
0.566323
-0.617166
0.617972
-0.11523
0.489872
0.454594
0.627252
-1.01961
0.356927
2.54308
-0.506742
4.5077
-0.516719
-1.55241
0.139299
-3.47607
0.477835
-0.881373
0.210838
1.24458
0.104311
0.25108
-0.0872986
0.926953
-0.20869
0.577244
-0.0942792
-0.66974
-0.104396
0.15792
0.077704
-0.612742
0.438924
-1.34156
0.799139
-1.81459
0.71894
-0.488061
0.195411
1.66138
-0.208984
1.89222
-0.3727
1.34467
-0.55793
1.13596
-0.967791
2.0866
-1.22746
1.33697
-0.968924
-1.28922
-0.525832
-2.31507
-0.382109
-0.591397
-0.403596
0.225482
-0.105822
-1.7814
-1.29733
0.0106867
0.125816
-0.00590582
0.00994066
0.123106
0.0148452
0.115802
0.0263293
0.108104
0.0396908
0.0988088
0.0458425
0.0824759
0.0409845
0.0596483
0.0193618
0.0357443
-0.0107675
0.0214789
-0.0309676
0.0162552
-0.00788391
0.0119819
0.0280757
-0.00421104
0.027748
-0.0213463
0.0106186
-0.0245519
0.019541
-0.0216623
0.0227459
-0.0121938
0.0165421
0.00901426
0.0253642
0.0209242
0.0486757
0.0445654
0.0446024
0.0249834
0.0887358
0.020454
0.0843855
-0.0519914
0.0543623
-0.12909
-0.023067
-0.258072
-0.094002
-0.181043
-0.0396593
0.0908623
0.0653974
0.302474
0.0970706
0.373015
0.0436482
0.203529
-0.0421012
-0.0903055
-0.0939643
-0.238887
-0.0988337
-0.181328
-0.0467521
-0.0882603
-0.03308
-0.0689945
-0.0716426
-0.0330411
-0.0748168
-0.0107887
-0.0823543
-0.0700129
-0.09265
-0.0273279
-0.0536952
0.0221993
-0.0493914
-0.00854655
-0.0657763
-0.00623546
-0.0582024
-0.00693018
-0.0728658
-0.0439012
-0.0702908
-0.0295321
-0.0548371
-0.0177191
-0.0434527
-0.0184663
-0.0344571
-0.0100025
-0.0246503
-0.011295
-0.0293534
-0.0263852
-0.0319503
-0.0232161
-0.0307601
-0.0170083
-0.0421662
-0.0116257
-0.0329819
0.0346855
-0.0503329
0.056084
-0.0365087
0.0762807
-0.0553105
0.0504937
-0.0503914
0.070316
-0.0524984
0.0708198
-0.0610331
0.0888844
-0.0652387
0.0921257
-0.078921
0.0619489
-0.0770726
0.0358031
-0.0870265
-0.0135686
-0.0520091
-0.0374403
-0.0405296
-0.107956
-0.00246428
-0.12544
0.0523108
-0.185983
0.0910163
-0.220713
0.152854
-0.185286
0.199953
-0.17077
0.224793
-0.0848144
0.229266
0.0368535
0.198531
0.161181
0.141742
0.268124
0.054024
0.302424
-0.0186209
0.244518
-0.0761348
0.160571
-0.130115
0.145708
-0.154213
0.17558
-0.175292
0.12902
-0.18275
0.129479
-0.169869
0.077632
-0.16252
0.0183601
-0.124041
-0.086313
-0.0838802
-0.139964
0.000884347
-0.214365
0.138103
-0.622742
0.346595
-0.974373
0.533437
-1.02272
0.635707
-0.726698
0.701621
-0.167501
0.549988
0.603777
0.651371
-1.12522
0.48878
2.72178
-0.324685
5.32204
-0.527527
-1.34182
0.0745879
-4.10825
0.54216
-1.35251
0.264127
1.52548
0.11591
0.387885
-0.0934988
1.14127
-0.230677
0.711199
-0.112701
-0.798153
-0.106191
0.167149
0.128056
-0.851088
0.565806
-1.78105
0.916556
-2.17456
0.722385
-0.303722
0.0922216
2.29153
-0.307888
2.28524
-0.429058
1.47483
-0.606448
1.30045
-1.06952
2.55022
-1.3512
1.61199
-1.0426
-1.61015
-0.574133
-2.7886
-0.426116
-0.748347
-0.44639
0.23841
-0.128485
-2.10245
-1.59258
-0.00225132
0.115011
0.00952918
-0.00715759
0.112531
-3.22247e-05
0.108603
0.012282
0.10289
0.0229778
0.0949939
0.0278119
0.082315
0.0255322
0.0641585
0.0117947
0.0444078
-0.0129518
0.032725
-0.0330086
0.02966
-0.0143288
0.0273176
0.0242852
0.0130553
0.0298338
-0.00730429
0.0130262
-0.0132697
0.0247652
-0.00742692
0.0311927
-0.00124692
0.0188366
0.011605
0.0312195
0.0227431
0.0412561
0.0384044
0.0419539
0.0200197
0.0717271
0.0157485
0.0676132
-0.0571817
0.0253341
-0.0791244
-0.0117012
-0.107778
-0.0506982
-0.023747
-0.00767391
0.217875
0.0786515
0.314461
0.0715547
0.230582
-0.00111281
0.0471374
-0.0686616
-0.169625
-0.0954382
-0.269209
-0.0957732
-0.183548
-0.0487747
-0.0617559
-0.0342182
-0.0522204
-0.0752963
-0.0527999
-0.0863056
-0.0194388
-0.0854107
-0.0705018
-0.0960335
-0.038606
-0.0604667
0.0186352
-0.0537277
-0.00714263
-0.0714094
-0.0134672
-0.0653777
-0.013294
-0.0781218
-0.0458668
-0.0754802
-0.0349182
-0.0596445
-0.0222674
-0.0471431
-0.0215768
-0.0380184
-0.0141056
-0.0281666
-0.0157177
-0.0326456
-0.0318397
-0.0354594
-0.0278228
-0.0344611
-0.0216033
-0.0457342
-0.0143733
-0.0373238
0.0297271
-0.055643
0.0506902
-0.0417645
0.0768611
-0.061201
0.0514867
-0.0565516
0.0792901
-0.0585578
0.0824496
-0.068007
0.101695
-0.0730402
0.104933
-0.0875194
0.0708817
-0.0857957
0.0402856
-0.0960073
-0.0171522
-0.0592057
-0.0467516
-0.0457535
-0.130517
-0.00479647
-0.159065
0.055688
-0.230089
0.100292
-0.274502
0.169213
-0.23727
0.223712
-0.215302
0.253926
-0.113048
0.261681
0.037025
0.231211
0.192141
0.16759
0.337619
0.0661218
0.395079
-0.0249
0.338372
-0.101208
0.237601
-0.170053
0.203123
-0.202746
0.22292
-0.219775
0.142585
-0.219429
0.128907
-0.197479
0.0659163
-0.185687
-0.000250893
-0.138337
-0.117589
-0.0857823
-0.199009
0.0184967
-0.30069
0.179408
-0.79119
0.411259
-1.20133
0.599284
-1.19982
0.656021
-0.791258
0.786422
-0.284186
0.615959
0.771893
0.675382
-1.18955
0.641845
2.77121
-0.0616677
6.02699
-0.491106
-0.902237
-0.0151347
-4.61305
0.603807
-1.97628
0.321179
1.81257
0.128269
0.567381
-0.0956807
1.37119
-0.251115
0.862726
-0.134191
-0.925014
-0.100531
0.149988
0.192557
-1.14923
0.685494
-2.27639
1.01973
-2.51837
0.682154
0.024361
-0.0288046
3.0026
-0.407907
2.65683
-0.490864
1.56706
-0.640384
1.43609
-1.15924
3.06946
-1.46151
1.90758
-1.07732
-2.00753
-0.561652
-3.30936
-0.4369
-0.882843
-0.484759
0.278266
-0.154662
-2.43614
-1.91581
-0.0161019
0.0985242
0.0198674
-0.0223955
0.0972376
-0.0149293
0.0979713
-0.00265029
0.0947652
0.00578665
0.0882227
0.00833038
0.0789706
0.00798959
0.0662768
0.00284615
0.0513603
-0.0155953
0.0410874
-0.0355485
0.0388253
-0.0216307
0.0384551
0.0178982
0.0272554
0.031913
0.00738484
0.0192141
-0.00148686
0.0314707
0.00394656
0.0400403
0.00938899
0.0238317
0.0144013
0.0371314
0.0262606
0.0336531
0.0335275
0.0390469
0.0223002
0.0498518
0.0262913
0.0614373
-0.0187048
0.0146401
-0.0276034
0.00289614
0.0122034
-0.00523025
0.0538196
0.00571425
0.188308
0.0614509
0.21456
0.0375617
0.0578422
-0.042719
-0.11331
-0.0907231
-0.226302
-0.0917057
-0.257001
-0.0877283
-0.170439
-0.0525527
-0.0469008
-0.0393953
-0.0418949
-0.0865755
-0.0642401
-0.0922485
-0.0386088
-0.0890935
-0.0552019
-0.0988405
-0.0483307
-0.0679872
0.0106212
-0.0593997
-0.00542931
-0.0777667
-0.018896
-0.07345
-0.0204463
-0.0841907
-0.0475811
-0.0812323
-0.039648
-0.0650342
-0.0268972
-0.0513848
-0.0252236
-0.0421316
-0.0182319
-0.0323128
-0.0193554
-0.0363323
-0.0360836
-0.0393673
-0.0323204
-0.0384652
-0.0264689
-0.049466
-0.0183729
-0.0416735
0.0237605
-0.0609969
0.0427627
-0.0475452
0.0745638
-0.0670249
0.0529186
-0.062726
0.0886107
-0.064462
0.095591
-0.0748363
0.11504
-0.0808356
0.117833
-0.0961459
0.0801732
-0.0947812
0.0450377
-0.105298
-0.0204722
-0.0673893
-0.0564817
-0.0522692
-0.154099
-0.00905962
-0.195714
0.0568186
-0.278807
0.107387
-0.334493
0.183528
-0.29693
0.246173
-0.267097
0.282813
-0.148249
0.295384
0.0327232
0.264286
0.224035
0.198228
0.411023
0.0842142
0.499905
-0.0260454
0.452016
-0.124376
0.336989
-0.212155
0.279234
-0.248575
0.274317
-0.270015
0.160038
-0.257766
0.112524
-0.225973
0.0448578
-0.208532
-0.0247714
-0.153106
-0.15664
-0.0868347
-0.272143
0.0393457
-0.408265
0.224607
-0.984557
0.450554
-1.42269
0.657714
-1.39529
0.720772
-0.862537
0.873242
-0.423078
0.696105
0.946794
0.706689
-1.20576
0.816599
2.67672
0.24479
6.60027
-0.453279
-0.192063
-0.128245
-4.97251
0.661524
-2.77268
0.385112
2.09523
0.195734
0.739565
-0.0943875
1.66907
-0.269974
1.03428