/*--------------------------------*- C++ -*----------------------------------*\
| =========                 |                                                 |
| \\      /  F ield         | OpenFOAM: The Open Source CFD Toolbox           |
|  \\    /   O peration     | Version:  2412                                  |
|   \\  /    A nd           | Website:  www.openfoam.com                      |
|    \\/     M anipulation  |                                                 |
\*---------------------------------------------------------------------------*/
FoamFile
{
    version     2.0;
    format      ascii;
    arch        "LSB;label=32;scalar=64";
    class       surfaceScalarField;
    location    "0.975";
    object      phi_0;
}
// * * * * * * * * * * * * * * * * * * * * * * * * * * * * * * * * * * * * * //

dimensions      [0 3 -1 0 0 0 0];

oriented        oriented;

internalField   nonuniform List<scalar> 
24930
(
0.015441
0.020749
-0.0361831
0.00632707
0.00911394
0.00290336
0.00342367
0.0016221
0.00128122
0.00103991
0.000582163
0.000699415
0.000340485
0.000470294
0.000229116
0.000305987
0.000164297
0.000184133
0.00012186
9.20715e-05
9.20561e-05
2.07391e-05
7.13219e-05
-3.4477e-05
5.52008e-05
-7.77116e-05
4.31868e-05
-0.000111505
3.37591e-05
-0.000136866
2.53706e-05
-0.000156925
2.0072e-05
-0.000171733
1.4758e-05
-0.000182592
1.07928e-05
-0.00019003
7.49411e-06
-0.000194617
4.59771e-06
-0.000196844
2.24533e-06
-0.000197294
4.88965e-07
-0.000196291
-1.01149e-06
-0.000194269
-2.11706e-06
-0.000190041
-4.27122e-06
-0.000186544
-3.54008e-06
-0.000181254
-5.36038e-06
-0.000175882
-5.26572e-06
-0.000170113
-5.7215e-06
-0.000164048
-6.0504e-06
-0.000157846
-6.22806e-06
-0.000151517
-6.32713e-06
-0.000145167
-6.33372e-06
-0.000138879
-6.27372e-06
-0.000132614
-6.23561e-06
-0.000126506
-6.11696e-06
-0.000120619
-5.87833e-06
-0.000114957
-5.63038e-06
-0.000109534
-5.40923e-06
-0.000104426
-5.12335e-06
-9.95695e-05
-4.83757e-06
-9.49836e-05
-4.58272e-06
-9.06281e-05
-4.35602e-06
-8.65114e-05
-4.13333e-06
-8.25765e-05
-3.92735e-06
-7.89226e-05
-3.6519e-06
-7.55384e-05
-3.36038e-06
-7.26043e-05
-2.92338e-06
-7.01574e-05
-2.40181e-06
-6.83418e-05
-1.81023e-06
-6.71931e-05
-1.13225e-06
-6.67663e-05
-4.0622e-07
-6.68446e-05
1.02069e-07
-6.75238e-05
6.68451e-07
-6.81791e-05
6.9798e-07
-6.85016e-05
3.26566e-07
-6.75188e-05
-9.84642e-07
-6.42275e-05
-3.2816e-06
-5.74603e-05
-6.7772e-06
-4.59196e-05
-1.1527e-05
-2.88309e-05
-1.70946e-05
-6.04054e-06
-2.27767e-05
2.13157e-05
-2.73565e-05
5.17331e-05
-3.04211e-05
8.31063e-05
-3.1355e-05
0.00011437
-3.12757e-05
0.000144739
-3.03581e-05
0.000174817
-3.00699e-05
0.000203867
-2.90474e-05
0.000231438
-2.75576e-05
0.000253674
-2.22353e-05
0.000266776
-1.30981e-05
0.000262698
4.07828e-06
0.000236211
2.64805e-05
0.000183973
5.22431e-05
0.000106137
7.78286e-05
1.7812e-05
8.83294e-05
-6.7056e-05
8.48664e-05
-0.000144774
7.77148e-05
-0.000185604
4.08285e-05
-0.000174005
-1.15932e-05
-0.000130809
-4.31999e-05
-4.37068e-05
-8.7097e-05
7.5713e-05
-0.000119417
0.000170805
-9.50929e-05
0.000227667
-5.68621e-05
0.000249991
-2.2321e-05
0.000248953
1.02922e-06
0.000259086
-1.01267e-05
0.000382812
-0.000123733
0.000683286
-0.000300479
0.00128779
-0.000604508
0.00155541
-0.00026762
0.0022318
-0.000676395
0.00302975
-0.000797959
0.00270303
0.000326707
0.00195937
0.00074365
0.000232768
0.00172662
-0.000533675
0.000766446
-0.000143854
-0.000389825
-0.000293602
0.000149747
0.000111129
-0.000404735
0.000413609
-0.000302482
0.000359676
5.39256e-05
0.0008002
-0.000440528
0.000945657
-0.000145462
0.000429154
0.000516495
-0.00125917
0.00168833
-0.00389563
0.00263644
-0.00656782
0.00267219
-0.00836369
0.00179586
-0.00886621
0.000502511
-0.0081272
-0.000739016
-0.00699731
-0.00112989
-0.00516708
-0.00183024
-0.00281247
-0.0023546
-0.000903346
-0.00190913
-0.000615108
-0.000288241
3.94103e-05
-0.000654518
-0.000754452
0.0327561
0.0296953
-0.0417026
0.0218837
0.0199862
0.0137796
0.0115275
0.00882058
0.00624017
0.00591653
0.00348615
0.00413523
0.00212173
0.00295309
0.00141124
0.00211658
0.0010008
0.00149891
0.000739546
0.00102917
0.000561782
0.00066579
0.000434644
0.000380863
0.000340104
0.000156227
0.000267795
-1.9369e-05
0.00020929
-0.000168601
0.000174547
-0.000284943
0.000136446
-0.000376154
0.000106061
-0.000447291
8.18818e-05
-0.000501798
6.20538e-05
-0.000542224
4.50316e-05
-0.000571373
3.13378e-05
-0.000590741
1.97529e-05
-0.000602385
1.06006e-05
-0.000607437
2.90895e-06
-0.000606752
-4.83286e-06
-0.000601915
-8.2797e-06
-0.000593311
-1.39682e-05
-0.000581798
-1.67802e-05
-0.000567862
-1.96636e-05
-0.000552066
-2.18041e-05
-0.000534866
-2.34229e-05
-0.000516574
-2.46386e-05
-0.000497604
-2.53028e-05
-0.000478287
-2.56056e-05
-0.000458724
-2.57655e-05
-0.000439296
-2.55451e-05
-0.000420254
-2.49374e-05
-0.000401725
-2.41626e-05
-0.000383885
-2.32275e-05
-0.000366832
-2.22023e-05
-0.000350536
-2.11287e-05
-0.000335052
-2.00956e-05
-0.000320246
-1.91696e-05
-0.000306132
-1.82797e-05
-0.000292685
-1.73526e-05
-0.000280075
-1.62555e-05
-0.000268456
-1.49139e-05
-0.000258232
-1.3138e-05
-0.000249681
-1.08941e-05
-0.000243194
-8.28136e-06
-0.00023896
-5.33886e-06
-0.000237088
-2.28177e-06
-0.000237113
1.88418e-07
-0.00023875
2.26645e-06
-0.000240503
2.48096e-06
-0.000240624
4.33923e-07
-0.000236337
-5.28675e-06
-0.000224018
-1.55832e-05
-0.00019954
-3.12764e-05
-0.00015875
-5.22924e-05
-9.89851e-05
-7.68727e-05
-1.98972e-05
-0.000101857
7.42866e-05
-0.000121525
0.00017861
-0.000134763
0.000286005
-0.00013872
0.000392066
-0.000137341
0.000494488
-0.000132762
0.000594824
-0.000130377
0.000692001
-0.000126214
0.000784335
-0.000119863
0.000861152
-9.90456e-05
0.000909316
-6.12543e-05
0.000903675
9.7328e-06
0.000824561
0.000105589
0.000657121
0.000219702
0.000397941
0.000337005
9.55466e-05
0.000390731
-0.000199939
0.000380355
-0.000468376
0.000346158
-0.000608878
0.000181332
-0.000571449
-4.90092e-05
-0.000421814
-0.00019283
-0.000123788
-0.000385114
0.000276831
-0.000520026
0.000601663
-0.000419916
0.000787911
-0.000243112
0.000838041
-7.24337e-05
0.00077603
6.30311e-05
0.00077701
-1.10934e-05
0.00112964
-0.000476358
0.00212346
-0.0012943
0.00407949
-0.00256053
0.00504059
-0.00122873
0.00729921
-0.00293502
0.0100771
-0.00357587
0.00943724
0.000966592
0.00692871
0.00325218
0.00117984
0.0074755
-0.00158921
0.00353551
-0.000549909
-0.00142913
-0.000888752
0.00048859
0.000459812
-0.00175331
0.00150737
-0.00135004
0.00135282
0.000208464
0.00266266
-0.00175037
0.00294758
-0.000430384
0.000595475
0.00286859
-0.00551759
0.00780139
-0.0142822
0.0114011
-0.0225036
0.0108935
-0.0275429
0.00683513
-0.0283808
0.00134047
-0.0256193
-0.00350058
-0.0216477
-0.00510147
-0.0159939
-0.00748405
-0.00858317
-0.00976533
-0.00257733
-0.00791497
-0.00158235
-0.00128323
0.000196244
-0.00243311
-0.00315628
0.0424247
0.0320709
-0.0448004
0.0350994
0.0273113
0.0265747
0.0200522
0.0192675
0.0135474
0.0138806
0.00887302
0.0101188
0.00588355
0.00747969
0.00405034
0.00557196
0.00290854
0.00414746
0.00216405
0.00305575
0.00165348
0.00220256
0.00128777
0.00152646
0.00101618
0.000985393
0.000808843
0.000549646
0.000644985
0.000200031
0.000524091
-8.27723e-05
0.000419254
-0.000312896
0.000336295
-0.00049688
0.000265823
-0.000642953
0.000208145
-0.000756919
0.000158988
-0.000844678
0.000119056
-0.000910461
8.54891e-05
-0.000957192
5.73292e-05
-0.000988367
3.39159e-05
-0.00100576
1.25119e-05
-0.00101341
-6.13921e-07
-0.0010119
-1.5468e-05
-0.00100309
-2.55558e-05
-0.00098808
-3.46938e-05
-0.000968187
-4.16804e-05
-0.000944372
-4.72229e-05
-0.000917434
-5.15683e-05
-0.000888281
-5.44378e-05
-0.000857633
-5.62644e-05
-0.000825877
-5.74769e-05
-0.000793719
-5.76816e-05
-0.000761708
-5.69518e-05
-0.000730188
-5.56807e-05
-0.000699524
-5.38582e-05
-0.000669931
-5.18154e-05
-0.000641452
-4.95996e-05
-0.000614194
-4.73783e-05
-0.000587987
-4.53767e-05
-0.000562854
-4.34402e-05
-0.000538827
-4.13521e-05
-0.000516175
-3.88963e-05
-0.000495234
-3.57781e-05
-0.00047667
-3.16883e-05
-0.000461035
-2.64619e-05
-0.000449002
-2.02906e-05
-0.000440943
-1.33632e-05
-0.000436949
-6.27492e-06
-0.000436492
-1.9478e-07
-0.000438554
4.29848e-06
-0.000440729
4.69557e-06
-0.00043981
-5.02583e-07
-0.0004308
-1.43003e-05
-0.000407218
-3.91459e-05
-0.000361714
-7.68024e-05
-0.000287102
-0.000126878
-0.00017874
-0.00018525
-3.63625e-05
-0.000244227
0.00013332
-0.000291189
0.000320394
-0.00032186
0.000512349
-0.00033064
0.000700811
-0.000325808
0.000881869
-0.000313799
0.00105808
-0.00030655
0.00122876
-0.000296888
0.00139168
-0.000282751
0.00153029
-0.000237643
0.00162218
-0.000153137
0.00162474
7.18711e-06
0.00150066
0.000229667
0.00121949
0.0005009
0.000768513
0.000787976
0.000228978
0.000930274
-0.00030555
0.000914889
-0.000791647
0.000832261
-0.00104717
0.000436862
-0.00098396
-0.000112206
-0.000717997
-0.000458785
-0.0001896
-0.0009135
0.000520697
-0.00123031
0.00109655
-0.000995761
0.00141546
-0.00056202
0.00146288
-0.000119836
0.00128154
0.00024436
0.0012189
5.15599e-05
0.00177648
-0.00103393
0.00346585
-0.00298367
0.00685166
-0.00594632
0.00857132
-0.0029484
0.0124832
-0.00684686
0.0175388
-0.00863146
0.0170254
0.00147994
0.012833
0.00744459
0.00271064
0.0175979
-0.00252758
0.00877374
-0.00102276
-0.00293395
-0.00148489
0.000950721
0.000934185
-0.00417239
0.00283137
-0.00324723
0.00257258
0.00046725
0.00467911
-0.00385691
0.00480845
-0.000559726
-0.000118973
0.007796
-0.0115178
0.0192002
-0.0268011
0.0266843
-0.0401551
0.0242476
-0.0475992
0.0142792
-0.0479797
0.0017209
-0.0427054
-0.00877487
-0.0357405
-0.0120663
-0.0263077
-0.0169169
-0.0140227
-0.0220503
-0.00392871
-0.018009
-0.0022605
-0.00295145
0.000457856
-0.00515145
-0.00722347
0.0482232
0.0316445
-0.0477969
0.044879
0.0306554
0.0385388
0.0263923
0.0311936
0.0208926
0.0243918
0.0156748
0.0188026
0.0114727
0.0144583
0.00839475
0.01113
0.00623684
0.00856403
0.00472998
0.00655971
0.00365778
0.00497281
0.0028746
0.00370193
0.00228702
0.00267504
0.00183574
0.00183991
0.0014801
0.00116047
0.00120346
0.000604434
0.000975241
0.000151214
0.000789599
-0.000219139
0.000636149
-0.000519741
0.000508781
-0.000760543
0.00039981
-0.000952005
0.000310475
-0.00110138
0.000234802
-0.00121552
0.000171518
-0.00129972
0.000117991
-0.00136028
7.30658e-05
-0.00139789
3.70414e-05
-0.00141877
5.46651e-06
-0.00142528
-1.89755e-05
-0.00142023
-3.97489e-05
-0.00140482
-5.70925e-05
-0.00138126
-7.07784e-05
-0.00135106
-8.17519e-05
-0.00131584
-8.96276e-05
-0.00127695
-9.51837e-05
-0.0012352
-9.9181e-05
-0.00119179
-0.000101064
-0.00114768
-0.000101055
-0.00110357
-9.9803e-05
-0.00106008
-9.73023e-05
-0.00101765
-9.42678e-05
-0.000976441
-9.08004e-05
-0.000936676
-8.71683e-05
-0.000898191
-8.38592e-05
-0.000861047
-8.06118e-05
-0.000825356
-7.70125e-05
-0.000791522
-7.27184e-05
-0.000760092
-6.71251e-05
-0.000732034
-5.97319e-05
-0.000708214
-5.0212e-05
-0.00068962
-3.88574e-05
-0.000676834
-2.61103e-05
-0.000670004
-1.31023e-05
-0.0006683
-1.82117e-06
-0.000670183
6.15193e-06
-0.000672093
6.6573e-06
-0.000669094
-3.5296e-06
-0.000653853
-2.95442e-05
-0.000616688
-7.62895e-05
-0.000546728
-0.000146786
-0.000433528
-0.00024005
-0.00027038
-0.000348413
-5.714e-05
-0.000457459
0.000196541
-0.000544851
0.000475539
-0.000600881
0.000761255
-0.00061632
0.00104054
-0.0006051
0.00130749
-0.000580723
0.00156581
-0.000564836
0.00181588
-0.000546949
0.00205586
-0.000522692
0.00226427
-0.000446039
0.00241015
-0.000299009
0.00243297
-1.5619e-05
0.00227525
0.000387385
0.00188577
0.000890403
0.00123561
0.00143814
0.000437216
0.00172867
-0.00036615
0.00171826
-0.00110002
0.00156614
-0.00148957
0.000826423
-0.00140403
-0.000197735
-0.00101376
-0.000849045
-0.000236046
-0.0016912
0.000807264
-0.00227361
0.00165385
-0.00184234
0.00210516
-0.00101333
0.00211296
-0.000127617
0.00174148
0.000615832
0.00156001
0.000233045
0.00228658
-0.00176049
0.0046496
-0.00534669
0.00950928
-0.010806
0.0121212
-0.00556036
0.0176441
-0.0123697
0.0251348
-0.0161222
0.0253309
0.00128382
0.0197814
0.0129941
0.00500471
0.0323746
-0.00325077
0.0170292
-0.00154031
-0.00464442
-0.00205898
0.00146939
0.0015557
-0.00778708
0.00440796
-0.00609949
0.00403751
0.000837696
0.00681371
-0.00663312
0.00636881
-0.000114823
-0.00195166
0.0161165
-0.0195354
0.0367839
-0.0414251
0.048574
-0.0591617
0.0419842
-0.06789
0.0230075
-0.0669522
0.000783054
-0.0588487
-0.0168783
-0.0488271
-0.0220879
-0.0358527
-0.0298913
-0.0189551
-0.0389479
-0.00484936
-0.0321147
-0.002587
-0.00521382
0.000861276
-0.00859971
-0.0129363
0.0520407
0.0305354
-0.0509317
0.0513662
0.0313298
0.0479353
0.0298232
0.0423819
0.026446
0.0358978
0.022159
0.0295229
0.0178476
0.0238517
0.0140661
0.0190794
0.0110091
0.0151684
0.00864094
0.011991
0.00683512
0.00940883
0.00545676
0.00730213
0.00439366
0.00557547
0.0035624
0.00415432
0.00290128
0.00298336
0.00237437
0.00201538
0.00194316
0.00121596
0.00158907
0.000556843
0.00129523
1.72378e-05
0.00104839
-0.000427568
0.000844645
-0.000787185
0.000670034
-0.00107549
0.000522997
-0.00130331
0.000399329
-0.00148016
0.000294781
-0.00161403
0.000206863
-0.00171153
0.000134523
-0.00177948
7.3425e-05
-0.00182021
2.17982e-05
-0.00183958
-2.03763e-05
-0.00184263
-5.40683e-05
-0.0018302
-8.32113e-05
-0.00180551
-0.000106429
-0.00177121
-0.000123885
-0.00172954
-0.000136884
-0.00168201
-0.000146681
-0.00163047
-0.000152563
-0.00157653
-0.000154998
-0.00152132
-0.000155015
-0.00146594
-0.000152647
-0.00141109
-0.000149128
-0.00135719
-0.000144694
-0.00130464
-0.000139745
-0.00125336
-0.000135145
-0.00120347
-0.000130524
-0.00115523
-0.000125224
-0.0011092
-0.000118733
-0.00106619
-0.00011005
-0.0010275
-9.84025e-05
-0.000994376
-8.32671e-05
-0.000968155
-6.50494e-05
-0.000949661
-4.45628e-05
-0.000939051
-2.37039e-05
-0.00093539
-5.40192e-06
-0.000936185
6.91184e-06
-0.000936841
7.37306e-06
-0.000930559
-9.83883e-06
-0.000907247
-5.28634e-05
-0.00085389
-0.000129623
-0.000755916
-0.000244786
-0.000599421
-0.000396513
-0.000375525
-0.000572325
-8.42348e-05
-0.000748741
0.000261709
-0.000890772
0.000641571
-0.000980768
0.00102994
-0.00100465
0.00140818
-0.000983352
0.00176788
-0.000940392
0.00211408
-0.000910998
0.00244878
-0.000881643
0.00277191
-0.000845781
0.00305824
-0.000732365
0.0032695
-0.000510253
0.00332737
-7.34722e-05
0.00315181
0.000562939
0.00266693
0.00137531
0.00181777
0.0022873
0.000743451
0.002803
-0.000357042
0.00281876
-0.0013703
0.00257941
-0.00191633
0.00137246
-0.00181549
-0.000298563
-0.00129799
-0.00136653
-0.00025808
-0.0027311
0.00113742
-0.00366909
0.00226832
-0.00297323
0.00284534
-0.00159035
0.00276419
-4.64502e-05
0.00212484
0.00125517
0.00175669
0.000601216
0.00262263
-0.00262643
0.00560845
-0.00833251
0.0119351
-0.0171326
0.0156042
-0.00922948
0.0225862
-0.0193517
0.0324675
-0.0260035
0.0340979
-0.00034653
0.0278052
0.0192868
0.00823555
0.0519442
-0.00365222
0.028917
-0.00207562
-0.00622103
-0.00259136
0.00198513
0.00232776
-0.0127062
0.006251
-0.0100227
0.00576389
0.0013248
0.00902171
-0.00989096
0.00745821
0.00144868
-0.00519948
0.0287741
-0.0297178
0.0613023
-0.0579826
0.0768388
-0.0789637
0.0629652
-0.0877569
0.0318008
-0.0847898
-0.0021841
-0.0737006
-0.0279675
-0.0608052
-0.0349833
-0.0445399
-0.0461567
-0.0233896
-0.0600982
-0.00537323
-0.0501311
-0.00257828
-0.00800879
0.00143113
-0.0126091
-0.020291
0.0551756
0.0295849
-0.0542252
0.0556974
0.0308079
0.0545699
0.0309507
0.0514006
0.0296153
0.0465616
0.026998
0.0407892
0.0236201
0.0348073
0.020048
0.029135
0.0166815
0.0240501
0.0137257
0.0196436
0.0112417
0.0158956
0.00920468
0.0127373
0.00755189
0.0100867
0.00621307
0.00786502
0.00512296
0.00600562
0.00423376
0.00444911
0.00349961
0.00314797
0.00289026
0.00206211
0.00238104
0.00115847
0.00195198
0.000410737
0.00159239
-0.000205111
0.00128584
-0.000709068
0.00102689
-0.00111666
0.000806851
-0.00144236
0.000620486
-0.00169841
0.000462902
-0.00189478
0.000330908
-0.00204106
0.000219686
-0.00214678
0.000127547
-0.00221654
4.93944e-05
-0.00225396
-1.66728e-05
-0.00226999
-6.72144e-05
-0.00226424
-0.000112165
-0.00224171
-0.000146372
-0.00220594
-0.000172682
-0.00215949
-0.000193112
-0.00210515
-0.000206856
-0.00204541
-0.000214733
-0.0019821
-0.00021834
-0.00191691
-0.000217792
-0.00185103
-0.000215017
-0.00178523
-0.000210492
-0.00172021
-0.000204792
-0.00165605
-0.000199301
-0.00159304
-0.000193558
-0.00153161
-0.000186621
-0.00147256
-0.000177773
-0.00141698
-0.000165539
-0.00136658
-0.000148787
-0.00132301
-0.000126765
-0.00128802
-0.000100005
-0.00126272
-6.98215e-05
-0.00124734
-3.90701e-05
-0.00124058
-1.20841e-05
-0.00123931
5.60256e-06
-0.0012376
5.72617e-06
-0.00122656
-2.09006e-05
-0.00119324
-8.61957e-05
-0.00112102
-0.000201813
-0.000991471
-0.000374366
-0.000787091
-0.000600861
-0.000496757
-0.000862674
-0.000120607
-0.00112488
0.000325446
-0.0013368
0.000814792
-0.00147014
0.00131461
-0.00150442
0.00180011
-0.00146886
0.00225965
-0.00139991
0.00269968
-0.00135099
0.00312435
-0.00130629
0.00353668
-0.00125807
0.00390917
-0.00110485
0.00419812
-0.000799184
0.00430785
-0.00018318
0.00413466
0.000736123
0.00357374
0.00193625
0.00253409
0.00332695
0.0011733
0.00416379
-0.000250085
0.00424215
-0.00157643
0.00390576
-0.00230594
0.00210198
-0.0022033
-0.000401186
-0.00156082
-0.002009
-0.000251157
-0.00404075
0.00150893
-0.00542917
0.00293195
-0.00439624
0.00362031
-0.00227872
0.00339339
0.000180499
0.00239644
0.00225212
0.00178071
0.00121696
0.00275252
-0.00359823
0.00630022
-0.0118802
0.0140041
-0.0248365
0.0190013
-0.0142266
0.0271827
-0.0275332
0.0390872
-0.037908
0.042988
-0.00424738
0.0368536
0.0254213
0.0125758
0.0762221
-0.00359796
0.0450908
-0.00258616
-0.00723284
-0.00304498
0.00244396
0.003255
-0.0190062
0.00836515
-0.0151329
0.00776181
0.00192812
0.0112275
-0.0133567
0.00787259
0.00480361
-0.01013
0.0467767
-0.0421205
0.0932929
-0.0760942
0.110812
-0.0988733
0.0857442
-0.106555
0.039482
-0.10109
-0.00764818
-0.0871305
-0.0419275
-0.0716261
-0.0504877
-0.0524563
-0.0653264
-0.0273874
-0.0851671
-0.00549757
-0.0720209
-0.00219241
-0.011314
0.00220467
-0.0170062
-0.0292708
0.0584058
0.0289226
-0.0577435
0.0591704
0.0300433
0.059277
0.0308441
0.0580439
0.0308484
0.0552292
0.0298128
0.0510261
0.0278232
0.0458808
0.0251933
0.0402974
0.0222648
0.0347082
0.0193149
0.0294179
0.016532
0.0246007
0.0140218
0.0203271
0.0118254
0.0165995
0.00994061
0.0133831
0.00833947
0.0106284
0.00698841
0.00828035
0.00584761
0.00628702
0.00488363
0.00460085
0.00406719
0.00317986
0.00337291
0.00198843
0.00278383
0.000993927
0.0022803
0.00016958
0.00185121
-0.000508788
0.00148516
-0.00106174
0.00117338
-0.00150721
0.000908378
-0.00186052
0.000684254
-0.00213555
0.000494685
-0.00234366
0.000335642
-0.00249648
0.000202248
-0.00260439
9.12282e-05
-0.00266679
-4.85481e-06
-0.00270082
-7.81189e-05
-0.00270651
-0.000140629
-0.00268996
-0.000189251
-0.00265526
-0.000227802
-0.00260661
-0.00025546
-0.00254772
-0.000273608
-0.00248141
-0.000284666
-0.00241026
-0.000288903
-0.00233613
-0.000289145
-0.00226035
-0.000286272
-0.00218409
-0.000281087
-0.00210771
-0.00027567
-0.00203176
-0.000269528
-0.00195695
-0.000261403
-0.00188435
-0.00025035
-0.00181544
-0.000234356
-0.00175237
-0.000211842
-0.00169728
-0.000181788
-0.00165237
-0.000144879
-0.00161909
-0.000103059
-0.00159777
-6.03819e-05
-0.00158681
-2.29623e-05
-0.00158221
9.64113e-07
-0.00157673
3.15709e-07
-0.00155934
-3.83038e-05
-0.00151388
-0.00013167
-0.00142014
-0.000295524
-0.00125564
-0.000538896
-0.000999195
-0.00085727
-0.000637349
-0.00122454
-0.000170258
-0.00159196
0.000383049
-0.00189008
0.000989964
-0.00207708
0.00160976
-0.00212418
0.00221078
-0.00206987
0.00277732
-0.00196643
0.0033171
-0.00189073
0.00383683
-0.001826
0.00434406
-0.00176527
0.0048107
-0.00157148
0.00518982
-0.00117829
0.00537
-0.000363344
0.00522343
0.000882692
0.00461389
0.00254582
0.00340283
0.004538
0.00175445
0.00581218
-1.00909e-05
0.0060067
-0.00168618
0.00558185
-0.00263155
0.00304735
-0.00254778
-0.000484932
-0.0017904
-0.00276637
-0.000211286
-0.00561985
0.0019175
-0.00755794
0.00363256
-0.00611128
0.00440913
-0.0030553
0.00396697
0.000622688
0.00251927
0.00369981
0.00159795
0.00213829
0.00265029
-0.00465056
0.00669347
-0.0159234
0.0155957
-0.0337387
0.022255
-0.0208859
0.0313262
-0.0366043
0.0445838
-0.0511657
0.0515503
-0.0112138
0.046765
0.0302065
0.0181688
0.104818
-0.00293815
0.0661978
-0.00300837
-0.00716263
-0.0033775
0.00281309
0.00433432
-0.026718
0.0107438
-0.0215424
0.0100293
0.00264264
0.0133311
-0.0166585
0.00738814
0.0107466
-0.0169418
0.0711065
-0.0566583
0.133009
-0.0952378
0.149392
-0.118218
0.108724
-0.123947
0.0452111
-0.115873
-0.0157224
-0.0993221
-0.0584779
-0.0815879
-0.0682219
-0.0598843
-0.0870301
-0.031186
-0.113865
-0.00531721
-0.0978897
-0.00143643
-0.0151947
0.00321636
-0.021659
-0.0398762
0.0619952
0.0284452
-0.0615178
0.0626287
0.0294099
0.0631267
0.0303461
0.0629925
0.0309827
0.0617992
0.0310062
0.059356
0.0302664
0.0557308
0.0288185
0.0511717
0.0268239
0.0460122
0.0244744
0.0405923
0.0219518
0.0352057
0.0194084
0.0300717
0.0169594
0.0253299
0.0146824
0.0210507
0.0126186
0.0172549
0.0107843
0.0139291
0.00917337
0.0110425
0.00777023
0.00855575
0.00655394
0.00642692
0.00550169
0.00461619
0.00459456
0.0030847
0.00381175
0.00179785
0.00313799
0.000724216
0.00255878
-0.000164377
0.0020619
-0.000893098
0.00163706
-0.00148382
0.00127504
-0.00195634
0.000967183
-0.00232777
0.000707001
-0.00261276
0.000487273
-0.00282439
0.000302878
-0.00298015
0.000150859
-0.00307618
1.79016e-05
-0.0031341
-8.26311e-05
-0.00315673
-0.000166624
-0.00314987
-0.00023466
-0.00311982
-0.000285468
-0.00307211
-0.000321293
-0.00301093
-0.000345867
-0.00294011
-0.000359683
-0.00286253
-0.000366721
-0.00278031
-0.000368492
-0.00269533
-0.000366099
-0.00260845
-0.000362546
-0.00252058
-0.000357411
-0.00243284
-0.00034911
-0.0023467
-0.000336471
-0.00226407
-0.000316893
-0.00218763
-0.000288266
-0.00212007
-0.000249275
-0.00206414
-0.000200772
-0.00202167
-0.000145479
-0.00199314
-8.89115e-05
-0.00197659
-3.94261e-05
-0.00196736
-8.30587e-06
-0.00195667
-1.03206e-05
-0.00193105
-6.39355e-05
-0.00187135
-0.000191384
-0.00175356
-0.000413284
-0.00155111
-0.000741373
-0.00123908
-0.00116927
-0.000801537
-0.00166209
-0.000238461
-0.00215503
0.000428256
-0.00255677
0.00116007
-0.00280893
0.001908
-0.00287206
0.00263282
-0.00279469
0.0033138
-0.00264738
0.00395955
-0.00253644
0.00457952
-0.00244595
0.0051872
-0.0023729
0.00575556
-0.00213984
0.00623699
-0.0016597
0.00650686
-0.000633203
0.00641418
0.000975372
0.00579057
0.00316946
0.00443931
0.00588925
0.00251468
0.00773682
0.000389886
0.0081315
-0.00166294
0.00763469
-0.00286271
0.00424712
-0.00282841
-0.000519201
-0.00197505
-0.00361973
-0.000135474
-0.00745941
0.00235638
-0.0100498
0.00435442
-0.00810931
0.00518532
-0.0038862
0.0044505
0.00135754
0.00245463
0.00569567
0.00118602
0.00340692
0.00229726
-0.00576181
0.00677735
-0.0204035
0.0166112
-0.0435726
0.0253011
-0.0295758
0.0349583
-0.0462615
0.0486716
-0.064879
0.0593541
-0.0218963
0.0572591
0.0323015
0.0251159
0.136961
-0.00149766
0.0928113
-0.00325404
-0.00540625
-0.00353277
0.00309182
0.00556065
-0.0358115
0.0133675
-0.0293493
0.0125497
0.00346042
0.0152035
-0.0193123
0.00576841
0.0201817
-0.0257956
0.102671
-0.073103
0.180317
-0.114766
0.191055
-0.136462
0.13042
-0.139875
0.0486236
-0.129395
-0.0262017
-0.110666
-0.0772077
-0.0910598
-0.0878276
-0.067231
-0.110859
-0.0351105
-0.145986
-0.00494452
-0.128056
-0.000263988
-0.0198753
0.00451167
-0.0264346
-0.0521157
0.0659362
0.0280594
-0.0655505
0.0664034
0.0289426
0.0668952
0.0298543
0.0671771
0.0307007
0.0669216
0.0312618
0.0658349
0.031353
0.0637511
0.0309022
0.0606532
0.0299217
0.056652
0.0284755
0.0519473
0.0266566
0.0467843
0.0245713
0.0414163
0.0223274
0.036073
0.0200256
0.0309391
0.0177526
0.026145
0.0155784
0.0217674
0.0135509
0.0178402
0.0116974
0.0143656
0.0100286
0.0113254
0.00854175
0.00869112
0.00722888
0.00642712
0.00607571
0.00449676
0.00506826
0.00286359
0.00419194
0.00149285
0.00343263
0.000352081
0.00277774
-0.000588081
0.00221524
-0.00135468
0.00173382
-0.00197187
0.00132409
-0.0024607
0.000976125
-0.00283993
0.000682154
-0.00312533
0.000436223
-0.00333853
0.00023107
-0.00347946
5.8364e-05
-0.00356824
-7.78189e-05
-0.00361346
-0.000189442
-0.00362133
-0.000277557
-0.00360031
-0.00034228
-0.00355666
-0.000389535
-0.003496
-0.000420315
-0.00342262
-0.000440088
-0.00333983
-0.000451283
-0.00325055
-0.000455409
-0.0031564
-0.000456695
-0.00305887
-0.000454956
-0.00295964
-0.000448301
-0.00286073
-0.000435371
-0.00276456
-0.000412956
-0.00267446
-0.000378343
-0.00259378
-0.000329889
-0.00252588
-0.000268641
-0.00247306
-0.000198249
-0.00243599
-0.000125977
-0.0024125
-6.28165e-05
-0.00239709
-2.37473e-05
-0.00237947
-2.78937e-05
-0.00234385
-9.95553e-05
-0.00226792
-0.000267335
-0.0021239
-0.000557271
-0.00188116
-0.000984147
-0.00151096
-0.00153943
-0.000994779
-0.00217829
-0.000332031
-0.00281777
0.000452983
-0.00334176
0.00131606
-0.00367203
0.00219977
-0.00375573
0.00305677
-0.00365168
0.00386001
-0.00345059
0.00461841
-0.00329478
0.00534403
-0.00317156
0.00605742
-0.00308625
0.00673438
-0.00281679
0.00732916
-0.00225447
0.00770723
-0.00101125
0.00769718
0.000985412
0.00710047
0.0037662
0.00565321
0.0073365
0.0034795
0.00991054
0.000995062
0.0106159
-0.00146561
0.0100954
-0.0029654
0.00574691
-0.00302229
-0.00046229
-0.00210291
-0.0045391
-2.03643e-05
-0.00954193
0.00281629
-0.0128864
0.00507791
-0.0103709
0.0059167
-0.004725
0.00480173
0.00247254
0.00216535
0.00833204
0.000527707
0.00504457
0.00168106
-0.00691516
0.00655173
-0.0252742
0.016999
-0.0540199
0.0280269
-0.0406037
0.0380095
-0.0562441
0.0513468
-0.0782163
0.0660961
-0.0366456
0.0679523
0.0304454
0.0334607
0.171453
0.000862042
0.12541
-0.0032051
-0.00133911
-0.00344163
0.00332835
0.00692752
-0.0461806
0.0162037
-0.0386255
0.0152861
0.00437803
0.0166859
-0.0207121
0.0027861
0.0340815
-0.03677
0.142227
-0.0911011
0.234648
-0.133999
0.233952
-0.153383
0.149805
-0.154757
0.0499972
-0.142266
-0.0386928
-0.121737
-0.097737
-0.100577
-0.108987
-0.0749551
-0.136481
-0.0395809
-0.18136
-0.00458403
-0.163053
0.00118754
-0.0256469
0.00613443
-0.0313815
-0.0660235
0.0701884
0.0277228
-0.0698518
0.0705519
0.0285791
0.070948
0.0294581
0.0712961
0.0303527
0.0714249
0.0311329
0.0711141
0.0316638
0.0701556
0.0318607
0.0683999
0.0316774
0.0657794
0.0310959
0.0623116
0.0301243
0.0580895
0.0287935
0.0532659
0.027151
0.0480339
0.0252574
0.0426036
0.0231829
0.0371772
0.0210049
0.0319279
0.0188002
0.0269869
0.0166384
0.0224402
0.0145753
0.0183329
0.012649
0.0146791
0.0108827
0.0114699
0.00928489
0.00868234
0.00785576
0.006285
0.0065892
0.00424253
0.00547516
0.00251807
0.00450209
0.00107565
0.00365762
-0.000119154
0.00292872
-0.00109754
0.00230241
-0.00188958
0.00176814
-0.00252092
0.00131355
-0.00301534
0.000930633
-0.00339182
0.000607517
-0.00367439
0.000340988
-0.00387251
0.000120348
-0.00399999
-6.19648e-05
-0.00407512
-0.000202398
-0.00410404
-0.000313327
-0.00409653
-0.000397049
-0.00406086
-0.000455955
-0.00400348
-0.000497467
-0.00392932
-0.000525434
-0.00384288
-0.00054188
-0.0037469
-0.000552672
-0.00364375
-0.000558126
-0.00353591
-0.0005561
-0.00342612
-0.000545147
-0.00331751
-0.000521468
-0.00321413
-0.000481694
-0.00312012
-0.000423831
-0.00303957
-0.00034915
-0.00297538
-0.00026239
-0.0029285
-0.000172849
-0.00289663
-9.45877e-05
-0.00287353
-4.68773e-05
-0.00284731
-5.40733e-05
-0.0027999
-0.000146961
-0.00270604
-0.00036121
-0.00253422
-0.000729071
-0.00224977
-0.00126862
-0.00182016
-0.001969
-0.00122398
-0.00277449
-0.000459575
-0.00358217
0.000447079
-0.00424838
0.00144658
-0.00467156
0.00247316
-0.00478226
0.00347076
-0.00464929
0.00440465
-0.00438445
0.00528304
-0.00417312
0.00612016
-0.00400866
0.00694439
-0.00391043
0.00773585
-0.00360824
0.00845319
-0.0029718
0.00895642
-0.00151446
0.00905669
0.000885135
0.0085319
0.00429102
0.0070455
0.00882289
0.00466866
0.0122874
0.00184043
0.0134442
-0.00104978
0.0129856
-0.00290187
0.007599
-0.00310522
-0.000258909
-0.00216219
-0.00548212
0.00012107
-0.0118252
0.00328577
-0.0160511
0.00578022
-0.0128653
0.00656703
-0.00551182
0.00497774
0.00406186
0.0016167
0.0116931
-0.000377932
0.00703922
0.000790442
-0.00808353
0.00601857
-0.0305023
0.0167766
-0.0647778
0.0303009
-0.0541281
0.0403757
-0.0663189
0.0529368
-0.0907774
0.0717649
-0.0554737
0.0784001
0.0238102
0.0431837
0.20667
0.00418956
0.164404
-0.00272944
0.00557988
-0.00302017
0.00361908
0.0084318
-0.0576326
0.0192079
-0.0494016
0.0181768
0.00540914
0.0175898
-0.0201251
-0.00180853
0.0534798
-0.0498634
0.190281
-0.110215
0.294999
-0.152399
0.276136
-0.169092
0.166497
-0.16921
0.0501152
-0.155106
-0.0527967
-0.133074
-0.119768
-0.110576
-0.131485
-0.0833946
-0.163663
-0.0449664
-0.219788
-0.0044595
-0.20356
0.00304314
-0.0331495
0.0081338
-0.0364721
-0.0816566
0.0747514
0.0274194
-0.0744481
0.0750599
0.0282705
0.0753805
0.0291375
0.075688
0.0300451
0.0759111
0.0309098
0.0759314
0.0316435
0.0756013
0.0321908
0.0747689
0.0325098
0.0733026
0.0325621
0.0711094
0.0323175
0.0681456
0.0317573
0.0644228
0.0308738
0.0600096
0.0296706
0.055028
0.0281646
0.0496435
0.0263893
0.0440471
0.0243965
0.0384325
0.022253
0.0329739
0.020034
0.0278097
0.0178132
0.0230368
0.0156556
0.018711
0.0136107
0.0148549
0.0117119
0.0114656
0.00997833
0.00852362
0.00841721
0.00599831
0.00702736
0.00385338
0.00580245
0.00205028
0.00473194
0.000549794
0.00380288
-0.000684187
0.00300207
-0.00168718
0.00231657
-0.00249177
0.00173524
-0.00312549
0.00124121
-0.00361319
0.000828745
-0.00398182
0.000489042
-0.00424997
0.000206179
-0.0044261
-2.62462e-05
-0.00454016
-0.000199221
-0.00459652
-0.000340693
-0.0046081
-0.000444358
-0.00458443
-0.000521126
-0.00453298
-0.000576876
-0.00446046
-0.000614438
-0.00437129
-0.000641839
-0.00426913
-0.000660296
-0.00415766
-0.000667542
-0.00404057
-0.000662219
-0.0039219
-0.000640038
-0.00380662
-0.00059694
-0.00369981
-0.000530573
-0.00360646
-0.000442466
-0.00353018
-0.000338616
-0.00347238
-0.000230643
-0.00343073
-0.000136132
-0.00339836
-7.92818e-05
-0.00336198
-9.04002e-05
-0.00330142
-0.000207534
-0.00318847
-0.000474174