/*--------------------------------*- C++ -*----------------------------------*\
| =========                 |                                                 |
| \\      /  F ield         | OpenFOAM: The Open Source CFD Toolbox           |
|  \\    /   O peration     | Version:  2412                                  |
|   \\  /    A nd           | Website:  www.openfoam.com                      |
|    \\/     M anipulation  |                                                 |
\*---------------------------------------------------------------------------*/
FoamFile
{
    version     2.0;
    format      ascii;
    arch        "LSB;label=32;scalar=64";
    class       volVectorField;
    location    "0.9";
    object      U_0;
}
// * * * * * * * * * * * * * * * * * * * * * * * * * * * * * * * * * * * * * //

dimensions      [0 1 -1 0 0 0 0];

internalField   nonuniform List<vector> 
12600
(
(18.7357 1.26692e-21 2.09512)
(11.6199 1.61269e-20 0.451053)
(7.3515 1.89527e-20 -0.477981)
(5.09006 0 -0.709353)
(3.97731 1.71296e-20 -0.682446)
(3.33666 1.59522e-20 -0.607741)
(2.89541 0 -0.540053)
(2.56415 0 -0.484596)
(2.30447 -4.79589e-20 -0.439125)
(2.09427 0 -0.401372)
(1.91983 2.0117e-20 -0.369488)
(1.77223 1.84208e-20 -0.342146)
(1.64535 -1.68759e-20 -0.318398)
(1.53486 0 -0.297546)
(1.43757 -1.41453e-20 -0.279067)
(1.3511 0 -0.262557)
(1.27361 4.75343e-20 -0.247702)
(1.20369 0 -0.23425)
(1.1402 -1.98956e-20 -0.222002)
(1.08222 -1.81965e-20 -0.210792)
(1.02902 1.66114e-20 -0.200487)
(0.979996 5.43927e-24 -0.190975)
(0.934628 0 -0.182161)
(0.892497 -2.50617e-20 -0.173968)
(0.853242 0 -0.166327)
(0.816556 0 -0.159181)
(0.782175 -1.85812e-20 -0.152479)
(0.749872 0 -0.14618)
(0.71945 4.04704e-24 -0.140246)
(0.690735 1.34279e-20 -0.134642)
(0.663576 1.19551e-20 -0.129341)
(0.637838 1.05908e-20 -0.124317)
(0.613403 -9.32739e-21 -0.119547)
(0.590165 -1.63158e-20 -0.115009)
(0.56803 -1.41516e-20 -0.110687)
(0.546912 1.21395e-20 -0.106564)
(0.526736 0 -0.102625)
(0.507431 -8.59232e-21 -0.0988564)
(0.488936 0 -0.0952461)
(0.471193 5.56237e-21 -0.0917832)
(0.45415 0 -0.0884575)
(0.43776 1.74808e-23 -0.0852596)
(0.42198 0 -0.0821813)
(0.406768 1.59115e-23 -0.0792144)
(0.392089 -2.79153e-22 -0.0763521)
(0.377906 2.00646e-21 -0.0735873)
(0.364191 -3.6114e-21 -0.0709143)
(0.35091 0 -0.0683266)
(0.338041 0 -0.0658198)
(0.325553 -7.57394e-21 -0.0633877)
(0.313427 -1.73095e-20 -0.0610271)
(0.301635 -1.92574e-20 -0.0587319)
(0.290163 1.9395e-23 -0.0564998)
(0.278982 -2.25516e-20 -0.0543248)
(0.268086 0 -0.0522059)
(0.257441 2.51901e-20 -0.0501365)
(0.24705 2.62699e-20 -0.048117)
(0.236876 2.71948e-20 -0.0461403)
(0.226929 0 -0.0442082)
(0.217167 0 -0.0423125)
(0.207609 0 -0.0404571)
(0.198205 -5.95035e-20 -0.038632)
(0.188989 0 -0.0368439)
(0.179897 0 -0.0350803)
(0.170981 1.22397e-19 -0.0333513)
(0.16216 0 -0.0316411)
(0.153507 0 -0.0299641)
(0.144922 0 -0.0283005)
(0.136505 -1.22622e-19 -0.0266697)
(0.128128 1.22047e-19 -0.025047)
(0.119924 1.21272e-19 -0.0234581)
(0.111734 2.34247e-23 -0.0218722)
(0.10373 -1.19123e-19 -0.0203226)
(0.0957164 0 -0.0187712)
(0.0879109 1.16293e-19 -0.0172601)
(0.0800733 0 -0.0157431)
(0.0724753 0 -0.0142722)
(0.0648271 0 -0.0127919)
(0.0574593 2.87822e-23 -0.0113655)
(0.0500292 2.13724e-19 -0.00992723)
(0.0429266 2.09343e-19 -0.00855189)
(0.0357618 -2.04702e-19 -0.00716464)
(0.0289678 -2.00002e-19 -0.00584859)
(0.0221348 0 -0.00452505)
(0.0157093 0 -0.00327979)
(0.00924527 3.70054e-19 -0.00202697)
(0.00339339 -7.19512e-19 -0.000891544)
(-0.00299345 6.982e-19 0.000347685)
(-0.00742019 3.38725e-19 0.00120636)
(-0.0148536 0 0.00264504)
(-0.0169325 -6.34908e-19 0.00305596)
(-0.0235527 3.05863e-19 0.00433938)
(-0.032219 -2.95249e-19 0.00594962)
(-0.0165564 5.73064e-19 0.00307295)
(-0.0624616 0 0.0117986)
(-0.0109629 0 0.00180823)
(-0.0522884 0 0.010161)
(-0.0701443 0 0.0128059)
(0.0160651 0 -0.00268638)
(-0.155092 0 0.0294306)
(0.0442973 -4.63334e-19 -0.0088204)
(-0.0980479 -7.40529e-19 0.0196948)
(-0.122386 -8.13666e-19 0.0220016)
(0.0777262 0 -0.0139471)
(-0.27118 0 0.0516062)
(0.0718052 0 -0.0147033)
(-0.082162 -5.74168e-19 0.0174737)
(-0.253503 -1.25364e-18 0.0466866)
(0.168085 6.49417e-19 -0.0316889)
(-0.281522 0 0.0547906)
(-0.136368 -1.1806e-18 0.0233645)
(0.182971 0 -0.0334655)
(-0.378464 -8.17761e-19 0.0730369)
(-0.224876 1.01222e-18 0.0395962)
(0.274627 -9.89838e-19 -0.0518468)
(-0.227458 -7.14468e-19 0.0461017)
(-0.455623 8.20394e-19 0.085041)
(0.0970574 -2.08182e-23 -0.0192579)
(-0.159604 7.1023e-19 0.0314792)
(-0.17872 0 0.0336363)
(29.1458 -1.27898e-21 4.02737)
(25.1044 0 1.85848)
(20.2429 -1.91822e-20 -0.214051)
(16.0773 0 -1.21261)
(13.1185 -1.73572e-20 -1.5081)
(11.0764 -3.04796e-20 -1.51908)
(9.60443 -1.4109e-20 -1.44146)
(8.49264 0 -1.34386)
(7.61993 3.55932e-22 -1.2485)
(6.91351 -2.19403e-20 -1.16144)
(6.32773 2.01458e-20 -1.08337)
(5.83259 1.84959e-20 -1.01357)
(5.40748 -1.69788e-20 -0.951017)
(5.03772 1.5583e-20 -0.894748)
(4.71259 2.86513e-20 -0.843898)
(4.424 0 -0.797734)
(4.16575 -6.46767e-23 -0.755636)
(3.93302 2.20163e-20 -0.717084)
(3.72198 2.01851e-20 -0.681638)
(3.52953 0 -0.648926)
(3.35318 0 -0.618635)
(3.19085 1.5355e-20 -0.590495)
(3.04084 0 -0.564275)
(2.9017 1.27045e-20 -0.539778)
(2.77221 -2.30412e-20 -0.516831)
(2.65135 0 -0.495285)
(2.53821 1.8833e-20 -0.475008)
(2.43203 0 -0.455887)
(2.33214 -1.52118e-20 -0.437819)
(2.23797 -2.72035e-20 -0.420715)
(2.14899 -2.42154e-20 -0.404496)
(2.06477 -1.07198e-20 -0.38909)
(1.98489 9.43841e-21 -0.374433)
(1.909 3.30281e-20 -0.360468)
(1.83678 2.86409e-20 -0.347144)
(1.76796 0 -0.334413)
(1.70227 0 -0.322234)
(1.63948 -1.72549e-23 -0.310568)
(1.57938 0 -0.299379)
(1.52178 -5.61543e-21 -0.288636)
(1.46651 0 -0.278309)
(1.4134 -6.03535e-21 -0.268371)
(1.36232 0 -0.258796)
(1.31313 -1.65344e-21 -0.249562)
(1.2657 0 -0.240647)
(1.21992 -2.02038e-21 -0.232031)
(1.17569 0 -0.223697)
(1.1329 0 -0.215625)
(1.09147 6.38017e-21 -0.207803)
(1.05131 0 -0.20021)
(1.01234 0 -0.192839)
(0.974487 0 -0.185669)
(0.93769 2.10536e-20 -0.178696)
(0.901859 4.51874e-20 -0.171899)
(0.866967 0 -0.165277)
(0.832915 0 -0.158808)
(0.799699 -2.62453e-20 -0.152495)
(0.767206 -2.71934e-20 -0.146314)
(0.73546 0 -0.140273)
(0.704332 0 -0.134345)
(0.673876 0 -0.128544)
(0.643937 0 -0.122836)
(0.614612 -5.99705e-20 -0.117245)
(0.585708 6.04854e-20 -0.111729)
(0.557375 -1.21699e-19 -0.106323)
(0.529369 0 -0.100974)
(0.501908 0 -0.0957311)
(0.474684 0 -0.0905274)
(0.447996 4.72606e-23 -0.0854295)
(0.421457 -1.2088e-19 -0.0803534)
(0.395467 -1.20003e-19 -0.0753868)
(0.369543 2.37784e-19 -0.0704253)
(0.344203 3.58737e-23 -0.0655815)
(0.31885 -1.1618e-19 -0.060727)
(0.294143 -1.14638e-19 -0.0560035)
(0.269353 0 -0.051255)
(0.245301 0 -0.0466565)
(0.221107 0 -0.0420207)
(0.197773 2.13987e-19 -0.03756)
(0.174255 0 -0.033053)
(0.151741 0 -0.0287502)
(0.129039 2.00346e-19 -0.024399)
(0.107476 1.95537e-19 -0.0202795)
(0.0857914 0 -0.0161235)
(0.0653579 0 -0.0122208)
(0.0448198 0 -0.0082876)
(0.0260984 7.00326e-19 -0.00470809)
(0.005915 -4.46757e-23 -0.000856464)
(-0.00864998 3.28945e-19 0.00193812)
(-0.0317595 -3.17734e-19 0.00636344)
(-0.0391405 6.15289e-19 0.00770283)
(-0.0606309 2.96071e-19 0.0120032)
(-0.0849693 5.71016e-19 0.0162222)
(-0.0449785 0 0.00912162)
(-0.175401 0 0.033904)
(-0.0261478 0 0.00430099)
(-0.157042 0 0.0318236)
(-0.191764 4.70961e-19 0.0349832)
(0.0355573 0 -0.0051438)
(-0.44644 0 0.0860397)
(0.134231 -4.44288e-19 -0.0277632)
(-0.309218 3.54717e-19 0.0640411)
(-0.32559 1.55703e-18 0.0579477)
(0.193767 -7.31047e-19 -0.0343213)
(-0.788106 0 0.15256)
(0.227498 0 -0.0485476)
(-0.289959 0 0.06323)
(-0.688572 5.96947e-19 0.127033)
(0.458512 -6.18053e-19 -0.0885245)
(-0.856841 0 0.171153)
(-0.325366 2.24267e-18 0.0526097)
(0.464022 1.01684e-18 -0.0850044)
(-1.13399 1.55138e-18 0.225619)
(-0.560019 0 0.0949753)
(0.747902 0 -0.144559)
(-0.729387 -6.76635e-19 0.153876)
(-1.25494 0 0.235552)
(0.291474 -8.1902e-19 -0.061249)
(-0.498726 -6.70944e-19 0.100997)
(-0.481108 0 0.092453)
(31.8897 0 3.8972)
(31.0763 0 2.81861)
(28.5472 -1.30025e-20 1.02281)
(25.2051 0 -0.383903)
(21.9544 0 -1.22766)
(19.1828 1.51502e-20 -1.65227)
(16.9258 1.33613e-20 -1.82046)
(15.1018 0 -1.85199)
(13.6151 4.20717e-22 -1.81825)
(12.3855 2.07854e-20 -1.75574)
(11.3527 -3.79628e-20 -1.68195)
(10.4724 -1.75248e-20 -1.60524)
(9.71229 1.14595e-22 -1.52958)
(9.04866 -1.4766e-20 -1.45684)
(8.46356 -1.35482e-20 -1.3878)
(7.94328 1.23757e-20 -1.32271)
(7.47716 -2.27781e-20 -1.26157)
(7.05677 -2.08636e-20 -1.20421)
(6.67538 0 -1.15041)
(6.32754 0 -1.09993)
(6.00879 1.59157e-20 -1.05252)
(5.71543 1.45188e-20 -1.00795)
(5.44441 0 -0.965979)
(5.19311 0 -0.926414)
(4.95935 2.18329e-20 -0.889058)
(4.74126 0 -0.853736)
(4.53722 -3.56839e-20 -0.820291)
(4.34584 1.60639e-20 -0.788577)
(4.16591 0 -0.758463)
(3.99637 1.28894e-20 -0.729831)
(3.83629 1.14739e-20 -0.702572)
(3.68486 0 -0.676588)
(3.54133 -8.95402e-21 -0.651788)
(3.40507 -1.56506e-20 -0.628091)
(3.27549 1.20359e-23 -0.605421)
(3.15208 0 -0.58371)
(3.03437 0 -0.562895)
(2.92193 8.23675e-21 -0.542917)
(2.81439 0 -0.523724)
(2.71139 0 -0.505264)
(2.61263 0 -0.487493)
(2.5178 0 -0.470369)
(2.42665 0 -0.453852)
(2.33893 0 -0.437904)
(2.25442 0 -0.422494)
(2.1729 1.86935e-21 -0.407586)
(2.0942 -3.38593e-21 -0.393155)
(2.01811 0 -0.379168)
(1.9445 -6.03624e-21 -0.365604)
(1.87318 0 -0.352432)
(1.80405 0 -0.339637)
(1.73692 1.8201e-20 -0.327187)
(1.67172 0 -0.315073)
(1.60827 -2.13492e-20 -0.303261)
(1.54653 2.26303e-20 -0.29175)
(1.48632 0 -0.280503)
(1.42762 2.48076e-20 -0.269525)
(1.37025 0 -0.258775)
(1.31422 0 -0.248268)
(1.25932 0 -0.237954)
(1.20564 5.51125e-20 -0.227862)
(1.15291 5.59529e-20 -0.217931)
(1.10128 2.83442e-23 -0.208204)
(1.05043 -1.14204e-19 -0.198606)
(1.00061 2.48632e-23 -0.189201)
(0.951388 0 -0.179893)
(0.903142 0 -0.170772)
(0.855345 -1.15032e-19 -0.161716)
(0.808496 3.80434e-23 -0.152847)
(0.761941 0 -0.144014)
(0.716348 0 -0.135374)
(0.6709 -1.121e-19 -0.126739)
(0.626467 2.88493e-23 -0.118311)
(0.58204 2.689e-23 -0.109861)
(0.538728 0 -0.101642)
(0.495295 0 -0.0933738)
(0.453129 -2.09164e-19 -0.0853699)
(0.410734 2.0538e-19 -0.0772939)
(0.36981 0 -0.0695261)
(0.328583 0 -0.0616688)
(0.289069 0 -0.0541712)
(0.249237 0 -0.0465778)
(0.211352 0 -0.0393937)
(0.173253 0 -0.0321312)
(0.137295 0 -0.0253146)
(0.101172 0 -0.0184403)
(0.0680757 -6.58404e-19 -0.0121487)
(0.0327135 -3.19057e-19 -0.00547553)
(0.00642305 -3.09166e-19 -0.000413058)
(-0.0335329 2.98568e-19 0.00713525)
(-0.0476491 -5.77998e-19 0.00964236)
(-0.0858845 -2.78098e-19 0.017549)
(-0.124804 -2.68104e-19 0.0235067)
(-0.0671077 0 0.014702)
(-0.275665 0 0.052956)
(-0.0342518 0 0.00486821)
(-0.260681 0 0.055016)
(-0.295592 -4.41839e-19 0.0507658)
(0.0435021 0 -0.00239651)
(-0.719793 0 0.137377)
(0.224138 4.16577e-19 -0.0481766)
(-0.533592 0 0.115735)
(-0.489785 -7.29527e-19 0.0794239)
(0.271738 6.85074e-19 -0.0413412)
(-1.28042 0 0.246962)
(0.390329 0 -0.0885845)
(-0.536674 0 0.125958)
(-1.05635 5.58338e-19 0.184083)
(0.700332 0 -0.132256)
(-1.4396 -4.2113e-19 0.29483)
(-0.439216 -5.42715e-22 0.0526717)
(0.661746 -9.51653e-19 -0.109749)
(-1.88122 -1.4516e-18 0.382929)
(-0.792796 0 0.110545)
(1.14222 8.77975e-19 -0.216236)
(-1.2673 6.32909e-19 0.28422)
(-1.94668 7.2439e-19 0.351348)
(0.481568 0 -0.107324)
(-0.854526 6.27355e-19 0.179565)
(-0.722754 0 0.136397)
(32.4117 0 2.95441)
(32.9782 0 2.76791)
(32.4251 1.22917e-20 1.72283)
(30.7822 0 0.520983)
(28.5292 -1.23329e-20 -0.484651)
(26.113 2.5084e-20 -1.20793)
(23.7937 0 -1.6712)
(21.6873 -2.18982e-20 -1.93546)
(19.8274 2.09965e-20 -2.06472)
(18.2045 1.89904e-20 -2.10904)
(16.7911 1.78492e-20 -2.10225)
(15.556 -1.62257e-20 -2.06564)
(14.4707 1.51066e-20 -2.01216)
(13.511 -2.75448e-20 -1.94964)
(12.6566 0 -1.88281)
(11.8915 -2.33463e-20 -1.81455)
(11.2022 0 -1.74659)
(10.5778 0 -1.67999)
(10.0096 0 -1.61536)
(9.48992 1.64349e-20 -1.55304)
(9.01278 -3.42504e-23 -1.4932)
(8.57298 -2.60625e-23 -1.43588)
(8.16616 1.2488e-20 -1.38107)
(7.78863 0 -1.32871)
(7.43721 0 -1.27872)
(7.10919 0 -1.23098)
(6.80221 3.37341e-20 -1.18538)
(6.51423 -6.05983e-24 -1.14183)
(6.24346 0 -1.1002)
(5.98835 0 -1.06038)
(5.7475 0 -1.02228)
(5.51969 0 -0.985791)
(5.30384 1.69368e-20 -0.950822)
(5.09897 0 -0.917283)
(4.90422 -1.28434e-20 -0.885091)
(4.71882 0 -0.854168)
(4.54204 0 -0.82444)
(4.37327 -7.80974e-21 -0.795838)
(4.21192 0 -0.768299)
(4.05746 0 -0.741759)
(3.90943 3.85044e-21 -0.716164)
(3.76737 -5.47066e-21 -0.691458)
(3.6309 0 -0.667594)
(3.49963 -1.54446e-21 -0.644521)
(3.37324 0 -0.622199)
(3.2514 -3.51262e-21 -0.600582)
(3.13383 1.87777e-23 -0.579635)
(3.02025 0 -0.559314)
(2.91042 0 -0.539593)
(2.80409 6.7408e-21 -0.520429)
(2.70107 1.5417e-20 -0.5018)
(2.6011 -3.43437e-20 -0.483664)
(2.50407 0 -0.466009)
(2.40971 -2.01054e-20 -0.448788)
(2.31794 -2.13621e-20 -0.431998)
(2.2285 -2.24221e-20 -0.415587)
(2.14136 -2.33706e-20 -0.399566)
(2.05624 0 -0.383873)
(1.97317 0 -0.368532)
(1.89182 -5.09718e-20 -0.35347)
(1.81232 -1.0394e-19 -0.338731)
(1.73428 -5.27731e-20 -0.324224)
(1.65791 3.04215e-23 -0.310016)
(1.58273 5.383e-20 -0.295994)
(1.5091 5.41263e-20 -0.282253)
(1.43642 0 -0.268654)
(1.36519 0 -0.255327)
(1.29467 1.08404e-19 -0.242096)
(1.22556 2.15938e-19 -0.229137)
(1.15692 0 -0.216229)
(1.08971 1.06511e-19 -0.203603)
(1.02275 1.05512e-19 -0.190984)
(0.957277 1.044e-19 -0.178667)
(0.891846 2.06146e-19 -0.166316)
(0.828039 0 -0.1543)
(0.764082 0 -0.142211)
(0.701958 1.96828e-19 -0.130506)
(0.639522 -3.86425e-19 -0.118693)
(0.579204 -1.89461e-19 -0.107327)
(0.518457 0 -0.0958266)
(0.460176 0 -0.084848)
(0.401432 0 -0.0737233)
(0.345494 0 -0.0631948)
(0.289229 0 -0.0525413)
(0.236051 0 -0.0425373)
(0.182639 -3.18475e-19 -0.0324489)
(0.133483 4.22385e-23 -0.023166)
(0.0813745 2.99581e-19 -0.0134345)
(0.0415725 0 -0.00578529)
(-0.0165444 2.80247e-19 0.00503804)
(-0.0390964 2.71263e-19 0.00900382)
(-0.0960215 0 0.0209591)
(-0.148743 -2.51511e-19 0.0279439)
(-0.0802289 -4.876e-19 0.0195828)
(-0.35982 0 0.0691206)
(-0.034051 0 0.00397575)
(-0.359691 0 0.0789167)
(-0.379378 -4.14046e-19 0.0615394)
(0.0407687 0 0.00448989)
(-0.970059 0 0.183656)
(0.311236 3.90358e-19 -0.0690279)
(-0.765637 -3.11664e-19 0.172512)
(-0.613006 0 0.0899028)
(0.310685 0 -0.0375767)
(-1.73867 0 0.334834)
(0.552255 0 -0.131732)
(-0.814704 0 0.200703)
(-1.35196 -3.54716e-22 0.22326)
(0.885291 0 -0.163424)
(-2.01532 3.9408e-19 0.421466)
(-0.482584 -9.81246e-19 0.0321233)
(0.77295 0 -0.112754)
(-2.60063 1.3604e-22 0.539656)
(-0.92776 0 0.0977031)
(1.44684 4.04855e-22 -0.268677)
(-1.82328 0 0.42882)
(-2.5172 -6.77282e-19 0.439347)
(0.658662 0 -0.154481)
(-1.21717 5.86507e-19 0.263755)
(-0.889533 0 0.165758)
(32.5144 0 2.10168)
(33.2724 0 2.22706)
(33.6194 0 1.75156)
(33.2553 0 0.957036)
(32.2327 1.16414e-20 0.114775)
(30.759 -9.01318e-22 -0.634749)
(29.0396 0 -1.23612)
(27.2333 2.06689e-20 -1.68018)
(25.4499 0 -1.9841)
(23.7554 -3.53486e-20 -2.17613)
(22.1822 0 -2.28489)
(20.7404 1.53182e-20 -2.33437)
(19.4276 0 -2.34289)
(18.235 2.60066e-20 -2.3237)
(17.1513 -1.18484e-20 -2.28611)
(16.1651 2.18976e-20 -2.23656)
(15.2655 -2.00512e-20 -2.1795)
(14.4425 -1.84095e-20 -2.118)
(13.6873 0 -2.05417)
(12.9923 -1.55191e-20 -1.98944)
(12.3508 -1.41828e-20 -1.92484)
(11.7569 -2.58496e-20 -1.86102)
(11.2055 -1.17921e-20 -1.79846)
(10.6924 0 -1.73744)
(10.2136 0 -1.67815)
(9.76576 0 -1.62071)
(9.34598 -1.59214e-20 -1.56516)
(8.95167 -1.43386e-20 -1.51151)
(8.58052 0 -1.45974)
(8.23052 0 -1.40983)
(7.89987 1.02458e-20 -1.36171)
(7.58696 0 -1.31534)
(7.29036 1.3245e-24 -1.27064)
(7.00877 -1.39928e-20 -1.22755)
(6.74105 1.21399e-20 -1.18601)
(6.48615 0 -1.14594)
(6.24312 0 -1.10728)
(6.0111 7.37099e-21 -1.06997)
(5.78932 0 -1.03393)
(5.57706 0 -0.999106)
(5.37367 -3.63352e-21 -0.965443)
(5.17854 5.16214e-21 -0.932879)
(4.99115 0 -0.901363)
(4.81097 1.45717e-21 -0.870837)
(4.63755 0 -0.841257)
(4.47043 1.64756e-21 -0.81257)
(4.30926 2.99953e-21 -0.784735)
(4.15361 0 -0.757702)
(4.00318 5.33004e-21 -0.731437)
(3.85761 -6.35695e-21 -0.705889)
(3.71665 -2.90462e-20 -0.681035)
(3.57995 1.61775e-20 -0.65682)
(3.44731 -1.76191e-20 -0.63323)
(3.31841 2.52832e-23 -0.610206)
(3.19311 0 -0.587747)
(3.07107 2.11337e-20 -0.565785)
(2.95223 2.20255e-20 -0.544334)
(2.83621 -2.27763e-20 -0.523316)
(2.72305 2.34374e-20 -0.502763)
(2.6123 4.80227e-20 -0.482579)
(2.50412 4.89414e-20 -0.462821)
(2.39799 -4.96465e-20 -0.443372)
(2.29418 5.02506e-20 -0.42432)
(2.19205 0 -0.405514)
(2.09207 0 -0.387084)
(1.99342 5.10527e-20 -0.368842)
(1.89679 0 -0.350962)
(1.80116 0 -0.33321)
(1.70747 -1.01591e-19 -0.315821)
(1.61448 0 -0.298499)
(1.52342 -1.0021e-19 -0.281553)
(1.43274 -1.98482e-19 -0.264615)
(1.34408 0 -0.24808)
(1.25551 -9.6921e-20 -0.231496)
(1.16912 0 -0.215361)
(1.08256 0 -0.199123)
(0.998433 -1.84934e-19 -0.183397)
(0.913914 1.81578e-19 -0.167521)
(0.832203 3.94894e-23 -0.152242)
(0.749927 0 -0.136775)
(0.670913 0 -0.122005)
(0.591276 0 -0.107027)
(0.515353 -1.62339e-19 -0.09285)
(0.438967 1.58107e-19 -0.0784869)
(0.366673 0 -0.0649962)
(0.294064 5.97866e-19 -0.0513869)
(0.226963 2.90181e-19 -0.0388025)
(0.156328 -5.62221e-19 -0.0257582)
(0.101025 -2.72294e-19 -0.0151463)
(0.0232499 -5.25772e-19 -0.000898806)
(-0.00971622 0 0.00488657)
(-0.0873327 0 0.0214064)
(-0.153463 2.35832e-19 0.0287712)
(-0.0810679 4.57132e-19 0.0232335)
(-0.424307 -4.28503e-19 0.081224)
(-0.0239757 0 0.00131532)
(-0.44988 0 0.102765)
(-0.441323 3.87936e-19 0.066195)
(0.0295712 3.75432e-19 0.0158115)
(-1.19244 0 0.222831)
(0.392972 -3.6558e-19 -0.0894613)
(-0.998588 2.91839e-19 0.2331)
(-0.695828 0 0.0876617)
(0.312726 0 -0.0212061)
(-2.15402 0 0.412337)
(0.704212 0 -0.176067)
(-1.1139 0 0.286684)
(-1.57494 -4.88655e-19 0.240588)
(1.00901 0 -0.178358)
(-2.56911 0 0.547308)
(-0.46701 0 -0.0104444)
(0.801628 8.34096e-19 -0.0895959)
(-3.27309 6.34681e-19 0.690769)
(-0.978557 0 0.0535413)
(1.65795 -7.67983e-19 -0.29651)
(-2.37776 0 0.584514)
(-2.95859 -6.32064e-19 0.490868)
(0.814477 0 -0.200245)
(-1.57457 -5.48112e-19 0.351121)
(-0.968208 0 0.174174)
(32.5866 -5.00296e-21 1.48744)
(33.1701 -6.20563e-21 1.62702)
(33.6968 7.36502e-21 1.43582)
(33.9226 8.29721e-21 0.974567)
(33.7302 0 0.382344)
(33.1317 -9.94148e-21 -0.233845)
(32.2004 0 -0.808185)
(31.0273 1.74705e-20 -1.30366)
(29.7011 1.67057e-20 -1.70484)
(28.298 3.2224e-20 -2.01217)
(26.8775 -1.48291e-20 -2.23536)
(25.4818 1.384e-20 -2.3879)
(24.1381 0 -2.48372)
(22.8619 0 -2.53546)
(21.6605 1.11704e-20 -2.55374)
(20.5357 -1.14605e-22 -2.5471)
(19.486 1.76147e-22 -2.52218)
(18.5077 1.35974e-22 -2.48406)
(17.5963 0 -2.43658)
(16.7471 0 -2.38263)
(15.955 0 -2.32435)
(15.2155 2.42893e-20 -2.26336)
(14.524 1.10538e-20 -2.20086)
(13.8764 0 -2.13773)
(13.2691 0 -2.07464)
(12.6987 1.65628e-20 -2.01206)
(12.1619 0 -1.95036)
(11.6562 0 -1.88978)
(11.1789 0 -1.8305)
(10.7278 0 -1.77265)
(10.3008 -6.45858e-24 -1.71628)
(9.89601 0 -1.66146)
(9.51182 -1.66461e-24 -1.60819)
(9.14667 1.31903e-20 -1.55647)
(8.79916 2.52842e-24 -1.50628)
(8.46803 0 -1.4576)
(8.15212 0 -1.4104)
(7.85037 0 -1.36463)
(7.56183 0 -1.32025)
(7.28558 0 -1.27721)
(7.02084 0 -1.23547)
(6.76683 0 -1.19497)
(6.52287 -3.07952e-21 -1.15566)
(6.28831 -1.40907e-21 -1.1175)
(6.06256 0 -1.08045)
(5.84507 1.51778e-21 -1.04444)
(5.63533 0 -1.00943)
(5.43285 0 -0.975384)
(5.23721 -1.00252e-20 -0.942254)
(5.04794 0 -0.909986)
(4.86473 1.36632e-20 -0.878558)
(4.68712 0 -0.847904)
(4.51486 3.31547e-20 -0.818013)
(4.34752 2.44961e-23 -0.788814)
(4.18494 0 -0.76031)
(4.02665 0 -0.732418)
(3.87258 0 -0.705159)
(3.72225 4.28544e-20 -0.678434)
(3.57568 -4.40957e-20 -0.652289)
(3.43232 -4.51216e-20 -0.626602)
(3.29235 -4.59856e-20 -0.601449)
(3.15509 9.33867e-20 -0.57668)
(3.0209 4.72152e-20 -0.552409)
(2.88895 0 -0.528446)
(2.75982 0 -0.504957)
(2.63249 -2.42701e-23 -0.481701)
(2.50779 0 -0.458904)
(2.38445 0 -0.436265)
(2.26365 -9.5428e-20 -0.414086)
(2.14379 0 -0.391988)
(2.02644 0 -0.370367)
(1.90963 1.86462e-19 -0.348751)
(1.79541 -9.21831e-20 -0.327647)
(1.68135 0 -0.306475)
(1.57008 0 -0.285871)
(1.45861 0 -0.26513)
(1.35024 1.73681e-19 -0.245038)
(1.24138 0 -0.224746)
(1.13607 3.3422e-19 -0.205211)
(1.03004 -1.63558e-19 -0.185424)
(0.928119 0 -0.166524)
(0.825384 0 -0.147342)
(0.727333 1.52336e-19 -0.129181)
(0.628645 -2.64489e-23 -0.110759)
(0.535122 1.44302e-19 -0.0934507)
(0.441172 -2.80375e-19 -0.07598)
(0.354021 2.7207e-19 -0.0597557)
(0.262843 2.63587e-19 -0.0431007)
(0.189821 2.55301e-19 -0.0291349)
(0.0906837 3.1896e-23 -0.01126)
(0.0450268 0 -0.00323433)
(-0.0553798 -2.29308e-19 0.0182603)
(-0.134979 0 0.0255113)
(-0.0656635 0 0.0250743)
(-0.464986 4.01427e-19 0.0887602)
(-0.00180614 0 -0.00319764)
(-0.526382 0 0.125652)
(-0.47939 0 0.0646786)
(0.013216 -3.51522e-19 0.0311157)
(-1.38175 0 0.254456)
(0.467374 -3.42248e-19 -0.108736)
(-1.22483 0 0.295874)
(-0.740071 0 0.0735879)
(0.281896 0 0.00703617)
(-2.51729 0 0.478742)
(0.837206 0 -0.219428)
(-1.42314 -4.20954e-19 0.381294)
(-1.72727 -4.56354e-19 0.237603)
(1.07041 4.74772e-19 -0.176883)
(-3.08598 0 0.668456)
(-0.408207 0 -0.0706841)
(0.755785 -1.56017e-18 -0.0423563)
(-3.88006 0 0.831233)
(-0.964548 7.30522e-19 -0.0162272)
(1.77695 0 -0.300561)
(-2.91106 5.17368e-19 0.746214)
(-3.26535 5.90656e-19 0.507241)
(0.942816 0 -0.242389)
(-1.91282 -5.12157e-19 0.438246)
(-0.945135 0 0.159851)
(32.6411 4.71142e-21 1.03534)
(33.0522 1.14412e-20 1.12231)
(33.4984 -6.93746e-21 1.03916)
(33.8636 -7.8226e-22 0.775595)
(34.0371 7.51378e-21 0.385093)
(33.9627 0 -0.0703993)
(33.6326 0 -0.541766)
(33.067 -1.6451e-20 -0.99327)
(32.3013 -3.05581e-20 -1.40129)
(31.3778 -7.09017e-22 -1.75278)
(30.3402 1.39623e-20 -2.04325)
(29.229 -1.30309e-20 -2.27405)
(28.0792 1.17862e-20 -2.45)
(26.9189 0 -2.57772)
(25.7699 0 -2.66436)
(24.6474 -9.57355e-21 -2.71693)
(23.5622 3.50371e-20 -2.74183)
(22.5205 3.22506e-20 -2.74462)
(21.5259 0 -2.73002)
(20.5797 0 -2.70192)
(19.6817 0 -2.66347)
(18.8308 -6.73603e-23 -2.61722)
(18.0252 -2.07644e-20 -2.5652)
(17.2628 9.43318e-21 -2.50902)
(16.5413 1.71468e-20 -2.44995)
(15.8582 -3.11413e-20 -2.38899)
(15.2112 1.40558e-20 -2.32693)
(14.598 1.26703e-20 -2.26437)
(14.0163 1.13827e-20 -2.20181)
(13.4642 0 -2.1396)
(12.9396 -9.08821e-21 -2.07804)
(12.4408 8.04613e-21 -2.01734)
(11.9659 -7.09635e-21 -1.95766)
(11.5134 -1.24117e-20 -1.89911)
(11.0819 -2.15479e-20 -1.84178)
(10.67 0 -1.78573)
(10.2764 0 -1.73099)
(9.89991 -6.55865e-21 -1.67758)
(9.53948 0 -1.62549)
(9.19407 4.26152e-21 -1.57472)
(8.86277 3.24688e-21 -1.52526)
(8.54467 0 -1.47707)
(8.239 5.81157e-21 -1.43014)
(7.94497 1.32602e-21 -1.38442)
(7.66189 0 -1.33988)
(7.38909 -1.42817e-21 -1.29649)
(7.12597 -2.61214e-21 -1.25421)
(6.87193 0 -1.21299)
(6.62646 9.40271e-21 -1.1728)
(6.38901 -5.59062e-21 -1.13359)
(6.15916 -1.2799e-20 -1.09533)
(5.93638 0 -1.05797)
(5.72035 -2.47593e-23 -1.02148)
(5.51054 3.34521e-20 -0.985795)
(5.30674 0 -0.950922)
(5.10838 0 -0.916762)
(4.91538 -1.94349e-20 -0.883351)
(4.72712 -2.01362e-20 -0.850567)
(4.54364 4.14189e-20 -0.818472)
(4.36425 4.24154e-20 -0.786919)
(4.18915 4.32238e-20 -0.756006)
(4.01752 -4.38705e-20 -0.725547)
(3.84979 -8.87141e-20 -0.69569)
(3.68494 0 -0.666197)
(3.52365 0 -0.637279)
(3.36469 -9.01438e-20 -0.608635)
(3.20905 0 -0.580552)
(3.05518 0 -0.552651)
(2.9045 8.96274e-20 -0.525313)
(2.75506 0 -0.498065)
(2.60876 -8.83431e-20 -0.4714)
(2.46319 -3.23677e-23 -0.444731)
(2.32084 8.65424e-20 -0.418691)
(2.17872 0 -0.392555)
(2.04005 0 -0.367117)
(1.90117 0 -0.341496)
(1.76609 1.62891e-19 -0.316673)
(1.63041 0 -0.291587)
(1.49908 -1.56757e-19 -0.267432)
(1.36683 3.06815e-19 -0.242946)
(1.23961 0 -0.219552)
(1.11133 0 -0.195785)
(0.988781 0 -0.173279)
(0.865363 -2.61848e-23 -0.150416)
(0.748262 -1.35279e-19 -0.128934)
(0.630573 -2.62726e-19 -0.107227)
(0.521028 -2.54996e-19 -0.0869962)
(0.407024 2.46942e-19 -0.0663999)
(0.313821 0 -0.0486502)
(0.191362 2.3085e-19 -0.0269052)
(0.130419 0 -0.0162247)
(0.00499313 2.14784e-19 0.01072)
(-0.0886742 0 0.017164)
(-0.0292689 0 0.0244062)
(-0.477254 0 0.090863)
(0.0354377 -3.76906e-19 -0.00998891)
(-0.583649 -3.43016e-19 0.146527)
(-0.491471 0 0.0566967)
(-0.00378044 3.29107e-19 0.0497721)
(-1.53293 -2.896e-19 0.277064)
(0.53357 3.20234e-19 -0.126259)
(-1.43607 -2.55581e-19 0.358935)
(-0.749242 0 0.0483396)
(0.224563 0 0.0465247)
(-2.82064 0 0.53019)
(0.943529 0 -0.25973)
(-1.73056 3.93629e-19 0.481759)
(-1.81515 3.70695e-22 0.214991)
(1.07327 -8.87995e-19 -0.158149)
(-3.5513 0 0.781051)
(-0.326212 0 -0.144697)
(0.648245 7.29378e-19 0.0278976)
(-4.40418 0 0.956331)
(-0.91161 -6.82678e-19 -0.106772)
(1.81213 0 -0.280031)
(-3.40389 -9.66757e-19 0.908571)
(-3.4382 0 0.486782)
(1.04158 0 -0.279307)
(-2.21651 4.78435e-19 0.520924)
(-0.809288 0 0.118092)
(32.6655 0 0.682132)
(32.967 -5.26474e-21 0.725315)
(33.304 0 0.675644)
(33.6345 -6.61704e-21 0.51237)
(33.8954 -1.34888e-20 0.25035)
(34.0358 0 -0.0786818)
(34.0273 6.72851e-21 -0.443303)
(33.8585 0 -0.817416)
(33.5299 9.01016e-22 -1.18082)
(33.051 -2.59111e-20 -1.51905)
(32.4379 0 -1.82278)
(31.7109 0 -2.08712)
(30.8923 -1.10856e-20 -2.31047)
(30.0042 0 -2.49358)
(29.0679 0 -2.63873)
(28.1021 0 -2.74919)
(27.1232 -1.63675e-20 -2.82875)
(26.1444 -1.50814e-20 -2.88135)
(25.1763 -1.36873e-20 -2.91087)
(24.2269 0 -2.92096)
(23.3021 0 -2.91489)
(22.4058 -1.06704e-20 -2.89557)
(21.5407 9.73997e-21 -2.86552)
(20.7081 -8.87217e-21 -2.82688)
(19.9085 -1.6127e-20 -2.78145)
(19.142 2.91725e-20 -2.73075)
(18.4081 -5.43517e-23 -2.67603)
(17.7058 -1.19164e-20 -2.61832)
(17.0341 -1.07052e-20 -2.55847)
(16.3918 0 -2.49718)
(15.7776 0 -2.43501)
(15.1903 -7.56683e-21 -2.37242)
(14.6284 0 -2.30979)
(14.0908 1.16718e-20 -2.2474)
(13.5761 1.01302e-20 -2.1855)
(13.0831 -8.69852e-21 -2.12427)
(12.6106 0 -2.06386)
(12.1575 6.16694e-21 -2.00438)
(11.7227 5.04508e-21 -1.94591)
(11.3052 3.62346e-24 -1.88852)
(10.904 -6.10998e-21 -1.83225)
(10.5183 0 -1.77712)
(10.1471 -2.73888e-21 -1.72315)
(9.78968 0 -1.67033)
(9.44522 0 -1.61867)
(9.11297 0 -1.56815)
(8.79231 1.36789e-23 -1.51875)
(8.48251 0 -1.47044)
(8.18304 -4.41163e-21 -1.42322)
(7.89323 1.04947e-20 -1.37702)
(7.61262 1.20274e-20 -1.33185)
(7.34059 0 -1.28764)
(7.07677 -1.46153e-20 -1.24439)
(6.82052 -3.13847e-20 -1.20202)
(6.57162 0 -1.16055)
(6.32937 0 -1.11987)
(6.09369 1.82562e-20 -1.08003)
(5.86382 1.88768e-20 -1.0409)
(5.63984 -1.94421e-20 -1.00255)
(5.42089 -3.97682e-20 -0.964816)
(5.20723 0 -0.927815)
(4.99786 0 -0.891329)
(4.79328 2.83772e-23 -0.855541)
(4.59228 -4.19445e-20 -0.820165)
(4.39568 0 -0.785463)
(4.20197 4.22971e-20 -0.751068)
(4.01235 0 -0.717334)
(3.82495 0 -0.6838)
(3.64146 0 -0.650933)
(3.45952 0 -0.618155)
(3.28143 3.42976e-23 -0.586074)
(3.10425 -3.20713e-23 -0.553968)
(2.931 -8.11252e-20 -0.522614)
(2.75806 0 -0.491124)
(2.58928 -7.89317e-20 -0.460472)
(2.42025 0 -0.429575)
(2.2558 -1.52743e-19 -0.399638)
(2.0906 1.49845e-19 -0.369358)
(1.9306 -1.46885e-19 -0.340196)
(1.76945 -1.43788e-19 -0.310606)
(1.6143 0 -0.28233)
(1.4578 1.37186e-19 -0.253567)
(1.30814 0 -0.226328)
(1.1573 -1.30277e-19 -0.19861)
(1.01403 -1.26698e-19 -0.172566)
(0.869922 2.46122e-19 -0.146212)
(0.735381 0 -0.121577)
(0.595972 -4.62534e-19 -0.0966659)
(0.479866 0 -0.0746752)
(0.331824 2.16106e-19 -0.0487913)
(0.252693 0 -0.0349823)
(0.0998376 2.01032e-19 -0.00209027)
(-0.00897992 0 0.00316003)
(0.0337408 3.75368e-19 0.020438)
(-0.455889 -3.51559e-19 0.0865707)
(0.0918024 3.52709e-19 -0.0190724)
(-0.615439 3.20961e-19 0.164213)
(-0.47516 0 0.0420373)
(-0.0156911 -6.15829e-19 0.0708887)
(-1.64085 5.41674e-19 0.289843)
(0.592247 0 -0.141696)
(-1.62351 2.39029e-19 0.420258)
(-0.727998 0 0.0130372)
(0.148927 0 0.0959549)
(-3.05706 -4.0662e-19 0.565461)
(1.01813 0 -0.295307)
(-2.02396 0 0.585089)
(-1.84862 3.98499e-19 0.174923)
(1.02566 8.30495e-19 -0.123161)
(-3.95107 3.00799e-19 0.88153)
(-0.242744 0 -0.227712)
(0.494893 0 0.118201)
(-4.82981 0 1.06198)
(-0.848358 0 -0.211713)
(1.77702 6.28336e-19 -0.237434)
(-3.83756 4.51534e-19 1.06616)
(-3.48329 0 0.431039)
(1.11415 0 -0.310415)
(-2.46869 0 0.594278)
(-0.552966 0 0.0465917)
(32.6644 4.21587e-21 0.393757)
(32.8965 0 0.409618)
(33.1523 4.93276e-21 0.368844)
(33.4171 0 0.255403)
(33.6601 6.03369e-21 0.0698513)
(33.8497 0 -0.173105)
(33.9631 -6.32394e-21 -0.454326)
(33.9852 1.15986e-20 -0.755869)
(33.9069 2.36779e-20 -1.06257)
(33.7235 7.28701e-22 -1.36245)
(33.4345 0 -1.64649)
(33.0433 0 -1.90849)
(32.5566 0 -2.14458)
(31.9835 0 -2.3527)
(31.335 0 -2.53209)
(30.6232 0 -2.68303)
(29.8605 1.47502e-20 -2.80652)
(29.0591 -1.36702e-20 -2.90417)
(28.2306 1.28606e-20 -2.97796)
(27.3855 0 -3.03009)
(26.533 0 -3.0629)
(25.6809 9.82545e-21 -3.07871)
(24.8356 8.99229e-21 -3.07977)
(24.0023 8.20963e-21 -3.06819)
(23.1851 0 -3.0459)
(22.387 -1.36721e-20 -3.01463)
(21.61 -2.46647e-20 -2.97592)
(20.8558 1.10976e-20 -2.93113)
(20.1252 0 -2.88142)
(19.4188 0 -2.82779)
(18.7365 0 -2.77111)
(18.0782 7.07421e-21 -2.71211)
(17.4435 0 -2.6514)
(16.832 0 -2.58951)
(16.243 9.49052e-21 -2.52686)
(15.6756 8.17145e-21 -2.46382)
(15.1293 0 -2.4007)
(14.603 5.78883e-21 -2.33774)
(14.0961 -9.47626e-21 -2.27514)
(13.6077 -3.76692e-21 -2.21307)
(13.137 2.87167e-21 -2.15166)
(12.6832 0 -2.09101)
(12.2454 0 -2.03122)
(11.8229 0 -1.97232)
(11.415 -6.27748e-23 -1.91439)
(11.0209 0 -1.85744)
(10.64 2.29271e-21 -1.80149)
(10.2715 3.24371e-21 -1.74655)
(9.91492 0 -1.69264)
(9.56951 -4.9207e-21 -1.63971)
(9.23481 0 -1.58781)
(8.91009 0 -1.53685)
(8.59501 -1.36759e-20 -1.48688)
(8.28882 2.15694e-23 -1.4378)
(7.99129 1.56045e-20 -1.38967)
(7.70163 0 -1.34237)
(7.41975 0 -1.29596)
(7.14479 -1.77157e-20 -1.2503)
(6.87684 0 -1.2055)
(6.61489 3.73173e-20 -1.16134)
(6.35928 0 -1.11801)
(6.10881 0 -1.07522)
(5.86409 7.80395e-20 -1.03321)
(5.62367 7.86707e-20 -0.991649)
(5.38854 3.95287e-20 -0.950848)
(5.15688 0 -0.910372)
(4.93016 0 -0.870654)
(4.7061 3.95468e-20 -0.831135)
(4.48676 7.87632e-20 -0.79239)
(4.26928 0 -0.753716)
(4.05642 7.76837e-20 -0.715854)
(3.84467 -7.69197e-20 -0.67793)
(3.6376 7.60495e-20 -0.640889)
(3.43088 -7.50299e-20 -0.603651)
(3.22912 7.39803e-20 -0.567399)
(3.02702 0 -0.530823)
(2.83034 0 -0.495378)