/*--------------------------------*- C++ -*----------------------------------*\
| =========                 |                                                 |
| \\      /  F ield         | OpenFOAM: The Open Source CFD Toolbox           |
|  \\    /   O peration     | Version:  2412                                  |
|   \\  /    A nd           | Website:  www.openfoam.com                      |
|    \\/     M anipulation  |                                                 |
\*---------------------------------------------------------------------------*/
FoamFile
{
    version     2.0;
    format      ascii;
    arch        "LSB;label=32;scalar=64";
    class       volScalarField;
    location    "0.05";
    object      Co;
}
// * * * * * * * * * * * * * * * * * * * * * * * * * * * * * * * * * * * * * //

dimensions      [0 0 0 0 0 0 0];

internalField   nonuniform List<scalar> 
12600
(
0.111694
0.0605417
0.0414857
0.031589
0.0253418
0.0209419
0.0176361
0.0150439
0.0129521
0.0112286
0.00978612
0.00856372
0.00751748
0.0066147
0.00583044
0.00514527
0.0045438
0.00401361
0.00354463
0.00312851
0.00275835
0.00242834
0.00213356
0.00186979
0.00163344
0.00142139
0.00123099
0.0010599
0.000906095
0.000767789
0.000643383
0.000531455
0.000430739
0.0003401
0.000258538
0.000185201
0.00011929
6.01443e-05
4.91319e-05
8.62903e-05
0.000125758
0.000160884
0.000192063
0.000219625
0.000243872
0.00026512
0.000283645
0.000299702
0.000313524
0.000325333
0.000335328
0.000343683
0.000350555
0.000356103
0.000360451
0.000363718
0.000366034
0.00036748
0.000368145
0.00036814
0.000367518
0.000366361
0.000364765
0.000362745
0.000360381
0.000357728
0.000354796
0.000351662
0.00034834
0.000344861
0.000341268
0.000337567
0.000333802
0.000329986
0.000326146
0.0003223
0.000318459
0.000314645
0.000310856
0.000307108
0.000303397
0.000299737
0.000296133
0.00029259
0.000289117
0.000285709
0.00028238
0.000279118
0.000275939
0.000272833
0.000269805
0.000266854
0.000263981
0.000261179
0.000258458
0.000255798
0.000253217
0.0002507
0.000248272
0.000245854
0.000243559
0.00024125
0.000239126
0.000236928
0.000234939
0.000232879
0.000230923
0.000229128
0.000227072
0.000225746
0.000223505
0.000222488
0.000220107
0.000218913
0.000216839
0.0002149
0.000212447
0.000209548
0.000196376
0.000183666
0.207565
0.145061
0.109259
0.0863637
0.0706112
0.0590416
0.0501423
0.0430613
0.0372862
0.0324875
0.0284421
0.0249925
0.0220237
0.0194492
0.0172026
0.0152317
0.0134949
0.0119585
0.0105948
0.00938103
0.0082981
0.00732988
0.00646267
0.00568469
0.00498583
0.00435735
0.00379164
0.00328214
0.00282305
0.00240927
0.00203625
0.00169993
0.00139669
0.0011232
0.000876535
0.000654233
0.000454069
0.000274057
0.000191326
0.000255112
0.000371317
0.000474942
0.000567101
0.000648723
0.000720665
0.000783859
0.00083908
0.000887071
0.000928512
0.000964034
0.000994216
0.00101957
0.00104054
0.00105758
0.00107108
0.00108137
0.00108881
0.00109368
0.00109621
0.00109671
0.00109541
0.00109248
0.00108822
0.00108272
0.00107615
0.00106871
0.00106043
0.00105151
0.00104203
0.00103206
0.00102172
0.00101106
0.00100017
0.000989136
0.00097801
0.000966852
0.000955703
0.00094461
0.000933581
0.000922652
0.000911819
0.000901126
0.000890586
0.000880219
0.000870045
0.000860058
0.000850297
0.000840718
0.000831386
0.000822256
0.000813351
0.000804672
0.000796206
0.000787953
0.000779932
0.00077208
0.000764456
0.000757041
0.000749843
0.000742694
0.000735875
0.000729075
0.00072275
0.000716283
0.000710342
0.000704288
0.000698434
0.000693194
0.000686989
0.000683256
0.000676315
0.000673672
0.00066613
0.00066306
0.000656574
0.000650891
0.000643488
0.000635256
0.00059027
0.00055736
0.259744
0.203249
0.162475
0.132717
0.110607
0.0936433
0.0802399
0.0693863
0.0604232
0.0529044
0.0465174
0.0410362
0.036293
0.0321598
0.0285373
0.0253469
0.0225252
0.0200207
0.017791
0.0158006
0.0140198
0.0124236
0.0109903
0.00970139
0.00854098
0.00749514
0.00655177
0.00570031
0.00493148
0.00423706
0.00360979
0.00304311
0.00253123
0.00206876
0.00165081
0.00127327
0.000932572
0.000625497
0.00041891
0.000459937
0.000648911
0.000817632
0.000967884
0.0011011
0.00121863
0.00132201
0.00141247
0.00149119
0.00155929
0.00161777
0.00166753
0.00170944
0.00174418
0.00177246
0.00179498
0.00181222
0.00182474
0.00183307
0.00183752
0.00183862
0.00183679
0.00183225
0.00182552
0.00181676
0.00180619
0.00179418
0.00178081
0.00176633
0.00175093
0.0017347
0.00171784
0.00170046
0.00168268
0.00166467
0.00164649
0.00162825
0.00161003
0.00159188
0.00157383
0.00155591
0.00153814
0.0015206
0.00150329
0.00148627
0.00146955
0.00145314
0.00143709
0.00142132
0.00140597
0.00139093
0.00137626
0.00136196
0.00134799
0.00133437
0.00132113
0.00130815
0.00129553
0.00128331
0.00127135
0.00125951
0.00124815
0.00123696
0.00122638
0.00121577
0.00120575
0.00119587
0.0011859
0.00117749
0.00116677
0.00116111
0.00114888
0.00114518
0.00113173
0.00112725
0.00111592
0.00110625
0.00109351
0.00108037
0.000993106
0.000933276
0.285735
0.239123
0.200048
0.168502
0.143325
0.123084
0.106578
0.0929189
0.0814582
0.0717274
0.0633815
0.0561623
0.0498728
0.0443601
0.0395035
0.0352062
0.0313896
0.0279889
0.0249504
0.022229
0.0197866
0.0175907
0.0156135
0.0138309
0.0122219
0.0107681
0.00945377
0.00826471
0.00718858
0.00621445
0.00533258
0.00453421
0.00381157
0.00315742
0.00256504
0.00202875
0.00154369
0.00110546
0.000723992
0.000692312
0.000949912
0.00118022
0.00138562
0.00156796
0.001729
0.00187086
0.00199517
0.00210353
0.00219743
0.0022782
0.00234708
0.00240522
0.00245352
0.00249296
0.00252449
0.00254874
0.00256645
0.00257842
0.002585
0.00258693
0.00258485
0.00257902
0.00257012
0.00255844
0.00254422
0.002528
0.00250988
0.00249018
0.00246923
0.00244707
0.00242402
0.00240024
0.0023759
0.00235122
0.00232631
0.0023013
0.00227631
0.00225138
0.00222659
0.00220194
0.00217747
0.0021533
0.00212944
0.00210598
0.00208291
0.00206025
0.00203809
0.00201628
0.00199507
0.00197426
0.00195394
0.00193413
0.00191475
0.00189587
0.00187747
0.00185942
0.00184186
0.0018249
0.00180816
0.00179168
0.0017757
0.00176021
0.00174523
0.00173062
0.00171625
0.00170278
0.00168829
0.00167701
0.00166127
0.00165401
0.00163596
0.00163138
0.00161157
0.00160561
0.00158921
0.00157516
0.00155669
0.00153939
0.00140467
0.00131256
0.295954
0.258543
0.223977
0.193783
0.168132
0.146543
0.128341
0.112906
0.0997169
0.0883593
0.0785077
0.0699067
0.0623546
0.0556904
0.0497845
0.044531
0.0398426
0.0356468
0.0318827
0.0284987
0.0254511
0.022702
0.020219
0.0179736
0.0159412
0.0141
0.012431
0.0109172
0.00954388
0.00829768
0.00716684
0.00614073
0.00520984
0.00436539
0.00359901
0.00290361
0.00227318
0.00170221
0.0011857
0.00102954
0.00126657
0.00155465
0.00181201
0.00204081
0.00224314
0.00242165
0.00257836
0.0027152
0.00283403
0.00293646
0.00302401
0.0030981
0.00315983
0.0032104
0.00325102
0.00328243
0.00330557
0.00332145
0.00333049
0.00333361
0.00333168
0.00332497
0.00331435
0.00330022
0.00328281
0.00326284
0.00324046
0.003216
0.00318994
0.00316231
0.0031335
0.00310377
0.00307325
0.00304234
0.0030111
0.00297968
0.00294832
0.00291696
0.00288577
0.00285471
0.00282383
0.00279331
0.00276317
0.00273351
0.00270431
0.00267564
0.00264756
0.0026199
0.00259299
0.00256655
0.00254072
0.00251554
0.00249084
0.00246677
0.00244329
0.00242021
0.00239772
0.00237606
0.00235451
0.00233338
0.00231267
0.00229292
0.00227334
0.00225481
0.00223572
0.00221884
0.00219925
0.00218538
0.00216391
0.00215526
0.00213076
0.0021252
0.00209864
0.00209074
0.00206904
0.00205005
0.00202528
0.0020046
0.00182193
0.00170552
0.296825
0.266785
0.237303
0.209963
0.185499
0.164022
0.145313
0.12904
0.11486
0.102458
0.0915656
0.081958
0.0734488
0.0658839
0.0591359
0.0530983
0.047682
0.0428116
0.038423
0.0344616
0.0308802
0.0276382
0.0247
0.0220345
0.0196144
0.0174156
0.0154168
0.013599
0.0119454
0.010441
0.00907248
0.00782762
0.00669556
0.00566624
0.00472994
0.00387835
0.00310443
0.00240176
0.00176449
0.00143659
0.00159194
0.00193364
0.00223948
0.00251183
0.00275306
0.00296626
0.0031538
0.00331792
0.00346074
0.00358416
0.00368992
0.0037797
0.00385475
0.00391649
0.00396633
0.00400514
0.004034
0.00405415
0.00406607
0.00407086
0.00406958
0.00406252
0.00405073
0.0040347
0.00401467
0.00399152
0.00396544
0.00393678
0.00390618
0.00387361
0.00383956
0.00380439
0.00376821
0.00373155
0.00369444
0.00365708
0.00361978
0.00358241
0.00354521
0.0035081
0.00347116
0.00343462
0.00339848
0.00336292
0.00332786
0.00329341
0.00325963
0.0032263
0.00319388
0.00316197
0.00313076
0.0031003
0.00307036
0.00304117
0.00301264
0.00298455
0.00295711
0.00293075
0.00290428
0.00287845
0.00285282
0.00282878
0.00280426
0.00278185
0.00275749
0.00273733
0.00271188
0.0026956
0.00266749
0.00265748
0.00262578
0.00261877
0.00258511
0.00257434
0.002547
0.00252232
0.00249046
0.00246673
0.00223939
0.00210808
0.292219
0.267773
0.24293
0.218885
0.196461
0.176043
0.157704
0.141354
0.126817
0.113897
0.102398
0.0921444
0.0829782
0.0747644
0.0673864
0.0607445
0.0547528
0.0493378
0.044436
0.0399922
0.0359587
0.0322935
0.02896
0.0259256
0.0231618
0.0206429
0.0183463
0.0162517
0.014341
0.0125979
0.0110081
0.00955813
0.00823624
0.00703137
0.00593278
0.00493113
0.00401853
0.00318783
0.00243246
0.00189054
0.00192014
0.0023109
0.00266139
0.00297412
0.00325158
0.0034973
0.00371393
0.00390395
0.00406972
0.00421336
0.00433682
0.00444196
0.00453021
0.00460313
0.00466232
0.00470878
0.0047437
0.00476854
0.00478382
0.00479079
0.00479072
0.00478391
0.00477157
0.00475427
0.00473228
0.0047066
0.00467746
0.00464525
0.00461072
0.00457384
0.00453515
0.00449513
0.00445385
0.00441198
0.00436954
0.00432674
0.00428399
0.00424107
0.0041983
0.00415554
0.00411292
0.00407072
0.00402891
0.00398775
0.0039471
0.00390712
0.00386786
0.00382906
0.00379129
0.00375405
0.00371755
0.0036819
0.00364678
0.00361249
0.0035789
0.00354575
0.00351328
0.00348213
0.00345058
0.00341992
0.00338908
0.00336062
0.0033307
0.00330434
0.00327399
0.00325059
0.00321825
0.00319965
0.00316375
0.00315218
0.00311243
0.00310308
0.00306197
0.00304697
0.00301348
0.00298214
0.00294217
0.00291504
0.00264891
0.00250682
0.284494
0.264212
0.243235
0.222349
0.202255
0.183398
0.166
0.150123
0.13573
0.122728
0.110999
0.10042
0.0908718
0.0822446
0.0744392
0.0673673
0.0609513
0.0551226
0.049821
0.0449936
0.0405939
0.0365805
0.0329168
0.0295704
0.0265122
0.0237162
0.0211591
0.0188199
0.0166801
0.0147225
0.012932
0.0112948
0.00979821
0.00843067
0.00718068
0.00603811
0.00499444
0.00404193
0.0031735
0.00238194
0.00224663
0.0026814
0.00307236
0.00342191
0.00373265
0.00400844
0.00425218
0.00446651
0.004654
0.00481694
0.00495744
0.00507752
0.00517875
0.00526279
0.00533143
0.00538575
0.00542706
0.00545698
0.0054761
0.00548581
0.00548753
0.0054816
0.00546939
0.00545149
0.00542821
0.00540072
0.00536921
0.00533414
0.00529638
0.00525584
0.00521316
0.00516893
0.00512316
0.00507669
0.00502949
0.00498179
0.00493411
0.00488612
0.00483825
0.00479028
0.00474237
0.00469487
0.00464774
0.00460128
0.00455531
0.00451005
0.00446552
0.00442142
0.00437844
0.00433598
0.00429427
0.00425347
0.00421317
0.00417374
0.00413501
0.0040967
0.00405903
0.00402293
0.00398603
0.00395031
0.00391385
0.00388075
0.0038448
0.00381432
0.00377704
0.00375036
0.00370988
0.00368892
0.00364387
0.00363028
0.00358158
0.00356854
0.00351966
0.00349865
0.00345833
0.00341921
0.00336989
0.0033383
0.00304074
0.00289186
0.275105
0.257914
0.240022
0.221907
0.204094
0.186979
0.170825
0.155776
0.141882
0.129133
0.117477
0.106842
0.0971496
0.0883173
0.0802669
0.0729255
0.0662259
0.0601074
0.0545154
0.049401
0.0447203
0.0404339
0.0365068
0.0329071
0.0296065
0.0265791
0.023802
0.0212539
0.0189162
0.0167715
0.0148045
0.0130009
0.0113479
0.00983352
0.00844583
0.00717414
0.00600949
0.00494377
0.00396951
0.00307933
0.00273917
0.00304155
0.00346839
0.00385088
0.00419159
0.00449469
0.00476325
0.00500005
0.00520779
0.00538887
0.00554556
0.00567999
0.0057938
0.0058888
0.00596686
0.00602916
0.00607711
0.00611246
0.00613587
0.00614884
0.00615291
0.00614848
0.00613704
0.00611922
0.00609537
0.00606676
0.0060336
0.00599638
0.00595609
0.00591259
0.0058666
0.00581882
0.00576918
0.00571873
0.00566736
0.00561531
0.00556323
0.00551067
0.00545816
0.00540542
0.00535262
0.00530019
0.00524805
0.0051966
0.00514557
0.00509524
0.00504562
0.00499636
0.00494827
0.00490066
0.00485377
0.00480779
0.00476224
0.00471757
0.00467356
0.00462991
0.00458677
0.00454544
0.00450284
0.00446174
0.00441913
0.00438105
0.00433829
0.00430344
0.0042581
0.004228
0.00417792
0.00415441
0.00409878
0.00408237
0.00402388
0.00400539
0.00394847
0.00391949
0.00387142
0.00382345
0.00376345
0.00372585
0.00340453
0.00325261
0.264955
0.25007
0.234593
0.218798
0.203044
0.187645
0.172845
0.158812
0.145644
0.133382
0.122026
0.111548
0.101904
0.0930411
0.0849023
0.0774311
0.070573
0.0642765
0.0584941
0.0531822
0.0483007
0.0438133
0.039687
0.0358918
0.0324004
0.0291879
0.026232
0.023512
0.0210092
0.0187068
0.0165893
0.0146424
0.0128534
0.0112101
0.0097006
0.00831371
0.00704024
0.00587188
0.00480095
0.00381997
0.00324967
0.00338926
0.00384707
0.00425824
0.00462527
0.00495258
0.00524337
0.00550048
0.00572669
0.00592451
0.00609629
0.00624422
0.00637005
0.00647562
0.0065629
0.00663317
0.00668786
0.00672888
0.00675692
0.00677358
0.0067805
0.00677812
0.00676806
0.00675094
0.00672717
0.00669812
0.00666399
0.00662531
0.00658318
0.00653739
0.00648875
0.00643807
0.00638521
0.00633136
0.0062764
0.00622054
0.00616457
0.00610792
0.00605123
0.00599413
0.00593682
0.0058798
0.00582296
0.00576679
0.00571091
0.00565569
0.00560113
0.0055468
0.00549367
0.00544091
0.0053888
0.00533755
0.00528665
0.00523655
0.00518703
0.00513778
0.00508882
0.0050419
0.00499314
0.00494628
0.00489688
0.0048534
0.00480293
0.00476337
0.00470873
0.00467497
0.00461378
0.00458737
0.00451978
0.00449951
0.00443058
0.00440462
0.00433949
0.00430061
0.00424375
0.00418614
0.00411414
0.00406899
0.00373103
0.00357934
0.254598
0.241456
0.22786
0.213956
0.199981
0.18616
0.172694
0.159742
0.147418
0.135789
0.124889
0.114724
0.105278
0.0965234
0.0884242
0.0809401
0.0740296
0.0676516
0.0617663
0.0563361
0.0513258
0.0467027
0.0424366
0.0384996
0.0348662
0.031513
0.0284183
0.0255626
0.0229276
0.020497
0.0182556
0.0161895
0.0142859
0.012533
0.0109189
0.00943214
0.0080635
0.00680458
0.00564763
0.00458518
0.00376916
0.00372391
0.00420752
0.00464283
0.0050322
0.00538031
0.00569041
0.00596535
0.00620796
0.00642081
0.00660626
0.00676659
0.00690359
0.00701912
0.00711521
0.0071932
0.00725458
0.00730132
0.00733418
0.00735481
0.00736494
0.00736505
0.00735685
0.00734096
0.00731784
0.00728895
0.00725446
0.00721494
0.0071716
0.00712417
0.00707349
0.00702052
0.006965
0.00690831
0.00685031
0.00679113
0.00673175
0.00667145
0.00661098
0.00654991
0.00648843
0.00642713
0.00636584
0.00630516
0.00624463
0.00618464
0.00612524
0.00606589
0.00600769
0.00594975
0.00589233
0.00583567
0.00577922
0.00572347
0.00566813
0.00561297
0.00555778
0.00550486
0.00544943
0.00539637
0.00533947
0.00529015
0.005231
0.00518641
0.00512119
0.00508353
0.00500976
0.00498003
0.00489931
0.00487399
0.0047943
0.00475889
0.00468548
0.00463526
0.00456851
0.00450101
0.00441591
0.0043622
0.00401373
0.00386495
0.244368
0.232565
0.22044
0.208064
0.195584
0.183155
0.17093
0.159042
0.147599
0.136678
0.126331
0.116584
0.107444
0.0989028
0.0909431
0.0835397
0.0766637
0.0702841
0.0643694
0.0588885
0.0538114
0.0491095
0.0447558
0.040725
0.0369937
0.0335399
0.0303436
0.0273861
0.02465
0.0221196
0.0197802
0.0176184
0.0156217
0.0137787
0.0120776
0.010507
0.00905756
0.00772104
0.00648969
0.00535614
0.00431384
0.00406991
0.00455022
0.00500495
0.00541247
0.0057777
0.00610391
0.00639392
0.00665056
0.0068764
0.00707385
0.00724517
0.0073922
0.00751681
0.00762102
0.00770625
0.00777401
0.00782631
0.00786396
0.00788866
0.00790219
0.00790504
0.00789905
0.00788477
0.00786274
0.00783446
0.00780011
0.00776028
0.00771625
0.0076677
0.00761552
0.00756077
0.00750313
0.00744407
0.00738349
0.00732143
0.00725903
0.00719546
0.00713156
0.00706685
0.00700148
0.00693615
0.00687063
0.0068056
0.00674055
0.00667588
0.00661168
0.00654731
0.00648398
0.00642078
0.00635792
0.00629566
0.00623345
0.00617176
0.00611029
0.00604889
0.00598705
0.00592768
0.00586507
0.00580541
0.00574033
0.00568479
0.00561605
0.00556614
0.00548921
0.00544745
0.00535994
0.00532645
0.0052319
0.00520036
0.00511003
0.00506352
0.00498198
0.00491974
0.00484217
0.00476534
0.00466644
0.00460406
0.00425008
0.00410632
0.23445
0.223699
0.212737
0.201593
0.190357
0.179128
0.168016
0.157125
0.146547
0.136356
0.12661
0.117345
0.108583
0.100331
0.0925859
0.0853356
0.0785626
0.0722457
0.0663615
0.0608856
0.0557932
0.0510602
0.0466631
0.0425796
0.0387883
0.0352694
0.0320041
0.028975
0.0261659
0.0235616
0.0211482
0.0189128
0.0168434
0.014929
0.0131581
0.0115194
0.0100036
0.00860261
0.00730883
0.00611502
0.0050147
0.00456181
0.00487677
0.00534617
0.00576753
0.00614605
0.00648499
0.00678708
0.00705512
0.00729167
0.00749914
0.00767977
0.00783541
0.00796792
0.0080793
0.00817102
0.00824458
0.00830203
0.00834422
0.00837286
0.00838975
0.00839541
0.00839174
0.00837928
0.00835858
0.00833122
0.00829735
0.00825757
0.00821323
0.00816399
0.00811071
0.0080546
0.00799523
0.00793418
0.00787139
0.0078068
0.0077417
0.00767516
0.00760809
0.00753999
0.00747097
0.00740179
0.00733219
0.00726294
0.00719345
0.00712413
0.00705515
0.00698574
0.00691719
0.00684863
0.00678018
0.00671212
0.00664394
0.00657608
0.00650817
0.00644024
0.00637138
0.00630521
0.00623497
0.0061684
0.00609461
0.00603258
0.00595356
0.00589821
0.00580876
0.00576283
0.00566089
0.00562335
0.00551486
0.00547623
0.00537586
0.00531733
0.00522804
0.0051541
0.00506516
0.0049804
0.00486763
0.0047975
0.00444202
0.00430488
0.224934
0.215029
0.205002
0.194861
0.184655
0.174449
0.164316
0.154332
0.14457
0.135096
0.125962
0.117211
0.108871
0.100959
0.0934823
0.0864391
0.0798219
0.0736182
0.0678122
0.0623859
0.0573201
0.0525951
0.0481911
0.0440888
0.0402693
0.0367149
0.0334083
0.0303336
0.0274756
0.0248201
0.0223538
0.0200646
0.0179409
0.015972
0.0141474
0.0124553
0.0108868
0.00943403
0.00808947
0.00684613
0.00569757
0.00504128
0.00518937
0.00566885
0.0060998
0.00648778
0.006836
0.00714708
0.00742374
0.00766855
0.00788385
0.00807188
0.00823447
0.00837344
0.00849077
0.00858797
0.00866651
0.00872844
0.00877466
0.00880684
0.00882682
0.00883512
0.0088337
0.00882304
0.00880371
0.00877736
0.00874412
0.00870459
0.00866016
0.00861049
0.00855638
0.00849917
0.00843835
0.00837557
0.00831084
0.00824396
0.00817636
0.00810707
0.00803701
0.00796571
0.0078932
0.00782031
0.00774674
0.00767334
0.00759948
0.00752552
0.00745174
0.00737727
0.00730344
0.00722941
0.00715528
0.00708128
0.00700698
0.00693278
0.00685822
0.00678359
0.00670749
0.00663429
0.0065562
0.00648261
0.00639982
0.00633128
0.00624163
0.00618095
0.00607866
0.00602871
0.00591234
0.00587068
0.00574885
0.00570276
0.00559342
0.00552288
0.00542645
0.00534219
0.00524186
0.00515127
0.00502529
0.00494917
0.00459536
0.00446603
0.215849
0.20664
0.19738
0.188065
0.178719
0.169382
0.1601
0.150927
0.141917
0.133123
0.124592
0.116362
0.108466
0.100925
0.0937532
0.0869563
0.0805348
0.0744835
0.0687935
0.0634527
0.0584472
0.0537618
0.0493805
0.0452871
0.0414653
0.0378996
0.0345746
0.0314757
0.0285889
0.0259011
0.0233999
0.0210736
0.0189114
0.0169031
0.0150385
0.0133063
0.0116975
0.0102044
0.00881984
0.007537
0.00634953
0.00550307
0.00549027
0.00597562
0.00641217
0.00680598
0.00716014
0.00747713
0.00775964
0.00801016
0.00823102
0.00842439
0.0085921
0.00873592
0.00885779
0.00895923
0.00904169
0.00910721
0.0091567
0.00919182
0.00921439
0.00922492
0.00922543
0.00921633
0.00919823
0.00917277
0.00914011
0.00910083
0.00905636
0.00900635
0.00895151
0.00889332
0.00883122
0.00876683
0.00870029
0.00863126
0.00856129
0.00848936
0.00841643
0.00834205
0.00826615
0.00818965
0.0081122
0.0080347
0.00795652
0.00787795
0.0077994
0.00771987
0.00764074
0.00756124
0.00748142
0.00740143
0.00732099
0.00724043
0.00715919
0.00707787
0.00699454
0.00691435
0.00682842
0.00674797
0.00665626
0.00658148
0.00648134
0.00641572
0.00630092
0.00624737
0.00611725
0.00607177
0.00593783
0.00588454
0.00576764
0.00568607
0.00558336
0.00549093
0.00537976
0.00528582
0.00514785
0.00506795
0.0047183
0.00459761
0.207184
0.198564
0.189947
0.181322
0.172701
0.164104
0.155561
0.147106
0.138778
0.130618
0.122663
0.114947
0.107501
0.100347
0.0935031
0.0869804
0.0807845
0.0749162
0.0693722
0.064146
0.0592284
0.0546086
0.0502742
0.0462123
0.0424094
0.0388522
0.0355273
0.0324215
0.0295224
0.0268178
0.0242961
0.0219466
0.019759
0.0177236
0.0158309
0.0140697
0.0124311
0.0109077
0.00949261
0.00817919
0.00696123
0.00594402
0.00578113
0.00626877
0.00670743
0.0071038
0.00746084
0.00778091
0.00806661
0.0083204
0.00854456
0.00874121
0.00891215
0.00905913
0.00918399
0.00928831
0.00937349
0.00944153
0.00949338
0.00953062
0.00955508
0.00956725
0.00956917
0.0095612
0.00954396
0.00951909
0.00948678
0.00944759
0.00940293
0.00935251
0.00929692
0.00923773
0.00917435
0.00910836
0.00904005
0.00896892
0.0088966
0.00882211
0.00874635
0.00866895
0.00858976
0.00850972
0.00842847
0.00834694
0.00826453
0.00818142
0.00809818
0.00801371
0.00792935
0.00784449
0.00775911
0.00767326
0.00758683
0.0075001
0.00741239
0.00732464
0.00723435
0.0071475
0.0070541
0.00696728
0.00686714
0.00678671
0.00667673
0.00660685
0.00648046
0.00642399
0.00628147
0.0062328
0.00608843
0.00602883
0.00590587
0.00581505
0.00570697
0.00560898
0.00548785
0.00539303
0.00524464
0.00516308
0.00481939
0.00470782
0.198911
0.190799
0.182731
0.174694
0.16669
0.15873
0.150828
0.143008
0.135295
0.127717
0.120304
0.113083
0.106081
0.0993197
0.0928173
0.0865874
0.0806393
0.0749779
0.0696045
0.0645169
0.0597105
0.0551782
0.0509113
0.0469002
0.0431341
0.0396019
0.0362924
0.0331942
0.030296
0.0275871
0.0250569
0.0226953
0.0204927
0.0184402
0.0165289
0.0147479
0.0130882
0.0115428
0.010105
0.00876851
0.00752729
0.00637599
0.00607697
0.0065498
0.00698777
0.00738394
0.00774127
0.00806193
0.00834848
0.00860334
0.00882874
0.00902673
0.00919911
0.00934757
0.00947391
0.00957972
0.00966636
0.00973577
0.00978893
0.00982738
0.0098529
0.00986597
0.00986865
0.00986123
0.00984433
0.00981959
0.00978725
0.00974784
0.00970273
0.0096517
0.00959519
0.00953485
0.00947012
0.00940245
0.00933231
0.00925906
0.00918438
0.00910732
0.00902875
0.0089484
0.00886599
0.0087825
0.00869757
0.00861214
0.00852565
0.00843817
0.00835041
0.00826121
0.00817187
0.00808189
0.00799126
0.00789988
0.00780784
0.00771537
0.00762165
0.00752797
0.00743132
0.00733843
0.00723827
0.00714583
0.00703813
0.00695291
0.00683418
0.00676093
0.00662437
0.00656583
0.00641268
0.0063617
0.00620878
0.00614414
0.00601653
0.00591863
0.00580598
0.005705
0.0055749
0.00548132
0.005324
0.00524251
0.00490592
0.00480351
0.190991
0.183327
0.175738
0.168209
0.160739
0.15333
0.145989
0.13873
0.131567
0.124521
0.117612
0.110861
0.10429
0.0979179
0.091762
0.0858363
0.0801517
0.0747158
0.069533
0.0646047
0.0599296
0.0555043
0.0513235
0.0473802
0.0436668
0.0401743
0.0368937
0.0338153
0.0309296
0.0282269
0.0256978
0.0233333
0.0211244
0.0190628
0.0171405
0.0153469
0.013673
0.0121123
0.0106582
0.00930466
0.008046
0.00687743
0.00645565
0.00681932
0.00725444
0.00764831
0.00800387
0.00832314
0.00860863
0.00886272
0.00908759
0.00928526
0.00945749
0.00960595
0.00973238
0.00983837
0.00992526
0.00999492
0.0100484
0.0100871
0.0101128
0.010126
0.0101287
0.0101212
0.010104
0.0100789
0.010046
0.010006
0.00996007
0.00990813
0.00985047
0.00978878
0.00972254
0.00965306
0.00958099
0.00950556
0.00942847
0.00934886
0.00926751
0.00918427
0.00909875
0.00901196
0.00892353
0.00883438
0.00874406
0.00865247
0.00856049
0.00846692
0.00837299
0.00827831
0.00818292
0.00808654
0.00798946
0.00789189
0.00779284
0.00769397
0.0075918
0.00749372
0.00738775
0.00729066
0.00717655
0.00708753
0.00696144
0.00688576
0.00674072
0.00668095
0.0065191
0.00646671
0.006307
0.00623873
0.00610753
0.00600474
0.00588805
0.00578628
0.00564803
0.00555726
0.00539219
0.00531194
0.00498298
0.00488938
0.183384
0.176121
0.168955
0.161874
0.154871
0.147946
0.141099
0.134337
0.127668
0.121104
0.11466
0.10835
0.102192
0.0961993
0.0903884
0.084772
0.0793611
0.0741645
0.0691885
0.0644368
0.0599109
0.0556103
0.0515324
0.0476732
0.0440273
0.0405883
0.0373492
0.0343022
0.0314393
0.0287524
0.0262332
0.0238736
0.0216656
0.0196018
0.0176747
0.0158744
0.0141921
0.0126213
0.0111559
0.00979017
0.00851865
0.00733663
0.00680943
0.00707692
0.00750771
0.00789783
0.00825018
0.00856662
0.00884964
0.00910158
0.00932457
0.0095206
0.00969142
0.00983867
0.00996403
0.0100691
0.0101552
0.0102241
0.010277
0.0103151
0.0103402
0.0103527
0.0103547
0.0103465
0.0103285
0.0103024
0.0102685
0.0102274
0.0101803
0.0101272
0.0100681
0.0100048
0.0099369
0.00986548
0.00979137
0.00971372
0.00963421
0.00955206
0.009468
0.00938196
0.00929351
0.00920361
0.00911194
0.00901935
0.00892552
0.00883021
0.00873442
0.00863694
0.00853896
0.00844013
0.00834061
0.00823991
0.00813849
0.0080366
0.00793307
0.00782989
0.00772315
0.00762085
0.00751015
0.0074094
0.00729012
0.00719826
0.00706627
0.00698901
0.00683717
0.00677687
0.00660811
0.00655506
0.00639003
0.00631937
0.00618522
0.00607943
0.00595887
0.00585801
0.00571211
0.00562517
0.00545315
0.00537482
0.00505357
0.00496814
0.176051
0.169153
0.162368
0.155686
0.149098
0.142601
0.136192
0.129873
0.123647
0.117521
0.111504
0.105605
0.0998366
0.0942099
0.0887371
0.0834295
0.0782973
0.0733491
0.068592
0.0640313
0.0596702
0.0555102
0.0515511
0.0477912
0.0442273
0.0408553
0.0376701
0.0346658
0.0318361
0.0291742
0.0266732
0.0243261
0.022126
0.0200659
0.0181396
0.016338
0.0146519
0.0130755
0.011603
0.010229
0.00894832
0.00775627
0.00713844
0.00732155
0.00774715
0.00813264
0.00848088
0.00879358
0.00907321
0.00932208
0.00954229
0.00973578
0.00990428
0.0100494
0.0101729
0.0102762
0.0103608
0.0104282
0.0104797
0.0105164
0.0105403
0.0105516
0.0105523
0.0105427
0.0105234
0.0104958
0.0104605
0.010418
0.0103694
0.0103147
0.010254
0.010189
0.0101192
0.0100458
0.00996953
0.00988966
0.00980774
0.00972313
0.00963648
0.00954781
0.00945664
0.0093639
0.0092693
0.00917363
0.0090767
0.00897812
0.00887902
0.00877817
0.00867674
0.00857439
0.00847142
0.00836714
0.00826216
0.00815676
0.00804962
0.007943
0.00783264
0.00772705
0.00761266
0.00750914
0.00738586
0.00729196
0.00715539
0.00707715
0.00692
0.00685959
0.00668541
0.00663217
0.00646288
0.00639077
0.00625389
0.00614662
0.00602202
0.00592328
0.00576995
0.00568745
0.00550898
0.00543291
0.00511918
0.00504114
0.168956
0.162394
0.155957
0.149636
0.143421
0.137307
0.13129
0.125369
0.119542
0.113814
0.108188
0.102669
0.0972667
0.091988
0.0868423
0.0818383
0.0769848
0.0722897
0.0677599
0.063401
0.0592174
0.0552118
0.0513859
0.0477395
0.0442717
0.0409799
0.0378611
0.034911
0.032125
0.0294977
0.0270235
0.0246967
0.0225112
0.0204611
0.018541
0.0167429
0.0150578
0.0134798
0.012004
0.0106252
0.00933844
0.00813929
0.00744327
0.00755206
0.00797205
0.00835247
0.00869614
0.00900461
0.00928036
0.00952566
0.00974256
0.00993297
0.0100986
0.0102412
0.0103622
0.0104632
0.0105457
0.0106111
0.0106608
0.0106957
0.0107178
0.0107274
0.0107264
0.0107151
0.010694
0.0106647
0.0106276
0.0105834
0.010533
0.0104766
0.0104142
0.0103472
0.0102755
0.0102
0.0101217
0.0100396
0.00995539
0.00986845
0.00977938
0.00968829
0.00959466
0.00949939
0.00940222
0.00930386
0.00920426
0.0091029
0.009001
0.00889734
0.00879307
0.00868782
0.00858207
0.0084749
0.00836708
0.00825892
0.00814895
0.00803965
0.0079265
0.00781838
0.00770118
0.00759559
0.00746924
0.00737384
0.00723376
0.00715485
0.0069936
0.00693317
0.00675476
0.00670148
0.00652865
0.00645572
0.00631604
0.00620843
0.00607946
0.00598367
0.005823
0.00574525
0.00556067
0.00548701
0.0051805
0.00510904
0.162066
0.155818
0.149703
0.143712
0.137837
0.132071
0.126408
0.120846
0.115381
0.110014
0.104745
0.0995785
0.0945174
0.0895673
0.0847344
0.0800252
0.0754464
0.0710047
0.0667062
0.0625564
0.0585598
0.0547201
0.0510396
0.0475198
0.044161
0.0409623
0.0379221
0.0350379
0.0323062
0.0297234
0.0272851
0.0249866
0.022823
0.0207895
0.0188813
0.0170919
0.0154123
0.0138371
0.0123617
0.0109814
0.00969165
0.00848814
0.00772464
0.00776776
0.00818195
0.00855711
0.00889602
0.00920007
0.00947172
0.00971323
0.0099266
0.0101137
0.0102763
0.0104159
0.0105343
0.0106328
0.0107129
0.0107761
0.0108236
0.0108565
0.0108765
0.0108842
0.0108813
0.010868
0.010845
0.0108136
0.0107747
0.0107286
0.0106763
0.0106181
0.0105538
0.010485
0.0104114
0.0103339
0.0102535
0.0101693
0.0100829
0.00999383
0.00990256
0.00980928
0.00971349
0.009616
0.00951664
0.00941598
0.00931411
0.00921042
0.0091062
0.00900024
0.00889368
0.00878607
0.00867809
0.00856864
0.00845856
0.00834823
0.00823605
0.00812465
0.00800934
0.00789926
0.00777988
0.00767266
0.00754395
0.00744733
0.00730455
0.00722503
0.0070606
0.00700002
0.00681828
0.00676488
0.00658902
0.00651565
0.00637297
0.00626589
0.00613215
0.0060399
0.00587192
0.00579911
0.00560868
0.00553752
0.00523792
0.00517223
0.155353
0.1494
0.143586
0.137902
0.13234
0.126892
0.121553
0.116317
0.111182
0.106145
0.101205
0.0963625
0.091619
0.0869775
0.0824414
0.0780153
0.0737039
0.0695123
0.0654456
0.0615084
0.0577053
0.0540397
0.0505147
0.0471325
0.0438943
0.0408005
0.0378506
0.0350434
0.032377
0.0298487
0.0274556
0.025194
0.0230601
0.0210502
0.0191601
0.0173849
0.0157159
0.0141479
0.0126769
0.0112987
0.0100091
0.00880408
0.0079832
0.00796872
0.00837695
0.00874677
0.00908084
0.0093804
0.00964791
0.00988559
0.0100954
0.0102792
0.0104386
0.0105753
0.0106909
0.0107869
0.0108646
0.0109254
0.0109707
0.0110015
0.0110194
0.0110251
0.0110201
0.0110048
0.0109798
0.0109465
0.0109055
0.0108576
0.0108035
0.0107435
0.0106774
0.0106067
0.0105313
0.0104519
0.0103695
0.0102835
0.0101951
0.010104
0.0100108
0.00991556
0.00981788
0.00971849
0.00961725
0.00951463
0.00941087
0.00930523
0.0091991
0.00909123
0.00898281
0.00887327
0.00876349
0.00865219
0.0085403
0.00842821
0.00831427
0.00820117
0.00808413
0.00797243
0.00785133
0.00774273
0.00761215
0.00751439
0.00736952
0.00728925
0.00712238
0.00706136
0.00687704
0.0068233
0.00664481
0.00657123
0.00642531
0.00631948
0.00618061
0.00609232
0.00591713
0.0058493
0.00565334
0.00558469
0.00529167
0.005231
0.148788
0.143117
0.137587