/*--------------------------------*- C++ -*----------------------------------*\
| =========                 |                                                 |
| \\      /  F ield         | OpenFOAM: The Open Source CFD Toolbox           |
|  \\    /   O peration     | Version:  2412                                  |
|   \\  /    A nd           | Website:  www.openfoam.com                      |
|    \\/     M anipulation  |                                                 |
\*---------------------------------------------------------------------------*/
FoamFile
{
    version     2.0;
    format      ascii;
    arch        "LSB;label=32;scalar=64";
    class       volScalarField;
    location    "0.635";
    object      p;
}
// * * * * * * * * * * * * * * * * * * * * * * * * * * * * * * * * * * * * * //

dimensions      [0 2 -2 0 0 0 0];

internalField   nonuniform List<scalar> 
12600
(
1.00467
-83.9021
-62.5623
-11.1653
33.0035
66.8647
93.8253
116.228
135.369
152
166.583
179.518
191.076
201.452
210.8
219.229
226.886
233.836
240.133
245.799
251.134
255.948
259.819
264.158
267.816
270.811
273.798
276.542
279.044
281.171
283.319
285.156
286.801
288.346
289.76
291.027
292.183
293.248
294.221
295.108
295.92
296.668
297.355
297.987
298.57
299.107
299.602
300.056
300.473
300.854
301.202
301.522
301.816
302.09
302.35
302.599
302.838
303.064
303.259
303.39
303.398
303.189
302.652
301.717
300.401
298.876
297.426
296.384
295.922
296.057
296.636
297.688
298.814
299.835
300.187
299.812
298.077
294.68
290.312
286.788
286.739
293.821
303.036
321.391
295.035
280.43
239.017
131.997
179.804
205.862
183.094
207.719
196.875
194.181
183.614
152.642
109.577
80.6904
93.0593
153.327
240.024
340.02
413.467
470.581
499.145
526.426
524.002
536.36
534.691
538.916
533.198
524.644
508.84
509.314
517.928
527.389
533.27
532.582
535.516
533.479
61.0563
-16.9087
-27.1589
-1.40843
31.8006
62.8983
89.547
112.193
131.678
148.662
163.639
176.927
188.792
199.425
209.042
217.693
225.523
232.622
239.059
244.885
250.323
255.152
259.273
263.607
267.245
270.322
273.418
276.205
278.694
280.877
283.056
284.905
286.581
288.152
289.584
290.868
292.042
293.122
294.108
295.006
295.829
296.586
297.281
297.921
298.511
299.054
299.554
300.014
300.435
300.82
301.172
301.495
301.792
302.069
302.331
302.582
302.822
303.048
303.244
303.378
303.389
303.186
302.663
301.745
300.446
298.933
297.477
296.424
295.938
296.054
296.613
297.65
298.768
299.802
300.181
299.85
298.179
294.847
290.5
286.902
286.665
293.558
302.499
321.305
295.728
280.842
240.762
133.305
179.084
205.784
183.08
207.486
197.011
194.328
184.174
153.701
110.647
81.0649
92.3375
151.52
237.678
337.815
411.806
469.5
498.449
526.1
523.877
536.225
534.649
538.922
533.356
524.93
509.03
509.23
517.726
527.216
533.208
532.556
535.503
533.496
87.2806
29.9768
4.84824
12.7572
36.6795
63.6322
88.6058
110.677
130.032
147.053
162.096
175.476
187.445
198.196
207.886
216.631
224.582
231.762
238.258
244.183
249.683
254.504
258.857
263.127
266.815
269.984
273.159
275.979
278.448
280.683
282.865
284.736
286.438
288.022
289.467
290.765
291.951
293.041
294.035
294.942
295.772
296.535
297.235
297.88
298.473
299.02
299.524
299.986
300.411
300.799
301.153
301.478
301.778
302.057
302.32
302.571
302.812
303.038
303.234
303.368
303.382
303.186
302.672
301.764
300.475
298.966
297.512
296.447
295.95
296.051
296.597
297.628
298.744
299.781
300.177
299.872
298.239
294.948
290.62
286.982
286.613
293.412
302.191
321.251
296.083
281.128
241.68
134.025
178.669
205.754
183.07
207.353
197.087
194.407
184.438
154.225
111.205
81.2742
91.9326
150.834
236.741
336.907
411.094
469.028
498.16
525.948
523.817
536.163
534.626
538.928
533.417
525.046
509.114
509.191
517.65
527.148
533.181
532.545
535.497
533.504
96.0587
60.2191
34.8691
31.7375
45.4923
66.5569
88.7917
109.683
128.564
145.435
160.483
173.935
186.003
196.861
206.668
215.534
223.575
230.835
237.447
243.45
249.014
253.918
258.375
262.539
266.379
269.579
272.823
275.713
278.158
280.451
282.63
284.534
286.265
287.863
289.323
290.638
291.839
292.94
293.944
294.86
295.699
296.47
297.177
297.827
298.426
298.978
299.486
299.952
300.38
300.771
301.129
301.457
301.759
302.04
302.305
302.557
302.799
303.025
303.223
303.358
303.376
303.187
302.683
301.789
300.512
299.01
297.554
296.477
295.961
296.045
296.576
297.596
298.709
299.756
300.174
299.904
298.324
295.083
290.768
287.069
286.541
293.177
301.765
321.196
296.651
281.506
242.97
134.798
178.05
205.717
183.056
207.169
197.203
194.536
184.923
155.083
112.033
81.5008
91.257
149.173
234.68
335.046
409.716
468.14
497.588
525.69
523.715
536.053
534.594
538.936
533.562
525.286
509.264
509.111
517.475
527.004
533.131
532.524
535.487
533.519
103.682
83.5028
62.9184
53.5494
58.1087
72.3519
90.7515
109.74
127.744
144.244
159.167
172.609
184.721
195.649
205.534
214.489
222.624
229.981
236.637
242.726
248.332
253.335
257.888
261.977
266.003
269.264
272.414
275.375
277.894
280.24
282.393
284.335
286.093
287.703
289.177
290.509
291.724
292.836
293.851
294.777
295.625
296.403
297.117
297.773
298.377
298.934
299.446
299.917
300.348
300.743
301.104
301.435
301.74
302.023
302.289
302.543
302.785
303.013
303.211
303.348
303.37
303.189
302.696
301.816
300.551
299.055
297.595
296.505
295.971
296.038
296.554
297.565
298.675
299.73
300.172
299.938
298.411
295.222
290.921
287.155
286.459
292.943
301.329
321.127
297.162
281.909
244.007
135.31
177.382
205.708
183.042
206.985
197.319
194.655
185.341
155.856
112.773
81.6645
90.5579
148.019
233.107
333.546
408.571
467.398
497.131
525.464
523.625
535.957
534.563
538.946
533.665
525.475
509.387
509.042
517.344
526.893
533.091
532.507
535.479
533.531
112.601
101.507
86.1164
74.9211
73.5028
81.3473
94.984
111.142
127.691
143.507
158.135
171.477
183.581
194.544
204.483
213.505
221.713
229.146
235.88
242.033
247.658
252.752
257.4
261.46
265.541
268.925
272.028
275.042
277.523
279.991
282.174
284.121
285.914
287.537
289.025
290.375
291.604
292.728
293.753
294.69
295.546
296.332
297.053
297.716
298.326
298.888
299.405
299.879
300.315
300.713
301.078
301.412
301.719
302.004
302.273
302.528
302.771
302.999
303.198
303.339
303.365
303.192
302.712
301.846
300.593
299.101
297.637
296.533
295.981
296.029
296.528
297.529
298.638
299.704
300.171
299.978
298.506
295.37
291.079
287.237
286.36
292.666
300.844
321.028
297.715
282.358
244.866
135.508
176.566
205.653
183.027
206.784
197.448
194.793
185.84
156.701
113.515
81.7332
89.6807
146.15
230.974
331.637
407.16
466.497
496.566
525.206
523.52
535.844
534.53
538.958
533.811
525.712
509.528
508.95
517.166
526.75
533.043
532.486
535.47
533.547
121.222
114.732
103.847
93.8924
89.8349
92.8462
101.67
114.263
128.635
143.296
157.381
170.501
182.541
193.516
203.497
212.577
220.845
228.347
235.154
241.368
247.023
252.182
256.9
261.001
265.056
268.56
271.661
274.708
277.267
279.708
281.902
283.937
285.722
287.368
288.869
290.236
291.48
292.615
293.652
294.598
295.464
296.258
296.986
297.656
298.272
298.839
299.361
299.84
300.279
300.682
301.05
301.387
301.697
301.985
302.255
302.512
302.756
302.985
303.186
303.329
303.36
303.197
302.73
301.878
300.637
299.15
297.68
296.561
295.988
296.018
296.5
297.491
298.598
299.676
300.171
300.02
298.609
295.527
291.242
287.311
286.24
292.35
300.3
320.881
298.315
282.87
245.402
135.391
175.554
205.646
183.012
206.566
197.585
194.932
186.349
157.533
114.177
81.6628
88.6419
144.651
228.875
329.703
405.711
465.576
496.004
524.935
523.415
535.727
534.494
538.97
533.947
525.942
509.663
508.852
516.994
526.61
532.995
532.466
535.46
533.563
129.047
125.056
117.656
109.941
105.355
105.466
110.398
119.335
130.946
143.86
156.998
169.679
181.559
192.51
202.527
211.667
220
227.572
234.452
240.727
246.421
251.635
256.403
260.577
264.59
268.178
271.325
274.373
276.983
279.462
281.658
283.659
285.567
287.2
288.709
290.093
291.351
292.498
293.546
294.503
295.378
296.181
296.916
297.592
298.215
298.787
299.314
299.798
300.242
300.649
301.02
301.361
301.674
301.964
302.237
302.495
302.74
302.97
303.172
303.319
303.356
303.203
302.75
301.913
300.684
299.201
297.724
296.587
295.993
296.003
296.468
297.45
298.557
299.647
300.172
300.066
298.72
295.691
291.406
287.372
286.09
291.983
299.68
320.671
299.044
283.462
245.595
135.07
174.267
205.63
182.999
206.326
197.731
195.074
186.89
158.342
114.714
81.4043
87.392
142.3
226.412
327.505
404.081
464.553
495.383
524.644
523.299
535.598
534.455
538.982
534.103
526.192
509.802
508.734
516.795
526.453
532.943
532.443
535.451
533.581
136.391
134.021
128.975
123.215
119.082
117.912
120.269
126.104
134.834
145.537
157.234
169.114
180.628
191.467
201.5
210.707
219.122
226.781
233.748
240.092
245.843
251.111
255.913
260.178
264.166
267.8
271.009
274.049
276.709
279.199
281.433
283.459
285.289
287.039
288.557
289.946
291.219
292.378
293.437
294.404
295.289
296.1
296.843
297.526
298.155
298.733
299.265
299.754
300.203
300.614
300.989
301.334
301.65
301.943
302.217
302.477
302.724
302.955
303.158
303.308
303.353
303.21
302.772
301.951
300.734
299.254
297.768
296.611
295.996
295.985
296.433
297.405
298.512
299.617
300.174
300.117
298.838
295.862
291.567
287.413
285.904
291.553
298.965
320.388
299.905
284.133
245.468
134.724
172.608
205.621
182.989
206.063
197.883
195.238
187.442
159.08
115.066
80.9099
85.8984
140.268
223.781
325.13
402.309
463.446
494.727
524.331
523.173
535.458
534.41
538.992
534.262
526.448
509.938
508.601
516.584
526.287
532.888
532.419
535.44
533.6
143.418
142.133
138.552
134.217
130.872
129.419
130.343
133.924
140.122
148.508
158.396
169.055
179.872
190.397
200.355
209.612
218.125
225.9
232.981
239.421
245.256
250.59
255.434
259.786
263.78
267.438
270.706
273.744
276.444
278.946
281.204
283.252
285.126
286.808
288.388
289.81
291.083
292.257
293.325
294.303
295.197
296.016
296.767
297.457
298.092
298.676
299.214
299.708
300.162
300.577
300.957
301.305
301.624
301.92
302.197
302.458
302.706
302.938
303.144
303.298
303.349
303.218
302.796
301.992
300.787
299.308
297.811
296.636
295.994
295.962
296.393
297.356
298.465
299.587
300.178
300.172
298.962
296.038
291.72
287.426
285.671
291.047
298.136
320.04
300.861
284.851
245.066
134.486
170.463
205.621
182.984
205.772
198.04
195.377
187.996
159.688
115.165
80.1371
84.1281
137.545
220.833
322.493
400.341
462.227
494.015
523.993
523.034
535.303
534.357
539
534.432
526.713
510.074
508.447
516.35
526.105
532.828
532.392
535.43
533.62
150.067
149.494
146.877
143.582
141.011
139.713
139.964
142.102
146.357
152.66
160.643
169.787
179.549
189.452
199.129
208.332
216.92
224.829
232.061
238.639
244.598
250.028
254.941
259.38
263.413
267.092
270.414
273.458
276.192
278.704
280.983
283.05
284.932
286.656
288.201
289.64
290.966
292.128
293.211
294.199
295.102
295.93
296.688
297.385
298.027
298.617
299.161
299.66
300.119
300.539
300.923
301.275
301.598
301.896
302.175
302.438
302.687
302.921
303.128
303.286
303.345
303.227
302.822
302.036
300.842
299.364
297.854
296.642
295.987
295.933
296.347
297.302
298.415
299.555
300.184
300.232
299.094
296.216
291.86
287.403
285.382
290.45
297.175
319.642
301.996
285.571
244.402
134.357
167.69
205.631
182.989
205.455
198.202
195.519
188.531
160.102
114.948
79.0489
82.0702
134.797
217.594
319.593
398.165
460.884
493.249
523.626
522.88
535.131
534.294
539.004
534.604
526.983
510.209
508.275
516.096
525.907
532.764
532.363
535.419
533.642
156.314
156.235
154.332
151.804
149.845
148.814
148.825
150.135
153.039
157.664
163.899
171.448
179.918
188.895
198.004
206.94
215.481
223.483
230.878
237.637
243.773
249.349
254.377
258.924
263.03
266.751
270.124
273.189
275.954
278.481
280.775
282.858
284.752
286.485
288.058
289.485
290.792
292.041
293.102
294.094
295.006
295.842
296.607
297.311
297.959
298.556
299.105
299.61
300.073
300.499
300.887
301.243
301.57
301.872
302.153
302.417
302.667
302.902
303.112
303.274
303.341
303.237
302.849
302.081
300.899
299.42
297.895
296.686
295.974
295.898
296.295
297.243
298.361
299.523
300.19
300.298
299.232
296.391
291.978
287.335
285.029
289.741
296.065
319.2
303.129
286.265
243.429
134.171
164.126
205.65
183.009
205.114
198.368
195.644
189.018
160.243
114.367
77.6091
79.691
131.535
214.001
316.38
395.747
459.394
492.417
523.227
522.708
534.937
534.217
539.001
534.779
527.257
510.342
508.077
515.817
525.69
532.693
532.331
535.407
533.665
162.214
162.496
161.134
159.165
157.656
156.888
156.869
157.742
159.767
163.147
167.927
173.991
181.101
188.957
197.24
205.649
213.928
221.879
229.37
236.31
242.661
248.44
253.648
258.348
262.574
266.376
269.816
272.924
275.726
278.272
280.584
282.683
284.585
286.327
287.91
289.353
290.667
291.844
292.997
293.996
294.909
295.753
296.525
297.236
297.89
298.492
299.047
299.558
300.027
300.457
300.85
301.211
301.541
301.846
302.129
302.395
302.646
302.882
303.093
303.26
303.336
303.246
302.877
302.129
300.959
299.477
297.933
296.683
295.953
295.854
296.234
297.178
298.304
299.489
300.206
300.368
299.376
296.56
292.068
287.211
284.597
288.897
294.786
318.687
304.252
286.943
242.031
133.719
159.592
205.67
183.056
204.757
198.542
195.751
189.414
160.027
113.386
75.7856
76.9744
127.986
210.02
312.824
393.057
457.738
491.512
522.79
522.517
534.718
534.121
538.986
534.952
527.531
510.473
507.856
515.513
525.451
532.615
532.295
535.394
533.69
167.81
168.345
167.388
165.838
164.668
164.127
164.157
164.81
166.286
168.794
172.446
177.24
183.069
189.749
197.047
204.71
212.492
220.179
227.602
234.628
241.169
247.18
252.628
257.544
261.954
265.897
269.444
272.628
275.487
278.069
280.404
282.52
284.437
286.185
287.773
289.224
290.549
291.761
292.85
293.886
294.822
295.662
296.443
297.159
297.819
298.427
298.987
299.503
299.978
300.414
300.812
301.177
301.512
301.82
302.105
302.372
302.624
302.86
303.073
303.244
303.329
303.254
302.905
302.178
301.02
299.534
297.969
296.69
295.922
295.799
296.165
297.105
298.243
299.454
300.212
300.445
299.522
296.717
292.12
287.023
284.083
287.895
293.319
318.074
305.279
287.643
240.052
132.591
153.874
205.673
183.143
204.401
198.734
195.832
189.666
159.379
111.972
73.5465
73.8793
123.937
205.594
308.876
390.058
455.889
490.519
522.311
522.303
534.47
534.001
538.957
535.119
527.803
510.604
507.614
515.18
525.187
532.528
532.255
535.379
533.716
173.12
173.823
173.176
171.954
171.051
170.689
170.783
171.329
172.469
174.384
177.202
180.978
185.69
191.252
197.518
204.305
211.406
218.622
225.774
232.711
239.318
245.505
251.199
256.38
261.044
265.205
268.924
272.238
275.195
277.842
280.221
282.365
284.3
286.058
287.656
289.107
290.436
291.649
292.763
293.771
294.709
295.59
296.36
297.081
297.748
298.36
298.926
299.448
299.928
300.369
300.773
301.143
301.482
301.793
302.08
302.349
302.6
302.837
303.051
303.226
303.319
303.26
302.932
302.227
301.082
299.591
298.001
296.685
295.882
295.732
296.083
297.023
298.175
299.418
300.229
300.526
299.671
296.857
292.125
286.759
283.491
286.729
291.636
317.293
306.163
288.417
237.277
130.41
146.751
205.628
183.289
204.069
198.958
195.878
189.717
158.223
110.098
70.8628
70.3608
119.404
200.662
304.485
386.711
453.824
489.424
521.779
522.063
534.187
533.85
538.911
535.275
528.069
510.736
507.37
514.816
524.895
532.43
532.209
535.362
533.744
178.163
178.977
178.57
177.611
176.915
176.691
176.845
177.34
178.271
179.785
182.002
184.994
188.788
193.361
198.643
204.516
210.831
217.421
224.121
230.779
237.274
243.495
249.347
254.767
259.71
264.157
268.128
271.651
274.769
277.534
279.995
282.194
284.164
285.941
287.55
289.01
290.343
291.552
292.668
293.689
294.618
295.471
296.296
297.011
297.676
298.294
298.865
299.391
299.877
300.323
300.733
301.108
301.451
301.765
302.055
302.324
302.576
302.811
303.026
303.204
303.306
303.263
302.958
302.277
301.145
299.649
298.031
296.673
295.825
295.649
295.988
296.93
298.098
299.378
300.239
300.613
299.819
296.971
292.073
286.408
282.812
285.383
289.704
316.26
306.843
289.292
233.513
127.239
137.978
205.475
183.515
203.793
199.236
195.914
189.474
156.502
107.731
67.7092
66.3487
114.263
195.144
299.591
382.967
451.515
488.204
521.18
521.795
533.866
533.659
538.847
535.416
528.329
510.871
507.096
514.42
524.57
532.321
532.156
535.342
533.774
182.964
183.845
183.624
182.875
182.341
182.224
182.429
182.898
183.694
184.933
186.718
189.122
192.189
195.933
200.334
205.333
210.833
216.712
222.833
229.057
235.265
241.348
247.204
252.749
257.912
262.638
266.909
270.719
274.087
277.049
279.655
281.956
283.996
285.817
287.45
288.924
290.261
291.479
292.589
293.609
294.546
295.405
296.181
296.936
297.613
298.228
298.804
299.335
299.825
300.277
300.692
301.072
301.42
301.738
302.03
302.299
302.55
302.784
302.998
303.179
303.289
303.263
302.982
302.326
301.211
299.708
298.057
296.652
295.758
295.547
295.875
296.823
298.02
299.336
300.253
300.706
299.965
297.055
291.957
285.957
282.035
283.836
287.484
314.872
307.206
290.317
228.557
121.393
127.338
205.126
183.841
203.606
199.595
195.925
188.896
154.187
104.833
64.0632
61.7568
108.451
188.946
294.121
378.774
448.934
486.835
520.488
521.491
533.502
533.42
538.76
535.538
528.578
511.014
506.781
513.988
524.208
532.197
532.097
535.318
533.805
187.539
188.455
188.376
187.797
187.392
187.357
187.602
188.057
188.762
189.807
191.28
193.244
195.747
198.819
202.47
206.68
211.399
216.547
222.021
227.709
233.497
239.286
244.983
250.499
255.752
260.668
265.2
269.312
272.99
276.238
279.082
281.563
283.732
285.639
287.329
288.836
290.19
291.414
292.529
293.552
294.475
295.34
296.133
296.853
297.537
298.174
298.742
299.278
299.773
300.23
300.651
301.036
301.389
301.711
302.005
302.274
302.523
302.755
302.967
303.149
303.267
303.257
303.002
302.373
301.278
299.769
298.083
296.624
295.682
295.425
295.742
296.698
297.923
299.293
300.268
300.802
300.106
297.101
291.768
285.393
281.137
282.108
284.927
312.995
307.149
291.421
222.343
113.496
114.787
204.445
184.28
203.548
200.086
195.917
187.897
151.264
101.358
59.9011
56.4798
101.866
181.952
287.988
374.069
446.045
485.282
519.666
521.144
533.094
533.124
538.648
535.636
528.817
511.169
506.442
513.523
523.805
532.055
532.028
535.29
533.837
191.904
192.829
192.86
192.418
192.118
192.146
192.421
192.866
193.504
194.409
195.651
197.286
199.354
201.892
204.923
208.453
212.463
216.909
221.723
226.822
232.112
237.497
242.896
248.233
253.426
258.397
263.081
267.425
271.391
274.955
278.111
280.87
283.261
285.33
287.128
288.707
290.106
291.354
292.479
293.501
294.434
295.288
296.075
296.804
297.473
298.096
298.701
299.228
299.722
300.185
300.61
301.001
301.359
301.685
301.981
302.25
302.497
302.724
302.934
303.115
303.239
303.246
303.017
302.42
301.346
299.834
298.109
296.588
295.586
295.28
295.584
296.551
297.816
299.226
300.281
300.903
300.238
297.107
291.498
284.704
280.086
280.204
281.983
310.478
306.496
292.477
215.115
103.488
100.655
203.24
184.83
203.631
200.663
195.893
186.424
147.764
97.2619
55.1929
50.4015
94.4245
174.03
281.084
368.771
442.791
483.505
518.664
520.75
532.64
532.764
538.501
535.707
529.045
511.343
506.09
513.025
523.355
531.891
531.95
535.257
533.87
196.073
196.989
197.102
196.773
196.558
196.634
196.928
197.365
197.952
198.751
199.819
201.203
202.936
205.053
207.582
210.542
213.933
217.739
221.921
226.422
231.172
236.093
241.105
246.143
251.14
256.025
260.727
265.186
269.348
273.173
276.633
279.713
282.413
284.748
286.751
288.47
289.958
291.265
292.424
293.462
294.399
295.255
296.043
296.757
297.43
298.05
298.614
299.175
299.678
300.139
300.57
300.967
301.33
301.659
301.958
302.227
302.47
302.693
302.897
303.076
303.205
303.227
303.027
302.464
301.416
299.904
298.14
296.548
295.474
295.11
295.399
296.377
297.689
299.166
300.292
301.009
300.36
297.068
291.14
283.874
278.84
278.118
278.601
307.156
305.057
293.158
207.866
91.5626
86.1971
201.269
185.463
203.888
201.435
195.851
184.401
143.697
92.5028
49.8943
43.3983
86.0311
165.031
273.276
362.783
439.095
481.456
517.43
520.314
532.139
532.338
538.308
535.748
529.263
511.548
505.732
512.5
522.855
531.7
531.859
535.217
533.902
200.057
200.953
201.127
200.89
200.742
200.854
201.161
201.588
202.136
202.851
203.785
204.973
206.446
208.231
210.357
212.847
215.714
218.956
222.558
226.486
230.693
235.12
239.699
244.366
249.067
253.746
258.338
262.783
267.022
271.005
274.691
278.049
281.06
283.716
286.02
287.991
289.664
291.088
292.319
293.403
294.366
295.232
296.018
296.738
297.4
298.014
298.59
299.119
299.626
300.106
300.534
300.933
301.303
301.637
301.937
302.205
302.445
302.662
302.859
303.032
303.163
303.2
303.029
302.506
301.49
299.983
298.177
296.508
295.349
294.93
295.179
296.167
297.54
299.086
300.299
301.119
300.474
296.983
290.691
282.896
277.361
275.831
274.731
302.838
302.631
293.048
202.255
79.8609
73.7605
198.299
186.123
204.221
202.381
195.788
181.813
139.124
87.0565
43.9435
35.3416
76.5852
154.792
264.407
355.982
434.86
479.094
515.912
519.837
531.585
531.85
538.047
535.757
529.472
511.799
505.387
511.957
522.298
531.474
531.754
535.168
533.934
203.869
204.733
204.952
204.79
204.698
204.836
205.15
205.566
206.079
206.728
207.554
208.589
209.856
211.378
213.181
215.288
217.716
220.476
223.564
226.965
230.651
234.582
238.707
242.971
247.318
251.706
256.085
260.401
264.598
268.623
272.429
275.976
279.232
282.175
284.791
287.078
289.042
290.703
292.097
293.276
294.295
295.197
296.002
296.726
297.388
297.999
298.559
299.092
299.586
300.049
300.501
300.906
301.274
301.614
301.92
302.188
302.424
302.632
302.82
302.986
303.115
303.164
303.024
302.544
301.569
300.072
298.228
296.473
295.21
294.705
294.927
295.922
297.362
298.994
300.301
301.234
300.582
296.856
290.141
281.749
275.605
273.319
270.345
297.413
299.02
291.669
199.08
69.8338
65.455
194.188
186.718
204.632
203.516
195.665
178.594
134.014
80.8839
37.2593
26.0479
65.9603
143.148
254.296
348.23
429.982
476.362
514.06
519.28
530.973
531.313
537.688
535.728
529.674
512.118
505.085
511.413
521.683
531.205
531.63
535.107
533.962
207.518
208.345
208.595
208.493
208.446
208.604
208.919
209.323
209.806
210.399
211.139
212.05
213.152
214.463
216.005
217.8
219.868
222.22
224.863
227.794
231
234.456
238.128
241.974
245.945
249.995
254.091
258.19
262.245
266.205
270.022
273.653
277.059
280.211
283.083
285.659
287.932
289.901
291.575
292.975
294.135
295.109
295.956
296.708
297.385
297.995
298.555
299.078
299.563
300.028
300.458
300.87
301.264
301.601
301.904
302.173
302.406
302.607
302.783
302.937
303.062
303.12
303.011
302.581
301.655
300.179
298.298
296.442
295.068
294.45
294.633
295.61
297.153
298.885
300.301
301.362
300.69
296.694
289.502
280.437
273.565
270.522
265.385
290.791
294.092
288.587
197.725
61.6384
60.6337
188.922
187.128
204.879
204.713
195.466
174.795
128.41
73.9725
29.7339
15.6077
53.9897
129.937
242.742
339.358
424.341
473.187
511.831
518.555
530.302
530.741
537.193
535.659
529.872
512.53
504.865
510.895
521.013
530.883
531.48
535.03
533.984
211.013
211.799
212.069
212.017
212.006
212.177
212.49
212.881
213.336
213.882
214.549
215.359
216.326
217.467
218.798
220.339
222.109
224.121
226.385
228.907
231.682
234.699
237.938
241.368
244.954
248.652
252.428
256.252
260.089
263.898
267.632
271.248
274.706
277.971
281.015
283.811
286.343
288.599
290.574
292.272
293.703
294.884
295.848
296.652
297.356
297.99
298.561
299.081
299.561
300.011
300.443
300.847
301.219
301.58
301.902
302.171
302.397
302.587
302.75
302.89
303.006
303.069
302.991
302.616
301.752
300.309
298.395
296.44
294.906
294.172
294.284
295.302
296.904
298.758
300.301
301.512
300.813
296.514
288.76
278.912
271.174
267.318
259.788
282.915
287.789
283.616
196.369
54.1322
56.2073
182.587
187.221
204.941
205.867
195.104
170.359
122.189
66.2501
21.1933
3.90394
40.5407
114.995
229.512
329.171
417.773
469.471
509.228
517.578
529.587
530.151
536.523
535.534
530.064
513.07
504.775
510.443
520.305
530.495
531.297
534.929
533.997
214.363
215.104
215.386
215.374
215.393
215.573
215.88
216.256
216.686
217.191
217.796
218.522
219.378
220.379
221.537
222.871
224.395
226.124
228.069
230.24
232.638
235.26
238.096
241.129
244.333
247.676
251.122
254.642
258.214
261.806
265.382
268.902
272.325
275.615
278.74
281.672
284.387
286.869
289.102
291.079
292.8
294.269
295.495
296.494
297.294
297.956
298.542
299.083
299.572
300.019
300.441
300.833
301.219
301.57
301.881
302.161
302.395
302.579
302.725
302.849
302.95
303.015
302.966
302.652
301.864
300.47
298.53
296.465
294.765
293.837
293.891
294.926
296.625
298.619
300.314
301.704
300.971
296.336
287.964
277.236
268.46
264.304
253.696
273.877
280.105
276.876
195.177
46.9252
50.9192
175.37
186.863
204.39
206.862
194.534
165.413
115.413
57.7072
11.4678
-9.24968
25.3328
98.1497
214.338
317.435
410.083
465.095
506.261
516.394
528.853
529.548
535.649
535.334
530.252
513.783
504.863
510.102
519.586
530.031
531.068
534.796
533.993
217.574
218.271
218.559
218.578
218.621
218.806
219.105
219.466
219.872
220.34
220.892
221.546
222.31
223.194
224.21
225.372
226.693
228.187
229.865
231.737
233.809
236.083
238.556
241.22
244.059
247.051
250.168
253.38
256.663
259.999
263.362
266.72
270.037
273.275
276.402
279.387
282.206
284.836
287.26
289.463
291.435
293.173
294.678
295.955
297.011
297.858
298.519
299.062
299.553
300.023
300.453
300.845
301.213
301.566
301.894
302.174
302.398
302.576
302.717
302.82
302.903
302.961
302.939
302.691
301.997
300.676
298.717
296.537
294.627
293.49
293.415
294.489
296.262
298.474
300.36
301.966
301.205
296.208
287.095
275.297
265.3
259.919
247.02
263.686
271.074
268.447
194.553
42.0037
47.1406
167.54
185.983
203.223
207.486
193.598
159.91
107.902
48.2351
0.372612
-23.9527
8.17734
79.2264
196.926
303.883
401.07
459.942
502.994
514.989
528.093
528.917
534.573
535.113
530.431
514.683
505.187
509.922
518.899
529.486
530.78
534.619
533.965
220.656
221.307
221.595
221.64
221.701
221.888
222.178
222.523
222.906
223.341
223.847
224.44
225.125
225.912
226.809
227.827
228.98
230.278
231.732
233.352
235.145
237.117
239.269
241.599
244.098
246.754
249.548
252.455
255.45
258.512
261.628
264.777
267.93
271.054
274.117
277.087
279.935
282.64
285.181
287.54
289.705
291.665
293.412
294.944
296.266
297.381
298.297
299.017
299.563
300.003
300.423
300.848
301.239
301.586
301.898
302.186
302.424
302.599
302.714
302.809
302.87
302.918
302.918
302.741
302.159
300.937
298.975
296.668
294.517
293.094
292.867
293.858
295.892
298.345
300.474
302.346
301.552
296.163
286.28
273.327
261.933
255.34
239.721
252.264
260.791
258.637
194.306
39.5179
45.9492
159.679
184.593
201.068
207.675
192.295
154.036
99.8446
37.8796
-12.2193
-40.3039
-11.1901
58.0109
176.965
288.219
390.519
453.894
499.281
513.294
527.204
528.218
533.335
534.594
530.604
515.762
505.815
509.943
518.284
528.865
530.424
534.389
533.903
223.613
224.22
224.504
224.569
224.645
224.832
225.111
225.439
225.8
226.205
226.671
227.21
227.828
228.532
229.328
230.227
231.238
232.372
233.638
235.046
236.602
238.314
240.186
242.22
244.411
246.755
249.239
251.847
254.559
257.352
260.208
263.119
266.067
269.027
271.97
274.866
277.684
280.4
282.992
285.441
287.731
289.85
291.788
293.534
295.086
296.443
297.609
298.589
299.389
300.007
300.461
300.819
301.19
301.593
301.948
302.23
302.452
302.631
302.751
302.813
302.86
302.895
302.912
302.808
302.359
301.27
299.339
296.893
294.447
292.656
292.206
293.184
295.442
298.257
300.708
302.913
302.111
296.32
285.499
271.071
258.166
250.383
232.067
239.93
249.418
247.913
194.239
40.9466
47.1067
152.819
182.916
198.027
207.165
190.419
147.776
91.0835
26.5402
-26.4832
-58.455
-33.17
34.2925
154.167
270.123
378.127
446.752
494.844
511.124
525.99
527.422
532.004
533.922
530.779
517.008
506.759
510.199
517.78
528.185
529.993
534.096
533.799
226.453
227.016
227.294
227.374
227.461
227.646
227.914
228.225
228.566
228.943
229.373
229.864
230.424
231.056
231.768
232.565
233.457
234.453
235.561
236.789
238.145
239.635
241.265
243.038
244.956
247.016
249.212
251.535
253.97
256.5
259.104
261.77
264.489
267.248
270.027
272.798
275.535
278.209
280.797
283.277
285.633
287.85
289.917
291.823
293.561
295.123
296.506
297.711
298.744
299.613
300.321
300.866
301.258
301.552
301.885
302.258
302.542
302.707
302.793
302.853
302.885
302.904
302.934
302.907
302.612
301.697
299.818
297.209
294.443
292.188
291.387
292.336
294.942
298.239
301.137
303.748
302.982
296.687
284.998
269.099
254.323
244.806
223.91
226.83
237.214
237.016
194.913
47.5355
53.926
148.219
181.063
194.188
205.987
188.088
141.385
82.0193
14.4445
-42.4062
-78.4251
-57.4306
7.85036
128.272
249.258
363.517
438.209
489.417
508.372
524.282
526.537
530.644
533.015
530.961
518.408
508.079
510.715
517.409
527.473
529.494
533.737
533.647
229.181
229.703
229.971
230.063
230.158
230.34
230.596
230.891
231.211
231.563
231.96
232.41
232.919
233.489
234.127
234.838
235.629
236.509
237.483
238.559
239.744
241.045
242.467
244.015
245.692
247.499
249.433
251.49
253.661
255.935
258.295
260.725
263.212
265.752
268.334
270.942
273.551
276.136
278.673
281.137
283.509
285.772
287.914
289.923
291.79
293.509
295.071
296.471
297.708
298.784
299.707
300.491
301.139
301.643
301.996
302.207
302.473
302.772
302.936
302.948
302.905
302.934
303.031
303.054
302.905
302.212
300.506
297.761
294.533
291.619
290.366
291.29
294.391
298.378
301.837
304.967
304.38
297.576
284.778
266.895
250.152
239.147
215.964
213.804
224.542
226.576
196.036
62.4723
65.9568
147.96
179.879
189.855
204.108
185.191
134.928
72.6025
1.55596
-60.0421
-100.407
-84.5486
-21.3864
99.0883
225.309
346.345
427.924
482.832
505.029
522.027
525.561
529.266
531.832
531.153
519.924
509.719
511.495
517.18
526.759
528.947
533.308
533.445
231.802
232.284
232.543
232.643
232.744
232.921
233.165
233.444
233.745
234.074
234.44
234.854
235.317
235.834
236.408
237.045
237.75
238.53
239.39
240.338
241.378
242.517
243.762
245.115
246.583
248.166
249.866
251.681
253.607
255.636
257.759
259.961
262.228
264.55
266.922
269.338
271.784
274.239
276.68
279.084
281.43
283.696
285.869
287.934
289.882
291.705
293.396
294.948
296.357
297.618
298.73
299.701
300.539
301.27
301.898
302.388
302.665
302.706
302.831
303.045
303.15
303.073
303.027
303.225
303.344
302.905
301.316
298.404
294.791
291.186
289.115
289.9
293.573
298.579
302.948
306.732
306.378
298.97
285.223
265.588
246.418
233.095
207.708
200.543
211.826
216.228
196.417