/*--------------------------------*- C++ -*----------------------------------*\
| =========                 |                                                 |
| \\      /  F ield         | OpenFOAM: The Open Source CFD Toolbox           |
|  \\    /   O peration     | Version:  2412                                  |
|   \\  /    A nd           | Website:  www.openfoam.com                      |
|    \\/     M anipulation  |                                                 |
\*---------------------------------------------------------------------------*/
FoamFile
{
    version     2.0;
    format      ascii;
    arch        "LSB;label=32;scalar=64";
    class       volVectorField;
    location    "0.235";
    object      U;
}
// * * * * * * * * * * * * * * * * * * * * * * * * * * * * * * * * * * * * * //

dimensions      [0 1 -1 0 0 0 0];

internalField   nonuniform List<vector> 
12600
(
(22.1651 0 -1.54866)
(9.42361 -4.66792e-20 -2.04032)
(4.24014 -2.66534e-20 -2.04717)
(2.26324 0 -1.57595)
(1.48469 -1.15512e-22 -1.09604)
(1.07303 0 -0.778215)
(0.796792 -2.70156e-20 -0.573188)
(0.595294 0 -0.430854)
(0.442893 0 -0.325717)
(0.325041 0 -0.245188)
(0.231882 0 -0.182526)
(0.156783 -1.01397e-19 -0.133094)
(0.0957902 -1.04962e-19 -0.0929759)
(0.0459211 0 -0.0600159)
(0.00490158 2.17459e-19 -0.0327443)
(-0.02892 0 -0.0100461)
(-0.0569313 3.94676e-22 0.00895845)
(-0.0801606 0 0.0245645)
(-0.0990715 1.08482e-19 0.0374213)
(-0.114449 0 0.0483246)
(-0.126949 0 0.0573024)
(-0.136871 0 0.0645573)
(-0.144637 4.09028e-19 0.0703985)
(-0.150454 -4.00472e-19 0.0749836)
(-0.15466 -2.37561e-22 0.0785209)
(-0.157416 1.90975e-19 0.0810809)
(-0.158925 0 0.0828556)
(-0.159355 0 0.0839803)
(-0.158803 0 0.0845195)
(-0.157471 -3.41071e-19 0.084556)
(-0.155417 -6.60703e-19 0.084058)
(-0.152822 0 0.0831283)
(-0.14966 0 0.0818316)
(-0.146116 -2.98589e-19 0.0802268)
(-0.142241 -2.88558e-19 0.0784219)
(-0.138085 0 0.0764555)
(-0.133756 0 0.0743312)
(-0.129264 -5.17269e-19 0.07206)
(-0.124597 0 0.0696478)
(-0.119698 1.12206e-22 0.0670862)
(-0.114538 -4.61302e-19 0.0643512)
(-0.10907 -4.43479e-19 0.0614161)
(-0.103262 0 0.0582737)
(-0.0971081 -4.08977e-19 0.0549315)
(-0.0907493 -3.92267e-19 0.0514332)
(-0.0843359 7.52004e-19 0.0479015)
(-0.0781491 -7.20331e-19 0.0445286)
(-0.0725243 0 0.0415042)
(-0.0678118 6.59484e-19 0.0390957)
(-0.0643371 -6.30335e-19 0.0373334)
(-0.0622168 0 0.036348)
(-0.0617665 4.8551e-23 0.0362036)
(-0.0631126 5.47211e-19 0.036994)
(-0.0667086 0 0.0390535)
(-0.0735229 -9.94517e-19 0.042811)
(-0.0852088 0 0.048796)
(-0.102029 0 0.0576897)
(-0.121777 2.77964e-22 0.0681561)
(-0.13119 3.76671e-22 0.0719134)
(-0.107103 8.19612e-19 0.0568904)
(-0.0106478 -7.97704e-19 0.000186819)
(0.195469 1.53238e-18 -0.111918)
(0.421561 0 -0.235993)
(0.427344 1.2917e-18 -0.239072)
(0.321927 1.19888e-18 -0.181064)
(0.313478 -2.24506e-18 -0.177106)
(0.35991 1.03123e-18 -0.200614)
(0.370725 0 -0.201222)
(0.192934 0 -0.0889108)
(-0.29808 0 0.197016)
(-0.958702 0 0.565018)
(-1.55829 0 0.881203)
(-1.90712 -1.29963e-18 1.06563)
(-1.86936 1.72076e-18 1.03245)
(-1.43447 0 0.786852)
(-0.865409 0 0.469962)
(-0.405034 2.3356e-18 0.216834)
(-0.0915425 -1.01674e-21 0.0448463)
(0.086665 4.35903e-18 -0.0528815)
(0.168603 0 -0.0970458)
(0.190904 0 -0.109408)
(0.183826 0 -0.105345)
(0.175172 1.41866e-22 -0.10045)
(0.178593 0 -0.10203)
(0.174956 0 -0.0989801)
(0.129234 2.84722e-18 -0.0714044)
(0.0395858 3.98306e-22 -0.0201196)
(-0.0510966 0 0.0293425)
(-0.0976957 0 0.0545413)
(-0.095877 -4.5196e-18 0.0527646)
(-0.0714028 -4.31407e-18 0.0389077)
(-0.0439728 -4.10685e-18 0.0234153)
(-0.0211745 -3.89886e-18 0.0107183)
(-0.00646845 -2.84559e-22 0.00265888)
(-0.00301659 -1.93434e-22 0.000886423)
(-0.00833011 3.2904e-18 0.00399897)
(-0.0216863 0 0.0114673)
(-0.0333553 0 0.017778)
(-0.0421673 0 0.0223661)
(-0.0396393 1.05745e-17 0.0204033)
(-0.0277225 -5.02679e-18 0.013318)
(-0.00705353 4.78493e-18 0.00121658)
(0.0212937 4.55e-18 -0.0150014)
(0.048532 0 -0.0306576)
(0.0790749 0 -0.0480879)
(0.103119 0 -0.0617009)
(0.127673 7.32763e-18 -0.0757923)
(0.146897 0 -0.0865769)
(0.165601 -6.51772e-18 -0.0974666)
(0.182274 0 -0.10684)
(0.198472 0 -0.116382)
(0.215005 5.42643e-18 -0.125717)
(0.231584 0 -0.135541)
(0.250862 0 -0.14644)
(0.265546 0 -0.155294)
(0.300656 -8.46408e-18 -0.175182)
(0.297522 0 -0.173901)
(0.378516 7.46135e-18 -0.22026)
(0.346982 0 -0.202365)
(0.533087 2.03606e-22 -0.309027)
(34.8095 -1.54884e-20 -2.4139)
(25.1294 2.74806e-20 -4.43567)
(16.5992 1.61507e-20 -5.34033)
(10.9105 0 -4.75813)
(7.53665 -5.04644e-21 -3.71434)
(5.46533 1.75419e-20 -2.82892)
(4.10737 2.81787e-20 -2.17243)
(3.15166 -3.47654e-20 -1.68604)
(2.44161 0 -1.31559)
(1.89529 0 -1.02601)
(1.4645 0 -0.79554)
(1.11863 0 -0.60947)
(0.837292 0 -0.456832)
(0.605831 0 -0.330376)
(0.41385 -9.38605e-22 -0.22491)
(0.253782 0 -0.13652)
(0.119404 1.14117e-19 -0.0621763)
(0.00683685 0 0.000730639)
(-0.0867952 -2.25278e-19 0.0534623)
(-0.165478 2.22387e-19 0.0973188)
(-0.231353 0 0.134044)
(-0.285711 2.15784e-19 0.164641)
(-0.330414 -2.12339e-19 0.189866)
(-0.36659 2.07816e-19 0.210281)
(-0.395513 -2.02985e-19 0.226677)
(-0.417971 0 0.239406)
(-0.434814 1.92348e-19 0.249065)
(-0.446986 0 0.255751)
(-0.454854 0 0.260005)
(-0.459155 0 0.262241)
(-0.460074 3.41587e-19 0.262576)
(-0.45816 0 0.261519)
(-0.453706 0 0.259083)
(-0.447296 0 0.255367)
(-0.439226 0 0.250692)
(-0.429762 0 0.245294)
(-0.419207 0 0.239299)
(-0.40766 5.32208e-19 0.232693)
(-0.395141 0 0.22552)
(-0.381574 9.85035e-19 0.217741)
(-0.366908 9.4654e-19 0.209316)
(-0.351056 4.54391e-19 0.200189)
(-0.333997 0 0.190367)
(-0.315813 0 0.17992)
(-0.296955 8.01802e-19 0.169109)
(-0.277997 -7.67845e-19 0.158294)
(-0.259897 7.34572e-19 0.148085)
(-0.243731 0 0.139092)
(-0.230612 -6.71152e-19 0.132111)
(-0.221466 0 0.127243)
(-0.216525 0 0.124749)
(-0.216271 -5.82211e-19 0.12496)
(-0.2207 0 0.127988)
(-0.230912 0 0.134484)
(-0.249404 1.00481e-18 0.145816)
(-0.280582 0 0.16391)
(-0.325226 0 0.18997)
(-0.376056 4.64675e-22 0.218731)
(-0.392261 8.47348e-19 0.224483)
(-0.308689 -8.07446e-22 0.166053)
(-0.00809752 0 -0.0226433)
(0.607811 -1.5334e-18 -0.381102)
(1.30284 -1.42079e-18 -0.765317)
(1.34352 0 -0.764889)
(1.03205 -2.39066e-18 -0.584618)
(0.99221 -1.00052e-21 -0.574247)
(1.09626 0 -0.634375)
(1.04587 9.1726e-19 -0.590546)
(0.364541 0 -0.158531)
(-1.24442 0 0.801306)
(-3.25075 0 1.95853)
(-4.93848 0 2.8947)
(-5.80849 2.54789e-18 3.36545)
(-5.55068 -1.66851e-18 3.17123)
(-4.21301 0 2.36519)
(-2.53433 0 1.3968)
(-1.17483 2.27973e-18 0.63036)
(-0.233896 -1.67456e-21 0.106026)
(0.309917 -5.19754e-22 -0.193386)
(0.562509 0 -0.329042)
(0.631749 0 -0.365029)
(0.609778 0 -0.350895)
(0.581577 2.18794e-22 -0.335192)
(0.583125 -3.15497e-18 -0.33653)
(0.551582 2.95582e-18 -0.316212)
(0.388372 -2.751e-18 -0.217671)
(0.105653 6.30838e-22 -0.0522965)
(-0.160811 -2.40126e-18 0.0981125)
(-0.285837 0 0.166892)
(-0.269308 4.34412e-18 0.154641)
(-0.191457 0 0.108717)
(-0.106882 3.93773e-18 0.0599402)
(-0.0388101 0 0.021181)
(0.00327009 -7.06035e-18 -0.0023535)
(0.0111565 -3.33109e-18 -0.00612353)
(-0.00538589 0 0.00398257)
(-0.0428898 0 0.0259173)
(-0.0708645 -5.594e-18 0.042065)
(-0.0870811 5.294e-18 0.0511367)
(-0.067034 -1.00504e-17 0.039059)
(-0.0192144 4.77412e-18 0.0109608)
(0.0542334 -4.54035e-18 -0.0318204)
(0.147769 0 -0.0859518)
(0.237424 4.09086e-18 -0.137759)
(0.333962 0 -0.193511)
(0.411951 0 -0.238145)
(0.489648 -6.92349e-18 -0.283132)
(0.553042 0 -0.319144)
(0.613995 8.20868e-22 -0.354673)
(0.670721 5.77982e-18 -0.386788)
(0.725088 0 -0.418682)
(0.782671 0 -0.45127)
(0.839157 0 -0.484549)
(0.906262 4.51175e-18 -0.522484)
(0.957777 -8.49164e-18 -0.553284)
(1.07549 7.95699e-18 -0.620051)
(1.06881 0 -0.617913)
(1.33778 -7.00807e-18 -0.772047)
(1.22631 0 -0.710889)
(1.82552 1.22902e-17 -1.05793)
(38.3723 3.32384e-20 -2.54069)
(34.0777 -8.15851e-21 -4.36697)
(27.5082 7.68817e-21 -6.06797)
(20.9578 0 -6.50133)
(15.651 -8.84423e-21 -5.94775)
(11.7865 8.51143e-22 -5.02479)
(9.04718 0 -4.112)
(7.06054 3.29937e-20 -3.33283)
(5.5698 0 -2.69399)
(4.41801 4.25312e-20 -2.17262)
(3.50766 0 -1.74452)
(2.7751 0 -1.39017)
(2.17702 0 -1.09472)
(1.6832 0 -0.846713)
(1.27193 -1.06406e-19 -0.637435)
(0.927266 0 -0.460163)
(0.636752 0 -0.30969)
(0.391908 0 -0.180679)
(0.185444 1.06649e-19 -0.0710341)
(0.0103921 -7.70477e-22 0.0212776)
(-0.137201 0 0.0998616)
(-0.261301 -5.87753e-22 0.16587)
(-0.365245 0 0.221422)
(-0.451373 -1.96217e-19 0.267675)
(-0.522261 0 0.305901)
(-0.579701 0 0.33682)
(-0.625434 -1.82448e-19 0.361604)
(-0.661184 0 0.380605)
(-0.687753 0 0.394742)
(-0.706635 -3.33619e-19 0.404739)
(-0.718428 0 0.410787)
(-0.724505 0 0.413326)
(-0.725358 0 0.412944)
(-0.721655 0 0.410388)
(-0.714313 2.81639e-19 0.405646)
(-0.703836 0 0.39926)
(-0.690801 0 0.391533)
(-0.675412 -5.03712e-19 0.38256)
(-0.657851 0 0.372322)
(-0.63808 -9.32502e-19 0.360823)
(-0.616097 -1.54479e-22 0.348046)
(-0.591852 -4.30195e-19 0.333963)
(-0.565399 0 0.318654)
(-0.536968 0 0.302321)
(-0.507348 -3.79323e-19 0.285533)
(-0.477598 0 0.268909)
(-0.449359 -6.94875e-19 0.253478)
(-0.424433 0 0.24024)
(-0.404651 1.46587e-24 0.230402)
(-0.391401 0 0.224105)
(-0.384939 0 0.221411)
(-0.385448 0 0.222994)
(-0.392641 -5.23887e-19 0.228562)
(-0.407819 0 0.238843)
(-0.434516 0 0.255933)
(-0.479399 0 0.282925)
(-0.5439 0 0.320637)
(-0.615932 1.65579e-18 0.358846)
(-0.630546 0 0.355022)
(-0.488275 -6.64114e-22 0.240884)
(-0.00300527 0 -0.0828148)
(0.970532 7.22979e-19 -0.663702)
(2.11359 1.33959e-18 -1.26613)
(2.22682 0 -1.25092)
(1.7373 2.25518e-18 -0.965564)
(1.64893 1.05362e-18 -0.952111)
(1.76877 0 -1.01829)
(1.58732 -8.63825e-19 -0.850656)
(0.321859 0 0.00301498)
(-2.40796 0 1.66282)
(-5.63326 0 3.5014)
(-8.18188 0 4.85177)
(-9.34337 -1.01739e-20 5.39493)
(-8.76458 1.56915e-18 4.90959)
(-6.60394 0 3.56679)
(-3.97243 0 2.0699)
(-1.83317 -3.14924e-21 0.901521)
(-0.328945 -4.18038e-18 0.0960092)
(0.55531 -1.99724e-18 -0.366734)
(0.972163 0 -0.576173)
(1.08869 0 -0.628658)
(1.05345 0 -0.603533)
(1.00432 -6.29332e-18 -0.576848)
(0.994103 -3.82966e-22 -0.571221)
(0.918668 -2.77279e-18 -0.518007)
(0.628781 0 -0.337307)
(0.162318 -2.40073e-18 -0.0644702)
(-0.257765 2.25118e-18 0.165567)
(-0.442241 0 0.257535)
(-0.404224 0 0.226312)
(-0.274592 3.87782e-18 0.148433)
(-0.136611 0 0.069796)
(-0.0277465 3.49579e-18 0.00952105)
(0.0380375 3.2424e-22 -0.025161)
(0.0490619 3.11839e-18 -0.0284959)
(0.0235258 -2.93941e-18 -0.0124594)
(-0.0315121 0 0.0194863)
(-0.066201 5.2351e-18 0.0383622)
(-0.0784133 -4.95361e-18 0.0440268)
(-0.0311523 9.40071e-18 0.0132134)
(0.0600588 0 -0.0418035)
(0.191401 -4.24452e-18 -0.119413)
(0.351362 0 -0.212116)
(0.504951 -3.82525e-18 -0.300531)
(0.665839 3.62359e-18 -0.392674)
(0.798918 0 -0.468052)
(0.928796 6.47173e-18 -0.542675)
(1.03877 0 -0.604479)
(1.14269 1.14954e-17 -0.664931)
(1.24332 -5.40104e-18 -0.721498)
(1.33763 0 -0.777017)
(1.4412 0 -0.835416)
(1.53984 0 -0.893954)
(1.66033 -4.22665e-22 -0.961707)
(1.75119 7.93184e-18 -1.01721)
(1.95712 -7.43041e-18 -1.13253)
(1.94756 0 -1.13289)
(2.412 -6.54354e-18 -1.39653)
(2.21044 0 -1.29035)
(3.21203 -2.34218e-22 -1.86932)
(38.7546 -1.75736e-20 -2.92931)
(37.8129 -5.85935e-21 -3.9785)
(34.3918 3.12362e-21 -5.682)
(29.4194 -1.12099e-20 -6.88507)
(24.1209 -1.78998e-20 -7.16598)
(19.3616 -3.5072e-20 -6.72605)
(15.4651 0 -5.94226)
(12.3934 0 -5.08267)
(9.98335 0 -4.27475)
(8.07434 -4.02826e-20 -3.56083)
(6.54205 0 -2.94503)
(5.29597 0 -2.41814)
(4.27081 0 -1.96794)
(3.41914 0 -1.58275)
(2.70596 0 -1.2526)
(2.10508 -1.00466e-19 -0.96913)
(1.59613 1.00879e-19 -0.725551)
(1.16401 0 -0.515421)
(0.796837 0 -0.334781)
(0.484135 -1.99169e-19 -0.179865)
(0.217884 1.9586e-19 -0.0466886)
(-0.00841875 -1.93361e-19 0.0666505)
(-0.199942 1.89254e-19 0.163319)
(-0.361388 1.85801e-19 0.244755)
(-0.496632 -1.81167e-19 0.313467)
(-0.608846 1.76749e-19 0.370439)
(-0.700816 0 0.417465)
(-0.775299 -1.67424e-19 0.455458)
(-0.833994 0 0.485599)
(-0.879412 3.15754e-19 0.508799)
(-0.912791 0 0.525601)
(-0.936012 0 0.536721)
(-0.949805 0 0.543099)
(-0.95614 -2.75973e-19 0.54481)
(-0.956133 -2.66419e-19 0.542681)
(-0.950192 0 0.538066)
(-0.939461 0 0.531107)
(-0.924536 4.7632e-19 0.52177)
(-0.905657 0 0.510352)
(-0.882982 1.84308e-22 0.496784)
(-0.856642 -4.23372e-19 0.481143)
(-0.826708 0 0.463476)
(-0.793392 0 0.443981)
(-0.757153 0 0.423044)
(-0.719175 0 0.401528)
(-0.681006 -6.85858e-19 0.380383)
(-0.644936 0 0.361089)
(-0.613449 6.27208e-19 0.344993)
(-0.589013 5.99178e-19 0.333641)
(-0.573324 0 0.327186)
(-0.566555 0 0.325197)
(-0.568224 0 0.328693)
(-0.577654 4.94265e-19 0.336523)
(-0.595741 -4.70333e-19 0.349745)
(-0.626699 -8.95186e-19 0.371078)
(-0.679185 0 0.404284)
(-0.755078 -8.13744e-19 0.449729)
(-0.838409 -1.55995e-18 0.491605)
(-0.844826 0 0.469988)
(-0.646903 -1.45913e-18 0.295025)
(-0.00497009 0 -0.163529)
(1.25982 -6.80784e-19 -0.944486)
(2.81974 -1.26397e-18 -1.73762)
(3.05444 0 -1.7075)
(2.42428 -1.06181e-18 -1.32906)
(2.27021 -9.93286e-19 -1.3102)
(2.35777 0 -1.35476)
(1.96606 0 -0.996837)
(0.0372176 0 0.353645)
(-3.78508 5.41612e-19 2.72325)
(-8.04682 4.4521e-19 5.1388)
(-11.1762 0 6.71662)
(-12.3783 -1.11141e-18 7.1644)
(-11.392 -1.44876e-18 6.31124)
(-8.51884 0 4.48023)
(-5.12974 0 2.55265)
(-2.35591 -2.00864e-18 1.06538)
(-0.369163 1.43106e-21 0.0312857)
(0.822471 0 -0.567167)
(1.39548 0 -0.837651)
(1.55997 0 -0.902238)
(1.51394 0 -0.865376)
(1.44195 -2.22973e-22 -0.826129)
(1.40841 2.7759e-18 -0.806483)
(1.2721 0 -0.709872)
(0.849692 0 -0.441087)
(0.214492 0 -0.0676016)
(-0.332722 2.10916e-18 0.225999)
(-0.556591 0 0.327892)
(-0.491669 3.80979e-18 0.272537)
(-0.312671 -3.63139e-18 0.163709)
(-0.126216 3.4517e-18 0.0577926)
(0.0182835 -3.27259e-18 -0.0210025)
(0.10412 6.18725e-18 -0.0645952)
(0.117854 -2.9184e-18 -0.0671799)
(0.0875722 2.75051e-18 -0.046956)
(0.0235914 0 -0.00953347)
(-0.00647747 0 0.00617159)
(-0.00327176 -4.63156e-18 0.00111806)
(0.0817359 -4.39547e-18 -0.0536763)
(0.223376 -4.17293e-18 -0.139161)
(0.417224 1.13074e-21 -0.254167)
(0.643899 0 -0.385584)
(0.862474 0 -0.511266)
(1.08542 -3.38698e-18 -0.638863)
(1.2748 0 -0.745572)
(1.45563 -6.04611e-18 -0.849524)
(1.61505 0 -0.938518)
(1.76244 -7.6568e-22 -1.0245)
(1.91146 0 -1.10778)
(2.04714 -4.75274e-18 -1.18799)
(2.20229 4.45954e-18 -1.27506)
(2.3447 4.19863e-18 -1.36007)
(2.52469 -4.88444e-22 -1.46068)
(2.65639 0 -1.54234)
(2.95634 6.93906e-18 -1.70866)
(2.94361 6.51883e-18 -1.71287)
(3.60817 6.11012e-18 -2.08738)
(3.30964 0 -1.93578)
(4.68635 -2.63841e-22 -2.73418)
(38.2624 0 -3.48686)
(38.5673 -4.33126e-21 -3.96326)
(37.489 0 -5.19932)
(34.7941 1.05914e-20 -6.53454)
(30.943 2.48148e-20 -7.39664)
(26.635 1.74927e-20 -7.60704)
(22.4511 0 -7.28372)
(18.7133 0 -6.64207)
(15.5207 -3.3664e-20 -5.86902)
(12.8487 -3.73361e-20 -5.08281)
(10.6263 4.03362e-20 -4.34267)
(8.77562 8.5396e-20 -3.67175)
(7.22754 8.89853e-20 -3.07495)
(5.92553 0 -2.54912)
(4.8247 0 -2.08815)
(3.88969 1.89416e-19 -1.6851)
(3.09231 -5.07661e-22 -1.33343)
(2.4106 0 -1.02639)
(1.82711 -9.4307e-20 -0.75907)
(1.32682 -1.86882e-19 -0.527186)
(0.897765 -1.85165e-19 -0.326029)
(0.530528 0 -0.152026)
(0.216457 -1.78902e-19 -0.00213768)
(-0.0510051 1.74788e-19 0.126121)
(-0.277777 1.71237e-19 0.235648)
(-0.469154 -3.21778e-22 0.3278)
(-0.628918 0 0.405598)
(-0.761522 2.5466e-22 0.469861)
(-0.869584 0 0.522411)
(-0.956757 2.97532e-19 0.564492)
(-1.02486 0 0.597293)
(-1.0765 0 0.622271)
(-1.11376 0 0.640148)
(-1.13899 2.60657e-19 0.651288)
(-1.1534 0 0.656814)
(-1.15914 0 0.656706)
(-1.15715 0 0.652886)
(-1.14792 0 0.646006)
(-1.13251 -4.32289e-19 0.635522)
(-1.11113 8.31417e-19 0.621919)
(-1.08419 0 0.605264)
(-1.052 3.83294e-19 0.585733)
(-1.01499 0 0.5637)
(-0.973929 0 0.539788)
(-0.930405 0 0.515204)
(-0.886482 1.06823e-22 0.491227)
(-0.845069 0 0.469769)
(-0.809273 -5.91394e-19 0.452464)
(-0.782117 0 0.441069)
(-0.765481 0 0.435714)
(-0.759238 -5.14081e-19 0.435377)
(-0.76222 0 0.440982)
(-0.773025 0 0.450712)
(-0.791913 -4.47105e-23 0.465714)
(-0.823446 8.43159e-19 0.489408)
(-0.877942 0 0.526136)
(-0.958087 2.29509e-22 0.575281)
(-1.04544 1.46775e-18 0.614925)
(-1.04039 0 0.569218)
(-0.795543 6.86245e-19 0.32983)
(-0.0302323 0 -0.256322)
(1.45162 6.40461e-19 -1.20997)
(3.39385 1.18888e-18 -2.16292)
(3.81364 0 -2.12111)
(3.08605 1.00032e-18 -1.66474)
(2.84921 -9.54121e-22 -1.63834)
(2.86119 0 -1.62069)
(2.18431 0 -1.00062)
(-0.465055 0 0.919127)
(-5.321 -1.02051e-18 3.97556)
(-10.4067 1.19026e-22 6.81473)
(-13.8302 0 8.40599)
(-14.8652 1.02052e-18 8.58676)
(-13.4404 2.70603e-18 7.30665)
(-9.99156 0 5.05794)
(-6.02983 0 2.82089)
(-2.75526 0 1.10991)
(-0.36186 1.41695e-21 -0.0924057)
(1.10701 0 -0.7949)
(1.83032 0 -1.11294)
(2.04595 0 -1.18464)
(1.99251 0 -1.13527)
(1.89482 2.76582e-18 -1.08144)
(1.82633 2.60181e-18 -1.03927)
(1.61581 0 -0.887532)
(1.06009 0 -0.526959)
(0.273237 0 -0.0641619)
(-0.376636 -4.70253e-23 0.273774)
(-0.624656 0 0.370185)
(-0.530214 -3.56651e-18 0.285648)
(-0.305039 0 0.147282)
(-0.074801 -3.23035e-18 0.0176784)
(0.101248 0 -0.0758084)
(0.205083 -2.89428e-18 -0.125957)
(0.223113 0 -0.127743)
(0.193766 0 -0.106216)
(0.129975 0 -0.0691969)
(0.114942 0 -0.0644568)
(0.143852 4.33072e-18 -0.0877599)
(0.275214 0 -0.172648)
(0.47202 3.90104e-18 -0.292582)
(0.73184 3.70864e-18 -0.447435)
(1.02478 0 -0.617188)
(1.30959 0 -0.780453)
(1.59281 0 -0.94174)
(1.84045 0 -1.08037)
(2.07153 9.37453e-22 -1.21266)
(2.28399 0 -1.33059)
(2.47529 -1.0031e-17 -1.44212)
(2.67776 0 -1.55489)
(2.85559 8.8779e-18 -1.66029)
(3.06825 -4.1651e-18 -1.77943)
(3.25493 -3.92117e-18 -1.89143)
(3.50072 -3.67525e-18 -2.02835)
(3.67285 0 -2.13682)
(4.0727 0 -2.35631)
(4.05496 -1.21726e-17 -2.36577)
(4.92035 5.7036e-18 -2.84911)
(4.52508 5.34541e-18 -2.65526)
(6.23461 -5.00053e-18 -3.648)
(37.7487 0 -3.94751)
(38.1897 3.56441e-20 -4.19392)
(38.2314 0 -4.94724)
(37.2759 0 -6.02972)
(35.1699 0 -7.05545)
(32.1649 0 -7.72047)
(28.6684 0 -7.91716)
(25.0557 2.87769e-20 -7.69764)
(21.5939 3.17614e-20 -7.18745)
(18.4346 7.0403e-20 -6.51594)
(15.6368 -7.58999e-20 -5.78245)
(13.2006 -8.05925e-20 -5.05045)
(11.0969 -8.39856e-20 -4.35501)
(9.28596 0 -3.71278)
(7.7279 0 -3.12981)
(6.38638 -1.77736e-19 -2.60627)
(5.22977 -1.78637e-19 -2.1396)
(4.23152 0 -1.72524)
(3.36959 8.90172e-20 -1.359)
(2.62491 1.76396e-19 -1.0368)
(1.98154 0 -0.753948)
(1.42637 1.70971e-19 -0.506628)
(0.94788 0 -0.291276)
(0.537082 -4.03391e-22 -0.104064)
(0.184753 -1.60895e-19 0.0571821)
(-0.115415 -3.10137e-22 0.195579)
(-0.369629 0 0.313486)
(-0.584123 1.49042e-19 0.412685)
(-0.762454 -2.89038e-19 0.495882)
(-0.909889 -5.61008e-19 0.564415)
(-1.0294 -2.71535e-19 0.6198)
(-1.12475 0 0.663658)
(-1.1986 -2.54108e-19 0.697278)
(-1.25358 0 0.722704)
(-1.29272 0 0.740486)
(-1.31832 0 0.750697)
(-1.33223 0 0.753962)
(-1.3361 0 0.751254)
(-1.32998 2.00207e-22 0.744794)
(-1.31523 -3.91749e-19 0.733456)
(-1.29248 0 0.717973)
(-1.26235 -7.22272e-19 0.698626)
(-1.22562 0 0.675997)
(-1.18341 0 0.650988)
(-1.13774 0 0.625181)
(-1.09118 6.09209e-19 0.60019)
(-1.04723 0 0.578337)
(-1.00953 0 0.561481)
(-0.981569 0 0.551494)
(-0.965349 0 0.548323)
(-0.960261 9.67894e-19 0.55043)
(-0.964586 0 0.558026)
(-0.975807 0 0.569063)
(-0.99347 4.16937e-19 0.584684)
(-1.02229 0 0.60904)
(-1.07407 0 0.646955)
(-1.15264 1.44055e-18 0.696697)
(-1.23876 -6.89916e-19 0.730281)
(-1.2224 0 0.657101)
(-0.944217 0 0.353103)
(-0.094601 0 -0.349753)
(1.5247 -6.01773e-19 -1.44725)
(3.80287 0 -2.53028)
(4.48085 0 -2.4903)
(3.71006 -1.8802e-18 -1.96752)
(3.37824 1.75673e-18 -1.92891)
(3.26953 0 -1.80968)
(2.23718 0 -0.855926)
(-1.16588 0 1.69065)
(-6.956 4.80294e-19 5.3826)
(-12.6156 -3.92483e-19 8.46276)
(-16.0497 -7.69692e-19 9.85488)
(-16.7592 -9.57383e-19 9.64803)
(-14.9168 -1.26259e-18 7.93679)
(-11.0483 1.5472e-18 5.34908)
(-6.69039 0 2.9039)
(-3.03985 0 1.04795)
(-0.313023 1.72211e-18 -0.270052)
(1.40449 0 -1.04834)
(2.27431 0 -1.40158)
(2.54605 0 -1.4766)
(2.48953 0 -1.41414)
(2.36302 0 -1.34285)
(2.24764 -4.87362e-18 -1.27017)
(1.95214 0 -1.05382)
(1.26681 -2.12442e-18 -0.60078)
(0.348384 0 -0.0609072)
(-0.380378 -7.21794e-23 0.303342)
(-0.639056 3.49932e-18 0.382748)
(-0.513967 0 0.266375)
(-0.246585 0 0.100146)
(0.0225252 0 -0.0500268)
(0.226438 0 -0.155415)
(0.347364 2.70631e-18 -0.210846)
(0.372775 0 -0.212705)
(0.350992 0 -0.19398)
(0.297228 0 -0.163032)
(0.308515 0 -0.174713)
(0.372298 0 -0.222549)
(0.557219 0 -0.342548)
(0.812857 0 -0.498992)
(1.14139 0 -0.695465)
(1.49945 -3.28912e-18 -0.902841)
(1.85189 0 -1.10429)
(2.1933 0 -1.29813)
(2.50184 0 -1.46972)
(2.78203 5.27609e-18 -1.62995)
(3.05196 0 -1.77875)
(3.28668 4.68422e-18 -1.91595)
(3.5484 0 -2.06093)
(3.76778 -5.98572e-22 -2.19163)
(4.04444 0 -2.34598)
(4.27402 3.6606e-18 -2.48475)
(4.5922 0 -2.66097)
(4.80203 0 -2.79587)
(5.30686 0 -3.06976)
(5.2819 5.68188e-18 -3.08578)
(6.34133 -1.06488e-17 -3.67176)
(5.85959 -9.97969e-18 -3.44495)
(7.84099 -4.66731e-18 -4.5994)
(37.3667 0 -4.23126)
(37.6494 -3.90147e-20 -4.43803)
(37.972 0 -4.9)
(37.8918 0 -5.66413)
(37.0715 -2.81126e-20 -6.57134)
(35.4383 -2.68314e-20 -7.38613)
(33.1119 2.72441e-20 -7.92953)
(30.3022 -8.47712e-20 -8.12786)
(27.2391 0 -7.99761)
(24.127 2.55184e-22 -7.60793)
(21.12 3.565e-20 -7.04432)
(18.3159 0 -6.38435)
(15.7638 0 -5.68735)
(13.4778 0 -4.99379)
(11.4506 0 -4.32883)
(9.66423 4.79814e-22 -3.70659)
(8.09584 4.37986e-22 -3.13397)
(6.72214 8.35555e-20 -2.61277)
(5.52122 8.31948e-20 -2.1425)
(4.47275 0 -1.72135)
(3.55847 -1.63059e-19 -1.34611)
(2.7626 -1.61136e-19 -1.01352)
(2.07101 0 -0.720225)
(1.47182 -3.81164e-22 -0.462555)
(0.953783 3.3273e-22 -0.237954)
(0.508491 -1.47971e-19 -0.0418984)
(0.126517 0 0.126426)
(-0.198859 0 0.270966)
(-0.473757 2.72329e-19 0.393518)
(-0.704918 3.58499e-22 0.49658)
(-0.896512 5.11314e-19 0.582126)
(-1.05362 0 0.652202)
(-1.18015 4.78454e-19 0.708382)
(-1.28003 0 0.752516)
(-1.35667 0 0.786067)
(-1.41286 -2.14735e-19 0.81115)
(-1.45236 0 0.827242)
(-1.47656 -3.98389e-19 0.834707)
(-1.48801 1.81867e-22 0.833544)
(-1.48653 3.68444e-19 0.82768)
(-1.4739 0 0.816011)
(-1.45122 1.30698e-22 0.799281)
(-1.41964 0 0.778368)
(-1.3807 0 0.754458)
(-1.3369 0 0.729532)
(-1.29131 0 0.70553)
(-1.24792 0 0.685155)
(-1.21088 5.23783e-19 0.670414)
(-1.18403 0 0.663215)
(-1.1695 0 0.663179)
(-1.16617 -4.55082e-19 0.668173)
(-1.17169 0 0.677709)
(-1.18251 -4.12195e-19 0.689406)
(-1.19738 -3.91979e-19 0.70456)
(-1.22102 7.45545e-19 0.728211)
(-1.2666 0 0.76564)
(-1.33961 -6.76637e-19 0.813963)
(-1.42201 -6.47267e-19 0.839273)
(-1.39824 0 0.737951)
(-1.10427 0 0.373243)
(-0.212879 0 -0.431002)
(1.46359 5.65044e-19 -1.64496)
(4.01421 0 -2.82749)
(5.0341 0 -2.80537)
(4.2832 8.82757e-19 -2.23051)
(3.85238 -1.65044e-18 -2.17001)
(3.57675 0 -1.91264)
(2.13053 0 -0.550958)
(-2.03294 0 2.65726)
(-8.61803 0 6.8984)
(-14.5759 -3.65992e-19 10.0101)
(-17.7715 7.21662e-19 11.0097)
(-18.0721 0 10.3506)
(-15.8932 0 8.23044)
(-11.758 -1.4501e-18 5.3902)
(-7.14945 0 2.82465)
(-3.22723 -1.64282e-18 0.890465)
(-0.231915 1.61045e-18 -0.496637)
(1.70949 0 -1.32556)
(2.72469 0 -1.70314)
(3.06 0 -1.77824)
(3.0062 0 -1.70202)
(2.84803 0 -1.60986)
(2.67498 2.28117e-18 -1.4983)
(2.28697 0 -1.20981)
(1.47952 3.97695e-18 -0.666647)
(0.450697 0 -0.0638628)
(-0.335391 -1.0195e-22 0.30947)
(-0.595137 -9.62838e-22 0.361072)
(-0.440401 0 0.21066)
(-0.135037 2.97091e-18 0.0187287)
(0.168686 0 -0.148455)
(0.397706 0 -0.263512)
(0.536197 -5.06036e-18 -0.323615)
(0.573009 0 -0.327664)
(0.566444 0 -0.315583)
(0.532008 0 -0.296631)
(0.578265 0 -0.331947)
(0.684175 0 -0.409397)
(0.928444 0 -0.5683)
(1.24454 0 -0.762781)
(1.6439 0 -1.00221)
(2.06545 3.07284e-18 -1.24608)
(2.48743 0 -1.48641)
(2.8852 0 -1.71127)
(3.25808 0 -1.91732)
(3.58609 -4.92595e-18 -2.10443)
(3.91849 -4.63744e-18 -2.28665)
(4.1952 -4.37308e-18 -2.44866)
(4.52221 4.10805e-18 -2.62909)
(4.78086 -5.8302e-22 -2.78394)
(5.12785 -3.63027e-18 -2.97697)
(5.3968 -6.83518e-18 -3.1408)
(5.79328 0 -3.35937)
(6.03567 6.02609e-18 -3.51871)
(6.64808 5.64482e-18 -3.8471)
(6.61484 0 -3.87136)
(7.85073 4.96999e-18 -4.54774)
(7.30568 4.65756e-18 -4.30282)
(9.48366 4.35641e-18 -5.57601)
(37.0589 0 -4.39307)
(37.2102 1.94966e-20 -4.6095)
(37.4845 0 -4.94579)
(37.6691 0 -5.4781)
(37.5104 2.64734e-20 -6.1784)
(36.8401 2.5262e-20 -6.93048)
(35.5968 -2.56458e-20 -7.59338)
(33.811 8.3638e-20 -8.05567)
(31.5793 0 -8.26045)
(29.0336 3.26997e-20 -8.20457)
(26.3142 -6.74248e-20 -7.92251)
(23.5498 0 -7.46691)
(20.8446 7.31336e-20 -6.8936)
(18.2735 0 -6.25259)
(15.8827 7.67233e-20 -5.58418)
(13.6952 7.81489e-20 -4.91805)
(11.717 7.86142e-20 -4.27469)
(9.94307 -7.86463e-20 -3.66675)
(8.36229 -1.56279e-19 -3.10151)
(6.96032 0 -2.5827)
(5.72159 1.53481e-19 -2.111)
(4.63083 0 -1.68556)
(3.67329 0 -1.30462)
(2.83562 -1.45604e-19 -0.965387)
(2.10503 2.84471e-19 -0.665645)
(1.47067 0 -0.40147)
(0.92182 0 -0.171337)
(0.449738 0 0.0294023)
(0.0456519 -2.5549e-19 0.201425)
(-0.297995 2.48172e-19 0.34866)
(-0.58759 -2.87026e-22 0.472943)
(-0.829592 2.3239e-19 0.577036)
(-1.02926 -4.49659e-19 0.662856)
(-1.1917 2.17041e-19 0.732892)
(-1.32177 -2.09356e-19 0.788656)
(-1.42353 1.44141e-22 0.831788)
(-1.50044 0 0.864345)
(-1.55594 3.74687e-19 0.887444)
(-1.59303 3.60456e-19 0.899203)
(-1.61368 -3.46469e-19 0.900392)
(-1.6188 0 0.895591)
(-1.6102 3.19398e-19 0.884415)
(-1.58977 3.06286e-19 0.867868)
(-1.55947 2.93628e-19 0.84756)
(-1.5223 2.81263e-19 0.825854)
(-1.48181 0 0.805002)
(-1.44245 0 0.788049)
(-1.40883 -8.42225e-24 0.777084)
(-1.3851 0 0.77398)
(-1.37353 0 0.777935)
(-1.37258 -4.2761e-19 0.78619)
(-1.37933 4.07061e-19 0.797546)
(-1.38935 3.87125e-19 0.80939)
(-1.40063 -4.21054e-23 0.823321)
(-1.4178 1.55236e-24 0.845469)
(-1.45533 0 0.88165)
(-1.5209 0 0.927871)
(-1.59978 1.21462e-18 0.944794)
(-1.57572 0 0.817736)
(-1.28691 0 0.399566)
(-0.397865 -5.49509e-19 -0.487507)
(1.26124 0 -1.79424)
(3.99943 0 -3.04438)
(5.44139 8.99665e-19 -3.07163)
(4.78901 -8.29466e-19 -2.44794)
(4.26253 1.54953e-18 -2.35731)
(3.78082 0 -1.91827)
(1.87396 -6.44491e-19 -0.0823695)
(-3.02333 0 3.80067)
(-10.2283 0 8.46893)
(-16.2002 6.83486e-19 11.3866)
(-18.9689 0 11.8428)
(-18.8674 0 10.7216)
(-16.4653 0 8.25493)
(-12.1974 0 5.23513)
(-7.44922 0 2.61257)
(-3.33787 1.53844e-18 0.6511)
(-0.129615 -1.59517e-21 -0.766192)
(2.01543 -1.44248e-18 -1.62434)
(3.17796 1.36488e-18 -2.01716)
(3.58702 0 -2.09)
(3.54354 0 -1.99958)
(3.35191 0 -1.88292)
(3.11197 0 -1.72496)
(2.6273 0 -1.35891)
(1.70842 7.86124e-22 -0.730284)
(0.590751 0 -0.0793568)
(-0.233808 -1.6174e-18 0.287448)
(-0.48792 -1.00207e-21 0.30303)
(-0.305797 0 0.117819)
(0.0330705 -2.77775e-18 -0.0976593)
(0.367434 0 -0.27911)
(0.619869 2.50162e-18 -0.402097)
(0.777463 3.32977e-22 -0.467033)
(0.830333 0 -0.475988)
(0.846491 0 -0.474545)
(0.839483 0 -0.472641)
(0.927814 0 -0.537527)
(1.08163 3.53136e-18 -0.646643)
(1.38872 0 -0.847448)
(1.76523 0 -1.08018)
(2.23699 3.02098e-18 -1.36362)
(2.7198 0 -1.64259)
(3.21388 -2.72025e-18 -1.92291)
(3.66584 2.57679e-18 -2.17744)
(4.10748 0 -2.41985)
(4.48107 9.19929e-18 -2.6327)
(4.88177 8.47947e-22 -2.85092)
(5.19721 8.16608e-18 -3.03627)
(5.59596 -3.83575e-18 -3.25514)
(5.88909 -3.61293e-18 -3.43192)
(6.31263 3.38932e-18 -3.6665)
(6.61434 3.1904e-18 -3.8523)
(7.09422 2.98945e-18 -4.11515)
(7.36122 -5.62546e-18 -4.29577)
(8.07995 -5.26934e-18 -4.67602)
(8.0397 -4.94902e-18 -4.71171)
(9.42119 -4.63796e-18 -5.45894)
(8.84668 0 -5.21667)
(11.1356 0 -6.56066)
(36.7731 0 -4.4961)
(36.8553 2.17629e-20 -4.71524)
(37.0405 0 -5.00061)
(37.2344 0 -5.39802)
(37.302 0 -5.92149)
(37.1191 0 -6.53573)
(36.5868 3.05358e-20 -7.16421)
(35.6465 -2.76189e-20 -7.71722)
(34.2863 3.03851e-20 -8.12037)
(32.5381 -6.02889e-20 -8.32993)
(30.466 6.33856e-20 -8.33384)
(28.1544 0 -8.14501)
(25.6948 -6.87483e-20 -7.79222)
(23.1768 0 -7.31204)
(20.6796 -7.21241e-20 -6.74266)
(18.2671 -7.26373e-20 -6.11953)
(15.9852 0 -5.47298)
(13.8625 0 -4.8269)
(11.9138 7.33035e-20 -4.19894)
(10.1431 0 -3.60152)
(8.54718 0 -3.04236)
(7.11824 -1.41264e-19 -2.52576)
(5.84598 0 -2.0537)
(4.71904 0 -1.62597)
(3.72535 -1.33571e-19 -1.242)
(2.85342 0 -0.899058)
(2.09177 0 -0.595938)
(1.42983 0 -0.328828)
(0.857725 4.7997e-19 -0.0962063)
(0.365923 0 0.10559)
(-0.0538252 -2.75076e-22 0.278531)
(-0.409411 -2.35544e-22 0.425845)
(-0.707949 2.11191e-19 0.549624)
(-0.95581 -2.03975e-19 0.653066)
(-1.15937 3.93321e-19 0.737949)
(-1.32388 1.89672e-19 0.806599)
(-1.45464 0 0.860434)
(-1.55554 0 0.900998)
(-1.62997 3.38255e-19 0.931373)
(-1.68247 -3.25142e-19 0.947691)
(-1.71459 0 0.95261)
(-1.72862 0 0.94994)
(-1.72664 -1.03177e-22 0.940979)
(-1.71152 -2.75761e-19 0.927042)
(-1.68662 -2.64128e-19 0.911159)
(-1.65607 -5.05485e-19 0.89577)
(-1.62473 0 0.884248)
(-1.59761 -1.9106e-24 0.878714)
(-1.57919 0 0.880968)
(-1.57208 0 0.889623)
(-1.5743 4.01346e-19 0.901609)
(-1.58275 -3.82024e-19 0.91485)
(-1.59233 0 0.926667)
(-1.60036 3.4543e-19 0.939178)
(-1.61132 -3.80407e-24 0.959815)
(-1.64078 0 0.995084)
(-1.69921 0 1.03997)
(-1.77727 -1.13826e-18 1.05044)
(-1.76269 0 0.902906)
(-1.50185 0 0.441569)
(-0.658879 1.02972e-18 -0.508543)
(0.920554 0 -1.889)
(3.73714 0 -3.1755)
(5.68432 -1.68767e-18 -3.27237)
(5.21157 7.77392e-19 -2.61442)
(4.60131 -7.26496e-19 -2.48324)
(3.8811 0 -1.81702)
(1.48161 6.03813e-19 0.54932)
(-4.08789 0 5.09611)
(-11.7086 -3.99026e-19 10.0346)
(-17.4228 -3.18918e-19 12.5336)
(-19.6689 0 12.3591)
(-19.2553 0 10.7934)
(-16.7369 9.79847e-19 8.07613)
(-12.4419 1.2357e-18 4.93235)
(-7.6308 0 2.29427)
(-3.39228 0 0.34289)
(-0.0176964 -2.81787e-18 -1.07268)
(2.31451 1.34988e-18 -1.94221)
(3.62948 -2.55416e-18 -2.34297)
(4.12556 0 -2.41214)
(4.10262 0 -2.30734)
(3.87779 0 -2.16271)
(3.56427 0 -1.95181)
(2.98193 0 -1.50506)
(1.96445 7.68422e-22 -0.797641)
(0.778728 0 -0.11337)
(-0.0688857 0 0.233071)
(-0.313936 -1.03806e-21 0.206184)
(-0.108089 0 -0.0141985)
(0.260122 -2.59461e-18 -0.250503)
(0.621631 0 -0.44419)
(0.89677 -2.33794e-18 -0.573841)
(1.07567 3.27223e-22 -0.644302)
(1.14946 0 -0.660636)
(1.19487 0 -0.673432)
(1.22142 0 -0.692333)
(1.35687 0 -0.790193)
(1.55971 -9.90431e-22 -0.934083)
(1.93129 3.12687e-18 -1.17811)