/*--------------------------------*- C++ -*----------------------------------*\
| =========                 |                                                 |
| \\      /  F ield         | OpenFOAM: The Open Source CFD Toolbox           |
|  \\    /   O peration     | Version:  2412                                  |
|   \\  /    A nd           | Website:  www.openfoam.com                      |
|    \\/     M anipulation  |                                                 |
\*---------------------------------------------------------------------------*/
FoamFile
{
    version     2.0;
    format      ascii;
    arch        "LSB;label=32;scalar=64";
    class       surfaceScalarField;
    location    "0.825";
    object      ddtCorrDdt0(phi);
}
// * * * * * * * * * * * * * * * * * * * * * * * * * * * * * * * * * * * * * //

dimensions      [0 3 -2 0 0 0 0];

oriented        oriented;

internalField   nonuniform List<scalar> 
24930
(
-0.00196164
-0.0115634
0.00245224
0.00234895
-0.00535969
0.00054675
-0.00398901
-0.000342204
-0.00227577
-0.00126831
-0.000936607
-0.00161166
-0.00121885
0.00109455
-0.00234761
0.00566453
-0.00186543
0.0051487
0.00113435
-0.00417727
0.00505479
-0.00720929
-0.00181998
0.00506842
-0.00745001
0.0188689
-0.000668712
0.00738721
0.0117907
-0.0228003
0.00682677
-0.0253153
-0.0150863
0.0203177
-0.0201425
0.0553255
0.0100653
0.011246
0.0296325
-0.0663252
-0.0056772
-0.0549038
-0.037986
0.0459596
0.034862
0.0602631
0.0665119
-0.0337176
-0.0292945
-0.0229377
-0.170634
0.0840516
-0.202702
-0.0154005
0.511576
-0.0668858
-0.108695
0.00813815
-0.144642
0.0308436
0.0276538
-0.0123824
0.0218018
-0.0225165
-0.0287023
0.00488339
-0.00689692
0.0144865
0.0192418
-0.00088161
0.00638128
-0.00972113
-0.0114862
-0.00226
-0.00684465
0.00492796
0.00564155
0.00237057
0.0064554
-0.00243962
-0.00112816
-0.00202706
-0.00447475
0.0011348
-3.81914e-05
0.00200896
0.00110603
0.00038981
0.000451286
-0.000499919
-0.000752262
0.000356438
-0.000960362
0.00126108
-0.000328322
0.00104885
2.2915e-05
0.000385702
1.02337e-05
0.000256876
-0.00102537
0.000573519
-0.00125298
0.000659613
-0.000603921
0.000433294
1.37219e-05
-1.40827e-05
0.00152319
-2.42549e-05
0.000491271
0.000268733
-0.00048303
0.000463201
-0.000768498
0.000259978
0.00197679
0.000125456
0.0019212
0.000198014
0.00124024
0.000229218
0.0014151
-4.01214e-05
0.00165
-0.000504741
0.000545309
-0.000834957
9.23774e-06
-0.000747407
-0.00235435
-0.000163213
-0.00540552
0.000809985
-0.00814932
0.00193487
-0.00770573
0.00304618
-0.00273368
0.00453165
-0.0017331
0.00666122
-0.0030312
0.00930596
-0.00379037
0.0118208
-0.0001276
0.0130383
0.0104214
0.0105184
0.0268447
0.00827066
0.00841325
0.00729011
-0.00227368
0.0061605
-0.00922672
0.00583802
-0.00477449
0.000637091
0.0115948
-0.00701271
0.0199514
-0.0144141
0.0471292
-0.012258
-0.00683046
-0.00138182
-0.0209635
0.0104399
-0.0238292
0.0133954
-0.00363513
0.0063425
0.00661106
0.000451511
-0.000206134
0.00698937
0.00587831
0.00230852
-0.191924
0.00101816
-0.147462
-0.151123
0.168279
-0.185227
0.0359582
0.154902
-0.18758
0.208258
-0.0878776
0.0129821
0.1605
-0.00726951
-0.343985
-0.0185727
0.0332884
-0.0360494
0.305132
-0.0130531
0.00919838
-0.00164039
0.013032
0.0103505
-0.0996715
0.0351244
-0.0937909
0.0540748
-0.0236023
0.0665728
-0.00670592
0.063857
0.00449824
0.0300739
0.0315867
-0.0275968
0.0691615
-0.0658682
0.0434896
-0.0688101
0.014084
-0.0472215
-0.0186623
-0.0387928
-0.00710651
-0.0386508
0.00227005
-0.0220717
-0.0156937
-0.00975727
-0.0154546
-0.00282067
-0.0080692
0.00669285
-0.0190774
0.0101679
-0.00794379
0.00321239
0.00403831
0.00401062
-0.00850613
-0.0144863
0.00807919
-0.00611964
-0.0143612
-0.0042197
-0.00930947
-0.00365328
-0.00597544
-0.00426791
-0.00414159
-0.00302939
-0.00241777
0.00206758
0.00183676
0.00598587
0.00589133
0.000670822
0.00119186
-0.00778625
-0.00925752
-0.00431848
-0.0114126
0.0135364
0.00600492
0.0205803
0.0223026
-0.00198704
0.00790784
-0.0311193
-0.0255332
-0.013848
-0.0275334
0.0417308
0.0183583
0.053582
0.0377122
-0.0172954
-0.0185279
-0.0755848
-0.0392667
-0.0215292
0.0624119
0.0629233
0.00717873
0.0309835
-0.25968
-0.0362554
-0.0500213
0.0207804
0.494144
0.0642263
-0.304216
-0.0503325
0.422523
-0.0513557
-0.237341
0.0260434
-0.125599
0.0241854
0.0592392
-0.0197918
-0.00752579
-0.0187477
-0.0532329
0.00959853
0.0111421
0.0134664
0.0397983
-0.00355246
-0.00150913
-0.00981479
-0.0274994
-0.000884652
-0.00608026
0.00531912
0.0159167
0.00172816
0.00835493
-0.00278899
-0.00752399
-0.00163119
-0.00756934
0.00176615
0.00247874
0.00229428
0.00516035
0.00059148
-0.000140448
-2.1617e-05
-0.00373803
0.00108078
-0.0016945
0.00201095
0.00119817
0.00172789
0.000705415
0.00108257
-0.00145557
0.00102809
-0.00215644
0.00138745
-0.00100143
0.00143111
7.19341e-05
0.00108327
-0.000508234
0.000551706
0.0017975
0.000455508
0.000574558
0.000612596
0.001216
0.000525043
-0.00086076
-2.09931e-05
0.00256366
-0.000556608
0.0014277
-0.000954296
0.00144963
-0.00142412
0.00201152
-0.00217586
0.00187177
-0.00291781
0.000674421
-0.00315716
-0.000911984
-0.00235537
-0.00324781
-0.000367967
-0.00543702
0.00276477
-0.00744929
0.00658782
-0.00883409
0.0111265
-0.0100519
0.0167087
-0.010575
0.0235392
-0.0112034
0.0310496
-0.0121036
0.037662
-0.0112173
0.0412792
0.000834636
0.0384701
0.0358922
0.0328855
0.00214327
0.0260325
0.00462936
0.0178452
0.012401
0.00954683
0.0210198
-0.00549488
0.0326507
-0.022627
0.0252197
-0.0350443
0.0436104
-0.0312774
-0.0184985
-0.00933396
-0.0286125
0.0198563
-0.0272282
0.040741
-0.0180195
0.0373298
-0.00251993
0.01932
0.0110407
0.00724584
0.0283331
-0.0226067
-0.139421
-0.0385703
0.0108172
-0.458429
0.537197
-0.469585
-0.000887945
0.524178
-1.25893
0.594803
-0.0990883
0.0162708
0.814882
-0.0283884
-0.110331
-0.026404
-0.085804
-0.0821434
0.152979
-0.0417392
-0.027181
-0.0196522
0.0153412
0.0355465
-0.0886864
0.138371
-0.146653
0.200529
-0.0903637
0.215561
-0.0260861
0.183785
0.0396806
0.0705927
0.151614
-0.106131
0.232777
-0.218963
0.139912
-0.215889
-0.00341936
-0.147721
-0.0842878
-0.12455
-0.0234804
-0.12508
0.00239816
-0.0712346
-0.0745273
-0.02956
-0.0559728
-0.00778276
-0.0277314
0.0230406
-0.0413019
0.0321569
-0.0163051
0.00727603
0.0285012
0.0181805
-0.0133037
-0.014954
0.0100741
-0.0126929
-0.0159217
-0.0102964
-0.0111666
-0.00914161
-0.00727256
-0.0088433
-0.00461359
-0.00585808
-0.00150021
0.000264126
0.00293347
0.00243525
0.00387137
-0.00485126
-0.00374405
-0.0112354
-0.011349
-0.00172868
-0.00472369
0.0178542
0.0149618
0.0173151
0.0198969
-0.0142747
-0.00816978
-0.0361746
-0.0364979
-0.00304892
-0.0104907
0.055349
0.047532
0.0427202
0.0349688
-0.044101
-0.0658724
-0.0733931
-0.0718733
0.0173657
0.0863264
0.0665238
0.0282232
-0.00462395
-0.192553
-0.0185572
0.0773769
0.0608172
0.617854
0.00919502
-0.516372
-0.0768203
0.0466602
-0.0206205
-0.254707
0.0425905
-0.0382326
0.0155655
0.0949567
-0.0252245
-0.0375655
-0.0143196
-0.0591575
0.0132784
0.0271825
0.012393
0.0447537
-0.00521546
-0.0106113
-0.00928717
-0.0327329
0.000498891
-0.00179976
0.00584693
0.0204608
0.00158474
0.00707677
-0.00264595
-0.0109085
-0.000965103
-0.00809653
0.00252256
0.00403199
0.00286814
0.00585626
0.00110782
-0.00122873
0.000640195
-0.00487071
0.00188527
-0.00174693
0.00282848
0.00152123
0.00249381
0.000435194
0.00182675
-0.00227721
0.00180848
-0.00272338
0.00219115
-0.00109202
0.0022052
0.000272463
0.00169014
-0.00100965
0.00110392
0.000606938
0.000903196
0.000629122
0.000893452
0.0027654
0.000463737
0.00196746
-0.00045908
0.00360371
-0.00144521
0.00263475
-0.00236098
0.00290376
-0.00336764
0.00345711
-0.00457732
0.00289861
-0.00557451
0.000831256
-0.00558617
-0.00190209
-0.00391717
-0.00525899
-0.000274873
-0.00872042
0.00538432
-0.0128412
0.0124717
-0.0169377
0.0210259
-0.0209642
0.031333
-0.0241831
0.0434566
-0.0268921
0.0562607
-0.0291603
0.0670837
-0.029839
0.0729045
-0.0150005
0.0695727
0.0337155
0.0597747
0.00347858
0.0459961
0.0208119
0.0293877
0.0377178
0.0121053
0.0481616
-0.0133489
0.0608414
-0.039976
0.0437187
-0.05736
0.0561076
-0.0508594
-0.0262301
-0.0163008
-0.0534421
0.0316592
-0.0670519
0.0704823
-0.0618602
0.068418
-0.0113206
0.035979
0.0450574
0.00218193
0.0858947
-0.0541728
0.0410698
-0.0966862
0.0471355
-0.741322
1.14175
-0.759903
-0.00570944
0.838438
-2.8158
1.00205
-0.253509
0.0482592
1.78715
-0.0423801
-0.272033
-0.0361027
-0.151926
-0.131404
0.189091
-0.0738698
-0.0611227
-0.0326346
-0.00254825
0.0801143
-0.205927
0.269366
-0.338942
0.36621
-0.189222
0.361143
-0.0194696
0.283895
0.117992
0.0889674
0.341692
-0.202552
0.524624
-0.383339
0.31736
-0.363185
-0.0208592
-0.241835
-0.199455
-0.208078
-0.0520461
-0.208759
0.00435124
-0.121116
-0.164421
-0.04791
-0.129111
-0.00909054
-0.0666234
0.042839
-0.0934703
0.0533164
-0.0283821
0.00806324
0.0727263
0.0412392
-0.0143917
-0.0108701
0.0103046
-0.0153828
-0.0123595
-0.0143857
-0.00917652
-0.0140795
-0.00616242
-0.0134698
-0.00411673
-0.00949474
-0.00158661
-0.0036032
0.00141599
-0.00337156
0.00068973
-0.0107932
-0.00554387
-0.0134345
-0.00887641
0.000495717
7.98059e-05
0.0182704
0.0141484
0.0101182
0.0100891
-0.0239594
-0.016369
-0.0357637
-0.0283065
0.00945659
0.00847049
0.0587776
0.0485726
0.0272471
0.00643218
-0.0566723
-0.0818888
-0.059169
-0.0457583
0.0286712
0.0984845
0.0531812
0.0719349
-0.00348909
-0.0705861
0.0108757
0.101987
0.0527497
0.267821
-0.0580724
-0.593805
-0.0676936
-0.109749
0.0164467
-0.0529877
0.0517741
0.0672096
0.00398808
0.103813
-0.028628
-0.0677501
-0.00918049
-0.0526705
0.0158203
0.0402621
0.0105172
0.0415033
-0.00668365
-0.0190167
-0.00843508
-0.032744
0.00177716
0.00347339
0.00610338
0.0222948
0.00136974
0.00438987
-0.00239809
-0.0133347
-0.000217593
-0.00777417
0.00327718
0.00511528
0.00343949
0.00558729
0.00168268
-0.00244118
0.00138695
-0.00552535
0.00275799
-0.00152846
0.0036951
0.00178634
0.00330865
0.00021758
0.00262932
-0.00267998
0.00263278
-0.00285878
0.003015
-0.000955192
0.00297691
0.00035254
0.00226496
-0.00118901
0.00158367
-2.31168e-05
0.00123861
0.00112388
0.00100102
0.00382456
0.000180921
0.00427001
-0.00115531
0.00467298
-0.00262931
0.00408032
-0.00407827
0.00478032
-0.00561606
0.00537501
-0.00725337
0.00438561
-0.00843126
0.00125639
-0.00812655
-0.00333794
-0.00542006
-0.00865798
0.000138542
-0.0144367
0.00869826
-0.0216429
0.0195553
-0.028948
0.0327041
-0.036166
0.0483512
-0.0427468
0.0663453
-0.048526
0.0848872
-0.0527982
0.100038
-0.0537804
0.108066
-0.0358201
0.103885
0.00404626
0.0889553
0.0115132
0.0672476
0.0454461
0.0410793
0.0724395
0.013935
0.0856157
-0.0224523
0.0999627
-0.0589312
0.0733934
-0.080597
0.0985261
-0.0701979
-0.0350904
-0.0212792
-0.0917781
0.046247
-0.125841
0.101598
-0.122273
0.0981266
-0.0190624
0.0465342
0.0999914
-0.00841285
0.164804
-0.0855293
0.200848
-0.172095
0.124904
-0.931769
1.85966
-1.06096
0.0992291
0.981947
-4.82082
1.41464
-0.660992
0.125901
3.08786
-0.0477469
0.105428
-0.0476653
-0.21341
-0.181411
0.277709
-0.1077
-0.109891
-0.0374169
-0.048391
0.146865
-0.377849
0.378409
-0.57382
0.54415
-0.359935
0.495865
0.0315187
0.35673
0.260352
0.0800697
0.620882
-0.317388
0.904701
-0.555117
0.549671
-0.503011
-0.0737972
-0.324675
-0.373661
-0.288625
-0.0840156
-0.295794
0.0116437
-0.169967
-0.292053
-0.06407
-0.23443
-0.00566403
-0.124661
0.0659627
-0.164942
0.0732196
-0.0369479
0.00510371
0.139309
0.0718831
-0.0142416
-0.00568516
0.0118497
-0.0153898
-0.00688239
-0.0156725
-0.00527565
-0.0167109
-0.00374693
-0.0167305
-0.00305211
-0.0130243
-0.00179835
-0.00837983
-0.000203453
-0.00991632
-0.00137455
-0.0167122
-0.00562877
-0.0156535
-0.00676798
0.000951175
0.00037214
0.0155866
0.0080642
0.00163574
0.00140894
-0.0313989
-0.0154552
-0.0331877
-0.0129704
0.0169457
0.0195595
0.0547963
0.0310863
0.0113101
-0.0259013
-0.0596372
-0.0758808
-0.0438654
0.00527825
0.0305103
0.126651
0.0390879
0.0901187
0.00880793
-0.0126518
0.0266352
0.0131102
-0.00958163
-0.160555
-0.0879845
-0.556278
-0.0246869
-0.170527
0.0488861
0.164562
0.0496036
0.0745749
-0.0102336
0.040206
-0.0294728
-0.0903857
-0.00348887
-0.0402589
0.0172614
0.0488682
0.00803747
0.0342121
-0.00788477
-0.0251962
-0.00729896
-0.029762
0.00292532
0.00827894
0.0061007
0.0223102
0.00108242
0.00133808
-0.00207591
-0.0149565
0.000566793
-0.00707555
0.00399056
0.00588172
0.00396564
0.00502937
0.00225075
-0.00363609
0.00214042
-0.00615379
0.00361636
-0.00146396
0.00452408
0.00184953
0.00407773
-7.62656e-05
0.0033844
-0.0030331
0.00339506
-0.00287987
0.00374864
-0.000714954
0.00360986
0.0004112
0.00272384
-0.00101095
0.00188842
0.000140904
0.0013429
0.00205421
0.000814025
0.00492358
-0.000396957
0.00611529
-0.00219277
0.00628345
-0.00416773
0.00632512
-0.00614994
0.00753573
-0.00819827
0.00814059
-0.0102277
0.00653744
-0.0115202
0.00187064
-0.0107961
-0.00505767
-0.00689778
-0.0133106
0.00081903
-0.0225326
0.012643
-0.0338631
0.0277508
-0.0450132
0.0460416
-0.0562438
0.0676032
-0.0666875
0.0919577
-0.0758243
0.116575
-0.0816798
0.136312
-0.0801558
0.146315
-0.0607784
0.140511
-0.00550217
0.119866
0.0291633
0.0893598
0.0794348
0.0527033
0.116749
0.0149932
0.133069
-0.0325803
0.15091
-0.0784923
0.113094
-0.103721
0.0710933
-0.0878225
-0.0484764
-0.0234342
-0.144821
0.0638652
-0.204213
0.132691
-0.196801
0.123116
-0.0216405
0.0482734
0.178412
-0.0226262
0.258344
-0.115404
0.320344
-0.257066
0.24863
-0.935487
2.49267
-1.42341
0.565306
0.789979
-6.97314
1.79453
-1.64617
0.24691
4.63978
-0.0416227
0.367559
-0.0606503
-0.255654
-0.230592
0.432691
-0.141295
-0.171369
-0.0316217
-0.132437
0.238499
-0.618105
0.593151
-0.936514
0.728499
-0.498422
0.610817
0.151533
0.397465
0.476291
0.0413675
0.972316
-0.44881
1.38671
-0.727162
0.824559
-0.630207
-0.168978
-0.392778
-0.605395
-0.365596
-0.106429
-0.37956
0.0264094
-0.218534
-0.454406
-0.0781338
-0.374153
0.00270396
-0.205272
0.0918081
-0.254471
0.0912025
-0.0381011
-0.000591292
0.229457
0.10887
-0.0140543
-0.00195493
0.0138458
-0.0143527
-0.00244404
-0.0151737
-0.00171437
-0.0171714
-0.00136588
-0.0178502
-0.00161436
-0.0150045
-0.00124971
-0.0123341
-0.000635252
-0.0159077
-0.00202806
-0.0224301
-0.00539093
-0.0186908
-0.00640492
-0.000724406
-0.0021131
0.010975
0.00168663
-0.00648458
-0.00307397
-0.0367988
-0.00976364
-0.0312601
2.77562e-06
0.0186958
0.0204232
0.0458152
0.00797367
-0.000173947
-0.047338
-0.0539772
-0.0563059
-0.029634
0.0480885
0.0262487
0.141274
0.0264846
0.075471
0.0111697
-0.0376838
0.0105262
-0.111097
-0.0533696
-0.334845
-0.0656904
-0.328363
0.0125917
0.0373396
0.0700095
0.289303
0.0257381
0.102535
-0.0232586
-0.0282279
-0.0272406
-0.0897787
0.00273314
-0.0194631
0.0175413
0.0538702
0.00501869
0.0242401
-0.00876788
-0.029465
-0.00587162
-0.0245517
0.00393169
0.0124857
0.00581943
0.020643
0.000711337
-0.00209005
-0.00168257
-0.0157714
0.00137557
-0.0058659
0.00462319
0.00640204
0.00439311
0.00408858
0.00276788
-0.00482576
0.00286421
-0.00655887
0.00441761
-0.00130867
0.00526225
0.00185278
0.00474415
-0.000383619
0.00403372
-0.00325332
0.00403463
-0.00270596
0.00432295
-0.000278544
0.00404215
0.000671601
0.00298929
-0.000582121
0.00194606
0.000830055
0.00118478
0.00331256
0.000297415
0.00628391
-0.0013472
0.00800391
-0.00361355
0.008463
-0.00609287
0.00926378
-0.00859344
0.0110142
-0.01112
0.0115442
-0.0134927
0.00911502
-0.0148401
0.00263893
-0.0136229
-0.00716728
-0.00841501
-0.0191967
0.00165996
-0.0329428
0.0170735
-0.049634
0.0368896
-0.0656661
0.0608695
-0.0817009
0.0888805
-0.0965769
0.120013
-0.109287
0.150961
-0.116206
0.175275
-0.110135
0.187218
-0.0829322
0.179373
-0.00557418
0.152305
0.0532087
0.112199
0.122095
0.0642933
0.171837
0.0157465
0.191111
-0.0430968
0.207861
-0.0978607
0.162727
-0.125307
0.0812865
-0.102401
-0.0683464
-0.0194058
-0.215551
0.0845251
-0.298513
0.162011
-0.280414
0.140082
-0.0128275
0.0387624
0.283267
-0.0380206
0.35846
-0.136979
0.438894
-0.346521
0.437806
-0.691648
2.78877
-1.91682
1.76797
0.0760721
-8.90185
2.08993
-3.63351
0.406373
6.32758
-0.0209917
0.739634
-0.074519
-0.265667
-0.277818
0.620612
-0.172429
-0.246898
-0.00988185
-0.268132
0.358024
-0.980154
0.799199
-1.38492
0.908726
-0.612089
0.695931
0.366877
0.40274
0.772292
-0.0227477
1.39892
-0.589162
1.94905
-0.893102
1.12143
-0.739142
-0.322444
-0.445574
-0.893498
-0.440228
-0.107307
-0.46617
0.0526334
-0.267703
-0.654459
-0.0901494
-0.55095
0.0161572
-0.311334
0.119677
-0.358426
0.106158
-0.0263905
-0.00931088
0.347045
0.150329
-0.0139412
-0.000170725
0.0149734
-0.0134897
-8.36482e-06
-0.0144785
0.000345021
-0.0167324
0.000101578
-0.0172942
-0.000326384
-0.0149267
-9.60443e-05
-0.0142951
7.52815e-05
-0.0203104
-0.00159393
-0.0274273
-0.00488471
-0.0222432
-0.00651765
-0.0037104
-0.00451894
0.005798
-0.00266212
-0.0135048
-0.00472064
-0.041263
-0.00446896
-0.0321537
0.00691174
0.0142103
0.0154258
0.034196
-0.0101221
-0.0058229
-0.0545814
-0.0424998
-0.0367151
-0.0184569
0.0622905
0.0166799
0.116799
0.00983792
0.0352643
0.00113098
-0.0743615
-0.0169543
-0.161451
-0.0592272
-0.254686
-0.0308982
-0.0769127
0.0413038
0.202951
0.0608571
0.262063
0.00550965
0.0382698
-0.0305179
-0.104433
-0.0212301
-0.0646531
0.00868437
0.0123746
0.0163463
0.0531313
0.00156762
0.012521
-0.00926739
-0.0315374
-0.00426923
-0.0181382
0.00466236
0.0154744
0.00520618
0.017386
0.000248352
-0.00558054
-0.00124625
-0.0156919
0.00215258
-0.0042281
0.00511683
0.0066343
0.00467734
0.00283969
0.00319969
-0.00588358
0.00352238
-0.00664584
0.00511969
-0.00101264
0.00586514
0.00182708
0.00526502
-0.000679262
0.00453508
-0.00333394
0.00450688
-0.00233636
0.00469002
0.000338408
0.00422679
0.00118102
0.00297218
0.000207786
0.00170185
0.00208105
0.000622544
0.00491838
-0.000613762
0.00802618
-0.0026892
0.0102488
-0.00542511
0.0112385
-0.00839351
0.0128795
-0.0113816
0.0151413
-0.014344
0.0154891
-0.0170117
0.0120467
-0.0183688
0.00348349
-0.0166179
-0.00970712
-0.0100269
-0.0263011
0.00254984
-0.0456268
0.021827
-0.0689951
0.0467633
-0.0911242
0.0769252
-0.112942
0.111844
-0.13286
0.150054
-0.149169
0.187441
-0.156242
0.216272
-0.143093
0.229773
-0.102886
0.219345
0.00628286
0.185555
0.0847812
0.135504
0.175923
0.0759442
0.238186
0.0162263
0.25992
-0.053052
0.282554
-0.115659
0.220142
-0.144531
0.100878
-0.11233
-0.0970274
-0.0120192
-0.302442
0.107945
-0.408148
0.187422
-0.366548
0.145667
0.014647
0.0168208
0.415404
-0.0501091
0.449198
-0.147778
0.552781
-0.440628
0.706506
-0.264616
2.56068
-2.61921
4.09713
-1.22229
-10.2257
2.24971
-7.07506
0.59001
7.99376
0.0159859
1.24974
-0.0884295
-0.226877
-0.322542
0.843492
-0.198668
-0.339008
0.0300634
-0.468296
0.505678
-1.44763
1.02072
-1.9081
1.07329
-0.668862
0.74125
0.701095
0.376546
1.13971
-0.104519
1.87702
-0.728924
2.56468
-1.04571
1.43291
-0.827924
-0.538775
-0.485901
-1.2293
-0.513821
-0.0745327
-0.552402
0.0916747
-0.320312
-0.88803
-0.101009
-0.769357
0.0341511
-0.446176
0.148609
-0.473432
0.118627
0.00158689
-0.0193239
0.458125
0.194757
-0.0139837
0.000292124
0.0152695
-0.0133135
0.000770801
-0.0144576
0.000953538
-0.0164264
0.000562491
-0.0160761
0.000430846
-0.0134644
0.000999292
-0.0143584
0.00119638
-0.0226912
-0.000470762
-0.0308356
-0.00356536
-0.0250679
-0.00550696
-0.00650589
-0.00514221
0.00129691
-0.00493362
-0.0191672
-0.00580956
-0.0456442
-0.00201844
-0.0365448
0.00919534
0.00454939
0.0107965
0.0217813
-0.0182153
-0.00680556
-0.0522736
-0.0295215
-0.0286316
-0.0132487
0.0446656
-7.82202e-05
0.0662116
-0.0103059
-0.00172063
-0.0142165
-0.0693387
-0.0329187
-0.110477
-0.0420557
-0.0778567
0.000534199
0.103671
0.050495
0.243394
0.0393444
0.162178
-0.0119403
-0.0457248
-0.0340996
-0.12896
-0.0118625
-0.0474651
0.0127165
0.0387537
0.0134326
0.040668
-0.00214842
-0.00238657
-0.00936614
-0.0311985
-0.00267067
-0.0118161
0.00494604
0.0167682
0.0042102
0.0127507
-0.000315468
-0.00876927
-0.000818824
-0.0146965
0.00281079
-0.00232859
0.00539309
0.00650282
0.00476547
0.0013656
0.00350389
-0.00669195
0.00406766
-0.00634455
0.00566983
-0.000539573
0.00628187
0.00181448
0.00559509
-0.000904678
0.00484691
-0.00321956
0.0047702
-0.00173541
0.00480662
0.00115323
0.0041179
0.00196734
0.00269613
0.00130237
0.00110238
0.00387964
-0.000161794
0.00676454
-0.00189585
0.00995124
-0.00439578
0.0128556
-0.00759934
0.0145883
-0.0110245
0.0170912
-0.0144543
0.0198063
-0.0178039
0.0198685
-0.0207258
0.0152599
-0.02207
0.00436789
-0.0197919
-0.0126575
-0.0118116
-0.0345792
0.00332162
-0.0605412
0.0266469
-0.0919888
0.0570388
-0.121578
0.0938008
-0.150291
0.135989
-0.175888
0.181458
-0.195698
0.225287
-0.201855
0.258498
-0.179086
0.273217
-0.121998
0.260661
0.0203954
0.219861
0.12511
0.159424
0.237462
0.0879021
0.315707
0.0173497
0.338963
-0.0618521
0.362774
-0.130898
0.283547
-0.159093
0.122046
-0.116092
-0.135955
0.00177157
-0.405642
0.133528
-0.528838
0.206564
-0.44692
0.136822
0.0687453
-0.017209
0.57236
-0.0529027
0.509537
-0.14662
0.661286
-0.553805
1.08646
0.10598
1.8463
-3.47763
7.64976
-2.85141
-10.7716
2.26367
-12.1552
0.782718
9.48537
0.0719299
1.89157
-0.100458
-0.122294
-0.364543
1.09636
-0.217598
-0.452397
0.0920447
-0.747607
0.682099
-2.03178
1.25044
-2.48465
1.20938
-0.632688
0.745236
1.16708
0.326976
1.56085
-0.186766
2.38313
-0.855478
3.22379
-1.17999
1.74987
-0.89641
-0.821194
-0.51975
-1.59951
-0.587125
-0.00234258
-0.6389
0.1437
-0.380562
-1.14798
-0.112168
-1.03673
0.0558464
-0.613799
0.177798
-0.595985
0.127841
0.0493909
-0.0298883
0.639207
0.241205
-0.0141859
0.000189139
0.0152482
-0.0136252
0.000697546
-0.0150551
0.00081261
-0.0165685
0.000479346
-0.0149964
0.000702793
-0.0117117
0.00166319
-0.0135025
0.00213757
-0.0234772
0.000913053
-0.0323116
-0.00141705
-0.0261682
-0.00305033
-0.00784547
-0.00388903
-0.00148468
-0.00569114
-0.022891
-0.00702981
-0.0494873
-0.00169313
-0.0432628
0.00995698
-0.00834559
0.009916
0.00910504
-0.0172508
-0.00653127
-0.0461505
-0.0196974
-0.0320681
-0.0146326
0.0111241
-0.0185717
0.0179473
-0.0276474
-0.0137309
-0.0255069
-0.0253959
-0.0334635
-0.0143106
-0.0204495
0.0620436
0.0178187
0.169608
0.0409303
0.181805
0.0138951
0.0458048
-0.0248683
-0.0978448
-0.0295955
-0.106121
-0.00388726
-0.00921734
0.0141388
0.0543875
0.00788143
0.0295804
-0.0056285
-0.0167215
-0.00910651
-0.0274134
-0.00127627
-0.00660379
0.00460749
0.0161111
0.00280944
0.00722708
-0.000980884
-0.0112513
-0.00046735
-0.0128753
0.00324933
-0.0004364
0.00537505
0.00589655
0.00461418
-0.000243127
0.00364493
-0.00715649
0.00445517
-0.00563786
0.00601843
9.92622e-05
0.00646873
0.0018339
0.00569922
-0.0010091
0.00493849
-0.00286352
0.00479455
-0.000883851
0.00464805
0.00216496
0.00371154
0.00300811
0.00204289
0.00272137
0.000308946
0.00597753
-0.00143993
0.00907015
-0.00340676
0.0114134
-0.00646863
0.0158777
-0.010076
0.0184254
-0.013906
0.0217915
-0.0177218
0.0248886
-0.0214108
0.0245796
-0.0245623
0.0186967
-0.0259021
0.00529052
-0.023167
-0.0159363
-0.0138752
-0.0439148
0.00375956
-0.0775576
0.0312052
-0.118576
0.0672862
-0.157128
0.110968
-0.193954
0.160679
-0.225835
0.213484
-0.248865
0.263669
-0.252814
0.301077
-0.217703
0.316702
-0.14008
0.301401
0.0210741
0.253885
0.171487
0.183662
0.313376
0.100538
0.403916
0.0196439
0.427782
-0.0684329
0.451692
-0.142397
0.351278
-0.167883
0.139987
-0.112183
-0.186914
0.0223583
-0.524184
0.160308
-0.655048
0.216979
-0.511816
0.111297
0.157203
-0.0601069
0.746231
-0.0388962
0.513786
-0.138906
0.775096
-0.708827
1.62589
0.137456
0.943556
-4.25657
12.007
-4.16946
-10.7692
2.19047
-18.4727
0.973599
10.7189
0.147434
2.64569
-0.108029
0.0639726
-0.403609
1.3816
-0.226838
-0.593939
0.178468
-1.12078
0.885354
-2.7314
1.4791
-3.08699
1.30512
-0.464417
0.709518
1.76394
0.269549
2.00459
-0.258636
2.92375
-0.957632
3.91535
-1.29173
2.07713
-0.948198
-1.16319
-0.555564
-1.98527
-0.658333
0.105388
-0.722626
0.208241
-0.454918
-1.41732
-0.126086
-1.36439
0.0798598
-0.819241
0.206301
-0.723093
0.134276
0.118987
-0.0416707
0.810646
0.287135
-0.0145023
0.000122301
0.0152847
-0.014141
0.000544438
-0.0159336
0.000631696
-0.0169949
0.000409421
-0.0142997
0.000858973
-0.0103703
0.00201643
-0.0126908
0.00274166
-0.0235651
0.00217797
-0.0324554
0.000979703
-0.0257616
8.20715e-05
-0.00755691
-0.00154318
-0.00198265
-0.00528507
-0.0236388
-0.00775719
-0.0510649
-0.00178868
-0.0498323
0.0109672
-0.0222522
0.012454
-0.00414809
-0.0106223
-0.00844596
-0.0379471
-0.0154837
-0.0376865
-0.0201493
-0.0177671
-0.0331638
-0.0106941
-0.0374206
-0.00554744
-0.0298893
0.0205451
-0.0263113
0.0539687
-0.00771323
0.109374
0.0167799
0.136169
0.0194001
0.0790184
-0.00871905
-0.0398401
-0.0305589
-0.104638
-0.0220331
-0.0620015
0.00153746
0.0219325
0.0113607
0.0501568
0.00182338
0.0115621
-0.0087516
-0.0269889
-0.00859904
-0.0149558
-0.000355838
0.00101518
0.00348401
0.013591
0.00100466
0.00146792
-0.00176569
-0.012646
-0.000288079
-0.0105167
0.00335148
0.00108125
0.00499093
0.00469142
0.00418942
-0.0018897
0.00359114
-0.00722865
0.00464041
-0.00457657
0.00611906
0.000840633
0.00639035
0.00188054
0.00555336
-0.00095332
0.00479088
-0.00223327
0.00456307
0.000221022
0.0042014
0.00336322
0.00298693
0.00428559
0.001102
0.00436923
-0.00104112
0.00756946
-0.00287397
0.0116318
-0.00546782
0.0155057
-0.0087693
0.0190943
-0.012755
0.0226976
-0.0169291
0.0268674
-0.0210721
0.0302724
-0.0250635
0.0295392
-0.0284471
0.0223325
-0.0298261
0.00628639
-0.0267862
-0.0193815
-0.01636
-0.0541029
0.00358851
-0.096437
0.0350836
-0.148612
0.0769525
-0.197794
0.127751
-0.244066
0.185134
-0.282809
0.245275
-0.308641
0.301701
-0.308981
0.343146
-0.258833
0.359649
-0.156419
0.342012
0.030053
0.288938
0.280099
0.209262
0.390354
0.114555
0.503581
0.0239036
0.525752
-0.0718284
0.547664
-0.148845
0.421478
-0.169265
0.153196
-0.0993076
-0.251364
0.0498838
-0.655998
0.186968
-0.779841
0.216284
-0.550509
0.0680915
0.286366
-0.105696
0.921929
-0.000437499
0.434883
-0.138909
0.926379
-0.926192
2.37933
-0.258447
0.216318
-4.44901
16.1559
-4.42837
-10.6882
2.13217
-25.0028
1.16405
11.7123
0.242766
3.49313
-0.107695
0.34351
-0.438993
1.70259
-0.224091
-0.772066
0.290974
-1.60157
1.1128
-3.54556
1.69574
-3.67928
1.35103
-0.126541
0.642463
2.47302
0.221352
2.42435
-0.300086
3.42115
-1.0247
4.62815
-1.37909
2.42364
-0.989451
-1.55129
-0.602116
-2.36551
-0.721801
0.230011
-0.801914
0.288475
-0.551697
-1.66927
-0.146213
-1.76854
0.104407
-1.06924
0.233612
-0.85304
0.139927
0.210049
-0.0519356
1.00012
0.332868
-0.0149884
0.000421452
0.0156233
-0.014801
0.000754516
-0.0168672
0.000802912
-0.0174342
0.000690176
-0.0138478
0.00123604
-0.00956484
0.00235483
-0.0123436
0.00313088
-0.0236682
0.00313154
-0.032275
0.00303759
-0.0250249
0.0030094
-0.00664745
0.001086
-0.000597539
-0.00396394
-0.020859
-0.00750529
-0.0486778
-0.00161449
-0.0536013
0.0119541
-0.0347471
0.0162243
-0.0175539
-0.0012815
-0.0136437
-0.0266159
-0.0162912
-0.0366966
-0.0261725
-0.0315105
-0.0410102
-0.0215845
-0.0403697
0.00231755
-0.0309422
0.0362573
-0.0228315
0.0621362
-0.00912309
0.0786075
0.00171547
0.0581996
-0.00467531
-0.0069295
-0.0241079
-0.0738837
-0.0300594
-0.0767732
-0.015202
-0.0183051
0.00243431
0.0349889
0.0049379
0.032572
-0.00470656
-0.0073374
-0.0117331
-0.0315199
-0.00738511
-0.0138979
-0.000459467
0.00579106
0.0013829
0.00908671
-0.00116975
-0.00415043
-0.0027116
-0.0128419
-0.000411197
-0.00814372
0.00298194
0.00178589
0.00417489
0.0027903
0.00346081
-0.00347409
0.00330792
-0.0069288
0.00457481
-0.00328773
0.00592711
0.00157295
0.00601956
0.0019302
0.00514439
-0.000714029
0.00439673
-0.0013195
0.00407231
0.00155894
0.00347651
0.00471849
0.00199226
0.00574666
-0.000101804
0.00629201
-0.00223578
0.00953694
-0.00465052
0.0140943
-0.00745363
0.0182056
-0.0112526
0.0228134
-0.0155173
0.0272821
-0.0199644
0.0322043
-0.0243825
0.0358616
-0.028661
0.0346988
-0.0323178
0.0261902
-0.0338023
0.00741623
-0.030722
-0.0227244
-0.0194489
-0.0648425
0.00247509
-0.116818
0.0377807
-0.181831
0.0853778
-0.243487
0.143364
-0.300681
0.208485
-0.34687
0.275939
-0.374984
0.338542
-0.370245
0.384041
-0.302458
0.402143
-0.172371
0.383302
0.0451569
0.319674
0.285254
0.236162
0.49616
0.130591
0.611334
0.0310703
0.631857
-0.0709429
0.649351
-0.148947
0.491915
-0.161807
0.158904
-0.0765123
-0.330283
0.0840333
-0.797781
0.211857
-0.895011
0.202372
-0.551854
0.00774879
0.459922
-0.146833
1.07784
0.0677721
0.247508
-0.173895
1.17986
-1.22766
3.3957
-0.870738
-0.206004
-3.65872
18.9015
-3.35502
-10.8778
2.16329
-30.4464
1.36508
12.5479
0.358314
4.42588
-0.0953522
0.725803
-0.468968
2.0663
-0.206788
-0.996061
0.430275
-2.20349
1.37129
-4.47837
1.88832
-4.2065
1.34347
0.410024
0.553579
3.26265
0.190853
2.7884
-0.3098
3.93535
-1.05231
5.36218
-1.44145
2.80507
-1.03036
-1.9607
-0.667194
-2.7214
-0.769546
0.337299
-0.876769
0.395772
-0.679565
-1.86831
-0.177032
-2.26958
0.127166
-1.37268
0.259219
-0.985918
0.145059
0.321388
-0.0612286
1.20454
0.377866
-0.0157165
0.00108524
0.0163726
-0.0156533
0.00137375
-0.0177752
0.00137976
-0.0177593
0.00135423
-0.0134927
0.00190383
-0.00914271
0.00282084
-0.01239
0.0034495
-0.0239857
0.00378446
-0.0324329
0.00454325
-0.0251026
0.00532427
-0.00652539
0.00354563
0.00135529
-0.00204899
-0.0153653
-0.00646387
-0.0421388
-0.00158113
-0.0530526
0.0116789
-0.0435487
0.0188724
-0.0292158
0.0083221
-0.0203953
-0.0123657
-0.0195872
-0.0273893
-0.0304571
-0.0319105
-0.0434896
-0.0251405
-0.0411916
-0.00333699
-0.0343175
0.0183471
-0.0284514
0.0266039
-0.0221566
0.0189629
-0.019125
-0.0092266
-0.0247134
-0.047634
-0.0322694
-0.0649681
-0.0277002
-0.0383727
-0.0128585
0.00786013
-0.00224519
0.0283007
-0.00408862
0.00901015
-0.0113883
-0.0207986
-0.0132007
-0.0266775
-0.00726731
-0.00704297
-0.0023742
0.00716968
-0.00175205
0.00313134
-0.00390787
-0.0086069
-0.0040353
-0.011993
-0.00105964
-0.00649702
0.00198377
0.00110428
0.00286648
0.000234186
0.00239326
-0.00489869
0.00275093
-0.00636503
0.00420293
-0.00196961
0.00540055
0.00214916
0.00533889
0.00194613
0.00447106
-0.000288937
0.00376141
-0.000144395
0.0033347
0.00308282
0.00249793
0.00618971
0.00075091
0.00735049
-0.00154631
0.0083738
-0.00430417
0.0123307
-0.00622762
0.0170379
-0.00983058
0.0217467
-0.0137315
0.026657
-0.0182151
0.0321015
-0.0228731
0.0377114
-0.027533
0.0415969
-0.0321165
0.0400598
-0.0361337
0.0303504
-0.0376986
0.00865488
-0.0350913
-0.025449