/*--------------------------------*- C++ -*----------------------------------*\
| =========                 |                                                 |
| \\      /  F ield         | OpenFOAM: The Open Source CFD Toolbox           |
|  \\    /   O peration     | Version:  2412                                  |
|   \\  /    A nd           | Website:  www.openfoam.com                      |
|    \\/     M anipulation  |                                                 |
\*---------------------------------------------------------------------------*/
FoamFile
{
    version     2.0;
    format      ascii;
    arch        "LSB;label=32;scalar=64";
    class       volVectorField;
    location    "0.205";
    object      ddtCorrDdt0(U);
}
// * * * * * * * * * * * * * * * * * * * * * * * * * * * * * * * * * * * * * //

dimensions      [0 1 -2 0 0 0 0];

internalField   nonuniform List<vector> 
12600
(
(-8.72486 0 14.4706)
(-7.68335 -1.78311e-18 4.46585)
(-8.86141 -1.41523e-18 2.71659)
(-8.08632 0 2.77422)
(-7.0156 1.61785e-19 2.66339)
(-5.93949 0 2.4707)
(-4.86648 -2.44935e-18 2.3843)
(-3.84772 0 2.39649)
(-2.96743 0 2.46345)
(-2.22952 0 2.54478)
(-1.82459 0 2.40507)
(-1.7187 5.31451e-18 2.20898)
(-1.92738 7.42955e-18 1.89172)
(-2.47685 0 1.45279)
(-3.25943 -1.52969e-17 0.950806)
(-4.05703 0 0.486391)
(-4.61276 -8.90281e-19 0.153329)
(-4.8923 0 0.016214)
(-4.55061 7.71116e-18 0.0769968)
(-3.78671 0 0.406555)
(-2.57129 0 0.911346)
(-1.04184 0 1.56906)
(0.126025 2.67203e-17 2.07365)
(1.49949 -7.53868e-18 2.59619)
(1.32071 -1.99267e-18 2.45954)
(0.98538 -1.39341e-17 2.14959)
(1.16716 0 2.04862)
(-0.816582 0 0.406642)
(-1.90019 0 -0.703735)
(-4.57658 4.62585e-17 -2.73193)
(-7.2549 5.5762e-19 -4.45115)
(-3.94399 0 -1.91043)
(-4.23308 0 -2.40587)
(-6.62907 -5.3381e-17 -2.55821)
(-7.65791 -6.77875e-17 -0.533244)
(-4.64128 0 3.91024)
(12.0532 0 15.0873)
(13.7969 2.3554e-17 10.3027)
(4.82323 0 4.56759)
(-1.40705 1.41963e-19 1.93719)
(-5.81135 1.00171e-16 0.0807879)
(-7.60634 2.40763e-17 0.157846)
(-11.0279 0 -0.76964)
(-9.95122 -1.91917e-16 -0.308391)
(-5.2167 -2.01197e-16 1.97836)
(-2.44735 3.39009e-16 2.19574)
(2.31794 -2.57347e-16 1.34108)
(3.80068 0 0.236109)
(1.73441 -2.38361e-16 -0.881457)
(16.1283 7.90465e-17 4.94853)
(18.6251 0 -2.03055)
(11.9552 8.33926e-18 -11.0848)
(13.3293 -2.84793e-16 -13.4242)
(11.6979 0 -14.3356)
(14.831 -1.21379e-15 -11.7297)
(14.0672 0 -8.56182)
(-1.41532 0 1.20922)
(-16.4555 8.63546e-18 14.9278)
(-26.9043 4.07325e-18 22.6037)
(-24.1706 -1.73732e-16 18.475)
(-2.80005 9.94675e-16 13.0075)
(-0.610903 -4.52394e-15 11.3977)
(-20.5161 0 1.73023)
(-13.8834 -2.58904e-15 -11.0812)
(33.3338 -6.17259e-16 -34.7013)
(79.0613 -1.75115e-15 -55.1155)
(96.9553 3.0585e-15 -57.7823)
(89.4361 0 -48.0952)
(51.0517 0 -19.4764)
(-11.2371 0 21.2925)
(-63.8453 0 46.7284)
(-66.9376 0 42.5638)
(-42.6021 2.69044e-15 27.1996)
(-27.3797 -3.48161e-15 14.863)
(-17.2524 0 6.6836)
(-11.0953 0 3.35627)
(-8.91774 -1.09553e-16 2.14692)
(-4.76084 7.72594e-19 1.69461)
(-2.51907 8.7603e-16 0.803879)
(0.420554 0 -1.80848)
(8.13705 0 -4.11165)
(11.959 0 -5.88005)
(9.98952 -3.28998e-18 -4.93328)
(5.30108 0 -2.05803)
(-0.650805 0 0.818194)
(-4.3583 -2.92656e-16 1.95643)
(-4.49965 -3.04481e-20 2.69003)
(-4.40574 0 1.87202)
(-2.79522 0 0.799243)
(-0.650882 -2.6016e-16 -0.451505)
(0.954229 -2.72831e-16 -0.867816)
(1.70551 -8.58594e-16 -1.0023)
(1.8486 -2.88717e-16 -0.412262)
(0.723104 -1.17283e-17 0.449208)
(-0.923001 -5.64864e-18 0.862154)
(-2.08883 -2.89659e-16 1.62785)
(-3.42549 0 1.96512)
(-4.18112 0 2.06495)
(-3.99516 0 2.24393)
(-3.97667 -7.66027e-16 1.9633)
(-3.56054 -1.18425e-16 1.68984)
(-2.62588 1.82577e-16 1.57542)
(-2.30218 4.66671e-17 1.21636)
(-1.93306 0 1.02179)
(-1.24382 0 1.02312)
(-1.32865 0 0.845625)
(-1.25619 4.30833e-18 0.734735)
(-1.0209 0 0.832047)
(-1.27507 5.66856e-16 0.709302)
(-1.47582 0 0.662196)
(-1.21363 0 0.775679)
(-1.46835 -4.56663e-16 0.767055)
(-1.54298 0 0.788946)
(-1.32329 0 0.857493)
(-1.63918 0 0.891492)
(-1.38983 -6.61542e-16 0.823918)
(-1.6583 0 1.12834)
(-1.63026 -1.08059e-15 0.962402)
(-2.00864 0 1.13641)
(-2.77953 -8.94945e-20 1.63999)
(-12.1143 1.27027e-18 22.0111)
(-19.7392 1.23551e-18 11.0023)
(-23.1653 1.21545e-18 8.723)
(-22.0181 0 9.19959)
(-19.8637 -1.34773e-18 9.08187)
(-17.5229 2.4062e-18 8.4944)
(-15.2676 2.55484e-18 7.95722)
(-13.2475 -1.98622e-18 7.56824)
(-11.5283 0 7.28637)
(-10.1902 0 7.04067)
(-9.3001 0 6.596)
(-8.73696 0 6.08091)
(-8.57913 0 5.42738)
(-8.79912 0 4.63575)
(-9.24141 7.37623e-19 3.78365)
(-9.65524 0 3.00852)
(-9.78654 -9.89965e-19 2.41643)
(-9.67059 0 2.10404)
(-8.73962 -1.70688e-17 2.24951)
(-7.50173 2.23059e-17 2.54749)
(-5.84935 0 3.19173)
(-3.88952 1.794e-17 4.1468)
(-2.37039 -1.29206e-17 4.98856)
(-0.89533 2.68865e-18 5.69897)
(-1.20155 1.13883e-17 5.5611)
(-1.5515 0 5.05668)
(-1.78274 -2.60269e-17 4.65004)
(-4.81205 0 1.3596)
(-6.92419 0 -1.32323)
(-11.2127 0 -5.80709)
(-13.7399 5.70627e-18 -9.14227)
(-8.56722 0 -3.95107)
(-9.86857 0 -5.14737)
(-11.3386 0 -4.35403)
(-8.98316 0 2.42378)
(-0.0996301 0 14.6488)
(21.0068 0 37.0695)
(12.8555 -2.42229e-17 21.4327)
(0.0547585 0 9.93232)
(-7.59018 -3.24671e-16 5.56228)
(-12.8891 -1.95681e-16 3.3296)
(-15.4912 -6.07272e-18 3.68296)
(-19.5155 0 3.09549)
(-18.1154 0 3.7062)
(-12.6108 4.12903e-16 5.96135)
(-8.44349 -3.46151e-16 5.5788)
(-1.09964 2.62638e-16 2.58294)
(4.95688 0 -0.879718)
(10.7666 2.52885e-16 -4.47787)
(37.7268 0 5.23536)
(43.5718 0 -15.2741)
(46.4039 4.87449e-16 -32.8868)
(57.2342 0 -40.5578)
(60.2266 0 -42.5187)
(59.4543 1.22635e-15 -35.7384)
(39.4804 0 -20.9711)
(-10.4953 0 12.3704)
(-68.3305 1.58703e-17 50.1137)
(-110.454 5.63962e-16 71.5442)
(-98.0604 4.22608e-18 59.2187)
(-43.8623 0 35.3641)
(-22.0681 4.59106e-15 24.0744)
(-35.7712 4.28445e-15 4.58674)
(14.3604 0 -36.7139)
(160.962 1.17008e-15 -116.284)
(283.231 -1.43942e-17 -177.226)
(307.756 0 -177.372)
(249.956 2.95135e-15 -137.24)
(111.181 0 -47.3993)
(-76.146 0 72.783)
(-211.946 0 138.988)
(-204.866 0 121.591)
(-131.966 -5.30149e-15 76.7821)
(-79.3963 3.40494e-15 42.8665)
(-44.017 0 20.7694)
(-25.604 0 10.9639)
(-17.8337 -9.97754e-17 7.10419)
(-11.0678 1.7355e-18 5.14553)
(-4.67209 2.69048e-18 1.76228)
(7.10955 0 -6.32313)
(25.9889 0 -14.8386)
(34.9176 0 -19.1586)
(28.0501 -7.19895e-18 -14.9623)
(12.3128 4.97874e-17 -5.68292)
(-3.75995 -8.4407e-16 3.06542)
(-12.7476 2.82769e-16 6.96174)
(-13.9574 9.12867e-19 8.2031)
(-11.8253 3.03898e-16 6.10604)
(-6.51517 0 2.66113)
(-1.0829 2.50057e-16 -1.51716)
(3.45988 0 -2.42408)
(4.60757 8.23236e-16 -2.72566)
(3.3167 0 -1.14046)
(0.00575599 -1.75813e-16 1.97439)
(-5.017 1.4137e-17 3.3808)
(-8.72199 0 5.4932)
(-11.7856 0 6.82653)
(-13.2257 4.73194e-16 7.21518)
(-12.8947 -4.47771e-16 7.36083)
(-12.1388 7.16797e-16 6.62507)
(-10.6809 1.12471e-16 5.74749)
(-8.66891 -1.73245e-16 5.04079)
(-7.35971 0 4.10488)
(-6.26723 2.9749e-16 3.50275)
(-5.00157 0 3.19058)
(-4.8314 0 2.859)
(-4.53883 -2.38033e-18 2.61487)
(-4.31118 0 2.72998)
(-4.55028 -4.91256e-19 2.58021)
(-4.87768 -2.00897e-16 2.60047)
(-4.67599 0 2.75566)
(-5.11283 0 2.85402)
(-5.27243 0 2.92252)
(-5.17361 1.85458e-16 3.06416)
(-5.74113 1.35223e-16 3.23999)
(-5.22073 6.21907e-16 3.02757)
(-6.5878 0 3.96834)
(-5.88807 1.01494e-15 3.41099)
(-7.06045 0 4.0655)
(-9.69098 -9.10818e-16 5.62433)
(-14.4009 -2.55991e-18 22.5589)
(-21.5897 2.23019e-19 15.6926)
(-27.6146 -3.25662e-19 13.73)
(-30.8295 0 13.9634)
(-31.0405 -1.63696e-18 14.3081)
(-29.2471 -1.58916e-20 14.0711)
(-26.7146 0 13.4193)
(-24.1988 1.88497e-18 12.6243)
(-21.9722 0 11.8249)
(-20.1355 -6.09792e-19 11.0402)
(-18.636 0 10.2931)
(-17.4795 0 9.52422)
(-16.6826 0 8.75121)
(-16.2022 0 7.99314)
(-15.8971 6.6628e-18 7.28373)
(-15.5734 0 6.66926)
(-15.0361 0 6.15918)
(-14.3223 0 5.78282)
(-12.8932 8.58306e-18 5.85164)
(-11.4759 -1.34813e-19 5.63894)
(-9.61563 0 5.801)
(-7.66897 -1.52558e-18 6.00923)
(-6.17315 0 6.39519)
(-4.94049 3.93815e-18 6.4558)
(-5.15283 0 6.37635)
(-5.37072 0 6.01171)
(-6.14031 2.46868e-17 5.11416)
(-8.71649 0 2.96511)
(-10.8413 0 0.409691)
(-14.4758 -1.35177e-18 -3.11264)
(-15.1914 0 -5.49913)
(-11.158 0 -2.79611)
(-12.8291 0 -3.90128)
(-11.9684 0 -0.890404)
(-5.91052 5.28326e-17 10.3045)
(6.02968 0 26.3398)
(17.2611 0 38.6708)
(3.29664 1.25082e-16 19.5645)
(-7.00969 0 10.6952)
(-13.3578 3.06453e-16 8.29157)
(-17.8868 4.21643e-18 8.18931)
(-20.9405 5.7472e-18 8.71614)
(-24.4878 0 9.52487)
(-23.14 0 9.55759)
(-18.1368 -1.96119e-16 8.73275)
(-12.4999 0 6.77292)
(-2.4183 -2.48445e-16 1.46127)
(8.25011 0 -4.47839)
(21.7434 9.36455e-18 -10.3159)
(58.2389 0 0.605782)
(65.2578 0 -35.2047)
(80.4728 0 -52.9438)
(98.1083 2.53926e-16 -64.1715)
(103.203 0 -64.7388)
(95.4763 0 -52.3187)
(56.562 0 -22.5196)
(-24.7148 0 33.8031)
(-120.75 2.94345e-15 88.4903)
(-188.801 0 116.802)
(-167.355 7.44559e-18 94.8085)
(-84.8756 0 49.9366)
(-40.9554 -2.18146e-15 24.2941)
(-34.2203 -4.03956e-15 -0.549493)
(65.8963 0 -76.7159)
(303.644 -1.00861e-15 -209.823)
(482.185 8.42003e-16 -294.441)
(490.792 0 -272.68)
(368.986 -2.77945e-15 -188.566)
(131.58 0 -46.6574)
(-151.406 0 132.084)
(-339.941 0 213.481)
(-318.057 0 176.066)
(-206.106 1.73834e-17 109.414)
(-123.324 -3.2021e-15 61.7214)
(-67.8251 0 31.8587)
(-39.2898 0 17.6538)
(-26.436 1.45135e-18 11.6225)
(-16.3327 -1.62453e-15 7.60851)
(-4.83397 -4.04631e-16 0.952244)
(15.9998 0 -12.2899)
(44.0084 0 -26.6691)
(56.0817 0 -31.3557)
(43.4451 -3.35296e-16 -22.5343)
(17.0207 5.57449e-18 -7.23967)
(-8.21678 7.91805e-16 5.75532)
(-20.8602 0 12.3491)
(-22.7856 4.80828e-16 13.0493)
(-18.2816 -2.84903e-16 9.67039)
(-9.55742 0 4.17227)
(-1.13157 0 -1.97855)
(5.30851 2.63672e-16 -3.38454)
(6.17612 0 -3.45701)
(2.96415 2.34734e-16 -1.02206)
(-2.75502 3.31122e-17 3.92159)
(-10.533 -2.6575e-17 6.74619)
(-16.319 2.72313e-16 9.91773)
(-20.5901 0 12.0731)
(-22.3149 -4.42834e-16 12.6361)
(-21.7398 4.18979e-16 12.4005)
(-20.1001 -6.62347e-16 11.2579)
(-17.6376 0 9.81031)
(-14.7267 -1.62415e-16 8.38273)
(-12.5111 0 7.05954)
(-10.7997 -2.78174e-16 6.12943)
(-9.19215 1.34657e-16 5.41169)
(-8.75995 0 5.08849)
(-8.3207 2.22501e-18 4.81345)
(-8.19239 0 4.87041)
(-8.4085 -9.98891e-16 4.83654)
(-8.84682 1.87731e-16 5.03412)
(-8.80704 0 5.13342)
(-9.43987 0 5.42388)
(-9.70115 0 5.54043)
(-9.85289 4.15985e-19 5.75554)
(-10.6088 -1.26308e-16 6.0822)
(-9.92115 -5.82844e-16 5.78328)
(-12.3516 0 7.30316)
(-10.9401 9.49151e-16 6.32544)
(-12.9252 0 7.55361)
(-17.1227 2.32449e-18 9.94681)
(-14.3716 1.28371e-18 23.4537)
(-18.0134 -1.3492e-19 20.3574)
(-24.5884 5.39579e-19 18.1256)
(-31.3575 -1.18177e-18 17.2514)
(-35.8049 -1.72253e-18 17.4384)
(-37.2582 -4.25556e-18 17.838)
(-36.5015 0 17.8173)
(-34.6896 0 17.331)
(-32.5829 0 16.574)
(-30.5428 5.77499e-19 15.6922)
(-28.6806 0 14.7567)
(-27.0667 0 13.7744)
(-25.7333 0 12.8039)
(-24.65 0 11.8978)
(-23.6986 0 11.0904)
(-22.7272 2.57384e-18 10.3933)
(-21.5608 1.14733e-18 9.8028)
(-20.2478 0 9.29669)
(-18.3938 0 9.08614)
(-16.5541 -1.99225e-17 8.60357)
(-14.3539 1.97525e-17 8.47954)
(-12.2919 -1.46767e-17 8.09571)
(-10.6499 4.8569e-18 8.0898)
(-9.40388 -3.72949e-18 7.65152)
(-9.45654 1.6665e-17 7.39099)
(-9.54154 -1.8816e-17 7.09913)
(-10.3332 0 5.96067)
(-12.0005 2.04345e-17 5.23188)
(-13.4226 0 3.81119)
(-15.5646 1.28232e-18 2.45238)
(-14.8896 0 1.81119)
(-12.5375 0 1.26681)
(-13.0946 0 1.27275)
(-10.3813 -7.73014e-17 4.95327)
(-2.68074 -4.99783e-17 17.0141)
(6.74346 0 31.2184)
(5.96386 0 29.2896)
(-6.05512 -1.18284e-16 15.8235)
(-12.8264 0 11.3809)
(-18.0437 -1.39881e-18 10.757)
(-22.2907 7.91494e-17 11.6475)
(-25.5599 0 12.1982)
(-28.9465 0 13.1087)
(-27.2566 0 12.6536)
(-21.4917 0 10.3557)
(-14.1506 -3.0547e-16 6.71541)
(-1.27416 0 -0.913012)
(13.6985 -1.00051e-16 -9.71914)
(34.7838 -2.3461e-16 -18.2273)
(75.9061 0 -10.8504)
(85.9742 0 -54.4937)
(110.837 0 -74.0956)
(133.195 -2.39567e-16 -86.4877)
(138.008 -4.9086e-17 -83.6318)
(122.536 -1.05568e-15 -61.3401)
(64.0696 0 -17.2288)
(-44.6025 -1.14358e-15 58.736)
(-169.857 -2.73557e-15 128.882)
(-257.568 0 159.25)
(-230.345 2.79614e-16 124.59)
(-121.756 0 62.0296)
(-50.956 2.03373e-15 21.639)
(-17.6632 3.66322e-15 -17.7932)
(135.592 0 -136.913)
(454.018 4.57076e-16 -316.474)
(665.164 -7.63544e-16 -406.634)
(633.75 0 -345.113)
(437.737 0 -208.42)
(119.699 0 -14.6941)
(-227.236 1.45998e-15 195.241)
(-438.103 3.30117e-16 276.91)
(-401.338 0 216.847)
(-262.452 2.32813e-15 133.17)
(-158.556 2.96664e-15 75.2157)
(-88.829 0 40.4516)
(-52.3318 0 23.3272)
(-34.7216 8.66721e-17 15.4999)
(-20.4407 -2.4316e-18 9.08829)
(-2.8503 0 -1.12736)
(26.438 0 -19.7782)
(61.9554 0 -38.4057)
(74.9794 0 -42.134)
(55.7277 1.00882e-17 -28.1537)
(19.4685 -4.90284e-17 -7.05244)
(-13.0907 0 9.99159)
(-28.8832 0 17.5176)
(-30.8523 0 17.4825)
(-23.9844 -2.62948e-16 12.6443)
(-12.3169 0 5.30364)
(-1.14396 4.12993e-16 -1.51226)
(5.90165 -2.46916e-16 -3.85332)
(6.00559 7.19026e-16 -3.31216)
(0.855179 -2.19746e-16 0.356289)
(-7.53394 4.56863e-17 6.3006)
(-17.3685 2.48709e-17 10.8565)
(-24.7023 -2.54812e-16 14.956)
(-29.8483 0 17.5242)
(-31.585 0 18.0376)
(-30.5546 3.88946e-16 17.4284)
(-28.053 3.08694e-16 15.7607)
(-24.6663 -1.08186e-16 13.7787)
(-20.8829 -9.87643e-19 11.8159)
(-17.9607 0 10.1137)
(-15.7338 0 8.92138)
(-13.8368 -1.25864e-16 8.01774)
(-13.2536 0 7.65042)
(-12.7798 -1.14393e-18 7.36557)
(-12.7276 0 7.46755)
(-13.0362 8.35271e-20 7.49269)
(-13.6414 0 7.818)
(-13.749 -6.16386e-17 7.97285)
(-14.6415 -3.72481e-16 8.42984)
(-15.0118 1.96409e-16 8.6026)
(-15.4706 6.91942e-19 8.98924)
(-16.3992 0 9.40637)
(-15.6365 5.44302e-16 9.09416)
(-19.0327 3.1684e-16 11.1593)
(-16.9185 -8.86283e-16 9.74771)
(-19.7014 0 11.5657)
(-24.9936 3.39972e-18 14.5193)
(-14.0585 0 24.3779)
(-15.0227 5.13826e-22 23.2852)
(-19.5668 0 21.5319)
(-26.3497 1.11657e-18 19.9903)
(-33.0809 3.09037e-18 19.4685)
(-38.1469 1.99361e-18 19.87)
(-40.9223 0 20.4417)
(-41.7378 0 20.674)
(-41.2675 -7.16856e-19 20.4839)
(-40.0887 4.06016e-19 19.9598)
(-38.5716 -1.53243e-18 19.1857)
(-36.962 -4.92814e-18 18.2285)
(-35.3996 -6.02709e-18 17.196)
(-33.9246 0 16.1852)
(-32.4798 0 15.2512)
(-30.9667 -4.59919e-18 14.4018)
(-29.2424 8.19414e-20 13.6441)
(-27.3674 0 12.92)
(-25.059 -7.43561e-18 12.4227)
(-22.7526 -1.74903e-17 11.6662)
(-20.1625 -1.86737e-17 11.2002)
(-17.7134 0 10.4706)
(-15.752 -4.59122e-18 10.1931)
(-14.2697 -4.96794e-18 9.45718)
(-13.9073 -1.57516e-17 9.10983)
(-13.7259 -2.69999e-19 8.83397)
(-14.1633 0 7.80076)
(-15.2513 -4.15557e-19 7.49224)
(-15.9629 0 6.88936)
(-17.1199 9.70377e-18 6.51967)
(-15.8301 0 6.81918)
(-13.7389 0 5.49192)
(-13.2021 0 6.33582)
(-9.73401 7.3012e-17 9.20953)
(-3.87311 0 16.5409)
(-0.0647739 0 24.8087)
(-3.53732 0 22.9689)
(-12.8299 0 14.0459)
(-17.1421 1.21147e-16 12.4664)
(-21.6064 -2.68222e-16 12.9327)
(-25.6608 0 14.2859)
(-28.8716 5.28134e-18 14.7594)
(-31.9374 0 15.4052)
(-29.7011 0 14.3031)
(-22.9276 0 10.5703)
(-13.8522 1.36028e-18 5.11259)
(1.66876 0 -4.86868)
(20.5363 9.43378e-17 -16.6216)
(47.3854 0 -28.6151)
(83.1328 0 -40.3242)
(105.376 5.88849e-16 -73.5053)
(137.495 0 -93.7754)
(162.372 0 -105.441)
(164.965 5.5615e-18 -97.3838)
(140.605 9.94316e-16 -63.7596)
(64.6554 0 -4.72687)
(-65.9895 3.38325e-17 87.6549)
(-213.189 2.52467e-15 168.477)
(-315.988 0 196.454)
(-286.641 -1.27408e-16 148.701)
(-155.903 0 69.6893)
(-54.2132 -1.91322e-15 13.0576)
(12.4769 -3.44551e-15 -48.9794)
(221.815 0 -214.649)
(607.628 -3.63678e-16 -429.843)
(825.606 2.87586e-17 -504.515)
(731.55 0 -385.795)
(459.67 0 -193.409)
(77.9554 0 31.6493)
(-294.87 -2.68718e-15 258.836)
(-508.51 -1.54393e-17 323.704)
(-460.41 0 240.722)
(-304.663 -2.13941e-15 146.188)
(-186.669 -5.53965e-15 82.8056)
(-107.153 0 46.5104)
(-64.607 0 28.0241)
(-42.5082 0 18.7266)
(-23.35 -2.71276e-18 9.50251)
(0.511548 0 -5.36114)
(37.8585 0 -28.5636)
(79.1217 0 -49.8792)
(91.3803 0 -51.1124)
(65.1474 1.34181e-16 -31.461)
(20.1206 -6.05294e-17 -5.04228)
(-19.2601 0 13.6266)
(-36.6513 0 22.5659)
(-38.2866 0 21.3133)
(-29.1578 1.00094e-18 15.1156)
(-15.1593 0 6.18941)
(-1.78461 -3.86623e-16 -0.462293)
(5.06053 0 -3.5063)
(4.12039 -6.72917e-16 -1.93383)
(-3.04053 0 2.96662)
(-13.8219 -1.18019e-17 9.84514)
(-25.2981 0 15.891)
(-33.8303 0 20.5031)
(-39.4963 0 23.2353)
(-41.0494 0 23.5008)
(-39.4818 -3.63682e-16 22.4414)
(-36.1367 0 20.2299)
(-31.9249 1.01137e-16 17.7718)
(-27.3596 1.42874e-16 15.3578)
(-23.874 0 13.3723)
(-21.2158 0 11.9837)
(-19.1353 0 10.9897)
(-18.4421 0 10.6041)
(-18.0138 5.23467e-19 10.3627)
(-18.04 0 10.5239)
(-18.4982 8.71506e-16 10.6401)
(-19.2717 0 11.0882)
(-19.5545 1.15385e-16 11.3256)
(-20.719 3.47888e-16 11.9561)
(-21.1966 -1.83429e-16 12.1826)
(-22.0115 -1.52116e-16 12.7844)
(-23.0744 0 13.2523)
(-22.3145 0 12.9935)
(-26.5454 -5.91594e-16 15.5119)
(-23.7752 -8.27436e-16 13.6831)
(-27.2809 2.71771e-16 16.0887)
(-33.1044 3.65016e-16 19.2407)
(-14.1726 0 24.6463)
(-13.9418 -1.62826e-19 24.4804)
(-15.9995 0 23.6605)
(-20.555 0 22.2679)
(-26.6034 0 21.2397)
(-32.9328 0 21.1574)
(-38.4195 0 21.7157)
(-42.4939 1.43457e-18 22.3843)
(-45.0502 6.76338e-19 22.8533)
(-46.2435 -7.0895e-19 23.0008)
(-46.3706 2.76149e-18 22.7739)
(-45.778 4.65078e-18 22.1863)
(-44.742 5.68829e-18 21.3541)
(-43.4239 0 20.4165)
(-41.8732 0 19.4681)
(-40.0767 3.82186e-18 18.5371)
(-37.9618 -2.25903e-18 17.6517)
(-35.6176 0 16.7426)
(-32.8718 7.0185e-18 15.9853)
(-30.0586 1.65089e-17 15.0039)
(-26.997 0 14.2524)
(-24.062 1.07061e-17 13.2382)
(-21.6949 0 12.6144)
(-19.7177 -2.34258e-19 11.7002)
(-18.8078 1.51879e-17 11.2274)
(-18.2944 -1.90386e-19 10.8351)
(-18.1196 0 10.0453)
(-18.7757 -1.78278e-17 9.51868)
(-18.6227 5.49763e-18 9.83657)
(-19.3482 -1.73021e-17 9.49025)
(-18.0424 -5.0071e-17 9.73109)
(-15.8101 0 8.21805)
(-14.8017 -4.97783e-17 8.74408)
(-11.5294 0 10.6384)
(-8.40553 0 12.7918)
(-8.22743 0 15.0918)
(-11.865 0 15.6419)
(-17.9264 0 13.1539)
(-20.114 1.21955e-19 13.771)
(-23.9701 1.25563e-16 14.8825)
(-27.8676 0 16.2273)
(-30.8266 -1.17536e-17 16.4546)
(-33.4016 0 16.5985)
(-30.4893 0 14.7209)
(-22.6555 0 9.49649)
(-11.9486 2.70096e-16 2.17112)
(5.89872 0 -10.1165)
(27.9478 0 -24.9297)
(57.8337 0 -40.6176)
(90.2109 0 -67.6836)
(123.566 -1.1014e-15 -91.3176)
(159.405 0 -111.355)
(184.894 0 -120.641)
(183.965 3.82749e-17 -105.937)
(150.38 0 -60.75)
(60.4122 0 12.8854)
(-85.8728 1.9279e-15 118.252)
(-248.015 -1.17354e-15 205.729)
(-363.168 0 228.048)
(-336.346 0 167.662)
(-188.193 0 73.1409)
(-52.1698 1.7261e-15 -1.95892)
(55.4362 0 -92.9057)
(320.602 0 -307.656)
(757.814 6.60893e-16 -543.824)
(955.008 1.25609e-15 -581.503)
(779.445 0 -390.882)
(438.627 0 -147.241)
(26.285 0 98.9961)
(-347.684 1.23489e-15 316.394)
(-553.435 -2.76486e-16 356.847)
(-499.276 7.7475e-16 252.296)
(-334.729 2.00706e-15 151.193)
(-208.371 2.58402e-15 85.7269)
(-122.634 -1.56523e-15 50.272)
(-75.8986 0 31.6994)
(-49.7016 0 21.2132)
(-25.2042 6.7594e-16 8.83323)
(5.4509 0 -10.6797)
(49.8647 0 -38.1501)
(94.9618 0 -60.7818)
(105.026 0 -58.2538)
(71.8123 0 -32.5891)
(19.0084 1.22464e-16 -1.65015)
(-24.2639 0 20.318)
(-43.9368 2.20773e-16 27.4139)
(-45.0111 0 24.9293)
(-34.1111 5.57543e-19 17.1727)
(-18.3068 7.35114e-17 7.16131)
(-4.32016 0 -0.341094)
(2.58273 0 -2.21697)
(0.262668 0 0.379981)
(-9.19668 0 5.87446)
(-21.4821 2.38454e-19 14.4796)
(-34.2986 0 21.5764)
(-43.6346 0 26.51)
(-49.5621 0 29.1726)
(-50.7741 0 29.0847)
(-48.6314 0 27.5568)
(-44.483 0 24.8127)
(-39.5562 0 21.9424)
(-34.2988 0 19.1399)
(-30.3826 -4.00258e-17 16.9453)
(-27.3538 0 15.4034)
(-25.1853 0 14.3803)
(-24.3936 0 13.9865)
(-24.0791 5.0954e-19 13.8216)
(-24.1567 0 14.0397)
(-24.8152 -4.06964e-16 14.2623)
(-25.7211 0 14.8186)
(-26.2013 1.35315e-19 15.1489)
(-27.6137 0 15.9405)
(-28.1821 1.6946e-16 16.2085)
(-29.3668 0 17.0319)
(-30.5003 0 17.5081)
(-29.8038 0 17.3492)
(-34.6708 2.76123e-16 20.201)
(-31.3298 1.54429e-15 17.9967)
(-35.4429 -5.04453e-16 20.9506)
(-41.1865 3.30983e-16 23.9343)
(-14.2696 0 24.8091)
(-13.8709 1.56564e-19 24.8732)
(-14.5453 0 24.6787)
(-16.7825 0 23.8066)
(-20.6182 -9.44326e-19 22.8081)
(-25.7533 -1.45086e-18 22.3596)
(-31.4959 1.58104e-18 22.5326)
(-37.2265 -3.86604e-18 23.0771)
(-42.3931 0 23.7697)
(-46.5364 3.59476e-20 24.4307)
(-49.4369 -1.23943e-18 24.8616)
(-51.1422 0 24.9121)
(-51.8263 0 24.5908)
(-51.6666 0 24.0143)
(-50.7934 0 23.2972)
(-49.2942 -3.22656e-19 22.4876)
(-47.2044 -9.78082e-20 21.6346)
(-44.6701 3.77913e-18 20.6765)
(-41.6364 6.00982e-18 19.7795)
(-38.3991 0 18.6581)
(-34.8789 -1.39813e-17 17.6847)
(-31.4173 -1.00903e-17 16.4424)
(-28.5331 0 15.5184)
(-25.9741 -1.70278e-19 14.417)
(-24.4904 -1.50301e-19 13.6201)
(-23.3974 1.62332e-17 13.0811)
(-22.6188 0 12.4564)
(-22.3062 0 12.1677)
(-22.0139 -5.17981e-18 11.7916)
(-22.3013 2.15509e-18 11.7628)
(-20.8308 9.07565e-17 11.9664)
(-18.4045 0 10.3351)
(-17.1673 9.35108e-17 10.1748)
(-14.3156 0 10.9196)
(-12.3853 0 11.1398)
(-13.9971 2.74846e-17 10.7338)
(-18.17 0 9.73121)
(-20.7779 1.25665e-16 12.4301)
(-21.9517 -1.64279e-18 14.772)
(-25.4942 -1.13845e-16 16.0667)
(-28.9732 0 17.5064)
(-31.5029 -1.3807e-18 17.3067)
(-33.4586 0 16.7859)
(-29.8444 0 14.029)
(-21.0289 0 7.29017)
(-8.91561 0 -1.8531)
(10.7809 0 -16.2851)
(35.0763 -7.67243e-17 -34.2502)
(66.855 0 -52.958)
(101.291 0 -83.5371)
(138.471 5.14435e-16 -107.273)
(175.855 0 -126.144)
(200.502 1.80513e-16 -131.728)
(195.493 -2.46702e-17 -109.472)
(153.646 8.06808e-16 -53.2471)
(54.3317 0 33.8692)
(-101.117 -8.89797e-16 148.605)
(-272.369 -1.037e-15 239.28)
(-398.929 0 254.079)
(-379.868 0 182.181)
(-220.023 0 72.6744)
(-46.8303 -1.6207e-15 -23.8256)
(108.945 0 -148.975)
(428.098 0 -409.738)
(894.814 -2.99653e-16 -654.094)
(1045.73 -1.09601e-15 -630.796)
(776.907 0 -358.892)
(387.262 0 -78.6571)
(-36.475 0 156.266)
(-386.937 0 365.52)
(-580.032 -2.27626e-16 378.986)
(-524.348 -7.2643e-16 254.806)
(-355.761 0 149.769)
(-224.74 0 84.5616)
(-135.139 1.46695e-15 51.7103)
(-85.9061 0 34.2045)
(-56.2515 5.92589e-17 22.8887)
(-26.0942 6.38213e-16 7.23123)
(12.7107 0 -14.7821)
(61.7947 0 -48.2061)
(109.066 0 -70.7762)
(115.875 0 -63.4155)
(75.9514 0 -31.6933)
(16.9057 -6.15719e-17 3.10552)
(-32.373 0 22.0461)
(-51.0662 -4.17635e-16 31.9376)
(-51.291 0 28.1933)
(-39.0447 9.37558e-20 19.1255)
(-22.169 6.81836e-18 8.40726)
(-7.83739 0 0.981696)
(-1.53784 2.06698e-16 0.040817)
(-5.22812 0 4.12312)
(-16.1922 0 11.1385)
(-30.2098 2.81264e-18 20.3006)
(-44.2226 0 27.8892)
(-54.0791 0 32.8955)
(-60.0719 0 35.3525)
(-60.8712 0 34.825)
(-58.1734 0 32.8238)
(-53.2754 0 29.5703)
(-47.7383 0 26.3533)
(-41.8513 0 23.213)
(-37.6011 3.73939e-17 20.8796)
(-34.2207 0 19.21)
(-32.0263 0 18.207)
(-31.1064 0 17.7961)
(-30.9452 7.96793e-19 17.7371)
(-31.0131 1.82337e-16 17.9816)
(-31.8978 3.79836e-16 18.3285)
(-32.8626 -1.40866e-16 18.9516)
(-33.5433 7.75704e-21 19.3804)
(-35.1379 3.01027e-16 20.2936)
(-35.7597 -3.15019e-16 20.5833)
(-37.2755 0 21.6134)
(-38.3923 -9.70477e-17 22.0356)
(-37.794 4.40409e-16 22.0127)
(-43.0317 0 25.0304)
(-39.2415 -7.20487e-16 22.5134)
(-43.8032 2.34061e-16 25.9404)
(-48.8993 -3.08933e-16 28.4003)
(-14.269 0 25.085)
(-13.9632 -6.37923e-20 25.0853)
(-14.2654 0 25.0749)
(-15.2223 0 24.6453)
(-17.0643 8.89245e-19 23.9855)
(-20.0727 1.36598e-18 23.5007)
(-24.2213 -1.48827e-18 23.3423)
(-29.3805 3.43638e-18 23.5053)
(-35.175 0 23.9659)
(-41.0169 -1.82213e-19 24.665)
(-46.3466 1.85612e-18 25.4365)
(-50.7915 0 26.0428)
(-54.1405 -3.60622e-18 26.3473)
(-56.288 0 26.3631)
(-57.2207 -2.56925e-18 26.1612)
(-57.0043 -1.2731e-18 25.7645)
(-55.7435 1.11911e-18 25.2101)
(-53.6427 -3.5571e-18 24.4388)
(-50.7653 -1.10049e-17 23.5996)
(-47.4195 0 22.4874)
(-43.6377 1.316e-17 21.41)
(-39.7611 0 20.0216)
(-36.3807 0 18.832)
(-33.2346 4.52648e-18 17.5224)
(-31.0868 -2.63918e-17 16.3816)
(-29.301 0 15.6314)
(-27.7259 0 14.7822)
(-26.6978 0 14.8449)
(-26.4363 7.63098e-18 13.3491)
(-25.6646 5.19476e-18 13.6225)
(-24.1509 -4.18752e-18 13.7583)
(-21.4819 5.16277e-17 12.1341)
(-19.9614 -8.77153e-17 11.3824)
(-17.3197 4.8479e-17 11.2876)
(-15.9119 -8.71396e-18 10.4501)
(-17.5176 -4.55527e-18 9.70318)
(-20.4663 0 9.56708)
(-22.1142 -1.18188e-16 12.6764)
(-23.0863 -9.96762e-17 15.1118)
(-25.6016 1.07055e-16 17.5183)
(-29.0423 0 18.0289)
(-31.0839 7.29493e-18 17.3751)
(-32.3462 5.19931e-17 16.0944)
(-28.0977 1.45869e-16 12.4171)
(-18.4908 1.4928e-16 4.20941)
(-5.31213 0 -6.61482)
(15.6022 0 -22.9258)
(41.3744 3.53043e-18 -43.6595)
(74.0418 0 -65.0545)
(110.74 0 -95.5592)
(148.864 4.63623e-16 -120.88)
(186.381 -3.22629e-16 -137.776)
(209.356 -1.69533e-16 -138.72)
(200.624 5.03505e-18 -108.608)
(152.95 -2.41705e-17 -42.1872)
(49.4099 0 56.1409)
(-109.086 0 176.933)
(-285.094 1.91165e-15 268.517)
(-421.859 0 277.963)
(-419.056 0 190.394)
(-252.909 6.18612e-16 68.7712)
(-40.4057 0 -52.3634)
(170.145 0 -216.266)
(539.686 -1.05792e-15 -517.69)
(1011.7 2.80045e-16 -755.191)
(1092.28 9.29636e-16 -646.741)
(727.766 0 -291.841)
(315.911 -1.75343e-15 5.27791)
(-90.4672 0 214.317)
(-410.505 0 406.65)
(-596.767 4.09914e-16 395.893)
(-542.287 0 252.486)
(-370.938 0 143.889)
(-236.778 0 79.9938)
(-144.48 0 50.7532)
(-94.2081 0 35.3441)
(-62.1219 -5.54917e-17 23.709)
(-26.3163 1.74577e-18 4.83156)
(18.3165 -3.43072e-16 -23.365)
(73.0189 6.05874e-16 -58.4402)
(121.113 0 -79.6311)
(123.972 0 -66.5914)
(77.9082 0 -28.9257)
(13.393 0 8.87603)
(-37.0182 0 29.9365)
(-57.2189 -5.37433e-18 36.4428)
(-57.3378 0 31.203)
(-44.2443 2.00271e-16 21.0836)
(-26.822 6.42642e-18 10.0542)
(-12.2818 0 3.83239)
(-7.30135 -1.93259e-16 3.31756)
(-12.5933 0 8.30166)
(-24.4292 1.41625e-16 17.582)
(-40.0954 3.03692e-18 26.7288)
(-54.9135 0 34.7057)
(-65.0886 0 39.6488)
(-71.0669 0 41.7997)
(-71.4439 0 40.8028)
(-68.2522 -2.89806e-16 38.3507)
(-62.6613 0 34.6127)
(-56.6043 0 31.1035)
(-50.1144 1.21221e-16 27.6489)
(-45.5919 0 25.2186)
(-41.8288 -1.979e-16 23.4159)
(-39.638 9.80417e-17 22.4536)
(-38.5107 0 21.9909)
(-38.5198 -2.31377e-18 22.0441)
(-38.4684 -1.33997e-18 22.2631)
(-39.5902 -7.09198e-16 22.732)
(-40.4911 1.31528e-16 23.3599)
(-41.3619 -4.71967e-17 23.8751)
(-43.0227 -2.81047e-16 24.8475)
(-43.6451 1.46385e-16 25.1262)
(-45.4074 1.27877e-16 26.3119)
(-46.3868 9.05957e-17 26.6059)
(-45.9046 -4.11115e-16 26.7372)
(-51.1701 -2.39421e-16 29.7175)
(-47.0864 6.69923e-16 26.9714)
(-51.8748 0 30.7513)
(-55.8621 0 32.4046)
(-14.2558 0 25.4462)
(-13.9319 5.27603e-20 25.3629)
(-14.2515 0 25.3092)
(-14.8528 0 25.0955)
(-15.6435 0 24.7571)
(-16.9628 0 24.4022)
(-19.1559 1.07732e-18 24.1127)
(-22.5418 -1.00603e-18 23.9831)
(-27.1573 4.45189e-19 24.09)
(-32.7017 4.1128e-19 24.4907)
(-38.7161 -1.74503e-18 25.163)
(-44.7513 0 25.9376)
(-50.3758 3.39005e-18 26.6298)
(-55.1508 0 27.1726)
(-58.7076 2.41521e-18 27.5783)
(-60.8349 4.05926e-19 27.8056)
(-61.5017 0 27.822)
(-60.849 0 27.5262)
(-58.9795 5.02795e-18 27.0166)
(-56.2129 0 26.14)
(-52.69 0 25.1451)
(-48.7732 -6.66879e-18 23.7553)
(-45.1263 0 22.3967)
(-41.5466 0 20.909)
(-38.7797 1.22803e-17 19.426)
(-36.3125 0 18.3638)
(-33.9833 0 17.1702)
(-32.4718 0 16.5838)
(-31.1766 -1.56756e-17 15.6006)
(-29.8703 0 15.3093)
(-28.1004 -4.18475e-18 15.3104)
(-25.0122 -1.94426e-18 13.8564)
(-23.0681 4.12135e-17 12.6944)
(-20.3122 -4.55606e-17 12.1437)
(-18.8675 2.0619e-17 10.7852)
(-19.7936 -2.00122e-17 10.1747)
(-21.4159 0 10.6557)
(-22.3797 0 13.7458)
(-23.0827 -8.94975e-17 15.5558)
(-25.4928 9.35607e-17 17.4914)
(-28.4465 0 18.229)
(-29.8091 0 16.7636)
(-30.3995 2.29752e-19 14.6898)
(-25.65 -1.36994e-16 10.1582)
(-15.5502 -1.40186e-16 0.579433)
(-1.74154 -2.14592e-16 -11.7147)
(19.7111 0 -29.5549)
(46.2205 3.68538e-18 -52.2261)
(79.4478 0 -74.7783)
(116.443 0 -105.809)
(154.221 -4.35146e-16 -131.805)
(190.906 3.02783e-16 -146.156)
(212.084 0 -142.02)
(200.928 1.70127e-17 -104.405)
(150.92 -2.02028e-17 -29.1228)
(48.4072 0 77.7852)
(-108 0 201.878)
(-285.632 -1.72609e-15 293.499)
(-433.726 0 299.463)
(-453.389 0 195.465)
(-287.819 -1.1469e-15 61.9695)
(-35.6288 0 -87.4783)
(234.619 0 -293.406)
(646.429 1.86982e-15 -630.121)
(1103.17 -2.6245e-16 -837.101)
(1091.73 -4.10246e-16 -625.432)
(641.853 0 -196.329)
(246.434 1.64281e-15 92.1468)
(-102.547 0 320.324)
(-429.889 -8.3707e-16 445.327)
(-612.76 -1.84134e-16 412.818)
(-560.15 0 249.286)
(-383.922 0 135.432)
(-245.727 -1.98995e-15 72.6067)
(-150.501 -1.26488e-15 47.344)
(-100.25 0 34.8762)
(-67.2426 0 23.6471)
(-26.7008 -1.12252e-15 1.75991)
(22.949 3.21044e-16 -33.7746)
(83.3326 -1.13266e-15 -68.4763)
(130.91 0 -87.1702)
(129.481 0 -67.8394)
(78.0782 0 -24.504)
(9.97983 0 15.3691)
(-40.649 0 39.2303)
(-63.6611 -6.30972e-18 40.833)
(-63.309 0 34.1178)
(-49.8886 0 23.2062)
(-32.4787 6.00278e-18 12.1767)
(-18.6719 0 6.32934)
(-14.5926 -1.87764e-16 7.33531)
(-20.8646 0 14.0001)
(-34.1263 -1.32358e-16 23.856)
(-50.7058 2.88809e-18 33.7606)
(-66.1886 0 41.9136)
(-76.6079 0 46.7009)
(-82.5928 0 48.5269)
(-82.6139 0 47.0668)
(-79.0295 2.04785e-18 44.2059)
(-72.7973 -2.10557e-16 40.007)
(-66.2876 -8.22552e-17 36.2477)
(-59.1705 -1.13219e-16 32.4768)
(-54.3894 0 29.969)
(-50.1508 1.84815e-16 27.9951)
(-47.9497 -9.15546e-17 27.0741)
(-46.4788 0 26.4929)
(-46.6432 1.46567e-18 26.652)
(-46.3124 -3.13907e-16 26.7615)
(-47.6581 3.31002e-16 27.344)
(-48.3254 0 27.8834)
(-49.3551 4.36021e-17 28.4678)
(-50.9208 0 29.4064)
(-51.4728 0 29.6346)
(-53.3488 -1.1937e-16 30.9039)
(-54.0422 0 30.9773)
(-53.6802 0 31.272)
(-58.567 2.23473e-16 33.9743)
(-54.3784 -6.25279e-16 31.1046)
(-59.0887 1.91257e-16 35.0537)
(-61.6764 2.4752e-16 35.7134)
(-14.2591 0 25.8504)
(-13.8369 -4.9595e-20 25.7227)
(-14.2053 2.1956e-19 25.5913)
(-14.8035 0 25.445)
(-15.2681 0 25.2705)
(-15.7641 0 25.0211)
(-16.6283 -1.01237e-18 24.7283)
(-18.3087 0 24.4889)
(-21.118 -4.18239e-19 24.3602)
(-25.1003 0 24.4239)
(-30.0937 0 24.7756)
(-35.8619 -1.67846e-18 25.3711)
(-42.1018 0 26.0695)
(-48.3629 -1.83912e-18 26.7975)
(-54.0946 1.12882e-18 27.5716)
(-58.7874 -3.81233e-19 28.3354)
(-62.109 0 28.9882)
(-63.9297 -2.86462e-18 29.3517)
(-64.1818 0 29.425)
(-63.0611 -8.88841e-18 29.0514)
(-60.727 0 28.3997)
(-57.5318 6.26327e-18 27.2419)
(-54.1896 1.64261e-19 25.9053)
(-50.5999 0 24.3637)
(-47.4711 0 22.6422)
(-44.4772 -1.31539e-17 21.2663)
(-41.4529 0 19.7283)
(-39.25 0 18.6111)
(-37.0642 -5.96524e-19 17.6371)