/*--------------------------------*- C++ -*----------------------------------*\
| =========                 |                                                 |
| \\      /  F ield         | OpenFOAM: The Open Source CFD Toolbox           |
|  \\    /   O peration     | Version:  2412                                  |
|   \\  /    A nd           | Website:  www.openfoam.com                      |
|    \\/     M anipulation  |                                                 |
\*---------------------------------------------------------------------------*/
FoamFile
{
    version     2.0;
    format      ascii;
    arch        "LSB;label=32;scalar=64";
    class       volVectorField;
    location    "0.205";
    object      U_0;
}
// * * * * * * * * * * * * * * * * * * * * * * * * * * * * * * * * * * * * * //

dimensions      [0 1 -1 0 0 0 0];

internalField   nonuniform List<vector> 
12600
(
(22.6649 0 -1.68494)
(9.70006 -4.84659e-20 -2.11174)
(4.40121 -2.83939e-20 -2.11288)
(2.36714 0 -1.63733)
(1.56326 -9.70547e-23 -1.14641)
(1.13899 0 -0.819973)
(0.854418 -2.62365e-20 -0.609217)
(0.646625 0 -0.462761)
(0.48915 0 -0.354397)
(0.367059 0 -0.271207)
(0.270296 0 -0.206221)
(0.191968 -1.01761e-19 -0.154832)
(0.128034 -1.05595e-19 -0.112959)
(0.0754477 0 -0.078383)
(0.0318826 2.19635e-19 -0.0496038)
(-0.00438058 0 -0.0254887)
(-0.034618 4.12403e-22 -0.00520807)
(-0.060009 0 0.0120219)
(-0.0812891 1.103e-19 0.0260846)
(-0.0986942 0 0.0380506)
(-0.113189 0 0.0482388)
(-0.125053 0 0.0567123)
(-0.13469 4.18265e-19 0.0636606)
(-0.142356 -4.10045e-19 0.0693497)
(-0.14829 -2.63148e-22 0.0739025)
(-0.15272 1.96059e-19 0.0774964)
(-0.155804 0 0.080181)
(-0.157746 0 0.0821536)
(-0.158603 0 0.0834559)
(-0.158534 -3.51736e-19 0.0842324)
(-0.157821 -6.82387e-19 0.0845455)
(-0.156382 0 0.0843908)
(-0.154487 0 0.083859)
(-0.152122 -3.09985e-19 0.0829725)
(-0.149405 -2.99704e-19 0.0818264)
(-0.146305 0 0.0804435)
(-0.142894 0 0.0788278)
(-0.13908 -5.39092e-19 0.0769682)
(-0.134817 0 0.0748188)
(-0.129959 1.53599e-22 0.0722941)
(-0.124271 -4.82465e-19 0.0692868)
(-0.117582 -4.6458e-19 0.0656924)
(-0.109681 0 0.0614171)
(-0.100517 -4.29692e-19 0.056412)
(-0.0902565 -4.12575e-19 0.0507071)
(-0.0791265 7.91489e-19 0.0446006)
(-0.0676972 -7.58122e-19 0.0384417)
(-0.0564838 0 0.0327882)
(-0.0467644 6.91611e-19 0.0277424)
(-0.0404521 -6.58593e-19 0.024753)
(-0.0406217 0 0.0253876)
(-0.0509182 1.85018e-22 0.0316781)
(-0.0747819 5.61844e-19 0.0458744)
(-0.113599 0 0.067986)
(-0.163752 -1.0157e-18 0.0948875)
(-0.212708 0 0.120382)
(-0.230604 0 0.128171)
(-0.182829 7.64481e-22 0.0984277)
(-0.0477433 5.83964e-22 0.0204142)
(0.14101 8.64968e-19 -0.0818587)
(0.287843 -8.10817e-19 -0.161503)
(0.335875 1.50555e-18 -0.188552)
(0.333627 0 -0.185819)
(0.315737 1.27732e-18 -0.171367)
(0.15167 1.118e-18 -0.0671097)
(-0.258498 -1.87699e-18 0.172643)
(-0.794233 8.14428e-19 0.472625)
(-1.3076 0 0.742351)
(-1.63331 0 0.914362)
(-1.62968 0 0.898367)
(-1.30541 0 0.714968)
(-0.84976 0 0.460318)
(-0.460023 -2.82693e-18 0.247173)
(-0.192828 2.78559e-18 0.101407)
(-0.0265206 0 0.010455)
(0.0708304 0 -0.0430884)
(0.122905 2.43901e-18 -0.0718747)
(0.150808 -1.07202e-23 -0.0870723)
(0.165577 4.37537e-18 -0.0949191)
(0.164778 0 -0.0936577)
(0.137011 0 -0.0768037)
(0.0799188 0 -0.0438237)
(0.0133926 1.57001e-22 -0.00669848)
(-0.0376828 0 0.020618)
(-0.0583439 0 0.0317414)
(-0.0533818 2.93449e-18 0.0285132)
(-0.0365281 -4.21584e-22 0.018974)
(-0.0174818 0 0.00837294)
(-0.00434329 0 0.00116448)
(-0.000507501 -4.79738e-18 -0.00080553)
(-0.00563071 -4.54129e-18 0.00224535)
(-0.0160069 -4.29966e-18 0.00800868)
(-0.0270476 -4.07646e-18 0.0139544)
(-0.0334947 -5.37441e-22 0.0171908)
(-0.0335003 -5.97694e-22 0.0167678)
(-0.0250319 3.50981e-18 0.0116718)
(-0.0102145 0 0.00294358)
(0.0103314 0 -0.00881595)
(0.033138 0 -0.0218531)
(0.0569983 1.15317e-17 -0.0354441)
(0.0796218 -5.47081e-18 -0.0482853)
(0.100489 5.18539e-18 -0.0601817)
(0.11896 4.90709e-18 -0.0706652)
(0.135406 0 -0.08008)
(0.150355 0 -0.0886253)
(0.164181 0 -0.0965926)
(0.177999 7.80444e-18 -0.104576)
(0.19126 0 -0.112235)
(0.205582 -6.93711e-18 -0.120589)
(0.219592 0 -0.12865)
(0.235142 0 -0.137798)
(0.250705 5.79522e-18 -0.146691)
(0.268306 0 -0.157097)
(0.286573 0 -0.167493)
(0.306938 0 -0.179584)
(0.336246 -9.08492e-18 -0.196174)
(0.34657 0 -0.202739)
(0.423651 8.02778e-18 -0.246619)
(0.396431 0 -0.231464)
(0.608027 2.57555e-22 -0.352609)
(35.4767 -1.55212e-20 -2.63113)
(25.7429 2.86319e-20 -4.60801)
(17.1099 1.66662e-20 -5.52136)
(11.3106 0 -4.94221)
(7.85683 -3.60628e-21 -3.87966)
(5.73203 1.64374e-20 -2.97298)
(4.33784 2.73657e-20 -2.29933)
(3.3559 -3.41755e-20 -1.79958)
(2.62539 0 -1.41838)
(2.06235 0 -1.11983)
(1.6174 0 -0.881588)
(1.25912 0 -0.68873)
(0.966702 0 -0.529967)
(0.725111 0 -0.397865)
(0.523719 -9.80932e-22 -0.287115)
(0.354722 0 -0.193715)
(0.212322 1.15653e-19 -0.114678)
(0.0912611 0 -0.0474884)
(-0.0106736 -2.29033e-19 0.0100243)
(-0.0964374 2.26419e-19 0.0583603)
(-0.169561 0 0.0991553)
(-0.231147 2.20312e-19 0.133702)
(-0.282704 -2.17122e-19 0.162805)
(-0.325575 2.12773e-19 0.187087)
(-0.360849 -2.08102e-19 0.207028)
(-0.389474 0 0.223299)
(-0.412165 1.97657e-19 0.236182)
(-0.429747 0 0.246268)
(-0.442755 0 0.253496)
(-0.451745 0 0.258493)
(-0.45763 3.52798e-19 0.261616)
(-0.460296 0 0.262994)
(-0.460497 0 0.263067)
(-0.458337 0 0.261905)
(-0.454309 0 0.259679)
(-0.448503 0 0.256368)
(-0.441092 0 0.252149)
(-0.431967 5.5466e-19 0.246833)
(-0.420989 0 0.240393)
(-0.407787 1.02861e-18 0.232611)
(-0.391751 9.89917e-19 0.223175)
(-0.372441 4.75944e-19 0.211797)
(-0.349361 0 0.198259)
(-0.322483 0 0.182563)
(-0.292394 8.43296e-19 0.165032)
(-0.260088 -8.08162e-19 0.146444)
(-0.227486 7.7314e-19 0.127989)
(-0.196543 0 0.111257)
(-0.171045 -7.04001e-19 0.0973078)
(-0.157036 0 0.0902559)
(-0.163185 0 0.0958366)
(-0.200137 -6.01604e-19 0.119987)
(-0.277489 0 0.167959)
(-0.396921 0 0.239276)
(-0.544205 1.02621e-18 0.322775)
(-0.678074 0 0.395903)
(-0.710451 0 0.406282)
(-0.545595 1.31851e-21 0.295295)
(-0.125251 9.05872e-19 0.0400508)
(0.445765 -2.61436e-22 -0.283011)
(0.896405 0 -0.528983)
(1.05142 -1.50794e-18 -0.608218)
(1.02517 -1.39895e-18 -0.588486)
(0.893507 0 -0.499864)
(0.262961 -2.23363e-18 -0.101444)
(-1.09232 -5.19341e-21 0.707479)
(-2.73281 0 1.65601)
(-4.18616 7.81106e-19 2.4603)
(-5.00415 0 2.90281)
(-4.84219 0 2.76797)
(-3.81947 0 2.1466)
(-2.47511 0 1.36704)
(-1.33748 5.56169e-18 0.726427)
(-0.545736 -2.73439e-18 0.286058)
(-0.043368 0 0.00816726)
(0.257992 0 -0.157982)
(0.422384 2.38692e-18 -0.248347)
(0.508687 -1.69332e-23 -0.29543)
(0.547575 1.63091e-22 -0.316465)
(0.5312 0 -0.305038)
(0.429768 0 -0.243406)
(0.245354 0 -0.134861)
(0.0435153 2.59092e-22 -0.0191067)
(-0.102685 -3.12833e-18 0.0621038)
(-0.155829 2.97426e-18 0.0907074)
(-0.134467 -2.83533e-18 0.0768417)
(-0.0807578 -6.27519e-22 0.0452072)
(-0.0237415 -2.56794e-18 0.0124909)
(0.0135508 0 -0.00832628)
(0.0227866 4.61111e-18 -0.0128803)
(0.00672119 0 -0.00309139)
(-0.021873 4.1226e-18 0.0136961)
(-0.0491474 0 0.0294146)
(-0.060098 -7.40599e-18 0.0354641)
(-0.0502775 -3.51943e-18 0.0294252)
(-0.0150484 0 0.00857599)
(0.0387414 0 -0.0227564)
(0.108258 -6.06848e-18 -0.0630396)
(0.183327 5.76914e-18 -0.106442)
(0.260542 -1.09602e-17 -0.151009)
(0.333148 5.19583e-18 -0.192754)
(0.400446 -4.92034e-18 -0.231488)
(0.460108 0 -0.265713)
(0.514533 4.39386e-18 -0.297006)
(0.564193 0 -0.325536)
(0.61188 0 -0.352954)
(0.658981 -7.37422e-18 -0.380126)
(0.706246 0 -0.407256)
(0.755561 8.90328e-22 -0.43584)
(0.806396 6.16124e-18 -0.464916)
(0.859889 0 -0.496076)
(0.916847 0 -0.528526)
(0.976837 0 -0.563668)
(1.04317 4.83039e-18 -0.601332)
(1.11189 -9.10336e-18 -0.641965)
(1.21286 8.54063e-18 -0.699131)
(1.25018 0 -0.722645)
(1.50364 -7.54009e-18 -0.867397)
(1.4083 0 -0.816465)
(2.08496 1.32572e-17 -1.20821)
(39.0246 3.34052e-20 -2.80044)
(34.776 -8.09914e-21 -4.59477)
(28.212 9.62737e-21 -6.3023)
(21.6138 0 -6.75355)
(16.23 -7.70954e-21 -6.20271)
(12.2894 9.09601e-22 -5.26739)
(9.48854 0 -4.3362)
(7.45405 3.24331e-20 -3.53863)
(5.92515 0 -2.88323)
(4.74194 4.23388e-20 -2.34723)
(3.80491 0 -1.90613)
(3.04914 0 -1.54004)
(2.43035 0 -1.23384)
(1.91768 0 -0.975838)
(1.48897 -1.07428e-19 -0.757147)
(1.12786 0 -0.570907)
(0.822108 0 -0.411799)
(0.561609 0 -0.275641)
(0.340675 1.08416e-19 -0.157254)
(0.152115 -8.24377e-22 -0.0569087)
(-0.00913304 0 0.0290228)
(-0.146254 -6.39055e-22 0.102608)
(-0.262886 0 0.165053)
(-0.361462 -2.0083e-19 0.218176)
(-0.444173 0 0.262894)
(-0.513035 0 0.300288)
(-0.569634 -1.87484e-19 0.330955)
(-0.615589 0 0.356033)
(-0.652026 0 0.375569)
(-0.679945 -3.44058e-19 0.390661)
(-0.701042 0 0.401917)
(-0.715394 0 0.409659)
(-0.724537 0 0.414254)
(-0.728811 0 0.416011)
(-0.728975 2.92339e-19 0.415497)
(-0.725097 0 0.413016)
(-0.717822 0 0.408411)
(-0.707065 -5.24737e-19 0.40149)
(-0.692527 0 0.392478)
(-0.67386 -9.73636e-19 0.380892)
(-0.650173 -2.0622e-22 0.366365)
(-0.620885 -4.506e-19 0.348518)
(-0.585352 0 0.327143)
(-0.543661 0 0.302475)
(-0.496909 -3.98945e-19 0.275349)
(-0.446999 0 0.247013)
(-0.397224 -7.31359e-19 0.219549)
(-0.35105 0 0.195495)
(-0.314495 -8.03467e-23 0.177324)
(-0.29757 0 0.171068)
(-0.313113 0 0.187255)
(-0.378278 0 0.234032)
(-0.507222 -5.38444e-19 0.317587)
(-0.700063 0 0.434891)
(-0.930704 0 0.564702)
(-1.13041 0 0.665338)
(-1.16117 0 0.653103)
(-0.879081 1.75184e-18 0.442178)
(-0.197135 0 0.0139349)
(0.720219 -1.92883e-22 -0.502679)
(1.46001 0 -0.884329)
(1.72678 7.11378e-19 -0.999246)
(1.66246 1.31899e-18 -0.939976)
(1.35546 0 -0.709244)
(0.183997 2.11456e-18 0.0744176)
(-2.12332 8.8617e-19 1.4782)
(-4.76848 0 2.99111)
(-6.96827 -7.35613e-19 4.15787)
(-8.07158 0 4.67165)
(-7.64834 0 4.29154)
(-5.9779 0 3.23392)
(-3.8706 0 2.0266)
(-2.09177 -4.45349e-21 1.05809)
(-0.836046 2.5715e-18 0.388579)
(-0.0253438 0 -0.0400386)
(0.470474 0 -0.301032)
(0.745216 -1.57066e-22 -0.444778)
(0.887133 -4.24763e-18 -0.517886)
(0.942712 -2.00554e-18 -0.543885)
(0.899982 0 -0.510969)
(0.717294 0 -0.395561)
(0.408041 0 -0.212279)
(0.0826793 -6.21315e-18 -0.0289945)
(-0.144112 2.65201e-22 0.0911228)
(-0.219443 -2.79009e-18 0.126492)
(-0.178673 0 0.0973377)
(-0.0893948 -2.53225e-18 0.0439771)
(0.00181234 2.40745e-18 -0.00744059)
(0.0598054 0 -0.0378474)
(0.0732969 0 -0.042557)
(0.0483282 4.08364e-18 -0.0270542)
(0.00716555 0 -0.0031317)
(-0.0281457 3.65497e-18 0.0163403)
(-0.0344398 6.72589e-22 0.0187578)
(-0.0065807 3.29368e-18 0.000110989)
(0.0619739 -3.13392e-18 -0.0418129)
(0.15937 0 -0.0994543)
(0.280406 5.67914e-18 -0.170144)
(0.40899 -5.39819e-18 -0.244404)
(0.539991 1.02518e-17 -0.319706)
(0.662694 0 -0.389667)
(0.776989 -4.60044e-18 -0.454906)
(0.878591 0 -0.512648)
(0.972903 -4.10858e-18 -0.566543)
(1.05917 3.87636e-18 -0.615843)
(1.1441 0 -0.664615)
(1.22714 6.89305e-18 -0.712489)
(1.31304 0 -0.76188)
(1.40025 1.22351e-17 -0.812539)
(1.4937 -5.75747e-18 -0.866122)
(1.5879 0 -0.921216)
(1.69325 0 -0.981372)
(1.79794 0 -1.04305)
(1.92014 -5.43656e-22 -1.11249)
(2.03864 8.50323e-18 -1.1834)
(2.21874 -7.97508e-18 -1.28447)
(2.28335 0 -1.32806)
(2.71902 -7.04011e-18 -1.57362)
(2.54586 0 -1.48704)
(3.67002 -2.92015e-22 -2.13576)
(39.3649 -1.77023e-20 -3.2172)
(38.4782 -6.05023e-21 -4.24774)
(35.123 2.44942e-21 -5.94842)
(30.1854 -1.05975e-20 -7.16943)
(24.8765 -1.73689e-20 -7.47063)
(20.0744 -3.33364e-20 -7.03888)
(16.1226 0 -6.25012)
(12.996 0 -5.37765)
(10.5364 0 -4.55363)
(8.5839 -4.00997e-20 -3.82297)
(7.01332 0 -3.19088)
(5.73317 0 -2.64849)
(4.67726 0 -2.1836)
(3.79737 0 -1.78443)
(3.05794 0 -1.44089)
(2.43226 -1.01565e-19 -1.14454)
(1.90004 1.02165e-19 -0.88839)
(1.44491 0 -0.666865)
(1.05557 0 -0.473937)
(0.721726 -2.0274e-19 -0.307679)
(0.435052 1.99623e-19 -0.16332)
(0.188761 -1.97379e-19 -0.0387522)
(-0.0223879 1.9341e-19 0.0684202)
(-0.202654 1.90169e-19 0.160537)
(-0.356227 -1.85639e-19 0.238849)
(-0.486101 1.81342e-19 0.305606)
(-0.595071 0 0.361579)
(-0.685711 -1.72194e-19 0.408484)
(-0.760019 0 0.446663)
(-0.819626 3.25634e-19 0.477785)
(-0.867289 0 0.50247)
(-0.903562 0 0.521335)
(-0.930599 0 0.534992)
(-0.948962 -2.86002e-19 0.54398)
(-0.959852 -2.76541e-19 0.549054)
(-0.964191 0 0.549953)
(-0.962669 0 0.547193)
(-0.954909 4.96201e-19 0.541099)
(-0.941077 0 0.531438)
(-0.920765 2.47808e-22 0.517934)
(-0.893036 -4.42711e-19 0.500046)
(-0.857306 0 0.477422)
(-0.812954 0 0.449962)
(-0.760334 0 0.418191)
(-0.701184 0 0.383458)
(-0.638261 -7.21839e-19 0.347725)
(-0.57621 0 0.313966)
(-0.519911 6.59505e-19 0.285869)
(-0.47761 6.28581e-19 0.267104)
(-0.462554 0 0.265456)
(-0.490709 0 0.296078)
(-0.584915 0 0.367789)
(-0.761388 5.07997e-19 0.48748)
(-1.01756 -4.81175e-19 0.647306)
(-1.31488 -9.14281e-19 0.814164)
(-1.55962 0 0.926136)
(-1.57411 -8.44975e-19 0.873591)
(-1.1799 -1.64906e-18 0.554287)
(-0.271676 0 -0.0406715)
(0.945908 -1.54249e-18 -0.728604)
(1.95483 0 -1.22313)
(2.33798 -6.7126e-19 -1.36019)
(2.22114 -1.24551e-18 -1.23731)
(1.67037 0 -0.808967)
(-0.111174 -9.97239e-19 0.426327)
(-3.34614 -8.41939e-19 2.43075)
(-6.84348 0 4.41703)
(-9.54768 0 5.78366)
(-10.7073 0 6.21689)
(-9.9425 9.15682e-19 5.51579)
(-7.70294 1.0843e-18 4.06176)
(-4.98923 0 2.50426)
(-2.69472 -2.45146e-18 1.27901)
(-1.04865 -2.41158e-18 0.427005)
(0.0347179 0 -0.126458)
(0.71098 0 -0.469166)
(1.09206 -2.10594e-18 -0.659868)
(1.28559 5.07937e-24 -0.75386)
(1.34934 0 -0.777935)
(1.26928 0 -0.715264)
(0.99948 0 -0.540837)
(0.57144 0 -0.28473)
(0.137829 -1.82075e-22 -0.0425601)
(-0.153152 2.75187e-18 0.105534)
(-0.240527 0 0.140154)
(-0.177919 0 0.0934726)
(-0.055145 0 0.0193949)
(0.0660503 2.25481e-18 -0.0480714)
(0.141302 0 -0.0862408)
(0.158683 4.04609e-18 -0.0908458)
(0.128751 -3.82413e-18 -0.071162)
(0.0824209 3.61462e-18 -0.0439013)
(0.0486754 -3.4216e-18 -0.0257809)
(0.0564135 6.48885e-18 -0.0330034)
(0.111114 -3.08245e-18 -0.0689677)
(0.219658 2.93251e-18 -0.135303)
(0.364974 0 -0.22162)
(0.539758 0 -0.323833)
(0.722682 -5.04677e-18 -0.429385)
(0.90765 -4.79344e-18 -0.535572)
(1.08037 -4.54228e-18 -0.633772)
(1.24226 8.5109e-22 -0.725938)
(1.38663 0 -0.807706)
(1.52301 0 -0.885439)
(1.64793 -3.62324e-18 -0.956682)
(1.77387 0 -1.02884)
(1.89557 -6.43994e-18 -1.09897)
(2.02515 0 -1.17328)
(2.15301 -8.37668e-22 -1.24763)
(2.29534 0 -1.32894)
(2.43256 -5.06615e-18 -1.40942)
(2.59383 4.76227e-18 -1.5011)
(2.74471 4.48705e-18 -1.59042)
(2.93121 -6.28392e-22 -1.69591)
(3.09954 0 -1.79768)
(3.36672 7.44771e-18 -1.94639)
(3.4568 7.01011e-18 -2.01062)
(4.07828 6.5738e-18 -2.35759)
(3.82052 0 -2.23574)
(5.35409 -3.28805e-22 -3.12305)
(38.8474 0 -3.78658)
(39.1794 -4.48685e-21 -4.26137)
(38.1644 0 -5.49423)
(35.5403 1.0013e-20 -6.83976)
(31.7404 2.32989e-20 -7.72337)
(27.4535 1.67383e-20 -7.9551)
(23.2618 0 -7.64491)
(19.4964 0 -7.00602)
(16.2658 -3.3347e-20 -6.22716)
(13.5523 -3.71512e-20 -5.42961)
(11.2884 4.02839e-20 -4.67512)
(9.39782 8.55458e-20 -3.98845)
(7.81191 8.93741e-20 -3.37533)
(6.47403 0 -2.83306)
(5.33905 0 -2.3557)
(4.37127 1.91459e-19 -1.93644)
(3.54256 -5.39692e-22 -1.56862)
(2.83001 0 -1.24639)
(2.21642 -9.58057e-20 -0.963143)
(1.68712 -1.90148e-19 -0.715838)
(1.22975 -1.88721e-19 -0.499517)
(0.834443 0 -0.310972)
(0.493482 -1.8283e-19 -0.146363)
(0.199393 1.78826e-19 -0.00378832)
(-0.0532087 1.75463e-19 0.119309)
(-0.26925 -3.64268e-22 0.22526)
(-0.453323 0 0.315242)
(-0.608851 2.79067e-22 0.392159)
(-0.739242 0 0.456153)
(-0.846834 3.06826e-19 0.509613)
(-0.935592 0 0.553322)
(-1.00655 0 0.588369)
(-1.06246 0 0.615991)
(-1.10463 2.70129e-19 0.636835)
(-1.13514 0 0.651697)
(-1.15512 0 0.660486)
(-1.1655 0 0.663704)
(-1.16722 0 0.660477)
(-1.15945 -4.50646e-19 0.652886)
(-1.14256 8.67885e-19 0.639545)
(-1.1155 0 0.620424)
(-1.07788 4.01355e-19 0.595126)
(-1.02926 0 0.56378)
(-0.970348 0 0.527327)
(-0.903571 0 0.487719)
(-0.832581 1.21735e-22 0.447624)
(-0.76331 0 0.41087)
(-0.701998 -6.21847e-19 0.382228)
(-0.658774 0 0.366783)
(-0.64909 0 0.374219)
(-0.692091 -5.34898e-19 0.422142)
(-0.814209 0 0.520686)
(-1.03251 0 0.675316)
(-1.34069 -1.66622e-22 0.872013)
(-1.68798 8.61141e-19 1.065)
(-1.96008 0 1.17193)
(-1.95071 1.01544e-21 1.06331)
(-1.45894 1.55012e-18 0.631288)
(-0.366747 0 -0.116186)
(1.10143 7.25735e-19 -0.949232)
(2.35981 0 -1.53294)
(2.86771 6.31485e-19 -1.67594)
(2.68712 1.17149e-18 -1.46153)
(1.8354 0 -0.770486)
(-0.601782 9.46585e-19 0.976321)
(-4.70684 -3.6894e-21 3.55538)
(-8.87 0 5.87962)
(-11.8272 0 7.26035)
(-12.8572 0 7.45417)
(-11.7233 -1.71234e-18 6.38267)
(-9.02364 -6.93894e-21 4.58454)
(-5.85014 0 2.77306)
(-3.15283 2.29242e-18 1.3722)
(-1.18479 4.52524e-18 0.391289)
(0.13674 0 -0.256328)
(0.979066 0 -0.664657)
(1.46226 0 -0.894264)
(1.70365 2.19316e-24 -1.00297)
(1.76819 0 -1.01719)
(1.64256 0 -0.915787)
(1.28323 0 -0.678094)
(0.744479 0 -0.353809)
(0.217564 2.73055e-18 -0.0642261)
(-0.12323 2.57796e-18 0.0997162)
(-0.215145 0 0.12544)
(-0.130023 0 0.0587396)
(0.0236653 0 -0.0346508)
(0.171312 -4.06679e-22 -0.115276)
(0.262108 0 -0.15906)
(0.284992 -3.78772e-18 -0.163444)
(0.255261 0 -0.142307)
(0.211557 -3.38282e-18 -0.116808)
(0.188307 0 -0.106662)
(0.21879 -3.03519e-18 -0.129789)
(0.307832 0 -0.188318)
(0.46146 0 -0.283081)
(0.65802 0 -0.400383)
(0.888174 0 -0.53525)
(1.12612 4.71896e-18 -0.672328)
(1.36553 0 -0.809331)
(1.58866 4.24631e-18 -0.935536)
(1.79936 4.01997e-18 -1.05489)
(1.98779 0 -1.16107)
(2.16887 0 -1.26392)
(2.33466 0 -1.35824)
(2.5055 0 -1.45603)
(2.66834 8.86443e-22 -1.54987)
(2.84657 0 -1.65208)
(3.01722 -1.06763e-17 -1.75147)
(3.21445 0 -1.86418)
(3.39601 9.46326e-18 -1.97094)
(3.62035 -4.44784e-18 -2.09854)
(3.8175 -4.19052e-18 -2.21569)
(4.07631 -3.93463e-18 -2.36205)
(4.29246 0 -2.49403)
(4.65451 0 -2.69421)
(4.76544 -1.30898e-17 -2.77861)
(5.57348 6.13625e-18 -3.22445)
(5.231 5.75929e-18 -3.07137)
(7.11827 -5.3938e-18 -4.16352)
(38.3204 0 -4.24986)
(38.7675 3.63115e-20 -4.50695)
(38.8446 0 -5.26406)
(37.9496 0 -6.35343)
(35.9127 0 -7.39494)
(32.97 0 -8.08218)
(29.5186 0 -8.30152)
(25.9295 2.84889e-20 -8.09963)
(22.4704 3.14619e-20 -7.59925)
(19.2974 7.00844e-20 -6.92955)
(16.4748 -7.58096e-20 -6.19121)
(14.0073 -8.07325e-20 -5.44948)
(11.8686 -8.4351e-20 -4.74095)
(10.0211 0 -4.08342)
(8.42576 0 -3.48368)
(7.04669 -1.796e-19 -2.9425)
(5.85278 -1.80835e-19 -2.45743)
(4.81715 0 -2.02492)
(3.91793 9.04308e-20 -1.63965)
(3.1365 1.79477e-19 -1.29848)
(2.45684 0 -0.996687)
(1.8656 1.74414e-19 -0.730679)
(1.35181 0 -0.496523)
(0.905685 -4.44092e-22 -0.291559)
(0.519764 -1.648e-19 -0.111968)
(0.186061 -3.49464e-22 0.0436782)
(-0.10059 0 0.178372)
(-0.345816 1.53271e-19 0.294453)
(-0.554818 -2.97609e-19 0.392403)
(-0.730145 -5.78504e-19 0.476218)
(-0.877565 -2.80399e-19 0.546297)
(-0.998921 0 0.604171)
(-1.09805 -2.62957e-19 0.651204)
(-1.17693 0 0.688377)
(-1.23815 0 0.716962)
(-1.28321 0 0.737931)
(-1.31432 0 0.751493)
(-1.3322 0 0.756635)
(-1.33805 2.59462e-22 0.752828)
(-1.33081 -4.08907e-19 0.742808)
(-1.3104 0 0.724973)
(-1.27661 -7.56262e-19 0.699571)
(-1.22931 0 0.666964)
(-1.16969 0 0.628594)
(-1.10085 0 0.587072)
(-1.0273 6.41161e-19 0.545807)
(-0.956154 0 0.509442)
(-0.894887 0 0.483757)
(-0.855142 0 0.47519)
(-0.853787 0 0.495346)
(-0.912689 1.00728e-18 0.562632)
(-1.05993 0 0.688753)
(-1.31262 0 0.876132)
(-1.66039 4.26658e-19 1.10326)
(-2.04173 0 1.31142)
(-2.32736 0 1.39951)
(-2.29332 1.49357e-18 1.22519)
(-1.72773 -7.28284e-19 0.681844)
(-0.501363 0 -0.20083)
(1.1643 0 -1.15252)
(2.65143 0 -1.80328)
(3.29444 -5.94715e-19 -1.93707)
(3.04345 0 -1.60015)
(1.8439 0 -0.584304)
(-1.26806 -1.78249e-18 1.71619)
(-6.14463 1.49659e-18 4.81399)
(-10.7502 0 7.31162)
(-13.7136 0 8.52067)
(-14.4689 0 8.36996)
(-12.9905 7.9983e-19 6.92017)
(-9.95313 -9.49227e-19 4.8407)
(-6.45885 -2.08315e-18 2.85473)
(-3.46361 -2.15062e-18 1.34519)
(-1.24048 -2.12124e-18 0.282473)
(0.282954 2.0454e-18 -0.430438)
(1.27499 0 -0.888133)
(1.85528 0 -1.14809)
(2.14115 1.75291e-18 -1.26501)
(2.2003 0 -1.26176)
(2.02266 0 -1.11476)
(1.57434 0 -0.81157)
(0.93534 0 -0.424847)
(0.330661 0 -0.0990499)
(-0.0467627 -4.82821e-18 0.0696778)
(-0.136801 0 0.0809004)
(-0.029384 -2.18298e-18 -0.00697487)
(0.152451 0 -0.118009)
(0.32337 -4.14006e-22 -0.209914)
(0.429177 3.74577e-18 -0.258271)
(0.460446 0 -0.26342)
(0.436983 0 -0.244506)
(0.404508 0 -0.225457)
(0.401507 0 -0.227996)
(0.462605 2.83738e-18 -0.272906)
(0.592618 0 -0.358173)
(0.795852 0 -0.484121)
(1.04634 0 -0.63409)
(1.33324 0 -0.802391)
(1.62681 0 -0.971205)
(1.92126 0 -1.13926)
(2.19533 0 -1.29358)
(2.45632 0 -1.44083)
(2.69023 -3.54893e-18 -1.57205)
(2.91884 0 -1.70152)
(3.12754 0 -1.82001)
(3.34727 0 -1.94554)
(3.55318 5.61986e-18 -2.06422)
(3.78501 0 -2.19692)
(3.99953 4.98556e-18 -2.32211)
(4.25769 0 -2.46924)
(4.4832 -7.14006e-22 -2.6024)
(4.77773 0 -2.76936)
(5.01889 3.91188e-18 -2.9136)
(5.35784 0 -3.10451)
(5.6168 0 -3.26486)
(6.08081 0 -3.51908)
(6.20572 6.10996e-18 -3.62235)
(7.19432 -1.14565e-17 -4.16089)
(6.77708 -1.07523e-17 -3.98657)
(8.94095 -5.03426e-18 -5.24157)
(37.9264 0 -4.53501)
(38.2098 -3.98855e-20 -4.75647)
(38.5466 0 -5.22907)
(38.5006 0 -6.00227)
(37.7331 -2.83781e-20 -6.92183)
(36.1644 -2.69172e-20 -7.75477)
(33.9054 2.72099e-20 -8.32078)
(31.1572 -8.43123e-20 -8.54275)
(28.1427 0 -8.43356)
(25.0625 3.27659e-22 -8.05969)
(22.0701 3.56117e-20 -7.50535)
(19.2651 0 -6.84799)
(16.6997 0 -6.1476)
(14.3911 0 -5.44568)
(12.3349 0 -4.76842)
(10.5148 5.05034e-22 -4.13092)
(8.90944 4.66013e-22 -3.54064)
(7.49639 8.46931e-20 -3.00058)
(6.25428 8.44685e-20 -2.5098)
(5.16358 0 -2.06731)
(4.20642 -1.66066e-19 -1.67012)
(3.3671 -1.64379e-19 -1.31536)
(2.63207 0 -0.999466)
(1.98922 -4.25092e-22 -0.71971)
(1.42846 3.75809e-22 -0.472467)
(0.940101 -1.51753e-19 -0.255741)
(0.517279 0 -0.0652325)
(0.151027 0 0.0996553)
(-0.163329 2.80403e-19 0.24254)
(-0.431204 4.06514e-22 0.364917)
(-0.659596 5.27953e-19 0.46918)
(-0.851122 0 0.557221)
(-1.0109 4.95103e-19 0.630586)
(-1.14188 0 0.690607)
(-1.24769 0 0.73876)
(-1.33079 -2.23058e-19 0.775777)
(-1.39346 0 0.803114)
(-1.43738 -4.14677e-19 0.821316)
(-1.46429 2.80526e-22 0.8283)
(-1.47543 3.8449e-19 0.823136)
(-1.46901 0 0.810144)
(-1.44606 1.81318e-22 0.787732)
(-1.40683 0 0.757008)
(-1.35302 0 0.719938)
(-1.2884 0 0.679807)
(-1.21829 0 0.64077)
(-1.15081 0 0.608208)
(-1.09453 5.50938e-19 0.588784)
(-1.06219 0 0.590288)
(-1.07153 0 0.625612)
(-1.1458 -4.73689e-19 0.71404)
(-1.31413 0 0.867324)
(-1.59274 -4.24384e-19 1.08421)
(-1.96766 -4.01329e-19 1.33494)
(-2.36926 7.61191e-19 1.54839)
(-2.66 0 1.60757)
(-2.60882 -7.0116e-19 1.36365)
(-2.00094 -6.81651e-19 0.717)
(-0.695017 0 -0.280841)
(1.11294 0 -1.32611)
(2.80652 0 -2.02392)
(3.5979 5.58401e-19 -2.13229)
(3.27615 0 -1.63902)
(1.69822 0 -0.240397)
(-2.07648 8.38416e-19 2.63272)
(-7.58632 -1.40952e-18 6.15806)
(-12.3866 0 8.63997)
(-15.1409 0 9.51071)
(-15.5547 0 8.94333)
(-13.7968 0 7.14966)
(-10.5371 -8.75854e-19 4.85355)
(-6.83555 1.95324e-18 2.76161)
(-3.63038 0 1.20096)
(-1.21326 0 0.0996317)
(0.475447 -1.91697e-18 -0.650163)
(1.59895 0 -1.14026)
(2.27053 -1.73487e-18 -1.42143)
(2.59842 1.64214e-18 -1.54001)
(2.6476 0 -1.51285)
(2.41482 0 -1.31369)
(1.88082 0 -0.944691)
(1.15336 0 -0.50277)
(0.485891 0 -0.152187)
(0.0828976 2.25958e-18 0.0110501)
(-0.00126455 0 0.00234673)
(0.127466 4.08513e-18 -0.10718)
(0.334545 0 -0.234464)
(0.526758 -4.06452e-22 -0.335793)
(0.648292 -5.58648e-22 -0.388483)
(0.691661 0 -0.396606)
(0.681765 3.13072e-18 -0.382928)
(0.668428 0 -0.375953)
(0.693387 0 -0.397277)
(0.79206 -5.30508e-18 -0.468535)
(0.968408 0 -0.584194)
(1.22459 0 -0.743727)
(1.53102 0 -0.927648)
(1.87582 0 -1.13004)
(2.22566 0 -1.33075)
(2.57613 0 -1.53012)
(2.90198 0 -1.71269)
(3.21514 0 -1.88859)
(3.49597 3.31557e-18 -2.04545)
(3.77505 0 -2.20302)
(4.02821 0 -2.3465)
(4.30053 0 -2.50187)
(4.55034 -5.24711e-18 -2.64593)
(4.84016 -4.9409e-18 -2.81164)
(5.09792 -4.65436e-18 -2.96245)
(5.4222 4.37888e-18 -3.147)
(5.68903 -6.94605e-22 -3.30526)
(6.05966 -3.87643e-18 -3.515)
(6.33977 -7.30431e-18 -3.68368)
(6.76506 0 -3.92263)
(7.05867 6.45959e-18 -4.10725)
(7.62898 6.05797e-18 -4.4171)
(7.76025 0 -4.53684)
(8.91323 5.3469e-18 -5.15637)
(8.444 5.01808e-18 -4.97585)
(10.7927 4.6989e-18 -6.34054)
(37.6052 0 -4.6996)
(37.7581 1.99617e-20 -4.92992)
(38.0391 0 -5.27979)
(38.2393 0 -5.82447)
(38.1092 2.67238e-20 -6.53738)
(37.4829 2.53432e-20 -7.30484)
(36.2973 -2.56141e-20 -7.98705)
(34.5787 8.35795e-20 -8.47197)
(32.417 0 -8.70089)
(29.9373 3.2869e-20 -8.66842)
(27.2743 -6.75785e-20 -8.40688)
(24.5524 0 -7.96717)
(21.8742 7.34949e-20 -7.40403)
(19.3145 0 -6.76708)
(16.9213 7.73574e-20 -6.09676)
(14.7196 7.89359e-20 -5.42343)
(12.7178 7.95468e-20 -4.76814)
(10.9128 -7.9716e-20 -4.14479)
(9.29486 -1.58647e-19 -3.56089)
(7.85127 0 -3.02098)
(6.56754 1.5631e-19 -2.52631)
(5.42909 0 -2.07667)
(4.4221 0 -1.67032)
(3.53351 -1.48902e-19 -1.3055)
(2.75165 2.91271e-19 -0.979263)
(2.06537 0 -0.689702)
(1.46552 0 -0.433046)
(0.942167 0 -0.208328)
(0.48917 -2.62992e-19 -0.00966382)
(0.097732 2.55863e-19 0.161045)
(-0.238507 -3.45371e-22 0.309203)
(-0.524764 2.40201e-19 0.435797)
(-0.767261 -4.65281e-19 0.543219)
(-0.970048 2.24833e-19 0.633156)
(-1.1379 -2.17193e-19 0.707364)
(-1.27425 1.8228e-22 0.766993)
(-1.38263 0 0.813409)
(-1.46544 3.90006e-19 0.846927)
(-1.52438 3.75631e-19 0.870068)
(-1.56264 -3.61557e-19 0.877859)
(-1.57999 0 0.871641)
(-1.57647 3.34368e-19 0.856072)
(-1.55339 3.21098e-19 0.830825)
(-1.51299 3.08307e-19 0.798652)
(-1.45969 2.95721e-19 0.763483)
(-1.39951 0 0.730186)
(-1.34141 0 0.704804)
(-1.29494 6.89611e-23 0.694648)
(-1.27336 0 0.70901)
(-1.29483 0 0.761436)
(-1.38314 -4.45526e-19 0.871603)
(-1.56757 4.21913e-19 1.05077)
(-1.86334 3.9857e-19 1.29338)
(-2.25402 -1.4423e-22 1.56129)
(-2.66559 -1.43819e-22 1.77238)
(-2.95952 0 1.79746)
(-2.90662 0 1.48667)
(-2.29445 1.27822e-18 0.749911)
(-0.965976 0 -0.342781)
(0.928981 0 -1.45866)
(2.80372 -5.65263e-19 -2.186)
(3.75799 0 -2.2524)
(3.37294 0 -1.56672)
(1.40577 9.00197e-19 0.263476)
(-2.98295 -7.93117e-19 3.70458)
(-8.95231 1.32513e-18 7.53082)
(-13.6931 0 9.79534)
(-16.0821 -5.18573e-19 10.2028)
(-16.1444 0 9.22963)
(-14.2129 0 7.12271)
(-10.8285 1.63379e-18 4.6615)
(-7.00378 0 2.512)
(-3.65773 0 0.944785)
(-1.10053 0 -0.157519)
(0.716935 0 -0.916882)
(1.95144 0 -1.42178)
(2.7075 1.6246e-18 -1.71448)
(3.07618 -1.04585e-23 -1.82837)
(3.11407 -1.4516e-18 -1.77075)
(2.82543 1.36585e-18 -1.51563)
(2.21147 0 -1.08207)
(1.40817 0 -0.592954)
(0.691791 0 -0.228609)
(0.272253 0 -0.0797322)
(0.196896 0 -0.111206)
(0.344597 -6.51964e-22 -0.243363)
(0.574371 0 -0.3857)
(0.786786 -1.72824e-18 -0.495366)
(0.925846 -5.574e-22 -0.552813)
(0.985946 0 -0.566184)
(0.996011 -2.92716e-18 -0.562177)
(1.00963 0 -0.570855)
(1.06874 2.61522e-18 -0.616928)
(1.21115 7.33317e-22 -0.716871)
(1.43751 0 -0.865692)
(1.74896 0 -1.06048)
(2.11266 0 -1.27926)
(2.51638 0 -1.51629)
(2.9232 3.84715e-18 -1.7491)
(3.33096 0 -1.9803)
(3.70956 0 -2.19137)
(4.07698 3.27589e-18 -2.39686)
(4.40591 0 -2.57978)
(4.73828 -2.92318e-18 -2.76687)
(5.03655 2.75736e-18 -2.93563)
(5.36474 0 -3.12249)
(5.65767 9.79918e-18 -3.29158)
(6.00923 8.71483e-22 -3.49214)
(6.30725 8.6913e-18 -3.66711)
(6.70198 -4.08862e-18 -3.89107)
(7.00436 -3.85099e-18 -4.0716)
(7.45579 3.61915e-18 -4.32613)
(7.76604 3.40933e-18 -4.51488)
(8.28201 3.20007e-18 -4.8034)
(8.59822 -6.03014e-18 -5.00661)
(9.27522 -5.65501e-18 -5.37057)
(9.40529 -5.3215e-18 -5.50491)
(10.6937 -4.98954e-18 -6.18664)
(10.2048 0 -6.02015)
(12.6375 0 -7.4376)
(37.3054 0 -4.80634)
(37.3901 2.23948e-20 -5.03761)
(37.5815 0 -5.33645)
(37.784 0 -5.74772)
(37.8647 0 -6.28505)
(37.7042 0 -6.91415)
(37.2074 3.09616e-20 -7.55967)
(36.3166 -2.77296e-20 -8.13247)
(35.0187 3.06251e-20 -8.55801)
(33.3416 -6.03934e-20 -8.79175)
(31.3449 6.3531e-20 -8.82042)
(29.107 0 -8.65537)
(26.7141 -6.90883e-20 -8.32375)
(24.251 0 -7.86064)
(21.7939 -7.27199e-20 -7.30299)
(19.4055 -7.33743e-20 -6.68565)
(17.1318 0 -6.03862)
(15.0032 0 -5.38636)
(13.0361 7.44034e-20 -4.74679)
(11.2365 0 -4.1331)
(9.60317 0 -3.55375)
(8.12989 -1.43992e-19 -3.01394)
(6.8079 0 -2.51599)
(5.62692 0 -2.06091)
(4.5763 -1.36747e-19 -1.64773)
(3.64509 0 -1.27574)
(2.82331 0 -0.942046)
(2.10043 0 -0.645829)
(1.46804 4.94014e-19 -0.382368)
(0.917193 0 -0.151896)
(0.439642 -3.3102e-22 0.0505065)
(0.0281202 -2.90415e-22 0.225365)
(-0.324274 2.18521e-19 0.376094)
(-0.623455 -2.11297e-19 0.504206)
(-0.875356 4.08012e-19 0.612138)
(-1.08469 1.96991e-19 0.701249)
(-1.25611 0 0.773385)
(-1.39331 0 0.829037)
(-1.49937 3.52399e-19 0.869626)
(-1.57656 -3.39182e-19 0.89704)
(-1.62836 0 0.905825)
(-1.65502 0 0.899994)
(-1.65773 -1.48328e-22 0.884482)
(-1.63963 -2.89547e-19 0.861144)
(-1.60569 -2.77704e-19 0.834734)
(-1.56253 -5.31985e-19 0.810745)
(-1.51981 0 0.795807)
(-1.48782 8.21723e-23 0.797659)
(-1.48001 0 0.827055)
(-1.51453 0 0.897745)
(-1.61491 4.18162e-19 1.02956)
(-1.81017 -3.95961e-19 1.23275)
(-2.11492 0 1.4974)
(-2.51214 3.5376e-19 1.77739)
(-2.92791 -1.77556e-22 1.98184)
(-3.22978 0 1.97316)
(-3.19736 0 1.60435)
(-2.62264 -1.19595e-18 0.794486)
(-1.32714 0 -0.373492)
(0.599638 0 -1.54236)
(2.62555 1.06036e-18 -2.2832)
(3.75662 0 -2.28995)
(3.32465 0 -1.37457)
(0.98086 -1.69023e-18 0.923866)
(-3.93675 7.4329e-19 4.90082)
(-10.164 -6.21491e-19 8.87025)
(-14.6068 0 10.721)
(-16.5531 4.85858e-19 10.5987)
(-16.3416 0 9.23875)
(-14.3292 -6.24778e-19 6.89439)
(-10.8878 -7.61452e-19 4.30285)
(-6.99185 0 2.12478)
(-3.55249 0 0.582644)
(-0.899641 1.73571e-18 -0.489044)
(1.01125 1.6781e-18 -1.23214)
(2.33374 0 -1.73359)
(3.16594 0 -2.02761)
(3.57583 -2.87795e-18 -2.13094)
(3.60437 1.3584e-18 -2.03732)
(3.26206 -2.55636e-18 -1.72419)
(2.57594 0 -1.22876)
(1.70948 0 -0.700828)
(0.95641 0 -0.332943)
(0.526951 0 -0.205721)
(0.460074 0 -0.264388)
(0.625055 -6.55046e-22 -0.417866)
(0.875508 0 -0.574091)
(1.10785 0 -0.691545)
(1.26686 -5.49582e-22 -0.754714)
(1.34823 0 -0.775726)
(1.38506 -2.73529e-18 -0.783586)
(1.43068 0 -0.812992)
(1.52904 -2.4441e-18 -0.886563)
(1.71788 7.3162e-22 -1.01882)
(1.99638 0 -1.2024)
(2.36418 0 -1.43339)
(2.78584 0 -1.68749)
(3.24935 0 -1.95959)
(3.71389 -1.27852e-21 -2.22471)
(4.18051 3.41043e-18 -2.48833)