/*--------------------------------*- C++ -*----------------------------------*\
| =========                 |                                                 |
| \\      /  F ield         | OpenFOAM: The Open Source CFD Toolbox           |
|  \\    /   O peration     | Version:  2412                                  |
|   \\  /    A nd           | Website:  www.openfoam.com                      |
|    \\/     M anipulation  |                                                 |
\*---------------------------------------------------------------------------*/
FoamFile
{
    version     2.0;
    format      ascii;
    arch        "LSB;label=32;scalar=64";
    class       volVectorField;
    location    "0.795";
    object      ddtCorrDdt0(U);
}
// * * * * * * * * * * * * * * * * * * * * * * * * * * * * * * * * * * * * * //

dimensions      [0 1 -2 0 0 0 0];

internalField   nonuniform List<vector> 
12600
(
(0.173933 9.61759e-22 0.0543657)
(0.0909386 3.9791e-21 0.0184723)
(0.0382012 2.15013e-21 0.00547347)
(0.0174587 0 0.00154771)
(0.0101783 2.18318e-22 0.000172276)
(0.00626814 8.70231e-23 -0.000138497)
(0.00306093 0 -3.27033e-05)
(-0.000941329 0 0.000406687)
(-0.00627281 9.975e-22 0.000465547)
(-0.0125416 0 0.000195319)
(-0.0195995 -5.53926e-22 -8.9949e-05)
(-0.0276911 -4.24957e-22 -0.000115252)
(-0.0368183 3.02874e-22 0.000206512)
(-0.0464129 0 0.000805683)
(-0.0556339 2.34063e-22 0.00159181)
(-0.0638167 0 0.00253207)
(-0.0706198 -1.08743e-21 0.0036283)
(-0.0758581 0 0.00485536)
(-0.079302 1.10037e-21 0.00612995)
(-0.0806612 1.63785e-21 0.00733071)
(-0.0797343 -2.3088e-21 0.0083433)
(-0.0765511 -1.38555e-22 0.00909186)
(-0.0713885 0 0.00954224)
(-0.0646764 9.56029e-21 0.00968873)
(-0.0568855 0 0.00954154)
(-0.0484567 0 0.00912202)
(-0.0397815 1.49539e-20 0.00846452)
(-0.0312077 0 0.00761832)
(-0.0230407 3.73306e-22 0.00664471)
(-0.0155271 -1.77081e-20 0.00560779)
(-0.00883695 -1.80713e-20 0.00456541)
(-0.00305667 -1.80677e-20 0.00356218)
(0.00179607 1.77233e-20 0.00262845)
(0.00575437 3.41704e-20 0.00178014)
(0.00887211 3.24207e-20 0.00102457)
(0.0112098 -3.0389e-20 0.000363234)
(0.0128104 0 -0.000200295)
(0.0137059 2.55468e-20 -0.000660871)
(0.0139008 0 -0.00100536)
(0.0134014 -2.05967e-20 -0.00121998)
(0.0122056 0 -0.00128709)
(0.0103573 -2.44444e-22 -0.0011995)
(0.0079283 0 -0.000956676)
(0.00507817 -2.62413e-22 -0.000579397)
(0.00199495 -1.89279e-20 -9.8203e-05)
(-0.00106056 1.5114e-20 0.000438507)
(-0.00385465 -1.1799e-20 0.000981387)
(-0.00612681 0 0.00147638)
(-0.00770446 0 0.00187687)
(-0.00842637 -2.97584e-21 0.00214532)
(-0.00826772 -5.76586e-21 0.00225291)
(-0.00724239 1.89883e-22 0.00219433)
(-0.00553285 -9.34021e-23 0.00196766)
(-0.00336479 2.67005e-21 0.00161301)
(-0.00113673 0 0.00116373)
(0.00076348 -3.65109e-21 0.000713274)
(0.00183965 1.01235e-20 0.000322458)
(0.00177045 -6.29704e-21 0.000112008)
(0.000230809 0 0.000123919)
(-0.00270978 0 0.000439649)
(-0.00697972 0 0.00101736)
(-0.0119258 4.49558e-20 0.00183458)
(-0.0172345 0 0.00275617)
(-0.021851 0 0.00366889)
(-0.0257803 6.06868e-20 0.0044437)
(-0.0281401 0 0.00497547)
(-0.0295537 0 0.00527573)
(-0.0298859 0 0.00534626)
(-0.0303094 -1.19614e-19 0.00537641)
(-0.0303098 -2.60091e-19 0.00540466)
(-0.0328145 1.41088e-19 0.00573025)
(-0.0332318 4.40526e-22 0.00609776)
(-0.0381547 -1.11977e-19 0.00693878)
(-0.0392624 0 0.00742932)
(-0.0412343 1.71662e-19 0.00823963)
(-0.0450106 0 0.00837887)
(-0.0396552 0 0.00845751)
(-0.0438055 0 0.00827584)
(-0.0411957 -2.62608e-21 0.00781434)
(-0.0314709 -1.36481e-18 0.00745998)
(-0.0508174 3.64384e-20 0.00767055)
(-0.0200016 -2.35183e-18 0.00655884)
(-0.0517664 4.79267e-18 0.00824428)
(-0.0341097 0 0.00634973)
(-0.0231665 0 0.00799293)
(-0.0688716 3.06676e-18 0.00718075)
(0.0125875 -2.25998e-17 0.00562388)
(-0.0665756 -5.46751e-17 0.00726564)
(-0.00718643 3.95408e-17 0.00267095)
(0.0073415 0 0.00473584)
(-0.0864482 -5.34105e-17 0.00378239)
(0.0723281 1.63079e-18 0.00116049)
(-0.133847 3.69434e-17 0.0109904)
(0.0306649 1.3532e-16 -0.00291478)
(-0.0776902 0 0.0259381)
(-0.106774 0 -0.00015929)
(0.221735 0 -0.0198369)
(-0.495034 0 0.0768426)
(0.972714 0 -0.191907)
(-0.766644 0 0.185955)
(-0.838274 5.28346e-17 0.0981098)
(3.05486 -2.79016e-16 -0.539713)
(-4.5848 3.73273e-16 0.909986)
(2.19748 0 -0.476868)
(3.52743 0 -0.603948)
(-8.78555 0 1.63664)
(8.60442 4.40036e-16 -1.70863)
(-0.64412 -1.06198e-15 0.148545)
(-8.54301 -3.96527e-16 1.58025)
(12.2679 0 -2.41559)
(-5.35436 -7.76116e-16 1.26967)
(-11.1325 0 1.99279)
(14.1424 -1.96397e-16 -2.82146)
(7.79934 5.42098e-16 -1.33149)
(-12.8927 5.95881e-16 2.45526)
(-3.23477 -1.24543e-16 0.513153)
(8.65213 2.08173e-16 -1.61627)
(2.95832 -2.72425e-20 -0.544272)
(-5.24644 4.78703e-16 1.00003)
(-3.3956 0 0.659184)
(0.240338 -9.71079e-22 0.0855956)
(0.189071 0 0.0532049)
(0.128028 -2.17555e-21 0.0271707)
(0.0787285 0 0.010807)
(0.0485765 -2.20917e-22 0.00251239)
(0.0313179 -4.05189e-22 -0.000378166)
(0.0201507 -9.131e-23 -0.000573514)
(0.0106833 0 0.000166192)
(0.00129571 -1.12669e-22 -6.73942e-05)
(-0.00764414 5.37111e-22 -0.00132748)
(-0.0165518 -5.73431e-22 -0.00266272)
(-0.0266884 -4.99643e-22 -0.0032885)
(-0.038809 3.97729e-22 -0.00313273)
(-0.0523759 -3.27035e-22 -0.00253343)
(-0.066143 -5.36617e-22 -0.00168008)
(-0.0791813 0 -0.000444597)
(-0.0912203 -9.72623e-23 0.0013839)
(-0.102213 -8.29246e-22 0.00382833)
(-0.111813 -1.11626e-21 0.006671)
(-0.119318 0 0.00959523)
(-0.124046 0 0.0123478)
(-0.125699 -2.99928e-21 0.0147942)
(-0.124428 0 0.0168736)
(-0.12065 -4.7471e-21 0.0185358)
(-0.114829 1.06206e-20 0.0197181)
(-0.107375 0 0.0203625)
(-0.0986577 -1.4e-20 0.0204469)
(-0.0890565 0 0.0200032)
(-0.0789844 1.71952e-20 0.0191117)
(-0.0688532 3.53372e-20 0.0178769)
(-0.0590235 3.6155e-20 0.0164069)
(-0.0497662 1.8288e-20 0.0147979)
(-0.0412664 -1.79343e-20 0.0131312)
(-0.0336304 -6.8796e-20 0.0114674)
(-0.0269228 -6.53814e-20 0.00985349)
(-0.0211722 0 0.00832123)
(-0.0164144 0 0.00690262)
(-0.0126728 1.01276e-22 0.00562429)
(-0.0100144 0 0.00452891)
(-0.00848956 2.07932e-20 0.0036553)
(-0.00819228 0 0.00305831)
(-0.00912516 3.20279e-20 0.00276611)
(-0.0112854 0 0.00280701)
(-0.014473 2.32028e-20 0.00315385)
(-0.0184931 0 0.00377923)
(-0.0229279 -1.52188e-20 0.00459396)
(-0.0274894 0 0.00553302)
(-0.0316695 0 0.00647404)
(-0.0352495 6.79465e-21 0.00734988)
(-0.0377524 0 0.00803876)
(-0.0391813 0 0.00850629)
(-0.0391929 0 0.00866093)
(-0.0381554 4.15282e-21 0.00853156)
(-0.0359218 -5.42979e-21 0.00808259)
(-0.033337 0 0.00743886)
(-0.0304067 0 0.00663623)
(-0.0284001 -1.013e-20 0.00590071)
(-0.0271501 6.29668e-21 0.00529417)
(-0.0280729 0 0.00508686)
(-0.0303097 0 0.00524762)
(-0.0351495 0 0.00599253)
(-0.0405986 0 0.00705709)
(-0.0479972 -2.86024e-20 0.00858279)
(-0.0542282 -6.7475e-20 0.0100367)
(-0.0614223 -6.13836e-20 0.0116377)
(-0.0658268 0 0.0126998)
(-0.0709895 0 0.0137454)
(-0.0730872 0 0.0141165)
(-0.0774386 -9.30086e-22 0.0147676)
(-0.0788429 2.57604e-19 0.0149393)
(-0.0858293 -1.39612e-19 0.0160936)
(-0.0876342 -4.32943e-19 0.0166467)
(-0.0979089 3.19355e-22 0.0187738)
(-0.100352 1.38831e-19 0.0195782)
(-0.108178 -1.6922e-19 0.0217298)
(-0.112537 0 0.0222835)
(-0.113012 0 0.0231154)
(-0.116168 0 0.0231502)
(-0.119409 1.88693e-18 0.0233101)
(-0.107078 0 0.0220885)
(-0.132748 0 0.0243492)
(-0.098378 2.3018e-18 0.0206428)
(-0.136683 -4.68568e-18 0.0257451)
(-0.115324 0 0.0213463)
(-0.110217 0 0.0243934)
(-0.151624 0 0.0245798)
(-0.0749028 2.20273e-17 0.0196592)
(-0.1478 -4.28007e-20 0.0250966)
(-0.0922971 3.84907e-17 0.0163001)
(-0.0687799 3.947e-17 0.0179462)
(-0.16756 5.18096e-17 0.0203319)
(0.00834871 1.58063e-18 0.0078242)
(-0.229718 -7.1507e-17 0.0332226)
(0.0252665 0 -0.00528424)
(-0.256697 0 0.0633291)
(-0.0689949 0 -0.00709702)
(0.367519 0 -0.0447429)
(-1.25962 -4.77822e-18 0.210523)
(2.81873 0 -0.550244)
(-2.63327 0 0.592355)
(-1.46495 5.09389e-17 0.151948)
(8.14738 1.33703e-16 -1.47719)
(-13.2305 -7.14819e-16 2.62911)
(7.41544 -2.94261e-16 -1.6399)
(8.38862 0 -1.36828)
(-24.1463 0 4.53054)
(25.4324 0 -5.12397)
(-4.37487 5.05839e-16 1.14484)
(-22.2311 3.77376e-16 3.94119)
(35.6963 0 -6.95486)
(-19.5825 1.47487e-15 4.39534)
(-27.823 -8.79585e-16 4.85968)
(41.5205 3.72125e-16 -8.47314)
(16.9533 0 -2.72433)
(-35.8957 0 7.08663)
(-6.41683 -1.17206e-16 0.874316)
(24.3297 0 -4.763)
(6.85823 3.39563e-16 -1.11706)
(-15.1773 -4.52655e-16 3.02225)
(-9.48259 0 1.81474)
(0.244415 0 0.094554)
(0.227261 0 0.0765803)
(0.194182 -1.07257e-21 0.0523508)
(0.153919 0 0.0291855)
(0.117015 0 0.0117684)
(0.0871026 2.05174e-22 0.0027049)
(0.0633825 8.63954e-23 0.000149118)
(0.0431413 0 -0.000202913)
(0.0252779 -4.39092e-23 -0.00168346)
(0.0101613 -5.08927e-22 -0.00465531)
(-0.00283555 1.09901e-21 -0.00747473)
(-0.0157049 4.73495e-22 -0.00892332)
(-0.0300951 3.00398e-23 -0.00929895)
(-0.0459073 3.09969e-22 -0.00951596)
(-0.061825 2.83793e-22 -0.00984801)
(-0.0768116 -3.21074e-22 -0.00975002)
(-0.0907867 6.42344e-22 -0.00857119)
(-0.104051 7.85871e-22 -0.00617443)
(-0.116427 0 -0.00293506)
(-0.127091 0 0.000664657)
(-0.135106 -1.88928e-21 0.00436235)
(-0.14001 -2.50844e-21 0.0081266)
(-0.141939 0 0.0119711)
(-0.141341 0 0.0158039)
(-0.138658 -1.00635e-20 0.0194172)
(-0.134198 0 0.0225707)
(-0.128196 2.61083e-20 0.0250826)
(-0.120925 -1.42152e-20 0.0268709)
(-0.112748 0 0.0279407)
(-0.104076 -1.64883e-20 0.0283465)
(-0.0952949 -1.69182e-20 0.0281675)
(-0.0867154 0 0.0274946)
(-0.0785732 1.65927e-20 0.0264291)
(-0.0710259 3.24218e-20 0.0250681)
(-0.0641949 1.07622e-22 0.0235061)
(-0.0581532 0 0.021818)
(-0.0529807 0 0.0200761)
(-0.0487251 -2.45369e-20 0.0183345)
(-0.045492 0 0.0166664)
(-0.0433542 0 0.0151316)
(-0.0424641 0 0.0138206)
(-0.0428455 0 0.0127833)
(-0.0445579 0 0.0120944)
(-0.0473852 0 0.0117472)
(-0.0511849 0 0.0117748)
(-0.0554791 1.52906e-20 0.0120999)
(-0.0600496 -1.22821e-20 0.0127247)
(-0.0642875 0 0.0135022)
(-0.0680806 -6.42837e-21 0.0144244)
(-0.0707907 0 0.0152857)
(-0.0725805 0 0.0161099)
(-0.0728614 1.47971e-22 0.0166554)
(-0.0722475 0 0.0170314)
(-0.0702417 2.60304e-21 0.0169836)
(-0.0680807 5.85703e-21 0.0167712)
(-0.0652902 0 0.0161391)
(-0.0637376 9.57508e-21 0.01554)
(-0.0625803 0 0.0146767)
(-0.0641025 0 0.0142011)
(-0.0664846 0 0.0136687)
(-0.0722347 2.74174e-20 0.0138896)
(-0.07799 -4.15509e-20 0.0141062)
(-0.0867813 -7.73834e-22 0.015273)
(-0.0935655 1.26904e-19 0.0161811)
(-0.102774 -6.94633e-22 0.0180153)
(-0.107963 0 0.019089)
(-0.115776 0 0.021002)
(-0.118751 2.16125e-19 0.021719)
(-0.126386 -4.79377e-22 0.0234953)
(-0.128673 0 0.0238314)
(-0.139662 0 0.0259906)
(-0.142292 2.04492e-19 0.026282)
(-0.157328 6.2407e-22 0.029321)
(-0.160362 7.30502e-22 0.0298597)
(-0.173657 0 0.0331518)
(-0.178112 0 0.0339552)
(-0.184736 -1.07104e-18 0.0363986)
(-0.187285 -1.43213e-18 0.0366842)
(-0.197302 0 0.0391148)
(-0.183747 0 0.0370321)
(-0.216811 0 0.0421203)
(-0.180489 0 0.0367716)
(-0.226814 0 0.0439322)
(-0.202326 0 0.0392131)
(-0.205654 0 0.042031)
(-0.242207 0 0.0439512)
(-0.1735 -2.07842e-17 0.0382827)
(-0.240425 2.50354e-17 0.0441998)
(-0.190818 -3.61763e-17 0.0384114)
(-0.161165 -3.70891e-17 0.0346903)
(-0.264372 -4.866e-17 0.0434686)
(-0.0752201 -1.4846e-18 0.0217179)
(-0.340595 3.3601e-17 0.0530499)
(-0.0014267 0 0.000199134)
(-0.448021 0 0.0896998)
(-0.0307334 0 -0.0220291)
(0.44062 0 -0.0422698)
(-1.95844 4.48235e-18 0.291094)
(4.45826 0 -0.848158)
(-4.53822 0 1.04264)
(-1.54484 -4.77617e-17 0.0070125)
(12.3525 0 -2.09322)
(-21.1123 3.35163e-16 4.1603)
(13.1425 2.75756e-16 -3.12485)
(11.3682 0 -1.39553)
(-37.1428 0 6.70401)
(41.0926 0 -8.43648)
(-10.1119 4.73998e-16 2.89481)
(-32.1325 0 5.03675)
(56.9647 -1.4383e-17 -10.9972)
(-36.0652 9.74912e-19 8.56911)
(-39.1766 8.232e-16 5.89207)
(67.6148 -3.47185e-16 -14.0704)
(20.9853 0 -2.24369)
(-56.7066 -5.28202e-16 11.2463)
(-7.01572 1.09632e-16 0.175058)
(38.6967 1.84492e-16 -7.66364)
(8.63863 0 -0.924761)
(-24.7657 4.23248e-16 5.05959)
(-14.5875 0 2.6846)
(0.233542 0 0.0942853)
(0.231518 0 0.0850347)
(0.222065 1.01388e-21 0.0680248)
(0.20245 0 0.0466966)
(0.175919 -2.64949e-22 0.0261016)
(0.146957 2.94988e-22 0.0121905)
(0.11815 0 0.00605909)
(0.0899846 1.05147e-22 0.00344587)
(0.0633176 -2.78404e-22 -0.000284162)
(0.0397943 -4.45756e-22 -0.00583625)
(0.0199227 -5.25486e-22 -0.0106837)
(0.00199249 5.0202e-22 -0.012958)
(-0.0163423 -3.84952e-22 -0.0134045)
(-0.0357561 6.68551e-22 -0.0138266)
(-0.0550403 0 -0.0148208)
(-0.0728333 6.33207e-22 -0.0154545)
(-0.0889518 0 -0.0145825)
(-0.104017 0 -0.0119725)
(-0.118248 0 -0.00825803)
(-0.130931 -1.32405e-21 -0.00417181)
(-0.140986 2.48319e-23 1.53634e-05)
(-0.147799 5.14102e-23 0.00444296)
(-0.151518 -2.97427e-21 0.0092741)
(-0.152709 0 0.0144237)
(-0.151894 0 0.0195699)
(-0.14936 0 0.024326)
(-0.145258 -2.39763e-20 0.0284004)
(-0.139785 3.22974e-22 0.0316504)
(-0.133263 0 0.0340488)
(-0.126095 0 0.0356215)
(-0.118674 0 0.036422)
(-0.11132 0 0.0365234)
(-0.104278 -3.12076e-20 0.0360254)
(-0.09771 0 0.0350353)
(-0.0917474 2.90865e-20 0.0336675)
(-0.0864628 0 0.0320165)
(-0.0819413 0 0.0301772)
(-0.0782197 2.33254e-20 0.0282211)
(-0.0754145 0 0.0262481)
(-0.0735954 0 0.0243375)
(-0.0729519 -1.69977e-20 0.0226127)
(-0.0735094 2.98701e-20 0.0211375)
(-0.0753779 0 0.0200203)
(-0.0783162 2.20693e-20 0.0192585)
(-0.0822391 0 0.0189297)
(-0.0866144 -2.9283e-20 0.0189537)
(-0.0913136 -3.53096e-22 0.0193901)
(-0.0956435 0 0.0200624)
(-0.0996296 0 0.0210238)
(-0.102494 3.34905e-21 0.0219911)
(-0.104599 6.10775e-21 0.0230595)
(-0.10513 -3.50904e-22 0.0238523)
(-0.104989 0 0.0245812)
(-0.103336 2.67822e-21 0.0247938)
(-0.101834 -5.52882e-21 0.0249138)
(-0.0995096 3.71084e-21 0.0244148)
(-0.0988458 -8.92101e-21 0.0240079)
(-0.0982724 0 0.0230407)
(-0.100949 0 0.022565)
(-0.104016 2.15489e-20 0.0216881)
(-0.111217 -5.22845e-20 0.0218073)
(-0.117729 3.91895e-20 0.0215933)
(-0.128323 -7.16839e-22 0.0227981)
(-0.135932 -5.95813e-20 0.023442)
(-0.147384 2.82828e-20 0.0256998)
(-0.153437 0 0.0268113)
(-0.163986 0 0.0295761)
(-0.167801 -2.03672e-19 0.0305091)
(-0.178755 2.13413e-19 0.0333846)
(-0.181845 0 0.0338492)
(-0.196898 1.23557e-19 0.0371157)
(-0.200261 -1.93042e-19 0.0373287)
(-0.220204 9.73211e-20 0.041427)
(-0.22378 -2.48214e-19 0.041838)
(-0.242811 0 0.0464035)
(-0.247457 0 0.0471067)
(-0.260622 1.00788e-18 0.0514217)
(-0.262802 2.69694e-18 0.0513031)
(-0.280192 -1.67534e-18 0.0561737)
(-0.265593 0 0.0533124)
(-0.306969 0 0.0605302)
(-0.268659 0 0.0548448)
(-0.324174 0 0.0627867)
(-0.296506 0 0.0586883)
(-0.309315 0 0.0615879)
(-0.341392 -2.58278e-18 0.0633771)
(-0.281481 -4.42174e-20 0.059942)
(-0.343098 -2.36002e-17 0.0623851)
(-0.300471 0 0.0621428)
(-0.264719 -3.48102e-17 0.0524913)
(-0.374057 2.28233e-17 0.0657662)
(-0.171616 0 0.040552)
(-0.463105 3.16768e-17 0.0715332)
(-0.0472432 -1.15593e-16 0.0132307)
(-0.646405 0 0.120822)
(0.000784279 0 -0.0404833)
(0.439517 0 -0.0151599)
(-2.56727 4.15008e-18 0.394307)
(5.86199 0 -1.08973)
(-6.43468 0 1.50994)
(-1.19644 -4.52391e-17 -0.484888)
(15.6455 -1.18094e-16 -2.42804)
(-28.0822 0 5.53543)
(19.1548 0 -4.79947)
(12.5561 0 -0.892796)
(-47.5611 0 8.29)
(55.1563 0 -11.5762)
(-17.4825 -1.08997e-20 5.77489)
(-38.1712 0 5.26537)
(75.5363 1.34591e-17 -14.5974)
(-54.0342 -6.46793e-16 13.3912)
(-45.3169 0 5.66484)
(91.6808 5.42132e-19 -19.5175)
(20.2274 0 -0.495506)
(-74.7202 6.03622e-20 14.9888)
(-5.31403 0 -1.25855)
(51.2856 -1.72493e-16 -10.2751)
(8.31491 0 -0.14743)
(-33.8531 3.95995e-16 7.0816)
(-18.7058 0 3.34067)
(0.222499 0 0.0930894)
(0.223438 0 0.08644)
(0.224281 0 0.0748648)
(0.218931 0 0.0577832)
(0.205304 2.50024e-22 0.0389411)
(0.185326 -5.11118e-23 0.0241889)
(0.161459 0 0.0162301)
(0.13451 -9.93712e-23 0.0118676)
(0.105517 0 0.0058607)
(0.0769681 8.3828e-22 -0.00290918)
(0.0512639 0 -0.0108719)
(0.0283678 -4.74e-22 -0.0148601)
(0.00609691 0 -0.0156306)
(-0.0170801 -6.31304e-22 -0.0160666)
(-0.0403733 3.16363e-22 -0.0175241)
(-0.0619287 -6.51863e-22 -0.0188624)
(-0.0809608 7.71954e-22 -0.0183267)
(-0.0981518 8.80935e-22 -0.0154586)
(-0.114288 0 -0.0111861)
(-0.12907 1.25028e-21 -0.00662861)
(-0.141357 1.66397e-21 -0.00215002)
(-0.150264 4.38948e-21 0.00258038)
(-0.155808 2.80851e-21 0.00794334)
(-0.158655 0 0.0139091)
(-0.159485 0 0.0200571)
(-0.158639 0 0.0258632)
(-0.156214 1.11696e-20 0.03095)
(-0.152326 1.23885e-20 0.0351526)
(-0.147255 0 0.0384486)
(-0.141403 0 0.0408604)
(-0.135186 -1.43819e-20 0.0424231)
(-0.128941 0 0.0431876)
(-0.12293 1.79729e-22 0.0432395)
(-0.117322 2.82294e-20 0.0426777)
(-0.112258 -2.70829e-20 0.0416175)
(-0.10781 0 0.0401539)
(-0.104066 0 0.0383906)
(-0.101052 -2.2015e-20 0.0364063)
(-0.0988927 0 0.0343239)
(-0.097648 0 0.0322392)
(-0.0975406 1.60401e-20 0.030307)
(-0.0985878 -2.81855e-20 0.0285984)
(-0.100949 0 0.0272482)
(-0.104349 -2.0822e-20 0.0262456)
(-0.108763 0 0.0257039)
(-0.113592 1.39963e-20 0.0255295)
(-0.1188 1.12778e-20 0.0258372)
(-0.123596 0 0.0264173)
(-0.128148 6.37793e-21 0.0273926)
(-0.131521 -3.15835e-21 0.0284078)
(-0.134286 -1.16659e-20 0.0296484)
(-0.13538 1.99121e-22 0.0306126)
(-0.136016 -3.45129e-21 0.0316387)
(-0.134984 5.57776e-23 0.0320844)
(-0.13441 0 0.0325612)
(-0.132782 -3.49761e-21 0.0322684)
(-0.13325 8.40756e-21 0.0321917)
(-0.133467 5.26095e-21 0.0313012)
(-0.137536 1.12676e-20 0.0310555)
(-0.141487 -2.03021e-20 0.030066)
(-0.150392 2.48904e-20 0.0303206)
(-0.157873 3.52809e-20 0.0298512)
(-0.170558 2.53547e-20 0.031228)
(-0.179217 0 0.0316316)
(-0.193227 0 0.0342909)
(-0.200363 -7.4423e-20 0.0353147)
(-0.213976 0 0.0388264)
(-0.21883 0 0.039824)
(-0.233442 -1.00433e-19 0.0437617)
(-0.237501 0 0.0443065)
(-0.256965 -1.16249e-19 0.0487778)
(-0.261193 3.62788e-19 0.0489576)
(-0.286426 0 0.0542584)
(-0.290666 1.16907e-19 0.0545363)
(-0.315902 0 0.0604559)
(-0.320866 0 0.060907)
(-0.341145 -9.48793e-19 0.067154)
(-0.343096 -1.26838e-18 0.0664477)
(-0.368553 3.22099e-21 0.0739116)
(-0.353035 0 0.0702708)
(-0.403539 0 0.0798216)
(-0.363345 0 0.0740053)
(-0.429017 3.9227e-18 0.0829416)
(-0.398247 5.24797e-18 0.0796096)
(-0.4217 0 0.0829955)
(-0.44937 4.80959e-18 0.0844105)
(-0.399662 9.22483e-18 0.0839402)
(-0.455946 4.43153e-17 0.0823764)
(-0.421942 -3.19189e-17 0.0884757)
(-0.379956 6.52669e-17 0.0728128)
(-0.496952 0 0.0907881)
(-0.281895 0 0.0635946)
(-0.597828 -2.97021e-17 0.0919875)
(-0.113773 1.0837e-16 0.0331618)
(-0.852468 1.30145e-16 0.153333)
(0.0195215 0 -0.0614784)
(0.369302 0 0.038774)
(-3.09265 -3.88821e-18 0.44691)
(7.01466 4.0446e-17 -1.26383)
(-8.27487 0 1.99431)
(-0.4523 4.23676e-17 -0.911115)
(18.0607 1.10582e-16 -2.48572)
(-34.0537 0 6.66959)
(25.1571 0 -6.5964)
(12.1848 0 0.189797)
(-55.3586 0 9.15189)
(67.3618 0 -14.3864)
(-26.1826 -4.1511e-16 9.2024)
(-40.6756 0 4.3905)
(91.1549 0 -17.408)
(-72.6477 0 18.6438)
(-46.8003 -7.22127e-16 3.89051)
(113.114 1.5107e-16 -24.4945)
(15.2135 0 2.76804)
(-89.3775 4.6175e-16 17.9851)
(-1.85488 0 -3.45291)
(61.7524 -1.61586e-16 -12.4262)
(6.02423 0 1.33343)
(-42.2465 -3.70073e-16 8.99297)
(-21.9142 0 3.73548)
(0.213391 1.65369e-22 0.0937505)
(0.213729 -9.80796e-23 0.0869959)
(0.21623 3.27309e-22 0.0777421)
(0.216721 2.21922e-22 0.0640647)
(0.21139 0 0.04817)
(0.200031 -6.43714e-23 0.0346989)
(0.184373 0 0.0265936)
(0.16474 -2.91609e-22 0.0216518)
(0.140771 -3.54575e-22 0.0145626)
(0.113708 -8.03482e-22 0.00333713)
(0.0865293 4.69954e-22 -0.00804234)
(0.0611927 -4.84264e-22 -0.0146869)
(0.0367862 0 -0.0164227)
(0.0113575 0 -0.0169342)
(-0.015105 -2.9831e-22 -0.0187989)
(-0.040468 -3.28601e-23 -0.0210727)
(-0.0628806 9.13085e-23 -0.0212894)
(-0.0824832 1.1327e-22 -0.0184388)
(-0.100533 0 -0.0136279)
(-0.117475 0 -0.00852077)
(-0.132368 0 -0.00376619)
(-0.143966 -4.20182e-21 0.00111426)
(-0.151916 -2.67109e-21 0.00679485)
(-0.156851 0 0.013375)
(-0.159658 0 0.0203463)
(-0.160836 -8.99944e-21 0.0270195)
(-0.160464 0 0.0329141)
(-0.158551 0 0.0378542)
(-0.155299 0 0.0418481)
(-0.151086 0 0.0449349)
(-0.146349 1.96244e-22 0.0471415)
(-0.141449 0 0.0484974)
(-0.136673 1.71345e-22 0.0490704)
(-0.132203 -2.66104e-20 0.0489452)
(-0.128193 2.48938e-22 0.0482307)
(-0.124721 0 0.0470139)
(-0.121892 0 0.0454009)
(-0.119724 0 0.0434719)
(-0.118358 0 0.0413707)
(-0.117839 0 0.0392074)
(-0.118426 0 0.0371692)
(-0.120122 0 0.035331)
(-0.123143 2.35306e-20 0.0338531)
(-0.127177 2.00992e-20 0.0327099)
(-0.132263 0 0.0320488)
(-0.13773 1.36999e-20 0.0317551)
(-0.143646 0 0.0319996)
(-0.149101 0 0.0325321)
(-0.154428 -1.21529e-20 0.0335492)
(-0.158507 0 0.0346185)
(-0.162149 5.56241e-21 0.0360251)
(-0.164006 0 0.0371395)
(-0.165641 6.42972e-21 0.038442)
(-0.165425 3.52028e-25 0.0390976)
(-0.165998 0 0.0399251)
(-0.165246 0 0.0398425)
(-0.167057 0 0.0401323)
(-0.168218 -9.75797e-21 0.0393709)
(-0.173876 -2.11847e-20 0.039447)
(-0.178835 1.78897e-20 0.0384467)
(-0.189634 -2.39818e-20 0.0389724)
(-0.198189 -6.54093e-20 0.0383691)
(-0.213166 2.46501e-20 0.0400538)
(-0.222975 0 0.0403017)
(-0.239773 0 0.0434438)
(-0.248095 9.91111e-22 0.0443849)
(-0.265059 0 0.0486596)
(-0.271073 0 0.0496684)
(-0.289697 -9.31886e-20 0.054677)
(-0.294855 0 0.0552616)
(-0.319141 0 0.0610118)
(-0.32435 -3.39642e-19 0.0611801)
(-0.355344 -8.27148e-20 0.0678339)
(-0.360345 0 0.0680333)
(-0.392356 0 0.0754703)
(-0.397733 0 0.0756755)
(-0.425838 8.91062e-19 0.0839882)
(-0.427688 0 0.0826161)
(-0.462091 2.9448e-18 0.0928386)
(-0.445826 1.03069e-18 0.0883098)
(-0.506483 0 0.100441)
(-0.464595 0 0.0944539)
(-0.541632 -3.681e-18 0.104644)
(-0.507895 -1.0589e-20 0.102166)
(-0.543491 -4.11539e-18 0.106214)
(-0.566786 -2.23721e-18 0.107379)
(-0.529111 8.72181e-18 0.110071)
(-0.579988 -2.07882e-17 0.104347)
(-0.55666 2.9927e-17 0.117256)
(-0.508392 -7.3083e-20 0.0950949)
(-0.634863 0 0.118481)
(-0.408089 -1.50352e-18 0.0893983)
(-0.74704 0 0.114347)
(-0.203524 0 0.0589868)
(-1.06753 -1.21921e-16 0.186326)
(0.0188782 0 -0.0805243)
(0.230713 0 0.115174)
(-3.54102 0 0.409181)
(7.91437 -3.787e-17 -1.36938)
(-9.99727 0 2.47105)
(0.548588 4.00668e-17 -1.34753)
(19.6486 0 -2.26905)
(-38.9708 0 7.56177)
(30.8283 0 -8.44985)
(10.5251 0 1.75347)
(-60.6106 0 9.33198)
(77.5216 3.21564e-16 -16.8291)
(-35.8073 -3.87944e-16 12.5106)
(-40.1544 -2.90062e-16 2.54068)
(103.71 0 -19.4171)
(-90.9181 0 24.1804)
(-44.4775 1.35071e-15 0.723158)
(131.419 0 -28.8887)
(6.5092 3.97225e-16 7.24131)
(-100.222 0 20.1614)
(2.7439 8.75364e-17 -6.15272)
(69.8262 1.50999e-16 -14.0596)
(1.93428 0 3.37724)
(-49.7011 -3.45746e-16 10.749)
(-24.3137 0 3.90894)
(0.20493 -1.55717e-22 0.0950145)
(0.204731 1.16016e-22 0.087909)
(0.206263 -3.08326e-22 0.079459)
(0.207947 -7.88465e-23 0.0680597)
(0.206307 4.04818e-23 0.0546874)
(0.200152 0 0.0425702)
(0.190838 0 0.0345278)
(0.17885 2.74627e-22 0.0294013)
(0.16291 7.46722e-22 0.0223487)
(0.142127 -3.62642e-23 0.0103688)
(0.118184 -4.4256e-22 -0.00333997)
(0.0939131 4.56026e-22 -0.0127272)
(0.0701067 -4.39395e-22 -0.0159277)
(0.0451645 0 -0.0165791)
(0.0180615 0 -0.018599)
(-0.00956488 3.33489e-22 -0.0218594)
(-0.0349075 -1.63941e-21 -0.0233432)
(-0.0568512 -1.90361e-21 -0.0210679)
(-0.0765208 0 -0.0159343)
(-0.0952106 0 -0.010203)
(-0.112609 0 -0.00510055)
(-0.127259 -1.0014e-22 -0.000165486)
(-0.138191 5.11452e-21 0.00563086)
(-0.145726 -3.13796e-21 0.012648)
(-0.150898 -7.38839e-21 0.0203406)
(-0.154477 1.69724e-20 0.0278153)
(-0.156623 -9.56859e-21 0.0344355)
(-0.157229 -1.05484e-20 0.0400003)
(-0.156358 -1.13798e-20 0.0445675)
(-0.154323 0 0.0482157)
(-0.151558 1.25808e-20 0.0509753)
(-0.148448 -1.25878e-20 0.0528569)
(-0.145308 1.26811e-20 0.0539102)
(-0.142335 2.44622e-20 0.0542033)
(-0.139705 4.73181e-20 0.0538368)
(-0.137503 0 0.052887)
(-0.135859 0 0.0514596)
(-0.13479 1.92488e-20 0.0496319)
(-0.134459 0 0.0475673)
(-0.134889 -1.59219e-20 0.0453875)
(-0.136375 -1.4276e-20 0.0433129)
(-0.1389 0 0.0414195)
(-0.142745 -4.42988e-20 0.0398937)
(-0.147558 -1.89146e-20 0.0386893)
(-0.153464 0 0.037989)
(-0.1597 -1.28911e-20 0.0376498)
(-0.16646 -1.054e-20 0.0379005)
(-0.172694 0 0.0384421)
(-0.178928 1.16463e-20 0.0395494)
(-0.183828 -3.14689e-21 0.0407023)
(-0.188484 -5.37819e-21 0.0422951)
(-0.19122 0 0.0435604)
(-0.194005 -7.28521e-23 0.0451367)
(-0.194725 -4.52039e-21 0.045985)
(-0.196611 0 0.0471555)
(-0.196852 0 0.0472694)
(-0.200179 -7.06341e-21 0.0479367)
(-0.202387 4.51887e-21 0.0473168)
(-0.209811 1.98065e-20 0.0477663)
(-0.215862 -1.68167e-20 0.046808)
(-0.228742 2.25415e-20 0.0477033)
(-0.238438 3.02784e-20 0.0470511)
(-0.255914 -4.63792e-20 0.049168)
(-0.266926 0 0.0493386)
(-0.286756 0 0.0530696)
(-0.29632 1.28514e-19 0.0539547)
(-0.316942 0 0.059054)
(-0.324189 0 0.0600423)
(-0.347217 8.75242e-20 0.0661627)
(-0.353557 0 0.0667361)
(-0.383136 -9.85684e-20 0.0738406)
(-0.389405 1.41166e-21 0.0739737)
(-0.426719 7.76535e-20 0.0821234)
(-0.432548 0 0.082253)
(-0.472022 0 0.0913942)
(-0.477873 0 0.0913497)
(-0.514667 8.32144e-19 0.101923)
(-0.516505 0 0.0998268)
(-0.560911 -1.37874e-18 0.113041)
(-0.544033 -1.92424e-18 0.107522)
(-0.616076 0 0.122543)
(-0.572662 0 0.11631)
(-0.662509 0 0.128095)
(-0.625925 -1.65167e-20 0.126489)
(-0.675443 3.85807e-18 0.131499)
(-0.694382 -2.00783e-18 0.132469)
(-0.670905 -8.17444e-18 0.138666)
(-0.716278 -1.94708e-17 0.128636)
(-0.706062 0 0.148949)
(-0.651445 -2.8574e-17 0.119872)
(-0.789676 0 0.149337)
(-0.552006 1.40829e-18 0.118611)
(-0.913249 0 0.139066)
(-0.318811 0 0.0913822)
(-1.29363 0 0.219824)
(-0.00846821 -9.73813e-17 -0.0968337)
(0.030847 5.15015e-17 0.214703)
(-3.9016 0 0.364682)
(8.56348 3.55537e-17 -1.40519)
(-11.5651 1.99001e-17 2.9215)
(1.61415 -3.74895e-17 -2.13297)
(20.4984 -9.72561e-17 -1.79329)
(-42.823 0 8.187)
(35.8778 0 -10.2763)
(7.89166 0 3.73726)
(-63.5532 0 8.8517)
(85.5959 -3.0069e-16 -18.836)
(-45.6117 5.45612e-19 16.272)
(-37.3601 5.42199e-16 -0.149669)
(113.255 0 -20.5653)
(-107.768 0 29.6575)
(-39.5337 -6.31448e-16 -3.63711)
(146.304 0 -32.4374)
(-5.07107 -3.71208e-16 12.8474)
(-107.131 0 21.3893)
(7.76924 -1.63207e-16 -9.45482)
(75.3409 0 -15.0933)
(-3.65035 0 6.05784)
(-55.981 3.22982e-16 12.2701)
(-26.0357 0 3.8601)
(0.196465 0 0.0958675)
(0.19612 -2.22448e-23 0.0888925)
(0.196691 0 0.0808973)
(0.198114 -1.22526e-22 0.0709351)
(0.197703 -1.04689e-23 0.059334)
(0.194019 0 0.0481359)
(0.188209 -1.58428e-22 0.0397557)
(0.181262 0 0.0340842)
(0.172089 6.35801e-23 0.0273748)
(0.158501 8.37813e-22 0.0160546)
(0.140198 0 0.00175305)
(0.11947 0 -0.00955145)
(0.0983811 4.13329e-22 -0.0143498)
(0.0764274 0 -0.0152526)
(0.0519197 0 -0.0170134)
(0.0251218 0 -0.0208453)
(-0.00120512 8.16463e-22 -0.0237939)
(-0.0245683 9.54501e-22 -0.0227433)
(-0.0450756 1.26137e-21 -0.0177734)
(-0.0644328 0 -0.011476)
(-0.0833243 0 -0.00591402)
(-0.100568 1.98039e-21 -0.000973116)
(-0.11458 -2.44479e-21 0.00468568)
(-0.124994 2.95135e-21 0.0118553)
(-0.132724 6.94897e-21 0.0200932)
(-0.138844 -1.60831e-20 0.0282941)
(-0.143745 -3.7041e-23 0.0355827)
(-0.147261 9.92069e-21 0.0416837)
(-0.149265 1.07025e-20 0.0467124)
(-0.14993 0 0.0508128)
(-0.149644 0 0.0540343)
(-0.148794 1.1838e-20 0.056372)
(-0.147724 0 0.0578564)
(-0.146648 -2.3004e-20 0.0585365)
(-0.145769 -2.21166e-20 0.0585038)
(-0.14518 2.06674e-20 0.0578226)
(-0.145049 0 0.0565978)
(-0.145392 -1.80992e-20 0.0549)
(-0.146401 -1.63542e-20 0.0529107)
(-0.148068 1.55976e-22 0.0507597)
(-0.150722 2.67213e-20 0.0487023)
(-0.154308 0 0.046813)
(-0.159192 2.08268e-20 0.0453069)
(-0.164969 0 0.0441107)
(-0.171879 0 0.0434447)
(-0.179049 0 0.0431293)
(-0.186822 -2.33249e-23 0.043457)
(-0.193978 0 0.0440682)
(-0.201272 -5.51166e-21 0.045324)
(-0.207114 5.9824e-21 0.0466024)
(-0.212931 5.05397e-21 0.0484197)
(-0.216659 0 0.0498533)
(-0.220749 -2.74179e-21 0.0517205)
(-0.222514 4.10892e-21 0.0527581)
(-0.225881 0 0.0542771)
(-0.227216 0 0.0545762)
(-0.23224 6.63503e-21 0.0556328)
(-0.235583 -3.83739e-21 0.0551529)
(-0.244967 -9.2603e-21 0.0560134)
(-0.252183 1.43567e-20 0.0551219)
(-0.267357 0 0.0564639)
(-0.278249 0 0.0558158)
(-0.298466 1.96564e-22 0.0584745)
(-0.310715 4.17942e-20 0.0586263)
(-0.33386 0 0.0630607)
(-0.344692 -5.9785e-20 0.0639197)
(-0.369332 0 0.0699396)
(-0.377841 0 0.0708936)
(-0.405727 0 0.0782101)
(-0.413278 0 0.0787313)
(-0.448703 2.12721e-21 0.0872977)
(-0.45605 1.90109e-21 0.0873585)
(-0.500352 -6.95766e-20 0.0971677)
(-0.507013 0 0.0972077)
(-0.554774 -1.13447e-19 0.10827)
(-0.561091 0 0.107953)
(-0.607606 -7.80302e-19 0.121035)
(-0.609441 -1.03484e-18 0.118159)
(-0.665114 -1.27486e-18 0.134656)
(-0.647672 8.97481e-19 0.128048)
(-0.732579 0 0.146315)
(-0.687728 1.61176e-18 0.139735)
(-0.792121 0 0.153511)
(-0.75275 -4.30102e-18 0.152728)
(-0.81832 3.56282e-18 0.159091)
(-0.83286 1.88094e-18 0.159842)
(-0.82617 0 0.17)
(-0.865887 3.64384e-17 0.155488)
(-0.871718 0 0.183872)
(-0.810638 -2.65265e-17 0.14749)
(-0.963471 0 0.183808)
(-0.715713 1.49357e-18 0.151462)
(-1.09936 0 0.166312)
(-0.462136 8.87212e-17 0.130809)
(-1.53372 1.06129e-16 0.25403)
(-0.0693245 9.11294e-17 -0.108203)
(-0.22607 -4.81901e-17 0.334411)
(-4.19303 0 0.272258)
(8.97286 -6.65673e-17 -1.37235)
(-12.9407 -3.71787e-17 3.33899)
(2.68568 0 -2.94727)
(20.7038 9.09578e-17 -1.07904)
(-45.6333 0 8.5449)
(40.0802 0 -12.0148)
(4.60822 1.49924e-16 6.05512)
(-64.5518 0 7.77618)
(91.643 0 -20.3818)
(-54.954 3.38545e-16 20.2076)
(-33.1797 -5.06247e-16 -3.5226)
(119.934 1.02864e-17 -20.8461)
(-122.051 0 34.8715)
(-33.333 0 -8.74461)
(157.532 0 -35.2324)
(-18.5018 0 19.2617)
(-110.387 -3.76028e-16 21.6738)
(12.7163 7.6058e-17 -12.6769)
(78.2197 0 -15.4793)
(-10.409 0 8.91616)
(-60.9032 0 13.4803)
(-27.2215 0 3.63851)
(0.188069 -3.19862e-22 0.0959998)
(0.187527 0 0.089459)
(0.187412 6.34298e-23 0.0818681)
(0.188414 0 0.0728138)
(0.188369 -2.5956e-23 0.0624452)
(0.185862 0 0.0519451)
(0.181761 1.48891e-22 0.043083)
(0.177282 -4.30987e-22 0.0364616)
(0.172035 -8.88491e-22 0.029822)
(0.163818 3.70839e-23 0.0197473)
(0.150983 0 0.00630301)
(0.134514 0 -0.00570724)
(0.116839 0 -0.0119099)
(0.0988184 0 -0.0133484)
(0.0789791 0 -0.0146391)
(0.0561036 0 -0.0183084)
(0.0316668 -9.89586e-22 -0.0222938)
(0.00869619 1.15806e-21 -0.0227937)
(-0.01144 -1.18525e-21 -0.0186061)
(-0.0299772 0 -0.0120252)
(-0.0484918 0 -0.00590851)
(-0.0667124 -2.14387e-21 -0.000888675)