/*--------------------------------*- C++ -*----------------------------------*\
| =========                 |                                                 |
| \\      /  F ield         | OpenFOAM: The Open Source CFD Toolbox           |
|  \\    /   O peration     | Version:  2412                                  |
|   \\  /    A nd           | Website:  www.openfoam.com                      |
|    \\/     M anipulation  |                                                 |
\*---------------------------------------------------------------------------*/
FoamFile
{
    version     2.0;
    format      ascii;
    arch        "LSB;label=32;scalar=64";
    class       volScalarField;
    location    "1.35";
    object      p;
}
// * * * * * * * * * * * * * * * * * * * * * * * * * * * * * * * * * * * * * //

dimensions      [0 2 -2 0 0 0 0];

internalField   nonuniform List<scalar> 
12600
(
-0.0275921
-154.78
-204.831
-201.559
-189.065
-177.452
-167.27
-158.161
-149.906
-142.344
-135.347
-128.817
-122.682
-116.884
-111.377
-106.123
-101.09
-96.2536
-91.5908
-87.0833
-82.7149
-78.4717
-74.3417
-70.3141
-66.3796
-62.5299
-58.7575
-55.0557
-51.4186
-47.8407
-44.317
-40.843
-37.4146
-34.028
-30.6795
-27.366
-24.0844
-20.8318
-17.6056
-14.4032
-11.2224
-8.06073
-4.91628
-1.7869
1.32922
4.43405
7.52918
10.6165
13.6973
16.7735
19.8462
22.9171
25.9873
29.0584
32.1311
35.2072
38.2872
41.3725
44.4638
47.5621
50.668
53.7824
56.9057
60.0382
63.1807
66.3325
69.4948
72.6657
75.8471
79.0355
82.2334
85.4357
88.6452
91.8557
95.0689
98.2794
101.485
104.685
107.867
111.043
114.181
117.318
120.387
123.465
126.444
129.428
132.312
135.137
137.96
140.529
143.338
145.57
148.408
150.235
153.119
154.529
157.414
158.484
161.37
162.253
164.484
166.361
166.463
170.629
169.684
171.771
172.369
173.937
176.491
172.31
179.113
178.432
175.826
188.706
184.225
192.439
197.235
208.122
203.731
214.436
-24.1539
-123.86
-171.293
-180.892
-177.647
-170.876
-163.101
-155.31
-147.861
-140.829
-134.2
-127.936
-121.999
-116.351
-110.96
-105.796
-100.835
-96.056
-91.4395
-86.9695
-82.6317
-78.4136
-74.3042
-70.2937
-66.3733
-62.5353
-58.7725
-55.0788
-51.4483
-47.8758
-44.3565
-40.8862
-37.4607
-34.0764
-30.7298
-27.4177
-24.1371
-20.8853
-17.6596
-14.4575
-11.2767
-8.11499
-4.97033
-1.84063
1.2759
4.38122
7.4769
10.5648
13.6463
16.7232
19.7966
22.8683
25.9392
29.011
32.0845
35.1614
38.2421
41.3282
44.4202
47.5194
50.626
53.7411
56.8652
59.9984
63.1416
66.2942
69.4572
72.6289
75.8109
79.0001
82.1986
85.4017
88.6118
91.8231
95.0369
98.2482
101.454
104.655
107.838
111.015
114.153
117.292
120.361
123.44
126.42
129.404
132.29
135.115
137.94
140.509
143.319
145.551
148.39
150.219
153.103
154.514
157.4
158.471
161.356
162.244
164.469
166.357
166.45
170.616
169.683
171.762
172.364
173.923
176.497
172.308
179.092
178.448
175.802
188.679
184.222
192.404
197.187
208.101
203.714
214.405
-40.9648
-102.415
-145.2
-162.644
-165.946
-163.292
-158.129
-151.96
-145.511
-139.12
-132.922
-126.963
-121.246
-115.763
-110.497
-105.43
-100.546
-95.8269
-91.2589
-86.828
-82.522
-78.3299
-74.2418
-70.2489
-66.343
-62.5169
-58.7641
-55.0786
-51.455
-47.8881
-44.3736
-40.9071
-37.4847
-34.1029
-30.7584
-27.4479
-24.1686
-20.9177
-17.6927
-14.4911
-11.3106
-8.14903
-5.00438
-1.87458
1.24214
4.34774
7.44375
10.532
13.614
16.6913
19.7652
22.8374
25.9089
28.9812
32.0553
35.1327
38.214
41.3007
44.3933
47.493
50.6002
53.7159
56.8404
59.9742
63.1179
66.271
69.4345
72.6068
75.7893
78.979
82.1781
85.3816
88.5922
91.804
95.0183
98.2301
101.437
104.638
107.821
110.999
114.138
117.277
120.347
123.426
126.406
129.391
132.277
135.103
137.929
140.498
143.31
145.541
148.382
150.21
153.095
154.507
157.393
158.464
161.35
162.239
164.462
166.354
166.443
170.61
169.682
171.758
172.361
173.917
176.502
172.306
179.081
178.457
175.788
188.667
184.22
192.389
197.165
208.092
203.707
214.39
-48.8774
-88.6684
-124.089
-144.6
-152.796
-154.074
-151.752
-147.521
-142.362
-136.832
-131.222
-125.673
-120.252
-114.987
-109.885
-104.945
-100.159
-95.5182
-91.0126
-86.632
-82.367
-78.2084
-74.148
-70.1778
-66.2909
-62.4806
-58.741
-55.0665
-51.452
-47.8929
-44.3848
-40.9236
-37.5058
-34.1277
-30.7862
-27.4783
-24.201
-20.9518
-17.7281
-14.5276
-11.3479
-8.18691
-5.04266
-1.9131
1.20351
4.3091
7.40522
10.4937
13.5759
16.6535
19.7277
22.8003
25.8722
28.945
32.0196
35.0975
38.1793
41.2665
44.3596
47.4598
50.5675
53.6837
56.8088
59.9432
63.0874
66.241
69.4051
72.5779
75.761
78.9512
82.1507
85.3549
88.566
91.7783
94.9932
98.2056
101.413
104.615
107.798
110.977
114.116
117.256
120.326
123.406
126.387
129.373
132.26
135.086
137.913
140.482
143.295
145.526
148.369
150.196
153.083
154.495
157.382
158.454
161.339
162.232
164.45
166.35
166.432
170.601
169.681
171.751
172.357
173.906
176.507
172.303
179.066
178.469
175.766
188.646
184.217
192.356
197.128
208.077
203.69
214.364
-53.9182
-80.407
-107.32
-126.983
-138.08
-142.821
-143.44
-141.471
-137.955
-133.589
-128.802
-123.84
-118.845
-113.892
-109.025
-104.264
-99.6161
-95.0837
-90.6639
-86.3521
-82.1427
-78.0295
-74.0062
-70.0668
-66.2052
-62.4161
-58.6941
-55.0343
-51.4322
-47.8835
-44.3841
-40.9302
-37.5185
-34.1456
-30.8084
-27.504
-24.2297
-20.9829
-17.7612
-14.5622
-11.3838
-8.2238
-5.08029
-1.95127
1.16499
4.27038
7.36642
10.4549
13.5372
16.6151
19.6896
22.7625
25.8348
28.908
31.9831
35.0614
38.1437
41.2315
44.3251
47.4258
50.5341
53.6509
56.7766
59.9115
63.0563
66.2105
69.3751
72.5485
75.7322
78.923
82.1231
85.3279
88.5396
91.7525
94.9679
98.181
101.389
104.591
107.775
110.955
114.094
117.235
120.306
123.387
126.368
129.355
132.243
135.069
137.897
140.466
143.281
145.512
148.356
150.184
153.072
154.484
157.372
158.444
161.329
162.225
164.44
166.347
166.421
170.593
169.681
171.745
172.352
173.897
176.513
172.298
179.052
178.481
175.743
188.628
184.213
192.331
197.095
208.065
203.678
214.34
-57.1958
-75.3449
-94.9556
-111.829
-123.656
-130.561
-133.594
-133.819
-132.118
-129.161
-125.432
-121.258
-116.849
-112.337
-107.802
-103.295
-98.844
-94.4649
-90.1661
-85.9508
-81.8188
-77.7683
-73.7962
-69.8987
-66.0719
-62.3115
-58.6134
-54.9737
-51.3883
-47.8536
-44.366
-40.9221
-37.5188
-34.1529
-30.8217
-27.5222
-24.2521
-21.0088
-17.79
-14.5934
-11.4169
-8.25849
-5.11625
-1.98821
1.1273
4.23214
7.32781
10.4161
13.4983
16.5761
19.6508
22.7239
25.7964
28.87
31.9453
35.0241
38.1068
41.195
44.2891
47.3904
50.4992
53.6165
56.7427
59.8782
63.0235
66.1783
69.3435
72.5174
75.7017
78.8931
82.0938
85.2991
88.5114
91.725
94.941
98.1547
101.363
104.566
107.751
110.931
114.071
117.213
120.285
123.366
126.348
129.335
132.224
135.051
137.88
140.449
143.266
145.496
148.343
150.17
153.06
154.472
157.36
158.433
161.319
162.217
164.428
166.343
166.409
170.585
169.68
171.738
172.347
173.887
176.52
172.292
179.036
178.494
175.716
188.609
184.209
192.293
197.057
208.052
203.661
214.312
-58.807
-71.8235
-86.1537
-99.8479
-110.922
-118.617
-123.155
-125.102
-125.056
-123.546
-121.008
-117.78
-114.111
-110.173
-106.085
-101.925
-97.7464
-93.5819
-89.4532
-85.3736
-81.3507
-77.3883
-73.4879
-69.6491
-65.8704
-62.1499
-58.485
-54.8728
-51.3106
-47.7952
-44.3239
-40.8937
-37.5019
-34.1458
-30.8227
-27.5303
-24.266
-21.0276
-17.8129
-14.6197
-11.4461
-8.29008
-5.14978
-2.02332
1.09091
4.19476
7.28966
10.3774
13.4592
16.5368
19.6113
22.6844
25.757
28.8307
31.9063
34.9854
38.0685
41.1571
44.2516
47.3533
50.4626
53.5804
56.7071
59.8431
62.9891
66.1444
69.3101
72.4847
75.6695
78.8615
82.0628
85.2688
88.4817
91.6959
94.9126
98.127
101.336
104.54
107.725
110.906
114.047
117.189
120.262
123.344
126.327
129.315
132.205
135.032
137.863
140.432
143.25
145.48
148.329
150.155
153.047
154.459
157.349
158.422
161.308
162.209
164.416
166.339
166.395
170.576
169.68
171.729
172.341
173.877
176.528
172.284
179.021
178.507
175.685
188.589
184.203
192.262
197.019
208.04
203.644
214.282
-59.2571
-69.0256
-79.751
-90.6017
-100.247
-107.784
-112.99
-116.047
-117.276
-117.031
-115.645
-113.411
-110.57
-107.311
-103.771
-100.052
-96.2275
-92.3476
-88.4482
-84.5538
-80.6811
-76.8409
-73.0403
-69.2834
-65.5722
-61.9074
-58.2887
-54.715
-51.1849
-47.6964
-44.2477
-40.8366
-37.4608
-34.1182
-30.8066
-27.5238
-24.2677
-21.0362
-17.8273
-14.639
-11.4696
-8.31698
-5.17956
-2.05549
1.05679
4.15904
7.25266
10.3394
13.4204
16.4974
19.5715
22.6444
25.7169
28.7906
31.8663
34.9455
38.0288
41.1177
44.2125
47.3146
50.4244
53.5426
56.6698
59.8064
62.9528
66.1087
69.275
72.4501
75.6356
78.8282
82.0302
85.2368
88.4503
91.6652
94.8825
98.0977
101.307
104.512
107.698
110.88
114.021
117.164
120.238
123.321
126.304
129.293
132.184
135.012
137.844
140.413
143.234
145.463
148.314
150.14
153.034
154.446
157.336
158.409
161.296
162.2
164.403
166.335
166.381
170.568
169.679
171.72
172.334
173.867
176.537
172.273
179.006
178.52
175.65
188.569
184.197
192.22
196.977
208.029
203.625
214.249
-58.9936
-66.562
-74.8021
-83.3637
-91.454
-98.3295
-103.61
-107.234
-109.314
-110.042
-109.64
-108.329
-106.314
-103.769
-100.837
-97.627
-94.225
-90.6947
-87.0838
-83.4273
-79.7507
-76.0726
-72.4059
-68.7599
-65.1408
-61.5526
-57.9977
-54.4773
-50.9917
-47.5407
-44.1235
-40.7388
-37.3854
-34.0616
-30.766
-27.4967
-24.252
-21.0302
-17.8295
-14.6482
-11.4846
-8.33698
-5.20372
-2.08312
1.02625
4.12609
7.21773
10.3028
13.3826
16.4586
19.5319
22.6042
25.6762
28.7497
31.8252
34.9044
37.9878
41.0769
44.172
47.2744
50.3845
53.5031
56.6308
59.7678
62.9148
66.0712
69.2381
72.4137
75.5998
78.793
81.9956
85.2029
88.4171
91.6327
94.8508
98.0666
101.277
104.483
107.669
110.852
113.994
117.138
120.212
123.296
126.281
129.27
132.162
134.991
137.825
140.394
143.216
145.445
148.298
150.124
153.02
154.431
157.323
158.397
161.285
162.19
164.389
166.331
166.365
170.56
169.68
171.711
172.327
173.858
176.548
172.26
178.99
178.534
175.609
188.549
184.19
192.175
196.934
208.019
203.604
214.213
-58.2582
-64.238
-70.7105
-77.5162
-84.1941
-90.2158
-95.2072
-98.9956
-101.556
-102.958
-103.321
-102.794
-101.528
-99.6707
-97.3504
-94.676
-91.7358
-88.6003
-85.3247
-81.9517
-78.5144
-75.0377
-71.5405
-68.0372
-64.538
-61.0508
-57.581
-54.1322
-50.7071
-47.3071
-43.933
-40.5847
-37.2622
-33.9646
-30.6911
-27.4406
-24.2119
-21.0036
-17.8144
-14.6429
-11.4876
-8.34694
-5.21961
-2.10402
1.00113
4.09745
7.18613
10.2688
13.3465
16.4209
19.4929
22.5641
25.6354
28.7083
31.7834
34.8623
37.9456
41.0347
44.1298
47.2324
50.3428
53.4618
56.5898
59.7272
62.8747
66.0316
69.1991
72.3753
75.562
78.7558
81.9591
85.1671
88.382
91.5983
94.8171
98.0338
101.245
104.451
107.639
110.822
113.966
117.11
120.185
123.271
126.256
129.246
132.139
134.968
137.804
140.373
143.197
145.427
148.281
150.106
153.005
154.416
157.31
158.383
161.272
162.18
164.376
166.326
166.347
170.553
169.68
171.7
172.319
173.847
176.56
172.244
178.974
178.548
175.562
188.529
184.182
192.115
196.889
208.01
203.581
214.173
-57.1804
-61.9687
-67.1436
-72.6183
-78.1099
-83.2641
-87.7803
-91.4638
-94.2203
-96.0339
-96.947
-97.0401
-96.4131
-95.1749
-93.4328
-91.2842
-88.8137
-86.0924
-83.1787
-80.1201
-76.9543
-73.7115
-70.4152
-67.084
-63.7322
-60.371
-57.0088
-53.652
-50.3053
-46.9723
-43.6552
-40.3557
-37.0746
-33.8125
-30.5692
-27.3444
-24.1377
-20.9482
-17.775
-14.617
-11.4733
-8.34251
-5.22356
-2.11508
0.984054
4.07529
7.15969
10.2388
13.3135
16.3854
19.4553
22.5249
25.5948
28.6667
31.741
34.8194
37.9023
40.9911
44.0861
47.1888
50.2992
53.4184
56.5468
59.6845
62.8324
65.9898
69.1578
72.3346
75.5219
78.7164
81.9203
85.129
88.3447
91.5618
94.7813
97.9989
101.211
104.418
107.607
110.791
113.935
117.081
120.157
123.243
126.229
129.221
132.115
134.945
137.782
140.351
143.178
145.407
148.264
150.089
152.99
154.401
157.295
158.368
161.26
162.169
164.361
166.321
166.328
170.546
169.681
171.687
172.309
173.839
176.574
172.224
178.958
178.562
175.507
188.51
184.173
192.053
196.84
208.003
203.555
214.128
-55.8414
-59.7172
-63.9136
-68.3705
-72.8969
-77.2571
-81.2333
-84.6545
-87.4043
-89.4211
-90.6921
-91.2451
-91.1337
-90.4283
-89.2081
-87.5531
-85.5383
-83.2305
-80.6875
-77.9583
-75.0833
-72.0961
-69.0236
-65.8879
-62.7064
-59.4933
-56.2597
-53.0144
-49.7643
-46.5147
-43.2698
-40.0325
-36.8051
-33.5892
-30.3858
-27.1953
-24.018
-20.8537
-17.7022
-14.5628
-11.435
-8.31789
-5.2106
-2.11206
0.978607
4.06264
7.14093
10.2148
13.2852
16.3535
19.4204
22.4875
25.5553
28.6255
31.6985
34.7758
37.8579
40.9461
44.0408
47.1432
50.2537
53.3729
56.5014
59.6395
62.7877
65.9455
69.114
72.2913
75.4792
78.6744
81.879
85.0884
88.3049
91.5228
94.7432
97.9616
101.174
104.383
107.572
110.758
113.903
117.05
120.127
123.214
126.202
129.194
132.09
134.92
137.759
140.329
143.157
145.386
148.245
150.07
152.973
154.384
157.281
158.353
161.247
162.158
164.346
166.317
166.306
170.54
169.683
171.674
172.299
173.827
176.591
172.2
178.943
178.577
175.445
188.491
184.162
191.98
196.789
207.999
203.526
214.077
-54.3023
-57.4676
-60.9077
-64.5732
-68.3219
-71.9933
-75.4371
-78.5204
-81.1333
-83.1967
-84.6666
-85.5333
-85.8149
-85.5471
-84.7805
-83.5736
-81.9869
-80.079
-77.9033
-75.5072
-72.9321
-70.2128
-67.3789
-64.4548
-61.4605
-58.4127
-55.3248
-52.2076
-49.0701
-45.9193
-42.7609
-39.5993
-36.4381
-33.2798
-30.1265
-26.9797
-23.8403
-20.709
-17.586
-14.4713
-11.3647
-8.26595
-5.17447
-2.08951
0.989485
4.06353
7.13329
10.1999
13.2641
16.3272
19.3897
22.453
25.5178
28.5854
31.6564
34.732
37.8128
40.9
43.994
47.0958
50.2059
53.325
56.4535
59.5917
62.7401
65.8983
69.0672
72.245
75.4335
78.6293
81.8347
85.0449
88.2621
91.4809
94.7023
97.9216
101.135
104.345
107.535
110.722
113.868
117.017
120.094
123.183
126.172
129.166
132.063
134.894
137.735
140.305
143.135
145.365
148.226
150.051
152.956
154.367
157.265
158.337
161.234
162.145
164.33
166.312
166.283
170.533
169.686
171.659
172.287
173.819
176.61
172.17
178.928
178.592
175.372
188.473
184.151
191.897
196.735
207.996
203.495
214.021
-52.6108
-55.2123
-58.0552
-61.0948
-64.2166
-67.3058
-70.2607
-72.9849
-75.3872
-77.3894
-78.9344
-79.9907
-80.5502
-80.6234
-80.2346
-79.4204
-78.2245
-76.6934
-74.873
-72.8067
-70.5336
-68.0888
-65.5025
-62.8009
-60.0059
-57.1361
-54.2069
-51.2311
-48.2192
-45.18
-42.1205
-39.0465
-35.9628
-32.8729
-29.78
-26.6863
-23.5937
-20.5033
-17.4162
-14.3328
-11.2537
-8.17876
-5.10802
-2.04106
1.02235
4.08294
7.14109
10.1978
13.2534
16.3091
19.3654
22.4235
25.4838
28.5477
31.6156
34.6887
37.7674
40.8529
43.9456
47.0465
50.1558
53.2744
56.4027
59.5408
62.6893
65.8477
69.0169
72.1952
75.3843
78.5807
81.7868
84.9977
88.2159
91.4356
94.658
97.8784
101.093
104.304
107.496
110.684
113.831
116.981
120.06
123.15
126.14
129.135
132.034
134.866
137.71
140.279
143.113
145.342
148.206
150.031
152.938
154.349
157.248
158.319
161.22
162.131
164.314
166.307
166.257
170.529
169.689
171.642
172.274
173.81
176.632
172.133
178.914
178.608
175.289
188.457
184.14
191.803
196.678
207.997
203.46
213.958
-50.7957
-52.9442
-55.3084
-57.8466
-60.4602
-63.0629
-65.5858
-67.962
-70.1211
-71.9949
-73.5255
-74.6715
-75.409
-75.7308
-75.6416
-75.1581
-74.307
-73.1212
-71.6366
-69.8898
-67.9158
-65.7474
-63.4143
-60.9429
-58.3564
-55.6746
-52.9145
-50.0906
-47.215
-44.2978
-41.3476
-38.3714
-35.3749
-32.363
-29.3395
-26.3077
-23.2699
-20.2283
-17.1844
-14.1393
-11.0939
-8.0487
-5.00409
-1.96005
1.0833
4.12639
7.16928
10.2127
13.2569
16.3027
19.3505
22.4013
25.4554
28.514
31.5774
34.6468
37.7224
40.8054
43.896
46.9952
50.1033
53.221
56.3486
59.4863
62.6347
65.793
68.9625
72.1411
75.3307
78.5277
81.7346
84.9463
88.1655
91.3861
94.6096
97.8312
101.047
104.259
107.452
110.642
113.791
116.942
120.023
123.114
126.106
129.102
132.003
134.836
137.682
140.253
143.088
145.318
148.184
150.009
152.918
154.331
157.23
158.302
161.207
162.116
164.297
166.301
166.228
170.526
169.694
171.624
172.259
173.803
176.658
172.09
178.9
178.624
175.193
188.442
184.128
191.697
196.617
208.001
203.425
213.884
-48.8785
-50.6595
-52.6357
-54.7673
-56.9659
-59.1632
-61.3121
-63.3678
-65.2783
-66.9881
-68.4448
-69.6055
-70.4393
-70.9275
-71.062
-70.8444
-70.286
-69.4064
-68.2304
-66.7859
-65.1019
-63.2072
-61.1292
-58.8932
-56.5223
-54.0369
-51.4551
-48.7925
-46.0626
-43.2768
-40.4449
-37.5752
-34.6746
-31.7489
-28.8028
-25.8405
-22.8651
-19.8793
-16.8854
-13.885
-10.8794
-7.86968
-4.85661
-1.84054
1.17805
4.19928
7.22293
10.2495
13.2788
16.3117
19.3482
22.3893
25.435
28.4864
31.5435
34.6077
37.6788
40.7581
43.8457
46.9424
50.0485
53.1646
56.2911
59.4278
62.5757
65.7337
68.9032
72.082
75.2719
78.4694
81.677
84.8895
88.1097
91.3314
94.5561
97.7789
100.997
104.21
107.404
110.595
113.746
116.899
119.982
123.075
126.069
129.066
131.97
134.804
137.653
140.224
143.062
145.292
148.161
149.987
152.898
154.311
157.212
158.283
161.191
162.101
164.28
166.296
166.196
170.525
169.7
171.603
172.242
173.796
176.687
172.039
178.887
178.641
175.085
188.428
184.117
191.579
196.553
208.009
203.386
213.8
-46.8763
-48.3566
-50.0149
-51.8132
-53.6703
-55.5296
-57.3584
-59.1274
-60.7998
-62.3319
-63.6794
-64.8028
-65.6696
-66.2558
-66.5457
-66.5307
-66.2104
-65.5924
-64.6908
-63.5244
-62.1149
-60.4856
-58.66
-56.661
-54.5104
-52.2282
-49.8327
-47.3401
-44.7648
-42.1193
-39.4146
-36.6598
-33.8632
-31.0313
-28.1701
-25.2842
-22.3779
-19.4544
-16.5167
-13.5667
-10.6067
-7.63778
-4.66138
-1.67814
1.31108
4.30612
7.30642
10.3122
13.3232
16.3399
19.3621
22.3907
25.4254
28.4672
31.5161
34.5731
37.6382
40.7123
43.7954
46.8885
49.9916
53.1052
56.2297
59.365
62.5118
65.6691
68.8382
72.0167
75.2069
78.4046
81.6129
84.8261
88.0473
91.27
94.4961
97.7202
100.94
104.154
107.351
110.544
113.697
116.851
119.936
123.031
126.028
129.027
131.934
134.768
137.621
140.193
143.034
145.265
148.136
149.963
152.876
154.291
157.192
158.264
161.176
162.085
164.262
166.29
166.161
170.524
169.708
171.581
172.222
173.79
176.721
171.979
178.875
178.657
174.963
188.415
184.106
191.448
196.482
208.02
203.351
213.705
-44.8021
-46.0346
-47.4301
-48.9528
-50.5267
-52.1033
-53.6594
-55.1767
-56.6294
-57.9844
-59.2055
-60.2584
-61.1128
-61.7434
-62.1307
-62.2606
-62.1247
-61.7214
-61.0554
-60.1369
-58.9801
-57.6017
-56.0205
-54.2556
-52.3265
-50.2516
-48.0486
-45.7336
-43.3212
-40.8247
-38.2558
-35.6245
-32.94
-30.2099
-27.4409
-24.6386
-21.8079
-18.9529
-16.0772
-13.1833
-10.274
-7.35099
-4.41603
-1.47018
1.48531
4.45001
7.42302
10.4044
13.3934
16.3906
19.3954
22.4084
25.4294
28.4592
31.4975
34.5452
37.6021
40.6692
43.7464
46.8343
49.9331
53.0431
56.1647
59.2976
62.4426
65.5984
68.7666
71.9445
75.1344
78.3322
81.5409
84.7546
87.9768
91.2006
94.4281
97.6536
100.875
104.091
107.29
110.485
113.64
116.797
119.885
122.982
125.982
128.982
131.894
134.729
137.586
140.158
143.003
145.236
148.11
149.938
152.853
154.27
157.17
158.243
161.16
162.068
164.244
166.282
166.123
170.527
169.716
171.556
172.2
173.785
176.759
171.91
178.862
178.675
174.822
188.404
184.097
191.304
196.409
208.035
203.32
213.597
-42.6663
-43.6931
-44.87
-46.1628
-47.5004
-48.8395
-50.1637
-51.4621
-52.7171
-53.9038
-54.9934
-55.9573
-56.7688
-57.404
-57.8426
-58.068
-58.0673
-57.8326
-57.3616
-56.6569
-55.7255
-54.5781
-53.2276
-51.689
-49.9781
-48.1112
-46.1041
-43.9722
-41.7298
-39.3902
-36.9653
-34.466
-31.902
-29.2817
-26.6127
-23.9013
-21.1532
-18.3732
-15.5655
-12.7334
-9.88015
-7.00796
-4.11912
-1.21507
1.70253
4.63292
7.57487
10.5282
13.4919
16.4662
19.4505
22.4451
25.4496
28.4647
31.4898
34.5259
37.5726
40.6307
43.7
46.7811
49.874
52.979
56.0964
59.2257
62.3678
65.5213
68.6877
71.8643
75.0535
78.2508
81.4596
84.6736
87.8965
91.1211
94.3501
97.5769
100.8
104.018
107.22
110.416
113.575
116.734
119.826
122.924
125.93
128.931
131.848
134.683
137.546
140.12
142.969
145.203
148.08
149.912
152.827
154.248
157.147
158.222
161.144
162.049
164.224
166.273
166.084
170.527
169.727
171.53
172.175
173.782
176.8
171.83
178.851
178.693
174.694
188.393
184.091
191.151
196.329
208.055
203.3
213.477
-40.4772
-41.3324
-42.3261
-43.4259
-44.5649
-45.704
-46.8308
-47.9398
-49.0195
-50.051
-51.0118
-51.8785
-52.6287
-53.2409
-53.696
-53.9769
-54.0688
-53.9604
-53.6444
-53.1177
-52.3814
-51.4403
-50.302
-48.9766
-47.4762
-45.8136
-44.0024
-42.0564
-39.9888
-37.8123
-35.5389
-33.1794
-30.7441
-28.2418
-25.6807
-23.0679
-20.4098
-17.7116
-14.9785
-12.2142
-9.42269
-6.60659
-3.76878
-0.911083
1.96435
4.85645
7.76358
10.6853
13.6203
16.5686
19.5293
22.5027
25.4879
28.4856
31.4951
34.5173
37.5514
40.5984
43.6578
46.7302
49.8155
52.9137
56.0254
59.1497
62.2877
65.4376
68.6014
71.7756
74.9633
78.1593
81.3676
84.5813
87.8047
91.0298
94.2601
97.4881
100.713
103.934
107.138
110.337
113.499
116.66
119.757
122.857
125.869
128.871
131.795
134.631
137.501
140.076
142.93
145.167
148.046
149.882
152.798
154.224
157.122
158.199
161.125
162.03
164.204
166.264
166.042
170.529
169.741
171.499
172.147
173.78
176.846
171.742
178.836
178.711
174.592
188.386
184.087
190.988
196.249
208.081
203.299
213.35
-38.2414
-38.953
-39.7923
-40.7291
-41.7002
-42.6699
-43.6286
-44.5743
-45.4998
-46.391
-47.2303
-47.9988
-48.6778
-49.2494
-49.6961
-50.0016
-50.1513
-50.1323
-49.9344
-49.5508
-48.978
-48.2159
-47.2673
-46.1379
-44.8354
-43.3692
-41.75
-39.9892
-38.0984
-36.0892
-33.9728
-31.7599
-29.4606
-27.0841
-24.6388
-22.1324
-19.5718
-16.9628
-14.3112
-11.6213
-8.89761
-6.14332
-3.36184
-0.555448
2.27323
5.12278
7.99114
10.8776
13.7804
16.6995
19.6335
22.5827
25.5459
28.5237
31.5151
34.5209
37.5403
40.5739
43.6213
46.683
49.7588
52.8485
55.9527
59.0705
62.2029
65.3479
68.5075
71.6782
74.8633
78.0571
81.2641
84.4766
87.6999
90.9249
94.1562
97.385
100.612
103.834
107.041
110.242
113.409
116.572
119.675
122.777
125.796
128.799
131.732
134.568
137.448
140.024
142.884
145.126
148.007
149.85
152.765
154.199
157.093
158.176
161.104
162.011
164.182
166.253
165.998
170.53
169.757
171.466
172.115
173.781
176.892
171.644
178.826
178.733
174.435
188.375
184.092
190.825
196.167
208.11
203.328
213.223
-35.9646
-36.5555
-37.2641
-38.0625
-38.891
-39.7165
-40.5318
-41.3368
-42.1274
-42.8934
-43.6207
-44.2943
-44.8989
-45.4194
-45.8409
-46.1487
-46.3289
-46.3687
-46.2567
-45.9838
-45.5436
-44.9323
-44.1489
-43.1949
-42.0741
-40.7924
-39.3572
-37.7772
-36.062
-34.2213
-32.2653
-30.2039
-28.0467
-25.8028
-23.4806
-21.0881
-18.6325
-16.1202
-13.5573
-10.9487
-8.29933
-5.61302
-2.89368
-0.143983
2.63292
5.43526
8.26051
11.1076
13.9746
16.861
19.7652
22.6871
25.6255
28.5807
31.5514
34.5384
37.5407
40.5588
43.5922
46.6411
49.7054
52.7848
55.8798
58.9892
62.1143
65.2528
68.4069
71.5726
74.7537
77.944
81.1485
84.3588
87.5811
90.8051
94.0367
97.2656
100.495
103.717
106.928
110.13
113.302
116.467
119.577
122.68
125.709
128.712
131.657
134.492
137.383
139.962
142.829
145.077
147.96
149.813
152.725
154.171
157.06
158.152
161.08
161.992
164.158
166.241
165.954
170.529
169.775
171.432
172.08
173.784
176.937
171.546
178.805
178.753
174.259
188.363
184.099
190.67
196.093
208.144
203.398
213.106
-33.6518
-34.1406
-34.7383
-35.4185
-36.1253
-36.8278
-37.5201
-38.2039
-38.8771
-39.5322
-40.158
-40.7424
-41.2732
-41.7379
-42.1238
-42.4183
-42.6088
-42.6832
-42.6301
-42.4396
-42.1034
-41.6155
-40.9719
-40.1708
-39.2127
-38.1002
-36.8375
-35.4304
-33.8861
-32.2122
-30.4173
-28.51
-26.4991
-24.3932
-22.2004
-19.9286
-17.5851
-15.1767
-12.7096
-10.1894
-7.62124
-5.00945
-2.35842
0.328737
3.0484
5.79841
8.5758
11.3792
14.2062
17.0561
19.9269
22.8184
25.7288
28.6585
31.606
34.5717
37.5546
40.5549
43.5721
46.6062
49.6571
52.7242
55.8081
58.9074
62.0235
65.1537
68.3007
71.4598
74.6355
77.8206
81.0214
84.2281
87.4482
90.6699
93.9009
97.1288
100.359
103.582
106.795
109.999
113.176
116.342
119.46
122.563
125.604
128.605
131.566
134.399
137.305
139.885
142.762
145.018
147.903
149.77
152.677
154.14
157.021
158.127
161.051
161.974
164.131
166.227
165.911
170.524
169.795
171.396
172.043
173.789
176.983
171.444
178.788
178.782
174.084
188.354
184.121
190.536
196.033
208.181
203.528
213.018
-31.3068
-31.7095
-32.2124
-32.7913
-33.3937
-33.9908
-34.5776
-35.1569
-35.728
-36.2854
-36.8202
-37.3226
-37.7828
-38.1905
-38.5353
-38.8063
-38.9926
-39.0832
-39.0675
-38.9354
-38.6782
-38.2883
-37.7599
-37.0889
-36.273
-35.3121
-34.2074
-32.9622
-31.5807
-30.0687
-28.4326
-26.6795
-24.8169
-22.8525
-20.7939
-18.6485
-16.4235
-14.1256
-11.7614
-9.33634
-6.85628
-4.32569
-1.74943
0.869032
3.5256
6.21778
8.94214
11.697
14.4795
17.2887
20.1223
22.9796
25.8589
28.7599
31.6813
34.6229
37.5839
40.564
43.5628
46.5799
49.6155
52.6683
55.7394
58.8267
61.9321
65.0522
68.1904
71.3412
74.51
77.6883
80.8839
84.0853
87.3019
90.5197
93.7491
96.9745
100.205
103.426
106.643
109.845
113.028
116.194
119.321
122.423
125.478
128.476
131.455
134.285
137.209
139.792
142.679
144.945
147.833
149.717
152.619
154.104
156.973
158.101
161.014
161.958
164.098
166.213
165.872
170.514
169.818
171.359
172.007
173.796
177.026
171.349
178.764
178.82
173.924
188.348
184.154
190.439
195.999
208.223
203.738
212.982
-28.9334
-29.2629
-29.6848
-30.1766
-30.6891
-31.1955
-31.6916
-32.1805
-32.6629
-33.1346
-33.5884
-34.0164
-34.4106
-34.7627
-35.0641
-35.3057
-35.4781
-35.5715
-35.5765
-35.4836
-35.284
-34.9697
-34.5338
-33.9707
-33.2764
-32.4482
-31.4852
-30.3881
-29.1588
-27.8007
-26.3183
-24.7166
-23.0019
-21.1804
-19.2589
-17.244
-15.1427
-12.9611
-10.706
-8.38274
-5.99739
-3.55465
-1.05967
1.48372
4.07112
6.69959
9.36543
12.0665
14.7997
17.5636
20.3556
23.1748
26.0192
28.8882
31.7803
34.6949
37.6312
40.5885
43.5667
46.5644
49.5826
52.619
55.6755
58.7488
61.842
64.9501
68.0781
71.2187
74.379
77.5488
80.7377
83.9321
87.1439
90.3561
93.5825
96.8037
100.033
103.252
106.47
109.67
112.858
116.022
119.159
122.258
125.328
128.321
131.32
134.146
137.091
139.676
142.577
144.855
147.746
149.653
152.546
154.062
156.916
158.074
160.968
161.947
164.06
166.198
165.84
170.495
169.844
171.325
171.975
173.806
177.065
171.272
178.741
178.873
173.784
188.353
184.214
190.397
196.003
208.275
204.051
213.025
-26.5347
-26.8021
-27.1544
-27.571
-28.0058
-28.434
-28.8518
-29.2627
-29.6679
-30.0645
-30.4466
-30.8077
-31.1413
-31.4407
-31.6987
-31.9078
-32.0601
-32.1472
-32.1606
-32.0918
-31.9325
-31.6747
-31.3112
-30.8356
-30.2427
-29.5283
-28.6898
-27.7255
-26.6355
-25.4209
-24.0842
-22.6287
-21.0587
-19.3791
-17.5955
-15.7136
-13.7394
-11.6788
-9.53802
-7.32247
-5.03799
-2.68948
-0.282172
2.17977
4.6918
7.25051
9.85207
12.4938
15.1725
17.886
20.632
23.4086
26.2142
29.0472
31.9066
34.7908
37.6997
40.6311
43.5862
46.5619
49.5606
52.5783
55.6184
58.6757
61.755
64.8493
67.9654
71.094
74.2446
77.404
80.585
83.7704
86.9762
90.1808
93.4034
96.618
99.8462
103.059
106.279
109.474
112.668
115.826
118.974
122.067
125.154
128.14
131.161
133.981
136.949
139.536
142.452
144.745
147.638
149.573
152.456
154.011
156.845
158.046
160.91
161.941
164.013
166.185
165.822
170.466
169.875
171.297
171.954
173.818
177.099
171.229
178.718
178.95
173.683
188.376
184.313
190.434
196.063
208.343
204.494
213.178
-24.1136
-24.3281
-24.6206
-24.972
-25.3396
-25.7001
-26.0501
-26.3934
-26.7316
-27.0624
-27.3812
-27.6826
-27.9612
-28.2115
-28.4276
-28.6034
-28.7322
-28.8068
-28.8198
-28.7637
-28.631
-28.414
-28.1058
-27.6997
-27.1898
-26.5711
-25.8395
-24.992
-24.027
-22.9437
-21.7426
-20.4254
-18.9946
-17.4536
-15.8064
-14.0577
-12.2125
-10.276
-8.25358
-6.15056
-3.97235
-1.72392
0.589704
2.96398
5.39454
7.87733
10.4088
12.9852
15.604
18.2619
20.957
23.6862
26.4488
29.2415
32.0646
34.9145
37.7928
40.6951
43.6244
46.5752
49.5522
52.5486
55.5704
58.6093
61.6732
64.7515
67.8545
70.9691
74.1086
77.2556
80.4278
83.6022
86.8012
89.9961
93.214
96.4199
99.646
102.851
106.072
109.259
112.459
115.608
118.768
121.851
124.956
127.931
130.977
133.789
136.78
139.37
142.302
144.61
147.508
149.476
152.346
153.949
156.759
158.017
160.836
161.945
163.958
166.176
165.823
170.424
169.913
171.28
171.957
173.837
177.13
171.244
178.699
179.066
173.64
188.424
184.478
190.576
196.201
208.44
205.091
213.47
-21.6726
-21.8422
-22.0831
-22.3779
-22.6871
-22.9888
-23.2801
-23.5647
-23.8445
-24.1179
-24.381
-24.6293
-24.8583
-25.0636
-25.2403
-25.3833
-25.487
-25.5454
-25.552
-25.5004
-25.3837
-25.1952
-24.928
-24.5759
-24.1327
-23.5928
-22.9516
-22.205
-21.35
-20.3845
-19.3075
-18.1188
-16.8195
-15.4113
-13.8969
-12.2796
-10.5632
-8.75195
-6.85046
-4.86356
-2.79594
-0.652649
1.5619
3.8427
6.18594
8.58677
11.0422
13.5476
16.1009
18.6975
21.3366
24.0133
26.7283
29.476
32.2588
35.0703
37.9146
40.784
43.6847
46.6074
49.5603
52.5324
55.534
58.5518
61.5987
64.6587
67.7472
70.8457
73.973
77.1056
80.2679
83.4293
86.6207
89.8037
93.0165
96.2114
99.4353
102.629
105.851
109.029
112.234
115.372
118.543
121.613
124.738
127.699
130.77
133.573
136.587
139.178
142.126
144.452
147.353
149.358
152.214
153.874
156.656
157.986
160.746
161.96
163.893
166.175
165.85
170.367
169.967
171.283
172
173.866
177.162
171.351
178.683
179.248
173.693
188.507
184.741
190.854
196.446
208.576
205.858
213.923
-19.2143
-19.3455
-19.5419
-19.7875
-20.0457
-20.2963
-20.5366
-20.7702
-20.9992
-21.2223
-21.4365
-21.6377
-21.8224
-21.9868
-22.127
-22.2386
-22.3171
-22.3573
-22.3537
-22.3007
-22.1923
-22.0225
-21.785
-21.4739
-21.0833
-20.6075
-20.0414
-19.3805
-18.6208
-17.7593
-16.7935
-15.7223
-14.545
-13.2621
-11.8746
-10.3848
-8.79484
-7.10835
-5.32852
-3.45981
-1.50581
0.52837
2.63933
4.82149
7.07207
9.38518
11.759
14.1873
16.6697
19.1992
21.7771
24.3958
27.0584
29.7563
32.4945
35.2631
38.0696
40.9022
43.771
46.662
49.5881
52.5327
55.5119
58.5059
61.5339
64.573
67.6456
70.7256
73.8395
76.9555
80.107
83.2533
86.4365
89.6055
92.8129
95.9944
99.216
102.397
105.621
108.784
111.996
115.119
118.304
121.358
124.502
127.447
130.542
133.335
136.37
138.964
141.927
144.271
147.176
149.221
152.061
153.787
156.534
157.955
160.636
161.989
163.82
166.183
165.912
170.295
170.046
171.318
172.103
173.913
177.208
171.595
178.677
179.531
173.899
188.633
185.142
191.298
196.83
208.767
206.803
214.544
-16.7409
-16.8394
-16.9973
-17.2
-17.4136
-17.6197
-17.8156
-18.0048
-18.1895
-18.3687
-18.5398
-18.6995
-18.8447
-18.9723
-19.079
-19.1613
-19.2152
-19.2365
-19.2204
-19.1621
-19.0564
-18.8979
-18.6812
-18.4007
-18.0509
-17.6264
-17.1219
-16.5327
-15.8543
-15.0831
-14.2158
-13.2501
-12.1842
-11.0174
-9.74931
-8.38105
-6.91341
-5.34912
-3.68985
-1.93973
-0.100823
1.82158
3.82555