/*--------------------------------*- C++ -*----------------------------------*\
| =========                 |                                                 |
| \\      /  F ield         | OpenFOAM: The Open Source CFD Toolbox           |
|  \\    /   O peration     | Version:  2412                                  |
|   \\  /    A nd           | Website:  www.openfoam.com                      |
|    \\/     M anipulation  |                                                 |
\*---------------------------------------------------------------------------*/
FoamFile
{
    version     2.0;
    format      ascii;
    arch        "LSB;label=32;scalar=64";
    class       volScalarField;
    location    "0.28";
    object      p;
}
// * * * * * * * * * * * * * * * * * * * * * * * * * * * * * * * * * * * * * //

dimensions      [0 2 -2 0 0 0 0];

internalField   nonuniform List<scalar> 
12600
(
2.37742
-95.3376
-81.0468
-27.8337
20.7886
58.6708
89.099
114.59
136.579
155.878
173.022
188.361
202.218
214.814
226.327
236.856
246.521
255.417
263.616
271.18
278.158
284.634
290.585
296.131
301.268
305.994
310.39
314.437
318.205
321.616
324.903
327.652
330.469
333.086
335.449
337.555
339.529
341.326
343.035
344.596
346.077
347.453
348.73
349.975
351.082
352.201
353.184
354.159
355.09
356.018
357.055
358.112
359.248
360.365
361.353
361.979
362.043
361.221
359.545
357.229
354.661
351.673
347.765
343.923
343.584
350.675
361.955
363.294
322.116
294.829
308.025
305.405
298.093
288.609
260.605
224.762
201.017
219.848
289.393
400.095
512.738
591.162
630.088
646.435
650.038
649.044
646.23
644.421
643.548
639.774
629.106
615.152
608.059
613.191
624.607
634.657
642.072
647.413
651.082
653.694
655.506
657.621
660.624
665.77
673.061
682.201
693.302
703.064
715.064
722.276
732.976
737.56
746.452
749.749
756.989
760.388
766.112
769.966
774.617
777.573
62.1669
-23.8608
-40.9822
-15.7878
19.8185
54.267
84.2304
109.944
132.276
151.938
169.453
185.192
199.404
212.311
224.094
234.85
244.736
253.848
262.204
269.909
277.025
283.617
289.675
295.315
300.526
305.338
309.805
313.896
317.712
321.196
324.491
327.329
330.211
332.813
335.175
337.299
339.298
341.121
342.856
344.438
345.94
347.333
348.627
349.886
351.004
352.135
353.123
354.105
355.041
355.975
357.01
358.058
359.19
360.297
361.29
361.936
362.028
361.253
359.635
357.372
354.853
351.912
348.061
344.165
343.579
350.28
361.424
363.49
323.431
295.465
307.906
305.502
298.406
289.384
262.02
226.198
201.492
218.712
286.446
396.2
509.261
588.992
629.034
646.031
649.962
649.094
646.307
644.46
643.603
639.986
629.483
615.488
608.123
612.982
624.307
634.413
641.898
647.294
651.004
653.644
655.465
657.568
660.536
665.631
672.878
681.966
693.058
702.811
714.841
722.072
732.802
737.41
746.316
749.633
756.873
760.289
766.009
769.875
774.533
777.536
88.3609
27.4042
-3.87204
0.986911
25.6197
55.1632
83.1337
108.159
130.321
150.011
167.603
183.438
197.764
210.788
222.692
233.568
243.543
252.729
261.194
268.999
276.188
282.85
288.971
294.665
299.915
304.77
309.319
313.464
317.343
320.906
324.182
327.134
330.02
332.607
334.974
337.118
339.141
340.985
342.735
344.331
345.849
347.253
348.556
349.824
350.95
352.087
353.079
354.067
355.008
355.947
356.977
358.019
359.147
360.249
361.243
361.9
362.019
361.279
359.694
357.469
354.961
352.065
348.265
344.344
343.561
350.028
361.064
363.664
324.141
295.879
307.848
305.583
298.6
289.839
262.852
227.091
201.815
217.94
284.844
394.126
507.445
587.808
628.441
645.793
649.912
649.123
646.343
644.479
643.636
640.087
629.668
615.665
608.16
612.884
624.177
634.304
641.82
647.242
650.971
653.626
655.448
657.545
660.499
665.581
672.81
681.879
692.967
702.718
714.755
721.996
732.736
737.355
746.264
749.592
756.828
760.254
765.968
769.842
774.499
777.519
99.2036
61.3703
30.8608
23.7226
36.5045
58.8643
83.441
107.001
128.58
148.079
165.658
181.566
196.002
209.141
221.163
232.166
242.263
251.565
260.125
268.011
275.303
282.053
288.243
294.001
299.32
304.227
308.812
312.985
316.881
320.517
323.828
326.929
329.777
332.353
334.748
336.915
338.961
340.826
342.591
344.202
345.734
347.151
348.464
349.742
350.877
352.02
353.019
354.011
354.958
355.899
356.925
357.962
359.086
360.19
361.192
361.866
362.013
361.31
359.767
357.585
355.104
352.253
348.498
344.528
343.525
349.672
360.672
363.853
325.104
296.265
307.772
305.693
298.847
290.495
263.98
228.171
202.056
216.82
282.202
390.795
504.624
586.091
627.623
645.484
649.857
649.165
646.407
644.513
643.686
640.288
629.979
615.926
608.197
612.701
623.927
634.106
641.679
647.145
650.906
653.581
655.413
657.498
660.421
665.457
672.641
681.673
692.756
702.5
714.566
721.821
732.589
737.226
746.149
749.492
756.729
760.169
765.88
769.765
774.429
777.489
109.247
87.6599
63.308
50.0503
52.4062
66.4526
86.1508
107.229
127.654
146.646
164.041
179.92
194.402
207.615
219.723
230.832
241.031
250.425
259.08
267.06
274.424
281.238
287.517
293.338
298.715
303.675
308.309
312.541
316.484
320.143
323.477
326.655
329.506
332.12
334.52
336.714
338.786
340.667
342.446
344.073
345.616
347.046
348.371
349.659
350.802
351.95
352.956
353.952
354.902
355.844
356.869
357.903
359.024
360.128
361.139
361.832
362.009
361.346
359.844
357.695
355.248
352.449
348.742
344.711
343.461
349.299
360.237
363.99
325.955
296.562
307.695
305.822
299.163
291.144
265.1
229.208
202.176
215.526
279.708
387.659
501.913
584.409
626.813
645.172
649.801
649.208
646.46
644.544
643.737
640.44
630.262
616.172
608.227
612.541
623.72
633.937
641.559
647.064
650.854
653.55
655.384
657.46
660.359
665.374
672.522
681.523
692.6
702.342
714.424
721.694
732.478
737.133
746.063
749.421
756.654
760.109
765.813
769.708
774.375
777.463
120.525
108.352
90.296
75.7709
71.7215
78.2951
92.0634
109.418
127.838
145.85
162.805
178.504
192.949
206.192
218.358
229.549
239.836
249.312
258.051
266.114
273.557
280.442
286.779
292.654
298.116
303.121
307.795
312.078
316.061
319.751
323.148
326.339
329.188
331.793
334.303
336.516
338.593
340.503
342.296
343.938
345.493
346.936
348.273
349.571
350.723
351.876
352.889
353.888
354.841
355.783
356.807
357.839
358.957
360.062
361.084
361.797
362.007
361.387
359.926
357.813
355.402
352.655
348.993
344.883
343.358
348.852
359.734
364.01
326.753
296.707
307.611
305.972
299.447
291.861
266.257
230.169
202.087
213.927
276.667
383.96
498.822
582.54
625.928
644.838
649.743
649.254
646.526
644.579
643.795
640.638
630.583
616.435
608.248
612.339
623.465
633.738
641.418
646.969
650.79
653.506
655.348
657.411
660.28
665.243
672.351
681.317
692.39
702.127
714.236
721.522
732.333
737.006
745.949
749.324
756.555
760.026
765.726
769.633
774.308
777.433
131.518
124.137
111.184
98.5068
91.982
93.2816
101.353
114.179
129.623
145.957
162.055
177.351
191.638
204.853
217.05
228.304
238.666
248.221
257.04
265.18
272.696
279.647
286.057
291.998
297.496
302.561
307.284
311.616
315.638
319.361
322.8
326
328.898
331.533
333.989
336.292
338.425
340.327
342.14
343.801
345.366
346.824
348.172
349.481
350.641
351.799
352.82
353.821
354.778
355.72
356.742
357.771
358.886
359.993
361.027
361.763
362.008
361.433
360.015
357.938
355.566
352.871
349.247
345.033
343.2
348.326
359.119
363.849
327.42
296.659
307.512
306.148
299.766
292.613
267.415
230.984
201.703
211.97
273.359
379.924
495.447
580.502
624.967
644.474
649.68
649.303
646.589
644.616
643.858
640.837
630.918
616.703
608.256
612.127
623.206
633.536
641.276
646.872
650.727
653.466
655.312
657.361
660.2
665.124
672.192
681.122
692.189
701.923
714.055
721.359
732.193
736.887
745.839
749.233
756.46
759.948
765.641
769.562
774.243
777.402
141.7
136.937
127.779
117.821
111.103
109.472
113.212
121.66
133.55
147.447
162.083
176.597
190.515
203.596
215.775
227.066
237.495
247.129
256.032
264.248
271.837
278.86
285.338
291.335
296.893
302.008
306.765
311.15
315.209
318.966
322.445
325.663
328.595
331.271
333.773
336.049
338.18
340.183
341.989
343.653
345.239
346.71
348.069
349.385
350.557
351.719
352.748
353.752
354.713
355.655
356.672
357.698
358.81
359.919
360.966
361.728
362.012
361.487
360.113
358.071
355.739
353.096
349.501
345.152
342.969
347.69
358.35
363.458
327.906
296.413
307.386
306.352
300.095
293.394
268.531
231.562
200.932
209.573
269.244
375.37
491.678
578.239
623.905
644.07
649.609
649.352
646.662
644.654
643.925
641.059
631.276
616.977
608.25
611.883
622.919
633.315
641.123
646.768
650.658
653.42
655.273
657.308
660.11
664.98
672.004
680.897
691.959
701.69
713.85
721.173
732.034
736.75
745.715
749.128
756.352
759.859
765.546
769.481
774.174
777.368
151.312
148.293
141.715
134.028
128.058
125.279
126.332
131.291
139.716
150.743
163.328
176.546
189.733
202.469
214.522
225.8
236.281
245.997
254.989
263.289
270.96
278.063
284.614
290.669
296.286
301.454
306.251
310.68
314.776
318.575
322.087
325.329
328.298
331.006
333.524
335.84
337.987
339.932
341.819
343.525
345.099
346.59
347.963
349.286
350.469
351.635
352.673
353.68
354.644
355.585
356.598
357.62
358.728
359.84
360.901
361.692
362.018
361.548
360.221
358.215
355.92
353.331
349.749
345.227
342.643
346.919
357.388
362.823
328.172
296.022
307.214
306.592
300.439
294.193
269.539
231.806
199.688
206.669
264.91
370.284
487.463
575.707
622.714
643.613
649.522
649.402
646.732
644.7
644
641.294
631.652
617.255
608.225
611.612
622.611
633.083
640.963
646.659
650.587
653.374
655.229
657.245
660.015
664.833
671.811
680.663
691.718
701.448
713.636
720.981
731.869
736.609
745.585
749.02
756.239
759.768
765.447
769.398
774.106
777.334
160.54
158.741
153.8
147.744
142.773
139.88
139.548
142.115
147.668
155.884
166.115
177.582
189.599
201.647
213.355
224.508
234.993
244.773
253.858
262.259
270.029
277.227
283.861
289.987
295.668
300.895
305.737
310.213
314.353
318.183
321.732
325.001
327.999
330.738
333.28
335.616
337.786
339.781
341.629
343.342
344.995
346.477
347.849
349.184
350.379
351.548
352.595
353.604
354.571
355.512
356.519
357.535
358.639
359.753
360.831
361.653
362.027
361.615
360.342
358.371
356.114
353.574
349.987
345.243
342.192
345.98
356.202
361.975
328.211
295.609
306.97
306.874
300.795
294.99
270.368
231.612
197.903
203.202
259.859
364.576
482.723
572.851
621.363
643.085
649.413
649.447
646.811
644.734
644.073
641.545
632.047
617.535
608.178
611.312
622.276
632.833
640.791
646.544
650.511
653.324
655.188
657.191
659.904
664.669
671.596
680.406
691.455
701.184
713.401
720.77
731.688
736.455
745.442
748.902
756.115
759.667
765.34
769.309
774.037
777.297
169.344
168.358
164.534
159.679
155.638
153.054
152.14
153.249
156.701
162.535
170.458
179.949
190.446
201.433
212.48
223.287
233.645
243.424
252.585
261.1
268.989
276.299
283.042
289.259
295.02
300.319
305.215
309.743
313.928
317.798
321.382
324.674
327.701
330.471
333.037
335.398
337.584
339.592
341.475
343.198
344.803
346.347
347.752
349.077
350.284
351.46
352.517
353.526
354.494
355.434
356.433
357.444
358.543
359.659
360.753
361.61
362.037
361.692
360.476
358.546
356.322
353.826
350.208
345.186
341.601
344.837
354.753
360.973
328.014
295.327
306.618
307.205
301.16
295.756
270.933
230.892
195.521
199.132
254.195
358.17
477.376
569.609
619.816
642.466
649.271
649.483
646.889
644.804
644.156
641.809
632.459
617.812
608.108
610.973
621.91
632.568
640.609
646.422
650.43
653.271
655.133
657.107
659.791
664.494
671.368
680.133
691.172
700.902
713.15
720.545
731.494
736.291
745.29
748.777
755.982
759.562
765.227
769.215
773.969
777.26
177.69
177.285
174.323
170.369
167.068
164.875
163.814
164.127
166.176
170.179
176.088
183.639
192.458
202.112
212.189
222.363
232.368
242.001
251.157
259.757
267.77
275.209
282.092
288.432
294.299
299.692
304.659
309.252
313.495
317.408
321.028
324.35
327.408
330.21
332.799
335.182
337.386
339.416
341.309
343.054
344.698
346.206
347.612
348.989
350.2
351.363
352.431
353.445
354.417
355.353
356.343
357.346
358.437
359.555
360.665
361.562
362.047
361.777
360.627
358.742
356.555
354.09
350.409
345.043
340.846
343.455
352.994
359.807
327.621
295.296
306.11
307.588
301.534
296.459
271.137
229.585
192.501
194.421
247.824
350.972
471.326
565.909
618.029
641.731
649.082
649.505
646.962
644.836
644.24
642.085
632.886
618.087
608.013
610.584
621.516
632.281
640.415
646.293
650.345
653.215
655.087
657.043
659.666
664.305
671.119
679.837
690.865
700.597
712.877
720.302
731.284
736.113
745.123
748.643
755.837
759.448
765.106
769.115
773.902
777.221
185.66
185.694
183.393
180.123
177.381
175.545
174.542
174.472
175.641
178.324
182.618
188.453
195.624
203.824
212.719
222.004
231.4
240.675
249.664
258.242
266.331
273.895
280.935
287.434
293.437
298.956
304.028
308.71
313.029
316.999
320.665
324.026
327.12
329.955
332.565
334.97
337.192
339.244
341.151
342.907
344.553
346.091
347.506
348.848
350.096
351.293
352.363
353.37
354.334
355.265
356.246
357.24
358.323
359.44
360.566
361.505
362.055
361.873
360.802
358.971
356.819
354.374
350.59
344.806
339.902
341.796
350.865
358.481
326.935
295.545
305.378
308.022
301.912
297.057
270.898
227.647
188.811
189.034
240.653
342.886
464.468
561.669
615.953
640.849
648.83
649.503
647.021
644.883
644.319
642.368
633.324
618.36
607.887
610.257
621.09
631.974
640.207
646.155
650.254
653.156
655.031
656.957
659.532
664.102
670.852
679.518
690.532
700.269
712.581
720.039
731.055
735.921
744.942
748.499
755.681
759.325
764.978
769.008
773.836
777.18
193.312
193.648
191.854
189.123
186.818
185.287
184.41
184.182
184.825
186.602
189.682
194.105
199.788
206.555
214.18
222.408
230.986
239.683
248.302
256.69
264.73
272.352
279.52
286.187
292.357
298.04
303.26
308.068
312.492
316.542
320.274
323.69
326.825
329.696
332.334
334.763
337.005
339.076
340.997
342.764
344.421
345.967
347.394
348.761
349.999
351.168
352.259
353.284
354.257
355.183
356.145
357.126
358.198
359.312
360.453
361.438
362.062
361.981
361.007
359.243
357.129
354.689
350.753
344.468
338.751
339.829
348.309
356.924
325.865
295.901
304.328
308.497
302.307
297.489
270.152
225.068
184.435
182.936
232.619
333.803
456.682
556.793
613.531
639.784
648.492
649.465
647.081
644.917
644.388
642.651
633.771
618.631
607.744
609.73
620.619
631.641
639.984
646.007
650.156
653.093
654.975
656.875
659.39
663.883
670.562
679.174
690.169
699.914
712.257
719.754
730.804
735.713
744.744
748.344
755.511
759.193
764.842
768.894
773.77
777.137
200.643
201.194
199.807
197.51
195.559
194.285
193.537
193.258
193.597
194.778
196.985
200.305
204.729
210.189
216.564
223.667
231.292
239.233
247.294
255.308
263.137
270.686
277.886
284.665
290.994
296.865
302.276
307.252
311.82
315.988
319.812
323.309
326.505
329.424
332.099
334.559
336.822
338.912
340.848
342.625
344.291
345.848
347.284
348.651
349.911
351.1
352.185
353.197
354.157
355.08
356.037
357.005
358.063
359.17
360.324
361.357
362.064
362.102
361.25
359.574
357.506
355.052
350.909
344.034
337.378
337.525
345.271
355.037
324.31
296.56
302.878
308.997
302.744
297.711
268.845
221.864
179.367
176.09
223.626
323.615
447.842
551.174
610.695
638.496
648.042
649.376
647.109
644.939
644.442
642.926
634.221
618.903
607.573
609.267
620.11
631.281
639.744
645.848
650.05
653.025
654.914
656.783
659.237
663.648
670.248
678.802
689.774
699.529
711.902
719.444
730.529
735.486
744.527
748.175
755.325
759.049
764.697
768.77
773.702
777.089
207.697
208.404
207.333
205.39
203.728
202.661
202.033
201.754
201.925
202.723
204.317
206.801
210.211
214.552
219.777
225.772
232.388
239.46
246.82
254.302
261.761
269.081
276.173
282.953
289.369
295.396
300.998
306.17
310.92
315.255
319.217
322.831
326.122
329.113
331.84
334.344
336.638
338.749
340.702
342.494
344.166
345.732
347.18
348.552
349.819
351.005
352.1
353.119
354.081
354.988
355.927
356.874
357.916
359.014
360.177
361.258
362.058
362.236
361.537
359.983
357.974
355.49
351.08
343.516
335.779
334.782
341.707
352.686
322.385
296.924
301.091
309.464
303.241
297.706
266.968
218.073
173.63
168.456
213.608
312.213
437.814
544.689
607.367
636.936
647.449
649.216
647.108
644.941
644.467
643.179
634.667
619.178
607.384
608.68
619.557
630.891
639.485
645.676
649.936
652.952
654.85
656.687
659.074
663.395
669.908
678.399
689.342
699.109
711.512
719.105
730.227
735.239
744.287
747.992
755.123
758.892
764.542
768.635
773.629
777.035
214.5
215.3
214.488
212.838
211.413
210.514
209.993
209.744
209.823
210.375
211.54
213.404
216.029
219.454
223.674
228.638
234.261
240.422
246.993
253.822
260.774
267.723
274.566
281.216
287.606
293.699
299.429
304.773
309.716
314.253
318.408
322.188
325.614
328.713
331.523
334.091
336.435
338.579
340.554
342.364
344.049
345.625
347.081
348.457
349.732
350.921
352.019
353.037
353.992
354.894
355.804
356.748
357.76
358.842
360.008
361.138
362.039
362.38
361.877
360.488
358.567
356.037
351.297
342.94
333.957
331.719
337.582
349.711
320.643
297.533
299.36
309.837
303.849
297.465
264.559
213.756
167.274
159.999
202.509
299.49
426.459
537.202
603.452
635.049
646.671
648.964
647.058
644.912
644.452
643.395
635.101
619.462
607.184
608.072
618.963
630.469
639.203
645.489
649.812
652.873
654.782
656.585
658.899
663.122
669.538
677.961
688.868
698.652
711.082
718.734
729.892
734.968
744.023
747.792
754.903
758.72
764.374
768.487
773.548
776.973
221.062
221.92
221.317
219.912
218.684
217.925
217.501
217.291
217.323
217.714
218.577
219.991
222.02
224.713
228.088
232.143
236.842
242.112
247.86
253.964
260.305
266.767
273.242
279.643
285.882
291.92
297.679
303.117
308.212
312.936
317.296
321.28
324.89
328.15
331.092
333.76
336.178
338.376
340.389
342.227
343.932
345.522
346.99
348.368
349.648
350.839
351.94
352.959
353.909
354.801
355.698
356.592
357.591
358.655
359.818
360.991
362.002
362.535
362.274
361.109
359.318
356.739
351.605
342.347
331.939
328.211
332.862
345.932
319.676
298.723
298.436
310.103
304.658
297.023
261.715
209.002
160.386
150.682
190.306
285.356
413.64
528.564
598.836
632.765
645.661
648.59
646.94
644.827
644.379
643.554
635.512
619.762
606.988
607.436
618.328
630.012
638.898
645.285
649.677
652.789
654.711
656.478
658.713
662.828
669.136
677.483
688.349
698.152
710.607
718.328
729.522
734.67
743.731
747.571
754.662
758.53
764.193
768.324
773.455
776.899
227.411
228.305
227.859
226.664
225.603
224.961
224.621
224.451
224.46
224.743
225.393
226.479
228.059
230.178
232.866
236.153
240.033
244.474
249.41
254.763
260.434
266.329
272.341
278.39
284.371
290.233
295.909
301.341
306.502
311.352
315.873
320.048
323.865
327.33
330.459
333.282
335.817
338.098
340.175
342.064
343.802
345.416
346.899
348.28
349.569
350.762
351.864
352.884
353.828
354.71
355.587
356.462
357.423
358.452
359.605
360.817
361.94
362.697
362.723
361.861
360.265
357.652
352.065
341.802
329.782
324.284
327.513
341.157
319.452
300.389
298.946
310.312
305.8
296.473
258.591
203.933
153.097
140.469
177.014
269.748
399.23
518.612
593.382
630.006
644.362
648.06
646.733
644.725
644.232
643.631
635.885
620.088
606.814
606.751
617.658
629.521
638.567
645.063
649.53
652.698
654.637
656.366
658.514
662.509
668.697
676.961
687.777
697.603
710.081
717.88
729.111
734.342
743.408
747.328
754.398
758.32
763.997
768.144
773.347
776.813
233.564
234.459
234.156
233.139
232.218
231.674
231.402
231.267
231.267
231.477
231.974
232.82
234.063
235.737
237.883
240.539
243.717
247.414
251.591
256.206
261.194
266.475
271.958
277.562
283.196
288.786
294.275
299.602
304.73
309.618
314.23
318.542
322.535
326.2
329.535
332.556
335.265
337.686
339.87
341.84
343.631
345.281
346.793
348.188
349.487
350.687
351.79
352.81
353.752
354.624
355.481
356.329
357.233
358.254
359.373
360.613
361.847
362.846
363.228
362.748
361.437
358.834
352.755
341.391
327.57
319.965
321.521
335.247
319.203
301.77
300.85
310.466
307.448
295.985
255.419
198.727
145.57
129.631
162.712
252.652
383.121
507.18
586.936
626.676
642.715
647.331
646.407
644.479
643.991
643.601
636.206
620.451
606.692
606.131
616.959
628.994
638.207
644.821
649.37
652.601
654.559
656.248
658.301
662.164
668.217
676.389
687.147
697.001
709.497
717.388
728.656
733.98
743.052
747.059
754.11
758.088
763.782
767.945
773.222
776.712
239.557
240.452
240.239
239.363
238.561
238.101
237.883
237.779
237.776
237.936
238.324
238.993
239.982
241.316
243.037
245.183
247.774
250.822
254.32
258.244
262.569
267.218
272.132
277.228
282.438
287.687
292.91
298.045
303.047
307.879
312.501
316.878
320.985
324.803
328.315
331.526
334.433
337.044
339.394
341.498
343.381
345.09
346.647
348.073
349.392
350.607
351.715
352.736
353.678
354.542
355.38
356.203
357.073
358.01
359.13
360.382
361.717
362.968
363.774
363.768
362.85
360.338
353.772
341.225
325.441
315.363
314.915
328.049
318.221
301.752
303.496
310.622
309.746
295.8
252.475
193.614
137.975
118.311
147.577
234.126
365.248
494.112
579.337
622.675
640.654
646.357
645.931
644.147
643.639
643.435
636.462
620.862
606.659
605.726
616.252
628.434
637.818
644.555
649.195
652.497
654.481
656.127
658.073
661.79
667.693
675.763
686.451
696.337
708.85
716.845
728.15
733.58
742.658
746.761
753.795
757.831
763.547
767.725
773.075
776.593
245.36
246.227
246.108
245.359
244.664
244.273
244.099
244.022
244.021
244.147
244.457
244.996
245.791
246.865
248.253
249.987
252.096
254.594
257.504
260.807
264.508
268.539
272.868
277.426
282.162
287.014
291.908
296.785
301.587
306.277
310.823
315.189
319.338
323.243
326.881
330.244
333.326
336.125
338.66
340.939
342.973
344.798
346.437
347.914
349.264
350.503
351.629
352.658
353.606
354.465
355.28
356.082
356.913
357.814
358.867
360.129
361.55
363.045
364.308
364.902
364.496
362.2
355.235
341.432
323.567
310.641
307.73
319.522
315.866
299.75
307.309
310.965
312.943
296.244
250.124
188.919
130.545
106.666
131.84
214.326
345.606
479.284
570.43
617.885
638.104
645.073
645.27
643.687
643.157
643.107
636.639
621.337
606.755
605.396
615.555
627.846
637.397
644.262
649.003
652.389
654.398
655.997
657.829
661.386
667.119
675.076
685.683
695.607
708.131
716.246
727.587
733.138
742.221
746.43
753.45
757.546
763.289
767.481
772.905
776.454
251.018
251.861
251.802
251.16
250.554
250.22
250.082
250.027
250.033
250.137
250.392
250.832
251.477
252.346
253.47
254.875
256.596
258.642
261.054
263.816
266.945
270.397
274.153
278.173
282.412
286.823
291.336
295.892
300.437
304.924
309.323
313.601
317.719
321.641
325.343
328.807
332.022
334.976
337.675
340.124
342.326
344.308
346.089
347.674
349.09
350.363
351.51
352.558
353.52
354.387
355.193
355.962
356.753
357.623
358.621
359.869
361.339
363.065
364.798
366.06
366.337
364.42
357.214
342.202
322.196
306.095
300.361
309.835
311.544
298.17
312.799
312.799
317.537
297.655
248.722
185.028
123.587
95.0359
115.824
193.524
324.288
462.621
560.085
612.167
634.972
643.381
644.38
643.064
642.519
642.602
636.721
621.887
607.041
605.089
614.903
627.237
636.941
643.938
648.791
652.263
654.316
655.865
657.568
660.948
666.493
674.322
684.835
694.8
707.33
715.583
726.96
732.648
741.738
746.062
753.072
757.229
763.005
767.211
772.708
776.291
256.534
257.34
257.328
256.777
256.247
255.96
255.853
255.82
255.833
255.925
256.138
256.5
257.025
257.735
258.653
259.8
261.21
262.891
264.885
267.183
269.806
272.733
275.955
279.454
283.194
287.139
291.231
295.419
299.656
303.898
308.099
312.226
316.242
320.114
323.814
327.322
330.619
333.684
336.515
339.108
341.462
343.597
345.528
347.255
348.79
350.156
351.361
352.434
353.407
354.285
355.093
355.854
356.621
357.439
358.399
359.586
361.142
363.009
365.193
367.175
368.288
366.952
359.761
343.722
321.572
302.079
293.187
299.539
305.153
299.443
320.966
319.331
324.081
300.796
248.69
182.467
117.544
83.875
99.9239
172.134
301.503
444.139
548.119
605.4
631.151
641.19
643.205
642.264
641.772
641.909
636.692
622.517
607.58
605.005
614.342
626.615
636.445
643.574
648.554
652.139
654.225
655.727
657.291
660.476
665.809
673.497
683.897
693.911
706.439
714.849
726.261
732.104
741.202
745.652
752.657
756.876
762.693
766.912
772.481
776.102
261.901
262.672
262.698
262.228
261.765
261.519
261.438
261.422
261.443
261.524
261.703
262.003
262.435
263.022
263.78
264.726
265.888
267.274
268.919
270.826
273.012
275.478
278.218
281.229
284.486
287.961
291.615
295.406
299.297
303.248
307.211
311.141
315
318.759
322.398
325.892
329.216
332.346
335.266
337.971
340.455
342.723
344.79
346.649
348.307
349.788
351.102
352.261
353.285
354.179
354.979
355.729
356.486
357.293
358.218
359.363
360.84
362.943
365.463
368.133
370.128
369.666
362.814
346.179
322.036
299.026
286.726
289.61
297.398
302.853
330.026
331.896
332.888
306.479
250.447
181.752
112.904
73.7767
84.7315
150.716
277.645
423.924
534.414
597.455
626.521
638.427
641.667
641.251
640.746
641.022
636.541
623.234
608.439
605.26
613.932
625.993
635.898
643.157
648.27
651.96
654.13
655.576
656.997
659.968
665.065
672.593
682.861
692.927
705.446
714.037
725.481
731.498
740.608
745.193
752.202
756.483
762.347
766.581
772.22
775.883
267.132
267.852
267.917
267.52
267.119
266.91
266.85
266.849
266.876
266.949
267.101
267.354
267.716
268.208
268.84
269.627
270.588
271.734
273.092
274.673
276.492
278.56
280.877
283.443
286.248
289.272
292.49
295.876
299.397
303.018
306.695
310.386
314.054
317.661
321.189
324.614
327.91
331.052
334.017
336.794
339.377
341.759
343.942
345.922
347.695
349.282
350.7
351.957
353.072
354.047
354.895
355.645
356.37
357.145
358.055
359.196
360.696
362.686
365.598
368.875
371.736
372.328
366.284
349.518
323.864
297.544
281.617
281.191
290.272
305.268
335.625
347.007
344.012
314.95
254.96
183.576
110.387
65.4457
70.8602
130.026
253.241
402.354
519.15
588.073
620.943
635.024
639.662
639.987
639.561
639.92
636.253
624.025
609.703
605.887
613.739
625.397
635.293
642.666
647.946
651.781
654.015
655.433
656.688
659.426
664.257
671.604
681.717
691.839
704.341
713.137
724.609
730.825
739.948
744.679
751.702
756.047
761.963
766.213
771.92
775.629
272.274
272.967
273.039
272.692
272.338
272.159
272.114
272.123
272.156
272.224
272.357
272.574
272.884
273.3
273.831
274.488
275.284
276.234
277.358
278.672
280.187
281.917
283.867
286.039
288.433
291.037
293.841
296.824
299.964
303.232
306.591
310.006
313.444
316.871
320.255
323.567
326.785
329.885
332.848
335.657
338.302
340.768
343.047
345.132
347.015
348.708
350.229
351.583
352.781
353.836
354.762
355.579
356.346
357.115
357.971
359.052
360.535
362.628
365.506
369.327
372.858
374.611
369.779
353.632
327.409
298.158
278.768
275.227
285.014
306.232
337.382
360.662
357.89
326.398
262.664
188.523
110.545
59.8189
59.2742
110.934
229.15
379.528
502.513
577.266
614.284
630.907
637.088
638.407
638.195
638.597
635.815
624.854
611.34
606.962
613.842
624.857
634.624
642.086
647.522
651.522
653.876
655.269
656.372
658.849
663.384
670.526
680.456
690.635
703.112
712.134
723.635
730.072
739.215
744.103
751.151
755.561
761.536
765.805
771.577
775.337
277.262
277.907
278.011
277.725
277.425
277.277
277.249
277.268
277.306
277.372
277.491
277.68
277.947
278.301
278.747
279.295
279.959
280.751
281.688
282.782
284.046
285.491
287.126
288.956
290.986
293.212
295.63
298.228
300.993
303.902
306.928
310.044
313.221
316.427
319.629
322.798
325.904
328.92
331.836
334.635
337.299
339.815
342.163
344.332
346.317
348.118
349.748
351.211
352.504
353.642
354.643
355.519
356.335
357.154
358.053
359.137
360.559
362.528
365.428
369.369
373.558
376.112
373.099
358.101
332.138
301.072
278.485
272.12
281.774
306.611
339.423
374.221
376.33
340.761
273.821
197.265
114.463
57.6335
50.7741
94.5987
206.272
356.705
484.744
565.074
606.441
625.985
633.9
636.418
636.61
637.079
635.176
625.644
613.255
608.493
614.235
624.409
633.902
641.402
646.993
651.185
653.685
655.081
656.003
658.237
662.445
669.353
679.07
689.303
701.745
711.019
722.544
729.231
738.398
743.454
750.542
755.02
761.06
765.352
771.186
775.001
282.191
282.768
282.882
282.642
282.385
282.264
282.252
282.282
282.326
282.393
282.503
282.669
282.9
283.202
283.58
284.043
284.602
285.268
286.053
286.967
288.022
289.229
290.599
292.138
293.853
295.745
297.816
300.059
302.467
305.026
307.718
310.521
313.413
316.368
319.352
322.338
325.299
328.208
331.045
333.794
336.439
338.964
341.35
343.579
345.647
347.551
349.29
350.868
352.279
353.522
354.618
355.576
356.45
357.304
358.22
359.316
360.781
362.781
365.538
369.325
373.567
376.778
375.222
362.562
337.976
306.134
280.508
271.386
279.349
305.863
342.958
387.744
400.94
358.425
288.11
209.468
122.705
60.256
46.6423
82.0373
185.871
334.555
465.988
551.569
597.363
620.151
629.981
633.915
634.775
635.236
634.258
626.3
615.288
610.344
614.888
624.076
633.147
640.603
646.415
650.711
653.436
654.868
655.686
657.601
661.443
668.082
677.549
687.83
700.226
709.776
721.326
728.286
737.493
742.723
749.867
754.418
760.528
764.848
770.741
774.615
287.026
287.604
287.708
287.494
287.265
287.158
287.153
287.187
287.233
287.297
287.396
287.543
287.744
288.005
288.331
288.728
289.205
289.769
290.43
291.197
292.082
293.094
294.244
295.54
296.988
298.592
300.355
302.278
304.355
306.582
308.949
311.439
314.035
316.719
319.461
322.234
325.017
327.783
330.51
333.184
335.781
338.281
340.671
342.933
345.059
347.047
348.885
350.573
352.104
353.465
354.679
355.76
356.736
357.66
358.618
359.713
361.128
363.046
365.67
369.179
373.235
376.645
376.02
365.641
343.805
313.315
285.769
273.329
278.776
303.64
344.788
395.729
428.674
378.536
306.521
225.699
135.463
67.6266
47.5371
74.7355
169.132
313.753
446.93
536.988
587.085
613.321
625.334
630.825
632.599
633.228
633.051
626.714
617.199
612.313
615.721
623.849
632.39
639.714
645.514
650.122
653.085
654.598
655.324
656.929
660.382
666.713
675.886
686.204
698.538
708.387
719.967
727.228
736.482
741.902
749.114
753.747
759.932
764.288
770.236
774.174
291.753
292.304
292.416
292.24
292.042
291.952
291.953
291.991
292.038
292.098
292.188
292.319
292.497
292.726
293.012
293.357
293.767
294.249
294.809
295.457
296.203
297.057
298.027
299.121
300.343
301.699
303.195
304.834
306.615
308.537
310.598
312.787
315.091
317.497
319.982
322.523
325.101
327.696
330.281
332.844
335.363
337.812
340.179
342.449
344.606
346.65
348.567
350.342
351.975
353.455
354.797
356.017
357.126
358.163
359.205
360.338
361.703
363.48
365.742
368.549
371.964
375.148
375.65
367.635
348.45
320.512
292.832
278.085
279.964
301.541
340.562
396.439
450.672
400.345
326.058
245.391
153.463
81.3907
55.0364
74.0272
157.813
295.795
428.412
521.671
575.727
605.463