/*--------------------------------*- C++ -*----------------------------------*\
| =========                 |                                                 |
| \\      /  F ield         | OpenFOAM: The Open Source CFD Toolbox           |
|  \\    /   O peration     | Version:  2412                                  |
|   \\  /    A nd           | Website:  www.openfoam.com                      |
|    \\/     M anipulation  |                                                 |
\*---------------------------------------------------------------------------*/
FoamFile
{
    version     2.0;
    format      ascii;
    arch        "LSB;label=32;scalar=64";
    class       volScalarField;
    location    "0.81";
    object      p;
}
// * * * * * * * * * * * * * * * * * * * * * * * * * * * * * * * * * * * * * //

dimensions      [0 2 -2 0 0 0 0];

internalField   nonuniform List<scalar> 
12600
(
-0.010557
-154.763
-204.838
-201.642
-189.234
-177.695
-167.575
-158.522
-150.318
-142.801
-135.846
-129.355
-123.256
-117.492
-112.017
-106.794
-101.79
-96.9819
-92.3463
-87.8649
-83.5218
-79.3032
-75.1971
-71.193
-67.2814
-63.4541
-59.7038
-56.0238
-52.4081
-48.8514
-45.3486
-41.8954
-38.4876
-35.1214
-31.7934
-28.5002
-25.2388
-22.0065
-18.8006
-15.6186
-12.4581
-9.31708
-6.19327
-3.08474
0.0104
3.09395
6.16765
9.23312
12.2919
15.3456
18.3956
21.4432
24.4898
27.5367
30.5849
33.6357
36.69
39.749
42.8134
45.8843
48.9621
52.0482
55.1422
58.2459
61.358
64.4808
67.6119
70.7545
73.9041
77.0656
80.232
83.4101
86.5896
89.7804
92.9674
96.165
99.3515
102.548
105.723
108.908
112.059
115.219
118.331
121.449
124.504
127.564
130.543
133.525
136.409
139.294
142.067
144.845
147.468
150.196
152.512
155.364
157.433
159.531
163.966
161.134
169.654
169.097
163.913
185.126
163.639
178.277
195.641
156.265
203.508
193.811
162.227
219.94
210.435
170.086
208.489
238.995
225.91
214.407
239.394
266.074
-24.2089
-123.903
-171.35
-181.004
-177.828
-171.124
-163.409
-155.672
-148.272
-141.285
-134.697
-128.472
-122.571
-116.957
-111.598
-106.465
-101.534
-96.7825
-92.1931
-87.7493
-83.4369
-79.2435
-75.1582
-71.1711
-67.2737
-63.4582
-59.7176
-56.0456
-52.4366
-48.8853
-45.3871
-41.9376
-38.5328
-35.169
-31.8428
-28.551
-25.2908
-22.0592
-18.8538
-15.6721
-12.5118
-9.37067
-6.24668
-3.13786
-0.0423252
3.0417
6.11593
9.18199
12.2414
15.2958
18.3465
21.3948
24.4421
27.4897
30.5387
33.5902
36.6453
39.7051
42.7702
45.8419
48.9205
52.0073
55.102
58.2064
61.3192
64.4428
67.5746
70.7178
73.8682
77.0303
80.1974
83.3762
86.5564
89.7479
92.9355
96.1338
99.321
102.518
105.694
108.879
112.032
115.191
118.304
121.424
124.479
127.54
130.519
133.502
136.387
139.273
142.047
144.825
147.449
150.178
152.494
155.347
157.422
159.506
163.962
161.12
169.619
169.127
163.858
185.118
163.683
178.158
195.711
156.272
203.362
193.956
162.184
219.752
210.595
170.139
208.272
238.918
225.994
214.402
239.24
265.983
-41.0555
-102.509
-145.306
-162.788
-166.144
-163.549
-158.441
-152.323
-145.922
-139.575
-133.418
-127.497
-121.817
-116.367
-111.133
-106.098
-101.243
-96.5521
-92.0112
-87.6066
-83.3261
-79.1587
-75.0947
-71.1253
-67.2424
-63.439
-59.7083
-56.0447
-52.4425
-48.897
-45.4034
-41.9578
-38.5561
-35.1949
-31.8707
-28.5806
-25.3217
-22.0911
-18.8864
-15.7052
-12.5452
-9.40428
-6.28031
-3.17141
-0.0756949
3.00859
6.08314
9.14958
12.2095
15.2643
18.3154
21.3643
24.4121
27.4603
30.5098
33.5619
36.6175
39.6778
42.7435
45.8158
48.8949
51.9823
55.0775
58.1825
61.2958
64.4199
67.5522
70.6959
73.8468
77.0094
80.177
83.3563
86.5369
89.7289
92.917
96.1157
99.3034
102.501
105.678
108.863
112.016
115.176
118.29
121.409
124.465
127.527
130.506
133.49
136.375
139.262
142.036
144.815
147.439
150.169
152.484
155.338
157.415
159.494
163.961
161.11
169.601
169.145
163.828
185.115
163.709
178.094
195.751
156.269
203.283
194.037
162.145
219.65
210.68
170.168
208.163
238.88
226.04
214.391
239.165
265.936
-49.0065
-88.809
-124.241
-144.779
-153.016
-154.344
-152.071
-147.889
-142.775
-137.288
-131.718
-126.207
-120.822
-115.59
-110.521
-105.611
-100.855
-96.2423
-91.7638
-87.4096
-83.17
-79.0362
-74.9999
-71.0533
-67.1894
-63.4017
-59.6843
-56.0316
-52.4387
-48.9009
-45.4138
-41.9736
-38.5764
-35.219
-31.8979
-28.6104
-25.3535
-22.1247
-18.9213
-15.7412
-12.582
-9.44164
-6.31809
-3.20944
-0.113859
2.97041
6.04504
9.11164
12.1718
15.2268
18.2783
21.3276
24.3758
27.4244
30.4744
33.527
36.5831
39.6439
42.7101
45.7829
48.8625
51.9504
55.0462
58.1517
61.2655
64.3901
67.5229
70.6672
73.8186
76.9817
80.1498
83.3296
86.5108
89.7033
92.8919
96.0912
99.2794
102.477
105.655
108.841
111.994
115.155
118.269
121.389
124.446
127.508
130.488
133.472
136.358
139.245
142.019
144.799
147.423
150.155
152.47
155.324
157.405
159.473
163.96
161.096
169.578
169.167
163.779
185.116
163.736
178
195.816
156.258
203.175
194.157
162.087
219.512
210.82
170.184
207.981
238.835
226.109
214.372
239.036
265.868
-54.0926
-80.5932
-107.517
-127.2
-138.329
-143.11
-143.772
-141.846
-138.372
-134.048
-129.299
-124.375
-119.414
-114.496
-109.661
-104.93
-100.311
-95.8068
-91.4141
-87.1286
-82.9447
-78.8563
-74.8571
-70.9412
-67.1027
-63.3362
-59.6365
-55.9986
-52.4181
-48.8907
-45.4123
-41.9794
-38.5884
-35.2361
-31.9194
-28.6354
-25.3815
-22.1551
-18.9538
-15.7752
-12.6173
-9.47798
-6.35519
-3.24709
-0.151883
2.93216
6.00671
9.07333
12.1336
15.1888
18.2406
21.2902
24.3388
27.3878
30.4382
33.4913
36.5479
39.6092
42.676
45.7493
48.8295
51.9179
55.0143
58.1203
61.2347
64.3599
67.4932
70.6381
73.79
76.9537
80.1223
83.3027
86.4845
89.6775
92.8667
96.0665
99.2553
102.454
105.632
108.818
111.972
115.134
118.248
121.369
124.426
127.489
130.47
133.455
136.341
139.229
142.004
144.784
147.409
150.142
152.456
155.312
157.395
159.456
163.958
161.081
169.555
169.189
163.733
185.12
163.76
177.909
195.882
156.238
203.071
194.276
162.016
219.376
210.958
170.187
207.806
238.798
226.176
214.343
238.916
265.803
-57.4152
-75.575
-95.1957
-112.085
-123.937
-130.874
-133.944
-134.206
-132.543
-129.624
-125.933
-121.795
-117.42
-112.94
-108.437
-103.96
-99.5382
-95.1872
-90.9154
-86.7263
-82.6198
-78.594
-74.646
-70.7721
-66.9684
-63.2306
-59.5548
-55.937
-52.3733
-48.8599
-45.3934
-41.9705
-38.5879
-35.2427
-31.9319
-28.653
-25.4032
-22.1803
-18.9819
-15.8058
-12.6498
-9.51209
-6.39058
-3.28349
-0.189045
2.89444
5.96859
9.03497
12.0951
15.1504
18.2022
21.2519
24.3008
27.3501
30.4008
33.4543
36.5113
39.5731
42.6403
45.7142
48.7948
51.8838
54.9807
58.0872
61.2022
64.3279
67.4618
70.6072
73.7597
76.924
80.0932
83.2742
86.4564
89.6501
92.8398
96.0403
99.2296
102.429
105.607
108.794
111.949
115.111
118.226
121.348
124.406
127.469
130.45
133.436
136.323
139.211
141.987
144.768
147.393
150.127
152.441
155.298
157.383
159.436
163.957
161.063
169.534
169.211
163.679
185.129
163.779
177.81
195.96
156.206
202.96
194.407
161.925
219.23
211.116
170.17
207.6
238.769
226.249
214.301
238.775
265.733
-59.0703
-72.0962
-86.4353
-100.142
-111.236
-118.957
-123.525
-125.505
-125.493
-124.017
-121.514
-118.32
-114.683
-110.777
-106.72
-102.59
-98.4402
-94.3035
-90.2017
-86.1482
-82.1506
-78.213
-74.3367
-70.5214
-66.7659
-63.0681
-59.4254
-55.8352
-52.2945
-48.8006
-45.3504
-41.9412
-38.5702
-35.2347
-31.9322
-28.6602
-25.4163
-22.1984
-19.0041
-15.8314
-12.6784
-9.54303
-6.42349
-3.318
-0.224847
2.85762
5.93099
8.99679
12.0565
15.1115
18.1632
21.2129
24.2619
27.3113
30.3623
33.416
36.4734
39.5356
42.6032
45.6775
48.7586
51.8481
54.9455
58.0525
61.168
64.2943
67.4287
70.5747
73.7278
76.8926
80.0624
83.244
86.4268
89.6211
92.8114
96.0125
99.2024
102.402
105.581
108.769
111.924
115.087
118.203
121.325
124.384
127.448
130.43
133.416
136.304
139.193
141.969
144.751
147.376
150.112
152.425
155.284
157.371
159.416
163.957
161.042
169.512
169.233
163.621
185.143
163.792
177.704
196.05
156.16
202.844
194.547
161.813
219.075
211.289
170.127
207.37
238.748
226.325
214.244
238.621
265.661
-59.5631
-69.34
-80.0729
-90.9337
-100.595
-108.153
-113.384
-116.468
-117.727
-117.513
-116.158
-113.956
-111.147
-107.918
-104.408
-100.718
-96.9214
-93.0688
-89.196
-85.3276
-81.4801
-77.6645
-73.888
-70.1546
-66.4665
-62.8244
-59.228
-55.6762
-52.1678
-48.7007
-45.2732
-41.883
-38.5281
-35.2061
-31.9151
-28.6528
-25.4172
-22.2061
-19.0177
-15.85
-12.7011
-9.5692
-6.45256
-3.34948
-0.25831
2.82254
5.89461
8.95938
12.0183
15.0727
18.124
21.1735
24.2223
27.2717
30.3227
33.3766
36.4342
39.4967
42.5646
45.6392
48.7208
51.8107
54.9086
58.0161
61.1321
64.2589
67.3939
70.5405
73.6941
76.8596
80.0299
83.2121
86.3955
89.5904
92.7814
95.9831
99.1737
102.374
105.554
108.742
111.898
115.062
118.178
121.301
124.36
127.425
130.408
133.395
136.284
139.173
141.95
144.733
147.358
150.096
152.408
155.269
157.357
159.396
163.957
161.018
169.492
169.256
163.555
185.165
163.798
177.589
196.153
156.098
202.721
194.696
161.675
218.907
211.479
170.055
207.105
238.739
226.406
214.17
238.448
265.583
-59.3399
-66.9161
-75.1627
-83.7322
-91.8347
-98.7274
-104.029
-107.677
-109.783
-110.538
-110.164
-108.882
-106.896
-104.38
-101.476
-98.2944
-94.9198
-91.4163
-87.8315
-84.2005
-80.549
-76.8952
-73.2525
-69.63
-66.0339
-62.4683
-58.9357
-55.4373
-51.9734
-48.5438
-45.1477
-41.7841
-38.4515
-35.1485
-31.8734
-28.6247
-25.4005
-22.1992
-19.019
-15.8583
-12.7152
-9.58834
-6.47589
-3.37632
-0.288079
2.79033
5.8604
8.92353
11.9811
15.0345
18.085
21.1338
24.1822
27.2313
30.2822
33.3361
36.3938
39.4564
42.5245
45.5995
48.6814
51.7717
54.8699
57.978
61.0945
64.2218
67.3573
70.5044
73.6586
76.8247
79.9956
83.1784
86.3625
89.558
92.7497
95.952
99.1433
102.344
105.525
108.714
111.871
115.035
118.152
121.276
124.336
127.401
130.385
133.373
136.262
139.152
141.931
144.714
147.34
150.079
152.39
155.253
157.342
159.372
163.957
160.99
169.474
169.278
163.482
185.196
163.794
177.463
196.272
156.016
202.59
194.853
161.507
218.725
211.686
169.948
206.801
238.744
226.491
214.075
238.251
265.502
-58.6446
-64.6311
-71.1086
-77.9203
-84.608
-90.6437
-95.6524
-99.4608
-102.044
-103.469
-103.858
-103.357
-102.118
-100.288
-97.9942
-95.3464
-92.4326
-89.323
-86.0728
-82.7249
-79.3122
-75.8596
-72.3862
-68.9061
-65.4299
-61.9652
-58.5176
-55.0908
-51.6873
-48.3088
-44.9558
-41.6286
-38.3269
-35.0501
-31.7972
-28.5673
-25.3591
-22.1714
-19.0028
-15.8518
-12.7171
-9.59726
-6.49078
-3.39625
-0.312259
2.76259
5.82968
8.89034
11.9459
14.9976
18.0468
21.0945
24.1421
27.1906
30.2411
33.2947
36.3522
39.4148
42.483
45.5581
48.6403
51.7309
54.8295
57.9379
61.0549
64.1827
67.3187
70.4664
73.6211
76.7878
79.9593
83.1428
86.3275
89.5237
92.716
95.9191
99.1111
102.313
105.494
108.684
111.842
115.007
118.125
121.249
124.31
127.376
130.361
133.349
136.239
139.131
141.91
144.694
147.32
150.061
152.371
155.238
157.326
159.354
163.959
160.958
169.457
169.299
163.401
185.238
163.779
177.326
196.408
155.912
202.45
195.017
161.302
218.529
211.912
169.799
206.45
238.765
226.581
213.957
238.031
265.414
-57.6076
-62.4004
-67.5785
-73.0575
-78.5568
-83.7222
-88.2527
-91.953
-94.7285
-96.563
-97.4985
-97.6152
-97.0126
-95.7994
-94.0825
-91.9591
-89.5137
-86.8173
-83.9283
-80.894
-77.7523
-74.5331
-71.2602
-67.952
-64.6229
-61.2841
-57.944
-54.609
-51.284
-47.9723
-44.6764
-41.3979
-38.1377
-34.8963
-31.6737
-28.4696
-25.2834
-22.1145
-18.9618
-15.8245
-12.7015
-9.59154
-6.49348
-3.4061
-0.328172
2.74155
5.80432
8.86136
11.9139
14.9631
18.0102
21.0563
24.1025
27.1499
30.1996
33.2525
36.3096
39.372
42.4401
45.5152
48.5974
51.6882
54.7871
57.8959
61.0132
64.1414
67.278
70.4261
73.5814
76.7487
79.9209
83.105
86.2904
89.4873
92.6803
95.8842
99.0769
102.279
105.462
108.652
111.811
114.977
118.095
121.221
124.282
127.35
130.335
133.324
136.216
139.108
141.887
144.672
147.3
150.042
152.351
155.221
157.308
159.324
163.962
160.92
169.444
169.319
163.309
185.293
163.75
177.176
196.564
155.782
202.303
195.188
161.056
218.321
212.158
169.604
206.047
238.806
226.676
213.818
237.783
265.318
-56.3057
-60.185
-64.3838
-68.8439
-73.3762
-77.7454
-81.7333
-85.1685
-87.9345
-89.9693
-91.2599
-91.8338
-91.7446
-91.0621
-89.8653
-88.234
-86.2429
-83.9589
-81.4395
-78.7338
-75.8821
-72.918
-69.8684
-66.7552
-63.5961
-60.4051
-57.1934
-53.9698
-50.7412
-47.5129
-44.2891
-41.0728
-37.8663
-34.6712
-31.4884
-28.3186
-25.1619
-22.0182
-18.8873
-15.7687
-12.6616
-9.5653
-6.47894
-3.40156
-0.332141
2.73034
5.78695
8.83878
11.8869
14.9324
17.9764
21.02
24.0641
27.1098
30.1581
33.21
36.2663
39.328
42.3957
45.4706
48.5527
51.6435
54.7426
57.8516
60.9692
64.0978
67.2348
70.3835
73.5393
76.7072
79.88
83.0648
86.2509
89.4486
92.6423
95.847
99.0405
102.244
105.427
108.619
111.778
114.945
118.064
121.191
124.253
127.321
130.308
133.298
136.19
139.083
141.864
144.65
147.278
150.021
152.33
155.204
157.289
159.303
163.966
160.877
169.433
169.337
163.207
185.362
163.706
177.011
196.743
155.621
202.148
195.368
160.761
218.1
212.43
169.359
205.586
238.868
226.777
213.656
237.506
265.214
-54.7999
-57.9689
-61.4114
-65.0794
-68.8327
-72.5113
-75.9648
-79.0598
-81.6864
-83.7652
-85.2522
-86.1374
-86.4387
-86.1918
-85.4466
-84.2617
-82.6974
-80.8119
-78.6587
-76.2852
-73.7326
-71.0357
-68.224
-65.322
-62.3497
-59.3236
-56.2573
-53.1616
-50.0453
-46.9157
-43.7783
-40.6376
-37.4971
-34.3596
-31.227
-28.1008
-24.982
-21.8713
-18.7689
-15.6749
-12.5892
-9.51132
-6.44082
-3.37708
-0.31938
2.73306
5.78109
8.82559
11.8675
14.9077
17.9473
20.9871
24.0281
27.0712
30.1174
33.1676
36.2225
39.2832
42.3501
45.4244
48.5061
51.5968
54.6957
57.8048
60.9226
64.0516
67.1889
70.3381
73.4944
76.6629
79.8363
83.0218
86.2086
89.4071
92.6016
95.8072
99.0015
102.206
105.39
108.582
111.743
114.91
118.031
121.159
124.222
127.291
130.279
133.27
136.164
139.057
141.839
144.626
147.255
150
152.307
155.186
157.267
159.278
163.971
160.828
169.427
169.354
163.092
185.449
163.644
176.832
196.947
155.425
201.987
195.559
160.409
217.874
212.729
169.06
205.065
238.954
226.887
213.474
237.2
265.098
-53.1414
-55.7466
-58.5915
-61.6331
-64.7583
-67.8533
-70.8161
-73.55
-75.9639
-77.9791
-79.539
-80.6114
-81.1884
-81.2803
-80.9111
-80.1171
-78.942
-77.432
-75.633
-73.5881
-71.3366
-68.9134
-66.3487
-63.6685
-60.895
-58.0464
-55.1384
-52.1837
-49.1928
-46.1745
-43.1358
-40.0826
-37.0195
-33.9503
-30.878
-27.8049
-24.7328
-21.663
-18.5965
-15.5339
-12.4756
-9.42162
-6.3719
-3.32621
-0.284139
2.75478
5.79115
8.82563
11.8589
14.8918
17.9251
20.9596
23.996
27.0354
30.0784
33.126
36.1788
39.2378
42.3033
45.3766
48.4576
51.5477
54.6464
57.7554
60.8732
64.0023
67.1399
70.2894
73.4463
76.6153
79.7893
82.9756
86.1631
89.3624
92.5578
95.7643
98.9596
102.165
105.35
108.544
111.705
114.874
117.996
121.124
124.189
127.259
130.248
133.241
136.135
139.03
141.813
144.601
147.231
149.977
152.283
155.167
157.243
159.254
163.976
160.77
169.428
169.368
162.963
185.554
163.562
176.635
197.178
155.189
201.822
195.762
159.996
217.645
213.063
168.706
204.484
239.06
227.007
213.276
236.87
264.97
-51.3586
-53.5103
-55.8762
-58.4158
-61.032
-63.6393
-66.1686
-68.5529
-70.7217
-72.6067
-74.15
-75.31
-76.0629
-76.4013
-76.3297
-75.8647
-75.0327
-73.8666
-72.4021
-70.6756
-68.7222
-66.5745
-64.2621
-61.8116
-59.2458
-56.5848
-53.8454
-51.0422
-48.1872
-45.2907
-42.361
-39.4053
-36.4293
-33.4378
-30.4348
-27.4234
-24.4062
-21.3851
-18.3618
-15.3374
-12.3128
-9.28857
-6.26499
-3.24223
-0.220251
2.80112
5.8222
8.84338
11.8652
14.8881
17.9128
20.9399
23.9701
27.0042
30.0427
33.0865
36.1361
39.1925
42.2559
45.3275
48.4072
51.4964
54.5943
57.7028
60.8204
63.9495
67.0872
70.237
73.3942
76.5638
79.7384
82.9254
86.1137
89.3139
92.5102
95.7177
98.914
102.121
105.306
108.502
111.664
114.834
117.957
121.087
124.153
127.225
130.215
133.209
136.105
139.001
141.785
144.574
147.206
149.954
152.258
155.148
157.217
159.229
163.981
160.71
169.431
169.38
162.82
185.682
163.458
176.422
197.439
154.91
201.655
195.983
159.515
217.42
213.435
168.3
203.843
239.188
227.14
213.069
236.511
264.827
-49.4723
-51.2561
-53.2337
-55.3662
-57.5669
-59.7679
-61.9221
-63.9844
-65.9031
-67.6223
-69.0899
-70.2628
-71.11
-71.6127
-71.763
-71.5621
-71.0213
-70.1598
-69.0025
-67.5771
-65.9126
-64.0376
-61.9794
-59.7635
-57.4126
-54.9474
-52.3858
-49.7434
-47.0337
-44.2682
-41.4565
-38.607
-35.7266
-32.8211
-29.8953
-26.9533
-23.9982
-21.0329
-18.0595
-15.0797
-12.0949
-9.10607
-6.114
-3.1192
-0.121982
2.87752
5.87933
8.88358
11.8905
14.9005
17.9139
20.9312
23.953
26.9797
30.012
33.0505
36.0956
39.1482
42.2085
45.2776
48.3552
51.4427
54.5394
57.647
60.764
63.8927
67.0303
70.1802
73.3376
76.5076
79.6828
82.8705
86.0595
89.2607
92.4579
95.6666
98.864
102.072
105.259
108.455
111.619
114.791
117.916
121.047
124.115
127.188
130.179
133.175
136.072
138.97
141.755
144.545
147.178
149.928
152.231
155.128
157.188
159.203
163.988
160.64
169.441
169.389
162.658
185.833
163.328
176.191
197.733
154.583
201.488
196.225
158.968
217.204
213.85
167.85
203.152
239.331
227.281
212.86
236.134
264.667
-47.4997
-48.9825
-50.642
-52.441
-54.2996
-56.1619
-57.995
-59.7696
-61.4487
-62.9888
-64.3456
-65.4795
-66.358
-66.957
-67.2608
-67.2607
-66.9563
-66.3549
-65.4706
-64.322
-62.9308
-61.3201
-59.5134
-57.5336
-55.4023
-53.1395
-50.7636
-48.2907
-45.7351
-43.1094
-40.4245
-37.6896
-34.9128
-32.101
-29.2597
-26.394
-23.5078
-20.6046
-17.6872
-14.7578
-11.8183
-8.87027
-5.91478
-2.95277
0.0151317
2.98846
5.96696
8.9505
11.9391
14.9328
17.9319
20.9367
23.9474
26.9646
29.9886
33.0199
36.0589
39.1063
42.1621
45.2275
48.302
51.387
54.4817
57.5878
60.7035
63.8315
66.9685
70.1182
73.2756
76.4459
79.6215
82.8098
85.9996
89.2017
92.4
95.6098
98.8085
102.018
105.206
108.404
111.57
114.743
117.869
121.003
124.072
127.147
130.14
133.137
136.036
138.936
141.723
144.515
147.149
149.901
152.203
155.106
157.158
159.177
163.996
160.563
169.456
169.391
162.492
185.993
163.177
175.945
198.055
154.21
201.326
196.493
158.352
217.004
214.307
167.371
202.419
239.476
227.438
212.675
235.74
264.489
-45.4541
-46.6887
-48.0853
-49.6084
-51.1835
-52.7624
-54.3221
-55.844
-57.3024
-58.6641
-59.893
-60.955
-61.8194
-62.4612
-62.8608
-63.004
-62.8823
-62.4941
-61.8439
-60.9419
-59.8021
-58.4412
-56.8778
-55.1312
-53.2205
-51.1644
-48.9802
-46.6842
-44.2911
-41.8138
-39.2642
-36.6525
-33.9875
-31.277
-28.5277
-25.7452
-22.9345
-20.0995
-17.2439
-14.3704
-11.4816
-8.57923
-5.66506
-2.74033
0.193956
3.13702
6.08831
9.04744
12.0142
14.9884
17.9701
20.9594
23.9565
26.9616
29.9749
32.9969
36.0278
39.0682
42.118
45.1782
48.2484
51.3298
54.4214
57.5251
60.6389
63.7654
66.9014
70.0505
73.2075
76.3778
79.5534
82.7423
85.9327
89.1358
92.335
95.5462
98.7461
101.957
105.147
108.347
111.514
114.69
117.818
120.953
124.024
127.102
130.097
133.096
135.997
138.899
141.688
144.481
147.117
149.872
152.172
155.082
157.126
159.149
164.004
160.479
169.478
169.391
162.309
186.181
162.999
175.692
198.411
153.79
201.169
196.788
157.687
216.829
214.804
166.88
201.665
239.611
227.606
212.512
235.337
264.287
-43.3457
-44.3745
-45.5522
-46.8453
-48.1838
-49.5248
-50.8519
-52.1541
-53.4138
-54.6062
-55.7024
-56.674
-57.4942
-58.1392
-58.5885
-58.8256
-58.8376
-58.6165
-58.1599
-57.4703
-56.5546
-55.4234
-54.0897
-52.5683
-50.875
-49.0259
-47.0369
-44.9234
-42.6995
-40.3786
-37.9726
-35.4923
-32.9474
-30.3464
-27.6967
-25.0048
-22.2763
-19.5161
-16.7283
-13.9164
-11.0833
-8.23166
-5.36342
-2.48035
0.416201
3.32509
6.24546
9.17663
12.1181
15.0696
18.0309
21.0018
23.9825
26.9729
29.9732
32.9837
36.0043
39.0357
42.0777
45.1311
48.1954
51.2718
54.3592
57.4593
60.5702
63.6944
66.8285
69.9763
73.1324
76.3022
79.4777
82.6667
85.8575
89.0614
92.2615
95.4741
98.6753
101.888
105.08
108.282
111.451
114.629
117.759
120.897
123.97
127.051
130.048
133.05
135.953
138.857
141.649
144.445
147.082
149.84
152.139
155.056
157.094
159.119
164.011
160.39
169.495
169.388
162.116
186.388
162.805
175.419
198.784
153.34
201.026
197.116
156.956
216.683
215.326
166.413
200.89
239.72
227.786
212.391
234.933
264.057
-41.1828
-42.0399
-43.0343
-44.1343
-45.274
-46.4145
-47.5438
-48.656
-49.7395
-50.7758
-51.7423
-52.6156
-53.3732
-53.9939
-54.4584
-54.7495
-54.8527
-54.7564
-54.4533
-53.9404
-53.2185
-52.2924
-51.1697
-49.8605
-48.3766
-46.7309
-44.937
-43.0086
-40.9588
-38.8004
-36.5452
-34.2043
-31.7876
-29.3041
-26.762
-24.1683
-21.5294
-18.8508
-16.1373
-13.3929
-10.6213
-7.82551
-5.00807
-2.17116
0.683434
3.5542
6.43994
9.33967
12.2526
15.1783
18.1161
21.0659
24.0274
27.0007
29.9854
32.982
35.9903
39.0107
42.0428
45.0876
48.1443
51.2141
54.2958
57.3911
60.4978
63.6186
66.7499
69.8955
73.0498
76.2185
79.3932
82.582
85.7728
88.9773
92.1781
95.3918
98.5943
101.809
105.002
108.207
111.378
114.559
117.691
120.833
123.909
126.992
129.992
132.998
135.903
138.811
141.605
144.404
147.043
149.805
152.104
155.025
157.06
159.087
164.017
160.298
169.53
169.385
161.915
186.607
162.592
175.141
199.177
152.871
200.882
197.459
156.269
216.555
215.867
165.985
200.114
239.78
227.975
212.325
234.538
263.794
-38.9724
-39.6856
-40.5255
-41.4625
-42.4341
-43.4049
-44.3656
-45.314
-46.2427
-47.138
-47.9821
-48.7562
-49.4417
-50.0205
-50.4753
-50.7899
-50.9495
-50.9412
-50.7549
-50.3836
-49.824
-49.0756
-48.1415
-47.0271
-45.7401
-44.2899
-42.687
-40.9429
-39.0692
-37.0773
-34.9786
-32.7836
-30.5024
-28.1442
-25.7174
-23.2298
-20.688
-18.0982
-15.4658
-12.7956
-10.0915
-7.35725
-4.59587
-1.81003
0.998068
3.82649
6.6737
9.53835
12.4194
15.316
18.2274
21.1532
24.0929
27.0464
30.0133
32.9937
35.9873
38.9945
42.0149
45.0492
48.0965
51.158
54.2323
57.3213
60.4225
63.5386
66.6658
69.8081
72.9597
76.1263
79.2994
82.4873
85.6775
88.8821
92.0831
95.2978
98.5014
101.718
104.913
108.12
111.293
114.477
117.613
120.758
123.836
126.924
129.927
132.937
135.846
138.758
141.554
144.358
146.999
149.766
152.066
154.99
157.027
159.051
164.019
160.207
169.551
169.383
161.713
186.828
162.377
174.858
199.577
152.397
200.75
197.842
155.573
216.449
216.404
165.63
199.348
239.767
228.171
212.356
234.167
263.492
-36.7199
-37.3121
-38.0213
-38.8198
-39.6487
-40.4752
-41.292
-42.0993
-42.8927
-43.6621
-44.3935
-45.0718
-45.6819
-46.2087
-46.6372
-46.9529
-47.1419
-47.1911
-47.0894
-46.8276
-46.3993
-45.8005
-45.0303
-44.0901
-42.9837
-41.7169
-40.2972
-38.733
-37.034
-35.21
-33.2709
-31.2267
-29.087
-26.8608
-24.5567
-22.1824
-19.7453
-17.2518
-14.7077
-12.1183
-9.48832
-6.82176
-4.1222
-1.39279
1.36382
4.14527
6.94965
9.77525
12.6207
15.4848
18.3667
21.2655
24.1806
27.1117
30.0582
33.0201
35.9969
38.9889
41.9955
45.0173
48.0533
51.1048
54.1701
57.2511
60.3452
63.4551
66.5769
69.7147
72.8623
76.0258
79.1963
82.3823
85.5711
88.775
91.9756
95.1908
98.395
101.613
104.81
108.019
111.195
114.382
117.52
120.669
123.752
126.844
129.851
132.866
135.778
138.696
141.495
144.306
146.948
149.722
152.024
154.948
156.996
159.01
164.015
160.124
169.565
169.384
161.517
187.035
162.179
174.579
199.96
151.952
200.628
198.227
154.877
216.344
216.905
165.389
198.611
239.655
228.37
212.508
233.834
263.145
-34.4303
-34.9204
-35.5185
-36.1988
-36.9058
-37.6091
-38.3028
-38.9884
-39.6641
-40.322
-40.9513
-41.5398
-42.0753
-42.5453
-42.9374
-43.2388
-43.4369
-43.5196
-43.4756
-43.2949
-42.9694
-42.4929
-41.8613
-41.0729
-40.1281
-39.0294
-37.7811
-36.3889
-34.8599
-33.2018
-31.423
-29.5323
-27.5382
-25.4494
-23.2741
-21.02
-18.6945
-16.3044
-13.8558
-11.3544
-8.80519
-6.21281
-3.58122
-0.914039
1.78565
4.51507
7.27191
10.0541
12.8598
15.6877
18.5365
21.4051
24.2927
27.1986
30.1221
33.0631
36.0208
38.9953
41.986
44.9934
48.0164
51.056
54.1106
57.182
60.2674
63.3696
66.4845
69.6162
72.7586
75.9176
79.0842
82.2673
85.4535
88.6558
91.8552
95.0701
98.2742
101.493
104.691
107.903
111.08
114.271
117.412
120.566
123.652
126.749
129.761
132.781
135.699
138.623
141.426
144.245
146.888
149.671
151.978
154.898
156.968
158.961
164.002
160.056
169.549
169.391
161.338
187.21
162.024
174.308
200.296
151.578
200.515
198.594
154.258
216.217
217.334
165.309
197.923
239.414
228.573
212.813
233.561
262.745
-32.1076
-32.5114
-33.0147
-33.5936
-34.1962
-34.794
-35.3819
-35.9627
-36.5359
-37.0957
-37.6334
-38.1394
-38.6036
-39.0159
-39.366
-39.643
-39.8359
-39.9339
-39.9262
-39.8029
-39.5551
-39.1754
-38.6579
-37.9984
-37.1948
-36.2466
-35.1553
-33.9239
-32.5569
-31.0598
-29.439
-27.7016
-25.8551
-23.9072
-21.8654
-19.7371
-17.5296
-15.2495
-12.9032
-10.4966
-8.03506
-5.52349
-2.96627
-0.367445
2.26952
4.94142
7.64557
10.3795
13.1411
15.9286
18.7405
21.5753
24.432
27.3097
30.2074
33.1247
36.0608
39.0157
41.9884
44.9793
47.9872
51.0132
54.0553
57.1153
60.1904
63.2834
66.3899
69.5141
72.6497
75.803
78.9644
82.1432
85.3257
88.5252
91.7222
94.9358
98.1389
101.358
104.556
107.769
110.949
114.143
117.287
120.444
123.534
126.638
129.654
132.681
135.604
138.536
141.343
144.173
146.818
149.611
151.926
154.836
156.946
158.902
163.977
160.015
169.518
169.409
161.187
187.326
161.945
174.047
200.542
151.324
200.394
198.899
153.798
216.029
217.653
165.444
197.313
239.014
228.775
213.304
233.37
262.286
-29.7555
-30.0859
-30.5082
-31
-31.5126
-32.0196
-32.5166
-33.0069
-33.491
-33.9647
-34.421
-34.852
-35.2497
-35.6058
-35.9118
-36.1585
-36.3366
-36.4365
-36.4486
-36.3635
-36.1723
-35.8671
-35.4409
-34.8883
-34.205
-33.3886
-32.4379
-31.3537
-30.1379
-28.7938
-27.3257
-25.739
-24.0396
-22.2338
-20.3284
-18.3301
-16.2455
-14.0812
-11.8435
-9.5382
-7.17088
-4.74672
-2.27037
0.253806
2.82198
5.43058
8.07655
10.7571
13.4697
16.2123
18.983
21.7801
24.6022
27.4483
30.317
33.2079
36.1197
39.0523
42.0046
44.9769
47.9678
50.9781
54.0059
57.0529
60.1161
63.1982
66.2947
69.41
72.5374
75.6834
78.8383
82.0114
85.1889
88.3843
91.5777
94.7888
97.9898
101.208
104.405
107.62
110.8
113.996
117.142
120.305
123.398
126.507
129.528
132.564
135.491
138.433
141.245
144.088
146.735
149.541
151.869
154.76
156.93
158.83
163.937
160.015
169.444
169.441
161.077
187.353
161.98
173.79
200.651
151.248
200.233
199.099
153.523
215.731
217.828
165.877
196.818
238.427
228.984
214.009
233.284
261.764
-27.377
-27.6452
-27.9978
-28.4144
-28.8494
-29.278
-29.6966
-30.1086
-30.5153
-30.9136
-31.2979
-31.6615
-31.9981
-32.3009
-32.5629
-32.7765
-32.9338
-33.0265
-33.0461
-32.9841
-32.8323
-32.5826
-32.2278
-31.7617
-31.1788
-30.4751
-29.6478
-28.6955
-27.6179
-26.4163
-25.0931
-23.6516
-22.0961
-20.4315
-18.6633
-16.7972
-14.8392
-12.7952
-10.6712
-8.47306
-6.2061
-3.87565
-1.48652
0.956686
3.44989
5.9892
8.57125
11.1929
13.8513
16.5441
19.269
22.0241
24.8077
27.6184
30.4547
33.3158
36.2003
39.1079
42.0373
44.9886
47.9601
50.9528
53.9644
56.9966
60.046
63.1157
66.2007
69.3056
72.4234
75.5607
78.7076
81.8738
85.0449
88.2349
91.4235
94.6308
97.8285
101.045
104.241
107.454
110.634
113.832
116.98
120.146
123.243
126.358
129.383
132.427
135.36
138.313
141.129
143.988
146.637
149.458
151.806
154.668
156.923
158.743
163.878
160.072
169.312
169.493
161.023
187.251
162.17
173.518
200.567
151.419
199.98
199.16
153.514
215.278
217.834
166.666
196.488
237.626
229.186
214.951
233.325
261.178
-24.975
-25.1903
-25.483
-25.8344
-26.2021
-26.563
-26.9137
-27.2579
-27.5973
-27.9297
-28.2504
-28.554
-28.8351
-29.0883
-29.3079
-29.4876
-29.6207
-29.7002
-29.7187
-29.6686
-29.5424
-29.3327
-29.0323
-28.6346
-28.1338
-27.5247
-26.8034
-25.9668
-25.0132
-23.9419
-22.7535
-21.4494
-20.0322
-18.5053
-16.8727
-15.1391
-13.3093
-11.3887
-9.38254
-7.29624
-5.13501
-2.90404
-0.60813
1.748
4.16012
6.6241
9.13634
11.6934
14.2922
16.9299
19.6041
22.3126
25.0532
27.8245
30.6245
33.4523
36.3063
39.1859
42.0894
45.0171
47.9669
50.9397
53.9328
56.9483
59.9822
63.0377
66.1097
69.2025
72.3092
75.4365
78.5741
81.7321
84.8955
88.0789
91.2615
94.4638
97.657
100.87
104.063
107.276
110.454
113.653
116.802
119.97
123.07
126.19
129.22
132.271
135.21
138.175
140.995
143.872
146.526
149.36
151.739
154.555
156.925
158.638
163.796
160.204
169.099
169.571
161.041
186.981
162.565
173.204
200.248
151.932
199.573
199.074
153.872
214.627
217.656
167.868
196.374
236.596
229.38
216.137
233.508
260.529
-22.5521
-22.7223
-22.9635
-23.2583
-23.5675
-23.8695
-24.1614
-24.4469
-24.7278
-25.0025
-25.2671
-25.5173
-25.7486
-25.9564
-26.1361
-26.2825
-26.39
-26.4526
-26.4641
-26.4177
-26.3068
-26.1246
-25.8644
-25.5198
-25.0847
-24.5536
-23.9217
-23.185
-22.3404
-21.386
-20.3206
-19.1441
-17.8575
-16.4626
-14.962
-13.3589
-11.6572
-9.8611
-7.9752
-6.00429
-3.95311
-1.82655
0.370733
2.6341
4.95926
7.34201
9.77855
12.2652
14.7987
17.376
19.9943
22.6512
25.3443
28.0717
30.8313
33.622
36.4417
39.2899
42.1644
45.0656
47.9909
50.9413
53.9137
56.9103
59.9267
62.9663
66.0233
69.1027
72.1967
75.3126
78.4395
81.5879
84.7424
87.9181
91.0934
94.2896
97.4773
100.686
103.875
107.085
110.262
113.46
116.609
119.779
122.88
126.005
129.039
132.099
135.041
138.02
140.844
143.739
146.401
149.243
151.669
154.42
156.933
158.523
163.689
160.429
168.781
169.682
161.161
186.506
163.223
172.837
199.684
152.898
198.953
198.878
154.734
213.744
217.288
169.738
196.538
235.345
229.566
217.55
233.835
259.828
-20.1107
-20.2425
-20.4391
-20.6847
-20.943
-21.1939
-21.4347
-21.669
-21.8989
-22.1232
-22.3387
-22.5416
-22.7282
-22.8949
-23.0376
-23.1522
-23.234
-23.2779
-23.2785
-23.2301
-23.1268
-22.9626
-22.7313
-22.4269
-22.0435
-21.5755
-21.0178
-20.3658
-19.6157
-18.7643
-17.8093
-16.7493
-15.5838
-14.3133
-12.9387
-11.4622
-9.88622
-8.21401
-6.44912
-4.59555
-2.65744
-0.639162
1.45497
3.62055
5.85337
8.1493
10.5044
12.915
15.3776
17.8889
20.4459
23.0461
25.6866
28.3654
31.0802
33.8295
36.611
39.4241
42.2663
45.1377
48.0354
50.9607
53.9099
56.8851
59.8818
62.9034
65.9437
69.0079
72.0877
75.1905
78.3053
81.4428
84.5872
87.7539
90.9208
94.11
97.291
100.495
103.679
106.886
110.059
113.257
116.404
119.576
122.678
125.807
128.843
131.911
134.858
137.848
140.68
143.589
146.268
149.107
151.599
154.263
156.943
158.41
163.554
160.752
168.346
169.836
161.428
185.802
164.192
172.446
198.916
154.41
198.08
198.649
156.245
212.606
216.747
172.08
197.027
233.904
229.724
219.149
234.296
259.087
-17.6531
-17.7521
-17.9102
-18.1129
-18.3267
-18.533
-18.7293
-18.9192
-19.1047
-19.2849
-19.4572
-19.6183
-19.7652
-19.8947
-20.0037
-20.0885
-20.1453
-20.1698
-20.1574
-20.1031
-20.0019
-19.8484
-19.6372
-19.3626
-19.0192
-18.6016
-18.1047
-17.5235
-16.8539
-16.0919
-15.2344
-14.279
-13.224
-12.0686
-10.8126
-9.45674
-8.00231
-6.45135