/*--------------------------------*- C++ -*----------------------------------*\
| =========                 |                                                 |
| \\      /  F ield         | OpenFOAM: The Open Source CFD Toolbox           |
|  \\    /   O peration     | Version:  2412                                  |
|   \\  /    A nd           | Website:  www.openfoam.com                      |
|    \\/     M anipulation  |                                                 |
\*---------------------------------------------------------------------------*/
FoamFile
{
    version     2.0;
    format      ascii;
    arch        "LSB;label=32;scalar=64";
    class       volScalarField;
    location    "0.085";
    object      Co;
}
// * * * * * * * * * * * * * * * * * * * * * * * * * * * * * * * * * * * * * //

dimensions      [0 0 0 0 0 0 0];

internalField   nonuniform List<scalar> 
12600
(
0.0550399
0.0239068
0.0132074
0.00839111
0.00558827
0.0037157
0.0023663
0.00135028
0.000620792
0.000563257
0.000971726
0.00129891
0.00156104
0.00177075
0.00193749
0.00206871
0.00217038
0.00224731
0.00230343
0.00234201
0.00236575
0.00237691
0.00237741
0.00236889
0.00235272
0.00233014
0.00230216
0.00226964
0.00223337
0.00219402
0.00215213
0.00210827
0.00206286
0.0020162
0.00196874
0.00192069
0.00187224
0.00182379
0.00177538
0.00172721
0.00167951
0.00163225
0.00158565
0.00153977
0.00149467
0.00145044
0.00140709
0.00136471
0.00132328
0.00128288
0.0012435
0.00120515
0.00116785
0.00113159
0.00109641
0.00106226
0.00102919
0.000997135
0.000966115
0.000936094
0.000907091
0.000879064
0.000852009
0.000825892
0.000800703
0.000776414
0.000753018
0.000730483
0.000708792
0.00068792
0.000667851
0.000648554
0.000630005
0.000612174
0.00059504
0.000578577
0.000562762
0.000547568
0.000532972
0.000518945
0.000505479
0.000492536
0.00048011
0.000468158
0.000456693
0.000445648
0.000435059
0.000424844
0.00041506
0.000405599
0.000396554
0.000387784
0.000379403
0.000371271
0.000363471
0.000355945
0.000348632
0.000341708
0.000334795
0.000328488
0.000321901
0.000316214
0.00030991
0.00030473
0.00029871
0.000293799
0.00028818
0.000283345
0.000278279
0.000273534
0.000268938
0.000264352
0.000259792
0.000255502
0.000250304
0.000246265
0.000238732
0.000233685
0.00021864
0.000197411
0.0995604
0.0595009
0.0380428
0.025669
0.0177423
0.0122485
0.00822512
0.00516643
0.00278434
0.00195014
0.0026689
0.00358883
0.00433603
0.00494184
0.00543005
0.0058199
0.00612708
0.0063644
0.00654241
0.00666997
0.00675451
0.00680231
0.00681873
0.00680839
0.0067752
0.00672259
0.00665354
0.00657054
0.00647584
0.00637148
0.00625901
0.00613999
0.00601586
0.00588744
0.00575588
0.00562215
0.00548664
0.0053505
0.00521416
0.00507787
0.00494259
0.00480819
0.00467528
0.00454417
0.00441491
0.00428796
0.0041632
0.00404108
0.00392145
0.00380459
0.00369051
0.0035792
0.00347082
0.0033653
0.00326279
0.00316318
0.00306658
0.00297281
0.002882
0.002794
0.00270892
0.0026266
0.00254707
0.00247021
0.00239602
0.00232442
0.00225539
0.00218886
0.00212476
0.00206304
0.00200364
0.00194649
0.0018915
0.00183861
0.00178774
0.00173883
0.00169181
0.0016466
0.00160314
0.00156135
0.0015212
0.00148259
0.00144549
0.00140978
0.0013755
0.00134247
0.00131076
0.00128017
0.00125084
0.00122247
0.00119531
0.00116899
0.00114378
0.00111935
0.00109585
0.00107321
0.00105114
0.00103031
0.00100939
0.000990437
0.000970421
0.000953384
0.000934095
0.000918675
0.00090011
0.000885576
0.000868188
0.000853824
0.000838246
0.000823931
0.00080998
0.000795884
0.000782165
0.000769018
0.000752918
0.000741369
0.000716453
0.000704163
0.000656951
0.000606062
0.122826
0.085639
0.0600998
0.0428282
0.0307705
0.0220181
0.0154413
0.0103613
0.00635727
0.00417131
0.00453846
0.00593102
0.00707573
0.00801477
0.00877991
0.00939756
0.00988981
0.0102749
0.0105683
0.0107828
0.0109297
0.0110182
0.0110566
0.0110519
0.0110101
0.0109366
0.0108361
0.0107124
0.0105692
0.0104097
0.0102364
0.0100517
0.00985796
0.00965667
0.00944948
0.00923829
0.00902357
0.00880714
0.00858998
0.00837222
0.00815568
0.0079401
0.00772643
0.00751535
0.00730678
0.00710172
0.0068998
0.00670191
0.00650779
0.00631787
0.00613226
0.00595091
0.00577417
0.00560189
0.00543439
0.00527141
0.00511322
0.00495951
0.00481054
0.00466604
0.00452622
0.00439083
0.00425992
0.00413331
0.00401102
0.0038929
0.00377897
0.00366907
0.00356313
0.00346106
0.00336277
0.00326813
0.00317702
0.00308931
0.00300491
0.00292371
0.0028456
0.00277045
0.00269816
0.00262861
0.00256175
0.00249741
0.00243556
0.002376
0.00231876
0.00226359
0.00221058
0.00215944
0.00211033
0.00206286
0.00201732
0.00197324
0.00193089
0.00188994
0.00185039
0.00181244
0.0017752
0.00174028
0.00170487
0.00167316
0.00163913
0.00161074
0.00157773
0.00155218
0.00152018
0.00149618
0.00146613
0.00144228
0.00141556
0.00139143
0.00136781
0.00134359
0.0013205
0.00129801
0.00126982
0.00125179
0.00120466
0.00119003
0.00110055
0.00103197
0.13311
0.102012
0.0768291
0.0575844
0.0430143
0.0318685
0.0232023
0.0163518
0.0108575
0.00698461
0.00655428
0.00829122
0.0097396
0.0109437
0.011937
0.0127482
0.0134026
0.0139211
0.014322
0.0146209
0.0148312
0.0149648
0.0150316
0.0150408
0.0149999
0.0149158
0.0147946
0.0146416
0.0144612
0.0142578
0.0140349
0.0137956
0.0135431
0.0132794
0.0130068
0.0127278
0.0124432
0.0121554
0.0118659
0.0115749
0.0112847
0.0109952
0.0107077
0.0104231
0.0101413
0.00986388
0.00959019
0.00932157
0.00905766
0.00879908
0.00854606
0.0082985
0.00805697
0.00782124
0.00759182
0.00736833
0.00715119
0.00693999
0.0067351
0.00653618
0.00634353
0.00615683
0.00597615
0.00580125
0.0056322
0.0054688
0.00531108
0.00515883
0.00501198
0.00487038
0.00473395
0.00460248
0.00447583
0.00435382
0.00423634
0.00412324
0.00401437
0.00390955
0.00380866
0.00371154
0.0036181
0.00352815
0.0034416
0.00335822
0.00327802
0.0032007
0.00312631
0.00305456
0.00298553
0.00291889
0.00285475
0.00279282
0.00273307
0.00267551
0.00261956
0.0025662
0.00251339
0.00246431
0.00241397
0.00236941
0.00232089
0.00228107
0.00223381
0.00219807
0.00215201
0.00211852
0.00207516
0.00204173
0.00200335
0.00196914
0.00193554
0.0019007
0.00186799
0.00183581
0.00179445
0.00177114
0.00169768
0.00168584
0.00153743
0.00146408
0.13539
0.110387
0.0877632
0.068752
0.053278
0.0407985
0.030718
0.0225253
0.0158143
0.010273
0.0087897
0.0106544
0.012309
0.0137048
0.0148718
0.0158373
0.016626
0.0172594
0.0177566
0.0181343
0.0184072
0.0185883
0.018689
0.0187193
0.0186884
0.0186039
0.0184732
0.0183023
0.0180968
0.0178618
0.0176015
0.0173197
0.0170204
0.0167061
0.0163794
0.0160438
0.0157001
0.0153513
0.0149994
0.0146446
0.0142899
0.0139351
0.0135819
0.0132316
0.0128841
0.0125412
0.0122024
0.0118692
0.0115414
0.0112197
0.0109044
0.0105955
0.0102937
0.00999881
0.00971144
0.00943116
0.00915852
0.00889305
0.00863525
0.00838471
0.00814181
0.00790619
0.00767796
0.00745683
0.00724291
0.00703598
0.00683608
0.00664297
0.00645656
0.00627669
0.00610324
0.00593598
0.00577473
0.00561926
0.00546945
0.00532514
0.00518612
0.00505218
0.00492315
0.00479889
0.00467923
0.00456399
0.00445299
0.00434603
0.00424301
0.00414371
0.004048
0.00395576
0.00386679
0.00378105
0.00369823
0.00361849
0.00354115
0.00346701
0.00339441
0.00332567
0.00325697
0.00319374
0.00312808
0.00307069
0.00300724
0.00295599
0.00289402
0.00284806
0.00278746
0.00274442
0.00268724
0.00264415
0.00259366
0.00254917
0.00250528
0.00245945
0.00241682
0.00237486
0.00231917
0.00229211
0.00218879
0.00218462
0.00195445
0.00188921
0.132907
0.112986
0.0936167
0.0761213
0.0609741
0.0481387
0.037363
0.0283392
0.0207722
0.014409
0.0117971
0.0130129
0.0147778
0.0162903
0.0175735
0.0186495
0.0195402
0.0202657
0.0208439
0.0212912
0.0216224
0.0218508
0.0219882
0.0220453
0.0220317
0.0219559
0.0218259
0.0216484
0.0214295
0.021175
0.0208898
0.020578
0.0202444
0.0198918
0.0195233
0.0191429
0.0187519
0.0183534
0.0179499
0.0175418
0.0171327
0.0167225
0.0163129
0.0159058
0.015501
0.0151007
0.0147044
0.014314
0.0139291
0.0135508
0.0131794
0.012815
0.0124584
0.0121095
0.011769
0.0114364
0.0111126
0.0107968
0.0104898
0.0101912
0.00990131
0.00961981
0.00934686
0.00908214
0.0088258
0.00857762
0.00833766
0.00810566
0.00788151
0.00766504
0.00745613
0.00725451
0.00705995
0.00687221
0.00669118
0.00651665
0.00634839
0.00618616
0.00602974
0.00587901
0.00573373
0.00559375
0.00545877
0.00532866
0.0052032
0.00508225
0.00496548
0.00485301
0.00474426
0.00463964
0.00453818
0.00444082
0.00434584
0.0042553
0.00416589
0.00408195
0.00399708
0.00391988
0.00383857
0.0037685
0.00368976
0.00362715
0.00355011
0.00349394
0.00341844
0.00336581
0.00329446
0.00324162
0.00317865
0.00312376
0.00306925
0.00301223
0.00295928
0.00290773
0.00283645
0.00280736
0.00267148
0.00267867
0.00233932
0.0022935
0.127758
0.11177
0.0955371
0.0800876
0.0660243
0.0535745
0.0427333
0.0333786
0.02534
0.0184422
0.0148389
0.0153656
0.0171521
0.0187087
0.0200495
0.0211898
0.0221467
0.0229369
0.0235763
0.0240796
0.0244607
0.0247322
0.0249058
0.024992
0.0250005
0.0249402
0.024819
0.0246444
0.0244225
0.0241596
0.0238611
0.0235313
0.0231754
0.0227968
0.0223988
0.0219857
0.0215592
0.0211227
0.0206792
0.0202291
0.0197763
0.019321
0.0188652
0.0184109
0.0179581
0.0175094
0.0170641
0.0166246
0.0161905
0.0157629
0.0153424
0.0149291
0.0145241
0.0141271
0.0137391
0.0133597
0.0129896
0.0126283
0.0122766
0.011934
0.0116011
0.0112774
0.0109632
0.0106581
0.0103624
0.0100758
0.0097984
0.00952996
0.00927036
0.00901942
0.00877704
0.00854288
0.00831672
0.00809829
0.00788748
0.00768408
0.00748781
0.00729842
0.00711565
0.00693941
0.00676938
0.00660545
0.00644722
0.00629463
0.00614729
0.00600525
0.00586788
0.00573564
0.00560743
0.00548433
0.00536443
0.00524982
0.00513728
0.00503068
0.0049244
0.00482561
0.0047244
0.00463358
0.00453636
0.00445389
0.00435958
0.00428581
0.00419345
0.00412713
0.00403654
0.00397428
0.00388856
0.0038259
0.00375019
0.00368482
0.00361938
0.00355113
0.00348735
0.00342669
0.0033385
0.00330907
0.003139
0.00315934
0.00269403
0.00266333
0.121248
0.108214
0.0946733
0.0813211
0.0686896
0.0570896
0.0466517
0.0373861
0.02923
0.0220865
0.0177711
0.0177126
0.0194453
0.0209807
0.0223235
0.0234817
0.0244669
0.0252916
0.0259684
0.0265098
0.0269279
0.0272341
0.027439
0.0275526
0.0275843
0.0275427
0.0274356
0.0272704
0.0270535
0.0267913
0.0264891
0.0261518
0.0257845
0.025391
0.0249748
0.0245406
0.0240902
0.0236271
0.0231548
0.0226738
0.0221882
0.0216985
0.0212069
0.0207155
0.0202246
0.0197367
0.0192516
0.0187717
0.0182967
0.0178278
0.0173659
0.0169111
0.0164645
0.0160262
0.015597
0.0151767
0.014766
0.0143646
0.0139732
0.0135915
0.0132201
0.0128585
0.012507
0.0121654
0.0118339
0.0115122
0.0112005
0.0108986
0.0106063
0.0103235
0.0100501
0.00978561
0.00952995
0.00928279
0.00904402
0.00881344
0.00859073
0.00837564
0.00816787
0.00796736
0.00777373
0.00758693
0.00740642
0.00723226
0.00706386
0.00690152
0.00674419
0.00659288
0.00644573
0.00630475
0.00616678
0.0060355
0.0059056
0.0057835
0.00566041
0.00554732
0.0054297
0.00532578
0.00521248
0.00511807
0.00500803
0.00492336
0.0048156
0.00473922
0.00463354
0.00456162
0.0044615
0.00438901
0.00430037
0.00422456
0.00414788
0.00406854
0.00399327
0.00392425
0.00381781
0.00378941
0.00358494
0.00361787
0.00306269
0.00298665
0.114153
0.103329
0.0919754
0.0805307
0.0693978
0.0588713
0.0491305
0.0402599
0.0322727
0.0251372
0.0204825
0.0200515
0.0216727
0.023133
0.024429
0.0255621
0.0265385
0.0273663
0.0280545
0.028613
0.0290514
0.0293795
0.0296066
0.0297417
0.0297934
0.0297696
0.0296779
0.0295253
0.029318
0.0290623
0.0287635
0.0284265
0.0280564
0.0276573
0.0272326
0.0267871
0.026323
0.0258437
0.025353
0.0248515
0.0243435
0.0238297
0.0233123
0.0227936
0.0222742
0.0217567
0.0212409
0.0207294
0.0202221
0.0197204
0.019225
0.0187364
0.0182557
0.017783
0.0173194
0.0168646
0.0164196
0.0159839
0.0155585
0.015143
0.014738
0.0143433
0.0139592
0.0135853
0.0132219
0.012869
0.0125267
0.0121947
0.0118729
0.0115612
0.0112595
0.0109674
0.0106847
0.0104111
0.0101466
0.00989084
0.0096436
0.00940458
0.00917345
0.00895023
0.00873444
0.00852611
0.00832456
0.00813001
0.0079416
0.00775999
0.00758359
0.00741411
0.00724873
0.00709072
0.00693522
0.00678803
0.00664114
0.00650432
0.00636459
0.00623797
0.00610396
0.00598767
0.00585824
0.00575248
0.00562669
0.00553149
0.00540845
0.00532209
0.00520156
0.00511993
0.00500556
0.00492328
0.00482159
0.0047355
0.00464723
0.00455715
0.00446961
0.00439316
0.00426731
0.00424069
0.00400318
0.00404585
0.00344546
0.00325401
0.106901
0.0977512
0.08814
0.0783312
0.0686073
0.0592076
0.0503087
0.0420239
0.03441
0.0274814
0.0228979
0.022374
0.0238459
0.0251916
0.026402
0.0274737
0.0284081
0.0292093
0.0298829
0.0304359
0.0308757
0.03121
0.0314467
0.0315936
0.031658
0.0316473
0.0315682
0.0314273
0.0312305
0.0309834
0.0306916
0.0303596
0.0299923
0.0295939
0.0291678
0.0287187
0.028249
0.0277621
0.0272616
0.0267487
0.0262272
0.0256983
0.0251643
0.0246275
0.0240886
0.0235502
0.0230126
0.022478
0.0219469
0.0214203
0.0208995
0.0203847
0.0198773
0.0193775
0.0188864
0.0184038
0.0179308
0.017467
0.0170134
0.0165697
0.0161366
0.0157139
0.0153019
0.0149004
0.0145097
0.0141297
0.0137606
0.0134023
0.0130545
0.0127173
0.0123904
0.0120737
0.0117668
0.0114695
0.0111816
0.0109031
0.0106336
0.0103727
0.0101202
0.00987604
0.00963979
0.00941155
0.00919045
0.00897695
0.00876983
0.00857021
0.00837584
0.00818934
0.00800663
0.00783264
0.00766032
0.00749825
0.00733487
0.00718433
0.00702826
0.0068891
0.00673884
0.00661109
0.00646561
0.00634922
0.00620784
0.00610253
0.00596454
0.00586832
0.00573337
0.00564203
0.0055137
0.00542174
0.00530695
0.00521088
0.00511065
0.00501038
0.00490969
0.00482684
0.00468071
0.00465586
0.00438816
0.00443602
0.0038065
0.00349993
0.0997041
0.0918538
0.0836315
0.0751914
0.0667225
0.0584039
0.050386
0.0427825
0.0356686
0.0290864
0.024977
0.0246667
0.0259695
0.0271761
0.0282743
0.0292572
0.030123
0.0308722
0.0315077
0.0320338
0.0324558
0.0327795
0.0330114
0.0331577
0.0332248
0.033219
0.0331463
0.0330126
0.0328233
0.0325836
0.0322986
0.0319727
0.0316105
0.031216
0.0307926
0.0303446
0.0298747
0.029386
0.0288822
0.0283646
0.0278367
0.0273002
0.026757
0.0262096
0.0256589
0.0251075
0.0245557
0.0240058
0.0234584
0.0229146
0.0223756
0.021842
0.021315
0.020795
0.0202831
0.0197792
0.0192845
0.0187987
0.0183228
0.0178566
0.0174008
0.0169553
0.0165205
0.0160961
0.0156826
0.01528
0.0148884
0.0145076
0.0141377
0.0137785
0.01343
0.0130919
0.0127638
0.0124457
0.0121373
0.0118386
0.0115491
0.0112688
0.010997
0.0107341
0.0104793
0.010233
0.00999408
0.00976329
0.00953896
0.00932283
0.0091118
0.00890964
0.00871069
0.00852199
0.00833373
0.00815799
0.00797878
0.00781572
0.00764375
0.00749321
0.00732699
0.00718884
0.00702755
0.00690136
0.00674477
0.00662978
0.00647742
0.00637144
0.00622272
0.00612171
0.00597982
0.00587845
0.00575051
0.00564492
0.00553236
0.00542264
0.00530789
0.00521972
0.0050529
0.00502904
0.00473515
0.0047828
0.00413866
0.00378516
0.092645
0.0858349
0.0787363
0.0714363
0.0640582
0.0567298
0.0495691
0.0426758
0.0361265
0.0299755
0.0267093
0.0269135
0.0280411
0.0290975
0.0300683
0.0309452
0.0317235
0.0324017
0.0329802
0.0334613
0.0338484
0.0341459
0.0343584
0.0344911
0.0345494
0.0345385
0.0344637
0.0343301
0.0341426
0.0339058
0.0336245
0.0333026
0.0329444
0.0325539
0.032134
0.0316889
0.0312213
0.030734
0.0302305
0.0297124
0.0291828
0.0286436
0.0280967
0.0275445
0.0269879
0.0264295
0.0258697
0.0253108
0.0247534
0.0241988
0.0236481
0.0231019
0.0225616
0.0220276
0.021501
0.0209819
0.0204714
0.0199693
0.0194767
0.0189934
0.0185202
0.018057
0.0176042
0.0171618
0.0167301
0.0163091
0.0158992
0.0155001
0.0151119
0.0147345
0.0143678
0.0140116
0.0136657
0.0133297
0.0130037
0.0126876
0.0123809
0.0120836
0.011795
0.0115155
0.0112443
0.010982
0.0107272
0.0104809
0.0102411
0.0100101
0.0097839
0.00956763
0.00935369
0.00915175
0.00894855
0.00876057
0.00856629
0.00839211
0.00820479
0.00804423
0.00786245
0.0077151
0.00753843
0.00740329
0.0072321
0.00710787
0.00694195
0.00682632
0.00666467
0.00655413
0.00639913
0.0062888
0.0061477
0.00603325
0.00590799
0.00578978
0.00566014
0.00556768
0.0053803
0.00535615
0.00504064
0.00508291
0.00443622
0.00408494
0.0857412
0.0797895
0.073619
0.067276
0.0608397
0.0543984
0.0480399
0.0418454
0.0358832
0.0302696
0.028124
0.0290976
0.0300537
0.0309591
0.0317974
0.0325595
0.0332396
0.0338343
0.0343427
0.0347654
0.0351043
0.0353623
0.035543
0.0356504
0.0356888
0.0356628
0.0355766
0.0354348
0.0352418
0.0350017
0.0347187
0.0343965
0.0340389
0.0336495
0.0332314
0.0327882
0.0323225
0.031837
0.031335
0.0308179
0.0302888
0.0297496
0.029202
0.0286484
0.0280897
0.0275284
0.026965
0.0264016
0.025839
0.0252784
0.0247209
0.0241672
0.0236187
0.0230758
0.0225397
0.0220105
0.0214892
0.0209758
0.0204714
0.0199759
0.0194901
0.0190139
0.0185477
0.0180916
0.017646
0.017211
0.0167867
0.0163732
0.0159705
0.0155784
0.0151971
0.0148262
0.0144656
0.0141149
0.0137742
0.0134435
0.0131224
0.0128106
0.0125076
0.0122139
0.0119286
0.0116525
0.0113837
0.011124
0.0108705
0.0106265
0.0103867
0.010158
0.00993041
0.00971684
0.00949983
0.00930117
0.00909269
0.00890894
0.00870694
0.0085378
0.00834104
0.00818573
0.0079943
0.00785109
0.00766615
0.00753309
0.00735467
0.00722955
0.0070559
0.00693617
0.00676852
0.00664993
0.00649566
0.00637322
0.00623501
0.00610942
0.0059643
0.00586858
0.00566125
0.00563545
0.00530292
0.00533561
0.00469574
0.00435248
0.0789803
0.0737567
0.0683696
0.0628404
0.0572194
0.0515662
0.0459444
0.0404167
0.0350462
0.0312055
0.0303637
0.0311963
0.0319996
0.0327605
0.0334678
0.0341131
0.0346903
0.0351952
0.0356257
0.0359813
0.0362628
0.036472
0.0366114
0.0366841
0.0366936
0.0366435
0.0365376
0.0363799
0.036174
0.0359238
0.035633
0.035305
0.0349431
0.0345508
0.0341309
0.0336866
0.0332206
0.0327351
0.0322333
0.0317167
0.031188
0.0306492
0.0301017
0.0295479
0.0289888
0.0284266
0.0278619
0.0272967
0.0267318
0.0261683
0.0256074
0.0250498
0.0244967
0.0239487
0.0234069
0.0228714
0.0223434
0.0218227
0.0213106
0.0208069
0.0203124
0.0198271
0.0193515
0.0188857
0.01843
0.0179845
0.0175496
0.0171252
0.0167114
0.016308
0.0159153
0.0155329
0.0151607
0.0147983
0.0144458
0.0141033
0.0137702
0.0134466
0.0131317
0.0128262
0.012529
0.0122412
0.0119605
0.0116894
0.011424
0.011169
0.0109171
0.0106778
0.010438
0.0102145
0.00998487
0.00977718
0.00955547
0.00936376
0.00914786
0.00897164
0.00876064
0.00859861
0.00839326
0.00824281
0.00804521
0.00790374
0.00771401
0.0075797
0.00739503
0.00726669
0.00708685
0.00696096
0.00679361
0.00666427
0.00651303
0.00638134
0.00622046
0.00612257
0.00589633
0.00586782
0.00552247
0.00554287
0.00491663
0.00458562
0.0723394
0.0677481
0.0630357
0.058209
0.0532988
0.048345
0.0433918
0.038484
0.0337921
0.0319049
0.0325527
0.0332253
0.0338802
0.0345031
0.0350836
0.0356137
0.0360873
0.0364999
0.0368488
0.0371326
0.0373513
0.0375057
0.0375976
0.0376291
0.0376031
0.0375224
0.0373904
0.0372103
0.0369855
0.0367193
0.036415
0.0360758
0.0357047
0.0353049
0.0348789
0.0344297
0.0339598
0.0334715
0.0329673
0.0324491
0.0319191
0.0313793
0.0308312
0.0302767
0.0297171
0.0291541
0.0285887
0.0280226
0.0274565
0.0268916
0.0263289
0.0257693
0.0252138
0.024663
0.0241179
0.0235789
0.0230468
0.0225217
0.0220047
0.0214958
0.0209957
0.0205044
0.0200224
0.0195499
0.0190872
0.0186344
0.0181919
0.0177596
0.0173377
0.016926
0.0165247
0.0161336
0.0157525
0.0153811
0.0150194
0.0146676
0.0143251
0.0139921
0.0136676
0.0133525
0.0130455
0.0127481
0.0124575
0.012177
0.0119015
0.0116372
0.0113751
0.0111269
0.0108763
0.0106445
0.0104035
0.0101885
0.00995454
0.00975647
0.00952759
0.00934574
0.00912138
0.00895382
0.00873561
0.0085787
0.0083697
0.0082203
0.00802055
0.00787754
0.0076828
0.00754677
0.00735518
0.00722324
0.00704305
0.00690804
0.00674398
0.00660764
0.00643112
0.00633224
0.00608847
0.00605677
0.00570225
0.00570917
0.00510122
0.0047851
0.065794
0.0617631
0.0576427
0.0534309
0.0491466
0.0448157
0.0404707
0.0361495
0.0339359
0.034095
0.0346409
0.0351783
0.0356977
0.0361908
0.0366498
0.0370677
0.0374388
0.0377588
0.0380247
0.0382345
0.0383874
0.0384837
0.0385243
0.0385106
0.0384449
0.0383293
0.0381667
0.0379598
0.0377116
0.037425
0.0371029
0.0367482
0.0363637
0.0359523
0.0355164
0.0350587
0.0345815
0.034087
0.0335775
0.0330549
0.0325213
0.0319783
0.0314276
0.0308708
0.0303093
0.0297447
0.0291778
0.0286102
0.0280427
0.0274764
0.0269124
0.0263512
0.025794
0.0252414
0.0246942
0.0241529
0.0236182
0.0230904
0.0225703
0.022058
0.0215542
0.021059
0.0205729
0.0200958
0.0196283
0.0191705
0.0187227
0.018285
0.0178572
0.0174395
0.017032
0.0166345
0.0162468
0.0158687
0.0155
0.0151411
0.0147914
0.014451
0.014119
0.0137963
0.0134815
0.0131764
0.0128778
0.0125896
0.0123058
0.0120341
0.0117631
0.0115078
0.0112477
0.0110094
0.0107582
0.0105373
0.0102923
0.0100894
0.00984852
0.0096624
0.00942575
0.00925374
0.00902389
0.00886126
0.00864224
0.00848549
0.008277
0.00812607
0.00792215
0.00777964
0.00757679
0.00744025
0.00724768
0.00710839
0.00693204
0.0067926
0.00660101
0.00650242
0.00624275
0.00620802
0.00584735
0.00584091
0.00525422
0.00495426
0.0593202
0.0557949
0.0522025
0.0485368
0.0448082
0.0410334
0.0372305
0.0355052
0.0358463
0.0362513
0.0366648
0.0370704
0.0374615
0.0378313
0.0381735
0.0384823
0.0387527
0.0389806
0.039163
0.0392976
0.0393831
0.0394192
0.0394062
0.0393449
0.0392367
0.0390836
0.0388877
0.0386512
0.0383768
0.0380668
0.037724
0.0373509
0.0369501
0.0365242
0.0360755
0.0356064
0.0351191
0.0346157
0.0340984
0.0335688
0.033029
0.0324806
0.0319252
0.0313642
0.030799
0.0302311
0.0296613
0.029091
0.0285211
0.0279526
0.0273865
0.0268233
0.0262642
0.0257097
0.0251606
0.0246172
0.0240804
0.0235504
0.0230279
0.0225132
0.0220067
0.0215087
0.0210196
0.0205394
0.0200686
0.0196072
0.0191556
0.0187139
0.0182821
0.0178601
0.017448
0.0170459
0.0166534
0.0162702
0.0158963
0.0155321
0.0151769
0.0148309
0.014493
0.0141645
0.0138435
0.0135324
0.0132274
0.0129332
0.0126425
0.0123649
0.0120865
0.0118255
0.0115573
0.0113139
0.0110537
0.0108285
0.0105734
0.010367
0.0101153
0.00992609
0.00967834
0.00950284
0.00926269
0.00909508
0.00886744
0.0087041
0.00848805
0.00833028
0.00811795
0.00797047
0.00775693
0.00761736
0.00741312
0.00727101
0.00708321
0.00694223
0.00673656
0.00663953
0.00636578
0.00632866
0.0059643
0.00594555
0.0053817
0.00509827
0.0528947
0.0498328
0.0467198
0.0435482
0.0403202
0.0380035
0.0374613
0.0377463
0.0380448
0.0383412
0.0386314
0.0389135
0.0391829
0.0394346
0.0396639
0.0398662
0.0400375
0.0401739
0.0402725
0.040331
0.0403478
0.0403221
0.0402537
0.0401428
0.0399905
0.039798
0.0395669
0.039299
0.0389965
0.0386615
0.0382962
0.037903
0.0374841
0.0370418
0.0365785
0.0360961
0.0355969
0.0350828
0.0345557
0.0340174
0.0334696
0.032914
0.032352
0.0317852
0.0312146
0.0306417
0.0300675
0.0294932
0.0289197
0.0283478
0.0277785
0.0272125
0.0266506
0.0260935
0.0255419
0.0249961
0.0244569
0.0239245
0.0233997
0.0228826
0.0223738
0.0218733
0.0213816
0.0208989
0.0204253
0.0199612
0.0195068
0.0190621
0.0186271
0.0182018
0.0177863
0.0173807
0.0169845
0.0165976
0.0162198
0.0158515
0.0154921
0.015142
0.0147995
0.0144664
0.0141406
0.0138249
0.0135147
0.0132158
0.0129195
0.0126373
0.0123527
0.0120874
0.0118123
0.0115649
0.0112968
0.0110685
0.0108045
0.0105958
0.0103344
0.0101431
0.00988549
0.00970734
0.00945826
0.00928646
0.00905149
0.00888252
0.00865994
0.00849666
0.00827663
0.00812582
0.00790226
0.00776125
0.00754624
0.00740277
0.00720456
0.00706353
0.00684506
0.00675075
0.00646478
0.00642614
0.00606004
0.00603048
0.00549002
0.00522283
0.0464944
0.0438635
0.041183
0.0395887
0.0394386
0.0396433
0.0398334
0.0400253
0.0402091
0.0403874
0.0405591
0.0407223
0.0408742
0.0410116
0.0411311
0.0412292
0.0413024
0.0413476
0.041362
0.0413435
0.0412903
0.0412012
0.0410756
0.0409135
0.0407152
0.0404816
0.0402137
0.039913
0.039581
0.0392196
0.0388306
0.0384161
0.037978
0.0375184
0.0370394
0.0365428
0.0360307
0.0355047
0.0349669
0.0344187
0.0338619
0.033298
0.0327283
0.0321544
0.0315773
0.0309985
0.0304187
0.0298393
0.0292609
0.0286846
0.0281112
0.0275413
0.0269759
0.0264153
0.0258604
0.0253116
0.0247694
0.0242342
0.0237066
0.0231869
0.0226754
0.0221723
0.0216781
0.0211928
0.0207168
0.0202501
0.019793
0.0193457
0.0189081
0.0184801
0.0180618
0.0176533
0.0172542
0.0168643
0.0164833
0.0161119
0.0157492
0.0153957
0.0150497
0.014713
0.0143833
0.0140639
0.0137495
0.013447
0.0131462
0.0128603
0.0125707
0.012302
0.0120209
0.0117707
0.0114958
0.0112653
0.0109935
0.0107833
0.0105134
0.0103208
0.0100546
0.0098746
0.00961788
0.00944271
0.00920155
0.00902807
0.00879979
0.00863249
0.00840537
0.00825289
0.00802002
0.00787907
0.0076543
0.00751082
0.0073033
0.00716351
0.00693364
0.00684295
0.00654655
0.0065072
0.00614083
0.00610204
0.00558469
0.0053331
0.0414661
0.0416444
0.0417957
0.0419219
0.0420297
0.0421265
0.0422092
0.0422832
0.0423509
0.0424117
0.0424657
0.0425119
0.0425488
0.0425742
0.0425858
0.0425809
0.0425568
0.0425108
0.0424406
0.042344
0.0422192
0.042065
0.0418804
0.041665
0.0414189
0.0411423
0.0408359
0.0405007
0.0401379
0.0397488
0.039335
0.0388981
0.03844
0.0379624
0.037467
0.0369556
0.03643
0.0358917
0.0353425
0.034784
0.0342177
0.0336449
0.0330671
0.0324856
0.0319015
0.031316
0.0307301
0.0301449
0.0295611
0.0289797
0.0284015
0.0278271
0.0272574
0.0266928
0.026134
0.0255815
0.0250358
0.0244972
0.0239664
0.0234435
0.022929
0.0224231
0.021926
0.021438
0.0209593
0.02049
0.0200303
0.0195804
0.0191402
0.0187097
0.0182888
0.0178778
0.0174761
0.0170836
0.0166999
0.0163257
0.0159603
0.015604
0.0152551
0.0149155
0.0145825
0.0142602
0.0139423
0.0136369
0.0133323
0.0130437
0.0127496
0.0124785
0.0121923
0.0119399
0.0116591
0.0114272
0.0111486
0.0109376
0.0106603
0.010467
0.0101936
0.0100123
0.00974909
0.00957139
0.00932496
0.00914817
0.0089148
0.00874499
0.00851127
0.00835866
0.00811719
0.00797762
0.00774402
0.0076017
0.00738587
0.00724836
0.0070084
0.00692186
0.00661664
0.00657715
0.00621155
0.00616492
0.00566983
0.00543295
0.0446621
0.0446801
0.0446934
0.0446874
0.0446666
0.0446349
0.0445945
0.0445467
0.0444927
0.0444332
0.0443683
0.0442975
0.0442199
0.0441343
0.0440388
0.0439315
0.0438102
0.0436727
0.043517
0.043341
0.0431431
0.0429218
0.0426762
0.0424055
0.0421093
0.0417877
0.0414408
0.0410693
0.0406738
0.0402555
0.0398156
0.0393553
0.0388762
0.0383797
0.0378673
0.0373405
0.0368009
0.03625
0.0356893
0.0351202
0.0345441
0.0339624
0.0333763
0.032787
0.0321957
0.0316034
0.0310112
0.03042
0.0298306
0.0292438
0.0286605
0.0280814
0.027507
0.0269381
0.0263751
0.0258186
0.025269
0.0247268
0.0241924
0.0236661
0.0231482
0.0226391
0.022139
0.021648
0.0211664
0.0206943
0.0202319
0.0197794
0.0193365
0.0189034
0.0184801
0.0180665
0.0176624
0.0172675
0.0168813
0.0165047
0.0161367
0.015778
0.0154265
0.0150843
0.0147486
0.0144237
0.014103
0.013795
0.0134872
0.0131963
0.0128986
0.0126254
0.0123349
0.012081
0.0117951
0.0115622
0.0112779
0.0110664
0.0107829
0.0105893
0.0103096
0.0101276
0.00985892
0.00967949
0.00942846
0.00924954
0.00901149
0.00884054
0.00860061
0.00844914
0.0081997
0.00806255
0.00782088
0.00768066
0.00745731
0.00732276
0.00707386
0.00699163
0.00667893
0.00663958
0.00627544
0.00622207
0.00574805
0.00552485
0.0479653
0.0478212
0.0476753
0.0475212
0.0473583
0.0471887
0.0470141
0.0468357
0.0466542
0.0464701
0.0462834
0.046094
0.0459012
0.0457041
0.0455012
0.0452911
0.0450721
0.0448423
0.0445998
0.044343
0.0440701
0.0437799
0.043471
0.0431427
0.0427941
0.0424251
0.0420355
0.0416254
0.0411955
0.0407462
0.0402785
0.0397934
0.039292
0.0387755
0.0382452
0.0377023
0.0371482
0.0365841
0.0360115
0.0354316
0.0348457
0.0342549
0.0336604
0.0330635
0.032465
0.031866
0.0312675
0.0306704
0.0300754
0.0294834
0.0288951
0.0283111
0.0277322
0.0271588
0.0265916
0.026031
0.0254776
0.0249315
0.0243935
0.0238636
0.0233424
0.0228299
0.0223266
0.0218325
0.0213479
0.0208729
0.0204078
0.0199525
0.019507
0.0190713
0.0186454
0.0182293
0.0178228
0.0174255
0.017037
0.016658
0.0162877
0.0159268
0.0155728
0.0152284
0.0148902
0.0145631
0.0142397
0.0139297
0.013619
0.0133262
0.0130253
0.0127504
0.0124562
0.012201
0.0119108
0.0116773
0.011388
0.0111763
0.0108876
0.0106939
0.010409
0.0102266
0.00995323
0.0097728
0.00951761
0.00933758
0.00909508
0.00892414
0.00867825
0.0085289
0.00827197
0.008138
0.00788884
0.00775137
0.00752103
0.00738986
0.00713294
0.00705487
0.00673582
0.00669658
0.00633438
0.00627508
0.0058208
0.0056102
0.0513884
0.0510679
0.0507526
0.0504368
0.0501193
0.0498013
0.0494838
0.0491674
0.0488524
0.048539
0.048227
0.0479162
0.0476061
0.0472958
0.0469843
0.0466702
0.0463522
0.0460286
0.0456978
0.0453583
0.0450085
0.044647
0.0442726
0.0438841
0.0434806
0.0430617
0.0426268
0.042176
0.0417092
0.0412269
0.0407296
0.0402179
0.0396928
0.0391549
0.0386055
0.0380455
0.037476
0.0368982
0.0363131
0.035722
0.0351259
0.0345259
0.033923
0.0333182
0.0327126
0.0321071
0.0315024
0.0308995
0.0302992
0.029702
0.0291089
0.0285203
0.027937
0.0273594
0.0267881
0.0262236
0.0256663
0.0251167
0.024575
0.0240418
0.0235172
0.0230015
0.022495
0.0219979
0.0215103
0.0210325
0.0205645
0.0201065
0.0196584
0.0192201
0.0187918
0.0183733
0.0179644
0.0175648
0.0171739
0.0167928
0.0164202
0.0160571
0.015701
0.0153544
0.0150139
0.0146848
0.0143591
0.0140471
0.013734
0.0134395
0.0131358
0.0128594
0.0125621
0.0123057
0.0120119
0.0117777
0.0114844
0.0112725
0.0109794
0.0107858
0.0104964
0.0103139
0.0100364
0.00985556
0.00959649
0.00941618
0.00916931
0.00899927
0.00874755
0.008601
0.00833691
0.00820663
0.00795032
0.00781606
0.00757908
0.00745146
0.00718726
0.00711299
0.00678855
0.00674921
0.00638931
0.0063247
0.00588882
0.00568973
0.0549383
0.0544292
0.0539336
0.0534457
0.0529638
0.0524884
0.0520199
0.0515583
0.0511035
0.0506555
0.0502138
0.049778
0.0493475
0.0489216
0.0484992
0.0480791
0.0476602
0.0472409
0.0468198
0.0463955
0.0459664
0.0455312
0.0450884
0.0446371
0.044176
0.0437044
0.0432217
0.0427275
0.0422215
0.0417039
0.0411748
0.0406346
0.0400838
0.0395231
0.0389531
0.0383746
0.0377887
0.0371961
0.0365978
0.0359948
0.035388
0.0347784
0.0341668
0.0335542
0.0329413
0.0323292
0.0317184
0.0311099
0.0305043
0.0299022
0.0293044
0.0287115
0.028124
0.0275424
0.0269672
0.026399
0.0258382
0.0252851
0.0247401
0.0242037
0.0236759
0.0231572
0.0226478
0.0221478
0.0216574
0.0211769
0.0207063
0.0202457
0.0197951