/*--------------------------------*- C++ -*----------------------------------*\
| =========                 |                                                 |
| \\      /  F ield         | OpenFOAM: The Open Source CFD Toolbox           |
|  \\    /   O peration     | Version:  2412                                  |
|   \\  /    A nd           | Website:  www.openfoam.com                      |
|    \\/     M anipulation  |                                                 |
\*---------------------------------------------------------------------------*/
FoamFile
{
    version     2.0;
    format      ascii;
    arch        "LSB;label=32;scalar=64";
    class       surfaceScalarField;
    location    "0.085";
    object      phi_0;
}
// * * * * * * * * * * * * * * * * * * * * * * * * * * * * * * * * * * * * * //

dimensions      [0 3 -1 0 0 0 0];

oriented        oriented;

internalField   nonuniform List<scalar> 
24930
(
-0.00243813
-0.00294834
0.00538478
-0.00140404
-0.00103408
-0.000929866
-0.000474153
-0.000645635
-0.000284232
-0.000447724
-0.000197928
-0.000297588
-0.00015015
-0.000177559
-0.000120023
-7.82562e-05
-9.92681e-05
6.15443e-06
-8.43622e-05
7.82518e-05
-7.20566e-05
0.000141834
-6.35643e-05
0.000198141
-5.63095e-05
0.000248533
-5.03999e-05
0.000294088
-4.55555e-05
0.000335584
-4.14823e-05
0.000373631
-3.80228e-05
0.000408722
-3.50659e-05
0.000441256
-3.25146e-05
0.000471561
-3.02947e-05
0.00049991
-2.83511e-05
0.000526531
-2.66338e-05
0.000551618
-2.51019e-05
0.000575336
-2.37282e-05
0.000597823
-2.24941e-05
0.000619203
-2.13814e-05
0.000639588
-2.03849e-05
0.000659073
-1.94932e-05
0.000677744
-1.86744e-05
0.000695685
-1.79291e-05
0.000712953
-1.7264e-05
0.000729613
-1.66437e-05
0.000745738
-1.61028e-05
0.000761353
-1.56402e-05
0.00077654
-1.5186e-05
0.000791344
-1.47973e-05
0.000805765
-1.4455e-05
0.000819894
-1.40875e-05
0.000833736
-1.38421e-05
0.000847328
-1.36195e-05
0.000860754
-1.33903e-05
0.000873985
-1.32743e-05
0.000887113
-1.31099e-05
0.000900132
-1.30099e-05
0.000913082
-1.29624e-05
0.00092602
-1.29219e-05
0.000938938
-1.29532e-05
0.000951921
-1.29609e-05
0.000964946
-1.30491e-05
0.00097809
-1.31206e-05
0.000991352
-1.32644e-05
0.00100478
-1.34446e-05
0.00101841
-1.36361e-05
0.00103228
-1.38741e-05
0.00104642
-1.41239e-05
0.00106086
-1.44473e-05
0.00107567
-1.47901e-05
0.00109087
-1.52134e-05
0.00110651
-1.56354e-05
0.00112261
-1.61221e-05
0.00113925
-1.66215e-05
0.00115646
-1.72132e-05
0.0011743
-1.78327e-05
0.00119281
-1.85209e-05
0.00121206
-1.92415e-05
0.00123209
-2.00351e-05
0.00125297
-2.0876e-05
0.00127477
-2.18075e-05
0.00129756
-2.27937e-05
0.00132142
-2.38524e-05
0.00134641
-2.49835e-05
0.00137263
-2.62133e-05
0.00140015
-2.75179e-05
0.00142905
-2.89066e-05
0.00145943
-3.03726e-05
0.00149137
-3.19384e-05
0.00152497
-3.3601e-05
0.00156034
-3.53747e-05
0.00159758
-3.72453e-05
0.00163681
-3.9232e-05
0.00167814
-4.13204e-05
0.00172172
-4.3581e-05
0.00176765
-4.594e-05
0.00181614
-4.84854e-05
0.00186725
-5.10985e-05
0.00192125
-5.40109e-05
0.00197816
-5.69031e-05
0.00203837
-6.02096e-05
0.00210178
-6.34162e-05
0.00216899
-6.72002e-05
0.00223971
-7.07203e-05
0.00231478
-7.50808e-05
0.00239375
-7.89605e-05
0.00247763
-8.38835e-05
0.00256593
-8.82974e-05
0.00265956
-9.36372e-05
0.00275856
-9.89995e-05
0.00286286
-0.000104295
0.00297435
-0.000111491
0.00309026
-0.000115916
0.00321655
-0.000126283
0.00334521
-0.000128659
0.00348887
-0.000143672
0.00363179
-0.000142914
0.00379452
-0.000162723
0.00395387
-0.000159354
0.00413554
-0.000181667
0.00431545
-0.000179912
0.00451581
-0.00020036
0.00472204
-0.000206235
0.00494383
-0.000221788
0.00517939
-0.000235567
0.00542694
-0.000247551
0.00568743
-0.000260479
0.00596714
-0.000279713
0.00623867
-0.000271534
0.00655302
-0.000314349
0.00678472
-0.000231697
0.00709568
-0.000310961
0.00685003
0.000245644
0.000534047
-0.00546954
-0.00497281
0.00749402
-0.00385959
-0.002644
-0.00276363
-0.00157011
-0.00199819
-0.00104969
-0.00143072
-0.000765405
-0.000987425
-0.000593427
-0.000627105
-0.000480285
-0.00032557
-0.000400727
-6.76014e-05
-0.000342268
0.000156198
-0.000295826
0.000353843
-0.000261207
0.000530385
-0.00023286
0.000689473
-0.000209483
0.000834104
-0.000190162
0.000966543
-0.000173885
0.00108857
-0.000160006
0.00120161
-0.000148078
0.00130685
-0.00013774
0.00140525
-0.000128702
0.00149763
-0.000120746
0.00158467
-0.000113692
0.00166694
-0.000107399
0.00174496
-0.000101755
0.00181914
-9.66787e-05
0.00188984
-9.21005e-05
0.00195742
-8.79654e-05
0.00202216
-8.42343e-05
0.00208433
-8.08433e-05
0.00214418
-7.77478e-05
0.0022019
-7.49648e-05
0.00225768
-7.24361e-05
0.00231174
-7.01344e-05
0.00236421
-6.81328e-05
0.00241525
-6.62639e-05
0.00246503
-6.45305e-05
0.00251362
-6.30798e-05
0.00256119
-6.1643e-05
0.00260785
-6.04726e-05
0.0026537
-5.95451e-05
0.00269894
-5.85709e-05
0.00274359
-5.79618e-05
0.00278782
-5.73345e-05
0.00283169
-5.68614e-05
0.00287531
-5.6634e-05
0.00291883
-5.64001e-05
0.00296228
-5.64718e-05
0.00300586
-5.64883e-05
0.00304958
-5.67955e-05
0.00309359
-5.71253e-05
0.00313797
-5.76456e-05
0.00318283
-5.83364e-05
0.00322828
-5.90779e-05
0.00327444
-6.00485e-05
0.00332145
-6.10846e-05
0.00336938
-6.24113e-05
0.00341843
-6.38069e-05
0.00346866
-6.54924e-05
0.00352026
-6.72132e-05
0.00357333
-6.92131e-05
0.00362804
-7.13026e-05
0.00368452
-7.37186e-05
0.00374299
-7.62768e-05
0.00380355
-7.91052e-05
0.00386642
-8.20916e-05
0.00393174
-8.53714e-05
0.00399974
-8.88659e-05
0.00407063
-9.26991e-05
0.00414464
-9.679e-05
0.00422198
-0.000101197
0.00430293
-0.00010591
0.00438771
-0.000111
0.00447661
-0.000116413
0.00456988
-0.000122177
0.00466779
-0.000128278
0.00477063
-0.000134784
0.00487873
-0.000141704
0.00499242
-0.000149065
0.00511202
-0.000156845
0.0052379
-0.000165109
0.00537043
-0.000173849
0.00551006
-0.000183202
0.00565717
-0.000193056
0.00581229
-0.000203604
0.00597579
-0.000214589
0.00614832
-0.000226535
0.00633021
-0.000238801
0.00652229
-0.000252278
0.00672484
-0.000265976
0.00693891
-0.000281272
0.00716471
-0.000296509
0.00740352
-0.000313901
0.00765548
-0.000330918
0.00792203
-0.000350427
0.00820351
-0.00036978
0.00850093
-0.000391053
0.00881593
-0.000414002
0.00914752
-0.000435882
0.00950102
-0.000464997
0.00987049
-0.000485386
0.0102688
-0.000524611
0.0106805
-0.000540351
0.011131
-0.000594164
0.0115901
-0.000601977
0.0120985
-0.000671194
0.0126109
-0.000671746
0.0131793
-0.000750076
0.0137551
-0.000755699
0.0143851
-0.000830333
0.0150396
-0.000860776
0.0157398
-0.000921917
0.0164843
-0.000980113
0.0172652
-0.00102844
0.0180931
-0.00108835
0.0189707
-0.00115735
0.0198427
-0.00114358
0.0208306
-0.00130215
0.0215926
-0.000993787
0.0226066
-0.00132488
0.0220068
0.000845367
0.00168639
-0.00738848
-0.00642003
0.00883573
-0.00576708
-0.00426537
-0.00439967
-0.00293753
-0.00331557
-0.00213381
-0.002451
-0.00162999
-0.00174631
-0.00129809
-0.00115829
-0.00106825
-0.000657166
-0.000901781
-0.000222786
-0.0007766
0.000159626
-0.000678224
0.000500199
-0.000601789
0.000806759
-0.000539431
0.00108486
-0.000487581
0.00133914
-0.00044443
0.00157322
-0.000407928
0.00178991
-0.00037667
0.00199154
-0.000349683
0.00218
-0.000326191
0.00235688
-0.000305581
0.00252349
-0.000287376
0.00268097
-0.000271194
0.00283028
-0.000256729
0.00297226
-0.000243736
0.0031076
-0.000232028
0.00323693
-0.000221445
0.00336082
-0.000211856
0.00347976
-0.000203172
0.0035942
-0.000195283
0.00370457
-0.000188079
0.0038112
-0.000181568
0.0039144
-0.000175658
0.00401454
-0.000170247
0.00411185
-0.000165465
0.00420661
-0.000161069
0.00429913
-0.000156989
0.00438952
-0.000153513
0.00447808
-0.000150182
0.004565
-0.000147349
0.00465044
-0.000145073
0.00473472
-0.000142794
0.00481795
-0.000141222
0.00490035
-0.000139739
0.0049821
-0.000138579
0.00506335
-0.000137936
0.00514434
-0.000137347
0.00522518
-0.000137386
0.00530616
-0.000137408
0.00538735
-0.000138021
0.005469
-0.000138764
0.00555124
-0.000139895
0.00563429
-0.000141414
0.00571833
-0.000143103
0.00580356
-0.0001453
0.00589023
-0.000147707
0.00597851
-0.00015072
0.00606868
-0.000153946
0.00616092
-0.000157776
0.00625551
-0.000161777
0.00635265
-0.000166386
0.00645266
-0.000171271
0.00655576
-0.000176844
0.0066623
-0.000182798
0.00677253
-0.000189353
0.00688678
-0.000196322
0.00700534
-0.00020395
0.00712861
-0.000212117
0.00725694
-0.000221041
0.00739076
-0.000230597
0.00753046
-0.000240891
0.00767649
-0.000251916
0.00782928
-0.000263794
0.00798932
-0.000276442
0.00815705
-0.000289911
0.00833296
-0.000304185
0.00851757
-0.000319403
0.00871147
-0.000335602
0.00891522
-0.000352815
0.00912941
-0.000371038
0.00935468
-0.000390376
0.00959172
-0.000410883
0.00984126
-0.000432735
0.0101041
-0.000455861
0.0103809
-0.000480483
0.0106727
-0.000506338
0.0109803
-0.000534115
0.0113046
-0.000563088
0.0116466
-0.00059432
0.0120074
-0.000626807
0.0123882
-0.000662069
0.0127902
-0.000698454
0.0132145
-0.000738252
0.0136628
-0.00077915
0.0141359
-0.000823587
0.0146363
-0.000870137
0.0151639
-0.00091867
0.0157232
-0.000973303
0.0163114
-0.00102405
0.0169379
-0.00109152
0.0175936
-0.00114109
0.0182977
-0.00122869
0.0190291
-0.00127176
0.019823
-0.00138803
0.0206395
-0.00141847
0.0215337
-0.00156545
0.0224453
-0.00158336
0.0234453
-0.00175
0.0244675
-0.00177794
0.0255777
-0.00194049
0.0267349
-0.00201807
0.0279701
-0.00215707
0.0292833
-0.00229331
0.0306604
-0.00240552
0.0321235
-0.00255143
0.0336696
-0.00270345
0.0352172
-0.00269123
0.0369658
-0.00305069
0.0383387
-0.00236676
0.0401882
-0.00317436
0.0394526
0.00158095
0.00327102
-0.00854332
-0.0074969
0.00962022
-0.00711494
-0.00569374
-0.00571824
-0.00433424
-0.00448323
-0.00336883
-0.00342323
-0.00268998
-0.0025158
-0.00220548
-0.00173285
-0.00185115
-0.00104947
-0.00158511
-0.000446154
-0.00137988
9.28655e-05
-0.00121724
0.000577859
-0.0010868
0.00101897
-0.000980557
0.0014225
-0.000891114
0.00179409
-0.00081601
0.00213828
-0.000752102
0.00245871
-0.000697077
0.00275837
-0.000649325
0.00303976
-0.000607568
0.00330496
-0.000570783
0.00355574
-0.000538173
0.00379363
-0.000509097
0.00401993
-0.00048304
0.00423576
-0.000459578
0.00444212
-0.000438382
0.00463984
-0.000419177
0.00482971
-0.000401732
0.00501243
-0.000385885
0.00518861
-0.000371465
0.00535885
-0.000358286
0.00552363
-0.000346321
0.0056834
-0.000335441
0.00583864
-0.000325465
0.00598971
-0.000316555
0.006137
-0.000308402
0.00628093
-0.000300859
0.00642172
-0.000294335
0.00655974
-0.000288197
0.00669531
-0.000282874
0.00682866
-0.000278505
0.00696021
-0.000274285
0.00709015
-0.000271192
0.0072188
-0.000268389
0.00734641
-0.00026616
0.00747321
-0.000264799
0.00759956
-0.000263646
0.00772562
-0.000263521
0.00785178
-0.000263512
0.00797821
-0.000264476
0.00810521
-0.000265765
0.00823304
-0.000267726
0.00836197
-0.000270381
0.00849231
-0.000273419
0.00862433
-0.000277344
0.0087584
-0.000281727
0.00889478
-0.000287135
0.00903388
-0.000293011
0.00917597
-0.000299917
0.00932147
-0.000307249
0.0094707
-0.000315641
0.00962408
-0.000324622
0.009782
-0.000334787
0.00994494
-0.000345712
0.0101133
-0.000357712
0.0102875
-0.000370534
0.0104681
-0.000384544
0.0106556
-0.000399592
0.0108505
-0.000416004
0.0110536
-0.000433613
0.0112653
-0.00045258
0.0114863
-0.000472916
0.0117173
-0.000494801
0.011959
-0.000518127
0.012212
-0.000542965
0.0124772
-0.000569314
0.0127552
-0.000597403
0.0130469
-0.000627325
0.0133532
-0.000659106
0.0136749
-0.000692779
0.014013
-0.000728495
0.0143686
-0.000766428
0.0147426
-0.00080676
0.0151363
-0.000849545
0.0155508
-0.000894956
0.0159873
-0.000942871
0.0164472
-0.000993987
0.0169319
-0.00104779
0.0174427
-0.00110514
0.0179815
-0.00116562
0.0185496
-0.00123014
0.0191493
-0.00129816
0.0197817
-0.00137062
0.0204499
-0.00144738
0.0211543
-0.00152798
0.0218996
-0.00161547
0.0226844
-0.00170344
0.0235167
-0.00180566
0.024391
-0.00189834
0.0253223
-0.00202274
0.0262966
-0.00211545
0.0273412
-0.00227332
0.028428
-0.00235852
0.0296033
-0.00256338
0.0308167
-0.00263181
0.0321385
-0.00288729
0.0334932
-0.00293799
0.0349708
-0.00322762
0.036488
-0.00329514
0.0381293
-0.00358183
0.0398424
-0.00373112
0.0416686
-0.00398329
0.0436084
-0.00423316
0.0456437
-0.00444082
0.0478061
-0.00471381
0.0500924
-0.00498972
0.052384
-0.00498288
0.0549844
-0.00565106
0.0570456
-0.00442795
0.0598603
-0.00598909
0.0592873
0.00215394
0.0050201
-0.00916219
-0.0083255
0.00999082
-0.0079732
-0.00688272
-0.00667845
-0.00562899
-0.00542452
-0.00462276
-0.00427137
-0.00384311
-0.00323273
-0.00324408
-0.00230244
-0.0027814
-0.00146766
-0.00241986
-0.000714743
-0.00213279
-3.08415e-05
-0.00190116
0.000592933
-0.00171059
0.00116685
-0.00155448
0.00169695
-0.00142122
0.00218916
-0.00130822
0.00264841
-0.00121133
0.00307871
-0.00112737
0.00348348
-0.00105407
0.00386555
-0.000989639
0.00422739
-0.000932617
0.00457106
-0.000881857
0.00489839
-0.000836434
0.00521093
-0.000795592
0.00551006
-0.000758711
0.00579697
-0.000725294
0.00607272
-0.000694934
0.00633827
-0.000667281
0.00659448
-0.000642087
0.00684212
-0.000619108
0.00708193
-0.000598072
0.00731454
-0.000578903
0.00754051
-0.000561429
0.00776045
-0.000545387
0.00797483
-0.000530949
0.00818414
-0.000517758
0.00838892
-0.00050558
0.00858948
-0.000494921
0.00878629
-0.000485005
0.00897977
-0.000476297
0.0091702
-0.000469029
0.00935814
-0.000462171
0.00954385
-0.000456925
0.00972774
-0.000452282
0.00991016
-0.000448548
0.0100914
-0.000446113
0.010272
-0.000444141
0.010452
-0.000443671
0.0106321
-0.000443556
0.0108125
-0.000444879
0.0109936
-0.000446825
0.0111757
-0.000449814
0.0113591
-0.000453901
0.0115444
-0.000458686
0.0117319
-0.00046484
0.011922
-0.00047182
0.0121152
-0.00048035
0.012312
-0.000489726
0.0125127
-0.000500677
0.0127179
-0.000512444
0.0129281
-0.000525858
0.0131438
-0.000540315
0.0133656
-0.000556595
0.0135941
-0.000574169
0.0138298
-0.000593451
0.0140734
-0.000614133
0.0143256
-0.000636709
0.014587
-0.00066102
0.0148585
-0.000687505
0.0151409
-0.000715964
0.0154349
-0.000746618
0.0157415
-0.000779511
0.0160616
-0.000814894
0.0163961
-0.00085263
0.016746
-0.000892821
0.0171122
-0.000935487
0.0174957
-0.000980975
0.0178979
-0.00102946
0.0183197
-0.00108094
0.0187624
-0.00113552
0.0192273
-0.0011934
0.0197158
-0.00125493
0.0202294
-0.00132027
0.0207695
-0.00138968
0.0213377
-0.0014632
0.0219359
-0.00154103
0.0225656
-0.00162366
0.023229
-0.00171116
0.0239276
-0.00180373
0.0246642
-0.00190226
0.0254402
-0.00200612
0.0262593
-0.00211726
0.0271221
-0.00223343
0.028034
-0.00235925
0.028994
-0.00248802
0.0300102
-0.00263169
0.0310787
-0.00277194
0.0322126
-0.00293949
0.0334019
-0.00308768
0.034669
-0.00328983
0.0359935
-0.00343997
0.0374128
-0.00369259
0.0388893
-0.00383504
0.0404833
-0.00415733
0.0421312
-0.0042797
0.0439211
-0.00467717
0.0457604
-0.0047773
0.0477599
-0.0052272
0.0498181
-0.00535324
0.0520392
-0.00580295
0.0543579
-0.00604988
0.0568282
-0.00645352
0.0594488
-0.00685381
0.0622007
-0.00719271
0.0651205
-0.00763359
0.0682157
-0.00808491
0.0713114
-0.00807863
0.074851
-0.00919067
0.0776755
-0.00725238
0.0815646
-0.00987823
0.0815032
0.00221532
0.00658367
-0.00941565
-0.0089854
0.0100756
-0.00844216
-0.0078562
-0.00729987
-0.00677126
-0.00610956
-0.00581305
-0.00494557
-0.00500709
-0.00384459
-0.00434502
-0.00282009
-0.00380586
-0.0018731
-0.00336684
-0.00099884
-0.00300706
-0.000190432
-0.00270958
0.000559564
-0.00246061
0.00125797
-0.0022529
0.00191006
-0.00207331
0.00252121
-0.00191937
0.00309611
-0.00178623
0.00363872
-0.00166996
0.00415244
-0.00156779
0.00464024
-0.00147743
0.00510467
-0.00139705
0.00554798
-0.00132516
0.0059721
-0.00126057
0.00637876
-0.00120226
0.00676948
-0.00114944
0.0071456
-0.00110141
0.00750831
-0.00105765
0.0078587
-0.00101767
0.00819776
-0.000981135
0.00852637
-0.000947719
0.00884539
-0.000917066
0.00915555
-0.000889035
0.00945751
-0.000863414
0.00975199
-0.000839855
0.0100396
-0.000818524
0.0103208
-0.000799035
0.0105963
-0.000781059
0.0108666
-0.000765178
0.0111321
-0.000750512
0.0113933
-0.000737513
0.0116507
-0.000726521
0.0119049
-0.000716309
0.0121562
-0.000708246
0.0124052
-0.000701217
0.0126522
-0.000695509
0.0128976
-0.000691615
0.013142
-0.000688543
0.0133858
-0.000687516
0.0136295
-0.0006872
0.0138735
-0.000688862
0.0141182
-0.00069156
0.0143642
-0.000695762
0.0146118
-0.000701566
0.0148616
-0.000708498
0.0151141
-0.000717382
0.01537
-0.000727586
0.0156295
-0.000739977
0.0158936
-0.000753729
0.0161626
-0.000769724
0.0164372
-0.000787076
0.0167181
-0.000806802
0.0170061
-0.00082818
0.0173016
-0.000852173
0.0176056
-0.000878161
0.0179188
-0.000906664
0.018242
-0.000937327
0.0185761
-0.000970787
0.018922
-0.00100689
0.0192806
-0.0010462
0.0196532
-0.00108849
0.0200406
-0.00113404
0.0204441
-0.00118296
0.0208648
-0.00123558
0.0213039
-0.00129172
0.0217626
-0.00135153
0.0222422
-0.00141507
0.022744
-0.00148282
0.0232696
-0.00155506
0.0238204
-0.00163177
0.024398
-0.00171314
0.025004
-0.00179939
0.0256403
-0.00189117
0.0263085
-0.00198853
0.027011
-0.00209209
0.0277493
-0.00220159
0.0285261
-0.0023178
0.0293432
-0.00244073
0.0302035
-0.0025715
0.0311089
-0.00270904
0.0320631
-0.00285651
0.0330674
-0.00301045
0.0341274
-0.00317721
0.0352427
-0.00334879
0.0364216
-0.00353808
0.0376611
-0.00372756
0.0389736
-0.0039442
0.0403516
-0.00414993
0.0418146
-0.00440253
0.0433469
-0.00461989
0.04498
-0.004923
0.0466849
-0.00514479
0.0485115
-0.00551927
0.0504106
-0.00573411
0.0524584
-0.0062051
0.0545767
-0.00639802
0.0568724
-0.00697282
0.0592358
-0.00714071
0.0617981
-0.00778955
0.0644402
-0.00799531
0.0672857
-0.00864846
0.0702563
-0.00902048
0.0734191
-0.00961636
0.0767695
-0.0102042
0.0802914
-0.0107146
0.0840192
-0.0113614
0.0879864
-0.0120521
0.0919378
-0.0120301
0.0964926
-0.0137454
0.100158
-0.0109174
0.105189
-0.0149099
0.106002
0.00140224
0.007557
-0.00942555
-0.00953433
0.0099745
-0.00862019
-0.00866152
-0.00763156
-0.00775987
-0.00654331
-0.00690128
-0.00542293
-0.00612745
-0.00431528
-0.00545264
-0.00324616
-0.00487497
-0.00222805
-0.00438494
-0.00126513
-0.00397
-0.000356992
-0.00361773
0.000499559
-0.00331716
0.00130817
-0.00306151
0.0020721
-0.00283723
0.0027954
-0.00264267
0.00348187
-0.0024727
0.00413492
-0.00232301
0.00475762
-0.00219047
0.0053527
-0.0020725
0.00592259
-0.00196694
0.00646948
-0.00187206
0.0069953
-0.00178639
0.00750179
-0.00170876
0.00799049
-0.00163814
0.00846279
-0.00157371
0.00891994
-0.0015148
0.0093631
-0.00146083
0.00979331
-0.00141134
0.0102115
-0.00136593
0.0106187
-0.00132419
0.0110155
-0.00128588
0.0114029
-0.00125077
0.0117814
-0.00121842
0.0121519
-0.00118899
0.0125149
-0.00116207
0.0128711
-0.00113725
0.0132211
-0.00111515
0.0135654
-0.00109484
0.0139047
-0.00107671
0.0142393
-0.00106122
0.01457
-0.00104698
0.0148972
-0.00103547
0.0152215
-0.00102553
0.0155434
-0.0010174
0.0158634
-0.00101167
0.0161822
-0.00100723
0.0165
-0.00100544
0.0168177
-0.00100483
0.0171357
-0.00100682
0.0174545
-0.00101036
0.0177747
-0.00101597
0.0180968
-0.00102378
0.0184216
-0.00103327
0.0187496
-0.00104539
0.0190815
-0.00105946
0.019418
-0.00107647
0.0197598
-0.00109549
0.0201076
-0.00111755
0.0204622
-0.00114168
0.0208244
-0.00116905
0.0211951
-0.00119885
0.0215751
-0.00123221
0.0219654
-0.00126845
0.0223669
-0.00130819
0.0227807
-0.00135105
0.0232077
-0.00139782
0.0236492
-0.00144837
0.0241064
-0.00150338
0.0245805
-0.00156263
0.025073
-0.00162648
0.0255851
-0.00169508
0.0261184
-0.00176886
0.0266743
-0.00184765
0.0272544
-0.00193159
0.0278601
-0.00202082
0.0284933
-0.00211597
0.0291557
-0.00221748
0.0298492
-0.00232528
0.0305757
-0.00243967
0.0313372
-0.00256089
0.0321361
-0.00268999
0.0329744
-0.00282683
0.0338548
-0.00297252
0.0347796
-0.00312637
0.0357518
-0.00328998
0.0367735
-0.00346251
0.0378488
-0.00364676
0.0389793
-0.00383956
0.0401704
-0.00404761
0.0414229
-0.00426291
0.0427444
-0.00449871
0.0441335
-0.00473785
0.0456016
-0.00500623
0.0471433
-0.00526927
0.0487763
-0.00557723
0.050488
-0.00586162
0.0523065
-0.00622102
0.0542075
-0.0065209
0.0562352
-0.00695063
0.0583481
-0.00725773
0.0606126
-0.00778378
0.0629643
-0.00808577
0.0654981
-0.00873894
0.0681195
-0.00901939
0.0709549
-0.0098082
0.0738778
-0.0100637
0.0770391
-0.0109508
0.0803032
-0.0112594
0.0838123
-0.0121576
0.0874746
-0.0126828
0.0913723
-0.0135141
0.0954935
-0.0143253
0.0998315
-0.0150526
0.104407
-0.0159372
0.109301
-0.0169456
0.114148
-0.0168772
0.119775
-0.0193729
0.124358
-0.0155003
0.130558
-0.0211095
0.132577
-0.000617321
0.00750499
-0.0092733
-0.0100143
0.0097533
-0.00858854
-0.00934624
-0.00773108
-0.0086173
-0.00675203
-0.00788031
-0.00570308
-0.00717638
-0.00462645
-0.00652926
-0.00355235
-0.00594907
-0.00250023
-0.00543707
-0.00148121
-0.00498902
-0.000500754
-0.00459818
0.000439896
-0.00425779
0.00134022
-0.00396181
0.00220141
-0.00369842
0.00302558
-0.00346685
0.00381516
-0.00326229
0.0045726
-0.00308045
0.00530026
-0.00291813
0.00600038
-0.00277261
0.00667504
-0.0026416
0.00732617
-0.00252318
0.00795551
-0.00241574
0.00856467
-0.00231793
0.00915512
-0.00222859
0.00972819
-0.00214678
0.0102851
-0.00207171
0.010827
-0.00200271
0.0113549
-0.00193922
0.0118697
-0.0018808
0.0123725
-0.00182694
0.012864
-0.00177735
0.013345
-0.00173177
0.0138163
-0.00168971
0.0142785
-0.00165125
0.0147325
-0.00161604
0.0151788
-0.00158356
0.0156181
-0.00155445
0.0160511
-0.0015278
0.0164783
-0.00150388
0.0169002
-0.00148325
0.0173178
-0.00146446
0.0177313
-0.00144897
0.0181414
-0.0014357
0.0185488
-0.0014248
0.018954
-0.00141694
0.0193578
-0.00141093
0.0197605
-0.00140823
0.020163
-0.00140729
0.0205658
-0.00140962
0.0209696
-0.00141416
0.021375
-0.00142139
0.0217827
-0.00143154
0.0221935
-0.00144402
0.022608
-0.00145992
0.0230271
-0.00147853
0.0234516
-0.00150093
0.0238823
-0.00152615
0.02432
-0.00155535
0.0247658
-0.00158746
0.0252206
-0.00162385
0.0256854
-0.00166361
0.0261612
-0.00170805
0.0266492
-0.00175643
0.0271505
-0.00180951
0.0276663
-0.00186687
0.028198
-0.00192945
0.0287468
-0.00199718
0.0293143
-0.0020709
0.029902
-0.00215036
0.0305116
-0.00223601
0.0311446
-0.00232811
0.0318029
-0.00242715
0.0324883
-0.00253299
0.0332024
-0.00264578
0.0339474
-0.00276574
0.0347251
-0.00289368
0.0355378
-0.00303021
0.0363877
-0.00317523
0.0372773
-0.00332918
0.0382087
-0.00349229
0.0391848
-0.0036661
0.0402082
-0.00385023
0.0412821
-0.00404644
0.0424091
-0.00425339
0.0435931
-0.0044739
0.0448363
-0.00470575
0.0461438
-0.00495426
0.0475173
-0.005213
0.0489636
-0.00549396
0.0504829
-0.00578223
0.0520856
-0.00610139
0.0537682
-0.00642045
0.0555467
-0.00678471
0.0574115
-0.00713409
0.0593876
-0.00755336
0.0614552
-0.00792915
0.0636534
-0.00841924
0.0659466
-0.00881409
0.0683946
-0.00939863
0.0709405
-0.00980365
0.0736702
-0.0105134
0.0765011
-0.0109167
0.0795493
-0.0117871
0.0827025
-0.0121726
0.0861066
-0.0132122
0.08962
-0.0135771
0.0934102
-0.014741
0.0973284
-0.0151776
0.101533
-0.0163625
0.105919
-0.017069
0.110586
-0.0181811
0.11551
-0.0192487
0.120701
-0.0202437
0.126152
-0.0213881
0.132014
-0.0228074
0.137785
-0.0226484
0.144517
-0.0261047
0.150095
-0.0210784
0.15744
-0.0284551
0.160932
-0.00410887
0.00601107
-0.00901021
-0.0104546
0.00945051
-0.00840693
-0.00994947
-0.00765112
-0.00937308
-0.0067706
-0.00876081
-0.00580054
-0.00814642
-0.00477512
-0.00755469
-0.003723
-0.00700119
-0.00266601
-0.00649408
-0.00161931
-0.00603571
-0.000592593
-0.00562488
0.000409344
-0.0052597
0.00138113
-0.00493357
0.00232244
-0.00463971
0.00323316
-0.00437758
0.00411403
-0.00414318
0.00496627
-0.0039327
0.00579133
-0.00374318
0.00659071
-0.00357198
0.00736594
-0.00341684
0.00811853
-0.00327578
0.00884991
-0.00314713
0.00956142
-0.00302945
0.0102544
-0.00292152
0.0109299
-0.0028223
0.0115891
-0.00273094
0.0122331
-0.00264667
0.0128628
-0.00256889
0.013479
-0.00249709
0.0140828
-0.00243072
0.0146749
-0.00236942
0.015256
-0.00231292
0.015827
-0.00226068
0.0163885
-0.00221273
0.0169412
-0.00216876
0.0174858
-0.00212819
0.018023
-0.00209163
0.0185534
-0.00205825
0.0190778
-0.00202815
0.0195965
-0.00200202
0.0201104
-0.00197838
0.0206201
-0.00195862
0.0211262
-0.0019418
0.0216293
-0.00192795
0.0221302
-0.00191783
0.0226295
-0.00191021
0.0231278
-0.00190658
0.023626
-0.0019054
0.0241245
-0.00190821
0.0246243
-0.00191398
0.0251261
-0.00192317
0.0256306
-0.00193606
0.0261387
-0.00195206
0.0266511
-0.00197234
0.0271688
-0.00199623
0.0276927
-0.00202487
0.0282239
-0.00205728
0.0287632
-0.0020947
0.0293118
-0.00213608
0.0298709
-0.0021829
0.0304415
-0.00223423
0.0310249
-0.00229151
0.0316225
-0.00235399
0.0322355
-0.00242253
0.0328654
-0.00249675
0.0335137
-0.00257772
0.034182
-0.00266546
0.034872
-0.00276094
0.0355856
-0.00286396
0.0363246
-0.00297503
0.0370911
-0.00309452
0.037887
-0.00322305
0.0387145
-0.00336049
0.0395757
-0.003507
0.0404728
-0.00366288
0.0414083
-0.00382916
0.0423848
-0.00400668
0.0434048
-0.00419527
0.0444712
-0.00439553
0.0455865
-0.00460766
0.0467543
-0.00483384
0.0479774
-0.00507334
0.0492598
-0.00532878
0.0506042
-0.00559788
0.0520155
-0.00588517
0.0534961
-0.00618634
0.0550522
-0.00651032
0.0566851
-0.00684595
0.0584039
-0.00721272
0.0602074
-0.00758571
0.0621094
-0.00800336
0.0641035
-0.00841463
0.0662116
-0.00889275
0.0684183
-0.0093408
0.070758
-0.00989304
0.0732008
-0.010372
0.0758004
-0.0110189
0.078506
-0.0115197
0.0813971
-0.0122897
0.0843972
-0.0128038
0.0876154
-0.0137316
0.0909482
-0.0142496
0.0945339
-0.0153728
0.0982431
-0.0158818
0.102239
-0.0172078
0.106367
-0.0177059
0.11081
-0.0191834
0.115406
-0.019774
0.120331
-0.0212878
0.125464
-0.0222012
0.130925
-0.0236422
0.13667
-0.0249936
0.142739
-0.0263135
0.149078
-0.0277267
0.155934
-0.0296631
0.162645
-0.0293595
0.170481
-0.0339411
0.177123
-0.02772
0.185565
-0.0368968
0.19069
-0.00923405
0.00272009
-0.00866495
-0.0108743
0.00908473
-0.00811422
-0.0105002
-0.00743238
-0.0100549
-0.00663251
-0.00956066
-0.00573629
-0.00904263
-0.00476857
-0.00852242
-0.00375329
-0.00801649
-0.00271116
-0.00753622
-0.00165863
-0.00708822
-0.00060767
-0.0066758
0.000434736
-0.00630206
0.00145866
-0.00595747
0.00246256
-0.00564362
0.00344431
-0.00535934
0.00440289
-0.00510178
0.00533819
-0.00486802
0.00625058
-0.00465557
0.00714073
-0.00446213
0.00800948
-0.0042856
0.0088578
-0.00412412
0.00968671
-0.00397605
0.0104972
-0.00383997
0.0112903
-0.00371463
0.012067
-0.00359897
0.0128282
-0.00349209
0.0135747
-0.0033932
0.0143074
-0.00330164
0.0150272
-0.00321686
0.0157347
-0.00313829
0.0164309
-0.00306553
0.0171162
-0.00299829
0.0177915
-0.00293602
0.0184575
-0.00287867
0.0191147
-0.00282602
0.019764
-0.00277741
0.0204058
-0.00273343
0.0210409
-0.00269335
0.0216699
-0.00265713
0.0222933
-0.00262552
0.0229121
-0.00259708
0.0235266
-0.0025731
0.0241376
-0.00255282
0.0247458
-0.00253615
0.0253518
-0.00252389
0.0259565
-0.00251487
0.0265604
-0.00251054
0.0271645
-0.00250943
0.0277693
-0.00251305
0.0283758
-0.00252048
0.0289847
-0.00253211
0.0295969
-0.00254831
0.0302134
-0.00256849
0.0308349
-0.0025939
0.0314627
-0.00262391
0.0320975
-0.00265975
0.0327407
-0.00270041
0.0333932
-0.00274726
0.0340564
-0.00279925
0.0347315
-0.00285801
0.0354199
-0.00292258
0.0361228
-0.00299452
0.036842
-0.00307311
0.0375788
-0.00315933
0.0383349
-0.00325283
0.039112
-0.00335483
0.039912
-0.00346545
0.0407368
-0.00358583
0.0415887
-0.0037158
0.0424696
-0.00385597
0.043382
-0.00400684
0.0443281
-0.00416916
0.0453105
-0.00434284
0.0463315
-0.00452804
0.0473938
-0.00472516
0.0485001
-0.00493544
0.0496534
-0.00516003
0.0508568
-0.00539866
0.0521135
-0.00565218
0.0534264
-0.0059206
0.0547996
-0.00620699
0.0562363
-0.00651008
0.0577412
-0.00683369
0.0593175
-0.00717414
0.0609707
-0.00753838
0.0627034
-0.00791903
0.0645232
-0.00833009
0.0664308
-0.00875356
0.0684377
-0.0092196
0.0705408
-0.0096889
0.0727584
-0.010221
0.0750801
-0.0107363
0.0775348
-0.0113474
0.0800995
-0.0119056
0.0828207
-0.0126142
0.0856552
-0.0132065
0.0886748
-0.0140385
0.0918096
-0.0146545
0.0951627
-0.0156429
0.0986342
-0.0162752
0.102359
-0.0174567
0.106212
-0.0181023
0.110353
-0.0195133
0.114636
-0.0201656
0.119239
-0.0218108
0.124002
-0.0224682
0.129112
-0.0242934
0.134402
-0.0250641
0.140063
-0.0269487
0.145952
-0.0280906
0.152222
-0.0299115
0.158794
-0.031566
0.165755
-0.0332748
0.172979
-0.0349501
0.180835
-0.0375192
0.188489
-0.0370138
0.1974
-0.0428522
0.205154
-0.0354741
0.214624
-0.0463668
0.221441
-0.0160511
-0.00261479
-0.00824931
-0.0112853
0.00866034
-0.0077312
-0.0110182
-0.00710111
-0.010685
-0.00636348
-0.0102983
-0.00553031
-0.00987579
-0.00461814
-0.00943461
-0.00364516
-0.00898949
-0.00262903
-0.00855234
-0.00158538
-0.00813184
-0.000526887
-0.00773425
0.000538733
-0.00736765
0.00159821
-0.00701693
0.00264871
-0.00669414
0.00368658
-0.00639724
0.00470924
-0.00612447
0.00571525
-0.00587406
0.00670388
-0.00564421
0.00767489
-0.00543314
0.00862839
-0.00523911
0.00956475
-0.0050605
0.0104845
-0.00489583
0.0113883
-0.00474376
0.0122768
-0.00460312
0.0131507
-0.00447285
0.0140107
-0.00435209
0.0148575
-0.00424003
0.0156918
-0.00413598
0.0165143
-0.00403938
0.0173257
-0.00394966
0.0181265
-0.00386638
0.0189175
-0.00378925
0.0196992
-0.00371775
0.0204723
-0.00365174
0.0212373
-0.00359106
0.021995
-0.00353507
0.0227458
-0.00348425
0.0234905
-0.00343804
0.0242296
-0.00339623
0.0249637
-0.00335964
0.0256936
-0.00332695
0.0264197
-0.00329924
0.0271428
-0.00327599
0.0278637
-0.00325702
0.0285829
-0.00324314
0.0293014
-0.00323327
0.0300196
-0.0032288
0.0307386
-0.00322837
0.031459
-0.00323345
0.0321817
-0.00324322
0.0329076
-0.00325805
0.0336376
-0.00327836
0.0343728
-0.00330362
0.035114
-0.00333511
0.0358624
-0.00337229
0.036619
-0.00341643
0.0373853
-0.0034666
0.0381622
-0.00352423
0.0389513
-0.00358832
0.0397538
-0.00366063
0.0405715
-0.0037402
0.0414057
-0.00382873
0.0422582
-0.00392554
0.0431305
-0.00403174
0.0440248
-0.00414703
0.0449427
-0.00427277
0.0458864
-0.00440921
0.0468583
-0.00455766
0.0478605
-0.00471805
0.0488956
-0.00489107
0.0499662
-0.00507734
0.0510748
-0.0052778
0.0522244
-0.00549243
0.0534177
-0.00572136
0.0546577
-0.00596511
0.0559473
-0.00622511
0.0572902
-0.00650292
0.0586897
-0.00679816
0.0601495
-0.00711194
0.0616729
-0.00744401
0.0632644
-0.00779851
0.0649278
-0.00817349
0.0666685
-0.00857434
0.0684897
-0.00899541
0.0703983
-0.00944695
0.0723965