/*--------------------------------*- C++ -*----------------------------------*\
| =========                 |                                                 |
| \\      /  F ield         | OpenFOAM: The Open Source CFD Toolbox           |
|  \\    /   O peration     | Version:  2412                                  |
|   \\  /    A nd           | Website:  www.openfoam.com                      |
|    \\/     M anipulation  |                                                 |
\*---------------------------------------------------------------------------*/
FoamFile
{
    version     2.0;
    format      ascii;
    arch        "LSB;label=32;scalar=64";
    class       volVectorField;
    location    "0.085";
    object      U;
}
// * * * * * * * * * * * * * * * * * * * * * * * * * * * * * * * * * * * * * //

dimensions      [0 1 -1 0 0 0 0];

internalField   nonuniform List<vector> 
12600
(
(-2.70531 -2.6301e-23 -0.653347)
(-1.5876 -2.50935e-21 -0.0304267)
(-0.965883 -2.79986e-21 0.075237)
(-0.657892 0 0.0736175)
(-0.459566 -3.12594e-21 0.0562541)
(-0.312965 -3.14677e-21 0.0385044)
(-0.197903 0 0.0228053)
(-0.103939 0 0.00926652)
(-0.0253546 1.05421e-20 -0.00240989)
(0.0420649 0 -0.0122544)
(0.100898 -4.4087e-21 -0.0215003)
(0.152536 -3.93798e-21 -0.0299637)
(0.198372 3.46003e-21 -0.0377504)
(0.239516 0 -0.0449264)
(0.276764 2.50049e-21 -0.0515476)
(0.310701 0 -0.0576742)
(0.341804 -6.28019e-21 -0.0633613)
(0.370457 0 -0.0686556)
(0.396972 1.36268e-21 -0.0735978)
(0.421608 4.96446e-22 -0.0782245)
(0.444581 3.30745e-22 -0.0825658)
(0.466071 1.62445e-23 -0.0866485)
(0.486233 0 -0.0904962)
(0.505197 -5.25256e-21 -0.0941304)
(0.523074 0 -0.0975686)
(0.53996 0 -0.100828)
(0.555948 -9.32629e-21 -0.103923)
(0.571113 0 -0.106866)
(0.585523 -3.58772e-23 -0.109668)
(0.599242 1.27971e-20 -0.112342)
(0.61232 1.3848e-20 -0.114895)
(0.624801 1.48398e-20 -0.117336)
(0.636742 -1.57758e-20 -0.119676)
(0.648186 -3.33137e-20 -0.121877)
(0.659163 -3.49627e-20 -0.12397)
(0.669726 3.65706e-20 -0.125988)
(0.679868 0 -0.127922)
(0.689636 -3.92982e-20 -0.129797)
(0.699081 0 -0.131612)
(0.708181 4.17018e-20 -0.13336)
(0.717025 0 -0.135067)
(0.725596 -8.88851e-23 -0.136719)
(0.733915 0 -0.138327)
(0.742041 -8.07616e-23 -0.139901)
(0.749936 9.24229e-20 -0.141431)
(0.75769 -9.36632e-20 -0.142938)
(0.765265 9.4888e-20 -0.144408)
(0.772723 0 -0.14586)
(0.78006 0 -0.147287)
(0.787289 9.75435e-20 -0.148696)
(0.794454 1.9635e-19 -0.150094)
(0.801537 1.9736e-19 -0.151475)
(0.808598 -1.03784e-22 -0.152853)
(0.815617 1.98624e-19 -0.154223)
(0.822651 0 -0.155596)
(0.829684 -1.99255e-19 -0.156969)
(0.83677 -1.99244e-19 -0.158354)
(0.843898 -1.98944e-19 -0.159746)
(0.851112 0 -0.161154)
(0.858409 0 -0.162577)
(0.865828 0 -0.164024)
(0.873381 3.93118e-19 -0.165496)
(0.881097 0 -0.166999)
(0.888988 0 -0.168535)
(0.897077 -7.72711e-19 -0.170109)
(0.905384 0 -0.171724)
(0.913936 0 -0.173385)
(0.922763 0 -0.175099)
(0.931884 7.48156e-19 -0.176868)
(0.941325 -7.41037e-19 -0.178697)
(0.951114 -7.33587e-19 -0.180593)
(0.961273 -1.64142e-22 -0.182559)
(0.971827 7.17699e-19 -0.1846)
(0.982793 0 -0.186718)
(0.994193 -7.00658e-19 -0.18892)
(1.00605 0 -0.191207)
(1.01839 0 -0.193587)
(1.03123 0 -0.196061)
(1.0446 -2.37728e-22 -0.198637)
(1.05849 -1.30824e-18 -0.201311)
(1.07299 -1.28844e-18 -0.204101)
(1.08803 1.26814e-18 -0.206994)
(1.10375 1.24776e-18 -0.210018)
(1.12002 0 -0.213144)
(1.13708 0 -0.216424)
(1.15464 -2.37075e-18 -0.219796)
(1.17316 4.65595e-18 -0.223354)
(1.19205 -4.57031e-18 -0.22698)
(1.21217 -2.24205e-18 -0.230845)
(1.23242 0 -0.23473)
(1.25433 4.30951e-18 -0.238937)
(1.27595 -2.11112e-18 -0.243084)
(1.29983 2.06672e-18 -0.247669)
(1.32282 -4.04584e-18 -0.252076)
(1.34885 0 -0.257073)
(1.3732 0 -0.26174)
(1.40154 0 -0.26718)
(1.42727 0 -0.272114)
(1.45814 0 -0.278032)
(1.48534 0 -0.283241)
(1.51903 3.42668e-18 -0.289696)
(1.54771 6.675e-18 -0.295157)
(1.58475 6.50272e-18 -0.302258)
(1.61444 0 -0.307909)
(1.65549 0 -0.315781)
(1.68508 0 -0.321416)
(1.7308 5.8131e-18 -0.330177)
(1.75978 1.12827e-17 -0.335705)
(1.81029 -5.47384e-18 -0.345372)
(1.84017 0 -0.351075)
(1.89437 1.02838e-17 -0.361446)
(1.92731 0 -0.367732)
(1.98214 9.63648e-18 -0.378237)
(2.01859 -9.3163e-18 -0.385196)
(2.07317 9.00487e-18 -0.395692)
(2.10423 8.68848e-18 -0.401602)
(2.1667 -8.3841e-18 -0.413775)
(2.1486 5.37304e-22 -0.410226)
(2.24052 -7.76083e-18 -0.427989)
(1.85398 0 -0.354042)
(-5.25986 2.66778e-23 -1.50357)
(-3.70348 0 -0.33131)
(-2.60573 2.83989e-21 -0.0140066)
(-1.87917 0 0.0545677)
(-1.35462 3.17139e-21 0.055135)
(-0.953174 6.01824e-21 0.0352807)
(-0.632352 2.93077e-21 0.00987569)
(-0.367167 0 -0.0162665)
(-0.142896 -8.71678e-23 -0.0414852)
(0.0507345 4.84026e-21 -0.0644889)
(0.220586 -4.40571e-21 -0.0871007)
(0.371156 -3.94933e-21 -0.108262)
(0.505807 3.48108e-21 -0.12808)
(0.627432 -3.00743e-21 -0.146673)
(0.738161 -5.07129e-21 -0.164095)
(0.839586 0 -0.180435)
(0.932994 -9.71851e-24 -0.195787)
(1.01944 -2.29017e-21 -0.210235)
(1.09977 -1.38267e-21 -0.223854)
(1.17471 0 -0.236715)
(1.24484 0 -0.24888)
(1.31069 1.12864e-21 -0.260405)
(1.37269 0 -0.271343)
(1.43119 2.65403e-21 -0.28174)
(1.48651 -6.67584e-21 -0.291635)
(1.53893 0 -0.301068)
(1.5887 9.35026e-21 -0.310072)
(1.63604 0 -0.318677)
(1.68114 -1.18395e-20 -0.326909)
(1.7242 -2.58586e-20 -0.334801)
(1.76534 -2.79817e-20 -0.34237)
(1.8047 -1.50207e-20 -0.349635)
(1.84246 1.59637e-20 -0.35663)
(1.8787 6.72925e-20 -0.363324)
(1.91351 7.0611e-20 -0.369752)
(1.94707 0 -0.375972)
(1.97935 0 -0.381959)
(2.01049 9.28788e-23 -0.38776)
(2.04065 0 -0.393395)
(2.06974 -4.20995e-20 -0.398832)
(2.09804 0 -0.404147)
(2.1255 -8.8253e-20 -0.409302)
(2.15217 0 -0.414321)
(2.17824 -9.16077e-20 -0.419241)
(2.20358 0 -0.424025)
(2.22846 9.4312e-20 -0.428739)
(2.25276 0 -0.433342)
(2.27668 0 -0.437885)
(2.30021 -9.71405e-20 -0.442353)
(2.32336 0 -0.446762)
(2.34629 0 -0.451132)
(2.36893 0 -0.45545)
(2.39146 -1.98681e-19 -0.459754)
(2.41383 -3.98086e-19 -0.464027)
(2.43619 0 -0.46831)
(2.45851 0 -0.472585)
(2.48095 1.99134e-19 -0.47689)
(2.50347 1.98932e-19 -0.481209)
(2.5262 0 -0.485574)
(2.54913 0 -0.489979)
(2.57239 0 -0.494451)
(2.596 0 -0.498993)
(2.62004 3.89359e-19 -0.503623)
(2.64457 -3.86822e-19 -0.508344)
(2.66965 7.68301e-19 -0.513175)
(2.69533 0 -0.518122)
(2.72169 0 -0.523206)
(2.74883 0 -0.528438)
(2.7768 -3.18917e-22 -0.533833)
(2.80568 7.33942e-19 -0.539403)
(2.83555 7.25902e-19 -0.545166)
(2.86648 -1.43477e-18 -0.551133)
(2.89853 -2.60463e-22 -0.557319)
(2.93177 6.99642e-19 -0.563731)
(2.96625 6.90682e-19 -0.570384)
(3.00203 0 -0.57729)
(3.03923 0 -0.584467)
(3.07784 0 -0.591918)
(3.118 -1.30329e-18 -0.599667)
(3.15967 0 -0.607706)
(3.20308 0 -0.616082)
(3.24806 -1.24113e-18 -0.624762)
(3.29504 -1.21989e-18 -0.633826)
(3.34357 0 -0.643187)
(3.39442 0 -0.653001)
(3.44668 0 -0.66308)
(3.50176 -4.53142e-18 -0.67371)
(3.55788 4.98531e-22 -0.684533)
(3.61765 -2.17695e-18 -0.696066)
(3.67769 2.1325e-18 -0.707644)
(3.74268 -4.17598e-18 -0.720185)
(3.80664 -2.04314e-18 -0.732517)
(3.87743 -3.9969e-18 -0.746178)
(3.94523 0 -0.759251)
(4.02242 0 -0.774141)
(4.09395 0 -0.787944)
(4.17811 0 -0.804162)
(4.25336 -3.5495e-18 -0.818704)
(4.34512 0 -0.836359)
(4.42425 0 -0.851684)
(4.52447 3.28505e-18 -0.870923)
(4.60755 -3.19702e-18 -0.887046)
(4.71763 -1.24454e-17 -0.908137)
(4.80357 6.04689e-18 -0.924853)
(4.9253 0 -0.948151)
(5.01118 0 -0.964865)
(5.14638 0 -0.990768)
(5.23053 -5.37336e-18 -1.00711)
(5.37966 5.20944e-18 -1.03577)
(5.46577 0 -1.05243)
(5.62611 -1.95399e-17 -1.08331)
(5.72019 -9.45171e-18 -1.10146)
(5.88345 -1.82806e-17 -1.13288)
(5.98753 0 -1.15299)
(6.15125 0 -1.1843)
(6.23949 8.22169e-18 -1.20157)
(6.43181 0 -1.2377)
(6.37587 7.62637e-18 -1.22757)
(6.67975 7.32919e-18 -1.28024)
(5.62984 0 -1.07565)
(-6.30818 0 -2.23817)
(-4.98395 0 -1.0327)
(-3.81073 2.17015e-21 -0.494397)
(-2.88262 0 -0.261476)
(-2.14899 0 -0.164652)
(-1.55901 -2.94152e-21 -0.130508)
(-1.07289 -2.77807e-21 -0.126028)
(-0.662982 0 -0.136386)
(-0.310904 -7.23905e-23 -0.154365)
(-0.0036011 -4.58804e-21 -0.175437)
(0.268538 8.31625e-21 -0.199238)
(0.512181 3.7435e-21 -0.22333)
(0.731665 -1.52065e-23 -0.247166)
(0.931122 2.85065e-21 -0.270593)
(1.11372 2.40131e-21 -0.293376)
(1.28181 -1.95691e-21 -0.315401)
(1.43734 3.03202e-21 -0.336629)
(1.58187 2.17065e-21 -0.357048)
(1.71673 0 -0.376665)
(1.84299 0 -0.395498)
(1.96158 2.54613e-22 -0.413576)
(2.07328 1.01738e-21 -0.43093)
(2.17876 0 -0.447595)
(2.27858 0 -0.463607)
(2.37326 6.32622e-21 -0.478999)
(2.4632 0 -0.493803)
(2.54882 -1.76672e-20 -0.508055)
(2.63046 9.9868e-21 -0.521782)
(2.70842 0 -0.535008)
(2.783 1.22206e-20 -0.547776)
(2.85443 1.32264e-20 -0.560102)
(2.92289 0 -0.571997)
(2.98867 -1.50229e-20 -0.58352)
(3.05193 -3.1819e-20 -0.594671)
(3.11277 -8.56771e-23 -0.605454)
(3.17152 0 -0.615944)
(3.22815 0 -0.62608)
(3.28283 3.75094e-20 -0.635927)
(3.33586 0 -0.645537)
(3.38709 0 -0.654827)
(3.43694 0 -0.663934)
(3.48536 0 -0.672794)
(3.53243 0 -0.681435)
(3.57843 0 -0.689923)
(3.62319 0 -0.69819)
(3.66712 -8.90236e-20 -0.706347)
(3.71006 9.00824e-20 -0.714321)
(3.75229 0 -0.7222)
(3.7938 9.19033e-20 -0.729955)
(3.83466 0 -0.737608)
(3.87507 0 -0.745197)
(3.91495 -1.86913e-19 -0.752694)
(3.95459 0 -0.760166)
(3.9939 1.88126e-19 -0.767584)
(4.03314 -1.88218e-19 -0.775013)
(4.07225 0 -0.782421)
(4.11149 -1.88223e-19 -0.789872)
(4.15079 0 -0.797338)
(4.19039 0 -0.804875)
(4.23027 0 -0.812469)
(4.27062 -3.71607e-19 -0.820168)
(4.31149 -3.69693e-19 -0.827971)
(4.35302 -1.8263e-22 -0.835911)
(4.39528 7.30356e-19 -0.843993)
(4.4384 -1.64492e-22 -0.852247)
(4.48245 0 -0.860685)
(4.52759 0 -0.869338)
(4.57394 7.06184e-19 -0.878227)
(4.62161 -2.66813e-22 -0.887376)
(4.67072 0 -0.896804)
(4.72141 0 -0.906539)
(4.77379 6.76372e-19 -0.9166)
(4.82797 -2.16808e-22 -0.92701)
(4.88404 -2.05957e-22 -0.937783)
(4.94212 0 -0.948943)
(5.0023 0 -0.960507)
(5.06474 1.26465e-18 -0.972508)
(5.12948 -1.24585e-18 -0.984948)
(5.19672 0 -0.997869)
(5.26639 0 -1.01126)
(5.33888 0 -1.02519)
(5.41392 0 -1.03961)
(5.4922 0 -1.05465)
(5.57297 0 -1.07017)
(5.65753 0 -1.08642)
(5.74434 0 -1.10309)
(5.83579 4.25975e-18 -1.12067)
(5.92883 2.08821e-18 -1.13854)
(6.02791 2.04603e-18 -1.15757)
(6.12726 -2.00385e-18 -1.17665)
(6.23489 3.92248e-18 -1.19733)
(6.34048 1.9191e-18 -1.21761)
(6.45769 1.87655e-18 -1.24012)
(6.56929 0 -1.26155)
(6.69714 0 -1.2861)
(6.81446 0 -1.30865)
(6.95402 0 -1.33541)
(7.07687 3.32999e-18 -1.35906)
(7.22925 0 -1.38823)
(7.35779 0 -1.41306)
(7.52433 -3.08013e-18 -1.44484)
(7.65871 0 -1.47093)
(7.84151 5.83192e-18 -1.5057)
(7.98032 -5.66659e-18 -1.53276)
(8.18205 0 -1.57104)
(8.32104 0 -1.59817)
(8.54445 0 -1.64064)
(8.68079 -5.03074e-18 -1.66716)
(8.92672 0 -1.71415)
(9.06548 4.72284e-18 -1.74093)
(9.33012 9.81603e-22 -1.79173)
(9.48063 8.84576e-18 -1.82057)
(9.75141 1.71042e-17 -1.87253)
(9.91744 0 -1.90445)
(10.1913 -7.97638e-18 -1.95638)
(10.33 -7.69036e-18 -1.98375)
(10.6599 -7.41419e-18 -2.04422)
(10.5607 0 -2.02743)
(11.1063 -6.85301e-18 -2.11565)
(9.51355 0 -1.80627)
(-6.58857 0 -2.88587)
(-5.5949 0 -1.795)
(-4.5393 -2.05332e-21 -1.13118)
(-3.58769 0 -0.752298)
(-2.76893 2.49582e-21 -0.542675)
(-2.07152 -5.15861e-21 -0.429542)
(-1.4741 0 -0.37149)
(-0.956559 4.83315e-21 -0.345746)
(-0.502897 -4.63109e-21 -0.339504)
(-0.100969 -4.24284e-21 -0.344755)
(0.259383 -3.91719e-21 -0.358121)
(0.585534 3.49569e-21 -0.376023)
(0.881961 -3.10753e-21 -0.39643)
(1.15333 5.36251e-21 -0.418575)
(1.4034 0 -0.441664)
(1.63498 3.70426e-21 -0.465162)
(1.8504 0 -0.488738)
(2.05158 0 -0.51216)
(2.24014 0 -0.535268)
(2.41742 -5.26961e-22 -0.557954)
(2.58457 -2.35154e-23 -0.580149)
(2.74259 -2.51723e-23 -0.601813)
(2.89231 1.63146e-21 -0.62292)
(3.03448 0 -0.643463)
(3.16972 0 -0.663438)
(3.29859 0 -0.68285)
(3.42159 1.66054e-20 -0.701714)
(3.53919 -5.47636e-23 -0.720043)
(3.65177 0 -0.737842)
(3.75972 0 -0.755146)
(3.86334 0 -0.771967)
(3.96289 0 -0.788297)
(4.05872 2.83619e-20 -0.804204)
(4.15104 0 -0.819664)
(4.24003 -3.14894e-20 -0.834673)
(4.32606 0 -0.849339)
(4.40915 0 -0.863577)
(4.48951 -3.53039e-20 -0.877462)
(4.56752 0 -0.891065)
(4.64301 0 -0.904264)
(4.71649 3.84107e-20 -0.917241)
(4.78795 -7.85592e-20 -0.929905)
(4.85747 0 -0.942289)
(4.92543 -8.15693e-20 -0.954484)
(4.99162 0 -0.966388)
(5.05657 1.68099e-19 -0.978157)
(5.12008 -1.09484e-22 -0.989681)
(5.18251 0 -1.00108)
(5.24387 0 -1.01232)
(5.30426 -8.72449e-20 -1.02342)
(5.36393 -1.75522e-19 -1.03444)
(5.4228 3.52813e-19 -1.04533)
(5.48123 0 -1.05619)
(5.53912 1.77309e-19 -1.06697)
(5.59684 1.77669e-19 -1.07776)
(5.65428 1.77529e-19 -1.08852)
(5.71181 1.77383e-19 -1.09934)
(5.76934 0 -1.11017)
(5.82719 0 -1.1211)
(5.88534 3.51852e-19 -1.13209)
(5.94406 7.00843e-19 -1.14323)
(6.0034 3.4868e-19 -1.1545)
(6.06358 -1.96176e-22 -1.16595)
(6.12466 -3.44248e-19 -1.17758)
(6.18685 -3.41691e-19 -1.18945)
(6.25025 0 -1.20156)
(6.31507 0 -1.21396)
(6.38148 -6.65487e-19 -1.22667)
(6.44963 -1.31731e-18 -1.23974)
(6.51969 0 -1.25318)
(6.59185 -6.44161e-19 -1.26703)
(6.66626 -6.36538e-19 -1.28132)
(6.74307 -6.28895e-19 -1.29608)
(6.82241 -1.24127e-18 -1.31133)
(6.90445 0 -1.3271)
(6.98931 0 -1.34342)
(7.07722 -1.19006e-18 -1.36033)
(7.16822 2.34395e-18 -1.37783)
(7.2626 1.15361e-18 -1.39598)
(7.36026 0 -1.41477)
(7.46175 0 -1.43429)
(7.56667 0 -1.45448)
(7.67599 0 -1.47551)
(7.78866 0 -1.49719)
(7.90651 0 -1.51986)
(8.02734 2.03959e-18 -1.54311)
(8.15456 -4.75534e-22 -1.56758)
(8.28378 -1.96036e-18 -1.59244)
(8.42142 0 -1.61892)
(8.5591 -1.88053e-18 -1.6454)
(8.70848 -1.84079e-18 -1.67414)
(8.85442 0 -1.70221)
(9.01705 1.76017e-18 -1.73348)
(9.17079 3.44032e-18 -1.76307)
(9.34829 0 -1.79717)
(9.50922 0 -1.82818)
(9.70325 0 -1.8654)
(9.87086 3.12087e-18 -1.89778)
(10.0831 0 -1.93839)
(10.2574 0 -1.97221)
(10.4896 -2.88532e-18 -2.0165)
(10.671 2.8066e-18 -2.05188)
(10.9257 0 -2.10027)
(11.1127 0 -2.13693)
(11.393 0 -2.19004)
(11.5806 0 -2.22689)
(11.8901 0 -2.2856)
(12.0744 6.5956e-22 -2.32165)
(12.4141 0 -2.38654)
(12.6009 -4.41946e-18 -2.42272)
(12.9665 8.55489e-18 -2.49297)
(13.1676 0 -2.53156)
(13.5435 -9.98946e-22 -2.60374)
(13.764 0 -2.64623)
(14.1484 8.85758e-22 -2.71881)
(14.3274 0 -2.75479)
(14.8029 6.93198e-18 -2.84023)
(14.6527 0 -2.81637)
(15.4614 -6.40484e-18 -2.93918)
(13.4674 0 -2.54796)
(-6.45637 0 -3.44489)
(-5.73561 0 -2.49764)
(-4.86497 0 -1.80265)
(-3.99467 0 -1.33191)
(-3.18507 -2.35756e-21 -1.02588)
(-2.45411 5.90602e-23 -0.831054)
(-1.80075 0 -0.709212)
(-1.21683 -4.56543e-21 -0.635188)
(-0.692706 0 -0.592876)
(-0.219867 7.96627e-21 -0.571645)
(0.210331 0 -0.564911)
(0.604473 -3.302e-21 -0.568677)
(0.966577 0 -0.578707)
(1.30094 -5.0653e-21 -0.593562)
(1.61145 2.13621e-21 -0.611783)
(1.90101 -3.49985e-21 -0.632283)
(2.17201 2.73301e-21 -0.654332)
(2.42654 1.97792e-21 -0.677393)
(2.66632 0 -0.701064)
(2.89283 4.97708e-22 -0.725052)
(3.10735 -2.05282e-22 -0.749142)
(3.31097 -1.74673e-21 -0.773174)
(3.50465 -1.54078e-21 -0.797028)
(3.68921 0 -0.820621)
(3.86538 0 -0.843889)
(4.0338 0 -0.866785)
(4.19505 -7.81418e-21 -0.889286)
(4.34966 -8.86747e-21 -0.911373)
(4.49808 0 -0.933018)
(4.64074 0 -0.954236)
(4.77804 1.16668e-20 -0.975021)
(4.91026 0 -0.995341)
(5.03779 -4.79372e-23 -1.01526)
(5.16094 -2.8141e-20 -1.03474)
(5.27986 2.95495e-20 -1.05376)
(5.39502 0 -1.07244)
(5.50648 0 -1.09066)
(5.61444 3.33214e-20 -1.10851)
(5.71936 0 -1.12607)
(5.82109 0 -1.14319)
(5.92017 -3.62473e-20 -1.16006)
(6.01664 7.41298e-20 -1.17658)
(6.11058 0 -1.19279)
(6.20246 7.69598e-20 -1.20879)
(6.29205 0 -1.22445)
(6.37993 -7.92342e-20 -1.23996)
(6.46591 -8.01702e-20 -1.25518)
(6.55043 0 -1.27026)
(6.63349 -8.15934e-20 -1.28515)
(6.71522 8.22768e-20 -1.29987)
(6.79593 3.30848e-19 -1.31449)
(6.87553 -1.66251e-19 -1.32895)
(6.95445 1.66644e-19 -1.34338)
(7.0326 -1.53182e-22 -1.35771)
(7.11039 0 -1.37205)
(7.18773 -1.67327e-19 -1.38635)
(7.26504 -1.67172e-19 -1.40072)
(7.34226 1.66712e-19 -1.41509)
(7.41975 -1.66253e-19 -1.42958)
(7.49752 -3.31493e-19 -1.44415)
(7.57587 -3.30006e-19 -1.45889)
(7.6549 3.28032e-19 -1.47378)
(7.73486 -3.26245e-19 -1.48889)
(7.81585 0 -1.50422)
(7.89812 0 -1.51983)
(7.98181 -3.18738e-19 -1.53573)
(8.06719 0 -1.552)
(8.15444 0 -1.56864)
(8.2438 6.19721e-19 -1.58571)
(8.33545 0 -1.60324)
(8.42964 6.06053e-19 -1.62127)
(8.52655 1.19735e-18 -1.63984)
(8.6264 0 -1.65899)
(8.72932 5.83563e-19 -1.67873)
(8.83554 0 -1.69911)
(8.94521 0 -1.72017)
(9.05864 1.11794e-18 -1.74196)
(9.17586 -1.10134e-18 -1.76447)
(9.29724 -3.42384e-22 -1.78779)
(9.42267 0 -1.81189)
(9.55283 0 -1.8369)
(9.6872 0 -1.86273)
(9.82704 1.01239e-18 -1.88961)
(9.97097 -9.94072e-19 -1.91727)
(10.1214 0 -1.94618)
(10.2754 -3.82864e-18 -1.97577)
(10.4374 -1.87712e-18 -2.00692)
(10.6017 3.67878e-18 -2.03849)
(10.7768 1.80144e-18 -2.07213)
(10.9514 3.52787e-18 -2.10569)
(11.1412 0 -2.14216)
(11.3257 0 -2.17763)
(11.5324 -1.65043e-18 -2.2173)
(11.7259 -3.22533e-18 -2.25455)
(11.9517 3.14897e-18 -2.29783)
(12.1533 0 -2.33668)
(12.4005 0 -2.38398)
(12.6092 -2.92405e-18 -2.42432)
(12.8802 -2.84928e-18 -2.47602)
(13.0957 0 -2.51791)
(13.3926 2.70215e-18 -2.57433)
(13.6154 -2.62806e-18 -2.61797)
(13.9409 0 -2.67951)
(14.17 0 -2.72468)
(14.5272 0 -2.79196)
(14.7576 0 -2.83748)
(15.1501 0 -2.91155)
(15.3771 4.40518e-18 -2.95615)
(15.8065 0 -3.03788)
(16.0358 0 -3.08236)
(16.4979 0 -3.17098)
(16.7427 -7.73622e-18 -3.21784)
(17.2199 -7.47903e-18 -3.30934)
(17.4857 0 -3.36052)
(17.9804 6.97278e-18 -3.45318)
(18.1867 0 -3.49568)
(18.8148 6.47792e-18 -3.60569)
(18.6058 0 -3.57498)
(19.6824 5.98553e-18 -3.72971)
(17.4393 0 -3.28653)
(-6.1071 1.17726e-21 -3.92937)
(-5.5814 1.51955e-21 -3.12166)
(-4.89182 -1.80053e-21 -2.45289)
(-4.14485 -2.00003e-21 -1.94149)
(-3.40125 0 -1.56865)
(-2.69215 2.21106e-21 -1.30422)
(-2.03072 0 -1.11996)
(-1.41977 -4.14489e-21 -0.993591)
(-0.857097 -3.93918e-21 -0.908765)
(-0.338867 -7.4138e-21 -0.853742)
(0.140288 3.38451e-21 -0.819907)
(0.585259 -3.05984e-21 -0.802762)
(0.999258 0 -0.796182)
(1.38518 0 -0.798123)
(1.74671 -2.01483e-21 -0.806439)
(2.08647 3.5419e-24 -0.819456)
(2.40667 6.45296e-25 -0.835989)
(2.70928 6.8119e-24 -0.855146)
(2.99601 0 -0.876239)
(3.2683 0 -0.898742)
(3.52742 0 -0.922254)
(3.77451 1.60417e-21 -0.946462)
(4.01052 1.40692e-21 -0.971122)
(4.23632 0 -0.996046)
(4.45267 0 -1.02109)
(4.66023 6.226e-21 -1.04613)
(4.85963 0 -1.07108)
(5.05142 0 -1.09589)
(5.23609 0 -1.12047)
(5.41409 0 -1.14481)
(5.58587 -4.89312e-23 -1.16887)
(5.75172 0 -1.19259)
(5.91207 -4.67593e-23 -1.21601)
(6.06726 2.65287e-20 -1.23908)
(6.21747 -8.79724e-23 -1.26175)
(6.36319 0 -1.28413)
(6.50451 0 -1.30611)
(6.64166 0 -1.32773)
(6.77513 0 -1.3491)
(6.90479 0 -1.37002)
(7.03119 0 -1.39072)
(7.15442 0 -1.41107)
(7.27457 -7.09947e-20 -1.43109)
(7.39213 -7.22715e-20 -1.45092)
(7.50691 0 -1.47038)
(7.61951 -7.44259e-20 -1.4897)
(7.72977 0 -1.5087)
(7.83813 0 -1.52756)
(7.94465 1.53607e-19 -1.5462)
(8.04947 0 -1.56468)
(8.15291 -1.55705e-19 -1.58303)
(8.25494 0 -1.60122)
(8.35599 -3.13665e-19 -1.61936)
(8.456 -1.53807e-22 -1.6374)
(8.55543 0 -1.65546)
(8.65419 0 -1.67346)
(8.75275 0 -1.69153)
(8.85106 -3.13692e-19 -1.70961)
(8.94955 3.12803e-19 -1.72782)
(9.04823 3.115e-19 -1.74612)
(9.14746 3.10091e-19 -1.76461)
(9.24733 -6.17035e-19 -1.78328)
(9.34817 -3.06531e-19 -1.80219)
(9.4501 0 -1.82135)
(9.55341 0 -1.84083)
(9.65826 1.6731e-22 -1.86065)
(9.76498 0 -1.88088)
(9.8738 0 -1.90155)
(9.98499 5.82042e-19 -1.92271)
(10.0988 0 -1.9444)
(10.2154 0 -1.96667)
(10.3352 -1.12474e-18 -1.98957)
(10.4583 5.55155e-19 -2.01313)
(10.585 0 -2.03738)
(10.7155 0 -2.06238)
(10.8499 0 -2.08816)
(10.9887 -1.04991e-18 -2.11479)
(11.1319 0 -2.14227)
(11.2799 -2.0347e-18 -2.17068)
(11.4326 1.00062e-18 -2.2)
(11.5909 0 -2.2304)
(11.754 0 -2.26174)
(11.9235 -9.50001e-19 -2.29431)
(12.0977 2.71354e-22 -2.32779)
(12.2797 -9.14972e-19 -2.36274)
(12.4655 1.79538e-18 -2.39846)
(12.6612 -1.75956e-18 -2.43604)
(12.8589 -1.72463e-18 -2.47406)
(13.07 -1.68901e-18 -2.51459)
(13.2795 -4.03997e-22 -2.55489)
(13.5081 0 -2.59878)
(13.7288 1.58166e-18 -2.64123)
(13.9777 0 -2.68897)
(14.2081 0 -2.73337)
(14.4803 -2.94998e-18 -2.78549)
(14.7189 0 -2.83154)
(15.0177 0 -2.88861)
(15.2626 0 -2.9361)
(15.591 2.6678e-18 -2.99861)
(15.8418 0 -3.04758)
(16.2023 2.52851e-18 -3.11588)
(16.4598 0 -3.1666)
(16.8545 0 -3.241)
(17.1187 0 -3.29344)
(17.5501 0 -3.37441)
(17.8166 0 -3.42743)
(18.288 4.25015e-18 -3.51609)
(18.5517 4.11891e-18 -3.5682)
(19.0654 -3.99117e-18 -3.66575)
(19.3308 0 -3.71744)
(19.8833 0 -3.82334)
(20.1642 1.44642e-17 -3.87711)
(20.7374 0 -3.98697)
(21.0375 -6.74867e-18 -4.04497)
(21.6415 0 -4.15727)
(21.8595 -6.27939e-18 -4.20398)
(22.6439 -6.05349e-18 -4.33826)
(22.3717 0 -4.30123)
(23.699 5.59145e-18 -4.48203)
(21.3604 0 -4.01311)
(-5.65421 -1.10847e-21 -4.35643)
(-5.2586 -2.93472e-21 -3.67055)
(-4.71719 1.69584e-21 -3.05496)
(-4.0962 2.55409e-23 -2.54097)
(-3.44328 -1.94886e-21 -2.13248)
(-2.78996 0 -1.81816)
(-2.15558 0 -1.58139)
(-1.55016 3.90438e-21 -1.40584)
(-0.977637 7.34566e-21 -1.27754)
(-0.438757 6.17385e-23 -1.18532)
(0.0680925 -3.18812e-21 -1.12039)
(0.545933 2.88228e-21 -1.07741)
(0.996539 -2.53119e-21 -1.04934)
(1.42088 0 -1.03364)
(1.8222 0 -1.02759)
(2.20253 1.55118e-21 -1.02898)
(2.56367 -4.84924e-21 -1.03619)
(2.90731 -3.52638e-21 -1.04795)
(3.23494 0 -1.06328)
(3.54785 0 -1.08141)
(3.84723 0 -1.10172)
(4.13409 -1.65758e-23 -1.12372)
(4.40937 -2.63131e-21 -1.14704)
(4.67387 1.86234e-21 -1.17135)
(4.92834 4.79359e-21 -1.19641)
(5.17343 -1.16815e-20 -1.22202)
(5.40973 6.79751e-21 -1.24801)
(5.6378 7.73204e-21 -1.27426)
(5.85811 8.62116e-21 -1.30063)
(6.07114 0 -1.32707)
(6.27731 -1.03114e-20 -1.35349)
(6.47695 1.102e-20 -1.37979)
(6.67046 -1.17767e-20 -1.40599)
(6.85821 -2.48039e-20 -1.43202)
(7.04039 -5.21996e-20 -1.45778)
(7.21747 0 -1.48339)
(7.38962 0 -1.50869)
(7.55702 -2.93417e-20 -1.53372)
(7.72019 0 -1.55859)
(7.87902 3.11535e-20 -1.58307)
(8.03405 3.19525e-20 -1.60738)
(8.18541 0 -1.63139)
(8.33319 1.33504e-19 -1.65511)
(8.47791 6.80136e-20 -1.67866)
(8.61938 0 -1.70187)
(8.75823 7.00331e-20 -1.72495)
(8.8943 7.0757e-20 -1.74773)
(9.02806 0 -1.77038)
(9.15959 -1.44324e-19 -1.79281)
(9.28905 7.26347e-20 -1.81508)
(9.41678 1.46123e-19 -1.83723)
(9.54276 0 -1.85922)
(9.66745 1.61202e-22 -1.88116)
(9.7908 -2.95308e-19 -1.903)
(9.91331 0 -1.92487)
(10.0349 0 -1.94668)
(10.1561 1.47582e-19 -1.96857)
(10.2768 1.47404e-19 -1.99047)
(10.3976 -2.93835e-19 -2.01251)
(10.5184 -2.92817e-19 -2.03465)
(10.6396 -2.91467e-19 -2.057)
(10.7614 2.89865e-19 -2.07953)
(10.8842 5.75941e-19 -2.10234)
(11.008 0 -2.12542)
(11.1332 0 -2.14886)
(11.26 5.62744e-19 -2.17266)
(11.3887 0 -2.19693)
(11.5197 0 -2.22168)
(11.6533 -5.4666e-19 -2.24697)
(11.7896 0 -2.27285)
(11.9291 5.3414e-19 -2.29938)
(12.0719 2.46938e-22 -2.3266)
(12.2185 -5.21182e-19 -2.35456)
(12.3689 0 -2.38328)
(12.5235 0 -2.41284)
(12.6825 0 -2.44327)
(12.8463 -9.84464e-19 -2.47465)
(13.015 0 -2.50697)
(13.1891 9.54267e-19 -2.54034)
(13.3684 -1.87691e-18 -2.57472)
(13.5539 0 -2.61031)
(13.7447 0 -2.64695)
(13.9429 0 -2.68499)
(14.1461 2.71364e-22 -2.72402)
(14.3582 8.57757e-19 -2.76473)
(14.5744 1.68195e-18 -2.80627)
(14.802 1.64912e-18 -2.84994)
(15.0313 -1.61532e-18 -2.89402)
(15.2764 0 -2.94105)
(15.5186 -1.5487e-18 -2.98763)
(15.7839 0 -3.0385)
(16.0378 -1.48148e-18 -3.08739)
(16.3268 0 -3.14272)
(16.5905 0 -3.19358)
(16.9071 0 -3.25407)
(17.178 2.69424e-18 -3.30649)
(17.5265 2.62772e-18 -3.37285)
(17.8022 0 -3.42648)
(18.1864 -2.49575e-18 -3.49936)
(18.4658 2.42982e-18 -3.55418)
(18.8882 -2.36585e-18 -3.63391)
(19.1728 2.30002e-18 -3.69034)
(19.6347 0 -3.77703)
(19.926 0 -3.83531)
(20.4283 0 -3.92916)
(20.7234 0 -3.98833)
(21.2687 -3.97425e-18 -4.0904)
(21.5623 -6.32353e-22 -4.14879)
(22.1535 7.46214e-18 -4.26069)
(22.4482 0 -4.31829)
(23.0837 0 -4.43992)
(23.3919 -6.75905e-18 -4.49893)
(24.055 0 -4.62577)
(24.3768 6.30663e-18 -4.68829)
(25.088 0 -4.8192)
(25.3008 1.17336e-17 -4.86763)
(26.2395 0 -5.0241)
(25.9066 0 -4.98279)
(27.4436 -5.22327e-18 -5.18209)
(25.1498 0 -4.71265)
(-5.16157 0 -4.74194)
(-4.84975 1.41442e-21 -4.15644)
(-4.41921 0 -3.6021)
(-3.90776 1.74826e-21 -3.109)
(-3.34799 3.62076e-21 -2.69041)
(-2.76534 0 -2.34691)
(-2.17915 -1.7965e-21 -2.07173)
(-1.60242 0 -1.85513)
(-1.04283 -8.56989e-23 -1.68704)
(-0.504621 6.33467e-21 -1.55825)
(0.0105198 0 -1.46096)
(0.503997 0 -1.3896)
(0.975883 2.38152e-21 -1.33694)
(1.42496 0 -1.30017)
(1.85391 0 -1.27621)
(2.26405 0 -1.26247)
(2.65659 2.27746e-21 -1.25696)
(3.0328 1.65855e-21 -1.2581)
(3.39384 1.04663e-21 -1.26464)
(3.74076 0 -1.27555)
(4.07453 0 -1.29001)
(4.39603 -6.85886e-22 -1.30736)
(4.70606 1.22883e-21 -1.32706)
(5.00532 -1.75196e-21 -1.34866)
(5.29449 -4.50937e-21 -1.37182)
(5.57414 1.09074e-20 -1.39621)
(5.84482 -4.0548e-23 -1.42161)
(6.10703 -7.27308e-21 -1.44781)
(6.36123 -8.10921e-21 -1.47461)
(6.60783 0 -1.5019)
(6.84726 0 -1.52955)
(7.07981 -1.03647e-20 -1.55741)
(7.30586 0 -1.58546)
(7.52578 2.33274e-20 -1.6136)
(7.73975 2.45053e-20 -1.6417)
(7.94821 -2.55296e-20 -1.66985)
(8.15135 0 -1.69787)
(8.34933 2.7591e-20 -1.72578)
(8.54267 2.84059e-20 -1.75367)
(8.73128 -6.97823e-23 -1.78129)
(8.91565 -6.0017e-20 -1.80885)
(9.09596 0 -1.8362)
(9.27228 -6.26956e-20 -1.86334)
(9.44513 0 -1.89038)
(9.61435 0 -1.91714)
(9.78054 0 -1.94383)
(9.94359 -1.05332e-22 -1.97025)
(10.1039 0 -1.99659)
(10.2617 6.77749e-20 -2.02274)
(10.417 -1.3643e-19 -2.04875)
(10.5703 -1.37316e-19 -2.07468)
(10.7215 0 -2.10044)
(10.8711 1.38377e-19 -2.1262)
(11.019 2.7716e-19 -2.15185)
(11.1659 0 -2.17756)
(11.3115 0 -2.20321)
(11.4565 -1.38632e-19 -2.22896)
(11.6007 -1.38212e-19 -2.25473)
(11.7449 1.37932e-19 -2.28066)
(11.8888 2.74558e-19 -2.30669)
(12.0331 0 -2.33295)
(12.1778 0 -2.35942)
(12.3233 -1.95091e-22 -2.38617)
(12.4698 2.68193e-19 -2.41322)
(12.6176 0 -2.44064)
(12.767 -2.64041e-19 -2.46847)
(12.9184 0 -2.49679)
(13.0721 0 -2.52563)
(13.2283 0 -2.55506)
(13.3875 0 -2.58512)
(13.5499 -2.6022e-22 -2.61589)
(13.7159 2.47371e-22 -2.64739)
(13.8858 4.88451e-19 -2.67969)
(14.0598 0 -2.7128)
(14.2383 4.75234e-19 -2.74683)
(14.4214 0 -2.78179)
(14.6098 9.23129e-19 -2.81778)
(14.8033 -9.08463e-19 -2.85479)
(15.0027 8.93952e-19 -2.89294)
(15.2076 8.79556e-19 -2.93219)
(15.4193 0 -2.97274)
(15.6367 -8.49218e-19 -3.01443)
(15.8621 0 -3.05765)
(16.0928 8.18888e-19 -3.10193)
(16.3335 8.03131e-19 -3.14807)
(16.5781 -1.57565e-18 -3.19505)
(16.8357 0 -3.24444)
(17.0943 3.02535e-18 -3.29414)
(17.3713 0 -3.34723)
(17.6433 -1.44941e-18 -3.39957)
(17.943 0 -3.45695)
(18.2268 -1.38624e-18 -3.51164)
(18.5534 0 -3.57407)
(18.8462 -2.6463e-18 -3.63065)
(19.2049 2.58328e-18 -3.69899)
(19.5029 -2.52126e-18 -3.75685)
(19.899 -2.45876e-18 -3.83204)
(20.1989 0 -3.89067)
(20.6371 4.66909e-18 -3.97347)
(20.9374 -4.5453e-18 -4.0328)
(21.4201 0 -4.12352)
(21.7232 -2.15106e-18 -4.18416)
(22.2499 0 -4.28259)
(22.5597 0 -4.34519)
(23.1288 3.94631e-18 -4.45102)
(23.4448 0 -4.51497)
(24.0573 0 -4.62914)
(24.3739 -3.59921e-18 -4.69259)
(25.0344 -6.97337e-18 -4.81723)
(25.3511 -3.37479e-18 -4.87944)
(26.0608 0 -5.01509)
(26.3871 0 -5.07766)
(27.1325 0 -5.21995)
(27.462 0 -5.28465)
(28.2766 -5.68617e-18 -5.43293)
(28.4675 -5.48025e-18 -5.48076)
(29.5507 0 -5.65654)
(29.1676 0 -5.61379)
(30.8548 0 -5.81938)
(28.7203 0 -5.37122)
(-4.66347 -1.2541e-21 -5.09928)
(-4.40514 0 -4.59437)
(-4.05393 -1.49525e-21 -4.09932)
(-3.62991 0 -3.63861)
(-3.15367 -1.6797e-21 -3.22741)
(-2.64306 0 -2.87227)
(-2.11413 1.68848e-21 -2.57312)
(-1.57961 -3.17382e-21 -2.32592)
(-1.04857 -6.1704e-21 -2.12472)
(-0.527305 -8.47366e-23 -1.96301)
(-0.0197686 0 -1.83488)
(0.47443 0 -1.73466)
(0.953584 0 -1.65618)
(1.41441 0 -1.59638)
(1.85902 0 -1.55211)
(2.288 0 -1.52062)
(2.7019 -2.08931e-21 -1.49968)
(3.10151 1.52602e-21 -1.48747)
(3.48757 -9.83677e-22 -1.48252)
(3.86085 0 -1.4836)
(4.22206 0 -1.4897)
(4.57186 6.30829e-22 -1.5)
(4.91088 1.13434e-21 -1.51381)
(5.23971 1.62061e-21 -1.53057)
(5.55887 0 -1.54979)
(5.86885 -5.10689e-21 -1.57108)
(6.17012 -1.19082e-20 -1.59412)
(6.46309 6.75983e-21 -1.61861)
(6.74816 0 -1.64431)
(7.02569 0 -1.67102)
(7.29604 0 -1.69857)
(7.5595 9.65963e-21 -1.72677)
(7.81636 0 -1.75553)
(8.06699 0 -1.78473)
(8.31154 2.2871e-20 -1.81421)
(8.5504 2.39848e-20 -1.84401)
(8.78376 0 -1.87396)
(9.01177 2.57785e-20 -1.90401)
(9.23488 -5.32991e-20 -1.93425)
(9.45305 -2.74504e-20 -1.96441)
(9.6667 2.81559e-20 -1.99466)
(9.87602 0 -2.02486)
(10.0811 0 -2.05498)
(10.2824 0 -2.08512)
(10.4798 6.06616e-20 -2.11508)
(10.6738 0 -2.14506)
(10.8644 -6.23567e-20 -2.17486)
(11.052 -6.29019e-20 -2.20464)
(11.2368 0 -2.23431)
(11.4187 6.40062e-20 -2.26388)
(11.5984 0 -2.29342)
(11.7756 0 -2.32285)
(11.951 1.29598e-19 -2.3523)
(12.1244 -1.50508e-22 -2.38168)
(12.2964 -1.30006e-19 -2.41115)
(12.467 0 -2.44059)
(12.6366 0 -2.47016)
(12.8053 1.29712e-19 -2.49976)
(12.9737 0 -2.52954)
(13.1416 -2.57639e-19 -2.55945)
(13.3097 0 -2.58961)
(13.4779 0 -2.61998)
(13.6469 -5.06601e-19 -2.65067)
(13.8166 -5.03005e-19 -2.68167)
(13.9876 -2.4946e-19 -2.71306)
(14.1601 0 -2.74489)
(14.3345 0 -2.77723)
(14.5111 -2.42664e-19 -2.81013)
(14.6903 -4.80256e-19 -2.84364)
(14.8724 0 -2.87781)
(15.0578 -4.69639e-19 -2.91273)
(15.2468 4.63858e-19 -2.94843)
(15.4398 -4.5789e-19 -2.98496)
(15.6371 4.5151e-19 -3.02235)
(15.839 -4.45421e-19 -3.06069)
(16.0457 0 -3.10003)
(16.2578 0 -3.14045)
(16.4754 8.51243e-19 -3.18195)
(16.699 -1.67479e-18 -3.22464)
(16.9284 0 -3.26849)
(17.1651 0 -3.31374)
(17.4075 7.95435e-19 -3.36017)
(17.6587 0 -3.40825)
(17.9151 0 -3.45741)
(18.1824 -7.52053e-19 -3.5086)
(18.4533 -1.47434e-18 -3.56059)
(18.7388 0 -3.61526)
(19.0241 -1.41586e-18 -3.67007)
(19.3306 0 -3.72873)
(19.6292 1.35658e-18 -3.78623)
(19.9608 -1.32645e-18 -3.84959)
(20.2705 1.29721e-18 -3.90938)
(20.6323 1.26714e-18 -3.97834)
(20.9493 6.62695e-22 -4.03978)
(21.3476 -2.41671e-18 -4.11541)
(21.6669 0 -4.17767)
(22.1086 2.2987e-18 -4.26114)
(22.4254 -2.24026e-18 -4.32351)
(22.9159 -2.18299e-18 -4.41573)
(23.2286 4.24938e-18 -4.4781)
(23.7696 0 -4.57927)
(24.0822 -2.01027e-18 -4.64253)
(24.6707 0 -4.75194)
(24.9902 0 -4.81731)
(25.6209 -3.68869e-18 -4.934)
(25.95 0 -5.00136)