/*--------------------------------*- C++ -*----------------------------------*\
| =========                 |                                                 |
| \\      /  F ield         | OpenFOAM: The Open Source CFD Toolbox           |
|  \\    /   O peration     | Version:  2412                                  |
|   \\  /    A nd           | Website:  www.openfoam.com                      |
|    \\/     M anipulation  |                                                 |
\*---------------------------------------------------------------------------*/
FoamFile
{
    version     2.0;
    format      ascii;
    arch        "LSB;label=32;scalar=64";
    class       volVectorField;
    location    "0.085";
    object      U_0;
}
// * * * * * * * * * * * * * * * * * * * * * * * * * * * * * * * * * * * * * //

dimensions      [0 1 -1 0 0 0 0];

internalField   nonuniform List<vector> 
12600
(
(-2.70964 -2.69069e-23 -0.653643)
(-1.59108 -2.51475e-21 -0.0302181)
(-0.968591 -2.80745e-21 0.0755531)
(-0.660158 0 0.0739357)
(-0.46154 -3.13619e-21 0.0565549)
(-0.314726 -3.15774e-21 0.0387848)
(-0.199498 0 0.0230656)
(-0.105397 0 0.00950588)
(-0.0267066 1.05864e-20 -0.00219913)
(0.0408074 0 -0.0120333)
(0.0997231 -4.43063e-21 -0.0212941)
(0.151429 -3.9598e-21 -0.0297667)
(0.197322 3.48171e-21 -0.0375612)
(0.238517 0 -0.044745)
(0.275812 2.52185e-21 -0.0513737)
(0.309793 0 -0.0575074)
(0.340937 -6.36481e-21 -0.0632012)
(0.369628 0 -0.0685018)
(0.39618 1.40367e-21 -0.0734503)
(0.420849 5.36555e-22 -0.0780828)
(0.443854 2.91657e-22 -0.0824296)
(0.465374 1.62019e-23 -0.0865175)
(0.485565 0 -0.0903703)
(0.504555 -5.18e-21 -0.0940091)
(0.522457 0 -0.0974519)
(0.539369 0 -0.100716)
(0.555379 -9.26024e-21 -0.103815)
(0.570566 0 -0.106762)
(0.584998 -3.58451e-23 -0.109568)
(0.598737 1.27371e-20 -0.112246)
(0.611834 1.37884e-20 -0.114802)
(0.624333 1.47831e-20 -0.117246)
(0.636292 -1.57208e-20 -0.119589)
(0.647753 -3.32033e-20 -0.121796)
(0.658746 -3.48629e-20 -0.123891)
(0.669324 3.64703e-20 -0.125912)
(0.679481 0 -0.127849)
(0.689264 -3.92115e-20 -0.129727)
(0.698723 0 -0.131544)
(0.707836 4.16193e-20 -0.133294)
(0.716693 0 -0.135004)
(0.725276 -8.88287e-23 -0.136658)
(0.733608 0 -0.138268)
(0.741745 -8.07762e-23 -0.139844)
(0.74965 9.2289e-20 -0.141376)
(0.757415 -9.35185e-20 -0.142885)
(0.765 9.47624e-20 -0.144357)
(0.772468 0 -0.145811)
(0.779814 0 -0.14724)
(0.787052 9.74322e-20 -0.14865)
(0.794226 1.96125e-19 -0.15005)
(0.801318 1.97164e-19 -0.151433)
(0.808387 -1.03741e-22 -0.152812)
(0.815413 1.98452e-19 -0.154183)
(0.822454 0 -0.155558)
(0.829494 -1.99097e-19 -0.156933)
(0.836587 -1.99068e-19 -0.158319)
(0.843722 -1.98802e-19 -0.159711)
(0.850941 0 -0.16112)
(0.858245 0 -0.162545)
(0.86567 0 -0.163993)
(0.873229 3.92887e-19 -0.165466)
(0.88095 0 -0.16697)
(0.888846 0 -0.168507)
(0.89694 -7.72289e-19 -0.170082)
(0.905252 0 -0.171698)
(0.913809 0 -0.17336)
(0.92264 0 -0.175074)
(0.931766 7.47847e-19 -0.176844)
(0.941211 -7.40773e-19 -0.178675)
(0.951004 -7.33322e-19 -0.180571)
(0.961167 -1.64183e-22 -0.182538)
(0.971725 7.17471e-19 -0.184579)
(0.982694 0 -0.186699)
(0.994098 -7.00472e-19 -0.188901)
(1.00596 0 -0.191189)
(1.0183 0 -0.193569)
(1.03114 0 -0.196044)
(1.04452 -2.37779e-22 -0.19862)
(1.05841 -1.30805e-18 -0.201295)
(1.07291 -1.28827e-18 -0.204085)
(1.08795 1.26799e-18 -0.206979)
(1.10368 1.24762e-18 -0.210004)
(1.11995 0 -0.21313)
(1.13701 0 -0.21641)
(1.15457 -2.37058e-18 -0.219782)
(1.17309 4.65572e-18 -0.223341)
(1.19199 -4.57013e-18 -0.226967)
(1.21211 -2.24198e-18 -0.230833)
(1.23237 0 -0.234719)
(1.25427 4.30946e-18 -0.238926)
(1.2759 -2.11113e-18 -0.243073)
(1.29978 2.06674e-18 -0.247658)
(1.32277 -4.04595e-18 -0.252066)
(1.3488 0 -0.257063)
(1.37315 0 -0.261731)
(1.4015 0 -0.26717)
(1.42724 0 -0.272106)
(1.4581 0 -0.278023)
(1.48531 0 -0.283233)
(1.51899 3.42701e-18 -0.289688)
(1.54768 6.67569e-18 -0.29515)
(1.58472 6.5034e-18 -0.302251)
(1.61441 0 -0.307903)
(1.65547 0 -0.315774)
(1.68506 0 -0.321411)
(1.73077 5.8139e-18 -0.330172)
(1.75976 1.12844e-17 -0.335701)
(1.81027 -5.47465e-18 -0.345368)
(1.84016 0 -0.351072)
(1.89437 1.02855e-17 -0.361443)
(1.92729 0 -0.367729)
(1.98213 9.63813e-18 -0.378236)
(2.01859 -9.31796e-18 -0.385195)
(2.07317 9.0065e-18 -0.395691)
(2.10424 8.69011e-18 -0.401604)
(2.1667 -8.38571e-18 -0.413775)
(2.14864 5.37504e-22 -0.410232)
(2.24054 -7.7624e-18 -0.427991)
(1.85398 0 -0.354042)
(-5.26906 2.72924e-23 -1.50424)
(-3.71136 0 -0.33096)
(-2.61251 2.84759e-21 -0.0133823)
(-1.88512 0 0.055264)
(-1.35994 3.18179e-21 0.0558414)
(-0.958004 6.0397e-21 0.0359723)
(-0.636787 2.94178e-21 0.0105433)
(-0.371274 0 -0.0156282)
(-0.146728 -8.72707e-23 -0.0408906)
(0.04714 4.86257e-21 -0.0638849)
(0.217198 -4.42783e-21 -0.0865232)
(0.367958 -3.97134e-21 -0.107708)
(0.502769 3.50293e-21 -0.127547)
(0.624537 -3.02913e-21 -0.146159)
(0.735398 -5.11454e-21 -0.163601)
(0.836945 0 -0.179959)
(0.930466 -9.50282e-24 -0.195329)
(1.01701 -2.33236e-21 -0.209794)
(1.09745 -1.42426e-21 -0.22343)
(1.17248 0 -0.236306)
(1.2427 0 -0.248486)
(1.30864 1.08998e-21 -0.260025)
(1.37071 0 -0.270976)
(1.42928 2.61726e-21 -0.281386)
(1.48468 -6.60431e-21 -0.291294)
(1.53716 0 -0.300739)
(1.587 9.28352e-21 -0.309755)
(1.6344 0 -0.318371)
(1.67956 -1.17765e-20 -0.326613)
(1.72268 -2.57372e-20 -0.334516)
(1.76388 -2.78609e-20 -0.342094)
(1.80329 -1.49634e-20 -0.349369)
(1.84109 1.5908e-20 -0.356373)
(1.87739 6.70691e-20 -0.363077)
(1.91224 7.04092e-20 -0.369513)
(1.94584 0 -0.375742)
(1.97817 0 -0.381736)
(2.00935 9.2819e-23 -0.387546)
(2.03955 0 -0.393188)
(2.06868 -4.20162e-20 -0.398632)
(2.09702 0 -0.403953)
(2.12452 -8.80883e-20 -0.409115)
(2.15122 0 -0.414141)
(2.17732 -9.14505e-20 -0.419067)
(2.20269 0 -0.423857)
(2.2276 9.41662e-20 -0.428576)
(2.25194 0 -0.433185)
(2.27588 0 -0.437733)
(2.29943 -9.70201e-20 -0.442206)
(2.32262 0 -0.44662)
(2.34557 0 -0.450995)
(2.36823 0 -0.455317)
(2.39079 -1.98476e-19 -0.459626)
(2.41317 -3.97742e-19 -0.463903)
(2.43556 0 -0.46819)
(2.45791 0 -0.472469)
(2.48036 1.98958e-19 -0.476777)
(2.5029 1.9879e-19 -0.4811)
(2.52565 0 -0.485469)
(2.5486 0 -0.489877)
(2.57187 0 -0.494353)
(2.5955 0 -0.498898)
(2.61956 3.89113e-19 -0.50353)
(2.6441 -3.86618e-19 -0.508255)
(2.66919 7.67882e-19 -0.513088)
(2.69489 0 -0.518038)
(2.72127 0 -0.523124)
(2.74842 0 -0.528359)
(2.7764 -3.19027e-22 -0.533756)
(2.8053 7.33681e-19 -0.539329)
(2.83518 7.25639e-19 -0.545094)
(2.86611 -1.43431e-18 -0.551064)
(2.89818 -2.60521e-22 -0.557251)
(2.93142 6.9945e-19 -0.563665)
(2.96591 6.90499e-19 -0.570321)
(3.00171 0 -0.577228)
(3.03891 0 -0.584407)
(3.07753 0 -0.591859)
(3.1177 -1.30307e-18 -0.59961)
(3.15938 0 -0.607651)
(3.20279 0 -0.616028)
(3.24779 -1.24099e-18 -0.624709)
(3.29477 -1.21975e-18 -0.633775)
(3.34331 0 -0.643138)
(3.39416 0 -0.652952)
(3.44643 0 -0.663033)
(3.50152 -4.53119e-18 -0.673664)
(3.55765 4.98781e-22 -0.684488)
(3.61742 -2.17687e-18 -0.696022)
(3.67747 2.13248e-18 -0.707601)
(3.74245 -4.17593e-18 -0.720143)
(3.80642 -2.04316e-18 -0.732476)
(3.87722 -3.99695e-18 -0.746138)
(3.94503 0 -0.759213)
(4.02221 0 -0.774102)
(4.09376 0 -0.787907)
(4.17792 0 -0.804125)
(4.25317 -3.54974e-18 -0.818669)
(4.34494 0 -0.836324)
(4.42408 0 -0.851651)
(4.52429 3.28536e-18 -0.87089)
(4.60738 -3.19735e-18 -0.887014)
(4.71746 -1.24467e-17 -0.908105)
(4.80341 6.04761e-18 -0.924824)
(4.92515 0 -0.948121)
(5.01104 0 -0.964839)
(5.14624 0 -0.990741)
(5.2304 -5.37413e-18 -1.00709)
(5.37953 5.21021e-18 -1.03575)
(5.46565 0 -1.05241)
(5.626 -1.9543e-17 -1.08329)
(5.72007 -9.45328e-18 -1.10143)
(5.88335 -1.82837e-17 -1.13286)
(5.98744 0 -1.15298)
(6.15116 0 -1.18428)
(6.23945 8.22324e-18 -1.20156)
(6.43172 0 -1.23768)
(6.37588 7.62787e-18 -1.22757)
(6.67971 7.33067e-18 -1.28023)
(5.62978 0 -1.07564)
(-6.31985 0 -2.23902)
(-4.99455 0 -1.03266)
(-3.82033 2.17719e-21 -0.493947)
(-2.89135 0 -0.260809)
(-2.15698 0 -0.163873)
(-1.56638 -2.95185e-21 -0.129674)
(-1.07974 -2.7885e-21 -0.125172)
(-0.669394 0 -0.135524)
(-0.316925 -7.2416e-23 -0.153512)
(-0.00929496 -4.60919e-21 -0.174593)
(0.263134 8.35815e-21 -0.198391)
(0.507053 3.76437e-21 -0.222516)
(0.726778 -1.52866e-23 -0.246373)
(0.926451 2.87122e-21 -0.269822)
(1.10924 2.42176e-21 -0.292629)
(1.27752 -1.97715e-21 -0.314677)
(1.43322 3.07247e-21 -0.335927)
(1.57792 2.21064e-21 -0.356369)
(1.71293 0 -0.376007)
(1.83934 0 -0.394861)
(1.95806 2.17264e-22 -0.412959)
(2.06989 9.80837e-22 -0.430332)
(2.17549 0 -0.447016)
(2.27544 0 -0.463046)
(2.37022 6.25843e-21 -0.478456)
(2.46027 0 -0.493277)
(2.54599 -1.75408e-20 -0.507545)
(2.62773 9.925e-21 -0.521289)
(2.70578 0 -0.53453)
(2.78045 1.21631e-20 -0.547313)
(2.85197 1.31692e-20 -0.559653)
(2.92052 0 -0.571563)
(2.98638 -1.49704e-20 -0.583099)
(3.04971 -3.17132e-20 -0.594263)
(3.11063 -8.56611e-23 -0.605059)
(3.16945 0 -0.615561)
(3.22615 0 -0.625709)
(3.2809 3.74265e-20 -0.635569)
(3.33399 0 -0.645189)
(3.38528 0 -0.654491)
(3.43519 0 -0.663608)
(3.48367 0 -0.672478)
(3.53079 0 -0.681129)
(3.57685 0 -0.689628)
(3.62166 0 -0.697903)
(3.66565 -8.88857e-20 -0.70607)
(3.70863 8.9963e-20 -0.714053)
(3.7509 0 -0.72194)
(3.79246 9.17894e-20 -0.729703)
(3.83336 0 -0.737364)
(3.87382 0 -0.74496)
(3.91374 -1.86726e-19 -0.752465)
(3.95341 0 -0.759944)
(3.99276 1.87963e-19 -0.767368)
(4.03204 -1.88039e-19 -0.774804)
(4.07118 0 -0.782218)
(4.11045 -1.88057e-19 -0.789675)
(4.14979 0 -0.797147)
(4.18941 0 -0.80469)
(4.22932 0 -0.81229)
(4.2697 -3.71349e-19 -0.819994)
(4.3106 -3.69474e-19 -0.827802)
(4.35216 -1.82691e-22 -0.835747)
(4.39444 7.29972e-19 -0.843834)
(4.43758 -1.64513e-22 -0.852092)
(4.48166 0 -0.860534)
(4.52682 0 -0.869192)
(4.57319 7.05899e-19 -0.878085)
(4.62088 -2.66897e-22 -0.887237)
(4.67002 0 -0.896669)
(4.72073 0 -0.906408)
(4.77312 6.76156e-19 -0.916473)
(4.82732 -2.16864e-22 -0.926886)
(4.88341 -2.05975e-22 -0.937662)
(4.9415 0 -0.948825)
(5.0017 0 -0.960392)
(5.06416 1.26438e-18 -0.972396)
(5.12891 -1.24562e-18 -0.984838)
(5.19616 0 -0.997762)
(5.26584 0 -1.01115)
(5.33835 0 -1.02509)
(5.4134 0 -1.03951)
(5.49168 0 -1.05455)
(5.57247 0 -1.07007)
(5.65704 0 -1.08632)
(5.74386 0 -1.103)
(5.83531 4.25953e-18 -1.12057)
(5.92837 2.08812e-18 -1.13845)
(6.02745 2.04596e-18 -1.15749)
(6.12681 -2.00383e-18 -1.17657)
(6.23445 3.92244e-18 -1.19725)
(6.34005 1.91911e-18 -1.21752)
(6.45726 1.87657e-18 -1.24004)
(6.56888 0 -1.26147)
(6.69672 0 -1.28602)
(6.81406 0 -1.30857)
(6.95361 0 -1.33533)
(7.07648 3.33022e-18 -1.35898)
(7.22886 0 -1.38815)
(7.35741 0 -1.41298)
(7.52395 -3.08042e-18 -1.44477)
(7.65834 0 -1.47086)
(7.84114 5.83254e-18 -1.50563)
(7.97997 -5.66726e-18 -1.53269)
(8.18169 0 -1.57097)
(8.3207 0 -1.59811)
(8.54412 0 -1.64057)
(8.68047 -5.03146e-18 -1.6671)
(8.92641 0 -1.71409)
(9.06516 4.72357e-18 -1.74087)
(9.32982 9.8198e-22 -1.79167)
(9.48032 8.84722e-18 -1.82051)
(9.75113 1.71072e-17 -1.87247)
(9.91717 0 -1.9044)
(10.1911 -7.97782e-18 -1.95633)
(10.3298 -7.6918e-18 -1.98371)
(10.6596 -7.41561e-18 -2.04417)
(10.5606 0 -2.02741)
(11.1061 -6.8544e-18 -2.11561)
(9.51338 0 -1.80624)
(-6.60137 0 -2.88691)
(-5.60702 0 -1.79532)
(-4.55067 -2.05999e-21 -1.13102)
(-3.59832 0 -0.751816)
(-2.77887 2.50469e-21 -0.541988)
(-2.08086 -5.17748e-21 -0.428725)
(-1.48289 0 -0.370593)
(-0.964865 4.85298e-21 -0.3448)
(-0.510767 -4.6511e-21 -0.338535)
(-0.108462 -4.26318e-21 -0.343799)
(0.252234 -3.93699e-21 -0.357087)
(0.578697 3.51535e-21 -0.375033)
(0.875419 -3.12705e-21 -0.395454)
(1.14705 5.401e-21 -0.417614)
(1.39737 0 -0.440724)
(1.62918 3.74239e-21 -0.464242)
(1.84481 0 -0.48784)
(2.0462 0 -0.511284)
(2.23495 0 -0.534413)
(2.41241 -5.62999e-22 -0.557121)
(2.57974 -2.34623e-23 -0.579339)
(2.73793 -2.5148e-23 -0.601024)
(2.88781 1.59771e-21 -0.622152)
(3.03013 0 -0.642715)
(3.16551 0 -0.662711)
(3.29452 0 -0.682142)
(3.41766 1.6486e-20 -0.701026)
(3.53539 -5.47091e-23 -0.719375)
(3.64809 0 -0.737192)
(3.75616 0 -0.754515)
(3.8599 0 -0.771353)
(3.95956 0 -0.787701)
(4.05549 2.82628e-20 -0.803625)
(4.14792 0 -0.819102)
(4.23701 -3.13991e-20 -0.834127)
(4.32313 0 -0.848809)
(4.40632 0 -0.863062)
(4.48677 -3.52257e-20 -0.876962)
(4.56486 0 -0.89058)
(4.64043 0 -0.903794)
(4.714 3.83359e-20 -0.916785)
(4.78553 -7.84116e-20 -0.929461)
(4.85513 0 -0.941859)
(4.92316 -8.14287e-20 -0.954066)
(4.98943 0 -0.965983)
(5.05444 1.67839e-19 -0.977764)
(5.11801 -1.09599e-22 -0.989299)
(5.18051 0 -1.00071)
(5.24194 0 -1.01196)
(5.30238 -8.71449e-20 -1.02307)
(5.36211 -1.75321e-19 -1.0341)
(5.42103 3.52461e-19 -1.045)
(5.47951 0 -1.05587)
(5.53746 1.77155e-19 -1.06666)
(5.59522 1.77501e-19 -1.07746)
(5.65272 1.77388e-19 -1.08823)
(5.71028 1.77226e-19 -1.09906)
(5.76786 0 -1.10989)
(5.82575 0 -1.12083)
(5.88395 3.5163e-19 -1.13183)
(5.9427 7.00358e-19 -1.14297)
(6.00208 3.48474e-19 -1.15425)
(6.06229 -1.96188e-22 -1.1657)
(6.12341 -3.44067e-19 -1.17735)
(6.18563 -3.41504e-19 -1.18922)
(6.24907 0 -1.20133)
(6.31392 0 -1.21374)
(6.38035 -6.65219e-19 -1.22646)
(6.44854 -1.31676e-18 -1.23953)
(6.51862 0 -1.25297)
(6.59081 -6.43927e-19 -1.26683)
(6.66524 -6.36334e-19 -1.28113)
(6.74208 -6.28695e-19 -1.29589)
(6.82144 -1.24093e-18 -1.31114)
(6.9035 0 -1.32692)
(6.98838 0 -1.34324)
(7.07631 -1.1898e-18 -1.36015)
(7.16733 2.34353e-18 -1.37766)
(7.26173 1.15341e-18 -1.39581)
(7.35941 0 -1.4146)
(7.46091 0 -1.43413)
(7.56585 0 -1.45432)
(7.67518 0 -1.47536)
(7.78786 0 -1.49703)
(7.90573 0 -1.51971)
(8.02657 2.03944e-18 -1.54296)
(8.15379 -4.75779e-22 -1.56743)
(8.28303 -1.96028e-18 -1.59229)
(8.42068 0 -1.61878)
(8.55837 -1.88051e-18 -1.64526)
(8.70775 -1.84077e-18 -1.674)
(8.85371 0 -1.70207)
(9.01634 1.76019e-18 -1.73335)
(9.1701 3.44041e-18 -1.76293)
(9.3476 0 -1.79704)
(9.50854 0 -1.82805)
(9.70257 0 -1.86527)
(9.87019 3.12109e-18 -1.89765)
(10.0824 0 -1.93826)
(10.2568 0 -1.97209)
(10.489 -2.88559e-18 -2.01637)
(10.6703 2.80689e-18 -2.05176)
(10.9251 0 -2.10014)
(11.112 0 -2.13681)
(11.3924 0 -2.18992)
(11.58 0 -2.22677)
(11.8894 0 -2.28548)
(12.0738 6.5982e-22 -2.32154)
(12.4135 0 -2.38643)
(12.6003 -4.42014e-18 -2.42262)
(12.966 8.55628e-18 -2.49287)
(13.167 0 -2.53145)
(13.5429 -9.99332e-22 -2.60364)
(13.7634 0 -2.64613)
(14.1479 8.86074e-22 -2.71871)
(14.327 0 -2.75471)
(14.8023 6.9333e-18 -2.84013)
(14.6524 0 -2.81632)
(15.4609 -6.40613e-18 -2.93909)
(13.467 0 -2.5479)
(-6.46961 0 -3.44607)
(-5.74848 0 -2.49823)
(-4.87734 0 -1.80277)
(-4.0065 0 -1.33166)
(-3.19634 -2.36593e-21 -1.02537)
(-2.46485 5.90513e-23 -0.830354)
(-1.81099 0 -0.708379)
(-1.22661 -4.58416e-21 -0.634262)
(-0.702062 0 -0.591887)
(-0.228803 8.00485e-21 -0.57063)
(0.201745 0 -0.563805)
(0.596176 -3.32057e-21 -0.567596)
(0.958615 0 -0.57762)
(1.29326 -5.10165e-21 -0.592478)
(1.60405 2.15409e-21 -0.610709)
(1.89386 -3.53556e-21 -0.631223)
(2.16511 2.76833e-21 -0.653288)
(2.41987 2.01292e-21 -0.676366)
(2.65987 0 -0.700056)
(2.88659 5.31745e-22 -0.724064)
(3.10131 -1.71961e-22 -0.748173)
(3.30512 -1.68148e-21 -0.772225)
(3.49898 -1.50891e-21 -0.7961)
(3.68372 0 -0.819713)
(3.86007 0 -0.843002)
(4.02865 0 -0.865919)
(4.19006 -7.75786e-21 -0.888441)
(4.34482 -8.81233e-21 -0.910548)
(4.49339 0 -0.932214)
(4.63619 0 -0.953452)
(4.77363 1.16159e-20 -0.974256)
(4.90598 0 -0.994596)
(5.03364 -4.77845e-23 -1.01453)
(5.15691 -2.80469e-20 -1.03403)
(5.27596 2.9464e-20 -1.05307)
(5.39124 0 -1.07177)
(5.5028 0 -1.09001)
(5.61088 3.32476e-20 -1.10788)
(5.7159 0 -1.12546)
(5.81773 0 -1.14258)
(5.91692 -3.61767e-20 -1.15947)
(6.01348 7.39905e-20 -1.17601)
(6.10752 0 -1.19224)
(6.19949 7.68271e-20 -1.20825)
(6.28916 0 -1.22393)
(6.37713 -7.91115e-20 -1.23945)
(6.46319 -8.00637e-20 -1.25468)
(6.54778 0 -1.26978)
(6.63092 -8.14917e-20 -1.28467)
(6.71273 8.21825e-20 -1.29941)
(6.7935 3.30468e-19 -1.31404)
(6.87318 -1.66085e-19 -1.32852)
(6.95216 1.66472e-19 -1.34295)
(7.03037 -1.53286e-22 -1.35729)
(7.10823 0 -1.37165)
(7.18563 -1.67194e-19 -1.38596)
(7.26299 -1.67025e-19 -1.40034)
(7.34026 1.66593e-19 -1.41472)
(7.41781 -1.66124e-19 -1.42922)
(7.49563 -3.31283e-19 -1.4438)
(7.57403 -3.29777e-19 -1.45854)
(7.6531 3.27837e-19 -1.47344)
(7.73311 -3.26038e-19 -1.48856)
(7.81414 0 -1.5039)
(7.89645 0 -1.51952)
(7.98019 -3.18591e-19 -1.53543)
(8.0656 0 -1.5517)
(8.15289 0 -1.56835)
(8.24229 6.19464e-19 -1.58542)
(8.33397 0 -1.60296)
(8.42819 6.05833e-19 -1.621)
(8.52513 1.19697e-18 -1.63957)
(8.62501 0 -1.65872)
(8.72796 5.83403e-19 -1.67847)
(8.8342 0 -1.69886)
(8.94391 0 -1.71992)
(9.05736 1.11769e-18 -1.74171)
(9.1746 -1.10115e-18 -1.76423)
(9.29601 -3.42479e-22 -1.78755)
(9.42145 0 -1.81166)
(9.55163 0 -1.83668)
(9.68602 0 -1.8625)
(9.82587 1.01227e-18 -1.88939)
(9.96982 -9.93988e-19 -1.91705)
(10.1203 0 -1.94596)
(10.2742 -3.82836e-18 -1.97556)
(10.4363 -1.87703e-18 -2.00671)
(10.6006 3.67863e-18 -2.03828)
(10.7757 1.80138e-18 -2.07193)
(10.9503 3.52782e-18 -2.10549)
(11.1401 0 -2.14196)
(11.3246 0 -2.17743)
(11.5313 -1.65045e-18 -2.2171)
(11.7249 -3.22542e-18 -2.25435)
(11.9507 3.14909e-18 -2.29763)
(12.1523 0 -2.33649)
(12.3995 0 -2.38379)
(12.6082 -2.92425e-18 -2.42413)
(12.8792 -2.8495e-18 -2.47583)
(13.0947 0 -2.51772)
(13.3916 2.70241e-18 -2.57414)
(13.6144 -2.62833e-18 -2.61778)
(13.9399 0 -2.67932)
(14.1691 0 -2.7245)
(14.5262 0 -2.79178)
(14.7567 0 -2.8373)
(15.1491 0 -2.91137)
(15.3762 4.40581e-18 -2.95598)
(15.8056 0 -3.03771)
(16.0349 0 -3.08219)
(16.497 0 -3.17082)
(16.7419 -7.7375e-18 -3.21767)
(17.219 -7.48031e-18 -3.30918)
(17.4848 0 -3.36036)
(17.9796 6.97404e-18 -3.45302)
(18.186 0 -3.49555)
(18.8139 6.47916e-18 -3.60552)
(18.6053 0 -3.57488)
(19.6816 5.98674e-18 -3.72957)
(17.4388 0 -3.28643)
(-6.12043 1.18349e-21 -3.93063)
(-5.59457 1.52618e-21 -3.12244)
(-4.90469 -1.80766e-21 -2.45324)
(-4.15735 -2.00768e-21 -1.94147)
(-3.41334 0 -1.56835)
(-2.70382 2.21944e-21 -1.30369)
(-2.04197 0 -1.11926)
(-1.43061 -4.16289e-21 -0.992756)
(-0.86755 -3.95744e-21 -0.907825)
(-0.348923 -7.45037e-21 -0.852715)
(0.130544 3.40225e-21 -0.818821)
(0.575798 -3.07729e-21 -0.801663)
(0.990134 0 -0.79505)
(1.37634 0 -0.796976)
(1.73815 -2.03169e-21 -0.805289)
(2.07817 3.6845e-24 -0.818308)
(2.39862 3.9321e-25 -0.834849)
(2.70148 6.61521e-24 -0.854015)
(2.98843 0 -0.87512)
(3.26095 0 -0.897638)
(3.52029 0 -0.921165)
(3.76758 1.54265e-21 -0.945389)
(4.00379 1.3769e-21 -0.970066)
(4.22979 0 -0.995009)
(4.44632 0 -1.02007)
(4.65407 6.171e-21 -1.04513)
(4.85364 0 -1.0701)
(5.0456 0 -1.09493)
(5.23043 0 -1.11953)
(5.4086 0 -1.14389)
(5.58053 -4.88138e-23 -1.16797)
(5.74653 0 -1.19171)
(5.90703 -4.66256e-23 -1.21515)
(6.06236 2.64399e-20 -1.23824)
(6.21271 -8.81616e-23 -1.26093)
(6.35856 0 -1.28333)
(6.50001 0 -1.30532)
(6.63729 0 -1.32696)
(6.77088 0 -1.34835)
(6.90066 0 -1.36929)
(7.02717 0 -1.39001)
(7.15051 0 -1.41037)
(7.27077 -7.08766e-20 -1.43042)
(7.38844 -7.21469e-20 -1.45026)
(7.50332 0 -1.46974)
(7.61602 -7.43109e-20 -1.48907)
(7.72637 0 -1.50809)
(7.83483 0 -1.52696)
(7.94143 1.53415e-19 -1.54562)
(8.04634 0 -1.56411)
(8.14987 -1.55526e-19 -1.58248)
(8.25197 0 -1.60068)
(8.3531 -3.13341e-19 -1.61883)
(8.45319 -1.53991e-22 -1.63688)
(8.55269 0 -1.65495)
(8.65151 0 -1.67297)
(8.75015 0 -1.69105)
(8.84852 -3.13468e-19 -1.70914)
(8.94708 3.12561e-19 -1.72737)
(9.04581 3.11302e-19 -1.74567)
(9.1451 3.09876e-19 -1.76417)
(9.24503 -6.1667e-19 -1.78285)
(9.34592 -3.06336e-19 -1.80177)
(9.4479 0 -1.82094)
(9.55125 0 -1.84042)
(9.65616 1.67463e-22 -1.86025)
(9.76293 0 -1.88049)
(9.87179 0 -1.90117)
(9.98302 5.81801e-19 -1.92234)
(10.0968 0 -1.94403)
(10.2135 0 -1.96632)
(10.3333 -1.12438e-18 -1.98922)
(10.4565 5.54978e-19 -2.01279)
(10.5832 0 -2.03705)
(10.7137 0 -2.06205)
(10.8482 0 -2.08784)
(10.987 -1.04968e-18 -2.11447)
(11.1302 0 -2.14195)
(11.2783 -2.03436e-18 -2.17037)
(11.431 1.00047e-18 -2.1997)
(11.5893 0 -2.23009)
(11.7524 0 -2.26144)
(11.9219 -9.49893e-19 -2.29401)
(12.0962 2.71526e-22 -2.32749)
(12.2781 -9.14899e-19 -2.36245)
(12.464 1.79524e-18 -2.39818)
(12.6597 -1.75947e-18 -2.43576)
(12.8575 -1.72456e-18 -2.47378)
(13.0685 -1.68895e-18 -2.51431)
(13.2781 -4.04252e-22 -2.55461)
(13.5067 0 -2.5985)
(13.7273 1.58167e-18 -2.64096)
(13.9762 0 -2.6887)
(14.2067 0 -2.7331)
(14.4789 -2.95009e-18 -2.78522)
(14.7175 0 -2.83128)
(15.0162 0 -2.88834)
(15.2612 0 -2.93584)
(15.5896 2.66801e-18 -2.99835)
(15.8405 0 -3.04732)
(16.2009 2.52875e-18 -3.11561)
(16.4585 0 -3.16635)
(16.8531 0 -3.24074)
(17.1174 0 -3.29319)
(17.5488 0 -3.37416)
(17.8153 0 -3.42718)
(18.2867 4.25073e-18 -3.51584)
(18.5504 4.1195e-18 -3.56796)
(19.0641 -3.99177e-18 -3.66551)
(19.3296 0 -3.7172)
(19.8821 0 -3.8231)
(20.1629 1.44666e-17 -3.87688)
(20.7362 0 -3.98675)
(21.0364 -6.74988e-18 -4.04475)
(21.6403 0 -4.15705)
(21.8586 -6.28057e-18 -4.20379)
(22.6426 -6.05464e-18 -4.33803)
(22.3709 0 -4.30108)
(23.698 5.59258e-18 -4.48183)
(21.3596 0 -4.01296)
(-5.66746 -1.11433e-21 -4.35773)
(-5.2718 -2.9479e-21 -3.67145)
(-4.73023 1.70256e-21 -3.05548)
(-4.10901 2.52014e-23 -2.54115)
(-3.45581 -1.95673e-21 -2.13238)
(-2.80217 0 -1.81781)
(-2.16746 0 -1.58085)
(-1.56171 3.92134e-21 -1.40514)
(-0.988851 7.38034e-21 -1.27671)
(-0.449619 6.16061e-23 -1.18437)
(0.0574935 -3.20483e-21 -1.11934)
(0.535585 2.89872e-21 -1.07634)
(0.986516 -2.54719e-21 -1.04822)
(1.41113 0 -1.03249)
(1.8127 0 -1.02642)
(2.19328 1.56683e-21 -1.0278)
(2.55467 -4.91134e-21 -1.035)
(2.89856 -3.58808e-21 -1.04676)
(3.22641 0 -1.06209)
(3.53955 0 -1.08023)
(3.83915 0 -1.10054)
(4.12622 -1.65778e-23 -1.12256)
(4.4017 -2.57476e-21 -1.14589)
(4.66641 1.83494e-21 -1.17022)
(4.92108 4.74032e-21 -1.19529)
(5.16635 -1.15779e-20 -1.22091)
(5.40283 6.74751e-21 -1.24692)
(5.63108 7.68316e-21 -1.27319)
(5.85157 8.57363e-21 -1.29958)
(6.06477 0 -1.32603)
(6.2711 -1.02663e-20 -1.35247)
(6.4709 1.09768e-20 -1.3788)
(6.66457 -1.17355e-20 -1.40502)
(6.85248 -2.4721e-20 -1.43106)
(7.03481 -5.20474e-20 -1.45684)
(7.21204 0 -1.48247)
(7.38433 0 -1.50779)
(7.55186 -2.92756e-20 -1.53284)
(7.71517 0 -1.55773)
(7.87413 3.10899e-20 -1.58222)
(8.02928 3.18903e-20 -1.60656)
(8.18077 0 -1.63059)
(8.32867 1.33281e-19 -1.65432)
(8.47351 6.78964e-20 -1.67789)
(8.61509 0 -1.70111)
(8.75405 6.99249e-20 -1.72421)
(8.89023 7.06619e-20 -1.747)
(9.02409 0 -1.76967)
(9.15572 -1.44144e-19 -1.79212)
(9.28528 7.25511e-20 -1.8144)
(9.4131 1.45955e-19 -1.83657)
(9.53917 0 -1.85857)
(9.66395 1.6092e-22 -1.88053)
(9.78738 -2.95051e-19 -1.90238)
(9.90998 0 -1.92426)
(10.0316 0 -1.94608)
(10.1529 1.47452e-19 -1.96799)
(10.2737 1.47299e-19 -1.9899)
(10.3945 -2.93608e-19 -2.01195)
(10.5154 -2.92631e-19 -2.0341)
(10.6367 -2.91265e-19 -2.05646)
(10.7586 2.89693e-19 -2.07901)
(10.8814 5.75575e-19 -2.10183)
(11.0052 0 -2.12492)
(11.1305 0 -2.14836)
(11.2574 5.62483e-19 -2.17218)
(11.3862 0 -2.19645)
(11.5172 0 -2.22121)
(11.6508 -5.46434e-19 -2.24651)
(11.7872 0 -2.2724)
(11.9267 5.33946e-19 -2.29894)
(12.0696 2.47035e-22 -2.32617)
(12.2162 -5.21016e-19 -2.35413)
(12.3666 0 -2.38286)
(12.5212 0 -2.41243)
(12.6803 0 -2.44286)
(12.8442 -9.84247e-19 -2.47424)
(13.0129 0 -2.50657)
(13.187 9.54106e-19 -2.53994)
(13.3663 -1.87664e-18 -2.57433)
(13.5518 0 -2.60993)
(13.7427 0 -2.64657)
(13.9409 0 -2.68461)
(14.1442 2.7155e-22 -2.72364)
(14.3563 8.57689e-19 -2.76436)
(14.5725 1.68182e-18 -2.8059)
(14.8001 1.64904e-18 -2.84958)
(15.0294 -1.61526e-18 -2.89366)
(15.2745 0 -2.94069)
(15.5167 -1.54868e-18 -2.98727)
(15.7821 0 -3.03814)
(16.036 -1.48149e-18 -3.08703)
(16.325 0 -3.14237)
(16.5887 0 -3.19324)
(16.9053 0 -3.25372)
(17.1763 2.69436e-18 -3.30615)
(17.5247 2.62788e-18 -3.37251)
(17.8004 0 -3.42614)
(18.1846 -2.49595e-18 -3.49901)
(18.464 2.43002e-18 -3.55384)
(18.8864 -2.36608e-18 -3.63357)
(19.171 2.30025e-18 -3.69001)
(19.6329 0 -3.7767)
(19.9243 0 -3.83498)
(20.4266 0 -3.92883)
(20.7218 0 -3.98801)
(21.267 -3.97479e-18 -4.09007)
(21.5607 -6.3261e-22 -4.14848)
(22.1518 7.46325e-18 -4.26038)
(22.4466 0 -4.31798)
(23.0821 0 -4.43961)
(23.3904 -6.76017e-18 -4.49863)
(24.0534 0 -4.62548)
(24.3753 6.30776e-18 -4.688)
(25.0864 0 -4.81891)
(25.2995 1.17358e-17 -4.86738)
(26.2379 0 -5.02381)
(25.9055 0 -4.98258)
(27.4422 -5.22433e-18 -5.18182)
(25.1487 0 -4.71245)
(-5.17465 0 -4.74323)
(-4.86285 1.42095e-21 -4.1574)
(-4.43224 0 -3.60275)
(-3.92065 1.75536e-21 -3.10934)
(-3.3607 3.63584e-21 -2.69048)
(-2.77782 0 -2.34675)
(-2.19139 -1.80468e-21 -2.07136)
(-1.61439 0 -1.85459)
(-1.05452 -8.53186e-23 -1.68635)
(-0.516001 6.36756e-21 -1.55741)
(-0.000662179 0 -1.45997)
(0.493012 0 -1.38859)
(0.965208 2.39657e-21 -1.33586)
(1.41452 0 -1.29904)
(1.84369 0 -1.27505)
(2.25407 0 -1.26129)
(2.64685 2.30659e-21 -1.25576)
(3.02329 1.68752e-21 -1.2569)
(3.38455 1.07533e-21 -1.26343)
(3.73169 0 -1.27433)
(4.06567 0 -1.28879)
(4.38737 -6.58626e-22 -1.30615)
(4.6976 1.20224e-21 -1.32585)
(4.99707 -1.72619e-21 -1.34746)
(5.28643 -4.45926e-21 -1.37062)
(5.56627 1.08099e-20 -1.39503)
(5.83713 -4.06102e-23 -1.42044)
(6.09953 -7.2271e-21 -1.44665)
(6.3539 -8.0645e-21 -1.47347)
(6.60068 0 -1.50078)
(6.84027 0 -1.52844)
(7.07299 -1.03241e-20 -1.55632)
(7.2992 0 -1.58439)
(7.51928 2.32494e-20 -1.61254)
(7.73341 2.44336e-20 -1.64066)
(7.94202 -2.54599e-20 -1.66882)
(8.14531 0 -1.69687)
(8.34344 2.75289e-20 -1.7248)
(8.53692 2.83409e-20 -1.75271)
(8.72567 -7.0092e-23 -1.78034)
(8.91017 -5.99001e-20 -1.80792)
(9.09061 0 -1.83529)
(9.26706 -6.25909e-20 -1.86244)
(9.44004 0 -1.8895)
(9.60938 0 -1.91628)
(9.77569 0 -1.94299)
(9.93885 -1.05608e-22 -1.96942)
(10.0993 0 -1.99578)
(10.2572 6.769e-20 -2.02195)
(10.4126 -1.36272e-19 -2.04797)
(10.566 -1.37158e-19 -2.07391)
(10.7173 0 -2.09969)
(10.867 1.38234e-19 -2.12546)
(11.015 2.76918e-19 -2.15113)
(11.1619 0 -2.17685)
(11.3076 0 -2.20251)
(11.4527 -1.3851e-19 -2.22828)
(11.5971 -1.38113e-19 -2.25406)
(11.7413 1.37825e-19 -2.28)
(11.8853 2.74383e-19 -2.30604)
(12.0296 0 -2.33232)
(12.1744 0 -2.35879)
(12.32 -1.94845e-22 -2.38556)
(12.4665 2.68051e-19 -2.41262)
(12.6144 0 -2.44005)
(12.7639 -2.63918e-19 -2.46789)
(12.9153 0 -2.49622)
(13.069 0 -2.52507)
(13.2253 0 -2.55451)
(13.3845 0 -2.58458)
(13.547 -2.60209e-22 -2.61535)
(13.7131 2.47483e-22 -2.64686)
(13.883 4.88296e-19 -2.67917)
(14.057 0 -2.71229)
(14.2356 4.75107e-19 -2.74632)
(14.4187 0 -2.78129)
(14.6071 9.22925e-19 -2.81729)
(14.8007 -9.08298e-19 -2.85431)
(15.0001 8.938e-19 -2.89246)
(15.205 8.79428e-19 -2.93171)
(15.4168 0 -2.97227)
(15.6342 -8.49122e-19 -3.01396)
(15.8596 0 -3.05719)
(16.0904 8.18818e-19 -3.10147)
(16.331 8.03067e-19 -3.14762)
(16.5757 -1.57553e-18 -3.1946)
(16.8333 0 -3.24399)
(17.092 3.02523e-18 -3.2937)
(17.369 0 -3.34679)
(17.641 -1.44939e-18 -3.39913)
(17.9407 0 -3.45651)
(18.2245 -1.38625e-18 -3.51121)
(18.5511 0 -3.57364)
(18.8439 -2.64637e-18 -3.63022)
(19.2026 2.58338e-18 -3.69856)
(19.5007 -2.52137e-18 -3.75643)
(19.8968 -2.4589e-18 -3.83161)
(20.1967 0 -3.89025)
(20.6349 4.66945e-18 -3.97305)
(20.9352 -4.54568e-18 -4.03238)
(21.4179 0 -4.12311)
(21.721 -2.15128e-18 -4.18375)
(22.2478 0 -4.28218)
(22.5576 0 -4.34478)
(23.1267 3.94679e-18 -4.45062)
(23.4427 0 -4.51458)
(24.0552 0 -4.62875)
(24.3719 -3.59973e-18 -4.69221)
(25.0323 -6.97441e-18 -4.81684)
(25.3491 -3.37531e-18 -4.87906)
(26.0589 0 -5.01471)
(26.3852 0 -5.07729)
(27.1306 0 -5.21958)
(27.4602 0 -5.2843)
(28.2746 -5.6872e-18 -5.43257)
(28.4659 -5.48127e-18 -5.48045)
(29.5488 0 -5.65619)
(29.1662 0 -5.61353)
(30.8531 0 -5.81905)
(28.7188 0 -5.37097)
(-4.67635 -1.26139e-21 -5.10054)
(-4.41808 0 -4.59536)
(-4.06684 -1.50256e-21 -4.10004)
(-3.64274 0 -3.63907)
(-3.16639 -1.68692e-21 -3.22762)
(-2.65562 0 -2.87225)
(-2.12651 1.69618e-21 -2.57291)
(-1.59179 -3.19014e-21 -2.32554)
(-1.06052 -6.20254e-21 -2.12418)
(-0.538967 -8.44279e-23 -1.96232)
(-0.0313021 0 -1.83398)
(0.463025 0 -1.73373)
(0.942472 0 -1.65517)
(1.40349 0 -1.59531)
(1.8483 0 -1.55101)
(2.27749 0 -1.51948)
(2.69161 -2.11657e-21 -1.49851)
(3.09142 1.5532e-21 -1.48629)
(3.47769 -1.01065e-21 -1.48132)
(3.85117 0 -1.48238)
(4.21257 0 -1.48848)
(4.56257 6.05257e-22 -1.49877)
(4.90179 1.10943e-21 -1.51258)
(5.2308 1.59646e-21 -1.52933)
(5.55015 0 -1.54856)
(5.86032 -5.06111e-21 -1.56986)
(6.16176 -1.18196e-20 -1.5929)
(6.45491 6.71661e-21 -1.6174)
(6.74016 0 -1.64311)
(7.01786 0 -1.66983)
(7.28838 0 -1.6974)
(7.552 9.62146e-21 -1.7256)
(7.80903 0 -1.75438)
(8.05982 0 -1.7836)
(8.30453 2.28032e-20 -1.81309)
(8.54353 2.39193e-20 -1.84291)
(8.77705 0 -1.87287)
(9.0052 2.57194e-20 -1.90294)
(9.22846 -5.31772e-20 -1.93319)
(9.44677 -2.73939e-20 -1.96336)
(9.66056 2.8101e-20 -1.99363)
(9.87002 0 -2.02385)
(10.0752 0 -2.05399)
(10.2767 0 -2.08414)
(10.4742 6.05713e-20 -2.11412)
(10.6683 0 -2.14412)
(10.8591 -6.22725e-20 -2.17393)
(11.0468 -6.28187e-20 -2.20373)
(11.2316 0 -2.23341)
(11.4137 6.39324e-20 -2.263)
(11.5934 0 -2.29256)
(11.7708 0 -2.322)
(11.9463 1.29465e-19 -2.35146)
(12.1198 -1.50897e-22 -2.38086)
(12.2919 -1.29882e-19 -2.41034)
(12.4626 0 -2.4398)
(12.6323 0 -2.46938)
(12.8011 1.29619e-19 -2.49899)
(12.9695 0 -2.52879)
(13.1375 -2.57475e-19 -2.55871)
(13.3056 0 -2.58888)
(13.474 0 -2.61927)
(13.643 -5.0628e-19 -2.64997)
(13.8128 -5.02738e-19 -2.68097)
(13.9839 -2.49324e-19 -2.71238)
(14.1565 0 -2.74421)
(14.3309 0 -2.77657)
(14.5075 -2.42565e-19 -2.80947)
(14.6868 -4.80057e-19 -2.84299)
(14.8689 0 -2.87718)
(15.0544 -4.69468e-19 -2.91211)
(15.2435 4.63709e-19 -2.94781)
(15.4366 -4.57744e-19 -2.98435)
(15.6339 4.51386e-19 -3.02174)
(15.8358 -4.45303e-19 -3.0601)
(16.0425 0 -3.09944)
(16.2547 0 -3.13987)
(16.4723 8.51089e-19 -3.18137)
(16.696 -1.67451e-18 -3.22407)
(16.9254 0 -3.26793)
(17.1621 0 -3.31318)
(17.4046 7.95344e-19 -3.35962)
(17.6557 0 -3.4077)
(17.9122 0 -3.45686)
(18.1795 -7.51993e-19 -3.50806)
(18.4505 -1.47423e-18 -3.56005)
(18.736 0 -3.61472)
(19.0213 -1.4158e-18 -3.66954)
(19.3278 0 -3.7282)
(19.6265 1.35656e-18 -3.78571)
(19.958 -1.32643e-18 -3.84907)
(20.2678 1.29722e-18 -3.90886)
(20.6296 1.26715e-18 -3.97782)
(20.9467 6.62987e-22 -4.03927)
(21.3449 -2.4168e-18 -4.1149)
(21.6643 0 -4.17717)
(22.1059 2.29883e-18 -4.26063)
(22.4228 -2.24042e-18 -4.32302)
(22.9132 -2.18316e-18 -4.41523)
(23.2261 4.24974e-18 -4.47761)
(23.767 0 -4.57878)
(24.0796 -2.01048e-18 -4.64204)
(24.6681 0 -4.75146)
(24.9877 0 -4.81683)
(25.6184 -3.68913e-18 -4.93353)
(25.9475 0 -5.00089)
(26.6196 0 -5.12555)