/*--------------------------------*- C++ -*----------------------------------*\
| =========                 |                                                 |
| \\      /  F ield         | OpenFOAM: The Open Source CFD Toolbox           |
|  \\    /   O peration     | Version:  2412                                  |
|   \\  /    A nd           | Website:  www.openfoam.com                      |
|    \\/     M anipulation  |                                                 |
\*---------------------------------------------------------------------------*/
FoamFile
{
    version     2.0;
    format      ascii;
    arch        "LSB;label=32;scalar=64";
    class       volVectorField;
    location    "1.55";
    object      ddt0(U);
}
// * * * * * * * * * * * * * * * * * * * * * * * * * * * * * * * * * * * * * //

dimensions      [0 1 -2 0 0 0 0];

internalField   nonuniform List<vector> 
12600
(
(0.150275 -3.69637e-21 -0.102672)
(-0.132954 -4.81843e-21 -0.0137394)
(-0.0606631 -4.37609e-21 0.00939012)
(-0.0444885 0 0.0093123)
(-0.039978 -3.5471e-21 0.00935199)
(-0.0290181 -3.15779e-21 0.00911039)
(-0.0151903 0 0.00845925)
(-0.000143189 0 0.00771147)
(0.0143853 7.66895e-21 0.00636085)
(0.0275569 0 0.00460513)
(0.0388306 -2.23029e-21 0.00269236)
(0.0478932 -1.50739e-21 0.000752791)
(0.0546584 8.55402e-22 -0.00111715)
(0.059155 0 -0.00282997)
(0.0614599 -1.71668e-22 -0.00430956)
(0.0616857 0 -0.00549742)
(0.0599799 3.49708e-21 -0.00635507)
(0.0565246 0 -0.00686457)
(0.0515418 -2.41825e-21 -0.00703042)
(0.0453058 -2.54146e-21 -0.00688063)
(0.0381386 2.50616e-21 -0.00646197)
(0.0303768 1.58983e-24 -0.00582909)
(0.022322 0 -0.00503253)
(0.0142024 -3.493e-21 -0.0041114)
(0.00616942 0 -0.00309335)
(-0.0016703 0 -0.0020002)
(-0.0092026 -7.06289e-22 -0.000855816)
(-0.016259 0 0.000307599)
(-0.0225946 3.68191e-23 0.0014469)
(-0.0278979 -2.28322e-21 0.00250951)
(-0.0318281 -3.1419e-21 0.0034376)
(-0.034066 -3.84097e-21 0.00417341)
(-0.0343641 4.3308e-21 0.00466381)
(-0.0325893 9.14045e-21 0.00486468)
(-0.0287562 9.06635e-21 0.00474586)
(-0.0230558 -8.4359e-21 0.00429835)
(-0.015871 0 0.00354134)
(-0.00777346 5.6801e-21 0.00252843)
(0.000517325 0 0.00134724)
(0.00820719 -1.80483e-21 0.000113582)
(0.0145429 0 -0.00104448)
(0.0189234 -6.59259e-23 -0.00200394)
(0.0210098 0 -0.00266871)
(0.0207657 -3.81312e-23 -0.00298205)
(0.0184743 8.56845e-21 -0.00293918)
(0.0146625 -8.36997e-21 -0.00258272)
(0.0100314 7.5185e-21 -0.0020001)
(0.00529782 0 -0.00129928)
(0.00111656 0 -0.000597673)
(-0.0020684 3.62068e-21 9.21653e-06)
(-0.00400939 5.27516e-21 0.000449109)
(-0.00473809 4.03283e-21 0.000697787)
(-0.00442297 6.45939e-24 0.000757613)
(-0.00340886 3.58792e-21 0.0006728)
(-0.00198286 0 0.000485748)
(-0.000465951 -4.8295e-21 0.000256869)
(0.00103547 -5.67885e-21 1.19212e-05)
(0.00239678 -6.56172e-21 -0.00021534)
(0.00372516 0 -0.000438735)
(0.00497669 0 -0.000647412)
(0.00627226 0 -0.000871354)
(0.00740797 2.12173e-20 -0.00108363)
(0.00833095 0 -0.00129148)
(0.00859104 0 -0.00142235)
(0.00803789 -4.83264e-20 -0.00145499)
(0.00620985 0 -0.00129383)
(0.00320987 0 -0.000938676)
(-0.00105235 0 -0.000338656)
(-0.00594853 1.22663e-20 0.000422839)
(-0.0111082 3.33052e-21 0.00130886)
(-0.0155922 1.84287e-20 0.0021589)
(-0.0189729 1.05947e-22 0.00289348)
(-0.0206025 -3.96443e-20 0.00337155)
(-0.0204726 0 0.00356339)
(-0.0186347 4.22655e-20 0.00344381)
(-0.0154836 0 0.00305805)
(-0.0116651 0 0.00250506)
(-0.00745607 0 0.00182573)
(-0.00380907 -1.14796e-22 0.00119861)
(-0.000287165 6.49125e-22 0.000546318)
(0.00182456 -1.48896e-20 0.000126171)
(0.00413757 2.621e-20 -0.000355283)
(0.00451452 3.49689e-20 -0.00047137)
(0.00632332 0 -0.00085314)
(0.00549151 0 -0.00070678)
(0.00828482 -9.45285e-20 -0.00123853)
(0.00655457 2.05258e-19 -0.00088807)
(0.0117408 -2.16721e-19 -0.0018995)
(0.00773277 -1.15633e-19 -0.00119794)
(0.0151694 0 -0.00278871)
(0.00612256 2.0629e-19 -0.001294)
(0.0126609 -7.41637e-20 -0.00278921)
(0.00320591 3.88562e-20 -0.00118287)
(-0.00191486 1.016e-20 -0.000174966)
(0.00953772 0 -0.00227186)
(-0.00640429 0 0.000801428)
(-0.0188892 0 0.00381205)
(0.0988508 0 -0.0184974)
(-0.0744551 0 0.0155059)
(0.165273 0 -0.0309406)
(-0.191204 2.26982e-19 0.0382534)
(0.143934 9.06253e-20 -0.0323907)
(0.495245 3.70487e-19 -0.0904808)
(-0.906782 0 0.170088)
(1.33477 0 -0.259218)
(-0.596539 0 0.133247)
(-0.816933 -2.09509e-19 0.109056)
(1.93641 -8.73177e-19 -0.364618)
(-1.28752 -7.15684e-19 0.257766)
(0.0611972 0 -0.0173705)
(-0.0910011 9.83615e-19 0.173114)
(1.11058 0 -0.214538)
(0.411363 2.5083e-18 -0.0708043)
(-1.57915 -7.77836e-19 0.27024)
(4.77576 -6.18831e-19 -0.895497)
(-4.7491 5.60587e-18 0.96493)
(-4.40177 1.65239e-18 0.698388)
(12.5214 6.459e-21 -2.39274)
(4.13131 -4.07182e-18 -0.728343)
(-3.56455 0 0.699091)
(0.0295272 3.73307e-21 -0.210706)
(-0.111647 0 -0.0461836)
(-0.1178 4.42888e-21 0.0142962)
(-0.126541 0 0.0209827)
(-0.131589 3.59413e-21 0.0228435)
(-0.122667 6.37103e-21 0.0234681)
(-0.104573 2.78212e-21 0.0226699)
(-0.0806627 0 0.0214242)
(-0.0545111 2.07146e-23 0.0191594)
(-0.028159 3.10802e-21 0.0161003)
(-0.00323739 -2.33142e-21 0.012545)
(0.0192344 -1.60579e-21 0.0086388)
(0.038766 9.46805e-22 0.00453974)
(0.055076 -3.66595e-22 0.000459216)
(0.0679384 3.00861e-22 -0.00337914)
(0.0771822 0 -0.00678123)
(0.0827243 -7.43294e-23 -0.00959829)
(0.0845968 2.12678e-21 -0.0117345)
(0.0829857 2.45345e-21 -0.0131583)
(0.0782692 0 -0.0139055)
(0.0709998 0 -0.0140579)
(0.0618048 2.38193e-21 -0.0137075)
(0.0512522 0 -0.0129262)
(0.0397572 1.77514e-21 -0.0117569)
(0.0275755 -2.73931e-21 -0.0102255)
(0.0148774 0 -0.00836163)
(0.00185819 7.97621e-22 -0.00621666)
(-0.0111694 0 -0.00387077)
(-0.0237398 1.33397e-21 -0.00142927)
(-0.0352631 4.56567e-21 0.000988315)
(-0.0450964 6.3053e-21 0.00325927)
(-0.0526259 3.88765e-21 0.00526493)
(-0.0573292 -4.38226e-21 0.00689164)
(-0.0588203 -1.8425e-20 0.00803247)
(-0.0568853 -1.8293e-20 0.00859322)
(-0.051537 0 0.00850925)
(-0.0430669 0 0.00776406)
(-0.0320915 2.64626e-23 0.00640922)
(-0.0195327 0 0.00456848)
(-0.00654915 1.82205e-21 0.00243314)
(0.00562978 0 0.000233061)
(0.0158622 -3.63472e-21 -0.00178961)
(0.0232911 0 -0.00342369)
(0.0274228 -7.91719e-21 -0.00450864)
(0.0282305 0 -0.00497151)
(0.0260769 8.42803e-21 -0.00482082)
(0.0217125 0 -0.00416268)
(0.0160362 0 -0.00315268)
(0.0100589 -4.96039e-21 -0.00199627)
(0.0045914 0 -0.000872615)
(0.000316905 0 4.98976e-05)
(-0.00251478 0 0.000695462)
(-0.00379738 -3.52797e-21 0.00101709)
(-0.00385371 -7.19468e-21 0.0010718)
(-0.00290374 0 0.000898238)
(-0.0014591 0 0.000610986)
(0.000368728 5.6491e-21 0.000237859)
(0.00219473 6.56141e-21 -0.000128947)
(0.00420008 0 -0.000528397)
(0.00609914 0 -0.000900889)
(0.00821683 0 -0.00132952)
(0.0100868 0 -0.00172825)
(0.01192 2.28974e-20 -0.00215949)
(0.0128658 -2.40516e-20 -0.00245124)
(0.013015 4.80382e-20 -0.00262316)
(0.0113283 0 -0.00244154)
(0.00816717 0 -0.00195606)
(0.00280772 0 -0.000984184)
(-0.00369694 1.78687e-22 0.000285525)
(-0.01147 -3.29862e-21 0.00189046)
(-0.0188881 -1.82358e-20 0.00349676)
(-0.0257729 6.12244e-20 0.00503776)
(-0.0306587 1.31134e-22 0.00619001)
(-0.0336034 -4.27471e-20 0.00691801)
(-0.0340629 -4.16643e-20 0.00710549)
(-0.0324103 0 0.00679499)
(-0.0293085 0 0.00615515)
(-0.0247599 0 0.00516168)
(-0.0206169 1.83704e-20 0.00425227)
(-0.0153669 0 0.00308273)
(-0.0124336 0 0.00242356)
(-0.00745095 -2.56522e-20 0.00133305)
(-0.00680142 -3.41882e-20 0.00118729)
(-0.00127852 0 5.42151e-05)
(-0.00316942 0 0.000484093)
(0.0053563 0 -0.00118045)
(0.000176729 -1.9966e-19 -9.97608e-05)
(0.0151973 9.97454e-23 -0.003093)
(0.00337198 -1.12168e-19 -0.000816666)
(0.0272252 1.09135e-19 -0.00572121)
(0.00406985 -1.99983e-19 -0.00126587)
(0.0316841 -7.20385e-20 -0.006971)
(0.010962 -7.53919e-20 -0.00250427)
(0.00823928 0 -0.00209087)
(0.0456154 0 -0.00868362)
(-0.00150847 0 0.00139706)
(-0.0323935 0 0.00557046)
(0.287826 5.89558e-20 -0.0543414)
(-0.230336 0 0.0457503)
(0.458872 0 -0.0884806)
(-0.564082 2.17429e-19 0.112071)
(0.456212 -4.33805e-20 -0.101261)
(1.27683 -7.07132e-19 -0.227687)
(-2.52576 5.99236e-19 0.47624)
(3.92792 0 -0.775008)
(-1.99027 0 0.416661)
(-1.91564 0 0.281818)
(5.45253 4.1658e-19 -1.03143)
(-4.03057 6.81122e-19 0.822294)
(0.476585 0 -0.119106)
(-0.389987 -2.35308e-18 0.232055)
(2.97146 -2.27638e-19 -0.595006)
(0.948034 -4.75357e-18 -0.138085)
(-3.86978 0 0.657259)
(12.7137 0 -2.42533)
(-14.348 5.30684e-18 2.97795)
(-9.76164 0 1.53508)
(35.343 -2.69955e-18 -6.95227)
(9.47479 3.82407e-18 -1.57299)
(-10.0681 0 2.06263)
(0.0121401 0 -0.118189)
(-0.0605455 0 -0.0232682)
(-0.0941367 3.96933e-21 0.0234117)
(-0.117978 0 0.0292556)
(-0.1372 0 0.0283698)
(-0.144582 -3.04778e-21 0.0277593)
(-0.139212 -2.63458e-21 0.0272015)
(-0.123666 0 0.0266329)
(-0.101622 2.11443e-25 0.0257647)
(-0.0762394 -2.94422e-21 0.0244793)
(-0.0502253 4.44403e-21 0.022543)
(-0.0253012 1.52134e-21 0.0197297)
(-0.00234275 3.95166e-23 0.0160472)
(0.018117 3.47296e-22 0.0117451)
(0.035601 -1.2022e-22 0.00716713)
(0.0496686 4.61064e-22 0.0026349)
(0.0599822 -1.59344e-21 -0.00158883)
(0.0663586 -2.01546e-21 -0.00531485)
(0.0688274 0 -0.00845076)
(0.0676937 0 -0.0110001)
(0.0635221 2.34178e-21 -0.0130139)
(0.0569957 2.21814e-21 -0.0145238)
(0.048719 0 -0.015507)
(0.0390864 0 -0.0159005)
(0.0282835 2.59567e-21 -0.0156463)
(0.0164022 0 -0.0147332)
(0.00359654 -1.52993e-21 -0.0132161)
(-0.00979875 -2.03463e-22 -0.011205)
(-0.0232344 0 -0.00883832)
(-0.0360026 -2.13505e-21 -0.00625384)
(-0.0473405 -2.95991e-21 -0.00357356)
(-0.0565323 0 -0.000906669)
(-0.0629675 4.06886e-21 0.00163264)
(-0.066169 8.69402e-21 0.00391207)
(-0.0658119 5.85441e-23 0.00578125)
(-0.0617821 0 0.00709494)
(-0.0542436 0 0.00774014)
(-0.0437152 -5.45929e-21 0.00766872)
(-0.0310637 0 0.00690752)
(-0.0174492 0 0.00556505)
(-0.00414333 0 0.00380742)
(0.0076231 0 0.00184994)
(0.0168828 0 -8.25385e-05)
(0.0229912 0 -0.00176301)
(0.0257744 0 -0.00301973)
(0.0254291 -7.95488e-21 -0.00373342)
(0.0225941 7.18406e-21 -0.00389303)
(0.0180612 0 -0.00354598)
(0.0128324 4.69299e-21 -0.00284203)
(0.00770489 0 -0.00193058)
(0.00346218 0 -0.00101305)
(0.000389865 -3.91844e-21 -0.000200498)
(-0.00125728 0 0.000378502)
(-0.00179371 3.40178e-21 0.000737633)
(-0.00128953 -3.85762e-21 0.00083942)
(-0.000317005 0 0.000795505)
(0.00115733 -5.33965e-21 0.000590725)
(0.00260733 0 0.000364304)
(0.00437947 0 4.96239e-05)
(0.00597936 0 -0.0002257)
(0.00795862 -1.78857e-20 -0.000596116)
(0.00958059 -1.98598e-20 -0.000914175)
(0.0113612 -4.11117e-23 -0.00133525)
(0.012094 4.53873e-20 -0.00162756)
(0.0122443 -2.41544e-23 -0.0019265)
(0.0103062 0 -0.00190621)
(0.00707786 0 -0.00171555)
(0.00126396 2.49447e-20 -0.00101662)
(-0.00557879 1.29262e-22 -6.13016e-05)
(-0.0142012 0 0.00138676)
(-0.0224022 0 0.00293227)
(-0.0305915 -2.87843e-20 0.00467091)
(-0.0366773 1.34366e-22 0.00616926)
(-0.0411597 9.20476e-23 0.00744827)
(-0.0429624 0 0.00825878)
(-0.0426651 0 0.00859452)
(-0.0407568 -5.37649e-20 0.00857717)
(-0.0370272 3.60242e-20 0.00803613)
(-0.0338486 0 0.00756339)
(-0.0286619 0 0.00650096)
(-0.0266081 0 0.00608485)
(-0.0206946 0 0.00472853)
(-0.0211756 0 0.00476211)
(-0.0132668 0 0.00299474)
(-0.0171706 0 0.00376433)
(-0.00383586 0 0.00103433)
(-0.0131355 1.87569e-19 0.00290812)
(0.0110208 9.89286e-20 -0.00188258)
(-0.00926324 1.05423e-19 0.00210854)
(0.0306212 -1.02552e-19 -0.00608917)
(-0.00745324 1.879e-19 0.00132339)
(0.0422385 6.76652e-20 -0.00954224)
(0.00859702 3.55119e-20 -0.00210722)
(0.0126117 0 -0.00478915)
(0.0734191 0 -0.0152328)
(-0.00327413 0 0.00234962)
(-0.0410383 0 0.00196247)
(0.460358 -5.53099e-20 -0.0851303)
(-0.391625 0 0.0763689)
(0.733436 0 -0.138272)
(-0.913488 -2.03868e-19 0.181129)
(0.79569 0 -0.191806)
(1.88414 3.30461e-19 -0.294207)
(-3.97613 -5.6155e-19 0.717971)
(6.42045 0 -1.27126)
(-3.52445 0 0.853324)
(-2.53559 0 0.301807)
(8.59682 3.94386e-19 -1.58138)
(-6.87596 0 1.45051)
(1.19678 1.29028e-19 -0.329105)
(-0.729247 -3.30853e-21 0.120636)
(4.62028 2.13047e-19 -0.921507)
(1.28879 4.43782e-18 -0.103797)
(-5.58277 0 0.811175)
(19.2526 5.6892e-19 -3.53229)
(-23.8625 -4.96393e-18 5.13218)
(-12.2135 1.42054e-18 1.31054)
(55.9654 0 -11.0739)
(12.2724 -3.57566e-18 -1.47428)
(-15.6157 0 3.33889)
(0.016486 0 -0.0527661)
(-0.0262799 0 -0.00559881)
(-0.0531289 -3.75247e-21 0.0285749)
(-0.0685802 0 0.0368707)
(-0.0856071 3.09666e-21 0.0344986)
(-0.100613 -5.59731e-21 0.0301513)
(-0.108245 0 0.0266429)
(-0.106356 4.18915e-21 0.0247549)
(-0.0958373 -3.50861e-21 0.0242754)
(-0.0793102 -2.79753e-21 0.0245082)
(-0.0598181 -2.11368e-21 0.0244998)
(-0.0396448 1.4978e-21 0.0234331)
(-0.0200803 -8.85656e-22 0.0210124)
(-0.00187782 8.16527e-22 0.0174608)
(0.0143197 0 0.0132152)
(0.0278888 -8.28608e-22 0.00868528)
(0.0383184 0 0.00419099)
(0.0452794 0 -4.38374e-05)
(0.0486721 0 -0.00391678)
(0.0486993 2.15935e-21 -0.00743887)
(0.0458791 -5.03425e-23 -0.0106507)
(0.0408958 -3.95372e-23 -0.0135192)
(0.0343503 1.85475e-21 -0.015902)
(0.0265804 0 -0.017601)
(0.0176591 0 -0.0184545)
(0.00754564 0 -0.0184058)
(-0.00371334 1.473e-21 -0.0175179)
(-0.0158363 2.10641e-23 -0.0159375)
(-0.0282714 0 -0.0138367)
(-0.0402753 0 -0.0113635)
(-0.0510477 0 -0.00862575)
(-0.0598545 0 -0.00570795)
(-0.0660839 -7.64424e-21 -0.0027115)
(-0.069257 0 0.000218632)
(-0.0690274 8.11545e-21 0.00289201)
(-0.0652382 0 0.00510616)
(-0.0579945 0 0.00668275)
(-0.0477608 5.12561e-21 0.00750926)
(-0.0353549 0 0.00754878)
(-0.0219037 0 0.0068519)
(-0.00864329 6.16028e-24 0.00553327)
(0.00321749 -3.03111e-21 0.0037797)
(0.0127347 0 0.0018137)
(0.0192534 -6.91973e-21 -0.000100569)
(0.0225873 0 -0.00173289)
(0.0228771 1.50102e-20 -0.00288229)
(0.0207265 -3.18518e-25 -0.00346626)
(0.0168505 0 -0.00346187)
(0.0122308 0 -0.00298831)
(0.00759502 -3.35721e-21 -0.00217372)
(0.00374784 -4.92325e-21 -0.00124538)
(0.00091393 7.46109e-21 -0.000329448)
(-0.000589079 0 0.000390515)
(-0.00114404 3.25353e-21 0.000913246)
(-0.000715462 3.64145e-21 0.00114901)
(3.1538e-05 4.28467e-21 0.00122472)
(0.00127759 5.02085e-21 0.00109087)
(0.00235501 0 0.000936409)
(0.00380283 0 0.000662043)
(0.00492134 1.49891e-20 0.000459127)
(0.00651804 3.37011e-20 0.000135763)
(0.00757647 1.87312e-20 -9.63291e-05)
(0.00894814 -4.66989e-23 -0.000482342)
(0.00905611 -2.13814e-20 -0.000716134)
(0.0087905 -2.1348e-20 -0.00104125)
(0.0061719 0 -0.00102493)
(0.00251587 0 -0.000921637)
(-0.00405215 -2.35074e-20 -0.000241327)
(-0.0113753 -2.23039e-20 0.000665422)
(-0.0208722 0 0.00221045)
(-0.0296777 1.56644e-20 0.00388285)
(-0.0388931 2.67607e-20 0.00592374)
(-0.0457358 3.45212e-20 0.00774929)
(-0.0513184 7.55733e-20 0.00946015)
(-0.053965 0 0.0106652)
(-0.0546672 0 0.0113741)
(-0.0536234 5.0594e-20 0.0116637)
(-0.0506149 -6.78961e-20 0.011296)
(-0.0483425 -1.67273e-20 0.0109991)
(-0.0434033 0 0.00987472)
(-0.0424017 0 0.00957018)
(-0.0359418 0 0.00792461)
(-0.0378552 0 0.00812732)
(-0.0280339 0 0.00581188)
(-0.0342897 0 0.00696626)
(-0.0166264 8.10662e-20 0.00328563)
(-0.0303779 -9.53599e-23 0.00597728)
(0.00248013 -9.27422e-20 -0.00047977)
(-0.0266514 0 0.00514786)
(0.0290451 -9.6144e-20 -0.0061866)
(-0.0246796 -8.81842e-20 0.00433279)
(0.0478895 0 -0.0116568)
(-0.00102192 3.35825e-20 -0.000311829)
(0.0135163 -6.92078e-21 -0.00687182)
(0.0930337 0 -0.0195361)
(-0.0116266 0 0.0053323)
(-0.04655 0 -0.00360103)
(0.611243 -5.22013e-20 -0.109782)
(-0.557501 0 0.108253)
(0.987175 0 -0.183337)
(-1.23741 -1.90825e-19 0.248748)
(1.14696 3.829e-20 -0.307568)
(2.32132 0 -0.311346)
(-5.24598 0 0.908556)
(8.74915 0 -1.74245)
(-5.16002 0 1.33867)
(-2.70435 0 0.146612)
(11.2998 2.57493e-21 -2.04163)
(-9.70844 0 2.10488)
(2.18879 -1.20735e-19 -0.617966)
(-1.09043 1.24256e-18 0.147049)
(6.0555 0 -1.23214)
(1.48652 -7.4439e-21 -0.0160356)
(-6.81226 0 0.83331)
(24.538 1.06634e-20 -4.37323)
(-32.8849 0 7.30219)
(-12.1467 -1.32821e-18 0.294178)
(73.9566 0 -14.8039)
(12.6999 -3.32219e-18 -0.739804)
(-19.6829 0 4.41974)
(0.0194748 0 -0.028987)
(-0.00537479 0 -0.00134628)
(-0.022244 0 0.0264261)
(-0.0260791 0 0.0382155)
(-0.031965 -2.92311e-21 0.0386082)
(-0.0419344 5.29403e-23 0.0339246)
(-0.0513627 0 0.028075)
(-0.0563079 -3.95406e-21 0.0235679)
(-0.0550521 0 0.0214354)
(-0.0478859 5.26892e-21 0.0213335)
(-0.0366088 0 0.0220045)
(-0.0233056 -1.41402e-21 0.0220224)
(-0.00946044 0 0.0206123)
(0.00402792 -7.7091e-22 0.0178383)
(0.0164273 1.48682e-23 0.014173)
(0.0269941 6.95182e-22 0.0100721)
(0.0350914 -1.18435e-21 0.00585594)
(0.0402952 -1.578e-21 0.00172886)
(0.0424069 0 -0.00223809)
(0.0415068 -2.03902e-21 -0.00610236)
(0.0380242 -2.04403e-21 -0.00993318)
(0.0326416 -3.83817e-21 -0.013658)
(0.0260116 -1.75138e-21 -0.0170178)
(0.0184968 0 -0.0196675)
(0.0101215 0 -0.0213311)
(0.000737647 0 -0.0219058)
(-0.00972788 -6.99493e-22 -0.0214712)
(-0.0210841 1.61808e-22 -0.02022)
(-0.0328192 0 -0.0183631)
(-0.0441876 0 -0.0160556)
(-0.0543706 -2.51422e-21 -0.0133805)
(-0.0626299 0 -0.0103839)
(-0.0683703 5.56171e-23 -0.00714049)
(-0.0711412 7.49435e-21 -0.00379468)
(-0.0706126 -7.47635e-21 -0.000562221)
(-0.0666254 0 0.00231623)
(-0.059264 0 0.00462029)
(-0.0489715 -4.83766e-21 0.0061975)
(-0.0365439 0 0.00696696)
(-0.0230965 0 0.00693194)
(-0.00984478 -5.8145e-24 0.00615397)
(0.00201523 2.86017e-21 0.00477841)
(0.0115648 0 0.00300248)
(0.0181493 6.52865e-21 0.00109909)
(0.0215928 0 -0.000674377)
(0.0220094 -7.07011e-21 -0.00206266)
(0.0200059 -6.4015e-21 -0.00293214)
(0.0162564 0 -0.00319685)
(0.0117589 -4.26251e-21 -0.00294139)
(0.00719437 3.16603e-21 -0.00225558)
(0.00340722 9.36243e-21 -0.00137131)
(0.000561152 -3.5463e-21 -0.000404877)
(-0.000962603 3.10768e-21 0.000421551)
(-0.00163426 3.93067e-23 0.00110374)
(-0.00132264 0 0.00149757)
(-0.000815006 -4.03847e-21 0.00174156)
(0.00020828 -4.73187e-21 0.00173767)
(0.000909681 5.46189e-21 0.001718)
(0.00202492 -6.22746e-21 0.00153821)
(0.0026249 -1.41219e-20 0.00145623)
(0.0037903 -1.58541e-20 0.001219)
(0.00419948 1.75584e-20 0.00111566)
(0.00506682 -1.91263e-20 0.000809861)
(0.00441233 0 0.000695384)
(0.00358835 0 0.000408984)
(9.97532e-05 -1.86545e-20 0.000494516)
(-0.00416884 0 0.000565805)
(-0.011723 0 0.00126423)
(-0.0197326 1.05525e-20 0.00211083)
(-0.0303457 0 0.00370389)
(-0.0399341 -1.47378e-20 0.00540087)
(-0.0503709 -5.01549e-20 0.00762404)
(-0.0580647 0 0.00964059)
(-0.0648576 -3.54744e-20 0.0116817)
(-0.0683442 0 0.0132136)
(-0.0700877 0 0.0142998)
(-0.0698472 -4.75979e-20 0.0149488)
(-0.067589 3.19584e-20 0.0148674)
(-0.0661615 -1.31241e-22 0.0148788)
(-0.0615384 0 0.0138467)
(-0.0615706 0 0.0137903)
(-0.0547027 0 0.0119858)
(-0.0580915 2.79916e-20 0.012448)
(-0.0465681 -3.22538e-20 0.00966737)
(-0.0552743 0 0.0112353)
(-0.0335398 -1.5207e-19 0.00665747)
(-0.0518742 -8.25602e-20 0.010155)
(-0.0105878 1.73969e-19 0.00207854)
(-0.0487603 9.26474e-20 0.00930221)
(0.0226448 1.80306e-19 -0.0050574)
(-0.0472832 0 0.00870166)
(0.048971 0 -0.0127331)
(-0.0175613 -3.14891e-20 0.00342769)
(0.0114169 6.48847e-21 -0.00881856)
(0.104019 -6.31332e-20 -0.0219387)
(-0.0254996 0 0.00987225)
(-0.0499247 0 -0.0134888)
(0.738151 4.89092e-20 -0.127525)
(-0.724275 -4.4275e-20 0.138741)
(1.2207 0 -0.222969)
(-1.53606 1.78712e-19 0.310734)
(1.49912 -3.58525e-20 -0.433202)
(2.60337 0 -0.269997)
(-6.32783 0 1.03376)
(10.8563 0 -2.1674)
(-6.849 0 1.81057)
(-2.45399 0 -0.147914)
(13.5238 -3.47799e-19 -2.3676)
(-12.4063 0 2.75827)
(3.38543 0 -0.987203)
(-1.53426 0 0.20297)
(7.30095 -1.62463e-19 -1.51003)
(1.57991 -1.93142e-18 0.136361)
(-7.65584 0 0.707222)
(28.7776 -5.07349e-19 -4.89746)
(-41.0466 0 9.35368)
(-10.0611 -1.21161e-18 -1.44295)
(89.0505 0 -17.9387)
(10.9996 3.10473e-18 0.725788)
(-21.7493 0 5.13478)
(0.0214909 3.21657e-21 -0.0180804)
(0.00735738 3.17671e-21 0.000876694)
(-0.00538862 -3.0463e-21 0.0222956)
(-0.00371369 -2.85121e-21 0.034584)
(-0.000395991 0 0.0380419)
(-0.00125424 2.42088e-21 0.0360497)
(-0.00470019 0 0.0310854)
(-0.00795116 -3.60603e-21 0.0255058)
(-0.00897341 -3.02823e-21 0.021535)
(-0.00654487 -4.932e-21 0.0199921)
(-0.00074306 1.89676e-21 0.0200734)
(0.00727942 -1.36685e-21 0.0201462)
(0.016282 0 0.0190155)
(0.0254301 0 0.0165104)
(0.0340674 -1.40255e-23 0.0130954)
(0.0414587 -4.75373e-23 0.00925384)
(0.0469063 9.67827e-23 0.00527001)
(0.0499359 9.42669e-23 0.00129348)
(0.0502865 0 -0.00264724)
(0.0478939 0 -0.00666679)
(0.0430193 0 -0.0108983)
(0.0362903 3.5135e-21 -0.0152731)
(0.0284533 1.56785e-21 -0.0194358)
(0.020011 0 -0.0228871)
(0.0110593 0 -0.0252207)
(0.00141548 1.39346e-21 -0.02628)
(-0.00910011 0 -0.0261654)
(-0.0204161 0 -0.0251283)
(-0.0321032 0 -0.02343)
(-0.0434391 0 -0.0212394)
(-0.0535853 4.52758e-23 -0.0186132)
(-0.0617801 0 -0.0155519)
(-0.0674302 5.91975e-23 -0.0120953)
(-0.0701144 -7.06454e-21 -0.00838131)
(-0.0695347 1.18792e-22 -0.00464669)
(-0.0655489 0 -0.00116485)
(-0.0582334 0 0.00180999)
(-0.0480153 0 0.00409617)
(-0.0356709 0 0.00557902)
(-0.022309 0 0.00622179)
(-0.00913316 0 0.00603469)
(0.00266166 0 0.00511897)
(0.0121727 -4.70997e-21 0.00363912)
(0.0187359 -6.06777e-21 0.00186715)
(0.0221819 0 7.49714e-05)
(0.0225927 -6.61967e-21 -0.00143971)
(0.0205809 0 -0.00250372)
(0.0167789 0 -0.00297337)
(0.0122103 8.05758e-21 -0.00290079)
(0.00750993 0 -0.00233131)
(0.00357453 -4.44501e-21 -0.00149423)
(0.000507057 0 -0.00048355)
(-0.00123255 -5.91839e-21 0.000446945)
(-0.00220609 4.9782e-23 0.00129878)
(-0.00217254 0 0.00187225)
(-0.00205413 0 0.0023192)
(-0.00137839 0 0.00248446)
(-0.0011733 -1.02779e-20 0.00264249)
(-0.000489094 1.17119e-20 0.00259362)
(-0.000511688 1.32304e-20 0.00266551)
(0.000136487 1.48476e-20 0.00253664)
(-0.00020624 -3.29993e-20 0.00258364)
(7.02996e-05 -1.7907e-20 0.00237399)
(-0.00146006 0 0.00240325)
(-0.00293796 0 0.00218064)
(-0.00742782 2.74345e-23 0.00237485)
(-0.0124171 0 0.00245324)
(-0.0211087 0 0.00322037)
(-0.0299228 1.01049e-20 0.00404746)
(-0.0418176 0 0.00573194)
(-0.0523045 0 0.00747583)
(-0.0641283 4.67591e-20 0.00990176)
(-0.0727731 -3.00015e-20 0.0121075)
(-0.0809368 0 0.0144826)
(-0.0853522 0 0.0163332)
(-0.0883056 0 0.0178064)
(-0.0889616 4.47017e-20 0.0188205)
(-0.0876418 0 0.0190521)
(-0.0871647 2.98701e-20 0.0193919)
(-0.0830673 -1.28737e-21 0.0184873)
(-0.0842531 0 0.018701)
(-0.0772095 0 0.0167724)
(-0.0822115 -2.62669e-20 0.0175076)
(-0.0692409 1.16209e-22 0.0142958)
(-0.080554 -3.3487e-20 0.0162746)
(-0.0550194 7.12615e-20 0.0108387)
(-0.0781072 -7.72267e-20 0.0151099)
(-0.0286749 -8.1525e-20 0.00545108)
(-0.0760909 -8.68657e-20 0.0142424)
(0.0108865 -8.81136e-23 -0.00304799)
(-0.0757928 0 0.0139608)
(0.0449419 5.58966e-20 -0.0131056)
(-0.0416312 0 0.0086342)
(0.00605722 0 -0.0107165)
(0.105276 5.9144e-20 -0.0222696)
(-0.0442559 0 0.0156129)
(-0.0523587 0 -0.0259423)
(0.838764 0 -0.137765)
(-0.887251 4.14551e-20 0.167146)
(1.43374 0 -0.257749)
(-1.81034 1.67034e-19 0.367586)
(1.83936 0 -0.569071)
(2.74699 0 -0.177815)
(-7.2131 0 1.09401)
(12.6997 0 -2.53784)
(-8.51199 0 2.36639)
(-1.85047 -1.39548e-19 -0.575274)
(15.2477 -3.30694e-19 -2.54841)
(-14.8496 -5.20722e-19 3.38503)
(4.70614 0 -1.41907)
(-2.08971 0 0.281566)
(8.38606 2.95542e-19 -1.77444)
(1.5838 0 0.337968)
(-8.17631 -5.94549e-19 0.458986)
(32.1492 0 -5.17261)
(-48.0406 -4.06087e-18 11.2607)
(-6.53175 1.1323e-18 -3.86982)
(101.097 0 -20.3905)
(7.36071 2.88311e-18 2.78478)
(-21.3649 0 5.40443)
(0.0227998 -3.02916e-21 -0.0117301)
(0.0146536 -5.87497e-21 0.0027078)
(0.00269226 2.86947e-21 0.0188096)
(0.00496334 9.81841e-23 0.0298887)
(0.0121095 -2.37891e-21 0.035074)
(0.0173887 0 0.0358229)
(0.0203904 0 0.0332666)
(0.0221632 3.39563e-21 0.0286491)
(0.0237313 5.64725e-21 0.0240713)
(0.0262541 3.18305e-23 0.0213096)
(0.0305689 -1.78591e-21 0.0203673)
(0.0364577 1.28697e-21 0.019864)
(0.0430979 -8.50308e-22 0.0184274)
(0.0498 0 0.0156779)
(0.0560848 0 0.0120657)
(0.061375 -2.43355e-22 0.00812773)
(0.0650138 1.81916e-21 0.00411339)
(0.0665322 2.52381e-21 9.57541e-05)
(0.0656736 0 -0.00393056)
(0.062263 0 -0.00811365)
(0.056319 0 -0.0126708)
(0.0482889 -6.77975e-23 -0.0176015)
(0.0389683 -2.89654e-21 -0.0225061)
(0.0290866 1.21167e-21 -0.0267365)
(0.0189631 1.89038e-21 -0.02973)
(0.00850783 -2.58012e-21 -0.0312497)
(-0.00250949 5.84258e-22 -0.0314085)
(-0.0141526 -1.31627e-22 -0.0305232)
(-0.0261289 -8.48251e-22 -0.0289225)
(-0.03779 0 -0.026805)
(-0.0482898 2.18903e-21 -0.0242092)
(-0.0568205 -2.65148e-21 -0.0210873)
(-0.062759 3.07612e-21 -0.0174364)
(-0.0656994 6.4034e-21 -0.0133812)
(-0.0653826 1.29126e-20 -0.0091771)
(-0.0616992 0 -0.00512974)
(-0.0547245 0 -0.00152505)
(-0.0448661 4.08584e-21 0.0014322)
(-0.0328686 0 0.00360181)
(-0.0198276 -1.35062e-21 0.00491542)
(-0.00693153 3.05791e-23 0.00533686)
(0.00462138 0 0.00492523)
(0.0139437 8.85318e-21 0.00380993)
(0.0203581 5.71016e-21 0.00225818)
(0.0237024 0 0.000548124)
(0.0240185 6.22886e-21 -0.000989106)
(0.0219234 5.66557e-21 -0.00215287)
(0.0179972 0 -0.00275003)
(0.0132886 -7.63417e-21 -0.00280803)
(0.00837455 2.9105e-21 -0.00232737)
(0.00420885 4.34256e-21 -0.00153392)
(0.000823421 0 -0.000489761)
(-0.00123021 -7.37115e-23 0.000525362)
(-0.00261615 -5.65378e-21 0.00153097)
(-0.00296516 0 0.00227398)
(-0.00334996 0 0.002928)
(-0.0031224 4.20347e-21 0.00327535)
(-0.00352371 4.82992e-21 0.00363685)
(-0.0033623 -1.09962e-20 0.00374626)
(-0.00411327 -1.24369e-20 0.00400513)
(-0.00406791 -1.39559e-20 0.00401145)
(-0.00527068 1.54887e-20 0.00423885)
(-0.00567164 3.3616e-20 0.00414832)
(-0.00819632 0 0.00435262)
(-0.0104214 0 0.00422215)
(-0.0160456 3.28815e-20 0.00456807)
(-0.0218567 0 0.00469436)
(-0.0318335 0 0.00558488)
(-0.041558 -9.49069e-21 0.00643648)
(-0.0548919 0 0.00826035)
(-0.0663807 -1.25149e-20 0.0100748)
(-0.0797525 -1.88963e-22 0.0127213)
(-0.0894474 2.81657e-20 0.0151048)
(-0.0991527 0 0.0178008)
(-0.104606 0 0.0199403)
(-0.108965 0 0.0217849)
(-0.110652 4.18357e-20 0.0231511)
(-0.110498 0 0.023706)
(-0.111133 -1.40611e-20 0.0243969)
(-0.107812 2.54218e-21 0.0236611)
(-0.110339 0 0.0241965)
(-0.103389 0 0.022203)
(-0.110218 0 0.0232731)
(-0.0960869 1.21346e-22 0.0196956)
(-0.110247 3.13931e-20 0.0221358)
(-0.0812124 6.65098e-20 0.0159121)
(-0.109313 7.23801e-20 0.0209751)
(-0.0520464 -7.62008e-20 0.0098274)
(-0.108997 0 0.0201655)
(-0.00663733 -7.90638e-20 3.53005e-05)
(-0.110658 0 0.0203801)
(0.0352661 -5.23564e-20 -0.0125868)
(-0.0738484 0 0.0156113)
(-0.00302718 0 -0.0124648)
(0.0955202 0 -0.0201097)
(-0.0674594 -7.24476e-20 0.0225153)
(-0.0561689 -6.69427e-20 -0.0410081)
(0.911197 0 -0.139497)
(-1.04176 -3.86169e-20 0.192348)
(1.62508 4.21782e-20 -0.287318)
(-2.06234 -1.5629e-19 0.420236)
(2.15704 3.07838e-20 -0.712759)
(2.77295 0 -0.0372484)
(-7.89914 0 1.08624)
(14.2486 0 -2.84435)
(-10.1068 0 2.9122)
(-0.975642 1.30503e-19 -1.12215)
(16.4737 -3.06765e-21 -2.58267)
(-16.9297 9.73694e-19 3.95653)
(6.06172 0 -1.89635)
(-2.7617 0 0.387447)
(9.34868 -1.34267e-19 -2.02703)
(1.50299 0 0.590933)
(-8.41717 5.55593e-19 0.0952841)
(34.8163 0 -5.21808)
(-53.6759 7.59188e-18 12.9253)
(-2.13123 0 -6.74407)
(110.049 0 -22.197)
(1.97426 -2.6933e-18 5.38737)
(-18.3534 0 5.1077)
(0.0231912 0 -0.00838809)
(0.0186586 2.71213e-21 0.00368315)
(0.00707377 0 0.0166333)
(0.00828416 2.4344e-21 0.0264016)
(0.0155001 4.38403e-21 0.0320559)
(0.0226937 0 0.0343946)
(0.0290991 -1.73575e-21 0.0339417)
(0.0348896 0 0.0311671)
(0.0399471 -6.50103e-23 0.0272543)
(0.0447384 4.24832e-21 0.0240613)
(0.050032 0 0.0222824)
(0.0561613 0 0.0210671)
(0.0626695 7.99765e-22 0.0191146)
(0.0689355 0 0.0158964)
(0.0745808 0 0.011825)
(0.0792256 0 0.00752111)
(0.0823259 -8.07815e-22 0.00324055)
(0.083438 -1.1396e-21 -0.00102516)
(0.0823549 -1.26227e-21 -0.00530405)
(0.0788832 0 -0.0097181)
(0.0728033 0 -0.0145438)
(0.0642304 -1.46599e-21 -0.0199142)
(0.0538363 1.33575e-21 -0.0254821)
(0.0425457 -1.13959e-21 -0.0304927)
(0.0310256 -1.77792e-21 -0.0342028)
(0.0194576 2.32919e-21 -0.0362467)
(0.00769503 -3.3478e-23 -0.0367134)
(-0.00441637 1.23809e-22 -0.0359772)
(-0.0167593 7.97777e-22 -0.034448)
(-0.0288327 0 -0.0323789)
(-0.0398331 0 -0.02981)
(-0.0489038 2.49354e-21 -0.0266496)
(-0.0553546 0 -0.0228432)
(-0.0587638 -6.02169e-21 -0.0184912)
(-0.0589066 -6.00887e-21 -0.0138632)
(-0.0557228 5.47897e-21 -0.00929769)
(-0.0492999 0 -0.00511439)
(-0.0400252 -3.84182e-21 -0.00153848)
(-0.0285984 -2.51427e-21 0.00127132)
(-0.0160901 6.25292e-23 0.00322441)
(-0.00366613 -9.65448e-23 0.00424439)
(0.00747109 0 0.00435147)
(0.0164525 -4.15577e-21 0.00363893)
(0.0225869 0 0.00236758)
(0.0257251 0 0.000815981)
(0.0258637 0 -0.000657497)
(0.0236251 2.41409e-25 -0.00183576)
(0.0195246 0 -0.00248386)
(0.014638 3.60024e-21 -0.00261445)
(0.009469 -5.50866e-21 -0.00218499)
(0.00503513 -4.08076e-21 -0.00142137)
(0.00128151 0 -0.000346513)
(-0.00113416 2.71355e-21 0.000736093)
(-0.00299563 5.43305e-21 0.00187632)
(-0.00378377 0 0.00276901)
(-0.0047445 0 0.00362094)
(-0.00502508 -3.94854e-21 0.00414705)
(-0.00611082 -4.54616e-21 0.00472286)
(-0.00653215 5.16144e-21 0.00500408)
(-0.00809515 1.16462e-20 0.00547382)
(-0.00871512 0 0.00563502)
(-0.0108732 0 0.00606998)
(-0.0120229 -3.81359e-23 0.00611859)
(-0.0156553 1.65176e-20 0.00652834)
(-0.0187117 0 0.00651522)
(-0.0256043 -1.54183e-20 0.00705391)
(-0.0323334 0 0.00726501)
(-0.0437477 0 0.00833252)
(-0.0544859 0 0.00925226)
(-0.0694217 0 0.0112681)
(-0.0820145 1.56912e-22 0.013184)
(-0.0971013 -1.84729e-22 0.0160807)
(-0.107949 -2.60513e-20 0.0186441)
(-0.119376 0 0.0216611)
(-0.125989 -2.81827e-20 0.0240726)
(-0.131963 0 0.0262789)
(-0.134841 -3.92294e-20 0.0279894)
(-0.136093 2.6503e-20 0.0288732)
(-0.138042 -1.33158e-20 0.0299372)
(-0.135763 -1.25103e-21 0.0293993)
(-0.139873 0 0.0303089)
(-0.1333 -1.67455e-20 0.0282966)
(-0.142245 0 0.0297711)
(-0.127252 2.63703e-20 0.0258826)
(-0.144596 2.92212e-20 0.0288507)
(-0.11237 -6.23065e-20 0.0219014)
(-0.145861 0 0.0277967)
(-0.0810805 1.42631e-19 0.0152413)
(-0.147976 0 0.0271532)
(-0.0304516 -7.3853e-20 0.00422543)
(-0.152546 0 0.0278047)
(0.0193116 -4.89394e-20 -0.010908)
(-0.115011 0 0.024408)
(-0.0164811 4.31707e-21 -0.0139842)
(0.0733133 -5.09299e-20 -0.0152246)
(-0.0948839 6.77964e-20 0.0302982)
(-0.0640374 6.2639e-20 -0.0577198)
(0.954055 0 -0.132549)