/*--------------------------------*- C++ -*----------------------------------*\
| =========                 |                                                 |
| \\      /  F ield         | OpenFOAM: The Open Source CFD Toolbox           |
|  \\    /   O peration     | Version:  2412                                  |
|   \\  /    A nd           | Website:  www.openfoam.com                      |
|    \\/     M anipulation  |                                                 |
\*---------------------------------------------------------------------------*/
FoamFile
{
    version     2.0;
    format      ascii;
    arch        "LSB;label=32;scalar=64";
    class       surfaceScalarField;
    location    "1.55";
    object      ddtCorrDdt0(phi);
}
// * * * * * * * * * * * * * * * * * * * * * * * * * * * * * * * * * * * * * //

dimensions      [0 3 -2 0 0 0 0];

oriented        oriented;

internalField   nonuniform List<scalar> 
24930
(
-9.48902e-05
-0.000354859
-0.000278473
-5.06544e-05
-6.87696e-05
-5.58337e-05
-1.13956e-05
-5.12801e-05
-9.58247e-06
-4.04254e-05
-9.75194e-06
-2.61294e-05
-8.64452e-06
-9.54479e-06
-7.30287e-06
7.59017e-06
-4.42062e-06
2.36185e-05
-9.34527e-07
3.78498e-05
2.39059e-06
4.97267e-05
5.4104e-06
5.90021e-05
7.80896e-06
6.56416e-05
9.41609e-06
6.9703e-05
1.02246e-05
7.1289e-05
1.03095e-05
7.05436e-05
9.77073e-06
6.76529e-05
8.71559e-06
6.28448e-05
7.24862e-06
5.63984e-05
5.45427e-06
4.86518e-05
3.39086e-06
3.9985e-05
1.11035e-06
3.07719e-05
-1.31193e-06
2.13251e-05
-3.7658e-06
1.18671e-05
-6.12447e-06
2.54499e-06
-8.27907e-06
-6.51911e-06
-1.01662e-05
-1.51661e-05
-1.17726e-05
-2.31553e-05
-1.31152e-05
-3.01538e-05
-1.42091e-05
-3.57628e-05
-1.50392e-05
-3.95702e-05
-1.55493e-05
-4.12131e-05
-1.5653e-05
-4.04367e-05
-1.52621e-05
-3.71437e-05
-1.43173e-05
-3.14331e-05
-1.28112e-05
-2.36326e-05
-1.07939e-05
-1.43084e-05
-8.37345e-06
-4.24591e-06
-5.70438e-06
5.6214e-06
-2.98213e-06
1.43212e-05
-4.1911e-07
2.0993e-05
1.76931e-06
2.50225e-05
3.41341e-06
2.61551e-05
4.40859e-06
2.45228e-05
4.76148e-06
2.06311e-05
4.55826e-06
1.52463e-05
3.97354e-06
9.28121e-06
3.18751e-06
3.60543e-06
2.40095e-06
-1.05907e-06
1.73266e-06
-4.28103e-06
1.28345e-06
-5.90221e-06
1.03735e-06
-6.07875e-06
9.99226e-07
-5.12235e-06
1.07015e-06
-3.48231e-06
1.23944e-06
-1.52056e-06
1.39556e-06
4.43063e-07
1.577e-06
2.31848e-06
1.69258e-06
4.0547e-06
1.83731e-06
5.78126e-06
1.90268e-06
7.49613e-06
1.9909e-06
9.23919e-06
1.92531e-06
1.07448e-05
1.80281e-06
1.1751e-05
1.40719e-06
1.16995e-05
9.0537e-07
1.02243e-05
1.48612e-07
6.89601e-06
-5.30812e-07
1.781e-06
-1.14496e-06
-4.88731e-06
-1.25991e-06
-1.23056e-05
-8.95846e-07
-1.95773e-05
1.54586e-07
-2.56155e-05
1.62066e-06
-2.95519e-05
3.24204e-06
-3.09176e-05
4.68056e-06
-2.9513e-05
5.43322e-06
-2.59408e-05
5.70977e-06
-2.05063e-05
4.93455e-06
-1.45785e-05
4.19215e-06
-8.17995e-06
2.39492e-06
-2.97579e-06
1.54453e-06
2.00853e-06
-5.95119e-07
4.84816e-06
-7.65315e-07
7.88483e-06
-2.87947e-06
8.5362e-06
-1.75031e-06
1.0744e-05
-3.63186e-06
1.06932e-05
-7.77536e-07
1.38486e-05
-2.6446e-06
1.43481e-05
1.15931e-06
1.9514e-05
-3.68579e-06
1.84054e-05
-5.2673e-07
2.32854e-05
-1.29903e-05
1.46039e-05
-7.76103e-06
1.83927e-05
-2.64325e-05
-8.3189e-07
-2.19767e-06
4.83052e-06
-1.45584e-05
4.32503e-06
8.11159e-06
-2.5129e-05
4.77077e-05
5.96431e-05
-5.42263e-05
6.93014e-05
1.89496e-05
1.83181e-05
6.83005e-05
8.24215e-05
-6.71198e-05
-0.00016341
0.000241641
0.000736393
-0.000928963
-0.000292666
0.00100813
-9.11469e-06
-0.00028577
0.00120973
-0.00124227
-0.00193514
0.00318141
0.00121069
-0.0031858
0.00116425
5.38539e-05
-0.00183686
0.00300645
0.000347262
-0.00200052
0.00108532
-0.0707763
0.00232891
-0.00226164
-0.00178656
0.00401995
0.00393707
-0.00605441
0.00279753
0.000690415
-0.0154185
0.0180234
0.0123525
-0.0279487
0.0277482
-0.0154819
0.000447526
0.0274264
0.0121483
-7.57069e-05
-0.000186907
-0.000114924
-0.000117246
-6.49792e-05
-0.000147165
2.5374e-06
-0.000161318
1.43957e-06
-0.000158157
-6.74349e-06
-0.000141567
-1.10673e-05
-0.000115539
-1.23882e-05
-8.45922e-05
-9.85257e-06
-5.17196e-05
-4.99082e-06
-1.95586e-05
9.23604e-07
1.01823e-05
6.75126e-06
3.65785e-05
1.14296e-05
5.91542e-05
1.44362e-05
7.75891e-05
1.57615e-05
9.16206e-05
1.56215e-05
0.000101073
1.42565e-05
0.0001059
1.18839e-05
0.000106222
8.67955e-06
0.000102368
4.73604e-06
9.49032e-05
7.1246e-08
8.45614e-05
-5.2738e-06
7.21007e-05
-1.11228e-05
5.81514e-05
-1.71396e-05
4.31416e-05
-2.29129e-05
2.73346e-05
-2.80893e-05
1.09468e-05
-3.24696e-05
-5.71741e-06
-3.60222e-05
-2.21763e-05
-3.8815e-05
-3.77591e-05
-4.09118e-05
-5.16659e-05
-4.22887e-05
-6.30653e-05
-4.28121e-05
-7.11923e-05
-4.22819e-05
-7.54209e-05
-4.05218e-05
-7.5322e-05
-3.7455e-05
-7.07224e-05
-3.31423e-05
-6.17826e-05
-2.77644e-05
-4.90631e-05
-2.16014e-05
-3.35566e-05
-1.49964e-05
-1.66297e-05
-8.35876e-06
1.17078e-07
-2.13194e-06
1.50799e-05
3.21312e-06
2.68801e-05
7.28508e-06
3.45818e-05
9.81898e-06
3.77963e-05
1.07992e-05
3.67427e-05
1.03916e-05
3.21565e-05
8.98676e-06
2.51819e-05
7.01011e-06
1.71142e-05
4.97639e-06
9.23759e-06
3.22632e-06
2.55753e-06
2.08085e-06
-2.24509e-06
1.56544e-06
-4.97191e-06
1.74183e-06
-5.73455e-06
2.36079e-06
-4.98498e-06
3.35183e-06
-3.17577e-06
4.33972e-06
-8.27261e-07
5.32559e-06
1.8147e-06
5.98931e-06
4.52039e-06
6.54597e-06
7.36849e-06
6.74157e-06
1.02807e-05
6.94108e-06
1.33345e-05
6.81801e-06
1.61804e-05
6.76953e-06
1.85207e-05
6.30721e-06
1.95473e-05
5.8428e-06
1.86963e-05
4.78324e-06
1.51498e-05
3.66085e-06
8.76569e-06
1.97674e-06
-4.86132e-07
4.89901e-07
-1.17362e-05
-1.06182e-06
-2.39596e-05
-1.88766e-06
-3.5614e-05
-2.11898e-06
-4.53215e-05
-1.46873e-06
-5.20184e-05
2.58319e-08
-5.49315e-05
1.72827e-06
-5.44034e-05
4.22122e-06
-5.04037e-05
5.7053e-06
-4.46615e-05
8.22979e-06
-3.70168e-05
8.2835e-06
-3.0024e-05
1.02815e-05
-2.22876e-05
8.06986e-06
-1.69453e-05
9.58727e-06
-1.06865e-05
4.86373e-06
-7.52117e-06
6.72998e-06
-1.98511e-06
-3.8313e-08
7.04418e-07
3.28436e-06
7.27934e-06
-4.24999e-06
1.23187e-05
7.15148e-09
2.18006e-05
-9.47553e-06
2.55778e-05
-4.89994e-07
3.76373e-05
-2.12653e-05
3.00821e-05
1.48322e-06
4.96598e-05
-4.90583e-05
1.62759e-05
1.97082e-05
5.14234e-05
-7.16081e-05
5.0085e-05
-1.78213e-05
-3.50978e-05
0.000118523
0.000234764
-0.000339768
0.000149144
0.000103158
0.000110203
0.000111168
9.37922e-05
-2.29477e-05
-0.000343803
0.000680052
0.00211046
-0.0033742
-0.00116393
0.00430018
0.000736415
-0.00221089
0.0031786
-0.00366364
-0.00547453
0.0118812
0.00427841
-0.0129459
0.00267209
0.00165725
-0.00547584
0.0111762
0.000889385
-0.0084563
0.00316741
-0.00601833
0.00629996
-0.00453682
-0.00460038
0.0147448
0.0122938
-0.0230977
0.00302515
0.0101867
-0.042179
0.0634265
0.0419375
-0.111997
0.0799113
-0.0533618
-0.00164697
0.108938
0.046474
-3.89076e-05
-0.000105034
-6.89145e-05
-0.000101335
-2.96023e-05
-0.000137516
2.823e-05
-0.000169311
3.16524e-05
-0.000188509
1.8466e-05
-0.000190015
3.26565e-06
-0.000176305
-7.68947e-06
-0.000151188
-1.20144e-05
-0.000119273
-1.05759e-05
-8.47544e-05
-5.26571e-06
-5.05552e-05
1.46814e-06
-1.83605e-05
7.34915e-06
1.09135e-05
1.11565e-05
3.65969e-05
1.27586e-05
5.8057e-05
1.25082e-05
7.4746e-05
1.07691e-05
8.62909e-05
7.8102e-06
9.25608e-05
3.79328e-06
9.37448e-05
-1.29233e-06
9.03952e-05
-7.59838e-06
8.33375e-05
-1.51938e-05
7.34438e-05
-2.38184e-05
6.13992e-05
-3.2843e-05
4.75996e-05
-4.14751e-05
3.22224e-05
-4.90503e-05
1.54128e-05
-5.52317e-05
-2.52264e-06
-6.00234e-05
-2.10023e-05
-6.36196e-05
-3.91762e-05
-6.6189e-05
-5.60304e-05
-6.7711e-05
-7.05266e-05
-6.79482e-05
-8.17178e-05
-6.65516e-05
-8.8811e-05
-6.32443e-05
-9.12041e-05
-5.79571e-05
-8.85387e-05
-5.08704e-05
-8.07962e-05
-4.23469e-05
-6.84007e-05
-3.28665e-05
-5.22862e-05
-2.29567e-05
-3.38562e-05
-1.32082e-05
-1.48372e-05
-4.24228e-06
2.97419e-06
3.28316e-06
1.79647e-05
8.84423e-06
2.89449e-05
1.21224e-05
3.52735e-05
1.31948e-05
3.69458e-05
1.23996e-05
3.45275e-05
1.03916e-05
2.90702e-05
7.82383e-06
2.18579e-05
5.4466e-06
1.42453e-05
3.68629e-06
7.36345e-06
2.92898e-06
2.05148e-06
3.08858e-06
-1.34469e-06
4.18087e-06
-2.81122e-06
5.7484e-06
-2.72129e-06
7.67613e-06
-1.476e-06
9.37354e-06
4.13434e-07
1.09075e-05
2.70308e-06
1.18155e-05
5.13883e-06
1.25282e-05
7.79407e-06
1.26632e-05
1.05685e-05
1.28511e-05
1.35463e-05
1.2525e-05
1.63493e-05
1.23235e-05
1.86676e-05
1.13762e-05
1.96144e-05
1.03526e-05
1.85657e-05
8.22323e-06
1.4572e-05
5.91986e-06
7.41598e-06
2.62281e-06
-3.05645e-06
-2.6114e-07
-1.59899e-05
-3.09992e-06
-3.03958e-05
-4.36699e-06
-4.46229e-05
-4.25585e-06
-5.71979e-05
-2.171e-06
-6.68398e-05
1.63304e-06
-7.26035e-05
6.00683e-06
-7.4644e-05
1.15465e-05
-7.28046e-05
1.51264e-05
-6.87896e-05
1.98762e-05
-6.23792e-05
2.0013e-05
-5.62504e-05
2.28003e-05
-4.89217e-05
1.82568e-05
-4.3699e-05
1.94945e-05
-3.71302e-05
1.04047e-05
-3.33077e-05
1.18093e-05
-2.67004e-05
-5.0666e-07
-2.23072e-05
2.95932e-06
-1.33847e-05
-1.01006e-05
-4.51052e-06
-6.11853e-06
7.20546e-06
-1.83855e-05
1.66052e-05
-8.1417e-06
3.32295e-05
-3.90109e-05
2.95474e-05
-2.01666e-06
6.31851e-05
-9.8018e-05
1.92218e-05
4.01793e-05
9.02104e-05
-0.00017081
8.49995e-05
-3.70207e-05
-4.84907e-05
0.000237246
0.000432018
-0.000816328
0.000196495
0.000358764
0.000218606
0.000112693
6.35574e-05
0.000161315
-0.000448683
0.00120921
0.00348238
-0.00728518
-0.00222089
0.0100108
0.00185221
-0.00630845
0.00500384
-0.00680805
-0.00899403
0.025778
0.00799385
-0.0299331
0.00361702
0.00604207
-0.00928259
0.0240929
0.00181382
-0.0194885
0.00527227
-0.00624833
0.0101037
-0.0093236
-0.00714708
0.0318196
0.0206865
-0.0511789
5.77916e-05
0.0308332
-0.0670983
0.130588
0.0772809
-0.256344
0.130593
-0.106598
-0.00705208
0.246619
0.099435
-1.01586e-05
-4.92694e-05
-6.59451e-05
-6.02205e-05
-1.64168e-06
-8.50078e-05
4.46903e-05
-0.000111509
5.69207e-05
-0.000135724
4.86606e-05
-0.000152094
3.18724e-05
-0.000156271
1.4096e-05
-0.000147105
9.46082e-07
-0.000127307
-4.9434e-06
-0.000101065
-4.08536e-06
-7.21977e-05
6.73494e-07
-4.32439e-05
5.7926e-06
-1.56339e-05
9.00038e-06
9.64427e-06
9.82812e-06
3.16556e-05
8.73063e-06
4.95462e-05
6.18463e-06
6.26798e-05
2.45563e-06
7.07128e-05
-2.36918e-06
7.3673e-05
-8.463e-06
7.20365e-05
-1.62374e-05
6.66523e-05
-2.59742e-05
5.84585e-05
-3.73724e-05
4.81546e-05
-4.94576e-05
3.60488e-05
-6.09507e-05
2.21567e-05
-7.07973e-05
6.45966e-06
-7.85143e-05
-1.08311e-05
-8.42025e-05
-2.91296e-05
-8.82743e-05
-4.74961e-05
-9.10805e-05
-6.47879e-05
-9.26348e-05
-7.98474e-05
-9.25783e-05
-9.1641e-05
-9.03728e-05
-9.93116e-05
-8.56116e-05
-0.000102191
-7.8231e-05
-9.98385e-05
-6.85463e-05
-9.21472e-05
-5.7111e-05
-7.94733e-05
-4.45913e-05
-6.27284e-05
-3.16626e-05
-4.33454e-05
-1.90549e-05
-2.31211e-05
-7.53608e-06
-3.94108e-06
2.06179e-06
1.24872e-05
9.08332e-06
2.48842e-05
1.31518e-05
3.25237e-05
1.44325e-05
3.53314e-05
1.34221e-05
3.38244e-05
1.10192e-05
2.90379e-05
8.0726e-06
2.22665e-05
5.54174e-06
1.49046e-05
3.91265e-06
8.13248e-06
3.63318e-06
2.84314e-06
4.51066e-06
-5.85748e-07
6.5478e-06
-2.12055e-06
9.10085e-06
-2.14081e-06
1.20422e-05
-1.05136e-06
1.45626e-05
6.17301e-07
1.68024e-05
2.62086e-06
1.81236e-05
4.69218e-06
1.91669e-05
6.92085e-06
1.93741e-05
9.20227e-06
1.96478e-05
1.1644e-05
1.91476e-05
1.38466e-05
1.88031e-05
1.54985e-05
1.73598e-05
1.56453e-05
1.58371e-05
1.363e-05
1.27649e-05
8.40729e-06
9.56029e-06
-2.6099e-07
5.01509e-06
-1.25961e-05
1.20774e-06
-2.76988e-05
-2.49563e-06
-4.45741e-05
-3.86511e-06
-6.14432e-05
-3.3377e-06
-7.67452e-05
5.26717e-09
-8.90308e-05
5.64309e-06
-9.7244e-05
1.20571e-05
-0.000101449
1.99859e-05
-0.000101431
2.51041e-05
-9.89588e-05
3.17899e-05
-9.37691e-05
3.18733e-05
-8.87058e-05
3.56227e-05
-8.216e-05
2.88766e-05
-7.7598e-05
3.01396e-05
-7.13813e-05
1.67835e-05
-6.75871e-05
1.77374e-05
-6.07178e-05
-1.63652e-07
-5.51414e-05
2.61872e-06
-4.50762e-05
-1.60009e-05
-3.36723e-05
-1.39957e-05
-2.08902e-05
-2.80739e-05
-3.64598e-06
-2.37958e-05
1.63605e-05
-6.03457e-05
1.73118e-05
-9.60647e-06
6.50936e-05
-0.000158599
1.00795e-05
7.62929e-05
0.00012041
-0.000302915
0.000106711
-4.28451e-05
-6.83067e-05
0.000398414
0.000632563
-0.00151874
0.000215601
0.000785991
0.000309466
3.92428e-05
3.30298e-05
0.000458612
-0.000508349
0.00175644
0.00482906
-0.0126131
-0.00342966
0.0182712
0.00318275
-0.0129386
0.00666221
-0.0102809
-0.012468
0.044872
0.0122809
-0.0546896
0.00397833
0.0143443
-0.0131437
0.0412377
0.00321805
-0.0357787
0.00725838
-0.0105701
0.0137884
-0.0159927
-0.00945008
0.0548543
0.0289605
-0.0898094
-0.00498463
0.0647711
-0.089636
0.215319
0.117876
-0.463823
0.178122
-0.166866
-0.0151045
0.439787
0.16561
1.07857e-05
-1.66305e-05
-6.18789e-05
-2.60936e-05
1.37706e-05
-3.74271e-05
4.86879e-05
-4.82745e-05
6.70416e-05
-6.2347e-05
6.87591e-05
-7.70409e-05
5.87311e-05
-8.79554e-05
4.24435e-05
-9.06148e-05
2.54239e-05
-8.34873e-05
1.30902e-05
-6.84687e-05
8.1364e-06
-4.86994e-05
8.90784e-06
-2.69474e-05
1.15042e-05
-4.99961e-06
1.27253e-05
1.59167e-05
1.16333e-05
3.46379e-05
8.75828e-06
5.00507e-05
4.71007e-06
6.12986e-05
-2.9415e-07
6.78637e-05
-6.29115e-06
6.95992e-05
-1.36177e-05
6.68408e-05
-2.29784e-05
6.04215e-05
-3.49898e-05
5.13887e-05
-4.94316e-05
4.05598e-05
-6.49896e-05
2.8254e-05
-7.97864e-05
1.437e-05
-9.22442e-05
-1.28913e-06
-0.000101666
-1.86621e-05
-0.000108272
-3.72229e-05
-0.000112777
-5.59921e-05
-0.000115807
-7.37248e-05
-0.000117468
-8.91573e-05
-0.000117277
-0.000101187
-0.000114464
-0.000108926
-0.000108448
-0.000111689
-9.91524e-05
-0.000109009
-8.70341e-05
-0.000100742
-7.28471e-05
-8.72242e-05
-5.74349e-05
-6.93856e-05
-4.15926e-05
-4.8723e-05
-2.6159e-05
-2.71309e-05
-1.20329e-05
-6.60103e-06
-2.30569e-07
1.1062e-05
8.43702e-06
2.45002e-05
1.35062e-05
3.29285e-05
1.52103e-05
3.62402e-05
1.41847e-05
3.49493e-05
1.15582e-05
3.01244e-05
8.35964e-06
2.31171e-05
5.7569e-06
1.54001e-05
4.29476e-06
8.22704e-06
4.50207e-06
2.55557e-06
6.09425e-06
-1.20866e-06
9.09435e-06
-3.02427e-06
1.26814e-05
-3.30018e-06
1.67361e-05
-2.46828e-06
2.02112e-05
-1.10635e-06
2.33256e-05
5.21068e-07
2.52289e-05
2.11315e-06
2.67809e-05
3.76704e-06
2.72058e-05
5.36207e-06
2.77023e-05
7.02824e-06
2.71166e-05
8.33572e-06
2.67168e-05
8.97278e-06
2.48252e-05
7.90815e-06
2.28785e-05
4.45601e-06
1.89128e-05
-2.52953e-06
1.49067e-05
-1.32954e-05
9.18925e-06
-2.81236e-05
4.5931e-06
-4.6048e-05
1.29208e-07
-6.60461e-05
-1.18935e-06
-8.6185e-05
-1.37649e-07
-0.000104789
4.58636e-06
-0.000120234
1.21357e-05
-0.000131334
2.06509e-05
-0.000138097
3.10472e-05
-0.000140229
3.77261e-05
-0.000139638
4.64703e-05
-0.000135968
4.64393e-05
-0.000132339
5.12415e-05
-0.000126905
4.20127e-05
-0.00012345
4.32199e-05
-0.000117954
2.50517e-05
-0.0001147
2.51701e-05
-0.000107933
1.04596e-06
-0.000101684
2.20362e-06
-9.07464e-05
-2.2293e-05
-7.66389e-05
-2.42026e-05
-6.02303e-05
-4.11515e-05
-3.76376e-05
-4.48879e-05
-1.51496e-05
-8.47005e-05
-9.29585e-06
-2.32319e-05
5.26767e-05
-0.000235108
-1.32918e-05
0.000121403
0.000139762
-0.000479824
0.000112943
-3.68135e-05
-9.50323e-05
0.000593481
0.000831457
-0.00244692
0.000203962
0.00142481
0.00037886
-0.000116996
3.91547e-06
0.000855837
-0.000535314
0.00230414
0.00612553
-0.0192643
-0.00476691
0.0291664
0.0046618
-0.0223865
0.00808193
-0.0136933
-0.0158047
0.0687114
0.0170812
-0.087584
0.00375727
0.0276672
-0.016921
0.0619377
0.00503715
-0.0576541
0.00902454
-0.0145823
0.0173916
-0.0245263
-0.0115317
0.0835659
0.0371361
-0.138725
-0.0113539
0.113249
-0.109188
0.313173
0.163312
-0.736303
0.221
-0.224508
-0.0247098
0.685467
0.237174
2.37105e-05
-1.62e-07
-5.77198e-05
-5.38391e-06
2.18948e-05
-9.93607e-06
4.71748e-05
-9.29472e-06
6.63354e-05
-9.97e-06
7.55931e-05
-1.36493e-05
7.44425e-05
-1.8719e-05
6.46998e-05
-2.21344e-05
5.03553e-05
-2.03906e-05
3.62576e-05
-1.24567e-05
2.734e-05
2.35455e-07
2.42839e-05
1.5586e-05
2.38569e-05
3.19113e-05
2.24878e-05
4.80212e-05
1.88235e-05
6.27436e-05
1.34993e-05
7.48337e-05
7.36889e-06
8.3275e-05
6.24618e-07
8.74208e-05
-6.92621e-06
8.69393e-05
-1.57264e-05
8.19152e-05
-2.67038e-05
7.30397e-05
-4.09118e-05
6.1463e-05
-5.84483e-05
4.82621e-05
-7.78086e-05
3.39625e-05
-9.64576e-05
1.84892e-05
-0.000112106
1.51257e-06
-0.000123676
-1.70929e-05
-0.000131442
-3.69342e-05
-0.000136468
-5.70499e-05
-0.000139765
-7.61057e-05
-0.000141631
-9.27054e-05
-0.000141499
-0.000105643
-0.000138334
-0.000113989
-0.000131316
-0.000117056
-0.000120316
-0.000114379
-0.000105935
-0.0001058
-8.9149e-05
-9.16468e-05
-7.09911e-05
-7.28692e-05
-5.23603e-05
-5.10346e-05
-3.41752e-05
-2.81488e-05
-1.74431e-05
-6.32816e-06
-3.36567e-06
1.25062e-05
7.0739e-06
2.6903e-05
1.3303e-05
3.60049e-05
1.56114e-05
3.96642e-05
1.47614e-05
3.83858e-05
1.21037e-05
3.32715e-05
8.82918e-06
2.57338e-05
6.30709e-06
1.73317e-05
5.1279e-06
9.40096e-06
5.90875e-06
2.97666e-06
8.27127e-06
-1.49729e-06
1.22847e-05
-3.96041e-06
1.69534e-05
-4.84602e-06
2.21944e-05
-4.60787e-06
2.67084e-05
-3.87422e-06
3.08163e-05
-2.92988e-06
3.34251e-05
-2.11775e-06
3.56382e-05
-1.33486e-06
3.64171e-05
-7.29073e-07
3.72879e-05
-1.49644e-07
3.6728e-05
-7.00453e-08
3.63947e-05
-8.03532e-07
3.41282e-05
-3.47301e-06
3.18585e-05
-8.79323e-06
2.70614e-05
-1.80248e-05
2.2375e-05
-3.14196e-05
1.55861e-05
-4.9328e-05
1.03902e-05
-7.07062e-05
5.34788e-06
-9.44984e-05
4.34282e-06
-0.000118601
6.14807e-06
-0.000141208
1.24829e-05
-0.000160514
2.20967e-05
-0.000175179
3.27695e-05
-0.000185181
4.56617e-05
-0.000190111
5.37736e-05
-0.000192078
6.45719e-05
-0.000190559
6.41633e-05
-0.000189058
7.00397e-05
-0.000185356
5.78969e-05
-0.000183723
5.90309e-05
-0.000179554
3.54147e-05
-0.000177561
3.44801e-05
-0.000171459
3.41538e-06
-0.000165187
2.17618e-06
-0.000153863
-2.85975e-05
-0.000137392
-3.64381e-05
-0.000119073
-5.58904e-05
-9.06244e-05
-7.17926e-05
-6.55633e-05
-0.000111956
-5.38746e-05
-4.34867e-05
2.1831e-05
-0.00032651
-5.45883e-05
0.000175708
0.000143738
-0.000702745
9.9394e-05
-1.35183e-05
-0.000130917
0.000810961
0.00101916
-0.00359773
0.000157501
0.00229818
0.000429093
-0.000371329
-2.26235e-05
0.00132998
-0.000540505
0.0028343
0.00735028
-0.0271447
-0.0061997
0.0427181
0.0062416
-0.034848
0.00923942
-0.0166836
-0.0189217
0.0968596
0.0222906
-0.128805
0.00300046
0.0469568
-0.0204679
0.0854306
0.00713851
-0.0851688
0.0104992
-0.0180386
0.020939
-0.035163
-0.0134072
0.117685
0.0452879
-0.197692
-0.0181173
0.17663
-0.125356
0.420463
0.22208
-1.08368
0.257622
-0.260079
-0.0345871
0.977631
0.303929
3.07873e-05
8.13089e-06
-5.53264e-05
5.60787e-06
2.69091e-05
2.47081e-06
4.5323e-05
7.0938e-06
6.20919e-05
1.45682e-05
7.43035e-05
2.14257e-05
7.94205e-05
2.61117e-05
7.68523e-05
2.94649e-05
6.81427e-05
3.34276e-05
5.68394e-05
4.06455e-05
4.70353e-05
5.12427e-05
4.17216e-05
6.40077e-05
3.89704e-05
7.75591e-05
3.541e-05
9.09023e-05
2.93677e-05
0.000103087
2.15417e-05
0.000112949
1.31527e-05
0.000119429
4.48388e-06
0.000121842
-4.82203e-06
0.000119739
-1.52353e-05
0.000112882
-2.7697e-05
0.000101609
-4.36597e-05
8.70177e-05
-6.38323e-05
7.05104e-05
-8.68851e-05
5.30595e-05
-0.000109739
3.48721e-05
-0.00012922
1.56325e-05
-0.000143587
-4.96268e-06
-0.000152969
-2.67396e-05
-0.000158725
-4.88592e-05
-0.000162339
-6.99505e-05
-0.000164453
-8.84637e-05
-0.000164528
-0.000103032
-0.000161268
-0.00011264
-0.000153541
-0.000116597
-0.000141086
-0.000114462
-0.000124628
-0.00010609
-0.000105395
-9.17949e-05
-8.46458e-05
-7.25347e-05
-6.33863e-05
-4.99313e-05
-4.25868e-05
-2.60984e-05
-2.33271e-05
-3.284e-06
-6.98222e-06
1.64652e-05
5.28329e-06
3.15982e-05
1.27679e-05
4.11804e-05
1.58106e-05
4.50157e-05
1.52932e-05
4.35898e-05
1.27843e-05
3.80285e-05
9.61634e-06
2.97952e-05
7.35016e-06
2.05284e-05
6.60136e-06
1.16396e-05
8.07785e-06
4.24027e-06
1.12964e-05
-1.18827e-06
1.63965e-05
-4.56201e-06
2.22056e-05
-6.339e-06
2.87117e-05
-6.98979e-06
3.43479e-05
-7.19426e-06
3.95695e-05
-7.25204e-06
4.30075e-05
-7.55184e-06
4.60441e-05
-7.98035e-06
4.73249e-05
-8.72062e-06
4.87459e-05
-9.59841e-06
4.83467e-05
-1.11437e-05
4.8237e-05
-1.36698e-05
4.56996e-05
-1.84077e-05
4.32498e-05
-2.60988e-05
3.77173e-05
-3.81346e-05
3.25168e-05
-5.47651e-05
2.47929e-05
-7.64186e-05
1.92324e-05
-0.000101959
1.38303e-05
-0.000130293
1.34432e-05
-0.000159132
1.6266e-05
-0.000186524
2.44706e-05
-0.000210483
3.63348e-05
-0.0002295
4.92318e-05
-0.000243554
6.46865e-05
-0.00025208
7.40914e-05
-0.000257465
8.69963e-05
-0.000258925
8.59082e-05
-0.000260477
9.29727e-05
-0.000259364
7.74071e-05
-0.000260551
7.85905e-05
-0.000258568
4.8753e-05
-0.000258878
4.6732e-05
-0.000254258
7.78817e-06
-0.000248984
3.58909e-06
-0.000237977
-3.41603e-05
-0.000220004
-4.97618e-05
-0.000200513
-7.14351e-05
-0.000168814
-0.000101789
-0.000139921
-0.00014326
-0.000120697
-7.21059e-05
-3.30828e-05
-0.000431129
-0.000118989
0.000237826
0.000126175
-0.000974006
6.03525e-05
3.04246e-05
-0.000180228
0.00103888
0.00118444
-0.00496217
7.31968e-05
0.00342256
0.000458793
-0.000738903
-5.23082e-05
0.00186464
-0.000541274
0.00333592
0.00848493
-0.0361618
-0.00768817
0.0588926
0.00787441
-0.0504325
0.0100927
-0.0188942
-0.0217727
0.128689
0.0277735
-0.17836
0.00180872
0.0729208
-0.0236355
0.1109
0.00936905
-0.118073
0.0116562
-0.0204357
0.0244593
-0.0481775
-0.0150868
0.15699
0.0535427
-0.266619
-0.0244892
0.254634
-0.138012
0.534022
0.242642
-1.46432
0.286377
-0.30376
-0.0437318
1.3077
0.353349
3.42917e-05
1.25208e-05
-5.35238e-05
1.16699e-05
3.00624e-05
8.31247e-06
4.44616e-05
1.249e-05
5.85871e-05
2.20314e-05
7.09121e-05
3.41913e-05
7.88367e-05
4.62775e-05
8.11831e-05
5.70181e-05
7.80263e-05
6.68593e-05
7.10696e-05
7.73105e-05
6.31029e-05
8.98383e-05
5.70329e-05
0.000103781
5.29418e-05
0.00011797
4.79739e-05
0.000131478
4.02699e-05
0.00014358
3.04174e-05
0.000153328
1.99937e-05
0.000159704
9.52989e-06
0.000162039
-1.47667e-06
0.000159888
-1.35155e-05
0.000152744
-2.7268e-05
0.000140395
-4.42983e-05
0.000123553
-6.60794e-05
0.000103777
-9.19893e-05
8.26351e-05
-0.00011883
6.09481e-05
-0.000142551
3.8721e-05
-0.000160445
1.56202e-05
-0.000172128
-8.42797e-06
-0.000179026
-3.28401e-05
-0.000183073
-5.63332e-05
-0.000185417
-7.72372e-05
-0.000185747
-9.39686e-05
-0.000182602
-0.000105354
-0.000174478
-0.000110667
-0.000160867
-0.00010951
-0.000142547
-0.000101782
-0.000121015
-8.77984e-05
-9.78135e-05
-6.85072e-05
-7.40916e-05
-4.55603e-05
-5.08514e-05
-2.11661e-05
-2.9198e-05
2.2949e-06
-1.06528e-05
2.26452e-05
3.43517e-06
3.82335e-05
1.22131e-05
4.80499e-05
1.60624e-05
5.18498e-05
1.59813e-05
5.00925e-05
1.376e-05
4.39193e-05
1.08553e-05
3.48339e-05
9.01155e-06
2.45461e-05
8.84543e-06
1.45341e-05
1.11571e-05
5.98241e-06
1.53402e-05
-5.95145e-07
2.16275e-05
-5.09079e-06
2.86606e-05
-7.99134e-06
3.65364e-05
-9.78228e-06
4.33982e-05
-1.11996e-05
4.98757e-05
-1.2553e-05
5.42816e-05
-1.42828e-05
5.83251e-05
-1.62602e-05
6.02725e-05
-1.87132e-05
6.24482e-05
-2.14396e-05
6.23715e-05
-2.50407e-05
6.26858e-05
-2.98256e-05
6.00202e-05
-3.71532e-05
5.75887e-05
-4.77857e-05
5.14616e-05
-6.32655e-05
4.59709e-05
-8.38289e-05
3.74881e-05
-0.000109994
3.18458e-05
-0.000140513
2.63297e-05
-0.000174254
2.68971e-05
-0.000208722
3.10252e-05
-0.000241809
4.13883e-05
-0.000271353
5.57357e-05
-0.000295652
7.09652e-05
-0.00031473
8.91354e-05
-0.00032782
9.97302e-05
-0.000337673
0.000114908
-0.000343139
0.000112828
-0.000348905
0.000121326
-0.000351468
0.000101741
-0.00035675
0.000103262
-0.000358078
6.62494e-05
-0.000362068
6.33329e-05
-0.000360038
1.52775e-05
-0.000357171
7.83584e-06
-0.000347486
-3.8005e-05
-0.000329337
-6.28817e-05
-0.000309562
-8.69245e-05
-0.00027459
-0.000134903
-0.000241948
-0.000178524
-0.000203967
-0.000120213
-0.000119376
-0.00053416
-0.000212898
0.000305733
7.92161e-05
-0.00129391
-1.13561e-05
9.79973e-05
-0.00024929
0.00126413
0.00131307
-0.00652343
-5.19323e-05
0.00480209
0.000466206
-0.00123836
-9.52586e-05
0.00245106
-0.00055362
0.00380614
0.00951642
-0.046223
-0.00919137
0.0776014
0.00951777
-0.0691653
0.0106434
-0.0200118
-0.0243316
0.163637
0.0333696
-0.236071
0.000336794
0.105952
-0.0262908
0.137555
0.0115664
-0.155822
0.0125212
-0.0215061
0.0279679
-0.063854
-0.0165821
0.201283
0.062051
-0.345579
-0.0296833
0.346335
-0.147279
0.651661
0.289699
-1.90125
0.30587
-0.31994
-0.0520164
1.66554
0.371734
3.60565e-05
1.50129e-05
-5.20238e-05
1.54273e-05
3.18827e-05
1.20076e-05
4.43087e-05
1.47185e-05
5.67789e-05
2.32828e-05
6.84084e-05
3.63985e-05
7.69604e-05
5.17857e-05
8.16997e-05
6.74457e-05
8.23864e-05
8.26005e-05
7.93758e-05
9.73454e-05
7.43608e-05
0.000113211
6.86725e-05
0.000130105
6.38664e-05
0.000146943
5.80646e-05
0.000162673
4.94083e-05
0.00017665
3.81515e-05
0.000188175
2.60413e-05
0.000196323
1.39888e-05
0.00020041
1.44488e-06
0.000200051
-1.2184e-05
0.00019465
-2.71714e-05
0.000183431
-4.47165e-05
0.000166333
-6.68375e-05
0.000144588
-9.40546e-05
0.000120171
-0.000123771
9.4726e-05
-0.000151462
6.89798e-05
-0.000173343
4.29208e-05
-0.000188101
1.63774e-05
-0.000196795
-1.03913e-05
-0.000201572
-3.63689e-05
-0.000204131
-5.98946e-05
-0.00020464
-7.91662e-05
-0.000201695
-9.27589e-05
-0.000193457
-9.98311e-05
-0.000179038
-0.000100017
-0.000159133
-9.32915e-05
-0.000135474
-8.00049e-05
-0.000109955
-6.10916e-05
-8.39353e-05
-3.82067e-05
-5.84533e-05
-1.36313e-05
-3.45876e-05
1.01279e-05
-1.3963e-05
3.07599e-05
1.89344e-06
4.65142e-05
1.19523e-05
5.63103e-05
1.66269e-05
5.98583e-05
1.70322e-05
5.75859e-05
1.51937e-05
5.06393e-05
1.268e-05
4.05491e-05
1.14141e-05
2.90887e-05
1.19844e-05
1.77945e-05
1.52841e-05
7.92074e-06
2.0559e-05
8.31332e-09
2.81596e-05
-5.81113e-06
3.65245e-05
-1.00588e-05
4.59025e-05
-1.32329e-05
5.41164e-05
-1.61319e-05
6.20184e-05
-1.90715e-05
6.75518e-05
-2.2552e-05
7.28131e-05
-2.6424e-05
7.56148e-05
-3.09734e-05
7.87869e-05
-3.59644e-05
7.92273e-05
-4.20876e-05
8.0218e-05
-4.96424e-05
7.76127e-05
-6.0138e-05
7.54652e-05
-7.43495e-05
6.89396e-05
-9.39942e-05
6.34578e-05
-0.00011928
5.44467e-05
-0.00015083
4.90732e-05
-0.000187258
4.37303e-05
-0.000227399
4.56383e-05
-0.000268525
5.13912e-05
-0.000308365
6.42409e-05
-0.000344581
8.13543e-05
-0.000375263
9.90696e-05
-0.000400521
0.000120199
-0.000419339
0.00013192
-0.00043493
0.000149668
-0.000445654
0.00014628
-0.000457056
0.000156623
-0.000464644
0.000132339
-0.000475618
0.000134712
-0.000481683
8.93802e-05
-0.000491117
8.60744e-05
-0.000493125
2.73369e-05
-0.00049454
1.67842e-05
-0.00048754
-3.87872e-05
-0.000471103
-7.39302e-05
-0.000452242
-0.000101177
-0.000415478
-0.000169667
-0.000381154
-0.000215694
-0.000352962
-0.000159411
-0.000253937
-0.000653078
-0.000343838
0.000368166
-6.59549e-06
-0.00166085
-0.00012449
0.000191513
-0.00034666
0.00147336
0.00138922
-0.00825751
-0.000220738
0.00642812
0.000445285
-0.00188439
-0.000168145
0.00309119
-0.000593768
0.00424348
0.0104374
-0.0572454
-0.0106743
0.0987139
0.0111317
-0.0909968
0.0109166
-0.0197885
-0.0266006
0.201122
0.0389065
-0.301589
-0.00122386
0.146081
-0.0283353
0.164696
0.0135926
-0.197634
0.0131722
-0.0212024
0.0314605
-0.0823925
-0.0179119
0.250383
0.0709689
-0.434822
-0.0331101
0.450376
-0.153673
0.772266
0.332528
-2.3874
0.314974
-0.30238
-0.0609894
2.04149
0.346281
3.76768e-05
1.70713e-05
-5.18478e-05
1.82682e-05
3.31929e-05
1.50153e-05
4.45568e-05
1.66578e-05
5.61895e-05
2.37534e-05
6.72065e-05
3.59827e-05
7.55569e-05
5.19254e-05
8.10741e-05
6.97868e-05
8.38657e-05
8.81706e-05
8.37704e-05
0.000106722
8.12326e-05
0.000125565
7.68937e-05
0.000145429
7.16332e-05
0.000165223
6.53046e-05
0.000183742
5.61754e-05
0.000200284
4.40548e-05
0.000214367
3.05661e-05
0.000225243
1.70171e-05
0.000232186
3.01271e-06
0.000234829
-1.22143e-05
0.000232689
-2.86287e-05
0.000224704
-4.66696e-05
0.000209928
-6.82917e-05
0.000188678
-9.51178e-05
0.000162715
-0.000125839
0.000134285
-0.000156258
0.000105066
-0.000181847
7.58119e-05
-0.000200168
4.66354e-05
-0.000211418
1.76079e-05
-0.000217471
-1.06458e-05
-0.000220359
-3.6697e-05
-0.000220885
-5.86435e-05
-0.000218028
-7.47605e-05
-0.000209813
-8.39643e-05
-0.000194918
-8.5839e-05
-0.000173773
-8.04437e-05
-0.000148225
-6.8203e-05
-0.000120546
-5.00577e-05
-9.23909e-05
-2.7649e-05
-6.48784e-05
-3.30238e-06
-3.90173e-05
2.03672e-05
-1.64824e-05
4.09207e-05
1.03998e-06
5.65136e-05
1.2319e-05
6.60027e-05
1.77862e-05
6.90601e-05
1.86722e-05
6.60773e-05
1.72633e-05
5.8191e-05
1.52366e-05
4.69409e-05
1.46921e-05
3.41532e-05
1.61528e-05
2.14146e-05
2.06034e-05
1.00465e-05
2.71112e-05
6.09741e-07
3.61723e-05
-6.73983e-06
4.59988e-05
-1.25636e-05
5.70386e-05
-1.73693e-05
6.67545e-05
-2.20248e-05
7.62791e-05
-2.68473e-05
8.31231e-05
-3.24087e-05
8.98485e-05
-3.85338e-05
9.37218e-05
-4.5583e-05
9.81781e-05
-5.32806e-05
9.93703e-05
-6.24286e-05
0.000101352
-7.33072e-05
9.90473e-05
-8.76049e-05
9.7528e-05
-0.000106097
9.08634e-05
-0.000130708
8.57808e-05
-0.000161593
7.65386e-05
-0.000199509
7.18728e-05
-0.000242894
6.7044e-05
-0.000290563
7.07469e-05
-0.000339518
7.8484e-05
-0.000387335
9.42006e-05
-0.000431485
0.000114416
-0.000469846
0.000134823
-0.000502651
0.000159254
-0.000528584
0.000172087
-0.000551431
0.000192854
-0.000568929
0.000187855
-0.00058769
0.000200672
-0.00060196
0.000170942
-0.000620592
0.000174984
-0.000633182
0.000119995
-0.000650286
0.00011723
-0.000658188
4.58582e-05
-0.000666325
3.28935e-05
-0.000663816
-3.46878e-05
-0.000651663
-8.03319e-05
-0.000635351
-0.000112555
-0.000599208
-0.000203673
-0.000564806
-0.000253173
-0.000536361
-0.000199662
-0.000417636
-0.000793174
-0.000519837
0.000440828
-0.000142168
-0.00207035
-0.000289733
0.000313132
-0.000483307
0.00165357
0.00139571
-0.0101341
-0.000437377
0.00827882
0.000385589
-0.00268576
-0.000293818
0.00379921
-0.000673677
0.00463472
0.0112448
-0.0691548
-0.0121146
0.122074
0.0126799
-0.115819
0.0109679
-0.0180679
-0.0286046
0.240661
0.0442159
-0.37442
-0.0026715
0.192967
-0.0297258
0.19178
0.0153539
-0.24259
0.0137329
-0.0197028
0.0349014
-0.103835
-0.019107
0.3041
0.080431
-0.534761
-0.0344176
0.565183
-0.157818
0.895711
0.370526
-2.91569
0.313107
-0.244964
-0.0741026
2.42862
0.268694
3.91347e-05
1.8708e-05
-5.16286e-05
2.09052e-05
3.40399e-05
1.8045e-05
4.48789e-05
1.91989e-05
5.6157e-05
2.52491e-05
6.68215e-05
3.63121e-05
7.4853e-05