/*--------------------------------*- C++ -*----------------------------------*\
| =========                 |                                                 |
| \\      /  F ield         | OpenFOAM: The Open Source CFD Toolbox           |
|  \\    /   O peration     | Version:  2412                                  |
|   \\  /    A nd           | Website:  www.openfoam.com                      |
|    \\/     M anipulation  |                                                 |
\*---------------------------------------------------------------------------*/
FoamFile
{
    version     2.0;
    format      ascii;
    arch        "LSB;label=32;scalar=64";
    class       surfaceScalarField;
    location    "1.025";
    object      phi;
}
// * * * * * * * * * * * * * * * * * * * * * * * * * * * * * * * * * * * * * //

dimensions      [0 3 -1 0 0 0 0];

oriented        oriented;

internalField   nonuniform List<scalar> 
24930
(
0.015416
0.02076
-0.0361334
0.00630702
0.00910898
0.00289124
0.00341581
0.00161495
0.00127633
0.00103519
0.000579791
0.000696197
0.000339011
0.000468083
0.000228103
0.000304565
0.000163484
0.000183388
0.000121152
9.19292e-05
9.14774e-05
2.11722e-05
7.08153e-05
-3.35607e-05
5.47821e-05
-7.64534e-05
4.28808e-05
-0.000110029
3.34945e-05
-0.000135105
2.49913e-05
-0.000154903
1.9767e-05
-0.000169369
1.45299e-05
-0.000179875
1.06056e-05
-0.00018711
7.27442e-06
-0.000191563
4.37295e-06
-0.000193836
2.10881e-06
-0.000194357
3.51714e-07
-0.000193139
-1.17474e-06
-0.000190437
-2.58298e-06
-0.000186515
-3.65775e-06
-0.000181975
-4.65122e-06
-0.000177229
-4.9391e-06
-0.000171607
-5.62509e-06
-0.000165456
-6.16447e-06
-0.000159146
-6.29404e-06
-0.00015278
-6.37724e-06
-0.000146311
-6.48468e-06
-0.00013985
-6.49201e-06
-0.000133421
-6.43252e-06
-0.000127075
-6.32986e-06
-0.000120903
-6.17314e-06
-0.000114888
-6.02558e-06
-0.000109029
-5.87424e-06
-0.000103349
-5.68569e-06
-9.78256e-05
-5.51895e-06
-9.24559e-05
-5.36456e-06
-8.72294e-05
-5.22637e-06
-8.21117e-05
-5.12151e-06
-7.70968e-05
-5.01902e-06
-7.21814e-05
-4.91734e-06
-6.73912e-05
-4.79161e-06
-6.27807e-05
-4.61323e-06
-5.84215e-05
-4.36363e-06
-5.43881e-05
-4.0388e-06
-5.07568e-05
-3.63693e-06
-4.75695e-05
-3.19353e-06
-4.48184e-05
-2.7588e-06
-4.24267e-05
-2.40079e-06
-4.02059e-05
-2.23049e-06
-3.78614e-05
-2.35377e-06
-3.49567e-05
-2.9132e-06
-3.09368e-05
-4.02774e-06
-2.51481e-05
-5.79606e-06
-1.7019e-05
-8.13624e-06
-6.25442e-06
-1.07707e-05
6.99105e-06
-1.32498e-05
2.20907e-05
-1.5102e-05
3.79141e-05
-1.58246e-05
5.33644e-05
-1.54493e-05
6.76617e-05
-1.42949e-05
8.07401e-05
-1.30755e-05
9.29592e-05
-1.22136e-05
0.000105386
-1.24221e-05
0.000118902
-1.35114e-05
0.000134813
-1.59056e-05
0.000153065
-1.82497e-05
0.000171569
-1.84997e-05
0.000183848
-1.22774e-05
0.000180689
3.16217e-06
0.000157078
2.36113e-05
0.000115844
4.12418e-05
7.26097e-05
4.32332e-05
4.87166e-05
2.38954e-05
5.61246e-05
-7.40517e-06
7.70751e-05
-2.09555e-05
8.90305e-05
-1.19496e-05
0.000103177
-1.41499e-05
0.000133933
-3.07606e-05
0.000162823
-2.88886e-05
0.000149899
1.29151e-05
0.000120775
2.91251e-05
0.000101598
1.91672e-05
0.00013733
-3.57349e-05
0.000260518
-0.000123189
0.000542083
-0.00028158
0.00105445
-0.000512345
0.00170977
-0.000655342
0.00261094
-0.000901167
0.00273438
-0.000123428
0.00281164
-7.72629e-05
0.00236203
0.000449631
0.00141853
0.000943471
0.00101202
0.000406519
-0.000122397
0.00113442
-7.37993e-05
-4.86175e-05
-0.00013334
5.95565e-05
-0.000138377
5.02459e-06
0.00043707
-0.000575439
0.0004623
-2.52169e-05
0.000710739
-0.000248444
0.000864222
-0.00015346
0.000939815
-7.55926e-05
-1.37445e-05
0.000953574
-0.00229475
0.00228101
-0.00533064
0.00303589
-0.0079302
0.00259958
-0.00947191
0.00154171
-0.00937075
-0.000101148
-0.00801144
-0.00135929
-0.00614642
-0.00186502
-0.00449795
-0.00164844
-0.00308943
-0.00140851
-0.00207565
-0.00101376
0.000786193
-0.00286182
-0.00159025
0.0327137
0.0297079
-0.0416616
0.0218398
0.0199829
0.0137425
0.0115132
0.00879186
0.00622702
0.00589517
0.0034765
0.00411933
0.00211484
0.00294127
0.00140613
0.00210802
0.000996722
0.00149305
0.000736141
0.00102565
0.000558906
0.00066433
0.000432162
0.00038117
0.000337933
0.000158034
0.000265977
-1.57583e-05
0.000207224
-0.000164072
0.000173275
-0.000279317
0.000135004
-0.000369471
0.000104685
-0.000439541
8.06549e-05
-0.000493164
6.08433e-05
-0.00053294
4.40645e-05
-0.000561438
3.06177e-05
-0.00058022
1.90689e-05
-0.000591195
9.91197e-06
-0.000595397
1.46559e-06
-0.000594108
-4.86791e-06
-0.000588274
-1.04709e-05
-0.000579072
-1.43556e-05
-0.000566695
-1.79792e-05
-0.000551754
-2.1106e-05
-0.000535116
-2.2951e-05
-0.000517249
-2.43098e-05
-0.000498335
-2.54202e-05
-0.000478865
-2.59705e-05
-0.000459101
-2.61936e-05
-0.000439211
-2.62121e-05
-0.000419452
-2.59499e-05
-0.000399892
-2.56049e-05
-0.000380608
-2.51696e-05
-0.000361731
-2.45651e-05
-0.000343234
-2.40111e-05
-0.000325102
-2.34949e-05
-0.000307317
-2.30144e-05
-0.00028981
-2.26333e-05
-0.000272582
-2.22539e-05
-0.000255648
-2.18577e-05
-0.000239099
-2.1348e-05
-0.000223132
-2.05906e-05
-0.000208005
-1.95011e-05
-0.000193993
-1.80641e-05
-0.000181361
-1.62832e-05
-0.000170263
-1.43087e-05
-0.000160677
-1.23642e-05
-0.000152341
-1.07568e-05
-0.000144621
-9.97024e-06
-0.000136496
-1.04974e-05
-0.000126467
-1.29591e-05
-0.000112599
-1.79116e-05
-9.26772e-05
-2.57326e-05
-6.47706e-05
-3.60543e-05
-2.78329e-05
-4.77163e-05
1.7729e-05
-5.88164e-05
6.97675e-05
-6.71408e-05
0.000124531
-7.05862e-05
0.000178286
-6.91998e-05
0.000228528
-6.45278e-05
0.000275111
-5.96503e-05
0.000319755
-5.68454e-05
0.000366231
-5.88881e-05
0.000418243
-6.55149e-05
0.000480078
-7.77299e-05
0.000551598
-8.9766e-05
0.000624813
-9.17057e-05
0.000677002
-6.44645e-05
0.00067534
4.83606e-06
0.000600173
9.87772e-05
0.00046056
0.000180866
0.000308313
0.00019548
0.000218348
0.000113858
0.00022751
-1.65593e-05
0.000280028
-7.34852e-05
0.000310209
-4.21264e-05
0.000347953
-5.18972e-05
0.000449567
-0.000132387
0.00054349
-0.000122809
0.000512587
4.37979e-05
0.000409426
0.000132285
0.00035982
6.87579e-05
0.000465773
-0.000141704
0.000902689
-0.000560091
0.00179016
-0.00116909
0.00347607
-0.00219823
0.00562234
-0.00280162
0.00843956
-0.00371838
0.00920557
-0.000889415
0.00953661
-0.000408333
0.00822124
0.00176504
0.00530961
0.00385507
0.00366162
0.00205451
-0.000106384
0.00490244
-0.000217844
6.28066e-05
-0.000468845
0.000310589
-0.000398687
-6.51463e-05
0.00151489
-0.00248901
0.00157849
-8.87886e-05
0.00239386
-0.00106382
0.0028982
-0.00065776
0.0026753
0.000147319
-0.00104626
0.00467515
-0.00914796
0.0103827
-0.018991
0.0128789
-0.0269031
0.0105117
-0.0310321
0.00567074
-0.030218
-0.000915198
-0.0254027
-0.00617456
-0.0193487
-0.00791897
-0.0136814
-0.0073157
-0.00942169
-0.0056682
-0.0064014
-0.00403401
0.00208661
-0.0113498
-0.00695032
0.0423824
0.0320905
-0.044765
0.035049
0.0273163
0.0265214
0.0200408
0.0192185
0.01353
0.0138394
0.00885559
0.0100855
0.00586873
0.00745333
0.00403825
0.00555156
0.00289849
0.0041322
0.00215554
0.00304497
0.00164619
0.00219575
0.00128141
0.00152312
0.00101052
0.00098513
0.000803893
0.000552068
0.000640211
0.000205083
0.000520259
-7.52286e-05
0.000415362
-0.000303278
0.000332774
-0.000485216
0.000262557
-0.000629468
0.000204976
-0.000741924
0.00015637
-0.000828213
0.000116928
-0.000892559
8.34848e-05
-0.00093798
5.55265e-05
-0.000967321
3.06241e-05
-0.00098369
1.13918e-05
-0.000989757
-4.34132e-06
-0.000986688
-1.76255e-05
-0.000976085
-2.85928e-05
-0.000959288
-3.78705e-05
-0.000937792
-4.44501e-05
-0.000912665
-4.95085e-05
-0.000884508
-5.36047e-05
-0.000854338
-5.6149e-05
-0.000822806
-5.77243e-05
-0.000790322
-5.86881e-05
-0.000757412
-5.8879e-05
-0.000724324
-5.87144e-05
-0.000691285
-5.82207e-05
-0.000658593
-5.72597e-05
-0.000626286
-5.63118e-05
-0.000594375
-5.54043e-05
-0.000562873
-5.45205e-05
-0.000531708
-5.38046e-05
-0.000500908
-5.30606e-05
-0.00047054
-5.22319e-05
-0.000440788
-5.11093e-05
-0.000412016
-4.93727e-05
-0.000384711
-4.68185e-05
-0.00035938
-4.34094e-05
-0.000336515
-3.91648e-05
-0.000316405
-3.44365e-05
-0.000299026
-2.97649e-05
-0.000283912
-2.58929e-05
-0.000269936
-2.39678e-05
-0.00025526
-2.51938e-05
-0.000237196
-3.10421e-05
-0.000212259
-4.28661e-05
-0.000176501
-6.15074e-05
-0.000126436
-8.61312e-05
-6.01533e-05
-0.000114008
2.1702e-05
-0.000140677
0.000115382
-0.000160821
0.000214352
-0.000169554
0.000311981
-0.000166824
0.000403924
-0.000156461
0.000490098
-0.000145815
0.000574071
-0.000140805
0.000662954
-0.00014776
0.000764066
-0.000166619
0.000885134
-0.000198786
0.00102594
-0.000230563
0.00117126
-0.000237024
0.00128
-0.000173202
0.00129162
-6.76296e-06
0.00116719
0.000223201
0.000919914
0.000428155
0.000640215
0.000475178
0.000463638
0.000290432
0.000455874
-8.78665e-06
0.000522533
-0.000140157
0.00055868
-7.82699e-05
0.000611889
-0.000105109
0.000787
-0.000307511
0.000955078
-0.000290883
0.000913095
8.57584e-05
0.000731755
0.000313624
0.000655263
0.000145235
0.000828665
-0.000315125
0.00161224
-0.00134365
0.00308741
-0.00264429
0.00601484
-0.00512563
0.00963288
-0.00641967
0.014454
-0.00853948
0.0161591
-0.00259453
0.0169151
-0.00116431
0.0149736
0.00370657
0.010118
0.00871062
0.00699888
0.00517361
0.000195298
0.011706
-0.000313652
0.000571717
-0.000863521
0.00086049
-0.000625839
-0.00030284
0.00276762
-0.00588245
0.00282523
-0.000146368
0.00425485
-0.00249344
0.00505932
-0.00146219
0.00405137
0.00115528
-0.00330643
0.012033
-0.0181222
0.0251985
-0.0349675
0.0297242
-0.0475995
0.0231437
-0.0534375
0.0115088
-0.0511535
-0.00319917
-0.0424796
-0.0148484
-0.0320343
-0.0183642
-0.0223518
-0.0169981
-0.0153034
-0.0127166
-0.010682
-0.00865537
0.0031469
-0.0251786
-0.016276
0.0481828
0.0316642
-0.0477564
0.0448306
0.0306685
0.038481
0.0263904
0.0311323
0.0208788
0.024333
0.0156549
0.01875
0.0114517
0.0144133
0.00837488
0.0110929
0.00621892
0.00853438
0.00471409
0.00653684
0.00364378
0.00495612
0.00286216
0.0036908
0.00227581
0.00266893
0.00182569
0.00183829
0.00147079
0.0011632
0.00119534
0.00061107
0.000967522
0.00016137
0.000782508
-0.000205441
0.000629345
-0.000502967
0.000502403
-0.000741114
0.00039437
-0.000929869
0.00030564
-0.00107677
0.000230426
-0.00118826
0.000167217
-0.00127071
0.000112939
-0.00132813
6.84938e-05
-0.00136383
3.13622e-05
-0.00138192
3.19246e-07
-0.00138581
-2.47369e-05
-0.00137784
-4.58055e-05
-0.00135991
-6.23758e-05
-0.00133421
-7.52875e-05
-0.00130203
-8.5822e-05
-0.0012651
-9.30832e-05
-0.0012247
-9.81248e-05
-0.00118164
-0.000101737
-0.00113687
-0.000103674
-0.00109094
-0.000104669
-0.00104432
-0.000104846
-0.000997588
-0.000103995
-0.000950915
-0.000102979
-0.000904402
-0.000101916
-0.000858149
-0.000100778
-0.000812124
-9.98362e-05
-0.00076642
-9.87718e-05
-0.00072119
-9.74689e-05
-0.00067674
-9.55678e-05
-0.000633646
-9.24785e-05
-0.000592658
-8.78195e-05
-0.000554561
-8.15212e-05
-0.000520112
-7.36301e-05
-0.000489774
-6.47942e-05
-0.000463529
-5.60326e-05
-0.0004407
-4.8745e-05
-0.000419621
-4.507e-05
-0.000397546
-4.72908e-05
-0.000370462
-5.81464e-05
-0.000333162
-8.01842e-05
-0.000279773
-0.000114914
-0.000205046
-0.000160871
-0.000106042
-0.00021302
1.6408e-05
-0.000263132
0.000156896
-0.000301308
0.000305923
-0.000318579
0.0004537
-0.000314595
0.00059388
-0.00029663
0.000726553
-0.000278479
0.000857564
-0.000271802
0.000998019
-0.000288203
0.00115956
-0.000328149
0.0013539
-0.000393111
0.00158085
-0.000457511
0.00181739
-0.000473553
0.00200221
-0.000358019
0.0020424
-4.69418e-05
0.00187463
0.000390966
0.00151202
0.000790774
0.00108502
0.000902183
0.000796717
0.000578731
0.000746134
4.18053e-05
0.000805532
-0.000199568
0.000831986
-0.00010472
0.000891118
-0.000164244
0.00114255
-0.000558962
0.0013959
-0.000544225
0.00135165
0.000129983
0.00108995
0.000575326
0.000985264
0.000249903
0.00122152
-0.000551399
0.0023719
-0.00249402
0.00439866
-0.00467108
0.00863195
-0.0093589
0.0135884
-0.0113761
0.0204991
-0.0154502
0.0234945
-0.00558985
0.0248596
-0.00252944
0.0226649
0.00590126
0.015938
0.0154375
0.0111989
0.00991273
0.000895632
0.0220093
-0.000322705
0.00179001
-0.0013119
0.00184972
-0.000798025
-0.000816729
0.00421388
-0.0108944
0.00421437
-0.000146824
0.00629098
-0.00457006
0.00726855
-0.00243972
0.00484698
0.00357687
-0.00716949
0.0240494
-0.0294575
0.0474865
-0.053162
0.0534287
-0.0695446
0.0395264
-0.0758937
0.0178578
-0.0713262
-0.00776659
-0.0584908
-0.0276838
-0.043868
-0.032987
-0.030209
-0.0306571
-0.0204967
-0.0224288
-0.0147814
-0.0143707
0.00396245
-0.0439224
-0.0296646
0.052
0.0305514
-0.0508872
0.0513222
0.0313464
0.0478817
0.029831
0.042319
0.0264415
0.0358298
0.0221442
0.0294551
0.0178264
0.0237882
0.0140417
0.0190229
0.0109842
0.0151201
0.00861694
0.0119511
0.00681279
0.00937706
0.00543622
0.0072781
0.00437475
0.00555867
0.00354508
0.00414415
0.00288524
0.00297957
0.00235988
0.0020175
0.0019296
0.00122352
0.0015765
0.000569471
0.00128338
3.40652e-05
0.00103777
-0.000405871
0.000834234
-0.000761274
0.00066101
-0.0010456
0.000514732
-0.00126963
0.000391341
-0.00144294
0.000286184
-0.0015732
0.000198423
-0.00166709
0.00012522
-0.00173118
6.44071e-05
-0.00176711
1.1186e-05
-0.00178335
-2.95396e-05
-0.0017825
-6.32347e-05
-0.00176689
-9.09764e-05
-0.00173923
-0.000113525
-0.00170231
-0.000130009
-0.00165828
-0.000142148
-0.00160862
-0.000151388
-0.00155489
-0.000157432
-0.00149813
-0.000161454
-0.00143921
-0.000163774
-0.0013791
-0.000164109
-0.00131823
-0.000163843
-0.00125688
-0.000163267
-0.00119531
-0.000162354
-0.00113359
-0.00016156
-0.00107194
-0.000160431
-0.00101064
-0.000158773
-0.000950173
-0.000156045
-0.000891359
-0.000151304
-0.000835266
-0.000143926
-0.000783003
-0.000133799
-0.000735641
-0.00012101
-0.000693852
-0.000106604
-0.000657649
-9.226e-05
-0.000626139
-8.02797e-05
-0.000597075
-7.41587e-05
-0.000566719
-7.76695e-05
-0.000529606
-9.52814e-05
-0.000478627
-0.000131182
-0.00040578
-0.000187779
-0.000303862
-0.000262803
-0.000168748
-0.000348144
-1.45563e-06
-0.000430431
0.000191159
-0.000493923
0.000396265
-0.000523683
0.000600759
-0.000519082
0.000796127
-0.000491987
0.000982743
-0.000465084
0.00116911
-0.000458155
0.00137102
-0.000490103
0.00160511
-0.00056222
0.00188767
-0.000675664
0.00221882
-0.000788657
0.0025676
-0.000822318
0.00285136
-0.000641779
0.00294097
-0.000136538
0.00274142
0.000590521
0.00225952
0.00127268
0.00166471
0.001497
0.00123353
0.00100991
0.00110662
0.000168727
0.00112951
-0.000222479
0.00112568
-0.000100882
0.00117887
-0.000217442
0.0015082
-0.000888301
0.00186064
-0.000896663
0.00182456
0.000166033
0.00148345
0.000916441
0.00134685
0.000386483
0.00163424
-0.000838811
0.00316188
-0.00402164
0.00567265
-0.00718189
0.0112663
-0.0149525
0.0173096
-0.0174194
0.026388
-0.0245286
0.0310346
-0.0102364
0.0331732
-0.00466803
0.0312421
0.00783237
0.0228491
0.0238304
0.0164276
0.0163343
0.00217355
0.0362634
-0.000200063
0.00416357
-0.00179477
0.00344447
-0.000903587
-0.00170793
0.0058591
-0.017657
0.00576707
-5.47545e-05
0.00849692
-0.00729992
0.0094519
-0.00339464
0.00486629
0.00816249
-0.0128945
0.0418103
-0.0432542
0.0778462
-0.0732595
0.083434
-0.0920414
0.0583083
-0.0976479
0.0234644
-0.090012
-0.0154025
-0.0729767
-0.0447191
-0.0545017
-0.0514619
-0.0372552
-0.0479035
-0.0250084
-0.0346756
-0.0186649
-0.0207143
0.00462054
-0.0672077
-0.0472044
0.0551327
0.0295972
-0.0541784
0.0556553
0.0308238
0.0545221
0.0309642
0.0513432
0.0296205
0.0464944
0.026993
0.0407154
0.0236055
0.0347313
0.0200258
0.0290612
0.0166543
0.0239821
0.0136961
0.0195833
0.0112116
0.0158442
0.00917535
0.0126952
0.00752379
0.0100537
0.00618652
0.00784086
0.00509798
0.00599009
0.00421061
0.00444178
0.00347789
0.00314831
0.00286996
0.00206974
0.00236196
0.00117305
0.00193446
0.00043158
0.00157569
-0.000178139
0.0012707
-0.000676358
0.00101285
-0.00107847
0.000793376
-0.00139898
0.000606577
-0.0016497
0.000448835
-0.00184078
0.000316232
-0.00198124
0.000204924
-0.00208242
0.000112426
-0.0021452
3.32471e-05
-0.00217878
-2.96761e-05
-0.00219003
-7.98081e-05
-0.00218001
-0.000123592
-0.0021536
-0.000156417
-0.00211433
-0.000181406
-0.00206466
-0.000201056
-0.00200702
-0.000215095
-0.00194322
-0.000225285
-0.00187472
-0.000232289
-0.00180306
-0.000235767
-0.00172911
-0.000237789
-0.00165344
-0.000238937
-0.00157659
-0.000239209
-0.00149883
-0.000239328
-0.00142057
-0.000238701
-0.00134229
-0.000237054
-0.0012647
-0.000233642
-0.00118893
-0.000227088
-0.00111642
-0.000216456
-0.00104865
-0.000201585
-0.000987062
-0.000182614
-0.00093259
-0.000161097
-0.000885303
-0.000139572
-0.000844098
-0.000121511
-0.00080611
-0.000112172
-0.000766534
-0.00011727
-0.000718325
-0.000143513
-0.000652312
-0.000197216
-0.000558167
-0.000281943
-0.000426529
-0.000394455
-0.000251907
-0.000522777
-3.527e-05
-0.000647074
0.000214702
-0.000743896
0.000482166
-0.000791145
0.000750349
-0.000787258
0.00100837
-0.00075
0.00125692
-0.00071362
0.00150744
-0.000708662
0.00178102
-0.000763662
0.00209984
-0.000881031
0.0024855
-0.00106132
0.00293902
-0.00124217
0.00342205
-0.00130533
0.00383068
-0.00105041
0.0039959
-0.000301749
0.0037834
0.000803022
0.00318375
0.00187235
0.00240114
0.00227961
0.00179067
0.00162037
0.00154503
0.000414383
0.00149505
-0.000172521
0.00143597
-4.17942e-05
0.00146957
-0.00025105
0.00187841
-0.00129715
0.00234482
-0.00136307
0.00233073
0.000180093
0.00191129
0.00133588
0.00173481
0.000562947
0.00205238
-0.0011564
0.00395547
-0.00592471
0.00686103
-0.0100875
0.0138639
-0.0219554
0.0206319
-0.0241874
0.0319334
-0.0358301
0.0386387
-0.0169417
0.0416268
-0.00765611
0.0405818
0.00887741
0.0308783
0.0335339
0.0228453
0.0243673
0.00420746
0.0549012
0.000145025
0.00822596
-0.0022728
0.00586233
-0.000931002
-0.00304974
0.00768481
-0.0262728
0.00750636
0.000123738
0.0108578
-0.0106514
0.0114946
-0.00403135
0.00384093
0.0158162
-0.0207568
0.066408
-0.0594668
0.116556
-0.0947185
0.118686
-0.114294
0.0778843
-0.117946
0.0271163
-0.106714
-0.0266351
-0.0856628
-0.0657698
-0.0639556
-0.0731691
-0.0434689
-0.0683901
-0.0288025
-0.0493419
-0.022236
-0.0272808
0.00515166
-0.0945953
-0.0689395
0.0583592
0.0289325
-0.0576945
0.0591263
0.0300567
0.0592319
0.0308587
0.0579929
0.0308595
0.0551688
0.0298171
0.0509557
0.0278186
0.0458023
0.0251791
0.0402145
0.0222421
0.034625
0.0192855
0.0293384
0.0164983
0.0245278
0.0139859
0.020263
0.0117887
0.0165453
0.00990418
0.0133392
0.00830404
0.0105951
0.00695459
0.00825757
0.00581541
0.00627439
0.00485314
0.00459802
0.00403834
0.0031865
0.00334602
0.00200385
0.00275836
0.00101784
0.00225668
0.000201484
0.00182906
-0.000469194
0.00146387
-0.00101482
0.00115207
-0.00145301
0.000886804
-0.00179899
0.000662193
-0.00206632
0.000472356
-0.00226683
0.000313005
-0.00241377
0.000180155
-0.00251299
6.94992e-05
-0.00257028
-2.26093e-05
-0.0025985
-9.54129e-05
-0.00259867
-0.000156233
-0.00257711
-0.000202956
-0.00253776
-0.000240413
-0.00248439
-0.000268491
-0.0024199
-0.000289803
-0.00234664
-0.000305558
-0.00226701
-0.000315396
-0.00218251
-0.000322279
-0.00209421
-0.000327244
-0.00200306
-0.00033036
-0.00190967
-0.000332725
-0.00181475
-0.000333631
-0.00171908
-0.00033273
-0.00162366
-0.000329072
-0.00152999
-0.000320771
-0.00143995
-0.00030651
-0.00135548
-0.000286074
-0.00127845
-0.000259668
-0.0012101
-0.00022947
-0.0011506
-0.000199095
-0.00109866
-0.000173479
-0.00105077
-0.000160086
-0.00100099
-0.000167073
-0.000940591
-0.00020394
-0.000858178
-0.000279652
-0.000740917
-0.000399223
-0.000577091
-0.000558297
-0.000359653
-0.000740225
-8.94445e-05
-0.00091729
0.000223252
-0.00105659
0.000559427
-0.00112732
0.000898463
-0.00112629
0.0012269
-0.00107842
0.00154566
-0.00103237
0.00186931
-0.00103229
0.00222466
-0.00111901
0.00263996
-0.00129632
0.00314278
-0.00156412
0.00373603
-0.00183541
0.00437546
-0.00194475
0.00493768
-0.00161262
0.00521132
-0.000575378
0.00501369
0.00100066
0.00430614
0.0025799
0.00331866
0.0032671
0.00248785
0.00245118
0.00207133
0.000830915
0.00190335
-4.56538e-06
0.00175942
0.000102148
0.00175797
-0.000249605
0.00224731
-0.00178651
0.00284366
-0.00195942
0.00286674
0.000156982
0.00237081
0.00183182
0.00214064
0.000793096
0.00245646
-0.00147225
0.00471755
-0.00818578
0.0079178
-0.0132878
0.016363
-0.0304006
0.0234072
-0.0312316
0.0370056
-0.0494286
0.0461464
-0.0260824
0.0499423
-0.011452
0.0504657
0.00835398
0.0399759
0.0440236
0.0305885
0.0337547
0.00718782
0.078302
0.000859455
0.0145543
-0.002682
0.00940383
-0.000878711
-0.00485304
0.00964901
-0.0368005
0.0094525
0.000320297
0.0133518
-0.0145507
0.0132618
-0.00394121
0.00150976
0.0275682
-0.0309423
0.0988601
-0.0778795
0.163494
-0.116835
0.157641
-0.135574
0.0966237
-0.136443
0.0279851
-0.121374
-0.0417044
-0.096714
-0.0904295
-0.0723727
-0.0975104
-0.0490893
-0.0916735
-0.0320206
-0.0664106
-0.0254802
-0.0338211
0.00564712
-0.125722
-0.0949111
0.0619447
0.028454
-0.0614661
0.0625807
0.0294208
0.0630802
0.0303592
0.0629443
0.0309955
0.0617453
0.031016
0.0592933
0.0302705
0.055658
0.0288145
0.0510897
0.0268104
0.0459234
0.0244518
0.0405006
0.0219212
0.0351151
0.0193714
0.0299859
0.0169179
0.0252519
0.0146381
0.0209826
0.0125732
0.0171981
0.010739
0.0138844
0.00912907
0.0110102
0.00772736
0.00853574
0.00651279
0.00641915
0.00546265
0.00462008
0.00455744
0.00309994
0.00377678
0.00182394
0.0031049
0.00076064
0.00252697
-0.000117981
0.00203061
-0.000836917
0.00160564
-0.00141788
0.00124321
-0.00188046
0.000935055
-0.00224218
0.000674796
-0.00251748
0.000455402
-0.00272124
0.000273182
-0.00286747
0.000123538
-0.00295529
-7.6359e-06
-0.00300675
-0.000104761
-0.00302233
-0.000187368
-0.00300899
-0.000253757
-0.00297246
-0.000305055
-0.00291729
-0.000345004
-0.00284711
-0.00037575
-0.00276554
-0.000396958
-0.00267507
-0.000412749
-0.00257747
-0.000424847
-0.00247437
-0.000433468
-0.00236687
-0.000440232
-0.00225614
-0.000444367
-0.00214339
-0.00044549
-0.00203
-0.000442466
-0.00191795
-0.000432842
-0.00180962
-0.000414848
-0.0017075
-0.000388218
-0.00161395
-0.000353239
-0.00153061
-0.00031283
-0.00145781
-0.000271923
-0.00139409
-0.000237231
-0.00133529
-0.000218907
-0.0012743
-0.00022809
-0.00120059
-0.000277673
-0.00110043
-0.000379835
-0.000958317
-0.000541362
-0.000759976
-0.000756655
-0.000496618
-0.00100359
-0.000168784
-0.00124513
0.000211742
-0.00143712
0.000622911
-0.00153848
0.00104001
-0.00154338
0.00144674
-0.00148513
0.00184407
-0.00142969
0.00224959
-0.0014378
0.00269619
-0.00156559
0.00321839
-0.0018185
0.00385049
-0.0021962
0.00459876
-0.00258368
0.00541563
-0.0027616
0.00616188
-0.00235887
0.00658329
-0.000996763
0.00643952
0.00114442
0.00564548
0.00337395
0.00444194
0.00447064
0.00334656
0.00354655
0.00269815
0.00147934
0.00235706
0.000336508
0.00209429
0.000364926
0.00204123
-0.000196555
0.00261172
-0.00235702
0.00335349
-0.00270119
0.00342986
8.05864e-05
0.00285763
0.00240405
0.00255187
0.00109883
0.00282184
-0.00174224
0.00540434
-0.0107683
0.00881269
-0.0166962
0.0187029
-0.0402907
0.025562
-0.0380907
0.0415784
-0.065445
0.0534445
-0.0379485
0.0578479
-0.0158554
0.0606098
0.00559212
0.05
0.0546334
0.0397481
0.0440065
0.0113238
0.106726
0.00202596
0.0238521
-0.00292538
0.0143552
-0.000745744
-0.00703269
0.0116782
-0.0492245
0.0116205
0.000378094
0.0159421
-0.0188724
0.0145803
-0.00257933
-0.00232577
0.0444743
-0.0435555
0.14009
-0.0981063
0.218044
-0.138836
0.198371
-0.155362
0.113149
-0.153126
0.0257492
-0.134332
-0.0604981
-0.10655
-0.118211
-0.0801413
-0.12392
-0.0543738
-0.117441
-0.0347933
-0.0859911
-0.0283731
-0.0402412
0.00615043
-0.160246
-0.125166
0.065882
0.0280675
-0.0654956
0.066351
0.0289519
0.0668449
0.0298653
0.0671276
0.0307128
0.0668703
0.0312734
0.0657785
0.0313622
0.0636866
0.0309063
0.0605787
0.0299183
0.0565674
0.0284631
0.0518539
0.0266347
0.0466851
0.0245402
0.0413152
0.0222879
0.0359742
0.0199791
0.0308463
0.0177011
0.0260614
0.0155239
0.0216955
0.0134949
0.0177815
0.0116413
0.014321
0.00997329
0.0112956
0.0084881
0.00867585
0.00717715
0.00642634
0.00602625
0.00451008
0.00502104
0.00289048
0.0041464
0.00153288
0.00338819
0.000404979
0.00273354
-0.000522438
0.00217072
-0.0012763
0.00168903
-0.00188101
0.00127954
-0.00235757
0.000931877
-0.00272468
0.000640203
-0.00299942
0.000398194
-0.00320293
0.000195862
-0.00333214
2.44669e-05
-0.00341314
-0.000106361
-0.0034493
-0.000217612
-0.00344852
-0.00030587
-0.00341784
-0.000375707
-0.00336286
-0.000430743
-0.00328892
-0.000470891
-0.00319993
-0.000501739
-0.00309875
-0.000526033
-0.00298797
-0.000544251
-0.00286947
-0.000558739
-0.00274509
-0.000568757
-0.00261662
-0.000573967
-0.002486
-0.000573106
-0.00235573
-0.000563119
-0.00222888
-0.000541718
-0.00210852
-0.000508597
-0.00199764
-0.000464139
-0.00189837
-0.000412128
-0.00181125
-0.000359073
-0.00173472
-0.000313791
-0.001664
-0.000289649
-0.00159077
-0.000301346
-0.00150266
-0.000365815
-0.00138347
-0.000499043
-0.00121491
-0.00070995
-0.000979975
-0.000991605
-0.000667931
-0.00131565
-0.000278815
-0.00163425
0.000174187
-0.00189012
0.000666371
-0.00203066
0.00116856
-0.00204556
0.00166128
-0.00197784
0.00214522
-0.00191362
0.00264071
-0.00193327
0.00318667
-0.00211154
0.00382395
-0.00245576
0.00459435
-0.00296659
0.00550946
-0.00349879
0.00652211
-0.00377424
0.00748329
-0.00332005
0.00809813
-0.00161159
0.00805989
0.00118266
0.00721595
0.00421791
0.00579545
0.00589113
0.00439111
0.00495089
0.00344039
0.00243007
0.00286321
0.000913674
0.00244252
0.000785622
0.00231988
-7.39238e-05
0.00297121
-0.00300836
0.00387214
-0.00360211
0.00401624
-6.35506e-05
0.00336457
0.00305572
0.00295098
0.0015124
0.00311865
-0.00190993
0.00596385
-0.0136134
0.00953932
-0.0202717
0.020824
-0.0515754
0.0271489
-0.0444156
0.0457778
-0.0840739
0.060426
-0.0525966
0.0651351
-0.0205646
0.0706832
4.40548e-05
0.060711
0.0646056
0.0503446
0.0543729
0.0168221
0.140249
0.00381663
0.0368575
-0.002874
0.0210459
-0.000526674
-0.00938003
0.0136853
-0.0634364
0.0140152
4.82043e-05
0.0185719
-0.0234291
0.0152467
0.00074588
-0.00791479
0.0676358
-0.0586025
0.190778
-0.119635
0.279077
-0.160032
0.238768
-0.173535
0.126653
-0.168532
0.0207464
-0.146351
-0.0826794
-0.11587
-0.148692
-0.0877444
-0.152045
-0.0597412
-0.145444
-0.0373767
-0.108355
-0.0309738
-0.0466441
0.00670524
-0.197925
-0.159806
0.0701307
0.0277304
-0.0697935
0.0704953
0.0285873
0.0708931
0.0294675
0.0712426
0.0303633
0.0713719
0.0311442
0.0710595
0.0316746
0.0700966
0.0318692
0.0683336
0.0316813
0.0657036
0.0310932
0.0622251
0.0301132
0.0579926
0.0287728
0.0531605
0.02712
0.0479234
0.0252162
0.042492
0.0231325
0.037069
0.0209468
0.0318273
0.0187365
0.0268975
0.0165711
0.0223646
0.0145062
0.018273
0.0125797
0.014636
0.0108141
0.0114442
0.00921804
0.00867409
0.00779106
0.00629397
0.00652643
0.0042683
0.00541389
0.00256034
0.00444158
0.00113414
0.00359702
-4.5024e-05
0.00286828
-0.00100703
0.00224154
-0.00178337
0.0017081
-0.00239926
0.001256
-0.00287909
0.000877944
-0.0032414
0.000558173
-0.00351325
0.000296338
-0.00369681
7.71951e-05
-0.00381437
-0.000100071
-0.00387776
-0.000242516
-0.00389433
-0.000359158
-0.00387278
-0.000452308
-0.00382109
-0.000522577
-0.00374519
-0.000577636
-0.00364954
-0.000621691
-0.00353815
-0.000655644
-0.00341404
-0.000682862
-0.00328001
-0.000702794
-0.0031387
-0.000715281
-0.00299277
-0.000719058
-0.00284544
-0.000710457
-0.00270055
-0.000686624
-0.00256193
-0.000647235
-0.0024333
-0.00059279
-0.00231739
-0.000528066
-0.00221508
-0.000461418
-0.00212478
-0.000404116
-0.00204116
-0.0003733
-0.00195469
-0.000387848
-0.00185112
-0.00046941
-0.00171177
-0.000638422
-0.00151541
-0.000906329
-0.0012422
-0.00126484
-0.000879227
-0.00167863
-0.00042578
-0.00208771
0.000103495
-0.0024194
0.000682273
-0.00260944
0.00127606
-0.00263935
0.00186197
-0.00256373
0.00243986
-0.00249149
0.00303212
-0.00252551
0.00368348
-0.00276288
0.00444082
-0.00321308
0.00535423
-0.00387999
0.00644303
-0.00458758
0.00766534
-0.00499653
0.00887079
-0.0045255
0.0097293
-0.00247008
0.00986192
0.00105004
0.00902403
0.00505582
0.00740145
0.00751371
0.00564795
0.00670438
0.00431854
0.00375949
0.00343222
0.00179998
0.00280986
0.00140799
0.00259976
0.00013617
0.00332939
-0.00373801
0.00439887
-0.00467159
0.00462125
-0.000285966
0.00388061
0.00379636
0.00331442
0.00207857
0.00331198
-0.00190752
0.00633814
-0.0166396
0.0101184
-0.0240521
0.0226745
-0.0641315
0.028396
-0.050137
0.0498747
-0.105553
0.0669552
-0.0696771
0.0716547
-0.0252642
0.0804226
-0.00872376
0.0717994
0.0732288
0.0623076
0.0638646
0.0238751
0.178681
0.00642676
0.0543057
-0.00236879
0.0298415
-0.000191387
-0.0115575
0.0155877
-0.0792155
0.0166309
-0.000994978
0.0211593
-0.0279575
0.0150362
0.00686901
-0.0155273
0.0981994
-0.0760266
0.251277
-0.141909
0.344959
-0.179941
0.276799
-0.190345
0.137057
-0.183435
0.0138366
-0.158371
-0.107743
-0.125402
-0.181661
-0.0957093
-0.181738
-0.0656135
-0.17554
-0.0400353
-0.133934
-0.0333769
-0.0533024
0.00729213
-0.238594
-0.199021
0.0746898
0.0274268
-0.0743861
0.0749991
0.0282781
0.0753208
0.0291459
0.0756297
0.0300544
0.075854
0.0309198
0.0758747
0.0316539
0.0755432
0.0322006
0.0747071
0.0325174
0.0732345
0.0325658
0.0710324
0.0323154
0.0680577
0.0317474
0.0643234
0.0308543
0.0598993
0.0296402
0.0549092
0.0281225
0.0495199
0.026336
0.0439235
0.0243329
0.0383138
0.0221808
0.0328647
0.0199553
0.0277142
0.0177302
0.022958
0.0155704
0.018651
0.013525
0.0148149
0.0116271
0.0114463
0.009895
0.00852497
0.00833528
0.00602019
0.00694646
0.00389563
0.00572166
0.00211268
0.00465125
0.000632092
0.00372208
-0.000582188
0.00292225
-0.00156556
0.00223927
-0.00235152
0.00166384
-0.00296736
0.00117402
-0.00343788
0.000766889
-0.00379274
0.000432045
-0.00404297
0.000150134
-0.00420678
-7.87504e-05
-0.00430514
-0.000260825
-0.00434432
-0.000413133
-0.00433677
-0.000530128
-0.00429152
-0.000622878
-0.0042154
-0.000697819
-0.00411446
-0.000756591
-0.00399337
-0.000803963
-0.00385636
-0.000839818
-0.00370725
-0.000864402
-0.00354967
-0.000876651
-0.0033878
-0.000872338
-0.00322644
-0.000848001
-0.00307034
-0.000803359
-0.00292411
-0.000739046
-0.00279124
-0.00066096
-0.00267309
-0.000579598
-0.00256821
-0.000509032
-0.00247076
-0.000470775
-0.00237011
-0.00048853
-0.00225017
-0.000589386
-0.00208973
-0.000798888
-0.00186462