/*--------------------------------*- C++ -*----------------------------------*\
| =========                 |                                                 |
| \\      /  F ield         | OpenFOAM: The Open Source CFD Toolbox           |
|  \\    /   O peration     | Version:  2412                                  |
|   \\  /    A nd           | Website:  www.openfoam.com                      |
|    \\/     M anipulation  |                                                 |
\*---------------------------------------------------------------------------*/
FoamFile
{
    version     2.0;
    format      ascii;
    arch        "LSB;label=32;scalar=64";
    class       volVectorField;
    location    "1.025";
    object      U_0;
}
// * * * * * * * * * * * * * * * * * * * * * * * * * * * * * * * * * * * * * //

dimensions      [0 1 -1 0 0 0 0];

internalField   nonuniform List<vector> 
12600
(
(18.9788 0 -0.584302)
(7.65181 -3.77833e-20 -1.57698)
(3.20797 -1.71714e-20 -1.62939)
(1.61747 0 -1.19291)
(1.01082 -2.21669e-22 -0.789114)
(0.686891 0 -0.530283)
(0.470196 -2.99297e-20 -0.365516)
(0.314083 0 -0.252685)
(0.198251 0 -0.170785)
(0.110715 0 -0.109506)
(0.0429693 0 -0.0636978)
(-0.00962504 -9.52393e-20 -0.0282153)
(-0.0503003 -9.73807e-20 -0.000286607)
(-0.0820648 0 0.0220525)
(-0.106691 1.96735e-19 0.0386193)
(-0.124894 0 0.0522197)
(-0.139181 2.20455e-22 0.0627439)
(-0.149407 0 0.070586)
(-0.156531 9.53875e-20 0.076351)
(-0.160884 0 0.0803753)
(-0.163051 0 0.0830372)
(-0.163422 0 0.0846272)
(-0.162298 3.46335e-19 0.0853364)
(-0.160282 -3.3669e-19 0.0851879)
(-0.157403 1.58432e-22 0.0841177)
(-0.153591 1.59826e-19 0.0824135)
(-0.148665 0 0.0807202)
(-0.143462 0 0.0785579)
(-0.138213 0 0.0760559)
(-0.132656 -2.80045e-19 0.073317)
(-0.126937 -5.41314e-19 0.0704526)
(-0.121098 0 0.0674927)
(-0.115288 0 0.0644708)
(-0.109638 -2.42197e-19 0.0614552)
(-0.104084 -2.33042e-19 0.0584506)
(-0.0986224 0 0.0554903)
(-0.0932918 0 0.0526003)
(-0.0881043 -4.14295e-19 0.0497742)
(-0.0831095 0 0.0470283)
(-0.0783121 5.64135e-23 0.0443565)
(-0.073664 -3.66679e-19 0.0417527)
(-0.069159 -3.51866e-19 0.0392239)
(-0.0647783 0 0.0367616)
(-0.0605118 -3.23418e-19 0.0343617)
(-0.0563627 -3.09905e-19 0.0320248)
(-0.0523317 5.93876e-19 0.0297525)
(-0.048448 -5.68884e-19 0.0275638)
(-0.0447649 0 0.0254885)
(-0.0413387 5.21204e-19 0.0235571)
(-0.0382239 -4.98595e-19 0.0218012)
(-0.0354618 0 0.0202454)
(-0.033054 -1.27489e-23 0.018891)
(-0.0309705 4.35872e-19 0.0177195)
(-0.0291148 0 0.0166721)
(-0.0273165 -7.95599e-19 0.0156491)
(-0.0253226 0 0.0145065)
(-0.0227966 0 0.013057)
(-0.0193112 5.75807e-24 0.0110924)
(-0.0144665 3.97375e-24 0.00838173)
(-0.00800657 6.28904e-19 0.00474744)
(6.47096e-05 -5.98822e-19 0.000198578)
(0.009453 1.13925e-18 -0.00510206)
(0.0194593 0 -0.0107668)
(0.029294 1.02754e-18 -0.0163551)
(0.0382846 9.74388e-19 -0.0214874)
(0.0462302 -1.84621e-18 -0.0260491)
(0.05323 8.73842e-19 -0.0300957)
(0.0598501 0 -0.0339502)
(0.0666589 0 -0.0379471)
(0.0743759 0 -0.0425141)
(0.083478 0 -0.0479405)
(0.0933972 0 -0.0539915)
(0.10188 -1.26682e-18 -0.0590786)
(0.103998 1.2056e-18 -0.0604664)
(0.0950444 0 -0.0555727)
(0.0749553 0 -0.0442847)
(0.0486772 1.05269e-18 -0.0293011)
(0.0279056 -1.75958e-22 -0.0172382)
(0.0239353 1.93245e-18 -0.0148228)
(0.034127 0 -0.0202069)
(0.0416563 0 -0.0239094)
(0.0453464 0 -0.0257671)
(0.0527417 1.36334e-22 -0.0297335)
(0.0736163 0 -0.0415711)
(0.0729242 0 -0.0411742)
(0.0636005 1.2682e-18 -0.0359519)
(0.0391913 6.74305e-23 -0.0221927)
(0.0531312 0 -0.0303174)
(0.0591286 0 -0.0335908)
(0.167911 -1.97463e-18 -0.0953406)
(0.27355 -1.79487e-18 -0.152995)
(0.562298 -1.57169e-18 -0.317211)
(0.792136 -1.33483e-18 -0.443497)
(1.12925 3.38731e-21 -0.637256)
(0.911183 2.1724e-21 -0.516538)
(1.09839 4.59392e-19 -0.624431)
(0.515242 0 -0.294854)
(0.510934 0 -0.294265)
(0.105178 0 -0.062605)
(-0.171348 1.65707e-18 0.0947879)
(0.11949 -6.64688e-19 -0.0673373)
(-0.203667 6.49102e-19 0.116095)
(0.135631 6.55952e-19 -0.0796281)
(0.109787 0 -0.0624777)
(0.162354 0 -0.0920789)
(0.223522 0 -0.127414)
(0.260178 8.34089e-19 -0.146903)
(0.215889 0 -0.114925)
(-0.236826 -2.30054e-19 0.149685)
(-0.948316 0 0.555113)
(-1.6274 0 0.930022)
(-2.0696 3.51043e-19 1.17637)
(-2.16296 0 1.22743)
(-1.91307 0 1.08128)
(-1.44469 0 0.812208)
(-1.08934 -3.74194e-18 0.610838)
(-0.660067 0 0.367203)
(-0.564747 4.01451e-18 0.315428)
(-0.163768 0 0.0915413)
(0.436987 -1.55028e-21 -0.244422)
(30.4071 -1.48743e-20 -0.881632)
(21.1059 2.18041e-20 -3.30098)
(13.301 1.3125e-20 -4.18007)
(8.38549 0 -3.60762)
(5.5614 -1.21743e-20 -2.70665)
(3.86016 2.25082e-20 -1.972)
(2.75769 3.12217e-20 -1.43739)
(1.99037 -3.6314e-20 -1.04704)
(1.42852 0 -0.754461)
(1.00365 0 -0.530104)
(0.675444 0 -0.356147)
(0.418934 0 -0.218947)
(0.216692 0 -0.109689)
(0.0547856 0 -0.0220484)
(-0.0724081 -7.67649e-22 0.0487012)
(-0.172851 0 0.103752)
(-0.253655 1.01283e-19 0.14777)
(-0.31617 0 0.182254)
(-0.364285 -1.98229e-19 0.208908)
(-0.400084 1.94324e-19 0.228843)
(-0.425702 0 0.243446)
(-0.442993 1.84533e-19 0.253497)
(-0.453785 -1.79822e-19 0.258876)
(-0.459215 1.74841e-19 0.261038)
(-0.459686 -1.69934e-19 0.260526)
(-0.455511 0 0.258163)
(-0.44765 1.6105e-19 0.254402)
(-0.437775 0 0.248585)
(-0.42602 0 0.241746)
(-0.412596 0 0.234074)
(-0.397979 2.79918e-19 0.225846)
(-0.382455 0 0.217141)
(-0.366419 0 0.208123)
(-0.350281 0 0.198993)
(-0.334046 0 0.189793)
(-0.317835 0 0.180642)
(-0.301812 0 0.171618)
(-0.286025 4.26259e-19 0.16272)
(-0.27062 0 0.15402)
(-0.255646 7.84578e-19 0.145527)
(-0.24102 7.52448e-19 0.137214)
(-0.226755 3.60606e-19 0.129103)
(-0.212811 0 0.121167)
(-0.199167 0 0.1134)
(-0.185848 6.33481e-19 0.105814)
(-0.172872 -6.06385e-19 0.0984262)
(-0.160344 5.80146e-19 0.0913044)
(-0.148439 0 0.0845503)
(-0.137339 -5.30358e-19 0.0782663)
(-0.127228 0 0.0725559)
(-0.118247 0 0.067497)
(-0.110415 -4.62414e-19 0.063092)
(-0.103637 0 0.059275)
(-0.0976023 0 0.0558498)
(-0.0917615 8.03836e-19 0.0524856)
(-0.0853036 0 0.0487052)
(-0.0771428 0 0.0438921)
(-0.065937 1.12314e-23 0.0373257)
(-0.0504373 6.63229e-19 0.0282496)
(-0.0297733 1.28741e-24 0.0161737)
(-0.00393045 0 0.00114234)
(0.0261822 -1.14023e-18 -0.0162846)
(0.0584037 -1.08201e-18 -0.0348362)
(0.0902573 0 -0.0531039)
(0.119622 -1.94211e-18 -0.0699004)
(0.14591 -1.36846e-22 -0.084937)
(0.169591 0 -0.0985065)
(0.192626 8.20698e-19 -0.11177)
(0.217053 0 -0.125888)
(0.2453 0 -0.142287)
(0.278858 0 -0.161771)
(0.315736 0 -0.183213)
(0.348084 2.49471e-18 -0.201555)
(0.359959 -1.18512e-18 -0.207296)
(0.335045 0 -0.191928)
(0.272433 0 -0.15505)
(0.186998 1.02994e-18 -0.105764)
(0.116695 -2.72231e-22 -0.0660853)
(0.097635 -2.07975e-22 -0.0566431)
(0.120877 0 -0.0708023)
(0.137504 0 -0.0797173)
(0.1443 0 -0.0837166)
(0.1641 2.17548e-22 -0.0957493)
(0.22947 -1.40393e-18 -0.133367)
(0.229582 1.30839e-18 -0.131863)
(0.202119 -1.22534e-18 -0.115249)
(0.126558 1.02063e-22 -0.0721991)
(0.172167 -1.0809e-18 -0.100294)
(0.188201 0 -0.112258)
(0.532808 1.89796e-18 -0.315187)
(0.821245 0 -0.487776)
(1.74822 1.50696e-18 -1.02573)
(2.35818 0 -1.38398)
(3.49889 -1.71342e-18 -2.02392)
(2.85382 -6.47057e-19 -1.64914)
(3.52235 0 -2.01927)
(1.76022 0 -0.99128)
(1.73743 -7.7895e-19 -0.990997)
(0.422158 5.26366e-19 -0.219453)
(-0.489992 -1.57259e-18 0.283265)
(0.361895 6.31278e-19 -0.207813)
(-0.646558 -6.15923e-19 0.373257)
(0.462126 0 -0.277774)
(0.345637 5.4831e-19 -0.199956)
(0.510354 0 -0.298586)
(0.714453 0 -0.414722)
(0.773577 -7.9175e-19 -0.448588)
(0.496895 0 -0.273162)
(-1.05678 -4.83056e-21 0.643158)
(-3.29427 -2.47637e-20 1.94397)
(-5.26328 0 3.07)
(-6.42597 0 3.73093)
(-6.55808 0 3.79004)
(-5.71104 1.23254e-18 3.28529)
(-4.24598 -3.15866e-18 2.4338)
(-3.14662 3.51778e-18 1.80189)
(-1.84861 0 1.05577)
(-1.59601 -3.77064e-18 0.913863)
(-0.548378 0 0.287227)
(1.25745 6.55407e-18 -0.743411)
(34.0198 3.17528e-20 -0.719666)
(29.4206 -8.24981e-21 -2.85573)
(22.8678 -2.38775e-21 -4.5571)
(16.7231 0 -4.91366)
(12.0027 -1.43952e-20 -4.38207)
(8.69454 5.75427e-22 -3.57181)
(6.40197 0 -2.80288)
(4.76564 3.44677e-20 -2.16262)
(3.55646 0 -1.64786)
(2.63767 4.16467e-20 -1.23563)
(1.92517 0 -0.903991)
(1.36405 0 -0.636059)
(0.917534 0 -0.418669)
(0.558431 0 -0.241962)
(0.271722 -9.63732e-20 -0.0950054)
(0.0398581 0 0.0209166)
(-0.147039 0 0.11592)
(-0.296021 0 0.192065)
(-0.414233 9.39128e-20 0.252996)
(-0.506336 -7.34973e-22 0.300696)
(-0.576775 0 0.337469)
(-0.629749 -5.57415e-22 0.364736)
(-0.667953 0 0.383387)
(-0.693374 -1.66334e-19 0.395672)
(-0.707797 0 0.402515)
(-0.713233 0 0.404344)
(-0.711253 -1.52762e-19 0.402555)
(-0.703969 0 0.396641)
(-0.69166 0 0.38872)
(-0.675397 -2.74439e-19 0.378973)
(-0.656094 0 0.367911)
(-0.63442 0 0.355655)
(-0.611076 0 0.34256)
(-0.586837 0 0.328968)
(-0.561875 2.27523e-19 0.314992)
(-0.536496 0 0.300866)
(-0.511057 0 0.286726)
(-0.485686 -4.03535e-19 0.272614)
(-0.460653 0 0.258685)
(-0.436095 -7.42851e-19 0.244983)
(-0.411936 -6.8495e-23 0.231477)
(-0.388235 -3.41404e-19 0.218209)
(-0.364961 0 0.20515)
(-0.342096 0 0.192306)
(-0.319702 -2.99705e-19 0.179715)
(-0.297832 0 0.167429)
(-0.276669 -5.48794e-19 0.155573)
(-0.256519 0 0.144328)
(-0.237698 3.95635e-23 0.133871)
(-0.220522 0 0.124377)
(-0.205244 0 0.115971)
(-0.191907 0 0.10865)
(-0.180357 -4.17118e-19 0.102291)
(-0.170081 0 0.0965509)
(-0.160155 0 0.0908591)
(-0.149217 0 0.0843995)
(-0.13544 0 0.0761265)
(-0.116595 1.31459e-18 0.0647994)
(-0.0905859 0 0.0491785)
(-0.0558935 3.04895e-24 0.0285437)
(-0.0124557 0 0.00301178)
(0.0382578 5.37671e-19 -0.0264271)
(0.0927118 1.02018e-18 -0.0576449)
(0.146802 0 -0.0883472)
(0.196987 1.8305e-18 -0.116652)
(0.242315 8.6561e-19 -0.142229)
(0.283729 0 -0.165759)
(0.324681 -7.72896e-19 -0.189357)
(0.368841 0 -0.215108)
(0.420408 0 -0.245463)
(0.481889 0 -0.281565)
(0.549809 0 -0.320983)
(0.610593 -8.12092e-23 -0.355019)
(0.637558 1.1145e-18 -0.366804)
(0.601227 0 -0.342507)
(0.499009 0 -0.280816)
(0.354051 -2.05579e-22 -0.197327)
(0.230454 -1.85194e-18 -0.129549)
(0.189395 -8.85432e-19 -0.110025)
(0.215809 0 -0.127335)
(0.234358 0 -0.135977)
(0.239539 0 -0.138891)
(0.268097 -2.81567e-18 -0.15746)
(0.376552 -2.50484e-22 -0.21912)
(0.380354 -1.22737e-18 -0.21663)
(0.337961 0 -0.189341)
(0.213862 -1.07338e-18 -0.120643)
(0.290583 1.01334e-18 -0.170258)
(0.311061 0 -0.192422)
(0.883946 0 -0.534127)
(1.29915 1.61785e-18 -0.79161)
(2.86527 0 -1.70078)
(3.69519 1.20785e-18 -2.18656)
(5.72966 -3.98108e-21 -3.30171)
(4.68258 6.11286e-19 -2.69362)
(5.91287 -4.17147e-19 -3.35508)
(3.11044 0 -1.7173)
(3.05972 7.2897e-19 -1.72167)
(0.842008 -4.92518e-19 -0.40403)
(-0.745185 1.46848e-18 0.427814)
(0.581182 0 -0.326797)
(-1.07345 -5.7498e-19 0.614609)
(0.805935 0 -0.501579)
(0.578553 -5.12709e-19 -0.333042)
(0.84671 4.73041e-19 -0.499151)
(1.19403 0 -0.693276)
(1.21888 7.40087e-19 -0.694173)
(0.581309 0 -0.262476)
(-2.14862 4.18634e-19 1.37616)
(-5.83434 2.31408e-20 3.50875)
(-8.85892 0 5.19268)
(-10.4681 0 6.05475)
(-10.4552 0 5.98309)
(-8.98095 -5.94539e-21 5.07765)
(-6.60992 2.95045e-18 3.70331)
(-4.85745 -3.26998e-18 2.70699)
(-2.78982 0 1.54147)
(-2.42645 -3.51386e-18 1.35139)
(-0.941187 0 0.452801)
(1.95831 1.74601e-21 -1.16885)
(34.6594 -1.67172e-20 -0.898407)
(33.325 -4.90567e-21 -2.16974)
(29.4721 6.52605e-21 -3.95393)
(24.3406 -1.42452e-20 -5.08217)
(19.2199 -2.03742e-20 -5.27566)
(14.8533 -4.2827e-20 -4.83062)
(11.4152 0 -4.12329)
(8.78122 0 -3.38467)
(6.76012 0 -2.71256)
(5.19059 -3.94495e-20 -2.13364)
(3.95539 0 -1.6459)
(2.97173 0 -1.2385)
(2.18121 0 -0.899241)
(1.5405 0 -0.617496)
(1.02096 0 -0.381778)
(0.59791 -9.03072e-20 -0.188718)
(0.253001 9.00113e-20 -0.0284424)
(-0.0269712 0 0.102496)
(-0.253118 0 0.209482)
(-0.434308 -1.73986e-19 0.295207)
(-0.577634 1.69298e-19 0.363459)
(-0.689782 -1.65311e-19 0.416394)
(-0.77491 1.61159e-19 0.456736)
(-0.837679 1.57507e-19 0.486388)
(-0.881304 -1.53735e-19 0.507187)
(-0.908833 1.48925e-19 0.519539)
(-0.923152 0 0.52502)
(-0.9279 -1.38962e-19 0.522787)
(-0.922899 0 0.517316)
(-0.910417 2.59745e-19 0.508663)
(-0.892097 0 0.497342)
(-0.869052 0 0.483792)
(-0.842408 0 0.468559)
(-0.8134 -2.23702e-19 0.45217)
(-0.782484 -2.15228e-19 0.434832)
(-0.75023 0 0.416923)
(-0.717255 0 0.398673)
(-0.683834 3.8159e-19 0.380195)
(-0.650412 0 0.361745)
(-0.617271 8.66469e-23 0.343404)
(-0.584382 -3.36638e-19 0.325168)
(-0.551881 0 0.307123)
(-0.519779 0 0.289251)
(-0.488088 0 0.271586)
(-0.456924 0 0.254206)
(-0.426396 -5.41718e-19 0.237208)
(-0.396776 0 0.220787)
(-0.368507 4.95409e-19 0.205209)
(-0.342046 4.73445e-19 0.190729)
(-0.317847 0 0.177594)
(-0.296284 0 0.165972)
(-0.277433 0 0.155847)
(-0.261088 3.93532e-19 0.147028)
(-0.246551 -3.75406e-19 0.139014)
(-0.232533 -7.15966e-19 0.13098)
(-0.217141 0 0.121761)
(-0.197824 -6.50394e-19 0.109871)
(-0.171478 -1.23909e-18 0.0935888)
(-0.135171 0 0.0712415)
(-0.0867591 -1.12223e-18 0.0418744)
(-0.0260942 0 0.00572686)
(0.0448573 -5.0645e-19 -0.0357518)
(0.121296 -9.60798e-19 -0.0795939)
(0.197589 0 -0.122678)
(0.268836 -8.61541e-19 -0.162515)
(0.333758 -8.14824e-19 -0.198829)
(0.393855 0 -0.232789)
(0.454146 0 -0.267541)
(0.520053 0 -0.30615)
(0.597567 6.49034e-19 -0.352084)
(0.6902 6.13863e-19 -0.40672)
(0.792947 0 -0.466189)
(0.886898 -1.10243e-18 -0.517699)
(0.934699 -1.04681e-18 -0.537386)
(0.893103 0 -0.505202)
(0.755854 0 -0.419426)
(0.552225 -9.08567e-19 -0.301531)
(0.371584 2.39187e-22 -0.204515)
(0.299749 0 -0.172216)
(0.317755 0 -0.187344)
(0.329762 0 -0.191335)
(0.328055 0 -0.190815)
(0.361444 -2.11357e-22 -0.215264)
(0.511067 1.23533e-18 -0.300282)
(0.522116 0 -0.297013)
(0.468717 0 -0.259846)
(0.299609 0 -0.168022)
(0.405742 9.4956e-19 -0.239609)
(0.42327 0 -0.272465)
(1.21265 1.66708e-18 -0.7499)
(1.68617 -1.51504e-18 -1.06696)
(3.89163 1.32748e-18 -2.35125)
(4.72227 -1.13073e-18 -2.85747)
(7.77514 1.51806e-18 -4.5062)
(6.32755 -5.7208e-19 -3.65068)
(8.21186 3.90335e-19 -4.64435)
(4.55532 0 -2.47041)
(4.47927 0 -2.48676)
(1.387 -4.60044e-19 -0.621915)
(-0.918981 -6.86084e-19 0.536394)
(0.771322 -5.54147e-19 -0.428534)
(-1.47058 6.11924e-22 0.838828)
(1.16116 0 -0.745329)
(0.810552 0 -0.466626)
(1.16844 -4.42153e-19 -0.698724)
(1.65081 0 -0.962875)
(1.57253 -6.9523e-19 -0.885295)
(0.424602 0 -0.101872)
(-3.53839 4.10454e-21 2.3077)
(-8.52943 0 5.19864)
(-12.2921 -2.12524e-20 7.26028)
(-14.0313 2.68171e-19 8.14774)
(-13.69 6.95907e-19 7.83061)
(-11.5773 -6.91521e-21 6.51405)
(-8.44491 0 4.69259)
(-6.17631 3.05376e-18 3.40778)
(-3.46719 3.33343e-18 1.89269)
(-3.03903 3.28113e-18 1.68246)
(-1.32566 0 0.588819)
(2.53643 2.00955e-21 -1.55877)
(34.3203 0 -1.37936)
(34.4241 -3.56624e-21 -1.93909)
(32.894 0 -3.26628)
(29.7385 1.34589e-20 -4.5843)
(25.6118 3.2118e-20 -5.35136)
(21.2776 2.0848e-20 -5.47209)
(17.2791 0 -5.11754)
(13.8554 0 -4.51294)
(11.0305 -3.39254e-20 -3.82893)
(8.73321 -3.67132e-20 -3.16176)
(6.87019 3.89044e-20 -2.554)
(5.35545 8.10433e-20 -2.01897)
(4.11888 8.32062e-20 -1.55632)
(3.10459 0 -1.1608)
(2.2715 0 -0.82319)
(1.58584 1.70434e-19 -0.539432)
(1.02082 -3.33957e-22 -0.300507)
(0.556605 0 -0.10096)
(0.17593 -8.31267e-20 0.0647268)
(-0.134112 -1.63296e-19 0.200883)
(-0.384668 -1.60059e-19 0.311522)
(-0.585705 0 0.400179)
(-0.744105 -1.52348e-19 0.470004)
(-0.866555 1.48838e-19 0.523734)
(-0.958006 1.45312e-19 0.564585)
(-1.02354 -3.08775e-22 0.593972)
(-1.06845 0 0.612659)
(-1.09542 2.36114e-22 0.62213)
(-1.10799 0 0.622393)
(-1.10815 2.45158e-19 0.617754)
(-1.09796 0 0.609451)
(-1.07965 0 0.597244)
(-1.05481 0 0.582241)
(-1.02529 2.11288e-19 0.565109)
(-0.991976 0 0.546182)
(-0.955795 0 0.526016)
(-0.917718 0 0.504963)
(-0.878252 0 0.483232)
(-0.838073 -3.45369e-19 0.461213)
(-0.797675 6.62547e-19 0.439042)
(-0.757133 0 0.416757)
(-0.716699 3.04302e-19 0.394507)
(-0.676473 0 0.372304)
(-0.63652 0 0.350231)
(-0.597042 0 0.32842)
(-0.558223 6.57425e-23 0.307025)
(-0.520436 0 0.286323)
(-0.484266 -4.6712e-19 0.266677)
(-0.450325 0 0.248419)
(-0.419208 0 0.23187)
(-0.391417 -4.06996e-19 0.217233)
(-0.367073 0 0.204473)
(-0.345934 0 0.193324)
(-0.327124 1.38489e-23 0.183113)
(-0.309012 6.74355e-19 0.172754)
(-0.289191 0 0.160722)
(-0.264415 1.14853e-23 0.145093)
(-0.230742 1.16648e-18 0.123673)
(-0.184422 0 0.0944073)
(-0.122686 5.28059e-19 0.0561634)
(-0.0452614 0 0.00935686)
(0.0454615 4.76443e-19 -0.0440791)
(0.143555 9.03709e-19 -0.100346)
(0.241959 0 -0.155576)
(0.334476 8.1028e-19 -0.206788)
(0.419504 -1.20131e-22 -0.253882)
(0.499122 0 -0.298639)
(0.579925 0 -0.345313)
(0.669158 0 -0.397975)
(0.774593 -1.21941e-18 -0.461047)
(0.900809 6.32172e-24 -0.53598)
(1.04146 0 -0.617255)
(1.17278 1.03483e-18 -0.688042)
(1.24743 1.96511e-18 -0.717834)
(1.2079 0 -0.679399)
(1.04173 0 -0.570983)
(0.78134 0 -0.419133)
(0.539674 2.27033e-22 -0.292011)
(0.427287 0 -0.243698)
(0.424973 0 -0.249673)
(0.421783 0 -0.244023)
(0.408194 0 -0.237489)
(0.442862 1.2376e-18 -0.267298)
(0.632075 1.15808e-18 -0.374571)
(0.65423 0 -0.370849)
(0.594034 0 -0.324841)
(0.383021 0 -0.213074)
(0.515154 7.15917e-23 -0.306294)
(0.52038 0 -0.34988)
(1.51187 -1.56063e-18 -0.956194)
(1.97408 0 -1.30335)
(4.82446 -1.24236e-18 -2.96055)
(5.40485 0 -3.34866)
(9.63722 -7.12251e-19 -5.6046)
(7.74578 0 -4.47145)
(10.3795 0 -5.84359)
(6.06684 0 -3.23648)
(5.99241 0 -3.28232)
(2.07473 4.30157e-19 -0.878225)
(-1.0021 0 0.597625)
(0.935838 5.18039e-19 -0.507133)
(-1.82878 5.01959e-19 1.03393)
(1.51565 0 -1.00398)
(1.04638 0 -0.600077)
(1.47768 0 -0.894798)
(2.07855 0 -1.21375)
(1.8251 -1.84021e-21 -0.996548)
(0.0264854 0 0.251211)
(-5.19043 -3.79909e-19 3.45887)
(-11.294 0 6.97412)
(-15.4501 3.66938e-20 9.17475)
(-17.046 -2.50466e-19 9.88468)
(-16.2431 -6.49923e-19 9.21288)
(-13.5221 -9.9263e-19 7.49694)
(-9.80068 0 5.3394)
(-7.16647 0 3.86036)
(-3.93796 -6.21993e-18 2.08472)
(-3.47002 3.05616e-18 1.88314)
(-1.68746 3.14931e-18 0.686869)
(3.02011 -2.67143e-18 -1.90118)
(33.8746 0 -1.83896)
(34.2793 3.19858e-20 -2.05547)
(34.0573 0 -2.84502)
(32.6654 0 -3.93973)
(30.0954 0 -4.91182)
(26.7246 0 -5.47906)
(23.0322 0 -5.58011)
(19.4072 2.9363e-20 -5.30494)
(16.0879 3.20117e-20 -4.79496)
(13.178 6.91782e-20 -4.17614)
(10.6903 -7.32322e-20 -3.5351)
(8.59148 -7.6494e-20 -2.92153)
(6.83156 -7.85401e-20 -2.35936)
(5.35913 0 -1.858)
(4.12934 0 -1.41688)
(3.10315 -1.60247e-19 -1.03534)
(2.24733 -1.5975e-19 -0.707328)
(1.53534 0 -0.427946)
(0.944373 7.84689e-20 -0.191906)
(0.456584 1.54142e-19 0.00649081)
(0.0557675 0 0.170547)
(-0.271065 1.47095e-19 0.305403)
(-0.534517 0 0.41465)
(-0.744134 -1.7005e-22 0.501766)
(-0.907867 -1.36583e-19 0.569922)
(-1.03279 -3.15484e-22 0.62149)
(-1.12509 0 0.658719)
(-1.18971 1.23686e-19 0.685254)
(-1.23211 -2.39056e-19 0.699309)
(-1.25503 -4.62463e-19 0.703527)
(-1.26267 -2.23224e-19 0.700575)
(-1.25681 0 0.693047)
(-1.24035 -2.06924e-19 0.680895)
(-1.21582 0 0.665363)
(-1.18472 0 0.646888)
(-1.14844 0 0.626235)
(-1.10845 0 0.603903)
(-1.06558 0 0.58023)
(-1.02082 1.0274e-22 0.555768)
(-0.974952 -3.12208e-19 0.53073)
(-0.928228 0 0.505213)
(-0.881068 -5.73462e-19 0.479456)
(-0.833709 0 0.453519)
(-0.786311 0 0.427552)
(-0.739192 0 0.401761)
(-0.692634 4.81194e-19 0.376369)
(-0.647128 0 0.351751)
(-0.603415 0 0.328372)
(-0.562263 0 0.306647)
(-0.524422 0 0.286966)
(-0.49053 7.66199e-19 0.269566)
(-0.460766 0 0.254384)
(-0.434864 0 0.241065)
(-0.411795 3.3274e-19 0.228753)
(-0.389605 0 0.216092)
(-0.365401 0 0.201194)
(-0.335276 1.15189e-18 0.181699)
(-0.294489 -5.48457e-19 0.154965)
(-0.238509 0 0.118601)
(-0.163947 0 0.0713586)
(-0.0703651 0 0.0138839)
(0.0395015 -4.47813e-19 -0.0513811)
(0.158741 0 -0.11983)
(0.27899 0 -0.186932)
(0.39282 -1.52237e-18 -0.249332)
(0.498295 1.43917e-18 -0.307218)
(0.598059 0 -0.363065)
(0.700236 0 -0.422263)
(0.813907 0 -0.489888)
(0.948535 5.72276e-19 -0.571236)
(1.10987 -5.41045e-19 -0.667724)
(1.29057 -1.0241e-18 -0.772097)
(1.4629 -9.70794e-19 -0.863626)
(1.57094 -9.21538e-19 -0.905263)
(1.54196 8.76685e-19 -0.862965)
(1.35499 0 -0.733956)
(1.04155 0 -0.548938)
(0.735493 7.6375e-19 -0.390502)
(0.572202 0 -0.322053)
(0.53607 0 -0.312808)
(0.508668 0 -0.292697)
(0.478323 0 -0.27807)
(0.511013 0 -0.313355)
(0.737901 -2.16938e-18 -0.44234)
(0.775011 0 -0.438634)
(0.712618 -9.45533e-19 -0.384372)
(0.46266 0 -0.255211)
(0.615604 7.27258e-23 -0.368367)
(0.597661 1.54982e-18 -0.422113)
(1.7731 0 -1.14727)
(2.1568 0 -1.50103)
(5.65299 0 -3.52324)
(5.709 0 -3.65787)
(11.2986 6.74178e-19 -6.61804)
(8.88263 0 -5.14605)
(12.3528 0 -6.93748)
(7.60075 0 -3.9925)
(7.58652 0 -4.10018)
(2.91879 0 -1.17467)
(-0.975827 0 0.614174)
(1.07684 0 -0.566013)
(-2.1327 0 1.19441)
(1.85162 -4.73558e-19 -1.26863)
(1.28727 0 -0.735783)
(1.77464 0 -1.08944)
(2.46662 0 -1.44062)
(1.9542 6.08504e-19 -1.01953)
(-0.628859 0 0.792923)
(-7.07263 1.79074e-19 4.79384)
(-14.0245 0 8.76478)
(-18.1982 -3.53951e-21 10.8635)
(-19.4197 0 11.2619)
(-18.0752 5.92553e-19 10.1932)
(-14.8257 0 8.11591)
(-10.7066 0 5.73123)
(-7.85446 0 4.14254)
(-4.22923 2.90118e-18 2.17688)
(-3.72759 -5.70249e-18 1.99651)
(-2.01583 -5.87959e-18 0.742703)
(3.41656 -2.49741e-18 -2.22049)
(33.5496 0 -2.13261)
(33.8462 -3.43535e-20 -2.26299)
(34.0707 0 -2.69805)
(33.7296 0 -3.4563)
(32.5175 -2.646e-20 -4.33453)
(30.4351 -2.60273e-20 -5.07933)
(27.6849 2.69072e-20 -5.52416)
(24.5474 -8.48399e-20 -5.62236)
(21.2959 0 -5.41708)
(18.1459 2.12651e-23 -4.99482)
(15.2351 3.44084e-20 -4.4465)
(12.6308 0 -3.84587)
(10.3495 0 -3.24357)
(8.37765 0 -2.67086)
(6.68856 0 -2.14319)
(5.2506 2.82936e-22 -1.66928)
(4.03167 2.81605e-22 -1.25009)
(3.00279 7.43013e-20 -0.884211)
(2.13762 7.34049e-20 -0.568415)
(1.41374 0 -0.298166)
(0.811182 -1.41564e-19 -0.0698102)
(0.312854 -1.38641e-19 0.121695)
(-0.0958309 0 0.280179)
(-0.427644 -2.12421e-22 0.409693)
(-0.693717 3.29387e-22 0.513875)
(-0.903786 -1.24602e-19 0.59595)
(-1.06638 0 0.658563)
(-1.18859 0 0.7049)
(-1.27619 2.25242e-19 0.738587)
(-1.33582 1.24001e-22 0.759136)
(-1.37187 4.20423e-19 0.768208)
(-1.38916 0 0.766942)
(-1.38938 3.89681e-19 0.761084)
(-1.37686 0 0.749914)
(-1.35387 0 0.734261)
(-1.32245 -1.73232e-19 0.715196)
(-1.28465 0 0.693389)
(-1.2418 -3.19335e-19 0.669327)
(-1.19528 1.00474e-22 0.643771)
(-1.14629 2.93752e-19 0.617026)
(-1.09532 0 0.589273)
(-1.04304 6.54405e-23 0.560865)
(-0.98988 0 0.531932)
(-0.936145 0 0.502715)
(-0.882306 0 0.473508)
(-0.828779 0 0.444624)
(-0.776187 0 0.416547)
(-0.725438 4.1362e-19 0.389853)
(-0.677473 0 0.365043)
(-0.633203 0 0.342578)
(-0.593412 -3.60212e-19 0.32272)
(-0.558358 0 0.305369)
(-0.527764 -3.27949e-19 0.290074)
(-0.500474 -3.12729e-19 0.275782)
(-0.474241 5.96184e-19 0.260857)
(-0.445719 0 0.243045)
(-0.410383 -5.41137e-19 0.219557)
(-0.362746 -5.15238e-19 0.187339)
(-0.297535 0 0.143709)
(-0.210755 0 0.0873705)
(-0.10177 0 0.019258)
(0.0264416 4.2047e-19 -0.0576427)
(0.166132 0 -0.137956)
(0.307779 0 -0.216562)
(0.442794 7.14462e-19 -0.289851)
(0.568869 -1.35076e-18 -0.358414)
(0.689135 0 -0.425484)
(0.813124 0 -0.497606)
(0.951692 0 -0.580799)
(1.11586 0 -0.681116)
(1.31272 -5.07362e-19 -0.799857)
(1.53443 9.60201e-19 -0.928053)
(1.75054 0 -1.0414)
(1.89837 0 -1.09694)
(1.88985 -8.21628e-19 -1.0534)
(1.69247 0 -0.906584)
(1.33188 -7.47885e-19 -0.68985)
(0.958971 7.15043e-19 -0.499147)
(0.733966 0 -0.406306)
(0.650713 0 -0.374286)
(0.589499 0 -0.335954)
(0.537771 0 -0.311814)
(0.565748 0 -0.353221)
(0.828298 1.01547e-18 -0.503341)
(0.883965 0 -0.499729)
(0.823654 1.7699e-18 -0.437684)
(0.537044 0 -0.29323)
(0.703535 7.26153e-23 -0.423292)
(0.650511 1.144e-22 -0.486429)
(1.98753 0 -1.31647)
(2.23943 1.24591e-18 -1.66303)
(6.36582 0 -4.02475)
(5.64771 0 -3.7875)
(12.7691 -1.26472e-18 -7.54261)
(9.71438 0 -5.64929)
(14.0743 0 -7.89981)
(9.09693 0 -4.70916)
(9.23679 0 -4.92716)
(3.92596 0 -1.50955)
(-0.826291 0 0.579451)
(1.20331 0 -0.605194)
(-2.3682 0 1.30907)
(2.14707 4.42422e-19 -1.52735)
(1.53432 0 -0.872212)
(2.06084 0 -1.28202)
(2.80534 0 -1.63379)
(1.94542 -5.71987e-19 -0.931132)
(-1.53232 -3.89142e-19 1.53661)
(-9.12143 -1.72656e-19 6.28514)
(-16.6019 -1.50953e-20 10.4936)
(-20.4365 -4.07155e-21 12.2499)
(-21.1679 -2.00137e-19 12.2419)
(-19.2886 -1.09886e-18 10.7587)
(-15.6182 0 8.39205)
(-11.2749 2.19795e-18 5.89231)
(-8.32483 2.45593e-18 4.26468)
(-4.40566 0 2.17754)
(-3.84846 2.65984e-18 2.02018)
(-2.30182 2.744e-18 0.753918)
(3.74755 2.33114e-18 -2.51665)
(33.3112 0 -2.29291)
(33.4679 1.70236e-20 -2.43155)
(33.7121 0 -2.70577)
(33.7858 0 -3.19756)
(33.4032 2.49147e-20 -3.86229)
(32.3944 2.45021e-20 -4.56245)
(30.7299 -2.53259e-20 -5.1479)
(28.4948 8.19796e-20 -5.51251)
(25.8463 0 -5.61465)
(22.9694 3.10311e-20 -5.46967)
(20.0399 -6.44415e-20 -5.12797)
(17.2 0 -4.65234)
(14.5471 6.85445e-20 -4.1019)
(12.1361 0 -3.52471)
(9.98834 7.02646e-20 -2.95431)
(8.10314 7.06848e-20 -2.41378)
(6.46604 7.04696e-20 -1.91576)
(5.05645 -6.99428e-20 -1.4666)
(3.85119 -1.37967e-19 -1.06829)
(2.82743 0 -0.719576)
(1.96338 1.3326e-19 -0.4184)
(1.23892 0 -0.160932)
(0.636135 0 0.0565357)
(0.1388 -1.24263e-19 0.237989)
(-0.267564 2.41385e-19 0.387288)
(-0.59573 0 0.508245)
(-0.856856 0 0.604245)
(-1.06071 0 0.678923)
(-1.216 -2.11765e-19 0.734918)
(-1.32958 2.04839e-19 0.775939)
(-1.40944 -1.88188e-22 0.803822)
(-1.46096 1.90274e-19 0.817651)
(-1.48936 -3.66365e-19 0.819159)
(-1.4981 1.76175e-19 0.815376)
(-1.49082 -1.69448e-19 0.805371)
(-1.4706 7.14586e-23 0.790289)
(-1.44031 0 0.771101)
(-1.40189 3.00338e-19 0.748473)
(-1.35729 2.88074e-19 0.723406)
(-1.30821 -2.76232e-19 0.696328)
(-1.25553 0 0.667526)
(-1.20022 2.53647e-19 0.637494)
(-1.14301 2.42784e-19 0.606459)
(-1.08439 2.32352e-19 0.574773)
(-1.02506 2.22315e-19 0.542842)
(-0.965585 0 0.511081)
(-0.906753 0 0.480099)
(-0.849657 -4.91667e-23 0.450596)
(-0.795423 0 0.423161)
(-0.745133 0 0.398323)
(-0.699735 -3.3833e-19 0.376368)
(-0.659582 3.22865e-19 0.357147)
(-0.624411 3.08002e-19 0.340103)
(-0.592968 1.3415e-23 0.323977)
(-0.562747 -2.06479e-23 0.306841)
(-0.529994 0 0.286076)
(-0.489619 0 0.258477)
(-0.435449 9.67245e-19 0.220616)
(-0.361523 0 0.169573)
(-0.263258 0 0.104074)
(-0.139782 -4.15694e-19 0.0254076)
(0.00578004 0 -0.0628691)
(0.165015 0 -0.154645)
(0.327393 7.08544e-19 -0.244283)
(0.483238 -6.70285e-19 -0.328045)
(0.629802 1.26688e-18 -0.407025)
(0.770575 0 -0.48526)
(0.916293 -5.64672e-19 -0.57042)
(1.07946 0 -0.669372)
(1.27246 0 -0.788793)
(1.50392 9.50932e-19 -0.929818)
(1.76619 0 -1.0819)
(2.0277 0 -1.21768)
(2.22145 0 -1.289)
(2.24436 0 -1.24737)
(2.04942 0 -1.08638)
(1.65043 7.00342e-19 -0.840145)
(1.20996 -2.27254e-22 -0.616447)
(0.912839 -6.39638e-19 -0.494711)
(0.767827 6.08913e-19 -0.434221)
(0.663994 0 -0.372827)
(0.586845 0 -0.33836)
(0.607842 0 -0.387439)
(0.903551 0 -0.558283)
(0.980525 0 -0.554531)
(0.926154 1.8603e-22 -0.484343)
(0.604275 0 -0.325783)
(0.774971 -7.28451e-19 -0.46818)
(0.674764 1.1997e-22 -0.540084)
(2.14595 0 -1.45702)
(2.23888 -1.16492e-18 -1.79989)
(6.94299 0 -4.44745)
(5.28276 8.82011e-19 -3.77831)
(14.052 -3.95172e-21 -8.39395)
(10.2325 0 -5.98395)
(15.4987 0 -8.70545)
(10.4874 0 -5.35431)
(10.904 0 -5.74448)
(5.09512 3.46339e-19 -1.87725)
(-0.536659 0 0.494153)
(1.32673 0 -0.629213)
(-2.51802 4.07269e-19 1.3703)
(2.37773 0 -1.76673)
(1.78422 -3.66761e-19 -1.01082)
(2.33678 3.38238e-19 -1.47236)
(3.08297 0 -1.78267)
(1.78079 1.07011e-18 -0.717218)
(-2.66914 -3.03388e-21 2.47488)
(-11.2635 3.24058e-19 7.88307)
(-18.9076 1.40945e-20 12.0798)
(-22.1051 -6.82658e-21 13.2953)
(-22.3428 1.86855e-19 12.8827)
(-19.9933 5.09366e-19 11.0284)
(-16.0301 7.82997e-19 8.44296)
(-11.6025 -2.05184e-18 5.91206)
(-8.63774 -2.29259e-18 4.29149)
(-4.513 -2.51343e-18 2.13277)
(-3.85278 -2.47557e-18 1.98519)
(-2.54459 0 0.721307)
(4.0248 0 -2.80465)
(33.1011 0 -2.38487)
(33.1765 1.84424e-20 -2.53751)
(33.3397 0 -2.75326)
(33.4885 0 -3.08815)
(33.4599 0 -3.55795)
(33.0947 0 -4.1183)
(32.2772 2.79478e-20 -4.6819)
(30.9574 -2.64884e-20 -5.15351)
(29.154 2.85164e-20 -5.46056)
(26.9426 -5.79753e-20 -5.56722)
(24.4373 6.05778e-20 -5.47317)
(21.7681 0 -5.20425)
(19.0616 -6.44352e-20 -4.80068)
(16.4255 0 -4.30747)
(13.9399 -6.60571e-20 -3.76585)
(11.6558 -6.59102e-20 -3.21078)
(9.5987 0 -2.66805)
(7.77487 0 -2.1553)
(6.17795 6.47519e-20 -1.6834)
(4.79427 0 -1.25764)
(3.60627 0 -0.880187)
(2.59477 -1.22302e-19 -0.550189)
(1.74067 0 -0.26556)
(1.02553 0 -0.0232085)
(0.432054 -1.13331e-19 0.180394)
(-0.0555595 0 0.349147)
(-0.451435 0 0.486808)
(-0.768286 0 0.597391)
(-1.01765 3.98048e-19 0.684118)
(-1.20929 0 0.750171)
(-1.35238 -1.74376e-22 0.799103)
(-1.45495 -1.98926e-22 0.834272)
(-1.52446 1.72107e-19 0.852699)
(-1.56597 -1.65572e-19 0.85864)
(-1.58454 3.18412e-19 0.856872)
(-1.58374 1.53058e-19 0.848628)
(-1.56783 0 0.834478)
(-1.53956 0 0.815394)
(-1.50159 2.70463e-19 0.792668)
(-1.45636 -2.59352e-19 0.766871)
(-1.40524 0 0.738417)
(-1.34962 0 0.70798)
(-1.29062 -5.59768e-23 0.675902)
(-1.22903 -2.18215e-19 0.64268)
(-1.16579 -2.08771e-19 0.608848)
(-1.1017 -3.99302e-19 0.574943)
(-1.03773 0 0.541715)
(-0.975185 -4.85703e-23 0.509998)
(-0.915394 0 0.480472)
(-0.859627 0 0.45374)
(-0.809015 3.1755e-19 0.430102)
(-0.764027 -3.03007e-19 0.409354)
(-0.724443 0 0.390825)
(-0.688949 2.75546e-19 0.373034)
(-0.654822 -2.00639e-23 0.353761)
(-0.617954 0 0.330018)
(-0.572754 0 0.298204)
(-0.512432 -9.07202e-19 0.254558)
(-0.430402 0 0.195985)
(-0.321523 0 0.121307)
(-0.184649 7.79562e-19 0.032232)
(-0.0229432 0 -0.0670833)
(0.154688 0 -0.169825)
(0.336873 -1.32839e-18 -0.269909)
(0.512915 6.28211e-19 -0.363584)
(0.679537 -5.93673e-19 -0.452537)
(0.8404 0 -0.541627)
(1.00715 5.29052e-19 -0.639589)
(1.19375 0 -0.754006)
(1.4137 -4.7134e-19 -0.892025)
(1.67742 -4.45324e-19 -1.05463)
(1.97825 0 -1.22995)
(2.2853 0 -1.38825)
(2.53031 7.57021e-19 -1.47711)
(2.59632 7.19887e-19 -1.44093)
(2.41921 0 -1.27018)
(1.99397 0 -0.99758)
(1.48782 -1.25251e-18 -0.740691)
(1.10901 5.98568e-19 -0.585807)
(0.887762 -1.13949e-18 -0.491808)
(0.732893 0 -0.403149)
(0.626583 0 -0.358507)
(0.639116 0 -0.41709)
(0.964903 0 -0.608139)
(1.06459 0 -0.603355)
(1.01904 1.80684e-22 -0.52369)
(0.662079 0 -0.351067)
(0.825637 0 -0.49977)
(0.667013 1.23219e-22 -0.580453)
(2.23948 0 -1.5629)
(2.18488 -1.0914e-18 -1.92846)