/*--------------------------------*- C++ -*----------------------------------*\
| =========                 |                                                 |
| \\      /  F ield         | OpenFOAM: The Open Source CFD Toolbox           |
|  \\    /   O peration     | Version:  2412                                  |
|   \\  /    A nd           | Website:  www.openfoam.com                      |
|    \\/     M anipulation  |                                                 |
\*---------------------------------------------------------------------------*/
FoamFile
{
    version     2.0;
    format      ascii;
    arch        "LSB;label=32;scalar=64";
    class       surfaceScalarField;
    location    "0.655";
    object      phi;
}
// * * * * * * * * * * * * * * * * * * * * * * * * * * * * * * * * * * * * * //

dimensions      [0 3 -1 0 0 0 0];

oriented        oriented;

internalField   nonuniform List<scalar> 
24930
(
0.0179637
0.0127503
-0.030718
0.0106027
0.00736104
0.00695332
0.00364933
0.00517771
0.00177561
0.0042058
0.000971907
0.00358295
0.000622849
0.00313706
0.000445894
0.00279754
0.000339514
0.00252835
0.00026919
0.00230843
0.000219928
0.00212461
0.000183819
0.00196817
0.00015644
0.00183306
0.00013511
0.00171493
0.000118127
0.00161057
0.000104354
0.00151757
9.30084e-05
0.00143403
8.35358e-05
0.00135849
7.55332e-05
0.00128979
6.87023e-05
0.00122697
6.2818e-05
0.00116926
5.77076e-05
0.00111603
5.32368e-05
0.00106673
4.92998e-05
0.00102091
4.58122e-05
0.000978206
4.27058e-05
0.000938279
3.99254e-05
0.000900852
3.74256e-05
0.000865682
3.51689e-05
0.000832556
3.31238e-05
0.000801291
3.12642e-05
0.000771721
2.95679e-05
0.000743704
2.8016e-05
0.00071711
2.65925e-05
0.000691825
2.52835e-05
0.000667746
2.40772e-05
0.000644782
2.29631e-05
0.000622848
2.19323e-05
0.00060187
2.09772e-05
0.000581779
2.00905e-05
0.000562511
1.92667e-05
0.000544011
1.84998e-05
0.000526224
1.7786e-05
0.000509104
1.712e-05
0.000492604
1.64996e-05
0.000476684
1.59196e-05
0.000461304
1.53793e-05
0.000446431
1.48734e-05
0.000432027
1.4403e-05
0.000418066
1.39616e-05
0.000404513
1.35527e-05
0.000391344
1.31682e-05
0.00037853
1.28143e-05
0.000366049
1.24802e-05
0.000353873
1.21761e-05
0.000341986
1.18872e-05
0.000330357
1.16288e-05
0.000318976
1.13806e-05
0.000307811
1.11648e-05
0.000296858
1.09533e-05
0.00028608
1.07776e-05
0.000275481
1.05994e-05
0.000265019
1.04618e-05
0.000254706
1.03133e-05
0.000244494
1.02124e-05
0.000234404
1.00903e-05
0.000224379
1.00249e-05
0.000214453
9.92554e-06
0.000204559
9.89439e-06
0.000194745
9.81397e-06
0.000184929
9.81561e-06
0.000175179
9.74996e-06
0.000165397
9.78217e-06
0.00015567
9.72671e-06
0.000145884
9.78608e-06
0.000136149
9.73532e-06
0.000126332
9.81653e-06
0.000116567
9.76473e-06
0.000106706
9.86104e-06
9.69031e-05
9.80249e-06
8.69971e-05
9.90581e-06
7.71628e-05
9.83424e-06
6.72278e-05
9.93494e-06
5.73833e-05
9.84464e-06
4.74481e-05
9.93526e-06
3.76288e-05
9.81938e-06
2.77317e-05
9.89714e-06
1.7985e-05
9.74668e-06
8.16826e-06
9.81662e-06
-1.45727e-06
9.62548e-06
-1.11757e-05
9.71815e-06
-2.06339e-05
9.45837e-06
-3.02751e-05
9.64155e-06
-3.95458e-05
9.2727e-06
-4.91901e-05
9.64644e-06
-5.8312e-05
9.12406e-06
-6.81041e-05
9.7918e-06
-7.71183e-05
9.01291e-06
-8.73896e-05
1.02687e-05
-9.65502e-05
9.15883e-06
-0.000108584
1.2034e-05
-0.000117538
8.95654e-06
-0.000127836
1.03018e-05
-0.000145061
1.72263e-05
-0.000143294
-1.75888e-06
-0.0001459
2.59546e-06
-0.000225318
7.94143e-05
-0.000229174
3.84057e-06
-0.000147483
-8.16865e-05
-0.000385941
0.000238499
-0.000572334
0.000186411
-0.000133967
-0.000438422
-9.05618e-06
-0.000124952
-0.000592447
0.000583392
-0.00102709
0.00043468
-0.000752318
-0.000274742
-0.000191471
-0.000560857
0.000221039
-0.000412525
0.000478877
-0.000257844
0.000522982
-4.41049e-05
3.87383e-07
0.033671
0.0163125
-0.0372332
0.0277383
0.0132937
0.022189
0.00919864
0.0179172
0.00604742
0.0148726
0.00401652
0.012713
0.00278238
0.0111265
0.00203237
0.00990991
0.00155615
0.00894297
0.00123613
0.00815284
0.00101006
0.00749277
0.000843885
0.00693149
0.000717719
0.00644723
0.000619374
0.00602431
0.000541043
0.00565115
0.000477514
0.00531897
0.000425187
0.00502099
0.000381508
0.0047519
0.000344621
0.00450746
0.000313147
0.00428423
0.000286049
0.0040794
0.000262526
0.00389068
0.000241959
0.00371612
0.000223858
0.0035541
0.000207832
0.00340323
0.000193566
0.00326235
0.000180805
0.00313044
0.000169338
0.00300661
0.000158991
0.00289011
0.00014962
0.00278027
0.000141104
0.0026765
0.000133339
0.00257827
0.000126239
0.00248513
0.000119729
0.00239667
0.000113745
0.00231251
0.000108233
0.00223232
0.000103145
0.00215581
9.84387e-05
0.00208271
9.40791e-05
0.00201277
9.00334e-05
0.00194576
8.6275e-05
0.00188148
8.27779e-05
0.00181974
7.95225e-05
0.00176037
7.64867e-05
0.00170321
7.36572e-05
0.00164812
7.10142e-05
0.00159495
6.85498e-05
0.00154357
6.6245e-05
0.00149388
6.40977e-05
0.00144575
6.20873e-05
0.00139909
6.02187e-05
0.00135379
5.84672e-05
0.00130975
5.68466e-05
0.00126691
5.53253e-05
0.00122516
5.39281e-05
0.00118443
5.26132e-05
0.00114464
5.14199e-05
0.00110573
5.02916e-05
0.00106761
4.92865e-05
0.00103023
4.83277e-05
0.000993511
4.74985e-05
0.000957416
4.66942e-05
0.000921847
4.60306e-05
0.000886793
4.53669e-05
0.000852145
4.48607e-05
0.000817912
4.43238e-05
0.000783969
4.39676e-05
0.000750351
4.35435e-05
0.000716915
4.33302e-05
0.000683726
4.30037e-05
0.000650616
4.29252e-05
0.000617687
4.26795e-05
0.000584745
4.27243e-05
0.000551931
4.25409e-05
0.000519024
4.26934e-05
0.00048621
4.2549e-05
0.00045324
4.27871e-05
0.000420348
4.26563e-05
0.000387258
4.29512e-05
0.000354254
4.28065e-05
0.000321034
4.31249e-05
0.000287932
4.29364e-05
0.000254627
4.32396e-05
0.00022149
4.29804e-05
0.00018819
4.32351e-05
0.000155134
4.28761e-05
0.000121969
4.30621e-05
8.9143e-05
4.2573e-05
5.62655e-05
4.26949e-05
2.38355e-05
4.20564e-05
-8.58038e-06
4.21351e-05
-4.05975e-05
4.14762e-05
-7.27154e-05
4.17602e-05
-0.00010409
4.06464e-05
-0.000136036
4.15929e-05
-0.000166958
4.00441e-05
-0.000199135
4.19691e-05
-0.000229744
3.96215e-05
-0.000263221
4.37465e-05
-0.000294212
4.01501e-05
-0.00033327
5.10908e-05
-0.000361776
3.74617e-05
-0.000398237
4.67612e-05
-0.00044992
6.89094e-05
-0.000443987
-7.68618e-06
-0.00047165
3.02687e-05
-0.000713632
0.000321395
-0.000693675
-1.61384e-05
-0.000504466
-0.000270902
-0.00125468
0.00098869
-0.00168024
0.000611957
-0.000371476
-0.00174716
-0.000125298
-0.000371109
-0.00192584
0.00238393
-0.00308925
0.00159807
-0.00214252
-0.00122148
-0.000435803
-0.00226757
0.000826164
-0.00167448
0.00158703
-0.00101871
0.00170063
-0.000157699
-2.04085e-05
0.041439
0.0160068
-0.0411332
0.0391516
0.0155811
0.035225
0.0131252
0.030942
0.0103305
0.0270301
0.00792835
0.0237436
0.00606893
0.0210711
0.00470487
0.0189038
0.00372342
0.0171273
0.00301269
0.0156489
0.00248843
0.0143998
0.00209295
0.0133298
0.00178775
0.0124019
0.00154724
0.0115888
0.0013542
0.0108695
0.00119676
0.0102282
0.00106653
0.00965224
0.000957464
0.00913173
0.00086513
0.00865867
0.000786198
0.00822659
0.000718134
0.00783013
0.000658985
0.00746486
0.000607221
0.00712709
0.000561631
0.00681367
0.000521246
0.00652195
0.000485283
0.00624965
0.000453104
0.0059948
0.000424182
0.00575571
0.000398083
0.00553088
0.000374444
0.00531902
0.000352959
0.00511899
0.000333371
0.00492976
0.00031546
0.00475045
0.000299039
0.00458024
0.000283947
0.00441843
0.000270045
0.00426436
0.000257212
0.00411745
0.000245345
0.00397718
0.000234352
0.00384306
0.000224151
0.00371466
0.000214675
0.00359157
0.000205859
0.00347344
0.000197651
0.00335993
0.000189999
0.00325072
0.000182864
0.00314553
0.000176201
0.0030441
0.000169986
0.00294617
0.000164175
0.00285151
0.000158757
0.00275991
0.000153687
0.00267116
0.000148968
0.00258507
0.00014455
0.00250147
0.000140452
0.00242018
0.000136614
0.00234103
0.000133073
0.00226389
0.000129754
0.00218859
0.000126721
0.00211501
0.000123872
0.00204299
0.000121305
0.00197243
0.000118885
0.00190318
0.000116752
0.00183515
0.000114723
0.00176818
0.000112997
0.00170222
0.000111327
0.0016371
0.000109985
0.00157278
0.000108641
0.00150909
0.000107661
0.00144602
0.000106611
0.00138338
0.000105976
0.00132119
0.000105184
0.00125925
0.00010487
0.00119763
0.000104299
0.00113608
0.000104277
0.00107474
0.000103881
0.00101332
0.000104112
0.000952034
0.000103836
0.000890552
0.000104268
0.000829159
0.000104049
0.000767496
0.000104614
0.000705919
0.000104383
0.000644042
0.000105001
0.000582297
0.000104681
0.000520273
0.000105263
0.00045847
0.000104784
0.000396459
0.000105247
0.0003348
0.000104535
0.000273039
0.000104824
0.000211801
0.000103812
0.000150569
0.000103928
9.00512e-05
0.000102576
2.96071e-05
0.00010258
-2.99921e-05
0.000101076
-8.96537e-05
0.000101422
-0.0001482
9.91924e-05
-0.000207361
0.000100753
-0.000265047
9.77288e-05
-0.000324341
0.000101263
-0.000381402
9.66818e-05
-0.000442716
0.00010506
-0.000500276
9.77102e-05
-0.000571097
0.000121912
-0.000622724
8.90891e-05
-0.000691534
0.000115572
-0.000780214
0.000157591
-0.000772673
-1.52239e-05
-0.000842342
9.99405e-05
-0.00125502
0.000734071
-0.00119406
-7.71038e-05
-0.000936256
-0.000528704
-0.00223812
0.00229055
-0.00281167
0.0011855
-0.00059692
-0.00396192
-0.000360475
-0.000607535
-0.00345077
0.00547423
-0.00522452
0.0033718
-0.00344509
-0.00300091
-0.000510006
-0.00520266
0.00165005
-0.00383452
0.00292674
-0.0022954
0.00309444
-0.000325392
-8.05962e-05
0.0459007
0.0147066
-0.0446005
0.0459851
0.0154967
0.0444084
0.0147018
0.0416876
0.0130513
0.0384471
0.0111688
0.0351454
0.00937066
0.0320497
0.00780051
0.0292745
0.00649865
0.0268386
0.00544864
0.0247159
0.0046111
0.0228654
0.00394339
0.0212453
0.00340783
0.0198185
0.00297413
0.0185536
0.00261905
0.0174252
0.00232513
0.0164125
0.00207925
0.0154984
0.00187152
0.0146692
0.00169442
0.0139132
0.00154217
0.013221
0.00141029
0.0125848
0.00129525
0.0119977
0.00119426
0.0114543
0.0011051
0.0109496
0.00102594
0.0104795
0.000955331
0.0100406
0.000892053
0.00962963
0.00083511
0.00924404
0.000783671
0.00888144
0.000737037
0.00853977
0.000694622
0.00821721
0.000655926
0.00791215
0.000620524
0.00762313
0.000588051
0.00734888
0.000558195
0.00708824
0.000530683
0.00684017
0.000505281
0.00660373
0.000481782
0.00637807
0.00046001
0.00616241
0.000439803
0.00595606
0.000421028
0.00575836
0.000403557
0.00556872
0.000387288
0.0053866
0.000372118
0.00521149
0.00035797
0.00504294
0.000344757
0.0048805
0.000332426
0.00472377
0.000320899
0.00457239
0.000310142
0.00442599
0.000300079
0.00428426
0.000290702
0.00414688
0.000281929
0.00401356
0.000273775
0.00388402
0.000266147
0.003758
0.000259091
0.00363527
0.00025249
0.00351556
0.00024643
0.00339867
0.000240759
0.00328436
0.000235614
0.00317246
0.00023079
0.00306272
0.000226493
0.00295499
0.000222446
0.00284905
0.000218942
0.00274477
0.000215608
0.00264191
0.000212848
0.00254038
0.000210166
0.00243993
0.000208109
0.00234053
0.000206018
0.00224188
0.000204624
0.002144
0.000203059
0.00204659
0.000202281
0.00194972
0.00020117
0.00185305
0.000200951
0.00175672
0.000200209
0.00166036
0.000200475
0.0015642
0.000199998
0.00146782
0.000200647
0.00137155
0.000200313
0.00127495
0.000201217
0.00117844
0.00020089
0.00108155
0.000201899
0.000984797
0.000201428
0.000887686
0.000202373
0.000790855
0.000201615
0.000693765
0.000202336
0.000597155
0.000201146
0.000500455
0.000201525
0.000404494
0.000199774
0.000308626
0.000199796
0.000213788
0.000197415
0.000119154
0.000197215
2.58149e-05
0.000194416
-6.74228e-05
0.00019466
-0.000159148
0.000190918
-0.000251402
0.000193006
-0.000341618
0.000187944
-0.000433729
0.000193373
-0.000522775
0.000185726
-0.000617499
0.000199784
-0.000706954
0.000187165
-0.000814943
0.000229901
-0.000894181
0.000168327
-0.00100147
0.000222863
-0.00113051
0.000286631
-0.00112636
-1.93724e-05
-0.00125343
0.000227005
-0.00184122
0.00132186
-0.00172919
-0.000189123
-0.00144189
-0.000816008
-0.00331697
0.00416562
-0.00394892
0.00181744
-0.000815161
-0.00709568
-0.000726608
-0.000696077
-0.00513613
0.00988376
-0.00737002
0.00560568
-0.00459453
-0.0057764
-0.000359713
-0.00943747
0.00273237
-0.00692659
0.00453571
-0.00409875
0.00474253
-0.000532204
-0.000198971
0.0493669
0.013512
-0.0481723
0.0503312
0.0145323
0.0503507
0.0146823
0.0493307
0.0140713
0.0474887
0.0130108
0.045117
0.0117423
0.0424871
0.0104304
0.0398053
0.00918048
0.0372062
0.00804774
0.0347643
0.00705305
0.0325116
0.00619602
0.0304543
0.00546519
0.0285838
0.00484458
0.0268853
0.00431755
0.0253417
0.00386875
0.0239361
0.00348488
0.0226528
0.00315481
0.0214778
0.0028694
0.0203988
0.00262121
0.0194049
0.00240418
0.0184867
0.00221339
0.0176362
0.0020448
0.0168461
0.00189513
0.0161104
0.00176163
0.0154237
0.00164207
0.0147812
0.00153456
0.0141788
0.00143753
0.0136128
0.00134965
0.01308
0.00126981
0.0125776
0.00119705
0.0121029
0.00113056
0.0116538
0.00106964
0.0112282
0.0010137
0.0108242
0.000962194
0.0104402
0.00091469
0.0100746
0.000870789
0.00972628
0.000830146
0.00939382
0.00079246
0.00907616
0.000757463
0.00877226
0.000724924
0.00848119
0.000694631
0.00820207
0.000666405
0.00793411
0.000640075
0.00767658
0.000615505
0.00742878
0.000592552
0.00719009
0.000571117
0.00695991
0.000551073
0.0067377
0.000532356
0.00652293
0.000514845
0.00631512
0.000498511
0.00611382
0.000483228
0.00591859
0.000469005
0.00572904
0.000455703
0.00554475
0.000443375
0.00536539
0.000431849
0.00519058
0.000421239
0.00502002
0.000411323
0.00485334
0.000402287
0.00469029
0.00039384
0.00453053
0.000386261
0.00437381
0.000379161
0.00421981
0.000372941
0.00406834
0.000367081
0.00391905
0.000362137
0.0037718
0.000357414
0.00362624
0.000353671
0.00348228
0.000349983
0.00333953
0.000347369
0.00319798
0.000344609
0.00305722
0.000343046
0.00291729
0.000341094
0.00277776
0.000340483
0.00263877
0.0003392
0.00249983
0.000339414
0.0023612
0.000338624
0.00222236
0.000339494
0.00208368
0.000338992
0.00194459
0.000340303
0.00180562
0.000339857
0.00166616
0.00034136
0.00152688
0.000340709
0.00138714
0.000342118
0.00124774
0.00034101
0.00110802
0.000342052
0.000968937
0.000340232
0.000829767
0.000340695
0.000691599
0.000337942
0.000553622
0.000337775
0.000417068
0.00033397
0.000280885
0.000333398
0.000146531
0.000328771
1.26848e-05
0.000328507
-0.000119405
0.000323008
-0.000251734
0.000325335
-0.00038125
0.00031746
-0.000512909
0.000325031
-0.00064039
0.000313207
-0.000775026
0.000334419
-0.000902484
0.000314622
-0.00105377
0.000381186
-0.00116591
0.000280469
-0.00131845
0.000375405
-0.00149161
0.00045979
-0.00149784
-1.31459e-05
-0.00169746
0.000426628
-0.00246134
0.00208574
-0.00229266
-0.000357807
-0.00201642
-0.00109224
-0.00446745
0.00661664
-0.00506658
0.00241655
-0.00102935
-0.0111329
-0.00122516
-0.00050027
-0.00693271
0.0155913
-0.00943968
0.00811262
-0.00551048
-0.00970561
7.24374e-05
-0.0150204
0.00412088
-0.010975
0.00645668
-0.00643454
0.006689
-0.000764519
-0.000399734
0.0528255
0.0126137
-0.0519272
0.0538542
0.0135036
0.0545387
0.0139979
0.0546089
0.0140011
0.0540121
0.0136076
0.0528176
0.0129368
0.0511546
0.0120935
0.0491692
0.0111659
0.046996
0.0102209
0.0447454
0.00930362
0.0424996
0.00844182
0.0403146
0.00765021
0.0382249
0.00693428
0.036249
0.00629344
0.0343943
0.00572345
0.032661
0.00521817
0.0310451
0.00477078
0.02954
0.00437446
0.0281384
0.00402286
0.0268323
0.00371025
0.0256141
0.00343157
0.0244765
0.0031824
0.0234127
0.00295896
0.0224163
0.00275796
0.0214818
0.00257661
0.0206038
0.00241251
0.0197778
0.00226358
0.0189994
0.00212806
0.0182648
0.00200441
0.0175705
0.00189131
0.0169134
0.00178762
0.0162907
0.00169235
0.0156998
0.00160462
0.0151383
0.00152369
0.0146041
0.00144889
0.0140953
0.00137963
0.01361
0.00131541
0.0131467
0.00125578
0.0127038
0.00120033
0.01228
0.0011487
0.011874
0.00110059
0.0114847
0.00105572
0.011111
0.00101382
0.0107518
0.000974685
0.0104063
0.000938096
0.0100735
0.000903898
0.00975266
0.000871897
0.00944302
0.000841988
0.00914388
0.00081399
0.00885454
0.000787847
0.00857439
0.000763376
0.00830282
0.000740574
0.00803928
0.000719242
0.00778322
0.00069944
0.00753414
0.000680928
0.00729153
0.000663845
0.00705497
0.00064789
0.00682395
0.0006333
0.00659811
0.00061968
0.00637698
0.000607395
0.00616022
0.000595921
0.00594737
0.000585786
0.00573817
0.000576289
0.00553213
0.000568169
0.00532906
0.000560491
0.00512846
0.000554267
0.00493019
0.000548252
0.00473375
0.00054381
0.00453907
0.000539293
0.00434561
0.000536508
0.00415339
0.000533307
0.00396185
0.000532025
0.00377113
0.000529926
0.00358059
0.00052995
0.00339053
0.000528683
0.00320027
0.000529752
0.00301027
0.000528998
0.00281979
0.000530782
0.00262947
0.000530177
0.00243854
0.000532289
0.00224783
0.000531419
0.00205653
0.000533416
0.00186566
0.000531876
0.00167439
0.000533325
0.00148392
0.0005307
0.00129337
0.000531249
0.00110413
0.000527182
0.00091519
0.000526717
0.000728152
0.00052101
0.000541697
0.000519854
0.000357734
0.000512736
0.000174356
0.000511886
-6.0529e-06
0.000503417
-0.000186659
0.00050594
-0.000363504
0.000494306
-0.000542599
0.000504126
-0.00071609
0.000486696
-0.000898169
0.000516498
-0.00107069
0.000487146
-0.00127221
0.000582706
-0.00142344
0.000431698
-0.00162865
0.000580609
-0.00185024
0.000681386
-0.00187574
1.23517e-05
-0.00216195
0.000712838
-0.00309949
0.00302327
-0.00287351
-0.00058378
-0.00264756
-0.00131818
-0.00565625
0.00962533
-0.00613539
0.00289566
-0.00124055
-0.0160277
-0.00184363
0.000102907
-0.00876872
0.0225164
-0.0113284
0.0106722
-0.00610259
-0.0149314
0.000876029
-0.021999
0.00587073
-0.0159697
0.00874077
-0.00930457
0.00898789
-0.00101164
-0.000712765
0.056546
0.0119266
-0.0558589
0.0573998
0.0126498
0.0581969
0.0132008
0.0587244
0.0134737
0.0588602
0.0134717
0.0585587
0.0132384
0.0578291
0.012823
0.0567193
0.0122757
0.0552976
0.0116426
0.0536394
0.0109619
0.0518179
0.0102633
0.0498983
0.00956973
0.0479353
0.00889729
0.0459718
0.00825698
0.0440397
0.00765553
0.0421615
0.00709634
0.040352
0.00658036
0.0386196
0.0061068
0.0369688
0.00567374
0.0354004
0.00527858
0.0339136
0.0049184
0.0325058
0.0045902
0.0311737
0.00429104
0.0299136
0.00401811
0.0287213
0.00376884
0.027593
0.00354086
0.0265245
0.00333204
0.0255121
0.00314046
0.0245521
0.00296442
0.023641
0.00280239
0.0227756
0.002653
0.0219529
0.00251506
0.02117
0.00238749
0.0204244
0.00226933
0.0197136
0.00215973
0.0190353
0.00205794
0.0183874
0.00196328
0.017768
0.00187515
0.0171753
0.00179301
0.0166076
0.00171639
0.0160634
0.00164483
0.0155411
0.00157798
0.0150395
0.00151545
0.0145572
0.00145696
0.0140931
0.00140219
0.0136461
0.00135094
0.0132151
0.00130292
0.0127991
0.00125798
0.0123972
0.00121587
0.0120085
0.0011765
0.0116323
0.00113962
0.0112676
0.0011052
0.0109139
0.00107298
0.0105703
0.00104302
0.0102362
0.001015
0.009911
0.000989089
0.009594
0.000964884
0.00928462
0.000942685
0.00898233
0.000921972
0.00868651
0.00090321
0.00839672
0.000885712
0.00811235
0.000870156
0.00783301
0.000855627
0.0075581
0.000843078
0.00728731
0.000831288
0.00702
0.00082157
0.00675596
0.000812292
0.00649454
0.000805235
0.0062356
0.000798233
0.00597845
0.000793653
0.0057231
0.000788664
0.00546879
0.000786336
0.00521566
0.00078305
0.00496293
0.000782687
0.0047109
0.000780713
0.00445871
0.000781933
0.00420691
0.000780804
0.00395456
0.000783126
0.00370244
0.000782303
0.00344956
0.000785161
0.00319695
0.000784029
0.0029436
0.000786768
0.00269077
0.000784708
0.00243741
0.000786679
0.00218506
0.000783056
0.0019326
0.00078371
0.00168181
0.000777969
0.00143144
0.000777089
0.00118354
0.000768905
0.000936487
0.000766913
0.000692742
0.000756482
0.000449899
0.000754729
0.000211158
0.000742159
-2.71061e-05
0.000744205
-0.000261048
0.000728247
-0.000496832
0.000739909
-0.000725199
0.000715063
-0.000963457
0.000754755
-0.00118918
0.000712869
-0.00144881
0.000842339
-0.00164631
0.000629197
-0.00191227
0.000846563
-0.00218726
0.000956381
-0.00224272
6.7809e-05
-0.00262762
0.00109774
-0.00373345
0.0041291
-0.00345448
-0.000862757
-0.00331317
-0.00145948
-0.00683981
0.013152
-0.00712255
0.00317837
-0.0014434
-0.0217069
-0.00254979
0.00120927
-0.0105484
0.0305151
-0.0129129
0.0130367
-0.00627008
-0.0215742
0.00210616
-0.0303752
0.00804792
-0.0219115
0.0114504
-0.012707
0.0117055
-0.00126678
-0.00117375
0.0605518
0.0113633
-0.0599885
0.0612364
0.0119652
0.0619515
0.0124858
0.0625741
0.012851
0.0630068
0.013039
0.0631857
0.0130594
0.0630753
0.0129335
0.062665
0.0126859
0.0619653
0.0123424
0.0610006
0.0119266
0.0598053
0.0114586
0.0584191
0.010956
0.056883
0.0104333
0.0552372
0.00990283
0.0535183
0.00937436
0.0517589
0.0088558
0.049986
0.00835318
0.0482219
0.00787091
0.0464837
0.00741194
0.0447843
0.00697803
0.0431327
0.00656995
0.0415352
0.0061877
0.0399955
0.00583071
0.0385156
0.00549803
0.037096
0.00518846
0.0357362
0.00490065
0.034435
0.00463319
0.0331908
0.00438467
0.0320015
0.0041537
0.0308649
0.00393898
0.0297787
0.00373925
0.0287404
0.00355335
0.0277477
0.0033802
0.0267982
0.00321881
0.0258897
0.00306826
0.0250199
0.00292772
0.0241867
0.00279641
0.0233882
0.00267366
0.0226224
0.00255881
0.0218875
0.0024513
0.0211818
0.00235059
0.0205035
0.00225622
0.0198512
0.00216773
0.0192234
0.00208475
0.0186187
0.00200689
0.0180358
0.00193386
0.0174734
0.00186531
0.0169304
0.00180104
0.0164055
0.00174072
0.0158978
0.00168422
0.0154062
0.00163121
0.0149298
0.00158166
0.0144675
0.00153522
0.0140186
0.00149195
0.0135822
0.00145145
0.0131573
0.00141391
0.0127434
0.00137882
0.0123395
0.00134655
0.0119451
0.00131644
0.0115592
0.00128906
0.0111814
0.00126354
0.0108108
0.00124073
0.010447
0.00121946
0.0100891
0.00120094
0.00973679
0.00118361
0.00938921
0.00116914
0.00904606
0.00115544
0.00870651
0.00114478
0.00837036
0.00113438
0.00803674
0.00112728
0.00770558
0.00111982
0.00737596
0.00111596
0.007048
0.00111101
0.00672069
0.00110999
0.00639439
0.00110701
0.00606802
0.00110831
0.00574218
0.00110664
0.00541573
0.00110957
0.00508957
0.00110846
0.00476249
0.00111224
0.00443572
0.0011108
0.004108
0.00111448
0.00378089
0.00111182
0.00345309
0.00111448
0.0031265
0.00110965
0.00279974
0.00111047
0.00247507
0.00110265
0.00215092
0.00110124
0.00182992
0.0010899
0.00151006
0.00108678
0.00119451
0.00107203
0.000880291
0.00106895
0.000571557
0.00105089
0.000263393
0.00105237
-3.80424e-05
0.00102968
-0.000341241
0.00104311
-0.000634929
0.00100875
-0.00093947
0.0010593
-0.00122778
0.00100118
-0.00155448
0.00116904
-0.00180656
0.000881267
-0.00214204
0.00118205
-0.00247623
0.00129057
-0.00257365
0.00016524
-0.00306652
0.00159061
-0.004333
0.00539558
-0.00400947
-0.0011863
-0.00397872
-0.00149021
-0.0079634
0.0171366
-0.00798999
0.00320493
-0.00162122
-0.0280757
-0.00328788
0.00287598
-0.0121517
0.0393789
-0.0140537
0.0149387
-0.0059022
-0.0297258
0.00385374
-0.0401312
0.0107321
-0.0287898
0.0146622
-0.0166372
0.0149234
-0.00152791
-0.00182362
0.0648364
0.0108787
-0.0643518
0.0654021
0.0113996
0.0660101
0.0118778
0.0665953
0.0122658
0.0670952
0.0125392
0.0674612
0.0126934
0.067658
0.0127367
0.0676617
0.0126822
0.0674591
0.012545
0.0670461
0.0123395
0.0664264
0.0120783
0.0656104
0.0117719
0.064614
0.0114297
0.063457
0.0110598
0.0621621
0.0106693
0.0607532
0.0102647
0.0592546
0.00985177
0.0576897
0.0094358
0.0560802
0.00902145
0.0544454
0.00861275
0.0528023
0.00821307
0.051165
0.00782507
0.0495449
0.00745078
0.0479513
0.00709165
0.0463911
0.00674857
0.0448698
0.00642202
0.0433908
0.00611212
0.0419568
0.0058187
0.0405691
0.0055414
0.0392284
0.0052797
0.0379346
0.00503299
0.0366874
0.00480058
0.0354858
0.00458176
0.0343288
0.00437581
0.0332151
0.00418202
0.0321431
0.00399967
0.0311114
0.00382809
0.0301184
0.00366665
0.0291625
0.00351472
0.0282421
0.00337174
0.0273555
0.00323715
0.0265013
0.00311047
0.0256778
0.0029912
0.0248836
0.00287895
0.0241172
0.00277326
0.0233773
0.00267381
0.0226624
0.00258019
0.0219713
0.00249217
0.0213027
0.00240935
0.0206553
0.00233159
0.020028
0.00225848
0.0194197
0.00218998
0.0188292
0.00212566
0.0182556
0.0020656
0.0176978
0.00200928
0.0171547
0.00195697
0.0166255
0.001908
0.0161092
0.00186285
0.015605
0.00182067
0.0151119
0.0017822
0.0146291
0.00174631
0.0141557
0.00171411
0.0136911
0.00168408
0.0132343
0.00165778
0.0127847
0.00163321
0.0123413
0.00161249
0.0119038
0.00159296
0.0114711
0.00157752
0.0110428
0.00156261
0.010618
0.0015521
0.0101965
0.00154133
0.00977713
0.00153534
0.00936
0.00152815
0.00894384
0.00152615
0.00852906
0.00152179
0.0081143
0.00152307
0.00770026
0.00152068
0.00728552
0.00152431
0.00687114
0.00152285
0.00645562
0.00152775
0.00604043
0.00152599
0.00562401
0.0015309
0.00520825
0.00152758
0.00479157
0.00153116
0.00437628
0.00152494
0.00396072
0.00152603
0.00354767
0.0015157
0.00313524
0.00151367
0.00272673
0.00149841
0.00231969
0.00149382
0.00191817
0.00147356
0.00151852
0.0014686
0.00112606
0.00144335
0.000734704
0.00144372
0.000352629
0.00141176
-3.00338e-05
0.00142577
-0.000402036
0.00138075
-0.00078451
0.00144177
-0.00114629
0.00136296
-0.00155024
0.001573
-0.0018664
0.00119743
-0.00228096
0.00159661
-0.00268089
0.00169049
-0.00283316
0.000317512
-0.00343977
0.00219723
-0.00485764
0.00681344
-0.00450041
-0.00154354
-0.00459454
-0.00139607
-0.00896031
0.0215024
-0.00869082
0.00293539
-0.0017395
-0.035027
-0.00397388
0.00511043
-0.0134346
0.0488396
-0.0145968
0.0161008
-0.00487689
-0.0394457
0.00622069
-0.0512287
0.0140203
-0.0365894
0.0184714
-0.0210882
0.0187415
-0.001798
-0.00270763
0.0694089
0.0104511
-0.0689813
0.0698926
0.0109159
0.0704134
0.011357
0.0709357
0.0117435
0.0714197
0.0120552
0.0718316
0.0122815
0.0721456
0.0124227
0.0723422
0.0124856
0.0724073
0.0124799
0.0723309
0.0124159
0.0721063
0.012303
0.0717295
0.0121487
0.0712
0.0119592
0.0705201
0.0117397
0.0696953
0.0114941
0.068734
0.011226
0.0676474
0.0109384
0.0664488
0.0106344
0.065153
0.0103172
0.0637759
0.00998983
0.0623335
0.00965549
0.0608413
0.00931727
0.059314
0.00897807
0.0577651
0.00864058
0.0562065
0.00830716
0.0546487
0.00797983
0.0531005
0.00766027
0.0515694
0.0073498
0.0500614
0.00704943
0.0485812
0.00675988
0.0471326
0.00648162
0.0457182
0.0062149
0.0443402
0.0059598
0.0429998
0.00571626
0.0416976
0.00548413
0.0404341
0.00526316
0.0392092
0.00505303
0.0380224
0.0048534
0.0368733
0.0046639
0.0357609
0.00448414
0.0346843
0.0043137
0.0336426
0.00415221
0.0326345
0.00399926
0.031659
0.0038545
0.0307147
0.00371751
0.0298005
0.003588
0.0289151
0.00346557
0.0280573
0.00334999
0.0272258
0.00324084
0.0264194
0.00313799
0.0256369
0.00304099
0.024877
0.00294983
0.0241387
0.00286399
0.0234207
0.00278361
0.0227219
0.00270806
0.0220412
0.00263768
0.0213775
0.00257167
0.0207298
0.00251062
0.0200969
0.0024535
0.0194779
0.00240123
0.0188718
0.00235242
0.0182775
0.00230843
0.0176941
0.0022674
0.0171207
0.00223127
0.0165563
0.00219753
0.016
0.00216886
0.015451
0.0021419
0.0149082
0.00212031
0.0143712
0.00209962
0.0138386
0.00208469
0.0133103
0.00206964
0.0127848
0.00206085
0.0122622
0.00205073
0.011741
0.00204738
0.0112215
0.00204124
0.0107022
0.00204242
0.0101838
0.0020391
0.00966449
0.0020436
0.00914561
0.00204173
0.00862527
0.00204809
0.00810522
0.00204604
0.00758355
0.00205257
0.00706253
0.00204859
0.00654022
0.00205347
0.00601946
0.00204571
0.00549819
0.00204729
0.00497987
0.00203402
0.0044622
0.00203135
0.00394931
0.0020113
0.00343823
0.0020049
0.00293408
0.00197771
0.00243247
0.00197022
0.00194013
0.00193569
0.00144971
0.00193414
0.000971558
0.00188991
0.000492673
0.00190465
2.96441e-05
0.00184378
-0.000443703
0.00191512
-0.000891683
0.00181094
-0.00138451
0.00206582
-0.00177557
0.00158849
-0.00227962
0.00210065
-0.00275254
0.00216342
-0.00297261
0.000537588
-0.00369483
0.00291945
-0.00525372
0.00837233
-0.00487354
-0.00192373
-0.0050929
-0.0011767
-0.00975018
0.0261597
-0.00916389
0.00234903
-0.00173793
-0.042453
-0.00449247
0.00786502
-0.0142312
0.0585783
-0.0143763
0.016246
-0.00305744
-0.0507646
0.00932596
-0.0636121
0.0180312
-0.0452947
0.0229949
-0.0260519
0.0232818
-0.00208488
-0.00387379
0.0742888
0.0100681
-0.0739058
0.0747132
0.0104914
0.0751681
0.0109021
0.0756326
0.011279
0.076081
0.0116068
0.0764885
0.0118739
0.0768355
0.0120757
0.0771073
0.0122138
0.0772936
0.0122936
0.0773869
0.0123225
0.0773817
0.0123082
0.0772727
0.0122577
0.0770557
0.0121763
0.0767267
0.0120686
0.0762828
0.0119381
0.075722
0.0117868
0.075044
0.0116163
0.0742507
0.0114278
0.0733459
0.011222
0.0723356
0.0110001
0.0712277
0.0107634
0.0700316
0.0105133
0.068758
0.0102517
0.0674182
0.00998038
0.0660238
0.0097016
0.0645861
0.00941749
0.0631162
0.00913017
0.0616243
0.00884169
0.0601198
0.00855392
0.0586111
0.00826856
0.0571057
0.0079871
0.0556097
0.0077108
0.0541288
0.00744071
0.0526674
0.00717767
0.0512292
0.00692234
0.0498172
0.00667521
0.0484335
0.00643664
0.0470801
0.00620684
0.0457581
0.00598593
0.0444682
0.00577396
0.0432111
0.00557087
0.0419867
0.00537659
0.040795
0.00519095
0.0396357
0.00501384
0.0385082
0.00484499
0.0374119
0.00468429
0.0363461
0.00453141
0.0353098
0.00438625
0.0343022
0.00424844
0.0333223
0.00411794
0.0323689
0.0039943
0.0314412
0.00387761
0.0305379
0.00376729
0.0296579
0.00366359
0.0288002
0.00356579
0.0279635
0.00347437
0.0271468
0.00338837
0.0263488
0.00330858
0.0255686
0.00323372
0.0248048
0.00316498
0.0240566
0.00310066
0.0233225
0.00304248
0.0226018
0.00298814
0.021893
0.00294005
0.0211954
0.00289513
0.0205076
0.00285671
0.0198288
0.00282064
0.0191577
0.00279146
0.0184937
0.00276361
0.0178352
0.00274319
0.017182
0.00272284
0.0165323
0.00271054
0.0158862
0.00269679
0.0152419
0.00269175
0.0145997
0.00268342
0.0139576
0.00268449
0.0133166
0.0026801
0.0126745
0.00268573
0.0120327
0.00268351
0.011389
0.00269181
0.0107454
0.00268962
0.0100996
0.00269836
0.00945436
0.00269386
0.00880722
0.0027006
0.00816167
0.00269127
0.00751521
0.00269375
0.00687207
0.00267715
0.00622949
0.00267393
0.00559258
0.00264821
0.00495781
0.00263968
0.00433157
0.00260395
0.00370863
0.00259315
0.00309747
0.00254686
0.00248934
0.00254226
0.00189711
0.00248214
0.00130513
0.00249663
0.000734783
0.00241413
0.000154465
0.00249543
-0.000394763
0.00236016
-0.00098963
0.00266069
-0.00146773
0.00206659
-0.0020728
0.00270572
-0.00262641
0.00271703
-0.00292657
0.000837744
-0.00376225
0.00375514
-0.0054508
0.0100609
-0.005055
-0.00231954
-0.00538499
-0.000846677
-0.0102362
0.0310109
-0.00932573