/*--------------------------------*- C++ -*----------------------------------*\
| =========                 |                                                 |
| \\      /  F ield         | OpenFOAM: The Open Source CFD Toolbox           |
|  \\    /   O peration     | Version:  2412                                  |
|   \\  /    A nd           | Website:  www.openfoam.com                      |
|    \\/     M anipulation  |                                                 |
\*---------------------------------------------------------------------------*/
FoamFile
{
    version     2.0;
    format      ascii;
    arch        "LSB;label=32;scalar=64";
    class       surfaceScalarField;
    location    "1.3";
    object      phi;
}
// * * * * * * * * * * * * * * * * * * * * * * * * * * * * * * * * * * * * * //

dimensions      [0 3 -1 0 0 0 0];

oriented        oriented;

internalField   nonuniform List<scalar> 
24930
(
0.0179839
0.012775
-0.0307592
0.0106101
0.00737379
0.00695486
0.00365521
0.00517675
0.00177811
0.00420369
0.000973055
0.00358021
0.000623481
0.0031339
0.000446308
0.00279414
0.000339761
0.00252477
0.000269364
0.00230472
0.000220053
0.00212081
0.000183911
0.0019643
0.000156507
0.00182914
0.000135161
0.00171098
0.000118164
0.00160659
0.000104382
0.00151356
9.30306e-05
0.00143001
8.35533e-05
0.00135446
7.55476e-05
0.00128574
6.87147e-05
0.00122292
6.28293e-05
0.0011652
5.77185e-05
0.00111195
5.3248e-05
0.00106264
4.93117e-05
0.00101681
4.58252e-05
0.000974092
4.27204e-05
0.00093415
3.99419e-05
0.000896706
3.74444e-05
0.000861516
3.51901e-05
0.000828368
3.31479e-05
0.000797077
3.12913e-05
0.000767479
2.95984e-05
0.000739429
2.805e-05
0.000712799
2.66305e-05
0.000687474
2.53253e-05
0.00066335
2.41237e-05
0.000640337
2.30138e-05
0.000618348
2.19886e-05
0.00059731
2.10378e-05
0.000577152
2.01579e-05
0.000557814
1.93385e-05
0.000539234
1.85799e-05
0.000521363
1.78704e-05
0.000504148
1.72147e-05
0.00048755
1.65981e-05
0.000471519
1.6031e-05
0.000456025
1.54937e-05
0.00044102
1.50042e-05
0.000426485
1.45353e-05
0.00041237
1.41147e-05
0.000398665
1.37052e-05
0.000385318
1.3347e-05
0.000372328
1.29894e-05
0.000359639
1.26888e-05
0.000347262
1.23768e-05
0.000335132
1.21302e-05
0.000323274
1.18582e-05
0.000311611
1.16632e-05
0.000300184
1.14264e-05
0.000288903
1.12814e-05
0.000277827
1.10754e-05
0.000266847
1.09795e-05
0.000256047
1.08e-05
0.000245294
1.07531e-05
0.000234699
1.05956e-05
0.000224101
1.05979e-05
0.000213643
1.04577e-05
0.000203133
1.05094e-05
0.000192752
1.03816e-05
0.000182269
1.0482e-05
0.000171909
1.03606e-05
0.000161401
1.05077e-05
0.000151016
1.03851e-05
0.000140441
1.05747e-05
0.00013
1.04406e-05
0.000119333
1.06675e-05
0.000108825
1.05073e-05
9.80573e-05
1.0768e-05
8.74989e-05
1.05583e-05
7.66408e-05
1.0858e-05
6.60865e-05
1.05542e-05
5.51629e-05
1.09235e-05
4.47241e-05
1.04387e-05
3.37647e-05
1.09593e-05
2.36097e-05
1.01549e-05
1.26833e-05
1.09263e-05
2.85903e-06
9.82418e-06
-7.94586e-06
1.08048e-05
-1.65896e-05
8.64371e-06
-2.81726e-05
1.15829e-05
-3.50244e-05
6.85171e-06
-4.69892e-05
1.19645e-05
-5.40616e-05
7.07276e-06
-6.13105e-05
7.24818e-06
-7.35002e-05
1.21902e-05
-7.32871e-05
-2.13202e-07
-9.02606e-05
1.69724e-05
-8.82049e-05
-2.05559e-06
-0.000105725
1.75207e-05
-9.84138e-05
-7.54231e-06
-0.000117799
1.93839e-05
-0.000117072
-7.26221e-07
-0.000132525
1.54534e-05
-0.000130821
-1.70673e-06
-0.000160025
2.92061e-05
-0.000160539
5.18588e-07
-0.000145633
-1.49122e-05
-0.000221126
7.54971e-05
-0.000189163
-3.19581e-05
-0.000239488
5.03217e-05
-0.000247044
7.55795e-06
-0.000279072
3.20281e-05
-0.000365141
8.6076e-05
-0.000284624
-8.05202e-05
-0.000365984
8.13623e-05
-0.000465416
9.94427e-05
-0.000303184
-0.000162243
-0.000372908
6.97171e-05
-0.000405775
3.28735e-05
-0.000326409
-7.93623e-05
-0.000129614
0.0337061
0.0163462
-0.0372773
0.0277615
0.0133184
0.0222016
0.00921505
0.017922
0.00605769
0.0148723
0.00402281
0.0127094
0.00278633
0.0111208
0.00203497
0.00990259
0.00155794
0.00893454
0.00123742
0.00814356
0.00101103
0.00748285
0.000844618
0.00692107
0.000718289
0.00643641
0.000619824
0.00601316
0.000541403
0.00563974
0.000477807
0.00530734
0.000425429
0.00500918
0.000381711
0.00473994
0.000344794
0.00449535
0.000313299
0.004272
0.000286184
0.00406706
0.000262651
0.00387824
0.000242076
0.00370358
0.000223971
0.00354146
0.000207944
0.0033905
0.000193679
0.00324952
0.000180921
0.00311751
0.000169459
0.00299358
0.000159119
0.00287697
0.000149757
0.00276701
0.00014125
0.00266311
0.000133497
0.00256475
0.00012641
0.00247147
0.000119914
0.00238285
0.000113946
0.00229852
0.000108451
0.00221816
0.00010338
0.00214145
9.86955e-05
0.00206813
9.43547e-05
0.00199795
9.0335e-05
0.0019307
8.65971e-05
0.00186614
8.31315e-05
0.00180412
7.98978e-05
0.00174443
7.69004e-05
0.00168693
7.40932e-05
0.00163147
7.14973e-05
0.00157791
6.90549e-05
0.0015261
6.68082e-05
0.00147596
6.46813e-05
0.00142733
6.2743e-05
0.00138014
6.08913e-05
0.00133426
5.92298e-05
0.00128963
5.76205e-05
0.0012461
5.62111e-05
0.00120366
5.48171e-05
0.00116215
5.36412e-05
0.00112157
5.24395e-05
0.00108175
5.14831e-05
0.00104272
5.04541e-05
0.0010043
4.97071e-05
0.000966539
4.88334e-05
0.00092923
4.82886e-05
0.000892475
4.75541e-05
0.000856021
4.72071e-05
0.000820021
4.65958e-05
0.000784175
4.64437e-05
0.000748694
4.59389e-05
0.000713225
4.59781e-05
0.000678044
4.55622e-05
0.00064274
4.57857e-05
0.000607662
4.54385e-05
0.000572338
4.5832e-05
0.000537195
4.55279e-05
0.000501705
4.60643e-05
0.000466371
4.57746e-05
0.00043063
4.64084e-05
0.000395032
4.61042e-05
0.000359028
4.67725e-05
0.000323165
4.64213e-05
0.000286972
4.70502e-05
0.000250937
4.65897e-05
0.000214717
4.71434e-05
0.000178756
4.63988e-05
0.000142702
4.70134e-05
0.000107298
4.55591e-05
7.1551e-05
4.66729e-05
3.74638e-05
4.39113e-05
2.4617e-06
4.58067e-05
-2.92181e-05
4.03234e-05
-6.663e-05
4.89946e-05
-9.12579e-05
3.14796e-05
-0.000132378
5.30846e-05
-0.000153083
2.77771e-05
-0.000184677
3.88436e-05
-0.000216357
4.38691e-05
-0.000227872
1.13019e-05
-0.000273126
6.22267e-05
-0.000278495
3.31408e-06
-0.000324555
6.35806e-05
-0.00031388
-1.79987e-05
-0.000368909
7.44142e-05
-0.000374781
5.14531e-06
-0.000419257
5.99292e-05
-0.000421286
3.27899e-07
-0.000517088
0.000125008
-0.000502538
-1.40334e-05
-0.000492812
-2.46392e-05
-0.000696664
0.000279348
-0.000619347
-0.000109274
-0.000768326
0.000199302
-0.000793405
3.26379e-05
-0.000911848
0.000150472
-0.00114332
0.000317548
-0.000915468
-0.00030837
-0.00119496
0.00036086
-0.00142121
0.000325689
-0.000973869
-0.000609574
-0.00118085
0.000276708
-0.00128258
0.000134592
-0.000973841
-0.000388098
-0.000525761
0.0414799
0.0160437
-0.0411773
0.0391854
0.0156129
0.0352497
0.0131508
0.0309575
0.0103499
0.0270377
0.00794261
0.0237448
0.00607921
0.0210675
0.0047123
0.0188966
0.00372886
0.0171172
0.00301676
0.0156367
0.00249155
0.014386
0.00209538
0.0133146
0.00178968
0.0123856
0.0015488
0.0115715
0.00135548
0.0108515
0.00119782
0.0102095
0.00106741
0.009633
0.000958218
0.00911201
0.000865782
0.00863854
0.000786769
0.00820608
0.000718644
0.00780928
0.000659447
0.00744371
0.000607648
0.00710565
0.000562033
0.00679196
0.000521632
0.00649998
0.000485661
0.00622742
0.000453479
0.00597232
0.000424561
0.00573297
0.00039847
0.00550788
0.000374845
0.00529575
0.000353377
0.00509544
0.000333811
0.00490593
0.000315925
0.00472631
0.000299534
0.00455578
0.000284474
0.00439362
0.00027061
0.00423919
0.000257816
0.00409189
0.000245996
0.00395119
0.000235047
0.00381662
0.000224904
0.00368774
0.000215479
0.00356414
0.000206733
0.00344546
0.00019858
0.00333135
0.000191012
0.0032215
0.000183937
0.00311562
0.000177378
0.00301345
0.000171225
0.00291472
0.00016554
0.00281921
0.000160185
0.00272669
0.00015527
0.00263697
0.000150613
0.00254981
0.000146385
0.00246508
0.000142345
0.00238256
0.000138739
0.00230212
0.000135249
0.00222355
0.000132215
0.00214677
0.00012922
0.00207153
0.00012672
0.00199781
0.000124173
0.00192534
0.000122177
0.00185414
0.000120037
0.0017839
0.000118525
0.0017147
0.000116756
0.0016462
0.00011571
0.00157852
0.000114277
0.00151127
0.000113687
0.00144466
0.000112553
0.00137823
0.000112406
0.00131226
0.000111533
0.00124624
0.000111806
0.00118053
0.000111152
0.00111455
0.000111804
0.00104877
0.000111316
0.000982557
0.000112273
0.000916432
0.000111899
0.000849814
0.000113026
0.000783184
0.000112734
0.00071613
0.000113826
0.000648934
0.000113617
0.000581598
0.000114386
0.000513927
0.00011426
0.000446649
0.000114421
0.00037885
0.000114198
0.000312048
0.000113815
0.000244916
0.000112691
0.000178822
0.000112766
0.000113916
0.000108818
4.81523e-05
0.00011157
-1.18853e-05
0.000100361
-8.03302e-05
0.000117439
-0.000128093
7.92418e-05
-0.000205224
0.000130215
-0.000242536
6.50897e-05
-0.00030692
0.000103227
-0.000359574
9.65231e-05
-0.000390759
4.24868e-05
-0.000466713
0.000138181
-0.000485515
2.21149e-05
-0.00056234
0.000140405
-0.000553602
-2.672e-05
-0.000649047
0.000169859
-0.000665482
2.15804e-05
-0.000743187
0.000137634
-0.000754772
1.19067e-05
-0.000925732
0.000295968
-0.000891161
-4.86026e-05
-0.000907423
-8.37007e-06
-0.00123968
0.000611606
-0.00111871
-0.000230245
-0.00137958
0.000460169
-0.00142327
7.63385e-05
-0.00164644
0.000373638
-0.00201596
0.000687068
-0.00164133
-0.000682994
-0.00215052
0.000870053
-0.00246362
0.000638793
-0.00172882
-0.00134437
-0.00209678
0.00064467
-0.00224789
0.000285707
-0.00164497
-0.000991021
-0.00123481
0.0459436
0.0147447
-0.0446446
0.0460245
0.015532
0.044442
0.0147332
0.0417138
0.0130782
0.0384653
0.0111911
0.0351559
0.00938864
0.0320534
0.00781482
0.0292723
0.00650996
0.0268314
0.00545759
0.0247048
0.00461823
0.022851
0.00394913
0.0212282
0.0034125
0.019799
0.00297797
0.0185323
0.00262224
0.0174023
0.00232781
0.0163881
0.00208153
0.0154729
0.00187348
0.0146425
0.00169612
0.0138857
0.00154366
0.0131927
0.00141162
0.0125557
0.00129645
0.011968
0.00119537
0.0114239
0.00110612
0.0109186
0.00102691
0.010448
0.000956262
0.0100085
0.000892959
0.00959706
0.000836005
0.00921096
0.000784566
0.00884786
0.000737943
0.00850569
0.000695548
0.00818262
0.000656882
0.00787703
0.000621517
0.00758748
0.000589092
0.00731266
0.000559288
0.00705143
0.00053184
0.00680274
0.000506505
0.00656565
0.000483089
0.0063393
0.000461397
0.00612291
0.000441293
0.00591578
0.000422611
0.00571725
0.000405265
0.00552672
0.000389102
0.00534365
0.000374083
0.00516754
0.000360053
0.00499789
0.000347024
0.00483429
0.000334821
0.00467632
0.000323516
0.00452361
0.000312895
0.00437577
0.000303104
0.00423251
0.000293869
0.00409347
0.000285426
0.0039584
0.000277416
0.00382695
0.00027019
0.00369892
0.000263276
0.00357398
0.000257164
0.00345196
0.000251239
0.00333251
0.000246162
0.00321555
0.000241135
0.0031007
0.000237032
0.00298791
0.000232828
0.00287678
0.000229649
0.00276734
0.000226201
0.00265913
0.000223912
0.00255226
0.000221154
0.00244622
0.000219728
0.00234118
0.000217595
0.00223658
0.000217001
0.00213269
0.000215426
0.00202888
0.000215618
0.0019255
0.000214525
0.00182189
0.00021542
0.00171848
0.00021472
0.00161459
0.000216164
0.00151071
0.000215777
0.00140624
0.000217493
0.00130158
0.000217396
0.00119647
0.000218938
0.00109088
0.000219211
0.000985346
0.000219917
0.000878886
0.00022072
0.000773467
0.00021984
0.000666579
0.000221085
0.000561955
0.000218438
0.000455773
0.000218873
0.000352329
0.000216211
0.000249268
0.000211878
0.000146178
0.00021466
5.08545e-05
0.000195685
-5.60815e-05
0.000224375
-0.000133644
0.000156804
-0.000254304
0.000250876
-0.000313142
0.000123927
-0.000418656
0.000208741
-0.000496365
0.000174231
-0.00055454
0.000100662
-0.000666524
0.000250165
-0.000703415
5.90064e-05
-0.000816615
0.000253606
-0.000813709
-2.96303e-05
-0.00095745
0.000313601
-0.000986898
5.10281e-05
-0.00110512
0.00025586
-0.00113191
3.87041e-05
-0.00138538
0.000549435
-0.00133112
-0.000102869
-0.0013915
5.20063e-05
-0.00185516
0.00107527
-0.00168959
-0.000395812
-0.00207967
0.00085025
-0.00214223
0.000138895
-0.00248492
0.00071633
-0.00298718
0.00118933
-0.00246754
-0.00120264
-0.00323085
0.00163337
-0.00359207
0.00100001
-0.00256548
-0.00237096
-0.00311858
0.00119778
-0.00328396
0.000451086
-0.00232298
-0.00195201
-0.00231761
0.0494106
0.0135508
-0.0482167
0.0503733
0.0145693
0.0503895
0.014717
0.0493646
0.014103
0.0475165
0.0130392
0.0451379
0.0117672
0.0425008
0.0104519
0.0398121
0.00919873
0.0372065
0.00806312
0.0347588
0.00706596
0.0325011
0.00620684
0.0304393
0.00547428
0.028565
0.00485225
0.0268632
0.00432406
0.0253167
0.00387432
0.0239086
0.00348967
0.0226231
0.00315897
0.0214461
0.00287305
0.0203654
0.00262444
0.0193699
0.00240707
0.0184504
0.00221599
0.0175986
0.00204718
0.0168074
0.00189732
0.0160706
0.00176369
0.0153828
0.00164402
0.0147394
0.00153643
0.014136
0.00143935
0.0135691
0.00135144
0.0130355
0.00127159
0.0125322
0.00119884
0.0120567
0.00113238
0.0116067
0.00107151
0.0111802
0.00101562
0.0107753
0.000964191
0.0103903
0.000916779
0.0100239
0.000872978
0.00967449
0.000832459
0.00934099
0.000794899
0.00902222
0.000760061
0.00871716
0.000727672
0.00842485
0.000697575
0.00814443
0.000669524
0.00787508
0.000643433
0.00761607
0.000619062
0.00736669
0.0005964
0.00712633
0.000575186
0.00689435
0.000555496
0.00667022
0.000537019
0.00645339
0.000519937
0.0062434
0.000503861
0.00603972
0.000489098
0.00584199
0.000475149
0.0056497
0.000462478
0.00546254
0.000450433
0.00528004
0.000439672
0.00510193
0.000429349
0.00492773
0.000420357
0.00475726
0.000411604
0.00459002
0.00040427
0.00442589
0.000396959
0.00426434
0.000391196
0.00410533
0.000385215
0.00394828
0.000380958
0.00379323
0.000376202
0.00363956
0.000373398
0.0034874
0.000369762
0.00333604
0.000368356
0.00318574
0.000365732
0.00303571
0.000365642
0.00288632
0.00036391
0.00273675
0.000364995
0.00258745
0.000364018
0.00243761
0.00036601
0.00228771
0.000365672
0.00213712
0.000368088
0.00198612
0.000368388
0.00183463
0.000370432
0.00168225
0.000371584
0.00153013
0.000372039
0.00137639
0.000374464
0.00122437
0.000371854
0.00106978
0.000375682
0.000918847
0.000369368
0.000764893
0.000372827
0.000615631
0.000365472
0.000465673
0.000361837
0.000316894
0.000363439
0.000177685
0.000334893
2.40527e-05
0.000378007
-9.14624e-05
0.000272319
-0.000264616
0.000424029
-0.000351236
0.000210547
-0.000507794
0.000365299
-0.000615708
0.000282145
-0.00070984
0.000194794
-0.000864044
0.000404369
-0.000924904
0.000119866
-0.00108133
0.000410031
-0.00108917
-2.17966e-05
-0.00129016
0.000514595
-0.00133558
9.64467e-05
-0.00150328
0.000423561
-0.00155143
8.68568e-05
-0.00189513
0.00089313
-0.00182391
-0.000174085
-0.00194743
0.000175531
-0.00254393
0.00167177
-0.00233523
-0.000604515
-0.00287177
0.00138679
-0.00295272
0.000219846
-0.00342907
0.00119269
-0.00405633
0.00181659
-0.00339651
-0.00186245
-0.00443335
0.00267021
-0.00479941
0.00136608
-0.00348181
-0.00368855
-0.00423441
0.00195039
-0.00436836
0.00058503
-0.00298282
-0.00333754
-0.00384787
0.0528699
0.0126531
-0.0519722
0.0538975
0.0135416
0.0545802
0.0140343
0.0546475
0.0140358
0.0540467
0.0136401
0.0528471
0.0129668
0.0511781
0.0121209
0.0491862
0.0111905
0.0470064
0.0102429
0.0447493
0.00932308
0.0424972
0.00845891
0.0403063
0.00766516
0.0382112
0.00694733
0.0362305
0.00630484
0.0343714
0.00573342
0.0326341
0.00522692
0.0310146
0.00477849
0.0295064
0.00438129
0.0281018
0.00402896
0.0267932
0.00371574
0.0255726
0.00343653
0.0244329
0.00318694
0.023367
0.00296314
0.0223689
0.00276186
0.0214326
0.00258029
0.020553
0.002416
0.0197254
0.00226694
0.0189455
0.00213133
0.0182095
0.00200762
0.0175139
0.0018945
0.0168554
0.00179082
0.0162314
0.00169558
0.0156391
0.00160792
0.0150762
0.00152707
0.0145406
0.00145238
0.0140303
0.00138326
0.0135436
0.00131921
0.0130787
0.00125975
0.0126343
0.00120452
0.0122088
0.00115312
0.0118011
0.00110529
0.0114099
0.00106067
0.0110343
0.00101913
0.010673
0.000980293
0.0103253
0.000944133
0.0099902
0.000910277
0.00966689
0.000878798
0.00935464
0.000849269
0.00905268
0.000821904
0.00876036
0.000796179
0.00847698
0.000772475
0.008202
0.000750126
0.00793476
0.000729722
0.00767479
0.000710402
0.00742145
0.000693013
0.00717436
0.000676437
0.00693288
0.000661835
0.00669672
0.000647769
0.00646521
0.000635774
0.00623815
0.000624019
0.00601486
0.000614492
0.00579519
0.000604877
0.00557844
0.000597708
0.00536457
0.000590074
0.00515279
0.000585179
0.00494319
0.000579368
0.00473489
0.000576655
0.00452811
0.000572509
0.0043219
0.00057185
0.00411662
0.000569192
0.00391125
0.000570366
0.00370627
0.000568998
0.00350069
0.000571589
0.00329501
0.000571353
0.00308849
0.000574601
0.00288135
0.000575529
0.00267362
0.000578161
0.00246455
0.000580659
0.00225589
0.000580694
0.00204479
0.000585562
0.00183614
0.000580508
0.0016236
0.000588225
0.00141625
0.000576716
0.00120414
0.000584934
0.000998933
0.00057068
0.000791642
0.000569127
0.000587092
0.000567988
0.000393612
0.000528373
0.000182354
0.000589265
2.01722e-05
0.000434501
-0.000216204
0.000660405
-0.000338302
0.000332644
-0.000557822
0.00058482
-0.00070223
0.000426553
-0.000843484
0.000336047
-0.00104687
0.000607755
-0.00113946
0.000212455
-0.00134711
0.000617685
-0.00137213
3.21959e-06
-0.00164023
0.000782704
-0.00170558
0.000161787
-0.00193337
0.00065136
-0.00200968
0.00016317
-0.00245179
0.00133524
-0.00236887
-0.000257006
-0.00257525
0.000381913
-0.00330412
0.00240064
-0.00305735
-0.000851287
-0.00375598
0.00208542
-0.00385473
0.000318594
-0.00447735
0.00181532
-0.00521934
0.00255858
-0.00442769
-0.0026541
-0.00575001
0.00399253
-0.00607395
0.00169001
-0.00447171
-0.00529078
-0.00542235
0.00290103
-0.0054698
0.000632483
-0.00359067
-0.00521667
-0.00591553
0.056591
0.0119665
-0.0559044
0.057444
0.0126887
0.0582399
0.0132385
0.0587655
0.0135101
0.0588988
0.0135067
0.0585939
0.0132718
0.0578601
0.0128547
0.0567453
0.0123054
0.0553179
0.0116703
0.0536536
0.0109874
0.0518258
0.0102867
0.0498999
0.00959104
0.0479307
0.0089166
0.0459611
0.00827441
0.0440233
0.00767122
0.0421397
0.00711046
0.0403252
0.00659307
0.0385882
0.00611826
0.036933
0.00568411
0.0353608
0.005288
0.0338703
0.00492701
0.0324591
0.00459811
0.0311239
0.00429835
0.0298609
0.00402492
0.0286659
0.00377523
0.027535
0.00354691
0.0264641
0.00333783
0.0254494
0.00314605
0.0244872
0.00296986
0.023574
0.00280773
0.0227065
0.0026583
0.0218817
0.00252035
0.0210968
0.00239282
0.0203491
0.00227474
0.0196362
0.00216527
0.0189559
0.00206364
0.0183059
0.00196919
0.0176843
0.00188129
0.0170894
0.00179944
0.0165194
0.00172311
0.0159728
0.00165194
0.015448
0.00158544
0.0149437
0.0015234
0.0144587
0.00146534
0.0139916
0.00141117
0.0135415
0.00136041
0.0131072
0.00131312
0.0126877
0.00126875
0.0122821
0.00122753
0.0118895
0.00118878
0.011509
0.00115297
0.0111398
0.00111924
0.0107812
0.00108833
0.0104325
0.00105912
0.0100929
0.00103267
0.00976174
0.00100756
0.00943832
0.000985257
0.00912217
0.000963912
0.00881247
0.000945476
0.00850888
0.000927609
0.00821054
0.000912835
0.00791721
0.000898199
0.007628
0.000886924
0.00734278
0.000875293
0.00706057
0.000867387
0.0067814
0.000858539
0.00650418
0.00085387
0.00622911
0.000847582
0.005955
0.000845961
0.0056822
0.000841989
0.00540947
0.000843097
0.0051373
0.000841169
0.00486449
0.0008444
0.00459153
0.000844308
0.00431759
0.000848545
0.00404275
0.000850371
0.00376718
0.000853726
0.00348971
0.000858127
0.00321279
0.00085762
0.00293245
0.000865903
0.00265526
0.000857689
0.00237266
0.000870829
0.00209687
0.000852504
0.00181429
0.00086752
0.00154103
0.000843937
0.00126397
0.000846189
0.000991537
0.000840418
0.000731411
0.000788499
0.000450772
0.000869904
0.00022941
0.000655862
-8.29764e-05
0.000972791
-0.000249296
0.000498963
-0.00054645
0.000881974
-0.000734894
0.000614996
-0.000937196
0.000538349
-0.00119755
0.000868104
-0.00133216
0.000347068
-0.0016002
0.000885725
-0.00165088
5.39036e-05
-0.00199677
0.00112859
-0.00208736
0.000252372
-0.00238765
0.000951656
-0.00249939
0.000274912
-0.00304908
0.00188492
-0.00296215
-0.000343931
-0.00327137
0.000691133
-0.00413058
0.00325985
-0.00385506
-0.00112681
-0.00472838
0.00295875
-0.00484438
0.000434596
-0.00562352
0.00259447
-0.00646786
0.00340292
-0.00555518
-0.00356678
-0.00716611
0.00560347
-0.00739903
0.00192293
-0.00552295
-0.00716685
-0.00664855
0.00402663
-0.00654671
0.000530637
-0.00410269
-0.00766069
-0.00863104
0.0605974
0.0114035
-0.0600344
0.0612814
0.0120046
0.0619955
0.0125244
0.0626168
0.0128888
0.0630478
0.0130758
0.0632244
0.0130951
0.0631111
0.012968
0.0626974
0.0127191
0.0619934
0.0123742
0.0610239
0.0119569
0.0598233
0.0114874
0.0584312
0.0109831
0.0568891
0.0104587
0.055237
0.00992651
0.0535119
0.00939635
0.0517462
0.00887615
0.0499673
0.00837198
0.0481973
0.00788824
0.0464535
0.00742793
0.0447487
0.00699279
0.0430921
0.00658361
0.0414898
0.00620037
0.0399456
0.00584251
0.0384615
0.00550908
0.0370378
0.00519886
0.0356743
0.0049105
0.0343695
0.00464259
0.0331219
0.00439369
0.0319293
0.00416244
0.0307895
0.00394751
0.0297002
0.00374764
0.0286588
0.00356166
0.0276632
0.00338851
0.0267107
0.00322716
0.0257993
0.00307673
0.0249266
0.00293635
0.0240905
0.00280529
0.023289
0.0026828
0.0225201
0.00256832
0.021782
0.00246118
0.021073
0.00236097
0.0203914
0.00226707
0.0197355
0.00217921
0.0191041
0.00209681
0.0184955
0.00201974
0.0179085
0.00194739
0.0173418
0.00187983
0.0167942
0.00181633
0.0162645
0.00175721
0.0157517
0.00170159
0.0152547
0.00165004
0.0147724
0.00160148
0.0143039
0.00155681
0.0138484
0.00151463
0.0134048
0.00147627
0.0129725
0.00143992
0.0125503
0.00140742
0.0121378
0.00137643
0.0117339
0.00134941
0.011338
0.00132341
0.0109493
0.00130159
0.0105672
0.00128024
0.0101908
0.00126339
0.00981969
0.00124638
0.00945275
0.00123433
0.00908993
0.00122136
0.00872987
0.00121392
0.00837275
0.00120471
0.00801709
0.00120162
0.00766324
0.00119584
0.00730967
0.00119666
0.00695689
0.00119395
0.00660344
0.00119785
0.00624979
0.00119795
0.00589496
0.00120337
0.00553891
0.00120642
0.00518193
0.00121071
0.00482236
0.00121769
0.00446339
0.0012166
0.00409984
0.00122945
0.00374012
0.00121741
0.00337317
0.00123777
0.00301471
0.00121097
0.00264707
0.00123516
0.00229136
0.00119964
0.00192974
0.00120781
0.00157495
0.00119521
0.00123337
0.00113007
0.000868955
0.00123432
0.000574043
0.000950775
0.000172231
0.0013746
-4.93865e-05
0.00072058
-0.000444068
0.00127666
-0.000685268
0.000856196
-0.000966075
0.000819156
-0.00129205
0.00119408
-0.00148234
0.000537354
-0.00182114
0.00122452
-0.00190844
0.000141206
-0.00234362
0.00156377
-0.00246672
0.000375469
-0.00285363
0.00133857
-0.00300865
0.000429935
-0.00367642
0.00255269
-0.00359548
-0.000424879
-0.00402725
0.00112291
-0.00501384
0.00424644
-0.00472357
-0.00141708
-0.00577957
0.00401475
-0.00591297
0.000568001
-0.00685511
0.00353661
-0.00778795
0.00433575
-0.00676626
-0.00458846
-0.00865853
0.00749576
-0.00875142
0.00201581
-0.00661451
-0.00930375
-0.00786474
0.00527687
-0.00754528
0.000211196
-0.00446245
-0.0107435
-0.0121302
0.0648827
0.0109191
-0.0643983
0.0654478
0.0114395
0.066055
0.0119172
0.0666392
0.0123046
0.0671377
0.0125772
0.0675021
0.0127308
0.0676968
0.0127732
0.0676981
0.0127179
0.0674925
0.0125798
0.067076
0.0123734
0.0664522
0.0121111
0.0656317
0.0118036
0.0646302
0.0114602
0.0634676
0.011089
0.0621668
0.0106972
0.0607517
0.0102912
0.0592468
0.00987691
0.0576754
0.00945956
0.0560595
0.00904386
0.0544184
0.00863386
0.0527691
0.00823294
0.0511257
0.00784379
0.0494998
0.00746845
0.0479005
0.00710834
0.0463349
0.0067644
0.0448084
0.00643709
0.0433244
0.00612653
0.0418855
0.00583256
0.0404932
0.0055548
0.039148
0.00529273
0.0378498
0.00504575
0.0365983
0.00481316
0.0353926
0.00459425
0.0342315
0.00438829
0.0331136
0.00419458
0.0320376
0.00401237
0.0310018
0.00384105
0.0300047
0.00367991
0.0290447
0.0035284
0.02812
0.00338586
0.0272291
0.00325188
0.0263703
0.0031258
0.0255422
0.00300733
0.0247432
0.00289582
0.0239718
0.00279115
0.0232266
0.00269259
0.0225062
0.00260025
0.0218092
0.00251327
0.0211344
0.00243203
0.0204805
0.00235545
0.0198463
0.00228427
0.0192307
0.00221712
0.0186323
0.00215514
0.0180504
0.00209659
0.0174835
0.00204311
0.016931
0.00199247
0.0163915
0.00194692
0.0158643
0.00190361
0.0153482
0.00186554
0.0148426
0.00182906
0.0143461
0.00179809
0.0138583
0.00176803
0.0133778
0.00174389
0.0129043
0.00171986
0.0124363
0.00170231
0.0119737
0.00168394
0.0115149
0.00167274
0.01106
0.00165966
0.0106071
0.00165449
0.0101566
0.00164629
0.00970671
0.00164658
0.00925785
0.00164281
0.00880828
0.00164743
0.00835845
0.00164778
0.00790717
0.00165465
0.00745424
0.00165935
0.00700008
0.00166487
0.00654249
0.00167528
0.00608541
0.00167367
0.00562235
0.00169251
0.00516369
0.00167607
0.00469568
0.00170579
0.00423778
0.00166886
0.00376791
0.00170503
0.00331269
0.00165487
0.00284899
0.00167151
0.00239458
0.00164962
0.00195389
0.00157076
0.00148845
0.00169976
0.00110251
0.00133672
0.000594887
0.00188223
0.000294102
0.00102136
-0.000212408
0.00178317
-0.000515117
0.0011589
-0.000896657
0.0012007
-0.00129783
0.00159526
-0.00156179
0.000801307
-0.00198275
0.00164548
-0.00212105
0.000279507
-0.00265777
0.00210049
-0.00282321
0.000540909
-0.00331247
0.00182784
-0.00351927
0.000636728
-0.00431753
0.00335095
-0.0042543
-0.00048811
-0.0048277
0.00169632
-0.00593867
0.00535742
-0.00565238
-0.00170338
-0.00689309
0.00525546
-0.00704528
0.000720199
-0.0081515
0.00464283
-0.00915825
0.0053425
-0.00803886
-0.00570784
-0.0101941
0.00965096
-0.010099
0.00192073
-0.00771328
-0.0116894
-0.00900616
0.00656976
-0.00839758
-0.000397407
-0.00459796
-0.0145432
-0.0165729
0.0694558
0.0104917
-0.0690284
0.0699391
0.0109562
0.0704593
0.011397
0.0709806
0.0117832
0.0714635
0.0120944
0.0718741
0.0123202
0.0721864
0.0124609
0.0723811
0.0125232
0.072444
0.0125169
0.0723651
0.0124523
0.0721375
0.0123388
0.0717573
0.0121838
0.0712239
0.0119936
0.0705396
0.0117733
0.06971
0.0115269
0.0687434
0.0112578
0.067651
0.0109693
0.0664463
0.0106643
0.0651442
0.010346
0.0637605
0.0100175
0.0623114
0.00968208
0.0608124
0.00934277
0.0592783
0.00900253
0.0577227
0.00866403
0.0561574
0.00832966
0.054593
0.00800146
0.0530385
0.00768111
0.0515011
0.00736995
0.0499869
0.00706898
0.0485007
0.00677893
0.0470462
0.00650027
0.0456261
0.00623325
0.0442424
0.00597796
0.0428963
0.00573433
0.0415887
0.00550223
0.0403197
0.00528136
0.0390893
0.00507148
0.037897
0.00487217
0.0367423
0.00468315
0.0356242
0.00450389
0.0345419
0.00433418
0.0334943
0.00417341
0.0324802
0.00402144
0.0314984
0.0038776
0.0305477
0.00374189
0.0296268
0.00361351
0.0287343
0.0034927
0.0278692
0.00337845
0.0270299
0.00327132
0.0262153
0.00317003
0.025424
0.00307551
0.024655
0.00298613
0.0239069
0.00290332
0.0231785
0.00282495
0.0224685
0.00275308
0.021776
0.00268496
0.0210996
0.0026234
0.0204383
0.00256487
0.0197907
0.00251309
0.0191562
0.00246359
0.0185331
0.00242119
0.0179209
0.00238022
0.017318
0.00234687
0.0167238
0.00231399
0.0161367
0.00228942
0.0155565
0.0022642
0.014981
0.00224815
0.0144106
0.00223013
0.0138429
0.0022222
0.0132783
0.0022109
0.0127145
0.00221038
0.012152
0.00220528
0.0115887
0.00221072
0.011025
0.00221145
0.0104595
0.00222015
0.00989182
0.00222706
0.00932239
0.0022343
0.00874845
0.00224921
0.00817476
0.00224736
0.00759334
0.00227393
0.00701672
0.00225269
0.00642817
0.00229434
0.00585127
0.00224576
0.00525909
0.00229721
0.00468425
0.00222971
0.00409786
0.0022579
0.00352335
0.00222412
0.00296257
0.00213155
0.00237555
0.00228677
0.00187755
0.00183472
0.00124343
0.00251634
0.000844163
0.00142063
0.000206008
0.00242132
-0.000171826
0.00153674
-0.00068463
0.0017135
-0.00117117
0.0020818
-0.00153245
0.00116259
-0.00204804
0.00216106
-0.00225597
0.000487443
-0.00290722
0.00275175
-0.00312821
0.00076189
-0.00373693
0.00243656
-0.0040049
0.000904704
-0.00494836
0.0042944
-0.0049156
-0.000520868
-0.00564895
0.00242968
-0.00688206
0.00659052
-0.00662297
-0.00196246
-0.00804336
0.00667585
-0.00821768
0.000894519
-0.00948173
0.00590688
-0.0105478
0.00640853
-0.00933875
-0.00691685
-0.0117273
0.0120395
-0.0113974
0.00159075
-0.00877025
-0.0143166
-0.00998931
0.00778882
-0.00901838
-0.00136832
-0.00441789
-0.0191436
-0.0222155
0.0743363
0.0101087
-0.0739532
0.0747604
0.0105321
0.0752148
0.0109427
0.0756785
0.0113195
0.0761259
0.011647
0.0765323
0.0119138
0.0768778
0.0121153
0.0771481
0.012253
0.0773325
0.0123324
0.0774239
0.0123609
0.0774164
0.0123463
0.0773048
0.0122954
0.0770848
0.0122136
0.0767526
0.0121055
0.0763049
0.0119745
0.07574
0.0118228
0.0750574
0.0116518
0.074259
0.0114627
0.0733486
0.0112563
0.0723323
0.0110338
0.0712181
0.0107963
0.0700154
0.0105455
0.0687348
0.010283
0.0673879
0.010011
0.0659862
0.00973141
0.0645411
0.00944653
0.0630637
0.00915848
0.0615644
0.00886931
0.0600524
0.00858093
0.0585363
0.00829504
0.0570234
0.00801313
0.0555202
0.00773647
0.054032
0.00746614
0.0525634
0.00720295
0.051118
0.00694762
0.0496988
0.00670058
0.048308
0.00646226
0.0469474
0.0062328
0.0456181
0.00601242
0.044321
0.00580103
0.0430564
0.00559878
0.0418244
0.00540535
0.040625
0.0052209
0.0394577
0.00504489
0.038322
0.00487762
0.0372172
0.0047183
0.0361424
0.00456743
0.0350969
0.00442395
0.0340796
0.00428867
0.0330894
0.00416015
0.0321253
0.00403964
0.0311862
0.00392524
0.0302708
0.00381876
0.029378
0.00371769
0.0285065
0.00362458
0.0276554
0.00353612
0.026823
0.0034558
0.0260085
0.00337934
0.0252103
0.00331133
0.0244275
0.00324631
0.0236585
0.00319021
0.0229026
0.00313614
0.0221578
0.00309166
0.0214237
0.00304806
0.0206982
0.00301495
0.019981
0.00298137
0.0192698
0.00295936
0.0185646
0.00293531
0.0178629
0.00292397
0.0171648
0.00290893
0.0164678
0.00290739
0.0157723
0.00290076
0.0150758
0.00290726
0.0143786
0.00290866
0.013679
0.00291976
0.0129763
0.0029297
0.0122713
0.00293938
0.0115602
0.00296025
0.0108489
0.0029587
0.0101276
0.00299521
0.00941122
0.00296908
0.00867978
0.00302578
0.00796122
0.00296432
0.00722347
0.00303496
0.00650556
0.00294762
0.00577236
0.0029911
0.00505365
0.00294283
0.00434799
0.00283721
0.00361501
0.00301975
0.00297981
0.00246992
0.00219502
0.00330114
0.00167353
0.00194212
0.000885751
0.00320911
0.000393935
0.00202855
-0.000273272
0.00238071
-0.000853602
0.00266213
-0.00134358
0.00165257
-0.00196696
0.00278444
-0.00226889
0.000789375
-0.00304833
0.00353118
-0.00334237
0.00105593
-0.00408871