/*--------------------------------*- C++ -*----------------------------------*\
| =========                 |                                                 |
| \\      /  F ield         | OpenFOAM: The Open Source CFD Toolbox           |
|  \\    /   O peration     | Version:  2412                                  |
|   \\  /    A nd           | Website:  www.openfoam.com                      |
|    \\/     M anipulation  |                                                 |
\*---------------------------------------------------------------------------*/
FoamFile
{
    version     2.0;
    format      ascii;
    arch        "LSB;label=32;scalar=64";
    class       surfaceScalarField;
    location    "0.86";
    object      phi;
}
// * * * * * * * * * * * * * * * * * * * * * * * * * * * * * * * * * * * * * //

dimensions      [0 3 -1 0 0 0 0];

oriented        oriented;

internalField   nonuniform List<scalar> 
24930
(
0.0156509
0.0209206
-0.0365609
0.0064299
0.00922101
0.00295776
0.00347215
0.00165709
0.00130068
0.00106624
0.000590852
0.000720652
0.00034559
0.000487985
0.000232673
0.000321031
0.000166958
0.000197112
0.000123921
0.000103374
9.37421e-05
3.06529e-05
7.27316e-05
-2.57933e-05
5.64545e-05
-7.00722e-05
4.42738e-05
-0.000104828
3.47429e-05
-0.00013083
2.60011e-05
-0.000151704
2.08979e-05
-0.000167061
1.53852e-05
-0.000178642
1.15672e-05
-0.000186625
7.92858e-06
-0.000191651
5.00403e-06
-0.000194329
2.76441e-06
-0.000195289
1.05605e-06
-0.000194686
-7.00824e-07
-0.000192663
-2.09e-06
-0.00018925
-3.32694e-06
-0.000185011
-4.36745e-06
-0.000180238
-4.85202e-06
-0.000174887
-5.28549e-06
-0.000169163
-5.762e-06
-0.000163031
-6.12043e-06
-0.000156704
-6.29882e-06
-0.00015034
-6.3614e-06
-0.000143943
-6.39816e-06
-0.000137524
-6.40566e-06
-0.000131154
-6.35244e-06
-0.000124877
-6.26705e-06
-0.000118724
-6.14806e-06
-0.000112705
-6.01083e-06
-0.000106829
-5.8654e-06
-0.000101098
-5.72206e-06
-9.5527e-05
-5.56676e-06
-9.00972e-05
-5.42714e-06
-8.47832e-05
-5.31117e-06
-7.95909e-05
-5.18977e-06
-7.45045e-05
-5.0857e-06
-6.95556e-05
-4.95008e-06
-6.48084e-05
-4.74894e-06
-6.03359e-05
-4.47422e-06
-5.62568e-05
-4.08073e-06
-5.26812e-05
-3.57685e-06
-4.96895e-05
-2.99226e-06
-4.73186e-05
-2.37058e-06
-4.5507e-05
-1.81105e-06
-4.40795e-05
-1.42798e-06
-4.27113e-05
-1.3709e-06
-4.08702e-05
-1.84655e-06
-3.78233e-05
-3.05559e-06
-3.26337e-05
-5.2011e-06
-2.43179e-05
-8.32872e-06
-1.21515e-05
-1.21779e-05
3.79509e-06
-1.59534e-05
2.22591e-05
-1.84646e-05
4.08983e-05
-1.86343e-05
5.64345e-05
-1.55294e-05
6.60163e-05
-9.57799e-06
6.85102e-05
-2.49299e-06
6.50074e-05
3.49671e-06
5.85302e-05
6.46318e-06
5.37626e-05
4.75135e-06
5.55514e-05
-1.80665e-06
6.93224e-05
-1.37832e-05
9.74061e-05
-2.80981e-05
0.000138512
-4.11182e-05
0.000182376
-4.38761e-05
0.000216093
-3.37277e-05
0.000228307
-1.22235e-05
0.000216825
1.14699e-05
0.000188223
2.85913e-05
0.000153842
3.43739e-05
0.000129852
2.3984e-05
0.000133066
-3.22506e-06
0.000184133
-5.10704e-05
0.000261707
-7.75778e-05
0.000288024
-2.63123e-05
0.000188147
9.98606e-05
-9.82952e-05
0.000286423
-0.000574298
0.000475994
-0.00107085
0.000496549
-0.00139428
0.000323427
-0.00134187
-5.24287e-05
-0.000759979
-0.000581906
0.000679434
-0.0014394
0.0017469
-0.00106747
0.00267517
-0.000928287
0.00341182
-0.000736613
0.000844963
0.00256685
-0.000441665
0.00128662
0.000248091
-0.00068976
-9.07472e-05
0.000338846
0.000268658
-0.00035941
0.000624791
-0.000356152
0.00093607
-0.000311279
0.00109581
-0.000159738
0.00074163
0.000354175
-0.000482344
0.00122397
-0.00237
0.00188765
-0.00443238
0.00206238
-0.00608761
0.00165522
-0.0068224
0.000734805
-0.0063581
-0.000464295
-0.00505198
-0.00130612
-0.00376397
-0.00128801
-0.00233495
-0.00142901
-0.000807049
-0.00152789
0.000276264
-0.00108331
0.000516256
-0.000239985
0.000679338
-0.000163077
0.000392237
0.000287102
8.92948e-05
0.00030294
-0.00016943
0.0331421
0.0298813
-0.0421028
0.0221963
0.0201668
0.0140083
0.0116601
0.00898615
0.00632287
0.00604191
0.0035351
0.00423528
0.00215223
0.0030359
0.00143206
0.00218676
0.0010161
0.00155932
0.000751376
0.00108171
0.000571368
0.00071183
0.000442616
0.000421345
0.000346928
0.000191785
0.000273827
1.3459e-05
0.000213085
-0.000139741
0.000179234
-0.000259773
0.000140944
-0.000353939
0.000109516
-0.000427925
8.55038e-05
-0.000484877
6.49009e-05
-0.000527685
4.7924e-05
-0.000558767
3.38873e-05
-0.000579979
2.21458e-05
-0.000593229
1.25457e-05
-0.000599499
4.22004e-06
-0.00059986
-3.14094e-06
-0.000595799
-8.4595e-06
-0.000587713
-1.28688e-05
-0.000576498
-1.64603e-05
-0.000562791
-1.94613e-05
-0.000547011
-2.1863e-05
-0.000529714
-2.35823e-05
-0.000511367
-2.46984e-05
-0.000492287
-2.54526e-05
-0.000472697
-2.59643e-05
-0.000452826
-2.62002e-05
-0.00043285
-2.62284e-05
-0.000412942
-2.60384e-05
-0.000393235
-2.56975e-05
-0.000373805
-2.52786e-05
-0.00035467
-2.48456e-05
-0.000335909
-2.43208e-05
-0.000317513
-2.38174e-05
-0.000299431
-2.33895e-05
-0.000281684
-2.29356e-05
-0.000264249
-2.25226e-05
-0.000247236
-2.19674e-05
-0.000230872
-2.11161e-05
-0.000215425
-1.99259e-05
-0.000201291
-1.82175e-05
-0.000188861
-1.60085e-05
-0.00017842
-1.34329e-05
-0.0001701
-1.06895e-05
-0.000163702
-8.21048e-06
-0.000158622
-6.51297e-06
-0.000153737
-6.26625e-06
-0.000147219
-8.38187e-06
-0.000136538
-1.37599e-05
-0.000118478
-2.32852e-05
-8.96635e-05
-3.71653e-05
-4.76931e-05
-5.41626e-05
7.34535e-06
-7.09956e-05
7.14356e-05
-8.25484e-05
0.000136586
-8.37718e-05
0.000191871
-7.08014e-05
0.00022758
-4.52803e-05
0.000239609
-1.45311e-05
0.000231594
1.14898e-05
0.000214088
2.39377e-05
0.000203219
1.55822e-05
0.000216041
-1.46646e-05
0.000269931
-6.7711e-05
0.000372459
-0.000130658
0.00051737
-0.000186057
0.000671106
-0.000197638
0.000789851
-0.000152498
0.00083625
-5.86468e-05
0.000800581
4.71174e-05
0.000702439
0.000126713
0.000579386
0.000157413
0.000485251
0.000118108
0.000480109
1.90873e-06
0.000626764
-0.00019773
0.000854584
-0.000305406
0.00090302
-7.47657e-05
0.000506849
0.000496017
-0.000538357
0.0013316
-0.00217732
0.00211494
-0.00383047
0.00214968
-0.00474319
0.00123614
-0.0045302
-0.000265414
-0.00246627
-0.00264586
0.0020043
-0.00590996
0.00541522
-0.0044784
0.00884195
-0.00435501
0.0112226
-0.0031173
0.00354218
0.0102473
-0.000881651
0.00571048
0.00090675
-0.00247817
-0.000138486
0.00138407
0.000965094
-0.00146299
0.00225545
-0.00164654
0.00314547
-0.00120131
0.00354937
-0.000563663
0.00182344
0.00208008
-0.00264754
0.00569494
-0.00902227
0.00826236
-0.0155183
0.0085584
-0.0203411
0.00647801
-0.0220746
0.00246836
-0.0201421
-0.00239681
-0.0157367
-0.00571148
-0.011536
-0.00548871
-0.00711216
-0.00585286
-0.00213519
-0.00650485
0.0012131
-0.00443158
0.00194499
-0.000971864
0.00227787
-0.000495959
0.00122785
0.00133712
0.000312707
0.00121807
-0.00081999
0.0428737
0.0322154
-0.0452078
0.0355445
0.0274961
0.0269719
0.0202327
0.0195982
0.0136966
0.0141495
0.0089838
0.0103391
0.00596264
0.00766371
0.00410746
0.00572854
0.00295128
0.00428259
0.00219734
0.00317357
0.0016804
0.00230605
0.00131015
0.00161781
0.00103516
0.0010663
0.000825341
0.000621209
0.000658188
0.000263674
0.000536794
-2.46117e-05
0.000429236
-0.000262581
0.000347454
-0.000452737
0.000275626
-0.00060409
0.000216281
-0.000723129
0.000167044
-0.000815287
0.000126037
-0.000884816
9.1572e-05
-0.000935075
6.28554e-05
-0.000969075
3.82354e-05
-0.000989115
1.67471e-05
-0.000998239
7.49969e-07
-0.000998177
-1.27949e-05
-0.000990472
-2.4162e-05
-0.000976154
-3.37563e-05
-0.000956628
-4.13566e-05
-0.000932966
-4.72366e-05
-0.000906164
-5.14866e-05
-0.000877001
-5.45835e-05
-0.000846048
-5.68836e-05
-0.000813834
-5.83932e-05
-0.000780778
-5.92687e-05
-0.000747284
-5.95119e-05
-0.000713684
-5.92752e-05
-0.000680186
-5.87596e-05
-0.000646904
-5.81159e-05
-0.000614019
-5.7198e-05
-0.000581575
-5.62546e-05
-0.00054953
-5.54299e-05
-0.000517947
-5.45177e-05
-0.000486824
-5.3648e-05
-0.000456365
-5.24297e-05
-0.000426992
-5.04933e-05
-0.000399197
-4.77258e-05
-0.000373693
-4.37248e-05
-0.000351194
-3.85083e-05
-0.000332232
-3.23947e-05
-0.000317056
-2.58641e-05
-0.000305329
-1.99394e-05
-0.000295975
-1.5873e-05
-0.000286976
-1.5278e-05
-0.000275047
-2.03299e-05
-0.000255638
-3.31942e-05
-0.000222984
-5.59653e-05
-0.000171065
-8.91086e-05
-9.55216e-05
-0.000129721
3.70602e-06
-0.000170227
0.000119603
-0.000198438
0.000238328
-0.000202483
0.000340642
-0.000173102
0.000409124
-0.000113758
0.000436186
-4.16025e-05
0.000427956
1.96959e-05
0.000403678
4.8181e-05
0.000392138
2.70832e-05
0.000423902
-4.6469e-05
0.000529211
-0.000173057
0.000720703
-0.000322183
0.000985983
-0.000451366
0.00126638
-0.00047806
0.0014846
-0.000370745
0.00157496
-0.000149031
0.00151704
0.000105008
0.00134171
0.000302025
0.00111357
0.000385531
0.000927955
0.000303715
0.000893552
3.63095e-05
0.00111508
-0.000419269
0.00147167
-0.000662005
0.00150161
-0.000104727
0.000717345
0.00128026
-0.0012356
0.00328453
-0.00420016
0.00507949
-0.00706005
0.00500955
-0.00845125
0.00262733
-0.00794547
-0.000771183
-0.00428295
-0.00630841
0.00310958
-0.0133025
0.00898661
-0.0103555
0.0152344
-0.0106028
0.0195642
-0.00744719
0.00719776
0.0226137
-0.000748896
0.0136572
0.00175686
-0.00498394
-4.46993e-05
0.00318563
0.00183323
-0.00334092
0.00415414
-0.00396748
0.00557738
-0.00262456
0.00599954
-0.000985841
0.00231915
0.00576045
-0.00606252
0.0140766
-0.0173131
0.0195129
-0.0281099
0.0193552
-0.0355733
0.0139415
-0.0376487
0.00454372
-0.0337732
-0.00627228
-0.0260428
-0.0134419
-0.0189487
-0.0125827
-0.0115304
-0.0132712
-0.00308121
-0.014954
0.0025303
-0.0100431
0.00369747
-0.00213903
0.00405488
-0.000853361
0.00208151
0.00331048
0.000603248
0.00269632
-0.00209792
0.0486879
0.0317519
-0.0482244
0.0453812
0.0308028
0.0390466
0.0265673
0.0316722
0.021071
0.0248196
0.0158364
0.0191746
0.0116076
0.0147794
0.00850274
0.0114081
0.00632258
0.00880652
0.00479891
0.00677253
0.0037144
0.0051606
0.00292207
0.0038683
0.00232746
0.00282282
0.00187082
0.00197113
0.00150989
0.0012774
0.00123054
0.00070818
0.000998465
0.000243165
0.00081245
-0.00013693
0.000655699
-0.000447337
0.000526706
-0.000697186
0.000416931
-0.000896557
0.000325388
-0.00105289
0.000247871
-0.00117309
0.000183095
-0.00126264
0.000127763
-0.00132714
8.12264e-05
-0.00136932
4.3071e-05
-0.00139269
1.06434e-05
-0.00140117
-1.57072e-05
-0.00139793
-3.69635e-05
-0.00138363
-5.56298e-05
-0.00136081
-7.00563e-05
-0.0013312
-8.10684e-05
-0.00129631
-8.94382e-05
-0.00125725
-9.59128e-05
-0.00121502
-0.000100606
-0.00117043
-0.000103838
-0.00112426
-0.000105664
-0.00107714
-0.000106371
-0.00102952
-0.000106365
-0.000981671
-0.000105951
-0.00093396
-0.000104899
-0.00088655
-0.000103658
-0.000839449
-0.000102526
-0.0007928
-0.000101166
-0.000746655
-9.9795e-05
-0.000701341
-9.77475e-05
-0.000657505
-9.43335e-05
-0.000615903
-8.93319e-05
-0.000577609
-8.2022e-05
-0.000543715
-7.24033e-05
-0.000515045
-6.10644e-05
-0.000492003
-4.89055e-05
-0.000474118
-3.78266e-05
-0.000459803
-3.01946e-05
-0.000446047
-2.90472e-05
-0.000427943
-3.84537e-05
-0.000398687
-6.24772e-05
-0.00034968
-0.000105001
-0.000271959
-0.000166854
-0.000158935
-0.00024276
-1.02974e-05
-0.000318868
0.000164289
-0.000373016
0.000344486
-0.000382664
0.000502229
-0.000330831
0.000611503
-0.000223026
0.000660373
-9.04821e-05
0.000657531
2.25123e-05
0.000631534
7.41414e-05
0.000625265
3.33112e-05
0.000684123
-0.00010537
0.000852058
-0.000341032
0.00114669
-0.000616852
0.00154896
-0.000853661
0.00197403
-0.00090316
0.00230882
-0.000705564
0.0024557
-0.000295947
0.00237955
0.000181137
0.00212012
0.000561428
0.00176934
0.000736299
0.00146838
0.000604661
0.00137948
0.000125206
0.00165118
-0.000690982
0.00210776
-0.00111859
0.00206694
-6.39338e-05
0.000781636
0.00256555
-0.00224555
0.00631168
-0.00667701
0.00951094
-0.0107538
0.00908634
-0.0124834
0.00435689
-0.0115333
-0.00172131
-0.00617841
-0.0116633
0.00382573
-0.0233066
0.012389
-0.0189187
0.0216534
-0.0198672
0.0281854
-0.0139791
0.0119128
0.0388863
0.000138601
0.0254314
0.00284215
-0.0076875
0.000180107
0.00584766
0.00290932
-0.00607013
0.00631847
-0.00737668
0.00820652
-0.00451261
0.00830667
-0.00108602
0.00198133
0.0120858
-0.0109506
0.0270085
-0.0272653
0.0358277
-0.0420292
0.034119
-0.051385
0.0232972
-0.0530256
0.00618442
-0.0467796
-0.0125183
-0.0356797
-0.0245418
-0.025816
-0.0224464
-0.0155449
-0.0235423
-0.00357031
-0.0269286
0.00428642
-0.0178998
0.00580024
-0.00365284
0.00601406
-0.00106718
0.00296346
0.00636107
0.00100941
0.00465037
-0.00416727
0.0525119
0.0306223
-0.0513824
0.0518793
0.0314355
0.0484864
0.0299602
0.0429488
0.0266086
0.0364527
0.0223326
0.0300441
0.0180162
0.0243277
0.0142192
0.0195075
0.0111428
0.0155509
0.00875554
0.0123321
0.00693313
0.00971317
0.00554106
0.00757392
0.00446671
0.00581836
0.00362638
0.00437118
0.00295707
0.00317722
0.00242451
0.00218824
0.00198745
0.00137017
0.00163051
0.00069365
0.00133221
0.000137021
0.00108334
-0.000320381
0.000874347
-0.000692822
0.000697821
-0.000992405
0.000547472
-0.00123044
0.000421129
-0.00141617
0.000313458
-0.00155747
0.000222589
-0.00166129
0.000146913
-0.00173434
8.36568e-05
-0.00177983
2.98076e-05
-0.00180181
-1.49464e-05
-0.00180753
-4.98894e-05
-0.00179694
-8.06438e-05
-0.00177372
-0.00010426
-0.00174042
-0.000122699
-0.00169901
-0.0001373
-0.00165117
-0.000148426
-0.00159834
-0.000156649
-0.00154183
-0.00016215
-0.00148276
-0.000165419
-0.00142193
-0.000167173
-0.00135992
-0.000167955
-0.00129734
-0.000167465
-0.00123458
-0.000166415
-0.00117175
-0.000165345
-0.00110915
-0.000163769
-0.00104692
-0.000162027
-0.000985544
-0.000159123
-0.000925947
-0.000153935
-0.000869189
-0.000146094
-0.000816753
-0.000134461
-0.000770169
-0.000118989
-0.000730608
-0.000100625
-0.000698671
-8.08416e-05
-0.000673769
-6.27313e-05
-0.000653769
-5.02019e-05
-0.000634577
-4.82527e-05
-0.000609506
-6.35473e-05
-0.000569267
-0.000102744
-0.000502156
-0.000172142
-0.000395949
-0.000273087
-0.00024155
-0.000397176
-3.81773e-05
-0.000522244
0.000201923
-0.000613107
0.000451816
-0.000632541
0.000674119
-0.000553118
0.000833392
-0.000382294
0.000912497
-0.000169598
0.000922257
1.27251e-05
0.000901314
9.50455e-05
0.000907578
2.70031e-05
0.00100243
-0.000200265
0.00124432
-0.000582966
0.00165577
-0.00102834
0.00221118
-0.0014091
0.00279923
-0.00149124
0.00326938
-0.00117575
0.00348829
-0.00051488
0.00340107
0.000268329
0.00305272
0.000909755
0.0025616
0.0012274
0.00211901
0.00104723
0.00194537
0.000298841
0.00223409
-0.000979711
0.00275102
-0.00163553
0.00257251
0.000114542
0.000656785
0.00448125
-0.00361981
0.0105882
-0.00964847
0.0155396
-0.0148897
0.0143275
-0.0167619
0.00622913
-0.0151749
-0.00330832
-0.00813135
-0.0187069
0.00394098
-0.0353789
0.0155813
-0.0305591
0.0279723
-0.0322582
0.0367432
-0.02275
0.0177242
0.0579052
0.00172201
0.0414336
0.00419732
-0.0101628
0.000598718
0.00944625
0.00421218
-0.00968359
0.00875305
-0.0119176
0.0109983
-0.00675789
0.0103339
-0.000421643
0.000633106
0.0217866
-0.0174296
0.0450712
-0.038818
0.0572161
-0.0569403
0.0522413
-0.0672865
0.0336434
-0.0677314
0.00662931
-0.0588346
-0.021415
-0.0444989
-0.0388776
-0.0321141
-0.0348311
-0.019109
-0.0365474
-0.00365773
-0.0423798
0.00649245
-0.02805
0.00828141
-0.00544178
0.00818234
-0.000968105
0.00391491
0.0106285
0.0015949
0.00697037
-0.00719599
0.0556606
0.0296629
-0.0547011
0.0562098
0.0308863
0.0551236
0.0310464
0.0519948
0.0297374
0.047182
0.0271454
0.0414149
0.0237833
0.0354177
0.0202163
0.0297146
0.016846
0.0245898
0.0138803
0.0201396
0.0113834
0.0163478
0.00933286
0.0131475
0.00766699
0.0104575
0.00631637
0.00819926
0.00521531
0.00630645
0.00431734
0.00471906
0.00357485
0.00338987
0.00295969
0.00227808
0.00244399
0.00135105
0.00201038
0.000581345
0.00164406
-5.34337e-05
0.00133261
-0.000575584
0.00106966
-0.000999094
0.000844614
-0.00133882
0.000653127
-0.00160694
0.000490762
-0.00181396
0.000353879
-0.00196882
0.00023854
-0.00208115
0.000142201
-0.00215759
6.15207e-05
-0.00219911
-8.35434e-06
-0.00221873
-6.10233e-05
-0.002216
-0.000106954
-0.00219569
-0.000142982
-0.00216102
-0.000171943
-0.00211478
-0.000194637
-0.00205932
-0.000212092
-0.00199674
-0.000224705
-0.00192886
-0.000233278
-0.00185704
-0.000238966
-0.0017823
-0.00024269
-0.00170566
-0.000244091
-0.00162784
-0.000244231
-0.00154917
-0.00024401
-0.00147015
-0.000242785
-0.0013911
-0.000241072
-0.00131273
-0.000237501
-0.00123626
-0.000230405
-0.00116313
-0.000219229
-0.00109529
-0.000202312
-0.00103476
-0.000179517
-0.000983134
-0.000152249
-0.00094126
-0.000122715
-0.000908453
-9.55416e-05
-0.000882006
-7.66566e-05
-0.000856657
-7.36161e-05
-0.000823781
-9.6447e-05
-0.000771392
-0.000155163
-0.000684424
-0.000259141
-0.00054711
-0.000410428
-0.000347549
-0.000596754
-8.41829e-05
-0.000785613
0.000228289
-0.000925569
0.000556462
-0.000960696
0.000853265
-0.000849906
0.00107303
-0.000602049
0.00119234
-0.00028892
0.0012237
-1.86635e-05
0.00121557
0.000103126
0.00124234
1.92537e-07
0.00138201
-0.000339984
0.00170834
-0.000909335
0.00224899
-0.00156903
0.0029727
-0.00213284
0.0037423
-0.00226088
0.00436866
-0.00180214
0.00467866
-0.000824917
0.00459165
0.000355318
0.00415262
0.00134875
0.00350429
0.00187572
0.00289217
0.00165933
0.00259969
0.000591313
0.00286568
-0.00124571
0.00339178
-0.00216164
0.00299307
0.000513224
0.000295315
0.00717898
-0.00540791
0.0162914
-0.013132
0.0232636
-0.0194185
0.0206141
-0.0211855
0.00799603
-0.0187841
-0.00570968
-0.010154
-0.027337
0.00320588
-0.0487387
0.01853
-0.0458832
0.0340878
-0.047816
0.0448629
-0.0335251
0.0246198
0.0781483
0.00422438
0.061829
0.00587043
-0.0118089
0.00127622
0.0140404
0.00576159
-0.014169
0.0114535
-0.0176096
0.0138956
-0.00919992
0.0119267
0.00154715
-0.00184284
0.0355561
-0.0255731
0.0688014
-0.0517719
0.0834149
-0.0724071
0.0728765
-0.0827423
0.0439786
-0.0813398
0.00522683
-0.0697196
-0.0330352
-0.0524784
-0.0561188
-0.0378372
-0.0494723
-0.0223129
-0.0520717
-0.00341622
-0.0612764
0.00915682
-0.040623
0.0111706
-0.00745551
0.0105838
-0.000381299
0.00498411
0.0162281
0.00243041
0.00952406
-0.0113497
0.0589129
0.0289946
-0.0582446
0.0596914
0.0301079
0.0598265
0.0309113
0.0586337
0.0309302
0.0558619
0.0299172
0.0516945
0.0279507
0.0465706
0.0253402
0.0409911
0.0224255
0.0353886
0.0194828
0.0300711
0.0167009
0.0252173
0.0141867
0.0209016
0.0119826
0.0171298
0.0100883
0.0138687
0.0084764
0.0110708
0.0071152
0.00868138
0.0059643
0.00664921
0.00499186
0.00492651
0.00416668
0.00347181
0.00346509
0.00224864
0.00286724
0.00122521
0.00235605
0.000374737
0.00192016
-0.000327126
0.00154644
-0.000901323
0.00122727
-0.00136541
0.000954881
-0.00173513
0.000723579
-0.00202402
0.000527493
-0.00224392
0.000362149
-0.00240571
0.000223316
-0.00252236
0.000108277
-0.00259109
7.71972e-06
-0.00263002
-6.79886e-05
-0.00263996
-0.000133014
-0.00262598
-0.000185894
-0.00259257
-0.000228029
-0.00254342
-0.000261214
-0.0024818
-0.000286294
-0.00241055
-0.000304508
-0.00233186
-0.000317635
-0.00224738
-0.000327155
-0.00215877
-0.000332695
-0.00206722
-0.00033577
-0.00197343
-0.000337796
-0.00187823
-0.000337985
-0.0017822
-0.000337101
-0.00168632
-0.000333385
-0.00159222
-0.000324508
-0.00150176
-0.000309696
-0.00141741
-0.00028666
-0.0013418
-0.000255126
-0.001277
-0.00021705
-0.00122417
-0.000175548
-0.00118255
-0.000137158
-0.00114887
-0.000110352
-0.00111661
-0.000105895
-0.00107506
-0.000138014
-0.00100936
-0.000220894
-0.000900842
-0.000367695
-0.00072994
-0.000581359
-0.000481656
-0.000845056
-0.000153321
-0.00111395
0.000238215
-0.00131709
0.000653336
-0.0013758
0.00103514
-0.00123169
0.00132698
-0.000893883
0.00149803
-0.000459982
0.0015614
-8.20653e-05
0.0015754
8.90859e-05
0.00163102
-5.54878e-05
0.00182392
-0.000532925
0.00224363
-0.00132909
0.0029238
-0.00224925
0.00382917
-0.00303825
0.00479859
-0.00323033
0.00560402
-0.00260761
0.00602843
-0.00124936
0.00595817
0.000425545
0.0054313
0.0018756
0.00461107
0.00269593
0.00380079
0.0024696
0.00335178
0.00104032
0.00354774
-0.00144168
0.00401862
-0.00263254
0.00329727
0.00123455
-0.00033957
0.0108158
-0.00765478
0.0236066
-0.0171279
0.0327367
-0.0242602
0.0277464
-0.0256331
0.00936892
-0.0222697
-0.00907304
-0.0123171
-0.0372897
0.00142527
-0.0624811
0.0212039
-0.0656618
0.0398859
-0.0664981
0.0522589
-0.0458981
0.0325265
0.0978806
0.00768296
0.0866726
0.00792655
-0.0120525
0.00226081
0.0197062
0.00756893
-0.0194771
0.014406
-0.0244467
0.0168321
-0.011626
0.0129199
0.00545938
-0.00564036
0.0541163
-0.0353602
0.0985212
-0.0658214
0.113876
-0.08792
0.0949752
-0.097317
0.0533755
-0.0936517
0.00156154
-0.0794856
-0.0472013
-0.0597787
-0.0758256
-0.0431071
-0.0661439
-0.0252861
-0.0698927
-0.00304113
-0.0835213
0.0122499
-0.055914
0.0144936
-0.00969921
0.0132641
0.000848153
0.0062465
0.0232458
0.00359299
0.0121776
-0.0167748
0.0625291
0.0285102
-0.0620447
0.0631706
0.0294664
0.0636841
0.0303978
0.063577
0.0310373
0.0624219
0.0310723
0.060023
0.0303497
0.0564411
0.0289222
0.0519177
0.026949
0.0467806
0.0246198
0.0413673
0.0221143
0.035971
0.019583
0.0308129
0.0171407
0.0260361
0.0148651
0.0217143
0.0127981
0.0178718
0.0109577
0.0144974
0.00933866
0.0115624
0.00792687
0.0090282
0.00670088
0.00685409
0.00563921
0.00499998
0.00472135
0.00342806
0.00392799
0.00210406
0.00324416
0.000996235
0.00265424
7.66996e-05
0.00214678
-0.000679717
0.00171134
-0.00129503
0.00133892
-0.00178884
0.00102136
-0.00217852
0.000751856
-0.00247913
0.00052391
-0.00270336
0.000332508
-0.00286957
0.000173941
-0.00297555
3.80282e-05
-0.00303964
-6.88889e-05
-0.00306743
-0.000158079
-0.00306376
-0.000231677
-0.00303457
-0.00029038
-0.00298487
-0.000335958
-0.00291893
-0.000370423
-0.00284016
-0.000396386
-0.00275116
-0.000416145
-0.00265445
-0.000429387
-0.002552
-0.000438211
-0.00244502
-0.000444767
-0.00233486
-0.000448147
-0.00222248
-0.00044948
-0.00210924
-0.000446631
-0.00199726
-0.00043649
-0.00188891
-0.000418054
-0.00178727
-0.000388296
-0.00169565
-0.000346746
-0.00161669
-0.000296014
-0.00155193
-0.000240306
-0.00150062
-0.000188472
-0.00145888
-0.000152104
-0.00141891
-0.000145882
-0.00136782
-0.000189132
-0.00128767
-0.000301073
-0.00115602
-0.000499378
-0.000949294
-0.000788115
-0.000649112
-0.00114526
-0.000251311
-0.00151175
0.000225537
-0.00179393
0.000736109
-0.00188635
0.00121373
-0.00170929
0.00159018
-0.00127033
0.00182599
-0.000695799
0.00193338
-0.000189492
0.00197931
4.31079e-05
0.0020724
-0.000148621
0.00232557
-0.000786152
0.00284532
-0.00184889
0.00367247
-0.00307644
0.0047705
-0.00413632
0.00595732
-0.00441719
0.00696661
-0.00361693
0.00753344
-0.00181623
0.00750299
0.000455968
0.00689733
0.00248123
0.00589444
0.00369881
0.00485794
0.00350608
0.00421205
0.0016862
0.00428366
-0.0015133
0.00461971
-0.00296861
0.00345262
0.00240161
-0.00129469
0.0155631
-0.0103953
0.0327072
-0.0216115
0.0439529
-0.0293081
0.035443
-0.0299813
0.0100421
-0.0255998
-0.0134546
-0.0147544
-0.0481351
-0.00134126
-0.0758942
0.0235911
-0.0905942
0.0451437
-0.0880506
0.0588029
-0.0595573
0.0413533
0.11533
0.0121415
0.115884
0.0104524
-0.0103634
0.00360649
0.0265521
0.00964104
-0.0255116
0.0175814
-0.0323871
0.0197076
-0.0137523
0.0131381
0.0120289
-0.0109184
0.0781728
-0.0466739
0.134277
-0.0805633
0.147765
-0.102987
0.117399
-0.110713
0.0611017
-0.104702
-0.00444966
-0.088364
-0.0635392
-0.0666603
-0.0975292
-0.0480547
-0.0847495
-0.0282425
-0.089705
-0.00278153
-0.108982
0.0157085
-0.074404
0.0182716
-0.0122623
0.0162766
0.00284318
0.00779179
0.0317306
0.00516083
0.0148085
-0.0235832
0.0664983
0.0281163
-0.0661044
0.0669727
0.028992
0.0674735
0.029897
0.0677705
0.0307404
0.0675396
0.0313031
0.0664884
0.0314009
0.0644487
0.0309619
0.0613992
0.0299985
0.0574452
0.0285739
0.0527802
0.0267793
0.0476444
0.0247188
0.0422876
0.0224975
0.0369385
0.0202142
0.0317827
0.017954
0.0269535
0.0157869
0.0225313
0.0137608
0.0185534
0.0119048
0.0150245
0.0102298
0.0119291
0.00873457
0.00923973
0.00741076
0.00692244
0.00624529
0.00494163
0.00522497
0.00326114
0.00433473
0.00184666
0.00356128
0.000666132
0.00289191
-0.000309891
0.00231499
-0.00110821
0.00181972
-0.001753
0.00139665
-0.00226569
0.00103658
-0.00266544
0.000732256
-0.00296799
0.000476521
-0.00319402
0.000264103
-0.00334823
8.53559e-05
-0.00344483
-6.1456e-05
-0.00349665
-0.000179835
-0.00350786
-0.000279137
-0.00348655
-0.000357238
-0.00343919
-0.000417753
-0.00337095
-0.000464611
-0.00328576
-0.000501314
-0.00318744
-0.000527698
-0.00307902
-0.000546617
-0.00296253
-0.000561251
-0.00284004
-0.000570633
-0.00271311
-0.000576415
-0.00258359
-0.000576152
-0.00245424
-0.000565845
-0.00232803
-0.000544267
-0.00220876
-0.000507566
-0.00210052
-0.000454994
-0.00200661
-0.000389923
-0.00192907
-0.000317842
-0.00186721
-0.000250336
-0.00181658
-0.000202741
-0.00176808
-0.000194401
-0.00170654
-0.000250696
-0.00161088
-0.000396774
-0.00145472
-0.000655572
-0.00121031
-0.00103256
-0.000855634
-0.00149995
-0.00038461
-0.00198278
0.000183018
-0.00236155
0.000797023
-0.00250034
0.00138123
-0.00229348
0.0018554
-0.0017445
0.00216992
-0.00101034
0.00233433
-0.000353934
0.00242309
-4.57015e-05
0.00256137
-0.000286949
0.00288003
-0.00110487
0.00350336
-0.00247227
0.00448139
-0.00405451
0.00578009
-0.00543506
0.00720073
-0.00583787
0.0084404
-0.00485664
0.00918272
-0.00255859
0.00922279
0.00041587
0.00855557
0.00314842
0.00736519
0.00488917
0.00607667
0.00479459
0.00519188
0.00257097
0.0050776
-0.00139902
0.00518288
-0.0030739
0.00342356
0.0041609
-0.00262744
0.021614
-0.0136516
0.0437312
-0.0265294
0.0568307
-0.034437
0.0433506
-0.0341257
0.00973077
-0.0288115
-0.0187688
-0.0176364
-0.0593102
-0.0046733
-0.0888572
0.0257696
-0.121037
0.0494592
-0.11174
0.064531
-0.0746291
0.0510134
0.128848
0.0176322
0.149266
0.0135447
-0.00627586
0.00536934
0.0347274
0.0119788
-0.0321211
0.0209339
-0.0413423
0.0224107
-0.0152291
0.012416
0.0220235
-0.0177431
0.108332
-0.0593006
0.175834
-0.0955468
0.184012
-0.117219
0.139071
-0.122926
0.0668087
-0.114802
-0.0125733
-0.0967782
-0.0815634
-0.0734594
-0.120848
-0.0528592
-0.10535
-0.0313965
-0.111168
-0.00293525
-0.137443
0.0194133
-0.0967525
0.0225172
-0.0153662
0.019692
0.0056684
0.00973093
0.0416916
0.00721266
0.0173268
-0.0318352
0.0707793
0.0277712
-0.0704342
0.0711505
0.0286208
0.0715542
0.0294933
0.0719115
0.0303832
0.0720542
0.0311604
0.0717653
0.0316899
0.0708388
0.0318884
0.0691253
0.0317119
0.0665556
0.0311437
0.063143
0.0301919
0.0589751
0.0288867
0.0541986
0.0272739
0.049001
0.0254118
0.0435876
0.0233674
0.0381591
0.0212154
0.0328893
0.0190307
0.027912
0.0168821
0.0233168
0.014825
0.0191526
0.0128987
0.0154369
0.0111265
0.0121635
0.00951861
0.00931215
0.00807637
0.00685281
0.0067941
0.00475128
0.00566285
0.00297176
0.00467149
0.00147878
0.00380801
0.000238318
0.00306019
-0.000780806
0.00241576
-0.00160841
0.00186417
-0.00227078
0.00139464
-0.00279139
0.000997163
-0.00319026
0.00066301
-0.00349022
0.000385353
-0.00370443
0.000152781
-0.0038419
-4.23404e-05
-0.0039249
-0.000196102
-0.00395672
-0.000325389
-0.00394794
-0.000426508
-0.00390628
-0.000506248
-0.00383775
-0.000569828
-0.00374795
-0.000617482
-0.00364152
-0.000653035
-0.00352165
-0.00068111
-0.0033915
-0.000700782
-0.00325346
-0.000714458
-0.0031101
-0.000719518
-0.00296496
-0.000710979
-0.00282179
-0.000687448
-0.0026852
-0.000644162
-0.00256018
-0.000580013
-0.00245085
-0.000499251
-0.00235986
-0.000408836
-0.00228667
-0.000323531
-0.00222633
-0.000263087
-0.00216845
-0.000252296
-0.00209559
-0.000323585
-0.00198345
-0.00050895
-0.00180171
-0.000837356
-0.00151831
-0.00131599
-0.00110738
-0.00191089
-0.000560441
-0.00252972
0.000102188
-0.00302416
0.000826699
-0.00322483
0.00152772
-0.00299449
0.0021128
-0.00232957
0.00252064
-0.00141819
0.00275586
-0.000589199
0.00289815
-0.00018804
0.00308836
-0.000477216
0.00347505
-0.00149161
0.00420173
-0.00319899
0.00533043
-0.00518327
0.0068344
-0.00693907
0.00850375
-0.00750726
0.0100018
-0.00635471
0.0109582
-0.00351502
0.0111079
0.000266068
0.0104062
0.00385012
0.00903178
0.00626359
0.0074696
0.00635675
0.00630339
0.00373718
0.00593481
-0.00103045
0.00569513
-0.00283424
0.00317292
0.00668308
-0.00438011
0.029167
-0.0174295
0.0567806
-0.0318028
0.071204
-0.0395203
0.0510681
-0.0380074
0.00821777
-0.0320409
-0.0247353
-0.0211239
-0.0702272
-0.00789663
-0.102085
0.0279131
-0.156847
0.052314
-0.136141
0.0695786
-0.0918936
0.0614437
0.136983
0.0241984
0.186511
0.0173301
0.000592373
0.0076128
0.0444447
0.0145799
-0.0390882
0.0243979
-0.0511604
0.0247981
-0.0156293
0.0105965
0.0362251
-0.026126
0.145054
-0.072942
0.22265
-0.110274
0.221344
-0.130397
0.159193
-0.134115
0.0705271
-0.124392
-0.0222964
-0.105182
-0.100773
-0.0804668
-0.145564
-0.057676
-0.12814
-0.0348955
-0.133948
-0.00373839
-0.168601
0.0231713
-0.123662
0.0272277
-0.0194226
0.0235886
0.00930745
0.0121879
0.0530924
0.00982873
0.0196859
-0.0415279
0.0753719
0.0274595
-0.0750602
0.0756887
0.0283041
0.0760171
0.0291649
0.0763325
0.0300678
0.0765646
0.0309283
0.0765974
0.0316571
0.0762861
0.0321997
0.0754817
0.0325163
0.0740544
0.032571
0.0719114
0.0323349
0.0690071
0.0317909
0.0653493
0.0309317
0.0610007
0.0297604
0.0560763
0.0282918
0.050735
0.0265568
0.0451623
0.0246034
0.0395494
0.022495
0.0340705
0.0203039
0.028867
0.0181022
0.0240394
0.0159542
0.0196481
0.0139098
0.0157202
0.0120043
0.0122564
0.010258
0.00923973
0.00867953
0.00664199
0.00726927
0.0044285
0.00602152
0.00256172
0.00492697
0.00100356
0.00397392
-0.000282607
0.00315034
-0.00133098
0.00244304
-0.00217479
0.00184101
-0.0028421
0.00133036
-0.00335893
0.000902206
-0.00374971
0.000543588
-0.00403851
0.00024649
-0.00422701
-7.5702e-06
-0.00434975
-0.000202608
-0.00440912
-0.000367111
-0.00441804
-0.000497304
-0.00438545
-0.0006024
-0.00431962
-0.000683301
-0.00422745
-0.000745188
-0.00411388
-0.000794673
-0.00398361
-0.000831047
-0.00384026
-0.000857803
-0.0036874
-0.000872385
-0.00352962
-0.00086876
-0.00337159
-0.000845486
-0.00321891
-0.000796846
-0.00307765
-0.000721269
-0.00295289
-0.000624012
-0.00284803
-0.000513692
-0.00276286
-0.00040871
-0.00269203
-0.000333932
-0.00262394
-0.000320403
-0.00253894
-0.00040862
-0.00240958
-0.000638348
-0.00220162
-0.00104535
-0.00187872
-0.00163893
-0.00141093