/*--------------------------------*- C++ -*----------------------------------*\
| =========                 |                                                 |
| \\      /  F ield         | OpenFOAM: The Open Source CFD Toolbox           |
|  \\    /   O peration     | Version:  2412                                  |
|   \\  /    A nd           | Website:  www.openfoam.com                      |
|    \\/     M anipulation  |                                                 |
\*---------------------------------------------------------------------------*/
FoamFile
{
    version     2.0;
    format      ascii;
    arch        "LSB;label=32;scalar=64";
    class       volVectorField;
    location    "1.02";
    object      U_0;
}
// * * * * * * * * * * * * * * * * * * * * * * * * * * * * * * * * * * * * * //

dimensions      [0 1 -1 0 0 0 0];

internalField   nonuniform List<vector> 
12600
(
(18.9466 0 -0.585645)
(7.63003 -3.63651e-20 -1.57391)
(3.20021 -1.6269e-20 -1.62517)
(1.61313 0 -1.18963)
(1.00752 -2.27679e-22 -0.786653)
(0.684181 0 -0.528351)
(0.467798 -3.05404e-20 -0.363932)
(0.311907 0 -0.251366)
(0.196343 0 -0.169677)
(0.109194 0 -0.10853)
(0.0418515 0 -0.062821)
(-0.0104928 -9.58017e-20 -0.0274402)
(-0.0511463 -9.78029e-20 0.000372762)
(-0.0829625 0 0.0225019)
(-0.107512 1.99043e-19 0.0390277)
(-0.125509 0 0.0525556)
(-0.139388 3.33073e-22 0.0630453)
(-0.14937 0 0.0708519)
(-0.156535 9.5243e-20 0.0765332)
(-0.161052 0 0.080419)
(-0.163209 0 0.0830504)
(-0.163449 0 0.084496)
(-0.161848 3.51128e-19 0.0853767)
(-0.159632 -3.38475e-19 0.085152)
(-0.156872 6.91311e-23 0.0837256)
(-0.153144 1.60094e-19 0.0822141)
(-0.148521 0 0.0805695)
(-0.143146 0 0.0785106)
(-0.137718 0 0.0760105)
(-0.132273 -2.812e-19 0.0732426)
(-0.126659 -5.42769e-19 0.0703503)
(-0.120869 0 0.067395)
(-0.115042 0 0.0643811)
(-0.109341 -2.42742e-19 0.061345)
(-0.103745 -2.33487e-19 0.058308)
(-0.0982352 0 0.055315)
(-0.0928489 0 0.0523961)
(-0.0875914 -4.15219e-19 0.0495241)
(-0.0825239 0 0.0467194)
(-0.077659 5.39946e-23 0.043984)
(-0.0729221 -3.67228e-19 0.0413333)
(-0.068325 -3.52428e-19 0.0387649)
(-0.0638627 0 0.0362671)
(-0.0595287 -3.23874e-19 0.0338302)
(-0.0553374 -3.10261e-19 0.031466)
(-0.0512918 5.94421e-19 0.0291863)
(-0.047421 -5.69301e-19 0.0270098)
(-0.0437888 0 0.0249699)
(-0.040452 5.21407e-19 0.0230955)
(-0.0374622 -4.98677e-19 0.0214154)
(-0.0348587 0 0.019953)
(-0.032639 -8.90555e-24 0.0187072)
(-0.0307689 4.35559e-19 0.0176569)
(-0.0291552 0 0.0167465)
(-0.0276304 -7.94642e-19 0.0158796)
(-0.0259532 0 0.0149191)
(-0.023789 0 0.0136826)
(-0.0207291 3.81551e-24 0.0119688)
(-0.0164219 1.84844e-24 0.00953652)
(-0.0105853 6.27645e-19 0.00623576)
(-0.00321623 -5.97686e-19 0.00206515)
(0.00539888 1.13739e-18 -0.00281407)
(0.0146123 0 -0.0080466)
(0.0237293 1.02697e-18 -0.0132424)
(0.0322012 9.74687e-19 -0.0180924)
(0.0400865 -1.84875e-18 -0.0226283)
(0.0478968 8.76186e-19 -0.0271396)
(0.0565992 0 -0.0321869)
(0.0671935 0 -0.0383555)
(0.0805705 0 -0.0461626)
(0.0965964 0 -0.0555197)
(0.113274 0 -0.0652556)
(0.126332 -1.27263e-18 -0.0729274)
(0.1298 1.20826e-18 -0.0750442)
(0.11921 0 -0.0692144)
(0.0967684 0 -0.0565517)
(0.0690912 1.04501e-18 -0.04074)
(0.0497366 -9.27562e-23 -0.0294208)
(0.0464925 1.90072e-18 -0.0272344)
(0.0509775 0 -0.0292076)
(0.0513285 0 -0.0288862)
(0.0490269 0 -0.0273428)
(0.0512046 2.47913e-22 -0.0285231)
(0.0680516 0 -0.0380996)
(0.066366 0 -0.0372257)
(0.0575773 1.20766e-18 -0.0324641)
(0.0371996 6.39843e-23 -0.0211297)
(0.0568646 0 -0.0324224)
(0.0689085 0 -0.0391511)
(0.180699 -1.87473e-18 -0.102491)
(0.285106 -1.69453e-18 -0.159687)
(0.56134 -1.48574e-18 -0.316361)
(0.820771 -1.23189e-18 -0.460158)
(1.03902 3.11264e-21 -0.58626)
(0.940284 2.15631e-21 -0.533838)
(1.07913 3.88257e-19 -0.612373)
(0.474228 0 -0.273163)
(0.511421 0 -0.294621)
(0.0731008 0 -0.0447777)
(-0.150332 1.53266e-18 0.0838179)
(0.116569 -5.71366e-19 -0.0651399)
(-0.213472 5.83627e-19 0.121418)
(0.144987 5.88583e-19 -0.0848291)
(0.0938547 0 -0.0534646)
(0.152759 0 -0.0866762)
(0.228607 0 -0.130163)
(0.255386 7.39887e-19 -0.144163)
(0.195109 0 -0.102736)
(-0.274156 -1.4554e-19 0.171094)
(-0.983073 0 0.574409)
(-1.64677 0 0.94042)
(-2.07492 3.29106e-19 1.17888)
(-2.18126 0 1.23725)
(-1.95244 0 1.10312)
(-1.45012 0 0.814847)
(-1.04183 -3.77433e-18 0.583761)
(-0.604524 0 0.335745)
(-0.516349 3.99735e-18 0.288124)
(-0.174249 0 0.0969745)
(0.394924 -1.39455e-21 -0.220854)
(30.3537 -1.52495e-20 -0.885362)
(21.06 2.08338e-20 -3.29523)
(13.2696 1.30796e-20 -4.16945)
(8.3635 0 -3.59743)
(5.54507 -1.29013e-20 -2.6981)
(3.84726 2.31531e-20 -1.96496)
(2.7469 3.18588e-20 -1.4315)
(1.9811 -3.7026e-20 -1.04204)
(1.42057 0 -0.750164)
(0.996972 0 -0.526356)
(0.669865 0 -0.352867)
(0.414159 0 -0.216104)
(0.21234 0 -0.107247)
(0.0509347 0 -0.0199886)
(-0.07581 -7.02954e-22 0.050367)
(-0.175671 0 0.105281)
(-0.255646 1.02212e-19 0.149116)
(-0.317649 0 0.183337)
(-0.365596 -1.97995e-19 0.209682)
(-0.40126 1.95044e-19 0.229293)
(-0.426677 0 0.243606)
(-0.443238 1.87067e-19 0.253893)
(-0.453252 -1.82165e-19 0.259292)
(-0.458461 1.75631e-19 0.26133)
(-0.458384 -1.70235e-19 0.26128)
(-0.454995 0 0.257648)
(-0.447563 1.62026e-19 0.253892)
(-0.437362 0 0.248556)
(-0.425475 0 0.241751)
(-0.412214 0 0.234009)
(-0.397707 2.80661e-19 0.225717)
(-0.382219 0 0.216992)
(-0.366114 0 0.207952)
(-0.349831 0 0.198751)
(-0.333442 0 0.18945)
(-0.317036 0 0.180185)
(-0.300817 0 0.171046)
(-0.284794 4.27209e-19 0.161998)
(-0.269129 0 0.153129)
(-0.253902 7.85758e-19 0.144466)
(-0.238992 7.53583e-19 0.135999)
(-0.224455 3.61192e-19 0.127749)
(-0.21028 0 0.119693)
(-0.196442 0 0.111818)
(-0.183002 6.34212e-19 0.104166)
(-0.170002 -6.06941e-19 0.0967728)
(-0.157547 5.80582e-19 0.0897068)
(-0.145839 0 0.0830818)
(-0.135057 -5.30578e-19 0.0769951)
(-0.125369 0 0.0715417)
(-0.116913 0 0.0667944)
(-0.10969 -4.62223e-19 0.0627467)
(-0.103593 0 0.0593263)
(-0.0983232 0 0.0563467)
(-0.0933431 8.02869e-19 0.053487)
(-0.0878756 0 0.0502937)
(-0.0808473 0 0.0461617)
(-0.0709869 6.79923e-24 0.0403704)
(-0.0571171 6.61917e-19 0.0322126)
(-0.0383225 3.1e-24 0.0212044)
(-0.0145625 0 0.00736486)
(0.0132805 -1.13836e-18 -0.00875792)
(0.0432029 -1.08068e-18 -0.0259969)
(0.0730202 0 -0.0431106)
(0.101014 -1.94267e-18 -0.0591509)
(0.127408 -9.65738e-23 -0.0743147)
(0.153938 0 -0.0896353)
(0.183882 8.23883e-19 -0.107035)
(0.220604 0 -0.128446)
(0.26697 0 -0.155484)
(0.322441 0 -0.187666)
(0.38028 0 -0.220904)
(0.426608 2.50622e-18 -0.24699)
(0.441953 -1.18788e-18 -0.254556)
(0.411122 0 -0.23561)
(0.340303 0 -0.194012)
(0.249401 1.02258e-18 -0.141747)
(0.181608 -1.44926e-22 -0.103695)
(0.162593 -6.10932e-23 -0.0937863)
(0.166568 0 -0.096266)
(0.159876 0 -0.092132)
(0.147641 0 -0.085218)
(0.151855 3.80435e-22 -0.0884239)
(0.20576 -1.34331e-18 -0.119542)
(0.204767 1.24759e-18 -0.11754)
(0.180883 -1.16684e-18 -0.103249)
(0.119944 9.02536e-23 -0.0688595)
(0.183682 -1.02872e-18 -0.107391)
(0.219452 0 -0.130563)
(0.571237 1.80194e-18 -0.33757)
(0.861358 0 -0.510108)
(1.73721 1.42455e-18 -1.02049)
(2.45737 0 -1.43817)
(3.21887 -1.55691e-18 -1.86175)
(2.94737 -5.97928e-19 -1.70628)
(3.4569 0 -1.97769)
(1.63543 0 -0.921656)
(1.73905 -6.88666e-19 -0.992143)
(0.323553 4.53797e-19 -0.163121)
(-0.433989 -1.45467e-18 0.248833)
(0.346441 5.42646e-19 -0.19774)
(-0.670927 -5.53795e-19 0.386856)
(0.490333 0 -0.293639)
(0.300876 4.89507e-19 -0.17343)
(0.481416 0 -0.282548)
(0.726887 0 -0.422046)
(0.755659 -7.028e-19 -0.437392)
(0.424329 0 -0.230341)
(-1.17591 -4.72663e-21 0.712532)
(-3.39423 -8.78465e-20 2.00118)
(-5.30691 0 3.09467)
(-6.42536 0 3.73083)
(-6.59484 0 3.81284)
(-5.81826 1.25517e-18 3.34717)
(-4.2651 -3.21483e-18 2.44198)
(-3.009 3.54822e-18 1.72022)
(-1.68345 0 0.960118)
(-1.44293 -3.75452e-18 0.827264)
(-0.565147 0 0.299426)
(1.13602 6.58447e-18 -0.672308)
(33.9664 3.24554e-20 -0.715544)
(29.3661 -8.63538e-21 -2.84776)
(22.8183 -4.03645e-21 -4.54473)
(16.6818 0 -4.89936)
(11.9694 -1.50636e-20 -4.36799)
(8.6676 5.75668e-22 -3.55912)
(6.37949 0 -2.79179)
(4.74651 3.51435e-20 -2.15295)
(3.54007 0 -1.63941)
(2.62364 4.22222e-20 -1.22823)
(1.91313 0 -0.897534)
(1.35356 0 -0.630449)
(0.908171 0 -0.413781)
(0.550241 0 -0.237535)
(0.264474 -9.76052e-20 -0.0913478)
(0.0337904 0 0.0243316)
(-0.151935 0 0.118859)
(-0.300106 0 0.194403)
(-0.41781 9.38336e-20 0.254741)
(-0.50943 -4.59434e-22 0.301946)
(-0.579117 0 0.338312)
(-0.630871 -8.708e-22 0.365983)
(-0.668203 0 0.384508)
(-0.693023 -1.66266e-19 0.396366)
(-0.707302 0 0.40345)
(-0.713756 0 0.403924)
(-0.711745 -1.53687e-19 0.401949)
(-0.703867 0 0.396916)
(-0.691511 0 0.389007)
(-0.675386 -2.75187e-19 0.379188)
(-0.656138 0 0.368022)
(-0.634451 0 0.355683)
(-0.610967 0 0.342491)
(-0.586471 0 0.328761)
(-0.561235 2.27986e-19 0.314612)
(-0.535521 0 0.300281)
(-0.50975 0 0.285932)
(-0.483983 -4.04424e-19 0.27157)
(-0.458507 0 0.257383)
(-0.43352 -7.43977e-19 0.243435)
(-0.408911 -6.24457e-23 0.229677)
(-0.384785 -3.41958e-19 0.216183)
(-0.361157 0 0.202938)
(-0.338 0 0.189944)
(-0.315435 -3.00052e-19 0.177285)
(-0.293559 0 0.165029)
(-0.272557 -5.49206e-19 0.153303)
(-0.25277 0 0.142306)
(-0.234509 3.28999e-23 0.132205)
(-0.218063 0 0.123161)
(-0.203672 0 0.115287)
(-0.191354 0 0.108568)
(-0.180936 -4.16832e-19 0.102871)
(-0.171923 0 0.0978709)
(-0.163414 0 0.0930138)
(-0.154101 0 0.0875237)
(-0.142187 0 0.080369)
(-0.125554 1.31218e-18 0.0702906)
(-0.102167 0 0.0561862)
(-0.0704696 4.05628e-24 0.0372747)
(-0.0303425 0 0.0136391)
(0.0167897 5.36786e-19 -0.0137611)
(0.0676467 1.01892e-18 -0.042969)
(0.1186 0 -0.0719726)
(0.166786 1.83097e-18 -0.0993065)
(0.21259 8.66749e-19 -0.125465)
(0.259013 0 -0.152336)
(0.311732 -7.75895e-19 -0.183307)
(0.376566 0 -0.221663)
(0.458357 0 -0.269972)
(0.556203 0 -0.327065)
(0.658624 0 -0.385585)
(0.742314 -2.50941e-23 -0.431392)
(0.774293 1.1171e-18 -0.445375)
(0.727484 0 -0.414083)
(0.61073 0 -0.344026)
(0.455366 -1.23714e-22 -0.255068)
(0.333548 -1.83199e-18 -0.188644)
(0.289778 -8.71074e-19 -0.166594)
(0.283063 0 -0.163028)
(0.26244 0 -0.149661)
(0.235868 0 -0.135113)
(0.239778 -2.70466e-18 -0.139578)
(0.330676 -3.35919e-22 -0.191876)
(0.334865 -1.17033e-18 -0.190448)
(0.300416 0 -0.168534)
(0.202438 -1.02142e-18 -0.115733)
(0.309069 9.64421e-19 -0.182507)
(0.362726 0 -0.22311)
(0.944702 0 -0.569542)
(1.36993 1.52759e-18 -0.829732)
(2.83487 0 -1.6864)
(3.88112 1.11589e-18 -2.28276)
(5.27032 -3.66179e-21 -3.03688)
(4.83005 5.65196e-19 -2.78682)
(5.80222 -3.53753e-19 -3.27975)
(2.90553 0 -1.60471)
(3.06021 6.44479e-19 -1.7229)
(0.680254 -4.24616e-19 -0.31342)
(-0.663613 1.35861e-18 0.378322)
(0.549764 0 -0.305005)
(-1.10663 -5.1657e-19 0.631239)
(0.851444 0 -0.526413)
(0.511957 -4.57724e-19 -0.292572)
(0.801142 4.31204e-19 -0.475207)
(1.21065 0 -0.70285)
(1.18466 6.56941e-19 -0.671074)
(0.451948 0 -0.184449)
(-2.34723 2.69267e-19 1.49143)
(-5.98617 8.20895e-20 3.59285)
(-8.90871 0 5.21739)
(-10.4503 0 6.0435)
(-10.501 0 6.01405)
(-9.14333 -6.16336e-21 5.16959)
(-6.63961 3.00291e-18 3.7121)
(-4.64328 -3.29901e-18 2.57835)
(-2.53056 0 1.39233)
(-2.17503 -3.49906e-18 1.21253)
(-0.952103 0 0.466016)
(1.76966 1.58025e-21 -1.05827)
(34.6095 -1.70458e-20 -0.887091)
(33.27 -4.88512e-21 -2.15904)
(29.415 7.2842e-21 -3.94084)
(24.2862 -1.49271e-20 -5.06622)
(19.171 -2.0977e-20 -5.25823)
(14.8108 -4.39804e-20 -4.81334)
(11.3785 0 -4.10713)
(8.74943 0 -3.36999)
(6.73255 0 -2.69943)
(5.16666 -3.99947e-20 -2.12197)
(3.93454 0 -1.63556)
(2.95341 0 -1.22935)
(2.16492 0 -0.891141)
(1.52613 0 -0.610178)
(1.00833 0 -0.375383)
(0.587014 -9.12721e-20 -0.18291)
(0.243699 9.05943e-20 -0.0234619)
(-0.0349775 0 0.106615)
(-0.260125 0 0.21276)
(-0.440328 -1.74894e-19 0.297728)
(-0.582272 1.70969e-19 0.365643)
(-0.693044 -1.67291e-19 0.418403)
(-0.777059 1.61915e-19 0.458576)
(-0.839276 1.57443e-19 0.487625)
(-0.883081 -1.53901e-19 0.507356)
(-0.910298 1.49773e-19 0.520017)
(-0.924367 0 0.52529)
(-0.928561 -1.3974e-19 0.523635)
(-0.923595 0 0.518087)
(-0.911154 2.60452e-19 0.509329)
(-0.8928 0 0.497828)
(-0.869637 0 0.484126)
(-0.842742 0 0.468712)
(-0.813347 -2.24201e-19 0.452099)
(-0.782035 -2.15665e-19 0.434496)
(-0.749304 0 0.416288)
(-0.715857 0 0.397746)
(-0.681895 3.8243e-19 0.378921)
(-0.647869 0 0.360124)
(-0.614153 8.13075e-23 0.341452)
(-0.580671 -3.37155e-19 0.322885)
(-0.547616 0 0.304552)
(-0.515065 0 0.286454)
(-0.483017 0 0.268623)
(-0.451667 0 0.251199)
(-0.421184 -5.42235e-19 0.234292)
(-0.391838 0 0.218099)
(-0.364116 4.95717e-19 0.20291)
(-0.338466 4.73648e-19 0.18896)
(-0.315304 0 0.176474)
(-0.294982 0 0.165606)
(-0.277543 0 0.156322)
(-0.262758 3.93262e-19 0.148423)
(-0.249949 -3.75056e-19 0.141432)
(-0.237865 -7.15133e-19 0.13455)
(-0.224683 0 0.126665)
(-0.207897 -6.49342e-19 0.116315)
(-0.184538 -1.23683e-18 0.101752)
(-0.151746 0 0.0814566)
(-0.107317 -1.11999e-18 0.0543972)
(-0.0510154 0 0.0207624)
(0.0152582 -5.05607e-19 -0.0180511)
(0.0870457 -9.59584e-19 -0.0593155)
(0.159354 0 -0.100304)
(0.228227 -8.61751e-19 -0.139131)
(0.294205 -8.15831e-19 -0.176679)
(0.361556 0 -0.215774)
(0.43839 0 -0.261317)
(0.532999 0 -0.317937)
(0.652156 6.53052e-19 -0.389031)
(0.794694 6.17928e-19 -0.472554)
(0.944613 0 -0.557694)
(1.06971 -1.1076e-18 -0.624376)
(1.12381 -1.04942e-18 -0.645895)
(1.06685 0 -0.603107)
(0.90833 0 -0.505097)
(0.68846 -9.0215e-19 -0.378964)
(0.506893 1.24758e-22 -0.282171)
(0.427733 0 -0.244005)
(0.398769 0 -0.228481)
(0.356406 0 -0.201815)
(0.311283 0 -0.17784)
(0.312305 -3.54263e-22 -0.184296)
(0.439912 1.18208e-18 -0.258096)
(0.454454 0 -0.25845)
(0.414421 0 -0.23055)
(0.283523 0 -0.162231)
(0.430096 9.0373e-19 -0.257047)
(0.493363 0 -0.314813)
(1.29119 1.58302e-18 -0.796348)
(1.78876 -1.43052e-18 -1.12032)
(3.83033 1.25543e-18 -2.32311)
(5.01784 -1.04464e-18 -3.00597)
(7.15232 1.37957e-18 -4.14477)
(6.50633 -5.28947e-19 -3.77201)
(8.0588 3.31015e-19 -4.53417)
(4.27234 0 -2.31819)
(4.47459 0 -2.48612)
(1.16612 -3.96198e-19 -0.499503)
(-0.824603 -6.34793e-19 0.477689)
(0.721429 -4.76953e-19 -0.393452)
(-1.50663 7.58658e-22 0.855342)
(1.2219 0 -0.778236)
(0.729422 0 -0.415458)
(1.10974 -4.03048e-19 -0.669038)
(1.66796 0 -0.97298)
(1.51709 -6.17611e-19 -0.847041)
(0.23344 0 0.0151655)
(-3.81117 4.00055e-21 2.46617)
(-8.71488 0 5.29909)
(-12.3281 1.47103e-20 7.2742)
(-13.9901 2.49363e-19 8.1236)
(-13.7469 6.89642e-19 7.87247)
(-11.786 -7.16866e-21 6.63306)
(-8.47833 0 4.69558)
(-5.89981 3.08088e-18 3.23684)
(-3.13249 3.3342e-18 1.69874)
(-2.69985 3.26731e-18 1.49788)
(-1.31979 0 0.601637)
(2.29391 1.82225e-21 -1.41351)
(34.2725 0 -1.36481)
(34.3721 -3.5528e-21 -1.92574)
(32.8375 0 -3.25188)
(29.6799 1.41032e-20 -4.56761)
(25.5538 3.32851e-20 -5.33257)
(21.2226 2.13903e-20 -5.45214)
(17.2286 0 -5.09751)
(13.8099 0 -4.49373)
(10.9898 -3.45016e-20 -3.81107)
(8.69715 -3.72353e-20 -3.14543)
(6.83825 3.93216e-20 -2.5392)
(5.32708 8.16978e-20 -2.00559)
(4.09353 8.38439e-20 -1.54425)
(3.08203 0 -1.14982)
(2.25149 0 -0.813423)
(1.56824 1.72202e-19 -0.530658)
(1.00543 -3.07762e-22 -0.29287)
(0.543174 0 -0.0944304)
(0.16411 -8.33887e-20 0.0701738)
(-0.14424 -1.64219e-19 0.205496)
(-0.392874 -1.61639e-19 0.315472)
(-0.592172 0 0.403692)
(-0.749286 -1.53063e-19 0.472886)
(-0.870769 1.49204e-19 0.526132)
(-0.961738 1.45469e-19 0.566267)
(-1.02671 -2.64299e-22 0.595696)
(-1.07104 0 0.614388)
(-1.09758 4.61933e-22 0.623755)
(-1.11002 0 0.623898)
(-1.11007 2.45675e-19 0.619062)
(-1.09969 0 0.610471)
(-1.08111 0 0.598034)
(-1.05587 0 0.582741)
(-1.02581 2.11759e-19 0.565288)
(-0.991964 0 0.545996)
(-0.955156 0 0.525441)
(-0.916467 0 0.504011)
(-0.876324 0 0.481844)
(-0.835392 -3.45982e-19 0.459398)
(-0.794286 6.63572e-19 0.43683)
(-0.753031 0 0.414153)
(-0.711941 3.04808e-19 0.391574)
(-0.671197 0 0.36913)
(-0.630854 0 0.346901)
(-0.591202 0 0.325094)
(-0.552501 5.70433e-23 0.303877)
(-0.515119 0 0.283526)
(-0.479692 -4.6741e-19 0.264424)
(-0.446814 0 0.24688)
(-0.417034 0 0.23118)
(-0.390824 -4.06977e-19 0.217515)
(-0.368266 0 0.205826)
(-0.349086 0 0.195841)
(-0.332439 9.00937e-24 0.186919)
(-0.316738 6.73569e-19 0.178009)
(-0.299664 0 0.167649)
(-0.278028 6.24502e-24 0.153945)
(-0.248031 1.16435e-18 0.134683)
(-0.206006 0 0.107952)
(-0.149102 5.27005e-19 0.0725246)
(-0.076922 0 0.0287462)
(0.00823095 4.7565e-19 -0.0215203)
(0.100836 9.02568e-19 -0.0747969)
(0.194627 0 -0.127715)
(0.284593 8.10422e-19 -0.178085)
(0.371378 -8.60412e-23 -0.227298)
(0.460465 0 -0.279197)
(0.562341 0 -0.340217)
(0.687748 0 -0.416252)
(0.845339 -1.22694e-18 -0.511352)
(1.03392 7.55939e-25 -0.622421)
(1.23347 0 -0.735134)
(1.40379 1.03981e-18 -0.823669)
(1.48613 1.97008e-18 -0.854152)
(1.42634 0 -0.801302)
(1.23188 0 -0.676591)
(0.948591 0 -0.513387)
(0.701595 1.18116e-22 -0.384318)
(0.576012 0 -0.324979)
(0.512965 0 -0.290617)
(0.441164 0 -0.246536)
(0.37388 0 -0.211427)
(0.37004 1.18901e-18 -0.220793)
(0.534233 1.10835e-18 -0.316327)
(0.56402 0 -0.320019)
(0.523299 0 -0.28774)
(0.362502 0 -0.207302)
(0.543935 7.47035e-23 -0.328824)
(0.606171 0 -0.402618)
(1.60324 -1.48194e-18 -1.01115)
(2.10813 0 -1.37011)
(4.72078 -1.17494e-18 -2.91452)
(5.83717 0 -3.56027)
(8.87014 -6.47299e-19 -5.15632)
(7.92193 0 -4.60537)
(10.1901 0 -5.69825)
(5.70659 0 -3.04554)
(5.97689 0 -3.27692)
(1.79779 3.70459e-19 -0.726357)
(-0.909589 0 0.534669)
(0.867087 4.45876e-19 -0.458009)
(-1.86339 4.50772e-19 1.04634)
(1.58997 0 -1.04354)
(0.957621 0 -0.54125)
(1.40918 0 -0.861954)
(2.09269 0 -1.22176)
(1.74304 -1.89024e-21 -0.938201)
(-0.230293 0 0.410536)
(-5.52948 -2.49167e-19 3.65473)
(-11.4928 0 7.07639)
(-15.4563 -3.07181e-20 9.16618)
(-16.9848 -2.329e-19 9.84898)
(-16.3239 -6.44073e-19 9.27305)
(-13.7733 -1.01065e-18 7.63875)
(-9.82795 0 5.32917)
(-6.83906 0 3.65392)
(-3.54512 -6.22161e-18 1.8569)
(-3.05472 3.04349e-18 1.66123)
(-1.65775 3.13651e-18 0.696932)
(2.73513 -2.68341e-18 -1.7277)
(33.8278 0 -1.82296)
(34.2304 3.25646e-20 -2.03979)
(34.0048 0 -2.82883)
(32.609 0 -3.9222)
(30.036 0 -4.8925)
(26.6641 0 -5.45802)
(22.9727 0 -5.55795)
(19.3502 2.98883e-20 -5.28256)
(16.0346 3.25555e-20 -4.77314)
(13.129 7.01682e-20 -4.1554)
(10.6458 -7.4034e-20 -3.51569)
(8.55117 -7.71119e-20 -2.90352)
(6.79508 -7.91422e-20 -2.34278)
(5.32625 0 -1.84275)
(4.09983 0 -1.40309)
(3.07681 -1.61832e-19 -1.02289)
(2.22394 -1.60883e-19 -0.696315)
(1.51466 0 -0.418319)
(0.926095 7.87163e-20 -0.183647)
(0.440774 1.55014e-19 0.0137998)
(0.0423977 0 0.176831)
(-0.282273 1.48002e-19 0.310813)
(-0.543987 0 0.419179)
(-0.752198 5.86787e-23 0.505606)
(-0.914835 -1.37158e-19 0.57314)
(-1.03877 -3.86842e-22 0.624439)
(-1.13004 0 0.661786)
(-1.19407 1.24166e-19 0.687979)
(-1.23605 -2.39397e-19 0.701771)
(-1.25867 -4.63446e-19 0.705627)
(-1.26586 -2.23887e-19 0.702339)
(-1.25952 0 0.694448)
(-1.24248 -2.07511e-19 0.681875)
(-1.21724 0 0.665916)
(-1.18544 0 0.64697)
(-1.14838 0 0.625833)
(-1.10763 0 0.603045)
(-1.06396 0 0.578848)
(-1.01831 1.01189e-22 0.55389)
(-0.971613 -3.12694e-19 0.5284)
(-0.924076 0 0.502448)
(-0.876178 -5.74418e-19 0.476342)
(-0.828255 0 0.450171)
(-0.780457 0 0.424083)
(-0.733196 0 0.398369)
(-0.686846 4.81661e-19 0.373264)
(-0.641885 0 0.349135)
(-0.599108 0 0.326469)
(-0.559266 0 0.305645)
(-0.523047 0 0.287014)
(-0.491054 7.66169e-19 0.270797)
(-0.463423 0 0.256903)
(-0.43985 0 0.244976)
(-0.419342 3.32433e-19 0.234205)
(-0.399997 0 0.22327)
(-0.379022 0 0.210361)
(-0.352579 1.15004e-18 0.193146)
(-0.316072 -5.4746e-19 0.168966)
(-0.265053 0 0.135561)
(-0.196029 0 0.0915661)
(-0.108405 0 0.0375354)
(-0.00480289 -4.47058e-19 -0.0241738)
(0.108323 0 -0.0893608)
(0.223534 0 -0.154092)
(0.334805 -1.52261e-18 -0.21599)
(0.442813 1.44084e-18 -0.277048)
(0.554145 0 -0.342176)
(0.681524 0 -0.419321)
(0.838044 0 -0.515538)
(1.03415 5.75799e-19 -0.635348)
(1.269 -5.44623e-19 -0.774507)
(1.51933 -1.03062e-18 -0.915261)
(1.73827 -9.75464e-19 -1.02641)
(1.85565 -9.23905e-19 -1.06732)
(1.80192 8.76251e-19 -1.00652)
(1.57946 0 -0.856979)
(1.23563 0 -0.657175)
(0.918172 7.55759e-19 -0.493831)
(0.734461 0 -0.408215)
(0.624555 0 -0.348904)
(0.515816 0 -0.283508)
(0.422981 0 -0.236741)
(0.412968 0 -0.250343)
(0.613249 -2.07633e-18 -0.36819)
(0.66297 0 -0.376297)
(0.626289 -9.00483e-19 -0.340686)
(0.437992 0 -0.250417)
(0.647084 7.62814e-23 -0.395687)
(0.69573 1.47384e-18 -0.483546)
(1.87209 0 -1.20836)
(2.31935 0 -1.57759)
(5.49788 0 -3.45779)
(6.30007 0 -3.94255)
(10.4137 6.12816e-19 -6.09268)
(9.01046 0 -5.26922)
(12.1345 0 -6.76066)
(7.16212 0 -3.7627)
(7.55318 0 -4.08664)
(2.58813 0 -0.995033)
(-0.898492 0 0.555762)
(0.990106 0 -0.50343)
(-2.16202 0 1.19989)
(1.9383 -4.2504e-19 -1.31386)
(1.19713 0 -0.672036)
(1.69943 0 -1.05524)
(2.47336 0 -1.44395)
(1.83916 5.40806e-19 -0.935965)
(-0.953006 0 0.99657)
(-7.46598 1.1797e-19 5.01912)
(-14.2136 0 8.85364)
(-18.1626 -3.76457e-21 10.8258)
(-19.349 0 11.2229)
(-18.1964 5.86565e-19 10.2848)
(-15.115 0 8.27836)
(-10.7172 0 5.69852)
(-7.48704 0 3.90412)
(-3.79479 2.90208e-18 1.92302)
(-3.24826 -5.67895e-18 1.74493)
(-1.95667 -5.85557e-18 0.750285)
(3.10038 -2.50828e-18 -2.02293)
(33.5036 0 -2.11567)
(33.7995 -3.48797e-20 -2.24568)
(34.0217 0 -2.68025)
(33.6773 0 -3.4377)
(32.4615 -2.69236e-20 -4.31466)
(30.3757 -2.64716e-20 -5.05787)
(27.6232 2.7362e-20 -5.50118)
(24.4847 -8.63046e-20 -5.59834)
(21.234 0 -5.3927)
(18.0861 1.93064e-23 -4.97068)
(15.1786 3.47928e-20 -4.42305)
(12.578 0 -3.82341)
(10.3006 0 -3.22234)
(8.33273 0 -2.65097)
(6.64758 0 -2.12485)
(5.21346 2.93639e-22 -1.65252)
(3.99824 2.36516e-22 -1.235)
(2.97286 7.47458e-20 -0.870752)
(2.11096 7.37691e-20 -0.556569)
(1.39026 0 -0.287649)
(0.790809 -1.42365e-19 -0.0606111)
(0.295241 -1.39496e-19 0.129658)
(-0.111047 0 0.287027)
(-0.440784 -8.91452e-23 0.415684)
(-0.705042 2.66948e-22 0.519215)
(-0.913484 -1.25287e-19 0.600881)
(-1.07468 0 0.6633)
(-1.19591 0 0.70915)
(-1.28273 2.25562e-19 0.742373)
(-1.34173 5.96877e-23 0.762353)
(-1.3771 4.21736e-19 0.770785)
(-1.39359 0 0.769158)
(-1.39299 3.90772e-19 0.762748)
(-1.37955 0 0.750992)
(-1.35569 0 0.734753)
(-1.3233 -1.7366e-19 0.715106)
(-1.2846 0 0.692765)
(-1.24081 -3.20033e-19 0.668097)
(-1.19328 9.84423e-23 0.641983)
(-1.14335 2.9422e-19 0.614743)
(-1.09149 0 0.586527)
(-1.0384 6.1269e-23 0.557769)
(-0.984652 0 0.528631)
(-0.930524 0 0.499345)
(-0.876586 0 0.470309)
(-0.823361 0 0.441836)
(-0.771453 0 0.414398)
(-0.721826 4.13901e-19 0.388592)
(-0.675401 0 0.364871)
(-0.633015 0 0.34365)
(-0.595416 -3.60201e-19 0.325175)
(-0.562812 0 0.309317)
(-0.534884 -3.27743e-19 0.295627)
(-0.510516 -3.12451e-19 0.283107)
(-0.487515 5.95514e-19 0.270166)
(-0.462648 0 0.254632)
(-0.431467 -5.40272e-19 0.233749)
(-0.388622 -5.14309e-19 0.204437)
(-0.328923 0 0.164131)
(-0.24825 0 0.111393)
(-0.145771 0 0.0470449)
(-0.024335 4.19761e-19 -0.0260323)
(0.108808 0 -0.102942)
(0.245165 0 -0.179263)
(0.377732 7.14559e-19 -0.252543)
(0.507109 -1.35227e-18 -0.325471)
(0.640811 0 -0.404049)
(0.793561 0 -0.497666)
(0.980648 0 -0.614394)
(1.21422 0 -0.759043)
(1.49424 -5.10709e-19 -0.92619)
(1.79531 9.66314e-19 -1.0949)
(2.06558 0 -1.22914)
(2.22519 0 -1.28218)
(2.18803 -8.21221e-19 -1.21608)
(1.94793 0 -1.04433)
(1.54869 -7.42927e-19 -0.809011)
(1.15686 7.07773e-19 -0.609645)
(0.903307 0 -0.492481)
(0.733774 0 -0.401859)
(0.580796 0 -0.311944)
(0.45989 0 -0.253264)
(0.442716 0 -0.273438)
(0.678271 9.71955e-19 -0.414105)
(0.751515 0 -0.427619)
(0.723057 1.68559e-18 -0.388867)
(0.50854 0 -0.290152)
(0.73566 7.67966e-23 -0.454906)
(0.75691 1.33105e-22 -0.554503)
(2.08933 0 -1.38154)
(2.4235 1.17672e-18 -1.74312)
(6.15645 0 -3.94298)
(6.40363 0 -4.14554)
(11.7992 -1.14968e-18 -6.95216)
(9.73568 0 -5.73341)
(13.8405 0 -7.69182)
(8.57834 0 -4.43922)
(9.17787 0 -4.9019)
(3.5427 0 -1.30309)
(-0.779337 0 0.531309)
(1.10054 0 -0.530697)
(-2.38952 0 1.3049)
(2.24554 3.97093e-19 -1.57775)
(1.44781 0 -0.806674)
(1.98123 0 -1.24786)
(2.79994 0 -1.62849)
(1.79103 -5.08846e-19 -0.816689)
(-1.92303 -3.27277e-19 1.7843)
(-9.55354 -1.15383e-19 6.52864)
(-16.7577 -6.08587e-20 10.5528)
(-20.3558 -4.26986e-21 12.1806)
(-21.1038 -1.84302e-19 12.2106)
(-19.467 -1.08742e-18 10.8901)
(-15.9386 0 8.56842)
(-11.2572 2.23781e-18 5.82899)
(-7.92419 2.47902e-18 3.99863)
(-3.9421 0 1.90516)
(-3.31651 2.64891e-18 1.74595)
(-2.20983 2.73273e-18 0.759628)
(3.40933 2.34128e-18 -2.29928)
(33.2661 0 -2.27529)
(33.4223 1.72672e-20 -2.41333)
(33.6654 0 -2.68692)
(33.7371 0 -3.17795)
(33.3516 2.53512e-20 -3.84169)
(32.3393 2.49204e-20 -4.54059)
(30.6711 -2.5754e-20 -5.12459)
(28.4328 8.33367e-20 -5.48788)
(25.782 0 -5.58905)
(22.9041 3.14515e-20 -5.44352)
(19.975 -6.51645e-20 -5.10168)
(17.1367 0 -4.62631)
(14.4865 6.90671e-20 -4.0765)
(12.0787 0 -3.50029)
(9.93477 7.09201e-20 -2.93124)
(8.05362 7.13645e-20 -2.39228)
(6.42068 7.10343e-20 -1.89602)
(5.01524 -7.03612e-20 -1.44867)
(3.814 -1.38691e-19 -1.0522)
(2.79416 0 -0.70516)
(1.93393 1.34014e-19 -0.405619)
(1.213 0 -0.149691)
(0.613423 0 0.0664223)
(0.118997 -1.24889e-19 0.246795)
(-0.284719 2.42517e-19 0.395288)
(-0.610524 0 0.515596)
(-0.869687 0 0.61106)
(-1.07201 0 0.685054)
(-1.226 -2.12119e-19 0.740379)
(-1.33854 2.05339e-19 0.780688)
(-1.41731 -1.31948e-22 0.807661)
(-1.4677 1.90912e-19 0.820787)
(-1.49508 -3.67361e-19 0.821512)
(-1.50256 1.76562e-19 0.817155)
(-1.49418 -1.69839e-19 0.806437)
(-1.47279 6.13725e-23 0.790672)
(-1.44142 0 0.770876)
(-1.40193 3.00995e-19 0.747558)
(-1.35617 2.88589e-19 0.721877)
(-1.30606 -2.76673e-19 0.694275)
(-1.25241 0 0.664993)
(-1.19624 2.54076e-19 0.634626)
(-1.13842 2.43187e-19 0.60343)
(-1.07943 2.32697e-19 0.571744)
(-1.02004 2.22593e-19 0.54009)
(-0.960953 0 0.508875)
(-0.902934 0 0.478688)
(-0.847125 -3.97754e-23 0.450248)
(-0.794635 0 0.424085)
(-0.746465 0 0.400677)
(-0.703521 -3.38332e-19 0.380292)
(-0.666102 3.22766e-19 0.362754)
(-0.633899 3.07809e-19 0.34751)
(-0.605698 8.45359e-24 0.333369)
(-0.579051 -1.22281e-23 0.318453)
(-0.550322 0 0.300229)
(-0.514502 0 0.275526)
(-0.465546 9.65505e-19 0.240877)
(-0.397568 0 0.193461)
(-0.305843 0 0.131838)
(-0.189269 -4.14893e-19 0.0571607)
(-0.0508227 0 -0.0271305)
(0.101596 0 -0.115479)
(0.25857 7.08003e-19 -0.203044)
(0.412142 -6.70317e-19 -0.287407)
(0.562691 1.26823e-18 -0.372032)
(0.718425 0 -0.464014)
(0.895732 -5.66676e-19 -0.574072)
(1.11188 0 -0.711121)
(1.38059 0 -0.880084)
(1.70327 9.57201e-19 -1.07442)
(2.05366 0 -1.2704)
(2.37701 0 -1.4279)
(2.58608 0 -1.49486)
(2.57752 0 -1.42666)
(2.33272 0 -1.23615)
(1.88604 6.95699e-19 -0.967142)
(1.41781 -1.14939e-22 -0.73038)
(1.08326 -6.29945e-19 -0.576545)
(0.841319 5.95658e-19 -0.448808)
(0.637163 0 -0.331938)
(0.486169 0 -0.26224)
(0.461511 0 -0.29172)
(0.730705 0 -0.455648)
(0.830333 0 -0.473875)
(0.812853 1.94332e-22 -0.43204)
(0.571856 0 -0.325309)
(0.805416 -6.93313e-19 -0.503368)
(0.785187 1.37002e-22 -0.612501)
(2.24677 0 -1.52447)
(2.43189 -1.10022e-18 -1.87399)
(6.68604 0 -4.35857)
(6.17781 8.16802e-19 -4.1933)
(13.0372 -3.687e-21 -7.75128)
(10.0827 0 -5.99436)
(15.2576 0 -8.48445)
(9.88685 0 -5.04347)
(10.8118 0 -5.70415)
(4.65919 2.9711e-19 -1.6441)
(-0.533776 0 0.463614)
(1.20996 0 -0.545001)
(-2.52951 3.65019e-19 1.35447)
(2.48838 0 -1.8223)
(1.70626 -3.2712e-19 -0.944911)
(2.25403 3.0834e-19 -1.43862)
(3.05914 0 -1.76514)
(1.58105 9.52199e-19 -0.566879)
(-3.12191 -3.03166e-21 2.76438)
(-11.7152 2.16999e-19 8.13108)
(-19.0076 5.68243e-20 12.0942)
(-21.9848 2.10924e-20 13.199)
(-22.3 1.7207e-19 12.8693)
(-20.2342 5.03912e-19 11.206)
(-16.3686 7.96721e-19 8.6241)
(-11.5461 -2.08905e-18 5.80917)
(-8.20774 -2.31414e-18 3.99859)
(-4.02876 -2.51492e-18 1.84551)
(-3.27821 -2.4656e-18 1.6945)
(-2.4172 0 0.726451)
(3.67244 0 -2.57)
(33.0569 0 -2.36669)
(33.1319 1.86576e-20 -2.51873)
(33.2942 0 -2.73374)
(33.442 0 -3.06781)
(33.4117 0 -3.5367)
(33.0441 0 -4.09598)
(32.2234 2.83291e-20 -4.65832)
(30.8999 -2.69063e-20 -5.12863)
(29.0927 2.89309e-20 -5.43451)
(26.878 -5.87833e-20 -5.5402)
(24.3701 6.12574e-20 -5.4454)
(21.6995 0 -5.17596)
(18.9929 -6.49266e-20 -4.77225)
(16.3579 0 -4.2793)
(13.8745 -6.66733e-20 -3.73846)
(11.5937 -6.65461e-20 -3.1846)
(9.54038 0 -2.64344)
(7.72079 0 -2.13247)
(6.12829 6.51099e-20 -1.66253)
(4.74909 0 -1.23867)
(3.56557 0 -0.863123)
(2.55838 -1.22853e-19 -0.534934)
(1.7084 0 -0.251911)
(0.997123 0 -0.0109049)
(0.407248 -1.13861e-19 0.191636)
(-0.0771218 0 0.359442)
(-0.470244 0 0.496237)
(-0.784833 0 0.605843)
(-1.03222 3.98859e-19 0.691636)
(-1.22222 0 0.756733)
(-1.36367 -1.39907e-22 0.80471)
(-1.46478 -2.13307e-22 0.838841)
(-1.53263 1.72567e-19 0.856478)
(-1.57277 -1.65936e-19 0.861259)
(-1.58996 3.19158e-19 0.858719)
(-1.58775 1.53446e-19 0.849663)
(-1.57055 0 0.834836)
(-1.54106 0 0.814976)
(-1.50179 2.70952e-19 0.791583)
(-1.45542 -2.5978e-19 0.76524)
(-1.40325 0 0.736299)
(-1.34672 0 0.70555)
(-1.28709 -5.25259e-23 0.673369)
(-1.22512 -2.18538e-19 0.640222)
(-1.16186 -2.09032e-19 0.60678)
(-1.09823 -3.99726e-19 0.57356)
(-1.03518 0 0.541282)
(-0.974057 -3.88836e-23 0.510799)
(-0.916185 0 0.482722)
(-0.862741 0 0.457594)
(-0.81481 3.17552e-19 0.4357)
(-0.772808 -3.02913e-19 0.41681)
(-0.736459 0 0.400259)
(-0.704486 2.75306e-19 0.384646)
(-0.674227 -1.17006e-23 0.367804)
(-0.641691 0 0.346838)
(-0.601373 0 0.318174)
(-0.546596 -9.05576e-19 0.277999)
(-0.470839 0 0.223295)
(-0.368804 0 0.15269)
(-0.239083 7.78057e-19 0.0677397)
(-0.084675 0 -0.0275053)
(0.0859876 0 -0.126933)
(0.262759 -1.32735e-18 -0.225236)
(0.436706 6.28241e-19 -0.320199)
(0.607823 -5.94287e-19 -0.416107)
(0.784714 0 -0.521119)
(0.985012 5.3093e-19 -0.647138)
(1.22772 0 -0.803737)
(1.52796 -4.74165e-19 -0.995804)
(1.88929 -4.48258e-19 -1.21583)
(2.28605 0 -1.43778)
(2.66296 0 -1.61833)
(2.9283 7.59266e-19 -1.70098)
(2.96145 7.19781e-19 -1.63438)
(2.7276 0 -1.42939)
(2.24489 0 -1.12938)
(1.70097 -1.2401e-18 -0.854461)
(1.27552 5.89497e-19 -0.659243)
(0.948883 -1.11481e-18 -0.489216)
(0.687096 0 -0.343874)
(0.504752 0 -0.264746)
(0.472553 0 -0.307019)
(0.772827 0 -0.494309)
(0.899886 0 -0.515315)
(0.894481 1.87963e-22 -0.46945)
(0.625496 0 -0.353405)
(0.85181 0 -0.537585)
(0.776977 1.38223e-22 -0.654816)
(2.33696 0 -1.63164)
(2.36806 -1.031e-18 -1.98377)
(7.071 0 -4.68904)