/*--------------------------------*- C++ -*----------------------------------*\
| =========                 |                                                 |
| \\      /  F ield         | OpenFOAM: The Open Source CFD Toolbox           |
|  \\    /   O peration     | Version:  2412                                  |
|   \\  /    A nd           | Website:  www.openfoam.com                      |
|    \\/     M anipulation  |                                                 |
\*---------------------------------------------------------------------------*/
FoamFile
{
    version     2.0;
    format      ascii;
    arch        "LSB;label=32;scalar=64";
    class       volVectorField;
    location    "1.445";
    object      ddtCorrDdt0(U);
}
// * * * * * * * * * * * * * * * * * * * * * * * * * * * * * * * * * * * * * //

dimensions      [0 1 -2 0 0 0 0];

internalField   nonuniform List<vector> 
12600
(
(0.103779 -4.26385e-22 -0.0112545)
(0.0193371 -3.55835e-22 8.13974e-05)
(0.0175162 -5.0215e-22 0.000532784)
(0.0109954 0 -0.000988978)
(0.00563517 -5.46534e-22 -0.000881928)
(0.0030937 -5.33738e-22 -0.000313402)
(0.00164869 0 9.51508e-05)
(0.00097166 0 0.00016575)
(0.00100621 1.75684e-21 0.000130401)
(0.00146126 0 9.6237e-05)
(0.00193208 -7.51862e-22 0.00011083)
(0.00215845 -6.77115e-22 0.000179424)
(0.00204983 5.9785e-22 0.000294218)
(0.00160825 0 0.000446984)
(0.000886156 4.38256e-22 0.000624973)
(-1.76149e-05 0 0.000807482)
(-0.000970727 -1.17997e-21 0.00097062)
(-0.00184329 0 0.00109585)
(-0.002546 3.48606e-22 0.00117538)
(-0.00304769 2.56218e-22 0.00121181)
(-0.00336818 -1.74149e-22 0.00121419)
(-0.00355706 -4.41329e-24 0.00119344)
(-0.00367164 0 0.00115942)
(-0.00376214 2.01991e-23 0.00111989)
(-0.00386656 0 0.00108094)
(-0.00401107 0 0.00104742)
(-0.00421201 -7.51182e-23 0.00102313)
(-0.00447571 0 0.00101038)
(-0.0048003 4.87706e-24 0.00101023)
(-0.00517801 -6.88793e-24 0.00102282)
(-0.00560078 -6.47668e-23 0.00104837)
(-0.00605901 -1.30967e-22 0.00108655)
(-0.00654186 2.01572e-22 0.00113656)
(-0.00702948 5.46217e-22 0.00119528)
(-0.00749711 6.84394e-22 0.00125842)
(-0.00790938 -8.17235e-22 0.001319)
(-0.00823655 0 0.00137132)
(-0.00844813 1.02427e-21 0.00140887)
(-0.00853561 0 0.00142973)
(-0.0084871 -1.16319e-21 0.00143042)
(-0.0083148 0 0.00141286)
(-0.00801096 -1.32746e-24 0.00137427)
(-0.00759968 0 0.00131933)
(-0.00707068 -3.90958e-24 0.00124471)
(-0.00646455 -2.34593e-21 0.00115818)
(-0.00576601 2.23632e-21 0.00105446)
(-0.00503778 -2.06715e-21 0.0009447)
(-0.00425859 0 0.000820964)
(-0.0035299 0 0.000701101)
(-0.0028278 -1.48345e-21 0.000575883)
(-0.00230431 -2.63566e-21 0.000473732)
(-0.00191486 -2.47004e-21 0.000382996)
(-0.0018494 -5.91113e-24 0.000342824)
(-0.00199117 -2.67587e-21 0.00033134)
(-0.0025324 0 0.000392567)
(-0.00322461 3.66681e-21 0.000482252)
(-0.00425349 4.31876e-21 0.000645069)
(-0.00522585 5.06258e-21 0.000807945)
(-0.00637342 0 0.00102195)
(-0.00719435 0 0.00118857)
(-0.00805465 0 0.00138018)
(-0.0083861 -1.33161e-20 0.00148103)
(-0.0087552 0 0.0015989)
(-0.00852949 0 0.00160393)
(-0.00848666 2.25131e-20 0.00164398)
(-0.00789599 0 0.00157147)
(-0.00770458 0 0.00156841)
(-0.00704938 0 0.0014652)
(-0.00697274 -1.20039e-20 0.00146476)
(-0.00648466 9.69891e-21 0.00137688)
(-0.00662781 6.77683e-21 0.00140582)
(-0.00637363 -3.21144e-23 0.00135549)
(-0.00664826 -2.15246e-21 0.00140571)
(-0.00659867 0 0.00139299)
(-0.00685319 -1.15121e-21 0.00143628)
(-0.00706055 0 0.00146811)
(-0.00723106 0 0.00148729)
(-0.00788796 0 0.00159741)
(-0.00795873 3.05048e-23 0.00158957)
(-0.00922705 -1.77868e-21 0.00181286)
(-0.00908973 -8.13865e-22 0.00176309)
(-0.0109125 -1.78185e-21 0.00209512)
(-0.0104147 -1.90319e-21 0.00197904)
(-0.0125054 0 0.00236407)
(-0.0117165 0 0.00219605)
(-0.0133782 1.46505e-20 0.0025226)
(-0.0125439 -5.89855e-21 0.00240514)
(-0.011956 2.24264e-20 0.0023611)
(-0.0121343 -1.54352e-20 0.00246579)
(-0.00604618 0 0.00132689)
(-0.01228 8.89695e-20 0.00257151)
(0.00468588 -1.66547e-20 -0.000653893)
(-0.0165279 6.79056e-20 0.00339271)
(0.0176857 -4.96466e-20 -0.00320057)
(-0.0189756 0 0.00393504)
(0.0293685 0 -0.00529796)
(-0.0147585 0 0.00327143)
(0.0268391 0 -0.0050561)
(0.0474569 0 -0.00917896)
(-0.0376897 0 0.00695606)
(0.127071 -1.61871e-19 -0.0241944)
(-0.40267 1.08819e-18 0.0755119)
(0.509539 -7.09643e-19 -0.0994005)
(0.261296 0 -0.0465959)
(-1.09483 0 0.203582)
(0.858578 0 -0.171539)
(-0.0955637 1.19739e-18 0.022468)
(-0.221475 -1.23112e-18 0.0361893)
(0.759758 5.55714e-19 -0.136142)
(-1.22074 0 0.235052)
(1.47598 -1.92718e-18 -0.287306)
(0.096903 0 -0.0134372)
(-1.41402 6.51931e-18 0.250099)
(2.45501 2.91911e-18 -0.480318)
(1.22231 1.9183e-18 -0.227866)
(1.07429 1.44656e-18 -0.203438)
(0.930549 1.41108e-18 -0.163496)
(-2.4422 4.95885e-22 0.488124)
(-3.63967 -1.6703e-18 0.684141)
(-1.19896 0 0.215759)
(0.101834 4.30742e-22 -0.0279711)
(0.0621361 0 -0.00128533)
(0.0472973 5.08233e-22 0.00332913)
(0.0310197 0 0.000131113)
(0.016461 5.53718e-22 -0.00069107)
(0.00636585 1.02185e-21 -0.000121696)
(-0.000410748 4.91667e-22 0.00030362)
(-0.00436317 0 0.000188167)
(-0.00600234 -9.39346e-24 -5.3368e-05)
(-0.00635843 8.20533e-22 -0.000102764)
(-0.00645691 -7.56007e-22 0.000125231)
(-0.0069194 -6.83257e-22 0.000565694)
(-0.00795347 6.04375e-22 0.00114079)
(-0.00953827 -5.23298e-22 0.00179645)
(-0.0115296 -8.8812e-22 0.00247456)
(-0.0136817 0 0.00310155)
(-0.015691 4.44402e-24 0.00360974)
(-0.0172874 -4.62659e-22 0.00396312)
(-0.0183177 -3.5366e-22 0.00416376)
(-0.0187712 0 0.00423937)
(-0.0187457 0 0.00422561)
(-0.0183899 -1.03656e-22 0.00415372)
(-0.0178525 0 0.00404647)
(-0.0172555 -8.31809e-24 0.00391963)
(-0.0166885 -4.90706e-23 0.00378529)
(-0.0162123 0 0.00365322)
(-0.0158641 8.9511e-23 0.00353085)
(-0.0156562 0 0.00342208)
(-0.0155822 -3.94582e-23 0.00332938)
(-0.0156254 7.91906e-24 0.00325524)
(-0.0157748 1.25527e-22 0.00320505)
(-0.0160227 1.32564e-22 0.00318342)
(-0.016364 -2.03972e-22 0.00319393)
(-0.016774 -1.09653e-21 0.0032326)
(-0.0172178 -1.37665e-21 0.00329269)
(-0.0176328 0 0.00335931)
(-0.0179707 0 0.00342255)
(-0.0181731 -4.04225e-24 0.00346809)
(-0.0182304 0 0.00349424)
(-0.0181085 1.17428e-21 0.00348969)
(-0.0178321 0 0.00345964)
(-0.0173641 2.47585e-21 0.00339143)
(-0.0167587 0 0.00329884)
(-0.0159703 2.44798e-21 0.00316722)
(-0.0150975 0 0.00302092)
(-0.0140702 -2.25183e-21 0.00283716)
(-0.0130343 0 0.00265036)
(-0.0118754 0 0.00242555)
(-0.0108201 1.70362e-21 0.0022159)
(-0.00971059 0 0.0019756)
(-0.00889736 0 0.001788)
(-0.008155 0 0.00159358)
(-0.00797218 2.45991e-21 0.00151126)
(-0.00797078 5.36949e-21 0.00145068)
(-0.0087464 0 0.00155971)
(-0.00964881 0 0.00169002)
(-0.0113769 -4.30194e-21 0.00201425)
(-0.0129391 -5.06235e-21 0.00230669)
(-0.0152169 0 0.00277688)
(-0.0168722 0 0.00311805)
(-0.0191149 0 0.00360723)
(-0.0202855 0 0.00386398)
(-0.0220621 -1.28546e-20 0.0042656)
(-0.02246 1.23234e-20 0.00436024)
(-0.0236926 -2.2387e-20 0.00464279)
(-0.0234142 0 0.00458286)
(-0.0243324 0 0.00478676)
(-0.0237261 0 0.00464104)
(-0.0246527 -2.77576e-23 0.00483615)
(-0.0240971 -9.60617e-21 0.00468812)
(-0.0252087 -6.70591e-21 0.00492091)
(-0.0249481 9.34565e-21 0.00482674)
(-0.0261457 -5.83325e-23 0.00508342)
(-0.0263154 -6.25369e-22 0.00506713)
(-0.027308 1.13484e-21 0.00528637)
(-0.0281295 0 0.00538325)
(-0.0286243 0 0.00550632)
(-0.0305041 0 0.0057975)
(-0.0302234 -3.73227e-21 0.0057817)
(-0.0335354 0 0.0063503)
(-0.0321274 0 0.00613836)
(-0.0368734 1.74392e-21 0.00698787)
(-0.0341013 1.8607e-21 0.00653174)
(-0.0396831 0 0.00753636)
(-0.035968 0 0.00690453)
(-0.0406274 0 0.00775565)
(-0.0374798 5.80605e-21 0.00727139)
(-0.036842 9.82731e-23 0.00715733)
(-0.0384793 -1.4859e-20 0.00756487)
(-0.0230768 2.66863e-21 0.00450131)
(-0.043755 -8.61485e-20 0.00848431)
(0.00433814 -1.59808e-20 -0.000849548)
(-0.0601447 -1.31301e-19 0.0115859)
(0.0420559 0 -0.00843963)
(-0.0697554 0 0.0135876)
(0.0770816 0 -0.0152225)
(-0.0586079 0 0.0118815)
(0.0742402 -1.78356e-19 -0.0160712)
(0.12261 0 -0.0228498)
(-0.111224 0 0.0205368)
(0.352831 -1.55697e-19 -0.0637217)
(-1.11073 -5.21172e-19 0.209743)
(1.52986 1.35758e-18 -0.311404)
(0.556114 -4.32527e-19 -0.0776294)
(-2.99102 0 0.564105)
(2.65341 0 -0.540656)
(-0.490328 0 0.12671)
(-0.536316 5.85677e-19 0.0875452)
(2.04155 -5.28874e-19 -0.370558)
(-3.51503 0 0.674706)
(4.31573 3.67392e-18 -0.869232)
(0.0314815 2.67795e-18 0.0440075)
(-3.51818 -1.23846e-17 0.623892)
(7.27771 0 -1.45882)
(3.16202 0 -0.585038)
(2.99901 1.36332e-18 -0.572776)
(2.13162 0 -0.356219)
(-7.37978 2.33457e-18 1.50777)
(-10.0938 1.59203e-18 1.92233)
(-3.05738 0 0.542492)
(0.096216 0 -0.00843622)
(0.0788308 0 0.00594706)
(0.066014 5.04687e-22 0.00938099)
(0.050395 0 0.00609822)
(0.0326976 0 0.00377713)
(0.0167747 -4.93168e-22 0.00269166)
(0.00437616 -4.65639e-22 0.00158229)
(-0.00387711 0 0.000234304)
(-0.00840587 -3.69549e-24 -0.000797907)
(-0.0105834 -7.77344e-22 -0.00100516)
(-0.0119719 1.43162e-21 -0.00041045)
(-0.013606 6.47378e-22 0.00067079)
(-0.0158707 1.21092e-24 0.0019719)
(-0.0187582 4.95859e-22 0.0033363)
(-0.0220625 4.20204e-22 0.00463229)
(-0.0254359 -3.4934e-22 0.00572322)
(-0.0284536 5.60972e-22 0.00651306)
(-0.030745 4.38419e-22 0.00698727)
(-0.0321173 0 0.00720297)
(-0.0325895 0 0.00724515)
(-0.0323362 -1.58515e-22 0.00718705)
(-0.0315935 -9.36397e-23 0.00707366)
(-0.0305851 0 0.00692581)
(-0.0294864 0 0.00675185)
(-0.0284208 4.65096e-23 0.00655739)
(-0.0274673 0 0.00634737)
(-0.0266691 -1.70333e-22 0.00612512)
(-0.0260347 7.40329e-23 0.00589087)
(-0.0255482 0 0.00564718)
(-0.0251837 -8.84898e-25 0.00540217)
(-0.024931 -5.67914e-23 0.005173)
(-0.0247909 0 0.00497627)
(-0.0247752 1.86487e-22 0.00482638)
(-0.0248679 5.15252e-22 0.00472375)
(-0.0250411 5.04886e-24 0.00466522)
(-0.0252251 0 0.00463459)
(-0.0253741 0 0.0046262)
(-0.0254207 -9.7611e-22 0.00462423)
(-0.025367 0 0.00463184)
(-0.0251636 0 0.00462902)
(-0.0248492 0 0.00462342)
(-0.0243568 0 0.00458832)
(-0.0237677 0 0.00454638)
(-0.0229963 0 0.0044671)
(-0.0221935 0 0.00439185)
(-0.0212263 2.14475e-21 0.0042732)
(-0.0203173 -1.99338e-21 0.0041691)
(-0.0192496 0 0.00400697)
(-0.0183653 -1.61179e-21 0.00387497)
(-0.017355 0 0.00367415)
(-0.0167487 0 0.00354102)
(-0.0161072 2.39019e-21 0.00334532)
(-0.0161893 0 0.00328611)
(-0.0163143 -2.54056e-21 0.00318069)
(-0.0174614 2.89246e-21 0.00329352)
(-0.0185514 0 0.00335668)
(-0.0208101 4.06628e-21 0.00370448)
(-0.0226498 0 0.00395186)
(-0.0256577 0 0.00451745)
(-0.027685 0 0.00487621)
(-0.0308673 1.22164e-20 0.0055648)
(-0.0324735 1.25012e-20 0.00590932)
(-0.035373 1.4108e-23 0.00660744)
(-0.0362133 -2.32625e-20 0.00683098)
(-0.0387032 8.73118e-24 0.0074713)
(-0.0388222 0 0.0075376)
(-0.0410803 0 0.0081184)
(-0.0408078 -1.41363e-20 0.00806187)
(-0.0431152 -1.80322e-23 0.00862299)
(-0.0428645 0 0.00851847)
(-0.0453563 0 0.00909553)
(-0.0454615 -4.43479e-21 0.00902015)
(-0.0479562 -5.61767e-23 0.00959734)
(-0.0486865 -4.82809e-23 0.0096134)
(-0.0507279 0 0.0101107)
(-0.0524819 0 0.0102907)
(-0.0535234 4.57385e-21 0.0105986)
(-0.0569235 -4.02792e-21 0.0110552)
(-0.0563689 0 0.011061)
(-0.0619931 0 0.0119125)
(-0.0591874 0 0.0115041)
(-0.0671129 0 0.0127826)
(-0.0617199 0 0.011903)
(-0.0710782 0 0.0134517)
(-0.0639096 0 0.0122366)
(-0.0719114 0 0.0135709)
(-0.0658566 -5.55036e-21 0.0125724)
(-0.0656003 -1.03656e-20 0.0125014)
(-0.0682858 1.39655e-20 0.0131612)
(-0.0442402 -2.50767e-21 0.00865608)
(-0.0793288 8.08564e-20 0.0153111)
(-0.000894653 1.50107e-20 0.000479486)
(-0.109152 6.1635e-20 0.0210925)
(0.0615302 0 -0.0121922)
(-0.128187 0 0.0251241)
(0.120328 0 -0.0242046)
(-0.112363 0 0.0231225)
(0.120218 1.67327e-19 -0.0282377)
(0.179195 0 -0.0301624)
(-0.183204 0 0.0321255)
(0.553268 1.45985e-19 -0.0894153)
(-1.73547 0 0.312911)
(2.53487 -6.35888e-19 -0.535529)
(0.637357 4.05322e-19 -0.0194624)
(-4.61076 0 0.836831)
(4.46643 0 -0.936974)
(-1.08649 0 0.315077)
(-0.706679 5.43125e-19 0.0823596)
(3.11795 0 -0.533161)
(-5.57847 2.16246e-18 1.04487)
(7.11233 1.43707e-20 -1.46217)
(-0.274923 -2.50627e-18 0.219361)
(-4.99624 1.16177e-17 0.785302)
(11.9067 0 -2.43766)
(4.5976 -1.6796e-18 -0.781694)
(4.708 -1.27522e-18 -0.877105)
(2.72974 1.27357e-18 -0.32631)
(-12.3157 0 2.61392)
(-15.8028 -1.4886e-18 2.9381)
(-4.40611 0 0.694524)
(0.0927566 0 0.00572596)
(0.0828079 0 0.0111579)
(0.0748039 -4.77136e-22 0.0137439)
(0.0648252 0 0.0120645)
(0.0508297 4.55981e-22 0.00985559)
(0.0349847 -8.9359e-22 0.00764136)
(0.0200812 0 0.00462181)
(0.00824586 8.24098e-22 0.00109828)
(0.000298128 -7.83221e-22 -0.00159896)
(-0.00454418 -7.3028e-22 -0.00250518)
(-0.00791737 -6.76459e-22 -0.00175652)
(-0.0111966 6.12227e-22 -6.60503e-05)
(-0.0150172 -5.42736e-22 0.0019743)
(-0.019457 9.43962e-22 0.00404059)
(-0.0243077 0 0.00590992)
(-0.0291766 6.63105e-22 0.00738223)
(-0.0335556 0 0.00834422)
(-0.0369749 0 0.00882629)
(-0.0391745 0 0.00896836)
(-0.0401718 -2.29204e-22 0.00893257)
(-0.040197 -3.88415e-24 0.00883501)
(-0.0395649 -3.36332e-24 0.00872742)
(-0.0385699 -4.27787e-23 0.00861622)
(-0.0374369 0 0.00849015)
(-0.0363191 0 0.0083387)
(-0.0353093 0 0.00815502)
(-0.034454 1.59624e-22 0.00793358)
(-0.0337568 -1.26439e-24 0.00766825)
(-0.0331942 0 0.00736143)
(-0.0327318 0 0.00702837)
(-0.0323594 0 0.00670013)
(-0.0320848 0 0.00640633)
(-0.0319364 -3.50422e-22 0.00617151)
(-0.0319085 0 0.00599839)
(-0.0319832 6.08214e-22 0.00588545)
(-0.0320865 0 0.00581428)
(-0.0321799 0 0.00578392)
(-0.0321901 9.10916e-22 0.00577754)
(-0.032135 0 0.00580355)
(-0.0319515 0 0.005833)
(-0.0316974 -1.07869e-21 0.00587651)
(-0.0312764 2.20375e-21 0.00589389)
(-0.0308026 0 0.0059182)
(-0.0301494 2.18989e-21 0.00590345)
(-0.0295237 0 0.00590862)
(-0.0287259 -4.05321e-21 0.00586096)
(-0.0280606 -3.35393e-24 0.00584284)
(-0.0272031 0 0.0057443)
(-0.0266199 0 0.00569125)
(-0.025842 1.37125e-21 0.005533)
(-0.0255883 2.4388e-21 0.00546323)
(-0.02519 -4.53465e-21 0.00528167)
(-0.0256843 0 0.0052708)
(-0.0260617 -2.41909e-21 0.00515325)
(-0.0276959 -2.73037e-21 0.00531143)
(-0.0290453 -3.26216e-21 0.00535146)
(-0.0318838 -3.82657e-21 0.00576919)
(-0.03399 0 0.00601035)
(-0.0376951 0 0.00670358)
(-0.0399994 -1.10343e-20 0.00709476)
(-0.044024 -2.30231e-20 0.00798607)
(-0.0459206 -1.17907e-20 0.00840021)
(-0.0498293 1.83744e-23 0.00936833)
(-0.0509714 1.09622e-20 0.00967598)
(-0.0546442 9.95302e-21 0.0106313)
(-0.0550736 0 0.0107697)
(-0.0586755 0 0.0116886)
(-0.0587289 1.33218e-20 0.0116773)
(-0.0625075 2.12571e-20 0.0125867)
(-0.0626299 0 0.0125032)
(-0.0666592 6.09034e-21 0.0134336)
(-0.0672551 4.2808e-21 0.0133743)
(-0.0712401 1.99221e-21 0.0143009)
(-0.0726965 1.25457e-21 0.0143571)
(-0.0759873 0 0.0151721)
(-0.0788792 0 0.0154497)
(-0.0806503 -4.30407e-21 0.0159901)
(-0.0858297 7.60642e-21 0.0166398)
(-0.0851355 3.46546e-21 0.0167228)
(-0.0934064 0 0.0179081)
(-0.0892526 0 0.0173582)
(-0.100791 0 0.0191456)
(-0.092707 0 0.0178781)
(-0.10638 0 0.0200809)
(-0.0955511 0 0.0182798)
(-0.107511 -1.27476e-20 0.0202382)
(-0.0982322 -4.34008e-23 0.0186711)
(-0.0989908 9.90979e-21 0.0188021)
(-0.102407 0 0.0194793)
(-0.0704006 -2.13535e-21 0.0137872)
(-0.119571 -3.79319e-20 0.0226593)
(-0.0114348 0 0.00279617)
(-0.163267 5.77807e-20 0.030968)
(0.0763398 4.17392e-20 -0.0152476)
(-0.193319 0 0.0374566)
(0.160079 0 -0.0329542)
(-0.174882 0 0.0360612)
(0.166338 1.57088e-19 -0.0421593)
(0.216328 0 -0.032862)
(-0.250732 0 0.0403963)
(0.7285 1.37917e-19 -0.104847)
(-2.26936 4.60582e-19 0.391382)
(3.50003 0 -0.761678)
(0.524162 0 0.101394)
(-5.91881 0 1.03551)
(6.22937 0 -1.33834)
(-1.85641 0 0.549047)
(-0.709983 -2.44795e-21 0.0164565)
(3.96982 0 -0.636114)
(-7.35404 -2.02356e-18 1.34677)
(9.79391 -1.62747e-18 -2.06376)
(-0.806283 0 0.476346)
(-5.83234 1.34059e-20 0.787838)
(16.2075 0 -3.39132)
(5.52049 9.2312e-21 -0.860695)
(6.17404 0 -1.1356)
(2.74696 -1.19074e-18 -0.13129)
(-17.1146 0 3.75999)
(-20.7218 -1.41136e-18 3.78941)
(-5.22342 0 0.71367)
(0.0900367 0 0.0121806)
(0.0832863 0 0.0136869)
(0.0781578 0 0.015751)
(0.072859 0 0.0156088)
(0.0645919 -4.30451e-22 0.0144561)
(0.0533039 1.27879e-24 0.0123857)
(0.0404308 0 0.00841429)
(0.0280347 -7.77899e-22 0.00296325)
(0.0178978 0 -0.00179486)
(0.0104751 1.37293e-21 -0.00399918)
(0.00485742 0 -0.00353592)
(-0.000249991 -5.78005e-22 -0.0014507)
(-0.00567035 0 0.00124039)
(-0.0116384 -8.91277e-22 0.00396212)
(-0.0180336 3.79638e-22 0.00636829)
(-0.0245082 -6.30016e-22 0.00818092)
(-0.0305315 5.12326e-22 0.00925878)
(-0.0355336 4.03245e-22 0.00967977)
(-0.0391284 0 0.00968503)
(-0.0412545 2.16431e-22 0.00953579)
(-0.0421425 1.45237e-22 0.00940269)
(-0.042163 1.78056e-22 0.00934197)
(-0.0416785 4.03917e-23 0.009335)
(-0.0409683 0 0.00933921)
(-0.0402214 0 0.00931907)
(-0.0395506 0 0.00925004)
(-0.0390113 -7.43532e-23 0.00911427)
(-0.0386081 -6.49221e-23 0.00889761)
(-0.0383155 0 0.00860192)
(-0.0380918 0 0.00825019)
(-0.0379229 -4.76718e-23 0.00788852)
(-0.0378166 0 0.00756017)
(-0.0378144 2.09319e-24 0.00729938)
(-0.0379211 4.44717e-22 0.00710943)
(-0.0381317 -5.61066e-22 0.00698901)
(-0.0383678 0 0.00691648)
(-0.0385987 0 0.00689651)
(-0.0387424 -8.5974e-22 0.00691198)
(-0.0388347 0 0.00697819)
(-0.0387978 0 0.00705721)
(-0.0387129 1.01791e-21 0.00716438)
(-0.0384542 -2.07947e-21 0.00724605)
(-0.0381738 0 0.00734837)
(-0.0377012 -2.06613e-21 0.00740883)
(-0.0373063 0 0.00750639)
(-0.0367171 1.91208e-21 0.00754003)
(-0.0363302 1.77949e-21 0.00761982)
(-0.0357055 0 0.00759498)
(-0.0354481 1.45859e-21 0.00763485)
(-0.0349176 -1.29317e-21 0.00753231)
(-0.0350414 -4.61863e-21 0.00754572)
(-0.0349024 2.14762e-21 0.00739663)
(-0.0358399 -2.12692e-21 0.00745928)
(-0.0364888 -1.42431e-23 0.00734838)
(-0.0386486 0 0.00757453)
(-0.0402787 3.07471e-21 0.00760004)
(-0.0437416 3.60633e-21 0.00809757)
(-0.046133 -4.21984e-21 0.00832241)
(-0.0505809 4.71883e-21 0.00913694)
(-0.0531714 1.03959e-20 0.00953368)
(-0.0580799 1.08329e-20 0.010614)
(-0.0602621 -1.10626e-20 0.0110668)
(-0.0652175 1.07529e-20 0.0122998)
(-0.0666459 0 0.0126705)
(-0.0715434 0 0.013956)
(-0.0722686 8.48599e-21 0.014161)
(-0.0772732 0 0.0154556)
(-0.0776533 0 0.0154954)
(-0.0829913 -1.00099e-20 0.016808)
(-0.0835154 0 0.016755)
(-0.089204 -5.7301e-21 0.0181035)
(-0.0903553 -8.09843e-21 0.0180656)
(-0.0959824 0 0.0194122)
(-0.0982719 -6.15106e-22 0.019507)
(-0.102984 0 0.0207166)
(-0.107172 0 0.0210864)
(-0.109846 4.01583e-21 0.0219431)
(-0.117032 -3.58728e-21 0.02278)
(-0.116348 3.15506e-23 0.023024)
(-0.127584 0 0.024537)
(-0.122178 0 0.0239145)
(-0.137767 0 0.02621)
(-0.126998 -1.44198e-21 0.0245937)
(-0.145546 4.04272e-21 0.02747)
(-0.130951 0 0.0250779)
(-0.147525 2.39595e-20 0.0277246)
(-0.13481 2.50903e-21 0.0255181)
(-0.137266 -1.86708e-20 0.0259753)
(-0.141158 1.21235e-20 0.026478)
(-0.101926 3.90366e-21 0.0199315)
(-0.164768 0 0.030624)
(-0.027716 0 0.00641082)
(-0.222572 -5.41787e-20 0.0415164)
(0.0859132 -3.91311e-20 -0.0171718)
(-0.265237 1.1331e-19 0.0508982)
(0.195858 0 -0.0411574)
(-0.246646 0 0.0510179)
(0.212258 -1.47181e-19 -0.0583213)
(0.232051 -3.28104e-21 -0.0286598)
(-0.311967 0 0.0453261)
(0.877545 -1.29162e-19 -0.107114)
(-2.7127 -4.31283e-19 0.4411)
(4.40039 0 -0.983762)
(0.252107 0 0.296253)
(-6.90262 0 1.13994)
(7.87607 0 -1.72779)
(-2.75011 0 0.840073)
(-0.536577 -4.73377e-19 -0.105875)
(4.59319 0 -0.667511)
(-8.80517 0 1.55913)
(12.2981 0 -2.6499)
(-1.51487 2.23366e-18 0.826933)
(-6.06226 -5.09919e-18 0.601628)
(20.0636 0 -4.27764)
(5.95835 1.45984e-18 -0.796775)
(7.37489 0 -1.32814)
(2.24286 -1.13255e-18 0.250405)
(-21.6269 0 4.89601)
(-24.8546 1.31896e-18 4.42078)
(-5.50749 0 0.570084)
(0.0874077 4.39505e-22 0.0161821)
(0.0827566 4.50354e-22 0.0159251)
(0.0787913 -4.45657e-22 0.016849)
(0.075726 -4.24563e-22 0.0170172)
(0.0716203 0 0.0166321)
(0.0654165 3.9495e-22 0.0152846)
(0.0569053 0 0.0115758)
(0.0468615 -7.18684e-22 0.00545177)
(0.0368526 -6.77972e-22 -0.000769461)
(0.0281638 -1.2795e-21 -0.00439146)
(0.0209521 5.88131e-22 -0.00463501)
(0.0144969 -5.35772e-22 -0.00253217)
(0.00802069 0 0.000560696)
(0.00113416 0 0.00378389)
(-0.00621391 -3.57931e-22 0.00663885)
(-0.0138334 -7.85934e-25 0.00874406)
(-0.0212827 3.01158e-24 0.00989376)
(-0.0279429 4.01679e-24 0.0101861)
(-0.0332579 0 0.00996615)
(-0.0369792 0 0.00961981)
(-0.0392306 0 0.00939709)
(-0.040374 -1.76921e-22 0.00936679)
(-0.0408177 -4.6412e-23 0.00947825)
(-0.0408945 0 0.00964573)
(-0.040837 0 0.00979907)
(-0.0407889 5.11667e-23 0.00989001)
(-0.040826 0 0.00988528)
(-0.0409646 0 0.00976116)
(-0.0411854 0 0.00951829)
(-0.0414428 0 0.00918683)
(-0.0417143 7.63826e-26 0.00882838)
(-0.0419975 0 0.00850054)
(-0.0423408 2.06049e-24 0.00824819)
(-0.0427596 -4.19211e-22 0.00807442)
(-0.0432689 7.44792e-24 0.00797705)
(-0.0437886 0 0.00792951)
(-0.0442964 0 0.00794242)
(-0.0446976 0 0.00799833)
(-0.0450481 0 0.00812107)
(-0.0452543 0 0.00826301)
(-0.0454271 0 0.0084459)
(-0.0454072 0 0.00860146)
(-0.0453914 1.94361e-21 0.00879167)
(-0.0451572 1.92796e-21 0.00893543)
(-0.045047 0 0.00913468)
(-0.0447064 1.79371e-21 0.00925615)
(-0.0446385 0 0.0094418)
(-0.0442733 0 0.00949496)
(-0.0443744 -2.75182e-21 0.00963515)
(-0.0441101 0 0.00959225)
(-0.0446424 2.18384e-21 0.00969843)
(-0.0447771 0 0.00958749)
(-0.0461904 4.02417e-21 0.009737)
(-0.0471219 -1.60269e-23 0.00963997)
(-0.0498438 0 0.00995006)
(-0.0517647 0 0.00996721)
(-0.0558969 0 0.0105605)
(-0.0585852 7.93757e-21 0.0107711)
(-0.0638329 -8.8718e-21 0.0117213)
(-0.0667245 -9.73444e-21 0.0121205)
(-0.0725884 -1.01422e-20 0.0134039)
(-0.0750747 2.07907e-20 0.0138896)
(-0.0811639 1.00746e-20 0.0154054)
(-0.0829008 0 0.0158338)
(-0.0891266 0 0.0174753)
(-0.0901741 -7.91207e-24 0.017743)
(-0.0967039 0 0.0194481)
(-0.0974451 0 0.0195359)
(-0.104486 -9.432e-21 0.0212956)
(-0.10546 0 0.0212688)
(-0.112976 0 0.0230882)
(-0.114753 7.68967e-21 0.0230646)
(-0.122213 -1.90319e-21 0.0248926)
(-0.12544 0 0.0250149)
(-0.131783 0 0.0266896)
(-0.137419 0 0.027138)
(-0.141215 -3.77146e-21 0.0283915)
(-0.150619 0 0.0294024)
(-0.15015 -6.18823e-21 0.0298944)
(-0.164649 1.61308e-21 0.031728)
(-0.158152 0 0.0311177)
(-0.178196 0 0.0339292)
(-0.164832 1.35316e-21 0.0320311)
(-0.188778 -1.58271e-23 0.0356167)
(-0.170408 2.47921e-21 0.032663)
(-0.192212 -1.12495e-20 0.0360785)
(-0.175959 2.40313e-21 0.0331992)
(-0.180774 8.78778e-21 0.03413)
(-0.184983 -1.13668e-20 0.0342998)
(-0.139286 -8.86274e-23 0.0272748)
(-0.215406 0 0.0392566)
(-0.0504121 1.20271e-20 0.0114142)
(-0.287512 0 0.0526363)
(0.0892504 0 -0.0178542)
(-0.344493 -1.0615e-19 0.0653471)
(0.226634 0 -0.0486664)
(-0.32876 0 0.0678921)
(0.257174 0 -0.0760785)
(0.223354 3.07238e-21 -0.0181148)
(-0.365375 0 0.0467003)
(0.997519 -1.21932e-19 -0.0982747)
(-3.07014 0 0.459054)
(5.21168 0 -1.19457)
(-0.142047 0 0.544425)
(-7.56389 0 1.15252)
(9.34546 0 -2.08964)
(-3.7142 8.69773e-19 1.17407)
(-0.197021 -4.38638e-19 -0.286422)
(4.99189 4.42238e-19 -0.631376)
(-9.90991 0 1.68072)
(14.5697 0 -3.21138)
(-2.34139 -4.1917e-18 1.24083)
(-5.75328 0 0.245898)
(23.3708 2.12177e-18 -5.07611)
(5.95273 0 -0.609504)
(8.28497 -1.02848e-18 -1.45307)
(1.29164 1.05834e-18 0.79622)
(-25.683 0 6.01241)
(-28.2235 1.25374e-18 4.85483)
(-5.25586 0 0.271821)
(0.0845647 -4.13892e-22 0.0190781)
(0.0814295 -8.39851e-22 0.018034)
(0.0780409 4.19789e-22 0.0178115)
(0.0756483 3.94129e-24 0.0175117)
(0.0734619 -3.77659e-22 0.017213)
(0.0705386 0 0.0164109)
(0.0659074 0 0.0135339)
(0.0591093 6.76781e-22 0.00791224)
(0.0508042 1.26559e-21 0.00133243)
(0.0423138 1.17449e-23 -0.00325194)
(0.0345732 -5.53782e-22 -0.0043488)
(0.027627 5.04477e-22 -0.00260869)
(0.0209916 -4.43613e-22 0.000528607)
(0.0142072 0 0.00399453)
(0.00701818 0 0.00714933)
(-0.000643156 2.81177e-22 0.00949602)
(-0.00858148 -9.16851e-22 0.0107141)
(-0.0162845 -7.26461e-22 0.0108552)
(-0.0230869 0 0.0103336)
(-0.0284858 0 0.00967472)
(-0.03236 0 0.00924777)
(-0.0349411 -4.70915e-24 0.00916316)
(-0.0366146 9.1976e-23 0.00934366)
(-0.0377399 -1.60838e-23 0.00965204)
(-0.0385888 1.35511e-23 0.00997385)
(-0.0393434 -8.96066e-23 0.0102305)
(-0.0401144 5.24059e-23 0.0103694)
(-0.0409428 4.76819e-23 0.0103549)
(-0.0418278 2.88944e-23 0.0101844)
(-0.042727 0 0.00989276)
(-0.0436084 4.22412e-23 0.00955568)
(-0.0444464 -8.92774e-23 0.00924535)
(-0.0452842 1.42061e-22 0.00901945)
(-0.0461439 3.82802e-22 0.00888154)
(-0.0470685 9.73661e-22 0.00882785)
(-0.0479811 0 0.00882388)
(-0.0488712 0 0.0088857)
(-0.0496255 7.34551e-22 0.00899486)
(-0.0503225 0 0.00918591)
(-0.05085 -8.43283e-22 0.00940043)
(-0.0513575 -8.77427e-22 0.00966848)
(-0.0516463 0 0.00990486)
(-0.0519655 -3.64156e-21 0.0101906)
(-0.0520291 -1.81433e-21 0.010423)
(-0.0522643 0 0.0107314)
(-0.0522201 -1.68781e-21 0.0109452)
(-0.0525254 -1.57142e-21 0.011244)
(-0.0524595 0 0.0113784)
(-0.052971 2.59552e-21 0.0116268)
(-0.0530072 -1.16537e-21 0.0116468)
(-0.0540004 -2.08692e-21 0.0118566)
(-0.0544378 0 0.011789)
(-0.0563803 1.95155e-23 0.012041)
(-0.0576175 4.11181e-21 0.0119656)
(-0.0609579 0 0.0123801)
(-0.0631875 0 0.0123976)
(-0.0680516 -3.19027e-21 0.0131102)
(-0.071052 -3.72864e-21 0.0133127)
(-0.0771732 8.32191e-21 0.0144221)
(-0.0803815 9.15061e-21 0.0148242)
(-0.0872904 9.53311e-21 0.0163333)
(-0.0900992 -9.75825e-21 0.0168458)
(-0.0974314 -1.89113e-20 0.0186684)
(-0.0994993 0 0.0191444)
(-0.107184 0 0.021172)
(-0.108582 -1.49708e-20 0.0214917)
(-0.116791 0 0.0236484)
(-0.11793 0 0.0237748)
(-0.126853 8.85869e-21 0.0260361)
(-0.128326 0 0.026027)
(-0.137873 -5.13849e-21 0.0283859)
(-0.140345 3.13995e-23 0.028366)
(-0.149871 1.78675e-21 0.0307571)
(-0.154135 0 0.030891)
(-0.162369 0 0.0331255)
(-0.169597 0 0.0336299)
(-0.174792 -3.46168e-21 0.0353877)
(-0.186616 0 0.0365454)
(-0.186642 2.90919e-21 0.037404)
(-0.204679 -3.04013e-21 0.039531)
(-0.197354 0 0.0390549)
(-0.222224 0 0.0423639)
(-0.206479 0 0.0402932)
(-0.236295 -1.48572e-23 0.0445913)
(-0.214295 -2.32422e-21 0.0411472)
(-0.241888 -1.05643e-20 0.0453789)
(-0.22217 -2.25237e-21 0.0418265)
(-0.229956 8.32715e-21 0.0433597)
(-0.234491 0 0.0430601)
(-0.183072 -1.58612e-21 0.0359433)
(-0.272144 0 0.0486505)
(-0.0802996 -1.12653e-20 0.0180034)
(-0.35869 0 0.0643926)
(0.0852158 0 -0.0170391)
(-0.431757 0 0.0809137)
(0.251213 5.9504e-20 -0.0552884)
(-0.422451 7.77803e-20 0.0870392)
(0.29998 0 -0.0955845)
(0.187597 -2.49712e-21 6.10892e-05)
(-0.409355 1.08738e-19 0.0436266)
(1.0854 1.14088e-19 -0.077241)
(-3.34692 3.83432e-19 0.457876)
(5.9134 0 -1.38788)
(-0.613614 0 0.842564)
(-7.92488 0 1.07322)
(10.5871 0 -2.40985)
(-4.68962 -8.13321e-19 1.53517)
(0.280886 1.53552e-21 -0.52067)
(5.18135 -8.41374e-19 -0.528613)
(-10.6671 0 1.70655)
(16.5663 0 -3.73357)
(-3.21039 1.96599e-18 1.70841)
(-5.01015 0 -0.263465)
(26.0487 -1.98281e-18 -5.75776)
(5.5675 0 -0.303834)
(8.88284 1.91761e-18 -1.50462)
(-0.0148284 0 1.49171)
(-29.123 0 7.04406)
(-30.8872 -1.17119e-18 5.08327)
(-4.47481 0 -0.187867)
(0.0814047 0 0.0210002)
(0.0793432 3.9105e-22 0.0197017)
(0.0764832 0 0.0188187)
(0.0742754 3.72551e-22 0.0179744)
(0.0726361 7.03131e-22 0.0173516)
(0.0710653 0 0.0166752)
(0.0686242 -3.2329e-22 0.0145924)
(0.0643388 0 0.0100533)
(0.058022 -1.28165e-23 0.00404406)
(0.050531 1.08971e-21 -0.000833395)
(0.043053 0 -0.00267309)
(0.0362566 0 -0.00156903)
(0.0300894 4.17258e-22 0.00124047)
(0.0241719 0 0.00463311)
(0.0181241 0 0.00788837)
(0.0116295 0 0.0104213)
(0.00453246 4.3187e-22 0.0117707)
(-0.00297896 3.42989e-22 0.0118539)
(-0.0103513 2.66283e-22 0.0110617)
(-0.0169187 0 0.0100269)
(-0.0222497 0 0.00927149)
(-0.0263054 8.49229e-23 0.00900111)
(-0.0293303 -4.54048e-23 0.00914382)
(-0.0316417 1.51303e-23 0.00951648)
(-0.033517 -1.27406e-23 0.00995568)
(-0.0351673 7.11501e-23 0.0103472)
(-0.0367453 -5.61331e-24 0.010615)
(-0.0383309 -4.48426e-23 0.0107074)
(-0.0399558 -2.71731e-23 0.010615)
(-0.0415934 0 0.0103724)
(-0.0432083 0 0.0100652)
(-0.0447421 8.39598e-23 0.00977881)
(-0.0462138 0 0.00958678)
(-0.0476368 -3.59983e-22 0.00949585)
(-0.0490861 -4.53994e-22 0.00950112)
(-0.050495 5.3187e-22 0.00955605)
(-0.0518716 0 0.00968039)
(-0.0530767 -6.90682e-22 0.00985341)
(-0.0542134 -7.35194e-22 0.0101234)
(-0.0551455 1.21908e-23 0.0104198)
(-0.0560722 1.6382e-21 0.0107832)
(-0.0567473 0 0.0111079)
(-0.0574832 1.70384e-21 0.0114976)
(-0.0579135 0 0.0118241)
(-0.0585674 0 0.0122499)
(-0.0588773 0 0.0125606)
(-0.0596242 5.85229e-24 0.0129813)
(-0.0599086 0 0.0132004)
(-0.0608987 -1.22094e-21 0.0135667)
(-0.0612801 2.19543e-21 0.0136531)
(-0.0628029 1.96111e-21 0.0139791)
(-0.0635807 0 0.0139596)
(-0.0661226 -1.80476e-21 0.0143315)
(-0.0676949 -3.89898e-21 0.0142844)
(-0.0717268 0 0.0148263)
(-0.0742863 0 0.0148516)
(-0.0799616 2.99679e-21 0.0157109)
(-0.0832888 3.49593e-21 0.0159111)
(-0.0903736 -3.90379e-21 0.0172092)
(-0.0939097 -8.5474e-21 0.0176148)
(-0.10197 0 0.0193794)
(-0.105112 0 0.0199121)
(-0.113814 2.65291e-23 0.0220731)
(-0.116226 -8.4865e-21 0.0225846)
(-0.125522 0 0.025036)
(-0.127288 7.02196e-21 0.0253929)
(-0.137356 0 0.0280501)
(-0.138916 0 0.0281999)
(-0.149932 0 0.0310265)
(-0.151941 0 0.0310192)
(-0.163763 -1.88334e-23 0.0339975)
(-0.166988 2.63818e-23 0.0339624)
(-0.178858 -1.7446e-21 0.0370129)
(-0.184246 0 0.0371328)
(-0.194689 5.61751e-22 0.0400401)
(-0.203635 0 0.040566)
(-0.210581 3.246e-21 0.0429585)
(-0.225002 -2.91353e-21 0.0442196)
(-0.225901 2.71178e-21 0.0455921)
(-0.247715 1.43141e-21 0.0479645)
(-0.239951 0 0.0477811)
(-0.26996 1.00483e-21 0.0515429)
(-0.252213 0 0.0494533)
(-0.28829 -3.30459e-21 0.0544362)
(-0.263012 -2.15819e-21 0.0506244)
(-0.296849 9.89671e-21 0.0556859)
(-0.273982 0 0.0515142)
(-0.285244 -1.56248e-20 0.0537527)
(-0.290365 0 0.0528916)
(-0.233891 -1.36264e-21 0.0459804)
(-0.335734 0 0.058935)
(-0.118161 -1.03926e-20 0.0264515)
(-0.436843 0 0.0768104)
(0.0726209 -3.1629e-20 -0.0144511)
(-0.52782 9.28777e-20 0.0976324)
(0.268333 -5.56837e-20 -0.0607595)
(-0.52914 -7.27793e-20 0.10857)
(0.339621 0 -0.116403)
(0.122016 4.55716e-21 0.0260701)
(-0.441999 -2.03436e-19 0.0358342)
(1.13797 0 -0.0445449)
(-3.55806 -3.586e-19 0.410318)
(6.48901 0 -1.55871)
(-1.11914 0 1.17582)
(-8.02498 9.84104e-19 0.9089)
(11.566 0 -2.67745)
(-5.61394 0 1.91263)
(0.853555 3.81933e-19 -0.800011)