/*--------------------------------*- C++ -*----------------------------------*\
| =========                 |                                                 |
| \\      /  F ield         | OpenFOAM: The Open Source CFD Toolbox           |
|  \\    /   O peration     | Version:  2412                                  |
|   \\  /    A nd           | Website:  www.openfoam.com                      |
|    \\/     M anipulation  |                                                 |
\*---------------------------------------------------------------------------*/
FoamFile
{
    version     2.0;
    format      ascii;
    arch        "LSB;label=32;scalar=64";
    class       surfaceScalarField;
    location    "1.415";
    object      ddtCorrDdt0(phi);
}
// * * * * * * * * * * * * * * * * * * * * * * * * * * * * * * * * * * * * * //

dimensions      [0 3 -2 0 0 0 0];

oriented        oriented;

internalField   nonuniform List<scalar> 
24930
(
1.50621e-05
4.1205e-05
-8.96897e-06
2.97239e-06
1.33419e-05
3.99515e-07
4.01302e-06
3.1575e-07
1.57648e-06
8.84575e-07
1.01008e-06
1.67377e-06
8.43963e-07
2.57363e-06
7.6861e-07
3.3734e-06
8.9756e-07
4.0189e-06
1.06453e-06
4.50276e-06
1.23686e-06
4.85731e-06
1.38054e-06
5.1292e-06
1.4849e-06
5.36647e-06
1.55107e-06
5.6168e-06
1.58021e-06
5.92254e-06
1.57649e-06
6.30929e-06
1.55361e-06
6.77628e-06
1.53342e-06
7.2951e-06
1.53701e-06
7.81671e-06
1.57565e-06
8.28179e-06
1.64681e-06
8.6297e-06
1.73596e-06
8.8027e-06
1.82202e-06
8.74584e-06
1.88281e-06
8.40428e-06
1.89846e-06
7.72149e-06
1.85199e-06
6.64015e-06
1.72848e-06
5.10659e-06
1.51448e-06
3.07795e-06
1.19883e-06
5.3201e-07
7.73601e-07
-2.52115e-06
2.35566e-07
-6.02675e-06
-4.12547e-07
-9.87677e-06
-1.15797e-06
-1.39075e-05
-1.97427e-06
-1.79054e-05
-2.81863e-06
-2.16195e-05
-3.63474e-06
-2.47816e-05
-4.3571e-06
-2.71333e-05
-4.91921e-06
-2.84596e-05
-5.26092e-06
-2.86254e-05
-5.33658e-06
-2.76078e-05
-5.12322e-06
-2.55186e-05
-4.62497e-06
-2.26025e-05
-3.88156e-06
-1.92189e-05
-2.96032e-06
-1.5788e-05
-1.96126e-06
-1.27404e-05
-9.84375e-07
-1.04345e-05
-1.38916e-07
-9.12446e-06
5.1586e-07
-8.88827e-06
9.25354e-07
-9.65909e-06
1.12061e-06
-1.1179e-05
1.10738e-06
-1.3123e-05
9.981e-07
-1.50532e-05
8.08448e-07
-1.66266e-05
6.87256e-07
-1.74788e-05
5.86299e-07
-1.74969e-05
6.59057e-07
-1.65525e-05
7.44737e-07
-1.4857e-05
1.02165e-06
-1.24847e-05
1.20511e-06
-9.88651e-06
1.5607e-06
-7.1605e-06
1.67312e-06
-4.8487e-06
1.96885e-06
-2.89056e-06
1.86993e-06
-1.83678e-06
2.03554e-06
-1.35857e-06
1.66141e-06
-2.01605e-06
1.72281e-06
-3.14552e-06
1.1073e-06
-5.36328e-06
1.20817e-06
-7.62611e-06
4.82968e-07
-1.07129e-05
8.34356e-07
-1.32156e-05
1.13433e-07
-1.62717e-05
8.34121e-07
-1.81619e-05
6.4404e-08
-2.05773e-05
1.09817e-06
-2.14867e-05
1.21349e-07
-2.31884e-05
1.37997e-06
-2.32633e-05
1.4742e-07
-2.45044e-05
1.62666e-06
-2.406e-05
2.13908e-07
-2.50522e-05
1.87568e-06
-2.43465e-05
3.66832e-07
-2.51069e-05
1.96053e-06
-2.42946e-05
4.92208e-07
-2.46934e-05
1.84043e-06
-2.37159e-05
7.09982e-07
-2.35239e-05
1.79781e-06
-2.31127e-05
1.69229e-06
-2.17407e-05
2.80409e-07
-2.05396e-05
-7.72294e-07
-2.10793e-05
-5.54292e-07
-1.93831e-05
-3.55256e-06
-1.92871e-05
-1.34663e-06
-1.55067e-05
-3.93192e-06
-1.48456e-05
-8.10792e-07
-5.66681e-06
-1.01714e-05
-1.9188e-05
1.28849e-05
2.40726e-05
-4.2503e-05
-2.17925e-05
4.69482e-05
5.89217e-05
-7.88711e-05
-6.89421e-05
0.00012899
5.78298e-05
-0.000127348
0.000167942
-0.000109965
0.000181894
-1.61051e-05
-0.000336054
0.000516476
-0.000196908
-0.000145947
0.00144854
-0.00164581
-0.00109387
0.0025369
-0.000760197
-0.000329084
0.00121359
-0.00197282
-0.000982574
-0.00185228
0.00140734
-0.00238865
0.000856035
0.000543587
-5.87962e-05
0.000909368
0.00544134
-0.00549294
0.00222134
0.00321077
-0.000658354
0.00286728
0.00025285
-0.000912455
-0.00639483
0.00664331
-0.00805471
0.00166662
-0.00330499
-0.00474149
-0.00267176
2.2787e-05
4.17142e-05
-2.17816e-05
1.26333e-05
2.63013e-05
5.35793e-06
1.39143e-05
1.72534e-06
8.00992e-06
8.48377e-07
4.8451e-06
1.54776e-06
3.22331e-06
2.87471e-06
2.61186e-06
4.27645e-06
2.71863e-06
5.42432e-06
3.18439e-06
6.24033e-06
3.73361e-06
6.78811e-06
4.19824e-06
7.18222e-06
4.52255e-06
7.54471e-06
4.7028e-06
7.9938e-06
4.74371e-06
8.62773e-06
4.66637e-06
9.49768e-06
4.52557e-06
1.05894e-05
4.39856e-06
1.18281e-05
4.35187e-06
1.31021e-05
4.4127e-06
1.42914e-05
4.56055e-06
1.52882e-05
4.73861e-06
1.60024e-05
4.87525e-06
1.63543e-05
4.90333e-06
1.62629e-05
4.77026e-06
1.56363e-05
4.43826e-06
1.43699e-05
3.88065e-06
1.23512e-05
3.07936e-06
9.47085e-06
2.02625e-06
5.63977e-06
7.23973e-07
8.11046e-07
-8.13419e-07
-4.9951e-06
-2.55965e-06
-1.16726e-05
-4.46729e-06
-1.90204e-05
-6.45997e-06
-2.67448e-05
-8.42894e-06
-3.44685e-05
-1.02446e-05
-4.17511e-05
-1.17701e-05
-4.81205e-05
-1.28792e-05
-5.31227e-05
-1.34674e-05
-5.63843e-05
-1.34614e-05
-5.76784e-05
-1.28294e-05
-5.69816e-05
-1.15866e-05
-5.44957e-05
-9.81593e-06
-5.0644e-05
-7.65234e-06
-4.60078e-05
-5.30351e-06
-4.12635e-05
-2.97619e-06
-3.70589e-05
-9.10206e-07
-3.39598e-05
7.68401e-07
-3.23137e-05
1.91853e-06
-3.22711e-05
2.6e-06
-3.36667e-05
2.78234e-06
-3.6187e-05
2.71462e-06
-3.92538e-05
2.38874e-06
-4.2356e-05
2.17826e-06
-4.48391e-05
1.94377e-06
-4.63899e-05
2.12552e-06
-4.65933e-05
2.31696e-06
-4.55956e-05
3.05611e-06
-4.32953e-05
3.59018e-06
-4.02967e-05
4.68497e-06
-3.66236e-05
5.18443e-06
-3.31722e-05
6.283e-06
-2.98126e-05
6.33404e-06
-2.7597e-05
7.19019e-06
-2.60069e-05
6.53135e-06
-2.62152e-05
7.11575e-06
-2.71266e-05
5.67747e-06
-3.0088e-05
6.19135e-06
-3.32751e-05
4.08751e-06
-3.838e-05
4.93142e-06
-4.27771e-05
2.37426e-06
-4.88452e-05
4.01501e-06
-5.31211e-05
1.09991e-06
-5.90829e-05
3.83146e-06
-6.23131e-05
4.18508e-07
-6.76906e-05
4.30581e-06
-6.96161e-05
1.89486e-07
-7.44344e-05
5.14658e-06
-7.51607e-05
1.98547e-07
-7.95174e-05
6.00708e-06
-7.93018e-05
3.97939e-07
-8.30091e-05
6.34963e-06
-8.22186e-05
7.73732e-07
-8.47522e-05
5.78918e-06
-8.36895e-05
1.35855e-06
-8.40684e-05
4.16181e-06
-8.3224e-05
3.12164e-06
-8.05548e-05
1.9039e-07
-8.14215e-05
2.90763e-06
-7.74884e-05
-1.78533e-06
-7.73197e-05
-1.7426e-06
-6.57387e-05
-1.2162e-05
-6.52132e-05
-4.5965e-06
-4.33655e-05
-2.28583e-05
-4.22907e-05
-1.10012e-05
-4.32349e-05
1.32886e-05
3.85229e-05
-0.000124895
-4.54278e-05
0.000131042
0.000131513
-0.000256325
-0.00021005
0.000470136
0.000217126
-0.000553768
0.000497117
-0.000389129
0.000534838
-5.24073e-05
-0.00118501
0.00223696
-9.21485e-05
-0.00123128
0.00409889
-0.00583608
-0.00351239
0.0101503
-0.00171243
-0.00213223
0.0031847
-0.00686709
-0.0028152
0.00837463
0.00461793
-0.0098299
0.00221846
0.00293033
0.000936126
0.0021835
0.0166703
-0.0212489
0.00575784
0.0141199
-0.00203494
0.0106696
-0.000155341
-0.00279325
-0.0201045
0.0265932
-0.0241971
0.00575398
-0.00928732
-0.0196556
-0.0105204
2.69993e-05
4.18629e-05
-2.5308e-05
2.18016e-05
3.4066e-05
1.40803e-05
2.40549e-05
8.06688e-06
1.66132e-05
4.55914e-06
1.10727e-05
3.33809e-06
7.28658e-06
3.55467e-06
5.3318e-06
4.34037e-06
4.94231e-06
5.0744e-06
5.51947e-06
5.50857e-06
6.42516e-06
5.66706e-06
7.22989e-06
5.69298e-06
7.76522e-06
5.75714e-06
8.00219e-06
6.02652e-06
7.94926e-06
6.63666e-06
7.65637e-06
7.65025e-06
7.24535e-06
9.03048e-06
6.88277e-06
1.06525e-05
6.70762e-06
1.23451e-05
6.77195e-06
1.39379e-05
7.02729e-06
1.52927e-05
7.35314e-06
1.63092e-05
7.6048e-06
1.69107e-05
7.65471e-06
1.70208e-05
7.41202e-06
1.65462e-05
6.82041e-06
1.53702e-05
5.84763e-06
1.33577e-05
4.47844e-06
1.03667e-05
2.71539e-06
6.26862e-06
5.7819e-07
9.76276e-07
-1.89761e-06
-5.52531e-06
-4.66048e-06
-1.31555e-05
-7.62671e-06
-2.17269e-05
-1.06662e-05
-3.09461e-05
-1.35986e-05
-4.04193e-05
-1.62182e-05
-4.96664e-05
-1.83205e-05
-5.81494e-05
-1.97326e-05
-6.53248e-05
-2.03248e-05
-7.07155e-05
-2.00177e-05
-7.39908e-05
-1.87922e-05
-7.5039e-05
-1.66937e-05
-7.39986e-05
-1.3867e-05
-7.12617e-05
-1.0529e-05
-6.74104e-05
-7.00458e-06
-6.31549e-05
-3.59997e-06
-5.92049e-05
-6.63481e-07
-5.6215e-05
1.65971e-06
-5.46304e-05
3.19411e-06
-5.47048e-05
4.09518e-06
-5.63502e-05
4.33725e-06
-5.93165e-05
4.35289e-06
-6.3036e-05
4.09786e-06
-6.69991e-05
4.17392e-06
-7.04892e-05
4.26753e-06
-7.31568e-05
5.0839e-06
-7.44842e-05
5.83782e-06
-7.45968e-05
7.43659e-06
-7.32883e-05
8.51033e-06
-7.12034e-05
1.04252e-05
-6.82704e-05
1.11252e-05
-6.55125e-05
1.27989e-05
-6.26952e-05
1.25209e-05
-6.10978e-05
1.37039e-05
-6.00421e-05
1.21706e-05
-6.10375e-05
1.30022e-05
-6.2703e-05
1.02137e-05
-6.68548e-05
1.11611e-05
-7.11736e-05
7.34053e-06
-7.80147e-05
9.16449e-06
-8.39551e-05
4.64822e-06
-9.23495e-05
8.22265e-06
-9.84897e-05
3.05617e-06
-0.000107332
8.90987e-06
-0.000112551
2.57092e-06
-0.000121279
1.07857e-05
-0.000125074
2.55601e-06
-0.000133606
1.2997e-05
-0.000135829
2.39372e-06
-0.00014412
1.48321e-05
-0.000144894
2.19495e-06
-0.00015244
1.53383e-05
-0.000152265
2.41046e-06
-0.000157933
1.35995e-05
-0.000157534
3.4354e-06
-0.000159313
8.76659e-06
-0.000159916
6.87056e-06
-0.000155698
-7.62489e-07
-0.000160295
1.04682e-05
-0.000149436
-1.05688e-05
-0.000154283
3.84098e-06
-0.000126383
-4.06039e-05
-0.000134599
2.54981e-06
-8.24629e-05
-7.56808e-05
-0.000100799
7.25754e-06
-7.12839e-05
-1.63765e-05
3.15087e-05
-0.00022815
-7.18067e-05
0.000234259
0.000177851
-0.00050529
-0.000369728
0.00101867
0.000420682
-0.00134277
0.000837537
-0.000805474
0.00086512
-7.97324e-05
-0.00209397
0.00519501
0.000313869
-0.0036408
0.00670023
-0.0122224
-0.00623376
0.0230821
-0.00222857
-0.00613713
0.00510589
-0.0142011
-0.00471077
0.0180059
0.00833885
-0.0228776
0.00346509
0.00779415
0.00267163
0.00296855
0.0286603
-0.047252
0.00853195
0.034242
-0.00383182
0.0230275
-0.00139786
-0.00522879
-0.0353663
0.0605578
-0.0408496
0.0112385
-0.0148394
-0.0456644
-0.0236623
2.87395e-05
4.08291e-05
-2.58704e-05
2.7639e-05
3.78342e-05
2.2548e-05
3.15362e-05
1.68064e-05
2.48839e-05
1.19382e-05
1.85941e-05
8.66132e-06
1.33355e-05
6.95292e-06
9.91591e-06
6.23564e-06
8.61744e-06
5.82986e-06
8.94495e-06
5.32318e-06
1.00086e-05
4.63323e-06
1.10618e-05
3.87697e-06
1.1743e-05
3.24074e-06
1.19556e-05
2.92287e-06
1.16961e-05
3.09553e-06
1.10379e-05
3.84592e-06
1.01821e-05
5.1304e-06
9.41558e-06
6.78301e-06
8.98433e-06
8.57246e-06
8.98462e-06
1.02709e-05
9.3382e-06
1.17017e-05
9.84261e-06
1.27506e-05
1.0256e-05
1.33458e-05
1.03716e-05
1.34231e-05
1.00526e-05
1.28982e-05
9.22649e-06
1.1655e-05
7.86266e-06
9.54947e-06
5.95654e-06
6.42226e-06
3.52783e-06
2.12162e-06
6.17255e-07
-3.46518e-06
-2.71793e-06
-1.03756e-05
-6.40503e-06
-1.85455e-05
-1.03305e-05
-2.77967e-05
-1.43165e-05
-3.78387e-05
-1.81152e-05
-4.82727e-05
-2.14484e-05
-5.86019e-05
-2.40511e-05
-6.82572e-05
-2.57131e-05
-7.66505e-05
-2.62879e-05
-8.32544e-05
-2.56924e-05
-8.76927e-05
-2.39138e-05
-8.982e-05
-2.10155e-05
-8.97577e-05
-1.71907e-05
-8.78967e-05
-1.27258e-05
-8.48291e-05
-8.05687e-06
-8.12881e-05
-3.58286e-06
-7.80104e-05
2.39096e-07
-7.56897e-05
3.25125e-06
-7.48041e-05
5.23478e-06
-7.56454e-05
6.44323e-06
-7.81389e-05
6.83106e-06
-8.20529e-05
7.02021e-06
-8.67986e-05
6.89485e-06
-9.18674e-05
7.3116e-06
-9.64928e-05
7.73938e-06
-0.000100332
9.21158e-06
-0.000102805
1.05027e-05
-0.000104078
1.29978e-05
-0.000103877
1.4602e-05
-0.000102941
1.74428e-05
-0.000101107
1.83729e-05
-9.95575e-05
2.08159e-05
-9.7917e-05
2.02568e-05
-9.77083e-05
2.20441e-05
-9.80181e-05
1.96583e-05
-0.000100712
2.10937e-05
-0.000104019
1.68985e-05
-0.000110271
1.87214e-05
-0.000116527
1.29796e-05
-0.000125908
1.6326e-05
-0.000134035
9.40894e-06
-0.00014542
1.5613e-05
-0.000153901
7.41683e-06
-0.000166194
1.73772e-05
-0.000173763
6.89856e-06
-0.000186413
2.0932e-05
-0.00019239
6.80869e-06
-0.000205293
2.49188e-05
-0.00020932
6.11488e-06
-0.000222345
2.81495e-05
-0.000224424
5.09211e-06
-0.000236747
2.89393e-05
-0.000237526
4.87898e-06
-0.000247309
2.54563e-05
-0.000248005
6.59005e-06
-0.00025197
1.5565e-05
-0.000254764
1.27937e-05
-0.000248992
-3.34343e-06
-0.000257678
2.20383e-05
-0.000240574
-2.54924e-05
-0.000252097
1.65647e-05
-0.000206027
-8.64358e-05
-0.000225121
2.12852e-05
-0.000139847
-0.000161456
-0.000181414
4.85338e-05
-0.000115402
-8.24511e-05
4.42058e-06
-0.000348247
-0.000118871
0.000357177
0.000204726
-0.000828336
-0.000552525
0.00177706
0.000661224
-0.00255532
0.00117835
-0.00132231
0.00115043
-5.18462e-05
-0.00296781
0.00931324
0.000972713
-0.00758286
0.00920669
-0.0204562
-0.0091902
0.0414791
-0.00227075
-0.0130575
0.00703559
-0.0235068
-0.006623
0.0316641
0.0125366
-0.0420442
0.0046602
0.0156579
0.00504092
0.00257845
0.0410835
-0.083311
0.0103765
0.064946
-0.00612527
0.0395282
-0.00362489
-0.00773082
-0.0519874
0.108919
-0.0575894
0.0168382
-0.0198387
-0.0834157
-0.0422287
2.9093e-05
4.03088e-05
-2.66382e-05
3.03488e-05
3.93936e-05
2.82023e-05
3.60885e-05
2.43208e-05
3.13038e-05
1.98256e-05
2.57495e-05
1.56831e-05
2.02647e-05
1.24805e-05
1.60162e-05
1.02299e-05
1.38558e-05
8.51882e-06
1.37166e-05
6.92078e-06
1.47332e-05
5.25103e-06
1.59304e-05
3.55716e-06
1.6721e-05
2.00154e-06
1.68956e-05
7.91604e-07
1.64049e-05
1.41836e-07
1.53131e-05
1.99559e-07
1.38823e-05
9.6273e-07
1.25382e-05
2.26242e-06
1.16777e-05
3.82273e-06
1.14832e-05
5.35199e-06
1.18665e-05
6.61598e-06
1.25376e-05
7.46686e-06
1.31344e-05
7.82576e-06
1.33442e-05
7.63813e-06
1.29678e-05
6.83203e-06
1.19136e-05
5.2977e-06
1.01582e-05
2.88871e-06
7.71541e-06
-5.64279e-07
4.62876e-06
-5.22937e-06
9.64806e-07
-1.12391e-05
-3.19553e-06
-1.86492e-05
-7.76094e-06
-2.74078e-05
-1.25948e-05
-3.73406e-05
-1.74791e-05
-4.81539e-05
-2.21036e-05
-5.9439e-05
-2.61213e-05
-7.06819e-05
-2.9209e-05
-8.12857e-05
-3.11237e-05
-9.06254e-05
-3.17055e-05
-9.81346e-05
-3.08642e-05
-0.000103405
-2.85831e-05
-0.000106275
-2.49264e-05
-0.000106867
-2.01217e-05
-0.00010559
-1.45138e-05
-0.000103065
-8.65024e-06
-0.000100061
-3.02363e-06
-9.73536e-05
1.78787e-06
-9.56793e-05
5.61197e-06
-9.55462e-05
8.16686e-06
-9.72778e-05
9.80611e-06
-0.000100797
1.04362e-05
-0.000105877
1.08864e-05
-0.000111886
1.0936e-05
-0.000118306
1.17451e-05
-0.000124302
1.25182e-05
-0.000129539
1.47033e-05
-0.000133362
1.65521e-05
-0.000135999
2.00587e-05
-0.000137096
2.22512e-05
-0.000137522
2.62127e-05
-0.000137009
2.74482e-05
-0.000136948
3.09169e-05
-0.000136788
3.01151e-05
-0.000138359
3.28022e-05
-0.000140449
2.95112e-05
-0.000145363
3.18908e-05
-0.000150835
2.61015e-05
-0.000159832
2.92252e-05
-0.000168632
2.12052e-05
-0.000181294
2.66629e-05
-0.000192261
1.67808e-05
-0.000207457
2.64908e-05
-0.000218946
1.44123e-05
-0.000235579
2.9796e-05
-0.000246159
1.3876e-05
-0.000263696
3.56615e-05
-0.000272489
1.36521e-05
-0.000290827
4.21369e-05
-0.000297251
1.21818e-05
-0.000316187
4.74024e-05
-0.000320118
9.92655e-06
-0.0003385
4.87331e-05
-0.000340755
8.99577e-06
-0.000355954
4.29392e-05
-0.000358317
1.16587e-05
-0.000365608
2.5969e-05
-0.000371357
2.19649e-05
-0.000364748
-6.49752e-06
-0.000379482
3.98641e-05
-0.000352121
-5.0556e-05
-0.000375253
4.10084e-05
-0.000308672
-0.000152675
-0.000341329
5.3607e-05
-0.0002201
-0.000283337
-0.000288661
0.000116519
-0.000180249
-0.000191234
-4.80045e-05
-0.000480664
-0.000191251
0.000500274
0.000207755
-0.00122675
-0.00076108
0.00274696
0.000931915
-0.00424717
0.00150095
-0.00189078
0.00138297
6.61314e-05
-0.00377553
0.0144716
0.00185379
-0.0132133
0.0115694
-0.0301716
-0.0122876
0.065335
-0.00181025
-0.0235355
0.00893008
-0.0342466
-0.00847402
0.049067
0.0171811
-0.0677009
0.00585422
0.0269706
0.00809093
0.000332007
0.0535706
-0.128808
0.0111282
0.107383
-0.00897258
0.0596218
-0.00701878
-0.0096864
-0.0696214
0.17152
-0.0739525
0.0211687
-0.0241851
-0.133183
-0.0663642
2.92135e-05
4.06087e-05
-2.75337e-05
3.1232e-05
4.0318e-05
3.09836e-05
3.876e-05
2.9083e-05
3.57628e-05
2.5912e-05
3.16004e-05
2.21311e-05
2.68532e-05
1.84612e-05
2.26122e-05
1.53376e-05
2.00077e-05
1.27455e-05
1.94273e-05
1.03937e-05
2.02872e-05
8.04469e-06
2.15686e-05
5.64838e-06
2.25041e-05
3.29307e-06
2.27477e-05
1.15043e-06
2.21658e-05
-5.39905e-07
2.07522e-05
-1.53926e-06
1.87643e-05
-1.73626e-06
1.67439e-05
-1.22394e-06
1.52758e-05
-2.68231e-07
1.46945e-05
7.92779e-07
1.49582e-05
1.65256e-06
1.57155e-05
2.09931e-06
1.6476e-05
2.02027e-06
1.67913e-05
1.3569e-06
1.63699e-05
4.79106e-08
1.50861e-05
-2.00576e-06
1.29239e-05
-4.94595e-06
9.92135e-06
-8.94459e-06
6.15289e-06
-1.41799e-05
1.71831e-06
-2.08011e-05
-3.27099e-06
-2.88829e-05
-8.70235e-06
-3.83873e-05
-1.44195e-05
-4.91444e-05
-2.01721e-05
-6.08545e-05
-2.55947e-05
-7.30963e-05
-3.02735e-05
-8.53378e-05
-3.38285e-05
-9.69575e-05
-3.59864e-05
-0.000107296
-3.65789e-05
-0.00011575
-3.55109e-05
-0.000121876
-3.27567e-05
-0.000125498
-2.83683e-05
-0.00012674
-2.25957e-05
-0.000126033
-1.58316e-05
-0.000124027
-8.73535e-06
-0.000121538
-1.89059e-06
-0.000119382
3.99298e-06
-0.000118348
8.73393e-06
-0.000118976
1.19707e-05
-0.000121632
1.41681e-05
-0.000126236
1.51539e-05
-0.000132572
1.59902e-05
-0.000139963
1.63058e-05
-0.000147887
1.76185e-05
-0.000155427
1.87991e-05
-0.000162266
2.18091e-05
-0.000167656
2.42624e-05
-0.0001719
2.89235e-05
-0.000174539
3.17513e-05
-0.000176603
3.70339e-05
-0.000177681
3.86166e-05
-0.000179422
4.33798e-05
-0.000181052
4.23447e-05
-0.000184777
4.6278e-05
-0.000189015
4.20186e-05
-0.000196609
4.57845e-05
-0.000204689
3.82135e-05
-0.000216999
4.32146e-05
-0.000228871
3.25488e-05
-0.000245508
4.09075e-05
-0.000259929
2.74496e-05
-0.000279763
4.17889e-05
-0.000294952
2.48568e-05
-0.000316896
4.7271e-05
-0.000331235
2.43745e-05
-0.000354785
5.61962e-05
-0.000367175
2.39288e-05
-0.000392232
6.59586e-05
-0.000401837
2.1366e-05
-0.000428133
7.39999e-05
-0.000434679
1.74081e-05
-0.00046071
7.62488e-05
-0.000465193
1.54498e-05
-0.000487444
6.76178e-05
-0.000492288
1.93895e-05
-0.000504369
4.13803e-05
-0.000514119
3.53711e-05
-0.000507565
-9.37489e-06
-0.000529447
6.50069e-05
-0.000497458
-8.01349e-05
-0.000532688
7.76194e-05
-0.000439865
-0.000245093
-0.000490095
0.000103588
-0.000329904
-0.000444137
-0.000429797
0.000215802
-0.000273202
-0.000348343
-0.000134591
-0.000619441
-0.000296573
0.000662304
0.000178845
-0.00170156
-0.000997651
0.0039244
0.00121976
-0.00646366
0.0017828
-0.00245317
0.00155897
0.000290177
-0.00450134
0.0205317
0.00291398
-0.0206297
0.0137412
-0.0409985
-0.0154164
0.0944919
-0.000849984
-0.0381028
0.0107376
-0.0458335
-0.010149
0.0699518
0.0222117
-0.100065
0.00709495
0.042072
0.01181
-0.0043935
0.0657129
-0.182729
0.0106541
0.162434
-0.0124068
0.0826813
-0.0117493
-0.0103458
-0.0877846
0.247553
-0.0894452
0.022828
-0.0278143
-0.194814
-0.0962871
2.94351e-05
4.13988e-05
-2.82373e-05
3.15071e-05
4.13091e-05
3.2079e-05
4.06194e-05
3.15196e-05
3.88887e-05
2.97254e-05
3.60827e-05
2.69332e-05
3.24666e-05
2.36671e-05
2.8827e-05
2.04889e-05
2.62525e-05
1.76897e-05
2.5402e-05
1.51848e-05
2.6073e-05
1.27466e-05
2.73942e-05
1.0224e-05
2.85284e-05
7.57993e-06
2.90168e-05
4.87405e-06
2.86272e-05
2.29456e-06
2.72225e-05
1.39639e-07
2.49444e-05
-1.32388e-06
2.23551e-05
-2.01699e-06
2.02106e-05
-2.0926e-06
1.90557e-05
-1.86475e-06
1.89843e-05
-1.69157e-06
1.96592e-05
-1.87038e-06
2.04956e-05
-2.58598e-06
2.08961e-05
-3.93081e-06
2.0439e-05
-5.96803e-06
1.89327e-05
-8.78511e-06
1.63551e-05
-1.25113e-05
1.27681e-05
-1.73101e-05
8.28129e-06
-2.33589e-05
3.03624e-06
-3.08165e-05
-2.8137e-06
-3.97753e-05
-9.12501e-06
-5.02146e-05
-1.57198e-05
-6.19719e-05
-2.23221e-05
-7.47422e-05
-2.85204e-05
-8.80903e-05
-3.38389e-05
-0.000101469
-3.78386e-05
-0.000114237
-4.02153e-05
-0.000125709
-4.07984e-05
-0.000135247
-3.94962e-05
-0.000142375
-3.62767e-05
-0.000146894
-3.11706e-05
-0.000148928
-2.44395e-05
-0.000148928
-1.65103e-05
-0.000147578
-8.15357e-06
-0.000145739
-3.84669e-08
-0.000144267
6.98344e-06
-0.000144005
1.27329e-05
-0.000145528
1.67516e-05
-0.000149244
1.96353e-05
-0.000155073
2.10967e-05
-0.00016282
2.24646e-05
-0.000171757
2.31579e-05
-0.000181368
2.51198e-05
-0.00019065
2.6794e-05
-0.000199318
3.07766e-05
-0.000206511
3.38951e-05
-0.000212634
3.9885e-05
-0.000217096
4.33943e-05
-0.000221121
5.02311e-05
-0.000224116
5.21935e-05
-0.000228042
5.85687e-05
-0.000231838
5.72994e-05
-0.000238171
6.29023e-05
-0.000244995
5.75987e-05
-0.000255814
6.33045e-05
-0.000267013
5.37379e-05
-0.000283289
6.1343e-05
-0.000298824
4.76087e-05
-0.000320218
5.98543e-05
-0.000338772
4.21097e-05
-0.000364177
6.24595e-05
-0.000383829
3.95352e-05
-0.000412188
7.09247e-05
-0.000431131
3.92534e-05
-0.000461988
8.38403e-05
-0.000478883
3.85473e-05
-0.000512163
9.78824e-05
-0.000525897
3.46033e-05
-0.000561271
0.000109649
-0.000571396
2.84893e-05
-0.000606988
0.000113392
-0.000614683
2.52232e-05
-0.000645985
0.000101496
-0.000654383
3.08644e-05
-0.000673121
6.36782e-05
-0.000688187
5.43535e-05
-0.000683026
-1.06062e-05
-0.000713887
9.93352e-05
-0.000675375
-0.000116118
-0.000718706
0.000122378
-0.000603829
-0.000359539
-0.000680054
0.000179603
-0.000476473
-0.000648282
-0.000613473
0.000352196
-0.000402308
-0.000560083
-0.0002653
-0.000756649
-0.000442789
0.00083989
0.000109216
-0.00225291
-0.00126711
0.0053016
0.00150648
-0.00923633
0.00199989
-0.00294589
0.00167939
0.000610887
-0.00513446
0.0273454
0.00409108
-0.0298566
0.0156885
-0.0525956
-0.0184653
0.128645
0.000570709
-0.0571398
0.0124263
-0.0576882
-0.0115703
0.0939466
0.027523
-0.139163
0.00841886
0.0611596
0.0161227
-0.0121084
0.0770955
-0.243722
0.00889769
0.230623
-0.016493
0.108065
-0.0179405
-0.00890032
-0.105876
0.335486
-0.103564
0.0205154
-0.0306948
-0.267683
-0.132348
2.97729e-05
4.23879e-05
-2.87879e-05
3.1796e-05
4.24606e-05
3.25991e-05
4.2239e-05
3.27155e-05
4.13313e-05
3.1902e-05
3.9581e-05
3.01419e-05
3.70544e-05
2.76978e-05
3.42388e-05
2.50475e-05
3.20037e-05
2.25997e-05
3.10801e-05
2.04708e-05
3.15589e-05
1.84982e-05
3.28527e-05
1.64756e-05
3.417e-05
1.4239e-05
3.50106e-05
1.16828e-05
3.50808e-05
8.83434e-06
3.41074e-05
5.92516e-06
3.20223e-05
3.30934e-06
2.92549e-05
1.2662e-06
2.66195e-05
-1.43585e-07
2.48576e-05
-1.09172e-06
2.42699e-05
-1.90311e-06
2.46425e-05
-2.936e-06
2.53907e-05
-4.47297e-06
2.58053e-05
-6.68191e-06
2.53122e-05
-9.6571e-06
2.36102e-05
-1.34845e-05
2.0639e-05
-1.82764e-05
1.64693e-05
-2.41742e-05
1.1242e-05
-3.13373e-05
5.1449e-06
-3.99186e-05
-1.61298e-06
-5.00191e-05
-8.84096e-06
-6.16343e-05
-1.63292e-05
-7.46128e-05
-2.3778e-05
-8.8647e-05
-3.07399e-05
-0.000103287
-3.66844e-05
-0.000117971
-4.11105e-05
-0.000132048
-4.36761e-05
-0.000144818
-4.42117e-05
-0.000155616
-4.26413e-05
-0.000163931
-3.89391e-05
-0.000169541
-3.31115e-05
-0.000172563
-2.54214e-05
-0.000173472
-1.63129e-05
-0.000172982
-6.66688e-06
-0.000172002
2.76993e-06
-0.000171428
1.09902e-05
-0.000172155
1.78324e-05
-0.000174789
2.27224e-05
-0.000179788
2.64159e-05
-0.000187066
2.84676e-05
-0.000196457
3.05205e-05
-0.000207176
3.1709e-05
-0.00021873
3.44884e-05
-0.000230014
3.67565e-05
-0.000240798
4.18958e-05
-0.00025009
4.57561e-05
-0.000258424
5.32937e-05
-0.000265045
5.75402e-05
-0.000271418
6.62164e-05
-0.000276717
6.85897e-05
-0.000283282
7.69583e-05
-0.000289692
7.54399e-05
-0.000299173
8.32216e-05
-0.000309102
7.67696e-05
-0.00032379
8.50884e-05
-0.000338709
7.32633e-05
-0.000359721
8.43643e-05
-0.000379613
6.70585e-05
-0.000406684
8.44034e-05
-0.000430159
6.15334e-05
-0.000462229
8.95815e-05
-0.000487236
5.93303e-05
-0.000523305
0.00010205
-0.000547847
5.95114e-05
-0.000587537
0.00012013
-0.000610023
5.8608e-05
-0.000653308
0.000139705
-0.000672333
5.30718e-05
-0.000718831
0.000156409
-0.000733757
4.44041e-05
-0.000781201
0.000162462
-0.000793394
3.96107e-05
-0.000836176
0.000147008
-0.000849547
4.75081e-05
-0.000877272
9.52019e-05
-0.000899351
8.06144e-05
-0.000897398
-8.36241e-06
-0.000939412
0.000145035
-0.00089479
-0.000158074
-0.000951333
0.000180406
-0.000815498
-0.000494936
-0.000924655
0.000288571
-0.000667537
-0.000905948
-0.000850926
0.000534983
-0.000577213
-0.000834405
-0.00045276
-0.000881327
-0.00063969
0.00102693
-1.24524e-05
-0.00287942
-0.00157612
0.00686619
0.00176653
-0.012578
0.00212745
-0.00330612
0.00174833
0.000990204
-0.00567954
0.0347729
0.00531126
-0.0408482
0.0173944
-0.0646784
-0.0213337
0.167372
0.00237168
-0.0808462
0.0139815
-0.0692972
-0.0126682
0.120594
0.0329762
-0.184812
0.00983531
0.0842825
0.0208719
-0.0231568
0.0873266
-0.310197
0.00583401
0.312106
-0.0212926
0.13519
-0.0256565
-0.00453864
-0.123199
0.433026
-0.115832
0.0131472
-0.0328147
-0.3507
-0.17507
3.0305e-05
4.34515e-05
-2.94287e-05
3.23374e-05
4.37029e-05
3.31598e-05
4.38148e-05
3.35528e-05
4.34778e-05
3.33095e-05
4.24975e-05
3.23447e-05
4.0848e-05
3.07489e-05
3.88175e-05
2.8846e-05
3.70388e-05
2.70303e-05
3.61769e-05
2.55322e-05
3.64874e-05
2.42972e-05
3.76693e-05
2.31305e-05
3.90709e-05
2.18051e-05
4.02226e-05
2.00838e-05
4.08378e-05
1.77919e-05
4.05758e-05
1.49601e-05
3.91577e-05
1.18616e-05
3.676e-05
8.86695e-06
3.40841e-05
6.24588e-06
3.19508e-05
4.05291e-06
3.08503e-05
2.11485e-06
3.07669e-05
1.0177e-07
3.12394e-05
-2.34313e-06
3.15499e-05
-5.49176e-06
3.10027e-05
-9.51078e-06
2.91565e-05
-1.45121e-05
2.58673e-05
-2.0599e-05
2.11806e-05
-2.78826e-05
1.52481e-05
-3.64838e-05
8.29682e-06
-4.65248e-05
6.005e-07
-5.80935e-05
-7.58364e-06
-7.11894e-05
-1.59944e-05
-8.56707e-05
-2.42999e-05
-0.00010123
-3.20226e-05
-0.000117402
-3.85883e-05
-0.00013361
-4.34325e-05
-0.000149197
-4.61625e-05
-0.00016346
-4.66047e-05
-0.000175724
-4.47121e-05
-0.000185447
-4.04873e-05
-0.00019238
-3.39177e-05
-0.000196629
-2.52606e-05
-0.000198687
-1.49555e-05
-0.000199303
-3.99066e-06
-0.000199438
6.82028e-06
-0.000200023
1.62952e-05
-0.000202008
2.43107e-05
-0.000206023
3.01517e-05
-0.00021258
3.4775e-05
-0.000221584
3.75258e-05
-0.000232909
4.04247e-05
-0.000245702
4.22289e-05
-0.00025951
4.60172e-05
-0.000273112
4.89909e-05
-0.000286357
5.5509e-05
-0.000298098
6.02014e-05
-0.000309034
6.95562e-05
-0.000318207
7.46038e-05
-0.00032738
8.54669e-05
-0.00033543
8.82789e-05
-0.000345165
9.91009e-05
-0.000354706
9.73001e-05
-0.000367964
0.000107874
-0.000381597
0.000100133
-0.000400905
0.000111882
-0.00042024
9.7474e-05
-0.000446888
0.000113162
-0.00047194
9.16837e-05
-0.000505764
0.000115612
-0.000535082
8.6624e-05
-0.000575101
0.000124424
-0.000606509
8.52791e-05
-0.000651814
0.00014217
-0.000683131
8.63299e-05
-0.000733458
0.000166879
-0.000762843
8.54338e-05
-0.000818247
0.000193558
-0.000843998
7.82241e-05
-0.000904061
0.000216736
-0.000925343
6.6722e-05
-0.000987385
0.000226217
-0.00100576
6.03062e-05
-0.00106297
0.000207108
-0.00108319
7.12059e-05
-0.0011228
0.000138863
-0.00115409
0.000116359
-0.00115779
-1.95698e-07
-0.00121361
0.000204778
-0.00116418
-0.000204687
-0.00123808
0.00025585
-0.00108793
-0.000644649
-0.00121881
0.000419251
-0.000908388
-0.00121692
-0.00115733
0.000783317
-0.00080853
-0.00118383
-0.000712703
-0.00097739
-0.000898626
0.00121297
-0.000200778
-0.00357648
-0.00193529
0.00860168
0.0019675
-0.0164798
0.00214102
-0.00347892
0.00176995
0.00136144
-0.00615409
0.0426966
0.00649464
-0.0534995
0.0188607
-0.077044
-0.0239468
0.210178
0.00443221
-0.109226
0.0154128
-0.0802768
-0.0134068
0.149412
0.0383937
-0.236617
0.011312
0.111345
0.0258228
-0.0376804
0.09607
-0.380467
0.00152417
0.406643
-0.0269189
0.163625
-0.0348883
0.00342839
-0.139016
0.537152
-0.125827
-4.31717e-05
-0.0341508
-0.442376
-0.22459
3.06159e-05
4.43547e-05
-2.9629e-05
3.28611e-05
4.48261e-05
3.37587e-05
4.52788e-05
3.43375e-05
4.54101e-05
3.44667e-05
4.50235e-05
3.40794e-05
4.40594e-05
3.31966e-05
4.26939e-05
3.20187e-05
4.13766e-05
3.08682e-05
4.06563e-05
2.99983e-05
4.0858e-05
2.94782e-05
4.18611e-05
2.91637e-05
4.32276e-05
2.88465e-05
4.45469e-05
2.82545e-05
4.55921e-05
2.70834e-05
4.6049e-05
2.51384e-05
4.55226e-05
2.24762e-05
4.39279e-05
1.93803e-05
4.17241e-05
1.61958e-05
3.96497e-05
1.31647e-05
3.82729e-05
1.03223e-05
3.77557e-05
7.47076e-06
3.78374e-05
4.25759e-06
3.79204e-05
3.20893e-07
3.7283e-05
-4.61078e-06
3.53601e-05
-1.07172e-05
3.18887e-05
-1.81225e-05
2.68435e-05
-2.69175e-05
2.03469e-05
-3.71735e-05
1.26377e-05
-4.8956e-05
4.04776e-06
-6.23078e-05
-5.08612e-06
-7.72042e-05
-1.44287e-05
-9.34972e-05
-2.35957e-05
-0.000110876
-3.2074e-05
-0.000128862
-3.92546e-05
-0.000146856
-4.45135e-05
-0.000164192
-4.73926e-05
-0.000180179
-4.76986e-05
-0.000194144
-4.54181e-05
-0.000205527
-4.06111e-05
-0.000214052
-3.3263e-05
-0.000219804
-2.36255e-05
-0.000223295
-1.21066e-05
-0.000225306
2.03449e-07
-0.000226854
1.24405e-05
-0.000228901
2.32224e-05
-0.000232457
3.24893e-05
-0.000238168
3.93522e-05
-0.000246605
4.5024e-05
-0.000257657
4.85758e-05
-0.000271248
5.24916e-05
-0.000286452
5.5033e-05
-0.000302872
6.00467e-05
-0.000319153
6.38446e-05
-0.000335254
7.2005e-05
-0.000349839
7.76295e-05
-0.000363822
8.91283e-05
-0.000375991
9.5046e-05
-0.000388475
0.000108518
-0.000399783
0.000111791
-0.00041329
0.000125624
-0.000426544
0.000123485
-0.000444296
0.000137594
-0.000462312
0.000128377
-0.000487101
0.000144549
-0.000511642
0.000127157
-0.000544963
0.000148765
-0.000576094
0.00012239
-0.000617919
0.000154712
-0.000654143
0.000118426
-0.000703607
0.000168469
-0.000742632
0.000118584
-0.000798963
0.000193066
-0.000838442
0.000121092
-0.000901534
0.000226217
-0.000939388
0.000120601
-0.00100942
0.000261959
-0.00104366
0.000111839
-0.00112019
0.000293547
-0.0011498
9.74293e-05
-0.00122972
0.000307949
-0.00125648
8.95199e-05
-0.00133166
0.000285358
-0.00136121
0.000104454
-0.00141632
0.000198264
-0.00145968
0.000164469
-0.00147223
1.71103e-05
-0.00154519
0.000281898
-0.00149321
-0.00025369
-0.00158911
0.000353357
-0.00142424
-0.00080909
-0.00157767
0.000572465
-0.00122135
-0.00157383
-0.00155714
0.0011185
-0.00110676
-0.00163487
-0.00106573
-0.00101866
-0.00123274
0.00138012
-0.000474731
-0.00433363
-0.00235969
0.0104877
0.00206959
-0.0209081
0.00201639
-0.00342496
0.00174485
0.00163312
-0.0066057
0.0510467
0.00756706
-0.0676715
0.0201047
-0.0895812
-0.0262685
0.25655
0.00659596
-0.142092
0.0167458
-0.0904256
-0.0137954
0.179951
0.0435634
-0.293981
0.0127619
0.142125
0.0306643
-0.055596
0.103063
-0.45289
-0.0039757
0.513672
-0.0334577
0.193104
-0.045544
0.0155123
-0.152623
0.644227
-0.133204
-0.0194639
-0.0346331
-0.540946
-0.284166
3.13176e-05
4.52199e-05
-3.036e-05