/*--------------------------------*- C++ -*----------------------------------*\
| =========                 |                                                 |
| \\      /  F ield         | OpenFOAM: The Open Source CFD Toolbox           |
|  \\    /   O peration     | Version:  2412                                  |
|   \\  /    A nd           | Website:  www.openfoam.com                      |
|    \\/     M anipulation  |                                                 |
\*---------------------------------------------------------------------------*/
FoamFile
{
    version     2.0;
    format      ascii;
    arch        "LSB;label=32;scalar=64";
    class       volVectorField;
    location    "1.415";
    object      U_0;
}
// * * * * * * * * * * * * * * * * * * * * * * * * * * * * * * * * * * * * * //

dimensions      [0 1 -1 0 0 0 0];

internalField   nonuniform List<vector> 
12600
(
(18.7476 1.23853e-21 2.09647)
(11.6236 1.60905e-20 0.451696)
(7.35328 1.89164e-20 -0.477756)
(5.09057 0 -0.709327)
(3.97703 1.7091e-20 -0.682421)
(3.33597 1.59123e-20 -0.607676)
(2.89447 0 -0.539952)
(2.56304 0 -0.48445)
(2.30325 -4.77921e-20 -0.438946)
(2.09296 0 -0.401166)
(1.91845 2.00336e-20 -0.369263)
(1.77079 1.83379e-20 -0.341906)
(1.64387 -1.67937e-20 -0.318145)
(1.53334 0 -0.297283)
(1.43602 -1.40652e-20 -0.278795)
(1.34953 0 -0.262278)
(1.27202 4.72236e-20 -0.247416)
(1.20208 0 -0.23396)
(1.13857 -1.9746e-20 -0.221706)
(1.08058 -1.80497e-20 -0.210493)
(1.02737 1.64677e-20 -0.200184)
(0.978331 5.36158e-24 -0.190668)
(0.932953 0 -0.181851)
(0.89081 -2.47932e-20 -0.173655)
(0.851544 0 -0.166011)
(0.814846 0 -0.158862)
(0.780454 -1.83317e-20 -0.152158)
(0.748139 0 -0.145856)
(0.717704 4.13427e-24 -0.139918)
(0.688976 1.31971e-20 -0.134312)
(0.661803 1.17304e-20 -0.129007)
(0.63605 1.03721e-20 -0.12398)
(0.611598 -9.11465e-21 -0.119206)
(0.588342 -1.59019e-20 -0.114665)
(0.566188 -1.37491e-20 -0.110339)
(0.545049 1.1748e-20 -0.106211)
(0.524849 0 -0.102268)
(0.50552 -8.22236e-21 -0.0984939)
(0.486998 0 -0.0948784)
(0.469226 5.21273e-21 -0.0914097)
(0.452153 0 -0.088078)
(0.43573 1.76114e-23 -0.0848737)
(0.419914 0 -0.0817885)
(0.404664 1.60263e-23 -0.0788143)
(0.389944 -8.86406e-22 -0.0759442)
(0.375718 2.59674e-21 -0.0731709)
(0.361957 -4.18546e-21 -0.0704891)
(0.348627 0 -0.0678918)
(0.335706 0 -0.0653749)
(0.323161 -8.1019e-21 -0.0629319)
(0.310976 -1.83366e-20 -0.0605599)
(0.299119 -2.02564e-20 -0.0582523)
(0.287581 1.95275e-23 -0.0560074)
(0.276327 -2.34969e-20 -0.0538183)
(0.265356 0 -0.051685)
(0.254629 2.60846e-20 -0.0495998)
(0.244154 2.71401e-20 -0.0475642)
(0.233887 2.80409e-20 -0.0455696)
(0.223846 0 -0.0436194)
(0.21398 0 -0.0417037)
(0.204316 0 -0.039828)
(0.194796 -6.10166e-20 -0.0379807)
(0.185461 0 -0.0361697)
(0.176241 0 -0.0343815)
(0.167191 1.25176e-19 -0.0326267)
(0.158229 0 -0.0308896)
(0.149426 0 -0.0291835)
(0.140691 0 -0.0274909)
(0.132103 -1.25094e-19 -0.0258273)
(0.123568 1.24446e-19 -0.0241742)
(0.115172 1.23595e-19 -0.0225483)
(0.106823 2.35053e-23 -0.0209318)
(0.0986039 -1.21298e-19 -0.0193404)
(0.0904411 0 -0.0177602)
(0.0823928 1.18318e-19 -0.0162022)
(0.0744318 0 -0.0146611)
(0.0665626 0 -0.0131377)
(0.0588378 0 -0.0116423)
(0.0511712 2.86805e-23 -0.0101579)
(0.0437343 2.17009e-19 -0.00871779)
(0.0363157 2.12434e-19 -0.00728101)
(0.0292285 -2.07648e-19 -0.00590796)
(0.0221356 -2.02741e-19 -0.00453361)
(0.0154532 0 -0.00323808)
(0.00881413 0 -0.00195077)
(0.00255355 3.74434e-19 -0.000735992)
(-0.00342527 -7.27366e-19 0.000424662)
(-0.00933366 7.05379e-19 0.00157219)
(-0.0143293 3.4173e-19 0.00254341)
(-0.0201032 0 0.00366572)
(-0.0236391 -6.38794e-19 0.00435624)
(-0.0296949 3.07924e-19 0.00553246)
(-0.0312443 -2.96972e-19 0.00584138)
(-0.0379171 5.7079e-19 0.00713456)
(-0.0375089 0 0.00706521)
(-0.0441221 0 0.0083474)
(-0.0433473 0 0.00819909)
(-0.0477881 0 0.00907066)
(-0.0496511 0 0.00942841)
(-0.0491518 0 0.00934796)
(-0.0526822 -4.20828e-19 0.0100332)
(-0.0538066 -8.04342e-19 0.010245)
(-0.053782 -7.63839e-19 0.0102581)
(-0.0618933 0 0.0117523)
(-0.0374927 0 0.0072334)
(-0.0820852 0 0.0156848)
(-0.0498348 -6.33798e-19 0.00928444)
(-0.0491229 -1.17266e-18 0.0096264)
(-0.0894752 5.5785e-19 0.0170393)
(-0.0320248 0 0.00614209)
(-0.08811 -9.82751e-19 0.0170783)
(-0.0731306 0 0.0137946)
(-0.0553613 -8.92186e-19 0.0108886)
(-0.116573 8.14002e-19 0.0227723)
(-0.19095 -7.86798e-19 0.0364276)
(-0.114761 -7.68984e-19 0.0220608)
(-0.291653 6.97835e-19 0.0555716)
(-0.241448 -1.55867e-22 0.0451195)
(-0.143135 7.1299e-19 0.0268614)
(-0.0744474 0 0.0138017)
(29.1596 -1.2503e-21 4.02891)
(25.1137 0 1.86019)
(20.2491 -1.91454e-20 -0.212876)
(16.0807 0 -1.21204)
(13.1198 -1.73181e-20 -1.50775)
(11.0761 -3.03982e-20 -1.51874)
(9.60316 -1.40675e-20 -1.44107)
(8.49064 0 -1.34339)
(7.61738 3.55889e-22 -1.24795)
(6.91054 -2.18556e-20 -1.16083)
(6.32443 2.00614e-20 -1.08272)
(5.82903 1.84119e-20 -1.01287)
(5.4037 -1.68956e-20 -0.950286)
(5.03377 1.55007e-20 -0.893986)
(4.70849 2.84888e-20 -0.84311)
(4.41976 0 -0.796923)
(4.16141 -6.44758e-23 -0.754805)
(3.92859 2.18618e-20 -0.716234)
(3.71745 2.00332e-20 -0.680772)
(3.52493 0 -0.648046)
(3.34851 0 -0.617742)
(3.18612 1.52125e-20 -0.589589)
(3.03605 0 -0.563358)
(2.89685 1.25684e-20 -0.538849)
(2.76731 -2.27758e-20 -0.515891)
(2.64639 0 -0.494334)
(2.5332 1.85804e-20 -0.474047)
(2.42697 0 -0.454915)
(2.32703 -1.49718e-20 -0.436837)
(2.23281 -2.67363e-20 -0.419722)
(2.14377 -2.37607e-20 -0.403491)
(2.05949 -1.04985e-20 -0.388073)
(1.97954 9.22313e-21 -0.373404)
(1.90359 3.21909e-20 -0.359427)
(1.83131 2.7827e-20 -0.346089)
(1.76241 0 -0.333344)
(1.69664 0 -0.32115)
(1.63377 -1.74047e-23 -0.309467)
(1.57358 0 -0.298262)
(1.51589 -5.26247e-21 -0.2875)
(1.46052 0 -0.277154)
(1.40731 -5.36878e-21 -0.267194)
(1.35612 0 -0.257598)
(1.3068 -1.02403e-21 -0.24834)
(1.25925 0 -0.239401)
(1.21333 -2.61476e-21 -0.230758)
(1.16895 0 -0.222397)
(1.12601 0 -0.214294)
(1.08442 6.92575e-21 -0.20644)
(1.04408 0 -0.198814)
(1.00493 0 -0.191407)
(0.966872 0 -0.184198)
(0.929868 2.20285e-20 -0.177185)
(0.893809 4.70826e-20 -0.170344)
(0.858685 0 -0.163676)
(0.824376 0 -0.157158)
(0.790898 -2.71158e-20 -0.150794)
(0.758116 -2.80395e-20 -0.144557)
(0.726076 0 -0.13846)
(0.694624 0 -0.132469)
(0.663838 0 -0.126604)
(0.633537 0 -0.120827)
(0.603841 -6.14358e-20 -0.115164)
(0.574536 6.19087e-20 -0.109571)
(0.545785 -1.24464e-19 -0.104084)
(0.51734 0 -0.0986509)
(0.489407 0 -0.093317)
(0.461709 0 -0.0880224)
(0.434488 4.75296e-23 -0.0828216)
(0.40745 -1.23256e-19 -0.07765)
(0.380859 -1.22301e-19 -0.0725671)
(0.354429 2.42237e-19 -0.0675092)
(0.328409 3.60196e-23 -0.062534)
(0.302574 -1.18258e-19 -0.0575884)
(0.277102 -1.16635e-19 -0.0527167)
(0.251903 0 -0.0478917)
(0.226992 0 -0.043127)
(0.202526 0 -0.038442)
(0.178241 2.17349e-19 -0.0337969)
(0.15466 0 -0.029282)
(0.131132 0 -0.0247819)
(0.108621 2.03229e-19 -0.0204735)
(0.0860819 1.98215e-19 -0.0161631)
(0.064812 0 -0.0120944)
(0.0436485 0 -0.00804783)
(0.023677 0 -0.00423116)
(0.00451961 7.07973e-19 -0.000568043)
(-0.0143556 -4.28901e-23 0.00303616)
(-0.0305166 3.31864e-19 0.00612336)
(-0.048947 -3.20562e-19 0.00964176)
(-0.0606485 6.19059e-19 0.0118715)
(-0.0798939 2.98062e-19 0.015551)
(-0.0854901 5.74361e-19 0.0165999)
(-0.106613 0 0.020659)
(-0.106044 0 0.0204955)
(-0.127174 0 0.024596)
(-0.125038 0 0.0240953)
(-0.139914 4.64936e-19 0.0270277)
(-0.1452 0 0.0279578)
(-0.145248 0 0.027951)
(-0.156243 -4.03513e-19 0.0301588)
(-0.160073 3.85259e-19 0.0307561)
(-0.1607 1.46198e-18 0.031048)
(-0.183163 -6.95784e-19 0.0349176)
(-0.116921 0 0.0227221)
(-0.244872 0 0.0475022)
(-0.145785 0 0.0270539)
(-0.15519 5.58508e-19 0.0307749)
(-0.264151 -5.30908e-19 0.0505312)
(-0.101428 0 0.0192823)
(-0.27217 1.86742e-18 0.0532783)
(-0.216116 9.03603e-19 0.0407817)
(-0.184556 1.69267e-18 0.0362037)
(-0.360491 0 0.07183)
(-0.562914 0 0.108316)
(-0.351897 -7.27821e-19 0.0688434)
(-0.853543 0 0.166582)
(-0.67683 -7.11825e-19 0.127089)
(-0.413463 -6.73277e-19 0.0769698)
(-0.20257 0 0.0375843)
(31.9032 0 3.9006)
(31.0876 0 2.82177)
(28.5563 -1.29657e-20 1.0254)
(25.2117 0 -0.382097)
(21.9585 0 -1.2264)
(19.1846 1.51119e-20 -1.65128)
(16.9258 1.3322e-20 -1.81956)
(15.1003 0 -1.85111)
(13.6125 4.20734e-22 -1.81733)
(12.3821 2.07052e-20 -1.75476)
(11.3485 -3.78028e-20 -1.68092)
(10.4676 -1.74452e-20 -1.60415)
(9.70703 1.14516e-22 -1.52845)
(9.04299 -1.46881e-20 -1.45566)
(8.45755 -1.34713e-20 -1.38657)
(7.93697 1.23e-20 -1.32144)
(7.47058 -2.2629e-20 -1.26026)
(7.04997 -2.07171e-20 -1.20286)
(6.66838 0 -1.14903)
(6.32036 0 -1.09853)
(6.00144 1.57779e-20 -1.05109)
(5.70794 1.4384e-20 -1.00649)
(5.43678 0 -0.964501)
(5.18535 0 -0.924912)
(4.95147 2.15814e-20 -0.887533)
(4.73326 0 -0.852189)
(4.5291 -3.52054e-20 -0.818721)
(4.33761 1.58308e-20 -0.786985)
(4.15757 0 -0.75685)
(3.98792 1.26681e-20 -0.728196)
(3.82772 1.12585e-20 -0.700914)
(3.67617 0 -0.674906)
(3.53252 -8.7503e-21 -0.650083)
(3.39613 -1.52543e-20 -0.626361)
(3.26642 1.21879e-23 -0.603665)
(3.14288 0 -0.581927)
(3.02502 0 -0.561084)
(2.91243 7.88294e-21 -0.541076)
(2.80473 0 -0.521851)
(2.70157 0 -0.503358)
(2.60263 0 -0.485553)
(2.50761 0 -0.468391)
(2.41626 0 -0.451835)
(2.32833 0 -0.435846)
(2.2436 0 -0.420392)
(2.16184 2.43154e-21 -0.405437)
(2.08288 -3.93226e-21 -0.390957)
(2.00652 0 -0.376916)
(1.93263 -6.55241e-21 -0.363297)
(1.86101 0 -0.350065)
(1.79155 0 -0.337208)
(1.72408 1.91489e-20 -0.32469)
(1.65852 0 -0.312506)
(1.59468 -2.22452e-20 -0.300618)
(1.53253 2.3501e-20 -0.289029)
(1.47188 0 -0.277695)
(1.41273 2.56303e-20 -0.26663)
(1.35485 0 -0.255782)
(1.29832 0 -0.245177)
(1.24286 0 -0.234754)
(1.18861 5.6579e-20 -0.224552)
(1.13525 5.73775e-20 -0.214499)
(1.08298 2.85386e-23 -0.204648)
(1.03143 -1.16892e-19 -0.194915)
(0.980881 2.503e-23 -0.18537)
(0.930901 0 -0.175915)
(0.881836 0 -0.166635)
(0.833213 -1.17417e-19 -0.157421)
(0.785439 3.82747e-23 -0.148374)
(0.738011 0 -0.139373)
(0.691371 0 -0.13053)
(0.645031 -1.14199e-19 -0.121726)
(0.599414 2.89774e-23 -0.113069)
(0.554129 2.69741e-23 -0.104457)
(0.509478 0 -0.0959794)
(0.465303 0 -0.0875735)
(0.42163 -2.12633e-19 -0.0792783)
(0.378718 2.08718e-19 -0.0711105)
(0.336119 0 -0.0630184)
(0.294719 0 -0.0551394)
(0.253407 0 -0.047292)
(0.21383 0 -0.0397645)
(0.174191 0 -0.0322354)
(0.136728 0 -0.0251182)
(0.099414 0 -0.018031)
(0.0641725 0 -0.0113491)
(0.0302548 -6.65597e-19 -0.00490412)
(-0.00309392 -3.2234e-19 0.00140401)
(-0.0319247 -3.1191e-19 0.00688262)
(-0.0644681 3.01225e-19 0.0130254)
(-0.0857128 -5.81543e-19 0.0170606)
(-0.119573 -2.79968e-19 0.0234584)
(-0.130381 -2.6968e-19 0.0254795)
(-0.167415 0 0.0325423)
(-0.167478 0 0.0324166)
(-0.20478 0 0.0396756)
(-0.201535 0 0.0387834)
(-0.228751 -4.36187e-19 0.0442541)
(-0.237187 0 0.045542)
(-0.239644 0 0.0460418)
(-0.258507 3.78345e-19 0.0499162)
(-0.265724 0 0.0509043)
(-0.267698 -6.85133e-19 0.0518095)
(-0.303294 6.52029e-19 0.057144)
(-0.201378 0 0.0396449)
(-0.407386 0 0.0792167)
(-0.239865 0 0.0432121)
(-0.270113 5.23065e-19 0.0547756)
(-0.436133 0 0.0825118)
(-0.178005 -4.78194e-19 0.0338196)
(-0.465214 6.7979e-24 0.0921015)
(-0.358303 -8.45677e-19 0.0664275)
(-0.333927 -1.58406e-18 0.067009)
(-0.615556 0 0.125793)
(-0.928715 6.96888e-19 0.177907)
(-0.598216 6.80788e-19 0.119079)
(-1.39784 6.16977e-19 0.274692)
(-1.06729 0 0.194191)
(-0.671381 6.29538e-19 0.12018)
(-0.307524 0 0.0541961)
(32.4245 0 2.95919)
(32.9898 0 2.77217)
(32.4354 1.22569e-20 1.72658)
(30.7908 0 0.524057)
(28.5357 -1.22964e-20 -0.482209)
(26.1174 2.50103e-20 -1.20596)
(23.7959 0 -1.66954)
(21.6876 -2.18227e-20 -1.93399)
(19.8261 2.09207e-20 -2.06332)
(18.2018 1.89145e-20 -2.10765)
(16.7872 1.77736e-20 -2.10084)
(15.5511 -1.61506e-20 -2.06419)
(14.465 1.5032e-20 -2.01066)
(13.5045 -2.73975e-20 -1.94808)
(12.6496 0 -1.8812)
(11.8839 -2.32031e-20 -1.81288)
(11.1941 0 -1.74487)
(10.5693 0 -1.67821)
(10.0007 0 -1.61354)
(9.48068 1.63019e-20 -1.55117)
(9.00324 -3.41398e-23 -1.49128)
(8.56316 -2.59585e-23 -1.43392)
(8.15609 1.23635e-20 -1.37907)
(7.77831 0 -1.32668)
(7.42667 0 -1.27664)
(7.09843 0 -1.22886)
(6.79125 3.32818e-20 -1.18323)
(6.50307 -5.92277e-24 -1.13964)
(6.23211 0 -1.09797)
(5.9768 0 -1.05812)
(5.73576 0 -1.01998)
(5.50775 0 -0.983458)
(5.2917 1.65516e-20 -0.94845)
(5.08663 0 -0.914871)
(4.89168 -1.24792e-20 -0.882639)
(4.70605 0 -0.851673)
(4.52906 0 -0.821902)
(4.36005 -7.47552e-21 -0.793254)
(4.19845 0 -0.765666)
(4.04374 0 -0.739076)
(3.89544 3.54383e-21 -0.713428)
(3.7531 -4.87487e-21 -0.688666)
(3.61633 0 -0.664744)
(3.48475 -9.82019e-22 -0.641609)
(3.35803 0 -0.619222)
(3.23584 -4.57475e-21 -0.597535)
(3.1179 1.89238e-23 -0.576515)
(3.00392 0 -0.556116)
(2.89368 0 -0.536314)
(2.78689 7.21437e-21 -0.51706)
(2.6834 1.63377e-20 -0.498341)
(2.58294 -3.61336e-20 -0.480106)
(2.48538 0 -0.462349)
(2.39044 -2.09508e-20 -0.445015)
(2.29809 -2.21841e-20 -0.428111)
(2.208 -2.32207e-20 -0.411574)
(2.12021 -2.41468e-20 -0.395425)
(2.03436 0 -0.379589)
(1.95055 0 -0.364105)
(1.86839 -5.23955e-20 -0.348885)
(1.78806 -1.06706e-19 -0.333984)
(1.7091 -5.41167e-20 -0.3193)
(1.6318 3.06246e-23 -0.30491)
(1.55561 5.50971e-20 -0.290692)
(1.48092 5.53564e-20 -0.276747)
(1.40713 0 -0.262932)
(1.33471 0 -0.249374)
(1.26298 1.10651e-19 -0.23591)
(1.19252 2.20293e-19 -0.22269)
(1.1226 0 -0.209536)
(1.05385 1.08553e-19 -0.196614)
(0.985574 1.0749e-19 -0.183744)
(0.918365 1.06307e-19 -0.171093)
(0.851654 2.09834e-19 -0.1585)
(0.785878 0 -0.146106)
(0.720792 0 -0.133808)
(0.656445 2.00092e-19 -0.121677)
(0.593186 -3.92706e-19 -0.109718)
(0.530387 -1.9244e-19 -0.097876)
(0.469297 0 -0.0863289)
(0.408335 0 -0.0748338)
(0.349851 0 -0.0637887)
(0.291262 0 -0.0527431)
(0.235801 0 -0.0422874)
(0.18051 0 -0.0318641)
(0.128236 -3.2225e-19 -0.0220393)
(0.0777731 4.11112e-23 -0.0125206)
(0.0282416 3.02667e-19 -0.00325131)
(-0.0149707 0 0.00491054)
(-0.0632805 2.82746e-19 0.0139128)
(-0.0956573 2.72928e-19 0.0200335)
(-0.145742 0 0.0293656)
(-0.163138 -2.5301e-19 0.0326113)
(-0.217716 -4.85559e-19 0.0429004)
(-0.219399 0 0.0429748)
(-0.274714 0 0.0537003)
(-0.270727 0 0.0524013)
(-0.31245 -4.08888e-19 0.0608677)
(-0.323722 0 0.0623105)
(-0.330868 0 0.0637833)
(-0.357852 3.54494e-19 0.0693837)
(-0.369398 -3.38324e-19 0.0708167)
(-0.37342 0 0.0725891)
(-0.421286 0 0.0788571)
(-0.289993 0 0.0578177)
(-0.567753 0 0.110794)
(-0.332048 0 0.0585006)
(-0.393098 1.70028e-23 0.0812386)
(-0.60373 0 0.113454)
(-0.262481 4.47479e-19 0.0500261)
(-0.665151 -8.17749e-19 0.133051)
(-0.499661 0 0.0915952)
(-0.503065 -6.8414e-23 0.102564)
(-0.877832 0 0.183559)
(-1.28531 -1.00009e-22 0.246174)
(-0.850684 0 0.172186)
(-1.91765 -5.76853e-19 0.380341)
(-1.40568 0 0.249631)
(-0.914766 5.88314e-19 0.158369)
(-0.382746 0 0.0639762)
(32.5266 0 2.1073)
(33.2838 0 2.23206)
(33.6299 0 1.7561)
(33.2648 0 0.961069)
(32.2409 1.16069e-20 0.118265)
(30.7655 -9.01746e-22 -0.631763)
(29.0442 0 -1.23355)
(27.2361 2.05976e-20 -1.67792)
(25.4508 0 -1.98205)
(23.7546 -3.52053e-20 -2.17422)
(22.1798 0 -2.28303)
(20.7366 1.52473e-20 -2.33252)
(19.4226 0 -2.34102)
(18.2288 2.58676e-20 -2.32179)
(17.1442 -1.17799e-20 -2.28414)
(16.1572 2.17626e-20 -2.23453)
(15.2568 -1.99184e-20 -2.17741)
(14.4331 -1.82791e-20 -2.11585)
(13.6773 0 -2.05195)
(12.9817 -1.53935e-20 -1.98716)
(12.3397 -1.40599e-20 -1.92249)
(11.7453 -2.56091e-20 -1.85862)
(11.1936 -1.16745e-20 -1.79599)
(10.68 0 -1.73492)
(10.2009 0 -1.67558)
(9.75269 0 -1.61808)
(9.33258 -1.57079e-20 -1.56247)
(8.93795 -1.41306e-20 -1.50877)
(8.5665 0 -1.45695)
(8.21619 0 -1.40698)
(7.88524 1.00538e-20 -1.35881)
(7.57203 0 -1.31238)
(7.27513 1.41954e-24 -1.26763)
(6.99325 -1.36395e-20 -1.22448)
(6.72522 1.17964e-20 -1.18288)
(6.47 0 -1.14275)
(6.22665 0 -1.10403)
(5.9943 7.05555e-21 -1.06665)
(5.77218 0 -1.03054)
(5.55956 0 -0.995649)
(5.35579 -3.34418e-21 -0.961912)
(5.16028 4.59995e-21 -0.929271)
(4.97248 0 -0.897674)
(4.79186 9.26517e-22 -0.867062)
(4.61799 0 -0.837394)
(4.4504 2.14847e-21 -0.808611)
(4.28872 3.48624e-21 -0.780678)
(4.13253 0 -0.753537)
(3.98155 5.78948e-21 -0.727163)
(3.83538 -6.80356e-21 -0.701496)
(3.69379 -3.07822e-20 -0.676519)
(3.5564 1.70212e-20 -0.652169)
(3.42307 -1.84389e-20 -0.628442)
(3.2934 2.54865e-23 -0.605267)
(3.16732 0 -0.582655)
(3.04442 2.18864e-20 -0.560523)
(2.9247 2.2757e-20 -0.538901)
(2.80771 -2.34868e-20 -0.517692)
(2.69356 2.41277e-20 -0.496946)
(2.58173 4.93641e-20 -0.476549)
(2.47244 5.02444e-20 -0.456575)
(2.36509 -5.09116e-20 -0.436888)
(2.26003 5.14793e-20 -0.417592)
(2.15655 0 -0.398523)
(2.05515 0 -0.379819)
(1.95501 5.21766e-20 -0.361286)
(1.85678 0 -0.343097)
(1.75953 0 -0.325031)
(1.66403 -1.0364e-19 -0.307291)
(1.5693 0 -0.289636)
(1.47618 -1.02131e-19 -0.272293)
(1.38372 -2.02202e-19 -0.255013)
(1.29271 0 -0.238029)
(1.20239 -9.8655e-20 -0.221114)
(1.11333 0 -0.204469)
(1.0252 0 -0.187939)
(0.938056 -1.88003e-19 -0.17164)
(0.852343 1.84529e-19 -0.155552)
(0.767251 3.93672e-23 -0.13963)
(0.684391 0 -0.124079)
(0.6017 0 -0.108607)
(0.522254 0 -0.0937131)
(0.442653 -1.64565e-19 -0.0788223)
(0.367166 1.60202e-19 -0.0647041)
(0.291855 0 -0.0506158)
(0.220562 6.04954e-19 -0.0373373)
(0.151545 2.93353e-19 -0.0244151)
(0.0838958 -5.68016e-19 -0.0118938)
(0.0243624 -2.74714e-19 -0.000717479)
(-0.0415898 -5.30463e-19 0.0114082)
(-0.0869197 0 0.0199414)
(-0.155047 0 0.0324488)
(-0.180644 2.37238e-19 0.0372185)
(-0.254587 4.55219e-19 0.0509882)
(-0.259101 -4.37432e-19 0.0514578)
(-0.334461 0 0.0660179)
(-0.330251 0 0.0642958)
(-0.388912 3.83103e-19 0.0763152)
(-0.4027 3.65771e-19 0.0776386)
(-0.417254 0 0.0806896)
(-0.452409 -3.31992e-19 0.0880572)
(-0.46957 3.16803e-19 0.0900195)
(-0.476306 0 0.0929697)
(-0.536086 0 0.0995587)
(-0.381462 0 0.0770715)
(-0.724057 0 0.141626)
(-0.422446 0 0.0726717)
(-0.522764 -4.58108e-19 0.110081)
(-0.76548 0 0.142473)
(-0.355285 0 0.0681874)
(-0.869363 0 0.175608)
(-0.640469 7.39739e-19 0.115998)
(-0.690295 6.92868e-19 0.143232)
(-1.14259 0 0.244177)
(-1.63001 -6.0919e-19 0.311432)
(-1.10502 0 0.227429)
(-2.40651 -5.38926e-19 0.48073)
(-1.68643 0 0.289243)
(-1.14193 -5.49802e-19 0.18978)
(-0.421131 0 0.0640958)
(32.5982 -4.96947e-21 1.49372)
(33.181 -6.17169e-21 1.63266)
(33.7072 7.33115e-21 1.44099)
(33.9323 8.26342e-21 0.979304)
(33.7391 0 0.386635)
(33.1395 -9.90811e-21 -0.229992)
(32.2069 0 -0.804743)
(31.0323 1.74026e-20 -1.30057)
(29.7043 1.66378e-20 -1.70205)
(28.2995 3.20887e-20 -2.00959)
(26.8774 -1.47617e-20 -2.23293)
(25.48 1.37731e-20 -2.38556)
(24.1348 0 -2.48143)
(22.8572 0 -2.53317)
(21.6545 1.11058e-20 -2.55142)
(20.5285 -1.14535e-22 -2.54474)
(19.4776 1.76006e-22 -2.51976)
(18.4984 1.35835e-22 -2.48158)
(17.5861 0 -2.43403)
(16.7361 0 -2.38)
(15.9433 0 -2.32165)
(15.203 2.40628e-20 -2.26058)
(14.5109 1.09432e-20 -2.198)
(13.8627 0 -2.13479)
(13.2549 0 -2.07162)
(12.6839 1.63567e-20 -2.00897)
(12.1467 0 -1.94719)
(11.6404 0 -1.88654)
(11.1627 0 -1.82719)
(10.7111 0 -1.76925)
(10.2837 -6.34076e-24 -1.71282)
(9.87848 0 -1.65791)
(9.49387 -1.56393e-24 -1.60457)
(9.12829 1.28572e-20 -1.55277)
(8.78035 2.70066e-24 -1.5025)
(8.44878 0 -1.45374)
(8.13243 0 -1.40645)
(7.83024 0 -1.3606)
(7.54122 0 -1.31613)
(7.2645 0 -1.27299)
(6.99926 0 -1.23115)
(6.74473 0 -1.19055)
(6.50024 -2.56523e-21 -1.15114)
(6.26511 -9.09444e-22 -1.11287)
(6.03878 0 -1.0757)
(5.82066 1.98937e-21 -1.03956)
(5.61028 0 -1.00443)
(5.4071 0 -0.970243)
(5.21074 -1.08906e-20 -0.936973)
(5.0207 0 -0.904551)
(4.83669 1.44806e-20 -0.872965)
(4.65821 0 -0.842138)
(4.48507 3.46985e-20 -0.812073)
(4.31676 2.47076e-23 -0.78268)
(4.15317 0 -0.75398)
(3.99379 0 -0.725871)
(3.83861 0 -0.698393)
(3.68704 4.41917e-20 -0.671424)
(3.53922 -4.53949e-20 -0.645034)
(3.39448 -4.63833e-20 -0.619074)
(3.2531 -4.7211e-20 -0.593646)
(3.11429 9.57671e-20 -0.568572)
(2.97851 4.83707e-20 -0.543991)
(2.84484 0 -0.519691)
(2.71391 0 -0.495853)
(2.58468 -2.44335e-23 -0.472225)
(2.45794 0 -0.449034)
(2.33253 0 -0.425991)
(2.20941 -9.7354e-20 -0.403365)
(2.08733 0 -0.380838)
(1.96734 0 -0.358709)
(1.84823 1.89958e-19 -0.336651)
(1.731 -9.38683e-20 -0.314972)
(1.61466 0 -0.293367)
(1.49995 0 -0.272112)
(1.3864 0 -0.250983)
(1.27414 1.76563e-19 -0.230155)
(1.16364 0 -0.209571)
(1.05394 3.39477e-19 -0.18921)
(0.946997 -1.66076e-19 -0.169288)
(0.840278 0 -0.14948)
(0.737576 0 -0.130372)
(0.634669 1.54425e-19 -0.111275)
(0.536885 -2.59947e-23 -0.0931358)
(0.439272 1.46101e-19 -0.0750202)
(0.34672 -2.837e-19 -0.0579409)
(0.256894 2.75047e-19 -0.0412509)
(0.168936 2.66305e-19 -0.0251474)
(0.0908842 2.5757e-19 -0.0105952)
(0.00516036 2.96812e-23 0.00495341)
(-0.0552064 0 0.0162703)
(-0.143438 -2.30848e-19 0.0322205)
(-0.179115 0 0.0388592)
(-0.274468 0 0.0563794)
(-0.283282 4.09792e-19 0.0574951)
(-0.380946 0 0.0762581)
(-0.377204 0 0.0741493)
(-0.455548 0 0.0902863)
(-0.471525 -3.42476e-19 0.0912464)
(-0.496709 0 0.0965567)
(-0.539844 -3.10738e-19 0.105633)
(-0.564345 0 0.108324)
(-0.574424 0 0.112683)
(-0.646269 0 0.119191)
(-0.474025 0 0.0971305)
(-0.874185 0 0.171345)
(-0.510935 -4.63605e-19 0.0858672)
(-0.657174 -4.28498e-19 0.141013)
(-0.919733 4.06853e-19 0.169516)
(-0.456438 0 0.0884499)
(-1.07471 0 0.219173)
(-0.780856 -1.38313e-18 0.13995)
(-0.89289 0 0.188524)
(-1.4044 5.90145e-19 0.306589)
(-1.95954 0 0.373818)
(-1.35565 5.56145e-19 0.283751)
(-2.85755 5.03618e-19 0.574533)
(-1.90338 0 0.313043)
(-1.35051 -5.13554e-19 0.214303)
(-0.414135 0 0.0529406)
(32.6521 4.67989e-21 1.04217)
(33.0628 1.13759e-20 1.12853)
(33.5085 -6.90556e-21 1.04488)
(33.8733 -7.83188e-22 0.780897)
(34.0461 7.4812e-21 0.389999)
(33.971 0 -0.0658698)
(33.6401 0 -0.537596)
(33.0734 -1.6387e-20 -0.989439)
(32.3064 -3.04298e-20 -1.39776)
(31.3816 -7.09238e-22 -1.74951)
(30.3424 1.38989e-20 -2.04019)
(29.2297 -1.2968e-20 -2.27114)
(28.0782 1.17239e-20 -2.44721)
(26.9165 0 -2.57499)
(25.7659 0 -2.66166)
(24.642 -9.51369e-21 -2.71423)
(23.5554 3.48017e-20 -2.73909)
(22.5124 3.20194e-20 -2.74183)
(21.5166 0 -2.72717)
(20.5693 0 -2.69899)
(19.6703 0 -2.66046)
(18.8184 -6.72337e-23 -2.61412)
(18.0119 -2.05561e-20 -2.56201)
(17.2487 9.33147e-21 -2.50574)
(16.5264 1.69482e-20 -2.44657)
(15.8425 -3.07535e-20 -2.38551)
(15.1948 1.38668e-20 -2.32335)
(14.5809 1.24861e-20 -2.2607)
(13.9986 1.12032e-20 -2.19804)
(13.4458 0 -2.13573)
(12.9207 -8.91794e-21 -2.07407)
(12.4212 7.88058e-21 -2.01327)
(11.9457 -6.93521e-21 -1.95348)
(11.4927 -1.20986e-20 -1.89483)
(11.0606 -2.09388e-20 -1.8374)
(10.6481 0 -1.78124)
(10.2539 0 -1.72639)
(9.87681 -6.27919e-21 -1.67287)
(9.51576 0 -1.62066)
(9.16973 3.99771e-21 -1.56977)
(8.83778 2.99058e-21 -1.52019)
(8.51903 0 -1.47187)
(8.21267 4.84378e-21 -1.4248)
(7.91792 8.55844e-22 -1.37894)
(7.6341 0 -1.33426)
(7.36051 -1.87192e-21 -1.29071)
(7.09659 -3.0431e-21 -1.24827)
(6.84168 0 -1.20688)
(6.59532 1.02166e-20 -1.16651)
(6.3569 -5.98594e-21 -1.12711)
(6.12607 -1.35674e-20 -1.08866)
(5.90221 0 -1.05107)
(5.68509 -2.49973e-23 -1.01437)
(5.47408 3.48626e-20 -0.978445)
(5.26905 0 -0.94333)
(5.06934 0 -0.908902)
(4.87497 -2.00818e-20 -0.87522)
(4.68519 -2.07648e-20 -0.842134)
(4.50017 4.26399e-20 -0.809737)
(4.31908 4.36014e-20 -0.777847)
(4.14225 4.43756e-20 -0.746594)
(3.96872 -4.4989e-20 -0.71576)
(3.79904 -9.08858e-20 -0.68552)
(3.63206 0 -0.65561)
(3.46857 0 -0.62626)
(3.30726 -9.21294e-20 -0.597157)
(3.14911 0 -0.568585)
(2.99268 0 -0.540184)
(2.83914 9.14364e-20 -0.512293)
(2.68694 0 -0.48451)
(2.53738 -9.0038e-20 -0.457218)
(2.38892 -3.25055e-23 -0.429995)
(2.24284 8.81245e-20 -0.403242)
(2.09785 0 -0.376558)
(1.9549 0 -0.350313)
(1.81334 0 -0.324194)
(1.67339 1.65595e-19 -0.298456)
(1.53554 0 -0.272983)
(1.39869 -1.59223e-19 -0.247798)
(1.26512 3.11538e-19 -0.223109)
(1.13183 0 -0.198578)
(1.00333 0 -0.174859)
(0.874568 0 -0.151166)
(0.751949 -2.57087e-23 -0.128612)
(0.629491 -1.36966e-19 -0.106075)
(0.513161 -2.65845e-19 -0.0848121)
(0.4 -2.57786e-19 -0.0639544)
(0.289251 2.49492e-19 -0.0439066)
(0.190203 0 -0.0255724)
(0.0822874 2.32913e-19 -0.00627078)
(0.0045064 0 0.00824657)
(-0.106169 2.16227e-19 0.0279306)
(-0.154108 0 0.0368347)
(-0.273176 0 0.0583974)
(-0.288053 0 0.0604542)
(-0.410537 -3.6691e-19 0.0838238)
(-0.408177 -3.51614e-19 0.081378)
(-0.509277 0 0.102272)
(-0.527156 3.20473e-19 0.102577)
(-0.566724 -3.06125e-19 0.110955)
(-0.617373 2.9075e-19 0.121621)
(-0.651497 -2.77369e-19 0.125305)
(-0.665454 0 0.131323)
(-0.750101 0 0.137432)
(-0.565397 0 0.117614)
(-1.0159 0 0.199478)
(-0.597104 4.33512e-19 0.0980747)
(-0.793806 -1.56344e-23 0.173614)
(-1.06488 -7.607e-19 0.194124)
(-0.565322 0 0.110857)
(-1.27754 0 0.263037)
(-0.920761 6.46356e-19 0.163521)
(-1.10679 0 0.237871)
(-1.65729 -5.51492e-19 0.369576)
(-2.27047 0 0.432148)
(-1.5957 -1.03927e-18 0.339782)
(-3.26413 0 0.659614)
(-2.0509 0 0.319147)
(-1.53764 4.79741e-19 0.231005)
(-0.352242 0 0.0278292)
(32.676 0 0.689407)
(32.9771 -5.23337e-21 0.732034)
(33.3137 0 0.681873)
(33.6439 -6.58623e-21 0.518172)
(33.9043 -1.34267e-20 0.25577)
(34.0442 0 -0.0736101)
(34.0351 6.69758e-21 -0.438555)
(33.8655 0 -0.812972)
(33.5361 9.01506e-22 -1.17666)
(33.0562 -2.57905e-20 -1.51514)
(32.442 0 -1.8191)
(31.7138 0 -2.08363)
(30.8937 -1.10269e-20 -2.30714)
(30.0042 0 -2.49036)
(29.0664 0 -2.63559)
(28.0992 0 -2.7461)
(27.1187 -1.62569e-20 -2.82566)
(26.1385 -1.49728e-20 -2.87824)
(25.169 -1.35808e-20 -2.90773)
(24.2182 0 -2.91775)
(23.2921 0 -2.91161)
(22.3946 -1.05702e-20 -2.89221)
(21.5283 9.64206e-21 -2.86206)
(20.6945 -8.7765e-21 -2.82332)
(19.8939 -1.59402e-20 -2.77778)
(19.1264 2.88082e-20 -2.72697)
(18.3915 -5.41439e-23 -2.67213)
(17.6883 -1.17431e-20 -2.6143)
(17.0157 -1.05364e-20 -2.55433)
(16.3725 0 -2.49291)
(15.7576 0 -2.43062)
(15.1694 -7.41115e-21 -2.3679)
(14.6068 0 -2.30513)
(14.0684 1.13773e-20 -2.24261)
(13.5529 9.84388e-21 -2.18058)
(13.0591 -8.42046e-21 -2.11921)
(12.5858 0 -2.05867)
(12.1319 5.90418e-21 -1.99904)
(11.6964 4.78993e-21 -1.94043)
(11.2781 3.77128e-24 -1.88289)
(10.8761 -5.62818e-21 -1.82647)
(10.4895 0 -1.77117)
(10.1175 -2.28407e-21 -1.71703)
(9.75916 0 -1.66404)
(9.41378 0 -1.6122)
(9.08057 0 -1.56148)
(8.7589 1.3862e-23 -1.51189)
(8.44805 0 -1.46337)
(8.14749 -4.794e-21 -1.41593)
(7.85651 1.12376e-20 -1.3695)
(7.57471 1.27495e-20 -1.3241)
(7.30137 0 -1.27962)
(7.03623 -1.52972e-20 -1.23611)
(6.77854 -3.27095e-20 -1.19345)
(6.52815 0 -1.15168)
(6.28428 0 -1.11068)
(6.04695 1.88639e-20 -1.07052)
(5.81527 1.94669e-20 -1.03102)
(5.58944 -2.00154e-20 -0.992309)
(5.36844 -4.08815e-20 -0.954164)
(5.15271 0 -0.916754)
(4.94105 0 -0.879813)
(4.73413 2.86246e-23 -0.843564)
(4.53058 -4.29339e-20 -0.807685)
(4.33133 0 -0.772462)
(4.13478 4.3229e-20 -0.73751)
(3.94215 0 -0.703188)
(3.75165 0 -0.669046)
(3.56471 0 -0.635512)
(3.37943 0 -0.602083)
(3.19739 3.44894e-23 -0.569242)
(3.01671 -3.2217e-23 -0.536459)
(2.83892 -8.26091e-20 -0.504241)
(2.66244 0 -0.472076)
(2.48846 -8.03086e-20 -0.440443)
(2.31609 0 -0.408923)
(2.14567 -1.55279e-19 -0.377874)
(1.97768 1.52284e-19 -0.347092)
(1.8109 -1.49198e-19 -0.316675)
(1.64789 -1.46002e-19 -0.286794)
(1.48524 0 -0.257124)
(1.32813 1.39165e-19 -0.228366)
(1.17071 0 -0.199654)
(1.02044 -1.32005e-19 -0.172257)
(0.870314 -1.28279e-19 -0.144867)
(0.727382 2.49044e-19 -0.118999)
(0.588067 0 -0.0935348)
(0.451726 -4.67313e-19 -0.0691381)
(0.328893 0 -0.0465738)
(0.196039 2.18043e-19 -0.023143)
(0.0981404 0 -0.00496833)
(-0.0376418 2.02385e-19 0.0187745)
(-0.100362 0 0.0304013)
(-0.245752 3.73701e-19 0.0563226)
(-0.268788 -3.59009e-19 0.0596778)
(-0.418905 3.43354e-19 0.0880779)
(-0.419099 3.29006e-19 0.0853971)
(-0.546407 0 0.111723)
(-0.565961 -5.99592e-19 0.111099)
(-0.624249 5.72695e-19 0.123449)
(-0.681649 0 0.13549)
(-0.728354 2.59406e-19 0.140574)
(-0.746596 0 0.148441)
(-0.845392 0 0.153986)
(-0.65273 -4.46784e-19 0.138037)
(-1.14676 0 0.225582)
(-0.680043 0 0.109239)
(-0.929534 3.74512e-19 0.207342)
(-1.19917 7.10913e-19 0.216059)
(-0.680502 3.42018e-19 0.135316)
(-1.47371 0 0.306403)
(-1.05961 0 0.186798)
(-1.32662 0 0.290322)
(-1.89493 0 0.431814)
(-2.55872 4.96695e-19 0.485936)
(-1.81701 4.85431e-19 0.39385)
(-3.61986 0 0.734071)
(-2.12325 0 0.30663)
(-1.6996 0 0.238978)
(-0.22495 0 -0.013998)
(32.6744 4.1838e-21 0.401389)
(32.9062 0 0.416755)
(33.1616 4.90143e-21 0.375518)
(33.4261 0 0.261658)
(33.6688 6.00417e-21 0.0757293)
(33.858 0 -0.167568)
(33.9709 -6.29487e-21 -0.449097)
(33.9926 1.15401e-20 -0.750924)
(33.9136 2.35627e-20 -1.05789)
(33.7295 7.2912e-22 -1.35801)
(33.4397 0 -1.64226)
(33.0476 0 -1.90446)
(32.5599 0 -2.14072)
(31.9856 0 -2.34897)
(31.3359 0 -2.52848)
(30.6228 0 -2.6795)
(29.8586 1.46464e-20 -2.80305)
(29.0558 -1.35684e-20 -2.90072)
(28.2259 1.27606e-20 -2.9745)
(27.3793 0 -3.02661)
(26.5254 0 -3.05936)
(25.6718 9.73164e-21 -3.07511)
(24.8251 8.90056e-21 -3.07608)
(23.9905 8.12001e-21 -3.0644)
(23.172 0 -3.042)
(22.3726 -1.3501e-20 -3.01061)
(21.5944 -2.43313e-20 -2.97177)
(20.839 1.09352e-20 -2.92684)
(20.1073 0 -2.87699)
(19.3997 0 -2.82322)
(18.7163 0 -2.76639)
(18.057 6.92824e-21 -2.70723)
(17.4213 0 -2.64636)
(16.8088 0 -2.58431)
(16.2187 9.22203e-21 -2.5215)
(15.6504 7.91023e-21 -2.45829)
(15.103 0 -2.395)
(14.5758 5.54237e-21 -2.33186)
(14.0679 -8.99711e-21 -2.26908)
(13.5785 -3.53408e-21 -2.20683)
(13.1068 2.64546e-21 -2.14523)
(12.6519 0 -2.08438)
(12.213 0 -2.02438)
(11.7894 0 -1.96528)
(11.3804 -4.65411e-22 -1.90713)
(10.9851 0 -1.84994)
(10.603 2.67291e-21 -1.79376)
(10.2333 3.61287e-21 -1.73857)
(9.8754 0 -1.68439)
(9.52859 -5.26938e-21 -1.63119)
(9.19245 0 -1.579)
(8.86619 0 -1.52773)
(8.54953 -1.43155e-20 -1.47744)
(8.24162 2.18454e-23 -1.42802)
(7.94234 1.62083e-20 -1.37954)
(7.65076 0 -1.33185)
(7.36694 0 -1.28506)
(7.08983 -1.82695e-20 -1.23897)
(6.8197 0 -1.19373)
(6.55535 3.8362e-20 -1.14909)
(6.29728 0 -1.10527)
(6.04411 0 -1.06194)
(5.79663 7.99516e-20 -1.01939)
(5.5532 8.05267e-20 -0.977229)
(5.31493 4.0429e-20 -0.935811)
(5.07993 0 -0.894673)
(4.84964 0 -0.854256)
(4.62191 4.03684e-20 -0.814014)
(4.39847 8.03544e-20 -0.774474)
(4.17703 0 -0.735022)
(3.95947 7.91745e-20 -0.696256)
(3.74351 -7.8363e-20 -0.657518)
(3.53103 7.74406e-20 -0.619446)
(3.32005 -7.63741e-20 -0.58139)
(3.11205 7.52709e-20 -0.543967)
(2.90586 0 -0.506624)