/*--------------------------------*- C++ -*----------------------------------*\
| =========                 |                                                 |
| \\      /  F ield         | OpenFOAM: The Open Source CFD Toolbox           |
|  \\    /   O peration     | Version:  2412                                  |
|   \\  /    A nd           | Website:  www.openfoam.com                      |
|    \\/     M anipulation  |                                                 |
\*---------------------------------------------------------------------------*/
FoamFile
{
    version     2.0;
    format      ascii;
    arch        "LSB;label=32;scalar=64";
    class       surfaceScalarField;
    location    "1.065";
    object      ddtCorrDdt0(phi);
}
// * * * * * * * * * * * * * * * * * * * * * * * * * * * * * * * * * * * * * //

dimensions      [0 3 -2 0 0 0 0];

oriented        oriented;

internalField   nonuniform List<scalar> 
24930
(
-0.000223599
-0.00024671
0.000370422
-9.93451e-05
-0.000117508
-4.92309e-05
-4.29941e-05
-2.98475e-05
-9.68013e-06
-1.96816e-05
2.77685e-06
-1.20367e-05
6.32872e-06
-4.33287e-06
6.1608e-06
4.95207e-06
4.59819e-06
1.35242e-05
5.31368e-06
1.95379e-05
7.62231e-06
2.24945e-05
9.8202e-06
2.30312e-05
1.05996e-05
2.19332e-05
9.91886e-06
1.95765e-05
8.48565e-06
1.60859e-05
6.90069e-06
1.16417e-05
5.40168e-06
6.53523e-06
4.06428e-06
1.1049e-06
2.92789e-06
-4.25442e-06
1.95706e-06
-9.0573e-06
1.0564e-06
-1.27823e-05
1.84952e-07
-1.49828e-05
-5.75164e-07
-1.53535e-05
-1.06059e-06
-1.37261e-05
-1.10771e-06
-1.00394e-05
-6.14011e-07
-4.31787e-06
4.27451e-07
3.33638e-06
1.92754e-06
1.27327e-05
3.74504e-06
2.35617e-05
5.74705e-06
3.53621e-05
7.84303e-06
4.75134e-05
9.97515e-06
5.9276e-05
1.20872e-05
6.98705e-05
1.40944e-05
7.85835e-05
1.58713e-05
8.48529e-05
1.72693e-05
8.83221e-05
1.81558e-05
8.88414e-05
1.84524e-05
8.64639e-05
1.81444e-05
8.14227e-05
1.72648e-05
7.41423e-05
1.58648e-05
6.52079e-05
1.4001e-05
5.53486e-05
1.17317e-05
4.53324e-05
9.14166e-06
3.5888e-05
6.34086e-06
2.75374e-05
3.4989e-06
2.05643e-05
7.68958e-07
1.48982e-05
-1.65304e-06
1.02762e-05
-3.71814e-06
6.1698e-06
-5.28415e-06
2.16734e-06
-6.52116e-06
-2.25431e-06
-7.27814e-06
-7.10049e-06
-8.02367e-06
-1.25399e-05
-8.42854e-06
-1.78671e-05
-9.38342e-06
-2.30371e-05
-1.00476e-05
-2.67847e-05
-1.18875e-05
-2.95011e-05
-1.30071e-05
-2.96899e-05
-1.57515e-05
-2.89104e-05
-1.65295e-05
-2.53881e-05
-1.92682e-05
-2.22643e-05
-1.80226e-05
-1.67884e-05
-1.96284e-05
-1.37697e-05
-1.50439e-05
-8.33082e-06
-1.5666e-05
-7.20944e-06
-7.96019e-06
-2.27121e-06
-9.53802e-06
-3.04668e-06
1.57188e-07
2.40157e-06
-4.07892e-06
6.66728e-07
6.12243e-06
7.90117e-06
-1.80397e-06
4.97819e-06
1.10877e-05
1.26989e-05
-9.70614e-07
8.2382e-06
1.0319e-05
1.11901e-05
8.16048e-06
2.42133e-06
6.91001e-06
1.56709e-06
-1.40454e-07
-9.33498e-06
2.37069e-05
-2.21497e-05
1.70288e-05
-2.85826e-05
-2.85466e-05
-3.67759e-05
-1.72744e-06
-5.06498e-05
5.87901e-05
-3.25786e-05
-0.000110826
-9.25715e-05
0.000129691
7.90692e-05
-0.000342634
-0.000170883
0.000616798
0.000187902
-0.000698068
-1.81897e-05
0.000139838
-5.58054e-05
0.00116788
0.000349646
-0.00397523
-0.000282041
0.00222464
0.000358028
-0.000958144
-0.000591274
-0.00213274
0.000419346
0.0004496
0.000155622
-0.00382865
-0.000291488
0.00102615
-0.0011721
0.000427424
0.000852974
-0.00289802
0.00085285
0.00217159
-0.00040437
-0.0013199
0.000123883
0.00524615
0.00455978
-0.0360904
-0.00351152
0.0706699
-0.00199012
0.0157481
0.000409438
-0.0631838
0.00107866
0.0392864
-0.0072253
0.0117816
0.00668591
0.064648
-0.00402446
0.0116744
0.000706669
-0.0115004
0.00375678
0.00402007
-0.0172404
0.0173109
0.00816431
-0.0424529
0.0108392
0.00388427
-0.0132133
0.0169808
0.00446599
-0.0275939
0.00739406
-0.00519265
-0.00694052
0.015022
-0.0099396
0.00262144
-0.00208162
-0.00869513
-0.00425701
-0.00037331
-0.000305543
0.00043952
-0.000250026
-0.000226188
-0.000150693
-0.000123313
-8.83824e-05
-4.7914e-05
-5.5419e-05
-4.6737e-06
-3.55119e-05
1.13759e-05
-1.63381e-05
1.19364e-05
4.10947e-06
9.42795e-06
2.2978e-05
1.16943e-05
3.69446e-05
1.77177e-05
4.56544e-05
2.25646e-05
5.0862e-05
2.30068e-05
5.40483e-05
1.97119e-05
5.53167e-05
1.52709e-05
5.40258e-05
1.15196e-05
4.96771e-05
8.97057e-06
4.21664e-05
7.60648e-06
3.17553e-05
7.26885e-06
1.91642e-05
7.52455e-06
5.60683e-06
7.79451e-06
-7.45522e-06
7.79976e-06
-1.86751e-05
7.77218e-06
-2.70329e-05
8.23936e-06
-3.18477e-05
9.6809e-06
-3.2699e-05
1.23087e-05
-2.93472e-05
1.60029e-05
-2.16919e-05
2.03722e-05
-9.79769e-06
2.49276e-05
6.01303e-06
2.92713e-05
2.50606e-05
3.3194e-05
4.62847e-05
3.66218e-05
6.83381e-05
3.95096e-05
8.9774e-05
4.1723e-05
0.000109259
4.30327e-05
0.000125722
4.31663e-05
0.000138411
4.19711e-05
0.000146854
3.94721e-05
0.000150829
3.59114e-05
0.000150352
3.15909e-05
0.000145738
2.6818e-05
0.000137627
2.17712e-05
0.00012698
1.65821e-05
0.000114951
1.13176e-05
0.000102729
6.10896e-06
9.12628e-05
1.1324e-06
8.11566e-05
-3.43324e-06
7.24931e-05
-7.4287e-06
6.5026e-05
-1.09228e-05
5.80746e-05
-1.39039e-05
5.10338e-05
-1.67303e-05
4.30578e-05
-1.92643e-05
3.39499e-05
-2.20196e-05
2.32617e-05
-2.44331e-05
1.17771e-05
-2.72602e-05
-5.37401e-07
-2.9288e-05
-1.19336e-05
-3.17998e-05
-2.27579e-05
-3.27016e-05
-3.07072e-05
-3.42847e-05
-3.74625e-05
-3.32449e-05
-4.02739e-05
-3.35274e-05
-4.28927e-05
-3.00152e-05
-4.14299e-05
-2.91556e-05
-4.19371e-05
-2.32325e-05
-3.79958e-05
-2.22056e-05
-3.83445e-05
-1.43345e-05
-3.26022e-05
-1.44371e-05
-3.32507e-05
-4.91532e-06
-2.50679e-05
-6.93958e-06
-2.56671e-05
4.06137e-06
-1.41973e-05
-1.3759e-06
-1.58094e-05
1.23818e-05
-3.13263e-06
3.24052e-06
-7.33444e-06
1.59365e-05
-3.45323e-08
6.53641e-06
-1.17845e-05
1.99159e-05
-9.72702e-06
-4.13614e-06
-2.82443e-05
1.92027e-05
-4.02605e-05
8.47156e-06
-5.85395e-05
-1.14084e-06
-6.73725e-05
-3.67311e-05
-9.26385e-05
2.85906e-05
-8.16734e-05
-1.77325e-05
-0.00014351
-3.28935e-06
1.71141e-05
-0.000169181
-0.000227628
0.000247125
0.000112099
-0.000139836
-4.4873e-05
-0.000318342
-0.000173343
0.000578002
0.000241979
-0.000724884
0.000138126
-0.000651336
-0.000149453
0.00161231
-0.000590346
-0.00183364
0.000491453
-0.000172165
0.00115933
-0.00167631
-0.00036871
0.00182042
-0.00460335
0.00535773
0.00636556
-0.0169924
-0.00205522
0.0145476
-0.00160313
-0.00229612
0.00326355
-0.00675504
0.00051488
0.00516968
0.00938751
-0.0221113
-0.0142774
0.0479038
-0.62523
0.141707
0.00271181
-0.18235
-0.0239783
0.0482644
0.0271683
-0.0690256
-0.0160777
0.0613411
0.00796134
-0.0365833
0.0100932
-0.00334976
-0.0527937
0.0913428
0.0371395
-0.132238
0.0230946
0.0268237
-0.035663
0.0711639
0.0142091
-0.0589318
0.0204763
-0.011722
-0.0223995
0.0569658
-0.0314467
0.0141243
-0.0027202
-0.0398757
-0.0202017
-0.000447519
-0.00031318
0.000463278
-0.000373808
-0.000285717
-0.000275162
-0.000201232
-0.000190155
-0.000108881
-0.000130992
-4.04413e-05
-8.98905e-05
-7.44595e-06
-5.48821e-05
-5.22823e-07
-2.17576e-05
-1.21849e-07
6.94812e-06
6.92094e-06
2.78475e-05
1.9705e-05
4.12246e-05
2.95841e-05
5.03517e-05
3.06472e-05
5.79385e-05
2.45161e-05
6.4182e-05
1.67042e-05
6.77133e-05
1.10607e-05
6.72269e-05
8.48356e-06
6.2067e-05
8.663e-06
5.22247e-05
1.09946e-05
3.84863e-05
1.4312e-05
2.24769e-05
1.7192e-05
6.23325e-06
1.89455e-05
-8.40839e-06
2.00417e-05
-2.01403e-05
2.1579e-05
-2.81548e-05
2.45149e-05
-3.19629e-05
2.92262e-05
-3.12293e-05
3.54329e-05
-2.56916e-05
4.23654e-05
-1.52089e-05
4.91242e-05
7.41268e-08
5.50473e-05
1.955e-05
5.98838e-05
4.20939e-05
6.36553e-05
6.61943e-05
6.64091e-05
9.02196e-05
6.79744e-05
0.000112699
6.79751e-05
0.000132487
6.59718e-05
0.000148775
6.18015e-05
0.000161002
5.56728e-05
0.000168784
4.82004e-05
0.000171928
4.00563e-05
0.000170546
3.18439e-05
0.000165136
2.38382e-05
0.000156611
1.6169e-05
0.000146158
8.80127e-06
0.000135033
1.81355e-06
0.000124247
-4.65649e-06
0.000114436
-1.0453e-05
0.000105672
-1.5478e-05
9.76951e-05
-1.99785e-05
8.97839e-05
-2.405e-05
8.13252e-05
-2.82782e-05
7.14179e-05
-3.23849e-05
5.98845e-05
-3.70026e-05
4.62188e-05
-4.10683e-05
3.13047e-05
-4.55118e-05
1.507e-05
-4.83523e-05
-5.0482e-07
-5.141e-05
-1.58153e-05
-5.16279e-05
-2.81883e-05
-5.24549e-05
-3.94624e-05
-4.93136e-05
-4.63964e-05
-4.80536e-05
-5.31353e-05
-4.16267e-05
-5.51294e-05
-3.92691e-05
-5.91223e-05
-3.0296e-05
-5.77385e-05
-2.85831e-05
-6.08419e-05
-1.76984e-05
-5.66721e-05
-1.80068e-05
-5.94383e-05
-4.92286e-06
-5.19331e-05
-7.89587e-06
-5.42732e-05
8.07525e-06
-4.27329e-05
5.97988e-07
-4.61057e-05
2.05575e-05
-3.28039e-05
6.73708e-06
-3.92223e-05
2.78065e-05
-3.09884e-05
6.66949e-06
-4.64952e-05
3.3158e-05
-4.26478e-05
-9.89065e-06
-6.76555e-05
3.05495e-05
-7.68193e-05
-1.193e-05
-0.000104448
1.83981e-05
-0.000108729
-5.63915e-05
-0.000143037
1.94732e-05
-0.000133975
-1.35358e-05
-0.000192323
-3.69483e-05
-4.71908e-05
-7.84603e-05
-0.000274634
7.64623e-05
2.80498e-05
7.64115e-05
-5.3939e-05
-0.000479874
-0.000427563
0.000790696
0.00016033
-0.000450888
0.000519662
-0.00240751
-0.000771495
0.00428805
-0.000512031
-0.00297458
0.000496396
-0.000213162
0.00230243
-0.0035923
-0.00079808
0.00421618
-0.00770811
0.0145501
0.0123623
-0.0398285
-0.00570004
0.0367649
-0.00250546
-0.00720093
0.0051553
-0.0189083
-0.00303341
0.0272448
0.0225387
-0.0733375
-0.0268046
0.108151
0.00718547
0.101739
0.00161551
-0.180656
-0.0420532
0.0972941
0.0486372
-0.168214
-0.0279307
0.143858
0.0202609
-0.0880491
0.0127722
0.00204392
-0.0879726
0.199606
0.0702347
-0.296338
0.0326882
0.073833
-0.0562864
0.1533
0.0268123
-0.139239
0.031686
-0.0177026
-0.0411233
0.129051
-0.0533457
0.0282315
-0.00202317
-0.0937514
-0.0451979
-0.000486289
-0.000298755
0.000480205
-0.000455484
-0.000299956
-0.000389402
-0.00024589
-0.000313828
-0.000161793
-0.000246213
-8.6612e-05
-0.00018906
-4.36787e-05
-0.000137644
-2.99699e-05
-8.96226e-05
-2.4762e-05
-4.78037e-05
-1.11385e-05
-1.6324e-05
1.07938e-05
4.58196e-06
2.86612e-05
1.91738e-05
3.24637e-05
3.19465e-05
2.39341e-05
4.4019e-05
1.22804e-05
5.3702e-05
4.55633e-06
5.89791e-05
2.43594e-06
5.86702e-05
5.14263e-06
5.24094e-05
1.14545e-05
4.08255e-05
1.92541e-05
2.57496e-05
2.58996e-05
9.70374e-06
3.00152e-05
-5.0186e-06
3.23471e-05
-1.68812e-05
3.48108e-05
-2.50512e-05
3.90687e-05
-2.90879e-05
4.57648e-05
-2.86692e-05
5.44535e-05
-2.34622e-05
6.39252e-05
-1.31815e-05
7.28077e-05
2.18543e-06
8.01608e-05
2.21204e-05
8.57479e-05
4.54743e-05
8.97796e-05
7.06216e-05
9.24608e-05
9.58023e-05
9.35698e-05
0.000119472
9.24998e-05
0.000140482
8.85491e-05
0.000158046
8.14972e-05
0.00017159
7.17566e-05
0.000180654
6.03731e-05
0.000184925
4.84351e-05
0.000184402
3.68458e-05
0.000179528
2.59409e-05
0.000171232
1.58007e-05
0.000160765
6.26435e-06
0.000149465
-2.63084e-06
0.000138386
-1.07345e-05
0.000128177
-1.78664e-05
0.000118873
-2.3941e-05
0.000110182
-2.9392e-05
0.000101322
-3.44107e-05
9.16698e-05
-3.98742e-05
8.02637e-05
-4.53411e-05
6.6962e-05
-5.16666e-05
5.12019e-05
-5.72122e-05
3.39878e-05
-6.32361e-05
1.51854e-05
-6.68021e-05
-2.99656e-06
-7.04886e-05
-2.10815e-05
-6.99219e-05
-3.60623e-05
-7.00761e-05
-5.0072e-05
-6.45495e-05
-5.94155e-05
-6.17416e-05
-6.87925e-05
-5.18695e-05
-7.29706e-05
-4.80304e-05
-7.95456e-05
-3.53793e-05
-8.007e-05
-3.32835e-05
-8.57e-05
-1.87625e-05
-8.30667e-05
-1.99769e-05
-8.83179e-05
-2.58294e-06
-8.19169e-05
-7.57557e-06
-8.67973e-05
1.44063e-05
-7.58894e-05
3.4365e-06
-8.21053e-05
3.1357e-05
-6.90024e-05
1.07188e-05
-7.88896e-05
4.29483e-05
-7.05022e-05
7.15085e-06
-9.11054e-05
5.12466e-05
-8.5883e-05
-1.70128e-05
-0.000118702
5.09032e-05
-0.000124664
-3.5983e-05
-0.000163106
4.55046e-05
-0.000161132
-8.38035e-05
-0.000206232
2.48979e-05
-0.000196511
-1.1203e-05
-0.000252295
-8.4727e-05
-0.000121635
3.96249e-05
-0.000329412
-0.000118139
-6.86999e-05
0.000338387
-6.88904e-05
-0.000759602
-0.000536453
0.00114016
0.000195488
-0.000318209
0.000871398
-0.00456637
-0.00147724
0.00815394
-0.000333562
-0.00555345
0.000467101
9.24643e-05
0.00344393
-0.00702457
-0.00149187
0.00844013
-0.0104666
0.0259585
0.0187199
-0.0725459
-0.0100158
0.0699593
-0.00306224
-0.0159853
0.00590365
-0.0328322
-0.00652129
0.0542603
0.0361214
-0.137625
-0.0394245
0.196007
0.00635384
0.0492347
-0.00223584
-0.17495
-0.0615713
0.162364
0.0704136
-0.306974
-0.0390741
0.259571
0.0391591
-0.169666
0.0116218
0.0272197
-0.126243
0.345829
0.106924
-0.542822
0.0392788
0.151635
-0.096865
0.282378
0.0419053
-0.274485
0.0401726
-0.0171036
-0.0626552
0.231122
-0.0748718
0.0425387
0.00016796
-0.171529
-0.0793144
-0.000507938
-0.000282937
0.000502038
-0.000499905
-0.000289679
-0.000466393
-0.000259265
-0.000413598
-0.000194151
-0.000354022
-0.000126194
-0.000294935
-8.2131e-05
-0.000237866
-6.46947e-05
-0.000182545
-5.6193e-05
-0.000131403
-3.81452e-05
-8.95264e-05
-8.32724e-06
-5.96718e-05
1.88558e-05
-3.87613e-05
2.80194e-05
-2.10046e-05
1.85107e-05
-3.55311e-06
2.73785e-06
1.23e-05
-7.75912e-06
2.40548e-05
-9.67083e-06
3.00391e-05
-4.23934e-06
2.93744e-05
6.70302e-06
2.21277e-05
2.01238e-05
9.95007e-06
3.17828e-05
-4.24776e-06
3.9069e-05
-1.75732e-05
4.28231e-05
-2.80926e-05
4.60083e-05
-3.48685e-05
5.13144e-05
-3.75182e-05
5.98443e-05
-3.57944e-05
7.10288e-05
-2.93745e-05
8.31686e-05
-1.78964e-05
9.43336e-05
-1.21534e-06
0.00010324
2.02603e-05
0.000109666
4.53914e-05
0.000114084
7.24465e-05
0.000116942
9.95085e-05
0.000117988
0.000124913
0.000116317
0.000147469
0.000110862
0.0001664
0.000101276
0.000181129
8.8176e-05
0.000191144
7.30835e-05
0.000196049
5.75434e-05
0.00019577
4.27591e-05
0.000190738
2.90901e-05
0.000181942
1.6522e-05
0.000170734
4.75109e-06
0.000158562
-6.20986e-06
0.00014655
-1.61406e-05
0.000135382
-2.47905e-05
0.000125068
-3.20326e-05
0.000115299
-3.84998e-05
0.000105229
-4.44545e-05
9.42251e-05
-5.11356e-05
8.12489e-05
-5.78893e-05
6.61937e-05
-6.59121e-05
4.84122e-05
-7.28755e-05
2.90375e-05
-8.05524e-05
7.83474e-06
-8.48137e-05
-1.27374e-05
-8.9285e-05
-3.33862e-05
-8.78497e-05
-5.07307e-05
-8.74805e-05
-6.72806e-05
-7.92769e-05
-7.88129e-05
-7.4979e-05
-9.06948e-05
-6.10697e-05
-9.6883e-05
-5.57918e-05
-0.000105992
-3.86648e-05
-0.000108305
-3.6459e-05
-0.000116523
-1.73984e-05
-0.000115367
-2.01986e-05
-0.000123299
2.58474e-06
-0.000118006
-5.56896e-06
-0.000125784
2.38694e-05
-0.000115567
7.73731e-06
-0.000125176
4.58118e-05
-0.000112374
1.5846e-05
-0.000126509
6.25384e-05
-0.000118069
8.17386e-06
-0.000144844
7.53445e-05
-0.000138182
-2.58762e-05
-0.000180258
8.04349e-05
-0.000182546
-6.49396e-05
-0.000233911
8.29793e-05
-0.000224332
-0.000122038
-0.000283237
4.43138e-05
-0.000270773
-1.17614e-05
-0.000326634
-0.000142706
-0.000209617
0.000182093
-0.000396372
-0.000342917
-0.000181441
0.000668319
-8.98876e-05
-0.00117049
-0.000740416
0.00170206
1.79312e-05
-0.000279714
0.00114713
-0.00722482
-0.00226193
0.0132112
-4.21053e-05
-0.00945456
0.00037852
0.000894793
0.00451679
-0.0117653
-0.00242954
0.014642
-0.0128286
0.0386448
0.0252898
-0.114127
-0.0148994
0.114938
-0.00313826
-0.0296955
0.00545639
-0.0466501
-0.010163
0.0843793
0.049815
-0.219606
-0.0517127
0.311397
0.0133676
-0.0250471
-0.008777
-0.154034
-0.0824728
0.24204
0.091462
-0.487692
-0.0490764
0.406686
0.0666849
-0.289149
0.00679722
0.0847563
-0.166748
0.528157
0.145494
-0.866902
0.0428633
0.265141
-0.113298
0.431201
0.0588625
-0.442864
0.0453905
-0.00485908
-0.086206
0.361955
-0.0952125
0.0537542
0.00388119
-0.273569
-0.121529
-0.000525159
-0.000272371
0.000524978
-0.000521253
-0.000274963
-0.000505899
-0.000256509
-0.000472087
-0.000208962
-0.00042526
-0.000153282
-0.000373465
-0.000112777
-0.000321523
-9.35458e-05
-0.000269891
-8.33263e-05
-0.00021892
-6.46178e-05
-0.000172732
-3.1564e-05
-0.000136635
2.92945e-06
-0.000111053
1.90105e-05
-9.07504e-05
1.06892e-05
-7.09752e-05
-8.89889e-06
-5.16056e-05
-2.32809e-05
-3.49982e-05
-2.62768e-05
-2.30484e-05
-1.92473e-05
-1.71602e-05
-4.34672e-06
-1.83334e-05
1.50119e-05
-2.584e-05
3.28588e-05
-3.68064e-05
4.4491e-05
-4.76959e-05
5.01986e-05
-5.59285e-05
5.40212e-05
-6.0279e-05
6.0062e-05
-6.03822e-05
7.02125e-05
-5.61308e-05
8.39201e-05
-4.73242e-05
9.89861e-05
-3.36257e-05
0.000112821
-1.47939e-05
0.000123657
8.92808e-06
0.000131195
3.65177e-05
0.000136186
6.6214e-05
0.000139431
9.59419e-05
0.000140746
0.000123858
0.000138923
0.000148673
0.00013243
0.000169592
0.000120697
0.000186047
0.000104514
0.000197498
8.59215e-05
0.000203476
6.69726e-05
0.00020384
4.91889e-05
0.000199001
3.29262e-05
0.000190001
1.80306e-05
0.00017829
4.03205e-06
0.000165431
-9.07563e-06
0.00015262
-2.0953e-05
0.000140582
-3.12445e-05
0.000129308
-3.97286e-05
0.000118478
-4.726e-05
0.000107182
-5.41342e-05
9.47882e-05
-6.203e-05
8.01719e-05
-7.00003e-05
6.32757e-05
-7.97157e-05
4.33491e-05
-8.79939e-05
2.16761e-05
-9.73558e-05
-2.10944e-06
-0.000102182
-2.52624e-05
-0.000107535
-4.87242e-05
-0.000105043
-6.86791e-05
-0.000104308
-8.80904e-05
-9.31037e-05
-0.000102104
-8.75162e-05
-0.00011687
-6.90251e-05
-0.000125374
-6.25911e-05
-0.000137433
-4.02028e-05
-0.000141828
-3.83815e-05
-0.000153091
-1.37158e-05
-0.000153689
-1.89184e-05
-0.000164825
1.07175e-05
-0.000160899
-1.85458e-06
-0.000172197
3.7057e-05
-0.000162906
1.38563e-05
-0.00017667
6.49206e-05
-0.000164369
2.26271e-05
-0.000183705
8.79213e-05
-0.000175351
1.00507e-05
-0.000209546
0.000107041
-0.000201384
-3.61879e-05
-0.000254391
0.000120822
-0.000252555
-9.94184e-05
-0.000319311
0.00013484
-0.000300794
-0.000171428
-0.000377186
7.95015e-05
-0.000359663
-1.6787e-05
-0.000419496
-0.000206234
-0.000314669
0.000351872
-0.000480837
-0.000611822
-0.000314887
0.00107908
-0.000126702
-0.00170615
-0.00097922
0.00246622
-7.46462e-05
-0.000351591
0.00150814
-0.0104385
-0.0031454
0.0196598
0.000363329
-0.0147944
0.000181889
0.00239662
0.00553633
-0.0177676
-0.00359482
0.0229788
-0.0148225
0.0522542
0.0318558
-0.164521
-0.0202067
0.172135
-0.00256224
-0.0493966
0.00388481
-0.0586666
-0.0140232
0.117518
0.063155
-0.320254
-0.0632605
0.453208
0.0231604
-0.122308
-0.0176774
-0.113528
-0.104641
0.334971
0.11036
-0.709899
-0.0577797
0.58188
0.108064
-0.459019
-0.000818126
0.191187
-0.210248
0.746981
0.183807
-1.27338
0.0435645
0.417018
-0.129681
0.596663
0.0769583
-0.645478
0.0470239
0.0237737
-0.110746
0.518917
-0.11361
0.0589884
0.00897644
-0.399319
-0.170721
-0.000540874
-0.000265348
0.000544366
-0.000532864
-0.000263341
-0.000523183
-0.000248591
-0.000499701
-0.000213091
-0.000463309
-0.000169036
-0.000420629
-0.000133279
-0.000377472
-0.000112777
-0.000334982
-0.000100841
-0.000291275
-8.36575e-05
-0.000247658
-5.22146e-05
-0.00020985
-1.47389e-05
-0.000182253
7.93619e-06
-0.000162488
3.3572e-06
-0.000144899
-1.83512e-05
-0.000127119
-3.71422e-05
-0.00011026
-4.30104e-05
-9.56508e-05
-3.67927e-05
-8.4657e-05
-2.04541e-05
-7.9446e-05
3.40811e-06
-8.10865e-05
2.77358e-05
-8.76569e-05
4.49217e-05
-9.53066e-05
5.34786e-05
-0.000100635
5.80507e-05
-0.000101848
6.44329e-05
-9.84594e-05
7.5776e-05
-9.05377e-05
9.18576e-05
-7.8149e-05
0.000110078
-6.11592e-05
0.00012712
-3.93549e-05
0.000140542
-1.28065e-05
0.000149737
1.77158e-05
0.000155621
5.05749e-05
0.000159445
8.35944e-05
0.000161281
0.000114701
0.000159719
0.000142421
0.000152695
0.000165904
0.000139277
0.000184608
0.000120344
0.000198005
9.84715e-05
0.000205582
7.62942e-05
0.000207126
5.57006e-05
0.000203006
3.70363e-05
0.000194292
1.99633e-05
0.000182522
3.81026e-06
0.000169367
-1.1456e-05
0.000156098
-2.53314e-05
0.000143483
-3.73266e-05
0.000131486
-4.70652e-05
0.000119777
-5.56553e-05
0.000107375
-6.33755e-05
9.36575e-05
-7.24405e-05
7.74028e-05
-8.15023e-05
5.8621e-05
-9.28694e-05
3.64403e-05
-0.000102295
1.23262e-05
-0.000113342
-1.4252e-05
-0.000118525
-4.0215e-05
-0.000124837
-6.67957e-05
-0.000121017
-8.96693e-05
-0.000120096
-0.000112342
-0.000105493
-0.000129208
-9.89142e-05
-0.000147335
-7.52351e-05
-0.000158553
-6.81063e-05
-0.000174106
-3.95756e-05
-0.000180989
-3.88638e-05
-0.000195911
-7.32448e-06
-0.000198662
-1.60081e-05
-0.000213708
2.23143e-05
-0.000211527
3.7447e-06
-0.000227168
5.47126e-05
-0.000219142
2.2073e-05
-0.000238049
8.97218e-05
-0.000226535
3.13741e-05
-0.000252298
0.000120434
-0.000244225
1.29532e-05
-0.000287419
0.000147946
-0.000277725
-4.80283e-05
-0.000343742
0.00017404
-0.000337336
-0.00014012
-0.000422441
0.000204301
-0.000393606
-0.000233143
-0.00049184
0.000134468
-0.000466627
-2.86575e-05
-0.000535456
-0.00026989
-0.000440509
0.000548372
-0.000587889
-0.000925733
-0.000473185
0.00157585
-0.000184276
-0.00236836
-0.00125228
0.00344108
-0.00015183
-0.000577377
0.00172283
-0.014019
-0.00373354
0.0270111
0.000875102
-0.0213813
-0.000171071
0.00486552
0.00655716
-0.0251775
-0.00497761
0.0336591
-0.0164864
0.0662646
0.0381922
-0.223175
-0.0257755
0.241599
-0.0011713
-0.0761724
0.00133906
-0.0671349
-0.0180683
0.153015
0.0755973
-0.439027
-0.0738456
0.619679
0.0359763
-0.244516
-0.0281997
-0.0489111
-0.127746
0.440403
0.125573
-0.970836
-0.0655462
0.780534
0.095026
-0.624371
-0.00974729
0.293817
-0.255651
1.00293
0.218921
-1.7614
0.0414814
0.606898
-0.141564
0.771429
0.0953354
-0.878108
0.0451601
0.0725768
-0.135061
0.69828
-0.129387
0.0558545
0.015101
-0.547207
-0.225683
-0.000555145
-0.000258345
0.000559896
-0.000541934
-0.000253556
-0.000532194
-0.000239375
-0.00051283
-0.00021154
-0.000483203
-0.000176616
-0.000447906
-0.000145297
-0.0004122
-0.000123854
-0.000377987
-0.000109809
-0.000343051
-9.3976e-05
-0.000305529
-6.69846e-05
-0.000269457
-3.09529e-05
-0.000241529
-3.7915e-06
-0.000223578
-2.51499e-06
-0.000211114
-2.30207e-05
-0.000199796
-4.48201e-05
-0.000188589
-5.43029e-05
-0.000177222
-5.12828e-05
-0.000165803
-3.72163e-05
-0.000156747
-1.23913e-05
-0.000153158
1.68401e-05
-0.000155157
4.00018e-05
-0.00015946
5.23881e-05
-0.00016201
5.8065e-05
-0.000160163
6.43505e-05
-0.000153018
7.61143e-05
-0.000140728
9.39796e-05
-0.000123729
0.000115242
-0.000102315
0.000135917
-7.6562e-05
0.000152736
-4.65156e-05
0.000164446
-1.26278e-05
0.000171805
2.3796e-05
0.000176458
6.06347e-05
0.000178978
9.55796e-05
0.00017801
0.000126869
0.000170986
0.000153512
0.000156448
0.000174991
0.000135194
0.00019084
0.000110304
0.000200549
8.5069e-05
0.000203832
6.18361e-05
0.000200989
4.09669e-05
0.000193086
2.18983e-05
0.000181733
3.70899e-06
0.000168713
-1.36872e-05
0.000155375
-2.95749e-05
0.000142529
-4.33013e-05
0.000130104
-5.42603e-05
0.000117758
-6.38559e-05
0.000104423
-7.22852e-05
8.9497e-05
-8.24243e-05
7.1647e-05
-9.23863e-05
5.09736e-05
-0.000105326
2.64592e-05
-0.000115666
-2.10586e-07
-0.000128376
-2.97723e-05
-0.000133633
-5.87528e-05
-0.000140977
-8.87482e-05
-0.000135454
-0.000114832
-0.000134537
-0.000141165
-0.000115999
-0.000161239
-0.000108774
-0.000183215
-7.91329e-05
-0.000197543
-7.18885e-05
-0.000217163
-3.61253e-05
-0.000226948
-3.74627e-05
-0.000246199
2.50182e-06
-0.000251518
-1.10692e-05
-0.000271261
3.81919e-05
-0.000271222
1.15807e-05
-0.000292151
7.78105e-05
-0.000285747
3.27063e-05
-0.000310963
0.000121427
-0.000300538
4.23505e-05
-0.000334209
0.000161605
-0.00032662
1.69872e-05
-0.000380745
0.000199956
-0.000369476
-6.15886e-05
-0.000451048
0.000242477
-0.000439627
-0.000187843
-0.000546617
0.000294857
-0.000506094
-0.000308595
-0.000631263
0.000214015
-0.000595555
-5.0118e-05
-0.000679624
-0.000327313
-0.000591501
0.000769944
-0.000723588
-0.00128304
-0.000661654
0.00216226
-0.000269768
-0.00315728
-0.00156175
0.00463189
-0.000228403
-0.000984522
0.00183887
-0.0178945
-0.00463549
0.0354585
0.00153347
-0.0296243
-0.000769675
0.00869024
0.00774664
-0.0343677
-0.0065668
0.0470501
-0.0178782
0.0802331
0.0440623
-0.289374
-0.0314419
0.322979
0.00114339
-0.111049
-0.00195183
-0.0704176
-0.022143
0.190294
0.0865811
-0.574621
-0.083495
0.808524
0.0518018
-0.393798
-0.0392352
0.0433593
-0.151164
0.558066
0.13577
-1.26584
-0.0726843
0.997221
0.154299
-0.856144
-0.016957
0.46245
-0.300194
1.29693
0.247696
-2.32371
0.036319
0.831564
-0.14758
0.946507
0.113265
-1.13442
0.0403588
0.144042
-0.15786
0.895576
-0.14197
0.0426896
0.0216832
-0.714508
-0.280074
-0.00056819
-0.00024944
0.000573497
-0.000550407
-0.000243365
-0.000539247
-0.000229512
-0.000521293
-0.000206797
-0.000496019
-0.000178512
-0.000466141
-0.000151017
-0.000435486
-0.000129453
-0.000406472
-0.000113558
-0.000377991
-9.81198e-05
-0.000346852
-7.58342e-05
-0.00031423
-4.42916e-05
-0.000286725
-1.57479e-05
-0.000269823
-8.04572e-06
-0.000262105
-2.36583e-05
-0.000258784
-4.51601e-05
-0.000256836
-5.69207e-05
-0.000254068
-5.77133e-05
-0.00024838
-4.88044e-05
-0.000240739
-2.74176e-05
-0.000235174
3.17917e-06
-0.000234225
3.11474e-05
-0.000236268
4.78405e-05
-0.000237286
5.51532e-05
-0.000233744
6.10284e-05
-0.000223929
7.21544e-05
-0.00020776
9.05947e-05
-0.000185963
0.00011408
-0.00015941
0.000138252
-0.000128794
0.000159049
-9.45122e-05
0.00017429
-5.68581e-05
0.000184033
-1.66496e-05
0.000189957
2.43182e-05
0.00019326
6.36235e-05
0.000193044
9.91388e-05
0.000186463
0.000129596
0.000171423
0.000154442
0.000148395
0.000173302
0.000120834
0.00018572
9.27341e-05
0.000191358
6.70305e-05
0.000190415
4.41717e-05
0.000183916
2.33372e-05
0.000173523
3.2874e-06
0.000161141
-1.61679e-05
0.000148202
-3.40522e-05
0.000135563
-4.9515e-05
0.000123098
-6.16216e-05
0.000110451
-7.21285e-05
9.64446e-05
-8.10683e-05
8.05151e-05
-9.21395e-05
6.11963e-05
-0.00010274
3.87083e-05
-0.000117137
1.18546e-05
-0.00012808
-1.74114e-05
-0.00014241
-5.00854e-05
-0.000147367
-8.22246e-05
-0.000155817
-0.000115878
-0.000148101
-0.000145402
-0.000147397
-0.000175754
-0.00012423
-0.000199339
-0.000116769
-0.00022563
-8.01856e-05
-0.000243428
-7.35355e-05
-0.000267701
-2.91748e-05
-0.000280788
-3.37389e-05
-0.000305088
1.65719e-05
-0.00031339
-3.67611e-06
-0.000338711
5.93014e-05
-0.000341218
2.20336e-05
-0.000368521
0.000107495
-0.000364103
4.60758e-05
-0.000397005
0.000161469
-0.000387971
5.5792e-05
-0.000431341
0.000213267
-0.000424418
2.22219e-05
-0.000491835
0.000265404
-0.000478906
-7.71053e-05
-0.000579143
0.000329146
-0.000562232
-0.000243353
-0.000695334
0.000410655
-0.000641788
-0.000399212
-0.000799761
0.000323846
-0.000750736
-8.40143e-05
-0.000857431
-0.000371097
-0.000772581
0.00101396
-0.000894512
-0.00167959
-0.000886335
0.00284053
-0.000390711
-0.0040724
-0.00191255
0.00604255
-0.000316893
-0.00159759
0.00183482
-0.0219648
-0.00545139
0.0448251
0.00181305
-0.0390541
-0.00193313
0.0140484
0.00954286
-0.0467059
-0.00836924
0.0639642
-0.0190648
0.0937842
0.0492359
-0.362246
-0.0370684
0.415556
0.0044055
-0.154938
-0.00572081
-0.0671181
-0.0259583
0.228712
0.0956274
-0.724946
-0.0924864
1.01727
0.0701843
-0.572165
-0.0494363
0.165083
-0.173811
0.687965
0.140352
-1.58853
-0.0802817
1.22655
0.208643
-1.15006
-0.0194317
0.687588
-0.338888
1.62791
0.267396
-2.94545
0.0270839
1.08606
-0.147725
1.11192
0.130263
-1.40759
0.0337326
0.239065
-0.177915
1.10622
-0.150491
0.0182091
0.0279923
-0.896918
-0.34009
-0.00058039
-0.000238907
0.000586694
-0.000558428
-0.000232163
-0.000546119
-0.000218978
-0.000528878
-0.000199917
-0.0005067
-0.000176398
-0.000480887
-0.000152218
-0.000453717
-0.000131532
-0.000427552
-0.000114773
-0.000402697
-9.92123e-05
-0.000376741
-8.02664e-05
-0.000348201
-5.44539e-05
-0.000321966
-2.74454e-05
-0.000305121
-1.45919e-05
-0.000299793
-2.29813e-05
-0.000302448
-4.05476e-05
-0.000309101
-5.18816e-05
-0.000316389
-5.49806e-05
-0.00032039
-5.16076e-05
-0.00031952
-3.66422e-05
-0.000316757
-8.76788e-06
-0.00031607
2.13117e-05
-0.000318029
4.17873e-05
-0.000319639
5.12414e-05
-0.000316907
5.67808e-05
-0.000307035
6.63093e-05
-0.000289186
8.36795e-05
-0.000263998
0.000107742
-0.000232788
0.000134304
-0.000197043
0.000158866
-0.000157998
0.00017835
-0.000116286
0.000191592
-7.23516e-05
0.000199571
-2.73864e-05
0.000203835
1.63858e-05
0.000204319
5.6534e-05
0.000198367
9.13718e-05
0.000183344
0.000120165
0.000159138
0.000142597
0.000129337
0.000158307
9.86116e-05
0.000166933
7.0616e-05
0.000168549
4.6008e-05
0.000164095
2.36958e-05
0.000155264
2.02816e-06
0.000144099
-1.93765e-05
0.000132124
-3.92248e-05
0.00012025
-5.64239e-05
0.000108266
-6.95775e-05
9.57898e-05
-8.08694e-05
8.15116e-05
-9.00592e-05
6.49185e-05
-0.000101879
4.43849e-05
-0.000112781
2.02867e-05
-0.000128483
-8.79933e-06
-0.000139623
-4.05921e-05
-0.000155506
-7.64182e-05
-0.000159681
-0.000111766
-0.000169313
-0.00014925
-0.00015878
-0.000182363
-0.000158542
-0.000217034
-0.000129873
-0.000244361
-0.000122676
-0.000275403
-7.79225e-05
-0.000296978
-7.27375e-05
-0.000326503
-1.80669e-05
-0.00034327
-2.73109e-05
-0.0003734
3.57417e-05
-0.000385093
6.57615e-06
-0.00041698
8.67153e-05
-0.000422434
3.54852e-05
-0.000457366
0.000145109
-0.000455289
6.25003e-05
-0.000497504
0.000211559
-0.000490141
7.19137e-05
-0.000545367
0.000277651
-0.000539231
2.86762e-05
-0.000622817
0.000347183
-0.000608049
-9.48921e-05
-0.000730742
0.000437794
-0.000707799
-0.000307434
-0.000872022
0.000556637
-0.000804208
-0.000506361
-0.0010016
0.00047044
-0.000936706
-0.000133024
-0.00107429
-0.000392986
-0.000989173
0.00127741
-0.00110742
-0.00210952
-0.001154
0.00361231
-0.000555044
-0.00511216
-0.00231129
0.00767587
-0.000429476
-0.00243645
0.00169286
-0.0261201
-0.00622374
0.0549348
0.00204781
-0.0496052
-0.00215917
0.0199199
0.01017
-0.0597314
-0.0103982
0.0834488
-0.0201163
0.106577
0.0535015
-0.440788
-0.0425768
0.518322
0.00854394
-0.208602
-0.00968833
-0.0561879
-0.029096
0.267476
0.102426
-0.88719
-0.101295
1.24362
0.0901773
-0.781184
-0.0574491
0.315783
-0.194096
0.829881
0.138995
-1.93062
-0.0909567
1.46528
0.262807
-1.50911
-0.0145625
0.961727
-0.364961
1.99065
0.276409
-3.60335
0.0119845
1.36559
-0.143758
1.25764
0.14614
-1.69237
0.0269099
0.356725
-0.194182
1.32623
-0.169039
-0.00372825
0.0332027
-1.10341
-0.400559
-0.000590692
-0.000226413
0.000597091
-0.000565105
-0.000220006
-0.00055244
-0.000207639
-0.000536054
-0.000191364
-0.000516353
-0.000171478
-0.000493787
-0.000150249
-0.000469507
-0.000131155
-0.000445406
-0.000114657
-0.00042272
-9.90913e-05
-0.0004004
-8.2201e-05
-0.000376224
-6.15374e-05
-0.000352426
-3.80917e-05
-0.000335792
-2.23546e-05
-0.000330913
-2.32677e-05
-0.000336307
-3.45466e-05
-0.000348078
-4.30019e-05
-0.000362792
-4.60606e-05
-0.000376185