/*--------------------------------*- C++ -*----------------------------------*\
| =========                 |                                                 |
| \\      /  F ield         | OpenFOAM: The Open Source CFD Toolbox           |
|  \\    /   O peration     | Version:  2412                                  |
|   \\  /    A nd           | Website:  www.openfoam.com                      |
|    \\/     M anipulation  |                                                 |
\*---------------------------------------------------------------------------*/
FoamFile
{
    version     2.0;
    format      ascii;
    arch        "LSB;label=32;scalar=64";
    class       volScalarField;
    location    "1.065";
    object      p;
}
// * * * * * * * * * * * * * * * * * * * * * * * * * * * * * * * * * * * * * //

dimensions      [0 2 -2 0 0 0 0];

internalField   nonuniform List<scalar> 
12600
(
0.127821
-154.531
-204.587
-201.359
-188.911
-177.337
-167.187
-158.107
-149.879
-142.34
-135.364
-128.854
-122.738
-116.957
-111.466
-106.227
-101.209
-96.3865
-91.737
-87.2421
-82.8858
-78.6544
-74.5356
-70.5189
-66.5951
-62.7558
-58.9936
-55.3018
-51.6746
-48.1065
-44.5925
-41.1283
-37.7096
-34.3326
-30.9939
-27.6901
-24.4182
-21.1753
-17.9587
-14.766
-11.5947
-8.44266
-5.30761
-2.18774
0.919101
4.01442
7.10033
10.178
13.2496
16.316
19.3795
22.4405
25.5015
28.5623
31.626
34.6914
37.7623
40.8365
43.9185
47.0048
50.1011
53.2024
56.3156
59.434
62.5658
65.7023
68.8534
72.008
75.1776
78.3488
81.5343
84.7189
87.9155
91.1086
94.309
97.5033
100.697
103.882
107.058
110.214
113.364
116.459
119.584
122.564
125.673
128.497
131.543
134.288
137.005
140.158
141.736
145.902
146.656
150.274
152.481
151.804
161.962
150.868
166.205
161.421
158.589
181.323
143.072
194.51
155.472
177.331
198.188
143.344
224.785
153.668
204.732
214.013
176.436
220.797
208.378
214.887
201.974
226.89
229.173
228.036
-23.9913
-123.65
-171.081
-180.71
-177.5
-170.764
-163.021
-155.257
-147.834
-140.824
-134.216
-127.973
-122.054
-116.423
-111.048
-105.9
-100.953
-96.1881
-91.5848
-87.1275
-82.8018
-78.5955
-74.4974
-70.4979
-66.5882
-62.7605
-59.008
-55.3243
-51.7037
-48.141
-44.6316
-41.171
-37.7552
-34.3806
-31.0437
-27.7414
-24.4705
-21.2284
-18.0123
-14.8199
-11.6487
-8.49658
-5.36134
-2.24116
0.866084
3.96188
7.04833
10.1266
13.1989
16.2659
19.3301
22.3918
25.4536
28.5151
31.5796
34.6458
37.7174
40.7924
43.8751
46.9622
50.0592
53.1613
56.2752
59.3944
62.5269
65.6641
68.816
71.9713
75.1416
78.3135
81.4996
84.685
87.8822
91.0761
94.2772
97.4722
100.667
103.852
107.029
110.186
113.336
116.432
119.558
122.539
125.649
128.473
131.52
134.267
136.982
140.142
141.715
145.884
146.643
150.25
152.482
151.764
161.964
150.865
166.156
161.462
158.51
181.377
143.048
194.446
155.561
177.174
198.304
143.283
224.719
153.773
204.53
214.09
176.442
220.678
208.396
214.913
201.954
226.807
229.163
228.042
-40.8095
-102.241
-145.022
-162.481
-165.81
-163.186
-158.051
-151.908
-145.484
-139.115
-132.939
-126.998
-121.3
-115.834
-110.584
-105.533
-100.663
-95.9583
-91.4036
-86.9854
-82.6916
-78.5113
-74.4345
-70.4526
-66.5574
-62.7418
-58.9992
-55.3238
-51.7101
-48.1531
-44.6483
-41.1915
-37.7789
-34.4068
-31.072
-27.7713
-24.5017
-21.2605
-18.0452
-14.8532
-11.6823
-8.53039
-5.39517
-2.2749
0.832523
3.92858
7.01536
10.094
13.1667
16.2342
19.2989
22.3611
25.4234
28.4855
31.5505
34.6173
37.6895
40.765
43.8482
46.9359
50.0335
53.1362
56.2506
59.3703
62.5033
65.6411
68.7934
71.9493
75.1201
78.2925
81.4791
84.665
87.8627
91.0571
94.2586
97.4542
100.649
103.835
107.012
110.17
113.321
116.417
119.544
122.525
125.635
128.46
131.507
134.256
136.969
140.133
141.703
145.873
146.635
150.238
152.483
151.744
161.967
150.86
166.128
161.487
158.468
181.408
143.027
194.412
155.612
177.091
198.364
143.241
224.681
153.833
204.425
214.14
176.438
220.612
208.408
214.926
201.939
226.766
229.158
228.046
-48.7397
-88.5243
-123.941
-144.46
-152.674
-153.976
-151.679
-147.473
-142.336
-136.828
-131.239
-125.709
-120.306
-115.058
-109.972
-105.047
-100.276
-95.6491
-91.1568
-86.789
-82.5361
-78.3893
-74.3402
-70.3811
-66.5049
-62.7051
-58.9757
-55.3113
-51.7067
-48.1575
-44.6591
-41.2077
-37.7996
-34.4313
-31.0995
-27.8014
-24.5338
-21.2944
-18.0803
-14.8895
-11.7194
-8.568
-5.43319
-2.31317
0.794136
3.89019
6.97705
10.0559
13.1288
16.1966
19.2617
22.3242
25.3869
28.4495
31.5149
34.5822
37.6549
40.7309
43.8147
46.9029
50.001
53.1042
56.2191
59.3393
62.4729
65.6112
68.7641
71.9205
75.0918
78.2648
81.4519
84.6383
87.8366
91.0316
94.2336
97.4297
100.625
103.812
106.99
110.148
113.299
116.396
119.523
122.505
125.616
128.442
131.489
134.24
136.951
140.12
141.686
145.858
146.625
150.219
152.482
151.712
161.973
150.853
166.093
161.517
158.406
181.456
142.997
194.372
155.671
176.968
198.463
143.178
224.639
153.903
204.261
214.219
176.429
220.517
208.43
214.944
201.915
226.7
229.155
228.051
-53.8006
-80.2877
-107.198
-126.866
-137.976
-142.736
-143.375
-141.428
-137.932
-133.587
-128.82
-123.877
-118.899
-113.964
-109.113
-104.366
-99.7329
-95.2142
-90.8077
-86.5087
-82.3115
-78.21
-74.1981
-70.2696
-66.4188
-62.6402
-58.9284
-55.2788
-51.6866
-48.1477
-44.6581
-41.214
-37.812
-34.4488
-31.1214
-27.8267
-24.5622
-21.3251
-18.1131
-14.9238
-11.755
-8.6046
-5.47053
-2.35106
0.755881
3.85172
6.9385
10.0174
13.0904
16.1584
19.2237
22.2866
25.3497
28.4127
31.4786
34.5463
37.6195
40.696
43.7803
46.8691
49.9677
53.0715
56.187
59.3078
62.4419
65.5808
68.7343
71.8912
75.0631
78.2367
81.4244
84.6114
87.8103
91.0058
94.2085
97.4052
100.602
103.789
106.967
110.126
113.278
116.375
119.503
122.485
125.598
128.424
131.472
134.224
136.933
140.107
141.669
145.845
146.614
150.202
152.482
151.683
161.979
150.842
166.059
161.548
158.346
181.502
142.96
194.333
155.728
176.849
198.56
143.11
224.599
153.967
204.103
214.301
176.412
220.421
208.455
214.96
201.888
226.641
229.154
228.056
-57.0985
-75.2482
-94.8586
-111.736
-123.572
-130.491
-133.541
-133.784
-132.101
-129.163
-125.453
-121.297
-116.905
-112.409
-107.89
-103.398
-98.9607
-94.5953
-90.3097
-86.107
-81.9872
-77.9484
-73.9877
-70.1012
-66.2851
-62.5352
-58.8474
-55.2177
-51.6423
-48.1175
-44.6397
-41.2056
-37.812
-34.4558
-31.1343
-27.8447
-24.5843
-21.3507
-18.1416
-14.9547
-11.7878
-8.63899
-5.50619
-2.38771
0.718473
3.81375
6.90015
9.97877
13.0517
16.1197
19.1851
22.2482
25.3115
28.3748
31.441
34.5092
37.5828
40.6597
43.7445
46.8338
49.9329
53.0372
56.1533
59.2746
62.4093
65.5488
68.7028
71.8603
75.0328
78.2069
81.3952
84.5828
87.7823
90.9784
94.1817
97.3791
100.576
103.764
106.943
110.102
113.255
116.352
119.482
122.464
125.578
128.404
131.453
134.207
136.914
140.094
141.65
145.83
146.602
150.184
152.48
151.65
161.988
150.829
166.023
161.578
158.281
181.557
142.916
194.296
155.781
176.717
198.671
143.029
224.561
154.021
203.922
214.403
176.386
220.312
208.486
214.975
201.855
226.573
229.156
228.062
-58.7306
-71.7486
-86.0796
-99.7766
-110.858
-118.564
-123.115
-125.077
-125.047
-123.554
-121.032
-117.821
-114.168
-110.246
-106.173
-102.028
-97.8633
-93.7123
-89.5967
-85.5296
-81.5188
-77.5681
-73.679
-69.8512
-66.0833
-62.3733
-58.7186
-55.1165
-51.5642
-48.0587
-44.5972
-41.1768
-37.7947
-34.4483
-31.135
-27.8523
-24.5978
-21.3691
-18.1641
-14.9807
-11.8166
-8.67024
-5.53939
-2.42251
0.682399
3.77667
6.8623
9.94034
13.0129
16.0807
19.1459
22.209
25.2724
28.3358
31.4023
34.4707
37.5446
40.622
43.7072
46.7969
49.8965
53.0012
56.1179
59.2397
62.375
65.515
68.6695
71.8277
75.0007
78.1755
81.3644
84.5526
87.7527
90.9495
94.1533
97.3514
100.549
103.737
106.917
110.077
113.231
116.329
119.459
122.442
125.557
128.384
131.433
134.188
136.894
140.08
141.63
145.816
146.589
150.166
152.477
151.616
161.999
150.811
165.988
161.609
158.212
181.618
142.863
194.261
155.828
176.575
198.793
142.936
224.527
154.061
203.723
214.521
176.351
220.191
208.523
214.989
201.814
226.503
229.161
228.069
-59.202
-68.9723
-79.6986
-90.5515
-100.202
-107.747
-112.964
-116.033
-117.276
-117.046
-115.675
-113.456
-110.631
-107.386
-103.861
-100.156
-96.3452
-92.4785
-88.5919
-84.7099
-80.8491
-77.0206
-73.2313
-69.4853
-65.7848
-62.1304
-58.522
-54.9584
-51.4382
-47.9596
-44.5207
-41.1193
-37.7532
-34.4204
-31.1185
-27.8455
-24.5991
-21.3773
-18.1781
-14.9996
-11.8397
-8.69678
-5.56881
-2.45432
0.648622
3.74129
6.82563
9.90265
12.9744
16.0416
19.1065
22.1692
25.2325
28.2959
31.3625
34.431
37.5052
40.5828
43.6684
46.7584
49.8585
52.9637
56.0808
59.2031
62.3389
65.4794
68.6346
71.7933
74.9669
78.1423
81.3318
84.5207
87.7214
90.9189
94.1234
97.3222
100.52
103.71
106.89
110.051
113.205
116.304
119.436
122.418
125.535
128.362
131.412
134.169
136.873
140.065
141.609
145.8
146.574
150.146
152.474
151.58
162.014
150.789
165.952
161.639
158.137
181.686
142.8
194.228
155.865
176.419
198.928
142.832
224.493
154.087
203.498
214.658
176.305
220.054
208.566
215.001
201.765
226.428
229.171
228.076
-58.9591
-66.5293
-74.7704
-83.3337
-91.4278
-98.3098
-103.599
-107.234
-109.325
-110.066
-109.677
-108.38
-106.379
-103.848
-100.929
-97.7328
-94.344
-90.8266
-87.2281
-83.5838
-79.919
-76.2523
-72.5968
-68.9617
-65.3532
-61.7754
-58.2307
-54.7203
-51.2447
-47.8036
-44.3961
-41.0212
-37.6774
-34.3635
-31.0775
-27.818
-24.583
-21.371
-18.18
-15.0084
-11.8544
-8.71636
-5.59256
-2.48156
0.61847
3.70872
6.79107
9.86647
12.9369
16.0031
19.0671
22.1293
25.1922
28.2553
31.3217
34.3902
37.4645
40.5423
43.628
46.7184
49.8188
52.9244
56.0419
59.1647
62.301
65.4421
68.5978
71.7571
74.9313
78.1073
81.2975
84.487
87.6883
90.8866
94.0917
97.2913
100.49
103.68
106.861
110.023
113.178
116.277
119.41
122.394
125.511
128.339
131.39
134.148
136.852
140.049
141.587
145.784
146.559
150.13
152.468
151.541
162.032
150.762
165.917
161.667
158.058
181.762
142.725
194.199
155.891
176.247
199.076
142.71
224.464
154.092
203.242
214.816
176.246
219.897
208.614
215.011
201.706
226.347
229.186
228.085
-58.2442
-64.2256
-70.6988
-77.5056
-84.1864
-90.2132
-95.2116
-99.0085
-101.579
-102.991
-103.367
-102.851
-101.598
-99.7537
-97.4462
-94.7846
-91.8569
-88.7337
-85.4702
-82.109
-78.6832
-75.2177
-71.7316
-68.239
-64.7504
-61.2735
-57.8137
-54.375
-50.9598
-47.5696
-44.2052
-40.8667
-37.5538
-34.266
-31.0022
-27.7614
-24.5424
-21.3439
-18.1644
-15.0026
-11.8568
-8.72585
-5.60799
-2.50201
0.593805
3.68051
6.75991
9.83284
12.9013
15.9658
19.0285
22.0897
25.1517
28.2142
31.2802
34.3485
37.4226
40.5003
43.5862
46.6767
49.7774
52.8832
56.0011
59.1244
62.2611
65.4027
68.559
71.7188
74.8937
78.0703
81.2611
84.4513
87.6533
90.8523
94.0582
97.2585
100.458
103.649
106.831
109.993
113.15
116.249
119.384
122.367
125.486
128.315
131.367
134.127
136.829
140.032
141.563
145.768
146.543
150.108
152.462
151.501
162.054
150.728
165.882
161.693
157.972
181.847
142.636
194.174
155.902
176.054
199.237
142.572
224.444
154.072
202.946
214.996
176.174
219.718
208.669
215.018
201.636
226.261
229.207
228.094
-57.187
-61.9764
-67.1514
-72.6267
-78.1205
-83.2785
-87.8003
-91.4908
-94.2554
-96.0783
-97.0015
-97.1055
-96.4898
-95.2633
-93.533
-91.3963
-88.9376
-86.2281
-83.326
-80.2788
-77.1242
-73.8923
-70.6068
-67.2861
-63.9447
-60.5937
-57.2415
-53.8946
-50.5578
-47.2345
-43.9271
-40.6372
-37.3659
-34.1134
-30.8798
-27.6648
-24.4677
-21.2879
-18.1244
-14.9761
-11.842
-8.72088
-5.61139
-2.51253
0.577255
3.65886
6.73397
9.8033
12.8688
15.9307
18.9915
22.0509
25.1116
28.1731
31.2383
34.3059
37.3796
40.4571
43.5428
46.6333
49.7341
52.8402
55.9584
59.0819
62.2191
65.3612
68.518
71.6784
74.8538
78.031
81.2225
84.4135
87.6162
90.8159
94.0226
97.2238
100.424
103.616
106.799
109.962
113.119
116.22
119.355
122.34
125.46
128.289
131.342
134.104
136.805
140.015
141.538
145.751
146.526
150.088
152.453
151.454
162.082
150.687
165.848
161.716
157.879
181.943
142.532
194.156
155.896
175.839
199.411
142.422
224.436
154.025
202.603
215.198
176.085
219.514
208.732
215.022
201.553
226.168
229.234
228.105
-55.8675
-59.7441
-63.9405
-68.3975
-72.9253
-77.2885
-81.2691
-84.6959
-87.4525
-89.477
-90.7567
-91.3191
-91.2179
-90.523
-89.3137
-87.6697
-85.666
-83.3692
-80.8372
-78.1189
-75.2547
-72.278
-69.216
-66.0906
-62.9193
-59.7162
-56.4925
-53.2569
-50.0166
-46.7767
-43.5413
-40.3137
-37.0959
-33.8897
-30.6958
-27.515
-24.3474
-21.1928
-18.051
-14.9213
-11.8031
-8.69562
-5.59778
-2.50887
0.572438
3.64682
6.71582
9.77997
12.8411
15.8994
18.9571
22.014
25.0726
28.1324
31.1962
34.2628
37.3357
40.4126
43.498
46.5882
49.6889
52.795
55.9134
59.0372
62.1747
65.3172
68.4744
71.6354
74.8114
77.9893
81.1814
84.3731
87.5766
90.7772
93.9846
97.1867
100.388
103.581
106.765
109.929
113.087
116.189
119.325
122.31
125.432
128.262
131.317
134.079
136.78
139.996
141.511
145.734
146.507
150.069
152.441
151.411
162.115
150.638
165.816
161.736
157.777
182.049
142.41
194.149
155.868
175.596
199.598
142.218
224.447
153.948
202.203
215.423
175.977
219.287
208.804
215.022
201.457
226.067
229.269
228.117
-54.3467
-57.5127
-60.9528
-64.6181
-68.3677
-72.0413
-75.4886
-78.5764
-81.1949
-83.2647
-84.742
-85.6169
-85.9073
-85.649
-84.8922
-83.6953
-82.119
-80.2214
-78.056
-75.6703
-73.1054
-70.3964
-67.5726
-64.6585
-61.6741
-58.6361
-55.5579
-52.4504
-49.3224
-46.1812
-43.0323
-39.8802
-36.7284
-33.5797
-30.4361
-27.2989
-24.1691
-21.0474
-17.934
-14.829
-11.732
-8.64292
-5.56089
-2.48557
0.584073
3.64846
6.70892
9.76578
12.8207
15.8738
18.927
21.9802
25.0358
28.093
31.1547
34.2196
37.2912
40.367
43.4516
46.5413
49.6417
52.7476
55.8659
58.9898
62.1276
65.2704
68.428
71.5895
74.7661
77.9446
81.1375
84.3299
87.5342
90.7356
93.944
97.147
100.349
103.543
106.728
109.893
113.053
116.155
119.293
122.279
125.403
128.233
131.289
134.053
136.753
139.977
141.483
145.716
146.487
150.05
152.426
151.362
162.154
150.579
165.788
161.75
157.668
182.167
142.267
194.153
155.818
175.322
199.799
142.006
224.482
153.84
201.737
215.674
175.847
219.038
208.892
215.017
201.345
225.958
229.312
228.13
-52.6731
-55.2754
-58.1181
-61.1574
-64.2795
-67.3703
-70.3279
-73.0557
-75.4625
-77.47
-79.0212
-80.0845
-80.6517
-80.7331
-80.3532
-79.5481
-78.3616
-76.8401
-75.0294
-72.9728
-70.7096
-68.2745
-65.698
-63.006
-60.2206
-57.3603
-54.4406
-51.4742
-48.4717
-45.4418
-42.3917
-39.3272
-36.2528
-33.1724
-30.089
-27.0049
-23.9217
-20.841
-17.7634
-14.6897
-11.6201
-8.55484
-5.49354
-2.43622
0.617846
3.66875
6.71761
9.76447
12.8108
15.8566
18.9036
21.9515
25.0026
28.056
31.1147
34.177
37.2465
40.3206
43.4039
46.4925
49.5922
52.6976
55.8157
58.9395
62.0773
65.2203
68.3783
71.5402
74.7173
77.8964
81.09
84.2832
87.4883
90.6907
93.9
97.1042
100.308
103.502
106.688
109.855
113.016
116.119
119.259
122.246
125.371
128.203
131.26
134.026
136.726
139.956
141.452
145.698
146.465
150.03
152.408
151.312
162.196
150.511
165.765
161.762
157.548
182.298
142.103
194.175
155.742
175.012
200.014
141.76
224.55
153.699
201.195
215.953
175.692
218.771
208.998
215.007
201.218
225.839
229.363
228.144
-50.8756
-53.0247
-55.3886
-57.9262
-60.5399
-63.1437
-65.6685
-68.0475
-70.2103
-72.0885
-73.6242
-74.776
-75.5202
-75.8492
-75.7677
-75.2924
-74.4498
-73.2728
-71.7973
-70.0596
-68.0948
-65.9357
-63.6118
-61.1498
-58.5725
-55.8999
-53.149
-50.3343
-47.4678
-44.5599
-41.6189
-38.6519
-35.6647
-32.6621
-29.648
-26.6256
-23.5973
-20.5652
-17.5308
-14.4953
-11.4594
-8.42377
-5.38856
-2.35415
0.679876
3.71327
6.74689
9.78049
12.8154
15.8512
18.8897
21.9303
24.9752
28.0233
31.0775
34.136
37.2024
40.2739
43.3551
46.4421
49.5405
52.645
55.7624
58.8857
62.0234
65.1664
68.3246
71.4867
74.6644
77.8441
81.0383
84.2324
87.4384
90.6418
93.8521
97.0574
100.262
103.458
106.645
109.813
112.976
116.08
119.222
122.21
125.337
128.17
131.229
133.997
136.696
139.934
141.42
145.679
146.442
150.011
152.387
151.259
162.246
150.438
165.738
161.766
157.422
182.44
141.91
194.216
155.639
174.666
200.247
141.477
224.656
153.525
200.571
216.264
175.51
218.492
209.127
214.991
201.07
225.712
229.421
228.16
-48.9753
-50.7567
-52.7325
-54.8634
-57.0619
-59.2599
-61.4102
-63.468
-65.3814
-67.0948
-68.5557
-69.7214
-70.5607
-71.0551
-71.1964
-70.986
-70.4353
-69.5637
-68.3959
-66.9599
-65.2845
-63.3986
-61.3293
-59.1022
-56.7401
-54.2636
-51.6907
-49.0371
-46.3161
-43.5392
-40.7164
-37.8557
-34.9642
-32.0476
-29.1108
-26.1578
-23.1917
-20.2154
-17.2309
-14.2399
-11.2438
-8.24362
-5.23989
-2.23343
0.775875
3.78741
6.80181
9.81849
12.8386
15.8615
18.8887
21.9195
24.956
27.9968
31.0449
34.098
37.16
40.2278
43.3059
46.3903
49.4868
52.5896
55.7058
58.8283
61.9654
65.108
68.2662
71.4285
74.6064
77.7867
80.9815
84.1764
87.3833
90.5878
93.7992
97.0058
100.212
103.409
106.598
109.767
112.932
116.038
119.182
122.171
125.3
128.135
131.195
133.965
136.664
139.91
141.387
145.658
146.418
149.991
152.363
151.204
162.302
150.352
165.719
161.766
157.286
182.591
141.696
194.284
155.505
174.276
200.499
141.16
224.808
153.323
199.858
216.61
175.302
218.209
209.281
214.971
200.918
225.573
229.486
228.175
-46.9894
-48.4701
-50.1279
-51.9254
-53.7822
-55.6418
-57.4716
-59.2423
-60.9168
-62.4518
-63.8028
-64.9303
-65.8018
-66.3932
-66.689
-66.6803
-66.3668
-65.7559
-64.8618
-63.7032
-62.3017
-60.6806
-58.8632
-56.8726
-54.7304
-52.4567
-50.0697
-47.5858
-45.0191
-42.3824
-39.6863
-36.9405
-34.1527
-31.3298
-28.4776
-25.601
-22.7038
-19.7897
-16.8611
-13.9206
-10.9699
-8.01048
-5.04334
-2.06968
0.910322
3.89568
6.88678
9.88275
12.8845
15.8912
18.9042
21.9224
24.948
27.9792
31.019
34.0649
37.1208
40.1833
43.2571
46.3378
49.4312
52.5315
55.6458
58.7667
61.9028
65.0446
68.2024
71.3645
74.5426
77.7231
80.9185
84.1142
87.3219
90.5275
93.7402
96.9481
100.156
103.355
106.545
109.716
112.883
115.99
119.137
122.127
125.259
128.096
131.157
133.932
136.629
139.884
141.351
145.635
146.393
149.97
152.336
151.148
162.362
150.255
165.703
161.753
157.151
182.76
141.435
194.381
155.348
173.847
200.771
140.804
225.009
153.102
199.058
216.994
175.071
217.925
209.468
214.945
200.712
225.421
229.556
228.19
-44.9311
-46.1637
-47.5588
-49.0806
-50.6541
-52.2307
-53.7874
-55.3059
-56.7604
-58.1175
-59.3415
-60.3977
-61.256
-61.891
-62.2833
-62.4187
-62.2887
-61.8918
-61.2325
-60.3211
-59.1716
-57.8007
-56.2272
-54.4702
-52.549
-50.4823
-48.2874
-45.9806
-43.5766
-41.0886
-38.5281
-35.9055
-33.2296
-30.5083
-27.7481
-24.9548
-22.1331
-19.2873
-16.4206
-13.5361
-10.636
-7.72237
-4.79657
-1.86024
1.08612
4.04117
7.00506
9.97658
12.9565
15.9436
18.9392
21.9419
24.9538
27.9729
31.0021
34.0388
37.0866
40.142
43.2099
46.2854
49.3745
52.4711
55.5825
58.701
61.8352
64.9756
68.1324
71.2939
74.4717
77.6523
80.848
84.0443
87.2529
90.4595
93.6735
96.8828
100.092
103.293
106.486
109.658
112.828
115.936
119.086
122.079
125.212
128.054
131.114
133.896
136.59
139.856
141.313
145.608
146.367
149.946
152.307
151.089
162.426
150.149
165.691
161.736
157.009
182.92
141.181
194.5
155.16
173.379
201.061
140.417
225.273
152.877
198.178
217.404
174.825
217.653
209.681
214.915
200.524
225.257
229.63
228.203
-42.8105
-43.8374
-45.0138
-46.3057
-47.6427
-48.9818
-50.3063
-51.6055
-52.8618
-54.0502
-55.142
-56.1086
-56.9233
-57.5622
-58.005
-58.2351
-58.2395
-58.0104
-57.5454
-56.847
-55.9223
-54.7817
-53.4383
-51.907
-50.2036
-48.3443
-46.345
-44.221
-41.9866
-39.655
-37.2383
-34.7474
-32.1918
-29.5801
-26.9197
-24.217
-21.4778
-18.7068
-15.908
-13.0851
-10.2408
-7.37795
-4.49815
-1.60354
1.30503
4.22583
7.15876
10.1022
13.0569
16.0212
18.9964
21.9807
24.9761
27.9805
30.9967
34.0216
37.0593
40.1057
43.1657
46.2343
49.3176
52.4091
55.5164
58.6312
61.7627
64.9007
68.0558
71.2159
74.3929
77.573
80.7688
83.9653
87.1746
90.3821
93.5973
96.8081
100.019
103.221
106.417
109.591
112.764
115.875
119.028
122.024
125.159
128.006
131.065
133.856
136.545
139.824
141.274
145.577
146.342
149.919
152.276
151.029
162.491
150.036
165.681
161.715
156.867
183.095
140.884
194.647
154.951
172.885
201.379
139.987
225.571
152.683
197.244
217.835
174.574
217.383
209.918
214.887
200.313
225.08
229.705
228.212
-40.6361
-41.4914
-42.4845
-43.5835
-44.7218
-45.8606
-46.9876
-48.0972
-49.1777
-50.2105
-51.173
-52.0419
-52.7946
-53.41
-53.8686
-54.1534
-54.2497
-54.1461
-53.8353
-53.3142
-52.5839
-51.649
-50.5172
-49.1986
-47.7051
-46.0496
-44.2458
-42.3072
-40.2472
-38.0784
-35.8129
-33.4615
-31.0343
-28.5403
-25.9876
-23.3833
-20.7337
-18.0444
-15.32
-12.5648
-9.78207
-6.97516
-4.14621
-1.29788
1.56867
4.45123
7.34948
10.2614
13.1875
16.1258
19.0775
22.0405
25.0168
28.0038
31.0045
34.0154
37.0407
40.0759
43.1261
46.1859
49.2617
52.3465
55.4481
58.558
61.6853
64.8198
67.9722
71.13
74.3055
77.4844
80.6795
83.8758
87.0854
90.2936
93.5099
96.722
99.935
103.139
106.338
109.513
112.69
115.803
118.96
121.959
125.097
127.951
131.007
133.811
136.493
139.786
141.232
145.538
146.316
149.885
152.244
150.974
162.551
149.923
165.669
161.694
156.728
183.268
140.578
194.813
154.745
172.353
201.69
139.574
225.903
152.538
196.274
218.272
174.322
217.128
210.17
214.861
200.104
224.89
229.778
228.218
-38.4145
-39.1261
-39.9649
-40.9009
-41.8713
-42.8405
-43.7993
-44.7453
-45.6713
-46.5635
-47.404
-48.1742
-48.8554
-49.4294
-49.8789
-50.1878
-50.3412
-50.3263
-50.133
-49.7542
-49.1867
-48.4302
-47.4875
-46.3643
-45.0681
-43.6086
-41.9962
-40.2424
-38.3588
-36.3569
-34.248
-32.0429
-29.7514
-27.3828
-24.9457
-22.4476
-19.8952
-17.2949
-14.6518
-11.9707
-9.25565
-6.51042
-3.73763
-0.940485
1.87948
4.71957
7.57919
10.4559
13.35
16.2591
19.1843
22.1231
25.0776
28.0446
31.0273
34.0219
37.0325
40.0543
43.0927
46.1418
49.2082
52.2844
55.3787
58.482
61.6039
64.7334
67.8818
71.0362
74.209
77.3858
80.5795
83.7748
86.9841
90.1923
93.4094
96.6223
99.8373
103.043
106.244
109.422
112.603
115.718
118.879
121.883
125.022
127.887
130.937
133.761
136.431
139.742
141.187
145.489
146.293
149.842
152.213
150.916
162.6
149.815
165.657
161.677
156.595
183.433
140.262
194.993
154.544
171.807
202.025
139.137
226.255
152.468
195.304
218.688
174.08
216.883
210.426
214.845
199.904
224.688
229.848
228.221
-36.1515
-36.7423
-37.4504
-38.2479
-39.0757
-39.9007
-40.7158
-41.5209
-42.312
-43.0786
-43.8068
-44.4817
-45.0879
-45.6104
-46.0342
-46.3448
-46.5282
-46.5714
-46.4633
-46.1946
-45.759
-45.1527
-44.3745
-43.4261
-42.3111
-41.0354
-39.6065
-38.0331
-36.3246
-34.4909
-32.542
-30.488
-28.3382
-26.1019
-23.7876
-21.4031
-18.9555
-16.4516
-13.8969
-11.297
-8.65603
-5.97863
-3.26776
-0.527198
2.24118
5.03414
7.85084
10.6883
13.5467
16.4231
19.3187
22.2303
25.1601
28.1045
31.0668
34.0425
37.0362
40.0425
43.0671
46.1033
49.1585
52.2244
55.3096
58.4046
61.5193
64.6425
67.7854
70.9349
74.1039
77.2772
80.4684
83.6616
86.8698
90.0772
93.2945
96.5076
99.7243
102.93
106.136
109.314
112.5
115.617
118.783
121.793
124.933
127.812
130.853
133.702
136.355
139.688
141.139
145.425
146.271
149.784
152.186
150.862
162.629
149.725
165.622
161.671
156.474
183.573
139.96
195.176
154.385
171.252
202.343
138.718
226.603
152.505
194.373
219.056
173.862
216.648
210.672
214.845
199.734
224.477
229.913
228.223
-33.8518
-34.3406
-34.9377
-35.6171
-36.3231
-37.0251
-37.7171
-38.4009
-39.0743
-39.7298
-40.3563
-40.9417
-41.4737
-41.9399
-42.3277
-42.6244
-42.8175
-42.8948
-42.845
-42.6581
-42.3259
-41.8424
-41.2034
-40.4072
-39.4544
-38.3474
-37.0904
-35.6894
-34.1513
-32.4839
-30.6957
-28.7954
-26.7916
-24.693
-22.5076
-20.2435
-17.9078
-15.5075
-13.0484
-10.5366
-7.97661
-5.37354
-2.73076
-0.0525932
2.65876
5.39949
8.16854
10.9624
13.781
16.621
19.4834
22.3645
25.2667
28.1856
31.1248
34.0792
37.0537
40.0421
43.0507
46.0722
49.1141
52.1678
55.2422
58.3272
61.4331
64.5481
67.6841
70.8272
73.9908
77.1593
80.3467
83.5365
86.7424
89.9478
93.1646
96.3767
99.5946
102.801
106.009
109.188
112.379
115.498
118.669
121.686
124.825
127.722
130.749
133.632
136.264
139.622
141.087
145.342
146.253
149.707
152.165
150.807
162.627
149.667
165.61
161.684
156.368
183.668
139.691
195.347
154.295
170.702
202.615
138.319
226.919
152.684
193.511
219.343
173.687
216.415
210.897
214.867
199.614
224.26
229.974
228.232
-31.5196
-31.9221
-32.4245
-33.0026
-33.6042
-34.2007
-34.7872
-35.3663
-35.9375
-36.4951
-37.0303
-37.5334
-37.9945
-38.4034
-38.7497
-39.0225
-39.2109
-39.3039
-39.2909
-39.1619
-38.9081
-38.5219
-37.9975
-37.3309
-36.5197
-35.5637
-34.4643
-33.2246
-31.8489
-30.3429
-28.7131
-26.9665
-25.1106
-23.1531
-21.1016
-18.9636
-16.746
-14.4559
-12.0993
-9.68252
-7.21031
-4.68825
-2.11997
0.48964
3.13815
5.82115
8.53741
11.2828
14.0572
16.8565
19.6819
22.5289
25.4001
28.2904
31.2037
34.1341
37.0869
40.0552
43.0456
46.0502
49.0769
52.1164
55.1783
58.2514
61.3469
64.4521
67.5794
70.7145
73.8712
77.0333
80.2154
83.4004
86.6028
89.8047
93.0198
96.2297
99.4479
102.653
105.864
109.042
112.238
115.36
118.533
121.56
124.694
127.615
130.623
133.549
136.153
139.538
141.029
145.234
146.24
149.603
152.153
150.753
162.579
149.662
165.449
161.726
156.278
183.691
139.493
195.485
154.309
170.161
202.789
137.96
227.167
153.026
192.725
219.52
173.565
216.178
211.064
214.919
199.571
224.039
230.032
228.257
-29.1584
-29.4877
-29.9091
-30.4001
-30.9118
-31.4176
-31.9133
-32.402
-32.8843
-33.356
-33.81
-34.2385
-34.6333
-34.9863
-35.2889
-35.5319
-35.7059
-35.8013
-35.8086
-35.7182
-35.5215
-35.2104
-34.778
-34.2187
-33.5285
-32.7047
-31.7465
-30.6543
-29.4303
-28.0778
-26.6011
-25.0055
-23.297
-21.4821
-19.5673
-17.5595
-15.4651
-13.2911
-11.0432
-8.72793
-6.35012
-3.91569
-1.42841
1.10632
3.68592
6.30536
8.96334
11.655
14.3803
17.1344
19.9185
22.7275
25.564
28.4223
31.3065
34.21
37.1383
40.0839
43.0539
46.0392
49.0488
52.0721
55.1194
58.179
61.2623
64.356
67.4731
70.5986
73.7468
76.901
80.0764
83.255
86.4523
89.6494
92.8614
96.0677
99.2851
102.487
105.7
108.877
112.076
115.2
118.375
121.414
124.539
127.49
130.471
133.448
136.02
139.433
140.964
145.096
146.231
149.464
152.151
150.697
162.469
149.737
165.353
161.806
156.197
183.607
139.393
195.559
154.455
169.617
202.798
137.655
227.31
153.551
191.993
219.556
173.552
215.926
211.176
215.006
199.633
223.817
230.091
228.314
-26.7713
-27.0385
-27.3903
-27.8061
-28.2402
-28.6678
-29.0851
-29.4956
-29.9007
-30.2972
-30.6794
-31.0407
-31.3748
-31.6747
-31.9336
-32.1438
-32.2974
-32.386
-32.4013
-32.3346
-32.1777
-31.9226
-31.5621
-31.0898
-30.5005
-29.79
-28.9556
-27.9958
-26.9106
-25.7011
-24.3696
-22.9197
-21.3555
-19.6821
-17.9047
-16.0295
-14.0619
-12.0085
-9.87465
-7.66673
-5.38946
-3.049
-0.64909
1.80441
4.3089
6.85878
9.45271
12.0852
14.7562
17.4601
20.1983
22.9649
25.7628
28.5853
31.4369
34.3102
37.2111
40.1312
43.078
46.0418
49.0318
52.0369
55.0678
58.1118
61.1812
64.2618
67.367
70.4814
73.6195
76.7642
79.9313
83.1021
86.293
89.4837
92.6912
95.8926
99.1075
102.306
105.518
108.695
111.893
115.022
118.193
121.248
124.357
127.345
130.292
133.327
135.865
139.302
140.893
144.921
146.229
149.282
152.16
150.637
162.284
149.921
165.142
161.933
156.112
183.375
139.452
195.518
154.758
169.034
202.572
137.435
227.291
154.274
191.274
219.426
173.58
215.65
211.226
215.131
199.828
223.598
230.158
228.421
-24.3613
-24.5756
-24.8676
-25.2183
-25.5851
-25.945
-26.2945
-26.6374
-26.9753
-27.3059
-27.6247
-27.9262
-28.205
-28.4557
-28.6725
-28.8491
-28.9788
-29.0546
-29.0691
-29.0148
-28.884
-28.6693
-28.3636
-27.9603
-27.4535
-26.8382
-26.1102
-25.2668
-24.3059
-23.2272
-22.0309
-20.7189
-19.2934
-17.7581
-16.1167
-14.3743
-12.5353
-10.6055
-8.58971
-6.49397
-4.32262
-2.08192
0.224584
2.59072
5.01397
7.48822
10.0122
12.5797
15.1909
17.8395
20.5269
23.2465
26.0012
28.7839
31.599
34.4386
37.3087
40.2002
43.121
46.0606
49.0286
52.0132
55.0253
58.0521
61.1054
64.1714
67.2628
70.3647
73.491
76.625
79.7821
82.944
86.1266
89.3101
92.5112
95.7069
98.9171
102.112
105.321
108.497
111.691
114.827
117.988
121.064
124.15
127.18
130.087
133.184
135.69
139.141
140.817
144.706
146.232
149.051
152.174
150.572
162.014
150.243
164.842
162.112
156.001
182.96
139.809
195.317
155.243
168.36
202.052
137.353
227.035
155.227
190.532
219.109
173.735
215.345
211.203
215.294
200.189
223.388
230.24
228.601
-21.9308
-22.1002
-22.3406
-22.6348
-22.9431
-23.2442
-23.535
-23.8192
-24.0986
-24.3718
-24.6347
-24.883
-25.1121
-25.3176
-25.4947
-25.6383
-25.7427
-25.802
-25.8099
-25.7596
-25.6445
-25.4578
-25.1928
-24.843
-24.4024
-23.8655
-23.2275
-22.4844
-21.6331
-20.6717
-19.5989
-18.415
-17.1205
-15.7176
-14.2085
-12.597
-10.8863
-9.08149
-7.18621
-5.20617
-3.14512
-1.00914
1.19853
3.47159
5.80769
8.2004
10.6485
13.1454
15.6911
18.2789
20.9101
23.5778
26.2847
29.0231
31.7976
34.5996
37.4351
40.2948
43.1862
46.0989
49.0419
52.0037
54.9945
58.002
61.0371
64.0869
67.1624
70.2505
73.3629
76.4852
79.6303
82.7825
85.9549
89.1306
92.3231
95.5131
98.716
101.908
105.11
108.287
111.472
114.618
117.762
120.864
123.92
126.997
129.863
133.017
135.502
138.949
140.738
144.446
146.236
148.771
152.187
150.508
161.66
150.727
164.393
162.338
155.843
182.351
140.391
194.958
155.947
167.554
201.232
137.504
226.537
156.471
189.765
218.593
174.075
215.009
211.109
215.505
200.755
223.197
230.343
228.875
-19.4824
-19.6134
-19.8093
-20.0543
-20.3117
-20.5617
-20.8015
-21.0346
-21.2632
-21.4861
-21.6999
-21.9011
-22.0857
-22.2502
-22.3906
-22.5027
-22.5816
-22.6225
-22.6198
-22.5679
-22.4608
-22.2924
-22.0567
-21.7476
-21.3591
-20.8859
-20.3225
-19.6646
-18.9082
-18.0503
-17.0884
-16.0214
-14.8484
-13.5703
-12.1877
-10.7032
-9.11863
-7.438
-5.66404
-3.80169
-1.854
0.173392
2.27763
4.45261
6.6961
9.00171
11.3681
13.7886
16.2631
18.7846
21.3543
23.9649
26.6188
29.3085
32.0376
34.798
37.5948
40.4192
43.2774
46.1603
49.0749
52.0116
54.9781
57.9643
60.9785
64.0103
67.0678
70.1407
73.237
76.3466
79.4776
82.6193
85.7793
88.947
92.1285
95.3131
98.5056
101.696
104.886
108.068
111.239
114.398
117.52
120.651
123.672
126.797
129.628
132.825
135.308
138.722
140.658
144.14
146.233
148.454
152.193
150.466
161.229
151.376
163.767
162.595
155.64
181.585
141.437
193.589
156.91
166.636
200.176
138.026
225.599
158.081
189.026
217.872
174.67
214.646
210.952
215.751
201.57
223.042
230.472
229.261
-17.0183
-17.1166
-17.274
-17.4761
-17.6891
-17.8945
-18.0899
-18.2786
-18.4629
-18.6417
-18.8125
-18.972
-19.1171
-19.2447
-19.3515
-19.434
-19.4882
-19.51
-19.4945
-19.437
-19.3323
-19.1751
-18.9598
-18.6809
-18.3329
-17.9105
-17.4083
-16.8217
-16.1462
-15.3781
-14.5142
-13.5522
-12.4902
-11.3276
-10.0641
-8.70058