/*--------------------------------*- C++ -*----------------------------------*\
| =========                 |                                                 |
| \\      /  F ield         | OpenFOAM: The Open Source CFD Toolbox           |
|  \\    /   O peration     | Version:  2412                                  |
|   \\  /    A nd           | Website:  www.openfoam.com                      |
|    \\/     M anipulation  |                                                 |
\*---------------------------------------------------------------------------*/
FoamFile
{
    version     2.0;
    format      ascii;
    arch        "LSB;label=32;scalar=64";
    class       volVectorField;
    location    "0.76";
    object      ddtCorrDdt0(U);
}
// * * * * * * * * * * * * * * * * * * * * * * * * * * * * * * * * * * * * * //

dimensions      [0 1 -2 0 0 0 0];

internalField   nonuniform List<vector> 
12600
(
(-1.40155 0 -2.76156)
(-1.16156 -1.86918e-18 0.835051)
(2.37704 -1.95215e-18 0.386235)
(0.561805 0 -0.572887)
(-0.0291124 9.09823e-19 -0.609207)
(-0.51653 0 -0.615811)
(-1.54211 -9.03062e-18 -0.686684)
(-1.16457 0 0.0315477)
(1.4349 0 1.60903)
(3.84403 0 2.52103)
(3.11171 0 1.51545)
(1.026 -5.59424e-18 0.612554)
(-0.182563 -1.192e-17 0.225905)
(-0.457917 0 0.0325228)
(-0.449502 -1.2832e-18 -0.353797)
(0.331 0 -0.433508)
(2.44067 -2.38487e-18 0.202469)
(4.57903 0 0.88334)
(4.03005 -3.30346e-18 0.0918887)
(-1.63247 0 -3.34574)
(-10.5736 0 -7.9363)
(-13.4432 0 -6.69415)
(8.04718 -1.8501e-16 7.44374)
(42.5187 2.03996e-16 16.7214)
(-12.0483 4.49462e-17 -29.2738)
(-111.778 2.35576e-16 -48.0633)
(1.3486 0 62.8128)
(95.745 0 68.1526)
(38.4205 0 15.0059)
(2.65443 7.93335e-17 -1.74733)
(1.80069 1.32471e-16 -0.354812)
(-0.200462 0 -1.81621)
(-3.81096 0 -3.36233)
(-2.90551 1.86397e-17 -2.15016)
(0.251495 -1.86167e-18 -0.155682)
(1.39869 0 0.469605)
(0.140127 0 -0.0914206)
(-1.07996 -2.28903e-17 -0.490621)
(-0.768216 0 -0.138256)
(0.401795 2.53026e-18 0.505683)
(1.09621 -3.00452e-17 0.810084)
(0.844462 -1.59581e-17 0.634073)
(0.124294 0 0.243363)
(-0.379033 2.48489e-18 -0.0675073)
(-0.194868 7.86776e-18 -0.0438856)
(0.488655 -3.85414e-17 0.224675)
(0.649807 6.94638e-17 0.21593)
(-0.461184 0 -0.387535)
(-1.81417 -6.15809e-17 -0.979409)
(-1.86271 2.08937e-17 -0.989003)
(-0.188967 0 -0.0758559)
(2.50345 -2.91228e-18 1.75888)
(10.6494 -8.88247e-17 5.82035)
(-14.0726 0 -16.3542)
(-31.2983 -2.8491e-16 -17.6286)
(-6.69755 0 7.1992)
(25.5902 0 31.2706)
(13.864 4.3314e-17 9.50063)
(-0.0973197 4.98281e-18 1.51858)
(-1.68137 6.45144e-17 1.06032)
(-0.834387 -1.75002e-17 1.30009)
(-1.22354 -8.86582e-17 1.26416)
(-2.70841 0 0.918868)
(-2.68774 1.12409e-16 0.77724)
(0.707804 2.79323e-16 0.989089)
(7.3266 3.14398e-16 2.44633)
(21.1826 -9.14445e-16 7.48054)
(-15.9954 0 -33.6735)
(-20.2581 0 -17.4872)
(-2.49282 0 -5.7665)
(3.97473 0 -3.12434)
(5.49285 0 -3.38884)
(5.56902 -1.17981e-16 -3.98241)
(5.54412 1.60699e-16 -3.96853)
(6.27063 0 -3.37013)
(6.04811 0 -2.31438)
(3.36558 -6.60634e-17 -1.89343)
(1.21119 1.70044e-18 -0.778266)
(-0.12626 4.06998e-16 0.10909)
(-0.242936 0 1.23439)
(-0.826724 0 1.21465)
(-1.80197 0 -0.267743)
(-0.550351 7.2433e-18 -1.25385)
(1.12086 0 -0.662562)
(3.29748 0 -1.47936)
(-3.71858 -1.07804e-15 2.76163)
(-9.53305 3.07874e-17 5.52741)
(-21.0443 0 12.7441)
(9.8332 0 -7.59376)
(52.3505 -1.86021e-15 -31.7244)
(-129.674 1.5792e-15 78.7096)
(15.746 5.39074e-15 -14.4418)
(28.8215 -1.31732e-15 -19.4707)
(-23.9313 1.38487e-17 12.8275)
(14.8469 1.53878e-18 -6.32967)
(-2.69314 4.40563e-16 4.90007)
(-6.04156 0 3.4367)
(-2.60751 0 1.51872)
(-4.29187 0 2.19952)
(3.47374 2.3674e-15 -2.31745)
(15.9202 -1.07755e-15 -9.71885)
(25.89 -6.45567e-17 -14.9095)
(25.5935 -1.05929e-16 -14.3806)
(18.2445 0 -10.2484)
(8.38377 0 -4.81422)
(-0.905151 0 0.795376)
(-10.7524 -2.00559e-16 6.08606)
(-18.2954 0 10.5717)
(-12.5484 -8.33792e-17 7.02961)
(-8.8856 0 4.91643)
(-8.05102 0 4.77444)
(-6.90598 -1.33761e-16 3.95511)
(-3.79538 0 2.08891)
(-0.892151 0 0.496068)
(-0.169216 0 0.137682)
(2.9014 3.00526e-16 -1.65912)
(3.79773 0 -2.14042)
(0.652684 -1.90875e-16 -0.390643)
(-1.90318 0 1.05428)
(-1.19824 -9.51696e-20 0.667527)
(-6.37477 -4.13948e-19 -4.90557)
(-4.228 1.40924e-18 0.88319)
(-2.62077 2.02431e-18 0.560641)
(-2.67567 0 -0.524403)
(-1.8292 -2.87103e-18 -0.231648)
(-1.67886 6.43252e-18 0.212975)
(-1.77848 9.42084e-18 0.70209)
(-0.0681216 -7.84923e-18 2.19594)
(2.80671 0 4.32775)
(3.61706 0 4.98649)
(1.53556 0 3.24988)
(-0.411059 0 1.86476)
(-1.1688 0 1.24442)
(-1.39489 0 0.560426)
(-1.48393 -3.85459e-18 -0.657698)
(-0.291582 0 -1.25692)
(2.4758 -1.58203e-17 -0.456332)
(4.43068 0 0.395775)
(1.86587 3.47033e-18 -1.58586)
(-6.8187 -1.69195e-17 -8.07618)
(-15.797 0 -15.4288)
(-11.1977 -5.68505e-17 -11.4697)
(21.192 8.56689e-17 17.1796)
(39.3424 -8.77503e-17 27.4403)
(-51.9676 6.62077e-17 -68.6591)
(-102.959 0 -73.4026)
(95.6967 2.4677e-16 174.718)
(123.792 0 134.417)
(26.8661 0 21.3616)
(-3.19982 0 -7.09965)
(1.16313 -6.50714e-17 -2.76478)
(-1.54088 0 -4.43298)
(-4.86364 0 -6.36692)
(-2.5908 0 -4.01075)
(1.33239 0 -0.575182)
(2.33452 0 0.600167)
(0.77969 0 -0.102166)
(-0.360013 2.35524e-17 -0.577102)
(0.263463 0 0.0324652)
(1.60564 7.936e-17 0.993244)
(2.18936 5.44504e-17 1.36616)
(1.66751 7.95337e-18 0.988543)
(0.691462 0 0.29193)
(0.0426533 0 -0.289156)
(0.20339 -1.59254e-17 -0.397116)
(0.846721 3.93547e-17 -0.166326)
(0.825686 -6.66862e-17 -0.263885)
(-0.528424 0 -1.11185)
(-1.97976 4.83148e-17 -1.94697)
(-1.8002 0 -1.84633)
(0.418762 0 -0.353767)
(4.02495 6.59732e-17 2.59593)
(10.7764 0 8.86147)
(-32.1952 0 -43.4175)
(-36.7761 2.87938e-16 -30.3377)
(8.32878 0 26.6148)
(47.9995 0 71.8697)
(13.7246 7.96091e-17 16.8953)
(-2.32936 5.46298e-17 3.22546)
(-4.00632 -9.77059e-19 2.54164)
(-3.52139 0 3.0738)
(-4.24473 8.98273e-17 3.17717)
(-5.82528 1.05509e-16 2.72659)
(-5.36598 0 2.33635)
(-0.847067 -5.55926e-16 2.29257)
(7.84648 2.27399e-17 3.56312)
(20.0398 0 6.90753)
(-44.5868 -3.57246e-15 -88.4062)
(-20.694 0 -35.5008)
(5.66496 0 -13.5451)
(15.5067 0 -10.0975)
(19.3689 0 -11.5852)
(20.6744 2.32925e-16 -12.9867)
(20.5084 -1.57983e-16 -12.7489)
(19.7859 0 -10.9728)
(16.3724 0 -7.6329)
(9.19223 -5.95208e-17 -5.15274)
(2.93208 2.12273e-18 -1.71602)
(-2.44581 7.73176e-19 1.53116)
(-5.18462 0 4.29803)
(-5.44914 0 4.02441)
(-2.4401 0 -0.100659)
(2.51685 1.01054e-17 -3.29018)
(4.09925 -1.45914e-15 -2.31115)
(11.1148 2.56718e-16 -5.43551)
(-8.05382 1.04162e-15 7.25769)
(-32.815 4.0778e-17 19.2505)
(-72.3398 -7.99876e-16 41.5327)
(34.2502 0 -24.6918)
(170.639 1.78798e-15 -95.0598)
(-426.266 0 253.064)
(62.2806 -5.1687e-15 -39.2314)
(97.8433 0 -57.6146)
(-66.9377 -1.07273e-15 36.5223)
(42.1609 -2.99305e-15 -22.6865)
(-15.7753 0 14.8177)
(-17.4367 0 10.0889)
(-10.1441 4.56541e-16 5.71135)
(-11.7887 -2.30269e-16 6.31102)
(15.8185 -2.2974e-15 -10.015)
(56.4099 1.02338e-15 -33.6075)
(81.6435 6.12571e-17 -47.6954)
(76.3366 0 -43.9695)
(50.6335 9.76345e-18 -29.0605)
(20.0151 0 -9.83906)
(-6.68256 0 4.56362)
(-32.9494 1.97869e-16 19.469)
(-56.8094 0 33.0578)
(-37.0674 -2.87466e-18 21.1884)
(-25.3206 1.33637e-16 14.4628)
(-25.1323 0 14.7322)
(-21.0316 0 12.0973)
(-11.4648 0 6.41238)
(-2.56467 1.84973e-16 1.3951)
(0.163708 -1.71718e-16 -0.0865937)
(9.53859 -2.82521e-16 -5.5943)
(10.92 0 -6.30113)
(0.783453 1.79279e-16 -0.557183)
(-6.01359 0 3.47253)
(-3.53653 4.8554e-16 2.02497)
(-6.10516 1.58565e-18 -1.88262)
(-7.52945 -1.1377e-18 0.302126)
(-7.90815 -3.38382e-18 0.275279)
(-6.03768 0 0.720652)
(-3.71421 -4.7833e-18 1.88179)
(-2.69787 -1.73024e-18 3.07003)
(-2.06268 0 4.29752)
(-0.529506 7.44963e-18 5.54071)
(0.767366 0 5.97196)
(0.097393 -2.62842e-18 5.05798)
(-1.51495 0 3.82967)
(-2.3967 0 3.16195)
(-2.72451 0 2.56945)
(-3.25175 0 1.16191)
(-3.40695 5.79958e-18 -0.747496)
(-1.73926 0 -1.74013)
(1.34639 0 -1.23689)
(2.59686 0 -1.01632)
(-1.30763 -3.08322e-20 -3.5338)
(-9.68237 6.87288e-18 -8.83478)
(-13.89 0 -11.6069)
(-2.44751 1.81356e-17 -5.67197)
(23.1013 0 12.0478)
(12.5128 -3.88462e-17 6.43792)
(-56.7877 0 -58.1189)
(-20.5015 0 -3.8359)
(146.94 -2.34009e-16 218.243)
(74.2177 0 95.9586)
(-3.29155 0 0.641822)
(-8.10535 -3.17341e-18 -12.2752)
(0.562668 0 -5.49423)
(-1.82943 0 -5.30901)
(-3.77816 0 -5.44658)
(-1.18313 0 -3.23334)
(2.09428 7.99639e-18 -0.704783)
(2.66512 0 0.257256)
(1.32796 0 0.107215)
(0.551476 -1.27795e-17 0.103023)
(1.18732 0 0.5984)
(2.22186 -6.0639e-17 1.08223)
(2.49265 -7.46482e-18 1.0688)
(1.84711 -7.52989e-18 0.589414)
(0.894001 0 -0.0416096)
(0.286242 0 -0.591205)
(0.351095 7.45965e-18 -0.919975)
(0.767973 0 -1.09331)
(0.660509 6.30818e-17 -1.29977)
(-0.435616 0 -1.67973)
(-1.53463 -9.73e-18 -1.99187)
(-1.14902 0 -1.68068)
(0.853799 0 -0.664206)
(3.79345 0 0.999373)
(3.57774 1.14471e-16 1.38266)
(-40.7632 0 -55.2511)
(-24.0077 0 -16.0446)
(22.59 0 43.1554)
(43.5672 0 68.1626)
(5.97674 1.74848e-16 12.9034)
(-4.89418 0 3.67604)
(-6.33684 -2.84784e-19 3.39566)
(-6.20931 0 4.03597)
(-7.07104 -4.26219e-17 4.32553)
(-8.40163 -9.94791e-17 4.09438)
(-7.44182 0 3.50105)
(-2.20477 5.23426e-16 2.70772)
(6.62326 -1.76469e-16 1.28673)
(10.5537 0 -6.83883)
(-55.7517 3.36434e-15 -115.221)
(-7.86538 0 -34.4067)
(16.5521 0 -17.4031)
(27.2881 0 -16.9313)
(32.9738 0 -19.8947)
(35.2942 1.3744e-20 -21.5759)
(34.6511 1.4857e-16 -20.8424)
(31.8871 0 -17.8654)
(24.7839 0 -12.4626)
(13.7192 9.95269e-19 -6.9992)
(3.59133 -1.42917e-16 -1.43869)
(-5.35167 -1.87606e-16 4.03303)
(-10.5341 0 7.68089)
(-10.1252 0 6.65833)
(-2.48813 0 0.13669)
(6.1886 -1.8418e-15 -5.01544)
(7.68915 2.17412e-18 -4.38578)
(19.8516 -2.40823e-16 -10.034)
(-10.4368 0 7.61946)
(-55.4761 8.37432e-16 34.3563)
(-124.368 7.49891e-16 69.1911)
(49.8127 0 -40.0378)
(272.647 0 -136.253)
(-692.127 -1.51134e-15 407.888)
(107.488 0 -105.192)
(165.371 1.35851e-15 -90.0319)
(-96.3214 2.67885e-18 59.1094)
(67.5295 2.80123e-15 -39.0378)
(-30.5688 -2.19179e-16 24.3011)
(-26.125 0 14.4161)
(-17.6535 -4.2725e-16 10.238)
(-17.0479 2.15463e-16 8.563)
(31.8912 2.18952e-15 -21.4193)
(99.8427 0 -60.1652)
(134.649 6.93733e-17 -78.2033)
(120.061 0 -67.6242)
(74.8797 -9.1295e-18 -40.9674)
(23.1525 3.14545e-16 -12.5605)
(-15.0314 0 10.9002)
(-53.2789 -1.8496e-16 32.414)
(-92.0786 0 53.114)
(-58.0784 1.54527e-16 32.2867)
(-38.6138 -1.24879e-16 21.6022)
(-40.7982 0 23.4832)
(-33.8096 0 18.9818)
(-18.3512 0 9.93039)
(-3.84836 1.67471e-19 1.89985)
(1.43968 1.60398e-16 -1.14925)
(16.2283 2.63641e-16 -9.66457)
(16.7679 0 -9.36506)
(0.0800884 1.62411e-16 0.53015)
(-10.0009 0 5.87199)
(-5.62896 -3.09704e-19 3.13975)
(-6.07366 -1.13029e-18 -0.0660239)
(-9.49753 -1.61095e-18 -0.223448)
(-9.93732 3.20969e-18 0.631079)
(-7.51564 -5.99274e-18 2.13659)
(-5.15573 -3.06357e-18 3.71487)
(-4.32834 -5.47136e-18 5.02521)
(-4.11784 0 6.06265)
(-3.60141 0 6.58905)
(-3.38414 0 6.16193)
(-3.97016 2.48975e-18 5.12098)
(-4.46483 0 4.52711)
(-4.62145 0 4.1999)
(-5.09147 0 3.29482)
(-5.87551 0 1.42013)
(-5.46969 0 -0.431198)
(-2.6435 3.38879e-18 -0.958231)
(0.9871 -1.17362e-18 -0.2064)
(1.47563 0 -0.369853)
(-3.34723 0 -3.17689)
(-10.2181 8.69524e-18 -7.07791)
(-10.0503 -7.73642e-18 -6.02989)
(2.68507 3.39132e-17 0.169646)
(16.9981 1.42118e-17 4.32094)
(-2.65932 3.67781e-17 -7.30174)
(-19.8417 3.35039e-18 -7.43174)
(55.1941 -1.17276e-16 62.141)
(106.308 0 142.58)
(-0.55042 9.51212e-17 21.3999)
(-24.6415 0 -19.1896)
(-7.59378 3.00816e-18 -12.6912)
(1.67486 0 -5.5176)
(-1.35242 0 -4.89131)
(-2.68147 0 -4.2987)
(-0.0411747 -7.61935e-18 -2.36346)
(2.72701 -7.56419e-18 -0.471281)
(2.90943 0 0.203484)
(1.6116 0 0.205673)
(1.0162 1.2084e-17 0.399043)
(1.65573 0 0.855252)
(2.50061 9.38752e-18 1.11052)
(2.56171 -1.4086e-17 0.871674)
(1.81142 0 0.282571)
(0.851728 0 -0.363577)
(0.275584 0 -0.898028)
(0.323434 0 -1.29688)
(0.684285 1.95075e-17 -1.59365)
(0.563957 0 -1.83243)
(-0.41908 -4.79226e-17 -2.03733)
(-1.30693 -3.39473e-17 -2.05706)
(-0.795973 0 -1.59499)
(1.05005 0 -0.800926)
(3.02718 0 -0.12362)
(-3.76442 -1.07995e-16 -5.36015)
(-34.746 -1.08532e-16 -43.8588)
(-9.40071 -6.74355e-16 0.274851)
(22.4327 0 38.755)
(25.6279 -9.97648e-17 42.754)
(-0.159212 -7.23091e-17 10.1113)
(-7.20413 0 4.42813)
(-8.48686 -1.13023e-16 4.53736)
(-8.58533 0 5.30744)
(-9.55377 3.92048e-17 5.61102)
(-10.7191 9.0246e-17 5.23491)
(-9.15927 0 4.49135)
(-3.13414 -2.46454e-16 3.09086)
(5.77649 1.61077e-16 -0.524332)
(3.41822 0 -16.417)
(-44.8698 0 -105.451)
(6.24837 0 -32.6444)
(26.8884 1.491e-17 -22.0349)
(38.8142 3.88367e-17 -23.7083)
(46.0594 0 -27.7563)
(48.9125 -1.03209e-16 -29.5784)
(47.4237 -1.41819e-16 -28.1676)
(42.3514 0 -23.7398)
(31.5245 0 -16.2721)
(16.8138 5.1584e-17 -8.07117)
(3.34125 6.18308e-19 -0.506103)
(-8.71117 0 6.66493)
(-15.6908 0 11.0045)
(-14.2552 0 8.7721)
(-2.01374 0 -0.55603)
(10.043 -1.01701e-18 -7.26479)
(11.7918 1.28162e-15 -6.89043)
(29.3572 0 -14.9597)
(-8.00194 0 9.94835)
(-77.9858 0 50.6872)
(-174.504 7.2063e-16 95.3182)
(51.178 0 -51.3072)
(329.614 1.47873e-15 -159.429)
(-885.702 1.41532e-15 523.094)
(190.931 -4.23517e-15 -165.881)
(235.618 -1.27173e-15 -123.178)
(-114.716 9.3249e-16 72.2933)
(90.3811 -2.62159e-15 -53.5726)
(-45.6209 2.05093e-16 34.4781)
(-32.4068 0 17.1505)
(-24.4324 0 14.1379)
(-19.2472 1.76261e-16 8.57914)
(52.3242 -1.03028e-15 -35.7128)
(145.051 -8.80968e-16 -88.4798)
(182.69 6.03036e-18 -106.385)
(154.05 0 -85.9136)
(88.9274 0 -47.2478)
(21.3437 -2.94008e-16 -7.49733)
(-25.4385 0 18.458)
(-71.6468 1.76146e-16 44.8697)
(-122.933 0 71.0798)
(-74.7347 2.10981e-18 40.8717)
(-48.4152 0 27.0127)
(-54.6673 -4.26729e-17 31.476)
(-45.0771 -1.07898e-16 25.0601)
(-24.3289 1.8954e-17 12.8027)
(-4.68001 -3.01202e-20 2.02524)
(3.74635 0 -2.8507)
(22.6912 -2.46207e-16 -13.6794)
(21.1118 -3.42209e-16 -11.5996)
(-1.82538 -1.51654e-16 1.55574)
(-13.7505 0 8.14609)
(-7.43877 -5.0655e-19 4.09979)
(-6.49135 0 0.87826)
(-9.07761 -1.00545e-18 0.596232)
(-9.06395 0 1.78228)
(-7.06696 5.66198e-18 3.32828)
(-5.82763 7.17047e-18 4.55141)
(-6.26069 1.25844e-18 5.38137)
(-7.27765 0 5.87683)
(-7.83274 0 5.94837)
(-7.88581 3.98881e-18 5.62002)
(-7.6151 3.43657e-18 5.28864)
(-7.14188 -1.9164e-18 5.22434)
(-7.10359 -5.2536e-19 4.84473)
(-7.81061 1.10432e-18 3.68419)
(-8.32673 0 2.00509)
(-6.8058 0 0.904242)
(-2.82002 -4.56025e-18 1.0573)
(0.882047 -1.18228e-20 1.75163)
(0.440864 0 1.1291)
(-4.77028 -4.37972e-18 -1.57611)
(-9.60549 -1.45433e-17 -3.98507)
(-6.6863 7.31256e-18 -1.49131)
(5.61459 0 3.92855)
(15.0478 -1.34304e-17 4.4336)
(1.63469 -1.92065e-17 -4.50019)
(10.1056 -3.18615e-18 20.0278)
(60.2637 -4.13671e-17 57.0097)
(15.717 0 11.2032)
(-43.9387 -5.08025e-17 -27.3226)
(-29.6928 0 -28.6475)
(-1.83364 6.90516e-17 -7.78176)
(3.75823 0 -3.39045)
(-0.555812 0 -3.63864)
(-1.72233 0 -3.11199)
(0.816909 7.19652e-18 -1.58389)
(3.16296 0 -0.189364)
(2.99007 0 0.161797)
(1.65821 0 0.123042)
(1.15171 0 0.365992)
(1.77383 -4.43015e-18 0.79369)
(2.48061 1.97705e-17 0.938869)
(2.4041 0 0.596132)
(1.60267 -5.95583e-18 -0.0286029)
(0.669859 0 -0.645829)
(0.142351 0 -1.13212)
(0.209653 0 -1.52405)
(0.56677 -9.88838e-18 -1.8503)
(0.459816 0 -2.09002)
(-0.442599 4.51859e-17 -2.19067)
(-1.18855 0 -2.01685)
(-0.620702 0 -1.4512)
(1.04068 1.99883e-18 -0.792743)
(2.01716 0 -0.772452)
(-7.14887 0 -7.21629)
(-19.7204 -4.12143e-17 -18.1281)
(0.772479 6.35156e-16 13.1126)
(24.2368 0 41.6775)
(12.6436 1.24763e-16 25.0254)
(-4.33862 2.84903e-19 8.88518)
(-9.4088 0 5.25477)
(-10.5673 5.32656e-17 5.68776)
(-10.8082 0 6.53986)
(-11.8147 -3.6882e-17 6.77964)
(-12.7386 -8.48838e-17 6.2203)
(-10.5713 0 5.27699)
(-3.84554 2.29969e-16 3.22766)
(4.93947 -1.93077e-17 -2.46704)
(-0.268955 0 -22.6604)
(-22.0426 0 -75.925)
(17.8469 0 -33.3446)
(36.4992 -4.93051e-17 -27.2225)
(49.712 -2.8483e-18 -30.3589)
(58.1874 0 -35.1073)
(61.2193 9.79753e-17 -36.7427)
(58.6386 2.6872e-16 -34.3695)
(51.156 0 -28.2928)
(36.8974 0 -18.6093)
(18.8382 0 -8.0966)
(2.5302 1.12744e-18 1.12478)
(-11.9607 0 9.65361)
(-20.2544 0 14.063)
(-17.4512 0 10.1925)
(-0.748274 0 -1.98494)
(13.9934 8.11979e-16 -9.70278)
(16.1507 1.19035e-15 -9.66057)
(39.6303 0 -20.2326)
(-5.83253 0 7.61732)
(-101.557 0 69.0633)
(-220.903 5.22052e-18 118.792)
(34.1768 0 -55.995)
(344.4 -1.38431e-15 -127.782)
(-953.414 0 566.77)
(305.12 3.96359e-15 -236.707)
(310.723 0 -155.696)
(-121.602 -4.31159e-16 74.2867)
(110.199 0 -66.632)
(-59.6429 0 45.6597)
(-37.1484 0 18.6542)
(-29.7868 0 17.2006)
(-17.7903 -1.64812e-16 5.93351)
(76.5998 0 -53.7212)
(190.672 8.23558e-16 -117.666)
(224.455 -6.62679e-17 -130.266)
(177.586 0 -96.8919)
(93.8365 0 -46.6305)
(11.0407 0 -2.83465)
(-37.1064 0 27.1918)
(-88.3041 7.88984e-19 56.4303)
(-149.063 0 85.8853)
(-87.1773 -1.42645e-16 46.2515)
(-55.2791 0 30.3518)
(-66.8352 7.95549e-17 38.339)
(-55.1725 1.00774e-16 30.1068)
(-29.5636 -1.77016e-17 14.929)
(-5.08641 -1.50831e-16 1.67402)
(6.91561 0 -5.25263)
(28.6964 0 -17.4651)
(24.109 6.38539e-16 -12.7865)
(-3.80641 -1.37218e-16 3.7768)
(-17.157 7.61256e-17 10.2129)
(-9.01498 -1.96844e-16 4.85367)
(-6.39725 0 2.43426)
(-7.60579 6.70843e-18 2.35539)
(-7.2801 0 3.17155)
(-5.9745 0 4.04626)
(-6.02121 0 4.45667)
(-7.76159 0 4.6162)
(-9.87626 0 4.75373)
(-11.0886 -2.57038e-18 4.92556)
(-11.0255 -3.7636e-18 5.24991)
(-10.0919 -5.00692e-18 5.72962)
(-9.27516 2.86944e-18 5.94203)
(-9.46739 4.9585e-19 5.37102)
(-10.3678 -1.04243e-18 4.11532)
(-10.3618 0 2.88478)
(-7.79434 0 2.50938)
(-3.16958 2.7937e-18 2.9822)
(0.182711 4.1952e-18 3.36431)
(-0.966686 0 2.50875)
(-5.71706 4.13437e-18 0.590539)
(-8.18598 1.37285e-17 -0.052115)
(-3.56433 0 2.79517)
(7.00858 1.08032e-17 6.48834)
(11.9746 0 3.62244)
(2.46976 -2.06796e-17 -5.63346)
(8.32282 7.3138e-17 6.38317)
(22.9187 1.87665e-17 12.5833)
(-34.9432 0 -54.6917)
(-45.4972 -3.68536e-17 -34.7451)
(-18.1753 -1.2726e-16 -17.4592)
(6.87238 -1.38675e-16 0.212906)
(5.4971 -1.68243e-17 -0.247397)
(-0.0609201 0 -2.29482)
(-1.00785 -4.2774e-18 -2.01689)
(1.42807 0 -0.896553)
(3.38594 0 0.0480921)
(2.85871 0 0.0210282)
(1.47214 0 -0.166435)
(1.03118 0 0.0602323)
(1.63963 8.30641e-18 0.478943)
(2.2436 -4.99846e-18 0.591141)
(2.08216 0 0.234048)
(1.28396 1.38896e-17 -0.34641)
(0.422955 0 -0.866676)
(-0.0278441 0 -1.25138)
(0.0840557 0 -1.57771)
(0.459432 -8.01558e-18 -1.88218)
(0.373401 0 -2.10736)
(-0.469097 0 -2.14113)
(-1.12416 0 -1.84271)
(-0.554129 0 -1.21214)
(0.8842 -1.01164e-18 -0.65642)
(1.04784 0 -0.987809)
(-7.26941 0 -5.92087)
(-7.72749 1.34969e-16 1.13708)
(11.4171 0 27.0118)
(29.4033 0 53.0923)
(3.54587 -1.35855e-16 17.0113)
(-7.53854 1.41453e-17 8.43587)
(-11.487 0 6.10984)
(-12.4944 0 6.82493)
(-12.8099 0 7.69838)
(-13.8004 3.22086e-17 7.79655)
(-14.4312 0 7.01848)
(-11.682 0 5.82721)
(-4.3643 -4.29173e-16 3.12656)
(4.21638 -2.20664e-16 -4.4077)
(-1.06221 0 -26.1912)
(0.181022 0 -47.7467)
(27.3559 0 -35.3788)
(45.3919 3.3131e-17 -32.5317)
(59.6902 -3.15564e-17 -36.7418)
(69.0139 -6.64537e-17 -41.843)
(71.9167 -9.19121e-17 -42.9656)
(68.0746 -1.27185e-16 -39.3719)
(58.3148 1.00075e-16 -31.3683)
(40.9071 0 -19.7001)
(19.9272 0 -7.30948)
(1.37475 5.74575e-17 3.21886)
(-15.2917 0 11.9301)
(-23.9096 0 16.6076)
(-19.4735 0 10.6929)
(1.27012 0 -4.17383)
(17.6955 0 -12.1462)
(20.3599 -2.22062e-15 -12.5965)
(49.8159 0 -25.7375)
(1.39559 9.30115e-16 13.1838)
(-126.873 0 90.5618)
(-262.091 2.82401e-18 139.077)
(-0.891831 1.53102e-15 -51.8541)
(304.865 0 -67.4785)
(-849.451 0 507.057)
(403.079 0 -352.46)
(395.975 0 -189.234)
(-109.716 3.51916e-16 76.1446)
(126.568 0 -77.389)
(-71.7786 0 57.0752)
(-41.2724 0 19.3604)
(-33.2934 0 19.0379)
(-12.4691 0 -0.307053)
(104.573 0 -74.9603)
(235.092 0 -146.773)
(257.929 0 -148.961)
(189.72 8.08338e-17 -100.478)
(89.2987 0 -40.3831)
(-1.40211 0 9.35778)
(-48.4618 0 36.1149)
(-102.924 -1.54478e-16 67.557)
(-169.598 0 97.6235)
(-95.2562 6.75606e-17 48.7953)
(-59.4416 0 32.3329)
(-77.0948 -2.43498e-19 44.3148)
(-64.2497 0 34.492)
(-34.2232 1.65346e-17 16.5095)
(-5.05767 0 0.897924)
(10.8023 0 -8.19106)
(34.0367 0 -20.8784)
(25.8485 -2.97837e-16 -13.128)
(-5.90935 2.54602e-16 6.35962)
(-20.1756 -1.41972e-16 12.0481)
(-10.3679 -1.82125e-16 5.44715)
(-5.99553 0 3.73554)
(-6.54156 -5.56726e-18 3.76597)
(-6.04895 0 4.167)
(-5.23272 0 4.37979)
(-6.0368 -1.7015e-18 4.12618)
(-8.28646 -2.86939e-19 3.87912)
(-10.6471 -1.34937e-19 4.00619)
(-11.9259 2.25203e-18 4.55125)
(-11.7517 0 5.49557)
(-10.7739 1.99869e-18 6.48196)
(-10.32 -9.99567e-19 6.748)
(-11.135 0 5.94637)
(-12.3495 0 4.6389)
(-12.033 0 3.72667)
(-8.95767 0 3.67193)
(-4.30785 1.19238e-18 4.03348)
(-1.44096 2.75725e-18 4.03667)
(-2.74872 -5.85382e-18 3.33538)
(-6.34675 -3.72154e-19 2.67616)
(-6.83747 0 3.55106)
(-1.93672 -2.11052e-17 5.84209)
(5.45053 -1.01808e-17 6.68285)
(5.93443 0 0.398034)
(-2.49844 7.82561e-20 -10.2467)
(-2.1673 -1.31626e-17 -10.5183)
(-4.3064 1.17665e-16 -15.9534)
(-37.4742 0 -50.4948)
(-30.0756 0 -23.542)
(-2.21685 1.19899e-16 0.963685)
(10.2213 6.68588e-18 5.13355)
(5.37297 2.8581e-17 1.85987)
(-0.42025 0 -1.60494)
(-0.591389 9.99737e-18 -1.12341)
(1.7799 0 -0.307527)
(3.3427 0 0.177789)
(2.48445 7.30573e-18 -0.244325)
(1.08049 0 -0.6057)
(0.72506 1.72678e-17 -0.40845)
(1.33119 6.04312e-18 0.0159772)
(1.85348 -8.43698e-18 0.136208)
(1.64642 0 -0.175816)
(0.901148 1.38717e-18 -0.643344)
(0.153695 0 -1.00242)
(-0.19632 0 -1.23418)
(-0.0281329 0 -1.45364)
(0.370809 0 -1.70628)
(0.30462 0 -1.90842)
(-0.491627 -1.0881e-17 -1.89559)
(-1.09207 0 -1.51626)
(-0.572124 0 -0.862021)
(0.603292 -8.17927e-19 -0.415036)
(0.214218 0 -0.887482)
(-6.08094 4.22748e-17 -3.59295)
(-1.32468 -7.01295e-17 9.12517)
(17.1739 6.44903e-17 33.7316)
(17.5499 0 37.2932)
(-3.50721 1.00413e-16 12.961)
(-10.2949 5.33765e-17 8.17584)
(-13.3956 0 6.92874)
(-14.2046 0 7.9082)
(-14.5389 0 8.74725)
(-15.4699 -3.0242e-17 8.6459)
(-15.7907 0 7.6042)
(-12.5003 0 6.14788)
(-4.72937 2.00054e-16 2.8194)
(3.63648 1.48325e-16 -6.26532)
(0.729364 0 -27.7879)
(18.4329 0 -26.3034)
(35.0539 0 -37.259)
(53.4684 0 -37.5544)
(68.4986 -2.19664e-17 -42.6535)
(78.2946 6.2307e-17 -47.7783)
(80.8234 0 -48.0823)
(75.6536 0 -43.0738)
(63.6775 -9.37905e-17 -33.312)
(43.701 0 -19.6677)
(20.3505 4.33617e-17 -5.80291)
(0.0820492 5.07866e-17 5.59915)
(-17.6658 0 14.6129)
(-26.3107 0 18.4476)
(-20.1347 0 10.1541)
(3.92676 0 -6.99981)
(20.7459 0 -14.3209)
(24.0637 1.03513e-15 -15.5397)
(60.8516 0 -31.4567)
(8.21555 -1.75633e-15 20.9555)
(-156.633 0 115.981)
(-297.433 5.54234e-19 156.306)
(-53.9559 -1.83615e-17 -38.4988)
(222.861 0 -10.5599)
(-533.559 -1.15424e-15 321.268)
(468.826 0 -415.608)
(485.099 0 -221.25)
(-84.8755 -6.3566e-16 68.7218)
(139.928 0 -85.8815)
(-81.1712 0 67.7741)
(-45.5936 0 19.6961)
(-34.7604 0 19.3641)
(-2.04796 0 -8.86507)
(135.485 0 -99.4985)
(276.909 0 -174.206)
(281.673 0 -161.029)
(190.891 -7.55184e-17 -96.5909)
(78.374 0 -29.113)
(-15.3037 0 26.4234)
(-59.5874 0 44.7293)
(-115.571 1.44389e-16 77.5793)
(-184.201 1.13405e-16 105.565)
(-99.406 -6.70257e-17 48.5097)
(-61.6945 9.48611e-17 33.1113)
(-85.4668 -3.4561e-19 49.2402)
(-72.7343 8.55048e-17 38.2926)
(-38.6671 -3.05751e-17 17.6681)
(-4.69749 0 -0.326394)
(15.1606 1.23343e-16 -11.5631)
(38.577 -1.96263e-16 -23.7823)
(26.5437 0 -12.6432)
(-8.26998 -1.18087e-16 8.37412)
(-22.7555 6.61885e-17 13.6204)
(-11.5385 1.69999e-16 5.88173)
(-5.63775 0 4.12481)
(-6.12093 2.2607e-18 4.29455)
(-5.52182 0 4.64883)
(-4.96328 0 4.62883)
(-5.90505 1.60219e-18 4.18751)
(-7.80494 2.70222e-19 3.95221)
(-9.56774 1.26893e-19 4.31594)
(-10.4256 2.77761e-18 5.16949)
(-10.199 0 6.33166)
(-9.57889 3.48153e-18 7.38884)
(-9.84896 -2.44535e-18 7.55803)
(-11.5125 0 6.55467)
(-13.3448 1.94655e-18 5.12495)
(-13.3015 0 4.22315)
(-10.4672 1.29758e-19 4.07185)
(-6.29337 -2.46547e-18 4.08609)
(-3.82838 -5.37836e-18 3.80137)
(-4.78117 5.51048e-18 3.48901)
(-7.04396 4.52998e-18 4.02818)
(-6.4338 0 5.81923)
(-2.4774 1.98661e-17 7.1899)
(1.37174 0 5.5285)
(-1.26675 0 -2.48244)
(-8.37849 3.43505e-17 -12.61)
(-9.3204 -7.90477e-17 -16.9544)
(-14.1664 0 -22.7901)
(-26.2651 0 -31.5673)
(-14.4048 0 -10.3318)
(5.35892 -9.99264e-17 8.2005)
(9.79227 5.88946e-17 6.54746)
(3.82887 -7.05577e-18 2.19335)
(-1.00385 -9.36574e-19 -0.963402)
(-0.884657 -1.21243e-17 -1.37217)
(1.83647 8.73384e-18 0.130688)
(3.00334 -1.0894e-18 0.195437)
(1.87783 1.09453e-18 -0.584404)
(0.534402 0 -1.0873)
(0.306348 -1.62405e-17 -0.905465)
(0.922811 -9.34051e-18 -0.467819)
(1.37521 7.93381e-18 -0.32439)
(1.15139 0 -0.559915)
(0.498304 -8.62872e-18 -0.869773)
(-0.107949 -2.01193e-18 -1.0271)
(-0.348313 5.97763e-18 -1.07631)
(-0.12624 1.07696e-17 -1.16672)
(0.290214 0 -1.3517)
(0.237115 0 -1.52749)
(-0.525309 7.29646e-18 -1.48442)
(-1.10126 0 -1.05923)
(-0.676362 0 -0.417876)
(0.215287 -4.39953e-18 -0.0867534)
(-0.494832 -3.48443e-17 -0.57593)
(-4.83945 -3.97038e-17 -1.44886)
(1.25145 4.03753e-17 10.8332)
(12.1988 -1.41897e-16 25.8595)
(2.28482 0 16.0179)
(-7.77398 0 10.359)
(-12.7074 -1.11461e-16 7.95977)
(-15.0614 0 7.69332)
(-15.6415 0 8.90804)
(-15.9595 -1.5336e-17 9.65719)
(-16.8068 0 9.31081)
(-16.8162 0 7.98899)
(-13.0593 7.668e-17 6.25098)
(-4.99598 -1.76398e-16 2.34364)
(3.21315 -7.30811e-17 -7.9263)
(3.94416 0 -28.0027)
(27.1436 -4.83686e-16 -20.8903)
(41.3929 0 -38.8318)
(60.4906 0 -42.1346)
(75.8933 3.63092e-17 -47.9597)
(85.8258 0 -52.8031)
(87.8149 0 -52.0252)
(81.3276 0 -45.4838)
(67.5329 0 -33.925)
(45.5236 0 -18.7007)
(20.3676 -4.06056e-17 -3.76571)
(-0.987202 -1.83695e-18 8.08293)
(-18.7791 -1.2888e-16 17.6231)
(-27.3432 -3.58635e-18 19.4383)
(-19.3564 0 8.53317)
(6.98393 0 -10.262)
(22.6909 0 -15.9306)
(26.9656 0 -18.3836)
(71.2062 0 -37.3494)
(6.82521 -8.18445e-18 21.9323)
(-190.377 0 145.886)
(-327.305 -5.59982e-16 171.125)
(-118.815 -2.10027e-17 -17.8762)
(141.772 0 44.3088)
(-11.6637 1.07923e-15 16.2502)
(401.24 0 -410.32)
(563.89 1.2138e-15 -246.231)
(-46.176 1.76804e-17 58.4315)
(151.001 0 -91.8181)
(-86.6552 0 77.3916)
(-50.7336 0 19.9739)
(-33.9523 0 17.9692)
(11.4351 -6.40414e-17 -23.5489)
(168.477 0 -126.315)
(314.099 0 -199.093)
(294.441 -8.02321e-17 -165.624)
(182.616 0 -86.1634)
(62.0984 -2.61718e-17 -14.7336)
(-35.6624 2.39162e-16 35.8187)
(-68.6235 0 52.561)
(-125.459 -2.69008e-16 86.478)
(-192.383 -2.09062e-18 109.721)
(-100.252 1.27199e-16 45.9612)
(-62.6379 -8.85736e-17 33.3164)
(-91.7946 -3.17866e-17 53.2234)
(-80.9571 -7.983e-17 41.8335)
(-43.3136 1.41318e-17 18.6469)
(-4.14432 1.20779e-16 -1.91712)
(19.7459 -1.15143e-16 -15.198)
(42.2202 1.83208e-16 -26.105)
(26.4226 2.56973e-16 -11.5088)
(-10.0914 1.09293e-16 10.5948)
(-24.8703 0 14.9532)
(-12.5624 0 6.18895)
(-5.29302 0 3.91639)
(-5.79632 6.00165e-19 4.30039)
(-5.1635 0 4.8612)
(-4.78756 0 4.97463)
(-5.52504 0 4.73386)
(-6.69834 0 4.75502)
(-7.56823 3.88679e-18 5.3751)
(-7.87393 -2.46156e-18 6.31591)
(-7.63392 3.22221e-18 7.28546)
(-7.34952 -3.57083e-18 8.07618)
(-8.09596 2.29874e-18 8.12675)
(-10.3652 0 7.05732)
(-12.9639 -1.82987e-18 5.4653)
(-13.8173 0 4.30333)
(-11.9686 -1.21922e-19 3.7974)
(-8.6782 3.4919e-18 3.43516)
(-6.54119 0 2.99783)
(-6.91798 0 3.06193)
(-8.0991 -3.92979e-18 4.37873)
(-7.25882 0 6.53056)
(-4.79965 0 7.25695)
(-3.67293 -9.35621e-18 4.57304)
(-7.26367 0 -2.70427)
(-11.7089 0 -10.1264)
(-10.7331 2.4978e-17 -13.4293)
(-12.6612 0 -16.2371)
(-13.401 0 -13.3267)
(-2.79795 0 0.652264)
(8.19359 1.60504e-16 10.8564)
(7.86212 0 7.2144)
(1.58799 -8.74078e-18 1.94255)
(-1.86699 -2.77571e-18 -0.143036)
(-0.943524 6.11839e-18 -0.700718)
(2.08663 -8.20816e-18 0.788592)
(2.37771 7.37678e-19 0.138456)
(1.08283 -7.4863e-18 -0.905759)
(-0.0948996 0 -1.47869)
(-0.145447 0 -1.28151)
(0.483926 -1.25638e-17 -0.841512)
(0.866724 1.14826e-17 -0.688218)
(0.645997 0 -0.844114)
(0.112814 0 -0.979437)
(-0.342389 1.37156e-18 -0.925467)
(-0.4821 -5.61396e-18 -0.790909)
(-0.222059 -1.01135e-17 -0.751252)
(0.19709 -2.12179e-17 -0.865974)
(0.147172 0 -1.01637)
(-0.591524 4.7647e-18 -0.956194)
(-1.16687 0 -0.513088)
(-0.872212 0 0.0859811)
(-0.267172 4.12928e-18 0.298749)
(-1.13769 3.27011e-17 -0.161033)
(-4.00507 0 0.108767)
(1.22827 2.39071e-17 10.0693)
(4.87316 -8.29471e-17 15.4604)
(-4.39741 0 8.32625)
(-10.7987 0 8.3884)
(-14.7374 1.19909e-16 7.77118)
(-16.4091 0 8.39874)
(-16.7582 0 9.80431)
(-17.0489 3.00957e-17 10.4121)
(-17.809 0 9.78876)
(-17.5293 0 8.18807)
(-13.4103 -1.37336e-16 6.15768)
(-5.22527 1.65326e-16 1.74585)
(2.92932 1.77892e-17 -9.29746)
(7.42569 0 -27.229)
(30.0466 4.53175e-16 -24.5366)
(46.7373 0 -40.2774)
(66.2424 -8.05938e-17 -46.1811)
(81.7032 -1.4727e-17 -52.5458)
(91.5066 0 -56.8358)
(92.8855 0 -54.7696)
(85.2625 1.21422e-16 -46.6497)
(70.4597 9.33211e-17 -32.7468)
(46.6209 0 -16.9764)
(20.2505 0 -1.38246)
(-1.66613 -8.36292e-17 10.4968)
(-19.2572 1.20605e-16 19.4206)
(-26.8554 8.98689e-18 19.4544)
(-17.1838 0 5.88194)
(10.0976 0 -13.6697)
(23.0742 0 -16.6811)
(28.9292 0 -21.1431)
(81.8687 0 -43.0756)
(6.14082 -3.73952e-18 36.5565)
(-228.884 0 179.907)
(-352.442 0 184.235)
(-184.644 -2.35488e-17 3.7781)
(72.0206 0 72.1246)
(624.974 9.68464e-16 -354.187)
(145.339 0 -278.341)
(608.288 -1.13432e-15 -257.62)
(0.607184 1.36347e-17 45.092)
(160.514 0 -95.6439)
(-87.444 0 85.3452)
(-56.9464 0 20.315)
(-31.1319 0 14.662)
(29.2444 2.40919e-17 -41.7321)
(203.254 7.62993e-16 -154.59)
(345.368 -5.92762e-16 -220.591)
(295.747 7.49351e-17 -162.189)
(167.955 0 -70.9411)
(43.8508 2.44414e-17 1.80501)
(-52.058 -2.23339e-16 52.4523)
(-75.9599 0 58.8916)
(-131.817 1.25279e-16 93.3414)
(-194.212 -1.91602e-16 109.888)
(-98.9831 -6.0326e-17 41.8572)
(-62.9977 0 33.2541)
(-95.9945 2.88095e-17 56.1749)
(-89.2461 0 45.2802)
(-48.6553 0 19.6744)
(-3.64867 -1.12745e-16 -3.80439)
(24.3001 0 -18.9491)
(44.9462 0 -27.792)
(25.7826 -2.39855e-16 -9.86568)
(-11.355 -1.0201e-16 12.6346)
(-26.5712 5.60635e-17 15.9995)
(-13.4716 -1.44013e-16 6.38549)
(-4.82809 0 3.72411)
(-5.17121 -5.64077e-19 4.2625)
(-4.62599 -8.90374e-19 4.96612)
(-4.45889 0 5.29129)
(-4.96356 0 5.34629)
(-5.54228 0 5.58995)
(-5.75859 -3.65225e-18 6.30664)
(-5.68538 0 7.15072)
(-5.46843 -3.02698e-18 7.75375)
(-5.31372 0 8.17458)
(-5.98159 0 8.21076)
(-8.1656 2.30736e-18 7.33)
(-11.1721 0 5.70041)
(-13.1168 2.8295e-18 4.18333)
(-12.7292 -1.18812e-18 3.22831)
(-10.6674 -3.27938e-18 2.5561)
(-8.96606 0 2.05996)
(-8.89643 1.06028e-17 2.33223)