/*--------------------------------*- C++ -*----------------------------------*\
| =========                 |                                                 |
| \\      /  F ield         | OpenFOAM: The Open Source CFD Toolbox           |
|  \\    /   O peration     | Version:  2412                                  |
|   \\  /    A nd           | Website:  www.openfoam.com                      |
|    \\/     M anipulation  |                                                 |
\*---------------------------------------------------------------------------*/
FoamFile
{
    version     2.0;
    format      ascii;
    arch        "LSB;label=32;scalar=64";
    class       surfaceScalarField;
    location    "0.18";
    object      ddtCorrDdt0(phi);
}
// * * * * * * * * * * * * * * * * * * * * * * * * * * * * * * * * * * * * * //

dimensions      [0 3 -2 0 0 0 0];

oriented        oriented;

internalField   nonuniform List<scalar> 
24930
(
0.120366
0.113338
-0.203502
0.0585782
0.0658862
0.0255859
0.0320676
0.0106336
0.0149916
0.00292659
0.00732962
-0.00181578
0.00424407
-0.00460834
0.00321698
-0.00693225
0.00204749
-0.00849559
0.00145538
-0.00940049
0.0012778
-0.0102647
0.00103995
-0.0108658
0.00101245
-0.0111338
0.0009454
-0.0113572
0.000665397
-0.0115855
0.000510711
-0.0116897
0.000554027
-0.0117123
0.000509965
-0.0117892
0.000322099
-0.0119343
0.000185431
-0.0120911
0.000215388
-0.0122328
0.000305653
-0.0124099
0.000280208
-0.0126623
0.000124274
-0.0128951
-6.14999e-05
-0.0130287
-0.00014059
-0.0130934
-4.65399e-05
-0.0130934
2.80428e-06
-0.0131367
-6.41138e-05
-0.0131473
-0.000197839
-0.0131163
-0.00027056
-0.0130609
-0.000178181
-0.0129164
-0.000122671
-0.0127936
-0.000101041
-0.0125592
-0.000196666
-0.012313
-0.000297679
-0.0119369
-0.000420266
-0.0115666
-0.000439066
-0.011052
-0.000483235
-0.0104685
-0.000529118
-0.00989327
-0.000382423
-0.00910825
-0.000444264
-0.00839145
-0.000462168
-0.00762703
-0.000356847
-0.00671434
-0.0005094
-0.00589863
-0.000545658
-0.00519961
-0.000329124
-0.00436567
-0.000536435
-0.00405098
-0.000352457
-0.00369435
-0.000261898
-0.00353966
-0.000427456
-0.00378507
-0.000150304
-0.00381199
-0.000288935
-0.00404131
-0.000418816
-0.0040585
-0.000377485
-0.00368191
-0.000532727
-0.00361218
7.87429e-05
-0.00353767
0.000704621
-0.00451071
0.00160536
-0.00609639
0.00210528
-0.00795128
0.00165034
-0.00948065
0.000838617
-0.00971527
-0.000212424
-0.00922907
-0.000524019
-0.00804165
-0.00062446
-0.00675684
-0.0010716
-0.00552307
-0.00147356
-0.00470544
-0.00101587
-0.00470525
0.000236235
-0.00560485
0.0011857
-0.00853597
0.00298063
-0.010919
0.00251845
-0.0129555
0.00173869
-0.014634
0.00130205
-0.0159279
0.00150874
-0.015989
0.000496407
-0.0164332
0.00024095
-0.0165503
0.000584617
-0.0145959
-0.00168629
-0.013164
-0.00228132
-0.0116283
-0.00103358
-0.0093075
-0.00210412
-0.0103299
0.00024067
-0.01121
0.00214905
-0.0125845
0.0012454
-0.0170784
0.00376727
-0.0193753
0.00350921
-0.023287
0.00294521
-0.0272778
0.00423848
-0.0290988
0.00243114
-0.0323877
0.00268412
-0.0330426
0.00165253
-0.0342006
0.000820006
-0.0342781
0.000282985
-0.0336608
-0.000647849
-0.0333576
-0.000338769
-0.0320071
-0.00106921
-0.0318218
-0.000469786
-0.0304429
-0.000757628
-0.0304912
-7.15167e-05
-0.0295911
-0.000465462
-0.0300327
2.10319e-05
-0.0296136
6.25289e-05
-0.0296851
0.000108103
-0.029811
0.000238359
-0.0305841
0.000956299
-0.0310105
0.000597846
-0.0321275
0.000914773
-0.0327344
0.00101602
-0.0329831
5.80457e-05
-0.0344134
0.00125791
-0.0347687
0.00114409
-0.0364165
0.00134663
-0.0375779
0.00113342
-0.0393011
0.00199943
-0.0402957
0.000954866
-0.0423359
0.0020515
-0.0427052
0.000408743
-0.0437403
0.000861517
-0.0424496
-0.000943187
-0.00741385
0.197555
0.139537
-0.224025
0.149037
0.112128
0.100843
0.0796486
0.0630023
0.0524344
0.0362404
0.0335599
0.017845
0.0220273
0.00521553
0.016119
-0.00429271
0.0116717
-0.0113772
0.00867566
-0.0167079
0.00755886
-0.0211228
0.00643137
-0.0246617
0.00502281
-0.0273373
0.00424127
-0.0294764
0.00389654
-0.031267
0.00327938
-0.0326932
0.00244586
-0.0338369
0.00188654
-0.0348747
0.00170453
-0.035865
0.00160333
-0.0367771
0.00138387
-0.0375811
0.0010825
-0.0383074
0.000756276
-0.0389864
0.000459802
-0.0395173
0.000232093
-0.0398305
6.91805e-05
-0.0399914
-2.73699e-05
-0.0400046
-0.000187855
-0.0399902
-0.000416228
-0.0398666
-0.000568278
-0.0396262
-0.000595952
-0.0392955
-0.000495576
-0.0387824
-0.000517184
-0.038201
-0.000705331
-0.0373887
-0.00101208
-0.0364592
-0.00132775
-0.0352852
-0.00157051
-0.0340275
-0.0016761
-0.0325292
-0.00171876
-0.0308778
-0.00177019
-0.0291768
-0.00162963
-0.0271777
-0.00167856
-0.0252039
-0.00179693
-0.0231367
-0.00175421
-0.0208834
-0.00198335
-0.0187436
-0.00214054
-0.0167677
-0.00198058
-0.0146968
-0.00221369
-0.0132744
-0.00214126
-0.0118876
-0.00197645
-0.0108166
-0.00215291
-0.0102945
-0.00181396
-0.00967807
-0.00169214
-0.00952083
-0.00150346
-0.00951085
-0.00071937
-0.00963684
0.000176712
-0.0108212
0.00203124
-0.012745
0.00399695
-0.0163812
0.00569983
-0.0208457
0.00640071
-0.0252211
0.00528134
-0.0283726
0.00310581
-0.0289218
0.000346191
-0.0273961
-0.00194021
-0.0239983
-0.00370187
-0.0199111
-0.00519695
-0.0161915
-0.00530331
-0.0143081
-0.00289681
-0.0154975
0.00169824
-0.0198185
0.00591394
-0.0277195
0.0105725
-0.0350838
0.00957674
-0.0413961
0.00786128
-0.0463838
0.00619267
-0.0500796
0.00512903
-0.0516164
0.0029095
-0.0524846
0.00105052
-0.0513941
-0.000966468
-0.0463578
-0.00602026
-0.0411063
-0.00837656
-0.0364307
-0.00603932
-0.0327644
-0.00431647
-0.0350965
0.00145421
-0.0393871
0.00702983
-0.0460944
0.00896839
-0.0573256
0.0130731
-0.0668495
0.0145264
-0.0780731
0.0135852
-0.0888745
0.0145591
-0.0961989
0.0112969
-0.103564
0.00884908
-0.106619
0.00586302
-0.108825
0.00245073
-0.108658
0.000126839
-0.106821
-0.00241357
-0.104912
-0.00273681
-0.10189
-0.00329562
-0.10004
-0.00291687
-0.0971183
-0.0027065
-0.0960345
-0.0018506
-0.0945303
-0.00112542
-0.094722
-0.000353707
-0.0941047
-4.83665e-05
-0.094276
0.000390555
-0.0950084
0.00115764
-0.0970677
0.00288588
-0.0989812
0.00299052
-0.101619
0.0030319
-0.103608
0.00318219
-0.105173
0.00210052
-0.108624
0.00410048
-0.110921
0.00418384
-0.11561
0.00590741
-0.119225
0.00457204
-0.124499
0.00748453
-0.127717
0.00409075
-0.133604
0.00770477
-0.134882
0.00198298
-0.13854
0.00433904
-0.134126
-0.00529711
-0.0275365
0.22493
0.143558
-0.229989
0.202469
0.134549
0.167546
0.114387
0.128489
0.0905191
0.0919839
0.0699387
0.0615551
0.0527896
0.0367718
0.0398241
0.0172212
0.0309984
0.00210849
0.0249541
-0.0102174
0.0203101
-0.0204608
0.0166081
-0.0286648
0.0140516
-0.0352856
0.012216
-0.0408701
0.0102837
-0.0455618
0.00821206
-0.049382
0.00662574
-0.0525786
0.0057559
-0.0554571
0.00517572
-0.0580966
0.00446487
-0.0604539
0.00366393
-0.062506
0.00299234
-0.0642907
0.00242098
-0.0658474
0.00182531
-0.0670824
0.00121718
-0.0679355
0.000656606
-0.0685031
0.000202192
-0.0687921
-0.000206803
-0.0689304
-0.000604533
-0.0688408
-0.000854233
-0.0685155
-0.000995177
-0.067989
-0.00109667
-0.0671409
-0.00138801
-0.0660818
-0.00192864
-0.0646308
-0.00255279
-0.0629149
-0.00317328
-0.0608059
-0.00364019
-0.0584898
-0.00395346
-0.0558077
-0.00412202
-0.0528539
-0.00429368
-0.0497641
-0.00427968
-0.0462686
-0.00439882
-0.0427303
-0.00467905
-0.0390535
-0.00475367
-0.0351542
-0.0050555
-0.03139
-0.00531049
-0.0278644
-0.00517389
-0.0243129
-0.00532735
-0.0215756
-0.00527379
-0.01902
-0.00490857
-0.0169591
-0.00492042
-0.0156911
-0.00435227
-0.0145722
-0.00369014
-0.0142909
-0.0027938
-0.0146547
-0.00071889
-0.0157869
0.00197855
-0.0187714
0.00586911
-0.0231978
0.00991197
-0.0298501
0.0128181
-0.0373459
0.0136476
-0.044162
0.0112529
-0.0486714
0.00664464
-0.0491488
0.000853227
-0.0461901
-0.00478878
-0.040305
-0.00928622
-0.0333772
-0.0122036
-0.0274865
-0.0113177
-0.0251754
-0.00520613
-0.0284104
0.00521244
-0.0370323
0.0149736
-0.050475
0.0236362
-0.063337
0.0220442
-0.0742385
0.0185578
-0.0827079
0.0145444
-0.0888421
0.0111455
-0.0917045
0.00671188
-0.092608
0.00186792
-0.089854
-0.0043032
-0.0815306
-0.0136029
-0.072744
-0.0181008
-0.0657002
-0.0135156
-0.0617896
-0.00663191
-0.0666169
0.00503894
-0.0755337
0.0165203
-0.0886407
0.0232015
-0.107556
0.0298436
-0.124991
0.0335479
-0.143988
0.0319416
-0.161763
0.0317453
-0.174505
0.0256851
-0.18569
0.018672
-0.190786
0.0121491
-0.193631
0.004615
-0.19278
-0.000776818
-0.189388
-0.00578214
-0.185597
-0.00712322
-0.180672
-0.00740006
-0.176958
-0.00733456
-0.172401
-0.00625962
-0.170139
-0.00492377
-0.168014
-0.00237721
-0.167876
-0.00114903
-0.167104
-0.000320458
-0.167473
0.000839128
-0.169033
0.00287877
-0.172494
0.00616125
-0.175972
0.00695124
-0.180157
0.00661511
-0.183634
0.00680636
-0.186759
0.00571407
-0.19247
0.00911425
-0.197085
0.00956109
-0.205018
0.0136734
-0.211385
0.0107139
-0.220397
0.0166885
-0.225999
0.00957407
-0.236034
0.0174558
-0.238202
0.0044406
-0.244966
0.0108774
-0.23799
-0.0122419
-0.0592689
0.235937
0.145192
-0.236397
0.227774
0.140962
0.209749
0.132051
0.182821
0.11762
0.150287
0.101144
0.117486
0.0855877
0.0862807
0.071334
0.0583171
0.0589299
0.034408
0.0489164
0.013882
0.0409485
-0.00359963
0.0347409
-0.0182711
0.0298328
-0.0307462
0.0254194
-0.0414603
0.0211905
-0.0505038
0.0175954
-0.0580766
0.0149939
-0.0646328
0.0130808
-0.0705412
0.0113515
-0.0758597
0.00970184
-0.0805637
0.0083192
-0.0846926
0.00721591
-0.0883084
0.00609209
-0.091444
0.00476604
-0.094007
0.00341251
-0.0959513
0.00224063
-0.097409
0.00132
-0.0983981
0.000562292
-0.0990515
-0.000149084
-0.0993033
-0.000715841
-0.0991446
-0.0012248
-0.0986155
-0.00177568
-0.0975678
-0.00254696
-0.0961043
-0.00359733
-0.0940341
-0.00468572
-0.0914957
-0.00575677
-0.0883669
-0.00662459
-0.0848564
-0.00733305
-0.0808094
-0.00782664
-0.0763261
-0.00829825
-0.0715799
-0.00857345
-0.0662877
-0.00889942
-0.0608528
-0.00943105
-0.0552198
-0.00968846
-0.04932
-0.0100755
-0.0435804
-0.0103937
-0.0381752
-0.0102093
-0.0328463
-0.0101575
-0.0285458
-0.00995252
-0.0246477
-0.00918781
-0.0215106
-0.00877142
-0.0195256
-0.00766957
-0.0180646
-0.00607384
-0.0179547
-0.00395251
-0.0191166
6.67321e-05
-0.0217647
0.00536172
-0.0270822
0.0121112
-0.0344838
0.0189077
-0.0444857
0.0233254
-0.0551484
0.024042
-0.0643598
0.0195723
-0.0700066
0.0112705
-0.0701016
0.00100586
-0.0654026
-0.00934598
-0.0568535
-0.0175021
-0.0471611
-0.0219686
-0.039488
-0.0191077
-0.0374177
-0.00726203
-0.0434969
0.0115971
-0.0570898
0.0290441
-0.0767112
0.0428267
-0.0954893
0.0403819
-0.111278
0.0341583
-0.12341
0.0265507
-0.132026
0.0196506
-0.136066
0.0117765
-0.136717
0.00243251
-0.132063
-0.00958975
-0.120512
-0.0243543
-0.108702
-0.0309164
-0.100211
-0.0224835
-0.0972079
-0.00791658
-0.105774
0.0122623
-0.120528
0.0318798
-0.141114
0.0450114
-0.168607
0.0550246
-0.194592
0.0612409
-0.221739
0.0584019
-0.246601
0.055964
-0.26462
0.0454728
-0.279366
0.0319472
-0.286131
0.0201872
-0.28922
0.00696768
-0.287274
-0.00278581
-0.282
-0.0110341
-0.276053
-0.0137162
-0.268993
-0.013579
-0.263215
-0.0138742
-0.256916
-0.0114876
-0.253405
-0.00931217
-0.250603
-0.00424672
-0.25006
-0.0024031
-0.249146
-0.000705168
-0.249813
0.00158572
-0.25235
0.00558494
-0.25731
0.0109156
-0.26239
0.0125458
-0.268132
0.0117089
-0.273212
0.01204
-0.278055
0.0110804
-0.286314
0.0166216
-0.293477
0.0175389
-0.304938
0.0249559
-0.314218
0.0197487
-0.327233
0.0299068
-0.335291
0.0175069
-0.349788
0.0316472
-0.352981
0.00794251
-0.36306
0.0207118
-0.354763
-0.0205087
-0.101969
0.243136
0.146677
-0.245005
0.240368
0.144044
0.232242
0.139593
0.217199
0.132206
0.195273
0.122344
0.169052
0.111618
0.140003
0.100121
0.110298
0.088409
0.0818403
0.077514
0.0552551
0.0678755
0.0310551
0.0595119
0.00941264
0.0520505
-0.00987944
0.0450212
-0.0268987
0.0385384
-0.0416645
0.0330554
-0.0544874
0.0286193
-0.0658643
0.0248611
-0.0761193
0.02158
-0.0853119
0.0188848
-0.0935059
0.0167511
-0.100826
0.0148019
-0.107331
0.012593
-0.11301
0.0100984
-0.117772
0.00772048
-0.121601
0.0057436
-0.124668
0.00415139
-0.127008
0.00278239
-0.128753
0.00146101
-0.129852
0.000261606
-0.130297
-0.00091822
-0.130131
-0.00219167
-0.12918
-0.00368589
-0.127536
-0.00545875
-0.125004
-0.00723378
-0.121729
-0.0089879
-0.1176
-0.0105184
-0.112845
-0.0118863
-0.107319
-0.0129728
-0.101129
-0.0139878
-0.0944903
-0.0147715
-0.0871159
-0.0154941
-0.0794497
-0.0164096
-0.0714929
-0.016946
-0.0632017
-0.0174513
-0.0550835
-0.017802
-0.0474062
-0.0174858
-0.0399347
-0.0170751
-0.0337531
-0.0164904
-0.028277
-0.0150499
-0.0239286
-0.0138349
-0.0212221
-0.011761
-0.0195638
-0.00869333
-0.0199159
-0.00467749
-0.0222981
0.00206574
-0.0269647
0.0108321
-0.0351309
0.0212778
-0.0459606
0.0314368
-0.0596318
0.0375482
-0.0736119
0.0377424
-0.0851916
0.0302259
-0.091825
0.0168501
-0.0913259
0.000609277
-0.0847056
-0.0157766
-0.0734456
-0.0283872
-0.0611686
-0.0343053
-0.05216
-0.0282216
-0.0509819
-0.00840699
-0.0606063
0.0215597
-0.0799157
0.0488706
-0.105998
0.068517
-0.13112
0.0650059
-0.152012
0.0548899
-0.167991
0.0424057
-0.179177
0.0307416
-0.184345
0.0180662
-0.184621
0.00262918
-0.178066
-0.0168238
-0.163614
-0.0379406
-0.149521
-0.0460805
-0.140656
-0.0318682
-0.13979
-0.00693151
-0.153373
0.0244064
-0.175163
0.0543169
-0.204262
0.0754534
-0.241146
0.0894358
-0.276231
0.098169
-0.311824
0.0932717
-0.343832
0.0872769
-0.366963
0.0705048
-0.385012
0.0484132
-0.393097
0.029633
-0.39606
0.00913449
-0.392645
-0.00627706
-0.385184
-0.0184773
-0.376819
-0.0227821
-0.367393
-0.0220668
-0.359351
-0.0227446
-0.351185
-0.0185177
-0.34633
-0.0151209
-0.342759
-0.00682761
-0.341714
-0.00422273
-0.340637
-0.00122674
-0.341669
0.00269034
-0.345285
0.00937257
-0.351798
0.0171959
-0.358478
0.019769
-0.365747
0.0182752
-0.372501
0.0189487
-0.379153
0.0182854
-0.390186
0.02684
-0.400054
0.0282705
-0.41528
0.0399854
-0.427576
0.0317727
-0.444814
0.047354
-0.455368
0.0279229
-0.474546
0.0504912
-0.478996
0.0127152
-0.492359
0.0338059
-0.484334
-0.0285168
-0.154404
0.251443
0.148562
-0.253748
0.249094
0.146315
0.244886
0.143395
0.236823
0.139696
0.224053
0.13445
0.206785
0.128394
0.185139
0.121362
0.160367
0.113137
0.133745
0.104244
0.106324
0.0953606
0.0791523
0.0868903
0.0529283
0.0786006
0.0280779
0.0702368
0.0050534
0.0620771
-0.015876
0.0546039
-0.0348239
0.0479839
-0.0520619
0.0421852
-0.0677604
0.0373023
-0.0819927
0.0333863
-0.0949176
0.0300688
-0.1067
0.0267227
-0.117333
0.0229762
-0.126735
0.0190235
-0.134818
0.0153869
-0.141596
0.0123094
-0.147273
0.00966493
-0.15189
0.00726338
-0.155569
0.00493335
-0.158282
0.00273634
-0.160018
0.000553481
-0.160824
-0.00175236
-0.160505
-0.0042734
-0.159132
-0.00707047
-0.156512
-0.00985951
-0.15279
-0.0126389
-0.147862
-0.0151944
-0.141971
-0.0175759
-0.13499
-0.0196034
-0.127029
-0.0214823
-0.118354
-0.0230685
-0.108681
-0.0244508
-0.0984898
-0.0259502
-0.0878559
-0.0269185
-0.0767691
-0.0276216
-0.0658291
-0.0280034
-0.0554226
-0.0274804
-0.0453617
-0.0265449
-0.0368857
-0.0253064
-0.0294969
-0.0228402
-0.0237063
-0.020347
-0.020186
-0.0167213
-0.0183997
-0.011487
-0.0194364
-0.00474672
-0.0233972
0.00563115
-0.0305221
0.0188222
-0.0419946
0.033821
-0.0566653
0.0479009
-0.0743194
0.055796
-0.0918101
0.0549384
-0.10583
0.0432919
-0.113428
0.0233723
-0.112278
-0.000386966
-0.103715
-0.0240962
-0.0898457
-0.0418402
-0.0752669
-0.0489319
-0.0653912
-0.0381923
-0.0656827
-0.00805889
-0.0794251
0.0356754
-0.104812
0.0748173
-0.13774
0.101043
-0.169376
0.096109
-0.1956
0.0809814
-0.215656
0.0623424
-0.229597
0.0446138
-0.236008
0.0257071
-0.236025
0.00258678
-0.22786
-0.0257074
-0.2111
-0.0537522
-0.195646
-0.0626595
-0.187574
-0.0405007
-0.190093
-0.00241871
-0.209934
0.0427136
-0.239896
0.0849632
-0.278464
0.115491
-0.325478
0.133808
-0.370163
0.14484
-0.414471
0.136821
-0.4537
0.12576
-0.481824
0.100673
-0.50299
0.0678898
-0.512126
0.0402297
-0.51467
0.0108354
-0.509474
-0.0115497
-0.499557
-0.0283639
-0.48853
-0.0345561
-0.476504
-0.0330782
-0.46598
-0.0341551
-0.455789
-0.0274943
-0.449449
-0.0224853
-0.444974
-0.0102426
-0.443288
-0.00674371
-0.441968
-0.00195824
-0.443361
0.00415697
-0.448088
0.0142789
-0.456158
0.0250118
-0.464397
0.0285883
-0.473098
0.0262223
-0.481517
0.0275298
-0.489935
0.0272967
-0.503856
0.0398858
-0.516461
0.0417969
-0.535588
0.0589051
-0.550922
0.0468116
-0.572485
0.0691394
-0.585529
0.0408232
-0.60939
0.0739946
-0.615421
0.019092
-0.63168
0.0497811
-0.625544
-0.0346493
-0.214548
0.260647
0.150321
-0.261964
0.257679
0.148027
0.254698
0.14623
0.249326
0.144168
0.241825
0.141541
0.231423
0.138621
0.217239
0.135033
0.199704
0.130336
0.179122
0.124656
0.155924
0.118454
0.130913
0.112012
0.104748
0.105039
0.0780817
0.0972127
0.0516963
0.0887947
0.0262232
0.0803606
0.0019796
0.0723686
-0.0208738
0.065143
-0.0422345
0.0589305
-0.0620997
0.0536743
-0.0806133
0.0488506
-0.097874
0.0438421
-0.113752
0.0384366
-0.128066
0.0329277
-0.140712
0.0277941
-0.151702
0.023202
-0.161222
0.0190063
-0.169298
0.0150869
-0.176029
0.0113278
-0.181406
0.00775889
-0.185418
0.00421537
-0.188109
0.000514826
-0.189262
-0.00341831
-0.188922
-0.00764792
-0.186893
-0.0118963
-0.183305
-0.0161639
-0.178057
-0.0202186
-0.171396
-0.0240723
-0.163215
-0.0274871
-0.153629
-0.0306502
-0.142953
-0.0334358
-0.130912
-0.0358479
-0.118019
-0.0382382
-0.104431
-0.0398932
-0.0901818
-0.0409667
-0.0759714
-0.0414551
-0.0623324
-0.0407054
-0.0491527
-0.0391068
-0.0378535
-0.0369303
-0.0280795
-0.0330408
-0.0204628
-0.0286988
-0.0158766
-0.0228087
-0.0138735
-0.0145573
-0.0156629
-0.00409909
-0.0214132
0.0109624
-0.0313013
0.0296243
-0.0464253
0.0500782
-0.0652817
0.0686316
-0.0872265
0.0783721
-0.10849
0.0758871
-0.125162
0.058981
-0.1339
0.0310124
-0.132266
-0.00181877
-0.121961
-0.0341072
-0.105762
-0.0575897
-0.0892561
-0.0654823
-0.0789587
-0.0485833
-0.0811592
-0.00578129
-0.0993266
0.054251
-0.130813
0.10688
-0.170967
0.140832
-0.209088
0.133665
-0.240779
0.11256
-0.265185
0.0866399
-0.282214
0.0615953
-0.29022
0.0350525
-0.290406
0.00273985
-0.281246
-0.035624
-0.263026
-0.0709337
-0.247266
-0.0795929
-0.241181
-0.0471884
-0.248294
0.00683456
-0.275564
0.0683513
-0.314739
0.124858
-0.363652
0.166011
-0.421474
0.188814
-0.476244
0.201741
-0.529558
0.189343
-0.576173
0.171572
-0.609287
0.135983
-0.633521
0.0903251
-0.64357
0.0518451
-0.645524
0.0119021
-0.63832
-0.0188264
-0.62572
-0.0409144
-0.611794
-0.049269
-0.596932
-0.0468425
-0.583673
-0.0483582
-0.571239
-0.0386316
-0.563205
-0.0316152
-0.55763
-0.0146853
-0.555094
-0.0101778
-0.553335
-0.00309421
-0.55497
0.00586497
-0.560729
0.0202253
-0.570297
0.0343016
-0.579999
0.0389081
-0.589927
0.0353444
-0.599854
0.0376251
-0.609784
0.0378607
-0.626499
0.0556628
-0.641678
0.0579545
-0.664664
0.0816716
-0.682912
0.0647401
-0.708688
0.0951502
-0.724128
0.0561137
-0.752298
0.101781
-0.760277
0.0274402
-0.778575
0.0677824
-0.775694
-0.0375479
-0.279632
0.269448
0.151205
-0.270915
0.267053
0.150012
0.264408
0.149043
0.259859
0.147741
0.254635
0.146457
0.247887
0.145143
0.238655
0.14346
0.227133
0.141272
0.213053
0.138538
0.19611
0.135337
0.176512
0.131604
0.154509
0.12706
0.130443
0.121317
0.104899
0.11442
0.0785377
0.106828
0.0519519
0.0990932
0.025666
0.0916873
7.1612e-05
0.0849027
-0.0246378
0.0786964
-0.0484347
0.0726589
-0.0712447
0.066344
-0.092781
0.059623
-0.112741
0.0527047
-0.13094
0.0459314
-0.1473
0.0394709
-0.161903
0.0333116
-0.174708
0.0274917
-0.185771
0.0219615
-0.195085
0.0166804
-0.202626
0.0114086
-0.208417
0.00590871
-0.212218
0.000112431
-0.214028
-0.00604302
-0.213645
-0.0122919
-0.211154
-0.0186138
-0.206443
-0.0247464
-0.199744
-0.0306386
-0.190968
-0.0359981
-0.180229
-0.040986
-0.167886
-0.0454984
-0.153679
-0.0494527
-0.138133
-0.0531929
-0.121496
-0.0559444
-0.103845
-0.0577161
-0.0859845
-0.0585293
-0.0686155
-0.0576555
-0.0517329
-0.0553486
-0.0369663
-0.0520011
-0.0241666
-0.0462971
-0.0141286
-0.0394888
-0.00797888
-0.0305221
-0.00540641
-0.0182665
-0.00774402
-0.00294159
-0.0152268
0.0179962
-0.0279369
0.0432885
-0.0468531
0.0701864
-0.0701071
0.0938306
-0.0966143
0.105545
-0.12199
0.100921
-0.141709
0.0776843
-0.152024
0.040204
-0.150374
-0.00322576
-0.138815
-0.0453267
-0.120794
-0.0751413
-0.102846
-0.0834868
-0.0925287
-0.0590071
-0.0968846
-0.00133198
-0.119522
0.0773337
-0.156931
0.144909
-0.204198
0.187708
-0.248546
0.177416
-0.285762
0.149668
-0.314825
0.115613
-0.335458
0.0821887
-0.345724
0.0467625
-0.346888
0.0039002
-0.337698
-0.0456122
-0.319085
-0.0884134
-0.30414
-0.0957575
-0.301194
-0.0507873
-0.314006
0.0219335
-0.349756
0.102366
-0.399073
0.174923
-0.459139
0.227828
-0.528423
0.2551
-0.593812
0.26941
-0.656533
0.25124
-0.710884
0.225059
-0.749198
0.176647
-0.776664
0.115881
-0.787687
0.0645471
-0.78905
0.0123381
-0.77972
-0.0282164
-0.76425
-0.0563052
-0.7472
-0.067142
-0.729248
-0.0636024
-0.712939
-0.0656651
-0.697944
-0.0522415
-0.68791
-0.0428177
-0.680947
-0.0204391
-0.677249
-0.0148367
-0.674679
-0.00500602
-0.676252
0.00751078
-0.682804
0.0269731
-0.693719
0.0449155
-0.704718
0.0505649
-0.715522
0.0452909
-0.726584
0.0488628
-0.737465
0.0494207
-0.756574
0.0737694
-0.773882
0.0763025
-0.800414
0.107974
-0.821263
0.0852464
-0.850826
0.124963
-0.868467
0.0736033
-0.90007
0.132974
-0.91034
0.0381079
-0.929374
0.0865136
-0.930518
-0.0364466
-0.346308
0.278587
0.15217
-0.279702
0.276792
0.152037
0.27422
0.151465
0.270205
0.150879
0.265875
0.15038
0.260593
0.149874
0.253939
0.149287
0.24615
0.148668
0.236703
0.147841
0.225098
0.146689
0.211171
0.145183
0.194882
0.143078
0.176084
0.140009
0.154833
0.135704
0.131444
0.130319
0.106408
0.124295
0.0802866
0.118067
0.0535577
0.111889
0.0265584
0.105783
-0.000483428
0.0995535
-0.0273166
0.0929182
-0.0535374
0.0856977
-0.0787294
0.0778934
-0.102564
0.0697106
-0.124762
0.0614253
-0.145194
0.0532725
-0.163686
0.0454792
-0.180204
0.0380407
-0.194702
0.0308237
-0.207105
0.0235155
-0.217381
0.0158421
-0.225248
0.00774474
-0.230641
-0.000834135
-0.233324
-0.00964593
-0.233311
-0.018631
-0.230438
-0.0274828
-0.224894
-0.036066
-0.216591
-0.0440334
-0.205627
-0.0515123
-0.192393
-0.0584241
-0.176636
-0.0645993
-0.158868
-0.0703371
-0.139416
-0.0748014
-0.118397
-0.0778187
-0.0967034
-0.0793953
-0.0752203
-0.0787081
-0.0540746
-0.0758319
-0.0351247
-0.0712258
-0.0184946
-0.0634135
-0.00518922
-0.0535605
0.00334867
-0.040678
0.00722549
-0.0233503
0.00496134
-0.0018889
-0.00377162
0.0262525
-0.0189582
0.0594683
-0.0414584
0.0939409
-0.06907
0.123452
-0.100291
0.137466
-0.130154
0.13041
-0.153502
0.0999815
-0.166135
0.0516876
-0.165309
-0.00377336
-0.153364
-0.0568947
-0.134336
-0.0936935
-0.115594
-0.102312
-0.105637
-0.0690992
-0.112186
0.00532256
-0.138976
0.104598
-0.181749
0.188339
-0.235413
0.240959
-0.285592
0.226963
-0.328141
0.192086
-0.362126
0.149542
-0.387064
0.107075
-0.400624
0.0618589
-0.404016
0.00731279
-0.396125
-0.0543502
-0.378377
-0.104937
-0.36537
-0.110032
-0.366602
-0.0502713
-0.386057
0.0438188
-0.431184
0.145651
-0.491454
0.235957
-0.563439
0.301714
-0.644871
0.333347
-0.721544
0.34851
-0.794274
0.323116
-0.857007
0.286859
-0.901045
0.223191
-0.932202
0.145015
-0.944535
0.0786722
-0.94553
0.01237
-0.934103
-0.0396881
-0.91562
-0.0746724
-0.895217
-0.088399
-0.873894
-0.0836319
-0.854134
-0.0864775
-0.836116
-0.0687843
-0.823635
-0.0565424
-0.814869
-0.0279164
-0.809568
-0.0211673
-0.805565
-0.00831593
-0.806506
0.00852161
-0.813378
0.0340488
-0.825365
0.0565758
-0.837421
0.0633193
-0.84858
0.0555387
-0.860136
0.0606021
-0.871023
0.061033
-0.89171
0.0933885
-0.910352
0.096045
-0.939759
0.137142
-0.962687
0.107807
-0.995232
0.157773
-1.01479
0.0930154
-1.04842
0.166166
-1.06122
0.0513355
-1.07942
0.104415
-1.08459
-0.0313606
-0.410947
0.286966
0.152409
-0.28716
0.285632
0.152835
0.28377
0.15319
0.280426
0.153493
0.276667
0.153727
0.272059
0.153927
0.266664
0.154141
0.260725
0.15439
0.253741
0.154485
0.245396
0.154421
0.235638
0.154377
0.224254
0.154189
0.210831
0.153406
0.19498
0.151604
0.176626
0.148707
0.15596
0.145015
0.133288
0.140857
0.108904
0.136371
0.0830914
0.131574
0.0561254
0.126399
0.0282913
0.120642
-3.60323e-05
0.114002
-0.0284299
0.106253
-0.0564423
0.0974812
-0.0835661
0.0880819
-0.109407
0.078521
-0.133607
0.0691695
-0.155985
0.0600413
-0.176394
0.0509288
-0.194647
0.041491
-0.210604
0.0314595
-0.223909
0.020794
-0.234398
0.00944062
-0.241772
-0.0023798
-0.245926
-0.0145603
-0.246594
-0.0267411
-0.243867
-0.0386862
-0.237622
-0.0499863
-0.227912
-0.0607214
-0.215124
-0.0708345
-0.198998
-0.0800721
-0.179989
-0.0886553
-0.158477
-0.0956856
-0.134589
-0.100769
-0.109271
-0.103842
-0.0835832
-0.103955
-0.0577943
-0.100945
-0.0339938
-0.0952649
-0.0126368
-0.0852841
0.00501584
-0.0719872
0.0171377
-0.0544557
0.0235393
-0.0310207
0.0225404
-0.00211759
0.0136549
0.0346445
-0.00304984
0.0772097
-0.0283633
0.12058
-0.0598386
0.157
-0.0956325
0.173998
-0.130265
0.164635
-0.157942
0.126574
-0.173932
0.0665103
-0.175198
-0.00219407
-0.164205
-0.0674726
-0.145415
-0.112013
-0.126812
-0.121038
-0.117661
-0.0784222
-0.126284
0.0140581
-0.156569
0.135389
-0.203796
0.236255
-0.26265
0.29924
-0.317599
0.281308
-0.364842
0.239194
-0.403797
0.188489
-0.433841
0.137039
-0.452098
0.0817304
-0.459441
0.0146939
-0.45457
-0.0601333
-0.439115
-0.119085
-0.429126
-0.121342
-0.43541
-0.0447818
-0.462252
0.0732285
-0.517492
0.198936
-0.58941
0.308644
-0.674092
0.388452
-0.768463
0.424346
-0.857312
0.43993
-0.940958
0.405884
-1.01313
0.358018
-1.06385
0.276569
-1.09954
0.178567
-1.11387
0.0949041
-1.11501
0.0125107
-1.1017
-0.0530242
-1.08011
-0.0961042
-1.05612
-0.113272
-1.03111
-0.107241
-1.00739
-0.111305
-0.985698
-0.0889144
-0.970141
-0.0734234
-0.959001
-0.0376904
-0.951508
-0.0297645
-0.945148
-0.0139504
-0.944536
0.0079724
-0.950945
0.0406657
-0.963562
0.0688367
-0.976385
0.0768801
-0.987231
0.0654194
-0.998375
0.071934
-1.00791
0.0713398
-1.02887
0.113217
-1.04766
0.115996
-1.07888
0.168107
-1.10318
0.131719
-1.13754
0.19241
-1.15872
0.114051
-1.19257
0.199552
-1.20795
0.0671825
-1.22384
0.120004
-1.23226
-0.0230477
-0.470036
0.2959
0.152356
-0.297112
0.295092
0.153636
0.293547
0.154958
0.29059
0.155901
0.287295
0.15678
0.283167
0.157634
0.278427
0.158445
0.273274
0.159193
0.267377
0.159808
0.260688
0.160436
0.253349
0.161316
0.245096
0.162371
0.235496
0.163028
0.224074
0.16296
0.210591
0.162063
0.194986
0.160559
0.177253
0.158649
0.157394
0.156322
0.13549
0.153508
0.111698
0.150166
0.0861701
0.146121
0.0590859
0.140992
0.0307105
0.13439
0.00145181
0.126272
-0.0280898
0.117028
-0.0573423
0.107204
-0.0857979
0.0972122
-0.113124
0.0870619
-0.139026
0.0765183
-0.163153
0.0652715
-0.185215
0.0531001
-0.204748
0.0399821
-0.221457
0.0258544
-0.234942
0.0108921
-0.244926
-0.00475695
-0.250982
-0.0206815
-0.253029
-0.0365391
-0.250849
-0.0518476
-0.244386
-0.0666146
-0.233975
-0.080789
-0.219308
-0.0940361
-0.200727
-0.106473
-0.178605
-0.117144
-0.15303
-0.125399
-0.12493
-0.131043
-0.0954945
-0.132955
-0.0651109
-0.13066
-0.0360674
-0.124511
-0.0091797
-0.112712
0.0140089
-0.0959517
0.0312322
-0.0733525
0.0418986
-0.0430064
0.0440437
-0.00548845
0.0369076
0.0412837
0.0205018
0.0947007
-0.00600894
0.148497
-0.0400991
0.193223
-0.0797349
0.214412
-0.119066
0.203526
-0.151692
0.158091
-0.172273
0.0859202
-0.177315
0.00320448
-0.169165
-0.0751615
-0.152435
-0.128283
-0.135378
-0.138262
-0.12774
-0.0862695
-0.138314
0.0247496
-0.171225
0.168841
-0.220388
0.28614
-0.284336
0.362513
-0.34164
0.338112
-0.392187
0.289733
-0.435608
0.231934
-0.471416
0.172731
-0.496042
0.108032
-0.509535
0.0282319
-0.509825
-0.0608366
-0.498291
-0.129242
-0.492353
-0.128659
-0.504386
-0.0336377
-0.539151
0.110694
-0.605092
0.262811
-0.689284
0.393595
-0.787517
0.488903
-0.895815
0.529084
-0.998063
0.544884
-1.09394
0.500869
-1.17714
0.440107
-1.23603
0.338272
-1.27758
0.217845
-1.29502
0.114351
-1.29717
0.0136298
-1.28245
-0.0677609
-1.25773
-0.120621
-1.22991
-0.142003
-1.20088
-0.134772
-1.17259
-0.14076
-1.14634
-0.113512
-1.12686
-0.0943175
-1.1126
-0.0505188
-1.1022
-0.0413507
-1.09225
-0.0231496
-1.08875
0.00452034
-1.09352
0.0456465
-1.10611
0.0810364
-1.11942
0.0909587
-1.12923
0.0742105
-1.13887
0.0817621
-1.14533
0.0786229
-1.16478
0.131455
-1.18216
0.134592
-1.21372
0.199409
-1.23859
0.156175
-1.27335
0.227459
-1.2959
0.136466
-1.32809
0.231245
-1.3459
0.0854916
-1.3584
0.132223
-1.36892
-0.0126809
-0.520556
0.304475
0.152607
-0.306313
0.304429
0.154762
0.302835
0.156488
0.300394
0.158005
0.297643
0.15952
0.29394
0.160944
0.289609
0.162253
0.28486
0.163473
0.279541
0.164644
0.273717
0.165912
0.267535
0.167418
0.260858
0.16908
0.253274
0.170527
0.244561
0.171457
0.234515
0.171939
0.222974
0.172117
0.209735
0.172063
0.194595
0.171648
0.17746
0.170725
0.158335
0.169256
0.137195
0.167118
0.11397
0.163942
0.0886582
0.159276
0.0614483
0.152931
0.0328067
0.145135
0.00327239
0.136324
-0.0266443
0.12684
-0.0565497
0.116672
-0.0860426
0.105596
-0.11463
0.0933631
-0.141882
0.0798042
-0.167238
0.06489
-0.190272
0.0485173
-0.210459
0.0307866
-0.227329
0.0118636
-0.240241
-0.00780813
-0.248871
-0.0277963
-0.252826
-0.0475424
-0.25186
-0.0669525
-0.246172
-0.0859508
-0.235352
-0.104121
-0.219547
-0.12146
-0.199043
-0.136968
-0.173802
-0.14972
-0.144624
-0.159325
-0.112729
-0.164441
-0.0785499
-0.164202
-0.0444847
-0.158747
-0.0116823
-0.146085
0.0180526
-0.126463
0.0420007
-0.0989734
0.0590749
-0.0614403
0.0669266
-0.0145496
0.0643615
0.0433596
0.0511539
0.109042
0.0262238
0.174919
-0.00809012
0.229721
-0.0498189
0.256958
-0.0929922
0.246227
-0.130733
0.194707
-0.15705
0.111085
-0.167817
0.0143888
-0.164948
-0.0775088
-0.152815
-0.139965
-0.139431
-0.151854
-0.134579
-0.0913608
-0.147273
0.0375652
-0.181818
0.203958
-0.233078
0.338226
-0.296903
0.425692
-0.355001
0.395385
-0.406174
0.340898
-0.452462
0.278252
-0.494068
0.21418
-0.526713
0.142398
-0.548946
0.0505077
-0.557007
-0.0538656
-0.551305
-0.133514
-0.550477
-0.130926
-0.568834
-0.0162787
-0.6119
0.156591
-0.689055
0.337792
-0.786145
0.491421
-0.898959
0.604104
-1.02248
0.64886
-1.13978
0.665025
-1.24973
0.609908
-1.34614
0.53531
-1.41535
0.410445
-1.46462
0.264702
-1.48678
0.138612
-1.49125
0.0170223
-1.4759
-0.0831082