/*--------------------------------*- C++ -*----------------------------------*\
| =========                 |                                                 |
| \\      /  F ield         | OpenFOAM: The Open Source CFD Toolbox           |
|  \\    /   O peration     | Version:  2412                                  |
|   \\  /    A nd           | Website:  www.openfoam.com                      |
|    \\/     M anipulation  |                                                 |
\*---------------------------------------------------------------------------*/
FoamFile
{
    version     2.0;
    format      ascii;
    arch        "LSB;label=32;scalar=64";
    class       volScalarField;
    location    "0.68";
    object      Co;
}
// * * * * * * * * * * * * * * * * * * * * * * * * * * * * * * * * * * * * * //

dimensions      [0 0 0 0 0 0 0];

internalField   nonuniform List<scalar> 
12600
(
0.31429
0.176438
0.0999636
0.0629274
0.0449771
0.0350664
0.028672
0.0240934
0.0206203
0.0178848
0.0156701
0.0138398
0.0123023
0.0109941
0.00986887
0.00889243
0.00803869
0.0072874
0.00662258
0.00603143
0.00550356
0.00503042
0.00460494
0.00422117
0.00387411
0.00355949
0.00327367
0.00301349
0.00277624
0.00255953
0.0023613
0.00217972
0.00201318
0.00186025
0.00171967
0.00159031
0.00147117
0.00136134
0.00126001
0.00116646
0.00108003
0.00100012
0.000926192
0.000857766
0.000794393
0.000735673
0.000681235
0.000630749
0.000583904
0.000540424
0.00050005
0.00046255
0.000427705
0.000395321
0.000365213
0.000337218
0.000311176
0.000286953
0.00026441
0.000243436
0.00022391
0.00020574
0.000188821
0.000173076
0.000158413
0.00014477
0.000132064
0.000120246
0.000109242
9.90134e-05
8.94928e-05
8.0651e-05
7.24267e-05
6.47995e-05
5.7712e-05
5.11519e-05
4.50645e-05
3.9446e-05
3.42419e-05
2.94573e-05
2.5036e-05
2.09927e-05
1.72669e-05
1.38841e-05
1.07773e-05
7.98325e-06
5.42696e-06
3.15583e-06
1.85331e-06
2.5021e-06
3.99561e-06
5.34782e-06
6.48306e-06
7.51455e-06
8.35349e-06
9.13853e-06
9.73485e-06
1.0357e-05
1.07292e-05
1.12423e-05
1.17133e-05
1.18546e-05
1.21465e-05
1.4002e-05
1.31725e-05
1.08697e-05
1.9448e-05
1.82737e-05
1.28856e-05
3.20927e-05
3.46678e-05
3.25225e-05
2.42408e-06
3.40732e-05
4.3763e-05
4.09915e-05
2.09601e-05
1.3411e-05
1.67009e-05
1.65873e-05
0.477155
0.376001
0.276088
0.202336
0.153079
0.12053
0.09824
0.0821564
0.0699972
0.0604689
0.0527961
0.0464858
0.0412089
0.0367363
0.0329035
0.0295884
0.0266986
0.0241627
0.0219244
0.0199389
0.0181698
0.0165874
0.0151671
0.0138883
0.0127339
0.011689
0.0107411
0.00987951
0.00909488
0.00837912
0.00772515
0.00712678
0.00657857
0.0060757
0.00561389
0.00518934
0.00479867
0.00443884
0.00410715
0.00380115
0.00351864
0.00325764
0.00301636
0.00279317
0.00258659
0.00239529
0.00221805
0.00205376
0.0019014
0.00176006
0.00162887
0.00150708
0.00139396
0.00128888
0.00119121
0.00110043
0.00101602
0.00093752
0.000864489
0.000796559
0.000733333
0.00067451
0.000619744
0.000568788
0.000521337
0.00047719
0.000436075
0.000397835
0.000362223
0.000329118
0.000298297
0.000269668
0.000243026
0.000218312
0.00019533
0.000174048
0.000154281
0.000136025
0.000119092
0.00010351
8.90856e-05
7.58795e-05
6.36808e-05
5.25896e-05
4.23707e-05
3.31647e-05
2.47075e-05
1.71765e-05
1.02863e-05
7.19521e-06
9.46594e-06
1.38621e-05
1.75602e-05
2.09371e-05
2.36902e-05
2.62881e-05
2.82504e-05
3.03583e-05
3.15194e-05
3.34095e-05
3.49178e-05
3.51239e-05
3.66476e-05
4.30599e-05
3.97573e-05
3.18818e-05
6.57734e-05
5.72738e-05
4.12462e-05
0.000118283
9.7973e-05
0.000115858
1.23539e-05
0.000130691
0.000131674
0.00013035
7.25044e-05
5.03653e-05
5.6614e-05
5.18424e-05
0.511633
0.46793
0.396784
0.325107
0.264312
0.216346
0.179531
0.151257
0.129207
0.111668
0.0974451
0.085712
0.0758902
0.0675662
0.0604377
0.0542786
0.0489165
0.0442174
0.0400757
0.0364069
0.0331427
0.0302271
0.0276136
0.0252636
0.0231447
0.0212292
0.0194936
0.0179178
0.0164842
0.0151778
0.0139854
0.0128954
0.0118976
0.0109832
0.0101441
0.00937334
0.00866464
0.00801238
0.00741155
0.00685763
0.00634657
0.00587472
0.00543877
0.00503575
0.00466294
0.00431789
0.00399836
0.00370233
0.00342792
0.00317348
0.00293741
0.00271835
0.00251496
0.00232609
0.00215062
0.00198757
0.001836
0.00169511
0.00156405
0.00144219
0.00132878
0.0012233
0.00112511
0.00103376
0.000948702
0.000869576
0.000795887
0.000727351
0.000663522
0.000604181
0.000548922
0.000497586
0.000449796
0.000405449
0.000364189
0.000325963
0.000290428
0.000257586
0.000227091
0.000199004
0.000172961
0.00014909
0.000126993
0.000106873
8.8284e-05
7.15069e-05
5.60399e-05
4.22359e-05
2.95476e-05
1.83734e-05
1.51809e-05
2.10366e-05
2.75918e-05
3.3608e-05
3.85064e-05
4.31759e-05
4.66563e-05
5.05397e-05
5.24447e-05
5.62249e-05
5.88143e-05
5.87055e-05
6.24697e-05
7.47729e-05
6.82904e-05
5.36453e-05
0.000125486
0.000103912
7.22505e-05
0.000243253
0.00015322
0.000237735
3.31701e-05
0.000276935
0.000222371
0.000242709
0.000154942
0.000114167
0.000107226
9.07612e-05
0.503606
0.490396
0.452569
0.402279
0.349985
0.30139
0.25895
0.2231
0.193248
0.168453
0.147775
0.130404
0.115688
0.103116
0.0922926
0.0829067
0.0747153
0.0675253
0.0611819
0.0555598
0.0505564
0.0460872
0.042082
0.0384818
0.0352368
0.0323047
0.0296495
0.0272399
0.0250492
0.023054
0.021234
0.0195713
0.0180503
0.0166571
0.0153795
0.0142066
0.0131288
0.0121374
0.0112246
0.0103836
0.00960806
0.00889239
0.00823152
0.00762086
0.00705624
0.0065339
0.00605041
0.00560267
0.00518782
0.00480328
0.00444667
0.00411587
0.00380884
0.00352382
0.00325911
0.00301322
0.0027847
0.00257233
0.00237485
0.00219125
0.00202044
0.00186159
0.00171374
0.00157622
0.00144818
0.00132908
0.00121817
0.00111501
0.00101893
0.000929602
0.000846407
0.0007691
0.000697118
0.000630294
0.000568098
0.000510443
0.000456814
0.00040721
0.000361111
0.000318607
0.000279151
0.000242934
0.000209358
0.000178729
0.000150375
0.000124727
0.000101022
7.9809e-05
6.02472e-05
4.29574e-05
2.72548e-05
2.59481e-05
3.57382e-05
4.4744e-05
5.20868e-05
5.91254e-05
6.43347e-05
7.02982e-05
7.29721e-05
7.9155e-05
8.28162e-05
8.21871e-05
8.91529e-05
0.00010791
9.78355e-05
7.85257e-05
0.000194841
0.000157003
0.000101631
0.000398392
0.000199436
0.000388714
6.94389e-05
0.000461318
0.000305965
0.000374317
0.000262328
0.000200734
0.000166626
0.000133248
0.487454
0.482687
0.464538
0.434711
0.398149
0.359153
0.32081
0.285019
0.252698
0.224093
0.199058
0.177258
0.158296
0.141777
0.127347
0.114697
0.103566
0.0937339
0.0850175
0.0772633
0.0703426
0.0641471
0.0585853
0.0535793
0.0490629
0.0449791
0.0412789
0.03792
0.0348656
0.0320834
0.0295456
0.0272272
0.0251067
0.0231647
0.0213843
0.0197502
0.0182489
0.0168684
0.0155978
0.0144274
0.0133486
0.0123533
0.0114346
0.0105859
0.00980147
0.00907604
0.00840478
0.00778335
0.00720775
0.00667439
0.00617991
0.00572134
0.00529585
0.00490099
0.00453434
0.00419386
0.0038775
0.00358357
0.0033103
0.00305629
0.00282002
0.00260031
0.00239586
0.00220571
0.00202869
0.00186403
0.0017107
0.00156808
0.00143525
0.00131174
0.00119669
0.00108977
0.000990182
0.0008977
0.000811591
0.000731726
0.000657398
0.000588595
0.000524606
0.000465544
0.000410662
0.000360215
0.000313385
0.000270589
0.000230905
0.000194926
0.000161604
0.000131703
0.000104058
7.95454e-05
5.69668e-05
4.06441e-05
4.0961e-05
5.33811e-05
6.35364e-05
7.33009e-05
8.05056e-05
8.88904e-05
9.24221e-05
0.000101525
0.000106214
0.000105045
0.000116047
0.000141285
0.000127161
0.000106691
0.000270291
0.000214742
0.000125972
0.000574818
0.000253173
0.000559502
0.000123251
0.000671627
0.000373344
0.000520995
0.000389216
0.000306535
0.000233128
0.000179239
0.473293
0.467645
0.456745
0.438884
0.415176
0.387497
0.357734
0.32752
0.298081
0.270224
0.244409
0.220832
0.199508
0.180341
0.163173
0.147819
0.134093
0.121813
0.110814
0.100949
0.0920847
0.0841058
0.0769108
0.070411
0.064529
0.0591972
0.0543564
0.0499546
0.0459461
0.0422909
0.0389536
0.0359026
0.0331103
0.030552
0.0282056
0.0260514
0.024072
0.0222516
0.020576
0.0190326
0.0176098
0.0162974
0.0150859
0.013967
0.012933
0.0119768
0.0110922
0.0102733
0.00951502
0.00881248
0.00816127
0.00755746
0.00699733
0.00647759
0.00599508
0.00554709
0.00513091
0.00474428
0.0043849
0.00405088
0.00374022
0.00345139
0.00318263
0.00293268
0.00270002
0.00248359
0.00228207
0.00209462
0.00192003
0.00175765
0.0016064
0.00146578
0.00133479
0.0012131
0.00109975
0.000994571
0.000896634
0.000805907
0.00072147
0.000643457
0.000570897
0.000504111
0.000442041
0.000385219
0.00033245
0.000284502
0.000240016
0.000199988
0.000162899
0.000129911
9.94348e-05
7.26983e-05
5.49355e-05
5.8426e-05
7.18402e-05
8.47559e-05
9.42841e-05
0.000105475
0.000110022
0.000122565
0.000128221
0.000126671
0.000142372
0.000173743
0.000154907
0.000137508
0.000348425
0.000274945
0.000142637
0.000763502
0.000320737
0.000741106
0.000194786
0.000895224
0.000416532
0.000678125
0.000530585
0.00042855
0.00030528
0.000228787
0.462032
0.453729
0.443914
0.430874
0.414337
0.394743
0.372823
0.349422
0.325358
0.301329
0.277887
0.255438
0.234247
0.214469
0.196166
0.179336
0.163932
0.149876
0.137078
0.125438
0.114857
0.10524
0.0964958
0.0885421
0.0813021
0.0747067
0.0686932
0.0632054
0.0581927
0.0536098
0.049416
0.0455747
0.0420533
0.0388225
0.0358557
0.0331293
0.0306219
0.0283142
0.0261887
0.0242299
0.0224235
0.0207566
0.0192175
0.0177956
0.0164813
0.0152659
0.0141412
0.0131002
0.012136
0.0112428
0.0104148
0.00964711
0.00893496
0.00827419
0.0076608
0.0070913
0.00656229
0.00607087
0.0056141
0.00518959
0.0047948
0.00442774
0.00408622
0.00376859
0.00347294
0.00319791
0.00294181
0.00270357
0.00248166
0.00227524
0.00208294
0.00190411
0.00173749
0.00158263
0.00143836
0.0013044
0.0011796
0.00106391
0.000956174
0.000856535
0.000763778
0.000678297
0.00059876
0.00052583
0.000458007
0.000396254
0.000338863
0.00028709
0.000239024
0.000196143
0.000156427
0.000121458
8.9163e-05
7.1373e-05
7.58007e-05
9.2369e-05
0.000104623
0.000119056
0.000124852
0.000141355
0.000147925
0.000146325
0.000167193
0.000204132
0.000179611
0.00017025
0.000426023
0.00033517
0.00014976
0.00095553
0.000395011
0.000925094
0.000282025
0.00111938
0.000429001
0.000840736
0.000681651
0.000563991
0.000381921
0.000282068
0.452728
0.442358
0.431785
0.419956
0.406407
0.391096
0.374201
0.35603
0.336955
0.317361
0.297607
0.278015
0.258858
0.240351
0.222657
0.205889
0.190114
0.175363
0.161637
0.148913
0.137154
0.126311
0.116329
0.10715
0.0987172
0.0909723
0.083861
0.0773318
0.0713361
0.0658291
0.0607694
0.0561188
0.0518423
0.0479081
0.044287
0.0409525
0.0378802
0.0350481
0.0324362
0.0300261
0.0278011
0.0257461
0.0238471
0.0220915
0.0204678
0.0189653
0.0175745
0.0162866
0.0150933
0.0139875
0.0129622
0.0120114
0.0111292
0.0103105
0.00955046
0.0088447
0.00818904
0.00757992
0.00701371
0.00648745
0.00599801
0.00554291
0.00511946
0.00472559
0.00435894
0.00401784
0.00370019
0.00340464
0.00312932
0.00287316
0.00263447
0.00241244
0.00220553
0.00201314
0.00183384
0.00166726
0.00151201
0.00136798
0.00123376
0.00110952
0.000993759
0.000886949
0.00078746
0.000696094
0.000611014
0.000533394
0.000461144
0.000395808
0.000335038
0.000280665
0.000230193
0.000185603
0.000144323
0.000108475
8.74701e-05
9.48349e-05
0.000110304
0.000128474
0.000135839
0.000156823
0.000164282
0.000163121
0.000189417
0.0002313
0.00019974
0.000203739
0.000500107
0.000392842
0.000166765
0.00114244
0.000474491
0.00110384
0.000380863
0.00133175
0.000405906
0.00100367
0.000838066
0.000710348
0.000462202
0.000339371
0.444696
0.432998
0.421511
0.40965
0.397054
0.383585
0.36926
0.354172
0.338465
0.322307
0.305867
0.289316
0.272815
0.256517
0.240558
0.225054
0.210105
0.195786
0.182155
0.169248
0.157084
0.145665
0.134983
0.125017
0.115743
0.107127
0.0991359
0.0917322
0.0848792
0.0785403
0.0726796
0.067263
0.0622576
0.0576328
0.0533595
0.0494109
0.0457617
0.0423887
0.0392704
0.0363869
0.0337197
0.031252
0.0289682
0.026854
0.0248963
0.0230828
0.0214024
0.019845
0.0184011
0.017062
0.0158196
0.0146669
0.0135968
0.0126034
0.0116807
0.0108237
0.0100272
0.00928705
0.00859888
0.0079591
0.00736395
0.00681045
0.00629532
0.0058161
0.0053699
0.00495471
0.00456799
0.00420808
0.00387274
0.00356066
0.00326979
0.00299912
0.0027468
0.0025121
0.00229326
0.00208986
0.00190017
0.00172408
0.00155987
0.00140773
0.00126585
0.00113479
0.00101258
0.000900189
0.00079539
0.000699602
0.000610305
0.000529364
0.000453947
0.000386281
0.000323339
0.000267551
0.000215788
0.000170649
0.000128731
0.000106387
0.000109907
0.000132374
0.000141726
0.000167716
0.000176096
0.000176
0.000207785
0.000254057
0.000213727
0.000236376
0.000567959
0.000445385
0.000203379
0.00131652
0.000556497
0.00127068
0.00048538
0.00152081
0.00037204
0.00116176
0.000996118
0.000865441
0.000545605
0.00040109
0.437595
0.425046
0.412855
0.400691
0.388299
0.375543
0.362389
0.348869
0.335048
0.321007
0.306825
0.292579
0.278343
0.264189
0.250187
0.236405
0.222908
0.209758
0.197011
0.184715
0.172911
0.16163
0.150894
0.140714
0.131096
0.122036
0.113524
0.105545
0.0980808
0.0911099
0.0846088
0.078553
0.0729175
0.0676774
0.0628078
0.0582851
0.054086
0.0501886
0.0465719
0.0432163
0.040103
0.0372147
0.0345351
0.0320489
0.0297421
0.0276014
0.0256147
0.0237706
0.0220585
0.0204688
0.0189924
0.0176212
0.0163471
0.0151633
0.014063
0.0130403
0.0120893
0.0112051
0.0103825
0.00961741
0.00890537
0.00824288
0.00762608
0.00705205
0.00651741
0.00601973
0.00555603
0.00512432
0.00472195
0.00434734
0.00399807
0.00367293
0.0033697
0.00308751
0.00282426
0.00257943
0.00235099
0.00213877
0.00194072
0.00175705
0.00158563
0.0014271
0.00127912
0.00114282
0.00101557
0.000899052
0.000790266
0.000691438
0.0005992
0.000516216
0.000438873
0.000370104
0.00030616
0.000250187
0.00019811
0.000154037
0.000121887
0.000129173
0.000141041
0.000172574
0.000181988
0.000183699
0.000220864
0.000271144
0.000219981
0.000266203
0.000627109
0.000490338
0.000244663
0.00147102
0.000637469
0.00142004
0.000588318
0.00167631
0.000390303
0.00133108
0.00117222
0.00102745
0.00063194
0.000467699
0.431248
0.418124
0.405431
0.392965
0.380551
0.368066
0.355456
0.34272
0.329893
0.317024
0.304164
0.291358
0.278646
0.26606
0.25363
0.241379
0.229333
0.217518
0.205961
0.19469
0.183733
0.173119
0.162872
0.153014
0.143564
0.134534
0.125934
0.117767
0.110033
0.102725
0.095837
0.0893569
0.0832713
0.077565
0.0722216
0.0672238
0.0625539
0.0581943
0.0541271
0.0503352
0.0468017
0.0435105
0.0404459
0.0375931
0.0349381
0.0324676
0.0301689
0.0280305
0.026041
0.0241903
0.0224685
0.0208668
0.0193765
0.0179899
0.0166996
0.0154989
0.0143814
0.0133412
0.0123728
0.0114714
0.0106318
0.0098501
0.00912187
0.00844372
0.00781173
0.00722311
0.00667439
0.00616326
0.00568663
0.00524264
0.00482849
0.00444273
0.00408279
0.00374762
0.00343478
0.00314363
0.00287179
0.00261904
0.002383
0.00216389
0.0019592
0.00176968
0.00159258
0.00142922
0.00127651
0.00113643
0.00100546
0.000886205
0.00077472
0.000674152
0.000580245
0.000496484
0.000418442
0.000349875
0.000285957
0.000231555
0.000178864
0.000145039
0.000132071
0.000169702
0.000180367
0.000184722
0.000227034
0.00028117
0.000216907
0.000290963
0.000675271
0.000525442
0.000282519
0.00160029
0.000713336
0.00154743
0.000681678
0.00178964
0.000453327
0.00152499
0.00138022
0.00119492
0.000721328
0.00053973
0.425522
0.411998
0.398948
0.386234
0.373737
0.361355
0.349025
0.336722
0.324455
0.312252
0.30015
0.288185
0.276387
0.264782
0.253386
0.24221
0.231261
0.220541
0.210055
0.199806
0.189802
0.18005
0.170562
0.16135
0.152427
0.143806
0.135498
0.127515
0.119864
0.112551
0.105579
0.0989477
0.0926549
0.086696
0.0810642
0.0757509
0.0707461
0.0660386
0.0616165
0.0574672
0.0535778
0.0499353
0.0465267
0.043339
0.0403598
0.0375768
0.0349783
0.0325529
0.0302897
0.0281785
0.0262094
0.0243734
0.0226614
0.0210655
0.0195777
0.0181909
0.0168981
0.0156932
0.0145699
0.013523
0.0125469
0.0116371
0.0107886
0.00999782
0.00926022
0.00857265
0.00793119
0.00733322
0.00677521
0.00625505
0.00576949
0.00531692
0.00489434
0.00450055
0.00413274
0.00379016
0.00347005
0.00317217
0.00289372
0.002635
0.00239305
0.00216877
0.00195893
0.00176511
0.00158367
0.00141694
0.00126081
0.00111834
0.00098493
0.000864261
0.000751379
0.000650374
0.000556082
0.000472925
0.000395266
0.000328808
0.000264533
0.000215425
0.000157266
0.000162086
0.000169398
0.000177298
0.000224478
0.000282553
0.000202892
0.000308187
0.000710243
0.000548686
0.000312828
0.00169966
0.000779882
0.00164928
0.000757404
0.00185414
0.000519761
0.00171169
0.00159215
0.00136676
0.00081416
0.000617741
0.420326
0.406518
0.39321
0.380304
0.367715
0.355364
0.343187
0.331149
0.319238
0.307461
0.295838
0.284395
0.273157
0.262146
0.251381
0.240875
0.230631
0.22065
0.210928
0.20146
0.192238
0.183257
0.174511
0.166
0.157724
0.149683
0.141883
0.134328
0.127025
0.119978
0.113194
0.106677
0.100431
0.0944571
0.0887559
0.0833262
0.0781653
0.0732689
0.0686314
0.0642463
0.0601058
0.0562017
0.0525248
0.0490659
0.0458153
0.0427632
0.0398997
0.0372153
0.0347001
0.032345
0.0301407
0.0280787
0.0261503
0.0243476
0.0226626
0.0210884
0.0196177
0.0182441
0.0169611
0.0157633
0.0146446
0.0136004
0.0126252
0.011715
0.010865
0.0100717
0.00933081
0.00863939
0.00799352
0.00739086
0.00682777
0.00630244
0.00581146
0.00535354
0.00492541
0.00452629
0.00415299
0.00380526
0.00347989
0.00317723
0.00289388
0.00263087
0.00238449
0.00215657
0.00194291
0.00174621
0.00156172
0.001393
0.00123474
0.00109121
0.00095669
0.00083594
0.000723
0.000623011
0.000529474
0.000448981
0.000371249
0.000310996
0.00024103
0.000208603
0.000164489
0.000159325
0.000211173
0.000273445
0.000176278
0.000315268
0.000729777
0.000558304
0.000331345
0.00176522
0.00083307
0.00173926
0.000823507
0.00186522
0.000586608
0.00188761
0.00180683
0.00154216
0.00091105
0.000702277
0.415585
0.401571
0.388076
0.375024
0.362353
0.35
0.337909
0.326042
0.314374
0.302896
0.291613
0.280537
0.269684
0.259071
0.248715
0.238629
0.228824
0.219302
0.210062
0.201101
0.192411
0.18398
0.175799
0.167858
0.160148
0.152659
0.145387
0.138327
0.131477
0.124837
0.118406
0.112186
0.106181
0.100391
0.0948192
0.0894671
0.0843358
0.0794253
0.0747349
0.0702626
0.0660059
0.0619609
0.0581232
0.0544875
0.0510479
0.0477979
0.0447307
0.0418391
0.0391157
0.0365532
0.0341438
0.0318802
0.0297549
0.0277608
0.0258905
0.0241374
0.0224947
0.0209562
0.0195154
0.018167
0.0169048
0.0157242
0.0146194
0.0135863
0.0126199
0.0117164
0.0108713
0.0100815
0.00934274
0.00865245
0.00800665
0.00740341
0.00683895
0.00631185
0.00581849
0.00535801
0.00492682
0.00452469
0.00414796
0.00379708
0.00346815
0.00316241
0.0028756
0.00260983
0.00236032
0.00213017
0.00191394
0.00171574
0.00152949
0.00136011
0.00120107
0.00105783
0.000923605
0.000804291
0.000692493
0.000595727
0.000502432
0.000429061
0.000345512
0.000303922
0.000232398
0.000175695
0.000191544
0.000251679
0.000135348
0.000309553
0.000731425
0.000552722
0.000333998
0.00179349
0.000869302
0.00181638
0.000875173
0.00182034
0.000686127
0.00208407
0.00202337
0.00172053
0.00101277
0.00079383
0.411237
0.397074
0.383442
0.370282
0.357544
0.345177
0.333134
0.321378
0.30988
0.298621
0.287594
0.276799
0.266241
0.25593
0.245876
0.236092
0.226585
0.217365
0.208432
0.199788
0.191429
0.183347
0.175533
0.167977
0.160668
0.153593
0.146742
0.140104
0.13367
0.127433
0.121386
0.115525
0.109847
0.104351
0.0990337
0.0938966
0.0889396
0.0841629
0.079567
0.075152
0.0709176
0.0668632
0.0629873
0.059288
0.0557628
0.0524085
0.0492214
0.0461972
0.0433313
0.0406188
0.0380541
0.0356319
0.0333462
0.0311916
0.0291618
0.0272514
0.0254542
0.0237649
0.0221775
0.020687
0.0192877
0.017975
0.0167434
0.0155889
0.0145063
0.0134921
0.0125413
0.0116511
0.0108167
0.0100358
0.00930392
0.00861918
0.00797744
0.00737727
0.00681467
0.00628881
0.00579567
0.0053351
0.00490299
0.00449992
0.0041215
0.00376919
0.00343815
0.00313087
0.00284187
0.00257476
0.00232334
0.00209233
0.00187482
0.00167645
0.00148981
0.00132114
0.00116277
0.0010214
0.000888718
0.000773182
0.000661978
0.000573233
0.000474097
0.000421257
0.000335713
0.000269818
0.000249678
0.000248472
7.84771e-05
0.000288526
0.000712393
0.000530474
0.000317213
0.00178107
0.000885646
0.0018754
0.000909211
0.00172183
0.000853196
0.00233792
0.00224098
0.00190131
0.00112015
0.00089278
0.407232
0.392961
0.37923
0.365991
0.353201
0.340818
0.328803
0.31712
0.305742
0.294645
0.283813
0.273238
0.262918
0.252853
0.243047
0.233505
0.224235
0.215243
0.206533
0.198108
0.189966
0.182106
0.174521
0.167205
0.160148
0.15334
0.14677
0.140427
0.134299
0.128375
0.122646
0.117102
0.111735
0.106538
0.101507
0.0966358
0.091922
0.0873628
0.0829567
0.0787024
0.074599
0.0706461
0.066843
0.0631891
0.0596835
0.056325
0.0531121
0.0500429
0.047115
0.044326
0.0416724
0.0391511
0.0367581
0.0344898
0.0323416
0.0303095
0.0283887
0.026575
0.0248634
0.0232497
0.0217289
0.0202971
0.0189492
0.0176815
0.0164892
0.015369
0.014316
0.0133274
0.0123987
0.0115274
0.010709
0.00994171
0.00922113
0.00854592
0.00791176
0.00731791
0.00676001
0.00623802
0.0057474
0.00528894
0.00485773
0.00445553
0.00407691
0.00372474
0.00339289
0.00308547
0.00279552
0.00252841
0.00227638
0.00204581
0.00182842
0.00163124
0.00144571
0.00127937
0.00112299
0.000985943
0.000854256
0.000747609
0.000630644
0.000564173
0.00046258
0.00038636
0.000354282
0.000342996
0.000137875
0.000329985
0.000686045
0.000502636
0.000290271
0.00172433
0.000880116
0.00191487
0.000999041
0.00168961
0.0010643
0.00259043
0.00245872
0.00208385
0.00123401
0.000999318
0.403526
0.389179
0.375378
0.362081
0.349253
0.336858
0.32486
0.313229
0.301936
0.290958
0.280276
0.269875
0.259746
0.249885
0.240287
0.230955
0.221888
0.213091
0.204567
0.196318
0.188344
0.180645
0.173218
0.166059
0.159162
0.15252
0.146124
0.139964
0.134031
0.128314
0.122802
0.117485
0.112353
0.107397
0.102607
0.0979766
0.0934985
0.0891668
0.0849765
0.0809236
0.0770047
0.0732173
0.0695592
0.0660289
0.062625
0.0593465
0.0561922
0.0531612
0.0502521
0.0474638
0.0447945
0.0422426
0.0398059
0.0374823
0.0352689
0.0331633
0.0311621
0.0292626
0.0274608
0.025754
0.024138
0.0226098
0.0211651
0.019801
0.0185131
0.0172986
0.0161531
0.0150743
0.0140575
0.0131008
0.0121997
0.0113525
0.0105549
0.00980558
0.00910014
0.00843803
0.00781457
0.00722996
0.00667926
0.00616354
0.00567743
0.00522301
0.0047943
0.00439461
0.00401713
0.00366656
0.00333514
0.00302894
0.00273934
0.00247354
0.0022223
0.00199356
0.00177783
0.00158349
0.00140046
0.00123899
0.00108406
0.000956732
0.000819466
0.000736706
0.00061677
0.000528668
0.000481281
0.000462476
0.000220709
0.000437515
0.0007395
0.000562214
0.000358417
0.00167387
0.000953103
0.00203489
0.00108217
0.00171395
0.00135752
0.00283985
0.00267532
0.00226709
0.00135499
0.00111336
0.400085
0.385684
0.371834
0.358498
0.345645
0.333241
0.321257
0.309663
0.298434
0.287546
0.276979
0.266714
0.25674
0.247046
0.237624
0.228471
0.219584
0.210961
0.202603
0.194511
0.186684
0.179123
0.171825
0.164788
0.158008
0.15148
0.145198
0.139154
0.133341
0.127751
0.122373
0.117198
0.112218
0.107422
0.102802
0.0983474
0.0940509
0.0899043
0.0859003
0.0820323
0.0782944
0.0746816
0.0711895
0.0678144
0.0645531
0.0614032
0.0583623
0.0554288
0.052601
0.0498777
0.0472573
0.044739
0.0423211
0.0400025
0.0377813
0.0356565
0.0336255
0.0316871
0.0298384
0.0280779
0.0264022
0.0248098
0.0232969
0.0218619
0.0205008
0.0192119
0.0179912
0.0168369
0.0157448
0.0147136
0.0137389
0.0128195
0.011951
0.0111327
0.0103599
0.00963259
0.00894575
0.00829998
0.00769002
0.00711731
0.00657604
0.00606875
0.00558889
0.00514033
0.00471555
0.00431992
0.00394489
0.0035973
0.00326765
0.00296399
0.0026762
0.00241305
0.00216426
0.00193896
0.00172637
0.00153747
0.00135643
0.00120549
0.00104525
0.000943328
0.000802475
0.000700636
0.000634499
0.000606474
0.000325574
0.000562181
0.000854773
0.000685346
0.000465134
0.00171782
0.0011149
0.00216512
0.00116272
0.00172626
0.00166231
0.00308499
0.00288905
0.00244939
0.00148335
0.00123441
0.396877
0.382441
0.368559
0.355197
0.342328
0.329922
0.31795
0.306386
0.295206
0.284388
0.27391
0.263753
0.253903
0.244346
0.235072
0.226072
0.217341
0.208873
0.200666
0.192718
0.185028
0.177594
0.170415
0.163487
0.156808
0.150374
0.144181
0.138222
0.132492
0.126984
0.12169
0.116603
0.111715
0.107017
0.102501
0.0981578
0.0939801
0.0899592
0.0860872
0.0823565
0.07876
0.0752911
0.0719435
0.0687119
0.0655912
0.0625771
0.0596656
0.0568535
0.0541378
0.0515162
0.0489863
0.0465467
0.0441952
0.0419309
0.039752
0.0376576
0.0356458
0.0337159
0.0318658
0.0300947
0.0284003
0.0267816
0.025236
0.0237625
0.022358
0.0210217
0.01975
0.0185421
0.0173943
0.0163059
0.0152728
0.0142946
0.0133669
0.0124897
0.0116583
0.010873
0.0101289
0.00942706
0.00876193
0.00813548
0.00754153
0.00698316
0.00645332
0.00595647
0.0054845
0.00504346
0.00462407
0.00423397
0.00386282
0.00351956
0.00319322
0.00289344
0.00260918
0.00235033
0.0021055
0.00188633
0.00167638
0.00149886
0.00131288
0.0011888
0.00102421
0.000906515
0.000818141
0.000778533
0.000456523
0.000708005
0.000987083
0.000832005
0.000584478
0.00179182
0.00133317
0.00230508
0.00124539
0.00173018
0.00197556
0.00332465
0.00309764
0.00262835
0.00161877
0.00136148
0.393878
0.37942
0.365518
0.352142
0.339266
0.326861
0.314902
0.303365
0.292225
0.281462
0.271055
0.260984
0.251234
0.241789
0.232637
0.223768
0.215171
0.20684
0.198768
0.190953
0.18339
0.176076
0.169009
0.162185
0.155602
0.149256
0.143143
0.137259
0.131598
0.126154
0.120922
0.115896
0.111068
0.106431
0.101979
0.0977029
0.0935965
0.0896519
0.0858617
0.0822185
0.0787152
0.0753449
0.0721009
0.0689768
0.0659666
0.063065
0.0602665
0.0575668
0.0549613
0.0524465
0.0500187
0.0476754
0.0454133
0.0432309
0.0411254
0.0390958
0.0371395
0.0352561
0.0334433
0.0317005
0.0300257
0.0284185
0.0268764
0.0253993
0.0239845
0.0226319
0.0213385
0.0201043
0.0189258
0.0178031
0.0167327
0.0157146
0.014745
0.0138242
0.0129478
0.0121168
0.0113263
0.0105777
0.00986566
0.00919252
0.00855191
0.0079475
0.00737184
0.00683008
0.00631354
0.00582903
0.0053666
0.00493471
0.00452229
0.00413913
0.00377354
0.00343598
0.00311479
0.00282054
0.00254142
0.0022896
0.00204826
0.00184144
0.00162699
0.00147786
0.00128657
0.00115067
0.00103672
0.000982343
0.000617853
0.000879338
0.0011382
0.00100593
0.000721697
0.00186141
0.00157813
0.00245673
0.00133577
0.00173022
0.00229458
0.00355725
0.00329825
0.00280082
0.00176003
0.00149291
0.391063
0.376594
0.362683
0.349302
0.336426
0.324027
0.312083
0.300569
0.289464
0.278747
0.268397
0.258397
0.248729
0.239376
0.230326
0.221565
0.213084
0.204871
0.19692
0.189224
0.181777
0.174576
0.167615
0.160891
0.154401
0.148141
0.142106
0.136294
0.130698
0.125314
0.120137
0.115161
0.110381
0.10579
0.101382
0.0971501
0.0930884
0.0891902
0.0854488
0.0818576
0.0784099
0.0750994
0.0719196
0.0688643
0.0659274
0.0631033
0.0603861
0.0577708
0.055252
0.0528257
0.0504868
0.0482321
0.0460572
0.0439596
0.0419356
0.0399833
0.0380994
0.0362828
0.0345306
0.0328422
0.0312147
0.0296481
0.0281396
0.0266894
0.0252947
0.0239559
0.02267
0.0214376
0.0202556
0.0191246
0.0180412
0.0170062
0.0160159
0.0150714
0.0141684
0.0133085
0.0124868
0.0117055
0.010959
0.0102505
0.00957329
0.00893176
0.00831815
0.00773828
0.00718306
0.00666005
0.00615871
0.00568836
0.00523727
0.00481608
0.0044125
0.00403773
0.0036797
0.00334951
0.00303519
0.00274927
0.00247479
0.0022366
0.00199128
0.00181462
0.00159378
0.00143713
0.00129476
0.00122155
0.000814126
0.00108115
0.00131013
0.00121118
0.000883021
0.00193013
0.00185242
0.00262234
0.00143949
0.00173135
0.00261656
0.00378039
0.00348737
0.00296302
0.00190486
0.00162634
0.388414
0.373943
0.36003
0.346651
0.33378
0.321392
0.309464
0.297973
0.286899
0.276222
0.265921
0.255979
0.246378
0.237102
0.228136
0.219468
0.211084
0.202974
0.195128
0.187538
0.180197
0.173099
0.166238
0.159609
0.153209
0.147032
0.141075
0.135333
0.129802
0.124478
0.119354
0.114428
0.109692
0.105141
0.100771
0.0965745
0.0925465
0.088681
0.0849719
0.0814135
0.0779996
0.0747246
0.0715825
0.0685677
0.0656743
0.062897
0.0602303
0.057669
0.0552079
0.0528425
0.0505675
0.0483792
0.0462727
0.0442449
0.0422912
0.0404093
0.0385949
0.0368463
0.0351597
0.0335341
0.031966
0.0304548
0.0289972
0.0275933
0.0262398
0.0249371
0.0236821
0.0224755
0.021314
0.0201988
0.0191261
0.0180975
0.017109
0.0161625
0.0152535
0.0143843
0.01355
0.0127533
0.0119887
0.0112598
0.01056
0.00989409
0.00925422
0.00864683
0.00806249
0.00750946
0.00697678
0.00647451
0.00599043
0.00553594
0.00509829
0.00468936
0.0042968
0.0039322
0.00358351
0.0032637
0.00295558
0.0026852
0.00240737
0.00220152
0.00194888
0.00176879
0.00159616
0.00149941
0.00105159
0.00131873
0.00150534
0.00145193
0.00107493
0.00200512
0.00215697
0.00280424
0.00156069
0.00173882
0.00293785
0.00399038
0.0036607
0.00311073
0.00204986
0.00175869
0.385913
0.371447
0.35754
0.344168
0.331307
0.318932
0.307022
0.295555
0.28451
0.273868
0.263609
0.253717
0.244173
0.234961
0.226067
0.217476
0.209176
0.201154
0.1934
0.185904
0.178657
0.171652
0.164883
0.158344
0.152028
0.145932
0.140051
0.134379
0.128913
0.123647
0.118578
0.1137
0.109009
0.104499
0.100165
0.0960021
0.0920047
0.0881674
0.0844847
0.0809513
0.0775617
0.0743106
0.0711925
0.0682024
0.0653347
0.0625848
0.0599472
0.0574175
0.0549904
0.0526617
0.0504262
0.0482804
0.0462191
0.0442392
0.0423357
0.0405061
0.0387457
0.0370524
0.0354218
0.0338524
0.03234
0.0308837
0.0294797
0.0281274
0.0268231
0.0255671
0.0243555
0.0231891
0.0220641
0.0209816
0.0199379
0.0189343
0.017967
0.0170378
0.0161423
0.015283
0.0144549
0.0136613
0.0128963
0.0121642
0.0114581
0.0107834
0.010132
0.00951082
0.00891027
0.00833915
0.00778616
0.00726197
0.00675401
0.00627429
0.00580973
0.0053728
0.00495093
0.00455621
0.00417647
0.00382536
0.00348503
0.0031836
0.00287301
0.00263764
0.00235234
0.00214615
0.00194295
0.00181812
0.00134308
0.00159656
0.00172718
0.00173162
0.00130205
0.00209693
0.00249007
0.00300399
0.00170032
0.00175768
0.00325304
0.00418193
0.00381307
0.00323962
0.00219066
0.00188632
0.383546
0.369089
0.355193
0.341833
0.328986
0.316628
0.304737
0.293294
0.282276
0.271667
0.261447
0.251598
0.242103
0.232947
0.224113
0.215589
0.20736
0.199413
0.191738
0.184324
0.177161
0.170241
0.163556
0.157098
0.150863
0.144843
0.139034
0.133431
0.128028
0.122822
0.117807
0.112979
0.108333
0.103864
0.0995679
0.0954387
0.0914718
0.0876622
0.0840047
0.0804944
0.077126