/*--------------------------------*- C++ -*----------------------------------*\
| =========                 |                                                 |
| \\      /  F ield         | OpenFOAM: The Open Source CFD Toolbox           |
|  \\    /   O peration     | Version:  2412                                  |
|   \\  /    A nd           | Website:  www.openfoam.com                      |
|    \\/     M anipulation  |                                                 |
\*---------------------------------------------------------------------------*/
FoamFile
{
    version     2.0;
    format      ascii;
    arch        "LSB;label=32;scalar=64";
    class       volScalarField;
    location    "0.95";
    object      Co;
}
// * * * * * * * * * * * * * * * * * * * * * * * * * * * * * * * * * * * * * //

dimensions      [0 0 0 0 0 0 0];

internalField   nonuniform List<scalar> 
12600
(
0.314744
0.176653
0.100045
0.0629512
0.0449781
0.0350579
0.0286588
0.0240775
0.0206033
0.0178672
0.0156524
0.0138221
0.012285
0.0109771
0.00985239
0.00887647
0.00802327
0.00727253
0.00660827
0.00601767
0.00549033
0.00501771
0.00459272
0.00420944
0.00386284
0.00354867
0.00326327
0.0030035
0.00276663
0.0025503
0.00235242
0.00217116
0.00200494
0.00185231
0.00171201
0.00158292
0.00146403
0.00135444
0.00125334
0.00116
0.00107376
0.000994035
0.000920283
0.000852018
0.000788797
0.000730217
0.000675912
0.000625546
0.000578816
0.000535441
0.000495165
0.000457754
0.000422994
0.000390685
0.000360649
0.000332714
0.000306733
0.000282556
0.000260064
0.000239124
0.00021964
0.000201492
0.000184607
0.000168873
0.000154238
0.000140596
0.000127914
0.000116087
0.000105105
9.48591e-05
8.5361e-05
7.64947e-05
6.8297e-05
6.06406e-05
5.35883e-05
4.69976e-05
4.09595e-05
3.53121e-05
3.01776e-05
2.53699e-05
2.1045e-05
1.69903e-05
1.33922e-05
1.00238e-05
7.06243e-06
4.35705e-06
1.88602e-06
2.39793e-06
3.88979e-06
4.97272e-06
7.73518e-06
7.31453e-06
1.05698e-05
9.98754e-06
9.8897e-06
1.43445e-05
1.3538e-05
1.71265e-05
1.61505e-05
1.36441e-05
1.6063e-05
1.51297e-05
2.35284e-05
2.21427e-05
1.43862e-05
2.0118e-05
1.89107e-05
2.82075e-05
2.6493e-05
8.83491e-06
3.68087e-05
3.73051e-05
1.01783e-05
4.67764e-05
4.51053e-05
2.08264e-06
2.39776e-05
2.2442e-05
9.74209e-06
1.19087e-05
0.477836
0.376466
0.276369
0.202489
0.153153
0.120558
0.0982401
0.08214
0.0699705
0.0604357
0.0527589
0.0464461
0.0411679
0.0366948
0.032862
0.0295473
0.0266581
0.024123
0.0218857
0.0199012
0.0181333
0.016552
0.0151328
0.0138552
0.0127019
0.0116581
0.0107113
0.00985075
0.00906713
0.00835233
0.00769929
0.00710182
0.00655447
0.00605241
0.00559137
0.00516756
0.00477759
0.00441844
0.00408737
0.00378197
0.00350002
0.00323955
0.00299876
0.00277604
0.0025699
0.002379
0.00220215
0.00203821
0.00188618
0.00174514
0.00161425
0.00149271
0.00137984
0.00127497
0.00117751
0.0010869
0.00100267
0.000924301
0.00085142
0.000783582
0.00072048
0.000661714
0.00060705
0.000556116
0.00050875
0.000464592
0.000423553
0.000385269
0.000349727
0.000316548
0.000285798
0.000257069
0.000230513
0.000205676
0.000182805
0.000161389
0.000141776
0.000123379
0.000106664
9.09458e-05
7.68241e-05
6.35003e-05
5.17032e-05
4.05699e-05
3.07657e-05
2.18559e-05
1.32664e-05
9.86233e-06
8.29747e-06
1.29716e-05
2.17952e-05
1.87572e-05
3.32839e-05
2.95328e-05
3.23649e-05
4.25201e-05
4.31319e-05
5.93232e-05
5.27763e-05
4.81004e-05
4.59423e-05
5.0625e-05
8.38692e-05
7.77232e-05
5.55792e-05
5.99295e-05
6.78246e-05
0.000106559
9.16311e-05
2.73287e-05
0.00013192
0.000138582
4.89779e-05
0.000163787
0.000168635
1.78064e-05
8.96284e-05
7.82011e-05
3.10108e-05
3.69289e-05
0.512338
0.468514
0.397223
0.325413
0.264511
0.216465
0.179592
0.151279
0.129203
0.111645
0.0974101
0.0856683
0.0758405
0.0675126
0.0603816
0.0542212
0.0488585
0.0441594
0.0400181
0.0363502
0.033087
0.0301725
0.0275603
0.0252118
0.0230943
0.0211802
0.0194461
0.0178717
0.0164396
0.0151346
0.0139435
0.0128548
0.0118584
0.0109451
0.0101073
0.00933765
0.00863004
0.00797882
0.00737897
0.00682599
0.00631582
0.00584481
0.00540966
0.00500738
0.00463528
0.00429088
0.00397198
0.00367651
0.00340265
0.00314869
0.00291311
0.00269446
0.00249148
0.00230295
0.00212782
0.00196505
0.00181378
0.00167309
0.00154229
0.00142057
0.00130737
0.00120197
0.00110395
0.00101262
0.000927713
0.000848551
0.000774993
0.000706362
0.000642655
0.000583162
0.000528031
0.000476488
0.000428848
0.000384246
0.000343179
0.000304662
0.000269393
0.000236231
0.000206111
0.000177682
0.000152171
0.000127948
0.000106567
8.62053e-05
6.82691e-05
5.208e-05
3.56927e-05
2.5909e-05
1.29598e-05
2.03931e-05
3.57926e-05
2.61304e-05
6.05312e-05
5.05624e-05
6.1202e-05
7.12729e-05
7.85781e-05
0.00011718
0.00010037
9.63993e-05
7.26883e-05
9.61218e-05
0.000169703
0.00015737
0.000119214
9.92524e-05
0.000138903
0.000226613
0.000185632
4.37647e-05
0.000266799
0.000293756
0.000120946
0.000323028
0.000359836
5.51331e-05
0.000185656
0.000157661
5.74551e-05
6.45272e-05
0.504282
0.491006
0.453088
0.402696
0.350302
0.301619
0.259105
0.223197
0.1933
0.168472
0.147768
0.130378
0.115649
0.103067
0.0922361
0.082845
0.0746501
0.0674578
0.0611132
0.0554905
0.0504871
0.0460185
0.042014
0.0384149
0.0351711
0.0322405
0.0295867
0.0271787
0.0249896
0.022996
0.0211775
0.0195164
0.017997
0.0166053
0.0153292
0.0141577
0.0130813
0.0120912
0.0111797
0.01034
0.00956558
0.00885103
0.00819121
0.00758153
0.00701786
0.0064964
0.00601375
0.00556677
0.00515265
0.00476878
0.00441282
0.00408257
0.0037761
0.00349155
0.00322731
0.0029818
0.00275369
0.0025416
0.00234446
0.00216105
0.00199052
0.00183177
0.00168416
0.00154666
0.00141882
0.00129965
0.00118892
0.0010856
0.000989699
0.000900123
0.000817105
0.000739466
0.000667688
0.000600451
0.000538516
0.000480379
0.000427111
0.00037696
0.000331379
0.000288258
0.000249556
0.00021265
0.000180117
0.000148918
0.000121421
9.67153e-05
7.07718e-05
5.69925e-05
2.79654e-05
3.11417e-05
4.82685e-05
2.77005e-05
9.06552e-05
7.14461e-05
9.59035e-05
9.81324e-05
0.00011648
0.00018744
0.00015694
0.000157923
9.48856e-05
0.00014711
0.000274944
0.000257017
0.000204795
0.000133599
0.000225458
0.000380184
0.000305695
5.83663e-05
0.000428103
0.000492477
0.000228524
0.000506058
0.000607705
0.00012026
0.000301618
0.000258175
8.93534e-05
9.18754e-05
0.488093
0.483282
0.465076
0.43518
0.398544
0.359472
0.321058
0.285203
0.252827
0.224176
0.199104
0.177274
0.158288
0.141751
0.127307
0.114646
0.103507
0.0936685
0.0849477
0.0771903
0.0702676
0.0640709
0.0585086
0.0535026
0.0489866
0.0449036
0.0412045
0.0378468
0.0347937
0.0320131
0.0294767
0.02716
0.025041
0.0231007
0.0213219
0.0196893
0.0181896
0.0168106
0.0155415
0.0143725
0.013295
0.0123011
0.0113836
0.0105361
0.0097528
0.00902843
0.00835818
0.00773769
0.00716299
0.00663043
0.00613675
0.00567887
0.00525407
0.00485977
0.00449372
0.00415369
0.00383784
0.00354425
0.00327141
0.00301762
0.0027817
0.00256211
0.00235796
0.0021678
0.00199103
0.00182626
0.00167315
0.0015303
0.00139769
0.00127381
0.00115899
0.00105158
0.000952243
0.00085916
0.000773368
0.000692789
0.000618902
0.000549272
0.000485926
0.000425901
0.000371987
0.000320408
0.000274957
0.000231128
0.000192483
0.000157801
0.000120498
0.000102113
5.85365e-05
5.09889e-05
5.77001e-05
2.55455e-05
0.000121955
9.01807e-05
0.000135476
0.000121189
0.000153722
0.000266863
0.000220056
0.000231473
0.00012127
0.000199619
0.000393736
0.000372464
0.000311092
0.000159748
0.000321326
0.000558836
0.000447969
9.05298e-05
0.000603578
0.000724222
0.000372111
0.000696376
0.000900773
0.000217006
0.000427311
0.000376687
0.000126567
0.000115571
0.473896
0.468212
0.457272
0.439364
0.415605
0.387869
0.358048
0.327778
0.298285
0.270379
0.244521
0.220906
0.199551
0.180357
0.163167
0.147796
0.134055
0.121763
0.110756
0.100884
0.092014
0.0840311
0.0768332
0.0703315
0.0644484
0.0591161
0.0542752
0.0498737
0.0458659
0.0422116
0.0388754
0.0358257
0.0330348
0.0304778
0.0281329
0.0259803
0.0240025
0.0221836
0.0205095
0.0189675
0.0175462
0.0162352
0.0150251
0.0139075
0.0128747
0.0119197
0.0110362
0.0102184
0.00946112
0.00875949
0.00810919
0.00750617
0.00694683
0.00642774
0.00594592
0.00549844
0.00508284
0.0046966
0.00433771
0.00400393
0.00369369
0.00340497
0.00313655
0.00288657
0.0026542
0.0024376
0.00223633
0.00204855
0.0018742
0.00171134
0.00156033
0.00141906
0.00128835
0.00116584
0.00105285
0.000946679
0.000849246
0.000757355
0.000673671
0.000594269
0.000522878
0.000454409
0.000394058
0.000335598
0.000284041
0.000237685
0.000187177
0.000163245
0.000102799
9.23154e-05
7.81249e-05
2.09191e-05
0.000152592
0.000104559
0.000178603
0.00013879
0.000187233
0.000352031
0.000286989
0.000315381
0.000154995
0.000249987
0.00052037
0.000499359
0.000436011
0.000175484
0.000420827
0.00075405
0.000607849
0.000148256
0.000782357
0.000978609
0.000549925
0.000880067
0.00122735
0.000346322
0.000553244
0.000509601
0.000168132
0.000131736
0.462601
0.454268
0.44442
0.431346
0.41477
0.395135
0.373173
0.349727
0.325618
0.301545
0.278062
0.255574
0.234348
0.214538
0.196207
0.179354
0.163929
0.149857
0.137044
0.125392
0.114802
0.105177
0.096427
0.0884685
0.081225
0.0746269
0.0686116
0.0631226
0.0581093
0.0535262
0.0493325
0.0454918
0.0419712
0.0387412
0.0357756
0.0330503
0.0305442
0.0282378
0.0261138
0.0241563
0.0223513
0.0206857
0.019148
0.0177274
0.0164144
0.0152001
0.0140767
0.0130367
0.0120737
0.0111814
0.0103544
0.00958752
0.00887623
0.00821616
0.00760351
0.00703457
0.00650619
0.00601517
0.00555894
0.00513467
0.00474033
0.00437336
0.00403221
0.0037145
0.00341916
0.00314387
0.00288806
0.00264937
0.00242772
0.00222066
0.00202862
0.00184893
0.00168261
0.00152667
0.00138278
0.00124751
0.00112327
0.00100601
0.000899116
0.000797579
0.00070618
0.000618349
0.000540871
0.000465547
0.000399111
0.000339127
0.000273489
0.000242669
0.000163037
0.000150495
0.000116207
2.3501e-05
0.000180549
0.000112197
0.000223695
0.000149479
0.000213955
0.000439378
0.000354749
0.000407502
0.000190813
0.000294823
0.00064944
0.000633292
0.000576552
0.000202875
0.000518796
0.000957519
0.000780289
0.00022505
0.000955438
0.00124581
0.00075781
0.00104654
0.00157586
0.000505807
0.000671113
0.00065283
0.000212023
0.000136112
0.453266
0.442869
0.432268
0.42041
0.406831
0.391488
0.374561
0.356356
0.337247
0.317617
0.297828
0.278202
0.259011
0.240473
0.22275
0.205955
0.190156
0.175384
0.161639
0.148899
0.137126
0.126271
0.116279
0.107093
0.0986527
0.0909023
0.0837868
0.0772542
0.071256
0.0657472
0.0606862
0.0560348
0.051758
0.0478238
0.044203
0.0408689
0.0377974
0.0349662
0.0323552
0.0299462
0.0277223
0.0256684
0.0237706
0.0220162
0.0203936
0.0188923
0.0175026
0.0162157
0.0150235
0.0139186
0.0128943
0.0119443
0.011063
0.010245
0.00948568
0.00878045
0.00812545
0.0075167
0.00695106
0.006425
0.00593603
0.00548095
0.00505788
0.00466385
0.00429753
0.00395606
0.00363869
0.00334255
0.0030675
0.0028105
0.00257209
0.00234896
0.00214235
0.00194857
0.00176967
0.0016014
0.00144673
0.00130066
0.00116736
0.00104062
0.000926391
0.000816446
0.00071935
0.000624675
0.000541162
0.00046532
0.000382523
0.000343042
0.000241986
0.000226192
0.000179462
6.39794e-05
0.00022702
0.000110573
0.000268926
0.000151927
0.0002308
0.000525253
0.000420134
0.000505209
0.000227295
0.000330993
0.000776024
0.000769876
0.000728828
0.000250848
0.00061055
0.00116154
0.000960126
0.000320205
0.00111611
0.00151687
0.000989191
0.001189
0.00193513
0.000689513
0.00077426
0.000801777
0.000254954
0.000124175
0.445204
0.433483
0.421971
0.410085
0.397463
0.383969
0.369617
0.354502
0.338768
0.322583
0.306115
0.289535
0.273006
0.256681
0.240695
0.225165
0.210192
0.195851
0.182199
0.169273
0.157092
0.145658
0.134962
0.124985
0.1157
0.107076
0.0990775
0.0916679
0.0848099
0.0784669
0.0726031
0.0671839
0.0621766
0.0575504
0.0532762
0.049327
0.0456776
0.0423047
0.0391867
0.0363035
0.0336369
0.03117
0.028887
0.0267736
0.0248167
0.0230041
0.0213247
0.0197682
0.0183251
0.0169868
0.0157454
0.0145934
0.0135241
0.0125313
0.0116093
0.0107527
0.00995689
0.00921705
0.00852941
0.00788975
0.00729505
0.00674148
0.00622672
0.0057472
0.00530132
0.00488561
0.00449917
0.00413849
0.00380341
0.00349025
0.00319965
0.00292759
0.00267558
0.00243912
0.00222069
0.00201513
0.00182606
0.00164737
0.00148414
0.00132879
0.0011886
0.00105349
0.000934
0.000817209
0.000714172
0.000619947
0.000517824
0.000467466
0.000342821
0.000322188
0.000260894
0.000122063
0.0002793
0.000107203
0.00032177
0.000144819
0.000234599
0.000605987
0.000479764
0.000605414
0.000262431
0.000355605
0.000895845
0.000904797
0.000888118
0.000304292
0.000691915
0.00135936
0.00114233
0.000431107
0.00126008
0.0017839
0.00123529
0.00130445
0.00229455
0.000888245
0.000857887
0.000951258
0.000292313
9.13328e-05
0.438076
0.425505
0.413293
0.401107
0.388693
0.375914
0.362737
0.349194
0.335351
0.321287
0.307083
0.292814
0.278555
0.264379
0.250354
0.23655
0.223032
0.209861
0.197093
0.184778
0.172956
0.161659
0.150907
0.140714
0.131083
0.122011
0.113489
0.105502
0.09803
0.0910526
0.084546
0.0784856
0.0728463
0.0676029
0.0627309
0.0582061
0.0540055
0.050107
0.0464895
0.0431334
0.0400199
0.0371316
0.0344521
0.0319662
0.0296598
0.0275195
0.0255333
0.0236897
0.0219783
0.0203892
0.0189135
0.0175427
0.0162693
0.0150859
0.0139862
0.0129638
0.0120134
0.0111293
0.0103072
0.00954205
0.00883039
0.00816768
0.0075512
0.00697672
0.00644234
0.00594395
0.00548048
0.00504777
0.00464563
0.00426967
0.00392065
0.00359377
0.00329083
0.00300645
0.0027436
0.0024961
0.00226827
0.0020528
0.00185577
0.00166809
0.0014985
0.00133486
0.0011899
0.00104794
0.000922663
0.000807223
0.000683437
0.000619537
0.000469191
0.000441631
0.000363268
0.000199755
0.000368752
0.000144272
0.000393226
0.000126644
0.000221967
0.000677951
0.000530092
0.000704613
0.000293735
0.000366007
0.00100537
0.00103379
0.00104908
0.000358365
0.000759294
0.0015455
0.00132214
0.000553303
0.0013853
0.0020402
0.00148571
0.0013929
0.00264429
0.00109047
0.00091898
0.0010954
0.000318308
6.98278e-05
0.431701
0.418558
0.405847
0.393361
0.380927
0.368423
0.355793
0.343037
0.33019
0.317302
0.304422
0.291598
0.278867
0.266263
0.253814
0.241545
0.229481
0.217648
0.206074
0.194785
0.183812
0.173181
0.162919
0.153046
0.143583
0.13454
0.125929
0.117751
0.110006
0.102691
0.0957947
0.0893078
0.0832163
0.0775049
0.0721571
0.0671555
0.0624826
0.0581203
0.054051
0.0502574
0.0467226
0.0434303
0.0403649
0.0375116
0.0348562
0.0323855
0.0300868
0.0279484
0.025959
0.0241085
0.022387
0.0207854
0.0192954
0.017909
0.0166191
0.0154185
0.0143012
0.013261
0.0122929
0.0113912
0.0105519
0.00976977
0.00904175
0.00836291
0.0077311
0.00714152
0.00659296
0.00608055
0.00560409
0.00515842
0.00474446
0.00435657
0.00399687
0.00365903
0.00334655
0.00305212
0.00278088
0.00252415
0.00228915
0.00206509
0.00186234
0.0016665
0.00149272
0.00132223
0.00117173
0.00103193
0.000883947
0.000803396
0.000625253
0.000588134
0.000489972
0.000300678
0.000485472
0.000197109
0.000469832
9.51712e-05
0.000188899
0.000737531
0.000567384
0.000798978
0.000318386
0.000359764
0.00110177
0.00115255
0.00120599
0.00040992
0.000809735
0.0017158
0.00149504
0.000680736
0.00149132
0.00228039
0.00172949
0.00145611
0.00297549
0.00128381
0.00095589
0.00122758
0.000326374
0.000104116
0.42595
0.41241
0.399343
0.386612
0.374097
0.361698
0.349349
0.337028
0.324744
0.312524
0.300405
0.288423
0.27661
0.264989
0.253577
0.242386
0.231422
0.220688
0.210187
0.199924
0.189905
0.180139
0.170637
0.161411
0.152475
0.143841
0.135522
0.127528
0.119866
0.112543
0.105562
0.098922
0.0926216
0.0866558
0.0810179
0.0756991
0.0706895
0.0659779
0.0615521
0.0573996
0.0535076
0.0498628
0.0464522
0.0432629
0.0402824
0.0374983
0.0348989
0.0324727
0.030209
0.0280974
0.0261281
0.0242917
0.0225796
0.0209834
0.0194956
0.0181085
0.0168157
0.0156104
0.0144872
0.0134397
0.0124636
0.0115531
0.0107047
0.0099129
0.00917532
0.00848648
0.00784507
0.00724546
0.00668753
0.00616527
0.00567984
0.00522465
0.00480226
0.00440522
0.00403773
0.00369117
0.00337163
0.00306891
0.00279152
0.00252676
0.00228686
0.00205488
0.00184865
0.001646
0.00146701
0.00129941
0.00112449
0.00102376
0.000815699
0.000765843
0.000644981
0.000428864
0.000624109
0.000259691
0.000586268
0.000110751
0.000169283
0.000792632
0.000587665
0.000884489
0.000333381
0.000334619
0.00118278
0.00125664
0.00135299
0.000455724
0.000840983
0.00186723
0.00165659
0.000806223
0.00157852
0.00250702
0.00196245
0.00149601
0.00328042
0.0014567
0.000967685
0.0013405
0.000309736
0.000195873
0.42073
0.406907
0.393584
0.380663
0.368059
0.355691
0.343498
0.331444
0.319518
0.307725
0.296087
0.284629
0.273376
0.262352
0.251573
0.241053
0.230797
0.220804
0.21107
0.20159
0.192356
0.183363
0.174606
0.166083
0.157795
0.149744
0.141932
0.134367
0.127053
0.119996
0.113203
0.106677
0.100422
0.0944403
0.0887317
0.0832953
0.0781281
0.0732261
0.0685836
0.0641939
0.0600494
0.0561416
0.0524616
0.0489999
0.0457468
0.0426926
0.0398273
0.0371411
0.0346246
0.0322682
0.030063
0.0279999
0.0260707
0.0242671
0.0225817
0.0210067
0.0195355
0.0181611
0.0168778
0.015679
0.0145601
0.0135147
0.0125393
0.0116278
0.0107776
0.00998261
0.00924158
0.00854809
0.00790216
0.00729693
0.00673386
0.00620534
0.00571448
0.00525263
0.00482476
0.00442085
0.00404808
0.00369453
0.00337021
0.00306029
0.00277907
0.00250681
0.0022643
0.00202562
0.00181467
0.00161556
0.00141075
0.00128595
0.00104576
0.000979481
0.000832859
0.000588832
0.000788232
0.000334307
0.000738638
0.000185506
0.000198731
0.000864257
0.000596883
0.000966798
0.000335681
0.00028836
0.0012464
0.00134131
0.00148437
0.00049264
0.000851445
0.00199748
0.00180222
0.000922112
0.00164711
0.00270944
0.00216853
0.00151337
0.00355262
0.00159997
0.000953424
0.00143066
0.000283843
0.00032875
0.415967
0.401939
0.38843
0.375365
0.362681
0.350313
0.338208
0.326326
0.314643
0.303152
0.291855
0.280765
0.269899
0.259273
0.248905
0.238807
0.22899
0.219457
0.210207
0.201236
0.192535
0.184095
0.175905
0.167954
0.160234
0.152736
0.145455
0.138386
0.131527
0.124877
0.118437
0.112209
0.106195
0.100398
0.0948182
0.0894589
0.0843207
0.0794037
0.0747072
0.0702294
0.0659674
0.0619177
0.0580757
0.054436
0.0509928
0.0477396
0.0446694
0.0417752
0.0390495
0.0364848
0.0340735
0.0318081
0.0296813
0.0276856
0.0258141
0.0240596
0.0224159
0.0208759
0.0194344
0.0180845
0.0168217
0.0156394
0.014534
0.0134991
0.0125322
0.0116266
0.0107811
0.00998872
0.00924968
0.00855623
0.00791031
0.00730323
0.00673877
0.00620698
0.0057138
0.00524762
0.00481691
0.00440783
0.00403214
0.0036726
0.00334589
0.00302911
0.00274642
0.00246772
0.00222119
0.00198667
0.00174885
0.0015958
0.00132118
0.00123437
0.00105875
0.000785638
0.00098203
0.000423765
0.000913314
0.000288113
0.000239435
0.000930343
0.000615648
0.00106687
0.000322381
0.000218485
0.00129042
0.00140147
0.00159465
0.000517672
0.000839998
0.00210433
0.00192706
0.00102102
0.0016965
0.0028799
0.0023358
0.00150695
0.00378685
0.00170776
0.000911593
0.00150578
0.000274037
0.000515594
0.411598
0.397423
0.383778
0.370606
0.357855
0.345475
0.33342
0.32165
0.310139
0.298868
0.287828
0.27702
0.26645
0.256127
0.246062
0.236267
0.22675
0.217519
0.208577
0.199924
0.191555
0.183465
0.175643
0.168079
0.160762
0.15368
0.146821
0.140175
0.133734
0.127489
0.121435
0.115567
0.109882
0.104378
0.0990537
0.0939097
0.0889459
0.0841627
0.0795605
0.0751395
0.0708994
0.0668395
0.0629586
0.0592545
0.0557248
0.0523664
0.0491754
0.0461477
0.0432785
0.0405628
0.0379954
0.0355705
0.0332826
0.0311255
0.0290939
0.0271812
0.0253824
0.023691
0.0221022
0.0206096
0.0192091
0.0178942
0.0166616
0.0155047
0.0144213
0.0134043
0.0124529
0.0115594
0.0107246
0.00993978
0.00920761
0.00851827
0.0078764
0.00727066
0.00670815
0.00617553
0.00568282
0.00521403
0.00478295
0.00436964
0.00399352
0.00362818
0.00330152
0.00297884
0.0026931
0.00241925
0.00214518
0.00195959
0.00164809
0.00153639
0.00132833
0.00102488
0.00121036
0.000531568
0.00111461
0.000422408
0.000293941
0.00107388
0.000695958
0.00116056
0.000291164
0.000120152
0.00131192
0.00143161
0.00167866
0.000527881
0.000805587
0.002185
0.00202596
0.00109652
0.00172476
0.00301386
0.00245717
0.0014734
0.00397886
0.00177783
0.000839793
0.00155278
0.000249917
0.000733968
0.407572
0.393291
0.379549
0.366298
0.353496
0.341102
0.329075
0.317381
0.305991
0.294882
0.284039
0.273453
0.263121
0.253045
0.243228
0.233676
0.224397
0.215395
0.206676
0.198242
0.190092
0.182224
0.174632
0.167309
0.160245
0.153431
0.146855
0.140505
0.134371
0.128441
0.122706
0.117156
0.111783
0.10658
0.101543
0.096666
0.0919463
0.0873813
0.0829694
0.0787094
0.0746006
0.0706422
0.0668339
0.063175
0.0596646
0.0563014
0.0530842
0.0500107
0.047079
0.044286
0.041629
0.0391042
0.0367083
0.0344368
0.032286
0.0302509
0.0283279
0.0265113
0.0247977
0.0231812
0.0216588
0.020224
0.0188747
0.0176039
0.0164103
0.0152866
0.0142327
0.0132402
0.0123107
0.0114348
0.0106159
0.00984313
0.00912228
0.0084405
0.00780633
0.00720456
0.00664704
0.00611539
0.00562583
0.00515535
0.00472655
0.00430909
0.00393509
0.0035648
0.00323645
0.00291955
0.00260601
0.00238372
0.00203278
0.00189182
0.00164767
0.00131261
0.00147879
0.000700654
0.00134743
0.000592954
0.000383443
0.001242
0.000786884
0.00127728
0.000335783
6.35181e-05
0.00130664
0.00142745
0.00173303
0.000520292
0.000746623
0.00223557
0.00209361
0.00114357
0.00172848
0.00311175
0.00253232
0.00140755
0.00412511
0.00181166
0.000734171
0.00157062
0.000214866
0.000979477
0.403848
0.38949
0.375679
0.362372
0.349534
0.337128
0.32512
0.313478
0.302174
0.291186
0.280493
0.270082
0.259943
0.250071
0.240464
0.231122
0.222046
0.21324
0.204707
0.19645
0.188468
0.180762
0.173328
0.166163
0.15926
0.152612
0.14621
0.140045
0.134107
0.128385
0.122868
0.117546
0.112409
0.107448
0.102654
0.0980186
0.0935357
0.0891993
0.0850043
0.0809466
0.077023
0.0732308
0.069568
0.0660331
0.0626247
0.0593416
0.056183
0.0531476
0.0502344
0.047442
0.0447689
0.0422131
0.0397729
0.0374456
0.0352291
0.0331199
0.031116
0.0292129
0.0274088
0.0256985
0.0240803
0.0225485
0.0211019
0.0197339
0.0184444
0.0172258
0.016079
0.0149954
0.0139776
0.0130155
0.0121136
0.0112601
0.010462
0.0097051
0.00899959
0.00832826
0.00770518
0.00710934
0.00655977
0.00603007
0.00554653
0.00507439
0.00465057
0.00422978
0.00385599
0.0034929
0.00313691
0.00287425
0.00248129
0.00230701
0.00202297
0.00165517
0.00179337
0.000958128
0.00161754
0.000804729
0.000557045
0.0014361
0.000889148
0.00146039
0.000445168
0.000151978
0.0013453
0.00143336
0.00180123
0.000491978
0.000660084
0.00225066
0.00212479
0.0011588
0.00170268
0.00319036
0.00257853
0.00130313
0.0042225
0.00185997
0.000714253
0.00163241
0.000278382
0.00124622
0.400389
0.385979
0.372119
0.358774
0.345911
0.333498
0.321504
0.3099
0.298662
0.287764
0.277187
0.266913
0.25693
0.247226
0.237796
0.228634
0.219737
0.211106
0.202741
0.194641
0.186807
0.179238
0.171934
0.164891
0.158105
0.151572
0.145284
0.139236
0.133418
0.127823
0.12244
0.117262
0.112278
0.107478
0.102854
0.0983961
0.094096
0.0899457
0.0859381
0.0820664
0.0783248
0.0747083
0.0712125
0.0678336
0.0645685
0.0614147
0.0583701
0.0554327
0.0526011
0.0498739
0.04725
0.0447278
0.0423064
0.039984
0.0377596
0.0356309
0.033597
0.0316546
0.0298032
0.0280387
0.0263606
0.024764
0.023249
0.0218095
0.0204466
0.0191528
0.0179305
0.0167708
0.0156775
0.01464
0.0136645
0.0127377
0.0118688
0.0110417
0.0102689
0.00953099
0.00884463
0.00818594
0.00757728
0.00698848
0.00645005
0.00592239
0.00544773
0.0049749
0.00455387
0.00414261
0.00374174
0.00343608
0.00299868
0.0027878
0.00246012
0.00205873
0.00216059
0.0012839
0.00193156
0.00106292
0.000810468
0.00166034
0.00100666
0.00165966
0.000570009
0.000327379
0.00143456
0.00147004
0.001851
0.000457912
0.000557664
0.00222319
0.00213346
0.00115842
0.00164086
0.0032359
0.00258708
0.00115334
0.00426818
0.00190969
0.000725469
0.00170639
0.000470782
0.00152748
0.397164
0.38272
0.368828
0.355458
0.342581
0.330165
0.318185
0.306612
0.295424
0.284596
0.274109
0.263944
0.254085
0.24452
0.235237
0.22623
0.21749
0.209015
0.2008
0.192845
0.185148
0.177708
0.170522
0.163588
0.156904
0.150464
0.144266
0.138302
0.132568
0.127056
0.121758
0.116667
0.111776
0.107074
0.102555
0.0982094
0.0940288
0.0900051
0.0861304
0.082397
0.0787978
0.0753261
0.0719759
0.0687415
0.0656181
0.062601
0.0596867
0.0568716
0.054153
0.0515282
0.0489954
0.0465524
0.044198
0.0419303
0.0397485
0.0376504
0.0356359
0.0337021
0.0318495
0.0300743
0.0283775
0.0267544
0.0252066
0.0237283
0.022322
0.0209803
0.0197071
0.0184932
0.0173443
0.0162488
0.015215
0.0142285
0.0133006
0.0124135
0.0115822
0.010785
0.0100417
0.00932519
0.00866175
0.00801701
0.00742633
0.00684485
0.00632058
0.00579631
0.00532789
0.00486839
0.00442118
0.00407169
0.00358794
0.00333852
0.0029639
0.00252858
0.00258672
0.00167153
0.00229666
0.00137263
0.00111653
0.00191929
0.00114444
0.00188187
0.000716819
0.00053501
0.00159164
0.00155774
0.00194919
0.000544603
0.000590091
0.00222541
0.00215147
0.00117846
0.00153479
0.00324641
0.00256467
0.000983828
0.00429027
0.00194531
0.000727095
0.00178065
0.000706054
0.00181636
0.394149
0.379683
0.365773
0.352389
0.339505
0.327092
0.315125
0.30358
0.292432
0.281661
0.271246
0.261167
0.251409
0.241957
0.232797
0.22392
0.215316
0.206977
0.198899
0.191077
0.183507
0.176187
0.169114
0.162284
0.155696
0.149345
0.143227
0.137338
0.131673
0.126225
0.12099
0.11596
0.111129
0.106489
0.102034
0.0977552
0.0936464
0.0896995
0.0859071
0.0822619
0.0787566
0.0753843
0.0721384
0.0690124
0.0660005
0.0630968
0.0602966
0.0575947
0.0549874
0.0524703
0.0500406
0.0476948
0.0454308
0.0432456
0.0411382
0.0391055
0.0371473
0.0352605
0.0334458
0.0316993
0.0300226
0.0284111
0.0268674
0.0253855
0.0239693
0.0226112
0.0213168
0.0200761
0.0188969
0.0177668
0.0166961
0.0156691
0.0146997
0.0137681
0.0128925
0.0120483
0.0112592
0.0104944
0.00978472
0.0090912
0.00845456
0.00782443
0.00725477
0.0066828
0.00616913
0.00566422
0.00517078
0.00477929
0.00424835
0.00396046
0.00353681
0.00306784
0.00307711
0.00212509
0.00271996
0.00173845
0.00148211
0.00221774
0.00130846
0.00213421
0.000892351
0.000781754
0.00177171
0.00165825
0.00210195
0.000694787
0.000649473
0.00226591
0.00220307
0.00128332
0.00152238
0.00326634
0.00261551
0.000978611
0.00437279
0.0019742
0.000716592
0.00185947
0.000962512
0.00210636
0.391319
0.376843
0.362924
0.349536
0.336652
0.324246
0.312294
0.300773
0.289661
0.278936
0.26858
0.258572
0.248896
0.239537
0.23048
0.221712
0.213224
0.205005
0.197047
0.189344
0.181892
0.174684
0.167718
0.160989
0.154493
0.148228
0.142189
0.136372
0.130772
0.125384
0.120204
0.115225
0.110441
0.105847
0.101436
0.0972021
0.0931382
0.0892379
0.0854946
0.0819016
0.0784524
0.0751403
0.0719592
0.0689026
0.0659646
0.0631391
0.0604209
0.0578043
0.0552847
0.0528569
0.0505172
0.0482609
0.0460852
0.0439858
0.0419609
0.0400064
0.0381218
0.0363026
0.0345496
0.0328581
0.0312299
0.0296597
0.0281506
0.026696
0.0253009
0.0239568
0.0226709
0.0214323
0.0202505
0.019112
0.0180293
0.0169852
0.0159961
0.0150403
0.0141392
0.0132652
0.0124461
0.0116473
0.0109044
0.0101738
0.00950159
0.00883227
0.00822508
0.00761319
0.00705938
0.0065158
0.00597847
0.00555038
0.00497338
0.00464965
0.00417732
0.00367562
0.00363482
0.00264581
0.00320745
0.00216364
0.00191334
0.00256052
0.00150558
0.00242463
0.00110405
0.00107521
0.00197444
0.00177583
0.00226646
0.000868796
0.000731877
0.00237844
0.00232765
0.00140643
0.00160511
0.00335949
0.00267136
0.000978546
0.00443188
0.00200343
0.000694084
0.00194711
0.00123604
0.0023917
0.388656
0.374178
0.360259
0.346872
0.333994
0.3216
0.309665
0.298167
0.287086
0.276402
0.266095
0.256146
0.246539
0.237256
0.228284
0.219609
0.211219
0.203103
0.195251
0.187656
0.180309
0.173205
0.166338
0.159705
0.153299
0.147118
0.141156
0.13541
0.129875
0.124547
0.11942
0.11449
0.109751
0.105198
0.100825
0.0966259
0.0925957
0.0887282
0.0850174
0.0814573
0.078042
0.0747657
0.0716225
0.0686065
0.0657124
0.0629343
0.060267
0.057705
0.0552437
0.0528774
0.0506025
0.0484133
0.046307
0.0442781
0.0423247
0.0404415
0.0386275
0.0368773
0.0351913
0.0335635
0.031996
0.0304821
0.0290253
0.0276179
0.0262655
0.0249583
0.0237048
0.0224925
0.021333
0.0202106
0.0191403
0.0181028
0.0171173
0.0161594
0.0152541
0.0143707
0.0135408
0.012726
0.0119668
0.0112149
0.0105215
0.00982691
0.00919374
0.00855437
0.00796877
0.007398
0.00682197
0.00636699
0.00574815
0.00539407
0.0048776
0.00434442
0.00425864
0.00323015
0.00376201
0.00264904
0.00241395
0.00295204
0.0017434
0.00276179
0.00135974
0.00142296
0.00220035
0.0019157
0.0024503
0.00107321
0.000837173
0.00249278
0.00246347
0.00154661
0.00168945
0.0034545
0.0027319
0.000969996
0.00447053
0.00203923
0.000708158
0.00204742
0.00152268
0.00266741
0.386142
0.371669
0.357755
0.344377
0.331509
0.319129
0.307212
0.295739
0.284687
0.274039
0.263775
0.253876
0.244326
0.235109
0.226209
0.217612
0.209306
0.201279
0.193519
0.186017
0.178765
0.171755
0.164981
0.158437
0.152117
0.146016
0.14013
0.134454
0.128984
0.123715
0.118643
0.113762
0.109067
0.104554
0.100218
0.0960527
0.0920531
0.0882138
0.0845294
0.0809944
0.0776035
0.074351
0.071232
0.0682408
0.0653727
0.062622
0.0599842
0.0574539
0.0550269
0.0526977
0.0504628
0.0483166
0.0462561
0.0442757
0.0423734
0.0405432
0.0387842
0.0370901
0.0354612
0.0338905
0.0323803
0.0309222
0.0295205
0.0281657
0.0268643
0.0256048
0.0243966
0.0232254
0.0221044
0.0210157
0.0199766
0.018965
0.018003
0.0170632
0.0161738
0.0153008
0.0144797
0.0136684
0.0129112
0.0121566
0.0114586
0.0107563
0.0101114
0.00946141
0.00885522
0.00827349
0.00766725
0.00719918
0.0065472
0.00617066
0.00562102
0.00505712
0.00494035
0.00386734
0.0043805
0.00319137
0.00298264
0.0033954
0.00202991
0.00315436
0.00166664
0.00183107
0.00245094
0.00208368
0.00266231
0.00131412
0.000965149
0.00260927
0.00261415
0.00171248
0.00177044
0.00355519
0.00280899
0.000956911
0.00449536
0.00208614
0.000907831
0.00216367
0.00181856
0.00292906
0.383762
0.3693
0.355397
0.342031
0.329177
0.316814
0.304918
0.293468
0.282445
0.27183
0.261604
0.25175
0.242249
0.233088
0.224249
0.215719
0.207485
0.199533
0.191853
0.184434
0.177266
0.170341
0.163651
0.157189
0.150949
0.144925
0.139112
0.133505
0.128099
0.122889
0.117871
0.11304
0.108391
0.103919
0.0996201
0.0954885
0.0915195
0.0877079
0.0840487
0.0805367
0.077167
0.0739344
0.0708342
0.0678611
0.0650107
0.0622777