/*--------------------------------*- C++ -*----------------------------------*\
| =========                 |                                                 |
| \\      /  F ield         | OpenFOAM: The Open Source CFD Toolbox           |
|  \\    /   O peration     | Version:  2412                                  |
|   \\  /    A nd           | Website:  www.openfoam.com                      |
|    \\/     M anipulation  |                                                 |
\*---------------------------------------------------------------------------*/
FoamFile
{
    version     2.0;
    format      ascii;
    arch        "LSB;label=32;scalar=64";
    class       volScalarField;
    location    "1.64";
    object      p;
}
// * * * * * * * * * * * * * * * * * * * * * * * * * * * * * * * * * * * * * //

dimensions      [0 2 -2 0 0 0 0];

internalField   nonuniform List<scalar> 
12600
(
0.152052
-154.497
-204.544
-201.271
-188.77
-177.15
-166.96
-157.844
-149.583
-142.015
-135.012
-128.477
-122.336
-116.533
-111.02
-105.76
-100.722
-95.8792
-91.2105
-86.6968
-82.3221
-78.0724
-73.9356
-69.9011
-65.9595
-62.1025
-58.3227
-54.6133
-50.9685
-47.3827
-43.8511
-40.3692
-36.9328
-33.5381
-30.1815
-26.8599
-23.5701
-20.3093
-17.0747
-13.8639
-10.6745
-7.50413
-4.35087
-1.2126
1.91243
5.02619
8.13017
11.2263
14.3158
17.4007
20.4818
23.5614
26.6398
29.7196
32.8007
35.8858
38.9745
42.07
45.1706
48.2805
51.3968
54.5246
57.6592
60.8074
63.9617
67.1313
70.3052
73.4956
76.6869
79.8959
83.1008
86.3242
89.5367
92.7687
95.9802
99.2121
102.411
105.63
108.799
111.989
115.107
118.247
121.289
124.355
127.292
130.258
133.061
135.899
138.538
141.221
143.672
146.189
148.385
150.84
152.554
155.196
156.359
158.704
160.638
160.113
166.429
161.197
169.337
164.258
171.705
169.372
166.213
188.533
150.23
196.283
175.22
158.491
229.482
123.694
228.481
231.386
144.932
254.39
218.591
213.907
-23.9237
-123.584
-171.008
-180.604
-177.351
-170.573
-162.791
-154.994
-147.538
-140.5
-133.865
-127.596
-121.653
-116
-110.603
-105.433
-100.467
-95.682
-91.0595
-86.5833
-82.2392
-78.0146
-73.8985
-69.8811
-65.9536
-62.1083
-58.3381
-54.6367
-50.9985
-47.4181
-43.891
-40.4127
-36.9792
-33.5868
-30.2321
-26.9119
-23.6231
-20.363
-17.129
-13.9184
-10.7291
-7.55866
-4.40518
-1.26658
1.85887
4.97313
8.07768
11.1744
14.2646
17.3502
20.4321
23.5123
26.5915
29.672
32.7539
35.8399
38.9293
42.0256
45.127
48.2376
51.3546
54.4832
57.6185
60.7674
63.9225
67.0928
70.2675
73.4585
76.6506
79.8603
83.0659
86.2901
89.5033
92.736
95.9482
99.1808
102.38
105.6
108.77
111.961
115.08
118.22
121.263
124.33
127.268
130.235
133.038
135.878
138.518
141.201
143.653
146.171
148.368
150.825
152.538
155.182
156.348
158.687
160.636
160.092
166.424
161.193
169.324
164.255
171.684
169.398
166.146
188.58
150.229
196.184
175.357
158.321
229.55
123.763
228.134
231.631
144.913
254.126
218.717
213.949
-40.7252
-102.149
-144.92
-162.356
-165.651
-162.99
-157.82
-151.643
-145.188
-138.791
-132.588
-126.623
-120.9
-115.412
-110.14
-105.068
-100.178
-95.4531
-90.8791
-86.442
-82.1297
-77.9311
-73.8364
-69.8365
-65.9235
-62.0902
-58.3299
-54.6368
-51.0054
-47.4307
-43.9083
-40.4338
-37.0034
-33.6136
-30.2609
-26.9423
-23.6548
-20.3957
-17.1623
-13.9522
-10.7632
-7.59288
-4.43941
-1.30071
1.82495
4.93948
8.04438
11.1415
14.2321
17.3182
20.4006
23.4814
26.5611
29.6422
32.7246
35.8111
38.9012
41.9979
45.0999
48.2111
51.3287
54.4578
57.5937
60.7431
63.8987
67.0696
70.2447
73.4363
76.6289
79.8391
83.0452
86.2699
89.4836
92.7168
95.9296
99.1627
102.362
105.583
108.753
111.945
115.064
118.205
121.249
124.316
127.255
130.222
133.026
135.866
138.507
141.191
143.644
146.162
148.359
150.818
152.53
155.175
156.342
158.679
160.635
160.081
166.422
161.188
169.317
164.252
171.674
169.412
166.113
188.6
150.223
196.131
175.431
158.24
229.596
123.801
227.963
231.746
144.883
253.983
218.787
213.976
-48.6363
-88.4082
-123.814
-144.315
-152.502
-153.773
-151.443
-147.206
-142.04
-136.504
-130.888
-125.333
-119.907
-114.636
-109.528
-104.583
-99.7911
-95.1446
-90.633
-86.2463
-81.975
-77.8099
-73.7427
-69.7657
-65.8717
-62.0541
-58.307
-54.6249
-51.0027
-47.4357
-43.9197
-40.4506
-37.0247
-33.6386
-30.289
-26.9729
-23.6875
-20.43
-17.198
-13.989
-10.8007
-7.63099
-4.47792
-1.33945
1.7861
4.90064
8.00564
11.103
14.1939
17.2802
20.3629
23.4441
26.5243
29.6058
32.6887
35.7758
38.8663
41.9636
45.0661
48.1778
51.2959
54.4256
57.5619
60.7119
63.8681
67.0395
70.2151
73.4073
76.6004
79.8111
83.0178
86.2431
89.4573
92.6911
95.9044
99.1381
102.338
105.56
108.73
111.922
115.043
118.184
121.229
124.297
127.236
130.204
133.009
135.85
138.491
141.176
143.629
146.149
148.346
150.806
152.518
155.164
156.333
158.665
160.633
160.063
166.419
161.183
169.307
164.248
171.659
169.43
166.061
188.645
150.21
196.061
175.534
158.099
229.666
123.821
227.693
231.966
144.835
253.773
218.899
214.003
-53.6722
-80.147
-107.047
-126.7
-137.788
-142.521
-143.133
-141.156
-137.633
-133.262
-128.468
-123.501
-118.5
-113.542
-108.669
-103.902
-99.2487
-94.7103
-90.2846
-85.9667
-81.7509
-77.6312
-73.6012
-69.6548
-65.7862
-61.9898
-58.2604
-54.593
-50.9832
-47.4266
-43.9193
-40.4575
-37.0377
-33.6567
-30.3114
-26.9989
-23.7164
-20.4614
-17.2313
-14.0239
-10.8369
-7.66814
-4.5158
-1.37785
1.74735
4.86169
7.96662
11.064
14.155
17.2416
20.3246
23.4062
26.4867
29.5687
32.6521
35.7396
38.8306
41.9284
45.0315
48.1438
51.2624
54.3926
57.5296
60.6801
63.8368
67.0088
70.185
73.3778
76.5715
79.7828
82.9901
86.2159
89.4308
92.6652
95.8791
99.1134
102.314
105.536
108.708
111.9
115.021
118.164
121.209
124.277
127.218
130.187
132.992
135.833
138.476
141.161
143.615
146.136
148.333
150.795
152.506
155.154
156.325
158.654
160.631
160.047
166.417
161.177
169.297
164.244
171.646
169.446
166.012
188.683
150.192
195.994
175.632
157.971
229.742
123.821
227.441
232.168
144.768
253.557
219.009
214.029
-56.9441
-75.0828
-94.6832
-111.548
-123.366
-130.263
-133.289
-133.506
-131.798
-128.835
-125.1
-120.92
-116.505
-111.987
-107.447
-102.934
-98.477
-94.092
-89.7872
-85.5657
-81.4273
-77.3703
-73.3914
-69.4871
-65.6531
-61.8854
-58.18
-54.5326
-50.9395
-47.397
-43.9015
-40.4497
-37.0383
-33.6644
-30.325
-27.0175
-23.7392
-20.4876
-17.2604
-14.0553
-10.8703
-7.70312
-4.55203
-1.41507
1.70939
4.8232
7.92776
11.0249
14.1158
17.2024
20.2856
23.3673
26.4482
29.5304
32.6142
35.7021
38.7936
41.8919
44.9954
48.1082
51.2273
54.3581
57.4955
60.6466
63.8039
66.9764
70.1532
73.3466
76.5409
79.7528
82.9606
86.1871
89.4025
92.6376
95.8521
99.0871
102.289
105.511
108.683
111.877
114.998
118.142
121.187
124.257
127.198
130.167
132.973
135.816
138.459
141.145
143.6
146.121
148.319
150.783
152.493
155.143
156.315
158.641
160.629
160.028
166.416
161.171
169.286
164.239
171.632
169.461
165.959
188.735
150.165
195.926
175.731
157.822
229.837
123.79
227.156
232.416
144.681
253.305
219.129
214.051
-58.5502
-71.5585
-85.8804
-99.5664
-110.633
-118.32
-122.851
-124.791
-124.738
-123.221
-120.677
-117.443
-113.768
-109.824
-105.73
-101.565
-97.3801
-93.2096
-89.0748
-84.9889
-80.9596
-76.9907
-73.0835
-69.2377
-65.452
-61.7243
-58.0519
-54.4321
-50.8621
-47.3389
-43.8597
-40.4216
-37.0218
-33.6576
-30.3264
-27.0258
-23.7534
-20.5067
-17.2836
-14.082
-10.8998
-7.73504
-4.58589
-1.4505
1.6727
4.78552
7.88932
10.9859
14.0765
17.1628
20.2459
23.3276
26.4086
29.491
32.575
35.6632
38.7551
41.8538
44.9577
48.071
51.1906
54.3218
57.4598
60.6115
63.7693
66.9424
70.1197
73.3137
76.5086
79.7211
82.9295
86.1567
89.3727
92.6085
95.8237
99.0594
102.262
105.485
108.658
111.852
114.974
118.118
121.165
124.235
127.177
130.147
132.954
135.798
138.441
141.129
143.584
146.107
148.305
150.771
152.48
155.132
156.305
158.628
160.626
160.009
166.415
161.163
169.275
164.233
171.619
169.475
165.904
188.788
150.129
195.857
175.829
157.663
229.95
123.721
226.846
232.683
144.571
253.006
219.247
214.067
-58.9957
-68.7574
-79.4759
-90.3196
-99.958
-107.488
-112.687
-115.737
-116.959
-116.708
-115.315
-113.075
-110.229
-106.963
-103.417
-99.6929
-95.8621
-91.9761
-88.0705
-84.1698
-80.2906
-76.4438
-72.6364
-68.8726
-65.1542
-61.4822
-57.856
-54.2747
-50.7368
-47.2406
-43.784
-40.3648
-36.9811
-33.6304
-30.3107
-27.0198
-23.7555
-20.5157
-17.2985
-14.1017
-10.9237
-7.76232
-4.61604
-1.48303
1.63822
4.74946
7.85199
10.9476
14.0374
17.1232
20.2058
23.2873
26.3682
29.4506
32.5347
35.6231
38.7152
41.8142
44.9185
48.0322
51.1522
54.2839
57.4224
60.5745
63.7329
66.9065
70.0845
73.279
76.4745
79.6876
82.8967
86.1245
89.3412
92.5777
95.7936
99.03
102.233
105.457
108.631
111.826
114.949
118.094
121.141
124.212
127.155
130.126
132.934
135.778
138.423
141.111
143.567
146.091
148.289
150.757
152.465
155.121
156.294
158.615
160.624
159.987
166.415
161.154
169.263
164.227
171.607
169.486
165.845
188.851
150.081
195.786
175.923
157.487
230.083
123.609
226.501
232.981
144.436
252.643
219.358
214.076
-58.7277
-66.2903
-74.5247
-83.0803
-91.1641
-98.0332
-103.307
-106.925
-108.999
-109.72
-109.312
-107.995
-105.974
-103.423
-100.485
-97.2688
-93.8607
-90.3243
-86.7071
-83.0442
-79.3611
-75.6763
-72.0028
-68.3498
-64.7235
-61.128
-57.5656
-54.0376
-50.5443
-47.0855
-43.6603
-40.2676
-36.9062
-33.5744
-30.2706
-26.9932
-23.7403
-20.5103
-17.3012
-14.1114
-10.9392
-7.78278
-4.64065
-1.5111
1.60726
4.7161
7.81666
10.9107
13.9992
17.084
20.1658
23.2468
26.3272
29.4094
32.4934
35.5818
38.674
41.7732
44.8777
47.9917
51.1121
54.2442
57.3831
60.5358
63.6946
66.8688
70.0473
73.2424
76.4385
79.6523
82.862
86.0905
89.3079
92.5451
95.7617
98.9989
102.203
105.428
108.602
111.798
114.922
118.068
121.116
124.188
127.132
130.104
132.913
135.758
138.404
141.093
143.55
146.075
148.273
150.743
152.45
155.109
156.282
158.601
160.62
159.965
166.416
161.145
169.25
164.219
171.596
169.495
165.783
188.922
150.02
195.713
176.01
157.292
230.243
123.444
226.113
233.303
144.271
252.199
219.454
214.073
-57.9879
-63.9627
-70.4303
-77.2308
-83.9032
-89.919
-94.9044
-98.6866
-101.242
-102.637
-102.994
-102.461
-101.189
-99.3257
-96.9994
-94.319
-91.3727
-88.231
-84.949
-81.5697
-78.1257
-74.6423
-71.1383
-67.6279
-64.1216
-60.627
-57.1497
-53.6933
-50.2604
-46.8526
-43.4705
-40.1143
-36.7837
-33.478
-30.1964
-26.9378
-23.7008
-20.4843
-17.2867
-14.1067
-10.9427
-7.79331
-4.65709
-1.53253
1.58162
4.68695
7.78458
10.8762
13.9627
17.0458
20.1264
23.2064
26.286
29.3677
32.4513
35.5395
38.6315
41.7307
44.8354
47.9496
51.0702
54.2027
57.3419
60.495
63.6543
66.829
70.0081
73.2038
76.4005
79.6149
82.8253
86.0545
89.2727
92.5106
95.728
98.966
102.171
105.396
108.572
111.768
114.893
118.04
121.089
124.162
127.107
130.08
132.89
135.736
138.383
141.073
143.532
146.057
148.257
150.729
152.435
155.096
156.269
158.587
160.616
159.94
166.419
161.134
169.237
164.21
171.586
169.501
165.717
189.004
149.943
195.64
176.086
157.076
230.435
123.218
225.675
233.648
144.069
251.657
219.53
214.058
-56.906
-61.6898
-66.8605
-72.3308
-77.8176
-82.9664
-87.4771
-91.1549
-93.9057
-95.7136
-96.6209
-96.7081
-96.0752
-94.8311
-93.0829
-90.9283
-88.4517
-85.7242
-82.8043
-79.7392
-76.5668
-73.3173
-70.0141
-66.6758
-63.3168
-59.9482
-56.5785
-53.214
-49.8596
-46.5187
-43.1937
-39.8862
-36.5971
-33.3268
-30.0754
-26.8425
-23.6275
-20.4296
-17.248
-14.0816
-10.9292
-7.7896
-4.66174
-1.54426
1.5639
4.66416
7.75753
10.8456
13.9291
17.0098
20.0884
23.1667
26.245
29.3257
32.4085
35.4961
38.5878
41.6868
44.7914
47.9056
51.0264
54.1591
57.2986
60.4521
63.6118
66.787
69.9665
73.1629
76.3601
79.5753
82.7863
86.0163
89.2352
92.474
95.6921
98.9311
102.137
105.363
108.539
111.737
114.863
118.011
121.061
124.135
127.081
130.056
132.867
135.714
138.362
141.053
143.513
146.039
148.24
150.714
152.418
155.084
156.255
158.574
160.612
159.913
166.423
161.121
169.223
164.199
171.577
169.502
165.647
189.099
149.847
195.566
176.148
156.834
230.668
122.922
225.177
234.014
143.821
251.007
219.588
214.026
-55.5632
-59.4351
-63.6278
-68.0808
-72.6028
-76.9582
-80.9294
-84.3453
-87.0898
-89.101
-90.3665
-90.9138
-90.7967
-90.0854
-88.8593
-87.1984
-85.1775
-82.8635
-80.3142
-77.5785
-74.697
-71.703
-68.6237
-65.4809
-62.2922
-59.0717
-55.8306
-52.5776
-49.3197
-46.0623
-42.8094
-39.5641
-36.3287
-33.1047
-29.8931
-26.6944
-23.5088
-20.3362
-17.1763
-14.0284
-10.8919
-7.7659
-4.64966
-1.54209
1.55763
4.65072
7.73801
10.8209
13.9001
16.9772
20.0528
23.1286
26.2049
29.284
32.3655
35.4521
38.543
41.6415
44.7457
47.8598
50.9805
54.1132
57.2529
60.4067
63.5667
66.7424
69.9224
73.1193
76.3172
79.533
82.7448
85.9755
89.1952
92.4348
95.6539
98.8938
102.1
105.328
108.505
111.704
114.831
117.98
121.031
124.107
127.054
130.03
132.842
135.69
138.339
141.032
143.493
146.02
148.221
150.698
152.4
155.071
156.24
158.557
160.606
159.885
166.43
161.107
169.208
164.187
171.571
169.498
165.572
189.208
149.729
195.493
176.192
156.562
230.948
122.547
224.607
234.403
143.516
250.243
219.635
213.975
-54.0206
-57.1823
-60.6191
-64.281
-68.0258
-71.6929
-75.1321
-78.2106
-80.8184
-82.8766
-84.3413
-85.2026
-85.4786
-85.2051
-84.4327
-83.2198
-81.6271
-79.7131
-77.5311
-75.1286
-72.5469
-69.8209
-66.9802
-64.049
-61.0476
-57.9924
-54.897
-51.7722
-48.627
-45.4683
-42.3019
-39.1323
-35.963
-32.7966
-29.6352
-26.4801
-23.3325
-20.1927
-17.0613
-13.938
-10.8228
-7.7151
-4.61464
-1.52063
1.56746
4.65061
7.7294
10.8051
13.8781
16.95
20.0212
23.0934
26.1667
29.2433
32.3227
35.4077
38.4974
41.5949
44.6983
47.8119
50.9323
54.0649
57.2046
60.3585
63.5187
66.6948
69.8752
73.0727
76.2711
79.4876
82.7001
85.9317
89.1522
92.3928
95.6128
98.8538
102.061
105.29
108.469
111.669
114.797
117.947
121
124.076
127.025
130.002
132.815
135.665
138.316
141.009
143.471
146
148.203
150.681
152.382
155.058
156.224
158.545
160.6
159.854
166.439
161.091
169.193
164.172
171.567
169.487
165.492
189.334
149.585
195.422
176.214
156.255
231.284
122.081
223.953
234.822
143.152
249.373
219.677
213.904
-52.3257
-54.924
-57.7638
-60.8002
-63.9184
-67.0037
-69.9544
-72.6742
-75.0718
-77.069
-78.6091
-79.6601
-80.2143
-80.282
-79.8875
-79.0675
-77.8656
-76.3284
-74.5019
-72.4291
-70.1496
-67.6981
-65.105
-62.3964
-59.5943
-56.7172
-53.7805
-50.7971
-47.7776
-44.7305
-41.6631
-38.5812
-35.4893
-32.3914
-29.2903
-26.1884
-23.0874
-19.9886
-16.893
-13.801
-10.7132
-7.62934
-4.54959
-1.47353
1.59901
4.66874
7.73596
10.8017
13.8662
16.9309
19.9959
23.0629
26.1318
29.2047
32.2811
35.3636
38.4512
41.5471
44.6493
47.7619
50.8816
54.0138
57.1532
60.3071
63.4674
66.6437
69.8244
73.0224
76.2213
79.4386
82.6518
85.8842
89.1056
92.3473
95.5683
98.8105
102.019
105.249
108.429
111.63
114.76
117.912
120.966
124.044
126.994
129.973
132.787
135.639
138.291
140.986
143.449
145.98
148.183
150.663
152.363
155.044
156.207
158.531
160.594
159.82
166.45
161.074
169.177
164.155
171.567
169.468
165.407
189.478
149.411
195.354
176.212
155.909
231.686
121.514
223.2
235.281
142.729
248.415
219.721
213.812
-50.5074
-52.653
-55.0143
-57.5495
-60.1598
-62.759
-65.2779
-67.65
-69.8048
-71.674
-73.1999
-74.3409
-75.0733
-75.3898
-75.295
-74.8058
-73.9488
-72.7571
-71.2664
-69.5133
-67.5328
-65.3578
-63.018
-60.5397
-57.9461
-55.2571
-52.4896
-49.6582
-46.7749
-43.85
-40.8919
-37.9077
-34.9033
-31.8832
-28.8516
-25.8115
-22.7655
-19.7155
-16.663
-13.6093
-10.5551
-7.501
-4.44736
-1.39418
1.65834
4.71061
7.76262
10.8152
13.8683
16.9231
19.9797
23.0394
26.1021
29.1698
32.2418
35.3207
38.4052
41.4986
44.5988
47.7099
50.8283
53.9596
57.0984
60.2519
63.412
66.5884
69.7693
72.9677
76.1671
79.385
82.5989
85.8323
89.0546
92.2974
95.5195
98.763
101.973
105.205
108.386
111.589
114.72
117.873
120.929
124.009
126.96
129.941
132.757
135.611
138.264
140.961
143.426
145.957
148.162
150.645
152.343
155.031
156.189
158.517
160.585
159.784
166.465
161.054
169.16
164.135
171.571
169.441
165.317
189.644
149.202
195.294
176.18
155.518
232.163
120.838
222.331
235.792
142.263
247.403
219.768
213.699
-48.5872
-50.3654
-52.3389
-54.4677
-56.6633
-58.8573
-61.0026
-63.0544
-64.9609
-66.6664
-68.1186
-69.2746
-70.1035
-70.5865
-70.7157
-70.4926
-69.9285
-69.043
-67.861
-66.4103
-64.72
-62.8188
-60.7341
-58.4913
-56.1133
-53.6208
-51.0317
-48.3617
-45.6242
-42.8307
-39.9911
-37.1135
-34.2049
-31.2711
-28.3169
-25.3463
-22.3627
-19.3685
-16.3661
-13.357
-10.3427
-7.32399
-4.30187
-1.27665
1.75114
4.7816
7.8144
10.8501
13.8884
16.9304
19.9758
23.0258
26.0802
29.1407
32.2065
35.2803
38.3604
41.4502
44.5473
47.6559
50.7724
53.9022
57.0398
60.1925
63.352
66.5282
69.709
72.9076
76.1074
79.3259
82.5405
85.7749
88.9981
92.2421
95.4654
98.7105
101.922
105.155
108.338
111.543
114.675
117.831
120.888
123.971
126.924
129.907
132.725
135.58
138.235
140.934
143.401
145.934
148.14
150.625
152.322
155.016
156.169
158.505
160.575
159.743
166.484
161.032
169.143
164.112
171.58
169.402
165.22
189.834
148.953
195.242
176.114
155.077
232.724
120.047
221.324
236.37
141.767
246.387
219.819
213.562
-46.582
-48.0597
-49.7155
-51.5112
-53.3654
-55.2216
-57.0471
-58.8125
-60.481
-62.0091
-63.3524
-64.4714
-65.3335
-65.9147
-66.1996
-66.1792
-65.8533
-65.2296
-64.3221
-63.1496
-61.7339
-60.0982
-58.266
-56.2603
-54.1028
-51.8136
-49.4108
-46.9109
-44.3281
-41.6751
-38.9626
-36.2001
-33.3955
-30.5556
-27.6863
-24.7923
-21.8777
-18.9459
-15.9996
-13.041
-10.0722
-7.09438
-4.10893
-1.11653
1.8819
4.88619
7.89568
10.9107
13.9307
16.9566
19.9876
23.0253
26.0687
29.1198
32.1774
35.2441
38.3181
41.4028
44.4955
47.6006
50.714
53.8415
56.9771
60.1284
63.2868
66.4623
69.6427
72.8412
76.0411
79.2601
82.4752
85.7105
88.9347
92.1801
95.4046
98.6513
101.864
105.1
108.284
111.491
114.626
117.784
120.843
123.928
126.883
129.869
132.689
135.547
138.204
140.905
143.374
145.909
148.117
150.605
152.3
155.002
156.148
158.492
160.563
159.708
166.505
161.006
169.124
164.086
171.596
169.35
165.117
190.05
148.658
195.204
176.012
154.582
233.38
119.146
220.156
237.023
141.284
245.435
219.874
213.398
-44.505
-45.735
-47.1282
-48.6483
-50.2196
-51.7932
-53.3462
-54.8601
-56.3092
-57.6604
-58.8775
-59.9262
-60.7761
-61.402
-61.7844
-61.9092
-61.7679
-61.359
-60.6873
-59.7629
-58.5999
-57.2153
-55.6276
-53.8562
-51.9202
-49.8384
-47.6283
-45.3061
-42.8864
-40.3824
-37.8058
-35.1668
-32.4745
-29.7364
-26.9594
-24.149
-21.3101
-18.4468
-15.5625
-12.6601
-9.74204
-6.81012
-3.86613
-0.911137
2.05357
5.02752
8.00975
11.0003
13.9985
17.0048
20.0185
23.0407
26.0705
29.1095
32.1566
35.214
38.28
41.3578
44.4446
47.5446
50.6538
53.7777
56.9103
60.0593
63.2158
66.39
69.5693
72.7674
75.967
79.1862
82.4016
85.6377
88.8628
92.1095
95.3354
98.5839
101.798
105.036
108.222
111.432
114.569
117.73
120.792
123.88
126.837
129.826
132.649
135.51
138.17
140.874
143.345
145.883
148.092
150.583
152.276
154.986
156.126
158.481
160.548
159.671
166.525
160.983
169.111
164.054
171.62
169.284
165.009
190.292
148.312
195.181
175.87
154.027
234.139
118.149
218.801
237.759
140.822
244.622
219.934
213.197
-42.3665
-43.3909
-44.5655
-45.8559
-47.1909
-48.5274
-49.8486
-51.1437
-52.3953
-53.5784
-54.6642
-55.624
-56.4313
-57.062
-57.4959
-57.7164
-57.7106
-57.4705
-56.9939
-56.2835
-55.3462
-54.1926
-52.8358
-51.2907
-49.5732
-47.6994
-45.6854
-43.5464
-41.2968
-38.9497
-36.5173
-34.0105
-31.4387
-28.8106
-26.1336
-23.4142
-20.6579
-17.8696
-15.0535
-12.2129
-9.35088
-6.46984
-3.57199
-0.658835
2.26796
5.20759
8.15876
11.1213
14.0941
17.0777
20.0708
23.0747
26.088
29.1124
32.1463
35.1923
38.2481
41.3169
44.3958
47.4891
50.5924
53.7114
56.8397
59.9852
63.1388
66.3107
69.4883
72.6852
75.8838
79.1028
82.3181
85.5548
88.7804
92.0285
95.2556
98.5061
101.722
104.962
108.151
111.364
114.503
117.668
120.732
123.824
126.785
129.777
132.603
135.468
138.131
140.838
143.312
145.853
148.065
150.56
152.252
154.97
156.103
158.469
160.533
159.628
166.55
160.959
169.082
164.022
171.656
169.2
164.893
190.567
147.913
195.186
175.684
153.417
235.004
117.089
217.242
238.539
140.425
243.983
219.999
212.948
-40.1745
-41.0276
-42.019
-43.1166
-44.2532
-45.3896
-46.5136
-47.6196
-48.696
-49.7241
-50.6812
-51.5442
-52.2902
-52.8982
-53.3488
-53.625
-53.712
-53.5984
-53.277
-52.7447
-52.0027
-51.0556
-49.9112
-48.5795
-47.0725
-45.4033
-43.5853
-41.6323
-39.5576
-37.3739
-35.093
-32.7261
-30.2831
-27.7731
-25.2042
-22.5834
-19.9171
-17.2108
-14.4693
-11.6965
-8.89631
-6.07142
-3.22464
-0.357884
2.52671
5.42802
8.34437
11.2753
14.2194
17.177
20.1466
23.1292
26.1232
29.1303
32.1487
35.1807
38.224
41.2818
44.3508
47.4354
50.531
53.6434
56.7659
59.9065
63.0559
66.2244
69.399
72.5938
75.7906
79.0087
82.2233
85.46
88.6858
91.9349
95.163
98.4154
101.633
104.876
108.067
111.284
114.426
117.594
120.662
123.758
126.722
129.72
132.549
135.419
138.085
140.798
143.274
145.82
148.034
150.534
152.225
154.951
156.08
158.456
160.515
159.587
166.576
160.933
169.063
163.986
171.696
169.101
164.778
190.863
147.46
195.206
175.468
152.735
235.985
116.022
215.448
239.372
140.097
243.547
220.063
212.632
-37.9361
-38.6455
-39.4827
-40.4174
-41.3862
-42.3533
-43.3093
-44.2521
-45.1745
-46.0625
-46.8983
-47.6631
-48.3383
-48.9058
-49.3482
-49.6492
-49.7942
-49.7702
-49.5672
-49.1782
-48.5998
-47.8319
-46.8775
-45.7419
-44.4331
-42.9604
-41.3345
-39.5669
-37.6691
-35.6528
-33.5292
-31.3089
-29.0021
-26.618
-24.1649
-21.6506
-19.082
-16.4649
-13.8049
-11.1066
-8.3743
-5.61128
-2.82089
-0.00549417
2.83231
5.69103
8.56857
11.4642
14.3762
17.3045
20.2475
23.2058
26.1779
29.1651
32.1653
35.181
38.2095
41.254
44.311
47.385
50.4709
53.5749
56.6899
59.824
62.9675
66.1312
69.3015
72.493
75.687
78.903
82.116
85.352
88.5773
91.8269
95.0556
98.3096
101.529
104.775
107.968
111.188
114.333
117.506
120.578
123.68
126.648
129.651
132.485
135.361
138.031
140.75
143.23
145.783
147.999
150.505
152.197
154.93
156.057
158.441
160.496
159.547
166.601
160.909
169.037
163.947
171.752
168.977
164.666
191.182
146.953
195.272
175.212
152.03
237.049
115.033
213.439
240.181
139.878
243.281
220.118
212.247
-35.6567
-36.2454
-36.9521
-37.7484
-38.5746
-39.3977
-40.2103
-41.0126
-41.8003
-42.5632
-43.2872
-43.9572
-44.5581
-45.0748
-45.4922
-45.7957
-45.9715
-46.0065
-45.8895
-45.6115
-45.1659
-44.5491
-43.7599
-42.7999
-41.673
-40.3849
-38.9433
-37.3567
-35.6346
-33.787
-31.8239
-29.7553
-27.5907
-25.3393
-23.0095
-20.6092
-18.1456
-15.6253
-13.0541
-10.4372
-7.77927
-5.08431
-2.35611
0.402521
3.1885
5.99995
8.83435
11.6907
14.5667
17.4623
20.3754
23.3066
26.2538
29.2184
32.198
35.1949
38.2062
41.2353
44.2781
47.3394
50.4138
53.5074
56.613
59.7389
62.8749
66.0321
69.1966
72.3832
75.5729
78.7856
81.9957
85.23
88.4538
91.703
94.9314
98.1865
101.407
104.655
107.85
111.074
114.223
117.401
120.476
123.584
126.557
129.568
132.406
135.29
137.965
140.692
143.176
145.738
147.956
150.47
152.165
154.904
156.034
158.423
160.476
159.508
166.623
160.888
169.012
163.905
171.816
168.837
164.559
191.515
146.408
195.36
174.948
151.258
238.229
114.202
211.157
240.888
139.759
243.107
220.154
211.811
-33.3412
-33.828
-34.4237
-35.1019
-35.8065
-36.5067
-37.1965
-37.8776
-38.5481
-39.2002
-39.8228
-40.404
-40.9312
-41.3922
-41.7742
-42.0646
-42.2508
-42.3207
-42.2628
-42.0674
-41.7261
-41.2328
-40.5837
-39.7768
-38.8128
-37.6942
-36.4252
-35.0117
-33.4607
-31.78
-29.9782
-28.0639
-26.0457
-23.9324
-21.7321
-19.4526
-17.1014
-14.685
-12.2098
-9.68122
-7.10462
-4.48424
-1.82443
0.871591
3.60026
6.35933
9.14582
11.9584
14.7944
17.6535
20.5332
23.4339
26.3531
29.2923
32.2485
35.2242
38.216
41.2273
44.2539
47.3004
50.3611
53.4426
56.5369
59.6526
62.7793
65.9283
69.0852
72.2654
75.4492
78.6571
81.8629
85.094
88.3149
91.5626
94.7897
98.0449
101.265
104.515
107.712
110.939
114.091
117.274
120.354
123.468
126.446
129.465
132.31
135.203
137.884
140.621
143.11
145.683
147.904
150.429
152.128
154.871
156.011
158.399
160.456
159.475
166.638
160.873
168.982
163.864
171.891
168.682
164.462
191.857
145.826
195.486
174.669
150.511
239.297
113.564
208.615
241.396
139.758
242.923
220.164
211.345
-30.9936
-31.3943
-31.8954
-32.4723
-33.0726
-33.6674
-34.2519
-34.8286
-35.397
-35.9515
-36.4834
-36.9826
-37.4394
-37.8436
-38.1847
-38.4518
-38.634
-38.7203
-38.7001
-38.5633
-38.3012
-37.9061
-37.3724
-36.6958
-35.8743
-34.9074
-33.7967
-32.5452
-31.1573
-29.6387
-27.9959
-26.2358
-24.3662
-22.3946
-20.3286
-18.1756
-15.9429
-13.6372
-11.2649
-8.83171
-6.34325
-3.80417
-1.2192
1.40804
4.07354
6.7747
9.5081
12.2721
15.0636
17.8819
20.7243
23.5909
26.4789
29.3895
32.3195
35.2712
38.2409
41.2321
44.2401
47.2697
50.3148
53.382
56.4632
59.5669
62.6826
65.8215
68.9692
72.1412
75.3174
78.5189
81.7186
84.9449
88.1615
91.4062
94.6305
97.8844
101.104
104.354
107.552
110.782
113.935
117.123
120.207
123.328
126.312
129.339
132.19
135.094
137.782
140.532
143.026
145.615
147.839
150.378
152.085
154.829
155.99
158.365
160.437
159.448
166.642
160.868
168.948
163.826
171.98
168.522
164.384
192.183
145.243
195.642
174.466
149.76
240.283
113.24
205.824
241.621
139.884
242.645
220.153
210.912
-28.6175
-28.9452
-29.3653
-29.8552
-30.3657
-30.8699
-31.3637
-31.8502
-32.33
-32.7989
-33.2499
-33.6749
-34.0659
-34.4146
-34.7124
-34.9503
-35.1188
-35.2082
-35.2089
-35.1115
-34.9072
-34.588
-34.147
-33.5786
-32.8787
-32.0449
-31.0761
-29.9729
-28.7374
-27.3729
-25.8839
-24.2755
-22.5539
-20.7253
-18.7966
-16.7744
-14.6654
-12.4762
-10.213
-7.88177
-5.48813
-3.03699
-0.533415
2.01868
4.6149
7.25232
9.92708
12.6372
15.3793
18.1524
20.9531
23.7817
26.6347
29.5132
32.4138
35.3386
38.2835
41.252
44.239
47.2494
50.2768
53.3277
56.3938
59.4837
62.5865
65.7136
68.8504
72.0124
75.1793
78.3726
81.5648
84.7846
87.9952
91.2351
94.4552
97.7063
100.923
104.173
107.369
110.601
113.755
116.948
120.034
123.162
126.15
129.188
132.045
134.961
137.656
140.421
142.921
145.529
147.757
150.314
152.033
154.773
155.971
158.318
160.42
159.43
166.626
160.88
168.908
163.801
172.051
168.368
164.332
192.467
144.701
195.836
174.341
149.041
241.239
113.283
202.828
241.492
140.156
242.227
220.124
210.573
-26.2162
-26.4818
-26.8324
-27.2471
-27.6801
-28.1061
-28.5217
-28.9302
-29.333
-29.727
-30.1063
-30.4646
-30.7951
-31.0913
-31.3459
-31.5515
-31.7001
-31.7833
-31.7926
-31.7196
-31.5557
-31.2933
-30.9249
-30.4443
-29.8462
-29.1264
-28.2821
-27.312
-26.216
-24.9953
-23.6522
-22.1901
-20.6134
-18.927
-17.1363
-15.2472
-13.2656
-11.1974
-9.04879
-6.82528
-4.53266
-2.17584
0.23992
2.71051
5.23121
7.79884
10.4092
13.06
15.7474
18.4702
21.2247
24.0108
26.8247
29.6675
32.5351
35.4297
38.3468
41.2897
44.2531
47.2419
50.2492
53.2818
56.3307
59.4049
62.493
65.6066
68.7307
71.8809
75.0371
78.2204
81.4035
84.615
87.8182
91.0516
94.2658
97.5124
100.725
103.972
107.166
110.398
113.552
116.747
119.835
122.969
125.962
129.008
131.872
134.8
137.503
140.285
142.791
145.422
147.655
150.232
151.97
154.699
155.953
158.252
160.407
159.424
166.584
160.917
168.86
163.798
172.131
168.239
164.317
192.666
144.269
196.06
174.319
148.337
242.029
113.75
199.72
240.967
140.592
241.657
220.08
210.37
-23.7924
-24.0053
-24.2961
-24.6457
-25.0115
-25.3699
-25.7178
-26.0589
-26.3947
-26.7231
-27.0393
-27.3379
-27.6136
-27.8608
-28.0737
-28.2462
-28.3714
-28.4423
-28.4515
-28.3914
-28.2543
-28.033
-27.7201
-27.3092
-26.7943
-26.1704
-25.4334
-24.5803
-23.6095
-22.5202
-21.313
-19.9895
-18.5522
-17.0044
-15.3504
-13.5946
-11.7422
-9.79817
-7.76816
-5.65728
-3.47111
-1.21443
1.10744
3.49034
5.92934
8.42108
10.961
13.5467
16.1739
18.8412
21.5445
24.2835
27.054
29.8568
32.6877
35.5484
38.4343
41.3486
44.2855
47.25
50.2347
53.2465
56.2762
59.3326
62.4042
65.5023
68.612
71.7488
74.8926
78.0643
81.2367
84.4385
87.6327
90.858
94.0649
97.3052
100.512
103.755
106.946
110.175
113.328
116.523
119.612
122.75
125.746
128.8
131.67
134.61
137.32
140.12
142.632
145.29
147.528
150.128
151.893
154.602
155.938
158.162
160.4
159.431
166.507
160.988
168.8
163.833
172.192
168.166
164.346
192.728
144.024
196.296
174.381
147.607
242.346
114.737
196.711
240.021
141.206
240.945
220.028
210.331
-21.3488
-21.5167
-21.7561
-22.0492
-22.3566
-22.6564
-22.9456
-23.2281
-23.5057
-23.7767
-24.0373
-24.283
-24.5092
-24.7116
-24.8853
-25.0251
-25.1255
-25.1803
-25.1833
-25.1279
-25.0072
-24.8144
-24.5429
-24.1861
-23.7381
-23.1933
-22.547
-21.795
-20.9345
-19.9632
-18.8802
-17.6855
-16.3799
-14.9652
-13.4441
-11.8199
-10.0964
-8.27783
-6.36895
-4.37428
-2.29895
-0.147443
2.07507
4.36452
6.71589
9.12576
11.5894
14.1041
16.6654
19.2717
21.9186
24.6054
27.3278
30.0862
32.876
35.6991
38.5501
41.4323
44.3396
47.2767
50.2361
53.2246
56.2326
59.2691
62.3219
65.4027
68.4963
71.6179
74.7476
77.9061
81.0664
84.2567
87.4406
90.6564
93.8547
97.0872
100.287
103.524
106.71
109.936
113.085
116.28
119.369
122.509
125.507
128.567
131.441
134.393
137.11
139.928
142.446
145.131
147.377
149.999
151.801
154.477
155.924
158.043
160.399
159.451
166.39
161.105
168.726
163.927
172.218
168.184
164.412
192.586
144.058
196.493
174.493
146.779
242.04
116.424
194.183
238.652
142.006
240.085
219.973
210.489
-18.8879
-19.0175
-19.2124
-19.4564
-19.7128
-19.9616
-20.2
-20.4316
-20.6584
-20.8793
-21.0911
-21.2898
-21.4719
-21.6336
-21.7709
-21.8795
-21.9548
-21.9916
-21.9846
-21.928
-21.8158
-21.6419
-21.4003
-21.0849
-20.6897
-20.2092
-19.6382
-18.9721
-18.2071
-17.3401
-16.3687
-15.2916
-14.1082
-12.8189
-11.4251
-9.92841
-8.33171
-6.63798
-4.85104
-2.97461
-1.01321
1.02919
3.14776
5.33865
7.59694
9.91926
12.3008
14.7388
17.2285
19.7682
22.3532
24.9826
27.6518
30.3611
33.1054
35.8865
38.6986
41.545
44.4191
47.3256
50.2567
53.219
56.2027
59.2167
62.2487
65.3101
68.3856
71.49
74.604
77.7476
80.8942
84.0716
87.2438
90.4485
93.6371
96.8604
100.053
103.282
106.462
109.682
112.828
116.02
119.107
122.248
125.247
128.312
131.19
134.152
136.874
139.711
142.235
144.946
147.204
149.842
151.698
154.321
155.91
157.893
160.402
159.482
166.23
161.28
168.637
164.104
172.188
168.338
164.494
192.172
144.508
196.559
174.651
145.841
241.026
119.087
192.639
236.906
143.009
239.034
219.938
210.91
-16.4119
-16.5089
-16.6653
-16.8665
-17.0785
-17.2828
-17.4769
-17.6642
-17.8468
-18.0239
-18.1928
-18.3501
-18.4928
-18.6178
-18.7218
-18.8012
-18.8522
-18.8703
-18.8509
-18.7892
-18.6798
-18.5176
-18.297
-18.0124
-17.6582
-17.2292
-16.72
-16.1259
-15.4425
-14.666
-13.7933
-12.8219
-11.7502
-10.5772
-9.30299
-7.92808
-6.45398
-4.88252
-3.21649
-1.45866
0.387251
2.31793
4.32906
6.41719