/*--------------------------------*- C++ -*----------------------------------*\
| =========                 |                                                 |
| \\      /  F ield         | OpenFOAM: The Open Source CFD Toolbox           |
|  \\    /   O peration     | Version:  2412                                  |
|   \\  /    A nd           | Website:  www.openfoam.com                      |
|    \\/     M anipulation  |                                                 |
\*---------------------------------------------------------------------------*/
FoamFile
{
    version     2.0;
    format      ascii;
    arch        "LSB;label=32;scalar=64";
    class       volScalarField;
    location    "0.995";
    object      p;
}
// * * * * * * * * * * * * * * * * * * * * * * * * * * * * * * * * * * * * * //

dimensions      [0 2 -2 0 0 0 0];

internalField   nonuniform List<scalar> 
12600
(
1.14822
-79.2759
-56.4046
-5.56566
37.4473
70.2346
96.1994
117.738
136.236
152.389
166.367
178.374
188.949
198.823
208.274
216.695
223.417
228.726
234.036
240.38
247.004
252.007
254.403
255.54
258.837
263.177
267.232
269.32
270.499
272.321
274.607
276.421
277.581
278.637
279.938
281.269
282.306
283.056
283.752
284.515
285.263
285.872
286.348
286.783
287.224
287.638
287.98
288.252
288.49
288.712
288.91
289.073
289.207
289.324
289.435
289.538
289.632
289.718
289.793
289.845
289.855
289.805
289.687
289.498
289.231
288.838
288.193
287.097
285.295
282.623
279.059
274.881
270.515
266.501
263.278
260.819
259.011
257.169
254.925
252.311
250.609
250.07
250.78
251.824
252.4
253.589
254.251
254.416
249.732
243.868
227.458
208.825
175.536
132.905
94.6239
42.7388
48.5137
45.7758
39.9997
76.3781
46.7672
66.9832
66.1375
62.2714
68.7549
58.4966
54.4981
25.3946
-8.60149
-27.2271
-4.75677
57.3998
148.673
244.581
338.455
391.897
431.758
442.353
478.343
456.288
60.9816
-14.064
-22.303
3.60202
36.1605
66.3205
92.0085
113.85
132.755
149.218
163.454
175.751
186.763
197.11
206.845
215.154
221.768
227.384
233.351
240.111
246.42
250.715
252.86
254.878
258.716
263.358
266.888
268.643
270.003
272.115
274.449
276.169
277.311
278.449
279.822
281.156
282.169
282.922
283.65
284.444
285.197
285.802
286.283
286.731
287.182
287.601
287.945
288.222
288.466
288.692
288.894
289.059
289.195
289.315
289.427
289.531
289.625
289.71
289.784
289.837
289.847
289.796
289.679
289.491
289.226
288.838
288.203
287.127
285.355
282.719
279.193
275.04
270.672
266.653
263.406
260.922
259.102
257.263
255.029
252.399
250.657
250.071
250.743
251.782
252.36
253.554
254.23
254.461
249.848
244.122
227.868
209.42
176.459
133.901
95.7963
43.4036
48.528
45.9998
39.7658
76.2669
46.9005
66.7298
66.1529
62.251
68.7676
58.6495
54.8996
26.1745
-7.9072
-27.1497
-5.57062
55.7234
146.579
242.446
336.801
390.829
431.182
441.849
478.167
456.481
86.8143
31.368
8.30776
17.0782
40.7884
66.9897
91.0946
112.421
131.21
147.664
161.913
174.319
185.536
196.065
205.773
214.025
220.677
226.581
232.934
239.762
245.617
249.215
251.432
254.678
258.981
263.414
266.536
268.036
269.639
271.978
274.333
275.998
277.145
278.337
279.746
281.077
282.08
282.842
283.59
284.397
285.152
285.757
286.242
286.698
287.155
287.576
287.922
288.202
288.45
288.679
288.883
289.05
289.187
289.309
289.422
289.526
289.62
289.704
289.778
289.83
289.839
289.789
289.672
289.486
289.223
288.839
288.212
287.149
285.396
282.781
279.272
275.129
270.761
266.735
263.48
260.987
259.16
257.323
255.092
252.452
250.685
250.072
250.72
251.753
252.335
253.533
254.217
254.492
249.916
244.265
228.086
209.735
176.907
134.362
96.2928
43.7076
48.5307
46.1421
39.6329
76.2146
46.9648
66.6148
66.1634
62.2394
68.7782
58.7149
55.0685
26.5274
-7.57674
-27.1113
-5.9473
55.1532
145.92
241.751
336.189
390.415
430.952
441.693
478.095
456.562
95.2389
60.6228
37.0074
35.0394
49.0625
69.7134
91.2573
111.489
129.82
146.095
160.332
172.857
184.245
194.882
204.589
212.839
219.658
225.908
232.453
239.071
244.504
248.064
250.845
254.731
259.37
263.519
265.97
267.376
269.281
271.821
274.17
275.788
276.956
278.206
279.645
280.971
281.969
282.746
283.517
284.336
285.093
285.7
286.193
286.657
287.121
287.545
287.894
288.179
288.43
288.664
288.87
289.039
289.178
289.301
289.415
289.52
289.614
289.698
289.772
289.822
289.831
289.782
289.666
289.481
289.22
288.84
288.223
287.177
285.448
282.862
279.382
275.258
270.9
266.857
263.58
261.069
259.234
257.4
255.177
252.523
250.722
250.07
250.689
251.718
252.302
253.505
254.203
254.535
250.018
244.485
228.433
210.238
177.676
135.184
97.2942
44.2162
48.5234
46.3005
39.4291
76.135
47.0699
66.4042
66.1791
62.2205
68.7936
58.8485
55.4112
27.1665
-7.0454
-27.1025
-6.69033
53.6218
143.988
239.858
334.77
389.514
430.469
441.248
477.961
456.732
102.586
83.1325
63.7919
55.6193
60.8283
75.0658
93.055
111.533
129.036
144.942
159.067
171.634
183.108
193.772
203.447
211.748
218.796
225.311
231.884
238.216
243.367
247.157
250.678
254.991
259.494
263.058
264.975
266.793
269.008
271.687
274.001
275.572
276.77
278.079
279.544
280.86
281.854
282.649
283.443
284.274
285.032
285.641
286.142
286.616
287.085
287.513
287.865
288.154
288.41
288.647
288.856
289.028
289.169
289.294
289.409
289.514
289.608
289.692
289.765
289.815
289.824
289.774
289.659
289.476
289.217
288.842
288.235
287.208
285.505
282.948
279.492
275.383
271.021
266.971
263.679
261.152
259.31
257.48
255.266
252.594
250.758
250.068
250.657
251.681
252.267
253.476
254.189
254.582
250.122
244.7
228.765
210.713
178.363
135.895
98.0468
44.638
48.4983
46.4394
39.2122
76.068
47.1633
66.2212
66.195
62.2011
68.811
58.9577
55.6935
27.7006
-6.60848
-27.1549
-7.35876
52.6012
142.812
238.611
333.723
388.817
430.089
440.974
477.856
456.869
111.092
100.446
85.9392
75.808
75.181
83.3365
96.8936
112.775
128.943
144.216
158.092
170.609
182.094
192.739
202.385
210.768
218.035
224.743
231.262
237.312
242.362
246.523
250.644
255.147
259.351
262.38
264.246
266.143
268.813
271.588
273.81
275.343
276.58
277.952
279.437
280.742
281.734
282.549
283.368
284.209
284.967
285.579
286.088
286.572
287.048
287.478
287.834
288.127
288.389
288.63
288.842
289.016
289.159
289.286
289.402
289.508
289.601
289.685
289.757
289.807
289.815
289.767
289.652
289.47
289.214
288.845
288.25
287.242
285.566
283.041
279.612
275.52
271.163
267.096
263.783
261.239
259.39
257.566
255.358
252.673
250.795
250.064
250.622
251.64
252.229
253.445
254.176
254.636
250.241
244.944
229.142
211.25
179.154
136.719
99.0081
45.1041
48.4389
46.5374
38.9391
75.9845
47.2668
66.0032
66.2109
62.1765
68.8314
59.0921
56.0318
28.3095
-6.17316
-27.2912
-8.23669
50.9901
140.858
236.719
332.287
387.896
429.597
440.537
477.734
457.045
119.211
113.065
102.86
93.7672
90.4478
93.9232
102.94
115.525
129.707
143.947
157.365
169.727
181.163
191.769
201.406
209.887
217.345
224.174
230.606
236.472
241.552
246.083
250.603
255.101
258.943
261.64
263.634
265.88
268.687
271.46
273.619
275.094
276.386
277.825
279.326
280.617
281.608
282.447
283.29
284.14
284.899
285.513
286.033
286.527
287.009
287.442
287.801
288.1
288.367
288.612
288.826
289.003
289.149
289.278
289.395
289.501
289.595
289.678
289.75
289.799
289.807
289.758
289.644
289.464
289.21
288.848
288.266
287.28
285.633
283.141
279.741
275.665
271.305
267.223
263.89
261.328
259.474
257.657
255.455
252.756
250.834
250.058
250.583
251.595
252.187
253.411
254.163
254.697
250.372
245.207
229.543
211.817
179.97
137.554
99.9032
45.5444
48.323
46.5677
38.5943
75.9292
47.3718
65.7758
66.2245
62.1464
68.8548
59.2292
56.3671
28.8821
-5.82267
-27.5445
-9.20494
49.5802
139.21
235.022
330.898
386.974
429.1
440.17
477.618
457.222
126.536
122.842
115.995
108.956
104.991
105.591
110.868
120.012
131.646
144.315
156.928
168.95
180.26
190.816
200.464
209.055
216.678
223.594
229.963
235.744
240.924
245.747
250.456
254.823
258.367
260.95
263.171
265.722
268.638
271.301
273.31
274.879
276.187
277.7
279.211
280.484
281.479
282.343
283.21
284.069
284.826
285.445
285.975
286.48
286.968
287.404
287.766
288.071
288.344
288.593
288.81
288.99
289.139
289.27
289.388
289.494
289.588
289.671
289.742
289.79
289.798
289.749
289.636
289.457
289.206
288.851
288.283
287.321
285.706
283.248
279.877
275.817
271.456
267.356
263.999
261.419
259.559
257.751
255.557
252.843
250.872
250.049
250.539
251.546
252.14
253.373
254.151
254.766
250.519
245.495
229.977
212.426
180.842
138.437
100.881
45.9923
48.1309
46.499
38.1322
75.7952
47.4789
65.5249
66.2327
62.108
68.8814
59.3834
56.7161
29.4273
-5.58247
-27.9518
-10.3667
47.713
137.066
232.937
329.267
385.901
428.524
439.7
477.499
457.423
133.396
131.275
126.69
121.483
117.866
117.143
119.893
126.056
134.974
145.615
156.966
168.332
179.354
189.809
199.473
208.183
215.964
222.975
229.344
235.128
240.424
245.419
250.159
254.36
257.731
260.376
262.875
265.66
268.579
271.119
273.024
274.467
276.037
277.588
279.091
280.347
281.346
282.239
283.13
283.994
284.75
285.373
285.915
286.432
286.925
287.363
287.73
288.041
288.32
288.574
288.794
288.976
289.128
289.261
289.381
289.487
289.581
289.664
289.734
289.781
289.788
289.74
289.627
289.449
289.201
288.854
288.301
287.365
285.784
283.363
280.022
275.978
271.613
267.491
264.108
261.508
259.644
257.848
255.663
252.933
250.911
250.037
250.49
251.489
252.087
253.332
254.14
254.844
250.681
245.807
230.442
213.073
181.755
139.352
101.853
46.4151
47.8452
46.3026
37.4942
75.7328
47.5876
65.253
66.2316
62.059
68.9118
59.5342
57.0569
29.8901
-5.50349
-28.5447
-11.6914
45.9401
134.961
230.816
327.536
384.733
427.889
439.244
477.382
457.636
139.943
138.859
135.674
131.814
128.904
127.841
129.146
133.1
139.583
148.049
157.763
168.077
178.52
188.718
198.342
207.159
215.109
222.258
228.707
234.562
239.962
245.032
249.72
253.795
257.134
259.955
262.72
265.643
268.493
270.884
272.718
274.259
275.802
277.477
278.976
280.203
281.214
282.136
283.048
283.916
284.671
285.299
285.854
286.381
286.88
287.321
287.692
288.01
288.295
288.553
288.776
288.961
289.116
289.252
289.373
289.48
289.573
289.655
289.725
289.771
289.777
289.729
289.616
289.44
289.195
288.855
288.32
287.411
285.867
283.485
280.176
276.146
271.775
267.628
264.216
261.593
259.725
257.944
255.772
253.024
250.948
250.02
250.435
251.426
252.026
253.286
254.129
254.931
250.861
246.145
230.939
213.76
182.711
140.304
102.862
46.8543
47.428
45.9566
36.6068
75.6343
47.6939
64.9558
66.2163
61.9965
68.9471
59.6969
57.376
30.2262
-5.63082
-29.3495
-13.2274
43.6535
132.488
228.397
325.588
383.408
427.16
438.71
477.268
457.87
146.113
145.703
143.433
140.554
138.36
137.398
138
140.511
145.09
151.56
159.506
168.458
177.978
187.643
197.056
205.9
214.007
221.34
227.947
233.935
239.438
244.54
249.18
253.215
256.639
259.682
262.656
265.624
268.355
270.615
272.424
274.049
275.704
277.33
278.832
280.07
281.08
282.035
282.966
283.836
284.589
285.224
285.792
286.33
286.833
287.276
287.653
287.977
288.27
288.532
288.758
288.946
289.105
289.243
289.365
289.472
289.565
289.647
289.715
289.76
289.765
289.716
289.604
289.428
289.186
288.855
288.338
287.459
285.955
283.614
280.338
276.323
271.942
267.768
264.319
261.671
259.8
258.037
255.882
253.118
250.985
249.999
250.371
251.353
251.957
253.233
254.118
255.028
251.06
246.509
231.468
214.486
183.707
141.301
103.882
47.2591
46.8859
45.4519
35.379
75.542
47.8038
64.6335
66.1817
61.918
68.9888
59.8619
57.6495
30.3766
-6.00397
-30.3905
-14.9697
41.4113
129.904
225.818
323.457
381.929
426.326
438.153
477.161
458.123
151.886
151.94
150.34
148.181
146.554
145.821
146.15
147.81
151.04
155.879
162.17
169.647
177.986
186.819
195.753
204.434
212.601
220.112
226.927
233.103
238.741
243.907
248.569
252.667
256.253
259.509
262.613
265.554
268.163
270.334
272.162
273.877
275.59
277.237
278.676
279.893
280.975
281.937
282.884
283.754
284.505
285.149
285.729
286.277
286.784
287.23
287.612
287.944
288.244
288.51
288.74
288.931
289.093
289.234
289.357
289.464
289.557
289.637
289.704
289.748
289.751
289.702
289.589
289.413
289.174
288.851
288.354
287.508
286.047
283.751
280.508
276.507
272.114
267.899
264.416
261.738
259.863
258.122
255.988
253.211
251.019
249.971
250.3
251.269
251.878
253.174
254.108
255.139
251.28
246.9
232.028
215.249
184.737
142.36
104.921
47.6928
46.2277
44.7924
33.7043
75.4509
47.908
64.2847
66.1226
61.8208
69.0387
60.0318
57.8445
30.2731
-6.64842
-31.6901
-16.9457
38.7373
126.991
222.948
321.081
380.257
425.355
437.52
477.064
458.399
157.315
157.705
156.608
154.967
153.756
153.258
153.527
154.722
157.059
160.673
165.568
171.64
178.703
186.492
194.683
202.94
210.965
218.537
225.531
231.925
237.759
243.073
247.862
252.121
255.907
259.343
262.518
265.406
267.923
270.062
271.949
273.743
275.496
277.128
278.547
279.747
280.805
281.866
282.809
283.67
284.422
285.074
285.666
286.223
286.734
287.183
287.571
287.911
288.217
288.488
288.721
288.916
289.081
289.224
289.349
289.456
289.548
289.627
289.692
289.734
289.736
289.685
289.571
289.394
289.157
288.843
288.366
287.556
286.142
283.893
280.687
276.7
272.291
268.056
264.505
261.789
259.909
258.192
256.087
253.303
251.051
249.937
250.218
251.173
251.786
253.106
254.099
255.254
251.52
247.316
232.618
216.049
185.798
143.502
105.968
48.1293
45.4558
43.9816
31.467
75.3584
48.013
63.9161
66.0348
61.7022
69.0987
60.2058
57.9233
29.8556
-7.59247
-33.2692
-19.1642
35.9076
123.86
219.828
318.45
378.37
424.224
436.834
476.981
458.7
162.442
163.063
162.339
161.084
160.186
159.891
160.182
161.127
162.897
165.644
169.445
174.301
180.139
186.807
194.077
201.674
209.311
216.736
223.773
230.333
236.388
241.935
246.958
251.456
255.469
259.067
262.299
265.162
267.65
269.817
271.783
273.648
275.418
277.017
278.414
279.623
280.715
281.727
282.728
283.595
284.339
285.002
285.605
286.169
286.682
287.134
287.529
287.877
288.19
288.466
288.702
288.901
289.07
289.215
289.341
289.447
289.538
289.616
289.679
289.718
289.718
289.665
289.549
289.37
289.134
288.828
288.373
287.601
286.238
284.042
280.875
276.901
272.473
268.14
264.58
261.821
259.931
258.242
256.173
253.391
251.081
249.896
250.127
251.063
251.681
253.029
254.083
255.386
251.783
247.758
233.235
216.884
186.882
144.742
107.018
48.4888
44.5869
42.9883
28.5487
75.2608
48.1302
63.5229
65.9153
61.5582
69.1701
60.3759
57.836
29.0747
-8.85741
-35.1489
-21.6591
32.6948
120.38
216.383
315.513
376.234
422.9
436.061
476.915
459.03
167.284
168.057
167.614
166.659
166.005
165.869
166.2
167.012
168.425
170.577
173.563
177.435
182.194
187.782
194.066
200.849
207.89
214.946
221.825
228.404
234.61
240.39
245.694
250.486
254.76
258.547
261.883
264.801
267.346
269.598
271.655
273.572
275.34
276.919
278.292
279.509
280.627
281.676
282.63
283.502
284.271
284.929
285.544
286.114
286.63
287.086
287.487
287.843
288.163
288.443
288.684
288.887
289.059
289.207
289.333
289.439
289.528
289.604
289.664
289.7
289.697
289.641
289.521
289.339
289.102
288.804
288.373
287.642
286.335
284.196
281.071
277.111
272.662
268.372
264.645
261.829
259.922
258.261
256.239
253.475
251.108
249.849
250.024
250.939
251.561
252.942
254.083
255.529
252.068
248.223
233.877
217.753
187.989
146.071
108.015
49.121
43.6786
41.7845
24.8481
75.1449
48.2585
63.1236
65.7637
61.3836
69.2529
60.535
57.5302
27.8794
-10.4725
-37.348
-24.4688
29.1641
116.593
212.611
312.237
373.821
421.362
435.218
476.869
459.39
171.861
172.729
172.504
171.788
171.321
171.305
171.674
172.41
173.595
175.339
177.735
180.846
184.713
189.338
194.666
200.577
206.891
213.404
219.931
226.339
232.536
238.438
243.962
249.032
253.597
257.641
261.183
264.269
266.967
269.362
271.524
273.49
275.258
276.819
278.193
279.427
280.554
281.611
282.573
283.419
284.174
284.892
285.493
286.061
286.578
287.038
287.446
287.81
288.136
288.421
288.666
288.873
289.049
289.199
289.325
289.43
289.518
289.59
289.647
289.679
289.672
289.613
289.488
289.301
289.06
288.769
288.361
287.676
286.43
284.355
281.276
277.331
272.855
268.446
264.697
261.81
259.876
258.242
256.279
253.55
251.135
249.796
249.911
250.798
251.425
252.843
254.063
255.68
252.373
248.715
234.537
218.656
189.122
147.464
108.886
49.5621
42.7732
40.1623
20.2853
74.9852
48.4177
62.7253
65.5833
61.171
69.3434
60.6685
56.9447
26.2443
-12.4736
-39.8871
-27.6505
25.2095
112.397
208.458
308.573
371.1
419.592
434.298
476.841
459.785
176.194
177.118
177.059
176.533
176.21
176.284
176.685
177.373
178.404
179.865
181.834
184.372
187.531
191.345
195.811
200.872
206.411
212.274
218.303
224.366
230.368
236.217
241.814
247.062
251.882
256.225
260.076
263.456
266.414
269.014
271.314
273.353
275.148
276.72
278.109
279.363
280.513
281.562
282.515
283.363
284.115
284.777
285.439
286.015
286.528
286.992
287.406
287.778
288.11
288.4
288.65
288.861
289.041
289.192
289.318
289.422
289.507
289.576
289.628
289.655
289.643
289.579
289.448
289.253
289.005
288.721
288.336
287.698
286.521
284.516
281.49
277.564
273.058
268.605
264.74
261.763
259.787
258.174
256.284
253.615
251.161
249.736
249.787
250.641
251.273
252.736
254.056
255.835
252.708
249.221
235.211
219.589
190.299
148.906
109.533
50.0217
41.8932
38.1386
14.8462
74.7465
48.6246
62.3509
65.3835
60.912
69.4383
60.7569
56.0171
24.1547
-14.9037
-42.7861
-31.2764
20.796
107.785
203.906
304.484
368.042
417.584
433.319
476.822
460.215
180.302
181.25
181.316
180.942
180.734
180.875
181.298
181.952
182.872
184.129
185.786
187.895
190.505
193.661
197.389
201.676
206.457
211.63
217.072
222.666
228.317
233.939
239.44
244.722
249.694
254.29
258.467
262.206
265.51
268.4
270.909
273.081
274.959
276.592
278.029
279.316
280.48
281.534
282.481
283.313
284.072
284.76
285.376
285.961
286.489
286.946
287.369
287.747
288.085
288.381
288.635
288.852
289.035
289.187
289.313
289.414
289.496
289.56
289.606
289.627
289.61
289.539
289.399
289.194
288.937
288.652
288.291
287.705
286.603
284.679
281.713
277.811
273.273
268.736
264.778
261.689
259.651
258.048
256.243
253.665
251.186
249.674
249.653
250.469
251.106
252.617
254.037
255.992
253.058
249.765
235.879
220.549
191.544
150.416
109.881
50.3835
41.0641
35.2656
8.57711
74.366
48.903
62.0153
65.1814
60.5988
69.5233
60.7691
54.6865
21.6179
-17.7984
-46.0721
-35.4335
15.8408
102.662
198.903
299.933
364.609
415.342
432.272
476.796
460.68
184.197
185.147
185.308
185.056
184.939
185.13
185.567
186.192
187.027
188.131
189.555
191.34
193.527
196.161
199.279
202.892
206.977
211.473
216.296
221.353
226.553
231.821
237.081
242.247
247.234
251.967
256.383
260.434
264.086
267.32
270.134
272.549
274.608
276.372
277.905
279.255
280.45
281.512
282.455
283.295
284.043
284.725
285.351
285.916
286.434
286.924
287.339
287.719
288.062
288.363
288.623
288.845
289.031
289.184
289.309
289.408
289.485
289.544
289.583
289.596
289.571
289.493
289.342
289.123
288.852
288.56
288.225
287.691
286.672
284.841
281.946
278.075
273.506
268.895
264.806
261.592
259.469
257.858
256.145
253.697
251.213
249.606
249.509
250.28
250.925
252.496
254.03
256.153
253.426
250.345
236.534
221.538
192.882
152.04
109.943
50.5331
40.3914
31.8208
1.59326
73.7726
49.2794
61.7602
65.0049
60.2263
69.577
60.667
52.8934
18.642
-21.1885
-49.771
-40.2162
10.2826
96.9709
193.404
294.889
360.758
412.883
431.15
476.73
461.174
187.893
188.83
189.061
188.907
188.863
189.091
189.533
190.132
190.899
191.883
193.128
194.664
196.525
198.748
201.371
204.419
207.892
211.762
215.979
220.476
225.182
230.024
234.941
239.866
244.727
249.45
253.964
258.206
262.12
265.666
268.818
271.57
273.934
275.945
277.654
279.116
280.38
281.479
282.44
283.285
284.039
284.722
285.328
285.895
286.405
286.86
287.309
287.698
288.041
288.349
288.615
288.841
289.03
289.185
289.308
289.404
289.476
289.527
289.557
289.562
289.528
289.439
289.274
289.038
288.747
288.447
288.124
287.649
286.722
284.997
282.187
278.358
273.761
269.068
264.873
261.481
259.245
257.599
255.98
253.702
251.238
249.534
249.356
250.077
250.732
252.361
254.02
256.319
253.806
250.963
237.176
222.559
194.334
153.815
109.919
50.5264
40.0443
27.3748
-5.80918
72.8546
49.7782
61.5844
64.8922
59.7971
69.582
60.3871
50.5982
15.2462
-25.0782
-53.9238
-45.724
4.02046
90.596
187.328
289.317
356.439
410.226
429.933
476.577
461.688
191.403
192.313
192.596
192.522
192.535
192.789
193.231
193.805
194.515
195.402
196.504
197.846
199.452
201.352
203.579
206.162
209.115
212.431
216.086
220.04
224.24
228.628
233.144
237.738
242.355
246.93
251.396
255.685
259.737
263.502
266.941
270.027
272.749
275.107
277.113
278.795
280.199
281.383
282.398
283.275
284.043
284.725
285.337
285.886
286.392
286.857
287.276
287.672
288.034
288.341
288.609
288.841
289.034
289.19
289.312
289.403
289.469
289.511
289.531
289.525
289.48
289.379
289.197
288.938
288.621
288.303
287.988
287.571
286.744
285.144
282.436
278.664
274.045
269.274
264.882
261.365
258.989
257.272
255.738
253.67
251.258
249.457
249.189
249.858
250.528
252.235
254.013
256.48
254.189
251.61
237.807
223.618
195.917
155.761
110.234
50.3805
38.6806
22.7743
-13.0852
71.519
50.4277
61.5558
64.8951
59.317
69.5088
59.8815
47.762
11.4313
-29.4754
-58.5741
-52.0536
-3.01929
83.4118
180.581
283.174
351.592
407.365
428.598
476.278
462.207
194.736
195.612
195.93
195.92
195.98
196.251
196.69
197.239
197.9
198.706
199.691
200.875
202.278
203.922
205.834
208.04
210.56
213.401
216.556
220.004
223.713
227.64
231.734
235.947
240.238
244.561
248.857
253.067
257.133
261.001
264.625
267.969
271.003
273.707
276.066
278.08
279.76
281.138
282.27
283.217
284.03
284.735
285.35
285.899
286.402
286.842
287.271
287.658
288.007
288.337
288.615
288.847
289.041
289.199
289.32
289.407
289.465
289.498
289.505
289.487
289.428
289.313
289.11
288.823
288.471
288.124
287.81
287.44
286.73
285.273
282.688
278.995
274.367
269.527
265.114
261.27
258.717
256.884
255.412
253.585
251.264
249.365
249.003
249.619
250.314
252.09
254.005
256.634
254.569
252.28
238.431
224.716
197.644
157.823
111.467
50.2758
37.2492
18.1187
-19.2514
69.5952
51.2262
61.6404
65.0694
58.8083
69.3261
59.0713
44.3975
7.20142
-34.3624
-63.7962
-59.2973
-10.9858
75.2538
173.044
276.4
346.151
404.252
427.125
475.764
462.708
197.902
198.737
199.079
199.12
199.216
199.499
199.93
200.456
201.073
201.81
202.697
203.752
204.99
206.426
208.084
209.985
212.15
214.59
217.311
220.304
223.553
227.03
230.699
234.516
238.444
242.451
246.495
250.53
254.502
258.359
262.055
265.547
268.795
271.77
274.444
276.8
278.828
280.531
281.924
283.044
283.948
284.704
285.354
285.918
286.416
286.865
287.277
287.66
288.015
288.33
288.613
288.861
289.062
289.217
289.335
289.417
289.468
289.489
289.482
289.449
289.374
289.241
289.015
288.693
288.297
287.907
287.578
287.254
286.653
285.377
282.94
279.354
274.737
269.827
265.188
261.213
258.455
256.451
254.997
253.427
251.241
249.246
248.783
249.354
250.086
251.966
253.997
256.779
254.936
252.96
239.038
225.863
199.548
159.904
113.78
50.309
36.5096
14.3892
-23.5097
67.0668
52.1991
61.8404
65.4782
58.2912
69.0119
57.9236
40.519
2.52829
-39.757
-69.6817
-67.5438
-20.0045
65.9477
164.595
268.919
340.049
400.822
425.511
474.971
463.169
200.909
201.701
202.055
202.137
202.261
202.551
202.972
203.475
204.053
204.73
205.533
206.478
207.578
208.845
210.295
211.946
213.818
215.925
218.274
220.868
223.701
226.758
230.015
233.441
237
240.665
244.41
248.202
251.996
255.747
259.409
262.936
266.289
269.433
272.336
274.971
277.318
279.363
281.102
282.538
283.689
284.589
285.303
285.904
286.428
286.888
287.301
287.682
288.022
288.346
288.63
288.87
289.075
289.239
289.362
289.439
289.478
289.487
289.464
289.414
289.32
289.167
288.913
288.552
288.099
287.649
287.285
286.992
286.512
285.429
283.182
279.741
275.166
270.211
265.455
261.237
258.236
256
254.5
253.176
251.164
249.081
248.516
249.049
249.84
251.817
253.984
256.91
255.287
253.627
239.664
227.063
201.614
161.973
116.69
50.3649
35.8241
11.1226
-26.7334
63.7254
53.2853
62.1837
66.1714
57.8005
68.5316
56.3691
36.2054
-2.58905
-45.6691
-76.3473
-76.8531
-30.2702
55.3267
155.103
260.65
333.219
397.015
423.751
473.821
463.568
203.765
204.511
204.871
204.983
205.13
205.421
205.831
206.312
206.854
207.479
208.209
209.061
210.044
211.167
212.444
213.89
215.52
217.348
219.384
221.635
224.102
226.778
229.652
232.703
235.905
239.228
242.652
246.158
249.715
253.286
256.826
260.296
263.655
266.867
269.899
272.723
275.312
277.644
279.702
281.476
282.966
284.175
285.119
285.835
286.396
286.88
287.319
287.71
288.059
288.373
288.653
288.902
289.11
289.269
289.388
289.467
289.502
289.496
289.456
289.387
289.27
289.093
288.808
288.402
287.88
287.348
286.92
286.636
286.274
285.412
283.401
280.158
275.671
270.702
265.793
261.369
258.107
255.57
253.932
252.807
250.998
248.84
248.211
248.683
249.542
251.667
253.96
257.018
255.617
254.263
240.325
228.302
203.899
163.997
119.826
50.3039
35.4029
7.89915
-31.1691
59.7096
54.4649
62.5349
67.1811
57.382
67.8697
54.407
31.5495
-8.197
-52.1626
-83.9336
-87.2889
-41.938
43.2424
144.414
251.51
325.588
392.775
421.824
472.225
463.88
206.478
207.177
207.535
207.671
207.834
208.125
208.521
208.98
209.49
210.069
210.737
211.508
212.39
213.392
214.523
215.797
217.225
218.821
220.594
222.553
224.703
227.044
229.571
232.273
235.132
238.126
241.23
244.432
247.714
251.05
254.407
257.747
261.033
264.228
267.3
270.22
272.959
275.493
277.801
279.863
281.667
283.208
284.484
285.502
286.277
286.846
287.296
287.704
288.086
288.418
288.702
288.937
289.147
289.315
289.437
289.511
289.533
289.518
289.462
289.371
289.23
289.026
288.707
288.25
287.646
287.006
286.474
286.164
285.906
285.292
283.583
280.594
276.272
271.339
266.322
261.682
258.126
255.219
253.322
252.303
250.7
248.476
247.765
248.222
249.209
251.481
253.92
257.103
255.933
254.843
241.048
229.579
206.395
166.043
123.055
50.1211
35.2872
4.46576
-37.8931
54.6507
55.5486
62.7436
68.4746
57.0284
66.994
51.9595
26.6415
-14.2382
-59.3076
-92.5579
-98.901
-55.1974
29.5497
132.327
241.386
317.07
387.993
419.682
470.092
464.073
209.052
209.704
210.057
210.211
210.384
210.672
211.054
211.491
211.972
212.511
213.124
213.825
214.621
215.519
216.527
217.655
218.914
220.315
221.867
223.58
225.458
227.507
229.725
232.108
234.646
237.324
240.121
243.021
246.014
249.086
252.216
255.374
258.526
261.638
264.676
267.611
270.416
273.066
275.538
277.811
279.868
281.693
283.277
284.617
285.718
286.586
287.235
287.699
288.067
288.415
288.743
289.005
289.212
289.362
289.491
289.57
289.591
289.568
289.485
289.378
289.205
288.973
288.618
288.108
287.409
286.628
285.942
285.549
285.368
285.022
283.695
281.063
276.976
272.186
267.086
262.242
258.368
255.017
252.717
251.664
250.224
247.95
247.136
247.623
248.777
251.25
253.842
257.137
256.232
255.362
241.855
230.896
209.065
168.154
126.422
49.7234
35.2381
1.10194
-45.4262
48.7507
56.4287
62.6481
70.0436
56.8608
65.999
49.1245
21.5965
-20.7459
-67.1989
-102.347
-111.818
-70.3357
14.0749
118.568
230.108
307.563
382.488
417.282
467.369
464.074
211.494
212.101
212.444
212.61
212.791
213.073
213.44
213.856
214.309
214.812
215.378
216.018
216.74
217.548
218.45
219.454
220.57
221.806
223.172
224.674
226.32
228.116
230.062
232.16
234.404
236.786
239.292
241.906
244.615
247.414
250.292
253.23
256.203
259.178
262.125
265.014
267.816
270.506
273.063
275.466
277.697
279.737
281.573
283.192
284.59
285.769
286.737
287.5
288.06
288.438
288.726
289.005
289.271
289.455
289.568
289.645
289.668
289.641
289.548
289.407
289.211
288.95
288.552
287.985
287.183
286.234
285.323
284.764
284.602
284.54
283.691
281.519
277.86
273.283
268.205
263.196
258.927
255.057
252.177
250.891
249.52
247.172
246.277
246.815
248.226
250.938
253.732
257.149
256.524
255.798
242.739
232.234
211.897
170.298
130.039
49.235
35.1573
-1.51754
-53.2815
41.4752
57.2162
62.0828
71.6569
56.7459
64.7546
45.9145
16.4635
-27.5835
-75.9145
-113.443
-125.989
-87.5503
-3.43235
102.828
217.453
296.933
376.091
414.515
463.976
463.822
213.809
214.372
214.704
214.877
215.063
215.337
215.688
216.082
216.51
216.979
217.503
218.09
218.746
219.477
220.288
221.186
222.179
223.275
224.481
225.804
227.251
228.828
230.539
232.384
234.365
236.476
238.711
241.056
243.499
246.032
248.652
251.351
254.11
256.908
259.717
262.508
265.253
267.926
270.504
272.967
275.297
277.477
279.491
281.327
282.972
284.42
285.67
286.729
287.603
288.289
288.768
289.058
289.242
289.457
289.656
289.758
289.771
289.741
289.639
289.493
289.243
288.948
288.53
287.924
286.997
285.82
284.613
283.779
283.532
283.751
283.499
281.961
278.885
274.796
269.762
264.61
259.949
255.441
251.818
250.062
248.562
246.108
245.089
245.741
247.416
250.514
253.532
257.061
256.801
256.189
243.741
233.605
214.795
172.586
134.054
48.6538
35.3269
-3.59143
-60.8456
33.214
57.093
60.6395
73.3132
56.8201
63.4334
42.4321
11.3197
-34.7528
-85.5357
-126.001
-141.776
-107.216
-23.2747
84.7423
203.193
285.016
368.614
411.271
459.779
463.402
216.002
216.522
216.841
217.02
217.207
217.473
217.806
218.18
218.582
219.02
219.505
220.045
220.644
221.308
222.039
222.846
223.733
224.708
225.778
226.948
228.224
229.613
231.119
232.745
234.493
236.361
238.347
240.442
242.638
244.922
247.292
249.745
252.275
254.867
257.501
260.153
262.795
265.404
267.953
270.422
272.791
275.044
277.167
279.148
280.974
282.636
284.124
285.435
286.573
287.54
288.342
288.957
289.359
289.532
289.592
289.771
289.913
289.924
289.756
289.582
289.354
289.045
288.549
287.88
286.877
285.503
283.866
282.545
282.067
282.49
282.964
282.322
280.097
276.714
272.011
267.029
261.654
256.345
251.696
249.18
247.294
244.662
243.475
244.28
246.363
249.931
253.288
256.99
257.077
256.492
244.777
234.919
217.721
175.019
138.197
48.5853
35.5249
-4.59937
-67.6734
23.3162
57.0544
58.4156
74.4706
56.8869
61.9793
38.8883
6.20325
-42.1063
-96.0044
-140.166
-159.314
-129.438
-45.7728
63.9693
187.073
271.63
360.016
407.184
454.574
462.745
218.078
218.557
218.862
219.043
219.231
219.487
219.803
220.156
220.534
220.943
221.393
221.89
222.438
223.042
223.705
224.431
225.228
226.099
227.051
228.09
229.22
230.448
231.777
233.212
234.755
236.408
238.169
240.035
241.999
244.054
246.189
248.406
250.703
253.076
255.511
257.992
260.495
262.997
265.474
267.904
270.266
272.542
274.718
276.781
278.721
280.529
282.195
283.712
285.074
286.278
287.326
288.213
288.936
289.48
289.827
289.873
289.801
289.958
290.032
289.868
289.446
289.101
288.698
288.048
286.861
285.132
283.037
281.18
280.115
280.565
281.825
282.414
281.442
279.177
274.952
269.913
264.171