/*--------------------------------*- C++ -*----------------------------------*\
| =========                 |                                                 |
| \\      /  F ield         | OpenFOAM: The Open Source CFD Toolbox           |
|  \\    /   O peration     | Version:  2412                                  |
|   \\  /    A nd           | Website:  www.openfoam.com                      |
|    \\/     M anipulation  |                                                 |
\*---------------------------------------------------------------------------*/
FoamFile
{
    version     2.0;
    format      ascii;
    arch        "LSB;label=32;scalar=64";
    class       surfaceScalarField;
    location    "1.725";
    object      phi_0;
}
// * * * * * * * * * * * * * * * * * * * * * * * * * * * * * * * * * * * * * //

dimensions      [0 3 -1 0 0 0 0];

oriented        oriented;

internalField   nonuniform List<scalar> 
24930
(
0.01796
0.0127561
-0.0307219
0.0105974
0.00736261
0.00694795
0.00364946
0.00517252
0.00177543
0.00420078
0.000971739
0.00357805
0.000622719
0.00313226
0.000445795
0.00279284
0.000339411
0.00252374
0.000269103
0.00230388
0.000219854
0.00212012
0.000183756
0.00196373
0.000156386
0.00182866
0.000135065
0.00171057
0.000118089
0.00160625
0.000104322
0.00151326
9.29832e-05
0.00142975
8.35163e-05
0.00135422
7.55191e-05
0.00128553
6.86933e-05
0.00122272
6.2814e-05
0.00116501
5.77086e-05
0.00111176
5.32427e-05
0.00106245
4.93106e-05
0.00101662
4.58278e-05
0.000973898
4.27263e-05
0.000933947
3.99508e-05
0.000896491
3.74559e-05
0.000861288
3.52041e-05
0.000828124
3.31643e-05
0.000796815
3.13099e-05
0.000767196
2.96191e-05
0.000739124
2.80727e-05
0.00071247
2.6655e-05
0.000687119
2.53519e-05
0.000662968
2.41518e-05
0.000639924
2.30442e-05
0.000617905
2.20204e-05
0.000596833
2.10721e-05
0.000576641
2.01932e-05
0.000557265
1.93769e-05
0.000538646
1.86188e-05
0.000520734
1.79132e-05
0.000503477
1.72573e-05
0.000486831
1.66458e-05
0.000470754
1.60773e-05
0.000455208
1.55467e-05
0.000440153
1.50543e-05
0.000425559
1.45945e-05
0.00041139
1.41692e-05
0.000397618
1.37717e-05
0.000384212
1.34058e-05
0.000371148
1.3064e-05
0.000358396
1.2752e-05
0.000345935
1.24612e-05
0.000333737
1.21988e-05
0.000321783
1.19542e-05
0.000310046
1.17368e-05
0.000298511
1.15348e-05
0.000287152
1.136e-05
0.000275954
1.11991e-05
0.000264891
1.10641e-05
0.000253952
1.09404e-05
0.000243111
1.08404e-05
0.000232358
1.07522e-05
0.00022167
1.0688e-05
0.000211035
1.06375e-05
0.000200434
1.06046e-05
0.000189853
1.05834e-05
0.000179281
1.05701e-05
0.000168701
1.05764e-05
0.000158113
1.05858e-05
0.00014749
1.06259e-05
0.00013685
1.06465e-05
0.000126155
1.07006e-05
0.000115449
1.07048e-05
0.000104676
1.07663e-05
9.39156e-05
1.07552e-05
8.30828e-05
1.08343e-05
7.23047e-05
1.07866e-05
6.14632e-05
1.08501e-05
5.0748e-05
1.07151e-05
3.99929e-05
1.07449e-05
2.94642e-05
1.05175e-05
1.89331e-05
1.05314e-05
8.7553e-06
1.01928e-05
-1.36386e-06
1.01364e-05
-1.10364e-05
9.67234e-06
-2.04521e-05
9.39434e-06
-2.97342e-05
9.25762e-06
-3.75538e-05
7.81713e-06
-4.76687e-05
1.01436e-05
-5.08652e-05
3.24023e-06
-6.51654e-05
1.4307e-05
-6.41751e-05
-1.02698e-06
-6.80098e-05
3.80596e-06
-9.21428e-05
2.41378e-05
-5.41424e-05
-3.79835e-05
-0.000141102
8.6969e-05
-3.36743e-05
-0.000107438
-0.000160535
0.000126846
-0.000100883
-5.96559e-05
-2.14222e-05
-7.94069e-05
-0.000357192
0.000335732
4.17472e-05
-0.000398969
-0.000452722
0.000494456
-0.000183365
-0.000269347
-0.000185217
1.85675e-06
-0.000401228
0.000216061
0.000148864
-0.000550095
-0.0011314
0.00128028
-8.70456e-05
-0.00104445
-0.000315942
0.000228834
-0.00094313
0.00062726
0.000258582
-0.00120167
1.03395e-05
0.00024792
0.000327602
-0.000317007
-0.000458192
0.000785838
-0.000491392
3.32586e-05
0.000604222
-0.00109563
-3.27541e-05
0.0336667
0.0163246
-0.0372352
0.0277294
0.0132999
0.0221773
0.00920157
0.0179041
0.00604861
0.0148589
0.00401689
0.0126992
0.00278242
0.0111127
0.00203229
0.00989612
0.00155601
0.00892924
0.00123598
0.00813916
0.00100992
0.00747916
0.000843755
0.00691794
0.000717604
0.00643372
0.000619275
0.00601085
0.00054096
0.00563772
0.000477447
0.00530556
0.000425138
0.0050076
0.000381475
0.00473851
0.000344605
0.00449406
0.000313148
0.0042708
0.000286066
0.00406595
0.000262561
0.00387718
0.000242012
0.00370256
0.000223929
0.00354047
0.000207921
0.00338952
0.000193673
0.00324854
0.00018093
0.00311652
0.000169482
0.00299257
0.000159156
0.00287593
0.000149805
0.00276593
0.00014131
0.00266198
0.000133567
0.00256356
0.00012649
0.00247022
0.000120004
0.00238153
0.000114045
0.00229712
0.000108559
0.00221667
0.000103497
0.00213987
9.88202e-05
0.00206645
9.44901e-05
0.00199617
9.04769e-05
0.0019288
8.67512e-05
0.00186413
8.32907e-05
0.00180197
8.00712e-05
0.00174215
7.70771e-05
0.00168451
7.42875e-05
0.0016289
7.16924e-05
0.00157517
6.92725e-05
0.0015232
6.70232e-05
0.00147287
6.49253e-05
0.00142406
6.29795e-05
0.00137667
6.11654e-05
0.00133058
5.94891e-05
0.00128572
5.79283e-05
0.00124198
5.6495e-05
0.00119927
5.51637e-05
0.00115752
5.39522e-05
0.00111665
5.28311e-05
0.00107656
5.18234e-05
0.0010372
5.08965e-05
0.000998481
5.00783e-05
0.000960349
4.93336e-05
0.000922722
4.86921e-05
0.000885546
4.81175e-05
0.000848747
4.76399e-05
0.000812273
4.72276e-05
0.000776057
4.69056e-05
0.000740047
4.66504e-05
0.000704185
4.6468e-05
0.000668417
4.63528e-05
0.000632704
4.62837e-05
0.000596986
4.62956e-05
0.000561251
4.63223e-05
0.000525426
4.64529e-05
0.000489539
4.65366e-05
0.0004535
4.6743e-05
0.000417394
4.68128e-05
0.000381104
4.70551e-05
0.000344792
4.70645e-05
0.000308299
4.73261e-05
0.000271892
4.71978e-05
0.000235353
4.73945e-05
0.000199093
4.69776e-05
0.000162802
4.70308e-05
0.000127094
4.62178e-05
9.14786e-05
4.61458e-05
5.68995e-05
4.4782e-05
2.24847e-05
4.4563e-05
-1.02496e-05
4.24073e-05
-4.282e-05
4.195e-05
-7.38713e-05
4.02932e-05
-0.000101812
3.57601e-05
-0.000135124
4.34688e-05
-0.000147233
1.53793e-05
-0.000198156
6.52274e-05
-0.000186842
-1.2373e-05
-0.000219623
3.65875e-05
-0.000268183
7.26985e-05
-0.00018425
-0.000121922
-0.000421226
0.000323949
-0.000112432
-0.000416228
-0.000539737
0.000554148
-0.000272038
-0.00032734
-0.000118387
-0.000233051
-0.000988049
0.0012054
0.000110233
-0.00149725
-0.00139846
0.00200315
-0.000532556
-0.00113523
-0.000740432
0.000209743
-0.00110294
0.000578589
0.000355999
-0.00200907
-0.0031892
0.00482549
-0.000195914
-0.00403772
-0.00133726
0.00137017
-0.002709
0.00199899
0.000878127
-0.00478886
2.09901e-05
0.00110472
0.000978795
-0.00127447
-0.00143983
0.0032045
-0.00134605
-6.05241e-05
0.00197623
-0.00441791
-7.7651e-05
0.0414354
0.0160225
-0.0411333
0.0391431
0.0155922
0.0352119
0.0131327
0.0309254
0.0103352
0.0270111
0.00793113
0.023723
0.00607048
0.0210496
0.0047057
0.0188818
0.00372385
0.0171049
0.00301289
0.0156263
0.00248852
0.014377
0.00209297
0.0133069
0.00178774
0.0123789
0.00154723
0.0115657
0.00135419
0.0108464
0.00119676
0.010205
0.00106654
0.00962895
0.000957501
0.00910836
0.000865192
0.00863522
0.000786287
0.00820303
0.000718254
0.00780645
0.000659137
0.00744106
0.000607407
0.00710313
0.000561853
0.00678955
0.000521506
0.00649764
0.000485582
0.00622513
0.000453442
0.00597005
0.000424563
0.0057307
0.000398508
0.00550559
0.000374915
0.00529342
0.000353478
0.00509305
0.000333941
0.00490346
0.000316082
0.00472375
0.000299716
0.00455312
0.000284681
0.00439084
0.00027084
0.00423626
0.000258071
0.00408881
0.000246272
0.00394796
0.000235349
0.00381321
0.000225226
0.00368413
0.000215828
0.00356033
0.000207099
0.00344142
0.000198978
0.00332707
0.000191424
0.00321698
0.000184387
0.00311083
0.000177838
0.00300837
0.000171732
0.00290934
0.000166052
0.00281351
0.000160757
0.00272065
0.000155838
0.00263056
0.000151256
0.00254304
0.000147014
0.0024579
0.000143068
0.00237496
0.000139434
0.00229406
0.000136063
0.00221503
0.000132983
0.00213772
0.000130139
0.00206198
0.000127567
0.00198767
0.00012521
0.00191464
0.00012311
0.00184277
0.000121207
0.00177191
0.000119547
0.00170196
0.000118071
0.00163278
0.000116823
0.00156425
0.000115753
0.00149627
0.000114891
0.00142872
0.000114206
0.00136149
0.000113696
0.00129448
0.000113364
0.00122761
0.000113154
0.00116077
0.000113142
0.00109391
0.000113179
0.00102693
0.000113444
0.000959827
0.000113636
0.000892475
0.000114094
0.000824978
0.00011431
0.000757168
0.000114867
0.000689267
0.000114969
0.000621064
0.000115532
0.000552935
0.000115325
0.000484602
0.000115723
0.000416662
0.000114916
0.000348713
0.000114984
0.000281688
0.000113249
0.000214873
0.000112962
0.000149821
0.000109829
8.50364e-05
0.000109341
2.32599e-05
0.000104184
-3.83426e-05
0.000103562
-9.66152e-05
9.85761e-05
-0.00015052
8.96653e-05
-0.000212126
0.000105067
-0.000237821
4.10605e-05
-0.000332576
0.000159979
-0.000310494
-3.44437e-05
-0.000383891
0.000109988
-0.000451824
0.000140634
-0.000332708
-0.00024104
-0.000719726
0.000710967
-0.000210027
-0.000925926
-0.000974777
0.00131889
-0.000454456
-0.000847651
-0.00027303
-0.000414494
-0.00162158
0.00255397
0.000189383
-0.00330822
-0.00244092
0.00463345
-0.00092005
-0.00265609
-0.001486
0.000775671
-0.00183449
0.000927102
0.000553304
-0.0043969
-0.00521141
0.0105902
-0.000215437
-0.00903369
-0.00278138
0.00393614
-0.00449847
0.00371609
0.00168365
-0.010971
1.24293e-05
0.00277619
0.0017131
-0.00297541
-0.00253245
0.00745008
-0.00210845
-0.000484536
0.00360771
-0.0101341
-2.61981e-05
0.045897
0.0147241
-0.0445986
0.0459778
0.0155114
0.0443968
0.0147137
0.0416715
0.0130604
0.0384271
0.0111756
0.0351221
0.00937548
0.0320239
0.00780388
0.0292468
0.00650098
0.0268094
0.00545025
0.0246857
0.00461224
0.0228344
0.00394422
0.0212137
0.00340846
0.0197863
0.00297462
0.018521
0.00261946
0.0173923
0.00232549
0.0163793
0.00207959
0.0154649
0.00187186
0.0146353
0.00169476
0.0138791
0.00154254
0.0131866
0.00141068
0.0125501
0.00129569
0.0119627
0.00119475
0.011419
0.00110564
0.0109139
0.00102654
0.0104435
0.00095599
0.0100042
0.000892778
0.00959284
0.000835907
0.00920681
0.000784543
0.00884373
0.00073799
0.00850155
0.00069566
0.00817844
0.000657054
0.00787278
0.000621747
0.00758312
0.000589375
0.00730818
0.000559623
0.0070468
0.000532224
0.00679793
0.000506939
0.00656064
0.000483568
0.00633406
0.000461927
0.00611743
0.000441864
0.00591002
0.000423236
0.00571119
0.000405928
0.00552035
0.000389824
0.00533693
0.000374839
0.00516044
0.000360878
0.0049904
0.000347878
0.00482638
0.000335758
0.00466795
0.000324475
0.00451476
0.000313956
0.00436642
0.000304176
0.00422261
0.000295066
0.004083
0.00028662
0.0039473
0.000278767
0.00381522
0.000271518
0.00368648
0.0002648
0.00356083
0.000258641
0.00343801
0.00025296
0.00331777
0.000247802
0.0031999
0.00024308
0.00308417
0.000238848
0.00297035
0.00023502
0.00285825
0.000231653
0.00274766
0.000228666
0.00263837
0.000226111
0.0025302
0.000223921
0.00242297
0.000222126
0.00231649
0.000220692
0.00221059
0.000219593
0.0021051
0.000218857
0.00199989
0.000218367
0.00189477
0.000218262
0.00178968
0.000218274
0.00168442
0.000218707
0.001579
0.000219053
0.00147322
0.000219875
0.0013672
0.000220328
0.00126071
0.00022136
0.00115404
0.000221649
0.0010469
0.000222675
0.000939792
0.000222429
0.000832368
0.000223143
0.000725435
0.000221849
0.00061848
0.000221943
0.000512798
0.000218936
0.000407435
0.000218326
0.000304616
0.000212643
0.00020218
0.000211771
0.000104216
0.000202149
6.38522e-06
0.000201403
-8.58429e-05
0.000190815
-0.000172622
0.000176445
-0.000268935
0.000201373
-0.000314454
8.65585e-05
-0.00045968
0.000305203
-0.000430046
-6.40565e-05
-0.000553592
0.000233536
-0.000640549
0.000227593
-0.000494667
-0.000386924
-0.00103485
0.00125115
-0.000327055
-0.00163371
-0.0014579
0.00244973
-0.000654071
-0.00165147
-0.000489614
-0.000578969
-0.00225775
0.00432212
0.00028131
-0.00584728
-0.00357147
0.00848622
-0.00135435
-0.00487319
-0.0024372
0.0018585
-0.00261265
0.00110258
0.00073449
-0.00774408
-0.00714475
0.0184695
-0.000115712
-0.0160627
-0.00466152
0.00848197
-0.00628303
0.00533759
0.00267085
-0.019925
-1.60344e-05
0.0054631
0.00256152
-0.00555299
-0.00371116
0.0137228
-0.00273976
-0.00145594
0.00550546
-0.0183793
0.00025143
0.0493622
0.0135303
-0.0481684
0.0503244
0.0145492
0.0503408
0.0146973
0.0493169
0.0140843
0.0474707
0.0130218
0.0450949
0.0117513
0.0424611
0.0104376
0.0397759
0.00918619
0.0371739
0.00805222
0.0347296
0.00705658
0.032475
0.00619882
0.030416
0.00546744
0.0285442
0.00484642
0.0268446
0.00431911
0.0252999
0.0038701
0.0238935
0.00348608
0.0226094
0.00315592
0.0214337
0.00287045
0.020354
0.00262224
0.0193595
0.00240521
0.0184407
0.00221444
0.0175896
0.00204589
0.0167989
0.00189627
0.0160626
0.00176285
0.0153752
0.00164336
0.0147321
0.00153594
0.014129
0.00143901
0.0135623
0.00135124
0.0130287
0.00127152
0.0125255
0.0011989
0.01205
0.00113254
0.0116
0.00107177
0.0111734
0.00101598
0.0107684
0.00096465
0.0103833
0.000917326
0.0100166
0.000873615
0.00966699
0.000833178
0.00933321
0.000795708
0.00901413
0.000760945
0.00870872
0.00072865
0.00841602
0.000698622
0.00813518
0.000670672
0.00786537
0.000644646
0.00760586
0.000620389
0.00735595
0.000597787
0.00711501
0.000576706
0.00688241
0.000557067
0.00665762
0.00053875
0.00644009
0.000521707
0.00622933
0.000505825
0.00602487
0.000491083
0.00582626
0.000477372
0.00563308
0.000464697
0.00544494
0.000452948
0.00526143
0.000442152
0.00508219
0.000432196
0.00490687
0.000423126
0.00473512
0.000414824
0.00456662
0.000407353
0.00440105
0.000400595
0.00423809
0.000394616
0.00407744
0.00038931
0.00391882
0.000384732
0.00376194
0.000380805
0.00360653
0.000377542
0.00345231
0.000374918
0.00329904
0.000372864
0.00314644
0.000371451
0.00299434
0.000370471
0.00284245
0.000370157
0.00269066
0.00037007
0.00253868
0.00037069
0.0023865
0.000371225
0.00223384
0.00037254
0.00208083
0.000373337
0.00192715
0.000375041
0.00177316
0.000375644
0.00161848
0.000377353
0.00146377
0.000377145
0.00130855
0.000378354
0.0011539
0.000376505
0.000999153
0.00037669
0.000846028
0.000372065
0.000693295
0.00037106
0.00054393
0.000362004
0.000395065
0.000360633
0.000252276
0.000344939
0.000109707
0.000343978
-2.47139e-05
0.000325242
-0.00015297
0.000304702
-0.000291798
0.000340199
-0.000364974
0.000159724
-0.000568446
0.000508673
-0.000536329
-9.61619e-05
-0.000720494
0.000417701
-0.000827568
0.000334669
-0.000664725
-0.000549768
-0.00136062
0.00194704
-0.000460937
-0.0025334
-0.00198244
0.00397123
-0.000872861
-0.00276104
-0.000772654
-0.000679193
-0.00289075
0.00644023
0.00038615
-0.00912419
-0.00476943
0.0136418
-0.00183588
-0.00780672
-0.00360862
0.00363123
-0.00345094
0.000944917
0.000874354
-0.0120694
-0.00892666
0.0282705
0.000164125
-0.0251535
-0.0069559
0.015602
-0.00804004
0.00642173
0.00378307
-0.0317482
-7.48791e-05
0.00932109
0.00355641
-0.00918431
-0.00492875
0.022208
-0.00320087
-0.00318382
0.00765076
-0.029231
0.000878183
0.0528192
0.0126326
-0.0519215
0.0538467
0.0135216
0.0545293
0.0140147
0.0545968
0.0140168
0.0539967
0.0136219
0.0527983
0.0129496
0.0511312
0.0121047
0.0491417
0.0111756
0.0469646
0.0102293
0.0447104
0.00931079
0.0424613
0.00844791
0.0402733
0.0076554
0.038181
0.00693872
0.0362029
0.00629727
0.0343461
0.00572681
0.0326111
0.00522116
0.0309935
0.00477348
0.029487
0.00437696
0.028084
0.00402522
0.0267767
0.00371252
0.0255573
0.00343379
0.0244186
0.00318462
0.0233537
0.0029612
0.0223563
0.00276025
0.0214207
0.00257898
0.0205416
0.00241497
0.0197145
0.00226616
0.018935
0.00213078
0.0181992
0.00200728
0.0175037
0.00189436
0.0168454
0.00179087
0.0162214
0.0016958
0.0156291
0.0016083
0.0150661
0.00152761
0.0145304
0.00145307
0.0140199
0.0013841
0.0135329
0.00132018
0.0130677
0.00126087
0.0126229
0.00120577
0.0121971
0.00115451
0.0117889
0.0011068
0.0113972
0.00106235
0.0110209
0.00102091
0.0106591
0.000982252
0.0103107
0.000946198
0.00997483
0.000912544
0.00965073
0.000881162
0.00933761
0.000851871
0.00903473
0.000824588
0.00874141
0.000799147
0.00845699
0.000775503
0.00818086
0.0007535
0.00791243
0.000733129
0.00765114
0.000714234
0.00739646
0.000696839
0.00714787
0.000680786
0.00690487
0.000666126
0.00666699
0.000652699
0.00643378
0.000640573
0.00620478
0.000629597
0.00597955
0.00061984
0.00575769
0.000611172
0.00553878
0.000603642
0.00532243
0.000597164
0.00510824
0.000591729
0.00489584
0.000587325
0.00468488
0.000583825
0.00447497
0.000581357
0.00426585
0.000579592
0.00405712
0.000578889
0.00384862
0.000578583
0.00363992
0.000579388
0.00343101
0.00058014
0.00322146
0.000582091
0.00301143
0.000583362
0.00280049
0.000585986
0.00258907
0.000587072
0.00237666
0.000589759
0.00216408
0.000589721
0.00195075
0.000591692
0.00173798
0.000589269
0.00152498
0.000589695
0.00131391
0.000583132
0.00110325
0.00058172
0.000896812
0.000568444
0.000690964
0.00056648
0.000492913
0.000542991
0.000295125
0.000541772
0.000107906
0.000512465
-7.15532e-05
0.000484162
-0.000262323
0.000530967
-0.000372804
0.000270199
-0.000643749
0.000779618
-0.000616188
-0.000123716
-0.000872922
0.000674435
-0.00100263
0.000464376
-0.000834745
-0.000717649
-0.00168812
0.00280041
-0.0006061
-0.00361541
-0.00253791
0.00590303
-0.00110986
-0.00418908
-0.00112444
-0.000664605
-0.00351569
0.00883148
0.000502275
-0.0131422
-0.00600623
0.0201503
-0.00235935
-0.0114536
-0.00500286
0.00627474
-0.00436445
0.000306601
0.000927178
-0.0173611
-0.0105108
0.0397085
0.000675132
-0.0363394
-0.00958871
0.0258659
-0.00976679
0.00659981
0.00490244
-0.0464175
-0.000145236
0.0143688
0.00472868
-0.0140583
-0.00611235
0.0330491
-0.00345456
-0.00584161
0.00999645
-0.042682
0.00194552
0.0565379
0.011946
-0.0558513
0.0573909
0.0126686
0.0581867
0.0132189
0.0587125
0.013491
0.0588461
0.0134883
0.0585417
0.013254
0.0578088
0.0128377
0.0566952
0.0122892
0.0552695
0.011655
0.0536071
0.0109731
0.0517815
0.0102735
0.049858
0.00957887
0.0478913
0.00890548
0.0459242
0.00826432
0.0439889
0.00766213
0.0421077
0.00710232
0.0402954
0.00658582
0.0385605
0.00611183
0.0369073
0.00567844
0.0353368
0.00528303
0.0338479
0.00492267
0.0324382
0.00459436
0.0311042
0.00429513
0.0298423
0.0040222
0.0286483
0.00377296
0.0275182
0.00354505
0.0264481
0.00333634
0.0254339
0.00314491
0.0244722
0.00296905
0.0235593
0.00280722
0.0226921
0.00265808
0.0218675
0.0025204
0.0210827
0.00239312
0.020335
0.00227529
0.019622
0.00216605
0.0189415
0.00206464
0.0182912
0.00197041
0.0176694
0.00188273
0.0170741
0.00180108
0.0165036
0.00172498
0.0159564
0.00165399
0.015431
0.00158773
0.0149261
0.00152587
0.0144403
0.00146806
0.0139724
0.00141407
0.0135213
0.0013636
0.013086
0.00131647
0.0126655
0.00127244
0.0122587
0.00123136
0.0118648
0.00119301
0.011483
0.00115733
0.0111124
0.00112409
0.0107523
0.00109326
0.0104019
0.00106464
0.0100605
0.00103824
0.00972743
0.00101385
0.00940203
0.000991525
0.00908367
0.000971059
0.00877173
0.000952518
0.00846562
0.000935715
0.00816474
0.000920717
0.00786854
0.00090737
0.00757648
0.00089571
0.00728799
0.000885649
0.00700259
0.000877135
0.00671973
0.00087019
0.00643895
0.000864599
0.00615974
0.000860578
0.0058817
0.00085763
0.00560431
0.000856285
0.00532731
0.000855589
0.00505014
0.000856553
0.00477274
0.00085754
0.00449454
0.000860298
0.0042157
0.000862203
0.00393562
0.000866063
0.00365483
0.000867865
0.00337267
0.000871925
0.00309012
0.000872271
0.00280642
0.000875389
0.00252323
0.000872455
0.00223953
0.000873398
0.00195804
0.000864632
0.00167685
0.000862906
0.00140072
0.000844569
0.00112524
0.000841966
0.000859349
0.000808881
0.000593777
0.000807348
0.000341494
0.000764751
9.85851e-05
0.000727071
-0.000155827
0.000785378
-0.00031537
0.000429739
-0.000665141
0.00112939
-0.000651252
-0.000137601
-0.000994597
0.00101778
-0.00115105
0.000620833
-0.000992758
-0.000875943
-0.0020048
0.00381245
-0.000753098
-0.00486711
-0.00310947
0.00825939
-0.00136015
-0.00593839
-0.0015424
-0.000482345
-0.00412998
0.0114191
0.000625245
-0.0178974
-0.0072495
0.028025
-0.00291231
-0.0157908
-0.00660328
0.00996571
-0.00537008
-0.000926644
0.000824211
-0.0235554
-0.0118918
0.0524245
0.00142897
-0.0496602
-0.0124134
0.0397083
-0.011479
0.0056654
0.00584655
-0.063743
-0.000242978
0.0204584
0.00609902
-0.0204003
-0.00716302
0.0463112
-0.00346747
-0.00953715
0.0124654
-0.0586148
0.0034856
0.0605417
0.0113831
-0.0599789
0.0612257
0.0119846
0.0619399
0.0125048
0.0625613
0.0128696
0.0629925
0.0130571
0.0631695
0.013077
0.0630566
0.0129505
0.0626436
0.0127023
0.0619405
0.0123581
0.0609721
0.0119415
0.0597728
0.0114728
0.0583824
0.0109693
0.0568421
0.0104458
0.055192
0.00991444
0.053469
0.00938517
0.0517054
0.00886586
0.0499287
0.00836256
0.0481608
0.00787969
0.046419
0.0074202
0.0447162
0.00698586
0.0430614
0.00657743
0.0414609
0.00619491
0.0399183
0.00583773
0.0384356
0.00550494
0.0370132
0.00519531
0.0356507
0.00490751
0.034347
0.00464011
0.0331002
0.00439171
0.0319083
0.00416092
0.0307691
0.00394641
0.0296802
0.00374695
0.0286393
0.00356137
0.0276438
0.00338858
0.0266915
0.00322759
0.0257801
0.0030775
0.0249073
0.00293745
0.024071
0.0028067
0.0232691
0.00268455
0.0224999
0.00257036
0.0217613
0.00246355
0.0210517
0.00236361
0.0203694
0.00227005
0.0197128
0.00218246
0.0190804
0.00210042
0.0184709
0.00202362
0.0178828
0.00195168
0.0173149
0.00188436
0.016766
0.00182134
0.0162349
0.00176245
0.0157205
0.00170738
0.0152218
0.00165604
0.0147378
0.00160814
0.0142674
0.00156364
0.0138098
0.00152226
0.013364
0.00148402
0.0129292
0.00144864
0.0125046
0.00141618
0.0120892
0.00138638
0.0116825
0.00135931
0.0112834
0.00133473
0.0108914
0.00131271
0.0105057
0.00129308
0.0101256
0.00127584
0.00975033
0.00126092
0.00937926
0.00124821
0.00901168
0.00123777
0.008647
0.00122929
0.0082845
0.00122308
0.00792369
0.00121844
0.00756385
0.00121613
0.00720463
0.00121481
0.0068453
0.00121589
0.0064857
0.00121713
0.00612509
0.00122091
0.00576363
0.00122366
0.00540054
0.00122916
0.0050364
0.00123201
0.00467035
0.00123797
0.00430358
0.00123904
0.00393511
0.00124386
0.00356697
0.0012406
0.00319786
0.00124251
0.0028311
0.00123139
0.00246441
0.0012296
0.00210356
0.00120541
0.0017433
0.00120223
0.00139448
0.00115771
0.00104601
0.00115582
0.000713846
0.00109692
0.000392716
0.0010482
6.03604e-05
0.00111773
-0.000162114
0.000652212
-0.000605301
0.00157258
-0.000616233
-0.000126668
-0.00106317
0.00146472
-0.0012523
0.000809963
-0.00112166
-0.00100658
-0.00229344
0.00498423
-0.00088756
-0.00627299
-0.0036771
0.0110489
-0.00161354
-0.00800193
-0.00201745
-7.84785e-05
-0.00473251
0.0141341
0.000747545
-0.0233774
-0.00846681
0.0372394
-0.00347585
-0.0207817
-0.00836864
0.0148585
-0.00647896
-0.0028163
0.000472652
-0.0305071
-0.0131178
0.0660149
0.00243736
-0.0652154
-0.0152127
0.0573584
-0.0131909
0.00364363
0.00639205
-0.0833261
-0.000400952
0.0272514
0.00766462
-0.0284659
-0.00795567
0.0619315
-0.00320432
-0.0142885
0.0149525
-0.0767716
0.00544758
0.0648244
0.0108989
-0.0643402
0.0653895
0.0114195
0.0659967
0.0118975
0.066581
0.0122853
0.0670797
0.0125584
0.0674444
0.0127124
0.0676395
0.0127554
0.0676412
0.0127006
0.0674361
0.0125631
0.0670203
0.0123573
0.0663974
0.0120957
0.0655778
0.0117888
0.0645775
0.0114461
0.0634163
0.0110756
0.0621169
0.0106846
0.0607035
0.0102793
0.0592003
0.00986577
0.0576307
0.0094492
0.0560167
0.00903429
0.0543774
0.00862508
0.0527299
0.00822494
0.0510883
0.00783657
0.049464
0.00746198
0.0478663
0.00710261
0.0463023
0.00675938
0.044777
0.00643275
0.0432943
0.00612284
0.0418565
0.00582948
0.0404651
0.00555232
0.0391207
0.00529083
0.0378233
0.0050444
0.0365723
0.00481234
0.035367
0.00459393
0.0342061
0.00438846
0.0330884
0.00419521
0.0320124
0.00401348
0.0309765
0.00384259
0.0299791
0.0036819
0.0290187
0.00353081
0.0280935
0.00338873
0.027202
0.00325515
0.0263425
0.00312953
0.0255135
0.00301145
0.0247135
0.00290044
0.0239409
0.00279615
0.0231945
0.00269816
0.0224726
0.00260618
0.0217741
0.00251984
0.0210976
0.00243894
0.0204419
0.00236312
0.0198057
0.00229224
0.0191879
0.00222598
0.0185872
0.00216428
0.0180027
0.00210679
0.0174332
0.00205353
0.0168776
0.00200418
0.016335
0.00195878
0.0158044
0.00191702
0.0152847
0.00187897
0.0147751
0.00184437
0.0142746
0.00181327
0.0137822
0.00178547
0.0132971
0.00176096
0.0128183
0.00173967
0.0123451
0.00172143
0.0118765
0.00170637
0.0114118
0.00169401
0.01095
0.00168486
0.0104905
0.00167793
0.0100324
0.00167426
0.00957514
0.00167206
0.00911782
0.00167322
0.00866021
0.00167475
0.00820129
0.00167983
0.00774123
0.00168372
0.00727899
0.00169141
0.00681525
0.00169576
0.00634886
0.00170436
0.00588126
0.00170663
0.00541117
0.00171395
0.00494102
0.00171075
0.00446918
0.00171435
0.00399969
0.00170088
0.00352976
0.00169952
0.00306634
0.00166883
0.00260327
0.0016653
0.00215345
0.00160754
0.00170396
0.0016053
0.00127397
0.00152692
0.000856487
0.00146568
0.000428867
0.00154535
0.000125454
0.000955624
-0.000428326
0.00212636
-0.000476525
-7.84707e-05
-0.00104847
0.00203667
-0.001278
0.0010395
-0.00119758
-0.00108701
-0.00253054
0.0063172
-0.000988783
-0.00781475
-0.00421485
0.014275
-0.00185168
-0.0103651
-0.00252986
0.00059973
-0.00532105
0.0169253
0.000859597
-0.0295581
-0.0096298
0.0477288
-0.00402441
-0.0263871
-0.0102294
0.0210635
-0.00768741
-0.00535828
-0.000175454
-0.038019
-0.0142905
0.08013
0.00367283
-0.0831787
-0.0177145
0.0787458
-0.0148796
0.000808477
0.00633377
-0.104539
-0.000668156
0.0342534
0.00938543
-0.0385195
-0.00834788
0.0796649
-0.002619
-0.0200174
0.0173406
-0.0967313
0.00768639
0.0693948
0.0104716
-0.0689676
0.069878
0.0109364
0.0703981
0.0113774
0.0709195
0.0117638
0.0714026
0.0120753
0.0718134
0.0123015
0.0721261
0.0124427
0.0723212
0.0125055
0.0723845
0.0124998
0.0723061
0.0124357
0.0720791
0.0123228
0.0716996
0.0121683
0.0711669
0.0119787
0.0704835
0.011759
0.0696548
0.0115132
0.0686893
0.0112448
0.0675982
0.0109569
0.0663948
0.0106526
0.0650941
0.010335
0.0637119
0.0100073
0.0622643
0.00967255
0.0607669
0.00933399
0.0592343
0.0089945
0.0576802
0.00865677
0.0561164
0.00832316
0.0545534
0.00799571
0.0530002
0.0076761
0.051464
0.00736566
0.0499509
0.00706541
0.0484657
0.00677606
0.047012
0.00649808
0.0455926
0.00623172
0.0442095
0.00597708
0.0428638
0.00573409
0.0415565
0.0055026
0.0402876
0.00528235
0.0390571
0.00507306
0.0378647
0.00487435
0.0367096
0.00468589
0.0355911
0.00450725
0.0345081
0.00433808
0.0334597
0.00417794
0.0324447
0.0040265
0.0314618
0.00388334
0.0305098
0.00374815
0.0295874
0.00362053
0.0286934
0.00350022
0.0278264
0.00338684
0.0269851
0.00328019
0.0261684
0.00317989
0.0253748
0.00308582
0.0246031
0.00299762
0.0238522
0.00291521
0.0231207
0.00283825
0.0224076
0.00276673
0.0217114
0.0027003
0.0210312
0.002639
0.0203657
0.0025825
0.0197138
0.00253086
0.0190744
0.00248379
0.0184463
0.00244135
0.0178285
0.00240331
0.0172198
0.00236965
0.0166192
0.00234032
0.0160255
0.00231507
0.0154378
0.00229412
0.014855
0.00227683
0.0142759
0.00226389
0.0136999
0.00225399
0.0131256
0.00224855
0.0125525
0.0022452
0.0119792
0.00224645
0.0114056
0.0022484
0.0108302
0.00225518
0.0102533
0.00226064
0.00967346
0.00227127
0.00909143
0.00227778
0.00850577
0.00229002
0.00791813
0.00229427
0.00732686
0.00230522
0.00673488
0.00230273
0.00614013
0.0023091
0.00554743
0.00229359
0.00495342
0.00229353
0.00436636
0.00225589
0.00377911
0.00225255
0.00320678
0.00217987
0.00263463
0.00217746
0.00208523
0.00207632
0.00154965
0.00200125
0.00100601
0.002089
0.000596196
0.00136544
-8.97164e-05
0.00281227
-0.000183248
1.50579e-05
-0.000910372
0.00276379
-0.00118931
0.00131844
-0.00118783
-0.00108849
-0.0026841
0.00781347
-0.0010278
-0.00947104
-0.00468968
0.0179368
-0.00204663
-0.0130081
-0.00304906
0.00160211
-0.00588832
0.0197646
0.000952952
-0.0363994
-0.0107162
0.0593979
-0.00452703
-0.0325762
-0.0120934
0.0286299
-0.00897226
-0.00847938
-0.000984987
-0.0460063
-0.0155466
0.0946916
0.0050716
-0.103797
-0.0196284
0.103446
-0.0164465
-0.00237322
0.00557063
-0.126557
-0.00109181
0.0409158
0.0111764
-0.0507878
-0.00819498
0.0990363
-0.0016393
-0.0265731
0.0195266
-0.117897
0.00997305
0.0742724
0.0100889
-0.0738897
0.0746964
0.0105124
0.0751507
0.0109231
0.0756144
0.0113001
0.0760619
0.0116279
0.0764685
0.011895
0.0768143
0.0120968
0.0770849
0.012235
0.0772698
0.0123149
0.0773616
0.0123439
0.0773545
0.0123298
0.0772435
0.0122794
0.0770242
0.0121981
0.0766926
0.0120906
0.0762456
0.0119602
0.0756813
0.0118091
0.0749996
0.0116387
0.0742021
0.0114501
0.0732927
0.0112444
0.0722774
0.0110225
0.0711643
0.0107857
0.0699628
0.0105355
0.0686835
0.0102738
0.0673378
0.0100025
0.0659373
0.00972364
0.0644935
0.00943952
0.0630173
0.00915225
0.0615191
0.00886386
0.0600083
0.00857627
0.0584932
0.00829116
0.0569812
0.00801005
0.0554788
0.00773418
0.0539912
0.00746462
0.0525231
0.00720221
0.0510781
0.00694763
0.0496591
0.00670137
0.0482683
0.00646379
0.0469076
0.00623511
0.045578
0.00601546
0.0442804
0.00580487
0.0430151
0.00560333
0.0417824
0.00541072
0.0405819
0.00522697
0.0394134
0.00505186
0.0382763
0.00488528
0.0371698
0.00472696
0.0360933
0.00457677
0.0350457
0.00443441
0.0340261
0.00429979
0.0330334
0.00417256
0.0320666
0.00405269
0.0311244
0.0039398
0.0302057
0.00383391
0.0293093
0.00373464
0.028434
0.00364206
0.0275785
0.00355578
0.0267416
0.00347589
0.0259221
0.00340203
0.0251186
0.00333432
0.02433
0.00327242
0.0235549
0.00321641
0.0227922
0.0031661
0.0220404
0.00312141
0.0212984
0.00308236
0.0205648
0.0030486
0.0198385
0.00302049
0.0191181
0.00299719
0.0184023
0.00297965
0.0176902
0.00296617
0.0169801
0.00295862
0.0162713
0.00295396
0.0155623
0.00295545
0.0148527
0.00295808
0.0141407
0.0029672
0.0134264
0.00297489
0.0127081
0.00298954
0.0119867
0.00299918
0.0112603
0.00301647
0.0105307
0.00302383
0.00979594
0.00304002
0.00905936
0.00303932
0.00831838
0.00305008
0.00757873
0.00303324
0.00683636
0.0030359
0.006101
0.00299125
0.00536443
0.00298912
0.0046442
0.00290011
0.00392364
0.00289802
0.00322907
0.00277089
0.00254932
0.002681
0.0018645
0.00277382
0.00132245
0.00190749
0.000495933
0.00363879
0.000303297
0.000207714
-0.000596815
0.00366391
-0.000932978
0.0016546
-0.00104843
-0.000973041
-0.00271062
0.00947565
-0.000964687
-0.011217
-0.00505974
0.0220319
-0.00215924
-0.0159086
-0.00353111
0.00297397
-0.00641581
0.0226493
0.00102605
-0.0438412
-0.011708
0.0721319
-0.00494653
-0.0393377
-0.013851
0.0375344
-0.0102796
-0.0120508
-0.00214778
-0.0541381
-0.0170113