/*--------------------------------*- C++ -*----------------------------------*\
| =========                 |                                                 |
| \\      /  F ield         | OpenFOAM: The Open Source CFD Toolbox           |
|  \\    /   O peration     | Version:  2412                                  |
|   \\  /    A nd           | Website:  www.openfoam.com                      |
|    \\/     M anipulation  |                                                 |
\*---------------------------------------------------------------------------*/
FoamFile
{
    version     2.0;
    format      ascii;
    arch        "LSB;label=32;scalar=64";
    class       surfaceScalarField;
    location    "0.45";
    object      ddtCorrDdt0(phi);
}
// * * * * * * * * * * * * * * * * * * * * * * * * * * * * * * * * * * * * * //

dimensions      [0 3 -2 0 0 0 0];

oriented        oriented;

internalField   nonuniform List<scalar> 
24930
(
-0.00443089
-0.0124819
0.00149557
-0.00280556
-0.00887768
-0.000474998
-0.00214582
0.000352596
-0.000329675
0.000208851
-8.57642e-05
-0.000111504
-5.5113e-05
-0.000400145
-0.000620437
-0.000578084
-0.00140296
-0.000685878
-0.00139569
-0.00099695
-0.000317696
-0.00101487
0.000324078
-0.00110689
0.0011042
-0.00110669
0.000732367
-0.000843242
-0.000840753
-0.000713863
-0.00138874
-0.000553183
-0.000140143
1.89413e-05
5.44963e-05
0.0003936
-0.00215851
-0.00111351
-0.00136424
-0.00107577
0.00164034
0.00330358
-0.000948956
-0.000568278
0.00494673
-0.000861945
-0.00552467
0.00533754
-0.0193074
-0.00359985
0.0361425
-0.000772862
0.00355364
0.00681557
-0.0275819
0.000141911
0.0324672
0.000877766
0.0309742
-0.0012237
-0.00527716
0.00070816
-0.00195322
-0.000562858
-0.00699633
-0.000511604
9.18369e-05
0.000394583
0.00381113
0.000229189
0.00149661
-0.000263987
-0.000303488
-6.44103e-05
9.53164e-05
0.000220539
0.000887689
0.000175493
0.00113218
7.00127e-05
0.000978793
0.00015601
0.000677931
0.000229858
0.000596868
0.000249143
0.000492928
0.000116289
0.000397208
0.000100863
-0.000193985
0.000101972
-0.00033762
6.61283e-05
-0.000153692
5.21811e-05
-0.000255043
7.91779e-05
-0.00101426
0.000218225
-0.00203287
0.000353704
-0.00177262
0.000581274
-0.0004275
0.000768383
0.000324592
0.000562348
7.64153e-05
-0.000229185
1.45594e-05
-0.00114488
0.00125762
-0.00155525
0.000303925
-0.00166035
-0.000466749
-0.0016267
0.000453783
-0.00134331
0.000649568
-0.000859743
-0.00090401
-0.000119541
-0.00221101
0.000297538
-0.00399659
0.00309958
-0.0133066
0.00488986
-0.00894584
0.00605851
0.00569429
0.00460793
0.0173308
0.000986306
-0.000342749
-0.00337371
-0.00942762
-0.00546975
0.00926526
2.52574e-05
0.00358609
0.010109
-0.0142568
0.0192603
0.00261479
0.0212477
-0.00693957
-0.0215402
0.0627364
-0.0596813
0.0716775
-0.116918
0.0171614
-0.0487511
-0.115688
0.213918
-0.168087
0.0921967
0.179267
-0.0231672
0.13316
0.0220437
-0.0635606
-0.0317546
0.00948426
-0.0381744
-0.0275008
-0.00932173
-0.0136451
0.0218864
-0.0406477
0.0693591
-0.0675342
0.0975261
-0.0223461
0.0770033
0.0348624
0.0448805
0.0528073
-0.0120555
0.0688468
-0.0623908
0.0803754
-0.0780897
0.0324676
-0.0710772
-0.0138038
-0.0452843
-0.0396901
-0.0285635
-0.0317595
-0.0181875
-0.026933
-0.0038504
-0.0219263
-0.0039717
-0.00501936
-0.0109882
0.0138303
-0.0139862
0.00481379
-0.0103331
-0.000210739
0.0189696
0.0105975
0.0521547
-0.0167108
0.0250979
0.0439933
0.0082934
0.0355002
-0.0243339
-0.0352203
-0.0129698
0.00166431
-0.00655978
-0.0129896
-0.00375896
-0.00527813
0.000149302
-0.00568739
0.00291562
-0.0137863
0.00642099
-0.00366088
0.00944247
0.00121766
0.0109628
0.00341123
0.0100218
-0.00154029
0.00521315
0.00506893
0.00032457
0.00441884
-0.00559927
0.00612528
0.00226283
-0.0112378
-0.0134295
0.00757487
-0.00894606
-0.0122326
-0.00500007
-0.00535282
-0.0028314
-0.00231364
-0.00232834
-0.00128352
-0.00242425
-0.000755187
-0.00251761
-0.000511427
-0.00247933
-0.000617717
-0.00241667
-0.000724931
-0.00236713
-0.000501191
-0.0025854
-0.000374422
-0.00289173
8.72887e-05
-0.00314004
0.000754177
-0.0030695
0.000880668
-0.00317205
1.627e-06
-0.00214333
-0.00247399
-0.00111889
-0.00280933
-0.00108377
-0.000590818
-0.00244793
0.00206815
-0.000763755
0.000514021
0.00354859
-0.00653972
-0.00139556
-0.000102149
-0.000679546
0.00986397
0.00584545
-0.0147748
-0.00300847
0.0195914
-0.00091191
0.0141396
0.00745327
-0.000923342
0.000352382
0.0305461
0.00103216
0.0334477
-0.000233649
-0.0118045
0.00151773
-0.0048828
-5.10905e-05
-0.00663664
0.000207374
0.00207224
0.00107226
0.00300066
0.000739665
-0.000902317
0.000253393
-0.000912825
0.000495022
0.0011151
0.000714092
0.00105636
0.000609415
4.32252e-06
0.000508381
0.000151874
0.000611299
0.000715427
0.000676176
0.000672759
0.000667589
0.000136877
0.000554031
7.86744e-05
0.000554202
7.54121e-06
0.000541386
2.63578e-05
0.000477285
3.66432e-05
0.000428198
3.51455e-05
0.000418861
-0.000106838
0.000479791
-0.000315398
0.000586263
-0.00041575
0.000771479
-0.000191896
0.000902761
-5.87477e-05
0.000592751
0.00015821
-0.000310388
0.000517176
-0.00125156
9.48745e-05
-0.00175784
-0.0013511
-0.00196374
-0.00126895
-0.00203296
0.000503268
-0.00178125
0.00103364
-0.00120551
8.90803e-05
-0.000117518
-3.36782e-05
0.000631884
-0.00310711
0.0043292
0.00335144
0.00686973
-0.0038886
0.00848698
-0.00012608
0.00746971
0.00593503
0.00479147
0.000872772
0.00277981
-0.0087292
0.00594299
-0.0107891
0.0171252
-0.0156555
0.0324377
-0.0193213
0.0395902
0.0124661
0.0216947
0.0438822
-0.0732212
0.139458
-0.175506
0.16459
-0.347133
0.181792
-0.0642442
-0.415007
0.577017
-0.755559
0.245161
0.499604
-0.0528812
0.391388
0.0419767
-0.133272
-0.0611772
0.0804699
-0.0723525
-0.0372117
-0.0137173
-0.0436292
0.0803279
-0.121984
0.227167
-0.178737
0.296689
-0.0724165
0.237015
0.0859256
0.122662
0.155885
-0.0456125
0.198554
-0.19765
0.229062
-0.254577
0.0942207
-0.229131
-0.0360331
-0.157092
-0.105665
-0.100358
-0.0783249
-0.0588476
-0.0614323
-0.0122967
-0.0711794
-0.00393045
-0.0175016
-0.024337
0.0229865
-0.0384399
0.0192746
-0.015345
-0.0284336
0.0722507
-0.0935984
0.144546
-0.0793528
0.0845049
0.0645746
-0.00103159
0.158512
-0.0640866
0.0331211
-0.0420366
-0.00230015
-0.0210319
-0.0323951
-0.00919395
-0.0164103
0.00229453
-0.013406
0.0123302
-0.0162927
0.023451
-0.0181047
0.031866
-0.0122909
0.0342995
-0.00279888
0.0283877
0.0106993
0.0124772
0.0214393
-0.00324415
0.0205846
-0.0211636
0.0240012
0.00875429
-0.0141879
-0.0111611
0.0114527
-0.012351
-0.0106063
-0.00965103
-0.006911
-0.00741324
-0.00430747
-0.00625569
-0.00272317
-0.00585663
-0.00198182
-0.00567144
-0.00176221
-0.00542795
-0.00173634
-0.00517974
-0.00138022
-0.00499036
-0.000412028
-0.00509104
0.000501977
-0.00532763
0.000960896
-0.00566417
0.000870978
-0.00573704
0.000400247
-0.00528546
-0.000319392
-0.00391082
-0.00234205
-0.00241769
-0.0034136
-0.00239831
-0.00254919
-0.00386826
0.000412453
-0.00128223
0.00222533
0.00346029
-0.00323842
-0.0017358
-0.00735022
-0.0011033
0.0166279
0.00521751
0.00581697
-0.00198474
-0.0222668
-0.00189783
0.0132892
0.00720199
0.0195556
0.000669386
3.84864e-05
0.000247038
0.0197321
0.000689189
-0.0102109
0.00179184
-0.00494499
0.000407065
-0.00535551
0.000597727
0.0015779
0.00131037
0.00249812
0.00103393
-0.00106594
0.000620934
-0.00105194
0.000843769
0.00134504
0.0010339
0.00148873
0.000946468
0.000161064
0.000861844
9.50959e-05
0.000970051
0.00075115
0.00103559
0.000866052
0.00103223
0.000276462
0.000931754
0.000157278
0.00094379
9.39948e-06
0.000933843
-8.88382e-05
0.000865659
-0.000252529
0.000805943
-0.000321966
0.000782498
-0.00039071
0.000812816
-0.000436082
0.000899064
-0.000405539
0.00104222
-0.000305687
0.00110851
-0.000292158
0.00069606
-6.28623e-05
-0.000324568
0.000243304
-0.00136062
-0.000296246
-0.00192101
-0.00148264
-0.0021595
-0.00105112
-0.00225403
0.000713925
-0.00195795
0.00124177
-0.00120337
0.000445803
0.00025673
0.000804076
0.00178092
-0.00449633
0.00577915
0.00634288
0.00925481
-0.00517415
0.0111704
-0.00136348
0.0102594
-0.00440542
0.00908321
-0.00272314
0.00947386
-0.0192813
0.0178459
-0.0283933
0.0353034
-0.0309926
0.0547003
-0.0279668
0.05714
0.0260122
0.0190696
0.0972485
-0.121177
0.249699
-0.273412
0.319778
-0.583486
0.489981
-0.109947
-0.894996
0.933016
-1.74341
0.430399
0.979497
-0.0666027
0.832061
0.0510981
-0.267894
-0.0885384
0.186084
-0.104507
-0.0372115
-0.0058783
-0.107604
0.164591
-0.285588
0.413652
-0.419358
0.50372
-0.157355
0.377096
0.198422
0.171558
0.361768
-0.101477
0.511215
-0.345504
0.472496
-0.432683
0.186444
-0.385775
-0.0828935
-0.269143
-0.222663
-0.172582
-0.174615
-0.100367
-0.136327
-0.021593
-0.153846
-0.00498546
-0.0371679
-0.0395953
0.0544114
-0.0614967
0.0471287
-0.0111266
-0.0794597
0.13771
-0.241383
0.241494
-0.162741
0.135984
0.140221
-0.0169978
0.351236
-0.104961
0.0910621
-0.0704581
-0.0188236
-0.0345129
-0.0693231
-0.0132023
-0.0384681
0.00640568
-0.0312238
0.0240746
-0.0339385
0.0424506
-0.0373801
0.0550189
-0.0250749
0.0560047
-0.00535617
0.0430373
0.0252616
0.0151634
0.0497098
-0.0126159
0.0485077
-0.0410733
0.0526014
0.0189683
-0.0141586
-0.00666154
0.012546
-0.0137347
-0.00755333
-0.0129349
-0.00669884
-0.0117842
-0.00541009
-0.0108661
-0.00415763
-0.0103486
-0.00330641
-0.00997235
-0.00285049
-0.00954595
-0.00261994
-0.00913338
-0.00208208
-0.00880678
-0.000664969
-0.00867339
0.00109277
-0.00865329
0.00203653
-0.00883231
0.0014218
-0.00883156
-0.000183383
-0.00819906
-0.00149833
-0.00637372
-0.00276477
-0.00415348
-0.00359556
-0.00370286
-0.004357
-0.00516761
-0.00293082
-0.00259711
0.00196834
0.00255884
0.00194022
-0.000814398
-0.0075509
-0.00230119
0.0030489
0.00291246
0.00804924
-0.000683438
-0.0227343
-0.00210362
0.00600385
0.00607743
0.0171046
0.00168168
-0.0323796
-0.000532338
0.00353998
0.00147339
0.00275902
0.00195961
-0.00347589
0.000872201
-0.00394376
0.000894345
0.000521882
0.00144356
0.00217494
0.00129453
-0.000511999
0.000972259
-0.000780373
0.00114612
0.00149406
0.00130573
0.00176903
0.00126134
0.000417612
0.00120724
0.000222886
0.00132394
0.000837737
0.00139205
0.000994636
0.00141104
0.000351234
0.00132158
0.000150043
0.00135058
-3.23784e-05
0.00134887
-0.000168743
0.00128382
-0.000417232
0.00122051
-0.000521121
0.00118867
-0.000552366
0.00120099
-0.00048857
0.00126369
-0.00034143
0.00137156
-0.000303776
0.00138101
-0.000316209
0.00087043
-0.000149074
-0.000281853
-2.38763e-06
-0.00143534
-0.000633754
-0.00205096
-0.0015784
-0.00232141
-0.000824767
-0.00243832
0.000920928
-0.00208533
0.00140953
-0.0011286
0.000493475
0.000701935
0.000929023
0.00302646
-0.00557322
0.00751018
-0.000437306
0.0119588
-0.00687554
0.0142996
-0.00299863
0.0136969
-0.00800491
0.0139299
-0.0114898
0.0171975
-0.03313
0.0315795
-0.0518085
0.0544037
-0.0516369
0.0767746
-0.0387682
0.0721077
0.0470486
0.0144668
0.169503
-0.162802
0.396577
-0.351137
0.510974
-0.814139
0.947248
-0.193875
-1.51526
1.26628
-3.13074
0.64458
1.56851
-0.0601843
1.47212
0.0585946
-0.371488
-0.116318
0.324095
-0.131955
-0.0393533
0.0178852
-0.220635
0.28127
-0.538897
0.623656
-0.750072
0.708633
-0.235988
0.490614
0.399556
0.191921
0.659393
-0.178965
0.792328
-0.501856
0.787811
-0.606782
0.301062
-0.534695
-0.151349
-0.381758
-0.374447
-0.247135
-0.308851
-0.142332
-0.244012
-0.0319822
-0.268223
-0.007545
-0.0681837
-0.0560261
0.0991306
-0.0816528
0.0789697
0.00391127
-0.164977
0.215421
-0.449687
0.341095
-0.265969
0.179331
0.268741
-0.0388273
0.610007
-0.145838
0.168831
-0.09617
-0.0484807
-0.0472117
-0.11893
-0.0159572
-0.070345
0.0123003
-0.0575251
0.0377107
-0.0588525
0.0624374
-0.0611388
0.0776386
-0.0395279
0.0749448
-0.00238866
0.0527891
0.04474
0.0120392
0.0907369
-0.0270761
0.0875305
-0.0655323
0.091036
0.0318878
-0.0138249
-0.00401346
0.0130628
-0.0139359
-0.0050571
-0.0144821
-0.00543172
-0.0145613
-0.00506541
-0.0145916
-0.00447281
-0.0146734
-0.00392558
-0.0146304
-0.00352144
-0.0143766
-0.00327977
-0.0139971
-0.00274629
-0.0135669
-0.00114668
-0.0131448
0.00123506
-0.012818
0.00273357
-0.0127564
0.00195747
-0.0125435
-0.000556539
-0.0116086
-0.00282234
-0.00936641
-0.0040537
-0.00666575
-0.0045934
-0.00563479
-0.00581001
-0.00632944
-0.00544396
-0.00390147
0.000126325
0.00065558
0.00270156
-0.000737347
-0.00633683
-0.00278373
-0.00499863
-0.000217884
0.00256315
0.0010241
-0.014949
-0.00165845
-0.00895641
0.00302581
0.0148002
0.00335062
-0.0306105
-0.000811213
0.000524006
0.00180152
0.0136567
0.00202054
-0.00325228
0.00124365
-0.00303345
0.00116617
-0.000222663
0.00156176
0.00163596
0.00154061
3.64299e-05
0.00133261
-0.000365855
0.00146079
0.00151784
0.00159167
0.00180796
0.00160448
0.00058354
0.00159306
0.000353148
0.0017232
0.000841092
0.00179244
0.000958997
0.00184107
0.000292646
0.00175926
5.33812e-05
0.00180383
-0.000107672
0.00180802
-0.0002327
0.00174708
-0.000498237
0.00168348
-0.000604402
0.00164936
-0.000620323
0.00165522
-0.000500605
0.00170117
-0.000302646
0.00177963
-0.000226991
0.00173654
-0.000219423
0.00112428
-0.000140576
-0.000175219
-0.0001725
-0.00145952
-0.00086672
-0.0021378
-0.00165202
-0.00244387
-0.00069763
-0.00258083
0.00108771
-0.00216225
0.00148198
-0.000984594
0.000268384
0.00122011
0.00042222
0.0043149
-0.00681987
0.00949509
-0.00565273
0.0149724
-0.00928619
0.0178558
-0.00531759
0.0177179
-0.0108972
0.0194162
-0.0210262
0.0259095
-0.0498117
0.0362967
-0.0711747
0.0743843
-0.0855834
0.0983176
-0.0506383
0.0841303
0.0774409
0.00867
0.258849
-0.194138
0.566122
-0.408307
0.729083
-1.02512
1.55465
-0.321136
-2.21476
1.55838
-4.88434
0.884785
2.20151
-0.0292837
2.31123
0.0663586
-0.466666
-0.144469
0.493601
-0.152985
-0.0496347
0.0608601
-0.396102
0.43066
-0.89593
0.85541
-1.15917
0.900575
-0.274464
0.567831
0.710419
0.179197
1.04483
-0.271432
1.38561
-0.661962
1.17184
-0.770991
0.420251
-0.674353
-0.244089
-0.491595
-0.555242
-0.320912
-0.478191
-0.186092
-0.382248
-0.0439449
-0.414125
-0.0119732
-0.106494
-0.0728487
0.156066
-0.0973065
0.1101
0.0294899
-0.291068
0.303101
-0.715408
0.44049
-0.378305
0.214288
0.459758
-0.0652304
0.932702
-0.186265
0.255244
-0.123052
-0.0908891
-0.0590721
-0.18352
-0.0174677
-0.112653
0.0195794
-0.0926036
0.0523959
-0.0919922
0.0823538
-0.0913742
0.0983324
-0.0549923
0.0897486
0.00795976
0.0569022
0.0758885
0.00268157
0.145176
-0.0479308
0.138016
-0.0949652
0.138045
0.0464579
-0.0136795
-0.00290697
0.0135625
-0.0136511
-0.0035631
-0.0146923
-0.00393698
-0.0155163
-0.00388072
-0.0164697
-0.003734
-0.0174798
-0.00353097
-0.0182872
-0.00333421
-0.0187481
-0.0032501
-0.0188537
-0.00294108
-0.0186099
-0.00151836
-0.0180816
0.00109454
-0.0175532
0.00309609
-0.0173219
0.00242551
-0.0169194
-0.000774788
-0.0156449
-0.0041649
-0.013015
-0.00602522
-0.0099436
-0.00654745
-0.00823474
-0.00743187
-0.00783308
-0.00719783
-0.00543144
-0.00224194
-0.00189027
0.000564246
-0.00184133
-0.00597866
-0.00317271
-0.00679963
-0.0028752
-0.00148323
0.00112055
-0.00341398
-0.000253611
-0.00959061
-0.000891041
0.0132275
0.00531759
-0.00387761
-0.00134167
-0.00519301
0.00209184
0.00599671
0.00202969
-0.00323153
0.00145662
-0.00384716
0.00139795
-0.00091527
0.00166994
0.000828269
0.00175788
0.000133016
0.00168252
-1.03546e-05
0.00178012
0.0013614
0.00189018
0.00162051
0.00197257
0.000599766
0.00201354
0.000417061
0.00216438
0.000754755
0.0022368
0.000809416
0.00232243
0.000152632
0.00225223
-7.85334e-05
0.00231506
-0.000205318
0.00232656
-0.000322442
0.00227326
-0.000583782
0.00221418
-0.000674142
0.00218479
-0.000662687
0.00219111
-0.000477721
0.00222639
-0.000199346
0.00227914
-2.5136e-05
0.00218178
1.38968e-05
0.00145809
-1.90373e-05
-6.59501e-06
-0.000244844
-0.00143735
-0.00101939
-0.00218631
-0.00169752
-0.00253103
-0.00059337
-0.00268787
0.0012223
-0.00220002
0.00148164
-0.000795009
-0.000128566
0.00177261
-0.000616559
0.00564211
-0.00846818
0.0116569
-0.0094478
0.0182301
-0.0124488
0.0217864
-0.00839352
0.0222715
-0.0148812
0.0256819
-0.0318873
0.0359077
-0.0703507
0.0596062
-0.103058
0.0953764
-0.117136
0.119094
-0.0614968
0.0931659
0.119887
0.00286514
0.363284
-0.211587
0.744325
-0.44915
0.969433
-1.19716
2.28826
-0.484946
-2.92278
1.76642
-7.03958
1.14293
2.78303
0.0284335
3.33999
0.0769452
-0.51271
-0.171806
0.69797
-0.165953
-0.0754969
0.126076
-0.642351
0.616078
-1.36917
1.10153
-1.62579
1.0671
-0.233253
0.601388
1.15105
0.141215
1.49678
-0.376247
1.76579
-0.819612
1.60784
-0.921144
0.532902
-0.801917
-0.358854
-0.599068
-0.755648
-0.420023
-0.656143
-0.232943
-0.57213
-0.0583071
-0.592341
-0.0183679
-0.153237
-0.0891624
0.222601
-0.107097
0.13515
0.0663715
-0.463399
0.398939
-1.03887
0.537335
-0.489818
0.240789
0.718468
-0.0944949
1.31243
-0.22526
0.349775
-0.148647
-0.145717
-0.0703625
-0.262101
-0.0181346
-0.165656
0.0276927
-0.136299
0.0673096
-0.131778
0.100843
-0.124601
0.115774
-0.0692569
0.0995745
0.0262866
0.0547225
0.121761
-0.013042
0.213127
-0.0747065
0.199491
-0.129887
0.193159
0.0616472
-0.013783
-0.00251247
0.0140351
-0.0133507
-0.00275238
-0.0143756
-0.0028147
-0.0153858
-0.00274716
-0.0167389
-0.00267157
-0.0183446
-0.00255247
-0.0199491
-0.00240413
-0.0213306
-0.00234251
-0.0223222
-0.00223699
-0.0227393
-0.00126346
-0.0225423
0.00112237
-0.0221458
0.00343236
-0.0220289
0.00304732
-0.0217217
-0.000669317
-0.02032
-0.00534778
-0.0174127
-0.00835415
-0.0140308
-0.00921337
-0.0116339
-0.00950397
-0.00998857
-0.00881154
-0.00749326
-0.00478206
-0.00489329
-0.00236974
-0.00376149
-0.00591116
-0.0041025
-0.00571637
-0.0045068
-0.00303338
-0.000419895
0.0036714
0.00119041
-0.00247468
-0.00343477
0.00549272
0.00507295
0.00770243
-0.00116802
-0.00736032
0.00134971
0.00161744
0.00187684
-0.00162423
0.00167918
-0.00279674
0.00148941
-0.000813547
0.00172106
7.80981e-05
0.00192077
-0.000516412
0.00197426
0.000162717
0.00206866
0.00104084
0.00217286
0.0012394
0.0023382
0.000452137
0.00243926
0.000389696
0.00262087
0.000581184
0.00270174
0.000576725
0.00283391
-3.8798e-05
0.00278117
-0.000245972
0.00286768
-0.000327634
0.00289121
-0.000447292
0.00285218
-0.000689353
0.00280499
-0.000750179
0.0027895
-0.0006992
0.00280468
-0.000435668
0.00283632
-4.79449e-05
0.00286595
0.000256776
0.0027099
0.000344671
0.00186245
0.000201922
0.000213947
-0.000218949
-0.00137956
-0.00109478
-0.00220663
-0.00171464
-0.00259198
-0.000507347
-0.00277082
0.00133524
-0.00221656
0.00142628
-0.0005904
-0.000651533
0.00231495
-0.00212015
0.0069575
-0.0107107
0.0139029
-0.0134716
0.0216775
-0.0165564
0.0260696
-0.0123187
0.027416
-0.0198684
0.0328914
-0.0447998
0.0473292
-0.0954484
0.0776104
-0.141765
0.11737
-0.152015
0.138922
-0.0694292
0.0992111
0.17676
-0.00109488
0.478019
-0.208874
0.913408
-0.480138
1.24246
-1.3116
3.10264
-0.70189
-3.5251
1.83478
-9.44323
1.4037
3.17334
0.112112
4.53595
0.0945001
-0.491026
-0.19671
0.941631
-0.167338
-0.125591
0.217567
-0.979034
0.848228
-1.98258
1.35287
-2.10526
1.19468
-0.0691725
0.589869
1.72718
0.0830247
1.99413
-0.485679
2.39641
-0.968514
2.08192
-1.05497
0.631282
-0.918061
-0.490944
-0.704062
-0.96685
-0.498768
-0.859741
-0.284939
-0.789004
-0.0762151
-0.80447
-0.0269015
-0.20964
-0.103992
0.295101
-0.109801
0.148581
0.113656
-0.685171
0.500275
-1.41465
0.629128
-0.589996
0.260127
1.04696
-0.124856
1.74281
-0.262773
0.448818
-0.173702
-0.212357
-0.081395
-0.354386
-0.018389
-0.229541
0.0358382
-0.188263
0.0812783
-0.177602
0.116844
-0.160321
0.128866
-0.0806962
0.103687
0.0496113
0.0463935
0.179539
-0.0346566
0.294328
-0.107595
0.272197
-0.170969
0.256437
0.0766584
-0.0140398
-0.0022789
0.0145024
-0.0132634
-0.00231904
-0.0141448
-0.00221059
-0.0150225
-0.0020549
-0.0162765
-0.00184041
-0.0179024
-0.00156257
-0.0197502
-0.001224
-0.0216393
-0.00088932
-0.0233757
-0.000652868
-0.0246391
-5.13738e-05
-0.0251784
0.00176346
-0.0253578
0.00408351
-0.0258143
0.0041677
-0.0261531
0.000261874
-0.0251947
-0.00578984
-0.0224048
-0.0105057
-0.0188841
-0.0122698
-0.0158764
-0.0121478
-0.0130596
-0.0107349
-0.0103833
-0.00738445
-0.00835382
-0.00532039
-0.00620234
-0.0063086
-0.00594818
-0.00501209
-0.00559685
-0.0037086
-0.0026795
0.00329952
0.000942584
0.00133439
-0.00461384
-0.00234182
0.00295761
0.00606115
-0.00122356
-0.00813446
0.000533933
-0.00218528
0.00140138
-0.00199122
0.00155456
-0.00198625
0.00149265
-0.00117088
0.00161874
0.00122483
0.0019907
-0.000251258
0.00214839
7.2346e-05
0.00227659
0.000622929
0.00239945
0.000725477
0.00266559
0.000125369
0.00283294
0.000243912
0.00305934
0.000317013
0.003158
0.000275807
0.0033493
-0.000268713
0.00332291
-0.000451034
0.00344106
-0.000472053
0.00348499
-0.000606358
0.00346972
-0.000818776
0.00344371
-0.000841589
0.00345255
-0.00074454
0.00348566
-0.000395389
0.00352035
0.000121977
0.00352816
0.000580878
0.00330767
0.000746829
0.00232347
0.000517368
0.00047377
-9.24122e-05
-0.00129585
-0.0010893
-0.00220433
-0.00169732
-0.00262917
-0.000434588
-0.00283493
0.00142972
-0.00229311
0.00139171
-0.000400511
-0.00132076
0.00279833
-0.00400972
0.00819821
-0.0135788
0.0161442
-0.0183487
0.0252637
-0.0217341
0.0307122
-0.0172717
0.0332517
-0.0261634
0.0412562
-0.0605002
0.0604532
-0.125727
0.0972399
-0.18723
0.140439
-0.189769
0.157711
-0.0723074
0.102735
0.249714
-3.66566e-05
0.595731
-0.177113
1.04993
-0.508567
1.57398
-1.36454
3.94126
-1.02125
-3.86082
1.66386
-11.9896
1.64193
3.16704
0.217661
5.85541
0.121616
-0.392031
-0.216495
1.22931
-0.156901
-0.206678
0.336985
-1.43601
1.05816
-2.67832
1.59666
-2.6199
1.27211
0.259746
0.538558
2.42849
0.0248906
2.49462
-0.591428
2.96321
-1.10541
2.58768
-1.17305
0.711739
-1.02479
-0.634181
-0.808054
-1.18067
-0.589555
-1.0766
-0.34464
-1.03692
-0.0993227
-1.05309
-0.0378393
-0.278611
-0.116475
0.368831
-0.104638
0.144933
0.170583
-0.958172
0.604598
-1.8366
0.713389
-0.668528
0.273534
1.44365
-0.154756
2.22168
-0.298804
0.552224
-0.19866
-0.289669
-0.092704
-0.459857
-0.0189126
-0.304369
0.0431439
-0.247914
0.09335
-0.228171
0.129219
-0.196208
0.136911
-0.0879186
0.102475
0.0836439
0.0325853
0.249824
-0.0611148
0.388151
-0.145708
0.356529
-0.218703
0.329304
0.0912638
-0.0144217
-0.00206166
0.0149675
-0.0134036
-0.002076
-0.0141676
-0.00190797
-0.0148381
-0.00169258
-0.0158043
-0.0013473
-0.0170922
-0.000861341
-0.0186397
-0.000250659
-0.0203696
0.000480567
-0.0222134
0.0011644
-0.0239242
0.00178358
-0.0251184
0.0030369
-0.0259808
0.00511358
-0.0272677
0.00587093
-0.0288118
0.00246146
-0.0291651
-0.00464022
-0.0273289
-0.0115659
-0.0241829
-0.0150964
-0.0208531
-0.0151991
-0.0171458
-0.0131757
-0.0142573
-0.0101339
-0.0123995
-0.00819375
-0.00934173
-0.00747087
-0.0087937
-0.00618067
-0.00725572
-0.00510799
-0.00531572
-0.00132351
-0.00138357
-0.00037728
-0.00554092
-0.00753997
3.52801e-05
0.000431211
-0.00189562
-0.00791477
-0.000460803
-0.00381462
0.000607404
-0.00236538
0.00106692
-0.00211137
0.00110769
-0.0020862
0.00138457
-0.00115597
0.00184597
0.000416657
0.00210156
0.000266906
0.00233635
9.86817e-05
0.00251814
9.85551e-05
0.00291209
-0.000429299
0.00314789
-6.74826e-05
0.00343848
-6.58608e-05
0.00356983
-0.000114455
0.00383677
-0.000557004
0.00385087
-0.000723822
0.00401188
-0.000656461
0.0040894
-0.000810332
0.00411064
-0.00098168
0.004117
-0.000957421
0.00416157
-0.000808178
0.00422204
-0.00036867
0.00426603
0.000295131
0.00425273
0.000930459
0.00396235
0.00120869
0.00283031
0.000925709
0.000766253
0.000138852
-0.00118649
-0.000998924
-0.0021724
-0.00164278
-0.002631
-0.000374495
-0.00287027
0.0015112
-0.00222934
0.00129429
-0.000245648
-0.0019755
0.00317979
-0.00618876
0.00929905
-0.0170407
0.0183141
-0.0242019
0.0289521
-0.0281604
0.035746
-0.0235175
0.0399198
-0.0342334
0.0510361
-0.0796264
0.0756283
-0.161846
0.118911
-0.239379
0.164562
-0.229576
0.17511
-0.0676878
0.104722
0.338794
0.0110289
0.705003
-0.105052
1.12446
-0.542757
2.00938
-1.38729
4.77087
-1.54584
-3.6963
1.13538
-14.5186
1.82143
2.47629
0.336825
7.22772
0.160641
-0.213626
-0.227821
1.56469
-0.128814
-0.327322
0.48381
-1.98467
1.31933
-3.48354
1.82012
-3.09612
1.28623
0.795665
0.458493
3.22081
-0.0206754
2.96094
-0.681119
3.61731
-1.22727
3.12436
-1.27917
0.777443
-1.12652
-0.781685
-0.912351
-1.39192
-0.688957
-1.29854
-0.415082
-1.31384
-0.1298
-1.34165
-0.0517506
-0.364559
-0.126043
0.43794
-0.0914109
0.119121
0.235332
-1.28235
0.709294
-2.29729
0.788337
-0.715957
0.28355
1.90284
-0.182941
2.73494
-0.334223
0.660991
-0.224282
-0.376819
-0.104941
-0.57811
-0.0204311
-0.390126
0.0486679
-0.314475
0.102534
-0.282484
0.137674
-0.231527
0.140361
-0.0900645
0.0969595
0.12766
0.015003
0.332169
-0.090688
0.493951
-0.18784
0.453393
-0.273084
0.414385
0.106134
-0.0149225
-0.00180838
0.0154744
-0.0136652
-0.00185222
-0.0143577
-0.00164888
-0.0148734
-0.00141676
-0.0155941
-0.00104154
-0.0165033
-0.000442791
-0.0175536
0.000353653
-0.0187132
0.00135402
-0.0200424
0.00249485
-0.0215231
0.00348836
-0.0228332
0.00449107
-0.0239411
0.0061747
-0.0256576
0.00763079
-0.0283419
0.00563476
-0.0306389
-0.00140491
-0.0308565
-0.0104159
-0.0290741
-0.0165917
-0.0261044
-0.017987
-0.0220686
-0.0159013
-0.0191014
-0.0129558
-0.0171668
-0.0109113
-0.0135161
-0.00917637
-0.0127198
-0.0084789
-0.0103039
-0.00719936
-0.00848481
-0.00598428
-0.00527039
-0.0042678
-0.00712079
-0.00950816
-0.00322054
-0.0037637
-0.0033513
-0.00699866
-0.0019306
-0.00414258
-0.000711539
-0.00270109
-4.07968e-05
-0.0026883
0.000362967
-0.00230879
0.000954271
-0.00206035
0.00125776
-0.00157752
0.0018244
-0.000243756
0.00210127
-0.000176132
0.00242066
-0.00067255
0.0030056
-0.00132008
0.00332414
-0.000598423
0.00370909
-0.000610231
0.00389603
-0.000639381
0.00425977
-0.000940873
0.00433657
-0.0011104
0.00455554
-0.000910926
0.00468579
-0.00107552
0.00475987
-0.0011913
0.00481163
-0.00110725
0.00490394
-0.000895554
0.00500129
-0.00035883
0.00506061
0.000469002
0.00502734
0.00130372
0.0046638
0.00173026
0.00337789
0.00142998
0.00109447
0.000478203
-0.00103815
-0.000824504
-0.00208749
-0.00155639
-0.00256887
-0.000332376
-0.00285186
0.00158393
-0.00222204
0.00123584
-0.000136315
-0.0026115
0.00342313
-0.00853831
0.010195
-0.021034
0.0203108
-0.0310115
0.0326866
-0.0360018
0.0412161
-0.0314133
0.047592
-0.044668
0.0625222
-0.102874
0.0931729
-0.204468
0.14283
-0.298125
0.189647
-0.270204
0.191075
-0.0531782
0.107015
0.442237
0.0389987
0.789401
0.016367
1.10552
-0.595204
2.61539
-1.45835
5.62305
-2.40219
-2.75438
0.154
-16.9062
1.9014
0.756905
0.456143
8.55578
0.212054
0.0317936
-0.225773
1.94721
-0.0847948
-0.490203
0.663535
-2.67971
1.58623
-4.37178
2.01051
-3.49576
1.23336
1.57193
0.365578
4.05038
-0.0341978
3.34795
-0.75112
4.31978
-1.33539
3.69875
-1.37998
0.836899
-1.22925
-0.927267
-1.01754
-1.60091
-0.796226
-1.51865
-0.499676
-1.61375
-0.170338
-1.67428
-0.0696797
-0.473561
-0.13271
0.495563
-0.0704156
0.0663309
0.30609
-1.65564
0.811908
-2.78878
0.854389
-0.725733
0.292484
2.41682
-0.208183
3.27702
-0.371704
0.780501
-0.251405
-0.474691
-0.118862
-0.70878
-0.0237209
-0.486796
0.051669
-0.387206
0.108427
-0.339719
0.142157
-0.265411
0.140026
-0.0877235
0.0892696
0.178957
-0.00384003
0.425575
-0.121029
0.611244
-0.231965
0.564025
-0.3332
0.515416
0.123096
-0.0155359
-0.00146618
0.0160898
-0.0139895
-0.00153376
-0.0146436
-0.00130997
-0.0150543
-0.00108521
-0.0156119
-0.000753002
-0.0162611
-0.000162571
-0.0169229
0.000681221
-0.0175184
0.00173509
-0.0181115
0.00306619
-0.0188933
0.00447624
-0.0197829
0.0055874
-0.0205765
0.00686045
-0.0218961
0.00865573
-0.0247306
0.00858262
-0.0285535
0.00324909
-0.0314029
-0.00654054
-0.0321144
-0.0155042
-0.0306051
-0.0193151
-0.027177
-0.0181271
-0.0245524
-0.0153807
-0.0225875
-0.0130953
-0.018876
-0.010794
-0.017752
-0.0104241
-0.0149749
-0.00897885
-0.0126829
-0.00852009
-0.0102284
-0.00715719
-0.00994323
-0.00927575
-0.00695341
-0.00564628
-0.00583637
-0.0062215
-0.00422052
-0.0045279
-0.00285758
-0.00355875
-0.00182073
-0.00377041
-0.00113806
-0.00338645
-0.000145627
-0.00278701
0.000429861
-0.00253424
0.0010775
-0.00165424
0.00165854
-0.0012423
0.00201455
-0.000866822
0.00290492
-0.002562
0.00329974
-0.00137067
0.00381015
-0.00134785
0.00408545
-0.0013435
0.00457287
-0.0014621
0.00474681
-0.00165978
0.00504329
-0.00127147
0.00525241
-0.00141847
0.00539972
-0.00146229
0.00551182
-0.00130118
0.00566432
-0.00100934
0.00580842
-0.000363188
0.00588977
0.000649399
0.00583993
0.00170771
0.00540499
0.00231727
0.00396805
0.00203247
0.00147258
0.000922107
-0.000822818
-0.000577643
-0.00190939
-0.00145478
-0.0023968
-0.000319601
-0.00273795
0.00165547
-0.0021706
0.00126485
-7.22209e-05
-0.00313916
0.00349768
-0.010911
0.0108163
-0.0254633
0.0221625
-0.0388453
0.0364752
-0.0454947
0.0471762
-0.0413812
0.0564457
-0.0581678
0.0759964
-0.131028
0.113364
-0.254259
0.169049
-0.363132
0.215489
-0.31016
0.205699
-0.026676
0.112562
0.555534
0.0917362
0.827572
0.183948
0.972582
-0.685757
3.47516
-1.68136
6.61158
-3.63526
-0.821592
-1.24112
-19.1172
1.85618
-2.28286
0.557441
9.73546
0.273824
0.315655
-0.205909
2.36994
-0.0137945
-0.704363
0.872096
-3.50617
1.88241
-5.34356
2.16259
-3.7521
1.12261
2.60781
0.272265
4.86002
-0.0169399
3.62494
-0.79362
5.08244
-1.43147
4.32694
-1.48439
0.905712
-1.3398
-1.0668
-1.12163
-1.81666
-0.90781
-1.73169
-0.601796
-1.92361
-0.224012
-2.05544
-0.0933154
-0.613066
-0.137378
0.534055
-0.0427638
-0.0180532
0.38025
-2.0751
0.910306
-3.3035
0.913681
-0.695676
0.303178
2.97736
-0.229985
3.89185
-0.390662
0.897084
-0.280848
-0.563473
-0.135221
-0.851536
-0.0294372
-0.594464
0.0516565
-0.46554
0.11097
-0.399575
0.143957
-0.298596
0.137808
-0.0815398
0.0822557
0.235085
-0.0205699
0.528695
-0.149306
0.740091
-0.275551
0.689956
-0.397002
0.636611
0.145145
-0.0162762
-0.00103936
0.0168685
-0.0143873
-0.00110808
-0.0150081
-0.000884381
-0.0153329
-0.00067329
-0.0157675
-0.00040172
-0.0162665
0.000102029
-0.0167287
0.000891064
-0.0170024
0.00186246
-0.0170374
0.00308113
-0.0170692
0.00464514
-0.0173105
0.00603001
-0.0175571
0.00703602
-0.0179805
0.00862035
-0.0197624
0.0100768
-0.0236145
0.00759545
-0.0283371
-0.000854246
-0.0319119
-0.0114039
-0.0328929
-0.0180287
-0.0312314
-0.0187541
-0.0296844
-0.0166543
-0.0281136
-0.0142191
-0.0250393
-0.0117276
-0.02373
-0.0112513
-0.0210341
-0.00988956
-0.0182586
-0.00926532
-0.0161608
-0.00852775
-0.0143883
-0.00870196
-0.0116852
-0.0067197
-0.00973349
-0.0065614
-0.00780382