/*--------------------------------*- C++ -*----------------------------------*\
| =========                 |                                                 |
| \\      /  F ield         | OpenFOAM: The Open Source CFD Toolbox           |
|  \\    /   O peration     | Version:  2412                                  |
|   \\  /    A nd           | Website:  www.openfoam.com                      |
|    \\/     M anipulation  |                                                 |
\*---------------------------------------------------------------------------*/
FoamFile
{
    version     2.0;
    format      ascii;
    arch        "LSB;label=32;scalar=64";
    class       surfaceScalarField;
    location    "1.105";
    object      ddtCorrDdt0(phi);
}
// * * * * * * * * * * * * * * * * * * * * * * * * * * * * * * * * * * * * * //

dimensions      [0 3 -2 0 0 0 0];

oriented        oriented;

internalField   nonuniform List<scalar> 
24930
(
0.00855904
0.00143894
-0.0104417
0.00535992
-0.000718193
0.00366492
0.00264768
0.000702455
0.00750024
-0.000493579
0.00592792
0.00232579
-0.00701002
0.005221
-0.0251026
0.0058305
-0.0213589
0.00491412
0.0319236
-0.00392946
0.120334
-0.00954668
0.0529624
-0.004139
-0.104832
0.0063732
-0.184483
0.0155172
-0.0690068
0.0105232
0.171724
-0.00884355
0.299892
-0.0249187
0.116457
-0.0202877
-0.290458
0.00427908
-0.543323
0.0418713
-0.255985
0.0910821
0.491846
0.0332153
1.18621
-0.166601
0.871802
-0.267472
-1.13837
0.0540271
-2.01888
0.304427
-0.884153
-0.0155269
0.948465
-0.0567813
0.567818
-0.00546593
0.0264536
0.0104831
-0.310962
-0.007625
-0.152675
-0.0113004
0.128646
5.18795e-06
0.14026
0.00678463
-0.0474
0.00163035
-0.134715
-0.00537543
-0.0316131
-0.0047682
0.0887606
0.000637777
0.0742133
0.00280341
-0.0261204
-0.000400325
-0.0716243
-0.00359516
-0.0153446
-0.00171362
0.0289241
0.000711813
0.0225598
0.000834542
-0.00840422
-0.000773564
-0.0207339
-0.00161436
-0.00539344
-0.000778358
0.00962238
0.000333822
0.0086105
0.00041806
-0.00215278
-0.00026283
-0.00861076
-0.000633185
-0.00401002
-0.00027447
0.00416506
8.86765e-05
0.012349
0.000157546
0.00151954
-4.07961e-05
-0.00780936
-0.000224782
-0.00510598
-9.86675e-05
0.00180242
9.12663e-05
0.00210595
0.000155801
0.000269567
0.000119668
-0.000255503
0.000186688
-0.000311031
0.000334598
9.93151e-05
0.00061079
0.000148585
0.000929625
-0.000741255
0.00129628
-0.0013904
0.00162833
0.000727604
0.00200017
0.0060873
0.00233864
0.00620691
0.00257984
-0.0525337
0.0022085
-0.0183043
0.00130706
-0.00143064
-0.000789484
-0.000700942
-0.00312119
0.0039366
-0.00624141
0.00908451
-0.0101657
0.0103983
-0.0127007
-0.00931985
-0.0144569
-0.0811714
-0.01598
-0.0147191
-0.0146302
-0.0266786
-0.0125922
-0.0248127
-0.00900852
-0.0114003
-0.00525022
0.00245917
-0.00145212
0.0141075
0.00467742
0.00424298
0.00934262
0.00288267
0.0145002
0.000851081
0.0158904
0.000443322
0.0133389
-0.00632644
0.00947407
0.00351011
-0.00319952
0.00857156
-0.0288006
0.0321245
-0.0475646
-0.154589
-0.0797587
0.00742745
-0.0620083
-0.032003
-0.00871697
-0.0374718
-0.0560219
0.107111
-0.0494991
0.0104858
0.0210277
-0.231779
0.0514955
-0.0166918
0.0299748
0.0378635
0.0220817
0.0142008
0.0137273
0.00805165
-0.0022409
0.00432337
-0.0200883
0.00519403
-0.0137706
-0.00852573
-0.00850967
0.000931988
-0.014487
0.00491605
0.0140122
-0.0265616
0.0427501
-0.00759003
0.0717503
-0.0127394
0.0761143
0.00992977
0.0648377
0.0139625
0.0615545
0.0195822
0.0612223
0.0122901
0.0285652
0.0263438
0.0186693
0.000207231
0.0456171
-0.0320791
0.054162
-0.003832
0.0149071
0.0368179
0.0216635
0.0122588
0.00369276
-0.00881981
0.0115108
0.00345034
0.0077407
0.00656046
0.00236975
0.00567275
-6.92407e-05
0.00202231
0.00367089
0.00101341
0.00971369
-0.00120789
0.0103782
-0.00989462
0.00100746
-0.0203936
-0.00538053
0.00294802
-0.00219871
0.0362613
0.00455423
0.029214
0.00938114
-0.0190271
0.00909818
-0.0594524
0.000515632
-0.0391438
-0.0128865
0.0466423
-0.0148174
0.110214
-0.00246744
0.059206
0.0142055
-0.121617
0.0284717
-0.267208
0.0367976
-0.115927
-0.0113834
0.565964
-0.106811
1.39825
-0.144574
-0.688796
0.0745259
-1.99618
0.202363
-1.30091
-0.0674924
1.00455
-0.0336566
0.215001
0.0129775
-0.0607479
0.00526577
-0.0790068
-0.0165577
-0.0353899
-0.0111495
0.0181727
0.00381777
0.0273597
0.00657684
0.00253042
-0.00235444
-0.0180375
-0.0082161
-0.0129905
-0.00457822
0.00526993
0.00151814
0.0125583
0.00197133
0.00321275
-0.00241469
-0.00774572
-0.00440539
-0.000899061
-0.00242486
0.00178114
-0.000156642
0.00296593
-0.000170486
0.000618993
-0.00171633
-0.00246275
-0.00237494
-0.00137916
-0.00144294
0.00147258
-0.000331484
0.00232249
-0.000259159
0.000568736
-0.000882022
-0.00113546
-0.00114528
-0.000359255
-0.000783747
0.000874312
-0.000362499
0.00164011
-0.000349144
0.000241042
-0.000635895
-0.00115618
-0.000786739
-0.000333288
-0.000643964
0.000681813
-0.000413857
0.000739875
-0.000249059
0.000244195
-8.77532e-05
-0.000155286
0.000312444
-0.000644349
0.000987602
-0.000569784
0.00204102
-0.000876997
0.00338879
-0.00172052
0.00498655
-0.00262957
0.00658373
-0.00232455
0.00801786
-0.000704301
0.00902476
0.00271835
0.00896313
-0.0808728
0.00739349
0.000823661
0.00391746
-6.05369e-05
-0.00199669
0.000677942
-0.00994059
0.00428656
-0.0206287
0.00907066
-0.0322341
0.0127476
-0.0418224
0.0159602
-0.0485239
-0.125681
-0.0510693
0.00864587
-0.0482977
0.00152045
-0.0400481
-0.005873
-0.029034
-0.00761152
-0.0156684
-0.00448415
-0.00194639
-0.00715856
0.0145653
-0.0138921
0.0323639
-0.016999
0.046353
-0.0158812
0.0497956
-0.009387
0.0398959
-0.00926266
0.0188248
0.0164674
-0.0225474
0.0379992
-0.0960945
0.113857
-0.180341
-0.0425593
-0.230775
0.0546259
-0.221588
-0.00986023
-0.0441812
-0.210401
-0.130411
0.11912
-0.214061
0.137692
0.0969326
-0.636836
0.166198
-0.054301
0.0961115
0.121081
0.0699779
0.0460358
0.0316066
0.044465
-0.0104302
0.0279044
-0.0649831
0.0571584
-0.0285581
-0.0407362
-0.020098
-0.00731722
-0.0489762
0.0441671
0.0448949
-0.112927
0.164881
-0.138
0.25275
-0.110147
0.242297
0.00114182
0.186258
0.05617
0.174982
0.0131142
0.177535
0.00211371
0.0815682
0.122555
0.0323397
0.0560036
0.122107
-0.119723
0.167584
-0.0506951
0.0667628
0.13898
0.121262
0.0134729
0.00274607
-0.00837067
0.016937
0.00744084
0.0119497
0.00892332
0.00486191
0.00634584
0.00251719
0.00335852
0.00617241
0.000711868
0.0114448
-0.00423744
0.0115338
-0.0091517
0.00644328
-0.00473216
0.000825649
0.0120419
-0.00137127
0.025648
0.000853206
0.0133755
0.00760504
-0.0183255
0.0135557
-0.0391334
0.00675462
-0.0247452
-0.0142255
0.0252087
-0.0176774
0.073284
-0.00596211
0.0694951
0.0182976
-0.0107392
0.0327564
-0.146368
-0.0167518
-0.261503
-0.0664633
-0.0159739
-0.00214515
0.670711
0.0377643
0.412539
0.0563324
-0.737985
0.0249308
-1.09012
-0.0844116
1.05786
-0.00667972
0.0777097
0.023923
-0.112433
0.00288889
-0.00447863
-0.0188625
-0.00728919
-0.0105545
-8.41953e-05
0.00452561
0.00986482
0.00596793
0.00787289
-0.00357203
-0.0063052
-0.00887058
-0.0125119
-0.00458164
-0.00263744
0.00149692
0.00870369
0.00149585
0.00676635
-0.00299504
-0.00341799
-0.0049633
-0.00315072
-0.00291179
0.0010071
-0.000630331
0.00371388
-0.000704036
0.00227709
-0.00228808
-0.00128394
-0.00292924
-0.00186747
-0.00193878
0.000569221
-0.000780844
0.00228506
-0.000702162
0.00133663
-0.00132959
-0.000464398
-0.00159261
-0.000411048
-0.00122984
0.000800084
-0.000818032
0.00144333
-0.000846882
0.000682364
-0.00118471
-0.000212941
-0.00135815
9.48472e-05
-0.0012172
0.000737163
-0.000936678
0.000688854
-0.000656172
0.000226031
-0.000290195
-0.000400914
0.00046412
-0.0011905
0.00171607
-0.00176467
0.00360677
-0.00260755
0.00605723
-0.00377901
0.00896838
-0.00500961
0.0119125
-0.00508399
0.0144752
-0.00335264
0.0160678
0.00147333
0.0154647
-0.0764932
0.012286
0.0038185
0.00563002
0.00452474
-0.00500009
0.00788272
-0.0192686
0.0151893
-0.0383884
0.0246018
-0.0575198
0.0289593
-0.0739132
0.0365522
-0.0853004
-0.116839
-0.0879482
0.0160487
-0.082723
0.0053426
-0.0682117
-0.0153349
-0.0473676
-0.0249835
-0.0240243
-0.026502
-5.53776e-05
-0.0320162
0.0289159
-0.0416137
0.0576944
-0.0454539
0.07932
-0.0363313
0.0824649
-0.0139406
0.061612
0.00561372
0.0206823
0.0561509
-0.0524459
0.103231
-0.174951
0.212346
-0.321089
-0.0407116
-0.37154
0.0826286
-0.392291
0.0230333
-0.110135
-0.50766
-0.216064
0.20176
-0.399401
0.37143
0.155154
-1.11345
0.289433
-0.144205
0.179854
0.248998
0.125128
0.102428
0.0520459
0.116838
-0.021248
0.0842534
-0.108517
0.139995
-0.0361446
-0.117085
-0.028203
-0.0136624
-0.0746872
0.0983492
0.0916055
-0.274207
0.309021
-0.353278
0.453111
-0.256373
0.40566
0.0471357
0.289107
0.176105
0.268079
0.0377323
0.273419
0.0014155
0.111463
0.283761
0.0314881
0.14085
0.192576
-0.279328
0.298692
-0.154524
0.1313
0.306161
0.290514
0.0151616
0.00346326
-0.00843756
0.0208391
0.00873999
0.0161193
0.00875077
0.00890881
0.00588852
0.00615457
0.00308257
0.00923015
0.000786328
0.0147898
-0.00184394
0.0168029
-0.00282524
0.0136901
0.00370322
0.00638467
0.0143815
-0.00158677
0.0168545
-0.00251497
0.00268557
0.00719586
-0.0183682
0.0188742
-0.0253811
0.0155198
-0.00758921
-0.00405767
0.0282387
-0.0182568
0.0570014
-0.013155
0.0451117
0.00951098
-0.0179889
0.0243301
-0.104747
-0.011192
-0.157158
-0.0358693
0.0312242
0.0224467
0.399274
0.138843
0.456871
0.011662
-0.32416
-0.142491
-0.760906
-0.0346661
1.04172
0.0173004
0.235401
0.0325355
-0.0937558
-0.000445063
0.0479067
-0.0206229
-0.00957629
-0.00997416
-0.0133102
0.00513752
0.00535169
0.00543846
0.0131419
-0.00459962
-0.00213745
-0.00935561
-0.0143967
-0.00451368
-0.00605989
0.00149229
0.00878788
0.00106283
0.00976668
-0.00354803
-0.000920202
-0.00552274
-0.00521872
-0.00333594
-0.00135591
-0.00101866
0.00394786
-0.00118948
0.00444047
-0.00284503
0.000322811
-0.00345651
-0.00210064
-0.00237774
-0.000280775
-0.00116462
0.00229677
-0.00109005
0.00227248
-0.0017339
0.000447684
-0.00199799
-0.000279711
-0.00162105
0.00049329
-0.00121353
0.0014946
-0.00127749
0.00137899
-0.00165698
0.000597659
-0.00185069
0.000470044
-0.00169359
0.000669102
-0.00134553
0.000662156
-0.000931887
0.000135219
-0.00033615
-0.000849016
0.000802995
-0.0020972
0.0026773
-0.00357364
0.00545723
-0.00533513
0.00907529
-0.00727337
0.0133638
-0.00908295
0.0177084
-0.00942333
0.0214113
-0.00731355
0.0234908
-0.000947243
0.0221101
-0.038408
0.0168653
0.00811689
0.00637741
0.0126913
-0.00981252
0.0205172
-0.0312724
0.0331579
-0.0569213
0.0468539
-0.0864414
0.0554741
-0.109485
0.0630147
-0.124602
-0.0535811
-0.126635
0.0218074
-0.118387
0.00338541
-0.0950134
-0.036565
-0.0641645
-0.051172
-0.0301228
-0.0590733
0.0044181
-0.0648057
0.0444593
-0.0785282
0.0841325
-0.0839592
0.111832
-0.0629242
0.11232
-0.0170219
0.0775926
0.0359205
0.013905
0.117676
-0.0921008
0.19813
-0.260712
0.415342
-0.469759
0.27892
-0.483291
0.0769371
-0.576159
0.140983
-0.242296
-0.852462
-0.307529
0.253257
-0.602581
0.725488
0.178694
-1.86663
0.414935
-0.343742
0.282288
0.408133
0.189842
0.199398
0.0748321
0.231939
-0.03315
0.175784
-0.149828
0.254781
-0.0372531
-0.23123
-0.0314287
-0.0120656
-0.0950157
0.173348
0.151469
-0.524104
0.479598
-0.684761
0.663823
-0.445812
0.555771
0.149033
0.369958
0.361173
0.344118
0.0579483
0.347528
-0.0093256
0.126368
0.509803
0.021024
0.25361
0.259212
-0.523175
0.422893
-0.320996
0.19696
0.533518
0.523596
0.0165401
0.00325685
-0.00978571
0.0222614
0.00676941
0.0187022
0.0065999
0.0121774
0.00447321
0.00937734
0.00255238
0.0126315
0.00172757
0.0194198
0.00181469
0.0239297
0.00315919
0.0214219
0.0073937
0.0109746
0.0114198
-0.0017219
0.00882361
-0.00388674
-0.00102774
0.0097288
-0.0103155
0.0264614
-0.00947167
0.0248717
0.00274109
0.00201639
0.0209698
-0.019072
0.0339045
-0.0201498
0.0239238
0.00126874
-0.0111032
0.0206653
-0.0507925
0.0089894
-0.0550849
0.00273082
0.0723472
0.0360395
0.216128
0.101357
0.144921
-0.0336322
-0.398874
-0.195659
-0.599285
0.0271376
0.323409
0.0435103
0.137198
0.036106
-0.431936
-0.0062795
0.015777
-0.0224004
-0.0146064
-0.0089577
-0.0220446
0.00614739
0.00706516
0.00488243
0.0167638
-0.00576739
-0.00183898
-0.00980269
-0.0160965
-0.00428199
-0.00618372
0.00156361
0.0103364
0.000587318
0.0109785
-0.00420113
-0.00103115
-0.00606682
-0.006783
-0.00367962
-0.00189986
-0.00134891
0.00476687
-0.00167538
0.00539204
-0.00341971
0.000468108
-0.00396865
-0.00259239
-0.00277382
-0.000582437
-0.00150557
0.002545
-0.00144849
0.00272565
-0.00211533
0.000666762
-0.00237121
-0.000338754
-0.00196416
0.000542174
-0.00155074
0.00187128
-0.00164306
0.00198715
-0.00205195
0.00117052
-0.00224943
0.000813971
-0.00205296
0.000851248
-0.00161798
0.000754185
-0.00105174
-4.3539e-05
-0.000202513
-0.00154642
0.00134707
-0.00345548
0.00387728
-0.00600585
0.00758301
-0.00899271
0.0124045
-0.0121018
0.0181069
-0.014786
0.0238778
-0.0152208
0.0287066
-0.0119258
0.0311211
-0.00338528
0.0288023
-1.81433e-05
0.0209808
0.0154238
0.0060237
0.0262893
-0.0165321
0.0402529
-0.0459549
0.0604882
-0.0808153
0.079971
-0.118696
0.0918443
-0.147942
0.0948131
-0.16588
-0.0542464
-0.16584
0.0223449
-0.156728
-0.00762202
-0.120226
-0.0694832
-0.0784925
-0.0913272
-0.0334522
-0.103055
0.01138
-0.109112
0.0616102
-0.127078
0.110721
-0.133402
0.142494
-0.0938891
0.137477
-0.0135698
0.0858681
0.0867825
-0.0027888
0.207801
-0.144113
0.334928
-0.353371
0.569512
-0.614536
0.448539
-0.550991
-0.0221563
-0.786104
0.398252
-0.476826
-1.18239
-0.400044
0.170277
-0.817673
1.20992
0.150045
-2.88572
0.534065
-0.689584
0.40262
0.567456
0.266479
0.342264
0.100723
0.400335
-0.0471029
0.307605
-0.190079
0.396137
-0.0342101
-0.392861
-0.0291188
-0.00790904
-0.102706
0.258483
0.234507
-0.852666
0.677473
-1.13376
0.880865
-0.654607
0.684946
0.345089
0.428936
0.623491
0.410167
0.0788383
0.406542
-0.000786789
0.117647
0.804747
0.00975417
0.369253
0.33801
-0.855144
0.528695
-0.512191
0.239376
0.824821
0.786611
0.0174448
0.00186826
-0.0119124
0.0222487
0.00383476
0.0195815
0.00438507
0.0136481
0.00329628
0.0110207
0.00221308
0.0150563
0.00248362
0.0236258
0.00391199
0.0304027
0.00557371
0.0281056
0.00702546
0.0149828
0.00721887
-0.000525205
0.00501783
-0.00241666
0.00241353
0.0146841
0.00191495
0.03465
0.00311138
0.0333123
0.00332936
0.00726814
0.00452358
-0.0194233
0.0103423
-0.0244661
0.0157421
-0.00247314
0.0158926
0.0228715
0.0103564
0.0276377
0.00992693
0.0238543
0.0467077
0.0334079
0.0522475
0.0501045
-0.0782368
-0.0611338
-0.397476
-0.136686
-0.369765
0.0328161
0.226952
0.0672986
0.230025
0.0122299
0.0322243
-0.0119147
-0.224867
-0.0239175
-0.0330951
-0.00693777
-0.0284071
0.00746472
0.01322
0.00412119
0.0204334
-0.00706046
-0.00251977
-0.0100763
-0.0174093
-0.00384428
-0.00511754
0.00166118
0.0121627
2.42074e-05
0.0114332
-0.00491688
-0.00181707
-0.00655141
-0.00783583
-0.00394518
-0.00158429
-0.00165403
0.00589588
-0.00218078
0.00597118
-0.00400452
0.000212353
-0.00445547
-0.00305335
-0.00313013
-0.000619721
-0.00181736
0.00290443
-0.00178838
0.00305227
-0.00247322
0.000732017
-0.00270459
-0.000368425
-0.00225295
0.000773739
-0.00182348
0.00239542
-0.00193241
0.0026283
-0.00235407
0.00174402
-0.00253451
0.00120025
-0.00227715
0.00111235
-0.00173604
0.000838369
-0.000998949
-0.000375762
0.000124089
-0.00256081
0.00210156
-0.00532985
0.00530685
-0.00913911
0.00995098
-0.0136341
0.01599
-0.0182558
0.0231216
-0.0220955
0.0303287
-0.0226478
0.0362548
-0.0177752
0.0388965
-0.00626265
0.0354263
0.0074531
0.0246181
0.0260805
0.00457084
0.04541
-0.025093
0.0679109
-0.0631487
0.0971937
-0.107248
0.123094
-0.155034
0.138485
-0.18935
0.130582
-0.208659
-0.0302468
-0.205128
0.0168729
-0.17586
-0.032318
-0.143082
-0.106068
-0.0900691
-0.143598
-0.0339619
-0.163169
0.0206599
-0.163475
0.0795432
-0.185335
0.136221
-0.191616
0.1698
-0.127458
0.156433
-0.00187813
0.0853156
0.159047
-0.0298934
0.326086
-0.200585
0.499562
-0.445308
0.842826
-0.758743
1.03336
-0.582829
-0.242362
-1.03373
0.881954
-0.826426
-1.41366
-0.483764
-0.221176
-1.03409
1.83722
0.0445114
-4.04651
0.633476
-1.24806
0.538257
0.692542
0.357992
0.532267
0.131014
0.632382
-0.061956
0.485259
-0.229755
0.563995
-0.0299234
-0.600313
-0.0202849
-0.0162647
-0.0985771
0.350625
0.339631
-1.29945
0.85704
-1.66451
1.09303
-0.896947
0.784916
0.653941
0.469771
0.945865
0.477965
0.0694
0.456497
0.0118216
0.0972206
1.17165
0.00337968
0.470849
0.434834
-1.29574
0.595335
-0.675268
0.228151
1.1951
1.0259
0.0181928
0.00096264
-0.0135775
0.0222759
0.00229523
0.0196082
0.00299
0.0137994
0.00250247
0.0111749
0.00187257
0.0156711
0.00216089
0.0256704
0.00327744
0.0343667
0.0042727
0.0328419
0.00456923
0.0188585
0.00469823
0.00267959
0.00581869
0.00163194
0.00902084
0.0205226
0.0117353
0.0414909
0.00830534
0.0399713
-0.00271531
0.0128726
-0.0112644
-0.016034
-0.00381764
-0.0227182
0.0196188
-0.000504417
0.045607
0.0271951
0.0528817
0.0389434
0.0319094
0.0298036
-0.00757557
0.0213479
-0.0707441
0.0147446
-0.180766
-0.0623966
-0.321429
-0.0784785
-0.167443
0.0397904
0.231661
0.0597898
0.228464
0.0119617
0.0665529
-0.024374
-0.0505789
-0.0234595
0.0186775
-0.00342426
-0.0130624
0.00890555
0.022328
0.00304035
0.0223355
-0.0084057
-0.00439898
-0.010029
-0.0182519
-0.00313504
-0.00296084
0.00178731
0.0139803
-0.000605653
0.0110867
-0.00562063
-0.00302497
-0.00689811
-0.00830553
-0.00408452
-0.000656502
-0.0019119
0.00707903
-0.00267963
0.00619289
-0.00455963
-0.000284711
-0.00487457
-0.00342571
-0.00341297
-0.000488593
-0.00207462
0.00325693
-0.0020847
0.00322098
-0.00277699
0.000673078
-0.00296291
-0.000378917
-0.00245216
0.00109139
-0.00199766
0.00296997
-0.00211145
0.0032512
-0.00252791
0.00227652
-0.00266982
0.00158434
-0.00233271
0.00137409
-0.00167104
0.000849293
-0.00075124
-0.000900564
0.000657322
-0.00390797
0.00307041
-0.00772328
0.00700701
-0.0130554
0.0125195
-0.01921
0.0197598
-0.0257081
0.0283074
-0.0309485
0.0369399
-0.0316445
0.0439343
-0.0248409
0.0467484
-0.00927226
0.041929
0.0121057
0.0277699
0.0399443
0.002135
0.0706417
-0.0352937
0.104261
-0.0825721
0.144042
-0.136172
0.176493
-0.18564
0.188312
-0.233242
0.178937
-0.251806
0.0787344
-0.243792
0.00567181
-0.208769
-0.0629535
-0.16329
-0.15617
-0.0985477
-0.208913
-0.0316386
-0.233795
0.0318118
-0.227861
0.097388
-0.251166
0.159283
-0.256051
0.192173
-0.160677
0.167757
0.0212645
0.0748695
0.253958
-0.0666839
0.472701
-0.268951
0.697005
-0.53101
0.985287
-0.888489
1.38105
-0.618633
-0.566715
-1.32141
1.62854
-1.24739
-1.51639
-0.547099
-0.926275
-1.24956
2.62958
-0.157921
-5.23626
0.696055
-2.08025
0.683906
0.734068
0.467213
0.761852
0.167583
0.940133
-0.0768413
0.714926
-0.269871
0.757804
-0.0282019
-0.851873
-0.00479295
-0.0348869
-0.075111
0.435218
0.471562
-1.82655
1.10225
-2.31055
1.29116
-1.09323
0.849783
1.10001
0.501626
1.30406
0.561414
0.0103608
0.508504
0.0638234
0.0660601
1.623
0.00548399
0.539514
0.552712
-1.85237
0.613685
-0.738452
0.14183
1.67067
1.17519
0.0191467
0.000960769
-0.0145838
0.0227479
0.00175147
0.0195938
0.00201775
0.0136285
0.0018809
0.010599
0.00143529
0.014725
0.00106716
0.0252843
0.0011519
0.0354978
0.00150169
0.035517
0.00200831
0.022459
0.00371158
0.00701641
0.00789779
0.00646414
0.0137952
0.0252501
0.0159635
0.0459318
0.00778534
0.0453839
-0.00902869
0.0205893
-0.0194993
-0.00698975
-0.00714548
-0.0144108
0.0270175
0.00481519
0.0619793
0.0289513
0.0657284
0.0387889
0.0240088
0.0257559
-0.0498624
0.00999907
-0.121296
-0.0014229
-0.174532
-0.0442808
-0.188831
-0.0317442
-0.00744515
0.0450106
0.232395
0.0478081
0.185675
0.00182937
0.0180815
-0.0277058
-0.0818952
-0.0191886
-0.0669165
0.000822359
0.00190148
0.0101843
0.026401
0.00160419
0.0206887
-0.00966518
-0.00717666
-0.00949186
-0.0187802
-0.00211171
-1.84273e-05
0.00193848
0.0154571
-0.00126561
0.0100427
-0.00622929
-0.00430682
-0.00703579
-0.00807981
-0.0040585
0.000767614
-0.00210284
0.0081991
-0.00314576
0.0061173
-0.00504806
-0.000880682
-0.00518997
-0.00363314
-0.00359506
-0.000197559
-0.00225606
0.00358156
-0.00231468
0.00325269
-0.0029987
0.000534745
-0.00311491
-0.000351065
-0.00253049
0.00147361
-0.00204276
0.00356599
-0.00214984
0.00384657
-0.00254325
0.0027748
-0.00262688
0.00196313
-0.00219517
0.00161455
-0.0014041
0.000766511
-0.0002974
-0.00162574
0.00139622
-0.00558036
0.00423773
-0.0106079
0.00873713
-0.0175906
0.01522
-0.0258103
0.0236139
-0.0343962
0.0335364
-0.0412735
0.0435711
-0.0421588
0.0516183
-0.033111
0.054579
-0.0124311
0.0483723
0.0180559
0.0306502
0.0586934
-0.000986573
0.102413
-0.0467375
0.150175
-0.103725
0.201393
-0.16716
0.240339
-0.22706
0.248779
-0.279395
0.231046
-0.295628
0.117955
-0.281783
-0.0125342
-0.237515
-0.104089
-0.180802
-0.217842
-0.104354
-0.286929
-0.026736
-0.320498
0.0443292
-0.300837
0.114035
-0.321683
0.178526
-0.32384
0.208224
-0.190976
0.170394
0.0581551
0.0543213
0.372841
-0.11257
0.646471
-0.334481
0.919657
-0.608884
1.35801
-1.01211
1.86914
-0.721494
-0.912189
-1.62565
2.59676
-1.63076
-1.54462
-0.575611
-2.07884
-1.46288
3.62068
-0.463142
-6.33567
0.702785
-3.23544
0.831064
0.632583
0.596341
1.0123
0.212976
1.33494
-0.0895628
1.00344
-0.311159
0.981136
-0.0336012
-1.14136
0.0174231
-0.0790428
-0.0323346
0.501095
0.6352
-2.52599
1.3514
-3.04774
1.46254
-1.21164
0.877564
1.69211
0.537156
1.65555
0.673639
-0.127429
0.572851
0.160314
0.0349718
2.17175
0.0129588
0.569165
0.677264
-2.52981
0.58155
-0.644871
-0.00284174
2.25951
1.19528
0.0202161
0.00109015
-0.0154108
0.0234425
0.00139655
0.0199213
0.00131089
0.01368
0.00140138
0.00991063
0.00102182
0.0131465
8.47051e-05
0.0236242
-0.000659473
0.0349071
-0.000744129
0.036663
5.90761e-05
0.0251968
0.00268823
0.0106648
0.00800347
0.00973233
0.0142202
0.0271933
0.0153316
0.0477053
0.00572215
0.0503601
-0.0109432
0.0311629
-0.0193668
0.00723376
-0.00509957
-0.00153267
0.0285694
0.0108885
0.0591098
0.0269087
0.055794
0.0319423
0.0100275
0.0195479
-0.0568377
0.00649626
-0.0993745
0.000171467
-0.0976825
-0.0167812
-0.0505086
0.00288205
0.0914097
0.0446532
0.199249
0.0325614
0.112783
-0.00781054
-0.0359505
-0.0264942
-0.0954358
-0.0117483
-0.0541473
0.00595377
0.0120728
0.0104628
0.0359055
0.000114064
-0.000942494
-0.0106501
-0.0101131
-0.00824755
-0.018675
-0.000743814
0.00335033
0.00212118
0.0163877
-0.00189446
0.00845139
-0.00664492
-0.00537725
-0.00689461
-0.00709012
-0.00383474
0.00259724
-0.0022103
0.0091757
-0.00355373
0.00578986
-0.00543476
-0.00146878
-0.00537081
-0.00361573
-0.00365601
0.000251663
-0.00234677
0.0038634
-0.00246095
0.00315606
-0.0031156
0.00033951
-0.00313528
-0.000278821
-0.00246334
0.001903
-0.00193607
0.00415493
-0.00202624
0.00439519
-0.0023803
0.00323085
-0.00238963
0.00232591
-0.00185491
0.00181881
-0.000933981
0.000582753
0.000353378
-0.00254139
0.00231733
-0.00754648
0.0055636
-0.0139408
0.0106319
-0.0227271
0.0179566
-0.0332904
0.0274228
-0.0442133
0.0386555
-0.0529746
0.0500673
-0.0541361
0.0591898
-0.0425866
0.0623788
-0.0158447
0.0546809
0.0255224
0.033441
0.07886
-0.00432331
0.140521
-0.058766
0.205668
-0.125877
0.269531
-0.199485
0.314818
-0.267971
0.318208
-0.30826
0.271821
-0.34051
0.149811
-0.321647
-0.0331476
-0.263578
-0.162352
-0.19589
-0.290634
-0.107223
-0.377647
-0.0208878
-0.404303
0.0506275
-0.375053
0.128265
-0.400161
0.192659
-0.391954
0.216856
-0.215798
0.163826
0.110648
0.0242242
0.515927
-0.165256
0.844221
-0.406938
1.1613
-0.67322
1.56319
-1.11931
2.33028
-0.93221
-1.16182
-1.88681
3.62765
-1.85016
-1.61124
-0.585258
-3.35147
-1.66982
4.82661
-0.83039
-7.28813
0.638381
-4.70077
0.968236
0.324461
0.74625
1.25209
0.270529
1.82585
-0.0972377
1.35752
-0.354131
1.24037
-0.0508611
-1.45839
0.0469806
-0.17074
0.039038
0.526035
0.829958
-3.32002
1.60448
-3.84591
1.59534
-1.20952
0.870907
2.42664
0.591147
1.94687
0.823141
-0.361327
0.662224
0.319465
0.0109071
2.83531
0.0195224
0.567872
0.779065
-3.3037
0.541423
-0.408138
-0.141479
2.94737
1.11166
0.0211227
0.00092827
-0.0162762
0.0241998
0.00103156
0.0205711
0.000798742
0.0139509
0.000949453
0.00939644
0.000697947
0.0118043
-0.000303823
0.0220557
-0.00138162
0.034033
-0.0018961
0.0371344
-0.00148792
0.0268567
0.000689789
0.0124668
0.00546262
0.0100954
0.0112054
0.0256449
0.0126006
0.0467434
0.00496009
0.0545882
-0.00839798
0.0430664
-0.0150841
0.0237501
-0.00417224
0.0128533
0.0210243
0.0165459
0.0426977
0.0235095
0.0387829
0.0252077
0.00786109
0.0182499
-0.0284528
0.0133412
-0.03506
0.0140795
-0.00443848
0.0107594
0.0474393
0.0241178
0.120901
0.038147
0.13337
0.0172301
0.0338949
-0.0130782
-0.0711523
-0.0204037
-0.084584
-0.00226131
-0.0230293
0.0113778
0.0340589
0.010069
0.0414358
-0.00109027
0.0058411
-0.0109103
-0.0156648
-0.00605902
-0.0149612
0.000993892
0.00723203
0.0023589
0.0166683
-0.00239897
0.00649922
-0.00675111
-0.00599351
-0.00640584
-0.00532397
-0.00338816
0.00471507
-0.00221945
0.00994369
-0.00387551
0.00527186
-0.00568401
-0.00194201
-0.00539031
-0.00332315
-0.00358203
0.000847887
-0.00233788
0.00408173
-0.00251088
0.00293508
-0.00310988
0.000104815
-0.00300526
-0.000158646
-0.00223466
0.0023646
-0.00166505
0.00471377
-0.00173082
0.00488278
-0.00203242
0.00364119
-0.0019569
0.00267003
-0.00131884
0.00198462
-0.000277787
0.000303408
0.00117175
-0.0036248
0.00337654
-0.00975954
0.00698257
-0.0176468
0.0125498
-0.0283665
0.0206085
-0.0415127
0.0310368
-0.0550165
0.0434979
-0.0659327
0.0562733
-0.0675294
0.0665533
-0.0533247
0.0701373
-0.019669
0.0617296
0.0336046
0.0369323
0.105759
-0.00712415
0.185502
-0.0704229
0.270402
-0.148023
0.348648
-0.232278
0.400162
-0.309523
0.396079
-0.359699
0.322292
-0.344043
0.137134
-0.340199
-0.0446684
-0.287273
-0.214914
-0.208883
-0.373678
-0.109165
-0.478922
-0.0144129
-0.502635
0.0639656
-0.45601
0.138977
-0.476199
0.200638
-0.45746
0.217457
-0.233086
0.148263
0.179721
-0.0140237
0.682165
-0.222032
1.0616
-0.470936
1.41233
-0.723806
1.87288
-1.21066
2.86106
-1.23536
-1.18785
-1.94103
4.41859
-1.8188
-1.75086
-0.566858
-4.75367
-1.83064
6.22001
-1.14583
-8.08501
0.500809
-6.34166
1.08236
-0.242503
0.915975
1.43722
0.344487
2.41644
-0.0962626
1.78505
-0.398773
1.54583
-0.0837748
-1.78855
0.084583
-0.333318
0.139571
0.488774
1.04852
-4.25453
1.85144
-4.67503
1.68268
-1.04589
0.836577
3.28481
0.67517
2.11951
1.00909
-0.699373
0.787971
0.537679
0.00498305
3.63237
0.0172021
0.562252
0.824734
-4.12774
0.525564
-0.108325
-0.203507
3.68196
1.01008
0.0218676
0.00051815
-0.0172282
0.0250797
0.000571765
0.0214207
0.000319616
0.0143539
0.000485359
0.00915431
0.00047129
0.0110382
-0.000250301
0.0211759
-0.00134614
0.0336084
-0.00234887
0.0375938
-0.00286236
0.0279412
-0.00190124
0.0129057
0.00174346
0.00818891
0.00717743
0.0212381
0.00998512
0.0429469
0.00564939
0.0563669
-0.0043634
0.0528605
-0.0114132
0.038478
-0.0070755
0.0260332
0.00794458
0.0223844
0.0233363
0.0229282
0.0265221
0.0244857
0.0189652
0.0251174
0.0142357
0.028182
0.0290615
0.0322869
0.0586333
0.0315059
0.0830712
0.0332347
0.0936108
0.0287546
0.0563505
0.00653937
-0.0249066
-0.010976
-0.0752018
-0.00902101
-0.0506815
0.008624
0.0135974
0.0160528
0.0491415
0.00897862
0.0354293
-0.0042526
-0.00260811
-0.00742979
-0.0153803
-0.00295736
-0.000811045
0.00312545
0.0121682
0.0027119
0.0161567
-0.00263513
0.0043139
-0.00640169
-0.00592421
-0.00549588
-0.00280305
-0.00269337
0.00698573
-0.0021074
0.0104661
-0.00407171
0.00465667
-0.00575341
-0.00218716
-0.00522166
-0.0027196
-0.00336227
0.00156354
-0.00222267
0.00420815
-0.00245302
0.00259215
-0.002966
-0.000153955
-0.00271103
9.83771e-06
-0.001836
0.00284157
-0.00122666
0.00522099
-0.00126478
0.00529842
-0.00150568
0.00400695
-0.00134235
0.00300003
-0.000610694
0.00211961
0.000529047
-5.52216e-05
0.00210892
-0.00484119
0.00451025
-0.0121597
0.00840733
-0.0216237
0.014372
-0.0343745
0.0230417
-0.0503231
0.0342962
-0.0666389
0.0478963
-0.0800189
0.0620489
-0.082317
0.0736535
-0.065467
0.0780631
-0.0243594
0.068373
0.0429718
0.0414432
0.133159
-0.00850281
0.236339
-0.080482
0.343717
-0.168883
0.438869
-0.264492
0.496877
-0.351058
0.483204
-0.406322
0.377647
-0.411332
0.141226
-0.376369
-0.0832687
-0.309838
-0.279411
-0.220915
-0.467141
-0.110922
-0.593944
-0.00899382
-0.605451
0.0719169
-0.539485
0.145199
-0.550228
0.201796
-0.517764
0.210052
-0.241492
0.124749
0.265295
-0.0582151
0.869294
-0.279553
1.29297
-0.529203
1.6623
-0.757536
2.07701
-1.28545
3.42547
-1.5553
-0.97951
-2.29472
5.2351
-1.52714
-2.51836
-0.5629
-5.74886
-1.85697
7.65496
-1.22316
-8.8325
0.311404
-7.85454
1.16159
-1.0864
1.10251
1.51457
0.445026
3.097
-0.0824924
2.29979
-0.4445
1.91128
-0.13467
-2.11453
0.132362
-0.595768
0.275839
0.363637
1.27218
-5.2663
2.07867
-5.50931
1.7032
-0.67239
0.79267
4.20832
0.793761
2.12869
1.21668
-1.12806
0.957833
0.79495
0.0282733
4.57731
0.00193853
0.594613
0.799803
-4.94313
0.519252
0.174249
-0.191799
4.3989
0.962343
0.0226196
3.66787e-05
-0.0182584
0.0261548
0.000102256
0.0224359
-0.000106998
0.0149215
7.82301e-05
0.00918296
0.000256644
0.0107127
-0.000158773
0.0207802
-0.00115576
0.0335322
-0.00255419
0.0382778
-0.00396366
0.0292652
-0.00416551
0.0135109
-0.00152022
0.00601119
0.00377008
0.0156751
0.00800423
0.0366676
0.00646727
0.0540392
-0.00139435
0.0572725
-0.0100091
0.047992
-0.0120528
0.0361729
-0.00477614
0.0291946
0.00805685
0.0276297
0.0201165
0.0314412
0.0311467
0.0383559
0.0441704
0.045447
0.0608097
0.0479192
0.0719554
0.0432684
0.0653308
0.0347921
0.0404539
0.0218533
-0.00394814
0.00470489
-0.0474287
-0.0013571
-0.0496118
0.00643369
-0.00627492
0.0194421
0.0429724
0.0194612
0.052036
0.0081052
0.0227656
-0.00346039
-0.0105162
-0.0038975
-0.0160502
0.000789917
-0.00170708
0.00537885
0.0157366
0.00335689
0.013236
-0.00239962
0.00222518
-0.00543499
-0.00516005
-0.0040885
0.00024044
-0.00171338
0.00926946
-0.00183052
0.0107618
-0.00408224
0.00408374
-0.00558862
-0.0020863
-0.00483484
-0.00178871
-0.00298585
0.00235526
-0.00199362
0.00421208
-0.00227499
0.00213401
-0.00266985
-0.000420408
-0.002244
0.00022396
-0.00126747
0.0033144
-0.000628487
0.00565684
-0.000641648
0.00563636
-0.000820333
0.00433592
-0.000575727
0.00332795
0.000228215
0.00223935
0.00143264
-0.000468076
0.00309765
-0.00614547
0.00563592
-0.0146748
0.0097359
-0.0257556
0.0159708
-0.0405989
0.0251244
-0.0595748
0.0370459
-0.0788807
0.0516973
-0.095108
0.0672825
-0.0985187
0.0804793
-0.0792543
0.0861531
-0.0303019
0.0775536
0.051179