/*--------------------------------*- C++ -*----------------------------------*\
| =========                 |                                                 |
| \\      /  F ield         | OpenFOAM: The Open Source CFD Toolbox           |
|  \\    /   O peration     | Version:  2412                                  |
|   \\  /    A nd           | Website:  www.openfoam.com                      |
|    \\/     M anipulation  |                                                 |
\*---------------------------------------------------------------------------*/
FoamFile
{
    version     2.0;
    format      ascii;
    arch        "LSB;label=32;scalar=64";
    class       volVectorField;
    location    "0.505";
    object      U;
}
// * * * * * * * * * * * * * * * * * * * * * * * * * * * * * * * * * * * * * //

dimensions      [0 1 -1 0 0 0 0];

internalField   nonuniform List<vector> 
12600
(
(18.7228 1.24932e-21 2.08816)
(11.6162 1.61088e-20 0.44909)
(7.35247 1.89473e-20 -0.478514)
(5.09266 0 -0.709678)
(3.9805 1.71407e-20 -0.682828)
(3.34011 1.5969e-20 -0.608183)
(2.89901 0 -0.540533)
(2.56782 0 -0.485136)
(2.30818 -4.80685e-20 -0.439708)
(2.098 0 -0.401982)
(1.92357 2.01796e-20 -0.370117)
(1.77597 1.84861e-20 -0.342789)
(1.64908 -1.69433e-20 -0.31905)
(1.53858 0 -0.298206)
(1.44129 -1.42152e-20 -0.279732)
(1.35481 0 -0.263226)
(1.27731 4.78194e-20 -0.248373)
(1.20738 0 -0.234924)
(1.14388 -2.00385e-20 -0.222678)
(1.0859 -1.83393e-20 -0.21147)
(1.0327 1.67535e-20 -0.201167)
(0.983671 5.59656e-24 -0.191657)
(0.938304 0 -0.182845)
(0.896176 -2.5339e-20 -0.174654)
(0.856926 0 -0.167015)
(0.820247 0 -0.159872)
(0.785877 -1.88488e-20 -0.153174)
(0.753588 0 -0.146879)
(0.723182 3.8723e-24 -0.140948)
(0.694486 1.36838e-20 -0.135349)
(0.66735 1.2207e-20 -0.130053)
(0.641638 1.08386e-20 -0.125034)
(0.617232 -9.57103e-21 -0.12027)
(0.594027 -1.67947e-20 -0.11574)
(0.571927 -1.46222e-20 -0.111425)
(0.55085 1.2602e-20 -0.10731)
(0.530717 0 -0.10338)
(0.511461 -9.03802e-21 -0.0996206)
(0.493018 0 -0.0960208)
(0.475332 5.99168e-21 -0.0925691)
(0.458351 0 -0.0892555)
(0.442029 1.72098e-23 -0.0860708)
(0.42632 0 -0.0830066)
(0.411187 1.56757e-23 -0.0800551)
(0.396592 5.00835e-22 -0.077209)
(0.3825 1.24187e-21 -0.0744619)
(0.368882 -2.86147e-21 -0.0718076)
(0.355707 0 -0.0692403)
(0.342949 0 -0.0667549)
(0.330582 -6.86724e-21 -0.0643463)
(0.318584 -1.59236e-20 -0.06201)
(0.306932 -1.78986e-20 -0.0597418)
(0.295605 1.91327e-23 -0.0575375)
(0.284585 -2.12452e-20 -0.0553936)
(0.273853 0 -0.0533061)
(0.263394 2.39328e-20 -0.0512724)
(0.253189 2.50358e-20 -0.0492885)
(0.243228 2.59844e-20 -0.0473525)
(0.233491 0 -0.0454607)
(0.22397 0 -0.0436115)
(0.214648 0 -0.0418012)
(0.205521 -5.72574e-20 -0.0400292)
(0.196568 0 -0.0382916)
(0.18779 0 -0.0365884)
(0.179167 1.18147e-19 -0.0349156)
(0.170704 0 -0.0332742)
(0.162376 0 -0.0316595)
(0.154197 0 -0.0300739)
(0.146138 -1.18694e-19 -0.0285119)
(0.138219 1.18211e-19 -0.0269772)
(0.130407 1.17506e-19 -0.0254637)
(0.12273 2.31978e-23 -0.0239766)
(0.115152 -1.15523e-19 -0.0225087)
(0.107708 0 -0.0210671)
(0.100355 1.12865e-19 -0.0196432)
(0.0931436 0 -0.0182468)
(0.0860139 0 -0.0168664)
(0.0790418 0 -0.0155165)
(0.0721402 2.87724e-23 -0.0141805)
(0.0654244 2.0791e-19 -0.0128802)
(0.0587597 2.03703e-19 -0.0115902)
(0.0523292 -1.99369e-19 -0.010345)
(0.0459147 -1.94862e-19 -0.00910348)
(0.0398085 0 -0.0079208)
(0.0336503 0 -0.00672898)
(0.0279061 3.61675e-19 -0.00561611)
(0.021994 -7.03643e-19 -0.00447212)
(0.0166611 6.84231e-19 -0.00343858)
(0.0109404 3.3206e-19 -0.00233217)
(0.0060206 0 -0.00137866)
(0.000312558 -6.24116e-19 -0.000275918)
(-0.00417973 3.02324e-19 0.000593589)
(-0.00995441 -2.9216e-19 0.00170845)
(-0.0138038 5.65306e-19 0.00245361)
(-0.0196829 0 0.00358718)
(-0.0226934 0 0.00417033)
(-0.0290789 0 0.00539934)
(-0.0312519 0 0.00582002)
(-0.0380982 0 0.00713823)
(-0.0381518 0 0.00714903)
(-0.04684 -4.3616e-19 0.0088193)
(-0.0462314 -8.40673e-19 0.00869718)
(-0.0579294 -8.0632e-19 0.0109429)
(-0.0546894 0 0.0102848)
(-0.0603794 0 0.0113799)
(-0.0378398 0 0.00715964)
(-0.087117 -6.74035e-19 0.0168162)
(-0.140589 -1.2913e-18 0.0267251)
(-0.207173 6.33706e-19 0.0392439)
(-0.153698 0 0.028398)
(-0.0955555 -1.28702e-18 0.0172758)
(0.00602817 0 -0.00195044)
(0.033964 -1.2087e-18 -0.006925)
(0.0737832 1.13664e-18 -0.0143158)
(0.049241 -1.08102e-18 -0.00959704)
(0.0738122 -1.01594e-18 -0.0142876)
(0.0421083 9.69618e-19 -0.00840339)
(0.102709 -3.72407e-23 -0.0200902)
(0.0900569 8.75917e-19 -0.0176841)
(0.175302 0 -0.0340518)
(29.1278 -1.26119e-21 4.01682)
(25.0939 0 1.8529)
(20.2395 -1.91768e-20 -0.216773)
(16.079 0 -1.21419)
(13.1234 -1.73685e-20 -1.50945)
(11.0831 -3.05138e-20 -1.52047)
(9.61229 -1.41304e-20 -1.44292)
(8.50123 0 -1.34545)
(7.62904 3.56287e-22 -1.25018)
(6.92298 -2.19998e-20 -1.16319)
(6.33747 2.02088e-20 -1.08518)
(5.84252 1.85616e-20 -1.01542)
(5.41755 -1.70467e-20 -0.952902)
(5.04792 1.56524e-20 -0.89666)
(4.72287 2.87929e-20 -0.845832)
(4.43434 0 -0.799685)
(4.17616 -6.5127e-23 -0.757603)
(3.94348 2.21609e-20 -0.719063)
(3.73248 2.03301e-20 -0.683629)
(3.54007 0 -0.650929)
(3.36376 0 -0.620648)
(3.20147 1.54981e-20 -0.592519)
(3.0515 0 -0.56631)
(2.91241 1.2845e-20 -0.541824)
(2.78297 -2.33187e-20 -0.518888)
(2.66215 0 -0.497354)
(2.54907 1.91036e-20 -0.477091)
(2.44296 0 -0.457983)
(2.34315 -1.5475e-20 -0.439931)
(2.24905 -2.77215e-20 -0.422844)
(2.16016 -2.47252e-20 -0.406642)
(2.07603 -1.09706e-20 -0.391256)
(1.99625 9.68495e-21 -0.37662)
(1.92048 3.39967e-20 -0.362678)
(1.84839 2.95924e-20 -0.349379)
(1.7797 0 -0.336675)
(1.71415 0 -0.324525)
(1.65152 -1.69379e-23 -0.31289)
(1.59159 0 -0.301735)
(1.53418 -6.04884e-21 -0.291028)
(1.4791 0 -0.28074)
(1.42622 -6.86906e-21 -0.270844)
(1.37536 0 -0.261314)
(1.32642 -2.4548e-21 -0.252128)
(1.27925 0 -0.243265)
(1.23376 -1.25048e-21 -0.234706)
(1.18983 0 -0.22643)
(1.14738 0 -0.218423)
(1.1063 5.65584e-21 -0.210667)
(1.06651 0 -0.203149)
(1.02794 0 -0.195854)
(0.990522 0 -0.188769)
(0.954175 1.9717e-20 -0.181882)
(0.918844 4.25684e-20 -0.175183)
(0.884463 0 -0.168658)
(0.850984 0 -0.162301)
(0.818346 -2.5011e-20 -0.156099)
(0.786509 -2.59832e-20 -0.150045)
(0.755415 0 -0.14413)
(0.725035 0 -0.138347)
(0.695311 0 -0.132686)
(0.666227 0 -0.127144)
(0.637722 -5.77729e-20 -0.12171)
(0.609792 5.83332e-20 -0.116384)
(0.582373 -1.17473e-19 -0.111152)
(0.555476 0 -0.106019)
(0.529031 0 -0.100969)
(0.503066 0 -0.0960116)
(0.477501 4.65712e-23 -0.0911265)
(0.452386 -1.17081e-19 -0.0863286)
(0.427629 -1.16276e-19 -0.0815951)
(0.403305 2.30528e-19 -0.0769463)
(0.379304 3.54127e-23 -0.0723553)
(0.355734 -1.12728e-19 -0.0678491)
(0.332461 -1.1126e-19 -0.0633954)
(0.309634 0 -0.0590305)
(0.287079 0 -0.0547126)
(0.265013 0 -0.0504929)
(0.243186 2.08012e-19 -0.046313)
(0.221928 0 -0.0422482)
(0.200857 0 -0.0382114)
(0.180493 1.95126e-19 -0.0343187)
(0.160216 1.90511e-19 -0.0304325)
(0.140865 0 -0.026735)
(0.121401 0 -0.0230024)
(0.10318 0 -0.0195229)
(0.0845042 6.84875e-19 -0.0159388)
(0.0675645 -4.62813e-23 -0.0127065)
(0.049514 3.22465e-19 -0.00923814)
(0.033876 -3.12603e-19 -0.00625432)
(0.0159461 6.04825e-19 -0.00280676)
(0.00171544 2.92633e-19 -9.17896e-05)
(-0.0163033 5.65048e-19 0.00337507)
(-0.0284635 0 0.00568424)
(-0.0467293 0 0.00920561)
(-0.0562398 0 0.0110048)
(-0.0759694 0 0.0148171)
(-0.0826707 4.71012e-19 0.0160692)
(-0.103693 0 0.0201172)
(-0.104044 0 0.0201597)
(-0.130788 -4.18185e-19 0.0253472)
(-0.128583 4.02655e-19 0.024908)
(-0.163976 1.54325e-18 0.0317344)
(-0.152326 -7.43467e-19 0.0293332)
(-0.171166 0 0.0326289)
(-0.110545 0 0.0216167)
(-0.263231 0 0.0525407)
(-0.407896 6.1499e-19 0.0804261)
(-0.586218 -6.03101e-19 0.113171)
(-0.409302 0 0.0764045)
(-0.246469 2.44526e-18 0.0442255)
(0.0522214 1.19256e-18 -0.0125072)
(0.119842 2.29299e-18 -0.0243809)
(0.238437 0 -0.0459965)
(0.162779 0 -0.0313499)
(0.241894 -9.61485e-19 -0.0462901)
(0.151906 0 -0.0296809)
(0.33698 -8.72503e-19 -0.0656129)
(0.297756 -8.2725e-19 -0.0583756)
(0.55448 0 -0.108119)
(31.8716 0 3.88401)
(31.0622 0 2.80929)
(28.5387 -1.30043e-20 1.01665)
(25.2023 0 -0.38802)
(21.9566 0 -1.23071)
(19.1887 1.51661e-20 -1.65489)
(16.9344 1.33816e-20 -1.82297)
(15.1123 0 -1.85453)
(13.627 4.20932e-22 -1.82087)
(12.3986 2.08418e-20 -1.75844)
(11.3666 -3.80819e-20 -1.68473)
(10.4869 -1.7587e-20 -1.60809)
(9.72733 1.1483e-22 -1.5325)
(9.06411 -1.48319e-20 -1.45982)
(8.47934 -1.36152e-20 -1.39082)
(7.95934 1.24433e-20 -1.32578)
(7.49344 -2.29146e-20 -1.26468)
(7.07325 -2.10006e-20 -1.20735)
(6.69204 0 -1.15359)
(6.34436 0 -1.10314)
(6.02576 1.60516e-20 -1.05576)
(5.73255 1.46539e-20 -1.01122)
(5.46165 0 -0.96928)
(5.21049 0 -0.929743)
(4.97687 2.20959e-20 -0.892416)
(4.75891 0 -0.857124)
(4.55502 -3.61963e-20 -0.823709)
(4.36378 1.63164e-20 -0.792027)
(4.18401 0 -0.761946)
(4.01464 1.31346e-20 -0.733349)
(3.85474 1.17152e-20 -0.706127)
(3.70348 0 -0.680182)
(3.56016 -9.18715e-21 -0.655424)
(3.42411 -1.61092e-20 -0.631771)
(3.29477 1.17122e-23 -0.609148)
(3.1716 0 -0.587488)
(3.05416 0 -0.566726)
(2.94201 8.66285e-21 -0.546806)
(2.83477 0 -0.527673)
(2.7321 0 -0.50928)
(2.63369 0 -0.491579)
(2.53924 0 -0.47453)
(2.4485 0 -0.458093)
(2.36121 0 -0.442231)
(2.27716 0 -0.426912)
(2.19615 1.14139e-21 -0.412103)
(2.11797 -2.67249e-21 -0.397775)
(2.04246 0 -0.383901)
(1.96945 -5.35095e-21 -0.370455)
(1.89879 0 -0.357412)
(1.83033 0 -0.344749)
(1.76396 1.69123e-20 -0.332447)
(1.69954 0 -0.320484)
(1.63695 -2.01112e-20 -0.308842)
(1.57609 2.14168e-20 -0.2975)
(1.51687 0 -0.286447)
(1.45916 2.36409e-20 -0.27566)
(1.40291 0 -0.265132)
(1.34801 0 -0.25484)
(1.2944 0 -0.24478)
(1.24199 5.29548e-20 -0.234929)
(1.19072 5.38389e-20 -0.225287)
(1.14051 2.78958e-23 -0.215829)
(1.09134 -1.1014e-19 -0.206562)
(1.04309 2.44702e-23 -0.197457)
(0.995786 0 -0.188526)
(0.949299 0 -0.179737)
(0.903675 -1.11289e-19 -0.171111)
(0.858776 3.74671e-23 -0.162609)
(0.814682 0 -0.154261)
(0.771235 0 -0.146024)
(0.728557 -1.08679e-19 -0.137936)
(0.686466 2.84704e-23 -0.129946)
(0.645131 2.65383e-23 -0.122106)
(0.604335 0 -0.114355)
(0.564317 0 -0.106761)
(0.524794 -2.03151e-19 -0.0992456)
(0.486114 1.99599e-19 -0.0919026)
(0.447876 0 -0.0846263)
(0.41061 0 -0.0775512)
(0.373699 0 -0.0705229)
(0.337991 0 -0.0637454)
(0.302475 0 -0.056978)
(0.26852 0 -0.0505369)
(0.234433 0 -0.0440352)
(0.202437 0 -0.0379706)
(0.169743 -6.43872e-19 -0.0317275)
(0.139967 -3.1267e-19 -0.0260882)
(0.1084 -3.03076e-19 -0.020047)
(0.0809028 2.93746e-19 -0.0148368)
(0.049663 -5.68161e-19 -0.0088507)
(0.0247051 -2.74868e-19 -0.00412322)
(-0.0065255 -2.65304e-19 0.00185739)
(-0.0278108 0 0.00586226)
(-0.0593547 0 0.011919)
(-0.0759992 0 0.0150385)
(-0.109897 0 0.0215721)
(-0.121411 -4.41887e-19 0.02368)
(-0.157371 0 0.0305539)
(-0.158233 0 0.0306872)
(-0.203974 3.92101e-19 0.0395659)
(-0.199702 0 0.038735)
(-0.259403 -7.23198e-19 0.0501684)
(-0.237397 6.96713e-19 0.0454642)
(-0.271913 0 0.0510833)
(-0.179361 0 0.0359145)
(-0.439325 0 0.0906435)
(-0.658276 5.75816e-19 0.132436)
(-0.929187 0 0.178096)
(-0.611805 -5.73649e-19 0.10875)
(-0.357104 -2.44621e-22 0.0578045)
(0.135455 -1.11611e-18 -0.0342338)
(0.226864 -2.14556e-18 -0.0477828)
(0.425693 0 -0.0825005)
(0.296326 9.57768e-19 -0.0572411)
(0.43651 8.99352e-19 -0.0834712)
(0.292296 8.57533e-19 -0.0582314)
(0.605703 0 -0.119374)
(0.53828 7.73508e-19 -0.107449)
(0.968784 0 -0.191029)
(32.395 0 2.93989)
(32.9632 0 2.75599)
(32.4134 1.22933e-20 1.71354)
(30.7749 0 0.513885)
(28.5266 -1.23454e-20 -0.490147)
(26.1149 2.51158e-20 -1.21239)
(23.7995 0 -1.67509)
(21.6964 -2.19427e-20 -1.93909)
(19.8392 2.10456e-20 -2.06827)
(18.2184 1.90433e-20 -2.1126)
(16.8067 1.79054e-20 -2.10587)
(15.573 -1.62842e-20 -2.06934)
(14.4888 1.51671e-20 -2.01595)
(13.5299 -2.76685e-20 -1.95352)
(12.6764 0 -1.88678)
(11.9119 -2.34739e-20 -1.81859)
(11.2231 0 -1.7507)
(10.5993 0 -1.68417)
(10.0314 0 -1.61961)
(9.51214 1.65638e-20 -1.55735)
(9.03535 -3.44985e-23 -1.49757)
(8.59587 -2.62918e-23 -1.44031)
(8.18935 1.26146e-20 -1.38556)
(7.8121 0 -1.33325)
(7.46096 0 -1.28331)
(7.13322 0 -1.23563)
(6.82651 3.42181e-20 -1.19009)
(6.53881 -6.34557e-24 -1.14659)
(6.26833 0 -1.10502)
(6.0135 0 -1.06526)
(5.77295 0 -1.02722)
(5.54545 0 -0.990797)
(5.32993 1.73774e-20 -0.955895)
(5.12541 0 -0.922427)
(4.93102 -1.32689e-20 -0.89031)
(4.746 0 -0.859466)
(4.56964 0 -0.829822)
(4.4013 -8.212e-21 -0.801308)
(4.24041 0 -0.773862)
(4.08645 0 -0.747422)
(3.93894 4.23016e-21 -0.721932)
(3.79745 -6.21534e-21 -0.69734)
(3.66157 0 -0.673595)
(3.53095 -2.26013e-21 -0.650651)
(3.40523 0 -0.628463)
(3.28413 -2.13743e-21 -0.606992)
(3.16733 1.84706e-23 -0.586197)
(3.05458 0 -0.566043)
(2.94563 0 -0.546493)
(2.84025 6.10719e-21 -0.527518)
(2.73822 1.41753e-20 -0.509084)
(2.63935 -3.19103e-20 -0.491164)
(2.54344 0 -0.473728)
(2.45032 -1.89373e-20 -0.456754)
(2.35983 -2.02166e-20 -0.440211)
(2.27181 -2.13e-20 -0.424083)
(2.18612 -2.22701e-20 -0.40834)
(2.10262 0 -0.392969)
(2.02118 0 -0.37794)
(1.9417 -4.88982e-20 -0.363248)
(1.86403 -9.98697e-20 -0.348859)
(1.78811 -5.07793e-20 -0.334773)
(1.71379 2.99521e-23 -0.320956)
(1.64104 5.19141e-20 -0.307415)
(1.56971 5.22459e-20 -0.294111)
(1.49979 0 -0.281061)
(1.43112 0 -0.268219)
(1.36376 1.04877e-19 -0.255613)
(1.29749 2.09018e-19 -0.243189)
(1.23243 0 -0.23099)
(1.16835 1.03202e-19 -0.218952)
(1.10542 1.02292e-19 -0.207133)
(1.04339 1.01244e-19 -0.195457)
(0.982468 2.0002e-19 -0.183999)
(0.922366 0 -0.17267)
(0.863407 0 -0.16157)
(0.805198 1.9117e-19 -0.150584)
(0.748218 -3.75546e-19 -0.139849)
(0.691912 -1.84168e-19 -0.129212)
(0.63701 0 -0.118865)
(0.582664 0 -0.108589)
(0.530038 0 -0.0986733)
(0.477749 0 -0.0887779)
(0.427677 0 -0.0793478)
(0.377494 0 -0.0698403)
(0.330278 -3.11255e-19 -0.060955)
(0.282163 4.45559e-23 -0.0518274)
(0.238183 2.93579e-19 -0.0435559)
(0.191772 0 -0.0347279)
(0.151152 2.75717e-19 -0.0270797)
(0.105394 2.66645e-19 -0.0183591)
(0.0686117 0 -0.0114399)
(0.023096 -2.48892e-19 -0.00278278)
(-0.00822034 -4.80854e-19 0.0030825)
(-0.054023 0 0.0118156)
(-0.0785039 0 0.0163881)
(-0.127449 0 0.0257667)
(-0.144099 -4.14201e-19 0.0287933)
(-0.195824 0 0.0385913)
(-0.197434 0 0.0388981)
(-0.263083 3.67353e-19 0.0516048)
(-0.256185 -3.5356e-19 0.0503344)
(-0.340742 0 0.0663821)
(-0.306536 0 0.0588892)
(-0.359773 0 0.0672539)
(-0.241234 0 0.0499358)
(-0.609602 0 0.129922)
(-0.882554 -6.56655e-23 0.18165)
(-1.22687 0 0.23494)
(-0.753006 5.36803e-19 0.127902)
(-0.422726 -1.07041e-18 0.0604838)
(0.259714 0 -0.065535)
(0.358099 5.88695e-23 -0.0766244)
(0.639453 0 -0.124082)
(0.454028 -2.80731e-23 -0.0876075)
(0.661864 0 -0.126351)
(0.467748 -8.01764e-19 -0.0937861)
(0.911592 0 -0.180829)
(0.814607 7.22964e-19 -0.164363)
(1.41914 0 -0.282253)
(32.4993 0 2.08657)
(33.2581 0 2.21372)
(33.6067 0 1.74015)
(33.2452 0 0.947481)
(32.2261 1.16532e-20 0.10683)
(30.7562 -9.00437e-22 -0.641405)
(29.0408 0 -1.24183)
(27.2384 2.07109e-20 -1.68527)
(25.4584 0 -1.98882)
(23.767 -3.54484e-20 -2.18068)
(22.1965 0 -2.28938)
(20.757 1.53734e-20 -2.33888)
(19.4461 0 -2.34746)
(18.2551 2.61234e-20 -2.32836)
(17.1729 -1.19076e-20 -2.29086)
(16.1879 2.20178e-20 -2.24142)
(15.2894 -2.01721e-20 -2.18447)
(14.4673 -1.8531e-20 -2.12307)
(13.7129 0 -2.05934)
(13.0186 -1.56407e-20 -1.99472)
(12.3778 -1.4304e-20 -1.93021)
(11.7845 -2.60902e-20 -1.86649)
(11.2337 -1.19115e-20 -1.80401)
(10.7211 0 -1.74309)
(10.2428 0 -1.68389)
(9.79543 0 -1.62654)
(9.37612 -1.61497e-20 -1.57107)
(8.98227 -1.45638e-20 -1.51751)
(8.61159 0 -1.46584)
(8.26205 0 -1.41601)
(7.93187 1.04606e-20 -1.36799)
(7.61944 0 -1.32171)
(7.32333 1.12138e-24 -1.27712)
(7.04226 -1.4401e-20 -1.23413)
(6.77507 1.25409e-20 -1.1927)
(6.52072 0 -1.15274)
(6.27828 0 -1.1142)
(6.04687 7.75066e-21 -1.07701)
(5.82574 0 -1.0411)
(5.61416 0 -1.00642)
(5.41149 -3.99185e-21 -0.972902)
(5.21714 5.86482e-21 -0.940494)
(5.03056 0 -0.909141)
(4.85125 2.13239e-21 -0.878791)
(4.67874 0 -0.849395)
(4.51262 9.99074e-22 -0.820905)
(4.35247 2.36406e-21 -0.793277)
(4.19795 0 -0.766468)
(4.04869 4.72032e-21 -0.740435)
(3.9044 -5.75942e-21 -0.715142)
(3.76476 -2.67048e-20 -0.690549)
(3.6295 1.50304e-20 -0.666624)
(3.49837 -1.64955e-20 -0.643328)
(3.37113 2.48777e-23 -0.620635)
(3.24753 0 -0.598507)
(3.12738 2.00761e-20 -0.576922)
(3.01045 2.09884e-20 -0.555844)
(2.8966 -2.17604e-20 -0.535256)
(2.7856 2.24408e-20 -0.515121)
(2.67733 4.60691e-20 -0.49543)
(2.57158 4.70245e-20 -0.476141)
(2.46827 -4.77694e-20 -0.457255)
(2.36719 4.8408e-20 -0.438725)
(2.26829 0 -0.420564)
(2.17136 0 -0.402717)
(2.07641 4.93217e-20 -0.385209)
(1.98319 0 -0.367979)
(1.89177 0 -0.351064)
(1.80188 -9.83348e-20 -0.334393)
(1.71366 0 -0.318022)
(1.62681 -9.7097e-20 -0.301866)
(1.54154 -1.92422e-19 -0.286003)
(1.45749 0 -0.270329)
(1.37498 -9.40404e-20 -0.25495)
(1.2936 0 -0.239741)
(1.21376 0 -0.224837)
(1.13496 -1.79616e-19 -0.210086)
(1.05781 1.76465e-19 -0.195669)
(0.9816 3.94214e-23 -0.181383)
(0.907255 0 -0.167483)
(0.8337 0 -0.153679)
(0.762413 0 -0.140352)
(0.691639 -1.58162e-19 -0.127056)
(0.623771 1.54217e-19 -0.114374)
(0.55585 0 -0.101597)
(0.491806 5.84309e-19 -0.0896393)
(0.426704 2.83772e-19 -0.0773753)
(0.366999 -5.50956e-19 -0.0662317)
(0.304266 -2.66919e-19 -0.0543764)
(0.249122 -5.17272e-19 -0.0440664)
(0.187502 0 -0.0323949)
(0.137678 0 -0.023095)
(0.0766842 2.33377e-19 -0.0115761)
(0.0343218 4.50808e-19 -0.00369156)
(-0.0268227 -4.34143e-19 0.00786817)
(-0.0599241 0 0.0140205)
(-0.124862 0 0.0263782)
(-0.147033 3.88081e-19 0.0303627)
(-0.215423 3.72646e-19 0.0431829)
(-0.218034 0 0.0437408)
(-0.304463 -3.44035e-19 0.0604076)
(-0.294307 3.3107e-19 0.0586047)
(-0.404232 0 0.0792196)
(-0.356139 0 0.0684367)
(-0.431568 0 0.0800372)
(-0.292073 0 0.0630103)
(-0.766903 0 0.16909)
(-1.07075 -5.04229e-19 0.225595)
(-1.47082 0 0.279379)
(-0.826015 0 0.129781)
(-0.439473 0 0.049577)
(0.428574 9.76055e-19 -0.108345)
(0.516937 9.38267e-19 -0.112014)
(0.883986 0 -0.171856)
(0.640435 -8.37341e-19 -0.123669)
(0.922177 0 -0.176294)
(0.682574 -7.49301e-19 -0.138058)
(1.25677 0 -0.251129)
(1.12933 -6.75636e-19 -0.230415)
(1.90559 0 -0.382353)
(32.5729 -5.01236e-21 1.47185)
(33.1569 -6.21584e-21 1.61282)
(33.6844 7.37608e-21 1.42309)
(33.9115 8.30965e-21 0.963302)
(33.7213 0 0.372453)
(33.1255 -9.95672e-21 -0.24251)
(32.1973 0 -0.81581)
(31.0277 1.75112e-20 -1.31046)
(29.7049 1.67498e-20 -1.71103)
(28.3052 3.23181e-20 -2.01795)
(26.888 -1.48787e-20 -2.24088)
(25.4953 1.38916e-20 -2.3933)
(24.1543 0 -2.48909)
(22.8805 0 -2.54085)
(21.6813 1.12263e-20 -2.5592)
(20.5585 -1.14813e-22 -2.55266)
(19.5104 1.76543e-22 -2.52786)
(18.5337 1.36345e-22 -2.48987)
(17.6237 0 -2.44253)
(16.7757 0 -2.38871)
(15.9848 0 -2.33057)
(15.2462 2.45156e-20 -2.26971)
(14.5557 1.1166e-20 -2.20734)
(13.909 0 -2.14435)
(13.3025 0 -2.08138)
(12.7329 1.67802e-20 -2.01894)
(12.1969 0 -1.95737)
(11.6919 0 -1.89692)
(11.2153 0 -1.83777)
(10.7649 0 -1.78005)
(10.3386 -6.71196e-24 -1.72382)
(9.93453 0 -1.66913)
(9.55106 -1.88162e-24 -1.616)
(9.18663 1.35751e-20 -1.56442)
(8.83987 2.15449e-24 -1.51438)
(8.50951 0 -1.46586)
(8.19439 0 -1.41882)
(7.89348 0 -1.37322)
(7.6058 0 -1.32901)
(7.33046 0 -1.28615)
(7.06667 0 -1.2446)
(6.81367 0 -1.20431)
(6.57077 -3.7278e-21 -1.16522)
(6.33733 -2.0445e-21 -1.12729)
(6.11277 0 -1.09047)
(5.89654 9.07522e-22 -1.05471)
(5.68813 0 -1.01998)
(5.48708 0 -0.986215)
(5.29293 -8.87695e-21 -0.953383)
(5.10529 0 -0.921442)
(4.92375 1.2561e-20 -0.890347)
(4.74798 0 -0.860064)
(4.57763 3.10392e-20 -0.830549)
(4.41239 2.40739e-23 -0.801771)
(4.25195 0 -0.773689)
(4.09605 0 -0.746277)
(3.94441 0 -0.719491)
(3.79681 4.09423e-20 -0.693314)
(3.65297 -4.22202e-20 -0.6677)
(3.51274 -4.32844e-20 -0.642639)
(3.37584 -4.4183e-20 -0.618081)
(3.24215 8.98552e-20 -0.594028)
(3.11141 4.54827e-20 -0.570422)
(2.98355 0 -0.547278)
(2.85829 0 -0.524531)
(2.73563 -2.38645e-23 -0.502211)
(2.61526 0 -0.48024)
(2.49726 0 -0.458669)
(2.38129 -9.23682e-20 -0.437404)
(2.2675 0 -0.416522)
(2.15551 0 -0.395908)
(2.04558 1.80768e-19 -0.375667)
(1.93727 -8.93947e-20 -0.355665)
(1.83095 0 -0.336036)
(1.72611 0 -0.31662)
(1.62326 0 -0.297594)
(1.52177 1.68687e-19 -0.278757)
(1.42239 0 -0.260345)
(1.32424 3.24879e-19 -0.242096)
(1.22846 -1.59103e-19 -0.224337)
(1.13373 0 -0.206699)
(1.04185 0 -0.189662)
(0.950691 1.48417e-19 -0.172669)
(0.863166 -2.7104e-23 -0.156445)
(0.775675 1.40819e-19 -0.140112)
(0.693024 -2.74016e-19 -0.124803)
(0.609184 2.66055e-19 -0.109126)
(0.532069 2.58304e-19 -0.0948454)
(0.451364 2.50261e-19 -0.0797014)
(0.380148 3.36907e-23 -0.0664837)
(0.301167 0 -0.051627)
(0.236952 -2.26625e-19 -0.0397363)
(0.159145 0 -0.0251493)
(0.104604 0 -0.0150802)
(0.0269143 4.06711e-19 -0.000531836)
(-0.0156702 0 0.00737357)
(-0.0976316 0 0.0228298)
(-0.12577 0 0.0278425)
(-0.211812 -3.48913e-19 0.043792)
(-0.215678 0 0.0446909)
(-0.323728 -3.2198e-19 0.065408)
(-0.309592 0 0.0629818)
(-0.445385 0 0.0880976)
(-0.381854 0 0.0736842)
(-0.483215 0 0.0891334)
(-0.326524 0 0.0743406)
(-0.902767 -4.93235e-19 0.206486)
(-1.21186 -4.71452e-19 0.261995)
(-1.65186 4.61672e-19 0.309915)
(-0.823504 0 0.113851)
(-0.402873 0 0.0248302)
(0.64618 -1.8249e-18 -0.163036)
(0.707589 0 -0.154534)
(1.16412 8.2381e-19 -0.226619)
(0.860802 0 -0.166269)
(1.22192 7.34561e-19 -0.233776)
(0.941484 7.0021e-19 -0.191676)
(1.64315 0 -0.33045)
(1.48512 -6.31185e-19 -0.305962)
(2.4275 0 -0.491275)
(32.6287 4.72027e-21 1.01929)
(33.0402 1.14637e-20 1.10747)
(33.4869 -6.94787e-21 1.02553)
(33.8529 -7.79858e-22 0.763166)
(34.0275 7.52909e-21 0.373802)
(33.9547 0 -0.0806339)
(33.6267 0 -0.551042)
(33.0636 -1.64894e-20 -1.00171)
(32.3007 -3.06418e-20 -1.40902)
(31.3803 -7.08706e-22 -1.75995)
(30.3458 1.4009e-20 -2.05)
(29.2378 -1.30796e-20 -2.28051)
(28.091 1.18363e-20 -2.45629)
(26.9337 0 -2.58391)
(25.7874 0 -2.67054)
(24.6676 -9.62659e-21 -2.72316)
(23.5847 3.52506e-20 -2.74814)
(22.5452 3.24651e-20 -2.75106)
(21.5526 0 -2.7366)
(20.6083 0 -2.70865)
(19.712 0 -2.67037)
(18.8627 -6.76723e-23 -2.62429)
(18.0586 -2.09754e-20 -2.57245)
(17.2976 9.53759e-21 -2.51644)
(16.5773 1.73535e-20 -2.45755)
(15.8954 -3.15503e-20 -2.39676)
(15.2495 1.42575e-20 -2.33488)
(14.6374 1.28693e-20 -2.2725)
(14.0568 1.15788e-20 -2.21011)
(13.5057 0 -2.14809)
(12.9822 -9.27862e-21 -2.08671)
(12.4843 8.23316e-21 -2.02619)
(12.0104 -7.28049e-21 -1.9667)
(11.559 -1.27732e-20 -1.90834)
(11.1285 -2.22585e-20 -1.85121)
(10.7176 0 -1.79537)
(10.3251 0 -1.74084)
(9.94969 -6.89461e-21 -1.68764)
(9.59038 0 -1.63578)
(9.24615 4.58486e-21 -1.58525)
(8.91607 3.56399e-21 -1.53603)
(8.59927 0 -1.4881)
(8.29493 7.03131e-21 -1.44144)
(8.00232 1.924e-21 -1.39601)
(7.72072 0 -1.35177)
(7.4495 -8.53942e-22 -1.3087)
(7.18804 -2.04984e-21 -1.26675)
(6.93576 0 -1.22589)
(6.69214 8.323e-21 -1.18607)
(6.45668 -5.06198e-21 -1.14727)
(6.22891 -1.17632e-20 -1.10942)
(6.00838 0 -1.07251)
(5.79469 -2.42813e-23 -1.03649)
(5.58745 3.15039e-20 -1.00133)
(5.38627 0 -0.966972)
(5.19084 0 -0.933406)
(5.0008 -1.8518e-20 -0.900576)
(4.81587 -1.92375e-20 -0.868467)
(4.63573 3.96563e-20 -0.837025)
(4.46015 4.06883e-20 -0.806243)
(4.28881 4.15294e-20 -0.77606)
(4.12155 -4.22112e-20 -0.746483)
(3.95804 -8.54584e-20 -0.717442)
(3.79819 0 -0.688959)
(3.64165 0 -0.660952)
(3.4884 -8.70863e-20 -0.633463)
(3.33808 0 -0.606394)
(3.19076 0 -0.579813)
(3.04602 8.67536e-20 -0.553601)
(2.90403 0 -0.527856)
(2.76435 -8.55967e-20 -0.502435)
(2.62725 -3.19042e-23 -0.47747)
(2.49221 8.39246e-20 -0.452791)
(2.35965 0 -0.428572)
(2.22897 0 -0.404607)
(2.10078 0 -0.381121)
(1.97429 1.58204e-19 -0.357861)
(1.85042 0 -0.335122)
(1.7281 -1.52376e-19 -0.312577)
(1.60869 2.98456e-19 -0.290633)
(1.49061 0 -0.268834)
(1.37602 0 -0.247771)
(1.26236 0 -0.226759)
(1.15313 -2.6861e-23 -0.206685)
(1.04403 -1.32014e-19 -0.186483)
(0.940804 -2.56762e-19 -0.167527)
(0.836276 -2.49358e-19 -0.148139)
(0.739884 2.41987e-19 -0.130439)
(0.639366 0 -0.111721)
(0.550368 2.27115e-19 -0.0953372)
(0.452348 0 -0.077041)
(0.372247 2.12272e-19 -0.0623395)
(0.276126 0 -0.0444668)
(0.208147 0 -0.032038)
(0.112568 0 -0.0143032)
(0.0595416 -3.67174e-19 -0.00449077)
(-0.0405882 -3.52939e-19 0.0141737)
(-0.0752092 0 0.0202942)
(-0.179995 3.2647e-19 0.0394747)
(-0.185362 -3.14356e-19 0.0408041)
(-0.315849 3.01269e-19 0.0656369)
(-0.29693 -2.89817e-19 0.062471)
(-0.459118 0 0.0919812)
(-0.378743 0 0.0735671)
(-0.509825 0 0.0935468)
(-0.337842 0 0.082795)
(-1.00752 4.61218e-19 0.240108)
(-1.29423 9.32828e-23 0.288238)
(-1.76111 -8.63065e-19 0.324078)
(-0.738776 0 0.078142)
(-0.308284 0 -0.0149238)
(0.916924 8.52766e-19 -0.230564)
(0.935049 0 -0.205113)
(1.48508 -7.69853e-19 -0.289452)
(1.12095 0 -0.216645)
(1.56534 -1.37265e-18 -0.300051)
(1.24929 0 -0.255832)
(2.07218 0 -0.419248)
(1.88444 5.89626e-19 -0.391671)
(2.9834 0 -0.6089)
(32.6543 0 0.665696)
(32.9561 -5.27685e-21 0.709935)
(33.2935 0 0.661321)
(33.6245 -6.63033e-21 0.499082)
(33.886 -1.35194e-20 0.23804)
(34.0275 0 -0.0900802)
(34.0202 6.74673e-21 -0.453861)
(33.853 0 -0.827207)
(33.5263 9.00059e-22 -1.18993)
(33.0497 -2.59958e-20 -1.52756)
(32.4392 0 -1.83081)
(31.7149 0 -2.09475)
(30.8991 -1.11327e-20 -2.31781)
(30.014 0 -2.50071)
(29.0806 0 -2.64574)
(28.1177 0 -2.75615)
(27.1416 -1.64677e-20 -2.83571)
(26.1655 -1.51821e-20 -2.88838)
(25.2 -1.37877e-20 -2.91801)
(24.2531 0 -2.92824)
(23.3306 0 -2.92234)
(22.4365 -1.07702e-20 -2.90321)
(21.5734 9.83905e-21 -2.87336)
(20.7427 -8.97036e-21 -2.83492)
(19.9449 -1.63213e-20 -2.78972)
(19.1802 2.95563e-20 -2.73924)
(18.4478 -5.48303e-23 -2.68474)
(17.7471 -1.21035e-20 -2.62726)
(17.0769 -1.08897e-20 -2.56764)
(16.4361 0 -2.50658)
(15.8233 0 -2.44465)
(15.2374 -7.74272e-21 -2.3823)
(14.6769 0 -2.31991)
(14.1407 1.20118e-20 -2.25777)
(13.6273 1.04641e-20 -2.19612)
(13.1357 -9.02598e-21 -2.13515)
(12.6646 0 -2.07501)
(12.2129 6.48284e-21 -2.01581)
(11.7796 5.35466e-21 -1.95763)
(11.3636 3.29492e-24 -1.90054)
(10.964 -6.70595e-21 -1.84457)
(10.5799 0 -1.78977)
(10.2104 -3.312e-21 -1.73613)
(9.85466 0 -1.68367)
(9.51202 0 -1.63238)
(9.18171 0 -1.58225)
(8.86305 1.32781e-23 -1.53326)
(8.55541 0 -1.48539)
(8.25817 -3.90441e-21 -1.43861)
(7.97077 9.50145e-21 -1.39291)
(7.69266 1.1054e-20 -1.34824)
(7.42334 0 -1.30458)
(7.16231 -1.36812e-20 -1.26189)
(6.90914 -2.95553e-20 -1.22015)
(6.66338 0 -1.1793)
(6.42463 0 -1.13934)
(6.19248 1.73949e-20 -1.1002)
(5.9666 1.80334e-20 -1.06188)
(5.7466 -1.86145e-20 -1.02431)
(5.5322 -3.81475e-20 -0.987504)
(5.32302 0 -0.951379)
(5.11886 0 -0.915954)
(4.91933 2.78156e-23 -0.881144)
(4.7243 -4.04495e-20 -0.846985)
(4.53337 0 -0.813375)
(4.3465 4.08623e-20 -0.780373)
(4.16325 0 -0.747857)
(3.98368 0 -0.715916)
(3.80732 0 -0.684403)
(3.63434 0 -0.653443)
(3.4642 3.37506e-23 -0.622859)
(3.29723 -3.15789e-23 -0.592818)
(3.1328 -7.86703e-20 -0.563107)
(2.97141 0 -0.533945)
(2.81232 -7.66021e-20 -0.505075)
(2.65625 0 -0.476779)
(2.50226 -1.48348e-19 -0.44874)
(2.35144 1.45622e-19 -0.421329)
(2.2025 -1.42777e-19 -0.394134)
(2.05707 -1.3987e-19 -0.367664)
(1.91327 0 -0.341354)
(1.77364 1.33605e-19 -0.315926)
(1.63517 0 -0.290552)
(1.50197 -1.27069e-19 -0.266299)
(1.36902 -1.23636e-19 -0.241892)
(1.24304 2.40535e-19 -0.218971)
(1.11566 0 -0.195544)
(0.997937 -4.53251e-19 -0.174123)
(0.875552 0 -0.151523)
(0.766887 2.12605e-19 -0.131696)
(0.647952 0 -0.109682)
(0.550311 1.98672e-19 -0.0919353)
(0.43418 0 -0.0705353)
(0.351372 3.70035e-19 -0.0555533)
(0.236388 -3.5627e-19 -0.0344121)
(0.171856 3.43601e-19 -0.0225706)
(0.052279 3.30246e-19 -0.000552937)
(0.0105887 0 0.00678862)
(-0.114162 -6.10798e-19 0.0292936)
(-0.121245 5.88076e-19 0.0311306)
(-0.274995 0 0.0601115)
(-0.250392 2.71048e-19 0.0560839)
(-0.439572 0 0.0898684)
(-0.340994 0 0.0672095)
(-0.505419 -4.796e-19 0.0924299)
(-0.317812 0 0.0869186)
(-1.07048 0 0.267636)
(-1.30585 4.1195e-19 0.301611)
(-1.7898 8.06316e-19 0.320028)
(-0.565484 4.09419e-19 0.0214662)
(-0.150485 0 -0.0705569)
(1.2456 0 -0.311778)
(1.20525 0 -0.264776)
(1.8524 0 -0.361418)
(1.42737 6.83107e-19 -0.275989)
(1.95658 6.4113e-19 -0.37581)
(1.61102 0 -0.331474)
(2.54485 0 -0.517716)
(2.32963 0 -0.48801)
(3.57096 0 -0.734884)
(32.6542 4.23224e-21 0.377004)
(32.8866 0 0.393786)
(33.1427 4.94929e-21 0.353941)
(33.4079 0 0.241416)
(33.6514 6.04893e-21 0.0567384)
(33.8417 0 -0.185402)
(33.9559 -6.34107e-21 -0.465868)
(33.979 1.16365e-20 -0.766721)
(33.902 2.37555e-20 -1.0728)
(33.72 7.27907e-22 -1.37211)
(33.4328 0 -1.65567)
(33.0436 0 -1.91725)
(32.5592 0 -2.15299)
(31.9885 0 -2.36082)
(31.3427 0 -2.54)
(30.6336 0 -2.6908)
(29.8737 1.48436e-20 -2.81422)
(29.0751 -1.3764e-20 -2.91185)
(28.2495 1.2955e-20 -2.98568)
(27.4072 0 -3.0379)
(26.5574 0 -3.07084)
(25.7079 9.9185e-21 -3.08682)
(24.8652 9.08469e-21 -3.08808)
(24.0344 8.30125e-21 -3.07672)
(23.2195 0 -3.05466)
(22.4237 -1.38521e-20 -3.02364)
(21.6489 -2.50197e-20 -2.9852)
(20.8968 1.12724e-20 -2.94068)
(20.1683 0 -2.89125)
(19.4637 0 -2.83791)
(18.7834 0 -2.78152)
(18.127 7.23879e-21 -2.72282)
(17.4942 0 -2.66242)
(16.8844 0 -2.60083)
(16.2972 9.80318e-21 -2.5385)
(15.7317 8.47906e-21 -2.47579)
(15.1871 0 -2.413)
(14.6627 6.08476e-21 -2.35038)
(14.1577 -1.00574e-20 -2.28814)
(13.6712 -4.05216e-21 -2.22644)
(13.2024 3.15141e-21 -2.1654)
(12.7505 0 -2.10516)
(12.3148 0 -2.04577)
(11.8944 0 -1.98731)
(11.4887 4.53251e-22 -1.92982)
(11.097 0 -1.87334)
(10.7185 1.79678e-21 -1.81789)
(10.3526 2.75834e-21 -1.76347)
(9.99869 0 -1.71009)
(9.65615 -4.45456e-21 -1.65776)
(9.3244 0 -1.60644)
(9.0029 0 -1.55615)
(8.69111 -1.28001e-20 -1.50684)
(8.38855 2.10079e-23 -1.45851)
(8.09471 1.47637e-20 -1.41112)
(7.80916 0 -1.36466)
(7.53143 0 -1.31908)
(7.26115 -1.69242e-20 -1.27438)
(6.99786 0 -1.2305)
(6.74126 3.57965e-20 -1.18744)
(6.4909 0 -1.14514)
(6.24654 0 -1.1036)
(6.00773 7.51738e-20 -1.06275)
(5.77432 7.58662e-20 -1.02263)
(5.54584 3.81532e-20 -0.983115)
(5.32223 0 -0.94429)
(5.10298 0 -0.906007)
(4.88817 3.82584e-20 -0.868382)
(4.6772 7.62361e-20 -0.831233)
(4.47031 0 -0.794722)
(4.26683 7.52682e-20 -0.758629)
(4.06716 -7.45698e-20 -0.723168)
(3.87052 7.37482e-20 -0.688071)
(3.67754 -7.27977e-20 -0.653617)
(3.48728 7.17969e-20 -0.619483)
(3.30064 0 -0.586024)
(3.11648 0 -0.552843)