/*--------------------------------*- C++ -*----------------------------------*\
| =========                 |                                                 |
| \\      /  F ield         | OpenFOAM: The Open Source CFD Toolbox           |
|  \\    /   O peration     | Version:  2412                                  |
|   \\  /    A nd           | Website:  www.openfoam.com                      |
|    \\/     M anipulation  |                                                 |
\*---------------------------------------------------------------------------*/
FoamFile
{
    version     2.0;
    format      ascii;
    arch        "LSB;label=32;scalar=64";
    class       volVectorField;
    location    "1.475";
    object      ddtCorrDdt0(U);
}
// * * * * * * * * * * * * * * * * * * * * * * * * * * * * * * * * * * * * * //

dimensions      [0 1 -2 0 0 0 0];

internalField   nonuniform List<vector> 
12600
(
(0.0846522 2.60524e-22 0.0271218)
(0.0522827 2.82966e-22 0.00829197)
(0.0187458 2.2415e-22 0.000428883)
(0.00339672 0 -0.00114402)
(-0.00334957 1.18439e-22 -0.000977319)
(-0.00735589 5.34149e-23 -0.000602084)
(-0.0103405 0 -0.000320304)
(-0.0125073 0 0.00018279)
(-0.0140071 4.71833e-22 0.000580126)
(-0.015071 0 0.000899136)
(-0.0158611 -4.33825e-22 0.00118871)
(-0.0164909 -5.20716e-22 0.00146138)
(-0.0169904 5.96406e-22 0.00171062)
(-0.0173212 0 0.00192735)
(-0.0174196 7.07896e-22 0.00210673)
(-0.0172318 0 0.00224738)
(-0.0167273 -3.0947e-21 0.00234855)
(-0.0159014 0 0.0024089)
(-0.0147726 1.54748e-21 0.00242673)
(-0.0133766 1.4979e-21 0.00240036)
(-0.0117573 -1.40942e-21 0.00232837)
(-0.00996053 1.07569e-24 0.00221008)
(-0.00803708 0 0.00204668)
(-0.00604874 1.93276e-21 0.0018422)
(-0.00407234 0 0.0016041)
(-0.00219539 0 0.00134293)
(-0.000505574 7.61482e-22 0.00107159)
(0.000922006 0 0.000804005)
(0.00203342 -1.06879e-23 0.0005541)
(0.00280197 2.57023e-22 0.000333986)
(0.00322833 5.11267e-22 0.000152944)
(0.00334235 7.11733e-22 1.5485e-05)
(0.00319651 -8.58815e-22 -7.83748e-05)
(0.00286293 -1.91212e-21 -0.000133907)
(0.00241556 -2.01816e-21 -0.000158616)
(0.00192505 2.0549e-21 -0.000162331)
(0.00143538 0 -0.000152138)
(0.000970452 -1.93378e-21 -0.000134171)
(0.000512172 0 -0.000107567)
(3.17815e-05 1.64032e-21 -7.07641e-05)
(-0.000531378 0 -1.46893e-05)
(-0.00121061 4.0628e-24 6.49865e-05)
(-0.00205217 0 0.000178381)
(-0.00303317 7.35735e-24 0.000323029)
(-0.00414626 6.0763e-22 0.000502514)
(-0.00528956 3.20751e-23 0.000700765)
(-0.00641688 -6.67537e-22 0.000913712)
(-0.00738035 0 0.00111345)
(-0.00816252 0 0.00129737)
(-0.00862882 -2.08806e-21 0.00143484)
(-0.00885632 -4.65909e-21 0.00153735)
(-0.00874764 -4.88108e-21 0.00157828)
(-0.00849231 8.94043e-24 0.0015902)
(-0.0079947 -4.59097e-21 0.00154762)
(-0.00753064 0 0.00150248)
(-0.00693861 3.55384e-21 0.00141954)
(-0.00655212 2.84784e-21 0.00136529)
(-0.00608379 2.09972e-21 0.00128286)
(-0.00593002 0 0.00125309)
(-0.00564982 0 0.00119065)
(-0.00574501 0 0.00119733)
(-0.0056047 1.02712e-21 0.00115496)
(-0.00589062 0 0.00119568)
(-0.00580231 0 0.00116411)
(-0.00621308 -4.32156e-21 0.00123229)
(-0.00610545 0 0.00120243)
(-0.0066012 0 0.00129363)
(-0.006433 0 0.00125966)
(-0.00698791 2.44887e-21 0.00136994)
(-0.00672313 -2.21957e-21 0.00132501)
(-0.00729674 -2.46901e-21 0.0014454)
(-0.00690008 -1.44447e-23 0.00137986)
(-0.00745256 4.28218e-21 0.00149753)
(-0.00694157 0 0.00140766)
(-0.00748488 -7.03956e-21 0.00151795)
(-0.00696146 0 0.00141894)
(-0.00753353 0 0.00152833)
(-0.00711262 0 0.00144394)
(-0.00769574 2.23998e-23 0.00155162)
(-0.00744927 -1.8823e-20 0.00149692)
(-0.00801148 -1.84123e-20 0.00159385)
(-0.00802865 1.80424e-20 0.00157724)
(-0.00866087 1.71056e-20 0.00167304)
(-0.00894414 0 0.00170134)
(-0.00973732 0 0.001843)
(-0.00955057 -2.37442e-20 0.00181761)
(-0.0105161 4.76011e-20 0.00204038)
(-0.00792317 -4.69098e-20 0.00159443)
(-0.010195 -3.28942e-20 0.00209336)
(-0.00240067 0 0.000644247)
(-0.00971547 9.738e-20 0.00207886)
(0.00626737 -5.48825e-20 -0.00103039)
(-0.0112242 6.58291e-20 0.00224235)
(0.0146316 -9.16392e-20 -0.00282831)
(-0.0158978 0 0.00292768)
(0.0170997 0 -0.0034641)
(-0.0047503 0 0.000493887)
(-0.034296 0 0.00550243)
(0.0750331 0 -0.0149)
(-0.21991 0 0.038909)
(0.26453 1.43801e-19 -0.0512263)
(0.212853 -7.83683e-19 -0.0394138)
(-0.753803 -8.53312e-20 0.14242)
(0.522024 0 -0.104521)
(0.0365278 0 -0.00390162)
(-0.138032 0 0.0249385)
(0.305063 -4.57831e-19 -0.057349)
(-0.719621 -1.1542e-19 0.131812)
(1.68776 -8.92643e-19 -0.321493)
(-0.76238 0 0.146186)
(-0.717713 2.78856e-18 0.0946465)
(1.60732 0 -0.29897)
(-1.69392 -2.2113e-18 0.330174)
(0.128675 -4.02576e-18 -0.046309)
(1.53438 -2.1766e-18 -0.28482)
(1.51937 -6.02883e-18 -0.295479)
(3.90495 -1.02133e-17 -0.717358)
(0.24175 4.32066e-21 -0.0371052)
(-6.06564 -3.84607e-19 1.16293)
(-3.00573 0 0.552113)
(0.127516 -2.63118e-22 0.0458717)
(0.107331 0 0.0245245)
(0.0738264 -2.26705e-22 0.00848412)
(0.0443204 0 0.00116822)
(0.0231653 -1.19976e-22 -0.00099157)
(0.00844886 -1.00333e-22 -0.00115611)
(-0.0019943 9.81854e-24 -0.000790615)
(-0.00952086 0 -5.24184e-05)
(-0.0151302 -4.40964e-24 0.000621113)
(-0.0194035 3.3407e-22 0.00126522)
(-0.0228816 -4.29281e-22 0.0019469)
(-0.0259114 -5.16104e-22 0.00265058)
(-0.0285975 5.92413e-22 0.00332724)
(-0.0308892 -6.57323e-22 0.00394347)
(-0.0326949 -1.42863e-21 0.00449048)
(-0.0339448 0 0.00496955)
(-0.0346017 1.33017e-23 0.00538024)
(-0.0346566 -1.57451e-21 0.00571908)
(-0.0341267 -1.56996e-21 0.00598192)
(-0.0330491 0 0.00616332)
(-0.0314666 0 0.00625475)
(-0.0294196 -1.30736e-21 0.00624535)
(-0.0269526 0 0.0061263)
(-0.0241313 -9.81648e-22 0.00589529)
(-0.0210549 1.59182e-21 0.00555889)
(-0.0178542 0 0.00513182)
(-0.0146775 -7.98223e-22 0.00463552)
(-0.0116709 0 0.00409548)
(-0.00896364 4.81566e-23 0.00354018)
(-0.00665444 -5.04538e-22 0.00299758)
(-0.00480768 -1.0205e-21 0.0024938)
(-0.00344144 -7.20372e-22 0.0020474)
(-0.00253494 8.69011e-22 0.0016702)
(-0.00202234 3.8501e-21 0.00136252)
(-0.00182418 4.06706e-21 0.00112061)
(-0.00184327 0 0.000931876)
(-0.00201544 0 0.000788896)
(-0.00228337 5.90793e-24 0.000679849)
(-0.00266106 0 0.000608723)
(-0.0031581 -1.65597e-21 0.000573498)
(-0.0038628 0 0.00059358)
(-0.00479894 -2.41775e-21 0.000670502)
(-0.00606554 0 0.000830451)
(-0.00761538 -1.26312e-21 0.00106256)
(-0.00950198 0 0.00138753)
(-0.0115492 -3.23001e-23 0.00176604)
(-0.0137653 0 0.00220886)
(-0.0158541 0 0.00264544)
(-0.0178638 1.70685e-21 0.00309193)
(-0.01944 0 0.00345829)
(-0.0207834 0 0.00379164)
(-0.0215187 0 0.0039939)
(-0.0220749 4.85734e-21 0.0041638)
(-0.0220175 9.19322e-21 0.00419083)
(-0.0220209 0 0.0042314)
(-0.0214851 0 0.00414068)
(-0.0213241 -2.86873e-21 0.00413054)
(-0.0206426 -2.09962e-21 0.00399311)
(-0.0206283 0 0.00400125)
(-0.019991 0 0.00386234)
(-0.020286 0 0.0039284)
(-0.0197355 0 0.00380221)
(-0.0203868 1.66748e-21 0.00394046)
(-0.0198778 -2.0424e-21 0.00382156)
(-0.0208813 4.31375e-21 0.0040345)
(-0.0203526 0 0.0039131)
(-0.0217026 0 0.00420199)
(-0.0211079 0 0.00407036)
(-0.0227863 5.66162e-23 0.00443221)
(-0.0220662 2.19833e-21 0.00427752)
(-0.0240011 2.44316e-21 0.0046952)
(-0.0230879 -6.19069e-21 0.00449844)
(-0.025173 -5.33073e-23 0.00494261)
(-0.0240779 5.50828e-21 0.00469612)
(-0.0262456 6.9394e-21 0.00514514)
(-0.0251174 0 0.00487587)
(-0.0273113 0 0.00532131)
(-0.02635 0 0.00507593)
(-0.0284138 -1.85486e-20 0.00549287)
(-0.0277577 0 0.00530532)
(-0.0294798 0 0.00565084)
(-0.0292038 -1.76584e-20 0.00553459)
(-0.0305789 -1.67237e-20 0.0058035)
(-0.030492 0 0.00574603)
(-0.0318781 0 0.00604272)
(-0.0304352 0 0.00579782)
(-0.0330121 -4.62831e-20 0.00634617)
(-0.0258306 7.28316e-23 0.00502473)
(-0.0340199 -3.1802e-20 0.00660724)
(-0.0128916 3.47737e-20 0.00255161)
(-0.0370106 -9.42154e-20 0.00710732)
(0.00943299 -5.29839e-20 -0.00195914)
(-0.0436767 -1.27248e-19 0.00816464)
(0.0362194 0 -0.00744332)
(-0.0531265 0 0.0100266)
(0.0529911 0 -0.0110132)
(-0.0143234 0 0.00338697)
(-0.0803302 -4.42648e-20 0.0138575)
(0.225694 0 -0.0416873)
(-0.599534 0 0.117271)
(0.820012 1.38374e-19 -0.167595)
(0.497223 3.75429e-19 -0.0775601)
(-2.08704 1.63691e-19 0.39897)
(1.65925 3.77346e-19 -0.34122)
(-0.0620553 0 0.0335713)
(-0.365005 0 0.0636548)
(0.843763 0 -0.153814)
(-1.94617 5.5501e-20 0.352321)
(4.76346 8.49532e-19 -0.927228)
(-2.43676 0 0.532604)
(-1.60026 -5.29814e-18 0.23263)
(4.43386 9.94962e-19 -0.830696)
(-4.92044 4.19633e-18 0.986931)
(0.955816 0 -0.256688)
(4.51921 0 -0.88163)
(4.48013 -5.70171e-18 -0.89934)
(10.5385 0 -1.98586)
(-0.332612 -5.97265e-18 0.210343)
(-17.0883 3.62887e-19 3.35457)
(-7.89211 0 1.45686)
(0.131501 0 0.0451547)
(0.124988 0 0.0326719)
(0.107853 -1.83275e-22 0.0194098)
(0.0847994 0 0.0100259)
(0.061186 0 0.00439071)
(0.040229 5.30354e-23 0.00150098)
(0.0230936 -9.35438e-24 0.000216131)
(0.00961379 0 -0.000338245)
(-0.000843263 -1.29546e-24 -0.000416203)
(-0.00904128 -3.16526e-22 -5.34013e-05)
(-0.0158037 8.09092e-22 0.000677074)
(-0.0217129 4.89026e-22 0.00160391)
(-0.0269947 -6.62932e-24 0.00256203)
(-0.0316295 6.22872e-22 0.00347224)
(-0.035529 6.73131e-22 0.00432716)
(-0.0386345 -7.03626e-22 0.00513879)
(-0.0409274 1.47229e-21 0.0059102)
(-0.0424157 1.49207e-21 0.00663803)
(-0.043132 0 0.00731942)
(-0.0431291 0 0.00794738)
(-0.0424618 -1.34076e-21 0.00850312)
(-0.0411719 -1.22975e-21 0.00895683)
(-0.0392955 0 0.00927775)
(-0.0368872 0 0.00944399)
(-0.0340421 -1.50833e-21 0.00944676)
(-0.030896 0 0.00928818)
(-0.0276114 1.51763e-21 0.00897908)
(-0.0243537 -4.02088e-22 0.00853643)
(-0.0212767 0 0.00798515)
(-0.0185061 2.31446e-22 0.00735551)
(-0.0161379 4.76433e-22 0.00668373)
(-0.0142211 0 0.00600306)
(-0.0127677 -8.02334e-22 0.00534547)
(-0.0117354 -1.81468e-21 0.00473065)
(-0.0110692 -1.65839e-23 0.00417625)
(-0.0106813 0 0.00368381)
(-0.010522 0 0.00326034)
(-0.0105276 1.84448e-21 0.00289642)
(-0.0107223 0 0.00260227)
(-0.011096 0 0.00236719)
(-0.0117518 0 0.00221429)
(-0.0126832 0 0.00213167)
(-0.0140203 0 0.00215744)
(-0.0156749 0 0.00226855)
(-0.0177578 0 0.00251148)
(-0.0200298 1.0501e-23 0.00283162)
(-0.0225846 -6.05232e-22 0.00327621)
(-0.0250201 0 0.00374532)
(-0.027505 -1.61485e-21 0.00429779)
(-0.0295153 0 0.00478837)
(-0.0314249 0 0.00531438)
(-0.0326075 4.58528e-21 0.00569262)
(-0.033752 0 0.00609169)
(-0.0340732 -4.34065e-21 0.00628751)
(-0.0346347 3.91678e-21 0.0065429)
(-0.0343557 0 0.00656901)
(-0.0347124 2.71158e-21 0.0067339)
(-0.0341492 0 0.00664501)
(-0.0346404 0 0.00679277)
(-0.0339961 0 0.00664323)
(-0.0348442 7.56274e-23 0.00683775)
(-0.0341887 -8.66224e-22 0.00666059)
(-0.035507 -2.58535e-23 0.00694387)
(-0.0348158 3.84755e-21 0.00674969)
(-0.0366567 5.90192e-24 0.00714693)
(-0.0358804 0 0.00693611)
(-0.0382835 0 0.00746442)
(-0.0373838 2.84732e-21 0.0072341)
(-0.04036 5.36604e-23 0.00789871)
(-0.0392784 0 0.0076365)
(-0.0427566 0 0.00842095)
(-0.0414253 2.90616e-21 0.00810675)
(-0.045265 -3.88027e-23 0.00897314)
(-0.043708 -5.1903e-23 0.00859708)
(-0.0477662 0 0.00949991)
(-0.046163 0 0.00908388)
(-0.0502528 1.65889e-20 0.00997659)
(-0.0488447 -1.74495e-20 0.0095703)
(-0.0526252 0 0.0103874)
(-0.0515883 0 0.0100373)
(-0.0546476 0 0.0106916)
(-0.0540427 0 0.0104122)
(-0.0562679 0 0.0108577)
(-0.0557052 0 0.0105982)
(-0.0576922 0 0.0109626)
(-0.0548268 0 0.0103802)
(-0.0589444 4.34557e-20 0.0111483)
(-0.0470579 2.13544e-20 0.00905467)
(-0.0611925 2.98898e-20 0.0116689)
(-0.0267813 -3.26761e-20 0.00537457)
(-0.068119 8.83202e-20 0.0130774)
(0.00890233 4.97674e-20 -0.00158071)
(-0.0811361 5.97139e-20 0.0154344)
(0.0539218 0 -0.0108581)
(-0.0965729 0 0.0183919)
(0.0863442 0 -0.0188857)
(-0.0338957 0 0.0091553)
(-0.118022 4.15275e-20 0.0176041)
(0.36175 0 -0.0618108)
(-0.945078 0 0.165917)
(1.37716 -1.29743e-19 -0.296715)
(0.639862 0 -0.0573958)
(-3.25321 -7.68831e-20 0.602555)
(2.85279 -3.53613e-19 -0.612331)
(-0.320874 0 0.135997)
(-0.515489 0 0.0772348)
(1.31166 0 -0.220609)
(-2.97506 5.5421e-20 0.494972)
(7.5526 0 -1.45895)
(-4.23697 -1.29531e-18 1.00977)
(-1.98434 -4.04157e-22 0.215635)
(6.89404 -9.31176e-19 -1.24134)
(-7.97442 -3.92973e-18 1.62617)
(2.29501 0 -0.664415)
(7.40224 1.92068e-18 -1.48161)
(7.33073 5.33326e-18 -1.51087)
(16.1009 -9.06057e-18 -2.91635)
(-1.8959 0 0.870952)
(-27.0863 -3.39313e-19 5.33607)
(-11.6771 0 2.02534)
(0.127035 0 0.0421573)
(0.125678 0 0.0353994)
(0.119579 1.73219e-22 0.0266954)
(0.107203 0 0.0187819)
(0.0903681 -7.88782e-23 0.0123539)
(0.0717237 7.05152e-23 0.00747853)
(0.053395 0 0.00387693)
(0.0368044 1.21945e-22 0.00127151)
(0.022631 -2.08062e-22 -0.000299872)
(0.0108044 -2.9645e-22 -0.000779877)
(0.000741503 -3.80505e-22 -0.000355925)
(-0.00816009 4.52748e-22 0.000574741)
(-0.0161927 -5.24636e-22 0.00165271)
(-0.0233525 1.15e-21 0.00271007)
(-0.029536 0 0.00373101)
(-0.0346847 1.32212e-21 0.00474066)
(-0.0388021 0 0.00574688)
(-0.0419215 0 0.00674615)
(-0.0440965 0 0.00773819)
(-0.0454027 -1.32612e-21 0.00871696)
(-0.0459216 1.549e-23 0.00965463)
(-0.0457144 1.33711e-23 0.0105026)
(-0.0448229 -1.02108e-21 0.0112098)
(-0.0432973 0 0.0117386)
(-0.0412276 0 0.0120705)
(-0.0387487 0 0.0121992)
(-0.0360269 -1.44027e-21 0.0121267)
(-0.0332323 -4.65344e-24 0.0118603)
(-0.0305241 0 0.011418)
(-0.028033 0 0.0108275)
(-0.0258644 0 0.010129)
(-0.0240769 0 0.0093637)
(-0.0226983 1.50407e-21 0.00857639)
(-0.0216973 0 0.00779936)
(-0.0210365 -1.79872e-21 0.0070661)
(-0.0206344 0 0.00638838)
(-0.0204594 0 0.00578592)
(-0.0204462 -1.7174e-21 0.00525172)
(-0.0206374 0 0.00480409)
(-0.0210091 0 0.00442607)
(-0.0216868 1.28474e-21 0.00414761)
(-0.0226352 -2.14875e-21 0.00394558)
(-0.0240194 0 0.0038718)
(-0.0257066 -1.13653e-21 0.00389053)
(-0.0278667 0 0.00407278)
(-0.0301929 -1.64857e-23 0.00434524)
(-0.0328716 6.27409e-24 0.0047892)
(-0.0353948 0 0.005272)
(-0.0380697 0 0.00589508)
(-0.0402075 1.83756e-21 0.00645766)
(-0.0423841 4.1099e-21 0.00711163)
(-0.0437264 -8.64173e-21 0.00759182)
(-0.0452164 0 0.00814448)
(-0.0457119 -4.07438e-21 0.00843564)
(-0.0466978 -3.6973e-21 0.00884258)
(-0.0465879 -3.17756e-21 0.00893315)
(-0.0474521 -2.57027e-21 0.00923794)
(-0.0470309 0 0.00917625)
(-0.0481231 0 0.00946101)
(-0.0475764 -1.23173e-21 0.0093091)
(-0.0491424 -1.78412e-22 0.00965606)
(-0.0485268 8.16989e-22 0.00945598)
(-0.0507101 -2.43312e-23 0.0099239)
(-0.049988 -1.80941e-21 0.00969069)
(-0.0528734 -1.93012e-21 0.0103178)
(-0.0519875 0 0.0100534)
(-0.0556491 0 0.0108669)
(-0.05456 -2.68324e-21 0.0105681)
(-0.0590364 -4.55914e-21 0.0115785)
(-0.0576851 0 0.0112299)
(-0.0629112 -2.20516e-21 0.0124195)
(-0.0612336 -2.72484e-21 0.0119969)
(-0.0670416 -3.67115e-21 0.0133186)
(-0.0650794 -9.64771e-21 0.0128092)
(-0.0712561 0 0.0141964)
(-0.0692217 0 0.0136211)
(-0.0754516 -1.56105e-20 0.0149954)
(-0.0736309 3.2831e-20 0.0144126)
(-0.0793891 1.65363e-20 0.0156722)
(-0.0780025 0 0.015146)
(-0.0826776 0 0.0161618)
(-0.0817805 0 0.0157171)
(-0.0851464 0 0.016407)
(-0.0841532 0 0.0159727)
(-0.0870203 0 0.0164802)
(-0.0827915 2.04042e-20 0.0156195)
(-0.0886798 -4.52631e-24 0.0166242)
(-0.0721975 -1.99848e-20 0.0137988)
(-0.09243 0 0.0173921)
(-0.0448521 -3.05205e-20 0.00894026)
(-0.10364 -4.1408e-20 0.019507)
(0.00415655 0 -0.000576897)
(-0.123718 5.59011e-20 0.0231282)
(0.0677022 7.78757e-20 -0.0137382)
(-0.146122 0 0.0275297)
(0.117247 0 -0.0266236)
(-0.0640961 0 0.0178148)
(-0.147261 3.93761e-20 0.0171304)
(0.479248 0 -0.0747114)
(-1.24687 0 0.222927)
(1.9193 -1.22366e-19 -0.427917)
(0.647829 -3.29564e-19 0.00584763)
(-4.22552 0 0.760598)
(4.05133 0 -0.896466)
(-0.730183 0 0.274009)
(-0.565552 0 0.0605638)
(1.69434 0 -0.263921)
(-3.80041 1.39858e-21 0.578895)
(10.0143 0 -1.9323)
(-6.11779 1.2121e-18 1.50329)
(-1.90873 2.32012e-18 0.0360816)
(8.96005 0 -1.56014)
(-10.7782 -6.95572e-22 2.23791)
(4.07737 0 -1.21552)
(10.1061 -4.02569e-21 -2.05182)
(9.98293 0 -2.11323)
(20.5555 8.47132e-18 -3.6057)
(-4.38228 0 1.82313)
(-35.931 -3.12114e-19 7.15343)
(-14.2679 0 2.32856)
(0.122769 0 0.0415666)
(0.121605 0 0.036483)
(0.119514 0 0.0303382)
(0.113989 0 0.0242441)
(0.104675 7.44199e-23 0.0187301)
(0.0923698 -1.08579e-23 0.0137338)
(0.0781103 0 0.00911452)
(0.0630981 -1.15182e-22 0.00499736)
(0.0485332 0 0.0018568)
(0.035151 5.61545e-22 0.000143738)
(0.023016 0 -0.000166902)
(0.0118472 -4.27464e-22 0.000421234)
(0.00146246 0 0.00134784)
(-0.0080634 -1.08583e-21 0.0023179)
(-0.0165403 5.77345e-22 0.0032914)
(-0.0238457 -1.22968e-21 0.00430973)
(-0.0299643 1.26171e-21 0.00538702)
(-0.0349296 1.27911e-21 0.0065147)
(-0.0387921 0 0.00769119)
(-0.041631 1.25223e-21 0.00891181)
(-0.0435499 1.18289e-21 0.0101405)
(-0.0446408 2.15335e-21 0.0113082)
(-0.0449645 9.64176e-22 0.012341)
(-0.0445727 0 0.0131865)
(-0.0435489 0 0.0138192)
(-0.0420246 0 0.0142282)
(-0.0401689 6.80069e-22 0.0144085)
(-0.0381562 3.63428e-22 0.0143573)
(-0.0361505 0 0.0140832)
(-0.0342835 0 0.0136075)
(-0.0326648 3.91125e-22 0.0129702)
(-0.0313558 0 0.0122145)
(-0.030394 -1.51179e-23 0.011393)
(-0.0297529 -1.54858e-21 0.0105452)
(-0.0294075 1.6462e-21 0.00971658)
(-0.0292774 0 0.00892647)
(-0.0293461 0 0.00820695)
(-0.0295435 1.62092e-21 0.00755355)
(-0.029932 0 0.00699492)
(-0.0304727 0 0.00650882)
(-0.0313182 -1.21236e-21 0.00613464)
(-0.0324043 2.02757e-21 0.00583758)
(-0.0339381 0 0.0056846)
(-0.0357396 1.07229e-21 0.00562436)
(-0.038046 0 0.00575317)
(-0.0404757 6.1927e-24 0.0059746)
(-0.043318 5.33413e-22 0.0064067)
(-0.0459476 0 0.0068805)
(-0.0488236 1.41244e-21 0.00754715)
(-0.0510778 -1.73293e-21 0.00814783)
(-0.053508 -7.73344e-21 0.00890027)
(-0.0549752 4.0658e-21 0.00945313)
(-0.0567838 -4.03244e-21 0.0101433)
(-0.0574085 1.06201e-23 0.0105173)
(-0.0587949 0 0.0110803)
(-0.058814 2.99498e-21 0.0112398)
(-0.0601808 2.42234e-21 0.011705)
(-0.0598794 -1.80942e-21 0.011684)
(-0.0615983 1.18226e-21 0.0121341)
(-0.0611504 1.16047e-21 0.0119943)
(-0.0634944 1.00866e-22 0.0125247)
(-0.0629411 7.1608e-22 0.012313)
(-0.0660814 -1.35282e-21 0.0129977)
(-0.0653655 0 0.0127323)
(-0.0694158 0 0.0136237)
(-0.0684652 -1.72757e-21 0.013308)
(-0.0735305 0 0.0144446)
(-0.0722979 0 0.0140745)
(-0.0784418 2.16461e-21 0.015473)
(-0.0768629 0 0.0150297)
(-0.0840272 2.07471e-21 0.0166737)
(-0.0820411 5.1378e-21 0.0161309)
(-0.0900353 0 0.0179685)
(-0.0877035 4.52152e-21 0.0173134)
(-0.0962492 0 0.019261)
(-0.0938212 0 0.0185146)
(-0.10248 1.46067e-20 0.0204608)
(-0.100292 -1.54268e-20 0.0196868)
(-0.108358 -5.21697e-24 0.0214866)
(-0.106679 0 0.0207634)
(-0.113341 0 0.0222397)
(-0.112222 0 0.0216074)
(-0.117132 1.38823e-20 0.0226352)
(-0.115791 -1.26783e-20 0.0220133)
(-0.119953 0 0.0227289)
(-0.114464 -3.83124e-20 0.0216001)
(-0.122503 -1.91402e-20 0.02283)
(-0.101578 3.74987e-20 0.0193335)
(-0.128179 2.62029e-20 0.0237849)
(-0.0676159 5.72111e-20 0.0134231)
(-0.14407 0 0.0265919)
(-0.00542885 0 0.00145843)
(-0.171881 -5.24163e-20 0.0316788)
(0.0769428 -7.30096e-20 -0.0155839)
(-0.202303 5.35804e-20 0.037972)
(0.1451 0 -0.0342234)
(-0.105609 0 0.030294)
(-0.167896 -3.68926e-20 0.0123315)
(0.577083 6.99096e-20 -0.0788341)
(-1.51422 0 0.227548)
(2.42811 1.14597e-19 -0.560243)
(0.541418 3.08597e-19 0.121134)
(-4.98952 0 0.857709)
(5.20281 0 -1.18293)
(-1.26021 0 0.460131)
(-0.49951 0 0.00754555)
(1.98362 0 -0.27606)
(-4.42989 -4.9853e-20 0.594946)
(12.1333 0 -2.32409)
(-8.00186 0 2.04855)
(-1.42804 0 -0.271473)
(10.628 8.14869e-19 -1.7581)
(-13.2579 1.7201e-18 2.78819)
(6.19171 0 -1.90829)
(12.5457 -1.67547e-18 -2.58231)
(12.3615 0 -2.6781)
(23.9222 7.96049e-18 -4.04489)
(-7.66321 0 3.13964)
(-43.5466 2.91684e-19 8.69641)
(-15.6229 0 2.29392)
(0.118968 -1.45474e-22 0.0423137)
(0.11721 -1.28037e-22 0.037384)
(0.115732 1.03077e-22 0.0321777)
(0.113005 7.27911e-23 0.0271834)
(0.108278 0 0.0226324)
(0.101418 -1.73498e-23 0.0182992)
(0.0924239 0 0.013845)
(0.0816116 -1.29989e-22 0.00928285)
(0.0697306 -2.00086e-22 0.00524525)
(0.0576083 -5.34715e-22 0.00251063)
(0.0457077 3.35189e-22 0.00136868)
(0.0340876 -3.95905e-22 0.00141158)
(0.0227307 0 0.00197639)
(0.0118088 0 0.00264858)
(0.00164252 -5.44333e-22 0.00336091)
(-0.00750229 1.16659e-23 0.0041869)
(-0.015512 -2.53362e-23 0.00516118)
(-0.0223617 -2.65799e-23 0.00626842)
(-0.0280462 0 0.00749954)
(-0.0325955 0 0.0088521)
(-0.0361009 0 0.0102857)
(-0.0386789 -1.99072e-21 0.011709)
(-0.040418 -8.75017e-22 0.0130182)
(-0.0413754 0 0.0141403)
(-0.0416228 0 0.0150421)
(-0.0412789 -9.23782e-22 0.0157102)
(-0.0405101 0 0.0161349)
(-0.0394944 0 0.0163031)
(-0.0384022 0 0.0162134)
(-0.037367 0 0.0158783)
(-0.0365016 -1.25483e-23 0.0153355)
(-0.035868 0 0.0146282)
(-0.0355136 -1.66906e-23 0.0138143)
(-0.0354161 1.45977e-21 0.0129375)
(-0.0355646 -3.43283e-23 0.0120538)
(-0.0358776 0 0.0111875)
(-0.0363551 0 0.0103832)
(-0.0369187 0 0.00963795)
(-0.0376532 0 0.0089925)
(-0.0385008 0 0.00841907)
(-0.0396457 0 0.00796892)
(-0.0409896 0 0.00759456)
(-0.0427889 -1.44534e-21 0.00738072)
(-0.0448086 -9.8507e-22 0.0072576)
(-0.0473632 0 0.0073495)
(-0.0499858 9.03958e-24 0.00753203)
(-0.0530827 0 0.00796385)
(-0.0558953 0 0.0084337)
(-0.0590549 -2.65299e-21 0.00914915)
(-0.0614899 0 0.00978654)
(-0.0642487 3.6332e-21 0.0106399)
(-0.0658932 0 0.0112627)
(-0.0680887 7.58054e-21 0.0120964)
(-0.068882 1.05516e-23 0.0125544)
(-0.0707311 0 0.0132864)
(-0.0709049 0 0.0135208)
(-0.072833 0 0.0141655)
(-0.072666 3.40776e-21 0.0141925)
(-0.0750738 -2.22993e-21 0.0148305)
(-0.0747327 -1.12563e-21 0.0147086)
(-0.0779271 -1.34889e-22 0.0154463)
(-0.077441 -1.33021e-21 0.0152254)
(-0.0816276 -1.2364e-21 0.0161527)
(-0.0809233 0 0.0158545)
(-0.0862509 0 0.0170399)
(-0.0852429 4.42815e-24 0.0166697)
(-0.0918516 0 0.018165)
(-0.0904838 0 0.0177176)
(-0.098466 2.07812e-21 0.0195468)
(-0.096669 0 0.0189999)
(-0.105978 0 0.0211496)
(-0.103697 -4.85653e-21 0.0204745)
(-0.114127 3.2312e-21 0.0228898)
(-0.111445 0 0.0220739)
(-0.122659 0 0.0246559)
(-0.119864 0 0.0237206)
(-0.131304 -1.37179e-20 0.0263255)
(-0.128784 0 0.0253392)
(-0.139566 -2.91508e-20 0.0277768)
(-0.137641 1.45401e-20 0.026833)
(-0.146751 0 0.0288751)
(-0.145467 0 0.0280335)
(-0.152427 -1.30269e-20 0.0295068)
(-0.150803 1.22842e-23 0.0286884)
(-0.156787 -1.06192e-20 0.0297058)
(-0.150118 1.79708e-20 0.0283325)
(-0.160804 -1.79592e-20 0.0298205)
(-0.135565 -1.75775e-20 0.0258097)
(-0.168925 -2.45676e-20 0.0308997)
(-0.0955839 -3.67178e-23 0.0189472)
(-0.189949 0 0.0344002)
(-0.0205618 4.07492e-20 0.0046009)
(-0.226248 0 0.041026)
(0.080814 0 -0.016388)
(-0.265939 -5.01947e-20 0.0495307)
(0.169113 0 -0.0414777)
(-0.159603 0 0.0459815)
(-0.180116 0 0.0035839)
(0.648816 -6.54566e-20 -0.0745772)
(-1.7307 0 0.264156)
(2.8911 1.07979e-19 -0.687374)
(0.34216 0 0.274352)
(-5.53935 0 0.894117)
(6.25781 0 -1.45902)
(-1.87588 0 0.68496)
(-0.312998 0 -0.0824668)
(2.1723 -3.34774e-19 -0.258583)
(-4.87526 -4.8966e-20 0.548692)
(13.9064 -6.51789e-19 -2.63685)
(-9.81586 0 2.61312)
(-0.621275 0 -0.698945)
(11.9019 -1.52463e-18 -1.83608)
(-15.3372 0 3.26467)
(8.50486 -2.92007e-18 -2.71795)
(14.6406 0 -3.05089)
(14.3985 4.35893e-18 -3.19299)
(26.2525 -7.43895e-18 -4.21375)
(-11.6156 0 4.701)
(-49.8557 2.6458e-19 9.98535)
(-15.716 0 1.93586)
(0.11505 1.37007e-22 0.0431147)
(0.113143 2.18796e-22 0.0382939)
(0.111598 -9.70993e-23 0.0334675)
(0.109664 -1.9907e-23 0.0289793)
(0.106865 2.01795e-23 0.0249417)
(0.10303 0 0.0211455)
(0.0978248 0 0.0172068)
(0.0909994 1.22434e-22 0.0129212)
(0.0826937 3.87177e-22 0.00873428)
(0.0733897 -5.3775e-24 0.00552016)
(0.063566 -3.15634e-22 0.00380099)
(0.0534245 3.72797e-22 0.00336744)
(0.0429867 -4.17189e-22 0.00356691)
(0.0323752 0 0.00389293)
(0.0219168 0 0.00424044)
(0.011983 5.3028e-22 0.00472861)
(0.00281709 -2.16412e-21 0.00544297)
(-0.00545205 -2.19099e-21 0.00637568)
(-0.012715 0 0.00750939)
(-0.0188853 0 0.0088498)
(-0.0239727 0 0.0103665)
(-0.028079 2.68974e-23 0.0119527)
(-0.0313165 1.62418e-21 0.0134685)
(-0.0337519 -6.84673e-22 0.0148091)
(-0.0354385 -1.11497e-21 0.0159285)
(-0.0364654 1.71722e-21 0.0168123)
(-0.0369818 -5.77427e-22 0.0174486)
(-0.0371608 -3.16144e-22 0.017816)
(-0.0371776 -7.37831e-23 0.0179019)
(-0.0371666 0 0.0177087)
(-0.0372426 -3.35355e-22 0.0172701)
(-0.0374644 4.68344e-22 0.0166276)
(-0.037888 -5.95413e-22 0.0158434)
(-0.0384943 -1.30293e-21 0.0149633)
(-0.03929 -2.81773e-21 0.0140517)
(-0.0401918 0 0.0131358)
(-0.0412184 0 0.0122718)
(-0.0422804 -1.35859e-21 0.0114571)
(-0.0434892 0 0.0107456)
(-0.0447638 1.1633e-21 0.0101029)
(-0.0463268 1.02348e-21 0.00959463)
(-0.0480381 0 0.00915895)
(-0.050213 2.69189e-21 0.0089019)
(-0.0525498 9.27013e-22 0.00873183)
(-0.0554542 0 0.00880512)
(-0.0583569 -8.50613e-24 0.0089635)
(-0.0618022 -4.67873e-22 0.00941146)
(-0.0648743 0 0.00988712)
(-0.0684058 2.48114e-21 0.0106627)
(-0.0710895 -1.50989e-21 0.0113394)
(-0.0742633 -3.38247e-21 0.0123)
(-0.0761455 0 0.0129903)
(-0.0788148 -1.44422e-23 0.0139736)
(-0.0798283 6.75228e-21 0.0145131)
(-0.0822271 0 0.0154256)
(-0.0825959 0 0.0157359)
(-0.0851734 -2.1417e-21 0.0165796)
(-0.0851692 -1.60277e-21 0.0166595)
(-0.0883581 2.10347e-21 0.0175122)
(-0.0881407 1.05813e-21 0.0174144)
(-0.0922862 1.26794e-22 0.0183916)
(-0.0918745 6.17017e-22 0.0181657)
(-0.0972232 2.30915e-21 0.0193717)
(-0.0965304 0 0.0190405)
(-0.103273 0 0.0205606)
(-0.102203 3.03754e-21 0.0201311)
(-0.110521 0 0.0220318)
(-0.10901 0 0.0214979)
(-0.119031 -1.95179e-21 0.0238127)
(-0.117007 0 0.0231483)
(-0.128706 1.88898e-21 0.025869)
(-0.126122 -2.14375e-23 0.0250431)
(-0.139284 -3.03348e-21 0.028114)
(-0.13625 0 0.0271138)
(-0.150484 0 0.0304222)
(-0.147329 0 0.0292693)
(-0.161966 -1.28212e-20 0.0326398)
(-0.15913 0 0.0314071)
(-0.173114 1.36645e-20 0.0346036)
(-0.170965 -2.72534e-20 0.0334012)
(-0.183082 0 0.0361411)
(-0.181661 0 0.0350532)
(-0.191298 0 0.0371073)
(-0.189421 1.60873e-23 0.0360678)
(-0.197897 9.95517e-21 0.0375067)
(-0.190089 1.685e-20 0.0359012)
(-0.204074 1.68321e-20 0.0377016)
(-0.174628 -1.64776e-20 0.0332582)
(-0.215248 0 0.0389289)
(-0.12936 -2.50671e-20 0.0256492)
(-0.241949 0 0.0430255)
(-0.0420311 -3.81684e-20 0.00903195)
(-0.28755 0 0.0512724)
(0.0784064 0 -0.0159618)
(-0.337933 0 0.0623756)
(0.188376 7.97936e-20 -0.0483047)
(-0.227176 -5.5464e-20 0.0654332)
(-0.184564 0 -0.00957989)
(0.696153 5.9758e-20 -0.0609117)
(-1.90213 -1.62072e-19 0.306741)
(3.28892 -1.01032e-19 -0.805626)
(0.0780093 -2.68955e-19 0.464846)
(-5.88359 0 0.867562)
(7.17237 0 -1.71295)
(-2.53539 0 0.936741)
(-0.0157642 0 -0.210328)
(2.25653 3.13042e-19 -0.208394)
(-5.1539 -1.21604e-21 0.442511)
(15.3429 1.21901e-18 -2.86789)
(-11.4831 0 3.17314)
(0.420832 0 -1.22992)
(12.7987 7.12957e-19 -1.79458)
(-16.9517 0 3.64327)
(10.8686 2.7288e-18 -3.61333)
(16.3198 0 -3.43754)
(16.0397 -8.14213e-18 -3.6384)
(27.6298 0 -4.10669)
(-16.0578 0 6.55047)
(-54.8393 -2.47159e-19 10.955)
(-14.5642 0 1.23578)
(0.111023 0 0.0436999)
(0.109225 -9.23822e-23 0.0391416)
(0.107714 0 0.0345967)
(0.106037 -4.57878e-23 0.0303598)
(0.103879 -2.10544e-23 0.0265276)
(0.101285 0 0.0229962)
(0.0980388 -4.77631e-23 0.0194708)
(0.0937605 0 0.0156727)
(0.0882669 1.20128e-23 0.0117769)
(0.0816964 4.93733e-22 0.00851916)
(0.0743841 0 0.00652009)
(0.0665824 0 0.0057744)
(0.0583021 3.92412e-22 0.00573031)
(0.0495067 0 0.00582706)
(0.0403402 0 0.00588636)
(0.0311055 0 0.00604279)
(0.0220813 1.00436e-21 0.00644528)
(0.0134563 1.01618e-21 0.00711395)
(0.00541914 9.72027e-22 0.00802629)
(-0.00181184 0 0.0092025)
(-0.00810055 0 0.010648)
(-0.0134678 8.46248e-22 0.0122666)
(-0.0180213 -7.52661e-22 0.0138876)
(-0.0218398 6.43961e-22 0.0153632)
(-0.0249579 1.04866e-21 0.0166246)
(-0.0274184 -1.56614e-21 0.0176546)
(-0.0293284 1.80285e-23 0.0184444)
(-0.0308374 2.97335e-22 0.0189671)
(-0.0321157 6.93936e-23 0.0191995)
(-0.033294 0 0.0191315)
(-0.0344862 0 0.0187909)
(-0.0357408 -4.40445e-22 0.0182157)
(-0.0371174 0 0.0174715)
(-0.0385954 1.22526e-21 0.0166041)
(-0.0402012 1.30636e-21 0.0156852)
(-0.0418477 -1.29327e-21 0.0147417)
(-0.0435756 0 0.0138406)
(-0.0452787 1.27745e-21 0.0129773)
(-0.047101 1.16419e-21 0.0122204)
(-0.0489317 -3.09429e-23 0.0115264)
(-0.051041 -1.89801e-21 0.0109785)
(-0.0532369 0 0.0104975)
(-0.0559064 -1.2519e-21 0.0102153)
(-0.0586656 0 0.0100136)
(-0.06203 0 0.0100869)
(-0.0653049 0 0.0102356)
(-0.0691996 -1.71755e-24 0.0107173)
(-0.0726102 0 0.0112091)
(-0.076609 -1.16239e-21 0.0120589)
(-0.0796094 2.82838e-21 0.0127786)
(-0.0832925 3.17856e-21 0.0138563)
(-0.0854716 0 0.014612)
(-0.088711 -3.33009e-21 0.0157536)
(-0.0899947 -6.32051e-21 0.0163704)
(-0.0930428 0 0.0174762)
(-0.0936455 0 0.0178602)
(-0.096977 2.01181e-21 0.0189238)
(-0.0971621 1.50511e-21 0.0190579)
(-0.101244 -9.89078e-22 0.020155)
(-0.101164 -1.00855e-21 0.0200839)
(-0.106385 0 0.0213376)
(-0.106048 0 0.0211075)
(-0.112701 -1.34712e-23 0.0226351)
(-0.112009 1.35583e-21 0.0222677)
(-0.120334 0 0.0241714)
(-0.119181 -1.42243e-21 0.0236739)
(-0.129408 0 0.0260369)
(-0.127726 0 0.0254018)
(-0.140027 0 0.0282689)
(-0.137743 0 0.0274665)
(-0.152121 1.96513e-23 0.0308374)
(-0.149201 -2.36449e-23 0.029834)
(-0.165445 2.87665e-21 0.0336542)
(-0.162026 0 0.0324364)
(-0.179702 4.65174e-21 0.0365811)
(-0.176158 0 0.03517)
(-0.194494 1.20224e-20 0.0394334)
(-0.191317 -1.26699e-20 0.0379072)
(-0.209093 1.27513e-20 0.0420072)
(-0.206702 1.2762e-20 0.0404943)
(-0.22251 0 0.0440913)
(-0.220938 -1.20646e-20 0.0427054)
(-0.234029 0 0.0455069)
(-0.231877 1.04245e-20 0.0442062)
(-0.243696 9.30221e-21 0.0462201)
(-0.234727 -1.57851e-20 0.0443795)
(-0.252866 0 0.0465825)
(-0.219246 3.08704e-20 0.0418026)
(-0.267832 0 0.0479762)
(-0.169599 -2.3426e-20 0.0336322)
(-0.300847 0 0.0526125)
(-0.0706828 -3.56113e-20 0.0149485)
(-0.356648 0 0.0624985)
(0.0687478 -5.95556e-20 -0.0140853)
(-0.419331 4.37488e-20 0.0766023)
(0.201951 -7.46707e-20 -0.0544641)
(-0.309673 5.18977e-20 0.0885368)
(-0.181985 0 -0.026737)
(0.709743 -1.11001e-19 -0.0376988)
(-2.05 3.0384e-19 0.256206)
(3.61557 0 -0.911483)
(-0.223267 2.51534e-19 0.682241)
(-6.04302 0 0.782456)
(7.91221 0 -1.93502)
(-3.19132 -7.06335e-19 1.20903)
(0.368716 0 -0.371423)
(2.2351 0 -0.125485)
(-5.2859 4.39409e-20 0.280167)
(16.4595 -1.13986e-18 -3.01862)
(-12.9317 9.33429e-19 3.71819)
(1.60132 0 -1.84439)
(13.3478 0 -1.63695)
(-18.0567 0 3.91211)
(13.1297 0 -4.56381)