/*--------------------------------*- C++ -*----------------------------------*\
| =========                 |                                                 |
| \\      /  F ield         | OpenFOAM: The Open Source CFD Toolbox           |
|  \\    /   O peration     | Version:  2412                                  |
|   \\  /    A nd           | Website:  www.openfoam.com                      |
|    \\/     M anipulation  |                                                 |
\*---------------------------------------------------------------------------*/
FoamFile
{
    version     2.0;
    format      ascii;
    arch        "LSB;label=32;scalar=64";
    class       volVectorField;
    location    "1.475";
    object      U_0;
}
// * * * * * * * * * * * * * * * * * * * * * * * * * * * * * * * * * * * * * //

dimensions      [0 1 -1 0 0 0 0];

internalField   nonuniform List<vector> 
12600
(
(18.7514 1.24228e-21 2.09732)
(11.6257 1.60964e-20 0.451976)
(7.35422 1.89215e-20 -0.477738)
(5.09097 0 -0.709376)
(3.97718 1.70938e-20 -0.682467)
(3.336 1.59143e-20 -0.607706)
(2.89442 0 -0.539968)
(2.56294 0 -0.484451)
(2.30311 -4.77914e-20 -0.438936)
(2.09279 0 -0.401148)
(1.91826 2.00315e-20 -0.369239)
(1.77059 1.83351e-20 -0.341877)
(1.64365 -1.67903e-20 -0.318112)
(1.53311 0 -0.297247)
(1.43579 -1.40609e-20 -0.278757)
(1.34929 0 -0.262238)
(1.27178 4.7204e-20 -0.247375)
(1.20183 0 -0.233917)
(1.13832 -1.97352e-20 -0.221662)
(1.08033 -1.80387e-20 -0.210448)
(1.02712 1.64563e-20 -0.200138)
(0.978074 5.34082e-24 -0.190622)
(0.932694 0 -0.181805)
(0.890551 -2.47697e-20 -0.173608)
(0.851284 0 -0.165964)
(0.814586 0 -0.158814)
(0.780194 -1.8308e-20 -0.15211)
(0.74788 0 -0.145808)
(0.717445 4.15652e-24 -0.13987)
(0.688717 1.31739e-20 -0.134264)
(0.661544 1.17074e-20 -0.128959)
(0.635791 1.03494e-20 -0.123931)
(0.61134 -9.09221e-21 -0.119157)
(0.588084 -1.58577e-20 -0.114616)
(0.565929 -1.37057e-20 -0.11029)
(0.54479 1.17054e-20 -0.106163)
(0.524591 0 -0.102219)
(0.505261 -8.18147e-21 -0.098445)
(0.486738 0 -0.0948293)
(0.468966 5.17368e-21 -0.0913604)
(0.451891 0 -0.0880284)
(0.435467 1.76321e-23 -0.0848238)
(0.419649 0 -0.0817382)
(0.404397 1.60437e-23 -0.0787635)
(0.389674 -9.55302e-22 -0.0758928)
(0.375445 2.66391e-21 -0.0731191)
(0.36168 -4.25092e-21 -0.0704364)
(0.348347 0 -0.0678384)
(0.33542 0 -0.0653205)
(0.322871 -8.1626e-21 -0.0628768)
(0.310679 -1.84548e-20 -0.0605034)
(0.298818 -2.03718e-20 -0.0581949)
(0.287271 1.95447e-23 -0.0559483)
(0.276013 -2.36063e-20 -0.0537584)
(0.265031 0 -0.051623)
(0.254299 2.61882e-20 -0.0495369)
(0.243811 2.72405e-20 -0.0474988)
(0.23354 2.81389e-20 -0.0455033)
(0.223483 0 -0.04355)
(0.213611 0 -0.0416333)
(0.203928 0 -0.0397539)
(0.194404 -6.11917e-20 -0.0379056)
(0.185046 0 -0.0360902)
(0.175821 0 -0.0343011)
(0.166744 1.25494e-19 -0.0325412)
(0.157778 0 -0.0308032)
(0.148945 0 -0.0290913)
(0.140204 0 -0.0273978)
(0.131584 -1.25373e-19 -0.0257278)
(0.123043 1.2472e-19 -0.0240736)
(0.114613 1.23854e-19 -0.0224411)
(0.106256 2.35098e-23 -0.020823)
(0.0980047 -1.21537e-19 -0.0192254)
(0.0898277 0 -0.0176424)
(0.0817552 1.18536e-19 -0.0160797)
(0.0737691 0 -0.0145337)
(0.065892 0 -0.0130088)
(0.0581242 0 -0.011505)
(0.050477 2.86092e-23 -0.0100243)
(0.0429717 2.17342e-19 -0.00857088)
(0.0356102 2.12729e-19 -0.00714508)
(0.0284253 -2.07931e-19 -0.00575303)
(0.0214315 -2.02984e-19 -0.0043977)
(0.0146299 0 -0.00307905)
(0.00811881 0 -0.00181626)
(0.00175123 3.74796e-19 -0.000580609)
(-0.00411852 -7.27877e-19 0.000559059)
(-0.0100404 7.05902e-19 0.00170924)
(-0.0150625 3.41856e-19 0.00268589)
(-0.0205805 0 0.00375897)
(-0.0245354 -6.38756e-19 0.00453042)
(-0.0296995 3.08027e-19 0.00553533)
(-0.0324876 -2.96782e-19 0.00608228)
(-0.0371831 5.70937e-19 0.0069965)
(-0.0390895 0 0.00737369)
(-0.0427611 0 0.00809043)
(-0.0446196 0 0.00845548)
(-0.0469734 0 0.00891248)
(-0.0472451 0 0.00897627)
(-0.0536738 0 0.010195)
(-0.0417484 -4.21766e-19 0.00795269)
(-0.0655131 -7.95366e-19 0.012493)
(-0.0447432 -7.69377e-19 0.00840399)
(-0.0520038 0 0.00999926)
(-0.0634191 0 0.0120791)
(-0.045724 0 0.00873663)
(-0.0680999 -6.16345e-19 0.0130257)
(-0.0511265 -1.18574e-18 0.00964492)
(-0.046411 5.5539e-19 0.00911477)
(-0.0953999 0 0.0181724)
(-0.0283834 -1.02518e-18 0.00535084)
(-0.0672785 0 0.0132504)
(-0.109026 -9.00023e-19 0.0204763)
(0.00447976 8.47374e-19 -0.000654661)
(-0.137634 -7.61483e-19 0.0266009)
(-0.0457734 -7.49334e-19 0.00907071)
(-0.222182 6.43596e-19 0.0435245)
(-0.369283 -1.21651e-22 0.0701558)
(-0.366987 6.68706e-19 0.0690853)
(-0.15444 0 0.028278)
(29.1649 -1.25409e-21 4.03026)
(25.1179 0 1.86101)
(20.2522 -1.91506e-20 -0.212547)
(16.0827 0 -1.21199)
(13.121 -1.7321e-20 -1.50778)
(11.0768 -3.04018e-20 -1.51878)
(9.60351 -1.40685e-20 -1.44109)
(8.49075 0 -1.34339)
(7.61732 3.55891e-22 -1.24792)
(6.91034 -2.18543e-20 -1.16079)
(6.32414 2.00593e-20 -1.08265)
(5.82865 1.84091e-20 -1.01279)
(5.40326 -1.68922e-20 -0.950198)
(5.03327 1.54968e-20 -0.89389)
(4.70795 2.84802e-20 -0.843007)
(4.41919 0 -0.796813)
(4.16081 -6.44238e-23 -0.75469)
(3.92796 2.18514e-20 -0.716115)
(3.71681 2.00224e-20 -0.680649)
(3.52427 0 -0.647921)
(3.34783 0 -0.617613)
(3.18543 1.52009e-20 -0.589458)
(3.03535 0 -0.563225)
(2.89614 1.25565e-20 -0.538715)
(2.7666 -2.27519e-20 -0.515756)
(2.64567 0 -0.494197)
(2.53248 1.85565e-20 -0.473909)
(2.42624 0 -0.454776)
(2.3263 -1.4948e-20 -0.436697)
(2.23207 -2.66892e-20 -0.419581)
(2.14303 -2.37141e-20 -0.40335)
(2.05874 -1.04755e-20 -0.387931)
(1.9788 9.20043e-21 -0.373261)
(1.90284 3.21016e-20 -0.359283)
(1.83056 2.77392e-20 -0.345944)
(1.76165 0 -0.333199)
(1.69588 0 -0.321004)
(1.63301 -1.74336e-23 -0.309321)
(1.57282 0 -0.298114)
(1.51512 -5.22304e-21 -0.287352)
(1.45974 0 -0.277004)
(1.40653 -5.29377e-21 -0.267044)
(1.35533 0 -0.257446)
(1.306 -9.52787e-22 -0.248186)
(1.25844 0 -0.239245)
(1.21251 -2.68239e-21 -0.230601)
(1.16812 0 -0.222236)
(1.12517 0 -0.214132)
(1.08356 6.98827e-21 -0.206274)
(1.0432 0 -0.198645)
(1.00404 0 -0.191234)
(0.965962 0 -0.184023)
(0.928932 2.2141e-20 -0.177004)
(0.892858 4.73019e-20 -0.17016)
(0.8577 0 -0.163486)
(0.823375 0 -0.156965)
(0.789857 -2.72163e-20 -0.150593)
(0.757058 -2.81375e-20 -0.144353)
(0.724969 0 -0.138246)
(0.693499 0 -0.132252)
(0.662654 0 -0.126375)
(0.632336 0 -0.120595)
(0.60257 -6.1604e-20 -0.114918)
(0.573248 6.20733e-20 -0.109323)
(0.544415 -1.2478e-19 -0.103819)
(0.515953 0 -0.0983839)
(0.487927 0 -0.0930307)
(0.460212 0 -0.0877343)
(0.432889 4.7541e-23 -0.0825121)
(0.405831 -1.23528e-19 -0.0773384)
(0.379133 -1.22558e-19 -0.0722331)
(0.352673 2.42741e-19 -0.0671716)
(0.326553 3.60055e-23 -0.0621748)
(0.30067 -1.18489e-19 -0.0572223)
(0.27512 -1.16849e-19 -0.0523332)
(0.249837 0 -0.0474951)
(0.224899 0 -0.0427222)
(0.200294 0 -0.0380137)
(0.176065 2.17687e-19 -0.0333763)
(0.152264 0 -0.0288227)
(0.128909 0 -0.0243526)
(0.106086 2.03506e-19 -0.0199877)
(0.0838507 1.98452e-19 -0.0157326)
(0.0621961 0 -0.0115937)
(0.0414312 0 -0.00762069)
(0.0211041 0 -0.00373864)
(0.00229583 7.08471e-19 -0.000141029)
(-0.0166595 -4.25375e-23 0.00347617)
(-0.0328725 3.31988e-19 0.00657537)
(-0.0505769 -3.20727e-19 0.00995197)
(-0.063501 6.19023e-19 0.0124179)
(-0.0801146 2.98163e-19 0.0155886)
(-0.0893931 5.73992e-19 0.0173502)
(-0.104603 0 0.020259)
(-0.111015 0 0.0214644)
(-0.123201 0 0.0237982)
(-0.129225 0 0.0249423)
(-0.1373 4.64729e-19 0.0264373)
(-0.138893 0 0.0268292)
(-0.157922 0 0.0302793)
(-0.125072 -4.04427e-19 0.0241673)
(-0.194524 3.80959e-19 0.037579)
(-0.131353 1.47257e-18 0.0247574)
(-0.15919 -6.90964e-19 0.0310278)
(-0.187783 0 0.0359968)
(-0.138737 0 0.0266526)
(-0.204936 0 0.0396069)
(-0.152511 5.64723e-19 0.0287406)
(-0.148909 -5.28566e-19 0.0294621)
(-0.27931 0 0.0536524)
(-0.089853 1.94802e-18 0.0164696)
(-0.211017 8.6588e-19 0.0423771)
(-0.31773 1.70736e-18 0.0595785)
(-0.00385615 0 0.00108264)
(-0.42533 0 0.0829306)
(-0.157548 -7.09323e-19 0.0312973)
(-0.686794 0 0.137888)
(-1.06837 -6.23592e-19 0.207337)
(-1.03523 -6.31124e-19 0.195958)
(-0.40799 0 0.0744006)
(31.9085 0 3.90212)
(31.0926 0 2.82297)
(28.5606 -1.29691e-20 1.02618)
(25.2152 0 -0.381659)
(21.9611 0 -1.22618)
(19.1864 1.51138e-20 -1.65117)
(16.927 1.3323e-20 -1.8195)
(15.1011 0 -1.85106)
(13.6129 4.20775e-22 -1.81727)
(12.3822 2.0704e-20 -1.75469)
(11.3484 -3.77988e-20 -1.68083)
(10.4673 -1.74426e-20 -1.60405)
(9.70659 1.14504e-22 -1.52833)
(9.04243 -1.46844e-20 -1.45552)
(8.45689 -1.34672e-20 -1.38642)
(7.93623 1.22956e-20 -1.32129)
(7.46977 -2.26196e-20 -1.26009)
(7.04909 -2.07073e-20 -1.20269)
(6.66745 0 -1.14885)
(6.31939 0 -1.09834)
(6.00044 1.57671e-20 -1.0509)
(5.70691 1.4373e-20 -1.00629)
(5.43571 0 -0.964297)
(5.18427 0 -0.924705)
(4.95036 2.15587e-20 -0.887322)
(4.73213 0 -0.851975)
(4.52796 -3.516e-20 -0.818504)
(4.33646 1.58082e-20 -0.786766)
(4.1564 0 -0.756628)
(3.98674 1.26458e-20 -0.727971)
(3.82653 1.12364e-20 -0.700687)
(3.67497 0 -0.674678)
(3.53131 -8.72884e-21 -0.649852)
(3.39491 -1.5212e-20 -0.626128)
(3.2652 1.22225e-23 -0.603431)
(3.14164 0 -0.581691)
(3.02378 0 -0.560845)
(2.91118 7.84385e-21 -0.540835)
(2.80347 0 -0.521608)
(2.70029 0 -0.503113)
(2.60134 0 -0.485305)
(2.50631 0 -0.46814)
(2.41495 0 -0.451581)
(2.327 0 -0.435589)
(2.24224 0 -0.420131)
(2.16047 2.4955e-21 -0.405173)
(2.08149 -3.99456e-21 -0.390687)
(2.00511 0 -0.376643)
(1.93119 -6.61156e-21 -0.363018)
(1.85954 0 -0.349782)
(1.79005 0 -0.336916)
(1.72255 1.92583e-20 -0.324394)
(1.65694 0 -0.3122)
(1.59307 -2.23488e-20 -0.300307)
(1.53087 2.36016e-20 -0.288706)
(1.47019 0 -0.277368)
(1.41097 2.57253e-20 -0.266287)
(1.35306 0 -0.255435)
(1.29644 0 -0.244812)
(1.24095 0 -0.234384)
(1.1866 5.67477e-20 -0.22416)
(1.13321 5.75423e-20 -0.214103)
(1.08082 2.85588e-23 -0.204226)
(1.02924 -1.17203e-19 -0.19449)
(0.978546 2.50466e-23 -0.184915)
(0.928534 0 -0.175457)
(0.879309 0 -0.166143)
(0.830653 -1.17691e-19 -0.156926)
(0.782702 3.82904e-23 -0.14784)
(0.735234 0 -0.138837)
(0.68841 0 -0.129953)
(0.642013 -1.14437e-19 -0.121144)
(0.596221 2.89725e-23 -0.112447)
(0.550846 2.69633e-23 -0.103825)
(0.506059 0 -0.0953133)
(0.461733 0 -0.0868871)
(0.418008 -2.12995e-19 -0.0785733)
(0.374846 2.0907e-19 -0.0703676)
(0.332338 0 -0.0622834)
(0.290549 0 -0.0543407)
(0.249529 0 -0.0465391)
(0.209399 0 -0.0389168)
(0.170278 0 -0.0314777)
(0.132133 0 -0.0242403)
(0.0955049 0 -0.0172769)
(0.0596196 0 -0.0104791)
(0.0263149 -6.66065e-19 -0.00414925)
(-0.00722278 -3.2258e-19 0.00219344)
(-0.0361058 -3.12026e-19 0.00767858)
(-0.0674898 3.0138e-19 0.0136043)
(-0.0907375 -5.81509e-19 0.0180105)
(-0.120248 -2.80063e-19 0.023587)
(-0.137179 -2.69507e-19 0.0267697)
(-0.164337 0 0.0319267)
(-0.176143 0 0.0340988)
(-0.198301 0 0.0383375)
(-0.209088 0 0.0403388)
(-0.224169 -4.35993e-19 0.0430853)
(-0.22793 0 0.0440921)
(-0.259668 0 0.0494961)
(-0.20861 3.79202e-19 0.0405385)
(-0.322286 0 0.0622054)
(-0.216115 -6.90084e-19 0.0400623)
(-0.270464 6.47512e-19 0.0533067)
(-0.310493 0 0.059054)
(-0.234595 0 0.0450571)
(-0.343531 0 0.0664304)
(-0.254707 5.28805e-19 0.0472203)
(-0.261477 0 0.0529108)
(-0.458261 -4.60839e-19 0.0871342)
(-0.158166 8.29943e-25 0.0282535)
(-0.364535 -8.10372e-19 0.075361)
(-0.520408 -1.59748e-18 0.0949794)
(-0.0317207 0 0.00806658)
(-0.727768 6.74735e-19 0.143338)
(-0.290726 6.63486e-19 0.0599482)
(-1.1719 5.69438e-19 0.242725)
(-1.7278 0 0.336017)
(-1.64625 5.90124e-19 0.303057)
(-0.605335 0 0.102304)
(32.4297 0 2.96077)
(32.9948 0 2.77355)
(32.4402 1.226e-20 1.72768)
(30.7951 0 0.524868)
(28.5394 -1.22982e-20 -0.48165)
(26.1204 2.5013e-20 -1.20559)
(23.7982 0 -1.6693)
(21.6893 -2.18231e-20 -1.93381)
(19.8273 2.09204e-20 -2.06318)
(18.2026 1.89133e-20 -2.10753)
(16.7876 1.77717e-20 -2.10071)
(15.5513 -1.61481e-20 -2.06405)
(14.4649 1.5029e-20 -2.01051)
(13.5041 -2.73907e-20 -1.94792)
(12.649 0 -1.88102)
(11.8832 -2.31948e-20 -1.81269)
(11.1932 0 -1.74466)
(10.5684 0 -1.678)
(9.99961 0 -1.61331)
(9.47955 1.6292e-20 -1.55093)
(9.00204 -3.41152e-23 -1.49104)
(8.5619 -2.59347e-23 -1.43367)
(8.15477 1.2353e-20 -1.37881)
(7.77695 0 -1.32641)
(7.42526 0 -1.27637)
(7.09699 0 -1.22858)
(6.78977 3.3239e-20 -1.18295)
(6.50156 -5.88901e-24 -1.13935)
(6.23057 0 -1.09768)
(5.97524 0 -1.05782)
(5.73417 0 -1.01968)
(5.50614 0 -0.983149)
(5.29007 1.6511e-20 -0.948137)
(5.08499 0 -0.914554)
(4.89001 -1.24399e-20 -0.882318)
(4.70437 0 -0.851349)
(4.52735 0 -0.821573)
(4.35833 -7.43862e-21 -0.792922)
(4.19671 0 -0.765329)
(4.04198 0 -0.738735)
(3.89366 3.50947e-21 -0.713083)
(3.7513 -4.80785e-21 -0.688317)
(3.6145 0 -0.664389)
(3.4829 -9.18377e-22 -0.641249)
(3.35615 0 -0.618856)
(3.23392 -4.69558e-21 -0.597163)
(3.11595 1.89439e-23 -0.576135)
(3.00194 0 -0.555731)
(2.89165 0 -0.535918)
(2.78483 7.26882e-21 -0.516659)
(2.68129 1.64436e-20 -0.497928)
(2.58078 -3.63402e-20 -0.479685)
(2.48315 0 -0.461913)
(2.38818 -2.10486e-20 -0.444573)
(2.29574 -2.22791e-20 -0.427651)
(2.20561 -2.33132e-20 -0.411107)
(2.11771 -2.42364e-20 -0.394935)
(2.03181 0 -0.379093)
(1.94788 0 -0.363582)
(1.86568 -5.25603e-20 -0.348355)
(1.7852 -1.07025e-19 -0.333422)
(1.70619 -5.42722e-20 -0.318732)
(1.62871 3.06431e-23 -0.304304)
(1.55247 5.52437e-20 -0.290081)
(1.47758 5.54972e-20 -0.276091)
(1.40374 0 -0.262272)
(1.33108 0 -0.248663)
(1.2593 1.1091e-19 -0.235196)
(1.18858 2.20786e-19 -0.221918)
(1.1186 0 -0.208761)
(1.04959 1.08781e-19 -0.195777)
(0.981219 1.07714e-19 -0.182901)
(0.913752 1.06517e-19 -0.170189)
(0.846902 2.10244e-19 -0.157582)
(0.780923 0 -0.145136)
(0.715609 0 -0.13281)
(0.651178 2.00433e-19 -0.120647)
(0.587549 -3.93369e-19 -0.108635)
(0.52487 -1.92739e-19 -0.096799)
(0.463205 0 -0.0851621)
(0.402649 0 -0.073727)
(0.343349 0 -0.0625466)
(0.285498 0 -0.0516253)
(0.229024 0 -0.0409951)
(0.17472 0 -0.0307483)
(0.121473 -3.22562e-19 -0.0207502)
(0.0719081 4.09162e-23 -0.0114023)
(0.0220338 3.02893e-19 -0.00206571)
(-0.0212058 0 0.00608524)
(-0.067965 2.82893e-19 0.0148139)
(-0.103098 2.72912e-19 0.0214165)
(-0.147152 0 0.0296444)
(-0.173094 -2.52847e-19 0.0344671)
(-0.213831 -4.85688e-19 0.0421241)
(-0.232089 0 0.0454161)
(-0.265886 0 0.051842)
(-0.282148 0 0.0547805)
(-0.305764 -4.08703e-19 0.0589997)
(-0.312617 0 0.0608561)
(-0.357369 0 0.0679876)
(-0.29105 3.55312e-19 0.0570851)
(-0.44705 -3.34535e-19 0.086423)
(-0.298307 0 0.0547416)
(-0.384731 0 0.0766729)
(-0.42998 0 0.081421)
(-0.332929 0 0.0641495)
(-0.482444 0 0.093483)
(-0.357504 -1.99961e-23 0.0655774)
(-0.382826 0 0.0787878)
(-0.630805 4.31239e-19 0.119186)
(-0.23438 -8.53031e-19 0.0411134)
(-0.526135 0 0.111435)
(-0.716424 9.85918e-23 0.128059)
(-0.0815335 0 0.0199639)
(-1.04218 8.33157e-24 0.207299)
(-0.44461 0 0.0939619)
(-1.66954 -5.32405e-19 0.355677)
(-2.33276 0 0.456496)
(-2.19493 5.5113e-19 0.395629)
(-0.73808 0 0.114898)
(32.5316 0 2.10895)
(33.2887 0 2.23354)
(33.6347 0 1.75739)
(33.2694 0 0.962132)
(32.2451 1.16086e-20 0.119108)
(30.7692 -9.02015e-22 -0.631113)
(29.0474 0 -1.23306)
(27.2387 2.0598e-20 -1.67755)
(25.4529 0 -1.98177)
(23.7562 -3.52029e-20 -2.17398)
(22.181 0 -2.28282)
(20.7374 1.52449e-20 -2.33233)
(19.423 0 -2.34083)
(18.2289 2.58611e-20 -2.32159)
(17.144 -1.17763e-20 -2.28393)
(16.1567 2.17548e-20 -2.23431)
(15.2561 -1.99101e-20 -2.17718)
(14.4323 -1.82704e-20 -2.1156)
(13.6763 0 -2.05169)
(12.9806 -1.53841e-20 -1.98689)
(12.3385 -1.40503e-20 -1.92221)
(11.744 -2.55895e-20 -1.85832)
(11.1921 -1.16645e-20 -1.79569)
(10.6785 0 -1.7346)
(10.1993 0 -1.67525)
(9.75102 0 -1.61774)
(9.33086 -1.56877e-20 -1.56213)
(8.93617 -1.41105e-20 -1.50842)
(8.56467 0 -1.45659)
(8.21432 0 -1.40661)
(7.88333 1.00342e-20 -1.35843)
(7.57008 0 -1.312)
(7.27314 1.44204e-24 -1.26724)
(6.99122 -1.36018e-20 -1.22409)
(6.72316 1.17594e-20 -1.18248)
(6.46791 0 -1.14234)
(6.22453 0 -1.10362)
(5.99215 7.02072e-21 -1.06623)
(5.76999 0 -1.03012)
(5.55734 0 -0.995217)
(5.35354 -3.31176e-21 -0.961473)
(5.15799 4.53671e-21 -0.928825)
(4.97015 0 -0.89722)
(4.7895 8.66472e-22 -0.866601)
(4.61559 0 -0.836923)
(4.44795 2.20546e-21 -0.808133)
(4.28622 3.54173e-21 -0.780188)
(4.12999 0 -0.753039)
(3.97894 5.84213e-21 -0.726651)
(3.83272 -6.8549e-21 -0.700975)
(3.69106 -3.0982e-20 -0.675982)
(3.55362 1.71186e-20 -0.651622)
(3.42019 -1.85336e-20 -0.627875)
(3.29047 2.551e-23 -0.60469)
(3.16427 0 -0.582053)
(3.04131 2.19736e-20 -0.559911)
(2.92145 2.28414e-20 -0.538259)
(2.8044 -2.35691e-20 -0.51704)
(2.69009 2.42073e-20 -0.496259)
(2.57819 4.95193e-20 -0.475852)
(2.4687 5.03943e-20 -0.455835)
(2.36128 -5.1058e-20 -0.43614)
(2.25598 5.16204e-20 -0.416792)
(2.15243 0 -0.397716)
(2.05076 0 -0.378952)
(1.95055 5.23064e-20 -0.360413)
(1.85201 0 -0.342154)
(1.75468 0 -0.324084)
(1.65884 -1.03872e-19 -0.306266)
(1.56402 0 -0.288606)
(1.47054 -1.02346e-19 -0.271179)
(1.37795 -2.02623e-19 -0.253891)
(1.28659 0 -0.236822)
(1.19608 -9.88481e-20 -0.21989)
(1.10674 0 -0.203171)
(1.01829 0 -0.186606)
(0.931026 -1.88323e-19 -0.170257)
(0.844807 1.84841e-19 -0.154103)
(0.759856 3.92867e-23 -0.138179)
(0.676216 0 -0.122513)
(0.594045 0 -0.107111)
(0.513493 0 -0.0920407)
(0.43485 -1.64762e-19 -0.0773057)
(0.357987 1.60391e-19 -0.0629562)
(0.283974 0 -0.0490972)
(0.211338 6.05541e-19 -0.0355815)
(0.143522 2.9356e-19 -0.0228907)
(0.0753291 -5.68439e-19 -0.0102579)
(0.0158155 -2.74816e-19 0.000877013)
(-0.0482403 -5.30739e-19 0.0126951)
(-0.0970519 0 0.0217935)
(-0.157513 0 0.0329498)
(-0.194051 2.37085e-19 0.0396712)
(-0.250211 4.55339e-19 0.0501182)
(-0.276179 -4.36827e-19 0.05471)
(-0.323507 0 0.0636582)
(-0.346095 0 0.0676277)
(-0.380038 3.8293e-19 0.0736004)
(-0.39098 3.65162e-19 0.0765964)
(-0.449298 0 0.0852427)
(-0.37079 -3.32759e-19 0.0734629)
(-0.566935 3.13255e-19 0.109645)
(-0.377178 0 0.0684486)
(-0.500477 0 0.100896)
(-0.544689 0 0.102449)
(-0.433228 0 0.0837816)
(-0.620024 0 0.120296)
(-0.460703 -4.63101e-19 0.0836)
(-0.511103 0 0.106938)
(-0.795907 0 0.14896)
(-0.319222 0 0.0552965)
(-0.693619 7.09059e-19 0.15031)
(-0.90575 6.98515e-19 0.157998)
(-0.154573 0 0.0380145)
(-1.36486 -5.89922e-19 0.274233)
(-0.616937 0 0.133719)
(-2.17006 -4.97684e-19 0.474725)
(-2.86888 0 0.563209)
(-2.67942 -5.15052e-19 0.468347)
(-0.798669 0 0.107352)
(32.603 -4.97082e-21 1.49546)
(33.1858 -6.17295e-21 1.63423)
(33.7119 7.33234e-21 1.44239)
(33.9369 8.26447e-21 0.980525)
(33.7435 0 0.387678)
(33.1436 -9.90895e-21 -0.22912)
(32.2107 0 -0.804025)
(31.0356 1.74024e-20 -1.29999)
(29.7073 1.66371e-20 -1.70157)
(28.302 3.20862e-20 -2.0092)
(26.8794 -1.47599e-20 -2.2326)
(25.4816 1.37708e-20 -2.38527)
(24.1359 0 -2.48116)
(22.8579 0 -2.53292)
(21.6549 1.11024e-20 -2.55118)
(20.5286 -1.1454e-22 -2.54449)
(19.4774 1.76006e-22 -2.5195)
(18.4979 1.35829e-22 -2.48131)
(17.5854 0 -2.43375)
(16.7352 0 -2.37971)
(15.9422 0 -2.32134)
(15.2018 2.40443e-20 -2.26026)
(14.5095 1.09338e-20 -2.19766)
(13.8612 0 -2.13444)
(13.2532 0 -2.07126)
(12.6821 1.63378e-20 -2.00859)
(12.1448 0 -1.9468)
(11.6385 0 -1.88614)
(11.1607 0 -1.82678)
(10.709 0 -1.76883)
(10.2815 -6.31443e-24 -1.71238)
(9.87626 0 -1.65747)
(9.49159 -1.54122e-24 -1.60411)
(9.12595 1.28218e-20 -1.5523)
(8.77797 2.73881e-24 -1.50203)
(8.44635 0 -1.45326)
(8.12995 0 -1.40596)
(7.8277 0 -1.3601)
(7.53864 0 -1.31562)
(7.26187 0 -1.27247)
(6.99658 0 -1.23062)
(6.742 0 -1.19001)
(6.49745 -2.50723e-21 -1.15059)
(6.26227 -8.52919e-22 -1.11231)
(6.03588 0 -1.07512)
(5.81771 2.04301e-21 -1.03898)
(5.60725 0 -1.00383)
(5.40402 0 -0.969634)
(5.20757 -1.09897e-20 -0.936345)
(5.01747 0 -0.903911)
(4.83336 1.45747e-20 -0.872303)
(4.65481 0 -0.841464)
(4.48154 3.48767e-20 -0.811372)
(4.31315 2.47312e-23 -0.781966)
(4.14943 0 -0.753234)
(3.98996 0 -0.725112)
(3.83461 0 -0.697595)
(3.68295 4.43465e-20 -0.670614)
(3.53493 -4.55447e-20 -0.644176)
(3.3901 -4.65293e-20 -0.618205)
(3.24846 -4.73521e-20 -0.59272)
(3.10957 9.60425e-20 -0.567636)
(2.97348 4.85034e-20 -0.542989)
(2.83973 0 -0.51868)
(2.70845 0 -0.494763)
(2.57912 -2.44444e-23 -0.471129)
(2.45198 0 -0.447847)
(2.32647 0 -0.424799)
(2.20291 -9.75718e-20 -0.402071)
(2.08071 0 -0.379538)
(1.96026 0 -0.357299)
(1.84097 1.90353e-19 -0.335232)
(1.7233 -9.40535e-20 -0.313441)
(1.6067 0 -0.291816)
(1.49162 0 -0.270459)
(1.37766 0 -0.249289)
(1.26522 1.76864e-19 -0.22839)
(1.15406 0 -0.207727)
(1.04452 3.40006e-19 -0.187352)
(0.936574 -1.66331e-19 -0.16729)
(0.830478 0 -0.147556)
(0.726357 0 -0.128231)
(0.624624 1.5461e-19 -0.109318)
(0.52507 -2.5881e-23 -0.0908882)
(0.429067 1.46243e-19 -0.0730536)
(0.334762 -2.83975e-19 -0.0556674)
(0.24645 2.75242e-19 -0.0392735)
(0.157702 2.66503e-19 -0.023002)
(0.0797351 2.57666e-19 -0.00853545)
(-0.00379355 2.9265e-23 0.00669727)
(-0.068341 0 0.0186295)
(-0.147326 -2.30929e-19 0.0330234)
(-0.1963 0 0.0419427)
(-0.269978 0 0.0554967)
(-0.305144 4.09225e-19 0.0616097)
(-0.368156 0 0.0734398)
(-0.398087 0 0.0785602)
(-0.44445 0 0.0866178)
(-0.460577 -3.41906e-19 0.0910064)
(-0.533299 0 0.101081)
(-0.445802 -3.11471e-19 0.0893888)
(-0.679718 0 0.131553)
(-0.451672 0 0.0811493)
(-0.615717 0 0.125651)
(-0.652824 0 0.121973)
(-0.534667 0 0.103931)
(-0.754265 -4.50906e-19 0.146539)
(-0.563871 -4.33105e-19 0.101356)
(-0.644006 4.05326e-19 0.1369)
(-0.952507 0 0.176588)
(-0.412922 0 0.0709661)
(-0.864412 -1.32582e-18 0.191532)
(-1.08828 0 0.185129)
(-0.251192 6.14638e-19 0.0623003)
(-1.69114 0 0.343358)
(-0.804127 5.42228e-19 0.178479)
(-2.66235 4.65077e-19 0.597479)
(-3.32068 0 0.653803)
(-3.09801 -4.80714e-19 0.522432)
(-0.778216 0 0.0785419)
(32.6568 4.68116e-21 1.04399)
(33.0674 1.13778e-20 1.13019)
(33.513 -6.90667e-21 1.04638)
(33.8777 -7.83601e-22 0.782236)
(34.0505 7.48163e-21 0.391184)
(33.9752 0 -0.0648323)
(33.6441 0 -0.536697)
(33.0772 -1.63869e-20 -0.988668)
(32.3099 -3.04281e-20 -1.3971)
(31.3846 -7.09428e-22 -1.74895)
(30.3451 1.38972e-20 -2.03971)
(29.232 -1.29658e-20 -2.27073)
(28.0802 1.17213e-20 -2.44684)
(26.918 0 -2.57465)
(25.767 0 -2.66134)
(24.6428 -9.51022e-21 -2.71392)
(23.5558 3.47869e-20 -2.73879)
(22.5125 3.20039e-20 -2.74154)
(21.5164 0 -2.72686)
(20.5688 0 -2.69867)
(19.6696 0 -2.66013)
(18.8175 -6.72207e-23 -2.61378)
(18.0108 -2.05385e-20 -2.56166)
(17.2474 9.32262e-21 -2.50537)
(16.5249 1.69304e-20 -2.44618)
(15.8408 -3.07178e-20 -2.38511)
(15.193 1.3849e-20 -2.32293)
(14.579 1.24683e-20 -2.26026)
(13.9965 1.11855e-20 -2.19759)
(13.4437 0 -2.13527)
(12.9184 -8.90056e-21 -2.07359)
(12.4188 7.86343e-21 -2.01277)
(11.9433 -6.91827e-21 -1.95298)
(11.4901 -1.20653e-20 -1.89431)
(11.058 -2.08733e-20 -1.83687)
(10.6454 0 -1.7807)
(10.2511 0 -1.72584)
(9.87396 -6.24837e-21 -1.67229)
(9.51284 0 -1.62008)
(9.16675 3.96829e-21 -1.56918)
(8.83473 2.96187e-21 -1.51957)
(8.5159 0 -1.47124)
(8.20947 4.73464e-21 -1.42416)
(7.91465 8.02651e-22 -1.37828)
(7.63075 0 -1.33359)
(7.35708 -1.92239e-21 -1.29003)
(7.09307 -3.09222e-21 -1.24757)
(6.83808 0 -1.20616)
(6.59161 1.03098e-20 -1.16577)
(6.35311 -6.03139e-21 -1.12635)
(6.12215 -1.36558e-20 -1.08787)
(5.89821 0 -1.05027)
(5.68093 -2.50248e-23 -1.01353)
(5.46982 3.50258e-20 -0.977593)
(5.26461 0 -0.942437)
(5.06481 0 -0.907993)
(4.87022 -2.01565e-20 -0.874262)
(4.68033 -2.08376e-20 -0.841161)
(4.49505 4.27807e-20 -0.808705)
(4.31385 4.37387e-20 -0.7768)
(4.13671 4.45082e-20 -0.745477)
(3.96307 -4.51184e-20 -0.71463)
(3.79301 -9.11351e-20 -0.684306)
(3.62593 0 -0.654386)
(3.462 0 -0.624937)
(3.30057 -9.23587e-20 -0.595826)
(3.14193 0 -0.567141)
(2.98537 0 -0.538734)
(2.83128 9.1641e-20 -0.510714)
(2.67892 0 -0.482926)
(2.52878 -9.02274e-20 -0.455493)
(2.38011 -3.25009e-23 -0.428261)
(2.23346 8.82984e-20 -0.401363)
(2.08814 0 -0.37466)
(1.94472 0 -0.348279)
(1.80266 0 -0.322115)
(1.66246 1.65878e-19 -0.296277)
(1.52379 0 -0.270714)
(1.38709 -1.59471e-19 -0.245495)
(1.25227 3.12017e-19 -0.220645)
(1.1197 0 -0.196184)
(0.989439 0 -0.172209)
(0.862061 0 -0.148721)
(0.737247 -2.55914e-23 -0.125818)
(0.616706 -1.37099e-19 -0.103609)
(0.498176 -2.66104e-19 -0.0819655)
(0.386842 -2.57968e-19 -0.0614705)
(0.275016 2.49679e-19 -0.0411872)
(0.176125 0 -0.022993)
(0.0706561 2.33035e-19 -0.00399268)
(-0.0119828 0 0.0111568)
(-0.111895 2.16303e-19 0.0291276)
(-0.175444 0 0.0405872)
(-0.269016 0 0.057597)
(-0.315142 0 0.065488)
(-0.396278 -3.66964e-19 0.0805994)
(-0.434782 -3.50897e-19 0.0870118)
(-0.495989 0 0.0975309)
(-0.518508 3.19947e-19 0.103596)
(-0.606858 -3.04996e-19 0.114884)
(-0.513591 2.91436e-19 0.104461)
(-0.782885 -2.74243e-19 0.151654)
(-0.520407 0 0.0926408)
(-0.727956 0 0.150514)
(-0.752494 0 0.139531)
(-0.636045 0 0.124435)
(-0.882836 4.21638e-19 0.171748)
(-0.66633 1.34799e-23 0.118774)
(-0.778747 -7.57903e-19 0.168146)
(-1.0998 0 0.201711)
(-0.514995 0 0.0881616)
(-1.0356 6.19602e-19 0.234545)
(-1.264 0 0.209432)
(-0.370226 -5.74381e-19 0.0930645)
(-2.01532 0 0.413648)
(-1.00089 -1.01333e-18 0.227406)
(-3.13429 0 0.72102)
(-3.67323 0 0.7242)
(-3.45074 4.49063e-19 0.556088)
(-0.667628 0 0.0253036)
(32.6806 0 0.6913)
(32.9816 -5.23407e-21 0.733772)
(33.3182 0 0.683459)
(33.6482 -6.58677e-21 0.519611)
(33.9086 -1.34272e-20 0.257068)
(34.0484 0 -0.0724457)
(34.0392 6.69734e-21 -0.437517)
(33.8694 0 -0.812051)
(33.5398 9.01802e-22 -1.17585)
(33.0597 -2.57876e-20 -1.51443)
(32.4452 0 -1.81847)
(31.7166 0 -2.08307)
(30.8963 -1.10245e-20 -2.30664)
(30.0064 0 -2.48992)
(29.0683 0 -2.63519)
(28.1007 0 -2.74572)
(27.1199 -1.62499e-20 -2.8253)
(26.1393 -1.49655e-20 -2.8779)
(25.1694 -1.35732e-20 -2.90739)
(24.2184 0 -2.91741)
(23.292 0 -2.91126)
(22.3942 -1.05621e-20 -2.89185)
(21.5276 9.63381e-21 -2.86169)
(20.6936 -8.76818e-21 -2.82293)
(19.8928 -1.59234e-20 -2.77738)
(19.125 2.87746e-20 -2.72655)
(18.3899 -5.41141e-23 -2.67169)
(17.6865 -1.17264e-20 -2.61384)
(17.0137 -1.05198e-20 -2.55385)
(16.3704 0 -2.49242)
(15.7553 0 -2.43011)
(15.167 -7.39502e-21 -2.36737)
(14.6043 0 -2.30459)
(14.0657 1.1346e-20 -2.24205)
(13.5501 9.81309e-21 -2.18)
(13.0562 -8.39028e-21 -2.11862)
(12.5829 0 -2.05805)
(12.1289 5.8752e-21 -1.99841)
(11.6932 4.76163e-21 -1.93978)
(11.2748 3.79617e-24 -1.88222)
(10.8728 -5.57422e-21 -1.82578)
(10.4861 0 -1.77047)
(10.114 -2.23279e-21 -1.71631)
(9.75552 0 -1.6633)
(9.41002 0 -1.61144)
(9.07672 0 -1.5607)
(8.75494 1.38837e-23 -1.51109)
(8.44398 0 -1.46255)
(8.14329 -4.83781e-21 -1.41508)
(7.8522 1.1323e-20 -1.36863)
(7.57024 1.28326e-20 -1.32319)
(7.2968 0 -1.27869)
(7.03147 -1.53758e-20 -1.23514)
(6.77365 -3.28628e-20 -1.19246)
(6.52305 0 -1.15064)
(6.27906 0 -1.10962)
(6.04146 1.8934e-20 -1.0694)
(5.80965 1.95352e-20 -1.02988)
(5.5835 -2.00815e-20 -0.991098)
(5.36238 -4.10104e-20 -0.952936)
(5.14626 0 -0.91544)
(4.93447 0 -0.878484)
(4.7271 2.86442e-23 -0.842132)
(4.52341 -4.30483e-20 -0.80624)
(4.32364 0 -0.770896)
(4.12695 4.33366e-20 -0.735936)
(3.93372 0 -0.701473)
(3.74305 0 -0.667327)
(3.55545 0 -0.633632)
(3.36997 0 -0.6002)
(3.18723 3.44911e-23 -0.567183)
(3.00627 -3.22123e-23 -0.534392)
(2.82779 -8.27722e-20 -0.501992)
(2.65091 0 -0.469807)
(2.47634 -8.04567e-20 -0.438)
(2.30334 0 -0.406433)
(2.13259 -1.55544e-19 -0.375247)
(1.96361 1.52541e-19 -0.344367)
(1.79695 -1.4943e-19 -0.313889)
(1.63245 -1.46227e-19 -0.283826)
(1.47058 0 -0.254216)
(1.31136 1.39356e-19 -0.225164)
(1.15551 0 -0.196669)
(1.00259 -1.3216e-19 -0.168864)
(0.85467 -1.28404e-19 -0.141846)
(0.709059 2.49287e-19 -0.11552)
(0.571871 0 -0.090484)
(0.434128 -4.67663e-19 -0.0657747)
(0.31152 0 -0.0434141)
(0.18132 2.18158e-19 -0.0202497)
(0.077898 0 -0.00145482)
(-0.0456697 2.02457e-19 0.0204735)
(-0.126269 0 0.0348642)
(-0.242434 3.73804e-19 0.0557159)
(-0.301596 -3.58512e-19 0.0656916)
(-0.403628 3.43405e-19 0.0845203)
(-0.452186 3.28336e-19 0.0924027)
(-0.53103 0 0.105817)
(-0.561297 -5.98611e-19 0.113837)
(-0.666874 5.70579e-19 0.126327)
(-0.571116 0 0.1182)
(-0.873539 2.56483e-19 0.169469)
(-0.581524 0 0.102696)
(-0.834148 0 0.174955)
(-0.841588 -4.4152e-19 0.154811)
(-0.735647 0 0.145074)
(-1.00304 0 0.195429)
(-0.767037 3.78511e-19 0.135763)
(-0.912032 7.08411e-19 0.200041)
(-1.23701 3.29337e-19 0.224332)
(-0.624054 0 0.106748)
(-1.20396 0 0.278733)
(-1.43259 0 0.231034)
(-0.508858 0 0.130017)
(-2.33067 4.81357e-19 0.483826)
(-1.20022 4.73348e-19 0.279166)
(-3.57314 0 0.842004)
(-3.91213 0 0.771414)
(-3.73786 0 0.569133)
(-0.457507 0 -0.0550951)
(32.6788 4.18371e-21 0.403347)
(32.9105 0 0.418567)
(33.1659 4.90129e-21 0.377188)
(33.4304 0 0.26319)
(33.6729 6.00423e-21 0.0771278)
(33.8621 0 -0.166296)
(33.9749 -6.29465e-21 -0.447944)
(33.9964 1.15389e-20 -0.749881)
(33.9174 2.35601e-20 -1.05695)
(33.7331 7.29369e-22 -1.35716)
(33.4431 0 -1.6415)
(33.0508 0 -1.90377)
(32.5628 0 -2.1401)
(31.9883 0 -2.34841)
(31.3383 0 -2.52797)
(30.6249 0 -2.67903)
(29.8604 1.46398e-20 -2.80261)
(29.0573 -1.35615e-20 -2.90031)
(28.227 1.27534e-20 -2.97411)
(27.3802 0 -3.02622)
(26.5259 0 -3.05898)
(25.672 9.724e-21 -3.07472)
(24.825 8.89283e-21 -3.07569)
(23.9901 8.1122e-21 -3.064)
(23.1713 0 -3.04158)
(22.3716 -1.34853e-20 -3.01018)
(21.5932 -2.42998e-20 -2.97132)
(20.8376 1.09195e-20 -2.92638)
(20.1056 0 -2.8765)
(19.3978 0 -2.82271)
(18.7143 0 -2.76586)
(18.0547 6.91314e-21 -2.70668)
(17.4189 0 -2.64579)
(16.8062 0 -2.58371)
(16.216 9.19319e-21 -2.52088)
(15.6475 7.88188e-21 -2.45766)
(15.1 0 -2.39434)
(14.5727 5.51521e-21 -2.33118)
(14.0647 -8.94397e-21 -2.26838)
(13.5751 -3.50811e-21 -2.2061)
(13.1032 2.62013e-21 -2.14448)
(12.6482 0 -2.08361)
(12.2092 0 -2.02359)
(11.7855 0 -1.96446)
(11.3763 -5.11064e-22 -1.90628)
(10.981 0 -1.84907)
(10.5987 2.71625e-21 -1.79286)
(10.2288 3.65509e-21 -1.73764)
(9.87076 0 -1.68343)
(9.52382 -5.30946e-21 -1.63021)
(9.18749 0 -1.57797)
(8.8611 0 -1.52668)
(8.54421 -1.43893e-20 -1.47634)
(8.23616 2.18736e-23 -1.4269)
(7.93661 1.62781e-20 -1.37836)
(7.64489 0 -1.33064)
(7.36075 0 -1.28378)
(7.08349 -1.83336e-20 -1.23766)
(6.81298 0 -1.19234)
(6.54847 3.84829e-20 -1.14768)
(6.28995 0 -1.10375)
(6.03662 0 -1.06041)
(5.7886 8.01711e-20 -1.01773)
(5.54501 8.07414e-20 -0.975558)
(5.30612 4.05321e-20 -0.933994)
(5.07095 0 -0.892848)
(4.83994 0 -0.852259)
(4.61202 4.0463e-20 -0.812014)
(4.38778 8.05343e-20 -0.772279)
(4.1661 0 -0.732826)
(3.94769 7.93412e-20 -0.693844)
(3.73141 -7.85263e-20 -0.655102)
(3.51809 7.75935e-20 -0.616802)
(3.30663 -7.65239e-20 -0.57873)
(3.09789 7.54097e-20 -0.541087)