/*--------------------------------*- C++ -*----------------------------------*\
| =========                 |                                                 |
| \\      /  F ield         | OpenFOAM: The Open Source CFD Toolbox           |
|  \\    /   O peration     | Version:  2412                                  |
|   \\  /    A nd           | Website:  www.openfoam.com                      |
|    \\/     M anipulation  |                                                 |
\*---------------------------------------------------------------------------*/
FoamFile
{
    version     2.0;
    format      ascii;
    arch        "LSB;label=32;scalar=64";
    class       surfaceScalarField;
    location    "1.13";
    object      phi_0;
}
// * * * * * * * * * * * * * * * * * * * * * * * * * * * * * * * * * * * * * //

dimensions      [0 3 -1 0 0 0 0];

oriented        oriented;

internalField   nonuniform List<scalar> 
24930
(
0.0158399
0.0210458
-0.0368771
0.00653071
0.0093092
0.00301506
0.00351564
0.00169512
0.00131995
0.00109527
0.000599849
0.000744198
0.00035107
0.000507626
0.000236565
0.000337635
0.000169983
0.00021122
0.000126408
0.000115378
9.58386e-05
4.08707e-05
7.45091e-05
-1.72099e-05
5.80854e-05
-6.28637e-05
4.56574e-05
-9.88274e-05
3.59627e-05
-0.000126375
2.75408e-05
-0.000148231
2.18451e-05
-0.000164565
1.63227e-05
-0.00017698
1.24101e-05
-0.000185657
8.68189e-06
-0.000191571
5.92039e-06
-0.000195
3.43036e-06
-0.000196345
1.34983e-06
-0.000196088
-2.33873e-07
-0.000194527
-1.53855e-06
-0.000191801
-2.74353e-06
-0.000188001
-3.81636e-06
-0.000183511
-4.48431e-06
-0.000178499
-5.03595e-06
-0.000173048
-5.45772e-06
-0.000167269
-5.77673e-06
-0.000161268
-5.99521e-06
-0.00015516
-6.1152e-06
-0.000148996
-6.17525e-06
-0.000142826
-6.17675e-06
-0.000136748
-6.08629e-06
-0.000130779
-5.97907e-06
-0.00012495
-5.83819e-06
-0.00011929
-5.66475e-06
-0.000113825
-5.46647e-06
-0.00010858
-5.24618e-06
-0.000103555
-5.02521e-06
-9.87383e-05
-4.81814e-06
-9.41283e-05
-4.61173e-06
-8.97179e-05
-4.41106e-06
-8.54852e-05
-4.2315e-06
-8.1457e-05
-4.02498e-06
-7.76495e-05
-3.80347e-06
-7.41218e-05
-3.52397e-06
-7.09366e-05
-3.18306e-06
-6.81711e-05
-2.76553e-06
-6.59047e-05
-2.26803e-06
-6.41988e-05
-1.70781e-06
-6.3086e-05
-1.11491e-06
-6.25453e-05
-5.44582e-07
-6.24507e-05
-9.96856e-08
-6.2558e-05
1.00705e-07
-6.24059e-05
-1.59016e-07
-6.12792e-05
-1.12853e-06
-5.81256e-05
-3.15382e-06
-5.16176e-05
-6.50876e-06
-4.02924e-05
-1.13263e-05
-2.29394e-05
-1.73546e-05
1.09015e-06
-2.40323e-05
3.06542e-05
-2.95688e-05
6.41216e-05
-3.34733e-05
9.73788e-05
-3.32635e-05
0.000125883
-2.85103e-05
0.000144997
-1.91205e-05
0.000151683
-6.69568e-06
0.000144096
7.57672e-06
0.000123567
2.05255e-05
9.20142e-05
3.15495e-05
5.34219e-05
3.85896e-05
1.04972e-05
4.29207e-05
-3.57162e-05
4.62101e-05
-8.47453e-05
4.90257e-05
-0.000132219
4.74713e-05
-0.000175179
4.29553e-05
-0.000211932
3.67484e-05
-0.000230229
1.83037e-05
-0.000222312
-7.91418e-06
-0.000191419
-3.08938e-05
-0.000146676
-4.47491e-05
-9.98137e-05
-4.68589e-05
-5.60415e-05
-4.37696e-05
-4.11975e-05
-1.48324e-05
-9.58077e-05
5.46218e-05
-0.000248978
0.000153177
-0.00052087
0.000271902
-0.00090313
0.000382246
-0.00138791
0.000484777
-0.00190292
0.000514984
-0.00205499
0.000152086
-0.00137298
-0.000682042
0.000421027
-0.00179398
0.000812424
-0.000391412
0.00132344
-0.000511063
0.00407194
-0.0027485
0.0034207
0.000651237
0.00111271
0.00230801
0.00063638
0.000476322
0.000182696
0.000453718
-0.000185361
0.000368007
-0.000393814
0.000208457
0.000426668
-0.000820477
0.00102578
-0.000599119
0.00107075
-4.4954e-05
0.00186814
-0.00079739
0.00209832
-0.000230152
0.00125826
0.000840062
-0.000866424
0.00212468
-0.00347673
0.0026103
-0.00537302
0.00189628
-0.00637073
0.000997701
-0.00670795
0.000337213
-0.00532367
-0.00138428
-0.00197221
-0.00335146
0.00141075
-0.00338295
0.00341675
-0.002006
-0.00028457
0.0334816
0.0299953
-0.0424311
0.022488
0.0203028
0.0142322
0.0117714
0.00915494
0.00639726
0.00617323
0.00358156
0.00434185
0.00218244
0.00312498
0.00145342
0.00226254
0.00103241
0.0016244
0.000764544
0.00113781
0.000582424
0.00076019
0.000452135
0.000462854
0.000355427
0.000227021
0.000281488
4.11718e-05
0.000221799
-0.000114214
0.000182908
-0.000238913
0.000146527
-0.000337247
0.000114651
-0.000415031
9.02003e-05
-0.000475213
6.88767e-05
-0.000521219
5.19452e-05
-0.00055518
3.74128e-05
-0.000578891
2.5072e-05
-0.000594203
1.50661e-05
-0.000602527
6.78135e-06
-0.000605037
-2.51109e-07
-0.000602668
-6.22361e-06
-0.000596179
-1.09436e-05
-0.000586469
-1.47398e-05
-0.000574115
-1.7821e-05
-0.00055966
-2.02458e-05
-0.000543611
-2.20587e-05
-0.000526417
-2.33287e-05
-0.000508385
-2.42274e-05
-0.0004898
-2.47794e-05
-0.000471022
-2.48801e-05
-0.000452221
-2.47922e-05
-0.000433559
-2.45081e-05
-0.000415197
-2.40284e-05
-0.000397266
-2.33953e-05
-0.000379877
-2.26306e-05
-0.000363072
-2.18255e-05
-0.000346838
-2.10466e-05
-0.000331195
-2.02492e-05
-0.000316139
-1.94604e-05
-0.000301627
-1.87368e-05
-0.000287736
-1.79094e-05
-0.000274547
-1.69885e-05
-0.000262256
-1.58153e-05
-0.00025109
-1.43527e-05
-0.000241319
-1.25431e-05
-0.000233226
-1.03685e-05
-0.000227029
-7.91262e-06
-0.000222837
-5.31112e-06
-0.000220566
-2.81687e-06
-0.000219797
-8.74339e-07
-0.000219637
-6.66947e-08
-0.000218481
-1.32143e-06
-0.000213821
-5.79288e-06
-0.000202034
-1.49487e-05
-0.000178555
-2.99951e-05
-0.000138402
-5.14892e-05
-7.74878e-05
-7.82798e-05
6.27026e-06
-0.000107804
0.00010898
-0.000132294
0.000225238
-0.000149747
0.000341369
-0.000149409
0.00044171
-0.000128863
0.000510653
-8.80702e-05
0.000536866
-3.2908e-05
0.000513724
3.07206e-05
0.000443855
9.03942e-05
0.000333081
0.000142319
0.00019311
0.000178558
3.32542e-05
0.000202772
-0.000138891
0.000218353
-0.000316506
0.000226636
-0.000480466
0.000211421
-0.000621825
0.000184301
-0.000735278
0.000150177
-0.000782939
6.59401e-05
-0.000745021
-4.5858e-05
-0.000632702
-0.000143217
-0.000478803
-0.000198651
-0.000325972
-0.00019967
-0.000196446
-0.00017328
-0.000171985
-3.92711e-05
-0.000390339
0.000272996
-0.000950402
0.000713234
-0.00189743
0.00121894
-0.00318136
0.00166615
-0.00476588
0.00206929
-0.00635701
0.00210607
-0.00674251
0.000537605
-0.00442541
-0.00299919
0.00159479
-0.00781421
0.00310567
-0.00190232
0.00470047
-0.0021059
0.013165
-0.011213
0.0115161
0.00230017
0.00434852
0.00947563
0.00223402
0.00259076
0.000629858
0.00205792
-0.000696064
0.00169388
-0.00110789
0.000620276
0.00166599
-0.00359436
0.00347197
-0.00240512
0.00369182
-0.000264813
0.00610534
-0.00321093
0.00655847
-0.000683285
0.00287753
0.00452099
-0.00478968
0.0097919
-0.0133922
0.0112128
-0.0191479
0.00765195
-0.0217716
0.00362145
-0.0223034
0.000869055
-0.0177445
-0.00594321
-0.00723445
-0.0138615
0.00409241
-0.0147098
0.0113704
-0.00928396
-0.00173552
0.0432604
0.0322823
-0.0455474
0.0359458
0.0276174
0.0273462
0.020371
0.0199218
0.0138216
0.0144206
0.0090828
0.0105662
0.00603679
0.0078564
0.00416321
0.00589408
0.00299472
0.00442601
0.00223261
0.00329843
0.00171001
0.00241491
0.00133566
0.00171265
0.00105769
0.00114866
0.000845476
0.000692499
0.000677948
0.000323972
0.000551419
2.652e-05
0.000443966
-0.000219682
0.00036085
-0.000417731
0.000288257
-0.000576067
0.000227222
-0.000701703
0.000177595
-0.000799733
0.000135464
-0.000874515
9.98643e-05
-0.000929803
7.03279e-05
-0.000968338
4.53043e-05
-0.000992683
2.40977e-05
-0.00100549
6.54603e-06
-0.00100875
-7.66044e-06
-0.00100426
-1.92335e-05
-0.000992945
-2.91554e-05
-0.0009762
-3.70135e-05
-0.000955155
-4.3122e-05
-0.000930786
-4.77156e-05
-0.000903835
-5.11974e-05
-0.000874968
-5.36647e-05
-0.00084494
-5.49255e-05
-0.000814197
-5.55495e-05
-0.000783121
-5.55923e-05
-0.00075209
-5.50612e-05
-0.000721415
-5.40687e-05
-0.000691358
-5.26836e-05
-0.000662054
-5.11256e-05
-0.000633533
-4.95632e-05
-0.000605868
-4.79096e-05
-0.000579086
-4.62355e-05
-0.000553148
-4.46681e-05
-0.000528197
-4.28532e-05
-0.000504405
-4.07763e-05
-0.000482123
-3.80969e-05
-0.00046178
-3.46996e-05
-0.000443867
-3.04619e-05
-0.000428907
-2.53366e-05
-0.0004173
-1.95285e-05
-0.00040924
-1.33765e-05
-0.000404589
-7.47109e-06
-0.000402534
-2.9312e-06
-0.00040147
-1.13405e-06
-0.000398479
-4.31374e-06
-0.000388998
-1.52808e-05
-0.000366502
-3.74523e-05
-0.000322857
-7.36464e-05
-0.000249268
-0.000125088
-0.000138533
-0.000189026
1.26608e-05
-0.000259011
0.000199183
-0.000318832
0.000409667
-0.00036025
0.000620661
-0.000360419
0.000804438
-0.000312651
0.000933258
-0.000216898
0.000985743
-8.53958e-05
0.00094901
6.74502e-05
0.000825531
0.000213871
0.000623973
0.000343872
0.000363133
0.000439393
6.06923e-05
0.000505208
-0.000266797
0.000545839
-0.000598441
0.000558274
-0.000893993
0.00050696
-0.00113802
0.00042831
-0.00132403
0.00033616
-0.00139038
0.000132279
-0.00130906
-0.000127207
-0.00110095
-0.000351327
-0.000826691
-0.000472915
-0.000566954
-0.000459388
-0.000363963
-0.000376254
-0.000358531
-4.46791e-05
-0.000794601
0.00070909
-0.00184484
0.00176347
-0.00355933
0.00293343
-0.00581539
0.00392216
-0.00852393
0.00477783
-0.0111445
0.00472657
-0.011627
0.00102011
-0.00760906
-0.00701713
0.00302157
-0.0184449
0.00598449
-0.00486528
0.0083189
-0.00444036
0.0225637
-0.0254578
0.0205373
0.0043265
0.00856725
0.0214458
0.00423622
0.00692172
0.00114533
0.00514886
-0.0012711
0.00411025
-0.00174047
0.00108964
0.00323833
-0.00857316
0.00623868
-0.00540548
0.00662905
-0.000655181
0.0105533
-0.00713515
0.0107425
-0.000872516
0.00328799
0.0119755
-0.0108936
0.0239735
-0.0257802
0.0260994
-0.0348912
0.0167629
-0.0384769
0.00720718
-0.0386668
0.00105899
-0.0306235
-0.0139866
-0.012984
-0.031501
0.00639373
-0.0340875
0.0196235
-0.0225137
-0.00491647
0.0490823
0.0317834
-0.0485834
0.0458216
0.0308781
0.0395096
0.026683
0.0321247
0.0212066
0.0252369
0.0159705
0.019547
0.0117267
0.0151073
0.00860292
0.0116962
0.00640578
0.00906003
0.00486875
0.00699597
0.00377407
0.00535766
0.00297397
0.00404194
0.00237341
0.00297544
0.00191198
0.00210493
0.00154845
0.00139303
0.0012633
0.000807921
0.00102906
0.000328306
0.000840461
-6.40131e-05
0.000680578
-0.000387411
0.000550623
-0.000648748
0.000438942
-0.000858415
0.000345155
-0.00102429
0.000265762
-0.00115331
0.00019933
-0.00125092
0.000142918
-0.00132238
9.55747e-05
-0.0013715
5.56499e-05
-0.00140126
2.20872e-05
-0.00141506
-5.43944e-06
-0.00141693
-2.73166e-05
-0.00140763
-4.63404e-05
-0.00138935
-6.14128e-05
-0.00136399
-7.3097e-05
-0.00133294
-8.22602e-05
-0.00129746
-8.91642e-05
-0.00125888
-9.35229e-05
-0.00121809
-9.63546e-05
-0.00117582
-9.78679e-05
-0.00113279
-9.80989e-05
-0.00108958
-9.72786e-05
-0.00104669
-9.55644e-05
-0.00100444
-9.33767e-05
-0.000962943
-9.10541e-05
-0.000922381
-8.84677e-05
-0.000882854
-8.57562e-05
-0.000844355
-8.31612e-05
-0.00080712
-8.00805e-05
-0.000771442
-7.64505e-05
-0.000737858
-7.16806e-05
-0.000707034
-6.55272e-05
-0.000679724
-5.77783e-05
-0.000656726
-4.83427e-05
-0.000638655
-3.76081e-05
-0.000625809
-2.62287e-05
-0.000617953
-1.5331e-05
-0.000613922
-6.964e-06
-0.000611186
-3.86774e-06
-0.000605418
-1.00836e-05
-0.000589686
-3.10204e-05
-0.000554293
-7.2853e-05
-0.000487134
-0.000140813
-0.000375249
-0.000236981
-0.000208059
-0.000356228
1.91961e-05
-0.00048628
0.000299638
-0.000599291
0.000616276
-0.000676906
0.00093521
-0.00067937
0.00121561
-0.000593068
0.00141621
-0.000417499
0.0015038
-0.000172989
0.00145724
0.000113999
0.00127704
0.00039407
0.000973374
0.000647533
0.000571384
0.000841379
9.81182e-05
0.000978468
-0.000415631
0.00105958
-0.000927605
0.00107024
-0.00137015
0.000949491
-0.00172098
0.000779128
-0.00197532
0.000590475
-0.00205009
0.000207031
-0.00191245
-0.000264875
-0.00159517
-0.000668612
-0.00119128
-0.000876805
-0.000827736
-0.000822911
-0.000570127
-0.000633845
-0.000619287
4.50537e-06
-0.00133452
0.00142435
-0.00296139
0.00339033
-0.00553027
0.00550232
-0.00881669
0.00720855
-0.0126519
0.00861304
-0.0162041
0.00827875
-0.0165944
0.00141035
-0.0108674
-0.0127442
0.0046718
-0.0339841
0.00945851
-0.00965202
0.0119031
-0.00688503
0.0319005
-0.0454551
0.0305669
0.00566017
0.0139484
0.0380643
0.00678768
0.0140824
0.00176324
0.0101733
-0.0018758
0.00774923
-0.00226212
0.00147595
0.00511516
-0.0159504
0.00935291
-0.00964323
0.00988304
-0.00118532
0.0151124
-0.0123645
0.0144638
-0.000223885
0.00206114
0.0243781
-0.0194635
0.0454981
-0.0404502
0.0470862
-0.0520914
0.0284041
-0.055852
0.0109678
-0.0551184
0.000325445
-0.0432189
-0.025886
-0.0186317
-0.0560882
0.00821908
-0.0609382
0.0276895
-0.0419841
-0.0104467
0.0529091
0.0306371
-0.0517628
0.0523194
0.0314678
0.0489739
0.0300284
0.0434676
0.0267129
0.0369769
0.0224612
0.0305505
0.0181531
0.0248012
0.0143522
0.0199413
0.0112656
0.0159439
0.00886618
0.012686
0.00703199
0.0100304
0.00562951
0.00785747
0.00454637
0.00607088
0.00369857
0.00459536
0.00302397
0.00337433
0.00248431
0.00236084
0.00204254
0.00152016
0.00168112
0.000822628
0.00137812
0.000246606
0.00112665
-0.000228064
0.000913622
-0.000617071
0.000734189
-0.000931997
0.000580717
-0.0011842
0.000451535
-0.00138283
0.00034155
-0.00153592
0.00024868
-0.00165051
0.00017022
-0.00173313
0.000104669
-0.0017885
4.99194e-05
-0.00181858
2.73207e-06
-0.00183153
-3.34142e-05
-0.00182843
-6.45309e-05
-0.00181195
-8.95848e-05
-0.00178477
-0.000109465
-0.00174897
-0.000124976
-0.00170674
-0.000135772
-0.00165963
-0.000143478
-0.00160892
-0.00014859
-0.00155579
-0.000151223
-0.00150128
-0.00015179
-0.00144624
-0.000150599
-0.00139126
-0.000148361
-0.00133663
-0.000145675
-0.00128271
-0.000142383
-0.00122974
-0.000138723
-0.00117778
-0.000135112
-0.00112722
-0.000130643
-0.00107848
-0.00012518
-0.00103235
-0.000117811
-0.00098977
-0.000108112
-0.000951799
-9.57563e-05
-0.000919555
-8.05945e-05
-0.000893907
-6.32651e-05
-0.000875269
-4.48726e-05
-0.000863315
-2.72901e-05
-0.000856381
-1.39025e-05
-0.00085107
-9.17969e-06
-0.000841299
-1.98606e-05
-0.000817632
-5.46951e-05
-0.000766868
-0.000123624
-0.000672675
-0.000235014
-0.000517634
-0.000392031
-0.000287531
-0.000586344
2.4048e-05
-0.000797875
0.000408351
-0.000983613
0.000842936
-0.00111151
0.00128302
-0.00111947
0.00167394
-0.000983999
0.00195961
-0.000703183
0.00209319
-0.000306573
0.00204298
0.000164208
0.00180531
0.000631736
0.00138964
0.00106319
0.00082631
0.00140471
0.000152956
0.00165182
-0.000579918
0.00179245
-0.00129974
0.00179005
-0.00190423
0.00155397
-0.00236407
0.00123895
-0.00268059
0.000906975
-0.0027526
0.000279023
-0.00254634
-0.000471168
-0.0021086
-0.00110635
-0.00156978
-0.00141563
-0.00111219
-0.00128048
-0.000827279
-0.000918741
-0.000976488
0.000153742
-0.00204098
0.00248887
-0.00433346
0.0056828
-0.00783322
0.00900209
-0.0121793
0.0115545
-0.017091
0.0135248
-0.0214222
0.0126099
-0.021472
0.00146019
-0.0141004
-0.0201158
0.00648035
-0.0545649
0.0134966
-0.0166683
0.0152012
-0.0085897
0.040778
-0.0710319
0.0415357
0.00490245
0.0206606
0.0589396
0.0100641
0.0246788
0.00256366
0.0176739
-0.00246932
0.0127821
-0.00268654
0.00169317
0.00725841
-0.0258954
0.0128368
-0.0152216
0.0134791
-0.00182766
0.0196981
-0.0185835
0.0174287
0.00204553
-0.000986885
0.0427937
-0.0305209
0.0750321
-0.0570642
0.0736295
-0.0700321
0.0413719
-0.0731753
0.014111
-0.0710379
-0.00181195
-0.0549215
-0.0420024
-0.0236363
-0.0873734
0.00953626
-0.0941108
0.0350643
-0.0675122
-0.019025
0.0560693
0.0296715
-0.0551036
0.0566438
0.0308934
0.0556015
0.0310707
0.0525223
0.0297921
0.0477498
0.0272337
0.0420044
0.0238985
0.036008
0.0203486
0.0302876
0.016986
0.0251331
0.0140207
0.0206458
0.0115193
0.0168139
0.00946142
0.0135729
0.00778733
0.0108431
0.00642839
0.00854682
0.00532026
0.00661712
0.00441401
0.00499511
0.00366454
0.00363342
0.0030428
0.00249111
0.00252042
0.00153588
0.00208188
0.000739635
0.00170988
8.01177e-05
0.00139373
-0.00046477
0.00112563
-0.000909631
0.000896408
-0.00126893
0.00070084
-0.00155511
0.000534864
-0.00177883
0.000393928
-0.00194918
0.000274972
-0.00207455
0.000175267
-0.0021642
9.23533e-05
-0.0022184
2.07597e-05
-0.00224748
-3.54639e-05
-0.00225529
-8.17828e-05
-0.00224414
-0.000120633
-0.00221785
-0.000151284
-0.00217982
-0.000173816
-0.00213258
-0.00019073
-0.00207819
-0.000202986
-0.00201857
-0.000210847
-0.00195535
-0.000215008
-0.00188994
-0.000216011
-0.00182332
-0.000214973
-0.00175612
-0.000212874
-0.00168894
-0.00020956
-0.00162225
-0.000205407
-0.00155627
-0.000201093
-0.00149155
-0.000195353
-0.00142876
-0.000187967
-0.00136894
-0.00017763
-0.00131338
-0.000163683
-0.00126348
-0.000145659
-0.00122074
-0.000123341
-0.00118632
-9.76935e-05
-0.00116078
-7.04258e-05
-0.00114367
-4.43969e-05
-0.00113285
-2.47346e-05
-0.0011238
-1.82316e-05
-0.00110866
-3.50042e-05
-0.00107519
-8.81776e-05
-0.00100647
-0.000192355
-0.000881652
-0.000359837
-0.000678647
-0.000595047
-0.00037942
-0.000885584
2.43762e-05
-0.00120169
0.000521904
-0.00148116
0.0010858
-0.00167543
0.00166031
-0.001694
0.00217649
-0.00150019
0.00256232
-0.00108902
0.00275539
-0.000499653
0.00271066
0.000208934
0.00241755
0.000924841
0.00188224
0.0015985
0.00113852
0.00214842
0.000235664
0.00255466
-0.000750147
0.00277826
-0.00170595
0.00274584
-0.00248724
0.00233525
-0.00305784
0.00180953
-0.0034305
0.00127961
-0.00348997
0.000338476
-0.00320514
-0.000756026
-0.00263862
-0.00167287
-0.00196364
-0.00209062
-0.00142801
-0.00181608
-0.0011515
-0.00119523
-0.00145482
0.000457087
-0.00294444
0.00397852
-0.00598903
0.00872738
-0.010479
0.0134921
-0.0158811
0.0169565
-0.0217754
0.0194192
-0.0266696
0.017504
-0.0261062
0.000896743
-0.0171479
-0.0290741
0.00837415
-0.0800869
0.0179499
-0.0262442
0.0180152
-0.00865501
0.0487793
-0.101796
0.0533103
0.0003714
0.0288418
0.0834082
0.0142713
0.0392492
0.00365206
0.0282931
-0.00299459
0.0194287
-0.00302448
0.00172305
0.0095768
-0.0384967
0.0166913
-0.0223362
0.0174279
-0.00256425
0.024185
-0.0253406
0.0194061
0.00682446
-0.0060642
0.068264
-0.0440099
0.112978
-0.0749925
0.104612
-0.0878683
0.0542478
-0.0897414
0.0159841
-0.0858889
-0.00566444
-0.0653458
-0.0625455
-0.0276886
-0.125031
0.01026
-0.132059
0.0412422
-0.0984944
-0.0313551
0.0593416
0.0289989
-0.0586689
0.0601314
0.0301035
0.0602942
0.0309079
0.0591446
0.0309417
0.0564238
0.0299545
0.0523047
0.0280176
0.0472174
0.0254358
0.0416577
0.0225457
0.0360568
0.0196216
0.0307245
0.0168516
0.025843
0.0143429
0.0214911
0.0121392
0.0176779
0.0102416
0.0143733
0.0086249
0.0115306
0.00725663
0.00909694
0.00609823
0.00702174
0.005118
0.0052576
0.00428457
0.00376366
0.00357583
0.00250317
0.00297038
0.00144466
0.00245226
0.000561091
0.00200922
-0.000171382
0.00162889
-0.000774326
0.00130378
-0.00126493
0.00102546
-0.00165913
0.000788123
-0.00197066
0.00058646
-0.00221141
0.00041599
-0.00239154
0.000272462
-0.00252426
0.000153462
-0.00261182
5.2084e-05
-0.00266278
-3.08385e-05
-0.00268676
-9.66648e-05
-0.00268492
-0.000153138
-0.00266316
-0.000195595
-0.00262548
-0.000228422
-0.00257512
-0.000253353
-0.002515
-0.000270967
-0.00244766
-0.000282347
-0.00237528
-0.000288395
-0.00229946
-0.000290783
-0.0022213
-0.000291031
-0.00214182
-0.000289047
-0.00206182
-0.000285396
-0.00198178
-0.000281134
-0.00190251
-0.000274608
-0.00182498
-0.000265501
-0.00175055
-0.000252055
-0.00168092
-0.000233319
-0.00161792
-0.000208673
-0.00156345
-0.000177814
-0.00151903
-0.000142125
-0.00148537
-0.000104094
-0.00146194
-6.78315e-05
-0.00144601
-4.06696e-05
-0.00143194
-3.23106e-05
-0.00140985
-5.71024e-05
-0.00136457
-0.000133464
-0.00127524
-0.000281693
-0.00111633
-0.000518754
-0.000860901
-0.000850484
-0.000486969
-0.00125953
1.6246e-05
-0.00170492
0.00063523
-0.00210016
0.00133896
-0.00237919
0.00206084
-0.00241589
0.00271753
-0.00215689
0.00322019
-0.0015917
0.00348901
-0.000768472
0.00346263
0.000235303
0.00312023
0.00126724
0.0024612
0.00225753
0.00152056
0.00308906
0.000359835
0.00371538
-0.000912833
0.00405092
-0.00213301
0.00396601
-0.00310608
0.00330831
-0.00378949
0.00249292
-0.0042132
0.00170328
-0.0042523
0.000377557
-0.00388201
-0.00112634
-0.0031822
-0.00237267
-0.00237482
-0.002898
-0.00178425
-0.00240663
-0.00156079
-0.00141867
-0.00208087
0.000977201
-0.00407527
0.00597295
-0.00795051
0.0126026
-0.0134648
0.0190064
-0.019877
0.0233687
-0.0266063
0.0261485
-0.0318075
0.0227052
-0.0303467
-0.000563998
-0.0197898
-0.0396311
0.010257
-0.110134
0.0224908
-0.038478
0.0202483
-0.00641258
0.0556588
-0.137206
0.0656396
-0.00960936
0.0385784
0.11047
0.0196431
0.0581844
0.00517299
0.0427633
-0.0033768
0.0279784
-0.00331297
0.00165921
0.0119544
-0.0537641
0.0209092
-0.031291
0.0217335
-0.0033886
0.0284421
-0.0320492
0.0200991
0.0151674
-0.0134362
0.101799
-0.0596613
0.159203
-0.0934671
0.138418
-0.10479
0.0655707
-0.105043
0.0162371
-0.0994233
-0.0112841
-0.0745469
-0.0874218
-0.0308937
-0.168684
0.0102644
-0.173217
0.0458668
-0.134097
-0.0480657
0.0629815
0.0285086
-0.0624913
0.0636291
0.0294559
0.0641562
0.0303808
0.0640759
0.031022
0.0629618
0.0310685
0.060614
0.0303654
0.0570864
0.0289634
0.0526128
0.0270194
0.0475141
0.0247203
0.0421231
0.0222426
0.0367313
0.0197347
0.0315608
0.0173097
0.0267575
0.0150449
0.0223989
0.0129835
0.018512
0.0111435
0.0150889
0.0095213
0.012103
0.00810388
0.00951732
0.0068703
0.00729245
0.0058007
0.00538881
0.00487401
0.00376925
0.00407184
0.00239967
0.0033788
0.00124876
0.00277982
0.000288843
0.0022637
-0.000505132
0.00181942
-0.00115541
0.0014384
-0.00168158
0.0011126
-0.00210098
0.000835365
-0.00242891
0.000600375
-0.00267853
0.000403058
-0.00286419
0.000237735
-0.00299532
0.000100287
-0.00307503
-1.69724e-05
-0.00312089
-0.000107295
-0.0031336
-0.000182896
-0.00312024
-0.000241798
-0.00308573
-0.000287863
-0.00303455
-0.000322155
-0.00297048
-0.000346409
-0.00289684
-0.000362038
-0.00281615
-0.000371471
-0.00273019
-0.000376988
-0.00264059
-0.000378647
-0.00254871
-0.000377271
-0.00245537
-0.000374465
-0.00236181
-0.000368164
-0.00226933
-0.000357974
-0.00217976
-0.000341626
-0.00209525
-0.000317835
-0.00201813
-0.000285808
-0.00195079
-0.000245157
-0.00189515
-0.000197776
-0.00185212
-0.000147134
-0.00182108
-9.88786e-05
-0.00179871
-6.30456e-05
-0.00177812
-5.29034e-05
-0.00174736
-8.78706e-05
-0.00168817
-0.000192664
-0.00157563
-0.000394241
-0.00137943
-0.000714958
-0.00106773
-0.0011622
-0.000614465
-0.00171281
-5.54609e-06
-0.00231386
0.00074132
-0.00284705
0.00159409
-0.00323198
0.0024755
-0.00329732
0.0032882
-0.00296961
0.00392595
-0.00222946
0.00428996
-0.00113249
0.00429912
0.000226146
0.00391855
0.0016478
0.00313677
0.0030393
0.00198683
0.00423899
0.000542501
0.0051597
-0.00104996
0.00564338
-0.0025629
0.00547894
-0.00374365
0.00448904
-0.0045439
0.00329316
-0.00501659
0.00217594
-0.00503153
0.00039248
-0.00457306
-0.00158485
-0.00373953
-0.00320621
-0.00280835
-0.00382919
-0.00219245
-0.00302249
-0.00207472
-0.00153638
-0.00288118
0.00178369
-0.00546008
0.00855188
-0.0102304
0.0173729
-0.0167706
0.0255466
-0.0241017
0.0306997
-0.0314761
0.0335229
-0.0367028
0.0279318
-0.0341158
-0.00315099
-0.0218258
-0.0519212
0.0119317
-0.143891
0.0265633
-0.0531096
0.0218829
-0.00173216
0.0613211
-0.176645
0.0781825
-0.0264708
0.0498952
0.138757
0.0264288
0.0816508
0.00730946
0.0618827
-0.00351783
0.0388057
-0.00358564
0.00172701
0.0142531
-0.0716028
0.0254657
-0.0425036
0.0263778
-0.00430063
0.0323045
-0.0379759
0.0192554
0.0282165
-0.0232106
0.144265
-0.0770544
0.213047
-0.111635
0.172998
-0.120187
0.0741227
-0.11882
0.0148702
-0.111651
-0.0184533
-0.0830037
-0.116069
-0.033845
-0.217843
0.00932672
-0.216389
0.0487687
-0.173539
-0.0695789
0.0669751
0.0281077
-0.0665743
0.0674554
0.0289756
0.0679635
0.0298727
0.0682741
0.0307114
0.068068
0.0312745
0.0670546
0.0313788
0.0650647
0.0309533
0.062073
0.030011
0.0581789
0.0286143
0.053569
0.0268525
0.0484769
0.0248268
0.0431474
0.0226392
0.0378068
0.0203855
0.032641
0.0181493
0.0277854
0.0159991
0.0233236
0.0139831
0.0192965
0.012131
0.0157122
0.0104547
0.0125579
0.00895501
0.00980786
0.00762402
0.00742994
0.00644977
0.00538949
0.00541926
0.00365135
0.00451797
0.00218192
0.00373313
0.000949443
0.00305189
-7.52649e-05
0.0024631
-0.000918889
0.0019562
-0.00160544
0.0015219
-0.00215651
0.00115143
-0.00259155
0.000838081
-0.00292684
0.000573021
-0.00317832
0.000351757
-0.00336433
0.000169023
-0.00348166
1.00204e-05
-0.00355609
-0.000108485
-0.00358901
-0.000208888
-0.00358813
-0.000288757
-0.00356016
-0.000350125
-0.00351081
-0.000395759
-0.00344492
-0.000427917
-0.00336638
-0.000450011
-0.00327799
-0.000465377
-0.00318227
-0.000474365
-0.00308139
-0.000478153
-0.00297672
-0.000479128
-0.00287005
-0.000474828
-0.0027632
-0.000464824
-0.00265852
-0.0004463
-0.00255876
-0.000417605
-0.0024668
-0.000377774
-0.00238564
-0.000326331
-0.00231763
-0.000265788
-0.00226396
-0.000200817
-0.00222393
-0.00013891
-0.00219364
-9.33417e-05
-0.00216493
-8.16241e-05
-0.00212367
-0.00012913
-0.00204849
-0.000267852
-0.00191037
-0.000532372
-0.00167424
-0.0009511
-0.00130333
-0.00153312
-0.000767492
-0.00224866
-5.08763e-05
-0.00303049
0.000830937
-0.00372889
0.00184014
-0.0042412
0.00289204
-0.00434924
0.00387607
-0.00395365
0.00466852
-0.00302192
0.00514988
-0.00161385
0.00521685
0.000159165
0.00481566
0.00204898
0.00391875
0.0039362
0.00255327
0.00560446
0.000804153
0.00690881
-0.00113881
0.00758634
-0.00297281
0.00731292
-0.00437933
0.00589554
-0.00530444
0.00421825
-0.00582902
0.00270048
-0.00582119
0.000384621
-0.00527662
-0.00212944
-0.00431317
-0.00416966
-0.00327127
-0.0048711
-0.00266546
-0.00362827
-0.00271299
-0.00148882
-0.00388017
0.0029509
-0.00711911
0.0117909
-0.0128282
0.023082
-0.0203583
0.0330767
-0.0284723
0.0388137
-0.0362705
0.0413211
-0.0412653
0.0329265
-0.0374008
-0.00701541
-0.0232235
-0.0660986
0.0129762
-0.180091
0.0294224
-0.0695559
0.0228567
0.00483349
0.0656464
-0.219434
0.0904788
-0.0513032
0.0627357
0.1665
0.0348775
0.109509
0.0102848
0.0864755
-0.00329554
0.0523859
-0.00385605
0.00228752
0.0163525
-0.0918114
0.0303298
-0.0564809
0.0313216
-0.00529238
0.0355915
-0.0422458
0.0166277
0.0471804
-0.0353796
0.196273
-0.0956296
0.273297
-0.128776
0.206144
-0.133824
0.0791708
-0.131125
0.0121717
-0.122835
-0.026744
-0.0914996
-0.147404
-0.0374536
-0.271889
0.0071979
-0.261041
0.0499721
-0.216313
-0.096065
0.0712807
0.0277555
-0.0709284
0.0716585
0.0285979
0.0720685
0.0294627
0.0724336
0.0303462
0.0725894
0.0311188
0.0723224
0.0316457
0.0714298
0.0318459
0.0697633
0.0316775
0.0672521
0.0311255
0.0639061
0.0301986
0.0598069
0.028926
0.0550942
0.0273519
0.0499483
0.0255314
0.044569
0.0235286
0.0391536
0.0214145
0.0338754
0.0192612
0.0288703
0.0171361
0.024231
0.015094
0.0200108
0.0131752
0.0162305
0.0114044
0.0128874
0.00979285
0.00996361
0.00834305
0.00743142
0.00705016
0.00525834
0.00590621
0.00340971
0.00490051
0.00185095
0.00402185
0.000548657
0.00325848
-0.00052833
0.00259887
-0.0014092
0.00203228
-0.00212067
0.00154954
-0.00268597
0.00113832
-0.00312634
0.000792121
-0.00345971
0.000502389
-0.00371153
0.000261817
-0.0038799
5.98749e-05
-0.0039894
-9.94035e-05
-0.00404889
-0.00022928
-0.00406549
-0.000333519
-0.00404801
-0.000413245
-0.00400364
-0.000472277
-0.00393818
-0.000515479
-0.0038559
-0.000547649
-0.00376065
-0.000569615
-0.00365576
-0.000583045
-0.00354343
-0.000591445
-0.00342624
-0.000592012
-0.00330669
-0.000584372
-0.00318784
-0.000565156
-0.00307311
-0.000532339
-0.00296609
-0.000484799
-0.00287046
-0.000421978
-0.00278913
-0.000347125
-0.0027236
-0.000266355
-0.00267319
-0.000189328
-0.00263342
-0.000133115
-0.00259487
-0.000120172
-0.0025413
-0.000182711
-0.00244821
-0.000360953
-0.00228257
-0.000698018
-0.00200469
-0.001229
-0.00157298
-0.00196484
-0.000953095
-0.00286856
-0.00012657
-0.00385704
0.000892405
-0.00474788
0.0020631
-0.00541192
0.0032947
-0.00558086
0.00446475
-0.00512371
0.00543238
-0.00398957
0.00605735
-0.00223882
0.00620894
7.56062e-06
0.00581188
0.00244604
0.00481568
0.00493239
0.00323674
0.0071834
0.0011684
0.00897714
-0.00115211
0.00990684
-0.00333552
0.00949632
-0.00498988
0.00754988
-0.00605436
0.00528271
-0.00664083
0.00328691
-0.00661821
0.000361975
-0.0059946
-0.00275308
-0.00490867
-0.00525559
-0.00377256
-0.00600721
-0.0032162
-0.00418459
-0.00349334
-0.00121166
-0.00509754
0.00455513
-0.00906308
0.0157564
-0.0157285
0.0297474
-0.0241729
0.041521
-0.0328969
0.0475377
-0.0408915
0.0493157
-0.0454387
0.0374737
-0.0402928
-0.0121613
-0.0242498
-0.0821417
0.012688
-0.217029
0.0303001
-0.087168
0.0229271
0.0122065
0.068284
-0.264791
0.101976
-0.0849957
0.0769463
0.19153
0.0452197
0.141235
0.0143606
0.117335
-0.0025639
0.0693103
-0.00408225
0.00380586
0.0181906
-0.114084
0.0354647
-0.0737551
0.0364995
-0.00632714
0.0380922
-0.0438385
0.0120265
0.0732461
-0.0498524
0.258151
-0.11477
0.338214
-0.144466
0.23584
-0.145915
0.0806202
-0.142167
0.00842352
-0.133277
-0.0356338
-0.100813
-0.179868
-0.0426136
-0.330088
0.00368095
-0.307335
0.0495531
-0.262185
-0.1275
0.0758987
0.0274366
-0.0755799
0.0762224
0.0282742
0.0765577
0.0291275
0.0768798
0.0300241
0.0771198
0.0308787
0.0771644
0.0316012
0.0768721
0.0321382
0.0760972
0.0324524
0.0747126
0.0325101
0.0726263
0.0322849
0.0697915
0.0317609
0.0662118
0.0309316
0.0619439
0.0297994
0.057095
0.0283775
0.0518159
0.0266936
0.0462854
0.0247917
0.0406904
0.022731
0.0352041
0.0205803
0.0299696
0.0184097
0.0250912
0.0162828
0.0206338
0.0142502
0.0166288
0.012348
0.0130812
0.0105978
0.00997768
0.00900978
0.00729263
0.00758555
0.0049936
0.00632087
0.00304459
0.00520748
0.00140861
0.00423484
4.88267e-05
0.00339206
-0.0010663
0.00266467
-0.00197179
0.0020438
-0.00269576
0.00151608
-0.00326469
0.0010713
-0.00370008
0.000697186
-0.00402985
0.000389636
-0.00426276
0.000133491
-0.00441654
-7.55116e-05
-0.00451025
-0.000239807
-0.00455034
-0.000373154
-0.00454816
-0.000474463
-0.00451229
-0.000551347
-0.00444928
-0.000610653
-0.00436483
-0.000654062
-0.00426398
-0.000683892
-0.00415018
-0.000705245
-0.00402708
-0.000715109
-0.00389813
-0.000713315
-0.0037673
-0.000695988
-0.00363889
-0.00066075
-0.00351733
-0.000606376
-0.00340708
-0.000532233
-0.00331178
-0.000442434
-0.00323334
-0.000344803
-0.00317118
-0.000251488
-0.00312037
-0.000183935
-0.00307031
-0.000170238
-0.0030027
-0.000250321
-0.00289013
-0.000473535
-0.00269576
-0.000892398
-0.0023755