/*--------------------------------*- C++ -*----------------------------------*\
| =========                 |                                                 |
| \\      /  F ield         | OpenFOAM: The Open Source CFD Toolbox           |
|  \\    /   O peration     | Version:  2412                                  |
|   \\  /    A nd           | Website:  www.openfoam.com                      |
|    \\/     M anipulation  |                                                 |
\*---------------------------------------------------------------------------*/
FoamFile
{
    version     2.0;
    format      ascii;
    arch        "LSB;label=32;scalar=64";
    class       volVectorField;
    location    "1.13";
    object      U_0;
}
// * * * * * * * * * * * * * * * * * * * * * * * * * * * * * * * * * * * * * //

dimensions      [0 1 -1 0 0 0 0];

internalField   nonuniform List<vector> 
12600
(
(19.4742 0 -0.690364)
(7.89356 -3.78094e-20 -1.63672)
(3.34104 -1.75618e-20 -1.6848)
(1.69738 0 -1.24211)
(1.06745 -2.19748e-22 -0.827115)
(0.731862 0 -0.560035)
(0.507093 -3.04932e-20 -0.389713)
(0.344786 0 -0.272846)
(0.224 0 -0.187787)
(0.132506 0 -0.12383)
(0.061455 0 -0.0757986)
(0.00597064 -9.7753e-20 -0.0384096)
(-0.0373873 -9.99424e-20 -0.00887293)
(-0.0715253 0 0.0147818)
(-0.0982947 2.02919e-19 0.032865)
(-0.118673 0 0.0474769)
(-0.134382 2.91936e-22 0.0589986)
(-0.146004 0 0.0678744)
(-0.154486 9.81643e-20 0.0745471)
(-0.160107 0 0.0794145)
(-0.163567 0 0.0828048)
(-0.165041 0 0.0849112)
(-0.164919 3.61239e-19 0.0860049)
(-0.163527 -3.5171e-19 0.0862924)
(-0.161066 -1.81178e-22 0.0859152)
(-0.157707 1.66047e-19 0.0849331)
(-0.153696 0 0.0833396)
(-0.149169 0 0.0813933)
(-0.144258 0 0.0791625)
(-0.139069 -2.91481e-19 0.0766828)
(-0.133681 -5.62825e-19 0.0740402)
(-0.128193 0 0.0712741)
(-0.122677 0 0.0684309)
(-0.117159 -2.52157e-19 0.065541)
(-0.111713 -2.42776e-19 0.0626507)
(-0.106388 0 0.0597924)
(-0.101186 0 0.0569791)
(-0.0961399 -4.31951e-19 0.0542347)
(-0.0912687 0 0.0515726)
(-0.0865937 6.73341e-23 0.0490039)
(-0.0821279 -3.82662e-19 0.0465357)
(-0.0778597 -3.67278e-19 0.0441639)
(-0.0737796 0 0.0418874)
(-0.069891 -3.37927e-19 0.0397116)
(-0.0661706 -3.23955e-19 0.0376256)
(-0.062622 6.20964e-19 0.0356303)
(-0.0592625 -5.94979e-19 0.0337379)
(-0.0561118 0 0.0319621)
(-0.0532233 5.4563e-19 0.0303267)
(-0.0506393 -5.22323e-19 0.0288578)
(-0.0484156 0 0.0275892)
(-0.0465987 -2.38722e-23 0.0265482)
(-0.0452127 4.57703e-19 0.0257479)
(-0.0442577 0 0.0251908)
(-0.0436715 -8.3748e-19 0.0248442)
(-0.0433247 0 0.0246258)
(-0.0429739 0 0.0243989)
(-0.0422197 4.55605e-23 0.0239473)
(-0.0404752 5.13028e-23 0.0229309)
(-0.036983 6.68753e-19 0.0208919)
(-0.0308531 -6.39045e-19 0.0172806)
(-0.0212338 1.22056e-18 0.0116969)
(-0.00765113 0 0.0038897)
(0.00971079 1.11027e-18 -0.00600124)
(0.0300482 1.05679e-18 -0.017353)
(0.050967 -2.00863e-18 -0.0291256)
(0.069854 9.53004e-19 -0.0398301)
(0.0836735 0 -0.0477365)
(0.0904797 0 -0.0517296)
(0.088769 0 -0.050788)
(0.0790574 0 -0.0451732)
(0.0625313 0 -0.0357074)
(0.0412728 -1.38364e-18 -0.023482)
(0.0176794 1.31275e-18 -0.0097764)
(-0.00714076 0 0.00473139)
(-0.0331637 0 0.0198623)
(-0.0589606 1.11093e-18 0.0346143)
(-0.0808141 1.24347e-23 0.0466802)
(-0.100402 1.99476e-18 0.0573774)
(-0.113546 0 0.0645512)
(-0.113162 0 0.0638436)
(-0.101254 0 0.0569141)
(-0.0792404 -3.70523e-22 0.0442172)
(-0.0561175 0 0.0311038)
(-0.0335639 0 0.0185645)
(-0.0164207 1.44592e-18 0.00958263)
(-0.0211647 1.44317e-22 0.0130749)
(-0.0645072 0 0.0388253)
(-0.1524 0 0.0897447)
(-0.287558 -2.22162e-18 0.165719)
(-0.452007 -2.12533e-18 0.257595)
(-0.657449 -2.08611e-18 0.372375)
(-0.80455 -2.14626e-18 0.454901)
(-0.727135 -2.94424e-21 0.406867)
(-0.241255 -1.58857e-21 0.128865)
(0.541572 2.12764e-18 -0.313684)
(0.010224 0 -0.013257)
(0.994158 0 -0.563299)
(1.62603 0 -0.917265)
(0.536221 4.91024e-18 -0.303259)
(0.227136 -2.62826e-18 -0.134153)
(0.122206 2.2498e-18 -0.0673976)
(0.0040935 2.22536e-18 -0.00134966)
(-0.135039 0 0.07744)
(-0.0649498 0 0.0310433)
(0.310213 0 -0.177394)
(0.21923 3.35481e-18 -0.124775)
(0.368901 0 -0.209679)
(0.56822 -2.755e-18 -0.321656)
(0.474622 0 -0.262858)
(0.0986015 0 -0.0393025)
(-0.539616 1.35174e-18 0.326379)
(-1.05448 0 0.61397)
(-1.30409 0 0.747909)
(-1.39605 0 0.797751)
(-1.33596 -2.57452e-18 0.75847)
(-0.745443 0 0.423459)
(-0.0243135 2.39805e-18 0.0203418)
(0.563105 0 -0.31806)
(0.667605 -6.41244e-22 -0.382312)
(31.0537 -1.54715e-20 -1.05868)
(21.6728 2.17292e-20 -3.4445)
(13.7493 1.35377e-20 -4.3321)
(8.71622 0 -3.75639)
(5.81178 -1.2218e-20 -2.83344)
(4.05815 2.28223e-20 -2.07695)
(2.91976 3.18091e-20 -1.52508)
(2.12601 -3.7128e-20 -1.12128)
(1.54353 0 -0.817839)
(1.10194 0 -0.584353)
(0.759679 0 -0.402652)
(0.491053 0 -0.258727)
(0.278027 0 -0.143618)
(0.106937 0 -0.0508993)
(-0.0291595 -7.38801e-22 0.0242595)
(-0.137522 0 0.0841178)
(-0.224731 1.04731e-19 0.131635)
(-0.29329 0 0.169686)
(-0.347072 -2.03959e-19 0.199502)
(-0.387981 2.00179e-19 0.222336)
(-0.418609 0 0.239463)
(-0.440182 1.91878e-19 0.251674)
(-0.454439 -1.87563e-19 0.259566)
(-0.462753 1.82535e-19 0.263696)
(-0.465902 -1.77425e-19 0.265017)
(-0.464635 0 0.264241)
(-0.459759 1.66498e-19 0.261476)
(-0.452073 0 0.256946)
(-0.442134 0 0.251148)
(-0.430355 0 0.244445)
(-0.417191 2.91012e-19 0.237012)
(-0.40303 0 0.229018)
(-0.388182 0 0.220634)
(-0.372835 0 0.211974)
(-0.357277 0 0.203206)
(-0.341735 0 0.194437)
(-0.326288 0 0.185723)
(-0.311086 4.44425e-19 0.17715)
(-0.296234 0 0.168776)
(-0.281828 8.18677e-19 0.160649)
(-0.267933 7.8523e-19 0.152799)
(-0.254544 3.76393e-19 0.145222)
(-0.241652 0 0.137918)
(-0.229288 0 0.130907)
(-0.217401 6.62196e-19 0.12416)
(-0.206004 -6.34044e-19 0.117691)
(-0.195162 6.06729e-19 0.111539)
(-0.184945 0 0.105752)
(-0.175521 -5.55191e-19 0.100421)
(-0.167033 0 0.095633)
(-0.159668 0 0.0914967)
(-0.153582 -4.85121e-19 0.0881007)
(-0.148853 0 0.0854867)
(-0.145479 0 0.08366)
(-0.143282 8.4615e-19 0.0824686)
(-0.141815 0 0.0816463)
(-0.140274 0 0.0807332)
(-0.137395 8.27251e-23 0.0789416)
(-0.131284 7.03226e-19 0.0751477)
(-0.119475 -9.0265e-23 0.067939)
(-0.0990979 0 0.0556204)
(-0.0675437 -1.22145e-18 0.0368112)
(-0.0233282 -1.16389e-18 0.0107544)
(0.0329842 0 -0.0219586)
(0.0986693 -2.10616e-18 -0.0596027)
(0.16644 -5.91933e-24 -0.0983539)
(0.228088 0 -0.133363)
(0.273988 8.96235e-19 -0.159093)
(0.297725 0 -0.171976)
(0.294011 0 -0.168769)
(0.263819 0 -0.150344)
(0.210347 0 -0.118864)
(0.139533 2.72497e-18 -0.0777332)
(0.0586172 -1.29087e-18 -0.0308295)
(-0.0279314 0 0.0192519)
(-0.117455 0 0.0709267)
(-0.202557 1.08753e-18 0.119684)
(-0.270569 2.07904e-23 0.158048)
(-0.328123 -1.06788e-22 0.190647)
(-0.363306 0 0.210182)
(-0.355666 0 0.204614)
(-0.314074 0 0.179532)
(-0.24202 -5.70599e-22 0.13737)
(-0.169729 -1.55316e-18 0.0956724)
(-0.103957 1.47808e-18 0.0579808)
(-0.0593798 -1.39706e-18 0.0337508)
(-0.0858329 2.29324e-22 0.0517427)
(-0.238153 -1.22424e-18 0.143312)
(-0.529813 0 0.315411)
(-0.958681 2.13537e-18 0.564034)
(-1.46285 0 0.856678)
(-2.07221 2.00021e-18 1.20869)
(-2.48815 0 1.43996)
(-2.20738 -4.26537e-18 1.25312)
(-0.733165 -2.18692e-18 0.371087)
(1.83111 0 -1.06597)
(0.160933 0 -0.105408)
(3.05238 -3.92944e-18 -1.81847)
(4.9907 2.89798e-18 -2.86791)
(1.84442 -4.67026e-18 -1.01104)
(0.830715 2.49614e-18 -0.468487)
(0.372067 -2.13479e-18 -0.205033)
(0.00689282 0 0.00365276)
(-0.433955 1.85304e-18 0.253517)
(-0.109075 0 0.0485484)
(1.0032 0 -0.587888)
(0.696842 -3.17218e-18 -0.403208)
(1.16095 0 -0.681472)
(1.71566 -3.03004e-21 -0.995507)
(1.2912 2.22973e-18 -0.735295)
(-0.0767707 0 0.0700683)
(-2.11506 0 1.25179)
(-3.6109 0 2.10567)
(-4.23545 1.00294e-18 2.45423)
(-4.37994 -2.13567e-18 2.53273)
(-4.13036 2.42029e-18 2.36929)
(-2.38064 0 1.33519)
(-0.224934 -2.25237e-18 0.0930699)
(1.69302 0 -0.99841)
(2.14694 3.37924e-18 -1.24182)
(34.6562 3.29756e-20 -0.946757)
(30.0952 -8.70877e-21 -3.04445)
(23.5217 -2.79489e-21 -4.75192)
(17.2986 0 -5.12034)
(12.4822 -1.45618e-20 -4.58273)
(9.08963 6.00735e-22 -3.75377)
(6.73126 0 -2.96297)
(5.04409 3.52397e-20 -2.30227)
(3.79451 0 -1.76953)
(2.84262 4.27191e-20 -1.34166)
(2.10227 0 -0.996327)
(1.51716 0 -0.716285)
(1.04951 0 -0.488105)
(0.672002 0 -0.301676)
(0.3681 -9.9469e-20 -0.14685)
(0.121092 0 -0.0219682)
(-0.0789515 0 0.0802752)
(-0.239982 0 0.163021)
(-0.369627 9.66072e-20 0.229609)
(-0.471925 -5.55023e-22 0.282747)
(-0.552047 0 0.324435)
(-0.613061 -4.23499e-22 0.356262)
(-0.658297 0 0.37964)
(-0.690256 -1.72499e-19 0.395705)
(-0.710659 0 0.405938)
(-0.721767 0 0.410914)
(-0.725249 -1.57929e-19 0.411354)
(-0.722334 0 0.408125)
(-0.71382 0 0.402484)
(-0.701014 -2.85471e-19 0.394593)
(-0.684771 0 0.385054)
(-0.665858 0 0.37421)
(-0.64495 0 0.362346)
(-0.622496 0 0.349704)
(-0.599067 2.37002e-19 0.336613)
(-0.575143 0 0.323268)
(-0.550946 0 0.309792)
(-0.526789 -4.20724e-19 0.296364)
(-0.502908 0 0.283101)
(-0.479511 -7.75105e-19 0.270113)
(-0.456755 -8.54126e-23 0.257469)
(-0.434668 -3.5635e-19 0.245172)
(-0.413269 0 0.233246)
(-0.392636 0 0.221733)
(-0.37271 -3.13288e-19 0.210592)
(-0.353522 0 0.199871)
(-0.335195 -5.7394e-19 0.189638)
(-0.317853 0 0.179986)
(-0.301784 5.10945e-23 0.171084)
(-0.287239 0 0.163079)
(-0.274537 0 0.156158)
(-0.263955 0 0.150465)
(-0.255628 -4.37967e-19 0.146065)
(-0.249559 0 0.142948)
(-0.245426 0 0.140867)
(-0.242509 0 0.13926)
(-0.239421 0 0.137353)
(-0.234061 1.39046e-18 0.133706)
(-0.223183 0 0.126473)
(-0.202655 -7.06544e-23 0.113286)
(-0.167665 0 0.0914258)
(-0.113939 5.75915e-19 0.0586117)
(-0.0389929 1.09737e-18 0.0137172)
(0.0562536 0 -0.0420386)
(0.167194 1.98481e-18 -0.10595)
(0.282087 9.41585e-19 -0.171226)
(0.387324 0 -0.229882)
(0.466828 -8.44033e-19 -0.272865)
(0.509563 0 -0.294325)
(0.506066 0 -0.288763)
(0.457151 0 -0.257414)
(0.367241 0 -0.203401)
(0.24543 8.99479e-23 -0.131997)
(0.103366 1.21395e-18 -0.0491898)
(-0.050275 0 0.0399556)
(-0.207911 0 0.130752)
(-0.35378 9.8275e-23 0.213261)
(-0.465681 -1.93032e-18 0.275025)
(-0.5563 -9.14123e-19 0.324694)
(-0.607511 0 0.350556)
(-0.58798 0 0.335096)
(-0.514869 0 0.28902)
(-0.392931 -3.04972e-18 0.217201)
(-0.274571 3.39201e-22 0.149785)
(-0.172871 -1.38656e-18 0.0931615)
(-0.111021 0 0.0630618)
(-0.169237 -1.22928e-18 0.106661)
(-0.440917 1.14772e-18 0.275644)
(-0.941422 0 0.575803)
(-1.65481 0 0.991617)
(-2.47212 1.90962e-18 1.46532)
(-3.43294 0 2.01169)
(-4.05246 1.91603e-18 2.33302)
(-3.53767 3.52344e-21 1.95305)
(-1.21771 2.0431e-18 0.526823)
(3.17113 -1.90038e-18 -1.86335)
(0.411489 0 -0.285471)
(4.83274 3.67737e-18 -2.95965)
(8.12901 -2.71162e-18 -4.61322)
(3.31678 4.3717e-18 -1.74641)
(1.54057 0 -0.846948)
(0.621078 -1.99844e-18 -0.320711)
(0.00858752 0 0.0219558)
(-0.720977 -1.73273e-18 0.421624)
(-0.0821182 1.74679e-18 -0.0107145)
(1.69089 0 -1.00068)
(1.17714 2.96519e-18 -0.678519)
(1.91911 0 -1.1371)
(2.73785 4.86815e-18 -1.57454)
(1.87466 -2.08361e-18 -1.00955)
(-0.598801 0 0.474678)
(-3.97781 0 2.42262)
(-6.26135 0 3.68217)
(-7.07785 -1.05165e-21 4.09729)
(-7.14943 1.99489e-18 4.10974)
(-6.65515 -2.25036e-18 3.76003)
(-3.8636 0 2.09858)
(-0.488195 -2.10581e-18 0.170623)
(2.64428 0 -1.58529)
(3.55941 6.60251e-22 -2.0574)
(35.2628 -1.73392e-20 -1.16044)
(33.9891 -5.03784e-21 -2.39712)
(30.1863 6.90485e-21 -4.1747)
(25.0565 -1.46809e-20 -5.3166)
(19.8896 -2.08622e-20 -5.52058)
(15.4512 -4.35068e-20 -5.07224)
(11.9376 0 -4.35034)
(9.23523 0 -3.5918)
(7.15518 0 -2.89858)
(5.53522 -4.04647e-20 -2.29933)
(4.2565 0 -1.79272)
(3.23482 0 -1.36804)
(2.41061 0 -1.01301)
(1.74016 0 -0.716741)
(1.19347 0 -0.4683)
(0.745716 -9.32779e-20 -0.262779)
(0.379437 9.28784e-20 -0.0908145)
(0.0792753 0 0.0500585)
(-0.165331 0 0.16621)
(-0.362995 -1.79418e-19 0.26053)
(-0.521934 1.7548e-19 0.336617)
(-0.647519 -1.72039e-19 0.396868)
(-0.744988 1.67465e-19 0.443846)
(-0.818721 1.63345e-19 0.479445)
(-0.872431 -1.58507e-19 0.505345)
(-0.909667 1.53887e-19 0.522553)
(-0.932614 0 0.532543)
(-0.943912 -1.44453e-19 0.535701)
(-0.945885 0 0.533081)
(-0.939359 2.70186e-19 0.527417)
(-0.926206 0 0.51866)
(-0.907814 0 0.507401)
(-0.885284 0 0.494194)
(-0.859462 -2.3292e-19 0.479401)
(-0.831284 -2.24195e-19 0.463558)
(-0.801576 0 0.446976)
(-0.770785 0 0.42988)
(-0.739444 3.97844e-19 0.41256)
(-0.707979 0 0.395223)
(-0.67676 1.06464e-22 0.378057)
(-0.646076 -3.51284e-19 0.361181)
(-0.616034 0 0.344628)
(-0.586707 0 0.328457)
(-0.558244 0 0.312744)
(-0.530608 0 0.297452)
(-0.503862 -5.66379e-19 0.282668)
(-0.478197 0 0.268504)
(-0.453805 5.18283e-19 0.255108)
(-0.431095 4.95605e-19 0.242724)
(-0.41044 0 0.231571)
(-0.392295 0 0.22191)
(-0.377058 0 0.213942)
(-0.36493 4.13203e-19 0.207745)
(-0.355916 -3.94596e-19 0.203274)
(-0.349555 -7.53553e-19 0.200188)
(-0.34481 0 0.197673)
(-0.339797 -6.86581e-19 0.194448)
(-0.331474 -1.31048e-18 0.188585)
(-0.315325 0 0.177427)
(-0.285656 -1.19296e-18 0.157605)
(-0.235834 0 0.125388)
(-0.159987 -5.42292e-19 0.0777829)
(-0.0546829 -1.03313e-18 0.0134208)
(0.0788062 0 -0.065785)
(0.234326 -9.34097e-19 -0.155814)
(0.39594 -8.86121e-19 -0.247199)
(0.545005 0 -0.329045)
(0.659313 0 -0.388962)
(0.723193 0 -0.418879)
(0.722636 7.0984e-19 -0.410991)
(0.657588 6.71532e-19 -0.366535)
(0.532703 0 -0.289438)
(0.359393 -1.20444e-18 -0.186508)
(0.153071 -1.14071e-18 -0.065653)
(-0.0724282 0 0.0651683)
(-0.302079 0 0.196771)
(-0.509194 -9.59673e-19 0.312399)
(-0.661686 -8.62113e-24 0.39488)
(-0.779425 0 0.457642)
(-0.840096 0 0.48544)
(-0.804488 0 0.456466)
(-0.698608 0 0.388278)
(-0.528405 5.16851e-22 0.28734)
(-0.36904 1.36607e-18 0.197248)
(-0.241077 0 0.127375)
(-0.174541 0 0.0995353)
(-0.276368 0 0.178421)
(-0.677662 1.0759e-18 0.434749)
(-1.38858 0 0.868103)
(-2.3698 1.8744e-18 1.4448)
(-3.46241 -1.78826e-18 2.08135)
(-4.7059 1.74811e-18 2.7859)
(-5.44723 -1.79371e-18 3.14126)
(-4.65708 3.72431e-18 2.52691)
(-1.69054 -1.91211e-18 0.621376)
(4.52116 1.77825e-18 -2.68351)
(0.774092 0 -0.522814)
(6.1862 0 -3.93038)
(10.9638 -2.55436e-18 -6.22633)
(4.95966 -2.04468e-18 -2.52658)
(2.37491 -2.18226e-18 -1.26677)
(0.88227 -9.03859e-22 -0.430554)
(0.0113971 0 0.0495496)
(-0.982505 0 0.575524)
(0.00947382 -1.63274e-18 -0.116455)
(2.35863 0 -1.41298)
(1.66381 -2.77267e-18 -0.961847)
(2.62869 0 -1.5795)
(3.59517 2.90642e-21 -2.0718)
(2.17406 0 -1.11686)
(-1.494 -1.52367e-18 1.10255)
(-6.08663 1.12408e-18 3.74443)
(-8.88677 9.21168e-19 5.25093)
(-9.68388 -1.26956e-21 5.61326)
(-9.57675 0 5.50696)
(-8.78389 2.10157e-18 4.9286)
(-5.07172 2.21894e-18 2.67322)
(-0.748229 1.96634e-18 0.196023)
(3.34279 0 -2.06883)
(4.83557 7.29115e-22 -2.8091)
(34.9023 0 -1.6553)
(35.0411 -3.67706e-21 -2.19887)
(33.5743 0 -3.5142)
(30.4741 1.38706e-20 -4.83683)
(26.3688 3.27271e-20 -5.61725)
(22.0173 2.12019e-20 -5.74785)
(17.9732 0 -5.39317)
(14.4896 0 -4.77845)
(11.6015 -3.47491e-20 -4.07765)
(9.24327 -3.76353e-20 -3.39038)
(7.32387 3.98835e-20 -2.76155)
(5.7577 8.31005e-20 -2.20567)
(4.47434 8.5424e-20 -1.72303)
(3.41775 0 -1.30849)
(2.54586 0 -0.953499)
(1.82459 1.75992e-19 -0.652931)
(1.22765 -3.61444e-22 -0.398204)
(0.733646 0 -0.184835)
(0.326167 -8.56535e-20 -0.00554738)
(-0.00872099 -1.68619e-19 0.142482)
(-0.282289 -1.65903e-19 0.264533)
(-0.503645 0 0.363532)
(-0.680624 -1.58309e-19 0.443058)
(-0.820062 1.53878e-19 0.505541)
(-0.927411 1.49823e-19 0.553469)
(-1.00749 -2.15511e-22 0.589262)
(-1.06462 0 0.614841)
(-1.10298 1.48553e-22 0.630831)
(-1.12511 0 0.63812)
(-1.13442 2.54869e-19 0.637435)
(-1.13245 0 0.632565)
(-1.1212 0 0.623971)
(-1.10272 0 0.61194)
(-1.07829 2.19995e-19 0.597239)
(-1.04935 0 0.580595)
(-1.01719 0 0.562468)
(-0.982583 0 0.543207)
(-0.94635 0 0.523245)
(-0.909185 -3.60243e-19 0.502904)
(-0.871678 6.91255e-19 0.48247)
(-0.834311 0 0.462134)
(-0.797314 3.17601e-19 0.44197)
(-0.760854 0 0.422092)
(-0.725183 0 0.402625)
(-0.69032 0 0.38355)
(-0.656376 8.69747e-23 0.365008)
(-0.623629 0 0.347163)
(-0.592349 -4.88688e-19 0.330233)
(-0.563079 0 0.314542)
(-0.536317 0 0.300386)
(-0.51266 -4.26606e-19 0.288102)
(-0.492635 0 0.277944)
(-0.476511 0 0.269997)
(-0.4643 3.57139e-23 0.264171)
(-0.455422 7.09757e-19 0.259956)
(-0.448493 0 0.256339)
(-0.441139 7.58273e-23 0.251505)
(-0.429399 1.23355e-18 0.242995)
(-0.407579 0 0.227288)
(-0.368465 5.613e-19 0.200117)
(-0.303733 0 0.156831)
(-0.20605 5.10161e-19 0.0938375)
(-0.0711079 9.71744e-19 0.00967061)
(0.0995273 0 -0.0929556)
(0.298351 8.78224e-19 -0.208708)
(0.50576 -1.89991e-23 -0.325476)
(0.698596 0 -0.429686)
(0.848889 0 -0.50588)
(0.93635 0 -0.543915)
(0.941965 -1.33368e-18 -0.533802)
(0.863992 5.93219e-23 -0.476528)
(0.706465 0 -0.376263)
(0.482186 1.13096e-18 -0.241001)
(0.209677 2.14164e-18 -0.0802926)
(-0.0912466 0 0.0944212)
(-0.395761 0 0.267871)
(-0.663925 0 0.415035)
(-0.853517 -3.03791e-24 0.514738)
(-0.99283 0 0.585986)
(-1.05775 0 0.610573)
(-1.00332 0 0.564644)
(-0.865034 0 0.473361)
(-0.649421 1.33949e-18 0.344927)
(-0.455111 1.27932e-18 0.236804)
(-0.31118 0 0.161329)
(-0.252724 0 0.145809)
(-0.409625 0 0.271044)
(-0.948825 2.98132e-22 0.624432)
(-1.86762 0 1.19296)
(-3.09392 -1.7547e-18 1.9187)
(-4.41807 0 2.6916)
(-5.87342 -1.63601e-18 3.50491)
(-6.6524 0 3.82518)
(-5.55057 -1.74039e-18 2.93397)
(-2.14542 0 0.63553)
(5.81868 0 -3.49589)
(1.23991 0 -0.820655)
(7.02211 0 -4.66403)
(13.4875 2.38843e-18 -7.63431)
(6.75376 0 -3.34046)
(3.34778 2.04005e-18 -1.73233)
(1.18151 1.74745e-18 -0.537451)
(0.0212769 0 0.0859439)
(-1.20788 0 0.706198)
(0.133052 0 -0.268482)
(2.99558 0 -1.81581)
(2.16522 -8.49782e-22 -1.25049)
(3.28652 0 -1.99704)
(4.28505 -4.25946e-18 -2.4478)
(2.19851 0 -1.0055)
(-2.70333 2.85111e-18 1.98689)
(-8.32721 -1.04985e-18 5.19318)
(-11.3404 -8.60294e-19 6.73084)
(-11.9397 -8.1508e-19 6.91334)
(-11.6047 0 6.64061)
(-10.4821 0 5.7994)
(-5.95003 -4.14171e-18 3.01319)
(-0.933592 1.83775e-18 0.145773)
(3.75237 1.59197e-18 -2.40832)
(5.92695 -1.3767e-18 -3.45892)
(34.4459 0 -2.11832)
(34.8594 3.33017e-20 -2.33581)
(34.6797 0 -3.11811)
(33.3502 0 -4.21082)
(30.8388 0 -5.19071)
(27.505 0 -5.7706)
(23.8208 0 -5.8818)
(20.1766 3.00575e-20 -5.60939)
(16.8176 3.27883e-20 -5.09359)
(13.856 7.09129e-20 -4.46177)
(11.3116 -7.5072e-20 -3.80289)
(9.155 -7.84345e-20 -3.16877)
(7.33889 -8.06323e-20 -2.5849)
(5.81315 0 -2.06156)
(4.53309 0 -1.59925)
(3.45972 -1.65385e-19 -1.19695)
(2.56041 -1.64799e-19 -0.848955)
(1.80782 0 -0.551253)
(1.17954 8.08536e-20 -0.297412)
(0.65701 1.59165e-19 -0.0833207)
(0.224217 0 0.0962192)
(-0.131663 1.5246e-19 0.245052)
(-0.421783 0 0.367204)
(-0.655955 -2.49541e-22 0.46605)
(-0.842112 -1.40961e-19 0.544752)
(-0.987541 -1.92137e-22 0.605898)
(-1.09824 0 0.651978)
(-1.17923 1.28664e-19 0.685719)
(-1.23553 -2.48636e-19 0.709027)
(-1.2716 -4.80677e-19 0.721169)
(-1.2906 -2.31842e-19 0.723757)
(-1.29547 0 0.720328)
(-1.28822 -2.15302e-19 0.712627)
(-1.27134 0 0.700508)
(-1.24678 0 0.685309)
(-1.21649 0 0.667593)
(-1.18166 0 0.647861)
(-1.14353 0 0.62672)
(-1.10315 1.16856e-22 0.604634)
(-1.06139 -3.25729e-19 0.582013)
(-1.01901 0 0.559136)
(-0.976417 -5.98515e-19 0.536138)
(-0.933921 0 0.51321)
(-0.89192 0 0.49054)
(-0.850527 0 0.46814)
(-0.80993 5.03083e-19 0.446226)
(-0.770513 0 0.425026)
(-0.732641 0 0.404838)
(-0.697001 0 0.386078)
(-0.664226 0 0.369121)
(-0.635059 8.031e-19 0.354381)
(-0.610166 0 0.342159)
(-0.589887 0 0.332541)
(-0.574242 3.49728e-19 0.325376)
(-0.562527 0 0.319994)
(-0.553077 0 0.315051)
(-0.542945 1.21579e-18 0.308338)
(-0.527385 -5.79961e-19 0.296694)
(-0.499543 0 0.275827)
(-0.450817 0 0.240594)
(-0.371341 0 0.18554)
(-0.252469 -4.79316e-19 0.106638)
(-0.0890893 0 0.00248582)
(0.117035 0 -0.123268)
(0.357281 -1.64988e-18 -0.264021)
(0.608987 1.56478e-18 -0.405134)
(0.845084 0 -0.53066)
(1.03231 0 -0.622396)
(1.14586 0 -0.668311)
(1.1614 6.25915e-19 -0.656205)
(1.07468 -5.91919e-19 -0.586418)
(0.888004 -1.12041e-18 -0.463149)
(0.614596 -1.06097e-18 -0.295154)
(0.275361 -1.00444e-18 -0.0933242)
(-0.103253 9.4974e-19 0.126755)
(-0.484389 0 0.342189)
(-0.812684 0 0.518523)
(-1.0358 7.96628e-19 0.631557)
(-1.19155 0 0.706919)
(-1.25621 0 0.724387)
(-1.18143 0 0.659259)
(-1.01242 0 0.544826)
(-0.755639 0 0.39122)
(-0.533746 -2.39583e-18 0.270395)
(-0.385258 0 0.19729)
(-0.348306 -1.07717e-18 0.204274)
(-0.571529 0 0.386679)
(-1.25434 2.93057e-22 0.845498)
(-2.37297 1.75631e-18 1.54802)
(-3.81433 0 2.40604)
(-5.31826 0 3.28417)
(-6.90704 0 4.15685)
(-7.63572 0 4.379)
(-6.19731 1.61981e-18 3.18086)
(-2.53755 0 0.546067)
(6.97563 0 -4.25515)
(1.79658 0 -1.1504)
(7.3135 0 -5.14896)
(15.6147 0 -8.88254)
(8.65851 0 -4.16895)
(4.47219 0 -2.24288)
(1.54344 0 -0.652303)
(0.0455668 -1.6122e-18 0.12852)
(-1.38535 0 0.807447)
(0.261582 0 -0.443451)
(3.588 0 -2.20405)
(2.68111 2.42075e-18 -1.54899)
(3.88455 0 -2.38634)
(4.78475 1.99046e-18 -2.70325)
(1.93007 0 -0.691161)
(-4.19349 4.65989e-21 3.0726)
(-10.5944 0 6.67641)
(-13.4811 8.04012e-19 8.028)
(-13.7508 0 7.95224)
(-13.1772 0 7.51298)
(-11.7289 0 6.39775)
(-6.5038 1.93246e-18 3.1318)
(-1.01402 -3.43194e-18 0.00324786)
(3.84981 -2.97324e-18 -2.60253)
(6.78808 -1.28625e-18 -3.99464)
(34.1128 0 -2.41218)
(34.4087 -3.57606e-20 -2.55155)
(34.6512 0 -2.98777)
(34.3517 0 -3.74508)
(33.1967 -2.73595e-20 -4.62673)
(31.1738 -2.68022e-20 -5.38062)
(28.4729 2.76318e-20 -5.83736)
(25.3652 -8.69696e-20 -5.94595)
(22.1197 0 -5.74589)
(18.953 3.57286e-23 -5.32178)
(16.0076 3.52714e-20 -4.76459)
(13.3565 0 -4.14926)
(11.0213 0 -3.52812)
(8.9926 0 -2.93386)
(7.24607 0 -2.38352)
(5.75156 3.27188e-22 -1.88631)
(4.47836 2.91558e-22 -1.44377)
(3.39769 7.66333e-20 -1.05557)
(2.48376 7.57368e-20 -0.717896)
(1.71412 0 -0.427426)
(1.06877 -1.46454e-19 -0.179618)
(0.531031 -1.43697e-19 0.0300386)
(0.0857969 0 0.20522)
(-0.279728 -2.31396e-22 0.350192)
(-0.576634 1.94488e-22 0.468519)
(-0.814799 -1.28971e-19 0.563572)
(-1.00264 0 0.638405)
(-1.14764 0 0.695672)
(-1.25613 2.34267e-19 0.737886)
(-1.33352 2.08633e-22 0.768693)
(-1.38617 4.3664e-19 0.786368)
(-1.4171 0 0.793495)
(-1.43092 4.05488e-19 0.792045)
(-1.42928 0 0.785854)
(-1.41571 0 0.774672)
(-1.39282 -1.80425e-19 0.759641)
(-1.36242 0 0.741432)
(-1.32626 -3.32922e-19 0.720843)
(-1.28586 1.138e-22 0.698508)
(-1.24251 3.06446e-19 0.67499)
(-1.1973 0 0.650679)
(-1.1509 7.51145e-23 0.625788)
(-1.10382 0 0.600608)
(-1.05668 0 0.575415)
(-1.00971 0 0.550262)
(-0.963229 0 0.525461)
(-0.917742 0 0.50132)
(-0.873736 4.3268e-19 0.47823)
(-0.832049 0 0.456709)
(-0.793467 0 0.437212)
(-0.758884 -3.77553e-19 0.420235)
(-0.729111 0 0.406119)
(-0.704569 -3.44274e-19 0.394938)
(-0.685289 -3.28653e-19 0.386468)
(-0.670461 6.27332e-19 0.379844)
(-0.65812 0 0.373423)
(-0.64483 -5.71128e-19 0.364495)
(-0.625062 -5.44699e-19 0.349267)
(-0.590924 0 0.322656)
(-0.532566 0 0.278717)
(-0.438763 0 0.211314)
(-0.299721 4.50049e-19 0.116156)
(-0.109604 0 -0.00794356)
(0.12976 0 -0.156253)
(0.4089 7.74233e-19 -0.320976)
(0.702784 -1.46845e-18 -0.485107)
(0.981141 0 -0.630669)
(1.20601 0 -0.73705)
(1.34827 0 -0.790515)
(1.37802 0 -0.776735)
(1.28757 -5.55168e-19 -0.695078)
(1.07647 1.05049e-18 -0.549334)
(0.757283 0 -0.348679)
(0.352418 0 -0.105112)
(-0.104612 -8.90096e-19 0.160993)
(-0.562926 0 0.417637)
(-0.949847 -7.91188e-19 0.620027)
(-1.20319 7.46272e-19 0.742321)
(-1.37123 0 0.81775)
(-1.43281 0 0.82457)
(-1.33784 0 0.738705)
(-1.14101 0 0.601931)
(-0.848353 0 0.426401)
(-0.606977 1.12115e-18 0.29916)
(-0.465623 0 0.237208)
(-0.463574 2.01613e-18 0.276994)
(-0.763156 0 0.527358)
(-1.59188 2.85479e-22 1.09797)
(-2.89628 4.1296e-22 1.92907)
(-4.51542 0 2.89738)
(-6.14163 1.46097e-18 3.84463)
(-7.78652 0 4.72348)
(-8.38605 0 4.78527)
(-6.60567 -3.02454e-18 3.26594)
(-2.79556 0 0.315384)
(7.87487 0 -4.89798)
(2.39563 0 -1.47773)
(7.13524 0 -5.4224)
(17.3205 0 -9.90844)
(10.6154 0 -4.98641)
(5.75399 0 -2.79634)
(1.99604 0 -0.782678)
(0.0940044 1.50618e-18 0.174241)
(-1.50448 0 0.873176)
(0.360481 0 -0.626247)
(4.12387 0 -2.57224)
(3.21163 -2.26267e-18 -1.85371)
(4.41743 -2.12675e-18 -2.73827)
(5.08879 -1.86426e-18 -2.81753)
(1.38393 1.60362e-18 -0.156384)
(-5.88954 4.06723e-21 4.33878)
(-12.756 -9.22895e-19 8.12221)
(-15.1906 -1.50129e-18 9.06728)
(-15.0883 0 8.70271)
(-14.3112 1.4934e-18 8.10581)
(-12.5832 1.68986e-18 6.73267)
(-6.81363 0 3.07457)
(-1.00516 1.60213e-18 -0.209988)
(3.65969 1.38813e-18 -2.65463)
(7.3986 1.20061e-18 -4.4017)
(33.8655 0 -2.57291)
(34.0216 1.7723e-20 -2.7217)
(34.2717 0 -3.00308)
(34.3646 0 -3.49881)
(34.0181 2.5762e-20 -4.16714)
(33.0602 2.5232e-20 -4.87341)
(31.4545 -2.60083e-20 -5.46824)
(29.2767 8.41739e-20 -5.84413)
(26.6747 0 -5.95683)
(23.8265 3.18896e-20 -5.81896)
(20.9044 -6.61071e-20 -5.47889)
(18.051 0 -4.99854)
(15.367 7.03486e-20 -4.4372)
(12.9117 0 -3.8438)
(10.711 7.23415e-20 -3.25335)
(8.76772 7.28975e-20 -2.69004)
(7.07047 7.26913e-20 -2.1675)
(5.60052 -7.2137e-20 -1.69345)
(4.33615 -1.42375e-19 -1.26994)
(3.25541 0 -0.896975)
(2.33692 1.37862e-19 -0.572223)
(1.56126 0 -0.292355)
(0.910469 0 -0.0539406)
(0.368528 -1.28392e-19 0.147238)
(-0.0789489 2.49533e-19 0.314823)
(-0.444724 0 0.452706)
(-0.740066 0 0.564377)
(-0.974954 0 0.653172)
(-1.15816 -2.20059e-19 0.722017)
(-1.29757 2.12784e-19 0.773569)
(-1.39939 -1.68306e-22 0.811474)
(-1.47061 1.97807e-19 0.836082)
(-1.5159 -3.81252e-19 0.848353)
(-1.54041 1.83439e-19 0.849171)
(-1.54629 -1.76453e-19 0.845258)
(-1.53786 8.17188e-23 0.835664)
(-1.51785 0 0.821284)
(-1.48864 3.13117e-19 0.803263)
(-1.45237 3.00464e-19 0.782432)
(-1.41085 -2.88169e-19 0.759536)
(-1.36564 0 0.7351)
(-1.31777 2.64718e-19 0.709435)
(-1.26803 2.53507e-19 0.68296)
(-1.2173 2.42744e-19 0.656062)
(-1.16605 2.32346e-19 0.628854)
(-1.11472 0 0.601765)
(-1.06399 0 0.575195)
(-1.0145 -6.52452e-23 0.549651)
(-0.967261 0 0.525755)
(-0.923213 0 0.504053)
(-0.883414 -3.54581e-19 0.485119)
(-0.848831 3.38618e-19 0.469331)
(-0.819974 3.23334e-19 0.456739)
(-0.796894 3.73303e-23 0.447032)
(-0.778687 -7.60019e-23 0.439135)
(-0.76313 0 0.43106)
(-0.746315 0 0.41962)
(-0.722029 1.02248e-18 0.400356)
(-0.681445 0 0.367447)
(-0.613634 0 0.314231)
(-0.506219 -4.43031e-19 0.234032)
(-0.348435 0 0.122469)
(-0.133814 0 -0.0213091)
(0.135957 7.64442e-19 -0.191271)
(0.450797 -7.26074e-19 -0.378648)
(0.784109 1.37705e-18 -0.564204)
(1.10319 0 -0.7283)
(1.36609 -6.16492e-19 -0.848285)
(1.53967 0 -0.908954)
(1.58825 0 -0.894054)
(1.50008 1.04058e-18 -0.801264)
(1.27062 0 -0.633965)
(0.910686 0 -0.401271)
(0.443172 0 -0.116068)
(-0.0912478 0 0.195862)
(-0.626057 0 0.492026)
(-1.06973 7.40895e-19 0.716742)
(-1.35069 -2.11884e-23 0.844286)
(-1.52832 -6.60697e-19 0.91638)
(-1.58559 6.27605e-19 0.910186)
(-1.47213 0 0.803099)
(-1.25158 0 0.645385)
(-0.929177 0 0.451761)
(-0.676838 0 0.324958)
(-0.55424 0 0.283161)
(-0.599804 5.50359e-23 0.365964)
(-0.984126 0 0.694154)
(-1.95688 -8.25917e-19 1.38034)
(-3.42654 3.5302e-22 2.32997)
(-5.17973 0 3.38163)
(-6.86738 -1.36598e-18 4.35858)
(-8.49437 0 5.1927)
(-8.90454 1.35569e-18 5.03964)
(-6.80331 4.76845e-21 3.2076)
(-2.85817 0 -0.0831561)
(8.377 0 -5.34507)
(2.96042 0 -1.74784)
(6.63345 0 -5.56223)
(18.5494 1.97727e-18 -10.7098)
(12.5537 0 -5.76553)
(7.18972 0 -3.38661)
(2.56631 1.42791e-18 -0.935981)
(0.178791 0 0.219472)
(-1.55537 -1.2327e-18 0.899648)
(0.402392 1.23659e-18 -0.799191)
(4.59217 0 -2.91755)
(3.75152 4.2269e-18 -2.16364)
(4.87678 -1.1151e-21 -3.04392)
(5.18661 3.48428e-18 -2.78527)
(0.573236 -1.49731e-18 0.586173)
(-7.71906 -1.17048e-18 5.72825)
(-14.69 8.61638e-19 9.44162)
(-16.4025 7.00752e-19 9.8027)
(-15.9761 6.57658e-19 9.18421)
(-15.0379 -1.39412e-18 8.4639)
(-13.1292 -1.57746e-18 6.87123)
(-7.00973 -1.6762e-18 2.92003)
(-0.974141 -1.49555e-18 -0.449373)
(3.23829 0 -2.59797)
(7.75366 0 -4.68538)
(33.6454 0 -2.66652)
(33.722 1.92263e-20 -2.82807)
(33.8884 0 -3.05288)
(34.0449 0 -3.39541)
(34.0331 0 -3.87138)
(33.6981 0 -4.4379)
(32.9252 2.88757e-20 -5.00911)
(31.6611 -2.7246e-20 -5.49021)
(29.9184 2.93679e-20 -5.80802)
(27.7651 -5.95164e-20 -5.92524)
(25.3071 6.21437e-20 -5.83963)
(22.6685 0 -5.57518)
(19.9721 -6.61307e-20 -5.17078)
(17.3254 0 -4.67071)
(14.8108 -6.80086e-20 -4.11646)
(12.4832 -6.79174e-20 -3.54368)
(10.372 0 -2.9791)
(8.48754 0 -2.44188)
(6.82644 6.68318e-20 -1.94359)
(5.37744 0 -1.49095)
(4.12455 0 -1.08652)
(3.05006 -1.26346e-19 -0.730132)
(2.13565 0 -0.420178)
(1.36352 0 -0.153637)
(0.716874 -1.17222e-19 0.0727969)
(0.180122 0 0.262908)
(-0.260917 0 0.420382)
(-0.619081 0 0.548924)
(-0.905822 4.13548e-19 0.651922)
(-1.13146 0 0.732843)
(-1.30517 -1.46901e-22 0.794212)
(-1.43435 -1.32984e-22 0.839607)
(-1.52686 1.79099e-19 0.871865)
(-1.5888 -1.72399e-19 0.889146)
(-1.62542 3.31561e-19 0.893843)
(-1.64103 1.59407e-19 0.892257)
(-1.6391 0 0.884493)
(-1.62328 0 0.871364)
(-1.59648 2.8208e-19 0.854083)
(-1.56123 -2.70535e-19 0.833585)
(-1.51968 0 0.81056)
(-1.47336 0 0.785442)
(-1.42346 -6.28176e-23 0.758806)
(-1.3712 -2.27974e-19 0.73118)
(-1.31734 -2.18191e-19 0.702755)
(-1.26253 -4.17394e-19 0.674099)
(-1.20769 0 0.645727)
(-1.15361 -6.48347e-23 0.618271)
(-1.10151 0 0.592475)
(-1.0525 0 0.568976)
(-1.00781 3.32803e-19 0.548431)
(-0.968591 -3.17791e-19 0.531246)
(-0.935442 0 0.517435)
(-0.908453 2.89555e-19 0.506587)
(-0.886652 -7.6415e-23 0.497396)
(-0.867584 0 0.487527)
(-0.846941 0 0.473288)
(-0.817905 -9.58862e-19 0.449585)
(-0.770872 0 0.409899)
(-0.694022 0 0.346953)
(-0.574045 8.30727e-19 0.253682)
(-0.399392 0 0.125791)
(-0.163007 0 -0.0371065)
(0.133719 -1.43301e-18 -0.227576)
(0.480433 6.80499e-19 -0.435995)
(0.849799 -6.4525e-19 -0.641144)
(1.20751 0 -0.822078)
(1.5084 5.77603e-19 -0.954496)
(1.71578 0 -1.02197)
(1.78838 -5.15603e-19 -1.00624)
(1.70913 -4.87327e-19 -0.903638)
(1.46872 0 -0.716097)
(1.07489 0 -0.452562)
(0.549796 8.26138e-19 -0.126594)
(-0.0590699 7.80903e-19 0.230065)
(-0.668473 0 0.563202)
(-1.16694 0 0.806101)
(-1.47408 -1.30784e-18 0.935233)
(-1.66039 6.18277e-19 1.00147)
(-1.71406 -1.17425e-18 0.980806)
(-1.58532 0 0.852864)
(-1.34591 0 0.676182)
(-1.00034 0 0.468758)
(-0.745446 0 0.349619)
(-0.652485 0 0.337071)
(-0.757127 6.35299e-23 0.472563)
(-1.23224 0 0.887067)
(-2.34242 0 1.68941)
(-3.95056 2.82499e-22 2.74279)
(-5.78921 0 3.84691)
(-7.47814 -1.27418e-18 4.81306)
(-9.02516 0 5.55661)