/*--------------------------------*- C++ -*----------------------------------*\
| =========                 |                                                 |
| \\      /  F ield         | OpenFOAM: The Open Source CFD Toolbox           |
|  \\    /   O peration     | Version:  2412                                  |
|   \\  /    A nd           | Website:  www.openfoam.com                      |
|    \\/     M anipulation  |                                                 |
\*---------------------------------------------------------------------------*/
FoamFile
{
    version     2.0;
    format      ascii;
    arch        "LSB;label=32;scalar=64";
    class       volVectorField;
    location    "1.62";
    object      U_0;
}
// * * * * * * * * * * * * * * * * * * * * * * * * * * * * * * * * * * * * * //

dimensions      [0 1 -1 0 0 0 0];

internalField   nonuniform List<vector> 
12600
(
(18.7635 1.23256e-21 2.09874)
(11.6315 1.60861e-20 0.452568)
(7.35735 1.89107e-20 -0.477699)
(5.09258 0 -0.709549)
(3.97797 1.70798e-20 -0.682641)
(3.33635 1.58988e-20 -0.607834)
(2.8945 0 -0.540055)
(2.56283 0 -0.484493)
(2.30286 -4.77145e-20 -0.438943)
(2.09244 0 -0.401128)
(1.91783 1.99895e-20 -0.369197)
(1.77009 1.82921e-20 -0.341818)
(1.64311 -1.67468e-20 -0.318039)
(1.53253 0 -0.297162)
(1.43517 -1.40174e-20 -0.278662)
(1.34864 0 -0.262135)
(1.27111 4.70325e-20 -0.247266)
(1.20115 0 -0.233802)
(1.13763 -1.96519e-20 -0.221543)
(1.07963 -1.79566e-20 -0.210325)
(1.02641 1.63758e-20 -0.200012)
(0.977362 5.28291e-24 -0.190494)
(0.931979 0 -0.181675)
(0.889834 -2.46186e-20 -0.173476)
(0.850565 0 -0.165831)
(0.813866 0 -0.15868)
(0.779472 -1.81675e-20 -0.151976)
(0.747156 0 -0.145673)
(0.71672 4.16482e-24 -0.139734)
(0.68799 1.30436e-20 -0.134128)
(0.660814 1.15803e-20 -0.128823)
(0.635059 1.02254e-20 -0.123795)
(0.610605 -8.97123e-21 -0.11902)
(0.587345 -1.56218e-20 -0.114478)
(0.565186 -1.34758e-20 -0.110151)
(0.544042 1.14816e-20 -0.106022)
(0.523835 0 -0.102077)
(0.504498 -7.9698e-21 -0.0983019)
(0.485968 0 -0.0946844)
(0.468187 4.97384e-21 -0.0912139)
(0.451105 0 -0.0878802)
(0.434674 1.77043e-23 -0.084674)
(0.418849 0 -0.0815868)
(0.403591 1.6114e-23 -0.0786108)
(0.388861 -1.29907e-21 -0.0757386)
(0.374627 2.99693e-21 -0.0729636)
(0.360855 -4.57348e-21 -0.0702794)
(0.347517 0 -0.0676804)
(0.334583 0 -0.065161)
(0.32203 -8.45557e-21 -0.0627165)
(0.309831 -1.90222e-20 -0.0603416)
(0.297967 -2.09216e-20 -0.0580326)
(0.286412 1.96486e-23 -0.0557845)
(0.275152 -2.41229e-20 -0.0535944)
(0.264161 0 -0.0514572)
(0.25343 2.66743e-20 -0.0493713)
(0.242931 2.77118e-20 -0.047331)
(0.232662 2.85967e-20 -0.0453359)
(0.222591 0 -0.0433801)
(0.212723 0 -0.0414642)
(0.203023 0 -0.0395814)
(0.193505 -6.20049e-20 -0.0377344)
(0.184125 0 -0.0359147)
(0.174909 0 -0.0341274)
(0.165804 1.26973e-19 -0.032362)
(0.156852 0 -0.0306267)
(0.147984 0 -0.028908)
(0.139263 0 -0.0272182)
(0.130599 -1.26674e-19 -0.0255398)
(0.122085 1.25986e-19 -0.0238908)
(0.113602 1.25071e-19 -0.022248)
(0.105281 2.36123e-23 -0.0206367)
(0.0969665 -1.22667e-19 -0.0190268)
(0.0888377 0 -0.0174529)
(0.080691 1.19573e-19 -0.0158757)
(0.0727695 0 -0.014342)
(0.0648071 0 -0.0128004)
(0.0571262 0 -0.0113131)
(0.0493825 2.85598e-23 -0.00981376)
(0.0419958 2.19015e-19 -0.00838296)
(0.0345252 2.14286e-19 -0.006936)
(0.0275066 -2.09445e-19 -0.00557572)
(0.0203817 -2.04371e-19 -0.00419493)
(0.0138234 0 -0.00292275)
(0.00713163 0 -0.00162488)
(0.00114153 3.77131e-19 -0.000461305)
(-0.00502204 -7.31911e-19 0.000735276)
(-0.010336 7.09865e-19 0.00176894)
(-0.0158645 3.43477e-19 0.00284372)
(-0.0204302 0 0.00373419)
(-0.0251861 -6.41199e-19 0.0046599)
(-0.0289684 3.09302e-19 0.00539994)
(-0.0329617 -2.97615e-19 0.00617867)
(-0.0354302 5.72888e-19 0.00666558)
(-0.0400531 0 0.00756364)
(-0.038575 0 0.007293)
(-0.0464565 0 0.00880821)
(-0.0426815 0 0.00807025)
(-0.0438898 0 0.00835647)
(-0.0584279 0 0.0110358)
(-0.0234059 -4.24303e-19 0.00451727)
(-0.0807699 -7.83779e-19 0.0154009)
(-0.0221834 -7.81108e-19 0.0040153)
(-0.059234 0 0.0114714)
(-0.0498164 0 0.0093296)
(-0.0435801 0 0.00843161)
(-0.0768442 -6.2327e-19 0.0143864)
(0.0103449 -1.18931e-18 -0.00152833)
(-0.169902 5.23116e-19 0.0322526)
(0.0480109 0 -0.00932845)
(-0.0558205 -9.00422e-19 0.0119031)
(-0.212107 0 0.0388251)
(0.233326 -9.82893e-19 -0.0434583)
(-0.379762 6.4447e-19 0.0723669)
(-0.0248828 -1.01962e-18 0.00144366)
(0.243096 -7.41565e-19 -0.042545)
(-0.872203 6.0205e-19 0.165992)
(0.299066 -2.61403e-22 -0.0612712)
(0.187767 6.24038e-19 -0.0329201)
(-0.376364 0 0.0719614)
(29.1803 -1.24427e-21 4.03221)
(25.1302 0 1.86266)
(20.2615 -1.91396e-20 -0.211768)
(16.0893 0 -1.21191)
(13.1253 -1.73068e-20 -1.50796)
(11.0796 -3.03697e-20 -1.51899)
(9.60523 -1.40512e-20 -1.44125)
(8.49171 0 -1.34347)
(7.61771 3.55951e-22 -1.24794)
(6.91029 -2.18133e-20 -1.16074)
(6.32373 2.00168e-20 -1.08255)
(5.82797 1.83657e-20 -1.01265)
(5.40234 -1.68482e-20 -0.950012)
(5.03217 1.54526e-20 -0.89367)
(4.70668 2.83919e-20 -0.842758)
(4.41779 0 -0.796541)
(4.15929 -6.42353e-23 -0.754397)
(3.92635 2.17657e-20 -0.715804)
(3.71512 1.99378e-20 -0.680323)
(3.52251 0 -0.647581)
(3.34602 0 -0.617262)
(3.18357 1.51209e-20 -0.589097)
(3.03344 0 -0.562855)
(2.8942 1.24799e-20 -0.538338)
(2.76461 -2.26024e-20 -0.515372)
(2.64366 0 -0.493808)
(2.53043 1.84143e-20 -0.473515)
(2.42417 0 -0.454378)
(2.32421 -1.48128e-20 -0.436295)
(2.22995 -2.64254e-20 -0.419175)
(2.1409 -2.34567e-20 -0.402941)
(2.05659 -1.03499e-20 -0.387519)
(1.97662 9.07801e-21 -0.372846)
(1.90065 3.16243e-20 -0.358864)
(1.82834 2.72743e-20 -0.345522)
(1.75942 0 -0.332772)
(1.69363 0 -0.320573)
(1.63073 -1.75005e-23 -0.308885)
(1.57051 0 -0.297674)
(1.5128 -5.02129e-21 -0.286907)
(1.4574 0 -0.276555)
(1.40416 -4.91362e-21 -0.266591)
(1.35294 0 -0.256989)
(1.30361 -5.95367e-22 -0.247726)
(1.25602 0 -0.238781)
(1.21008 -3.01772e-21 -0.230134)
(1.16567 0 -0.221765)
(1.12271 0 -0.213658)
(1.08108 7.2922e-21 -0.205796)
(1.04071 0 -0.198165)
(1.00152 0 -0.190749)
(0.963442 0 -0.183537)
(0.926386 2.26753e-20 -0.176513)
(0.890306 4.83375e-20 -0.169668)
(0.855119 0 -0.162988)
(0.820791 0 -0.156467)
(0.787237 -2.76876e-20 -0.150088)
(0.754439 -2.85953e-20 -0.143849)
(0.722306 0 -0.137732)
(0.690842 0 -0.131741)
(0.65994 0 -0.125852)
(0.629635 0 -0.120076)
(0.599797 -6.23882e-20 -0.114384)
(0.570498 6.28349e-20 -0.108794)
(0.541574 -1.26251e-19 -0.103272)
(0.513148 0 -0.0978454)
(0.485011 0 -0.092469)
(0.457348 0 -0.0871848)
(0.429889 4.76953e-23 -0.0819343)
(0.402905 -1.24781e-19 -0.0767774)
(0.37604 -1.23762e-19 -0.0716375)
(0.349682 2.45078e-19 -0.0665985)
(0.323362 3.61329e-23 -0.0615603)
(0.297617 -1.19568e-19 -0.0566376)
(0.271833 -1.17872e-19 -0.0517)
(0.246737 0 -0.0469017)
(0.221531 0 -0.042073)
(0.197178 0 -0.037418)
(0.172647 2.19377e-19 -0.0327176)
(0.149193 0 -0.0282366)
(0.125497 0 -0.0236955)
(0.103163 2.04988e-19 -0.0194315)
(0.0805192 1.99808e-19 -0.0150916)
(0.0595848 0 -0.0110988)
(0.0382621 0 -0.0070121)
(0.0190584 0 -0.00335322)
(-0.000648627 7.12399e-19 0.000423513)
(-0.0177832 -4.20582e-23 0.00368194)
(-0.0355415 3.33562e-19 0.00708757)
(-0.0503674 -3.22307e-19 0.00989772)
(-0.0657485 6.21391e-19 0.01285)
(-0.078152 2.99398e-19 0.015194)
(-0.0911115 5.75605e-19 0.0176767)
(-0.0996459 0 0.0192925)
(-0.114022 0 0.0220292)
(-0.111165 0 0.0214503)
(-0.134893 0 0.0260868)
(-0.124193 4.66367e-19 0.0237144)
(-0.130152 0 0.0253482)
(-0.169992 0 0.0322755)
(-0.0730412 -4.06886e-19 0.0143114)
(-0.238582 3.75406e-19 0.0461267)
(-0.0639597 1.49503e-18 0.0113973)
(-0.181938 -6.75988e-19 0.0358246)
(-0.145584 0 0.027306)
(-0.133503 0 0.0263545)
(-0.223087 0 0.0417407)
(0.0127949 5.66461e-19 -0.000917796)
(-0.488205 -4.97852e-19 0.0939171)
(0.138303 0 -0.028976)
(-0.195902 1.71119e-18 0.0431303)
(-0.575228 9.17943e-19 0.104889)
(0.622852 1.86518e-18 -0.117497)
(-1.09773 0 0.21636)
(0.0141769 0 -0.0154042)
(0.576933 -7.03163e-19 -0.0959392)
(-2.51801 0 0.485409)
(0.991849 -8.79026e-19 -0.210826)
(0.45866 -5.90167e-19 -0.0754896)
(-1.10201 0 0.219782)
(31.9237 0 3.90482)
(31.1068 0 2.82545)
(28.5733 -1.29553e-20 1.02802)
(25.2258 0 -0.380611)
(21.9694 0 -1.2257)
(19.1927 1.5099e-20 -1.651)
(16.9316 1.33066e-20 -1.81946)
(15.1043 0 -1.85104)
(13.615 4.20988e-22 -1.81723)
(12.3834 2.06652e-20 -1.7546)
(11.3489 -3.77183e-20 -1.68069)
(10.4672 -1.74014e-20 -1.60385)
(9.70602 1.14492e-22 -1.52808)
(9.04146 -1.46425e-20 -1.45523)
(8.45557 -1.34254e-20 -1.38608)
(7.93461 1.22541e-20 -1.32091)
(7.4679 -2.25374e-20 -1.25968)
(7.047 -2.06261e-20 -1.20225)
(6.66517 0 -1.14838)
(6.31695 0 -1.09784)
(5.99785 1.56899e-20 -1.05038)
(5.70419 1.42973e-20 -1.00575)
(5.43289 0 -0.963736)
(5.18134 0 -0.924126)
(4.94735 2.14171e-20 -0.886728)
(4.72904 0 -0.851367)
(4.52479 -3.48906e-20 -0.817883)
(4.33322 1.56769e-20 -0.786133)
(4.1531 0 -0.755984)
(3.98338 1.25209e-20 -0.727317)
(3.82312 1.11146e-20 -0.700024)
(3.6715 0 -0.674006)
(3.5278 -8.61295e-21 -0.649172)
(3.39135 -1.4986e-20 -0.62544)
(3.26159 1.23283e-23 -0.602734)
(3.13799 0 -0.580986)
(3.02008 0 -0.560131)
(2.90744 7.64141e-21 -0.540114)
(2.79968 0 -0.520878)
(2.69646 0 -0.502376)
(2.59747 0 -0.484561)
(2.50241 0 -0.467391)
(2.41101 0 -0.450826)
(2.32303 0 -0.434829)
(2.23825 0 -0.419364)
(2.15645 2.81266e-21 -0.404402)
(2.07743 -4.30151e-21 -0.389909)
(2.00103 0 -0.375861)
(1.92707 -6.89911e-21 -0.362228)
(1.8554 0 -0.348989)
(1.78587 0 -0.336115)
(1.71835 1.97799e-20 -0.32359)
(1.6527 0 -0.311387)
(1.58882 -2.28384e-20 -0.299492)
(1.52657 2.40756e-20 -0.287879)
(1.46587 0 -0.276541)
(1.40659 2.61709e-20 -0.265446)
(1.34868 0 -0.254595)
(1.29198 0 -0.243954)
(1.2365 0 -0.23353)
(1.18204 5.75358e-20 -0.223284)
(1.12867 5.83077e-20 -0.213233)
(1.07615 2.86989e-23 -0.203328)
(1.02461 -1.18641e-19 -0.193602)
(0.97376 2.5149e-23 -0.183992)
(0.923803 0 -0.174549)
(0.874383 0 -0.165193)
(0.825809 -1.18955e-19 -0.155997)
(0.77762 3.83886e-23 -0.146859)
(0.73027 0 -0.137885)
(0.683155 0 -0.128938)
(0.636921 -1.15539e-19 -0.120168)
(0.59078 2.90272e-23 -0.111396)
(0.545626 2.69954e-23 -0.102826)
(0.50043 0 -0.0942258)
(0.456405 0 -0.0858684)
(0.412209 -2.14749e-19 -0.0774533)
(0.369459 2.10768e-19 -0.0693399)
(0.32642 0 -0.0611411)
(0.285199 0 -0.0533233)
(0.243579 0 -0.0453927)
(0.204256 0 -0.0379432)
(0.164421 0 -0.0303519)
(0.127469 0 -0.0233629)
(0.0898758 0 -0.0161996)
(0.0558599 0 -0.00977866)
(0.0210177 -6.69759e-19 -0.00314281)
(-0.00947256 -3.24392e-19 0.00259874)
(-0.0409868 -3.13505e-19 0.00860585)
(-0.0675174 3.02865e-19 0.0135709)
(-0.0949633 -5.83734e-19 0.0188115)
(-0.117326 -2.81223e-19 0.0229771)
(-0.140532 -2.70264e-19 0.0273855)
(-0.156487 0 0.0303969)
(-0.181426 0 0.0350303)
(-0.178902 0 0.0345626)
(-0.218836 0 0.0423469)
(-0.202022 -4.37529e-19 0.0383256)
(-0.2151 0 0.0423311)
(-0.277083 0 0.0516951)
(-0.125624 3.81508e-19 0.0252369)
(-0.393586 0 0.0759266)
(-0.104081 -7.00614e-19 0.0175648)
(-0.3098 6.33478e-19 0.0620117)
(-0.237936 0 0.0436501)
(-0.227374 0 0.0457247)
(-0.36411 0 0.0662646)
(-0.00171278 5.30626e-19 0.00570485)
(-0.788676 0 0.149915)
(0.220546 -5.16396e-19 -0.0492815)
(-0.360974 1.56624e-22 0.0858345)
(-0.886446 -8.59099e-19 0.151249)
(0.939905 -1.74621e-18 -0.169995)
(-1.77729 0 0.354714)
(0.124635 9.02283e-19 -0.0621737)
(0.771473 6.57722e-19 -0.0964497)
(-4.07143 5.31156e-19 0.776853)
(1.76611 0 -0.400804)
(0.63599 5.51825e-19 -0.0786769)
(-1.78667 0 0.36793)
(32.4443 0 2.96395)
(33.009 0 2.77646)
(32.4538 1.22471e-20 1.73019)
(30.8078 0 0.526788)
(28.5506 -1.22836e-20 -0.480308)
(26.1298 2.4983e-20 -1.20471)
(23.8059 0 -1.66875)
(21.6954 -2.17892e-20 -1.93346)
(19.8319 2.08852e-20 -2.06293)
(18.2059 1.88762e-20 -2.1073)
(16.7899 1.77336e-20 -2.10048)
(15.5526 -1.6109e-20 -2.06378)
(14.4654 1.49896e-20 -2.0102)
(13.504 -2.73114e-20 -1.94757)
(12.6483 0 -1.88062)
(11.8819 -2.31163e-20 -1.81224)
(11.1916 0 -1.74417)
(10.5663 0 -1.67746)
(9.99723 0 -1.61273)
(9.47687 1.62177e-20 -1.55032)
(8.9991 -3.40701e-23 -1.49039)
(8.55872 -2.58899e-23 -1.43299)
(8.15138 1.22829e-20 -1.3781)
(7.77337 0 -1.32567)
(7.42151 0 -1.2756)
(7.09308 0 -1.22779)
(6.78572 3.29843e-20 -1.18213)
(6.49738 -5.80658e-24 -1.13851)
(6.22628 0 -1.09682)
(5.97083 0 -1.05695)
(5.72966 0 -1.01879)
(5.50154 0 -0.982243)
(5.28537 1.6292e-20 -0.947215)
(5.0802 0 -0.913618)
(4.88514 -1.22319e-20 -0.881367)
(4.69942 0 -0.850383)
(4.52232 0 -0.820593)
(4.35321 -7.24746e-21 -0.791928)
(4.19152 0 -0.764323)
(4.03673 0 -0.737718)
(3.88834 3.33443e-21 -0.712055)
(3.74592 -4.46814e-21 -0.687281)
(3.60907 0 -0.663343)
(3.47741 -5.99026e-22 -0.640195)
(3.35061 0 -0.617792)
(3.22834 -5.29476e-21 -0.596092)
(3.11031 1.90344e-23 -0.575053)
(2.99626 0 -0.554642)
(2.88592 0 -0.534818)
(2.77906 7.53155e-21 -0.515553)
(2.67546 1.6952e-20 -0.496808)
(2.57492 -3.7325e-20 -0.478561)
(2.47722 0 -0.460774)
(2.38222 -2.15105e-20 -0.443431)
(2.2897 -2.27264e-20 -0.426491)
(2.19956 -2.3747e-20 -0.409946)
(2.11156 -2.46566e-20 -0.393753)
(2.02566 0 -0.377911)
(1.94161 0 -0.362374)
(1.85941 -5.33278e-20 -0.347151)
(1.77878 -1.08511e-19 -0.332185)
(1.6998 -5.49941e-20 -0.317503)
(1.62213 3.07995e-23 -0.303034)
(1.54594 5.59216e-20 -0.288824)
(1.47082 5.61518e-20 -0.274784)
(1.39704 0 -0.260986)
(1.3241 0 -0.247314)
(1.25243 1.12101e-19 -0.233876)
(1.18136 2.23078e-19 -0.220522)
(1.11154 0 -0.207404)
(1.0421 1.0985e-19 -0.194328)
(0.973945 1.08751e-19 -0.181505)
(0.905963 1.07507e-19 -0.168681)
(0.839413 2.1216e-19 -0.156147)
(0.772827 0 -0.14357)
(0.707923 0 -0.13134)
(0.642795 2.02084e-19 -0.119026)
(0.579727 -3.96564e-19 -0.107144)
(0.51626 -1.94237e-19 -0.0951376)
(0.455377 0 -0.0836766)
(0.393933 0 -0.07205)
(0.335748 0 -0.0611129)
(0.276842 0 -0.0499677)
(0.222027 0 -0.0396866)
(0.166314 0 -0.0291502)
(0.115682 -3.24574e-19 -0.0196807)
(0.0638989 4.06625e-23 -0.00989795)
(0.0183101 3.04595e-19 -0.00139891)
(-0.0287022 0 0.00748326)
(-0.0685866 2.84287e-19 0.01486)
(-0.109753 2.73957e-19 0.022649)
(-0.14361 0 0.0288721)
(-0.178557 -2.53558e-19 0.0354301)
(-0.203471 -4.87355e-19 0.0401015)
(-0.239974 0 0.0467155)
(-0.23973 0 0.0467522)
(-0.296262 0 0.0576848)
(-0.274543 -4.10143e-19 0.0520417)
(-0.297123 0 0.059244)
(-0.378141 0 0.0697476)
(-0.180297 3.57501e-19 0.037144)
(-0.54363 -3.29633e-19 0.104862)
(-0.142578 0 0.023014)
(-0.44149 0 0.0897296)
(-0.32541 0 0.0586383)
(-0.3249 0 0.0664653)
(-0.498979 0 0.088948)
(-0.0323654 7.177e-23 0.0167684)
(-1.06891 0 0.201651)
(0.290944 4.83227e-19 -0.0691471)
(-0.546058 -7.4957e-19 0.136471)
(-1.14643 0 0.184129)
(1.18157 -4.51239e-22 -0.206422)
(-2.4095 0 0.48737)
(0.289913 -3.90338e-22 -0.126704)
(0.835181 0 -0.0578654)
(-5.50554 -4.96613e-19 1.04145)
(2.58734 0 -0.616679)
(0.724899 5.16541e-19 -0.0518594)
(-2.40077 0 0.511369)
(32.5457 0 2.11248)
(33.3025 0 2.23671)
(33.6483 0 1.76023)
(33.2825 0 0.964576)
(32.2575 1.15948e-20 0.121101)
(30.7806 -9.02682e-22 -0.629557)
(29.0575 0 -1.23189)
(27.2474 2.0566e-20 -1.67668)
(25.4602 0 -1.98111)
(23.7621 -3.51325e-20 -2.17346)
(22.1855 0 -2.28238)
(20.7408 1.52081e-20 -2.33191)
(19.4253 0 -2.34041)
(18.2303 2.57863e-20 -2.32115)
(17.1446 -1.17389e-20 -2.28346)
(16.1566 2.16806e-20 -2.2338)
(15.2553 -1.98367e-20 -2.17663)
(14.4309 -1.81979e-20 -2.115)
(13.6744 0 -2.05104)
(12.9782 -1.5314e-20 -1.9862)
(12.3357 -1.39814e-20 -1.92147)
(11.7408 -2.54545e-20 -1.85754)
(11.1886 -1.15984e-20 -1.79486)
(10.6747 0 -1.73374)
(10.1952 0 -1.67435)
(9.74667 0 -1.61681)
(9.32627 -1.55675e-20 -1.56116)
(8.93137 -1.39932e-20 -1.50741)
(8.55966 0 -1.45556)
(8.20913 0 -1.40555)
(7.87797 9.92564e-21 -1.35735)
(7.56456 0 -1.31089)
(7.26747 1.56114e-24 -1.2661)
(6.98541 -1.34006e-20 -1.22293)
(6.71721 1.15634e-20 -1.1813)
(6.46183 0 -1.14114)
(6.21832 0 -1.10239)
(5.98581 6.8403e-21 -1.06498)
(5.76354 0 -1.02885)
(5.55078 0 -0.993938)
(5.34688 -3.14658e-21 -0.960179)
(5.15124 4.21616e-21 -0.927517)
(4.96331 0 -0.895897)
(4.78258 5.6517e-22 -0.865267)
(4.60858 0 -0.835574)
(4.44088 2.48803e-21 -0.806772)
(4.27907 3.81517e-21 -0.778811)
(4.12278 0 -0.751652)
(3.97164 6.09806e-21 -0.725247)
(3.82537 -7.10267e-21 -0.699562)
(3.68361 -3.19407e-20 -0.674549)
(3.54613 1.75828e-20 -0.650183)
(3.4126 -1.89827e-20 -0.626414)
(3.28284 2.56471e-23 -0.603224)
(3.15653 0 -0.580562)
(3.03354 2.23824e-20 -0.558418)
(2.91355 2.32375e-20 -0.536736)
(2.79648 -2.39534e-20 -0.515518)
(2.682 2.45795e-20 -0.494699)
(2.5701 5.02424e-20 -0.474297)
(2.46042 5.10944e-20 -0.454235)
(2.35302 -5.17377e-20 -0.43455)
(2.24747 5.22779e-20 -0.415146)
(2.14397 0 -0.396088)
(2.04199 0 -0.377253)
(1.94187 5.29046e-20 -0.358741)
(1.84294 0 -0.340397)
(1.74575 0 -0.322364)
(1.64943 -1.04951e-19 -0.304441)
(1.5548 0 -0.286833)
(1.46074 -1.03352e-19 -0.269277)
(1.36842 -2.04575e-19 -0.252059)
(1.27636 0 -0.234836)
(1.18621 -9.97489e-20 -0.217998)
(1.09605 0 -0.201098)
(1.00811 0 -0.184658)
(0.919895 -1.89875e-19 -0.168102)
(0.834381 1.86342e-19 -0.152116)
(0.748351 3.91806e-23 -0.135958)
(0.665698 0 -0.12052)
(0.58231 0 -0.104855)
(0.503173 0 -0.0900998)
(0.423093 -1.65889e-19 -0.0750599)
(0.348348 1.61482e-19 -0.0611618)
(0.272435 0 -0.0469152)
(0.203154 6.09319e-19 -0.0340803)
(0.132391 2.95189e-19 -0.020818)
(0.0697286 -5.71635e-19 -0.00926116)
(0.00523912 -2.7612e-19 0.00281753)
(-0.0498794 -5.33356e-19 0.0128922)
(-0.10666 0 0.023539)
(-0.153769 0 0.0320795)
(-0.202192 2.37752e-19 0.0410609)
(-0.237808 4.56903e-19 0.0476922)
(-0.287104 -4.37416e-19 0.0563897)
(-0.291307 0 0.0574076)
(-0.364916 0 0.0714929)
(-0.339897 3.84279e-19 0.0644006)
(-0.374299 3.64525e-19 0.0756906)
(-0.471584 0 0.0857562)
(-0.235808 -3.34808e-19 0.0499066)
(-0.686496 3.08665e-19 0.132148)
(-0.179505 0 0.0276677)
(-0.57519 0 0.118689)
(-0.40671 0 0.0716659)
(-0.425586 0 0.0885689)
(-0.626805 0 0.109089)
(-0.0774538 -4.64781e-19 0.0327071)
(-1.32744 0 0.247431)
(0.346133 0 -0.0877354)
(-0.744998 0 0.194623)
(-1.35869 7.50491e-19 0.201074)
(1.35001 7.64286e-19 -0.222758)
(-2.98805 0 0.610678)
(0.488205 -7.88498e-19 -0.207842)
(0.788442 0 0.0242745)
(-6.79427 -4.63014e-19 1.26584)
(3.40284 0 -0.85152)
(0.736659 -4.82725e-19 0.00937188)
(-2.91234 0 0.643111)
(32.6168 -4.95653e-21 1.49932)
(33.1992 -6.15836e-21 1.63766)
(33.7251 7.31776e-21 1.44549)
(33.9498 8.24994e-21 0.98329)
(33.7561 0 0.390089)
(33.1557 -9.89474e-21 -0.227064)
(32.222 0 -0.802314)
(31.046 1.73706e-20 -1.29859)
(29.7166 1.66042e-20 -1.70044)
(28.3101 3.2019e-20 -2.00828)
(26.8863 -1.47253e-20 -2.23182)
(25.4873 1.37357e-20 -2.3846)
(24.1405 0 -2.48055)
(22.8614 0 -2.53233)
(21.6573 1.10672e-20 -2.5506)
(20.5301 -1.14583e-22 -2.54389)
(19.4781 1.76055e-22 -2.51888)
(18.4978 1.3585e-22 -2.48065)
(17.5846 0 -2.43304)
(16.7337 0 -2.37895)
(15.9401 0 -2.32054)
(15.1991 2.39171e-20 -2.25941)
(14.5064 1.08715e-20 -2.19676)
(13.8576 0 -2.13349)
(13.2492 0 -2.07026)
(12.6778 1.62217e-20 -2.00755)
(12.1401 0 -1.94572)
(11.6335 0 -1.88501)
(11.1553 0 -1.82561)
(10.7034 0 -1.76763)
(10.2756 -6.17749e-24 -1.71114)
(9.87013 0 -1.6562)
(9.48523 -1.39779e-24 -1.6028)
(9.11937 1.26321e-20 -1.55096)
(8.77117 3.00781e-24 -1.50065)
(8.43936 0 -1.45185)
(8.12277 0 -1.40452)
(7.82034 0 -1.35863)
(7.5311 0 -1.31412)
(7.25418 0 -1.27096)
(6.98873 0 -1.22908)
(6.73402 0 -1.18845)
(6.48934 -2.21465e-21 -1.14901)
(6.25404 -5.69289e-22 -1.11071)
(6.02753 0 -1.07351)
(5.80925 2.30905e-21 -1.03734)
(5.59868 0 -1.00218)
(5.39535 0 -0.967961)
(5.19879 -1.14718e-20 -0.934647)
(5.0086 0 -0.902201)
(4.82436 1.5026e-20 -0.870567)
(4.64574 0 -0.839717)
(4.47234 3.57224e-20 -0.809596)
(4.30389 2.4837e-23 -0.780183)
(4.14001 0 -0.751417)
(3.98051 0 -0.723291)
(3.82497 0 -0.695734)
(3.67329 4.50697e-20 -0.668753)
(3.52505 -4.62452e-20 -0.642267)
(3.38022 -4.72094e-20 -0.6163)
(3.23832 -4.80104e-20 -0.590756)
(3.09944 9.73213e-20 -0.565684)
(2.96304 4.91216e-20 -0.540964)
(2.82934 0 -0.516676)
(2.69766 0 -0.492668)
(2.56843 -2.45445e-23 -0.469066)
(2.44079 0 -0.445672)
(2.31544 0 -0.422671)
(2.19126 -9.85858e-20 -0.399806)
(2.06929 0 -0.377336)
(1.94808 0 -0.35493)
(1.82911 1.92187e-19 -0.332948)
(1.71053 -9.49284e-20 -0.310955)
(1.59436 0 -0.289445)
(1.47821 0 -0.267852)
(1.36486 0 -0.246835)
(1.25117 1.78322e-19 -0.225664)
(1.14086 0 -0.205208)
(1.0299 3.42648e-19 -0.184525)
(0.923139 -1.67614e-19 -0.164746)
(0.815448 0 -0.144667)
(0.713037 0 -0.125731)
(0.609429 1.55668e-19 -0.106421)
(0.512446 -2.56964e-23 -0.0885463)
(0.413993 1.47157e-19 -0.070217)
(0.323782 -2.85748e-19 -0.0536633)
(0.231729 2.7677e-19 -0.036555)
(0.149763 2.68002e-19 -0.0215991)
(0.0655443 2.58889e-19 -0.00596721)
(-0.00694717 2.87363e-23 0.00713208)
(-0.0815118 0 0.0209791)
(-0.143883 -2.31887e-19 0.032137)
(-0.207795 0 0.0438536)
(-0.256087 0 0.0527674)
(-0.319678 4.09777e-19 0.0637119)
(-0.330745 0 0.0661943)
(-0.42204 0 0.0834331)
(-0.395793 0 0.075088)
(-0.444275 -3.41309e-19 0.0913115)
(-0.555433 0 0.0995584)
(-0.29046 -3.13418e-19 0.0633093)
(-0.819645 0 0.157397)
(-0.21471 0 0.0316151)
(-0.708561 0 0.148482)
(-0.480499 0 0.0825272)
(-0.528653 0 0.111978)
(-0.746277 -4.55796e-19 0.126658)
(-0.134951 -4.34833e-19 0.0529618)
(-1.56269 3.81168e-19 0.287645)
(0.38346 0 -0.10431)
(-0.951499 0 0.258735)
(-1.52733 -1.40288e-18 0.20415)
(1.44944 0 -0.221404)
(-3.50763 4.65753e-19 0.723201)
(0.696737 0 -0.29933)
(0.655918 5.39461e-19 0.143672)
(-7.907 4.3268e-19 1.44667)
(4.14735 0 -1.09225)
(0.682068 -4.5162e-19 0.101595)
(-3.28722 0 0.755815)
(32.6702 4.6677e-21 1.04813)
(33.0805 1.13493e-20 1.13389)
(33.5259 -6.89294e-21 1.04973)
(33.8904 -7.845e-22 0.785259)
(34.0629 7.467e-21 0.393894)
(33.9874 0 -0.0624264)
(33.6558 0 -0.534586)
(33.0883 -1.63569e-20 -0.986838)
(32.3203 -3.03654e-20 -1.39553)
(31.3943 -7.09996e-22 -1.7476)
(30.3539 1.38646e-20 -2.03855)
(29.2397 -1.29327e-20 -2.26972)
(28.0869 1.16877e-20 -2.44595)
(26.9236 0 -2.57384)
(25.7716 0 -2.66058)
(24.6464 -9.47725e-21 -2.71319)
(23.5584 3.46565e-20 -2.73807)
(22.5142 3.18752e-20 -2.7408)
(21.5172 0 -2.7261)
(20.5688 0 -2.69787)
(19.6688 0 -2.65929)
(18.816 -6.71944e-23 -2.61289)
(18.0086 -2.04212e-20 -2.56072)
(17.2446 9.26531e-21 -2.50437)
(16.5215 1.68185e-20 -2.44513)
(15.837 -3.04993e-20 -2.38401)
(15.1886 1.37425e-20 -2.32178)
(14.5741 1.23646e-20 -2.25906)
(13.9913 1.10844e-20 -2.19633)
(13.438 0 -2.13396)
(12.9124 -8.80432e-21 -2.07224)
(12.4124 7.76974e-21 -2.01138)
(11.9366 -6.82678e-21 -1.95153)
(11.4831 -1.18872e-20 -1.89282)
(11.0507 -2.05262e-20 -1.83534)
(10.6378 0 -1.77912)
(10.2432 0 -1.72422)
(9.86584 -6.08888e-21 -1.67064)
(9.50448 0 -1.61839)
(9.15815 3.81777e-21 -1.56745)
(8.82592 2.81574e-21 -1.51782)
(8.5069 0 -1.46946)
(8.20028 4.18412e-21 -1.42235)
(7.90529 5.35737e-22 -1.37645)
(7.62121 0 -1.33173)
(7.3474 -2.17273e-21 -1.28814)
(7.08321 -3.3344e-21 -1.24565)
(6.82809 0 -1.20422)
(6.58146 1.07633e-20 -1.1638)
(6.34284 -6.25078e-21 -1.12436)
(6.11171 -1.40803e-20 -1.08584)
(5.88766 0 -1.04823)
(5.6702 -2.50953e-23 -1.01146)
(5.45901 3.57963e-20 -0.975503)
(5.2536 0 -0.940304)
(5.05373 0 -0.905853)
(4.85891 -2.05067e-20 -0.87207)
(4.66898 -2.11775e-20 -0.838968)
(4.48343 4.34391e-20 -0.80645)
(4.30221 4.4378e-20 -0.77455)
(4.12474 4.5127e-20 -0.743152)
(3.95112 -4.57193e-20 -0.712318)
(3.78065 -9.22969e-20 -0.681902)
(3.61363 0 -0.652006)
(3.4492 0 -0.622444)
(3.28788 -9.34156e-20 -0.59337)
(3.12861 0 -0.564544)
(2.97223 0 -0.536192)
(2.81737 9.25934e-20 -0.507998)
(2.66527 0 -0.480285)
(2.51417 -9.1115e-20 -0.452639)
(2.36586 -3.25644e-23 -0.425509)
(2.21806 8.91197e-20 -0.398355)
(2.07325 0 -0.371788)
(1.92847 0 -0.345107)
(1.7871 0 -0.319126)
(1.64532 1.67246e-19 -0.292941)
(1.50762 0 -0.267625)
(1.36912 -1.60711e-19 -0.242015)
(1.23568 3.14423e-19 -0.217502)
(1.10108 0 -0.192603)
(0.972815 0 -0.169092)
(0.843058 0 -0.145103)
(0.721264 -2.53963e-23 -0.12286)
(0.597648 -1.37956e-19 -0.100037)
(0.48395 -2.67765e-19 -0.0793786)
(0.368002 -2.594e-19 -0.0580159)
(0.264216 2.51084e-19 -0.0392862)
(0.157707 0 -0.0196988)
(0.0654116 2.34185e-19 -0.00322044)
(-0.0294217 0 0.0142167)
(-0.109354 2.172e-19 0.0283207)
(-0.191088 0 0.0431326)
(-0.254293 0 0.0546812)
(-0.334008 0 0.0680733)
(-0.354606 -3.68261e-19 0.0725484)
(-0.464414 -3.50413e-19 0.0929626)
(-0.439493 0 0.083487)
(-0.504202 3.19398e-19 0.105646)
(-0.627393 -3.04592e-19 0.110729)
(-0.342037 2.93258e-19 0.0770383)
(-0.940321 -2.70196e-19 0.179994)
(-0.247718 0 0.034881)
(-0.838725 0 0.178581)
(-0.545511 0 0.0909213)
(-0.632941 0 0.136567)
(-0.855813 4.2621e-19 0.141312)
(-0.202402 -5.93075e-23 0.0771647)
(-1.77354 -7.1259e-19 0.321539)
(0.401348 0 -0.118337)
(-1.15921 0 0.327335)
(-1.65812 6.55424e-19 0.194137)
(1.4875 0 -0.202475)
(-3.96445 -4.35247e-19 0.823161)
(0.892997 0 -0.396484)
(0.465965 -1.00852e-18 0.295982)
(-8.81314 0 1.5745)
(4.75154 0 -1.32506)
(0.570921 4.21882e-19 0.222645)
(-3.49055 0 0.841285)
(32.6935 0 0.695647)
(32.9943 -5.22024e-21 0.737722)
(33.3307 0 0.68705)
(33.6606 -6.57305e-21 0.522876)
(33.9208 -1.33988e-20 0.260031)
(34.0604 0 -0.0697654)
(34.0508 6.68248e-21 -0.435104)
(33.8808 0 -0.80989)
(33.5507 9.02622e-22 -1.17393)
(33.0701 -2.57259e-20 -1.51272)
(32.455 0 -1.81695)
(31.7258 0 -2.08172)
(30.9046 -1.09929e-20 -2.30543)
(30.0139 0 -2.48883)
(29.0748 0 -2.63419)
(28.1063 0 -2.74479)
(27.1245 -1.61885e-20 -2.82442)
(26.143 -1.49049e-20 -2.87704)
(25.1722 -1.35136e-20 -2.90653)
(24.2202 0 -2.91654)
(23.2929 0 -2.91037)
(22.3943 -1.05058e-20 -2.89092)
(21.5269 9.57868e-21 -2.86072)
(20.6922 -8.71428e-21 -2.82191)
(19.8906 -1.58182e-20 -2.7763)
(19.1222 2.85694e-20 -2.72542)
(18.3865 -5.40182e-23 -2.6705)
(17.6824 -1.16288e-20 -2.6126)
(17.0091 -1.04247e-20 -2.55255)
(16.3653 0 -2.49106)
(15.7497 0 -2.42869)
(15.1609 -7.30691e-21 -2.3659)
(14.5977 0 -2.30306)
(14.0587 1.11786e-20 -2.24046)
(13.5427 9.65007e-21 -2.17835)
(13.0484 -8.23193e-21 -2.11692)
(12.5747 0 -2.0563)
(12.1203 5.72523e-21 -1.99661)
(11.6843 4.61615e-21 -1.93793)
(11.2656 3.98406e-24 -1.88034)
(10.8633 -5.29959e-21 -1.82385)
(10.4763 0 -1.76851)
(10.1039 -1.9741e-21 -1.71431)
(9.74527 0 -1.66126)
(9.39954 0 -1.60936)
(9.06602 0 -1.55859)
(8.744 1.39304e-23 -1.50893)
(8.43286 0 -1.46037)
(8.13194 -5.05087e-21 -1.41286)
(7.84069 1.17353e-20 -1.36638)
(7.5585 1.32314e-20 -1.32089)
(7.28491 0 -1.27638)
(7.01934 -1.57494e-20 -1.23278)
(6.76141 -3.35866e-20 -1.19008)
(6.51055 0 -1.14821)
(6.26647 0 -1.10718)
(6.02857 1.9263e-20 -1.06689)
(5.7967 1.98543e-20 -1.02737)
(5.57021 -2.03906e-20 -0.988507)
(5.34905 -4.16104e-20 -0.95035)
(5.13252 0 -0.91276)
(4.92075 0 -0.87582)
(4.71287 2.88026e-23 -0.839353)
(4.50925 -4.35775e-20 -0.80349)
(4.30885 0 -0.768004)
(4.11229 4.38326e-20 -0.733088)
(3.91828 0 -0.69845)
(3.72782 0 -0.664367)
(3.53926 0 -0.630457)
(3.35407 0 -0.597112)
(3.17015 3.46004e-23 -0.563831)
(2.98961 -3.2292e-23 -0.531157)
(2.8097 -8.35426e-20 -0.498439)
(2.63338 0 -0.466413)
(2.45711 -8.11623e-20 -0.434231)
(2.2849 0 -0.402879)
(2.11219 -1.56826e-19 -0.37126)
(1.9443 1.53782e-19 -0.34067)
(1.7754 -1.50593e-19 -0.309702)
(1.61246 -1.47355e-19 -0.280035)
(1.44806 0 -0.249876)
(1.29111 1.40373e-19 -0.221369)
(1.13229 0 -0.192252)
(0.982839 -1.3306e-19 -0.165216)
(0.83113 -1.29207e-19 -0.137446)
(0.691091 2.50843e-19 -0.112261)
(0.548315 0 -0.0861902)
(0.419882 -4.70296e-19 -0.0632729)
(0.288178 0 -0.0392784)
(0.173324 2.19235e-19 -0.0190295)
(0.0553785 0 0.00242894)
(-0.0447316 2.03298e-19 0.0198699)
(-0.14699 0 0.038182)
(-0.227646 3.75093e-19 0.0527478)
(-0.325691 -3.58994e-19 0.0688539)
(-0.358763 3.44618e-19 0.0758703)
(-0.488196 3.27883e-19 0.0995146)
(-0.467575 0 0.089378)
(-0.550686 -5.97587e-19 0.118158)
(-0.684693 5.69815e-19 0.118873)
(-0.387721 0 0.090676)
(-1.04546 2.52698e-19 0.199395)
(-0.277572 0 0.0374266)
(-0.962252 0 0.208336)
(-0.600493 -4.48055e-19 0.0966221)
(-0.736781 0 0.162122)
(-0.953473 0 0.152718)
(-0.277023 3.80089e-19 0.104815)
(-1.95879 6.65783e-19 0.349135)
(0.399534 3.69464e-19 -0.129544)
(-1.36191 0 0.398947)
(-1.75778 0 0.172631)
(1.47394 0 -0.167962)
(-4.35584 0 0.909528)
(1.05799 6.42115e-19 -0.495049)
(0.24716 4.71264e-19 0.47493)
(-9.48377 0 1.64555)
(5.15646 0 -1.53752)
(0.409949 0 0.368437)
(-3.48877 0 0.890902)
(32.6913 4.16879e-21 0.407874)
(32.9229 0 0.422731)
(33.1782 4.88651e-21 0.381008)
(33.4425 0 0.26669)
(33.6848 5.99052e-21 0.0803308)
(33.8738 0 -0.163369)
(33.9864 -6.28068e-21 -0.445275)
(34.0077 1.15095e-20 -0.747451)
(33.9284 2.35016e-20 -1.05474)
(33.7438 7.29991e-22 -1.35516)
(33.4534 0 -1.63968)
(33.0607 0 -1.90212)
(32.5721 0 -2.13859)
(31.997 0 -2.34704)
(31.3463 0 -2.52671)
(30.6321 0 -2.67786)
(29.8669 1.4582e-20 -2.80152)
(29.0629 -1.35045e-20 -2.89928)
(28.2318 1.26974e-20 -2.97311)
(27.384 0 -3.02524)
(26.5288 0 -3.05801)
(25.6741 9.67112e-21 -3.07374)
(24.8262 8.84108e-21 -3.07468)
(23.9905 8.06162e-21 -3.06296)
(23.1709 0 -3.04049)
(22.3704 -1.33889e-20 -3.00904)
(21.5912 -2.4112e-20 -2.97013)
(20.8348 1.0828e-20 -2.92512)
(20.1022 0 -2.87519)
(19.3937 0 -2.82133)
(18.7095 0 -2.76442)
(18.0494 6.83066e-21 -2.70517)
(17.413 0 -2.64422)
(16.7997 0 -2.58208)
(16.2089 9.04066e-21 -2.51918)
(15.64 7.73313e-21 -2.45588)
(15.092 0 -2.3925)
(14.5642 5.37482e-21 -2.32928)
(14.0557 -8.67089e-21 -2.26643)
(13.5657 -3.37537e-21 -2.2041)
(13.0935 2.49123e-21 -2.14242)
(12.6381 0 -2.08151)
(12.1987 0 -2.02144)
(11.7747 0 -1.96226)
(11.3652 -7.38997e-22 -1.90403)
(10.9695 0 -1.84678)
(10.5869 2.92996e-21 -1.79052)
(10.2168 3.86189e-21 -1.73526)
(9.85846 0 -1.68099)
(9.5113 -5.50303e-21 -1.62773)
(9.17467 0 -1.57544)
(8.84808 0 -1.52412)
(8.53088 -1.474e-20 -1.47372)
(8.22267 2.18984e-23 -1.42425)
(7.92278 1.66068e-20 -1.37565)
(7.63093 0 -1.32792)
(7.34642 0 -1.28097)
(7.06907 -1.86331e-20 -1.23485)
(6.79813 0 -1.18943)
(6.53357 3.9046e-20 -1.14478)
(6.27455 0 -1.10073)
(6.02122 0 -1.05741)
(5.77259 8.11939e-20 -1.01459)
(5.52906 8.17341e-20 -0.972446)
(5.2894 4.10111e-20 -0.930707)
(5.05438 0 -0.889612)
(4.82242 0 -0.848809)
(4.59473 4.08982e-20 -0.808638)
(4.36933 8.1372e-20 -0.768638)
(4.14797 0 -0.729286)
(3.92812 8.01219e-20 -0.689979)
(3.7123 -7.92835e-20 -0.651373)
(3.49723 7.83157e-20 -0.612682)
(3.2864 -7.72223e-20 -0.574794)
(3.07559 7.60711e-20 -0.536689)
(2.86953 0 -0.499549)