/*--------------------------------*- C++ -*----------------------------------*\
| =========                 |                                                 |
| \\      /  F ield         | OpenFOAM: The Open Source CFD Toolbox           |
|  \\    /   O peration     | Version:  2412                                  |
|   \\  /    A nd           | Website:  www.openfoam.com                      |
|    \\/     M anipulation  |                                                 |
\*---------------------------------------------------------------------------*/
FoamFile
{
    version     2.0;
    format      ascii;
    arch        "LSB;label=32;scalar=64";
    class       volVectorField;
    location    "0.97";
    object      ddt0(U);
}
// * * * * * * * * * * * * * * * * * * * * * * * * * * * * * * * * * * * * * //

dimensions      [0 1 -2 0 0 0 0];

internalField   nonuniform List<vector> 
12600
(
(-4.86755 0 -2.19241)
(-6.94061 -1.84793e-19 -0.494286)
(-1.1072 1.24541e-18 -0.283112)
(6.3053 0 1.70469)
(8.14547 -8.43462e-19 2.95059)
(-4.87 0 -1.43536)
(-22.9796 3.27375e-18 -8.10921)
(-16.0924 0 -3.68959)
(27.1041 0 15.3864)
(53.1151 0 18.8509)
(3.70698 0 -11.4036)
(-74.2246 4.52993e-17 -38.5354)
(-64.4942 -7.13131e-17 -15.2934)
(50.5629 0 41.3276)
(124.083 -5.61175e-17 53.2524)
(33.5181 0 -12.3275)
(-122.825 -3.99821e-17 -76.8889)
(-136.751 0 -46.9148)
(27.1447 2.88832e-16 52.256)
(178.673 0 102.205)
(168.443 0 42.6433)
(-13.3249 0 -102.094)
(-191.867 -2.27391e-16 -176.634)
(-194.7 -7.92062e-16 -100.903)
(-54.0169 -9.11233e-18 26.5334)
(53.9616 -1.58184e-16 77.6269)
(67.4498 0 55.8584)
(28.9526 0 11.5577)
(8.2651 0 1.09554)
(18.9316 -6.93792e-17 9.77638)
(13.5548 -8.63354e-17 7.82078)
(-1.34889 0 -0.0957808)
(-8.19425 0 -4.17687)
(-5.3247 2.89054e-17 -2.97648)
(0.608403 -3.34965e-17 0.412015)
(4.15766 0 2.71746)
(2.8747 0 2.04927)
(-1.5268 7.1242e-17 -0.56618)
(-3.9607 0 -1.96217)
(-1.77428 -1.97322e-18 -0.686006)
(1.69834 -1.97121e-17 1.22208)
(1.93718 2.02909e-17 1.29761)
(-0.673025 0 -0.120574)
(-2.16915 2.8234e-18 -0.887618)
(-0.899144 -1.59331e-17 -0.235891)
(0.858399 8.0357e-18 0.592848)
(0.85045 2.18614e-17 0.502158)
(-0.275838 0 -0.146682)
(-0.585155 1.52734e-17 -0.376025)
(0.273095 -2.39805e-17 -0.0490681)
(1.03722 0 0.194541)
(0.934815 -3.42137e-19 0.0211569)
(0.414576 -1.16296e-17 -0.414679)
(0.053341 0 -0.686454)
(0.429918 -2.89996e-17 -0.197358)
(0.520322 0 -0.0987035)
(0.0418738 0 -0.139459)
(-0.453746 -5.27981e-19 -0.109004)
(-0.478819 -1.01884e-19 0.242663)
(-0.409912 1.98585e-17 0.438724)
(-0.569677 -1.17779e-17 0.505239)
(-1.06836 3.38078e-17 0.437752)
(-1.32013 0 0.436722)
(-1.29092 9.44121e-17 0.179182)
(-0.645104 6.82717e-17 0.0396973)
(0.569982 8.64311e-18 -0.144983)
(1.94139 -8.0694e-17 -0.226908)
(2.84384 0 -0.636938)
(2.77031 0 -1.90516)
(2.92411 0 -2.52864)
(3.64233 0 -2.40024)
(4.36087 0 -1.78344)
(4.56627 5.45759e-16 -0.621889)
(2.69154 -4.7895e-16 -0.784652)
(0.657827 0 0.069472)
(-0.684477 0 0.369897)
(-0.460737 6.69295e-16 0.418796)
(0.00514706 -7.10774e-20 0.356866)
(-0.945819 1.15284e-15 0.407301)
(-2.30205 0 0.619671)
(-2.52043 0 1.4091)
(-2.94257 0 0.588797)
(-2.71793 -3.38216e-19 1.58378)
(-3.29737 0 1.47963)
(-3.444 0 1.20249)
(-2.83804 2.79744e-16 1.04974)
(-0.140653 -5.53395e-18 1.8331)
(3.10464 0 -0.170157)
(4.84909 0 -2.82661)
(7.91217 -4.16321e-17 -6.01762)
(10.0586 -1.1843e-15 -6.12116)
(9.15895 -6.97051e-16 -5.39656)
(10.5414 1.02778e-15 -3.48144)
(9.62443 -1.26796e-18 -4.48154)
(-29.8428 6.68561e-18 14.499)
(-8.3447 1.46572e-15 1.78702)
(10.3129 0 -4.89905)
(9.99732 0 -3.96752)
(1.17013 0 -0.36275)
(0.154798 -6.11953e-15 -0.64947)
(1.33711 1.26533e-15 -1.26537)
(-5.71592 3.28071e-16 3.11502)
(-0.45686 1.32227e-16 0.709479)
(-1.50206 0 1.37759)
(-2.46997 0 1.04429)
(-1.4093 0 -0.252745)
(2.51145 1.70275e-15 -1.45585)
(9.66828 0 -4.96353)
(10.3508 1.37144e-15 -5.49456)
(6.74549 0 -3.9084)
(1.66401 0 -1.43416)
(-2.90269 1.1227e-15 1.02438)
(-6.68425 0 3.24608)
(-13.9153 0 8.08975)
(-15.8625 0 8.8334)
(-9.33656 -1.01886e-15 5.0857)
(-4.37093 0 2.43302)
(-6.58284 1.8642e-15 3.69745)
(-2.88822 0 1.71499)
(1.89594 3.82424e-19 -0.977833)
(-13.3234 2.83369e-19 -4.70184)
(-14.9287 2.26067e-20 -1.9366)
(-6.58315 1.62987e-18 0.168514)
(4.58948 0 3.84311)
(4.31758 6.42372e-18 5.38094)
(-13.7012 -1.06553e-17 -1.45604)
(-28.1592 -3.41551e-18 -10.2089)
(-6.40454 -1.81715e-17 -2.64108)
(39.9279 0 21.9281)
(43.0307 0 24.1754)
(-25.3052 0 -16.3563)
(-83.591 0 -49.6927)
(-33.2489 0 -15.3583)
(86.7925 0 58.6534)
(110.726 -5.49088e-17 65.5936)
(-22.1491 0 -26.5223)
(-150.816 -9.64838e-17 -104.736)
(-93.3387 0 -48.2936)
(97.4022 -5.43662e-16 89.532)
(196.481 -2.35195e-16 139.261)
(95.8363 0 23.3428)
(-164.413 -5.26855e-16 -255.432)
(-298.746 6.19255e-17 -364.212)
(-183.773 3.94836e-16 -176.756)
(34.6003 -7.60585e-17 100.966)
(123.522 0 186.686)
(95.1443 1.99168e-16 131.41)
(24.2301 0 24.6022)
(10.298 0 4.65097)
(24.2435 0 15.8905)
(12.509 4.23481e-17 9.81449)
(-5.06788 0 -2.05941)
(-9.79589 0 -6.21478)
(-4.42316 0 -3.41685)
(2.23257 0 1.06839)
(5.01941 0 3.53302)
(2.54644 0 2.25585)
(-2.3396 -7.33026e-17 -1.1715)
(-4.16725 0 -2.74248)
(-1.10981 6.7396e-17 -0.855068)
(2.45567 3.71387e-17 1.60344)
(2.07989 -2.50705e-17 1.52966)
(-0.949139 0 -0.374374)
(-2.22817 0 -1.24515)
(-0.589733 3.2642e-17 -0.277158)
(1.16389 -8.21254e-18 0.805438)
(0.884092 -2.40929e-17 0.680426)
(-0.418055 0 -0.133706)
(-0.686849 -1.76428e-17 -0.389596)
(0.217846 0 0.0362824)
(0.868823 0 0.315431)
(0.523182 1.37634e-17 0.0152165)
(-0.274355 0 -0.674706)
(-0.885536 0 -1.24955)
(-0.278874 2.93007e-17 -0.0394694)
(-0.478698 0 0.135247)
(-1.19487 0 0.320891)
(-1.95465 -6.27141e-19 0.57899)
(-2.26733 2.3356e-17 1.2239)
(-2.52262 -4.29286e-19 1.6578)
(-2.90382 0 1.85722)
(-3.41887 -3.3551e-17 1.81071)
(-3.34253 -7.14635e-17 1.55078)
(-2.69131 0 0.76354)
(-0.93537 -1.35391e-16 0.00351847)
(1.90065 1.35525e-18 -0.9943)
(5.18138 0 -1.99491)
(8.0373 -1.18305e-16 -3.49745)
(9.72577 0 -6.00371)
(11.3421 0 -7.71418)
(12.7917 0 -8.05053)
(13.3235 0 -7.00874)
(12.5346 -1.07759e-15 -3.3193)
(7.05773 4.56536e-16 -2.76411)
(1.54734 0 -0.253372)
(-2.27698 0 1.24846)
(-2.65895 6.56267e-16 1.59173)
(-2.43029 -8.0643e-19 1.58958)
(-4.27139 -1.25679e-18 2.14252)
(-7.10385 0 2.80336)
(-8.7838 0 4.26123)
(-9.59467 0 3.89753)
(-9.21447 1.61854e-18 5.22794)
(-8.94455 9.92965e-16 4.61166)
(-7.77166 -3.83353e-16 3.63533)
(-6.26792 -2.70288e-16 3.03544)
(-0.913038 -1.19423e-17 4.1425)
(7.95167 1.37235e-16 -3.10696)
(16.596 0 -9.91453)
(28.8267 3.99957e-17 -18.3768)
(33.2187 0 -19.6612)
(29.9723 6.68351e-16 -17.3546)
(26.7796 0 -13.0978)
(29.9378 4.46065e-15 -14.7663)
(-85.6046 1.07033e-15 47.4852)
(-20.0354 0 7.33613)
(28.178 0 -15.6971)
(26.3199 -1.38247e-15 -13.1132)
(3.12878 -2.35086e-15 -1.19815)
(2.3218 5.80987e-15 -2.03507)
(5.70556 -1.20173e-15 -3.6967)
(-16.8409 -3.11301e-16 9.74146)
(-2.5733 0 1.8876)
(-6.33536 -7.32048e-16 4.27206)
(-6.93073 0 3.49574)
(-1.68516 0 -0.722622)
(10.045 -1.60744e-15 -6.06975)
(30.1495 0 -16.8802)
(31.1743 2.77171e-18 -17.5064)
(19.2043 -8.82311e-16 -11.1209)
(3.46875 0 -2.40975)
(-10.5475 0 6.27779)
(-21.3158 0 11.8364)
(-41.5374 -1.27358e-15 24.5267)
(-47.0451 1.92302e-15 26.9426)
(-27.5077 9.5782e-16 15.4022)
(-11.543 0 6.67301)
(-18.3567 -1.75096e-15 10.6729)
(-9.05754 0 5.12231)
(4.99117 -3.55575e-15 -2.93311)
(-15.7316 -2.74485e-19 -3.2361)
(-16.1428 -1.30288e-18 -1.13288)
(-7.73694 -6.78055e-18 1.15069)
(2.0239 0 3.8136)
(-1.34796 7.39429e-18 3.85614)
(-18.7131 2.23794e-18 -0.403484)
(-25.522 0 -2.37112)
(0.304658 1.72469e-17 4.64886)
(34.7474 0 12.6621)
(25.349 -2.47427e-17 7.06264)
(-31.7741 0 -10.5027)
(-63.0039 0 -15.5511)
(-8.42106 0 6.93519)
(74.8342 0 29.9517)
(64.8413 9.66509e-17 11.0915)
(-43.02 0 -32.1233)
(-108.041 0 -37.9077)
(-30.0441 0 18.7745)
(100.53 2.30537e-16 70.2939)
(116.335 -6.78479e-17 35.297)
(-32.9112 0 -86.6945)
(-212.114 3.01093e-16 -240.048)
(-202.336 0 -237.86)
(-43.0971 -2.48329e-16 -71.1676)
(126.136 0 164.941)
(129.469 0 196.603)
(68.3813 -1.88869e-16 130.823)
(3.85442 0 22.8154)
(11.6008 0 10.1582)
(20.7865 -3.88195e-17 10.5823)
(5.87712 0 1.64361)
(-7.09693 0 -4.01857)
(-7.59652 0 -3.122)
(-2.08651 0 -0.596858)
(2.58636 4.48512e-17 0.91223)
(3.84956 0 1.25429)
(1.41343 0 0.283863)
(-2.25071 6.55362e-17 -1.24834)
(-3.09068 0 -1.61831)
(-0.293958 -6.79366e-17 -0.442003)
(2.33267 -2.19881e-18 0.59424)
(1.63058 2.37369e-17 0.253433)
(-0.844553 0 -0.671825)
(-1.59715 0 -0.786878)
(-0.115409 -1.54768e-17 -0.0941267)
(1.18923 0 0.415191)
(0.785989 2.27911e-17 0.32214)
(-0.309057 0 0.0420606)
(-0.49549 -4.76581e-20 0.0798057)
(0.181213 0 0.34266)
(0.535091 0 0.437425)
(0.00591314 0 0.20472)
(-0.844315 5.37608e-18 -0.171387)
(-1.57956 0 -0.714091)
(-1.18922 0 0.553442)
(-1.63589 0 0.97802)
(-2.55692 0 1.45985)
(-3.58988 2.25707e-17 1.97404)
(-4.33889 0 2.60711)
(-4.90468 -8.46538e-19 3.1509)
(-5.42659 0 3.44286)
(-5.83938 1.56875e-17 3.43421)
(-5.47255 6.73795e-17 2.764)
(-4.12575 0 1.4884)
(-1.34113 1.26147e-16 -0.141675)
(2.95643 -5.79694e-18 -2.2212)
(7.8625 0 -4.55762)
(12.6013 1.11414e-16 -7.21853)
(16.4953 0 -10.0167)
(19.657 0 -12.399)
(21.6491 0 -13.4058)
(21.7447 0 -12.4717)
(19.0939 6.22393e-19 -7.77188)
(10.9729 -4.29326e-16 -4.64195)
(1.71302 0 -0.479585)
(-4.93104 0 2.58848)
(-6.40278 -3.26225e-19 3.49335)
(-6.43924 -1.32728e-15 3.719)
(-8.78309 -5.27003e-16 4.90563)
(-12.7434 0 6.10038)
(-15.6685 0 7.55071)
(-15.8884 0 8.46329)
(-15.7306 1.84481e-15 8.83566)
(-14.4273 -6.61362e-18 7.36981)
(-11.6218 3.59615e-16 5.54881)
(-8.7844 0 4.31616)
(-1.94257 -3.41157e-16 2.92561)
(13.4405 -1.2866e-16 -8.14986)
(29.3257 0 -18.0755)
(50.3409 0 -30.2166)
(55.2903 1.07615e-15 -32.2548)
(50.9605 0 -28.8247)
(40.7994 -9.75345e-16 -22.5955)
(53.1949 5.40967e-19 -25.2295)
(-136.747 -9.89488e-16 78.6337)
(-34.6371 -1.33145e-15 13.0017)
(42.8831 0 -25.2734)
(42.4937 1.29376e-15 -21.8523)
(6.21021 2.1997e-15 -2.31431)
(4.23533 -5.42106e-15 -3.25723)
(9.55894 0 -5.39069)
(-27.1058 -2.97354e-16 15.7541)
(-4.10981 0 2.4296)
(-11.0553 6.84517e-16 6.90535)
(-11.2831 -4.58876e-16 5.82255)
(-0.437979 0 -0.974631)
(19.5863 1.50255e-15 -12.4449)
(51.1159 0 -29.4207)
(50.3328 -2.42722e-15 -28.117)
(27.9704 8.2449e-16 -15.2832)
(1.78185 0 -0.472762)
(-21.1264 0 11.2243)
(-34.7828 0 21.2969)
(-65.7768 -1.06759e-18 38.8482)
(-74.7705 -1.79626e-15 42.2071)
(-44.1713 -9.03468e-16 23.9453)
(-17.0468 0 9.4135)
(-27.4586 -1.62489e-15 15.8546)
(-14.5178 0 7.78841)
(7.40854 -5.86698e-19 -4.53456)
(-14.9436 5.31561e-21 -1.04138)
(-14.2099 -4.65463e-19 0.621188)
(-6.61495 3.79156e-18 1.8882)
(0.545167 8.90337e-20 3.41621)
(-6.1098 5.90911e-18 2.5332)
(-22.6181 1.22794e-17 -0.646582)
(-23.9972 0 0.280435)
(3.7101 0 7.72157)
(31.2857 0 11.6167)
(14.7649 2.34375e-17 2.55945)
(-36.2669 0 -9.94813)
(-52.3114 0 -5.33429)
(3.48043 0 15.4958)
(64.9176 0 21.1782)
(39.6124 0 -7.41484)
(-48.3221 1.37516e-16 -33.391)
(-76.9507 4.12736e-17 -10.1746)
(1.75265 0 45.2881)
(82.9917 0 56.0254)
(46.5069 2.75748e-16 -19.461)
(-88.6512 -3.64929e-16 -129.51)
(-148.078 1.88302e-16 -139.02)
(-65.3442 2.89758e-16 -52.0229)
(67.9945 2.35113e-16 44.6792)
(125.306 -1.61057e-16 118.889)
(66.6313 1.58051e-16 106.361)
(8.03155 0 65.6028)
(-15.7765 4.44421e-17 13.1678)
(12.2942 0 14.4073)
(16.6589 3.67361e-17 6.97841)
(2.00545 0 -1.91517)
(-7.25741 0 -3.8288)
(-6.35842 0 -1.71176)
(-1.58261 -2.07106e-18 -0.28188)
(2.44334 -4.24279e-17 0.351201)
(3.61807 0 0.752549)
(1.19555 0 0.0331089)
(-2.34092 -6.19725e-17 -1.42811)
(-2.88526 0 -1.7795)
(0.0582215 -8.46357e-19 -0.600098)
(2.50295 -1.30476e-17 0.346282)
(1.57653 0 -0.0975647)
(-0.856767 0 -0.973709)
(-1.41525 0 -0.924361)
(0.130121 0 -0.102051)
(1.31045 -4.17783e-19 0.428298)
(0.748863 0 0.304933)
(-0.3843 -9.83516e-18 0.109449)
(-0.560896 1.57969e-17 0.314723)
(0.0500278 0 0.718876)
(0.243509 0 0.889217)
(-0.461578 0 0.72836)
(-1.42536 -5.07154e-18 0.568691)
(-2.08499 -6.92417e-18 0.465188)
(-2.14012 -1.08446e-17 1.34676)
(-2.79016 0 2.05439)
(-4.03661 2.41968e-18 2.63171)
(-5.365 -2.07689e-17 3.30067)
(-6.41502 0 4.05689)
(-7.21363 -3.17853e-17 4.7157)
(-7.85134 0 5.01717)
(-8.20148 -1.30592e-17 4.84829)
(-7.45871 -6.04153e-17 3.87614)
(-5.42878 0 2.10714)
(-1.61479 -5.89889e-17 -0.330978)
(4.09459 5.78958e-18 -3.42325)
(10.6201 0 -6.89436)
(17.1366 0 -10.6524)
(22.7818 0 -14.2752)
(27.4364 -6.97655e-17 -17.1717)
(30.1944 -9.87292e-17 -18.3001)
(30.0291 0 -17.0407)
(24.9724 4.76891e-16 -12.5001)
(14.509 3.91471e-16 -6.45175)
(1.56529 0 -0.0842368)
(-8.39309 0 4.59344)
(-11.5342 -5.78747e-16 6.20235)
(-11.9961 3.1363e-18 6.67896)
(-14.7121 0 8.30248)
(-19.4242 0 10.1153)
(-22.8206 0 11.8435)
(-22.7777 0 12.4995)
(-22.2084 -9.99705e-18 12.2756)
(-19.5432 -8.67353e-16 9.9681)
(-14.8362 0 7.08183)
(-10.3183 0 4.99166)
(-1.87376 0 0.325178)
(20.6496 -1.24754e-16 -13.4239)
(42.7756 0 -27.0289)
(70.9293 6.41653e-17 -42.8004)
(75.3414 -1.00776e-15 -43.8178)
(71.164 5.83976e-16 -39.886)
(53.5095 9.13071e-16 -30.2314)
(78.8429 -3.91165e-15 -35.6042)
(-181.017 9.26035e-16 106.673)
(-54.0982 1.24587e-15 18.7373)
(53.2996 0 -33.128)
(58.3778 0 -29.9613)
(10.5156 2.05864e-15 -3.88391)
(5.6404 2.53067e-15 -4.23923)
(12.6979 1.0214e-15 -6.6024)
(-36.2506 -5.10043e-18 21.4067)
(-5.05111 0 2.6017)
(-15.3103 0 9.46863)
(-15.2229 4.28913e-16 7.7837)
(1.61803 0 -2.85701)
(31.2156 -1.39773e-15 -20.1114)
(71.8493 0 -41.9831)
(66.3709 -2.97319e-18 -36.8338)
(31.7126 0 -16.5113)
(-3.90063 -5.20793e-16 3.63431)
(-31.8584 9.12537e-16 18.7186)
(-47.2964 -1.00841e-16 29.778)
(-86.2479 -5.51413e-19 51.6472)
(-97.9508 0 55.2177)
(-58.7744 8.4373e-16 31.2565)
(-20.8621 2.38547e-15 11.3653)
(-34.1467 1.51727e-15 19.9391)
(-19.2949 0 9.91847)
(9.26381 -7.26151e-19 -6.0329)
(-13.8764 0 0.598177)
(-11.8857 -1.60929e-19 1.86404)
(-4.44138 0 2.84147)
(-0.142286 -8.41731e-20 3.296)
(-9.68298 -1.21932e-17 1.762)
(-24.9038 -4.56162e-18 -0.450442)
(-22.2337 0 1.81572)
(5.17832 0 8.57439)
(26.2149 4.9241e-18 10.2629)
(6.00212 2.45641e-17 1.13262)
(-37.5341 -1.54987e-17 -7.37333)
(-43.2494 4.58041e-17 0.492016)
(8.24606 8.52925e-17 16.992)
(52.1841 0 14.0677)
(22.6818 0 -13.7548)
(-43.4585 -2.33934e-16 -27.25)
(-50.819 3.40356e-18 4.7334)
(13.771 0 48.9458)
(54.8361 -7.58466e-17 38.8424)
(1.36724 1.34986e-16 -36.1375)
(-90.3028 3.44997e-16 -105.255)
(-93.2886 0 -79.8732)
(2.80649 -2.7395e-16 8.99169)
(96.8068 1.91961e-16 75.496)
(76.7432 1.52177e-16 46.9394)
(10.5487 -1.36751e-16 19.6747)
(-30.8454 0 7.37131)
(-22.1165 5.51107e-17 4.29276)
(13.7087 0 17.6579)
(11.8593 4.64595e-17 3.53924)
(-0.173541 0 -3.32783)
(-6.56731 0 -2.73617)
(-5.68103 0 -1.02686)
(-1.53125 1.95627e-18 -0.373077)
(2.40229 0 0.126385)
(3.54207 0 0.624514)
(0.889262 0 -0.180589)
(-2.61383 0 -1.71309)
(-2.78631 -4.67758e-18 -1.95439)
(0.361509 6.37042e-17 -0.661092)
(2.60163 0 0.22146)
(1.41965 -2.15394e-17 -0.349422)
(-0.978491 0 -1.21326)
(-1.34481 0 -1.02433)
(0.248033 0 -0.0782044)
(1.28073 2.45945e-18 0.473169)
(0.567273 0 0.342746)
(-0.604227 9.27349e-18 0.216395)
(-0.778659 0 0.566995)
(-0.239542 0 1.11293)
(-0.197553 2.0545e-18 1.38593)
(-1.05062 0 1.33857)
(-2.11793 0 1.33149)
(-2.6722 8.39801e-19 1.75763)
(-3.09949 1.02125e-17 2.42589)
(-4.04159 0 3.16134)
(-5.54505 7.83695e-19 3.86843)
(-7.10614 1.83567e-17 4.70108)
(-8.38339 0 5.59)
(-9.3784 1.43476e-17 6.29163)
(-10.1074 0 6.51534)
(-10.3862 1.22854e-17 6.09096)
(-9.2764 5.68256e-17 4.76567)
(-6.5566 0 2.55458)
(-1.75138 5.2949e-17 -0.616807)
(5.26268 -1.6189e-19 -4.6691)
(13.273 0 -9.22047)
(21.4111 0 -14.0339)
(28.6428 0 -18.4611)
(34.6559 1.23893e-16 -21.8282)
(38.1531 6.77967e-18 -22.9696)
(37.7864 0 -21.226)
(30.9209 -4.29859e-16 -16.0758)
(18.1144 -7.24873e-16 -7.46663)
(1.20431 0 0.70873)
(-12.3997 0 7.17111)
(-17.776 0 9.64173)
(-18.881 4.31386e-18 10.4604)
(-21.87 0 12.406)
(-27.0978 0 14.6048)
(-30.4833 0 16.3617)
(-29.8491 0 16.3518)
(-28.5093 -7.98731e-16 15.4288)
(-24.2501 -7.89966e-16 12.2561)
(-17.4027 0 8.11544)
(-10.8609 0 4.89935)
(0.181058 0 -2.15648)
(28.9381 -1.62766e-18 -19.6844)
(56.6102 0 -36.5773)
(90.3826 -6.00684e-17 -54.9712)
(92.8369 0 -53.7522)
(90.0578 -5.46532e-16 -49.9862)
(64.4127 0 -36.8501)
(104.762 1.82948e-15 -44.3491)
(-215.451 0 129.892)
(-76.4685 0 28.8836)
(58.4173 0 -38.722)
(73.5369 0 -37.3794)
(16.1365 -1.92491e-15 -5.84148)
(6.47931 0 -4.85348)
(15.2908 -9.54852e-16 -6.97585)
(-44.2694 2.64656e-16 26.3945)
(-5.6196 0 2.38253)
(-19.0007 0 11.8014)
(-18.4863 0 9.17193)
(4.96237 0 -6.18831)
(44.556 6.15372e-18 -29.3192)
(91.5489 0 -53.9268)
(78.2105 2.12969e-15 -42.6201)
(30.2155 0 -14.0608)
(-12.4149 9.77157e-16 10.0037)
(-42.1089 -8.52292e-16 27.2026)
(-58.4006 9.41777e-17 37.138)
(-103.431 1.03916e-15 62.2636)
(-116.742 0 65.2182)
(-71.6026 0 36.9593)
(-23.6762 -4.4518e-15 12.3409)
(-39.0933 1.40477e-15 22.6344)
(-23.4545 -5.486e-16 11.4366)
(10.7197 1.44849e-15 -7.38651)
(-12.933 0 1.21321)
(-9.49949 3.28605e-18 2.75885)
(-2.30988 0 3.85878)
(-0.697831 0 3.53695)
(-12.2033 0 1.50453)
(-25.729 0 -0.0289256)
(-20.1956 0 2.74436)
(5.45078 8.78313e-18 8.3112)
(20.547 -4.64662e-18 8.56357)
(-0.950999 -4.55959e-17 0.904449)
(-36.7339 2.55283e-17 -3.76378)
(-36.0993 -4.32328e-17 4.68839)
(7.83657 -8.05074e-17 15.4951)
(38.1012 0 7.49188)
(11.4732 0 -15.2838)
(-33.2704 1.77167e-16 -18.343)
(-29.6812 -6.82442e-17 13.8023)
(14.4922 0 43.8464)
(26.24 7.15947e-17 24.6882)
(-23.6875 -1.2741e-16 -33.2032)
(-71.4459 0 -64.9694)
(-41.7253 1.75907e-16 -27.696)
(42.5573 0 37.2827)
(93.4175 -8.59862e-17 66.8383)
(54.488 3.82927e-17 31.6758)
(-8.97268 -1.52405e-16 -0.255713)
(-39.2737 0 -6.7949)
(-15.6454 -9.16313e-17 8.96003)
(11.6044 2.94865e-17 14.5447)
(8.5658 -1.04738e-16 4.61103)
(-1.23395 -2.90277e-17 -3.67665)
(-5.48386 0 -1.1694)
(-5.48952 3.81303e-17 -0.774905)
(-1.60586 0 -0.485177)
(2.48529 0 0.199836)
(3.44403 0 0.638672)
(0.406649 0 -0.464011)
(-2.99565 0 -2.0283)
(-2.67347 -6.23545e-18 -2.00387)
(0.667903 -3.01679e-17 -0.554776)
(2.6133 0 0.201146)
(1.1474 3.96889e-17 -0.529308)
(-1.17546 0 -1.35448)
(-1.32334 0 -0.998848)
(0.2865 0 0.0510307)
(1.1327 -1.94559e-18 0.59677)
(0.26061 0 0.454847)
(-0.93794 0 0.399862)
(-1.11332 0 0.880985)
(-0.663927 0 1.5443)
(-0.781777 -5.36927e-18 1.90825)
(-1.77067 0 1.98253)
(-2.91823 0 2.13146)
(-3.54249 5.3478e-18 2.76406)
(-4.18166 0 3.48196)
(-5.35451 0 4.28411)
(-7.06899 -6.70681e-18 5.10619)
(-8.82353 -8.26462e-18 6.05863)
(-10.2803 0 7.03442)
(-11.4183 0 7.73725)
(-12.1963 0 7.84061)
(-12.3783 -8.73785e-18 7.12531)
(-10.8995 0 5.45422)
(-7.5491 0 2.78732)
(-1.83807 -9.77004e-17 -1.05972)
(6.35852 -9.60207e-18 -5.97679)
(15.7135 0 -11.4977)
(25.3139 0 -17.2661)
(33.9555 0 -22.4502)
(41.1781 -5.47724e-17 -26.2469)
(45.3588 8.06546e-17 -27.3587)
(44.859 2.80523e-16 -25.063)
(36.7286 4.03257e-16 -18.8159)
(21.1528 3.35236e-16 -8.83586)
(0.768308 -5.11837e-17 1.85905)
(-16.6855 0 10.2003)
(-24.8419 0 13.6878)
(-26.7747 5.40107e-16 15.1642)
(-30.2625 0 16.8702)
(-35.5905 0 19.4515)
(-38.504 0 20.9022)
(-36.8305 0 20.0451)
(-34.4194 0 18.3336)
(-28.5218 1.46274e-15 14.1197)
(-19.304 0 8.63341)
(-10.4053 -2.29532e-16 4.0959)
(3.60515 0 -5.46846)
(38.1445 -1.73404e-18 -26.7826)
(70.4277 -5.79041e-16 -46.4629)
(108.151 0 -66.095)
(107.161 0 -61.929)
(107.121 0 -58.886)
(73.3445 0 -42.6252)
(127.25 -1.70357e-15 -49.9242)
(-236.598 0 147.231)
(-107.517 0 31.3221)
(57.2795 0 -42.0673)
(87.2972 0 -44.2463)
(22.9972 0 -8.116)
(6.83869 0 -5.11032)
(16.9583 0 -7.15101)
(-50.9216 0 30.7458)
(-6.0142 -9.59214e-17 1.95114)
(-22.0496 0 13.8423)
(-20.6966 0 9.77323)
(10.4082 0 -10.1191)
(59.256 1.21416e-15 -39.6231)
(109.226 0 -64.6923)
(84.7153 -9.96052e-16 -44.8673)
(23.4397 0 -8.21817)
(-23.0467 4.8338e-18 17.4562)
(-52.3961 0 32.8916)
(-67.0915 -9.08564e-17 43.6327)
(-117.236 0 71.5633)
(-131.218 0 72.8789)
(-82.8127 0 41.4551)
(-25.9992 2.07679e-15 12.9883)
(-42.3055 -2.61498e-15 24.7397)
(-27.0436 1.02957e-15 12.4203)
(11.7411 1.35402e-15 -8.6641)
(-11.6922 0 1.4355)
(-7.37554 -2.89168e-18 3.24391)
(-0.908439 0 4.51931)
(-1.62211 0 3.78449)
(-14.0476 4.3692e-18 1.51039)
(-25.3709 -8.74621e-19 0.442052)
(-17.6667 8.70986e-18 3.27561)
(5.56333 -2.17584e-17 7.64034)
(15.608 0 7.11103)
(-5.84689 9.64332e-19 1.28797)
(-34.9957 -1.02722e-17 -0.498589)
(-31.4389 0 7.16682)
(4.02024 0 13.0153)
(25.0271 0 2.96586)
(5.29174 0 -13.6936)
(-21.758 -1.07054e-17 -10.1837)
(-15.2696 2.04456e-17 17.2428)
(8.69761 5.46983e-17 35.2772)
(3.71926 4.14909e-17 16.5981)
(-31.364 0 -18.4356)
(-43.6192 -1.1507e-16 -23.3019)
(0.975893 -1.65794e-16 14.296)
(64.3132 0 53.353)
(80.9929 -1.19957e-16 54.1895)
(34.2143 1.30728e-16 18.898)
(-19.5821 1.32354e-16 -6.41228)
(-39.1316 0 -10.7474)
(-13.5666 0 8.39757)
(3.49199 -2.77809e-17 3.62876)
(4.67345 -1.5036e-17 2.07009)
(-0.915704 4.16663e-17 -0.410391)
(-4.94568 0 -0.509589)
(-5.85208 -6.62048e-17 -0.915446)
(-1.7 0 -0.539386)
(2.62897 0 0.466804)
(3.21062 -5.11328e-18 0.682567)
(-0.257716 0 -0.789215)
(-3.42237 2.6734e-17 -2.29181)
(-2.51693 -5.54108e-18 -1.90151)
(0.947083 2.67262e-17 -0.317364)
(2.49944 0 0.245135)
(0.750452 -1.37732e-18 -0.650883)
(-1.43786 0 -1.39676)
(-1.3484 0 -0.858212)
(0.240735 0 0.269547)
(0.863474 0 0.781625)
(-0.164877 0 0.627637)
(-1.37047 -6.89499e-18 0.652669)
(-1.54257 0 1.25805)
(-1.19519 0 2.01869)
(-1.47808 3.2302e-18 2.45716)
(-2.59204 0 2.64624)
(-3.79561 3.92144e-18 2.96018)
(-4.52368 -3.47686e-18 3.71192)
(-5.32535 3.79711e-18 4.52081)
(-6.67673 0 5.40486)
(-8.55961 3.5957e-18 6.32105)
(-10.4609 -5.54206e-18 7.35815)
(-12.0465 0 8.38082)
(-13.2801 0 9.04442)
(-14.0748 0 8.99298)
(-14.1703 8.20433e-18 7.92522)
(-12.3094 0 5.98057)
(-8.42919 0 2.83021)
(-1.93593 4.50158e-17 -1.63987)
(7.28619 8.27638e-18 -7.32704)
(17.8159 0 -13.7033)
(28.7011 0 -20.3103)
(38.5885 0 -26.153)
(46.8951 0 -30.2877)
(51.7272 5.70279e-17 -31.3048)
(51.1893 -2.63019e-16 -28.4204)
(42.0268 0 -21.0222)
(25.1721 0 -7.91858)
(0.606685 4.79695e-17 3.33136)
(-20.9348 0 13.5481)
(-32.3623 -4.68407e-16 18.199)
(-35.562 4.92455e-16 20.4264)
(-39.538 0 21.8871)
(-44.6456 0 24.5911)
(-46.6375 0 25.3828)
(-43.5329 0 23.4698)
(-39.847 0 20.8402)
(-32.2952 -6.76703e-16 15.5416)
(-20.5777 0 8.6225)
(-9.03593 4.36398e-16 2.5548)
(8.26204 0 -9.60166)
(47.978 -1.97095e-18 -34.6378)
(83.866 -1.44719e-18 -56.2698)
(123.385 0 -76.1592)
(118.137 8.4412e-16 -67.9431)
(122.173 0 -66.432)
(80.2502 0 -47.3555)
(143.17 3.17817e-15 -50.5568)
(-243.193 0 157.383)
(-129.949 0 50.0683)
(50.2018 0 -42.9213)
(99.0329 0 -50.5569)
(30.9092 0 -10.5703)
(6.90619 0 -5.03121)
(18.4795 0 -5.76949)
(-56.0368 0 34.274)
(-6.52004 8.96144e-17 1.44254)
(-24.4332 0 15.5689)
(-21.6501 0 9.39431)
(17.2218 0 -16.2105)
(74.7458 -1.11532e-15 -50.7668)
(123.964 -7.86283e-17 -73.5181)
(85.1604 9.36535e-16 -42.9572)
(12.3445 -6.10647e-16 0.610109)
(-33.9671 5.46213e-18 25.4506)
(-59.6724 -7.45723e-16 39.0848)
(-73.7183 1.70598e-16 48.7401)
(-128.455 0 79.1847)
(-142.244 -1.34275e-15 78.3003)
(-92.6859 6.97323e-16 44.7895)
(-28.8535 0 13.6354)
(-44.3909 1.21683e-15 25.8654)
(-30.0541 -4.83003e-16 13.0351)
(12.342 -1.26388e-15 -9.80255)
(-10.2505 0 1.46864)
(-5.52454 1.28742e-18 3.33731)
(-0.192821 0 4.70242)
(-3.00699 0 3.79064)
(-15.5391 -4.11398e-18 1.56693)
(-24.2414 8.23525e-19 0.941439)
(-14.7481 -8.19803e-18 3.63224)
(5.97269 1.79546e-17 6.87051)
(11.9924 0 5.90385)
(-8.68041 -1.70917e-17 1.77964)
(-32.7327 1.29872e-17 1.91226)
(-28.763 0 8.31506)
(-1.25938 5.10062e-17 10.7551)
(14.3387 0 0.911153)
(2.63589 -4.72457e-17 -10.4481)
(-11.9574 -6.00862e-17 -4.60658)
(-7.53964 5.76235e-18 15.842)
(0.812218 -5.14878e-17 26.1544)
(-9.78469 -7.05285e-17 14.2313)
(-27.0519 0 0.267261)
(-16.362 1.08318e-16 10.3848)
(28.1497 0 39.4245)
(67.2619 0 54.4674)
(59.5544 2.84921e-17 36.051)
(10.5325 -3.96944e-16 0.434099)
(-33.2755 0 -19.9045)
(-42.7948 0 -19.9993)
(-19.6856 0 -5.28924)
(-2.03515 -6.83837e-17 -3.73326)
(2.3374 6.81399e-17 -2.54673)
(-0.29012 -1.8036e-17 0.725708)
(-7.11879 -4.44889e-17 -2.51258)
(-6.41147 4.99242e-17 -1.35304)
(-1.65858 2.07362e-17 -0.403869)
(2.79412 -2.67307e-17 0.895714)
(2.75552 4.35896e-18 0.688822)
(-1.08689 0 -1.12004)
(-3.83202 -2.51434e-17 -2.43634)
(-2.29538 1.46367e-17 -1.62445)
(1.16786 -2.51322e-17 0.0232968)
(2.23194 0 0.325471)
(0.234 -1.58646e-17 -0.716214)
(-1.74622 -4.73726e-18 -1.3323)
(-1.41121 8.96436e-18 -0.606263)
(0.110134 7.44586e-18 0.562491)
(0.478495 0 1.01441)
(-0.691994 0 0.85364)
(-1.87759 5.75487e-19 0.970742)
(-2.04006 0 1.69424)
(-1.80402 0 2.53244)
(-2.25226 5.9588e-18 3.0286)
(-3.47679 -1.04867e-17 3.31881)
(-4.71862 -3.68294e-18 3.79267)
(-5.53741 7.09573e-19 4.64314)
(-6.46223 -1.82118e-18 5.55424)
(-7.96494 0 6.49419)
(-9.97323 0 7.47608)
(-11.9701 9.03605e-18 8.56907)
(-13.6346 0 9.60528)
(-14.9244 0 10.1959)
(-15.7203 1.02092e-18 9.96507)
(-15.7131 0 8.55662)
(-13.5435 0 6.30162)
(-9.23359 5.2481e-17 2.71086)
(-2.1075 -3.79061e-17 -2.32598)
(7.95552 -6.84041e-18 -8.6912)
(19.4688 0 -15.8071)
(31.4518 5.14963e-17 -23.1259)
(42.4251 0 -29.5096)
(51.7017 0 -33.8785)
(57.1702 -9.47917e-17 -34.7339)
(56.7141 0 -31.2455)
(47.0605 0 -22.7961)
(27.1858 0 -10.1533)
(0.569211 0 4.96374)
(-24.7831 0 17.073)
(-39.9361 4.3863e-16 22.9963)
(-45.0136 -9.63544e-18 25.8624)
(-49.3161 -3.61573e-16 27.522)
(-54.05 2.67062e-16 29.8947)
(-54.6753 0 29.6603)
(-49.7916 0 26.5185)
(-44.6814 0 22.8891)
(-35.5473 0 16.4925)
(-21.2989 0 8.08908)
(-6.86542 7.4648e-18 0.321522)
(13.8524 0 -14.6994)
(58.168 1.00372e-16 -43.0731)
(96.3822 -2.19161e-18 -65.7784)
(135.86 0 -84.3115)
(125.558 -7.8924e-16 -72.2008)
(135.361 0 -72.7594)
(84.8403 -6.76206e-16 -50.8011)
(151.454 -1.03261e-17 -46.1657)
(-233.907 0 160.537)
(-151.461 0 59.4417)
(36.269 0 -41.7239)
(108.508 0 -55.9445)
(39.5681 -1.53963e-15 -13.0625)
(6.99192 0 -4.74349)
(19.2055 0 -4.07003)
(-59.4847 2.49997e-16 36.9366)
(-7.42261 0 1.04047)
(-26.1798 4.7527e-16 16.9427)
(-21.127 -3.07631e-16 7.86947)
(25.9278 0 -23.4493)
(90.3406 2.06957e-15 -62.1999)
(134.843 1.44951e-17 -79.7464)
(79.2254 -1.75214e-15 -36.6534)
(-1.46119 5.70169e-16 11.3024)
(-44.3397 -4.08862e-16 32.8368)
(-65.3419 6.96233e-16 42.3939)
(-78.0267 -8.00714e-17 53.0192)
(-137.306 -8.41852e-16 85.9348)
(-150.57 1.25348e-15 82.2124)
(-101 -6.50945e-16 46.9488)
(-33.254 -1.79382e-15 14.9669)
(-45.4519 -1.11652e-15 26.4299)
(-32.6048 0 13.3958)
(12.4883 0 -10.821)
(-8.72943 0 1.52686)
(-3.81538 8.43645e-19 3.2712)
(0.0353316 0 4.50816)
(-4.69546 0 3.52229)
(-16.7564 0 1.61285)
(-22.7201 0 1.47336)
(-11.8518 8.26332e-18 3.92048)
(6.47423 -4.9507e-18 6.10493)
(9.55952 -8.56332e-18 4.83277)
(-9.71322 3.38981e-17 2.10901)
(-29.868 -1.22083e-17 3.51889)
(-26.9061 0 8.81388)
(-6.24544 -4.79479e-17 9.38056)
(6.35789 0 0.822567)
(1.56654 4.44154e-17 -7.0456)
(-5.5449 4.9007e-17 -2.12035)
(-4.8768 0 11.3171)
(-5.98218 0 17.8875)
(-15.3142 2.95899e-17 14.4075)
(-18.2506 0 14.9884)
(2.04602 0 29.2297)
(36.2329 -5.86307e-17 44.8855)
(52.4664 0 40.2851)
(29.8649 0 11.0865)
(-15.3713 2.25573e-16 -21.9629)
(-46.9183 0 -36.0744)
(-45.7071 0 -29.5617)
(-20.977 0 -13.2923)
(-1.24888 1.68928e-16 -4.40692)
(3.81958 0 -0.228458)
(-1.97024 -1.22324e-17 -0.519499)
(-7.6468 5.59496e-19 -2.49391)
(-6.27003 -2.01396e-17 -1.51469)
(-1.22728 -1.94885e-17 0.275186)
(2.90393 4.5249e-17 1.46898)
(2.00153 4.23409e-19 0.599678)
(-2.02797 0 -1.39279)
(-4.16196 0 -2.39751)
(-2.00642 2.0427e-17 -1.16597)
(1.28678 -1.82299e-17 0.428969)
(1.78776 0 0.414662)
(-0.386815 0 -0.725846)
(-2.07765 3.30452e-18 -1.15734)
(-1.50417 -8.41896e-18 -0.253401)
(-0.105303 -6.99222e-18 0.909955)
(-0.0127134 1.04902e-17 1.27805)
(-1.29837 0 1.12131)
(-2.4318 7.15472e-19 1.34334)
(-2.57826 0 2.17651)
(-2.46031 0 3.07204)
(-3.06781 -5.59284e-18 3.61132)
(-4.38204 9.84171e-18 3.99063)
(-5.64494 0 4.60457)
(-6.52488 2.39779e-18 5.55903)
(-7.55559 -1.69263e-18 6.54334)
(-9.17244 0 7.52244)
(-11.2604 0 8.54606)
(-13.3031 -5.77422e-18 9.66931)
(-15.0039 0 10.6893)
(-16.3216 0 11.1798)
(-17.1123 -4.20483e-18 10.7536)
(-16.9946 0 9.07289)
(-14.6571 0 6.39533)
(-9.99694 -9.44976e-17 2.45967)
(-2.41219 3.55268e-17 -3.07948)
(8.28942 2.96578e-18 -10.0325)
(20.5818 0 -17.7771)
(33.4712 -4.82478e-17 -25.6825)
(45.3784 0 -32.4879)
(55.529 3.07925e-18 -36.986)
(61.6447 3.87276e-17 -37.6143)
(61.4251 0 -33.5151)
(51.1966 0 -24.0362)
(29.4107 -2.08321e-16 -11.7763)
(1.62293 -4.75929e-18 6.66742)
(-27.8105 0 20.6349)
(-47.0832 0 27.8829)
(-54.589 -8.3335e-16 31.5128)
(-59.3853 3.38356e-16 33.4702)
(-63.624 -5.00794e-16 35.1448)
(-62.4269 0 33.6228)
(-55.4797 0 29.1034)
(-48.8573 0 24.4302)
(-38.2878 0 16.965)
(-21.5787 0 7.06045)
(-4.05291 8.02887e-18 -2.56362)
(20.1948 0 -20.5884)
(68.3109 0 -51.9951)
(107.568 -3.12058e-18 -74.6288)
(145.195 0 -90.1487)
(129.668 -7.49901e-16 -74.8575)
(147.24 0 -78.2077)
(86.6269 6.31967e-16 -52.4703)
(154.245 -1.34392e-17 -38.3388)
(-212.801 0 157.745)
(-167.834 0 48.8776)
(18.3251 0 -39.4474)
(115.474 0 -60.5513)
(48.7088 1.76617e-17 -15.3146)
(7.2214 -1.67149e-15 -4.33279)
(18.7959 6.20342e-16 -2.86358)
(-61.0542 -2.33495e-16 38.6288)
(-8.97282 0 0.901876)
(-27.2998 -4.43846e-16 17.9382)
(-19.015 2.87276e-16 5.06134)
(36.0234 0 -32.1644)
(105.217 -9.59902e-16 -73.4271)
(141.139 9.37023e-17 -82.725)
(67.2031 8.19415e-16 -26.0924)
(-15.5655 0 22.3999)
(-53.5719 3.94457e-16 39.6094)
(-68.2699 0 45.3106)
(-80.7098 0 56.3005)
(-144.384 7.85853e-16 91.6378)
(-156.923 0 84.8504)
(-106.889 0 47.5002)
(-40.0526 1.67434e-15 17.3791)
(-45.5942 1.04212e-15 26.4691)
(-34.8921 -4.39734e-16 13.3389)
(12.2295 1.10513e-15 -11.7196)
(-7.25157 0 1.73096)
(-2.33241 -7.92882e-19 3.17694)
(-0.0758881 1.73218e-18 4.11296)
(-6.37123 0 3.15007)
(-17.5834 0 1.71717)
(-21.066 0 2.02518)
(-9.4314 -7.76463e-18 4.124)
(6.62761 0 5.34538)
(7.8605 8.04456e-18 3.88266)
(-9.3505 0 2.3228)
(-26.2869 0 4.64945)
(-24.9084 2.37681e-17 9.18111)
(-9.97104 0 8.91892)
(0.646049 2.07971e-17 1.76923)
(0.595498 1.6779e-17 -4.43484)
(-2.61372 -4.60253e-17 -2.08221)
(-5.03955 0 5.60441)
(-10.3163 2.29432e-17 10.7707)
(-16.2104 0 13.6745)
(-11.6736 -6.39899e-17 20.8868)