/*--------------------------------*- C++ -*----------------------------------*\
| =========                 |                                                 |
| \\      /  F ield         | OpenFOAM: The Open Source CFD Toolbox           |
|  \\    /   O peration     | Version:  2412                                  |
|   \\  /    A nd           | Website:  www.openfoam.com                      |
|    \\/     M anipulation  |                                                 |
\*---------------------------------------------------------------------------*/
FoamFile
{
    version     2.0;
    format      ascii;
    arch        "LSB;label=32;scalar=64";
    class       volScalarField;
    location    "1.145";
    object      Co;
}
// * * * * * * * * * * * * * * * * * * * * * * * * * * * * * * * * * * * * * //

dimensions      [0 0 0 0 0 0 0];

internalField   nonuniform List<scalar> 
12600
(
0.314652
0.176598
0.100016
0.0629353
0.0449678
0.0350504
0.0286528
0.0240727
0.0205992
0.0178637
0.0156493
0.0138194
0.0122825
0.0109749
0.00985036
0.0088746
0.00802153
0.00727091
0.00660674
0.00601623
0.00548896
0.00501641
0.00459149
0.00420826
0.00386171
0.00354758
0.00326222
0.00300248
0.00276564
0.00254933
0.00235147
0.00217024
0.00200403
0.00185141
0.00171112
0.00158204
0.00146316
0.00135357
0.00125248
0.00115914
0.00107291
0.00099319
0.000919443
0.000851182
0.000787965
0.000729389
0.000675086
0.000624724
0.000577994
0.00053462
0.000494342
0.000456931
0.000422166
0.000389856
0.000359813
0.000331878
0.000305887
0.000281712
0.000259207
0.000238271
0.000218771
0.000200631
0.000183727
0.000168004
0.000153346
0.000139721
0.000127011
0.000115208
0.00010419
9.39767e-05
8.44347e-05
7.56126e-05
6.73619e-05
5.97639e-05
5.26482e-05
4.61336e-05
4.00206e-05
3.44717e-05
2.92509e-05
2.45679e-05
2.01497e-05
1.62401e-05
1.25624e-05
9.32049e-06
6.37218e-06
3.63712e-06
2.52745e-06
2.65137e-06
3.79413e-06
6.80608e-06
6.43849e-06
1.03006e-05
9.73718e-06
1.13281e-05
1.17444e-05
1.10881e-05
1.82114e-05
1.71801e-05
1.86644e-05
1.7594e-05
1.59655e-05
1.83496e-05
1.72764e-05
2.13735e-05
2.01064e-05
2.11425e-05
1.98734e-05
1.6079e-05
2.3365e-05
2.19358e-05
1.34319e-05
1.58712e-05
1.48823e-05
9.97577e-06
1.91774e-05
1.7962e-05
1.03052e-05
1.07497e-05
1.05592e-05
9.87543e-06
0.477703
0.376359
0.27629
0.202433
0.153113
0.120528
0.0982168
0.0821212
0.0699548
0.0604224
0.0527474
0.0464362
0.041159
0.0366869
0.0328548
0.0295407
0.0266521
0.0241175
0.0218805
0.0198964
0.0181287
0.0165477
0.0151288
0.0138514
0.0126982
0.0116546
0.0107079
0.00984748
0.00906396
0.00834926
0.00769631
0.00709891
0.00655162
0.00604961
0.00558862
0.00516485
0.00477492
0.00441579
0.00408475
0.00377937
0.00349744
0.00323699
0.00299622
0.0027735
0.00256737
0.0023765
0.00219964
0.00203572
0.00188369
0.00174266
0.00161175
0.00149022
0.00137734
0.00127247
0.00117499
0.00108439
0.00100012
0.000921761
0.000848838
0.000781016
0.00071786
0.00065912
0.000604389
0.000553496
0.000506045
0.000461947
0.000420801
0.000382602
0.000346926
0.000313864
0.00028295
0.000254377
0.000227621
0.00020299
0.000179879
0.000158731
0.000138829
0.000120783
0.000103724
8.84549e-05
7.39455e-05
6.11461e-05
4.90126e-05
3.82682e-05
2.86322e-05
1.9111e-05
1.27369e-05
6.11852e-06
9.21359e-06
1.87073e-05
1.58377e-05
3.23151e-05
2.95405e-05
3.94935e-05
3.22323e-05
3.34815e-05
6.11932e-05
5.6589e-05
6.51528e-05
5.70962e-05
5.68417e-05
5.25723e-05
5.66919e-05
7.30212e-05
6.86537e-05
7.4416e-05
6.54105e-05
5.69833e-05
7.30358e-05
7.65639e-05
4.81752e-05
4.9458e-05
4.74739e-05
3.1232e-05
6.71789e-05
5.77161e-05
3.52491e-05
3.962e-05
3.02656e-05
3.13156e-05
0.512208
0.468391
0.397117
0.325325
0.26444
0.216408
0.179547
0.151242
0.129172
0.111619
0.0973875
0.0856486
0.0758232
0.0674972
0.0603678
0.0542087
0.0488471
0.044149
0.0400085
0.0363413
0.0330787
0.0301647
0.027553
0.0252048
0.0230877
0.0211739
0.0194401
0.0178659
0.016434
0.0151292
0.0139383
0.0128498
0.0118534
0.0109403
0.0101025
0.00933302
0.00862548
0.00797433
0.00737453
0.0068216
0.00631147
0.0058405
0.00540538
0.00500314
0.00463105
0.00428668
0.00396779
0.00367234
0.00339849
0.00314454
0.00290894
0.0026903
0.0024873
0.00229878
0.00212362
0.00196086
0.00180953
0.00166886
0.00153798
0.00141629
0.001303
0.00119765
0.0010995
0.00100826
0.000923183
0.000844136
0.000770371
0.0007019
0.000637936
0.00057866
0.000523211
0.00047196
0.00042393
0.000379713
0.000338171
0.000300159
0.000264308
0.000231815
0.000200976
0.000173433
0.000147065
0.000123903
0.000101755
8.20514e-05
6.47285e-05
4.62861e-05
3.60946e-05
1.70374e-05
1.72113e-05
3.02269e-05
2.06763e-05
5.88634e-05
5.2304e-05
7.89548e-05
5.36892e-05
5.6872e-05
0.000118073
0.000108015
0.000130299
0.000107891
0.000114821
8.30272e-05
0.00010541
0.000142177
0.000135581
0.000150189
0.000124559
0.000114227
0.000128314
0.000152733
9.77127e-05
8.58405e-05
8.72426e-05
5.43259e-05
0.000132969
0.000108127
6.76533e-05
8.14498e-05
5.09079e-05
5.78425e-05
0.50416
0.490885
0.452975
0.402593
0.350212
0.301541
0.259038
0.22314
0.193252
0.16843
0.147732
0.130347
0.115621
0.103043
0.0922142
0.0828253
0.0746322
0.0674416
0.0610982
0.0554767
0.0504744
0.0460066
0.0420029
0.0384044
0.0351613
0.0322311
0.0295778
0.0271702
0.0249814
0.0229881
0.02117
0.0195091
0.0179898
0.0165984
0.0153224
0.0141511
0.0130748
0.0120848
0.0111734
0.0103337
0.00955944
0.00884494
0.00818518
0.00757556
0.00701192
0.0064905
0.00600787
0.00556093
0.00514681
0.00476296
0.00440699
0.00407676
0.00377025
0.00348572
0.00322143
0.00297594
0.00274774
0.00253569
0.00233844
0.00215508
0.00198441
0.00182573
0.00167793
0.00154054
0.00141246
0.00129346
0.00118242
0.00107933
0.000983037
0.00089378
0.000810276
0.000733064
0.000660689
0.000594017
0.000531349
0.000473959
0.000419778
0.000370638
0.000323891
0.000282155
0.000241998
0.000206805
0.000172925
0.000142665
0.000116478
8.69432e-05
7.29497e-05
4.08272e-05
3.26694e-05
3.97632e-05
1.9347e-05
8.81137e-05
7.58483e-05
0.000128219
7.81768e-05
7.78909e-05
0.000184515
0.000168427
0.000211503
0.000168164
0.000189446
0.000114212
0.000159094
0.000223866
0.000218059
0.000245471
0.000195543
0.000188105
0.000184701
0.00024564
0.000160928
0.000121648
0.000132448
7.71434e-05
0.000211849
0.000168412
0.000103902
0.000133728
7.46417e-05
8.8686e-05
0.487977
0.483168
0.464967
0.435076
0.398447
0.359384
0.320978
0.285132
0.252764
0.22412
0.199055
0.177231
0.158249
0.141717
0.127276
0.114618
0.103481
0.0936455
0.0849266
0.077171
0.0702497
0.0640544
0.0584931
0.0534882
0.0489731
0.0448908
0.0411923
0.0378353
0.0347827
0.0320025
0.0294666
0.0271502
0.0250316
0.0230915
0.0213129
0.0196806
0.0181811
0.0168022
0.0155333
0.0143645
0.0132871
0.0122932
0.0113758
0.0105284
0.00974514
0.00902083
0.00835062
0.00773017
0.00715548
0.00662296
0.00612926
0.00567141
0.00524657
0.0048523
0.00448617
0.00414618
0.00383022
0.00353667
0.00326368
0.00300996
0.00277385
0.00255436
0.00234995
0.00215995
0.00198284
0.00181829
0.00166476
0.00152222
0.00138906
0.00126561
0.00115012
0.00104327
0.000943112
0.000850776
0.000763966
0.000684386
0.000609211
0.000540958
0.000475925
0.000417846
0.000361749
0.000312651
0.000265112
0.000222553
0.000186044
0.000143258
0.000125105
7.71357e-05
6.56834e-05
5.77374e-05
1.46724e-05
0.000118234
9.76981e-05
0.00018534
0.000103993
9.36094e-05
0.000256498
0.00023492
0.000306142
0.000235707
0.00027958
0.00015277
0.000213918
0.0003134
0.000313405
0.000357246
0.000276566
0.000278482
0.000238371
0.000350524
0.00023618
0.000153754
0.000180918
9.82031e-05
0.00029919
0.000237326
0.000140676
0.000193588
0.000101887
0.000123131
0.473785
0.468105
0.457168
0.439264
0.415509
0.387779
0.357964
0.3277
0.298213
0.270313
0.244461
0.220852
0.199502
0.180313
0.163127
0.147759
0.134022
0.121733
0.110728
0.100858
0.0919905
0.0840094
0.0768131
0.0703127
0.0644308
0.0590995
0.0542595
0.0498588
0.0458518
0.0421982
0.0388625
0.0358133
0.0330228
0.0304663
0.0281217
0.0259694
0.0239918
0.0221732
0.0204993
0.0189575
0.0175364
0.0162255
0.0150155
0.013898
0.0128653
0.0119104
0.0110269
0.0102092
0.00945196
0.00875039
0.00810007
0.00749709
0.0069377
0.00641865
0.00593674
0.0054893
0.00507357
0.00468739
0.00432831
0.00399462
0.00368413
0.00339553
0.00312679
0.002877
0.00264419
0.00242787
0.00222605
0.00203866
0.00186361
0.00170127
0.00154939
0.00140883
0.00127704
0.00115546
0.00104114
0.000936233
0.000837089
0.000746968
0.000660998
0.000584164
0.000509735
0.000444628
0.000381272
0.000324506
0.000275927
0.000217737
0.000194629
0.000128046
0.000114106
8.84319e-05
1.49052e-05
0.000147229
0.000115223
0.00024809
0.000129827
0.000101231
0.000330093
0.000304425
0.000411258
0.000308072
0.00038353
0.000197381
0.000266208
0.000406176
0.000418795
0.00048214
0.000365685
0.0003846
0.000286062
0.000462538
0.000321138
0.000179599
0.000230313
0.000116517
0.000390413
0.000313252
0.00017507
0.000257845
0.000133162
0.000160439
0.462494
0.454165
0.44432
0.43125
0.414678
0.395047
0.373089
0.349648
0.325544
0.301475
0.277997
0.255514
0.234292
0.214487
0.19616
0.17931
0.163889
0.14982
0.13701
0.125361
0.114773
0.10515
0.096402
0.0884452
0.0812031
0.0746064
0.0685923
0.0631043
0.058092
0.0535097
0.0493168
0.0454767
0.0419567
0.0387273
0.035762
0.0330372
0.0305315
0.0282254
0.0261016
0.0241444
0.0223396
0.0206742
0.0191366
0.0177162
0.0164033
0.0151892
0.0140658
0.0130259
0.0120629
0.0111707
0.0103437
0.00957687
0.00886552
0.0082055
0.00759275
0.00702386
0.00649532
0.00600437
0.00554791
0.00512375
0.0047291
0.00436228
0.00402072
0.00370324
0.00340737
0.00313242
0.00287591
0.00263769
0.00241517
0.00220874
0.0020156
0.00183677
0.00166909
0.00151429
0.0013687
0.00123497
0.00110854
0.000993484
0.00088362
0.000785336
0.000689909
0.000606437
0.000524849
0.000451772
0.00038906
0.000313293
0.000283945
0.000196075
0.00017881
0.000142844
4.54629e-05
0.000189986
0.000125662
0.000314042
0.00015387
9.80049e-05
0.000401496
0.000373674
0.000523506
0.000382623
0.000499077
0.000245198
0.000312394
0.000497811
0.000531227
0.000616377
0.000460861
0.000504952
0.00032519
0.000576774
0.000412813
0.000197359
0.000278349
0.00013154
0.000481126
0.000394232
0.000204671
0.000323098
0.000168592
0.000199894
0.453163
0.442769
0.432172
0.420318
0.406743
0.391404
0.37448
0.356279
0.337173
0.317547
0.297762
0.27814
0.258952
0.240418
0.222698
0.205907
0.190111
0.175342
0.1616
0.148863
0.137092
0.12624
0.11625
0.107065
0.0986268
0.090878
0.0837639
0.0772325
0.0712354
0.0657276
0.0606676
0.056017
0.0517409
0.0478074
0.0441872
0.0408536
0.0377825
0.0349517
0.0323411
0.0299324
0.0277088
0.0256552
0.0237575
0.0220033
0.0203809
0.0188797
0.0174901
0.0162033
0.0150112
0.0139064
0.0128821
0.0119321
0.0110508
0.0102328
0.0094734
0.00876824
0.00811304
0.00750439
0.00693846
0.00641253
0.00592318
0.0054683
0.00504473
0.00465097
0.004284
0.00394293
0.00362472
0.00332913
0.003053
0.00279676
0.002557
0.00233489
0.0021266
0.00193418
0.00175317
0.00158675
0.00142935
0.00128595
0.0011489
0.00102617
0.000906779
0.000802308
0.000699793
0.000608078
0.000528843
0.000433269
0.000395883
0.00028417
0.000262421
0.000214305
9.31922e-05
0.000240251
0.000138738
0.000392561
0.000173869
8.11379e-05
0.00046709
0.000439168
0.00063914
0.000456595
0.000623428
0.00029448
0.000348987
0.000584321
0.000647473
0.000755783
0.000560047
0.000637165
0.00035393
0.000688297
0.000507686
0.000206048
0.000323006
0.000143087
0.000567274
0.000478089
0.000227658
0.000385879
0.00020787
0.000240831
0.445104
0.433387
0.421879
0.409996
0.397378
0.383887
0.369539
0.354427
0.338697
0.322515
0.30605
0.289473
0.272948
0.256625
0.240642
0.225115
0.210144
0.195806
0.182157
0.169233
0.157054
0.145623
0.134929
0.124954
0.115671
0.107049
0.0990515
0.0916432
0.0847865
0.0784447
0.0725818
0.0671636
0.0621572
0.0575317
0.0532583
0.0493097
0.0456608
0.0422884
0.0391707
0.036288
0.0336217
0.031155
0.0288723
0.0267592
0.0248025
0.0229901
0.0213108
0.0197544
0.0183114
0.0169732
0.0157317
0.0145798
0.0135105
0.0125177
0.0115956
0.0107391
0.00994305
0.00920332
0.00851535
0.00787585
0.00728069
0.00672734
0.00621199
0.0057328
0.00528613
0.0048709
0.00448343
0.00412341
0.00378702
0.00347477
0.00318252
0.00291167
0.00265761
0.00242275
0.00220175
0.00199839
0.00180596
0.00163044
0.00146259
0.00131208
0.00116545
0.00103705
0.000910615
0.000797691
0.000699195
0.000581492
0.000533742
0.000395745
0.000367895
0.000305237
0.00015839
0.000312391
0.000170196
0.000483055
0.000187255
5.90126e-05
0.000523487
0.000497136
0.000754048
0.000527138
0.000753229
0.000342879
0.000372602
0.000662312
0.000763996
0.000895857
0.00066127
0.000777904
0.000371214
0.000792183
0.000601932
0.000209042
0.000362752
0.000151216
0.000645263
0.000562528
0.000242882
0.000442809
0.000250256
0.000282666
0.437979
0.425412
0.413204
0.40102
0.38861
0.375834
0.362661
0.349122
0.335282
0.321221
0.30702
0.292754
0.278498
0.264324
0.250302
0.236501
0.222985
0.209816
0.197051
0.184738
0.172918
0.161622
0.150872
0.14068
0.131051
0.121982
0.113461
0.105475
0.0980044
0.0910282
0.0845227
0.0784633
0.0728249
0.0675824
0.0627111
0.058187
0.053987
0.050089
0.046472
0.0431163
0.0400032
0.0371152
0.034436
0.0319504
0.0296442
0.0275042
0.0255181
0.0236747
0.0219633
0.0203743
0.0188986
0.0175279
0.0162544
0.0150712
0.0139713
0.012949
0.0119982
0.0111143
0.0102918
0.00952685
0.00881466
0.00815221
0.00753502
0.00696093
0.00642561
0.00592778
0.00546309
0.00503116
0.00462746
0.00425255
0.00390155
0.00357608
0.00327068
0.00298819
0.00272224
0.00247731
0.00224542
0.00203369
0.00183105
0.00164911
0.00147164
0.00131607
0.00116241
0.00102544
0.000904599
0.000762317
0.000701346
0.000534717
0.000498622
0.000418702
0.000244522
0.000418988
0.000224338
0.000578421
0.000191413
5.64573e-05
0.000567497
0.000543453
0.000863805
0.000591349
0.000884578
0.000387577
0.000380007
0.000729101
0.000876822
0.00103188
0.000762669
0.000922818
0.000376611
0.000883585
0.000691701
0.000227581
0.000396716
0.000156067
0.000712032
0.000645241
0.000249885
0.000490735
0.000294581
0.000343953
0.431607
0.418468
0.40576
0.393277
0.380847
0.368346
0.355719
0.342967
0.330123
0.317237
0.304361
0.29154
0.278812
0.26621
0.253763
0.241497
0.229435
0.217604
0.206031
0.194745
0.183773
0.173144
0.162883
0.153013
0.14355
0.13451
0.125899
0.117723
0.10998
0.102665
0.09577
0.0892841
0.0831935
0.077483
0.0721359
0.0671351
0.0624628
0.0581011
0.0540323
0.0502392
0.0467047
0.0434128
0.0403477
0.0374947
0.0348396
0.0323691
0.0300705
0.0279322
0.025943
0.0240926
0.0223711
0.0207696
0.0192795
0.0178932
0.016603
0.0154026
0.014285
0.013245
0.0122764
0.0113749
0.010535
0.00975317
0.00902431
0.00834593
0.00771302
0.00712409
0.00657409
0.00606258
0.00558427
0.00513983
0.00472354
0.00433728
0.00397466
0.00363901
0.00332282
0.0030314
0.00275529
0.00250293
0.0022612
0.00204387
0.00183164
0.00164539
0.00146088
0.00129676
0.00115013
0.00098066
0.000903096
0.000705543
0.00065849
0.000558342
0.000355424
0.00054656
0.000287338
0.000678655
0.000217849
0.000102966
0.000595986
0.000573497
0.000963724
0.000646251
0.00101309
0.000425505
0.000368192
0.000782723
0.000981382
0.00115905
0.000862431
0.00106656
0.000370097
0.000957833
0.000773401
0.000261191
0.000424758
0.000157684
0.000765034
0.00072397
0.000248869
0.000526813
0.000339269
0.000411701
0.425859
0.412322
0.399259
0.386531
0.374019
0.361623
0.349277
0.336959
0.324678
0.312461
0.300345
0.288366
0.276555
0.264937
0.253528
0.242339
0.231377
0.220645
0.210146
0.199885
0.189867
0.180103
0.170603
0.161378
0.152443
0.143811
0.135493
0.1275
0.119839
0.112517
0.105537
0.0988978
0.0925983
0.0866334
0.0809962
0.0756781
0.0706691
0.065958
0.0615327
0.0573808
0.0534891
0.0498446
0.0464344
0.0432454
0.0402651
0.0374813
0.034882
0.032456
0.0301924
0.0280808
0.0261115
0.0242752
0.022563
0.0209669
0.0194788
0.0180919
0.0167987
0.0155936
0.0144698
0.0134226
0.0124458
0.0115356
0.0106863
0.009895
0.00915613
0.00846805
0.00782495
0.0072264
0.00666629
0.00614547
0.00565729
0.00520401
0.00477815
0.00438367
0.00401177
0.00366871
0.00334339
0.00304575
0.00276036
0.00250345
0.00225226
0.00203152
0.00181227
0.00161762
0.00144145
0.001242
0.001144
0.00091324
0.000851952
0.000728402
0.000495404
0.000698162
0.000360927
0.000829006
0.000287293
0.000175418
0.000617937
0.000585858
0.00105264
0.000688719
0.00113401
0.000453596
0.000334441
0.000821778
0.00107237
0.00127257
0.000958587
0.00120292
0.00035173
0.00101059
0.000843912
0.000292331
0.000447395
0.000155804
0.000802131
0.000796528
0.000240588
0.000548495
0.000382375
0.000486167
0.420642
0.406822
0.393502
0.380584
0.367983
0.355618
0.343428
0.331377
0.319453
0.307664
0.296028
0.284573
0.273323
0.262301
0.251525
0.241007
0.230753
0.220762
0.21103
0.201551
0.192319
0.183328
0.174573
0.166051
0.157765
0.149714
0.141904
0.13434
0.127027
0.119971
0.113179
0.106653
0.100399
0.0944182
0.0887103
0.0832744
0.0781079
0.0732064
0.0685643
0.0641751
0.0600309
0.0561235
0.0524437
0.0489823
0.0457294
0.0426754
0.0398102
0.0371242
0.0346077
0.0322515
0.0300461
0.0279832
0.0260538
0.0242504
0.0225646
0.0209897
0.0195181
0.0181439
0.01686
0.0156615
0.0145417
0.0134968
0.0125202
0.0116093
0.0107576
0.00996355
0.00922054
0.00852829
0.00787982
0.00727626
0.00670996
0.00618368
0.00568873
0.00522986
0.0047968
0.00439697
0.00401737
0.00366972
0.00333595
0.00303512
0.00274058
0.00248137
0.00222325
0.00199451
0.00178476
0.00155237
0.00142967
0.00116338
0.00108406
0.000933738
0.000669305
0.000877532
0.000447396
0.00100953
0.000376684
0.000295925
0.000658464
0.000604599
0.00115475
0.000715334
0.00124234
0.000469009
0.000276337
0.000845093
0.00114368
0.0013677
0.00104866
0.00132503
0.000321286
0.00103803
0.000900638
0.000317547
0.00046553
0.000149668
0.000821398
0.000860761
0.000226163
0.000553404
0.000421663
0.000567451
0.415881
0.401857
0.388351
0.375289
0.362607
0.350242
0.338139
0.32626
0.314581
0.303092
0.291797
0.28071
0.269846
0.259223
0.248857
0.238762
0.228947
0.219416
0.210168
0.201199
0.1925
0.184061
0.175873
0.167923
0.160205
0.152708
0.145428
0.13836
0.131502
0.124853
0.118414
0.112187
0.106174
0.100377
0.0947978
0.089439
0.0843013
0.0793848
0.0746887
0.0702113
0.0659497
0.0619003
0.0580585
0.054419
0.050976
0.0477229
0.0446529
0.0417588
0.0390331
0.0364684
0.0340571
0.0317917
0.0296647
0.0276691
0.0257972
0.0240428
0.0223986
0.0208589
0.0194166
0.018067
0.0168032
0.0156214
0.0145148
0.0134806
0.0125119
0.0116074
0.0107596
0.00996867
0.00922667
0.00853519
0.0078855
0.00728103
0.00671179
0.00618348
0.0056842
0.00522276
0.00478402
0.00438179
0.00399501
0.00364595
0.00330364
0.00300195
0.00270073
0.00243417
0.00218668
0.00191819
0.00176628
0.00146205
0.00136049
0.00117981
0.000882542
0.00108911
0.000549663
0.00121215
0.000477867
0.000440335
0.000752151
0.000659545
0.00124783
0.000744086
0.0013537
0.000469335
0.000191643
0.000851228
0.00118842
0.0014397
0.00112922
0.00142569
0.000277932
0.00103702
0.000941316
0.000332621
0.000480006
0.000139373
0.000820901
0.00091447
0.000206816
0.00053913
0.000488105
0.000688192
0.411515
0.397343
0.383701
0.370532
0.357784
0.345406
0.333353
0.321587
0.310078
0.298809
0.287772
0.276966
0.266399
0.256078
0.246016
0.236222
0.226707
0.217479
0.208539
0.199887
0.191521
0.183432
0.175612
0.168049
0.160733
0.153652
0.146795
0.14015
0.13371
0.127466
0.121413
0.115546
0.109861
0.104358
0.0990346
0.0938912
0.0889279
0.0841452
0.0795434
0.0751228
0.070883
0.0668234
0.0629426
0.0592388
0.0557093
0.0523509
0.04916
0.0461324
0.0432632
0.0405476
0.03798
0.0355551
0.0332669
0.0311099
0.0290778
0.0271653
0.0253659
0.0236747
0.0220851
0.0205929
0.0191912
0.0178769
0.0166428
0.0154867
0.0144013
0.0133855
0.0124315
0.0115397
0.0107014
0.00991897
0.00918244
0.00849616
0.00784872
0.00724706
0.00667741
0.00615033
0.00564821
0.00518738
0.00474333
0.00434211
0.00394783
0.0035998
0.00325136
0.00294331
0.00265391
0.0023461
0.00216036
0.00181569
0.00168743
0.0014726
0.00114109
0.00133804
0.000671353
0.0014412
0.000594291
0.00061324
0.000885
0.000735052
0.00132923
0.000782513
0.00147524
0.000452781
0.000140226
0.000837856
0.00119913
0.00148364
0.00119543
0.00149786
0.000223537
0.00100519
0.000963605
0.00033267
0.000491067
0.000123149
0.00079848
0.000955303
0.000186521
0.000505844
0.000554359
0.000825486
0.407492
0.393213
0.379474
0.366225
0.353427
0.341035
0.329011
0.317319
0.305931
0.294825
0.283984
0.2734
0.263071
0.252997
0.243182
0.233633
0.224355
0.215355
0.206638
0.198206
0.190058
0.182192
0.174601
0.167279
0.160217
0.153404
0.146829
0.140481
0.134348
0.128419
0.122685
0.117136
0.111764
0.106562
0.101525
0.0966491
0.0919299
0.0873655
0.082954
0.0786944
0.0745859
0.0706279
0.0668198
0.063161
0.0596507
0.0562878
0.0530705
0.0499972
0.0470653
0.0442725
0.0416152
0.0390905
0.0366942
0.0344228
0.0322715
0.0302366
0.0283128
0.0264965
0.024782
0.0231659
0.0216421
0.0202081
0.018857
0.0175872
0.0163914
0.0152691
0.0142121
0.0132216
0.0122882
0.011415
0.0105911
0.00982194
0.00909462
0.00841764
0.00777515
0.00717988
0.00661136
0.00608899
0.00558433
0.00512776
0.00467794
0.00428026
0.00388092
0.00352795
0.00319283
0.00284248
0.00261853
0.00223083
0.00207145
0.00181849
0.00145138
0.00163015
0.000816893
0.00170176
0.000729997
0.000819185
0.00104621
0.000819269
0.00148124
0.000885209
0.00158471
0.000429594
0.000154802
0.000801116
0.00116794
0.00149415
0.00124073
0.00153513
0.00017938
0.000940884
0.000964533
0.000312412
0.000497944
9.82476e-05
0.000751619
0.000998849
0.000219027
0.00051406
0.000646342
0.000978781
0.40377
0.389415
0.375606
0.362302
0.349466
0.337063
0.325057
0.313417
0.302116
0.29113
0.28044
0.270031
0.259894
0.250024
0.240419
0.231079
0.222005
0.213201
0.20467
0.196414
0.188435
0.18073
0.173298
0.166134
0.159232
0.152586
0.146185
0.140022
0.134085
0.128363
0.122848
0.117527
0.112391
0.107431
0.102637
0.0980028
0.0935207
0.0891849
0.0849904
0.0809332
0.07701
0.0732182
0.0695558
0.0660211
0.0626129
0.05933
0.0561715
0.0531362
0.050223
0.0474306
0.0447573
0.0422017
0.0397611
0.0374339
0.0352168
0.0331079
0.0311031
0.0292004
0.0273951
0.0256854
0.0240657
0.0225347
0.0210861
0.0197194
0.0184273
0.0172104
0.0160601
0.0149789
0.0139567
0.0129977
0.0120901
0.0112408
0.0104353
0.00968405
0.00896888
0.00830521
0.00766933
0.00708432
0.00651723
0.00600355
0.00549581
0.00504615
0.00459316
0.00419249
0.00380862
0.00341277
0.00314689
0.00271359
0.00251906
0.00222391
0.00182006
0.00197182
0.00103049
0.0019998
0.000889854
0.00106348
0.00123942
0.000914867
0.00165971
0.00100952
0.0017172
0.000503361
0.00025368
0.000734561
0.00108644
0.00146515
0.00127687
0.00155123
0.000143311
0.000842716
0.000939986
0.000266547
0.00049873
6.40479e-05
0.000677405
0.00105065
0.000285413
0.000542398
0.000770291
0.00114795
0.400313
0.385906
0.372048
0.358705
0.345845
0.333434
0.321443
0.309841
0.298605
0.28771
0.277135
0.266863
0.256881
0.24718
0.237752
0.228592
0.219697
0.211068
0.202704
0.194606
0.186774
0.179207
0.171904
0.164862
0.158078
0.151546
0.14526
0.139212
0.133396
0.127802
0.122421
0.117243
0.11226
0.107462
0.102838
0.0983812
0.0940819
0.0899324
0.0859254
0.0820543
0.0783133
0.0746973
0.0712019
0.0678234
0.0645587
0.0614052
0.0583607
0.0554235
0.052592
0.049865
0.0472409
0.0447189
0.0422972
0.039975
0.03775
0.0356217
0.0335869
0.031645
0.0297924
0.0280286
0.0263488
0.0247533
0.0232361
0.0217981
0.0204322
0.0191405
0.0179143
0.0167575
0.0156591
0.0146255
0.0136433
0.0127216
0.0118441
0.0110238
0.0102398
0.00951095
0.00880977
0.00816376
0.00753488
0.00696449
0.0063984
0.00589609
0.00538834
0.00493828
0.00450407
0.00406036
0.00375008
0.0032689
0.00303605
0.00269481
0.00225349
0.0023696
0.00135371
0.00234215
0.00107963
0.00135239
0.00146863
0.00102576
0.00185885
0.00114901
0.00192325
0.000659024
0.000446483
0.000764949
0.00102976
0.00142726
0.00131495
0.001563
0.000109348
0.000720029
0.000884363
0.000190183
0.000502108
3.1519e-05
0.000582238
0.00110031
0.000370703
0.000564719
0.000903653
0.00133184
0.397091
0.382649
0.36876
0.355392
0.342517
0.330104
0.318125
0.306555
0.295368
0.284543
0.274058
0.263895
0.254038
0.244475
0.235194
0.226188
0.217451
0.208977
0.200764
0.192811
0.185116
0.177677
0.170492
0.16356
0.156877
0.150439
0.144242
0.13828
0.132546
0.127035
0.121739
0.116649
0.111758
0.107058
0.10254
0.098195
0.0940153
0.0899924
0.0861184
0.0823858
0.0787872
0.0753162
0.0719666
0.0687327
0.0656097
0.0625932
0.0596791
0.0568644
0.0541459
0.0515216
0.0489887
0.0465461
0.0441915
0.0419242
0.0397418
0.0376443
0.0356289
0.0336959
0.0318419
0.0300677
0.0283691
0.0267474
0.0251972
0.0237208
0.0223111
0.0209721
0.0196945
0.0184841
0.0173294
0.0162387
0.0151973
0.014217
0.0132792
0.0124001
0.011556
0.0107696
0.0100092
0.00930759
0.00862098
0.00799734
0.00737539
0.00682218
0.00626107
0.00576169
0.00527786
0.00478498
0.00442987
0.00389923
0.00362635
0.00323579
0.00275688
0.00282981
0.00176646
0.00273623
0.00130592
0.00169302
0.00173789
0.00115669
0.00208312
0.00130714
0.00214011
0.000838859
0.000678598
0.000893178
0.00106145
0.00146114
0.00138869
0.00161033
0.000216581
0.00072985
0.000888985
0.000104402
0.00056199
0.000113752
0.000590729
0.00120858
0.000475486
0.000579809
0.00104692
0.00152859
0.394077
0.379614
0.365706
0.352325
0.339443
0.327033
0.315068
0.303524
0.292378
0.281609
0.271196
0.26112
0.251364
0.241913
0.232755
0.22388
0.215277
0.20694
0.198864
0.191043
0.183475
0.176156
0.169084
0.162257
0.155669
0.14932
0.143203
0.137315
0.131651
0.126205
0.120971
0.115942
0.111111
0.106473
0.102018
0.0977411
0.0936331
0.0896871
0.0858955
0.0822511
0.0787466
0.0753751
0.0721298
0.0690045
0.0659931
0.0630901
0.0602903
0.0575891
0.054982
0.0524655
0.0500359
0.0476907
0.0454266
0.0432421
0.0411342
0.0391023
0.0371433
0.0352576
0.0334415
0.0316964
0.0300178
0.0284082
0.0268618
0.0253824
0.0239626
0.0226078
0.0213084
0.0200722
0.0188865
0.0177621
0.0166829
0.0156634
0.0146828
0.0137609
0.0128706
0.0120394
0.0112307
0.0104834
0.0097474
0.00907788
0.00840645
0.00780729
0.00719778
0.00665157
0.00612216
0.00558053
0.00518312
0.00460281
0.00429032
0.00384873
0.00333297
0.00335746
0.00224922
0.00318944
0.00157585
0.00209285
0.00205122
0.00131301
0.00233752
0.00148837
0.00237553
0.00105005
0.000942737
0.0010468
0.00110493
0.0015526
0.00150451
0.00169283
0.00038569
0.000762699
0.000975922
0.000168041
0.000714853
0.000223287
0.000613317
0.00132427
0.000599832
0.000587783
0.00120077
0.00173581
0.39125
0.376776
0.362859
0.349473
0.336592
0.324188
0.312238
0.300719
0.289609
0.278886
0.268531
0.258526
0.248852
0.239494
0.230438
0.221673
0.213186
0.204968
0.197012
0.189311
0.18186
0.174654
0.167689
0.160961
0.154467
0.148203
0.142165
0.136349
0.130751
0.125364
0.120185
0.115207
0.110424
0.105831
0.101421
0.0971881
0.0931251
0.0892257
0.0854832
0.0818911
0.0784426
0.0751314
0.0719509
0.0688951
0.0659577
0.0631331
0.0604154
0.0577996
0.0552803
0.0528534
0.0505138
0.0482585
0.0460827
0.0439843
0.041959
0.0400058
0.0381202
0.0363026
0.0345483
0.0328587
0.0312285
0.0296607
0.0281488
0.0266974
0.0252983
0.0239585
0.0226672
0.0214341
0.0202451
0.0191136
0.0180214
0.0169864
0.0159848
0.0150407
0.014123
0.0132643
0.0124233
0.0116447
0.0108726
0.0101688
0.00945894
0.00882252
0.00817411
0.0075866
0.00702002
0.00643253
0.00599917
0.00537136
0.00502238
0.00453086
0.00397989
0.00395485
0.00280267
0.00370795
0.00194197
0.00255871
0.0024123
0.00150037
0.00262733
0.00169808
0.00263797
0.00129901
0.00124541
0.00122135
0.00116286
0.00166017
0.00162116
0.00177688
0.00058079
0.000810271
0.00106511
0.000271048
0.000895273
0.000355295
0.000647625
0.00144906
0.000743535
0.000590933
0.00136612
0.0019509
0.388588
0.374113
0.360196
0.346811
0.333936
0.321543
0.30961
0.298114
0.287036
0.276353
0.266048
0.256101
0.246495
0.237214
0.228244
0.219571
0.211182
0.203068
0.195217
0.187623
0.180278
0.173175
0.16631
0.159678
0.153273
0.147093
0.141133
0.135388
0.129854
0.124527
0.119401
0.114472
0.109734
0.105182
0.10081
0.0966119
0.0925826
0.088716
0.085006
0.0814468
0.0780323
0.0747568
0.0716143
0.0685992
0.0657057
0.0629285
0.0602618
0.0577007
0.0552397
0.0528746
0.0505997
0.0484118
0.0463054
0.044278
0.0423241
0.0404426
0.0386277
0.0368796
0.0351921
0.033567
0.0319973
0.0304866
0.0290267
0.0276235
0.0262667
0.0249649
0.0237054
0.0225001
0.0213325
0.0202188
0.019138
0.0181115
0.0171121
0.0161683
0.0152446
0.0143791
0.013525
0.0127334
0.0119426
0.01122
0.0104874
0.00982595
0.00915318
0.00853318
0.00794285
0.00731558
0.00685697
0.00618745
0.00580809
0.00527234
0.00468843
0.00461944
0.00342188
0.00429468
0.00243466
0.00309486
0.00282384
0.00172457
0.00295823
0.00194273
0.00293736
0.00159153
0.00159303
0.00141398
0.00123849
0.00178465
0.00173933
0.00187205
0.000804093
0.000874373
0.00115224
0.00044768
0.00109913
0.000507751
0.000697708
0.00158568
0.000906243
0.00063212
0.00154409
0.00217123
0.386076
0.371606
0.357694
0.344318
0.331452
0.319074
0.307159
0.295687
0.284638
0.273992
0.263729
0.253832
0.244284
0.235068
0.22617
0.217575
0.20927
0.201244
0.193485
0.185985
0.178734
0.171726
0.164953
0.15841
0.152091
0.145992
0.140107
0.134433
0.128964
0.123696
0.118624
0.113744
0.109051
0.104539
0.100203
0.0960388
0.0920401
0.0882017
0.0845181
0.0809839
0.0775937
0.0743422
0.0712238
0.0682336
0.065366
0.0626162
0.0599789
0.0574497
0.055023
0.0526951
0.0504603
0.0483155
0.0462549
0.0442762
0.0423734
0.0405453
0.0387853
0.0370938
0.0354633
0.033896
0.0323832
0.0309293
0.0295242
0.0281746
0.0268684
0.0256155
0.0244008
0.023238
0.0221082
0.0210301
0.0199794
0.018981
0.0180038
0.0170805
0.0161713
0.0153189
0.0144722
0.0136863
0.0128967
0.0121723
0.0114363
0.0107645
0.0100863
0.00944542
0.00884938
0.00819208
0.00772282
0.00702232
0.00662112
0.00605365
0.00543882
0.0053411
0.00409351
0.00494631
0.00301076
0.00370027
0.00328656
0.00207952
0.00333583
0.00223001
0.00328513
0.0019319
0.00199044
0.0016238
0.00133505
0.00192777
0.00186345
0.00198903
0.00105664
0.000957074
0.00123513
0.000681526
0.0013241
0.000675769
0.000766668
0.00173671
0.00108751
0.000809892
0.00173569
0.00239406
0.383698
0.369238
0.355337
0.341973
0.329122
0.31676
0.304866
0.293418
0.282397
0.271784
0.261559
0.251707
0.242208
0.233048
0.224211
0.215682
0.207449
0.199499
0.19182
0.184403
0.177236
0.170312
0.163623
0.157163
0.150924
0.144901
0.139089
0.133483
0.128078
0.12287
0.117852
0.113022
0.108374
0.103904