/*--------------------------------*- C++ -*----------------------------------*\
| =========                 |                                                 |
| \\      /  F ield         | OpenFOAM: The Open Source CFD Toolbox           |
|  \\    /   O peration     | Version:  2412                                  |
|   \\  /    A nd           | Website:  www.openfoam.com                      |
|    \\/     M anipulation  |                                                 |
\*---------------------------------------------------------------------------*/
FoamFile
{
    version     2.0;
    format      ascii;
    arch        "LSB;label=32;scalar=64";
    class       surfaceScalarField;
    location    "1.145";
    object      phi;
}
// * * * * * * * * * * * * * * * * * * * * * * * * * * * * * * * * * * * * * //

dimensions      [0 3 -1 0 0 0 0];

oriented        oriented;

internalField   nonuniform List<scalar> 
24930
(
0.0179764
0.0127692
-0.0307456
0.0106063
0.00737008
0.0069531
0.00365322
0.00517593
0.00177717
0.00420335
0.000972586
0.00358014
0.000623208
0.00313402
0.000446123
0.00279438
0.000339637
0.00252511
0.000269272
0.00230513
0.000219982
0.00212127
0.000183856
0.00196481
0.000156464
0.00182968
0.000135126
0.00171154
0.000118136
0.00160719
0.000104359
0.00151417
9.30115e-05
0.00143064
8.35375e-05
0.0013551
7.55343e-05
0.0012864
6.87035e-05
0.00122358
6.28198e-05
0.00116587
5.77105e-05
0.00111263
5.32411e-05
0.00106332
4.93058e-05
0.00101751
4.58201e-05
0.000974791
4.27159e-05
0.000934854
3.99379e-05
0.000897415
3.74407e-05
0.00086223
3.51866e-05
0.000829087
3.31444e-05
0.0007978
3.12878e-05
0.000768207
2.95947e-05
0.000740161
2.80461e-05
0.000713536
2.66261e-05
0.000688215
2.53209e-05
0.000664096
2.41184e-05
0.000641088
2.30086e-05
0.000619105
2.19822e-05
0.000598072
2.10317e-05
0.000577921
2.015e-05
0.000558589
1.93313e-05
0.000540018
1.85702e-05
0.000522155
1.78622e-05
0.000504951
1.72028e-05
0.000488361
1.6589e-05
0.000472343
1.60165e-05
0.000456859
1.54838e-05
0.000441871
1.49865e-05
0.000427346
1.45247e-05
0.000413252
1.4093e-05
0.000399557
1.3694e-05
0.000386235
1.33205e-05
0.000373256
1.2978e-05
0.000360599
1.26562e-05
0.000348232
1.23655e-05
0.00033614
1.20901e-05
0.000324291
1.18476e-05
0.000312675
1.1614e-05
0.000301257
1.14172e-05
0.000290034
1.12211e-05
0.000278964
1.10687e-05
0.000268058
1.09058e-05
0.00025726
1.07972e-05
0.000246597
1.06627e-05
0.000235998
1.05987e-05
0.000225512
1.0487e-05
0.000215043
1.04691e-05
0.000204671
1.03731e-05
0.000194268
1.0404e-05
0.000183954
1.03144e-05
0.000173557
1.03974e-05
0.000163256
1.03018e-05
0.000152814
1.04416e-05
0.000142492
1.03227e-05
0.000131966
1.05256e-05
0.000121606
1.03598e-05
0.000110972
1.06338e-05
0.000100583
1.03899e-05
8.98394e-05
1.07433e-05
7.94518e-05
1.03878e-05
6.86369e-05
1.08152e-05
5.82876e-05
1.03496e-05
4.75235e-05
1.07644e-05
3.71767e-05
1.03473e-05
2.68083e-05
1.03689e-05
1.61453e-05
1.06637e-05
7.19198e-06
8.9537e-06
-4.6504e-06
1.18425e-05
-1.31171e-05
8.46758e-06
-1.98288e-05
6.71002e-06
-3.75839e-05
1.77566e-05
-3.14626e-05
-6.12275e-06
-6.35864e-05
3.21251e-05
-3.85066e-05
-2.50861e-05
-7.82946e-05
3.9786e-05
-8.59223e-05
7.65938e-06
-4.03371e-05
-4.5611e-05
-0.000149547
0.000109217
-5.09714e-05
-9.85732e-05
-0.000172287
0.000121307
-9.63107e-05
-7.59702e-05
-0.000165923
6.9601e-05
-0.000202452
3.65458e-05
-7.56129e-05
-0.000126863
-0.000266146
0.000190539
-7.6168e-05
-0.00018997
-0.00029761
0.000221434
-0.000149022
-0.000148578
-0.000256269
0.000107231
-0.000396464
0.000140221
-0.00010139
-0.000295085
-0.000258692
0.000157283
-0.000325808
6.71475e-05
-0.000232971
-9.28326e-05
-0.000144355
-8.86348e-05
-0.000477967
0.000333642
-0.000292857
-0.000185098
-8.97216e-05
-0.000203162
-0.0003264
0.000236682
-0.000342668
1.62946e-05
-0.000148504
0.0336936
0.0163384
-0.0372628
0.0277518
0.0133119
0.0221948
0.00921017
0.0179176
0.00605439
0.0148695
0.00402066
0.0127078
0.0027849
0.01112
0.00203399
0.00990237
0.00155723
0.00893475
0.00123689
0.00814412
0.00101062
0.00748368
0.000844295
0.00692211
0.000718029
0.00643763
0.000619613
0.00601453
0.000541229
0.00564123
0.000477661
0.00530894
0.000425307
0.00501087
0.000381608
0.0047417
0.000344706
0.00449718
0.000313223
0.00427388
0.000286119
0.004069
0.000262594
0.00388021
0.000242027
0.00370559
0.000223928
0.00354351
0.000207905
0.00339258
0.000193644
0.00325164
0.000180889
0.00311965
0.00016943
0.00299575
0.000159092
0.00287916
0.000149731
0.00276923
0.000141225
0.00266535
0.000133472
0.00256702
0.000126384
0.00247376
0.000119888
0.00238516
0.000113919
0.00230085
0.000108423
0.00222051
0.000103352
0.00214383
9.86637e-05
0.00207053
9.43233e-05
0.00200038
9.02983e-05
0.00193315
8.65618e-05
0.00186863
8.30886e-05
0.00180663
7.98582e-05
0.00174698
7.685e-05
0.00168952
7.40491e-05
0.0016341
7.14376e-05
0.00158057
6.9006e-05
0.00152882
6.67374e-05
0.00147872
6.46276e-05
0.00143015
6.26584e-05
0.00138301
6.08327e-05
0.0013372
5.91281e-05
0.00129262
5.75569e-05
0.00124918
5.60887e-05
0.0012068
5.47489e-05
0.00116539
5.34934e-05
0.00112487
5.23672e-05
0.00108517
5.13047e-05
0.00104621
5.03789e-05
0.00100794
4.94917e-05
0.000970245
4.8757e-05
0.00093312
4.80286e-05
0.000896436
4.74793e-05
0.000860204
4.68925e-05
0.000824276
4.65264e-05
0.0007887
4.60623e-05
0.000753289
4.58802e-05
0.000718147
4.55156e-05
0.000683032
4.55201e-05
0.000648123
4.52248e-05
0.000613103
4.5419e-05
0.000578253
4.51525e-05
0.000543154
4.55413e-05
0.00050823
4.52473e-05
0.000472918
4.58386e-05
0.000437842
4.5436e-05
0.000402231
4.62452e-05
0.000367005
4.56155e-05
0.000331076
4.66727e-05
0.000295802
4.56616e-05
0.000259635
4.69822e-05
0.000224467
4.55184e-05
0.000188391
4.68405e-05
0.000153241
4.54977e-05
0.000118452
4.51591e-05
8.19774e-05
4.71384e-05
5.21248e-05
3.88073e-05
1.0796e-05
5.3172e-05
-1.31825e-05
3.24465e-05
-4.48987e-05
3.84284e-05
-9.29734e-05
6.58306e-05
-8.63673e-05
-1.27289e-05
-0.000181696
0.000127452
-0.000104367
-0.000102411
-0.000252787
0.000188203
-0.000232528
-1.26351e-05
-0.0001439
-0.000134232
-0.00042941
0.000394723
-0.000167012
-0.00036097
-0.000523306
0.0004776
-0.000289689
-0.000309585
-0.000563561
0.000343471
-0.000585259
5.81131e-05
-0.000287044
-0.000425072
-0.000784081
0.000687577
-0.000258649
-0.000715404
-0.000901335
0.000864123
-0.000471657
-0.000578257
-0.000866206
0.000501784
-0.00118818
0.000462181
-0.000351083
-0.00113217
-0.000837182
0.00064339
-0.00102116
0.000251112
-0.000693198
-0.000420791
-0.00051712
-0.000264702
-0.00146107
0.00127758
-0.000870595
-0.000775567
-0.00032593
-0.000747812
-0.00105279
0.000963538
-0.00101621
-2.03115e-05
-0.000603142
0.0414656
0.0160353
-0.0411624
0.0391724
0.015605
0.0352388
0.0131439
0.0309489
0.0103443
0.0270313
0.00793826
0.0237403
0.00607591
0.0210644
0.0047098
0.0188947
0.00372696
0.0171163
0.00301529
0.0156365
0.00249039
0.0143864
0.00209445
0.0133155
0.00178892
0.0123869
0.00154818
0.0115732
0.00135496
0.0108535
0.00119738
0.0102117
0.00106704
0.00963545
0.0009579
0.00911465
0.000865508
0.00864134
0.000786532
0.00820903
0.000718437
0.00781236
0.000659266
0.0074469
0.000607488
0.00710893
0.000561891
0.00679534
0.000521505
0.00650344
0.000485545
0.00623096
0.000453373
0.00597593
0.000424463
0.00573664
0.000398379
0.00551162
0.000374758
0.00529955
0.000353295
0.00509929
0.00033373
0.00490983
0.000315846
0.00473027
0.000299455
0.00455979
0.000284396
0.00439769
0.000270529
0.0042433
0.000257735
0.00409605
0.00024591
0.00395541
0.000234961
0.0038209
0.000224809
0.00369208
0.000215385
0.00356854
0.000206625
0.00344992
0.000198476
0.00333588
0.000190889
0.0032261
0.000183823
0.0031203
0.000177235
0.00301821
0.000171098
0.00291957
0.000165374
0.00282415
0.000160045
0.00273173
0.000155074
0.0026421
0.000150458
0.00255508
0.000146153
0.00247046
0.000142174
0.00238808
0.000138464
0.00230776
0.000135061
0.00222937
0.000131887
0.00215271
0.000129015
0.00207769
0.000126329
0.00200411
0.000123951
0.00193189
0.00012171
0.00186084
0.0001198
0.0017909
0.000117966
0.00172188
0.000116505
0.00165373
0.000115041
0.00158624
0.000114017
0.00151942
0.000112883
0.00145301
0.00011229
0.00138709
0.000111438
0.00132133
0.000111273
0.00125592
0.000110642
0.00119044
0.0001109
0.00112519
0.000110407
0.00105964
0.000111083
0.000994278
0.000110614
0.000928411
0.000111705
0.000862759
0.000111088
0.000796394
0.00011261
0.00073043
0.000111579
0.000663507
0.000113596
0.000597401
0.000111768
0.000530021
0.000114363
0.000464071
0.000111469
0.000396754
0.000114158
0.000330848
0.000111404
0.000265727
0.000110281
0.000197251
0.000115615
0.000141129
9.49306e-05
6.43943e-05
0.000129907
1.93278e-05
7.75139e-05
-4.55808e-05
0.000103337
-0.00012594
0.00014619
-0.000126109
-1.25567e-05
-0.00029002
0.000291362
-0.000160921
-0.00023151
-0.000438733
0.000466015
-0.000372163
-7.91798e-05
-0.000263023
-0.00024337
-0.000719242
0.000850939
-0.000289777
-0.00079044
-0.000904196
0.00109202
-0.000498081
-0.000715702
-0.00102744
0.000872828
-0.000994153
2.52404e-05
-0.000555433
-0.000863789
-0.00134644
0.00147858
-0.000461671
-0.00160017
-0.00156473
0.00196718
-0.000824834
-0.00131815
-0.00158976
0.00126671
-0.00203932
0.000911751
-0.000652044
-0.00251945
-0.00151861
0.00150996
-0.0017735
0.000506008
-0.00119296
-0.00100133
-0.000979439
-0.000478216
-0.00253
0.00282816
-0.00146112
-0.00184445
-0.000628747
-0.00158018
-0.0018778
0.0022126
-0.00170276
-0.000195329
-0.00141077
0.0459285
0.014736
-0.0446292
0.04601
0.0155236
0.0444285
0.0147253
0.0417018
0.013071
0.0384552
0.0111849
0.0351477
0.00938339
0.032047
0.00781047
0.0292676
0.0065064
0.0268282
0.00545468
0.0247028
0.00461584
0.0228501
0.00394716
0.0212281
0.00341086
0.0197997
0.00297659
0.0185336
0.00262108
0.0174041
0.00232683
0.0163905
0.00208068
0.0154756
0.00187275
0.0146457
0.00169548
0.0138891
0.00154311
0.0131964
0.00141113
0.0125596
0.00129602
0.0119721
0.00119499
0.0114283
0.00110578
0.0109232
0.00102661
0.0104527
0.000955983
0.0100134
0.000892704
0.00960209
0.000835769
0.00921613
0.000784346
0.00885315
0.000737737
0.0085111
0.000695352
0.00818814
0.000656693
0.00788265
0.000621335
0.00759319
0.000588912
0.00731848
0.000559112
0.00705734
0.000531662
0.00680875
0.000506329
0.00657175
0.000482905
0.0063455
0.000461214
0.00612921
0.000441096
0.00592218
0.000422415
0.00572375
0.000405049
0.00553334
0.00038889
0.00535038
0.000373841
0.00517438
0.000359821
0.00500486
0.000346749
0.00484139
0.000334566
0.00468357
0.0003232
0.00453099
0.000312613
0.00438333
0.000302737
0.00424023
0.000293557
0.00410138
0.000284996
0.00396649
0.00027707
0.00383526
0.000269685
0.00370743
0.000262893
0.00358274
0.000256569
0.00346094
0.000250816
0.00334181
0.000245457
0.00322508
0.00024067
0.00311059
0.000236197
0.00299807
0.000232319
0.00288737
0.000228659
0.00277823
0.000225649
0.00267053
0.000222733
0.00256399
0.000220562
0.00245855
0.000218319
0.00235387
0.000216968
0.00225
0.000215316
0.0021465
0.000214768
0.00204354
0.000213602
0.00194061
0.000213834
0.001838
0.000213017
0.00173508
0.000214002
0.00163236
0.000213337
0.00152902
0.000215047
0.00142588
0.000214234
0.00132181
0.000216674
0.00121816
0.000215231
0.00111325
0.000218511
0.00100931
0.000215704
0.000903648
0.000220026
0.00079988
0.000215238
0.000694177
0.000219861
0.000590476
0.000215106
0.000487839
0.00021292
0.000380342
0.000223113
0.000291008
0.000184265
0.000171225
0.000249691
9.7461e-05
0.000151279
-9.44433e-06
0.000210244
-0.000124211
0.000260957
-0.000139077
2.30851e-06
-0.000378467
0.00053075
-0.000200456
-0.000409519
-0.00062526
0.000890819
-0.000500017
-0.000204436
-0.000392017
-0.00035137
-0.00101497
0.00147389
-0.000412637
-0.00139278
-0.00131211
0.00199149
-0.000719737
-0.00130808
-0.0015516
0.00170469
-0.00143216
-9.46181e-05
-0.000883101
-0.00141284
-0.00195425
0.00254973
-0.00068011
-0.00287432
-0.00228783
0.00357491
-0.00120198
-0.002404
-0.00242508
0.00248982
-0.0029478
0.00143446
-0.00100948
-0.00445777
-0.00230662
0.0028071
-0.00256935
0.000768734
-0.00174042
-0.00183025
-0.00153249
-0.000686133
-0.00367409
0.00496976
-0.00205607
-0.00346247
-0.00100179
-0.00263446
-0.00278767
0.00399848
-0.00237877
-0.000604237
-0.00262651
0.0493949
0.0135418
-0.0482007
0.0503579
0.0145606
0.0503747
0.0147086
0.0493506
0.014095
0.0475037
0.0130318
0.0451266
0.0117605
0.0424912
0.0104459
0.0398041
0.00919346
0.0372002
0.00805855
0.0347541
0.00706202
0.0324978
0.00620346
0.0304372
0.00547138
0.0285641
0.00484976
0.0268633
0.00432191
0.0253176
0.00387246
0.0239103
0.00348805
0.0226254
0.00315756
0.0214491
0.00287181
0.0203689
0.00262334
0.0193739
0.0024061
0.0184548
0.00221513
0.0176034
0.00204641
0.0168125
0.00189663
0.0160761
0.00176306
0.0153886
0.00164345
0.0147454
0.00153591
0.0141423
0.00143887
0.0135757
0.001351
0.0130422
0.00127117
0.0125391
0.00119845
0.0120638
0.00113201
0.011614
0.00107115
0.0111877
0.00101527
0.0107829
0.000963848
0.0103982
0.000916438
0.0100318
0.000872642
0.00968263
0.000832115
0.00934929
0.000794558
0.00903068
0.000759701
0.00872578
0.000727315
0.00843364
0.000697189
0.00815338
0.000669143
0.00788421
0.00064301
0.00762538
0.000618651
0.0073762
0.000595927
0.00713602
0.000574737
0.00690426
0.00055496
0.00668035
0.000536526
0.00646376
0.000519323
0.006254
0.000503316
0.0060506
0.000488388
0.00585313
0.000474545
0.00566116
0.00046165
0.00547429
0.000449762
0.00529215
0.000438703
0.00511436
0.000428605
0.00494059
0.000419219
0.00477048
0.000410781
0.00460374
0.00040293
0.00444
0.000396051
0.00427904
0.000389615
0.00412047
0.000384218
0.00396412
0.000379085
0.00380956
0.000375115
0.00365671
0.000371171
0.00350509
0.000368587
0.00335471
0.000365703
0.00320501
0.000364466
0.00305613
0.000362482
0.00290743
0.000362541
0.0027592
0.000361244
0.00261067
0.000362538
0.00246238
0.000361623
0.00231335
0.000364081
0.0021645
0.000363078
0.00201449
0.000366684
0.00186491
0.000364818
0.00171368
0.000369734
0.00156361
0.000365779
0.00141125
0.000372386
0.00126129
0.000365192
0.00110868
0.000372476
0.000958793
0.000364994
0.000810018
0.000361696
0.000655123
0.000378008
0.000524029
0.000315361
0.00035244
0.000421281
0.000242834
0.000260885
8.99653e-05
0.000363114
-6.99237e-05
0.000420846
-0.000110744
4.31291e-05
-0.000432635
0.000852638
-0.000210774
-0.000631378
-0.000799974
0.00148002
-0.000606236
-0.000398179
-0.000524285
-0.000433316
-0.00130634
0.00225594
-0.000529195
-0.00216993
-0.00173846
0.00320075
-0.000948514
-0.00209802
-0.00213032
0.00288651
-0.00189614
-0.000328663
-0.00127439
-0.00203458
-0.00260137
0.00387671
-0.000911905
-0.00456379
-0.00306261
0.00572562
-0.00159517
-0.00387145
-0.00336849
0.00426315
-0.00390453
0.00197049
-0.00143187
-0.00693042
-0.00319668
0.00457192
-0.00339761
0.000969653
-0.00234114
-0.00288672
-0.00217591
-0.00085135
-0.00487312
0.00766699
-0.00264257
-0.00569303
-0.00144467
-0.00383234
-0.0037602
0.00631401
-0.00301295
-0.00135148
-0.00430917
0.0528535
0.0126438
-0.0519556
0.0538815
0.0135326
0.0545645
0.0140255
0.0546323
0.0140273
0.0540322
0.0136319
0.0528335
0.0129591
0.0511657
0.0121137
0.0491753
0.0111839
0.0469969
0.0102369
0.0447414
0.00931759
0.0424908
0.00845399
0.0403014
0.00766077
0.0382078
0.00694343
0.0362283
0.00630138
0.0343704
0.00573035
0.0326342
0.0052242
0.0310157
0.00477608
0.0295084
0.00437915
0.0281047
0.00402705
0.0267968
0.00371403
0.0255769
0.003435
0.0244377
0.00318556
0.0233725
0.0029619
0.0223748
0.00276073
0.021439
0.00257925
0.0205599
0.00241505
0.0197327
0.00226607
0.0189532
0.00213051
0.0182175
0.00200686
0.0175222
0.00189378
0.016864
0.00179013
0.0162403
0.00169492
0.0156482
0.00160728
0.0150856
0.00152646
0.0145503
0.00145178
0.0140403
0.00138267
0.0135538
0.00131861
0.0130892
0.00125916
0.012645
0.00120391
0.0122198
0.00115251
0.0118123
0.00110465
0.0114214
0.00106004
0.011046
0.00101844
0.010685
0.000979619
0.0103375
0.000943377
0.0100027
0.00090955
0.00967972
0.000877954
0.00936777
0.000848476
0.00906614
0.000820948
0.00877415
0.000795306
0.00849116
0.000771379
0.00821654
0.000749161
0.00794973
0.000728457
0.00769015
0.000709333
0.00743731
0.000691542
0.00719066
0.000675251
0.00694976
0.000660118
0.00671408
0.000646452
0.00648325
0.000633764
0.00625673
0.00062256
0.00603421
0.000612132
0.00581516
0.000603265
0.00559932
0.000594924
0.00538614
0.000588302
0.00517543
0.00058188
0.00496658
0.000577431
0.00475955
0.000572739
0.00455362
0.000570393
0.00434891
0.000567198
0.00414459
0.000566868
0.00394097
0.000564863
0.00373707
0.000566437
0.00353352
0.000565177
0.00332907
0.000568529
0.00312482
0.000567326
0.00291911
0.000572397
0.00271383
0.000570095
0.00250645
0.000577115
0.00230039
0.000571838
0.00209136
0.000581421
0.00188528
0.000571271
0.00167562
0.000582131
0.00146956
0.000571062
0.00126436
0.000566891
0.00105211
0.000590267
0.000868918
0.00049855
0.000635382
0.000654817
0.000480539
0.000415729
0.000270052
0.000573604
5.67551e-05
0.000634142
-2.3213e-05
0.0001231
-0.000433214
0.00126264
-0.000174479
-0.000890111
-0.000945856
0.0022514
-0.000676673
-0.000667371
-0.000649755
-0.000460225
-0.00157911
0.00318529
-0.00063104
-0.00311801
-0.00216997
0.00473968
-0.00117444
-0.00309355
-0.00275246
0.00446453
-0.00237915
-0.000701992
-0.00173194
-0.00268178
-0.00327903
0.0054238
-0.0011561
-0.00668672
-0.00387612
0.00844565
-0.00199341
-0.00575417
-0.00440892
0.00667868
-0.00489708
0.00245865
-0.00192834
-0.00989917
-0.00417815
0.00682174
-0.00424671
0.00103822
-0.00299858
-0.00413484
-0.00290405
-0.000945862
-0.00609994
0.0108629
-0.00320682
-0.00858615
-0.00194945
-0.00508969
-0.00476259
0.00912716
-0.00356705
-0.00254702
-0.00652198
0.0565741
0.0119569
-0.0558872
0.0574273
0.0126794
0.0582235
0.0132294
0.0587495
0.0135013
0.0588832
0.0134982
0.0585789
0.0132635
0.0578459
0.0128467
0.056732
0.0122978
0.0553058
0.0116631
0.0536428
0.0109806
0.0518163
0.0102804
0.0498919
0.00958521
0.0479241
0.00891123
0.045956
0.0082695
0.0440196
0.00766675
0.0421374
0.00710639
0.0403241
0.00658938
0.0385883
0.00611492
0.0369343
0.00568108
0.0353631
0.00528525
0.0338736
0.00492451
0.0324633
0.00459584
0.0311289
0.00429628
0.0298666
0.00402302
0.0286724
0.00377349
0.0275421
0.00354531
0.0264718
0.00333634
0.0254577
0.00314466
0.024496
0.00296856
0.0235833
0.00280651
0.0227163
0.00265714
0.0218919
0.00251925
0.0211075
0.00239176
0.0203602
0.00227372
0.0196477
0.00216428
0.0189677
0.00206267
0.0183181
0.00196822
0.0176969
0.00188034
0.0171023
0.00179847
0.0165327
0.00172215
0.0159864
0.00165094
0.015462
0.00158445
0.0149581
0.00152234
0.0144734
0.00146429
0.0140068
0.00141002
0.013557
0.0013593
0.0131231
0.00131186
0.012704
0.00126754
0.0122989
0.00122611
0.0119067
0.00118746
0.0115267
0.00115136
0.0111581
0.00111779
0.0108001
0.00108648
0.0104519
0.00105751
0.0101129
0.00103054
0.00978234
0.00100579
0.00945966
0.000982789
0.00914417
0.00096194
0.00883533
0.000942601
0.00853246
0.000925421
0.00823512
0.000909472
0.00794261
0.000895773
0.00765456
0.000882972
0.00737025
0.000872613
0.00708941
0.000862718
0.00681125
0.000855591
0.00653565
0.000848341
0.00626171
0.000844336
0.0059895
0.000839409
0.00571798
0.000838392
0.00544748
0.000835362
0.00517676
0.000837159
0.00490652
0.000835413
0.00463523
0.00083982
0.00436417
0.000838392
0.00409126
0.000845299
0.00381881
0.000842552
0.00354366
0.000852261
0.00327001
0.000845495
0.00299251
0.000858918
0.00271855
0.00084523
0.00243986
0.000860824
0.00216575
0.000845171
0.00189191
0.000840735
0.00161043
0.000871742
0.00136272
0.000746266
0.00105533
0.000962202
0.000843452
0.000627611
0.000562065
0.000854993
0.000279349
0.000916856
0.000161505
0.000240946
-0.000354367
0.0017785
-6.62274e-05
-0.00117825
-0.00104003
0.00322521
-0.000691617
-0.0010158
-0.000753254
-0.000398575
-0.00181453
0.00424656
-0.000706995
-0.00422555
-0.00258819
0.00662088
-0.00138285
-0.00429889
-0.0034006
0.00648229
-0.00286991
-0.00123269
-0.00225425
-0.00329743
-0.00397651
0.00714605
-0.00141343
-0.00924982
-0.00471149
0.0117437
-0.00238217
-0.00808349
-0.00552532
0.00982183
-0.0059093
0.00284263
-0.00250705
-0.0133014
-0.00523447
0.00954918
-0.00510592
0.000909614
-0.00371278
-0.00552797
-0.00370426
-0.00095437
-0.00732198
0.0144806
-0.00373097
-0.0121772
-0.00249691
-0.00632374
-0.00575003
0.0123803
-0.00399633
-0.00430072
-0.00933471
0.0605798
0.0113938
-0.0600167
0.061264
0.0119951
0.0619784
0.0125151
0.0626
0.0128796
0.0630313
0.0130669
0.0632084
0.0130864
0.0630956
0.0129595
0.0626825
0.0127109
0.0619794
0.0123662
0.0610107
0.0119492
0.0598112
0.01148
0.0584204
0.010976
0.0568795
0.0104521
0.0552288
0.00992024
0.0535051
0.00939048
0.0517408
0.00887067
0.0499633
0.00836688
0.0481947
0.00788351
0.0464522
0.00742356
0.0447487
0.00698876
0.0430934
0.00657988
0.0414923
0.00619693
0.0399492
0.00583934
0.0384661
0.00550615
0.0370434
0.00519615
0.0356808
0.00490798
0.0343769
0.00464023
0.0331301
0.0043915
0.0319382
0.00416038
0.0307992
0.00394556
0.0297105
0.00374579
0.0286699
0.00355991
0.0276748
0.00338682
0.026723
0.00322555
0.0258121
0.00307516
0.02494
0.00293483
0.0241044
0.00280378
0.0233034
0.00268133
0.0225351
0.00256683
0.0217975
0.00245971
0.021089
0.00235945
0.0204079
0.00226557
0.0197526
0.00217763
0.0191216
0.00209525
0.0185136
0.00201806
0.0179271
0.00194575
0.017361
0.00187799
0.0168139
0.00181457
0.0162849
0.00175518
0.0157727
0.00169968
0.0152763
0.00164776
0.0147947
0.00159939
0.0143269
0.00155422
0.0138721
0.00151233
0.0134293
0.0014733
0.0129978
0.00143738
0.0125766
0.00140399
0.0121649
0.00137361
0.011762
0.00134544
0.0113672
0.00132028
0.0109797
0.00129696
0.0105987
0.00127677
0.0102237
0.00125797
0.00985375
0.00124254
0.00948853
0.00122794
0.00912701
0.00121712
0.00876898
0.00120637
0.00841331
0.00120001
0.00806003
0.00119269
0.00770783
0.0011906
0.00735706
0.00118613
0.00700615
0.00118807
0.00665592
0.00118564
0.00630444
0.0011913
0.00595322
0.00118961
0.0055997
0.00119882
0.00524662
0.00119564
0.0048901
0.00120878
0.00453522
0.00120038
0.00417541
0.00121873
0.00381973
0.00120091
0.00345785
0.00122271
0.00310167
0.00120135
0.00274469
0.00119772
0.00237994
0.00123649
0.00205282
0.00107338
0.0016576
0.00135743
0.00137411
0.000911093
0.00100674
0.00122237
0.000643298
0.00128029
0.00047038
0.000413867
-0.000161783
0.00241066
0.000132669
-0.0014727
-0.00105217
0.00441005
-0.000623557
-0.00144442
-0.00081267
-0.00020945
-0.0019881
0.00542198
-0.000741957
-0.0054717
-0.00296851
0.00884743
-0.00155326
-0.00571414
-0.00404855
0.00897759
-0.00335025
-0.001931
-0.0028328
-0.00381486
-0.00468075
0.008994
-0.00168645
-0.0122441
-0.00554849
0.0156058
-0.00274376
-0.0108882
-0.00668418
0.0137623
-0.00691936
0.00307779
-0.0031723
-0.0170485
-0.00634327
0.0127202
-0.00596592
0.000532369
-0.00447739
-0.00701649
-0.00455514
-0.000876607
-0.00850109
0.0184266
-0.00419268
-0.0164856
-0.0030527
-0.0074637
-0.0066645
0.0159921
-0.00424836
-0.00671687
-0.0128269
0.0648645
0.0109093
-0.0643799
0.0654297
0.0114299
0.0660372
0.0119077
0.0666216
0.0122952
0.0671205
0.012568
0.0674852
0.0127217
0.0676803
0.0127643
0.067682
0.0127092
0.067477
0.0125713
0.0670612
0.012365
0.0664382
0.012103
0.0656185
0.0117957
0.064618
0.0114526
0.0634566
0.0110817
0.0621569
0.0106901
0.0607432
0.0102844
0.0592396
0.00987045
0.0576697
0.00945343
0.0560552
0.00903807
0.0544155
0.0086284
0.0527676
0.00822781
0.0511255
0.00783897
0.049501
0.00746393
0.047903
0.00710411
0.0463387
0.00676043
0.0448133
0.00643337
0.0433305
0.00612303
0.0418928
0.00582926
0.0405015
0.00555169
0.0391572
0.00528979
0.0378601
0.00504295
0.0366095
0.00481049
0.0354046
0.0045917
0.0342443
0.00438584
0.0331273
0.0041922
0.032052
0.00401007
0.031017
0.00383878
0.0300207
0.00367769
0.0290613
0.00352618
0.0281373
0.00338368
0.0272471
0.00324965
0.0263891
0.0031236
0.0255617
0.00300504
0.0247634
0.00289356
0.0239927
0.00278874
0.0232482
0.00269023
0.0225285
0.00259766
0.0218323
0.00251077
0.0211583
0.00242919
0.0205052
0.00235276
0.0198719
0.00228111
0.0192571
0.00221419
0.0186597
0.00215158
0.0180786
0.00209339
0.0175129
0.00203906
0.0169613
0.00198894
0.016423
0.00194228
0.0158969
0.00189971
0.0153822
0.00186018
0.0148777
0.00182474
0.0143828
0.00179188
0.0138963
0.00176324
0.0134176
0.00173663
0.0129456
0.00171455
0.0124798
0.00169378
0.0120188
0.00167806
0.0115625
0.00166268
0.0111094
0.00165314
0.0106595
0.00164261
0.0102111
0.00163899
0.00976463
0.00163259
0.00931814
0.00163457
0.00887256
0.00163122
0.00842546
0.0016384
0.00797866
0.00163641
0.00752894
0.00164854
0.00707963
0.00164495
0.00662591
0.0016625
0.00617394
0.00165235
0.00571564
0.00167703
0.00526205
0.0016545
0.00480038
0.00168437
0.00434566
0.00165607
0.00388846
0.00165492
0.00342381
0.00170114
0.00299963
0.00149757
0.00250006
0.001857
0.00212725
0.00128391
0.00165639
0.00169323
0.001197
0.00173968
0.000949103
0.000661762
0.000187544
0.00317222
0.000463765
-0.00174891
-0.000942798
0.00581661
-0.0004335
-0.00195373
-0.000796819
0.000153883
-0.00206757
0.00669272
-0.000715286
-0.006824
-0.00327898
0.0114111
-0.0016582
-0.00733493
-0.00466013
0.0119795
-0.00379268
-0.00279846
-0.00344816
-0.00415937
-0.00537467
0.0109205
-0.00197883
-0.01564
-0.00636425
0.0199912
-0.00305781
-0.0141947
-0.00783775
0.0185422
-0.00789665
0.00313669
-0.00391984
-0.0210253
-0.0074766
0.0162769
-0.00681932
-0.000125257
-0.00527623
-0.00855957
-0.00542512
-0.000727688
-0.0095932
0.0225946
-0.00456221
-0.0215166
-0.00356361
-0.00846228
-0.00743288
0.0198614
-0.00426139
-0.00988837
-0.0170798
0.0694369
0.0104818
-0.0690094
0.0699204
0.0109464
0.0704407
0.0113873
0.0709623
0.0117736
0.0714454
0.0120849
0.0718563
0.0123108
0.072169
0.0124516
0.0723641
0.0125141
0.0724274
0.0125079
0.072349
0.0124434
0.072122
0.0123301
0.0717424
0.0121752
0.0712098
0.0119852
0.0705264
0.0117651
0.0696976
0.0115189
0.0687321
0.01125
0.0676409
0.0109617
0.0664374
0.0106569
0.0651366
0.0103389
0.0637543
0.0100107
0.0623066
0.00967553
0.0608091
0.00933651
0.0592764
0.00899655
0.0577222
0.00865833
0.0561584
0.00832424
0.0545955
0.00799631
0.0530423
0.00767622
0.0515063
0.00736529
0.0499934
0.00706455
0.0485085
0.0067747
0.0470552
0.00649623
0.0456364
0.00622938
0.0442538
0.00597424
0.0429089
0.00573075
0.0416023
0.00549875
0.0403344
0.005278
0.039105
0.00506818
0.0379137
0.00486895
0.03676
0.00467994
0.0356429
0.00450075
0.0345616
0.00433099
0.0335149
0.00417027
0.0325018
0.00401819
0.0315209
0.0038744
0.0305711
0.00373851
0.0296512
0.00361021
0.0287597
0.00348911
0.0278955
0.00337498
0.0270573
0.00326743
0.0262437
0.00316632
0.0254536
0.00307123
0.0246856
0.00298213
0.0239387
0.00289853
0.0232115
0.0028206
0.0225028
0.00274768
0.0218116
0.00268019
0.0211366
0.00261724
0.0204767
0.00255961
0.0198309
0.00250602
0.0191978
0.00245778
0.0185767
0.00241301
0.0179661
0.00237379
0.0173654
0.00233735
0.0167731
0.00230686
0.0161886
0.00227827
0.0156104
0.0022563
0.015038
0.00223502
0.0144698
0.00222134
0.0139057
0.00220671
0.0133437
0.00220105
0.0127841
0.00219215
0.0122246
0.00219411
0.0116662
0.00218961
0.0111059
0.00219869
0.0105459
0.0021964
0.00998218
0.00221226
0.00941875
0.00220838
0.00884963
0.00223162
0.00828228
0.0022197
0.00770678
0.00225253
0.00713652
0.00222475
0.00655577
0.00226513
0.00598325
0.00222859
0.00540585
0.00223233
0.00482178
0.00228521
0.00427967
0.00203968
0.00365634
0.00248034
0.00317286
0.00176738
0.00257811
0.00228799
0.00200379
0.002314
0.00165783
0.00100773
0.000750422
0.00407961
0.000986982
-0.00198547
-0.000661857
0.00746545
-5.49851e-05
-0.00256062
-0.000663213
0.000762125
-0.00200994
0.00803944
-0.000598601
-0.00823535
-0.00347861
0.0142911
-0.00166152
-0.00915202
-0.00518726
0.0155053
-0.00415691
-0.00382882
-0.00406558
-0.00425067
-0.0060338
0.0128887
-0.00229267
-0.0193811
-0.00713317
0.0248317
-0.00330188
-0.018026
-0.00892294
0.0241633
-0.00879741
0.00301114
-0.00473013
-0.0250925
-0.00859966
0.0201465
-0.00765902
-0.00106559
-0.00607889
-0.0101397
-0.00627103
-0.000535501
-0.0105463
0.02687
-0.00479946
-0.0272635
-0.00395432
-0.00930739
-0.00796446
0.0238715
-0.00396085
-0.013892
-0.0222874
0.0743167
0.0100988
-0.0739337
0.074741
0.0105221
0.0751955
0.0109328
0.0756594
0.0113097
0.076107
0.0116373
0.0765137
0.0119041
0.0768596
0.0121057
0.0771301
0.0122435
0.077315
0.0123231
0.0774067
0.0123517
0.0773997
0.0123371
0.0772886
0.0122863
0.0770692
0.0122046
0.0767376
0.0120967
0.0762907
0.0119658
0.0757265
0.0118142
0.0750448
0.0116434
0.0742474
0.0114543
0.0733381
0.0112481
0.072323
0.0110258
0.07121
0.0107885
0.0700086
0.0105379
0.0687295
0.0102757
0.067384
0.0100038
0.0659838
0.0097245
0.0645402
0.00943985
0.0630644
0.00915204
0.0615666
0.00886311
0.0600562
0.00857496
0.0585416
0.00828929
0.0570302
0.00800758
0.0555285
0.00773112
0.0540418
0.00746096
0.0525746
0.00719795
0.0511306
0.00694275
0.0497127
0.00669586
0.0483233
0.00645762
0.046964
0.00622827
0.045636
0.00600792
0.0443401
0.00579662
0.0430768
0.00559432
0.0418461
0.00540097
0.0406479
0.00521639
0.0394818
0.00504047
0.0383473
0.00487298
0.0372438
0.00471377
0.0361703
0.00456255
0.0351261
0.00441922
0.0341101
0.00428344
0.0331212
0.00415515
0.0321585
0.00403393
0.0312208
0.00391988
0.0303069
0.00381243
0.0294156
0.00371188
0.0285458
0.00361748
0.0276962
0.00352979
0.0268656
0.00344776
0.0260529
0.0033724
0.0252567
0.00330214
0.0244758
0.00323866
0.0237092
0.00317964
0.0229553
0.00312769
0.0222133
0.00307938
0.0214814
0.0030387
0.0207591
0.0030006
0.0200444
0.002971
0.0193369
0.00294249
0.0186345
0.00292377
0.0179371
0.00290409
0.0172422
0.00289595
0.0165504
0.00288402
0.0158585
0.00288603
0.0151679
0.00288018
0.0144748
0.00289176
0.013782
0.00288927
0.0130842
0.00291001
0.0123865
0.00290609
0.0116814
0.00293674
0.0109779
0.0029232
0.0102638
0.00296657
0.00955543
0.00293314
0.00883339
0.00298717
0.00812088
0.00294111
0.00740011
0.0029531
0.00667384
0.00301149
0.00598946
0.00272406
0.00521954
0.00325026
0.00460007
0.00238686
0.00385757
0.00303049
0.0031452
0.00302637
0.00267382
0.00147911
0.00160312
0.00515031
0.00177055
-0.00215289
-0.000152565
0.00938857
0.000477555
-0.00319075
-0.000357613
0.00159732
-0.00175687
0.00943868
-0.000353722
-0.0096385
-0.00351469
0.0174521
-0.001516
-0.0111507
-0.0055684
0.0195577
-0.00438608
-0.00501116
-0.00463022
-0.00400651
-0.00662045
0.0148789