/*--------------------------------*- C++ -*----------------------------------*\
| =========                 |                                                 |
| \\      /  F ield         | OpenFOAM: The Open Source CFD Toolbox           |
|  \\    /   O peration     | Version:  2412                                  |
|   \\  /    A nd           | Website:  www.openfoam.com                      |
|    \\/     M anipulation  |                                                 |
\*---------------------------------------------------------------------------*/
FoamFile
{
    version     2.0;
    format      ascii;
    arch        "LSB;label=32;scalar=64";
    class       volVectorField;
    location    "1.355";
    object      ddtCorrDdt0(U);
}
// * * * * * * * * * * * * * * * * * * * * * * * * * * * * * * * * * * * * * //

dimensions      [0 1 -2 0 0 0 0];

internalField   nonuniform List<vector> 
12600
(
(0.0664813 -3.04535e-22 0.00488248)
(0.0288026 -3.54632e-22 0.00232617)
(0.017906 -2.67005e-22 0.000303117)
(0.0107452 0 -0.000667154)
(0.00603212 -2.12909e-22 -0.000618618)
(0.00307459 -2.05405e-22 -0.000292268)
(0.000888914 0 -3.38217e-05)
(-0.000715883 0 6.67765e-05)
(-0.00169207 9.19562e-22 0.00012012)
(-0.00217463 0 0.000176022)
(-0.00239444 -4.94454e-22 0.000255773)
(-0.00253068 -4.98839e-22 0.000355869)
(-0.00266223 4.94634e-22 0.00045877)
(-0.00280462 0 0.00055011)
(-0.00296358 4.65471e-22 0.000625813)
(-0.00315719 0 0.000689066)
(-0.00340809 -1.68892e-21 0.00074471)
(-0.00373005 0 0.000796437)
(-0.00412437 7.61433e-22 0.000847082)
(-0.00458503 7.3454e-22 0.000899791)
(-0.00510348 -7.21517e-22 0.000958091)
(-0.00566893 -1.27863e-24 0.00102492)
(-0.00626481 0 0.00110122)
(-0.00686728 1.56179e-21 0.00118558)
(-0.00744591 0 0.00127435)
(-0.00796899 0 0.00136287)
(-0.00840568 1.92919e-21 0.00144554)
(-0.00873164 0 0.00151714)
(-0.0089273 8.36593e-24 0.00157204)
(-0.00898685 -2.30645e-21 0.00160698)
(-0.00891264 -2.39371e-21 0.00161929)
(-0.00872771 -2.44771e-21 0.001611)
(-0.00845646 2.46524e-21 0.00158374)
(-0.00814258 4.89149e-21 0.00154471)
(-0.00781234 4.7861e-21 0.00149693)
(-0.00751178 -4.62752e-21 0.00145)
(-0.00724672 0 0.0014039)
(-0.0070556 4.20668e-21 0.00136854)
(-0.00691133 0 0.00133766)
(-0.00685102 -3.77104e-21 0.00132222)
(-0.00681339 0 0.00130856)
(-0.00685298 -1.42822e-24 0.00131187)
(-0.00687211 0 0.0013098)
(-0.00696303 -2.08243e-25 0.00132552)
(-0.00698318 -6.13531e-21 0.00132594)
(-0.00708766 5.95889e-21 0.00134739)
(-0.00707271 -5.80817e-21 0.00134274)
(-0.00718421 0 0.00136754)
(-0.00713121 0 0.00135584)
(-0.00728234 -5.27199e-21 0.00138909)
(-0.00721638 -1.01717e-20 0.00137422)
(-0.00745844 -9.71724e-21 0.00142543)
(-0.00740033 -1.0719e-24 0.0014114)
(-0.00777137 -8.88296e-21 0.00148821)
(-0.00771143 0 0.00147354)
(-0.00822346 8.14882e-21 0.00157854)
(-0.00812121 7.90281e-21 0.0015554)
(-0.00877251 7.56576e-21 0.00168778)
(-0.00857234 0 0.0016446)
(-0.00936761 0 0.00180392)
(-0.00902015 0 0.00172965)
(-0.00999566 -1.33078e-20 0.00192121)
(-0.00948007 0 0.00181051)
(-0.0107158 0 0.00204888)
(-0.0100401 2.45596e-20 0.00190369)
(-0.0116381 0 0.00221044)
(-0.0107987 0 0.0020344)
(-0.0128267 0 0.00242919)
(-0.0117276 -2.40679e-20 0.00221252)
(-0.0141589 2.42239e-20 0.00269881)
(-0.0125523 2.58145e-20 0.00239973)
(-0.0152936 1.11984e-23 0.00295851)
(-0.0128486 -2.73765e-20 0.00250293)
(-0.0159463 0 0.00312435)
(-0.0124149 2.61306e-20 0.00244311)
(-0.0162919 0 0.00319463)
(-0.0114231 0 0.00224118)
(-0.0169803 0 0.00331137)
(-0.0100891 -3.69086e-23 0.00196963)
(-0.018767 1.38027e-20 0.00363323)
(-0.0083771 9.34667e-21 0.00159619)
(-0.022697 -1.17879e-21 0.00431804)
(-0.00609208 -2.16047e-21 0.00108528)
(-0.0293195 0 0.00556761)
(-0.0027978 0 0.000497813)
(-0.0359416 1.33044e-20 0.00694548)
(-0.000999252 -9.74436e-20 0.000211496)
(-0.0333459 9.06413e-20 0.00652546)
(-0.00986768 6.22327e-20 0.00188809)
(-0.0167421 0 0.00326702)
(-0.0199075 -8.56448e-20 0.00377936)
(0.00100471 5.35797e-20 -0.000174536)
(-0.0346364 -1.15413e-20 0.00663847)
(0.0152091 8.81444e-20 -0.0028537)
(-0.0381008 0 0.00773399)
(0.0202411 0 -0.00391504)
(0.00231188 0 -7.73044e-05)
(0.033077 0 -0.00615922)
(-0.107535 0 0.02079)
(0.119069 0 -0.0226746)
(-0.115715 2.92334e-19 0.0229605)
(0.104289 -4.24935e-19 -0.0215182)
(0.426176 3.03963e-19 -0.0793101)
(-0.668767 0 0.130195)
(0.205247 0 -0.0442459)
(0.402377 0 -0.0759939)
(0.394414 5.20522e-19 -0.0717847)
(-0.74583 2.38306e-18 0.143701)
(0.505282 1.21217e-18 -0.10197)
(1.36859 0 -0.239686)
(-0.882374 4.29603e-19 0.167812)
(1.35171 0 -0.266866)
(0.802459 2.11584e-17 -0.143556)
(-1.85007 -5.53016e-18 0.359158)
(0.455574 -3.00238e-18 -0.0943898)
(0.37157 4.38488e-18 -0.0701162)
(-2.52752 -3.21572e-18 0.483777)
(-0.834773 -6.28027e-21 0.144798)
(0.494349 7.03189e-19 -0.101749)
(0.0351588 0 -0.00426936)
(0.0760372 3.07488e-22 0.00465017)
(0.0572121 0 0.0057619)
(0.044584 2.70204e-22 0.00364348)
(0.0321676 0 0.00111867)
(0.0208149 2.15702e-22 0.000276161)
(0.0119397 4.56451e-22 0.000374641)
(0.00525289 2.23947e-22 0.000567076)
(0.000471274 0 0.000536969)
(-0.00256015 1.11441e-24 0.000455496)
(-0.00433856 4.85486e-22 0.000490601)
(-0.00546295 -4.9836e-22 0.000700608)
(-0.00637428 -5.02535e-22 0.00103089)
(-0.0072547 4.98084e-22 0.0013868)
(-0.00811689 -4.86608e-22 0.00170484)
(-0.00894043 -9.42067e-22 0.00196871)
(-0.00973669 0 0.00218716)
(-0.0105388 3.72161e-24 0.00237066)
(-0.0113729 -8.08266e-22 0.00252465)
(-0.0122499 -7.725e-22 0.00265437)
(-0.0131759 0 0.00276978)
(-0.0141614 0 0.00288437)
(-0.0152168 -7.33834e-22 0.00301046)
(-0.0163397 0 0.00315457)
(-0.0175087 -7.90515e-22 0.00331725)
(-0.0186826 1.67221e-21 0.00349383)
(-0.0198125 0 0.00367788)
(-0.0208429 -1.93248e-21 0.00385964)
(-0.0217247 0 0.0040295)
(-0.0224078 2.22102e-21 0.00417467)
(-0.0228665 4.65683e-21 0.00428807)
(-0.0230841 4.83368e-21 0.00436154)
(-0.0230896 2.47754e-21 0.00439899)
(-0.0229077 -2.49459e-21 0.00439872)
(-0.0226135 -9.88273e-21 0.00437492)
(-0.0222345 -9.67101e-21 0.00432573)
(-0.0218617 0 0.00427259)
(-0.0214841 0 0.00420603)
(-0.0211988 -3.68846e-25 0.00415436)
(-0.0209312 0 0.00409411)
(-0.0208046 3.80702e-21 0.00406462)
(-0.0206693 0 0.00402296)
(-0.0207141 6.88695e-21 0.00402681)
(-0.0206874 0 0.00400502)
(-0.0208842 6.37053e-21 0.00404276)
(-0.0209082 0 0.00403061)
(-0.021223 -6.00023e-21 0.00409619)
(-0.0212317 0 0.00407936)
(-0.0216515 0 0.00416993)
(-0.02161 5.50311e-21 0.00414074)
(-0.022182 0 0.00426645)
(-0.0220992 0 0.00422673)
(-0.0229107 0 0.00440599)
(-0.0227916 9.36507e-21 0.00435702)
(-0.0239222 1.78144e-20 0.00460642)
(-0.0237263 0 0.00454011)
(-0.0252295 0 0.00487004)
(-0.0248694 -7.90788e-21 0.0047678)
(-0.0267899 -7.5654e-21 0.005185)
(-0.0261451 0 0.00502008)
(-0.0285395 0 0.00553225)
(-0.0274786 0 0.00527579)
(-0.0304528 0 0.00590116)
(-0.0288709 -1.30232e-20 0.00553171)
(-0.0326033 1.23777e-20 0.00630578)
(-0.0304333 -2.44275e-20 0.00581339)
(-0.0351499 0 0.00678531)
(-0.0323135 0 0.00616347)
(-0.0382226 0 0.00738271)
(-0.0345097 1.4851e-23 0.00660211)
(-0.0417317 -2.39922e-20 0.00809766)
(-0.0366838 -2.55443e-20 0.00707089)
(-0.0452887 5.16164e-20 0.00884294)
(-0.0382107 2.33997e-23 0.00741279)
(-0.0485171 -2.61837e-20 0.00948848)
(-0.0385963 -2.57588e-20 0.0074708)
(-0.0516099 0 0.0100288)
(-0.0376533 0 0.00721495)
(-0.0556264 0 0.0107229)
(-0.0351433 2.37783e-20 0.00667174)
(-0.0620438 0 0.0119002)
(-0.030118 0 0.00564503)
(-0.0730779 1.15395e-21 0.0139561)
(-0.0211049 2.11241e-21 0.00386594)
(-0.0903919 0 0.0173738)
(-0.00765181 0 0.00139393)
(-0.108745 0 0.0212112)
(0.000737586 9.45676e-20 -0.000191191)
(-0.10323 -1.07419e-22 0.0203847)
(-0.0247378 6.02185e-20 0.00451444)
(-0.0553192 -6.01991e-20 0.0107796)
(-0.0582095 8.29748e-20 0.0111095)
(-0.00351137 5.19917e-20 0.000471047)
(-0.105917 2.23576e-20 0.0206395)
(0.0407037 0 -0.00846149)
(-0.120828 0 0.0240969)
(0.0605497 0 -0.0132784)
(-0.0064234 0 0.00162823)
(0.0787132 -4.62744e-20 -0.0140164)
(-0.309146 0 0.0588398)
(0.349841 0 -0.0694273)
(-0.351291 2.79964e-19 0.0712739)
(0.346279 2.03283e-19 -0.0792937)
(1.11788 -5.76917e-19 -0.202063)
(-1.93534 1.25563e-18 0.382724)
(0.804779 0 -0.179032)
(1.10167 0 -0.212968)
(1.02442 0 -0.180439)
(-2.06346 -1.13513e-18 0.40386)
(1.673 -1.15364e-18 -0.363288)
(3.68728 0 -0.669017)
(-2.64195 -8.15547e-19 0.510384)
(3.95138 -5.07231e-19 -0.805213)
(1.89057 -4.0149e-17 -0.312495)
(-5.15264 0 1.013)
(1.52472 0 -0.336791)
(0.639784 4.14033e-18 -0.0799454)
(-7.15055 0 1.40119)
(-1.9702 -1.34152e-18 0.322742)
(1.37605 -6.65098e-19 -0.260707)
(0.0310054 0 0.00284322)
(0.0727201 0 0.010423)
(0.0646233 0 0.0103509)
(0.0567891 2.91661e-22 0.00915572)
(0.0464637 0 0.00675415)
(0.0341425 0 0.00499539)
(0.0221945 -2.04317e-22 0.00392306)
(0.0120497 -2.12103e-22 0.00300517)
(0.00433018 0 0.00203519)
(-0.000917802 1.89262e-24 0.00123978)
(-0.00425818 -4.59939e-22 0.000926506)
(-0.00652775 9.42868e-22 0.00115285)
(-0.0084124 4.76148e-22 0.00171638)
(-0.0102252 -3.23684e-24 0.00235872)
(-0.0119931 4.61095e-22 0.00292751)
(-0.0136631 4.45116e-22 0.00339075)
(-0.0152239 -4.21008e-22 0.00376825)
(-0.0167052 8.08023e-22 0.00407545)
(-0.0181368 7.65939e-22 0.0043141)
(-0.0195317 0 0.00448824)
(-0.0209029 0 0.00461537)
(-0.0222764 -6.84941e-22 0.00472169)
(-0.0236855 -6.87598e-22 0.00483097)
(-0.025149 0 0.00495646)
(-0.0266588 0 0.00510295)
(-0.0281789 -1.58451e-21 0.00526954)
(-0.0296613 0 0.0054551)
(-0.0310467 3.65004e-21 0.00565314)
(-0.0322811 -1.95116e-21 0.00585657)
(-0.0333026 0 0.00605093)
(-0.0340797 -2.19897e-21 0.00623021)
(-0.0345845 -2.28326e-21 0.00638286)
(-0.0348534 0 0.00651438)
(-0.0349044 2.3446e-21 0.00661415)
(-0.0348306 4.67394e-21 0.00669623)
(-0.0346436 1.211e-23 0.00674265)
(-0.0344606 0 0.00677882)
(-0.0342364 0 0.00677573)
(-0.0341132 -4.02424e-21 0.00677813)
(-0.0339588 0 0.00673978)
(-0.033978 0 0.00673424)
(-0.0339289 0 0.00668614)
(-0.0341367 0 0.00670667)
(-0.0341953 0 0.00667045)
(-0.0346102 0 0.00673918)
(-0.0347304 0 0.00671657)
(-0.0353399 5.67828e-21 0.00683962)
(-0.0354442 -5.53112e-21 0.00681712)
(-0.0362475 0 0.0069963)
(-0.0362813 -5.20646e-21 0.00696097)
(-0.0373466 0 0.00720869)
(-0.0372987 0 0.0071526)
(-0.0387428 9.23423e-21 0.0074878)
(-0.0385905 0 0.00740034)
(-0.0405278 -8.42379e-21 0.00784322)
(-0.0401935 8.1052e-21 0.0077068)
(-0.0427233 0 0.00827852)
(-0.0420769 7.47468e-21 0.00806861)
(-0.0453054 0 0.00879191)
(-0.0441719 0 0.00847379)
(-0.0482289 0 0.00937291)
(-0.0464057 1.31232e-20 0.00890402)
(-0.0514836 1.25303e-20 0.010013)
(-0.0487804 -2.12906e-25 0.00935136)
(-0.0551597 -2.33764e-20 0.0107203)
(-0.0514135 -1.50891e-24 0.00983012)
(-0.0594326 0 0.011523)
(-0.0544566 0 0.0103719)
(-0.0644513 -2.16186e-20 0.0124598)
(-0.0578956 8.71288e-24 0.0109981)
(-0.0701466 0 0.013551)
(-0.061355 0 0.0116773)
(-0.0761601 -2.43262e-20 0.0147621)
(-0.0641328 2.5734e-23 0.0122919)
(-0.082188 2.25424e-23 0.0160202)
(-0.0655953 0 0.0126767)
(-0.0885623 0 0.0173175)
(-0.0652332 -3.80756e-20 0.0126803)
(-0.0966941 2.88679e-20 0.0188906)
(-0.0621834 0 0.0121269)
(-0.108606 0 0.0211164)
(-0.0543545 0 0.0105818)
(-0.127529 0 0.0245702)
(-0.0387298 0 0.00740889)
(-0.156218 0 0.0299488)
(-0.0144431 0 0.00249606)
(-0.187307 0 0.0362329)
(0.00245766 -8.85641e-20 -0.00128346)
(-0.181188 -4.13069e-20 0.0359476)
(-0.0372799 -5.6598e-20 0.00573131)
(-0.102449 5.65678e-20 0.0202916)
(-0.0960845 -7.78939e-20 0.0178866)
(-0.0158563 -4.88354e-20 0.00317327)
(-0.179258 -1.05143e-20 0.0349891)
(0.0619338 0 -0.0132577)
(-0.208891 0 0.0417229)
(0.102111 0 -0.024293)
(-0.0291929 0 0.00684953)
(0.108791 4.34137e-20 -0.0155335)
(-0.496088 0 0.0932058)
(0.577173 0 -0.115967)
(-0.589218 -2.62502e-19 0.124885)
(0.612995 0 -0.156749)
(1.65639 2.68094e-19 -0.268215)
(-3.11243 -1.17666e-18 0.615414)
(1.57231 0 -0.382552)
(1.67395 0 -0.319289)
(1.53744 0 -0.234308)
(-3.20291 -1.0672e-18 0.617057)
(2.98323 0 -0.709625)
(5.66204 8.29527e-19 -0.980056)
(-4.32064 -7.80368e-22 0.839042)
(6.51852 4.74717e-19 -1.3577)
(2.49421 3.76079e-17 -0.295892)
(-8.13617 0 1.5728)
(2.67991 2.64484e-18 -0.647516)
(0.420639 -3.87279e-18 0.0808576)
(-11.3892 -2.85874e-18 2.23722)
(-2.62981 0 0.321792)
(2.12276 6.21882e-19 -0.434931)
(-0.0326977 0 0.0341491)
(0.0694298 0 0.0159504)
(0.0646609 0 0.0144081)
(0.0601282 -2.75734e-22 0.0136052)
(0.0534817 0 0.0121321)
(0.0440886 2.41252e-22 0.0106179)
(0.0330562 -4.42139e-22 0.00905116)
(0.0220097 0 0.00706824)
(0.0123555 4.21447e-22 0.00475311)
(0.00490815 -4.20644e-22 0.002746)
(-0.000370023 -4.34306e-22 0.00169849)
(-0.00417487 -4.45109e-22 0.00173026)
(-0.00731479 4.44586e-22 0.00244727)
(-0.0102649 -4.43279e-22 0.00334745)
(-0.0131197 8.51906e-22 0.00413729)
(-0.0158122 0 0.00475864)
(-0.0183044 7.89213e-22 0.00525249)
(-0.0206214 0 0.0056485)
(-0.0228003 0 0.00594727)
(-0.0248584 0 0.00615128)
(-0.0268085 -6.49635e-22 0.00628587)
(-0.0286828 8.50629e-24 0.0063903)
(-0.0305317 7.2933e-24 0.00649812)
(-0.0323937 -6.61352e-22 0.00662502)
(-0.0342764 0 0.00677487)
(-0.0361501 0 0.00694637)
(-0.037971 0 0.00714119)
(-0.0396803 -3.42808e-21 0.00735478)
(-0.0412273 1.33471e-23 0.00758243)
(-0.0425465 0 0.00780889)
(-0.0436092 0 0.00803164)
(-0.0443822 0 0.0082386)
(-0.0449143 0 0.00844027)
(-0.0452186 -4.42207e-21 0.00861916)
(-0.0454093 0 0.00879123)
(-0.0454788 4.31455e-21 0.00892297)
(-0.045571 0 0.00904508)
(-0.0456002 0 0.00910868)
(-0.0457541 3.7946e-21 0.009176)
(-0.0458346 0 0.00917654)
(-0.0461299 0 0.00921839)
(-0.0462936 -3.23457e-21 0.0091906)
(-0.0467924 6.16528e-21 0.00925763)
(-0.0470502 0 0.00923533)
(-0.047795 5.70108e-21 0.00936267)
(-0.0481013 0 0.00935182)
(-0.0490964 -1.07318e-20 0.00955256)
(-0.0493617 -2.6195e-24 0.00953814)
(-0.0506247 0 0.00981961)
(-0.0507809 0 0.00978594)
(-0.0524095 4.73922e-21 0.0101665)
(-0.0524293 9.14e-21 0.0100991)
(-0.0545756 -1.74465e-20 0.0106014)
(-0.0544097 0 0.0104801)
(-0.0572283 -7.96373e-21 0.0111304)
(-0.056762 -7.65101e-21 0.0109289)
(-0.0604041 -7.28943e-21 0.0117598)
(-0.0594622 -7.05961e-21 0.0114465)
(-0.0641007 0 0.0124958)
(-0.0624506 0 0.0120255)
(-0.0682953 -1.26243e-20 0.0133332)
(-0.06566 -2.47585e-20 0.0126483)
(-0.0730001 -1.18182e-20 0.0142658)
(-0.0690996 -1.20896e-24 0.0133039)
(-0.0783273 1.10212e-20 0.0153)
(-0.0728953 1.08728e-20 0.0140013)
(-0.0844709 0 0.0164603)
(-0.0771995 0 0.0147681)
(-0.091596 2.03729e-20 0.0177863)
(-0.0819802 4.23756e-20 0.015628)
(-0.0996495 0 0.0193125)
(-0.086821 2.26343e-20 0.016562)
(-0.108308 2.28598e-20 0.0210345)
(-0.0909522 2.39614e-20 0.0174661)
(-0.117365 4.64088e-20 0.0229121)
(-0.0936213 0 0.0181546)
(-0.127328 0 0.024941)
(-0.094024 3.58301e-20 0.0183881)
(-0.13998 -5.43698e-20 0.0273734)
(-0.0906598 -2.12817e-20 0.0178287)
(-0.157908 0 0.0306602)
(-0.0802666 0 0.0158255)
(-0.185389 0 0.0355849)
(-0.0581871 0 0.0113975)
(-0.226379 0 0.0431538)
(-0.0228297 0 0.004148)
(-0.271847 -1.11033e-20 0.0524062)
(0.00392688 1.64002e-22 -0.00229821)
(-0.268364 3.84926e-20 0.0536398)
(-0.0476301 0 0.00613418)
(-0.160348 5.30576e-20 0.0323209)
(-0.133536 3.65385e-20 0.0240602)
(-0.0382858 0 0.00821251)
(-0.254569 -9.8999e-21 0.0491864)
(0.0768615 -7.55142e-20 -0.0168313)
(-0.302561 0 0.0605435)
(0.142925 0 -0.03625)
(-0.0690266 0 0.0158742)
(0.124754 3.97957e-20 -0.0130502)
(-0.667965 0 0.12266)
(0.79478 0 -0.160613)
(-0.830171 -2.45822e-19 0.173303)
(0.897154 -1.77489e-19 -0.246575)
(2.03738 0 -0.291066)
(-4.16406 0 0.824185)
(2.47162 0 -0.630053)
(2.09554 0 -0.39423)
(1.96248 0 -0.256995)
(-4.14723 -4.32492e-21 0.789792)
(4.38477 0 -1.10673)
(7.27002 -7.76249e-19 -1.18398)
(-5.8579 3.57529e-19 1.13292)
(8.97391 0 -1.92609)
(2.61693 4.8928e-20 -0.141562)
(-10.7237 0 2.06737)
(3.83686 -6.96753e-21 -0.9841)
(-0.2642 0 0.367351)
(-15.1607 2.67283e-18 3.00248)
(-2.85209 0 0.199553)
(2.7056 5.85467e-19 -0.59675)
(-0.134181 0 0.0791256)
(0.0667788 0 0.0200388)
(0.0630936 0 0.0176551)
(0.0600318 0 0.0167635)
(0.0560122 0 0.016011)
(0.0501605 -2.27745e-22 0.0151529)
(0.0423665 -1.25731e-23 0.0138568)
(0.0332033 0 0.0115645)
(0.0237605 -3.97833e-22 0.00830871)
(0.0152276 0 0.00505756)
(0.00828341 8.21001e-22 0.00298505)
(0.00281952 0 0.00252149)
(-0.00176576 -4.19732e-22 0.00320835)
(-0.00601381 0 0.00428191)
(-0.0101148 -8.04346e-22 0.00524228)
(-0.0140132 3.77389e-22 0.00597045)
(-0.0176381 -7.28731e-22 0.00653055)
(-0.0209985 6.82445e-22 0.00697747)
(-0.0241397 6.4797e-22 0.00731345)
(-0.0270859 0 0.00753568)
(-0.029843 6.13433e-22 0.00767448)
(-0.0324346 6.03721e-22 0.00778251)
(-0.0349178 1.20472e-21 0.00790372)
(-0.0373505 6.24493e-22 0.00805387)
(-0.0397598 0 0.00823125)
(-0.0421248 0 0.00842949)
(-0.0444063 0 0.00865051)
(-0.0465461 1.61243e-21 0.00889058)
(-0.0485004 1.72969e-21 0.00914748)
(-0.050203 0 0.00940528)
(-0.0516316 0 0.00966663)
(-0.0527467 -1.99954e-21 0.00992047)
(-0.0536107 0 0.0101851)
(-0.0542299 1.33098e-23 0.0104372)
(-0.054744 4.11463e-21 0.0106967)
(-0.0551251 -4.03659e-21 0.0109134)
(-0.05555 0 0.0111253)
(-0.0558877 0 0.0112616)
(-0.0563803 -3.58142e-21 0.0114049)
(-0.0567547 0 0.0114565)
(-0.0573944 0 0.0115631)
(-0.0578328 3.05234e-21 0.011572)
(-0.058695 -5.81758e-21 0.0117061)
(-0.0592115 0 0.0117134)
(-0.0603584 -5.37887e-21 0.0119187)
(-0.0609033 0 0.0119306)
(-0.0623549 5.06307e-21 0.0122254)
(-0.062825 4.93132e-21 0.0122248)
(-0.0646197 0 0.0126241)
(-0.0649333 4.64686e-21 0.0125945)
(-0.067201 -4.46935e-21 0.0131253)
(-0.067313 -1.72474e-20 0.0130467)
(-0.0702441 8.22862e-21 0.013737)
(-0.0700772 -7.90769e-21 0.0135793)
(-0.0738719 -8.35237e-24 0.0144619)
(-0.073273 0 0.0141894)
(-0.07814 6.87057e-21 0.0153093)
(-0.0768859 6.6533e-21 0.0148817)
(-0.0830697 -6.36353e-21 0.0162921)
(-0.0808648 6.21195e-21 0.0156525)
(-0.0886617 1.18939e-20 0.0174108)
(-0.0851485 1.16619e-20 0.0164856)
(-0.0949524 -1.11332e-20 0.0186629)
(-0.089754 1.09254e-20 0.0173691)
(-0.102079 0 0.0200559)
(-0.0948167 0 0.0183078)
(-0.110258 9.77595e-21 0.0216111)
(-0.100493 0 0.0193251)
(-0.119677 0 0.0233671)
(-0.106736 -1.99381e-20 0.0204435)
(-0.130303 0 0.0253676)
(-0.113089 -2.12955e-20 0.0216521)
(-0.141848 -4.29881e-20 0.027634)
(-0.118709 0 0.0228609)
(-0.154207 -2.18101e-20 0.0301637)
(-0.12272 0 0.0238762)
(-0.168077 0 0.0329701)
(-0.124031 -3.37187e-20 0.0243932)
(-0.185631 2.55734e-20 0.0363274)
(-0.120509 -6.73651e-23 0.0239111)
(-0.210061 0 0.0407442)
(-0.107724 0 0.0215522)
(-0.246745 0 0.0472089)
(-0.0793304 -1.97423e-21 0.0159735)
(-0.300995 -2.03501e-21 0.0570982)
(-0.0327445 0 0.00634214)
(-0.362616 2.07712e-20 0.069711)
(0.00513336 3.88092e-20 -0.00338854)
(-0.365402 -7.20957e-20 0.0735691)
(-0.0554728 -4.92255e-20 0.00526574)
(-0.230768 -9.95041e-20 0.0471824)
(-0.169958 0 0.029281)
(-0.0727542 0 0.016157)
(-0.331235 9.28282e-21 0.0631333)
(0.0833466 7.07958e-20 -0.0188549)
(-0.401999 2.39208e-20 0.0802262)
(0.180423 0 -0.0492698)
(-0.128448 0 0.0294806)
(0.128901 -3.72865e-20 -0.00589082)
(-0.826513 -1.14319e-19 0.144802)
(0.995992 0 -0.202221)
(-1.07131 2.30216e-19 0.229264)
(1.18921 1.66201e-19 -0.350254)
(2.26693 0 -0.259603)
(-5.06175 0 0.993832)
(3.4512 0 -0.919701)
(2.35591 0 -0.427813)
(2.33354 0 -0.248248)
(-4.89721 9.38686e-19 0.908637)
(5.81728 0 -1.54424)
(8.50439 0 -1.27558)
(-7.20393 0 1.3778)
(11.2368 -3.88899e-19 -2.48095)
(2.29638 -1.65064e-17 0.176492)
(-12.8665 0 2.45605)
(4.91225 -2.30586e-18 -1.33373)
(-1.35169 0 0.822583)
(-18.4123 2.51589e-18 3.64801)
(-2.7048 0 -0.0562086)
(3.112 -5.47139e-19 -0.682212)
(-0.243782 0 0.134587)
(0.0642175 3.5545e-22 0.023366)
(0.0613841 3.21912e-22 0.0206429)
(0.0590414 -2.89608e-22 0.0193118)
(0.0563288 -2.6552e-22 0.0186507)
(0.0529071 0 0.0181727)
(0.0483313 2.13594e-22 0.0173243)
(0.0422681 0 0.0153344)
(0.0349221 -4.05974e-22 0.0119338)
(0.0270954 -3.94288e-22 0.0079847)
(0.019713 -7.77521e-22 0.004984)
(0.0132544 3.88392e-22 0.00382521)
(0.00758426 -3.83881e-22 0.00424051)
(0.00229039 0 0.00532699)
(-0.00287769 0 0.0063605)
(-0.00790137 -3.55803e-22 0.00711423)
(-0.0126744 1.2062e-23 0.00766368)
(-0.0171629 -2.33015e-23 0.00810038)
(-0.0214027 -2.16254e-23 0.0084338)
(-0.0254196 0 0.00864913)
(-0.0292032 0 0.00877371)
(-0.0327459 0 0.00887277)
(-0.0360881 -1.11446e-21 0.00900442)
(-0.0392975 -5.70749e-22 0.00918567)
(-0.0424244 0 0.00940552)
(-0.0454614 0 0.00964715)
(-0.0483746 -1.38507e-21 0.00990986)
(-0.0511055 0 0.0101899)
(-0.0536192 0 0.0104878)
(-0.0558513 0 0.0107865)
(-0.057789 0 0.0110941)
(-0.0593821 1.59285e-23 0.0114003)
(-0.060705 0 0.0117333)
(-0.0617507 1.48206e-23 0.0120638)
(-0.0626897 -3.87865e-21 0.0124175)
(-0.0634705 2.37872e-23 0.0127261)
(-0.0643129 0 0.0130368)
(-0.0650329 0 0.013254)
(-0.06594 0 0.0134844)
(-0.0666725 0 0.0135971)
(-0.067728 0 0.013783)
(-0.0684976 0 0.0138399)
(-0.0697913 0 0.014058)
(-0.0706138 5.2637e-21 0.0141055)
(-0.07223 5.07452e-21 0.0144057)
(-0.0730529 0 0.0144473)
(-0.0750314 4.77885e-21 0.0148523)
(-0.0757385 0 0.0148687)
(-0.0781421 0 0.0154026)
(-0.0786371 -8.75975e-21 0.0153774)
(-0.0816303 0 0.0160776)
(-0.081847 8.12603e-21 0.0159854)
(-0.0856612 0 0.0168866)
(-0.0854909 1.49034e-20 0.0166871)
(-0.0903765 -1.00333e-23 0.0178301)
(-0.0896252 0 0.0174776)
(-0.0958541 0 0.0189203)
(-0.0942456 0 0.0183647)
(-0.102141 1.19833e-20 0.0201765)
(-0.0993104 -1.16964e-20 0.0193476)
(-0.109262 -1.11994e-20 0.0216039)
(-0.104766 -1.09807e-20 0.0204109)
(-0.117283 2.09521e-20 0.0232048)
(-0.110638 1.02861e-20 0.0215425)
(-0.126368 0 0.024989)
(-0.117072 0 0.0227445)
(-0.136761 5.75063e-24 0.0269764)
(-0.124233 0 0.0240375)
(-0.148677 0 0.0292055)
(-0.132059 -1.87541e-20 0.0254436)
(-0.162109 0 0.0317287)
(-0.140054 0 0.026958)
(-0.176809 4.03625e-20 0.034589)
(-0.147303 -2.11132e-20 0.0285014)
(-0.192781 0 0.0378175)
(-0.152802 0 0.0298714)
(-0.210929 0 0.0414456)
(-0.155185 3.16671e-20 0.0307089)
(-0.233831 0 0.0457724)
(-0.151683 3.77383e-20 0.0303603)
(-0.26532 -1.09079e-20 0.051366)
(-0.136707 0 0.0277305)
(-0.311928 0 0.0594254)
(-0.102179 1.85261e-21 0.0211089)
(-0.380469 2.75559e-23 0.0717609)
(-0.0442612 5.78539e-21 0.00911194)
(-0.460098 -9.70678e-21 0.0881573)
(0.00599319 3.6188e-20 -0.00441432)
(-0.473079 3.37336e-20 0.0958686)
(-0.0605077 4.61537e-20 0.00319028)
(-0.315546 5.02887e-23 0.0656166)
(-0.20464 0 0.0331408)
(-0.121433 -4.06467e-20 0.0275292)
(-0.408551 0 0.0764324)
(0.0790415 0 -0.0186)
(-0.507211 -2.24093e-20 0.10064)
(0.211908 0 -0.062182)
(-0.209529 0 0.0480351)
(0.123762 0 0.00439179)
(-0.974111 1.07038e-19 0.163302)
(1.17543 0 -0.239271)
(-1.31645 2.15359e-19 0.273468)
(1.47892 0 -0.462928)
(2.3529 0 -0.182083)
(-5.78243 0 1.11972)
(4.453 0 -1.23557)
(2.45539 0 -0.42089)
(2.68001 3.6264e-19 -0.219794)
(-5.46428 8.87583e-19 0.980485)
(7.2189 8.73912e-19 -2.01258)
(9.37215 0 -1.25201)
(-8.32068 0 1.56675)
(13.2275 7.13631e-19 -3.00522)
(1.5818 0 0.632187)
(-14.5325 -4.0382e-18 2.74048)
(5.83029 0 -1.67278)
(-2.77736 -3.14401e-18 1.36373)
(-21.1017 -2.35106e-18 4.17926)
(-2.26792 0 -0.419078)
(3.31625 -5.15258e-19 -0.755767)
(-0.321106 0 0.190843)
(0.0616178 -3.3473e-22 0.0260773)
(0.059571 -6.29571e-22 0.0233547)
(0.0577706 2.72795e-22 0.0216015)
(0.0556301 -1.91625e-23 0.0206234)
(0.0533989 -2.48228e-22 0.0200842)
(0.0508848 0 0.0194641)
(0.0474725 0 0.017943)
(0.0427172 3.82308e-22 0.0149738)
(0.0367581 7.54303e-22 0.0110461)
(0.0302545 -3.53345e-24 0.00758258)
(0.0239119 -3.65712e-22 0.00580553)
(0.0180232 3.61459e-22 0.00579812)
(0.0124271 -3.40966e-22 0.00672503)
(0.00686558 0 0.00771233)
(0.00127818 0 0.00839903)
(-0.00423331 3.07815e-22 0.00884551)
(-0.00958219 -1.14019e-21 0.00918686)
(-0.0147658 -1.08413e-21 0.00945329)
(-0.0197993 0 0.00961523)
(-0.0246502 0 0.00968487)
(-0.0292568 0 0.00973527)
(-0.0336056 1.47276e-23 0.0098452)
(-0.0377447 1.06257e-21 0.0100396)
(-0.0417408 -5.56404e-22 0.0102974)
(-0.0456027 -1.19327e-21 0.0105847)
(-0.0493039 2.59161e-21 0.0108937)
(-0.0527812 -1.38957e-21 0.0112193)
(-0.0560089 -1.4929e-21 0.0115659)
(-0.0589247 -1.5905e-21 0.0119138)
(-0.0615296 0 0.0122758)
(-0.0637577 1.75982e-21 0.0126408)
(-0.0656929 -1.78661e-21 0.0130485)
(-0.0673036 1.82179e-21 0.013463)
(-0.0687956 3.59545e-21 0.0139192)
(-0.0700879 7.09202e-21 0.0143273)
(-0.0714579 0 0.0147474)
(-0.0726574 0 0.015054)
(-0.0740809 3.1431e-21 0.0153841)
(-0.0752577 0 0.0155676)
(-0.0768251 -2.83643e-21 0.0158481)
(-0.0779997 -2.70008e-21 0.0159639)
(-0.0798149 0 0.0162838)
(-0.0810023 -9.90897e-21 0.0163816)
(-0.0831737 -4.77544e-21 0.0167958)
(-0.0843201 0 0.0168741)
(-0.0869138 -4.49671e-21 0.0174087)
(-0.0878915 -4.38736e-21 0.0174449)
(-0.0909989 0 0.0181341)
(-0.0916945 8.25428e-21 0.0181121)
(-0.0955186 -3.97648e-21 0.0190054)
(-0.0958424 -7.67003e-21 0.0188943)
(-0.10066 0 0.0200347)
(-0.100468 1.34977e-23 0.0197836)
(-0.106586 1.33411e-20 0.0212214)
(-0.10564 0 0.020774)
(-0.1134 0 0.0225813)
(-0.111364 -5.90798e-21 0.0218763)
(-0.121176 -5.63543e-21 0.0241396)
(-0.117611 1.10054e-20 0.0230916)
(-0.129969 1.05277e-20 0.0259059)
(-0.124335 1.03213e-20 0.0244052)
(-0.139876 -9.84752e-21 0.0278876)
(-0.131573 -1.93407e-20 0.025805)
(-0.151092 0 0.0300982)
(-0.139485 0 0.0272918)
(-0.163894 -1.7293e-20 0.0325583)
(-0.148242 0 0.0288849)
(-0.178532 0 0.0353074)
(-0.157774 1.76142e-20 0.0306072)
(-0.195031 0 0.0384061)
(-0.167547 -1.8779e-20 0.0324586)
(-0.213191 -1.13769e-23 0.0419169)
(-0.17657 1.98213e-20 0.0343692)
(-0.233132 0 0.0459009)
(-0.183712 0 0.0361281)
(-0.255985 0 0.0504079)
(-0.187334 2.97215e-20 0.0373321)
(-0.284751 0 0.055763)
(-0.184045 -1.77289e-20 0.0371853)
(-0.323943 2.0511e-20 0.0625946)
(-0.167101 0 0.0343875)
(-0.381298 0 0.0723154)
(-0.126665 0 0.0268521)
(-0.465263 2.75087e-23 0.0872252)
(-0.0573873 -5.42367e-21 0.0125261)
(-0.564869 -9.0082e-21 0.107837)
(0.00642753 -3.3917e-20 -0.00530254)
(-0.592251 3.13894e-20 0.120688)
(-0.0625303 0 -0.000284849)
(-0.416694 4.36312e-20 0.0880184)
(-0.236834 0 0.0353714)
(-0.18664 3.80723e-20 0.0431485)
(-0.485763 0 0.0887623)
(0.0612348 0 -0.0154562)
(-0.618207 0 0.121632)
(0.234188 -3.64226e-20 -0.0745148)
(-0.313605 1.43972e-20 0.0720563)
(0.111959 0 0.0173402)
(-1.1162 -1.01089e-19 0.176261)
(1.32722 -3.90219e-20 -0.270722)
(-1.56024 -2.01501e-19 0.339428)
(1.75725 -1.45689e-19 -0.582458)
(2.30931 0 -0.0577655)
(-6.31436 0 1.19458)
(5.41351 0 -1.56392)
(2.40922 0 -0.373083)
(3.02461 -3.39104e-19 -0.177958)
(-5.87437 6.02682e-21 1.00836)
(8.5328 -1.63392e-18 -2.49565)
(9.89204 0 -1.11597)
(-9.18759 0 1.69211)
(14.8768 -3.27174e-19 -3.47874)
(0.544773 0 1.2177)
(-15.7231 3.77371e-18 2.90851)
(6.52837 0 -1.98206)
(-4.42211 5.8768e-18 2.07901)
(-23.2206 0 4.57151)
(-1.62989 0 -0.871937)
(3.32822 4.81332e-19 -0.770392)
(-0.319938 0 0.236862)
(0.0589693 0 0.028189)
(0.057534 3.07038e-22 0.0256191)
(0.0562072 0 0.0236436)
(0.0544166 2.53335e-22 0.0223153)
(0.0526792 4.84071e-22 0.0214965)
(0.0511173 0 0.0208335)
(0.0492492 -2.12271e-22 0.0196457)
(0.0464626 0 0.0172783)
(0.0424536 1.07936e-23 0.0138448)
(0.0374402 7.00755e-22 0.010429)
(0.03202 0 0.00829917)
(0.026705 0 0.0078606)
(0.0215894 3.20709e-22 0.00850869)
(0.0164628 0 0.00935546)
(0.0111542 0 0.00992099)
(0.00567732 0 0.0102123)
(0.000123245 5.23197e-22 0.0103945)
(-0.00546733 4.97761e-22 0.0105335)
(-0.0110952 4.51666e-22 0.0105938)
(-0.0167201 0 0.0105619)
(-0.0222299 0 0.0105075)
(-0.0275262 4.74232e-22 0.0105355)
(-0.0325923 -4.93911e-22 0.0106938)
(-0.0374837 5.23316e-22 0.0109577)
(-0.0422206 1.12231e-21 0.0112716)
(-0.046785 -2.40266e-21 0.0116139)
(-0.0511033 1.80391e-23 0.0119757)
(-0.0551539 1.40407e-21 0.0123667)
(-0.0588723 1.49584e-21 0.0127636)
(-0.0622787 0 0.0131827)
(-0.0652871 0 0.0136078)
(-0.0679889 1.68018e-21 0.0140917)
(-0.0703109 0 0.0145911)
(-0.0724955 -3.38112e-21 0.0151544)
(-0.0744213 -3.3217e-21 0.0156673)
(-0.0764415 3.19653e-21 0.0162061)
(-0.0782294 0 0.0166098)
(-0.0802879 -2.95539e-21 0.0170519)
(-0.0820095 -2.79672e-21 0.017315)
(-0.0842055 8.60644e-24 0.0177058)
(-0.0858741 5.07225e-21 0.0178899)
(-0.0883231 0 0.0183308)
(-0.0899468 4.65842e-21 0.0184877)
(-0.0927819 0 0.0190374)
(-0.0943064 0 0.0191588)
(-0.0976273 0 0.0198464)
(-0.0989132 -8.49925e-24 0.0199043)
(-0.102844 0 0.0207744)
(-0.103757 -3.88229e-21 0.0207524)
(-0.108544 7.48224e-21 0.0218685)
(-0.108969 7.20764e-21 0.0217298)
(-0.114941 0 0.0231447)
(-0.114694 -6.6031e-21 0.0228274)
(-0.122222 -1.25589e-20 0.0246027)
(-0.121014 0 0.0240385)
(-0.130518 0 0.0262625)
(-0.127948 5.54967e-21 0.0253776)
(-0.139935 5.30636e-21 0.0281552)
(-0.135479 -5.17092e-21 0.0268468)
(-0.150562 -9.90355e-21 0.0302944)
(-0.143575 0 0.0284321)
(-0.162529 0 0.0326933)
(-0.152285 -9.91479e-24 0.0301216)
(-0.176072 -8.63361e-21 0.0353705)
(-0.161783 0 0.0319155)
(-0.191505 8.11987e-21 0.0383489)
(-0.172252 0 0.0338342)
(-0.209119 0 0.0416703)
(-0.183617 0 0.0359016)
(-0.228983 0 0.0454037)
(-0.195306 -6.26002e-24 0.0381226)
(-0.250951 -6.85517e-24 0.0496298)
(-0.206251 -1.85721e-20 0.0404362)
(-0.275272 0 0.0544378)
(-0.215191 -1.76864e-20 0.0426234)
(-0.303324 0 0.0598943)
(-0.220224 -2.78699e-20 0.0442449)
(-0.338554 2.11864e-20 0.0663496)
(-0.217346 -1.67032e-20 0.0443738)
(-0.386198 -9.63543e-21 0.0744927)
(-0.198675 0 0.0415187)
(-0.455245 1.10266e-21 0.0859531)
(-0.152592 0 0.0332135)
(-0.555901 1.62732e-21 0.103571)
(-0.0720011 -5.17442e-21 0.0166238)
(-0.677586 8.43897e-21 0.128825)
(0.00646201 0 -0.00596505)
(-0.723814 -5.87113e-20 0.148138)
(-0.0613347 0 -0.00500738)
(-0.536308 4.07611e-20 0.114295)
(-0.265635 0 0.0362061)
(-0.270834 3.57996e-20 0.0639088)
(-0.562194 0 0.0994245)
(0.0269772 5.88952e-20 -0.0085812)
(-0.735026 1.98225e-20 0.142935)
(0.24394 3.40845e-20 -0.0852304)
(-0.441368 -1.34716e-20 0.101561)
(0.0957786 0 0.03202)
(-1.25909 1.89728e-19 0.186731)
(1.45004 7.34931e-20 -0.295796)
(-1.81246 0 0.385369)
(2.01272 1.36256e-19 -0.705856)
(2.15179 0 0.107562)
(-6.65769 0 1.21486)
(6.26891 -3.79693e-19 -1.88954)
(2.24553 0 -0.290306)
(3.37905 0 -0.128287)
(-6.16469 -7.81358e-19 0.992691)
(9.70871 1.5277e-18 -2.98097)
(10.0929 -5.6399e-19 -0.873071)
(-9.80278 0 1.75315)
(16.13 0 -3.88519)
(-0.73003 0 1.90933)
(-16.4697 0 2.96605)
(6.96551 1.84926e-18 -2.24595)