/*--------------------------------*- C++ -*----------------------------------*\
| =========                 |                                                 |
| \\      /  F ield         | OpenFOAM: The Open Source CFD Toolbox           |
|  \\    /   O peration     | Version:  2412                                  |
|   \\  /    A nd           | Website:  www.openfoam.com                      |
|    \\/     M anipulation  |                                                 |
\*---------------------------------------------------------------------------*/
FoamFile
{
    version     2.0;
    format      ascii;
    arch        "LSB;label=32;scalar=64";
    class       volScalarField;
    location    "1.355";
    object      p;
}
// * * * * * * * * * * * * * * * * * * * * * * * * * * * * * * * * * * * * * //

dimensions      [0 2 -2 0 0 0 0];

internalField   nonuniform List<scalar> 
12600
(
-0.0291196
-154.782
-204.833
-201.56
-189.066
-177.452
-167.269
-158.159
-149.904
-142.342
-135.344
-128.814
-122.678
-116.88
-111.372
-106.118
-101.085
-96.2481
-91.585
-87.0772
-82.7085
-78.465
-74.3346
-70.3067
-66.372
-62.5219
-58.7492
-55.0471
-51.4097
-47.8315
-44.3075
-40.8332
-37.4045
-34.0175
-30.6688
-27.3549
-24.073
-20.8201
-17.5936
-14.3909
-11.2097
-8.04776
-4.90297
-1.77327
1.34321
4.44836
7.54384
10.6314
13.7126
16.7891
19.8621
22.9333
26.0039
29.0751
32.1483
35.2246
38.305
41.3906
44.4824
47.5809
50.6875
53.802
56.9261
60.0587
63.2021
66.3539
69.5173
72.6881
75.8707
79.0589
82.258
85.4599
88.6708
91.8806
95.0955
98.305
101.512
104.711
107.895
111.069
114.21
117.344
120.417
123.489
126.475
129.449
132.343
135.159
137.986
140.558
143.353
145.605
148.408
150.276
153.104
154.57
157.396
158.493
161.309
162.334
164.375
166.481
166.375
170.288
170.001
171.767
172.267
173.569
177.039
172.108
178.542
178.668
174.917
187.669
184.423
191.513
196.303
208.591
204.016
214.557
-24.1552
-123.862
-171.294
-180.893
-177.647
-170.875
-163.1
-155.309
-147.859
-140.826
-134.197
-127.933
-121.995
-116.347
-110.955
-105.791
-100.83
-96.0505
-91.4337
-86.9634
-82.6253
-78.4069
-74.2972
-70.2864
-66.3657
-62.5273
-58.7643
-55.0702
-51.4394
-47.8666
-44.3471
-40.8764
-37.4506
-34.066
-30.7191
-27.4066
-24.1258
-20.8736
-17.6476
-14.4452
-11.2641
-8.10204
-4.95704
-1.82701
1.28988
4.39552
7.49156
10.5798
13.6616
16.7388
19.8125
22.8844
25.9557
29.0278
32.1017
35.1787
38.2599
41.3463
44.4388
47.5381
50.6455
53.7607
56.8856
60.0189
63.163
66.3156
69.4797
72.6513
75.8345
79.0234
82.2233
85.4259
88.6375
91.848
95.0635
98.2738
101.482
104.681
107.866
111.041
114.182
117.317
120.391
123.464
126.451
129.426
132.321
135.137
137.966
140.538
143.335
145.586
148.391
150.259
153.089
154.555
157.382
158.48
161.295
162.325
164.36
166.476
166.364
170.275
169.998
171.76
172.263
173.552
177.044
172.111
178.52
178.683
174.899
187.638
184.419
191.483
196.252
208.566
204
214.526
-40.9659
-102.416
-145.201
-162.644
-165.946
-163.292
-158.128
-151.958
-145.509
-139.117
-132.919
-126.959
-121.242
-115.758
-110.492
-105.425
-100.54
-95.8214
-91.2531
-86.8219
-82.5156
-78.3232
-74.2348
-70.2416
-66.3354
-62.509
-58.7559
-55.0701
-51.4461
-47.879
-44.3641
-40.8973
-37.4746
-34.0925
-30.7476
-27.4368
-24.1572
-20.906
-17.6807
-14.4788
-11.298
-8.13609
-4.9911
-1.86097
1.25611
4.36203
7.4584
10.547
13.6293
16.7069
19.7811
22.8536
25.9254
28.998
32.0725
35.1501
38.2319
41.3187
44.4119
47.5117
50.6196
53.7354
56.8608
59.9947
63.1394
66.2925
69.4571
72.6292
75.8129
79.0023
82.2027
85.4058
88.6179
91.829
95.0449
98.2557
101.464
104.664
107.849
111.025
114.167
117.302
120.377
123.45
126.437
129.413
132.309
135.125
137.955
140.527
143.325
145.577
148.382
150.25
153.081
154.547
157.375
158.473
161.288
162.32
164.353
166.473
166.358
170.268
169.996
171.757
172.261
173.545
177.047
172.111
178.509
178.693
174.887
187.624
184.416
191.468
196.229
208.554
203.992
214.511
-48.8782
-88.6691
-124.09
-144.6
-152.795
-154.073
-151.75
-147.52
-142.359
-136.829
-131.219
-125.67
-120.248
-114.982
-109.88
-104.94
-100.154
-95.5127
-91.0068
-86.6259
-82.3606
-78.2018
-74.141
-70.1705
-66.2833
-62.4727
-58.7328
-55.058
-51.4432
-47.8837
-44.3753
-40.9138
-37.4957
-34.1173
-30.7755
-27.4673
-24.1897
-20.9402
-17.7162
-14.5153
-11.3353
-8.17397
-5.02938
-1.8995
1.21747
4.32339
7.41986
10.5086
13.5912
16.6691
19.7437
22.8165
25.8887
28.9618
32.0368
35.1148
38.1971
41.2845
44.3781
47.4785
50.587
53.7033
56.8292
59.9637
63.1089
66.2625
69.4276
72.6002
75.7845
78.9745
82.1754
85.3791
88.5917
91.8033
95.0198
98.2312
101.44
104.641
107.826
111.003
114.145
117.281
120.356
123.43
126.418
129.394
132.291
135.108
137.939
140.511
143.31
145.562
148.369
150.237
153.069
154.536
157.364
158.463
161.277
162.313
164.341
166.469
166.348
170.258
169.994
171.751
172.257
173.532
177.052
172.11
178.492
178.705
174.869
187.601
184.413
191.441
196.187
208.537
203.978
214.485
-53.9186
-80.4073
-107.32
-126.983
-138.08
-142.821
-143.439
-141.469
-137.952
-133.586
-128.799
-123.837
-118.841
-113.888
-109.021
-104.259
-99.611
-95.0782
-90.6581
-86.3461
-82.1364
-78.0229
-73.9993
-70.0595
-66.1976
-62.4082
-58.6859
-55.0258
-51.4234
-47.8743
-44.3746
-40.9205
-37.5084
-34.1352
-30.7977
-27.493
-24.2184
-20.9713
-17.7492
-14.5499
-11.3712
-8.21087
-5.06702
-1.93767
1.17895
4.28466
7.38106
10.4699
13.5525
16.6306
19.7055
22.7787
25.8513
28.9248
32.0002
35.0788
38.1615
41.2495
44.3436
47.4446
50.5536
53.6705
56.797
59.932
63.0777
66.232
69.3976
72.5709
75.7557
78.9463
82.1478
85.352
88.5652
91.7775
94.9945
98.2066
101.416
104.617
107.804
110.981
114.123
117.26
120.336
123.411
126.399
129.376
132.274
135.091
137.923
140.496
143.296
145.548
148.356
150.224
153.058
154.524
157.354
158.453
161.268
162.306
164.331
166.466
166.339
170.248
169.992
171.746
172.254
173.521
177.057
172.109
178.477
178.718
174.849
187.58
184.409
191.416
196.152
208.522
203.966
214.462
-57.1958
-75.3448
-94.9554
-111.829
-123.655
-130.56
-133.593
-133.818
-132.115
-129.158
-125.429
-121.255
-116.845
-112.333
-107.798
-103.29
-98.8389
-94.4595
-90.1604
-85.9447
-81.8125
-77.7617
-73.7892
-69.8915
-66.0643
-62.3036
-58.6052
-54.9652
-51.3795
-47.8445
-44.3566
-40.9124
-37.5087
-34.1425
-30.811
-27.5112
-24.2408
-20.9972
-17.778
-14.5811
-11.4043
-8.24558
-5.10299
-1.97462
1.14124
4.24641
7.34243
10.431
13.5136
16.5917
19.6667
22.74
25.8129
28.8867
31.9625
35.0414
38.1246
41.213
44.3077
47.4091
50.5186
53.6361
56.7631
59.8986
63.045
66.1997
69.366
72.5398
75.7252
78.9164
82.1184
85.3233
88.5371
91.75
94.9676
98.1803
101.39
104.592
107.779
110.957
114.1
117.238
120.315
123.39
126.379
129.357
132.256
135.073
137.906
140.479
143.281
145.532
148.343
150.211
153.046
154.512
157.343
158.442
161.256
162.299
164.318
166.462
166.328
170.238
169.99
171.74
172.249
173.509
177.064
172.106
178.46
178.732
174.826
187.557
184.404
191.385
196.11
208.506
203.951
214.434
-58.8067
-71.823
-86.153
-99.8471
-110.921
-118.616
-123.154
-125.1
-125.054
-123.543
-121.005
-117.777
-114.107
-110.169
-106.08
-101.921
-97.7413
-93.5765
-89.4475
-85.3675
-81.3443
-77.3817
-73.4809
-69.6418
-65.8629
-62.1421
-58.4768
-54.8644
-51.3018
-47.7861
-44.3145
-40.884
-37.4919
-34.1354
-30.812
-27.5193
-24.2547
-21.016
-17.8009
-14.6075
-11.4335
-8.27718
-5.13653
-2.00975
1.10485
4.20901
7.30427
10.3923
13.4745
16.5523
19.6272
22.7006
25.7735
28.8475
31.9235
35.0027
38.0863
41.175
44.2701
47.372
50.482
53.6
56.7275
59.8636
63.0105
66.1658
69.3326
72.507
75.6931
78.8848
82.0875
85.293
88.5074
91.7209
94.9392
98.1526
101.363
104.566
107.753
110.932
114.076
117.214
120.292
123.368
126.358
129.336
132.236
135.054
137.889
140.461
143.265
145.516
148.328
150.196
153.033
154.5
157.331
158.431
161.245
162.291
164.307
166.458
166.316
170.228
169.989
171.734
172.244
173.497
177.072
172.102
178.443
178.746
174.799
187.533
184.4
191.351
196.067
208.491
203.935
214.405
-59.2564
-69.0248
-79.75
-90.6006
-100.246
-107.783
-112.989
-116.045
-117.273
-117.028
-115.641
-113.407
-110.567
-107.306
-103.766
-100.048
-96.2224
-92.3422
-88.4425
-84.5478
-80.6747
-76.8343
-73.0334
-69.2761
-65.5646
-61.8995
-58.2805
-54.7065
-51.1761
-47.6873
-44.2383
-40.8268
-37.4507
-34.1078
-30.7959
-27.5128
-24.2564
-21.0246
-17.8154
-14.6268
-11.457
-8.30409
-5.16633
-2.04193
1.07071
4.17328
7.26726
10.3543
13.4357
16.513
19.5874
22.6605
25.7334
28.8073
31.8834
34.9628
38.0466
41.1356
44.2311
47.3334
50.4438
53.5622
56.6902
59.8268
62.9742
66.1301
69.2975
72.4725
75.6591
78.8515
82.0548
85.2609
88.476
91.6902
94.9091
98.1232
101.335
104.538
107.726
110.906
114.05
117.19
120.268
123.345
126.336
129.315
132.215
135.034
137.87
140.443
143.249
145.499
148.314
150.181
153.02
154.486
157.319
158.419
161.234
162.282
164.292
166.454
166.303
170.217
169.988
171.728
172.238
173.484
177.081
172.095
178.425
178.761
174.768
187.508
184.394
191.311
196.02
208.477
203.918
214.372
-58.9925
-66.5608
-74.8008
-83.3623
-91.4523
-98.3277
-103.608
-107.232
-109.312
-110.039
-109.637
-108.326
-106.31
-103.765
-100.832
-97.6222
-94.2199
-90.6893
-87.0781
-83.4213
-79.7444
-76.066
-72.399
-68.7527
-65.1333
-61.5448
-57.9895
-54.4688
-50.983
-47.5317
-44.1141
-40.7291
-37.3753
-34.0513
-30.7553
-27.4857
-24.2408
-21.0186
-17.8176
-14.636
-11.4721
-8.3241
-5.19049
-2.06958
1.04016
4.14032
7.23232
10.3177
13.3978
16.4741
19.5478
22.6203
25.6927
28.7664
31.8423
34.9217
38.0056
41.0948
44.1905
47.2931
50.4039
53.5227
56.6512
59.7882
62.9362
66.0926
69.2605
72.4361
75.6233
78.8163
82.0202
85.2271
88.4428
91.6577
94.8773
98.0922
101.304
104.509
107.698
110.878
114.023
117.163
120.242
123.32
126.312
129.292
132.194
135.013
137.851
140.423
143.231
145.481
148.298
150.165
153.006
154.472
157.306
158.406
161.222
162.273
164.28
166.45
166.289
170.206
169.987
171.72
172.231
173.471
177.093
172.086
178.407
178.778
174.731
187.483
184.389
191.267
195.971
208.464
203.899
214.337
-58.2568
-64.2364
-70.7088
-77.5144
-84.1922
-90.2137
-95.2049
-98.993
-101.554
-102.955
-103.318
-102.79
-101.524
-99.6664
-97.3459
-94.6712
-91.7307
-88.5949
-85.3189
-81.9457
-78.5081
-75.0311
-71.5336
-68.03
-64.5305
-61.043
-57.5728
-54.1238
-50.6984
-47.2981
-43.9236
-40.575
-37.2521
-33.9542
-30.6804
-27.4296
-24.2006
-20.992
-17.8026
-14.6307
-11.475
-8.33408
-5.2064
-2.09049
1.01502
4.11166
7.20071
10.2837
13.3617
16.4364
19.5088
22.5802
25.6519
28.725
31.8005
34.8797
37.9634
41.0526
44.1484
47.2511
50.3622
53.4813
56.6102
59.7477
62.8961
66.053
69.2215
72.3977
75.5855
78.7791
81.9837
85.1912
88.4076
91.6233
94.8437
98.0593
101.272
104.477
107.667
110.848
113.995
117.136
120.215
123.294
126.287
129.268
132.171
134.99
137.83
140.403
143.212
145.463
148.281
150.147
152.991
154.457
157.293
158.393
161.209
162.263
164.265
166.446
166.273
170.195
169.987
171.713
172.223
173.457
177.106
172.074
178.388
178.795
174.689
187.456
184.383
191.212
195.918
208.452
203.878
214.297
-57.1786
-61.9667
-67.1416
-72.6162
-78.1077
-83.2617
-87.7777
-91.4611
-94.2173
-96.0307
-96.9435
-97.0364
-96.4091
-95.1706
-93.4282
-91.2793
-88.8085
-86.0869
-83.173
-80.1141
-76.9481
-73.7049
-70.4083
-67.0768
-63.7248
-60.3632
-57.0007
-53.6436
-50.2966
-46.9632
-43.6458
-40.346
-37.0646
-33.8022
-30.5586
-27.3335
-24.1265
-20.9366
-17.7631
-14.6048
-11.4608
-8.32967
-5.21037
-2.10157
0.997927
4.08948
7.17425
10.2536
13.3287
16.4009
19.4712
22.541
25.6113
28.6834
31.7581
34.8367
37.92
41.009
44.1047
47.2075
50.3186
53.4379
56.5671
59.705
62.8538
66.0112
69.1802
72.3569
75.5454
78.7397
81.9449
85.1531
88.3703
91.5867
94.8079
98.0244
101.238
104.444
107.635
110.817
113.964
117.106
120.187
123.267
126.261
129.242
132.147
134.967
137.808
140.381
143.193
145.443
148.264
150.13
152.975
154.441
157.279
158.378
161.196
162.253
164.25
166.442
166.256
170.185
169.988
171.704
172.213
173.443
177.122
172.058
178.369
178.814
174.639
187.429
184.377
191.165
195.861
208.443
203.855
214.252
-55.8392
-59.7149
-63.9113
-68.3681
-72.8944
-77.2545
-81.2306
-84.6515
-87.4012
-89.4177
-90.6885
-91.2412
-91.1296
-90.4239
-89.2035
-87.5482
-85.5332
-83.2251
-80.6818
-77.9523
-75.077
-72.0895
-69.0167
-65.8807
-62.699
-59.4855
-56.2516
-53.006
-49.7556
-46.5057
-43.2604
-40.0228
-36.7952
-33.5789
-30.3752
-27.1844
-24.0067
-20.8422
-17.6904
-14.5507
-11.4225
-8.30508
-5.19743
-2.09857
0.992456
4.07681
7.15547
10.2297
13.3004
16.3689
19.4362
22.5035
25.5718
28.6421
31.7156
34.7931
37.8757
40.9641
44.0594
47.1619
50.273
53.3924
56.5218
59.6599
62.8091
65.9669
69.1364
72.3136
75.5027
78.6976
81.9036
85.1125
88.3305
91.5477
94.7698
97.9871
101.202
104.409
107.6
110.784
113.932
117.075
120.157
123.238
126.233
129.216
132.121
134.942
137.785
140.359
143.172
145.422
148.245
150.112
152.959
154.425
157.265
158.363
161.182
162.241
164.235
166.439
166.236
170.174
169.99
171.695
172.202
173.429
177.142
172.039
178.349
178.833
174.58
187.401
184.37
191.095
195.801
208.435
203.83
214.203
-54.2998
-57.465
-60.9051
-64.5704
-68.3191
-71.9904
-75.4341
-78.5172
-81.1299
-83.1931
-84.6628
-85.5294
-85.8107
-85.5427
-84.7758
-83.5686
-81.9817
-80.0735
-77.8975
-75.5012
-72.9258
-70.2062
-67.372
-64.4476
-61.4531
-58.405
-55.3167
-52.1993
-49.0615
-45.9103
-42.7516
-39.5897
-36.4281
-33.2695
-30.116
-26.9688
-23.8291
-20.6975
-17.5741
-14.4591
-11.3523
-8.25316
-5.16133
-2.07605
1.00331
4.07767
7.1478
10.2147
13.2793
16.3426
19.4055
22.4691
25.5343
28.6021
31.6735
34.7493
37.8306
40.9179
44.0125
47.1145
50.2253
53.3445
56.4738
59.6121
62.7615
65.9196
69.0896
72.2674
75.457
78.6526
81.8593
85.069
88.2877
91.5058
94.7288
97.9472
101.163
104.371
107.564
110.748
113.897
117.042
120.125
123.207
126.203
129.187
132.094
134.916
137.761
140.335
143.15
145.401
148.226
150.092
152.941
154.408
157.25
158.346
161.169
162.229
164.219
166.435
166.214
170.164
169.993
171.685
172.189
173.415
177.165
172.014
178.328
178.855
174.513
187.373
184.364
191.027
195.735
208.43
203.803
214.147
-52.608
-55.2094
-58.0522
-61.0918
-64.2135
-67.3026
-70.2574
-72.9815
-75.3837
-77.3856
-78.9305
-79.9866
-80.5459
-80.6189
-80.2299
-79.4154
-78.2192
-76.6879
-74.8673
-72.8006
-70.5273
-68.0822
-65.4957
-62.7938
-59.9985
-57.1284
-54.1989
-51.2227
-48.2106
-45.171
-42.1112
-39.037
-35.9529
-32.8627
-29.7695
-26.6755
-23.5825
-20.4918
-17.4044
-14.3207
-11.2413
-8.16601
-5.09491
-2.02764
1.03614
4.09704
7.15556
10.2125
13.2685
16.3245
19.3812
22.4395
25.5003
28.5644
31.6326
34.7059
37.7851
40.8708
43.9641
47.0651
50.1752
53.2939
56.423
59.5612
62.7107
65.869
69.0394
72.2175
75.4078
78.6039
81.8114
85.0218
88.2415
91.4605
94.6845
97.9039
101.121
104.33
107.524
110.709
113.86
117.006
120.09
123.174
126.172
129.157
132.066
134.888
137.735
140.31
143.127
145.378
148.205
150.072
152.923
154.39
157.233
158.329
161.155
162.216
164.202
166.432
166.19
170.151
169.997
171.675
172.174
173.399
177.192
171.983
178.307
178.877
174.435
187.344
184.359
190.932
195.665
208.429
203.773
214.084
-50.7925
-52.941
-55.3052
-57.8433
-60.4568
-63.0595
-65.5822
-67.9583
-70.1173
-71.991
-73.5214
-74.6672
-75.4046
-75.7262
-75.6367
-75.153
-74.3016
-73.1156
-71.6308
-69.8837
-67.9095
-65.7408
-63.4074
-60.9358
-58.3489
-55.6668
-52.9065
-50.0823
-47.2063
-44.2889
-41.3384
-38.3618
-35.365
-32.3528
-29.329
-26.2969
-23.2588
-20.2169
-17.1727
-14.1273
-11.0815
-8.03599
-4.99103
-1.94666
1.09705
4.14045
7.18372
10.2274
13.272
16.3181
19.3662
22.4173
25.4718
28.5306
31.5944
34.664
37.7401
40.8233
43.9145
47.0139
50.1227
53.2405
56.369
59.5067
62.656
65.8144
68.9849
72.1634
75.3542
78.5509
81.7591
84.9704
88.191
91.411
94.6361
97.8567
101.075
104.285
107.48
110.667
113.82
116.967
120.053
123.138
126.138
129.124
132.035
134.858
137.708
140.283
143.103
145.354
148.184
150.051
152.904
154.372
157.216
158.311
161.141
162.202
164.185
166.428
166.164
170.142
170.003
171.663
172.157
173.384
177.224
171.946
178.286
178.902
174.344
187.314
184.354
190.832
195.59
208.43
203.743
214.011
-48.8751
-50.656
-52.6321
-54.7637
-56.9622
-59.1595
-61.3083
-63.3639
-65.2743
-66.984
-68.4405
-69.6011
-70.4347
-70.9227
-71.057
-70.8392
-70.2806
-69.4008
-68.2245
-66.7798
-65.0956
-63.2006
-61.1223
-58.886
-56.5148
-54.0292
-51.4471
-48.7842
-46.054
-43.2679
-40.4357
-37.5657
-34.6648
-31.7387
-28.7924
-25.8297
-22.854
-19.868
-16.8737
-13.873
-10.8671
-7.85701
-4.84359
-1.8272
1.19176
4.2133
7.23732
10.2641
13.2939
16.327
19.3639
22.4052
25.4513
28.5029
31.5605
34.6248
37.6965
40.776
43.8641
46.961
50.0678
53.184
56.3113
59.4482
62.597
65.755
68.9256
72.1042
75.2954
78.4926
81.7015
84.9136
88.1352
91.3562
94.5826
97.8043
101.024
104.236
107.433
110.621
113.775
116.924
120.012
123.099
126.101
129.088
132.002
134.826
137.678
140.254
143.077
145.329
148.161
150.028
152.884
154.353
157.198
158.292
161.124
162.187
164.167
166.425
166.134
170.132
170.01
171.651
172.137
173.369
177.261
171.901
178.264
178.928
174.242
187.284
184.351
190.718
195.509
208.436
203.71
213.928
-46.8726
-48.3528
-50.0111
-51.8093
-53.6664
-55.5256
-57.3543
-59.1233
-60.7955
-62.3275
-63.675
-64.7982
-65.6649
-66.2509
-66.5406
-66.5255
-66.2049
-65.5867
-64.6849
-63.5182
-62.1085
-60.479
-58.6531
-56.6538
-54.5029
-52.2205
-49.8247
-47.3318
-44.7562
-42.1104
-39.4054
-36.6503
-33.8534
-31.0212
-28.1597
-25.2735
-22.3669
-19.4431
-16.505
-13.5548
-10.5944
-7.62517
-4.64841
-1.66485
1.32474
4.32008
7.32076
10.3269
13.3382
16.3552
19.3778
22.4066
25.4417
28.4837
31.5331
34.5903
37.6558
40.7301
43.8138
46.907
50.0109
53.1246
56.25
59.3853
62.5331
65.6903
68.8605
72.0389
75.2303
78.4278
81.6374
84.8501
88.0728
91.2948
94.5226
97.7457
100.967
104.18
107.379
110.569
113.726
116.876
119.967
123.055
126.06
129.049
131.966
134.791
137.646
140.223
143.049
145.302
148.136
150.005
152.862
154.333
157.179
158.273
161.109
162.172
164.148
166.422
166.101
170.122
170.019
171.638
172.114
173.353
177.303
171.848
178.242
178.956
174.125
187.253
184.35
190.591
195.421
208.444
203.682
213.832
-44.7982
-46.0305
-47.4261
-48.9486
-50.5225
-52.0991
-53.6551
-55.1723
-56.625
-57.9798
-59.2008
-60.2536
-61.1079
-61.7383
-62.1255
-62.2552
-62.1191
-61.7156
-61.0494
-60.1307
-58.9736
-57.595
-56.0135
-54.2484
-52.319
-50.2439
-48.0406
-45.7253
-43.3126
-40.8159
-38.2466
-35.6151
-32.9302
-30.1998
-27.4305
-24.6279
-21.7969
-18.9416
-16.0655
-13.1714
-10.2618
-7.33843
-4.40312
-1.45696
1.49891
4.46391
7.4373
10.4189
13.4084
16.4058
19.411
22.4243
25.4457
28.4757
31.5144
34.5623
37.6198
40.687
43.7648
46.8529
49.9524
53.0625
56.185
59.3179
62.4638
65.6196
68.7889
71.9666
75.1578
78.3553
81.5654
84.7786
88.0023
91.2253
94.4546
97.679
100.902
104.117
107.318
110.51
113.669
116.822
119.915
123.005
126.014
129.004
131.925
134.751
137.611
140.189
143.018
145.272
148.109
149.98
152.838
154.311
157.158
158.252
161.092
162.155
164.13
166.418
166.065
170.114
170.031
171.623
172.088
173.337
177.352
171.786
178.217
178.986
173.995
187.221
184.351
190.452
195.328
208.457
203.657
213.724
-42.6621
-43.6888
-44.8656
-46.1584
-47.4959
-48.8351
-50.1592
-51.4575
-52.7124
-53.899
-54.9885
-55.9523
-56.7637
-57.3988
-57.8372
-58.0625
-58.0616
-57.8267
-57.3555
-56.6506
-55.719
-54.5713
-53.2206
-51.6817
-49.9706
-48.1034
-46.0961
-43.9639
-41.7212
-39.3813
-36.9561
-34.4566
-31.8923
-29.2717
-26.6024
-23.8906
-21.1423
-18.3619
-15.5539
-12.7216
-9.86795
-6.99545
-4.10627
-1.20191
1.71606
4.64674
7.58908
10.5427
13.5068
16.4814
19.466
22.4609
25.4658
28.481
31.5067
34.543
37.5902
40.6484
43.7184
46.7996
49.8933
52.9983
56.1166
59.2459
62.389
65.5424
68.71
71.8864
75.0769
78.2738
81.484
84.6975
87.922
91.1458
94.3765
97.6023
100.827
104.044
107.248
110.442
113.604
116.759
119.856
122.948
125.961
128.953
131.879
134.706
137.572
140.151
142.984
145.24
148.079
149.953
152.813
154.289
157.136
158.23
161.074
162.138
164.11
166.413
166.029
170.103
170.044
171.609
172.057
173.322
177.406
171.715
178.193
179.019
173.852
187.188
184.356
190.304
195.229
208.473
203.644
213.605
-40.4726
-41.3279
-42.3215
-43.4213
-44.5602
-45.6992
-46.8261
-47.935
-49.0146
-50.046
-51.0067
-51.8734
-52.6234
-53.2355
-53.6905
-53.9712
-54.063
-53.9544
-53.6382
-53.1113
-52.3748
-51.4335
-50.2949
-48.9694
-47.4686
-45.8058
-43.9944
-42.0481
-39.9802
-37.8034
-35.5297
-33.17
-30.7344
-28.2318
-25.6704
-23.0573
-20.3989
-17.7004
-14.967
-12.2024
-9.41055
-6.59415
-3.75598
-0.897993
1.97781
4.8702
7.77772
10.6997
13.6351
16.5837
19.5448
22.5183
25.504
28.5019
31.5119
34.5342
37.5689
40.616
43.6761
46.7486
49.8346
52.933
56.0455
59.1698
62.3088
65.4587
68.6236
71.7976
74.9866
78.1823
81.392
84.6051
87.8301
91.0544
94.2865
97.5134
100.741
103.959
107.166
110.362
113.528
116.685
119.787
122.881
125.9
128.893
131.826
134.654
137.526
140.107
142.944
145.204
148.045
149.924
152.784
154.266
157.111
158.207
161.055
162.12
164.089
166.408
165.989
170.092
170.061
171.592
172.022
173.305
177.466
171.635
178.163
179.052
173.694
187.154
184.363
190.147
195.128
208.494
203.648
213.478
-38.2366
-38.9482
-39.7874
-40.7242
-41.6953
-42.6649
-43.6236
-44.5693
-45.4946
-46.3858
-47.225
-47.9934
-48.6724
-49.2438
-49.6903
-49.9958
-50.1453
-50.1261
-49.9281
-49.5443
-48.9713
-48.209
-47.2602
-46.1306
-44.8278
-43.3614
-41.742
-39.9809
-38.0898
-36.0803
-33.9637
-31.7505
-29.4509
-27.0741
-24.6286
-22.1219
-19.5609
-16.9517
-14.2997
-11.6096
-8.88553
-6.13095
-3.34912
-0.542431
2.28662
5.13646
8.0052
10.8919
13.7952
16.7145
19.6489
22.5983
25.562
28.5399
31.5319
34.5377
37.5577
40.5914
43.6396
46.7013
49.7778
52.8677
55.9728
59.0905
62.2239
65.3688
68.5296
71.7002
74.8865
78.0799
81.2883
84.5003
87.7252
90.9494
94.1824
97.4101
100.64
103.86
107.069
110.268
113.438
116.597
119.705
122.801
125.827
128.821
131.763
134.591
137.472
140.055
142.898
145.163
148.006
149.891
152.75
154.24
157.083
158.184
161.033
162.102
164.067
166.401
165.947
170.079
170.08
171.575
171.982
173.293
177.529
171.546
178.138
179.09
173.541
187.119
184.376
189.991
195.026
208.518
203.682
213.35
-35.9596
-36.5504
-37.259
-38.0574
-38.8859
-39.7114
-40.5265
-41.3315
-42.1221
-42.888
-43.6152
-44.2887
-44.8932
-45.4136
-45.835
-46.1427
-46.3228
-46.3624
-46.2502
-45.9772
-45.5368
-44.9254
-44.1417
-43.1875
-42.0665
-40.7845
-39.3491
-37.7689
-36.0533
-34.2124
-32.2562
-30.1945
-28.0371
-25.7928
-23.4704
-21.0776
-18.6217
-16.1091
-13.5458
-10.937
-8.28731
-5.60072
-2.88102
-0.131044
2.64623
5.44885
8.27449
11.1219
13.9893
16.8759
19.7805
22.7026
25.6415
28.5968
31.5681
34.5552
37.5581
40.5763
43.6104
46.6593
49.7244
52.8039
55.8998
59.0092
62.1353
65.2736
68.4289
71.5944
74.7769
77.9667
81.1727
84.3824
87.6063
90.8294
94.0629
97.2906
100.522
103.743
106.956
110.156
113.331
116.492
119.607
122.704
125.74
128.734
131.688
134.516
137.408
139.993
142.843
145.114
147.959
149.854
152.711
154.212
157.051
158.159
161.007
162.084
164.043
166.393
165.906
170.065
170.101
171.557
171.938
173.281
177.591
171.457
178.1
179.125
173.389
187.08
184.394
189.844
194.934
208.544
203.756
213.233
-33.6465
-34.1353
-34.7329
-35.4131
-36.1199
-36.8223
-37.5146
-38.1983
-38.8716
-39.5266
-40.1523
-40.7367
-41.2673
-41.7319
-42.1178
-42.4121
-42.6025
-42.6768
-42.6235
-42.4328
-42.0965
-41.6084
-40.9646
-40.1633
-39.205
-38.0923
-36.8294
-35.4221
-33.8774
-32.2033
-30.4082
-28.5006
-26.4895
-24.3832
-22.1902
-19.9181
-17.5744
-15.1657
-12.6983
-10.1777
-7.60929
-4.99722
-2.34584
0.341595
3.06163
5.81191
8.5897
11.3934
14.2208
17.0709
19.9421
22.8338
25.7447
28.6745
31.6226
34.5884
37.5719
40.5722
43.5902
46.6243
49.676
52.7431
55.828
58.9272
62.0444
65.1744
68.3226
71.4814
74.6585
77.8432
81.0454
84.2515
87.4732
90.694
93.9269
97.1536
100.386
103.607
106.823
110.024
113.205
116.367
119.49
122.587
125.635
128.628
131.596
134.423
137.329
139.917
142.776
145.054
147.903
149.811
152.664
154.181
157.013
158.135
160.977
162.067
164.015
166.383
165.865
170.047
170.125
171.538
171.892
173.27
177.655
171.365
178.066
179.168
173.235
187.047
184.422
189.722
194.858
208.572
203.889
213.145
-31.3013
-31.7039
-32.2068
-32.7857
-33.3881
-33.9851
-34.5719
-35.1511
-35.7222
-36.2795
-36.8143
-37.3167
-37.7767
-38.1843
-38.529
-38.8
-38.9862
-39.0767
-39.0608
-38.9286
-38.6712
-38.2811
-37.7525
-37.0813
-36.2653
-35.3041
-34.1992
-32.9537
-31.5721
-30.0598
-28.4235
-26.6701
-24.8073
-22.8426
-20.7837
-18.638
-16.4128
-14.1146
-11.7501
-9.32478
-6.84439
-4.31353
-1.73691
0.881803
3.53876
6.23118
8.95595
11.711
14.494
17.3034
20.1374
22.9949
25.8747
28.7758
31.6978
34.6395
37.6011
40.5812
43.5808
46.5979
49.6343
52.6871
55.7592
58.8463
61.9529
65.0728
68.2122
71.3627
74.5328
77.7107
80.9078
84.1085
87.3268
90.5437
93.775
96.9991
100.232
103.451
106.67
109.871
113.057
116.218
119.351
122.447
125.508
128.499
131.484
134.31
137.232
139.823
142.693
144.982
147.833
149.758
152.606
154.145
156.967
158.109
160.939
162.052
163.984
166.37
165.83
170.024
170.15
171.519
171.846
173.261
177.716
171.28
178.025
179.217
173.079
187.019
184.46
189.639
194.812
208.602
204.1
213.109
-28.9277
-29.2571
-29.679
-30.1707
-30.6832
-31.1896
-31.6856
-32.1746
-32.6569
-33.1285
-33.5823
-34.0102
-34.4043
-34.7564
-35.0577
-35.2992
-35.4714
-35.5648
-35.5696
-35.4766
-35.2769
-34.9624
-34.5263
-33.963
-33.2685
-32.4401
-31.477
-30.3796
-29.1502
-27.7918
-26.3091
-24.7073
-22.9923
-21.1705
-19.2488
-17.2336
-15.132
-12.9502
-10.6947
-8.37125
-5.98556
-3.54257
-1.04724
1.4964
4.08419
6.71289
9.37915
12.0804
14.8141
17.5781
20.3706
23.19
26.0349
28.904
31.7967
34.7113
37.6483
40.6056
43.5846
46.5823
49.6013
52.6376
55.6951
58.7683
61.8626
64.9705
68.0997
71.24
74.4017
77.571
80.7615
83.9551
87.1686
90.3798
93.6082
96.828
100.06
103.276
106.497
109.695
112.887
116.046
119.188
122.282
125.357
128.345
131.349
134.172
137.113
139.708
142.591
144.891
147.746
149.693
152.534
154.102
156.91
158.083
160.893
162.04
163.948
166.354
165.803
169.996
170.177
171.502
171.805
173.255
177.771
171.213
177.986
179.277
172.949
187.006
184.519
189.615
194.808
208.64
204.413
213.153
-26.5287
-26.7961
-27.1484
-27.5649
-27.9997
-28.4279
-28.8456
-29.2565
-29.6617
-30.0582
-30.4402
-30.8013
-31.1348
-31.4341
-31.692
-31.9011
-32.0532
-32.1402
-32.1535
-32.0846
-31.9251
-31.6672
-31.3036
-30.8278
-30.2348
-29.5202
-28.6814
-27.717
-26.6268
-25.412
-24.075
-22.6193
-21.0491
-19.3692
-17.5854
-15.7032
-13.7288
-11.668
-9.52683
-7.31104
-5.02623
-2.67748
-0.269814
2.19236
4.70478
7.26371
9.8657
12.5076
15.1867
17.9004
20.6469
23.4237
26.2299
29.0629
31.9229
34.8071
37.7167
40.6481
43.6039
46.5797
49.5792
52.5968
55.6379
58.695
61.7754
64.8695
67.9869
71.1151
74.2671
77.426
80.6085
83.7932
87.0008
90.2043
93.4288
96.6421
99.8726
103.083
106.306
109.499
112.696
115.85
119.003
122.09
125.182
128.163
131.188
134.007
136.969
139.568
142.465
144.78
147.639
149.612
152.445
154.049
156.84
158.056
160.833
162.034
163.906
166.337
165.789
169.961
170.206
171.488
171.778
173.255
177.818
171.181
177.949
179.355
172.86
187.017
184.613
189.672
194.866
208.691
204.853
213.308
-24.1073
-24.3219
-24.6143
-24.9657
-25.3333
-25.6937
-26.0437
-26.3869
-26.7251
-27.0559
-27.3747
-27.676
-27.9545
-28.2047
-28.4208
-28.5965
-28.7251
-28.7996
-28.8126
-28.7564
-28.6235
-28.4064
-28.0981
-27.6918
-27.1818
-26.5629
-25.8311
-24.9835
-24.0182
-22.9347
-21.7334
-20.416
-18.985
-17.4437
-15.7963
-14.0474
-12.2019
-10.2651
-8.24245
-6.1392
-3.96065
-1.712
0.601983
2.97648
5.40743
7.89043
10.4223
12.9989
15.6182
18.2762
20.9718
23.7012
26.4643
29.257
32.0808
34.9307
37.8097
40.7119
43.642
46.5928
49.5707
52.5669
55.5898
58.6285
61.6935
64.7715
67.8758
70.99
74.1309
77.2774
80.4511
83.6248
86.8255
90.0193
93.2391
96.4437
99.672
102.875
106.098
109.284
112.486
115.632
118.796
121.875
124.984
127.955
131.003
133.816
136.8
139.401
142.315
144.645
147.509
149.513
152.336
153.986
156.754
158.029
160.759
162.036
163.856
166.319
165.797
169.919
170.24
171.483
171.778
173.263
177.855
171.207
177.916
179.463
172.831
187.061
184.766
189.84
195.009
208.764
205.443
213.602
-21.6662
-21.8357
-22.0766
-22.3714
-22.6805
-22.9822
-23.2735
-23.558
-23.8378
-24.1112
-24.3742
-24.6224
-24.8514
-25.0566
-25.2332
-25.3762
-25.4798
-25.5381
-25.5446
-25.4929
-25.3761
-25.1874
-24.9202
-24.5679
-24.1245
-23.5845
-22.9431
-22.1964
-21.3412
-20.3755
-19.2982
-18.1094
-16.8098
-15.4015
-13.8868
-12.2693
-10.5526
-8.74115
-6.83937
-4.85226
-2.78432
-0.640811
1.57409
3.8551
6.19874
8.59976
11.0557
13.5612
16.115
18.7117
21.3513
24.0281
26.7437
29.4915
32.2749
35.0864
37.9314
40.8008
43.7022
46.6249
49.5786
52.5506
55.5532
58.5709
61.6188
64.6786
67.7683
70.8664
73.9951
77.1272
80.2909
83.4517
86.6447
89.8267
93.0413
96.2349
99.4608
102.653
105.878
109.053
112.261
115.396
118.571
121.637
124.764
127.724
130.794
133.6
136.605
139.209
142.139
144.486
147.355
149.394
152.206
153.909
156.65
158.001
160.668
162.048
163.799
166.303
165.834
169.869
170.285
171.492
171.821
173.287
177.884
171.326
177.891
179.625
172.904
187.15
185.009
190.151
195.27
208.871
206.198
214.056
-19.2076
-19.3388
-19.5352
-19.7808
-20.0389
-20.2895
-20.5297
-20.7633
-20.9923
-21.2154
-21.4294
-21.6307
-21.8153
-21.9796
-22.1197
-22.2313
-22.3097
-22.3498
-22.3461
-22.293
-22.1845
-22.0146
-21.777
-21.4658
-21.075
-20.5991
-20.0328
-19.3718
-18.6119
-17.7502
-16.7843
-15.7129
-14.5354
-13.2523
-11.8646
-10.3745
-8.78429
-7.0976
-5.31748
-3.44858
-1.49425
0.54013
2.65144
4.83379
7.08477
9.39806
11.7723
14.2008
16.6836
19.2133
21.7917
24.4105
27.0737
29.7716
32.5104
35.2791
38.0863
40.9189
43.7884
46.6793
49.6063
52.5508
55.5308
58.5248
61.5537
64.5928
67.6664
70.7462
73.8612
76.9769
80.1297
83.2755
86.4601
89.6283
92.8372
96.0177
99.241
102.421
105.646
108.808
112.022
115.143
118.33
121.382
124.527
127.473
130.564
133.362
136.387
138.994
141.939
144.305
147.177
149.255
152.054
153.819
156.528
157.974
160.558
162.072
163.737
166.291
165.909
169.813
170.349
171.526
171.93
173.335
177.909
171.585
177.88
179.875
173.137
187.297
185.379
190.634
195.684
209.026
207.127
214.677
-16.734
-16.8324
-16.9903
-17.193
-17.4066
-17.6126
-17.8085
-17.9977
-18.1823
-18.3615
-18.5326
-18.6922
-18.8374
-18.9649
-19.0716
-19.1538
-19.2076
-19.2288
-19.2126
-19.1542
-19.0484
-18.8899
-18.6731
-18.3925
-18.0425
-17.6178
-17.1132
-16.5238
-15.8453
-15.074
-14.2065
-13.2406
-12.1745
-11.0075
-9.73923
-8.37078
-6.9029
-5.33841