/*--------------------------------*- C++ -*----------------------------------*\
| =========                 |                                                 |
| \\      /  F ield         | OpenFOAM: The Open Source CFD Toolbox           |
|  \\    /   O peration     | Version:  2412                                  |
|   \\  /    A nd           | Website:  www.openfoam.com                      |
|    \\/     M anipulation  |                                                 |
\*---------------------------------------------------------------------------*/
FoamFile
{
    version     2.0;
    format      ascii;
    arch        "LSB;label=32;scalar=64";
    class       volVectorField;
    location    "1.465";
    object      ddt0(U);
}
// * * * * * * * * * * * * * * * * * * * * * * * * * * * * * * * * * * * * * //

dimensions      [0 1 -2 0 0 0 0];

internalField   nonuniform List<vector> 
12600
(
(0.101323 2.47046e-22 0.0253261)
(0.066325 3.54972e-22 0.00727465)
(0.0333391 3.44326e-22 -0.000627064)
(0.0177847 0 -0.00240691)
(0.0107494 3.02966e-22 -0.00228122)
(0.00691581 2.82751e-22 -0.0017742)
(0.00457335 0 -0.00128609)
(0.00303734 0 -0.000873677)
(0.00189884 -8.25122e-22 -0.00055242)
(0.000897178 0 -0.000303323)
(-5.72042e-05 3.30709e-22 -0.000115057)
(-0.000927355 2.96347e-22 1.83382e-05)
(-0.00163078 -2.63379e-22 0.000103932)
(-0.00211573 0 0.000153435)
(-0.00239716 -1.97931e-22 0.000182358)
(-0.0025465 0 0.000206372)
(-0.00265529 5.40813e-22 0.000237585)
(-0.002799 0 0.000282495)
(-0.00301619 -1.68529e-22 0.000341717)
(-0.00330443 -1.24199e-22 0.00041087)
(-0.00362964 8.47935e-23 0.000482575)
(-0.00394466 -1.11826e-24 0.000549357)
(-0.00421016 0 0.000606446)
(-0.00440847 3.67083e-23 0.000652993)
(-0.00454515 0 0.000691385)
(-0.00463958 0 0.000725109)
(-0.00471258 1.89903e-22 0.000756813)
(-0.00477643 0 0.000787143)
(-0.00483312 1.15746e-24 0.000815256)
(-0.0048771 -2.69158e-22 0.000839556)
(-0.00490372 -2.82491e-22 0.000859323)
(-0.00491268 -2.90312e-22 0.000874776)
(-0.00491247 2.93205e-22 0.000887812)
(-0.00491239 5.83486e-22 0.000899979)
(-0.00492282 5.72988e-22 0.000913043)
(-0.00494331 -5.56711e-22 0.000926398)
(-0.00497348 0 0.00094003)
(-0.005002 5.09758e-22 0.000951644)
(-0.00503024 0 0.000962186)
(-0.00505067 -4.52599e-22 0.000970259)
(-0.00507904 0 0.000979608)
(-0.00510859 -2.47502e-25 0.000988443)
(-0.00515882 0 0.00100101)
(-0.00520552 -3.75482e-25 0.00101181)
(-0.00526971 -5.82007e-22 0.00102571)
(-0.00531449 5.20393e-22 0.00103473)
(-0.00538201 -4.60278e-22 0.00104806)
(-0.00542496 0 0.00105534)
(-0.00551015 0 0.00107071)
(-0.00556566 -3.15877e-22 0.00107884)
(-0.00568656 -5.62225e-22 0.00109971)
(-0.00576276 -5.15057e-22 0.00111056)
(-0.00592715 1.3631e-26 0.00113907)
(-0.00601884 -4.68743e-22 0.00115251)
(-0.00622358 0 0.00118907)
(-0.00631417 4.82623e-22 0.00120294)
(-0.00655098 4.99071e-22 0.00124678)
(-0.0066228 5.31536e-22 0.00125822)
(-0.00688843 0 0.00130892)
(-0.00692742 0 0.00131518)
(-0.00722706 0 0.00137343)
(-0.00722734 -1.29021e-21 0.00137302)
(-0.00757566 0 0.00144122)
(-0.0075353 0 0.00143341)
(-0.00794707 2.72214e-21 0.00151406)
(-0.00786378 0 0.00149819)
(-0.00835105 0 0.00159332)
(-0.00822527 0 0.00156923)
(-0.00879803 -2.7324e-21 0.00168046)
(-0.00863481 2.79711e-21 0.00164895)
(-0.00929592 2.68384e-21 0.00177673)
(-0.0091042 6.28431e-25 0.0017396)
(-0.00983648 -2.63563e-21 0.00188065)
(-0.00962885 0 0.00184031)
(-0.0103908 2.60855e-21 0.00198649)
(-0.0101908 0 0.00194747)
(-0.0109126 0 0.002086)
(-0.0107448 0 0.00205473)
(-0.0113109 8.48239e-25 0.00216602)
(-0.0111741 5.40818e-21 0.00214486)
(-0.0114414 4.82075e-21 0.00220274)
(-0.0113178 -4.6519e-21 0.00218604)
(-0.011241 -3.75704e-21 0.00217592)
(-0.0111174 0 0.00215246)
(-0.0109027 0 0.00211031)
(-0.01051 5.32058e-21 0.00203396)
(-0.0107449 -8.21393e-21 0.00208532)
(-0.00886446 8.27218e-21 0.00172736)
(-0.011272 2.17849e-21 0.00219739)
(-0.00492582 0 0.000972616)
(-0.0133503 1.41036e-21 0.00260229)
(0.00233133 4.43826e-22 -0.0004014)
(-0.0168143 3.94382e-21 0.00328266)
(0.0111992 -2.95331e-21 -0.00209156)
(-0.0196382 0 0.00381247)
(0.0193447 0 -0.00361917)
(-0.0117647 0 0.00223849)
(-0.00801301 0 0.00115918)
(0.0716734 0 -0.0136807)
(-0.118335 0 0.0243714)
(0.355169 -5.11019e-20 -0.0675709)
(-0.211065 2.55527e-19 0.0490625)
(-0.459305 2.21222e-19 0.0806077)
(0.909057 0 -0.1718)
(-0.331611 0 0.0727672)
(-0.0586575 0 0.00704413)
(0.226667 1.53542e-20 -0.0431857)
(-0.311579 4.24614e-20 0.0565316)
(1.14006 1.15523e-19 -0.214597)
(-1.40699 0 0.276177)
(0.227087 -8.10408e-19 -0.0539529)
(1.22867 0 -0.211446)
(-1.87982 3.65839e-19 0.358193)
(1.02728 8.6176e-19 -0.213218)
(1.81051 -2.50126e-19 -0.338864)
(1.57783 -1.87036e-21 -0.300251)
(2.79887 -4.59404e-19 -0.500798)
(-0.950186 1.48306e-21 0.196542)
(-5.20963 -1.24017e-18 0.991612)
(-2.30393 0 0.421262)
(0.14632 -2.49492e-22 0.042719)
(0.126541 0 0.0220872)
(0.094824 -3.48291e-22 0.00639892)
(0.0666544 0 -0.00104669)
(0.0465172 -3.06862e-22 -0.00330797)
(0.0330576 -5.58489e-22 -0.00331646)
(0.0239693 -2.55973e-22 -0.00262222)
(0.0174428 0 -0.00181819)
(0.0123892 3.58197e-24 -0.00111407)
(0.00823874 -3.71489e-22 -0.000558057)
(0.00477013 3.34426e-22 -0.000158483)
(0.00196176 3.01003e-22 9.29317e-05)
(-0.000165182 -2.68614e-22 0.000223282)
(-0.00165793 2.35694e-22 0.000277099)
(-0.00266471 4.03124e-22 0.000305579)
(-0.00339689 0 0.000352603)
(-0.00406183 2.42506e-24 0.000445191)
(-0.0048077 2.22082e-22 0.000591092)
(-0.00569864 1.70996e-22 0.000781073)
(-0.00671671 0 0.000993715)
(-0.00778434 0 0.00120324)
(-0.0088029 4.98197e-23 0.00138918)
(-0.00969615 0 0.00154348)
(-0.0104374 -1.80593e-23 0.00167072)
(-0.0110481 9.2241e-23 0.00178256)
(-0.0115731 0 0.0018898)
(-0.0120524 -1.88297e-22 0.0019976)
(-0.0125032 0 0.00210435)
(-0.0129219 2.52792e-22 0.00220544)
(-0.0132926 5.43576e-22 0.00229591)
(-0.0136065 5.70713e-22 0.00237493)
(-0.0138666 2.9384e-22 0.00244429)
(-0.0140957 -2.96687e-22 0.00250975)
(-0.0143143 -1.17936e-21 0.00257394)
(-0.0145428 -1.15814e-21 0.00263967)
(-0.0147725 0 0.00270233)
(-0.0149992 0 0.00276145)
(-0.0151936 -6.66702e-26 0.00281026)
(-0.0153661 0 0.00285435)
(-0.0155022 4.56914e-22 0.00289018)
(-0.01565 0 0.00293095)
(-0.0157892 7.85638e-22 0.00296871)
(-0.015974 0 0.00301706)
(-0.0161345 6.52579e-22 0.00305617)
(-0.0163349 0 0.00310445)
(-0.016471 -5.24004e-22 0.00313496)
(-0.0166661 0 0.00318071)
(-0.0167799 0 0.00320459)
(-0.017005 3.59628e-22 0.00325548)
(-0.0171268 0 0.00327844)
(-0.0174239 0 0.00334275)
(-0.0175719 0 0.00336827)
(-0.0179675 4.81764e-22 0.0034519)
(-0.0181389 9.39657e-22 0.00348009)
(-0.0186451 0 0.00358646)
(-0.0188175 0 0.00361347)
(-0.0194391 -4.98003e-22 0.00374436)
(-0.0195856 -5.31515e-22 0.00376493)
(-0.020333 0 0.00392238)
(-0.0204241 0 0.00393007)
(-0.0213184 0 0.00411815)
(-0.0213338 0 0.00410837)
(-0.0224113 -1.30244e-21 0.00433426)
(-0.0223347 1.35674e-21 0.00430308)
(-0.02363 -2.70604e-21 0.0045738)
(-0.0234454 0 0.00451749)
(-0.024987 0 0.00483906)
(-0.0246875 0 0.00475557)
(-0.026497 1.12889e-24 0.00513257)
(-0.0260887 -2.77038e-21 0.00502244)
(-0.0281662 -2.65577e-21 0.00545559)
(-0.0276702 5.45748e-21 0.00532233)
(-0.0299608 8.18937e-25 0.00580155)
(-0.0294144 -2.6973e-21 0.00565161)
(-0.0317903 -2.57145e-21 0.00615229)
(-0.031262 0 0.00599861)
(-0.0335115 0 0.00648067)
(-0.0330928 0 0.00634304)
(-0.0349058 5.14594e-21 0.00674836)
(-0.0346643 0 0.00664272)
(-0.0356865 0 0.00690034)
(-0.0356218 4.55292e-21 0.00682482)
(-0.0356841 3.67318e-21 0.00689065)
(-0.0356195 0 0.00680913)
(-0.035129 0 0.00675509)
(-0.0341034 0 0.006511)
(-0.0348019 7.99646e-21 0.00667478)
(-0.0293926 4.85254e-24 0.00561903)
(-0.0366146 2.12487e-21 0.00701225)
(-0.0180359 -2.16832e-21 0.0034228)
(-0.0432998 -1.36297e-21 0.00827546)
(0.00336944 4.44148e-22 -0.000734935)
(-0.0545732 -7.62196e-21 0.0105097)
(0.0299113 0 -0.00595586)
(-0.0642177 0 0.0124539)
(0.0547911 0 -0.0110116)
(-0.0437682 0 0.00906232)
(-0.0185146 -1.338e-20 0.00192505)
(0.197433 0 -0.0369606)
(-0.325375 0 0.0558382)
(1.01301 -4.9411e-20 -0.196546)
(-0.69764 -1.22397e-19 0.147923)
(-1.14969 -4.25681e-19 0.195996)
(2.60479 -3.01911e-19 -0.50643)
(-1.14868 0 0.253825)
(0.0170481 0 -0.0192572)
(0.643699 0 -0.118813)
(-0.874312 -2.03775e-20 0.150999)
(3.27508 -1.09943e-19 -0.612035)
(-4.11382 0 0.82432)
(0.953023 1.53701e-18 -0.221083)
(3.30318 -3.91518e-20 -0.584376)
(-5.35349 -6.95992e-19 1.03754)
(3.45434 0 -0.738673)
(5.15013 0 -0.994582)
(4.46787 -3.83683e-21 -0.873019)
(7.38147 0 -1.37026)
(-3.50988 1.88491e-18 0.744126)
(-14.6004 1.17769e-18 2.83865)
(-6.0126 0 1.1)
(0.148957 0 0.0429214)
(0.14342 0 0.0302725)
(0.128189 -2.90541e-22 0.017466)
(0.106948 0 0.00831495)
(0.0852022 0 0.00288243)
(0.0662327 2.71615e-22 0.000292276)
(0.0509174 2.42364e-22 -0.000549272)
(0.0387193 0 -0.000529524)
(0.0288418 5.59643e-24 -0.00020001)
(0.0207039 3.51905e-22 0.000138502)
(0.0140137 -6.31722e-22 0.000350566)
(0.00866827 -2.85185e-22 0.000404935)
(0.00459372 -1.86191e-25 0.000341639)
(0.00162523 -2.23332e-22 0.000240551)
(-0.000521212 -1.91667e-22 0.000185237)
(-0.00219205 1.61416e-22 0.000233453)
(-0.0037058 -2.63036e-22 0.00040487)
(-0.00528238 -2.10451e-22 0.000684656)
(-0.00701543 0 0.00103353)
(-0.00888119 0 0.00139961)
(-0.0107733 8.49536e-23 0.00173432)
(-0.0125568 4.9763e-23 0.00200934)
(-0.01413 0 0.00222502)
(-0.0154632 0 0.00240356)
(-0.0165968 -8.73994e-23 0.00257284)
(-0.0176005 0 0.0027507)
(-0.0185318 3.54998e-22 0.00293986)
(-0.0194113 -2.10322e-22 0.00313101)
(-0.0202306 0 0.00331313)
(-0.020967 -2.56751e-22 0.00347855)
(-0.0216114 -2.69723e-22 0.00362901)
(-0.0221712 0 0.00376976)
(-0.0226814 2.79735e-22 0.00391037)
(-0.0231688 5.58007e-22 0.00405138)
(-0.0236593 5.05327e-25 0.00419288)
(-0.0241334 0 0.00432274)
(-0.0245834 0 0.00443996)
(-0.0249652 -4.87624e-22 0.00453455)
(-0.0253027 0 0.0046207)
(-0.0255759 0 0.00469389)
(-0.0258644 0 0.00477822)
(-0.0261306 0 0.00485602)
(-0.0264617 0 0.0049502)
(-0.0267425 0 0.00502327)
(-0.0270841 0 0.00511133)
(-0.0273172 4.97482e-22 0.00516635)
(-0.0276495 -4.40248e-22 0.00525057)
(-0.0278451 0 0.00529449)
(-0.0282238 -3.40243e-22 0.00538753)
(-0.028424 0 0.00542672)
(-0.0289095 0 0.00553899)
(-0.0291364 4.90042e-22 0.00557604)
(-0.0297704 0 0.00571639)
(-0.0300214 -4.44148e-22 0.00575177)
(-0.0308322 4.3976e-22 0.0059284)
(-0.0310824 0 0.00595905)
(-0.0320938 4.70726e-22 0.00617997)
(-0.032313 0 0.00620114)
(-0.0335573 0 0.00647393)
(-0.0337084 0 0.00647746)
(-0.0352306 1.14828e-21 0.00681158)
(-0.0352837 1.21117e-21 0.00678995)
(-0.0371455 1.39652e-24 0.00719755)
(-0.0370707 -2.5611e-21 0.00714221)
(-0.0393279 1.13184e-24 0.00763477)
(-0.0390958 0 0.00753765)
(-0.041794 0 0.00812541)
(-0.0413889 -2.64009e-21 0.00798135)
(-0.0445608 1.28744e-24 0.00867186)
(-0.0439884 0 0.00847949)
(-0.0476294 0 0.00927332)
(-0.0469214 -2.57281e-21 0.00903588)
(-0.050936 8.56236e-25 0.00991602)
(-0.0501543 7.19032e-25 0.00964306)
(-0.0543251 0 0.0105684)
(-0.0535845 0 0.0102804)
(-0.0575525 -4.85603e-21 0.0111822)
(-0.0570141 5.12957e-21 0.0109129)
(-0.0602692 0 0.0116947)
(-0.060078 0 0.0114811)
(-0.0620564 0 0.0120324)
(-0.0622441 0 0.01189)
(-0.0626569 0 0.0121343)
(-0.0628825 0 0.0120023)
(-0.0623238 0 0.0120141)
(-0.0609058 0 0.0116167)
(-0.0622318 -7.51983e-21 0.0118979)
(-0.0535251 -3.78679e-21 0.0102467)
(-0.0656459 -1.99714e-21 0.012456)
(-0.0350463 2.03755e-21 0.00673411)
(-0.0773054 1.27554e-21 0.014603)
(0.00042421 -4.17206e-22 -0.000159064)
(-0.097262 3.5761e-21 0.018582)
(0.0449969 0 -0.00902581)
(-0.114946 0 0.0223274)
(0.0874606 0 -0.0181296)
(-0.084969 0 0.0187479)
(-0.0239657 1.25524e-20 -0.000493562)
(0.305417 0 -0.0536496)
(-0.504819 0 0.0887118)
(1.61781 4.6329e-20 -0.310044)
(-1.23195 0 0.27725)
(-1.63084 2.00547e-19 0.227218)
(4.16867 2.82925e-19 -0.808585)
(-2.10332 0 0.492358)
(0.27084 0 -0.108746)
(1.01135 0 -0.17434)
(-1.36605 -1.99602e-20 0.206433)
(5.25623 0 -0.945237)
(-6.70196 3.13195e-19 1.36415)
(1.93196 4.93094e-23 -0.542775)
(5.01434 3.66497e-20 -0.825355)
(-8.50269 6.54839e-19 1.63434)
(6.19544 0 -1.4185)
(8.19034 2.25215e-19 -1.57962)
(7.10069 3.5876e-21 -1.39111)
(11.0402 -3.96135e-19 -1.95748)
(-6.62811 0 1.71161)
(-23.0529 -1.10118e-18 4.46095)
(-8.85233 0 1.50392)
(0.142852 0 0.0418977)
(0.142579 0 0.0342777)
(0.138086 2.74596e-22 0.0255644)
(0.127049 0 0.0177459)
(0.111919 -2.48578e-22 0.0116683)
(0.0953476 4.77264e-22 0.00747113)
(0.079128 0 0.00487274)
(0.0641153 -3.95445e-22 0.00341986)
(0.0506228 3.65586e-22 0.00264517)
(0.0387558 3.24019e-22 0.00216165)
(0.0285885 2.97735e-22 0.00172402)
(0.0201919 -2.67262e-22 0.00124092)
(0.0135564 2.40859e-22 0.000746803)
(0.0085042 -4.23832e-22 0.000343415)
(0.00467888 0 0.00013227)
(0.00162576 -3.05736e-22 0.000165806)
(-0.00108554 0 0.000433513)
(-0.0037617 0 0.000876043)
(-0.00654454 0 0.00140745)
(-0.00942308 1.16278e-22 0.00193613)
(-0.0122791 3.41794e-25 0.00238857)
(-0.0149528 6.21207e-25 0.00273231)
(-0.0173179 1.66059e-23 0.00298343)
(-0.0193369 0 0.00318912)
(-0.021065 0 0.00339755)
(-0.0225996 0 0.00363301)
(-0.0240211 -3.32047e-22 0.00389237)
(-0.0253578 1.76946e-24 0.00415551)
(-0.0266001 0 0.00440424)
(-0.0277213 0 0.00462946)
(-0.0287142 0 0.00483749)
(-0.0295906 0 0.00503832)
(-0.0303966 -5.28242e-22 0.00524517)
(-0.0311634 0 0.005455)
(-0.0319226 5.17734e-22 0.00566354)
(-0.0326445 0 0.00585034)
(-0.0333214 0 0.00601481)
(-0.0338965 4.6077e-22 0.00614558)
(-0.0344104 0 0.00626737)
(-0.0348366 0 0.00637505)
(-0.0352854 -3.81301e-22 0.00650285)
(-0.0356977 7.04711e-22 0.00662144)
(-0.0361939 0 0.00676206)
(-0.0366117 5.85835e-22 0.0068691)
(-0.0371145 0 0.0069976)
(-0.0374658 -9.40685e-22 0.00707877)
(-0.0379629 -6.57821e-25 0.00720511)
(-0.0382686 0 0.00727389)
(-0.0388364 0 0.00741584)
(-0.0391477 2.85298e-22 0.00747856)
(-0.0398624 5.06939e-22 0.00764785)
(-0.0402031 -9.26028e-22 0.00770558)
(-0.0411204 0 0.00791367)
(-0.0414865 -4.19266e-22 0.00796672)
(-0.0426504 -4.1512e-22 0.00822602)
(-0.0430137 -4.29121e-22 0.00827143)
(-0.0444681 -4.42878e-22 0.00859571)
(-0.0447951 0 0.00862853)
(-0.0465959 0 0.00903055)
(-0.0468436 -1.04805e-21 0.00904068)
(-0.0490633 -2.16441e-21 0.00953559)
(-0.0491935 -1.14235e-21 0.00951263)
(-0.0519218 1.70342e-24 0.0101181)
(-0.0518926 1.20689e-21 0.010049)
(-0.0552104 1.2028e-21 0.0107818)
(-0.0549804 0 0.0106546)
(-0.0589535 0 0.0115303)
(-0.0585002 2.48798e-21 0.011337)
(-0.0631748 4.81029e-21 0.0123672)
(-0.062505 0 0.0121045)
(-0.0678731 2.35668e-21 0.0132903)
(-0.06703 2.42137e-21 0.0129609)
(-0.072956 2.30968e-21 0.0142789)
(-0.0720285 4.78576e-21 0.0138947)
(-0.0782046 0 0.0152877)
(-0.077357 0 0.0148768)
(-0.083274 4.56966e-21 0.0162472)
(-0.0827409 -9.65079e-21 0.0158571)
(-0.0876838 -4.55455e-21 0.0170685)
(-0.0876923 0 0.0167574)
(-0.0908818 0 0.0176546)
(-0.0914983 0 0.0174548)
(-0.092519 0 0.017923)
(-0.0932334 0 0.0177565)
(-0.0928581 0 0.01787)
(-0.09126 -4.59067e-21 0.0173588)
(-0.093432 -2.11494e-24 0.0177634)
(-0.0816669 3.56287e-21 0.0156014)
(-0.098802 0 0.0185466)
(-0.0564458 1.93014e-21 0.0108923)
(-0.115793 -5.97348e-22 0.021517)
(-0.00706848 0 0.00133088)
(-0.145235 3.34901e-21 0.0273351)
(0.0559602 2.43501e-21 -0.0113021)
(-0.172152 0 0.0330946)
(0.117102 0 -0.0249015)
(-0.135788 0 0.0305284)
(-0.0241516 1.18615e-20 -0.00654971)
(0.393906 0 -0.0650068)
(-0.660654 0 0.108816)
(2.15885 4.3898e-20 -0.4087)
(-1.78334 1.06674e-19 0.478033)
(-1.90453 0 0.200307)
(5.56125 0 -1.07372)
(-3.15667 0 0.766468)
(0.686448 0 -0.243153)
(1.3012 0 -0.206585)
(-1.76254 -3.98703e-22 0.226473)
(7.03605 0 -1.22677)
(-9.11389 -2.93081e-19 1.89063)
(3.16766 -6.71839e-19 -0.854966)
(6.34526 0 -0.936323)
(-11.2275 2.12194e-21 2.14718)
(9.15071 0 -2.2027)
(10.8512 1.57911e-21 -2.09064)
(9.42743 0 -1.86359)
(13.7748 3.7038e-19 -2.31071)
(-10.2949 0 2.56317)
(-30.4761 -1.03625e-18 5.91331)
(-10.7616 0 1.6942)
(0.136697 0 0.0431909)
(0.137274 0 0.0373481)
(0.136795 0 0.0308788)
(0.132085 0 0.0246286)
(0.12386 2.34602e-22 0.0192687)
(0.113148 -8.94687e-24 0.0149821)
(0.100824 0 0.0116985)
(0.0875549 3.73175e-22 0.00922888)
(0.0739503 0 0.00733063)
(0.0606261 -6.04637e-22 0.00575462)
(0.048185 0 0.00431183)
(0.0371488 2.52281e-22 0.00293889)
(0.0278525 0 0.00170624)
(0.0203484 4.00129e-22 0.000758022)
(0.0143915 -1.72034e-22 0.000221613)
(0.00953226 2.89004e-22 0.000139268)
(0.00527504 -2.36418e-22 0.000454006)
(0.00122629 -1.88698e-22 0.00104051)
(-0.00282651 0 0.00174738)
(-0.00691248 -1.09792e-22 0.00243128)
(-0.0109256 -7.61936e-23 0.00298813)
(-0.0146944 -9.03633e-23 0.00338025)
(-0.0180638 -1.56789e-23 0.00364212)
(-0.0209687 0 0.00385138)
(-0.0234621 0 0.00408161)
(-0.0256659 0 0.00436486)
(-0.0276927 1.55828e-22 0.00468939)
(-0.0295894 1.86134e-22 0.00502046)
(-0.0313503 0 0.00533088)
(-0.0329451 0 0.00561053)
(-0.0343684 -2.3759e-22 0.00587187)
(-0.0356345 0 0.00613053)
(-0.0367992 8.96846e-25 0.00640339)
(-0.0378976 4.94816e-22 0.00668254)
(-0.0389706 -4.86801e-22 0.00695829)
(-0.0399812 0 0.00720094)
(-0.0409264 0 0.00741137)
(-0.0417367 -4.34883e-22 0.00757781)
(-0.0424709 0 0.00773758)
(-0.0430934 0 0.00788445)
(-0.0437468 3.59819e-22 0.00806288)
(-0.0443458 -6.64968e-22 0.00822917)
(-0.0450488 0 0.00842336)
(-0.0456421 -5.52725e-22 0.00856978)
(-0.0463488 0 0.00874546)
(-0.0468586 4.44014e-22 0.0088589)
(-0.0475673 3.92932e-22 0.00903655)
(-0.0480255 0 0.00913832)
(-0.0488332 3.04732e-22 0.0093407)
(-0.0492992 -2.69053e-22 0.00943595)
(-0.0502971 -9.56875e-22 0.00967523)
(-0.0507953 4.36845e-22 0.00976251)
(-0.0520536 -4.06415e-22 0.0100523)
(-0.0525785 -4.4245e-26 0.0101312)
(-0.0541581 0 0.0104882)
(-0.054678 4.04466e-22 0.0105554)
(-0.0566439 4.17391e-22 0.0109995)
(-0.0571215 -4.43564e-22 0.0110501)
(-0.0595551 4.6213e-22 0.0116)
(-0.0599416 9.87417e-22 0.0116221)
(-0.062944 1.01857e-21 0.0122997)
(-0.0631927 -1.07238e-21 0.0122799)
(-0.066884 1.08968e-21 0.0131091)
(-0.066942 0 0.0130297)
(-0.071431 0 0.0140337)
(-0.0712464 1.16473e-21 0.0138779)
(-0.0766232 0 0.0150788)
(-0.0761688 0 0.0148356)
(-0.0824966 -2.26279e-21 0.0162501)
(-0.0817827 0 0.0159139)
(-0.0890531 -2.21729e-21 0.0175451)
(-0.0881375 -4.55467e-21 0.0171166)
(-0.0961771 0 0.0189355)
(-0.0951795 -2.25001e-21 0.0184284)
(-0.103592 0 0.0203624)
(-0.102731 0 0.0198115)
(-0.110856 -4.29294e-21 0.021735)
(-0.110444 4.53456e-21 0.0212021)
(-0.11736 1.35075e-24 0.022937)
(-0.117709 0 0.0225028)
(-0.122415 0 0.0238458)
(-0.123627 0 0.0235649)
(-0.125571 -3.06022e-21 0.0243564)
(-0.126956 2.81748e-21 0.0241435)
(-0.127082 0 0.0244434)
(-0.125491 8.62352e-21 0.0238399)
(-0.128799 3.31732e-21 0.024398)
(-0.114188 -6.69073e-21 0.02181)
(-0.136509 -1.76712e-21 0.0253745)
(-0.082674 -3.63001e-21 0.0160611)
(-0.159166 0 0.0291154)
(-0.0196436 0 0.00392607)
(-0.198805 -3.1402e-21 0.0369031)
(0.0622825 -2.28281e-21 -0.0126393)
(-0.236101 1.18484e-20 0.0450033)
(0.143389 0 -0.0313912)
(-0.196462 0 0.0452108)
(-0.0189778 -1.11131e-20 -0.0162537)
(0.459912 -4.99253e-21 -0.0691734)
(-0.796544 0 0.104532)
(2.63056 -4.11111e-20 -0.488046)
(-2.33809 -9.98912e-20 0.694742)
(-1.993 0 0.0895671)
(6.74942 0 -1.2888)
(-4.25245 0 1.06568)
(1.23549 0 -0.428435)
(1.48672 0 -0.20482)
(-2.04657 1.78483e-20 0.202039)
(8.58282 0 -1.43587)
(-11.2941 0 2.37746)
(4.55534 0 -1.46221)
(7.29238 -2.46448e-20 -0.923262)
(-13.4527 -2.89131e-19 2.53712)
(12.1919 0 -3.07573)
(13.069 -1.98376e-19 -2.50603)
(11.411 0 -2.26316)
(15.6149 3.38545e-19 -2.41969)
(-14.2074 0 4.18106)
(-36.8195 9.68411e-19 7.10684)
(-11.7174 0 1.61529)
(0.131332 -2.19988e-22 0.0450044)
(0.132122 -2.23703e-22 0.0402424)
(0.132421 2.17436e-22 0.0348418)
(0.130297 2.10583e-22 0.0295977)
(0.126176 0 0.0249738)
(0.120346 -2.00063e-22 0.0210885)
(0.112893 0 0.0178694)
(0.103814 3.26913e-22 0.0151485)
(0.0932516 2.98533e-22 0.0127199)
(0.081595 5.54799e-22 0.0103916)
(0.0694633 -2.50971e-22 0.00804501)
(0.057597 2.30348e-22 0.00569985)
(0.0466821 0 0.00352724)
(0.0371627 0 0.00177927)
(0.0291297 1.62173e-22 0.000667942)
(0.0223448 -6.42774e-25 0.000265848)
(0.0163844 1.00084e-24 0.000484255)
(0.0108265 9.75527e-25 0.00112471)
(0.00538952 0 0.00195355)
(-1.92566e-05 0 0.00276004)
(-0.00533405 0 0.0033982)
(-0.0103926 8.54121e-23 0.00381666)
(-0.0150109 1.57751e-23 0.00406368)
(-0.0190687 0 0.00424935)
(-0.0225795 0 0.00447987)
(-0.0256707 -1.0762e-22 0.00480052)
(-0.0284936 0 0.00519012)
(-0.0311284 0 0.0055941)
(-0.0335822 0 0.00597216)
(-0.0358209 0 0.00631195)
(-0.0378369 1.37571e-24 0.00663289)
(-0.0396421 0 0.00695677)
(-0.0412997 1.01708e-24 0.00730446)
(-0.0428482 -4.66436e-22 0.00766236)
(-0.0443425 1.35992e-24 0.00801493)
(-0.0457432 0 0.00832216)
(-0.0470567 0 0.00858711)
(-0.0481986 0 0.0087977)
(-0.0492463 0 0.0090057)
(-0.0501497 0 0.00920299)
(-0.0510879 0 0.00944507)
(-0.051946 0 0.00967105)
(-0.052928 5.74161e-22 0.00993113)
(-0.0537623 5.21558e-22 0.0101269)
(-0.0547419 0 0.0103611)
(-0.0554709 4.19254e-22 0.0105165)
(-0.0564576 0 0.0107581)
(-0.0571244 0 0.0109031)
(-0.0582368 -5.74528e-22 0.0111798)
(-0.0589089 0 0.0113176)
(-0.0602543 4.50953e-22 0.0116416)
(-0.0609565 0 0.0117676)
(-0.0626212 7.65692e-22 0.0121546)
(-0.0633471 -6.75272e-26 0.0122675)
(-0.0654109 0 0.0127387)
(-0.066126 0 0.012835)
(-0.0686773 0 0.0134171)
(-0.069341 8.34095e-22 0.0134915)
(-0.0724889 -8.68821e-22 0.0142098)
(-0.0730471 -9.25177e-22 0.014249)
(-0.0769244 -9.54309e-22 0.0151327)
(-0.0773219 2.01578e-21 0.01512)
(-0.0820815 1.02135e-21 0.0162002)
(-0.0822548 0 0.0161125)
(-0.0880372 0 0.0174196)
(-0.0879262 -1.4936e-24 0.0172356)
(-0.09485 0 0.0187995)
(-0.0944247 0 0.0185046)
(-0.102575 -2.12368e-21 0.0203488)
(-0.101852 0 0.0199346)
(-0.111223 0 0.0220651)
(-0.110278 4.27825e-21 0.0215297)
(-0.120664 -2.03878e-21 0.0239134)
(-0.119651 0 0.0232714)
(-0.130571 0 0.0258217)
(-0.129768 0 0.0251145)
(-0.140413 4.03175e-21 0.0276781)
(-0.140214 0 0.026982)
(-0.149453 8.0336e-21 0.0293387)
(-0.15026 -4.13766e-21 0.0287582)
(-0.156868 0 0.0306529)
(-0.158813 0 0.0302678)
(-0.162093 2.87168e-21 0.0314884)
(-0.164298 2.18624e-24 0.0312142)
(-0.165352 2.04684e-21 0.0317915)
(-0.163919 -4.04669e-21 0.0311076)
(-0.168768 3.11741e-21 0.0318593)
(-0.151482 3.13886e-21 0.0289559)
(-0.179262 1.6569e-21 0.0329883)
(-0.114226 -8.37568e-24 0.0223252)
(-0.207927 0 0.0374322)
(-0.037938 -3.8213e-22 0.00772959)
(-0.258424 0 0.04727)
(0.063298 0 -0.0129005)
(-0.307282 -1.10996e-20 0.0579681)
(0.16583 0 -0.0373813)
(-0.267719 0 0.0622613)
(-0.00866267 0 -0.0292862)
(0.501367 4.67494e-21 -0.0665671)
(-0.908883 0 0.101889)
(3.02546 -3.90446e-20 -0.546928)
(-2.89043 0 0.838277)
(-1.91025 0 -0.0377818)
(7.70899 0 -1.44503)
(-5.32587 0 1.37737)
(1.88405 0 -0.656575)
(1.54625 9.72514e-21 -0.166146)
(-2.20617 1.73827e-20 0.135172)
(9.87446 8.80636e-20 -1.56737)
(-13.2021 0 2.82387)
(6.07653 0 -2.11592)
(7.88779 4.35462e-20 -0.784991)
(-15.123 0 2.79525)
(15.1784 6.16492e-19 -4.00894)
(14.796 0 -2.81097)
(13.017 7.93744e-21 -2.58731)
(16.648 -3.16375e-19 -2.28851)
(-18.5146 0 4.93015)
(-42.0693 9.12692e-19 8.06241)
(-11.704 0 1.27954)
(0.127739 2.07184e-22 0.0464028)
(0.128048 4.02457e-22 0.0426618)
(0.128011 -2.04822e-22 0.0380632)
(0.126638 -1.13493e-23 0.0334337)
(0.12429 1.80824e-22 0.0292246)
(0.121206 0 0.0256191)
(0.117251 0 0.0225951)
(0.112073 -3.07812e-22 0.0199799)
(0.105389 -5.50467e-22 0.0175293)
(0.0971437 -9.71702e-24 0.0149955)
(0.0875682 2.36268e-22 0.0122264)
(0.0771587 -2.1685e-22 0.00924325)
(0.0665766 1.92441e-22 0.00627279)
(0.0564656 0 0.00367996)
(0.0472567 0 0.00181573)
(0.0390581 -1.27624e-22 0.000861517)
(0.0316886 4.15703e-22 0.000764447)
(0.0248235 3.31399e-22 0.00128834)
(0.0181672 0 0.00212225)
(0.0115651 0 0.00297742)
(0.0050207 0 0.00365153)
(-0.0013425 -4.63876e-25 0.00406388)
(-0.00733037 -2.97328e-23 0.00426173)
(-0.012751 -8.54595e-24 0.00438193)
(-0.0175263 -6.05876e-23 0.00457127)
(-0.0217404 2.00891e-22 0.00490083)
(-0.0255702 -1.32885e-22 0.00534456)
(-0.0291437 -1.60088e-22 0.00582264)
(-0.0324956 -1.81304e-22 0.00627413)
(-0.0355887 0 0.00668043)
(-0.0384067 2.09593e-22 0.00706773)
(-0.0409509 -2.14989e-22 0.00746446)
(-0.0432869 2.19217e-22 0.00789635)
(-0.0454532 4.35603e-22 0.00834403)
(-0.047524 8.59784e-22 0.00878631)
(-0.0494623 0 0.00917146)
(-0.0512911 0 0.00950462)
(-0.0529061 3.84015e-22 0.00977217)
(-0.0544023 0 0.0100422)
(-0.0557067 -3.41953e-22 0.0103038)
(-0.0570419 -3.18859e-22 0.0106254)
(-0.0582591 0 0.010926)
(-0.0596201 -1.08067e-21 0.0112677)
(-0.0607857 -4.90819e-22 0.0115258)
(-0.0621315 0 0.0118329)
(-0.0631596 -3.94502e-22 0.0120418)
(-0.0645094 -3.49538e-22 0.0123624)
(-0.0654533 0 0.0125622)
(-0.0669495 5.41349e-22 0.0129291)
(-0.0678863 -2.39632e-22 0.0131199)
(-0.069655 -4.25573e-22 0.0135448)
(-0.0706108 0 0.0137186)
(-0.0727564 2.96607e-25 0.01422)
(-0.0737247 7.00264e-22 0.0143743)
(-0.0763489 0 0.0149781)
(-0.0772934 0 0.0151092)
(-0.0805109 -3.67384e-22 0.0158496)
(-0.0813885 -3.91691e-22 0.015952)
(-0.0853404 8.14785e-22 0.0168617)
(-0.0860924 8.69694e-22 0.01692)
(-0.090946 8.97e-22 0.0180365)
(-0.0915094 -9.46297e-22 0.0180309)
(-0.0974543 -1.91748e-21 0.0193932)
(-0.0977561 0 0.0192948)
(-0.104969 0 0.0209425)
(-0.104943 -2.05371e-21 0.0207249)
(-0.113577 0 0.0226972)
(-0.113192 0 0.0223421)
(-0.123358 1.99461e-21 0.0246709)
(-0.12264 0 0.0241663)
(-0.134343 -1.95298e-21 0.0268625)
(-0.133389 -1.22497e-24 0.0262029)
(-0.146396 1.91404e-21 0.029231)
(-0.1454 0 0.0284308)
(-0.15915 0 0.0316921)
(-0.158453 0 0.0307984)
(-0.171993 3.78124e-21 0.0341131)
(-0.172076 0 0.0332166)
(-0.18407 -3.76787e-21 0.0363221)
(-0.185423 7.76161e-21 0.0355523)
(-0.19442 0 0.0381384)
(-0.197201 0 0.0376042)
(-0.202354 0 0.0393969)
(-0.205483 1.90373e-24 0.0390232)
(-0.208039 -1.91888e-21 0.0400065)
(-0.206858 -3.80346e-21 0.0392341)
(-0.213816 -2.92181e-21 0.0402507)
(-0.193969 2.95025e-21 0.0371015)
(-0.227621 0 0.0415377)
(-0.151653 1.6058e-21 0.0298087)
(-0.262695 0 0.0465606)
(-0.0626744 3.57946e-22 0.0129123)
(-0.324678 0 0.0585117)
(0.0581902 0 -0.0119138)
(-0.386352 0 0.0721148)
(0.183707 4.62858e-21 -0.0428067)
(-0.35042 1.35558e-20 0.0821066)
(0.00610134 0 -0.0459669)
(0.514961 -4.24619e-21 -0.0561601)
(-1.00292 2.97392e-20 0.0798586)
(3.33861 3.65325e-20 -0.583462)
(-3.3826 8.88626e-20 1.08885)
(-1.73164 0 -0.395041)
(8.42472 0 -1.53673)
(-6.3125 0 1.68418)
(2.58965 0 -0.920524)
(1.47042 -9.09631e-21 -0.0857894)
(-2.24229 1.00682e-22 0.00865153)
(10.9 -1.65457e-19 -1.6203)
(-14.7898 0 3.21115)
(7.69641 0 -2.59111)
(8.15849 -1.91671e-20 -0.527982)
(-16.2176 0 2.90741)
(17.967 -5.76129e-19 -4.96738)
(16.0043 0 -2.9953)
(14.2228 -1.65371e-20 -2.82472)
(16.9203 0 -1.92517)
(-22.6122 0 7.07634)
(-46.1993 -8.52595e-19 8.73899)
(-10.7324 0 0.672574)
(0.125392 0 0.0481217)
(0.124743 -1.80415e-22 0.0447672)
(0.124061 0 0.0406855)
(0.12282 -1.75955e-22 0.0364592)
(0.121169 -3.31116e-22 0.0324754)
(0.119371 0 0.0289905)
(0.117312 1.43082e-22 0.0260606)
(0.114617 0 0.0235529)
(0.110897 1.22253e-23 0.0212285)
(0.105884 -4.54883e-22 0.0188001)
(0.0994887 0 0.0160452)
(0.0918245 0 0.0129071)
(0.083229 -1.80978e-22 0.00956001)
(0.0742027 0 0.0063843)
(0.0652604 0 0.0038294)
(0.0567602 0 0.00221842)
(0.0488074 -1.94484e-22 0.0016129)
(0.0412828 -1.55006e-22 0.00181738)
(0.0339635 -1.17865e-22 0.00249057)
(0.0266665 0 0.00327859)
(0.0193272 0 0.00391653)
(0.0119999 -3.73359e-23 0.00427838)
(0.00484259 1.39908e-23 0.00438682)
(-0.00190484 8.04537e-24 0.00438602)
(-0.00803664 5.69959e-23 0.00446523)
(-0.0135182 -1.85739e-22 0.00474135)
(-0.0184997 1.7062e-24 0.00519975)
(-0.0231532 1.50568e-22 0.00573434)
(-0.0275601 1.70517e-22 0.00625296)
(-0.0316881 0 0.00672229)
(-0.0355059 0 0.00717317)
(-0.0389908 2.02184e-22 0.00764101)
(-0.0422021 0 0.00815813)
(-0.0451704 -4.09637e-22 0.00870007)
(-0.0479914 -4.03492e-22 0.00924125)
(-0.0506339 3.91112e-22 0.00971627)
(-0.0531471 0 0.0101312)
(-0.0554014 -3.61081e-22 0.0104679)
(-0.0575076 -3.41093e-22 0.0108127)
(-0.0593567 6.37987e-25 0.011151)
(-0.0612228 5.99131e-22 0.0115676)
(-0.0629178 0 0.0119577)
(-0.0647782 5.0795e-22 0.0123983)
(-0.0663839 0 0.0127326)
(-0.0682099 0 0.0131289)
(-0.069633 0 0.0134035)
(-0.071449 -1.58419e-25 0.0138198)
(-0.0727497 0 0.0140859)
(-0.0747237 -2.54568e-22 0.0145607)
(-0.0759918 4.50698e-22 0.0148148)
(-0.0782729 3.99918e-22 0.0153591)
(-0.0795368 0 0.0155893)
(-0.0822502 -3.38758e-22 0.0162244)
(-0.0835037 -6.58024e-22 0.0164267)
(-0.0867768 0 0.0171843)
(-0.0879828 0 0.0173545)
(-0.0919602 3.45105e-22 0.0182769)
(-0.0930741 3.66165e-22 0.0184092)
(-0.0979329 -3.82139e-22 0.0195373)
(-0.0988923 -8.12383e-22 0.0196143)
(-0.104839 0 0.0209948)
(-0.105574 0 0.0209928)
(-0.112839 2.36772e-24 0.0226744)
(-0.113268 -9.34898e-22 0.0225585)
(-0.122071 0 0.0245911)
(-0.122123 9.63117e-22 0.0243294)
(-0.132657 0 0.0267641)
(-0.132303 0 0.0263338)
(-0.144714 0 0.0292129)
(-0.143991 0 0.0285978)
(-0.1583 1.73293e-24 0.0319391)
(-0.157331 -1.35323e-24 0.0311289)
(-0.173285 -1.79341e-21 0.0348972)
(-0.172308 0 0.0339045)
(-0.189278 -1.76982e-21 0.0379911)
(-0.188701 0 0.0368679)
(-0.205599 -3.54569e-21 0.0410685)
(-0.205991 3.74174e-21 0.0399191)
(-0.221282 -3.53058e-21 0.0439292)
(-0.223221 -3.63741e-21 0.0429095)
(-0.235231 0 0.0463603)
(-0.238891 3.12473e-21 0.0456112)
(-0.246621 0 0.0481573)
(-0.250708 -2.32617e-21 0.0476225)
(-0.255536 -1.80282e-21 0.0491815)
(-0.254617 3.56314e-21 0.0482872)
(-0.26447 0 0.0496811)
(-0.242083 -5.53174e-21 0.046344)
(-0.282244 0 0.0511285)
(-0.195557 1.51913e-21 0.0385843)
(-0.324212 0 0.0566135)
(-0.0946417 3.56976e-22 0.0196963)
(-0.398314 0 0.0706912)
(0.0460194 -1.79431e-21 -0.00946921)
(-0.474199 9.69222e-21 0.087521)
(0.19614 -4.33131e-21 -0.0474559)
(-0.445839 -1.26843e-20 0.104693)
(0.0244688 0 -0.0658779)
(0.497829 7.88953e-21 -0.0376376)
(-1.07668 -5.57973e-20 0.0532106)
(3.57375 0 -0.597448)
(-3.85511 -8.31101e-20 1.18238)
(-1.37509 0 -0.281227)
(8.90735 0 -1.56145)
(-7.15456 2.50501e-19 1.97348)
(3.30364 0 -1.21013)
(1.26276 0 0.0348039)
(-2.15375 -1.5279e-20 -0.132075)
(11.6607 1.56175e-19 -1.59482)
(-16.0413 -2.26953e-19 3.5347)
(9.24978 0 -3.3074)
(8.1651 0 -0.163513)