/*--------------------------------*- C++ -*----------------------------------*\
| =========                 |                                                 |
| \\      /  F ield         | OpenFOAM: The Open Source CFD Toolbox           |
|  \\    /   O peration     | Version:  2412                                  |
|   \\  /    A nd           | Website:  www.openfoam.com                      |
|    \\/     M anipulation  |                                                 |
\*---------------------------------------------------------------------------*/
FoamFile
{
    version     2.0;
    format      ascii;
    arch        "LSB;label=32;scalar=64";
    class       volVectorField;
    location    "1.465";
    object      U_0;
}
// * * * * * * * * * * * * * * * * * * * * * * * * * * * * * * * * * * * * * //

dimensions      [0 1 -1 0 0 0 0];

internalField   nonuniform List<vector> 
12600
(
(18.7505 1.24045e-21 2.09708)
(11.6251 1.60937e-20 0.451901)
(7.35397 1.89191e-20 -0.47774)
(5.09086 0 -0.709361)
(3.97713 1.70921e-20 -0.682453)
(3.33598 1.59128e-20 -0.607696)
(2.89442 0 -0.539961)
(2.56295 0 -0.484449)
(2.30313 -4.77882e-20 -0.438936)
(2.09282 0 -0.401151)
(1.9183 2.00305e-20 -0.369243)
(1.77063 1.83343e-20 -0.341882)
(1.6437 -1.67898e-20 -0.318118)
(1.53316 0 -0.297254)
(1.43584 -1.40607e-20 -0.278765)
(1.34934 0 -0.262246)
(1.27183 4.72043e-20 -0.247383)
(1.20188 0 -0.233926)
(1.13837 -1.97358e-20 -0.221671)
(1.08038 -1.80394e-20 -0.210457)
(1.02717 1.64573e-20 -0.200148)
(0.978129 5.34659e-24 -0.190632)
(0.93275 0 -0.181815)
(0.890607 -2.47722e-20 -0.173618)
(0.85134 0 -0.165973)
(0.814642 0 -0.158824)
(0.780249 -1.8311e-20 -0.15212)
(0.747934 0 -0.145818)
(0.717499 4.15102e-24 -0.13988)
(0.688771 1.31771e-20 -0.134274)
(0.661597 1.17106e-20 -0.128969)
(0.635844 1.03526e-20 -0.123941)
(0.611392 -9.09545e-21 -0.119167)
(0.588136 -1.58642e-20 -0.114626)
(0.565981 -1.37121e-20 -0.1103)
(0.544842 1.17118e-20 -0.106172)
(0.524642 0 -0.102228)
(0.505312 -8.18766e-21 -0.0984547)
(0.486789 0 -0.094839)
(0.469017 5.17967e-21 -0.0913701)
(0.451942 0 -0.0880381)
(0.435518 1.76276e-23 -0.0848334)
(0.4197 0 -0.0817479)
(0.404448 1.60399e-23 -0.0787732)
(0.389726 -9.44436e-22 -0.0759026)
(0.375497 2.65326e-21 -0.0731288)
(0.361732 -4.24048e-21 -0.0704462)
(0.348399 0 -0.0678483)
(0.335473 0 -0.0653305)
(0.322924 -8.15273e-21 -0.0628869)
(0.310733 -1.84355e-20 -0.0605136)
(0.298872 -2.03527e-20 -0.0582052)
(0.287327 1.95393e-23 -0.0559589)
(0.276069 -2.35879e-20 -0.0537691)
(0.265088 0 -0.0516339)
(0.254357 2.61705e-20 -0.0495479)
(0.243871 2.72232e-20 -0.0475101)
(0.233599 2.81218e-20 -0.0455146)
(0.223544 0 -0.0435618)
(0.213673 0 -0.0416451)
(0.203993 0 -0.0397663)
(0.194468 -6.11606e-20 -0.037918)
(0.185114 0 -0.0361033)
(0.175889 0 -0.0343141)
(0.166816 1.25437e-19 -0.032555)
(0.15785 0 -0.0308169)
(0.149021 0 -0.029106)
(0.14028 0 -0.0274123)
(0.131666 -1.25323e-19 -0.0257435)
(0.123124 1.24671e-19 -0.0240891)
(0.114701 1.23808e-19 -0.0224579)
(0.106342 2.35082e-23 -0.0208394)
(0.0980982 -1.21494e-19 -0.0192434)
(0.0899189 0 -0.0176599)
(0.0818545 1.18497e-19 -0.0160988)
(0.0738659 0 -0.0145524)
(0.0659965 0 -0.0130289)
(0.0582263 0 -0.0115246)
(0.0505854 2.86208e-23 -0.0100452)
(0.0430781 2.17282e-19 -0.00859139)
(0.0357206 2.12676e-19 -0.00716637)
(0.028534 -2.07881e-19 -0.00577403)
(0.0215413 -2.02941e-19 -0.00441894)
(0.0147377 0 -0.00309991)
(0.00822609 0 -0.00183706)
(0.00185211 3.74734e-19 -0.000600189)
(-0.00401374 -7.27784e-19 0.000538685)
(-0.00995808 7.05819e-19 0.00169317)
(-0.0149537 3.41833e-19 0.00266467)
(-0.0205377 0 0.00375045)
(-0.0244079 -6.38761e-19 0.00450553)
(-0.0297265 3.0802e-19 0.00554011)
(-0.0323307 -2.96814e-19 0.00605171)
(-0.0372997 5.70954e-19 0.00701833)
(-0.0389087 0 0.00733857)
(-0.042953 0 0.00812633)
(-0.0445596 0 0.0084443)
(-0.0467978 0 0.00888255)
(-0.0480225 0 0.00912533)
(-0.0519795 0 0.00987251)
(-0.0450713 -4.21073e-19 0.00858765)
(-0.0655762 -7.97367e-19 0.0124945)
(-0.0382551 -7.70926e-19 0.00721183)
(-0.0596142 0 0.0114686)
(-0.0617725 0 0.0116793)
(-0.0440767 0 0.00844395)
(-0.0707324 -6.16519e-19 0.0135197)
(-0.0460238 -1.18672e-18 0.00872087)
(-0.0609726 5.52041e-19 0.0118574)
(-0.0848173 0 0.0160468)
(-0.026076 -1.01917e-18 0.00505885)
(-0.0813299 0 0.0157748)
(-0.0914514 -9.06178e-19 0.0170938)
(-0.00140018 8.40802e-19 0.00065218)
(-0.154367 -7.58455e-19 0.0297454)
(-0.0616105 -7.48613e-19 0.0121136)
(-0.255615 6.46333e-19 0.0494127)
(-0.365451 -1.56452e-22 0.0694344)
(-0.310567 6.83216e-19 0.0583103)
(-0.127954 0 0.0234235)
(29.1636 -1.25224e-21 4.02987)
(25.1168 0 1.86079)
(20.2514 -1.91482e-20 -0.212627)
(16.0822 0 -1.21199)
(13.1207 -1.73192e-20 -1.50776)
(11.0766 -3.0399e-20 -1.51876)
(9.60339 -1.40673e-20 -1.44108)
(8.49069 0 -1.34338)
(7.6173 3.55891e-22 -1.24792)
(6.91036 -2.1853e-20 -1.16079)
(6.32418 2.00583e-20 -1.08266)
(5.82871 1.84083e-20 -1.01281)
(5.40333 -1.68916e-20 -0.950214)
(5.03337 1.54964e-20 -0.893908)
(4.70805 2.84797e-20 -0.843026)
(4.4193 0 -0.796834)
(4.16093 -6.44383e-23 -0.754713)
(3.92808 2.18517e-20 -0.716139)
(3.71694 2.0023e-20 -0.680674)
(3.5244 0 -0.647946)
(3.34797 0 -0.617639)
(3.18557 1.52019e-20 -0.589485)
(3.03549 0 -0.563252)
(2.89629 1.25578e-20 -0.538743)
(2.76675 -2.27546e-20 -0.515784)
(2.64582 0 -0.494226)
(2.53263 1.85595e-20 -0.473938)
(2.42639 0 -0.454805)
(2.32645 -1.49512e-20 -0.436725)
(2.23222 -2.66957e-20 -0.41961)
(2.14318 -2.37206e-20 -0.403379)
(2.05889 -1.04787e-20 -0.38796)
(1.97895 9.20371e-21 -0.37329)
(1.90299 3.21147e-20 -0.359312)
(1.83071 2.77522e-20 -0.345973)
(1.76181 0 -0.333228)
(1.69603 0 -0.321033)
(1.63316 -1.74274e-23 -0.30935)
(1.57297 0 -0.298143)
(1.51527 -5.22909e-21 -0.287381)
(1.45989 0 -0.277033)
(1.40668 -5.30541e-21 -0.267073)
(1.35548 0 -0.257475)
(1.30615 -9.63966e-22 -0.248216)
(1.25859 0 -0.239275)
(1.21266 -2.67167e-21 -0.23063)
(1.16828 0 -0.222266)
(1.12532 0 -0.214162)
(1.08372 6.97818e-21 -0.206305)
(1.04336 0 -0.198676)
(1.0042 0 -0.191265)
(0.966125 0 -0.184054)
(0.929098 2.21222e-20 -0.177036)
(0.893025 4.7265e-20 -0.170192)
(0.857872 0 -0.163519)
(0.823548 0 -0.156998)
(0.790035 -2.71989e-20 -0.150627)
(0.757238 -2.81205e-20 -0.144388)
(0.725156 0 -0.138282)
(0.693687 0 -0.132288)
(0.662851 0 -0.126413)
(0.632533 0 -0.120633)
(0.602778 -6.15741e-20 -0.114958)
(0.573455 6.20439e-20 -0.109363)
(0.544635 -1.24724e-19 -0.103862)
(0.516172 0 -0.0984261)
(0.488163 0 -0.0930762)
(0.460445 0 -0.087779)
(0.433141 4.75372e-23 -0.0825608)
(0.406079 -1.23479e-19 -0.0773861)
(0.379403 -1.22512e-19 -0.0722853)
(0.352938 2.42651e-19 -0.0672225)
(0.326842 3.60064e-23 -0.0622307)
(0.300952 -1.18447e-19 -0.0572766)
(0.275428 -1.16811e-19 -0.0523929)
(0.250139 0 -0.047553)
(0.225225 0 -0.0427852)
(0.200613 0 -0.038075)
(0.176405 2.17626e-19 -0.033442)
(0.152599 0 -0.0288868)
(0.129258 0 -0.0244199)
(0.10643 2.03457e-19 -0.0200537)
(0.0842004 1.9841e-19 -0.0157999)
(0.0625408 0 -0.0116596)
(0.0417759 0 -0.00768695)
(0.0214312 0 -0.00380121)
(0.00263567 7.08381e-19 -0.000206115)
(-0.0163846 -4.26013e-23 0.00342367)
(-0.0325183 3.31964e-19 0.00650769)
(-0.0504176 -3.20704e-19 0.00992173)
(-0.0630881 6.19028e-19 0.0123391)
(-0.0801633 2.98156e-19 0.0155988)
(-0.0888858 5.74055e-19 0.0172527)
(-0.104922 0 0.0203221)
(-0.110427 0 0.0213503)
(-0.123754 0 0.0239097)
(-0.128962 0 0.0248842)
(-0.136851 4.6487e-19 0.0263657)
(-0.141072 0 0.0272331)
(-0.153239 0 0.0294085)
(-0.13477 -4.03761e-19 0.0260933)
(-0.193494 3.81915e-19 0.0371972)
(-0.114066 1.47555e-18 0.0215807)
(-0.181764 -6.87314e-19 0.0355229)
(-0.181357 0 0.0344379)
(-0.135255 0 0.0261003)
(-0.212156 0 0.0409357)
(-0.13895 5.65194e-19 0.0263329)
(-0.189474 -5.25379e-19 0.0372472)
(-0.246724 0 0.046875)
(-0.0873847 1.93664e-18 0.0164962)
(-0.249357 8.66575e-19 0.0493417)
(-0.266966 1.71905e-18 0.0495974)
(-0.0262407 0 0.00609726)
(-0.473973 0 0.0923958)
(-0.203146 -7.08627e-19 0.0403193)
(-0.776054 0 0.154468)
(-1.04845 -6.43989e-19 0.202235)
(-0.876786 -6.44895e-19 0.165001)
(-0.338649 0 0.061653)
(31.9071 0 3.90171)
(31.0913 0 2.82266)
(28.5595 -1.29672e-20 1.02599)
(25.2142 0 -0.38176)
(21.9604 0 -1.22622)
(19.1859 1.51124e-20 -1.65119)
(16.9266 1.33219e-20 -1.8195)
(15.1008 0 -1.85106)
(13.6127 4.20764e-22 -1.81728)
(12.3821 2.07028e-20 -1.7547)
(11.3484 -3.77969e-20 -1.68084)
(10.4673 -1.74418e-20 -1.60406)
(9.70664 1.14507e-22 -1.52835)
(9.04252 -1.4684e-20 -1.45554)
(8.457 -1.3467e-20 -1.38645)
(7.93636 1.22955e-20 -1.32131)
(7.46992 -2.26198e-20 -1.26012)
(7.04926 -2.07076e-20 -1.20272)
(6.66763 0 -1.14889)
(6.31958 0 -1.09837)
(6.00064 1.5768e-20 -1.05093)
(5.70711 1.4374e-20 -1.00633)
(5.43593 0 -0.964338)
(5.18448 0 -0.924746)
(4.95059 2.15613e-20 -0.887364)
(4.73236 0 -0.852018)
(4.52819 -3.51657e-20 -0.818548)
(4.33669 1.58111e-20 -0.78681)
(4.15664 0 -0.756672)
(3.98698 1.26489e-20 -0.728016)
(3.82677 1.12395e-20 -0.700733)
(3.67521 0 -0.674723)
(3.53155 -8.73193e-21 -0.649898)
(3.39516 -1.52181e-20 -0.626174)
(3.26544 1.22145e-23 -0.603477)
(3.14189 0 -0.581737)
(3.02402 0 -0.560892)
(2.91143 7.84977e-21 -0.540882)
(2.80372 0 -0.521655)
(2.70054 0 -0.50316)
(2.60159 0 -0.485353)
(2.50656 0 -0.468188)
(2.4152 0 -0.451629)
(2.32725 0 -0.435637)
(2.2425 0 -0.42018)
(2.16073 2.48537e-21 -0.405222)
(2.08175 -3.98463e-21 -0.390737)
(2.00537 0 -0.376693)
(1.93145 -6.60201e-21 -0.363069)
(1.85981 0 -0.349833)
(1.79032 0 -0.336969)
(1.72282 1.92402e-20 -0.324446)
(1.65722 0 -0.312254)
(1.59335 -2.23314e-20 -0.300362)
(1.53116 2.35846e-20 -0.288762)
(1.47048 0 -0.277424)
(1.41127 2.57089e-20 -0.266345)
(1.35336 0 -0.255493)
(1.29676 0 -0.244873)
(1.24127 0 -0.234445)
(1.18693 5.67179e-20 -0.224225)
(1.13354 5.7513e-20 -0.214167)
(1.08117 2.85533e-23 -0.204295)
(1.02959 -1.17147e-19 -0.194558)
(0.97892 2.50424e-23 -0.184988)
(0.928906 0 -0.175529)
(0.879709 0 -0.166221)
(0.831049 -1.17642e-19 -0.157003)
(0.783132 3.82862e-23 -0.147924)
(0.735657 0 -0.138918)
(0.688871 0 -0.130043)
(0.642467 -1.14394e-19 -0.121231)
(0.596717 2.89721e-23 -0.112543)
(0.551333 2.69646e-23 -0.103919)
(0.50659 0 -0.0954165)
(0.462253 0 -0.0869871)
(0.418571 -2.1293e-19 -0.0786828)
(0.3754 2.09007e-19 -0.0704739)
(0.332929 0 -0.062398)
(0.291133 0 -0.0544523)
(0.250137 0 -0.046657)
(0.210003 0 -0.0390322)
(0.170893 0 -0.0315964)
(0.132742 0 -0.0243564)
(0.096116 0 -0.0173943)
(0.0602034 0 -0.0105906)
(0.0269221 -6.6598e-19 -0.00426504)
(-0.0067214 -3.22542e-19 0.00209737)
(-0.0354708 -3.12004e-19 0.00755853)
(-0.0671774 3.01359e-19 0.0135444)
(-0.0900003 -5.81514e-19 0.0178716)
(-0.120282 -2.80056e-19 0.0235945)
(-0.136275 -2.69536e-19 0.0265977)
(-0.164825 0 0.0320242)
(-0.175093 0 0.0338948)
(-0.199194 0 0.0385244)
(-0.20853 0 0.0402027)
(-0.223518 -4.36125e-19 0.0430084)
(-0.231354 0 0.0446796)
(-0.252342 0 0.0482328)
(-0.224388 3.78577e-19 0.0437244)
(-0.319108 0 0.0610173)
(-0.190092 -6.91491e-19 0.0356293)
(-0.307544 6.44092e-19 0.0608247)
(-0.297938 0 0.0557287)
(-0.230787 0 0.0447564)
(-0.354665 0 0.0683452)
(-0.234176 5.29264e-19 0.0439583)
(-0.325379 0 0.0649226)
(-0.403237 -4.67006e-19 0.0751994)
(-0.159435 2.87973e-23 0.0300931)
(-0.423637 -8.11023e-19 0.085491)
(-0.438659 -1.60844e-18 0.0788463)
(-0.07476 0 0.018549)
(-0.806467 6.72032e-19 0.158814)
(-0.364084 6.62834e-19 0.0746666)
(-1.30701 5.71751e-19 0.267168)
(-1.68396 0 0.323182)
(-1.39562 6.03001e-19 0.254112)
(-0.502968 0 0.0847151)
(32.4284 0 2.96037)
(32.9935 0 2.7732)
(32.4389 1.22583e-20 1.72741)
(30.794 0 0.524676)
(28.5384 -1.22969e-20 -0.481776)
(26.1196 2.50106e-20 -1.20567)
(23.7976 0 -1.66934)
(21.6888 -2.18214e-20 -1.93384)
(19.8269 2.09189e-20 -2.0632)
(18.2023 1.89122e-20 -2.10754)
(16.7875 1.77708e-20 -2.10073)
(15.5511 -1.61474e-20 -2.06407)
(14.4648 1.50285e-20 -2.01053)
(13.5041 -2.73899e-20 -1.94795)
(12.6491 0 -1.88105)
(11.8832 -2.31947e-20 -1.81272)
(11.1934 0 -1.7447)
(10.5685 0 -1.67804)
(9.99979 0 -1.61335)
(9.47976 1.62927e-20 -1.55098)
(9.00226 -3.41224e-23 -1.49108)
(8.56214 -2.59418e-23 -1.43372)
(8.15503 1.2354e-20 -1.37886)
(7.77721 0 -1.32646)
(7.42554 0 -1.27642)
(7.09727 0 -1.22864)
(6.79006 3.32444e-20 -1.183)
(6.50186 -5.89904e-24 -1.13941)
(6.23088 0 -1.09774)
(5.97555 0 -1.05788)
(5.73448 0 -1.01974)
(5.50646 0 -0.983209)
(5.2904 1.65169e-20 -0.948198)
(5.08531 0 -0.914616)
(4.89034 -1.24457e-20 -0.882381)
(4.7047 0 -0.851412)
(4.52769 0 -0.821637)
(4.35866 -7.4442e-21 -0.792986)
(4.19705 0 -0.765394)
(4.04232 0 -0.7388)
(3.894 3.51477e-21 -0.713148)
(3.75164 -4.81825e-21 -0.688383)
(3.61485 0 -0.664455)
(3.48325 -9.2836e-22 -0.641316)
(3.3565 0 -0.618924)
(3.23428 -4.67643e-21 -0.597231)
(3.11631 1.89399e-23 -0.576205)
(3.0023 0 -0.555801)
(2.89202 0 -0.53599)
(2.7852 7.25996e-21 -0.516731)
(2.68167 1.64262e-20 -0.498001)
(2.58116 -3.6306e-20 -0.479759)
(2.48354 0 -0.461989)
(2.38857 -2.10322e-20 -0.444649)
(2.29614 -2.22629e-20 -0.427729)
(2.20602 -2.32974e-20 -0.411186)
(2.11813 -2.42209e-20 -0.395018)
(2.03224 0 -0.379175)
(1.94833 0 -0.363668)
(1.86612 -5.25313e-20 -0.348441)
(1.78567 -1.06968e-19 -0.333514)
(1.70666 -5.42446e-20 -0.318823)
(1.62921 3.06374e-23 -0.304401)
(1.55297 5.52175e-20 -0.290177)
(1.47812 5.5472e-20 -0.276195)
(1.40427 0 -0.262375)
(1.33165 0 -0.248775)
(1.25986 1.10864e-19 -0.235306)
(1.1892 2.20697e-19 -0.222039)
(1.11921 0 -0.208878)
(1.05025 1.0874e-19 -0.195907)
(0.981871 1.07673e-19 -0.183027)
(0.914467 1.06479e-19 -0.170328)
(0.847604 2.1017e-19 -0.157718)
(0.78169 0 -0.145286)
(0.716364 0 -0.132955)
(0.651996 2.00372e-19 -0.120806)
(0.588355 -3.9325e-19 -0.10879)
(0.525731 -1.92686e-19 -0.0969666)
(0.464058 0 -0.0853253)
(0.403542 0 -0.0739001)
(0.344238 0 -0.0627161)
(0.286406 0 -0.0518007)
(0.229925 0 -0.0411668)
(0.17563 0 -0.0309228)
(0.122348 -3.22509e-19 -0.0209167)
(0.0728191 4.09573e-23 -0.0115749)
(0.0228 3.02857e-19 -0.00221214)
(-0.0202502 0 0.00590652)
(-0.0674575 2.82872e-19 0.0147162)
(-0.101993 2.72914e-19 0.0212118)
(-0.147128 0 0.0296406)
(-0.171743 -2.52874e-19 0.034214)
(-0.214447 -4.85702e-19 0.0422483)
(-0.230513 0 0.0451133)
(-0.267092 0 0.0521021)
(-0.281192 0 0.0545421)
(-0.304982 -4.08828e-19 0.0589569)
(-0.317099 0 0.061567)
(-0.347758 0 0.0664257)
(-0.312475 3.54724e-19 0.0614621)
(-0.440864 -3.35361e-19 0.0840753)
(-0.265723 0 0.0496324)
(-0.435402 0 0.0870885)
(-0.410154 0 0.075939)
(-0.330361 0 0.0645023)
(-0.496695 0 0.0957722)
(-0.331477 -1.15662e-23 0.0619128)
(-0.467277 0 0.094451)
(-0.553642 4.3701e-19 0.101963)
(-0.242852 -8.48089e-19 0.045878)
(-0.602226 0 0.12366)
(-0.606818 8.17483e-23 0.106299)
(-0.148521 0 0.0371509)
(-1.14819 -1.95168e-24 0.228293)
(-0.543096 0 0.114079)
(-1.8404 -5.34567e-19 0.385353)
(-2.25797 0 0.433654)
(-1.86304 5.6324e-19 0.330371)
(-0.613274 0 0.0948551)
(32.5303 0 2.10854)
(33.2874 0 2.23318)
(33.6335 0 1.75708)
(33.2682 0 0.961881)
(32.244 1.16073e-20 0.118915)
(30.7682 -9.01941e-22 -0.631257)
(29.0466 0 -1.23317)
(27.238 2.05964e-20 -1.67763)
(25.4523 0 -1.98182)
(23.7557 -3.52008e-20 -2.17402)
(22.1806 0 -2.28286)
(20.7371 1.52443e-20 -2.33236)
(19.4228 0 -2.34086)
(18.2288 2.58604e-20 -2.32162)
(17.144 -1.17761e-20 -2.28396)
(16.1568 2.17546e-20 -2.23435)
(15.2562 -1.99101e-20 -2.17722)
(14.4324 -1.82707e-20 -2.11564)
(13.6765 0 -2.05173)
(12.9808 -1.53848e-20 -1.98694)
(12.3387 -1.4051e-20 -1.92226)
(11.7442 -2.55913e-20 -1.85838)
(11.1924 -1.16655e-20 -1.79575)
(10.6788 0 -1.73466)
(10.1996 0 -1.67531)
(9.75134 0 -1.61781)
(9.33119 -1.56903e-20 -1.56219)
(8.93651 -1.41131e-20 -1.50848)
(8.56502 0 -1.45666)
(8.21468 0 -1.40668)
(7.8837 1.00369e-20 -1.35851)
(7.57046 0 -1.31207)
(7.27353 1.43602e-24 -1.26731)
(6.99161 -1.36073e-20 -1.22416)
(6.72356 1.17649e-20 -1.18256)
(6.46832 0 -1.14242)
(6.22494 0 -1.1037)
(5.99256 7.02599e-21 -1.06631)
(5.77041 0 -1.0302)
(5.55776 0 -0.995298)
(5.35397 -3.31676e-21 -0.961556)
(5.15843 4.54653e-21 -0.928908)
(4.97059 0 -0.897304)
(4.78994 8.75891e-22 -0.866687)
(4.61603 0 -0.83701)
(4.4484 2.19642e-21 -0.80822)
(4.28668 3.53289e-21 -0.780277)
(4.13045 0 -0.753129)
(3.97941 5.83363e-21 -0.726743)
(3.8332 -6.84655e-21 -0.701067)
(3.69154 -3.09493e-20 -0.676076)
(3.55411 1.71025e-20 -0.651717)
(3.4207 -1.85178e-20 -0.627973)
(3.29097 2.55032e-23 -0.604789)
(3.1648 0 -0.582155)
(3.04184 2.19587e-20 -0.560014)
(2.922 2.28269e-20 -0.538366)
(2.80495 -2.35548e-20 -0.517148)
(2.69066 2.41934e-20 -0.496372)
(2.57877 4.9492e-20 -0.475965)
(2.46931 5.03678e-20 -0.455955)
(2.36189 -5.1032e-20 -0.436259)
(2.25663 5.15953e-20 -0.41692)
(2.15308 0 -0.397843)
(2.05146 0 -0.379088)
(1.95125 5.22832e-20 -0.360549)
(1.85276 0 -0.342302)
(1.75543 0 -0.324228)
(1.65965 -1.0383e-19 -0.306425)
(1.56482 0 -0.288762)
(1.47141 -1.02308e-19 -0.271351)
(1.37881 -2.02547e-19 -0.254058)
(1.28754 0 -0.237008)
(1.19701 -9.88133e-20 -0.22007)
(1.10776 0 -0.203371)
(1.01929 0 -0.1868)
(0.932116 -1.88266e-19 -0.170471)
(0.845884 1.84785e-19 -0.15431)
(0.76101 3.92993e-23 -0.138405)
(0.677362 0 -0.122733)
(0.595248 0 -0.107345)
(0.514693 0 -0.0922695)
(0.436083 -1.64727e-19 -0.0775439)
(0.359215 1.60358e-19 -0.0631897)
(0.285219 0 -0.0493355)
(0.21254 6.05441e-19 -0.0358101)
(0.144777 2.93523e-19 -0.0231274)
(0.0764029 -5.68371e-19 -0.0104629)
(0.0171368 -2.74797e-19 0.000632428)
(-0.0474902 -5.307e-19 0.0125497)
(-0.0955299 0 0.0215161)
(-0.157381 0 0.0329242)
(-0.192194 2.37111e-19 0.0393291)
(-0.250909 4.55353e-19 0.0502598)
(-0.274008 -4.36927e-19 0.0542969)
(-0.324992 0 0.0639898)
(-0.344631 0 0.0672534)
(-0.379192 3.83047e-19 0.0736321)
(-0.396303 3.65174e-19 0.07735)
(-0.437754 0 0.083468)
(-0.397307 -3.32208e-19 0.0789251)
(-0.557136 3.14029e-19 0.105719)
(-0.340154 0 0.0633563)
(-0.563396 0 0.113964)
(-0.516799 0 0.094446)
(-0.433369 0 0.0852838)
(-0.636479 0 0.122661)
(-0.430599 -4.63511e-19 0.0800646)
(-0.6133 0 0.125478)
(-0.697687 0 0.126443)
(-0.337736 0 0.0640665)
(-0.782879 7.09551e-19 0.163424)
(-0.772257 7.03332e-19 0.131509)
(-0.247601 0 0.0630679)
(-1.49463 -5.87549e-19 0.300068)
(-0.73738 0 0.158652)
(-2.36681 -4.99624e-19 0.507131)
(-2.75752 0 0.527225)
(-2.2778 -5.26369e-19 0.389446)
(-0.662326 0 0.087881)
(32.6018 -4.96965e-21 1.49504)
(33.1846 -6.17181e-21 1.63386)
(33.7107 7.33123e-21 1.44206)
(33.9357 8.26341e-21 0.980239)
(33.7423 0 0.387438)
(33.1425 -9.90799e-21 -0.229316)
(32.2096 0 -0.804182)
(31.0347 1.74011e-20 -1.30011)
(29.7064 1.66359e-20 -1.70167)
(28.3013 3.20843e-20 -2.00928)
(26.8788 -1.47591e-20 -2.23266)
(25.4811 1.37702e-20 -2.38532)
(24.1355 0 -2.48121)
(22.8576 0 -2.53296)
(21.6547 1.11022e-20 -2.55122)
(20.5285 -1.14538e-22 -2.54453)
(19.4774 1.76005e-22 -2.51954)
(18.4979 1.3583e-22 -2.48135)
(17.5855 0 -2.43379)
(16.7353 0 -2.37975)
(15.9423 0 -2.32139)
(15.202 2.4046e-20 -2.26031)
(14.5097 1.09348e-20 -2.19772)
(13.8615 0 -2.1345)
(13.2535 0 -2.07132)
(12.6824 1.634e-20 -2.00866)
(12.1452 0 -1.94688)
(11.6389 0 -1.88621)
(11.161 0 -1.82685)
(10.7094 0 -1.76891)
(10.2819 -6.32232e-24 -1.71247)
(9.87668 0 -1.65756)
(9.49202 -1.5475e-24 -1.6042)
(9.1264 1.28269e-20 -1.55239)
(8.77842 2.72925e-24 -1.50212)
(8.44681 0 -1.45335)
(8.13042 0 -1.40606)
(7.82818 0 -1.36019)
(7.53913 0 -1.31571)
(7.26237 0 -1.27257)
(6.99708 0 -1.23072)
(6.74251 0 -1.19011)
(6.49797 -2.51628e-21 -1.15069)
(6.2628 -8.61785e-22 -1.11241)
(6.03641 0 -1.07523)
(5.81825 2.03451e-21 -1.03908)
(5.6078 0 -1.00394)
(5.40457 0 -0.969742)
(5.20814 -1.09737e-20 -0.936455)
(5.01804 0 -0.904023)
(4.83394 1.45593e-20 -0.872418)
(4.6554 0 -0.84158)
(4.48215 3.4847e-20 -0.811491)
(4.31377 2.47248e-23 -0.782087)
(4.15007 0 -0.75336)
(3.99061 0 -0.725238)
(3.83528 0 -0.697727)
(3.68363 4.43196e-20 -0.670746)
(3.53563 -4.55185e-20 -0.644316)
(3.39081 -4.65036e-20 -0.618345)
(3.24921 -4.73271e-20 -0.592869)
(3.11032 9.59936e-20 -0.567785)
(2.97429 4.84797e-20 -0.543148)
(2.84053 0 -0.518838)
(2.70931 0 -0.494934)
(2.57998 -2.44412e-23 -0.471297)
(2.45292 0 -0.448031)
(2.3274 0 -0.42498)
(2.20392 -9.75328e-20 -0.40227)
(2.0817 0 -0.379734)
(1.96135 0 -0.357516)
(1.84205 1.90282e-19 -0.335443)
(1.72448 -9.40202e-20 -0.313676)
(1.60787 0 -0.292044)
(1.49291 0 -0.270713)
(1.37893 0 -0.249535)
(1.2666 1.7681e-19 -0.228662)
(1.15543 0 -0.207991)
(1.04599 3.39911e-19 -0.18764)
(0.938036 -1.66286e-19 -0.167571)
(0.832019 0 -0.147857)
(0.727898 0 -0.128525)
(0.626216 1.54577e-19 -0.109626)
(0.526658 -2.5901e-23 -0.0911899)
(0.430686 1.46218e-19 -0.0733633)
(0.336334 -2.83929e-19 -0.0559658)
(0.248096 2.75206e-19 -0.0395824)
(0.159131 2.66472e-19 -0.023275)
(0.0814726 2.57648e-19 -0.00885358)
(-0.00274768 2.93391e-23 0.00649326)
(-0.066347 0 0.0182721)
(-0.147029 -2.30923e-19 0.0329641)
(-0.193876 0 0.0415031)
(-0.270703 0 0.0556447)
(-0.302302 4.09318e-19 0.061075)
(-0.369876 0 0.073838)
(-0.395998 0 0.0780217)
(-0.443605 0 0.0867603)
(-0.466491 -3.41917e-19 0.0917271)
(-0.520152 0 0.0992101)
(-0.476741 -3.10951e-19 0.0957947)
(-0.665923 0 0.125861)
(-0.412201 0 0.0767367)
(-0.689171 0 0.141017)
(-0.61652 0 0.11115)
(-0.538792 0 0.10701)
(-0.771891 -4.51015e-19 0.148678)
(-0.531067 -4.33503e-19 0.0984518)
(-0.761116 4.02817e-19 0.157564)
(-0.835059 0 0.148894)
(-0.443573 0 0.0847799)
(-0.963107 -1.32672e-18 0.204295)
(-0.93564 0 0.154943)
(-0.370986 6.09982e-19 0.0961077)
(-1.84042 0 0.373157)
(-0.942849 5.41654e-19 0.207578)
(-2.8757 4.6689e-19 0.630035)
(-3.16836 0 0.603215)
(-2.63873 -4.91373e-19 0.432355)
(-0.641448 0 0.0625353)
(32.6556 4.68006e-21 1.04356)
(33.0662 1.13758e-20 1.1298)
(33.5119 -6.90563e-21 1.04603)
(33.8765 -7.83491e-22 0.781925)
(34.0493 7.4808e-21 0.390913)
(33.9741 0 -0.065066)
(33.643 0 -0.536896)
(33.0761 -1.63856e-20 -0.988834)
(32.3089 -3.04261e-20 -1.39724)
(31.3838 -7.09375e-22 -1.74906)
(30.3444 1.38965e-20 -2.0398)
(29.2313 -1.29653e-20 -2.27081)
(28.0796 1.17209e-20 -2.44691)
(26.9175 0 -2.57471)
(25.7666 0 -2.6614)
(24.6425 -9.51016e-21 -2.71397)
(23.5556 3.47871e-20 -2.73884)
(22.5123 3.20044e-20 -2.74158)
(21.5163 0 -2.72691)
(20.5688 0 -2.69872)
(19.6696 0 -2.66018)
(18.8176 -6.72248e-23 -2.61384)
(18.0109 -2.05402e-20 -2.56172)
(17.2476 9.32356e-21 -2.50543)
(16.5251 1.69324e-20 -2.44625)
(15.8411 -3.0722e-20 -2.38518)
(15.1933 1.38512e-20 -2.32301)
(14.5793 1.24706e-20 -2.26034)
(13.9969 1.11879e-20 -2.19767)
(13.4441 0 -2.13535)
(12.9188 -8.90297e-21 -2.07368)
(12.4192 7.86585e-21 -2.01287)
(11.9437 -6.9207e-21 -1.95307)
(11.4906 -1.20701e-20 -1.89441)
(11.0585 -2.08829e-20 -1.83697)
(10.6459 0 -1.7808)
(10.2516 0 -1.72594)
(9.87449 -6.25302e-21 -1.6724)
(9.51339 0 -1.62019)
(9.1673 3.9728e-21 -1.56929)
(8.83529 2.9663e-21 -1.51969)
(8.51648 0 -1.47136)
(8.21005 4.75167e-21 -1.42428)
(7.91524 8.10994e-22 -1.3784)
(7.63136 0 -1.33371)
(7.3577 -1.91439e-21 -1.29015)
(7.0937 -3.0844e-21 -1.24769)
(6.83872 0 -1.20628)
(6.59227 1.02948e-20 -1.1659)
(6.35378 -6.024e-21 -1.12648)
(6.12284 -1.36413e-20 -1.088)
(5.8989 0 -1.05041)
(5.68165 -2.50183e-23 -1.01368)
(5.47055 3.49984e-20 -0.977735)
(5.26536 0 -0.942586)
(5.06557 0 -0.908143)
(4.87101 -2.01436e-20 -0.874419)
(4.68113 -2.08249e-20 -0.841319)
(4.49589 4.27561e-20 -0.808872)
(4.3147 4.37146e-20 -0.776967)
(4.1376 4.44848e-20 -0.745655)
(3.96397 -4.50954e-20 -0.714807)
(3.79397 -9.10907e-20 -0.684497)
(3.62688 0 -0.654575)
(3.46303 0 -0.625143)
(3.3016 -9.23177e-20 -0.59603)
(3.14305 0 -0.567364)
(2.98648 0 -0.538953)
(2.83249 9.16043e-20 -0.510956)
(2.68012 0 -0.483163)
(2.5301 -9.01934e-20 -0.455757)
(2.38141 -3.25008e-23 -0.428518)
(2.2349 8.82671e-20 -0.401651)
(2.08956 0 -0.374938)
(1.94629 0 -0.348591)
(1.8042 0 -0.322416)
(1.66415 1.65827e-19 -0.296613)
(1.52547 0 -0.271038)
(1.3889 -1.59427e-19 -0.245852)
(1.25408 3.11931e-19 -0.220991)
(1.12161 0 -0.196558)
(0.991352 0 -0.172574)
(0.864048 0 -0.149106)
(0.739233 -2.5612e-23 -0.126195)
(0.618744 -1.37075e-19 -0.103999)
(0.500161 -2.6606e-19 -0.0823422)
(0.388929 -2.57935e-19 -0.0618607)
(0.276852 2.49649e-19 -0.0415382)
(0.178335 0 -0.023394)
(0.072057 2.33018e-19 -0.00426744)
(-0.00945537 0 0.0107108)
(-0.111368 2.16297e-19 0.029021)
(-0.172383 0 0.0400407)
(-0.269704 0 0.0577387)
(-0.311545 0 0.0648191)
(-0.398185 -3.66998e-19 0.0810589)
(-0.431938 -3.51014e-19 0.0862762)
(-0.495203 0 0.0978245)
(-0.52473 3.19956e-19 0.104197)
(-0.5924 -3.05296e-19 0.113124)
(-0.548197 2.9095e-19 0.111641)
(-0.764989 -2.74911e-19 0.143965)
(-0.48024 0 0.0894995)
(-0.809948 0 0.167734)
(-0.707917 0 0.125745)
(-0.645112 0 0.12949)
(-0.90052 4.21739e-19 0.173314)
(-0.632141 6.62577e-24 0.11701)
(-0.907937 -7.53194e-19 0.19016)
(-0.965566 0 0.169188)
(-0.559068 0 0.107915)
(-1.14024 6.20006e-19 0.245743)
(-1.09745 0 0.176784)
(-0.516045 -5.70029e-19 0.136185)
(-2.17934 0 0.446381)
(-1.15385 -1.01225e-18 0.259865)
(-3.35583 0 0.751196)
(-3.47745 0 0.656809)
(-2.94585 4.5902e-19 0.45782)
(-0.54141 0 0.0158185)
(32.6794 0 0.690859)
(32.9804 -5.23316e-21 0.733367)
(33.317 0 0.683091)
(33.6471 -6.58594e-21 0.51928)
(33.9074 -1.34257e-20 0.256772)
(34.0473 0 -0.0727076)
(34.0381 6.69677e-21 -0.437747)
(33.8684 0 -0.812252)
(33.5388 9.01722e-22 -1.17602)
(33.0587 -2.5786e-20 -1.51458)
(32.4443 0 -1.8186)
(31.7158 0 -2.08318)
(30.8955 -1.10241e-20 -2.30674)
(30.0058 0 -2.49)
(29.0677 0 -2.63526)
(28.1002 0 -2.74578)
(27.1195 -1.625e-20 -2.82536)
(26.1389 -1.49657e-20 -2.87795)
(25.1692 -1.35736e-20 -2.90744)
(24.2182 0 -2.91747)
(23.2919 0 -2.91132)
(22.3941 -1.05628e-20 -2.89191)
(21.5276 9.63462e-21 -2.86175)
(20.6937 -8.76906e-21 -2.82299)
(19.8929 -1.59253e-20 -2.77744)
(19.1252 2.87786e-20 -2.72662)
(18.3901 -5.41243e-23 -2.67176)
(17.6868 -1.17286e-20 -2.61392)
(17.014 -1.0522e-20 -2.55394)
(16.3708 0 -2.49251)
(15.7557 0 -2.4302)
(15.1674 -7.3973e-21 -2.36747)
(14.6047 0 -2.30469)
(14.0662 1.13506e-20 -2.24215)
(13.5506 9.81762e-21 -2.1801)
(13.0567 -8.39476e-21 -2.11872)
(12.5834 0 -2.05816)
(12.1294 5.87957e-21 -1.99853)
(11.6938 4.76594e-21 -1.9399)
(11.2754 3.79145e-24 -1.88234)
(10.8734 -5.58255e-21 -1.8259)
(10.4867 0 -1.77059)
(10.1146 -2.24079e-21 -1.71644)
(9.75617 0 -1.66343)
(9.4107 0 -1.61157)
(9.0774 0 -1.56084)
(8.75564 1.38806e-23 -1.51123)
(8.4447 0 -1.46269)
(8.14402 -4.83074e-21 -1.41523)
(7.85295 1.13091e-20 -1.36878)
(7.57101 1.2819e-20 -1.32334)
(7.29758 0 -1.27885)
(7.03228 -1.53627e-20 -1.2353)
(6.77448 -3.2837e-20 -1.19262)
(6.52391 0 -1.15082)
(6.27993 0 -1.10979)
(6.04237 1.89219e-20 -1.06958)
(5.81057 1.95233e-20 -1.03007)
(5.58447 -2.007e-20 -0.991292)
(5.36335 -4.09877e-20 -0.95313)
(5.14729 0 -0.915647)
(4.93551 0 -0.878691)
(4.72821 2.86381e-23 -0.842356)
(4.52453 -4.30279e-20 -0.806462)
(4.32484 0 -0.771138)
(4.12815 4.33173e-20 -0.736176)
(3.93502 0 -0.701736)
(3.74435 0 -0.667585)
(3.55687 0 -0.633919)
(3.37138 0 -0.60048)
(3.18879 3.44894e-23 -0.567497)
(3.00782 -3.22122e-23 -0.534697)
(2.8295 -8.27429e-20 -0.502335)
(2.6526 0 -0.470139)
(2.4782 -8.04301e-20 -0.438373)
(2.30519 0 -0.406794)
(2.13461 -1.55496e-19 -0.37565)
(1.96562 1.52495e-19 -0.344757)
(1.79913 -1.49389e-19 -0.31432)
(1.63462 -1.46187e-19 -0.284244)
(1.47289 0 -0.25467)
(1.31367 1.39322e-19 -0.225607)
(1.15793 0 -0.19714)
(1.00501 -1.32133e-19 -0.169324)
(0.857174 -1.28382e-19 -0.142325)
(0.711505 2.49245e-19 -0.115984)
(0.574455 0 -0.0909659)
(0.436427 -4.67607e-19 -0.0662146)
(0.314266 0 -0.0439085)
(0.183141 2.18142e-19 -0.0206083)
(0.081028 0 -0.00199906)
(-0.0448404 2.02451e-19 0.0203039)
(-0.122494 0 0.0342009)
(-0.243012 3.73814e-19 0.0558364)
(-0.297152 -3.58594e-19 0.0648748)
(-0.405664 3.43437e-19 0.0850333)
(-0.448448 3.28446e-19 0.0914379)
(-0.530354 0 0.106298)
(-0.56751 -5.98627e-19 0.11423)
(-0.651388 5.71142e-19 0.124813)
(-0.608575 0 0.125967)
(-0.851667 2.57108e-19 0.159706)
(-0.54204 0 0.101536)
(-0.922517 0 0.193524)
(-0.789408 -4.43412e-19 0.138012)
(-0.750212 0 0.152423)
(-1.01964 0 0.196074)
(-0.732684 3.78865e-19 0.135626)
(-1.05051 7.03977e-19 0.222633)
(-1.08893 3.3376e-19 0.187403)
(-0.682015 0 0.133005)
(-1.31142 0 0.287227)
(-1.25757 0 0.197237)
(-0.678506 0 0.182693)
(-2.50437 4.79369e-19 0.518356)
(-1.36312 4.72831e-19 0.314108)
(-3.7956 0 0.867415)
(-3.67233 0 0.685309)
(-3.1991 0 0.465668)
(-0.352324 0 -0.0550635)
(32.6776 4.18303e-21 0.402894)
(32.9094 0 0.418148)
(33.1648 4.90065e-21 0.376804)
(33.4293 0 0.262839)
(33.6718 6.00358e-21 0.0768105)
(33.861 0 -0.166581)
(33.9738 -6.29411e-21 -0.4482)
(33.9954 1.15381e-20 -0.750109)
(33.9164 2.35586e-20 -1.05715)
(33.7321 7.29302e-22 -1.35734)
(33.4422 0 -1.64166)
(33.0499 0 -1.90391)
(32.562 0 -2.14022)
(31.9876 0 -2.34852)
(31.3376 0 -2.52807)
(30.6242 0 -2.67911)
(29.8599 1.46399e-20 -2.80269)
(29.0568 -1.35617e-20 -2.90038)
(28.2266 1.27538e-20 -2.97417)
(27.3798 0 -3.02628)
(26.5256 0 -3.05904)
(25.6718 9.72468e-21 -3.07478)
(24.8249 8.89358e-21 -3.07575)
(23.9901 8.11303e-21 -3.06407)
(23.1713 0 -3.04165)
(22.3717 -1.34871e-20 -3.01025)
(21.5933 -2.43037e-20 -2.9714)
(20.8378 1.09215e-20 -2.92645)
(20.1059 0 -2.87658)
(19.3981 0 -2.82279)
(18.7146 0 -2.76595)
(18.0551 6.91527e-21 -2.70677)
(17.4193 0 -2.64589)
(16.8066 0 -2.58382)
(16.2165 9.19742e-21 -2.52099)
(15.648 7.88609e-21 -2.45777)
(15.1005 0 -2.39446)
(14.5732 5.51931e-21 -2.3313)
(14.0652 -8.95206e-21 -2.26851)
(13.5757 -3.51209e-21 -2.20623)
(13.1039 2.62404e-21 -2.14461)
(12.6489 0 -2.08375)
(12.2099 0 -2.02373)
(11.7862 0 -1.9646)
(11.3771 -5.03866e-22 -1.90643)
(10.9817 0 -1.84922)
(10.5994 2.70935e-21 -1.79302)
(10.2296 3.64832e-21 -1.7378)
(9.87156 0 -1.6836)
(9.52464 -5.30295e-21 -1.63037)
(9.18834 0 -1.57814)
(8.86196 0 -1.52685)
(8.54511 -1.4377e-20 -1.47652)
(8.23707 2.18674e-23 -1.42708)
(7.93757 1.62662e-20 -1.37855)
(7.64586 0 -1.33084)
(7.36176 0 -1.28399)
(7.08451 -1.83225e-20 -1.23787)
(6.81406 0 -1.19256)
(6.54956 3.84617e-20 -1.1479)
(6.29112 0 -1.10399)
(6.03779 0 -1.06065)
(5.78987 8.01321e-20 -1.01799)
(5.54627 8.07031e-20 -0.975813)
(5.30749 4.05136e-20 -0.934274)
(5.07231 0 -0.893123)
(4.84143 0 -0.852564)
(4.61351 4.0446e-20 -0.812313)
(4.38942 8.05021e-20 -0.772613)
(4.16772 0 -0.733151)
(3.94949 7.93113e-20 -0.694211)
(3.73319 -7.84969e-20 -0.655457)
(3.52007 7.7566e-20 -0.617204)
(3.30858 -7.64969e-20 -0.579118)
(3.10006 7.53848e-20 -0.541526)