/*--------------------------------*- C++ -*----------------------------------*\
| =========                 |                                                 |
| \\      /  F ield         | OpenFOAM: The Open Source CFD Toolbox           |
|  \\    /   O peration     | Version:  2412                                  |
|   \\  /    A nd           | Website:  www.openfoam.com                      |
|    \\/     M anipulation  |                                                 |
\*---------------------------------------------------------------------------*/
FoamFile
{
    version     2.0;
    format      ascii;
    arch        "LSB;label=32;scalar=64";
    class       volVectorField;
    location    "0.06";
    object      ddt0(U);
}
// * * * * * * * * * * * * * * * * * * * * * * * * * * * * * * * * * * * * * //

dimensions      [0 1 -2 0 0 0 0];

internalField   nonuniform List<vector> 
12600
(
(3.79177 0 -0.87449)
(2.01224 4.67954e-21 -0.472551)
(1.04844 8.39915e-21 -0.437259)
(0.609087 0 -0.365059)
(0.430511 4.21849e-22 -0.286462)
(0.328083 0 -0.230384)
(0.255072 -2.38122e-20 -0.189676)
(0.204834 0 -0.153813)
(0.167164 0 -0.126244)
(0.137058 0 -0.10453)
(0.112389 0 -0.0868543)
(0.0917566 -5.35297e-20 -0.0721772)
(0.0742213 -5.27268e-20 -0.0597681)
(0.0590505 0 -0.0490778)
(0.045613 1.00669e-19 -0.0396686)
(0.0333404 0 -0.0311685)
(0.021796 5.21342e-23 -0.0233052)
(0.0107985 0 -0.0159909)
(0.000444632 4.36175e-20 -0.0092971)
(-0.00906485 0 -0.00329553)
(-0.0176699 0 0.00205895)
(-0.0253468 0 0.00682776)
(-0.03222 1.40967e-19 0.0111948)
(-0.0387412 -1.31645e-19 0.0153713)
(-0.044913 -1.46333e-22 0.0192655)
(-0.0508281 5.71874e-20 0.0230287)
(-0.0569487 0 0.0268031)
(-0.0627782 0 0.0304094)
(-0.0686843 0 0.0340655)
(-0.07495 -7.70922e-20 0.0377335)
(-0.0808131 -1.42771e-19 0.0413007)
(-0.0870413 0 0.0450016)
(-0.0931798 0 0.048596)
(-0.0990862 -4.57153e-20 0.0521456)
(-0.105259 -3.91396e-20 0.0556841)
(-0.111218 0 0.0592423)
(-0.11748 0 0.0628704)
(-0.123836 -3.82858e-20 0.0666069)
(-0.1306 0 0.0705472)
(-0.137661 2.29639e-22 0.0745908)
(-0.145069 7.50269e-21 0.0788939)
(-0.152971 1.60336e-20 0.0833388)
(-0.161234 0 0.0880754)
(-0.170103 4.04627e-20 0.0930595)
(-0.179526 5.10644e-20 0.0983952)
(-0.189776 -1.2501e-19 0.104084)
(-0.200987 1.38229e-19 0.11022)
(-0.213068 0 0.116614)
(-0.226538 -1.70268e-19 0.123247)
(-0.240504 1.88568e-19 0.131319)
(-0.255001 0 0.141354)
(-0.27111 -2.92556e-22 0.151832)
(-0.289378 -2.28753e-19 0.163246)
(-0.309421 0 0.175552)
(-0.332007 5.07372e-19 0.189305)
(-0.357318 0 0.204716)
(-0.385622 0 0.222417)
(-0.416894 9.35784e-21 0.237799)
(-0.451151 3.98714e-21 0.257084)
(-0.49136 -6.09876e-19 0.280087)
(-0.536138 6.18411e-19 0.306654)
(-0.5874 -1.27444e-18 0.336986)
(-0.645183 0 0.37098)
(-0.710985 -1.32357e-18 0.409361)
(-0.786168 -1.34181e-18 0.452779)
(-0.87149 2.73981e-18 0.502312)
(-0.968576 -1.38571e-18 0.558904)
(-1.08109 0 0.624711)
(-1.21155 0 0.70109)
(-1.35914 0 0.787887)
(-1.52983 0 0.889111)
(-1.73611 0 1.01504)
(-1.97832 3.13001e-18 1.16583)
(-2.2481 -3.21371e-18 1.31752)
(-2.54449 0 1.49193)
(-2.93026 0 1.72002)
(-3.45843 -3.59811e-18 2.02684)
(-4.08138 2.23091e-21 2.3807)
(-4.65607 -7.52711e-18 2.7)
(-5.05278 0 2.91545)
(-5.24604 0 3.01799)
(-5.30636 0 3.05004)
(-5.3276 -2.55866e-21 3.06382)
(-5.3683 0 3.09009)
(-5.44217 0 3.13475)
(-5.53878 -5.92549e-18 3.19126)
(-5.64415 -9.41419e-22 3.25179)
(-5.74896 0 3.31133)
(-5.84951 0 3.36815)
(-5.9476 1.04059e-17 3.42359)
(-6.04851 1.00485e-17 3.48047)
(-6.15797 9.72308e-18 3.53901)
(-6.27269 9.38481e-18 3.60733)
(-6.39565 -7.96068e-22 3.68226)
(-6.52979 -7.49845e-22 3.76145)
(-6.67401 -8.43511e-18 3.84568)
(-6.82735 0 3.93478)
(-6.98933 0 4.02868)
(-7.15945 0 4.12715)
(-7.33804 -2.92765e-17 4.23042)
(-7.52463 1.41094e-17 4.33827)
(-7.7202 -1.35944e-17 4.45127)
(-7.92385 -1.30912e-17 4.56889)
(-8.1375 0 4.69227)
(-8.35915 0 4.82024)
(-8.59223 0 4.95482)
(-8.83311 -2.22879e-17 5.09384)
(-9.08724 0 5.24056)
(-9.34862 2.04583e-17 5.39137)
(-9.62603 0 5.55153)
(-9.90821 0 5.71437)
(-10.2131 -1.78755e-17 5.89028)
(-10.5143 0 6.06427)
(-10.8486 0 6.25706)
(-11.1826 0 6.45002)
(-11.5052 2.97331e-17 6.63636)
(-11.964 0 6.90067)
(-12.16 -2.70582e-17 7.0149)
(-12.7449 0 7.35321)
(-13.0596 4.47145e-22 7.53477)
(5.60149 -7.75784e-21 -1.08648)
(4.58019 -4.75929e-21 -1.00018)
(3.41463 6.13304e-21 -1.11969)
(2.47631 0 -1.069)
(1.84702 -1.93771e-20 -0.922392)
(1.42918 2.31724e-20 -0.775346)
(1.1433 2.48408e-20 -0.645559)
(0.937698 -2.65466e-20 -0.534883)
(0.778042 0 -0.446863)
(0.65098 0 -0.3761)
(0.547217 0 -0.317772)
(0.460627 0 -0.268707)
(0.387094 0 -0.226692)
(0.323508 0 -0.190088)
(0.267419 -1.1941e-22 -0.157546)
(0.216813 0 -0.127928)
(0.170214 4.94721e-20 -0.100518)
(0.126944 0 -0.0751729)
(0.0870456 -9.06032e-20 -0.0521175)
(0.0507963 8.57203e-20 -0.031489)
(0.0181643 0 -0.0130295)
(-0.0112093 7.69522e-20 0.0036321)
(-0.0379818 -7.31845e-20 0.0190024)
(-0.0631172 6.82701e-20 0.0336506)
(-0.0870194 -6.463e-20 0.0475714)
(-0.109992 0 0.060984)
(-0.1327 5.29542e-20 0.0742323)
(-0.154819 0 0.087046)
(-0.176756 0 0.0998662)
(-0.199003 0 0.112759)
(-0.220764 7.37833e-20 0.125331)
(-0.242687 0 0.138039)
(-0.26442 0 0.150532)
(-0.285659 0 0.162839)
(-0.307077 0 0.175147)
(-0.328446 0 0.187519)
(-0.350216 0 0.200102)
(-0.372651 3.93869e-20 0.213095)
(-0.396023 0 0.226684)
(-0.420345 2.3565e-20 0.240714)
(-0.445838 -1.59011e-20 0.255493)
(-0.47257 -1.71242e-20 0.270868)
(-0.50082 0 0.287197)
(-0.530823 0 0.304465)
(-0.562906 -1.0472e-19 0.322974)
(-0.59736 1.27643e-19 0.342778)
(-0.635004 -1.41721e-19 0.364297)
(-0.675201 0 0.387059)
(-0.719402 1.73718e-19 0.411629)
(-0.766314 0 0.438928)
(-0.816944 0 0.470036)
(-0.872645 2.2338e-19 0.503553)
(-0.935067 0 0.540735)
(-1.00336 0 0.581123)
(-1.08008 -5.12621e-19 0.626487)
(-1.16593 0 0.67712)
(-1.26288 0 0.734212)
(-1.36695 2.03319e-20 0.794203)
(-1.48223 -5.87314e-19 0.863142)
(-1.61823 -2.34194e-21 0.940125)
(-1.77208 0 1.02877)
(-1.94816 1.2774e-18 1.12998)
(-2.14691 1.29508e-18 1.24456)
(-2.37297 0 1.37564)
(-2.63065 2.67519e-18 1.52599)
(-2.92433 7.37515e-22 1.69712)
(-3.26041 0 1.89303)
(-3.65108 -1.40578e-18 2.12101)
(-4.10392 0 2.38521)
(-4.61995 0 2.68681)
(-5.22194 0 3.04183)
(-5.95068 0 3.47341)
(-6.8039 -6.16143e-18 3.97718)
(-7.74684 3.15497e-18 4.51555)
(-8.81659 0 5.1375)
(-10.1992 0 5.94693)
(-12.0035 -3.51302e-18 6.99877)
(-14.0212 3.95494e-21 8.16156)
(-15.8006 1.15322e-21 9.17055)
(-16.9868 0 9.82892)
(-17.5568 0 10.136)
(-17.7537 0 10.2387)
(-17.8591 -4.04878e-21 10.2984)
(-18.034 6.11224e-18 10.4025)
(-18.3071 -5.91714e-18 10.5632)
(-18.6417 5.72527e-18 10.7575)
(-18.9951 -1.49705e-21 10.9609)
(-19.3409 5.35952e-18 11.1588)
(-19.6722 0 11.3477)
(-19.9984 -1.00019e-17 11.5335)
(-20.3374 0 11.7256)
(-20.7045 -9.32269e-18 11.926)
(-21.0914 0 12.1563)
(-21.5092 1.73407e-17 12.4051)
(-21.9616 8.35412e-18 12.6697)
(-22.4456 0 12.951)
(-22.9582 0 13.2481)
(-23.4984 1.49671e-17 13.5608)
(-24.0646 -1.44341e-17 13.8883)
(-24.658 2.78335e-17 14.2314)
(-25.2772 -1.34002e-17 14.5892)
(-25.9252 1.28995e-17 14.9637)
(-26.5991 0 15.3531)
(-27.3051 -1.19262e-17 15.7609)
(-28.0363 0 16.1833)
(-28.8044 0 16.627)
(-29.596 2.10676e-17 17.0842)
(-30.4314 0 17.5666)
(-31.2865 1.73457e-21 18.0606)
(-32.1957 -1.84667e-17 18.5855)
(-33.1147 0 19.1166)
(-34.1095 0 19.6907)
(-35.0882 0 20.2563)
(-36.1704 -1.53437e-17 20.8813)
(-37.2566 2.9273e-17 21.5074)
(-38.2868 -2.79517e-17 22.1053)
(-39.7807 0 22.9634)
(-40.3898 2.54144e-17 23.3177)
(-42.311 0 24.4289)
(-43.3483 -4.61515e-17 25.0098)
(5.75917 1.84446e-20 -1.16703)
(5.49016 -1.01688e-20 -1.15976)
(4.90696 -3.38164e-20 -1.29963)
(4.14698 0 -1.38196)
(3.40066 -2.15455e-20 -1.35064)
(2.78033 1.0601e-21 -1.24122)
(2.29492 0 -1.09731)
(1.91445 2.52002e-20 -0.951561)
(1.61234 0 -0.820751)
(1.36858 2.67152e-20 -0.70824)
(1.16759 0 -0.612044)
(0.998815 0 -0.528999)
(0.854835 0 -0.456318)
(0.730009 0 -0.391804)
(0.619971 -4.96341e-20 -0.333583)
(0.521221 0 -0.280099)
(0.431105 0 -0.230552)
(0.348178 0 -0.184951)
(0.272127 4.29053e-20 -0.143634)
(0.203079 -1.87036e-22 -0.106632)
(0.140777 0 -0.0733416)
(0.084475 -1.79068e-22 -0.0429152)
(0.032978 0 -0.0145508)
(-0.0152524 -6.42049e-20 0.0124902)
(-0.0609965 0 0.038365)
(-0.104827 0 0.0632635)
(-0.147642 -5.02233e-20 0.0876978)
(-0.189257 0 0.11151)
(-0.230249 0 0.13503)
(-0.271209 -7.4383e-20 0.158587)
(-0.311381 0 0.181593)
(-0.351384 0 0.204466)
(-0.390869 0 0.227067)
(-0.429637 0 0.249207)
(-0.468332 3.73688e-20 0.271386)
(-0.507056 0 0.293694)
(-0.546266 0 0.316341)
(-0.586475 -3.64341e-20 0.339718)
(-0.628149 0 0.363943)
(-0.671276 -2.13396e-20 0.38903)
(-0.716311 -3.64395e-22 0.415207)
(-0.763321 1.62131e-20 0.442549)
(-0.812962 0 0.471487)
(-0.865512 0 0.502152)
(-0.92167 4.97038e-20 0.535013)
(-0.981619 0 0.570158)
(-1.04696 1.3406e-19 0.608435)
(-1.11636 0 0.649136)
(-1.19233 5.34795e-22 0.693872)
(-1.27425 0 0.741562)
(-1.36386 0 0.79353)
(-1.46166 0 0.850447)
(-1.5707 2.20318e-19 0.914147)
(-1.6899 0 0.983605)
(-1.82357 0 1.06189)
(-1.97314 0 1.14916)
(-2.14184 0 1.24703)
(-2.32259 -1.09683e-18 1.35534)
(-2.52455 0 1.47711)
(-2.76129 -6.18836e-22 1.61209)
(-3.03065 0 1.76712)
(-3.33772 -6.02828e-19 1.94609)
(-3.68533 -1.22106e-18 2.14885)
(-4.08134 0 2.3811)
(-4.53358 -2.52211e-18 2.64773)
(-5.05023 -1.28534e-18 2.9517)
(-5.64322 0 3.3009)
(-6.33349 1.32389e-18 3.70789)
(-7.13382 0 4.17918)
(-8.04993 0 4.71991)
(-9.12364 0 5.36125)
(-10.423 0 6.1311)
(-11.9415 2.83245e-21 7.01446)
(-13.6171 -2.96699e-18 7.99258)
(-15.5493 0 9.1349)
(-18.0256 0 10.6096)
(-21.1662 5.02893e-21 12.4561)
(-24.5745 6.82432e-18 14.4081)
(-27.5087 3.44857e-18 16.0317)
(-29.4344 0 17.0524)
(-30.364 0 17.5193)
(-30.7141 0 17.691)
(-30.9361 1.19336e-17 17.8194)
(-31.2763 2.03527e-21 18.0278)
(-31.7709 5.55077e-18 18.3233)
(-32.3568 0 18.6653)
(-32.9644 5.19582e-18 19.0147)
(-33.5528 -5.02456e-18 19.35)
(-34.1143 0 19.6692)
(-34.6683 0 19.9849)
(-35.245 -9.04316e-18 20.3139)
(-35.866 0 20.6624)
(-36.5261 -8.42143e-18 21.0533)
(-37.2394 1.15174e-21 21.4734)
(-38.0076 -7.82411e-18 21.9217)
(-38.826 7.53947e-18 22.3973)
(-39.6904 0 22.8983)
(-40.5987 -1.40068e-17 23.4241)
(-41.5484 1.3506e-17 23.9734)
(-42.541 -2.6043e-17 24.5473)
(-43.5741 0 25.1443)
(-44.6524 1.20675e-17 25.7674)
(-45.7702 0 26.4131)
(-46.9379 1.11519e-17 27.0877)
(-48.1426 -1.07038e-17 27.7835)
(-49.4048 0 28.5125)
(-50.6986 -1.96929e-17 29.2597)
(-52.0614 0 30.0466)
(-53.4454 -3.60941e-17 30.8461)
(-54.9172 1.72565e-17 31.6954)
(-56.3878 0 32.5455)
(-57.9827 0 33.4653)
(-59.5312 0 34.3606)
(-61.2402 -8.49602e-22 35.3477)
(-62.9525 -2.73432e-17 36.3325)
(-64.5186 2.61102e-17 37.2471)
(-66.9046 0 38.6088)
(-67.7088 2.37364e-17 39.0843)
(-70.7827 0 40.8697)
(-72.3046 -1.10723e-21 41.6943)
(5.59888 -1.0501e-20 -1.18399)
(5.59227 -2.64382e-21 -1.19595)
(5.44055 1.86107e-20 -1.29637)
(5.07004 -2.27282e-20 -1.43103)
(4.55425 -2.52623e-20 -1.50931)
(3.99809 -4.52471e-20 -1.50488)
(3.46787 0 -1.43693)
(2.99615 0 -1.32693)
(2.58914 0 -1.19839)
(2.24353 -2.5308e-20 -1.069)
(1.94903 0 -0.948213)
(1.69603 0 -0.838418)
(1.47658 0 -0.738904)
(1.28407 0 -0.64822)
(1.11319 0 -0.564728)
(0.959535 -4.55403e-20 -0.486973)
(0.819518 4.40786e-20 -0.414419)
(0.690883 0 -0.34746)
(0.572818 0 -0.286646)
(0.46524 -7.68564e-20 -0.23191)
(0.367724 7.24317e-20 -0.182306)
(0.279229 -6.89683e-20 -0.136538)
(0.198102 6.53541e-20 -0.0935136)
(0.122249 6.07902e-20 -0.0523714)
(0.0504537 -5.71494e-20 -0.0128181)
(-0.0181655 5.27732e-20 0.0252534)
(-0.0847475 0 0.0624603)
(-0.149277 -4.46026e-20 0.0988155)
(-0.212489 0 0.134508)
(-0.275089 7.03934e-20 0.170055)
(-0.336419 0 0.204773)
(-0.397107 0 0.23897)
(-0.456788 0 0.272759)
(-0.515444 -4.15922e-20 0.305831)
(-0.573677 -3.53464e-20 0.338921)
(-0.631883 0 0.37219)
(-0.690587 0 0.405908)
(-0.750451 3.44497e-20 0.440605)
(-0.812182 0 0.476354)
(-0.875802 4.85385e-22 0.513336)
(-0.94195 7.68599e-21 0.551679)
(-1.01078 0 0.59175)
(-1.08331 0 0.634024)
(-1.15988 0 0.678788)
(-1.24161 0 0.726662)
(-1.32848 1.15869e-19 0.777705)
(-1.42303 0 0.83316)
(-1.5233 -1.46748e-19 0.891947)
(-1.63303 -1.55589e-19 0.95645)
(-1.75122 0 1.02559)
(-1.88008 0 1.10139)
(-2.02067 0 1.18414)
(-2.1772 -2.07857e-19 1.27655)
(-2.34841 2.24856e-19 1.37724)
(-2.54016 4.5964e-19 1.49081)
(-2.75457 0 1.61745)
(-2.99632 4.95281e-19 1.7601)
(-3.26054 1.04393e-18 1.91278)
(-3.55271 0 2.08931)
(-3.89382 1.09382e-18 2.28441)
(-4.28151 0 2.51134)
(-4.72278 5.68182e-19 2.77489)
(-5.22456 1.15048e-18 3.07259)
(-5.79802 0 3.41226)
(-6.45487 1.18702e-18 3.80068)
(-7.20619 1.20967e-18 4.24492)
(-8.0705 0 4.75699)
(-9.07755 0 5.35455)
(-10.2457 0 6.0465)
(-11.5882 -1.28695e-18 6.84351)
(-13.1679 -1.30331e-18 7.79161)
(-15.0713 0 8.92982)
(-17.2883 2.71923e-18 10.2297)
(-19.7546 2.78146e-18 11.6765)
(-22.6254 0 13.387)
(-26.2682 0 15.5744)
(-30.7733 3.09498e-18 18.2334)
(-35.5407 -3.97656e-21 20.9497)
(-39.5679 0 23.1385)
(-42.1872 0 24.479)
(-43.4694 0 25.0887)
(-43.9964 0 25.3358)
(-44.3677 3.0143e-21 25.5493)
(-44.8989 -5.37914e-18 25.8767)
(-45.6295 0 26.3157)
(-46.4718 0 26.8078)
(-47.3311 0 27.3006)
(-48.1539 -4.70972e-18 27.7675)
(-48.9338 0 28.2092)
(-49.7013 -8.78504e-18 28.6461)
(-50.4985 8.46849e-18 29.1018)
(-51.3527 -8.18169e-18 29.5877)
(-52.2644 7.88375e-18 30.1242)
(-53.2466 -1.52042e-17 30.7019)
(-54.2998 7.32234e-18 31.317)
(-55.4176 -7.05494e-18 31.9671)
(-56.5934 0 32.6492)
(-57.8242 0 33.3622)
(-59.106 1.26355e-17 34.104)
(-60.4401 1.21787e-17 34.8756)
(-61.8221 1.17255e-17 35.6747)
(-63.2579 1.09529e-21 36.5046)
(-64.738 0 37.36)
(-66.2765 0 38.249)
(-67.8523 1.00048e-17 39.1596)
(-69.4955 0 40.1088)
(-71.1632 1.84063e-17 41.0724)
(-72.9135 0 42.0832)
(-74.6659 -1.31044e-21 43.0962)
(-76.5278 0 44.1706)
(-78.3497 1.53971e-17 45.2248)
(-80.332 -1.47006e-17 46.3676)
(-82.2052 -1.403e-17 47.4514)
(-84.271 -9.0697e-22 48.646)
(-86.3237 0 49.8225)
(-88.0717 -2.43836e-17 50.8545)
(-91.0174 -2.32445e-17 52.522)
(-91.5869 -2.21642e-17 52.8743)
(-95.4134 0 55.1046)
(-96.8277 -1.24749e-21 55.8069)
(5.48907 0 -1.12839)
(5.47472 -2.04234e-21 -1.18373)
(5.45717 0 -1.2597)
(5.33941 2.14928e-20 -1.38124)
(5.09877 4.31932e-20 -1.49866)
(4.75823 2.21274e-20 -1.57192)
(4.35775 0 -1.58896)
(3.93812 0 -1.55531)
(3.53003 -2.45535e-20 -1.48082)
(3.14937 -2.45566e-20 -1.38037)
(2.80316 2.43696e-20 -1.26697)
(2.49148 4.79859e-20 -1.15184)
(2.21162 4.68567e-20 -1.04005)
(1.95963 0 -0.933394)
(1.73172 0 -0.831867)
(1.52432 8.59847e-20 -0.734901)
(1.33393 -1.39553e-22 -0.642732)
(1.15796 0 -0.556529)
(0.995283 -3.80639e-20 -0.477399)
(0.845789 -7.24878e-20 -0.405446)
(0.709194 -6.84708e-20 -0.339561)
(0.584482 0 -0.278111)
(0.46977 -6.17738e-20 -0.219779)
(0.362511 5.70546e-20 -0.163681)
(0.261035 5.40122e-20 -0.109454)
(0.164146 -1.19333e-22 -0.0570825)
(0.0704697 0 -0.0059673)
(-0.0201548 1.78194e-22 0.0440565)
(-0.108574 0 0.0930535)
(-0.195624 6.59258e-20 0.141655)
(-0.280786 0 0.189161)
(-0.364717 0 0.235749)
(-0.447066 0 0.281726)
(-0.527985 3.9281e-20 0.326754)
(-0.608029 0 0.371735)
(-0.687835 0 0.416944)
(-0.768034 0 0.462693)
(-0.84939 0 0.509618)
(-0.932858 -1.37085e-20 0.557763)
(-1.01856 1.71612e-20 0.607479)
(-1.10729 0 0.658805)
(-1.19932 -1.55949e-20 0.7124)
(-1.29602 0 0.768805)
(-1.39776 0 0.828426)
(-1.50617 0 0.892072)
(-1.62091 4.53468e-22 0.959746)
(-1.74558 0 1.03312)
(-1.87752 1.38365e-19 1.11076)
(-2.02169 0 1.1959)
(-2.1769 0 1.28721)
(-2.34591 1.71621e-19 1.38738)
(-2.5301 0 1.49658)
(-2.73484 0 1.61841)
(-2.95877 2.7168e-22 1.75107)
(-3.20927 -4.32918e-19 1.90076)
(-3.48923 0 2.06754)
(-3.8053 8.62992e-22 2.25546)
(-4.15174 -9.83348e-19 2.45759)
(-4.53429 0 2.69327)
(-4.98159 -5.14798e-19 2.94991)
(-5.48944 0 3.24967)
(-6.06823 -5.3451e-19 3.5978)
(-6.72791 -1.08211e-18 3.99185)
(-7.48264 0 4.44207)
(-8.34802 -1.11635e-18 4.95765)
(-9.33931 1.67759e-23 5.54833)
(-10.4819 0 6.23078)
(-11.8143 0 7.02764)
(-13.3608 0 7.95039)
(-15.1443 2.41713e-18 9.01673)
(-17.2482 1.01702e-21 10.2874)
(-19.774 0 11.8108)
(-22.7108 -2.54764e-18 13.5459)
(-26.0004 -5.21852e-18 15.4875)
(-29.8509 0 17.8031)
(-34.6852 0 20.7335)
(-40.5394 0 24.2023)
(-46.6156 -3.99367e-21 27.6404)
(-51.6858 0 30.3351)
(-54.9789 0 31.9516)
(-56.6274 0 32.6904)
(-57.3605 0 33.0216)
(-57.9063 -5.24828e-18 33.3356)
(-58.6413 -5.04443e-18 33.7925)
(-59.6091 0 34.3776)
(-60.7006 0 35.0159)
(-61.7982 0 35.6433)
(-62.8355 -1.06743e-21 36.229)
(-63.8076 0 36.7773)
(-64.7553 8.22407e-18 37.3162)
(-65.7327 0 37.8761)
(-66.7742 7.65704e-18 38.4724)
(-67.8849 0 39.1258)
(-69.0775 7.1132e-18 39.8277)
(-70.3504 0 40.5721)
(-71.6947 0 41.3547)
(-73.1012 0 42.1713)
(-74.5651 0 43.0197)
(-76.0799 -1.18148e-17 43.8968)
(-77.6462 0 44.8031)
(-79.2561 -1.09615e-17 45.7343)
(-80.9162 -1.0548e-17 46.6941)
(-82.611 0 47.6739)
(-84.3582 0 48.6838)
(-86.1256 0 49.7053)
(-87.9534 0 50.7614)
(-89.7764 1.51746e-21 51.8152)
(-91.6777 0 52.9131)
(-93.5325 3.15093e-17 53.986)
(-95.501 0 55.1214)
(-97.3517 -2.8764e-17 56.1937)
(-99.3809 1.373e-17 57.3625)
(-101.194 1.31028e-17 58.4127)
(-103.2 1.25033e-17 59.5751)
(-105.152 0 60.6852)
(-106.564 0 61.5416)
(-109.558 4.34084e-17 63.2117)
(-109.285 -2.06959e-17 63.0956)
(-113.298 -1.97225e-17 65.4492)
(-113.669 1.87815e-17 65.4796)
(5.42514 0 -1.05133)
(5.37022 2.74816e-20 -1.14328)
(5.3449 0 -1.21693)
(5.30631 0 -1.31054)
(5.21701 0 -1.42024)
(5.05673 0 -1.5212)
(4.8275 0 -1.59139)
(4.54529 2.41132e-20 -1.62223)
(4.23066 2.31814e-20 -1.61426)
(3.90316 4.68372e-20 -1.57222)
(3.57702 -4.62939e-20 -1.50216)
(3.26174 -4.53024e-20 -1.41223)
(2.96263 -4.42355e-20 -1.31204)
(2.68135 0 -1.20784)
(2.41817 0 -1.10285)
(2.17251 -8.09568e-20 -0.998249)
(1.9427 -7.83231e-20 -0.895501)
(1.72694 0 -0.796895)
(1.52442 3.59286e-20 -0.70449)
(1.33546 6.84188e-20 -0.618974)
(1.16047 0 -0.539437)
(0.999073 6.11615e-20 -0.464138)
(0.849632 0 -0.391688)
(0.709461 -1.87251e-22 -0.321307)
(0.576555 -5.03511e-20 -0.252691)
(0.449467 -1.23211e-22 -0.185976)
(0.326658 0 -0.120698)
(0.207827 3.9595e-20 -0.056612)
(0.0920899 -6.98862e-20 0.00620334)
(-0.0215049 -1.24214e-19 0.0684057)
(-0.1326 -5.81945e-20 0.129322)
(-0.241882 0 0.188992)
(-0.349011 -4.45901e-20 0.24786)
(-0.454263 0 0.305611)
(-0.558128 0 0.363232)
(-0.661427 0 0.421139)
(-0.764889 0 0.479668)
(-0.869372 0 0.539544)
(-0.976059 1.82015e-22 0.600788)
(-1.08523 -7.842e-21 0.663911)
(-1.19784 0 0.728888)
(-1.31422 2.9783e-20 0.796631)
(-1.43611 0 0.867778)
(-1.56386 0 0.942802)
(-1.69969 0 1.02274)
(-1.84287 -1.03356e-19 1.10753)
(-1.9981 0 1.19928)
(-2.16207 0 1.29621)
(-2.34081 0 1.40247)
(-2.53316 0 1.51624)
(-2.74242 -3.235e-19 1.641)
(-2.97005 0 1.77683)
(-3.22268 0 1.9283)
(-3.49886 -1.99554e-19 2.09311)
(-3.80743 0 2.27912)
(-4.15196 0 2.48614)
(-4.54142 -8.79614e-19 2.71957)
(-4.96889 4.62506e-19 2.97139)
(-5.44184 0 3.26512)
(-5.99261 0 3.58639)
(-6.61941 0 3.95814)
(-7.33364 5.02737e-19 4.3913)
(-8.14921 0 4.88274)
(-9.08309 0 5.44496)
(-10.1549 2.09738e-18 6.08948)
(-11.3844 -2.13603e-18 6.82879)
(-12.8036 0 7.68446)
(-14.4594 0 8.68396)
(-16.3826 0 9.84151)
(-18.6063 -1.13398e-18 11.183)
(-21.2327 1.14772e-18 12.7837)
(-24.3783 2.34313e-18 14.6962)
(-28.0321 2.38996e-18 16.8717)
(-32.1475 2.44585e-18 19.3198)
(-36.9773 -2.4967e-18 22.2543)
(-42.9774 0 25.9264)
(-50.1195 0 30.1723)
(-57.4307 -2.80753e-18 34.2738)
(-63.4955 0 37.417)
(-67.458 0 39.2757)
(-69.4998 0 40.1373)
(-70.4712 0 40.5613)
(-71.2092 0 40.9848)
(-72.1473 9.45043e-18 41.5728)
(-73.3384 0 42.2974)
(-74.6579 4.41938e-18 43.0692)
(-75.9671 0 43.814)
(-77.1854 -1.06013e-21 44.497)
(-78.3064 -7.97057e-18 45.1253)
(-79.3796 0 45.7339)
(-80.4704 0 46.3594)
(-81.6217 0 47.0213)
(-82.8437 0 47.7424)
(-84.1498 -6.65515e-18 48.5133)
(-85.5358 0 49.3258)
(-86.9897 0 50.1739)
(-88.4991 0 51.0514)
(-90.0562 0 51.9548)
(-91.6511 0 52.8791)
(-93.2825 0 53.8238)
(-94.9379 0 54.7819)
(-96.6233 0 55.757)
(-98.3155 9.48251e-18 56.7358)
(-100.035 0 57.7304)
(-101.736 0 58.7139)
(-103.47 0 59.7159)
(-105.142 -1.60662e-17 60.6834)
(-106.867 0 61.6797)
(-108.462 -1.47156e-17 62.6041)
(-110.157 0 63.5805)
(-111.612 -1.1868e-21 64.4263)
(-113.246 0 65.366)
(-114.511 -1.22371e-17 66.1001)
(-115.94 0 66.9332)
(-117.244 0 67.6576)
(-117.719 0 67.9985)
(-120.139 -2.02639e-17 69.3028)
(-118.361 3.86433e-17 68.3438)
(-121.943 3.68237e-17 70.4597)
(-120.203 1.75334e-17 69.2085)
(5.36722 0 -0.980495)
(5.30696 -2.89271e-20 -1.08192)
(5.26 0 -1.16283)
(5.21731 0 -1.24185)
(5.16682 -2.61811e-20 -1.33323)
(5.08995 -2.52637e-20 -1.42997)
(4.97359 2.45119e-20 -1.51679)
(4.81376 -7.05089e-20 -1.58248)
(4.61444 0 -1.62144)
(4.38436 5.4741e-22 -1.63173)
(4.13325 2.19537e-20 -1.61472)
(3.87085 0 -1.57126)
(3.60359 0 -1.50639)
(3.33769 0 -1.42576)
(3.07685 0 -1.33559)
(2.82378 -5.4538e-24 -1.23929)
(2.57947 3.85265e-24 -1.13977)
(2.3439 3.54366e-20 -1.04039)
(2.11725 3.38708e-20 -0.944241)
(1.90067 0 -0.852895)
(1.69577 -6.1019e-20 -0.765986)
(1.50357 -5.76429e-20 -0.681901)
(1.32346 0 -0.599324)
(1.15322 -1.68268e-22 -0.517745)
(0.990834 2.83236e-22 -0.437088)
(0.834777 -4.41218e-20 -0.357776)
(0.68348 0 -0.279635)
(0.536601 0 -0.202445)
(0.393361 6.58427e-20 -0.126465)
(0.252772 1.01171e-22 -0.0511117)
(0.115056 1.0937e-19 0.0229704)
(-0.0204778 0 0.0956606)
(-0.153487 8.35423e-20 0.167478)
(-0.284285 0 0.238146)
(-0.413235 0 0.308651)
(-0.541268 -2.34862e-20 0.379553)
(-0.669169 0 0.451193)
(-0.797873 -2.69435e-20 0.524357)
(-0.928766 1.45604e-22 0.599055)
(-1.06232 6.28996e-21 0.675934)
(-1.19965 0 0.754927)
(-1.3411 3.97422e-22 0.837134)
(-1.48878 0 0.923323)
(-1.64287 0 1.01396)
(-1.80632 0 1.11035)
(-1.97794 0 1.21237)
(-2.16356 0 1.32255)
(-2.35926 -1.2326e-19 1.43878)
(-2.57202 0 1.56607)
(-2.80074 0 1.70216)
(-3.04926 1.5228e-19 1.85132)
(-3.31897 0 2.01347)
(-3.61791 1.74641e-19 2.19423)
(-3.9444 1.88007e-19 2.39064)
(-4.30867 -3.84699e-19 2.61242)
(-4.71476 0 2.8589)
(-5.17449 4.13611e-19 3.13719)
(-5.67969 4.34819e-19 3.43674)
(-6.23858 0 3.78832)
(-6.88879 0 4.17227)
(-7.62864 0 4.61422)
(-8.47108 -4.7203e-19 5.13106)
(-9.43494 0 5.71813)
(-10.5395 0 6.3902)
(-11.8083 -9.84291e-19 7.16115)
(-13.2653 2.00449e-18 8.04638)
(-14.9487 0 9.07226)
(-16.9132 0 10.2708)
(-19.1964 0 11.659)
(-21.8412 0 13.2714)
(-24.9657 1.07435e-18 15.1968)
(-28.7 -2.19689e-18 17.489)
(-33.0376 0 20.0941)
(-37.9442 0 23.0393)
(-43.7034 2.33988e-18 26.5775)
(-50.7846 0 30.9553)
(-59.0998 2.53e-18 35.9143)
(-67.5405 -2.62217e-18 40.6031)
(-74.5453 0 44.1336)
(-79.1816 0 46.2051)
(-81.6529 0 47.1866)
(-82.8946 0 47.7106)
(-83.8336 0 48.2459)
(-84.9589 -4.42406e-18 48.9568)
(-86.3417 0 49.8037)
(-87.8506 -8.27273e-18 50.6862)
(-89.329 0 51.5218)
(-90.6794 -1.05351e-21 52.2711)
(-91.8882 -2.2669e-21 52.9416)
(-93.0088 0 53.5732)
(-94.1173 -6.94332e-18 54.2083)
(-95.2668 0 54.8716)
(-96.4745 0 55.5888)
(-97.7558 1.24461e-17 56.3497)
(-99.1045 0 57.1442)
(-100.505 0 57.9642)
(-101.941 0 58.8013)
(-103.401 0 59.6501)
(-104.87 0 60.5029)
(-106.344 0 61.3578)
(-107.805 0 62.2044)
(-109.258 0 63.0458)
(-110.669 -8.85897e-18 63.8631)
(-112.063 0 64.6703)
(-113.376 0 65.4305)
(-114.675 0 66.1816)
(-115.827 1.50086e-17 66.8503)
(-116.991 1.43692e-17 67.522)
(-117.908 1.37452e-17 68.0565)
(-118.899 -1.31394e-17 68.625)
(-119.488 -1.22578e-21 68.9736)
(-120.253 1.19748e-17 69.4097)
(-120.456 2.28522e-17 69.5312)
(-120.789 0 69.7374)
(-120.899 -2.07937e-17 69.7563)
(-119.905 -1.98503e-17 69.2804)
(-121.142 0 69.8586)
(-117.365 -1.80371e-17 67.7801)
(-119.965 -1.71869e-17 69.3304)
(-115.32 -1.63647e-17 66.3637)
(5.30759 0 -0.918872)
(5.25709 1.42895e-20 -1.01338)
(5.20785 0 -1.0991)
(5.15336 0 -1.1755)
(5.09823 2.46575e-20 -1.2547)
(5.0398 2.37923e-20 -1.33867)
(4.96795 -2.3083e-20 -1.42171)
(4.87403 6.86409e-20 -1.49669)
(4.75416 0 -1.55752)
(4.6084 2.27588e-20 -1.59957)
(4.43923 -4.28817e-20 -1.62037)
(4.25013 0 -1.61985)
(4.04605 4.00198e-20 -1.59757)
(3.83049 0 -1.55513)
(3.608 3.72933e-20 -1.49472)
(3.38216 3.58908e-20 -1.42131)
(3.15542 3.47091e-20 -1.33888)
(2.92903 -3.33611e-20 -1.25177)
(2.70381 -6.38814e-20 -1.16384)
(2.48134 0 -1.07747)
(2.26429 5.74399e-20 -0.992816)
(2.05545 0 -0.908372)
(1.85595 0 -0.822857)
(1.66476 -4.7434e-20 -0.736123)
(1.48038 8.85196e-20 -0.648492)
(1.30146 0 -0.560821)
(1.12662 0 -0.47337)
(0.955638 0 -0.38606)
(0.788014 -6.22575e-20 -0.299375)
(0.622888 5.48868e-20 -0.212907)
(0.460437 -3.09247e-22 -0.127318)
(0.30002 4.28424e-20 -0.0429239)
(0.142015 -7.77345e-20 0.0407847)
(-0.0138262 3.22554e-20 0.12356)
(-0.167634 -2.65347e-20 0.206302)
(-0.320323 3.05522e-22 0.289689)
(-0.472665 0 0.374036)
(-0.625618 2.53412e-20 0.460162)
(-0.780729 1.11453e-20 0.548056)
(-0.938637 -5.91637e-21 0.638476)
(-1.10072 0 0.73133)
(-1.26713 -1.37214e-20 0.827818)
(-1.44041 -2.36774e-20 0.928861)
(-1.62043 -3.10977e-20 1.03485)
(-1.81086 -3.81046e-20 1.14735)
(-2.01008 0 1.26621)
(-2.22503 0 1.39437)
(-2.45125 -2.11396e-22 1.52936)
(-2.69649 0 1.67707)
(-2.95968 0 1.83469)
(-3.24528 1.43912e-19 2.00739)
(-3.55438 -1.58197e-19 2.19476)
(-3.89652 -1.64012e-19 2.40364)
(-4.26972 2.17036e-22 2.63018)
(-4.68547 -7.65357e-22 2.88611)
(-5.14786 0 3.17002)
(-5.67228 0 3.49112)
(-6.24875 -8.16403e-19 3.83521)
(-6.88568 0 4.24265)
(-7.6272 0 4.68584)
(-8.46939 4.32463e-19 5.19415)
(-9.42821 0 5.78895)
(-10.5265 0 6.46636)
(-11.7857 -9.14707e-19 7.24201)
(-13.2333 9.23502e-19 8.13219)
(-14.8968 -1.87974e-18 9.15511)
(-16.8196 0 10.3415)
(-19.0633 9.64874e-19 11.7273)
(-21.6722 0 13.3327)
(-24.6976 0 15.1999)
(-28.2691 -2.01269e-18 17.4297)
(-32.5299 0 20.0752)
(-37.4817 0 23.0798)
(-43.1014 0 26.4879)
(-49.6847 0 30.5825)
(-57.6976 0 35.5926)
(-67.0102 -2.36914e-18 41.1666)
(-76.4313 4.27919e-21 46.3433)
(-84.3011 2.48659e-18 50.1899)
(-89.6123 -2.45372e-18 52.4422)
(-92.5506 0 53.5397)
(-94.0928 0 54.1668)
(-95.232 0 54.8088)
(-96.5131 0 55.6244)
(-98.0369 0 56.5647)
(-99.6772 -1.17922e-21 57.5236)
(-101.265 0 58.4131)
(-102.683 3.6149e-18 59.1878)
(-103.901 -2.29234e-21 59.8519)
(-104.97 0 60.4467)
(-105.975 6.49188e-18 61.0195)
(-106.979 0 61.6013)
(-108.011 -6.03807e-18 62.222)
(-109.09 1.23888e-21 62.8718)
(-110.211 0 63.5391)
(-111.355 0 64.2139)
(-112.5 0 64.8852)
(-113.63 0 65.5455)
(-114.725 -9.64864e-18 66.1841)
(-115.78 0 66.7975)
(-116.766 0 67.3712)
(-117.69 -8.60721e-18 67.908)
(-118.506 0 68.3828)
(-119.247 7.94772e-18 68.813)
(-119.824 -7.62443e-18 69.1496)
(-120.329 0 69.4424)
(-120.584 -2.80334e-17 69.594)
(-120.803 1.39928e-21 69.7194)
(-120.637 -2.56707e-17 69.6308)
(-120.525 1.22684e-17 69.5607)
(-119.83 1.17125e-17 69.1708)
(-119.326 -1.118e-17 68.8719)
(-118.054 -1.06677e-17 68.1417)
(-116.913 -1.0179e-17 67.5039)
(-115.433 1.94112e-17 66.5837)
(-112.689 1.85299e-17 65.1359)
(-112.313 1.76619e-17 64.732)
(-106.47 1.68388e-17 61.5055)
(-107.717 0 62.2588)
(-100.111 0 57.5717)
(5.24797 0 -0.864342)
(5.20527 1.56887e-20 -0.948204)
(5.16411 0 -1.03187)
(5.11065 0 -1.10838)
(5.05084 0 -1.18165)
(4.99078 0 -1.25603)
(4.92769 2.44638e-20 -1.33077)
(4.85635 -2.22493e-20 -1.40282)
(4.77274 2.23969e-20 -1.46834)
(4.67446 -4.16416e-20 -1.52336)
(4.56052 4.03331e-20 -1.5645)
(4.43083 0 -1.59021)
(4.28641 -3.76393e-20 -1.59944)
(4.12881 0 -1.59217)
(3.96003 -3.50733e-20 -1.567)
(3.78125 -3.42144e-20 -1.52504)
(3.59538 0 -1.4688)
(3.40345 0 -1.40326)
(3.20576 3.00874e-20 -1.33309)
(3.00289 0 -1.26146)
(2.79722 0 -1.18894)
(2.59245 -5.07708e-20 -1.11393)
(2.39136 0 -1.03482)
(2.19459 0 -0.951456)
(2.00167 -4.14888e-20 -0.864433)
(1.81172 0 -0.775101)
(1.62369 0 -0.684295)
(1.43756 0 -0.592171)
(1.25323 1.17147e-19 -0.499457)
(1.07018 0 -0.405985)
(0.888679 -3.28572e-22 -0.312463)
(0.708221 5.00497e-23 -0.21944)
(0.529256 3.63257e-20 -0.126509)
(0.351678 -3.03138e-20 -0.0339161)
(0.175719 4.95904e-20 0.0590666)
(0.000659613 2.0473e-20 0.153193)
(-0.17415 0 0.248713)
(-0.349579 0 0.34644)
(-0.527272 1.02304e-20 0.446313)
(-0.707962 -4.41064e-21 0.549168)
(-0.893358 0 0.654899)
(-1.08332 0 0.764704)
(-1.28076 -2.45131e-22 0.879671)
(-1.48512 2.92021e-20 1.00002)
(-1.70069 3.57796e-20 1.12758)
(-1.92548 8.71381e-20 1.26221)
(-2.16747 0 1.40718)
(-2.42172 -2.14042e-22 1.55968)
(-2.69662 0 1.72646)
(-2.99103 0 1.90403)
(-3.31006 -1.35066e-19 2.09855)
(-3.65423 1.48459e-19 2.30908)
(-4.03472 0 2.5439)
(-4.44906 -1.65852e-19 2.798)
(-4.90991 -8.28587e-22 3.08522)
(-5.42082 0 3.40314)
(-6.00167 0 3.76328)
(-6.63925 7.6602e-19 4.1478)
(-7.34288 0 4.60606)
(-8.163 0 5.10319)
(-9.09175 -8.11389e-19 5.672)
(-10.1503 0 6.33399)
(-11.3618 0 7.09304)
(-12.7515 1.71507e-18 7.96161)
(-14.35 -8.6551e-19 8.95858)
(-16.1877 8.80797e-19 10.1047)
(-18.3114 0 11.4343)
(-20.7886 -9.03987e-19 12.9869)
(-23.6698 0 14.7852)
(-27.0121 9.31263e-19 16.8782)
(-30.9514 9.42102e-19 19.3765)
(-35.643 0 22.3294)
(-41.0996 0 25.6812)
(-47.3068 -1.99929e-18 29.4911)
(-54.552 -2.04027e-18 34.0608)
(-63.2821 0 39.591)
(-73.3498 0 45.6452)
(-83.545 4.58296e-18 51.1822)
(-92.1646 -2.32691e-18 55.2553)
(-98.1297 4.59199e-18 57.6462)
(-101.564 0 58.8488)
(-103.431 0 59.5754)
(-104.762 0 60.311)
(-106.154 0 61.2031)
(-107.749 0 62.1967)
(-109.442 -1.16769e-21 63.1859)
(-111.061 0 64.0815)
(-112.467 0 64.8317)
(-113.605 -2.30564e-21 65.4326)
(-114.51 0 65.9218)
(-115.271 6.07209e-18 66.3491)
(-115.965 0 66.7527)
(-116.633 5.64298e-18 67.1692)
(-117.307 1.2622e-21 67.5908)
(-117.983 0 68.0059)
(-118.639 0 68.4034)
(-119.251 0 68.7699)
(-119.799 0 69.096)
(-120.257 -1.48374e-21 69.368)
(-120.616 -8.68593e-18 69.5811)
(-120.842 8.35858e-18 69.7171)
(-120.943 8.03901e-18 69.7796)
(-120.862 0 69.7373)
(-120.642 -7.42222e-18 69.6132)
(-120.172 7.11993e-18 69.3459)
(-119.574 0 69.0017)
(-118.62 1.30887e-17 68.4571)
(-117.6 -2.50607e-17 67.865)
(-116.058 1.19844e-17 66.9852)
(-114.584 0 66.1252)
(-112.355 -1.0937e-17 64.8536)
(-110.384 0 63.7043)
(-107.463 0 62.0213)
(-104.756 9.50185e-18 60.4877)
(-101.59 0 58.5711)
(-97.2316 0 56.2317)
(-95.1531 -1.64854e-17 54.7896)
(-87.7744 -1.57167e-17 50.728)
(-87.5643 -1.49739e-17 50.6095)
(-77.9098 1.42558e-17 44.7547)
(5.18968 0 -0.814375)
(5.15135 -1.4743e-20 -0.888453)
(5.11856 -2.9738e-20 -0.965647)
(5.07323 0 -1.04013)
(5.01682 0 -1.1102)