/*--------------------------------*- C++ -*----------------------------------*\
| =========                 |                                                 |
| \\      /  F ield         | OpenFOAM: The Open Source CFD Toolbox           |
|  \\    /   O peration     | Version:  2412                                  |
|   \\  /    A nd           | Website:  www.openfoam.com                      |
|    \\/     M anipulation  |                                                 |
\*---------------------------------------------------------------------------*/
FoamFile
{
    version     2.0;
    format      ascii;
    arch        "LSB;label=32;scalar=64";
    class       volVectorField;
    location    "0.85";
    object      U_0;
}
// * * * * * * * * * * * * * * * * * * * * * * * * * * * * * * * * * * * * * //

dimensions      [0 1 -1 0 0 0 0];

internalField   nonuniform List<vector> 
12600
(
(19.2149 0 -0.639699)
(7.76093 -3.68524e-20 -1.60535)
(3.27008 -1.67575e-20 -1.65461)
(1.65429 0 -1.21538)
(1.03626 -2.21569e-22 -0.80628)
(0.706735 0 -0.54353)
(0.486158 -3.07056e-20 -0.376124)
(0.327082 0 -0.261386)
(0.208923 0 -0.178005)
(0.119603 0 -0.115461)
(0.0503949 0 -0.0686289)
(-0.00348829 -9.72076e-20 -0.0322552)
(-0.0453569 -9.92794e-20 -0.00359921)
(-0.0783313 0 0.0195094)
(-0.104096 2.01336e-19 0.0364423)
(-0.123028 0 0.0505438)
(-0.137942 2.8712e-22 0.0615486)
(-0.148633 0 0.0698695)
(-0.15632 9.71114e-20 0.076078)
(-0.16124 0 0.0804658)
(-0.164028 0 0.0833699)
(-0.164969 0 0.0850987)
(-0.164218 3.56286e-19 0.0860061)
(-0.162239 -3.46457e-19 0.0860517)
(-0.159398 -1.14312e-22 0.0852906)
(-0.155723 1.64344e-19 0.0840101)
(-0.151384 0 0.0822483)
(-0.146513 0 0.080147)
(-0.14125 0 0.0777535)
(-0.135782 -2.86984e-19 0.075079)
(-0.130136 -5.53675e-19 0.0722349)
(-0.124373 0 0.0692825)
(-0.118575 0 0.0662675)
(-0.112799 -2.47904e-19 0.0632181)
(-0.10708 -2.3856e-19 0.0601606)
(-0.101455 0 0.0571256)
(-0.0959569 0 0.0541404)
(-0.0906259 -4.23894e-19 0.0512285)
(-0.0854889 0 0.0483965)
(-0.0805488 5.78538e-23 0.0456518)
(-0.0758036 -3.75027e-19 0.0430063)
(-0.071264 -3.5978e-19 0.0404712)
(-0.0668976 0 0.038027)
(-0.0626762 -3.30635e-19 0.0356589)
(-0.0585875 -3.16761e-19 0.0333589)
(-0.0546076 6.06784e-19 0.031118)
(-0.0507635 -5.80996e-19 0.0289536)
(-0.0470978 0 0.0268904)
(-0.0436746 5.32006e-19 0.0249661)
(-0.0405947 -5.08813e-19 0.0232376)
(-0.0379364 0 0.0217487)
(-0.0357615 -7.50222e-24 0.020534)
(-0.0340906 4.44233e-19 0.0196027)
(-0.0328567 0 0.0189152)
(-0.0319191 -8.1033e-19 0.0183873)
(-0.0309877 0 0.0178636)
(-0.0296454 0 0.0171057)
(-0.0273496 2.6899e-24 0.0158021)
(-0.0234356 2.17268e-24 0.0135818)
(-0.0173249 6.39949e-19 0.0101195)
(-0.00869539 -6.09423e-19 0.00523088)
(0.00214169 1.15966e-18 -0.000915026)
(0.0141685 0 -0.00776108)
(0.0256423 1.04678e-18 -0.0143371)
(0.0348896 9.93663e-19 -0.0197057)
(0.040921 -1.88638e-18 -0.0232945)
(0.0444747 8.95827e-19 -0.0254923)
(0.0475535 0 -0.0275114)
(0.0532068 0 -0.0309649)
(0.0638023 0 -0.0371917)
(0.0804954 0 -0.0467927)
(0.102926 0 -0.0593048)
(0.127655 -1.31947e-18 -0.073172)
(0.150743 1.24538e-18 -0.0861828)
(0.165813 0 -0.0947809)
(0.170201 0 -0.097143)
(0.161848 1.03421e-18 -0.0924766)
(0.143997 1.44905e-22 -0.08216)
(0.119493 1.82966e-18 -0.0681107)
(0.0932693 0 -0.0531454)
(0.0732252 0 -0.0417208)
(0.0655328 0 -0.0371319)
(0.0737769 3.14075e-22 -0.0414147)
(0.082659 0 -0.0455773)
(0.0513939 0 -0.0264546)
(-0.0470475 1.10999e-18 0.031305)
(-0.230496 4.52424e-22 0.136598)
(-0.457119 0 0.2626)
(-0.640969 0 0.364931)
(-0.602644 -1.92135e-18 0.341509)
(-0.488394 -1.91668e-18 0.2729)
(-0.0156751 -1.99358e-18 0.00465514)
(0.397646 -1.70664e-18 -0.220567)
(0.175826 2.05379e-21 -0.0868086)
(1.80619 3.76518e-21 -1.02134)
(0.992773 5.54106e-19 -0.558906)
(-0.361543 0 0.193622)
(0.205616 0 -0.119326)
(-0.000784163 0 -0.000236132)
(-0.00624304 3.24707e-18 -0.000227156)
(0.218246 -1.38758e-18 -0.124567)
(0.218483 1.37985e-18 -0.125689)
(0.368057 1.19114e-18 -0.208085)
(0.273759 0 -0.148999)
(-0.0431909 0 0.0382778)
(-0.559474 0 0.332529)
(-1.06409 8.60899e-19 0.610771)
(-1.46939 0 0.834984)
(-1.65696 -1.49871e-18 0.940277)
(-1.59186 0 0.899034)
(-1.26217 0 0.707815)
(-0.820397 2.71773e-18 0.45723)
(-0.558239 0 0.309803)
(-0.228343 0 0.123562)
(0.0422633 0 -0.0278597)
(0.125588 -5.03169e-18 -0.0730184)
(0.113629 0 -0.0653763)
(0.138473 4.34743e-18 -0.0777696)
(-0.0286263 0 0.0172209)
(0.0390341 1.0098e-22 -0.0230631)
(30.7102 -1.54227e-20 -0.973586)
(21.368 2.11205e-20 -3.36978)
(13.5088 1.33046e-20 -4.2496)
(8.53754 0 -3.67524)
(5.67513 -1.27591e-20 -2.76376)
(3.94895 2.31971e-20 -2.01876)
(2.82936 3.20309e-20 -1.47599)
(2.04949 -3.72405e-20 -1.0793)
(1.47792 0 -0.781619)
(1.0453 0 -0.552976)
(0.710609 0 -0.375426)
(0.448513 0 -0.235117)
(0.241436 0 -0.123235)
(0.0747096 0 -0.0333086)
(-0.0563793 -7.13403e-22 0.0397444)
(-0.15992 0 0.0966436)
(-0.243747 1.0378e-19 0.142264)
(-0.308749 0 0.178332)
(-0.359362 -2.0178e-19 0.206403)
(-0.39744 1.97929e-19 0.227569)
(-0.425334 0 0.243088)
(-0.44453 1.89442e-19 0.253929)
(-0.456581 -1.85007e-19 0.260646)
(-0.462942 1.79878e-19 0.263744)
(-0.46442 -1.75122e-19 0.263862)
(-0.461484 0 0.26222)
(-0.455234 1.64226e-19 0.258573)
(-0.44617 0 0.253446)
(-0.434975 0 0.247034)
(-0.422072 0 0.239662)
(-0.407829 2.86282e-19 0.231548)
(-0.392586 0 0.222914)
(-0.376674 0 0.213935)
(-0.360353 0 0.204724)
(-0.343816 0 0.195383)
(-0.327242 0 0.186021)
(-0.310795 0 0.176737)
(-0.294636 4.36135e-19 0.167618)
(-0.27888 0 0.158712)
(-0.263575 8.02692e-19 0.150045)
(-0.24875 7.69578e-19 0.141647)
(-0.234463 3.68726e-19 0.13355)
(-0.22064 0 0.125702)
(-0.207208 0 0.118068)
(-0.194142 6.47501e-19 0.110629)
(-0.181386 -6.19565e-19 0.103365)
(-0.169032 5.92511e-19 0.0963402)
(-0.15723 0 0.0896418)
(-0.146193 -5.41372e-19 0.0834007)
(-0.136247 0 0.0778049)
(-0.127656 0 0.0729971)
(-0.120622 -4.7151e-19 0.069088)
(-0.115216 0 0.0661015)
(-0.111228 0 0.0639008)
(-0.108194 8.18719e-19 0.062202)
(-0.105194 0 0.0604602)
(-0.10088 0 0.0578838)
(-0.0934935 4.46241e-24 0.0534479)
(-0.080897 6.74874e-19 0.045933)
(-0.0612097 4.77664e-25 0.0342899)
(-0.0333421 0 0.0179531)
(0.00183484 -1.16064e-18 -0.00248814)
(0.0412498 -1.10168e-18 -0.025198)
(0.079515 0 -0.0470461)
(0.111357 -1.98047e-18 -0.0650638)
(0.133496 -5.66051e-23 -0.0774939)
(0.147987 0 -0.0856871)
(0.160991 8.44848e-19 -0.0934402)
(0.181802 0 -0.106051)
(0.217784 0 -0.127528)
(0.272306 0 -0.159593)
(0.344067 0 -0.200927)
(0.422404 2.59856e-18 -0.245941)
(0.495525 -1.22474e-18 -0.287545)
(0.543673 0 -0.314468)
(0.557925 0 -0.321644)
(0.532029 1.01269e-18 -0.305375)
(0.47469 2.33754e-22 -0.271341)
(0.394956 1.8653e-22 -0.224896)
(0.308527 0 -0.17538)
(0.240851 0 -0.137343)
(0.209401 0 -0.120899)
(0.2244 4.68453e-22 -0.130207)
(0.238299 -1.28667e-18 -0.136641)
(0.122514 1.17835e-18 -0.064294)
(-0.211168 -1.07248e-18 0.135043)
(-0.806248 7.48868e-22 0.484105)
(-1.5145 -9.1618e-19 0.888964)
(-2.05696 0 1.19315)
(-1.90802 1.84676e-18 1.09369)
(-1.51116 0 0.849014)
(-0.0553335 1.91149e-18 -0.00540948)
(1.12434 0 -0.657087)
(0.32606 -2.64362e-18 -0.234364)
(5.58537 -1.03234e-18 -3.2585)
(3.30318 0 -1.81623)
(-0.878805 0 0.534604)
(0.678444 -1.70408e-18 -0.404663)
(0.0233627 1.3648e-18 -0.0054359)
(0.0382522 -3.08449e-18 -0.0305892)
(0.710071 1.31784e-18 -0.415238)
(0.721122 -1.30932e-18 -0.421678)
(1.11243 0 -0.644388)
(0.703688 9.53565e-19 -0.39524)
(-0.413358 0 0.263573)
(-2.03081 0 1.20405)
(-3.49783 -8.12116e-19 2.04523)
(-4.60344 0 2.67736)
(-5.03933 8.60822e-21 2.91876)
(-4.73602 1.90499e-18 2.73038)
(-3.70054 0 2.11875)
(-2.34146 0 1.33598)
(-1.58389 0 0.900066)
(-0.591663 2.63975e-18 0.326139)
(0.201316 -5.10387e-18 -0.126231)
(0.43414 4.73023e-18 -0.251852)
(0.373306 0 -0.216099)
(0.414428 -4.08333e-18 -0.235721)
(-0.103536 0 0.0625394)
(0.145148 7.03851e-18 -0.0855861)
(34.3168 3.28327e-20 -0.829154)
(29.7335 -8.7379e-21 -2.94438)
(23.1703 -3.71257e-21 -4.64604)
(16.9878 0 -5.00705)
(12.2214 -1.5002e-20 -4.47209)
(8.87299 5.86124e-22 -3.65284)
(6.54904 0 -2.87356)
(4.88855 3.53468e-20 -2.22365)
(3.66028 0 -1.70043)
(2.72598 4.26328e-20 -1.28087)
(2.00049 0 -0.94284)
(1.42817 0 -0.669312)
(0.9719 0 -0.44702)
(0.603686 0 -0.266259)
(0.309652 -9.87208e-20 -0.114574)
(0.071051 0 0.00475612)
(-0.121822 0 0.10311)
(-0.276055 0 0.182064)
(-0.399393 9.55794e-20 0.245449)
(-0.496087 -5.34372e-22 0.295448)
(-0.570839 0 0.334238)
(-0.627177 -4.32342e-22 0.363501)
(-0.668134 0 0.384498)
(-0.696172 -1.70427e-19 0.398509)
(-0.712981 0 0.406737)
(-0.720983 0 0.409715)
(-0.721737 -1.55774e-19 0.408399)
(-0.716071 0 0.403864)
(-0.705136 0 0.396934)
(-0.690096 -2.81006e-19 0.38779)
(-0.671688 0 0.377041)
(-0.650681 0 0.365011)
(-0.627761 0 0.352059)
(-0.603482 0 0.338417)
(-0.578264 2.32897e-19 0.324295)
(-0.552496 0 0.309906)
(-0.52653 0 0.295448)
(-0.500695 -4.12905e-19 0.281092)
(-0.475231 0 0.266949)
(-0.450277 -7.60001e-19 0.253076)
(-0.425924 -6.86374e-23 0.239532)
(-0.402301 -3.49091e-19 0.226377)
(-0.379329 0 0.213536)
(-0.356908 0 0.200977)
(-0.335017 -3.06341e-19 0.188684)
(-0.313589 0 0.176646)
(-0.292789 -5.60491e-19 0.164987)
(-0.272879 0 0.15387)
(-0.254228 2.96208e-23 0.143529)
(-0.237394 0 0.134282)
(-0.22283 0 0.126368)
(-0.210889 0 0.119966)
(-0.201702 -4.25142e-19 0.115098)
(-0.194924 0 0.111516)
(-0.189768 0 0.108716)
(-0.184699 0 0.105729)
(-0.177435 0 0.101196)
(-0.165004 1.3379e-18 0.0933743)
(-0.143799 0 0.0802156)
(-0.110617 2.39753e-24 0.06)
(-0.0635408 0 0.0318585)
(-0.00385919 5.47291e-19 -0.003147)
(0.0635144 1.03872e-18 -0.0419184)
(0.129769 0 -0.0792999)
(0.186124 1.86655e-18 -0.110502)
(0.22688 8.84344e-19 -0.132779)
(0.255038 0 -0.148505)
(0.280521 -7.95639e-19 -0.163873)
(0.318385 0 -0.187615)
(0.380825 0 -0.22585)
(0.473177 0 -0.280984)
(0.593323 0 -0.350764)
(0.723899 7.3574e-23 -0.425378)
(0.846066 1.15177e-18 -0.493392)
(0.927319 0 -0.536635)
(0.95226 0 -0.547535)
(0.910515 2.19349e-22 -0.518707)
(0.814698 -1.78623e-18 -0.460614)
(0.679698 -8.38805e-19 -0.381513)
(0.531747 0 -0.297349)
(0.413879 0 -0.232497)
(0.352992 0 -0.202222)
(0.363908 -2.60944e-18 -0.210208)
(0.369521 -6.48962e-22 -0.206107)
(0.155511 -1.10538e-18 -0.0638685)
(-0.42747 0 0.29419)
(-1.43592 -9.167e-19 0.890981)
(-2.60231 8.58918e-19 1.55167)
(-3.45114 0 2.00156)
(-3.16756 0 1.7912)
(-2.47697 1.71552e-18 1.34106)
(-0.102833 0 -0.0567685)
(1.72058 1.53979e-18 -0.997348)
(0.38672 -2.59743e-21 -0.369135)
(8.93245 9.7601e-19 -5.24728)
(5.70924 -5.0057e-19 -3.01088)
(-1.09947 0 0.709403)
(1.1542 1.59475e-18 -0.702125)
(0.0802137 -1.27704e-18 -0.0212012)
(0.129548 2.88337e-18 -0.106567)
(1.20547 0 -0.71353)
(1.23359 -1.22487e-18 -0.726808)
(1.7758 0 -1.01866)
(0.961929 -8.91649e-19 -0.490532)
(-1.02528 6.36839e-19 0.700123)
(-3.67868 0 2.2361)
(-5.94786 7.59125e-19 3.50893)
(-7.5618 0 4.39324)
(-8.08301 2.62046e-18 4.64747)
(-7.46748 -1.78016e-18 4.23775)
(-5.7708 0 3.2235)
(-3.58723 0 1.98113)
(-2.42775 0 1.32893)
(-0.837157 -1.64772e-21 0.417302)
(0.411266 4.76741e-18 -0.273582)
(0.767746 -4.41777e-18 -0.447277)
(0.637826 0 -0.367718)
(0.664317 -3.81475e-18 -0.365878)
(-0.179483 0 0.112639)
(0.273344 -1.20764e-22 -0.165517)
(34.9416 -1.72477e-20 -1.02095)
(33.6337 -4.95692e-21 -2.27516)
(29.8026 7.23167e-21 -4.05448)
(24.6704 -1.49558e-20 -5.18768)
(19.5265 -2.10883e-20 -5.38517)
(15.1249 -4.41135e-20 -4.93808)
(11.6504 0 -4.22362)
(8.98357 0 -3.47548)
(6.9344 0 -2.79337)
(5.34101 -4.03833e-20 -2.20487)
(4.08533 0 -1.70829)
(3.08378 0 -1.29284)
(2.27757 0 -0.946287)
(1.62261 0 -0.658126)
(1.09077 0 -0.41586)
(0.656664 -9.25266e-20 -0.217512)
(0.302058 9.20481e-20 -0.0517921)
(0.0130482 0 0.0834266)
(-0.221447 0 0.194338)
(-0.410034 -1.77416e-19 0.283826)
(-0.560241 1.73407e-19 0.355502)
(-0.678083 -1.69841e-19 0.411738)
(-0.768406 1.65379e-19 0.45511)
(-0.835722 1.61383e-19 0.487451)
(-0.883616 -1.56388e-19 0.510356)
(-0.915652 1.51542e-19 0.524523)
(-0.933764 0 0.531862)
(-0.941023 -1.42437e-19 0.532043)
(-0.938946 0 0.527504)
(-0.928659 2.6596e-19 0.519994)
(-0.912044 0 0.509253)
(-0.890293 0 0.496197)
(-0.864602 0 0.481319)
(-0.835934 -2.29005e-19 0.465005)
(-0.805028 -2.20311e-19 0.447613)
(-0.772565 0 0.429494)
(-0.739157 0 0.410973)
(-0.705362 3.90451e-19 0.392323)
(-0.671606 0 0.373725)
(-0.638158 8.77648e-23 0.355296)
(-0.605207 -3.44303e-19 0.33715)
(-0.572988 0 0.319386)
(-0.541457 0 0.301922)
(-0.510517 0 0.284739)
(-0.480177 0 0.267841)
(-0.45038 -5.53511e-19 0.251243)
(-0.421374 0 0.235144)
(-0.393545 5.05826e-19 0.219792)
(-0.367425 4.83288e-19 0.205535)
(-0.343798 0 0.192824)
(-0.323323 0 0.181988)
(-0.306506 0 0.173268)
(-0.293544 4.01103e-19 0.166671)
(-0.283969 -3.82495e-19 0.161816)
(-0.276684 -7.29276e-19 0.157951)
(-0.269538 0 0.153673)
(-0.259334 -6.62111e-19 0.147029)
(-0.241904 -1.26107e-18 0.13554)
(-0.212199 0 0.116354)
(-0.165701 -1.14194e-18 0.0871269)
(-0.0996265 0 0.0467567)
(-0.0155439 -5.15494e-19 -0.00317044)
(0.0800363 -9.7821e-19 -0.0582982)
(0.17518 0 -0.111541)
(0.257785 -8.78486e-19 -0.156436)
(0.31964 -8.32311e-19 -0.189383)
(0.364275 0 -0.213801)
(0.404783 0 -0.238237)
(0.461453 0 -0.274492)
(0.550942 6.74947e-19 -0.330549)
(0.6803 6.40835e-19 -0.409199)
(0.847023 0 -0.506824)
(1.02747 -1.14855e-18 -0.609769)
(1.1968 -1.08241e-18 -0.702676)
(1.31077 0 -0.760993)
(1.34782 0 -0.774393)
(1.29228 -8.93746e-19 -0.733029)
(1.16009 -2.05612e-22 -0.650576)
(0.970927 0 -0.538536)
(0.76121 0 -0.419689)
(0.591394 0 -0.328076)
(0.495836 0 -0.282316)
(0.490961 -4.44338e-22 -0.283636)
(0.471876 1.13255e-18 -0.258225)
(0.142546 0 -0.0310153)
(-0.70403 0 0.502366)
(-2.12155 0 1.35116)
(-3.70815 8.04509e-19 2.24439)
(-4.79132 0 2.78941)
(-4.34393 1.61295e-18 2.43866)
(-3.35771 -1.60651e-18 1.76587)
(-0.150073 1.67422e-18 -0.147266)
(2.17025 -1.44148e-18 -1.27317)
(0.578692 2.32776e-18 -0.655612)
(11.5215 -9.13425e-19 -6.88723)
(8.12824 4.68386e-19 -4.14063)
(-0.980993 0 0.756261)
(1.6216 0 -0.99958)
(0.177383 -1.19409e-18 -0.0501683)
(0.270527 -1.34781e-18 -0.215657)
(1.69819 -1.15352e-18 -1.0196)
(1.74651 -1.48536e-22 -1.03571)
(2.33189 0 -1.33224)
(1.01199 0 -0.458078)
(-1.8965 -5.95252e-19 1.30021)
(-5.47554 0 3.37486)
(-8.33841 -7.07094e-19 4.96481)
(-10.2383 0 5.98197)
(-10.6813 -8.45497e-21 6.15414)
(-9.68965 0 5.48451)
(-7.40019 -2.01918e-18 4.09396)
(-4.52918 2.21707e-18 2.46678)
(-3.07676 2.32139e-18 1.6546)
(-0.962197 -1.88215e-21 0.437209)
(0.669935 0 -0.45324)
(1.12418 4.12564e-18 -0.655158)
(0.904219 3.88326e-18 -0.519282)
(0.885463 3.56208e-18 -0.47828)
(-0.248293 0 0.15951)
(0.428852 -1.40687e-22 -0.263626)
(34.5931 0 -1.50617)
(34.7116 -3.61176e-21 -2.05838)
(33.2095 0 -3.37883)
(30.0782 1.41303e-20 -4.69766)
(25.9597 3.33346e-20 -5.46993)
(21.6153 2.14696e-20 -5.59452)
(17.5936 0 -5.23933)
(14.1404 0 -4.62956)
(11.2847 -3.47669e-20 -3.93739)
(8.95821 -3.75728e-20 -3.26061)
(7.06831 3.97439e-20 -2.64286)
(5.52915 8.26873e-20 -2.09803)
(4.27055 8.49098e-20 -1.62602)
(3.23613 0 -1.22192)
(2.38508 0 -0.875741)
(1.68322 1.74581e-19 -0.584518)
(1.10358 -3.52623e-22 -0.338343)
(0.625857 0 -0.13265)
(0.233004 -8.47646e-20 0.0389395)
(-0.0882049 -1.66773e-19 0.18035)
(-0.348977 -1.63944e-19 0.296062)
(-0.558809 0 0.389336)
(-0.725215 -1.56337e-19 0.463506)
(-0.85502 1.51921e-19 0.521189)
(-0.953534 1.4782e-19 0.564777)
(-1.02551 -1.30548e-22 0.59674)
(-1.07558 0 0.618613)
(-1.1074 1.51948e-22 0.630829)
(-1.1238 0 0.634116)
(-1.12774 2.50855e-19 0.630488)
(-1.12037 0 0.623303)
(-1.10427 0 0.611998)
(-1.08121 0 0.597664)
(-1.0527 2.16297e-19 0.58085)
(-1.01992 0 0.562077)
(-0.983957 0 0.541868)
(-0.945767 0 0.520705)
(-0.906216 0 0.498992)
(-0.865981 -3.53412e-19 0.477002)
(-0.825526 6.77847e-19 0.454923)
(-0.78519 0 0.432944)
(-0.745355 3.11172e-19 0.411223)
(-0.706061 0 0.389682)
(-0.66725 0 0.368339)
(-0.628991 0 0.347231)
(-0.591265 5.9574e-23 0.32642)
(-0.55441 0 0.306197)
(-0.518954 -4.76942e-19 0.286906)
(-0.485591 0 0.269019)
(-0.455337 0 0.253118)
(-0.429061 -4.1523e-19 0.239622)
(-0.407428 0 0.228822)
(-0.390712 0 0.220694)
(-0.378333 4.67612e-24 0.214703)
(-0.368893 6.8689e-19 0.209824)
(-0.359645 0 0.204198)
(-0.346494 2.04098e-24 0.195257)
(-0.324111 1.18718e-18 0.179786)
(-0.286047 0 0.15416)
(-0.226492 5.37331e-19 0.115475)
(-0.141773 0 0.0624903)
(-0.0335942 4.84951e-19 -0.00261889)
(0.0902017 9.20087e-19 -0.07424)
(0.214893 0 -0.143478)
(0.32526 8.26107e-19 -0.202394)
(0.410488 -4.10374e-23 -0.246713)
(0.474151 0 -0.280941)
(0.531918 0 -0.315777)
(0.608653 0 -0.365772)
(0.725175 -1.26801e-18 -0.440386)
(0.890067 -3.74253e-23 -0.54246)
(1.10081 0 -0.666933)
(1.32828 1.07849e-18 -0.796439)
(1.54282 2.03224e-18 -0.912102)
(1.68953 0 -0.983667)
(1.74051 0 -0.998554)
(1.67425 0 -0.944519)
(1.50863 -1.97697e-22 -0.838128)
(1.26733 0 -0.693609)
(0.996494 0 -0.540746)
(0.773799 0 -0.422873)
(0.639133 0 -0.360184)
(0.606775 1.14729e-18 -0.349082)
(0.546554 1.06261e-18 -0.287661)
(0.0839684 0 0.0425722)
(-1.03969 0 0.767413)
(-2.85725 0 1.86602)
(-4.81619 -2.24112e-22 2.95732)
(-6.05714 0 3.53161)
(-5.42051 -1.50997e-18 3.00703)
(-4.14785 0 2.10001)
(-0.188205 -1.56688e-18 -0.281031)
(2.47555 0 -1.46409)
(1.21305 -1.09029e-18 -1.24328)
(13.0741 0 -7.97431)
(10.4594 0 -5.1536)
(-0.547871 0 0.663305)
(2.07355 0 -1.2876)
(0.319392 1.11652e-18 -0.0957173)
(0.452941 0 -0.361688)
(2.1838 1.07836e-18 -1.32921)
(2.25039 1.07067e-18 -1.34032)
(2.7735 0 -1.55775)
(0.859433 0 -0.262378)
(-2.98694 0 2.08358)
(-7.35156 0 4.59858)
(-10.5911 1.6907e-21 6.35688)
(-12.5834 0 7.36351)
(-12.8235 -2.25725e-18 7.35227)
(-11.4292 0 6.3884)
(-8.63084 3.76524e-18 4.67155)
(-5.22705 -2.0707e-18 2.76366)
(-3.57264 -2.168e-18 1.85526)
(-1.00263 -2.14765e-18 0.377596)
(0.963222 0 -0.666284)
(1.49931 0 -0.873769)
(1.17207 -7.25181e-18 -0.66766)
(1.08657 3.32715e-18 -0.568354)
(-0.300205 3.06561e-18 0.198567)
(0.613004 -2.86409e-18 -0.383347)
(34.1427 0 -1.96593)
(34.5502 3.30285e-20 -2.18315)
(34.3467 0 -2.96854)
(32.9827 0 -4.06122)
(30.4384 0 -5.03597)
(27.0828 0 -5.60827)
(23.3919 0 -5.71329)
(19.7555 3.0117e-20 -5.43874)
(16.4156 3.28055e-20 -4.92547)
(13.4799 7.07949e-20 -4.30013)
(10.9645 -7.48133e-20 -3.65039)
(8.83767 -7.80452e-20 -3.02697)
(7.05086 -8.01476e-20 -2.45448)
(5.55294 0 -1.94302)
(4.2995 0 -1.49166)
(3.25147 -1.64074e-19 -1.10067)
(2.37555 -1.63344e-19 -0.763496)
(1.64495 0 -0.475857)
(1.03697 8.00148e-20 -0.231876)
(0.533433 1.57424e-19 -0.0265406)
(0.118307 0 0.144447)
(-0.221334 1.5061e-19 0.285528)
(-0.496515 0 0.400454)
(-0.716994 -2.74439e-22 0.492768)
(-0.890663 -1.39057e-19 0.565418)
(-1.02466 -8.92503e-23 0.620989)
(-1.1249 0 0.66209)
(-1.19641 1.26863e-19 0.691639)
(-1.2446 -2.44879e-19 0.709861)
(-1.27275 -4.73098e-19 0.717377)
(-1.28498 -2.28123e-19 0.715331)
(-1.28273 0 0.709183)
(-1.26919 -2.11775e-19 0.698254)
(-1.24668 0 0.683403)
(-1.21695 0 0.665416)
(-1.18161 0 0.64501)
(-1.14208 0 0.622853)
(-1.09965 0 0.599506)
(-1.05532 1.00972e-22 0.575359)
(-1.00983 -3.19418e-19 0.550691)
(-0.963728 0 0.525789)
(-0.917606 -5.86414e-19 0.500891)
(-0.871646 0 0.475935)
(-0.82587 0 0.450999)
(-0.780446 0 0.426172)
(-0.735423 4.91676e-19 0.401581)
(-0.691247 0 0.377631)
(-0.648598 0 0.354772)
(-0.608339 0 0.333608)
(-0.571717 0 0.314856)
(-0.539819 7.8171e-19 0.299014)
(-0.513476 0 0.286416)
(-0.493048 0 0.276984)
(-0.477859 3.39032e-19 0.270012)
(-0.466222 0 0.26417)
(-0.454823 0 0.257121)
(-0.438701 1.17267e-18 0.245668)
(-0.411408 -5.58194e-19 0.225864)
(-0.365163 0 0.193356)
(-0.292909 0 0.144763)
(-0.190078 0 0.0788071)
(-0.0583748 -4.55793e-19 -0.00167126)
(0.0933045 0 -0.0898119)
(0.247827 0 -0.175038)
(0.387113 -1.55205e-18 -0.248129)
(0.497681 1.46981e-18 -0.304313)
(0.582646 0 -0.349204)
(0.659557 0 -0.395491)
(0.757122 0 -0.460138)
(0.900031 5.95035e-19 -0.553676)
(1.09828 -5.64776e-19 -0.678688)
(1.34982 -1.07034e-18 -0.828602)
(1.62094 -1.01175e-18 -0.982639)
(1.87834 -9.53168e-19 -1.11891)
(2.05769 8.95595e-19 -1.2022)
(2.12478 0 -1.21796)
(2.05183 0 -1.15136)
(1.85699 7.37583e-19 -1.02158)
(1.56688 0 -0.845366)
(1.2367 0 -0.659629)
(0.961008 0 -0.516507)
(0.783199 0 -0.435949)
(0.712091 0 -0.405737)
(0.591835 -1.99101e-18 -0.294261)
(-0.023323 0 0.158706)
(-1.43505 -8.30864e-19 1.09079)
(-3.63511 0 2.43227)
(-5.90628 -3.27149e-22 3.67776)
(-7.2201 1.36707e-18 4.21503)
(-6.37292 0 3.48952)
(-4.83156 0 2.34053)
(-0.210345 0 -0.461288)
(2.59347 0 -1.57957)
(2.5153 1.02478e-18 -2.24944)
(13.401 0 -8.41446)
(12.5842 0 -6.01334)
(0.168384 0 0.469074)
(2.50954 0 -1.55917)
(0.509483 0 -0.159491)
(0.6726 0 -0.538157)
(2.65624 0 -1.63953)
(2.73246 0 -1.63128)
(3.07952 -8.70621e-19 -1.69366)
(0.494759 0 0.0888907)
(-4.26865 0 3.01426)
(-9.23408 0 5.85233)
(-12.6207 6.1556e-19 7.63314)
(-14.5274 0 8.5233)
(-14.4647 1.05048e-18 8.27881)
(-12.6766 0 7.01634)
(-9.47822 -7.2075e-21 5.02513)
(-5.71346 0 2.93822)
(-3.92861 2.01835e-18 1.97101)
(-0.985232 0 0.271895)
(1.2804 0 -0.901405)
(1.88894 0 -1.09927)
(1.44 3.38526e-18 -0.812515)
(1.27172 -6.21296e-18 -0.643896)
(-0.326767 -5.72381e-18 0.223385)
(0.826313 -2.67333e-18 -0.524518)
(33.8142 0 -2.25868)
(34.1095 -3.54073e-20 -2.39343)
(34.3414 0 -2.82856)
(34.0188 0 -3.58556)
(32.8322 -2.72654e-20 -4.46451)
(30.7758 -2.67735e-20 -5.2127)
(28.0465 2.76358e-20 -5.66224)
(24.9203 -8.70346e-20 -5.76448)
(21.6689 0 -5.56089)
(18.5085 2.40423e-23 -5.13707)
(15.5793 3.51518e-20 -4.58397)
(12.9512 0 -3.97595)
(10.6432 0 -3.3644)
(8.64365 0 -2.78154)
(6.92698 0 -2.24294)
(5.46235 3.17179e-22 -1.75823)
(4.21801 2.80407e-22 -1.32825)
(3.1651 7.59062e-20 -0.952194)
(2.27749 7.49682e-20 -0.626519)
(1.53272 0 -0.347203)
(0.910811 -1.44788e-19 -0.110134)
(0.39486 -1.41953e-19 0.0894887)
(-0.0301278 0 0.255306)
(-0.377004 -2.21786e-22 0.391645)
(-0.656795 1.61305e-22 0.501984)
(-0.879196 -1.27173e-19 0.589726)
(-1.05271 0 0.6578)
(-1.18472 0 0.708811)
(-1.28119 2.30727e-19 0.74583)
(-1.34818 2.16307e-22 0.771129)
(-1.39086 4.29656e-19 0.783137)
(-1.41326 0 0.783897)
(-1.41828 3.98838e-19 0.779413)
(-1.40921 0 0.769488)
(-1.38882 0 0.7548)
(-1.35938 -1.77251e-19 0.736404)
(-1.32294 0 0.715188)
(-1.28131 -3.2678e-19 0.691893)
(-1.23595 9.82575e-23 0.667052)
(-1.18798 3.00539e-19 0.641057)
(-1.13822 0 0.614321)
(-1.08756 5.92583e-23 0.587185)
(-1.03638 0 0.559622)
(-0.984845 0 0.53179)
(-0.93327 0 0.503852)
(-0.881807 0 0.476024)
(-0.83103 0 0.448838)
(-0.781784 4.22351e-19 0.422866)
(-0.73511 0 0.398852)
(-0.692485 0 0.377651)
(-0.655221 -3.67509e-19 0.359832)
(-0.62432 0 0.345758)
(-0.600244 -3.34292e-19 0.335278)
(-0.582238 -3.18662e-19 0.327488)
(-0.568347 6.07315e-19 0.32073)
(-0.554721 0 0.312163)
(-0.535579 -5.50904e-19 0.297951)
(-0.503422 -5.24396e-19 0.273431)
(-0.44922 0 0.233579)
(-0.364743 0 0.174633)
(-0.244544 0 0.0953972)
(-0.0901969 4.27962e-19 -0.000536026)
(0.0886306 0 -0.10508)
(0.272822 0 -0.206083)
(0.441727 7.2836e-19 -0.293262)
(0.579179 -1.37936e-18 -0.36153)
(0.687312 0 -0.417637)
(0.784815 0 -0.476094)
(0.903456 0 -0.555932)
(1.07149 0 -0.668366)
(1.30026 -5.29544e-19 -0.815473)
(1.58878 1.00355e-18 -0.989093)
(1.89974 0 -1.16544)
(2.19744 0 -1.32004)
(2.40947 -8.39353e-19 -1.41345)
(2.49548 0 -1.42934)
(2.42059 -7.37356e-19 -1.3508)
(2.20186 6.91343e-19 -1.19876)
(1.86756 0 -0.992191)
(1.48098 0 -0.775284)
(1.15304 0 -0.608306)
(0.929009 0 -0.508899)
(0.808498 0 -0.451025)
(0.607396 9.32187e-19 -0.274457)
(-0.180638 0 0.321772)
(-1.88808 1.55588e-18 1.47435)
(-4.44366 0 3.04404)
(-6.95548 -4.58568e-22 4.39035)
(-8.25804 -2.73795e-21 4.8212)
(-7.18945 0 3.87323)
(-5.3976 1.30328e-18 2.47739)
(-0.213979 0 -0.684737)
(2.46468 0 -1.59784)
(4.46613 -1.91879e-18 -3.6351)
(12.5913 0 -8.2292)
(14.4106 0 -6.70472)
(1.10551 0 0.203068)
(2.93704 0 -1.81139)
(0.749121 0 -0.242394)
(0.921684 0 -0.741957)
(3.10978 0 -1.94661)
(3.17874 0 -1.89727)
(3.24366 8.1337e-19 -1.71842)
(-0.0705397 0 0.605142)
(-5.68737 0 4.07167)
(-11.0368 0 7.08438)
(-14.356 -5.7028e-19 8.74434)
(-16.053 -6.85562e-19 9.42675)
(-15.6521 -9.64217e-19 8.89591)
(-13.5091 1.31708e-18 7.36187)
(-10.0253 -7.17e-21 5.16864)
(-6.06324 -1.79182e-18 3.00711)
(-4.17824 -3.76583e-18 2.00235)
(-0.958043 0 0.136988)
(1.60502 3.61936e-18 -1.15299)
(2.28775 3.35727e-18 -1.32855)
(1.70874 0 -0.952178)
(1.45038 2.9002e-18 -0.706232)
(-0.320026 2.67152e-18 0.229154)
(1.06602 2.49535e-18 -0.686736)
(33.5719 0 -2.41842)
(33.7277 1.75355e-20 -2.56186)
(33.9738 0 -2.83913)
(34.0557 0 -3.33217)
(33.6891 2.56732e-20 -3.99783)
(32.7029 2.52047e-20 -4.70003)
(31.0643 -2.60118e-20 -5.289)
(28.8538 8.41186e-20 -5.65802)
(26.2243 0 -5.76425)
(23.3578 3.17739e-20 -5.62176)
(20.4287 -6.5855e-20 -5.27997)
(17.5795 0 -4.80133)
(14.9095 6.99483e-20 -4.24502)
(12.4755 0 -3.65982)
(10.3014 7.18396e-20 -3.07956)
(8.38794 7.23303e-20 -2.52821)
(6.72208 7.20617e-20 -2.0187)
(5.28401 -7.14531e-20 -1.55803)
(4.05117 -1.4094e-19 -1.14821)
(3.0011 0 -0.788501)
(2.11215 1.36294e-19 -0.476704)
(1.36449 0 -0.209203)
(0.740071 0 0.0175409)
(0.222661 -1.26742e-19 0.207717)
(-0.202035 2.46248e-19 0.365136)
(-0.546766 0 0.493575)
(-0.822857 0 0.596517)
(-1.04019 0 0.677286)
(-1.20751 -2.16684e-19 0.738629)
(-1.33219 2.09416e-19 0.783472)
(-1.42076 -1.61942e-22 0.816065)
(-1.4805 1.94637e-19 0.832845)
(-1.51509 -3.75005e-19 0.837863)
(-1.52933 1.80356e-19 0.835511)
(-1.52631 -1.73422e-19 0.827132)
(-1.50955 7.322e-23 0.813277)
(-1.48186 0 0.795238)
(-1.44576 3.0734e-19 0.773954)
(-1.40332 2.94791e-19 0.750126)
(-1.35614 -2.82615e-19 0.724285)
(-1.30545 0 0.696998)
(-1.2525 2.59386e-19 0.66874)
(-1.19799 2.48272e-19 0.639535)
(-1.14227 2.37582e-19 0.609648)
(-1.08587 2.27261e-19 0.579337)
(-1.02909 0 0.548926)
(-0.972659 0 0.519097)
(-0.917603 -3.71612e-23 0.490558)
(-0.865146 0 0.464199)
(-0.817 0 0.441015)
(-0.77471 -3.45201e-19 0.421639)
(-0.739459 3.29269e-19 0.406451)
(-0.711821 3.1396e-19 0.395202)
(-0.690988 3.77515e-24 0.386768)
(-0.674762 -3.86623e-24 0.379132)
(-0.658806 0 0.36893)
(-0.636575 0 0.351685)
(-0.599609 9.84444e-19 0.322041)
(-0.53774 0 0.274377)
(-0.441663 0 0.204661)
(-0.305084 -4.23022e-19 0.111912)
(-0.129332 0 0.000561754)
(0.0754527 0 -0.120081)
(0.288613 7.21559e-19 -0.23642)
(0.487273 -6.83197e-19 -0.337316)
(0.652612 1.29353e-18 -0.417558)
(0.785263 0 -0.485069)
(0.904303 -5.8065e-19 -0.556021)
(1.04373 0 -0.651191)
(1.23507 0 -0.782113)
(1.49101 9.92477e-19 -0.950156)
(1.81223 0 -1.14552)
(2.1589 0 -1.34184)
(2.49413 0 -1.5125)
(2.73894 0 -1.61454)
(2.84692 0 -1.63023)
(2.77577 6.90483e-19 -1.54045)
(2.53973 1.81899e-22 -1.3676)
(2.16723 -6.07572e-19 -1.13251)
(1.72837 5.70915e-19 -0.88664)
(1.34975 0 -0.697537)
(1.07681 0 -0.578406)
(0.894862 0 -0.48613)
(0.592302 0 -0.225625)
(-0.389042 0 0.535278)
(-2.39467 7.2876e-22 1.91823)
(-5.26792 0 3.69279)
(-7.93952 -6.16103e-19 5.07813)
(-9.1528 -3.00075e-21 5.33782)
(-7.86449 0 4.15516)
(-5.83275 -1.21857e-18 2.50347)
(-0.213127 0 -0.934739)
(2.01635 1.1185e-18 -1.50752)
(6.73403 -2.36719e-21 -5.1902)
(11.0292 0 -7.62148)
(15.9045 0 -7.24548)
(2.19846 0 -0.0963429)
(3.36877 0 -2.0451)
(1.03885 9.10092e-19 -0.344299)
(1.19267 0 -0.967326)
(3.53849 0 -2.24634)
(3.57338 8.73815e-19 -2.1255)
(3.25482 0 -1.62587)
(-0.822724 -6.48127e-19 1.27803)
(-7.18548 4.65044e-19 5.21564)
(-12.675 0 8.23737)
(-15.7476 1.06191e-18 9.65662)
(-17.1598 6.76496e-21 10.0833)
(-16.4193 1.79167e-18 9.26715)
(-13.9944 -1.22978e-18 7.50159)
(-10.3466 -1.51715e-18 5.17242)
(-6.33 1.67291e-18 3.02163)
(-4.33652 1.75639e-18 1.97122)
(-0.968719 1.74126e-18 0.00582976)
(1.91968 -3.37875e-18 -1.41138)
(2.68989 -3.13396e-18 -1.55787)
(1.9789 -2.9504e-18 -1.08685)
(1.62995 -2.70841e-18 -0.761614)
(-0.273433 0 0.211368)
(1.3275 0 -0.86746)
(33.3575 0 -2.51055)
(33.4329 1.89784e-20 -2.66732)
(33.5969 0 -2.88708)
(33.7486 0 -3.2251)
(33.7272 0 -3.69716)
(33.3754 0 -4.25966)
(32.5777 2.87099e-20 -4.82598)
(31.2825 -2.71861e-20 -5.30115)
(29.5054 2.92479e-20 -5.61236)
(27.3185 -5.93477e-20 -5.72309)
(24.8322 6.19066e-20 -5.63204)
(22.1737 0 -5.36422)
(19.4683 -6.57547e-20 -4.95923)
(16.8239 0 -4.46199)
(14.3217 -6.75372e-20 -3.9137)
(12.0149 -6.74055e-20 -3.34984)
(9.93079 0 -2.79657)
(8.07744 0 -2.27226)
(6.44989 6.61632e-20 -1.78809)
(5.0355 0 -1.34999)
(3.81737 0 -0.960276)
(2.77691 -1.24874e-19 -0.618377)
(1.89535 0 -0.322429)
(1.15439 0 -0.0693052)
(0.537093 -1.15692e-19 0.144554)
(0.0276865 0 0.322809)
(-0.388089 0 0.469253)
(-0.72307 0 0.587604)
(-0.988742 4.07202e-19 0.68115)
(-1.19518 0 0.753139)
(-1.35147 -1.30741e-22 0.806411)
(-1.46461 -1.42862e-22 0.845795)
(-1.54341 1.76171e-19 0.868621)
(-1.59255 -1.69501e-19 0.87856)
(-1.61768 3.25874e-19 0.878779)
(-1.62226 1.56609e-19 0.872591)
(-1.61063 0 0.860255)
(-1.58614 0 0.843236)
(-1.55169 2.7678e-19 0.822404)
(-1.50952 -2.65351e-19 0.798442)
(-1.4614 0 0.772101)
(-1.40906 0 0.744032)
(-1.35365 -4.78643e-23 0.714324)
(-1.29578 -2.23127e-19 0.683377)
(-1.23627 -2.13416e-19 0.65157)
(-1.17562 -4.08032e-19 0.619351)
(-1.11474 0 0.587581)
(-1.05488 -3.6052e-23 0.557109)
(-0.997447 0 0.528987)
(-0.944398 0 0.50435)
(-0.897519 3.23999e-19 0.483887)
(-0.858182 -3.09016e-19 0.467981)
(-0.827095 0 0.456264)
(-0.803422 2.80783e-19 0.447363)
(-0.784763 -3.25853e-24 0.438879)
(-0.766349 0 0.426908)
(-0.740952 0 0.406334)
(-0.699257 -9.23344e-19 0.371148)
(-0.6301 0 0.31522)
(-0.523221 0 0.234376)
(-0.37154 7.93298e-19 0.127986)
(-0.176026 0 0.00141038)
(0.0530093 0 -0.13481)
(0.293826 -1.35274e-18 -0.265789)
(0.521714 6.40313e-19 -0.379709)
(0.715291 -6.06115e-19 -0.471433)
(0.873205 0 -0.550115)
(1.01418 5.44022e-19 -0.633449)
(1.17358 0 -0.743687)
(1.38595 -4.89754e-19 -0.892347)
(1.6653 -4.64765e-19 -1.07993)
(2.01469 0 -1.29497)
(2.39278 0 -1.50896)
(2.7627 7.84293e-19 -1.6935)
(3.04041 7.36678e-19 -1.80281)
(3.17377 0 -1.81793)
(3.11265 0 -1.718)
(2.86692 -1.21215e-18 -1.52616)
(2.46356 5.6856e-19 -1.26481)
(1.97773 -1.06852e-18 -0.992602)
(1.55072 0 -0.783306)
(1.22671 0 -0.6433)
(0.972095 0 -0.507289)
(0.545717 0 -0.143935)
(-0.648578 0 0.802498)
(-2.94816 6.31918e-22 2.42068)
(-6.09005 0 4.36723)
(-8.83512 0 5.72414)
(-9.8962 -3.29092e-21 5.75657)
(-8.40196 0 4.33508)
(-6.12339 -1.13086e-18 2.41168)
(-0.250244 0 -1.17354)