/*--------------------------------*- C++ -*----------------------------------*\
| =========                 |                                                 |
| \\      /  F ield         | OpenFOAM: The Open Source CFD Toolbox           |
|  \\    /   O peration     | Version:  2412                                  |
|   \\  /    A nd           | Website:  www.openfoam.com                      |
|    \\/     M anipulation  |                                                 |
\*---------------------------------------------------------------------------*/
FoamFile
{
    version     2.0;
    format      ascii;
    arch        "LSB;label=32;scalar=64";
    class       surfaceScalarField;
    location    "1.215";
    object      phi_0;
}
// * * * * * * * * * * * * * * * * * * * * * * * * * * * * * * * * * * * * * //

dimensions      [0 3 -1 0 0 0 0];

oriented        oriented;

internalField   nonuniform List<scalar> 
24930
(
0.0155689
0.0207639
-0.0363301
0.00641036
0.00915871
0.0029602
0.00345017
0.00166401
0.00129621
0.00107369
0.000590348
0.000727789
0.00034593
0.000494616
0.000233208
0.000327072
0.000167576
0.000202538
0.000124561
0.000108208
9.43598e-05
3.4957e-05
7.32877e-05
-2.20668e-05
5.70612e-05
-6.68905e-05
4.48493e-05
-0.000102161
3.52785e-05
-0.000128881
2.66961e-05
-0.000150281
2.13718e-05
-0.000166034
1.57131e-05
-0.000177977
1.19078e-05
-0.000186326
8.30567e-06
-0.000191844
5.50379e-06
-0.000194942
3.08873e-06
-0.00019592
9.59587e-07
-0.000195435
-4.79556e-07
-0.000193405
-2.03833e-06
-0.000190292
-3.19464e-06
-0.000186111
-4.17445e-06
-0.000181313
-4.87845e-06
-0.000175833
-5.50883e-06
-0.000169845
-5.98666e-06
-0.000163598
-6.27893e-06
-0.000157088
-6.47871e-06
-0.000150434
-6.66546e-06
-0.000143782
-6.69739e-06
-0.000137112
-6.68173e-06
-0.000130522
-6.62329e-06
-0.000124074
-6.47226e-06
-0.000117801
-6.28459e-06
-0.000111759
-6.08016e-06
-0.000105968
-5.817e-06
-0.000100454
-5.54101e-06
-9.52795e-05
-5.21815e-06
-9.04136e-05
-4.91957e-06
-8.58635e-05
-4.60703e-06
-8.15957e-05
-4.31616e-06
-7.76022e-05
-4.04565e-06
-7.38666e-05
-3.76472e-06
-7.04024e-05
-3.47728e-06
-6.72736e-05
-3.14598e-06
-6.45148e-05
-2.76052e-06
-6.22317e-05
-2.2951e-06
-6.05093e-05
-1.73835e-06
-5.94205e-05
-1.11435e-06
-5.90697e-05
-3.96274e-07
-5.94605e-05
3.52001e-07
-6.0588e-05
1.09284e-06
-6.23554e-05
1.74406e-06
-6.43791e-05
2.01433e-06
-6.6128e-05
1.70141e-06
-6.66364e-05
4.65932e-07
-6.47561e-05
-1.88423e-06
-5.89382e-05
-5.84299e-06
-4.75508e-05
-1.13392e-05
-2.96426e-05
-1.79033e-05
-5.67634e-06
-2.39566e-05
2.14992e-05
-2.71511e-05
4.65479e-05
-2.50675e-05
6.24709e-05
-1.59261e-05
6.3872e-05
-1.37699e-06
5.03536e-05
1.35106e-05
2.70856e-05
2.32889e-05
3.16652e-06
2.39538e-05
-1.41782e-05
1.7347e-05
-2.18788e-05
7.74865e-06
-1.95919e-05
-2.28015e-06
-9.92528e-06
-9.66061e-06
5.65572e-06
-1.55595e-05
2.37708e-05
-1.81682e-05
4.64052e-05
-2.26408e-05
7.26037e-05
-2.62239e-05
0.000107806
-3.52266e-05
0.000151107
-4.3259e-05
0.000197889
-4.67871e-05
0.000229282
-3.13198e-05
0.000221036
8.18644e-06
0.000181377
3.96125e-05
0.000154935
2.64652e-05
0.00015112
3.85336e-06
0.000125033
2.61476e-05
3.71117e-05
8.79911e-05
-0.00013043
0.00016762
-0.000388905
0.000258484
-0.000755333
0.000366486
-0.00125953
0.000504196
-0.00181956
0.000560013
-0.00220069
0.000381185
-0.00237242
0.000171791
-0.00252871
0.000156332
-0.00240055
-0.00012805
-0.000917057
-0.00148347
0.000900916
-0.00181797
-0.0010496
0.00195053
0.00228573
-0.00333531
0.00530926
-0.0030235
-0.000234594
0.00554385
-0.000306206
7.16579e-05
0.000482549
-0.000788745
0.000231436
0.000251125
0.00195147
-0.00172004
0.00189465
5.69224e-05
0.00189676
-1.84647e-06
0.00307312
-0.00117634
0.00442648
-0.00135329
0.00464192
-0.000215445
0.00455833
8.39074e-05
0.00234963
0.00220873
-0.000699878
0.00304948
0.000296177
-0.000996067
0.00366069
-0.00336449
0.00472281
-0.00106209
0.000589513
0.0329779
0.0296548
-0.0418687
0.0221111
0.0200253
0.0139763
0.0115848
0.00898321
0.00628923
0.00605197
0.00352156
0.00425059
0.00214731
0.00305297
0.00143084
0.00220391
0.00101668
0.00157568
0.000752853
0.00109685
0.000573254
0.000725439
0.000444757
0.000433294
0.00034924
0.000201913
0.000276233
2.09801e-05
0.000216211
-0.000132926
0.000180575
-0.000254604
0.000143042
-0.000350177
0.000111279
-0.000425515
8.72933e-05
-0.000483764
6.65889e-05
-0.000527888
4.96571e-05
-0.000560173
3.54094e-05
-0.000582152
2.29593e-05
-0.00059599
1.33143e-05
-0.000602605
4.70877e-06
-0.000603512
-2.36512e-06
-0.000599416
-8.16691e-06
-0.000591235
-1.30363e-05
-0.00057971
-1.7034e-05
-0.000565517
-2.00868e-05
-0.000549291
-2.24929e-05
-0.000531416
-2.42734e-05
-0.000512378
-2.55979e-05
-0.000492638
-2.63861e-05
-0.000472379
-2.68489e-05
-0.000451902
-2.70425e-05
-0.000431477
-2.68712e-05
-0.00041135
-2.63606e-05
-0.000391726
-2.56797e-05
-0.000372746
-2.47702e-05
-0.000354542
-2.37245e-05
-0.000337294
-2.24626e-05
-0.000320972
-2.12444e-05
-0.000305575
-2.0027e-05
-0.000291077
-1.88175e-05
-0.000277438
-1.76904e-05
-0.000264634
-1.65647e-05
-0.000252747
-1.5338e-05
-0.00024193
-1.39567e-05
-0.000232378
-1.22911e-05
-0.000224413
-1.02533e-05
-0.000218348
-7.79922e-06
-0.000214499
-4.94384e-06
-0.00021311
-1.78918e-06
-0.000214277
1.53257e-06
-0.000217947
4.78088e-06
-0.000223599
7.36404e-06
-0.000230054
8.46341e-06
-0.000235341
6.99187e-06
-0.00023625
1.37353e-06
-0.000228739
-9.34805e-06
-0.000207505
-2.70852e-05
-0.000167153
-5.16517e-05
-0.000104479
-8.05702e-05
-2.0958e-05
-0.000107501
7.35191e-05
-0.000121609
0.000161485
-0.000113047
0.000219107
-7.3578e-05
0.000227152
-9.41498e-06
0.000182631
5.80177e-05
0.000101994
0.000103912
1.63071e-05
0.00010969
-4.79858e-05
8.16087e-05
-7.82599e-05
3.8057e-05
-7.3482e-05
-7.05067e-06
-4.22906e-05
-4.08949e-05
7.43154e-06
-6.52391e-05
6.62388e-05
-7.70163e-05
0.000136854
-9.32439e-05
0.000220523
-0.000109858
0.000333461
-0.00014818
0.000477906
-0.000187684
0.000638265
-0.00020713
0.000755502
-0.000148637
0.000747107
1.6578e-05
0.000628836
0.00015788
0.000537357
0.000117945
0.000508493
3.27213e-05
0.000394802
0.000139818
5.21207e-05
0.000430594
-0.000575178
0.000794953
-0.00152014
0.00120336
-0.00281166
0.001658
-0.00452935
0.0022219
-0.00640056
0.00243118
-0.00761008
0.00159072
-0.00804753
0.000609189
-0.00825745
0.0003662
-0.00780263
-0.000582914
-0.00276358
-0.00652253
0.00283995
-0.00742148
-0.00413622
0.00892672
0.00727729
-0.0147488
0.0182161
-0.0139623
0.000499005
0.0232609
-0.00072383
0.00129449
0.00148798
-0.00300055
0.00108361
0.000655508
0.00654857
-0.00718498
0.00634688
0.000258577
0.00627066
7.43863e-05
0.00989262
-0.00479832
0.0136835
-0.00514413
0.0142321
-0.000764072
0.014059
0.000257109
0.00826116
0.00800657
-0.00189414
0.0132048
-0.00164048
-0.00124973
0.00748122
-0.0124861
0.0125264
-0.00610733
0.000547183
0.0426695
0.0319685
-0.0449833
0.0353944
0.0273003
0.0268818
0.0200973
0.019557
0.013614
0.0141401
0.00893844
0.0103478
0.00593964
0.00768176
0.00409692
0.00575087
0.00294761
0.0043063
0.00219748
0.00319696
0.00168266
0.00232813
0.00131365
0.00163795
0.00103947
0.00108405
0.000830125
0.000636431
0.000663806
0.000275896
0.000541046
-1.4512e-05
0.000433389
-0.000255449
0.000352152
-0.000448033
0.000279881
-0.000601716
0.000220293
-0.000723008
0.000170997
-0.000817095
0.000129606
-0.000888186
9.41694e-05
-0.000939841
6.49803e-05
-0.000974766
3.98065e-05
-0.00099537
1.82099e-05
-0.00100466
1.29533e-06
-0.00100452
-1.30838e-05
-0.000996445
-2.50663e-05
-0.000981503
-3.49562e-05
-0.00096131
-4.26816e-05
-0.000936784
-4.87284e-05
-0.000908976
-5.32842e-05
-0.000878841
-5.64588e-05
-0.000846921
-5.86686e-05
-0.000813845
-6.00527e-05
-0.000780206
-6.04836e-05
-0.000746555
-5.99533e-05
-0.000713336
-5.88635e-05
-0.000680886
-5.71829e-05
-0.000649504
-5.50743e-05
-0.00061953
-5.24236e-05
-0.000590983
-4.97852e-05
-0.000563886
-4.71433e-05
-0.000538244
-4.44575e-05
-0.000514005
-4.19294e-05
-0.000491156
-3.94043e-05
-0.000469865
-3.65941e-05
-0.000450409
-3.34035e-05
-0.000433168
-2.9507e-05
-0.000418721
-2.4693e-05
-0.000407644
-1.88771e-05
-0.000400498
-1.20731e-05
-0.00039777
-4.52185e-06
-0.000399599
3.36363e-06
-0.000405761
1.09426e-05
-0.000415367
1.69275e-05
-0.000426221
1.93065e-05
-0.000434647
1.53946e-05
-0.000435094
1.80277e-06
-0.000420092
-2.43081e-05
-0.000380283
-6.69242e-05
-0.000306254
-0.000125636
-0.000192362
-0.000194445
-4.12849e-05
-0.0002586
0.000130378
-0.000293254
0.00029127
-0.000273954
0.000399305
-0.000181647
0.000418962
-2.90576e-05
0.000342444
0.000134519
0.000197198
0.000249135
3.85838e-05
0.000268353
-8.37531e-05
0.000203907
-0.000144185
9.85206e-05
-0.000140531
-1.06937e-05
-8.83938e-05
-9.30818e-05
-4.05012e-06
-0.00014954
9.50672e-05
-0.000176185
0.000212987
-0.000211163
0.000353742
-0.000250592
0.000546925
-0.000341398
0.000800374
-0.000441111
0.00108924
-0.000495985
0.00131377
-0.000373213
0.00132562
4.77094e-06
0.00113622
0.00034728
0.000970999
0.000283176
0.000895724
0.000108015
0.000653497
0.000382073
-1.72605e-05
0.00110131
-0.00122198
0.00199974
-0.00300005
0.00298138
-0.00536435
0.0040223
-0.00842369
0.00528126
-0.0116752
0.00568262
-0.0136629
0.00357844
-0.0141844
0.00113069
-0.0142366
0.000418407
-0.0132976
-0.00152188
-0.00457356
-0.0152466
0.00478153
-0.0167766
-0.00852403
0.0222323
0.0121317
-0.0354045
0.0334353
-0.0352659
0.00264362
0.0540527
-0.000728841
0.00466698
0.00253437
-0.00626375
0.00228865
0.000901251
0.0117235
-0.0166198
0.0113327
0.000649413
0.0111283
0.000278704
0.0170259
-0.0106959
0.0228991
-0.0110173
0.0233088
-0.00117377
0.0232004
0.000365583
0.0149461
0.0162609
-0.00208675
0.0302376
-0.00450312
0.0011666
0.00876265
-0.0257518
0.0186197
-0.0159644
-0.00138793
0.0484635
0.0315064
-0.0480014
0.0451832
0.0305805
0.0388957
0.0263848
0.0315742
0.0209355
0.0247678
0.0157449
0.0191568
0.0115507
0.0147836
0.00847016
0.0114255
0.00630583
0.00883097
0.00479204
0.0068001
0.0037136
0.00518876
0.00292505
0.00389537
0.0023329
0.00284766
0.00187785
0.0019931
0.00151836
0.00129566
0.00123845
0.000722803
0.00100622
0.00025434
0.000820573
-0.000129097
0.000663324
-0.000442938
0.000534147
-0.000696053
0.000424132
-0.000898312
0.000331943
-0.0010572
0.000253179
-0.00117957
0.000187358
-0.00127064
0.000130992
-0.00133613
8.36302e-05
-0.00137874
4.39606e-05
-0.00140217
1.03286e-05
-0.00141043
-1.68141e-05
-0.00140655
-3.87489e-05
-0.0013915
-5.77432e-05
-0.00136765
-7.2543e-05
-0.00133686
-8.39755e-05
-0.0013008
-9.246e-05
-0.00126061
-9.87771e-05
-0.0012174
-0.000103198
-0.00117225
-0.000105615
-0.00112615
-0.000106001
-0.0010799
-0.000105083
-0.00103413
-0.000102919
-0.000989397
-9.97859e-05
-0.000946265
-9.55483e-05
-0.000904874
-9.11764e-05
-0.00086531
-8.67346e-05
-0.000827646
-8.21227e-05
-0.000791852
-7.77258e-05
-0.000757949
-7.33013e-05
-0.000726219
-6.829e-05
-0.000697092
-6.25222e-05
-0.000671176
-5.54005e-05
-0.000649344
-4.652e-05
-0.000632476
-3.57489e-05
-0.000621433
-2.31003e-05
-0.000616914
-9.04774e-06
-0.000619131
5.57666e-06
-0.000627702
1.9509e-05
-0.000641221
3.04002e-05
-0.000656348
3.44232e-05
-0.000667456
2.64771e-05
-0.000666442
7.14068e-07
-0.000642015
-4.86779e-05
-0.000580376
-0.000128599
-0.000467773
-0.000238194
-0.000295922
-0.000366275
-6.86381e-05
-0.000485906
0.000190433
-0.000552306
0.000435489
-0.000519025
0.000604419
-0.000350613
0.000642568
-6.71909e-05
0.000534398
0.000242673
0.000317515
0.000465993
7.39288e-05
0.000511993
-0.000119137
0.000396932
-0.000219238
0.000198656
-0.000221859
-8.05662e-06
-0.000150824
-0.000164169
-3.24301e-05
-0.000267887
0.000105775
-0.000314446
0.000269487
-0.000374876
0.000467004
-0.000448091
0.000743065
-0.000617498
0.0011143
-0.00081232
0.00154794
-0.000929617
0.00190391
-0.000729221
0.00196067
-5.18684e-05
0.00170977
0.000598173
0.00145947
0.000533488
0.001308
0.0002595
0.000882029
0.00080808
-0.000206056
0.00218936
-0.00212368
0.00391743
-0.00488978
0.00574742
-0.00847443
0.00760696
-0.012991
0.00979787
-0.01765
0.0103416
-0.0202927
0.00622113
-0.0206841
0.00152214
-0.0203413
7.56152e-05
-0.0187557
-0.00310752
-0.00632609
-0.0276762
0.00656595
-0.0296686
-0.0141879
0.0429862
0.0167048
-0.0662972
0.0509965
-0.0695576
0.00679546
0.0982537
-0.000155942
0.0116184
0.00361342
-0.0100331
0.00383605
0.000678632
0.0174626
-0.0302463
0.0169654
0.00114651
0.0166485
0.000595596
0.0245246
-0.018572
0.0319714
-0.0184641
0.0316973
-0.000899619
0.0315434
0.000519211
0.0221475
0.0256568
-0.000888618
0.0532738
-0.00749793
0.00777589
0.00805817
-0.0413079
0.0231201
-0.0310263
-0.00626101
0.052279
0.0303845
-0.051157
0.0516534
0.0312061
0.0482874
0.0297508
0.042792
0.0264309
0.0363436
0.0221934
0.0299793
0.0179151
0.0242984
0.0141511
0.0195039
0.0111005
0.0155642
0.00873181
0.0123557
0.00692219
0.00974204
0.00553876
0.00760468
0.00447031
0.00584856
0.00363399
0.00439925
0.00296768
0.00320169
0.00243601
0.00220861
0.00199929
0.00138636
0.00164281
0.000705446
0.00134425
0.000144368
0.00109523
-0.000317303
0.000885791
-0.000693732
0.000708364
-0.000996959
0.000556432
-0.00123813
0.000428485
-0.00142615
0.000319118
-0.00156909
0.000226475
-0.00167388
0.000148722
-0.00174742
8.37996e-05
-0.00179279
2.84849e-05
-0.00181443
-1.70313e-05
-0.00181946
-5.26789e-05
-0.00180786
-8.41193e-05
-0.00178343
-0.000108335
-0.00174895
-0.000126907
-0.0017064
-0.000141257
-0.00165766
-0.000151892
-0.00160447
-0.000158793
-0.00154847
-0.000161958
-0.00149097
-0.000162557
-0.00143305
-0.000160825
-0.00137559
-0.000157225
-0.00131953
-0.000151617
-0.0012652
-0.000145523
-0.0012128
-0.000139165
-0.00116256
-0.000132381
-0.00111449
-0.0001258
-0.0010687
-0.000119094
-0.00102562
-0.000111342
-0.000985874
-0.000102267
-0.000950332
-9.09227e-05
-0.000920214
-7.6637e-05
-0.00089675
-5.92229e-05
-0.00088114
-3.86963e-05
-0.000874321
-1.58804e-05
-0.000876547
7.79198e-06
-0.000887271
3.02242e-05
-0.000904468
4.75473e-05
-0.000923498
5.34419e-05
-0.000936642
3.95942e-05
-0.000932761
-3.17189e-06
-0.000896688
-8.46854e-05
-0.000809765
-0.000215563
-0.000653671
-0.000394244
-0.000417254
-0.00060267
-0.000105303
-0.000797883
0.000251532
-0.00090912
0.000592596
-0.000860106
0.000834299
-0.000592357
0.000899872
-0.000132746
0.000762579
0.00037995
0.00046816
0.000760386
0.000127131
0.000853081
-0.000150943
0.000674964
-0.00030235
0.0003501
-0.00031853
8.14285e-06
-0.000232663
-0.000250093
-8.26896e-05
-0.000417813
9.19706e-05
-0.000489169
0.000299002
-0.000581913
0.00055182
-0.000700891
0.000912974
-0.000978695
0.00141008
-0.0013094
0.00200468
-0.00152421
0.00251782
-0.0012424
0.0026473
-0.000181265
0.00234803
0.000897435
0.00199949
0.000882035
0.00173156
0.000527457
0.00105004
0.00148963
-0.000565853
0.00380521
-0.00334507
0.00669673
-0.00726356
0.00966585
-0.0122097
0.0125531
-0.0182644
0.0158526
-0.0242774
0.0163545
-0.0273542
0.00929797
-0.0273457
0.00151362
-0.0264179
-0.000852293
-0.0239454
-0.00558
-0.00807796
-0.0435436
0.00806899
-0.0458155
-0.019944
0.0709992
0.02113
-0.107371
0.0697922
-0.11822
0.0131453
0.154901
0.00131451
0.0234492
0.00472037
-0.013439
0.00561493
-0.000215887
0.0236629
-0.0482942
0.0233235
0.00148582
0.0229144
0.00100482
0.0323983
-0.0280559
0.0409029
-0.0269687
0.0391934
0.000809918
0.0387675
0.000944895
0.0294126
0.0350117
0.00154778
0.0811386
-0.00975482
0.0190784
0.00649923
-0.0575618
0.0265352
-0.0510623
-0.0147456
0.0554241
0.0294327
-0.0544722
0.0559707
0.0306595
0.0548943
0.0308273
0.0517906
0.0295346
0.0470154
0.0269687
0.0412917
0.0236389
0.0353371
0.0201057
0.0296708
0.0167668
0.024575
0.0138278
0.0201454
0.0113518
0.0163673
0.00931696
0.013175
0.00766265
0.0104886
0.00632038
0.00823087
0.00522545
0.00633595
0.00433092
0.00474495
0.00359029
0.0034114
0.00297635
0.00229466
0.002461
0.00136242
0.0020275
0.000587409
0.0016608
-5.25176e-05
0.00134828
-0.000579499
0.00108343
-0.00100728
0.000856164
-0.00135029
0.000662205
-0.00162102
0.000497107
-0.00182973
0.00035748
-0.00198564
0.000239679
-0.0020987
0.000141458
-0.00217491
5.92475e-05
-0.00221605
-1.15196e-05
-0.00223499
-6.51124e-05
-0.00223122
-0.000112046
-0.00220988
-0.000148233
-0.00217428
-0.000176807
-0.0021274
-0.00019872
-0.00207198
-0.000214215
-0.00201054
-0.000223358
-0.00194515
-0.000227931
-0.00187749
-0.000228465
-0.00180899
-0.000225723
-0.00174104
-0.000219576
-0.00167431
-0.000212266
-0.00160924
-0.000204278
-0.00154625
-0.000195392
-0.0014855
-0.000186561
-0.00142721
-0.000177387
-0.00137202
-0.000166502
-0.0013208
-0.000153483
-0.00127474
-0.000136966
-0.00123545
-0.000115931
-0.00120456
-9.01299e-05
-0.00118364
-5.95995e-05
-0.0011739
-2.56414e-05
-0.00117565
9.51911e-06
-0.0011881
4.26728e-05
-0.00120855
6.79377e-05
-0.0012309
7.57758e-05
-0.00124508
5.37574e-05
-0.00123693
-1.13607e-05
-0.00118674
-0.000134814
-0.001071
-0.000331337
-0.000866569
-0.000598632
-0.000559203
-0.000910011
-0.000154411
-0.0012027
0.000310475
-0.00137399
0.000759986
-0.00130963
0.00108799
-0.000920401
0.00119251
-0.000237249
0.00103125
0.000541193
0.00065509
0.00113652
0.000204104
0.00130413
-0.000174897
0.00105392
-0.000391735
0.000566978
-0.000431306
4.77363e-05
-0.000336936
-0.000344523
-0.000159668
-0.000595029
4.73587e-05
-0.000696263
0.000294594
-0.000829156
0.000601351
-0.00100763
0.00104987
-0.00142726
0.00168097
-0.00194047
0.00245218
-0.00229542
0.0031483
-0.00193855
0.00338129
-0.000414206
0.00304893
0.00122978
0.00258538
0.0013456
0.00214784
0.000965025
0.00111937
0.00251815
-0.00115459
0.00607912
-0.00495664
0.0104989
-0.0101917
0.0149008
-0.0166215
0.0189829
-0.024248
0.0234791
-0.031472
0.0235786
-0.0346736
0.0124996
-0.0340062
0.000846256
-0.0323148
-0.00254381
-0.0287128
-0.00918197
-0.00991803
-0.0623383
0.00927819
-0.0650117
-0.0229509
0.103228
0.0258253
-0.156147
0.0869799
-0.179374
0.0215843
0.220296
0.00370972
0.0413239
0.00586547
-0.0155947
0.00745188
-0.00180228
0.0300697
-0.070912
0.030417
0.00113849
0.029996
0.00142592
0.0406234
-0.0386833
0.0495164
-0.0358617
0.0456399
0.00468642
0.0445392
0.00204541
0.0363294
0.0432216
0.00494057
0.112527
-0.0111732
0.0351922
0.0043452
-0.0730802
0.0288606
-0.0755778
-0.0271996
0.0586729
0.028771
-0.0580112
0.0594459
0.0298866
0.0595809
0.0306923
0.0583983
0.0307173
0.0556492
0.029718
0.051515
0.0277732
0.0464306
0.0251902
0.0408918
0.0223056
0.0353271
0.0193926
0.0300413
0.0166376
0.025212
0.0141463
0.0209138
0.0119609
0.017153
0.0100812
0.0138979
0.0084806
0.0111017
0.00712709
0.00871087
0.00598109
0.00667538
0.00501182
0.00494802
0.00418838
0.00348781
0.00348775
0.00225863
0.00289001
0.00122901
0.00237793
0.0003725
0.00194001
-0.000334926
0.00156353
-0.000913712
0.00124108
-0.00138161
0.000964939
-0.00175412
0.000730021
-0.00204501
0.000530625
-0.00226621
0.000362651
-0.00242878
0.000221853
-0.00254554
0.000105262
-0.00261391
3.29565e-06
-0.00265237
-7.34891e-05
-0.00266166
-0.000138929
-0.00264719
-0.000191244
-0.00261361
-0.000232257
-0.0025651
-0.000262726
-0.00250546
-0.000282969
-0.0024378
-0.000295571
-0.00236471
-0.000301541
-0.00228833
-0.000302096
-0.00221077
-0.00029715
-0.0021332
-0.000289862
-0.00205639
-0.00028113
-0.00198111
-0.000270696
-0.00190775
-0.000259928
-0.00183674
-0.000248409
-0.00176898
-0.000234234
-0.00170565
-0.000216812
-0.00164831
-0.000194292
-0.00159902
-0.000165222
-0.00155987
-0.000129295
-0.00153287
-8.65938e-05
-0.00151949
-3.90417e-05
-0.00152011
1.0118e-05
-0.00153369
5.62466e-05
-0.00155672
9.09054e-05
-0.00158154
0.000100575
-0.00159561
6.78063e-05
-0.00158136
-2.56594e-05
-0.00151458
-0.000201531
-0.00136662
-0.000479338
-0.00110935
-0.000855853
-0.000725232
-0.00129411
-0.000220067
-0.0017079
0.000362776
-0.00195681
0.00093354
-0.00188041
0.00136299
-0.0013499
0.00152094
-0.000395179
0.0013444
0.000717715
0.000884855
0.00159603
0.000311905
0.00187715
-0.000185494
0.00155128
-0.000484662
0.000866188
-0.000560564
0.000123664
-0.00046675
-0.000438401
-0.000268519
-0.000793207
-3.42302e-05
-0.000930622
0.000248967
-0.00111236
0.000608284
-0.00136692
0.00114642
-0.00196545
0.00191876
-0.00271277
0.00288035
-0.00325701
0.00378347
-0.0028417
0.00415103
-0.000781728
0.00380315
0.00157765
0.00320348
0.00194528
0.00252811
0.00164042
0.00103966
0.00400664
-0.00204102
0.00915976
-0.00703638
0.0154943
-0.013742
0.0216063
-0.0217427
0.0269837
-0.0309071
0.0326435
-0.0390954
0.0317668
-0.0420379
0.0154422
-0.0404746
-0.000717117
-0.0379126
-0.00510574
-0.0329214
-0.0141732
-0.0119933
-0.0832665
0.0103288
-0.0873337
-0.0194836
0.133041
0.0314846
-0.207115
0.0988431
-0.246733
0.0314828
0.287657
0.00709902
0.0657077
0.00712126
-0.0156169
0.00914273
-0.00382371
0.0363681
-0.0981373
0.0381802
-0.000673651
0.0378756
0.00173061
0.049127
-0.0499347
0.057734
-0.0444687
0.0509038
0.0115166
0.0487836
0.00416559
0.0425862
0.0494189
0.00900971
0.146104
-0.0117097
0.0559116
0.00216481
-0.0869546
0.0303267
-0.10374
-0.0434599
0.062284
0.0282927
-0.0618057
0.06292
0.0292507
0.0634296
0.0301826
0.0633238
0.0308232
0.0621784
0.0308634
0.0597992
0.0301525
0.0562463
0.0287432
0.0517585
0.0267935
0.0466602
0.024491
0.0412848
0.0220131
0.0359225
0.0195087
0.0307926
0.0170909
0.0260371
0.0148367
0.0217301
0.0127876
0.0178961
0.010961
0.0145254
0.00935185
0.0115903
0.00794695
0.00905323
0.00672543
0.00687443
0.0056666
0.00501434
0.00475014
0.00343561
0.0039567
0.00210453
0.0032712
0.000989801
0.00267824
6.42223e-05
0.00216677
-0.000697548
0.0017267
-0.00131709
0.0013496
-0.00181418
0.00102777
-0.00220632
0.000754801
-0.00250852
0.000524129
-0.00273383
0.000330561
-0.00290082
0.000170318
-0.00300654
3.23112e-05
-0.00307092
-7.45233e-05
-0.00309885
-0.000163287
-0.00309573
-0.000235348
-0.00306795
-0.000290507
-0.00302124
-0.000329654
-0.00296016
-0.000356627
-0.00288858
-0.000373117
-0.00280965
-0.000381014
-0.0027265
-0.000380315
-0.00264103
-0.000375353
-0.00255457
-0.000367639
-0.00246837
-0.000356917
-0.00238322
-0.000345087
-0.00229983
-0.000331808
-0.00221948
-0.000314557
-0.00214374
-0.000292559
-0.00207459
-0.000263425
-0.00201462
-0.000225188
-0.00196645
-0.000177485
-0.00193255
-0.000120482
-0.00191472
-5.68991e-05
-0.00191342
8.79643e-06
-0.00192732
7.01374e-05
-0.00195202
0.000115542
-0.00197821
0.000126743
-0.00199075
8.03182e-05
-0.00196854
-4.79274e-05
-0.00188269
-0.000287318
-0.00169938
-0.000662689
-0.0013854
-0.00116979
-0.000919623
-0.00175985
-0.000307576
-0.00231997
0.000402377
-0.00266674
0.0011073
-0.00258535
0.00165496
-0.0018976
0.00188416
-0.000624357
0.00170533
0.000896524
0.00116433
0.002137
0.000458679
0.00258287
-0.000175927
0.00218584
-0.000577399
0.0012677
-0.000706065
0.000252358
-0.000624979
-0.000519553
-0.000414292
-0.00100384
-0.000158191
-0.0011868
0.000155258
-0.00142582
0.000566493
-0.00177813
0.00119667
-0.00259568
0.00211635
-0.00363241
0.00327907
-0.00441972
0.00440941
-0.00397207
0.00494131
-0.00131359
0.0045949
0.00192406
0.00383212
0.00270806
0.00283385
0.00263872
0.000748897
0.00609165
-0.00330349
0.0132121
-0.00966349
0.0218544
-0.0179696
0.0299124
-0.0275764
0.0365905
-0.0381629
0.0432301
-0.0469692
0.040573
-0.0492385
0.0177115
-0.0466297
-0.00332601
-0.0431476
-0.00858778
-0.0365697
-0.0207511
-0.0144618
-0.105374
0.011272
-0.113067
-0.00768256
0.151995
0.0389096
-0.253708
0.103772
-0.311595
0.0420873
0.349341
0.0115299
0.0962652
0.00864432
-0.0127313
0.0105392
-0.00571855
0.0422062
-0.129804
0.046495
-0.00496253
0.0465168
0.00170888
0.0578135
-0.0612314
0.0653184
-0.0519735
0.054887
0.021948
0.0515534
0.00749922
0.0480969
0.0528755
0.0133466
0.180854
-0.0117356
0.0809937
-0.000109143
-0.098581
0.0307368
-0.134586
-0.0628325
0.066247
0.0279049
-0.0658592
0.0667162
0.0287816
0.0672125
0.0296864
0.0675068
0.0305289
0.0672778
0.0310925
0.0662351
0.0311953
0.0642121
0.0307663
0.0611876
0.0298181
0.0572653
0.0284133
0.0526365
0.0266421
0.0475381
0.0246071
0.042217
0.0224121
0.0368992
0.0201545
0.0317686
0.0179182
0.026958
0.0157717
0.0225477
0.0137622
0.018576
0.0119187
0.0150487
0.0102527
0.0119514
0.00876387
0.00925753
0.00744408
0.00693384
0.00628042
0.0049455
0.00525963
0.00325699
0.00436675
0.00183485
0.003589
0.000647312
0.00291425
-0.000334704
0.00233165
-0.00113796
0.00183106
-0.00178672
0.00140354
-0.0023024
0.00103987
-0.00270436
0.000732553
-0.00300856
0.000474519
-0.00323625
0.000260073
-0.00339106
8.0299e-05
-0.00348889
-6.54333e-05
-0.00354214
-0.000182064
-0.00355575
-0.000276911
-0.00353857
-0.000346815
-0.00349745
-0.000397726
-0.00343804
-0.000432513
-0.00336495
-0.000454096
-0.00328272
-0.00046256
-0.00319434
-0.000463759
-0.00310194
-0.000460083
-0.00300753
-0.000451353
-0.00291247
-0.000440156
-0.00281791
-0.00042638
-0.00272563
-0.000406815
-0.00263767
-0.000380513
-0.00255657
-0.000344518
-0.00248549
-0.00029626
-0.00242767
-0.000235335
-0.00238609
-0.000162044
-0.00236294
-8.00704e-05
-0.00235875
4.58683e-06
-0.00237196
8.33431e-05
-0.00239718
0.000140691
-0.00242341
0.000152944
-0.00243282
8.96921e-05
-0.00240073
-8.0072e-05
-0.00229359
-0.000394404
-0.00207236
-0.000883951
-0.00169875
-0.00154335
-0.00114773
-0.00231083
-0.000423744
-0.00304399
0.000421306
-0.00351176
0.00127302
-0.00343707
0.00195711
-0.00258174
0.00227898
-0.000946213
0.00211604
0.00105946
0.00150031
0.0027527
0.000653473
0.00342978
-0.000138081
0.00297735
-0.00066501
0.00179468
-0.00086677
0.000454149
-0.000813977
-0.000572414
-0.000601556
-0.0012162
-0.000330993
-0.00145743
4.93921e-06
-0.00176177
0.000470961
-0.00224413
0.00119567
-0.00332045
0.00226681
-0.00470351
0.00363674
-0.00578966
0.00500818
-0.00534354
0.00572928
-0.00203465
0.00539929
0.00225405
0.00443883
0.00366854
0.00301403
0.00406355
0.000170543
0.00893519
-0.00502769
0.0184103
-0.0129136
0.0297404
-0.0229096
0.0399084
-0.0340886
0.0477694
-0.0458913
0.0550328
-0.0548911
0.0495727
-0.0561053
0.0189257
-0.0524163
-0.00701496
-0.04803
-0.0129741
-0.0397654
-0.0290157
-0.0174444
-0.127695
0.0118338
-0.142346
0.00969451
0.154134
0.0485388
-0.292552
0.104494
-0.36755
0.0529819
0.400853
0.0169993
0.132248
0.0106674
-0.00639946
0.0116228
-0.00667392
0.047348
-0.165529
0.0552013
-0.0128158
0.0558364
0.00107378
0.0665714
-0.0719664
0.0721581
-0.0575601
0.0575975
0.0365085
0.0531772
0.0119196
0.0529759
0.0530767
0.0176435
0.216187
-0.0115489
0.110186
-0.00203906
-0.108091
0.0300081
-0.166633
-0.0840242
0.0705214
0.027566
-0.0701825
0.0708873
0.0284157
0.0712864
0.0292873
0.0716399
0.0301755
0.0717808
0.0309517
0.0714937
0.0314825
0.0705743
0.0316857
0.0688748
0.0315177
0.0663262
0.030962
0.0629414
0.0300269
0.0588066
0.028742
0.0540662
0.0271526
0.0489048
0.0253159
0.0435253
0.0232978
0.0381257
0.0211713
0.0328784
0.0190095
0.0279169
0.0168803
0.023331
0.0148386
0.0191708
0.0129241
0.0154544
0.0111604
0.012177
0.00955785
0.00931896
0.00811776
0.00685128
0.00683441
0.0047409
0.00569944
0.00295266
0.00470248
0.00145172
0.0038326
0.000204288
0.00307851
-0.000820703
0.0024285
-0.0016531
0.0018723
-0.00231937
0.00139884
-0.00284321
0.000998375
-0.00324472
0.000661641
-0.00354721
0.000382809
-0.00376357
0.000150934
-0.00390365
-4.19522e-05
-0.00399002
-0.000190556
-0.00402725
-0.000309578
-0.00402615
-0.0003988
-0.00399497
-0.000463679
-0.00394049
-0.000508574
-0.00386926
-0.000533807
-0.00378585
-0.000547187
-0.0036936
-0.000552384
-0.00359558
-0.000549392
-0.00349404
-0.000541704
-0.00339076
-0.000529675
-0.00328819
-0.000509364
-0.00318901
-0.000479696
-0.00309636
-0.00043715
-0.00301415
-0.000378469
-0.00294627
-0.00030324
-0.00289634
-0.000211958
-0.00286698
-0.000109449
-0.00285889
-3.52402e-06
-0.00287016
9.46145e-05
-0.00289453
0.000164989
-0.00291927
0.000177661
-0.00292388
9.42618e-05
-0.00288016
-0.000123845
-0.00274995
-0.000524563
-0.00248914
-0.00114479
-0.00205435
-0.00197809
-0.00141627
-0.00294888
-0.000577194
-0.0038831
0.000409326
-0.00449826
0.00141974
-0.0044475
0.00225963
-0.00342168
0.00269933
-0.0013859
0.0025764
0.00118238
0.00189881
0.00343026
0.000905889
0.00442278
-6.2674e-05
0.00394587
-0.000741218
0.00247327
-0.00104052
0.00075349
-0.00103516
-0.000577843
-0.000833875
-0.00141742
-0.000556629
-0.00173475
-0.000191699
-0.00212671
0.000318247
-0.00275404
0.00113984
-0.0041421
0.00236362
-0.00592724
0.00394063
-0.00736667
0.00555821
-0.00696115
0.0064856
-0.002962
0.00618139
0.00255826
0.00497888
0.00487106
0.00300449
0.00603797
-0.000763919
0.0127037
-0.00730243
0.0249487
-0.0168515
0.0392896
-0.0285681
0.0516249
-0.0412033
0.0604046
-0.0539308
0.0677604
-0.0626652
0.0583071
-0.0625445
0.018805
-0.0578779
-0.0116815
-0.0526273
-0.0182247
-0.0427177
-0.0389252
-0.020965
-0.149448
0.0116441
-0.174955
0.0275558
0.138223
0.0596544
-0.32465
0.105668
-0.413563
0.0642533
0.442267
0.02354
0.172961
0.0134856
0.00365497
0.0125815
-0.00576972
0.0517079
-0.204656
0.0641472
-0.0252551
0.0657519
-0.000530848
0.0752852
-0.0814997
0.07803
-0.0603048
0.0590756
0.0554628
0.0540222
0.0169731
0.0574703
0.0496286
0.0217354
0.251922
-0.0115355
0.143457
-0.00417658
-0.11545
0.0277044
-0.198514
-0.105343
0.0751072
0.0272605
-0.0748017
0.0754185
0.0281044
0.0757421
0.0289638
0.0760532
0.0298643
0.0762822
0.0307227
0.0763136
0.0314511
0.0760039
0.0319955
0.0752053
0.0323163
0.0737893
0.032378
0.0716638
0.0321524
0.0687835
0.0316224
0.0651553
0.0307809
0.0608405
0.0296308
0.055952
0.0281864
0.0506459
0.0264775
0.0451051
0.0245503
0.0395186
0.0224668
0.0340596
0.0202977
0.0288692
0.0181145
0.0240484
0.0159813
0.0196584
0.0139479
0.015727
0.0120491
0.0122563
0.0103051
0.00923066
0.0087251
0.006623
0.00731012
0.00439966
0.00605593
0.00252375
0.00495444
0.000957355
0.00399486
-0.000335824
0.00316551
-0.00139023
0.00245327
-0.00223927
0.00184742
-0.00291109
0.00133352
-0.00343182
0.000903555
-0.00382643
0.000545535
-0.0041193
0.00025094
-0.00431265
2.78757e-06
-0.00444156
-0.000180656
-0.00451006
-0.000330283
-0.00453097
-0.000442747
-0.00451415
-0.00052539
-0.00446916
-0.000578808
-0.00440282
-0.000613547
-0.00432018
-0.000635064
-0.00422592
-0.000643668
-0.00412358
-0.000644062
-0.00401582
-0.000637439
-0.00390605
-0.00061912
-0.00379775
-0.000587999
-0.00369485
-0.000540043
-0.00360208
-0.000471232
-0.00352415
-0.000381193
-0.0034654
-0.000270685
-0.00342899
-0.000145879
-0.00341593
-1.66076e-05
-0.00342389
0.000102587
-0.0034459
0.000186914
-0.00346753
0.000199278