/*--------------------------------*- C++ -*----------------------------------*\
| =========                 |                                                 |
| \\      /  F ield         | OpenFOAM: The Open Source CFD Toolbox           |
|  \\    /   O peration     | Version:  2412                                  |
|   \\  /    A nd           | Website:  www.openfoam.com                      |
|    \\/     M anipulation  |                                                 |
\*---------------------------------------------------------------------------*/
FoamFile
{
    version     2.0;
    format      ascii;
    arch        "LSB;label=32;scalar=64";
    class       volVectorField;
    location    "1.25";
    object      ddtCorrDdt0(U);
}
// * * * * * * * * * * * * * * * * * * * * * * * * * * * * * * * * * * * * * //

dimensions      [0 1 -2 0 0 0 0];

internalField   nonuniform List<vector> 
12600
(
(-0.015556 -6.54419e-22 -0.0240977)
(-0.0499627 -8.94101e-22 -0.0043469)
(-0.0258967 -8.57831e-22 0.00250324)
(-0.0181416 0 0.00310293)
(-0.0162006 -7.51704e-22 0.0030008)
(-0.0139749 -6.99358e-22 0.00275337)
(-0.0114306 0 0.00248903)
(-0.0088074 0 0.00233263)
(-0.00639906 2.122e-21 0.00214229)
(-0.0043792 0 0.00192027)
(-0.00283106 -8.49201e-22 0.0016927)
(-0.0017968 -7.56917e-22 0.00148052)
(-0.00128692 6.76874e-22 0.00130283)
(-0.00127868 0 0.00117298)
(-0.00170733 5.59816e-22 0.00109526)
(-0.00246582 0 0.00106556)
(-0.00342263 -1.97583e-21 0.00107538)
(-0.00445062 0 0.00111599)
(-0.00544967 9.38808e-22 0.00117981)
(-0.00635088 9.32001e-22 0.00125888)
(-0.00710693 -9.30408e-22 0.0013432)
(-0.00768098 -5.72733e-25 0.00142097)
(-0.00804505 0 0.00148133)
(-0.00818262 1.83383e-21 0.00151662)
(-0.00809276 0 0.00152377)
(-0.00778446 0 0.00150235)
(-0.00727344 1.67629e-21 0.00145372)
(-0.00657112 0 0.00137791)
(-0.00569227 -2.31558e-24 0.00127578)
(-0.00464848 -1.30197e-21 0.00114634)
(-0.00347066 -1.12181e-21 0.000992429)
(-0.0021898 -9.16515e-22 0.00081487)
(-0.000868043 6.90362e-22 0.000621412)
(0.000448495 9.0009e-22 0.000414857)
(0.00167604 4.07185e-22 0.000208514)
(0.00277829 9.06903e-23 4.97247e-06)
(0.00366566 0 -0.000177369)
(0.00433984 -9.51427e-22 -0.000340373)
(0.00471353 0 -0.0004617)
(0.00485051 1.58213e-21 -0.000553465)
(0.00465903 0 -0.00058954)
(0.00428124 -9.94063e-24 -0.000597761)
(0.00359395 0 -0.000544821)
(0.00282655 -3.43235e-24 -0.00047783)
(0.00178027 3.4794e-21 -0.000348578)
(0.000788348 -3.10337e-21 -0.000226988)
(-0.000466513 2.63455e-21 -4.09391e-05)
(-0.00150373 0 0.000109554)
(-0.00279692 0 0.000328956)
(-0.0036527 9.51303e-22 0.000475142)
(-0.00475415 8.66967e-22 0.000694384)
(-0.00513373 -3.23927e-23 0.000788701)
(-0.00578583 8.5135e-24 0.000962199)
(-0.00543147 -1.0217e-21 0.000950173)
(-0.00553447 0 0.00104156)
(-0.00446775 7.98689e-22 0.000896894)
(-0.00433044 2.86854e-22 0.000924057)
(-0.00302827 -2.64376e-22 0.000692556)
(-0.00338392 0 0.000755928)
(-0.00256269 0 0.000551893)
(-0.00410905 0 0.000787555)
(-0.0040887 1.7021e-21 0.000703688)
(-0.00682952 0 0.00116567)
(-0.00707539 0 0.0011623)
(-0.0102349 6.05328e-21 0.00175615)
(-0.00974864 0 0.00167336)
(-0.0125352 0 0.00224993)
(-0.0107735 0 0.00195936)
(-0.0131378 -1.29043e-20 0.00247134)
(-0.0103291 1.23029e-20 0.00197781)
(-0.012814 1.07561e-20 0.00250138)
(-0.00932795 -8.54772e-24 0.00186073)
(-0.0125425 -6.89137e-21 0.00250722)
(-0.00818778 0 0.00167752)
(-0.0131809 2.65597e-21 0.00264188)
(-0.00656815 0 0.00134917)
(-0.0162648 0 0.00319646)
(-0.00310438 0 0.000634889)
(-0.0240254 -6.30953e-25 0.00465432)
(0.0049561 -1.55148e-21 -0.000919735)
(-0.0366465 -6.18893e-21 0.00710959)
(0.0149264 3.27792e-21 -0.00278461)
(-0.0409578 1.10719e-20 0.00799874)
(0.00532872 0 -0.000930874)
(-0.0206607 0 0.0041398)
(-0.0253262 -4.06902e-20 0.00490134)
(0.0104363 4.90496e-20 -0.00189386)
(-0.0813783 -9.97275e-20 0.0154678)
(0.0694331 2.78883e-21 -0.0134522)
(-0.139507 0 0.0269767)
(0.0847234 -7.31375e-20 -0.016655)
(-0.148883 -2.11699e-20 0.0293375)
(0.125594 -5.44265e-20 -0.0243996)
(-0.0948204 -1.0522e-19 0.0189294)
(-0.13113 0 0.024931)
(0.149269 0 -0.0283031)
(0.106029 0 -0.0214381)
(0.47504 0 -0.0887236)
(-1.2666 0 0.235725)
(1.06503 0 -0.211335)
(-0.235174 2.88642e-19 0.0608433)
(-0.106507 5.3413e-19 0.0206929)
(0.426822 -2.22849e-20 -0.0732719)
(-0.61798 0 0.110514)
(1.2287 0 -0.231919)
(0.0134337 0 3.32656e-05)
(-1.39591 7.91567e-19 0.265796)
(0.861222 -7.07265e-19 -0.176084)
(1.04751 -2.1724e-19 -0.190059)
(-1.82867 0 0.346871)
(1.15956 -4.59899e-19 -0.228141)
(-0.51909 0 0.113219)
(-0.525216 -2.25717e-20 0.0966268)
(1.07467 -1.21999e-19 -0.199896)
(-2.03214 7.31313e-19 0.392875)
(0.198262 -4.92297e-19 -0.0527253)
(1.15779 -1.1083e-19 -0.212021)
(-1.43121 1.01e-22 0.282237)
(-1.01395 -7.07992e-20 0.187124)
(0.0768343 0 -0.018727)
(-0.0532797 6.6093e-22 -0.0473341)
(-0.0714493 0 -0.0148202)
(-0.0614015 8.68103e-22 0.00167726)
(-0.0535796 0 0.0058652)
(-0.0492342 7.61632e-22 0.00696641)
(-0.044679 1.40947e-21 0.00701049)
(-0.0395542 6.49755e-22 0.00667154)
(-0.0341522 0 0.00640101)
(-0.0289634 -9.18221e-25 0.0060956)
(-0.0242449 9.66961e-22 0.00573504)
(-0.0201861 -8.64871e-22 0.00534243)
(-0.0169164 -7.72248e-22 0.00495338)
(-0.0145169 6.91429e-22 0.00460728)
(-0.0130156 -6.23927e-22 0.0043303)
(-0.0123601 -1.13843e-21 0.00412785)
(-0.0124112 0 0.00399154)
(-0.0129774 -2.078e-24 0.00391309)
(-0.0138719 -9.70836e-22 0.00389185)
(-0.014949 -9.52491e-22 0.00393011)
(-0.0160993 0 0.00402165)
(-0.0172231 0 0.00414645)
(-0.018213 -9.42205e-22 0.0042752)
(-0.0189675 0 0.00438112)
(-0.0194112 -9.29474e-22 0.00444664)
(-0.0195118 1.82302e-21 0.00446591)
(-0.0192647 0 0.00443719)
(-0.0186849 -1.69873e-21 0.00436185)
(-0.0177776 0 0.00423598)
(-0.0165579 1.47344e-21 0.00405978)
(-0.0150277 2.64053e-21 0.00382744)
(-0.0132302 2.27659e-21 0.00354522)
(-0.0111918 9.27706e-22 0.0032087)
(-0.0090089 -6.98602e-22 0.00283414)
(-0.00672263 -1.83878e-21 0.0024165)
(-0.00447933 -8.42669e-22 0.00198623)
(-0.00230136 0 0.00153478)
(-0.000381762 0 0.00111153)
(0.00132026 1.84699e-23 0.000695864)
(0.00256249 0 0.000358002)
(0.00350799 -1.59721e-21 4.9455e-05)
(0.00384831 0 -0.000136175)
(0.00393368 -3.81194e-21 -0.000293635)
(0.0033354 0 -0.000295366)
(0.00264984 -3.75486e-21 -0.000298387)
(0.00122677 0 -0.000119366)
(-1.82844e-05 3.1249e-21 5.13808e-06)
(-0.00208076 0 0.000341936)
(-0.00360416 0 0.000549532)
(-0.00606816 -1.54917e-21 0.00100897)
(-0.00749952 0 0.00123698)
(-0.0100384 0 0.00176398)
(-0.0108887 0 0.00192013)
(-0.0131118 6.51115e-22 0.00243389)
(-0.0128783 2.04083e-21 0.00240374)
(-0.0145452 0 0.00282835)
(-0.01302 0 0.0025317)
(-0.0144051 -3.00774e-22 0.00287524)
(-0.0119896 2.64359e-22 0.00235018)
(-0.0140381 0 0.00277041)
(-0.0116194 0 0.00219017)
(-0.0154895 0 0.00293875)
(-0.0136823 0 0.00247592)
(-0.0198351 5.14422e-22 0.00370117)
(-0.0182067 1.26065e-21 0.00332489)
(-0.025985 -5.97886e-21 0.00492194)
(-0.0232323 0 0.00437348)
(-0.0315714 0 0.00609773)
(-0.026619 0 0.00512516)
(-0.0351564 8.30208e-24 0.00686306)
(-0.0278622 -1.21853e-20 0.00542404)
(-0.0371798 -1.06436e-20 0.00728392)
(-0.0277379 1.79732e-20 0.00543581)
(-0.0390586 -1.62473e-23 0.00765392)
(-0.0266541 -4.82588e-21 0.00524677)
(-0.0428844 -2.6182e-21 0.00835281)
(-0.0232758 0 0.00457253)
(-0.0527166 0 0.0101585)
(-0.013051 0 0.00256198)
(-0.075325 -3.62079e-21 0.0144863)
(0.0117742 0 -0.00226429)
(-0.113925 0 0.0221386)
(0.0432535 -3.20811e-21 -0.00860592)
(-0.132985 -1.08246e-20 0.0262771)
(0.0182446 0 -0.00407534)
(-0.0779458 0 0.0156093)
(-0.073648 0 0.0137472)
(0.0154767 -4.75941e-20 -0.00223096)
(-0.238036 -8.86541e-23 0.0449999)
(0.198065 2.73794e-21 -0.0383841)
(-0.418765 4.1228e-20 0.0817201)
(0.262349 7.07278e-20 -0.0527044)
(-0.451627 -2.0611e-20 0.0888235)
(0.380162 1.05255e-19 -0.0780199)
(-0.328035 0 0.075552)
(-0.339291 0 0.0596587)
(0.4712 0 -0.0946042)
(0.289135 0 -0.0626587)
(1.25108 3.28568e-20 -0.216797)
(-3.51958 0 0.664827)
(3.2776 0 -0.663243)
(-0.995213 2.75728e-19 0.238095)
(-0.182236 -2.56021e-19 0.0220485)
(1.06892 3.71121e-20 -0.206885)
(-1.76567 3.95662e-19 0.316778)
(3.6366 0 -0.711076)
(-0.298899 0 0.105257)
(-3.78095 0 0.720404)
(2.68639 3.36605e-19 -0.572661)
(2.55793 2.06751e-19 -0.446138)
(-5.18678 0 0.998672)
(3.5585 8.73445e-19 -0.716316)
(-1.83639 -9.10787e-19 0.40127)
(-1.23479 4.0659e-20 0.208079)
(2.88579 0 -0.534295)
(-5.92856 0 1.16717)
(0.969954 -4.62881e-19 -0.250112)
(2.92751 0 -0.537549)
(-4.37546 4.09748e-19 0.88176)
(-2.74525 6.8839e-20 0.501376)
(0.323171 0 -0.0811831)
(-0.0588086 0 -0.0299654)
(-0.0710156 0 -0.0126939)
(-0.0724559 7.79898e-22 0.000244403)
(-0.0703208 0 0.00526219)
(-0.0678715 0 0.00720695)
(-0.0642902 -6.72789e-22 0.00790311)
(-0.0593785 -6.15287e-22 0.00807083)
(-0.0536145 0 0.00815587)
(-0.0476281 -4.39719e-24 0.00824291)
(-0.0418785 -9.16015e-22 0.00827564)
(-0.0366899 1.63728e-21 0.00822086)
(-0.0322664 7.31669e-22 0.00809953)
(-0.0287392 3.08884e-25 0.00795033)
(-0.0261774 5.91199e-22 0.00779249)
(-0.0245564 5.40436e-22 0.00761858)
(-0.0237455 -5.03186e-22 0.00741674)
(-0.0235488 9.52652e-22 0.00719868)
(-0.0237783 9.19991e-22 0.00700393)
(-0.0243015 0 0.00687587)
(-0.0250275 0 0.00683128)
(-0.0258615 -8.90455e-22 0.00685186)
(-0.0266761 -8.88741e-22 0.00689989)
(-0.0273349 0 0.00694404)
(-0.0277295 0 0.00696886)
(-0.027809 -1.72742e-21 0.00697413)
(-0.0275574 0 0.00695837)
(-0.0269835 3.21491e-21 0.00691983)
(-0.0260771 -1.51323e-21 0.0068455)
(-0.0248446 0 0.00673187)
(-0.0232698 -1.25245e-21 0.00656533)
(-0.0213992 -1.08073e-21 0.00635371)
(-0.0192419 0 0.00608055)
(-0.0169118 6.72434e-22 0.00576374)
(-0.014422 8.79201e-22 0.00537663)
(-0.0119538 -1.16972e-23 0.00495692)
(-0.00948319 0 0.00446775)
(-0.0072729 0 0.00398245)
(-0.00520822 8.92735e-22 0.00344494)
(-0.00365672 0 0.00297439)
(-0.00232932 0 0.00247162)
(-0.00173718 0 0.00211048)
(-0.00131119 0 0.00171662)
(-0.00179332 0 0.00153754)
(-0.00222339 0 0.00129077)
(-0.00372955 0 0.00133205)
(-0.00482005 -2.95076e-21 0.00123313)
(-0.00720927 2.51313e-21 0.0015044)
(-0.008663 0 0.00152451)
(-0.0117251 1.46566e-21 0.00201608)
(-0.0131271 0 0.00210194)
(-0.0165538 0 0.0027838)
(-0.0173449 -6.67282e-24 0.00284954)
(-0.0207578 0 0.0036619)
(-0.0203362 -9.6118e-22 0.00358335)
(-0.0235006 9.7635e-22 0.00444736)
(-0.0215309 0 0.004096)
(-0.0247354 2.84298e-22 0.00497603)
(-0.0214868 0 0.00429885)
(-0.0257372 0 0.00528577)
(-0.0219961 0 0.00436366)
(-0.0285889 -2.27774e-21 0.0056821)
(-0.0249148 -1.61389e-21 0.00466505)
(-0.0345087 7.33627e-24 0.00653423)
(-0.0304236 -2.36699e-21 0.00546289)
(-0.0425409 1.76131e-23 0.00791173)
(-0.036644 0 0.00661028)
(-0.0503106 0 0.00947256)
(-0.0413624 -1.20781e-20 0.00768138)
(-0.0562483 1.21687e-23 0.0108123)
(-0.0439289 0 0.00840492)
(-0.0607259 0 0.0118568)
(-0.0449834 -8.48072e-21 0.00881521)
(-0.0653886 -8.31776e-24 0.012868)
(-0.0446372 -1.10963e-23 0.0089345)
(-0.0732242 0 0.0143699)
(-0.0403039 0 0.00824477)
(-0.0905403 8.66018e-22 0.017502)
(-0.0239795 -1.26229e-21 0.00518985)
(-0.128593 0 0.0245628)
(0.0175798 0 -0.00287092)
(-0.194619 0 0.0376923)
(0.0729126 0 -0.0145975)
(-0.233563 0 0.0471822)
(0.0382307 0 -0.00946432)
(-0.148703 0 0.0315145)
(-0.114095 0 0.0201104)
(0.00720946 4.45847e-20 0.00238498)
(-0.38674 4.56884e-20 0.0701804)
(0.315804 -2.57327e-21 -0.0584474)
(-0.702411 -3.87411e-20 0.136776)
(0.44355 -6.63172e-20 -0.0907265)
(-0.770222 1.93597e-20 0.151082)
(0.63463 -4.94167e-20 -0.135482)
(-0.615091 0 0.14393)
(-0.488628 0 0.0695371)
(0.804601 0 -0.168726)
(0.435853 0 -0.101268)
(1.87431 -3.08216e-20 -0.270161)
(-5.525 0 1.01145)
(5.5088 0 -1.14498)
(-2.02915 -2.58534e-19 0.51476)
(-0.0806867 0 -0.0458676)
(1.53804 -1.48456e-20 -0.240225)
(-2.79186 -3.70778e-19 0.480058)
(5.97894 0 -1.18979)
(-0.931616 0 0.338617)
(-5.78016 0 1.04662)
(4.54179 3.14125e-19 -1.02773)
(3.53148 0 -0.507919)
(-8.22005 3.58549e-19 1.56017)
(6.00828 -2.46006e-22 -1.24144)
(-3.45082 8.52409e-19 0.800265)
(-1.63208 -3.45284e-20 0.202259)
(4.37085 0 -0.753627)
(-9.64591 -6.50449e-19 1.90925)
(2.06997 4.32977e-19 -0.592207)
(4.167 -9.3108e-20 -0.693857)
(-7.34444 0 1.5242)
(-4.18888 -6.43623e-20 0.708701)
(0.648702 0 -0.18418)
(-0.0572065 0 -0.0161549)
(-0.0660466 0 -0.00880691)
(-0.0704812 -7.3727e-22 -5.80755e-05)
(-0.0710484 0 0.00482591)
(-0.0706771 6.6178e-22 0.00676121)
(-0.0694334 -1.24376e-21 0.00723583)
(-0.0667955 0 0.00734289)
(-0.0627356 1.04765e-21 0.00766893)
(-0.0577471 -9.5901e-22 0.00823998)
(-0.0524619 -8.57682e-22 0.00884143)
(-0.047392 -7.73395e-22 0.00932891)
(-0.0428714 6.88916e-22 0.00968424)
(-0.0391108 -6.19846e-22 0.00993729)
(-0.0362341 1.11863e-21 0.010096)
(-0.0342608 0 0.0101333)
(-0.0330874 9.52067e-22 0.0100264)
(-0.0325231 0 0.00980301)
(-0.0323738 0 0.00954449)
(-0.0325124 0 0.00933864)
(-0.0328735 -8.43736e-22 0.00922577)
(-0.0333922 1.8714e-24 0.00918702)
(-0.0339525 2.42422e-24 0.00917512)
(-0.0344087 -8.34131e-22 0.00915797)
(-0.0346355 0 0.00913)
(-0.0345767 0 0.00910449)
(-0.0342179 0 0.00908471)
(-0.0335745 -3.03066e-21 0.00906704)
(-0.0326295 5.20386e-24 0.00902897)
(-0.0313875 0 0.00896376)
(-0.0298162 0 0.00885089)
(-0.0279689 0 0.00870167)
(-0.0258365 0 0.00848885)
(-0.023552 -1.27376e-21 0.00823404)
(-0.0210949 0 0.00788997)
(-0.0186809 3.96882e-22 0.00750404)
(-0.0162272 0 0.00701141)
(-0.0140634 0 0.00651108)
(-0.0119811 -8.11726e-22 0.00590964)
(-0.01047 0 0.00537519)
(-0.00908886 0 0.00475325)
(-0.00855374 1.56585e-21 0.00429701)
(-0.00804623 -3.33952e-21 0.00374628)
(-0.00863648 0 0.00346882)
(-0.00896544 -3.31221e-21 0.00305008)
(-0.0106723 0 0.0030211)
(-0.0116448 5.56054e-21 0.00275472)
(-0.0143725 -1.03821e-23 0.00301102)
(-0.0156821 0 0.00287971)
(-0.0192673 0 0.00343435)
(-0.0204751 -8.73414e-22 0.0033909)
(-0.0246608 -8.22514e-22 0.00423548)
(-0.0251699 2.1739e-23 0.00419534)
(-0.029636 0 0.00528703)
(-0.0287892 -8.92806e-22 0.00511316)
(-0.0333659 -9.21639e-22 0.00637314)
(-0.03075 -7.19262e-22 0.00589778)
(-0.0357982 -2.76377e-22 0.00726689)
(-0.0315802 0 0.00637329)
(-0.0381911 0 0.00791148)
(-0.0330353 1.99247e-21 0.0066215)
(-0.042612 4.28138e-21 0.00855463)
(-0.0369427 1.52217e-21 0.00700383)
(-0.0502735 1.12452e-24 0.00961208)
(-0.0434754 1.10941e-21 0.00787532)
(-0.0602201 2.63277e-21 0.0112748)
(-0.0507533 0 0.00920292)
(-0.0700627 0 0.0132687)
(-0.0565521 1.13822e-20 0.0105711)
(-0.0782163 2.26874e-20 0.0151371)
(-0.0602169 0 0.0116266)
(-0.0851138 9.46098e-21 0.0167244)
(-0.0623529 7.99372e-21 0.0123437)
(-0.0926791 6.06534e-21 0.0183071)
(-0.0627954 8.59627e-21 0.0127267)
(-0.104749 0 0.020544)
(-0.0576879 0 0.0120647)
(-0.129801 -8.14904e-22 0.0249067)
(-0.0355116 2.34923e-21 0.00815071)
(-0.183672 3.19751e-21 0.0345845)
(0.0228238 0 -0.00291313)
(-0.27856 0 0.0533579)
(0.104301 0 -0.0206198)
(-0.342772 0 0.06978)
(0.066617 0 -0.0170591)
(-0.234143 0 0.0509877)
(-0.143725 3.50234e-20 0.0234661)
(-0.0159739 -9.97983e-23 0.0109581)
(-0.523569 -4.29908e-20 0.0912793)
(0.419786 0 -0.0733089)
(-0.985747 -3.65472e-20 0.191004)
(0.626277 3.11037e-20 -0.128641)
(-1.10366 0 0.217565)
(0.887105 -4.63031e-20 -0.193556)
(-0.953411 3.11389e-20 0.243556)
(-0.569171 0 0.0579053)
(1.125 0 -0.243305)
(0.537949 0 -0.137224)
(2.35448 -3.05979e-20 -0.273165)
(-7.249 0 1.28954)
(7.6947 0 -1.63353)
(-3.30858 -2.4097e-19 0.868489)
(0.204388 2.27598e-19 -0.169162)
(1.80043 0 -0.231147)
(-3.66496 0 0.588885)
(8.17915 0 -1.64676)
(-1.84294 0 0.665425)
(-7.34596 0 1.27621)
(6.32863 -3.14008e-22 -1.5056)
(3.98531 0 -0.429646)
(-10.8442 -3.35517e-19 2.03433)
(8.42486 -3.8206e-19 -1.77923)
(-5.34628 0 1.28513)
(-1.73134 1.73582e-21 0.115943)
(5.4824 0 -0.875287)
(-13.0972 -1.2053e-21 2.61353)
(3.43706 0 -1.03176)
(4.86238 8.70591e-20 -0.715236)
(-10.2314 0 2.17711)
(-5.32785 -6.21296e-20 0.83087)
(1.03465 0 -0.314267)
(-0.0560167 0 -0.0108869)
(-0.0614826 0 -0.00708275)
(-0.0651081 0 -0.000671876)
(-0.0656395 0 0.00409254)
(-0.0654798 -6.24679e-22 0.006268)
(-0.065316 7.63423e-24 0.00663788)
(-0.0645957 0 0.00644059)
(-0.062763 -9.88827e-22 0.00659781)
(-0.0598001 0 0.00729555)
(-0.0560903 1.61078e-21 0.00825854)
(-0.0521262 0 0.00921518)
(-0.0483246 -6.5037e-22 0.010057)
(-0.0449901 0 0.0107709)
(-0.0423304 -1.05615e-21 0.0113383)
(-0.0404479 4.82485e-22 0.0117013)
(-0.0393103 -8.98824e-22 0.0118111)
(-0.0387598 8.51477e-22 0.0116963)
(-0.0385925 8.21216e-22 0.0114724)
(-0.0386617 0 0.0112739)
(-0.0389092 7.96712e-22 0.0111687)
(-0.039307 7.93535e-22 0.011136)
(-0.0397715 1.5806e-21 0.0111136)
(-0.0401606 7.8764e-22 0.0110653)
(-0.040329 0 0.0109984)
(-0.0402088 0 0.0109471)
(-0.0397881 0 0.0109246)
(-0.0390999 1.428e-21 0.0109282)
(-0.0381304 1.34633e-21 0.0109255)
(-0.0368909 0 0.0109072)
(-0.0353349 0 0.0108465)
(-0.0335272 -9.60676e-22 0.0107609)
(-0.0314399 0 0.0106126)
(-0.0292328 -7.16623e-25 0.0104298)
(-0.0268491 8.06173e-22 0.0101438)
(-0.0245483 -3.94991e-22 0.00981499)
(-0.0221812 0 0.00934802)
(-0.0201551 0 0.00887157)
(-0.0181529 7.66125e-22 0.00824898)
(-0.0168019 0 0.00770179)
(-0.015484 0 0.00700996)
(-0.0151439 -1.47764e-21 0.00651276)
(-0.0146771 3.15119e-21 0.00584982)
(-0.0155182 0 0.00552121)
(-0.0158564 3.12501e-21 0.00496161)
(-0.0178974 0 0.00489731)
(-0.018834 -2.61567e-21 0.0044772)
(-0.0220143 -2.22969e-21 0.00474075)
(-0.0232218 0 0.00445418)
(-0.0274217 -1.29835e-21 0.00508352)
(-0.0284315 8.23678e-22 0.00489015)
(-0.0334492 1.55214e-21 0.00590124)
(-0.0336254 -1.45563e-23 0.00571923)
(-0.0392099 -5.11487e-22 0.00709106)
(-0.0378422 8.10741e-24 0.00677587)
(-0.0439049 0 0.00844072)
(-0.0405075 6.77935e-22 0.00779728)
(-0.0475035 2.60472e-22 0.00968866)
(-0.0421483 1.93186e-22 0.00854881)
(-0.0512805 -6.66752e-22 0.0107055)
(-0.0445138 -1.87719e-21 0.00902961)
(-0.0573159 -2.00918e-21 0.0116679)
(-0.0494222 1.4128e-21 0.00955124)
(-0.0668294 -4.39061e-22 0.0129848)
(-0.057035 0 0.0105049)
(-0.0788521 0 0.0149229)
(-0.0654429 3.85099e-21 0.0119542)
(-0.0909505 0 0.0172971)
(-0.0723744 0 0.0135488)
(-0.101495 -1.0666e-20 0.0196677)
(-0.0771485 0 0.0149178)
(-0.110974 -8.90136e-21 0.0218311)
(-0.0803445 -1.50364e-20 0.0159821)
(-0.121609 0 0.0240436)
(-0.081549 -4.04647e-21 0.0167058)
(-0.138089 0 0.0270396)
(-0.0756729 0 0.0162063)
(-0.171054 7.23964e-22 0.0325729)
(-0.0477074 -1.09177e-21 0.0116714)
(-0.241064 -1.08651e-23 0.0447159)
(0.0275423 0 -0.00217645)
(-0.366153 0 0.0692916)
(0.137407 0 -0.026626)
(-0.46101 8.89045e-21 0.0945861)
(0.104013 -8.61448e-21 -0.0272974)
(-0.335864 0 0.0751955)
(-0.160349 -6.57402e-20 0.0229764)
(-0.0563131 -1.95253e-20 0.0251338)
(-0.645552 8.07139e-20 0.107823)
(0.5061 -2.44692e-21 -0.0824116)
(-1.26408 6.86276e-20 0.242151)
(0.807486 0 -0.16542)
(-1.45064 0 0.285267)
(1.13804 4.34171e-20 -0.252966)
(-1.3371 -2.90161e-20 0.397372)
(-0.576343 -1.83161e-20 0.0171901)
(1.40371 0 -0.314849)
(0.595883 0 -0.16701)
(2.71008 2.86631e-20 -0.215497)
(-8.67438 -1.07691e-19 1.47894)
(9.77065 0 -2.11145)
(-4.77979 2.2568e-19 1.2944)
(0.662951 -2.13117e-19 -0.354617)
(1.82811 0 -0.180171)
(-4.36265 0 0.63232)
(10.161 0 -2.06264)
(-2.96271 0 1.10771)
(-8.46806 0 1.37198)
(7.95244 -2.74825e-19 -1.98238)
(3.97706 0 -0.187412)
(-13.0018 0 2.38586)
(10.7126 0 -2.3045)
(-7.46988 -7.43104e-19 1.8501)
(-1.56831 1.28397e-20 -0.0747284)
(6.18372 0 -0.869228)
(-16.2042 5.69812e-19 3.24335)
(4.97633 0 -1.56265)
(5.03626 7.75348e-20 -0.574324)
(-12.9152 0 2.80941)
(-6.16575 5.8056e-20 0.848952)
(1.4545 0 -0.469543)
(-0.055169 6.37897e-22 -0.008833)
(-0.0581825 6.4174e-22 -0.0062109)
(-0.0606221 -6.28856e-22 -0.00147263)
(-0.0604762 -6.04944e-22 0.00282372)
(-0.0595164 0 0.00531388)
(-0.0589458 5.43079e-22 0.00609133)
(-0.0586862 0 0.00601468)
(-0.0581187 -9.06887e-22 0.00602804)
(-0.0568639 -8.24247e-22 0.00659409)
(-0.0549207 -1.49967e-21 0.00760459)
(-0.0525139 6.69702e-22 0.00878119)
(-0.0499488 -6.01931e-22 0.00994426)
(-0.0475136 0 0.0110248)
(-0.0454498 0 0.0119681)
(-0.0439372 -4.5487e-22 0.0126772)
(-0.0430481 1.11026e-24 0.0130577)
(-0.0427072 -1.22727e-24 0.0131117)
(-0.0427276 -8.50037e-25 0.0129699)
(-0.0429286 0 0.0128139)
(-0.0432306 0 0.0127518)
(-0.0436378 0 0.0127679)
(-0.0441221 -1.48572e-21 0.0127778)
(-0.0445676 -7.3689e-22 0.0127305)
(-0.0448071 0 0.0126427)
(-0.0447433 0 0.0125743)
(-0.0443537 -1.38835e-21 0.0125559)
(-0.0436929 0 0.0125888)
(-0.0427588 0 0.0126292)
(-0.0415775 0 0.0126647)
(-0.040085 0 0.012661)
(-0.0383599 4.97592e-24 0.012644)
(-0.0363496 0 0.0125654)
(-0.0342491 7.6625e-25 0.0124623)
(-0.0319601 -7.59936e-22 0.0122421)
(-0.0297992 -8.06645e-24 0.0119821)
(-0.0275388 0 0.0115521)
(-0.0256826 0 0.0111166)
(-0.0237828 0 0.0104886)
(-0.0226322 0 0.00995139)
(-0.021402 0 0.00920772)
(-0.0213073 0 0.00869527)
(-0.0209065 0 0.00793612)
(-0.0220603 -2.9443e-21 0.00758135)
(-0.0224311 -2.87416e-21 0.00689082)
(-0.0248798 0 0.00681373)
(-0.0257965 -2.41376e-21 0.00624207)
(-0.0295144 0 0.00653373)
(-0.0306221 0 0.00608648)
(-0.0355344 2.43368e-21 0.00681181)
(-0.0363285 0 0.00645584)
(-0.042292 -7.31301e-22 0.00765699)
(-0.0420911 0 0.00731258)
(-0.0489294 9.5763e-22 0.00899156)
(-0.0469642 7.26383e-24 0.00850606)
(-0.0546785 0 0.0106088)
(-0.0503838 0 0.00976152)
(-0.0595348 0 0.0122199)
(-0.0528793 -3.58606e-22 0.0107949)
(-0.0647946 1.24612e-21 0.0136329)
(-0.056196 1.72415e-21 0.0115304)
(-0.0725569 1.85022e-21 0.0149561)
(-0.0621474 -2.64054e-21 0.0122244)
(-0.0840558 -3.9895e-22 0.0165797)
(-0.0708884 0 0.0132859)
(-0.0983194 0 0.018828)
(-0.0804853 -1.40081e-23 0.0148622)
(-0.112876 0 0.0216028)
(-0.0886142 0 0.0166771)
(-0.126048 -9.9759e-21 0.0245001)
(-0.0945523 0 0.0183638)
(-0.138367 0 0.0272802)
(-0.0988355 1.41188e-20 0.0197977)
(-0.152345 -5.36321e-21 0.0301654)
(-0.100793 0 0.0209033)
(-0.173517 0 0.0339261)
(-0.0941227 0 0.0206541)
(-0.214684 -6.79874e-22 0.04055)
(-0.060362 0 0.0156942)
(-0.301262 -5.60835e-21 0.0549843)
(0.0320084 1.0988e-21 -0.00068603)
(-0.457908 0 0.0854265)
(0.172492 0 -0.032441)
(-0.588832 -8.34268e-21 0.121313)
(0.151197 8.29021e-24 -0.0400013)
(-0.455658 -1.04487e-20 0.104142)
(-0.161605 3.08256e-20 0.0182807)
(-0.116596 -1.81178e-20 0.0450428)
(-0.749842 -3.78568e-20 0.118742)
(0.57063 2.29397e-21 -0.0852848)
(-1.53179 4.07905e-23 0.290149)
(0.983249 0 -0.199841)
(-1.80846 1.61932e-20 0.354686)
(1.38768 0 -0.312441)
(-1.78126 0 0.509291)
(-0.50589 1.71615e-20 -0.0526209)
(1.60986 0 -0.372942)
(0.61684 0 -0.191854)
(2.95346 0 -0.109291)
(-9.79345 1.00829e-19 1.57964)
(11.6724 0 -2.56035)
(-6.37261 2.09796e-19 1.77998)
(1.27854 0 -0.600455)
(1.61182 0 -0.033173)
(-4.87258 0 0.607142)
(11.8466 0 -2.41809)
(-4.21883 0 1.61612)
(-9.15473 5.9521e-19 1.34982)
(9.3258 -2.56673e-19 -2.43458)
(3.57635 -1.45708e-19 0.185643)
(-14.6553 0 2.6094)
(12.7753 0 -2.79175)
(-9.73483 1.38867e-18 2.48315)
(-1.18229 0 -0.349531)
(6.44194 -7.92775e-20 -0.734415)
(-18.8918 0 3.78859)
(6.57542 3.49312e-19 -2.15609)
(4.73032 -7.24639e-20 -0.285588)
(-15.2666 0 3.3963)
(-6.71958 5.62659e-20 0.770835)
(1.88174 0 -0.644106)
(-0.0541843 -6.00729e-22 -0.00786808)
(-0.0558012 -1.20997e-21 -0.00573603)
(-0.0576146 5.92353e-22 -0.00226398)
(-0.0571349 6.57295e-24 0.0013695)
(-0.0555072 -5.31422e-22 0.00405038)
(-0.0541338 0 0.00541895)
(-0.0534243 0 0.00584515)
(-0.0530103 8.53971e-22 0.00602941)
(-0.0524777 1.53797e-21 0.00651651)
(-0.0516531 1.26534e-23 0.00743772)
(-0.0505261 -6.30555e-22 0.00862637)
(-0.0492017 5.6674e-22 0.00990049)
(-0.0478346 -5.04421e-22 0.0111637)
(-0.046592 0 0.012346)
(-0.0456465 0 0.0133302)
(-0.0451397 3.97744e-22 0.0139753)
(-0.0451031 -1.50711e-21 0.0142273)
(-0.0454131 -1.45493e-21 0.0141943)
(-0.0458688 0 0.0140902)
(-0.0463373 0 0.0140775)
(-0.0468244 0 0.0141645)
(-0.047368 2.45223e-24 0.0142441)
(-0.0479173 1.38461e-21 0.0142333)
(-0.0483016 -6.82123e-22 0.0141437)
(-0.0483807 -1.33723e-21 0.014064)
(-0.0480957 2.605e-21 0.0140516)
(-0.047518 -1.24313e-21 0.0141193)
(-0.0466644 -1.17132e-21 0.0142101)
(-0.045589 -1.08073e-21 0.0143058)
(-0.0442075 0 0.0143619)
(-0.0426133 8.4802e-22 0.014416)
(-0.0407179 -6.94246e-22 0.0144075)
(-0.0387602 5.34401e-22 0.0143875)
(-0.0365894 7.19453e-22 0.0142352)
(-0.034598 7.22599e-22 0.0140501)
(-0.0324615 0 0.0136611)
(-0.0308053 0 0.0132766)
(-0.0290192 -6.2379e-22 0.0126495)
(-0.0280995 0 0.0121377)
(-0.026959 1.09258e-21 0.011351)
(-0.0271422 1.24326e-21 0.0108434)
(-0.0267998 0 0.00999646)
(-0.0283058 5.49089e-21 0.009638)
(-0.0286915 2.70477e-21 0.00882091)
(-0.0315994 0 0.0087543)
(-0.032467 2.27126e-21 0.00802889)
(-0.0367915 1.9087e-21 0.00837284)
(-0.037756 0 0.00775505)
(-0.0434733 -2.26083e-21 0.00860311)
(-0.0439896 7.09226e-22 0.00806675)
(-0.0510223 6.7095e-22 0.00948916)
(-0.0503578 0 0.00895569)
(-0.0586121 -2.76029e-24 0.0109789)
(-0.0559306 1.4566e-21 0.010286)
(-0.0655069 0 0.0128716)
(-0.0601541 0 0.0117729)
(-0.07173 -2.31832e-22 0.0148552)
(-0.0635581 1.66205e-22 0.0130897)
(-0.078598 -1.15472e-21 0.0166848)
(-0.0678796 -1.62074e-21 0.0140945)
(-0.0882267 -1.7391e-21 0.0184074)
(-0.0749225 1.23248e-21 0.0149905)
(-0.101866 7.35024e-22 0.0203896)
(-0.0848359 0 0.0161909)
(-0.118551 0 0.0229956)
(-0.0956679 -6.7676e-21 0.0179077)
(-0.135786 0 0.0262014)
(-0.105046 0 0.0199357)
(-0.151851 9.36954e-21 0.0296478)
(-0.112191 0 0.0219308)
(-0.167319 -7.81418e-21 0.0330786)
(-0.117572 -1.36909e-23 0.0237443)
(-0.184987 5.03505e-21 0.0366826)
(-0.120234 0 0.0252716)
(-0.211233 0 0.0412287)
(-0.112665 0 0.0253659)
(-0.261036 -5.99191e-22 0.0488782)
(-0.0729849 0 0.0201899)
(-0.364787 2.62436e-21 0.0654314)
(0.0368358 -2.03547e-21 0.00156065)
(-0.554442 0 0.10178)
(0.210139 0 -0.038016)
(-0.726805 0 0.150016)
(0.208974 8.17567e-24 -0.0552983)
(-0.595155 9.79545e-21 0.138327)
(-0.14519 2.88658e-20 0.00872852)
(-0.199582 1.69811e-20 0.071642)
(-0.833602 -3.55106e-20 0.123263)
(0.60949 0 -0.0803156)
(-1.78327 -3.02011e-20 0.334083)
(1.14918 0 -0.229322)
(-2.17445 -1.51675e-20 0.421977)
(1.6341 0 -0.370613)
(-2.2826 0 0.574454)
(-0.355004 0 -0.153974)
(1.70982 1.41712e-21 -0.411552)
(0.616579 -3.06089e-20 -0.214608)
(3.09356 0 0.0455133)
(-10.6133 -9.72658e-20 1.58924)
(13.3408 -4.5944e-19 -2.96248)
(-8.00324 -1.96306e-19 2.30527)
(2.01782 1.90025e-19 -0.901616)
(1.13548 0 0.166152)
(-5.18966 0 0.50647)
(13.1648 0 -2.69463)
(-5.51624 0 2.1936)
(-9.45518 -5.56567e-19 1.19215)
(10.3789 2.37854e-23 -2.83994)
(2.87507 2.69129e-19 0.677204)
(-15.8039 0 2.69565)
(14.5246 0 -3.21636)
(-12.0292 -6.48591e-19 3.15524)
(-0.628252 0 -0.705711)
(6.2429 7.40944e-20 -0.461766)
(-21.1042 0 4.22538)
(8.11136 -6.51923e-19 -2.78408)
(4.01497 0 0.144855)
(-17.1646 0 3.90251)
(-7.02751 -5.25543e-20 0.600728)
(2.29252 0 -0.831287)
(-0.0530915 0 -0.00754963)
(-0.0538881 5.69658e-22 -0.00564028)
(-0.0554227 0 -0.00295306)
(-0.0549579 5.29928e-22 9.30265e-05)
(-0.0531655 9.9225e-22 0.00280256)
(-0.0513547 0 0.004672)
(-0.0501352 -4.22211e-22 0.00568927)
(-0.0493805 0 0.00627118)
(-0.0488343 -1.55203e-23 0.00686856)
(-0.0483481 1.28086e-21 0.00774557)
(-0.0478619 0 0.008883)
(-0.0473514 0 0.0101465)
(-0.0468398 4.7443e-22 0.0114376)
(-0.0463766 0 0.0126967)
(-0.046048 0 0.0138252)
(-0.0459794 0 0.0146689)
(-0.0462735 7.0763e-22 0.0151162)
(-0.0469009 6.83461e-22 0.0152129)
(-0.047684 6.67373e-22 0.0151659)
(-0.0484255 0 0.0151913)
(-0.0490772 0 0.0153509)
(-0.049713 6.54544e-22 0.0155306)
(-0.0503776 -6.49656e-22 0.0155998)
(-0.0509429 6.41552e-22 0.015539)
(-0.0512353 1.25769e-21 0.0154574)
(-0.0511287 -2.43039e-21 0.0154507)
(-0.050689 1.12737e-23 0.0155565)
(-0.0499513 1.10162e-21 0.015706)
(-0.0490172 1.0164e-21 0.0158712)
(-0.0477847 0 0.0159913)
(-0.046367 0 0.0161183)
(-0.0446238 6.5289e-22 0.0161788)
(-0.0428472 0 0.0162431)
(-0.0408177 -6.76563e-22 0.0161582)
(-0.0390272 -3.42756e-22 0.0160525)
(-0.0370301 2.33391e-23 0.0157054)
(-0.0356079 0 0.01538)
(-0.0339447 5.86536e-22 0.0147566)
(-0.0332921 8.06809e-22 0.0142834)
(-0.0322384 -2.76943e-23 0.0134584)
(-0.0327375 -2.30855e-21 0.0129747)
(-0.0324352 0 0.0120444)
(-0.0343376 -2.55704e-21 0.0117056)
(-0.0347034 0 0.0107624)
(-0.038127 0 0.0107325)
(-0.0388914 0 0.00984687)
(-0.0438985 -3.70719e-23 0.0102719)
(-0.0446428 0 0.00946831)
(-0.0512692 1.05424e-21 0.010472)
(-0.0514034 -1.31733e-21 0.00972993)
(-0.059647 -6.305e-22 0.0114125)
(-0.0583805 0 0.0106536)
(-0.0682417 -4.18073e-22 0.013068)
(-0.0646629 -1.35869e-21 0.0121185)
(-0.0763549 0 0.0152441)
(-0.0697091 0 0.013831)
(-0.0840401 2.17773e-22 0.0176091)
(-0.0740479 -1.48754e-22 0.0154273)
(-0.0926349 5.38299e-22 0.019872)
(-0.0794037 1.47659e-21 0.0167077)
(-0.10427 0 0.022027)
(-0.0875652 0 0.0178259)
(-0.120211 -1.9175e-23 0.0244161)
(-0.0986741 -8.71543e-22 0.0191913)
(-0.13951 0 0.0274309)
(-0.110765 3.17115e-21 0.0210639)
(-0.159662 0 0.0311078)
(-0.121418 0 0.0233016)
(-0.178918 0 0.0351356)
(-0.129785 0 0.0255951)
(-0.197893 2.45367e-23 0.039258)
(-0.136231 -1.85028e-23 0.0277909)
(-0.219676 -4.70398e-21 0.0436333)
(-0.139479 0 0.0297685)
(-0.251501 -1.85102e-21 0.048998)
(-0.130787 0 0.0302858)
(-0.310565 5.61822e-22 0.0576285)
(-0.0848861 -8.01458e-22 0.0250885)
(-0.432345 2.42859e-21 0.0761449)
(0.0429215 9.41859e-22 0.00450185)
(-0.656645 0 0.118405)
(0.251264 -2.08733e-21 -0.0433137)
(-0.875751 0 0.180627)
(0.278243 7.08553e-21 -0.0731312)
(-0.755961 9.08783e-21 0.177964)
(-0.108936 -2.70413e-20 -0.00610917)
(-0.308118 0 0.10553)
(-0.894217 6.65264e-20 0.120771)
(0.618886 0 -0.0665753)
(-2.01294 -2.83298e-20 0.372771)
(1.29964 0 -0.25441)
(-2.54492 -1.42836e-20 0.486018)
(1.87823 0 -0.424764)
(-2.81238 -3.53615e-20 0.719229)
(-0.12516 -1.38297e-20 -0.28658)
(1.67062 -1.32574e-21 -0.421257)
(0.618344 2.86416e-20 -0.240219)
(3.12985 0 0.244974)
(-11.1529 1.83551e-19 1.50899)
(14.7249 8.59801e-19 -3.30215)
(-9.57788 0 2.85107)
(2.8365 -1.77715e-19 -1.24873)
(0.414376 0 0.454341)
(-5.32188 0 0.331616)
(14.0526 -5.15248e-19 -2.87628)
(-6.76337 0 2.80039)
(-9.43843 0 0.94264)
(11.0707 2.24315e-19 -3.18244)
(1.97294 -2.44877e-19 1.2584)
(-16.484 -2.63227e-19 2.64933)
(15.8878 0 -3.55693)
(-14.2225 0 3.84324)
(0.0297456 0 -1.12758)
(5.59375 0 -0.0531946)
(-22.8068 -4.70388e-19 4.54337)
(9.46312 3.04113e-19 -3.41716)