/*--------------------------------*- C++ -*----------------------------------*\
| =========                 |                                                 |
| \\      /  F ield         | OpenFOAM: The Open Source CFD Toolbox           |
|  \\    /   O peration     | Version:  2412                                  |
|   \\  /    A nd           | Website:  www.openfoam.com                      |
|    \\/     M anipulation  |                                                 |
\*---------------------------------------------------------------------------*/
FoamFile
{
    version     2.0;
    format      ascii;
    arch        "LSB;label=32;scalar=64";
    class       surfaceScalarField;
    location    "0.54";
    object      phi_0;
}
// * * * * * * * * * * * * * * * * * * * * * * * * * * * * * * * * * * * * * //

dimensions      [0 3 -1 0 0 0 0];

oriented        oriented;

internalField   nonuniform List<scalar> 
24930
(
0.0161148
0.0211441
-0.0372917
0.0066959
0.00941886
0.00311689
0.00357901
0.0017656
0.0013513
0.0011504
0.000615194
0.00078967
0.000360737
0.000546119
0.000243553
0.000370629
0.000175494
0.000239695
0.00013094
0.000139997
9.97002e-05
6.22063e-05
7.77827e-05
9.47804e-07
6.12558e-05
-4.7091e-05
4.8054e-05
-8.53258e-05
3.82408e-05
-0.000115371
3.00142e-05
-0.000138773
2.33744e-05
-0.000157101
1.83587e-05
-0.000170998
1.39538e-05
-0.000181165
1.01606e-05
-0.000188448
7.15244e-06
-0.00019308
4.45503e-06
-0.000195593
2.72487e-06
-0.000196082
1.2389e-06
-0.000195323
-9.57205e-07
-0.000193537
-3.00551e-06
-0.000190528
-3.16679e-06
-0.000186567
-2.97083e-06
-0.000181853
-3.35095e-06
-0.000176963
-4.85804e-06
-0.000171558
-5.66366e-06
-0.000165827
-5.68268e-06
-0.000159919
-5.88736e-06
-0.000153853
-6.11972e-06
-0.000147702
-6.16803e-06
-0.000141537
-6.1608e-06
-0.000135396
-6.14481e-06
-0.000129352
-6.04929e-06
-0.000123449
-5.90536e-06
-0.000117729
-5.72405e-06
-0.000112223
-5.5069e-06
-0.000106948
-5.27304e-06
-0.000101923
-5.02189e-06
-9.71139e-05
-4.80723e-06
-9.24865e-05
-4.62254e-06
-8.80351e-05
-4.44351e-06
-8.37405e-05
-4.28774e-06
-7.9625e-05
-4.11213e-06
-7.57455e-05
-3.87762e-06
-7.21825e-05
-3.56072e-06
-6.90347e-05
-3.1459e-06
-6.63867e-05
-2.64683e-06
-6.42886e-05
-2.09972e-06
-6.27175e-05
-1.57446e-06
-6.15117e-05
-1.20803e-06
-6.0317e-05
-1.19374e-06
-5.84696e-05
-1.84673e-06
-5.49166e-05
-3.55796e-06
-4.81967e-05
-6.72822e-06
-3.66009e-05
-1.1603e-05
-1.86991e-05
-1.79038e-05
5.76366e-06
-2.44602e-05
3.45239e-05
-2.87679e-05
6.27281e-05
-2.82062e-05
8.37098e-05
-2.09506e-05
9.22973e-05
-8.56696e-06
8.83733e-05
3.84621e-06
7.68424e-05
1.15225e-05
6.47728e-05
1.20901e-05
5.84361e-05
6.36147e-06
6.11633e-05
-2.66429e-06
7.07247e-05
-9.4581e-06
7.49987e-05
-4.61099e-06
6.02641e-05
1.46648e-05
3.6592e-06
5.6654e-05
-0.000107782
0.00011146
-0.000272891
0.000165105
-0.000432026
0.000159129
-0.00047145
3.97176e-05
-0.000337482
-0.000134452
-2.45994e-05
-0.00031297
6.69043e-05
-9.13918e-05
0.00176758
-0.00170074
0.0033058
-0.00153779
0.00110245
0.00220325
-7.30639e-05
0.00117532
0.000148748
-0.000221787
8.20623e-05
6.66205e-05
0.00040188
-0.000319718
0.000649639
-0.000247571
0.000791907
-0.000142324
0.000623155
0.000168333
-0.000370611
0.000993659
-0.00197063
0.00160001
-0.00362614
0.00165554
-0.00477812
0.00115195
-0.00500189
0.000224173
-0.00437745
-0.000624507
-0.00325537
-0.00112231
-0.00197338
-0.00128205
-0.000959884
-0.00101339
-0.000239381
-0.000720468
0.000167268
-0.000406666
0.000314366
-0.000147059
0.000410957
-9.6555e-05
0.00059409
-0.000183095
0.000829235
-0.000235117
0.000970307
-0.00014109
0.000652479
0.000317741
-5.81303e-05
0.000710544
-0.000573457
0.000515336
-0.000511814
-6.15373e-05
-8.8804e-05
-0.000422996
0.000258254
-0.000347044
0.00049544
-0.000237215
0.000631837
-0.000136402
0.000788015
-0.00015618
0.000845289
-5.7258e-05
0.000956201
-0.000110921
0.00103914
-8.29632e-05
-0.000120344
0.0339662
0.0300402
-0.0428623
0.0229387
0.0204464
0.0145995
0.0119181
0.00944486
0.00650595
0.00640615
0.00365391
0.00453526
0.00223163
0.0032895
0.00148931
0.00240449
0.00106051
0.00174787
0.000787572
0.00124569
0.000601874
0.00085443
0.000469044
0.000545028
0.000370659
0.000298188
0.000294895
0.000101097
0.000235333
-5.8949e-05
0.000190056
-0.000192429
0.000156841
-0.000298607
0.000124514
-0.000383078
9.84158e-05
-0.000449431
7.65414e-05
-0.000501114
5.88407e-05
-0.000540021
4.32814e-05
-0.000568499
3.11894e-05
-0.000587694
2.06752e-05
-0.000599747
1.09785e-05
-0.00060558
2.56618e-06
-0.000606151
-2.49882e-06
-0.000602304
-6.47906e-06
-0.000594782
-1.05164e-05
-0.000584537
-1.54071e-05
-0.000571799
-1.83567e-05
-0.000557118
-2.03434e-05
-0.000540943
-2.21387e-05
-0.00052358
-2.34821e-05
-0.000505378
-2.43412e-05
-0.000486611
-2.49417e-05
-0.000467504
-2.52781e-05
-0.000448366
-2.51953e-05
-0.000429415
-2.48549e-05
-0.000410826
-2.43158e-05
-0.000392744
-2.35927e-05
-0.000375259
-2.27599e-05
-0.000358451
-2.18284e-05
-0.000342246
-2.10091e-05
-0.00032654
-2.03261e-05
-0.000311321
-1.96592e-05
-0.000296559
-1.90469e-05
-0.000282339
-1.83282e-05
-0.000268874
-1.73384e-05
-0.00025646
-1.59723e-05
-0.000245453
-1.41533e-05
-0.00023616
-1.19419e-05
-0.000228755
-9.5076e-06
-0.000223158
-7.17745e-06
-0.000218801
-5.57539e-06
-0.000214432
-5.57719e-06
-0.000207746
-8.54764e-06
-0.000195094
-1.62186e-05
-0.000171451
-3.03693e-05
-0.000131024
-5.20199e-05
-6.89654e-05
-7.99477e-05
1.5572e-05
-0.000108986
0.000115149
-0.000128328
0.000213763
-0.000126807
0.000288737
-9.5928e-05
0.000322081
-4.18957e-05
0.000312127
1.38623e-05
0.000274493
4.91881e-05
0.000233229
5.33546e-05
0.000210075
2.9497e-05
0.000217205
-9.84784e-06
0.000244961
-3.72689e-05
0.000251968
-1.16504e-05
0.000186074
8.06716e-05
-2.69756e-05
0.00026969
-0.000428102
0.000512567
-0.000996652
0.000733636
-0.00151384
0.000676285
-0.0016322
0.000157681
-0.00109501
-0.000671428
-3.81616e-05
-0.00136982
0.000159311
-0.000288909
0.00568206
-0.00722336
0.0107972
-0.00665311
0.00422049
0.00878011
9.97107e-05
0.00529624
0.000500128
-0.000622213
0.000386516
0.000180199
0.00139453
-0.00132777
0.00223649
-0.00108965
0.00256003
-0.000465864
0.0015995
0.00112914
-0.0020371
0.00463034
-0.00743239
0.00699531
-0.0125968
0.00682001
-0.0158668
0.00442195
-0.0161805
0.000538118
-0.0139031
-0.0029018
-0.0102197
-0.0048055
-0.00615055
-0.00535117
-0.0028673
-0.0042967
-0.000598194
-0.00298958
0.000708657
-0.0017135
0.00119742
-0.000635836
0.00155294
-0.000452101
0.00219412
-0.000824285
0.00293148
-0.000972477
0.00319826
-0.000407852
0.00194608
0.00156999
-0.000361746
0.00301843
-0.00182593
0.00197952
-0.00142564
-0.000461911
-6.64743e-05
-0.00178218
0.00107714
-0.00149066
0.00181777
-0.000977828
0.0023016
-0.000620241
0.00277195
-0.000626531
0.00299262
-0.000277947
0.00333245
-0.000450752
0.00363095
-0.000381439
-0.000623014
0.0438054
0.0322482
-0.0460134
0.0365455
0.0277063
0.0279358
0.0205278
0.020454
0.0139878
0.0148814
0.00922654
0.0109622
0.00615079
0.00819898
0.00425258
0.00619295
0.00306654
0.00468837
0.00229215
0.00352956
0.00176069
0.00261886
0.00137975
0.00189254
0.00109698
0.00130692
0.00088052
0.000831317
0.000710923
0.000444005
0.000577361
0.00012896
0.000471885
-0.000129713
0.000383176
-0.000341694
0.000310388
-0.000512738
0.00024759
-0.000650132
0.000196233
-0.000758544
0.000151713
-0.000842876
0.000115421
-0.000906938
8.41116e-05
-0.000953341
5.74291e-05
-0.000984993
3.50742e-05
-0.00100386
1.65818e-05
-0.00101278
2.12731e-06
-0.00101301
-1.09228e-05
-0.00100643
-2.22973e-05
-0.000993451
-3.11916e-05
-0.000975555
-3.82721e-05
-0.000953608
-4.41493e-05
-0.000928414
-4.8669e-05
-0.000900752
-5.19939e-05
-0.000871242
-5.44676e-05
-0.000840412
-5.61249e-05
-0.000808911
-5.67053e-05
-0.000777227
-5.65435e-05
-0.000745742
-5.58053e-05
-0.000714778
-5.45609e-05
-0.00068455
-5.29902e-05
-0.000655241
-5.11402e-05
-0.000626767
-4.94828e-05
-0.000598984
-4.81073e-05
-0.000571894
-4.67471e-05
-0.000545482
-4.54565e-05
-0.000519926
-4.38817e-05
-0.000495633
-4.16279e-05
-0.000473163
-3.84393e-05
-0.000453178
-3.41371e-05
-0.000436248
-2.88734e-05
-0.000422703
-2.30563e-05
-0.00041239
-1.74971e-05
-0.000404271
-1.37042e-05
-0.000396054
-1.38064e-05
-0.000383555
-2.10589e-05
-0.00036021
-3.95703e-05
-0.000317063
-7.35169e-05
-0.00024382
-0.000125256
-0.000131935
-0.000191822
2.03011e-05
-0.000261207
0.00020037
-0.000308378
0.000379955
-0.000306372
0.00051916
-0.000235117
0.000585005
-0.000107722
0.000572648
2.62563e-05
0.000508256
0.000113592
0.00043446
0.000127151
0.000390676
7.32737e-05
0.000399462
-1.86479e-05
0.000441627
-7.94359e-05
0.000442166
-1.2369e-05
0.000303521
0.000219326
-0.000101619
0.000674795
-0.000849788
0.00126072
-0.0018709
0.00175475
-0.00276339
0.00156876
-0.00293709
0.000331355
-0.00190121
-0.00170727
-3.71968e-06
-0.00326758
0.000230078
-0.000522581
0.00949423
-0.0164875
0.0186235
-0.0157823
0.00812795
0.0192758
0.000648442
0.0127758
0.000936364
-0.000910157
0.000811622
0.000304879
0.0025528
-0.00306896
0.0039937
-0.00253059
0.00432881
-0.000800922
0.00215004
0.00330801
-0.00466919
0.0114496
-0.0141909
0.0165171
-0.0226846
0.0153137
-0.0276175
0.00935477
-0.0275645
0.000485454
-0.0233518
-0.00711443
-0.0170271
-0.0111302
-0.0101565
-0.0122216
-0.00459933
-0.0098539
-0.000766404
-0.00682248
0.00145621
-0.0039361
0.0023225
-0.00150212
0.00298723
-0.00111682
0.00414239
-0.00197944
0.00535803
-0.0021881
0.00557534
-0.000625115
0.00317368
0.00397167
-0.000789646
0.00698176
-0.00306034
0.00425022
-0.00215554
-0.00136672
0.000192457
-0.00413017
0.00216592
-0.00346412
0.00342909
-0.002241
0.00429314
-0.0014843
0.00508129
-0.00141469
0.00548576
-0.000682427
0.00606532
-0.00103032
0.00662306
-0.000939188
-0.00163154
0.0496338
0.0317019
-0.0490875
0.0464615
0.0308787
0.040214
0.0267753
0.0328417
0.02136
0.0259211
0.0161471
0.0201744
0.0118975
0.0156718
0.00875519
0.0122008
0.00653757
0.00951038
0.00498258
0.00739776
0.0038733
0.00571597
0.00306155
0.00436109
0.00245187
0.00325899
0.00198263
0.00235614
0.00161376
0.00161354
0.00131995
0.00100153
0.00108389
0.00049609
0.000888613
8.05383e-05
0.000725933
-0.00026389
0.000592012
-0.000545461
0.000477782
-0.000773195
0.000379459
-0.000955881
0.000298072
-0.00110014
0.000228135
-0.00121161
0.00016895
-0.00129511
0.000119175
-0.00135556
7.68149e-05
-0.00139574
4.1264e-05
-0.00141874
1.11354e-05
-0.00142757
-1.36717e-05
-0.00142563
-3.29995e-05
-0.00141318
-5.07803e-05
-0.00139247
-6.49095e-05
-0.001365
-7.61348e-05
-0.0013322
-8.47929e-05
-0.00129523
-9.14561e-05
-0.00125507
-9.62911e-05
-0.00121287
-9.89161e-05
-0.00116951
-9.99102e-05
-0.00112568
-9.96385e-05
-0.00108197
-9.82757e-05
-0.0010388
-9.6168e-05
-0.000996503
-9.34368e-05
-0.000955054
-9.0931e-05
-0.000914298
-8.8861e-05
-0.000874287
-8.67561e-05
-0.00083506
-8.4681e-05
-0.000796921
-8.20181e-05
-0.000760517
-7.80284e-05
-0.000726725
-7.22293e-05
-0.000696568
-6.42943e-05
-0.000670926
-5.45176e-05
-0.000650307
-4.36793e-05
-0.000634485
-3.33263e-05
-0.00062189
-2.631e-05
-0.000609055
-2.66538e-05
-0.000589691
-4.04352e-05
-0.000553986
-7.52839e-05
-0.000488655
-0.000138849
-0.000378506
-0.000235399
-0.000210919
-0.000359397
1.70193e-05
-0.00048913
0.000287582
-0.00057892
0.000559937
-0.000578704
0.000775357
-0.000450515
0.000883461
-0.000215809
0.000873923
3.58215e-05
0.000782786
0.000204737
0.000672829
0.00023711
0.000603707
0.000142388
0.00060996
-2.49072e-05
0.000661512
-0.000130984
0.000644016
5.06401e-06
0.000406348
0.000456963
-0.000236213
0.00131731
-0.00138645
0.00241093
-0.00290596
0.00327427
-0.004191
0.0028538
-0.0043873
0.000527657
-0.00275315
-0.00334141
0.000113499
-0.00613427
0.000425056
-0.000834174
0.012975
-0.0290374
0.0263881
-0.0291954
0.0128442
0.0328199
0.00171372
0.0239064
0.0014955
-0.000691961
0.00137468
0.000425629
0.00389222
-0.00558654
0.00589917
-0.00453758
0.00604236
-0.000944149
0.00210695
0.00724348
-0.00843584
0.0219924
-0.022245
0.0303262
-0.0337408
0.0268095
-0.0397506
0.0153645
-0.038848
-0.000417073
-0.0324744
-0.013488
-0.0235278
-0.0200767
-0.0139427
-0.0218067
-0.00612
-0.0176766
-0.000724761
-0.0122177
0.00243526
-0.00709612
0.00371614
-0.00278299
0.00474677
-0.00214745
0.00646238
-0.00369504
0.00810842
-0.00383413
0.00808404
-0.000600834
0.00432063
0.0077351
-0.00129757
0.0126
-0.0041982
0.00715085
-0.00263114
-0.00293379
0.000740011
-0.00750132
0.00355162
-0.00627573
0.00535601
-0.00404538
0.00662119
-0.00274948
0.00773413
-0.00252763
0.00833912
-0.00128742
0.00917951
-0.00187072
0.0100442
-0.00180383
-0.00327178
0.053465
0.0305403
-0.0523034
0.0529451
0.0313986
0.0496919
0.0300285
0.0442611
0.0267908
0.0378069
0.0226013
0.031376
0.0183285
0.0255916
0.0145395
0.0206797
0.0114495
0.0166234
0.00903887
0.0133058
0.00719086
0.0105927
0.00577469
0.00836527
0.0046793
0.00652756
0.00382034
0.00500445
0.00313686
0.0037381
0.00258629
0.00268341
0.00213858
0.00180359
0.00176843
0.00107006
0.00145947
0.000460358
0.0012017
-4.35654e-05
0.000981675
-0.000462503
0.000798401
-0.00080418
0.000639733
-0.00108076
0.000504635
-0.00130151
0.000389776
-0.00147469
0.00029238
-0.00160731
0.000209229
-0.00170572
0.000139213
-0.00177577
8.0616e-05
-0.00182047
3.15546e-05
-0.00184281
-1.06178e-05
-0.00184996
-4.36872e-05
-0.00184155
-7.33629e-05
-0.00182077
-9.69124e-05
-0.00179004
-0.000115526
-0.00175133
-0.000130179
-0.00170632
-0.000141323
-0.0016568
-0.000148445
-0.00160424
-0.000152471
-0.0015498
-0.000154085
-0.00149444
-0.000153634
-0.0014389
-0.000151713
-0.00138377
-0.000148568
-0.00132915
-0.000145552
-0.00127493
-0.000143076
-0.00122128
-0.000140412
-0.00116832
-0.000137634
-0.00111654
-0.000133791
-0.00106689
-0.000127681
-0.0010206
-0.000118512
-0.000979135
-0.000105764
-0.000943727
-8.99281e-05
-0.000915098
-7.23136e-05
-0.000892935
-5.54971e-05
-0.000875068
-4.41877e-05
-0.000856718
-4.50168e-05
-0.00082928
-6.78852e-05
-0.000779422
-0.000125149
-0.000689197
-0.000229076
-0.000538152
-0.000386439
-0.000309227
-0.000588311
2.4356e-06
-0.000800776
0.000373073
-0.000949536
0.000750297
-0.000955903
0.00105507
-0.000755266
0.00121704
-0.000377756
0.00121765
3.52239e-05
0.00110142
0.000320981
0.000952102
0.000386432
0.000852228
0.000242258
0.000850117
-2.28021e-05
0.000903458
-0.000184328
0.000852532
5.6511e-05
0.000484636
0.000824824
-0.000444759
0.00224667
-0.0020556
0.00402175
-0.00411419
0.00533287
-0.0057981
0.00453771
-0.00597149
0.000701035
-0.00364025
-0.00567269
0.000278062
-0.0100526
0.000985108
-0.00154125
0.0158714
-0.0439238
0.0334436
-0.0467676
0.0183318
0.0479321
0.00338091
0.0388574
0.00222363
0.000465216
0.0020906
0.000558556
0.00541511
-0.00891109
0.00792781
-0.00705032
0.00759822
-0.000614544
0.00132877
0.013513
-0.0134447
0.0367659
-0.0315428
0.0484243
-0.0454801
0.0407468
-0.0518906
0.0217751
-0.0496787
-0.00262965
-0.0410271
-0.0221395
-0.0295895
-0.0315143
-0.0174346
-0.0339615
-0.00741534
-0.0276959
-0.000457174
-0.0191759
0.00366826
-0.0112215
0.00541182
-0.00452653
0.00686698
-0.0036026
0.00917823
-0.00600628
0.0111851
-0.00584096
0.010718
-0.000133851
0.00542114
0.0130319
-0.00180968
0.0198308
-0.00517458
0.0105157
-0.00282861
-0.00527977
0.00158166
-0.0119116
0.00524892
-0.00994298
0.00761621
-0.00641267
0.0093017
-0.00443498
0.0107479
-0.0039738
0.0115723
-0.00211183
0.0127025
-0.00300095
0.0139169
-0.00301826
-0.00567461
0.0566459
0.0295737
-0.0556792
0.0572553
0.0307892
0.0562879
0.0309959
0.0533032
0.0297755
0.0486182
0.0272864
0.0429333
0.0240133
0.0369625
0.0205103
0.0312347
0.0171774
0.0260472
0.0142263
0.0215106
0.0117274
0.0176204
0.00966494
0.0143172
0.00798248
0.0115243
0.00661325
0.00916608
0.00549509
0.00717567
0.00457669
0.00549631
0.00381794
0.00407952
0.00318521
0.00288546
0.00265353
0.00188144
0.00220571
0.00103925
0.00182383
0.000336856
0.0015008
-0.000246478
0.00122308
-0.000728013
0.000986154
-0.00112076
0.000782554
-0.00143753
0.000609054
-0.00168906
0.000460609
-0.0018847
0.000334857
-0.00203254
0.00022851
-0.00214044
0.000139825
-0.0022156
6.45472e-05
-0.00225766
-1.62939e-06
-0.0022786
-5.24368e-05
-0.00227828
-9.72359e-05
-0.00226078
-0.000133037
-0.00222934
-0.000161635
-0.00218665
-0.000184022
-0.00213547
-0.000199634
-0.00207809
-0.000209859
-0.00201632
-0.000215862
-0.00195169
-0.000218264
-0.00188539
-0.000218018
-0.00181841
-0.000215552
-0.00175108
-0.000212875
-0.00168345
-0.000210706
-0.00161584
-0.000208016
-0.00154859
-0.000204888
-0.00148238
-0.000199988
-0.00141853
-0.000191528
-0.00135873
-0.00017832
-0.00130489
-0.0001596
-0.00125869
-0.000136128
-0.00122109
-0.000109919
-0.00119169
-8.49069e-05
-0.00116766
-6.82305e-05
-0.00114278
-6.99073e-05
-0.00110595
-0.000104733
-0.00104005
-0.000191051
-0.000922225
-0.000346907
-0.000726466
-0.000582192
-0.000430968
-0.000883797
-2.93408e-05
-0.00120239
0.000451796
-0.00143065
0.000946284
-0.00145037
0.00135492
-0.00116387
0.00158484
-0.000607654
0.00160542
1.46539e-05
0.00146747
0.000458935
0.00127615
0.000577766
0.00113952
0.000378879
0.00112142
-4.69191e-06
0.00116646
-0.000229379
0.00106278
0.000160263
0.000528216
0.00135936
-0.000742278
0.00351713
-0.00287194
0.0061514
-0.00550331
0.00796425
-0.00758204
0.00661644
-0.0076809
0.000799866
-0.00455223
-0.00880141
0.000448328
-0.0150532
0.0021427
-0.00323561
0.0179317
-0.059713
0.039054
-0.0678898
0.0244757
0.0625109
0.00571862
0.0576145
0.00317984
0.00300401
0.00297743
0.000760841
0.0071143
-0.013048
0.0100479
-0.00998393
0.00890504
0.000528276
-0.000338573
0.0227567
-0.0197559
0.0561833
-0.0419156
0.070584
-0.0575541
0.0563852
-0.0636777
0.0278986
-0.0598183
-0.00648923
-0.0488984
-0.0330594
-0.0351854
-0.0452273
-0.0206622
-0.0484846
-0.00850928
-0.0398488
3.46359e-05
-0.0277197
0.0051697
-0.0163566
0.00743308
-0.0067899
0.00937548
-0.005545
0.0123074
-0.00893823
0.0145886
-0.00812208
0.0134793
0.000975553
0.00650547
0.0200058
-0.00224471
0.028581
-0.00591046
0.0141815
-0.00269919
-0.00849104
0.00274535
-0.0173561
0.00727547
-0.0144731
0.0102261
-0.00936329
0.0123491
-0.00655803
0.0141371
-0.0057618
0.0152049
-0.00317954
0.0166615
-0.00445763
0.0182568
-0.00461356
-0.00895879
0.0599523
0.0289003
-0.0592789
0.0607537
0.0299878
0.0609577
0.0307919
0.0598819
0.0308513
0.057256
0.0299123
0.0532341
0.0280352
0.0482294
0.0255151
0.0427257
0.0226811
0.0371493
0.0198027
0.0318112
0.0170655
0.0268991
0.014577
0.0224986
0.012383
0.0186249
0.010487
0.0152529
0.00886704
0.012339
0.00749055
0.00983369
0.00632326
0.00768723
0.00533166
0.00585391
0.00448686
0.00429332
0.00376628
0.00296916
0.00314796
0.00185101
0.00261895
0.000911054
0.00216305
0.00012633
0.00177088
-0.000525185
0.00143406
-0.00106053
0.00114433
-0.00149556
0.000895637
-0.0018443
0.000683693
-0.00211886
0.000503221
-0.00232954
0.000350546
-0.00248598
0.000220927
-0.00260017
0.000112415
-0.00266976
1.71402e-05
-0.00270978
-5.7217e-05
-0.00272246
-0.000120372
-0.00271198
-0.000172132
-0.00268272
-0.000213295
-0.00263882
-0.000243549
-0.0025837
-0.000264987
-0.00252012
-0.000279443
-0.00245044
-0.000287944
-0.00237651
-0.000291955
-0.0022999
-0.000292161
-0.00222137
-0.000291407
-0.0021412
-0.000290869
-0.00206003
-0.000289181
-0.00197846
-0.000286463
-0.00189749
-0.000280955
-0.00181885
-0.000270166
-0.00174474
-0.000252427
-0.00167765
-0.000226689
-0.00161973
-0.000194052
-0.00157221
-0.000157439
-0.00153463
-0.000122501
-0.00150344
-9.94267e-05
-0.00147091
-0.000102453
-0.00142327
-0.000152389
-0.00133947
-0.000274858
-0.00119152
-0.000494855
-0.000947697
-0.000826011
-0.00058115
-0.00125033
-8.31875e-05
-0.00170033
0.000516946
-0.00203076
0.00114094
-0.00207433
0.00166905
-0.00169196
0.00198334
-0.000921924
0.00203713
-3.91027e-05
0.00188325
0.000612827
0.0016484
0.000812622
0.00146844
0.000558843
0.00142491
3.8808e-05
0.00144819
-0.000252664
0.00126816
0.000340278
0.00052501
0.00210247
-0.00114437
0.00518647
-0.00384868
0.0088557
-0.00707679
0.0111924
-0.00953519
0.00907483
-0.00950029
0.000764916
-0.00548008
-0.0128217
0.000535639
-0.021069
0.00392045
-0.0066204
0.0188959
-0.0746886
0.0426477
-0.0916416
0.0311143
0.0740449
0.00877308
0.0799558
0.00444089
0.00733615
0.00405507
0.00114653
0.00897346
-0.0179664
0.012213
-0.0132235
0.00984035
0.00290104
-0.00291546
0.0355126
-0.0273651
0.080633
-0.0531114
0.0963303
-0.0695695
0.0728432
-0.0748309
0.03316
-0.0691463
-0.0121739
-0.0560901
-0.0461156
-0.0403616
-0.0609558
-0.0236831
-0.0651631
-0.00946243
-0.0540694
0.000747552
-0.0379297
0.00694706
-0.0225561
0.00980014
-0.00964297
0.0122943
-0.0080391
0.0158628
-0.0125068
0.0183226
-0.0105819
0.0163839
0.00291436
0.00763678
0.028753
-0.00250933
0.0387271
-0.00634653
0.0180186
-0.00222987
-0.0126077
0.0042402
-0.0238262
0.00964366
-0.0198766
0.0132005
-0.0129201
0.0157788
-0.00913632
0.0179215
-0.00790455
0.0192588
-0.00451683
0.0210883
-0.00628716
0.023071
-0.00659619
-0.0132173
0.0636312
0.0284055
-0.0631364
0.0642829
0.0293362
0.0648264
0.0302483
0.0647871
0.0308906
0.0637427
0.0309567
0.0614875
0.0302905
0.0580636
0.0289389
0.0536908
0.0270539
0.0486768
0.0248166
0.0433446
0.0223978
0.0379808
0.0199408
0.0328079
0.017556
0.0279754
0.0153195
0.0235666
0.0132758
0.019614
0.0114431
0.0161156
0.00982167
0.0130483
0.00839895
0.0103787
0.00715653
0.00806951
0.00607543
0.00608276
0.00513469
0.00438314
0.00431858
0.0029367
0.00360948
0.00171315
0.00299442
0.000685211
0.002462
-0.00017177
0.00200128
-0.000880491
0.00160445
-0.00146008
0.00126337
-0.0019281
0.000971351
-0.00229995
0.000722348
-0.00258922
0.000510146
-0.00280696
0.000330099
-0.0029695
0.000179676
-0.00307638
4.96541e-05
-0.00314162
-5.515e-05
-0.00317296
-0.000140815
-0.00317376
-0.000212506
-0.0031506
-0.000266723
-0.00310862
-0.000306966
-0.00305194
-0.000336127
-0.00298406
-0.000355833
-0.00290778
-0.000368239
-0.00282555
-0.000374391
-0.00273877
-0.000378187
-0.00264816
-0.000381473
-0.00255481
-0.000382526
-0.00245972
-0.000381555
-0.0023643
-0.000376369
-0.00227079
-0.000363665
-0.002182
-0.000341218
-0.00210105
-0.000307645
-0.00203063
-0.000264473
-0.00197232
-0.000215756
-0.00192558
-0.000169245
-0.00188618
-0.000138844
-0.00184477
-0.000143877
-0.00178486
-0.000212306
-0.0016814
-0.000378331
-0.00150121
-0.000675045
-0.00120674
-0.00112047
-0.00076585
-0.00169121
-0.00016681
-0.00229936
0.000559585
-0.00275714
0.00132471
-0.00283943
0.00198881
-0.00235602
0.00240672
-0.00133981
0.00251029
-0.00014264
0.00234973
0.000773397
0.00207157
0.00109079
0.00184163
0.000788788
0.00176102
0.000119405
0.00174568
-0.000237338
0.00146087
0.000625076
0.000461951
0.00310136
-0.0016662
0.00731459
-0.004996
0.0121855
-0.00883349
0.0150299
-0.0116456
0.011887
-0.0114129
0.000532106
-0.00642462
-0.01781
0.000408127
-0.0279019
0.00597563
-0.0121879
0.0185782
-0.0872914
0.0441462
-0.11721
0.0381061
0.0800856
0.0125764
0.105486
0.00609913
0.0138134
0.00534838
0.00189714
0.010967
-0.0235851
0.0143628
-0.0166193
0.0102821
0.00698167
-0.00661434
0.0524092
-0.0361935
0.110212
-0.0648062
0.124943
-0.081172
0.0892088
-0.08522
0.037208
-0.0777326
-0.0196613
-0.0627489
-0.0610994
-0.0452536
-0.078451
-0.0266223
-0.0837943
-0.0103766
-0.0703151
0.00161956
-0.0499258
0.00899464
-0.0299311
0.0125204
-0.0131687
0.015633
-0.0111517
0.0198505
-0.0167243
0.0223925
-0.0131238
0.0194626
0.00584419
0.00888858
0.0393271
-0.00250824
0.0501239
-0.00642404
0.0219344
-0.00139745
-0.0176343
0.00607801
-0.0313017
0.0123668
-0.0261653
0.0165557
-0.0171091
0.0196085
-0.0121891
0.0221244
-0.0104205
0.0237578
-0.0061502
0.026015
-0.00854442
0.0283571
-0.00893827
-0.0184947
0.0676638
0.0279978
-0.0672561
0.0681487
0.0288513
0.0686635
0.0297335
0.0689919
0.0305622
0.0688239
0.0311247
0.0678738
0.0312406
0.0659717
0.030841
0.0630861
0.0299396
0.0593059
0.0285969
0.0548053
0.0268983
0.0498059
0.0249402
0.0445426
0.0228192
0.0392361
0.020626
0.0340714
0.0184405
0.0291863
0.0163282
0.0246703
0.0143377
0.0205699
0.0124994
0.0168991
0.0108274
0.01365
0.0093245
0.0108007
0.00798394
0.00832266
0.00679663
0.00618301
0.00574911
0.00434869
0.00482874
0.00278736
0.00402334
0.00146812
0.00332053
0.000362485
0.00271019
-0.000555963
0.00218187
-0.00131119
0.00172662
-0.00192475
0.00133585
-0.00241595
0.0010013
-0.00280182
0.000715928
-0.00309665
0.000474494
-0.0033182
0.0002712
-0.00347326
9.99017e-05
-0.00357137
-4.27278e-05
-0.00362773
-0.000156161
-0.00364549
-0.000248968
-0.00363304
-0.00031943
-0.00359644
-0.000372728
-0.00354092
-0.000411357
-0.00347066
-0.000438511
-0.00338935
-0.000455695
-0.00329939
-0.000468148
-0.00320218
-0.000478684
-0.00309947
-0.000485229
-0.00299285
-0.000488173
-0.00288427
-0.000484943
-0.0027766
-0.000471332
-0.00267333
-0.000444489
-0.00257831
-0.000402666
-0.00249487
-0.000347907
-0.002425
-0.000285634
-0.00236816
-0.000226095
-0.00231942
-0.000187597
-0.00226787
-0.000195441
-0.00219432
-0.000285874
-0.00206972
-0.000502934
-0.00185584
-0.000888931
-0.00150931
-0.00146699
-0.000992473
-0.00220804
-0.000289717
-0.0030021
0.000568255
-0.00361509
0.00148495
-0.0037561
0.00230203
-0.00317308
0.00284554
-0.0018833
0.00301978
-0.000316859
0.00286581
0.000927388
0.00254718
0.00140942
0.00226095
0.00107502
0.00212955
0.000250798
0.0020549
-0.000162705
0.00163201
0.00104795
0.000324908
0.00440844
-0.00232188
0.00996134
-0.00632037
0.016184
-0.0107678
0.0194774
-0.0139018
0.0150209
-0.0134019
3.20556e-05
-0.00740958
-0.0238023
-9.09858e-05
-0.0352203
0.00767193
-0.019951
0.0170197
-0.0966396
0.044131
-0.144321
0.0453834
0.0788337
0.0171508
0.133718
0.00825153
0.0227126
0.00689099
0.00325752
0.013062
-0.0297561
0.0164171
-0.0199744
0.0101005
0.0132983
-0.0114897
0.0739995
-0.0460932
0.144816
-0.0766144
0.155464
-0.0921132
0.104707
-0.0949198
0.0400146
-0.0858045
-0.0287766
-0.0691221
-0.0777818
-0.0500489
-0.0975241
-0.0296286
-0.104215
-0.0113866
-0.088557
0.002577
-0.0638894
0.0112905
-0.0386447
0.0155864
-0.0174645
0.0193863
-0.0149516
0.0242695
-0.0216074
0.0268115
-0.0156658
0.0227652
0.00989061
0.0103549
0.0517374
-0.00214682
0.0626256
-0.00610302
0.0258906
-0.000184789
-0.0235526
0.00826622
-0.0397526
0.015459
-0.0333581
0.020312
-0.021962
0.0238612
-0.0157383
0.0267778
-0.0133371
0.0287273
-0.00809966
0.0314735
-0.0112906
0.0341029
-0.0115677
-0.0247689
0.0720085
0.0276381
-0.0716488
0.0723927
0.0284672
0.0728084
0.0293177
0.0731819
0.0301887
0.0733548
0.0309517
0.0731214
0.031474
0.0722846
0.0316779
0.0706987
0.0315255
0.0682913
0.0310042
0.0650661
0.0301235
0.0610949
0.0289114
0.0565052
0.0274089
0.0514647
0.0256666
0.0461624
0.0237427
0.0407885
0.021702
0.0355144
0.0196118
0.0304781
0.0175357
0.0257777
0.0155278
0.021473
0.0136292
0.0175912
0.0118657
0.0141362
0.0102517
0.0110945
0.00879075
0.00844269
0.00748052
0.00615142
0.0063146
0.00418837
0.0052836
0.00252076
0.00437785
0.00111624
0.00358639
-5.5835e-05
0.00289868
-0.00102394
0.00230389
-0.00181453
0.00179184
-0.00245126
0.00135263
-0.0029555
0.000978732
-0.00334524
0.000660921
-0.00364003
0.000394675
-0.00385587
0.000173099
-0.00399561
-1.64388e-05
-0.00408498
-0.000159602
-0.00412632
-0.000278107
-0.00412952
-0.000369532
-0.00410227
-0.000438614
-0.00405079
-0.000489991
-0.0039806
-0.000525887
-0.00389553
-0.000553214
-0.00379804
-0.000576178
-0.00369085
-0.000592407
-0.00357639
-0.00060263
-0.00345732
-0.000604007
-0.00333728
-0.00059137
-0.00322057
-0.000561197
-0.00311189
-0.000511347
-0.00301533
-0.000444474
-0.00293335
-0.000367619
-0.00286554
-0.000293919
-0.00280636
-0.000246783
-0.00274346
-0.00025836
-0.00265507
-0.000374272
-0.00250842
-0.000649594
-0.00226043
-0.00113693
-0.0018621
-0.00186532
-0.00127
-0.00280013
-0.00046362
-0.00380845
0.000528555
-0.00460724
0.00160535
-0.00483287
0.00259237
-0.00416006
0.00328582
-0.00257672
0.00355637
-0.000587388
0.00342751
0.00105626
0.00307493
0.00176201
0.00272712
0.00142283
0.00253006
0.000447853
0.002371
-3.73306e-06
0.00177148
0.00164746
9.80915e-05
0.0060818
-0.00312371
0.0131831
-0.00782419
0.0208845
-0.0128718
0.0245249
-0.0162902
0.0184394
-0.0154526
-0.000805566
-0.00850044
-0.0307546
-0.00104267
-0.0426782
0.00838592
-0.0293796
0.0146362
-0.10289
0.0437039
-0.173389
0.0529535
0.0695848
0.02252
0.164152
0.010997
0.0342355
0.0087281
0.00552623
0.0152221
-0.0362501
0.0182809
-0.0230333
0.0091758
0.0224034
-0.0175685
0.100744
-0.0568614
0.184109
-0.0881694
0.186772
-0.102304
0.118842
-0.104173
0.0418836
-0.0936998
-0.0392502
-0.0755109
-0.0959706
-0.0549541
-0.118081
-0.0328513
-0.126317
-0.0126451
-0.108763
0.00350582
-0.0800402
0.0137927
-0.0489315
0.0189692
-0.022641
0.0235278
-0.0195102
0.0291096
-0.0271893
0.0316007
-0.0181569
0.0263584
0.0151329
0.0121407
0.0659551
-0.00133582
0.0761021
-0.00534581
0.0299005
0.0013104
-0.0302088
0.0108154
-0.0492576
0.0189392
-0.041482
0.024496
-0.0275188
0.0285665
-0.0198088
0.0319211
-0.0166918
0.0341924
-0.010371
0.0374868
-0.014585
0.0402852
-0.0143661
-0.0319369
0.0766671
0.0273117
-0.0763407
0.076998
0.0281363
0.0773401
0.0289757
0.0776688
0.02986
0.0779178
0.0307028
0.077978
0.0314138
0.0777142
0.0319417
0.0769869
0.0322527
0.0756738
0.0323173
0.0736849
0.0321125
0.0709714
0.0316249
0.067531
0.0308493
0.06341
0.0297875
0.0587028
0.0284499
0.0535459
0.0268589
0.0481058
0.0250519
0.0425607
0.0230808
0.0370806
0.0210079
0.0318106
0.0188992
0.0268604
0.0168158
0.0223029
0.0148091
0.0181772
0.0129164
0.0144957
0.011162
0.0112514
0.00955892
0.00842382
0.00811117
0.00598459
0.00681708
0.00390061
0.00567036
0.00213703
0.00466222
0.000658943
0.00378192
-0.000566908
0.00301765
-0.00157227
0.00235798
-0.00238639
0.00179284
-0.00303479
0.00130931
-0.00354092
0.00090079
-0.00392621
0.000558363
-0.00421671
0.000274041
-0.0044117
3.53845e-05
-0.00454191
-0.000147905
-0.00461429
-0.00029716
-0.00463897
-0.000413943
-0.00462537
-0.000503595
-0.00458172
-0.000569544
-0.00451396
-0.00062097
-0.00442607
-0.000664064
-0.00432223
-0.000696241
-0.00420604
-0.00071882
-0.00408112
-0.000728926
-0.00395206
-0.000720419
-0.00382417
-0.000689095
-0.00370311
-0.0006324
-0.00359389
-0.000553696
-0.00349963
-0.00046189
-0.00342017
-0.000373384
-0.00334961
-0.000317363
-0.00327434
-0.000333646
-0.00317038
-0.000478238
-0.00300162
-0.000818366
-0.00272059
-0.00141796
-0.00227294
-0.00231296
-0.00160922
-0.00346384
-0.000702777
-0.00471488