/*--------------------------------*- C++ -*----------------------------------*\
| =========                 |                                                 |
| \\      /  F ield         | OpenFOAM: The Open Source CFD Toolbox           |
|  \\    /   O peration     | Version:  2412                                  |
|   \\  /    A nd           | Website:  www.openfoam.com                      |
|    \\/     M anipulation  |                                                 |
\*---------------------------------------------------------------------------*/
FoamFile
{
    version     2.0;
    format      ascii;
    arch        "LSB;label=32;scalar=64";
    class       volVectorField;
    location    "0.87";
    object      ddt0(U);
}
// * * * * * * * * * * * * * * * * * * * * * * * * * * * * * * * * * * * * * //

dimensions      [0 1 -2 0 0 0 0];

internalField   nonuniform List<vector> 
12600
(
(-7.77853 0 -3.00161)
(-6.42369 7.30214e-18 -2.53935)
(5.14498 -4.14792e-18 0.138118)
(14.3726 0 4.45702)
(4.03746 -6.38168e-20 3.45745)
(-24.5817 0 -4.54923)
(-40.9611 -4.0533e-17 -9.75588)
(-13.2259 0 0.259338)
(47.4704 0 21.8211)
(72.7699 0 24.3387)
(12.1616 0 -6.69791)
(-84.0997 1.09986e-16 -39.9816)
(-107.712 -9.46509e-17 -35.599)
(-10.7715 0 13.1141)
(116.373 2.62449e-16 58.8675)
(122.729 0 44.5007)
(-27.3645 -9.20574e-18 -28.3063)
(-174.836 0 -80.2391)
(-114.047 1.58598e-16 -32.1918)
(142.521 0 83.8262)
(302.971 0 117.913)
(71.7286 0 -46.5695)
(-410.259 -3.65774e-16 -261.579)
(-513.95 -2.5868e-15 -184.487)
(77.1497 -2.28632e-16 164.84)
(482.083 7.13321e-16 283.207)
(377.265 0 185.834)
(5.36632 0 -62.4429)
(-247.281 0 -155.713)
(-143.873 -3.42165e-18 -72.9593)
(20.5879 -5.22202e-16 13.7041)
(46.7443 0 21.5442)
(-12.6277 0 -7.60733)
(-34.7811 -9.97382e-18 -15.3672)
(-3.19631 -1.5862e-16 -0.105592)
(22.9755 0 10.1365)
(13.2205 0 4.58576)
(-8.80907 1.79292e-16 -4.66137)
(-13.4465 0 -5.65782)
(-1.40767 -3.02178e-18 -0.160547)
(8.22694 -7.31294e-17 3.54936)
(5.93081 2.49766e-17 2.18363)
(-1.68244 0 -1.16154)
(-5.09767 3.87813e-17 -2.64774)
(-1.83 -2.13198e-17 -0.584814)
(2.08287 7.54137e-17 1.14387)
(2.34007 -3.32843e-17 1.00588)
(0.106723 0 0.0347423)
(-1.54483 -3.70624e-17 -0.486458)
(-1.36491 1.53953e-17 -0.256361)
(-0.288652 0 0.287622)
(0.275517 -1.10421e-19 0.573135)
(-0.0465936 5.18179e-18 0.501957)
(-0.72503 0 0.269747)
(-1.10343 1.89312e-17 0.157533)
(-1.00955 0 0.240505)
(-0.681883 0 0.43862)
(-0.535547 1.94428e-19 0.44922)
(-0.569547 2.13289e-19 0.398169)
(-0.632195 -2.18263e-17 0.36917)
(-0.650484 3.28536e-17 0.31423)
(-0.572472 -3.92979e-17 0.300763)
(-0.399792 0 0.275713)
(-0.202314 6.47815e-17 0.183663)
(-0.012439 7.21155e-17 0.0313294)
(0.237558 -7.06282e-17 -0.155795)
(0.563399 -2.402e-17 -0.379412)
(1.07629 0 -0.521886)
(1.54733 0 -0.619495)
(1.54011 0 -0.722711)
(1.03108 0 -0.642317)
(0.259858 0 -0.448193)
(-0.401171 -1.74664e-16 0.142408)
(-1.0826 3.60147e-17 0.892946)
(-1.94001 0 1.50805)
(-2.92851 0 1.83596)
(-3.8378 -3.73031e-17 1.68296)
(-3.90502 3.96511e-19 1.89862)
(-3.63637 -1.00992e-16 2.23585)
(-3.24397 0 2.57822)
(-3.66897 0 2.2928)
(-4.27406 0 1.9609)
(-3.16929 2.05197e-18 1.27806)
(-1.23739 0 0.583094)
(0.697567 0 0.0921069)
(4.01785 -4.04149e-16 -2.15867)
(8.91612 -2.75707e-19 -5.24706)
(13.1719 0 -7.73751)
(15.474 0 -8.77219)
(12.2748 -5.82559e-16 -6.89851)
(10.201 -8.14225e-16 -5.63681)
(-9.06899 -1.00773e-15 4.88147)
(-30.7118 -7.42272e-16 16.8852)
(-6.84578 -8.7723e-19 3.50633)
(-20.3287 -9.17161e-19 11.6508)
(26.0864 9.16437e-16 -14.6838)
(28.0394 0 -15.6176)
(-14.0847 0 8.05308)
(5.50022 0 -2.77946)
(-3.92701 -9.20511e-16 2.62713)
(-4.21763 2.48155e-16 2.21826)
(-1.71119 2.96014e-17 0.848563)
(-6.54186 4.31564e-16 3.47715)
(0.258849 0 -0.330873)
(10.2767 0 -6.15658)
(17.5879 0 -9.89297)
(16.6745 -4.27612e-17 -9.2551)
(11.2776 0 -6.11268)
(4.7502 2.83783e-16 -2.64351)
(-2.87531 0 1.79253)
(-12.039 0 6.90263)
(-17.3625 -2.96152e-16 9.8037)
(-13.2053 0 7.42078)
(-10.3583 0 5.83783)
(-5.01967 0 2.85066)
(-2.62317 -1.0082e-15 1.45906)
(-1.43829 0 0.790469)
(0.252989 3.87006e-16 -0.193161)
(1.12685 0 -0.667544)
(0.717789 -9.98596e-20 -0.387682)
(-8.03671 -4.64414e-18 -4.61302)
(-2.2979 -5.51237e-18 -4.1781)
(12.3368 -1.68179e-18 0.156018)
(18.8998 0 5.581)
(-0.659203 2.39482e-17 2.50007)
(-33.549 7.48989e-18 -7.62658)
(-38.606 4.22847e-17 -9.35771)
(7.68774 -4.76758e-17 8.88744)
(65.7449 0 32.2181)
(58.9351 0 23.1884)
(-27.9186 0 -23.948)
(-110.936 0 -61.1705)
(-88.963 0 -38.7545)
(42.1044 0 38.927)
(150.295 -7.99216e-17 94.7807)
(96.2972 0 54.9656)
(-94.0188 -2.36623e-16 -62.0203)
(-206.889 0 -127.264)
(-60.6964 -3.73619e-16 -31.6037)
(231.815 2.31492e-16 152.126)
(294.833 0 169.271)
(-114.762 -5.92242e-16 -171.829)
(-615.969 9.29184e-17 -539.904)
(-437.15 1.38817e-15 -249.556)
(389.154 -1.96094e-15 477.437)
(516.176 0 327.683)
(360.089 -1.35532e-15 313.169)
(-150.189 0 -185.296)
(-335.974 0 -301.503)
(-139.124 0 -128.821)
(47.1963 2.62401e-16 24.2901)
(49.3767 0 34.6213)
(-24.0819 0 -12.4224)
(-38.7829 0 -22.6437)
(1.49745 0 1.19567)
(26.0439 0 15.1536)
(10.4572 0 5.79945)
(-13.1047 -1.84485e-16 -7.23893)
(-14.8408 0 -7.51086)
(-0.350079 2.41131e-16 0.783657)
(8.81528 1.41172e-16 5.55623)
(4.70527 -3.84557e-17 3.08179)
(-3.78468 0 -1.53612)
(-6.50191 0 -2.98251)
(-2.35002 4.74905e-17 -0.040136)
(1.4659 -7.70005e-17 2.19243)
(1.16236 2.5588e-17 1.90287)
(-1.43566 0 0.599197)
(-3.08754 3.64506e-17 -0.00329348)
(-2.74471 0 0.412529)
(-1.59929 0 1.15561)
(-1.112 -1.71737e-17 1.49166)
(-1.55386 0 1.34457)
(-2.28872 0 1.02292)
(-2.61281 -1.91277e-17 0.919194)
(-2.41743 0 1.07637)
(-2.0454 0 1.30853)
(-1.9079 4.0029e-19 1.28387)
(-1.92934 4.57583e-18 1.19289)
(-1.95061 -1.83028e-19 1.11524)
(-1.88537 0 0.999897)
(-1.68874 3.90361e-17 0.928781)
(-1.30708 -1.75032e-17 0.8011)
(-0.808634 0 0.538016)
(-0.223982 -1.43073e-16 0.136893)
(0.501665 2.30734e-18 -0.414959)
(1.33871 0 -1.12814)
(2.53114 -7.53152e-17 -1.49638)
(3.50327 0 -1.82631)
(3.64999 0 -1.99586)
(2.5784 0 -1.62095)
(0.428745 0 -0.596947)
(-2.40088 3.43012e-16 1.30929)
(-5.60559 -3.22902e-17 3.57952)
(-8.43466 0 5.34612)
(-10.4315 0 6.2036)
(-11.6576 -3.04983e-17 6.15593)
(-11.9662 1.12933e-18 6.527)
(-12.2384 -1.87535e-18 7.25339)
(-11.7747 0 7.6188)
(-11.6574 0 6.99389)
(-11.1991 0 5.91084)
(-7.29587 3.58219e-18 3.57983)
(-2.06855 -6.80585e-16 1.10097)
(3.32604 3.26887e-16 -1.45723)
(14.2515 3.90487e-16 -8.41092)
(29.8432 2.41484e-19 -17.6846)
(42.6327 5.64561e-16 -25.1519)
(47.4399 0 -27.4959)
(35.8815 5.59932e-16 -20.345)
(30.5359 0 -16.7858)
(-21.8551 9.66235e-16 14.0216)
(-86.5488 0 49.9643)
(-12.0489 -1.7972e-15 6.87173)
(-63.494 -5.172e-16 35.8801)
(68.8812 0 -42.4433)
(79.6962 0 -44.9157)
(-42.9186 -1.29914e-15 25.7311)
(13.443 7.88615e-16 -7.89115)
(-13.0749 8.80922e-16 8.34196)
(-11.8167 -2.35682e-16 6.58338)
(-4.75699 -2.80882e-17 2.74042)
(-17.2754 0 9.75721)
(3.51647 4.15163e-16 -2.62886)
(35.5732 0 -21.1909)
(55.0414 0 -31.8505)
(48.5863 4.08178e-17 -27.8635)
(29.7444 0 -16.8504)
(9.79698 2.00444e-18 -5.1991)
(-11.4594 -5.61234e-16 7.17111)
(-36.3993 0 21.4768)
(-52.4719 0 30.3164)
(-39.0645 0 22.3959)
(-31.1551 3.57209e-16 17.797)
(-15.0143 -2.55107e-16 8.51922)
(-7.39556 9.47801e-16 4.18927)
(-3.98063 0 2.22805)
(1.73769 -3.63495e-16 -1.06592)
(3.95211 0 -2.2997)
(1.95224 4.50162e-17 -1.11507)
(-6.78356 1.06295e-17 -3.31806)
(2.31857 -4.54674e-18 -2.98929)
(17.0407 1.23832e-17 -0.328208)
(17.824 0 0.526872)
(-4.24402 1.99981e-17 -2.7897)
(-28.7155 4.79417e-19 -3.93239)
(-22.3021 0 4.28488)
(18.8762 4.52454e-17 16.1809)
(50.5658 0 12.9579)
(25.6877 -5.27351e-17 -11.3929)
(-44.0495 0 -36.0017)
(-86.9064 0 -32.1987)
(-39.8111 0 8.19134)
(69.2079 0 55.1018)
(122.958 -3.26407e-17 57.8813)
(37.156 0 1.3974)
(-120.013 0 -67.5982)
(-160.176 0 -68.2085)
(11.7302 1.97909e-16 21.2184)
(219.672 -8.65181e-17 99.5397)
(139.848 0 13.5499)
(-259.267 1.56095e-16 -234.312)
(-470.564 0 -316.884)
(-60.0644 -1.05258e-15 94.6085)
(518.711 0 643.168)
(458.516 0 323.038)
(202.451 1.28551e-15 116.606)
(-295.494 0 -310.263)
(-312.488 0 -288.302)
(-82.7504 -6.0868e-16 -95.9652)
(64.7218 0 27.7289)
(39.7979 0 25.5988)
(-27.9266 0 -9.55386)
(-33.0066 0 -13.0087)
(4.08294 1.57762e-16 3.1528)
(21.5278 0 9.17529)
(5.56955 0 1.70451)
(-13.4031 1.5006e-16 -4.84195)
(-12.7048 0 -2.89651)
(0.0311511 -2.31543e-16 2.35593)
(6.68149 -5.58206e-18 4.02871)
(2.25835 3.64137e-17 1.79593)
(-4.75833 0 -0.434694)
(-6.25687 0 -0.158724)
(-2.88709 -2.43314e-17 1.49841)
(-0.0942921 0 2.40491)
(-0.612669 -2.42017e-17 2.12139)
(-2.87912 0 1.5354)
(-4.26141 -5.2532e-19 1.41837)
(-3.97811 0 1.76732)
(-3.10481 0 2.11989)
(-2.80438 0 2.19091)
(-3.24081 -3.04599e-18 2.03895)
(-3.82879 0 1.88026)
(-4.01233 0 1.89139)
(-3.77778 0 2.00208)
(-3.46671 0 2.03825)
(-3.29933 4.7788e-17 1.96795)
(-3.25572 0 1.87888)
(-3.20903 -1.12934e-19 1.76564)
(-3.04212 0 1.62364)
(-2.75046 -1.83043e-17 1.46487)
(-2.19278 1.6503e-17 1.20029)
(-1.41034 0 0.801435)
(-0.447285 1.33402e-16 0.234829)
(0.708599 3.01033e-17 -0.575207)
(1.96868 0 -1.68985)
(3.68611 7.09299e-17 -2.20526)
(4.93258 0 -2.67956)
(5.01833 0 -2.68607)
(3.20509 0 -1.75789)
(-0.439302 0 0.377409)
(-5.52364 -1.39458e-18 3.63273)
(-11.2104 3.03657e-17 7.23407)
(-15.8709 0 9.85098)
(-18.6624 0 10.9434)
(-19.8024 2.12745e-18 11.0959)
(-20.2427 -6.64932e-17 11.3746)
(-20.882 4.89278e-17 12.1604)
(-20.2814 0 12.0132)
(-19.2784 0 11.041)
(-17.3392 0 9.03554)
(-10.339 -6.84261e-16 4.83041)
(-1.30152 8.90245e-19 0.323135)
(7.87608 -3.06639e-16 -5.09675)
(26.4811 0 -16.4874)
(51.3729 7.23022e-16 -31.0286)
(71.1231 -5.29275e-16 -41.9205)
(76.0395 0 -43.4)
(54.8035 0 -30.1247)
(47.0072 7.30146e-16 -24.4187)
(-28.9447 0 20.6868)
(-131.159 6.59719e-16 74.1189)
(-10.9078 3.23586e-18 4.66505)
(-105.267 4.79734e-16 57.5525)
(99.8125 -8.17477e-16 -63.3315)
(123.029 0 -65.529)
(-68.0877 1.21579e-15 41.9994)
(19.0587 -7.37908e-16 -11.5446)
(-21.8636 -8.30503e-16 13.9899)
(-17.7245 0 9.49152)
(-7.53419 -2.96534e-17 4.52379)
(-24.6887 0 13.5417)
(9.51484 -3.88206e-16 -7.58533)
(62.6352 2.6838e-17 -37.9739)
(90.2499 0 -52.2427)
(75.0998 -3.81544e-17 -42.0328)
(42.3174 0 -22.7185)
(9.90247 -5.04707e-16 -4.39511)
(-21.6728 5.24458e-16 14.5146)
(-58.4079 0 34.971)
(-83.6377 0 48.0294)
(-61.0799 0 34.3426)
(-49.613 -2.48335e-19 27.6793)
(-23.7522 2.3829e-16 12.9171)
(-11.3685 -8.84478e-16 6.13268)
(-5.9054 0 3.08194)
(3.7926 -3.39044e-16 -2.46013)
(6.81902 0 -3.96927)
(2.80508 2.56134e-19 -1.53136)
(-6.07117 -5.89738e-18 -2.44576)
(4.9099 -5.13127e-20 -1.78853)
(18.0507 -6.33561e-18 -0.878563)
(16.4415 2.14967e-17 -1.72435)
(-3.52079 1.76851e-17 -3.29244)
(-21.7961 -1.18976e-17 -0.573102)
(-13.9089 0 7.52804)
(16.7799 0 11.6331)
(34.3296 0 0.431346)
(8.96217 4.99509e-17 -21.5289)
(-41.6836 0 -32.2254)
(-60.0896 0 -13.3633)
(-8.2379 0 27.1875)
(74.0575 0 53.1942)
(91.1334 0 31.9072)
(-2.79524 1.4905e-16 -25.4903)
(-121.78 -8.06511e-17 -61.2687)
(-114.68 0 -27.7246)
(45.3679 0 42.8397)
(164.267 -1.26087e-16 40.327)
(29.9705 -3.71866e-16 -88.2413)
(-224.777 3.84286e-16 -171.477)
(-185.501 2.60967e-16 22.6036)
(223.604 9.96659e-16 378.156)
(492.16 1.3553e-16 528.83)
(374.213 -7.75516e-16 354.907)
(-99.6009 0 -169.109)
(-394.829 1.38727e-16 -415.827)
(-253.417 0 -253.814)
(-18.8139 5.76128e-16 -56.999)
(87.6341 0 45.0846)
(33.582 0 25.293)
(-33.4773 0 -10.2237)
(-31.1878 -9.78134e-17 -10.9836)
(5.98399 -1.49236e-16 4.08447)
(19.7531 0 8.04409)
(2.79141 0 0.720954)
(-14.3278 -1.41898e-16 -4.28365)
(-12.2033 0 -1.55468)
(0.0726549 1.2568e-18 3.21118)
(5.59415 -5.38989e-17 4.19338)
(0.784645 0 1.9178)
(-5.82525 0 0.148458)
(-6.95323 0 0.743583)
(-3.7193 0 2.30052)
(-1.24798 -6.36151e-17 3.07464)
(-1.94693 0 2.81214)
(-4.21283 -2.58427e-17 2.34245)
(-5.5555 -3.20457e-17 2.30449)
(-5.30135 0 2.63203)
(-4.50078 0 2.92284)
(-4.24879 0 2.94989)
(-4.67123 2.8737e-18 2.79133)
(-5.19134 8.31996e-18 2.65346)
(-5.31582 1.58339e-17 2.64581)
(-5.05367 0 2.69626)
(-4.71383 -2.17388e-17 2.68912)
(-4.4919 -4.39301e-17 2.6144)
(-4.39671 0 2.50579)
(-4.28595 3.95304e-17 2.35301)
(-4.04674 0 2.1479)
(-3.66148 1.65076e-17 1.91312)
(-2.94136 -1.61938e-17 1.52825)
(-1.92008 0 0.994392)
(-0.651349 -6.23992e-17 0.256942)
(0.863518 -2.67757e-17 -0.743309)
(2.59616 0 -1.9092)
(4.50984 0 -2.78777)
(5.83175 0 -3.27601)
(5.6038 -3.93533e-17 -2.98579)
(2.82411 2.45884e-17 -1.37298)
(-2.47121 0 1.94969)
(-9.7746 -1.4986e-16 6.61729)
(-17.771 -2.42559e-17 11.4948)
(-24.0239 0 14.8293)
(-27.3531 0 16.0088)
(-28.2961 2.49112e-17 16.0078)
(-28.5866 -2.36246e-18 16.1994)
(-29.2543 0 16.9806)
(-28.1533 0 16.3838)
(-26.1471 0 14.7859)
(-22.4769 0 11.5939)
(-12.1357 -2.33606e-18 5.28056)
(1.20064 5.97903e-16 -1.53639)
(14.8237 0 -9.89706)
(40.7605 0 -25.9038)
(73.225 0 -45.1616)
(97.9653 -4.8726e-16 -58.0732)
(100.133 0 -56.6782)
(67.4705 5.27644e-16 -36.743)
(57.9796 -6.83751e-16 -28.6433)
(-29.888 8.3768e-16 26.1343)
(-161.955 -6.17604e-16 91.4431)
(-6.08032 1.56276e-15 1.39711)
(-145.496 -4.48968e-16 78.5258)
(119.374 7.64925e-16 -81.4658)
(157.511 0 -81.14)
(-88.0396 0 56.7064)
(22.3187 -6.75027e-16 -14.5431)
(-30.3588 3.89704e-16 19.834)
(-22.0224 2.01703e-16 11.2969)
(-10.0203 -2.17163e-18 6.2164)
(-28.218 0 15.1635)
(19.0543 0 -14.9163)
(90.9752 -2.50855e-17 -56.0666)
(121.826 0 -70.7047)
(94.3993 3.6886e-17 -52.2036)
(48.134 0 -24.8694)
(5.84392 1.95734e-19 -0.689532)
(-33.4104 0 22.5621)
(-77.7216 3.4437e-16 47.5517)
(-109.656 -2.39753e-16 63.2013)
(-78.3496 1.0982e-16 43.7699)
(-65.4035 -5.95149e-19 36.1108)
(-31.1013 0 16.4427)
(-14.5961 8.25991e-16 7.66177)
(-7.13707 -2.58311e-16 3.51847)
(6.28782 3.16587e-16 -4.10406)
(9.52063 0 -5.50063)
(3.20964 3.11969e-19 -1.67118)
(-5.02703 0 -1.41846)
(6.0526 5.19828e-19 -0.815215)
(17.1459 0 -1.01365)
(14.6209 -2.03102e-17 -2.4419)
(-2.70195 -3.45859e-17 -3.20642)
(-17.5822 4.45503e-18 -0.156014)
(-11.8376 0 5.30161)
(10.3411 0 5.30866)
(22.2695 5.39194e-19 -5.53676)
(4.02313 2.1307e-17 -19.7996)
(-29.3027 -1.72434e-17 -20.8828)
(-35.6116 2.26473e-17 -0.0139187)
(7.62164 6.59303e-17 29.5825)
(63.0284 0 38.3404)
(59.1025 0 9.79506)
(-25.0615 -2.52608e-16 -34.1692)
(-107.717 4.63259e-17 -44.9813)
(-78.1818 0 -2.24502)
(51.9669 -1.65925e-16 42.4613)
(116.053 -4.34821e-17 7.33241)
(-0.0132084 3.51561e-16 -91.3553)
(-132.543 0 -82.9543)
(-11.1565 -2.46704e-16 148.663)
(277.434 1.76259e-17 386.561)
(309.314 -1.28352e-16 294.14)
(68.5706 1.57665e-16 23.2401)
(-290.338 0 -334.424)
(-365.279 -4.74531e-16 -386.826)
(-153.052 0 -185.525)
(52.8645 6.80482e-16 0.460339)
(107.873 0 66.9589)
(23.3283 0 23.6113)
(-40.132 0 -12.7262)
(-29.5713 9.23865e-17 -10.2314)
(7.94853 0 4.94828)
(18.4146 0 7.70021)
(0.550421 0 0.340999)
(-14.9844 0 -3.78951)
(-11.6952 -4.01781e-17 -0.5748)
(0.116368 2.02074e-16 3.91043)
(4.64693 0 4.46656)
(-0.479736 -3.83584e-17 2.15517)
(-6.73433 0 0.676976)
(-7.55924 0 1.48327)
(-4.41513 0 3.04619)
(-2.21716 2.27951e-18 3.75881)
(-3.08883 0 3.49131)
(-5.36659 2.43671e-17 3.0767)
(-6.67275 0 3.0862)
(-6.42881 0 3.40756)
(-5.67994 -1.16687e-17 3.65487)
(-5.4648 0 3.63881)
(-5.8741 0 3.45723)
(-6.34342 5.75066e-20 3.30648)
(-6.41873 -1.49136e-17 3.26737)
(-6.12054 0 3.2756)
(-5.74138 6.82721e-19 3.24415)
(-5.47206 3.98902e-17 3.15475)
(-5.32975 0 3.02145)
(-5.16305 -1.86221e-17 2.82301)
(-4.86293 0 2.54946)
(-4.38914 -1.55295e-17 2.24783)
(-3.52908 1.52316e-17 1.75559)
(-2.31479 0 1.09616)
(-0.80533 5.6133e-17 0.205102)
(0.998545 9.17053e-19 -0.941668)
(2.84465 0 -2.47961)
(5.02385 0 -3.20074)
(6.25489 0 -3.55958)
(5.50366 7.26904e-17 -2.80883)
(1.63553 3.64971e-19 -0.323503)
(-5.36952 0 4.24616)
(-14.8136 1.35566e-16 10.2926)
(-24.9359 4.25155e-17 16.298)
(-32.58 0 20.1498)
(-36.2512 0 21.2325)
(-36.8274 0 20.9003)
(-36.751 -3.02352e-18 20.8997)
(-37.1936 0 21.5058)
(-35.4011 0 20.3181)
(-32.315 0 17.8781)
(-26.6971 0 13.4142)
(-12.8592 3.04068e-16 4.81156)
(5.15977 5.56028e-16 -4.66275)
(23.6957 0 -16.311)
(56.6061 0 -36.8808)
(95.2142 0 -59.5728)
(122.732 6.68628e-18 -72.9277)
(119.185 0 -66.4868)
(73.6583 -4.93952e-16 -38.7742)
(63.0562 0 -29.0021)
(-24.9125 -7.83972e-16 29.0052)
(-179.059 0 100.134)
(-3.55207 -7.28932e-16 -0.847568)
(-186.44 0 98.8574)
(130.863 0 -96.0329)
(185.203 0 -90.5364)
(-102.932 0 67.7416)
(23.8409 6.3118e-16 -16.6477)
(-38.7127 0 25.6999)
(-25.1048 -1.88561e-16 12.2131)
(-12.22 2.79469e-17 7.73235)
(-28.0082 0 14.225)
(32.1233 0 -25.2177)
(119.911 0 -74.8638)
(148.802 0 -86.0171)
(106.143 1.00357e-18 -57.0389)
(48.2466 0 -22.7224)
(-1.55243 4.39678e-16 4.81788)
(-45.8418 0 31.4443)
(-94.5093 -6.41424e-16 58.5669)
(-130.339 2.23925e-16 74.8429)
(-91.175 -1.02564e-16 50.0822)
(-78.9379 -2.90279e-16 42.7953)
(-37.448 0 18.9846)
(-17.365 0 8.69479)
(-7.81438 4.83789e-16 3.44612)
(8.95098 2.94563e-16 -5.98412)
(11.856 -2.923e-16 -6.78685)
(3.19981 -1.8923e-17 -1.52279)
(-3.88768 0 -0.854049)
(6.24823 6.00671e-18 -0.43269)
(15.2818 0 -1.30203)
(12.1653 0 -3.15716)
(-3.15437 0 -4.02005)
(-16.1566 0 -1.81251)
(-12.309 0 1.88344)
(5.45214 1.82282e-17 1.68899)
(16.9396 -5.08285e-19 -5.06273)
(6.36156 -3.2889e-17 -12.5617)
(-16.0775 2.81171e-17 -10.3841)
(-19.7459 -2.13741e-17 4.89463)
(10.6666 -6.22293e-17 21.5249)
(45.7558 0 19.9099)
(34.0542 0 -5.40726)
(-32.3361 1.81352e-16 -31.6763)
(-85.5537 2.60658e-17 -25.0218)
(-49.8009 0 15.6391)
(47.7477 1.56624e-16 38.4921)
(82.3091 4.10455e-17 -5.89732)
(4.00655 0 -69.8784)
(-47.5946 -3.12164e-16 -24.0184)
(65.2618 0 153.586)
(207.61 -2.66172e-16 257.305)
(122.28 3.88173e-16 105.126)
(-124.437 2.91747e-16 -147.466)
(-322.021 0 -324.585)
(-249.549 3.24024e-16 -241.057)
(-31.7817 -1.1533e-15 -69.0171)
(144.044 -1.097e-15 99.9208)
(111.567 1.70815e-16 76.9072)
(5.91317 0 16.7927)
(-47.5633 9.04499e-17 -17.1245)
(-27.1745 0 -9.60089)
(10.3758 0 6.23856)
(17.3188 0 7.90635)
(-1.45611 0 0.271478)
(-15.4562 0 -3.32036)
(-11.1098 -6.79986e-18 0.240173)
(0.184395 -9.42932e-17 4.52036)
(3.75881 0 4.75969)
(-1.6321 7.32892e-17 2.41917)
(-7.52306 0 1.15684)
(-8.05594 0 2.12944)
(-4.99187 0 3.72331)
(-3.05403 5.43677e-17 4.39281)
(-4.08951 0 4.10235)
(-6.37166 0 3.71064)
(-7.63042 0 3.74976)
(-7.38078 0 4.06873)
(-6.66764 2.21616e-17 4.28226)
(-6.47897 0 4.2241)
(-6.87206 0 4.01003)
(-7.29335 -7.42876e-18 3.83279)
(-7.31767 0 3.76182)
(-6.97612 0 3.73792)
(-6.55472 3.63183e-17 3.68418)
(-6.23967 -1.83599e-17 3.57523)
(-6.05272 0 3.41181)
(-5.83566 0 3.16384)
(-5.48058 0 2.82509)
(-4.92968 1.34337e-17 2.45763)
(-3.95338 0 1.87188)
(-2.58736 0 1.107)
(-0.899088 -1.03632e-16 0.089754)
(1.0581 4.44865e-17 -1.16705)
(3.14847 0 -2.64776)
(5.29235 0 -3.46456)
(6.22302 0 -3.56852)
(4.79326 -3.35286e-17 -2.21676)
(-0.191875 -2.20134e-17 1.37103)
(-8.95345 -1.2652e-16 7.10557)
(-20.3684 -1.27177e-16 14.4556)
(-32.39 -1.85219e-17 21.4206)
(-41.2355 -9.65289e-17 25.5968)
(-45.1018 0 26.4181)
(-45.1506 0 25.6507)
(-44.5128 3.30691e-17 25.3329)
(-44.4977 0 25.6318)
(-41.8832 0 23.7502)
(-37.5129 0 20.6202)
(-30.0204 0 14.5259)
(-12.6432 0 3.49863)
(10.4599 -1.03803e-15 -8.77842)
(34.2949 0 -24.1075)
(73.7438 3.0665e-16 -49.0215)
(116.796 0 -74.1202)
(144.732 8.32399e-18 -86.1085)
(132.497 -1.35309e-16 -72.3311)
(72.7281 0 -36.3327)
(62.6609 0 -26.2654)
(-12.836 0 28.3986)
(-182.527 0 101.69)
(-8.62219 6.68529e-16 2.26546)
(-231.297 0 121.476)
(134.988 0 -109.37)
(206.653 0 -96.0465)
(-110.788 0 77.2437)
(24.0227 0 -18.2366)
(-46.6498 0 31.6375)
(-27.5085 0 12.4915)
(-13.9822 0 8.94857)
(-24.202 -3.12114e-16 10.6686)
(48.7342 0 -38.2355)
(148.384 0 -93.8309)
(169.797 0 -97.5845)
(109.773 -3.3131e-17 -56.7126)
(43.3655 0 -17.5111)
(-10.3019 -2.04964e-16 12.553)
(-58.2103 0 40.6565)
(-108.288 2.40276e-18 68.4532)
(-145.172 0 83.3183)
(-99.7852 9.43383e-17 54.0335)
(-90.1282 0 48.1104)
(-43.1803 0 20.9809)
(-19.773 0 9.43628)
(-7.97466 -2.26496e-16 3.00201)
(11.6413 -5.49174e-16 -7.90673)
(13.6887 5.45072e-16 -7.71926)
(2.85215 -1.85019e-17 -1.12353)
(-2.83006 0 -0.852386)
(5.92832 -4.16689e-18 -0.538532)
(13.022 0 -1.78868)
(9.32574 0 -4.06426)
(-4.3708 1.22678e-17 -5.30164)
(-15.5854 -1.09577e-18 -3.68968)
(-12.0817 1.43476e-17 -0.206484)
(4.0936 -4.87202e-17 1.36377)
(16.2694 0 -1.34177)
(10.1972 2.72491e-18 -5.36947)
(-7.64192 -1.11603e-17 -4.58745)
(-13.3056 0 2.87269)
(6.25496 0 9.51984)
(29.7695 0 4.29891)
(19.6077 0 -12.574)
(-27.6317 -2.1918e-17 -22.5597)
(-60.5916 -1.20434e-17 -5.68246)
(-29.2459 9.79981e-17 27.9831)
(38.3891 1.05831e-16 34.6182)
(57.9361 0 -10.275)
(13.4804 2.06627e-16 -53.9149)
(0.847933 2.94233e-16 -11.7711)
(69.6381 0 92.2034)
(100.735 -8.47394e-17 108.992)
(-28.6182 -1.0593e-16 -32.9431)
(-208.646 2.36768e-16 -190.999)
(-267.636 0 -236.53)
(-114.049 0 -96.5562)
(96.3231 1.08667e-15 58.7563)
(175.443 2.65485e-16 136.218)
(84.6912 -4.65611e-16 72.4262)
(-17.2856 0 2.02046)
(-53.9388 -1.32829e-16 -22.1072)
(-22.9974 0 -8.05507)
(13.3645 0 8.14829)
(16.2659 9.40739e-18 8.44063)
(-3.37714 0 0.327602)
(-15.7301 7.49004e-17 -2.82671)
(-10.3868 -5.98452e-18 1.00459)
(0.283902 8.30932e-17 5.05278)
(2.89896 0 5.00672)
(-2.68551 6.51821e-19 2.67012)
(-8.16702 0 1.61253)
(-8.40605 0 2.72711)
(-5.43832 0 4.33092)
(-3.76406 0 4.94678)
(-4.94912 0 4.62493)
(-7.21547 -2.4191e-17 4.24591)
(-8.41126 0 4.30573)
(-8.14572 0 4.61854)
(-7.46037 -1.05103e-17 4.79789)
(-7.29102 0 4.69683)
(-7.66312 -1.50113e-18 4.44639)
(-8.03435 7.11053e-18 4.23759)
(-8.00535 -1.33065e-17 4.13347)
(-7.61713 0 4.07868)
(-7.15193 -1.66395e-17 4.00074)
(-6.79207 -1.51382e-17 3.86739)
(-6.56252 0 3.66907)
(-6.30028 0 3.36976)
(-5.89746 0 2.96712)
(-5.28021 -1.26134e-17 2.53922)
(-4.213 0 1.87391)
(-2.73553 0 1.02576)
(-0.927994 4.77753e-17 -0.086672)
(1.15749 -3.95154e-17 -1.41545)
(3.45238 0 -2.55555)
(5.25935 0 -3.56805)
(5.81006 0 -3.31534)
(3.59716 0 -1.25879)
(-2.53308 -2.06603e-17 3.47983)
(-12.9262 1.18626e-16 10.3972)
(-26.0881 0 18.9273)
(-39.7623 0 26.6636)
(-49.6521 9.04671e-17 30.9822)
(-53.628 0 31.4034)
(-53.0621 9.63506e-18 30.0729)
(-51.6626 3.88983e-17 29.3627)
(-50.9954 0 29.2385)
(-47.4652 0 26.5779)
(-42.181 0 22.1274)
(-32.5606 0 14.9391)
(-11.6947 0 1.39581)
(16.7049 4.84224e-16 -13.972)
(46.2644 0 -33.1975)
(91.7069 -5.72565e-16 -62.1049)
(137.493 0 -88.3737)
(163.359 1.00379e-17 -97.033)
(139.545 1.27116e-17 -73.6824)
(64.8986 0 -29.3408)
(58.6312 5.37362e-16 -21.8566)
(7.93479 0 23.2839)
(-175.942 0 98.0266)
(-25.6171 -1.24091e-15 13.4192)
(-285.47 0 148.592)
(133.137 0 -121.709)
(223.844 0 -97.9784)
(-111.234 0 85.7569)
(23.3334 0 -19.3835)
(-53.8745 0 37.2215)
(-29.7715 0 12.4226)
(-15.1266 0 9.64056)
(-16.7041 2.9159e-16 5.08123)
(68.3987 0 -53.8812)
(175.378 0 -111.909)
(183.811 0 -104.358)
(105.73 3.36473e-17 -51.1934)
(35.5144 -2.62003e-17 -10.1032)
(-20.834 1.88257e-16 19.1516)
(-70.2979 -3.91419e-16 49.6803)
(-119.219 2.96476e-18 76.4518)
(-154.524 1.92031e-16 88.2765)
(-105.257 -1.74987e-16 55.9112)
(-98.6107 0 51.6758)
(-49.1505 1.66937e-16 22.8057)
(-22.0217 6.63167e-16 9.88586)
(-7.75804 0 2.18297)
(14.1734 2.55944e-16 -9.81911)
(14.9331 -2.54087e-16 -8.24699)
(2.28291 1.72701e-17 -0.545192)
(-1.83759 0 -1.01674)
(5.38349 1.60826e-18 -0.751058)
(10.6766 0 -2.18608)
(6.60392 0 -4.68838)
(-5.2934 -1.15512e-17 -6.09994)
(-14.1887 1.03176e-18 -4.58022)
(-9.93216 -1.35046e-17 -0.61928)
(5.32569 4.20296e-17 2.62902)
(16.769 0 2.21161)
(11.4637 -8.61199e-18 -1.14161)
(-5.53619 1.80543e-17 -3.41577)
(-13.5043 0 -2.2388)
(0.0730631 1.74542e-17 -0.965466)
(19.6395 0 -5.17345)
(15.6928 -2.95069e-17 -12.9167)
(-15.4858 -4.67373e-17 -11.3243)
(-37.5181 1.32731e-17 9.22206)
(-17.0839 -9.22461e-17 34.11)
(24.7625 -1.7883e-16 29.6363)
(36.0778 0 -13.5254)
(14.717 -1.94504e-16 -50.0239)
(14.1962 0 -29.9157)
(38.1126 0 14.2017)
(6.55451 3.01151e-16 -5.58419)
(-113.591 -3.37838e-16 -98.7663)
(-208.072 0 -156.765)
(-166.208 0 -112.313)
(8.26559 0 25.4845)
(158.306 -6.56619e-16 124.337)
(150.067 1.5371e-16 102.851)
(50.3534 -9.83504e-17 45.8631)
(-44.0183 -2.67059e-16 -17.7508)
(-56.4748 4.22243e-17 -26.1459)
(-16.2798 1.46224e-16 -4.61765)
(16.7697 -9.82365e-17 10.6636)
(15.0715 1.0441e-17 9.16703)
(-5.335 0 0.347746)
(-15.8178 -7.04443e-17 -2.35126)
(-9.51473 4.51834e-17 1.72225)
(0.420699 -7.81374e-17 5.50155)
(2.07552 0 5.18792)
(-3.62483 -3.34806e-17 2.89062)
(-8.64588 -3.82841e-17 2.03783)
(-8.59159 -6.36524e-18 3.27101)
(-5.74187 2.03986e-17 4.85726)
(-4.33712 0 5.40499)
(-5.65636 0 5.04586)
(-7.88513 -7.47021e-19 4.6742)
(-9.00293 0 4.7485)
(-8.71427 0 5.05102)
(-8.05246 -1.02205e-17 5.19445)
(-7.89815 1.06297e-17 5.04935)
(-8.2456 1.40983e-18 4.75995)
(-8.56442 7.23891e-20 4.51646)
(-8.47994 -2.06531e-19 4.37769)
(-8.04272 0 4.29127)
(-7.53263 0 4.18682)
(-7.12898 2.71486e-17 4.02543)
(-6.8592 0 3.78958)
(-6.55748 0 3.43998)
(-6.11389 1.95232e-17 2.97739)
(-5.44321 0 2.49479)
(-4.31153 0 1.76398)
(-2.76157 3.91272e-17 0.854131)
(-0.890508 -4.02915e-17 -0.322264)
(1.21614 3.45733e-17 -1.67632)
(3.36685 0 -2.93375)
(5.06633 4.34583e-17 -3.55046)
(5.11681 0 -2.84204)
(2.09057 0 -0.010095)
(-5.10065 3.84884e-17 5.94427)
(-16.9696 0 13.9435)
(-31.6018 0 23.5008)
(-46.6814 0 31.8197)
(-57.5072 0 36.124)
(-61.5863 0 36.0367)
(-60.3146 -9.02259e-18 34.1181)
(-58.0117 5.15043e-18 32.8638)
(-56.5341 1.8365e-17 32.2261)
(-52.1251 -1.88841e-16 28.7418)
(-45.2158 0 24.295)
(-34.3282 0 14.7092)
(-10.2407 0 -1.42337)
(23.6715 0 -19.9807)
(59.2509 0 -43.3963)
(110.003 2.24639e-18 -75.8136)
(156.733 0 -101.92)
(178.017 3.51546e-16 -105.162)
(140.064 1.44757e-17 -70.0324)
(50.9772 0 -18.4195)
(54.0404 -5.0243e-16 -18.1172)
(37.9909 0 13.2458)
(-165.831 4.34209e-16 93.5195)
(-54.8703 1.09632e-17 33.6841)
(-353.227 0 182.793)
(126.008 0 -134.337)
(238.02 0 -97.664)
(-111.314 0 81.7831)
(22.3738 4.59153e-16 -20.3091)
(-59.7567 0 42.2515)
(-32.3745 0 12.2583)
(-15.2882 3.45739e-17 9.53318)
(-6.50642 0 -3.70997)
(90.3192 -2.63066e-16 -71.4326)
(199.345 7.90403e-18 -128.316)
(189.869 0 -105.734)
(95.0301 -6.46569e-17 -41.2114)
(26.3798 8.11233e-19 -1.74829)
(-29.5753 -3.49122e-16 29.1414)
(-81.1675 3.65476e-16 58.3966)
(-126.914 2.55501e-16 82.902)
(-158.852 -1.79286e-16 90.3901)
(-108.662 8.11337e-17 56.6305)
(-103.012 2.30355e-16 52.9237)
(-56.5852 -1.5584e-16 25.2659)
(-24.2833 -6.19056e-16 10.1556)
(-7.331 2.02443e-16 0.994012)
(16.4452 -2.3672e-16 -11.6091)
(15.5716 0 -8.34756)
(1.63626 0 0.129135)
(-0.891704 0 -0.99925)
(4.8131 5.42073e-19 -0.77665)
(8.48129 0 -2.23209)
(4.37347 0 -4.67533)
(-5.39014 0 -6.00914)
(-11.607 0 -4.44206)
(-6.4368 9.66859e-18 -0.285019)
(7.21104 -1.16037e-17 3.53015)
(16.0021 -6.48953e-19 3.68994)
(9.11447 1.63411e-17 -0.100783)
(-7.99188 -1.69718e-17 -4.56007)
(-16.2429 0 -6.53567)
(-3.97342 -1.64086e-17 -6.85066)
(16.1728 0 -8.45348)
(18.9927 2.77389e-17 -9.65229)
(-1.27732 3.2156e-17 -2.31325)
(-19.879 0 17.0487)
(-13.0547 0 33.7519)
(7.859 7.44726e-17 23.3071)
(14.3611 0 -16.3078)
(7.33906 0 -51.0958)
(8.85766 1.32069e-16 -52.2692)
(4.65659 0 -42.9889)
(-46.5631 0 -63.4163)
(-129.491 8.76659e-17 -97.7407)
(-150.271 0 -79.5607)
(-57.2212 0 5.30502)
(94.2841 0 109.525)
(172.293 9.25602e-16 141.593)
(116.93 0 83.4852)
(5.78575 -2.45125e-17 7.54212)
(-61.0663 5.39969e-17 -32.0838)
(-51.9301 2.42941e-18 -25.2957)
(-6.74028 -1.37424e-16 1.13648)
(19.9912 1.71082e-16 13.393)
(13.4736 -1.81274e-17 9.86845)
(-7.48352 0 0.0988501)
(-15.709 0 -1.94085)
(-8.48453 5.1595e-17 2.38494)
(0.596318 -6.56574e-17 5.85746)
(1.30001 0 5.29057)
(-4.43141 0 3.06877)
(-8.94221 2.97012e-18 2.42446)
(-8.6015 5.97792e-18 3.75171)
(-5.89571 -1.91558e-17 5.29046)
(-4.76681 -3.44116e-17 5.75513)
(-6.20366 0 5.3557)
(-8.37274 -5.55041e-19 4.98994)
(-9.39903 0 5.07517)
(-9.08297 0 5.36405)
(-8.44363 9.59273e-18 5.4699)
(-8.30257 -9.97587e-18 5.2798)
(-8.62315 0 4.9495)
(-8.88784 -6.33331e-18 4.66888)
(-8.74642 -2.5245e-19 4.49358)
(-8.25905 0 4.37388)
(-7.70415 0 4.24059)
(-7.2586 -2.29333e-17 4.04945)
(-6.95225 0 3.77647)
(-6.61825 0 3.38067)
(-6.14189 -3.54223e-17 2.86466)
(-5.43277 0 2.33467)
(-4.26359 0 1.55216)
(-2.67741 -7.12433e-17 0.600452)
(-0.791002 3.77624e-17 -0.612239)
(1.30617 -1.55756e-17 -1.94477)
(3.41505 0 -2.93784)
(4.72835 -4.07169e-17 -3.43571)
(4.26851 0 -2.20662)
(0.469392 2.12898e-17 1.42687)
(-7.67984 -1.79144e-17 8.50598)
(-20.7429 0 17.5518)
(-36.5456 0 27.9691)
(-52.8067 -1.38122e-18 36.7005)
(-64.5232 -8.44176e-17 40.8722)
(-68.766 0 40.2029)
(-66.7928 0 37.6233)
(-63.4382 -8.36716e-17 35.741)
(-61.0047 -1.71858e-17 34.5188)
(-55.6058 3.45959e-16 30.1757)
(-47.6482 0 25.3031)
(-35.6377 0 13.8881)
(-8.47606 0 -4.88392)
(31.2398 0 -26.3826)
(72.8259 0 -54.5422)
(128.095 3.21345e-18 -89.8056)
(173.926 0 -114.303)
(188.229 0 -109.964)
(134.179 1.61947e-17 -60.9452)
(32.6189 0 -4.71761)
(52.7684 -4.46743e-16 -17.8797)
(75.5146 0 -0.988733)
(-158.35 -4.05808e-16 92.891)
(-92.3434 1.275e-17 61.4399)
(-434.512 0 223.541)
(114.852 0 -149.311)
(250.153 0 -96.1252)
(-102.988 0 80.9575)
(22.0542 -2.18771e-17 -21.1156)
(-63.7197 -2.94811e-16 46.3626)
(-35.6277 1.25703e-16 12.1572)
(-14.2446 -3.22917e-17 8.32526)
(6.31326 0 -15.1962)
(113.969 2.45671e-16 -90.3176)
(219.242 -7.381e-18 -142.255)
(187.483 0 -101.177)
(79.5759 3.1033e-17 -27.9605)
(18.2009 4.33902e-17 6.16524)
(-41.3244 1.61836e-16 33.607)
(-91.0042 0 66.2919)
(-131.624 -2.30999e-16 87.3401)
(-159.357 0 90.0845)
(-111.101 0 56.6419)
(-101.373 -2.15033e-16 50.753)
(-67.2503 0 29.4247)
(-26.8264 0 10.2725)
(-6.66517 -1.88957e-16 -0.155939)
(18.3637 2.20945e-16 -13.2269)
(15.6415 -2.18125e-16 -8.04418)
(1.05332 -1.69668e-17 0.810993)
(-0.0116679 0 -0.785895)
(4.2763 -5.09402e-19 -0.620471)
(6.50294 4.78926e-18 -1.98333)
(2.61316 0 -4.17697)
(-4.91432 0 -5.35393)
(-8.5532 0 -3.9372)
(-2.87364 -9.08513e-18 -0.22878)
(8.36518 0 3.12465)
(13.5466 6.09933e-19 3.06634)
(4.62405 0 -0.797978)
(-11.8422 0 -5.50609)
(-18.3076 1.0969e-17 -7.86749)
(-4.83545 0 -7.93589)
(17.0442 1.45167e-17 -7.79885)
(24.6979 1.48224e-17 -6.36542)
(10.5006 -3.02e-17 1.71854)
(-8.9346 0 17.4415)
(-14.7993 -1.53008e-17 28.5283)
(-9.12231 0 17.6609)
(-4.61868 -8.92116e-17 -14.9996)
(-1.53905 0 -46.4544)
(2.60822 -1.24041e-16 -59.1472)
(-9.88463 8.14932e-17 -62.7055)