/*--------------------------------*- C++ -*----------------------------------*\
| =========                 |                                                 |
| \\      /  F ield         | OpenFOAM: The Open Source CFD Toolbox           |
|  \\    /   O peration     | Version:  2412                                  |
|   \\  /    A nd           | Website:  www.openfoam.com                      |
|    \\/     M anipulation  |                                                 |
\*---------------------------------------------------------------------------*/
FoamFile
{
    version     2.0;
    format      ascii;
    arch        "LSB;label=32;scalar=64";
    class       volScalarField;
    location    "0.96";
    object      p;
}
// * * * * * * * * * * * * * * * * * * * * * * * * * * * * * * * * * * * * * //

dimensions      [0 2 -2 0 0 0 0];

internalField   nonuniform List<scalar> 
12600
(
-0.136439
-154.95
-205.007
-201.749
-189.276
-177.682
-167.516
-158.422
-150.182
-142.632
-135.647
-129.129
-123.004
-117.216
-111.719
-106.474
-101.45
-96.6225
-91.9683
-87.4691
-83.1088
-78.8736
-74.7514
-70.7316
-66.8048
-62.9627
-59.198
-55.5038
-51.8743
-48.304
-44.788
-41.3218
-37.9011
-34.5222
-31.1817
-27.8761
-24.6025
-21.3581
-18.1402
-14.9462
-11.7739
-8.62102
-5.48547
-2.36517
0.741648
3.83696
6.92227
9.99951
13.0699
16.1354
19.1969
22.2564
25.3145
28.3734
31.4331
34.4963
37.5621
40.6341
43.71
46.7946
49.884
52.9845
56.0897
59.2085
62.331
65.4695
68.6095
71.7679
74.9241
78.1015
81.2713
84.4651
87.6439
90.8501
94.031
97.243
100.417
103.625
106.78
109.97
113.091
116.243
119.314
122.405
125.394
128.448
131.211
134.46
136.582
140.346
141.884
145.294
148.065
147.722
156.712
149.167
160.849
157.834
158.931
171.018
152.446
180.087
161.771
169.997
186.146
154.957
196.414
173.46
169.268
212.629
160.546
191.501
227.189
149.885
220.004
232.331
188.92
220.843
210.347
221.436
-24.3035
-124.036
-171.476
-181.088
-177.86
-171.107
-163.348
-155.572
-148.136
-141.117
-134.499
-128.247
-122.321
-116.683
-111.301
-106.147
-101.195
-96.4244
-91.8164
-87.3547
-83.0251
-78.815
-74.7135
-70.7107
-66.7981
-62.9677
-59.2126
-55.5265
-51.9036
-48.3387
-44.8272
-41.3646
-37.9469
-34.5704
-31.2316
-27.9275
-24.655
-21.4113
-18.1939
-15.0002
-11.828
-8.67503
-5.53927
-2.41865
0.688573
3.78437
6.87023
9.94808
13.0191
16.0853
19.1475
22.2078
25.2666
28.3263
31.3867
34.4507
37.5172
40.59
43.6667
46.752
49.8422
52.9434
56.0494
59.1689
62.2922
65.4313
68.5721
71.7311
74.8881
78.0661
81.2367
84.4312
87.6107
90.8175
93.9993
97.2118
100.386
103.595
106.751
109.942
113.064
116.216
119.288
122.379
125.37
128.425
131.187
134.44
136.559
140.325
141.868
145.268
148.062
147.687
156.706
149.162
160.809
157.851
158.877
171.044
152.428
180.039
161.825
169.905
186.197
154.944
196.332
173.571
169.139
212.629
160.651
191.276
227.296
149.96
219.734
232.395
188.978
220.773
210.348
221.411
-41.1244
-102.592
-145.389
-162.845
-166.162
-163.525
-158.377
-152.221
-145.786
-139.407
-133.222
-127.273
-121.567
-116.094
-110.837
-105.78
-100.905
-96.1948
-91.6353
-87.2128
-82.915
-78.7309
-74.6507
-70.6656
-66.7674
-62.9491
-59.2039
-55.5261
-51.91
-48.3508
-44.844
-41.3852
-37.9706
-34.5967
-31.26
-27.9575
-24.6862
-21.4435
-18.2268
-15.0336
-11.8617
-8.70889
-5.57314
-2.45244
0.654979
3.75104
6.83724
9.91547
12.9869
16.0536
19.1163
22.1771
25.2364
28.2966
31.3576
34.4222
37.4893
40.5626
43.6399
46.7258
49.8165
52.9183
56.0248
59.1448
62.2686
65.4083
68.5496
71.7092
74.8667
78.0452
81.2162
84.4113
87.5912
90.7986
93.9807
97.1938
100.369
103.578
106.734
109.926
113.048
116.201
119.274
122.365
125.356
128.413
131.174
134.429
136.547
140.314
141.859
145.255
148.06
147.667
156.706
149.157
160.787
157.863
158.849
171.059
152.412
180.012
161.857
169.855
186.225
154.93
196.286
173.634
169.075
212.638
160.708
191.159
227.351
150
219.594
232.439
189.008
220.736
210.35
221.399
-49.0435
-88.85
-124.283
-144.806
-153.015
-154.308
-152
-147.784
-142.637
-137.119
-131.521
-125.983
-120.573
-115.317
-110.225
-105.294
-100.518
-95.8857
-91.3886
-87.0165
-82.7596
-78.6091
-74.5565
-70.5942
-66.715
-62.9124
-59.1805
-55.5136
-51.9068
-48.3553
-44.8549
-41.4015
-37.9914
-34.6212
-31.2876
-27.9876
-24.7185
-21.4774
-18.262
-15.0699
-11.8988
-8.74655
-5.61121
-2.49075
0.616546
3.7126
6.7989
9.8773
12.949
16.016
19.079
22.1402
25.1999
28.2606
31.3221
34.3871
37.4547
40.5286
43.6063
46.6928
49.784
52.8863
55.9934
59.1139
62.2383
65.3785
68.5202
71.6804
74.8384
78.0175
81.189
84.3846
87.5651
90.773
93.9557
97.1693
100.345
103.555
106.712
109.903
113.027
116.18
119.253
122.346
125.336
128.394
131.155
134.413
136.529
140.298
141.846
145.234
148.058
147.637
156.702
149.15
160.757
157.876
158.806
171.082
152.391
179.98
161.895
169.782
186.272
154.909
196.228
173.719
168.964
212.652
160.775
190.979
227.458
150.032
219.376
232.512
189.042
220.678
210.352
221.377
-54.0949
-80.5961
-107.52
-127.194
-138.304
-143.058
-143.69
-141.734
-138.23
-133.876
-129.101
-124.15
-119.165
-114.223
-109.365
-104.613
-99.9745
-95.4508
-91.0396
-86.7362
-82.535
-78.4298
-74.4144
-70.4828
-66.629
-62.8475
-59.1332
-55.4811
-51.8867
-48.3456
-44.8539
-41.4078
-38.0038
-34.6387
-31.3095
-28.0131
-24.7469
-21.5083
-18.2948
-15.1043
-11.9345
-8.78321
-5.64862
-2.5287
0.578244
3.67409
6.76031
9.83875
12.9106
15.9777
19.041
22.1026
25.1627
28.2238
31.2857
34.3513
37.4194
40.4937
43.572
46.659
49.7508
52.8537
55.9613
59.0824
62.2073
65.3481
68.4904
71.6512
74.8097
77.9894
81.1615
84.3577
87.5388
90.7472
93.9305
97.1448
100.321
103.532
106.689
109.881
113.005
116.159
119.233
122.326
125.317
128.377
131.136
134.398
136.511
140.284
141.832
145.217
148.054
147.61
156.703
149.14
160.728
157.89
158.765
171.106
152.365
179.95
161.933
169.709
186.318
154.882
196.172
173.801
168.86
212.675
160.831
190.806
227.555
150.05
219.165
232.593
189.071
220.619
210.356
221.357
-57.3839
-75.5431
-95.1633
-112.047
-123.884
-130.801
-133.847
-134.083
-132.394
-129.449
-125.731
-121.568
-117.169
-112.667
-108.142
-103.644
-99.2019
-94.8316
-90.5414
-86.3344
-82.2106
-78.1682
-74.204
-70.3143
-66.4952
-62.7425
-59.0522
-55.4201
-51.8424
-48.3154
-44.8355
-41.3993
-38.0038
-34.6458
-31.3224
-28.031
-24.769
-21.5339
-18.3234
-15.1352
-11.9673
-8.81765
-5.68433
-2.56539
0.540787
3.63608
6.72192
9.80013
12.8719
15.939
19.0024
22.0641
25.1245
28.1859
31.2482
34.3141
37.3827
40.4575
43.5362
46.6237
49.716
52.8194
55.9276
59.0493
62.1747
65.3161
68.4589
71.6202
74.7794
77.9596
81.1323
84.3291
87.5108
90.7198
93.9037
97.1186
100.295
103.507
106.664
109.858
112.982
116.136
119.211
122.305
125.297
128.358
131.116
134.381
136.492
140.267
141.818
145.195
148.051
147.579
156.703
149.128
160.698
157.904
158.72
171.134
152.335
179.92
161.971
169.63
186.373
154.848
196.116
173.884
168.736
212.709
160.876
190.61
227.684
150.046
218.921
232.694
189.096
220.55
210.361
221.333
-59.0066
-72.0312
-86.3694
-100.072
-111.156
-118.862
-123.41
-125.368
-125.333
-123.834
-121.307
-118.09
-114.43
-110.502
-106.424
-102.274
-98.1038
-93.948
-89.8279
-85.7566
-81.7419
-77.7876
-73.8951
-70.0642
-66.2933
-62.5805
-58.9233
-55.3188
-51.7642
-48.2565
-44.7929
-41.3705
-37.9865
-34.6382
-31.3231
-28.0387
-24.7825
-21.5523
-18.3459
-15.1612
-11.9962
-8.84895
-5.71758
-2.60024
0.504668
3.59896
6.68402
9.76166
12.833
15.8999
18.9632
22.0249
25.0854
28.1469
31.2094
34.2757
37.3445
40.4197
43.4989
46.5869
49.6796
52.7835
55.8922
59.0144
62.1404
65.2823
68.4258
71.5876
74.7474
77.9282
81.1015
84.2989
87.4812
90.6909
93.8754
97.0909
100.268
103.48
106.639
109.833
112.958
116.113
119.188
122.283
125.275
128.337
131.095
134.363
136.472
140.25
141.802
145.179
148.046
147.546
156.706
149.113
160.667
157.917
158.672
171.165
152.299
179.892
162.006
169.543
186.436
154.804
196.06
173.967
168.6
212.756
160.906
190.394
227.845
150.016
218.649
232.815
189.115
220.472
210.366
221.307
-59.4682
-69.2435
-79.9754
-90.8333
-100.487
-108.033
-113.249
-116.316
-117.555
-117.32
-115.944
-113.72
-110.89
-107.64
-104.109
-100.4
-96.5843
-92.7131
-88.8222
-84.9362
-81.0716
-77.2396
-73.4469
-69.6979
-65.9945
-62.3374
-58.7264
-55.1604
-51.638
-48.1573
-44.7163
-41.3129
-37.9449
-34.6102
-31.3065
-28.0318
-24.7838
-21.5605
-18.36
-15.1802
-12.0193
-8.87551
-5.74703
-2.63208
0.470855
3.56355
6.64732
9.72394
12.7945
15.8608
18.9237
21.9851
25.0455
28.1071
31.1696
34.236
37.3051
40.3806
43.4601
46.5485
49.6416
52.746
55.8551
58.9779
62.1044
65.2469
68.3908
71.5533
74.7136
77.8951
81.069
84.267
87.4499
90.6603
93.8454
97.0616
100.24
103.452
106.612
109.806
112.932
116.088
119.164
122.259
125.252
128.316
131.073
134.345
136.451
140.233
141.785
145.152
148.04
147.511
156.711
149.095
160.635
157.931
158.621
171.2
152.256
179.865
162.04
169.448
186.507
154.751
196.004
174.048
168.446
212.821
160.916
190.152
228.032
149.955
218.337
232.947
189.126
220.381
210.373
221.276
-59.2157
-66.7899
-75.0356
-83.6032
-91.7005
-98.584
-103.873
-107.507
-109.596
-110.333
-109.941
-108.64
-106.634
-104.099
-101.175
-97.9743
-94.5811
-91.0595
-87.4571
-83.8089
-80.1406
-76.4705
-72.8118
-69.1737
-65.5624
-61.9819
-58.4347
-54.922
-51.4442
-48.0009
-44.5914
-41.2145
-37.8689
-34.5531
-31.2654
-28.0042
-24.7676
-21.5541
-18.3617
-15.1889
-12.034
-8.89509
-5.77078
-2.65933
0.440687
3.53096
6.61274
9.68774
12.757
15.8223
18.8844
21.9452
25.0051
28.0665
31.1289
34.1953
37.2645
40.3401
43.4199
46.5085
49.602
52.7068
55.8163
58.9396
62.0665
65.2096
68.3541
71.5171
74.678
77.8601
81.0346
84.2333
87.4168
90.6279
93.8137
97.0306
100.209
103.423
106.583
109.778
112.905
116.061
119.139
122.235
125.228
128.293
131.05
134.325
136.428
140.215
141.767
145.135
148.034
147.471
156.72
149.074
160.602
157.944
158.567
171.24
152.206
179.842
162.07
169.344
186.588
154.686
195.95
174.124
168.27
212.906
160.902
189.877
228.247
149.859
217.975
233.148
189.129
220.274
210.381
221.244
-58.4913
-64.476
-70.9532
-77.7638
-84.4477
-90.4764
-95.4754
-99.2719
-101.841
-103.251
-103.624
-103.105
-101.849
-100
-97.6887
-95.023
-92.0915
-88.9645
-85.6972
-82.3325
-78.9033
-75.4347
-71.9455
-68.45
-64.9587
-61.4793
-58.0171
-54.5761
-51.1588
-47.7665
-44.4001
-41.0597
-37.745
-34.4553
-31.1898
-27.9474
-24.7268
-21.5268
-18.3461
-15.183
-12.0364
-8.90453
-5.78617
-2.67975
0.416037
3.50276
6.58158
9.65413
12.7214
15.785
18.8458
21.9056
24.9647
28.0254
31.0874
34.1536
37.2226
40.2983
43.3781
46.4669
49.5606
52.6658
55.7757
58.8993
62.0267
65.1703
68.3153
71.479
74.6404
77.8231
80.9983
84.1976
87.3818
90.5936
93.7801
96.9978
100.177
103.392
106.552
109.748
112.876
116.033
119.112
122.208
125.203
128.269
131.026
134.305
136.404
140.196
141.747
145.111
148.025
147.434
156.729
149.047
160.569
157.955
158.508
171.286
152.146
179.823
162.096
169.228
186.681
154.608
195.897
174.195
168.069
213.018
160.859
189.565
228.506
149.722
217.553
233.346
189.123
220.15
210.389
221.204
-57.4245
-62.2169
-67.3955
-72.8744
-78.3711
-83.5312
-88.054
-91.7447
-94.5088
-96.3304
-97.2517
-97.3532
-96.7346
-95.505
-93.7714
-91.6312
-89.1691
-86.4561
-83.5507
-80.5002
-77.3425
-74.1076
-70.8193
-67.4959
-64.1519
-60.7984
-57.444
-54.0949
-50.756
-47.4307
-44.1214
-40.8297
-37.5565
-34.3023
-31.067
-27.8504
-24.6518
-21.4706
-18.3058
-15.1564
-12.0214
-8.89943
-5.78948
-2.69019
0.399551
3.48117
6.55568
9.62463
12.6888
15.75
18.8087
21.8669
24.9246
27.9843
31.0455
34.1111
37.1797
40.2551
43.3348
46.4237
49.5175
52.6228
55.733
58.857
61.9848
65.1288
68.2744
71.4386
74.6006
77.784
80.9597
84.1598
87.3447
90.5573
93.7445
96.963
100.143
103.358
106.52
109.717
112.846
116.004
119.083
122.181
125.176
128.243
131
134.283
136.378
140.177
141.726
145.09
148.014
147.393
156.742
149.016
160.536
157.966
158.445
171.337
152.077
179.809
162.117
169.099
186.786
154.513
195.848
174.258
167.837
213.162
160.784
189.207
228.808
149.539
217.06
233.587
189.108
220.005
210.397
221.162
-56.0959
-59.9752
-64.1748
-68.6351
-73.1657
-77.531
-81.5131
-84.9405
-87.6972
-89.721
-90.9996
-91.5602
-91.4568
-90.7594
-89.5474
-87.9005
-85.8938
-83.594
-81.0591
-78.3378
-75.4707
-72.4913
-69.4267
-66.2987
-63.125
-59.9196
-56.6937
-53.4561
-50.2137
-46.9719
-43.7348
-40.5053
-37.2859
-34.0779
-30.8825
-27.7002
-24.5311
-21.3752
-18.2321
-15.1013
-11.9822
-8.87395
-5.77569
-2.68637
0.39487
3.46927
6.53764
9.60141
12.6612
15.7188
18.7744
21.83
24.8857
27.9437
31.0035
34.0681
37.1359
40.2108
43.29
46.3787
49.4724
52.5778
55.6881
58.8124
61.9405
65.085
68.2309
71.3957
74.5582
77.7423
80.9187
84.1195
87.3051
90.5185
93.7065
96.9259
100.107
103.323
106.486
109.684
112.813
115.972
119.053
122.151
125.148
128.216
130.973
134.26
136.351
140.156
141.703
145.068
148.002
147.349
156.757
148.98
160.505
157.976
158.377
171.394
151.996
179.802
162.131
168.956
186.904
154.4
195.806
174.312
167.57
213.343
160.671
188.798
229.16
149.305
216.483
233.863
189.084
219.837
210.405
221.114
-54.5665
-57.7349
-61.1778
-64.8462
-68.5985
-72.2742
-75.7231
-78.8119
-81.4308
-83.5006
-84.9773
-85.8511
-86.14
-85.8798
-85.1208
-83.9216
-82.3427
-80.4425
-78.2746
-75.8863
-73.3188
-70.6073
-67.7811
-64.8646
-61.878
-58.8378
-55.7575
-52.6481
-49.5183
-46.3752
-43.2246
-40.0708
-36.9174
-33.7672
-30.622
-27.4833
-24.3522
-21.2292
-18.1146
-15.0086
-11.9108
-8.82091
-5.7385
-2.6628
0.40674
3.47112
6.53093
9.5874
12.641
15.6933
18.7445
21.7964
24.849
27.9045
30.9622
34.025
37.0915
40.1654
43.2439
46.332
49.4253
52.5306
55.6408
58.7653
61.8935
65.0383
68.1846
71.3499
74.513
77.6977
80.8747
84.0764
87.2627
90.477
93.6658
96.8862
100.068
103.285
106.449
109.648
112.779
115.939
119.02
122.12
125.118
128.188
130.944
134.236
136.322
140.135
141.679
145.045
147.988
147.303
156.776
148.941
160.468
157.984
158.301
171.459
151.902
179.804
162.139
168.796
187.038
154.266
195.773
174.357
167.263
213.566
160.514
188.332
229.567
149.012
215.816
234.179
189.051
219.648
210.414
221.059
-52.8844
-55.4888
-58.3341
-61.3762
-64.501
-67.5939
-70.5532
-73.2822
-75.6899
-77.6977
-79.2488
-80.3115
-80.8778
-80.9579
-80.5763
-79.7694
-78.5809
-77.0572
-75.2443
-73.1855
-70.9199
-68.4826
-65.9039
-63.2098
-60.4223
-57.56
-54.6384
-51.6702
-48.6659
-45.6344
-42.5826
-39.5165
-36.4406
-33.3588
-30.2739
-27.1884
-24.104
-21.022
-17.9434
-14.8687
-11.7983
-8.73234
-5.67071
-2.61304
0.440871
3.49176
6.53992
9.58639
12.6314
15.6764
18.7213
21.7679
24.816
27.8678
30.9224
33.9827
37.047
40.1192
43.1964
46.2836
49.3761
52.4809
55.5908
58.7152
61.8435
64.9885
68.1351
71.3008
74.4644
77.6497
80.8274
84.0298
87.2169
90.4322
93.6219
96.8433
100.026
103.245
106.409
109.609
112.741
115.903
118.985
122.086
125.086
128.157
130.914
134.21
136.292
140.113
141.653
145.022
147.971
147.253
156.8
148.894
160.435
157.991
158.226
171.525
151.794
179.817
162.138
168.618
187.188
154.107
195.754
174.393
166.909
213.837
160.309
187.802
230.036
148.657
215.05
234.535
189.009
219.434
210.425
220.997
-51.0785
-53.2296
-55.5959
-58.1362
-60.7524
-63.3583
-65.8849
-68.2653
-70.4291
-72.308
-73.844
-74.9958
-75.7394
-76.0676
-75.985
-75.5084
-74.6643
-73.4855
-72.0082
-70.2685
-68.3018
-66.1407
-63.8149
-61.3509
-58.7717
-56.0973
-53.3447
-50.5283
-47.6602
-44.7507
-41.8081
-38.8397
-35.851
-32.8471
-29.8317
-26.8079
-23.7785
-20.7453
-17.7099
-14.6734
-11.6369
-8.60061
-5.56513
-2.53041
0.503409
3.53676
6.56963
9.60283
12.6364
15.6714
18.7078
21.7471
24.7889
27.8354
30.8855
33.9421
37.0033
40.0729
43.148
46.2336
49.3248
52.4287
55.5379
58.6618
61.7899
64.9349
68.0816
71.2477
74.4116
77.5977
80.7759
83.9792
87.1671
90.3834
93.574
96.7967
99.9808
103.2
106.366
109.568
112.701
115.864
118.948
122.05
125.051
128.125
130.881
134.182
136.26
140.089
141.625
144.997
147.953
147.2
156.827
148.842
160.401
157.993
158.147
171.601
151.668
179.845
162.128
168.423
187.355
153.92
195.75
174.419
166.505
214.161
160.05
187.206
230.57
148.243
214.186
234.932
188.961
219.2
210.436
220.926
-49.1702
-50.9534
-52.9314
-55.0648
-57.2657
-59.4658
-61.6179
-63.6772
-65.5919
-67.3061
-68.7677
-69.9336
-70.7729
-71.2669
-71.4076
-71.1963
-70.6445
-69.7716
-68.6024
-67.1648
-65.4878
-63.6002
-61.5292
-59.3004
-56.9367
-54.4585
-51.8841
-49.2288
-46.5063
-43.7281
-40.9038
-38.0418
-35.1489
-32.2311
-29.293
-26.3388
-23.3717
-20.3943
-17.4089
-14.4171
-11.4204
-8.41961
-5.41569
-2.40896
0.60008
3.61155
6.62515
9.64142
12.6601
15.6822
18.7073
21.7369
24.7702
27.8095
30.8533
33.9046
36.9614
40.0273
43.0993
46.1823
49.2715
52.3738
55.4817
58.6049
61.7322
64.8771
68.0236
71.1899
74.354
77.5406
80.7193
83.9236
87.1122
90.3296
93.5212
96.7452
99.9305
103.151
106.318
109.522
112.656
115.821
118.907
122.011
125.013
128.089
130.846
134.152
136.226
140.063
141.596
144.972
147.932
147.144
156.857
148.783
160.367
157.993
158.063
171.679
151.528
179.885
162.113
168.206
187.543
153.704
195.766
174.436
166.045
214.54
159.735
186.539
231.172
147.777
213.227
235.359
188.912
218.953
210.446
220.846
-47.1764
-48.6587
-50.3186
-52.1185
-53.9776
-55.8392
-57.6708
-59.4431
-61.1191
-62.6551
-64.007
-65.135
-66.0068
-66.5983
-66.8938
-66.8847
-66.5704
-65.9587
-65.0635
-63.9037
-62.5009
-60.8784
-59.0596
-57.0675
-54.9239
-52.6488
-50.2604
-47.775
-45.207
-42.569
-39.8717
-37.1245
-34.3356
-31.5115
-28.6582
-25.7805
-22.8823
-19.9672
-17.0379
-14.0966
-11.1454
-8.18546
-5.2182
-2.2443
0.735363
3.72063
6.71088
9.70643
12.7067
15.7126
18.7234
21.7404
24.7628
27.7925
30.8281
33.8723
36.9228
39.9836
43.0511
46.1305
49.2166
52.3165
55.4223
58.5441
61.6702
64.8143
67.9603
71.1265
74.2906
77.4776
80.6567
83.8618
87.0511
90.2698
93.4623
96.6879
99.8743
103.097
106.266
109.471
112.607
115.774
118.861
121.968
124.971
128.051
130.807
134.12
136.189
140.034
141.566
144.943
147.91
147.091
156.889
148.72
160.333
157.992
157.977
171.76
151.38
179.932
162.088
167.978
187.746
153.458
195.804
174.448
165.532
214.976
159.367
185.801
231.841
147.278
212.185
235.808
188.873
218.692
210.457
220.755
-45.1103
-46.3445
-47.7416
-49.2656
-50.8413
-52.4199
-53.9785
-55.4986
-56.9545
-58.3129
-59.5379
-60.595
-61.4538
-62.0892
-62.4815
-62.6168
-62.4865
-62.089
-61.4291
-60.5168
-59.3663
-57.9944
-56.4197
-54.6616
-52.7392
-50.6712
-48.4751
-46.1671
-43.762
-41.2727
-38.7111
-36.0874
-33.4104
-30.688
-27.9269
-25.1326
-22.31
-19.4634
-16.596
-13.7108
-10.8103
-7.89618
-4.97033
-2.03381
0.912157
3.8671
6.83008
9.80118
12.7796
15.7659
18.7593
21.7609
24.7695
27.7872
30.8121
33.847
36.8895
39.9433
43.0047
46.0791
49.1607
52.2571
55.3599
58.4793
61.6034
64.7462
67.891
71.0568
74.2204
77.4076
80.5868
83.7927
86.9825
90.2024
93.3959
96.6231
99.8109
103.036
106.206
109.413
112.551
115.72
118.809
121.919
124.923
128.008
130.763
134.083
136.15
140.001
141.535
144.911
147.886
147.031
156.921
148.654
160.294
157.991
157.889
171.846
151.213
179.996
162.055
167.735
187.971
153.175
195.871
174.459
164.958
215.469
158.955
185.008
232.559
146.777
211.076
236.265
188.842
218.427
210.468
220.653
-42.9823
-44.0107
-45.1889
-46.4829
-47.822
-49.163
-50.4894
-51.7902
-53.048
-54.2377
-55.3307
-56.2983
-57.1138
-57.7533
-58.1965
-58.4268
-58.4312
-58.2019
-57.7365
-57.0376
-56.1122
-54.9709
-53.6267
-52.0945
-50.3901
-48.5298
-46.5295
-44.4045
-42.169
-39.8365
-37.4188
-34.9269
-32.3704
-29.7577
-27.0964
-24.3929
-21.6529
-18.8811
-16.0818
-13.2583
-10.4137
-7.55044
-4.67066
-1.7759
1.13221
4.05288
6.98484
9.92793
12.881
15.8446
18.8174
21.8006
24.7928
27.7958
30.8076
33.831
36.8632
39.9081
42.9616
46.0292
49.1049
52.1963
55.2948
58.4107
61.5319
64.6725
67.8153
70.98
74.1425
77.3295
80.5084
83.7147
86.9049
90.126
93.3203
96.5493
99.7383
102.965
106.137
109.347
112.487
115.659
118.75
121.865
124.869
127.96
130.714
134.042
136.107
139.962
141.504
144.873
147.861
146.973
156.949
148.587
160.256
157.991
157.801
171.932
151.035
180.068
162.018
167.482
188.202
152.88
195.955
174.476
164.343
216.001
158.52
184.163
233.322
146.308
209.951
236.706
188.833
218.166
210.479
220.544
-40.8005
-41.6572
-42.6521
-43.753
-44.8933
-46.034
-47.1628
-48.274
-49.3561
-50.3903
-51.3541
-52.2242
-52.9778
-53.594
-54.0532
-54.3385
-54.4351
-54.3316
-54.0208
-53.4995
-52.7688
-51.8335
-50.7011
-49.3818
-47.8876
-46.2314
-44.4268
-42.4874
-40.4265
-38.257
-35.9906
-33.6384
-31.2104
-28.7156
-26.1621
-23.5571
-20.9069
-18.217
-15.4921
-12.7364
-9.95342
-7.14618
-4.31735
-1.4689
1.39712
4.27955
7.17676
10.0883
13.0128
15.9504
18.8997
21.8617
24.8347
27.8204
30.8166
33.8262
36.8458
39.8797
42.9233
45.9823
49.0503
52.1352
55.2278
58.339
61.4558
64.5932
67.733
70.8957
74.0563
77.2424
80.4203
83.6268
86.8168
90.0388
93.2337
96.4644
99.6546
102.884
106.057
109.271
112.412
115.589
118.681
121.801
124.805
127.906
130.656
133.994
136.061
139.915
141.472
144.826
147.836
146.912
156.968
148.524
160.204
157.995
157.713
172.014
150.85
180.145
161.981
167.224
188.447
152.562
196.057
174.502
163.689
216.561
158.086
183.299
234.094
145.936
208.804
237.107
188.857
217.916
210.492
220.432
-38.5717
-39.2847
-40.1251
-41.063
-42.0353
-43.0063
-43.9668
-44.9144
-45.842
-46.7357
-47.5776
-48.349
-49.0313
-49.6063
-50.0567
-50.3662
-50.5202
-50.5056
-50.3125
-49.9338
-49.3663
-48.6096
-47.6666
-46.543
-45.2464
-43.7863
-42.1734
-40.419
-38.5347
-36.5322
-34.4227
-32.2169
-29.9248
-27.5556
-25.1178
-22.6191
-20.0663
-17.4654
-14.822
-12.1405
-9.42534
-6.67983
-3.90726
-1.11003
1.70932
4.54928
7.4078
10.2841
13.1765
16.085
19.0078
21.9457
24.8968
27.8627
30.8408
33.8342
36.8391
39.8598
42.8914
45.9399
48.9983
52.075
55.1601
58.2649
61.376
64.5087
67.6443
70.8038
73.9614
77.1457
80.3218
83.5277
86.7169
89.9394
93.1344
96.3666
99.5577
102.79
105.965
109.181
112.325
115.506
118.6
121.727
124.729
127.842
130.588
133.937
136.008
139.856
141.442
144.766
147.811
146.852
156.973
148.472
160.143
158.006
157.628
172.086
150.667
180.224
161.954
166.967
188.695
152.237
196.17
174.553
163.025
217.127
157.692
182.415
234.859
145.656
207.688
237.437
188.925
217.685
210.514
220.327
-36.3017
-36.8937
-37.6034
-38.4027
-39.2323
-40.0591
-40.8759
-41.6826
-42.4752
-43.2433
-43.973
-44.6491
-45.2566
-45.7802
-46.205
-46.5164
-46.7005
-46.7444
-46.6367
-46.3684
-45.933
-45.3267
-44.5486
-43.6
-42.4848
-41.2089
-39.7796
-38.2058
-36.4969
-34.6627
-32.7134
-30.6589
-28.5087
-26.2719
-23.9572
-21.5722
-19.1243
-16.62
-14.0651
-11.4648
-8.82389
-6.14628
-3.43574
-0.695128
2.07255
4.86538
7.6809
10.5181
13.3747
16.2506
19.1436
22.0544
24.9807
27.9242
30.8818
33.8566
36.8444
39.8499
42.8675
45.9035
48.9505
52.0171
55.0928
58.1897
61.2934
64.42
67.5498
70.7049
73.8582
77.0396
80.2127
83.4171
86.6044
89.8268
93.0211
96.2544
99.4459
102.68
105.856
109.076
112.222
115.408
118.503
121.639
124.639
127.767
130.507
133.869
135.949
139.782
141.412
144.689
147.787
146.792
156.955
148.438
160.065
158.028
157.542
172.137
150.498
180.286
161.948
166.716
188.932
151.92
196.285
174.652
162.359
217.664
157.363
181.549
235.561
145.542
206.624
237.667
189.043
217.48
210.556
220.239
-33.9952
-34.4852
-35.0837
-35.7648
-36.4725
-37.1762
-37.8699
-38.5552
-39.2302
-39.8872
-40.5151
-41.1018
-41.6351
-42.1026
-42.4915
-42.7892
-42.9832
-43.0613
-43.0121
-42.8258
-42.4941
-42.0108
-41.3721
-40.576
-39.6233
-38.5162
-37.2592
-35.858
-34.3197
-32.6521
-30.8636
-28.963
-26.9589
-24.86
-22.6744
-20.41
-18.0741
-15.6735
-13.2144
-10.7023
-8.14248
-5.53928
-2.89694
-0.218758
2.49178
5.2324
8.00016
10.7937
13.6105
16.45
19.3098
22.1903
25.0888
28.007
30.9415
33.8952
36.8637
39.8517
42.8531
45.8747
48.9082
51.9629
55.0276
58.1149
61.2094
64.3283
67.4508
70.5999
73.7475
76.9246
80.0934
83.2951
86.4794
89.7007
92.8932
96.1269
99.3178
102.554
105.731
108.954
112.101
115.293
118.387
121.535
124.529
127.678
130.409
133.785
135.882
139.687
141.384
144.588
147.766
146.731
156.903
148.436
159.965
158.068
157.466
172.157
150.358
180.329
161.977
166.478
189.139
151.636
196.387
174.809
161.718
218.143
157.16
180.715
236.155
145.629
205.634
237.768
189.233
217.311
210.632
220.184
-31.6562
-32.0599
-32.5636
-33.1434
-33.7467
-34.3448
-34.9329
-35.5135
-36.0862
-36.6452
-37.1819
-37.6865
-38.1489
-38.5591
-38.9065
-39.1805
-39.3699
-39.4638
-39.4517
-39.3234
-39.0703
-38.6846
-38.1607
-37.4944
-36.6835
-35.7277
-34.6285
-33.3888
-32.0131
-30.5071
-28.8772
-27.1305
-25.2745
-23.3169
-21.2653
-19.1271
-16.9096
-14.6193
-12.2629
-9.84592
-7.37403
-4.8519
-2.28421
0.325406
2.97297
5.65589
8.37073
11.1159
13.8883
16.6873
19.5099
22.3566
25.2239
28.1138
31.0222
33.9522
36.8988
39.867
42.8501
45.8552
48.8732
51.9142
54.966
58.0419
61.1256
64.2352
67.3488
70.4904
73.6307
76.8021
79.965
83.1627
86.3426
89.5615
92.751
95.9841
99.1732
102.41
105.587
108.814
111.96
115.159
118.251
121.413
124.399
127.571
130.292
133.682
135.805
139.567
141.357
144.457
147.746
146.67
156.804
148.478
159.827
158.131
157.369
172.129
150.268
180.337
162.056
166.256
189.29
151.413
196.457
175.031
161.121
218.564
157.122
179.924
236.579
145.963
204.722
237.713
189.454
217.184
210.761
220.182
-29.2884
-29.6189
-30.0415
-30.5341
-31.0474
-31.5548
-32.0519
-32.5422
-33.0259
-33.4991
-33.9546
-34.3845
-34.7807
-35.135
-35.4388
-35.683
-35.8582
-35.9547
-35.9629
-35.8735
-35.6776
-35.3672
-34.9354
-34.3767
-33.687
-32.8636
-31.9057
-30.8139
-29.5901
-28.2377
-26.7612
-25.1657
-23.4573
-21.6424
-19.7277
-17.7199
-15.6258
-13.4517
-11.2041
-8.88882
-6.5115
-4.07705
-1.59052
0.944197
3.52268
6.1421
8.79849
11.4901
14.2132
16.9672
19.7483
22.5572
25.3897
28.2479
31.1269
34.0304
36.9523
39.8983
42.8605
45.847
48.8474
51.8728
54.9097
57.9726
61.0438
64.1424
67.2454
70.378
73.5094
76.6736
79.8292
83.0215
86.1955
89.4108
92.5957
95.827
99.0129
102.251
105.424
108.655
111.799
115.006
118.093
121.271
124.246
127.445
130.155
133.556
135.717
139.415
141.332
144.288
147.726
146.608
156.647
148.58
159.643
158.225
157.291
172.038
150.256
180.233
162.199
166.048
189.358
151.282
196.465
175.313
160.586
218.831
157.288
179.161
236.773
146.596
203.891
237.475
189.856
217.109
210.965
220.253
-26.895
-27.1632
-27.5163
-27.9335
-28.3691
-28.7982
-29.217
-29.629
-30.0355
-30.4334
-30.817
-31.1798
-31.5152
-31.8166
-32.0767
-32.2882
-32.443
-32.5328
-32.5492
-32.4835
-32.3275
-32.0733
-31.7137
-31.2421
-30.6535
-29.9437
-29.1098
-28.1505
-27.0657
-25.8565
-24.5255
-23.0758
-21.512
-19.8387
-18.0617
-16.1866
-14.2194
-12.1661
-10.0328
-7.82489
-5.54831
-3.20786
-0.808909
1.6446
4.14779
6.69771
9.28985
11.9224
14.591
17.295
20.03
22.7968
25.5904
28.4132
31.2594
34.1331
37.0273
39.9483
42.887
45.8525
48.8331
51.8408
54.8607
57.9088
60.9656
64.0518
67.1424
70.2646
73.3855
76.5412
79.6878
82.8733
86.0399
89.2503
92.4291
95.6576
98.8385
102.076
105.245
108.479
111.618
114.833
117.913
121.109
124.07
127.295
129.999
133.402
135.62
139.227
141.306
144.078
147.7
146.545
156.421
148.761
159.394
158.357
157.155
171.868
150.358
180.047
162.423
165.844
189.309
151.292
196.374
175.646
160.125
218.906
157.692
178.4
236.677
147.594
203.147
237.027
190.276
217.1
211.27
220.418
-24.4786
-24.694
-24.9872
-25.3392
-25.7075
-26.0688
-26.4197
-26.764
-27.1033
-27.4354
-27.7556
-28.0585
-28.3387
-28.5908
-28.8089
-28.9868
-29.1178
-29.1948
-29.2105
-29.1573
-29.0276
-28.8139
-28.5092
-28.1068
-27.6009
-26.9863
-26.2592
-25.4164
-24.4562
-23.378
-22.1823
-20.8707
-19.4457
-17.9108
-16.27
-14.5278
-12.6894
-10.7599
-8.74478
-6.64916
-4.47873
-2.23807
0.067265
2.43344
4.85516
7.32955
9.8515
12.4193
15.0279
17.6768
20.3607
23.0807
25.831
28.6143
31.4237
34.2642
37.1273
40.0203
42.9326
45.8745
48.8326
51.8205
54.8213
57.8527
60.893
63.9652
67.0418
70.1519
73.2607
76.4065
79.5426
82.7202
85.8778
89.0822
92.2532
95.4779
98.6521
101.888
105.052
108.288
111.42
114.644
117.713
120.927
123.875
127.123
129.826
133.218
135.515
138.995
141.275
143.825
147.662
146.484
156.122
149.035
159.061
158.532
157.022
171.603
150.614
179.719
162.749
165.63
189.11
151.53
196.134
176.024
159.755
218.733
158.384
177.622
236.237
149.04
202.511
236.354
190.873
217.17
211.701
220.699
-22.0421
-22.2124
-22.454
-22.7494
-23.0592
-23.3616
-23.6538
-23.9393
-24.2201
-24.4947
-24.759
-25.0087
-25.2392
-25.446
-25.6245
-25.7694
-25.8752
-25.9358
-25.9448
-25.8958
-25.7819
-25.5963
-25.3324
-24.9836
-24.544
-24.0081
-23.371
-22.6287
-21.7783
-20.8176
-19.7456
-18.5622
-17.2685
-15.8661
-14.3578
-12.7467
-11.0369
-9.23234
-7.338
-5.35816
-3.29824
-1.16234
1.04393
3.31708
5.65141
8.04436
10.4902
12.9875
15.5303
18.1187
20.7462
23.4146
26.1168
28.8563
31.6247
34.4281
37.2563
40.118
43.0006
45.9161
48.8489
51.8146
54.7937
57.8064
60.8282
63.8845
66.9452
70.0418
73.137
76.2713
79.3955
82.5638
85.711
88.9082
92.0702
95.2899
98.456
101.69
104.846
108.084
111.207
114.439
117.497
120.727
123.665
126.925
129.643
133.001
135.404
138.72
141.233
143.539
147.607
146.438
155.751
149.41
158.627
158.741
156.798
171.249
151.073
179.2
163.2
165.392
188.742
151.816
195.68
176.458
159.518
218.238
159.442
176.861
235.404
151.071
202.011
235.45
191.642
217.333
212.283
221.108
-19.5877
-19.7196
-19.9166
-20.1628
-20.4216
-20.6728
-20.9139
-21.1484
-21.3783
-21.6025
-21.8178
-22.0203
-22.2063
-22.3721
-22.5139
-22.6273
-22.7076
-22.7498
-22.7484
-22.6978
-22.5919
-22.4248
-22.1902
-21.8823
-21.495
-21.0227
-20.4605
-19.8035
-19.0481
-18.1911
-17.2301
-16.1639
-14.9919
-13.7144
-12.3328
-10.8488
-9.26533
-7.58511
-5.81232
-3.95024
-2.00389
0.02339
2.12602
4.30108
6.5426
8.8485
11.2124
13.6335
16.1048
18.6272
21.1929
23.8046
26.4535
29.1445
31.8675
34.6296
37.4189
40.2456
43.0951
45.9809
48.8854
51.826
54.781
57.7724
60.7736
63.812
66.8549
69.9361
73.016
76.1371
79.2482
82.4056
85.5413
88.7298
91.8818
95.0952
98.2524
101.483
104.63
107.869
110.984
114.221
117.271
120.509
123.447
126.703
129.455
132.748
135.288
138.403
141.176
143.24
147.532
146.423
155.313
149.879
158.079
158.968
156.601
170.835
151.782
178.454
163.797
165.135
188.218
152.666
194.938
176.989
159.499
217.332
160.98
176.232
234.147
153.685
201.666
234.33
192.651
217.601
213.036
221.652
-17.1178
-17.2169
-17.3754
-17.5786
-17.7928
-17.9995
-18.1962
-18.3862
-18.5717
-18.7519
-18.924
-19.0849
-19.2313
-19.3602
-19.4683
-19.5522
-19.6078
-19.6309
-19.6168
-19.5606
-19.4572
-19.3013
-19.0872
-18.8096
-18.4629
-18.0416
-17.5406
-16.9551
-16.2807
-15.5137
-14.6509
-13.6898
-12.6289
-11.4672
-10.2048
-8.84195
-7.3806
-5.82212
-4.1698
-2.42578