/*--------------------------------*- C++ -*----------------------------------*\
| =========                 |                                                 |
| \\      /  F ield         | OpenFOAM: The Open Source CFD Toolbox           |
|  \\    /   O peration     | Version:  2412                                  |
|   \\  /    A nd           | Website:  www.openfoam.com                      |
|    \\/     M anipulation  |                                                 |
\*---------------------------------------------------------------------------*/
FoamFile
{
    version     2.0;
    format      ascii;
    arch        "LSB;label=32;scalar=64";
    class       surfaceScalarField;
    location    "1.36";
    object      ddtCorrDdt0(phi);
}
// * * * * * * * * * * * * * * * * * * * * * * * * * * * * * * * * * * * * * //

dimensions      [0 3 -2 0 0 0 0];

oriented        oriented;

internalField   nonuniform List<scalar> 
24930
(
3.02689e-05
4.73755e-06
-7.11589e-05
1.94878e-05
1.17561e-05
1.10436e-05
9.44133e-06
6.33941e-06
5.63402e-06
3.86854e-06
3.47524e-06
2.4465e-06
2.49097e-06
1.52281e-06
1.93938e-06
6.55157e-07
1.68749e-06
-2.31664e-07
1.43234e-06
-1.17728e-06
1.19129e-06
-2.15629e-06
9.42041e-07
-3.1119e-06
6.86954e-07
-3.98783e-06
4.43624e-07
-4.75067e-06
2.31263e-07
-5.39615e-06
6.2409e-08
-5.93931e-06
-5.97966e-08
-6.39857e-06
-1.39598e-07
-6.78548e-06
-1.83341e-07
-7.10397e-06
-1.95068e-07
-7.35434e-06
-1.75884e-07
-7.53511e-06
-1.27087e-07
-7.64227e-06
-5.23719e-08
-7.66811e-06
4.1942e-08
-7.6045e-06
1.50583e-07
-7.44777e-06
2.70094e-07
-7.20568e-06
4.00857e-07
-6.89759e-06
5.41292e-07
-6.55471e-06
6.89621e-07
-6.20965e-06
8.34937e-07
-5.89566e-06
9.68264e-07
-5.63397e-06
1.07167e-06
-5.44509e-06
1.14242e-06
-5.33461e-06
1.16741e-06
-5.3178e-06
1.16123e-06
-5.39207e-06
1.11301e-06
-5.5774e-06
1.05328e-06
-5.86338e-06
9.59661e-07
-6.27608e-06
8.7607e-07
-6.78796e-06
7.55874e-07
-7.43082e-06
6.65439e-07
-8.15004e-06
5.26361e-07
-8.98668e-06
4.44215e-07
-9.84664e-06
2.9637e-07
-1.07832e-05
2.45587e-07
-1.16442e-05
1.04297e-07
-1.25013e-05
1.15899e-07
-1.31293e-05
2.57526e-09
-1.364e-05
1.17352e-07
-1.37342e-05
5.85872e-08
-1.36109e-05
3.22382e-07
-1.29152e-05
3.36731e-07
-1.20012e-05
7.7358e-07
-1.04812e-05
8.3349e-07
-8.9318e-06
1.40686e-06
-6.92981e-06
1.40958e-06
-5.30003e-06
2.01098e-06
-3.51571e-06
1.79776e-06
-2.60943e-06
2.30738e-06
-1.8121e-06
1.76181e-06
-2.27129e-06
2.16012e-06
-2.81517e-06
1.30524e-06
-4.656e-06
1.73088e-06
-6.15977e-06
7.21976e-07
-8.7047e-06
1.37836e-06
-1.02914e-05
3.33849e-07
-1.26835e-05
1.29009e-06
-1.36645e-05
1.52179e-07
-1.554e-05
1.30986e-06
-1.58982e-05
-5.76346e-08
-1.75571e-05
1.22145e-06
-1.77718e-05
-4.00724e-07
-1.97306e-05
1.05541e-06
-2.02271e-05
-7.09599e-07
-2.26968e-05
1.0029e-06
-2.34879e-05
-7.90772e-07
-2.62385e-05
1.20727e-06
-2.69138e-05
-5.66412e-07
-2.94764e-05
1.77307e-06
-2.95102e-05
-1.16847e-07
-3.1556e-05
2.43905e-06
-3.05204e-05
-1.04675e-07
-3.23754e-05
3.08846e-06
-2.9712e-05
-1.21191e-06
-3.27758e-05
4.59003e-06
-2.7098e-05
-4.65052e-06
-3.2117e-05
6.12997e-06
-2.28506e-05
-9.28716e-06
-3.34e-05
1.18225e-05
-2.50359e-05
-8.60302e-06
-2.50404e-05
-5.11136e-07
-2.58596e-05
2.80605e-07
-1.4445e-05
-9.65044e-06
-3.48847e-05
2.28156e-05
-3.63462e-06
-3.59263e-05
-4.35437e-05
3.84812e-05
1.95446e-05
-6.06431e-05
2.64538e-05
-6.85376e-06
-8.76281e-06
3.73114e-05
-8.62554e-05
7.88677e-05
6.25721e-05
-0.000157602
-0.000148239
0.000242212
0.000599591
-0.000729445
0.00015883
0.000440887
-0.000822314
0.000947615
0.000366486
-0.0011955
0.00110965
-0.000738308
0.000416423
0.000696691
-0.00102698
0.0015415
0.00206187
-0.00309765
0.00120793
0.000857726
-0.000747829
0.00195737
0.00315714
-0.00390983
-0.000567569
0.00371699
-0.00273811
0.0021838
0.00158834
-0.00432121
-0.00253378
0.00413307
-0.00623038
0.0036818
-0.00114589
-0.00508738
0.000923245
-0.00210564
0.000661244
4.89781e-05
2.16168e-05
-6.45933e-05
3.93659e-05
2.34554e-05
2.79321e-05
2.26326e-05
1.80829e-05
1.7282e-05
1.084e-05
1.25526e-05
5.86128e-06
9.19779e-06
2.31166e-06
6.93205e-06
-4.50577e-07
5.48144e-06
-2.91073e-06
4.4467e-06
-5.24154e-06
3.60067e-06
-7.45614e-06
2.81925e-06
-9.50083e-06
2.07403e-06
-1.13252e-05
1.39222e-06
-1.2919e-05
8.16915e-07
-1.43156e-05
3.80505e-07
-1.55678e-05
8.98613e-08
-1.67193e-05
-7.24914e-08
-1.77907e-05
-1.31749e-07
-1.87843e-05
-1.04353e-07
-1.96935e-05
4.35433e-09
-2.05057e-05
1.8837e-07
-2.11983e-05
4.32415e-07
-2.17371e-05
7.12914e-07
-2.20857e-05
1.01156e-06
-2.22196e-05
1.3203e-06
-2.21418e-05
1.64553e-06
-2.18829e-05
1.99005e-06
-2.14987e-05
2.35347e-06
-2.10488e-05
2.7083e-06
-2.0592e-05
3.02903e-06
-2.01678e-05
3.26772e-06
-1.98153e-05
3.41735e-06
-1.9554e-05
3.4472e-06
-1.94232e-05
3.39824e-06
-1.94379e-05
3.24584e-06
-1.96488e-05
3.06944e-06
-2.00571e-05
2.81078e-06
-2.07169e-05
2.58096e-06
-2.15932e-05
2.25792e-06
-2.27425e-05
2.01368e-06
-2.40827e-05
1.64713e-06
-2.56867e-05
1.4373e-06
-2.74126e-05
1.06866e-06
-2.9358e-05
9.69162e-07
-3.12872e-05
6.47357e-07
-3.33252e-05
7.37825e-07
-3.51078e-05
5.03692e-07
-3.68126e-05
8.646e-07
-3.79359e-05
7.53538e-07
-3.87784e-05
1.47148e-06
-3.87189e-05
1.50524e-06
-3.82885e-05
2.63384e-06
-3.67868e-05
2.75556e-06
-3.50953e-05
4.24662e-06
-3.24471e-05
4.26307e-06
-3.01453e-05
5.92775e-06
-2.72859e-05
5.5186e-06
-2.55735e-05
7.11197e-06
-2.37826e-05
5.9806e-06
-2.38918e-05
7.3687e-06
-2.40928e-05
5.39473e-06
-2.6525e-05
6.69027e-06
-2.86396e-05
4.02397e-06
-3.2817e-05
5.5881e-06
-3.58292e-05
2.52211e-06
-4.05781e-05
4.70973e-06
-4.33628e-05
1.41942e-06
-4.78626e-05
4.33968e-06
-5.00268e-05
7.85404e-07
-5.43296e-05
4.34587e-06
-5.62912e-05
4.13308e-07
-6.09647e-05
4.48278e-06
-6.33676e-05
2.03929e-07
-6.87553e-05
4.6009e-06
-7.18783e-05
2.1079e-07
-7.76802e-05
4.65915e-06
-8.12068e-05
4.64034e-07
-8.6564e-05
4.72985e-06
-8.99894e-05
1.1337e-06
-9.38145e-05
4.61047e-06
-9.66782e-05
1.65944e-06
-9.86437e-05
4.66301e-06
-9.98682e-05
1.95991e-07
-0.000102301
7.70326e-06
-9.72856e-05
-8.42189e-06
-0.000108112
1.81458e-05
-8.70768e-05
-2.85928e-05
-0.000115119
4.06071e-05
-8.45684e-05
-3.76824e-05
-9.81505e-05
1.411e-05
-7.88532e-05
-1.77418e-05
-7.62778e-05
-1.24022e-05
-9.84142e-05
4.44224e-05
-4.70541e-05
-8.50037e-05
-0.00011895
0.00010852
3.51824e-05
-0.000216504
8.77367e-05
-5.28941e-05
-9.84744e-05
0.000223828
-0.000183494
0.000158987
8.72509e-05
-0.000427336
-0.00034689
0.000643044
0.00184287
-0.00292654
0.000148471
0.00213515
-0.0022147
0.0033396
0.00131473
-0.00472289
0.00338207
-0.00280559
0.000651565
0.00342623
-0.00242711
0.00451591
0.0065843
-0.0121447
0.00316314
0.00427916
-0.000773281
0.00590243
0.00933067
-0.014015
-0.00262641
0.0156789
-0.00765909
0.00721254
0.00412464
-0.0161053
-0.00879239
0.0170482
-0.0180045
0.0129005
-0.00289978
-0.0201945
0.00266918
-0.0076347
0.00270636
5.51703e-05
3.05415e-05
-6.25048e-05
4.91039e-05
3.15486e-05
4.10026e-05
3.24122e-05
3.10179e-05
2.88798e-05
2.12223e-05
2.38973e-05
1.28153e-05
1.90455e-05
5.98387e-06
1.49846e-05
4.02488e-07
1.19555e-05
-4.37936e-06
9.72068e-06
-8.62233e-06
7.91732e-06
-1.24057e-05
6.29722e-06
-1.57236e-05
4.78536e-06
-1.85723e-05
3.42219e-06
-2.09966e-05
2.28814e-06
-2.30907e-05
1.44641e-06
-2.49661e-05
9.06996e-07
-2.67109e-05
6.25675e-07
-2.83711e-05
5.39599e-07
-2.99593e-05
6.05679e-07
-3.14714e-05
8.07456e-07
-3.28914e-05
1.12963e-06
-3.41856e-05
1.53827e-06
-3.53002e-05
1.98457e-06
-3.61768e-05
2.43436e-06
-3.67746e-05
2.88055e-06
-3.70926e-05
3.34731e-06
-3.71697e-05
3.85261e-06
-3.70757e-05
4.40243e-06
-3.68829e-05
4.9492e-06
-3.66572e-05
5.4434e-06
-3.64384e-05
5.79923e-06
-3.6266e-05
6.00382e-06
-3.61623e-05
6.01043e-06
-3.61769e-05
5.89388e-06
-3.63381e-05
5.61911e-06
-3.67155e-05
5.32064e-06
-3.7324e-05
4.89989e-06
-3.82333e-05
4.53793e-06
-3.94118e-05
4.02662e-06
-4.09254e-05
3.65107e-06
-4.26883e-05
3.07617e-06
-4.47857e-05
2.77335e-06
-4.70693e-05
2.21935e-06
-4.96542e-05
2.13634e-06
-5.22889e-05
1.70097e-06
-5.51159e-05
1.97894e-06
-5.77353e-05
1.72707e-06
-6.03403e-05
2.48871e-06
-6.23684e-05
2.4593e-06
-6.41417e-05
3.82432e-06
-6.49585e-05
4.02021e-06
-6.53882e-05
6.03848e-06
-6.46335e-05
6.31874e-06
-6.36463e-05
8.86301e-06
-6.15539e-05
8.86027e-06
-5.97772e-05
1.15805e-05
-5.7305e-05
1.07464e-05
-5.60197e-05
1.32497e-05
-5.45848e-05
1.11388e-05
-5.52058e-05
1.32752e-05
-5.59349e-05
9.78302e-06
-5.91656e-05
1.18497e-05
-6.21514e-05
7.34068e-06
-6.75411e-05
1.00446e-05
-7.18305e-05
5.07499e-06
-7.82078e-05
9.0232e-06
-8.26306e-05
3.84112e-06
-8.90861e-05
9.07804e-06
-9.3172e-05
3.47451e-06
-9.96693e-05
9.63568e-06
-0.000103816
3.32544e-06
-0.000110882
1.00559e-05
-0.000115817
3.22696e-06
-0.000123741
1.01333e-05
-0.000129912
3.58261e-06
-0.000138185
9.89754e-06
-0.000145458
4.72684e-06
-0.000152778
9.3588e-06
-0.000160952
7.23362e-06
-0.000165377
7.7869e-06
-0.000174396
1.03545e-05
-0.000174683
5.48806e-06
-0.000183329
1.01001e-05
-0.000182616
8.70734e-06
-0.00018252
-6.49422e-06
-0.000196689
3.4236e-05
-0.000163213
-6.02246e-05
-0.000214444
9.30419e-05
-0.000156344
-9.4696e-05
-0.000191808
5.05815e-05
-0.000141793
-6.71394e-05
-0.000162866
8.76955e-06
-0.00017122
5.25024e-05
-0.000114859
-0.000140236
-0.000202405
0.000196364
3.95041e-05
-0.0004597
0.000136314
-0.000150828
-0.000232383
0.000591927
-0.000255905
0.000163694
7.71268e-05
-0.000759157
-0.000507161
0.00121046
0.00314756
-0.00658363
-8.11796e-05
0.00536552
-0.00348492
0.00674375
0.00257966
-0.0107865
0.00568249
-0.00590769
0.000599982
0.00850701
-0.00343553
0.00855271
0.0116589
-0.0271079
0.00488465
0.0110548
-0.00011053
0.0108963
0.0156702
-0.0297954
-0.00555254
0.0369051
-0.0124898
0.0141478
0.00633251
-0.03493
-0.0163912
0.0397716
-0.0297632
0.0262748
-0.00406051
-0.0458984
0.00436976
-0.0160695
0.00626513
5.84916e-05
3.79448e-05
-6.42499e-05
5.47471e-05
3.75145e-05
5.00519e-05
3.88679e-05
4.28874e-05
3.76242e-05
3.39984e-05
3.41875e-05
2.45834e-05
2.96952e-05
1.5514e-05
2.50872e-05
7.18279e-06
2.10478e-05
-3.70197e-07
1.76976e-05
-7.18653e-06
1.47967e-05
-1.32606e-05
1.20979e-05
-1.85576e-05
9.53187e-06
-2.30752e-05
7.18562e-06
-2.68843e-05
5.20832e-06
-3.01282e-05
3.72212e-06
-3.29825e-05
2.75712e-06
-3.55975e-05
2.24083e-06
-3.80646e-05
2.0555e-06
-4.04212e-05
2.11165e-06
-4.26754e-05
2.37028e-06
-4.48186e-05
2.80191e-06
-4.6818e-05
3.34795e-06
-4.86122e-05
3.92503e-06
-5.01281e-05
4.47688e-06
-5.13127e-05
5.00004e-06
-5.2163e-05
5.54775e-06
-5.2727e-05
6.16542e-06
-5.30901e-05
6.87218e-06
-5.33369e-05
7.59755e-06
-5.35389e-05
8.26064e-06
-5.3733e-05
8.72871e-06
-5.39547e-05
8.98095e-06
-5.42239e-05
8.95487e-06
-5.45961e-05
8.7666e-06
-5.51082e-05
8.37178e-06
-5.58449e-05
7.96586e-06
-5.68295e-05
7.40276e-06
-5.81445e-05
6.93718e-06
-5.97578e-05
6.26166e-06
-6.17444e-05
5.78432e-06
-6.40113e-05
5.02063e-06
-6.66576e-05
4.65642e-06
-6.95259e-05
3.93877e-06
-7.2753e-05
3.91657e-06
-7.60687e-05
3.39597e-06
-7.96407e-05
3.91919e-06
-8.30326e-05
3.67706e-06
-8.64677e-05
4.90452e-06
-8.93277e-05
4.97477e-06
-9.19781e-05
7.057e-06
-9.36424e-05
7.41848e-06
-9.49554e-05
1.04017e-05
-9.50272e-05
1.08269e-05
-9.49083e-05
1.45105e-05
-9.3616e-05
1.44626e-05
-9.27119e-05
1.83493e-05
-9.1058e-05
1.70689e-05
-9.07253e-05
2.06442e-05
-9.02268e-05
1.75598e-05
-9.19947e-05
2.06724e-05
-9.38877e-05
1.56894e-05
-9.8552e-05
1.87968e-05
-0.00010299
1.24461e-05
-0.00011013
1.65492e-05
-0.000116152
9.59329e-06
-0.000124567
1.55199e-05
-0.000130967
8.28881e-06
-0.000139697
1.60494e-05
-0.000145995
8.26514e-06
-0.00015499
1.72778e-05
-0.000161643
8.59875e-06
-0.000171442
1.82457e-05
-0.000179314
9.11188e-06
-0.000190157
1.85509e-05
-0.000199885
1.05015e-05
-0.000211019
1.79927e-05
-0.000222684
1.33624e-05
-0.000232289
1.62138e-05
-0.000246061
1.88045e-05
-0.000251221
1.1492e-05
-0.000267605
2.61274e-05
-0.000265966
4.06245e-06
-0.00028388
2.89437e-05
-0.000279104
5.36154e-06
-0.000286707
2.86618e-06
-0.00030234
5.16467e-05
-0.000260899
-9.98902e-05
-0.000332057
0.000165549
-0.000245645
-0.000179899
-0.000309773
0.000115765
-0.000222986
-0.000153072
-0.000276314
6.25469e-05
-0.000263282
3.94061e-05
-0.000207731
-0.000195147
-0.000303884
0.000293387
3.01164e-05
-0.000793967
0.000156009
-0.000279077
-0.000402875
0.00114954
-0.000325996
9.13808e-05
5.61099e-05
-0.00113977
-0.000644327
0.0019389
0.00447161
-0.0117011
-0.000506544
0.0103446
-0.00460749
0.0108448
0.00416334
-0.0195565
0.0079186
-0.00966262
0.000430069
0.0159942
-0.00403553
0.0130183
0.0172139
-0.0484771
0.00634397
0.0219261
0.000758462
0.0164787
0.0219885
-0.0510258
-0.00930946
0.0682056
-0.0171964
0.0220319
0.008082
-0.0602101
-0.0252622
0.0731157
-0.0412877
0.0422989
-0.00456413
-0.0826225
0.00595731
-0.0265826
0.011382
6.15144e-05
4.38231e-05
-6.57069e-05
5.88301e-05
4.25907e-05
5.61226e-05
4.34285e-05
5.18919e-05
4.34374e-05
4.5658e-05
4.17414e-05
3.77851e-05
3.86811e-05
2.88879e-05
3.48909e-05
1.9566e-05
3.10258e-05
1.02293e-05
2.73921e-05
1.17824e-06
2.38896e-05
-7.32065e-06
2.03412e-05
-1.50413e-05
1.67453e-05
-2.18459e-05
1.32903e-05
-2.7721e-05
1.02495e-05
-3.27782e-05
7.86129e-06
-3.7212e-05
6.22974e-06
-4.12247e-05
5.28767e-06
-4.49609e-05
4.86458e-06
-4.84918e-05
4.80652e-06
-5.18436e-05
5.0369e-06
-5.50219e-05
5.50895e-06
-5.80084e-05
6.13846e-06
-6.07472e-05
6.79847e-06
-6.31587e-05
7.39768e-06
-6.51765e-05
7.93038e-06
-6.67909e-05
8.48635e-06
-6.80562e-05
9.15235e-06
-6.90751e-05
9.97238e-06
-6.995e-05
1.08536e-05
-7.07637e-05
1.16774e-05
-7.1554e-05
1.22523e-05
-7.23539e-05
1.25455e-05
-7.31795e-05
1.24763e-05
-7.40919e-05
1.22104e-05
-7.5135e-05
1.16944e-05
-7.64092e-05
1.11926e-05
-7.7945e-05
1.05021e-05
-7.98386e-05
9.9577e-06
-8.20552e-05
9.13586e-06
-8.46806e-05
8.58169e-06
-8.76112e-05
7.64027e-06
-9.09629e-05
7.24002e-06
-9.45633e-05
6.36833e-06
-9.85755e-05
6.44335e-06
-0.000102703
5.85029e-06
-0.000107147
6.66866e-06
-0.000111423
6.44718e-06
-0.000115797
8.20341e-06
-0.000119584
8.38055e-06
-0.00012321
1.12631e-05
-0.000125809
1.1797e-05
-0.000128107
1.58579e-05
-0.000129101
1.64371e-05
-0.000129977
2.14097e-05
-0.000129615
2.1327e-05
-0.000129762
2.6568e-05
-0.000129117
2.48464e-05
-0.000129993
2.97168e-05
-0.000130702
2.5648e-05
-0.000133963
2.99829e-05
-0.000137374
2.34624e-05
-0.000143903
2.78645e-05
-0.000150213
1.95747e-05
-0.000159597
2.53418e-05
-0.000167814
1.62552e-05
-0.000178795
2.44576e-05
-0.000187654
1.50221e-05
-0.00019921
2.56526e-05
-0.000208222
1.55768e-05
-0.000220287
2.78161e-05
-0.000229979
1.67579e-05
-0.000243113
2.96315e-05
-0.000254516
1.83893e-05
-0.000268919
3.03751e-05
-0.000282898
2.14945e-05
-0.000297555
2.9411e-05
-0.000314461
2.70231e-05
-0.000326989
2.57814e-05
-0.000347418
3.68427e-05
-0.000353825
1.62963e-05
-0.000378947
5.05488e-05
-0.000375622
9.39412e-07
-0.000404645
5.89619e-05
-0.000395657
-2.04959e-06
-0.000413274
2.24073e-05
-0.000430086
7.04663e-05
-0.000382492
-0.000145525
-0.000478774
0.000263471
-0.000369526
-0.000287776
-0.000458531
0.00020586
-0.000326359
-0.000284267
-0.000422523
0.000159388
-0.000378966
-4.02153e-06
-0.00033147
-0.000242528
-0.000428277
0.000390639
-1.19927e-06
-0.00122088
0.000136608
-0.000418251
-0.000610373
0.00189531
-0.000398908
-0.000114851
2.83859e-05
-0.00156625
-0.00076777
0.002746
0.0057774
-0.0182468
-0.00111477
0.017237
-0.00552456
0.0152552
0.00602639
-0.031107
0.0100462
-0.0136838
0.000218705
0.0258204
-0.00418236
0.0174179
0.0231237
-0.0757566
0.00750315
0.0375479
0.00178735
0.0221928
0.0280605
-0.0772999
-0.013844
0.110112
-0.0217083
0.029896
0.00917892
-0.0910983
-0.0353538
0.117648
-0.0523272
0.0592734
-0.00443113
-0.130519
0.00736737
-0.0383815
0.0179607
6.42479e-05
4.7622e-05
-6.64887e-05
6.23193e-05
4.68355e-05
6.04775e-05
4.71037e-05
5.80474e-05
4.73831e-05
5.42787e-05
4.67475e-05
4.89143e-05
4.50826e-05
4.20085e-05
4.26355e-05
3.38307e-05
3.97964e-05
2.47257e-05
3.68065e-05
1.50518e-05
3.35844e-05
5.20685e-06
2.99425e-05
-4.3996e-06
2.58831e-05
-1.34153e-05
2.16596e-05
-2.1614e-05
1.76714e-05
-2.89346e-05
1.43174e-05
-3.54727e-05
1.18525e-05
-4.14112e-05
1.02965e-05
-4.69211e-05
9.47337e-06
-5.21015e-05
9.16778e-06
-5.69925e-05
9.25262e-06
-6.16133e-05
9.66356e-06
-6.59688e-05
1.02998e-05
-7.00251e-05
1.09883e-05
-7.37061e-05
1.1584e-05
-7.69292e-05
1.20592e-05
-7.9665e-05
1.25377e-05
-8.19614e-05
1.31617e-05
-8.39348e-05
1.40206e-05
-8.57106e-05
1.50087e-05
-8.73931e-05
1.59674e-05
-8.90283e-05
1.66331e-05
-9.06496e-05
1.69522e-05
-9.22679e-05
1.68191e-05
-9.39482e-05
1.64571e-05
-9.57394e-05
1.58047e-05
-9.77599e-05
1.5207e-05
-0.000100048
1.43938e-05
-0.000102718
1.37895e-05
-0.000105732
1.2834e-05
-0.000109191
1.22278e-05
-0.000112979
1.11175e-05
-0.000117232
1.07094e-05
-0.000121757
9.69106e-06
-0.000126751
9.90462e-06
-0.000131883
9.24976e-06
-0.000137395
1.04216e-05
-0.000142746
1.02295e-05
-0.000148257
1.25896e-05
-0.00015316
1.28774e-05
-0.000157961
1.66593e-05
-0.000161682
1.73661e-05
-0.000165169
2.26359e-05
-0.000167275
2.33656e-05
-0.000169356
2.97972e-05
-0.000170118
2.96693e-05
-0.000171545
3.64754e-05
-0.000172123
3.42893e-05
-0.000174469
4.07072e-05
-0.000176632
3.5614e-05
-0.000181695
4.14639e-05
-0.00018692
3.33412e-05
-0.000195685
3.93699e-05
-0.000204226
2.9045e-05
-0.000216298
3.68526e-05
-0.000227137
2.55037e-05
-0.000241205
3.6405e-05
-0.000253021
2.46075e-05
-0.000267998
3.85624e-05
-0.000280289
2.6049e-05
-0.000296088
4.19673e-05
-0.000309463
2.84723e-05
-0.000326659
4.49405e-05
-0.000342332
3.17827e-05
-0.000361076
4.63691e-05
-0.000380175
3.74188e-05
-0.00039918
4.49791e-05
-0.000422384
4.67872e-05
-0.00043865
3.89097e-05
-0.000467054
6.27111e-05
-0.00047541
2.29436e-05
-0.000510974
8.53515e-05
-0.000506385
-3.46229e-06
-0.000548807
0.000102408
-0.000535532
-1.36842e-05
-0.00056622
5.50979e-05
-0.000583653
9.00094e-05
-0.000533013
-0.000194124
-0.000654474
0.000386705
-0.000500702
-0.000440092
-0.00065742
0.000363723
-0.000456277
-0.000484356
-0.000610338
0.000314258
-0.000523944
-9.01766e-05
-0.000495096
-0.000271437
-0.000582302
0.000478119
-6.66286e-05
-0.00173626
6.68085e-05
-0.000552471
-0.000858584
0.00281965
-0.000483663
-0.000486358
-3.38549e-05
-0.00201565
-0.000884982
0.00359182
0.00702193
-0.0261538
-0.00188386
0.0261429
-0.00619543
0.0195673
0.00809559
-0.0453976
0.0120326
-0.0176218
5.74847e-05
0.0377942
-0.00389889
0.0213739
0.0292322
-0.108887
0.00834802
0.0584333
0.00287721
0.0276626
0.0336298
-0.108053
-0.0190764
0.162819
-0.025981
0.0368011
0.00940369
-0.126483
-0.0465263
0.173578
-0.0626382
0.0753861
-0.00372956
-0.189428
0.00856774
-0.0506808
0.0257212
6.70874e-05
4.9903e-05
-6.78231e-05
6.54055e-05
5.00902e-05
6.39211e-05
5.01902e-05
6.22597e-05
5.03558e-05
6.00041e-05
5.01039e-05
5.67582e-05
4.93028e-05
5.22177e-05
4.79941e-05
4.62656e-05
4.63261e-05
3.89743e-05
4.4388e-05
3.05119e-05
4.20598e-05
2.11313e-05
3.90968e-05
1.11826e-05
3.5408e-05
1.07715e-06
3.11819e-05
-8.7889e-06
2.6831e-05
-1.81221e-05
2.28546e-05
-2.67981e-05
1.96743e-05
-3.48582e-05
1.74777e-05
-4.24211e-05
1.61747e-05
-4.95762e-05
1.55331e-05
-5.63553e-05
1.53775e-05
-6.27722e-05
1.56293e-05
-6.88493e-05
1.61932e-05
-7.45867e-05
1.68649e-05
-7.9928e-05
1.74318e-05
-8.47761e-05
1.78099e-05
-8.90644e-05
1.81348e-05
-9.28091e-05
1.8611e-05
-9.61242e-05
1.94028e-05
-9.9157e-05
2.04163e-05
-0.000102044
2.14626e-05
-0.00010485
2.21925e-05
-0.000107616
2.25184e-05
-0.000110344
2.22941e-05
-0.000113098
2.1807e-05
-0.000115928
2.09871e-05
-0.000118971
2.02784e-05
-0.000122273
1.93328e-05
-0.000125972
1.86792e-05
-0.000130028
1.75951e-05
-0.000134565
1.69607e-05
-0.00013945
1.56872e-05
-0.000144845
1.53017e-05
-0.000150532
1.41404e-05
-0.000156747
1.45381e-05
-0.000163117
1.38285e-05
-0.000169939
1.5421e-05
-0.000176601
1.52639e-05
-0.000183498
1.83161e-05
-0.000189757
1.87129e-05
-0.000195991
2.351e-05
-0.000201081
2.43806e-05
-0.000206025
3.10109e-05
-0.000209496
3.18721e-05
-0.000213066
3.99582e-05
-0.000215219
3.97538e-05
-0.00021823
4.83699e-05
-0.000220314
4.56719e-05
-0.000224465
5.39366e-05
-0.000228395
4.77533e-05
-0.000235639
5.5476e-05
-0.000243032
4.56627e-05
-0.000254467
5.37354e-05
-0.000265644
4.12571e-05
-0.000280907
5.15873e-05
-0.000294835
3.78191e-05
-0.000312572
5.19623e-05
-0.000327885
3.76108e-05
-0.000346949
5.54677e-05
-0.000363147
4.03275e-05
-0.000383435
6.04949e-05
-0.00040122
4.4468e-05
-0.000423316
6.50013e-05
-0.00044411
5.01239e-05
-0.000468115
6.743e-05
-0.000493346
5.92644e-05
-0.000517685
6.56634e-05
-0.000548427
7.38787e-05
-0.000569436
5.65949e-05
-0.000607362
9.79524e-05
-0.0006186
3.23706e-05
-0.000666587
0.000132525
-0.000661442
-8.42357e-06
-0.00071989
0.000161919
-0.000702586
-2.92755e-05
-0.000749858
0.000104464
-0.000767612
0.000109977
-0.000717907
-0.000241692
-0.000865296
0.000535984
-0.000678323
-0.000625519
-0.000860915
0.000547542
-0.000610941
-0.000733189
-0.00085153
0.000555769
-0.000703721
-0.000237657
-0.000709736
-0.000265533
-0.000773722
0.000542266
-0.000181274
-0.00232838
-6.4681e-05
-0.000669507
-0.00115299
0.00390699
-0.000594406
-0.00104394
-0.000119736
-0.00249016
-0.00102656
0.00451891
0.00816299
-0.0353431
-0.00278518
0.037091
-0.00659923
0.0233817
0.0102754
-0.0622719
0.0138654
-0.0212122
1.86201e-05
0.0516395
-0.00322415
0.0246168
0.0353673
-0.147479
0.00888089
0.0849208
0.0039421
0.0326007
0.0384381
-0.14255
-0.0249099
0.226168
-0.0299993
0.0418912
0.00857536
-0.165058
-0.0585999
0.240751
-0.0720342
0.0888205
-0.00257369
-0.258888
0.00957596
-0.0628318
0.0341624
7.04936e-05
5.48023e-05
-7.44555e-05
6.83133e-05
5.20347e-05
6.69096e-05
5.24877e-05
6.54486e-05
5.26717e-05
6.38764e-05
5.25368e-05
6.19154e-05
5.21701e-05
5.91531e-05
5.15839e-05
5.52854e-05
5.07854e-05
5.01932e-05
4.97707e-05
4.38634e-05
4.84064e-05
3.63159e-05
4.64456e-05
2.7653e-05
4.37034e-05
1.8109e-05
4.02208e-05
8.03283e-06
3.62887e-05
-2.18683e-06
3.23659e-05
-1.22301e-05
2.89442e-05
-2.19337e-05
2.6373e-05
-3.12813e-05
2.47192e-05
-4.02975e-05
2.38059e-05
-4.89712e-05
2.34326e-05
-5.72754e-05
2.35088e-05
-6.52191e-05
2.39711e-05
-7.2829e-05
2.46239e-05
-8.00853e-05
2.51957e-05
-8.68902e-05
2.55099e-05
-9.31288e-05
2.56675e-05
-9.87511e-05
2.59181e-05
-0.000103832
2.6529e-05
-0.000108523
2.74609e-05
-0.000112995
2.85264e-05
-0.000117346
2.92869e-05
-0.000121635
2.96059e-05
-0.000125857
2.92686e-05
-0.000130067
2.86264e-05
-0.000134304
2.75968e-05
-0.000138722
2.67482e-05
-0.000143372
2.56443e-05
-0.000148423
2.49411e-05
-0.000153832
2.3723e-05
-0.000159754
2.30819e-05
-0.000166037
2.16459e-05
-0.000172879
2.13154e-05
-0.000180024
2.0008e-05
-0.000187758
2.06378e-05
-0.000195656
1.98731e-05
-0.000204085
2.19623e-05
-0.00021235
2.18402e-05
-0.000220935
2.56876e-05
-0.000228844
2.61845e-05
-0.000236821
3.21335e-05
-0.000243582
3.31493e-05
-0.000250307
4.13195e-05
-0.000255454
4.2279e-05
-0.000260857
5.22501e-05
-0.000264725
5.19184e-05
-0.000269692
6.26351e-05
-0.00027363
5.93511e-05
-0.000279993
6.98194e-05
-0.000286069
6.2448e-05
-0.000295949
7.24736e-05
-0.000305932
6.08434e-05
-0.000320555
7.14681e-05
-0.000334846
5.66756e-05
-0.000353891
7.01229e-05
-0.000371452
5.37337e-05
-0.000393534
7.17973e-05
-0.000412971
5.46554e-05
-0.000436895
7.71436e-05
-0.000457725
5.91447e-05
-0.000483378
8.4284e-05
-0.000506418
6.55977e-05
-0.000534395
9.07981e-05
-0.000561304
7.44063e-05
-0.000591651
9.46307e-05
-0.000624207
8.8211e-05
-0.000655052
9.26204e-05
-0.000694795
0.000109745
-0.000721772
8.00477e-05
-0.000771047
0.000144384
-0.000786365
4.57732e-05
-0.000849101
0.000194401
-0.00084444
-1.28952e-05
-0.000921963
0.000240561
-0.000901262
-4.81755e-05
-0.000969231
0.000174635
-0.000987236
0.00013031
-0.000943584
-0.000283098
-0.0011174
0.000711801
-0.000898385
-0.0008429
-0.00112885
0.000779321
-0.000833607
-0.00102722
-0.00116934
0.000892514
-0.00092357
-0.00048304
-0.000990491
-0.000198733
-0.00101228
0.000564168
-0.000364204
-0.0029761
-0.000269786
-0.000764205
-0.00150341
0.00513966
-0.000748598
-0.00179899
-0.00028101
-0.0029578
-0.00118693
0.00541026
0.00915757
-0.0456871
-0.00378773
0.0500364
-0.00675058
0.0263446
0.01245
-0.0814721
0.0155482
-0.0243106
0.000154338
0.0670317
-0.00224665
0.0270162
0.041341
-0.191066
0.00911155
0.117151
0.00485779
0.0368538
0.0422462
-0.179939
-0.0312356
0.29965
-0.0337986
0.0444551
0.00656388
-0.205421
-0.071334
0.318651
-0.080396
0.0978822
-0.00110429
-0.33818
0.0104766
-0.0744138
0.0425347
7.03807e-05
5.45466e-05
-7.07e-05
7.17002e-05
5.50601e-05
6.97968e-05
5.48524e-05
6.81864e-05
5.46965e-05
6.68549e-05
5.45139e-05
6.55367e-05
5.43733e-05
6.37773e-05
5.42034e-05
6.12572e-05
5.39124e-05
5.78498e-05
5.3466e-05
5.34912e-05
5.27881e-05
4.80776e-05
5.16962e-05
4.14893e-05
4.9993e-05
3.37037e-05
4.75949e-05
2.48544e-05
4.46254e-05
1.52206e-05
4.13987e-05
5.15069e-06
3.8342e-05
-5.06175e-06
3.58677e-05
-1.52624e-05
3.41947e-05
-2.53931e-05
3.32574e-05
-3.5392e-05
3.28635e-05
-4.51741e-05
3.29035e-05
-5.4698e-05
3.33534e-05
-6.39867e-05
3.40723e-05
-7.30615e-05
3.47746e-05
-8.18522e-05
3.51782e-05
-9.02094e-05
3.52887e-05
-9.79908e-05
3.53442e-05
-0.00010518
3.57177e-05
-0.000111886
3.64728e-05
-0.000118297
3.74841e-05
-0.000124551
3.82442e-05
-0.000130739
3.85619e-05
-0.000136854
3.81164e-05
-0.00014294
3.73112e-05
-0.000149007
3.60361e-05
-0.000155215
3.50154e-05
-0.000161615
3.37159e-05
-0.000168407
3.29542e-05
-0.000175547
3.15864e-05
-0.000183228
3.09587e-05
-0.00019128
2.9357e-05
-0.000199941
2.91183e-05
-0.000208909
2.76552e-05
-0.000218531
2.8568e-05
-0.000228314
2.77378e-05
-0.000238715
3.04082e-05
-0.000248936
3.03133e-05
-0.000259579
3.50752e-05
-0.000269495
3.56529e-05
-0.000279593
4.2913e-05
-0.000288384
4.40424e-05
-0.000297282
5.39639e-05
-0.000304476
5.49708e-05
-0.000312123
6.70989e-05
-0.000318094
6.6565e-05
-0.000325457
7.97259e-05
-0.00033166
7.57499e-05
-0.000340717
8.88466e-05
-0.000349387
8.01493e-05
-0.00036244
9.29938e-05
-0.000375508
7.93743e-05
-0.000393925
9.31659e-05
-0.000411888
7.58465e-05
-0.000435405
9.3137e-05
-0.000457234
7.38697e-05
-0.00048445
9.66896e-05
-0.00050874
7.64659e-05
-0.000538424
0.000104492
-0.000564734
8.33528e-05
-0.000596774
0.000114366
-0.000626059
9.2861e-05
-0.000661066
0.000123486
-0.000695264
0.000105806
-0.000733225
0.00012924
-0.00077452
0.000125664
-0.000813263
0.000127231
-0.000863746
0.000156113
-0.000898178
0.000110742
-0.000960968
0.000204164
-0.000981886
6.4668e-05
-0.00106211
0.000273723
-0.00105938
-1.54182e-05
-0.00115953
0.00034189
-0.00113656
-6.92335e-05
-0.00122999
0.000270393
-0.00124861
0.000151379
-0.00121735
-0.00031199
-0.00141794
0.000914494
-0.00117035
-0.00108876
-0.00145733
0.00106769
-0.00111885
-0.00136441
-0.00151553
0.00129028
-0.00118247
-0.000815669
-0.00135817
-2.31503e-05
-0.00130925
0.000515322
-0.000638492
-0.00364648
-0.00056083
-0.000842058
-0.0019253
0.00650317
-0.000970801
-0.00275428
-0.000507877
-0.00342098
-0.00142558
0.00631716
0.00996343
-0.0570754
-0.00486679
0.0648666
-0.00670409
0.028182
0.0144936
-0.102669
0.0171011
-0.0269181
0.00047328
0.0836577
-0.00109978
0.0285915
0.0469612
-0.239127
0.00904398
0.15507
0.00547101
0.0404261
0.0448566
-0.219325
-0.0379506
0.382458
-0.0374699
0.0439753
0.00333312
-0.246224
-0.0844677
0.406448
-0.0876888
0.101103
0.000542653
-0.42641
0.0114325
-0.0853044
0.049841
7.20312e-05
5.55032e-05
-7.01123e-05
7.3201e-05
5.67977e-05
7.18139e-05
5.65244e-05
7.0478e-05
5.63138e-05
6.94478e-05
5.62386e-05
6.84789e-05
5.63148e-05
6.71744e-05
5.64081e-05
6.52998e-05
5.63818e-05
6.28205e-05
5.62088e-05
5.97388e-05
5.58933e-05
5.59541e-05
5.53586e-05
5.12712e-05
5.44565e-05
4.54978e-05
5.30635e-05
3.85553e-05
5.11765e-05
3.0522e-05
4.89551e-05
2.16233e-05
4.66873e-05
1.2147e-05
4.47345e-05
2.31317e-06
4.33982e-05
-7.76831e-06
4.27391e-05
-1.80207e-05
4.26106e-05
-2.83359e-05
4.28765e-05
-3.86229e-05
4.35258e-05
-4.88743e-05
4.4491e-05
-5.91423e-05
4.55342e-05
-6.94193e-05
4.62999e-05
-7.95749e-05
4.66565e-05
-8.93928e-05
4.67396e-05
-9.87302e-05
4.69762e-05
-0.000107586
4.75513e-05
-0.000116117
4.84783e-05
-0.000124482
4.92349e-05
-0.00013282
4.9599e-05
-0.000141133
4.91068e-05
-0.000149455
4.81909e-05
-0.000157753
4.66779e-05
-0.000166175
4.54798e-05
-0.000174752
4.39556e-05
-0.000183713
4.31313e-05
-0.000193003
4.15942e-05
-0.000202865
4.1005e-05
-0.000213105
3.92351e-05
-0.000224016
3.91378e-05
-0.000235238
3.75077e-05
-0.000247182
3.87628e-05
-0.000259277
3.78464e-05
-0.000272086
4.11947e-05
-0.00028469
4.11096e-05
-0.000297833
4.69245e-05
-0.000310183
4.75496e-05
-0.000322851
5.63053e-05
-0.000334103
5.74996e-05
-0.000345639
6.94204e-05
-0.000355321
7.04025e-05
-0.0003657
8.50073e-05
-0.000374233
8.41672e-05
-0.000384512
0.000100177
-0.000393466
9.53664e-05
-0.000405783
0.000111595
-0.000417569
0.000101388
-0.000434423
0.000117667
-0.000451154
0.000101833
-0.000474071
0.00011953
-0.000496354
9.94106e-05
-0.000525145
0.000121421
-0.000551978
9.89532e-05
-0.000585242
0.000127545
-0.000615233
0.000103883
-0.000651722
0.000138553
-0.000684499
0.00011394
-0.000724115
0.000151932
-0.00076081
0.000127426
-0.000804186
0.000164407
-0.000847062
0.000145711
-0.000894129
0.000172748
-0.000945843
0.0001733
-0.000994132
0.000171135
-0.00105743
0.000215042
-0.0011011
0.000150456
-0.00117999
0.000279864
-0.00120841
9.09505e-05
-0.00130936
0.000373729
-0.00131052
-1.40333e-05
-0.0014374
0.00047004
-0.00141397
-9.06446e-05
-0.00153834
0.00039723
-0.0015586
0.000174232
-0.00154734
-0.00032076
-0.00177518
0.00114455
-0.00150492
-0.00135721
-0.00185723
0.00142147
-0.00146987
-0.00175041
-0.00194286
0.00176444
-0.0015455
-0.00121256
-0.00184897
0.000280202
-0.0016762
0.000342621
-0.00103208
-0.0042902
-0.000950882
-0.000923401
-0.00244196
0.00799324
-0.00128841
-0.00390889
-0.000851988
-0.00385774
-0.00174884
0.00720993
0.0105394
-0.0693628
-0.00601441
0.0814204
-0.00655938
0.0287263
0.0162786
-0.125507
0.0185497
-0.0291891
0.000924732
0.101281
4.58819e-05
0.0294624
0.0520421
-0.291123
0.00866151
0.198451
0.00559054
0.0434965
0.0461323
-0.259867
-0.0449716
0.473562
-0.0411649
0.0401696
-0.00106131
-0.286327
-0.0977183
0.503105
-0.0939505
0.0973346
0.00227023
-0.52263
0.0126812
-0.095716
0.0545427
7.55508e-05
5.72874e-05
-7.56856e-05