/*--------------------------------*- C++ -*----------------------------------*\
| =========                 |                                                 |
| \\      /  F ield         | OpenFOAM: The Open Source CFD Toolbox           |
|  \\    /   O peration     | Version:  2412                                  |
|   \\  /    A nd           | Website:  www.openfoam.com                      |
|    \\/     M anipulation  |                                                 |
\*---------------------------------------------------------------------------*/
FoamFile
{
    version     2.0;
    format      ascii;
    arch        "LSB;label=32;scalar=64";
    class       volVectorField;
    location    "0.8";
    object      ddtCorrDdt0(U);
}
// * * * * * * * * * * * * * * * * * * * * * * * * * * * * * * * * * * * * * //

dimensions      [0 1 -2 0 0 0 0];

internalField   nonuniform List<vector> 
12600
(
(-0.28869 -1.26434e-21 -0.0521208)
(-0.464031 -3.54521e-21 0.00982415)
(-0.369646 -1.31022e-20 0.0368279)
(-0.319295 0 0.0433298)
(-0.290426 -2.2435e-20 0.0376835)
(-0.263667 -2.55572e-20 0.0297815)
(-0.229633 0 0.0243428)
(-0.190717 0 0.026661)
(-0.157158 1.15352e-19 0.0271165)
(-0.131901 0 0.0257721)
(-0.11081 -5.57518e-20 0.0237879)
(-0.0900638 -5.3417e-20 0.0216531)
(-0.0686137 5.04583e-20 0.0193457)
(-0.0473253 0 0.0167158)
(-0.0272929 4.28175e-20 0.0137981)
(-0.00913869 0 0.0108209)
(0.0067169 -1.35188e-19 0.00801732)
(0.0197478 0 0.0054881)
(0.0294866 4.8979e-20 0.00322344)
(0.0358879 3.97681e-20 0.00120641)
(0.0394106 -3.14625e-20 -0.000525624)
(0.0407264 3.56212e-22 -0.00190059)
(0.0403612 0 -0.00286616)
(0.038569 2.35935e-20 -0.0034243)
(0.0354662 0 -0.00362976)
(0.0312432 0 -0.00356612)
(0.0262714 1.5555e-21 -0.00331767)
(0.0210569 0 -0.00295176)
(0.016108 -2.73141e-22 -0.00251703)
(0.0118203 3.9512e-21 -0.00205553)
(0.00843883 3.53465e-21 -0.00161514)
(0.00609839 2.42101e-21 -0.00125319)
(0.00487592 -8.93539e-22 -0.00102524)
(0.00481551 1.56588e-21 -0.000970536)
(0.00589505 4.72319e-21 -0.00109881)
(0.00799679 -7.20576e-21 -0.00139191)
(0.0108803 0 -0.00180797)
(0.0142283 9.1694e-21 -0.00229729)
(0.0176781 0 -0.00280615)
(0.0209099 -6.01328e-21 -0.00329109)
(0.0236416 0 -0.00371067)
(0.0256943 -2.22651e-22 -0.00403854)
(0.0269168 0 -0.00424561)
(0.0272621 -2.54469e-22 -0.00432118)
(0.0266603 3.46826e-20 -0.00424661)
(0.025154 -4.47649e-20 -0.00402896)
(0.022706 5.4465e-20 -0.00365765)
(0.0194189 0 -0.00315377)
(0.0152493 0 -0.00250488)
(0.0103582 7.28315e-20 -0.00174215)
(0.00469021 1.49364e-19 -0.000846709)
(-0.00149061 1.47863e-19 0.000134043)
(-0.00822058 -2.42674e-23 0.00122268)
(-0.015062 1.30329e-19 0.0023451)
(-0.0220236 0 0.00352778)
(-0.0284642 -9.52155e-20 0.00466088)
(-0.0344293 -7.32181e-20 0.00577642)
(-0.0391292 -4.90423e-20 0.00671957)
(-0.0428464 0 0.00754164)
(-0.0448319 0 0.00805771)
(-0.045917 0 0.00839368)
(-0.0455167 -8.08374e-20 0.00838137)
(-0.0450629 0 0.00828246)
(-0.0438098 0 0.00794245)
(-0.0434499 2.99373e-19 0.00772617)
(-0.0425758 0 0.00736935)
(-0.0430691 0 0.00724444)
(-0.0429798 0 0.00692259)
(-0.0449353 -3.43976e-19 0.0069155)
(-0.0465903 3.57462e-19 0.00682704)
(-0.0510087 3.69591e-19 0.00748118)
(-0.0542817 3.07324e-22 0.00834593)
(-0.0590107 -4.44276e-19 0.0100539)
(-0.0596495 0 0.0112801)
(-0.0600588 5.38764e-19 0.0123028)
(-0.0552 0 0.0116963)
(-0.0516361 0 0.0108126)
(-0.0438927 0 0.00916665)
(-0.0389363 3.33312e-22 0.00875907)
(-0.0293515 9.67943e-19 0.00810161)
(-0.0234962 8.15983e-19 0.00787257)
(-0.01423 -6.40165e-19 0.00559457)
(-0.0119865 -3.87858e-19 0.00314007)
(-0.00769051 0 -9.63847e-05)
(-0.0100224 0 -0.000690669)
(-0.00752015 -6.95194e-19 -0.000469663)
(-0.0105015 1.93411e-18 0.00166208)
(-0.0107755 -2.21367e-18 0.00215412)
(-0.0179164 -1.17192e-18 0.0028923)
(-0.0214782 0 0.00313801)
(-0.030653 2.42701e-18 0.0057156)
(-0.0238744 -8.92045e-19 0.0062016)
(-0.0489234 9.96453e-19 0.0108935)
(0.000598917 -8.64983e-19 -0.000512851)
(-0.0791454 0 0.0175364)
(-0.0521866 0 0.00885345)
(0.203018 0 -0.037564)
(-0.630445 0 0.122965)
(0.969406 0 -0.181326)
(-0.500386 0 0.11607)
(-1.51227 1.56009e-17 0.257871)
(3.2445 -4.11411e-17 -0.606935)
(-4.39731 5.82312e-18 0.852499)
(0.987816 0 -0.199318)
(5.01541 0 -0.880395)
(-8.83639 0 1.6522)
(7.03108 -5.7618e-18 -1.45394)
(2.36889 -1.00788e-16 -0.398352)
(-11.7047 -7.8613e-17 2.19103)
(12.168 0 -2.37115)
(0.353499 -3.19864e-17 0.349115)
(-15.4774 0 2.82617)
(12.2444 -8.99405e-17 -2.48211)
(11.2112 8.44774e-17 -2.0237)
(-12.3324 6.76357e-17 2.44489)
(-5.21801 -1.80926e-19 0.819544)
(7.5425 2.96555e-17 -1.45525)
(4.34801 6.99178e-20 -0.797106)
(-5.06082 -1.71761e-17 0.989577)
(-3.80831 0 0.71143)
(-0.333757 1.27676e-21 -0.08708)
(-0.451774 0 0.0432391)
(-0.497458 1.32612e-20 0.0764181)
(-0.537784 0 0.0711749)
(-0.538623 2.27334e-20 0.0618219)
(-0.508286 4.90386e-20 0.0559602)
(-0.463167 2.6721e-20 0.0542264)
(-0.416359 0 0.059836)
(-0.380033 -1.20658e-21 0.0622184)
(-0.350658 5.66424e-20 0.0613279)
(-0.322325 -5.53261e-20 0.0591496)
(-0.291061 -5.32545e-20 0.0566376)
(-0.256358 5.05219e-20 0.0536516)
(-0.219766 -4.7176e-20 0.0497627)
(-0.18299 -8.67356e-20 0.044944)
(-0.14724 0 0.0395867)
(-0.113504 -1.14346e-22 0.0341241)
(-0.082786 -5.93809e-20 0.0287761)
(-0.0559051 -4.96916e-20 0.0235894)
(-0.0331443 0 0.0186064)
(-0.0142128 0 0.0139514)
(0.00142916 -2.46363e-20 0.0097933)
(0.0141848 0 0.00626838)
(0.0241809 -1.21227e-20 0.00343492)
(0.031412 1.56885e-20 0.00126988)
(0.0359833 0 -0.000309885)
(0.0382448 -2.6801e-21 -0.00141343)
(0.0387505 0 -0.00214344)
(0.0381067 -3.4161e-21 -0.00257964)
(0.0368363 -7.67823e-21 -0.00278878)
(0.0353255 -6.92578e-21 -0.00284349)
(0.0338666 -2.45041e-21 -0.00283575)
(0.0327017 9.04091e-22 -0.00286232)
(0.0320474 -3.28403e-21 -0.00300504)
(0.0320347 -9.62115e-21 -0.00330309)
(0.0326846 0 -0.0037564)
(0.0338552 0 -0.0043223)
(0.0353214 6.70848e-23 -0.00494758)
(0.0367732 0 -0.0055627)
(0.0379613 6.07063e-21 -0.00611864)
(0.0386179 0 -0.00655452)
(0.0386113 -3.23335e-21 -0.00684233)
(0.0377454 0 -0.00692853)
(0.035998 -2.38363e-20 -0.00680864)
(0.033203 0 -0.00643817)
(0.0294516 4.50754e-20 -0.00584828)
(0.0245782 0 -0.00499992)
(0.0187836 0 -0.00395517)
(0.0118382 -6.86389e-20 -0.00265761)
(0.00406123 0 -0.00119562)
(-0.00487486 0 0.000517208)
(-0.0144452 0 0.0023493)
(-0.025051 -1.42089e-19 0.0044161)
(-0.0358274 -2.61401e-19 0.00651791)
(-0.0472727 0 0.00880691)
(-0.0580871 0 0.0109885)
(-0.0689696 7.39042e-20 0.0132582)
(-0.0781503 4.90402e-20 0.0151932)
(-0.086802 0 0.0170625)
(-0.0928182 0 0.0183243)
(-0.0983281 0 0.0194301)
(-0.100973 0 0.0197803)
(-0.104087 -1.08421e-19 0.0201358)
(-0.104648 1.33267e-19 0.0198269)
(-0.107074 -2.96956e-19 0.0199183)
(-0.106995 0 0.0194555)
(-0.109965 0 0.0196798)
(-0.110081 0 0.0192099)
(-0.114724 2.92439e-22 0.019679)
(-0.116356 -3.54044e-19 0.0195409)
(-0.124121 -3.65723e-19 0.0211367)
(-0.127474 8.03533e-19 0.0224839)
(-0.136656 7.60112e-22 0.0258952)
(-0.137649 -4.93234e-19 0.0278574)
(-0.143604 -5.31098e-19 0.03038)
(-0.138682 0 0.0294069)
(-0.140726 0 0.0289529)
(-0.131165 0 0.0261151)
(-0.130768 1.03291e-18 0.0263598)
(-0.117055 0 0.0248797)
(-0.11499 0 0.0254053)
(-0.0999621 6.26542e-19 0.0211086)
(-0.101358 3.79201e-19 0.0179627)
(-0.0900951 0 0.0118673)
(-0.0958388 0 0.0116494)
(-0.085371 0 0.0110657)
(-0.0913048 -1.87828e-18 0.0152369)
(-0.084011 1.93908e-21 0.0150505)
(-0.0935059 -1.13516e-18 0.016517)
(-0.0897559 1.11764e-18 0.0155392)
(-0.103169 -2.34971e-18 0.0199731)
(-0.07627 -8.63367e-19 0.0182338)
(-0.143502 -1.92923e-18 0.0304178)
(0.0173544 0 -0.00192447)
(-0.228767 0 0.0501533)
(-0.0981165 0 0.013532)
(0.553299 0 -0.0954423)
(-1.7122 -4.68645e-18 0.318292)
(2.79727 0 -0.546547)
(-1.69487 0 0.421854)
(-3.79137 1.50334e-17 0.630312)
(9.11339 1.97142e-17 -1.6926)
(-12.8363 -1.11155e-17 2.56241)
(3.83006 3.0761e-17 -0.960243)
(13.1438 0 -2.31116)
(-25.1852 0 4.79076)
(21.2904 0 -4.43736)
(4.28705 4.80584e-17 -0.499602)
(-30.7388 7.48164e-17 5.78077)
(34.7575 0 -7.01395)
(-3.93499 6.14388e-17 0.665131)
(-39.8544 -1.31911e-16 7.39719)
(37.2327 1.70469e-16 -7.73461)
(27.9945 0 -4.98978)
(-35.9981 0 7.30585)
(-12.1527 1.70922e-19 1.88413)
(21.8558 0 -4.3777)
(10.6072 -3.52615e-18 -1.8614)
(-14.9666 1.6201e-17 3.03091)
(-10.3992 0 1.9736)
(-0.251828 0 0.0221461)
(-0.315656 0 0.0929875)
(-0.395028 1.32124e-20 0.0824656)
(-0.474578 0 0.0458729)
(-0.51407 0 0.0261599)
(-0.511388 -2.37316e-20 0.0284298)
(-0.485741 -2.53054e-20 0.0413784)
(-0.456586 0 0.0536252)
(-0.43386 -9.87305e-22 0.0618437)
(-0.415261 -5.36608e-20 0.0660551)
(-0.395219 1.04137e-19 0.0681079)
(-0.369919 5.04581e-20 0.0693641)
(-0.339031 -4.45601e-22 0.0699094)
(-0.304243 4.47027e-20 0.0693027)
(-0.267433 4.10182e-20 0.0673711)
(-0.230099 -3.6775e-20 0.0642943)
(-0.193577 6.51659e-20 0.0603299)
(-0.159146 5.62718e-20 0.0556614)
(-0.127786 0 0.0504364)
(-0.0999029 0 0.0448294)
(-0.075336 -3.13649e-20 0.0390375)
(-0.0536835 -2.41884e-20 0.0332518)
(-0.0346849 0 0.0276555)
(-0.0183779 0 0.0224284)
(-0.00496245 -1.48659e-20 0.0177226)
(0.00546912 0 0.0136222)
(0.0131058 5.56518e-21 0.0101312)
(0.0183953 5.05474e-22 0.00720163)
(0.0218796 0 0.00477938)
(0.0240437 3.48345e-21 0.00282385)
(0.0252545 3.17096e-21 0.00130191)
(0.0258118 0 0.00016286)
(0.0259902 -6.90557e-22 -0.000661331)
(0.0260663 1.6101e-21 -0.00125338)
(0.0262388 -3.47771e-23 -0.00168064)
(0.0266125 0 -0.00199981)
(0.027119 0 -0.00223235)
(0.0276257 -8.83605e-21 -0.00239884)
(0.0278928 0 -0.00248786)
(0.02777 0 -0.00251007)
(0.0270398 0 -0.00243458)
(0.0256576 0 -0.00227121)
(0.0234263 0 -0.0019676)
(0.0203934 0 -0.00154732)
(0.0163395 0 -0.000949013)
(0.0114407 -4.19185e-20 -0.000235535)
(0.00542987 5.09527e-20 0.000668285)
(-0.00137423 0 0.00166268)
(-0.0093764 6.49389e-20 0.00286582)
(-0.0180896 0 0.00413851)
(-0.0281121 0 0.00565954)
(-0.0386562 -1.39879e-19 0.00722287)
(-0.0505059 0 0.00907531)
(-0.0623887 1.23623e-19 0.0109116)
(-0.0753448 -1.09275e-19 0.013068)
(-0.0874658 0 0.0150959)
(-0.100202 -6.98556e-20 0.0174337)
(-0.110887 0 0.0194294)
(-0.121728 0 0.0216633)
(-0.129352 0 0.0232558)
(-0.137329 3.71426e-20 0.0250416)
(-0.141552 7.38583e-20 0.0259206)
(-0.147342 8.05313e-22 0.0271278)
(-0.149308 -2.51004e-19 0.0273218)
(-0.154595 5.55056e-22 0.0282374)
(-0.155664 0 0.0281165)
(-0.161738 0 0.0291656)
(-0.162712 -3.21345e-19 0.0289907)
(-0.170803 3.52439e-22 0.0304041)
(-0.173014 0 0.0304115)
(-0.184762 0 0.0327221)
(-0.188531 -3.78629e-19 0.0335848)
(-0.202486 6.01394e-22 0.0373253)
(-0.20374 7.76299e-22 0.0386717)
(-0.215253 0 0.0423485)
(-0.210098 0 0.0418642)
(-0.218307 -1.06117e-18 0.0437904)
(-0.207876 1.04633e-18 0.0415304)
(-0.214325 0 0.0435312)
(-0.199111 0 0.0414234)
(-0.20445 0 0.0435342)
(-0.186785 0 0.0392778)
(-0.195577 0 0.0390789)
(-0.180372 0 0.0332807)
(-0.193557 0 0.0349289)
(-0.178198 0 0.0325421)
(-0.191005 1.7597e-18 0.0370615)
(-0.178036 1.0095e-18 0.0349202)
(-0.192512 1.0669e-18 0.0368149)
(-0.181961 -1.05022e-18 0.0336568)
(-0.200866 2.20483e-18 0.0374128)
(-0.154998 8.10955e-19 0.0315676)
(-0.26035 9.06788e-19 0.0493198)
(0.00518392 0 -0.000364292)
(-0.403758 0 0.0831268)
(-0.137591 0 0.00598382)
(0.809005 0 -0.122777)
(-2.66454 4.39664e-18 0.478246)
(4.50422 0 -0.891013)
(-3.10831 0 0.570173)
(-5.45813 -1.40957e-17 0.749627)
(14.3523 0 -2.53578)
(-20.8886 5.19522e-18 4.23732)
(7.42093 -2.88263e-17 -2.15223)
(19.5827 0 -3.07159)
(-40.1193 0 7.51764)
(35.3898 0 -7.56317)
(3.80603 4.53398e-17 0.372112)
(-45.8575 0 8.0605)
(55.5043 -4.93902e-17 -11.3711)
(-11.6845 3.48124e-19 4.40962)
(-58.2976 1.23455e-16 10.1375)
(61.5693 -1.5924e-16 -13.3164)
(39.5945 0 -6.10784)
(-57.9106 -5.99237e-17 12.0141)
(-15.9808 -1.598e-19 1.79526)
(35.3563 2.62381e-17 -7.23853)
(14.528 0 -2.08985)
(-24.6244 -1.51486e-17 5.14595)
(-16.0676 0 2.96098)
(-0.209648 0 0.0348504)
(-0.231719 0 0.0791447)
(-0.284397 -1.24906e-20 0.0597923)
(-0.345915 0 0.0201348)
(-0.392296 1.89102e-20 -0.00580745)
(-0.410027 -4.26302e-20 -0.00755393)
(-0.407046 0 0.00839906)
(-0.396307 4.81366e-20 0.0294763)
(-0.387036 -5.01008e-20 0.0470229)
(-0.380018 -4.90813e-20 0.058024)
(-0.370961 -4.89059e-20 0.0642156)
(-0.356029 4.65405e-20 0.0681791)
(-0.334502 -4.48515e-20 0.0710763)
(-0.307775 8.30262e-20 0.0729714)
(-0.277682 0 0.0737154)
(-0.245904 6.93075e-20 0.0732299)
(-0.214027 0 0.0714646)
(-0.183475 0 0.0684398)
(-0.155249 0 0.0643208)
(-0.12976 -3.71709e-20 0.0593666)
(-0.106905 -1.80689e-22 0.0538121)
(-0.0863604 -2.52105e-22 0.0478386)
(-0.0679147 -1.71352e-20 0.0416486)
(-0.051651 0 0.0355208)
(-0.0378613 0 0.0297581)
(-0.0267743 0 0.0245809)
(-0.0183342 -6.27957e-21 0.0200718)
(-0.0121835 -4.86237e-22 0.0162063)
(-0.00783344 0 0.0129309)
(-0.00483602 0 0.0102105)
(-0.00286164 0 0.00803252)
(-0.00163849 0 0.00637199)
(-0.000912619 1.173e-21 0.00518215)
(-0.000411047 0 0.00438388)
(5.99929e-05 4.37112e-21 0.00389895)
(0.000614282 0 0.00364049)
(0.00118143 0 0.00355439)
(0.00165059 8.37508e-21 0.00357779)
(0.001784 0 0.00369357)
(0.00147105 0 0.00385709)
(0.000491011 -2.67286e-21 0.00409154)
(-0.00115119 -2.20634e-21 0.00436681)
(-0.00368316 0 0.00474742)
(-0.00699878 -2.04137e-20 0.00519016)
(-0.0113798 0 0.00577876)
(-0.0165591 7.89406e-20 0.00642157)
(-0.0229056 -2.67251e-22 0.00723289)
(-0.0299665 0 0.00807648)
(-0.0383183 0 0.00913353)
(-0.0472805 -6.46569e-20 0.0102117)
(-0.0577172 -1.32921e-19 0.0115786)
(-0.0685454 2.63957e-19 0.0129457)
(-0.0809356 0 0.014683)
(-0.093174 1.16746e-19 0.0163667)
(-0.106861 1.03152e-19 0.018505)
(-0.119446 8.59559e-20 0.0204773)
(-0.13317 6.65505e-20 0.0229513)
(-0.144442 0 0.0250267)
(-0.156578 0 0.0275865)
(-0.164906 3.83037e-21 0.0294018)
(-0.174543 -6.90563e-20 0.0316989)
(-0.17958 -6.96609e-20 0.0328853)
(-0.187454 9.15388e-22 0.0347049)
(-0.190305 1.18017e-19 0.0351673)
(-0.198157 1.31402e-19 0.036714)
(-0.200142 0 0.0367783)
(-0.209338 0 0.0385406)
(-0.211205 3.02829e-19 0.0385604)
(-0.223036 6.04669e-19 0.0408647)
(-0.226051 0 0.0410206)
(-0.242242 3.23958e-19 0.0442118)
(-0.246685 3.5579e-19 0.0448998)
(-0.2659 3.88344e-19 0.0494298)
(-0.267612 8.73308e-19 0.0505437)
(-0.285213 0 0.0555802)
(-0.28006 0 0.0554321)
(-0.295146 9.98588e-19 0.0594352)
(-0.284167 -1.96717e-18 0.0573859)
(-0.298358 -9.12332e-19 0.0610344)
(-0.282029 0 0.0582304)
(-0.295944 0 0.0618449)
(-0.276265 0 0.0571355)
(-0.294072 0 0.0593025)
(-0.275724 0 0.053163)
(-0.298142 0 0.0566984)
(-0.278494 5.83717e-19 0.0527331)
(-0.300038 -4.45653e-21 0.0583241)
(-0.281797 -9.41473e-19 0.0544901)
(-0.303273 0 0.0574443)
(-0.286131 -9.81215e-19 0.0527373)
(-0.312022 -1.0342e-18 0.0566221)
(-0.248734 0 0.0482865)
(-0.389515 8.51845e-19 0.0702262)
(-0.0287055 7.44471e-19 0.0063083)
(-0.594608 0 0.12092)
(-0.170213 0 -0.00656498)
(0.973315 0 -0.123242)
(-3.50007 4.14286e-18 0.557838)
(6.04737 0 -1.20122)
(-4.58679 0 1.06718)
(-6.50781 -1.3289e-17 0.677773)
(18.8309 -1.73965e-17 -3.19165)
(-28.3816 0 5.8417)
(11.6213 0 -3.54649)
(24.2532 0 -3.26758)
(-53.1509 0 9.81866)
(48.7895 0 -10.7731)
(1.0995 1.51794e-19 1.93204)
(-56.8933 0 9.45953)
(73.9945 4.62177e-17 -15.4521)
(-22.6404 -2.75178e-17 8.79508)
(-70.7499 0 11.5262)
(84.4105 8.81608e-20 -18.9485)
(45.9167 0 -5.83863)
(-77.3747 -4.82551e-20 16.4558)
(-17.0782 0 0.75598)
(47.6431 -2.45317e-17 -9.96068)
(16.0708 0 -1.69616)
(-33.821 -1.41611e-17 7.2734)
(-20.7259 0 3.73861)
(-0.194348 0 0.00332394)
(-0.200337 0 0.0292864)
(-0.226276 0 0.0136994)
(-0.256414 0 -0.0159455)
(-0.290446 -1.78499e-20 -0.0356697)
(-0.314833 1.60812e-22 -0.0371123)
(-0.323635 0 -0.0202819)
(-0.321987 -4.54346e-20 0.00729812)
(-0.318411 0 0.0338222)
(-0.316324 9.16991e-20 0.0516216)
(-0.313557 0 0.0610381)
(-0.306486 -4.39376e-20 0.0658929)
(-0.293452 0 0.0690716)
(-0.274923 -7.83898e-20 0.0716561)
(-0.252287 3.56186e-20 0.0737613)
(-0.227209 -6.48341e-20 0.0751085)
(-0.201444 5.72056e-20 0.07527)
(-0.176512 4.97184e-20 0.0739607)
(-0.15336 0 0.0712297)
(-0.132339 3.50995e-20 0.0673448)
(-0.113404 2.81843e-20 0.0625487)
(-0.0963392 4.38681e-20 0.0569937)
(-0.0809632 1.61803e-20 0.0508805)
(-0.0673068 0 0.0445647)
(-0.0556397 0 0.0384767)
(-0.0462646 0 0.0329429)
(-0.0392501 3.22731e-21 0.0280911)
(-0.0343303 7.70684e-24 0.0238946)
(-0.0310525 0 0.0202895)
(-0.0289756 0 0.0172454)
(-0.0277825 2.1231e-21 0.0147724)
(-0.0272188 0 0.0128702)
(-0.027053 -1.7562e-22 0.011513)
(-0.0270239 1.91194e-21 0.0106296)
(-0.0269571 -4.37161e-21 0.0101426)
(-0.0267453 0 0.00995111)
(-0.0264811 0 0.00998636)
(-0.0262731 -7.90457e-21 0.0101579)
(-0.0263827 0 0.0104326)
(-0.0269038 0 0.0107388)
(-0.0280887 2.52228e-21 0.011098)
(-0.0299015 2.08191e-21 0.0114605)
(-0.0326237 0 0.0119053)
(-0.0360998 1.92599e-20 0.0123649)
(-0.0406935 0 0.0129462)
(-0.0460484 -3.71087e-20 0.0135221)
(-0.0526533 -4.51525e-20 0.0142493)
(-0.059913 0 0.0149488)
(-0.0685924 -5.72225e-20 0.0158712)
(-0.0777973 6.09751e-20 0.0167611)
(-0.0886751 2.50419e-19 0.0179826)
(-0.0998163 -1.24344e-19 0.0191491)
(-0.112804 1.19296e-19 0.0207646)
(-0.125441 -6.04482e-24 0.0222663)
(-0.139927 0 0.0243518)
(-0.153009 -8.10168e-20 0.0262036)
(-0.167781 -6.27201e-20 0.0287462)
(-0.179648 4.26817e-20 0.0308026)
(-0.193121 -2.25293e-20 0.0336021)
(-0.202132 -3.60873e-21 0.0355343)
(-0.213458 3.20482e-20 0.0382783)
(-0.219258 -6.37485e-20 0.0397077)
(-0.22924 8.9369e-20 0.042151)
(-0.232907 0 0.0428993)
(-0.243371 0 0.0451746)
(-0.246214 1.33343e-19 0.0454819)
(-0.258638 0 0.0480528)
(-0.261384 0 0.0482573)
(-0.277158 -2.8432e-19 0.0514827)
(-0.281006 0 0.0517347)
(-0.301935 -3.04795e-19 0.0558951)
(-0.307101 -6.69042e-19 0.0564515)
(-0.331957 0 0.0619514)
(-0.334199 -4.10297e-19 0.0628122)
(-0.358389 0 0.0691964)
(-0.353353 0 0.069105)
(-0.375939 -9.34888e-19 0.0751189)
(-0.364477 9.23648e-19 0.0732333)
(-0.38708 1.37765e-21 0.0789821)
(-0.369617 0 0.0758853)
(-0.392898 0 0.0816048)
(-0.37123 0 0.0765716)
(-0.399101 -3.19535e-19 0.0813487)
(-0.377667 1.09908e-19 0.0748002)
(-0.41056 0 0.0806227)
(-0.386614 -1.09174e-18 0.0752078)
(-0.4184 -7.69936e-19 0.0823988)
(-0.394805 1.76314e-18 0.0768212)
(-0.425086 9.31317e-19 0.0813337)
(-0.4013 1.8383e-18 0.0750296)
(-0.435775 0 0.0792893)
(-0.356552 0 0.0692414)
(-0.530445 -7.98743e-19 0.0926178)
(-0.0842033 -6.97952e-19 0.0184615)
(-0.798696 -2.81031e-19 0.162477)
(-0.202021 0 -0.0283111)
(1.04743 0 -0.0907064)
(-4.20053 -3.88157e-18 0.688173)
(7.41147 2.72013e-18 -1.46669)
(-6.26617 0 0.863148)
(-7.00875 1.24454e-17 0.391784)
(22.482 1.62899e-17 -3.5909)
(-35.1526 0 7.30335)
(16.1715 0 -5.24009)
(27.1875 0 -2.86786)
(-63.9266 0 11.5403)
(61.0036 0 -13.8963)
(-3.50073 -3.98498e-17 4.25655)
(-63.9586 0 9.77853)
(89.8279 0 -19.0505)
(-36.1957 0 12.3341)
(-77.4852 -1.09264e-16 11.2735)
(105.076 6.95041e-17 -24.3691)
(47.1612 0 -3.97222)
(-93.7275 5.24363e-17 20.3394)
(-15.9597 0 -1.09223)
(58.3129 -2.2983e-17 -12.3831)
(15.3353 0 -0.548906)
(-42.3379 1.32341e-17 9.32339)
(-24.3803 0 4.24263)
(-0.187961 8.54624e-21 -0.0134347)
(-0.193866 1.10672e-20 -0.00955313)
(-0.207778 -1.33403e-20 -0.0265219)
(-0.21282 -1.52907e-20 -0.046971)
(-0.231493 0 -0.0593304)
(-0.256156 1.86907e-20 -0.0576637)
(-0.271637 0 -0.0399386)
(-0.273874 -4.09494e-20 -0.00965223)
(-0.269535 -4.17109e-20 0.0233281)
(-0.265032 -8.44893e-20 0.0478316)
(-0.261355 4.10585e-20 0.0608994)
(-0.256276 -3.98071e-20 0.0663621)
(-0.247577 0 0.0688393)
(-0.234511 0 0.070855)
(-0.217543 -3.35805e-20 0.0731541)
(-0.197937 4.62533e-22 0.075477)
(-0.177404 -7.16041e-22 0.0770618)
(-0.15749 -5.17565e-22 0.0772176)
(-0.139034 0 0.0757532)
(-0.122238 0 0.0728924)
(-0.107073 0 0.0688883)
(-0.0934908 -4.16394e-20 0.0638605)
(-0.081396 -1.56839e-20 0.0579809)
(-0.0707232 0 0.0516592)
(-0.0616047 0 0.045449)
(-0.054341 -8.71623e-21 0.0397803)
(-0.0491341 0 0.0348109)
(-0.0458558 0 0.0304897)
(-0.0441105 0 0.026729)
(-0.0434515 0 0.023503)
(-0.0435552 -3.40145e-22 0.0208488)
(-0.0441743 0 0.0187918)
(-0.0450977 -2.0697e-22 0.0173248)
(-0.0460719 -1.80229e-21 0.0163835)
(-0.0469369 -1.93731e-22 0.0158959)
(-0.0475841 0 0.0157541)
(-0.048124 0 0.0158842)
(-0.0486563 0 0.0161752)
(-0.049467 0 0.0165847)
(-0.0506296 0 0.0170166)
(-0.0524337 0 0.0174954)
(-0.0548069 0 0.0179511)
(-0.0580915 -9.66333e-21 0.0184799)
(-0.0620738 -1.79774e-20 0.0189865)
(-0.0672134 0 0.0196029)
(-0.0730545 -3.46751e-20 0.0201599)
(-0.0802262 0 0.0208613)
(-0.0879733 0 0.0214766)
(-0.0972746 1.07656e-19 0.0223336)
(-0.106994 0 0.0231023)
(-0.118595 -1.17793e-19 0.0242545)
(-0.130302 0 0.025289)
(-0.144157 -2.24561e-19 0.02686)
(-0.157424 -2.13018e-23 0.0282441)
(-0.172964 0 0.0303507)
(-0.186748 0 0.0321364)
(-0.202806 0 0.0348127)
(-0.215442 -8.06451e-20 0.0368891)
(-0.230482 4.27687e-20 0.0399821)
(-0.240325 5.07086e-21 0.0420534)
(-0.253567 -2.83906e-20 0.0452896)
(-0.260249 1.19067e-19 0.0469729)
(-0.272566 8.23953e-20 0.0500891)
(-0.277141 0 0.0511385)
(-0.290452 0 0.0542104)
(-0.294216 -5.60085e-22 0.0547798)
(-0.310124 0 0.0582303)
(-0.313784 0 0.0586106)
(-0.333793 -2.66367e-19 0.0628095)
(-0.338492 0 0.0631305)
(-0.364506 0 0.068354)
(-0.370392 6.28059e-19 0.0688156)
(-0.401305 -3.41851e-19 0.075474)
(-0.40406 0 0.0761403)
(-0.435365 0 0.0840149)
(-0.430456 0 0.0838949)
(-0.461224 8.78004e-19 0.0919591)
(-0.449311 0 0.0901247)
(-0.481175 1.6059e-18 0.0981522)
(-0.462608 -7.37961e-19 0.0947906)
(-0.496287 0 0.102868)
(-0.472684 0 0.0974088)
(-0.511897 2.99847e-19 0.104892)
(-0.487443 9.67067e-22 0.0977166)
(-0.532305 -9.81308e-20 0.106042)
(-0.504063 5.10075e-19 0.0991201)
(-0.547849 -7.14061e-19 0.108324)
(-0.518797 -8.24874e-19 0.100907)
(-0.559959 -8.73198e-19 0.107366)
(-0.529391 -2.79453e-21 0.0995037)
(-0.574334 0 0.104441)
(-0.480475 6.64681e-19 0.0935704)
(-0.685298 0 0.116481)
(-0.163771 0 0.0360699)
(-1.01619 2.63274e-19 0.206271)
(-0.239938 0 -0.0539382)
(1.0384 0 -0.0300495)
(-4.83163 0 0.568099)
(8.52041 -2.54689e-18 -1.67907)
(-7.77318 0 1.61806)
(-7.00206 1.17114e-17 -0.0782783)
(25.2742 0 -3.71471)
(-41.0444 0 8.6089)
(20.8091 0 -7.12988)
(28.4915 0 -1.88724)
(-72.2197 0 12.65)
(71.6301 -4.05175e-18 -16.8586)
(-9.64217 -3.74701e-17 7.18395)
(-67.3489 -5.83722e-17 9.07324)
(102.912 0 -22.0679)
(-50.7352 0 18.2392)
(-79.2815 2.04807e-16 9.5605)
(123.048 0 -29.4361)
(43.6532 6.32505e-17 -0.656896)
(-106.349 0 23.5566)
(-13.244 -7.63655e-19 -3.64437)
(66.9982 2.14772e-17 -14.4213)
(12.4564 0 1.25652)
(-49.9295 1.23981e-17 11.2483)
(-27.0964 0 4.50502)
(-0.190145 -8.04818e-21 0.00102932)
(-0.199142 -2.09092e-20 -0.0140643)
(-0.205832 1.25657e-20 -0.0353504)
(-0.192756 -1.09958e-22 -0.0499087)
(-0.199998 -1.59306e-20 -0.0593759)
(-0.22418 0 -0.0604951)
(-0.244669 0 -0.0476132)
(-0.250055 3.85597e-20 -0.0200206)
(-0.243973 7.74654e-20 0.0144857)
(-0.234591 1.09408e-21 0.0438703)
(-0.22585 -3.86588e-20 0.0609943)
(-0.21766 3.74802e-20 0.0679372)
(-0.208415 -3.49179e-20 0.0700918)
(-0.196849 0 0.0713038)
(-0.182609 0 0.0731934)
(-0.166305 2.81804e-20 0.0758458)
(-0.149329 -9.93391e-20 0.0783788)
(-0.13313 -8.66355e-20 0.0797041)
(-0.118412 0 0.0792946)
(-0.105133 0 0.0772905)
(-0.0931515 0 0.0739953)
(-0.0825729 -2.53847e-23 0.0695156)
(-0.0734907 2.96669e-20 0.0639478)
(-0.0657755 -1.07191e-20 0.0577004)
(-0.0593089 -1.44053e-20 0.0514418)
(-0.054243 1.69668e-20 0.0457304)
(-0.0508685 -4.48942e-21 0.040764)
(-0.0492442 -1.51512e-21 0.0364479)
(-0.0490865 3.00902e-22 0.0326466)
(-0.0499518 0 0.029329)
(-0.0514976 -1.56423e-21 0.026562)
(-0.0534765 7.08037e-22 0.0243981)
(-0.0557021 -8.49874e-23 0.022847)
(-0.0579283 2.30974e-21 0.0218478)
(-0.0600062 8.34725e-21 0.0213368)
(-0.061816 0 0.0212042)
(-0.0634827 0 0.02138)
(-0.065088 7.02134e-21 0.0217378)
(-0.0669432 0 0.0222336)
(-0.0690925 -4.63132e-21 0.0227485)
(-0.071868 -2.17005e-21 0.0233161)
(-0.0751473 0 0.0238452)
(-0.0793405 1.82446e-20 0.0244553)
(-0.0841577 1.69179e-20 0.0250184)
(-0.09017 0 0.025697)
(-0.096803 3.26279e-20 0.0262709)
(-0.104852 3.96548e-20 0.0269976)
(-0.113371 0 0.0275824)
(-0.123589 -1.01053e-19 0.0284407)
(-0.134082 5.36614e-20 0.0291511)
(-0.146683 1.1042e-19 0.0303079)
(-0.159189 0 0.0312734)
(-0.174171 9.49211e-23 0.0328736)
(-0.18827 -1.94827e-19 0.0341957)
(-0.205105 0 0.0363908)
(-0.219757 0 0.0381516)
(-0.237328 5.61454e-20 0.0410177)
(-0.250872 3.80521e-20 0.0431354)
(-0.267706 -4.08657e-20 0.0465639)
(-0.278496 -4.76671e-21 0.0487731)
(-0.29389 2.66855e-20 0.0525315)
(-0.301551 -5.55367e-20 0.05445)
(-0.316461 -1.54065e-19 0.0582702)
(-0.322022 0 0.0596014)
(-0.338468 0 0.0635254)
(-0.343208 -2.34009e-19 0.0643526)
(-0.362923 0 0.0687686)
(-0.367529 0 0.069324)
(-0.392148 2.50176e-19 0.0745987)
(-0.397711 0 0.074981)
(-0.429266 -2.68096e-19 0.0814011)
(-0.435869 -3.54169e-22 0.0817827)
(-0.473393 3.20933e-19 0.0897919)
(-0.476647 0 0.0902843)
(-0.515748 0 0.0998324)
(-0.510966 0 0.099612)
(-0.550773 8.20336e-19 0.109848)
(-0.538432 0 0.107939)
(-0.580618 -7.5261e-19 0.118445)
(-0.560981 1.38326e-18 0.114776)
(-0.606332 0 0.125521)
(-0.580836 0 0.119579)
(-0.632915 0 0.130064)
(-0.60548 6.97377e-22 0.122165)
(-0.664085 9.1995e-20 0.133397)
(-0.631539 4.71355e-19 0.124981)
(-0.689406 6.69248e-19 0.136753)
(-0.654785 -7.65834e-19 0.127469)
(-0.709256 0 0.136389)
(-0.671772 -8.03502e-19 0.126915)
(-0.729488 0 0.132815)
(-0.622166 -6.22583e-19 0.122064)
(-0.856275 0 0.142594)
(-0.269576 0 0.0602095)
(-1.24775 0 0.252606)
(-0.291945 1.98877e-18 -0.0828631)
(0.935959 -4.07021e-18 0.0602991)
(-5.32419 0 0.615666)
(9.43794 2.39663e-18 -1.83145)
(-9.13096 -6.40842e-18 2.86625)
(-6.66731 -1.09581e-17 -0.7186)
(27.2154 -1.43369e-17 -3.56674)
(-45.9415 0 9.708)
(25.2538 0 -9.1476)
(28.3418 0 -0.367435)
(-77.9854 0 13.114)
(80.4255 3.78878e-18 -19.5503)
(-16.8698 2.83105e-20 10.646)
(-67.6212 1.09389e-16 7.42709)
(113.196 0 -24.4358)
(-65.6882 0 23.5795)
(-77.2362 -9.59472e-17 6.54848)
(138.017 0 -33.9521)
(35.944 -5.91076e-17 4.00577)
(-114.864 0 25.9207)
(-9.58913 1.54205e-18 -6.76062)
(73.4321 0 -15.9684)
(7.67574 0 3.70615)
(-56.3562 -1.15818e-17 12.9821)
(-29.0137 0 4.51406)
(-0.205456 0 0.0132126)
(-0.21881 9.86447e-21 -0.0100194)
(-0.211397 0 -0.018281)
(-0.186546 1.36541e-20 -0.0235417)
(-0.18835 2.96939e-20 -0.0344745)
(-0.210793 0 -0.0448333)
(-0.231426 -1.65678e-20 -0.0429925)
(-0.237261 0 -0.0231547)
(-0.230107 -1.10648e-21 0.00826885)
(-0.217375 7.07178e-20 0.0389143)
(-0.204167 0 0.0590429)
(-0.191454 0 0.0681289)
(-0.178735 3.28422e-20 0.0710053)
(-0.165273 0 0.0720921)
(-0.150663 0 0.0736977)
(-0.135117 0 0.0764235)
(-0.119582 4.63011e-20 0.0795668)
(-0.105293 4.04276e-20 0.0818086)
(-0.0928684 3.3979e-20 0.0822531)
(-0.0820486 0 0.0809049)
(-0.0724389 0 0.0781763)
(-0.0641701 1.85083e-20 0.0742356)
(-0.0575964 -1.40126e-20 0.069069)
(-0.052669 1.00816e-20 0.0629811)
(-0.0489907 1.35486e-20 0.0567109)
(-0.0463666 -1.69835e-20 0.0509858)
(-0.0450128 -5.29599e-22 0.0460922)
(-0.0451632 1.42497e-21 0.0418915)
(-0.0467128 -2.82992e-22 0.0381653)
(-0.0492573 0 0.0348528)
(-0.0524281 0 0.0320488)
(-0.0559655 -6.65859e-22 0.0298364)
(-0.0597113 0 0.02824)
(-0.0634299 -2.17205e-21 0.0271979)
(-0.0669823 -4.02995e-21 0.0266546)
(-0.0702262 5.6696e-21 0.0265028)
(-0.0732987 0 0.0266845)
(-0.0762551 -6.60201e-21 0.0270627)
(-0.0794362 -5.84823e-21 0.0275985)
(-0.0828472 7.14823e-23 0.0281518)
(-0.0868715 4.00255e-21 0.0287711)
(-0.0913236 0 0.0293424)
(-0.0966928 -8.60224e-21 0.0300157)
(-0.102591 0 0.0306256)
(-0.109724 0 0.0313732)
(-0.117371 0 0.031977)
(-0.126528 -1.62951e-23 0.0327573)
(-0.136023 0 0.0333409)
(-0.147377 4.744e-20 0.0342444)
(-0.158824 -1.0079e-19 0.0349347)
(-0.172631 -1.03763e-19 0.0361491)
(-0.18609 0 0.0370856)
(-0.202396 9.90933e-20 0.0387707)
(-0.217457 1.82973e-19 0.0400654)
(-0.235777 0 0.0424028)
(-0.2514 0 0.0441626)
(-0.270674 -5.27402e-20 0.0472672)
(-0.285205 -3.61942e-20 0.0494348)
(-0.304037 1.93397e-20 0.0532405)
(-0.315837 5.81661e-21 0.0555787)
(-0.333615 0 0.0598957)
(-0.342307 0 0.0620247)
(-0.360087 7.44368e-22 0.0665895)
(-0.366676 -8.8849e-20 0.068175)
(-0.386586 0 0.0730156)
(-0.392328 1.09566e-19 0.0740842)
(-0.41624 0 0.0795658)
(-0.421794 0 0.0802879)
(-0.451492 0 0.0867682)
(-0.457903 0 0.0872021)
(-0.495568 3.54977e-22 0.0949841)
(-0.502859 -3.68941e-22 0.0952871)
(-0.547685 -3.00252e-19 0.104865)
(-0.551388 0 0.105187)
(-0.599127 -3.61562e-19 0.11664)
(-0.594425 0 0.116259)
(-0.644314 -7.6923e-19 0.128865)
(-0.631513 7.56572e-19 0.126765)
(-0.685307 -7.02656e-19 0.139998)
(-0.664582 -6.47766e-19 0.135942)
(-0.723142 0 0.149695)
(-0.695742 4.29872e-19 0.143178)
(-0.762512 0 0.157021)
(-0.73208 -9.20985e-20 0.148277)
(-0.806558 8.39041e-20 0.16287)
(-0.769664 -4.41567e-19 0.152923)
(-0.844098 0 0.167864)
(-0.803775 1.43116e-18 0.15664)
(-0.874438 0 0.168588)
(-0.82988 -7.4707e-19 0.157413)
(-0.903178 0 0.164723)
(-0.783498 -5.79613e-19 0.154697)
(-1.04602 0 0.170974)
(-0.403914 -5.69969e-19 0.091435)
(-1.49508 -2.31854e-19 0.301248)
(-0.365484 -1.86109e-18 -0.112157)
(0.766684 3.80851e-18 0.177247)
(-5.70387 0 0.743233)
(10.0703 -4.49511e-18 -1.91791)
(-10.4743 1.19663e-17 3.67031)
(-6.07626 0 -1.52856)
(28.3525 1.34084e-17 -3.15578)
(-49.7737 0 10.5817)
(29.2441 0 -11.2276)
(26.9764 -4.60751e-17 1.63172)
(-81.3661 0 12.9515)
(87.283 0 -21.9138)
(-24.7235 3.27214e-17 14.076)
(-65.5423 -1.0271e-16 4.97226)
(120.814 3.57187e-17 -26.1188)
(-79.599 0 29.506)
(-72.7858 0 2.4793)
(149.825 0 -37.8139)
(24.8192 0 9.81877)
(-119.248 -4.33429e-17 27.3765)
(-5.62458 -7.7399e-19 -10.2812)
(77.448 0 -16.9566)
(1.32998 0 6.67946)
(-61.4439 0 14.3271)
(-30.2924 0 4.42716)
(-0.224556 -7.04268e-21 -0.0247308)
(-0.233232 0 -0.0377061)
(-0.207013 -1.15067e-20 -0.00487071)
(-0.192531 0 0.00188003)
(-0.19857 -1.3822e-20 -0.0102995)
(-0.215106 0 -0.0273644)
(-0.226884 1.55717e-20 -0.0338693)
(-0.227067 -3.11164e-20 -0.0216338)
(-0.21811 -6.4314e-20 0.00496479)
(-0.204905 -1.15415e-21 0.0335342)
(-0.190289 0 0.0545922)
(-0.174796 0 0.0656592)
(-0.158496 0 0.0701608)
(-0.141651 0 0.0721661)
(-0.124609 0 0.074152)
(-0.107746 0 0.0771092)
(-0.0916807 -4.14021e-20 0.0807142)
(-0.0773198 3.63295e-20 0.0836961)
(-0.0652637 -3.19268e-20 0.0848687)
(-0.0552605 0 0.0840189)