/*--------------------------------*- C++ -*----------------------------------*\
| =========                 |                                                 |
| \\      /  F ield         | OpenFOAM: The Open Source CFD Toolbox           |
|  \\    /   O peration     | Version:  2412                                  |
|   \\  /    A nd           | Website:  www.openfoam.com                      |
|    \\/     M anipulation  |                                                 |
\*---------------------------------------------------------------------------*/
FoamFile
{
    version     2.0;
    format      ascii;
    arch        "LSB;label=32;scalar=64";
    class       volVectorField;
    location    "0.485";
    object      ddtCorrDdt0(U);
}
// * * * * * * * * * * * * * * * * * * * * * * * * * * * * * * * * * * * * * //

dimensions      [0 1 -2 0 0 0 0];

internalField   nonuniform List<vector> 
12600
(
(0.164596 -7.61673e-22 0.00523464)
(0.0350589 -8.63924e-22 0.00592549)
(0.0176392 -8.74321e-22 0.00309486)
(0.00277789 0 0.000538369)
(-0.00765343 -8.33703e-22 0.000485905)
(-0.0126222 -8.19126e-22 0.000963938)
(-0.0153009 0 0.00137435)
(-0.0167821 0 0.00202653)
(-0.0175181 3.66088e-21 0.00250587)
(-0.017742 0 0.00280643)
(-0.0175293 -1.95967e-21 0.0029755)
(-0.0169582 -1.86236e-21 0.00304743)
(-0.0161324 1.68173e-21 0.00305256)
(-0.0151656 0 0.00301653)
(-0.0141678 1.32106e-21 0.00295968)
(-0.0132287 0 0.00289334)
(-0.0123792 -4.07054e-21 0.00281261)
(-0.0115687 0 0.00270176)
(-0.010715 1.5839e-21 0.00255511)
(-0.00978376 1.52608e-21 0.00238746)
(-0.00882349 -1.52731e-21 0.00222696)
(-0.00793137 -2.84074e-24 0.00210072)
(-0.00718355 0 0.00202113)
(-0.00655654 2.17464e-21 0.0019752)
(-0.00591732 0 0.00193094)
(-0.00506994 0 0.00185002)
(-0.00384142 5.66662e-22 0.00170192)
(-0.00213987 0 0.00147065)
(-3.34103e-06 -1.05249e-24 0.00116113)
(0.00243098 8.92462e-22 0.000791352)
(0.00496875 1.31424e-21 0.000386484)
(0.00742387 1.63141e-21 -2.99114e-05)
(0.00962566 -1.92709e-21 -0.000433648)
(0.0114371 -4.60995e-21 -0.000803087)
(0.0127576 -5.58331e-21 -0.00111943)
(0.0135394 6.66425e-21 -0.00137005)
(0.0137421 0 -0.00153847)
(0.01335 -8.31583e-21 -0.00161227)
(0.0123652 0 -0.00158197)
(0.0108915 9.1977e-21 -0.00145978)
(0.00907695 0 -0.00126491)
(0.00709392 3.49317e-23 -0.00102275)
(0.00501971 0 -0.000742485)
(0.00296067 3.40394e-23 -0.000444873)
(0.000928703 1.50518e-20 -0.000134249)
(-0.000992384 -1.41095e-20 0.000167315)
(-0.00284624 1.33212e-20 0.000462871)
(-0.00463063 0 0.000745232)
(-0.00645761 0 0.00103122)
(-0.00835975 1.0344e-20 0.00132454)
(-0.0104445 1.84539e-20 0.00164676)
(-0.0127067 1.55828e-20 0.00200191)
(-0.015147 6.7915e-23 0.00239683)
(-0.0176642 9.2598e-21 0.00282249)
(-0.0201119 0 0.00325776)
(-0.022364 -3.54749e-21 0.00368632)
(-0.0242082 -1.16663e-21 0.00406589)
(-0.0256401 4.77725e-22 0.00439456)
(-0.0264745 0 0.00462478)
(-0.0269503 0 0.00479523)
(-0.0269497 0 0.00486844)
(-0.0269102 -8.84622e-21 0.00492442)
(-0.026711 0 0.00493151)
(-0.0267753 0 0.00497606)
(-0.0269215 2.84849e-20 0.0050228)
(-0.0273077 0 0.00511318)
(-0.0278894 0 0.00523985)
(-0.028295 0 0.00534202)
(-0.0291356 -3.29688e-20 0.0055331)
(-0.0291021 3.0823e-20 0.00556967)
(-0.0301064 2.97311e-20 0.00580694)
(-0.0293482 3.22037e-23 0.00571357)
(-0.0307104 -2.3009e-20 0.00601185)
(-0.0294673 0 0.00579854)
(-0.0319133 1.49544e-20 0.0062461)
(-0.0312711 0 0.00605924)
(-0.035947 0 0.00681927)
(-0.0376456 0 0.00696444)
(-0.0449867 -2.63293e-23 0.00816219)
(-0.0491075 6.44463e-20 0.00878297)
(-0.0566357 7.88655e-20 0.0101435)
(-0.0602504 -1.03573e-19 0.01088)
(-0.0639662 -1.10712e-19 0.0117538)
(-0.06421 0 0.0120296)
(-0.0624979 0 0.0119496)
(-0.0553212 1.95814e-19 0.0107835)
(-0.0492061 -2.92324e-19 0.00974498)
(-0.0393035 2.40056e-19 0.00791404)
(-0.0432182 8.29844e-20 0.00862637)
(-0.0441535 0 0.00876784)
(-0.0634237 -1.07725e-19 0.0123719)
(-0.0625152 5.11916e-20 0.0121855)
(-0.075813 -4.56089e-20 0.0147337)
(-0.0712741 7.78589e-20 0.0139373)
(-0.0824516 0 0.0160988)
(-0.0856617 0 0.0166604)
(-0.120501 0 0.023334)
(-0.142901 0 0.0276837)
(-0.103339 0 0.0202823)
(-0.0587424 0 0.0117028)
(-0.0629387 -2.14606e-21 0.0123238)
(-0.218216 5.64412e-19 0.0431185)
(-0.320734 -2.04992e-19 0.0612914)
(-0.38782 0 0.0676834)
(0.651285 0 -0.128147)
(2.27566 0 -0.428408)
(1.90875 1.2653e-18 -0.348322)
(-0.680271 1.7845e-18 0.102894)
(-3.10294 -1.16261e-18 0.608225)
(-3.75301 0 0.710208)
(-2.53706 5.95112e-19 0.471262)
(-1.23936 0 0.225575)
(0.114047 -1.69752e-19 -0.0281829)
(0.355113 3.69746e-19 -0.0651665)
(0.154408 4.43335e-20 -0.0252351)
(-0.276447 3.73094e-19 0.0572443)
(-0.918218 -2.44502e-19 0.18004)
(-1.08484 -1.24178e-22 0.207431)
(-0.965688 -3.17119e-19 0.187281)
(-1.21481 0 0.234349)
(0.177189 7.69265e-22 -0.00638521)
(0.109841 0 0.0136637)
(0.0732807 8.85047e-22 0.0135521)
(0.0385758 0 0.00651203)
(0.00954413 8.44798e-22 0.00391847)
(-0.00998333 1.65017e-21 0.0039122)
(-0.0227548 8.23696e-22 0.00463033)
(-0.0313291 0 0.00586854)
(-0.0372878 5.41831e-24 0.00693267)
(-0.0412081 1.96708e-21 0.00768311)
(-0.0434949 -1.97437e-21 0.00815964)
(-0.0445045 -1.86811e-21 0.00843672)
(-0.0445816 1.69762e-21 0.00859)
(-0.0440498 -1.52288e-21 0.00867494)
(-0.0431936 -2.70457e-21 0.00872408)
(-0.0422183 0 0.00873886)
(-0.0411694 -7.24443e-24 0.00867667)
(-0.0399287 -1.77192e-21 0.00848665)
(-0.0383766 -1.60694e-21 0.00817874)
(-0.0365628 0 0.00783211)
(-0.0347339 0 0.0075471)
(-0.0332015 -1.51985e-21 0.00739425)
(-0.0321557 0 0.00738043)
(-0.0315001 -1.10452e-21 0.00743665)
(-0.0308866 1.65405e-21 0.00745987)
(-0.0298502 0 0.00735549)
(-0.0280103 -6.89747e-22 0.00706846)
(-0.0251735 0 0.00658772)
(-0.0214257 -3.80178e-22 0.00594928)
(-0.0170281 -1.81536e-21 0.00520053)
(-0.0123296 -2.65566e-21 0.00438644)
(-0.00762553 -1.65124e-21 0.00353552)
(-0.0031747 1.94999e-21 0.00267918)
(0.000829229 9.3016e-21 0.00184569)
(0.00423656 1.12561e-20 0.00106522)
(0.00695537 0 0.000365628)
(0.00883143 0 -0.000197164)
(0.00973313 7.13474e-23 -0.000579257)
(0.00954227 0 -0.000744861)
(0.00838689 -9.28544e-21 -0.000722859)
(0.00646021 0 -0.000541863)
(0.00402171 -1.81759e-20 -0.000241396)
(0.00111035 0 0.000183496)
(-0.00206681 -1.61557e-20 0.000684102)
(-0.00551854 0 0.00125843)
(-0.00896554 1.42074e-20 0.00183724)
(-0.0124704 0 0.00243259)
(-0.0158878 0 0.00300932)
(-0.019423 -1.13659e-20 0.00360637)
(-0.023025 0 0.00421644)
(-0.0269585 0 0.00489127)
(-0.0311678 0 0.00563519)
(-0.0357841 -1.25455e-20 0.00646729)
(-0.0406445 -1.87227e-20 0.00738277)
(-0.0456252 0 0.00833477)
(-0.0505546 0 0.00932596)
(-0.0550903 1.26269e-21 0.0102392)
(-0.0592576 -4.77738e-22 0.0111242)
(-0.0625596 0 0.0118078)
(-0.0654715 0 0.0124478)
(-0.0674392 0 0.0128453)
(-0.069402 0 0.013275)
(-0.0707346 -1.07864e-20 0.0135198)
(-0.0725237 1.20652e-20 0.0138982)
(-0.0740853 -2.83234e-20 0.0141866)
(-0.0761154 0 0.0146128)
(-0.0783778 0 0.015065)
(-0.0803601 0 0.0154809)
(-0.0835288 -3.94325e-23 0.0161475)
(-0.0848215 -3.05283e-20 0.0163991)
(-0.0891232 -2.942e-20 0.0173204)
(-0.0890781 5.22609e-20 0.0172425)
(-0.0949708 1.42272e-22 0.0184991)
(-0.0936407 -1.91521e-20 0.0180637)
(-0.102209 -1.47417e-20 0.0198439)
(-0.100976 0 0.0192891)
(-0.113565 0 0.0218373)
(-0.115117 0 0.0217375)
(-0.131532 4.07122e-20 0.0250748)
(-0.13623 0 0.0257088)
(-0.152078 0 0.0291222)
(-0.156996 1.01369e-19 0.0300902)
(-0.167405 1.08241e-19 0.0325328)
(-0.170347 0 0.0331678)
(-0.172351 0 0.0336194)
(-0.160283 0 0.0310566)
(-0.15217 2.84909e-19 0.0293585)
(-0.133113 1.39757e-22 0.0254953)
(-0.150672 8.07108e-20 0.0291287)
(-0.157818 -6.6851e-20 0.030384)
(-0.212879 1.04292e-19 0.0412862)
(-0.209496 4.95478e-20 0.0401333)
(-0.248309 8.82943e-20 0.0480871)
(-0.23698 0 0.0453783)
(-0.273828 0 0.0532663)
(-0.288091 0 0.0555673)
(-0.392431 0 0.0767822)
(-0.447544 -3.5115e-20 0.0855269)
(-0.332816 0 0.0625354)
(-0.213883 0 0.0400033)
(-0.256022 -1.89711e-21 0.051227)
(-0.693262 -2.70283e-19 0.13814)
(-0.936754 3.91986e-19 0.182172)
(-0.968602 -5.24582e-19 0.171863)
(2.09932 0 -0.451999)
(6.42476 0 -1.25566)
(4.82513 0 -0.876125)
(-2.69063 -8.47471e-19 0.670054)
(-9.28667 1.10646e-18 1.85521)
(-10.7659 0 2.05911)
(-7.13633 -1.13462e-18 1.32049)
(-3.41552 3.137e-19 0.607578)
(0.372846 3.21436e-19 -0.105781)
(0.820369 0 -0.157944)
(0.254733 0 -0.0377986)
(-1.12584 3.41228e-19 0.232522)
(-2.86774 0 0.568225)
(-3.31038 3.84276e-19 0.634452)
(-3.06545 2.99406e-19 0.592633)
(-3.76305 0 0.727397)
(0.169013 0 0.0229487)
(0.139358 0 0.0305015)
(0.112203 9.13609e-22 0.0289052)
(0.0813543 0 0.0201951)
(0.0484114 0 0.0135778)
(0.0192631 -7.70575e-22 0.0103782)
(-0.00397714 -7.801e-22 0.00944774)
(-0.0219054 0 0.00968186)
(-0.0355523 3.28524e-23 0.0103437)
(-0.045625 -1.86354e-21 0.0110038)
(-0.0527486 3.7309e-21 0.011532)
(-0.0575244 1.77001e-21 0.011969)
(-0.0605445 -2.51618e-23 0.0123892)
(-0.0623409 1.44302e-21 0.0128265)
(-0.0633524 1.29255e-21 0.0132704)
(-0.0638967 -1.15059e-21 0.0136592)
(-0.0640734 1.96532e-21 0.0138712)
(-0.0637501 1.67911e-21 0.013817)
(-0.0627964 0 0.0135644)
(-0.061335 0 0.0133073)
(-0.0597733 -1.46797e-21 0.0132326)
(-0.0585914 -1.42842e-21 0.0134223)
(-0.0580691 0 0.013818)
(-0.0580565 0 0.0142434)
(-0.0580547 -1.56728e-21 0.0145161)
(-0.0574283 0 0.014524)
(-0.0556985 1.35321e-21 0.0142512)
(-0.0526555 -1.98009e-22 0.0137532)
(-0.048467 0 0.0131309)
(-0.0434981 8.63662e-22 0.0124533)
(-0.0381942 1.25535e-21 0.0117442)
(-0.0328812 0 0.0109827)
(-0.0278145 -1.82015e-21 0.0101573)
(-0.0231526 -4.39335e-21 0.00926024)
(-0.0190134 -1.01376e-23 0.00830536)
(-0.0154748 0 0.00732809)
(-0.0127545 0 0.0064308)
(-0.0110497 7.8883e-21 0.00568961)
(-0.0105644 0 0.00516355)
(-0.0111503 0 0.00480756)
(-0.0126264 0 0.00461472)
(-0.0147165 0 0.00457316)
(-0.0174865 0 0.0047346)
(-0.0206831 0 0.00503499)
(-0.0243967 0 0.00548533)
(-0.0281977 -1.34129e-20 0.00596925)
(-0.0322176 1.25197e-20 0.00651765)
(-0.0361717 0 0.00705809)
(-0.0403731 1.07532e-20 0.00764626)
(-0.0446461 0 0.00824742)
(-0.0494049 0 0.00893364)
(-0.0544733 -1.4913e-20 0.00969806)
(-0.0601243 0 0.0105716)
(-0.0660854 8.92544e-21 0.0115686)
(-0.0723325 -6.0601e-21 0.0126348)
(-0.0786409 0 0.0138329)
(-0.0846681 -1.19351e-21 0.0149852)
(-0.0904783 0 0.0162378)
(-0.0953991 0 0.0172744)
(-0.100126 0 0.018406)
(-0.103738 7.25572e-21 0.0192043)
(-0.107614 8.29913e-21 0.0201692)
(-0.110588 4.08996e-24 0.0207928)
(-0.114363 -2.28084e-20 0.0216825)
(-0.117613 3.97467e-24 0.0223117)
(-0.121662 0 0.0232054)
(-0.125819 0 0.0240318)
(-0.129783 -2.9595e-20 0.0248817)
(-0.135399 -2.06224e-23 0.0260905)
(-0.138527 0 0.0267239)
(-0.146258 0 0.0284802)
(-0.147668 -2.46017e-20 0.0286486)
(-0.158391 1.31234e-22 0.0311315)
(-0.157972 1.31551e-22 0.0307198)
(-0.173171 0 0.0341674)
(-0.172347 0 0.0333316)
(-0.193414 -2.25315e-20 0.0378924)
(-0.195216 3.17146e-20 0.0371724)
(-0.220976 0 0.0424977)
(-0.225551 0 0.0421856)
(-0.249666 0 0.0472649)
(-0.2544 0 0.0475105)
(-0.271678 0 0.0516174)
(-0.276034 0 0.0524494)
(-0.282465 0 0.0540841)
(-0.266576 0 0.0509186)
(-0.259583 -2.68263e-19 0.0498903)
(-0.236437 -1.09897e-19 0.0457626)
(-0.271466 -7.58578e-20 0.0537451)
(-0.289073 6.28186e-20 0.0571138)
(-0.379469 -9.78141e-20 0.0750438)
(-0.375372 -4.65401e-20 0.072538)
(-0.440681 -4.14964e-20 0.0862243)
(-0.425416 0 0.0817056)
(-0.490684 0 0.0967329)
(-0.518849 0 0.101887)
(-0.69053 0 0.13777)
(-0.766297 3.29434e-20 0.145528)
(-0.580934 0 0.106866)
(-0.404169 0 0.0756935)
(-0.511326 1.77869e-21 0.108557)
(-1.20129 0 0.244721)
(-1.52707 -1.83532e-19 0.296463)
(-1.37909 4.91593e-19 0.213895)
(3.63093 0 -0.86215)
(10.1171 0 -1.99083)
(6.86885 0 -1.11283)
(-5.40449 -7.92444e-19 1.1661)
(-15.4582 0 3.15022)
(-17.3271 8.65894e-19 3.26518)
(-11.329 -3.27409e-21 2.00077)
(-5.34428 -2.93606e-19 0.866526)
(0.633156 -2.99911e-19 -0.217991)
(1.02766 0 -0.189056)
(0.163005 -3.74e-20 0.010744)
(-2.27246 -3.19205e-19 0.501102)
(-4.92422 -2.15717e-19 0.993876)
(-5.61812 0 1.07487)
(-5.35385 -2.79953e-19 1.03977)
(-6.43017 0 1.24681)
(0.159568 0 0.043386)
(0.143929 0 0.042259)
(0.128487 -8.63726e-22 0.0402558)
(0.109802 0 0.0335813)
(0.0853541 7.87728e-22 0.0262168)
(0.0581319 -1.51362e-21 0.0205341)
(0.0315452 0 0.0169618)
(0.00755362 1.63879e-21 0.0151167)
(-0.0129838 -1.69682e-21 0.0143556)
(-0.0297843 -1.79675e-21 0.014095)
(-0.0429643 -1.75917e-21 0.0140696)
(-0.0529534 1.62282e-21 0.0142695)
(-0.060396 -1.49745e-21 0.0147307)
(-0.065948 2.67288e-21 0.0154128)
(-0.0701456 0 0.0162158)
(-0.0734119 2.17321e-21 0.0169903)
(-0.0759727 0 0.0175184)
(-0.0777542 0 0.0176567)
(-0.0786066 0 0.0175382)
(-0.0786563 -1.38449e-21 0.0174914)
(-0.0783965 -1.18544e-23 0.0177898)
(-0.078434 -2.12943e-25 0.0184998)
(-0.0791544 -1.19336e-21 0.0194576)
(-0.0804091 0 0.0203459)
(-0.0816015 0 0.0208949)
(-0.0819643 0 0.0209968)
(-0.0809535 -1.34682e-21 0.0207111)
(-0.0783645 -1.74546e-23 0.0201915)
(-0.0744468 0 0.0196209)
(-0.0696622 0 0.0190886)
(-0.0645442 0 0.0185853)
(-0.0594448 0 0.0180279)
(-0.0546078 3.42777e-21 0.0173557)
(-0.0501477 0 0.0165246)
(-0.0461431 -5.014e-21 0.0155368)
(-0.0426453 0 0.0144432)
(-0.0399093 0 0.0133946)
(-0.0381577 -7.36768e-21 0.0124896)
(-0.0376474 0 0.0117939)
(-0.0381896 0 0.0112326)
(-0.0396225 8.3653e-21 0.0108201)
(-0.0416464 -1.63117e-20 0.0105736)
(-0.0444316 0 0.010587)
(-0.047674 -1.45544e-20 0.0107742)
(-0.051563 0 0.0111555)
(-0.0555324 2.53373e-20 0.0115688)
(-0.059819 -2.27722e-23 0.0120742)
(-0.0640025 0 0.0125675)
(-0.0685411 0 0.0131321)
(-0.0731217 -9.18599e-21 0.0137088)
(-0.0783361 -1.6514e-20 0.0143966)
(-0.0838513 2.81843e-20 0.0151724)
(-0.09011 0 0.0160813)
(-0.0966849 8.57897e-21 0.017146)
(-0.103695 5.7205e-21 0.0183059)
(-0.110815 3.48053e-21 0.019669)
(-0.117765 1.22539e-21 0.0209995)
(-0.124609 0 0.0225283)
(-0.130576 0 0.0238074)
(-0.136556 -5.19993e-21 0.0253004)
(-0.141322 -1.36401e-20 0.026364)
(-0.146683 -7.82751e-21 0.0277326)
(-0.150937 2.78555e-23 0.0286126)
(-0.156437 1.07639e-20 0.0299183)
(-0.161124 1.26006e-20 0.0308015)
(-0.167095 0 0.0321196)
(-0.172957 0 0.0332617)
(-0.178957 2.78897e-20 0.0345479)
(-0.186835 5.82146e-20 0.0362427)
(-0.191994 0 0.0372837)
(-0.202956 2.60153e-20 0.0397978)
(-0.206167 2.30715e-20 0.0402492)
(-0.221574 1.99268e-20 0.0438688)
(-0.222557 3.36871e-20 0.0435338)
(-0.24438 0 0.0485885)
(-0.244508 0 0.04756)
(-0.274297 2.12027e-20 0.0541892)
(-0.276717 -5.97989e-20 0.0529934)
(-0.312433 -3.64628e-20 0.0605645)
(-0.317001 0 0.0595232)
(-0.35062 0 0.0667508)
(-0.355216 0 0.0664886)
(-0.381261 0 0.0727692)
(-0.386991 0 0.0737387)
(-0.399783 0 0.0766927)
(-0.381368 -1.68862e-19 0.072858)
(-0.378822 -1.72314e-22 0.0728663)
(-0.355681 1.03477e-19 0.0691785)
(-0.411154 0 0.0821078)
(-0.442022 5.89228e-20 0.0881424)
(-0.566568 4.58695e-20 0.112804)
(-0.563415 0 0.108944)
(-0.656285 -3.90405e-20 0.128585)
(-0.640083 -6.74015e-20 0.123041)
(-0.736471 0 0.145774)
(-0.780945 0 0.15469)
(-1.0164 0 0.204469)
(-1.10147 3.0508e-20 0.207598)
(-0.852804 0 0.153715)
(-0.636937 0 0.119028)
(-0.830566 1.88475e-21 0.180367)
(-1.73488 2.3769e-19 0.361716)
(-2.08455 0 0.403588)
(-1.63575 0 0.191379)
(5.16321 0 -1.3169)
(13.2236 0 -2.62316)
(7.97973 0 -1.11529)
(-8.61207 -9.59345e-21 2.31996)
(-21.5091 0 4.47578)
(-23.3428 -8.10268e-19 4.35891)
(-15.0925 5.01546e-19 2.55829)
(-7.03489 0 1.0383)
(0.864647 1.34014e-22 -0.347827)
(0.950878 0 -0.166208)
(-0.109309 8.62842e-22 0.103587)
(-3.70865 0 0.836967)
(-7.04697 2.01689e-19 1.44331)
(-7.99092 0 1.53023)
(-7.81243 -2.61639e-19 1.521)
(-9.16711 0 1.78175)
(0.151315 0 0.0528304)
(0.14096 0 0.0484759)
(0.131785 0 0.0464248)
(0.122079 0 0.0421761)
(0.107881 -7.43615e-22 0.0364638)
(0.08902 -2.26263e-23 0.0308581)
(0.0672285 0 0.0262138)
(0.044314 -1.54692e-21 0.0227945)
(0.0218306 0 0.0203838)
(0.00109358 3.40808e-21 0.0186031)
(-0.0169806 0 0.0173174)
(-0.0320375 -1.53209e-21 0.0166346)
(-0.0443104 0 0.0166372)
(-0.054313 -2.52366e-21 0.0172048)
(-0.0624988 1.13897e-21 0.0181117)
(-0.0692793 -2.0394e-21 0.0191183)
(-0.0750283 1.74041e-21 0.0199031)
(-0.0798163 1.48389e-21 0.0202208)
(-0.0834698 0 0.0202348)
(-0.0860116 1.30734e-21 0.0204161)
(-0.0879012 1.3223e-21 0.0211378)
(-0.0898149 2.55137e-21 0.0224468)
(-0.0922902 1.12685e-21 0.0240565)
(-0.0952908 0 0.025478)
(-0.0982013 0 0.0263311)
(-0.100134 0 0.0265202)
(-0.100457 6.46865e-22 0.0262069)
(-0.0989416 1.93264e-22 0.0256693)
(-0.0958836 0 0.0251862)
(-0.0918238 0 0.0248687)
(-0.0873863 1.06423e-21 0.0246647)
(-0.0829684 0 0.024417)
(-0.0788206 -1.30632e-23 0.0240095)
(-0.0750312 -3.90034e-21 0.0233608)
(-0.0716518 4.73191e-21 0.0224644)
(-0.0687033 0 0.0213896)
(-0.0664647 0 0.0203365)
(-0.0651652 6.95378e-21 0.0194181)
(-0.065114 0 0.0186952)
(-0.0660802 0 0.0180508)
(-0.0679288 -7.89402e-21 0.0175221)
(-0.0703139 1.53918e-20 0.0171579)
(-0.073499 0 0.0170945)
(-0.0771139 1.37319e-20 0.0172196)
(-0.0814517 0 0.0175629)
(-0.0858067 -1.19477e-20 0.0179175)
(-0.0905387 -1.11349e-20 0.0183839)
(-0.0950768 0 0.0188275)
(-0.100052 -9.49281e-21 0.019368)
(-0.104993 8.6629e-21 0.0199195)
(-0.1107 3.11541e-20 0.0206091)
(-0.116654 -1.32973e-20 0.0213918)
(-0.123503 1.07695e-20 0.0223233)
(-0.130629 2.82634e-23 0.0234317)
(-0.138333 0 0.0246454)
(-0.146148 -3.28053e-21 0.026123)
(-0.153896 -1.15486e-21 0.0275638)
(-0.161603 -3.3836e-22 0.0293016)
(-0.168443 1.70091e-21 0.030747)
(-0.175468 4.8991e-21 0.0325472)
(-0.181178 6.40191e-21 0.0338189)
(-0.187803 -7.34087e-21 0.035572)
(-0.193103 9.01805e-21 0.0366771)
(-0.200131 0 0.0384077)
(-0.206013 0 0.0395208)
(-0.213773 1.22791e-20 0.0412807)
(-0.221096 0 0.042705)
(-0.229105 0 0.0444462)
(-0.238987 -2.73904e-20 0.0465879)
(-0.246277 0 0.0480621)
(-0.260189 -2.44765e-20 0.0513113)
(-0.265438 -4.34049e-20 0.0520859)
(-0.285264 0 0.0568729)
(-0.288011 -1.58117e-20 0.056666)
(-0.316279 0 0.0634391)
(-0.317772 0 0.0622492)
(-0.356324 -2.00934e-20 0.0711524)
(-0.359685 2.81589e-20 0.0694223)
(-0.405876 -4.22863e-23 0.0795087)
(-0.41072 0 0.0775476)
(-0.45526 0 0.0872593)
(-0.460146 0 0.0862333)
(-0.49731 -8.93248e-20 0.095105)
(-0.504793 9.7566e-20 0.095935)
(-0.526681 0 0.100578)
(-0.507425 3.17023e-19 0.0962848)
(-0.513449 1.18492e-19 0.0983929)
(-0.494187 -1.94382e-19 0.0964316)
(-0.573197 -6.7197e-20 0.115633)
(-0.619515 -1.10634e-19 0.12506)
(-0.777273 0 0.156315)
(-0.777109 0 0.150886)
(-0.898899 3.66069e-20 0.17704)
(-0.885008 6.31902e-20 0.17093)
(-1.01502 -4.71518e-20 0.202458)
(-1.07778 0 0.215515)
(-1.37236 0 0.278989)
(-1.45768 -2.85837e-20 0.272224)
(-1.15605 -6.25679e-20 0.204475)
(-0.920694 0 0.172949)
(-1.21453 -1.76477e-21 0.271187)
(-2.28969 -2.22571e-19 0.48703)
(-2.60992 0 0.49913)
(-1.76914 0 0.110486)
(6.59514 0 -1.80928)
(15.6324 0 -3.11244)
(8.18121 0 -0.83245)
(-12.4454 7.0302e-19 2.95701)
(-27.3737 0 5.78528)
(-28.7447 0 5.28201)
(-18.4287 0 2.96734)
(-8.51103 2.52263e-19 1.11033)
(1.04024 1.30918e-19 -0.488396)
(0.578338 0 -0.0750747)
(-0.536852 3.18975e-20 0.246212)
(-5.40758 0 1.24757)
(-9.18642 1.88315e-19 1.90703)
(-10.401 0 1.99414)
(-10.4086 2.44511e-19 2.03284)
(-11.914 0 2.32012)
(0.144144 8.60164e-22 0.0589223)
(0.136692 8.46919e-22 0.0535016)
(0.129913 -7.97542e-22 0.0505299)
(0.124321 -7.57685e-22 0.0471748)
(0.116819 0 0.0429977)
(0.105933 7.02114e-22 0.0386543)
(0.0917404 0 0.0345709)
(0.0748223 -1.58732e-21 0.0309291)
(0.0559742 -1.63503e-21 0.0277353)
(0.0363099 -3.22993e-21 0.0247886)
(0.0171301 1.52525e-21 0.0221302)
(-0.000491833 -1.39634e-21 0.0201528)
(-0.0161216 0 0.0192059)
(-0.0298682 0 0.0192065)
(-0.0418653 -1.07383e-21 0.0198164)
(-0.0522483 1.05778e-23 0.0207517)
(-0.0614044 -1.67474e-23 0.0216346)
(-0.0696002 -3.23406e-24 0.022059)
(-0.0766769 0 0.0221307)
(-0.0824525 0 0.0224483)
(-0.0871787 0 0.0235104)
(-0.0914672 -2.39984e-21 0.0253755)
(-0.0960185 -1.04043e-21 0.0276506)
(-0.101057 0 0.0296493)
(-0.106085 0 0.0308342)
(-0.110122 -9.7158e-22 0.031105)
(-0.112397 0 0.0307433)
(-0.112591 0 0.0301739)
(-0.110984 0 0.0297874)
(-0.108162 0 0.0297216)
(-0.104837 -2.666e-23 0.0298746)
(-0.101479 0 0.0300028)
(-0.0983768 -9.66178e-24 0.0299276)
(-0.0956181 3.67666e-21 0.0295297)
(-0.0932403 5.13376e-24 0.0287946)
(-0.0912194 0 0.0278112)
(-0.0898395 0 0.0268323)
(-0.0893238 0 0.0259843)
(-0.0900509 0 0.0253187)
(-0.0917581 0 0.0246669)
(-0.0943509 0 0.0240891)
(-0.0974108 0 0.0236661)
(-0.10129 -1.37106e-20 0.0235789)
(-0.105541 -1.28803e-20 0.0236847)
(-0.110576 0 0.0240225)
(-0.115546 -1.12322e-20 0.02434)
(-0.120951 0 0.0247861)
(-0.126044 0 0.0251963)
(-0.131654 1.78792e-20 0.0257331)
(-0.13712 0 0.026282)
(-0.143478 -1.46742e-20 0.0269998)
(-0.149996 0 0.0278164)
(-0.157559 -2.02936e-20 0.0287951)
(-0.165324 1.71473e-23 0.0299704)
(-0.173809 0 0.0312524)
(-0.182365 0 0.0328569)
(-0.190954 0 0.0344068)
(-0.199536 6.1967e-22 0.0363547)
(-0.207258 -3.16846e-21 0.0379533)
(-0.215316 -4.54973e-21 0.040061)
(-0.221943 -5.91188e-21 0.0415251)
(-0.229804 1.3792e-20 0.0436713)
(-0.23608 8.39992e-21 0.0449875)
(-0.244599 0 0.04716)
(-0.251565 0 0.0484872)
(-0.261099 -1.81445e-23 0.0507096)
(-0.269732 0 0.0523945)
(-0.279798 0 0.0546162)
(-0.29149 -2.56872e-20 0.0571795)
(-0.301045 0 0.0591166)
(-0.317675 0 0.0630805)
(-0.325206 4.07893e-20 0.0642151)
(-0.349227 -1.75388e-20 0.0701759)
(-0.354089 0 0.070136)
(-0.388655 0 0.0786803)
(-0.391908 0 0.0773533)
(-0.439287 1.88708e-20 0.0886547)
(-0.443916 0 0.0863711)
(-0.501143 6.44555e-20 0.0992011)
(-0.506608 -4.92527e-20 0.0962801)
(-0.563588 0 0.108888)
(-0.569279 0 0.107101)
(-0.620114 8.38211e-20 0.119146)
(-0.629834 -1.41526e-22 0.119787)
(-0.664148 8.19008e-20 0.126701)
(-0.645989 -1.48682e-19 0.122235)
(-0.665499 1.11402e-19 0.127538)
(-0.653787 9.12203e-20 0.128256)
(-0.759803 6.30035e-20 0.154753)
(-0.823258 -1.13535e-22 0.167901)
(-1.01393 0 0.205613)
(-1.01908 -3.83612e-20 0.198636)
(-1.1717 0 0.232074)
(-1.1635 0 0.225452)
(-1.32978 4.41725e-20 0.266563)
(-1.41206 0 0.284758)
(-1.7609 0 0.360328)
(-1.83949 0 0.341009)
(-1.49854 5.85825e-20 0.261122)
(-1.26359 0 0.239215)
(-1.66426 -2.04534e-21 0.378163)
(-2.86302 0 0.617748)
(-3.10894 0 0.58254)
(-1.82319 0 -0.0149439)
(7.82149 0 -2.30599)
(17.2429 0 -3.42968)
(7.43603 8.89421e-19 -0.276905)
(-16.4999 6.55872e-19 4.61774)
(-32.9051 -8.49545e-19 7.07213)
(-33.4658 0 6.04433)
(-21.3445 0 3.22707)
(-9.79746 -4.70126e-19 1.09149)
(1.13976 0 -0.63495)
(-0.0926261 2.71796e-19 0.0796812)
(-1.08648 0 0.430563)
(-7.33003 -2.58438e-19 1.72507)
(-11.2854 -1.75979e-19 2.37413)
(-12.8037 0 2.46121)
(-13.0952 2.28407e-19 2.56522)
(-14.6013 0 2.84749)
(0.1375 -8.10028e-22 0.06338)
(0.132078 -1.6003e-21 0.0579687)
(0.126401 7.51241e-22 0.0541113)
(0.122252 -2.53914e-23 0.0506583)
(0.117823 -7.24896e-22 0.0471827)
(0.111764 0 0.0438457)
(0.103585 0 0.0407112)
(0.0931152 1.49475e-21 0.0377048)
(0.0802725 3.0969e-21 0.0347076)
(0.0653228 1.31818e-23 0.0315066)
(0.0490644 -1.43616e-21 0.0280826)
(0.0325972 1.31477e-21 0.0250054)
(0.0167152 -1.1868e-21 0.0230094)
(0.00160459 0 0.0222045)
(-0.0125777 0 0.0221731)
(-0.0255051 8.91079e-22 0.0226602)
(-0.037314 -3.04259e-21 0.023387)
(-0.0484213 -2.62766e-21 0.0237952)
(-0.0587809 0 0.0238064)
(-0.0680028 0 0.0240807)
(-0.0759599 0 0.0252636)
(-0.0829553 1.09882e-23 0.0274913)
(-0.089723 1.94312e-21 0.0303405)
(-0.0968557 -7.77667e-22 0.0329277)
(-0.104179 -1.21556e-21 0.034481)
(-0.11071 1.8233e-21 0.0348383)
(-0.115496 -5.74107e-22 0.0344004)
(-0.118037 -1.76306e-22 0.0337608)
(-0.118507 2.47803e-22 0.033444)
(-0.117472 0 0.0336284)
(-0.115707 -9.19535e-22 0.0341613)
(-0.113776 1.13293e-21 0.0347032)
(-0.112052 -1.40928e-21 0.0350056)
(-0.110658 -3.47113e-21 0.0349075)
(-0.10964 -8.41565e-21 0.0343834)
(-0.108906 0 0.0335376)
(-0.108719 0 0.0326819)
(-0.109277 -6.08009e-21 0.0319618)
(-0.111052 0 0.0314202)
(-0.113765 6.83323e-21 0.0308259)
(-0.117378 6.91094e-21 0.0302577)
(-0.121371 0 0.0298262)
(-0.12618 2.57494e-20 0.0297623)
(-0.131275 1.21212e-20 0.0298879)
(-0.137206 0 0.030252)
(-0.142979 1.05691e-20 0.0305545)
(-0.149259 9.83226e-21 0.030999)
(-0.155093 0 0.0313908)
(-0.161532 -1.68114e-20 0.0319419)
(-0.167689 7.68733e-21 0.0325071)
(-0.174867 1.3812e-20 0.0332756)
(-0.18209 0 0.0341517)
(-0.190514 -6.14638e-24 0.035202)
(-0.19904 -1.44174e-20 0.0364712)
(-0.208427 0 0.0378397)
(-0.21782 0 0.0395925)
(-0.227339 1.12206e-21 0.0412558)
(-0.236868 -2.83188e-22 0.0434263)
(-0.245537 2.9119e-21 0.0451687)
(-0.254692 4.27687e-21 0.0475929)
(-0.26227 5.55684e-21 0.0492326)
(-0.271419 -6.47135e-21 0.0517874)
(-0.278664 -1.57433e-20 0.0532986)
(-0.288724 0 0.0559393)
(-0.296719 0 0.0574682)
(-0.30809 -2.16435e-20 0.0601891)
(-0.317936 0 0.0621265)
(-0.330162 0 0.0648692)
(-0.343518 2.41258e-20 0.0678502)
(-0.355504 0 0.0702871)
(-0.374671 -2.15418e-20 0.0749746)
(-0.384737 -2.4162e-24 0.0764991)
(-0.412785 1.64657e-20 0.0836795)
(-0.420092 0 0.0838232)
(-0.460871 0 0.0942456)
(-0.466254 0 0.0927713)
(-0.522596 1.78702e-20 0.106664)
(-0.528839 0 0.10377)
(-0.597776 -3.02497e-20 0.119656)
(-0.604296 9.2327e-20 0.115706)
(-0.675409 0 0.131715)
(-0.682549 0 0.129151)
(-0.749856 0 0.145041)
(-0.762476 -1.46921e-22 0.145428)
(-0.813181 -7.67799e-20 0.15532)
(-0.798302 -1.39243e-19 0.150974)
(-0.836924 -1.0441e-19 0.160744)
(-0.836046 8.57685e-20 0.165032)
(-0.972855 0 0.200029)
(-1.05452 4.87277e-20 0.217078)
(-1.27865 0 0.26138)
(-1.2916 3.59317e-20 0.252786)
(-1.47766 0 0.294448)
(-1.4783 0 0.287342)
(-1.68358 0 0.339516)
(-1.78588 -9.00829e-21 0.363535)
(-2.18421 -2.82157e-21 0.450315)
(-2.25279 0 0.412317)
(-1.88867 -5.4605e-20 0.326335)
(-1.67289 2.43857e-21 0.319835)
(-2.17935 1.91337e-21 0.503255)
(-3.45487 1.94378e-19 0.754188)
(-3.59612 0 0.653674)
(-1.8588 0 -0.182359)
(8.73303 0 -2.78142)
(17.9775 0 -3.54844)
(5.86647 -8.31705e-19 0.551572)
(-20.7383 1.63589e-20 6.78428)
(-38.097 1.58939e-18 8.29918)
(-37.466 0 6.62346)
(-23.8551 0 3.33652)
(-10.9215 2.18976e-19 0.986168)
(1.15456 0 -0.77977)
(-1.04855 -2.53993e-19 0.300797)
(-1.71519 0 0.650306)
(-9.42009 4.82401e-19 2.25871)
(-13.2802 0 2.82986)
(-15.1332 0 2.92049)
(-15.8058 -2.13368e-19 3.10578)
(-17.1515 0 3.34732)
(0.131143 0 0.0663673)
(0.127149 7.55067e-22 0.0614694)
(0.122334 0 0.0573365)
(0.118826 6.95355e-22 0.0536837)
(0.115537 1.40446e-21 0.0503909)
(0.111611 0 0.0475066)
(0.106738 -7.37684e-22 0.0449714)
(0.100662 0 0.0426615)
(0.0929758 -2.32777e-24 0.0403022)
(0.0833556 2.81348e-21 0.0375133)
(0.0718607 0 0.0340612)
(0.0591256 0 0.0304538)
(0.0458803 1.11629e-21 0.0277347)
(0.0323078 0 0.0262893)
(0.0185218 0 0.0255891)
(0.00514765 0 0.0253854)
(-0.00754096 1.42328e-21 0.0256995)
(-0.0199774 1.23522e-21 0.0259673)
(-0.0323498 1.15818e-21 0.025832)
(-0.0442438 0 0.0258882)
(-0.0551537 0 0.0268941)
(-0.0648141 1.05006e-21 0.0291353)
(-0.0736673 -9.06141e-22 0.0323148)
(-0.0826125 7.3143e-22 0.0354322)
(-0.0920105 1.14328e-21 0.037396)
(-0.101078 -1.69849e-21 0.0378656)
(-0.108691 1.31038e-23 0.0373235)
(-0.114089 1.65822e-22 0.0365501)
(-0.11723 -2.33052e-22 0.0362342)
(-0.11856 0 0.0366209)
(-0.118843 0 0.0375165)
(-0.118724 -1.06545e-21 0.038481)
(-0.118698 0 0.0391896)
(-0.118983 3.26421e-21 0.0394328)
(-0.119672 3.96055e-21 0.0391628)
(-0.120593 -4.61434e-21 0.0384873)
(-0.121952 0 0.0377851)
(-0.12389 5.71697e-21 0.0372342)
(-0.126995 6.11316e-21 0.0368747)
(-0.130986 -3.43239e-23 0.0363988)
(-0.135905 -1.29587e-20 0.0358951)
(-0.141098 0 0.0354992)
(-0.147086 -1.20767e-20 0.0355011)
(-0.153234 0 0.0356838)
(-0.160266 0 0.0361076)
(-0.167035 0 0.0364199)
(-0.174402 -2.12541e-23 0.0368844)
(-0.181173 0 0.0372741)
(-0.188645 7.89693e-21 0.0378567)
(-0.195667 -1.44435e-20 0.0384551)
(-0.203838 -1.29794e-20 0.0392935)
(-0.211913 0 0.0402524)
(-0.221352 8.97826e-21 0.0413952)
(-0.230771 1.3566e-20 0.0427843)
(-0.241191 0 0.0442544)
(-0.251534 0 0.0461794)
(-0.262083 -1.054e-21 0.0479602)
(-0.27266 2.21443e-22 0.050373)
(-0.282353 -1.35068e-21 0.0522501)
(-0.292698 -3.94131e-21 0.055009)
(-0.301275 0 0.056806)
(-0.311806 0 0.0597928)
(-0.32002 4.24162e-23 0.0614789)
(-0.331713 -8.36529e-21 0.0646215)
(-0.340692 0 0.0663367)
(-0.354003 1.01487e-20 0.0695991)
(-0.364972 0 0.0717832)
(-0.379489 0 0.0750928)
(-0.39438 0 0.0784985)
(-0.408968 0 0.0814714)
(-0.430524 3.26857e-23 0.0869124)
(-0.443354 -9.22792e-24 0.0888457)
(-0.475315 -1.54488e-20 0.0973229)
(-0.485341 0 0.0976418)
(-0.532329 -1.00463e-20 0.11009)
(-0.540135 0 0.108424)
(-0.605695 -1.67569e-20 0.125153)
(-0.613844 2.33757e-20 0.121563)
(-0.695342 -2.8441e-20 0.140881)
(-0.703363 -4.32386e-20 0.135832)
(-0.790531 0 0.155829)
(-0.799818 6.84807e-20 0.1525)
(-0.886695 0 0.172999)
(-0.903032 -8.01599e-20 0.173126)
(-0.974736 -7.18088e-20 0.186889)
(-0.965511 1.30443e-19 0.183027)
(-1.02954 0 0.198703)
(-1.04234 -1.60766e-19 0.207294)
(-1.21416 0 0.252022)
(-1.31451 4.58672e-20 0.272896)
(-1.57376 0 0.324168)
(-1.59692 3.36841e-20 0.313863)
(-1.81989 0 0.364954)
(-1.83192 5.19763e-20 0.357335)
(-2.07943 -3.90521e-20 0.422431)
(-2.20151 8.43005e-21 0.451362)
(-2.64583 2.64021e-21 0.548065)
(-2.70271 0 0.492801)
(-2.33589 1.02035e-19 0.399374)
(-2.1553 -4.4745e-21 0.416108)
(-2.76072 0 0.644352)
(-4.06992 -1.8179e-19 0.894957)
(-4.09359 0 0.716526)
(-1.94513 0 -0.370214)
(9.22603 7.56741e-19 -3.20495)
(17.7873 0 -3.44814)
(3.46249 0 1.63972)
(-25.3595 -5.88545e-19 7.68443)
(-42.8054 -1.48743e-18 9.44149)
(-40.7268 -6.24837e-19 7.00222)
(-25.9732 0 3.31439)
(-11.9102 0 0.800177)
(1.08823 0 -0.920671)
(-2.26151 0 0.581495)
(-2.37179 -2.24745e-20 0.89637)
(-11.6031 -2.25069e-19 2.83591)
(-15.1016 0 3.25976)
(-17.2975 0 3.35749)
(-18.4519 0 3.6374)
(-19.4805 0 3.80167)
(0.125088 -8.24207e-22 0.0684913)
(0.122068 0 0.0641614)
(0.117956 -7.62462e-22 0.0601738)
(0.114959 0 0.0565295)
(0.112187 -6.79029e-22 0.0532973)
(0.109075 0 0.0505455)
(0.105606 6.9333e-22 0.0482426)
(0.101742 -1.40225e-21 0.0463309)
(0.0971826 -2.7298e-21 0.0445445)
(0.0914939 -2.88359e-23 0.042319)
(0.0843254 0 0.0392448)
(0.0757727 0 0.0356108)
(0.066318 0 0.0326031)
(0.0560399 0 0.0309059)
(0.0447746 0 0.0298317)
(0.0330786 0 0.0289731)
(0.0215429 -1.3112e-21 0.0287387)
(0.00987126 1.1673e-21 0.0287944)