/*--------------------------------*- C++ -*----------------------------------*\
| =========                 |                                                 |
| \\      /  F ield         | OpenFOAM: The Open Source CFD Toolbox           |
|  \\    /   O peration     | Version:  2412                                  |
|   \\  /    A nd           | Website:  www.openfoam.com                      |
|    \\/     M anipulation  |                                                 |
\*---------------------------------------------------------------------------*/
FoamFile
{
    version     2.0;
    format      ascii;
    arch        "LSB;label=32;scalar=64";
    class       surfaceScalarField;
    location    "0.485";
    object      phi;
}
// * * * * * * * * * * * * * * * * * * * * * * * * * * * * * * * * * * * * * //

dimensions      [0 3 -1 0 0 0 0];

oriented        oriented;

internalField   nonuniform List<scalar> 
24930
(
0.0179686
0.0127527
-0.030721
0.0106061
0.00736243
0.00695607
0.00365007
0.00518009
0.00177597
0.004208
0.000972091
0.00358504
0.000622958
0.00313907
0.000445967
0.0027995
0.000339572
0.00253027
0.000269235
0.0023103
0.000219964
0.00212645
0.000183848
0.00196999
0.000156462
0.00183486
0.000135128
0.00171672
0.00011814
0.00161235
0.000104364
0.00151934
9.30152e-05
0.0014358
8.35397e-05
0.00136026
7.55345e-05
0.00129156
6.87012e-05
0.00122874
6.28147e-05
0.00117104
5.77023e-05
0.00111781
5.32295e-05
0.00106852
4.92904e-05
0.00102272
4.58007e-05
0.000980025
4.26923e-05
0.000940115
3.99098e-05
0.000902707
3.7408e-05
0.000867557
3.51493e-05
0.000834455
3.31023e-05
0.000803214
3.12407e-05
0.000773672
2.95423e-05
0.000745684
2.79883e-05
0.000719122
2.65626e-05
0.000693871
2.52512e-05
0.00066983
2.40424e-05
0.000646905
2.29258e-05
0.000625013
2.18924e-05
0.00060408
2.09343e-05
0.000584036
2.00447e-05
0.00056482
1.92175e-05
0.000546373
1.84475e-05
0.000528644
1.77297e-05
0.000511585
1.70604e-05
0.000495151
1.64353e-05
0.0004793
1.58516e-05
0.000463995
1.53058e-05
0.0004492
1.4796e-05
0.000434882
1.4319e-05
0.000421009
1.38736e-05
0.000407553
1.34569e-05
0.000394485
1.30683e-05
0.00038178
1.27049e-05
0.000369414
1.23669e-05
0.000357363
1.20511e-05
0.000345604
1.17585e-05
0.000334118
1.14859e-05
0.000322884
1.12344e-05
0.000311883
1.10012e-05
0.000301095
1.07869e-05
0.000290505
1.05901e-05
0.000280095
1.04097e-05
0.000269848
1.02469e-05
0.000259751
1.00969e-05
0.000249784
9.96589e-06
0.000239941
9.84297e-06
0.000230199
9.74184e-06
0.000220556
9.64259e-06
0.000210986
9.56933e-06
0.000201496
9.49037e-06
0.000192053
9.44208e-06
0.000182673
9.38046e-06
0.00017332
9.35281e-06
0.000164013
9.30685e-06
0.00015472
9.29281e-06
0.000145457
9.26262e-06
0.000136205
9.25173e-06
0.000126965
9.23958e-06
0.000117747
9.21815e-06
0.000108518
9.22843e-06
9.93316e-05
9.18516e-06
9.01043e-05
9.22616e-06
8.09481e-05
9.15485e-06
7.17194e-05
9.22758e-06
6.25991e-05
9.11938e-06
5.33751e-05
9.22338e-06
4.42614e-05
9.11339e-06
3.49761e-05
9.28512e-06
2.58093e-05
9.1667e-06
1.64554e-05
9.35391e-06
7.36399e-06
9.09135e-06
-1.84125e-06
9.20515e-06
-1.0818e-05
8.97657e-06
-2.01773e-05
9.35929e-06
-2.89766e-05
8.79932e-06
-3.86985e-05
9.72223e-06
-4.73929e-05
8.69472e-06
-5.71541e-05
9.76191e-06
-6.49664e-05
7.81267e-06
-7.60363e-05
1.10702e-05
-8.62122e-05
1.01762e-05
-9.95773e-05
1.3366e-05
-0.000107059
7.48176e-06
-0.00011437
7.31006e-06
-0.000115354
9.81403e-07
-0.000149234
3.38733e-05
-0.000243726
9.44957e-05
-0.000376071
0.000132363
-0.000403392
2.73444e-05
-0.000316511
-8.68767e-05
-0.000140538
-0.000175982
1.60315e-05
-0.00015658
0.000116896
-0.000100872
0.00015351
-3.66172e-05
0.000153984
-4.70923e-07
0.000174982
-2.09949e-05
0.000191212
-1.62471e-05
0.000280045
-8.88308e-05
0.000372347
-9.23026e-05
0.000495708
-0.000123359
-0.000181378
0.0336784
0.0163126
-0.0372383
0.0277461
0.0132948
0.0221966
0.00919956
0.0179244
0.00604819
0.0148793
0.00401709
0.0127195
0.00278278
0.0111328
0.00203266
0.00991603
0.00155637
0.00894896
0.0012363
0.00815873
0.0010102
0.00749858
0.000843991
0.00693724
0.000717803
0.00645293
0.000619439
0.00602997
0.000541091
0.00565679
0.000477548
0.00532459
0.000425208
0.00502661
0.000381518
0.00475752
0.00034462
0.00451309
0.000313137
0.00428987
0.00028603
0.00408507
0.000262499
0.00389638
0.000241923
0.00372185
0.000223814
0.00355987
0.000207779
0.00340906
0.000193504
0.00326823
0.000180734
0.00313638
0.000169259
0.00301263
0.000158904
0.00289621
0.000149525
0.00278645
0.000141
0.00268276
0.000133226
0.00258464
0.000126117
0.0024916
0.000119597
0.00240325
0.000113604
0.00231921
0.000108081
0.00223916
0.000102982
0.00216279
9.82639e-05
0.00208983
9.38918e-05
0.00202005
8.98335e-05
0.00195321
8.6061e-05
0.00188911
8.255e-05
0.00182756
7.92784e-05
0.00176839
7.62275e-05
0.00171145
7.33792e-05
0.00165659
7.07194e-05
0.00160366
6.8233e-05
0.00155255
6.59099e-05
0.00150313
6.37369e-05
0.0014553
6.17068e-05
0.00140895
5.98077e-05
0.00136398
5.80355e-05
0.00132031
5.63785e-05
0.00127784
5.48353e-05
0.0012365
5.33944e-05
0.0011962
5.20566e-05
0.00115688
5.08105e-05
0.00111846
4.96583e-05
0.00108087
4.85899e-05
0.00104405
4.76064e-05
0.00100794
4.67012e-05
0.000972474
4.58714e-05
0.000937603
4.51172e-05
0.000903272
4.44269e-05
0.000869425
4.38129e-05
0.000836019
4.32481e-05
0.000802996
4.27645e-05
0.000770327
4.23111e-05
0.000737948
4.19476e-05
0.000705846
4.15913e-05
0.000673952
4.13354e-05
0.00064227
4.10623e-05
0.000610725
4.08969e-05
0.000579335
4.0696e-05
0.000548032
4.05956e-05
0.000516835
4.04595e-05
0.000485697
4.03888e-05
0.000454621
4.03152e-05
0.000423611
4.02281e-05
0.000392617
4.02218e-05
0.000361719
4.00825e-05
0.000330781
4.01631e-05
0.000299983
3.99518e-05
0.000269098
4.01108e-05
0.000238419
3.97967e-05
0.000207609
4.0032e-05
0.000176953
3.97676e-05
0.000146047
4.01898e-05
0.000115253
3.99596e-05
8.43228e-05
4.02832e-05
5.37976e-05
3.96157e-05
2.34455e-05
3.95565e-05
-6.69114e-06
3.91126e-05
-3.69561e-05
3.96237e-05
-6.69206e-05
3.87633e-05
-9.77366e-05
4.05377e-05
-0.000127558
3.85157e-05
-0.000157583
3.97862e-05
-0.000185476
3.5706e-05
-0.000218976
4.45711e-05
-0.00025471
4.59104e-05
-0.000292779
5.1435e-05
-0.000320675
3.53774e-05
-0.000339604
2.62398e-05
-0.000355615
1.69937e-05
-0.000468582
0.000146844
-0.000771764
0.000397676
-0.00113912
0.000499712
-0.00119904
8.72079e-05
-0.000890002
-0.000395907
-0.00035046
-0.000715514
0.000130211
-0.000637243
0.000435003
-0.000405659
0.000541787
-0.000143401
0.000561933
-2.06198e-05
0.000629185
-8.82481e-05
0.000713037
-0.00010008
0.000995697
-0.000371489
0.00130153
-0.000398134
0.00170849
-0.000530323
-0.000748515
0.041447
0.0160051
-0.0411396
0.0391611
0.0155807
0.0352353
0.0131253
0.0309527
0.0103309
0.0270409
0.00792883
0.0237543
0.0060694
0.0210817
0.00470529
0.0189143
0.00372378
0.0171376
0.00301298
0.0156591
0.00248867
0.0144099
0.00209314
0.0133398
0.0017879
0.0124119
0.00154736
0.0115987
0.00135429
0.0108795
0.00119681
0.0102381
0.00106655
0.00966216
0.000957467
0.00914167
0.000865111
0.00866865
0.000786157
0.0082366
0.000718074
0.00784019
0.000658906
0.00747499
0.000607122
0.00713729
0.000561513
0.00682396
0.000521108
0.00653234
0.000485126
0.00626015
0.000452926
0.00600542
0.000423985
0.00576646
0.000397866
0.00554178
0.000374208
0.00533007
0.000352703
0.00513021
0.000333094
0.00494116
0.000315161
0.00476205
0.000298716
0.00459205
0.0002836
0.00443046
0.000269673
0.00427663
0.000256814
0.00412998
0.000244919
0.00398998
0.000233896
0.00385615
0.000223665
0.00372805
0.000214156
0.0036053
0.000205306
0.00348752
0.00019706
0.00337438
0.000189371
0.00326557
0.000182192
0.0031608
0.000175488
0.00305981
0.000169222
0.00296236
0.000163365
0.00286821
0.000157888
0.00277715
0.000152768
0.00268898
0.00014798
0.00260351
0.000143508
0.00252056
0.000139327
0.00243997
0.00013543
0.00236157
0.000131792
0.00228522
0.00012841
0.00221077
0.000125259
0.00213809
0.000122342
0.00206704
0.000119636
0.00199751
0.000117142
0.00192936
0.000114842
0.0018625
0.000112734
0.00179681
0.00011081
0.00173218
0.000109052
0.00166852
0.000107475
0.00160573
0.000106035
0.00154372
0.000104779
0.0014824
0.000103624
0.00142169
0.000102662
0.00136152
0.000101756
0.0013018
0.000101057
0.00124249
0.000100367
0.0011835
9.98916e-05
0.00112481
9.93843e-05
0.00106633
9.90769e-05
0.00100806
9.87257e-05
0.00094994
9.85108e-05
0.000891959
9.82962e-05
0.000834109
9.80775e-05
0.000776336
9.79936e-05
0.000718719
9.76987e-05
0.000661108
9.77725e-05
0.000603698
9.73597e-05
0.000546251
9.75556e-05
0.000489088
9.69578e-05
0.000431846
9.72725e-05
0.000374768
9.68435e-05
0.000317477
9.74802e-05
0.000260261
9.71739e-05
0.000203141
9.74026e-05
0.000146536
9.6221e-05
9.05597e-05
9.5532e-05
3.47794e-05
9.48925e-05
-2.04391e-05
9.48418e-05
-7.61333e-05
9.44572e-05
-0.000131713
9.61173e-05
-0.000187011
9.3814e-05
-0.000240355
9.31305e-05
-0.00029287
8.82213e-05
-0.000351795
0.000103496
-0.000417866
0.000111982
-0.000482036
0.000115606
-0.000534455
8.77972e-05
-0.000566405
5.81898e-05
-0.00060866
5.92488e-05
-0.000817612
0.000355795
-0.0013487
0.000928766
-0.00193459
0.00108561
-0.0019938
0.00014651
-0.00140977
-0.000979937
-0.000471777
-0.00165351
0.00035594
-0.00146496
0.000876186
-0.000925904
0.00105706
-0.000324279
0.00111344
-7.69904e-05
0.00124286
-0.00021767
0.00142838
-0.000285599
0.001938
-0.000881106
0.00249692
-0.000957056
0.00323572
-0.00126912
-0.00175412
0.045909
0.0147038
-0.0446077
0.0459948
0.0154949
0.0444195
0.0147006
0.0416998
0.0130506
0.0384601
0.0111685
0.035159
0.00937056
0.0320637
0.00780057
0.0292887
0.0064988
0.0268528
0.00544882
0.0247302
0.00461127
0.0228798
0.00394355
0.0212597
0.00340796
0.0198329
0.00297422
0.018568
0.00261911
0.0174397
0.00232515
0.016427
0.00207924
0.015513
0.00187147
0.0146838
0.00169433
0.0139279
0.00154205
0.0132358
0.00141013
0.0125997
0.00129506
0.0120128
0.00119405
0.0114694
0.00110485
0.0109649
0.00102566
0.010495
0.00095501
0.0100562
0.000891697
0.00964549
0.000834718
0.00926011
0.000783243
0.00889774
0.000736574
0.00855632
0.000694121
0.00823403
0.000655386
0.00792925
0.000619943
0.00764054
0.000587428
0.00736662
0.000557526
0.00710632
0.000529966
0.00685862
0.000504514
0.00662258
0.000480964
0.00639734
0.000459136
0.00618214
0.000438873
0.00597626
0.000420034
0.00577907
0.0004025
0.00558997
0.00038616
0.00540843
0.000370919
0.00523393
0.000356689
0.00506602
0.000343397
0.00490428
0.000330972
0.00474829
0.000319356
0.00459769
0.000308489
0.00445213
0.00029833
0.00431129
0.000288825
0.00417485
0.000279945
0.00404254
0.00027164
0.00391408
0.000263894
0.00378921
0.000256661
0.00366769
0.00024993
0.00354929
0.000243659
0.00343378
0.000237846
0.00332097
0.000232449
0.00321064
0.00022747
0.00310261
0.000222873
0.00299669
0.000218655
0.0028927
0.000214795
0.00279048
0.000211271
0.00268987
0.00020809
0.00259071
0.000205196
0.00249284
0.000202643
0.00239615
0.000200315
0.00230047
0.000198335
0.00220572
0.000196508
0.00211174
0.000195041
0.00201846
0.000193646
0.00192573
0.000192617
0.00183353
0.000191588
0.00174171
0.000190897
0.00165026
0.000190173
0.00155909
0.000189685
0.00146817
0.000189212
0.00137749
0.00018876
0.00128697
0.000188507
0.0011967
0.000187967
0.00110652
0.000187958
0.00101662
0.000187251
0.000926776
0.0001874
0.000837325
0.000186407
0.000747889
0.000186707
0.000658666
0.000186065
0.000569338
0.000186806
0.000480112
0.000186399
0.000391353
0.000186161
0.000303273
0.0001843
0.000216518
0.000182287
0.000129887
0.000181523
4.46218e-05
0.000180106
-4.1627e-05
0.000180706
-0.000126393
0.000180883
-0.000211767
0.000179187
-0.000292419
0.000173783
-0.000374008
0.000169811
-0.000462336
0.000191824
-0.000562814
0.000212461
-0.000655564
0.000208355
-0.00073571
0.000167943
-0.000784122
0.000106603
-0.000863313
0.000138442
-0.00118511
0.000677593
-0.00195452
0.00169817
-0.00273581
0.0018669
-0.00275226
0.00016281
-0.00183944
-0.00189275
-0.000467804
-0.00302513
0.00072615
-0.00265891
0.00147379
-0.00167354
0.00173609
-0.000586582
0.00184687
-0.000187772
0.0020601
-0.000430893
0.00238335
-0.00060885
0.00315661
-0.00165437
0.00400957
-0.00181002
0.00512935
-0.0023889
-0.00325576
0.0493757
0.0135086
-0.0481805
0.0503411
0.0145295
0.0503617
0.01468
0.049343
0.0140693
0.0475022
0.0130093
0.0451317
0.0117411
0.0425027
0.0104295
0.0398217
0.00917983
0.0372232
0.00804729
0.0347818
0.00705273
0.0325295
0.00619579
0.0304725
0.005465
0.0286023
0.00484441
0.026904
0.00431739
0.0253606
0.00386857
0.0239552
0.00348467
0.022672
0.00315457
0.0214972
0.00286913
0.0204184
0.0026209
0.0194247
0.00240384
0.0185067
0.002213
0.0176564
0.00204437
0.0168666
0.00189464
0.0161312
0.0017611
0.0154447
0.00164148
0.0148025
0.00153392
0.0142004
0.00143683
0.0136347
0.0013489
0.0131023
0.00126901
0.0126002
0.00119619
0.012126
0.00112964
0.0116772
0.00106865
0.011252
0.00101263
0.0108485
0.000961057
0.010465
0.000913475
0.0101
0.000869493
0.00975223
0.000828765
0.00942038
0.000790988
0.00910336
0.000755896
0.00880014
0.000723254
0.00850979
0.000692855
0.00823144
0.000664512
0.0079643
0.000638064
0.00770763
0.00061336
0.00746075
0.000590274
0.00722304
0.000568684
0.00699391
0.000548492
0.00677281
0.000529595
0.00655922
0.00051192
0.00635267
0.000495376
0.0061527
0.000479911
0.0059589
0.000465443
0.00577086
0.000451939
0.0055882
0.000439321
0.00541056
0.000427572
0.0052376
0.000416618
0.00506899
0.000406454
0.00490443
0.00039701
0.00474361
0.000388287
0.00458626
0.000380225
0.00443209
0.000372818
0.00428086
0.000366027
0.00413231
0.000359822
0.0039862
0.000354201
0.0038423
0.00034909
0.0037004
0.000344548
0.00356029
0.000340425
0.00342175
0.000336869
0.00328464
0.000333621
0.00314873
0.000330946
0.00301392
0.000328458
0.00287999
0.00032654
0.00274689
0.000324696
0.00261441
0.000323371
0.00248253
0.000322054
0.00235111
0.000321108
0.00222011
0.000320212
0.00208949
0.000319379
0.00195916
0.000318828
0.00182922
0.000317909
0.00169947
0.000317709
0.00157015
0.000316571
0.001441
0.000316549
0.0013124
0.000314998
0.00118397
0.000315141
0.00105586
0.000314172
0.000927835
0.000314827
0.000800046
0.000314186
0.000673229
0.000312977
0.000547393
0.000310135
0.000423726
0.000305953
0.00030023
0.000305018
0.000179001
0.000301335
5.67847e-05
0.000302921
-6.22077e-05
0.000299875
-0.000183065
0.000300044
-0.000295518
0.000286236
-0.000411159
0.000285452
-0.000533141
0.000313806
-0.000672211
0.000351533
-0.000796053
0.000332197
-0.000907351
0.000279241
-0.000976239
0.000175491
-0.00110334
0.000265538
-0.00155195
0.00112621
-0.00256186
0.00270808
-0.00350351
0.00280855
-0.00342732
8.68443e-05
-0.00213148
-0.00318859
-0.000294393
-0.00486221
0.00128292
-0.00423622
0.00227
-0.00266061
0.00262324
-0.000939828
0.00281072
-0.00037525
0.00313222
-0.000752393
0.00363368
-0.00111031
0.00470792
-0.0027286
0.00589824
-0.00300034
0.00744851
-0.00393917
-0.00531231
0.0528352
0.0126099
-0.0519365
0.0538646
0.0135001
0.0545499
0.0139946
0.0546211
0.0139982
0.0540254
0.0136049
0.0528322
0.0129344
0.0511703
0.0120913
0.0491862
0.011164
0.0470141
0.0102193
0.0447645
0.00930229
0.0425196
0.00844069
0.0403354
0.00764924
0.0382464
0.00693343
0.0362711
0.00629267
0.0344169
0.00572273
0.0326841
0.00521748
0.0310686
0.00477009
0.0295639
0.00437377
0.0281627
0.00402215
0.026857
0.00370951
0.0256392
0.00343079
0.024502
0.00318158
0.0234386
0.00295808
0.0224426
0.00275702
0.0215085
0.00257561
0.020631
0.00241143
0.0198054
0.00226243
0.0190275
0.00212683
0.0182934
0.0020031
0.0175996
0.00188992
0.0169431
0.00178614
0.016321
0.00169077
0.0157307
0.00160294
0.0151699
0.0015219
0.0146364
0.00144698
0.0141283
0.00137761
0.0136438
0.00131326
0.0131813
0.00125349
0.0127393
0.00119789
0.0123164
0.00114611
0.0119114
0.00109784
0.0115232
0.00105279
0.0111505
0.00101071
0.0107925
0.000971371
0.0104482
0.000934579
0.0101167
0.000900145
0.00979732
0.000867916
0.00948918
0.000837734
0.00919162
0.000809482
0.00890398
0.000783021
0.00862562
0.000758267
0.00835597
0.000735094
0.00809447
0.000713446
0.00784058
0.000693206
0.00759382
0.000674341
0.00735369
0.000656741
0.00711976
0.00064039
0.00689158
0.000625187
0.00666874
0.000611126
0.00645085
0.000598115
0.00623752
0.000586146
0.00602839
0.000575152
0.00582312
0.000565097
0.00562136
0.000555961
0.0054228
0.000547651
0.00522712
0.000540226
0.00503405
0.000533496
0.00484328
0.000527635
0.00465459
0.000522313
0.00446768
0.000517853
0.00428238
0.000513757
0.00409841
0.000510505
0.00391566
0.000507449
0.00373387
0.000505154
0.00355298
0.000502947
0.0033728
0.000501288
0.00319327
0.000499744
0.00301432
0.000498327
0.00283585
0.0004973
0.00265794
0.00049582
0.00248037
0.000495276
0.00230342
0.000493513
0.00212682
0.000493149
0.001951
0.000490814
0.00177555
0.000490591
0.00160062
0.000489095
0.00142609
0.000489362
0.00125205
0.000488223
0.00107966
0.000485367
0.000908705
0.000481088
0.000740979
0.000473678
0.000573637
0.00047236
0.00040987
0.000465101
0.000245288
0.000467502
8.56519e-05
0.000459512
-7.65175e-05
0.000462214
-0.000225465
0.000435184
-0.000380883
0.000440871
-0.000540869
0.000473793
-0.000722885
0.000533549
-0.000880194
0.000489507
-0.00102635
0.000425393
-0.00111984
0.000268985
-0.00130534
0.000451037
-0.00188964
0.00171051
-0.00313218
0.00395062
-0.00418575
0.00386212
-0.00396225
-0.000136904
-0.00222824
-0.00492259
0.000102265
-0.00719272
0.00207695
-0.0062109
0.00331645
-0.00390011
0.0037731
-0.00139647
0.00406409
-0.000666246
0.00452018
-0.00120849
0.00524453
-0.00183466
0.0066555
-0.00413957
0.00822728
-0.00457212
0.0102565
-0.00596842
-0.00797981
0.0565567
0.0119224
-0.0558693
0.057411
0.0126459
0.0582086
0.013197
0.0587368
0.01347
0.0588735
0.0134682
0.0585729
0.0132349
0.0578445
0.0128198
0.0567359
0.0122726
0.0553155
0.0116397
0.0536585
0.0109592
0.0518383
0.0102609
0.04992
0.00956754
0.0479581
0.00889529
0.0459957
0.00825514
0.0440646
0.00765382
0.0421873
0.00709473
0.0403786
0.00657882
0.0386471
0.00610531
0.0369969
0.00567227
0.0354293
0.00527712
0.0339432
0.00491693
0.0325361
0.00458871
0.0312046
0.00428949
0.0299452
0.00401651
0.0287536
0.00376716
0.0276259
0.0035391
0.0265582
0.0033302
0.0255465
0.00313853
0.0245872
0.00296239
0.0236769
0.00280024
0.0228123
0.00265074
0.0219904
0.00251267
0.0212084
0.00238495
0.0204636
0.00226664
0.0197537
0.00215689
0.0190764
0.00205493
0.0184296
0.00196009
0.0178113
0.00187177
0.0172197
0.00178943
0.0166533
0.00171258
0.0161103
0.0016408
0.0155894
0.00157368
0.0150893
0.0015109
0.0146085
0.00145211
0.014146
0.00139706
0.0137007
0.00134546
0.0132715
0.00129711
0.0128575
0.00125178
0.0124577
0.0012093
0.0120712
0.00116948
0.0116973
0.00113218
0.0113352
0.00109723
0.0109841
0.00106454
0.0106433
0.00103396
0.0103122
0.00100541
0.00999022
0.00097876
0.00967665
0.000953967
0.00937095
0.00093089
0.00907255
0.000909517
0.00878095
0.000889716
0.00849562
0.000871475
0.00821608
0.00085469
0.00794186
0.000839318
0.00767251
0.000825315
0.00740759
0.000812567
0.00714669
0.000801127
0.00688942
0.000790763
0.00663538
0.00078167
0.00638426
0.000773436
0.00613567
0.000766448
0.00588934
0.000760079
0.00564493
0.000754913
0.00540225
0.00075013
0.00516098
0.000746424
0.00492099
0.000742936
0.00468205
0.000740229
0.00444405
0.000737742
0.00420691
0.000735469
0.00397047
0.000733736
0.00373484
0.000731451
0.00349976
0.000730358
0.00326555
0.000727714
0.00303193
0.000726775
0.00279939
0.000723352
0.0025675
0.000722474
0.00233646
0.000720138
0.00210624
0.000719576
0.00187695
0.000717508
0.00165019
0.000712124
0.00142553
0.000705752
0.0012054
0.000693807
0.000986119
0.00069164
0.000772103
0.000679116
0.000557648
0.000681957
0.000350038
0.000667121
0.000140954
0.000671298
-4.96405e-05
0.000625778
-0.000252261
0.000643492
-0.000454376
0.000675909
-0.000683982
0.000763155
-0.000876792
0.000682317
-0.00106174
0.000610341
-0.00118347
0.000390721
-0.00143629
0.000703858
-0.00215778
0.00243201
-0.00361339
0.00540623
-0.00471662
0.00496534
-0.00428554
-0.000567759
-0.00205976
-0.00714836
0.000793778
-0.0100462
0.00317095
-0.00858806
0.00467713
-0.00540628
0.00525232
-0.00197166
0.00567845
-0.00109238
0.00629586
-0.0018259
0.00729135
-0.00283015
0.0090714
-0.00591962
0.0110674
-0.00656812
0.0136208
-0.0085218
-0.011307
0.0605635
0.0113589
-0.0599999
0.0612485
0.0119608
0.061964
0.0124815
0.0625871
0.0128468
0.0630204
0.0130349
0.0632
0.0130553
0.0630904
0.0129293
0.0626812
0.0126818
0.0619826
0.0123384
0.0610191
0.0119227
0.0598252
0.0114549
0.0584403
0.0109524
0.0569057
0.0104299
0.0552613
0.00989957
0.0535438
0.00937126
0.0517857
0.00885284
0.0500142
0.00835034
0.0482513
0.00786816
0.0465143
0.00740927
0.044816
0.00697542
0.0431656
0.00656737
0.0415692
0.00618512
0.0400306
0.00582811
0.0385517
0.0054954
0.0371331
0.00518577
0.0357743
0.00489788
0.0344742
0.00463033
0.033231
0.0043817
0.0320428
0.00415062
0.0309072
0.00393577
0.0298221
0.00373589
0.0287849
0.00354983
0.0277934
0.0033765
0.0268451
0.00321492
0.0259378
0.00306416
0.0250694
0.00292339
0.0242376
0.00279185
0.0234406
0.00266884
0.0226763
0.00255372
0.0219429
0.00244591
0.0212389
0.00234488
0.0205624
0.00225017
0.019912
0.00216132
0.0192861
0.00207794
0.0186835
0.00199967
0.0181028
0.00192618
0.0175427
0.00185717
0.0170022
0.00179236
0.0164799
0.00173152
0.015975
0.00167439
0.0154864
0.0016208
0.0150131
0.00157052
0.0145543
0.00152342
0.0141089
0.00147929
0.0136763
0.00143805
0.0132555
0.00139949
0.0128459
0.00136357
0.0124467
0.00133009
0.0120572
0.00129904
0.0116767
0.00127022
0.0113046
0.00124364
0.0109401
0.00121913
0.0105828
0.00119665
0.010232
0.00117613
0.00988711
0.00115742
0.00954766
0.00114057
0.00921313
0.0011253
0.00888298
0.00111182
0.00855678
0.00109963
0.00823405
0.00108918
0.00791442
0.00107971
0.00759743
0.0010719
0.00728282
0.00106474
0.00697018
0.00105906
0.00665932
0.0010538
0.00634993
0.00104961
0.00604186
0.00104581
0.00573499
0.00104234
0.00542912
0.00103961
0.00512437
0.00103621
0.00482042
0.00103431
0.00451768
0.00103045
0.00421582
0.00102864
0.00391544
0.00102373
0.0036161
0.00102181
0.00331806
0.00101818
0.00302145
0.00101618
0.00272641
0.00101255
0.00243501
0.00100352
0.00214661
0.00099415
0.00186437
0.000976053
0.00158376
0.000972243
0.00131057
0.000952311
0.00103771
0.000954818
0.000774468
0.00093036
0.000511183
0.000934583
0.000269364
0.000867597
1.36644e-05
0.000899192
-0.000232476
0.000922051
-0.000515218
0.0010459
-0.000744724
0.000911823
-0.000972706
0.000838323
-0.00112484
0.000542853
-0.00145113
0.00103015
-0.00230141
0.00328229
-0.00393757
0.00704239
-0.00501376
0.00604152
-0.00431207
-0.00126956
-0.00154175
-0.00991868
0.00185297
-0.013441
0.00464154
-0.0113766
0.0064304
-0.00719513
0.00714165
-0.00268291
0.00773941
-0.00169013
0.00854336
-0.00262984
0.00986069
-0.00414748
0.0120363
-0.00809527
0.0144947
-0.00902645
0.0176115
-0.0116387
-0.0153309
0.0648492
0.010874
-0.0643643
0.0654152
0.0113949
0.0660236
0.0118731
0.0666092
0.0122612
0.0671096
0.0125345
0.0674761
0.0126887
0.0676735
0.0127319
0.0676779
0.0126774
0.0674761
0.0125402
0.0670642
0.0123347
0.0664456
0.0120735
0.0656309
0.0117671
0.0646358
0.0114249
0.0634803
0.0110551
0.0621869
0.0106647
0.0607795
0.0102602
0.0592826
0.00984732
0.0577193
0.00943143
0.0561114
0.00901716
0.0544783
0.00860854
0.0528367
0.0082089
0.0512009
0.00782093
0.0495824
0.00744666
0.0479903
0.00708751
0.0464316
0.00674439
0.0449118
0.00641777
0.0434343
0.00610778
0.0420017
0.00581426
0.0406155
0.00553683
0.0392763
0.00527499
0.0379841
0.00502811
0.0367384
0.00479551
0.0355384
0.00457648
0.034383
0.0043703
0.033271
0.00417624
0.0322007
0.00399361
0.0311709
0.00382173
0.0301797
0.00365996
0.0292258
0.00350767
0.0283074
0.0033643
0.027423
0.0032293
0.026571
0.00310217
0.0257499
0.00298243
0.0249582
0.00286964
0.0241944
0.00276341
0.0234573
0.00266335
0.0227453
0.00256912
0.0220573
0.00248038
0.021392
0.00239687
0.0207481
0.00231826
0.0201245
0.00224437
0.0195202
0.00217489
0.0189339
0.00210967
0.0183648
0.00204845
0.0178117
0.00199114
0.0172737
0.00193745
0.01675
0.00188735
0.0162395
0.00184057
0.0157414
0.0017971
0.0152549
0.0017567
0.0147792
0.00171936
0.0143135
0.00168487
0.0138569
0.00165318
0.0134089
0.00162417
0.0129686
0.0015977
0.0125354
0.00157377
0.0121087
0.00155206
0.0116877
0.00153281
0.0112719
0.00151541
0.0108607
0.00150038
0.0104536
0.00148678
0.0100501
0.00147544
0.0096497
0.00146511
0.00925198
0.00145678
0.00885664
0.00144914
0.00846329
0.00144296
0.00807171
0.00143739
0.00768175
0.0014323
0.00729314
0.00142822
0.00690602
0.00142332
0.00652002
0.0014203
0.00613565
0.00141482
0.0057525
0.00141178
0.00537135
0.00140488
0.00499173
0.00140142
0.00461402
0.00139588
0.00423856
0.00139165
0.00386553
0.00138557
0.00349754
0.0013715
0.00313376
0.00135794
0.00277811
0.0013317
0.00242533
0.00132502
0.00208263
0.00129501
0.00174159
0.00129586
0.00141376
0.00125819
0.00108768
0.00126067
0.000787512
0.00116776
0.00047657
0.00121013
0.000176352
0.00122227
-0.000165216
0.00138747
-0.00042994
0.00117655
-0.000706061
0.00111444
-0.000887627
0.00072442
-0.00128975
0.00143228
-0.00224811
0.00424065
-0.00401876
0.00881304
-0.0049772
0.00699996
-0.00393899
-0.00230772
-0.000570599
-0.0132871
0.00337681
-0.0173883
0.00658226
-0.0145821
0.00867185
-0.00928471
0.00953804
-0.0035491
0.0103488
-0.00250091
0.0113606
-0.00364168
0.0130514
-0.00583819
0.015641
-0.0106849
0.0185905
-0.0119759
0.0223015
-0.0153497
-0.0200727
0.0694228
0.010446
-0.0689949
0.0699068
0.0109109
0.070428
0.011352
0.0709506
0.0117385
0.0714351
0.0120501
0.0718475
0.0122763
0.0721619
0.0124175
0.072359
0.0124803
0.0724247
0.0124745
0.0723491
0.0124103
0.0721253
0.0122973
0.0717495
0.0121429
0.0712211
0.0119533
0.0705425
0.0117337
0.069719
0.0114881
0.0687593
0.0112199
0.0676743
0.0109323
0.0664774
0.0106283
0.0651834
0.0103111
0.0638082
0.00998375
0.0623677
0.00964943
0.0608774
0.0093112
0.0593521
0.00897199
0.0578051
0.00863447
0.0562485
0.008301
0.0546926
0.0079736
0.0531465
0.00765395
0.0516174
0.00734337
0.0501113
0.00704287
0.0486332
0.00675316
0.0471866
0.0064747
0.0457743
0.00620776
0.0443984
0.00595241
0.0430601
0.0057086
0.0417602
0.00547615
0.040499
0.00525483
0.0392764
0.00504433
0.038092
0.00484429
0.0369454
0.00465435
0.0358356
0.00447409
0.0347618
0.00430313
0.0337229
0.00414107
0.0327178
0.00398751
0.0317454
0.00384207
0.0308044
0.00370438
0.0298937
0.00357408
0.0290119
0.00345085
0.028158
0.00333433
0.0273306
0.00322428
0.0265285
0.00312034
0.0257506
0.00302231
0.0249956
0.00292986
0.0242624
0.00284285
0.0235499
0.00276095
0.022857
0.00268407
0.0221825
0.00261189
0.0215255
0.00254437
0.0208849
0.0024812
0.0202596
0.00242236
0.0196488
0.00236756
0.0190513
0.0023168
0.0184664
0.00226981
0.017893
0.00222655
0.0173303
0.00218686
0.0167775
0.00215056
0.0162336
0.00211766
0.0156979
0.00208776
0.0151695
0.00206115
0.0146479
0.00203707
0.0141321
0.00201616
0.0136216
0.00199726
0.0131157
0.00198137
0.0126138
0.00196695
0.0121154
0.00195518
0.0116201
0.00194446
0.0111274
0.00193568
0.010637
0.00192782
0.0101486
0.00192064
0.009662
0.00191482
0.00917731
0.001908
0.00869409
0.00190352
0.00821298
0.00189594
0.00773351
0.00189125
0.00725663
0.00188175
0.0067819
0.00187615
0.00630989
0.00186789
0.00584113
0.00186041
0.00537595
0.00185075
0.00491753
0.00182993
0.00446486
0.00181061
0.00402276
0.00177379
0.00358528
0.0017625
0.00316119
0.00171909
0.00274078
0.00171626
0.00233808
0.00166089
0.00193968
0.00165908
0.00157304
0.0015344
0.00119757
0.0015856
0.000836729
0.00158312
0.000439443
0.00178475
0.000136638
0.00147935
-0.000194465
0.00144555
-0.000397205
0.00092716
-0.000874123
0.00190921
-0.00190498
0.00527151
-0.00375078
0.0106588
-0.00448698
0.00773616
-0.00304539
-0.00374934
0.000948988
-0.0172814
0.00548091
-0.0219203
0.00910663
-0.0182078
0.0115173
-0.0116954
0.012557
-0.0045888
0.013627
-0.0035709
0.0148615
-0.00487622
0.0169756
-0.00795227
0.0199876
-0.013697
0.0234417
-0.01543
0.0277655
-0.0196735
-0.0255325
0.0743039
0.0100628
-0.0739207
0.0747287
0.0104861
0.0751839
0.0108968
0.0756487
0.0112737
0.0760975
0.0116014
0.0765054
0.0118683
0.0768529
0.0120701
0.0771251
0.012208
0.0773119
0.0122877
0.0774058
0.0123164
0.0774012
0.0123019
0.0772929
0.0122512
0.0770767
0.0121695
0.0767487
0.0120617
0.0763058
0.011931
0.0757463
0.0117795
0.0750697
0.0116089
0.0742779
0.0114201
0.0733748
0.0112142
0.0723663
0.0109922
0.0712604
0.0107554
0.0700664
0.0105052
0.0687949
0.0102434
0.0674574
0.00997203
0.0660652
0.00969314
0.0646299
0.00940889
0.0631625
0.00912143
0.061673
0.00883278
0.0601711
0.00854483
0.058665
0.00825927
0.0571621
0.00797758
0.0556688
0.00770101
0.0541906
0.00743062
0.052732
0.00716724
0.0512966
0.00691153
0.0498875
0.00666399
0.0485068
0.00642496
0.0471565
0.00619466
0.0458376
0.0059732
0.0445511
0.00576062
0.0432973
0.00555688
0.0420765
0.00536188
0.0408886
0.00517549
0.0397331
0.00499752
0.0386097
0.00482779
0.0375177
0.00466608
0.0364564
0.00451219
0.0354249
0.00436584
0.0344223
0.00422687
0.0334476
0.00409498
0.0324999
0.00397003
0.0315781
0.00385168
0.0306811
0.00373986
0.0298078
0.00363421
0.0289572
0.0035347
0.0281281
0.00344097
0.0273195
0.00335301
0.0265302
0.00327047
0.0257592
0.00319338
0.0250054
0.00312139
0.0242676
0.00305452
0.023545
0.00299247
0.0228363
0.0029352
0.0221407
0.00288252
0.021457
0.00283423
0.0207843
0.00279034
0.0201217
0.00275039
0.0194681
0.0027147
0.0188228
0.00268238
0.0181848
0.00265418
0.0175534
0.00262871
0.0169276
0.00260714
0.0163069
0.00258763
0.0156905
0.00257157
0.0150779
0.00255703
0.0144686
0.00254502
0.0138621
0.00253435
0.0132581
0.00252459
0.0126563
0.00251663
0.0120569
0.00250745
0.0114592
0.00250115
0.0108642
0.00249096
0.0102713
0.00248418
0.00968161
0.0024714
0.00909481
0.00246295
0.0085117
0.002451
0.00793308
0.00243902
0.00735948
0.00242434
0.00679469
0.00239473
0.0062376
0.00236769
0.00569403
0.00231736
0.00515746
0.00229907
0.00463834
0.00223821
0.00412579
0.00222881
0.0036365
0.00215018
0.00315507
0.00214051
0.00271265
0.00197682
0.0022646
0.00203365
0.00183916
0.00200855
0.00138313
0.00224078
0.00103166
0.00183083
0.000661242
0.00181596
0.000433338
0.00115507
-0.00010783
0.00245038
-0.00115526
0.00631894
-0.0030055
0.0125091
-0.00340131
0.00813196
-0.00148946
-0.0056612
0.00315848
-0.0219294
0.00830369
-0.0270654