/*--------------------------------*- C++ -*----------------------------------*\
| =========                 |                                                 |
| \\      /  F ield         | OpenFOAM: The Open Source CFD Toolbox           |
|  \\    /   O peration     | Version:  2412                                  |
|   \\  /    A nd           | Website:  www.openfoam.com                      |
|    \\/     M anipulation  |                                                 |
\*---------------------------------------------------------------------------*/
FoamFile
{
    version     2.0;
    format      ascii;
    arch        "LSB;label=32;scalar=64";
    class       surfaceScalarField;
    location    "0.89";
    object      phi;
}
// * * * * * * * * * * * * * * * * * * * * * * * * * * * * * * * * * * * * * //

dimensions      [0 3 -1 0 0 0 0];

oriented        oriented;

internalField   nonuniform List<scalar> 
24930
(
0.0156114
0.0208455
-0.0365276
0.00641916
0.00919224
0.00295273
0.00346642
0.00165328
0.00129944
0.0010628
0.000590459
0.000717348
0.000345461
0.000484765
0.000232589
0.000317846
0.000166912
0.000193931
0.000123924
0.000100195
9.37927e-05
2.74936e-05
7.27201e-05
-2.89072e-05
5.63345e-05
-7.32429e-05
4.42292e-05
-0.000108169
3.48904e-05
-0.000134022
2.59206e-05
-0.000155042
2.11891e-05
-0.000170539
1.56077e-05
-0.000182045
1.14067e-05
-0.000189927
7.56175e-06
-0.000194922
4.69518e-06
-0.000197712
2.92258e-06
-0.000198859
1.99902e-06
-0.000198458
6.17983e-07
-0.000196404
-2.58695e-06
-0.000192478
-5.46654e-06
-0.000188353
-4.75603e-06
-0.000183892
-4.16883e-06
-0.000179099
-4.40603e-06
-0.000173203
-5.25779e-06
-0.000167157
-5.9971e-06
-0.000161025
-6.28659e-06
-0.000154829
-6.26456e-06
-0.00014857
-6.18534e-06
-0.000142307
-6.20063e-06
-0.000136135
-6.21803e-06
-0.000130158
-6.05953e-06
-0.000124376
-5.79457e-06
-0.000118808
-5.51169e-06
-0.000113488
-5.27955e-06
-0.000108456
-5.05716e-06
-0.000103718
-4.78827e-06
-9.92391e-05
-4.49088e-06
-9.49832e-05
-4.22569e-06
-9.09466e-05
-4.01121e-06
-8.71159e-05
-3.84172e-06
-8.35101e-05
-3.63429e-06
-8.01854e-05
-3.33185e-06
-7.72178e-05
-2.94425e-06
-7.47148e-05
-2.47741e-06
-7.27866e-05
-1.93048e-06
-7.15154e-05
-1.30411e-06
-7.0929e-05
-6.39774e-07
-7.09506e-05
-1.60921e-08
-7.13525e-05
5.62532e-07
-7.18124e-05
6.70424e-07
-7.16593e-05
-1.15433e-07
-7.00262e-05
-1.64007e-06
-6.57789e-05
-4.24038e-06
-5.76578e-05
-8.10939e-06
-4.45841e-05
-1.30649e-05
-2.61416e-05
-1.84347e-05
-2.94992e-06
-2.31847e-05
2.27301e-05
-2.56736e-05
4.82642e-05
-2.5529e-05
7.08544e-05
-2.2585e-05
8.89334e-05
-1.80754e-05
0.000103031
-1.40956e-05
0.000114787
-1.1751e-05
0.000126287
-1.1493e-05
0.000138576
-1.22835e-05
0.00015346
-1.48804e-05
0.000169861
-1.63973e-05
0.000188092
-1.8225e-05
0.000202894
-1.47935e-05
0.000208472
-5.57078e-06
0.000192251
1.62294e-05
0.000147118
4.51427e-05
7.78292e-05
6.92996e-05
5.50889e-06
7.23297e-05
-4.47845e-05
5.03022e-05
-5.13962e-05
6.61056e-06
6.55202e-06
-5.7943e-05
0.000112849
-0.000106292
0.000177836
-6.49841e-05
0.000184101
-6.26066e-06
0.000145115
3.89861e-05
-2.44112e-05
0.000169522
-0.000318328
0.000293916
-0.000656083
0.000337751
-0.000874852
0.000218777
-0.000963785
8.89263e-05
-0.000591682
-0.000372111
0.000844731
-0.0014364
0.00144339
-0.0005986
0.00339394
-0.00195054
0.00372162
-0.000327684
0.000471169
0.00325055
-9.33251e-05
0.000564505
-0.000190488
9.71531e-05
-0.000206774
1.63139e-05
0.000341216
-0.000547993
0.000523807
-0.000182597
0.000859403
-0.000335591
0.00106952
-0.000210123
0.000747136
0.000322386
-0.000655137
0.00140227
-0.00275235
0.00209721
-0.00497852
0.00222621
-0.00661009
0.00163158
-0.0073037
0.000693626
-0.00687206
-0.000431598
-0.00573187
-0.00114018
-0.00397876
-0.00175312
-0.00195017
-0.00202859
-0.00040226
-0.00154791
0.000120016
-0.000522277
0.000515568
-0.000395552
0.000426269
8.93006e-05
0.000209236
0.000217034
-0.000137139
0.033074
0.0298138
-0.0420423
0.0221475
0.0201188
0.0139769
0.011637
0.00896461
0.00631169
0.006025
0.00353007
0.00422062
0.00214989
0.00302247
0.00143077
0.00217407
0.00101529
0.0015471
0.000750781
0.00106985
0.000570956
0.000700246
0.000442377
0.000409975
0.000346749
0.000180596
0.000273724
4.07807e-06
0.000211433
-0.000151285
0.000181112
-0.000271488
0.000141095
-0.000365879
0.000109817
-0.000439762
8.55731e-05
-0.000496578
6.50735e-05
-0.000539287
4.77103e-05
-0.000570741
3.33887e-05
-0.000592101
2.19137e-05
-0.000605617
1.4611e-05
-0.00061183
5.61962e-06
-0.000612266
-3.95063e-06
-0.000607927
-8.98383e-06
-0.000600629
-1.16467e-05
-0.000590529
-1.59945e-05
-0.00057686
-1.94535e-05
-0.000561494
-2.13747e-05
-0.000544749
-2.29125e-05
-0.000526975
-2.40497e-05
-0.000508454
-2.47944e-05
-0.000489476
-2.51907e-05
-0.000470337
-2.52905e-05
-0.000451395
-2.49711e-05
-0.0004328
-2.44467e-05
-0.000414697
-2.36924e-05
-0.000397242
-2.27531e-05
-0.000380559
-2.17027e-05
-0.000364687
-2.063e-05
-0.000349566
-1.96299e-05
-0.000335119
-1.87151e-05
-0.000321333
-1.78149e-05
-0.000308173
-1.69831e-05
-0.000295703
-1.60803e-05
-0.000284125
-1.49109e-05
-0.000273718
-1.33735e-05
-0.000264852
-1.13566e-05
-0.000257907
-8.85721e-06
-0.00025317
-5.99614e-06
-0.000250713
-3.06462e-06
-0.000250316
-4.74051e-07
-0.000251202
1.5293e-06
-0.000252108
1.68342e-06
-0.00025089
-1.3377e-06
-0.000244548
-7.97694e-06
-0.000229177
-1.9596e-05
-0.00020051
-3.67645e-05
-0.000154938
-5.86209e-05
-9.11063e-05
-8.22504e-05
-1.10778e-05
-0.000103199
7.73032e-05
-0.000114041
0.000165438
-0.000113651
0.000243461
-0.000100595
0.000305726
-8.03273e-05
0.000353434
-6.1792e-05
0.000392192
-5.04993e-05
0.000428681
-4.79748e-05
0.000467567
-5.11614e-05
0.000514251
-6.1554e-05
0.000567564
-6.97012e-05
0.00062764
-7.82921e-05
0.000679992
-6.71379e-05
0.000704053
-2.96231e-05
0.000659473
6.08219e-05
0.000517907
0.000186721
0.000292428
0.000294792
5.18944e-05
0.000312877
-0.00011602
0.000218231
-0.000138136
2.8744e-05
5.96896e-05
-0.000255752
0.000421774
-0.000468363
0.000647502
-0.0002907
0.000654038
-1.27828e-05
0.000447771
0.000245264
-0.000190035
0.00080734
-0.00122927
0.00133316
-0.00231839
0.00142687
-0.00300742
0.000907807
-0.00312675
0.000208242
-0.00202632
-0.00147251
0.00259081
-0.00605353
0.00451147
-0.00251928
0.0106233
-0.00806234
0.0126279
-0.00233223
0.00219623
0.0136822
-0.000147037
0.00290778
-0.000500754
0.000450882
-0.000556454
7.20285e-05
0.0013255
-0.00242992
0.00191693
-0.000774014
0.00295244
-0.00137109
0.00341412
-0.000671795
0.00177723
0.00195927
-0.00331088
0.00649039
-0.0104064
0.00919273
-0.0172982
0.00911807
-0.0219298
0.00626315
-0.0234347
0.00219849
-0.0216914
-0.00217486
-0.0178486
-0.00498297
-0.0122894
-0.00731238
-0.0057796
-0.00853834
-0.00088094
-0.00644656
0.00074985
-0.00215306
0.00187599
-0.00152169
0.00149006
0.000475239
0.000738755
0.00096834
-0.00064291
0.0427921
0.0321592
-0.0451375
0.0354687
0.0274422
0.0269108
0.0201949
0.0195505
0.013672
0.0141112
0.00896931
0.0103069
0.00595427
0.00763523
0.00410242
0.00570244
0.00294805
0.0042581
0.00219512
0.00315024
0.00167883
0.00228354
0.00130908
0.00159586
0.00103441
0.00104462
0.000824956
0.000599401
0.00065668
0.000242332
0.000538179
-4.68398e-05
0.000430186
-0.000284277
0.00034717
-0.000474213
0.000275589
-0.000625395
0.000216535
-0.000744375
0.000166894
-0.000836657
0.000125304
-0.000906867
9.08307e-05
-0.000957183
6.3714e-05
-0.000991418
4.11186e-05
-0.00101076
1.7136e-05
-0.00102174
1.11277e-06
-0.00102186
-1.1761e-05
-0.00101521
-2.31458e-05
-0.00100166
-3.32398e-05
-0.000982886
-4.00159e-05
-0.00096022
-4.55402e-05
-0.000934459
-4.98437e-05
-0.000906363
-5.29053e-05
-0.000876591
-5.49477e-05
-0.00084577
-5.61083e-05
-0.000814615
-5.61531e-05
-0.000783533
-5.55608e-05
-0.000752878
-5.43585e-05
-0.000722991
-5.26343e-05
-0.00069414
-5.05515e-05
-0.000666451
-4.833e-05
-0.000639873
-4.6223e-05
-0.000614314
-4.42818e-05
-0.000589774
-4.23543e-05
-0.000566218
-4.05371e-05
-0.000543772
-3.8528e-05
-0.000522809
-3.58782e-05
-0.000503846
-3.23395e-05
-0.000487552
-2.76475e-05
-0.000474617
-2.17829e-05
-0.000465557
-1.50357e-05
-0.000460537
-8.04661e-06
-0.00045909
-1.93945e-06
-0.000459907
2.36323e-06
-0.000460639
2.38967e-06
-0.000457478
-4.55163e-06
-0.000445052
-2.03891e-05
-0.000416371
-4.82591e-05
-0.000363947
-8.91724e-05
-0.000281424
-0.000141126
-0.000166432
-0.000197226
-2.28155e-05
-0.0002468
0.000136641
-0.000273484
0.000295524
-0.000272519
0.000436308
-0.000241364
0.000548504
-0.00019251
0.000633438
-0.000146714
0.000700844
-0.000117893
0.000762494
-0.000109614
0.000827526
-0.000116183
0.000905724
-0.000139741
0.000997069
-0.000161036
0.00110239
-0.000183604
0.00119882
-0.000163555
0.00125069
-8.14853e-05
0.001187
0.000124524
0.000953051
0.000420678
0.000566453
0.000681402
0.000144844
0.000734499
-0.000152742
0.000515831
-0.00019408
7.00982e-05
0.000155366
-0.000605183
0.00080438
-0.00111736
0.00120848
-0.000694789
0.00119101
4.70359e-06
0.000728611
0.00070768
-0.000497746
0.00203371
-0.00239471
0.00323014
-0.00426535
0.0032975
-0.00538156
0.00202402
-0.00539019
0.000216878
-0.00368373
-0.00317895
0.0043122
-0.0140494
0.00726167
-0.00546878
0.0176447
-0.0184453
0.0226318
-0.00731926
0.00481071
0.0315033
4.01313e-05
0.00767835
-0.000728629
0.00121965
-0.000778029
0.000121462
0.00257851
-0.00578644
0.00359326
-0.00178875
0.00527448
-0.00305229
0.00568483
-0.00108212
0.00213794
0.00550617
-0.0073602
0.0159885
-0.0198619
0.0216944
-0.0311561
0.0204123
-0.0381211
0.0132281
-0.0397574
0.00383475
-0.0362849
-0.00564733
-0.0295971
-0.0116707
-0.0202133
-0.0166962
-0.0092284
-0.0195233
-0.000958676
-0.0147163
0.00174769
-0.00485942
0.00351281
-0.0032868
0.00269444
0.00129361
0.00136732
0.00229547
-0.00160486
0.0486037
0.0317091
-0.0481536
0.0452916
0.0307543
0.0389622
0.0265243
0.0315973
0.0210368
0.0247551
0.0158115
0.0191189
0.0115904
0.0147303
0.0084911
0.0113637
0.00631461
0.00876553
0.00479327
0.00673405
0.00371031
0.00512398
0.00291912
0.00383301
0.00232535
0.00278843
0.00186955
0.00193703
0.00150812
0.0012442
0.00123102
0.000675277
0.000999061
0.00021036
0.000812045
-0.000169788
0.000655783
-0.000479812
0.000526633
-0.000729492
0.00041653
-0.000929017
0.000324757
-0.00108567
0.000247631
-0.00120627
0.000184442
-0.00129574
0.000130961
-0.00136113
8.3484e-05
-0.0014041
4.41315e-05
-0.00142894
1.27869e-05
-0.00143797
-1.33427e-05
-0.00143613
-3.49891e-05
-0.00142313
-5.28381e-05
-0.00140181
-6.685e-05
-0.00137381
-7.78954e-05
-0.00134059
-8.61296e-05
-0.00130339
-9.2128e-05
-0.00126333
-9.61686e-05
-0.00122165
-9.7866e-05
-0.00117915
-9.80882e-05
-0.00113649
-9.70139e-05
-0.00109431
-9.48069e-05
-0.0010531
-9.17657e-05
-0.00101314
-8.8306e-05
-0.000974447
-8.49332e-05
-0.000936948
-8.17854e-05
-0.000900692
-7.86091e-05
-0.000865672
-7.55563e-05
-0.000832102
-7.21027e-05
-0.000800553
-6.74308e-05
-0.00077182
-6.10735e-05
-0.000746915
-5.25473e-05
-0.000726881
-4.18068e-05
-0.00071251
-2.93925e-05
-0.000704037
-1.65053e-05
-0.000700859
-5.1383e-06
-0.00070089
2.22135e-06
-0.000700724
2.15614e-06
-0.0006947
-1.06363e-05
-0.000674724
-4.03388e-05
-0.000630514
-9.24508e-05
-0.000551006
-0.000168662
-0.000426882
-0.000265231
-0.00025464
-0.00036945
-3.99372e-05
-0.000461486
0.000199018
-0.000512424
0.0004376
-0.000511084
0.000649567
-0.000453315
0.000818481
-0.000361408
0.000945118
-0.000273338
0.00104334
-0.000216105
0.00113056
-0.000196813
0.00122127
-0.00020688
0.00133073
-0.000249191
0.00146139
-0.000291688
0.00161598
-0.000338178
0.00176428
-0.000311846
0.00185545
-0.000172645
0.00178544
0.000194549
0.00146651
0.000739616
0.00091526
0.00123266
0.000300155
0.00134962
-0.000140308
0.000956309
-0.000207754
0.000137559
0.000302177
-0.0011151
0.00126181
-0.00207699
0.00186028
-0.00129324
0.00178313
8.1869e-05
0.000958861
0.00153196
-0.000995092
0.00398768
-0.00384961
0.00608466
-0.00651965
0.00596754
-0.00798094
0.00348531
-0.00772445
-3.96117e-05
-0.00556986
-0.00533352
0.005968
-0.0255873
0.00941288
-0.00891372
0.0241277
-0.0331601
0.0337671
-0.0169585
0.00852725
0.0567431
0.000701234
0.0155043
-0.00084054
0.00276142
-0.000829732
0.000110677
0.00411196
-0.0107281
0.00556494
-0.00324171
0.00779997
-0.0052873
0.00777498
-0.00105706
0.00154843
0.0117327
-0.0130425
0.0305795
-0.031114
0.0397659
-0.0462928
0.0355911
-0.0547214
0.0216568
-0.0557492
0.0048625
-0.0502168
-0.0111797
-0.0406151
-0.0212724
-0.0275461
-0.0297652
-0.0121975
-0.0348719
-0.000566094
-0.0263477
0.00315911
-0.00858462
0.00544009
-0.00556777
0.00403481
0.0026989
0.00212088
0.0042094
-0.00312705
0.0524277
0.0305902
-0.0513088
0.0517853
0.0313968
0.0483892
0.0299204
0.0428539
0.0265721
0.0363639
0.0223015
0.029963
0.0179914
0.024254
0.0142001
0.0194402
0.0111285
0.0154887
0.00874469
0.0122742
0.00692487
0.00965843
0.00553481
0.0075217
0.00446205
0.00576806
0.00362323
0.004322
0.00295424
0.00312945
0.0024236
0.00214133
0.00198712
0.0013237
0.0016296
0.000647845
0.00133164
9.19988e-05
0.00108253
-0.000365459
0.000874012
-0.000737873
0.000697298
-0.00103775
0.000547877
-0.00127605
0.000422884
-0.00146212
0.000316554
-0.00160444
0.000224926
-0.00170951
0.000148679
-0.00178381
8.58507e-05
-0.00183069
3.38754e-05
-0.00185415
-1.13501e-05
-0.00186166
-4.52737e-05
-0.0018532
-7.53358e-05
-0.00183222
-9.8939e-05
-0.00180129
-0.000117055
-0.00176253
-0.000130868
-0.00171778
-0.000140931
-0.00166899
-0.000146684
-0.00161756
-0.000149533
-0.00156464
-0.000149933
-0.00151126
-0.000148179
-0.00145827
-0.000144767
-0.00140619
-0.000140399
-0.0013552
-0.000135942
-0.0013053
-0.000131686
-0.00125664
-0.000127263
-0.0012093
-0.000122903
-0.00116359
-0.000117811
-0.00112035
-0.000110683
-0.00108067
-0.000100751
-0.00104597
-8.72434e-05
-0.00101769
-7.00758e-05
-0.000996942
-5.01267e-05
-0.00098407
-2.93754e-05
-0.000978181
-1.10217e-05
-0.000976698
7.92975e-07
-0.000974693
6.41455e-08
-0.000964596
-2.06974e-05
-0.000935399
-6.95066e-05
-0.000873248
-0.000154583
-0.000763311
-0.000278581
-0.000593057
-0.000435465
-0.000357699
-0.00060479
-6.46634e-05
-0.000754504
0.000262248
-0.000839318
0.000589646
-0.000838465
0.00088158
-0.00074523
0.00111449
-0.000594297
0.00128772
-0.000446561
0.00141908
-0.000347448
0.00153215
-0.000309863
0.00164758
-0.000322301
0.0017876
-0.000389191
0.00195839
-0.000462469
0.00216641
-0.000546183
0.00237529
-0.00052072
0.00251964
-0.000316983
0.00246018
0.000254015
0.00206987
0.00112993
0.00135581
0.00194674
0.000536668
0.00216877
-6.06657e-05
0.00155366
-0.000165132
0.000242042
0.000507087
-0.0017873
0.00179612
-0.003366
0.00259874
-0.00209585
0.00241373
0.0002669
0.0011027
0.00284301
-0.00172965
0.00682006
-0.00563123
0.00998626
-0.00908912
0.00942543
-0.0107743
0.00517052
-0.0100914
-0.00072259
-0.00764813
-0.00777675
0.00751287
-0.0407482
0.0108742
-0.0122752
0.029862
-0.0521477
0.0458514
-0.0329478
0.0135046
0.0890898
0.00186095
0.027148
-0.000801293
0.00542365
-0.000686149
-4.42315e-06
0.00593353
-0.0173478
0.00784042
-0.00514859
0.0104853
-0.00793218
0.00951226
-8.3907e-05
-0.000190074
0.0214351
-0.0204879
0.0508772
-0.0440452
0.0633232
-0.0622817
0.0538276
-0.0712111
0.0305862
-0.0710085
0.00465978
-0.0631985
-0.0189897
-0.0507333
-0.0337375
-0.0342011
-0.0462973
-0.0147355
-0.0543375
0.000249631
-0.0413328
0.00498929
-0.0133243
0.00766945
-0.00824791
0.00551893
0.00484942
0.0030365
0.00669184
-0.00533038
0.0555754
0.0296372
-0.0546224
0.0561158
0.0308564
0.0550225
0.0310137
0.05189
0.0297046
0.0470773
0.0271143
0.0413131
0.0237556
0.0353206
0.0201926
0.0296229
0.0168262
0.0245035
0.0138641
0.0200582
0.0113701
0.0162708
0.00932217
0.0130742
0.00765859
0.0103874
0.00631017
0.00813139
0.00521029
0.00624077
0.00431422
0.00465507
0.00357273
0.00332705
0.00295753
0.00221643
0.00244226
0.00129032
0.00200871
0.000521371
0.00164308
-0.000113476
0.00133234
-0.000635281
0.0010699
-0.00105895
0.000846399
-0.00139919
0.000656046
-0.00166853
0.000493297
-0.00187681
0.000356792
-0.00203329
0.000242409
-0.00214681
0.000147817
-0.00222569
6.80126e-05
-0.00226963
-1.77437e-06
-0.00229167
-5.3466e-05
-0.00229195
-9.87374e-05
-0.00227478
-0.000134212
-0.00224366
-0.000161959
-0.00220152
-0.000183075
-0.00215134
-0.000196887
-0.00209538
-0.000205507
-0.00203547
-0.000209842
-0.00197324
-0.000210402
-0.00191004
-0.000207972
-0.00184681
-0.000203646
-0.00178397
-0.000198794
-0.00172171
-0.000193947
-0.00166036
-0.000188618
-0.00160011
-0.000183154
-0.00154146
-0.000176459
-0.00148553
-0.000166619
-0.0014338
-0.000152483
-0.00138812
-0.000132916
-0.00135041
-0.000107783
-0.00132213
-7.83911e-05
-0.00130378
-4.77238e-05
-0.00129426
-2.0536e-05
-0.00129014
-3.50249e-06
-0.00128528
-4.9048e-06
-0.00126979
-3.61245e-05
-0.00122958
-0.000109687
-0.00114706
-0.000237092
-0.00100336
-0.000422257
-0.000782574
-0.000656233
-0.000478446
-0.000908898
-0.000100071
-0.00113286
0.000323151
-0.00126252
0.000748696
-0.00126399
0.00113003
-0.00112655
0.00143516
-0.000899404
0.00166086
-0.000672245
0.00182837
-0.00051494
0.0019679
-0.000449384
0.00210718
-0.000461562
0.00227693
-0.000558925
0.00248867
-0.000674195
0.00275447
-0.000811972
0.00303348
-0.000799717
0.0032472
-0.000530689
0.00321964
0.000281588
0.00277713
0.00157245
0.0019072
0.00281668
0.000875744
0.00320023
0.000103078
0.00232634
-4.97251e-05
0.000394861
0.000776802
-0.00261381
0.00240442
-0.0049936
0.00341407
-0.00310548
0.00306003
0.00062096
0.00111749
0.00478557
-0.00274989
0.0106875
-0.00776727
0.0150036
-0.0119678
0.013626
-0.0137246
0.0069273
-0.0124515
-0.00199575
-0.00982037
-0.0104078
0.0088927
-0.0594613
0.0118481
-0.0152306
0.0348114
-0.075111
0.0584338
-0.0565701
0.0198457
0.127678
0.00368062
0.0433129
-0.000542981
0.00964723
-0.000326577
-0.000220801
0.00803168
-0.025706
0.0104161
-0.00753301
0.013268
-0.010784
0.0107532
0.00243073
-0.00316861
0.035357
-0.0297636
0.0774722
-0.0583805
0.0919401
-0.0785913
0.0740384
-0.0870665
0.0390614
-0.0851825
0.00277585
-0.0750491
-0.029123
-0.0598356
-0.048951
-0.0401824
-0.0659505
-0.0169445
-0.0775754
0.00146522
-0.0597424
0.0072622
-0.0191212
0.0102184
-0.0112041
0.00716822
0.00789956
0.00416328
0.00969679
-0.00834818
0.0588253
0.0289728
-0.0581609
0.0595974
0.0300843
0.0597254
0.0308857
0.0585264
0.0309036
0.0557502
0.0298904
0.0515807
0.0279251
0.0464568
0.0253166
0.0408788
0.0224042
0.0352792
0.0194637
0.0299654
0.0166839
0.0251156
0.0141719
0.020804
0.0119702
0.017036
0.0100783
0.0137782
0.00846819
0.0109834
0.00710898
0.00859656
0.00595944
0.00656649
0.00498749
0.00484576
0.00416299
0.00339271
0.00346186
0.00217096
0.00286497
0.00114851
0.00235494
0.000298448
0.00191998
-0.000403441
0.00154795
-0.00097806
0.00123
-0.00144324
0.000957964
-0.00181426
0.000727964
-0.00210484
0.000533445
-0.00232669
0.000370168
-0.00249071
0.000232322
-0.00261011
0.000118013
-0.00268285
1.90956e-05
-0.00272474
-5.68954e-05
-0.00273879
-0.000120128
-0.00272933
-0.000171389
-0.00270108
-0.000211325
-0.00265855
-0.00023944
-0.00260519
-0.000258885
-0.0025438
-0.00027122
-0.0024769
-0.000277296
-0.00240658
-0.000278307
-0.00233436
-0.000275883
-0.0022611
-0.000272067
-0.00218729
-0.000267762
-0.00211354
-0.000262368
-0.00204028
-0.000256412
-0.00196826
-0.000248489
-0.00189892
-0.000235959
-0.0018342
-0.000217205
-0.00177646
-0.000190654
-0.00172813
-0.000156102
-0.00169113
-0.000115383
-0.00166612
-7.27217e-05
-0.00165175
-3.48722e-05
-0.00164397
-1.13853e-05
-0.00163498
-1.39027e-05
-0.00161262
-5.84232e-05
-0.00155958
-0.000162695
-0.00145431
-0.000342351
-0.00127376
-0.000602784
-0.000998436
-0.000931536
-0.000620419
-0.0012869
-0.00015022
-0.00160304
0.000377317
-0.00179004
0.000910363
-0.00179702
0.00139104
-0.00160721
0.00177752
-0.00128586
0.00206254
-0.00095725
0.00227002
-0.000722399
0.00243712
-0.000616472
0.00259946
-0.000623877
0.00279804
-0.000757485
0.00305132
-0.000927459
0.0033792
-0.00113984
0.0037383
-0.0011588
0.00403907
-0.00083145
0.00406937
0.000251299
0.00360158
0.00204024
0.00258998
0.00382829
0.00134143
0.00444879
0.000373162
0.00329462
0.000148644
0.000619395
0.00111761
-0.00358277
0.00308082
-0.00695679
0.00429039
-0.00431504
0.00369158
0.00121979
0.00095456
0.00752263
-0.00410282
0.0157449
-0.0102744
0.0211752
-0.0151327
0.0184843
-0.0167782
0.0085728
-0.0147721
-0.00400182
-0.0119306
-0.0132494
0.0100587
-0.0814505
0.0130077
-0.0181797
0.0392125
-0.101316
0.0705887
-0.0879461
0.0275298
0.170737
0.0063013
0.0645413
2.99039e-05
0.0159186
0.000268075
-0.000458958
0.0103799
-0.0358178
0.0132753
-0.0104283
0.0160657
-0.0135744
0.0112979
0.00719851
-0.00768936
0.0543443
-0.040832
0.110615
-0.0737227
0.124831
-0.0946636
0.0949793
-0.101947
0.0463447
-0.0982
-0.00097121
-0.0858205
-0.0415025
-0.0680149
-0.0667566
-0.0456021
-0.0883633
-0.0190595
-0.104118
0.00285388
-0.0816558
0.00997502
-0.0262424
0.0131115
-0.0143406
0.00902157
0.0119895
0.00556216
0.0131562
-0.0123184
0.062438
0.0284914
-0.0619565
0.063075
0.0294473
0.0635828
0.0303778
0.0634697
0.0310167
0.0623088
0.0310512
0.0599049
0.030329
0.0563192
0.0289024
0.0517931
0.0269302
0.0466547
0.0246021
0.0412413
0.0220973
0.0358462
0.019567
0.0306904
0.017126
0.0259166
0.0148521
0.0215981
0.0127868
0.0177589
0.0109481
0.0143878
0.00933044
0.0114557
0.00791946
0.00892438
0.00669436
0.00675283
0.00563351
0.00490101
0.00471691
0.00333088
0.00392514
0.00200797
0.00324279
0.000900755
0.00265484
-1.85692e-05
0.00214891
-0.000775992
0.00171527
-0.0013924
0.00134477
-0.00188781
0.00102937
-0.00227958
0.000762298
-0.00258307
0.00053579
-0.0028107
0.000345487
-0.00297991
0.000188118
-0.00309138
5.45569e-05
-0.00315935
-5.20931e-05
-0.00319298
-0.000137727
-0.00319558
-0.000208732
-0.00317432
-0.000260722
-0.0031345
-0.000298718
-0.00308034
-0.000325369
-0.00301556
-0.000342076
-0.0029433
-0.000350576
-0.00286599
-0.000353218
-0.00278512
-0.00035294
-0.00270169
-0.000351193
-0.00261676
-0.000347298
-0.00253113
-0.000342051
-0.00244585
-0.000333776
-0.00236282
-0.000318994
-0.00228448
-0.000295542
-0.00221379
-0.00026134
-0.00215378
-0.000216101
-0.00210687
-0.000162279
-0.00207398
-0.000105596
-0.0020536
-5.52031e-05
-0.00204079
-2.41341e-05
-0.00202635
-2.82885e-05
-0.00199558
-8.91386e-05
-0.00192789
-0.000230356
-0.00179766
-0.000472567
-0.00157754
-0.000822878
-0.0012443
-0.00126476
-0.000788064
-0.00174311
-0.000220388
-0.0021707
0.000418845
-0.00242925
0.00106858
-0.00244673
0.00165903
-0.00219763
0.00213703
-0.00176384
0.00248959
-0.00130979
0.00274211
-0.000974902
0.00293882
-0.000813158
0.00312395
-0.000808982
0.0033506
-0.000984123
0.0036459
-0.00122274
0.00403988
-0.00153381
0.00448894
-0.00160784
0.00489591
-0.00123842
0.00501384
0.00013336
0.00455534
0.00249875
0.00342491
0.00495872
0.00195939
0.00591433
0.000776594
0.00447743
0.000451233
0.000944772
0.00153499
-0.0046665
0.00381564
-0.00923743
0.00520503
-0.00570441
0.00427059
0.00215425
0.000560368
0.0112329
-0.00582897
0.0221343
-0.013153
0.0284992
-0.018544
0.0238754
-0.0198797
0.00990849
-0.0170399
-0.00684173
-0.0138136
-0.0164756
0.0109042
-0.106168
0.0153693
-0.0226447
0.0434089
-0.129355
0.0808936
-0.125431
0.0363718
0.215259
0.00985289
0.0910601
0.000902046
0.0248694
0.00112057
-0.000677415
0.0129367
-0.0476339
0.0163846
-0.0138763
0.0187665
-0.0159563
0.0109715
0.0149936
-0.0138774
0.0791932
-0.0535445
0.150282
-0.0895794
0.160866
-0.11002
0.11542
-0.115696
0.0520207
-0.110168
-0.0064984
-0.095699
-0.0559718
-0.0754441
-0.0870115
-0.0506139
-0.113194
-0.0213748
-0.133357
0.00415343
-0.107184
0.0131191
-0.035208
0.0163811
-0.0176025
0.0111396
0.017231
0.00730496
0.0169909
-0.0173712
0.0664029
0.0281002
-0.0660117
0.0668738
0.0289764
0.0673704
0.0298813
0.0676625
0.0307245
0.0674265
0.0312872
0.06637
0.0313855
0.064325
0.0309474
0.0612703
0.0299849
0.0573115
0.0285609
0.0526423
0.0267665
0.0475034
0.0247058
0.042145
0.0224844
0.0367957
0.0202015
0.0316408
0.0179417
0.0268136
0.0157753
0.0223941
0.0137499
0.0184191
0.0118944
0.0148935
0.01022
0.0118014
0.00872563
0.00911518
0.00740321
0.00680066
0.00623967
0.00482193
0.00522143
0.00314286
0.0043337
0.00172904
0.00356259
0.000548501
0.00289594
-0.000428084
0.0023218
-0.00122768
0.00182935
-0.00187446
0.00140923
-0.00239005
0.00105122
-0.00279338
0.000748588
-0.00310047
0.000495064
-0.00333019
0.000284275
-0.00349148
0.000109267
-0.00359313
-3.60597e-05
-0.00365265
-0.000149235
-0.00367319
-0.0002402
-0.00366347
-0.000308456
-0.00362976
-0.000359072
-0.00357759
-0.000394242
-0.00351163
-0.000416552
-0.00343558
-0.000429285
-0.00335196
-0.000436572
-0.00326248
-0.000440667
-0.00316892
-0.000440863
-0.0030726
-0.000438373
-0.00297505
-0.000431337
-0.0028787
-0.000415343
-0.00278663
-0.000387615
-0.00270245
-0.00034551
-0.00262991
-0.000288633
-0.00257202
-0.000220158
-0.00253003
-0.000147571
-0.0025023
-8.2869e-05
-0.00248318
-4.31814e-05
-0.00246181
-4.95928e-05
-0.0024211
-0.000129797
-0.0023371
-0.00031433
-0.00218007
-0.000629588
-0.0019183
-0.00108463
-0.00152465
-0.00165839
-0.000986985
-0.00228075
-0.000317336
-0.00284032
0.000440038
-0.0031866
0.00121524
-0.0032219
0.00192623
-0.00290861
0.00250709
-0.00234467
0.00293697
-0.00173964
0.00324121
-0.00127913
0.00347086
-0.00104278
0.00367932
-0.00101742
0.0039336
-0.00123838
0.00427111
-0.00156023
0.0047344
-0.00199708
0.00528231
-0.00215574
0.00581461
-0.0017707
0.00605401
-0.000106018
0.00564688
0.00290589
0.00443125
0.00617436
0.00275574
0.00758985
0.0013384
0.00589477
0.000877364
0.00140583
0.00203379
-0.00582291
0.00459576
-0.0117994
0.00612836
-0.00723698
0.00475198
0.00353066
-0.000119928
0.0161049
-0.00795879
0.0299732
-0.016385
0.0369255
-0.0221487
0.029639
-0.0229792
0.010739
-0.0192783
-0.0105427
-0.0154016
-0.0203522
0.0111093
-0.132679
0.0196313
-0.0311667
0.0475551
-0.157279
0.0878106
-0.165686
0.0460172
0.257053
0.014431
0.122646
0.00231985
0.0369805
0.00223326
-0.000590861
0.0156504
-0.0610509
0.0196926
-0.0179185
0.0212369
-0.0175006
0.00958118
0.0266494
-0.0218044
0.110579
-0.0676519
0.19613
-0.10545
0.198664
-0.124377
0.134346
-0.128482
0.0561261
-0.121424
-0.0135567
-0.105043
-0.0723523
-0.0824294
-0.109625
-0.0553979
-0.140225
-0.0242422
-0.164513
0.00498782
-0.136414
0.0166575
-0.0468777
0.0200649
-0.0210099
0.0136047
0.0236912
0.00947313
0.0211224
-0.0236129
0.0706793
0.0277577
-0.0703368
0.0710475
0.0286081
0.0714479
0.0294809
0.0718013
0.030371
0.07194
0.0311486
0.0716467
0.0316789
0.0707153
0.0318787
0.0689965
0.0317037
0.0664208
0.0311367
0.0630017
0.0301855
0.0588273
0.0288802
0.054045
0.0272668
0.0488425
0.025404
0.0434257
0.0233586
0.0379952
0.0212057
0.0327251
0.01902
0.0277489
0.0168705
0.0231558
0.014813
0.0189947
0.0128868
0.0152823
0.0111156
0.0120125
0.00950952
0.00916421
0.00806973
0.00670736
0.00679051
0.00460757
0.00566243
0.0028291
0.00467465
0.00133642
0.00381482
9.52138e-05
0.00307074
-0.000925262
0.00242965
-0.00175544
0.00188114
-0.00242125
0.00141419
-0.00294628
0.00102003
-0.00335068
0.000688737
-0.00365531
0.000413983
-0.00387915
0.000187821
-0.00402326
-5.27783e-06
-0.00411667
-0.000146832
-0.00416156
-0.00026358
-0.00416806
-0.000352569
-0.00414432
-0.000417979
-0.00409726
-0.000463628
-0.00403242
-0.00049415
-0.00395378
-0.000515217
-0.00386421
-0.00053024
-0.00376648
-0.000538591
-0.00366275
-0.000542109
-0.00355517
-0.000538924
-0.00344689
-0.000523624
-0.00334173
-0.000492774
-0.0032441
-0.000443132
-0.00315856
-0.000374168
-0.00308883
-0.000289872
-0.00303661
-0.000199767
-0.00300027
-0.000119158
-0.00297342
-6.99492e-05
-0.00294375
-7.92115e-05
-0.00289169
-0.000181814
-0.00279001
-0.000415991
-0.00260489
-0.00081469
-0.00230028
-0.00138922
-0.00184499
-0.00211365
-0.00122418
-0.00290153
-0.000449592
-0.00361489
0.00043109
-0.00406726
0.00133983
-0.00413061
0.00218235
-0.0037511
0.00287851
-0.0030408
0.00339732
-0.00225843
0.00376199
-0.00164377
0.0040297
-0.00131047
0.00426324
-0.00125095
0.00454511
-0.00152022
0.00492452
-0.00193962
0.00545889
-0.00253144
0.00611244
-0.00280927
0.00678767
-0.00244592
0.00718408
-0.000502433
0.00687888
0.0032111
0.00562431
0.00742894
0.00375528
0.00945888
0.0020842
0.00756586
0.00144495
0.00204509
0.00261833
-0.00699627
0.00540511
-0.0145861
0.00702394
-0.00885579
0.0050843
0.00547033
-0.00110014
0.0222893
-0.0105085
0.0393816
-0.0199337
0.0463508
-0.0258868
0.035592
-0.0260488
0.0109011
-0.0215687
-0.0150229
-0.0168411
-0.0250797
0.00997505
-0.159495
0.0251594
-0.046351
0.0512657
-0.183385
0.0905804
-0.205
0.056045
0.291589
0.0200878
0.158603
0.00443808
0.0526302
0.00365398
0.000193287
0.0184714
-0.0758683
0.0231275
-0.0225745
0.0233215
-0.0176945
0.0069632
0.0430077
-0.031478
0.14902
-0.0828339
0.247485
-0.120859
0.236689
-0.137701
0.151188
-0.140618
0.0590431
-0.13235
-0.0218246
-0.114241
-0.0904612
-0.0892934
-0.134573
-0.0601315
-0.169387
-0.0279843
-0.19666
0.00497408
-0.169372
0.0205303
-0.0624339
0.0242026
-0.0246821
0.0165213
0.0313725
0.0121578
0.025486
-0.0311103
0.0752673
0.0274484
-0.074958
0.0755814
0.0282941
0.0759068
0.0291555
0.076219
0.0300589
0.0764478
0.0309198
0.0764771
0.0316496
0.076162
0.0321938
0.0753533
0.0325125
0.0739208
0.0325691
0.0717715
0.0323348
0.0688598
0.0317918
0.0651939
0.0309327
0.060837
0.0297609
0.0559046
0.0282911
0.0505561
0.0265542
0.0449778
0.0245982
0.0393612
0.0224871
0.0338808
0.0202934
0.0286776
0.0180899
0.023852
0.0159412
0.0194638
0.0138978
0.0155393
0.0119943
0.0120788
0.0102511
0.00906501
0.00867634
0.00646957
0.00727027
0.00425763
0.00602691
0.00239146
0.00493688
0.000832753
0.00398815
-0.000454943
0.00316858
-0.00150642
0.00246552
-0.00235441
0.00186804
-0.00302707
0.0013615
-0.00355043
0.000937415
-0.00394716
0.000584561
-0.00424671
0.000294332
-0.00444815
5.45685e-05
-0.00458224
-0.000129491
-0.00465867
-0.000276131
-0.00468698
-0.000389671
-0.00467768
-0.000472954
-0.0046391
-0.00053275
-0.00457741
-0.000576914
-0.00449711
-0.000610541
-0.00440249
-0.000633211
-0.0042969
-0.000647707
-0.00418339
-0.000652441
-0.00406604
-0.000640977
-0.00394959
-0.000609217
-0.00383941
-0.000553308
-0.003741
-0.000472566
-0.00365899
-0.000371874
-0.00359566
-0.000263075
-0.00354953
-0.000165235
-0.00351368
-0.000105727
-0.0034744
-0.000118445
-0.00340985
-0.000246337
-0.00328962
-0.000536203
-0.00307599
-0.00102831
-0.00272859
-0.00173659