/*--------------------------------*- C++ -*----------------------------------*\
| =========                 |                                                 |
| \\      /  F ield         | OpenFOAM: The Open Source CFD Toolbox           |
|  \\    /   O peration     | Version:  2412                                  |
|   \\  /    A nd           | Website:  www.openfoam.com                      |
|    \\/     M anipulation  |                                                 |
\*---------------------------------------------------------------------------*/
FoamFile
{
    version     2.0;
    format      ascii;
    arch        "LSB;label=32;scalar=64";
    class       surfaceScalarField;
    location    "0.845";
    object      ddtCorrDdt0(phi);
}
// * * * * * * * * * * * * * * * * * * * * * * * * * * * * * * * * * * * * * //

dimensions      [0 3 -2 0 0 0 0];

oriented        oriented;

internalField   nonuniform List<scalar> 
24930
(
-0.00131942
-0.00102668
-0.000610972
-0.00205332
0.000106559
-0.00385421
-0.000136904
-0.00435535
-0.00179805
-0.00163723
-0.00332482
0.00289032
-0.000242957
0.00311632
0.00787427
-0.00351052
0.0107312
-0.00980325
-0.00449769
-0.00451811
-0.028426
0.00957077
-0.0221874
0.0140679
0.0253189
-0.000746922
0.0570244
-0.0244518
0.0170533
-0.0163415
-0.0786616
0.0188045
-0.0938637
0.0408876
0.0372332
0.00921254
0.184483
-0.0569526
0.11948
-0.0795309
-0.187547
0.00166978
-0.408538
0.224701
-0.232537
0.116482
0.836909
-0.195342
0.89373
-0.259112
-0.427717
0.102932
-0.913495
0.10675
-0.0265256
-0.00854593
0.281522
-0.00665523
0.167379
0.0222018
-0.00323041
0.0105119
-0.0894994
-0.0122207
-0.0429703
-0.00984013
0.0282535
0.00598161
0.0363994
0.00982301
-0.00514817
0.000824945
-0.0288528
-0.00478464
-0.0103915
-0.00110194
0.0154804
0.0042479
0.0163672
0.00297524
-0.00336086
-0.00101199
-0.0112258
-0.00187893
-0.00393644
0.000125868
0.00409411
0.00117292
0.00454725
6.34903e-05
0.000201369
-0.00122051
-0.00244034
-0.00116792
-0.00134111
-0.000432929
0.000885064
-0.000202215
0.00152186
-0.000514289
0.000528812
-0.000632448
-0.000372963
-0.000229363
-0.000250421
0.000367756
0.000239671
0.000786592
0.000141849
0.00103191
-0.0002464
0.00128517
0.000646983
0.00170837
0.00232339
0.00210721
0.00127316
0.00236024
-0.000457582
0.0024422
-0.00146819
0.0023723
-0.0017493
0.00208101
-0.00123046
0.00152248
-0.000349535
0.000630498
0.000457051
-0.000551345
0.000918876
-0.0019612
0.000867078
-0.00348772
0.000648206
-0.00495659
0.000523528
-0.00615372
0.000939257
-0.00679133
0.000801311
-0.00682035
-0.000761673
-0.00615546
-0.00225484
-0.00484994
-0.00253593
-0.00321872
-0.00354116
-0.00168865
-0.00462992
-0.000615128
0.00227538
0.000611873
0.00446605
0.00141919
0.00350979
0.00177136
0.00187771
0.00214458
0.000333415
0.00366833
-0.0017382
0.0066051
-0.00497993
0.00894097
0.00304916
0.00882928
0.00124624
0.00725779
-0.00330828
0.00582583
-0.00327739
0.00404623
-0.00121393
0.00646167
-0.00603304
0.0100999
0.00408111
0.0105145
0.0258072
-0.00201678
0.018785
0.0527302
-0.0424973
0.0191102
0.0169335
-0.0492907
0.0667806
0.0368414
-0.101507
0.0345567
-0.00603989
-0.00442238
0.0604448
0.00397379
-0.01423
0.349136
-0.350117
-0.00851084
0.347761
-0.00706426
0.000988495
-0.00482205
-0.00353585
0.011998
-0.0347818
0.0484278
-0.0326841
0.0668385
-0.0158129
0.059496
0.00707657
0.0284861
0.0287089
-0.00908526
0.039692
-0.0381499
0.0199794
-0.0423686
0.000451923
-0.045623
0.00189674
-0.0567772
0.00784364
-0.0496258
-0.00929813
-0.0306818
-0.0195198
-0.0135048
-0.0161212
-0.00453213
-0.00683915
0.00266153
-0.00436095
0.0100922
-0.00526361
0.00805721
0.00230242
0.00517896
-0.00122149
-0.000424408
-0.00123242
-0.00375638
-0.000563267
-0.00670559
-0.000442824
-0.00701503
-0.00124945
-0.00203137
-0.00164891
0.00323896
-0.00179114
0.000932771
-0.000937144
-0.00813986
0.00345607
-0.0105027
0.00952858
-0.000387545
0.000771518
0.0109213
-0.0186152
0.00821494
-0.0199671
-0.00992441
0.00832146
-0.0185511
0.0363612
-0.0050166
0.0282055
0.0271222
-0.0403846
0.0315059
-0.0825715
-0.0135199
-0.0150867
-0.0642809
0.143699
-0.0436859
0.209484
0.0631554
-0.0707165
0.149417
-0.903144
-0.00323288
0.0354212
-0.160589
1.30494
-0.120281
0.413682
0.132031
-0.785708
0.0365245
0.136335
-0.033369
0.214826
0.00641988
-0.0221654
0.0272437
-0.0222122
0.0040539
-0.0347808
-0.0156296
-0.0431551
-0.00562385
-0.0199167
0.0105937
0.0170863
0.0100619
0.0202164
-0.000516021
-0.00591533
-0.00391675
-0.0185225
0.00184019
-0.0048258
0.00605667
0.00957976
0.00364905
0.00758282
-0.000312772
-0.00350463
-0.000599765
-0.00681436
0.00153415
-0.00108855
0.00227196
0.00389136
0.000919024
0.00269774
-0.000337865
-0.000711156
-0.000160033
-0.00113107
0.000624557
0.00121593
0.000838481
0.00295351
0.000542757
0.00266352
0.000531689
0.00182342
0.00110949
0.00191744
0.00190937
0.00257307
0.00256865
0.00260063
0.0031597
0.00216676
0.00379461
0.00305103
0.00463838
0.00295948
0.00550641
0.00154282
0.00618481
-0.000333496
0.0065693
-0.00198426
0.00654454
-0.00311726
0.00586644
-0.00332242
0.00434686
-0.00292698
0.00177518
-0.00169067
-0.00178922
-4.47857e-05
-0.00614209
0.00143511
-0.0109458
0.00250305
-0.0155733
0.00311601
-0.0192564
0.00404658
-0.0211608
0.00450278
-0.0208711
0.00329365
-0.0181691
0.000713577
-0.0134268
-0.00196805
-0.00777824
-0.00406047
-0.00238976
-0.00461128
0.00174948
-0.000269352
0.00525106
-0.00215513
0.00757268
-0.00195078
0.00878874
-0.00186492
0.0094155
-0.00257247
0.012227
-0.00581455
0.0192009
-0.00924371
0.0265993
-0.00545356
0.0292855
-0.00200095
0.0255106
0.00180915
0.0183056
0.00295409
0.00929515
0.00814658
0.0114662
0.000411291
0.0326833
-0.0205746
0.0382144
0.0107776
0.0112676
0.0464191
0.149981
-0.171489
0.106223
0.0563447
-0.140007
0.301375
0.0632132
-0.296662
0.170291
-0.129211
-0.000154235
0.244402
0.0038775
-0.0176368
-0.0321991
-0.299678
-0.0402841
0.354297
-0.0285733
-0.0115362
-0.0139664
-0.0185076
0.0620033
-0.0875393
0.15814
-0.118741
0.227585
-0.0874065
0.185125
0.0387186
0.0662087
0.137246
-0.0588129
0.154146
-0.135571
0.102069
-0.136346
0.00406566
-0.140434
0.00830017
-0.178557
0.0492998
-0.160884
-0.0252874
-0.0970633
-0.0817085
-0.0414638
-0.069116
-0.0131826
-0.0322832
0.0121456
-0.027999
0.0334882
-0.0270343
0.025331
0.00987529
0.0258567
-0.00010338
0.000492449
-0.00158485
-0.00294092
0.000994541
-0.0074789
-9.87961e-05
-0.00805205
-0.00174936
-0.00249309
-0.00179139
0.0030845
-0.000586696
0.000399535
0.00010404
-0.00940615
-0.000392921
-0.0131781
-0.000176516
-0.00213009
-0.00159571
0.012111
-0.00664668
0.010007
-0.00816331
-0.0120427
0.00158442
-0.0279383
0.0174675
-0.00688332
0.0235966
0.0317281
-0.0145257
0.0340722
-0.0675787
-0.0188599
-0.0577502
-0.0696463
0.0863182
-0.0215824
0.279689
0.119957
0.169171
0.0230363
-0.80185
-0.122017
-0.700312
-0.060984
0.772355
0.0739445
0.858752
0.0778411
-0.936744
-0.0271074
-0.176923
-0.0477476
0.113296
0.016622
-0.118396
0.0285072
-0.0243138
9.02618e-05
-0.0111403
-0.0162705
-0.0446583
-0.00251737
-0.0271165
0.0129392
0.0178843
0.0100681
0.0240107
-0.000831335
-0.00625948
-0.00293931
-0.0212239
0.00360926
-0.00511998
0.0073696
0.0115383
0.00437303
0.0082693
0.000369899
-0.004812
0.000392594
-0.00785543
0.00269217
-0.000577136
0.00335097
0.00470488
0.00190539
0.00251048
0.00071588
-0.00154564
0.00107407
-0.00158351
0.00202842
0.00133624
0.00236081
0.00305764
0.00218341
0.00240586
0.00234613
0.001455
0.00315176
0.00178219
0.00420282
0.00263108
0.00512871
0.00253447
0.00603622
0.00174606
0.00705193
0.00308882
0.00829092
0.00226969
0.00956352
0.000934636
0.0105974
-0.000642792
0.0111859
-0.00205227
0.0110842
-0.00282915
0.00978108
-0.00232186
0.00723433
-0.00134457
0.0028165
0.00127557
-0.00330653
0.00433279
-0.010752
0.00706724
-0.0188849
0.00889421
-0.0265933
0.00938405
-0.0325239
0.00904737
-0.0353191
0.0070737
-0.0342294
0.00291917
-0.0289609
-0.00302598
-0.0202117
-0.00898677
-0.00989854
-0.0132529
-0.000101587
-0.0142632
0.00750384
-0.00833643
0.0133058
-0.00853496
0.0168545
-0.00618843
0.0182178
-0.00482711
0.0179962
-0.0041915
0.0207934
-0.00954918
0.0309313
-0.0179066
0.0432816
-0.021325
0.0493902
-0.00739875
0.0440888
0.006464
0.0293
0.0158212
0.0105714
0.025071
0.0118509
0.0043444
0.0525593
-0.0596732
0.0669689
0.00817709
0.0383547
0.0781755
0.252172
-0.381937
0.241552
0.0603149
-0.219002
0.76018
0.022677
-0.543667
0.310747
-0.442147
0.0277142
0.555398
0.00711815
-0.0016297
-0.0542269
-0.23037
-0.0739841
0.362672
-0.0511813
-0.0313056
-0.0171142
-0.0506569
0.129099
-0.224159
0.31071
-0.296606
0.401667
-0.179897
0.302186
0.134607
0.0789222
0.358382
-0.133434
0.366693
-0.243208
0.222373
-0.228083
-0.0134087
-0.230797
0.0095741
-0.298992
0.115991
-0.271758
-0.0552079
-0.165285
-0.18978
-0.0698485
-0.164056
-0.0208242
-0.0792657
0.024592
-0.0726483
0.0579488
-0.060328
0.0310298
0.0366595
0.0526754
0.00112294
0.00192395
-0.00121562
-0.00193386
0.00217593
-0.00706036
0.000782138
-0.00733637
-0.000701984
-0.00162423
-0.00113222
0.00321543
-0.00079014
-0.000806948
-0.00115783
-0.0111219
-0.00266864
-0.0147165
-0.00360805
-0.00281871
-0.00236371
0.0128882
-0.000888961
0.0112202
-0.000402467
-0.0123961
0.000601421
-0.0294014
0.00519466
-0.0108173
0.00918006
0.0274443
-0.00720184
0.0362089
-0.0387787
-0.00924096
-0.0385961
-0.0567239
0.043662
-0.0220413
0.160733
0.0625529
0.0851403
-0.0100923
-0.425179
-0.094127
-0.383013
0.0066057
0.564104
0.19983
0.988085
-0.0155883
-0.473355
-0.0901295
-0.459727
-0.0471318
0.0820218
0.0283445
-0.0919953
0.0296707
-0.00599142
-0.00344354
0.0134824
-0.0158952
-0.0461673
0.000838823
-0.0237463
0.0150567
0.0225304
0.0100697
0.0226673
-0.000811481
-0.0108049
-0.00164002
-0.0223746
0.00544475
-0.00263388
0.00873093
0.0135062
0.00518714
0.00669499
0.00119046
-0.00726133
0.00151798
-0.00845762
0.00395696
0.000365863
0.00452473
0.0051201
0.00300016
0.00161134
0.00190347
-0.0027824
0.0024625
-0.00214716
0.00359918
0.00131245
0.00406495
0.00287768
0.00403042
0.00186028
0.00439682
0.000914654
0.00545883
0.00158069
0.0067889
0.00268451
0.00801058
0.00258637
0.00924376
0.0015743
0.0106865
0.00236889
0.0123682
0.000954806
0.0140627
-5.33105e-05
0.015444
-0.00103234
0.016213
-0.00181224
0.015987
-0.00172847
0.0142207
-8.26374e-05
0.0102977
0.00231527
0.00389447
0.00660352
-0.00494488
0.0113543
-0.0156289
0.0155446
-0.0271767
0.0183599
-0.0379338
0.0186156
-0.0459462
0.015983
-0.0493364
0.00971112
-0.0470074
0.000618092
-0.0386254
-0.0100531
-0.0252298
-0.0196175
-0.00956616
-0.0254263
0.00526957
-0.0275022
0.0167966
-0.0187878
0.0250396
-0.0159267
0.0295175
-0.0104452
0.0302278
-0.00685978
0.02792
-0.00382655
0.0293312
-0.0123925
0.041614
-0.030985
0.0590932
-0.0375371
0.0695866
-0.0186583
0.0628895
0.0113368
0.0392465
0.0370361
0.00856945
0.0537836
0.00808404
0.00885913
0.0676039
-0.118231
0.0958521
-0.0132946
0.0804244
0.0998851
0.355592
-0.653448
0.549459
-0.163147
-0.265961
1.57765
-0.171986
-0.633173
0.435499
-1.09787
0.065799
0.959274
0.0144357
0.0484875
-0.0806357
-0.129828
-0.109281
0.38228
-0.0725942
-0.0656291
-0.0102417
-0.111431
0.221114
-0.451021
0.479949
-0.555204
0.579526
-0.284479
0.400879
0.307918
0.0598396
0.695801
-0.230405
0.654206
-0.353294
0.307572
-0.310061
-0.0577872
-0.314059
0.0147819
-0.415636
0.220412
-0.381513
-0.0891186
-0.220455
-0.351023
-0.0978737
-0.285875
-0.0265866
-0.148403
0.0402231
-0.137975
0.0824986
-0.102641
0.0400176
0.0787471
0.0913619
0.00151121
0.00232684
-0.00097104
-0.00158923
0.00217588
-0.00606216
0.00137603
-0.00548645
0.000442651
0.000230331
-0.000330275
0.00375644
-0.00121014
-0.00205543
-0.00274184
-0.0130204
-0.00422841
-0.0155561
-0.0039657
-0.0022516
-0.000836577
0.0139218
0.00201158
0.011221
0.000872995
-0.0136909
-0.00299153
-0.0310017
-0.00131512
-0.0133989
0.0055839
0.0249986
0.00152212
0.0370853
-0.0212499
-0.000677771
-0.0361134
-0.045548
0.000733218
-0.0294998
0.0753393
0.00767518
0.054201
-0.0133109
-0.102061
-0.0119834
0.0114588
0.0588811
0.402851
0.145149
0.458171
-0.0449201
-0.470495
-0.117127
-0.571373
-0.0239597
0.0302648
0.0384575
0.0439767
0.0309694
0.011755
-0.00818584
0.0436206
-0.0149021
-0.0453768
0.00461269
-0.0164739
0.0170497
0.0272105
0.00992141
0.0191309
-0.000608405
-0.0153825
-3.03169e-05
-0.021541
0.00744139
0.000975097
0.0100812
0.0150565
0.00601791
0.00524829
0.00215312
-0.00889256
0.00282757
-0.00828923
0.00536175
0.00146927
0.00580862
0.0053133
0.00423133
0.000516132
0.00327146
-0.0041317
0.00405289
-0.00295798
0.0053743
0.000766648
0.0059808
0.0019776
0.00611
0.000514352
0.00670483
-0.000508613
0.00804289
0.000331254
0.00966744
0.00147259
0.011199
0.00116938
0.0127742
-0.000178051
0.0146327
0.00014221
0.016759
-0.000978558
0.0188776
-0.00170067
0.0205957
-0.00224562
0.0215142
-0.00219066
0.0211108
-0.000690852
0.0186458
0.0029731
0.0134251
0.00795684
0.00494349
0.0151841
-0.00670426
0.0227396
-0.0206899
0.029024
-0.0356479
0.0328147
-0.0493414
0.0320246
-0.0591944
0.0256709
-0.0628012
0.0131407
-0.0587393
-0.00359152
-0.0466673
-0.0219389
-0.0279757
-0.0374845
-0.00630588
-0.0457528
0.0143523
-0.0470378
0.030129
-0.03131
0.040884
-0.0260575
0.0458532
-0.0156344
0.0449537
-0.00745249
0.0391176
0.00025017
0.0375572
-0.0117982
0.0509556
-0.0448023
0.0737226
-0.0605548
0.0900105
-0.0361519
0.0824722
0.0177669
0.0484442
0.0695917
0.00308172
0.0989873
-0.000390088
0.01703
0.0751871
-0.193351
0.123021
-0.0513476
0.139545
0.08882
0.452445
-0.967908
1.03339
-0.758148
-0.28841
2.91558
-0.607921
-0.31369
0.515948
-2.30327
0.120691
1.39432
0.0258686
0.141146
-0.110392
0.0144589
-0.146152
0.407677
-0.0907254
-0.118718
0.0103728
-0.211136
0.335301
-0.777169
0.668326
-0.889781
0.752357
-0.373176
0.469328
0.589944
0.00617622
1.16107
-0.342338
1.00549
-0.453287
0.495372
-0.376373
-0.136177
-0.390605
0.0283144
-0.528481
0.359032
-0.486804
-0.133187
-0.294002
-0.546355
-0.125736
-0.4546
-0.0298197
-0.242235
0.0588108
-0.225324
0.106299
-0.150301
0.0458341
0.139263
0.141828
0.00119121
0.00191182
-0.000981454
-0.00191608
0.00150462
-0.00529658
0.00134196
-0.00346342
0.00120731
0.00242321
0.000562675
0.00453994
-0.00112024
-0.00306344
-0.00347284
-0.0145283
-0.0046877
-0.0157705
-0.00302384
-0.00122086
0.000888365
0.0145914
0.00264342
0.0101812
-0.00112328
-0.0153879
-0.00646978
-0.0321111
-0.0028421
-0.0147077
0.00842827
0.0228545
0.00861099
0.0363629
-0.0160928
0.00389945
-0.0442292
-0.0368698
-0.0281909
-0.0336833
0.0407126
-0.01467
0.0778066
-0.00226464
0.0798646
0.0350666
0.151152
0.0753012
0.181938
0.0628246
-0.0127437
-0.0668073
-0.519585
-0.0913917
-0.475458
0.00371177
-0.0158865
0.0398577
0.118683
0.0302889
-0.114746
-0.0149537
-0.00393181
-0.0130994
-0.0431506
0.00866301
-0.0080533
0.0186136
0.03082
0.00950713
0.0140127
-0.000194468
-0.0193513
0.00187036
-0.0191285
0.00951429
0.00510188
0.011362
0.0159094
0.00685892
0.00323425
0.00326595
-0.0101643
0.00431946
-0.00753459
0.00689517
0.00259735
0.00719247
0.00510477
0.00559536
-0.000885011
0.00481847
-0.00556642
0.00583844
-0.00388748
0.00733925
-9.85698e-05
0.00808848
0.000650582
0.00839859
-0.00122416
0.00924159
-0.00228633
0.0108676
-0.00131335
0.0127924
-0.000211434
0.0146391
-0.000752411
0.0165627
-0.00237867
0.0188402
-0.00257786
0.0214074
-0.00357061
0.0239362
-0.00407325
0.0259672
-0.00409737
0.0270012
-0.00294671
0.0263768
0.000431647
0.0231933
0.00678383
0.0166102
0.0152614
0.00600946
0.0264025
-0.00847833
0.03766
-0.0257731
0.0465978
-0.044093
0.0513997
-0.0605849
0.0488643
-0.0720393
0.0374083
-0.075517
0.0167144
-0.0692758
-0.00998583
-0.0529875
-0.038403
-0.0283855
-0.0619009
-1.08626e-05
-0.0733921
0.0268958
-0.0728887
0.0476033
-0.0538385
0.0609478
-0.0388143
0.0659314
-0.0207315
0.0623889
-0.00528238
0.0515246
0.00957401
0.0454225
-0.00647756
0.0589577
-0.0590657
0.0872892
-0.0912392
0.111516
-0.0625168
0.103143
0.0249844
0.0571504
0.114529
-0.00596669
0.162923
-0.014531
0.0307238
0.0733137
-0.281502
0.148346
-0.11682
0.221978
0.0210997
0.529335
-1.28023
1.45178
-1.74214
-0.326985
4.73383
-1.29629
0.662526
0.522908
-4.24779
0.183983
1.77511
0.0416392
0.283224
-0.142347
0.208383
-0.184298
0.439047
-0.103397
-0.197671
0.0488202
-0.362271
0.476421
-1.2088
0.870167
-1.28792
0.907886
-0.416131
0.498013
1.00055
-0.0814787
1.74466
-0.459494
1.38508
-0.537548
0.495529
-0.425295
-0.250135
-0.462392
0.0658047
-0.635274
0.534974
-0.587738
-0.182358
-0.367672
-0.769085
-0.153957
-0.669267
-0.0303805
-0.364479
0.0799282
-0.334836
0.128524
-0.199185
0.0484164
0.219542
0.20246
0.000567347
0.00128072
-0.00100461
-0.00266512
0.000718984
-0.00509623
0.000798908
-0.00190568
0.00136051
0.00437997
0.00125828
0.0053483
-0.00055992
-0.00374924
-0.00332264
-0.0154386
-0.00441717
-0.015527
-0.0020415
-0.000295063
0.00184445
0.0145937
0.00214977
0.00875864
-0.00328107
-0.0164134
-0.008103
-0.0321375
-0.00192368
-0.01577
0.0115749
0.0190697
0.0115563
0.0327456
-0.0161479
0.00641345
-0.0491822
-0.0279818
-0.0380263
-0.0306189
0.0302059
-0.0166178
0.0912178
0.00710064
0.120584
0.0428507
0.110342
0.0583795
-0.0137538
0.00711549
-0.251144
-0.0695343
-0.44849
-0.0497818
-0.266092
0.0238815
0.075055
0.0504112
0.191178
0.0109745
0.00745723
-0.0188703
-0.0856493
-0.0102105
-0.0505005
0.0128847
0.00127715
0.0195028
0.0322541
0.00878526
0.00807586
0.000487977
-0.0217426
0.00405145
-0.0155058
0.0115808
0.00898427
0.0125023
0.0158328
0.0076995
0.00104519
0.00453692
-0.0108023
0.00598127
-0.00627508
0.00852755
0.0036105
0.00864949
0.00452641
0.00707535
-0.00244312
0.00652989
-0.0069613
0.00779905
-0.00487017
0.00946848
-0.00122495
0.0103612
-0.00101303
0.0108698
-0.00324144
0.0119794
-0.00430639
0.0139013
-0.00325272
0.0161272
-0.00227703
0.0182901
-0.0031125
0.0205604
-0.00503092
0.0232495
-0.00566528
0.0262428
-0.00662607
0.0291568
-0.00693139
0.0314706
-0.00636255
0.0325888
-0.00391131
0.0317171
0.00170963
0.0278054
0.0113227
0.0198642
0.0240145
0.00716942
0.0399661
-0.0101232
0.0557731
-0.0306783
0.0679152
-0.0522812
0.0737392
-0.0714387
0.0687208
-0.0842876
0.0507401
-0.0873334
0.0199201
-0.0785141
-0.0190661
-0.0575263
-0.0599027
-0.0264267
-0.0934121
0.00930063
-0.109221
0.0436881
-0.107157
0.0693514
-0.0743221
0.0853629
-0.0541511
0.0898322
-0.0254003
0.0825763
0.000702084
0.0651615
0.0257418
0.0529511
0.00529006
0.06566
-0.0723525
0.0998919
-0.127582
0.125831
-0.0911503
0.125105
0.024822
0.0652732
0.174114
-0.019165
0.249492
-0.0357594
0.0534188
0.0608501
-0.378956
0.177858
-0.224167
0.33816
-0.135145
0.557657
-1.50764
1.88841
-3.13667
-0.420414
7.11119
-2.08288
2.33969
0.449661
-6.93492
0.245955
2.02208
0.0621992
0.46781
-0.175123
0.45828
-0.223438
0.476155
-0.108436
-0.31122
0.108869
-0.579708
0.642038
-1.74894
1.07897
-1.73129
1.0342
-0.375862
0.478413
1.56023
-0.195937
2.42652
-0.575212
1.76907
-0.60141
0.537129
-0.46042
-0.393961
-0.533931
0.139259
-0.733993
0.737758
-0.683935
-0.235092
-0.449688
-1.00708
-0.183558
-0.936977
-0.0280459
-0.518851
0.10317
-0.465286
0.148619
-0.244945
0.0483186
0.320307
0.271745
-0.000128752
0.000791227
-0.000820084
-0.00350936
0.000130192
-0.0052362
0.000123205
-0.00089712
0.00106298
0.00580232
0.00159427
0.00594972
0.000111048
-0.0041896
-0.00272274
-0.0158333
-0.00386173
-0.0150009
-0.00135887
0.000411683
0.0022079
0.0142061
0.0015851
0.00766971
-0.0043245
-0.0162167
-0.00811477
-0.0311166
-0.00083127
-0.0173352
0.0123297
0.0130949
0.0114493
0.0268996
-0.0150085
0.00875868
-0.0453212
-0.0168864
-0.0366042
-0.022525
0.0185807
-0.0140004
0.0686971
0.00567169
0.0769959
0.0278894
0.0180918
0.0318654
-0.11925
-0.0186316
-0.270933
-0.0521279
-0.275625
-0.0123726
-0.0620799
0.0392456
0.146673
0.0384019
0.144042
-0.00165811
-0.00639112
-0.0168538
-0.0783196
-0.00480401
-0.0333181
0.0168804
0.0202802
0.0195459
0.0315196
0.00784324
0.00180215
0.00150613
-0.0220575
0.00648357
-0.0113956
0.0135671
0.0120756
0.0134812
0.0146878
0.00856934
-0.00118798
0.0059899
-0.0107957
0.00780619
-0.00467518
0.0102382
0.00436116
0.010165
0.00355422
0.00866294
-0.00411865
0.0083933
-0.00829635
0.00991245
-0.00591148
0.0117327
-0.00260518
0.0127674
-0.00297452
0.0134908
-0.00547796
0.0148814
-0.0065037
0.0171008
-0.00541765
0.0196212
-0.00464254
0.0220935
-0.00581143
0.0247024
-0.00802377
0.0277847
-0.00905137
0.0311795
-0.0100373
0.0344451
-0.0101502
0.0370079
-0.00892338
0.0381859
-0.00499534
0.037063
0.00317956
0.0324506
0.0165471
0.0232185
0.0340801
0.00852514
0.0556561
-0.0114696
0.0768062
-0.0351907
0.0926884
-0.0599913
0.0995575
-0.0817228
0.0913427
-0.0958383
0.0654097
-0.0982433
0.0224468
-0.0865527
-0.0311708
-0.0604797
-0.0867665
-0.0223729
-0.132337
0.0214011
-0.153621
0.0628068
-0.148671
0.0950909
-0.110358
0.11397
-0.0728867
0.117537
-0.0291202
0.105569
0.0116259
0.0801923
0.0502601
0.0604845
0.0249575
0.0716164
-0.0840157
0.112221
-0.170974
0.150756
-0.132998
0.148556
0.0259165
0.0724169
0.250779
-0.037369
0.362778
-0.0657279
0.0889275
0.0394279
-0.485293
0.225109
-0.401412
0.498325
-0.406947
0.518567
-1.53568
1.99244
-4.69568
-0.541952
9.74366
-2.66054
4.49013
0.325969
-10.0724
0.298106
2.09275
0.0882117
0.679239
-0.207045
0.768528
-0.262894
0.520448
-0.103673
-0.469602
0.193398
-0.877517
0.831936
-2.3975
1.28537
-2.19309
1.12039
-0.214209
0.413535
2.27357
-0.324211
3.17371
-0.673085
2.12185
-0.645117
0.510547
-0.492609
-0.55013
-0.609552
0.256991
-0.820201
0.952413
-0.77767
-0.280118
-0.545594
-1.24302
-0.21652
-1.26822
-0.0233729
-0.709597
0.127887
-0.616022
0.16621
-0.283569
0.046133
0.441028
0.347439
-0.000820835
0.000510831
-0.000368703
-0.00424914
-0.000183051
-0.0053442
-0.000348076
-0.000204797
0.00067636
0.00663309
0.00159325
0.00615599
0.000557935
-0.0045162
-0.00204542
-0.0158432
-0.00320704
-0.0143357
-0.000896983
0.000918941
0.00229967
0.0137993
0.0013359
0.00739409
-0.00432322
-0.0146895
-0.00737444
-0.0292888
-0.000449973
-0.0194029
0.0111711
0.00578622
0.0106154
0.0201728
-0.0108972
0.0111363
-0.0358623
-0.00595246
-0.033093
-0.0145181
-0.000239292
-0.0145451
0.0270001
-0.00537426
0.0196198
0.00641318
-0.0341708
0.00780511
-0.112795
-0.020562
-0.162252
-0.0256398
-0.085528
0.0146295
0.0768253
0.0418759
0.153166
0.0231778
0.0712477
-0.0102898
-0.0559067
-0.0151791
-0.0856512
0.00263888
-0.0261641
0.0198373
0.0324034
0.0185016
0.0250356
0.0068001
-0.00636514
0.00283188
-0.0199608
0.00910923
-0.00790736
0.0153893
0.0138538
0.0142953
0.0124426
0.00950766
-0.00331489
0.00763872
-0.0101659
0.0097701
-0.00290344
0.0119939
0.00473275
0.011716
0.00219601
0.0103399
-0.0058617
0.0103824
-0.00955732
0.0121408
-0.00702569
0.0140878
-0.0042404
0.0152616
-0.00520734
0.0162144
-0.00789301
0.0178957
-0.00883708
0.0204068
-0.00776446
0.0232069
-0.00725151
0.0259739
-0.0087751
0.0289059
-0.0112703
0.032354
-0.0126688
0.0361171
-0.0137244
0.0396963
-0.0136416
0.0424767
-0.0116987
0.0437048
-0.00614788
0.0423572
0.00483794
0.0371187
0.0223733
0.0267309
0.0452771
0.0102043
0.0732256
-0.0123283
0.100473
-0.0390886
0.120646
-0.0670241
0.128649
-0.0913224
0.116609
-0.106709
0.0813389
-0.108407
0.024175
-0.093695
-0.0464751
-0.0622684
-0.119253
-0.0167238
-0.17906
0.035605
-0.206998
0.0869466
-0.200715
0.124007
-0.145186
0.146662
-0.0948733
0.148971
-0.031421
0.131474
0.0283751
0.0969562
0.0843782
0.068634
0.0537276
0.0776598
-0.0933782
0.125034
-0.221422
0.175301
-0.187235
0.173373
0.0265204
0.0777331
0.347727
-0.06194
0.507321
-0.105739
0.140991
0.0153892
-0.607811
0.314848
-0.694454
0.703303
-0.797608
0.398858
-1.23333
1.68029
-6.03924
-0.555705
12.0976
-2.74121
6.72902
0.206257
-13.1359
0.338646
2.00259
0.120437
0.901586
-0.236141
1.14248
-0.301567
0.573947
-0.0865736
-0.684488
0.304623
-1.26967
1.03871
-3.14406
1.47885
-2.64278
1.16
0.103348
0.312649
3.13001
-0.449712
3.94695
-0.754488
2.4306
-0.678096
0.425952
-0.535372
-0.696979
-0.692908
0.415718
-0.890765
1.15434
-0.871946
-0.301717
-0.660188
-1.45884
-0.255802
-1.67535
-0.0178901
-0.947939
0.153314
-0.786817
0.181288
-0.311752
0.042766
0.580384
0.427285
-0.00156554
0.000349632
0.000316029
-0.00489357
-0.000268701
-0.00522474
-0.000489679
0.000411931
0.000423529
0.00697831
0.00135791
0.00591984
0.000654351
-0.00482377
-0.00148277
-0.0155686
-0.00248519
-0.0136445
-0.000499242
0.00114893
0.00223752
0.0134266
0.00124593
0.0079733
-0.00378728
-0.0119392
-0.00638518
-0.0266573
-0.000541049
-0.0213253
0.0093567
-0.00155779
0.0100928
0.0133909
-0.00533578
0.0123714
-0.0253789
0.0018304
-0.0299208
-0.00980112
-0.0171074
-0.0183254
-0.00496245
-0.0178588
-0.00745854
-0.0089267
-0.0253786
-0.00100656
-0.0394289
-0.00931421
-0.0269617
-0.00190335
0.0473567
0.0264097
0.124173
0.0329173
0.104161
0.0077188
-0.000797107
-0.0149241
-0.0811849
-0.00946606
-0.0659491
0.0098654
-0.00103349
0.0209475
0.0377086
0.0163152
0.0167533
0.00614864
-0.0193578
0.00437079
-0.0174677
0.0118889
-0.00634688
0.0169595
0.0139479
0.014956
0.00927187
0.0105519
-0.00513204
0.00947547
-0.00897234
0.0118238
-0.00114972
0.0137443
0.004633
0.0132674
0.000493515
0.0120738
-0.00761003
0.012453
-0.0107366
0.0144277
-0.00823536
0.016473
-0.00613461
0.0177835
-0.00768738
0.018979
-0.0104534
0.0209551
-0.0112779
0.0237446
-0.0102638
0.0268025
-0.0100618
0.0298429
-0.0119452
0.0330758
-0.0147013
0.0368565
-0.0164576
0.0409491
-0.0176178
0.0448059
-0.0173356
0.0477833
-0.0146332
0.0490747
-0.00735467
0.047568
0.00663207
0.0418322
0.0286598
0.0304765
0.0573833
0.0123562
0.092355
-0.012488
0.126449
-0.0421497
0.15153
-0.0732137
0.160891
-0.100202
0.144551
-0.117053
0.0986618
-0.118183
0.0252141
-0.100483
-0.0649424
-0.063587
-0.157444
-0.0102755
-0.233841
0.0513066
-0.270011
0.110503
-0.260818
0.158556
-0.199536
0.182806
-0.118983
0.183985
-0.0324388
0.160457
0.0515127
0.116003
0.128941
0.0783437
0.0923828
0.0850726
-0.100181
0.139488
-0.27933
0.201772
-0.253989
0.199123
0.0273652
0.0798178
0.469127
-0.0944849
0.687862
-0.155792
0.211511
0.00208753
-0.767378
0.482337
-1.17202
0.92556
-1.24709
0.171449
-0.474294
1.1231
-7.06785
-0.291652
13.6352
-2.24612
8.75682
0.138165
-15.595
0.36949
1.81223
0.159888
1.11653
-0.260122
1.58197
-0.337631
0.639306
-0.0553955
-0.967499
0.44266
-1.77056
1.26444
-3.98083
1.64888
-3.03696
1.15255
0.60101
0.193953
4.09977
-0.554552
4.7066
-0.813485
2.69196
-0.713325
0.326622
-0.603658
-0.810999
-0.785059
0.599163
-0.946621
1.32039
-0.969985
-0.28088
-0.792478
-1.64023
-0.304316
-2.16673
-0.0123083
-1.23003
0.178561
-0.977294
0.194139
-0.327412
0.0391569
0.736332
0.509139
-0.00238187
0.000220852
0.00113519
-0.00545948
-0.000243589
-0.00486948
-0.000427904
0.00104918
0.00028495
0.00700544
0.0010076
0.00534598
0.000484243
-0.00512781
-0.00108734
-0.0150833
-0.00174216
-0.0130168
-8.67341e-05
0.000959671
0.00206513
0.0128549
0.00109776
0.00905375
-0.00315422
-0.00826567
-0.00536889
-0.0231159
-0.000735311
-0.0223303
0.00756371
-0.00789135
0.0097262
0.00686787
-0.00012563
0.0115391
-0.015744
0.00552539
-0.0247296
-0.00780455
-0.0228675
-0.0212791
-0.0141628
-0.024487
-0.00194046
-0.0137264
0.01348
0.000373418
0.0344982
0.00329937
0.0590649
0.0107434
0.0920792
0.0240142
0.0961964
0.017772
0.0347547
-0.00396468
-0.0477985
-0.0140091
-0.07557
-0.00180829
-0.0330359
0.015021
0.0212981
0.0200823
0.0346217
0.0125701
0.00570231
0.0067668
-0.0237555
0.00613836
-0.00436709
0.0147602
0.000278037
0.0181906
0.0128706
0.0154917
0.00562524
0.0117315
-0.00640891
0.0114658
-0.0073319
0.0138943
0.000379699
0.0154268
0.00400644
0.0147761
-0.00147425
0.0138207
-0.00929372
0.0145456
-0.0118385
0.0167016
-0.00957282
0.0188152
-0.00829304
0.0202626
-0.0103912
0.021713
-0.0131328
0.0239825
-0.013809
0.0270307
-0.0128984
0.0303185
-0.0130422
0.0336066
-0.0152752
0.0371136
-0.0182601
0.0411916
-0.0203651
0.0455743
-0.0216592
0.0496819
-0.0211825
0.0528553
-0.017701
0.0542553
-0.00864147
0.0527013
0.00845721
0.0466534
0.0352077
0.0345264
0.070168
0.0151621
0.112617
-0.0117246
0.154387
-0.0441611
0.185114
-0.0784359
0.196269
-0.108416
0.175396
-0.127177
0.117782
-0.128135
0.0259543
-0.107715
-0.0862784
-0.0654155
-0.201215
-0.00413751
-0.296796
0.0671107
-0.342879
0.138806
-0.333245
0.191543
-0.253776
0.222001
-0.148959
0.222347
-0.0323211
0.192776
0.0810826
0.13813
0.184228
0.0909234
0.141167
0.0955002
-0.104498
0.156995
-0.344639
0.230884
-0.333038
0.224879
0.0312354
0.0766043
0.620283
-0.136511
0.90848
-0.213118
0.297903
0.0210452
-1.0039
0.766571
-1.92063
1.10818
-1.59893
-0.140961
0.788234
0.586847
-7.86243
0.282761
14.0489
-1.3521
10.4775
0.143668
-17.1442
0.387658
1.60746
0.205979
1.30596
-0.276423
2.08588
-0.368649
0.719302
-0.00814989
-1.3297
0.607073
-2.38992
1.49865
-4.88939
1.78657
-3.33385
1.09555
1.29618
0.0819517
5.12608
-0.625525
5.42454
-0.859951
2.92765
-0.766643
0.225937
-0.706487
-0.875407
-0.886689
0.781996
-0.99868
1.43664
-1.07125
-0.210616
-0.93088
-1.78419
-0.367895
-2.73329
-0.00968294
-1.58558
0.202446
-1.18904
0.205387
-0.330269
0.0362976
0.906496
0.591413
-0.00316212
8.98937e-05
0.00193317
-0.00590823
-0.00021131
-0.00438259
-0.000330432
0.00166961
0.000190637
0.00685655
0.000654865
0.00461963
0.000207111
-0.00537467
-0.000839199
-0.0144563
-0.00106544
-0.0125217
0.000324817
0.000282885
0.00185061
0.0118493
0.000852433
0.0101307
-0.00265198
-0.00419382
-0.00451393
-0.0187981
-0.000985312
-0.0219945
0.00587531
-0.0125775
0.00914796
0.000983118
0.0039352
0.00902427
-0.00719628
0.00650333
-0.0166364
-0.00602691
-0.0182957
-0.0200777
-0.00878799
-0.023262
0.0123214
-0.0109423
0.0401538
0.00431847
0.0637873
0.00888498
0.0723739
0.0105079
0.066258
0.0123021
0.035864
0.00308814
-0.0196853
-0.00950339
-0.0595168
-0.0083245
-0.0476738
0.00570052
-0.000409435
0.0172858
0.0315572
0.016945
0.0230702
0.00924893
-0.00867897
0.00425665
-0.0284994
0.0111557
-0.00947081
0.0172314
0.00668054
0.018976
0.0110422
0.0159322
0.0017953
0.0130541
-0.00692511
0.0135442
-0.00543003
0.0158884
0.00147825
0.0169718
0.0028541
0.0161937
-0.00359084
0.0155257
-0.010844
0.0165863
-0.0128843
0.0188792
-0.0110787
0.0210334
-0.0107192
0.0226232
-0.0132951
0.0243401
-0.0159117
0.0268965
-0.0164251
0.0301785
-0.0156624
0.0336652
-0.016171
0.0371737
-0.0187292
0.0409268
-0.0219025
0.0452694
-0.024351
0.0499085
-0.0258058
0.0542566
-0.0251579
0.0576533
-0.0209109
0.0592464
-0.0100777
0.0578072
0.0101565
0.0516845
0.0417641
0.0381535
0.0844202
0.0188199