/*--------------------------------*- C++ -*----------------------------------*\
| =========                 |                                                 |
| \\      /  F ield         | OpenFOAM: The Open Source CFD Toolbox           |
|  \\    /   O peration     | Version:  2412                                  |
|   \\  /    A nd           | Website:  www.openfoam.com                      |
|    \\/     M anipulation  |                                                 |
\*---------------------------------------------------------------------------*/
FoamFile
{
    version     2.0;
    format      ascii;
    arch        "LSB;label=32;scalar=64";
    class       volScalarField;
    location    "1.185";
    object      p;
}
// * * * * * * * * * * * * * * * * * * * * * * * * * * * * * * * * * * * * * //

dimensions      [0 2 -2 0 0 0 0];

internalField   nonuniform List<scalar> 
12600
(
-0.547165
-82.5313
-59.7065
-7.24589
37.5918
71.8659
99.0798
121.621
140.819
157.466
172.076
185.048
196.613
206.92
216.131
224.396
231.986
238.941
245.298
250.988
256.015
260.446
264.354
268.182
271.769
275.512
279.194
281.331
283.313
285.439
287.457
289.223
290.805
292.314
293.738
295.021
296.166
297.207
298.183
299.097
299.936
300.706
301.422
302.096
302.726
303.308
303.845
304.35
304.831
305.286
305.709
306.101
306.47
306.827
307.178
307.527
307.878
308.233
308.598
308.97
309.336
309.667
309.913
310.006
309.885
309.503
308.938
308.351
307.994
308.069
308.557
309.268
309.784
310.054
310.006
310.12
310.553
311.825
313.642
315.953
317.852
318.755
317.902
314.908
309.862
304.242
297.585
288.783
277.072
264.266
253.033
248.683
252.151
262.504
283.272
314.166
354.1
395.196
425.6
435.417
398.568
389.415
303.968
302.192
357.195
280.799
334.522
288.137
278.848
274.754
267.504
229.037
175.864
115.773
47.7947
-59.0235
-105.873
-41.4498
-10.3065
-23.6577
61.7038
-15.1069
-24.2625
2.33184
36.2158
67.7684
94.6963
117.495
137.057
154.102
169.142
182.473
194.321
204.833
214.381
222.873
230.684
237.812
244.265
250.002
255.085
259.648
263.812
267.817
271.494
275.184
278.58
280.717
282.909
285.145
287.18
288.961
290.582
292.13
293.573
294.864
296.021
297.078
298.071
298.996
299.843
300.62
301.346
302.027
302.663
303.249
303.791
304.303
304.789
305.248
305.674
306.068
306.44
306.801
307.155
307.506
307.857
308.21
308.574
308.944
309.31
309.643
309.892
309.992
309.877
309.505
308.949
308.367
308.006
308.073
308.552
309.262
309.784
310.059
310.013
310.118
310.529
311.769
313.562
315.871
317.791
318.734
317.932
315.006
310.012
304.43
297.832
289.111
277.463
264.642
253.291
248.748
252.024
262.143
282.648
313.271
353.041
394.241
424.948
435.499
398.933
390.469
305.203
301.745
357.393
281.055
334.353
288.765
279.028
274.853
267.983
230.064
177.126
117.174
49.6164
-57.3554
-105.936
-42.407
-10.5369
-23.5614
88.9314
32.1546
7.73452
16.4273
41.0341
68.4511
93.711
115.945
135.391
152.48
167.591
181.015
192.966
203.609
213.175
221.822
229.774
236.979
243.469
249.223
254.339
258.999
263.453
267.652
271.415
274.884
277.899
280.177
282.618
284.942
286.991
288.787
290.437
292.008
293.464
294.761
295.927
296.996
297.999
298.931
299.783
300.566
301.297
301.984
302.623
303.212
303.758
304.273
304.763
305.224
305.652
306.048
306.422
306.785
307.14
307.491
307.842
308.196
308.559
308.929
309.294
309.625
309.875
309.978
309.871
309.507
308.957
308.376
308.014
308.075
308.548
309.258
309.784
310.065
310.019
310.116
310.513
311.734
313.52
315.824
317.753
318.716
317.953
315.062
310.087
304.53
297.954
289.276
277.669
264.844
253.436
248.792
251.946
261.958
282.347
312.869
352.595
393.803
424.592
435.554
399.123
390.909
305.788
301.515
357.498
281.153
334.256
288.988
279.101
274.905
268.175
230.426
177.578
117.624
50.2392
-56.8446
-106.008
-42.7455
-10.6293
-23.5157
98.2249
62.7183
37.8598
35.366
49.7582
71.3006
93.8415
114.913
133.903
150.855
165.975
179.468
191.515
202.273
211.976
220.751
228.773
236.065
242.626
248.452
253.677
258.478
263.027
267.285
271.078
274.31
277.079
279.718
282.308
284.703
286.766
288.584
290.263
291.857
293.325
294.633
295.811
296.894
297.908
298.849
299.708
300.498
301.235
301.928
302.572
303.166
303.716
304.235
304.728
305.193
305.623
306.022
306.398
306.763
307.12
307.472
307.823
308.177
308.54
308.909
309.273
309.605
309.858
309.965
309.865
309.509
308.965
308.388
308.021
308.076
308.544
309.254
309.784
310.071
310.025
310.113
310.492
311.682
313.455
315.758
317.705
318.7
317.982
315.145
310.214
304.693
298.159
289.546
277.985
265.146
253.636
248.833
251.829
261.642
281.813
312.119
351.672
393.008
424.071
435.613
399.403
391.79
306.695
301.125
357.689
281.368
334.123
289.537
279.239
274.995
268.608
231.341
178.685
118.923
51.8429
-55.3993
-106.109
-43.5762
-10.8013
-23.4308
106.34
86.3809
66.0849
57.1673
62.2715
76.9929
95.7293
114.929
133.067
149.664
164.661
178.139
190.228
201.069
210.861
219.731
227.83
235.178
241.79
247.711
253.057
257.976
262.571
266.831
270.575
273.705
276.311
279.307
282.071
284.465
286.543
288.384
290.091
291.704
293.185
294.504
295.695
296.791
297.816
298.764
299.63
300.427
301.172
301.87
302.52
303.117
303.672
304.195
304.692
305.16
305.593
305.995
306.374
306.74
307.1
307.453
307.805
308.158
308.52
308.888
309.252
309.585
309.84
309.952
309.859
309.512
308.974
308.398
308.028
308.076
308.538
309.249
309.785
310.078
310.031
310.109
310.469
311.636
313.393
315.693
317.656
318.684
318.013
315.228
310.329
304.832
298.344
289.796
278.285
265.434
253.828
248.868
251.702
261.347
281.336
311.473
350.952
392.304
423.541
435.639
399.629
392.441
307.417
300.739
357.858
281.529
333.979
289.917
279.344
275.079
268.926
231.975
179.467
119.705
52.9215
-54.5559
-106.237
-44.1656
-10.9327
-23.3558
115.706
104.757
89.5
78.5882
77.5928
85.8722
99.8605
116.268
132.987
148.923
163.634
177.01
189.09
199.977
209.832
218.775
226.927
234.325
241
247.004
252.458
257.476
262.087
266.313
270.005
273.163
275.976
278.996
281.799
284.252
286.316
288.177
289.914
291.545
293.038
294.368
295.572
296.683
297.718
298.675
299.548
300.353
301.105
301.81
302.464
303.066
303.625
304.153
304.654
305.125
305.561
305.965
306.347
306.716
307.077
307.432
307.784
308.138
308.499
308.867
309.23
309.563
309.821
309.939
309.854
309.515
308.984
308.409
308.034
308.075
308.53
309.243
309.786
310.086
310.039
310.105
310.443
311.583
313.323
315.621
317.604
318.668
318.048
315.319
310.462
305
298.559
290.077
278.616
265.744
254.026
248.892
251.552
260.999
280.767
310.681
350.003
391.455
422.927
435.615
399.819
393.19
308.093
300.26
358.08
281.735
333.808
290.45
279.468
275.181
269.38
232.874
180.55
120.987
54.4983
-53.2177
-106.426
-45.0032
-11.0862
-23.2659
124.682
118.29
107.459
97.6711
93.9106
97.2746
106.429
119.294
133.874
148.689
162.876
176.038
188.058
198.965
208.87
217.873
226.074
233.519
240.251
246.338
251.887
256.965
261.591
265.792
269.475
272.701
275.688
278.735
281.546
283.925
286.088
287.981
289.732
291.383
292.885
294.227
295.446
296.571
297.617
298.581
299.462
300.274
301.034
301.745
302.405
303.012
303.576
304.109
304.614
305.088
305.527
305.934
306.318
306.69
307.053
307.41
307.762
308.116
308.477
308.843
309.206
309.54
309.801
309.925
309.848
309.517
308.993
308.419
308.038
308.071
308.521
309.237
309.788
310.095
310.046
310.1
310.414
311.528
313.249
315.545
317.549
318.653
318.088
315.419
310.6
305.17
298.782
290.373
278.961
266.064
254.224
248.899
251.374
260.623
280.169
309.854
349.06
390.546
422.229
435.526
399.931
393.8
308.583
299.683
358.285
281.932
333.598
290.932
279.58
275.292
269.769
233.692
181.533
122.033
55.8947
-52.1481
-106.691
-45.7987
-11.2285
-23.1736
132.784
128.867
121.492
113.868
109.474
109.845
115.054
124.255
136.098
149.198
162.466
175.208
187.082
197.978
207.928
216.994
225.251
232.75
239.545
245.708
251.331
256.462
261.102
265.295
269.004
272.32
275.433
278.481
281.277
283.691
285.784
287.754
289.569
291.212
292.729
294.082
295.315
296.455
297.512
298.484
299.371
300.192
300.96
301.678
302.343
302.955
303.524
304.062
304.572
305.049
305.491
305.901
306.288
306.662
307.028
307.386
307.739
308.093
308.453
308.819
309.181
309.516
309.781
309.91
309.842
309.52
309.001
308.427
308.04
308.064
308.509
309.23
309.79
310.105
310.055
310.093
310.382
311.466
313.167
315.463
317.491
318.638
318.133
315.526
310.751
305.357
299.024
290.687
279.323
266.392
254.416
248.883
251.163
260.203
279.506
308.922
347.972
389.52
421.429
435.364
399.95
394.298
308.846
298.952
358.564
282.148
333.335
291.483
279.695
275.416
270.316
234.636
182.647
123.367
57.5544
-50.8367
-107.04
-46.7556
-11.3758
-23.0745
140.363
138.052
133.018
127.303
123.287
122.294
124.865
130.928
139.882
150.787
162.64
174.61
186.145
196.951
206.929
216.069
224.405
231.981
238.854
245.096
250.787
255.965
260.632
264.841
268.6
272.002
275.197
278.238
281.007
283.424
285.568
287.519
289.348
291.071
292.563
293.932
295.182
296.337
297.403
298.382
299.277
300.106
300.882
301.607
302.277
302.895
303.469
304.012
304.527
305.008
305.453
305.865
306.256
306.633
307.001
307.36
307.714
308.067
308.427
308.792
309.154
309.49
309.758
309.895
309.835
309.523
309.009
308.434
308.039
308.053
308.494
309.22
309.793
310.116
310.064
310.086
310.347
311.398
313.078
315.374
317.429
318.623
318.182
315.644
310.912
305.554
299.28
291.018
279.695
266.722
254.598
248.836
250.911
259.737
278.788
307.909
346.802
388.376
420.513
435.12
399.865
394.531
308.829
298.005
358.81
282.366
333.001
292.028
279.798
275.552
270.803
235.572
183.743
124.598
59.1821
-49.6329
-107.485
-47.778
-11.5205
-22.9727
147.597
146.36
142.78
138.462
135.184
133.847
134.924
138.683
145.077
153.658
163.713
174.488
185.357
195.882
205.807
215.008
223.447
231.135
238.118
244.46
250.23
255.468
260.181
264.43
268.253
271.728
274.972
277.998
280.743
283.167
285.335
287.328
289.161
290.834
292.434
293.788
295.047
296.216
297.292
298.277
299.18
300.017
300.802
301.534
302.209
302.832
303.412
303.96
304.479
304.964
305.412
305.828
306.221
306.601
306.971
307.332
307.687
308.041
308.4
308.764
309.125
309.463
309.735
309.878
309.828
309.524
309.016
308.439
308.031
308.038
308.473
309.208
309.794
310.129
310.073
310.076
310.306
311.323
312.98
315.278
317.363
318.607
318.238
315.772
311.086
305.767
299.554
291.363
280.073
267.048
254.761
248.749
250.611
259.219
278.002
306.792
345.5
387.091
419.47
434.787
399.673
394.382
308.544
296.755
359.105
282.588
332.576
292.608
279.893
275.697
271.372
236.564
184.884
126.016
60.9681
-48.3102
-108.044
-48.9578
-11.6656
-22.8694
154.428
153.891
151.269
147.974
145.439
144.212
144.565
146.834
151.246
157.717
165.861
175.132
184.974
194.91
204.583
213.753
222.28
230.107
237.241
243.722
249.606
254.935
259.726
264.041
267.935
271.475
274.747
277.76
280.487
282.921
285.117
287.133
288.988
290.68
292.186
293.637
294.922
296.094
297.179
298.17
299.08
299.926
300.719
301.457
302.138
302.766
303.351
303.906
304.429
304.918
305.369
305.788
306.185
306.568
306.941
307.303
307.658
308.012
308.37
308.733
309.094
309.433
309.709
309.859
309.819
309.525
309.021
308.441
308.027
308.016
308.446
309.191
309.794
310.142
310.083
310.065
310.261
311.239
312.872
315.173
317.292
318.592
318.301
315.912
311.275
305.994
299.842
291.722
280.45
267.361
254.899
248.614
250.252
258.64
277.145
305.58
344.075
385.653
418.295
434.36
399.369
393.721
308.127
295.099
359.402
282.808
332.042
293.193
279.959
275.848
271.955
237.553
186.014
127.377
62.7915
-47.0315
-108.738
-50.2766
-11.8167
-22.7659
160.836
160.784
158.87
156.332
154.388
153.398
153.473
154.872
157.893
162.654
169.028
176.702
185.265
194.3
203.434
212.363
220.865
228.801
236.107
242.773
248.824
254.294
259.209
263.624
267.607
271.211
274.511
277.521
280.245
282.696
284.914
286.949
288.813
290.512
292.06
293.453
294.774
295.986
297.061
298.061
298.978
299.833
300.633
301.378
302.063
302.697
303.288
303.848
304.377
304.869
305.324
305.747
306.147
306.533
306.908
307.272
307.628
307.981
308.338
308.7
309.061
309.4
309.68
309.838
309.807
309.523
309.024
308.439
308.008
307.986
308.411
309.168
309.791
310.156
310.094
310.053
310.21
311.146
312.752
315.058
317.215
318.576
318.371
316.068
311.479
306.24
300.148
292.087
280.815
267.652
255.002
248.421
249.828
257.994
276.207
304.264
342.511
384.049
416.983
433.866
398.934
392.556
307.905
292.914
359.722
283.024
331.381
293.789
280.007
276.006
272.568
238.543
187.15
128.895
64.7513
-45.7102
-109.594
-51.7864
-11.9654
-22.6669
166.879
167.18
165.805
163.819
162.31
161.561
161.578
162.509
164.616
168.097
172.991
179.164
186.368
194.294
202.621
211.045
219.309
227.216
234.637
241.496
247.761
253.434
258.531
263.099
267.204
270.897
274.245
277.277
280.016
282.489
284.733
286.782
288.646
290.35
291.903
293.328
294.629
295.835
296.971
297.952
298.875
299.739
300.546
301.296
301.986
302.625
303.222
303.789
304.322
304.818
305.277
305.703
306.107
306.497
306.874
307.239
307.596
307.948
308.304
308.664
309.024
309.364
309.648
309.813
309.793
309.518
309.023
308.433
307.986
307.948
308.365
309.136
309.784
310.17
310.105
310.037
310.153
311.042
312.62
314.931
317.131
318.56
318.45
316.241
311.709
306.505
300.471
292.453
281.159
267.913
255.063
248.16
249.327
257.27
275.181
302.856
340.808
382.271
415.529
433.296
398.319
391.038
308.33
290.054
360.058
283.248
330.583
294.374
279.979
276.137
273.193
239.5
188.265
130.36
66.7375
-44.3668
-110.64
-53.4997
-12.1345
-22.5681
172.603
173.151
172.179
170.606
169.426
168.889
168.937
169.624
171.153
173.732
177.47
182.353
188.266
195.016
202.366
210.057
217.843
225.507
232.883
239.847
246.31
252.224
257.566
262.353
266.638
270.469
273.911
277.005
279.788
282.297
284.565
286.624
288.498
290.203
291.764
293.2
294.519
295.719
296.802
297.857
298.779
299.644
300.458
301.212
301.907
302.55
303.154
303.726
304.264
304.765
305.227
305.658
306.066
306.459
306.839
307.205
307.561
307.913
308.267
308.625
308.983
309.324
309.611
309.784
309.774
309.509
309.018
308.422
307.956
307.897
308.306
309.093
309.771
310.183
310.117
310.019
310.089
310.925
312.472
314.791
317.039
318.543
318.539
316.436
311.954
306.801
300.809
292.815
281.472
268.133
255.072
247.82
248.739
256.453
274.053
301.334
338.96
380.315
413.896
432.561
397.432
389.366
309.779
286.344
360.425
283.449
329.646
294.931
279.925
276.295
273.814
240.418
189.36
131.936
68.8224
-42.9842
-111.905
-55.4625
-12.3118
-22.4747
178.029
178.739
178.074
176.827
175.906
175.539
175.637
176.199
177.37
179.332
182.211
186.054
190.835
196.459
202.776
209.595
216.71
223.918
231.042
237.936
244.483
250.589
256.189
261.251
265.79
269.834
273.438
276.652
279.522
282.091
284.396
286.476
288.359
290.075
291.65
293.082
294.41
295.617
296.714
297.707
298.675
299.559
300.37
301.129
301.826
302.474
303.083
303.661
304.204
304.709
305.176
305.611
306.024
306.42
306.802
307.17
307.525
307.875
308.227
308.582
308.938
309.278
309.569
309.749
309.749
309.495
309.009
308.404
307.916
307.833
308.232
309.035
309.748
310.193
310.128
309.998
310.016
310.797
312.307
314.634
316.938
318.526
318.641
316.657
312.246
307.127
301.165
293.164
281.742
268.302
255.021
247.392
248.05
255.544
272.812
299.719
336.962
378.172
412.031
431.545
396.118
387.58
312.459
281.544
360.857
283.74
328.581
295.428
279.726
276.375
274.403
241.279
190.42
133.655
70.9773
-41.5938
-113.419
-57.7133
-12.5496
-22.3764
183.177
183.992
183.566
182.58
181.862
181.625
181.773
182.271
183.217
184.759
187.015
190.055
193.9
198.524
203.848
209.753
216.083
222.674
229.358
235.988
242.44
248.601
254.377
259.696
264.526
268.857
272.71
276.123
279.141
281.815
284.192
286.315
288.226
289.961
291.546
292.996
294.317
295.519
296.616
297.629
298.561
299.454
300.295
301.04
301.743
302.396
303.01
303.594
304.142
304.652
305.123
305.563
305.98
306.381
306.765
307.133
307.488
307.836
308.184
308.535
308.888
309.227
309.52
309.707
309.717
309.476
308.993
308.38
307.867
307.755
308.138
308.96
309.713
310.199
310.14
309.973
309.935
310.648
312.121
314.458
316.825
318.508
318.757
316.91
312.562
307.497
301.538
293.494
281.96
268.414
254.902
246.862
247.246
254.519
271.439
297.932
334.795
375.823
409.914
430.199
394.219
385.442
314.544
275.29
361.343
284.105
327.42
295.834
279.501
276.405
274.928
242.091
191.454
135.191
73.2445
-40.1666
-115.201
-60.3181
-12.8566
-22.2819
188.073
188.951
188.709
187.932
187.373
187.237
187.43
187.894
188.693
189.945
191.753
194.187
197.288
201.068
205.502
210.526
216.041
221.922
228.034
234.24
240.418
246.459
252.26
257.728
262.796
267.419
271.577
275.272
278.525
281.379
283.884
286.099
288.073
289.85
291.459
292.918
294.241
295.443
296.527
297.541
298.487
299.364
300.185
300.982
301.666
302.317
302.937
303.525
304.078
304.592
305.068
305.513
305.936
306.34
306.726
307.095
307.448
307.793
308.138
308.484
308.832
309.169
309.463
309.656
309.677
309.447
308.971
308.349
307.808
307.66
308.024
308.862
309.661
310.199
310.15
309.945
309.842
310.479
311.912
314.26
316.698
318.488
318.892
317.202
312.935
307.913
301.935
293.798
282.12
268.462
254.705
246.219
246.307
253.318
269.917
296.021
332.43
373.241
407.538
428.545
391.933
382.547
318.708
267.187
361.791
284.469
326.21
296.121
278.982
276.337
275.343
242.861
192.475
136.971
75.6144
-38.7022
-117.276
-63.3546
-13.3115
-22.2023
192.736
193.645
193.544
192.936
192.504
192.447
192.675
193.118
193.817
194.864
196.347
198.328
200.851
203.945
207.618
211.846
216.575
221.725
227.193
232.867
238.634
244.394
250.052
255.512
260.691
265.521
269.952
273.952
277.511
280.638
283.367
285.749
287.843
289.702
291.361
292.844
294.174
295.373
296.465
297.474
298.415
299.298
300.113
300.849
301.584
302.244
302.862
303.457
304.013
304.531
305.012
305.463
305.891
306.299
306.687
307.056
307.407
307.749
308.088
308.428
308.771
309.102
309.397
309.595
309.627
309.409
308.941
308.31
307.739
307.546
307.888
308.74
309.589
310.188
310.159
309.913
309.738
310.302
311.674
314.036
316.555
318.466
319.046
317.545
313.393
308.398
302.361
294.071
282.221
268.443
254.418
245.449
245.215
252.062
268.23
293.837
329.817
370.386
404.853
426.556
390.013
378.804
316.09
257.203
362.184
285.013
325.021
296.291
278.558
276.134
275.605
243.616
193.523
138.667
78.1722
-37.1802
-119.647
-66.9252
-13.9961
-22.1551
197.182
198.097
198.104
197.633
197.305
197.31
197.563
197.991
198.617
199.516
200.759
202.398
204.476
207.025
210.068
213.608
217.623
222.069
226.877
231.964
237.237
242.599
247.97
253.265
258.401
263.3
267.897
272.14
275.993
279.439
282.479
285.133
287.439
289.445
291.198
292.739
294.099
295.313
296.411
297.424
298.368
299.237
300.051
300.803
301.49
302.161
302.797
303.384
303.946
304.468
304.955
305.412
305.846
306.258
306.648
307.016
307.365
307.703
308.036
308.368
308.702
309.027
309.32
309.521
309.564
309.36
308.902
308.263
307.662
307.425
307.729
308.591
309.492
310.165
310.164
309.877
309.619
310.103
311.405
313.78
316.392
318.442
319.223
317.937
313.932
308.96
302.821
294.311
282.264
268.354
254.029
244.539
243.952
250.721
266.348
291.453
326.914
367.219
401.794
424.03
388.968
374.356
311.905
245.206
362.487
285.98
323.939
296.359
277.718
275.771
275.641
244.373
194.599
140.795
80.9687
-35.5662
-122.346
-71.1612
-14.9584
-22.1811
201.425
202.329
202.418
202.06
201.816
201.867
202.138
202.554
203.125
203.911
204.972
206.352
208.086
210.205
212.737
215.7
219.092
222.894
227.068
231.557
236.291
241.191
246.178
251.181
256.132
260.957
265.585
269.956
274.021
277.742
281.098
284.081
286.692
288.949
290.883
292.539
293.972
295.233
296.361
297.387
298.33
299.2
300.001
300.738
301.433
302.085
302.711
303.335
303.884
304.405
304.898
305.361
305.8
306.217
306.609
306.977
307.323
307.655
307.98
308.303
308.627
308.943
309.23
309.434
309.487
309.299
308.85
308.209
307.576
307.285
307.55
308.413
309.367
310.125
310.162
309.836
309.479
309.866
311.099
313.487
316.205
318.415
319.434
318.398
314.549
309.623
303.325
294.522
282.254
268.195
253.523
243.474
242.489
248.688
264.259
288.729
323.663
363.698
398.338
420.691
388.207
369.374
304.462
230.626
362.589
287.195
323.069
296.4
276.906
275.212
275.418
245.135
195.781
143.233
84.1193
-33.8031
-125.359
-76.1892
-16.5065
-22.3203
205.477
206.358
206.509
206.243
206.068
206.154
206.436
206.84
207.367
208.065
208.985
210.164
211.63
213.41
215.533
218.02
220.882
224.117
227.708
231.622
235.811
240.216
244.769
249.404
254.064
258.691
263.222
267.595
271.755
275.654
279.255
282.528
285.455
288.026
290.243
292.127
293.72
295.081
296.274
297.34
298.302
299.173
299.967
300.701
301.381
302.033
302.652
303.232
303.818
304.347
304.838
305.308
305.755
306.176
306.57
306.937
307.281
307.607
307.923
308.235
308.545
308.848
309.128
309.332
309.393
309.222
308.785
308.146
307.485
307.14
307.354
308.209
309.211
310.065
310.149
309.789
309.319
309.603
310.75
313.15
315.989
318.382
319.67
318.935
315.297
310.407
303.883
294.713
282.197
267.967
252.885
242.237
240.805
246.619
261.917
285.764
320.042
359.778
394.485
416.537
387.171
363.624
294.238
212.923
362.304
288.903
322.529
296.475
276.179
274.472
274.874
245.827
196.987
145.319
87.6779
-31.8788
-128.631
-82.1871
-18.5864
-22.6253
209.351
210.2
210.396
210.207
210.088
210.201
210.489
210.88
211.369
211.996
212.805
213.824
215.079
216.59
218.384
220.483
222.903
225.651
228.725
232.109
235.774
239.681
243.779
248.01
252.32
256.664
260.993
265.253
269.389
273.348
277.085
280.559
283.736
286.592
289.116
291.305
293.176
294.758
296.094
297.239
298.245
299.14
299.944
300.674
301.353
301.998
302.606
303.197
303.746
304.277
304.792
305.259
305.708
306.135
306.533
306.899
307.239
307.559
307.866
308.164
308.458
308.744
309.012
309.212
309.281
309.126
308.708
308.069
307.388
306.989
307.146
307.983
309.025
309.98
310.123
309.735
309.14
309.303
310.35
312.758
315.735
318.341
319.936
319.563
316.173
311.335
304.513
294.899
282.103
267.672
252.104
240.81
238.915
244.669
259.315
282.337
315.995
355.406
390.183
412.029
386.35
356.478
280.193
191.881
361.427
291.172
322.44
296.776
275.684
273.544
274.037
246.391
198.295
147.705
91.7588
-29.6678
-132.252
-89.2349
-21.4688
-23.1604
213.059
213.869
214.097
213.971
213.898
214.03
214.319
214.697
215.154
215.722
216.439
217.331
218.416
219.713
221.242
223.025
225.079
227.417
230.043
232.954
236.136
239.567
243.211
247.025
250.961
254.975
259.03
263.086
267.092
271
274.759
278.324
281.655
284.722
287.502
289.983
292.164
294.052
295.657
297.001
298.119
299.067
299.899
300.65
301.337
301.977
302.582
303.153
303.702
304.22
304.713
305.207
305.669
306.094
306.493
306.863
307.201
307.514
307.81
308.092
308.367
308.631
308.882
309.074
309.148
309.01
308.612
307.984
307.286
306.839
306.938
307.745
308.813
309.871
310.081
309.672
308.943
308.96
309.891
312.302
315.434
318.288
320.236
320.29
317.207
312.432
305.234
295.096
281.986
267.311
251.168
239.166
236.781
242.394
256.439
278.628
311.468
350.541
385.331
407.538
386.144
347.408
261.579
168.338
359.547
294.035
322.937
297.343
275.215
272.514
272.889
246.651
199.527
149.742
96.2628
-27.0895
-135.604
-97.4311
-25.2737
-24.0084
216.609
217.377
217.627
217.551
217.516
217.663
217.95
218.313
218.741
219.26
219.902
220.688
221.635
222.757
224.072
225.598
227.352
229.346
231.592
234.092
236.843
239.833
243.043
246.444
249.999
253.666
257.408
261.195
264.992
268.754
272.434
275.988
279.375
282.561
285.519
288.229
290.678
292.858
294.764
296.397
297.766
298.89
299.811
300.597
301.306
301.965
302.572
303.136
303.672
304.178
304.676
305.15
305.612
306.06
306.464
306.829
307.164
307.473
307.759
308.023
308.275
308.512
308.739
308.917
308.992
308.87
308.496
307.885
307.174
306.696
306.724
307.505
308.587
309.741
310.022
309.601
308.724
308.567
309.362
311.766
315.073
318.218
320.567
321.122
318.411
313.721
306.077
295.331
281.861
266.884
250.076
237.284
234.354
239.615
253.166
274.399
306.423
345.142
379.861
402.694
385.859
337.834
240.159
144.446
356.286
297.597
324.107
298.563
275.202
271.422
271.574
246.601
200.797
151.665
101.179
-23.8681
-139.502
-106.782
-30.0501
-25.1396
220.01
220.734
220.997
220.963
220.959
221.115
221.397
221.746
222.148
222.624
223.203
223.902
224.736
225.715
226.854
228.169
229.675
231.385
233.31
235.458
237.832
240.428
243.237
246.241
249.416
252.73
256.146
259.633
263.165
266.712
270.236
273.695
277.051
280.269
283.32
286.178
288.823
291.236
293.403
295.313
296.966
298.367
299.532
300.482
301.258
301.929
302.546
303.125
303.659
304.158
304.64
305.114
305.575
306.008
306.419
306.801
307.141
307.441
307.715
307.96
308.186
308.39
308.588
308.742
308.812
308.703
308.354
307.767
307.065
306.552
306.54
307.283
308.364
309.601
309.948
309.52
308.481
308.106
308.746
311.13
314.631
318.117
320.922
322.103
319.803
315.224
307.07
295.628
281.754
266.398
248.826
235.145
231.603
236.48
249.634
269.811
300.801
339.166
373.732
396.909
384.722
331.683
219.661
124.942
351.199
301.864
326.075
300.324
275.684
270.433
270.088
245.971
201.787
153.086
106.167
-19.9487
-143.622
-117.23
-35.8361
-26.5877
223.269
223.949
224.218
224.218
224.239
224.402
224.678
225.012
225.39
225.83
226.354
226.981
227.719
228.579
229.573
230.713
232.014
233.488
235.145
236.994
239.042
241.29
243.737
246.372
249.183
252.145
255.231
258.41
261.654
264.945
268.258
271.559
274.815
277.991
281.055
283.979
286.738
289.309
291.67
293.806
295.708
297.376
298.815
300.036
301.051
301.87
302.526
303.088
303.625
304.144
304.632
305.093
305.54
305.982
306.395
306.767
307.107
307.417
307.686
307.909
308.106
308.272
308.434
308.554
308.61
308.507
308.183
307.624
306.942
306.423
306.388
307.098
308.172
309.473
309.87
309.432
308.214
307.574
308.038
310.374
314.087
317.974
321.294
323.091
321.387
316.956
308.257
296.032
281.688
265.848
247.425
232.749
228.508
232.962
246.054
264.685
294.601
332.545
366.796
390.151
382.216
331.382
204.082
116.54
344.298
306.808
328.765
303.254
277.06
269.654
268.608
244.954
202.749
154.143
110.954
-14.8882
-145.787
-128.368
-42.4839
-28.236
226.395
227.031
227.301
227.328
227.37
227.536
227.804
228.124
228.48
228.887
229.365
229.929
230.588
231.348
232.22
233.216
234.346
235.621
237.053
238.649
240.417
242.363
244.488
246.789
249.258
251.883
254.644
257.517
260.474
263.494
266.563
269.662
272.763
275.835
278.845
281.762
284.559
287.209
289.691
291.987
294.084
295.975
297.658
299.134
300.408
301.487
302.375
303.076
303.625
304.098
304.586
305.082
305.542
305.965
306.363
306.753
307.105
307.4
307.663
307.877
308.045
308.169
308.283
308.357
308.388
308.282
307.978
307.448
306.8
306.301
306.274
306.984
308.052
309.392
309.81
309.345
307.921
306.973
307.151
309.451
313.399
317.76
321.669
324.265
323.166
318.931
309.664
296.57
281.705
265.268
245.887
230.093
225.042
228.989
239.944
259.089
287.837
325.226
358.887
382.895
377.206
333.501
193.861
117.706
335.54
312.624
332.277
306.838
279.321
269.304
267.022
243.054
203.078
154.313
115.178
-8.84908
-147.989
-139.829
-49.8329
-29.842
229.395
229.987
230.255
230.303
230.36
230.528
230.787
231.092
231.428
231.806
232.244
232.755
233.345
234.022
234.792
235.665
236.652
237.761
239.003
240.385
241.915
243.599
245.443
247.446
249.606
251.917
254.368
256.941
259.617
262.372
265.19
268.059
270.963
273.878
276.776
279.625
282.395
285.058
287.593
289.982
292.211
294.269
296.147
297.84
299.342
300.655
301.785
302.738
303.521
304.134
304.606
305.016
305.48
305.963
306.39
306.751
307.086
307.405
307.672
307.859
308.005
308.088
308.146
308.163
308.156
308.031
307.735
307.228
306.621
306.169
306.206
306.929
308.043
309.41
309.802
309.274
307.607
306.295
306.171
308.335
312.536
317.452
322.024
325.508
325.143
321.155
311.355
297.323
281.836
264.641
244.226
227.2
221.199
224.588
235.075
253.02
280.584
317.198
350.06
375.356
369.671
333.444
183.016
115.868
325.195
318.697
336.242
312.124
282.859
269.273
265.703
240.849
203.108
153.789
117.981
-1.04827
-149.86
-150.812
-57.4546
-31.0591
232.275
232.824
233.086
233.15
233.22
233.387
233.636
233.926
234.243
234.596
234.999
235.463
235.996
236.601
237.285
238.056
238.922
239.892
240.973
242.174
243.502
244.963
246.563
248.305
250.191
252.218
254.381
256.671
259.072
261.569
264.141
266.772
269.455
272.175
274.912
277.639
280.327
282.95
285.484
287.908
290.209
292.372
294.388
296.246
297.935
299.451
300.792
301.962
302.971
303.831
304.544
305.102
305.52
305.874
306.312
306.782
307.161
307.432
307.686
307.876
308.014
308.041
308.032
307.985
307.929
307.762
307.455
306.953
306.381
306.009
306.169
307.019
308.21
309.62
309.901
309.252
307.263
305.488
304.942
306.932
311.407
316.989
322.325
326.827
327.317
323.643
313.353
298.296
282.141
264.067
242.495
224.085
216.961
219.728
229.41
246.543
272.889
308.552
340.465
367.259
360.472
331.356
167.217
99.0519
313.227
325.01
340.611
317.588
287.592
269.895
264.167
237.385
201.975
151.799
119.468
7.13675
-151.069
-160.397
-65.0875
-31.1404
235.042
235.548
235.802
235.879
235.958
236.123
236.36
236.635
236.934
237.263
237.636
238.061
238.544
239.088
239.7
240.384
241.149
242.002
242.949
243.997
245.154
246.425
247.817
249.334
250.979
252.754
254.656
256.682
258.822
261.065
263.395
265.795
268.251
270.755
273.297
275.86
278.422
280.957
283.442
285.855
288.177
290.393
292.49
294.456
296.281
297.956
299.476
300.838
302.045
303.104
304.024
304.819
305.49
306.017
306.393
306.661
307.079
307.521
307.813
307.937
308.011
308.034
308.015
307.854
307.7
307.482
307.152
306.613
306.05
305.778
306.137
307.239
308.581
310.085
310.204
309.329
306.923
304.559
303.406
305.192
309.964
316.336
322.545
328.199
329.722
326.386
315.738
299.649
282.656
263.49
240.695
220.802
212.364
214.416
223.502
239.706
264.737
299.425
330.218
358.49
349.521
329.835
150.904
77.2276
299.009
331.341
345.129
325.148
293.717
270.992
263.007
233.897
200.006
148.7
117.761
16.0609
-149.194
-168.015
-72.3458
-28.3132
237.7
238.166
238.41
238.495
238.581
238.742
238.968
239.228
239.51
239.817
240.162
240.553
240.993
241.486
242.036
242.648
243.328
244.082
244.916
245.836
246.848
247.958
249.173
250.496
251.933
253.486
255.155
256.939
258.835
260.834
262.927
265.1
267.336
269.624
271.958
274.331
276.731
279.139
281.533
283.891
286.191
288.415
290.547
292.573
294.482
296.266
297.919
299.436
300.816
302.056
303.158
304.13
304.981
305.738
306.397
306.923
307.229
307.361
307.737
308.092
308.238