/*--------------------------------*- C++ -*----------------------------------*\
| =========                 |                                                 |
| \\      /  F ield         | OpenFOAM: The Open Source CFD Toolbox           |
|  \\    /   O peration     | Version:  2412                                  |
|   \\  /    A nd           | Website:  www.openfoam.com                      |
|    \\/     M anipulation  |                                                 |
\*---------------------------------------------------------------------------*/
FoamFile
{
    version     2.0;
    format      ascii;
    arch        "LSB;label=32;scalar=64";
    class       volScalarField;
    location    "1.745";
    object      p;
}
// * * * * * * * * * * * * * * * * * * * * * * * * * * * * * * * * * * * * * //

dimensions      [0 2 -2 0 0 0 0];

internalField   nonuniform List<scalar> 
12600
(
0.149415
-154.421
-204.437
-201.223
-188.803
-177.254
-167.126
-158.064
-149.851
-142.327
-135.362
-128.863
-122.756
-116.983
-111.499
-106.266
-101.254
-96.4355
-91.7899
-87.2983
-82.9449
-78.7157
-74.5988
-70.5837
-66.661
-62.8225
-59.0608
-55.3694
-51.7422
-48.1739
-44.6597
-41.1951
-37.776
-34.3986
-31.0596
-27.7556
-24.4837
-21.2412
-18.0253
-14.8336
-11.6638
-8.51346
-5.38052
-2.26288
0.841479
3.93446
7.01794
10.0936
13.1633
16.2285
19.2908
22.3516
25.4125
28.4744
31.539
34.607
37.68
40.7582
43.8436
46.9356
50.0367
53.1454
56.2646
59.3915
62.5304
65.676
68.8344
71.9977
75.1744
78.3523
81.5441
84.7316
87.9327
91.1217
94.3235
97.5022
100.692
103.845
107.007
110.114
113.226
116.264
119.3
122.246
125.169
128.007
130.767
133.494
136.049
138.58
141.206
142.52
147.405
144.219
154.003
146.862
156.241
157.211
144.413
181.964
123.662
194.086
141.967
174.528
192.186
133.182
227.199
108.643
239.389
160.205
189.455
266.436
170.146
236.105
193.237
244.049
227.278
205.674
236.661
237.587
-23.9637
-123.565
-170.963
-180.594
-177.402
-170.686
-162.962
-155.216
-147.807
-140.811
-134.215
-127.981
-122.072
-116.449
-111.081
-105.938
-100.998
-96.2368
-91.6375
-87.1835
-82.8607
-78.6567
-74.5605
-70.5625
-66.654
-62.8272
-59.0752
-55.3918
-51.7713
-48.2085
-44.6987
-41.2377
-37.8216
-34.4466
-31.1094
-27.8068
-24.536
-21.2942
-18.0788
-14.8874
-11.7176
-8.56723
-5.43408
-2.31613
0.788636
3.8821
6.96612
10.0424
13.1127
16.1785
19.2416
22.3031
25.3646
28.4273
31.4927
34.5614
37.6352
40.7141
43.8003
46.8931
49.9949
53.1043
56.2243
59.3519
62.4915
65.6378
68.797
71.961
75.1384
78.3171
81.5095
84.6978
87.8996
91.0894
94.2919
97.4713
100.662
103.816
106.978
110.086
113.199
116.238
119.275
122.222
125.145
127.985
130.745
133.473
136.03
138.559
141.193
142.495
147.401
144.197
153.99
146.865
156.191
157.271
144.311
182.035
123.651
193.993
142.076
174.338
192.337
133.061
227.275
108.624
239.182
160.436
189.115
266.425
170.261
236.022
193.229
243.934
227.4
205.668
236.547
237.578
-40.7784
-102.18
-144.933
-162.387
-165.725
-163.115
-157.996
-151.869
-145.458
-139.103
-132.937
-127.007
-121.318
-115.86
-110.617
-105.572
-100.707
-96.007
-91.4562
-87.0413
-82.7504
-78.5724
-74.4976
-70.5172
-66.6232
-62.8084
-59.0664
-55.3913
-51.7776
-48.2205
-44.7154
-41.2583
-37.8453
-34.4728
-31.1376
-27.8367
-24.5672
-21.3263
-18.1116
-14.9207
-11.7512
-8.60099
-5.46786
-2.34981
0.755144
3.84887
6.93322
10.0099
13.0806
16.1469
19.2104
22.2724
25.3345
28.3977
31.4636
34.5329
37.6072
40.6867
43.7734
46.8668
49.9692
53.0791
56.1997
59.3278
62.4679
65.6148
68.7745
71.939
75.1169
78.2961
81.4891
84.6779
87.8802
91.0705
94.2735
97.4534
100.645
103.799
106.962
110.07
113.184
116.224
119.261
122.209
125.132
127.973
130.733
133.462
136.02
138.549
141.186
142.481
147.4
144.183
153.983
146.865
156.163
157.306
144.256
182.065
123.635
193.94
142.142
174.237
192.417
132.991
227.34
108.589
239.07
160.572
188.952
266.435
170.32
235.972
193.222
243.876
227.465
205.658
236.484
237.575
-48.7145
-88.4835
-123.879
-144.388
-152.605
-153.917
-151.631
-147.438
-142.314
-136.817
-131.238
-125.718
-120.324
-115.084
-110.005
-105.086
-100.32
-95.6978
-91.2093
-86.8449
-82.5949
-78.4504
-74.4032
-70.4457
-66.5706
-62.7717
-59.0429
-55.3788
-51.7743
-48.2249
-44.7263
-41.2746
-37.8661
-34.4973
-31.1653
-27.8669
-24.5994
-21.3602
-18.1468
-14.9569
-11.7882
-8.63857
-5.50584
-2.38803
0.716814
3.81054
6.89498
9.97182
13.0428
16.1094
19.1732
22.2356
25.2981
28.3617
31.4281
34.4979
37.5727
40.6527
43.7399
46.8338
49.9367
53.0471
56.1682
59.2969
62.4375
65.5849
68.7452
71.9102
75.0887
78.2685
81.462
84.6513
87.8542
91.0451
94.2486
97.4292
100.621
103.776
106.939
110.048
113.163
116.203
119.241
122.19
125.114
127.955
130.716
133.446
136.005
138.533
141.176
142.46
147.398
144.164
153.975
146.864
156.128
157.35
144.175
182.138
123.61
193.874
142.219
174.088
192.543
132.883
227.42
108.542
238.917
160.738
188.665
266.459
170.4
235.896
193.212
243.791
227.568
205.64
236.391
237.573
-53.7851
-80.2629
-107.16
-126.818
-137.926
-142.691
-143.338
-141.4
-137.915
-133.58
-128.822
-123.888
-118.918
-113.99
-109.146
-104.405
-99.7772
-95.263
-90.8603
-86.5646
-82.3702
-78.2711
-74.2611
-70.3342
-66.4846
-62.7068
-58.9957
-55.3464
-51.7543
-48.2153
-44.7254
-41.281
-37.8786
-34.515
-31.1872
-27.8924
-24.6278
-21.3911
-18.1797
-14.9913
-11.8239
-8.6752
-5.5432
-2.42591
0.678579
3.7721
6.85647
9.93334
13.0044
16.0712
19.1353
22.198
25.2609
28.325
31.3918
34.462
37.5373
40.6178
43.7056
46.8
49.9035
53.0145
56.1361
59.2654
62.4066
65.5546
68.7154
71.881
75.0601
78.2405
81.4346
84.6245
87.8281
91.0195
94.2237
97.4049
100.597
103.753
106.917
110.027
113.142
116.183
119.222
122.171
125.096
127.938
130.7
133.431
135.99
138.518
141.166
142.443
147.396
144.144
153.968
146.861
156.095
157.393
144.097
182.196
123.577
193.81
142.292
173.944
192.667
132.79
227.508
108.481
238.765
160.891
188.4
266.501
170.472
235.813
193.2
243.712
227.668
205.614
236.297
237.573
-57.094
-75.2376
-94.8391
-111.709
-123.541
-130.462
-133.517
-133.766
-132.091
-129.161
-125.459
-121.311
-116.926
-112.437
-107.924
-103.438
-99.0056
-94.6445
-90.3627
-86.1632
-82.0462
-78.0097
-74.0509
-70.1659
-66.351
-62.602
-58.9148
-55.2855
-51.7102
-48.1852
-44.7072
-41.2727
-37.8787
-34.5222
-31.2003
-27.9105
-24.6501
-21.4168
-18.2083
-15.0223
-11.8568
-8.70968
-5.57892
-2.46261
0.641142
3.73413
6.81812
9.89477
12.9658
16.0325
19.0967
22.1596
25.2228
28.2871
31.3543
34.4249
37.5006
40.5816
43.6698
46.7647
49.8687
52.9802
56.1024
59.2322
62.374
65.5225
68.684
71.8501
75.0298
78.2108
81.4055
84.5961
87.8002
90.9923
94.1971
97.379
100.572
103.728
106.893
110.004
113.12
116.161
119.201
122.151
125.076
127.92
130.682
133.414
135.974
138.502
141.155
142.42
147.394
144.122
153.962
146.856
156.061
157.435
144.013
182.274
123.533
193.744
142.361
173.784
192.806
132.676
227.607
108.404
238.598
161.025
188.086
266.567
170.542
235.713
193.185
243.626
227.78
205.579
236.19
237.575
-58.7381
-71.7518
-86.0767
-99.7677
-110.845
-118.551
-123.104
-125.071
-125.046
-123.559
-121.044
-117.839
-114.193
-110.277
-106.209
-102.07
-97.9094
-93.7625
-89.6504
-85.5864
-81.5783
-77.6298
-73.7426
-69.9163
-66.1495
-62.4404
-58.7863
-55.1846
-51.6324
-48.1268
-44.665
-41.2442
-37.8618
-34.515
-31.2014
-27.9184
-24.6639
-21.4355
-18.2311
-15.0485
-11.8859
-8.7411
-5.61227
-2.49752
0.604976
3.69698
6.78022
9.85631
12.9269
15.9935
19.0575
22.1204
25.1836
28.2481
31.3155
34.3864
37.4625
40.5438
43.6325
46.7278
49.8323
52.9443
56.067
59.1974
62.3397
65.4888
68.6508
71.8176
74.9979
78.1795
81.3748
84.566
87.7708
90.9635
94.1691
97.3516
100.546
103.702
106.868
109.979
113.096
116.139
119.179
122.13
125.056
127.9
130.663
133.396
135.957
138.485
141.143
142.404
147.392
144.098
153.957
146.848
156.028
157.476
143.922
182.357
123.477
193.678
142.421
173.612
192.957
132.556
227.72
108.31
238.414
161.125
187.744
266.658
170.612
235.593
193.164
243.536
227.899
205.534
236.068
237.579
-59.2219
-68.9889
-79.7107
-90.5588
-100.206
-107.75
-112.968
-116.039
-117.285
-117.059
-115.693
-113.48
-110.66
-107.42
-103.9
-100.2
-96.3932
-92.5302
-88.6469
-84.7678
-80.9095
-77.0831
-73.2955
-69.5509
-65.8516
-62.1981
-58.5902
-55.0269
-51.5068
-48.0281
-44.5889
-41.1872
-37.8207
-34.4875
-31.1853
-27.912
-24.6656
-21.4441
-18.2455
-15.0678
-11.9093
-8.76791
-5.64193
-2.52954
0.57102
3.66145
6.74343
9.81852
12.8884
15.9543
19.018
22.0806
25.1437
28.2082
31.2757
34.3467
37.423
40.5046
43.5936
46.6893
49.7943
52.9067
56.0299
59.1608
62.3037
65.4533
68.616
71.7833
74.9643
78.1464
81.3425
84.5343
87.7398
90.9332
94.1395
97.3227
100.517
103.675
106.842
109.953
113.071
116.115
119.156
122.108
125.035
127.88
130.644
133.378
135.94
138.468
141.13
142.373
147.39
144.071
153.953
146.836
155.996
157.516
143.825
182.454
123.408
193.61
142.469
173.423
193.118
132.422
227.849
108.197
238.206
161.17
187.354
266.787
170.681
235.446
193.135
243.439
228.024
205.477
235.926
237.583
-58.9913
-66.559
-74.7964
-83.3556
-91.4464
-98.3267
-103.616
-107.251
-109.345
-110.089
-109.704
-108.411
-106.414
-103.887
-100.972
-97.7801
-94.3948
-90.8807
-87.2852
-83.6434
-79.9809
-76.3161
-72.6622
-69.0284
-65.4209
-61.8439
-58.2997
-54.7896
-51.3141
-47.8728
-44.465
-41.0897
-37.7456
-34.4312
-31.1449
-27.8851
-24.6502
-21.4383
-18.2479
-15.0771
-11.9244
-8.78792
-5.66606
-2.55712
0.540572
3.62862
6.70864
9.78215
12.8507
15.9157
18.9786
22.0406
25.1033
28.1675
31.2349
34.3059
37.3822
40.464
43.5533
46.6493
49.7546
52.8674
55.9911
59.1224
62.2658
65.416
68.5792
71.7472
74.9288
78.1116
81.3083
84.5008
87.707
90.9011
94.1082
97.2922
100.488
103.646
106.813
109.926
113.045
116.089
119.131
122.084
125.012
127.858
130.623
133.359
135.921
138.451
141.115
142.357
147.388
144.043
153.952
146.821
155.965
157.552
143.721
182.564
123.324
193.542
142.5
173.214
193.29
132.273
227.999
108.066
237.966
161.143
186.913
266.96
170.75
235.266
193.096
243.332
228.153
205.406
235.76
237.588
-58.2886
-64.2679
-70.7379
-77.5411
-84.2189
-90.2437
-95.2412
-99.0382
-101.61
-103.024
-103.402
-102.89
-101.64
-99.7985
-97.4944
-94.836
-91.9114
-88.791
-85.5299
-82.1711
-78.7472
-75.2834
-71.7987
-68.3072
-64.8195
-61.3433
-57.884
-54.4455
-51.0303
-47.6399
-44.2752
-40.9363
-37.6229
-34.3346
-31.0705
-27.8295
-24.6104
-21.412
-18.2331
-15.072
-11.9275
-8.79803
-5.68206
-2.57807
0.51545
3.60001
6.67712
9.74821
12.8148
15.8781
18.9397
22.0007
25.0626
28.1263
31.1932
34.264
37.3402
40.422
43.5114
46.6076
49.7131
52.8263
55.9504
59.0821
62.226
65.3767
68.5405
71.709
74.8913
78.0747
81.2721
84.4654
87.6723
90.8672
94.0751
97.2598
100.456
103.615
106.784
109.897
113.017
116.062
119.105
122.059
124.988
127.836
130.601
133.339
135.901
138.433
141.099
142.333
147.387
144.01
153.953
146.801
155.936
157.583
143.609
182.69
123.223
193.474
142.51
172.979
193.471
132.108
228.173
107.914
237.688
161.025
186.407
267.189
170.822
235.049
193.043
243.212
228.284
205.319
235.566
237.593
-57.2435
-62.031
-67.2031
-72.6751
-78.1659
-83.3219
-87.8423
-91.5323
-94.2972
-96.121
-97.0457
-97.1517
-96.5383
-95.3144
-93.5867
-91.4526
-88.9964
-86.2892
-83.3892
-80.3439
-77.191
-73.9605
-70.6762
-67.3565
-64.0158
-60.6653
-57.3134
-53.9667
-50.6298
-47.3062
-43.9985
-40.7082
-37.4363
-34.1833
-30.9493
-27.734
-24.5369
-21.3572
-18.1941
-15.0466
-11.9136
-8.79393
-5.68627
-2.58933
0.49823
3.57775
6.65064
9.71818
12.7818
15.8427
18.9023
21.9617
25.0222
28.0849
31.151
34.2212
37.2971
40.3786
43.4679
46.5641
49.6697
52.7832
55.9075
59.0397
62.184
65.3352
68.4995
71.6687
74.8515
78.0356
81.2338
84.4277
87.6355
90.8312
94.0399
97.2255
100.423
103.583
106.752
109.867
112.987
116.034
119.078
122.033
124.963
127.812
130.578
133.317
135.88
138.414
141.082
142.311
147.382
143.978
153.959
146.775
155.909
157.608
143.486
182.835
123.102
193.408
142.494
172.716
193.659
131.924
228.374
107.742
237.364
160.802
185.827
267.481
170.898
234.79
192.977
243.073
228.414
205.214
235.341
237.598
-55.9355
-59.8104
-64.0042
-68.4581
-72.983
-77.344
-81.3231
-84.7488
-87.5051
-89.5298
-90.8102
-91.3737
-91.274
-90.5809
-89.3734
-87.7315
-85.7296
-83.4347
-80.9045
-78.1876
-75.3248
-72.3494
-69.2883
-66.1637
-62.9929
-59.7902
-56.5667
-53.3312
-50.0906
-46.8504
-43.6146
-40.3865
-37.1682
-33.9614
-30.7671
-27.5859
-24.4181
-21.2636
-18.1222
-14.9932
-11.876
-8.76988
-5.67379
-2.58671
0.492459
3.56485
6.6317
9.69414
12.7535
15.8107
18.8673
21.9242
24.9828
28.0437
31.1086
34.1777
37.2528
40.3338
43.4227
46.5187
49.6244
52.7378
55.8624
58.9948
62.1395
65.2912
68.456
71.6257
74.8092
77.994
81.1929
84.3876
87.5962
90.7927
94.0024
97.1889
100.387
103.548
106.719
109.835
112.956
116.004
119.049
122.006
124.937
127.787
130.554
133.295
135.858
138.395
141.063
142.287
147.379
143.944
153.958
146.745
155.887
157.624
143.354
182.998
122.958
193.347
142.448
172.418
193.852
131.716
228.607
107.544
236.991
160.467
185.158
267.845
170.977
234.486
192.896
242.91
228.542
205.086
235.085
237.605
-54.4255
-57.5903
-61.028
-64.6903
-68.4371
-72.1085
-75.554
-78.6405
-81.2581
-83.3275
-84.8049
-85.6802
-85.9714
-85.7141
-84.9585
-83.763
-82.1881
-80.2918
-78.1278
-75.7433
-73.1795
-70.4714
-67.6483
-64.7347
-61.7508
-58.713
-55.6348
-52.5272
-49.3991
-46.2574
-43.108
-39.9553
-36.803
-33.6537
-30.5095
-27.3719
-24.2419
-21.1202
-18.0071
-14.9027
-11.8067
-8.71881
-5.63841
-2.56483
0.502779
3.56528
6.62367
9.67891
12.7321
15.7842
18.8365
21.8897
24.9452
28.0037
31.0665
34.134
37.2078
40.2878
43.3759
46.4714
49.5767
52.6901
55.8147
58.9472
62.0922
65.2442
68.4095
71.5797
74.7639
77.9493
81.149
84.3445
87.5541
90.7514
93.9621
97.1497
100.349
103.511
106.683
109.8
112.923
115.972
119.019
121.976
124.909
127.76
130.529
133.272
135.835
138.375
141.042
142.264
147.376
143.906
153.966
146.707
155.871
157.631
143.206
183.186
122.789
193.294
142.369
172.079
194.049
131.483
228.873
107.318
236.569
160.026
184.388
268.284
171.058
234.14
192.804
242.717
228.669
204.935
234.801
237.616
-52.7626
-55.3638
-58.2043
-61.2408
-64.3602
-67.4487
-70.4043
-73.1306
-75.5362
-77.5428
-79.0935
-80.1566
-80.724
-80.8058
-80.4265
-79.6222
-78.4366
-76.916
-75.1062
-73.0505
-70.788
-68.3536
-65.7776
-63.086
-60.3008
-57.4406
-54.5208
-51.5542
-48.5514
-45.5211
-42.4704
-39.4052
-36.3302
-33.2492
-30.1652
-27.0805
-23.9971
-20.9163
-17.8389
-14.7657
-11.697
-8.63284
-5.57306
-2.51735
0.534792
3.58394
6.63083
9.67618
12.7209
15.7658
18.8119
21.8599
24.911
27.9658
31.0255
34.0905
37.1623
40.2407
43.3275
46.4221
49.5267
52.6396
55.7639
58.8964
62.0415
65.1937
68.3595
71.5301
74.7149
77.901
81.1015
84.2978
87.5084
90.7067
93.9186
97.1071
100.308
103.471
106.644
109.762
112.887
115.937
118.986
121.945
124.879
127.732
130.502
133.247
135.81
138.355
141.02
142.24
147.372
143.865
153.977
146.663
155.857
157.625
143.051
183.391
122.591
193.253
142.253
171.694
194.25
131.221
229.175
107.057
236.105
159.496
183.494
268.804
171.141
233.756
192.704
242.488
228.797
204.757
234.499
237.633
-50.9755
-53.1236
-55.4855
-58.0204
-60.6314
-63.2328
-65.7556
-68.1329
-70.2942
-72.1712
-73.706
-74.8572
-75.601
-75.9298
-75.8484
-75.3734
-74.5312
-73.3547
-71.8796
-70.1424
-68.1781
-66.0193
-63.6958
-61.2339
-58.6567
-55.9841
-53.233
-50.418
-47.5512
-44.6427
-41.7011
-38.7333
-35.7454
-32.7421
-29.7274
-26.7044
-23.6758
-20.6436
-17.6093
-14.5742
-11.539
-8.50443
-5.47062
-2.43768
0.594546
3.62631
6.65808
9.6903
12.7237
15.7588
18.7964
21.8372
24.8822
27.9317
30.987
34.0483
37.117
40.1929
43.2778
46.3707
49.4741
52.586
55.7098
58.8419
61.9869
65.1391
68.3052
71.4762
74.6616
77.8483
81.0496
84.2468
87.4584
90.6577
93.8709
97.0606
100.263
103.427
106.602
109.722
112.848
115.9
118.95
121.911
124.847
127.702
130.473
133.22
135.784
138.333
140.996
142.216
147.368
143.821
153.992
146.611
155.851
157.607
142.883
183.62
122.36
193.229
142.095
171.255
194.458
130.927
229.526
106.754
235.614
158.907
182.463
269.403
171.218
233.339
192.595
242.225
228.932
204.554
234.184
237.656
-49.0854
-50.8659
-52.8397
-54.968
-57.1638
-59.3595
-61.5078
-63.5637
-65.4754
-67.1873
-68.647
-69.8116
-70.6501
-71.1439
-71.2848
-71.0743
-70.5235
-69.6519
-68.4843
-67.0483
-65.3731
-63.4873
-61.4181
-59.191
-56.8288
-54.3522
-51.779
-49.1249
-46.4035
-43.6261
-40.8025
-37.9411
-35.0488
-32.1315
-29.194
-26.2404
-23.2739
-20.2974
-17.3129
-14.3223
-11.3268
-8.3275
-5.32506
-2.31992
0.687703
3.69776
6.71042
9.72586
12.7445
15.7668
18.7933
21.8244
24.861
27.9034
30.9526
34.0087
37.073
40.1452
43.227
46.3175
49.419
52.5293
55.652
58.7832
61.9278
65.0797
68.2458
71.417
74.6028
77.7901
80.9923
84.1902
87.403
90.6034
93.818
97.009
100.213
103.379
106.556
109.677
112.805
115.859
118.911
121.874
124.812
127.669
130.442
133.191
135.757
138.31
140.971
142.192
147.363
143.774
154.011
146.549
155.852
157.573
142.7
183.876
122.093
193.227
141.895
170.761
194.669
130.598
229.884
106.406
235.121
158.306
181.275
270.059
171.308
232.892
192.485
241.924
229.077
204.326
233.87
237.685
-47.1094
-48.5891
-50.2451
-52.0401
-53.8942
-55.7515
-57.5792
-59.348
-61.0207
-62.5539
-63.9035
-65.0297
-65.9
-66.4905
-66.7855
-66.7762
-66.4622
-65.851
-64.9566
-63.7978
-62.3962
-60.7748
-58.9573
-56.9665
-54.824
-52.55
-50.1627
-47.6782
-45.111
-42.4736
-39.7769
-37.0302
-34.2417
-31.418
-28.5651
-25.6878
-22.7902
-19.8758
-16.9472
-14.007
-11.0568
-8.09815
-5.13218
-2.15971
0.818726
3.80274
6.79222
9.78708
12.7875
15.7937
18.806
21.8247
24.8504
27.8833
30.9243
33.9733
37.0316
40.0986
43.1761
46.2629
49.3614
52.4694
55.5902
58.7199
61.8635
65.0147
68.1804
71.3515
74.5376
77.7252
80.9282
84.1269
87.3409
90.5424
93.7585
96.9509
100.157
103.324
106.503
109.626
112.757
115.813
118.868
121.832
124.773
127.632
130.409
133.16
135.727
138.285
140.944
142.167
147.357
143.725
154.033
146.479
155.861
157.518
142.514
184.146
121.793
193.257
141.652
170.209
194.89
130.239
230.31
106.014
234.66
157.746
179.9
270.771
171.396
232.424
192.368
241.604
229.233
204.08
233.568
237.717
-45.0608
-46.2925
-47.6857
-49.2051
-50.776
-52.3504
-53.905
-55.4215
-56.874
-58.2294
-59.4516
-60.5063
-61.3632
-61.997
-62.3882
-62.5226
-62.3918
-61.9942
-61.3343
-60.4224
-59.2724
-57.9011
-56.3272
-54.5698
-52.6482
-50.5809
-48.3856
-46.0782
-43.6736
-41.1848
-38.6235
-36.0001
-33.3234
-30.6013
-27.8403
-25.0464
-22.2242
-19.3781
-16.5113
-13.627
-10.7273
-7.81436
-4.88964
-1.95437
0.990534
3.94438
6.90674
9.87728
12.856
15.8427
18.8377
21.841
24.8531
27.8739
30.9044
33.9442
36.9944
40.0545
43.1261
46.2078
49.302
52.4064
55.5243
58.6517
61.7935
64.9433
68.1082
71.2786
74.4647
77.6523
80.8559
84.0552
87.2704
90.4729
93.6908
96.8846
100.093
103.262
106.444
109.569
112.703
115.76
118.819
121.785
124.73
127.591
130.371
133.125
135.695
138.256
140.916
142.14
147.35
143.674
154.057
146.401
155.878
157.451
142.316
184.437
121.472
193.302
141.369
169.597
195.12
129.828
230.78
105.588
234.268
157.277
178.301
271.514
171.501
231.922
192.252
241.289
229.397
203.82
233.293
237.751
-42.9498
-43.9757
-45.1503
-46.4399
-47.7744
-49.1112
-50.4337
-51.7308
-52.9851
-54.1716
-55.2616
-56.2265
-57.0396
-57.6771
-58.1185
-58.3474
-58.3507
-58.1206
-57.6546
-56.9555
-56.03
-54.8887
-53.5447
-52.0128
-50.3088
-48.4488
-46.4489
-44.3242
-42.089
-39.7567
-37.3392
-34.8474
-32.2909
-29.6784
-27.0172
-24.3138
-21.574
-18.8026
-16.0037
-13.1809
-10.3371
-7.47478
-4.59596
-1.70229
1.20492
4.12463
7.05612
9.99876
12.9523
15.9163
18.8909
21.8758
24.8715
27.8777
30.8952
33.9233
36.9634
40.0145
43.0782
46.1531
49.2416
52.3409
55.4547
58.5785
61.7175
64.865
68.0283
71.1974
74.3828
77.57
80.7739
83.9734
87.1897
90.3931
93.6127
96.808
100.018
103.19
106.374
109.502
112.639
115.699
118.762
121.731
124.68
127.544
130.329
133.084
135.66
138.223
140.886
142.111
147.34
143.623
154.081
146.318
155.901
157.37
142.113
184.747
121.112
193.38
141.057
168.933
195.368
129.404
231.292
105.143
234.012
156.937
176.443
272.253
171.606
231.394
192.146
241.017
229.561
203.549
233.054
237.782
-40.7847
-41.6391
-42.6305
-43.7272
-44.8631
-45.9997
-47.1246
-48.2321
-49.3106
-50.3415
-51.3021
-52.1692
-52.9202
-53.5339
-53.9909
-54.2743
-54.3693
-54.2645
-53.9525
-53.4304
-52.6991
-51.7633
-50.6306
-49.3112
-47.8168
-46.1606
-44.3559
-42.4166
-40.3557
-38.1861
-35.9196
-33.5673
-31.1392
-28.6443
-26.0908
-23.4858
-20.8357
-18.1459
-15.4213
-12.6661
-9.88376
-7.0773
-4.24926
-1.40175
1.46352
4.34513
7.242
10.1532
13.0782
16.0163
18.9675
21.9312
24.9077
27.8966
30.8985
33.9127
36.9403
39.9802
43.0342
46.1003
49.1812
52.2739
55.3819
58.5008
61.6357
64.7796
67.9402
71.1071
74.2911
77.4771
80.6806
83.8799
87.0968
90.3009
93.5221
96.7187
99.9316
103.105
106.293
109.423
112.564
115.627
118.694
121.667
124.622
127.488
130.279
133.037
135.621
138.183
140.855
142.079
147.325
143.573
154.101
146.234
155.929
157.281
141.909
185.064
120.731
193.483
140.738
168.205
195.607
128.961
231.795
104.734
233.902
156.731
174.269
272.954
171.73
230.83
192.065
240.831
229.715
203.269
232.856
237.806
-38.5726
-39.2832
-40.1203
-41.054
-42.0221
-42.9892
-43.9459
-44.8898
-45.8139
-46.704
-47.5427
-48.311
-48.9903
-49.5626
-50.0105
-50.3177
-50.4696
-50.4533
-50.2586
-49.8786
-49.3099
-48.5522
-47.6085
-46.4842
-45.1871
-43.7266
-42.1133
-40.3585
-38.4739
-36.4711
-34.3613
-32.1551
-29.8627
-27.4932
-25.0552
-22.5563
-20.0033
-17.4025
-14.7592
-12.078
-9.36326
-6.61836
-3.8464
-1.04996
1.76881
4.60807
7.46637
10.3425
13.2354
16.1445
19.0691
22.0087
24.9634
27.9323
30.9162
33.914
36.9269
39.9535
42.9955
46.0509
49.1223
52.2064
55.307
58.4193
61.5486
64.6876
67.8442
71.0075
74.189
77.3727
80.575
83.7733
86.9903
90.1943
93.4168
96.6144
99.8298
103.005
106.196
109.329
112.475
115.541
118.614
121.59
124.551
127.422
130.22
132.979
135.575
138.133
140.821
142.041
147.304
143.527
154.114
146.154
155.958
157.189
141.71
185.374
120.343
193.608
140.423
167.433
195.879
128.497
232.311
104.366
233.974
156.63
171.729
273.58
171.87
230.229
192.022
240.772
229.842
202.981
232.696
237.82
-36.319
-36.9087
-37.6152
-38.4105
-39.2361
-40.059
-40.8721
-41.6752
-42.4642
-43.2289
-43.9552
-44.6281
-45.2324
-45.7531
-46.1752
-46.484
-46.6657
-46.7074
-46.5977
-46.3277
-45.8907
-45.2831
-44.5037
-43.554
-42.4379
-41.1611
-39.7311
-38.1566
-36.447
-34.6122
-32.6623
-30.6072
-28.4564
-26.2192
-23.9039
-21.5186
-19.0704
-16.5659
-14.0109
-11.4108
-8.77007
-6.09289
-3.38277
-0.642764
2.12449
4.91677
7.7322
10.5692
13.4265
16.3029
19.1979
22.1104
25.0402
27.9866
30.9499
33.929
36.9248
39.9358
42.9638
46.0064
49.0663
52.14
55.2313
58.3352
61.4572
64.5896
67.7407
70.899
74.0765
77.2568
80.4567
83.6528
86.8689
90.072
93.2952
96.4929
99.7105
102.887
106.082
109.217
112.368
115.438
118.517
121.497
124.466
127.34
130.149
132.909
135.522
138.07
140.786
141.994
147.274
143.489
154.112
146.089
155.983
157.102
141.525
185.651
119.973
193.749
140.158
166.625
196.156
128.015
232.798
104.079
234.223
156.613
168.793
274.063
172.037
229.587
192.034
240.857
229.927
202.686
232.566
237.819
-34.0288
-34.5165
-35.112
-35.7893
-36.4931
-37.1931
-37.8831
-38.5649
-39.2364
-39.8899
-40.5144
-41.0979
-41.628
-42.0923
-42.4783
-42.7733
-42.9646
-43.0402
-42.9888
-42.8003
-42.4666
-41.9816
-41.3412
-40.5437
-39.5896
-38.4813
-37.2232
-35.8209
-34.2816
-32.6131
-30.8237
-28.9222
-26.9174
-24.8177
-22.6314
-20.3664
-18.03
-15.629
-13.1696
-10.6574
-8.09762
-5.49463
-2.85252
-0.174763
2.53554
5.27574
8.04357
10.837
13.6546
16.4947
19.3564
22.2385
25.1406
28.0616
31.0016
33.9594
36.9357
39.929
42.9407
45.9685
49.0149
52.0762
55.1565
58.2501
61.363
64.4871
67.6309
70.7826
73.9547
77.1298
80.326
83.5184
86.7325
89.9334
93.1562
96.3532
99.5721
102.749
105.948
109.084
112.241
115.313
118.4
121.384
124.362
127.24
130.062
132.82
135.458
137.988
140.747
141.936
147.231
143.461
154.085
146.052
155.984
157.03
141.362
185.86
119.655
193.892
139.989
165.802
196.406
127.506
233.22
103.913
234.603
156.65
165.485
274.357
172.24
228.908
192.079
241.071
229.955
202.346
232.452
237.803
-31.7062
-32.1076
-32.6084
-33.1845
-33.784
-34.3786
-34.9631
-35.5403
-36.1096
-36.6652
-37.1985
-37.6997
-38.1589
-38.5659
-38.9103
-39.1813
-39.3679
-39.4592
-39.4444
-39.3138
-39.0583
-38.6706
-38.1447
-37.4766
-36.664
-35.7066
-34.6058
-33.3647
-31.9878
-30.4805
-28.8494
-27.1016
-25.2445
-23.2859
-21.2334
-19.0943
-16.876
-14.5852
-12.2282
-9.81098
-7.33886
-4.81674
-2.24904
0.360329
3.00786
5.69051
8.40559
11.1507
13.924
16.7236
19.5482
22.3964
25.2673
28.1598
31.0737
34.0075
36.9619
39.9349
42.9282
45.939
48.9699
52.0169
55.0842
58.1658
61.2678
64.3818
67.5166
70.6599
73.8248
76.9932
80.184
83.3713
86.5818
89.779
93.0001
96.1949
99.4142
102.59
105.792
108.929
112.09
115.166
118.26
121.247
124.236
127.117
129.956
132.71
135.38
137.884
140.703
141.86
147.172
143.448
154.022
146.06
156.008
156.986
141.228
185.954
119.437
194.018
139.966
164.978
196.562
126.949
233.526
103.904
235.012
156.748
161.898
274.385
172.503
228.2
192.176
241.363
229.916
202.027
232.341
237.769
-29.3549
-29.6831
-30.1028
-30.5919
-31.1016
-31.6055
-32.0993
-32.5862
-33.0666
-33.5364
-33.9885
-34.4151
-34.8081
-35.1592
-35.4598
-35.701
-35.8732
-35.9668
-35.9723
-35.8802
-35.6818
-35.369
-34.935
-34.3741
-33.6823
-32.857
-31.8973
-30.8038
-29.5783
-28.2244
-26.7464
-25.1495
-23.4398
-21.6236
-19.7077
-17.6988
-15.6036
-13.4287
-11.1804
-8.86459
-6.48681
-4.05215
-1.56537
0.969299
3.54799
6.16728
8.82411
11.5158
14.2399
16.9945
19.7777
22.5879
25.4241
28.2846
31.1692
34.076
37.0058
39.9561
42.9285
45.92
48.9333
51.964
55.0163
58.084
61.1734
64.2755
67.3997
70.5329
73.689
76.8489
80.0327
83.2131
86.4184
89.6103
92.8282
96.0192
99.2374
102.412
105.614
108.751
111.917
114.993
118.094
121.085
124.086
126.967
129.827
132.573
135.286
137.752
140.65
141.762
147.09
143.454
153.909
146.135
155.726
156.98
141.127
185.872
119.377
194.096
140.133
164.151
196.517
126.31
233.661
104.091
235.31
156.963
158.224
274.082
172.857
227.475
192.283
241.66
229.814
201.742
232.228
237.717
-26.9779
-27.2439
-27.5941
-28.0081
-28.4403
-28.866
-29.2815
-29.6903
-30.0935
-30.4882
-30.8685
-31.228
-31.5601
-31.8582
-32.1153
-32.3236
-32.4754
-32.5622
-32.5756
-32.5072
-32.3485
-32.0916
-31.7294
-31.2555
-30.6645
-29.9525
-29.1165
-28.1551
-27.0684
-25.8574
-24.5245
-23.0732
-21.5077
-19.8329
-18.0544
-16.178
-14.2096
-12.1552
-10.0208
-7.81222
-5.5349
-3.19404
-0.794562
1.65908
4.16274
6.71266
9.3055
11.9381
14.608
17.3125
20.0499
22.8178
25.6152
28.4399
31.2918
34.1684
37.0705
39.9951
42.9442
45.9139
48.9074
51.9195
54.955
58.0068
61.0818
64.1702
67.282
70.4034
73.5491
76.6989
79.8741
83.0459
86.2445
89.4294
92.6426
95.8281
99.0438
102.214
105.417
108.552
111.72
114.796
117.905
120.896
123.91
126.79
129.675
132.405
135.172
137.588
140.585
141.638
146.98
143.484
153.731
146.306
155.613
157.017
141.053
185.547
119.546
194.082
140.526
163.282
196.124
125.557
233.574
104.526
235.351
157.401
154.721
273.37
173.338
226.745
192.4
241.883
229.674
201.551
232.111
237.65
-24.5783
-24.7914
-25.0818
-25.4307
-25.7958
-26.1538
-26.5016
-26.8428
-27.1789
-27.5078
-27.8247
-28.1244
-28.4014
-28.6502
-28.8652
-29.0399
-29.1678
-29.2418
-29.2545
-29.1984
-29.0658
-28.8493
-28.5418
-28.1368
-27.6283
-27.0113
-26.2817
-25.4366
-24.4742
-23.3938
-22.1961
-20.8825
-19.4557
-17.9189
-16.2764
-14.5326
-12.6927
-10.7619
-8.74549
-6.64891
-4.47745
-2.23619
0.0699824
2.43645
4.85896
7.33344
9.85641
12.4243
15.0344
17.6837
20.3702
23.0911
25.8454
28.6303
31.4456
34.2883
37.1595
40.0554
42.9782
45.9234
48.8947
51.8858
54.9024
57.9362
60.9951
64.0679
67.1657
70.2735
73.4072
76.5451
79.7104
82.8719
86.0625
89.2386
92.4458
95.624
98.836
102
105.202
108.333
111.504
114.577
117.693
120.681
123.71
126.583
129.5
132.205
135.04
137.39
140.503
141.483
146.839
143.541
153.475
146.594
155.32
157.087
140.993
184.917
120.029
193.908
141.16
162.286
195.241
124.7
233.22
105.295
235.015
158.19
151.645
272.171
173.973
226.021
192.524
241.968
229.534
201.522
231.994
237.57
-22.1586
-22.3267
-22.5655
-22.858
-23.1646
-23.464
-23.7532
-24.0356
-24.3134
-24.5848
-24.846
-25.0925
-25.3198
-25.5235
-25.6988
-25.8406
-25.9432
-26.0007
-26.0067
-25.9546
-25.8377
-25.6492
-25.3824
-25.0308
-24.5885
-24.0498
-23.4101
-22.6653
-21.8124
-20.8493
-19.775
-18.5894
-17.2935
-15.889
-14.3787
-12.7658
-11.0542
-9.24816
-7.35224
-5.37125
-3.30997
-1.1733
1.03416
3.30771
5.64321
8.03629
10.4835
12.9808
15.5256
18.1142
20.7447
23.4136
26.1202
28.8606
31.6353
34.4402
37.2769
40.1404
43.0341
45.9516
48.8981
51.8655
54.8611
57.8744
60.9153
63.9703
67.0526
70.1448
73.2652
76.3894
79.5435
82.693
85.8745
89.04
92.2402
95.4093
98.6167
101.773
104.973
108.097
111.271
114.338
117.462
120.443
123.49
126.35
129.304
131.975
134.888
137.158
140.401
141.302
146.664
143.631
153.128
147.006
154.844
157.166
140.936
183.961
120.927
193.49
142.033
161.056
193.814
123.82
232.539
106.489
234.226
159.396
149.211
270.418
174.768
225.313
192.69
241.868
229.432
201.714
231.883
237.484
-19.7213
-19.8509
-20.0454
-20.2887
-20.5445
-20.7928
-21.031
-21.2625
-21.4895
-21.7107
-21.9228
-22.1222
-22.3052
-22.4679
-22.6065
-22.7168
-22.794
-22.833
-22.8285
-22.7748
-22.6659
-22.4957
-22.2582
-21.9473
-21.557
-21.0819
-20.5169
-19.8572
-19.0991
-18.2394
-17.2759
-16.2072
-15.0328
-13.753
-12.3692
-10.8832
-9.29759
-7.61568
-5.84098
-3.9776
-2.02953
-0.00136362
2.10286
4.27839
6.52153
8.82753
11.1933
13.6143
16.0881
18.6103
21.1796
23.7911
26.4451
29.1363
31.8661
34.6287
37.4272
40.2545
43.1156
46.002
48.9209
51.8615
54.8337
57.8239
60.8449
63.8798
66.9449
70.0194
73.125
76.2335
79.3753
82.5108
85.6823
88.8353
92.028
95.1857
98.3884
101.535
104.733
107.848
111.025
114.082
117.216
120.185
123.254
126.092
129.092
131.717
134.718
136.897
140.276
141.105
146.454
143.764
152.674
147.515
154.128
157.221
140.89
182.733
122.359
192.729
143.126
159.544
191.967
123.058
231.435
108.324
232.938
161.013
147.597
268.055
175.694
224.635
192.945
241.554
229.388
202.17
231.786
237.403
-17.2686
-17.3656
-17.5215
-17.722
-17.9334
-18.1373
-18.3311
-18.5183
-18.701
-18.8783
-19.0474
-19.2052
-19.3486
-19.4745
-19.5795
-19.6603
-19.7128
-19.7328
-19.7156
-19.6563
-19.5498
-19.3907
-19.1736
-18.8929
-18.5431
-18.1188
-17.6149
-17.0265
-16.3492
-15.5794
-14.7138
-13.7501
-12.6865
-11.5224
-10.2574
-8.89244
-7.42868
-5.86837
-4.2138
-2.46837
-0.635007