/*--------------------------------*- C++ -*----------------------------------*\
| =========                 |                                                 |
| \\      /  F ield         | OpenFOAM: The Open Source CFD Toolbox           |
|  \\    /   O peration     | Version:  2412                                  |
|   \\  /    A nd           | Website:  www.openfoam.com                      |
|    \\/     M anipulation  |                                                 |
\*---------------------------------------------------------------------------*/
FoamFile
{
    version     2.0;
    format      ascii;
    arch        "LSB;label=32;scalar=64";
    class       surfaceScalarField;
    location    "1.745";
    object      phi_0;
}
// * * * * * * * * * * * * * * * * * * * * * * * * * * * * * * * * * * * * * //

dimensions      [0 3 -1 0 0 0 0];

oriented        oriented;

internalField   nonuniform List<scalar> 
24930
(
0.0179583
0.0127556
-0.0307176
0.0105964
0.00736186
0.00694749
0.00364895
0.00517233
0.00177518
0.00420071
0.000971626
0.00357806
0.000622661
0.00313232
0.000445758
0.00279294
0.000339388
0.00252386
0.000269087
0.00230403
0.000219843
0.00212028
0.000183749
0.00196391
0.000156382
0.00182885
0.000135063
0.00171076
0.000118088
0.00160644
0.000104321
0.00151346
9.29822e-05
0.00142994
8.35152e-05
0.00135442
7.55178e-05
0.00128572
6.86917e-05
0.00122291
6.28119e-05
0.00116519
5.77057e-05
0.00111195
5.32392e-05
0.00106263
4.93064e-05
0.0010168
4.58231e-05
0.000974073
4.27211e-05
0.000934119
3.99451e-05
0.000896661
3.74496e-05
0.000861454
3.51972e-05
0.000828289
3.31567e-05
0.000796978
3.1302e-05
0.00076736
2.96109e-05
0.000739287
2.80645e-05
0.000712634
2.66468e-05
0.000687283
2.53438e-05
0.000663134
2.41437e-05
0.000640093
2.30362e-05
0.000618076
2.20123e-05
0.000597008
2.10643e-05
0.00057682
2.01855e-05
0.000557448
1.93699e-05
0.000538835
1.86121e-05
0.000520927
1.79074e-05
0.000503675
1.72515e-05
0.000487035
1.66411e-05
0.000470964
1.60725e-05
0.000455424
1.55432e-05
0.000440376
1.50502e-05
0.000425788
1.4592e-05
0.000411626
1.41653e-05
0.00039786
1.377e-05
0.000384463
1.3402e-05
0.000371404
1.30629e-05
0.000358662
1.27475e-05
0.000346207
1.24597e-05
0.00033402
1.2192e-05
0.000322074
1.19519e-05
0.000310351
1.1728e-05
0.000298824
1.15328e-05
0.00028748
1.13488e-05
0.000276289
1.11962e-05
0.000265246
1.10485e-05
0.000254315
1.0937e-05
0.000243498
1.0822e-05
0.000232752
1.0751e-05
0.000222092
1.06648e-05
0.000211462
1.06339e-05
0.000200895
1.05713e-05
0.000190319
1.05802e-05
0.000179788
1.05345e-05
0.000169209
1.05822e-05
0.000158668
1.05437e-05
0.000148041
1.06285e-05
0.000137459
1.05841e-05
0.000126758
1.0703e-05
0.000116123
1.06356e-05
0.000105339
1.07843e-05
9.46667e-05
1.06718e-05
8.38218e-05
1.08443e-05
7.31618e-05
1.0659e-05
6.23124e-05
1.08483e-05
5.175e-05
1.05608e-05
4.0989e-05
1.07594e-05
3.06432e-05
1.03439e-05
2.01072e-05
1.05341e-05
1.01093e-05
9.99593e-06
3.49963e-08
1.00722e-05
-9.57711e-06
9.61047e-06
-1.85498e-05
8.97108e-06
-2.85565e-05
1.00048e-05
-3.40155e-05
5.45769e-06
-4.77562e-05
1.37386e-05
-4.78684e-05
1.13119e-07
-5.5861e-05
7.99145e-06
-7.66043e-05
2.07433e-05
-4.73307e-05
-2.92774e-05
-0.000120281
7.29504e-05
-3.27232e-05
-8.75599e-05
-0.000147055
0.000114329
-7.38879e-05
-7.31632e-05
-3.89645e-05
-3.49289e-05
-0.000277817
0.000238864
4.42934e-05
-0.000322121
-0.000403476
0.000447763
-0.000128604
-0.000274864
-0.0002366
0.000107991
-0.000296107
5.95691e-05
-3.53799e-05
-0.000261176
-0.00058526
0.000550225
0.000167843
-0.000753005
-0.00106272
0.00123058
-0.000773756
-0.000288976
0.000254893
-0.00102868
-0.000349247
0.000604144
-1.73316e-05
-0.000331774
-0.000241928
0.000224487
0.000311157
-0.000553111
-8.49333e-05
0.0003961
-0.000556212
0.000471298
0.000262217
-0.000818436
-0.000229277
0.0336636
0.0163232
-0.0372311
0.0277269
0.0132986
0.0221755
0.00920039
0.0179029
0.0060478
0.0148582
0.00401637
0.0126988
0.00278208
0.0111125
0.00203205
0.00989607
0.00155584
0.00892932
0.00123585
0.00813936
0.00100982
0.00747944
0.00084368
0.00691828
0.000717547
0.00643412
0.000619231
0.00601128
0.000540924
0.00563819
0.000477416
0.00530606
0.00042511
0.00500812
0.000381451
0.00473905
0.000344583
0.0044946
0.000313128
0.00427135
0.000286047
0.0040665
0.000262541
0.00387774
0.000241992
0.00370312
0.000223908
0.00354102
0.0002079
0.00339008
0.000193652
0.00324909
0.000180909
0.00311706
0.00016946
0.00299311
0.000159133
0.00287647
0.000149781
0.00276647
0.000141285
0.00266252
0.000133543
0.0025641
0.000126466
0.00247076
0.00011998
0.00238207
0.000114022
0.00229766
0.000108535
0.00221722
0.000103474
0.00214042
9.87964e-05
0.00206701
9.44668e-05
0.00199674
9.04537e-05
0.00192938
8.67294e-05
0.00186472
8.32694e-05
0.00180257
8.0052e-05
0.00174277
7.70578e-05
0.00168514
7.42704e-05
0.00162954
7.16741e-05
0.00157584
6.92568e-05
0.00152389
6.70049e-05
0.00147358
6.49104e-05
0.00142479
6.29605e-05
0.00137742
6.1151e-05
0.00133136
5.94682e-05
0.00128652
5.79132e-05
0.00124281
5.64696e-05
0.00120013
5.51457e-05
0.00115842
5.39196e-05
0.00111757
5.28094e-05
0.00107753
5.17828e-05
0.0010382
5.08723e-05
0.000999532
5.00288e-05
0.000961434
4.9306e-05
0.000923863
4.86306e-05
0.000886724
4.80872e-05
0.000849991
4.7566e-05
0.000813556
4.71965e-05
0.000777416
4.68147e-05
0.000741445
4.66143e-05
0.000705672
4.63534e-05
0.000669943
4.63166e-05
0.000634333
4.6152e-05
0.000598652
4.627e-05
0.000563035
4.61664e-05
0.000527243
4.64248e-05
0.000491496
4.63343e-05
0.000455489
4.67129e-05
0.000419554
4.65717e-05
0.000383297
4.70421e-05
0.000347202
4.67661e-05
0.000310754
4.72914e-05
0.000274637
4.67733e-05
0.000238168
4.7315e-05
0.000202296
4.64302e-05
0.000166088
4.69632e-05
0.000130861
4.55675e-05
9.53107e-05
4.60802e-05
6.12489e-05
4.40537e-05
2.69873e-05
4.43298e-05
-5.44664e-06
4.20406e-05
-3.67067e-05
4.02276e-05
-7.02578e-05
4.35519e-05
-8.95046e-05
2.47016e-05
-0.000137951
6.21813e-05
-0.000132531
-5.30999e-06
-0.000175592
5.10489e-05
-0.000217177
6.23255e-05
-0.000156836
-8.96207e-05
-0.000354633
0.000270742
-0.000106691
-0.000335503
-0.000486288
0.000493918
-0.000196424
-0.000363025
-0.000176745
-5.46085e-05
-0.000758288
0.0008204
0.00011166
-0.00119207
-0.00120555
0.00176496
-0.000372989
-0.00110739
-0.000871443
0.000606406
-0.000842804
3.08471e-05
-0.000182453
-0.000921459
-0.00158874
0.00195642
0.000506879
-0.00284856
-0.00329051
0.00502799
-0.00216068
-0.00141881
0.000570811
-0.00376018
-0.00108182
0.00225679
5.0581e-05
-0.0014642
-0.000595918
0.000870993
0.000983221
-0.00213226
-0.000403259
0.00178258
-0.00160818
0.00167622
0.000990349
-0.00341696
-0.000865741
0.0414317
0.0160208
-0.0411293
0.0391398
0.0155905
0.0352091
0.0131311
0.0309231
0.0103339
0.0270093
0.0079301
0.0237218
0.00606969
0.0210487
0.00470509
0.0188812
0.00372337
0.0171046
0.00301251
0.0156262
0.00248821
0.0143772
0.00209273
0.0133072
0.00178755
0.0123793
0.00154707
0.0115662
0.00135406
0.010847
0.00119664
0.0102056
0.00106644
0.00962967
0.000957416
0.00910913
0.000865118
0.00863602
0.000786221
0.00820387
0.000718193
0.00780731
0.000659079
0.00744194
0.000607352
0.00710403
0.000561801
0.00679046
0.000521457
0.00649856
0.000485535
0.00622605
0.000453396
0.00597098
0.000424516
0.00573163
0.000398461
0.00550653
0.000374867
0.00529437
0.00035343
0.005094
0.000333893
0.00490441
0.000316036
0.00472471
0.000299671
0.00455408
0.000284637
0.00439181
0.000270795
0.00423724
0.000258026
0.00408981
0.000246225
0.00394896
0.000235303
0.00381423
0.000225179
0.00368518
0.000215783
0.00356139
0.000207054
0.0034425
0.000198936
0.00332818
0.000191381
0.00321811
0.000184346
0.00311199
0.000177793
0.00300957
0.000171691
0.00291057
0.000166005
0.00281478
0.000160714
0.00272196
0.000155787
0.00263191
0.000151211
0.00254443
0.000146957
0.00245934
0.000143019
0.00237645
0.000139365
0.0022956
0.000136005
0.00221664
0.000132898
0.00213939
0.000130071
0.00206372
0.000127465
0.00198947
0.000125134
0.00191652
0.000122989
0.00184472
0.000121122
0.00177396
0.000119403
0.00170408
0.000117977
0.00163501
0.000116651
0.00156657
0.00011565
0.00149871
0.000114684
0.00143124
0.000114092
0.00136416
0.000113446
0.00129724
0.000113246
0.00123054
0.000112865
0.00116378
0.000113029
0.00109712
0.000112837
0.00103022
0.000113325
0.000963348
0.000113215
0.000896093
0.00011397
0.000828866
0.0001138
0.000761166
0.000114743
0.000693608
0.000114324
0.000625545
0.000115353
0.000557878
0.000114438
0.000489737
0.000115454
0.00042242
0.000113744
0.000354687
0.000114692
0.000288449
0.000111801
0.000221801
0.000112723
0.00015764
0.00010821
9.31365e-05
0.000108829
3.18501e-05
0.000103323
-2.73992e-05
9.94729e-05
-9.00205e-05
0.000106169
-0.000128291
6.29688e-05
-0.000218481
0.000152367
-0.000208582
-1.52123e-05
-0.000298322
0.000140786
-0.000356518
0.000120517
-0.00027616
-0.00016998
-0.00059929
0.000593864
-0.000192583
-0.000742208
-0.000868399
0.00116972
-0.000326392
-0.000905034
-0.000371193
-9.81188e-06
-0.00123811
0.0016873
0.000187322
-0.00261751
-0.00206601
0.00401828
-0.00063316
-0.00254021
-0.0016706
0.00164381
-0.00144609
-0.000193774
-0.000423544
-0.00194392
-0.00256216
0.00409495
0.000935206
-0.00634586
-0.00571995
0.0116832
-0.0035037
-0.00363509
0.000731688
-0.00799556
-0.00191417
0.00490267
0.000283037
-0.00366144
-0.000875655
0.0020297
0.00176228
-0.0047702
-0.000869325
0.0044142
-0.00264822
0.00345512
0.00198552
-0.0080507
-0.00185202
0.0458932
0.0147222
-0.0445945
0.0459742
0.0155096
0.0443934
0.0147119
0.0416685
0.0130588
0.0384244
0.0111742
0.0351199
0.00937426
0.0320222
0.00780284
0.0292454
0.00650008
0.0268085
0.00544949
0.0246851
0.0046116
0.0228341
0.0039437
0.0212137
0.00340802
0.0197865
0.00297426
0.0185214
0.00261916
0.0173928
0.00232523
0.0163799
0.00207936
0.0154657
0.00187165
0.0146362
0.00169459
0.01388
0.00154238
0.0131877
0.00141054
0.0125512
0.00129556
0.0119639
0.00119463
0.0114201
0.00110553
0.0109151
0.00102644
0.0104448
0.000955895
0.0100054
0.000892688
0.00959412
0.000835818
0.00920811
0.000784455
0.00884505
0.000737903
0.00850289
0.000695574
0.0081798
0.000656971
0.00787415
0.000621666
0.00758451
0.000589296
0.00730959
0.000559546
0.00704823
0.000532146
0.00679938
0.00050686
0.00656211
0.000483485
0.00633556
0.000461844
0.00611896
0.00044178
0.00591158
0.000423155
0.00571279
0.000405845
0.00552198
0.000389745
0.0053386
0.000374757
0.00516215
0.000360798
0.00499216
0.000347792
0.00482818
0.000335674
0.00466981
0.000324381
0.00451667
0.000313866
0.00436839
0.000304073
0.00422464
0.00029497
0.00408511
0.000286504
0.00394948
0.000278659
0.00381747
0.00027138
0.00368882
0.000264674
0.00356326
0.000258473
0.00344053
0.000252814
0.0033204
0.000247603
0.00320263
0.000242916
0.00308702
0.000238617
0.00297331
0.000234838
0.00286135
0.000231381
0.00275088
0.000228464
0.00264175
0.00022579
0.00253371
0.000223699
0.00242666
0.000221745
0.00232032
0.000220446
0.00221463
0.000219142
0.00210929
0.000218597
0.00200432
0.000217845
0.00189936
0.000217998
0.00179454
0.000217661
0.00168944
0.000218427
0.00158435
0.000218315
0.00147874
0.000219578
0.00137311
0.000219433
0.00126682
0.000221032
0.00116064
0.000220508
0.00105375
0.000222239
0.000947304
0.000220883
0.00084021
0.000222544
0.000734161
0.000219789
0.000627572
0.000221277
0.000523015
0.000216354
0.000417936
0.000217797
0.000316424
0.000209718
0.000214407
0.000210841
0.00011727
0.000200456
2.28279e-05
0.00019391
-7.56241e-05
0.000204616
-0.000139618
0.00012696
-0.000278525
0.000291269
-0.000268363
-2.53769e-05
-0.000414863
0.000287282
-0.000489621
0.000195271
-0.000398661
-0.000260942
-0.000850533
0.00104573
-0.000288239
-0.0013045
-0.00128438
0.00216585
-0.000467216
-0.0017222
-0.000623457
0.000146434
-0.00171839
0.00278222
0.000273374
-0.00460927
-0.00297702
0.00726867
-0.000910696
-0.0046065
-0.00263609
0.00336918
-0.00212274
-0.000707196
-0.000779268
-0.00328731
-0.00349838
0.00681398
0.00148696
-0.0113311
-0.00829266
0.0214628
-0.00478599
-0.0071418
0.000673593
-0.0134551
-0.00282708
0.00840336
0.000694995
-0.00718355
-0.00107784
0.00380254
0.00266114
-0.00850918
-0.00146839
0.00854375
-0.00363728
0.00562402
0.00326801
-0.014956
-0.0031094
0.0493582
0.0135282
-0.0481642
0.0503206
0.0145472
0.0503371
0.0146954
0.0493134
0.0140825
0.0474675
0.0130201
0.045092
0.0117498
0.0424586
0.0104362
0.0397738
0.00918491
0.0371722
0.00805106
0.0347283
0.00705555
0.0324741
0.00619793
0.0304154
0.00546667
0.0285439
0.00484577
0.0268446
0.00431854
0.0253002
0.0038696
0.0238939
0.00348564
0.02261
0.00315553
0.0214345
0.00287011
0.0203549
0.00262194
0.0193605
0.00240494
0.0184419
0.00221419
0.0175908
0.00204567
0.0168003
0.00189606
0.016064
0.00176266
0.0153767
0.00164319
0.0147336
0.00153578
0.0141306
0.00143885
0.0135639
0.00135109
0.0130304
0.00127137
0.0125272
0.00119875
0.0120518
0.0011324
0.0116018
0.00107164
0.0111752
0.00101585
0.0107702
0.000964521
0.0103852
0.000917195
0.0100185
0.000873483
0.00966897
0.000833041
0.00933524
0.00079557
0.0090162
0.000760806
0.00871084
0.000728513
0.0084182
0.000698485
0.00813741
0.000670537
0.00786766
0.000644506
0.00760821
0.00062025
0.00735837
0.000597637
0.00711749
0.000576558
0.00688497
0.000556903
0.00666026
0.00053859
0.00644282
0.000521526
0.00623214
0.000505652
0.00602778
0.00049088
0.00582927
0.000477178
0.00563621
0.000464457
0.00544817
0.000452721
0.00526479
0.000441866
0.00508569
0.000431935
0.00491051
0.00042279
0.00473891
0.000414533
0.00457058
0.000406965
0.00440516
0.00040027
0.00424239
0.000394164
0.00408192
0.000388949
0.00392352
0.000384203
0.00376683
0.000380404
0.00361167
0.000376919
0.00345765
0.000374476
0.00330467
0.000372135
0.0031523
0.000370981
0.00300052
0.000369631
0.00284886
0.000369666
0.00269744
0.000369087
0.00254571
0.000370167
0.00239397
0.000370055
0.00224158
0.000371978
0.00208909
0.000371917
0.00193572
0.000374404
0.0017824
0.000373835
0.0016281
0.000376534
0.00147427
0.000374715
0.00131953
0.000377273
0.00116606
0.000373261
0.00101184
0.000375494
0.000860211
0.000367975
0.000707884
0.000370119
0.000560294
0.000357303
0.000411996
0.000359133
0.000270437
0.00034201
0.000132176
0.000332167
-1.03319e-05
0.000347119
-0.000108255
0.00022488
-0.000304333
0.000487341
-0.000299769
-2.99432e-05
-0.000514291
0.000501801
-0.000606949
0.000287923
-0.000516556
-0.000351335
-0.00110012
0.00162928
-0.000388335
-0.00201628
-0.0017257
0.0035032
-0.000618026
-0.00282988
-0.000934587
0.000463002
-0.00219469
0.00404229
0.000369201
-0.00717317
-0.0039196
0.0115575
-0.00120052
-0.00732555
-0.00376727
0.00593591
-0.00288212
-0.00159242
-0.0012817
-0.00488765
-0.00438859
0.00992078
0.0021927
-0.0179124
-0.0109129
0.0345684
-0.00598412
-0.0120706
0.00030754
-0.0197468
-0.00379578
0.0125067
0.00130135
-0.0122807
-0.0012007
0.00630461
0.00369471
-0.0134046
-0.00216605
0.0144045
-0.00453477
0.00799273
0.00483256
-0.0243233
-0.00455597
0.052815
0.0126304
-0.0519172
0.0538427
0.0135195
0.0545254
0.0140127
0.0545931
0.0140149
0.0539931
0.0136201
0.052795
0.0129479
0.0511282
0.0121031
0.049139
0.0111741
0.0469622
0.0102278
0.0447084
0.0093094
0.0424597
0.00844666
0.0402721
0.00765427
0.0381802
0.00693771
0.0362023
0.00629638
0.0343459
0.005726
0.0326111
0.00522043
0.0309938
0.00477283
0.0294875
0.00437638
0.0280848
0.0040247
0.0267776
0.00371205
0.0255585
0.00343336
0.0244199
0.00318423
0.0233551
0.00296084
0.0223578
0.00275992
0.0214223
0.00257868
0.0205434
0.00241469
0.0197163
0.0022659
0.0189369
0.00213052
0.0182012
0.00200704
0.0175058
0.00189412
0.0168475
0.00179064
0.0162236
0.00169558
0.0156313
0.00160809
0.0150684
0.0015274
0.0145327
0.00145286
0.0140223
0.00138388
0.0135354
0.00131996
0.0130703
0.00126065
0.0126256
0.00120555
0.0121998
0.0011543
0.0117917
0.00110658
0.0114001
0.00106213
0.0110239
0.00102069
0.0106621
0.00098203
0.0103138
0.00094596
0.00997805
0.000912306
0.00965406
0.0008809
0.00934105
0.000851613
0.00903829
0.000824299
0.00874508
0.000798866
0.0084608
0.000775179
0.0081848
0.000753184
0.00791653
0.000732749
0.00765539
0.000713867
0.00740088
0.000696389
0.00715247
0.000680367
0.00690967
0.000665604
0.00667199
0.000652231
0.00643899
0.000639974
0.0062102
0.000629076
0.00598524
0.000619146
0.00576361
0.000610591
0.00554499
0.000602834
0.00532889
0.000596519
0.00511504
0.000590783
0.00490292
0.000586613
0.00469234
0.000582726
0.00448274
0.000580594
0.00427405
0.000578327
0.00406564
0.000578081
0.00385763
0.000577111
0.00364928
0.000578525
0.00344094
0.000578397
0.00323176
0.000581156
0.00302243
0.000581251
0.00281192
0.000584919
0.00260136
0.000584394
0.00238947
0.000588417
0.00217804
0.00058615
0.00196534
0.000589964
0.00175409
0.000584512
0.00154177
0.000587805
0.00133262
0.000577122
0.00112249
0.00058024
0.000918344
0.000561446
0.00071322
0.000564251
0.000516884
0.000538341
0.000324359
0.000524687
0.000127811
0.000543661
-1.29089e-05
0.000365597
-0.000277501
0.000751927
-0.00028598
-2.14658e-05
-0.000581633
0.00079745
-0.000694877
0.000401161
-0.000618766
-0.000427446
-0.0013363
0.0023468
-0.000484298
-0.00286828
-0.00217987
0.00519876
-0.000774998
-0.00423476
-0.0013028
0.000990828
-0.00266235
0.00540181
0.000472129
-0.0103077
-0.00486954
0.0168991
-0.00149266
-0.0107024
-0.00505111
0.00949434
-0.00372985
-0.00291377
-0.00196832
-0.00664908
-0.00523538
0.0131877
0.00307379
-0.0262215
-0.0134582
0.0511005
-0.00706756
-0.0184613
-0.000359096
-0.0264552
-0.00480483
0.0169525
0.00208174
-0.0191674
-0.00124644
0.0096328
0.00488239
-0.0195334
-0.00290443
0.0221914
-0.00530492
0.0103932
0.00664317
-0.0362715
-0.0061288
0.0565336
0.0119437
-0.0558469
0.0573868
0.0126664
0.0581827
0.0132168
0.0587086
0.013489
0.0588424
0.0134864
0.0585381
0.0132522
0.0578054
0.0128359
0.056692
0.0122875
0.0552666
0.0116533
0.0536045
0.0109715
0.0517793
0.0102719
0.0498561
0.00957741
0.0478897
0.00890413
0.045923
0.00826308
0.043988
0.00766098
0.0421072
0.00710125
0.0402952
0.00658484
0.0385606
0.00611095
0.0369077
0.00567763
0.0353374
0.00528229
0.0338488
0.004922
0.0324393
0.00459374
0.0311055
0.00429456
0.0298438
0.00402167
0.0286499
0.00377247
0.02752
0.0035446
0.02645
0.00333591
0.025436
0.0031445
0.0244743
0.00296866
0.0235616
0.00280685
0.0226945
0.00265772
0.02187
0.00252006
0.0210853
0.00239279
0.0203377
0.00227497
0.0196248
0.00216573
0.0189444
0.00206432
0.0182943
0.00197008
0.0176725
0.0018824
0.0170773
0.00180075
0.0165069
0.00172465
0.0159598
0.00165367
0.0154346
0.00158741
0.0149297
0.00152553
0.014444
0.00146772
0.0139763
0.00141371
0.0135254
0.00136324
0.0130902
0.00131608
0.0126698
0.00127204
0.0122632
0.00123092
0.0118694
0.00119259
0.0114878
0.00115684
0.0111174
0.0011236
0.0107575
0.00109269
0.0104073
0.00106408
0.0100661
0.00103757
0.00973326
0.00101322
0.00940812
0.000990759
0.00909001
0.000970355
0.00877836
0.000951641
0.00847252
0.000934933
0.00817198
0.000919706
0.00787609
0.000906498
0.0075844
0.000894539
0.00729625
0.000884678
0.00701128
0.000875771
0.00672879
0.00086912
0.00644851
0.00086302
0.00616969
0.000859426
0.00589221
0.000855817
0.00561524
0.000855057
0.00533887
0.000853485
0.00506217
0.000855237
0.00478551
0.000855061
0.00450781
0.000858866
0.00422985
0.000859208
0.00395034
0.000864427
0.00367065
0.000864084
0.00338916
0.000869904
0.00310804
0.000867267
0.00282516
0.000872843
0.00254385
0.000865822
0.002261
0.000870648
0.00198187
0.000856251
0.00170134
0.000860759
0.00142808
0.000834697
0.00115348
0.000838849
0.000889876
0.000801938
0.000630494
0.000784064
0.000367807
0.000806341
0.000168446
0.000564955
-0.000174052
0.00109442
-0.000203585
8.06306e-06
-0.000596636
0.0011905
-0.000734555
0.000539073
-0.000689718
-0.000472281
-0.00154294
0.00320001
-0.000563303
-0.00384791
-0.00262981
0.00726525
-0.000929022
-0.00593556
-0.00172022
0.00178205
-0.003117
0.00679854
0.000577073
-0.0140017
-0.00580121
0.0232774
-0.00177196
-0.0147316
-0.00645848
0.0141809
-0.00466575
-0.00470658
-0.00287494
-0.00843981
-0.00605974
0.0163724
0.00412923
-0.0364104
-0.0157982
0.071028
-0.00799837
-0.0262612
-0.00133269
-0.0331208
-0.00585765
0.0214774
0.00296291
-0.027988
-0.00122664
0.0138224
0.00624741
-0.0270075
-0.00359602
0.0320349
-0.0059209
0.0127181
0.00862637
-0.0508188
-0.00781238
0.0605373
0.0113808
-0.0599744
0.0612215
0.0119823
0.0619357
0.0125026
0.0625573
0.0128675
0.0629886
0.0130551
0.0631657
0.0130751
0.063053
0.0129486
0.0626401
0.0127004
0.0619372
0.0123562
0.060969
0.0119397
0.05977
0.011471
0.0583799
0.0109675
0.0568399
0.0104441
0.0551901
0.00991288
0.0534674
0.00938369
0.0517042
0.00886445
0.0499278
0.00836124
0.0481603
0.00787845
0.0464188
0.00741906
0.0447163
0.0069848
0.0430619
0.00657644
0.0414616
0.00619399
0.0399193
0.00583687
0.0384368
0.00550414
0.0370146
0.00519457
0.0356524
0.00490682
0.0343488
0.00463946
0.0331022
0.00439109
0.0319105
0.00416032
0.0307715
0.00394584
0.0296828
0.00374641
0.028642
0.00356085
0.0276467
0.00338808
0.0266945
0.00322711
0.0257832
0.00307702
0.0249106
0.00293697
0.0240744
0.00280622
0.0232728
0.00268406
0.0225036
0.00256987
0.0217652
0.00246307
0.0210558
0.00236313
0.0203736
0.00226957
0.0197171
0.00218197
0.0190849
0.00209993
0.0184756
0.0020231
0.0178877
0.00195115
0.0173199
0.00188379
0.0167712
0.00182077
0.0162403
0.00176182
0.0157262
0.00170676
0.0152277
0.00165534
0.0147439
0.00160744
0.0142738
0.00156283
0.0138164
0.00152146
0.0133709
0.00148307
0.0129364
0.00144774
0.0125121
0.0014151
0.0120971
0.00138537
0.0116907
0.00135807
0.011292
0.00133361
0.0109004
0.0013113
0.0105151
0.00129183
0.0101355
0.00127421
0.00976061
0.00125954
0.00939008
0.00124631
0.00902297
0.00123624
0.00865891
0.0012271
0.00829693
0.00122142
0.00793682
0.00121593
0.00757753
0.00121436
0.00721912
0.00121191
0.00686037
0.00121399
0.00650171
0.00121372
0.00614175
0.00121884
0.00578141
0.00121955
0.00541903
0.0012268
0.00505626
0.00122685
0.00469106
0.00123511
0.00432605
0.00123227
0.00395857
0.00124032
0.0035927
0.00123169
0.00322461
0.00123874
0.00286071
0.00122014
0.0024948
0.00122666
0.00213746
0.00119204
0.00177824
0.00119807
0.00143236
0.00114781
0.00109095
0.00112547
0.000747489
0.00114979
0.000474904
0.000837537
3.72761e-05
0.00153204
-1.66503e-05
6.19878e-05
-0.000532348
0.00170619
-0.000700155
0.00070687
-0.000707922
-0.000464512
-0.00169827
0.00419034
-0.000607021
-0.00493915
-0.00305277
0.00971098
-0.00106497
-0.00792337
-0.00217131
0.00288843
-0.00355309
0.00818027
0.000677134
-0.0182319
-0.00669033
0.0306448
-0.0020192
-0.0194027
-0.00794183
0.0201035
-0.0056787
-0.0069698
-0.00402494
-0.0100935
-0.00690134
0.0192487
0.0053227
-0.0486344
-0.017814
0.0941648
-0.00872284
-0.0353525
-0.00266481
-0.0391787
-0.00697603
0.0257886
0.00380799
-0.0387721
-0.00116545
0.0187958
0.0078128
-0.0359857
-0.00412212
0.0439698
-0.00636056
0.0149565
0.010673
-0.0678524
-0.00966626
0.0648199
0.0108965
-0.0643356
0.065385
0.0114172
0.0659924
0.0118953
0.0665768
0.0122831
0.0670757
0.0125562
0.0674404
0.0127103
0.0676357
0.0127533
0.0676375
0.0126986
0.0674326
0.0125611
0.067017
0.0123553
0.0663942
0.0120937
0.0655748
0.0117869
0.0645747
0.0114442
0.0634138
0.0110738
0.0621147
0.0106828
0.0607016
0.0102776
0.0591987
0.00986412
0.0576295
0.00944762
0.0560157
0.00903279
0.0543769
0.00862367
0.0527297
0.00822361
0.0510884
0.0078353
0.0494644
0.00746078
0.0478671
0.00710148
0.0463033
0.00675832
0.0447784
0.00643175
0.0432959
0.0061219
0.0418584
0.00582858
0.0404672
0.00555146
0.0391231
0.00529
0.0378258
0.0050436
0.0365751
0.00481157
0.03537
0.0045932
0.0342093
0.00438775
0.0330918
0.00419451
0.032016
0.00401278
0.0309803
0.00384189
0.0299831
0.0036812
0.0290229
0.00353011
0.0280979
0.00338804
0.0272066
0.00325446
0.0263473
0.00312885
0.0255185
0.00301075
0.0247187
0.00289974
0.0239464
0.00279541
0.0232001
0.00269741
0.0224786
0.00260538
0.0217803
0.00251904
0.0211041
0.00243806
0.0204486
0.00236224
0.0198127
0.00229127
0.0191951
0.00222501
0.0185948
0.00216316
0.0180106
0.00210568
0.0174415
0.00205224
0.0168863
0.00200293
0.0163441
0.0019573
0.0158139
0.00191563
0.0152947
0.00187729
0.0147855
0.00184282
0.0142854
0.00181134
0.0137935
0.00178375
0.013309
0.00175874
0.0128308
0.00173775
0.0123583
0.00171886
0.0118903
0.00170425
0.0114263
0.00169106
0.0109652
0.00168258
0.0105066
0.00167455
0.0100492
0.0016718
0.00959293
0.00166815
0.00913636
0.00167058
0.00867991
0.00167018
0.0082218
0.00167695
0.00776313
0.00167822
0.00730179
0.00168815
0.00683973
0.00168891
0.00637437
0.00170046
0.0059089
0.00169774
0.00543997
0.00170924
0.00497254
0.00169912
0.00450188
0.00170939
0.00403579
0.00168622
0.00356675
0.00169569
0.00310753
0.00165125
0.00264564
0.00165995
0.00219952
0.00159392
0.00175787
0.00156711
0.00131599
0.00159167
0.000951822
0.0012017
0.000413388
0.00207046
0.000284425
0.000190947
-0.000353794
0.00234441
-0.00055627
0.000909337
-0.00064432
-0.000376459
-0.001773
0.005319
-0.000589915
-0.00612222
-0.00341931
0.0125404
-0.00115905
-0.0101836
-0.00263016
0.00435958
-0.00396124
0.00951129
0.000765607
-0.0229588
-0.00751644
0.0389269
-0.00221243
-0.0247067
-0.00943648
0.0273275
-0.00674156
-0.0096648
-0.0054145
-0.0114204
-0.00781252
0.0216467
0.00657378
-0.0630206
-0.0194207
0.120159
-0.00916547
-0.0456078
-0.00422676
-0.0441173
-0.00818244
0.0297443
0.00442449
-0.0513791
-0.00110095
0.0243213
0.00959588
-0.0466825
-0.00433535
0.0579011
-0.00659322
0.0172144
0.0126544
-0.0871
-0.0118397
0.0693901
0.0104692
-0.0689628
0.0698734
0.010934
0.0703936
0.011375
0.0709151
0.0117616
0.0713983
0.0120731
0.0718093
0.0122994
0.0721221
0.0124405
0.0723173
0.0125034
0.0723807
0.0124977
0.0723025
0.0124336
0.0720756
0.0123207
0.0716962
0.0121663
0.0711638
0.0119767
0.0704806
0.011757
0.0696521
0.0115113
0.0686868
0.0112429
0.0675959
0.010955
0.0663928
0.0106507
0.0650924
0.0103332
0.0637106
0.0100055
0.0622633
0.00967087
0.0607662
0.00933237
0.059234
0.00899294
0.0576802
0.00865527
0.0561168
0.00832173
0.0545542
0.00799435
0.0530013
0.00767481
0.0514654
0.00736442
0.0499526
0.00706421
0.0484677
0.0067749
0.0470143
0.00649696
0.0455952
0.00623065
0.0442124
0.00597604
0.042867
0.00573309
0.0415599
0.00550161
0.0402913
0.00528137
0.0390611
0.00507207
0.0378689
0.00487337
0.0367141
0.00468491
0.0355959
0.00450629
0.0345132
0.00433711
0.0334651
0.00417699
0.0324503
0.00402553
0.0314677
0.00388237
0.030516
0.00374713
0.0295939
0.0036195
0.0287001
0.00349912
0.0278335
0.00338573
0.0269925
0.00327899
0.0261761
0.00317869
0.0253829
0.0030845
0.0246116
0.00299629
0.0238611
0.00291371
0.02313
0.00283675
0.0224173
0.002765
0.0217216
0.00269861
0.0210419
0.00263703
0.0203769
0.00258063
0.0197256
0.00252863
0.0190867
0.00248172
0.0184593
0.0024388
0.0178421
0.002401
0.0172341
0.00236672
0.0166341
0.00233775
0.0160413
0.00231168
0.0154543
0.00229128
0.0148725
0.00227293
0.0142942
0.00226081
0.0137193
0.00224953
0.0131458
0.00224524
0.0125739
0.00224006
0.0120016
0.00224289
0.0114294
0.00224238
0.0108551
0.0022513
0.0102799
0.00225344
0.00970112
0.00226691
0.00912115
0.00226888
0.00853671
0.0022849
0.00795162
0.00228283
0.0073617
0.00229915
0.00677292
0.00228789
0.00617948
0.00230283
0.00559077
0.00227493
0.00499775
0.0022887
0.00441565
0.00223335
0.00382969
0.0022459
0.00326194
0.00216166
0.00269828
0.00213076
0.00213677
0.00215318
0.00165865
0.00167981
0.000997416
0.00273169
0.000776046
0.000412315
-2.37321e-05
0.00314418
-0.000252669
0.00113826
-0.000460581
-0.000168539
-0.00172777
0.00658617
-0.000476825
-0.00737316
-0.00369172
0.0157552
-0.00117657
-0.0126988
-0.00305853
0.00624158
-0.00432405
0.0107767
0.000840029
-0.0281228
-0.00826311
0.04803
-0.00232798
-0.0306418
-0.0108641
0.0358637
-0.00780557
-0.0127234
-0.00699699
-0.0122289
-0.00884279
0.0234923
0.0077612
-0.0796246
-0.020576
0.148497
-0.00922264
-0.0569612
-0.00578502
-0.0475548
-0.00946348
0.0334228
0.00460578
-0.0654485
-0.00107816
0.0300052
0.0116022
-0.0593629
-0.00406978
0.0735732
-0.00655634
0.0197009
0.0144565
-0.108113
-0.01456
0.0742676
0.0100865
-0.0738848
0.0746917
0.0105099
0.075146
0.0109207
0.0756099
0.0112977
0.0760574
0.0116256
0.0764641
0.0118927
0.0768101
0.0120946
0.0770808
0.0122328
0.0772658
0.0123127
0.0773577
0.0123417
0.0773508
0.0123276
0.0772399
0.0122772
0.0770207
0.0121959
0.0766892
0.0120885
0.0762424
0.0119581
0.0756784
0.0118069
0.0749968
0.0116365
0.0741995
0.011448
0.0732904
0.0112423
0.0722754
0.0110204
0.0711626
0.0107837
0.0699614
0.0105336
0.0686824
0.0102719
0.0673371
0.0100006
0.0659369
0.00972184
0.0644935
0.00943778
0.0630177
0.00915057
0.0615199
0.00886223
0.0600094
0.00857468
0.0584946
0.00828962
0.056983
0.00800854
0.0554809
0.00773272
0.0539938
0.0074632
0.052526
0.00720084
0.0510813
0.00694628
0.0496626
0.00670003
0.0482723
0.00646244
0.0469118
0.00623377
0.0455826
0.00601412
0.0442854
0.00580354
0.0430205
0.005602
0.041788
0.00540942
0.0405879
0.00522564
0.0394198
0.00505053
0.038283
0.0048839
0.037177
0.00472556
0.0361008
0.00457529
0.0350536
0.00443292
0.0340344
0.00429819
0.0330422
0.00417096
0.0320758
0.00405093
0.031134
0.00393803
0.0302159
0.00383192
0.02932
0.00373265
0.0284452
0.00363978
0.0275903
0.00355355
0.026754
0.00347331
0.0259351
0.00339957
0.0251323
0.0033314
0.0243444
0.00326969
0.0235701
0.00321309
0.0228081
0.00316307
0.0220572
0.00311759
0.021316
0.00307899
0.0205835
0.0030442
0.019858
0.00301678
0.0191388
0.00299215
0.018424
0.00297562
0.0177132
0.00296039
0.0170042
0.00295427
0.0162969
0.00294729
0.0155891
0.00295077
0.0148812
0.0029503
0.0141704
0.00296209
0.0134582
0.00296562
0.0127413
0.00298385
0.0120224
0.0029878
0.0112973
0.00300991
0.0105708
0.00300935
0.00983754
0.00303242
0.0091047
0.00302072
0.00836515
0.00304237
0.00763015
0.00300992
0.00688882
0.00303001
0.00615926
0.0029629
0.00542406
0.0029811
0.00470939
0.00287633
0.00399784
0.0028423
0.00329134
0.00285967
0.00267241
0.00229874
0.00186453
0.00353956
0.00152368
0.000753157
0.000586137
0.00408172
0.000250045
0.00147434
-0.000111518
0.000193027
-0.00150967
0.0079843
-0.000218857
-0.00866396
-0.00382174
0.0193581
-0.00106829
-0.0154523
-0.00340386
0.0085772
-0.00461059
0.0119834
0.000908532
-0.0336419
-0.00891432
0.0578528
-0.00233928
-0.0372168
-0.012138
0.0456624
-0.00879594
-0.0160656
-0.00867149
-0.0123533
-0.010014
0.0248347
0.00874348
-0.098382
-0.02127
0.17851
-0.00875437