/*--------------------------------*- C++ -*----------------------------------*\
| =========                 |                                                 |
| \\      /  F ield         | OpenFOAM: The Open Source CFD Toolbox           |
|  \\    /   O peration     | Version:  2412                                  |
|   \\  /    A nd           | Website:  www.openfoam.com                      |
|    \\/     M anipulation  |                                                 |
\*---------------------------------------------------------------------------*/
FoamFile
{
    version     2.0;
    format      ascii;
    arch        "LSB;label=32;scalar=64";
    class       volScalarField;
    location    "1.09";
    object      p;
}
// * * * * * * * * * * * * * * * * * * * * * * * * * * * * * * * * * * * * * //

dimensions      [0 2 -2 0 0 0 0];

internalField   nonuniform List<scalar> 
12600
(
-1.1638
-84.5131
-62.0501
-10.5568
33.3332
66.9358
93.5992
115.601
134.275
150.514
164.905
177.78
189.223
199.244
207.983
215.749
223.122
230.367
237.281
243.01
246.834
249.243
252.156
257.69
264.339
268.017
269.547
270.584
272.798
275.533
277.596
278.945
280.285
281.863
283.345
284.453
285.315
286.198
287.164
288.064
288.781
289.35
289.896
290.468
291.013
291.465
291.829
292.151
292.46
292.746
292.986
293.176
293.336
293.489
293.642
293.793
293.933
294.061
294.169
294.232
294.21
294.039
293.658
293.022
292.132
291.044
289.888
288.833
288.066
287.734
287.934
288.705
290.035
291.864
294.02
296.186
297.612
297.502
295.6
292.45
288.611
284.216
280.887
277.87
277.551
278.335
282.381
287.308
298.903
311.557
333.097
352.46
366.086
395.964
360.97
336.68
320.757
237.299
246.341
262.837
256.006
265.732
258.042
269.909
271.619
249.233
253.012
240.074
218.088
168.339
131.289
119.099
151.994
206.612
295.117
359.609
434.786
472.686
464.347
412.053
58.7812
-18.0507
-27.1535
-1.10901
32.064
62.9854
89.3321
111.555
130.593
147.265
162.096
175.294
186.956
197.136
206.185
214.256
221.974
229.454
236.321
241.769
245.482
248.453
252.519
258.509
264.24
266.986
268.516
270.028
272.656
275.392
277.296
278.634
280.081
281.728
283.194
284.278
285.159
286.088
287.082
287.982
288.688
289.265
289.832
290.418
290.966
291.42
291.788
292.117
292.432
292.723
292.965
293.158
293.321
293.476
293.631
293.782
293.922
294.051
294.159
294.225
294.204
294.038
293.665
293.039
292.159
291.079
289.924
288.864
288.084
287.734
287.915
288.668
289.983
291.801
293.951
296.128
297.587
297.531
295.682
292.57
288.756
284.351
280.997
277.937
277.567
278.294
282.281
287.104
298.581
311.077
332.488
351.973
365.447
395.83
361.649
337.086
321.851
238.396
246.229
262.8
256.012
265.715
257.987
269.709
271.801
249.451
253.094
240.465
218.943
169.387
131.921
118.988
151.126
205.051
293.413
358.054
433.526
472.274
464.828
412.558
85.0359
28.4917
4.3111
12.7595
36.8328
63.6755
88.3693
110.048
129.002
145.723
160.59
173.839
185.586
195.908
205.034
213.292
221.178
228.69
235.456
240.761
244.593
248.31
253.572
259.528
263.822
266.17
267.365
269.631
272.617
275.31
277.085
278.427
279.949
281.633
283.09
284.166
285.066
286.022
287.028
287.926
288.63
289.215
289.792
290.385
290.935
291.39
291.761
292.094
292.414
292.707
292.951
293.146
293.311
293.468
293.624
293.775
293.915
294.043
294.152
294.218
294.2
294.038
293.671
293.051
292.177
291.101
289.946
288.882
288.094
287.732
287.902
288.646
289.953
291.766
293.915
296.096
297.575
297.55
295.729
292.636
288.83
284.421
281.056
277.977
277.578
278.266
282.222
286.992
298.422
310.873
332.205
351.739
365.14
395.735
361.987
337.3
322.386
238.925
246.147
262.785
256.017
265.707
257.963
269.605
271.897
249.532
253.137
240.625
219.299
169.844
132.209
118.905
150.758
204.555
292.85
357.53
433.062
472.087
465.037
412.736
93.8998
58.5034
33.8485
31.3277
45.4065
66.4876
88.5164
109.074
127.595
144.162
158.994
172.276
184.123
194.608
203.928
212.347
220.256
227.735
234.447
239.883
244.246
248.675
254.054
259.285
262.565
264.471
266.398
269.352
272.578
275.172
276.823
278.187
279.787
281.506
282.957
284.033
284.956
285.938
286.956
287.854
288.56
289.154
289.743
290.344
290.897
291.354
291.729
292.067
292.391
292.687
292.934
293.131
293.298
293.457
293.615
293.766
293.907
294.035
294.144
294.212
294.197
294.039
293.678
293.067
292.2
291.129
289.974
288.905
288.106
287.729
287.883
288.615
289.908
291.714
293.86
296.049
297.558
297.579
295.806
292.739
288.951
284.531
281.144
278.028
277.588
278.228
282.135
286.815
298.149
310.436
331.701
351.338
364.628
395.633
362.547
337.642
323.266
239.729
246.015
262.761
256.023
265.695
257.915
269.446
272.055
249.717
253.209
240.981
220.019
170.698
132.684
118.759
149.976
203.127
291.335
356.163
431.983
471.76
465.432
413.16
101.54
81.5823
61.4577
52.6588
57.6542
72.0681
90.3879
109.131
126.818
143.009
157.683
170.935
182.848
193.465
202.92
211.431
219.342
226.758
233.466
239.174
244.091
248.967
254.062
258.41
261.191
263.222
265.799
269.305
272.593
274.999
276.536
277.943
279.626
281.378
282.822
283.9
284.848
285.855
286.882
287.779
288.488
289.093
289.694
290.301
290.857
291.316
291.695
292.039
292.367
292.666
292.915
293.115
293.285
293.446
293.605
293.757
293.898
294.027
294.136
294.206
294.194
294.041
293.687
293.084
292.225
291.158
290.003
288.928
288.117
287.724
287.863
288.577
289.863
291.662
293.806
296.006
297.547
297.608
295.876
292.835
289.062
284.635
281.228
278.078
277.596
278.185
282.045
286.644
297.899
310.122
331.256
350.975
364.167
395.507
363.053
337.97
324.007
240.379
245.837
262.735
256.026
265.682
257.874
269.295
272.202
249.845
253.274
241.248
220.593
171.384
133.058
118.571
149.326
202.204
290.32
355.233
431.185
471.457
465.728
413.448
110.372
99.4053
84.3185
73.588
72.6143
80.7388
94.4386
110.468
126.765
142.288
156.661
169.813
181.742
192.44
201.978
210.539
218.433
225.813
232.584
238.57
243.899
248.945
253.609
257.301
259.928
262.447
265.644
269.343
272.573
274.775
276.198
277.686
279.467
281.246
282.679
283.763
284.737
285.769
286.803
287.699
288.413
289.03
289.643
290.257
290.814
291.276
291.659
292.008
292.341
292.643
292.895
293.097
293.27
293.434
293.595
293.748
293.889
294.018
294.128
294.2
294.191
294.044
293.698
293.103
292.251
291.189
290.034
288.951
288.127
287.718
287.839
288.539
289.812
291.604
293.748
295.959
297.528
297.644
295.959
292.946
289.19
284.75
281.319
278.13
277.6
278.135
281.942
286.448
297.604
309.672
330.732
350.553
363.622
395.34
363.617
338.343
324.782
241
245.577
262.694
256.024
265.667
257.82
269.124
272.369
250.02
253.35
241.605
221.291
172.165
133.428
118.3
148.452
200.758
288.789
353.864
430.087
471.08
466.051
413.831
118.863
112.473
101.804
92.1984
88.5234
91.8503
100.843
113.428
127.639
142.061
155.916
168.865
180.751
191.484
201.075
209.673
217.564
224.937
231.782
237.981
243.551
248.573
252.883
256.257
259.022
262.042
265.663
269.399
272.382
274.25
275.878
277.438
279.317
281.114
282.532
283.621
284.624
285.679
286.72
287.615
288.334
288.964
289.589
290.21
290.769
291.233
291.622
291.977
292.314
292.619
292.874
293.079
293.255
293.422
293.584
293.738
293.879
294.009
294.12
294.194
294.189
294.048
293.71
293.124
292.28
291.223
290.066
288.975
288.137
287.709
287.811
288.494
289.756
291.54
293.685
295.911
297.519
297.689
296.048
293.064
289.324
284.871
281.415
278.182
277.601
278.078
281.828
286.234
297.291
309.234
330.183
350.107
363.051
395.094
364.183
338.735
325.467
241.493
245.198
262.623
256.009
265.649
257.761
268.938
272.543
250.176
253.426
241.946
221.956
172.873
133.713
117.931
147.541
199.407
287.393
352.608
429.021
470.644
466.299
414.155
126.549
122.644
115.41
107.954
103.676
104.085
109.231
118.248
129.795
142.551
155.518
168.064
179.809
190.531
200.165
208.818
216.738
224.127
231.023
237.34
243.01
247.971
252.099
255.45
258.521
261.961
265.776
269.362
272.06
273.854
275.342
277.224
279.198
280.98
282.379
283.476
284.509
285.588
286.634
287.527
288.252
288.896
289.534
290.16
290.722
291.188
291.582
291.943
292.286
292.594
292.851
293.059
293.239
293.408
293.572
293.727
293.869
293.999
294.112
294.188
294.188
294.053
293.723
293.147
292.311
291.258
290.1
289
288.146
287.698
287.778
288.444
289.692
291.47
293.617
295.861
297.51
297.737
296.147
293.194
289.469
285.002
281.515
278.235
277.597
278.011
281.699
285.998
296.944
308.724
329.578
349.615
362.373
394.76
364.747
339.142
326.059
241.862
244.654
262.497
255.97
265.624
257.692
268.731
272.726
250.35
253.505
242.324
222.637
173.531
133.898
117.433
146.447
197.77
285.677
351.086
427.762
470.113
466.484
414.496
133.751
131.449
126.538
120.984
117.1
116.186
118.756
124.712
133.449
144.079
155.68
167.476
178.886
189.517
199.186
207.922
215.911
223.338
230.264
236.63
242.337
247.284
251.423
254.955
258.367
262.071
265.875
269.209
271.657
273.416
275.091
277.022
279.072
280.862
282.215
283.327
284.392
285.493
286.542
287.434
288.166
288.825
289.476
290.108
290.671
291.141
291.541
291.909
292.256
292.568
292.827
293.039
293.222
293.394
293.56
293.716
293.858
293.989
294.104
294.182
294.187
294.059
293.738
293.172
292.345
291.296
290.135
289.024
288.152
287.683
287.74
288.387
289.622
291.393
293.544
295.809
297.504
297.794
296.257
293.334
289.625
285.141
281.621
278.288
277.586
277.933
281.554
285.737
296.564
308.197
328.921
349.073
361.571
394.315
365.269
339.534
326.521
242.077
243.889
262.283
255.885
265.592
257.611
268.498
272.913
250.517
253.58
242.703
223.27
174.066
133.938
116.786
145.23
196.073
283.912
349.519
426.419
469.47
466.555
414.788
140.635
139.401
135.934
131.773
128.632
127.393
128.506
132.215
138.461
146.836
156.694
167.327
178.083
188.442
198.083
206.907
214.999
222.493
229.455
235.856
241.61
246.63
250.925
254.726
258.42
262.221
265.871
268.93
271.213
273.026
274.866
276.926
278.951
280.682
282.072
283.17
284.273
285.396
286.448
287.337
288.078
288.752
289.416
290.053
290.618
291.091
291.498
291.873
292.226
292.54
292.803
293.018
293.205
293.38
293.547
293.704
293.847
293.978
294.095
294.176
294.186
294.066
293.755
293.199
292.381
291.336
290.171
289.048
288.157
287.663
287.696
288.321
289.541
291.307
293.463
295.753
297.502
297.859
296.378
293.488
289.792
285.289
281.733
278.341
277.567
277.842
281.39
285.448
296.145
307.599
328.201
348.47
360.627
393.744
365.699
339.871
326.846
242.186
242.854
261.93
255.725
265.546
257.516
268.235
273.101
250.687
253.661
243.088
223.828
174.433
133.799
115.968
143.823
194.098
281.888
347.74
424.899
468.683
466.494
415.055
147.14
146.604
144.086
140.941
138.543
137.421
137.833
140.088
144.407
150.732
158.732
167.897
177.65
187.447
196.877
205.711
213.902
221.493
228.53
235.003
240.857
246.034
250.561
254.63
258.505
262.275
265.715
268.553
270.774
272.708
274.717
276.847
278.858
280.52
281.828
283.051
284.16
285.299
286.35
287.237
287.987
288.677
289.353
289.995
290.561
291.038
291.453
291.836
292.194
292.512
292.778
292.997
293.188
293.366
293.534
293.691
293.834
293.967
294.085
294.17
294.185
294.073
293.772
293.228
292.418
291.377
290.208
289.071
288.158
287.638
287.644
288.245
289.452
291.209
293.373
295.693
297.502
297.935
296.512
293.656
289.972
285.448
281.85
278.393
277.539
277.735
281.204
285.128
295.684
306.959
327.409
347.793
359.549
393.053
365.985
340.123
327.045
242.051
241.5
261.376
255.442
265.482
257.404
267.937
273.283
250.85
253.712
243.464
224.249
174.575
133.447
114.958
142.239
191.978
279.703
345.828
423.228
467.725
466.272
415.281
153.243
153.191
151.371
148.975
147.165
146.282
146.426
147.837
150.804
155.467
161.744
169.347
177.852
186.789
195.734
204.383
212.572
220.246
227.394
233.999
240.021
245.414
250.195
254.49
258.461
262.147
265.406
268.122
270.385
272.481
274.627
276.788
278.746
280.355
281.664
282.814
284.052
285.211
286.249
287.135
287.894
288.6
289.288
289.934
290.502
290.984
291.407
291.799
292.163
292.484
292.753
292.975
293.17
293.351
293.521
293.677
293.821
293.954
294.074
294.163
294.184
294.08
293.791
293.258
292.458
291.42
290.245
289.093
288.155
287.606
287.582
288.158
289.345
291.099
293.273
295.628
297.505
298.021
296.66
293.837
290.168
285.617
281.973
278.443
277.501
277.609
280.994
284.773
295.176
306.251
326.534
347.029
358.417
392.261
366.11
340.3
327.124
241.908
239.801
260.546
254.97
265.391
257.275
267.598
273.454
251.002
253.798
243.809
224.48
174.444
132.851
113.734
140.428
189.563
277.241
343.698
421.362
466.571
465.875
415.492
158.995
159.295
158.006
156.153
154.774
154.133
154.224
155.182
157.263
160.685
165.518
171.653
178.831
186.704
194.901
203.106
211.096
218.738
225.968
232.731
238.965
244.608
249.642
254.131
258.173
261.804
264.979
267.693
270.075
272.336
274.584
276.735
278.619
280.178
281.492
282.715
283.916
285.108
286.159
287.03
287.801
288.522
289.22
289.87
290.44
290.928
291.36
291.761
292.131
292.456
292.728
292.955
293.153
293.336
293.507
293.663
293.807
293.94
294.062
294.155
294.182
294.088
293.81
293.29
292.499
291.464
290.282
289.112
288.147
287.565
287.51
288.057
289.221
290.972
293.159
295.555
297.509
298.118
296.824
294.035
290.38
285.8
282.103
278.49
277.449
277.461
280.754
284.378
294.615
305.48
325.565
346.166
357.323
391.39
366.111
340.469
327.125
241.47
237.737
259.356
254.214
265.264
257.128
267.217
273.604
251.136
253.825
244.098
224.447
174.003
131.983
112.307
138.376
186.914
274.51
341.365
419.302
465.199
465.284
415.687
164.44
164.987
164.095
162.649
161.595
161.162
161.285
162.008
163.533
166.081
169.787
174.658
180.573
187.309
194.584
202.119
209.679
217.1
224.276
231.123
237.543
243.431
248.72
253.414
257.572
261.247
264.467
267.29
269.84
272.25
274.553
276.666
278.486
280.005
281.336
282.6
283.843
285.001
286.035
286.944
287.708
288.444
289.152
289.804
290.376
290.871
291.313
291.723
292.099
292.428
292.704
292.934
293.137
293.322
293.492
293.648
293.791
293.925
294.049
294.145
294.179
294.095
293.83
293.323
292.542
291.509
290.319
289.127
288.132
287.514
287.423
287.941
289.085
290.825
293.028
295.47
297.512
298.227
297.005
294.252
290.611
285.995
282.24
278.534
277.381
277.286
280.481
283.94
293.995
304.632
324.489
345.19
356.285
390.458
366.064
340.74
327.09
240.88
235.314
257.72
253.06
265.085
256.968
266.791
273.724
251.243
253.852
244.293
224.077
173.223
130.816
110.676
136.036
183.923
271.42
338.771
417.019
463.592
464.481
415.861
169.6
170.311
169.721
168.594
167.793
167.527
167.7
168.305
169.486
171.435
174.301
178.149
182.952
188.593
194.882
201.602
208.546
215.546
222.479
229.245
235.724
241.781
247.303
252.24
256.611
260.466
263.866
266.889
269.633
272.17
274.5
276.569
278.338
279.851
281.216
282.51
283.769
284.928
285.934
286.806
287.64
288.374
289.084
289.738
290.312
290.815
291.267
291.686
292.068
292.401
292.68
292.915
293.121
293.308
293.478
293.633
293.774
293.908
294.033
294.133
294.174
294.101
293.849
293.357
292.586
291.555
290.354
289.138
288.108
287.45
287.321
287.806
288.924
290.659
292.876
295.37
297.511
298.347
297.204
294.488
290.861
286.207
282.383
278.573
277.294
277.079
280.17
283.453
293.308
303.704
323.292
344.087
355.263
389.468
366.028
341.222
327.042
239.954
232.541
255.572
251.379
264.838
256.811
266.322
273.806
251.317
253.835
244.354
223.29
172.088
129.33
108.814
133.391
180.606
267.925
335.893
414.501
461.738
463.438
415.993
174.496
175.314
174.958
174.085
173.481
173.341
173.564
174.11
175.075
176.616
178.869
181.922
185.8
190.459
195.79
201.644
207.858
214.285
220.8
227.296
233.655
239.736
245.407
250.583
255.24
259.397
263.096
266.395
269.354
272.014
274.378
276.429
278.185
279.717
281.122
282.457
283.713
284.853
285.851
286.727
287.511
288.303
289.024
289.672
290.25
290.759
291.221
291.649
292.037
292.374
292.658
292.897
293.106
293.294
293.464
293.616
293.755
293.888
294.015
294.119
294.167
294.105
293.868
293.391
292.631
291.602
290.387
289.144
288.075
287.372
287.2
287.651
288.742
290.459
292.699
295.249
297.501
298.477
297.422
294.747
291.134
286.437
282.535
278.605
277.183
276.835
279.813
282.909
292.546
302.676
321.962
342.842
354.16
388.396
365.989
341.965
327.075
239.279
229.404
252.886
249.012
264.494
256.673
265.822
273.844
251.363
253.77
244.216
222.027
170.556
127.51
106.689
130.407
176.879
263.937
332.671
411.714
459.623
462.132
416.069
179.15
180.032
179.856
179.185
178.734
178.693
178.96
179.474
180.299
181.557
183.366
185.815
188.95
192.774
197.238
202.251
207.698
213.463
219.437
225.514
231.584
237.525
243.21
248.54
253.461
257.952
262.009
265.638
268.853
271.674
274.117
276.212
278.012
279.602
281.059
282.42
283.675
284.801
285.771
286.653
287.466
288.222
288.954
289.618
290.187
290.705
291.177
291.613
292.007
292.348
292.637
292.881
293.093
293.282
293.449
293.599
293.735
293.867
293.993
294.101
294.156
294.106
293.885
293.424
292.678
291.65
290.419
289.143
288.03
287.277
287.056
287.471
288.533
290.256
292.495
295.102
297.476
298.616
297.66
295.03
291.433
286.688
282.697
278.63
277.043
276.547
279.402
282.301
291.698
301.567
320.478
341.435
352.884
387.202
365.83
342.893
327.222
238.24
225.828
249.682
245.783
264.01
256.578
265.313
273.843
251.356
253.629
243.83
220.242
168.598
125.341
104.272
127.089
172.73
259.399
329.05
408.626
457.235
460.548
416.092
183.578
184.491
184.452
183.942
183.614
183.649
183.952
184.449
185.178
186.237
187.723
189.716
192.269
195.408
199.123
203.368
208.071
213.151
218.52
224.087
229.75
235.408
240.958
246.302
251.371
256.11
260.476
264.429
267.941
271
273.622
275.855
277.776
279.47
281.001
282.393
283.646
284.752
285.725
286.599
287.412
288.183
288.894
289.543
290.147
290.657
291.135
291.578
291.978
292.324
292.617
292.866
293.081
293.27
293.435
293.581
293.713
293.842
293.969
294.079
294.142
294.104
293.901
293.458
292.726
291.698
290.45
289.137
287.973
287.162
286.888
287.265
288.295
289.968
292.259
294.924
297.429
298.759
297.919
295.339
291.764
286.965
282.869
278.645
276.87
276.205
278.928
281.619
290.75
300.27
318.819
339.847
351.356
385.826
365.383
343.799
327.411
237.391
221.608
246.009
241.518
263.32
256.555
264.833
273.82
251.366
253.409
243.064
217.899
166.152
122.812
101.518
123.429
168.079
254.264
324.936
405.176
454.559
458.682
416.081
187.793
188.712
188.777
188.399
188.17
188.263
188.591
189.078
189.741
190.657
191.907
193.557
195.659
198.248
201.336
204.909
208.931
213.349
218.1
223.113
228.303
233.58
238.863
244.07
249.125
253.96
258.505
262.697
266.484
269.834
272.743
275.242
277.387
279.251
280.891
282.34
283.61
284.717
285.688
286.57
287.393
288.147
288.859
289.497
290.062
290.615
291.1
291.545
291.95
292.3
292.599
292.853
293.071
293.26
293.422
293.563
293.691
293.816
293.94
294.053
294.122
294.099
293.914
293.492
292.775
291.749
290.481
289.125
287.901
287.025
286.689
287.026
288.028
289.705
291.989
294.709
297.352
298.899
298.2
295.681
292.128
287.272
283.054
278.65
276.659
275.799
278.379
280.851
289.688
299.009
316.965
338.05
349.608
384.188
364.533
344.432
327.422
236.465
216.544
241.899
236.073
262.33
256.664
264.435
273.815
251.375
253.089
241.93
214.995
163.175
119.903
98.3741
119.446
162.893
248.528
320.223
401.291
451.568
456.545
416.082
191.812
192.721
192.863
192.59
192.438
192.574
192.921
193.399
194.015
194.829
195.904
197.296
199.049
201.201
203.775
206.778
210.195
214.002
218.156
222.608
227.292
232.132
237.054
241.993
246.883
251.651
256.225
260.533
264.516
268.131
271.359
274.203
276.678
278.812
280.638
282.195
283.524
284.666
285.662
286.558
287.382
288.144
288.838
289.466
290.04
290.559
291.061
291.521
291.922
292.278
292.584
292.843
293.064
293.252
293.41
293.546
293.668
293.787
293.909
294.021
294.097
294.088
293.924
293.525
292.826
291.803
290.513
289.108
287.816
286.862
286.456
286.749
287.724
289.381
291.685
294.456
297.239
299.03
298.505
296.061
292.529
287.615
283.255
278.644
276.403
275.317
277.74
279.983
288.495
297.196
314.881
336.018
347.526
382.301
363.286
344.64
326.964
235.512
210.564
237.325
229.38
260.899
256.967
264.196
273.89
251.381
252.616
240.217
211.526
159.586
116.585
94.7598
115.124
157.111
242.198
314.774
396.872
448.213
454.159
416.156
195.65
196.536
196.732
196.543
196.451
196.617
196.974
197.445
198.026
198.762
199.707
200.902
202.387
204.193
206.35
208.874
211.77
215.028
218.627
222.534
226.704
231.076
235.585
240.17
244.779
249.352
253.823
258.125
262.2
266
269.494
272.659
275.482
277.952
280.068
281.843
283.316
284.548
285.608
286.546
287.389
288.15
288.837
289.459
290.015
290.543
291.028
291.484
291.915
292.264
292.571
292.836
293.06
293.248
293.401
293.531
293.645
293.758
293.873
293.985
294.066
294.071
293.931
293.558
292.881
291.863
290.549
289.09
287.717
286.671
286.182
286.427
287.379
289.032
291.357
294.166
297.084
299.147
298.835
296.485
292.973
288.005
283.477
278.627
276.098
274.742
276.996
279
287.153
295.693
312.549
333.725
345.113
380.125
361.728
344.462
325.803
234.382
203.712
232.102
221.488
258.845
257.498
264.194
274.126
251.708
252.062
238.034
207.504
155.352
112.82
90.5895
110.451
150.719
235.302
308.455
391.807
444.432
451.516
416.339
199.317
200.17
200.403
200.279
200.234
200.421
200.781
201.242
201.793
202.47
203.314
204.358
205.633
207.166
208.986
211.115
213.566
216.343
219.438
222.834
226.501
230.397
234.47
238.662
242.926
247.219
251.49
255.684
259.745
263.626
267.283
270.68
273.783
276.562
278.997
281.081
282.827
284.271
285.468
286.486
287.375
288.158
288.849
289.464
290.022
290.539
291.019
291.469
291.868
292.247
292.569
292.835
293.061
293.248
293.397
293.519
293.625
293.727
293.835
293.943
294.029
294.049
293.933
293.592
292.942
291.931
290.593
289.071
287.61
286.45
285.858
286.048
286.984
288.64
290.973
293.843
296.887
299.248
299.194
296.96
293.472
288.443
283.725
278.602
275.74
274.056
276.125
277.882
285.623
293.742
309.95
331.145
342.314
377.6
359.891
344.081
323.868
232.812
196.184
225.961
212.619
255.904
258.333
264.542
274.624
252.151
251.306
235.039
202.908
150.388
108.533
85.7406
105.35
143.698
227.836
301.156
385.982
440.156
448.581
416.642
202.821
203.633
203.892
203.82
203.812
204.01
204.367
204.814
205.338
205.965
206.729
207.655
208.765
210.082
211.632
213.437
215.515
217.878
220.528
223.458
226.653
230.086
233.719
237.507
241.405
245.374
249.382
253.387
257.339
261.192
264.898
268.411
271.69
274.697
277.403
279.791
281.859
283.619
285.09
286.301
287.296
288.129
288.848
289.48
290.042
290.556
291.034
291.472
291.879
292.237
292.559
292.844
293.072
293.255
293.398
293.513
293.608
293.698
293.795
293.896
293.984
294.019
293.932
293.627
293.01
292.012
290.653
289.062
287.487
286.202
285.48
285.599
286.524
288.205
290.601
293.501
296.655
299.333
299.585
297.495
294.039
288.937
284.007
278.57
275.325
273.258
275.104
276.606
283.888
291.676
307.048
328.243
339.092
374.658
357.76
343.648
321.288
230.653
188.417
218.752
203.19
251.813
259.412
265.28
275.553
253.035
250.536
231.498
197.75
144.676
103.666
80.0898
99.7424
136.042
219.779
292.8
379.291
435.319
445.312
417.032
206.169
206.939
207.212
207.183
207.204
207.408
207.757
208.187
208.684
209.266
209.963
210.793
211.772
212.918
214.252
215.796
217.567
219.582
221.848
224.368
227.134
230.134
233.344
236.732
240.261
243.894
247.602
251.356
255.12
258.849
262.497
266.016
269.363
272.5
275.396
278.029
280.385
282.459
284.251
285.765
287.011
288.009
288.806
289.471
290.057
290.586
291.064
291.498
291.897
292.248
292.572
292.847
293.083
293.275
293.411
293.514
293.597
293.673
293.754
293.845
293.933
293.982
293.926
293.663
293.089
292.112
290.736
289.073
287.373
285.915
285.026
285.054
285.977
287.709
290.21
293.128
296.404
299.41
300.016
298.099
294.681
289.49
284.342
278.536
274.85
272.348
273.906
275.15
281.914
289.325
303.811
324.981
335.42
371.243
355.347
343.157
318.275
227.897
180.988
210.555
193.645
246.203
260.747
266.522
276.935
254.312
249.589
226.976
191.891
138.123
98.0569
73.469
93.453
127.721
211.021
283.362
371.62
429.845
441.678
417.49
209.371
210.096
210.379
210.385
210.428
210.635
210.973
211.383
211.851
212.392
213.03
213.78
214.654
215.664
216.827
218.161
219.684
221.412
223.356
225.522
227.912
230.521
233.336
236.339
239.503
242.797
246.189
249.654
253.169
256.699
260.203
263.638
266.961
270.138
273.136
275.932
278.503
280.834
282.911
284.725
286.274
287.561
288.599
289.411
290.053
290.596
291.09
291.538
291.937
292.29
292.604
292.88
293.113
293.293
293.43
293.53
293.596
293.653
293.715
293.791
293.876
293.937
293.915
293.702
293.183
292.239
290.854
289.115
287.268
285.609
284.504
284.375
285.313
287.126
289.792
292.829
296.166
299.496
300.499
298.786
295.415
290.126
284.723
278.506
274.311
271.313
272.496
273.484
279.666
286.681
300.218
321.315
331.264
367.271
352.674
342.475
314.953
224.679
174.263
201.841
184.559
238.834
261.983
268.252
279.074
256.166
248.644
221.857
185.431
130.711
91.638
65.7154
86.3301
118.65
201.428
272.826
362.839
423.639
437.693
418.058
212.434
213.115
213.402
213.437
213.5
213.707
214.031
214.42
214.859
215.361
215.946
216.627
217.413
218.312
219.338
220.505
221.828
223.323
224.999
226.868
228.934
231.198
233.656
236.297
239.107
242.062
245.135
248.296
251.528
254.808
258.108
261.391
264.62
267.761
270.781
273.655
276.358
278.866
281.159
283.222
285.043
286.618
287.95
289.048
289.923
290.595
291.115
291.555
291.97
292.345
292.666
292.938
293.157
293.34
293.468
293.55
293.606
293.643
293.682
293.737
293.815
293.887
293.9
293.744
293.296
292.404
291.021
289.208
287.193
285.275
283.887
283.547
284.472
286.42
289.351
292.384
295.955
299.616
301.06
299.571
296.254
290.858
285.162
278.482
273.704
270.138
270.832
271.579
277.113
283.73
296.218
317.202
326.598
362.635
349.674
341.505
311.434
220.985
168.9
192.951
176.47
229.253
263.297
270.173
281.767
258.997
247.765
215.667
177.98
122.327
84.1293
56.6451
78.1095
108.716
190.777
261.195
352.793
416.587
433.467
418.808
215.365
216.001
216.289
216.349
216.429
216.634
216.944
217.311
217.722
218.186
218.722
219.341
220.051
220.857
221.77
222.8
223.961
225.265
226.721
228.341
230.131
232.096
234.237
236.549
239.025
241.65
244.405
247.265
250.207
253.215
256.273
259.357
262.438
265.483
268.459
271.338
274.091
276.695
279.126
281.367
283.402
285.221
286.819
288.197
289.358
290.308
291.053
291.605
292.016
292.365
292.711
293.013
293.243
293.412
293.521
293.597
293.631
293.646
293.659
293.687
293.752
293.834
293.881
293.792
293.431
292.618
291.26
289.378
287.181
284.941
283.162
282.514
283.399
285.509
288.852
292.189
295.85
299.829
301.738
300.478
297.218
291.701
285.672
278.474
273.024
268.807
268.908
269.397
274.213
280.402
291.796
312.588
321.402
357.239
346.258
340.16
308.019
216.785
163.999
184.692
169.587
217.602
263.856
272.647
285.259
261.893
246.844
209.025
169.903
112.951
75.5058
46.1353
68.6258
97.7338
178.937
248.453
341.356
408.579
428.865
419.839
218.169
218.762
219.048
219.128
219.222
219.425
219.721
220.067
220.449
220.878
221.368
221.931
222.572
223.296
224.112
225.027
226.052
227.196
228.47
229.882
231.439
233.148
235.011
237.03
239.202
241.518
243.969
246.535
249.197
251.935
254.739
257.596
260.486
263.384
266.26
269.081
271.82
274.449
276.946
279.293
281.473
283.476
285.289
286.905
288.32
289.534
290.55
291.376
292.013
292.465
292.776
293.037
293.301
293.51
293.623
293.675
293.683
293.667
293.65
293.646
293.694
293.78
293.86
293.845
293.593
292.892
291.603
289.647
287.246
284.611
282.331
281.22
281.975
284.319
288.208
291.969
295.836
300.171
302.531
301.533
298.331
292.675
286.258
278.479
272.266
267.312
266.731
266.896
270.936
276.677
286.887
307.416
315.654
351.007
342.335
338.134
305.056
212.301
160.715
177.23
163.047
204.224
263.631
274.525
289.047
266.345
246.17
201.169
160.491
102.437
65.4613
34.044
57.5699
85.5462
165.72
234.593
328.411
399.504
424.127
421.061
220.853
221.405
221.686
221.783
221.888
222.088
222.37
222.695
223.052
223.447
223.895
224.405
224.983
225.634
226.363
227.178
228.086
229.096
230.215
231.451
232.811
234.301
235.926
237.689
239.591
241.629
243.797
246.086
248.48
250.963
253.517
256.135
258.809
261.521
264.247
266.959
269.628
272.227
274.731
277.123
279.384
281.504
283.468
285.268
286.892
288.332
289.587
290.659
291.555
292.279
292.822
293.182
293.385
293.527
293.694
293.788
293.78
293.71
293.657
293.634
293.653
293.731
293.848
293.905
293.781
293.233
292.067
290.087
287.494
284.369
281.36
279.565
280.056
282.663
287.359
291.811
295.988
300.742
303.49
302.79
299.626
293.803
286.943
278.509
271.418
265.627
264.275
264.014
267.238
272.499
281.504
301.63
309.334
343.863
337.743
334.973
302.353
207.381
158.898
170.663
154.762
189.606
261.752
276.49
292.944
269.898
245.124
193.347
150.463
90.8412
53.9521
20.3301
44.7317
71.8848
151.091
219.55
313.891
389.291
419.237
422.527
223.425
223.936
224.21
224.319
224.433
224.63
224.898
225.205
225.538
225.903
226.312
226.776
227.298
227.883
228.535
229.261
230.067
230.96
231.946
233.032
234.225
235.529
236.95
238.493
240.16
241.951
243.866
245.897
248.038
250.276
252.594
254.979
257.425
259.926
262.467
265.026
267.579
270.1
272.565
274.952
277.242
279.421
281.477
283.397
285.171
286.79
288.245
289.531
290.648
291.601
292.396
293.032
293.485
293.743
293.785
293.777
293.851
293.848
293.736
293.599
293.609
293.722
293.856
293.987
294
293.653
292.698
290.719
287.847
284.192
280.305
277.541
277.414
280.313
286.07
291.64
296.439
301.699
304.73
304.316
301.154
295.126
287.727
278.55
270.476
263.745
261.515
260.705
263.089
267.85
275.548
295.168
302.412
335.76
332.329
330.547
299.147
201.933
157.394
163.959
143.951
173.866
257.981
276.375
296.845
274.831
244.134
183.926
138.991
77.9717
40.8283
4.73374
29.7014
56.5379
134.802
203.184
297.639
377.855
413.888
423.898
225.889
226.361
226.627
226.745
226.865
227.058
227.314
227.603
227.915
228.254
228.631
229.053
229.527
230.054
230.639
231.287
232.004
232.796
233.668
234.626
235.674
236.82
238.067
239.42
240.883
242.458
244.146
245.944
247.848
249.851
251.941
254.105
256.33
258.613
260.948
263.325
265.725
268.128
270.51
272.85
275.125
277.319
279.416
281.404
283.272
285.011
286.613
288.071
289.379
290.533
291.532
292.376
293.071
293.612
293.975
294.102
293.914
293.736
293.759
293.769
293.665
293.605
293.82
294.119
294.265
294.118
293.461
291.698
288.679
284.304
279.145
274.83
273.705
276.876
284.078
291.353
297.18
303.06
306.413
306.233
302.992
296.688
288.672
278.625
269.402
261.594
258.389
256.995
258.429