/*--------------------------------*- C++ -*----------------------------------*\
| =========                 |                                                 |
| \\      /  F ield         | OpenFOAM: The Open Source CFD Toolbox           |
|  \\    /   O peration     | Version:  2412                                  |
|   \\  /    A nd           | Website:  www.openfoam.com                      |
|    \\/     M anipulation  |                                                 |
\*---------------------------------------------------------------------------*/
FoamFile
{
    version     2.0;
    format      ascii;
    arch        "LSB;label=32;scalar=64";
    class       surfaceScalarField;
    location    "0.175";
    object      ddtCorrDdt0(phi);
}
// * * * * * * * * * * * * * * * * * * * * * * * * * * * * * * * * * * * * * //

dimensions      [0 3 -2 0 0 0 0];

oriented        oriented;

internalField   nonuniform List<scalar> 
24930
(
0.103429
0.106394
-0.210616
0.0438997
0.059503
0.0149193
0.0288525
0.00200461
0.0127689
-0.00407612
0.00600238
-0.00743537
0.00337138
-0.009628
0.00221124
-0.0112577
0.00159332
-0.0124289
0.00105437
-0.0131977
0.00067076
-0.013608
0.00040479
-0.0137664
0.000234127
-0.0137546
0.000143924
-0.0136838
6.3602e-05
-0.0135779
-5.45314e-05
-0.0134506
-0.000159017
-0.0132412
-0.00026523
-0.0129907
-0.000337213
-0.0126663
-0.000365998
-0.0123327
-0.000350528
-0.011938
-0.000379889
-0.0115652
-0.000389058
-0.0111218
-0.000405169
-0.0106862
-0.000413147
-0.0102318
-0.000412596
-0.00977426
-0.0004455
-0.00930299
-0.000489397
-0.00877312
-0.000551543
-0.00824724
-0.00053862
-0.00766034
-0.000546677
-0.00710117
-0.000575088
-0.00656647
-0.000555101
-0.00596927
-0.000612947
-0.00537605
-0.000653393
-0.00483408
-0.000533455
-0.0042087
-0.000564693
-0.00366361
-0.00061022
-0.00324209
-0.000420698
-0.00259793
-0.000576185
-0.00221567
-0.000507671
-0.00182567
-0.00026199
-0.0012776
-0.000498762
-0.0011684
-0.000268934
-0.000766603
-0.000246715
-0.000516068
-0.000379572
-0.000439743
-9.91091e-05
-0.000159419
-0.000141156
-0.000308474
6.13362e-05
-0.000406971
0.000192706
-0.00084466
0.000351957
-0.00150179
0.00063745
-0.00233328
0.000817629
-0.00355867
0.00120222
-0.00472475
0.00126835
-0.00604876
0.00125631
-0.00701603
0.00100251
-0.00764727
0.000579955
-0.00774255
9.77795e-05
-0.00737151
-0.0003609
-0.0066133
-0.00072745
-0.00552257
-0.00108936
-0.00435832
-0.00120275
-0.00325633
-0.00109074
-0.0027249
-0.000533727
-0.00300063
0.000314875
-0.00439879
0.00137976
-0.00657
0.00216055
-0.00885349
0.00223446
-0.0111813
0.00232282
-0.0130621
0.00189332
-0.0144207
0.00136786
-0.0153028
0.000856344
-0.0156787
0.000362606
-0.0152335
-0.000428637
-0.0138846
-0.0013565
-0.011936
-0.00193884
-0.0101402
-0.00179657
-0.00925962
-0.000898301
-0.00921087
-5.35769e-05
-0.0101159
0.00092234
-0.0118479
0.00174177
-0.0143115
0.00245473
-0.0172149
0.0028781
-0.0204224
0.00322721
-0.0235174
0.00310345
-0.026402
0.00287541
-0.0288314
0.00244255
-0.0305725
0.00173841
-0.0316987
0.00110126
-0.0321198
0.000474065
-0.0321297
1.04949e-05
-0.0316778
-0.000492243
-0.0309571
-0.00069256
-0.0301446
-0.000806993
-0.0294081
-0.000742384
-0.0287347
-0.000683041
-0.0280534
-0.000689059
-0.0276386
-0.000406906
-0.0273753
-0.000265758
-0.0273358
-3.4394e-05
-0.0272282
-0.000104817
-0.0272594
2.17517e-05
-0.0275577
0.000300882
-0.0281022
0.000551596
-0.0288519
0.000744448
-0.0295012
0.000644153
-0.0301056
0.000623144
-0.0307063
0.000563184
-0.031415
0.000709985
-0.0324893
0.00109281
-0.0334217
0.000936362
-0.0349867
0.00154135
-0.0358959
0.000917511
-0.0376726
0.00178365
-0.0384249
0.000752146
-0.0402565
0.00182525
-0.0404056
0.000151945
-0.0416376
0.00123639
-0.0401994
-0.00143556
-0.00764318
0.179862
0.150777
-0.224216
0.124898
0.114301
0.0756294
0.0779061
0.0389563
0.0493167
0.0143705
0.0305977
-0.00177711
0.0195424
-0.0127889
0.0131627
-0.0206271
0.00930915
-0.0263851
0.00669437
-0.0304958
0.00477148
-0.0332913
0.00334136
-0.0351182
0.00227499
-0.036249
0.00146419
-0.036927
0.000818463
-0.0372519
0.000248424
-0.0373126
-0.000239399
-0.0370839
-0.000604538
-0.0366475
-0.000865077
-0.0359933
-0.00104194
-0.0352199
-0.00115945
-0.0342726
-0.00127326
-0.0332602
-0.00138894
-0.032086
-0.001491
-0.0308378
-0.00161795
-0.0294899
-0.00172801
-0.028056
-0.00187804
-0.0265295
-0.00203723
-0.0248653
-0.00218855
-0.0231485
-0.00227224
-0.0213139
-0.0023436
-0.0194651
-0.00245215
-0.0176161
-0.00248318
-0.0156793
-0.00253859
-0.013745
-0.0025824
-0.0118901
-0.00244173
-0.0099718
-0.00240107
-0.00818545
-0.00240233
-0.00660394
-0.00212707
-0.00485279
-0.00210181
-0.00348521
-0.00197087
-0.00221739
-0.0015511
-0.000890034
-0.00160247
-0.000172622
-0.00130653
0.00072044
-0.000983313
0.00127594
-0.000930168
0.00145463
-0.000398027
0.00162239
-5.14008e-05
0.00104183
0.000454185
0.000168521
0.00114882
-0.00151778
0.00192616
-0.00392076
0.00299531
-0.00699042
0.00397817
-0.0108172
0.00493304
-0.0146594
0.005265
-0.0184156
0.00488104
-0.0211709
0.00379608
-0.0227088
0.00206872
-0.0226939
0.000116891
-0.0212809
-0.00176347
-0.0187146
-0.00330237
-0.0153713
-0.0044227
-0.0118902
-0.00473197
-0.00900128
-0.00392891
-0.00795559
-0.00160376
-0.00955625
0.00194644
-0.0143349
0.00608543
-0.0214049
0.00921135
-0.0288086
0.00959265
-0.0358737
0.00938952
-0.0415631
0.00756866
-0.0456388
0.00543763
-0.0481999
0.00340058
-0.0489644
0.00109958
-0.0472521
-0.00211674
-0.0430053
-0.00561766
-0.0374184
-0.00753867
-0.0325488
-0.00667753
-0.0303353
-0.00311767
-0.0310746
0.000685557
-0.0347976
0.00465111
-0.0409566
0.00788135
-0.0490932
0.0105969
-0.0583816
0.0121425
-0.06825
0.013103
-0.0776595
0.0125311
-0.0861294
0.0113264
-0.0931006
0.00939758
-0.0979806
0.00666334
-0.100862
0.00394928
-0.101793
0.0014162
-0.101422
-0.000337418
-0.0997625
-0.00219687
-0.0973815
-0.00305452
-0.0948613
-0.00333679
-0.0925197
-0.00310419
-0.0904064
-0.0028049
-0.0883739
-0.00273736
-0.0871586
-0.00161386
-0.0863818
-0.00104804
-0.0862062
-0.000219119
-0.0859186
-0.000392053
-0.0861747
0.000269144
-0.0871726
0.0012918
-0.0889415
0.00231885
-0.0911156
0.00292662
-0.0930601
0.00253912
-0.094922
0.00250236
-0.0969049
0.00252056
-0.0993111
0.00311745
-0.102653
0.00442498
-0.105845
0.00413752
-0.110403
0.00607738
-0.113566
0.00408575
-0.118692
0.00690574
-0.121295
0.00335348
-0.126777
0.00730248
-0.127298
0.000675203
-0.13144
0.00536943
-0.126959
-0.00591454
-0.0281594
0.208117
0.166415
-0.223832
0.176146
0.146085
0.134984
0.118928
0.0933173
0.0909622
0.0568084
0.067158
0.0275148
0.0488992
0.00486812
0.035783
-0.0124762
0.0265626
-0.0257329
0.0198584
-0.035681
0.0147495
-0.0429879
0.0107668
-0.048271
0.00771396
-0.0520264
0.00536788
-0.0546849
0.00349447
-0.0564681
0.00197215
-0.0575635
0.000736249
-0.0580235
-0.000233818
-0.0579879
-0.000988175
-0.0574852
-0.00155194
-0.0566556
-0.00200684
-0.0554588
-0.00241274
-0.0540285
-0.00281529
-0.0522785
-0.00316375
-0.0503046
-0.00354888
-0.0480936
-0.00391937
-0.0456612
-0.0043214
-0.0430106
-0.00472048
-0.0401016
-0.00507529
-0.0370452
-0.00535814
-0.0337841
-0.00558009
-0.0304361
-0.00582676
-0.027044
-0.00596264
-0.0235264
-0.00604707
-0.019993
-0.00609998
-0.016567
-0.00593566
-0.013102
-0.00578278
-0.00982111
-0.00566891
-0.00685702
-0.00523988
-0.00380097
-0.00491302
-0.00127682
-0.00458224
0.000972822
-0.00385399
0.00314137
-0.00351251
0.00445639
-0.00296144
0.00573867
-0.00211108
0.00643256
-0.00159256
0.00643603
-0.000541455
0.00612731
0.000534798
0.00466068
0.00171759
0.00246886
0.00342405
-0.00104769
0.00533048
-0.0057966
0.00769831
-0.0116396
0.00993427
-0.0184973
0.011687
-0.0252826
0.0122201
-0.0315503
0.0110074
-0.0360106
0.00829701
-0.038223
0.00423172
-0.0378059
-0.000260451
-0.0350383
-0.00451854
-0.030422
-0.00793021
-0.0246579
-0.0101741
-0.0189102
-0.01053
-0.0145487
-0.00823103
-0.0135754
-0.00260141
-0.0172767
0.00568391
-0.0262636
0.0149943
-0.0388999
0.0218302
-0.0520677
0.0227151
-0.0641987
0.021526
-0.0738491
0.0172053
-0.0806813
0.0122641
-0.0847779
0.00748051
-0.0856185
0.00191135
-0.0822888
-0.00541794
-0.0750348
-0.0128848
-0.0661123
-0.0164729
-0.0588709
-0.0139305
-0.0562326
-0.00575917
-0.0587806
0.00323365
-0.0663817
0.0122576
-0.0780253
0.0195027
-0.0927512
0.0253285
-0.109204
0.0285703
-0.12624
0.0301461
-0.14228
0.0285919
-0.156401
0.0254271
-0.1678
0.0207783
-0.175538
0.0144503
-0.179827
0.00820309
-0.180926
0.00252388
-0.179779
-0.00145882
-0.176594
-0.00542917
-0.172278
-0.00735208
-0.167876
-0.00774993
-0.163748
-0.00725338
-0.160067
-0.00649538
-0.156633
-0.00618738
-0.154606
-0.00363217
-0.1533
-0.0023615
-0.15297
-0.000560268
-0.15255
-0.000811084
-0.153209
0.000918909
-0.155069
0.00314307
-0.158219
0.00546621
-0.161846
0.00656161
-0.165187
0.00582518
-0.168442
0.00577615
-0.172097
0.00614838
-0.176544
0.00756513
-0.182489
0.0103581
-0.188334
0.00999156
-0.196114
0.0138337
-0.20192
0.00989691
-0.210627
0.0156072
-0.215383
0.0081076
-0.224916
0.0168301
-0.225943
0.00170432
-0.233518
0.012933
-0.226566
-0.0128653
-0.0610317
0.21842
0.173695
-0.225786
0.202656
0.161719
0.176646
0.144874
0.143474
0.124195
0.107812
0.102931
0.07341
0.0833872
0.0423959
0.0667735
0.0158118
0.0530892
-0.00626143
0.041849
-0.0240391
0.0325235
-0.038
0.0248338
-0.0488068
0.018619
-0.057074
0.0137024
-0.0633664
0.00977595
-0.0680459
0.00658086
-0.0714199
0.0039767
-0.0736379
0.00190247
-0.0749132
0.000232208
-0.0753367
-0.00112009
-0.0750975
-0.00227201
-0.074185
-0.00328357
-0.0727595
-0.0042405
-0.0707671
-0.00509357
-0.068312
-0.00596799
-0.0654042
-0.00682242
-0.0620672
-0.00768191
-0.0583186
-0.00850966
-0.054131
-0.00924263
-0.0496426
-0.00987436
-0.0448151
-0.0103862
-0.0397814
-0.0108804
-0.0346214
-0.0112108
-0.029269
-0.0113906
-0.0238546
-0.0114852
-0.0185589
-0.0113027
-0.0132429
-0.0110148
-0.00816069
-0.0107216
-0.00352298
-0.0100422
0.00110154
-0.00928672
0.00501498
-0.00857161
0.00841954
-0.00733315
0.0115383
-0.00634918
0.0134814
-0.00524745
0.0150821
-0.0035632
0.0157482
-0.00220774
0.0152964
-0.000243741
0.0141207
0.00199801
0.0112766
0.00435273
0.00718827
0.00759738
0.00121899
0.0111931
-0.00649875
0.0153734
-0.0156777
0.0192444
-0.0260181
0.0219207
-0.0360468
0.0224299
-0.0449574
0.019771
-0.0510973
0.0144794
-0.0538417
0.00692664
-0.0528002
-0.00125864
-0.0484371
-0.00886741
-0.0415663
-0.0148137
-0.0333045
-0.0184204
-0.0253806
-0.018505
-0.0198786
-0.0136657
-0.0195456
-0.00295601
-0.0260788
0.0122611
-0.0400147
0.028852
-0.0588901
0.0406931
-0.0782604
0.0420428
-0.0958467
0.0391231
-0.109702
0.0310506
-0.119384
0.0219436
-0.124937
0.0130172
-0.125649
0.00259623
-0.120545
-0.0104865
-0.11039
-0.0230488
-0.0986293
-0.0282404
-0.0898704
-0.0227002
-0.0878883
-0.00774052
-0.0933985
0.00874509
-0.106004
0.0248699
-0.124166
0.0376427
-0.146362
0.0475308
-0.170672
0.0528582
-0.195333
0.0548155
-0.218246
0.051533
-0.238054
0.0452141
-0.253736
0.0364438
-0.264062
0.0248291
-0.269428
0.0135338
-0.270361
0.00346689
-0.268082
-0.00370794
-0.263075
-0.0104848
-0.256575
-0.0138299
-0.250118
-0.0142176
-0.244036
-0.0133548
-0.23868
-0.0118601
-0.233786
-0.0110955
-0.230942
-0.00646589
-0.229075
-0.00423456
-0.228599
-0.00104755
-0.228108
-0.00129932
-0.229341
0.00214416
-0.232226
0.00601957
-0.236885
0.0101232
-0.242027
0.0117115
-0.246858
0.0105999
-0.251668
0.0106071
-0.257285
0.0117375
-0.264081
0.0143634
-0.273016
0.0192817
-0.281817
0.0188015
-0.293187
0.0251795
-0.301887
0.0186032
-0.314553
0.0282685
-0.321646
0.0151989
-0.335727
0.0309062
-0.337436
0.00341566
-0.348831
0.0243164
-0.340509
-0.0211854
-0.106009
0.22415
0.179049
-0.229582
0.215606
0.170203
0.2009
0.159614
0.179168
0.146058
0.151872
0.130403
0.121304
0.114082
0.0897777
0.0983171
0.0591427
0.0836632
0.0309112
0.0700135
0.00599288
0.0574108
-0.0152323
0.0460989
-0.0328677
0.0363168
-0.0472658
0.0281245
-0.0588948
0.0213422
-0.068118
0.0157273
-0.0753003
0.0110691
-0.0806752
0.00724121
-0.0845196
0.00406064
-0.086985
0.00137612
-0.0883069
-0.000968584
-0.0885155
-0.00303894
-0.0877999
-0.00495462
-0.0861564
-0.00669128
-0.0837023
-0.00839692
-0.0804778
-0.0100561
-0.0765202
-0.0116718
-0.0718652
-0.0132056
-0.0665062
-0.0145797
-0.0606104
-0.0157959
-0.0541677
-0.016814
-0.0473287
-0.0177355
-0.0402172
-0.0184101
-0.0327944
-0.0188061
-0.0252139
-0.0190247
-0.0177247
-0.0188706
-0.0102103
-0.0184534
-0.00295975
-0.017932
0.00371951
-0.0169036
0.0102612
-0.015579
0.0158894
-0.0142615
0.020718
-0.0122587
0.0249854
-0.0103172
0.0276715
-0.00827568
0.0295905
-0.00534727
0.0301146
-0.0026633
0.0289621
0.000740071
0.026542
0.00471067
0.0218267
0.00885704
0.0152503
0.0142585
0.00618517
0.0201587
-0.00514906
0.0266673
-0.0182589
0.0325014
-0.0325775
0.0361281
-0.0462121
0.0362519
-0.05798
0.0313849
-0.0658764
0.0224161
-0.0691142
0.0101127
-0.0673372
-0.00299186
-0.0612337
-0.0149583
-0.0519841
-0.0240801
-0.0411847
-0.0292048
-0.0312147
-0.0285289
-0.0249063
-0.0199004
-0.0257381
-0.00214337
-0.0357489
0.0223238
-0.0552672
0.0482923
-0.0809163
0.0663355
-0.106937
0.0680245
-0.130328
0.0625304
-0.14866
0.0493762
-0.161369
0.0346517
-0.168414
0.0200466
-0.168972
0.00312817
-0.162179
-0.017237
-0.149491
-0.0357429
-0.135611
-0.0421234
-0.126338
-0.0319848
-0.126183
-0.00789139
-0.135857
0.0184206
-0.154605
0.0436247
-0.180293
0.0633119
-0.210793
0.0780372
-0.243594
0.0856409
-0.276279
0.0875106
-0.306266
0.0815538
-0.331767
0.0706951
-0.351585
0.0562462
-0.364246
0.0375471
-0.370389
0.0196422
-0.370856
0.00394528
-0.367127
-0.00740523
-0.360031
-0.0176296
-0.351123
-0.0227136
-0.342447
-0.0229045
-0.334245
-0.0215717
-0.327107
-0.0190071
-0.320685
-0.0175288
-0.317
-0.0101385
-0.314525
-0.00671555
-0.313897
-0.00168585
-0.31338
-0.00181118
-0.315332
0.00408929
-0.319374
0.0100539
-0.325637
0.0163832
-0.332328
0.0184128
-0.33871
0.0169223
-0.345187
0.0171082
-0.352993
0.0195149
-0.362366
0.0237395
-0.374614
0.0315181
-0.386588
0.0307873
-0.401854
0.0404206
-0.413618
0.0303742
-0.430546
0.0451919
-0.440071
0.0247229
-0.459054
0.0498846
-0.461647
0.00601132
-0.476946
0.0396032
-0.468662
-0.0294664
-0.162376
0.229215
0.183505
-0.233711
0.223236
0.176156
0.214364
0.168581
0.201046
0.159578
0.182812
0.148837
0.160145
0.136887
0.13411
0.124405
0.106034
0.11168
0.0773156
0.0986573
0.0493751
0.085332
0.0233189
0.0721682
-0.000165016
0.0598098
-0.0207646
0.0487117
-0.0384769
0.0389915
-0.0533888
0.0305893
-0.0657216
0.0233672
-0.0756686
0.0172089
-0.0834917
0.0119164
-0.0893507
0.0072915
-0.0934887
0.00315479
-0.0959635
-0.000548789
-0.0969796
-0.00395044
-0.0965897
-0.00706183
-0.0949251
-0.010051
-0.0920559
-0.0129451
-0.0880363
-0.0157308
-0.082919
-0.0183637
-0.0767235
-0.0207545
-0.069645
-0.0229003
-0.0617087
-0.024743
-0.0530842
-0.0263721
-0.0439439
-0.0276366
-0.0342886
-0.0284595
-0.0242991
-0.0289664
-0.0143017
-0.028958
-0.00422017
-0.0284733
0.00561618
-0.0277174
0.0147851
-0.0262699
0.0236949
-0.0242452
0.0314858
-0.0220961
0.0381461
-0.0190391
0.0439048
-0.0157662
0.0475984
-0.0123066
0.0499787
-0.00761259
0.0503769
-0.00297456
0.0483923
0.00254432
0.0444419
0.0089557
0.0374334
0.0156571
0.0278287
0.023946
0.0150565
0.0328398
-0.000532701
0.0422167
-0.0181883
0.0503167
-0.0370364
0.054858
-0.0547376
0.0541415
-0.0697167
0.0462017
-0.0796173
0.0323516
-0.0834937
0.0139339
-0.0810411
-0.00540267
-0.0731984
-0.0227929
-0.0615603
-0.0357428
-0.048257
-0.0424964
-0.0363772
-0.040467
-0.0295361
-0.0266627
-0.0319291
0.000232398
-0.0458833
0.0363379
-0.0714221
0.0737538
-0.104205
0.0991174
-0.13722
0.101004
-0.166801
0.0921313
-0.189961
0.072532
-0.205998
0.0506887
-0.214765
0.0287968
-0.215405
0.00374273
-0.207307
-0.025287
-0.192723
-0.0503313
-0.177629
-0.0572166
-0.168941
-0.0406901
-0.171808
-0.00501748
-0.186832
0.0334462
-0.212821
0.0696189
-0.246998
0.0974711
-0.286583
0.117628
-0.328466
0.127511
-0.369554
0.128608
-0.406814
0.118856
-0.438052
0.101911
-0.461912
0.0800916
-0.476735
0.0524303
-0.483425
0.0262973
-0.483197
0.00372943
-0.477746
-0.012822
-0.468334
-0.0270911
-0.456801
-0.0342203
-0.445737
-0.0339785
-0.435235
-0.0320834
-0.426182
-0.0280693
-0.418123
-0.0255969
-0.413528
-0.0147186
-0.410349
-0.00989942
-0.409515
-0.00252837
-0.408951
-0.00236703
-0.41169
0.00682137
-0.416956
0.015313
-0.424854
0.0242784
-0.433077
0.0266467
-0.44098
0.0247635
-0.449111
0.0252678
-0.459185
0.0295612
-0.471189
0.035748
-0.486927
0.0472447
-0.502132
0.0460046
-0.521458
0.0597223
-0.536288
0.0452124
-0.557587
0.0664867
-0.569481
0.0366172
-0.593396
0.0737953
-0.59708
0.00969923
-0.615844
0.0583547
-0.609108
-0.0361985
-0.228457
0.23483
0.187194
-0.238542
0.229779
0.181165
0.223239
0.175227
0.214366
0.168636
0.202394
0.16103
0.186924
0.152501
0.168003
0.143356
0.146036
0.133611
0.121699
0.122949
0.0958131
0.111175
0.0694687
0.0984917
0.0436778
0.0855829
0.0192571
0.0730945
-0.00322944
0.0614149
-0.0233998
0.0507393
-0.0411117
0.041112
-0.056322
0.0325118
-0.0691214
0.0247949
-0.0795519
0.017785
-0.0877626
0.011337
-0.0937734
0.00544497
-0.0977532
3.55167e-06
-0.0997852
-0.00502897
-0.1
-0.00983403
-0.098481
-0.0144876
-0.0952888
-0.0189667
-0.0904814
-0.0232081
-0.0840996
-0.0271115
-0.0763594
-0.0306597
-0.0673205
-0.0337754
-0.0571688
-0.0365263
-0.0461243
-0.0387607
-0.0342368
-0.0403508
-0.0217161
-0.0414306
-0.00897223
-0.0417967
0.00401287
-0.0414068
0.0168648
-0.0405003
0.0290305
-0.0386391
0.0408599
-0.0358379
0.0514023
-0.0326586
0.0604779
-0.0282567
0.0682727
-0.0232469
0.0734629
-0.0178224
0.0766824
-0.0107395
0.0772057
-0.00338872
0.0744837
0.0050809
0.0689228
0.0148122
0.0593811
0.0249989
0.0463584
0.0370484
0.0293819
0.0497353
0.00896782
0.0625895
-0.0138353
0.0732891
-0.037816
0.0787122
-0.060167
0.0766783
-0.0788991
0.064765
-0.0912892
0.0447708
-0.0962096
0.0187969
-0.0933944
-0.00817844
-0.0840317
-0.032153
-0.0701573
-0.049651
-0.0544743
-0.0581728
-0.0408242
-0.0541803
-0.0336223
-0.0337812
-0.0377711
0.00436633
-0.0558587
0.0544934
-0.087553
0.105372
-0.127607
0.139175
-0.167812
0.141178
-0.203925
0.128269
-0.232343
0.100946
-0.252191
0.0705367
-0.263186
0.0397714
-0.264484
0.00501355
-0.255798
-0.0339197
-0.240214
-0.0659207
-0.224961
-0.072469
-0.218
-0.047677
-0.225065
0.00205464
-0.246573
0.0549546
-0.280834
0.10388
-0.324397
0.141018
-0.373798
0.167032
-0.425337
0.179042
-0.475224
0.178505
-0.520012
0.163694
-0.557122
0.138996
-0.585041
0.107998
-0.601981
0.0694324
-0.609092
0.0333705
-0.608035
0.00268578
-0.600656
-0.0201675
-0.588736
-0.0390631
-0.574352
-0.0485742
-0.560711
-0.0476299
-0.547692
-0.0451067
-0.536531
-0.0392404
-0.526643
-0.0354902
-0.520991
-0.0203553
-0.51693
-0.0139627
-0.515741
-0.00372652
-0.51498
-0.00311609
-0.51843
0.0102645
-0.52488
0.0217553
-0.534346
0.0337427
-0.54399
0.0363021
-0.553228
0.033939
-0.562787
0.0348594
-0.574964
0.0417106
-0.589378
0.050169
-0.608543
0.0663983
-0.626786
0.0642615
-0.650102
0.0830138
-0.667757
0.0628783
-0.693235
0.0919609
-0.707224
0.0506066
-0.735613
0.10218
-0.740587
0.0146786
-0.76172
0.0794744
-0.757903
-0.0400111
-0.30152
0.240917
0.189833
-0.243606
0.236301
0.185674
0.23074
0.180897
0.223878
0.175698
0.215194
0.169913
0.204313
0.163532
0.190985
0.156723
0.175103
0.149449
0.156685
0.141325
0.135881
0.131936
0.113084
0.121245
0.0890636
0.109542
0.0646357
0.0974478
0.0405752
0.0854193
0.017561
0.0737835
-0.00393073
0.0627162
-0.0235532
0.0522891
-0.0411121
0.0424536
-0.0564
0.0331217
-0.0693417
0.0242338
-0.0798098
0.0158696
-0.08784
0.00800207
-0.0934711
0.000594311
-0.0967849
-0.00652398
-0.0978306
-0.0134643
-0.0966423
-0.0201979
-0.0932502
-0.0266279
-0.0876913
-0.0326347
-0.0801799
-0.0381769
-0.0707945
-0.0431509
-0.0597233
-0.0475885
-0.0472202
-0.0513329
-0.0333841
-0.0541948
-0.0184497
-0.0562943
-0.00290862
-0.0574251
0.0131847
-0.0574511
0.02941
-0.0566303
0.0450736
-0.0545045
0.0604337
-0.0509712
0.0744414
-0.0466595
0.0867057
-0.0406836
0.0973269
-0.0335556
0.104801
-0.025602
0.109573
-0.015443
0.110834
-0.00451516
0.107841
0.00788915
0.100953
0.0219944
0.0889797
0.0367856
0.072452
0.0536502
0.051024
0.071093
0.025396
0.0881731
-0.00306212
0.101923
-0.0327839
0.108299
-0.0604828
0.104558
-0.0837268
0.0878384
-0.0993933
0.0604633
-0.106113
0.025461
-0.103604
-0.0106479
-0.0932629
-0.0424961
-0.0775586
-0.0653972
-0.059773
-0.0759562
-0.0445147
-0.069505
-0.0369939
-0.0412126
-0.0428194
0.0101804
-0.064845
0.0765958
-0.102415
0.142866
-0.149501
0.18627
-0.196849
0.188499
-0.239731
0.17118
-0.273894
0.135105
-0.298261
0.0949011
-0.312342
0.0538291
-0.315282
0.007925
-0.307091
-0.0420554
-0.29164
-0.0813815
-0.277375
-0.0867363
-0.273269
-0.0518199
-0.285634
0.0144253
-0.314668
0.083988
-0.358143
0.147351
-0.411927
0.194786
-0.471851
0.226955
-0.533644
0.240831
-0.592812
0.23768
-0.645506
0.216442
-0.688795
0.182257
-0.720981
0.140168
-0.740185
0.0887012
-0.747736
0.0408791
-0.74585
0.000811337
-0.736414
-0.0295715
-0.721822
-0.0537105
-0.704339
-0.0660251
-0.687885
-0.0640953
-0.672069
-0.0609223
-0.658507
-0.0528146
-0.646472
-0.0475275
-0.639492
-0.0273194
-0.634253
-0.0192016
-0.632405
-0.00558317
-0.6311
-0.00440683
-0.634965
0.0141233
-0.642404
0.0291857
-0.653243
0.0445794
-0.66408
0.0471526
-0.674265
0.0440594
-0.684731
0.0453638
-0.698511
0.0554623
-0.714749
0.066416
-0.736959
0.0885964
-0.757743
0.0850629
-0.784684
0.109929
-0.804661
0.0828691
-0.833757
0.121054
-0.849374
0.0662255
-0.881197
0.134
-0.887664
0.021151
-0.909467
0.101265
-0.909469
-0.0400047
-0.37792
0.247058
0.192654
-0.249954
0.243087
0.189495
0.238175
0.185885
0.232225
0.181861
0.22503
0.177287
0.216464
0.172217
0.206401
0.166824
0.194705
0.161126
0.181158
0.154839
0.165498
0.147541
0.147639
0.139014
0.127741
0.129314
0.106355
0.118729
0.0840592
0.107686
0.061465
0.0964678
0.0391021
0.085255
0.0174527
0.0741307
-0.0030847
0.0630946
-0.0220689
0.0521353
-0.0391629
0.0412724
-0.0540245
0.0306687
-0.0664664
0.0204079
-0.0763836
0.0105006
-0.0837335
0.000818065
-0.0884584
-0.00875745
-0.0905028
-0.0181899
-0.0898111
-0.027336
-0.0863616
-0.036038
-0.0803191
-0.0442147
-0.0717406
-0.0517217
-0.0607812
-0.058534
-0.0476947
-0.0644793
-0.0326087
-0.0692942
-0.0157632
-0.073052
0.00228557
-0.0755446
0.0214079
-0.0765258
0.0411474
-0.0762479
0.0606744
-0.0742279
0.0801286
-0.0702152
0.0983628
-0.0648585
0.114737
-0.057239
0.129217
-0.0477326
0.140097
-0.0367616
0.147558
-0.0228594
0.150656
-0.00745563
0.148398
0.00996665
0.141023
0.0296538
0.127274
0.0503624
0.107675
0.0733126
0.0820068
0.0966993
0.0511451
0.118984
0.0167772
0.136469
-0.0191802
0.144113
-0.0529664
0.138519
-0.0816768
0.116382
-0.101739
0.0805518
-0.111443
0.0351161
-0.110384
-0.0116647
-0.100066
-0.0528169
-0.0833329
-0.0821778
-0.0639965
-0.0952918
-0.0473958
-0.0861722
-0.0394937
-0.0490173
-0.0466067
0.0172866
-0.0718982
0.101973
-0.114505
0.185399
-0.167848
0.239627
-0.221851
0.242481
-0.271473
0.220836
-0.311844
0.175474
-0.341653
0.124707
-0.360087
0.0722368
-0.366128
0.0139343
-0.359904
-0.0482216
-0.345941
-0.0953623
-0.333858
-0.0988255
-0.333669
-0.0520579
-0.352318
0.0330773
-0.3898
0.121469
-0.443338
0.200878
-0.508133
0.259563
-0.579297
0.298115
-0.652032
0.313566
-0.721127
0.306778
-0.782313
0.277686
-0.832355
0.232266
-0.869286
0.177079
-0.891172
0.110654
-0.899378
0.0490371
-0.896831
-0.00172641
-0.885317
-0.0410584
-0.867918
-0.0711693
-0.847046
-0.0868648
-0.827473
-0.0836809
-0.808494
-0.0798959
-0.792098
-0.0692263
-0.777421
-0.062204
-0.76868
-0.0360449
-0.761815
-0.0260645
-0.758808
-0.00859855
-0.756346
-0.00685153
-0.760032
0.0178013
-0.768065
0.0372086
-0.779929
0.0564411
-0.791622
0.0588603
-0.802148
0.054519
-0.812664
0.0559229
-0.827152
0.0699235
-0.844197
0.0834718
-0.868699
0.113087
-0.891218
0.1076
-0.921105
0.139791
-0.942686
0.104466
-0.974473
0.152838
-0.991151
0.0829075
-1.02482
0.167661
-1.03298
0.0293208
-1.05344
0.121713
-1.05746
-0.0359799
-0.453473
0.253152
0.194806
-0.255449
0.249694
0.192805
0.245397
0.190298
0.240083
0.187326
0.233715
0.183795
0.226304
0.179737
0.217871
0.175297
0.208433
0.170559
0.197841
0.165387
0.185798
0.159486
0.172034
0.152619
0.156419
0.144749
0.139084
0.135947
0.12035
0.126432
0.100534
0.116436
0.0799681
0.106048
0.0590314
0.0952824
0.0381173
0.0841109
0.0177231
0.0725364
-0.00167769
0.0606074
-0.0195973
0.0485139
-0.0356442
0.0364196
-0.0495313
0.0243847
-0.0610459
0.0123287
-0.0699651
0.000151177
-0.0760811
-0.0121017
-0.0791858
-0.0242395
-0.0791254
-0.0360494
-0.0759419
-0.0473907
-0.0696028
-0.0580622
-0.0601684
-0.0679585
-0.0478291
-0.0768731
-0.0326905
-0.084456
-0.0149526
-0.0906925
0.00480913
-0.0953619
0.0264092
-0.0980906
0.0493841
-0.0990855
0.072798
-0.0978339
0.0966662
-0.0938994
0.11976
-0.0878911
0.141172
-0.0788489
0.160688
-0.0669653
0.176391
-0.052711
0.18811
-0.0345637
0.194713
-0.013885
0.194874
0.00962442
0.188617
0.0361757
0.17455
0.0642691
0.153112
0.0947971
0.124167
0.125589
0.0887096
0.154382
0.048698
0.176657
0.00635745
0.186301
-0.0341141
0.179157
-0.0693222
0.151433
-0.0951895
0.106448
-0.109528
0.0494176
-0.111646
-0.00949866
-0.102981
-0.0614825
-0.0866105
-0.0985972
-0.0667502
-0.115149
-0.0493511
-0.103634
-0.0410204
-0.0572413
-0.0487621
0.0250262
-0.0761235
0.129427
-0.122241
0.231443
-0.180308
0.297713
-0.239758
0.301918
-0.295565
0.276682
-0.342369
0.222277
-0.378664
0.160996
-0.403116
0.0966635
-0.41423
0.0250143
-0.411877
-0.050515
-0.400987
-0.106279
-0.392312
-0.107512
-0.397005
-0.0474228
-0.422779
0.0588521
-0.4695
0.168192
-0.533871
0.265234
-0.610457
0.336126
-0.693653
0.381306
-0.778183
0.398097
-0.858114
0.386709
-0.928681
0.348309
-0.986415
0.289965
-1.02894
0.219575
-1.05428
0.136065
-1.06361
0.0583169
-1.06079
-0.0045413
-1.04733
-0.0545048
-1.02703
-0.0915348
-1.00242
-0.111433
-0.979339
-0.106782
-0.956739
-0.102488
-0.936911
-0.089074
-0.918882
-0.0802314
-0.907746
-0.047165
-0.898641
-0.0351654
-0.893759
-0.01349
-0.889227
-0.0113647
-0.891763
0.0203266
-0.899753
0.045187
-0.912144
0.068829
-0.92429
0.0710219
-0.934391
0.0645527
-0.943773
0.0653538
-0.957684
0.0838083
-0.974072
0.0998728
-0.999735
0.138738
-1.02291
0.130799
-1.05481
0.171658
-1.07717
0.126851
-1.11044
0.186107
-1.12766
0.100127
-1.16121
0.201206
-1.17124
0.0393615
-1.18847
0.138928
-1.19599
-0.028455
-0.524002
0.259217
0.196661
-0.261203
0.256222
0.195699
0.252431
0.194194
0.247667
0.192212
0.241926
0.189663
0.23523
0.186526
0.227659
0.1829
0.219321
0.178888
0.210189
0.174452
0.200099
0.169427
0.18885
0.163652
0.176315
0.15708
0.162395
0.149777
0.147182
0.141723
0.13077
0.133071
0.113231
0.123851
0.0947401
0.113988
0.0755396
0.103393
0.0560041
0.0920438
0.0365567
0.0799735
0.017664
0.0673305
-0.000221527
0.0542796
-0.01671
0.0408859
-0.0314639
0.0270863
-0.0441144
0.0127953
-0.0542974
-0.00194106
-0.0616309
-0.01691
-0.0657791
-0.0318526
-0.0665946
-0.0465654
-0.0638805
-0.0607844
-0.057525
-0.0743069
-0.0475708
-0.0868729
-0.0340195
-0.0980382
-0.0169522
-0.107658
0.00311739
-0.115474
0.0260041
-0.120964
0.051296
-0.124235
0.0780178
-0.124741
0.106092
-0.121822
0.134261
-0.115976
0.161367
-0.106169
0.187
-0.0923428
0.209032
-0.0749555
0.226885
-0.0524368
0.239177
-0.025999
0.244172
0.00444798
0.241535
0.0390449
0.229639
0.0760166
0.208695
0.115768
0.178541
0.155694
0.140171
0.192683
0.0956993
0.221299
0.047557
0.234281
0.000284772
0.226583
-0.0422551
0.193828
-0.0754431
0.139668
-0.0964649
0.0704154
-0.104117
-0.00178894
-0.099515
-0.0660803
-0.0857252
-0.112433
-0.0671289
-0.133738
-0.050052
-0.120769
-0.041523
-0.0656552
-0.0491471
0.03265
-0.0769268
0.157302
-0.124267
0.278706
-0.184596
0.358067
-0.247203
0.36452
-0.307651
0.337173
-0.360481
0.275107
-0.404147
0.204657
-0.436566
0.129059
-0.455241
0.0436543
-0.459148
-0.0465472
-0.453204
-0.112257
-0.449222
-0.111509
-0.459681
-0.0370233
-0.493291
0.0924645
-0.549939
0.224842
-0.625879
0.341159
-0.71509
0.425305
-0.811264
0.477476
-0.908698
0.495532
-1.00075
0.478754
-1.08199
0.429602
-1.14883
0.356769
-1.19826
0.268969
-1.22827
0.166159
-1.23954
0.0695228
-1.23711
-0.00697348
-1.22202
-0.0695761
-1.1988
-0.114829
-1.17009
-0.140104
-1.14301
-0.133885
-1.11625
-0.129239
-1.09223
-0.113116
-1.0699
-0.102558
-1.05552
-0.061532
-1.04341
-0.0472697
-1.03574
-0.0211682
-1.02793
-0.0191541
-1.02792
0.0202999
-1.03495
0.0522046
-1.04724
0.0811101
-1.05945
0.0832527
-1.06834
0.0733725
-1.07517
0.072242
-1.0869
0.0955071
-1.10076
0.113751
-1.1261
0.16407
-1.14869
0.153403
-1.18147
0.204419
-1.20387
0.149267
-1.23731
0.219542
-1.25471
0.117537
-1.28615
0.232637
-1.29814
0.0513593
-1.3108
0.151584
-1.32086
-0.0183938
-0.585856
0.265326
0.198355
-0.267103
0.262675
0.198275
0.259288
0.197676
0.254999
0.196609
0.249793
0.194972
0.243673
0.192717
0.236715
0.189899
0.229009
0.186589
0.220585
0.182786
0.211402
0.178417
0.201415
0.173408
0.190584
0.167743
0.178872
0.161471
0.166139
0.154613
0.152432
0.147049
0.137681
0.13886
0.121906
0.129926
0.105203
0.120124
0.0877679
0.109404
0.0698655
0.0977761
0.051814
0.0853147
0.0339677
0.0721182
0.0166808
0.0582043
0.000298016
0.0434831
-0.0147677
0.0278595
-0.0280791
0.0113571
-0.0391458
-0.00583716
-0.0474793
-0.0234656
-0.0527381
-0.0412896
-0.0545285
-0.0590014
-0.0525155
-0.0763103
-0.0465219
-0.0928967
-0.0363591
-0.108233
-0.0218924
-0.122019
-0.00346114
-0.133933
0.018845
-0.143279
0.0447594
-0.150003
0.0733761
-0.153526
0.104607
-0.152938
0.137273
-0.148538
0.170052
-0.139172
0.202361
-0.124432
0.231921
-0.104687
0.257727
-0.0783007
0.278126
-0.0462241
0.29091
-0.00851562
0.295245
0.0349038
0.289122
0.0820064
0.272326
0.132577
0.244471
0.183509
0.20635
0.230729
0.160017
0.267795
0.107916
0.28621
0.0547402
0.279896
0.00471775
0.243722
-0.0370161
0.181437
-0.066897
0.100286
-0.0829629
0.0143455
-0.0856707
-0.0633622
-0.0777158
-0.120431
-0.0632677
-0.148173
-0.0486318
-0.135459
-0.0408606
-0.0733075
-0.0479287
0.039714
-0.0742966
0.18376
-0.119929
0.324252
-0.178477
0.41664
-0.240994
0.427041
-0.302971
0.399194
-0.360146
0.332278
-0.411361
0.255874
-0.453651
0.171334
-0.482795
0.0727661
-0.495896
-0.0333846
-0.497174
-0.111015
-0.499341
-0.109356
-0.516464
-0.0199565
-0.558574
0.134583
-0.625808
0.292075
-0.714111
0.429457
-0.816935
0.528081
-0.927294
0.587834
-1.0391