/*--------------------------------*- C++ -*----------------------------------*\
| =========                 |                                                 |
| \\      /  F ield         | OpenFOAM: The Open Source CFD Toolbox           |
|  \\    /   O peration     | Version:  2412                                  |
|   \\  /    A nd           | Website:  www.openfoam.com                      |
|    \\/     M anipulation  |                                                 |
\*---------------------------------------------------------------------------*/
FoamFile
{
    version     2.0;
    format      ascii;
    arch        "LSB;label=32;scalar=64";
    class       volVectorField;
    location    "0.175";
    object      ddtCorrDdt0(U);
}
// * * * * * * * * * * * * * * * * * * * * * * * * * * * * * * * * * * * * * //

dimensions      [0 1 -2 0 0 0 0];

internalField   nonuniform List<vector> 
12600
(
(125.644 -2.65622e-20 29.7657)
(53.4659 2.57272e-20 9.74752)
(21.255 3.63837e-21 1.61541)
(5.39054 0 -0.455035)
(-2.07648 -1.43769e-19 -0.283994)
(-5.70048 -1.82353e-19 0.247857)
(-7.86337 0 0.677631)
(-9.41321 0 0.987991)
(-10.5557 7.79154e-19 1.29375)
(-11.3457 0 1.53629)
(-11.8111 -6.16001e-19 1.70762)
(-12.0154 -6.95464e-19 1.82719)
(-12.0417 6.90887e-19 1.91027)
(-11.9757 0 1.95756)
(-11.8759 4.90677e-19 1.9708)
(-11.7548 0 1.96544)
(-11.5911 -1.5629e-18 1.94471)
(-11.3739 0 1.91711)
(-11.1066 8.46378e-19 1.88582)
(-10.8029 8.72154e-19 1.85177)
(-10.4709 -9.14873e-19 1.8049)
(-10.1229 -8.48915e-22 1.75412)
(-9.75497 0 1.6978)
(-9.36021 1.77352e-18 1.63771)
(-8.96179 0 1.57364)
(-8.55525 0 1.50051)
(-8.14276 1.42553e-18 1.42095)
(-7.70013 0 1.33589)
(-7.23368 1.22458e-21 1.25341)
(-6.74493 -1.40246e-18 1.16589)
(-6.24396 -1.3137e-18 1.07371)
(-5.76614 -1.25856e-18 0.98146)
(-5.27546 1.39976e-18 0.881894)
(-4.76146 2.86574e-18 0.785258)
(-4.26948 2.99024e-18 0.698751)
(-3.77005 -3.29733e-18 0.604326)
(-3.27068 0 0.514533)
(-2.85504 3.12677e-18 0.437035)
(-2.40818 0 0.346927)
(-1.97338 -3.17306e-18 0.278446)
(-1.64602 0 0.217763)
(-1.26 -5.54904e-21 0.145844)
(-0.981373 0 0.101926)
(-0.771786 -1.4054e-22 0.0493095)
(-0.505054 -6.36259e-18 0.00830956)
(-0.365422 6.37242e-18 -0.0104133)
(-0.221579 -7.22754e-18 -0.0291795)
(-0.160109 0 -0.0200103)
(-0.255945 0 -0.00196421)
(-0.46513 -5.58157e-18 0.047839)
(-0.899388 -1.21397e-17 0.131407)
(-1.49599 -1.27183e-17 0.253711)
(-2.31637 1.53014e-21 0.422873)
(-3.27319 -1.27739e-17 0.603617)
(-4.257 0 0.799646)
(-5.14956 1.18139e-17 0.953004)
(-5.75079 1.15905e-17 1.06001)
(-5.9932 1.23098e-17 1.08667)
(-5.83714 0 1.04766)
(-5.34937 0 0.944107)
(-4.58236 0 0.846312)
(-3.66828 -2.38388e-17 0.664386)
(-2.75064 0 0.480943)
(-2.07176 0 0.36236)
(-1.94405 4.76531e-17 0.34866)
(-2.54823 0 0.478809)
(-3.91444 0 0.76536)
(-5.59766 0 1.02146)
(-7.2097 -4.54305e-17 1.36148)
(-8.65907 4.57325e-17 1.69346)
(-9.69321 4.44867e-17 1.8545)
(-10.3996 3.92241e-21 1.975)
(-10.7505 -4.07751e-17 2.02209)
(-10.6603 0 1.98707)
(-9.89523 3.22938e-17 1.82207)
(-8.61719 0 1.56793)
(-7.18003 0 1.30098)
(-6.18925 0 1.14739)
(-5.80545 2.40643e-20 1.09713)
(-6.06633 2.36976e-17 1.16313)
(-6.84764 2.31925e-17 1.31755)
(-8.13345 -2.60832e-17 1.58057)
(-9.69022 -2.73043e-17 1.88256)
(-11.4999 0 2.23554)
(-13.2287 0 2.56095)
(-14.8934 5.70883e-17 2.874)
(-16.1908 -1.12419e-16 3.1067)
(-17.2556 1.15782e-16 3.29882)
(-17.7105 5.15107e-17 3.37576)
(-17.9579 0 3.41062)
(-17.6843 -1.00019e-16 3.35316)
(-17.3832 4.61311e-17 3.28874)
(-16.6586 -4.76553e-17 3.14747)
(-16.0633 9.14768e-17 3.03369)
(-15.3051 0 2.89072)
(-14.769 0 2.78834)
(-14.0946 0 2.66073)
(-13.6137 0 2.57175)
(-13.1859 0 2.49263)
(-12.8856 0 2.43614)
(-12.6278 -7.63402e-17 2.38728)
(-12.2985 -1.46526e-16 2.32592)
(-12.1975 -1.40183e-16 2.30906)
(-12.0489 0 2.28181)
(-12.2121 0 2.31474)
(-12.121 0 2.29525)
(-12.2554 -1.27434e-16 2.32123)
(-12.0604 -2.39651e-16 2.28407)
(-12.2102 1.16957e-16 2.31488)
(-12.0958 0 2.29413)
(-12.4017 -2.18187e-16 2.35379)
(-12.332 0 2.34164)
(-12.7823 -2.00007e-16 2.42641)
(-12.5496 1.88621e-16 2.3839)
(-13.2042 -1.80828e-16 2.50663)
(-12.5644 -1.71225e-16 2.38643)
(-13.6556 1.6407e-16 2.59207)
(-11.9837 -6.18719e-21 2.2746)
(-13.9164 1.49168e-16 2.63987)
(-9.83821 0 1.8606)
(167.491 2.68439e-20 46.6888)
(121.249 0 29.042)
(78.5667 -3.48222e-21 13.292)
(43.4379 0 4.67223)
(18.9621 1.45756e-19 2.10216)
(3.24681 4.16424e-19 2.0291)
(-7.14958 2.00669e-19 2.64078)
(-14.4516 0 3.32054)
(-19.7443 8.49398e-21 3.97898)
(-23.5879 5.06737e-19 4.49973)
(-26.2593 -6.26004e-19 4.87877)
(-28.0213 -6.91097e-19 5.14685)
(-29.1264 6.73239e-19 5.32859)
(-29.7837 -5.85035e-19 5.43172)
(-30.1302 -9.86759e-19 5.46013)
(-30.2337 0 5.44187)
(-30.1166 -1.8153e-20 5.39442)
(-29.7983 -8.24759e-19 5.32818)
(-29.3081 -8.58663e-19 5.24669)
(-28.6816 0 5.14994)
(-27.9413 0 5.02354)
(-27.1076 -9.26632e-19 4.87812)
(-26.1851 0 4.71559)
(-25.1696 -8.98066e-19 4.53399)
(-24.0864 1.6442e-18 4.33795)
(-22.9315 0 4.11655)
(-21.7082 -1.44067e-18 3.87614)
(-20.3959 0 3.62061)
(-19.0081 1.42531e-18 3.36431)
(-17.5581 2.83627e-18 3.09588)
(-16.0619 2.6588e-18 2.81302)
(-14.5622 1.27388e-18 2.53044)
(-13.0367 -1.4164e-18 2.23511)
(-11.4843 -5.81047e-18 1.94389)
(-9.96179 -6.03534e-18 1.67654)
(-8.46199 0 1.39748)
(-6.99553 0 1.12758)
(-5.65541 -1.59066e-20 0.893173)
(-4.35677 0 0.642785)
(-3.13437 3.20331e-18 0.434623)
(-2.10196 0 0.261778)
(-1.1138 6.89683e-18 0.070907)
(-0.316292 0 -0.057518)
(0.294454 6.72096e-18 -0.17567)
(0.836869 0 -0.26937)
(1.12391 -6.41661e-18 -0.2963)
(1.24332 0 -0.301544)
(1.09924 0 -0.238016)
(0.556273 6.28592e-18 -0.116851)
(-0.394013 0 0.0945298)
(-1.91731 0 0.413935)
(-3.96824 0 0.838988)
(-6.5408 1.21722e-17 1.36944)
(-9.40248 2.56097e-17 1.92159)
(-12.2053 0 2.45901)
(-14.5652 0 2.86736)
(-16.0602 -1.16221e-17 3.10608)
(-16.4905 -1.23092e-17 3.13568)
(-15.8319 0 2.97111)
(-14.251 0 2.63118)
(-11.9911 0 2.21298)
(-9.40487 0 1.69923)
(-6.98178 -2.47459e-17 1.23354)
(-5.4216 2.43622e-17 0.980972)
(-5.53223 -4.73901e-17 1.06667)
(-7.69982 0 1.56106)
(-11.9293 0 2.41346)
(-16.9703 0 3.50252)
(-21.7129 -3.55005e-20 4.34206)
(-25.815 -4.5295e-17 5.13108)
(-28.6947 -4.4021e-17 5.60329)
(-30.6343 8.63875e-17 5.92679)
(-31.4473 9.00562e-21 6.02764)
(-30.9312 -3.78668e-17 5.86627)
(-28.5637 -3.18343e-17 5.34375)
(-24.9841 0 4.61627)
(-21.194 0 3.90178)
(-18.7238 0 3.51188)
(-18.0376 2.56759e-17 3.45074)
(-19.3226 0 3.75117)
(-22.0673 0 4.30719)
(-26.1467 2.5528e-17 5.13004)
(-30.8418 2.66946e-17 6.04662)
(-36.1142 0 7.07469)
(-40.9867 0 8.00012)
(-45.5988 0 8.87178)
(-49.0081 1.09448e-16 9.49719)
(-51.7824 1.19284e-21 9.99921)
(-52.7379 5.00095e-17 10.1555)
(-53.1961 -5.01694e-17 10.2137)
(-52.1605 9.69149e-17 10.0001)
(-51.1215 4.46472e-17 9.78216)
(-48.8913 9.21637e-17 9.34676)
(-47.1399 0 9.00856)
(-44.9123 0 8.58463)
(-43.3364 0 8.2838)
(-41.3801 0 7.90951)
(-40.0222 8.17046e-17 7.65709)
(-38.7986 0 7.42752)
(-37.9109 0 7.2621)
(-37.1511 -7.3193e-17 7.11582)
(-36.2224 7.01808e-17 6.94112)
(-35.9871 2.68302e-16 6.90211)
(-35.5569 -1.31876e-16 6.82446)
(-36.0262 0 6.91939)
(-35.6658 0 6.84723)
(-36.0623 0 6.92355)
(-35.4603 1.14136e-16 6.80787)
(-35.9971 -1.11308e-16 6.91363)
(-35.6332 0 6.84912)
(-36.6253 4.14583e-16 7.03822)
(-36.3345 1.94388e-16 6.99057)
(-37.7084 3.7943e-16 7.24597)
(-36.9198 0 7.10582)
(-38.8941 0 7.47195)
(-36.8828 -1.62039e-16 7.09919)
(-40.2191 0 7.71902)
(-35.1308 -1.47926e-16 6.75598)
(-41.0465 -1.40882e-16 7.85966)
(-29.4507 0 5.57488)
(167.612 0 61.7403)
(146.552 0 47.431)
(118.007 9.51512e-20 31.7372)
(85.6055 0 19.153)
(55.0899 0 11.6035)
(30.0045 -1.70217e-19 7.98464)
(10.6137 -1.90093e-19 6.74874)
(-4.20349 0 6.62366)
(-15.5273 1.07406e-20 6.85745)
(-24.105 -4.80093e-19 7.13958)
(-30.4539 1.16887e-18 7.38841)
(-35.0549 6.54824e-19 7.59681)
(-38.3363 -3.29967e-20 7.75456)
(-40.6483 5.54365e-19 7.84779)
(-42.2338 4.63241e-19 7.87645)
(-43.2375 -4.08917e-19 7.85671)
(-43.7445 7.70079e-19 7.80937)
(-43.8245 7.81558e-19 7.7354)
(-43.5415 0 7.63642)
(-42.9601 0 7.50373)
(-42.1227 -8.72541e-19 7.32889)
(-41.0651 -8.68063e-19 7.11164)
(-39.8033 0 6.86447)
(-38.3416 0 6.57419)
(-36.7102 -1.55795e-18 6.25266)
(-34.9113 0 5.88936)
(-32.9528 2.73001e-18 5.49349)
(-30.8217 -1.38618e-18 5.07392)
(-28.5427 0 4.64106)
(-26.1412 -1.3415e-18 4.19203)
(-23.6423 -1.25878e-18 3.71874)
(-21.0992 0 3.24506)
(-18.5065 1.34771e-18 2.76421)
(-15.8751 2.75776e-18 2.28434)
(-13.2766 1.21895e-20 1.8336)
(-10.7267 0 1.38398)
(-8.24274 0 0.943796)
(-5.93571 -2.97634e-18 0.557658)
(-3.74995 0 0.181201)
(-1.71904 0 -0.156613)
(0.0150475 0 -0.420503)
(1.58096 0 -0.682896)
(2.83748 0 -0.873903)
(3.74986 0 -0.993963)
(4.43172 0 -1.07918)
(4.68112 6.04452e-18 -1.0541)
(4.54943 -6.87812e-18 -0.954408)
(3.93461 0 -0.756803)
(2.65113 -5.94706e-18 -0.420291)
(0.665027 0 0.060377)
(-2.21495 0 0.722095)
(-5.91829 1.21216e-17 1.53397)
(-10.3442 0 2.45341)
(-15.0938 -1.21063e-17 3.36724)
(-19.5914 1.05318e-17 4.15916)
(-23.2173 0 4.7169)
(-25.3764 1.09854e-17 4.95778)
(-25.7886 0 4.87664)
(-24.4909 0 4.49269)
(-21.775 0 3.86516)
(-18.0918 2.21591e-17 3.0733)
(-14.0107 2.24774e-17 2.28154)
(-10.3908 -4.34971e-21 1.66328)
(-8.35443 -4.60065e-17 1.45306)
(-9.11035 3.22538e-21 1.83936)
(-13.1457 0 2.85263)
(-20.3333 0 4.31495)
(-28.6664 -4.27442e-17 6.30606)
(-36.4006 -1.95676e-20 7.57764)
(-42.9417 0 8.64833)
(-47.4546 0 9.35111)
(-50.4217 -4.07331e-17 9.78597)
(-51.4658 -6.81834e-21 9.84319)
(-50.3499 2.43895e-21 9.45588)
(-46.41 0 8.53662)
(-40.872 0 7.40868)
(-35.317 -3.89123e-17 6.41462)
(-32.0224 3.07172e-17 5.96913)
(-31.5892 0 6.07623)
(-34.3089 0 6.77127)
(-39.2859 0 7.84829)
(-46.2811 0 9.27587)
(-54.0794 0 10.8033)
(-62.6502 0 12.4462)
(-70.3607 0 13.8734)
(-77.5874 0 15.185)
(-82.6972 -1.02914e-16 16.0726)
(-86.8199 -5.29185e-17 16.7574)
(-87.9258 -4.70024e-17 16.8754)
(-88.3768 4.7143e-17 16.8797)
(-86.3898 -9.10301e-17 16.4501)
(-84.5118 -4.19367e-17 16.0424)
(-80.7399 -4.32716e-17 15.3025)
(-77.8527 0 14.7494)
(-74.192 0 14.0602)
(-71.5958 0 13.5737)
(-68.4198 0 12.9737)
(-66.2377 -7.66522e-17 12.5829)
(-64.2624 0 12.2199)
(-62.7853 0 11.9532)
(-61.5458 6.86276e-17 11.7154)
(-60.0572 0 11.4447)
(-59.7533 -1.25731e-16 11.4045)
(-59.0312 1.23583e-16 11.2822)
(-59.7911 0 11.4352)
(-59.0782 0 11.2907)
(-59.7554 0 11.4191)
(-58.7157 1.06886e-16 11.2209)
(-59.7378 0 11.4252)
(-59.0807 -9.94953e-17 11.3132)
(-60.853 -7.00875e-21 11.6501)
(-60.2377 -1.81926e-16 11.5496)
(-62.6071 -3.55038e-16 11.9815)
(-61.1442 0 11.7264)
(-64.5126 1.60198e-16 12.3351)
(-61.0026 1.51567e-16 11.6987)
(-66.7223 1.45112e-16 12.7308)
(-58.1022 0 11.1255)
(-68.1632 1.31729e-16 12.9514)
(-49.581 0 9.25007)
(158.856 0 69.2692)
(149.636 0 58.737)
(134.939 -9.00114e-20 46.5842)
(113.741 0 34.6783)
(88.5701 2.43551e-19 25.0312)
(63.0938 -4.55971e-19 18.2846)
(39.6665 0 14.1676)
(19.2657 3.82959e-19 11.9419)
(2.14109 -3.7324e-19 10.7629)
(-11.806 -4.42929e-19 10.1161)
(-22.8509 -5.4449e-19 9.75555)
(-31.4218 5.50284e-19 9.581)
(-37.9924 -5.72123e-19 9.52139)
(-42.9876 9.66308e-19 9.49852)
(-46.7341 0 9.47264)
(-49.4596 7.97303e-19 9.43296)
(-51.3202 0 9.38454)
(-52.441 0 9.31268)
(-52.9301 0 9.21132)
(-52.8882 -8.04361e-19 9.06112)
(-52.3829 7.88652e-21 8.85556)
(-51.4688 9.2622e-21 8.58602)
(-50.1805 -8.18838e-19 8.27108)
(-48.5373 0 7.88855)
(-46.5784 0 7.45225)
(-44.3164 0 6.95667)
(-41.7676 -2.5847e-18 6.413)
(-38.93 -4.63282e-21 5.83586)
(-35.8413 0 5.23154)
(-32.5416 0 4.60577)
(-29.0688 0 3.94745)
(-25.4882 0 3.28545)
(-21.8149 -2.55116e-18 2.62223)
(-18.0745 0 1.95938)
(-14.3551 2.6851e-18 1.32899)
(-10.7001 0 0.714808)
(-7.13728 0 0.115471)
(-3.80122 2.78184e-18 -0.415102)
(-0.671046 0 -0.903603)
(2.2164 0 -1.35068)
(4.68157 -2.91184e-18 -1.68882)
(6.8311 6.19908e-18 -1.99151)
(8.5192 0 -2.21034)
(9.66511 5.95956e-18 -2.2941)
(10.3774 0 -2.31516)
(10.4325 -1.14051e-17 -2.18024)
(9.84975 1.48588e-20 -1.90618)
(8.52548 0 -1.49446)
(6.23721 0 -0.86158)
(2.95252 5.03794e-18 -0.0272872)
(-1.51668 1.09304e-17 1.04649)
(-7.03682 -2.29074e-17 2.29396)
(-13.3919 0 3.61749)
(-20.0062 -1.14128e-17 4.86609)
(-26.091 -9.94157e-18 5.85724)
(-30.8258 -1.05816e-17 6.47632)
(-33.4855 -1.03866e-17 6.63221)
(-33.756 0 6.33662)
(-31.7571 0 5.65812)
(-27.9205 -2.11283e-17 4.70517)
(-22.9059 -4.18015e-17 3.6224)
(-17.54 -2.12e-17 2.60057)
(-13.0288 -1.71066e-21 1.91902)
(-10.8763 2.16887e-17 1.88462)
(-12.6017 2.10854e-17 2.70877)
(-18.7094 0 4.35116)
(-28.848 0 6.51081)
(-40.3624 4.02812e-17 9.13108)
(-50.8687 8.01946e-17 10.8888)
(-59.6399 0 12.253)
(-65.6332 3.91276e-17 13.0934)
(-69.4733 3.83984e-17 13.5623)
(-70.5895 3.57539e-17 13.4916)
(-68.8097 6.7214e-17 12.8176)
(-63.4542 0 11.4952)
(-56.3908 0 10.0417)
(-49.6874 3.66173e-17 8.90996)
(-46.2151 -5.77779e-17 8.58946)
(-46.5773 -2.26599e-17 9.01468)
(-51.1066 0 10.2079)
(-58.5142 0 11.8587)
(-68.4631 0 13.9164)
(-79.2468 0 16.036)
(-90.8899 0 18.2514)
(-101.093 0 20.1047)
(-110.59 -4.91776e-17 21.7773)
(-116.998 4.60474e-21 22.8324)
(-122.14 4.97033e-17 23.6171)
(-123.091 0 23.6235)
(-123.359 4.42197e-17 23.5253)
(-120.277 4.272e-17 22.8437)
(-117.493 0 22.2263)
(-112.18 -4.05853e-17 21.1789)
(-108.187 -7.77849e-17 20.4182)
(-103.149 0 19.4758)
(-99.5534 0 18.8102)
(-95.2362 0 18.0011)
(-92.269 -7.18434e-17 17.4849)
(-89.5933 0 17.0005)
(-87.5142 0 16.6336)
(-85.8346 6.43002e-17 16.3126)
(-83.8104 -6.16267e-17 15.9551)
(-83.5035 0 15.9288)
(-82.4556 0 15.759)
(-83.4987 0 15.9695)
(-82.3445 0 15.7371)
(-83.333 0 15.9241)
(-81.8079 6.03674e-21 15.6373)
(-83.4101 0 15.9589)
(-82.385 9.31042e-17 15.7892)
(-85.0366 -1.81532e-16 16.2911)
(-83.9618 0 16.1171)
(-87.4213 6.84648e-21 16.7393)
(-85.1315 0 16.3476)
(-89.9928 -5.31153e-21 17.2091)
(-84.83 0 16.2926)
(-93.071 -1.35674e-16 17.7422)
(-80.8408 0 15.4969)
(-95.0962 1.23124e-16 18.0245)
(-70.2274 0 12.9756)
(150.421 0 73.7893)
(145.04 0 65.2472)
(137.8 0 56.1251)
(126.067 0 46.4594)
(109.61 -2.29957e-19 37.3914)
(90.0139 -3.16577e-20 29.7683)
(69.0986 0 23.9015)
(48.3099 -3.61587e-19 19.6895)
(28.7293 0 16.6938)
(11.1405 8.24093e-19 14.5323)
(-4.04203 0 12.992)
(-16.7558 -5.19566e-19 11.9506)
(-27.185 0 11.2982)
(-35.6236 -9.12413e-19 10.8965)
(-42.3582 4.29123e-19 10.6383)
(-47.6279 -8.09e-19 10.4605)
(-51.6283 8.478e-19 10.3355)
(-54.5274 8.30263e-19 10.2199)
(-56.4693 0 10.0851)
(-57.584 7.59542e-19 9.89958)
(-57.9634 7.71861e-19 9.65559)
(-57.683 1.5217e-18 9.33531)
(-56.8014 7.73202e-19 8.95502)
(-55.3581 0 8.48671)
(-53.404 0 7.94158)
(-50.9652 0 7.32007)
(-48.0682 1.22157e-18 6.63471)
(-44.7254 1.24215e-18 5.90476)
(-40.9887 0 5.13441)
(-36.9144 0 4.33537)
(-32.5558 -1.1359e-18 3.49678)
(-27.9918 0 2.65039)
(-23.2609 -2.50341e-21 1.80798)
(-18.4076 2.50958e-18 0.966616)
(-13.5372 -2.51919e-18 0.160947)
(-8.72528 0 -0.612987)
(-4.01658 0 -1.3632)
(0.429131 -2.62555e-18 -2.02882)
(4.58885 0 -2.61802)
(8.41513 0 -3.15542)
(11.6862 2.74779e-18 -3.54782)
(14.4731 -5.84947e-18 -3.86285)
(16.6182 0 -4.07235)
(17.9887 -5.62273e-18 -4.07922)
(18.6782 0 -3.98186)
(18.4411 5.37179e-18 -3.67582)
(17.2643 6.11514e-18 -3.15784)
(15.0474 0 -2.45231)
(11.5485 5.28333e-18 -1.44291)
(6.75779 -4.75105e-18 -0.176029)
(0.519735 -2.06221e-17 1.37396)
(-6.9423 1.0807e-17 3.09683)
(-15.284 -1.02039e-17 4.83089)
(-23.75 1.64351e-20 6.38071)
(-31.3608 0 7.5051)
(-37.1221 9.9736e-18 8.09221)
(-40.2152 9.78876e-18 8.05903)
(-40.3111 -1.03524e-17 7.47048)
(-37.631 9.99986e-18 6.44883)
(-32.7525 1.99059e-17 5.15476)
(-26.5544 1.96876e-17 3.78679)
(-20.1146 -1.99727e-17 2.60906)
(-14.9781 2.07627e-17 1.98268)
(-12.9849 0 2.27294)
(-15.8832 0 3.67861)
(-24.1408 1.86867e-17 6.06067)
(-37.1212 0 8.90674)
(-51.5795 0 12.1801)
(-64.672 -3.77445e-17 14.2765)
(-75.5094 0 15.819)
(-82.875 -3.68131e-17 16.718)
(-87.5036 -7.22741e-17 17.1501)
(-88.6384 0 16.8863)
(-86.2669 -3.16071e-17 15.8924)
(-79.7786 0 14.1979)
(-71.6872 0 12.5302)
(-64.4361 -3.43961e-17 11.4258)
(-61.3608 2.71414e-17 11.407)
(-62.9698 3.56856e-20 12.2919)
(-69.5963 0 14.0776)
(-79.5461 0 16.3451)
(-92.4196 0 19.0369)
(-106.015 -2.22612e-17 21.7091)
(-120.481 2.4384e-17 24.4309)
(-132.828 0 26.6138)
(-144.279 9.23366e-17 28.5525)
(-151.624 4.53611e-17 29.6688)
(-157.516 -9.3283e-17 30.4652)
(-158.076 -4.13924e-17 30.2841)
(-158.034 -8.29409e-17 30.0383)
(-153.767 0 29.0723)
(-150.043 0 28.2313)
(-143.225 3.80552e-17 26.8814)
(-138.156 7.29243e-17 25.9249)
(-131.811 -7.10566e-17 24.7478)
(-127.227 0 23.9125)
(-121.856 0 22.9172)
(-118.116 6.73126e-17 22.2885)
(-114.796 6.38315e-17 21.6979)
(-112.082 0 21.2305)
(-110.012 -6.02185e-17 20.8374)
(-107.443 5.77064e-17 20.3998)
(-107.193 0 20.4029)
(-105.756 0 20.1777)
(-107.083 0 20.4434)
(-105.384 0 20.1021)
(-106.715 0 20.3524)
(-104.622 -9.36141e-17 19.9647)
(-106.881 0 20.4197)
(-105.367 0 20.1734)
(-108.99 0 20.8548)
(-107.277 1.59169e-16 20.5759)
(-111.93 1.55263e-16 21.3997)
(-108.614 0 20.839)
(-115.071 -1.40054e-16 21.9585)
(-108.069 0 20.7399)
(-118.919 -1.26808e-16 22.5973)
(-103.075 0 19.7319)
(-121.35 -1.15064e-16 22.9004)
(-91.1361 0 16.6534)
(143.081 1.63789e-19 78.1011)
(138.9 1.88406e-19 70.1702)
(134.543 -2.36525e-19 62.4831)
(128.115 -2.79184e-19 54.5973)
(118.482 0 46.8449)
(105.719 2.47017e-19 39.7329)
(90.4828 0 33.5966)
(73.5838 -3.93238e-19 28.463)
(55.8873 -3.61437e-19 24.1757)
(38.2813 -7.52509e-19 20.5943)
(21.5555 3.93096e-19 17.6777)
(6.27466 -4.10159e-19 15.43)
(-7.26104 0 13.8043)
(-18.9726 0 12.6715)
(-28.904 -4.04604e-19 11.8943)
(-37.1595 -3.98349e-20 11.358)
(-43.8725 7.71604e-20 10.9882)
(-49.1881 5.42193e-20 10.7044)
(-53.243 0 10.4447)
(-56.1656 0 10.1582)
(-58.0529 0 9.83044)
(-58.9905 -1.4116e-18 9.43271)
(-59.0565 -7.00569e-19 8.97114)
(-58.3106 0 8.41146)
(-56.8146 0 7.75675)
(-54.6071 -1.19284e-18 7.01152)
(-51.724 0 6.18879)
(-48.1923 0 5.31045)
(-44.0774 0 4.38023)
(-39.4511 0 3.41368)
(-34.3832 -8.45367e-21 2.402)
(-28.9668 0 1.37811)
(-23.2646 -2.81875e-21 0.362151)
(-17.3444 -2.36565e-18 -0.651595)
(-11.3293 2.26014e-21 -1.6267)
(-5.32935 0 -2.5545)
(0.585255 0 -3.44704)
(6.2303 0 -4.23819)
(11.5296 0 -4.91786)
(16.4144 0 -5.52834)
(20.6186 0 -5.95655)
(24.1604 0 -6.2589)
(26.8615 4.19966e-18 -6.42436)
(28.5317 5.22277e-18 -6.31658)
(29.2326 0 -6.05022)
(28.697 5.03502e-18 -5.51553)
(26.8752 0 -4.68941)
(23.6722 0 -3.61757)
(18.8446 -9.94818e-18 -2.16119)
(12.4201 0 -0.395671)
(4.30063 9.71425e-18 1.67964)
(-5.18385 0 3.90163)
(-15.5553 1.91988e-17 6.03824)
(-25.8822 2.16971e-20 7.84687)
(-35.0174 0 9.03684)
(-41.8114 0 9.50988)
(-45.3755 0 9.21078)
(-45.3722 1.94835e-17 8.26894)
(-42.1264 -1.88133e-17 6.87083)
(-36.3554 -1.86893e-17 5.23512)
(-29.1564 -1.85183e-17 3.61998)
(-21.853 3.75835e-17 2.35844)
(-16.3078 1.95289e-17 1.89551)
(-14.6487 0 2.63887)
(-18.7902 0 4.73942)
(-29.1331 8.57593e-21 7.92353)
(-44.7243 0 11.4397)
(-61.84 0 15.2883)
(-77.3035 -3.55223e-17 17.655)
(-90.0638 0 19.2927)
(-98.7473 0 20.1752)
(-104.164 6.79861e-17 20.5096)
(-105.388 -3.16645e-17 20.009)
(-102.635 0 18.69)
(-95.4039 0 16.6791)
(-86.8174 0 14.9181)
(-79.5797 3.23032e-17 13.997)
(-77.3874 0 14.4372)
(-80.5882 3.98762e-17 15.9042)
(-89.502 -1.8079e-17 18.3579)
(-102.02 0 21.2674)
(-117.731 0 24.5806)
(-133.924 2.08895e-17 27.7562)
(-150.959 4.56324e-21 30.9136)
(-165.118 2.28171e-17 33.3342)
(-178.248 -4.33099e-17 35.4512)
(-186.23 4.25333e-17 36.5371)
(-192.672 4.37365e-17 37.2712)
(-192.674 3.88092e-17 36.844)
(-192.248 2.72819e-20 36.4159)
(-186.763 0 35.1462)
(-182.088 -3.45866e-17 34.0719)
(-173.832 0 32.4311)
(-167.704 0 31.2875)
(-160.139 6.65666e-17 29.8963)
(-154.557 0 28.8961)
(-148.223 0 27.7373)
(-143.689 0 27.0017)
(-139.783 -5.9766e-17 26.3197)
(-136.369 0 25.7461)
(-133.961 -5.63664e-17 25.2929)
(-130.792 0 24.773)
(-130.65 0 24.8193)
(-128.726 0 24.5243)
(-130.343 0 24.8456)
(-127.972 0 24.372)
(-129.66 -9.32238e-17 24.6896)
(-126.868 -8.75788e-17 24.1811)
(-129.827 8.53203e-17 24.7797)
(-127.646 0 24.4291)
(-132.315 0 25.3011)
(-129.733 -2.97624e-16 24.8796)
(-135.672 0 25.9151)
(-131.079 1.36677e-16 25.1476)
(-139.21 0 26.526)
(-130.163 1.23786e-16 24.9843)
(-143.6 1.185e-16 27.2183)
(-124.271 0 23.7782)
(-146.067 -1.07496e-16 27.4687)
(-111.745 0 20.1997)
(136.521 -1.54226e-19 81.813)
(132.994 -3.77086e-19 74.4452)
(129.639 2.22787e-19 67.4492)
(125.509 -2.78296e-20 60.5781)
(119.686 -3.00023e-19 53.856)
(111.805 0 47.5089)
(101.855 0 41.7474)
(90.0105 3.70348e-19 36.5711)
(76.5907 6.89285e-19 31.8278)
(62.0366 1.2737e-20 27.4492)
(46.9059 -3.70188e-19 23.5204)
(31.8217 3.86247e-19 20.1737)
(17.3347 -3.73897e-19 17.4803)
(3.85139 0 15.4006)
(-8.36191 0 13.8401)
(-19.1621 4.1161e-19 12.6853)
(-28.5044 -1.72422e-18 11.8373)
(-36.4116 -1.62282e-18 11.1859)
(-42.9328 0 10.6367)
(-48.1301 0 10.1183)
(-52.0565 0 9.60678)
(-54.7727 1.07906e-20 9.06153)
(-56.3532 1.30821e-18 8.4707)
(-56.8642 -6.29586e-19 7.78971)
(-56.369 -1.18187e-18 7.00698)
(-54.9094 2.25073e-18 6.12689)
(-52.5231 -1.11143e-18 5.16215)
(-49.2452 -1.12779e-18 4.13464)
(-45.1502 -1.09152e-18 3.04795)
(-40.3203 0 1.91913)
(-34.8396 1.0162e-18 0.741766)
(-28.8125 -9.79534e-19 -0.45191)
(-22.3236 1.07465e-18 -1.63454)
(-15.4669 2.26351e-18 -2.81314)
(-8.38248 4.47021e-18 -3.95047)
(-1.21457 0 -5.02528)
(5.9335 0 -6.0517)
(12.8549 2.30243e-18 -6.96008)
(19.4132 0 -7.72227)
(25.5061 -2.43225e-18 -8.39207)
(30.822 -2.35707e-18 -8.84171)
(35.3078 0 -9.11171)
(38.7543 -7.94685e-18 -9.20447)
(40.9064 -4.91495e-18 -8.95122)
(41.7731 0 -8.47349)
(41.0617 -4.73776e-18 -7.66178)
(38.6764 -5.34102e-18 -6.47432)
(34.5266 0 -4.97654)
(28.3786 9.35196e-18 -3.01783)
(20.3066 -4.27669e-18 -0.704471)
(10.2863 -9.14757e-18 1.92833)
(-1.23868 0 4.65864)
(-13.659 -1.89558e-20 7.18044)
(-25.8765 1.89584e-17 9.20353)
(-36.5979 0 10.397)
(-44.5303 0 10.6855)
(-48.7238 -8.70555e-18 10.0569)
(-48.8206 -9.15719e-18 8.71639)
(-45.235 1.76705e-17 6.92323)
(-38.8046 1.75683e-17 4.95835)
(-30.8345 1.74061e-17 3.14126)
(-22.8754 -1.76623e-17 1.8744)
(-17.0798 -3.67001e-17 1.67911)
(-15.8151 0 2.98653)
(-21.1201 0 5.86933)
(-33.3175 -3.30461e-17 9.891)
(-51.1606 0 14.0471)
(-70.5733 0 18.3806)
(-88.1655 3.33631e-17 20.9186)
(-102.722 0 22.5666)
(-112.726 -3.25545e-17 23.372)
(-119.031 4.60444e-20 23.5668)
(-120.547 2.97269e-17 22.8135)
(-117.751 0 21.1936)
(-110.245 0 18.9432)
(-101.696 0 17.215)
(-94.9658 3.03043e-17 16.6233)
(-94.0403 0 17.6597)
(-99.0697 -1.86847e-17 19.8073)
(-110.367 3.38792e-17 22.9812)
(-125.404 0 26.538)
(-143.822 0 30.4458)
(-162.377 0 34.0653)
(-181.747 4.22985e-21 37.5859)
(-197.424 -2.13904e-17 40.1547)
(-212.024 -4.06216e-17 42.371)
(-220.419 -3.98639e-17 43.3465)
(-227.294 4.09764e-17 43.9584)
(-226.651 0 43.24)
(-225.815 3.63871e-17 42.6048)
(-219.14 0 41.0223)
(-213.517 3.2396e-17 39.7095)
(-203.916 0 37.7945)
(-196.726 0 36.4699)
(-188.041 0 34.8877)
(-181.421 -6.02024e-17 33.7231)
(-174.213 -5.95996e-17 32.4235)
(-168.816 0 31.579)
(-164.385 5.59292e-17 30.8206)
(-160.168 -5.43099e-17 30.1279)
(-157.466 5.27405e-17 29.6257)
(-153.578 -5.05256e-17 29.0108)
(-153.582 0 29.111)
(-151.036 0 28.7245)
(-152.954 0 29.1008)
(-149.755 0 28.4654)
(-151.791 8.71722e-17 28.8482)
(-148.109 -1.62504e-20 28.1881)
(-151.771 -1.59531e-16 28.9313)
(-148.681 0 28.4372)
(-154.443 0 29.5035)
(-150.708 1.39091e-16 28.8916)
(-158.007 0 30.1422)
(-151.85 -1.27725e-16 29.122)
(-161.684 0 30.7484)
(-150.402 -2.3131e-16 28.8639)
(-166.234 0 31.414)
(-143.754 0 27.4756)
(-168.183 1.00418e-16 31.5137)
(-131.249 0 23.4634)
(130.326 0 84.7083)
(127.338 1.87808e-19 78.1393)
(124.576 0 71.7161)
(121.427 2.7359e-19 65.4359)
(117.364 5.77593e-19 59.3466)
(112.138 0 53.564)
(105.638 -2.33141e-19 48.2164)
(97.7976 0 43.2838)
(88.5876 5.66475e-21 38.5972)
(78.0347 6.20319e-19 34.0294)
(66.2796 0 29.6523)
(53.6419 0 25.648)
(40.5646 3.51718e-19 22.1506)
(27.505 0 19.2119)
(14.8656 0 16.8181)
(2.95833 0 14.9053)
(-8.00008 8.45441e-19 13.3907)
(-17.8711 7.8502e-19 12.1658)
(-26.5569 7.19157e-19 11.1281)
(-33.9889 0 10.1997)
(-40.1161 0 9.3524)
(-44.9206 6.09466e-19 8.53816)
(-48.4276 -6.09974e-19 7.72438)
(-50.6766 5.92159e-19 6.85278)
(-51.7078 1.1116e-18 5.89212)
(-51.5453 -2.13214e-18 4.84089)
(-50.2094 -1.67563e-20 3.71022)
(-47.7276 1.06069e-18 2.51887)
(-44.1702 1.02657e-18 1.26881)
(-39.6178 0 -0.0239304)
(-34.1591 0 -1.36416)
(-27.9026 9.21186e-19 -2.72247)
(-20.9461 0 -4.06581)
(-13.407 -2.12858e-18 -5.40136)
(-5.43982 -2.10342e-18 -6.69292)
(2.78242 2.29854e-18 -7.90743)
(11.1181 0 -9.05997)
(19.342 -2.16492e-18 -10.0791)
(27.255 -2.53092e-18 -10.9187)
(34.7102 -5.9916e-21 -11.6385)
(41.3501 4.40691e-18 -12.1007)
(47.0338 0 -12.3259)
(51.509 3.75522e-18 -12.3262)
(54.4473 0 -11.907)
(55.7803 0 -11.188)
(55.1806 0 -10.065)
(52.4901 3.63573e-20 -8.47917)
(47.614 0 -6.51403)
(40.329 -4.39318e-18 -4.01756)
(30.7567 8.0677e-18 -1.12767)
(18.95 8.59611e-18 2.07576)
(5.46301 0 5.30855)
(-8.97435 -8.45792e-18 8.18977)
(-23.1134 -1.77599e-17 10.3826)
(-35.5347 0 11.5251)
(-44.8069 0 11.5724)
(-49.9131 8.17757e-18 10.5685)
(-50.4456 8.59383e-18 8.80302)
(-46.8747 -8.29445e-18 6.6135)
(-40.1239 -1.64599e-17 4.34581)
(-31.6803 0 2.37949)
(-23.2884 0 1.18527)
(-17.352 8.00825e-21 1.35028)
(-16.4304 -1.69125e-17 3.30968)
(-22.6653 0 7.03098)
(-36.3135 1.55144e-17 11.8893)
(-55.9052 0 16.6274)
(-77.1494 0 21.3495)
(-96.5644 0 23.9569)
(-112.784 0 25.531)
(-124.163 -3.47354e-20 26.2102)
(-131.558 5.52037e-20 26.244)
(-133.708 -2.79646e-17 25.2491)
(-131.32 0 23.3757)
(-124.058 -2.19459e-17 20.9735)
(-116.046 0 19.3984)
(-110.234 -2.84163e-17 19.2647)
(-110.85 2.22983e-17 21.0117)
(-117.839 -1.74067e-17 23.915)
(-131.532 -1.58612e-17 27.8427)
(-148.977 0 32.0376)
(-169.946 1.75776e-17 36.5047)
(-190.627 0 40.5058)
(-212.14 -2.01071e-17 44.3213)
(-229.106 -2.0039e-17 46.9583)
(-245.046 3.80543e-17 49.208)
(-253.73 0 50.01)
(-261.003 -7.67459e-17 50.4546)
(-259.719 0 49.4153)
(-258.492 3.4012e-17 48.5563)
(-250.718 0 46.6627)
(-244.159 3.03376e-17 45.1073)
(-233.332 0 42.9389)
(-225.045 5.98629e-17 41.4342)
(-215.352 -5.83532e-17 39.6863)
(-207.615 5.63372e-17 38.3504)
(-199.615 5.57673e-17 36.9314)
(-193.233 0 35.9669)
(-188.341 -1.04643e-16 35.1473)
(-183.169 1.01596e-16 34.3146)
(-180.208 0 33.7719)
(-175.411 4.72534e-17 33.037)
(-175.578 0 33.199)
(-172.242 0 32.6935)
(-174.475 -8.53887e-17 33.125)
(-170.27 0 32.2939)
(-172.614 0 32.7337)
(-167.79 7.65566e-17 31.8815)
(-172.11 1.49103e-16 32.7612)
(-167.807 7.11234e-17 32.0754)
(-174.682 0 33.3342)
(-169.473 0 32.4794)
(-178.177 0 33.9425)
(-170.157 0 32.6243)
(-181.652 1.14267e-16 34.4749)
(-168.02 1.08038e-16 32.242)
(-185.85 0 35.0133)
(-160.805 0 30.6941)
(-186.635 0 34.8514)
(-148.721 0 26.2873)
(124.725 -1.61244e-19 87.4111)
(122.168 0 81.5054)
(119.745 -2.481e-19 75.5867)
(117.101 0 69.7428)
(113.86 -2.77568e-19 64.0503)
(109.902 0 58.6105)
(105.217 2.19123e-19 53.5251)
(99.7731 -3.78074e-19 48.7868)
(93.4826 -6.31496e-19 44.2563)
(86.1977 -8.32969e-21 39.7861)
(77.8049 0 35.3624)
(68.3253 0 31.1225)
(57.9416 0 27.2137)
(46.9551 0 23.7226)
(35.6875 0 20.6866)
(24.4324 0 18.0911)
(13.4435 -8.89816e-19 15.8873)
(2.94007 7.84899e-19 13.9958)
(-6.87188 -6.75771e-19 12.3368)
(-15.8014 0 10.8469)
(-23.6789 0 9.50672)
(-30.3754 -5.66674e-19 8.27589)
(-35.8232 -5.70584e-19 7.10984)
(-39.9936 -5.58084e-19 5.93975)
(-42.8697 0 4.71515)
(-44.4273 1.00692e-18 3.42402)
(-44.6413 2.01563e-18 2.07453)
(-43.5033 -1.02575e-18 0.680456)
(-41.0555 0 -0.759823)
(-37.3551 0 -2.23364)
(-32.4752 0 -3.74548)
(-26.513 -8.95152e-19 -5.27121)
(-19.5619 0 -6.77432)
(-11.7509 0 -8.26154)
(-3.24053 -1.99964e-18 -9.7007)
(5.77927 -2.15927e-18 -11.0487)
(15.13 0 -12.321)
(24.576 -2.0286e-18 -13.4466)
(33.8615 4.72053e-18 -14.3615)
(42.7883 2.15365e-18 -15.1266)
(50.9563 -2.0578e-18 -15.5984)
(58.124 0 -15.775)
(63.9848 0 -15.6738)
(68.1279 0 -15.0816)
(70.3825 -4.37681e-18 -14.1079)
(70.3707 0 -12.6578)
(67.8478 4.68001e-18 -10.6577)
(62.6956 3.95997e-18 -8.20721)
(54.6879 0 -5.16238)
(43.9814 -3.8013e-18 -1.69213)
(30.695 0 2.07292)
(15.4776 0 5.78539)
(-0.842617 -7.90206e-18 8.99127)
(-16.8897 2.86776e-20 11.3091)
(-31.1392 7.43727e-18 12.3548)
(-42.0225 0 12.1197)
(-48.4387 0 10.7133)
(-49.884 -8.06525e-18 8.51536)
(-46.8313 0 5.94534)
(-40.2355 1.54455e-17 3.41542)
(-31.7196 0 1.36111)
(-23.1698 0 0.316464)
(-17.1864 3.22974e-17 0.920635)
(-16.4701 3.17138e-17 3.59416)
(-23.2601 1.54216e-17 8.17645)
(-37.7823 0 13.8362)
(-58.4511 0 19.0867)
(-80.9198 1.48969e-17 24.0627)
(-101.737 2.94156e-17 26.6351)
(-119.429 0 28.0546)
(-132.26 2.8671e-17 28.5731)
(-141.037 -2.81799e-17 28.4474)
(-144.287 2.62149e-17 27.2483)
(-142.857 -2.45558e-17 25.186)
(-136.385 2.05693e-17 22.7214)
(-129.365 0 21.4063)
(-124.788 0 21.8373)
(-127.115 -2.08939e-17 24.3853)
(-136.095 3.25461e-17 28.0979)
(-152.128 0 32.7967)
(-171.826 0 37.6098)
(-195.188 -1.64644e-17 42.5972)
(-217.785 0 46.9201)
(-241.313 0 50.9721)
(-259.421 1.87646e-17 53.6111)
(-276.666 3.56599e-17 55.8448)
(-285.628 0 56.4292)
(-293.357 3.59173e-17 56.6774)
(-291.533 0 55.3028)
(-289.972 -3.18338e-17 54.2103)
(-281.265 3.07682e-17 52.0185)
(-273.779 -2.83894e-17 50.2154)
(-261.87 -2.91888e-17 47.8178)
(-252.416 -9.32138e-23 46.1272)
(-241.84 5.45906e-17 44.2405)
(-232.865 0 42.719)
(-224.144 -5.21827e-17 41.1997)
(-216.601 5.15622e-17 40.0948)
(-211.311 4.89294e-17 39.2294)
(-204.989 -9.49847e-17 38.2275)
(-201.787 0 37.6497)
(-195.82 4.41773e-17 36.7573)
(-196.142 0 36.9855)
(-191.822 0 36.329)
(-194.387 7.98144e-17 36.8164)
(-188.995 0 35.7537)
(-191.576 0 36.2357)
(-185.316 -7.15824e-17 35.1431)
(-190.202 -2.20079e-21 36.142)
(-184.336 -4.57805e-21 35.2098)
(-192.317 -6.47667e-17 36.6533)
(-185.302 0 35.5027)
(-195.426 1.18378e-16 37.1691)
(-185.287 1.11446e-16 35.5146)
(-198.319 -1.06734e-16 37.5511)
(-182.36 -1.00888e-16 34.9855)
(-201.576 0 37.8532)
(-174.81 -9.20101e-17 33.305)
(-200.604 0 37.3326)
(-163.297 0 28.5296)
(119.106 1.51372e-19 90.1566)
(116.908 -2.0056e-19 84.6819)
(114.89 -1.09631e-20 79.1855)
(112.693 -2.67837e-19 73.7227)
(109.981 0 68.344)
(106.715 2.50847e-19 63.1429)
(102.958 -2.18544e-19 58.2098)
(98.76 -1.14059e-20 53.5629)