/*--------------------------------*- C++ -*----------------------------------*\
| =========                 |                                                 |
| \\      /  F ield         | OpenFOAM: The Open Source CFD Toolbox           |
|  \\    /   O peration     | Version:  2412                                  |
|   \\  /    A nd           | Website:  www.openfoam.com                      |
|    \\/     M anipulation  |                                                 |
\*---------------------------------------------------------------------------*/
FoamFile
{
    version     2.0;
    format      ascii;
    arch        "LSB;label=32;scalar=64";
    class       volVectorField;
    location    "0.7";
    object      U;
}
// * * * * * * * * * * * * * * * * * * * * * * * * * * * * * * * * * * * * * //

dimensions      [0 1 -1 0 0 0 0];

internalField   nonuniform List<vector> 
12600
(
(18.7127 1.21952e-21 2.08696)
(11.6078 1.60619e-20 0.448715)
(7.34736 1.88989e-20 -0.478202)
(5.0892 0 -0.709174)
(3.97772 1.70961e-20 -0.68232)
(3.33768 1.59264e-20 -0.607717)
(2.8968 0 -0.540107)
(2.56578 0 -0.484742)
(2.30626 -4.79212e-20 -0.439338)
(2.09617 0 -0.40163)
(1.92181 2.01121e-20 -0.36978)
(1.77427 1.84213e-20 -0.342463)
(1.64743 -1.68811e-20 -0.318734)
(1.53697 0 -0.297896)
(1.4397 -1.41579e-20 -0.279428)
(1.35324 0 -0.262927)
(1.27577 4.76067e-20 -0.248078)
(1.20585 0 -0.234632)
(1.14236 -1.99398e-20 -0.222387)
(1.08438 -1.82441e-20 -0.211181)
(1.03119 1.66616e-20 -0.200878)
(0.982156 5.57707e-24 -0.191368)
(0.936786 0 -0.182556)
(0.894651 -2.51731e-20 -0.174363)
(0.855392 0 -0.166723)
(0.818703 0 -0.159578)
(0.78432 -1.86984e-20 -0.152877)
(0.752015 0 -0.146579)
(0.721592 3.90071e-24 -0.140645)
(0.692877 1.35469e-20 -0.135042)
(0.665718 1.20742e-20 -0.129742)
(0.639983 1.07097e-20 -0.124719)
(0.615551 -9.4459e-21 -0.11995)
(0.592318 -1.65516e-20 -0.115414)
(0.570188 -1.4386e-20 -0.111094)
(0.549078 1.23723e-20 -0.106972)
(0.52891 0 -0.103035)
(0.509616 -8.82058e-21 -0.099269)
(0.491133 0 -0.0956616)
(0.473405 5.78546e-21 -0.0922017)
(0.456379 0 -0.0888795)
(0.440008 1.72804e-23 -0.0856856)
(0.424249 0 -0.0826116)
(0.409061 1.57412e-23 -0.0796496)
(0.394408 1.3652e-22 -0.0767927)
(0.380256 1.59765e-21 -0.0740338)
(0.366573 -3.20923e-21 -0.0713671)
(0.353329 0 -0.0687866)
(0.340498 0 -0.0662873)
(0.328054 -7.19264e-21 -0.0638638)
(0.315974 -1.65608e-20 -0.0615121)
(0.304234 -1.85226e-20 -0.059227)
(0.292817 1.92263e-23 -0.0570054)
(0.281698 -2.18444e-20 -0.0548424)
(0.270865 0 -0.0527357)
(0.260294 2.45093e-20 -0.0506804)
(0.249977 2.56019e-20 -0.0486751)
(0.239888 2.65399e-20 -0.0467148)
(0.230025 0 -0.044799)
(0.220362 0 -0.0429223)
(0.210901 0 -0.0410854)
(0.201611 -5.82939e-20 -0.0392824)
(0.192504 0 -0.0375152)
(0.183543 0 -0.0357769)
(0.17475 1.20124e-19 -0.0340715)
(0.166079 0 -0.0323902)
(0.157563 0 -0.0307395)
(0.149149 0 -0.0291088)
(0.140883 -1.2055e-19 -0.0275071)
(0.132699 1.20031e-19 -0.0259216)
(0.124661 1.19302e-19 -0.0243646)
(0.116686 2.33353e-23 -0.0228203)
(0.10886 -1.1726e-19 -0.021305)
(0.101083 0 -0.0197991)
(0.0934634 1.14541e-19 -0.0183241)
(0.0858786 0 -0.016856)
(0.0784687 0 -0.0154216)
(0.0710833 0 -0.0139922)
(0.0638957 2.8887e-23 -0.012601)
(0.0567261 2.10876e-19 -0.0112134)
(0.0497836 2.0662e-19 -0.00986951)
(0.0428565 -2.02156e-19 -0.00852871)
(0.0361915 -1.97596e-19 -0.00723836)
(0.029542 0 -0.00595104)
(0.0231947 0 -0.00472189)
(0.0168618 3.66367e-19 -0.00349558)
(0.0108773 -7.12796e-19 -0.00233628)
(0.00489747 6.92532e-19 -0.00117798)
(-0.000676871 3.36103e-19 -9.75581e-05)
(-0.00628018 0 0.000987378)
(-0.0113984 -6.3099e-19 0.00198053)
(-0.0166263 3.0514e-19 0.00299315)
(-0.0212524 -2.94837e-19 0.00389057)
(-0.0261477 5.69084e-19 0.00483869)
(-0.0302667 0 0.0056384)
(-0.0348792 0 0.00653068)
(-0.0386111 0 0.0072559)
(-0.0428274 0 0.00806979)
(-0.0467835 0 0.0088371)
(-0.0502361 0 0.00950334)
(-0.0541154 -4.32072e-19 0.0102536)
(-0.0586624 -8.26948e-19 0.0111247)
(-0.0662504 -7.92405e-19 0.0125489)
(-0.0504013 0 0.00960684)
(-0.0969048 0 0.0184442)
(-0.0787373 0 0.0145114)
(-0.0165025 -6.72245e-19 0.00354087)
(-0.158154 -1.20407e-18 0.0302216)
(-0.108755 6.29535e-19 0.0196345)
(0.0421493 0 -0.00723481)
(-0.251259 -9.95146e-19 0.0491016)
(-0.354786 0 0.0660639)
(-0.00307037 -1.1616e-18 -0.00113717)
(0.0641384 1.0125e-18 -0.0106756)
(-0.313981 -8.82827e-19 0.0606767)
(-0.376957 -9.36203e-19 0.070989)
(-0.211202 9.76047e-19 0.0385275)
(-0.0155845 -1.5238e-22 0.00147323)
(0.119299 9.43365e-19 -0.0236086)
(0.175957 0 -0.0337737)
(29.1128 -1.2311e-21 4.01452)
(25.0787 0 1.85165)
(20.2264 -1.91278e-20 -0.216664)
(16.0681 0 -1.21333)
(13.1142 -1.73233e-20 -1.50829)
(11.075 -3.04288e-20 -1.51926)
(9.60509 -1.40897e-20 -1.44174)
(8.49462 0 -1.34431)
(7.62286 3.56065e-22 -1.24909)
(6.91714 -2.19285e-20 -1.16214)
(6.3319 2.01405e-20 -1.08417)
(5.83717 1.8496e-20 -1.01443)
(5.41237 -1.69837e-20 -0.951941)
(5.04287 1.55919e-20 -0.895717)
(4.71794 2.86765e-20 -0.844905)
(4.4295 0 -0.798771)
(4.17138 -6.50617e-23 -0.756698)
(3.93876 2.20571e-20 -0.718166)
(3.7278 2.02299e-20 -0.682737)
(3.53542 0 -0.65004)
(3.35912 0 -0.619761)
(3.19684 1.54081e-20 -0.591631)
(3.04687 0 -0.56542)
(2.90776 1.27609e-20 -0.54093)
(2.7783 -2.31561e-20 -0.51799)
(2.65746 0 -0.496449)
(2.54435 1.89513e-20 -0.476178)
(2.43819 0 -0.457062)
(2.33833 -1.5332e-20 -0.439)
(2.24417 -2.74443e-20 -0.421901)
(2.15522 -2.44563e-20 -0.405687)
(2.07102 -1.08402e-20 -0.390286)
(1.99116 9.55833e-21 -0.375635)
(1.9153 3.3505e-20 -0.361677)
(1.84312 2.91147e-20 -0.34836)
(1.77434 0 -0.335637)
(1.70868 0 -0.323466)
(1.64594 -1.70126e-23 -0.311809)
(1.58589 0 -0.300631)
(1.52835 -5.84066e-21 -0.289899)
(1.47314 0 -0.279584)
(1.4201 -6.47374e-21 -0.269659)
(1.36909 0 -0.260099)
(1.31998 -2.07881e-21 -0.250881)
(1.27264 0 -0.241984)
(1.22696 -1.60873e-21 -0.233388)
(1.18283 0 -0.225075)
(1.14016 0 -0.217026)
(1.09886 5.99006e-21 -0.209228)
(1.05884 0 -0.201663)
(1.02002 0 -0.19432)
(0.982328 0 -0.187183)
(0.945703 2.03304e-20 -0.180242)
(0.910067 4.37697e-20 -0.173484)
(0.875376 0 -0.1669)
(0.841552 0 -0.160475)
(0.808566 -2.55773e-20 -0.154207)
(0.776339 -2.65386e-20 -0.148078)
(0.744859 0 -0.142088)
(0.714038 0 -0.13622)
(0.683885 0 -0.130476)
(0.654302 0 -0.124838)
(0.62532 -5.87895e-20 -0.119312)
(0.596825 5.93312e-20 -0.113876)
(0.568877 -1.19439e-19 -0.108544)
(0.54134 0 -0.103286)
(0.51431 0 -0.0981253)
(0.487621 0 -0.0930262)
(0.461411 4.69428e-23 -0.0880188)
(0.435478 -1.18883e-19 -0.0830611)
(0.410013 -1.18054e-19 -0.0781937)
(0.384766 2.34006e-19 -0.0733645)
(0.359994 3.57024e-23 -0.0686277)
(0.335385 -1.14403e-19 -0.0639187)
(0.311278 -1.12911e-19 -0.0593077)
(0.28729 0 -0.054716)
(0.26385 0 -0.0502318)
(0.240496 0 -0.0457604)
(0.217759 2.11033e-19 -0.0414101)
(0.195084 0 -0.0370681)
(0.173115 0 -0.0328648)
(0.151197 1.97854e-19 -0.0286674)
(0.130092 1.93185e-19 -0.0246299)
(0.109038 0 -0.0205978)
(0.08892 0 -0.0167496)
(0.0688488 0 -0.0129061)
(0.049857 6.93786e-19 -0.00927387)
(0.0308855 -4.57652e-23 -0.0056415)
(0.0131677 3.26393e-19 -0.00225355)
(-0.00462239 -3.16036e-19 0.00115366)
(-0.0209226 6.11489e-19 0.00426811)
(-0.0375224 2.95361e-19 0.00744818)
(-0.0522891 5.70226e-19 0.0102689)
(-0.0678099 0 0.0132449)
(-0.0809928 0 0.0157594)
(-0.0955756 0 0.0185631)
(-0.107519 0 0.0208332)
(-0.120841 4.69925e-19 0.0234106)
(-0.133324 0 0.0257765)
(-0.14419 0 0.0278795)
(-0.156625 -4.14279e-19 0.0302611)
(-0.170574 3.96084e-19 0.03302)
(-0.191659 1.51662e-18 0.0367497)
(-0.151168 -7.29564e-19 0.0294434)
(-0.283682 0 0.0552581)
(-0.221003 0 0.040627)
(-0.0663967 0 0.0141587)
(-0.465615 5.73449e-19 0.0915414)
(-0.295904 -5.99131e-19 0.0524757)
(0.0835959 0 -0.0135617)
(-0.763676 1.89104e-18 0.15438)
(-0.971096 1.01431e-18 0.182081)
(0.0196837 2.20346e-18 -0.012081)
(0.125935 0 -0.0185441)
(-0.942021 0 0.188639)
(-1.04344 -8.85348e-19 0.198847)
(-0.555364 0 0.100367)
(0.0126094 -9.20753e-19 -0.00807697)
(0.385094 -8.90937e-19 -0.0773868)
(0.5399 0 -0.104457)
(31.8561 0 3.88314)
(31.0456 0 2.80849)
(28.522 -1.29631e-20 1.01657)
(25.1864 0 -0.387428)
(21.9419 0 -1.22961)
(19.1752 1.51252e-20 -1.65346)
(16.9221 1.33431e-20 -1.82138)
(15.1009 0 -1.85288)
(13.6163 4.20575e-22 -1.81921)
(12.3885 2.07742e-20 -1.75679)
(11.357 -3.79525e-20 -1.6831)
(10.4776 -1.75249e-20 -1.60648)
(9.71838 1.14732e-22 -1.53092)
(9.05542 -1.47745e-20 -1.45825)
(8.47086 -1.35601e-20 -1.38928)
(7.95103 1.23903e-20 -1.32425)
(7.48527 -2.28125e-20 -1.26316)
(7.06518 -2.09022e-20 -1.20584)
(6.68405 0 -1.15208)
(6.33643 0 -1.10164)
(6.01787 1.59633e-20 -1.05426)
(5.72468 1.45686e-20 -1.00971)
(5.45379 0 -0.967771)
(5.20261 0 -0.928228)
(4.96896 2.19418e-20 -0.890892)
(4.75097 0 -0.855589)
(4.54701 -3.59077e-20 -0.82216)
(4.35572 1.61767e-20 -0.790463)
(4.17586 0 -0.760365)
(4.0064 1.30033e-20 -0.731748)
(3.84639 1.15879e-20 -0.704504)
(3.69503 0 -0.678535)
(3.55157 -9.0673e-21 -0.653751)
(3.41539 -1.58763e-20 -0.630069)
(3.28589 1.17882e-23 -0.607416)
(3.16256 0 -0.585723)
(3.04494 0 -0.564926)
(2.9326 8.4549e-21 -0.544968)
(2.82516 0 -0.525795)
(2.72227 0 -0.507358)
(2.62363 0 -0.489612)
(2.52893 0 -0.472514)
(2.43792 0 -0.456025)
(2.35035 0 -0.440108)
(2.266 0 -0.424731)
(2.18466 1.48022e-21 -0.409859)
(2.10615 -3.00345e-21 -0.395466)
(2.03027 0 -0.381521)
(1.95689 -5.66716e-21 -0.368001)
(1.88582 0 -0.354879)
(1.81694 0 -0.342134)
(1.7501 1.75042e-20 -0.329742)
(1.6852 0 -0.317687)
(1.6221 -2.06791e-20 -0.305942)
(1.56071 2.19733e-20 -0.294499)
(1.50089 0 -0.28333)
(1.4426 2.41761e-20 -0.27243)
(1.38568 0 -0.261771)
(1.33011 0 -0.251352)
(1.27575 0 -0.241144)
(1.2226 5.39488e-20 -0.231152)
(1.17048 5.48145e-20 -0.221342)
(1.11945 2.8106e-23 -0.211729)
(1.0693 -1.12024e-19 -0.202271)
(1.02015 2.46633e-23 -0.192993)
(0.971743 0 -0.183846)
(0.924248 0 -0.174867)
(0.877379 -1.13049e-19 -0.165995)
(0.831367 3.7783e-23 -0.157284)
(0.785864 0 -0.148658)
(0.741194 0 -0.140191)
(0.696925 -1.10318e-19 -0.131789)
(0.653494 2.87133e-23 -0.123549)
(0.610369 2.67755e-23 -0.115356)
(0.568121 0 -0.107334)
(0.526098 0 -0.0993435)
(0.485028 -2.06135e-19 -0.0915409)
(0.444119 2.0249e-19 -0.0837581)
(0.404278 0 -0.0761865)
(0.364554 0 -0.068626)
(0.326047 0 -0.0613071)
(0.287635 0 -0.0539948)
(0.250624 0 -0.0469604)
(0.2137 0 -0.0399312)
(0.178393 0 -0.0332216)
(0.143166 0 -0.0265158)
(0.1098 -6.52252e-19 -0.0201766)
(0.0764735 -3.16465e-19 -0.0138339)
(0.0453061 -3.06767e-19 -0.00791419)
(0.0140328 2.96972e-19 -0.00196309)
(-0.0146841 -5.74423e-19 0.00349274)
(-0.04387 -2.77431e-19 0.00904811)
(-0.0699323 -2.67736e-19 0.0139928)
(-0.0971921 0 0.0191919)
(-0.120504 0 0.0236057)
(-0.14606 0 0.0285027)
(-0.167171 0 0.0324762)
(-0.190505 -4.40868e-19 0.0370024)
(-0.212317 0 0.0410785)
(-0.231312 0 0.0447631)
(-0.253272 3.88439e-19 0.0489771)
(-0.277022 0 0.0537646)
(-0.31055 -7.10718e-19 0.0591725)
(-0.251726 6.83685e-19 0.0497907)
(-0.463639 0 0.0908104)
(-0.35041 0 0.0614848)
(-0.132493 0 0.0305331)
(-0.763821 5.36913e-19 0.152162)
(-0.457577 0 0.074223)
(0.0828582 -5.26157e-19 -0.00598395)
(-1.2805 2.24501e-23 0.26814)
(-1.49967 -9.4929e-19 0.269648)
(0.0619587 -2.0615e-18 -0.0361445)
(0.126109 0 -0.00403828)
(-1.56263 7.82222e-19 0.32262)
(-1.61958 8.28136e-19 0.301266)
(-0.823104 8.62505e-19 0.135827)
(0.101608 0 -0.038303)
(0.681604 8.33057e-19 -0.141214)
(0.922165 0 -0.179183)
(32.3798 0 2.94028)
(32.947 0 2.7561)
(32.3963 1.22545e-20 1.71382)
(30.7574 0 0.514513)
(28.5092 -1.23081e-20 -0.489123)
(26.098 2.5042e-20 -1.211)
(23.7833 0 -1.67341)
(21.6808 -2.18744e-20 -1.93721)
(19.8243 2.09793e-20 -2.06626)
(18.2042 1.89801e-20 -2.11052)
(16.793 1.78443e-20 -2.10376)
(15.5598 -1.62257e-20 -2.06721)
(14.476 1.51108e-20 -2.01382)
(13.5175 -2.75604e-20 -1.95139)
(12.6643 0 -1.88465)
(11.9 -2.33737e-20 -1.81646)
(11.2114 0 -1.74858)
(10.5878 0 -1.68206)
(10.02 0 -1.61749)
(9.50085 1.64773e-20 -1.55523)
(9.02412 -3.44332e-23 -1.49545)
(8.58468 -2.62344e-23 -1.43818)
(8.17818 1.25367e-20 -1.38342)
(7.80092 0 -1.3311)
(7.44975 0 -1.28115)
(7.12195 0 -1.23344)
(6.81517 3.39453e-20 -1.18789)
(6.52738 -6.27916e-24 -1.14436)
(6.25679 0 -1.10276)
(6.00184 0 -1.06298)
(5.76115 0 -1.02491)
(5.53349 0 -0.988449)
(5.31779 1.71508e-20 -0.95351)
(5.11307 0 -0.920001)
(4.91847 -1.30551e-20 -0.88784)
(4.73322 0 -0.856948)
(4.5566 0 -0.827253)
(4.388 -8.01557e-21 -0.798685)
(4.22682 0 -0.77118)
(4.07254 0 -0.744678)
(3.9247 4.04887e-21 -0.719123)
(3.78286 -5.86201e-21 -0.69446)
(3.6466 0 -0.67064)
(3.51557 -1.92416e-21 -0.647616)
(3.38944 0 -0.625345)
(3.26787 -2.77756e-21 -0.603783)
(3.15059 1.85756e-23 -0.582894)
(3.03732 0 -0.562638)
(2.92783 0 -0.542983)
(2.82186 6.39903e-21 -0.523892)
(2.71923 1.47464e-20 -0.50534)
(2.61969 -3.30281e-20 -0.48729)
(2.5231 0 -0.469722)
(2.42923 -1.94732e-20 -0.4526)
(2.33798 -2.0742e-20 -0.43591)
(2.24911 -2.18146e-20 -0.419615)
(2.16256 -2.2775e-20 -0.403707)
(2.07811 0 -0.388148)
(1.99571 0 -0.372936)
(1.91515 -4.98519e-20 -0.35803)
(1.83641 -1.01745e-19 -0.343437)
(1.75926 -5.16994e-20 -0.329109)
(1.68376 3.01705e-23 -0.315066)
(1.60962 5.28025e-20 -0.30125)
(1.53697 5.31207e-20 -0.287696)
(1.46547 0 -0.274332)
(1.39534 0 -0.261213)
(1.32617 1.06535e-19 -0.248252)
(1.25829 2.12287e-19 -0.235524)
(1.19119 0 -0.222922)
(1.12534 1.0478e-19 -0.21055)
(1.06011 1.03835e-19 -0.198274)
(0.996119 1.02767e-19 -0.186232)
(0.932604 2.02992e-19 -0.17426)
(0.870381 0 -0.162537)
(0.808507 0 -0.150859)
(0.748029 1.93978e-19 -0.139454)
(0.687802 -3.80986e-19 -0.128077)
(0.62913 -1.86844e-19 -0.117006)
(0.570638 0 -0.105949)
(0.513914 0 -0.0952429)
(0.45733 0 -0.0845437)
(0.402779 0 -0.0742475)
(0.348353 0 -0.0639559)
(0.29627 0 -0.0541276)
(0.244301 -3.15296e-19 -0.0443019)
(0.195031 4.3957e-23 -0.0350078)
(0.145821 2.97144e-19 -0.0257065)
(0.0997389 0 -0.0170174)
(0.0535238 2.78747e-19 -0.00828822)
(0.0110027 2.69585e-19 -0.00026407)
(-0.0321398 0 0.00788743)
(-0.0707955 -2.51178e-19 0.0151672)
(-0.111055 -4.84082e-19 0.0227926)
(-0.14569 0 0.0293013)
(-0.183357 0 0.0364777)
(-0.214703 0 0.0423261)
(-0.249073 -4.13257e-19 0.0489829)
(-0.281087 0 0.054896)
(-0.309054 0 0.0603158)
(-0.341555 3.63936e-19 0.0665572)
(-0.375468 -3.47809e-19 0.0734572)
(-0.420783 0 0.0800664)
(-0.349736 0 0.0704359)
(-0.633275 0 0.124997)
(-0.466 0 0.0787429)
(-0.213024 0 0.0513704)
(-1.04652 -6.98499e-23 0.211236)
(-0.594425 0 0.0885321)
(0.0401787 4.92361e-19 0.0128172)
(-1.78704 -8.28135e-19 0.386062)
(-1.93306 0 0.335161)
(0.11481 1.50736e-22 -0.0671924)
(0.0688249 0 0.0272391)
(-2.15627 -6.23171e-23 0.4575)
(-2.08741 0 0.381416)
(-1.00745 -8.06414e-19 0.150387)
(0.254759 0 -0.0852287)
(1.00927 7.78627e-19 -0.213519)
(1.32366 0 -0.258297)
(32.4842 0 2.08753)
(33.2424 0 2.21451)
(33.5902 0 1.74096)
(33.228 0 0.948463)
(32.2084 1.1618e-20 0.10805)
(30.7382 -8.99422e-22 -0.639927)
(29.0228 0 -1.2401)
(27.2205 2.06464e-20 -1.6833)
(25.4408 0 -1.98666)
(23.7498 -3.53297e-20 -2.17837)
(22.1796 0 -2.28696)
(20.7405 1.53182e-20 -2.33638)
(19.43 0 -2.3449)
(18.2393 2.60214e-20 -2.32576)
(17.1574 -1.18587e-20 -2.28823)
(16.1727 2.19234e-20 -2.23877)
(15.2743 -2.00812e-20 -2.1818)
(14.4524 -1.84434e-20 -2.12039)
(13.6982 0 -2.05664)
(13.004 -1.55591e-20 -1.99201)
(12.3632 -1.42252e-20 -1.92748)
(11.77 -2.59381e-20 -1.86375)
(11.2192 -1.1838e-20 -1.80125)
(10.7066 0 -1.7403)
(10.2282 0 -1.68108)
(9.78084 0 -1.6237)
(9.36145 -1.6021e-20 -1.56821)
(8.96748 -1.44391e-20 -1.51461)
(8.59666 0 -1.4629)
(8.24697 0 -1.41304)
(7.9166 1.03471e-20 -1.36497)
(7.60396 0 -1.31865)
(7.30762 1.1797e-24 -1.274)
(7.0263 -1.41935e-20 -1.23096)
(6.75883 1.23393e-20 -1.18947)
(6.50418 0 -1.14945)
(6.26141 0 -1.11084)
(6.02965 7.56526e-21 -1.07358)
(5.80814 0 -1.03759)
(5.59616 0 -1.00283)
(5.39305 -3.82076e-21 -0.969224)
(5.19824 5.53142e-21 -0.936723)
(5.01116 0 -0.905271)
(4.83132 1.81542e-21 -0.874815)
(4.65826 0 -0.845308)
(4.49153 1.30096e-21 -0.816698)
(4.33075 2.65889e-21 -0.788945)
(4.17554 0 -0.762)
(4.02558 5.00174e-21 -0.735828)
(3.88051 -6.03464e-21 -0.710383)
(3.74007 -2.77816e-20 -0.685633)
(3.60395 1.55573e-20 -0.661535)
(3.47192 -1.70112e-20 -0.638064)
(3.34368 2.50461e-23 -0.615175)
(3.21908 0 -0.592852)
(3.09781 2.05611e-20 -0.571046)
(2.97976 2.14642e-20 -0.54975)
(2.86464 -2.22267e-20 -0.528911)
(2.75238 2.28987e-20 -0.508534)
(2.64267 4.69676e-20 -0.488558)
(2.53552 4.79076e-20 -0.468999)
(2.43058 -4.86356e-20 -0.44979)
(2.32793 4.92603e-20 -0.43096)
(2.22718 0 -0.412431)
(2.12851 0 -0.394252)
(2.03145 5.01293e-20 -0.376327)
(1.9363 0 -0.358728)
(1.84249 0 -0.341339)
(1.75046 -9.98727e-20 -0.324262)
(1.65953 0 -0.307353)
(1.57031 -9.8582e-20 -0.290751)
(1.48196 -1.95327e-19 -0.274277)
(1.39531 0 -0.258116)
(1.30933 -9.54378e-20 -0.242047)
(1.22511 0 -0.226309)
(1.14137 0 -0.210632)
(1.05952 -1.82255e-19 -0.195317)
(0.97802 1.79021e-19 -0.180038)
(0.898603 3.96467e-23 -0.165166)
(0.819437 0 -0.15031)
(0.74263 0 -0.135921)
(0.666012 0 -0.121537)
(0.592103 -1.60383e-19 -0.10769)
(0.518355 1.56311e-19 -0.0938438)
(0.447729 0 -0.0806155)
(0.377246 5.91897e-19 -0.0673847)
(0.310363 2.87467e-19 -0.0548631)
(0.243555 -5.57647e-19 -0.0423275)
(0.180919 -2.70173e-19 -0.0306077)
(0.118124 -5.22958e-19 -0.0188321)
(0.0602399 0 -0.00799977)
(0.00159644 0 0.0030001)
(-0.0511089 2.3552e-19 0.012849)
(-0.105795 4.53834e-19 0.0231306)
(-0.153091 -4.3691e-19 0.031947)
(-0.204157 0 0.0416179)
(-0.246928 0 0.0495206)
(-0.293493 3.87196e-19 0.0585268)
(-0.336667 3.71545e-19 0.0663919)
(-0.374592 0 0.0737404)
(-0.418675 -3.40835e-19 0.0822064)
(-0.463112 3.25685e-19 0.0913167)
(-0.519971 0 0.0987471)
(-0.442276 0 0.0908453)
(-0.78901 0 0.156735)
(-0.567157 0 0.0916135)
(-0.304556 0 0.0767735)
(-1.30746 -4.70154e-19 0.266977)
(-0.708609 0 0.0945727)
(-0.0402075 0 0.0443855)
(-2.26767 0 0.504352)
(-2.26923 8.28752e-19 0.372591)
(0.168542 9.01371e-19 -0.103662)
(-0.0358971 0 0.076797)
(-2.70199 -6.83829e-19 0.588389)
(-2.43268 0 0.430543)
(-1.10468 -7.53152e-19 0.139104)
(0.473366 0 -0.151683)
(1.36837 -7.27656e-19 -0.294883)
(1.74578 0 -0.341917)
(32.5577 -4.98256e-21 1.47309)
(33.1414 -6.18539e-21 1.61404)
(33.6685 7.34531e-21 1.42435)
(33.8951 8.27867e-21 0.964688)
(33.7042 0 0.374004)
(33.1079 -9.92522e-21 -0.240782)
(32.1793 0 -0.813896)
(31.0093 1.74529e-20 -1.30835)
(29.6863 1.66931e-20 -1.70875)
(28.2866 3.22075e-20 -2.0155)
(26.8693 -1.48257e-20 -2.23828)
(25.4767 1.38405e-20 -2.39057)
(24.1358 0 -2.48625)
(22.8622 0 -2.53792)
(21.6631 1.11802e-20 -2.5562)
(20.5404 -1.14622e-22 -2.54959)
(19.4925 1.76233e-22 -2.52474)
(18.5159 1.36092e-22 -2.4867)
(17.606 0 -2.43932)
(16.7581 0 -2.38546)
(15.9672 0 -2.32729)
(15.2287 2.43725e-20 -2.2664)
(14.5381 1.10969e-20 -2.20399)
(13.8914 0 -2.14096)
(13.2849 0 -2.07796)
(12.7151 1.66551e-20 -2.01547)
(12.179 0 -1.95386)
(11.6738 0 -1.89336)
(11.1971 0 -1.83416)
(10.7465 0 -1.77638)
(10.3199 -6.62555e-24 -1.7201)
(9.91561 0 -1.66535)
(9.53184 -1.80847e-24 -1.61215)
(9.1671 1.33794e-20 -1.5605)
(8.81999 2.28037e-24 -1.51039)
(8.48926 0 -1.46179)
(8.17374 0 -1.41466)
(7.87238 0 -1.36896)
(7.58423 0 -1.32466)
(7.30839 0 -1.2817)
(7.04406 0 -1.24004)
(6.79047 0 -1.19962)
(6.54696 -3.42183e-21 -1.16041)
(6.31286 -1.74611e-21 -1.12235)
(6.0876 0 -1.08539)
(5.87062 1.19167e-21 -1.04948)
(5.66143 0 -1.01459)
(5.45952 0 -0.980655)
(5.26448 -9.40696e-21 -0.947647)
(5.07587 0 -0.915513)
(4.89334 1.30679e-20 -0.884221)
(4.71648 0 -0.85372)
(4.545 3.20103e-20 -0.823984)
(4.37852 2.42552e-23 -0.79496)
(4.21682 0 -0.766632)
(4.05952 0 -0.73894)
(3.90646 0 -0.71188)
(3.75727 4.18199e-20 -0.685386)
(3.61186 -4.30819e-20 -0.659466)
(3.46982 -4.41293e-20 -0.634045)
(3.33115 -4.50134e-20 -0.609147)
(3.19542 9.14849e-20 -0.584685)
(3.0627 4.62841e-20 -0.5607)
(2.93251 0 -0.537091)
(2.80505 0 -0.513923)
(2.67974 -2.40741e-23 -0.491074)
(2.55693 0 -0.468637)
(2.43591 0 -0.446464)
(2.31723 -9.38133e-20 -0.424686)
(2.20001 0 -0.403118)
(2.08502 0 -0.381939)
(1.9712 1.83497e-19 -0.360921)
(1.85958 -9.07396e-20 -0.340299)
(1.74886 0 -0.319792)
(1.6404 0 -0.299703)
(1.53259 0 -0.279688)
(1.4272 1.71165e-19 -0.260132)
(1.32227 0 -0.240617)
(1.21999 3.296e-19 -0.221617)
(1.11804 -1.61375e-19 -0.202633)
(1.01909 0 -0.184238)
(0.920371 0 -0.165844)
(0.825089 1.50501e-19 -0.14813)
(0.729994 -2.70319e-23 -0.130408)
(0.638861 1.42738e-19 -0.11347)
(0.547887 -2.77575e-19 -0.09652)
(0.461484 2.69521e-19 -0.0804701)
(0.37516 2.61442e-19 -0.0643953)
(0.294135 2.53313e-19 -0.0493551)
(0.212915 3.28865e-23 -0.0342416)
(0.137925 0 -0.0203227)
(0.0620357 -2.28744e-19 -0.0062003)
(-0.00635264 0 0.00647841)
(-0.0770816 0 0.0196722)
(-0.138538 4.09303e-19 0.0310335)
(-0.20447 0 0.0434363)
(-0.259988 0 0.0535959)
(-0.320068 0 0.0651844)
(-0.375449 -3.47882e-19 0.075136)
(-0.424486 0 0.0846323)
(-0.481213 -3.18999e-19 0.0955062)
(-0.536568 0 0.106893)
(-0.605138 0 0.114873)
(-0.525769 0 0.110422)
(-0.926898 0 0.18534)
(-0.652799 0 0.100354)
(-0.402407 -4.92269e-19 0.105878)
(-1.54017 -4.39567e-19 0.317959)
(-0.802229 4.58742e-19 0.0935786)
(-0.151286 0 0.0872332)
(-2.70641 0 0.619024)
(-2.50831 -1.54893e-18 0.383789)
(0.215106 0 -0.142626)
(-0.174711 7.35671e-19 0.141334)
(-3.17798 0 0.709767)
(-2.64206 6.74989e-19 0.448012)
(-1.11143 7.03811e-19 0.102789)
(0.758557 0 -0.23706)
(1.75971 -6.79804e-19 -0.385148)
(2.19039 0 -0.430373)
(32.6135 4.69221e-21 1.02076)
(33.0249 1.14066e-20 1.10897)
(33.4713 -6.91889e-21 1.02711)
(33.8369 -7.79025e-22 0.764867)
(34.0111 7.50088e-21 0.375652)
(33.9379 0 -0.0786287)
(33.6095 0 -0.548882)
(33.0459 -1.64344e-20 -0.999391)
(32.2825 -3.05362e-20 -1.40655)
(31.3617 -7.0779e-22 -1.75734)
(30.3268 1.39591e-20 -2.04725)
(29.2185 -1.30314e-20 -2.27761)
(28.0715 1.17903e-20 -2.45326)
(26.9141 0 -2.58076)
(25.7677 0 -2.66728)
(24.6478 -9.58494e-21 -2.71979)
(23.5648 3.50904e-20 -2.74469)
(22.5253 3.23105e-20 -2.74752)
(21.5327 0 -2.73298)
(20.5883 0 -2.70496)
(19.6919 0 -2.66662)
(18.8426 -6.749e-23 -2.62048)
(18.0384 -2.08453e-20 -2.56857)
(17.2772 9.47479e-21 -2.51251)
(16.5568 1.7232e-20 -2.45355)
(15.8747 -3.13148e-20 -2.39271)
(15.2287 1.41436e-20 -2.33076)
(14.6164 1.2759e-20 -2.26832)
(14.0356 1.14719e-20 -2.20586)
(13.4842 0 -2.14376)
(12.9603 -9.17796e-21 -2.08231)
(12.4621 8.1356e-21 -2.02171)
(11.9879 -7.1857e-21 -1.96213)
(11.5361 -1.25893e-20 -1.90369)
(11.1052 -2.1901e-20 -1.84646)
(10.6938 0 -1.79052)
(10.3008 0 -1.73588)
(9.92485 -6.73043e-21 -1.68257)
(9.56497 0 -1.63059)
(9.22013 4.42933e-21 -1.57993)
(8.8894 3.4125e-21 -1.53057)
(8.57189 0 -1.4825)
(8.26681 6.45559e-21 -1.43568)
(7.9734 1.6432e-21 -1.39009)
(7.69096 0 -1.34568)
(7.41883 -1.12132e-21 -1.30243)
(7.15641 -2.3108e-21 -1.26029)
(6.9031 0 -1.21922)
(6.65841 8.82139e-21 -1.17919)
(6.42178 -5.30552e-21 -1.14014)
(6.1928 -1.22396e-20 -1.10206)
(5.97095 0 -1.06488)
(5.7559 -2.44913e-23 -1.02859)
(5.54716 3.23977e-20 -0.993126)
(5.34445 0 -0.958472)
(5.14732 0 -0.924564)
(4.95557 -1.89387e-20 -0.891399)
(4.76872 -1.965e-20 -0.858903)
(4.58665 4.04661e-20 -0.827087)
(4.40889 4.14826e-20 -0.795865)
(4.2354 4.231e-20 -0.765267)
(4.06565 -4.29769e-20 -0.735189)
(3.89974 -8.69644e-20 -0.705686)
(3.73705 0 -0.676633)
(3.57783 0 -0.648112)
(3.42135 -8.85128e-20 -0.619973)
(3.26804 0 -0.592335)
(3.11704 0 -0.565014)
(2.96898 8.8111e-20 -0.538173)
(2.8228 0 -0.511584)
(2.67944 -8.69065e-20 -0.48547)
(2.53757 -3.22035e-23 -0.459548)
(2.39847 8.51873e-20 -0.434108)
(2.26051 0 -0.408804)
(2.12537 0 -0.384011)
(1.99107 0 -0.359302)
(1.85975 1.6053e-19 -0.335154)
(1.72903 0 -0.311048)
(1.60158 -1.5459e-19 -0.287572)
(1.47452 3.02718e-19 -0.264106)
(1.35115 0 -0.241362)
(1.22805 0 -0.218607)
(1.10916 0 -0.196685)
(0.990476 -2.6789e-23 -0.174742)
(0.876655 -1.33813e-19 -0.15376)
(0.762989 -2.60098e-19 -0.13275)
(0.654942 -2.52607e-19 -0.112846)
(0.546957 2.44929e-19 -0.0928986)
(0.445492 0 -0.0742235)
(0.343779 2.29613e-19 -0.0554506)
(0.249725 0 -0.0381463)
(0.154622 2.14256e-19 -0.0205952)
(0.068717 0 -0.00480709)
(-0.0198898 0 0.011584)
(-0.0971867 0 0.025746)
(-0.179656 -3.68232e-19 0.0411459)
(-0.249395 -3.53855e-19 0.0537757)
(-0.324497 0 0.0682105)
(-0.393233 3.2552e-19 0.0803782)
(-0.454735 -3.1158e-19 0.0922804)
(-0.525165 2.98479e-19 0.105729)
(-0.591942 -2.85119e-19 0.119479)
(-0.672778 0 0.127617)
(-0.595898 0 0.128413)
(-1.04272 0 0.209934)
(-0.721411 0 0.104822)
(-0.500501 4.60315e-19 0.137671)
(-1.73833 1.05054e-22 0.362702)
(-0.877169 -8.57655e-19 0.0862478)
(-0.282744 0 0.139904)
(-3.0877 0 0.725994)
(-2.65465 7.23541e-19 0.368466)
(0.249568 0 -0.181962)
(-0.330539 -6.87484e-19 0.217836)
(-3.56247 0 0.815839)
(-2.70677 -1.26089e-18 0.429811)
(-1.02577 0 0.0404647)
(1.1106 0 -0.341732)
(2.18471 6.35045e-19 -0.484398)
(2.65996 0 -0.524058)
(32.6392 0 0.667373)
(32.9409 -5.25019e-21 0.711664)
(33.278 0 0.66313)
(33.6088 -6.60366e-21 0.501007)
(33.8701 -1.3467e-20 0.240109)
(34.0112 0 -0.0878551)
(34.0037 6.7216e-21 -0.45148)
(33.836 0 -0.824677)
(33.5089 8.98976e-22 -1.18726)
(33.0319 -2.59012e-20 -1.52476)
(32.4209 0 -1.82787)
(31.6961 0 -2.09168)
(30.8799 -1.10894e-20 -2.31461)
(29.9944 0 -2.49739)
(29.0606 0 -2.64229)
(28.0974 0 -2.75257)
(27.1209 -1.63926e-20 -2.83202)
(26.1446 -1.51096e-20 -2.88457)
(25.1788 -1.37181e-20 -2.9141)
(24.2316 0 -2.92422)
(23.3089 0 -2.91822)
(22.4145 -1.0707e-20 -2.899)
(21.5512 9.77799e-21 -2.86906)
(20.7202 -8.9113e-21 -2.83053)
(19.9223 -1.6207e-20 -2.78524)
(19.1572 2.93353e-20 -2.73467)
(18.4246 -5.45777e-23 -2.68009)
(17.7236 -1.19998e-20 -2.62251)
(17.053 -1.07891e-20 -2.5628)
(16.4118 0 -2.50165)
(15.7987 0 -2.43962)
(15.2124 -7.65098e-21 -2.37716)
(14.6514 0 -2.31466)
(14.1147 1.18388e-20 -2.25241)
(13.6008 1.02961e-20 -2.19064)
(13.1086 -8.86292e-21 -2.12955)
(12.6369 0 -2.06928)
(12.1846 6.32847e-21 -2.00994)
(11.7506 5.20459e-21 -1.95161)
(11.3339 3.43464e-24 -1.89436)
(10.9335 -6.42123e-21 -1.83824)
(10.5485 0 -1.78325)
(10.1781 -3.04147e-21 -1.72943)
(9.8215 0 -1.67678)
(9.47786 0 -1.62528)
(9.14647 0 -1.57493)
(8.82669 1.34506e-23 -1.52571)
(8.51783 0 -1.47759)
(8.21932 -4.13855e-21 -1.43056)
(7.93053 9.95904e-21 -1.38458)
(7.65099 1.15018e-20 -1.33962)
(7.38011 0 -1.29564)
(7.11748 -1.411e-20 -1.25263)
(6.86254 -3.03946e-20 -1.21053)
(6.61497 0 -1.16933)
(6.37421 0 -1.12896)
(6.14003 1.779e-20 -1.08942)
(5.91187 1.84205e-20 -1.05064)
(5.68959 -1.89947e-20 -1.01263)
(5.4726 -3.88929e-20 -0.975291)
(5.26087 0 -0.938671)
(5.05375 0 -0.902647)
(4.85137 2.80974e-23 -0.867287)
(4.65297 -4.11427e-20 -0.832444)
(4.45886 0 -0.798222)
(4.26814 4.15317e-20 -0.76444)
(4.08133 0 -0.731245)
(3.89737 0 -0.698414)
(3.71705 0 -0.66615)
(3.53906 0 -0.634176)
(3.36453 3.40891e-23 -0.602762)
(3.19185 -3.18991e-23 -0.571566)
(3.02255 -7.98542e-20 -0.540944)
(2.85467 0 -0.510472)
(2.69022 -7.77404e-20 -0.480607)
(2.5268 0 -0.450832)
(2.36699 -1.50529e-19 -0.421724)
(2.20789 1.47733e-19 -0.392653)
(2.05273 -1.44853e-19 -0.364334)
(1.89803 -1.41868e-19 -0.336012)
(1.74775 0 -0.308551)
(1.59776 1.35475e-19 -0.28106)
(1.45282 0 -0.254565)
(1.30807 -1.28795e-19 -0.228026)
(1.16915 -1.25322e-19 -0.202638)
(1.03035 2.43661e-19 -0.177198)
(0.89831 0 -0.153085)
(0.76627 -4.58762e-19 -0.128901)
(0.642083 0 -0.106248)
(0.517552 2.14946e-19 -0.0834615)
(0.40225 0 -0.0624433)
(0.285712 2.00533e-19 -0.0411239)
(0.180236 0 -0.0219209)
(0.0716691 3.72535e-19 -0.00201732)
(-0.023347 -3.58556e-19 0.0152321)
(-0.124262 3.44592e-19 0.0339223)
(-0.209864 3.31104e-19 0.0492549)
(-0.301716 0 0.0668276)
(-0.385067 -6.09028e-19 0.0813506)
(-0.460613 5.8289e-19 0.0959546)
(-0.545798 0 0.112119)
(-0.624653 2.66655e-19 0.128332)
(-0.71854 0 0.136667)
(-0.647605 0 0.143928)
(-1.13191 -4.57333e-19 0.229669)
(-0.770667 0 0.104851)
(-0.591498 0 0.1708)
(-1.89575 3.84073e-19 0.399857)
(-0.934182 8.01411e-19 0.0732609)
(-0.421583 3.77013e-19 0.19994)
(-3.39692 0 0.821345)
(-2.71549 0 0.328494)
(0.27159 0 -0.220597)
(-0.483733 0 0.30211)
(-3.83455 5.57329e-19 0.90077)
(-2.62235 5.88726e-19 0.375115)
(-0.846344 0 -0.0477291)
(1.52932 0 -0.465528)
(2.64568 0 -0.59281)
(3.1577 0 -0.623497)
(32.6392 4.2078e-21 0.378872)
(32.8715 0 0.395711)
(33.1274 4.92506e-21 0.355943)
(33.3924 0 0.243522)
(33.6357 6.02464e-21 0.0589762)
(33.8258 0 -0.183015)
(33.9398 -6.31745e-21 -0.463325)
(33.9627 1.15913e-20 -0.764024)
(33.8853 2.36662e-20 -1.06995)
(33.703 7.27008e-22 -1.36913)
(33.4154 0 -1.65255)
(33.0258 0 -1.914)
(32.5409 0 -2.14962)
(31.9697 0 -2.35733)
(31.3234 0 -2.53639)
(30.6138 0 -2.68705)
(29.8534 1.47742e-20 -2.81035)
(29.0543 -1.36969e-20 -2.90786)
(28.2282 1.28895e-20 -2.98155)
(27.3854 0 -3.03365)
(26.5352 0 -3.06647)
(25.6853 9.85972e-21 -3.08233)
(24.8421 9.02781e-21 -3.08346)
(24.0109 8.24618e-21 -3.07198)
(23.1956 0 -3.04981)
(22.3993 -1.37484e-20 -3.01867)
(21.6241 -2.48192e-20 -2.98011)
(20.8716 1.11754e-20 -2.93547)
(20.1425 0 -2.88591)
(19.4375 0 -2.83245)
(18.7566 0 -2.77594)
(18.0997 7.15293e-21 -2.7171)
(17.4663 0 -2.65656)
(16.856 0 -2.59483)
(16.2681 9.64585e-21 -2.53236)
(15.7019 8.32588e-21 -2.46949)
(15.1566 0 -2.40655)
(14.6314 5.94012e-21 -2.34376)
(14.1255 -9.77571e-21 -2.28134)
(13.6382 -3.91494e-21 -2.21945)
(13.1684 3.01776e-21 -2.15822)
(12.7156 0 -2.09776)
(12.2788 0 -2.03816)
(11.8574 0 -1.97947)
(11.4505 2.11971e-22 -1.92174)
(11.0575 0 -1.865)
(10.6777 2.02695e-21 -1.80927)
(10.3104 2.98294e-21 -1.75456)
(9.95502 0 -1.70089)
(9.61087 -4.66931e-21 -1.64822)
(9.27746 0 -1.59657)
(8.95414 0 -1.5459)
(8.64049 -1.32021e-20 -1.49622)
(8.33587 2.12802e-23 -1.44747)
(8.03993 1.51493e-20 -1.39966)
(7.75204 0 -1.35272)
(7.47196 0 -1.30668)
(7.19902 -1.72875e-20 -1.26144)
(6.93309 0 -1.21703)
(6.67346 3.6496e-20 -1.17336)
(6.42014 0 -1.13047)
(6.17233 0 -1.08824)
(5.9302 7.64994e-20 -1.04674)
(5.69285 7.71665e-20 -1.00581)
(5.46065 3.87929e-20 -0.965581)
(5.23254 0 -0.925836)
(5.00914 0 -0.886757)
(4.78917 3.8864e-20 -0.84808)
(4.57358 7.74295e-20 -0.810051)
(4.3608 0 -0.772339)
(4.15217 7.64201e-20 -0.735273)
(3.94577 -7.56959e-20 -0.698441)
(3.74342 7.48581e-20 -0.662273)
(3.54276 -7.38801e-20 -0.626261)
(3.34619 7.28637e-20 -0.590956)
(3.15085 0 -0.555734)
(2.95979 0 -0.52129)
(2.76954 -1.38428e-19 -0.486868)