/*--------------------------------*- C++ -*----------------------------------*\
| =========                 |                                                 |
| \\      /  F ield         | OpenFOAM: The Open Source CFD Toolbox           |
|  \\    /   O peration     | Version:  2412                                  |
|   \\  /    A nd           | Website:  www.openfoam.com                      |
|    \\/     M anipulation  |                                                 |
\*---------------------------------------------------------------------------*/
FoamFile
{
    version     2.0;
    format      ascii;
    arch        "LSB;label=32;scalar=64";
    class       volScalarField;
    location    "1.025";
    object      Co;
}
// * * * * * * * * * * * * * * * * * * * * * * * * * * * * * * * * * * * * * //

dimensions      [0 0 0 0 0 0 0];

internalField   nonuniform List<scalar> 
12600
(
0.314752
0.176655
0.100045
0.0629504
0.0449765
0.0350559
0.0286565
0.0240752
0.0206009
0.0178649
0.0156501
0.0138199
0.0122828
0.010975
0.00985032
0.00887446
0.00802132
0.00727064
0.00660644
0.00601589
0.00548861
0.00501606
0.00459113
0.0042079
0.00386136
0.00354724
0.00326189
0.00300217
0.00276534
0.00254905
0.0023512
0.00216998
0.00200378
0.00185118
0.00171091
0.00158184
0.00146297
0.0013534
0.00125232
0.001159
0.00107279
0.000993081
0.000919351
0.000851105
0.000787905
0.000729344
0.000675058
0.000624711
0.000577999
0.000534639
0.00049438
0.000456983
0.000422236
0.000389939
0.000359913
0.00033199
0.000306017
0.000281852
0.000259365
0.000238438
0.000218956
0.000200823
0.000183936
0.000168219
0.000153578
0.000139956
0.000127264
0.000115462
0.000104463
9.42476e-05
8.47261e-05
7.58978e-05
6.76689e-05
6.00598e-05
5.29675e-05
4.64354e-05
4.03483e-05
3.47729e-05
2.95813e-05
2.48578e-05
2.04752e-05
1.65047e-05
1.28723e-05
9.54911e-06
6.63764e-06
3.85235e-06
2.34102e-06
2.67018e-06
3.85325e-06
6.29754e-06
6.21073e-06
9.15832e-06
8.65681e-06
9.37454e-06
1.27152e-05
1.20048e-05
1.39239e-05
1.3136e-05
1.32131e-05
1.32141e-05
1.24502e-05
2.16416e-05
2.03753e-05
1.53838e-05
1.68391e-05
1.58145e-05
3.25253e-05
3.06152e-05
1.78852e-05
2.89584e-05
3.66781e-05
4.87016e-05
3.73111e-05
1.9946e-05
2.51109e-05
2.10484e-05
6.71932e-06
2.73479e-06
4.88136e-06
7.12849e-06
0.477844
0.376471
0.276372
0.202489
0.15315
0.120554
0.0982353
0.0821347
0.0699648
0.0604299
0.052753
0.0464403
0.0411621
0.0366891
0.0328563
0.0295417
0.0266527
0.0241177
0.0218805
0.0198962
0.0181284
0.0165472
0.0151282
0.0138507
0.0126975
0.0116538
0.0107072
0.00984676
0.00906325
0.00834857
0.00769564
0.00709827
0.006551
0.00604903
0.00558807
0.00516434
0.00477445
0.00441536
0.00408436
0.00377902
0.00349714
0.00323673
0.002996
0.00277333
0.00256725
0.00237641
0.0021996
0.00203572
0.00188374
0.00174275
0.00161189
0.0014904
0.00137756
0.00127273
0.0011753
0.00108473
0.00100051
0.000922188
0.000849318
0.000781522
0.000718421
0.000659702
0.000605026
0.000554149
0.000506755
0.000462666
0.00042158
0.000383383
0.000347773
0.000314702
0.000283858
0.000255264
0.000228583
0.000203917
0.000180887
0.000159685
0.000139874
0.000121745
0.00010479
8.93935e-05
7.50144e-05
6.20149e-05
5.00555e-05
3.90446e-05
2.95261e-05
1.99676e-05
1.30092e-05
7.62982e-06
8.99882e-06
1.7068e-05
1.59509e-05
2.75746e-05
2.39449e-05
2.94128e-05
3.75917e-05
3.65463e-05
4.60437e-05
4.12105e-05
4.48907e-05
3.80143e-05
4.00079e-05
7.55836e-05
7.1988e-05
6.01084e-05
4.64522e-05
5.53869e-05
0.000118781
0.000110876
7.50037e-05
8.72735e-05
0.000128114
0.000179009
0.000123095
6.38816e-05
8.87072e-05
7.29243e-05
2.22665e-05
8.09825e-06
1.83064e-05
2.53228e-05
0.51235
0.468522
0.397229
0.325415
0.26451
0.216461
0.179587
0.151273
0.129195
0.111638
0.0974019
0.0856599
0.075832
0.067504
0.0603731
0.0542127
0.0488501
0.0441511
0.04001
0.0363422
0.0330792
0.0301649
0.0275529
0.0252045
0.0230872
0.0211733
0.0194394
0.0178652
0.0164332
0.0151284
0.0139375
0.012849
0.0118526
0.0109396
0.0101018
0.00933232
0.00862483
0.00797372
0.00737399
0.00682111
0.00631105
0.00584013
0.00540508
0.0050029
0.00463089
0.00428658
0.00396776
0.00367238
0.0033986
0.00314471
0.00290919
0.00269061
0.00248769
0.00229923
0.00212414
0.00196144
0.0018102
0.00166957
0.00153878
0.00141713
0.00130393
0.00119862
0.00110057
0.00100935
0.000924374
0.000845341
0.000771685
0.000703216
0.000639368
0.000580079
0.000524755
0.000473471
0.000425577
0.000381303
0.000339907
0.00030181
0.000266117
0.0002335
0.000202842
0.000175099
0.000148968
0.000125461
0.000103662
8.3478e-05
6.63691e-05
4.80908e-05
3.62247e-05
2.025e-05
1.58959e-05
2.7271e-05
2.34928e-05
4.81817e-05
3.76863e-05
5.34712e-05
6.29874e-05
6.31661e-05
8.70112e-05
7.46083e-05
8.67579e-05
6.47355e-05
7.21856e-05
0.000149884
0.000146117
0.0001296
7.945e-05
0.000111058
0.000247171
0.000231138
0.000170865
0.000146082
0.000262206
0.000378139
0.00024026
0.000124612
0.000186395
0.00014866
4.30354e-05
1.49426e-05
3.92148e-05
5.02228e-05
0.504296
0.491016
0.453095
0.402701
0.350304
0.301618
0.259101
0.223191
0.193293
0.168463
0.147759
0.130369
0.115639
0.103057
0.0922256
0.0828344
0.0746395
0.0674473
0.0611027
0.0554801
0.0504769
0.0460084
0.0420042
0.0384052
0.0351617
0.0322312
0.0295777
0.0271699
0.0249809
0.0229875
0.0211693
0.0195084
0.0179891
0.0165976
0.0153217
0.0141504
0.0130741
0.0120842
0.0111729
0.0103332
0.00955898
0.00884455
0.00818487
0.00757532
0.00701176
0.00649042
0.00600789
0.00556102
0.00514701
0.00476324
0.00440736
0.00407721
0.00377081
0.00348635
0.00322217
0.00297675
0.00274868
0.00253668
0.00233956
0.00215625
0.00198571
0.00182709
0.00167943
0.00154207
0.00141414
0.00129516
0.00118427
0.0010812
0.000985067
0.000895799
0.000812475
0.000735228
0.000663045
0.000596309
0.000533845
0.000476361
0.000422394
0.000373119
0.000326611
0.000284642
0.000244812
0.000209158
0.000175813
0.000144857
0.000118979
8.99637e-05
7.28427e-05
4.66215e-05
3.01251e-05
3.56899e-05
2.83726e-05
6.96426e-05
4.84936e-05
8.10409e-05
8.70089e-05
8.94106e-05
0.00013489
0.000111885
0.000137726
9.50855e-05
0.000105566
0.000239148
0.000238276
0.000222094
0.000122463
0.000176834
0.000407352
0.000383922
0.000305182
0.000196784
0.000428247
0.00063291
0.000387112
0.000192742
0.000310442
0.000248213
6.49677e-05
2.22595e-05
6.63548e-05
7.94786e-05
0.488108
0.483293
0.465086
0.435187
0.398549
0.359474
0.321057
0.2852
0.252822
0.22417
0.199096
0.177265
0.158278
0.141741
0.127296
0.114635
0.103495
0.0936566
0.0849356
0.0771783
0.0702557
0.0640591
0.0584969
0.0534911
0.0489753
0.0448924
0.0411935
0.037836
0.0347831
0.0320027
0.0294665
0.02715
0.0250313
0.0230911
0.0213125
0.0196801
0.0181806
0.0168018
0.0155328
0.014364
0.0132867
0.0122929
0.0113755
0.0105282
0.00974507
0.00902084
0.00835073
0.00773037
0.00715579
0.00662336
0.00612979
0.00567202
0.00524732
0.00485313
0.00448715
0.00414723
0.00383143
0.00353795
0.00326512
0.00301148
0.00277553
0.0025561
0.00235187
0.00216192
0.00198501
0.00182049
0.00166716
0.00152464
0.0013917
0.00126825
0.00115299
0.00104611
0.000946202
0.000853809
0.000767256
0.000687592
0.000612678
0.000544308
0.000479556
0.000421247
0.000365555
0.000315906
0.000269097
0.000225627
0.000189544
0.000147725
0.000124735
8.60358e-05
6.38041e-05
5.4938e-05
2.99275e-05
9.055e-05
5.46317e-05
0.000111211
0.000108101
0.000112965
0.000187755
0.000151278
0.000196375
0.000127947
0.00013728
0.000338378
0.000343969
0.000335181
0.000174452
0.000247546
0.000589471
0.000561763
0.000476254
0.00023306
0.000616274
0.000929108
0.00056039
0.00025691
0.000450012
0.000370771
8.3979e-05
2.90025e-05
9.82384e-05
0.000110415
0.47391
0.468224
0.457282
0.439373
0.415612
0.387874
0.358051
0.327779
0.298283
0.270375
0.244515
0.220899
0.199542
0.180347
0.163156
0.147784
0.134043
0.121751
0.110743
0.100871
0.0920011
0.0840182
0.0768203
0.0703187
0.0644356
0.0591034
0.0542626
0.0498613
0.0458537
0.0421996
0.0388635
0.035814
0.0330233
0.0304666
0.0281219
0.0259695
0.0239918
0.0221731
0.0204992
0.0189574
0.0175363
0.0162254
0.0150155
0.013898
0.0128654
0.0119106
0.0110272
0.0102096
0.00945244
0.00875096
0.00810078
0.0074979
0.00693866
0.0064197
0.00593795
0.00549061
0.00507506
0.00468896
0.00433007
0.00399647
0.00368618
0.00339767
0.00312914
0.00287941
0.00264684
0.00243057
0.002229
0.00204164
0.00186687
0.00170454
0.00155295
0.00141237
0.00128089
0.00115927
0.00104526
0.000940294
0.000841452
0.000751257
0.000665599
0.000588573
0.000514612
0.000448896
0.000386475
0.00032858
0.000280577
0.000223843
0.000194051
0.000140489
0.000111296
8.90678e-05
3.73906e-05
0.000109353
5.41578e-05
0.000142812
0.000124802
0.000131435
0.000243488
0.000190804
0.000261066
0.000162444
0.00016476
0.000442844
0.000458727
0.000465795
0.000235043
0.000318551
0.000784145
0.000757425
0.000680808
0.000250724
0.000816809
0.0012516
0.000755576
0.000307862
0.000595284
0.000514536
9.72466e-05
3.49106e-05
0.000133161
0.00014008
0.462615
0.45428
0.44443
0.431355
0.414778
0.395142
0.373178
0.34973
0.325619
0.301544
0.27806
0.25557
0.234342
0.214531
0.196199
0.179344
0.163919
0.149846
0.137032
0.12538
0.114789
0.105164
0.0964138
0.0884552
0.0812116
0.0746135
0.0685982
0.0631093
0.0580961
0.0535131
0.0493195
0.0454789
0.0419584
0.0387287
0.0357632
0.0330381
0.0305321
0.0282259
0.0261021
0.0241448
0.0223399
0.0206745
0.0191369
0.0177165
0.0164037
0.0151896
0.0140663
0.0130265
0.0120636
0.0111715
0.0103446
0.0095779
0.00886672
0.0082068
0.00759422
0.00702543
0.0064971
0.00600624
0.00555
0.00512594
0.00473152
0.0043648
0.0040235
0.0037061
0.0034105
0.00313562
0.00287941
0.00264124
0.00241904
0.00221265
0.00201986
0.00184103
0.00167372
0.0015189
0.00137368
0.00123993
0.00111384
0.000998776
0.000889249
0.000790841
0.000695937
0.000611826
0.000531387
0.000456962
0.000395028
0.000321192
0.000283296
0.000212396
0.000175202
0.000144789
7.05988e-05
0.000138846
4.49329e-05
0.000174443
0.000135702
0.000142313
0.000299765
0.000228244
0.000329944
0.00019729
0.000185689
0.000548182
0.000578162
0.000610213
0.000302979
0.00038569
0.000982794
0.000964179
0.000913875
0.000281886
0.0010208
0.00158494
0.000967518
0.000338027
0.000737405
0.000676773
0.000103483
4.03529e-05
0.000169244
0.000165257
0.45328
0.442881
0.432278
0.42042
0.40684
0.391496
0.374567
0.356361
0.33725
0.317619
0.297828
0.278201
0.259009
0.240469
0.222744
0.205948
0.190148
0.175375
0.161629
0.148889
0.137115
0.126259
0.116267
0.10708
0.0986397
0.0908891
0.0837734
0.0772407
0.0712424
0.0657336
0.0606726
0.0560212
0.0517445
0.0478104
0.0441897
0.0408557
0.0377843
0.0349532
0.0323424
0.0299335
0.0277098
0.0256561
0.0237584
0.0220041
0.0203817
0.0188805
0.017491
0.0162042
0.0150122
0.0139075
0.0128833
0.0119335
0.0110522
0.0102344
0.00947516
0.0087701
0.00811512
0.00750657
0.00694089
0.00641507
0.00592598
0.00547121
0.00504792
0.00465427
0.00428761
0.00394663
0.00362876
0.00333325
0.00305749
0.00280132
0.00256196
0.00233988
0.00213202
0.00193962
0.00175903
0.00159265
0.00143563
0.0012923
0.00115561
0.00103285
0.000914036
0.000808922
0.000707783
0.000614499
0.000536306
0.00044308
0.000395378
0.000304595
0.000258201
0.000217631
0.000124667
0.000178516
2.47475e-05
0.000204526
0.000139384
0.000142948
0.000354071
0.000261145
0.000400923
0.000230804
0.000197962
0.000650506
0.000698035
0.000764118
0.000376103
0.000445267
0.00117798
0.00117602
0.00116879
0.000353048
0.00121949
0.00191425
0.00119103
0.00034202
0.000869261
0.000854393
0.000104037
4.62886e-05
0.000204471
0.00018248
0.445217
0.433494
0.421981
0.410095
0.397471
0.383976
0.369623
0.354508
0.338773
0.322586
0.306117
0.289536
0.273007
0.25668
0.240692
0.225162
0.210187
0.195845
0.182192
0.169265
0.157083
0.145648
0.134951
0.124974
0.115689
0.107064
0.0990651
0.0916551
0.0847969
0.0784537
0.0725897
0.0671704
0.0621631
0.0575368
0.0532626
0.0493134
0.0456641
0.0422912
0.0391732
0.0362902
0.0336237
0.0311568
0.0288739
0.0267607
0.0248039
0.0229915
0.0213122
0.0197558
0.0183128
0.0169747
0.0157333
0.0145815
0.0135123
0.0125196
0.0115977
0.0107413
0.00994545
0.00920582
0.00851811
0.00787872
0.00728386
0.00673063
0.00621559
0.00573652
0.0052902
0.00487507
0.004488
0.00412808
0.00379212
0.00347995
0.00318817
0.00291738
0.00266381
0.00242902
0.0022085
0.00200524
0.00181324
0.0016379
0.00147043
0.00132
0.00117401
0.00104499
0.000920168
0.000805451
0.000708336
0.000593305
0.000533668
0.000420389
0.000363339
0.000310132
0.000196703
0.000253514
4.56477e-05
0.000255592
0.000134311
0.000130479
0.000403716
0.000286805
0.00047168
0.000260959
0.000199645
0.000746481
0.000814282
0.000922721
0.000451579
0.000494071
0.0013637
0.0013877
0.00143728
0.000444434
0.00140423
0.00222602
0.00142145
0.000317188
0.000986096
0.00104869
0.000106487
5.41889e-05
0.000236726
0.000188072
0.438087
0.425516
0.413303
0.401115
0.388701
0.375921
0.362743
0.3492
0.335356
0.321292
0.307087
0.292817
0.278557
0.26438
0.250355
0.23655
0.22303
0.209858
0.19709
0.184774
0.172951
0.161652
0.150899
0.140705
0.131074
0.122001
0.113479
0.105491
0.0980184
0.0910406
0.0845337
0.078473
0.0728334
0.0675899
0.0627177
0.0581928
0.0539921
0.0500935
0.046476
0.0431198
0.0400063
0.037118
0.0344386
0.0319528
0.0296464
0.0275063
0.0255201
0.0236766
0.0219653
0.0203763
0.0189006
0.01753
0.0162566
0.0150734
0.0139737
0.0129515
0.012001
0.0111171
0.0102949
0.00953006
0.00881818
0.00815586
0.00753901
0.00696504
0.00643012
0.00593241
0.00546816
0.00503635
0.00463313
0.00425834
0.00390787
0.0035825
0.00327766
0.00299528
0.00272987
0.00248512
0.00225371
0.00204227
0.00184005
0.00165833
0.00148156
0.00132541
0.00117363
0.00103464
0.000915601
0.000776187
0.000702049
0.000563586
0.000494104
0.000425364
0.000290009
0.000351365
8.1347e-05
0.000315036
0.000118578
0.000101667
0.000445846
0.000302261
0.000539658
0.000285425
0.000188925
0.000833344
0.000922993
0.00108095
0.000526157
0.000529425
0.00153546
0.00159467
0.00170996
0.000538806
0.00157955
0.002521
0.00165484
0.000263965
0.0010857
0.00124353
0.000105854
6.59196e-05
0.000263814
0.000178215
0.431711
0.418568
0.405856
0.393369
0.380935
0.36843
0.355799
0.343043
0.330196
0.317306
0.304427
0.291602
0.27887
0.266266
0.253816
0.241546
0.229482
0.217648
0.206073
0.194783
0.183809
0.173178
0.162914
0.153041
0.143576
0.134533
0.125921
0.117742
0.109997
0.102681
0.0957843
0.0892969
0.083205
0.0774932
0.072145
0.0671432
0.06247
0.0581075
0.0540381
0.0502443
0.0467094
0.043417
0.0403515
0.0374982
0.0348428
0.032372
0.0300734
0.0279349
0.0259457
0.0240951
0.0223736
0.0207721
0.0192822
0.0178959
0.0166059
0.0154054
0.0142881
0.0132481
0.0122798
0.0113785
0.0105388
0.00975715
0.00902866
0.00835041
0.00771792
0.00712913
0.00657961
0.00606824
0.00559047
0.00514617
0.00473048
0.00434436
0.00398237
0.00364688
0.00333132
0.00304015
0.00276459
0.00251264
0.00227137
0.00205442
0.00184296
0.00165618
0.00147385
0.00130746
0.00116317
0.000996608
0.000904962
0.000738538
0.000654483
0.000566937
0.000408304
0.000470693
0.000139159
0.000409032
0.000127431
6.09526e-05
0.00047739
0.000304252
0.000602085
0.00030164
0.000164041
0.000908834
0.00102035
0.00123369
0.000596438
0.000549239
0.0016902
0.00179275
0.00197682
0.000630347
0.00174197
0.00279438
0.00188783
0.000185773
0.00116794
0.00142972
0.000107683
8.35975e-05
0.000283423
0.000149219
0.425959
0.412419
0.399351
0.38662
0.374105
0.361704
0.349355
0.337034
0.324749
0.312529
0.300409
0.288427
0.276613
0.264992
0.25358
0.242389
0.231424
0.220689
0.210188
0.199924
0.189905
0.180138
0.170635
0.161409
0.152472
0.143837
0.135517
0.127522
0.11986
0.112536
0.105554
0.0989135
0.0926125
0.0866462
0.0810078
0.0756886
0.0706786
0.0659665
0.0615404
0.0573877
0.0534954
0.0498503
0.0464396
0.0432501
0.0402695
0.0374853
0.0348858
0.0324595
0.0301958
0.0280841
0.0261147
0.0242783
0.0225662
0.02097
0.0194821
0.0180951
0.0168022
0.0155971
0.0144736
0.0134264
0.0124499
0.0115399
0.0106909
0.00989978
0.00916137
0.00847343
0.00783085
0.00723245
0.00667295
0.00615229
0.00566478
0.00521167
0.00478652
0.00439226
0.00402106
0.00367835
0.00335365
0.00305655
0.00277169
0.00251531
0.002265
0.00204379
0.00182704
0.00162988
0.00145668
0.00126001
0.00114744
0.000950163
0.000849011
0.00073904
0.000555805
0.000614887
0.000232955
0.000537317
0.000199407
7.2609e-05
0.000524954
0.000289152
0.000656028
0.000306872
0.000123157
0.000971021
0.00110253
0.00137592
0.000659102
0.000552032
0.00182594
0.00197786
0.00222792
0.000713694
0.00187678
0.00303215
0.00211706
0.000147242
0.00123367
0.00159774
0.000118645
0.000109421
0.000309914
0.000149348
0.420739
0.406915
0.393592
0.38067
0.368066
0.355697
0.343504
0.33145
0.319523
0.30773
0.296091
0.284632
0.27338
0.262355
0.251576
0.241056
0.230799
0.220806
0.211072
0.201591
0.192357
0.183363
0.174606
0.166083
0.157794
0.149742
0.14193
0.134364
0.127049
0.119992
0.113198
0.106671
0.100416
0.0944333
0.0887242
0.0832871
0.0781195
0.0732169
0.068574
0.0641838
0.0600389
0.0561308
0.0524504
0.0489884
0.0457351
0.0426805
0.039815
0.0371287
0.034612
0.0322555
0.03005
0.0279869
0.0260576
0.024254
0.0225683
0.0209934
0.0195219
0.0181477
0.0168641
0.0156656
0.0145461
0.0135013
0.0125251
0.0116143
0.0107631
0.00996917
0.00922673
0.00853464
0.00788683
0.00728345
0.00671789
0.00619181
0.00569766
0.00523906
0.00480679
0.00440738
0.0040285
0.00368152
0.00334838
0.00304822
0.00275471
0.00249509
0.00223987
0.00200831
0.00180233
0.00157235
0.0014351
0.00120394
0.0010828
0.000946464
0.000737272
0.000787934
0.000361171
0.000688187
0.000296122
0.000122701
0.00058054
0.000267786
0.000712868
0.00029831
0.000105214
0.00101805
0.00116558
0.00150291
0.00071102
0.000536829
0.00194121
0.00214566
0.00245394
0.000784573
0.00197754
0.00322816
0.00233848
0.000189066
0.00128337
0.00173853
0.000145619
0.000145487
0.000338401
0.000145307
0.415974
0.401947
0.388437
0.375372
0.362687
0.350319
0.338213
0.326331
0.314648
0.303156
0.291859
0.280769
0.269902
0.259276
0.248907
0.23881
0.228993
0.219459
0.21021
0.201238
0.192537
0.184097
0.175906
0.167955
0.160235
0.152737
0.145455
0.138385
0.131525
0.124875
0.118435
0.112206
0.106192
0.100393
0.0948134
0.0894535
0.0843147
0.0793972
0.0747001
0.0702217
0.0659593
0.0619091
0.0580666
0.0544265
0.0509829
0.0477292
0.0446588
0.0417642
0.0390382
0.0364732
0.0340617
0.0317961
0.029669
0.0276732
0.0258013
0.0240469
0.0224028
0.020863
0.0194209
0.0180713
0.0168078
0.0156261
0.0145198
0.0134857
0.0125175
0.0116131
0.010766
0.00997517
0.00923387
0.00854258
0.0078937
0.00728946
0.0067211
0.00619311
0.00569472
0.00523378
0.00479587
0.00439443
0.0040084
0.00366016
0.00331909
0.003017
0.00271916
0.00244943
0.00220666
0.00194001
0.00177408
0.00150586
0.00136153
0.0011946
0.000958027
0.000994461
0.000523914
0.000865641
0.000421104
0.000225882
0.000698109
0.000318693
0.000791186
0.000273274
0.000114689
0.00104781
0.00120536
0.00161024
0.000749248
0.00050291
0.00203444
0.00229144
0.00264653
0.00084005
0.00203929
0.00337661
0.00254693
0.000252446
0.00131582
0.00184464
0.000194435
0.000193615
0.000362978
0.000146632
0.411605
0.397429
0.383785
0.370612
0.357861
0.345481
0.333425
0.321655
0.310143
0.298872
0.287832
0.277024
0.266453
0.25613
0.246065
0.236269
0.226752
0.217521
0.208579
0.199926
0.191557
0.183467
0.175645
0.168081
0.160763
0.153681
0.146822
0.140176
0.133734
0.127489
0.121435
0.115566
0.10988
0.104376
0.0990515
0.0939069
0.0889426
0.0841588
0.0795561
0.0751345
0.0708939
0.0668335
0.062952
0.0592474
0.0557173
0.0523583
0.0491669
0.0461387
0.0432692
0.0405531
0.0379853
0.0355601
0.0332717
0.0311145
0.0290823
0.0271697
0.0253703
0.023679
0.0220895
0.0205973
0.0191959
0.0178816
0.0166479
0.0154918
0.0144069
0.0133912
0.0124378
0.0115461
0.0107086
0.00992636
0.00919069
0.00850466
0.00785819
0.00725688
0.00668824
0.00616173
0.00566057
0.00520062
0.00475751
0.00435719
0.00396443
0.00361597
0.00327153
0.00295985
0.00267635
0.00236953
0.00217086
0.00186228
0.00169135
0.00148939
0.00122392
0.00123976
0.000726619
0.00107425
0.000578906
0.000374933
0.000844443
0.000384727
0.000871015
0.000265022
0.000150182
0.00105744
0.00121742
0.0016937
0.000770944
0.000449351
0.00210332
0.00241009
0.00279844
0.000878384
0.00205828
0.00347119
0.00276751
0.000324608
0.00132751
0.00191104
0.000268748
0.000255261
0.000383399
0.000232951
0.407578
0.393297
0.379554
0.366303
0.353502
0.341107
0.32908
0.317385
0.305995
0.294886
0.284042
0.273456
0.263124
0.253048
0.243231
0.233679
0.224399
0.215398
0.206678
0.198244
0.190094
0.182226
0.174634
0.167311
0.160247
0.153432
0.146856
0.140507
0.134372
0.128442
0.122707
0.117156
0.111783
0.106581
0.101543
0.0966654
0.0919453
0.0873799
0.0829675
0.078707
0.0745977
0.0706389
0.0668301
0.0631706
0.0596596
0.056296
0.0530782
0.0500043
0.047072
0.0442787
0.0416211
0.039096
0.0366995
0.0344277
0.0322763
0.0302412
0.0283174
0.0265009
0.0247864
0.0231703
0.0216467
0.0202126
0.0188619
0.0175921
0.0163967
0.0152745
0.0142181
0.0132278
0.0122951
0.0114221
0.0105991
0.00983021
0.00910394
0.00842733
0.00778597
0.0071913
0.00662392
0.0061025
0.00559899
0.00514337
0.00469546
0.0042972
0.00390263
0.00354545
0.00321764
0.00286717
0.00263192
0.00227965
0.00207871
0.00183715
0.0015412
0.00152977
0.000975187
0.00131935
0.00077463
0.00056001
0.00101704
0.00046241
0.00103241
0.000351316
0.000239873
0.00106957
0.00121773
0.00176888
0.000773293
0.000374336
0.00214425
0.00249623
0.00290339
0.000898679
0.00203145
0.00350513
0.00297741
0.000388584
0.00131262
0.00193486
0.000369691
0.000331548
0.000400342
0.000406288
0.403853
0.389496
0.375684
0.362377
0.349539
0.337132
0.325124
0.313482
0.302178
0.29119
0.280497
0.270085
0.259946
0.250074
0.240467
0.231124
0.222048
0.213242
0.20471
0.196452
0.18847
0.180764
0.17333
0.166165
0.159262
0.152614
0.146212
0.140047
0.134109
0.128386
0.122869
0.117547
0.112411
0.107449
0.102655
0.0980194
0.0935364
0.0891996
0.0850043
0.0809463
0.0770223
0.0732298
0.0695666
0.0660312
0.0626224
0.0593388
0.0561797
0.0531439
0.0502302
0.0474373
0.0447636
0.0422074
0.0397666
0.037439
0.0352218
0.0331125
0.0311076
0.0292047
0.0273995
0.0256896
0.02407
0.022539
0.0210907
0.0197239
0.0184322
0.0172153
0.0160656
0.0149845
0.013963
0.0130042
0.0120975
0.0112485
0.0104441
0.00969319
0.00897927
0.00831622
0.00768165
0.0070976
0.00653197
0.00601918
0.00551387
0.00506336
0.00461613
0.00421045
0.00383559
0.00343823
0.0031632
0.002764
0.00252989
0.0022443
0.00191627
0.00187091
0.00127582
0.00160706
0.00101381
0.000786796
0.00122046
0.00055513
0.00121172
0.000448293
0.000388203
0.00110709
0.00121625
0.00184825
0.000753688
0.000273831
0.00215196
0.00256217
0.00297284
0.000900658
0.00195555
0.00347179
0.00316499
0.000495799
0.00132021
0.00191549
0.000496957
0.000423439
0.000415648
0.000610547
0.400394
0.385984
0.372124
0.358778
0.345915
0.333502
0.321508
0.309904
0.298665
0.287768
0.27719
0.266916
0.256932
0.247229
0.237798
0.228636
0.21974
0.211108
0.202743
0.194643
0.186809
0.17924
0.171936
0.164893
0.158107
0.151573
0.145286
0.139237
0.13342
0.127824
0.122442
0.117264
0.11228
0.10748
0.102856
0.0983977
0.0940976
0.0899472
0.0859394
0.0820675
0.0783258
0.0747091
0.071213
0.0678338
0.0645684
0.0614143
0.0583692
0.0554315
0.0525994
0.0498719
0.0472474
0.0447249
0.0423028
0.0399802
0.037755
0.0356262
0.0335913
0.0316491
0.0297965
0.0280324
0.0263527
0.024757
0.02324
0.0218019
0.0204363
0.0191446
0.017919
0.0167621
0.0156645
0.0146309
0.0136497
0.0127282
0.0118519
0.0110319
0.0102493
0.00952098
0.00882132
0.0081762
0.00754916
0.00697946
0.00641651
0.00591285
0.00541212
0.00495599
0.00453281
0.00408594
0.00376906
0.00332017
0.00305037
0.00271676
0.00235513
0.00226978
0.00163469
0.00194411
0.00130221
0.00106161
0.0014599
0.000667304
0.00141584
0.000562069
0.000562447
0.00124727
0.00129637
0.00191265
0.000760876
0.000194979
0.0021191
0.00262034
0.00301978
0.00088499
0.00182676
0.00336669
0.00332318
0.00060963
0.00136733
0.00190823
0.000649176
0.000531941
0.0004323
0.000842589
0.397169
0.382724
0.368832
0.355462
0.342584
0.330169
0.318188
0.306615
0.295427
0.284599
0.274112
0.263947
0.254088
0.244522
0.23524
0.226232
0.217492
0.209016
0.200802
0.192847
0.18515
0.177709
0.170523
0.16359
0.156905
0.150466
0.144268
0.138304
0.13257
0.127057
0.12176
0.116669
0.111777
0.107076
0.102557
0.0982114
0.0940308
0.0900071
0.0861324
0.0823989
0.0787997
0.075328
0.0719777
0.0687431
0.0656195
0.0626023
0.0596877
0.0568724
0.0541534
0.0515285
0.0489952
0.046552
0.044197
0.0419292
0.0397466
0.0376486
0.035633
0.0336995
0.0318454
0.030071
0.0283723
0.0267504
0.0252002
0.0237236
0.0223143
0.020975
0.0196979
0.0184874
0.0173334
0.0162427
0.0152022
0.014222
0.0132854
0.0124066
0.0115639
0.010778
0.0100193
0.00931839
0.00863412
0.00801077
0.00739289
0.00683752
0.00628502
0.00577821
0.00530769
0.00480986
0.00445088
0.00395053
0.00364362
0.00325911
0.00286259
0.00273254
0.00205732
0.00233753
0.00164556
0.00139123
0.00174101
0.000804365
0.00165119
0.000698283
0.000769142
0.00141601
0.00139037
0.00203855
0.000860388
0.000223056
0.00211787
0.00264971
0.00302909
0.000922108
0.00177994
0.00325114
0.00344353
0.000720941
0.0014481
0.00193075
0.000824316
0.000658156
0.000453901
0.00109776
0.394153
0.379687
0.365776
0.352393
0.339508
0.327096
0.315128
0.303583
0.292435
0.281664
0.271248
0.26117
0.251412
0.241959
0.232799
0.223922
0.215318
0.206979
0.198901
0.191079
0.183509
0.176189
0.169115
0.162286
0.155698
0.149346
0.143229
0.13734
0.131674
0.126227
0.120991
0.115962
0.11113
0.106491
0.102036
0.0977573
0.0936485
0.0897016
0.0859093
0.0822641
0.0787589
0.0753867
0.0721408
0.0690148
0.0660028
0.0630992
0.0602988
0.057597
0.0549894
0.0524723
0.0500423
0.0476965
0.045432
0.0432469
0.0411387
0.0391063
0.037147
0.0352608
0.0334445
0.0316989
0.0300203
0.0284103
0.0268639
0.0253842
0.0239645
0.0226094
0.0213104
0.0200739
0.0188888
0.0177643
0.016686
0.0156664
0.0146869
0.0137651
0.0128764
0.0120453
0.0112387
0.0104916
0.00975865
0.0090887
0.00842254
0.00782002
0.00722106
0.00666572
0.00615209
0.00560375
0.00520502
0.00465327
0.00430941
0.00387315
0.00344085
0.0032639
0.00254762
0.00279383
0.00204894
0.00178237
0.00206969
0.00101782
0.00192495
0.00086341
0.00101548
0.00161299
0.00150054
0.00221107
0.00101254
0.000282612
0.0021701
0.00272113
0.00305993
0.00105829
0.00177192
0.00319264
0.00361939
0.000832743
0.00150866
0.0019463
0.00101991
0.000803017
0.00051179
0.00137039
0.391322
0.376846
0.362927
0.349539
0.336655
0.324249
0.312297
0.300776
0.289663
0.278939
0.268582
0.258574
0.248899
0.239539
0.230481
0.221714
0.213225
0.205006
0.197049
0.189346
0.181893
0.174686
0.167719
0.16099
0.154495
0.148229
0.14219
0.136373
0.130773
0.125386
0.120205
0.115226
0.110443
0.105849
0.101438
0.0972041
0.0931403
0.0892401
0.0854968
0.0819039
0.0784548
0.0751429
0.0719618
0.0689053
0.0659673
0.0631421
0.0604238
0.0578074
0.0552876
0.0528601
0.0505201
0.0482641
0.0460878
0.0439889
0.0419632
0.0400094
0.0381235
0.0363054
0.0345507
0.0328606
0.0312302
0.0296619
0.0281498
0.026698
0.0252989
0.0239587
0.0226675
0.021434
0.0202455
0.0191137
0.0180222
0.0169869
0.0159864
0.015042
0.014126
0.0132671
0.0124285
0.0116495
0.0108812
0.0101759
0.00947273
0.00883128
0.00819565
0.00759706
0.00704862
0.00645304
0.00602022
0.00542002
0.0050415
0.00455594
0.00408754
0.00386552
0.00310633
0.00331769
0.00251585
0.00224062
0.00245161
0.00136356
0.00224489
0.00106485
0.00130951
0.00184006
0.00163166
0.00239743
0.00118785
0.000421555
0.00228774
0.00285454
0.00315666
0.00129115
0.00176764
0.00315472
0.0038073
0.000948527
0.00154269
0.00196121
0.00123301
0.000966756
0.000655458
0.00165428
0.388659
0.374181
0.360261
0.346875
0.333997
0.321602
0.309667
0.298169
0.287089
0.276404
0.266097
0.256148
0.246541
0.237258
0.228286
0.219611
0.211221
0.203105
0.195253
0.187657
0.18031
0.173206
0.16634
0.159706
0.153301
0.147119
0.141158
0.135412
0.129877
0.124548
0.119422
0.114491
0.109752
0.105199
0.100826
0.0966277
0.0925976
0.0887302
0.0850195
0.0814595
0.0780443
0.0747681
0.071625
0.0686093
0.0657152
0.0629373
0.0602701
0.0577084
0.0552469
0.0528811
0.0506058
0.0484173
0.0463104
0.0442823
0.042328
0.0404459
0.0386306
0.0368819
0.035194
0.0335683
0.0319983
0.030487
0.0290269
0.027623
0.0262661
0.0249637
0.0237042
0.0224982
0.021331
0.0202166
0.0191365
0.0181092
0.017111
0.0161663
0.0152446
0.014378
0.0135269
0.0127337
0.0119478
0.011222
0.010498
0.00982939
0.0091717
0.00853866
0.00796824
0.00733239
0.00687476
0.00623331
0.00582479
0.00529731
0.0047931
0.00453369
0.00372894
0.00390983
0.00304675
0.00276867
0.00289137
0.00181192
0.00261896
0.00131056
0.0016595
0.0020994
0.00178917
0.0026051
0.00139371
0.000663775
0.00241082
0.0029982
0.00325051
0.0015496
0.00176839
0.00310515
0.00396859
0.00107243
0.00154844
0.00198306
0.00146028
0.00114838
0.000859978
0.00194309
0.386144
0.371671
0.357757
0.344379
0.331511
0.319131
0.307214
0.295741
0.284689
0.274041
0.263777
0.253878
0.244328
0.235111
0.22621
0.217614
0.209308
0.20128
0.19352
0.186018
0.178766
0.171757
0.164982
0.158438
0.152118
0.146017
0.140131
0.134456
0.128986
0.123717
0.118644
0.113763
0.109069
0.104556
0.10022
0.0960544
0.0920549
0.0882157
0.0845314
0.0809965
0.0776056
0.0743534
0.0712344
0.0682435
0.0653753
0.062625
0.0599872
0.0574573
0.0550301
0.0527016
0.0504663
0.0483209
0.0462597
0.0442805
0.0423772
0.0405485
0.038788
0.0370959
0.0354649
0.0338969
0.0323837
0.0309291
0.0295236
0.0281733
0.0268668
0.0256131
0.0243983
0.0232346
0.0221051
0.0210258
0.0199758
0.018976
0.0180001
0.0170751
0.0161682
0.0153136
0.0144706
0.0136816
0.0128981
0.0121684
0.0114429
0.0107615
0.0101004
0.00944494
0.00886927
0.00820444
0.00773445
0.00706437
0.00663253
0.00607714
0.00553784
0.00525634
0.00440308
0.00456387
0.003637
0.00336363
0.00339098
0.00232405
0.00305412
0.00161111
0.00207268
0.00239342
0.00197901
0.00284313
0.00163722
0.000971445
0.00253643
0.00315428
0.00335686
0.00183727
0.00177718
0.00305169
0.00410469
0.00120901
0.00152944
0.00201999
0.00169844
0.00134561
0.00108221
0.00223071
0.383764
0.369301
0.355399
0.342032
0.329179
0.316816
0.304919
0.29347
0.282447
0.271832
0.261606
0.251751
0.242251
0.233089
0.22425
0.21572
0.207486
0.199534
0.191854
0.184435
0.177267
0.170342
0.163652
0.15719
0.15095
0.144926
0.139113
0.133506
0.1281
0.12289
0.117872
0.113041
0.108392
0.103921
0.0996216
0.0954901
0.0915211
0.0877096
0.0840505
0.0805387
0.077169
0.0739367
0.0708364