/*--------------------------------*- C++ -*----------------------------------*\
| =========                 |                                                 |
| \\      /  F ield         | OpenFOAM: The Open Source CFD Toolbox           |
|  \\    /   O peration     | Version:  2412                                  |
|   \\  /    A nd           | Website:  www.openfoam.com                      |
|    \\/     M anipulation  |                                                 |
\*---------------------------------------------------------------------------*/
FoamFile
{
    version     2.0;
    format      ascii;
    arch        "LSB;label=32;scalar=64";
    class       surfaceScalarField;
    location    "0.875";
    object      phi_0;
}
// * * * * * * * * * * * * * * * * * * * * * * * * * * * * * * * * * * * * * //

dimensions      [0 3 -1 0 0 0 0];

oriented        oriented;

internalField   nonuniform List<scalar> 
24930
(
0.0179758
0.012769
-0.0307413
0.0106063
0.00736954
0.0069535
0.0036528
0.00517654
0.00177695
0.00420407
0.000972475
0.00358093
0.000623143
0.00313485
0.00044608
0.00279523
0.00033961
0.00252598
0.000269253
0.00230601
0.000219968
0.00212216
0.000183844
0.00196571
0.000156454
0.00183059
0.000135118
0.00171246
0.000118129
0.0016081
0.000104352
0.0015151
9.30049e-05
0.00143156
8.35309e-05
0.00135604
7.55276e-05
0.00128734
6.86965e-05
0.00122452
6.28124e-05
0.00116682
5.77025e-05
0.00111359
5.32324e-05
0.00106429
4.92964e-05
0.00101848
4.58099e-05
0.000975771
4.2705e-05
0.000935844
3.99263e-05
0.000898415
3.74283e-05
0.000863242
3.51736e-05
0.000830111
3.31307e-05
0.000798837
3.12733e-05
0.000769258
2.95793e-05
0.000741228
2.80299e-05
0.000714619
2.6609e-05
0.000689317
2.53028e-05
0.000665217
2.40993e-05
0.000642229
2.29883e-05
0.000620268
2.19608e-05
0.000599259
2.10089e-05
0.000579133
2.01259e-05
0.000559827
1.93056e-05
0.000541283
1.8543e-05
0.00052345
1.7833e-05
0.000506278
1.71719e-05
0.000489722
1.65556e-05
0.00047374
1.59813e-05
0.000458294
1.54455e-05
0.000443347
1.49463e-05
0.000428866
1.44807e-05
0.000414818
1.40473e-05
0.000401174
1.36435e-05
0.000387905
1.32684e-05
0.000374984
1.292e-05
0.000362386
1.25972e-05
0.000350086
1.22989e-05
0.000338061
1.20235e-05
0.000326289
1.17712e-05
0.000314749
1.1539e-05
0.000303419
1.13295e-05
0.000292282
1.11369e-05
0.000281313
1.09678e-05
0.000270502
1.08114e-05
0.00025982
1.06811e-05
0.000249262
1.05579e-05
0.000238797
1.04651e-05
0.000228425
1.03713e-05
0.00021811
1.03155e-05
0.000207863
1.02469e-05
0.000197634
1.02281e-05
0.000187455
1.01794e-05
0.000177257
1.01977e-05
0.000167096
1.01616e-05
0.000156879
1.02173e-05
0.000146696
1.01837e-05
0.00013642
1.02769e-05
0.000126189
1.02324e-05
0.000115827
1.03632e-05
0.000105537
1.0291e-05
9.50773e-05
1.04599e-05
8.47395e-05
1.03381e-05
7.41931e-05
1.05463e-05
6.38444e-05
1.03484e-05
5.3245e-05
1.05987e-05
4.29512e-05
1.02931e-05
3.23572e-05
1.05936e-05
2.22088e-05
1.01478e-05
1.17114e-05
1.04972e-05
1.77057e-06
9.93931e-06
-8.44666e-06
1.02163e-05
-1.82468e-05
9.80016e-06
-2.76787e-05
9.43045e-06
-3.78141e-05
1.01409e-05
-4.65585e-05
8.73523e-06
-5.29416e-05
6.39069e-06
-7.07467e-05
1.78043e-05
-6.06915e-05
-1.01182e-05
-9.28262e-05
3.21377e-05
-8.9375e-05
-3.4935e-06
-6.60642e-05
-2.33271e-05
-0.000170704
0.000104653
-5.23195e-05
-0.00011841
-0.00016119
0.000108894
-0.000170552
9.28844e-06
-3.58438e-05
-0.000134753
-0.000346929
0.000311135
-4.64688e-05
-0.000300501
-0.000205109
0.000158672
-0.000404668
0.000199581
6.97159e-05
-0.000474438
-0.000500069
0.000569814
-0.000334494
-0.00016564
0.000120957
-0.000455504
-0.000783685
0.000904718
-0.000497579
-0.000286172
0.000338888
-0.000836538
-0.000577704
0.000916627
-0.0011385
0.00056083
-0.000150345
-0.000988187
-0.00023959
8.92584e-05
-0.000806113
0.000566538
-0.000268239
0.0336923
0.0163363
-0.0372596
0.0277515
0.0133103
0.0221954
0.00920888
0.0179188
0.00605353
0.0148712
0.0040201
0.0127098
0.00278453
0.0111222
0.00203373
0.00990473
0.00155705
0.00893722
0.00123675
0.00814668
0.00101051
0.00748631
0.000844213
0.0069248
0.000717961
0.00644035
0.000619555
0.0060173
0.000541178
0.00564404
0.000477616
0.00531177
0.000425265
0.00501373
0.000381568
0.00474459
0.000344668
0.0045001
0.000313185
0.00427683
0.00028608
0.00407197
0.000262554
0.00388322
0.000241985
0.00370863
0.000223884
0.00354658
0.000207859
0.00339568
0.000193596
0.00325477
0.000180838
0.00312282
0.000169376
0.00299896
0.000159035
0.00288242
0.000149671
0.00277253
0.000141162
0.0026687
0.000133405
0.00257042
0.000126314
0.00247722
0.000119813
0.00238868
0.00011384
0.00230444
0.000108339
0.00222417
0.000103262
0.00214756
9.85688e-05
0.00207434
9.42223e-05
0.00200428
9.01915e-05
0.00193713
8.64479e-05
0.00187271
8.2968e-05
0.00181081
7.97291e-05
0.00175127
7.67132e-05
0.00169392
7.39022e-05
0.00163862
7.12823e-05
0.00158523
6.88384e-05
0.00153361
6.65606e-05
0.00148366
6.4436e-05
0.00143525
6.24572e-05
0.00138827
6.06136e-05
0.00134264
5.88994e-05
0.00129825
5.73063e-05
0.00125502
5.58291e-05
0.00121286
5.44623e-05
0.00117168
5.31995e-05
0.00113141
5.20395e-05
0.00109197
5.09724e-05
0.0010533
5.00039e-05
0.00101532
4.91165e-05
0.000977954
4.83276e-05
0.000941158
4.76064e-05
0.000904851
4.6988e-05
0.000868988
4.64196e-05
0.000833489
4.59642e-05
0.000798325
4.55347e-05
0.000763403
4.5237e-05
0.000728719
4.4931e-05
0.000694159
4.47869e-05
0.000659753
4.45856e-05
0.000625359
4.45913e-05
0.000591052
4.44691e-05
0.00055665
4.46188e-05
0.000522294
4.45408e-05
0.000487745
4.4826e-05
0.000453233
4.47457e-05
0.000418441
4.5156e-05
0.000383719
4.50138e-05
0.000348645
4.55357e-05
0.000313729
4.52553e-05
0.000278403
4.58738e-05
0.000243391
4.53615e-05
0.000207925
4.60646e-05
0.000173012
4.52071e-05
0.000137598
4.60068e-05
0.000103072
4.4674e-05
6.79845e-05
4.55834e-05
3.41342e-05
4.37897e-05
2.58825e-07
4.40905e-05
-3.35864e-05
4.36439e-05
-6.494e-05
4.07848e-05
-0.000100465
4.56595e-05
-0.000127183
3.54633e-05
-0.00015495
3.41489e-05
-0.000205942
6.87995e-05
-0.000180892
-3.51238e-05
-0.000290919
0.000142161
-0.00025627
-3.81017e-05
-0.000226534
-5.30736e-05
-0.000504207
0.000382331
-0.000170277
-0.000452335
-0.000539546
0.000478136
-0.000481655
-4.85509e-05
-0.000159328
-0.000457093
-0.00102641
0.00117823
-0.000150976
-0.00117592
-0.000735506
0.000743163
-0.00115462
0.000618693
0.000145715
-0.00177477
-0.00157317
0.00228869
-0.000930531
-0.0008082
0.000216462
-0.00160249
-0.00242521
0.00354636
-0.00136146
-0.00134984
0.000897759
-0.00309574
-0.00197389
0.00378824
-0.00335073
0.00193764
-0.00042418
-0.00391471
-0.000880661
0.00054572
-0.00241472
0.0021006
-0.00115051
0.041464
0.0160321
-0.0411598
0.0391718
0.0156024
0.0352391
0.0131416
0.0309501
0.0103425
0.0270333
0.00793691
0.0237429
0.00607491
0.0210676
0.00470906
0.0188983
0.00372641
0.0171201
0.00301487
0.0156406
0.00249006
0.0143906
0.00209418
0.0133199
0.0017887
0.0123914
0.00154799
0.0115778
0.00135479
0.0108582
0.00119723
0.0102166
0.00106691
0.00964035
0.000957777
0.00911963
0.000865392
0.00864639
0.00078642
0.00821414
0.000718326
0.00781754
0.000659155
0.00745214
0.000607375
0.00711425
0.000561774
0.00680072
0.000521384
0.0065089
0.00048542
0.00623649
0.000453243
0.00598154
0.000424328
0.00574234
0.000398238
0.0055174
0.00037461
0.00530542
0.000353138
0.00510526
0.000333566
0.0049159
0.000315672
0.00473644
0.000299271
0.00456608
0.0002842
0.0044041
0.000270322
0.00424985
0.000257515
0.00410274
0.000245677
0.00396225
0.000234714
0.00382789
0.000224547
0.00369923
0.000215106
0.00357587
0.000206329
0.00345744
0.00019816
0.0033436
0.000190554
0.00323404
0.000183464
0.00312846
0.000176855
0.00302661
0.00017069
0.00292823
0.000164941
0.00283308
0.000159579
0.00274096
0.000154583
0.00265164
0.000149927
0.00256494
0.000145595
0.00248068
0.000141567
0.00239868
0.00013783
0.00231877
0.000134369
0.0022408
0.000131169
0.00216461
0.000128224
0.00209007
0.000125514
0.00201702
0.000123047
0.00194535
0.000120788
0.00187491
0.000118766
0.00180559
0.000116925
0.00173726
0.000115324
0.00166981
0.000113869
0.0016031
0.000112668
0.00153707
0.000111567
0.00147155
0.00011075
0.00140652
0.000109969
0.00134178
0.000109522
0.00127735
0.000109021
0.00121301
0.000108927
0.00114883
0.000108651
0.00108456
0.000108891
0.00102033
0.000108765
0.000955853
0.000109307
0.000891368
0.000109231
0.000826488
0.000110038
0.000761618
0.000109885
0.000696249
0.000110907
0.000630995
0.00011051
0.00056518
0.00011169
0.000499695
0.000110847
0.000433629
0.000112131
0.000368246
0.00011059
0.000302264
0.000111988
0.0002375
0.000109437
0.000172073
0.00011101
0.000108496
0.000107366
4.45738e-05
0.000108011
-1.83907e-05
0.000106607
-7.70429e-05
9.94364e-05
-0.000144121
0.000112735
-0.000192828
8.41731e-05
-0.000249609
9.09266e-05
-0.000336524
0.000155718
-0.000301649
-6.99861e-05
-0.000500659
0.000341167
-0.000425685
-0.000113063
-0.00041137
-6.73959e-05
-0.000854395
0.000825358
-0.000304522
-0.00100221
-0.000975208
0.00114882
-0.000804208
-0.000219505
-0.000334218
-0.000927092
-0.0017495
0.00259352
-0.000270686
-0.00265474
-0.00139088
0.00186336
-0.00192535
0.00115316
0.000175902
-0.00387603
-0.002776
0.00524062
-0.00151666
-0.00206755
0.000182408
-0.00330154
-0.00422816
0.00795692
-0.00216212
-0.00341588
0.00137015
-0.00662801
-0.00365044
0.00880884
-0.00561631
0.00390351
-0.000672263
-0.00885877
-0.00169749
0.00157096
-0.0040894
0.0044925
-0.0028468
0.0459268
0.0147321
-0.0446268
0.0460091
0.0155202
0.0444285
0.0147222
0.0417027
0.0130683
0.038457
0.0111826
0.0351504
0.00938151
0.0320505
0.00780895
0.0292717
0.00650518
0.0268329
0.0054537
0.0247079
0.00461505
0.0228556
0.0039465
0.021234
0.00341031
0.0198058
0.00297612
0.0185399
0.00262067
0.0174107
0.00232646
0.0163972
0.00208036
0.0154826
0.00187245
0.0146527
0.00169521
0.0138963
0.00154285
0.0132038
0.00141088
0.0125671
0.00129577
0.0119798
0.00119474
0.011436
0.00110553
0.010931
0.00102635
0.0104607
0.000955723
0.0100215
0.000892437
0.00961038
0.000835495
0.00922455
0.000784062
0.00886172
0.00073744
0.00851982
0.000695041
0.00819702
0.000656367
0.0078917
0.000620991
0.00760242
0.00058855
0.00732789
0.000558729
0.00706695
0.000531258
0.00681857
0.000505901
0.00658179
0.000482453
0.00635577
0.000460734
0.00613973
0.000440588
0.00593296
0.000421876
0.00573481
0.000404477
0.00554469
0.000388281
0.00536204
0.000373195
0.00518637
0.000359132
0.00501721
0.000346018
0.00485412
0.000333782
0.00469669
0.00032237
0.00454455
0.000311721
0.00439733
0.000301794
0.00425472
0.00029254
0.00411639
0.000283925
0.00398204
0.000275911
0.0038514
0.000268468
0.0037242
0.00026157
0.00360018
0.000255187
0.0034791
0.000249306
0.00336072
0.000243889
0.00324482
0.000238945
0.00313119
0.000234417
0.0030196
0.000230347
0.00290988
0.000226644
0.00280181
0.000223397
0.00269522
0.000220457
0.0025899
0.00021799
0.00248571
0.000215755
0.00238243
0.000214031
0.00227996
0.00021244
0.00217805
0.000211429
0.00207666
0.000210409
0.00197551
0.000210074
0.00187464
0.000209528
0.00177371
0.000209822
0.00167285
0.000209618
0.00157169
0.000210474
0.00147048
0.000210435
0.00136876
0.000211768
0.00126698
0.000211667
0.00116452
0.000213364
0.00106212
0.000212908
0.000958981
0.000214836
0.000856169
0.00021366
0.000752612
0.000215689
0.00064986
0.000213342
0.000546389
0.000215459
0.000444471
0.000211354
0.000341786
0.000213694
0.000241596
0.000207556
0.000141061
0.000208544
4.19673e-05
0.0002057
-5.06449e-05
0.000192048
-0.000156158
0.000218245
-0.000232739
0.000160756
-0.000326184
0.000184369
-0.000453799
0.000283335
-0.00041594
-0.00010784
-0.000712586
0.00063781
-0.000593901
-0.00023174
-0.000614505
-4.679e-05
-0.00121728
0.00142813
-0.000452839
-0.00176666
-0.00146022
0.0021562
-0.00114025
-0.000539468
-0.000563325
-0.00150402
-0.00251222
0.00454243
-0.000406532
-0.00476043
-0.00216808
0.00362492
-0.00271791
0.00170297
0.000145527
-0.00673948
-0.00409884
0.00948501
-0.0020955
-0.00407089
-1.98111e-05
-0.00537725
-0.00617043
0.0141076
-0.00289242
-0.0066939
0.00171949
-0.0112399
-0.00558356
0.0161119
-0.00789141
0.00621132
-0.000889871
-0.0158603
-0.00268531
0.00336642
-0.00576897
0.00757616
-0.00560468
0.0493932
0.0135374
-0.0481985
0.0503568
0.0145566
0.0503742
0.0147048
0.0493509
0.0140916
0.0475048
0.0130287
0.0451287
0.0117577
0.0424942
0.0104434
0.0398081
0.00919134
0.037205
0.00805674
0.0347596
0.00706048
0.0325039
0.00620215
0.030444
0.00547025
0.0285713
0.00484878
0.0268709
0.00432106
0.0253257
0.0038717
0.0239187
0.00348737
0.0226342
0.00315694
0.0214582
0.00287124
0.0203782
0.00262281
0.0193835
0.00240559
0.0184646
0.00221464
0.0176134
0.00204593
0.0168228
0.00189615
0.0160865
0.00176258
0.0153993
0.00164297
0.0147563
0.00153542
0.0141534
0.00143837
0.013587
0.00135048
0.0130538
0.00127065
0.012551
0.0011979
0.0120759
0.00113143
0.0116263
0.00107055
0.0112002
0.00101464
0.0107958
0.000963188
0.0104113
0.000915742
0.0100453
0.000871908
0.0096964
0.000831341
0.0093634
0.000793739
0.00904515
0.000758837
0.00874063
0.000726399
0.00844888
0.000696219
0.00816905
0.000668112
0.00790033
0.000641917
0.00764197
0.000617485
0.0073933
0.000594692
0.00715366
0.000573416
0.00692247
0.00055356
0.00669917
0.000535024
0.00648323
0.000517733
0.00627416
0.000501606
0.0060715
0.000486582
0.00587481
0.000472597
0.00568368
0.000459599
0.00549771
0.000447541
0.00531652
0.000436373
0.00513975
0.000426069
0.00496707
0.00041657
0.00479813
0.000407882
0.00463263
0.00039992
0.00447023
0.000392737
0.00431068
0.0003862
0.00415364
0.000380432
0.00399888
0.000375219
0.00384608
0.000370788
0.00369503
0.000366801
0.00354542
0.000363644
0.00339708
0.000360782
0.00324966
0.000358843
0.00310308
0.00035699
0.00295696
0.000356201
0.00281128
0.000355204
0.00266563
0.000355478
0.00252012
0.000355127
0.00237425
0.000356344
0.00222833
0.000356359
0.00208173
0.000358361
0.00193502
0.000358379
0.00178743
0.000360963
0.00163982
0.000360515
0.00149122
0.000363432
0.00134295
0.000361932
0.00119371
0.000364935
0.0010454
0.000361654
0.000896172
0.000364681
0.000748875
0.000358651
0.000600643
0.000361925
0.000455639
0.000352559
0.000310228
0.000353953
0.00016692
0.000349007
3.22501e-05
0.000326718
-0.000119927
0.00037042
-0.000231526
0.000272357
-0.000370667
0.000323507
-0.000544782
0.000457451
-0.000512646
-0.000139974
-0.000915548
0.00104071
-0.000752678
-0.000394607
-0.000828648
2.91686e-05
-0.00158363
0.00218311
-0.000611297
-0.00273899
-0.00198606
0.00353097
-0.00148699
-0.00103855
-0.000849224
-0.00214177
-0.00330325
0.00699646
-0.000558909
-0.00750479
-0.0030611
0.00612714
-0.00352833
0.00217018
2.83111e-05
-0.0102961
-0.00552072
0.0150341
-0.00266899
-0.00692264
-0.000325281
-0.00772092
-0.00821507
0.0219974
-0.00354958
-0.0113594
0.0019062
-0.0166956
-0.00773558
0.0257537
-0.0101204
0.00859605
-0.00107676
-0.0249039
-0.00382502
0.00611471
-0.00736557
0.0111167
-0.00970137
0.0528519
0.0126391
-0.0519536
0.0538804
0.0135282
0.0545638
0.0140213
0.0546322
0.0140232
0.0540328
0.0136281
0.0528349
0.0129555
0.051168
0.0121103
0.0491785
0.0111808
0.0470011
0.0102341
0.0447465
0.00931511
0.0424969
0.00845179
0.0403083
0.00765881
0.0382154
0.00694168
0.0362366
0.00629982
0.0343794
0.00572895
0.0326438
0.00522294
0.0310258
0.00477492
0.029519
0.00437809
0.0281157
0.00402606
0.0268082
0.00371309
0.0255887
0.00343411
0.02445
0.00318469
0.0233851
0.00296104
0.0223878
0.00275989
0.0214523
0.00257841
0.0205735
0.00241422
0.0197467
0.00226522
0.0189675
0.00212965
0.0182322
0.00200598
0.0175372
0.00189288
0.0168794
0.0017892
0.016256
0.00169395
0.0156644
0.00160627
0.0151022
0.0015254
0.0145673
0.00145067
0.0140577
0.0013815
0.0135716
0.00131739
0.0131075
0.00125787
0.0126638
0.00120255
0.0122391
0.00115108
0.0118322
0.00110313
0.0114418
0.00105843
0.011067
0.00101673
0.0107067
0.000977804
0.01036
0.000941453
0.0100259
0.000907496
0.00970365
0.000875777
0.00939253
0.000846145
0.00909178
0.00081848
0.00880073
0.000792656
0.00851873
0.000768577
0.00824519
0.000746144
0.00797951
0.000725273
0.00772115
0.000705893
0.0074696
0.000687923
0.00722435
0.000671323
0.00698491
0.000656
0.00675083
0.000641961
0.00652167
0.000629078
0.00629699
0.000617423
0.00607638
0.000606805
0.00585942
0.000597389
0.00564576
0.000588879
0.00543497
0.000581581
0.00522674
0.000575028
0.00502064
0.000569744
0.00481642
0.000564998
0.00461363
0.000561636
0.0044121
0.000558522
0.00421132
0.000556975
0.00401126
0.000555267
0.00381134
0.000555395
0.00361169
0.000554782
0.00341164
0.00055639
0.00321155
0.000556456
0.00301062
0.000559292
0.0028095
0.000559498
0.00260724
0.000563229
0.00240488
0.000562873
0.00220122
0.000567092
0.00199786
0.000565296
0.00179321
0.000569585
0.00158961
0.000565253
0.00138483
0.000569465
0.00118236
0.000561119
0.000978712
0.000565571
0.000779103
0.000552168
0.00057895
0.000554104
0.000381748
0.000546208
0.00019451
0.000513956
-1.42851e-05
0.000579212
-0.000168405
0.000426479
-0.000364229
0.000519329
-0.000591783
0.000685006
-0.000576275
-0.000155475
-0.0010941
0.00155852
-0.000889732
-0.000598971
-0.00104266
0.000182107
-0.00194065
0.00308109
-0.000773175
-0.00390647
-0.00253929
0.00529708
-0.00183865
-0.00173919
-0.00119167
-0.00278874
-0.0041087
0.00991349
-0.000727513
-0.010886
-0.00405566
0.00945533
-0.0043525
0.00246698
-0.000136665
-0.014512
-0.00701287
0.0219103
-0.00324017
-0.0106954
-0.000829763
-0.0101312
-0.0103187
0.0314863
-0.00413892
-0.0175392
0.00189183
-0.0227263
-0.0100488
0.0376943
-0.0122434
0.0107906
-0.00123312
-0.0359142
-0.00507592
0.00995755
-0.00876746
0.0148082
-0.0154341
0.0565726
0.0119519
-0.0558855
0.0574262
0.0126746
0.0582227
0.0132248
0.0587492
0.0134968
0.0588835
0.0134938
0.0585797
0.0132592
0.0578474
0.0128426
0.0567344
0.0122939
0.0553091
0.0116594
0.053647
0.0109772
0.0518216
0.0102772
0.0498981
0.00958225
0.0479313
0.00890851
0.0459641
0.00826699
0.0440286
0.00766445
0.0421473
0.00710428
0.0403348
0.00658743
0.0385997
0.00611311
0.0369464
0.00567939
0.0353758
0.00528366
0.033887
0.00492299
0.0324773
0.00459437
0.0311435
0.00429485
0.0298817
0.00402163
0.028688
0.00377212
0.0275583
0.00354395
0.0264885
0.00333498
0.0254749
0.00314329
0.0245137
0.00296717
0.0236015
0.00280509
0.022735
0.00265569
0.0219112
0.00251775
0.0211272
0.00239021
0.0203805
0.00227211
0.0196686
0.0021626
0.0189892
0.00206091
0.0183402
0.00196638
0.0177197
0.00187841
0.0171258
0.00179645
0.0165568
0.00172002
0.0160113
0.00164869
0.0154876
0.00158207
0.0149846
0.00151982
0.0145007
0.00146161
0.014035
0.00140719
0.0135862
0.00135627
0.0131534
0.00130866
0.0127354
0.00126412
0.0123314
0.00122248
0.0119405
0.00118358
0.0115618
0.00114725
0.0111945
0.00111337
0.010838
0.00108182
0.0104914
0.00105247
0.0101541
0.00102523
0.00982539
0.00100003
0.00950465
0.00097674
0.00919125
0.000955358
0.00888462
0.00093571
0.00858415
0.000917885
0.00828933
0.000901626
0.00799957
0.000887147
0.0077144
0.000874047
0.00743325
0.000862732
0.0071557
0.000852577
0.00688117
0.000844274
0.00660932
0.000836848
0.00633953
0.000831419
0.00607158
0.000826477
0.00580479
0.000823764
0.00553907
0.000820987
0.00527368
0.000820781
0.00500873
0.000819734
0.00474338
0.000821748
0.00447799
0.000821842
0.00421159
0.000825699
0.00394492
0.000826171
0.00367678
0.000831371
0.00340843
0.00083122
0.00313838
0.000837145
0.00286856
0.000835114
0.00259703
0.000841115
0.00232665
0.000835636
0.00205468
0.000841432
0.00178543
0.000830369
0.00151464
0.000836364
0.00124877
0.000818036
0.000982101
0.000820771
0.000719458
0.000808849
0.000468116
0.000765299
0.000194
0.000853324
-1.38183e-05
0.0006343
-0.000281849
0.000787357
-0.000570951
0.000974108
-0.000585368
-0.000141061
-0.00122734
0.00220049
-0.00098755
-0.000838756
-0.00124008
0.000434638
-0.00227134
0.00411233
-0.000927692
-0.00525011
-0.00310086
0.00747026
-0.00218585
-0.00265422
-0.00158557
-0.00338899
-0.00491362
0.0132415
-0.000910723
-0.0148889
-0.00512741
0.0136721
-0.00518616
0.00252567
-0.000398881
-0.0192992
-0.00854334
0.0300548
-0.00381379
-0.015425
-0.00153722
-0.0124077
-0.012439
0.042388
-0.00467643
-0.0253019
0.00164779
-0.0290505
-0.0124463
0.0517884
-0.0142002
0.0125445
-0.001356
-0.0487584
-0.00636807
0.0149697
-0.00984253
0.0182827
-0.0231009
0.0605786
0.0113886
-0.0600153
0.0612631
0.0119901
0.0619777
0.0125102
0.0625997
0.0128748
0.0630314
0.0130621
0.0632089
0.0130817
0.0630967
0.0129549
0.0626842
0.0127064
0.0619818
0.0123618
0.061014
0.011945
0.0598153
0.0114759
0.0584255
0.0109721
0.0568857
0.0104483
0.055236
0.00991668
0.0535133
0.00938711
0.0517501
0.0088675
0.0499736
0.00836389
0.0482061
0.0078807
0.0464645
0.00742089
0.044762
0.00698622
0.0431075
0.00657746
0.0415073
0.0061946
0.039965
0.00583708
0.0384827
0.00550394
0.0370609
0.00519398
0.035699
0.00490585
0.0343958
0.00463812
0.0331497
0.00438939
0.0319586
0.00415826
0.0308203
0.00394341
0.0297324
0.00374361
0.0286925
0.00355767
0.0276982
0.00338453
0.0267471
0.00322317
0.025837
0.0030727
0.0249656
0.00293227
0.0241309
0.00280112
0.0233308
0.00267854
0.0225633
0.00256391
0.0218267
0.00245665
0.0211191
0.00235623
0.020439
0.00226217
0.0197848
0.00217405
0.0191549
0.00209145
0.0185481
0.00201404
0.0179629
0.00194147
0.0173981
0.00187347
0.0168524
0.00180974
0.0163249
0.00175007
0.0158142
0.00169421
0.0153195
0.00164197
0.0148397
0.00159317
0.0143739
0.00154764
0.0139211
0.00150525
0.0134805
0.00146582
0.0130513
0.00142929
0.0126325
0.00139546
0.0122235
0.00136435
0.0118235
0.00133572
0.0114317
0.00130967
0.0110475
0.00128588
0.01067
0.0012646
0.0102987
0.00124533
0.00993289
0.00122858
0.00957192
0.00121354
0.00921509
0.00120111
0.00886192
0.00119001
0.00851164
0.0011817
0.00816391
0.00117421
0.00781787
0.0011698
0.00747336
0.0011655
0.00712944
0.0011647
0.00678618
0.00116299
0.00644252
0.00116541
0.00609887
0.00116549
0.00575397
0.0011706
0.00540872
0.00117143
0.00506158
0.00117851
0.00471409
0.00117872
0.00436436
0.00118688
0.00401474
0.00118473
0.00366283
0.00119303
0.00331212
0.00118635
0.00295925
0.0011943
0.00260949
0.00118013
0.00225766
0.0011882
0.00191169
0.001164
0.0015645
0.00116796
0.00122266
0.00115069
0.000893161
0.00109479
0.000539594
0.00120689
0.000257847
0.000916049
-9.1563e-05
0.00113676
-0.000450389
0.00133293
-0.000510811
-8.06122e-05
-0.00128732
0.00297699
-0.00102158
-0.0011045
-0.00139754
0.000810608
-0.00255318
0.00526795
-0.00105856
-0.00674473
-0.00364502
0.0100567
-0.00251374
-0.00378552
-0.00201862
-0.00388407
-0.00570177
0.0169247
-0.00110517
-0.0194855
-0.00624136
0.0188083
-0.00602214
0.00230641
-0.000777412
-0.0245439
-0.0100804
0.0393577
-0.00439445
-0.021111
-0.00244314
-0.0143589
-0.0145393
0.0544841
-0.0051863
-0.0346549
0.00116216
-0.0353988
-0.0148338
0.0677844
-0.0159284
0.013639
-0.00143265
-0.0632542
-0.00759685
0.0211339
-0.0104398
0.0211256
-0.0329645
0.0648635
0.010904
-0.0643788
0.065429
0.0114246
0.0660367
0.0119025
0.0666215
0.0122901
0.0671206
0.012563
0.0674857
0.0127167
0.0676812
0.0127593
0.0676834
0.0127042
0.0674789
0.0125663
0.0670637
0.0123601
0.0664414
0.0120982
0.0656226
0.0117909
0.064623
0.0114479
0.0634626
0.0110771
0.0621639
0.0106857
0.0607513
0.0102802
0.0592488
0.00986632
0.0576801
0.00944945
0.0560667
0.00903423
0.0544282
0.0086247
0.0527815
0.00822423
0.0511406
0.00783551
0.0495171
0.00746055
0.0479202
0.00710081
0.046357
0.0067572
0.0448326
0.00643019
0.0433509
0.00611988
0.0419141
0.00582613
0.0405238
0.00554855
0.0391806
0.00528664
0.0378845
0.00503976
0.0366349
0.00480725
0.035431
0.00458838
0.0342718
0.00438244
0.0331558
0.00418869
0.0320816
0.00400645
0.0310477
0.00383503
0.0300524
0.00367378
0.0290943
0.0035221
0.0281715
0.00337942
0.0272825
0.00324518
0.0264258
0.00311889
0.0255998
0.00300009
0.0248029
0.00288833
0.0240337
0.00278322
0.0232908
0.00268437
0.0225728
0.00259146
0.0218784
0.00250417
0.0212063
0.0024222
0.0205552
0.00234529
0.0199239
0.0022732
0.0193114
0.00220571
0.0187164
0.00214261
0.0181379
0.00208373
0.0175749
0.00202886
0.0170263
0.00197791
0.0164911
0.00193065
0.0159684
0.00188708
0.0154572
0.00184689
0.0149566
0.00181025
0.0144658
0.00177671
0.0139837
0.00174662
0.0135098
0.00171931
0.0130429
0.00169545
0.0125825
0.001674
0.0121275
0.0016561
0.0116773
0.00164013
0.0112311
0.00162796
0.0107882
0.00161705
0.0103477
0.00161031
0.00990932
0.00160391
0.00947181
0.00160222
0.00903524
0.00159955
0.00859827
0.00160239
0.00816136
0.00160241
0.0077229
0.00160905
0.00728396
0.00161038
0.0068426
0.00161987
0.00640066
0.00162066
0.00595577
0.00163177
0.00551079
0.00162971
0.00506272
0.0016411
0.00461581
0.00163326
0.00416594
0.00164417
0.00371952
0.00162655
0.00327024
0.00163747
0.00282783
0.00160641
0.00238351
0.00161228
0.00194611
0.0015881
0.00152168
0.00151922
0.00107258
0.00165598
0.00070186
0.00128677
0.000258299
0.00158032
-0.000187118
0.00177835
-0.000313268
4.55146e-05
-0.0012372
0.00390092
-0.000957872
-0.00138383
-0.0014829
0.00133564
-0.00275624
0.00654127
-0.00114203
-0.00835894
-0.00413836
0.0130531
-0.00279989
-0.00512401
-0.00246847
-0.00421545
-0.00645419
0.0209103
-0.00130435
-0.0246354
-0.00735262
0.0248566
-0.0068471
0.00180075
-0.00127469
-0.0301163
-0.0115951
0.0496782
-0.00498427
-0.0277219
-0.00352185
-0.0158212
-0.0165897
0.0675519
-0.00569567
-0.045549
0.000443284
-0.0415377
-0.0171024
0.0853301
-0.0173589
0.0138954
-0.00142962
-0.0791835
-0.00861811
0.0283225
-0.010392
0.0228995
-0.0453408
0.0694362
0.0104763
-0.0690085
0.0699198
0.010941
0.0704404
0.0113819
0.0709623
0.0117682
0.0714457
0.0120795
0.0718569
0.0123054
0.0721699
0.0124463
0.0723654
0.0125088
0.0724291
0.0125026
0.0723512
0.0124381
0.0721247
0.0123247
0.0717457
0.0121699
0.0712138
0.0119798
0.0705312
0.0117597
0.0697034
0.0115135
0.0687388
0.0112447
0.0676487
0.0109565
0.0664463
0.0106518
0.0651467
0.0103338
0.0637657
0.0100057
0.0623193
0.00967067
0.0608231
0.00933173
0.0592918
0.00899184
0.0577389
0.0086537
0.0561764
0.00831967
0.0546148
0.00799178
0.053063
0.00767173
0.0515283
0.00736082
0.0500167
0.00706008
0.0485332
0.00677022
0.0470812
0.00649171
0.0456637
0.0062248
0.0442825
0.00596958
0.0429389
0.00572599
0.0416337
0.00549388
0.0403672
0.00527298
0.0391392
0.005063
0.0379494
0.00486358
0.0367972
0.00467436
0.0356816
0.00449493
0.0346019
0.00432491
0.0335569
0.0041639
0.0325455
0.00401151
0.0315665
0.00386736
0.0306186
0.00373109
0.0297006
0.00360235
0.0288113
0.00348081
0.0279493
0.00336616
0.0271134
0.0032581
0.0263023
0.00315636
0.0255148
0.00306069
0.0247497
0.00297084
0.0240057
0.00288659
0.0232817
0.00280775
0.0225764
0.00273409
0.0218888
0.00266552
0.0212177
0.00260174
0.020562
0.0025428
0.0199206
0.00248832
0.0192923
0.00243849
0.0186763
0.00239277
0.0180713
0.00235162
0.0174764
0.00231419
0.0168905
0.00228135
0.0163127
0.00225176
0.0157419
0.00222691
0.0151773
0.00220471
0.0146177
0.00218756
0.0140626
0.00217223
0.0135104
0.00216243
0.0129611
0.00215329
0.0124129
0.00215038
0.011866
0.00214645
0.0113186
0.00214975
0.0107713
0.00214969
0.0102221
0.00215828
0.00967218
0.00216032
0.00911912
0.00217293
0.00856513
0.00217466
0.00800723
0.00218966
0.0074489
0.00218804
0.00688637
0.00220363
0.00632483
0.00219479
0.00575918
0.00220983
0.00519722
0.00218851
0.00463128
0.00220341
0.00407318
0.00216451
0.00351213
0.00217332
0.00295981
0.00214042
0.00242051
0.00205852
0.00185694
0.00221955
0.0013774
0.00176632
0.000822279
0.00213544
0.00026793
0.0023327
6.01054e-05
0.000253375
-0.00102896
0.00498998
-0.000749698
-0.0016631
-0.00145297
0.00203892
-0.00284037
0.00792864
-0.00114429
-0.010055
-0.00453843
0.0164472
-0.00301154
-0.00665092
-0.0028997
-0.00432724
-0.00714587
0.0251565
-0.00149581
-0.0302855
-0.00840721
0.0317681
-0.00763613
0.00103021
-0.0018776
-0.0358748
-0.0130605
0.0608611
-0.00557836
-0.0352041
-0.00471992
-0.0166795
-0.0185603
0.0813923
-0.00622296
-0.0578865
-0.000402814
-0.0473577
-0.0191312
0.104059
-0.0184076
0.0131717
-0.00128003
-0.096311
-0.00924586
0.0362884
-0.00951634
0.02317
-0.0603911
0.0743163
0.0100931
-0.0739331
0.0747407
0.0105165
0.0751954
0.0109272
0.0756596
0.011304
0.0761075
0.0116317
0.0765144
0.0118985
0.0768606
0.0121001
0.0771315
0.0122379
0.0773167
0.0123174
0.0774088
0.0123459
0.0774022
0.0123313
0.0772916
0.0122804
0.0770727
0.0121987
0.0767417
0.0120907
0.0762955
0.0119598
0.0757321
0.0118081
0.0750513
0.0116373
0.0742549
0.0114482
0.0733467
0.011242
0.0723327
0.0110197
0.071221
0.0107824
0.0700209
0.0105318
0.0687432
0.0102696
0.0673992
0.00999774
0.0660004
0.00971842
0.0645584
0.00943379
0.0630842
0.00914598
0.0615879
0.00885705
0.0600792
0.00856887
0.0585662
0.00828316
0.0570565
0.0080014
0.0555565
0.00772487
0.0540714
0.00745461
0.052606
0.00719147
0.0511637
0.00693612
0.0497476
0.00668905
0.04836
0.00645062
0.0470026
0.00622103
0.0456765
0.00600043
0.0443826
0.00578884
0.0431213
0.00558623
0.0418927
0.0053925
0.0406966
0.00520753
0.0395328
0.00503116
0.0384007
0.00486319
0.0372997
0.00470342
0.0362288
0.00455165
0.0351873
0.00440765
0.0341742
0.00427122
0.0331884
0.00414212
0.032229
0.00402016
0.0312947
0.00390513
0.0303844
0.00379684
0.029497
0.00369513
0.0286314
0.00359975
0.0277862
0.00351066
0.0269604
0.00342754
0.0261528
0.00335048
0.025362
0.00327902
0.0245871
0.00321348
0.0238267
0.00315317
0.0230796
0.00309871
0.0223447
0.00304905
0.0216207
0.0030053
0.0209067
0.0029658
0.0202012
0.00293243
0.0195033
0.0029026
0.0188115
0.00287932
0.0181252
0.00285855
0.0174427
0.00284497
0.0167635
0.00283246
0.0160858
0.00282804
0.0154097
0.00282259
0.0147329
0.00282651
0.0140562
0.00282647
0.0133768
0.0028376
0.0126965
0.00284071
0.0120119
0.00285744
0.011326
0.00286066
0.0106348
0.00288087
0.00994254
0.00288026
0.00924459
0.00290158
0.00854723
0.00289215
0.00784412
0.00291294
0.00714476
0.00288787
0.00643978
0.00290839
0.00574353
0.00286076
0.0050428
0.00287405
0.00435278
0.00283043
0.00367508
0.00273622
0.00297461
0.00292001
0.00236221
0.00237873
0.00167261
0.00282504
0.000984341
0.00302097
0.000662817
0.000574897
-0.000601406
0.00625419
-0.000330711
-0.00193379
-0.00125105
0.00295927
-0.00275144
0.00942901
-0.00101809
-0.0117884
-0.00479159
0.0202207
-0.003102
-0.00834053
-0.00326075
-0.00416845
-0.00774025
0.029636
-0.00165641
-0.0363693
-0.00934325
0.039455
-0.00834801
3.92711e-05
-0.00254888
-0.0416739
-0.0144444
0.0727565
-0.00615708