/*--------------------------------*- C++ -*----------------------------------*\
| =========                 |                                                 |
| \\      /  F ield         | OpenFOAM: The Open Source CFD Toolbox           |
|  \\    /   O peration     | Version:  2412                                  |
|   \\  /    A nd           | Website:  www.openfoam.com                      |
|    \\/     M anipulation  |                                                 |
\*---------------------------------------------------------------------------*/
FoamFile
{
    version     2.0;
    format      ascii;
    arch        "LSB;label=32;scalar=64";
    class       volScalarField;
    location    "1.495";
    object      p;
}
// * * * * * * * * * * * * * * * * * * * * * * * * * * * * * * * * * * * * * //

dimensions      [0 2 -2 0 0 0 0];

internalField   nonuniform List<scalar> 
12600
(
-0.0415943
-154.803
-204.85
-201.559
-189.045
-177.414
-167.216
-158.092
-149.825
-142.252
-135.244
-128.704
-122.56
-116.754
-111.238
-105.976
-100.936
-96.092
-91.4223
-86.9081
-82.5331
-78.2836
-74.1474
-70.1137
-66.1733
-62.3177
-58.5395
-54.832
-51.1893
-47.6058
-44.0765
-40.597
-37.1631
-33.7709
-30.417
-27.098
-23.8109
-20.5528
-17.3211
-14.1132
-10.9268
-7.75966
-4.60957
-1.47458
1.64729
4.75781
7.85882
10.9519
14.0388
17.1209
20.1998
23.2768
26.3534
29.4307
32.5102
35.5927
38.6798
41.7719
44.8706
47.9762
51.0899
54.2119
57.3433
60.4839
63.6345
66.7948
69.9649
73.1446
76.3331
79.5301
82.7339
85.9445
89.1583
92.3762
95.5921
98.8082
102.015
105.217
108.4
111.571
114.711
117.831
120.907
123.952
126.937
129.879
132.75
135.558
138.29
140.934
143.507
145.963
148.351
150.618
152.777
154.898
156.771
158.725
160.54
161.692
164.541
164.415
166.747
168.141
168.589
171.391
170.181
172.375
176.413
168.07
180.969
173.39
176.769
182.611
174.179
183.924
168.707
169.875
185.033
227.097
-24.157
-123.869
-171.299
-180.886
-177.623
-170.836
-163.046
-155.242
-147.781
-140.737
-134.097
-127.824
-121.878
-116.221
-110.821
-105.65
-100.681
-95.8949
-91.2715
-86.7947
-82.4504
-78.2259
-74.1103
-70.0937
-66.1673
-62.3234
-58.5549
-54.8554
-51.2192
-47.6411
-44.1163
-40.6404
-37.2094
-33.8196
-30.4675
-27.1499
-23.8639
-20.6065
-17.3753
-14.1677
-10.9814
-7.8141
-4.6638
-1.52848
1.59381
4.70483
7.8064
10.9001
13.9876
17.0704
20.15
23.2278
26.3051
29.3832
32.4635
35.5468
38.6346
41.7275
44.827
47.9333
51.0478
54.1706
57.3027
60.444
63.5954
66.7564
69.9272
73.1076
76.2968
79.4946
82.6991
85.9104
89.125
92.3436
95.5602
98.777
101.985
105.187
108.371
111.543
114.684
117.805
120.881
123.927
126.913
129.856
132.728
135.536
138.27
140.914
143.488
145.945
148.334
150.602
152.762
154.883
156.758
158.711
160.531
161.678
164.532
164.41
166.733
168.135
168.578
171.385
170.181
172.352
176.427
168.063
180.947
173.409
176.74
182.616
174.179
183.937
168.766
169.861
184.872
226.97
-40.9623
-102.412
-145.195
-162.629
-165.918
-163.25
-158.073
-151.891
-145.43
-139.028
-132.82
-126.85
-121.125
-115.633
-110.359
-105.284
-100.392
-95.6661
-91.0911
-86.6535
-82.3409
-78.1425
-74.0482
-70.0491
-66.1373
-62.3053
-58.5467
-54.8555
-51.2262
-47.6537
-44.1335
-40.6615
-37.2336
-33.8463
-30.4962
-27.1803
-23.8955
-20.6391
-17.4085
-14.2014
-11.0154
-7.84826
-4.69797
-1.56254
1.55994
4.67124
7.77315
10.8672
13.9552
17.0385
20.1186
23.1968
26.2747
29.3534
32.4342
35.5181
38.6064
41.6999
44.7999
47.9069
51.0219
54.1452
57.2779
60.4198
63.5716
66.7332
69.9046
73.0855
76.2752
79.4735
82.6785
85.8903
89.1054
92.3244
95.5416
98.7589
101.967
105.17
108.354
111.527
114.668
117.79
120.867
123.913
126.9
129.843
132.715
135.525
138.259
140.904
143.478
145.935
148.325
150.594
152.754
154.876
156.751
158.705
160.527
161.671
164.527
164.407
166.726
168.133
168.573
171.383
170.18
172.341
176.435
168.057
180.936
173.42
176.726
182.619
174.179
183.947
168.798
169.846
184.805
226.909
-48.8673
-88.6551
-124.073
-144.577
-152.762
-154.029
-151.694
-147.452
-142.28
-136.739
-131.119
-125.561
-120.131
-114.857
-109.747
-104.799
-100.006
-95.3577
-90.8451
-86.4578
-82.1862
-78.0213
-73.9546
-69.9783
-66.0854
-62.2693
-58.5238
-54.8436
-51.2234
-47.6587
-44.1449
-40.6782
-37.2549
-33.8713
-30.5243
-27.2108
-23.9281
-20.6734
-17.4442
-14.2381
-11.0528
-7.88629
-4.73638
-1.6012
1.52118
4.63248
7.73449
10.8288
13.917
17.0005
20.081
23.1596
26.238
29.3171
32.3983
35.4827
38.5716
41.6656
44.7661
47.8736
50.9891
54.113
57.2462
60.3887
63.5411
66.7031
69.8751
73.0565
76.2468
79.4456
82.6512
85.8635
89.0791
92.2988
95.5165
98.7343
101.943
105.147
108.331
111.505
114.647
117.769
120.846
123.893
126.881
129.825
132.698
135.508
138.243
140.888
143.463
145.921
148.311
150.581
152.742
154.865
156.741
158.694
160.519
161.659
164.52
164.402
166.715
168.129
168.565
171.379
170.179
172.324
176.447
168.048
180.921
173.434
176.702
182.625
174.179
183.961
168.841
169.821
184.665
226.809
-53.8986
-80.3837
-107.293
-126.951
-138.04
-142.771
-143.379
-141.399
-137.872
-133.496
-128.699
-123.728
-118.724
-113.763
-108.888
-104.118
-99.4631
-94.9234
-90.4967
-86.1782
-81.9623
-77.8426
-73.8131
-69.8675
-66
-62.205
-58.4772
-54.8117
-51.2039
-47.6495
-44.1445
-40.6851
-37.2678
-33.8893
-30.5466
-27.2367
-23.9569
-20.7046
-17.4774
-14.2729
-11.0889
-7.92333
-4.77416
-1.6395
1.48253
4.59363
7.69557
10.7899
13.8782
16.962
20.0428
23.1217
26.2005
29.28
32.3617
35.4466
38.536
41.6305
44.7316
47.8396
50.9557
54.0801
57.2139
60.3569
63.5099
66.6725
69.8451
73.0271
76.2179
79.4174
82.6235
85.8365
89.0527
92.2729
95.4912
98.7097
101.919
105.123
108.309
111.482
114.625
117.748
120.826
123.874
126.862
129.807
132.681
135.491
138.227
140.873
143.449
145.908
148.299
150.569
152.731
154.855
156.731
158.684
160.512
161.649
164.513
164.398
166.705
168.125
168.557
171.376
170.177
172.308
176.459
168.038
180.906
173.448
176.68
182.631
174.18
183.977
168.881
169.786
184.548
226.719
-57.1661
-75.3118
-94.9193
-111.789
-123.609
-130.506
-133.53
-133.745
-132.033
-129.067
-125.329
-121.146
-116.728
-112.207
-107.665
-103.15
-98.6912
-94.3049
-89.9992
-85.7771
-81.6386
-77.5817
-73.6033
-69.6998
-65.8669
-62.1006
-58.3967
-54.7512
-51.1602
-47.6198
-44.1266
-40.6772
-37.2683
-33.8969
-30.5601
-27.2552
-23.9795
-20.7307
-17.5064
-14.3042
-11.1222
-7.95818
-4.81027
-1.6766
1.44469
4.55524
7.65681
10.7509
13.8392
16.9229
20.0038
23.083
26.1619
29.2418
32.3239
35.4091
38.4989
41.594
44.6955
47.804
50.9206
54.0456
57.1799
60.3235
63.477
66.6403
69.8133
72.9959
76.1874
79.3874
82.5941
85.8077
89.0245
92.2454
95.4643
98.6835
101.893
105.098
108.284
111.459
114.603
117.726
120.805
123.853
126.842
129.787
132.662
135.474
138.21
140.857
143.434
145.894
148.285
150.556
152.718
154.843
156.72
158.673
160.505
161.636
164.507
164.393
166.694
168.121
168.548
171.373
170.175
172.291
176.473
168.025
180.892
173.463
176.654
182.639
174.18
183.996
168.922
169.739
184.399
226.617
-58.7672
-71.7804
-86.1076
-99.7981
-110.867
-118.556
-123.085
-125.024
-124.969
-123.45
-120.903
-117.667
-113.989
-110.043
-105.947
-101.78
-97.5938
-93.4221
-89.2865
-85.2002
-81.1707
-77.202
-73.2953
-69.4504
-65.6658
-61.9394
-58.2686
-54.6507
-51.0827
-47.5617
-44.0847
-40.649
-37.2516
-33.89
-30.5614
-27.2634
-23.9936
-20.7497
-17.5294
-14.3308
-11.1516
-7.98995
-4.84398
-1.71188
1.40814
4.5177
7.61851
10.712
13.7999
16.8834
19.9642
23.0434
26.1224
29.2024
32.2848
35.3703
38.4605
41.5559
44.6579
47.7668
50.8839
54.0094
57.1442
60.2884
63.4424
66.6062
69.7799
72.9631
76.1551
79.3558
82.5631
85.7773
88.9948
92.2163
95.4359
98.6557
101.866
105.072
108.259
111.434
114.578
117.703
120.782
123.831
126.821
129.767
132.643
135.455
138.193
140.84
143.418
145.878
148.271
150.543
152.705
154.832
156.709
158.662
160.497
161.624
164.5
164.387
166.682
168.117
168.539
171.369
170.171
172.273
176.489
168.01
180.877
173.478
176.627
182.649
174.181
184.018
168.961
169.676
184.243
226.51
-59.2072
-68.9728
-79.6955
-90.5431
-100.184
-107.715
-112.915
-115.964
-117.186
-116.933
-115.538
-113.296
-110.448
-107.18
-103.633
-99.907
-96.0749
-92.188
-88.2817
-84.3806
-80.5014
-76.6549
-72.848
-69.085
-65.3678
-61.6971
-58.0726
-54.4931
-50.9573
-47.4632
-44.0088
-40.5921
-37.2108
-33.8626
-30.5455
-27.2572
-23.9955
-20.7585
-17.5441
-14.3503
-11.1752
-8.01705
-4.87395
-1.74423
1.37383
4.48181
7.58134
10.6739
13.761
16.8439
19.9243
23.0032
26.0821
29.1621
32.2446
35.3303
38.4207
41.5164
44.6187
47.7281
50.8456
53.9716
57.1069
60.2515
63.4061
66.5705
69.7447
72.9285
76.1211
79.3224
82.5304
85.7453
88.9633
92.1856
95.4058
98.6264
101.838
105.044
108.232
111.408
114.553
117.678
120.758
123.808
126.799
129.746
132.623
135.435
138.174
140.823
143.401
145.862
148.256
150.529
152.692
154.819
156.697
158.651
160.488
161.611
164.493
164.381
166.669
168.113
168.529
171.367
170.166
172.255
176.506
167.992
180.863
173.494
176.596
182.662
174.183
184.046
168.999
169.594
184.063
226.395
-58.9336
-66.4994
-74.7374
-83.2964
-91.383
-98.2538
-103.529
-107.147
-109.22
-109.941
-109.531
-108.213
-106.19
-103.638
-100.698
-97.4813
-94.0722
-90.5351
-86.9174
-83.2543
-79.5713
-75.8868
-72.214
-68.5619
-64.9368
-61.3426
-57.7819
-54.2557
-50.7645
-47.3078
-43.8849
-40.4947
-37.1357
-33.8064
-30.5052
-27.2304
-23.9802
-20.7528
-17.5466
-14.3597
-11.1905
-8.03728
-4.89834
-1.77209
1.34307
4.44865
7.5462
10.6371
13.7229
16.8049
19.8845
22.9628
26.0413
29.1211
32.2034
35.2891
38.3796
41.4755
44.578
47.6877
50.8056
53.9319
57.0677
60.2128
63.3679
66.5328
69.7076
72.892
76.0853
79.2872
82.4958
85.7113
88.9301
92.1531
95.3741
98.5953
101.807
105.015
108.203
111.38
114.526
117.652
120.733
123.784
126.776
129.723
132.601
135.415
138.154
140.804
143.383
145.845
148.24
150.514
152.678
154.806
156.684
158.639
160.479
161.597
164.487
164.375
166.655
168.109
168.519
171.364
170.16
172.237
176.526
167.97
180.85
173.509
176.563
182.678
174.185
184.078
169.034
169.488
183.862
226.271
-58.1881
-64.1658
-70.6365
-77.4401
-84.1151
-90.1329
-95.1195
-98.9025
-101.458
-102.852
-103.21
-102.675
-101.403
-99.5381
-97.2109
-94.5296
-91.5826
-88.4404
-85.1582
-81.7788
-78.3351
-74.8521
-71.3489
-67.8394
-64.3343
-60.8412
-57.3656
-53.9111
-50.4803
-47.0746
-43.6948
-40.341
-37.0128
-33.7097
-30.4306
-27.1746
-23.9403
-20.7265
-17.5318
-14.3547
-11.1938
-8.04753
-4.9145
-1.79326
1.3177
4.41975
7.51437
10.6028
13.6867
16.767
19.8453
22.9226
26.0003
29.0794
32.1614
35.2468
38.3372
41.4331
44.5357
47.6456
50.7638
53.8904
57.0266
60.1721
63.3278
66.4932
69.6685
72.8535
76.0474
79.2499
82.4592
85.6754
88.8949
92.1186
95.3404
98.5625
101.775
104.983
108.173
111.35
114.497
117.624
120.706
123.758
126.751
129.7
132.578
135.393
138.134
140.784
143.365
145.828
148.223
150.498
152.663
154.793
156.671
158.627
160.469
161.582
164.48
164.367
166.641
168.105
168.507
171.363
170.153
172.218
176.548
167.943
180.838
173.525
176.525
182.696
174.187
184.117
169.065
169.354
183.635
226.136
-57.1006
-61.887
-67.0606
-72.5337
-78.0229
-83.1738
-87.686
-91.365
-94.1163
-95.9244
-96.8317
-96.9186
-96.2852
-95.0405
-93.2918
-91.1367
-88.6597
-85.932
-83.012
-79.9471
-76.7751
-73.5261
-70.2238
-66.8866
-63.5289
-60.1618
-56.7938
-53.4313
-50.0789
-46.7402
-43.4175
-40.1123
-36.8257
-33.558
-30.3091
-27.0788
-23.8665
-20.6715
-17.4927
-14.3292
-11.1798
-8.04345
-4.91879
-1.80465
1.3003
4.39727
7.48762
10.5725
13.6533
16.7312
19.8074
22.8831
25.9595
29.0376
32.1188
35.2037
38.2936
41.3893
44.4919
47.6017
50.72
53.8469
56.9834
60.1293
63.2853
66.4512
69.6271
72.8127
76.0071
79.2103
82.4203
85.6373
88.8576
92.082
95.3046
98.5276
101.741
104.95
108.14
111.319
114.467
117.595
120.678
123.731
126.725
129.675
132.554
135.37
138.112
140.763
143.345
145.809
148.206
150.482
152.647
154.778
156.657
158.614
160.459
161.565
164.475
164.36
166.625
168.101
168.495
171.362
170.143
172.199
176.573
167.912
180.826
173.54
176.484
182.72
174.19
184.164
169.093
169.188
183.379
225.985
-55.7524
-59.6266
-63.8219
-68.2775
-72.802
-77.1595
-81.1324
-84.5496
-87.2951
-89.307
-90.5728
-91.1202
-91.0031
-90.2917
-89.0654
-87.4043
-85.3833
-83.0694
-80.5203
-77.7849
-74.9039
-71.9107
-68.8323
-65.6906
-62.5033
-59.2844
-56.0451
-52.7941
-49.5383
-46.2831
-43.0325
-39.7897
-36.5567
-33.3352
-30.1262
-26.9302
-23.7473
-20.5775
-17.4204
-14.2755
-11.142
-8.01928
-4.90626
-1.80205
1.29444
4.38423
7.46848
10.5482
13.6247
16.6989
19.7722
22.8453
25.9197
28.9961
32.0759
35.1598
38.249
41.3441
44.4463
47.556
50.6742
53.8012
56.9378
60.084
63.2404
66.4068
69.5831
72.7692
75.9643
79.1682
82.3789
85.5966
88.8177
92.043
95.2664
98.4903
101.705
104.915
108.106
111.286
114.435
117.564
120.648
123.702
126.697
129.648
132.529
135.346
138.089
140.742
143.325
145.79
148.187
150.464
152.63
154.764
156.642
158.601
160.448
161.548
164.469
164.351
166.608
168.098
168.482
171.363
170.131
172.179
176.601
167.874
180.817
173.555
176.437
182.748
174.194
184.22
169.115
168.984
183.09
225.818
-54.2044
-57.3683
-60.8075
-64.4719
-68.2191
-71.8883
-75.3293
-78.4093
-81.0184
-83.0776
-84.543
-85.4048
-85.6812
-85.408
-84.6357
-83.423
-81.8306
-79.9168
-77.7352
-75.3333
-72.7523
-70.0272
-67.1875
-64.2576
-61.2576
-58.2041
-55.1105
-51.9877
-48.8446
-45.6882
-42.5242
-39.357
-36.1902
-33.0264
-29.8676
-26.7152
-23.5703
-20.4333
-17.3047
-14.1845
-11.0723
-7.96789
-4.87066
-1.78004
1.30481
4.38461
7.46035
10.5328
13.6032
16.6722
19.741
22.8105
25.8818
28.9557
32.0335
35.1157
38.2036
41.2977
44.3991
47.5083
50.6262
53.753
56.8896
60.036
63.1926
66.3593
69.5361
72.7227
75.9184
79.123
82.3344
85.5529
88.7748
92.001
95.2254
98.4503
101.666
104.877
108.069
111.25
114.4
117.531
120.616
123.671
126.668
129.62
132.503
135.321
138.065
140.719
143.303
145.769
148.168
150.446
152.613
154.748
156.627
158.587
160.436
161.53
164.465
164.342
166.59
168.094
168.469
171.364
170.116
172.159
176.634
167.829
180.809
173.57
176.385
182.781
174.198
184.286
169.134
168.74
182.766
225.628
-52.5043
-55.1046
-57.9467
-60.9855
-64.106
-67.1935
-70.1461
-72.8675
-75.2666
-77.2651
-78.8062
-79.8581
-80.413
-80.4813
-80.0874
-79.2678
-78.0665
-76.5299
-74.7039
-72.632
-70.3533
-67.9028
-65.311
-62.6037
-59.8031
-56.9277
-53.9929
-51.0116
-47.9941
-44.9494
-41.8843
-38.8048
-35.7155
-32.6202
-29.5217
-26.4225
-23.3243
-20.2283
-17.1356
-14.0467
-10.9619
-7.88137
-4.80489
-1.73224
1.33703
4.40338
7.46753
10.5301
13.5918
16.6535
19.7162
22.7804
25.8473
28.9175
31.9922
35.0719
38.1577
41.2501
44.3503
47.4585
50.5757
53.7021
56.8385
59.9847
63.1414
66.3084
69.4855
72.6726
75.8689
79.0741
82.2863
85.5056
88.7284
91.9556
95.181
98.407
101.624
104.836
108.03
111.212
114.363
117.495
120.582
123.639
126.637
129.59
132.474
135.294
138.04
140.695
143.281
145.748
148.148
150.427
152.595
154.732
156.61
158.573
160.423
161.51
164.461
164.331
166.568
168.091
168.454
171.368
170.099
172.139
176.671
167.776
180.804
173.584
176.326
182.821
174.203
184.363
169.149
168.453
182.407
225.412
-50.6809
-52.8283
-55.1919
-57.7295
-60.3421
-62.9433
-65.4642
-67.8381
-69.9946
-71.8653
-73.3924
-74.5345
-75.268
-75.5854
-75.4915
-75.0031
-74.147
-72.956
-71.4662
-69.7141
-67.7347
-65.5609
-63.2224
-60.7456
-58.1536
-55.4663
-52.7007
-49.8714
-46.9903
-44.0677
-41.112
-38.1303
-35.1283
-32.1109
-29.0819
-26.0446
-23.0013
-19.9542
-16.9047
-13.854
-10.803
-7.75213
-4.70177
-1.65204
1.39719
4.44603
7.49495
10.5442
13.5946
16.6464
19.7005
22.7575
25.8182
28.8831
31.9534
35.0293
38.1121
41.202
44.3002
47.4067
50.5227
53.6482
56.7839
59.9298
63.0864
66.2533
69.4307
72.6181
75.8149
79.0207
82.2337
85.4539
88.6776
91.9059
95.1324
98.3596
101.578
104.791
107.986
111.17
114.323
117.456
120.545
123.603
126.603
129.558
132.444
135.265
138.012
140.669
143.256
145.725
148.127
150.408
152.577
154.715
156.593
158.559
160.41
161.49
164.458
164.32
166.548
168.088
168.438
171.373
170.077
172.119
176.714
167.713
180.803
173.597
176.259
182.868
174.209
184.453
169.162
168.125
182.013
225.167
-48.7557
-50.5358
-52.5113
-54.6424
-56.8403
-59.0365
-61.1838
-63.2375
-65.1457
-66.8529
-68.3066
-69.464
-70.2942
-70.7784
-70.9088
-70.6868
-70.1238
-69.2394
-68.0584
-66.6089
-64.9198
-63.02
-60.9367
-58.6955
-56.3193
-53.8286
-51.2415
-48.5735
-45.8382
-43.0471
-40.2098
-37.3347
-34.4287
-31.4975
-28.546
-25.5782
-22.5973
-19.606
-16.6066
-13.6006
-10.5894
-7.57405
-4.55523
-1.53349
1.49098
4.51797
7.54764
10.58
13.6156
16.6545
19.6974
22.7446
25.7969
28.8546
31.9187
34.9894
38.0677
41.154
44.2491
47.3531
50.4672
53.591
56.7256
59.8707
63.0267
66.1934
69.3708
72.5584
75.7556
78.9619
82.1756
85.3966
88.6214
91.8508
95.0786
98.3071
101.527
104.742
107.939
111.124
114.279
117.413
120.504
123.564
126.566
129.523
132.411
135.234
137.983
140.641
143.231
145.701
148.104
150.387
152.557
154.697
156.575
158.545
160.396
161.467
164.457
164.308
166.525
168.086
168.421
171.38
170.052
172.099
176.763
167.64
180.806
173.609
176.185
182.923
174.217
184.556
169.174
167.762
181.598
224.886
-46.7457
-48.2252
-49.883
-51.6809
-53.5374
-55.3958
-57.2233
-58.9907
-60.6611
-62.1909
-63.536
-64.6565
-65.5201
-66.1029
-66.3891
-66.3701
-66.0456
-65.4231
-64.517
-63.3459
-61.9317
-60.2974
-58.4668
-56.4628
-54.307
-52.0197
-49.619
-47.1212
-44.5407
-41.89
-39.1799
-36.4199
-33.6178
-30.7806
-27.914
-25.0228
-22.111
-19.1821
-16.2388
-13.2834
-10.3177
-7.34322
-4.36107
-1.37219
1.6229
4.62368
7.63001
10.6417
13.6589
16.6815
19.7102
22.7448
25.7862
28.8344
31.8902
34.9538
38.0261
41.1071
44.1978
47.2983
50.4093
53.5307
56.6634
59.807
62.9619
66.1279
69.3049
72.4924
75.6897
78.8965
82.1107
85.3326
88.5584
91.7889
95.0181
98.2481
101.469
104.686
107.885
111.072
114.229
117.366
120.459
123.521
126.525
129.484
132.374
135.199
137.951
140.612
143.203
145.675
148.08
150.365
152.536
154.679
156.556
158.53
160.38
161.446
164.457
164.294
166.501
168.084
168.403
171.39
170.022
172.08
176.818
167.554
180.813
173.621
176.101
182.985
174.225
184.672
169.185
167.377
181.169
224.571
-44.6641
-45.8958
-47.291
-48.8133
-50.3868
-51.9626
-53.5176
-55.0336
-56.4847
-57.8377
-59.0567
-60.1071
-60.9587
-61.5863
-61.9703
-62.0967
-61.957
-61.5496
-60.8795
-59.9567
-58.7953
-57.4124
-55.8264
-54.0567
-52.1227
-50.0429
-47.8348
-45.5147
-43.0973
-40.5957
-38.0215
-35.3851
-32.6953
-29.9599
-27.1855
-24.3779
-21.5419
-18.6815
-15.8003
-12.901
-9.98612
-7.05758
-4.11692
-1.16546
1.79589
4.76628
7.74532
10.7325
13.7278
16.7309
19.7421
22.7612
25.7889
28.825
31.8702
34.9245
37.9888
41.0628
44.1476
47.2429
50.3496
53.4674
56.5972
59.7384
62.8915
66.0561
69.2321
72.4191
75.6161
78.823
82.0377
85.2602
88.4869
91.7186
94.9492
98.1808
101.404
104.623
107.823
111.013
114.172
117.312
120.407
123.472
126.479
129.441
132.334
135.161
137.916
140.579
143.173
145.648
148.054
150.341
152.514
154.66
156.536
158.514
160.364
161.422
164.456
164.281
166.475
168.082
168.385
171.402
169.987
172.062
176.88
167.455
180.824
173.632
176.008
183.054
174.236
184.801
169.198
166.988
180.744
224.223
-42.5212
-43.5473
-44.7238
-46.0164
-47.3536
-48.6922
-50.0155
-51.3127
-52.5663
-53.7514
-54.8391
-55.8009
-56.61
-57.2426
-57.6783
-57.9006
-57.8965
-57.6582
-57.1833
-56.4746
-55.5391
-54.3873
-53.0324
-51.4892
-49.7737
-47.902
-45.8901
-43.7533
-41.5059
-39.1613
-36.7314
-34.227
-31.6579
-29.0324
-26.3581
-23.6415
-20.8881
-18.1028
-15.2896
-12.4522
-9.59343
-6.71579
-3.82128
-0.911691
2.01173
4.94777
7.89573
10.8548
13.8247
16.805
19.7956
22.7963
25.8075
28.8289
31.861
34.9037
37.9576
41.0227
44.0996
47.188
50.2889
53.4017
56.5272
59.6649
62.8152
65.9775
69.1517
72.3374
75.5337
78.7402
81.9549
85.1778
88.4053
91.638
94.87
98.1032
101.328
104.549
107.752
110.944
114.106
117.249
120.347
123.416
126.426
129.391
132.287
135.118
137.876
140.542
143.139
145.617
148.026
150.316
152.489
154.639
156.515
158.498
160.347
161.397
164.456
164.267
166.446
168.081
168.364
171.418
169.946
172.044
176.95
167.342
180.841
173.642
175.905
183.13
174.248
184.942
169.211
166.605
180.339
223.848
-40.3251
-41.1798
-42.1731
-43.2728
-44.4115
-45.5501
-46.6762
-47.7843
-48.8627
-49.8929
-50.8521
-51.717
-52.4651
-53.0751
-53.5276
-53.8057
-53.8946
-53.7829
-53.4634
-52.9331
-52.193
-51.2479
-50.1054
-48.7758
-47.2709
-45.6038
-43.788
-41.8373
-39.7649
-37.5836
-35.3052
-32.9408
-30.5005
-27.9931
-25.4269
-22.809
-20.1456
-17.4423
-14.7038
-11.9342
-9.13721
-6.31574
-3.4723
-0.609141
2.27208
5.16976
8.08287
11.0103
13.9515
16.9057
19.8727
22.8521
25.844
28.848
31.8645
34.8931
37.9346
40.9884
44.0554
47.1352
50.2284
53.3345
56.4542
59.5869
62.7331
65.8919
69.0634
72.2468
75.4415
78.6469
81.861
85.0838
88.3116
91.5451
94.7782
98.013
101.24
104.463
107.669
110.864
114.029
117.175
120.277
123.349
126.363
129.332
132.233
135.068
137.83
140.5
143.1
145.582
147.994
150.287
152.463
154.616
156.493
158.48
160.328
161.372
164.456
164.253
166.416
168.078
168.347
171.435
169.899
172.029
177.026
167.217
180.862
173.654
175.792
183.21
174.262
185.092
169.222
166.263
179.969
223.456
-38.0826
-38.7938
-39.6328
-40.5695
-41.5404
-42.5096
-43.4678
-44.4127
-45.3372
-46.2273
-47.0652
-47.8321
-48.5094
-49.079
-49.5234
-49.8265
-49.9736
-49.9516
-49.7506
-49.3637
-48.7874
-48.0216
-47.0692
-45.9358
-44.6291
-43.1587
-41.5351
-39.7698
-37.8744
-35.8605
-33.7394
-31.5217
-29.2175
-26.836
-24.3858
-21.8743
-19.3085
-16.6945
-14.0376
-11.3425
-8.61341
-5.85384
-3.0668
-0.255027
2.5794
5.43444
8.30874
11.2008
14.1098
17.0347
19.9751
22.9302
25.9001
28.884
31.8824
34.8946
37.9213
40.9617
44.0168
47.0857
50.1694
53.267
56.3792
59.5053
62.6458
65.7996
68.967
72.147
75.339
78.5422
81.7548
84.9767
88.2042
91.4379
94.6718
97.9078
101.137
104.362
107.57
110.768
113.937
117.087
120.193
123.269
126.288
129.262
132.168
135.008
137.775
140.45
143.055
145.542
147.957
150.256
152.433
154.591
156.469
158.461
160.309
161.346
164.456
164.24
166.383
168.077
168.328
171.453
169.847
172.015
177.11
167.075
180.892
173.666
175.668
183.295
174.275
185.251
169.232
165.971
179.64
223.057
-35.7996
-36.3899
-37.0984
-37.8967
-38.725
-39.5502
-40.3649
-41.1693
-41.9591
-42.7241
-43.4503
-44.1225
-44.7255
-45.2443
-45.6639
-45.9696
-46.1475
-46.1847
-46.0699
-45.794
-45.3506
-44.736
-43.949
-42.9913
-41.8666
-40.5808
-39.1415
-37.5573
-35.8377
-33.9925
-32.032
-29.966
-27.804
-25.5553
-23.2283
-20.8309
-18.3702
-15.8529
-13.2848
-10.6711
-8.01647
-5.32499
-2.60014
0.154835
2.93743
5.74517
8.57632
11.429
14.3021
17.1942
20.1047
23.0325
25.9775
28.9387
31.9164
34.9098
37.9193
40.9442
43.9851
47.0412
50.1134
53.2005
56.3035
59.4212
62.5543
65.7016
68.8633
72.0384
75.2263
78.426
81.636
84.8559
88.0821
91.3151
94.5491
97.7857
101.016
104.243
107.454
110.655
113.827
116.981
120.092
123.173
126.198
129.177
132.089
134.935
137.708
140.39
143
145.493
147.913
150.218
152.399
154.562
156.443
158.438
160.289
161.32
164.453
164.228
166.348
168.075
168.31
171.473
169.789
172.008
177.192
166.932
180.919
173.685
175.54
183.376
174.296
185.409
169.243
165.738
179.361
222.663
-33.4806
-33.9691
-34.5665
-35.2467
-35.9533
-36.6555
-37.3474
-38.0307
-38.7032
-39.3575
-39.9823
-40.5656
-41.095
-41.5582
-41.9425
-42.2351
-42.4235
-42.4956
-42.4401
-42.2469
-41.9079
-41.4169
-40.77
-39.9655
-39.0038
-37.8876
-36.621
-35.2099
-33.6614
-31.9832
-30.184
-28.2723
-26.2568
-24.1462
-21.9487
-19.6721
-17.3238
-14.9105
-12.4384
-9.91315
-7.33977
-4.72292
-2.06646
0.625874
3.35117
6.10647
8.88971
11.6985
14.5316
17.3871
20.2642
23.1614
26.0785
29.0141
31.9685
34.9405
37.9305
40.9375
43.9622
47.0034
50.062
53.1368
56.2286
59.3362
62.4601
65.5991
68.7535
71.922
75.1042
78.299
81.505
84.7213
87.945
91.1761
94.4091
97.6453
100.876
104.104
107.317
110.521
113.697
116.854
119.97
123.057
126.087
129.073
131.992
134.845
137.626
140.315
142.932
145.434
147.859
150.173
152.357
154.528
156.414
158.411
160.268
161.294
164.447
164.218
166.31
168.074
168.294
171.494
169.728
172.001
177.279
166.782
180.95
173.71
175.404
183.455
174.314
185.576
169.262
165.61
179.148
222.284
-31.1298
-31.5321
-32.0349
-32.6137
-33.216
-33.8129
-34.3994
-34.9781
-35.5487
-36.1054
-36.6393
-37.1408
-37.5998
-38.0062
-38.3496
-38.619
-38.8035
-38.8921
-38.8741
-38.7397
-38.4799
-38.0872
-37.5558
-36.8817
-36.0626
-35.0981
-33.9899
-32.7408
-31.3555
-29.8394
-28.1992
-26.4418
-24.5749
-22.606
-20.5429
-18.3928
-16.1631
-13.8605
-11.4913
-9.06145
-6.57624
-4.04071
-1.4591
1.16441
3.82655
6.52389
9.25404
12.0142
14.8028
17.6174
20.4572
23.3202
26.206
29.1129
32.0411
34.9889
37.957
40.9436
43.9498
46.974
50.0171
53.0775
56.1564
59.2518
62.3649
65.4938
68.6392
71.7994
74.9743
78.1624
81.3627
84.574
87.7937
91.0214
94.2521
97.4865
100.717
103.945
107.159
110.364
113.543
116.704
119.825
122.916
125.954
128.946
131.873
134.735
137.524
140.223
142.848
145.361
147.792
150.118
152.307
154.487
156.381
158.378
160.246
161.269
164.434
164.214
166.27
168.074
168.281
171.514
169.666
172.001
177.364
166.637
180.981
173.746
175.27
183.533
174.337
185.744
169.314
165.646
179.032
221.926
-28.7508
-29.0801
-29.5018
-29.9935
-30.5059
-31.0122
-31.5079
-31.9965
-32.4784
-32.9495
-33.4026
-33.8298
-34.223
-34.5739
-34.8741
-35.1142
-35.285
-35.3767
-35.3798
-35.2848
-35.0829
-34.766
-34.3275
-33.7615
-33.0642
-32.2328
-31.2665
-30.1659
-28.9329
-27.5711
-26.0847
-24.479
-22.7601
-20.9344
-19.0085
-16.9892
-14.8832
-12.6971
-10.4371
-8.10921
-5.71882
-3.27128
-0.77105
1.77727
4.37014
7.00367
9.67521
12.3815
15.1206
17.8898
20.6881
23.5128
26.3637
29.2384
32.1372
35.0579
38.0012
40.965
43.9503
46.9551
49.9806
53.0246
56.0885
59.1701
62.2705
65.3876
68.5223
71.6724
74.8384
78.0181
81.2112
84.4157
87.6299
90.8524
94.0794
97.3104
100.539
103.765
106.979
110.185
113.366
116.529
119.655
122.75
125.794
128.793
131.729
134.599
137.398
140.108
142.743
145.269
147.708
150.048
152.244
154.435
156.342
158.335
160.223
161.245
164.411
164.216
166.228
168.075
168.272
171.532
169.61
172.009
177.443
166.51
181.013
173.8
175.14
183.608
174.365
185.921
169.398
165.897
179.064
221.593
-26.3468
-26.614
-26.9662
-27.3827
-27.8175
-28.2455
-28.663
-29.0736
-29.4784
-29.8744
-30.2559
-30.6163
-30.9491
-31.2474
-31.5044
-31.7123
-31.8631
-31.9487
-31.9604
-31.8897
-31.7283
-31.4683
-31.1024
-30.6243
-30.0286
-29.3114
-28.4697
-27.5022
-26.4088
-25.1907
-23.8503
-22.391
-20.817
-19.1334
-17.3456
-15.4595
-13.4808
-11.4159
-9.2704
-7.05032
-4.76094
-2.40776
0.00466909
2.47143
4.9888
7.55248
10.1596
12.8064
15.4909
18.2098
20.9618
23.7439
26.5558
29.3946
32.2604
35.1508
38.0663
41.0044
43.9662
46.9491
49.9547
52.9802
56.0272
59.0929
62.1789
65.2823
68.4046
71.5429
74.6984
77.8681
81.0524
84.2485
87.4555
90.6713
93.8929
97.1189
100.344
103.567
106.78
109.984
113.166
116.33
119.459
122.557
125.608
128.613
131.557
134.436
137.245
139.967
142.613
145.154
147.603
149.96
152.166
154.369
156.295
158.282
160.198
161.222
164.376
164.229
166.184
168.08
168.27
171.546
169.568
172.015
177.508
166.421
181.045
173.882
175.024
183.686
174.401
186.091
169.614
166.434
179.309
221.286
-23.9207
-24.135
-24.4274
-24.7788
-25.1463
-25.5066
-25.8564
-26.1994
-26.5372
-26.8676
-27.1859
-27.4867
-27.7645
-28.0139
-28.2291
-28.4039
-28.5314
-28.6046
-28.6162
-28.5584
-28.4238
-28.2049
-27.8946
-27.4861
-26.9738
-26.3524
-25.618
-24.7676
-23.7994
-22.7128
-21.5083
-20.1875
-18.753
-17.2082
-15.557
-13.8043
-11.9548
-10.0141
-7.9872
-5.87979
-3.69686
-1.44387
0.874687
3.2537
5.6894
8.17712
10.7139
13.2955
15.9199
18.5831
21.2839
24.0188
26.7872
29.5859
32.415
35.2713
38.1557
41.0649
44.0004
46.9588
49.942
52.9465
55.9745
59.0222
62.092
65.1799
68.2881
71.413
74.5564
77.7143
80.8883
84.0744
87.2729
90.4802
93.6952
96.9144
100.134
103.353
106.563
109.763
112.945
116.108
119.239
122.34
125.395
128.405
131.357
134.244
137.064
139.797
142.455
145.012
147.474
149.85
152.069
154.285
156.239
158.214
160.172
161.201
164.326
164.256
166.142
168.094
168.279
171.557
169.553
172.035
177.554
166.396
181.074
174.003
174.925
183.774
174.456
186.271
169.927
167.324
179.847
221.006
-21.475
-21.6443
-21.8852
-22.18
-22.489
-22.7906
-23.0818
-23.3661
-23.6456
-23.9186
-24.1812
-24.429
-24.6574
-24.8619
-25.0378
-25.1799
-25.2825
-25.3397
-25.345
-25.2919
-25.1736
-24.9833
-24.7143
-24.36
-23.9146
-23.3724
-22.7286
-21.9793
-21.1214
-20.1529
-19.0726
-17.8807
-16.5779
-15.1661
-13.6479
-12.0268
-10.3063
-8.49108
-6.58533
-4.59417
-2.52207
-0.374301
1.84494
4.13044
6.47856
8.88432
11.3448
13.8554
16.4139
19.016
21.6604
24.343
27.0633
29.8173
32.6056
35.4239
38.2735
41.1504
44.0564
46.9872
49.9453
52.9263
55.9329
58.9604
62.0119
65.0824
68.1747
71.2843
74.414
77.5587
80.7209
83.8954
87.084
90.2814
93.4884
96.6994
99.9132
103.125
106.331
109.527
112.707
115.867
119
122.1
125.16
128.172
131.131
134.025
136.855
139.6
142.27
144.844
147.319
149.715
151.952
154.181
156.171
158.13
160.142
161.182
164.257
164.305
166.103
168.12
168.303
171.565
169.587
172.067
177.576
166.47
181.092
174.186
174.856
183.888
174.554
186.468
170.457
168.634
180.76
220.756
-19.0122
-19.1432
-19.3395
-19.5851
-19.8432
-20.0937
-20.3339
-20.5673
-20.796
-21.0188
-21.2325
-21.4333
-21.6174
-21.7812
-21.9206
-22.0315
-22.109
-22.1481
-22.1434
-22.0891
-21.9793
-21.8079
-21.5687
-21.2558
-20.8631
-20.3852
-19.8168
-19.1534
-18.3911
-17.5268
-16.5581
-15.4838
-14.3033
-13.017
-11.6261
-10.1326
-8.53887
-6.84848
-5.06466
-3.1918
-1.2336
0.805008
2.92033
5.10721
7.36231
9.68045
12.0589
14.4926
16.9796
19.5149
22.0976
24.7225
27.3898
30.0944
32.8373
35.6133
38.4242
41.265
44.138
47.038
49.968
52.9225
55.9051
58.91
61.9409
64.9918
68.0665
71.159
74.2732
77.4028
80.5518
83.7131
86.8905
90.0766
93.2743
96.4757
99.6823
102.886
106.087
109.277
112.454
115.61
118.742
121.841
124.904
127.918
130.883
133.783
136.622
139.378
142.06
144.65
147.14
149.555
151.815
154.052
156.092
158.028
160.108
161.166
164.17
164.382
166.072
168.165
168.351
171.573
169.694
172.104
177.577
166.683
181.081
174.475
174.838
184.05
174.743
186.696
171.275
170.427
182.115
220.546
-16.5346
-16.6329
-16.7908
-16.9934
-17.207
-17.413
-17.6088
-17.7978
-17.9822
-18.1611
-18.3319
-18.4912
-18.6359
-18.7629
-18.869
-18.9506
-19.0037
-19.024
-19.0069
-18.9475
-18.8405
-18.6807
-18.4625
-18.1803
-17.8287
-17.4022
-16.8957
-16.3042
-15.6235
-14.8498
-13.9798
-13.0112
-11.9424
-10.7724
-9.50111
-8.12938
-6.65829
-5.09022
-3.42729
-1.67307