/*--------------------------------*- C++ -*----------------------------------*\
| =========                 |                                                 |
| \\      /  F ield         | OpenFOAM: The Open Source CFD Toolbox           |
|  \\    /   O peration     | Version:  2412                                  |
|   \\  /    A nd           | Website:  www.openfoam.com                      |
|    \\/     M anipulation  |                                                 |
\*---------------------------------------------------------------------------*/
FoamFile
{
    version     2.0;
    format      ascii;
    arch        "LSB;label=32;scalar=64";
    class       volVectorField;
    location    "1.495";
    object      U_0;
}
// * * * * * * * * * * * * * * * * * * * * * * * * * * * * * * * * * * * * * //

dimensions      [0 1 -1 0 0 0 0];

internalField   nonuniform List<vector> 
12600
(
(18.7528 1.24572e-21 2.09773)
(11.6265 1.61012e-20 0.452101)
(7.35457 1.89258e-20 -0.477734)
(5.0911 0 -0.709397)
(3.97723 1.70969e-20 -0.682485)
(3.336 1.59169e-20 -0.607717)
(2.89439 0 -0.539974)
(2.56289 0 -0.484451)
(2.30304 -4.77977e-20 -0.438931)
(2.09272 0 -0.40114)
(1.91818 2.00336e-20 -0.369228)
(1.7705 1.83368e-20 -0.341864)
(1.64356 -1.67918e-20 -0.318098)
(1.53302 0 -0.297232)
(1.43569 -1.40618e-20 -0.278741)
(1.34919 0 -0.262221)
(1.27167 4.72055e-20 -0.247357)
(1.20173 0 -0.233899)
(1.13821 -1.97353e-20 -0.221644)
(1.08022 -1.80385e-20 -0.210429)
(1.02701 1.64559e-20 -0.200119)
(0.977967 5.33351e-24 -0.190603)
(0.932587 0 -0.181785)
(0.890443 -2.47675e-20 -0.173588)
(0.851176 0 -0.165944)
(0.814478 0 -0.158794)
(0.780085 -1.83049e-20 -0.15209)
(0.74777 0 -0.145788)
(0.717335 4.1655e-24 -0.13985)
(0.688607 1.31702e-20 -0.134243)
(0.661433 1.17036e-20 -0.128939)
(0.63568 1.03454e-20 -0.123911)
(0.611228 -9.08805e-21 -0.119137)
(0.587972 -1.58491e-20 -0.114595)
(0.565817 -1.36968e-20 -0.110269)
(0.544677 1.16964e-20 -0.106142)
(0.524477 0 -0.102198)
(0.505147 -8.17212e-21 -0.0984236)
(0.486624 0 -0.0948078)
(0.468851 5.16414e-21 -0.0913389)
(0.451776 0 -0.0880067)
(0.435351 1.76474e-23 -0.084802)
(0.419533 0 -0.0817163)
(0.40428 1.60565e-23 -0.0787415)
(0.389557 -9.74477e-22 -0.0758707)
(0.375328 2.68297e-21 -0.0730968)
(0.361562 -4.26982e-21 -0.0704139)
(0.348228 0 -0.0678159)
(0.3353 0 -0.0652977)
(0.32275 -8.18084e-21 -0.0628539)
(0.310557 -1.84907e-20 -0.0604801)
(0.298696 -2.04071e-20 -0.0581716)
(0.287147 1.95543e-23 -0.0559246)
(0.275888 -2.36404e-20 -0.0537346)
(0.264903 0 -0.0515987)
(0.254171 2.62211e-20 -0.0495125)
(0.243679 2.72727e-20 -0.0474736)
(0.233407 2.81705e-20 -0.045478)
(0.223346 0 -0.0435239)
(0.213474 0 -0.0416072)
(0.203785 0 -0.0397266)
(0.194261 -6.12512e-20 -0.0378784)
(0.184896 0 -0.0360616)
(0.175671 0 -0.0342726)
(0.166586 1.25608e-19 -0.032511)
(0.157621 0 -0.0307733)
(0.148777 0 -0.0290594)
(0.140039 0 -0.0273662)
(0.131406 -1.2548e-19 -0.025694)
(0.122868 1.24827e-19 -0.0240403)
(0.114425 1.23958e-19 -0.0224052)
(0.106072 2.35241e-23 -0.0207877)
(0.0978057 -1.21636e-19 -0.0191874)
(0.0896328 0 -0.0176051)
(0.0815455 1.18628e-19 -0.0160395)
(0.0735638 0 -0.0144944)
(0.0656724 0 -0.0129667)
(0.0579092 0 -0.0114637)
(0.0502495 2.86098e-23 -0.00998065)
(0.0427486 2.17496e-19 -0.00852803)
(0.0353779 2.12875e-19 -0.00710042)
(0.0281979 -2.08072e-19 -0.00570928)
(0.0211987 -2.03116e-19 -0.00435287)
(0.0144055 0 -0.00303579)
(0.00789011 0 -0.00177211)
(0.00154303 3.75008e-19 -0.000540366)
(-0.00434291 -7.28263e-19 0.000602485)
(-0.0102095 7.06253e-19 0.00174206)
(-0.0152925 3.42006e-19 0.00273057)
(-0.0206743 0 0.00377742)
(-0.0247954 -6.38958e-19 0.00458097)
(-0.0296739 3.08136e-19 0.00553091)
(-0.032805 -2.96831e-19 0.00614388)
(-0.0370006 5.71106e-19 0.00696214)
(-0.039454 0 0.00744391)
(-0.0425626 0 0.00805427)
(-0.0444127 0 0.00841538)
(-0.0479118 0 0.00908453)
(-0.044742 0 0.00849971)
(-0.0572814 0 0.0109011)
(-0.0419807 -4.22621e-19 0.0079515)
(-0.0559695 -7.97473e-19 0.010703)
(-0.0547881 -7.63319e-19 0.0104025)
(-0.0489547 0 0.00935071)
(-0.0611228 0 0.0116741)
(-0.0462567 0 0.00880034)
(-0.0578064 -6.15386e-19 0.0111319)
(-0.0723653 -1.17392e-18 0.0136346)
(-0.016823 5.65436e-19 0.00333915)
(-0.0969343 0 0.0185821)
(-0.0563026 -1.02631e-18 0.0103969)
(-0.035462 0 0.00719591)
(-0.132963 -8.85351e-19 0.0252873)
(-0.00423104 8.58999e-19 0.000842449)
(-0.116853 -7.69125e-19 0.0225028)
(-0.0259697 -7.62043e-19 0.00511362)
(-0.123227 6.55579e-19 0.0248793)
(-0.335312 -2.41312e-23 0.064241)
(-0.502738 6.31738e-19 0.0953563)
(-0.230762 0 0.0423529)
(29.167 -1.25756e-21 4.03095)
(25.1196 0 1.86139)
(20.2534 -1.9155e-20 -0.212414)
(16.0835 0 -1.21197)
(13.1215 -1.73241e-20 -1.50779)
(11.0771 -3.04071e-20 -1.51879)
(9.60363 -1.40707e-20 -1.4411)
(8.49078 0 -1.34338)
(7.61728 3.55889e-22 -1.24791)
(6.91025 -2.1857e-20 -1.16077)
(6.32401 2.00615e-20 -1.08263)
(5.82849 1.84109e-20 -1.01276)
(5.40307 -1.68937e-20 -0.950162)
(5.03306 1.54979e-20 -0.893849)
(4.70772 2.84819e-20 -0.842963)
(4.41895 0 -0.796767)
(4.16055 -6.44032e-23 -0.754642)
(3.92769 2.18518e-20 -0.716065)
(3.71653 2.00225e-20 -0.680598)
(3.52399 0 -0.647867)
(3.34755 0 -0.617559)
(3.18514 1.52002e-20 -0.589403)
(3.03506 0 -0.563169)
(2.89585 1.25554e-20 -0.538658)
(2.7663 -2.27494e-20 -0.515698)
(2.64537 0 -0.494139)
(2.53217 1.85535e-20 -0.47385)
(2.42593 0 -0.454717)
(2.32599 -1.49445e-20 -0.436637)
(2.23175 -2.66818e-20 -0.419521)
(2.14271 -2.37063e-20 -0.403289)
(2.05842 -1.04714e-20 -0.38787)
(1.97847 9.19622e-21 -0.3732)
(1.90252 3.20842e-20 -0.359221)
(1.83023 2.77214e-20 -0.345882)
(1.76133 0 -0.333136)
(1.69555 0 -0.320941)
(1.63267 -1.74517e-23 -0.309257)
(1.57248 0 -0.29805)
(1.51478 -5.21341e-21 -0.287287)
(1.45941 0 -0.276939)
(1.40619 -5.27434e-21 -0.266978)
(1.35498 0 -0.25738)
(1.30566 -9.33389e-22 -0.24812)
(1.25809 0 -0.239179)
(1.21216 -2.70158e-21 -0.230534)
(1.16777 0 -0.222168)
(1.12481 0 -0.214064)
(1.0832 7.00682e-21 -0.206205)
(1.04284 0 -0.198576)
(1.00367 0 -0.191163)
(0.965595 0 -0.183952)
(0.928557 2.21758e-20 -0.176931)
(0.892481 4.73703e-20 -0.170088)
(0.857315 0 -0.163412)
(0.822988 0 -0.15689)
(0.789458 -2.72484e-20 -0.150516)
(0.756658 -2.81692e-20 -0.144276)
(0.724556 0 -0.138166)
(0.693085 0 -0.132172)
(0.662222 0 -0.126292)
(0.631904 0 -0.120512)
(0.602116 -6.16621e-20 -0.114831)
(0.572796 6.2131e-20 -0.109236)
(0.543936 -1.24893e-19 -0.103727)
(0.515478 0 -0.0982925)
(0.48742 0 -0.0929328)
(0.459711 0 -0.0876378)
(0.432351 4.75734e-23 -0.0824081)
(0.4053 -1.23633e-19 -0.0772363)
(0.37856 -1.2266e-19 -0.0721225)
(0.35211 2.42943e-19 -0.0670634)
(0.325944 3.60209e-23 -0.0620573)
(0.300073 -1.18584e-19 -0.0571075)
(0.274475 -1.16941e-19 -0.0522089)
(0.249206 0 -0.0473737)
(0.224222 0 -0.0425915)
(0.199629 0 -0.037886)
(0.175359 2.17844e-19 -0.0332403)
(0.151571 0 -0.0286896)
(0.128185 0 -0.0242133)
(0.105375 2.03643e-19 -0.0198514)
(0.0831203 1.98581e-19 -0.0155923)
(0.0614901 0 -0.0114582)
(0.0407082 0 -0.00748222)
(0.0204413 0 -0.00361144)
(0.00158102 7.08848e-19 -4.51213e-06)
(-0.0172108 -4.24529e-23 0.00358192)
(-0.0336087 3.32133e-19 0.00671557)
(-0.050907 -3.20863e-19 0.0100151)
(-0.0643317 6.19219e-19 0.0125763)
(-0.080086 2.98269e-19 0.0155821)
(-0.0904005 5.74088e-19 0.0175434)
(-0.104097 0 0.0201587)
(-0.112176 0 0.021691)
(-0.122595 0 0.0236689)
(-0.128798 0 0.0248773)
(-0.139911 4.64543e-19 0.0269105)
(-0.131869 0 0.0254924)
(-0.16863 0 0.0324425)
(-0.124066 -4.05232e-19 0.0237014)
(-0.168563 3.81972e-19 0.0327212)
(-0.161523 1.46097e-18 0.0308522)
(-0.147809 -6.94229e-19 0.0284889)
(-0.182399 0 0.0351045)
(-0.139959 0 0.0266929)
(-0.176892 0 0.0345394)
(-0.211081 5.59085e-19 0.039813)
(-0.0616354 -5.38128e-19 0.0120409)
(-0.290305 0 0.0567935)
(-0.162907 1.9501e-18 0.0297418)
(-0.119817 8.77618e-19 0.0247014)
(-0.391149 1.67953e-18 0.0747178)
(-0.0198731 0 0.00331176)
(-0.360288 0 0.0699237)
(-0.0938977 -7.21308e-19 0.0177555)
(-0.41407 0 0.0852215)
(-0.996022 -5.84943e-19 0.197056)
(-1.42051 -5.96081e-19 0.272381)
(-0.608997 0 0.111821)
(31.9106 0 3.90283)
(31.0946 0 2.8235)
(28.5624 -1.29725e-20 1.02651)
(25.2165 0 -0.381486)
(21.9621 0 -1.2261)
(19.1871 1.51163e-20 -1.65114)
(16.9275 1.33251e-20 -1.81948)
(15.1014 0 -1.85104)
(13.613 4.20789e-22 -1.81725)
(12.3822 2.07065e-20 -1.75466)
(11.3484 -3.7803e-20 -1.68079)
(10.4672 -1.74443e-20 -1.604)
(9.70641 1.14497e-22 -1.52828)
(9.0422 -1.46855e-20 -1.45546)
(8.45661 -1.3468e-20 -1.38636)
(7.93592 1.22962e-20 -1.32122)
(7.46943 -2.26204e-20 -1.26002)
(7.04873 -2.07077e-20 -1.20262)
(6.66707 0 -1.14878)
(6.31899 0 -1.09826)
(6.00002 1.57667e-20 -1.05081)
(5.70648 1.43724e-20 -1.00621)
(5.43527 0 -0.964211)
(5.18381 0 -0.924616)
(4.9499 2.15564e-20 -0.887232)
(4.73166 0 -0.851883)
(4.52748 -3.51543e-20 -0.818412)
(4.33597 1.58051e-20 -0.786672)
(4.15591 0 -0.756533)
(3.98624 1.26423e-20 -0.727875)
(3.82603 1.12328e-20 -0.70059)
(3.67446 0 -0.67458)
(3.53079 -8.72487e-21 -0.649753)
(3.39439 -1.52038e-20 -0.626028)
(3.26467 1.22394e-23 -0.60333)
(3.14111 0 -0.581589)
(3.02324 0 -0.560743)
(2.91064 7.83493e-21 -0.540732)
(2.80292 0 -0.521504)
(2.69975 0 -0.503008)
(2.60079 0 -0.485199)
(2.50575 0 -0.468034)
(2.41439 0 -0.451473)
(2.32643 0 -0.43548)
(2.24167 0 -0.420021)
(2.15989 2.51363e-21 -0.405062)
(2.08091 -4.01252e-21 -0.390575)
(2.00452 0 -0.37653)
(1.93059 -6.62911e-21 -0.362903)
(1.85894 0 -0.349666)
(1.78944 0 -0.336799)
(1.72193 1.92918e-20 -0.324276)
(1.65631 0 -0.312079)
(1.59244 -2.23811e-20 -0.300186)
(1.53023 2.36332e-20 -0.288581)
(1.46954 0 -0.277242)
(1.4103 2.57557e-20 -0.266158)
(1.35239 0 -0.255305)
(1.29575 0 -0.244677)
(1.24025 0 -0.23425)
(1.18587 5.68043e-20 -0.224019)
(1.13248 5.75983e-20 -0.213963)
(1.08005 2.85771e-23 -0.204078)
(1.02847 -1.17312e-19 -0.194343)
(0.977737 2.50642e-23 -0.184758)
(0.92773 0 -0.175302)
(0.878451 0 -0.165976)
(0.829803 -1.17795e-19 -0.156763)
(0.781789 3.83181e-23 -0.147663)
(0.734333 0 -0.138663)
(0.687436 0 -0.129764)
(0.641056 -1.14532e-19 -0.120959)
(0.595184 2.89868e-23 -0.112246)
(0.549828 2.69742e-23 -0.103629)
(0.504957 0 -0.0950999)
(0.460652 0 -0.0866791)
(0.416844 -2.13155e-19 -0.0783483)
(0.373704 2.09226e-19 -0.0701481)
(0.331122 0 -0.0620485)
(0.289354 0 -0.0541111)
(0.248274 0 -0.0462976)
(0.208168 0 -0.0386806)
(0.169006 0 -0.0312336)
(0.130901 0 -0.0240041)
(0.0942377 0 -0.017035)
(0.0584513 0 -0.0102551)
(0.025054 -6.66419e-19 -0.00391018)
(-0.00821286 -3.2274e-19 0.00238367)
(-0.0374092 -3.12163e-19 0.00792396)
(-0.0681163 3.01508e-19 0.0137253)
(-0.0922057 -5.81693e-19 0.0182867)
(-0.120274 -2.80162e-19 0.0235916)
(-0.138951 -2.69552e-19 0.0271056)
(-0.163553 0 0.0317703)
(-0.178189 0 0.034501)
(-0.197282 0 0.0380954)
(-0.208646 0 0.0403265)
(-0.228272 -4.35818e-19 0.0437687)
(-0.216834 0 0.0420692)
(-0.277329 0 0.0531196)
(-0.204889 3.79957e-19 0.0389287)
(-0.28248 0 0.0551861)
(-0.26611 -6.84649e-19 0.0503316)
(-0.248712 6.50572e-19 0.0480084)
(-0.303732 0 0.058236)
(-0.235993 0 0.0447858)
(-0.300192 0 0.0592571)
(-0.346007 5.23473e-19 0.063776)
(-0.118317 0 0.023918)
(-0.484264 -4.51122e-19 0.0956568)
(-0.266234 -6.70631e-23 0.0464262)
(-0.218409 -8.21358e-19 0.0472234)
(-0.644074 -1.57146e-18 0.121478)
(-0.0450703 0 0.00747036)
(-0.616716 6.81481e-19 0.120494)
(-0.180147 6.74697e-19 0.0347306)
(-0.748027 5.80283e-19 0.161816)
(-1.64498 0 0.332638)
(-2.26047 5.57357e-19 0.426391)
(-0.903393 0 0.154962)
(32.4317 0 2.96145)
(32.9968 0 2.77414)
(32.4421 1.22633e-20 1.72814)
(30.7969 0 0.525194)
(28.5409 -1.23007e-20 -0.48143)
(26.1216 2.50175e-20 -1.20545)
(23.7992 0 -1.6692)
(21.69 -2.18264e-20 -1.93375)
(19.8278 2.09232e-20 -2.06313)
(18.2029 1.89157e-20 -2.10748)
(16.7878 1.77737e-20 -2.10066)
(15.5513 -1.61497e-20 -2.06399)
(14.4648 1.50303e-20 -2.01045)
(13.504 -2.73927e-20 -1.94785)
(12.6488 0 -1.88095)
(11.8829 -2.3196e-20 -1.81261)
(11.1929 0 -1.74458)
(10.568 0 -1.67791)
(9.99918 0 -1.61321)
(9.47909 1.62918e-20 -1.55083)
(9.00155 -3.41055e-23 -1.49093)
(8.56138 -2.59258e-23 -1.43356)
(8.15423 1.23522e-20 -1.3787)
(7.77638 0 -1.32629)
(7.42467 0 -1.27625)
(7.09638 0 -1.22846)
(6.78915 3.32336e-20 -1.18283)
(6.50092 -5.87796e-24 -1.13923)
(6.22992 0 -1.09755)
(5.97458 0 -1.05769)
(5.7335 0 -1.01955)
(5.50546 0 -0.983017)
(5.28938 1.65035e-20 -0.948003)
(5.08428 0 -0.914419)
(4.8893 -1.2432e-20 -0.882181)
(4.70365 0 -0.85121)
(4.52662 0 -0.821433)
(4.35759 -7.43021e-21 -0.79278)
(4.19597 0 -0.765186)
(4.04123 0 -0.738591)
(3.8929 3.50084e-21 -0.712936)
(3.75053 -4.79053e-21 -0.688169)
(3.61373 0 -0.664239)
(3.48211 -9.01084e-22 -0.641098)
(3.35535 0 -0.618703)
(3.23312 -4.72982e-21 -0.597009)
(3.11514 1.89593e-23 -0.575979)
(3.00112 0 -0.555573)
(2.89082 0 -0.535758)
(2.78399 7.28515e-21 -0.516497)
(2.68043 1.64757e-20 -0.497762)
(2.57992 -3.64034e-20 -0.479519)
(2.48227 0 -0.461743)
(2.38729 -2.10791e-20 -0.444401)
(2.29483 -2.23089e-20 -0.427474)
(2.20469 -2.33425e-20 -0.41093)
(2.11677 -2.42651e-20 -0.394752)
(2.03087 0 -0.37891)
(1.9469 0 -0.363391)
(1.86469 -5.26148e-20 -0.348164)
(1.78417 -1.07131e-19 -0.333222)
(1.70516 -5.4325e-20 -0.318533)
(1.62763 3.06616e-23 -0.304093)
(1.55139 5.5295e-20 -0.289871)
(1.47644 5.55474e-20 -0.275868)
(1.40259 0 -0.262052)
(1.32986 0 -0.248426)
(1.25809 1.11007e-19 -0.234962)
(1.18728 2.20975e-19 -0.221665)
(1.11732 0 -0.208513)
(1.0482 1.08871e-19 -0.195507)
(0.97985 1.07803e-19 -0.182637)
(0.912267 1.06603e-19 -0.1699)
(0.845442 2.10414e-19 -0.157301)
(0.779339 0 -0.144828)
(0.714054 0 -0.13251)
(0.6495 2.00584e-19 -0.120321)
(0.5859 -3.93662e-19 -0.108318)
(0.523107 -1.92879e-19 -0.0964581)
(0.461471 0 -0.0848289)
(0.400823 0 -0.073375)
(0.341554 0 -0.0622023)
(0.283635 0 -0.0512684)
(0.227215 0 -0.040649)
(0.172852 0 -0.0303931)
(0.119742 -3.22745e-19 -0.0204188)
(0.0700376 4.08794e-23 -0.0110503)
(0.02054 3.03044e-19 -0.00177874)
(-0.0231465 0 0.00644606)
(-0.0689584 2.83013e-19 0.0150063)
(-0.105281 2.72998e-19 0.0218206)
(-0.147301 0 0.0296739)
(-0.175716 -2.52889e-19 0.0349564)
(-0.212828 -4.85833e-19 0.0419232)
(-0.235122 0 0.0460102)
(-0.26446 0 0.0514768)
(-0.281921 0 0.054884)
(-0.311162 -4.08536e-19 0.0597914)
(-0.297966 0 0.0583002)
(-0.381668 0 0.073062)
(-0.283354 3.56008e-19 0.053933)
(-0.396201 -3.35456e-19 0.0779956)
(-0.367129 0 0.0690842)
(-0.350924 0 0.0680394)
(-0.423798 0 0.081191)
(-0.333791 0 0.063259)
(-0.426325 0 0.0849808)
(-0.476682 -4.69925e-23 0.0864067)
(-0.186906 0 0.0384554)
(-0.676498 4.22145e-19 0.134887)
(-0.366954 -8.53839e-19 0.0616225)
(-0.330794 0 0.0739411)
(-0.889408 9.64604e-23 0.166375)
(-0.0823153 0 0.0138167)
(-0.885062 1.11753e-24 0.174136)
(-0.285907 0 0.0560754)
(-1.11905 -5.42544e-19 0.250685)
(-2.2671 0 0.468256)
(-3.01402 5.20349e-19 0.563001)
(-1.10291 0 0.1763)
(32.5336 0 2.10963)
(33.2907 0 2.23416)
(33.6367 0 1.75791)
(33.2713 0 0.96256)
(32.2469 1.16109e-20 0.119444)
(30.7708 -9.02128e-22 -0.630859)
(29.0488 0 -1.23287)
(27.2398 2.06011e-20 -1.67741)
(25.4538 0 -1.98165)
(23.7569 -3.52073e-20 -2.17389)
(22.1815 0 -2.28274)
(20.7377 1.52465e-20 -2.33225)
(19.4231 0 -2.34075)
(18.2289 2.5863e-20 -2.32151)
(17.144 -1.1777e-20 -2.28385)
(16.1566 2.17558e-20 -2.23422)
(15.2559 -1.99108e-20 -2.17709)
(14.4319 -1.82708e-20 -2.1155)
(13.6759 0 -2.05158)
(12.9802 -1.5384e-20 -1.98678)
(12.338 -1.40499e-20 -1.92209)
(11.7434 -2.55884e-20 -1.8582)
(11.1915 -1.16638e-20 -1.79556)
(10.6779 0 -1.73447)
(10.1986 0 -1.67511)
(9.75033 0 -1.6176)
(9.33014 -1.56852e-20 -1.56198)
(8.93543 -1.41077e-20 -1.50827)
(8.5639 0 -1.45644)
(8.21353 0 -1.40646)
(7.88252 1.0031e-20 -1.35828)
(7.56925 0 -1.31184)
(7.2723 1.45007e-24 -1.26707)
(6.99036 -1.35946e-20 -1.22392)
(6.72229 1.17519e-20 -1.18231)
(6.46703 0 -1.14217)
(6.22363 0 -1.10344)
(5.99123 7.01278e-21 -1.06605)
(5.76906 0 -1.02994)
(5.5564 0 -0.995035)
(5.35259 -3.30361e-21 -0.961288)
(5.15703 4.52037e-21 -0.928638)
(4.96917 0 -0.89703)
(4.78851 8.50157e-22 -0.86641)
(4.61458 0 -0.836729)
(4.44694 2.2216e-21 -0.807936)
(4.28519 3.55772e-21 -0.779988)
(4.12895 0 -0.752837)
(3.97788 5.85773e-21 -0.726445)
(3.83165 -6.87031e-21 -0.700767)
(3.68996 -3.10426e-20 -0.675769)
(3.55252 1.71484e-20 -0.651408)
(3.41906 -1.85628e-20 -0.627656)
(3.28933 2.55242e-23 -0.604469)
(3.16311 0 -0.581825)
(3.04013 2.20012e-20 -0.559683)
(2.92024 2.28685e-20 -0.538022)
(2.80318 -2.35957e-20 -0.516803)
(2.68881 2.42333e-20 -0.496011)
(2.57691 4.95707e-20 -0.475604)
(2.46737 5.04445e-20 -0.455575)
(2.35994 -5.11077e-20 -0.43588)
(2.25457 5.16691e-20 -0.416517)
(2.15103 0 -0.397443)
(2.04927 0 -0.378659)
(1.94907 5.23534e-20 -0.360125)
(1.85042 0 -0.341843)
(1.75311 0 -0.323778)
(1.65714 -1.03961e-19 -0.305933)
(1.56234 0 -0.28828)
(1.46872 -1.02432e-19 -0.270822)
(1.37615 -2.02792e-19 -0.253543)
(1.28464 0 -0.23644)
(1.19416 -9.89278e-20 -0.219518)
(1.10465 0 -0.202763)
(1.01624 0 -0.186209)
(0.928801 -1.88465e-19 -0.169824)
(0.84262 1.84979e-19 -0.153681)
(0.75751 3.92853e-23 -0.137724)
(0.673905 0 -0.122069)
(0.591601 0 -0.106639)
(0.511088 0 -0.0915793)
(0.432343 -1.64869e-19 -0.0768254)
(0.355549 1.60491e-19 -0.0624897)
(0.281442 0 -0.0486172)
(0.20898 6.05885e-19 -0.0351306)
(0.14097 2.93716e-19 -0.0224136)
(0.073258 -5.68723e-19 -0.00985972)
(0.0131574 -2.74937e-19 0.0013653)
(-0.0496818 -5.30964e-19 0.0129758)
(-0.100037 0 0.0223374)
(-0.157869 0 0.033022)
(-0.197619 2.37125e-19 0.0403269)
(-0.249064 4.55476e-19 0.0498877)
(-0.280313 -4.36825e-19 0.0555177)
(-0.321695 0 0.0631537)
(-0.346331 0 0.0679336)
(-0.386526 3.82773e-19 0.0743939)
(-0.373338 3.65481e-19 0.0737065)
(-0.479782 0 0.0916503)
(-0.358223 -3.3341e-19 0.0681987)
(-0.507884 3.14118e-19 0.10076)
(-0.463169 0 0.0865257)
(-0.453495 0 0.0883449)
(-0.541115 0 0.103439)
(-0.432653 0 0.0818903)
(-0.553601 0 0.111383)
(-0.602911 -4.58406e-19 0.107173)
(-0.266695 0 0.0559786)
(-0.864692 0 0.173838)
(-0.466114 0 0.0751141)
(-0.455671 7.18771e-19 0.105116)
(-1.12531 6.8714e-19 0.208067)
(-0.133925 0 0.0230683)
(-1.16343 -5.95813e-19 0.230664)
(-0.411153 0 0.0823106)
(-1.51786 -5.07367e-19 0.351596)
(-2.8461 0 0.599902)
(-3.67674 -4.86286e-19 0.674248)
(-1.19866 0 0.169121)
(32.605 -4.9731e-21 1.49616)
(33.1877 -6.17518e-21 1.63487)
(33.7138 7.33449e-21 1.44296)
(33.9387 8.26652e-21 0.981016)
(33.7453 0 0.388092)
(33.1453 -9.9108e-21 -0.228776)
(32.2122 0 -0.803744)
(31.037 1.74051e-20 -1.29976)
(29.7085 1.66394e-20 -1.70139)
(28.303 3.20903e-20 -2.00905)
(26.8802 -1.47616e-20 -2.23247)
(25.4823 1.37722e-20 -2.38516)
(24.1364 0 -2.48106)
(22.8582 0 -2.53282)
(21.6551 1.11031e-20 -2.55108)
(20.5287 -1.1454e-22 -2.54438)
(19.4774 1.76003e-22 -2.5194)
(18.4977 1.35824e-22 -2.4812)
(17.5852 0 -2.43363)
(16.7348 0 -2.37958)
(15.9418 0 -2.32121)
(15.2013 2.40433e-20 -2.26012)
(14.5089 1.09332e-20 -2.19752)
(13.8606 0 -2.13429)
(13.2526 0 -2.0711)
(12.6814 1.63356e-20 -2.00844)
(12.1441 0 -1.94664)
(11.6377 0 -1.88597)
(11.1598 0 -1.8266)
(10.7082 0 -1.76865)
(10.2806 -6.30695e-24 -1.7122)
(9.87534 0 -1.65729)
(9.49063 -1.53399e-24 -1.60392)
(9.12497 1.28149e-20 -1.55211)
(8.77696 2.753e-24 -1.50183)
(8.44532 0 -1.45306)
(8.1289 0 -1.40576)
(7.82663 0 -1.35989)
(7.53755 0 -1.3154)
(7.26076 0 -1.27226)
(6.99545 0 -1.2304)
(6.74085 0 -1.18979)
(6.49628 -2.49187e-21 -1.15036)
(6.26109 -8.37586e-22 -1.11208)
(6.03468 0 -1.07489)
(5.81649 2.05818e-21 -1.03874)
(5.60601 0 -1.00359)
(5.40276 0 -0.969389)
(5.20629 -1.10191e-20 -0.936095)
(5.01617 0 -0.903658)
(4.83203 1.46032e-20 -0.872044)
(4.65347 0 -0.841203)
(4.48017 3.49316e-20 -0.811103)
(4.31177 2.4746e-23 -0.781696)
(4.148 0 -0.752955)
(3.98852 0 -0.724831)
(3.83312 0 -0.697303)
(3.68146 4.43966e-20 -0.670321)
(3.53337 -4.55936e-20 -0.64387)
(3.38853 -4.65776e-20 -0.617899)
(3.24682 -4.73993e-20 -0.592398)
(3.10792 9.6136e-20 -0.567315)
(2.97175 4.85491e-20 -0.542647)
(2.83799 0 -0.518342)
(2.7066 0 -0.4944)
(2.57728 -2.44602e-23 -0.47077)
(2.45001 0 -0.447459)
(2.32452 0 -0.424418)
(2.2008 -9.76554e-20 -0.401655)
(2.07862 0 -0.379131)
(1.95799 0 -0.356853)
(1.83873 1.90512e-19 -0.334796)
(1.72085 -9.41297e-20 -0.312961)
(1.60429 0 -0.291349)
(1.489 0 -0.269945)
(1.37508 0 -0.248789)
(1.26241 1.76997e-19 -0.227842)
(1.15131 0 -0.207194)
(1.04155 3.40251e-19 -0.186774)
(0.933646 -1.6645e-19 -0.166726)
(0.827366 0 -0.146955)
(0.723293 0 -0.127643)
(0.621413 1.54711e-19 -0.108703)
(0.52194 -2.58673e-23 -0.0902897)
(0.425801 1.46331e-19 -0.0724358)
(0.331705 -2.84137e-19 -0.0550833)
(0.243135 2.75388e-19 -0.0386575)
(0.154971 2.66636e-19 -0.0224767)
(0.0762685 2.57779e-19 -0.00790548)
(-0.00577676 2.91579e-23 0.00708527)
(-0.0722278 0 0.019327)
(-0.147987 -2.31011e-19 0.0331586)
(-0.200927 0 0.0427792)
(-0.268779 0 0.0552549)
(-0.310512 4.09223e-19 0.0626523)
(-0.365997 0 0.0727901)
(-0.399064 0 0.0791453)
(-0.451813 0 0.0873162)
(-0.440566 -3.42204e-19 0.0879775)
(-0.569386 0 0.108667)
(-0.427838 -3.1207e-19 0.0815695)
(-0.615254 0 0.1231)
(-0.55255 0 0.102517)
(-0.555101 0 0.108788)
(-0.653822 0 0.124778)
(-0.531588 0 0.100656)
(-0.679998 -4.50279e-19 0.138068)
(-0.724321 -4.28662e-19 0.126242)
(-0.356418 4.12711e-19 0.0761759)
(-1.04647 0 0.212006)
(-0.564628 0 0.0872668)
(-0.591128 -1.34403e-18 0.140446)
(-1.34979 0 0.246562)
(-0.201826 6.22801e-19 0.0358464)
(-1.44897 0 0.289701)
(-0.55449 5.51357e-19 0.11336)
(-1.9332 4.74125e-19 0.462071)
(-3.36438 0 0.723606)
(-4.24409 -4.53654e-19 0.761834)
(-1.18098 0 0.132642)
(32.6587 4.6833e-21 1.04472)
(33.0693 1.13818e-20 1.13085)
(33.5149 -6.9087e-21 1.04698)
(33.8795 -7.83776e-22 0.782768)
(34.0523 7.48327e-21 0.391652)
(33.977 0 -0.0644244)
(33.6457 0 -0.536345)
(33.0787 -1.63894e-20 -0.988367)
(32.3113 -3.04325e-20 -1.39685)
(31.3859 -7.09503e-22 -1.74873)
(30.3463 1.38988e-20 -2.03952)
(29.233 -1.29671e-20 -2.27056)
(28.081 1.17223e-20 -2.4467)
(26.9186 0 -2.57452)
(25.7675 0 -2.66122)
(24.6431 -9.51069e-21 -2.7138)
(23.556 3.47882e-20 -2.73867)
(22.5126 3.20046e-20 -2.74141)
(21.5164 0 -2.72674)
(20.5687 0 -2.69854)
(19.6693 0 -2.66)
(18.8171 -6.72155e-23 -2.61364)
(18.0104 -2.05372e-20 -2.56151)
(17.2469 9.32184e-21 -2.50521)
(16.5243 1.69286e-20 -2.44602)
(15.8402 -3.07137e-20 -2.38494)
(15.1923 1.38467e-20 -2.32276)
(14.5782 1.24659e-20 -2.26008)
(13.9957 1.11829e-20 -2.1974)
(13.4428 0 -2.13507)
(12.9174 -8.89767e-21 -2.07339)
(12.4178 7.86042e-21 -2.01257)
(11.9422 -6.91515e-21 -1.95277)
(11.4891 -1.20588e-20 -1.8941)
(11.0569 -2.086e-20 -1.83665)
(10.6443 0 -1.78047)
(10.25 0 -1.7256)
(9.87277 -6.24136e-21 -1.67206)
(9.51163 0 -1.61984)
(9.1655 3.96114e-21 -1.56893)
(8.83345 2.95468e-21 -1.51932)
(8.5146 0 -1.47099)
(8.20814 4.70576e-21 -1.4239)
(7.91329 7.88221e-22 -1.37802)
(7.62937 0 -1.33332)
(7.35568 -1.93667e-21 -1.28975)
(7.09164 -3.10635e-21 -1.24728)
(6.83663 0 -1.20587)
(6.59013 1.03374e-20 -1.16548)
(6.35161 -6.045e-21 -1.12605)
(6.12061 -1.36826e-20 -1.08757)
(5.89665 0 -1.04996)
(5.67933 -2.50428e-23 -1.01322)
(5.4682 3.50766e-20 -0.977274)
(5.26294 0 -0.942107)
(5.06312 0 -0.907661)
(4.86846 -2.01804e-20 -0.873916)
(4.67857 -2.08611e-20 -0.840814)
(4.49321 4.28267e-20 -0.808341)
(4.312 4.37841e-20 -0.776436)
(4.13477 4.45526e-20 -0.745092)
(3.96112 -4.51623e-20 -0.714246)
(3.79095 -9.12211e-20 -0.683897)
(3.62387 0 -0.653981)
(3.4598 0 -0.624501)
(3.29838 -9.24418e-20 -0.595396)
(3.13957 0 -0.566674)
(2.98303 0 -0.538275)
(2.82875 9.17195e-20 -0.510212)
(2.67642 0 -0.482434)
(2.52605 -9.03028e-20 -0.454952)
(2.37742 -3.2521e-23 -0.427734)
(2.23051 8.83699e-20 -0.40078)
(2.08524 0 -0.374092)
(1.94155 0 -0.347652)
(1.79953 0 -0.321506)
(1.65904 1.66003e-19 -0.295607)
(1.52043 0 -0.270061)
(1.38345 -1.59586e-19 -0.244785)
(1.24869 3.1224e-19 -0.219952)
(1.11587 0 -0.195442)
(0.985661 0 -0.171483)
(0.858081 0 -0.147958)
(0.733361 -2.55767e-23 -0.125074)
(0.612628 -1.37182e-19 -0.102839)
(0.494342 -2.66255e-19 -0.0812329)
(0.382673 -2.58106e-19 -0.0606999)
(0.271531 2.49803e-19 -0.0405165)
(0.171747 0 -0.0222053)
(0.0680248 2.33134e-19 -0.00347544)
(-0.0168857 0 0.0120233)
(-0.112974 2.1638e-19 0.0293496)
(-0.181256 0 0.0416209)
(-0.267874 0 0.0573658)
(-0.321894 0 0.0667902)
(-0.393831 -3.67046e-19 0.079799)
(-0.436798 -3.50895e-19 0.0879646)
(-0.504016 0 0.098023)
(-0.496798 3.20232e-19 0.100644)
(-0.647838 -3.0422e-19 0.123574)
(-0.490089 2.91997e-19 0.0938408)
(-0.715596 -2.75033e-19 0.144535)
(-0.633425 0 0.116673)
(-0.654001 0 0.1291)
(-0.759762 0 0.144733)
(-0.629337 0 0.11924)
(-0.803142 4.21051e-19 0.164582)
(-0.840452 4.10836e-23 0.143518)
(-0.454033 -7.71731e-19 0.0987874)
(-1.21951 0 0.248864)
(-0.663203 0 0.0982717)
(-0.734553 6.28129e-19 0.17955)
(-1.56108 0 0.281261)
(-0.287152 -5.82009e-19 0.0525623)
(-1.73772 0 0.35064)
(-0.712708 -1.0304e-18 0.148915)
(-2.35186 0 0.579408)
(-3.80388 0 0.835095)
(-4.71454 4.23785e-19 0.821826)
(-1.04138 0 0.0632242)
(32.6824 0 0.692042)
(32.9834 -5.23587e-21 0.734455)
(33.3199 0 0.684084)
(33.65 -6.58842e-21 0.520178)
(33.9103 -1.34301e-20 0.257578)
(34.0501 0 -0.07199)
(34.0408 6.69852e-21 -0.437112)
(33.871 0 -0.811693)
(33.5413 9.01922e-22 -1.17553)
(33.0611 -2.57909e-20 -1.51415)
(32.4465 0 -1.81822)
(31.7179 0 -2.08285)
(30.8974 -1.10254e-20 -2.30645)
(30.0074 0 -2.48975)
(29.0691 0 -2.63503)
(28.1013 0 -2.74557)
(27.1204 -1.62505e-20 -2.82516)
(26.1397 -1.49658e-20 -2.87776)
(25.1697 -1.35733e-20 -2.90725)
(24.2185 0 -2.91727)
(23.292 0 -2.91112)
(22.394 -1.05616e-20 -2.8917)
(21.5273 9.63321e-21 -2.86154)
(20.6932 -8.76745e-21 -2.82277)
(19.8923 -1.59217e-20 -2.77721)
(19.1245 2.87708e-20 -2.72637)
(18.3893 -5.41074e-23 -2.67151)
(17.6858 -1.17241e-20 -2.61365)
(17.013 -1.05174e-20 -2.55366)
(16.3696 0 -2.49222)
(15.7544 0 -2.4299)
(15.1661 -7.39219e-21 -2.36715)
(14.6032 0 -2.30436)
(14.0646 1.134e-20 -2.24182)
(13.549 9.80687e-21 -2.17976)
(13.0551 -8.38393e-21 -2.11837)
(12.5816 0 -2.0578)
(12.1276 5.86861e-21 -1.99815)
(11.6919 4.75498e-21 -1.93952)
(11.2735 3.80863e-24 -1.88195)
(10.8714 -5.56072e-21 -1.8255)
(10.4847 0 -1.77018)
(10.1125 -2.21922e-21 -1.71602)
(9.75403 0 -1.663)
(9.4085 0 -1.61113)
(9.07516 0 -1.56039)
(8.75334 1.39016e-23 -1.51077)
(8.44236 0 -1.46223)
(8.14162 -4.85078e-21 -1.41475)
(7.85051 1.13486e-20 -1.36829)
(7.5685 1.28577e-20 -1.32284)
(7.29503 0 -1.27834)
(7.02965 -1.54001e-20 -1.23478)
(6.77181 -3.29105e-20 -1.19209)
(6.52114 0 -1.15026)
(6.27713 0 -1.10924)
(6.03946 1.89565e-20 -1.069)
(5.80763 1.95573e-20 -1.02948)
(5.58139 -2.01031e-20 -0.990676)
(5.36025 -4.1053e-20 -0.952514)
(5.14402 0 -0.914992)
(4.93222 0 -0.878038)
(4.72472 2.86601e-23 -0.841655)
(4.52103 -4.30884e-20 -0.805768)
(4.32108 0 -0.770386)
(4.12441 4.33756e-20 -0.735433)
(3.93097 0 -0.700925)
(3.74033 0 -0.666788)
(3.55249 0 -0.633041)
(3.36705 0 -0.599621)
(3.18402 3.45141e-23 -0.566544)
(3.00312 -3.22327e-23 -0.533769)
(2.82432 -8.28393e-20 -0.5013)
(2.6475 0 -0.469134)
(2.47258 -8.05197e-20 -0.437254)
(2.29964 0 -0.405708)
(2.12853 -1.55661e-19 -0.374446)
(1.95961 1.52655e-19 -0.343588)
(1.79261 -1.49538e-19 -0.313036)
(1.62816 -1.46331e-19 -0.282995)
(1.46598 0 -0.25332)
(1.30681 1.3945e-19 -0.224289)
(1.15069 0 -0.195744)
(0.997874 -1.32243e-19 -0.167962)
(0.849694 -1.28481e-19 -0.140907)
(0.704361 2.49428e-19 -0.114621)
(0.566747 0 -0.089541)
(0.429786 -4.67897e-19 -0.064938)
(0.306113 0 -0.0424501)
(0.17792 2.1825e-19 -0.0195791)
(0.0718491 0 -0.000401224)
(-0.0472986 2.02529e-19 0.02081)
(-0.133411 0 0.036114)
(-0.241479 3.73917e-19 0.0555216)
(-0.309906 -3.58511e-19 0.0672804)
(-0.400973 3.43481e-19 0.0835704)
(-0.455569 3.28334e-19 0.0938104)
(-0.539514 0 0.106003)
(-0.538607 -5.99147e-19 0.111183)
(-0.711981 5.69123e-19 0.135932)
(-0.542363 0 0.104574)
(-0.805699 2.57221e-19 0.164507)
(-0.703645 0 0.128694)
(-0.747925 0 0.14894)
(-0.85639 -4.40455e-19 0.162899)
(-0.724222 0 0.137433)
(-0.920269 0 0.190406)
(-0.950591 3.74603e-19 0.15898)
(-0.556717 7.21376e-19 0.123312)
(-1.38155 3.22466e-19 0.283932)
(-0.762043 0 0.108286)
(-0.882669 0 0.221882)
(-1.75741 0 0.311952)
(-0.389781 0 0.0736056)
(-2.0245 4.86153e-19 0.4126)
(-0.880555 4.8132e-19 0.188106)
(-2.75926 0 0.700267)
(-4.14657 0 0.930112)
(-5.0874 0 0.853863)
(-0.772644 0 -0.0415211)
(32.6805 4.18514e-21 0.404106)
(32.9122 0 0.419272)
(33.1677 4.90262e-21 0.377839)
(33.4321 0 0.263788)
(33.6746 6.00555e-21 0.077673)
(33.8638 0 -0.1658)
(33.9766 -6.29575e-21 -0.447496)
(33.998 1.15407e-20 -0.749476)
(33.9189 2.35635e-20 -1.05658)
(33.7346 7.29469e-22 -1.35683)
(33.4446 0 -1.64121)
(33.0522 0 -1.9035)
(32.5641 0 -2.13986)
(31.9895 0 -2.3482)
(31.3394 0 -2.52777)
(30.6258 0 -2.67884)
(29.8612 1.46403e-20 -2.80244)
(29.058 -1.35618e-20 -2.90015)
(28.2276 1.27535e-20 -2.97395)
(27.3806 0 -3.02607)
(26.5261 0 -3.05883)
(25.6722 9.72358e-21 -3.07457)
(24.8251 8.89227e-21 -3.07554)
(23.99 8.11152e-21 -3.06384)
(23.1711 0 -3.04141)
(22.3713 -1.34835e-20 -3.01)
(21.5928 -2.42959e-20 -2.97114)
(20.8371 1.09174e-20 -2.92619)
(20.105 0 -2.8763)
(19.3971 0 -2.8225)
(18.7135 0 -2.76564)
(18.0539 6.91049e-21 -2.70646)
(17.418 0 -2.64556)
(16.8052 0 -2.58347)
(16.2149 9.18737e-21 -2.52063)
(15.6464 7.87591e-21 -2.4574)
(15.0988 0 -2.39408)
(14.5714 5.50905e-21 -2.33091)
(14.0633 -8.9315e-21 -2.2681)
(13.5737 -3.50181e-21 -2.20581)
(13.1018 2.6138e-21 -2.14418)
(12.6467 0 -2.08331)
(12.2077 0 -2.02327)
(11.7839 0 -1.96414)
(11.3747 -5.23683e-22 -1.90595)
(10.9793 0 -1.84873)
(10.597 2.7287e-21 -1.79251)
(10.2271 3.6674e-21 -1.73729)
(9.86894 0 -1.68307)
(9.52197 -5.32146e-21 -1.62983)
(9.18558 0 -1.57758)
(8.85915 0 -1.52629)
(8.5422 -1.4412e-20 -1.47594)
(8.23412 2.18911e-23 -1.42649)
(7.93449 1.62999e-20 -1.37793)
(7.64274 0 -1.33021)
(7.35851 0 -1.28333)
(7.08122 -1.83544e-20 -1.23721)
(6.8106 0 -1.19186)
(6.54608 3.85229e-20 -1.1472)
(6.28742 0 -1.10324)
(6.03409 0 -1.0599)
(5.7859 8.02469e-20 -1.01719)
(5.54231 8.08165e-20 -0.975019)
(5.30321 4.05688e-20 -0.933409)
(5.06806 0 -0.892271)
(4.83681 0 -0.851628)
(4.60892 4.04985e-20 -0.811395)
(4.38439 8.06034e-20 -0.771596)
(4.16275 0 -0.732159)
(3.94401 7.94074e-20 -0.693102)
(3.72778 -7.85917e-20 -0.65438)
(3.51407 7.76564e-20 -0.615997)
(3.30268 -7.65856e-20 -0.577948)
(3.09352 7.54687e-20 -0.540214)