/*--------------------------------*- C++ -*----------------------------------*\
| =========                 |                                                 |
| \\      /  F ield         | OpenFOAM: The Open Source CFD Toolbox           |
|  \\    /   O peration     | Version:  2412                                  |
|   \\  /    A nd           | Website:  www.openfoam.com                      |
|    \\/     M anipulation  |                                                 |
\*---------------------------------------------------------------------------*/
FoamFile
{
    version     2.0;
    format      ascii;
    arch        "LSB;label=32;scalar=64";
    class       surfaceScalarField;
    location    "0.98";
    object      phi;
}
// * * * * * * * * * * * * * * * * * * * * * * * * * * * * * * * * * * * * * //

dimensions      [0 3 -1 0 0 0 0];

oriented        oriented;

internalField   nonuniform List<scalar> 
24930
(
0.0154057
0.0207078
-0.036144
0.00631074
0.00909501
0.00289421
0.00341655
0.00161636
0.00127787
0.00103563
0.000580726
0.000695948
0.000339678
0.000467392
0.00022856
0.000303581
0.00016381
0.00018215
0.000121392
9.0345e-05
9.17934e-05
1.91969e-05
7.12076e-05
-3.58263e-05
5.51082e-05
-7.88133e-05
4.29949e-05
-0.000112287
3.33556e-05
-0.000137521
2.50888e-05
-0.0001575
1.99647e-05
-0.000172374
1.50638e-05
-0.000183199
1.10773e-05
-0.000190568
7.40072e-06
-0.000194793
3.82374e-06
-0.000197047
1.52955e-06
-0.000197684
2.66933e-07
-0.000196953
5.68482e-07
-0.000194685
-2.93243e-07
-0.000191015
-3.12092e-06
-0.000186377
-5.70173e-06
-0.00018078
-5.81506e-06
-0.000175612
-5.16173e-06
-0.000169816
-5.52087e-06
-0.000163582
-6.10952e-06
-0.000157151
-6.54348e-06
-0.000150734
-6.56091e-06
-0.000144396
-6.30255e-06
-0.000138082
-6.15771e-06
-0.000131811
-6.20486e-06
-0.000125698
-6.19017e-06
-0.000119803
-5.97785e-06
-0.00011413
-5.6503e-06
-0.000108684
-5.35602e-06
-0.00010346
-5.17141e-06
-9.84659e-05
-5.03779e-06
-9.37316e-05
-4.77618e-06
-8.91952e-05
-4.52378e-06
-8.48435e-05
-4.3158e-06
-8.06961e-05
-4.13161e-06
-7.68014e-05
-3.9043e-06
-7.32304e-05
-3.58009e-06
-7.00826e-05
-3.13703e-06
-6.74633e-05
-2.59717e-06
-6.54863e-05
-1.98435e-06
-6.42422e-05
-1.28753e-06
-6.37659e-05
-5.18224e-07
-6.39999e-05
3.34374e-07
-6.48078e-05
8.79304e-07
-6.58967e-05
1.13329e-06
-6.6752e-05
8.69338e-07
-6.66573e-05
-9.44634e-08
-6.46254e-05
-2.02741e-06
-5.9454e-05
-5.16905e-06
-4.98997e-05
-9.5574e-06
-3.49599e-05
-1.4947e-05
-1.42194e-05
-2.07514e-05
1.18379e-05
-2.60727e-05
4.21784e-05
-3.03588e-05
7.52795e-05
-3.31224e-05
0.00011008
-3.48209e-05
0.000146073
-3.60092e-05
0.00018305
-3.69847e-05
0.000219327
-3.62779e-05
0.000252887
-3.35719e-05
0.000278843
-2.59946e-05
0.000292434
-1.36381e-05
0.000286457
6.10546e-06
0.0002571
2.93992e-05
0.000204034
5.30557e-05
0.000127906
7.61208e-05
4.1476e-05
8.64289e-05
-4.36885e-05
8.51668e-05
-0.000124862
8.11797e-05
-0.00017226
4.74024e-05
-0.000173027
8.27767e-07
-0.000141094
-3.19172e-05
-6.35727e-05
-7.7509e-05
5.05716e-05
-0.000114137
0.000140203
-8.96304e-05
0.000196055
-5.58523e-05
0.000229737
-3.36849e-05
0.000258265
-2.85383e-05
0.000308089
-4.98502e-05
0.000474227
-0.000166173
0.000781611
-0.000307418
0.0013765
-0.000594875
0.00174077
-0.000364247
0.00225533
-0.000514553
0.00281112
-0.000555812
0.00257137
0.000239766
0.00200665
0.000564689
0.000328962
0.0016777
-0.000516174
0.00084515
-0.000118698
-0.000397492
-0.00030685
0.000188158
5.87793e-05
-0.000365628
0.000405827
-0.000347055
0.000347171
5.86446e-05
0.000790268
-0.000443101
0.000947963
-0.000157704
0.000508415
0.000439541
-0.00110619
0.0016146
-0.00372956
0.00262336
-0.00644637
0.00271682
-0.00833274
0.00188637
-0.00893708
0.000604393
-0.00836439
-0.000572634
-0.00731151
-0.0010529
-0.00538783
-0.0019237
-0.00293384
-0.00245401
-0.00103831
-0.00189553
-0.000749424
-0.000288873
5.47249e-05
-0.000804154
-0.000826321
0.0326981
0.0296613
-0.0416517
0.0218352
0.0199579
0.0137441
0.0115077
0.00879454
0.00622742
0.00589669
0.00347853
0.00411934
0.00211699
0.00293995
0.00140799
0.00210554
0.000998337
0.0014895
0.000737536
0.00102108
0.000560129
0.000658812
0.000433238
0.000374859
0.000338914
0.000151156
0.000266847
-2.41858e-05
0.000209041
-0.000172323
0.000173414
-0.000288155
0.000135525
-0.000379094
0.000105428
-0.000449859
8.15549e-05
-0.000504082
6.21317e-05
-0.00054399
4.47401e-05
-0.000572988
3.08239e-05
-0.000592513
1.83637e-05
-0.000604293
1.09054e-05
-0.000609097
4.65652e-06
-0.000608238
-2.66388e-06
-0.000602379
-1.06426e-05
-0.000592972
-1.4754e-05
-0.000581248
-1.68728e-05
-0.000566822
-2.03249e-05
-0.000550472
-2.2616e-05
-0.000532775
-2.40228e-05
-0.000514212
-2.49459e-05
-0.000495161
-2.54482e-05
-0.000475773
-2.57139e-05
-0.000456224
-2.57493e-05
-0.000436815
-2.5445e-05
-0.000417757
-2.49376e-05
-0.000399167
-2.42836e-05
-0.000381167
-2.34369e-05
-0.000363792
-2.25491e-05
-0.000347063
-2.16733e-05
-0.000331054
-2.07231e-05
-0.00031564
-1.99487e-05
-0.000300807
-1.91721e-05
-0.000286637
-1.82887e-05
-0.000273283
-1.72216e-05
-0.00026099
-1.58513e-05
-0.000250107
-1.40232e-05
-0.000241016
-1.16937e-05
-0.000234107
-8.86392e-06
-0.000229668
-5.67667e-06
-0.000227802
-2.37036e-06
-0.000228336
9.23498e-07
-0.000230769
3.25596e-06
-0.000234035
4.37404e-06
-0.00023634
3.17757e-06
-0.000235175
-1.25376e-06
-0.000227176
-1.00213e-05
-0.000208176
-2.41664e-05
-0.000173957
-4.3774e-05
-0.000121165
-6.77405e-05
-4.8528e-05
-9.33933e-05
4.21183e-05
-0.000116728
0.000146973
-0.000135228
0.000260947
-0.000147109
0.000379999
-0.000153885
0.000502262
-0.000158287
0.000626745
-0.000161486
0.000748924
-0.000158478
0.000862148
-0.000146807
0.000951693
-0.000115532
0.0010012
-6.31321e-05
0.000987263
2.00416e-05
0.000895192
0.000121414
0.000720129
0.000228099
0.0004622
0.000334034
0.000162989
0.00038563
-0.000135708
0.000383855
-0.000417536
0.000363001
-0.000580728
0.000210592
-0.00058014
2.8521e-07
-0.000465154
-0.00014691
-0.000194798
-0.000347859
0.000192026
-0.000500949
0.000504023
-0.000401611
0.00069035
-0.000242158
0.000784983
-0.00012828
0.000827325
-7.08238e-05
0.00096335
-0.000185823
0.00145174
-0.000654511
0.00247
-0.00132568
0.0043941
-0.00251897
0.00563356
-0.00160372
0.00738179
-0.00226281
0.0093493
-0.00252335
0.00901419
0.00057486
0.00710184
0.00247702
0.00149637
0.00728315
-0.00151336
0.00385485
-0.000466205
-0.00144468
-0.000940926
0.000662861
0.000287969
-0.00159454
0.00146728
-0.00152637
0.00129651
0.000229417
0.00263116
-0.00177776
0.002996
-0.000522533
0.000920199
0.00251533
-0.00497125
0.00750605
-0.0137562
0.0114083
-0.0221807
0.0111413
-0.0275202
0.00722588
-0.0286813
0.00176548
-0.0264031
-0.00285092
-0.0226927
-0.00476327
-0.0167632
-0.00785314
-0.00898646
-0.0102308
-0.00299157
-0.00789043
-0.00200555
-0.00127492
0.000202355
-0.00301207
-0.00346752
0.0423613
0.032047
-0.0447469
0.0350352
0.027284
0.0265168
0.0200262
0.0192185
0.0135257
0.0138403
0.00885668
0.0100855
0.00587181
0.00745181
0.00404174
0.0055483
0.00290188
0.00412718
0.00215865
0.0030382
0.00164904
0.00218733
0.00128406
0.00151324
0.00101303
0.000973988
0.000806183
0.000539967
0.000643136
0.000191638
0.000521714
-9.02424e-05
0.000417248
-0.000319516
0.000334515
-0.000502663
0.000264677
-0.000648076
0.000207811
-0.000761168
0.000158317
-0.000848577
0.000118642
-0.000914302
8.38675e-05
-0.000961024
5.55192e-05
-0.000991333
3.30245e-05
-0.00100809
1.43768e-05
-0.0010145
-3.70955e-06
-0.00101204
-1.71472e-05
-0.00100243
-2.68453e-05
-0.000986435
-3.65387e-05
-0.000965556
-4.34404e-05
-0.000940951
-4.84971e-05
-0.000913556
-5.2323e-05
-0.000884218
-5.48504e-05
-0.00085346
-5.6488e-05
-0.000821713
-5.744e-05
-0.00078958
-5.75219e-05
-0.000757516
-5.6993e-05
-0.000725835
-5.59788e-05
-0.000694847
-5.44152e-05
-0.000664684
-5.26761e-05
-0.000635432
-5.08917e-05
-0.000607246
-4.88977e-05
-0.00057998
-4.72118e-05
-0.000553634
-4.55056e-05
-0.000528379
-4.35223e-05
-0.000504497
-4.10848e-05
-0.000482437
-3.79004e-05
-0.000462834
-3.36178e-05
-0.000446386
-2.81302e-05
-0.000433782
-2.14529e-05
-0.000425543
-1.39042e-05
-0.000421852
-6.05544e-06
-0.000422376
1.44908e-06
-0.000426182
7.04324e-06
-0.000431287
9.4773e-06
-0.000434457
6.35639e-06
-0.000431171
-4.52867e-06
-0.000415322
-2.58625e-05
-0.000379495
-5.99877e-05
-0.000316269
-0.000106997
-0.000219763
-0.000164248
-8.79514e-05
-0.00022521
7.6108e-05
-0.000280796
0.000265274
-0.000324402
0.000469945
-0.000351792
0.000682569
-0.000366523
0.000899757
-0.000375493
0.00111969
-0.000381437
0.0013355
-0.000374309
0.00153626
-0.000347589
0.0016978
-0.000277093
0.00179188
-0.000157214
0.00177741
3.44306e-05
0.00162575
0.000273051
0.00132425
0.000529569
0.000868515
0.000789757
0.000329884
0.000924249
-0.000214023
0.000927751
-0.000725176
0.000874147
-0.00102012
0.000505525
-0.00101656
-3.23495e-06
-0.000806038
-0.000357432
-0.000320417
-0.000833473
0.000370931
-0.00119229
0.000931763
-0.000962425
0.0012564
-0.000566773
0.00139147
-0.000263317
0.00139827
-7.75822e-05
0.00157682
-0.000364359
0.00236242
-0.00144007
0.00409191
-0.00305517
0.00741182
-0.00583887
0.00960503
-0.00379694
0.0126614
-0.00531921
0.0162813
-0.00614323
0.0162839
0.000572266
0.0131368
0.00562406
0.00327014
0.0171498
-0.00237685
0.00950182
-0.00087777
-0.00294379
-0.00158601
0.00137108
0.000632279
-0.00381285
0.00274758
-0.00364167
0.00245628
0.000520711
0.00462793
-0.00394941
0.00494954
-0.000844146
0.000525499
0.00693936
-0.0105203
0.0185518
-0.0259275
0.0268155
-0.039704
0.0249178
-0.047673
0.0151949
-0.0485774
0.00266984
-0.0440856
-0.00734265
-0.0375542
-0.0112947
-0.0276555
-0.0177519
-0.014716
-0.0231703
-0.00460765
-0.0179988
-0.00297732
-0.00290525
0.000429313
-0.00641871
-0.00794572
0.0481604
0.0316279
-0.0477413
0.0448099
0.0306346
0.0384679
0.0263682
0.0311258
0.0208678
0.0243303
0.0156521
0.0187485
0.0114536
0.0144112
0.0083791
0.0110891
0.00622398
0.00852849
0.00471927
0.00652866
0.00364882
0.00494564
0.00286705
0.00367815
0.00228054
0.00265429
0.00183011
0.00182193
0.00147552
0.0011447
0.00119888
0.00059063
0.000971202
0.000139029
0.000786051
-0.000229952
0.000633751
-0.000529308
0.000507361
-0.000768788
0.000397838
-0.000959375
0.000308885
-0.00110826
0.000232425
-0.00122174
0.000168738
-0.0013053
0.000116247
-0.00136363
7.30158e-05
-0.00140029
3.447e-05
-0.00141979
1.87903e-06
-0.00142499
-2.20042e-05
-0.0014183
-4.33556e-05
-0.00140147
-6.01086e-05
-0.00137681
-7.30424e-05
-0.00134593
-8.3222e-05
-0.00131039
-9.04522e-05
-0.0012713
-9.55687e-05
-0.00122953
-9.91439e-05
-0.00118612
-0.000100893
-0.00114189
-0.000101221
-0.00109747
-0.000100406
-0.00105346
-9.84069e-05
-0.00101017
-9.59242e-05
-0.000967816
-9.32183e-05
-0.000926689
-9.00158e-05
-0.000886674
-8.72219e-05
-0.000847815
-8.43482e-05
-0.0008104
-8.09129e-05
-0.000774877
-7.65898e-05
-0.000741932
-7.08349e-05
-0.000712525
-6.30159e-05
-0.00068771
-5.29306e-05
-0.000668521
-4.06265e-05
-0.000655735
-2.66825e-05
-0.000649615
-1.2176e-05
-0.000649689
1.48035e-06
-0.000654485
1.18338e-05
-0.000660968
1.59665e-05
-0.000664288
9.68736e-06
-0.000657683
-1.11182e-05
-0.000631986
-5.15513e-05
-0.000576196
-0.000115772
-0.000479399
-0.000203791
-0.000333039
-0.00031061
-0.00013432
-0.000423934
0.000112154
-0.000527279
0.000395497
-0.000607757
0.000701146
-0.000657454
0.00101737
-0.000682767
0.00133878
-0.00069692
0.00166279
-0.000705462
0.0019806
-0.00069214
0.00227766
-0.000644669
0.00252078
-0.000520236
0.00266959
-0.000306045
0.00266475
3.91831e-05
0.0024602
0.000477575
0.00203115
0.000958592
0.00136384
0.00145705
0.000559055
0.00172903
-0.000263003
0.0017498
-0.00103586
0.001647
-0.00148159
0.000951247
-0.00147603
-8.76901e-06
-0.00115907
-0.000674396
-0.000436036
-0.0015565
0.000587858
-0.00221617
0.00142232
-0.00179687
0.00189129
-0.00103571
0.00203848
-0.000410474
0.00195032
1.05829e-05
0.00212199
-0.000535996
0.00316826
-0.00248629
0.005593
-0.00547991
0.0103328
-0.0105786
0.0136023
-0.00706649
0.0179855
-0.00970239
0.0233726
-0.0115304
0.0242262
-0.000281353
0.0202004
0.00964988
0.00582833
0.0315218
-0.00300352
0.0183336
-0.00133371
-0.00461363
-0.00221837
0.00225573
0.00111708
-0.00714832
0.00427287
-0.00679747
0.00384729
0.000946287
0.00675029
-0.00685242
0.00665243
-0.000746292
-0.000957913
0.0145497
-0.0180479
0.0356418
-0.0402471
0.0490147
-0.0586833
0.043354
-0.0681528
0.0246643
-0.0679182
0.00243519
-0.0608541
-0.0144068
-0.0514201
-0.0207287
-0.0377916
-0.0313804
-0.0199342
-0.0410276
-0.00576732
-0.0321656
-0.00359208
-0.0050805
0.000778438
-0.0107892
-0.0142405
0.0519785
0.0305226
-0.0508732
0.0512977
0.0313153
0.0478608
0.0298051
0.0423042
0.0264244
0.0358206
0.0221357
0.0294494
0.0178248
0.0237838
0.0140447
0.019018
0.0109898
0.0151134
0.00862381
0.0119421
0.00682016
0.00936533
0.00544376
0.00726359
0.00438228
0.0055414
0.00355233
0.00412435
0.00289258
0.0029569
0.00236631
0.00199205
0.00193599
0.00119526
0.0015828
0.000538727
0.00129032
2.43266e-06
0.00104367
-0.000441634
0.000841858
-0.000799808
0.000666847
-0.00108684
0.000519488
-0.00131339
0.000395791
-0.00148854
0.000292082
-0.00162015
0.000204846
-0.00171597
0.000130451
-0.00178254
6.80795e-05
-0.00182026
1.58633e-05
-0.00183809
-2.53097e-05
-0.00183914
-5.88287e-05
-0.00182522
-8.68615e-05
-0.00179956
-0.000108933
-0.00176474
-0.000125329
-0.00172275
-0.000137539
-0.00167511
-0.000146716
-0.0016235
-0.00015247
-0.00156931
-0.000155416
-0.00151363
-0.000156095
-0.00145747
-0.000154542
-0.00140145
-0.000151897
-0.00134601
-0.000148638
-0.00129165
-0.000144364
-0.00123836
-0.000140503
-0.00118628
-0.000136414
-0.00113585
-0.000131319
-0.00108772
-0.000124696
-0.00104287
-0.000115677
-0.00100262
-0.000103258
-0.000968425
-8.71054e-05
-0.000941722
-6.73134e-05
-0.000923576
-4.48209e-05
-0.000914324
-2.14284e-05
-0.000913346
4.87409e-07
-0.000918541
1.70355e-05
-0.000925696
2.31331e-05
-0.000928199
1.22043e-05
-0.000916754
-2.25504e-05
-0.000878867
-8.94309e-05
-0.000799724
-0.00019491
-0.000664706
-0.000338807
-0.000462428
-0.00051289
-0.000189318
-0.000697051
0.000148314
-0.000864921
0.000535448
-0.000994903
0.000952027
-0.00107405
0.00138143
-0.00111218
0.00181577
-0.00113128
0.0022518
-0.00114151
0.00267925
-0.0011196
0.00308094
-0.00104638
0.00341547
-0.000854792
0.00363097
-0.000521571
0.00364838
2.17958e-05
0.00340237
0.000723556
0.00285112
0.00150982
0.00196455
0.00234359
0.0008702
0.00282337
-0.000262627
0.00288262
-0.00133068
0.00271504
-0.00194858
0.00156914
-0.00194432
-1.30376e-05
-0.00151336
-0.00110536
-0.000535909
-0.00253394
0.000844887
-0.00359695
0.0019728
-0.00292476
0.00258628
-0.00164916
0.0027064
-0.000530555
0.0024549
0.000262149
0.0025563
-0.00063737
0.00382552
-0.00375546
0.00689843
-0.00855282
0.0130295
-0.0167097
0.0175262
-0.0115632
0.0231831
-0.0153594
0.0302892
-0.0186365
0.0325904
-0.00258262
0.0283001
0.0139402
0.00934647
0.0504754
-0.00328311
0.0309632
-0.00180805
-0.00608873
-0.00281593
0.00326358
0.00174857
-0.0117128
0.00605918
-0.0111081
0.00549099
0.00151447
0.00895907
-0.0103205
0.00794372
0.000269057
-0.00373929
0.0262327
-0.0277227
0.0596252
-0.0565774
0.0778694
-0.078573
0.0653496
-0.0882904
0.0343817
-0.0861586
0.000303406
-0.0763529
-0.0242125
-0.0641637
-0.0329179
-0.047049
-0.0484951
-0.0246452
-0.0634315
-0.00650715
-0.0503036
-0.00386222
-0.00772544
0.00128405
-0.0159355
-0.0223467
0.0551125
0.0295738
-0.0541636
0.0556304
0.0307974
0.0544969
0.0309386
0.0513213
0.0296001
0.0464775
0.0269794
0.0407032
0.0235991
0.0347224
0.0200256
0.0290537
0.0166586
0.0239741
0.0137034
0.0195735
0.0112207
0.0158317
0.00918545
0.0126796
0.00753441
0.0100348
0.00619717
0.00781869
0.00510873
0.00596428
0.00422073
0.00441235
0.00348789
0.00311522
0.00287988
0.0020331
0.00237239
0.00113266
0.00194407
0.000388019
0.00158644
-0.000225295
0.00128021
-0.000726952
0.00102151
-0.00113226
0.000801745
-0.00145542
0.00061572
-0.00170865
0.000457855
-0.00190259
0.000323685
-0.00204618
0.000210936
-0.00214975
0.00011843
-0.00221567
4.07508e-05
-0.00225125
-2.30675e-05
-0.00226526
-7.28163e-05
-0.00225815
-0.000116115
-0.00223478
-0.000148759
-0.00219847
-0.000173814
-0.00215176
-0.000193358
-0.00209722
-0.000206982
-0.00203706
-0.000215582
-0.00197304
-0.000220112
-0.0019068
-0.000220754
-0.00183942
-0.000219235
-0.00177166
-0.000216374
-0.00170439
-0.000211628
-0.00163777
-0.000207108
-0.00157211
-0.000202054
-0.00150808
-0.00019533
-0.00144658
-0.000186174
-0.00138892
-0.000173328
-0.00133684
-0.000155326
-0.00129227
-0.000131662
-0.00125707
-0.000102496
-0.00123264
-6.92413e-05
-0.00121943
-3.46321e-05
-0.00121661
-2.42953e-06
-0.0012214
2.18413e-05
-0.00122832
3.00654e-05
-0.00122878
1.26763e-05
-0.00121077
-4.05442e-05
-0.00115818
-0.000142018
-0.00105219
-0.000300894
-0.000874302
-0.000516691
-0.000610222
-0.000776973
-0.000255574
-0.00105171
0.000181513
-0.00130202
0.000681582
-0.00149498
0.00121869
-0.00161117
0.00177065
-0.00166416
0.00232654
-0.00168718
0.0028825
-0.00169748
0.00342718
-0.0016643
0.00394192
-0.00156114
0.00437815
-0.00129104
0.00467347
-0.000816921
0.00472943
-3.42377e-05
0.00445752
0.000995429
0.00379566
0.00217166
0.00268894
0.00345029
0.00128645
0.00422584
-0.000188273
0.00435733
-0.00158668
0.00411345
-0.00240153
0.00238397
-0.00240697
-7.63582e-06
-0.00185874
-0.00165359
-0.000614815
-0.00377786
0.00114088
-0.00535263
0.00257676
-0.00436062
0.0033289
-0.00240128
0.00337431
-0.000575911
0.00287888
0.000757615
0.00284736
-0.000605802
0.00429466
-0.0052027
0.00796397
-0.0122221
0.0153736
-0.0241193
0.0213111
-0.0175006
0.0281438
-0.0221922
0.036668
-0.0271608
0.0410408
-0.00695542
0.0373595
0.0176215
0.0139923
0.0738426
-0.00307725
0.0480327
-0.00225865
-0.00690737
-0.0033379
0.0043428
0.00253549
-0.0175862
0.00811269
-0.0166853
0.00740328
0.00222388
0.0111876
-0.0141048
0.00862737
0.00282926
-0.00813949
0.0429996
-0.039633
0.0911187
-0.0745746
0.112811
-0.0986946
0.0894696
-0.107411
0.0430981
-0.102887
-0.00422067
-0.0904279
-0.0366716
-0.0757205
-0.0476253
-0.0555112
-0.0687044
-0.0289165
-0.0900261
-0.00682931
-0.0723908
-0.00374212
-0.0108126
0.00198365
-0.0216613
-0.0322451
0.0583402
0.0289126
-0.057679
0.0591029
0.0300347
0.0592057
0.0308359
0.0579669
0.0308389
0.0551456
0.0298007
0.0509366
0.0278081
0.0457873
0.025175
0.0402023
0.0222436
0.0346141
0.0192916
0.029327
0.0165078
0.0245146
0.0139977
0.0202469
0.0118021
0.0165257
0.00991839
0.0133158
0.00831874
0.0105675
0.00696909
0.00822547
0.00582987
0.00623771
0.00486754
0.00455681
0.00405318
0.00314057
0.00336024
0.00195366
0.00277336
0.000963138
0.00227097
0.000142472
0.00184265
-0.000532405
0.00147711
-0.0010818
0.00116521
-0.00152369
0.000899183
-0.0018737
0.000672901
-0.00214513
0.000481967
-0.00234932
0.000322574
-0.00249911
0.00019078
-0.00260305
8.11842e-05
-0.00266312
-1.31152e-05
-0.00269549
-8.38688e-05
-0.0026999
-0.000144411
-0.00268248
-0.000191177
-0.00264728
-0.000228492
-0.00259822
-0.000256017
-0.00253869
-0.000275128
-0.00247141
-0.000287388
-0.00239889
-0.000293235
-0.00232293
-0.000295159
-0.00224477
-0.000294505
-0.00216582
-0.000290573
-0.00208657
-0.000286351
-0.00200756
-0.000281038
-0.00192978
-0.000273083
-0.00185448
-0.000261456
-0.00178334
-0.000244458
-0.00171859
-0.00022006
-0.00166269
-0.000187551
-0.00161799
-0.000147175
-0.00158627
-0.000100944
-0.00156811
-5.27783e-05
-0.00156252
-8.03492e-06
-0.00156587
2.52082e-05
-0.0015713
3.55127e-05
-0.00156828
9.67542e-06
-0.0015418
-6.70178e-05
-0.00147189
-0.00021192
-0.00133562
-0.000437157
-0.00111051
-0.000741802
-0.000779264
-0.00110822
-0.000336658
-0.00149432
0.000207375
-0.00184606
0.000828738
-0.00211636
0.00149536
-0.00227781
0.00217883
-0.00234764
0.00286452
-0.00237289
0.00354792
-0.0023809
0.00421703
-0.00233343
0.00485288
-0.00219701
0.00540107
-0.00183925
0.00579029
-0.00120618
0.00590327
-0.000147288
0.00562661
0.00127206
0.00487379
0.00292444
0.00355545
0.00476861
0.00183382
0.00594745
-1.04926e-05
0.00620163
-0.00177486
0.0058778
-0.0028156
0.0034247
-0.00284446
2.12482e-05
-0.00218243
-0.00231561
-0.000667645
-0.00529264
0.0014727
-0.00749296
0.0032238
-0.0061117
0.0041002
-0.00327765
0.00401191
-0.000487568
0.00318482
0.00158476
0.00295678
-0.000377806
0.00453923
-0.00678508
0.00875047
-0.0164334
0.0172394
-0.0326082
0.0248689
-0.0251301
0.0327582
-0.0300815
0.0421744
-0.0365771
0.0491757
-0.0139568
0.0471915
0.0196058
0.0199023
0.101132
-0.0022305
0.0701654
-0.00262097
-0.00651694
-0.00373772
0.00545952
0.00347749
-0.0248015
0.010426
-0.0236338
0.00958987
0.00306003
0.0133532
-0.0178682
0.00848771
0.00769477
-0.0143688
0.0658561
-0.0537322
0.130482
-0.0937485
0.152827
-0.118364
0.114085
-0.125162
0.0498963
-0.118092
-0.0112908
-0.103255
-0.0515093
-0.0863838
-0.0644961
-0.0634494
-0.0916388
-0.0329959
-0.12048
-0.00684724
-0.0985395
-0.00324209
-0.0144178
0.00291453
-0.0278179
-0.0439322
0.0619266
0.0284365
-0.0614504
0.0625589
0.0294024
0.063055
0.0303399
0.0629172
0.0309767
0.0617185
0.0309993
0.0592688
0.0302578
0.0556369
0.028807
0.0510719
0.0268086
0.0459081
0.0244554
0.0404864
0.0219295
0.0351004
0.0193836
0.0299693
0.0169331
0.0252323
0.0146555
0.0209591
0.0125919
0.01717
0.0107583
0.0138512
0.00914865
0.0109715
0.00774707
0.00849164
0.00653296
0.00636927
0.00548254
0.0045648
0.00457791
0.00303907
0.00379695
0.00175762
0.00312447
0.000689065
0.00254588
-0.000194649
0.0020487
-0.000918605
0.00162249
-0.00150482
0.00125849
-0.00197261
0.000949607
-0.00233914
0.000689336
-0.00261927
0.000471242
-0.00282713
0.00028925
-0.00297949
0.000139522
-0.00307245
9.05223e-06
-0.00312894
-8.79251e-05
-0.00315018
-0.000169867
-0.00314245
-0.000236156
-0.0031117
-0.000286753
-0.00306304
-0.000323795
-0.00300058
-0.000349841
-0.00292808
-0.000365704
-0.00284832
-0.000374875
-0.00276333
-0.000379476
-0.00267525
-0.000378642
-0.0025851
-0.000376485
-0.00249383
-0.000372288
-0.00240283
-0.000364054
-0.0023138
-0.000350468
-0.00222889
-0.000329361
-0.00215088
-0.000298051
-0.00208283
-0.000255581
-0.00202768
-0.000202307
-0.00198763
-0.000140981
-0.00196345
-7.69414e-05
-0.00195388
-1.75875e-05
-0.00195453
2.58843e-05
-0.00195721
3.82089e-05
-0.00194891
1.38255e-06
-0.00191191
-0.000104004
-0.00182206
-0.000301763
-0.00165232
-0.000606893
-0.00137616
-0.00101796
-0.000973241
-0.00151114
-0.000437346
-0.00203023
0.000219964
-0.00250339
0.000969854
-0.00286626
0.00177414
-0.00308212
0.00259751
-0.00317102
0.00342096
-0.00319636
0.0042392
-0.00319914
0.00503975
-0.003134
0.00580462
-0.00296189
0.00647505
-0.00250971
0.00697316
-0.00170432
0.00716356
-0.000337719
0.00690737
0.00152821
0.00609135
0.00374043
0.00458115
0.00627879
0.00253999
0.00798859
0.000304991
0.00843661
-0.00186088
0.00804366
-0.00316149
0.00472531
-0.00323612
9.57265e-05
-0.00247132
-0.00308041
-0.000690316
-0.00707363
0.00183456
-0.0100178
0.00389921
-0.00817633
0.00487644
-0.00425484
0.00458533
-0.000196412
0.00333304
0.00283712
0.00285568
9.96547e-05
0.00452984
-0.00845918
0.00924134
-0.0211449
0.0185293
-0.0418962
0.0281152
-0.034716
0.0369502
-0.0389165
0.0466141
-0.0462412
0.0566284
-0.0239711
0.057494
0.0187402
0.0271664
0.131459
-0.000549629
0.0978814
-0.00280555
-0.00426108
-0.00395395
0.00660788
0.00457183
-0.0333273
0.0129769
-0.0320389
0.0120413
0.00399564
0.0153322
-0.021159
0.00728643
0.0157405
-0.0226091
0.0957517
-0.0698363
0.177709
-0.113485
0.196476
-0.13702
0.13762
-0.141421
0.0542977
-0.132003
-0.0207091
-0.115212
-0.0683006
-0.0965224
-0.0831854
-0.071263
-0.116898
-0.0372071
-0.154536
-0.00668393
-0.129063
-0.00233233
-0.0187694
0.00411815
-0.0342684
-0.0574131
0.0658643
0.028052
-0.0654798
0.0663305
0.0289362
0.0668213
0.0298491
0.0671013
0.0306966
0.0668425
0.0312581
0.0657511
0.0313492
0.063661
0.0308971
0.0605557
0.0299139
0.0565471
0.028464
0.0518357
0.0266409
0.0466679
0.0245514
0.0412975
0.0223035
0.0359546
0.0199984
0.0308235
0.0177232
0.0260341
0.0155477
0.0216628
0.0135199
0.0177428
0.011667
0.014276
0.00999965
0.0112438
0.00851463
0.00861754
0.00720426
0.00636132
0.00605335
0.00443837
0.0050476
0.00281221
0.00417202
0.00144805
0.0034125
0.00031364
0.00275636
-0.0006204
0.00219221
-0.0013808
0.00171011
-0.00199168
0.00130058
-0.00247448
0.000954334
-0.00284827
0.000663077
-0.00312909
0.000420206
-0.00333935
0.000219074
-0.00347697
4.97284e-05
-0.00356397
-8.27801e-05
-0.00360772
-0.000192336
-0.00361449
-0.000279982
-0.00359214
-0.000346156
-0.00354687
-0.000395106
-0.00348416
-0.000428364
-0.00340828
-0.000450715
-0.00332233
-0.000465404
-0.00322958
-0.00047139
-0.00313182
-0.000474232
-0.00303058
-0.000473499
-0.00292786
-0.00046674
-0.00282594
-0.000452372
-0.00272753
-0.000427759
-0.00263609
-0.000389482
-0.00255534
-0.000336309
-0.00248889
-0.000268732
-0.00243946
-0.000190394
-0.00240806
-0.000108321
-0.00239323
-3.2395e-05
-0.00238973
2.24116e-05
-0.00238785
3.63569e-05
-0.00237286
-1.35809e-05
-0.00232304
-0.00015381
-0.00221087
-0.000413925
-0.00200499
-0.000812772
-0.00167483
-0.00134812
-0.00119696
-0.00198901
-0.000563936
-0.00266326
0.000211483
-0.00327882
0.00109566
-0.00375046
0.00204471
-0.00403118
0.00301578
-0.00414211
0.00398471
-0.00416531
0.0049451
-0.00415955
0.00588406
-0.00407298
0.00678561
-0.00386346
0.00758827
-0.00331239
0.00820978
-0.00232586
0.00849932
-0.000627291
0.00829254
0.00173496
0.00744905
0.00458388
0.00577968
0.00794813
0.00343247
0.0103358
0.000795024
0.011074
-0.00180519
0.0106439
-0.00340598
0.00632609
-0.0035578
0.000247539
-0.00271172
-0.00392649
-0.000680043
-0.00910529
0.00221783
-0.0129157
0.00458405
-0.0105425
0.00562674
-0.00529749
0.00505455
0.000375845
0.00328353
0.0046082
0.00251746
0.000865713
0.00424424
-0.0101859
0.00943048
-0.0263312
0.0191985
-0.0516642
0.0309546
-0.0464722
0.0406267
-0.0485886
0.0500231
-0.0556377
0.0631807
-0.0371287
0.0678657
0.0140553
0.035816
0.163509
0.00196786
0.131729
-0.00269016
0.00039689
-0.00391195
0.00782963
0.00581332
-0.0430526
0.0157284
-0.041954
0.0147284
0.00499556
0.0169817
-0.0234123
0.0047929
0.0279294
-0.032967
0.133512
-0.0876352
0.232377
-0.133098
0.241939
-0.154404
0.158926
-0.156604
0.0564975
-0.145211
-0.0321019
-0.126867
-0.086645
-0.106669
-0.103383
-0.0793751
-0.144192
-0.0419281
-0.191983
-0.00653809
-0.164453
-0.0010025
-0.024305
0.00563851
-0.0409094
-0.0727174
0.0701132
0.0277166
-0.0697778
0.0704756
0.0285738
0.0708708
0.0294539
0.0712178
0.0303496
0.071345
0.0311309
0.0710315
0.0316627
0.0700688
0.0318599
0.0683071
0.0316757
0.065679
0.0310921
0.0622027
0.0301172
0.0579719
0.0287821
0.0531407
0.0271347
0.0479032
0.0252359
0.0424699
0.0231566
0.0370434
0.0209743
0.0317967
0.0187665
0.0268608
0.0166028
0.022321
0.0145393
0.0182219
0.0126136
0.0145773
0.0108489
0.0113776
0.0092531
0.00859951
0.00782573
0.00621135
0.00656005
0.00417755
0.005446
0.00246149
0.00447214
0.00102723
0.00362645
-0.00015943
0.00289706
-0.00112984
0.00227137
-0.00191423
0.0017389
-0.00253862
0.00128739
-0.00302698
0.000908392
-0.00339832
0.000590319
-0.00367746
0.000328886
-0.00387209
0.000111947
-0.00399766
-6.67283e-05
-0.00407106
-0.00020659
-0.00409811
-0.000319116
-0.00408854
-0.000404661
-0.00405045
-0.000466411
-0.00399022
-0.000510898
-0.00391254
-0.00054307
-0.00382226
-0.000561666
-0.00372235
-0.000574118
-0.00361522
-0.000580597
-0.00350371
-0.000578226
-0.00339085
-0.000565214
-0.00328008
-0.000538518
-0.00317564
-0.000493911
-0.00308206
-0.000429864
-0.00300373
-0.000347041
-0.00294396
-0.000250134
-0.00290412
-0.00014814
-0.00288253
-5.39525e-05
-0.00287325
1.31632e-05
-0.00286539
2.85244e-05
-0.00284153
-3.74224e-05
-0.00277717
-0.000218157
-0.00264074
-0.000550353
-0.00239688
-0.00105662
-0.00201106
-0.00173395
-0.00145662
-0.00254345
-0.000724553
-0.00339534
0.000172033
-0.00417542
0.0011944
-0.00477284
0.00229403
-0.00513083
0.00341994
-0.00526804
0.00454189
-0.00528727
0.0056519
-0.00526958
0.00673639
-0.00515748
0.00778222
-0.00490931
0.00872667
-0.00425685
0.00948541
-0.00308464
0.00989546
-0.00103738
0.00976905
0.00186133
0.00894047
0.00541243
0.00715844
0.00973014
0.00453585
0.0129583
0.0014984
0.0141115
-0.0015639
0.0137062
-0.00351161
0.00827379
-0.00378451
0.000520433
-0.00289005
-0.00482094
-0.000635552
-0.0113598
0.0026112
-0.0161624
0.00525506
-0.0131864
0.00631545
-0.00635784
0.0053744
0.00131696
0.00299704
0.00698562
0.00192535
0.00193748
0.00366678
-0.0119272
0.00931644
-0.0319808
0.0192807
-0.0616284
0.0333029
-0.0604944
0.0436636
-0.0589493
0.0527209
-0.0646952
0.068858
-0.0532659
0.0778446
0.00506877
0.0458215
0.195532
0.00557163
0.171979
-0.00214511
0.00811356
-0.00352242
0.0092069
0.00719943
-0.0537745
0.0186314
-0.053386
0.0175973
0.00602964
0.01812
-0.023935
0.000800003
0.0452494
-0.0454728
0.179784
-0.106729
0.293634
-0.152024
0.287233
-0.170591
0.177493
-0.171301
0.0572077
-0.158309
-0.0450939
-0.138743
-0.106211
-0.117241
-0.124885
-0.0880603
-0.173373
-0.0474085
-0.232634
-0.00656826
-0.205293
0.000716819
-0.0315901
0.00752135
-0.0477139
-0.0898984
0.0746727
0.0274145
-0.0743706
0.0749802
0.0282664
0.0752997
0.0291344
0.0756063
0.030043
0.0758284
0.0309087
0.0758474
0.0316438
0.0755151
0.0321923
0.074679
0.0325118
0.0732072
0.0325638
0.0710066
0.0323178
0.0680338
0.0317549
0.064301
0.0308674
0.0598778
0.0296591
0.0548873
0.0281471
0.0494962
0.0263655
0.043896
0.0243667
0.0382809
0.0222179
0.0328251
0.0199951
0.0276667
0.0177719
0.022902
0.0156135
0.0185861
0.013569
0.0147407
0.0116711
0.0113625
0.0099381
0.00843146
0.00837695
0.00591688
0.0069867
0.00378252
0.00576102
0.00198972
0.0046902
0.0004994
0.00376197
-0.000724733
0.00296306
-0.00171869
0.00228119
-0.00251516
0.00170471
-0.003142
0.00121713
-0.00362402
0.000810982
-0.00398845
0.000476484
-0.00425287
0.000197735
-0.00442677
-3.27105e-05
-0.00453829
-0.000207614
-0.00459203
-0.000350893
-0.00460074
-0.000457647
-0.0045739
-0.00053771
-0.00451852
-0.000598431
-0.00444176
-0.000638416
-0.00434835
-0.000667502
-0.00424197
-0.000686951
-0.00412662
-0.000693547
-0.00400641
-0.000685409
-0.00388568
-0.000659237
-0.00376963
-0.000609945
-0.00366377
-0.000535705
-0.00357339
-0.000437391
-0.00350259
-0.000320912
-0.00345314
-0.000197553
-0.0034235
-8.35636e-05
-0.0034068
-3.50901e-06
-0.00339109
1.28425e-05
-0.00335694
-7.15473e-05
-0.00327631