/*--------------------------------*- C++ -*----------------------------------*\
| =========                 |                                                 |
| \\      /  F ield         | OpenFOAM: The Open Source CFD Toolbox           |
|  \\    /   O peration     | Version:  2412                                  |
|   \\  /    A nd           | Website:  www.openfoam.com                      |
|    \\/     M anipulation  |                                                 |
\*---------------------------------------------------------------------------*/
FoamFile
{
    version     2.0;
    format      ascii;
    arch        "LSB;label=32;scalar=64";
    class       volVectorField;
    location    "0.595";
    object      U;
}
// * * * * * * * * * * * * * * * * * * * * * * * * * * * * * * * * * * * * * //

dimensions      [0 1 -1 0 0 0 0];

internalField   nonuniform List<vector> 
12600
(
(19.5754 0 -0.736336)
(7.96632 -3.82408e-20 -1.65824)
(3.39023 -1.81257e-20 -1.70358)
(1.7318 0 -1.26072)
(1.09446 -2.05628e-22 -0.84327)
(0.754592 0 -0.573823)
(0.526634 -3.00428e-20 -0.401627)
(0.361758 0 -0.283237)
(0.238831 0 -0.196902)
(0.145518 0 -0.13186)
(0.07292 0 -0.082825)
(0.0160326 -9.74302e-20 -0.0445947)
(-0.0286593 -9.97139e-20 -0.0143247)
(-0.0639282 0 0.00993611)
(-0.0917626 2.02858e-19 0.0289328)
(-0.113285 0 0.0439898)
(-0.129811 2.97923e-22 0.0560607)
(-0.142407 0 0.065525)
(-0.151593 9.83679e-20 0.0726273)
(-0.157964 0 0.0779175)
(-0.162113 0 0.0817103)
(-0.164057 0 0.0842045)
(-0.164607 3.62265e-19 0.0855162)
(-0.163837 -3.53734e-19 0.0861004)
(-0.161618 -2.29848e-22 0.0860971)
(-0.158555 1.66573e-19 0.0852542)
(-0.154954 0 0.0838351)
(-0.150732 0 0.0820609)
(-0.145995 0 0.0799969)
(-0.140946 -2.93177e-19 0.0776534)
(-0.135681 -5.66147e-19 0.0750915)
(-0.130251 0 0.072384)
(-0.124757 0 0.069569)
(-0.119273 -2.53852e-19 0.0667003)
(-0.113828 -2.44429e-19 0.0638242)
(-0.108446 0 0.0609553)
(-0.103166 0 0.0581093)
(-0.0980431 -4.34844e-19 0.0553247)
(-0.0930754 0 0.0526092)
(-0.088276 6.62012e-23 0.0499733)
(-0.0836685 -3.85227e-19 0.0474283)
(-0.0792264 -3.6972e-19 0.0449642)
(-0.0749683 0 0.0425861)
(-0.0708713 -3.4008e-19 0.0402885)
(-0.0669131 -3.25963e-19 0.0380643)
(-0.0630983 6.24721e-19 0.0359172)
(-0.0594378 -5.98499e-19 0.0338553)
(-0.0559596 0 0.0318957)
(-0.0527084 5.48687e-19 0.0300649)
(-0.0497403 -5.25107e-19 0.0283951)
(-0.0471279 0 0.0269283)
(-0.0449332 -2.08014e-23 0.0256951)
(-0.0432002 4.59459e-19 0.0247092)
(-0.0419172 0 0.0239728)
(-0.0409723 -8.39538e-19 0.0234238)
(-0.0401237 0 0.0229294)
(-0.0389141 0 0.0222308)
(-0.0366315 2.93751e-23 0.0208823)
(-0.0322655 2.84649e-23 0.018318)
(-0.0245937 6.67177e-19 0.0138858)
(-0.0125745 -6.36247e-19 0.00706185)
(0.00424706 1.21192e-18 -0.00228655)
(0.0245833 0 -0.0137121)
(0.0453311 1.09323e-18 -0.0254284)
(0.0619745 1.0355e-18 -0.0349196)
(0.0704335 -1.95928e-18 -0.039803)
(0.0691435 9.26689e-19 -0.0391143)
(0.0607516 0 -0.0343902)
(0.0498447 0 -0.0282243)
(0.0396523 0 -0.0225241)
(0.0333656 0 -0.019079)
(0.0323123 0 -0.01857)
(0.0365777 -1.34688e-18 -0.0209884)
(0.0403392 1.2765e-18 -0.023061)
(0.0398561 0 -0.0224997)
(0.0249569 0 -0.013261)
(-0.0191856 1.06922e-18 0.0127868)
(-0.0979886 1.72875e-22 0.058139)
(-0.20609 1.90124e-18 0.117811)
(-0.272887 0 0.15467)
(-0.285707 0 0.159739)
(-0.0541104 0 0.0275768)
(0.335528 1.3223e-21 -0.185135)
(0.49449 0 -0.277928)
(0.757188 0 -0.421386)
(1.26107 8.09164e-19 -0.707235)
(0.107935 -2.36596e-22 -0.068085)
(-0.0551491 0 0.0259601)
(0.0742622 0 -0.0417352)
(-0.0233434 -1.48356e-18 0.0104726)
(0.207662 -1.36849e-18 -0.119053)
(0.234438 -1.28694e-18 -0.133975)
(0.324428 -1.16495e-18 -0.183439)
(0.274139 2.53332e-21 -0.148241)
(-0.0786217 3.10285e-21 0.0615804)
(-0.68903 4.55356e-19 0.409804)
(-1.29583 0 0.741953)
(-1.6731 0 0.948966)
(-1.76629 0 0.994981)
(-1.55357 4.73146e-18 0.871842)
(-1.17322 -2.82275e-18 0.654067)
(-0.725494 3.1106e-18 0.400944)
(-0.385439 3.13858e-18 0.212138)
(-0.115886 0 0.0613977)
(-0.0102238 0 0.00336452)
(0.047676 0 -0.029292)
(0.10845 5.15628e-18 -0.0636977)
(0.16683 0 -0.0974713)
(0.237846 -4.53578e-18 -0.135918)
(0.256959 0 -0.145556)
(0.114092 0 -0.0613553)
(-0.045182 3.50253e-18 0.0279962)
(-0.166266 0 0.093897)
(-0.0763843 0 0.0404046)
(0.015323 0 -0.0106792)
(0.0860051 -5.5827e-18 -0.0509557)
(0.108689 0 -0.062993)
(0.144525 4.85233e-18 -0.0837237)
(0.151145 0 -0.0869872)
(0.189779 -8.72779e-23 -0.109067)
(31.1754 -1.55268e-20 -1.13464)
(21.8173 2.2012e-20 -3.49921)
(13.8876 1.36466e-20 -4.38611)
(8.83322 0 -3.81203)
(5.91088 -1.16081e-20 -2.88482)
(4.14326 2.22906e-20 -2.12259)
(2.99391 3.13391e-20 -1.56544)
(2.19128 -3.67256e-20 -1.15708)
(1.60131 0 -0.849707)
(1.15328 0 -0.612792)
(0.805346 0 -0.427957)
(0.531567 0 -0.281199)
(0.313721 0 -0.163494)
(0.13863 0 -0.0683872)
(-0.00190537 -7.43288e-22 0.00884457)
(-0.114186 0 0.0709845)
(-0.204465 1.04873e-19 0.120544)
(-0.27663 0 0.160471)
(-0.333241 -2.04373e-19 0.191826)
(-0.376875 2.00665e-19 0.216139)
(-0.410076 0 0.234667)
(-0.433829 1.92402e-19 0.248229)
(-0.450315 -1.88125e-19 0.257293)
(-0.460527 1.83584e-19 0.262476)
(-0.465094 -1.78481e-19 0.26501)
(-0.465418 0 0.264733)
(-0.461924 1.67496e-19 0.262636)
(-0.455322 0 0.25887)
(-0.446242 0 0.25361)
(-0.435216 0 0.247322)
(-0.422664 2.92738e-19 0.240218)
(-0.408926 0 0.232451)
(-0.394349 0 0.224204)
(-0.379241 0 0.215664)
(-0.363836 0 0.206975)
(-0.348282 0 0.198199)
(-0.332722 0 0.189412)
(-0.317374 4.47401e-19 0.180748)
(-0.302303 0 0.172232)
(-0.287579 8.24169e-19 0.163914)
(-0.2733 7.90497e-19 0.155834)
(-0.259419 3.78895e-19 0.147971)
(-0.246003 0 0.14036)
(-0.233013 0 0.132976)
(-0.220397 6.66302e-19 0.1258)
(-0.208183 -6.3788e-19 0.118851)
(-0.196419 6.10327e-19 0.112162)
(-0.185203 0 0.105795)
(-0.174686 -5.58312e-19 0.0998395)
(-0.165053 0 0.0944047)
(-0.15654 0 0.0896276)
(-0.149345 -4.87281e-19 0.0856125)
(-0.143595 0 0.0824199)
(-0.139262 0 0.0800251)
(-0.135991 8.4823e-19 0.0782011)
(-0.133016 0 0.0764679)
(-0.128882 0 0.0739478)
(-0.12128 5.0141e-23 0.0692512)
(-0.107013 7.02555e-19 0.0605254)
(-0.0822552 -4.50382e-23 0.0456402)
(-0.043725 0 0.0229545)
(0.00984289 -1.2129e-18 -0.00815626)
(0.0747711 -1.15158e-18 -0.0456648)
(0.141502 0 -0.0837835)
(0.195932 -2.06395e-18 -0.114384)
(0.224863 -1.95055e-22 -0.130039)
(0.222789 0 -0.127701)
(0.197427 8.70572e-19 -0.112362)
(0.163272 0 -0.0925558)
(0.131041 0 -0.0743597)
(0.111305 0 -0.0636534)
(0.108281 0 -0.0625806)
(0.12176 2.65249e-18 -0.070602)
(0.132069 -1.25517e-18 -0.0763195)
(0.126134 0 -0.0718303)
(0.0703254 0 -0.0368658)
(-0.0805863 1.04712e-18 0.0536826)
(-0.338536 3.02033e-22 0.205544)
(-0.674021 -1.08197e-22 0.396657)
(-0.867572 0 0.503729)
(-0.886402 0 0.500923)
(-0.190762 0 0.0790332)
(0.966476 2.15155e-21 -0.57986)
(1.53011 -1.3304e-18 -0.89588)
(2.21471 1.21592e-18 -1.31233)
(3.94884 -7.81811e-19 -2.24662)
(0.525739 -4.95413e-22 -0.25152)
(-0.0789883 -8.27613e-19 0.0470549)
(0.230245 0 -0.133265)
(-0.0344059 1.42596e-18 0.0132119)
(0.681199 0 -0.40142)
(0.76308 1.23394e-18 -0.444404)
(0.995386 0 -0.576428)
(0.712898 -1.8742e-18 -0.396982)
(-0.534551 -6.60959e-19 0.344774)
(-2.46557 0 1.46958)
(-4.23517 0 2.47592)
(-5.21811 -1.05404e-18 3.02995)
(-5.33442 1.60822e-18 3.08198)
(-4.60684 -4.47703e-18 2.64431)
(-3.43089 2.68089e-18 1.95642)
(-2.09052 -2.95162e-18 1.18121)
(-1.10013 0 0.616251)
(-0.298749 2.91383e-18 0.159763)
(0.0152898 0 -0.0133027)
(0.192305 0 -0.114988)
(0.387493 -4.87234e-18 -0.226559)
(0.576687 0 -0.337314)
(0.766515 -5.24481e-22 -0.444629)
(0.786664 3.96876e-18 -0.451814)
(0.295958 0 -0.162211)
(-0.170365 0 0.106395)
(-0.482651 0 0.280818)
(-0.16906 2.96947e-18 0.0929675)
(0.0887698 -5.57001e-18 -0.0552178)
(0.318143 5.24823e-18 -0.186042)
(0.370076 0 -0.215039)
(0.494465 -4.55755e-18 -0.286259)
(0.502941 0 -0.291566)
(0.629189 7.87396e-18 -0.363888)
(34.7715 3.30457e-20 -1.05813)
(30.2514 -8.63478e-21 -3.12747)
(23.7026 -1.98954e-21 -4.82848)
(17.4814 0 -5.19908)
(12.653 -1.40466e-20 -4.66145)
(9.24349 6.16008e-22 -3.82865)
(6.86878 0 -3.0321)
(5.16716 3.48575e-20 -2.36536)
(3.90483 0 -1.82688)
(2.94163 4.24421e-20 -1.39368)
(2.19107 0 -1.04334)
(1.59667 0 -0.758495)
(1.12034 0 -0.525758)
(0.735113 0 -0.334913)
(0.423027 -9.94312e-20 -0.176874)
(0.16936 0 -0.0474676)
(-0.0371086 0 0.0579899)
(-0.204632 0 0.144414)
(-0.339827 9.67991e-20 0.213711)
(-0.447239 -5.6392e-22 0.269638)
(-0.532204 0 0.313929)
(-0.597466 -4.31241e-22 0.348211)
(-0.646899 0 0.373812)
(-0.682516 -1.73408e-19 0.391759)
(-0.706019 0 0.403999)
(-0.720024 0 0.410561)
(-0.725999 -1.58876e-19 0.412414)
(-0.725267 0 0.410589)
(-0.71875 0 0.405751)
(-0.707496 -2.87153e-19 0.398741)
(-0.69259 0 0.389823)
(-0.674673 0 0.37946)
(-0.654478 0 0.367935)
(-0.632632 0 0.355608)
(-0.609662 2.38615e-19 0.342731)
(-0.58592 0 0.329446)
(-0.561702 0 0.315931)
(-0.53744 -4.23541e-19 0.302428)
(-0.513321 0 0.288995)
(-0.489506 -7.80315e-19 0.275749)
(-0.466206 -8.12384e-23 0.262764)
(-0.443386 -3.58718e-19 0.250032)
(-0.421179 0 0.237634)
(-0.399565 0 0.225534)
(-0.378484 -3.15232e-19 0.213715)
(-0.357996 0 0.202225)
(-0.338198 -5.77344e-19 0.191134)
(-0.319269 0 0.180558)
(-0.30147 4.79841e-23 0.170656)
(-0.28512 0 0.161619)
(-0.270617 0 0.153676)
(-0.258295 0 0.147003)
(-0.248363 -4.39663e-19 0.141702)
(-0.240786 0 0.137693)
(-0.234978 0 0.134555)
(-0.229663 0 0.131418)
(-0.222413 0 0.126747)
(-0.209344 1.3907e-18 0.11823)
(-0.185146 0 0.102771)
(-0.143487 -3.70566e-23 0.0768553)
(-0.0789206 0 0.0378977)
(0.0106137 5.7192e-19 -0.0151317)
(0.119505 1.08577e-18 -0.0782369)
(0.232209 0 -0.141791)
(0.3255 1.94541e-18 -0.192421)
(0.377003 9.18685e-19 -0.218208)
(0.376675 0 -0.214253)
(0.336416 -8.19864e-19 -0.188689)
(0.28016 0 -0.156061)
(0.226392 0 -0.126418)
(0.193373 0 -0.109623)
(0.188281 0 -0.108949)
(0.210354 2.50213e-23 -0.122456)
(0.225239 1.18038e-18 -0.129861)
(0.209673 0 -0.116572)
(0.105954 0 -0.0475409)
(-0.159094 3.14236e-22 0.116417)
(-0.598659 -1.84646e-18 0.378733)
(-1.14907 -8.7126e-19 0.688698)
(-1.4485 0 0.841792)
(-1.45566 0 0.799367)
(-0.353808 0 0.107509)
(1.46662 -2.94644e-18 -0.916636)
(2.50232 -1.62073e-21 -1.48166)
(3.3718 -1.14063e-18 -2.04398)
(6.54353 0 -3.66404)
(1.1541 -6.05892e-19 -0.491191)
(-0.0131966 7.75886e-19 0.0109473)
(0.383918 0 -0.219966)
(-0.0102676 0 -0.0190363)
(1.15678 1.23099e-18 -0.696289)
(1.29323 0 -0.756748)
(1.6072 1.04892e-18 -0.922476)
(0.987996 -3.05337e-21 -0.494725)
(-1.23707 6.26999e-19 0.857595)
(-4.43124 -4.12997e-19 2.71369)
(-7.17089 0 4.22943)
(-8.53121 9.86421e-19 4.93922)
(-8.51247 -1.50483e-18 4.86675)
(-7.25716 4.16688e-18 4.08085)
(-5.35734 0 2.96812)
(-3.2348 -2.74982e-18 1.75698)
(-1.69214 0 0.899913)
(-0.419694 -2.72465e-18 0.194917)
(0.0808977 2.56446e-18 -0.0657521)
(0.370596 0 -0.229315)
(0.698231 4.55442e-18 -0.415195)
(1.01718 0 -0.601387)
(1.29057 8.0028e-18 -0.747856)
(1.2763 -3.70867e-18 -0.718118)
(0.426472 0 -0.209037)
(-0.298325 0 0.19857)
(-0.743333 0 0.427535)
(-0.194503 -7.8047e-22 0.0892043)
(0.19317 5.20281e-18 -0.128031)
(0.584904 -4.90102e-18 -0.347624)
(0.647307 0 -0.378411)
(0.868846 -4.25607e-18 -0.504798)
(0.866667 0 -0.503431)
(1.08239 9.76024e-23 -0.626157)
(35.3712 -1.73559e-20 -1.29218)
(34.1295 -5.04921e-21 -2.50514)
(30.3648 6.5716e-21 -4.27015)
(25.2626 -1.43112e-20 -5.41077)
(20.1063 -2.04854e-20 -5.61736)
(15.6639 -4.26074e-20 -5.16955)
(12.1382 0 -4.44486)
(9.42083 0 -3.68139)
(7.32538 0 -2.98226)
(5.69051 -4.02021e-20 -2.37673)
(4.39765 0 -1.8637)
(3.36263 0 -1.43258)
(2.5257 0 -1.07125)
(1.84348 0 -0.768777)
(1.28503 0 -0.515026)
(0.826684 -9.33169e-20 -0.30338)
(0.450273 9.2979e-20 -0.126928)
(0.140301 0 0.0193068)
(-0.113042 0 0.140006)
(-0.318695 -1.79847e-19 0.238514)
(-0.485317 1.75923e-19 0.318502)
(-0.617796 -1.72502e-19 0.382468)
(-0.722018 1.68114e-19 0.432702)
(-0.801577 1.64205e-19 0.471191)
(-0.860355 -1.59336e-19 0.499927)
(-0.902249 1.54776e-19 0.519731)
(-0.92947 0 0.531835)
(-0.94432 -1.45318e-19 0.53745)
(-0.949398 0 0.536557)
(-0.945726 2.71778e-19 0.531924)
(-0.934841 0 0.524364)
(-0.918285 0 0.513899)
(-0.897139 0 0.501339)
(-0.872496 -2.34483e-19 0.487151)
(-0.845274 -2.2572e-19 0.471742)
(-0.81612 0 0.455364)
(-0.785561 0 0.43833)
(-0.754295 4.00509e-19 0.421018)
(-0.722705 0 0.403538)
(-0.691085 1.02214e-22 0.386095)
(-0.659803 -3.53646e-19 0.368816)
(-0.628884 0 0.351723)
(-0.598558 0 0.334948)
(-0.568853 0 0.318463)
(-0.539728 0 0.302275)
(-0.511294 -5.69823e-19 0.286473)
(-0.48371 0 0.271176)
(-0.457247 5.213e-19 0.256562)
(-0.432283 4.98394e-19 0.242869)
(-0.409274 0 0.230371)
(-0.38878 0 0.219391)
(-0.371279 0 0.210165)
(-0.357067 4.14803e-19 0.202814)
(-0.3461 -3.95869e-19 0.197197)
(-0.337562 -7.55451e-19 0.192683)
(-0.329675 0 0.188001)
(-0.319072 -6.87316e-19 0.180932)
(-0.300399 -1.31076e-18 0.168166)
(-0.266341 0 0.14538)
(-0.208193 -1.19033e-18 0.107777)
(-0.118473 0 0.0519551)
(0.00586014 -5.38648e-19 -0.0230402)
(0.15742 -1.0225e-18 -0.111459)
(0.315394 0 -0.19987)
(0.448163 -9.15634e-19 -0.269934)
(0.524471 -8.64867e-19 -0.305428)
(0.528987 0 -0.299955)
(0.476534 0 -0.26464)
(0.399962 0 -0.219758)
(0.325563 6.90198e-19 -0.179428)
(0.279555 6.53506e-19 -0.157406)
(0.272135 0 -0.157746)
(0.30168 -1.17232e-18 -0.176339)
(0.31843 -1.1091e-18 -0.183306)
(0.287764 0 -0.156578)
(0.127813 0 -0.0455702)
(-0.258931 -9.24215e-19 0.200489)
(-0.880305 -2.36127e-22 0.576713)
(-1.62736 0 0.993025)
(-2.00455 0 1.17117)
(-1.97918 0 1.06555)
(-0.546117 0 0.120166)
(1.80009 -1.93735e-21 -1.1989)
(3.4036 1.17193e-18 -2.0502)
(4.11432 0 -2.60062)
(8.99558 0 -5.01631)
(2.01553 0 -0.790797)
(0.155483 7.24808e-19 -0.0642095)
(0.539893 0 -0.306605)
(0.0544886 1.24857e-18 -0.0794471)
(1.62503 -1.15277e-18 -0.999414)
(1.81467 1.08337e-18 -1.0681)
(2.13513 -9.81944e-19 -1.21751)
(1.06001 1.65524e-18 -0.460887)
(-2.20851 -5.86782e-19 1.55488)
(-6.55677 3.86451e-19 4.08628)
(-10.0071 0 5.95758)
(-11.4793 0 6.67143)
(-11.1851 -1.38519e-18 6.38424)
(-9.41406 -1.9438e-18 5.25914)
(-6.89473 -2.32019e-18 3.76961)
(-4.12896 5.68779e-21 2.19225)
(-2.14516 0 1.10126)
(-0.472703 0 0.186178)
(0.188564 -2.39702e-18 -0.143577)
(0.584515 0 -0.366297)
(1.03957 -4.25535e-18 -0.62415)
(1.48426 0 -0.883226)
(1.80104 5.1167e-22 -1.04594)
(1.71468 0 -0.954382)
(0.508294 -3.13485e-18 -0.224825)
(-0.41394 2.881e-18 0.287773)
(-0.936751 2.6838e-18 0.539827)
(-0.147052 -8.98297e-22 0.0449114)
(0.328114 0 -0.219817)
(0.885843 4.57694e-18 -0.529231)
(0.937818 4.26676e-18 -0.550687)
(1.26513 3.97417e-18 -0.736544)
(1.23831 0 -0.721394)
(1.54417 1.12259e-22 -0.895352)
(35.0094 0 -1.79549)
(35.163 -3.68386e-21 -2.32574)
(33.7278 0 -3.62814)
(30.6649 1.35213e-20 -4.94489)
(26.5909 3.19105e-20 -5.72595)
(22.2576 2.07899e-20 -5.85924)
(18.2183 0 -5.50583)
(14.7298 0 -4.88982)
(11.8307 -3.44478e-20 -4.18541)
(9.45846 -3.73745e-20 -3.49285)
(7.52367 3.96661e-20 -2.85754)
(5.94166 8.27556e-20 -2.29446)
(4.64239 8.51716e-20 -1.8043)
(3.57032 0 -1.38208)
(2.68296 0 -1.02008)
(1.94704 1.76052e-19 -0.711896)
(1.33615 -3.72486e-22 -0.450671)
(0.828444 0 -0.230723)
(0.408724 -8.58155e-20 -0.0447753)
(0.0620949 -1.69018e-19 0.108852)
(-0.222431 -1.66322e-19 0.236369)
(-0.453794 0 0.340506)
(-0.640444 -1.58923e-19 0.424744)
(-0.788409 1.5459e-19 0.4914)
(-0.90343 1.50606e-19 0.543259)
(-0.990734 -1.46849e-22 0.582375)
(-1.05406 0 0.610914)
(-1.09786 1.74828e-22 0.629939)
(-1.12482 0 0.640155)
(-1.13804 2.56356e-19 0.642056)
(-1.13993 0 0.638275)
(-1.13164 0 0.631061)
(-1.1155 0 0.620062)
(-1.09308 2.2147e-19 0.606349)
(-1.06583 0 0.590452)
(-1.03482 0 0.572756)
(-1.00088 0 0.553739)
(-0.965074 0 0.533944)
(-0.928054 -3.62666e-19 0.513555)
(-0.890308 6.9592e-19 0.492889)
(-0.852418 0 0.472142)
(-0.81452 3.19724e-19 0.451388)
(-0.776977 0 0.430831)
(-0.739913 0 0.410465)
(-0.703334 0 0.390333)
(-0.667423 7.93168e-23 0.370585)
(-0.632424 0 0.351399)
(-0.598711 -4.91533e-19 0.333026)
(-0.566787 0 0.31579)
(-0.537249 0 0.300052)
(-0.510823 -4.28735e-19 0.286228)
(-0.488131 0 0.274606)
(-0.469557 0 0.265322)
(-0.455053 2.42843e-23 0.258151)
(-0.44359 7.11545e-19 0.252227)
(-0.432911 0 0.245844)
(-0.41876 4.35015e-23 0.236073)
(-0.394384 1.23388e-18 0.218626)
(-0.350604 0 0.187985)
(-0.276515 5.60082e-19 0.138174)
(-0.162746 0 0.0651151)
(-0.00523584 5.06734e-19 -0.0318227)
(0.187279 9.61745e-19 -0.145006)
(0.38954 0 -0.257317)
(0.562423 8.6121e-19 -0.345812)
(0.666069 -1.65756e-22 -0.390405)
(0.679025 0 -0.383608)
(0.617636 0 -0.339233)
(0.522868 0 -0.283034)
(0.428856 -1.29676e-18 -0.233046)
(0.370005 2.85536e-23 -0.206773)
(0.359592 0 -0.208702)
(0.39498 1.10069e-18 -0.231622)
(0.410357 2.08227e-18 -0.235397)
(0.358763 0 -0.189145)
(0.134011 0 -0.0270617)
(-0.381631 0 0.309727)
(-1.18296 -2.20136e-22 0.800841)
(-2.10494 0 1.30677)
(-2.53112 0 1.48292)
(-2.45701 0 1.28995)
(-0.77358 0 0.124071)
(1.94935 1.29742e-18 -1.41066)
(4.24739 1.10163e-18 -2.5927)
(4.39679 0 -2.93775)
(11.2988 0 -6.27747)
(3.10676 0 -1.14729)
(0.429025 -1.0784e-21 -0.18221)
(0.707636 0 -0.394294)
(0.157085 -1.16885e-18 -0.172689)
(2.07733 0 -1.30599)
(2.3197 -1.0139e-18 -1.37045)
(2.56746 0 -1.43651)
(0.929155 -7.75945e-19 -0.258143)
(-3.41436 0 2.45727)
(-8.76842 0 5.56004)
(-12.6465 0 7.58829)
(-13.9994 0 8.13014)
(-13.3493 1.29523e-18 7.55153)
(-11.1175 0 6.10923)
(-8.09155 2.16904e-18 4.31372)
(-4.8149 2.39806e-18 2.46152)
(-2.48145 0 1.20412)
(-0.469169 0 0.126665)
(0.330821 0 -0.2501)
(0.829474 0 -0.52822)
(1.40549 4.415e-22 -0.853506)
(1.9706 0 -1.18028)
(2.29552 -6.98703e-18 -1.33156)
(2.10775 0 -1.14928)
(0.56151 5.85732e-18 -0.206326)
(-0.499713 -2.69078e-18 0.366788)
(-1.06694 -2.50644e-18 0.60626)
(-0.037494 -2.41796e-18 -0.0478164)
(0.48655 0 -0.33233)
(1.21514 0 -0.731859)
(1.23817 -7.96776e-18 -0.730378)
(1.67882 3.71038e-18 -0.97982)
(1.61486 3.45998e-18 -0.942871)
(2.01021 -3.20454e-18 -1.16746)
(34.5546 0 -2.26141)
(34.9715 3.32145e-20 -2.47387)
(34.8089 0 -3.24725)
(33.51 0 -4.33257)
(31.0349 0 -5.30983)
(27.7348 0 -5.89111)
(24.0756 0 -6.00523)
(20.4453 2.97586e-20 -5.73508)
(17.0898 3.25039e-20 -5.21956)
(14.1235 7.04189e-20 -4.58558)
(11.5686 -7.4656e-20 -3.9222)
(9.39802 -7.81084e-20 -3.28171)
(7.56567 -8.03936e-20 -2.69029)
(6.02257 0 -2.15861)
(4.72436 0 -1.68812)
(3.63286 -1.65416e-19 -1.27696)
(2.71583 -1.64944e-19 -0.920788)
(1.94571 0 -0.614894)
(1.30097 8.10063e-20 -0.352879)
(0.762704 1.59542e-19 -0.131486)
(0.315238 0 0.0553451)
(-0.0544765 1.52887e-19 0.210753)
(-0.357757 0 0.339265)
(-0.603855 -2.91375e-22 0.443594)
(-0.800736 -1.41708e-19 0.527566)
(-0.956117 -1.89747e-22 0.593516)
(-1.07569 0 0.643819)
(-1.16481 1.2941e-19 0.68103)
(-1.22794 -2.50106e-19 0.707689)
(-1.27016 -4.83456e-19 0.72324)
(-1.29416 -2.33222e-19 0.729247)
(-1.30371 0 0.72703)
(-1.3001 -2.16709e-19 0.720959)
(-1.28632 0 0.710401)
(-1.26449 0 0.696345)
(-1.23618 0 0.679377)
(-1.20271 0 0.66016)
(-1.16557 0 0.639432)
(-1.12579 1.15166e-22 0.617468)
(-1.08414 -3.27929e-19 0.594731)
(-1.04147 0 0.571501)
(-0.998103 -6.02521e-19 0.54793)
(-0.954581 0 0.524311)
(-0.911174 0 0.500676)
(-0.867974 0 0.477125)
(-0.825268 5.0615e-19 0.453882)
(-0.783405 0 0.431203)
(-0.742877 0 0.409424)
(-0.704324 0 0.38896)
(-0.66849 0 0.370264)
(-0.636268 8.07114e-19 0.353844)
(-0.608429 0 0.340035)
(-0.585449 0 0.328972)
(-0.567284 3.50867e-19 0.320326)
(-0.552713 0 0.312972)
(-0.539034 0 0.304737)
(-0.521162 1.21719e-18 0.291962)
(-0.491058 -5.80129e-19 0.269379)
(-0.437831 0 0.230339)
(-0.348574 0 0.167826)
(-0.212174 0 0.0772922)
(-0.0235397 -4.76224e-19 -0.041392)
(0.207715 0 -0.178593)
(0.452794 0 -0.31371)
(0.666114 -1.61809e-18 -0.41963)
(0.799674 1.52766e-18 -0.472863)
(0.825201 0 -0.465008)
(0.758855 0 -0.412284)
(0.648571 0 -0.345717)
(0.536215 6.08581e-19 -0.287129)
(0.46458 -5.76005e-19 -0.257552)
(0.450143 -1.09076e-18 -0.261445)
(0.489154 -1.03258e-18 -0.28753)
(0.499466 -9.76583e-19 -0.284566)
(0.420268 9.2215e-19 -0.212258)
(0.121884 0 0.0107014)
(-0.528885 0 0.446672)
(-1.50521 7.62506e-19 1.0514)
(-2.57645 0 1.62642)
(-3.02041 0 1.77359)
(-2.88705 0 1.47597)
(-1.04712 0 0.12874)
(1.89995 0 -1.55171)
(5.03428 -2.06516e-18 -3.10724)
(4.23703 0 -3.07849)
(13.4216 -6.22353e-19 -7.47117)
(4.41075 0 -1.5482)
(0.817553 -1.11008e-21 -0.333475)
(0.896498 1.06579e-18 -0.487434)
(0.2972 0 -0.29645)
(2.50548 0 -1.6115)
(2.7979 0 -1.65665)
(2.88242 0 -1.57205)
(0.583425 7.31957e-19 0.113923)
(-4.82697 0 3.53683)
(-10.9844 0 7.0771)
(-14.9835 0 9.05473)
(-16.0166 0 9.29878)
(-14.9832 0 8.41595)
(-12.3793 0 6.70023)
(-8.96921 0 4.66218)
(-5.31535 0 2.60935)
(-2.71031 -2.25767e-18 1.23163)
(-0.414273 0 0.0267734)
(0.503467 0 -0.379051)
(1.10177 0 -0.711037)
(1.79045 3.71361e-18 -1.0989)
(2.46913 0 -1.48724)
(2.76938 3.26323e-18 -1.60352)
(2.45503 0 -1.31013)
(0.597246 1.20176e-21 -0.168729)
(-0.542251 0 0.425295)
(-1.1315 2.33893e-18 0.634202)
(0.130733 0 -0.177615)
(0.664814 0 -0.459978)
(1.56882 0 -0.9507)
(1.54497 3.71937e-18 -0.91534)
(2.10497 -6.92773e-18 -1.23139)
(1.99309 -6.46008e-18 -1.16633)
(2.47412 -2.9916e-18 -1.44007)
(34.2229 0 -2.55639)
(34.5187 -3.56863e-20 -2.69468)
(34.7672 0 -3.1267)
(34.4848 0 -3.87849)
(33.3576 -2.71776e-20 -4.75621)
(31.369 -2.6583e-20 -5.50919)
(28.7033 2.73893e-20 -5.96772)
(25.6261 -8.61861e-20 -6.07957)
(22.4029 0 -5.88265)
(19.2488 4.14628e-23 -5.46015)
(16.3066 3.50727e-20 -4.90208)
(13.6508 0 -4.28317)
(11.305 0 -3.65622)
(9.26152 0 -3.05443)
(7.49716 0 -2.49583)
(5.98307 3.41028e-22 -1.98932)
(4.68954 3.03841e-22 -1.5375)
(3.58806 7.6726e-20 -1.13984)
(2.65375 7.5871e-20 -0.792548)
(1.8643 0 -0.493027)
(1.2 -1.46845e-19 -0.236265)
(0.644203 -1.44099e-19 -0.0184602)
(0.181695 0 0.164722)
(-0.199653 -2.69452e-22 0.317037)
(-0.511016 2.40671e-22 0.442053)
(-0.762709 -1.29781e-19 0.543285)
(-0.962715 0 0.62363)
(-1.1187 0 0.685905)
(-1.23707 2.35651e-19 0.732422)
(-1.32311 2.18089e-22 0.766449)
(-1.38276 4.39229e-19 0.788914)
(-1.42006 0 0.79966)
(-1.43926 4.08127e-19 0.799954)
(-1.44247 0 0.795631)
(-1.43293 0 0.786253)
(-1.4132 -1.81648e-19 0.772394)
(-1.38511 0 0.755069)
(-1.35076 -3.35156e-19 0.735239)
(-1.31167 1.12922e-22 0.713289)
(-1.26897 3.0852e-19 0.689856)
(-1.2239 0 0.665329)
(-1.17704 7.24582e-23 0.639959)
(-1.12917 0 0.614156)
(-1.08078 0 0.588006)
(-1.03208 0 0.561685)
(-0.983502 0 0.535513)
(-0.935533 0 0.509838)
(-0.888804 4.35221e-19 0.485092)
(-0.844101 0 0.461791)
(-0.802327 0 0.440485)
(-0.764541 -3.79443e-19 0.421773)
(-0.731672 0 0.406027)
(-0.704292 -3.45639e-19 0.393373)
(-0.682378 -3.29747e-19 0.383354)
(-0.664538 6.29e-19 0.374561)
(-0.647667 0 0.364334)
(-0.625934 -5.71799e-19 0.348267)
(-0.590142 -5.44918e-19 0.320124)
(-0.52788 0 0.272191)
(-0.424462 0 0.196565)
(-0.267205 0 0.0884407)
(-0.0499567 4.47147e-19 -0.0516013)
(0.217282 0 -0.211885)
(0.50319 0 -0.368541)
(0.756958 7.59395e-19 -0.490745)
(0.923105 -1.43389e-18 -0.552045)
(0.96569 0 -0.543625)
(0.899086 0 -0.483263)
(0.776525 0 -0.407406)
(0.647366 0 -0.341341)
(0.562935 -5.40194e-19 -0.309356)
(0.543052 1.0227e-18 -0.315392)
(0.582914 0 -0.343052)
(0.583975 0 -0.328953)
(0.469849 -8.64239e-19 -0.223322)
(0.0890555 0 0.0707803)
(-0.701664 -7.62762e-19 0.613537)
(-1.84447 7.14667e-19 1.32753)
(-3.03565 0 1.9475)
(-3.46698 0 2.03782)
(-3.27474 0 1.62733)
(-1.38179 0 0.148145)
(1.65454 0 -1.62836)
(5.74948 9.67389e-19 -3.57776)
(3.77015 0 -3.1003)
(15.3464 1.16846e-18 -8.61026)
(5.899 0 -1.9763)
(1.32659 -1.11562e-21 -0.514835)
(1.11856 7.21074e-22 -0.588474)
(0.472095 0 -0.44953)
(2.9025 9.44452e-19 -1.91165)
(3.23863 0 -1.91752)
(3.06853 0 -1.60266)
(0.0282811 -1.37174e-18 0.666626)
(-6.39597 0 4.7716)
(-13.1101 0 8.57603)
(-16.9312 0 10.2946)
(-17.526 0 10.1502)
(-16.1574 0 8.9745)
(-13.2834 0 7.04609)
(-9.59895 0 4.83183)
(-5.68206 0 2.65142)
(-2.85789 2.10924e-18 1.19032)
(-0.319526 0 -0.110562)
(0.69833 0 -0.527883)
(1.39384 0 -0.912015)
(2.18629 -3.4676e-18 -1.35671)
(2.97179 -3.29058e-18 -1.79937)
(3.22161 -3.04845e-18 -1.85828)
(2.76539 2.82774e-18 -1.4354)
(0.631986 1.14626e-21 -0.117176)
(-0.531245 -2.34696e-18 0.457139)
(-1.13864 -4.36681e-18 0.621018)
(0.346065 0 -0.343369)
(0.857108 3.95239e-18 -0.601302)
(1.94024 3.72352e-18 -1.18361)
(1.85493 0 -1.10372)
(2.53745 3.23345e-18 -1.48806)
(2.37067 3.01514e-18 -1.39004)
(2.92971 2.7924e-18 -1.70906)
(33.9759 0 -2.71809)
(34.1322 1.76897e-20 -2.8669)
(34.3834 0 -3.14709)
(34.483 0 -3.6402)
(34.1518 2.55909e-20 -4.30553)
(33.2184 2.50259e-20 -5.00991)
(31.6444 -2.57802e-20 -5.60483)
(29.5018 8.35028e-20 -5.98286)
(26.934 0 -6.0991)
(24.1151 3.17042e-20 -5.96493)
(21.2146 -6.57409e-20 -5.62734)
(18.3735 0 -5.14713)
(15.6926 7.01037e-20 -4.58335)
(13.2323 0 -3.98502)
(11.02 7.22509e-20 -3.38793)
(9.06026 7.28912e-20 -2.81626)
(7.34326 7.27383e-20 -2.28444)
(5.85134 -7.22239e-20 -1.80043)
(4.56398 -1.42619e-19 -1.36638)
(3.45995 0 -0.982993)
(2.51842 1.38229e-19 -0.647797)
(1.72035 0 -0.358025)
(1.04781 0 -0.1101)
(0.485647 -1.28915e-19 0.100471)
(0.0191644 2.50725e-19 0.276319)
(-0.364299 0 0.422017)
(-0.675784 0 0.540758)
(-0.92536 0 0.635956)
(-1.12174 -2.21254e-19 0.710607)
(-1.2728 2.13995e-19 0.767274)
(-1.38507 -1.68272e-22 0.80892)
(-1.46477 1.99037e-19 0.838842)
(-1.51809 -3.83717e-19 0.854382)
(-1.5487 1.84653e-19 0.858699)
(-1.56071 -1.77647e-19 0.856573)
(-1.55702 8.51245e-23 0.848726)
(-1.54065 0 0.835689)
(-1.51436 3.15218e-19 0.818898)
(-1.48039 3.02488e-19 0.798821)
(-1.44034 -2.9012e-19 0.776309)
(-1.39596 0 0.751888)
(-1.34816 2.66495e-19 0.725929)
(-1.29807 2.55181e-19 0.698992)
(-1.24645 2.44311e-19 0.671235)
(-1.19372 2.33808e-19 0.642931)
(-1.1405 0 0.614516)
(-1.08744 0 0.586449)
(-1.03533 -5.64778e-23 0.559272)
(-0.985137 0 0.533609)
(-0.937919 0 0.510112)
(-0.894916 -3.56374e-19 0.489472)
(-0.857219 3.40167e-19 0.472092)
(-0.825507 3.24617e-19 0.458072)
(-0.799793 2.44416e-23 0.446813)
(-0.778552 -4.64206e-23 0.436597)
(-0.75833 0 0.424256)
(-0.732646 0 0.404624)
(-0.691301 1.02292e-18 0.37053)
(-0.620581 0 0.313283)
(-0.50427 0 0.224252)
(-0.328306 -4.41424e-19 0.0985804)
(-0.0854377 0 -0.0622318)
(0.214463 0 -0.244468)
(0.538637 7.53844e-19 -0.421232)
(0.832424 -7.12486e-19 -0.558475)
(1.0337 1.34491e-18 -0.627253)
(1.0985 0 -0.618349)
(1.03681 -5.99064e-19 -0.551555)
(0.905802 0 -0.467553)
(0.76172 0 -0.395169)
(0.664454 1.01249e-18 -0.361607)
(0.637339 0 -0.369748)
(0.674678 0 -0.396942)
(0.661513 0 -0.36713)
(0.50506 0 -0.219595)
(0.0334721 0 0.156196)
(-0.899982 7.14272e-19 0.812007)
(-2.19678 1.2761e-22 1.62726)
(-3.47551 -6.2925e-19 2.26472)
(-3.86682 6.05205e-19 2.27259)
(-3.63179 0 1.75428)
(-1.7957 0 0.198594)
(1.23839 0 -1.66066)
(6.35405 0 -3.98154)
(3.24062 0 -3.14649)
(17.0634 3.06579e-21 -9.70392)
(7.53801 0 -2.41371)
(1.96141 -5.52964e-19 -0.718445)
(1.3861 7.75404e-22 -0.70039)
(0.678827 0 -0.628785)
(3.26262 -8.8305e-19 -2.20239)
(3.62973 0 -2.14281)
(3.11239 7.58147e-19 -1.51617)
(-0.725228 -2.79086e-21 1.39828)
(-8.06297 0 6.12446)
(-15.0507 0 9.99095)
(-18.4338 0 11.2666)
(-18.5609 0 10.7123)
(-16.9476 1.01177e-18 9.30412)
(-13.9086 0 7.21663)
(-10.0444 0 4.87662)
(-5.96065 1.93588e-18 2.62327)
(-2.9507 0 1.0996)
(-0.195708 -1.93435e-18 -0.277977)
(0.907194 1.82319e-18 -0.69103)
(1.69614 0 -1.12569)
(2.58339 6.47604e-18 -1.62155)
(3.47037 2.70782e-22 -2.11153)
(3.65181 5.69351e-18 -2.0944)
(3.04625 -2.64029e-18 -1.5317)
(0.678068 -2.38713e-18 -0.0618998)
(-0.460502 2.19119e-18 0.458018)
(-1.09337 2.03801e-18 0.575031)
(0.599145 1.96475e-18 -0.53612)
(1.05915 -3.68963e-18 -0.752778)
(2.32297 -3.47585e-18 -1.42624)
(2.16523 -3.24094e-18 -1.29384)
(2.96959 -3.01803e-18 -1.74603)
(2.74586 0 -1.61291)
(3.37001 0 -1.97085)
(33.7554 0 -2.81282)
(33.8326 1.92047e-20 -2.9745)
(33.9994 0 -3.19931)
(34.1578 0 -3.5412)
(34.1523 0 -4.01586)
(33.8303 0 -4.58107)
(33.0783 2.87434e-20 -5.15173)
(31.8426 -2.7059e-20 -5.63366)
(30.1336 2.92052e-20 -5.95387)
(28.0162 -5.9141e-20 -6.07471)
(25.5927 6.17997e-20 -5.99294)
(22.9835 0 -5.73135)
(20.3089 -6.59006e-20 -5.32799)
(17.6745 0 -4.82665)
(15.1627 -6.79232e-20 -4.269)
(12.829 -6.78838e-20 -3.6905)
(10.7048 0 -3.11834)
(8.80182 0 -2.57201)
(7.1185 6.69429e-20 -2.06331)
(5.64495 0 -1.59967)
(4.36628 0 -1.18379)
(3.26564 -1.26737e-19 -0.816038)
(2.32521 0 -0.494952)
(1.528 0 -0.217422)
(0.857468 -1.17761e-19 0.0191496)
(0.29821 0 0.21888)
(-0.163702 0 0.385174)
(-0.541032 0 0.521782)
(-0.845194 4.15769e-19 0.632118)
(-1.08645 0 0.719464)
(-1.27396 -1.60021e-22 0.786677)
(-1.41574 -1.33862e-22 0.836562)
(-1.51831 1.80255e-19 0.873723)
(-1.58979 -1.73539e-19 0.894909)
(-1.63401 3.33795e-19 0.904347)
(-1.65646 1.60484e-19 0.9047)
(-1.65985 0 0.899011)
(-1.64848 0 0.887667)
(-1.62534 2.83982e-19 0.871615)
(-1.5927 -2.72369e-19 0.851918)
(-1.55296 0 0.829248)
(-1.50753 0 0.804127)
(-1.45796 -6.01885e-23 0.777298)
(-1.40541 -2.29446e-19 0.749014)
(-1.35056 -2.19564e-19 0.719664)
(-1.29429 -4.19972e-19 0.689825)
(-1.23745 0 0.660088)
(-1.18105 -5.56412e-23 0.631116)
(-1.12623 0 0.603654)
(-1.07423 0 0.57846)
(-1.02649 3.34485e-19 0.556319)
(-0.984273 -3.19244e-19 0.537656)
(-0.948372 0 0.52254)
(-0.918863 2.90532e-19 0.510204)
(-0.89413 -4.65369e-23 0.498605)
(-0.870442 0 0.484053)
(-0.840787 0 0.460624)
(-0.794143 -9.59346e-19 0.420253)
(-0.715735 0 0.35337)
(-0.588095 0 0.250793)
(-0.395973 8.27775e-19 0.107813)
(-0.13098 0 -0.0729707)
(0.197679 0 -0.275838)
(0.55693 -1.41333e-18 -0.471138)
(0.889758 6.67764e-19 -0.622082)
(1.12853 -6.30248e-19 -0.697681)
(1.22012 0 -0.689713)
(1.16983 5.61273e-19 -0.61644)
(1.035 0 -0.525433)
(0.878301 -5.01286e-19 -0.447897)
(0.768219 -4.74166e-19 -0.413515)
(0.731788 0 -0.423497)
(0.762713 0 -0.447723)
(0.73005 8.03171e-19 -0.396634)
(0.523515 7.58313e-19 -0.198185)
(-0.0464036 0 0.269769)
(-1.12272 0 1.04297)
(-2.55683 -1.25282e-18 1.94746)
(-3.88885 5.88846e-19 2.5724)
(-4.21942 -1.1318e-18 2.47714)
(-3.97789 0 1.87288)
(-2.30485 0 0.29441)
(0.705449 0 -1.68377)
(6.79279 0 -4.2951)
(2.94741 0 -3.39129)
(18.5689 1.75507e-21 -10.7339)
(9.29247 0 -2.84177)
(2.72276 0 -0.936029)
(1.71166 8.32292e-22 -0.824658)
(0.914484 0 -0.830393)
(3.58121 -8.25474e-19 -2.4797)
(3.95818 0 -2.32054)