/*--------------------------------*- C++ -*----------------------------------*\
| =========                 |                                                 |
| \\      /  F ield         | OpenFOAM: The Open Source CFD Toolbox           |
|  \\    /   O peration     | Version:  2412                                  |
|   \\  /    A nd           | Website:  www.openfoam.com                      |
|    \\/     M anipulation  |                                                 |
\*---------------------------------------------------------------------------*/
FoamFile
{
    version     2.0;
    format      ascii;
    arch        "LSB;label=32;scalar=64";
    class       surfaceScalarField;
    location    "0.755";
    object      phi_0;
}
// * * * * * * * * * * * * * * * * * * * * * * * * * * * * * * * * * * * * * //

dimensions      [0 3 -1 0 0 0 0];

oriented        oriented;

internalField   nonuniform List<scalar> 
24930
(
0.0158181
0.0209748
-0.0368291
0.00653199
0.0092861
0.00302091
0.00351107
0.00170088
0.00132002
0.00110046
0.000600411
0.000748768
0.000351684
0.000511649
0.000237109
0.000341164
0.000170474
0.0002143
0.000126855
0.000118033
9.62596e-05
4.31356e-05
7.48881e-05
-1.53352e-05
5.84583e-05
-6.1332e-05
4.59814e-05
-9.76057e-05
3.62581e-05
-0.000125484
2.78672e-05
-0.000147578
2.20884e-05
-0.000164216
1.66287e-05
-0.00017687
1.26307e-05
-0.000185727
8.82029e-06
-0.000191803
6.05537e-06
-0.000195455
3.68211e-06
-0.00019713
1.74114e-06
-0.000197135
-4.73503e-08
-0.000195551
-1.85319e-06
-0.000192796
-2.92915e-06
-0.000189301
-3.15442e-06
-0.000185069
-4.00179e-06
-0.00018008
-5.04569e-06
-0.000174598
-5.52328e-06
-0.000168889
-5.71278e-06
-0.000162973
-5.89758e-06
-0.000156901
-6.06272e-06
-0.000150745
-6.17008e-06
-0.000144606
-6.14976e-06
-0.000138554
-6.04034e-06
-0.000132611
-5.92666e-06
-0.000126804
-5.8047e-06
-0.000121166
-5.64328e-06
-0.000115742
-5.42276e-06
-0.00011054
-5.19231e-06
-0.000105572
-4.96098e-06
-0.000100832
-4.74049e-06
-9.63341e-05
-4.50131e-06
-9.20572e-05
-4.27703e-06
-8.7985e-05
-4.07056e-06
-8.41256e-05
-3.86021e-06
-8.04875e-05
-3.64238e-06
-7.71093e-05
-3.38321e-06
-7.40592e-05
-3.05364e-06
-7.14194e-05
-2.64247e-06
-6.92842e-05
-2.13855e-06
-6.77155e-05
-1.5729e-06
-6.6724e-05
-9.95215e-07
-6.6217e-05
-5.09043e-07
-6.59472e-05
-2.7074e-07
-6.54515e-05
-4.97089e-07
-6.39702e-05
-1.48292e-06
-6.03845e-05
-3.58716e-06
-5.32392e-05
-7.14644e-06
-4.09509e-05
-1.22894e-05
-2.22113e-05
-1.87409e-05
3.29555e-06
-2.55079e-05
3.39039e-05
-3.06094e-05
6.63e-05
-3.23978e-05
9.46871e-05
-2.83888e-05
0.000113031
-1.83456e-05
0.000118531
-5.50192e-06
0.000111368
7.16023e-06
9.55354e-05
1.58302e-05
7.37652e-05
2.17659e-05
4.85956e-05
2.51638e-05
2.2468e-05
2.61215e-05
-6.77514e-07
2.31382e-05
-1.4165e-05
1.34818e-05
-1.15353e-05
-2.63711e-06
8.42031e-06
-1.99642e-05
3.62345e-05
-2.78214e-05
6.68073e-05
-3.05805e-05
8.51189e-05
-1.83149e-05
6.76197e-05
1.75009e-05
-1.14608e-05
7.90825e-05
-0.000168856
0.000157395
-0.000406285
0.000237433
-0.000722705
0.000316418
-0.000992691
0.00026998
-0.000987967
-4.6999e-06
-0.000665737
-0.000322254
-3.33892e-05
-0.000632358
-0.000217411
0.000184013
0.00108993
-0.0013073
0.00384661
-0.00275675
0.00195752
0.00188907
-0.000244983
0.00220263
0.000150303
-0.000395308
0.000173517
-2.32851e-05
0.000342312
-0.000168783
0.000682081
-0.000339786
0.00085538
-0.000173286
0.00110804
-0.00025265
0.000815063
0.000292962
-0.000489671
0.00130474
-0.002414
0.00192432
-0.00433127
0.00191725
-0.00550637
0.00117509
-0.00579291
0.00028656
-0.00504868
-0.000744228
-0.00385297
-0.00119571
-0.00279809
-0.00105488
-0.00169291
-0.00110518
-0.00091517
-0.000777736
-0.000412121
-0.000503047
0.000255176
-0.000667296
0.000792708
-0.000537529
0.000903426
-0.000110715
0.000804793
9.86349e-05
0.000225409
0.000579385
-0.000292728
0.000518137
-0.000338482
4.57522e-05
0.000149197
-0.000487678
-0.000436909
0.0334387
0.0299042
-0.0423681
0.0224736
0.0202511
0.0142354
0.0117493
0.00916603
0.00638941
0.00618669
0.00357974
0.00435546
0.00218289
0.00313792
0.00145463
0.00227447
0.00103391
0.00163519
0.000766113
0.00114745
0.000583977
0.000768634
0.000453681
0.000470112
0.000356952
0.0002331
0.000282969
4.59333e-05
0.000223407
-0.000110108
0.000183884
-0.000235797
0.000147734
-0.000335117
0.000115903
-0.000413779
9.12827e-05
-0.000474729
6.97882e-05
-0.000521503
5.27834e-05
-0.000556243
3.82709e-05
-0.000580772
2.62175e-05
-0.000596791
1.62164e-05
-0.00060567
7.20897e-06
-0.000608634
-2.81922e-07
-0.00060689
-5.12712e-06
-0.000600924
-9.97499e-06
-0.000591571
-1.443e-05
-0.000579456
-1.76221e-05
-0.000565311
-1.98863e-05
-0.000549526
-2.16995e-05
-0.000532526
-2.30396e-05
-0.000514647
-2.40248e-05
-0.000496238
-2.45588e-05
-0.000477609
-2.46757e-05
-0.000458947
-2.45807e-05
-0.000440414
-2.43194e-05
-0.000422175
-2.38697e-05
-0.000404402
-2.31915e-05
-0.000387182
-2.24116e-05
-0.00037058
-2.15582e-05
-0.000354622
-2.06929e-05
-0.000339364
-1.97586e-05
-0.000324767
-1.88784e-05
-0.000310787
-1.80561e-05
-0.000297458
-1.71954e-05
-0.000284823
-1.62838e-05
-0.000273015
-1.51982e-05
-0.000262268
-1.38102e-05
-0.000252865
-1.20542e-05
-0.000245125
-9.88609e-06
-0.000239266
-7.43863e-06
-0.000235322
-4.94452e-06
-0.000232974
-2.86226e-06
-0.000231382
-1.86577e-06
-0.000228955
-2.92785e-06
-0.000223108
-7.3322e-06
-0.000210043
-1.66547e-05
-0.000184857
-3.23357e-05
-0.00014221
-5.49388e-05
-7.78397e-05
-8.31152e-05
9.32021e-06
-0.000112672
0.000113555
-0.000134849
0.000224088
-0.000142935
0.000320972
-0.000125278
0.000383882
-8.12612e-05
0.000401749
-2.33753e-05
0.000374979
3.39251e-05
0.000315881
7.4922e-05
0.000235609
0.00010203
0.000144717
0.000116047
5.376e-05
0.00011707
-2.17302e-05
9.86146e-05
-6.12205e-05
5.29585e-05
-4.2617e-05
-2.12545e-05
3.46665e-05
-9.72628e-05
0.000137644
-0.000130809
0.000245167
-0.000138112
0.000303963
-7.71174e-05
0.00022508
9.63821e-05
-8.4712e-05
0.000388869
-0.00066786
0.000740533
-0.00149939
0.00106896
-0.00258043
0.00139746
-0.00341354
0.00110308
-0.00332967
-8.86504e-05
-0.00205024
-0.00160166
-3.6608e-05
-0.00264594
-0.000800193
0.000947454
0.00342672
-0.00553416
0.0122888
-0.0116187
0.00709074
0.00708701
-0.000117891
0.00941143
0.00048302
-0.000996247
0.000663543
-0.000203819
0.00125767
-0.000762832
0.00240142
-0.00148356
0.00299202
-0.00076387
0.0035543
-0.000814911
0.00205645
0.00179084
-0.00270043
0.00606162
-0.00917853
0.00840241
-0.0150919
0.00783062
-0.0183847
0.00446789
-0.0187435
0.000645342
-0.0160868
-0.003401
-0.0120244
-0.00525809
-0.00866814
-0.00441113
-0.00528662
-0.0044867
-0.00265409
-0.00341025
-0.00102518
-0.00213195
0.00120477
-0.00289724
0.0028555
-0.00218825
0.00316196
-0.000417175
0.00259169
0.000668917
0.000604054
0.00256702
-0.000936495
0.00205869
-0.000866428
-2.43101e-05
0.000755016
-0.00210912
-0.0018591
0.0432048
0.0321842
-0.0454848
0.0359122
0.0275437
0.0273359
0.0203256
0.0199281
0.0137972
0.0144359
0.0090719
0.0105855
0.00603321
0.0078769
0.00416326
0.00591427
0.00299652
0.00444514
0.00223523
0.0033161
0.00171301
0.00243091
0.00133884
0.00172685
0.00106098
0.001161
0.000848797
0.000702994
0.000681399
0.000332527
0.000554332
3.30517e-05
0.000447172
-0.000214562
0.000363468
-0.000414229
0.00029092
-0.00057407
0.000229628
-0.000701205
0.000179901
-0.000800711
0.000137699
-0.000876867
0.000102244
-0.000933457
7.28483e-05
-0.000973256
4.7273e-05
-0.000998772
2.53045e-05
-0.00101248
8.33774e-06
-0.0010168
-5.62099e-06
-0.00101297
-1.82021e-05
-0.00100231
-2.82548e-05
-0.000986195
-3.60337e-05
-0.000965686
-4.22165e-05
-0.000941754
-4.69571e-05
-0.000915179
-5.059e-05
-0.000886711
-5.30251e-05
-0.000857038
-5.43438e-05
-0.00082662
-5.49854e-05
-0.000795847
-5.50786e-05
-0.000765104
-5.46049e-05
-0.00073477
-5.35198e-05
-0.000705071
-5.21042e-05
-0.000676177
-5.04465e-05
-0.00064819
-4.86779e-05
-0.000621241
-4.67089e-05
-0.000595306
-4.48179e-05
-0.00057033
-4.30362e-05
-0.000546387
-4.11458e-05
-0.000523571
-3.91072e-05
-0.000502131
-3.66479e-05
-0.000482482
-3.34683e-05
-0.000465141
-2.9405e-05
-0.000450675
-2.43596e-05
-0.000439484
-1.86373e-05
-0.000431633
-1.28021e-05
-0.000426566
-7.93435e-06
-0.000422771
-5.66549e-06
-0.000417428
-8.27377e-06
-0.000405915
-1.88483e-05
-0.0003815
-4.1072e-05
-0.000335562
-7.82775e-05
-0.000258738
-0.000131766
-0.000143609
-0.000198248
1.16406e-05
-0.000267926
0.00019783
-0.000321044
0.000395059
-0.000340169
0.000568541
-0.000298765
0.000681804
-0.00019453
0.00071353
-5.51088e-05
0.000663176
8.42717e-05
0.00055176
0.000186329
0.000401283
0.000252498
0.000233396
0.000283922
6.96918e-05
0.000280763
-6.0981e-05
0.000229273
-0.000123505
0.000115469
-7.79008e-05
-6.68727e-05
7.1616e-05
-0.000246795
0.000265148
-0.00032435
0.000459988
-0.000332959
0.000556289
-0.000173425
0.00038489
0.00026778
-0.000221961
0.00099572
-0.00132614
0.0018447
-0.00284444
0.00258725
-0.00476031
0.00331333
-0.00613484
0.00247762
-0.00585071
-0.000372845
-0.00343729
-0.00401508
5.10255e-05
-0.00613419
-0.00127728
0.0022756
0.0054209
-0.0122322
0.0206034
-0.0268011
0.0131746
0.0145156
0.000570842
0.0220154
0.000895776
-0.00132119
0.00125407
-0.000562153
0.00238532
-0.00189402
0.00437411
-0.00347237
0.0054019
-0.00179164
0.00599634
-0.00140934
0.00271598
0.0050712
-0.00617512
0.0149527
-0.0175759
0.0198032
-0.0272277
0.0174824
-0.032068
0.00930817
-0.0319557
0.000533057
-0.0270493
-0.00830738
-0.019955
-0.0123524
-0.0143639
-0.0100022
-0.00875064
-0.0101
-0.00416924
-0.00799163
-0.00134056
-0.00496062
0.00255665
-0.00679445
0.00532569
-0.00495729
0.00573913
-0.000830601
0.0044803
0.00192774
0.000928379
0.00611895
-0.00153358
0.00452065
-0.00117423
-0.000383663
0.00169038
-0.00497372
-0.00432762
0.0490202
0.0316871
-0.0485232
0.0457717
0.0307922
0.0394804
0.0266168
0.0321163
0.0211613
0.0252448
0.0159433
0.0195654
0.0117126
0.0151314
0.00859728
0.0117227
0.00640514
0.009087
0.00487094
0.00702212
0.00377786
0.00538224
0.0029787
0.00406445
0.00237874
0.00299558
0.00191765
0.00212256
0.0015544
0.00140797
0.0012689
0.000820306
0.0010348
0.000338063
0.000845671
-5.65889e-05
0.000685549
-0.000382512
0.000555535
-0.00064623
0.000443586
-0.000858211
0.00034965
-0.00102629
0.000270308
-0.00115733
0.00020382
-0.00125701
0.000146891
-0.00133039
9.87963e-05
-0.00138105
5.87242e-05
-0.00141229
2.54883e-05
-0.00142743
-3.02416e-06
-0.00143034
-2.53728e-05
-0.00142215
-4.42482e-05
-0.00140481
-5.95642e-05
-0.00138024
-7.15178e-05
-0.00134989
-8.09367e-05
-0.00131512
-8.77886e-05
-0.00127719
-9.22625e-05
-0.001237
-9.51644e-05
-0.00119529
-9.6777e-05
-0.00115278
-9.71061e-05
-0.00111017
-9.61274e-05
-0.00106791
-9.43604e-05
-0.00102634
-9.20101e-05
-0.000985699
-8.93154e-05
-0.000946251
-8.61596e-05
-0.000908023
-8.3049e-05
-0.000870982
-8.00822e-05
-0.000835259
-7.68754e-05
-0.000801028
-7.33467e-05
-0.000768669
-6.90162e-05
-0.000738812
-6.33354e-05
-0.000712232
-5.59937e-05
-0.000689787
-4.68135e-05
-0.000672083
-3.63485e-05
-0.000659237
-2.5655e-05
-0.000650439
-1.67376e-05
-0.000643478
-1.26312e-05
-0.000634161
-1.75941e-05
-0.000615671
-3.7342e-05
-0.00057807
-7.86758e-05
-0.000508693
-0.000147658
-0.00039385
-0.000246614
-0.000222738
-0.000369365
7.50993e-06
-0.000498179
0.000283664
-0.000597204
0.000576969
-0.00063348
0.000836428
-0.00055823
0.00100743
-0.000365541
0.00105601
-0.00010369
0.000979088
0.000161182
0.000806571
0.000358837
0.000573774
0.000485284
0.000316836
0.000540848
7.15426e-05
0.000526043
-0.000116422
0.000417223
-0.00019704
0.000196072
-0.000113902
-0.000150025
0.000122734
-0.000483448
0.000420734
-0.00062236
0.000710589
-0.000622821
0.00083699
-0.000299832
0.000534178
0.00057059
-0.000449796
0.00197969
-0.00217236
0.00356726
-0.00446675
0.00488163
-0.00727266
0.00611925
-0.00915145
0.0043564
-0.0085133
-0.00101103
-0.00482312
-0.00770526
0.000244716
-0.011202
-0.00130785
0.00382797
0.00671666
-0.0202566
0.0280256
-0.0481099
0.0201927
0.0223482
0.00201793
0.0401904
0.00143022
-0.000733496
0.00195662
-0.00108861
0.00374725
-0.00368458
0.00660445
-0.00632959
0.00804825
-0.00323542
0.00833377
-0.00169485
0.00256533
0.0108396
-0.0111203
0.0286384
-0.0275889
0.0362718
-0.040507
0.0304004
-0.0461578
0.014959
-0.0449961
-0.000628728
-0.0376025
-0.0157009
-0.0274358
-0.0225191
-0.0197722
-0.0176657
-0.0120117
-0.0178605
-0.00539468
-0.0146087
-0.00132905
-0.00902624
0.00434818
-0.0124717
0.00823429
-0.00884339
0.00863173
-0.00122804
0.0064611
0.00409838
0.00122868
0.0113514
-0.00200155
0.00775088
-0.00117079
-0.00121441
0.00299454
-0.00913905
-0.00790965
0.0528446
0.0305455
-0.0517029
0.0522585
0.0313782
0.0489266
0.0299488
0.0434393
0.0266486
0.0369683
0.0224143
0.0305586
0.0181223
0.0248214
0.0143345
0.0199691
0.0112574
0.0159757
0.0088643
0.0127193
0.00703425
0.0100636
0.00563445
0.00788914
0.00455313
0.00610025
0.00370651
0.0046219
0.00303273
0.00339762
0.00249315
0.0023808
0.00205158
0.00153662
0.00168981
0.000835617
0.00138653
0.000256204
0.00113494
-0.000221779
0.000921536
-0.00061411
0.00074193
-0.000932236
0.000588399
-0.00118748
0.000458985
-0.00138906
0.000348372
-0.00154495
0.000254772
-0.00166199
0.000175918
-0.00174664
0.000110127
-0.00180415
5.46121e-05
-0.00183612
6.55084e-06
-0.00185052
-2.98681e-05
-0.00184896
-6.11192e-05
-0.00183376
-8.67072e-05
-0.00180771
-0.000106987
-0.00177307
-0.000122425
-0.00173191
-0.000133413
-0.00168578
-0.000141277
-0.00163599
-0.000146564
-0.00158373
-0.000149358
-0.00153016
-0.000149687
-0.0014761
-0.000148417
-0.00142215
-0.000145948
-0.00136879
-0.000142684
-0.00131645
-0.000138495
-0.0012653
-0.0001342
-0.00121537
-0.000130023
-0.00116687
-0.000125377
-0.00112011
-0.000120125
-0.00107561
-0.000113526
-0.00103425
-0.000104701
-0.000997115
-9.31389e-05
-0.000965383
-7.85546e-05
-0.00093991
-6.18296e-05
-0.000920883
-4.46889e-05
-0.000907238
-3.03884e-05
-0.000895992
-2.3882e-05
-0.000881494
-3.20953e-05
-0.000854553
-6.42868e-05
-0.000801846
-0.000131387
-0.000706434
-0.000243073
-0.000550031
-0.000403022
-0.000318194
-0.000601207
-6.73644e-06
-0.000809642
0.000367098
-0.000971045
0.000765528
-0.00103192
0.0011206
-0.000913305
0.00135772
-0.000602671
0.00142756
-0.000173538
0.00132232
0.000266414
0.00108085
0.000600297
0.000754305
0.000811814
0.000397119
0.000898021
6.27593e-05
0.000860389
-0.000183745
0.000663711
-0.000277487
0.000289799
-0.000145973
-0.000281554
0.000191774
-0.000821211
0.000606261
-0.00103686
0.000994846
-0.00101141
0.00113659
-0.000441584
0.000652514
0.00105467
-0.000798167
0.00343037
-0.0032407
0.00600978
-0.00639426
0.00803517
-0.0101202
0.00984521
-0.0124262
0.00666234
-0.0112405
-0.00219675
-0.00621956
-0.0127262
0.000495815
-0.0179173
-0.000522305
0.00484589
0.00705322
-0.027832
0.0337388
-0.0747954
0.0280643
0.0280225
0.00432917
0.0639257
0.00213777
0.0014579
0.00278792
-0.00173882
0.00535046
-0.00624705
0.00908723
-0.0100664
0.0108886
-0.00503681
0.0104357
-0.00124187
0.00143971
0.0198356
-0.0176385
0.0477166
-0.0391163
0.0577496
-0.054542
0.0458261
-0.0601614
0.0205785
-0.0574637
-0.00332652
-0.0474616
-0.025703
-0.0343551
-0.0356257
-0.024858
-0.0271628
-0.0150033
-0.0277152
-0.00632601
-0.0232859
-0.000994583
-0.0143577
0.00657625
-0.0200425
0.0115997
-0.0138668
0.0118562
-0.00148454
0.00856509
0.00738947
0.00157631
0.0183402
-0.00225947
0.0115867
-0.000808011
-0.00266586
0.00471347
-0.0146605
-0.0126524
0.0560042
0.0295838
-0.0550426
0.0565777
0.0308048
0.0555413
0.0309851
0.0524751
0.0297148
0.0477204
0.027169
0.0419939
0.0238487
0.0360148
0.0203136
0.0303082
0.016964
0.0251634
0.0140091
0.0206822
0.0115154
0.0168533
0.00946331
0.013613
0.00779337
0.0108821
0.00643738
0.00858352
0.00533132
0.00665054
0.0044261
0.00502476
0.00367732
0.00365888
0.00305565
0.00251221
0.00253319
0.00155257
0.00209456
0.000751853
0.00172222
8.78517e-05
0.00140587
-0.00046133
0.00113752
-0.000910392
0.000907986
-0.00127375
0.000711715
-0.00156381
0.000544913
-0.00179104
0.000403307
-0.00196455
0.000283654
-0.00209276
0.000182793
-0.002185
9.87482e-05
-0.00224205
2.71675e-05
-0.00227286
-3.02966e-05
-0.00228275
-7.68085e-05
-0.00227334
-0.000116396
-0.00224879
-0.000146973
-0.00221239
-0.000169804
-0.00216665
-0.000186997
-0.00211367
-0.000199538
-0.00205537
-0.000207654
-0.00199356
-0.000211488
-0.00192958
-0.000212387
-0.00186447
-0.000211053
-0.00179901
-0.000208142
-0.00173397
-0.000203534
-0.00166972
-0.000198461
-0.00160639
-0.000193355
-0.00154437
-0.000187399
-0.00148411
-0.000180395
-0.00142636
-0.000171293
-0.00137226
-0.000158804
-0.00132325
-0.00014216
-0.00128088
-0.000120933
-0.0012463
-9.64177e-05
-0.00121981
-7.11943e-05
-0.00120008
-5.01201e-05
-0.00118335
-4.06193e-05
-0.00116241
-5.3041e-05
-0.00112556
-0.000101137
-0.0010559
-0.000201046
-0.000932013
-0.000366968
-0.000730797
-0.000604242
-0.00043394
-0.00089807
-3.62828e-05
-0.00120731
0.000443005
-0.00145034
0.000955501
-0.00154442
0.00141654
-0.00137435
0.00172977
-0.000915907
0.0018276
-0.000271378
0.00169459
0.000399412
0.00137804
0.000916838
0.000947445
0.00124239
0.000479587
0.00136586
4.92002e-05
0.00129076
-0.000256236
0.000969129
-0.000358073
0.000391621
-0.000168699
-0.000470944
0.000281911
-0.00127184
0.000821563
-0.00157652
0.00130717
-0.00149703
0.00144117
-0.000575585
0.000714901
0.00178093
-0.00130086
0.00544614
-0.00456232
0.00927123
-0.00864435
0.0121172
-0.013292
0.0144929
-0.0159048
0.00927507
-0.0139622
-0.00413936
-0.00765052
-0.0190378
0.000711974
-0.0262797
0.00135947
0.00419816
0.00635174
-0.032824
0.0372461
-0.10569
0.0367134
0.0285549
0.00756874
0.0930706
0.00308406
0.00594257
0.00376666
-0.00242149
0.00719576
-0.00967608
0.0118188
-0.0146895
0.0138667
-0.00708466
0.012162
0.000462876
-0.000835034
0.0328326
-0.0257838
0.0726654
-0.0519103
0.083876
-0.0688441
0.0627599
-0.0735889
0.0253233
-0.0690381
-0.00787736
-0.0564949
-0.0382462
-0.0406987
-0.0514219
-0.0296159
-0.0382456
-0.017692
-0.0396391
-0.00695482
-0.0340231
-0.000362855
-0.0209496
0.00922891
-0.0296343
0.015431
-0.0200689
0.0154253
-0.0014788
0.0108167
0.011998
0.00204564
0.0271112
-0.0022155
0.0158478
6.02115e-06
-0.00488738
0.00687338
-0.0215279
-0.0186007
0.0592764
0.0289141
-0.0586067
0.0600636
0.0300175
0.0602271
0.0308217
0.0590837
0.0308581
0.056375
0.0298776
0.0522723
0.0279515
0.0472034
0.0253825
0.0416615
0.0225059
0.0360761
0.0195945
0.0307557
0.0168357
0.0258827
0.0143363
0.0215358
0.0121402
0.0177247
0.0102485
0.0144198
0.0086362
0.0115751
0.00727082
0.00913796
0.00611437
0.00705842
0.00513516
0.00528934
0.00430226
0.00379011
0.00359377
0.00252408
0.00298822
0.00145994
0.00246996
0.000570738
0.00202667
-0.000167255
0.00164593
-0.000775604
0.00132007
-0.0012714
0.00104075
-0.0016704
0.000802361
-0.00198633
0.000599542
-0.00223123
0.000427615
-0.00241524
0.00028271
-0.00255086
0.000162768
-0.00264226
6.11072e-05
-0.00269545
-2.36183e-05
-0.00272209
-8.97636e-05
-0.00272282
-0.000146233
-0.00270347
-0.000189144
-0.002668
-0.000222453
-0.0026197
-0.000247832
-0.0025615
-0.000265843
-0.00249618
-0.000276806
-0.00242582
-0.000282734
-0.00235209
-0.000284777
-0.00227627
-0.000283965
-0.00219958
-0.000280225
-0.00212272
-0.000275328
-0.00204605
-0.00027003
-0.00197019
-0.000263267
-0.0018958
-0.000254789
-0.0018239
-0.000243205
-0.00175599
-0.000226732
-0.00169387
-0.00020429
-0.00163954
-0.000175272
-0.00159449
-0.00014147
-0.00155918
-0.000106516
-0.00153207
-7.72386e-05
-0.00150857
-6.41224e-05
-0.00147988
-8.17345e-05
-0.0014317
-0.000149322
-0.00134341
-0.000289341
-0.00118893
-0.000521445
-0.000940205
-0.000852975
-0.000574781
-0.0012635
-8.60066e-05
-0.00169609
0.000504899
-0.00204125
0.00114001
-0.00217954
0.00171787
-0.00195222
0.00211884
-0.00131689
0.00225399
-0.000406536
0.0020968
0.000556595
0.00170175
0.00131187
0.00115886
0.00178527
0.000571477
0.00195323
3.94332e-05
0.00182279
-0.000325264
0.00133381
-0.000431087
0.000497429
-0.000176409
-0.00072564
0.000395315
-0.00184358
0.00106418
-0.00224539
0.00163816
-0.00207102
0.00173117
-0.0006686
0.000689951
0.00282215
-0.00199491
0.00813099
-0.00616526
0.0134416
-0.0112235
0.0171754
-0.0167598
0.0200292
-0.0195136
0.0120289
-0.0165976
-0.0070554
-0.00915945
-0.026476
0.000716377
-0.0361554
0.00422982
0.000684468
0.00488295
-0.0334769
0.0387931
-0.1396
0.046108
0.0212397
0.0117871
0.127392
0.00436271
0.013367
0.00491493
-0.00297378
0.00927348
-0.0140345
0.0147899
-0.020206
0.0169107
-0.0092054
0.0133548
0.00401882
-0.00433475
0.0505221
-0.0355198
0.10385
-0.0656191
0.113975
-0.0828839
0.0800247
-0.0860718
0.0285112
-0.0796131
-0.014336
-0.0647489
-0.0531105
-0.0465933
-0.0695774
-0.0341081
-0.0507309
-0.020056
-0.0536912
-0.00732616
-0.0467529
0.000480865
-0.0287566
0.0122552
-0.0414086
0.019728
-0.0275417
0.0193641
-0.00111484
0.0132737
0.0180884
0.00273528
0.0376497
-0.00179099
0.0203741
0.0012088
-0.00788717
0.00950347
-0.0298225
-0.0257817
0.0629156
0.0284262
-0.0624276
0.0635607
0.0293724
0.0640862
0.0302962
0.0640073
0.030937
0.0628992
0.0309857
0.0605623
0.0302883
0.0570498
0.0288951
0.0525937
0.0269619
0.0475132
0.0246749
0.0421392
0.0222097
0.0367617
0.0197137
0.0316024
0.0172996
0.0268065
0.0150443
0.0224519
0.0129907
0.018566
0.0111567
0.0151415
0.00953883
0.0121523
0.00812434
0.00956189
0.00689266
0.0073314
0.00582425
0.00542146
0.00489812
0.00379518
0.0040962
0.00241868
0.00340313
0.00126078
0.00280378
0.000293957
0.00228689
-0.000506752
0.00184144
-0.00116342
0.00145899
-0.00169554
0.00113158
-0.00212054
0.000852535
-0.00245367
0.000615819
-0.00270812
0.000417214
-0.0028975
0.000250498
-0.00303347
0.000112353
-0.00311635
-6.88625e-06
-0.00316565
-9.69234e-05
-0.00318177
-0.000173012
-0.00317151
-0.000232699
-0.00313992
-0.00027942
-0.00309144
-0.000314313
-0.00303017
-0.000338068
-0.00295932
-0.000353579
-0.00288143
-0.000362653
-0.00279853
-0.000366868
-0.0027125
-0.000366254
-0.00262456
-0.000363278
-0.00253541
-0.000359182
-0.00244603
-0.00035266
-0.0023574
-0.000343431
-0.00227086
-0.000329756
-0.00218832
-0.00030928
-0.00211206
-0.000280564
-0.00204457
-0.000242775
-0.00198776
-0.000198287
-0.00194229
-0.000151989
-0.00190647
-0.000113066
-0.00187492
-9.56821e-05
-0.0018372
-0.000119458
-0.00177635
-0.000210171
-0.00166798
-0.000397716
-0.00148126
-0.000708167
-0.00118303
-0.00115122
-0.000746451
-0.00170008
-0.000162902
-0.00227964
0.000544857
-0.00274902
0.00131056
-0.00294525
0.0020166
-0.00265827
0.00251895
-0.00181926
0.00270411
-0.000591704
0.00253023
0.00073046
0.00205693
0.00178516
0.00139639
0.0024458
0.000682643
0.00266696
4.47373e-05
0.00246068
-0.0003803
0.00175883
-0.000487834
0.000604946
-0.000163782
-0.00104971
0.000532393
-0.00253977
0.00132858
-0.00304159
0.0019739
-0.00271635
0.00198117
-0.000675882
0.000540747
0.00426257
-0.0029182
0.0115899
-0.00807027
0.0185936
-0.0141243
0.0232293
-0.0204797
0.0263846
-0.0231698
0.0147189
-0.0190928
-0.0111324
-0.0108097
-0.034759
0.000243812
-0.0472089
0.00759287
-0.00666488
0.00328523
-0.0291689
0.0394089
-0.175723
0.056283
0.00436528
0.0170468
0.166628
0.0060842
0.0243296
0.00625703
-0.00314668
0.0115639
-0.0193413
0.0179858
-0.0266279
0.019934
-0.0111535
0.0138471
0.0101057
-0.00927533
0.0736445
-0.0467193
0.141294
-0.0798061
0.147062
-0.0961865
0.096405
-0.0974294
0.0297541
-0.0892977
-0.0224677
-0.0724666
-0.0699416
-0.0522684
-0.0897756
-0.0384195
-0.0645798
-0.0220946
-0.0700161
-0.00750032
-0.0613471
0.00143033
-0.0376873
0.0155681
-0.0555464
0.0244757
-0.0364493
0.0237011
-0.000340198
0.0160032
0.0257863
0.00375118
0.0499017
-0.000906854
0.0250321
0.00292283
-0.0117168
0.012618
-0.0395177
-0.034214
0.0669079
0.0280274
-0.0665091
0.067386
0.0288943
0.0678921
0.02979
0.0682019
0.0306273
0.0679974
0.0311901
0.0669894
0.0312963
0.0650091
0.0308754
0.062031
0.02994
0.0581535
0.0285525
0.0535617
0.0268015
0.0484878
0.0247877
0.0431749
0.0226124
0.0378483
0.020371
0.0326928
0.0181462
0.0278437
0.0160058
0.0233848
0.0139977
0.0193575
0.0121516
0.0157703
0.0104798
0.0126113
0.00898328
0.00985505
0.00765433
0.00746987
0.00648136
0.00542147
0.00545149
0.00367498
0.00455022
0.00219704
0.00376477
0.000956092
0.00308232
-7.68287e-05
0.00249182
-0.000928253
0.00198292
-0.00162218
0.00154641
-0.00218015
0.00117378
-0.00262158
0.000858643
-0.00296291
0.000591832
-0.00321927
0.000368703
-0.0034106
0.000184448
-0.00353361
2.60937e-05
-0.00361168
-9.49237e-05
-0.003649
-0.000195363
-0.00365212
-0.000276294
-0.00362787
-0.000338561
-0.0035823
-0.000383622
-0.00352018
-0.000415692
-0.00344536
-0.000437473
-0.0033609
-0.00045133
-0.00326966
-0.000457487
-0.00317364
-0.000459307
-0.00307408
-0.000458745
-0.00297247
-0.000454283
-0.00287025
-0.000445665
-0.00276919
-0.000430824
-0.00267171
-0.000406775
-0.00258061
-0.000371669
-0.002499
-0.000324404
-0.00242927
-0.00026802
-0.0023724
-0.000208868
-0.0023266
-0.000158882
-0.00228574
-0.000136547
-0.0022378
-0.000167403
-0.00216316
-0.000284811
-0.00203364
-0.000527244
-0.00181364
-0.000928173
-0.00146481
-0.00150005
-0.000955684
-0.00220921
-0.000275103
-0.00296023
0.000553459
-0.00357759
0.00145694
-0.00384874
0.00230288
-0.00350421
0.00292227
-0.00243865
0.00317387
-0.000843319
0.00299566
0.000908658
0.00244916
0.00233165
0.00166946
0.00322548
0.000824978
0.00351143
7.81155e-05
0.00320752
-0.000409769
0.00224669
-0.000519688
0.000714846
-0.000126666
-0.00144275
0.000691028
-0.00335748
0.00160554
-0.00395611
0.00229559
-0.00340641
0.00215983
-0.000540139
0.000225334
0.00619707
-0.00410716
0.0159224
-0.0102877
0.0247741
-0.017324
0.0302656
-0.024396
0.0334567
-0.0267923
0.0171152
-0.0214369
-0.0164879
-0.0126919
-0.0435039
-0.000993947
-0.0589067
0.0107627
-0.0184218
0.00238149
-0.0207874
0.0405044
-0.213846
0.0672819
-0.0224126
0.0234147
0.210496
0.00837133
0.039373
0.00782923
-0.00260467
0.0140384
-0.0255504
0.0213809
-0.0339704
0.0228313
-0.0126038
0.0134723
0.0194647
-0.0157202
0.102837
-0.0591701
0.184744
-0.0940001
0.181892
-0.10844
0.110845
-0.107767
0.0290812
-0.0984365
-0.031798
-0.0800463
-0.0883319
-0.0580398
-0.111782
-0.0426625
-0.079957
-0.0238238
-0.0888548
-0.00756681
-0.0776041
0.00233201
-0.0475861
0.0190316
-0.072246
0.0296419
-0.0470596
0.028476
0.000825685
0.0190963
0.035166
0.00521043
0.0637875
0.000490854
0.0297517
0.00514099
-0.016367
0.016231
-0.0506077
-0.043901
0.0712119
0.0276771
-0.0708616
0.0715877
0.0285184
0.0719959
0.0293819
0.0723595
0.0302637
0.0725147
0.0310348
0.0722494
0.0315617
0.0713614
0.0317633
0.0697031
0.0315983
0.0672039
0.0310516
0.0638732
0.0301322
0.0597916
0.0288691
0.0550978
0.0273062
0.0499704
0.0254983
0.0446079
0.0235087
0.0392061
0.0214076
0.0339375
0.0192662
0.0289379
0.0171512
0.0243003
0.0151174
0.0200784
0.0132052
0.0162936
0.0114391
0.012944
0.00983096
0.0100121
0.00838336
0.00747071
0.00709156
0.00528775
0.00594766
0.00342892
0.00494107
0.00185998
0.00406068
0.000547779
0.00329506
-0.000538732
0.00263289
-0.00142862
0.00206367
-0.00214855
0.00157857
-0.00272178
0.00116506
-0.00316966
0.00081657
-0.00351013
0.000524915
-0.0037671
0.000283071
-0.00394289
8.08871e-05
-0.00405737
-8.08742e-05
-0.00412253
-0.000211132
-0.00414414
-0.000316945
-0.00413167
-0.000396078
-0.00409226
-0.000455092
-0.00403164
-0.000498093
-0.00395435
-0.000528615
-0.00386467
-0.000547167
-0.00376572
-0.000558266
-0.00365957
-0.000564906
-0.00354843
-0.000565425
-0.00343443
-0.000559684
-0.0033199
-0.000545367
-0.00320787
-0.000518811
-0.00310182
-0.000477735
-0.00300552
-0.000420714
-0.00292202
-0.000351535
-0.00285268
-0.000278214
-0.00279574
-0.000215832
-0.00274445
-0.000187843
-0.00268527
-0.000226586
-0.00259601
-0.000374075
-0.00244477
-0.00067849
-0.00219123
-0.00118172
-0.00179184
-0.00189944
-0.00121022
-0.00279084
-0.000431996
-0.00373846
0.000519744
-0.00452933
0.00156715
-0.00489615
0.00256486
-0.00450194
0.00331895
-0.00319275
0.00365755
-0.00118193
0.00349296
0.00107324
0.00288411
0.00294049
0.00198847
0.00412109
0.00101172
0.00448816
0.00015303
0.00406619
-0.000402042
0.00280175
-0.000519066
0.000831851
-6.2778e-05
-0.00189906
0.000865904
-0.00428619
0.0018817
-0.00497192
0.00257915
-0.00410387
0.00223002
-0.000191015
-0.00029848
0.00872556
-0.00559375
0.0212177
-0.0128146
0.0319949
-0.0207843
0.0382354
-0.0284482
0.0411205
-0.0303191
0.0189862
-0.023688
-0.0231191
-0.0149421
-0.0522498
-0.00337455
-0.0704742
0.0130423
-0.034839
0.0029325
-0.0106773
0.0433397
-0.254253
0.0790279
-0.0581012
0.0309623
0.258562
0.0113563
0.058979
0.00968003
-0.000928471
0.016666
-0.0325363
0.0249331
-0.0422375
0.025485
-0.0131557
0.0120722
0.0328775
-0.0236916
0.138601
-0.0725955
0.233648
-0.107736
0.217033
-0.119563
0.122671
-0.117403
0.0269208
-0.107477
-0.0417234
-0.0879388
-0.10787
-0.0642202
-0.135501
-0.0469418
-0.0972354
-0.0252758
-0.110521
-0.00760396
-0.0952759
0.00301212
-0.0582021
0.0224614
-0.0916952
0.0351684
-0.0597666
0.0337306
0.00226348
0.0226563
0.0462404
0.00723463
0.0792092
0.0024427
0.0345436
0.00787002
-0.0217943
0.0203532
-0.0630909
-0.0548339
0.0758283
0.0273602
-0.0755114
0.0761501
0.0281965
0.0764836
0.0290484
0.076804
0.0299432
0.0770429
0.030796
0.0770871
0.0315174
0.0767962
0.0320543
0.0760251
0.0323693
0.0746474
0.0324294
0.0725713
0.0322082
0.0697502
0.0316903
0.0661873
0.0308691
0.0619384
0.0297472
0.0571094
0.0283376
0.0518495
0.0266675
0.0463359
0.0247797
0.0407542
0.0227329
0.0352768
0.0205948
0.0300467
0.0184352
0.0251684
0.0163173
0.0207076
0.0142918
0.0166962
0.0123948
0.0131398
0.0106479
0.0100258
0.00906158
0.0073293
0.00763753
0.00501825
0.00637168
0.00305712
0.00525615
0.00140923
0.00428078
3.7889e-05
0.00343501
-0.00108815
0.00270461
-0.002004
0.00208089
-0.00273778
0.00155035
-0.00331594
0.00110308
-0.00376014
0.00072728
-0.00409672
0.000417482
-0.0043386
0.000161013
-0.00449841
-5.13157e-05
-0.00459911
-0.000216237
-0.0046459
-0.000349285
-0.00465027
-0.000450714
-0.00462067
-0.000527682
-0.00456395
-0.000585337
-0.00448638
-0.000624746
-0.00439274
-0.00065191
-0.00428633
-0.000671321
-0.00417045
-0.000681309
-0.00404815
-0.000682
-0.00392255
-0.00067098
-0.00379747
-0.000643903
-0.00367717
-0.000598052
-0.00356627
-0.000531628
-0.00346857
-0.00044924
-0.00338603
-0.00036077
-0.00331704
-0.000284825
-0.00325441
-0.000250482
-0.00318324
-0.000297759
-0.00307894
-0.000478385