/*--------------------------------*- C++ -*----------------------------------*\
| =========                 |                                                 |
| \\      /  F ield         | OpenFOAM: The Open Source CFD Toolbox           |
|  \\    /   O peration     | Version:  2412                                  |
|   \\  /    A nd           | Website:  www.openfoam.com                      |
|    \\/     M anipulation  |                                                 |
\*---------------------------------------------------------------------------*/
FoamFile
{
    version     2.0;
    format      ascii;
    arch        "LSB;label=32;scalar=64";
    class       volVectorField;
    location    "0.175";
    object      U_0;
}
// * * * * * * * * * * * * * * * * * * * * * * * * * * * * * * * * * * * * * //

dimensions      [0 1 -1 0 0 0 0];

internalField   nonuniform List<vector> 
12600
(
(23.2306 0 -1.82262)
(10.0037 -5.0178e-20 -2.18925)
(4.57807 -3.01294e-20 -2.18558)
(2.48271 0 -1.70582)
(1.65194 -7.87105e-23 -1.20317)
(1.21475 0 -0.867666)
(0.921786 -2.54997e-20 -0.651036)
(0.707728 0 -0.500438)
(0.545231 0 -0.388866)
(0.41896 0 -0.303048)
(0.318608 0 -0.23581)
(0.237051 -1.02367e-19 -0.182486)
(0.170145 -1.06499e-19 -0.138855)
(0.114769 0 -0.102638)
(0.0685462 2.22474e-19 -0.0722947)
(0.029695 0 -0.0466914)
(-0.00310078 4.37979e-22 -0.0249406)
(-0.030854 0 -0.00640689)
(-0.0544792 1.1255e-19 0.00950632)
(-0.0746168 0 0.0228599)
(-0.0914769 0 0.0341789)
(-0.105718 0 0.0440709)
(-0.117665 4.29916e-19 0.0524694)
(-0.127619 -4.22224e-19 0.0595211)
(-0.135852 -2.95218e-22 0.065395)
(-0.142454 2.02623e-19 0.0702829)
(-0.147729 0 0.0742718)
(-0.151708 0 0.0774494)
(-0.154643 0 0.0799137)
(-0.156537 -3.66135e-19 0.081726)
(-0.157539 -7.11513e-19 0.0830472)
(-0.157703 0 0.083844)
(-0.157186 0 0.0841839)
(-0.156028 -3.24938e-19 0.0841015)
(-0.154428 -3.14688e-19 0.0836664)
(-0.152508 0 0.0829816)
(-0.150445 0 0.082155)
(-0.148266 -5.69028e-19 0.0812077)
(-0.145755 0 0.080002)
(-0.142265 2.05578e-22 0.0781809)
(-0.136941 -5.12516e-19 0.0753624)
(-0.128796 -4.94795e-19 0.0709295)
(-0.116581 0 0.0642125)
(-0.0993875 -4.59893e-19 0.0544858)
(-0.0765839 -4.42381e-19 0.0416561)
(-0.0486831 8.49384e-19 0.0263383)
(-0.0174101 -8.12759e-19 0.0102662)
(0.0132555 0 -0.00572977)
(0.0371191 7.33688e-19 -0.0180936)
(0.0462748 -6.91085e-19 -0.0210448)
(0.0308748 0 -0.0110011)
(-0.0187018 6.20029e-22 0.0189327)
(-0.109768 5.6028e-19 0.0724123)
(-0.240831 0 0.146495)
(-0.391757 -9.92318e-19 0.226122)
(-0.514878 0 0.290063)
(-0.546278 0 0.301695)
(-0.450011 1.76676e-21 0.244618)
(-0.274632 1.31566e-21 0.144884)
(-0.109359 9.65262e-19 0.0551451)
(-0.0101496 -9.30249e-19 0.00546796)
(-0.0185721 1.75082e-18 0.0163797)
(-0.17194 0 0.109554)
(-0.447759 1.4999e-18 0.267063)
(-0.766382 1.43019e-18 0.436791)
(-1.01118 -2.87243e-18 0.568125)
(-1.07112 1.51888e-18 0.590474)
(-0.893911 0 0.488187)
(-0.576431 0 0.308726)
(-0.269774 0 0.13991)
(-0.0556291 0 0.0237276)
(0.0659482 0 -0.0416763)
(0.122543 -3.05924e-18 -0.0712996)
(0.134249 2.89667e-18 -0.0765054)
(0.114854 0 -0.064732)
(0.0766483 0 -0.0428822)
(0.0358201 2.44236e-18 -0.0206055)
(0.00566567 -1.44177e-22 -0.00435655)
(-0.00665905 4.42266e-18 0.00211793)
(-0.00413501 0 0.000425066)
(0.00363983 0 -0.00383694)
(0.00943222 0 -0.00694332)
(0.00951178 -2.95512e-22 -0.00681053)
(0.00408861 0 -0.00368849)
(-0.00435177 0 0.00097308)
(-0.0125621 3.13014e-18 0.00531647)
(-0.0180691 -4.29538e-22 0.00803274)
(-0.0190942 0 0.0082622)
(-0.0152098 0 0.00576536)
(-0.00646266 -5.19038e-18 0.000600296)
(0.00603415 -4.9588e-18 -0.00659221)
(0.0212376 -4.73355e-18 -0.0153098)
(0.0377515 -4.51585e-18 -0.0247164)
(0.0544842 -7.02777e-22 -0.0342179)
(0.0705009 -6.21568e-22 -0.0432984)
(0.0853215 3.89247e-18 -0.0517107)
(0.0990379 0 -0.0595104)
(0.111886 0 -0.0668446)
(0.124189 0 -0.0738863)
(0.13605 1.25972e-17 -0.0806997)
(0.147513 -5.96315e-18 -0.0872993)
(0.158853 5.64408e-18 -0.0938508)
(0.170106 5.33962e-18 -0.100361)
(0.181886 0 -0.107191)
(0.193864 0 -0.114134)
(0.206896 0 -0.121701)
(0.220086 8.52627e-18 -0.129344)
(0.234761 0 -0.137885)
(0.249362 -7.60445e-18 -0.146349)
(0.266028 0 -0.156078)
(0.282197 0 -0.165462)
(0.301275 6.39321e-18 -0.176569)
(0.319491 0 -0.187181)
(0.341068 0 -0.199677)
(0.363189 0 -0.212665)
(0.389818 -1.0093e-17 -0.227868)
(0.414236 0 -0.242465)
(0.478599 8.9463e-18 -0.278946)
(0.470583 0 -0.275174)
(0.707791 3.18241e-22 -0.410541)
(36.2177 -1.57058e-20 -2.8549)
(26.4178 2.97108e-20 -4.79407)
(17.673 1.72603e-20 -5.72092)
(11.7548 0 -5.14781)
(8.2158 -2.17316e-21 -4.06641)
(6.03494 1.53594e-20 -3.13775)
(4.60354 2.65967e-20 -2.44658)
(3.5952 -3.36411e-20 -1.9334)
(2.8444 0 -1.54156)
(2.26491 0 -1.23419)
(1.80607 0 -0.988357)
(1.43563 0 -0.788829)
(1.13226 0 -0.623995)
(0.880553 0 -0.486231)
(0.66962 -1.03349e-21 -0.370093)
(0.491455 0 -0.27152)
(0.340064 1.17592e-19 -0.187372)
(0.210875 0 -0.115307)
(0.099853 -2.33673e-19 -0.0533407)
(0.00477622 2.31408e-19 0.000299648)
(-0.0761576 0 0.0462541)
(-0.146025 2.25973e-19 0.0855327)
(-0.206051 -2.23155e-19 0.119122)
(-0.257086 2.19078e-19 0.148071)
(-0.300464 -2.1466e-19 0.172694)
(-0.336885 0 0.193411)
(-0.367424 2.04582e-19 0.210731)
(-0.392388 0 0.224987)
(-0.412674 0 0.236561)
(-0.428475 0 0.245637)
(-0.440603 3.67838e-19 0.252361)
(-0.449158 0 0.257058)
(-0.454667 0 0.260014)
(-0.457346 0 0.261397)
(-0.457736 0 0.261644)
(-0.45632 0 0.260951)
(-0.453667 0 0.259572)
(-0.44988 5.85461e-19 0.257447)
(-0.444284 0 0.2541)
(-0.434977 1.09014e-18 0.248408)
(-0.419716 1.05147e-18 0.238853)
(-0.395535 5.06724e-19 0.223864)
(-0.359076 0 0.201587)
(-0.307818 0 0.170527)
(-0.24057 9.04145e-19 0.130435)
(-0.159726 -8.67276e-19 0.0833885)
(-0.0714262 8.28945e-19 0.0345604)
(0.0120658 0 -0.0117472)
(0.0716071 -7.47442e-19 -0.043651)
(0.0816836 0 -0.0453102)
(0.0162398 0 0.000531375)
(-0.155331 -6.11797e-19 0.108002)
(-0.449312 0 0.286918)
(-0.85102 0 0.523667)
(-1.28867 1.0026e-18 0.767186)
(-1.61704 0 0.943644)
(-1.6581 0 0.948028)
(-1.33445 2.98548e-21 0.739703)
(-0.797875 9.86934e-19 0.423568)
(-0.31281 -1.14183e-21 0.153933)
(-0.0511954 0 0.0220864)
(-0.139443 -1.75378e-18 0.0952513)
(-0.672253 -1.62362e-18 0.425618)
(-1.5433 0 0.939095)
(-2.47591 -2.84976e-18 1.4618)
(-3.12824 3.87934e-21 1.82133)
(-3.19934 0 1.83525)
(-2.60672 1.6038e-18 1.46398)
(-1.64185 0 0.897946)
(-0.734284 0 0.384116)
(-0.102976 0 0.0351071)
(0.253988 0 -0.158925)
(0.414643 6.02459e-18 -0.243447)
(0.438684 -2.8485e-18 -0.252603)
(0.369953 0 -0.209704)
(0.249522 0 -0.138969)
(0.127535 2.39056e-18 -0.0700363)
(0.042135 -2.34802e-22 -0.0224627)
(0.0107953 -3.89442e-22 -0.00571671)
(0.0211554 0 -0.0126545)
(0.0443213 0 -0.0261461)
(0.0600953 0 -0.0348379)
(0.0589566 -4.52368e-22 -0.0336612)
(0.0429182 -3.35249e-18 -0.0240535)
(0.0200942 3.18226e-18 -0.0107278)
(0.000140766 -3.02437e-18 0.00074328)
(-0.0100771 -6.53528e-22 0.0064947)
(-0.00602901 -2.74091e-18 0.0038602)
(0.0129967 0 -0.00744203)
(0.046259 4.98886e-18 -0.0269813)
(0.0901774 0 -0.0524587)
(0.141427 4.53862e-18 -0.0821608)
(0.195839 0 -0.113567)
(0.250224 -8.2298e-18 -0.144898)
(0.302086 -3.91196e-18 -0.174703)
(0.350252 0 -0.202385)
(0.395337 0 -0.228275)
(0.43813 -6.67797e-18 -0.252889)
(0.479718 6.32422e-18 -0.276787)
(0.520274 -1.19734e-17 -0.300126)
(0.560091 5.66341e-18 -0.323003)
(0.599834 -5.35558e-18 -0.345891)
(0.639848 0 -0.368894)
(0.681739 4.7827e-18 -0.393053)
(0.724741 0 -0.417786)
(0.771236 0 -0.444621)
(0.818572 -8.0559e-18 -0.47185)
(0.871003 0 -0.502118)
(0.923091 1.18367e-21 -0.532104)
(0.982912 6.77084e-18 -0.566621)
(1.03986 0 -0.599477)
(1.109 0 -0.639277)
(1.17169 0 -0.675607)
(1.25117 5.34772e-18 -0.721184)
(1.32485 -1.0089e-17 -0.764267)
(1.42163 9.48829e-18 -0.819408)
(1.50125 0 -0.867226)
(1.71381 -8.40281e-18 -0.9882)
(1.68171 0 -0.975131)
(2.42869 1.48229e-17 -1.40699)
(39.746 3.39298e-20 -3.06802)
(35.5442 -8.19606e-21 -4.83815)
(28.986 1.13041e-20 -6.55923)
(22.3385 0 -7.03493)
(16.875 -6.62656e-21 -6.49076)
(12.8558 9.83228e-22 -5.54483)
(9.9922 0 -4.596)
(7.90977 3.19253e-20 -3.78052)
(6.34326 0 -3.10906)
(5.12943 4.22267e-20 -2.55893)
(4.16663 0 -2.10529)
(3.38847 0 -1.72786)
(2.74965 0 -1.41121)
(2.21859 0 -1.14339)
(1.77263 -1.08767e-19 -0.915307)
(1.39506 0 -0.719976)
(1.07328 0 -0.551911)
(0.79768 0 -0.406843)
(0.560352 1.10597e-19 -0.28135)
(0.356226 -8.90687e-22 -0.171531)
(0.180483 0 -0.0764468)
(0.027897 -7.00414e-22 0.005306)
(-0.103523 0 0.0765863)
(-0.216785 -2.06698e-19 0.13792)
(-0.314418 0 0.190672)
(-0.397545 0 0.236095)
(-0.468405 -1.94052e-19 0.274805)
(-0.52787 0 0.307399)
(-0.577618 0 0.334633)
(-0.618253 -3.57952e-19 0.356956)
(-0.651139 0 0.374742)
(-0.676597 0 0.388505)
(-0.695684 0 0.398793)
(-0.708865 0 0.405943)
(-0.717374 3.0684e-19 0.410284)
(-0.721923 0 0.412463)
(-0.72338 0 0.412975)
(-0.721819 -5.53798e-19 0.411799)
(-0.716237 0 0.408002)
(-0.704154 -1.03171e-18 0.399123)
(-0.681833 -3.10539e-22 0.383314)
(-0.644726 -4.79741e-19 0.358213)
(-0.587948 0 0.321227)
(-0.507822 0 0.270946)
(-0.403193 -4.27696e-19 0.207538)
(-0.278653 0 0.134994)
(-0.144798 -7.84149e-19 0.0618216)
(-0.0213145 0 -0.00285874)
(0.059933 -4.31873e-22 -0.039818)
(0.0584927 0 -0.0232612)
(-0.0675014 0 0.0747489)
(-0.36528 0 0.273892)
(-0.855333 -5.38558e-19 0.581348)
(-1.50291 0 0.965364)
(-2.18235 0 1.33451)
(-2.66189 0 1.56328)
(-2.67559 0 1.50505)
(-2.12936 1.84861e-18 1.12386)
(-1.267 0 0.615091)
(-0.505622 -9.04665e-22 0.21249)
(-0.127385 0 0.055088)
(-0.33773 8.27414e-19 0.252433)
(-1.26696 1.53082e-18 0.855941)
(-2.69746 0 1.70647)
(-4.14752 2.68422e-18 2.50089)
(-5.08336 1.3418e-18 2.96567)
(-5.07577 0 2.86968)
(-4.07003 -1.51042e-18 2.19663)
(-2.52495 0 1.28954)
(-1.0905 0 0.500861)
(-0.0906052 0 -0.025131)
(0.475209 0 -0.312364)
(0.724466 -7.2927e-23 -0.429898)
(0.7519 2.67877e-18 -0.429998)
(0.631018 0 -0.350261)
(0.432372 0 -0.233122)
(0.237664 2.31169e-23 -0.125498)
(0.106085 -4.25963e-18 -0.0562607)
(0.061693 -2.02654e-18 -0.0355293)
(0.0807316 0 -0.0497397)
(0.117746 0 -0.0713698)
(0.14192 0 -0.0835461)
(0.139721 -6.63114e-18 -0.0804999)
(0.115561 3.73419e-22 -0.0659471)
(0.0832006 -2.98521e-18 -0.0473462)
(0.0577985 0 -0.0333546)
(0.0497051 -2.69777e-18 -0.0296139)
(0.0652026 2.5696e-18 -0.0401842)
(0.104811 0 -0.0647857)
(0.166829 0 -0.102065)
(0.245192 4.45696e-18 -0.148126)
(0.334395 0 -0.200046)
(0.427848 4.04791e-18 -0.253927)
(0.520545 8.30679e-22 -0.307102)
(0.608877 3.66117e-18 -0.35752)
(0.691242 -3.47609e-18 -0.404551)
(0.769024 0 -0.448964)
(0.843523 6.24952e-18 -0.491677)
(0.916637 -5.91758e-18 -0.533591)
(0.988453 1.12e-17 -0.57489)
(1.05966 0 -0.615792)
(1.1311 -5.00754e-18 -0.657011)
(1.20364 0 -0.698813)
(1.27954 -4.47217e-18 -0.742762)
(1.35786 4.22297e-18 -0.787976)
(1.44218 0 -0.836875)
(1.52831 7.53024e-18 -0.886604)
(1.62339 0 -0.941737)
(1.71771 1.34115e-17 -0.996231)
(1.82642 -6.32712e-18 -1.05917)
(1.92852 0 -1.1183)
(2.05488 0 -1.19128)
(2.16525 0 -1.25548)
(2.31199 -7.28637e-22 -1.33996)
(2.4382 9.42387e-18 -1.41415)
(2.61617 -8.85945e-18 -1.51558)
(2.74836 0 -1.59708)
(3.11618 -7.84525e-18 -1.80347)
(3.04812 0 -1.7816)
(4.27462 -3.58317e-22 -2.48624)
(40.0388 -1.80335e-20 -3.51296)
(39.2098 -6.30024e-21 -4.53305)
(35.9249 1.94797e-21 -6.23892)
(31.0268 -1.0169e-20 -7.48564)
(25.7115 -1.70176e-20 -7.81411)
(20.8696 -3.1716e-20 -7.39593)
(16.8648 0 -6.60594)
(13.6855 0 -5.72318)
(11.1788 0 -4.88497)
(9.18516 -3.99927e-20 -4.13911)
(7.57865 0 -3.49204)
(6.26665 0 -2.93526)
(5.1819 0 -2.45656)
(4.27537 0 -2.04407)
(3.51085 0 -1.68755)
(2.86115 -1.02971e-19 -1.37846)
(2.30551 1.03781e-19 -1.1097)
(1.82792 0 -0.875468)
(1.41542 0 -0.671042)
(1.05849 -2.07158e-19 -0.491711)
(0.749422 2.04288e-19 -0.334931)
(0.480694 -2.02406e-19 -0.198236)
(0.247612 1.98651e-19 -0.0778536)
(0.0447198 1.95724e-19 0.0261621)
(-0.130817 -1.91372e-19 0.117219)
(-0.282241 1.8728e-19 0.195786)
(-0.412991 0 0.263528)
(-0.52435 -1.7848e-19 0.321751)
(-0.619155 0 0.371262)
(-0.698533 3.38783e-19 0.412833)
(-0.76449 0 0.447414)
(-0.817972 0 0.475488)
(-0.860615 0 0.497836)
(-0.89336 -2.99608e-19 0.515025)
(-0.917893 -2.90258e-19 0.527612)
(-0.935171 0 0.536447)
(-0.946455 0 0.542208)
(-0.952235 5.23681e-19 0.544335)
(-0.951391 0 0.541666)
(-0.940704 3.46389e-22 0.531039)
(-0.915104 -4.70107e-19 0.510669)
(-0.869356 0 0.477193)
(-0.797643 0 0.427632)
(-0.695883 0 0.360721)
(-0.563255 0 0.277722)
(-0.40654 -7.74533e-19 0.185033)
(-0.24036 0 0.095128)
(-0.0915947 7.05276e-19 0.0219342)
(-0.0033342 6.67693e-19 -0.00878555)
(-0.0285207 0 0.039401)
(-0.224943 0 0.199242)
(-0.648893 0 0.497774)
(-1.32039 5.08101e-19 0.932838)
(-2.17889 -4.73664e-19 1.44803)
(-3.04625 -8.93194e-19 1.90799)
(-3.61857 0 2.14325)
(-3.57504 -8.57678e-19 1.98556)
(-2.82186 -1.73746e-18 1.43161)
(-1.6847 0 0.753937)
(-0.700943 -1.7178e-18 0.257014)
(-0.256352 0 0.119302)
(-0.629363 -7.80948e-19 0.484763)
(-1.95648 -1.4459e-18 1.38068)
(-3.88223 0 2.53816)
(-5.72346 -1.26289e-18 3.52059)
(-6.79705 -1.25558e-18 3.99294)
(-6.63042 0 3.71153)
(-5.22849 0 2.74126)
(-3.1949 0 1.53633)
(-1.32328 1.48749e-18 0.524715)
(-0.011945 1.45574e-18 -0.138958)
(0.731874 0 -0.494745)
(1.05272 -2.66248e-18 -0.629885)
(1.07504 -2.51728e-18 -0.611762)
(0.900681 0 -0.492484)
(0.630219 0 -0.331512)
(0.373126 -2.10932e-18 -0.191386)
(0.205377 2.30767e-22 -0.107197)
(0.153296 0 -0.086965)
(0.181548 0 -0.109306)
(0.230972 0 -0.138188)
(0.262379 0 -0.15316)
(0.260242 4.20006e-22 -0.148681)
(0.232013 2.94897e-18 -0.130825)
(0.196269 0 -0.110136)
(0.172689 0 -0.0976161)
(0.174073 0 -0.100257)
(0.207622 2.40629e-18 -0.122963)
(0.273601 0 -0.163891)
(0.368736 4.37508e-18 -0.221081)
(0.48453 -4.17372e-18 -0.289212)
(0.613469 3.97758e-18 -0.364236)
(0.746989 -3.78946e-18 -0.441096)
(0.878611 7.21023e-18 -0.516426)
(1.00408 -3.42637e-18 -0.587825)
(1.12166 3.25269e-18 -0.654776)
(1.23369 0 -0.718585)
(1.34191 0 -0.780522)
(1.44906 -5.53307e-18 -0.841822)
(1.55498 -5.23692e-18 -0.902616)
(1.66088 -4.95153e-18 -0.963311)
(1.76761 8.46664e-22 -1.02477)
(1.87669 0 -1.0875)
(1.99075 0 -1.15344)
(2.10887 -3.94722e-18 -1.2215)
(2.23561 0 -1.29488)
(2.36523 -7.03487e-18 -1.36961)
(2.50804 0 -1.45228)
(2.64923 -1.11766e-21 -1.53377)
(2.81265 0 -1.62821)
(2.96392 -5.57242e-18 -1.71583)
(3.15466 5.25314e-18 -1.82569)
(3.31516 4.95312e-18 -1.91925)
(3.53843 -8.42204e-22 -2.04731)
(3.71668 0 -2.15276)
(3.98697 8.27359e-18 -2.30599)
(4.16624 7.8038e-18 -2.41958)
(4.69536 7.32562e-18 -2.71347)
(4.58017 0 -2.68157)
(6.23225 -4.04464e-22 -3.63187)
(39.4908 0 -4.09523)
(39.8516 -4.69746e-21 -4.57619)
(38.904 0 -5.81395)
(36.3566 9.60819e-21 -7.17766)
(32.615 2.19988e-20 -8.09077)
(28.357 1.60565e-20 -8.35141)
(24.1657 0 -8.06105)
(20.3803 0 -7.43058)
(17.1188 -3.31064e-20 -6.65051)
(14.3701 -3.7045e-20 -5.84537)
(12.0705 4.03168e-20 -5.07966)
(10.1452 8.58834e-20 -4.37982)
(8.52601 8.99709e-20 -3.75254)
(7.15619 0 -3.19554)
(5.99029 0 -2.70309)
(4.99231 1.94072e-19 -2.26849)
(4.13372 -5.81213e-22 -1.88511)
(3.39189 0 -1.54688)
(2.74834 -9.76534e-20 -1.2485)
(2.18876 -1.94178e-19 -0.984636)
(1.70157 -1.93129e-19 -0.751688)
(1.27618 0 -0.546793)
(0.904846 -1.87783e-19 -0.365616)
(0.580474 1.83966e-19 -0.206899)
(0.297946 1.80881e-19 -0.0663542)
(0.0516027 -4.15042e-22 0.0554404)
(-0.162128 0 0.162224)
(-0.346583 3.26449e-22 0.254468)
(-0.505646 0 0.33399)
(-0.640988 3.19089e-19 0.402089)
(-0.755743 0 0.459697)
(-0.851407 0 0.50769)
(-0.930336 0 0.54716)
(-0.993906 2.8298e-19 0.578974)
(-1.04418 0 0.604397)
(-1.08284 0 0.624097)
(-1.11169 0 0.638797)
(-1.13139 0 0.647888)
(-1.14084 -4.76349e-19 0.64967)
(-1.13694 9.19318e-19 0.639732)
(-1.11387 0 0.616547)
(-1.06568 4.27033e-19 0.576861)
(-0.986215 0 0.517566)
(-0.871433 0 0.437994)
(-0.721224 0 0.340773)
(-0.544482 1.47153e-22 0.234828)
(-0.35952 0 0.136589)
(-0.199359 -6.65005e-19 0.0654085)
(-0.11682 0 0.0528742)
(-0.175479 0 0.144244)
(-0.445243 -5.56052e-19 0.377584)
(-0.989666 0 0.7793)
(-1.82159 0 1.33453)
(-2.85147 -4.74309e-22 1.95696)
(-3.85322 8.41276e-19 2.46864)
(-4.47159 0 2.66454)
(-4.3595 2.68926e-21 2.37881)
(-3.43402 1.63035e-18 1.65798)
(-2.07771 0 0.844991)
(-0.922703 8.07871e-19 0.298216)
(-0.453112 0 0.228103)
(-1.013 7.34668e-19 0.802578)
(-2.71744 1.35996e-18 1.99571)
(-5.05132 0 3.40683)
(-7.14437 1.18499e-18 4.47746)
(-8.22661 4.17551e-21 4.84855)
(-7.84982 0 4.32171)
(-6.10019 0 3.06518)
(-3.67337 0 1.62093)
(-1.44671 -2.79226e-18 0.446845)
(0.126219 -1.12042e-21 -0.310739)
(1.02213 0 -0.707702)
(1.40105 2.49959e-18 -0.843908)
(1.4126 4.72615e-18 -0.798494)
(1.18601 0 -0.63771)
(0.851007 0 -0.437239)
(0.541423 0 -0.272038)
(0.345763 2.34866e-22 -0.180367)
(0.289867 0 -0.165015)
(0.327274 0 -0.19655)
(0.388124 0 -0.231994)
(0.426892 0 -0.249243)
(0.42742 2.91342e-18 -0.244033)
(0.399789 2.76247e-18 -0.225784)
(0.367014 0 -0.207217)
(0.352213 0 -0.201129)
(0.369886 0 -0.215096)
(0.427644 -6.32507e-22 -0.254072)
(0.524909 0 -0.31484)
(0.656698 -4.0957e-18 -0.394531)
(0.812382 0 -0.486435)
(0.98262 -3.72251e-18 -0.585526)
(1.15729 0 -0.685874)
(1.32874 -3.37257e-18 -0.78366)
(1.49244 0 -0.876411)
(1.64666 0 -0.963905)
(1.79487 0 -1.04808)
(1.93912 0 -1.13049)
(2.08298 5.17367e-18 -1.21269)
(2.2259 0 -1.29467)
(2.36979 4.62889e-18 -1.3771)
(2.51524 4.37577e-18 -1.46089)
(2.66464 0 -1.54686)
(2.8207 0 -1.63719)
(2.98263 0 -1.73062)
(3.15589 0 -1.83107)
(3.33304 1.15559e-21 -1.93333)
(3.528 0 -2.04632)
(3.71975 -1.17022e-17 -2.15718)
(3.94291 0 -2.28621)
(4.14605 1.04088e-17 -2.40416)
(4.40725 -4.9063e-18 -2.55462)
(4.61862 -4.62579e-18 -2.67824)
(4.92609 -4.35578e-18 -2.85464)
(5.15375 0 -2.99003)
(5.52571 0 -3.20061)
(5.74353 -1.45717e-17 -3.34258)
(6.43798 6.83767e-18 -3.72368)
(6.26922 6.43327e-18 -3.68286)
(8.27538 -6.0306e-18 -4.83391)
(38.9458 0 -4.5628)
(39.4003 3.75005e-20 -4.83731)
(39.5158 0 -5.60583)
(38.6855 0 -6.70995)
(36.7233 0 -7.77533)
(33.8511 0 -8.49301)
(30.4551 0 -8.74313)
(26.9013 2.83233e-20 -8.56674)
(23.4577 3.12345e-20 -8.0835)
(20.2834 6.99337e-20 -7.42223)
(17.4476 -7.58916e-20 -6.68492)
(14.9593 -8.10496e-20 -5.93858)
(12.7952 -8.49128e-20 -5.22136)
(10.9194 0 -4.55222)
(9.29384 0 -3.93876)
(7.8833 -1.81986e-19 -3.38225)
(6.65672 -1.83598e-19 -2.88065)
(5.58768 0 -2.43036)
(4.65369 9.21736e-20 -2.02734)
(3.83625 1.83278e-19 -1.66687)
(3.12008 0 -1.3451)
(2.49158 1.7871e-19 -1.05903)
(1.93982 0 -0.804032)
(1.45529 -5.05475e-22 -0.578437)
(1.03026 -1.69805e-19 -0.377832)
(0.657866 -3.99128e-22 -0.201525)
(0.332476 0 -0.0452362)
(0.048635 1.58829e-19 0.0906288)
(-0.197773 -3.08877e-19 0.209597)
(-0.410282 -6.01558e-19 0.31227)
(-0.592952 -2.9205e-19 0.400531)
(-0.747914 0 0.475674)
(-0.878502 -2.74878e-19 0.538944)
(-0.986778 0 0.591466)
(-1.07559 0 0.634622)
(-1.14703 0 0.669424)
(-1.20335 0 0.696746)
(-1.2454 0 0.716461)
(-1.27269 3.8111e-22 0.726911)
(-1.28328 -4.33095e-19 0.720838)
(-1.26999 0 0.698138)
(-1.2272 -8.04545e-19 0.655551)
(-1.14893 0 0.59029)
(-1.03144 0 0.502717)
(-0.875426 0 0.397164)
(-0.691614 6.87953e-19 0.285206)
(-0.501439 0 0.18724)
(-0.343069 0 0.128154)
(-0.277061 0 0.144343)
(-0.37526 0 0.289156)
(-0.717787 1.04775e-18 0.602543)
(-1.37022 0 1.10785)
(-2.33476 0 1.77143)
(-3.49243 4.20282e-19 2.47391)
(-4.57831 0 2.99905)
(-5.20872 0 3.11949)
(-5.03458 1.51114e-18 2.69316)
(-3.98589 -7.65283e-19 1.82127)
(-2.4707 0 0.90665)
(-1.19201 0 0.351285)
(-0.727843 0 0.393227)
(-1.48223 -6.92274e-19 1.20462)
(-3.51887 0 2.68285)
(-6.15052 0 4.27651)
(-8.35046 -2.22441e-18 5.3281)
(-9.32929 2.20471e-18 5.50931)
(-8.72335 0 4.70691)
(-6.69515 0 3.19274)
(-3.97374 0 1.56344)
(-1.46884 1.30927e-18 0.277873)
(0.320867 -1.28202e-18 -0.536512)
(1.34621 -2.46462e-18 -0.950694)
(1.77229 -2.34491e-18 -1.07325)
(1.76957 -2.21663e-18 -0.993298)
(1.49402 2.08837e-18 -0.790297)
(1.10283 0 -0.555033)
(0.750438 0 -0.37197)
(0.534261 1.75736e-18 -0.279161)
(0.477649 0 -0.271782)
(0.52412 0 -0.313072)
(0.596026 0 -0.354839)
(0.643288 0 -0.374663)
(0.649792 0 -0.370612)
(0.628404 -5.17375e-18 -0.354831)
(0.60561 0 -0.342182)
(0.607095 -2.32918e-18 -0.346265)
(0.647185 0 -0.376827)
(0.735089 -6.61575e-22 -0.43526)
(0.868168 4.017e-18 -0.518707)
(1.03992 0 -0.622876)
(1.23785 0 -0.739874)
(1.45097 0 -0.863864)
(1.66806 0 -0.988274)
(1.88046 3.15256e-18 -1.10902)
(2.08381 0 -1.22377)
(2.27641 0 -1.33268)
(2.46298 0 -1.43836)
(2.64567 0 -1.54257)
(2.82899 0 -1.64714)
(3.0118 0 -1.75187)
(3.19684 0 -1.85772)
(3.3843 0 -1.96563)
(3.57748 -3.86175e-18 -2.0767)
(3.77902 0 -2.19332)
(3.98823 0 -2.31395)
(4.21157 0 -2.4434)
(4.4394 6.13885e-18 -2.57488)
(4.69022 0 -2.72016)
(4.93493 5.46452e-18 -2.86167)
(5.2219 0 -3.02741)
(5.4778 -9.54376e-22 -3.17623)
(5.81432 0 -3.36964)
(6.07485 4.31795e-18 -3.52264)
(6.47257 0 -3.7501)
(6.7437 0 -3.91284)
(7.22465 0 -4.18356)
(7.46873 6.80158e-18 -4.34926)
(8.32675 -1.27659e-17 -4.81381)
(8.10582 -1.20104e-17 -4.77002)
(10.3731 -5.62851e-18 -6.07041)
(38.5355 0 -4.85094)
(38.821 -4.1334e-20 -5.09286)
(39.1745 0 -5.58299)
(39.1655 0 -6.3729)
(38.4539 -2.89929e-20 -7.31274)
(36.9549 -2.72816e-20 -8.17204)
(34.7712 2.73963e-20 -8.76912)
(32.0957 -8.43201e-20 -9.02338)
(29.1439 0 -8.944)
(26.1117 4.34591e-22 -8.59465)
(23.1511 3.56601e-20 -8.05806)
(20.3624 0 -7.41135)
(17.8002 0 -6.71501)
(15.4844 0 -6.01138)
(13.4129 0 -5.32764)
(11.571 5.31307e-22 -4.67973)
(9.93899 4.98e-22 -4.07591)
(8.49528 8.61078e-20 -3.51949)
(7.21886 8.60385e-20 -3.01084)
(6.09058 0 -2.54822)
(5.0934 -1.69783e-19 -2.1292)
(4.21192 -1.68426e-19 -1.75171)
(3.43275 0 -1.41174)
(2.74429 -4.85166e-22 -1.10757)
(2.13645 4.33198e-22 -0.834863)
(1.60056 -1.56648e-19 -0.59264)
(1.12884 0 -0.376728)
(0.714821 0 -0.186447)
(0.352558 2.91017e-19 -0.0179761)
(0.0367467 4.86181e-22 0.128661)
(-0.237081 5.49826e-19 0.256645)
(-0.472726 0 0.36675)
(-0.674383 5.17492e-19 0.46105)
(-0.844765 0 0.541047)
(-0.98756 0 0.608387)
(-1.10554 -2.34423e-19 0.664237)
(-1.20167 0 0.709583)
(-1.27752 -4.37381e-19 0.743875)
(-1.33337 3.65657e-22 0.76613)
(-1.36596 4.07041e-19 0.77162)
(-1.37267 0 0.752195)
(-1.34561 2.97229e-22 0.710423)
(-1.27931 0 0.643959)
(-1.17084 0 0.553963)
(-1.0218 0 0.44659)
(-0.844306 0 0.336056)
(-0.662193 0 0.246615)
(-0.517296 5.89902e-19 0.208998)
(-0.477185 0 0.261471)
(-0.616953 0 0.468589)
(-1.02622 -4.93024e-19 0.865812)
(-1.76859 0 1.47046)
(-2.83308 -4.26485e-19 2.2261)
(-4.07427 -3.9578e-19 2.97982)
(-5.20187 7.42498e-19 3.48466)
(-5.82745 0 3.50559)
(-5.61696 -7.08567e-19 2.93927)
(-4.50424 -7.13153e-19 1.93986)
(-2.88961 0 0.956406)
(-1.52689 0 0.428816)
(-1.08683 0 0.617136)
(-2.02128 6.49993e-19 1.6827)
(-4.32042 0 3.41538)
(-7.12238 0 5.10539)
(-9.29087 1.04301e-18 6.03323)
(-10.0893 -2.05968e-18 5.95719)
(-9.2729 0 4.87343)
(-7.04729 0 3.14179)
(-4.12134 0 1.37888)
(-1.40274 0 0.0254638)
(0.56771 -1.20005e-18 -0.814017)
(1.70499 2.31085e-18 -1.22422)
(2.1707 0 -1.32007)
(2.15282 0 -1.19941)
(1.83316 -1.95722e-18 -0.954639)
(1.39445 0 -0.689794)
(1.00814 -1.73818e-18 -0.49575)
(0.777273 1.64582e-18 -0.407561)
(0.721926 0 -0.411054)
(0.777336 0 -0.462942)
(0.860611 0 -0.511188)
(0.918364 0 -0.534526)
(0.935466 0 -0.533138)
(0.925891 2.42127e-18 -0.523722)
(0.919443 0 -0.52163)
(0.943359 4.35886e-18 -0.540703)
(1.01218 0 -0.591111)
(1.13504 -6.52392e-22 -0.672595)
(1.30782 -1.33722e-21 -0.781264)
(1.52236 0 -0.911741)
(1.76468 3.41403e-18 -1.05512)
(2.02231 0 -1.20487)
(2.28331 0 -1.35403)
(2.53817 -5.89428e-18 -1.4984)
(2.78295 0 -1.63596)
(3.01593 0 -1.76729)
(3.24317 0 -1.8957)
(3.46665 0 -2.02301)
(3.69194 0 -2.15136)
(3.91711 0 -2.28026)
(4.14592 0 -2.41107)
(4.37795 0 -2.54462)
(4.61745 3.60782e-18 -2.68233)
(4.86694 0 -2.82677)
(5.12556 0 -2.97597)
(5.40124 0 -3.13584)
(5.68111 -5.7313e-18 -3.29747)
(5.98992 -5.40863e-18 -3.47636)
(6.28763 -5.10113e-18 -3.64878)
(6.64059 4.8114e-18 -3.8525)
(6.94719 -9.25183e-22 -4.03132)
(7.36144 -4.27559e-18 -4.26904)
(7.66605 -8.06238e-18 -4.44885)
(8.15665 0 -4.72886)
(8.4618 7.15799e-18 -4.91389)
(9.05432 6.72872e-18 -5.24595)
(9.31024 0 -5.42825)
(10.3205 5.95793e-18 -5.96756)
(10.0595 5.60516e-18 -5.92972)
(12.4835 5.25353e-18 -7.31758)
(38.1968 0 -5.01979)
(38.3526 2.0718e-20 -5.26916)
(38.6429 0 -5.63877)
(38.861 0 -6.20289)
(38.7614 2.73031e-20 -6.93597)
(38.1813 2.56867e-20 -7.72681)
(37.0578 -2.579e-20 -8.43667)
(35.4132 8.40839e-20 -8.95287)
(33.332 0 -9.21494)
(30.9329 3.3248e-20 -9.21529)
(28.3441 -6.80148e-20 -8.984)
(25.6856 0 -8.57018)
(23.0567 7.40927e-20 -8.02723)
(20.5312 0 -7.40411)
(18.1575 7.82214e-20 -6.74111)
(15.9623 7.99503e-20 -6.06889)
(13.9556 8.07225e-20 -5.40917)
(12.1359 -8.10463e-20 -4.77627)
(10.4951 -1.61571e-19 -4.17896)
(9.0213 0 -3.62181)
(7.70126 1.59807e-19 -3.10653)
(6.52143 0 -2.63395)
(5.46849 0 -2.20216)
(4.53034 -1.53088e-19 -1.81052)
(3.69559 2.99976e-19 -1.45563)
(2.95431 0 -1.13667)
(2.29714 0 -0.849814)
(1.71618 0 -0.594261)
(1.20384 -2.72815e-19 -0.366379)
(0.753921 2.65967e-19 -0.165307)
(0.360302 -4.19587e-22 0.0122046)
(0.0177586 2.50518e-19 0.166595)
(-0.278451 -4.86215e-19 0.300861)
(-0.532507 2.35354e-19 0.416159)
(-0.748849 -2.27788e-19 0.514865)
(-0.930934 2.36298e-22 0.598383)
(-1.08259 0 0.66779)
(-1.20622 4.11357e-19 0.722593)
(-1.30296 3.96893e-19 0.761502)
(-1.37091 -3.82762e-19 0.782447)
(-1.40995 0 0.772598)
(-1.40976 3.55571e-19 0.737831)
(-1.36779 3.42229e-19 0.67591)
(-1.28145 3.29435e-19 0.58974)
(-1.15298 3.16757e-19 0.487421)
(-0.995359 0 0.385696)
(-0.833906 0 0.312406)
(-0.712983 3.68707e-22 0.304378)
(-0.7041 0 0.400629)
(-0.884386 0 0.674284)
(-1.35013 -4.65005e-19 1.15551)
(-2.1596 4.32974e-19 1.85132)
(-3.2887 4.00538e-19 2.67983)
(-4.57214 -2.9028e-22 3.45715)
(-5.71094 -8.66743e-22 3.9157)
(-6.33285 0 3.82754)
(-6.12686 0 3.13456)
(-5.01476 1.33553e-18 2.03376)
(-3.3564 0 1.00953)
(-1.93957 0 0.538779)
(-1.5273 -6.46654e-19 0.896558)
(-2.60428 0 2.22044)
(-5.07482 0 4.15952)
(-7.91153 1.0392e-18 5.85068)
(-9.93067 -9.73489e-19 6.56329)
(-10.5133 1.92141e-18 6.19399)
(-9.53526 0 4.8485)
(-7.19688 -1.07079e-18 2.94141)
(-4.14382 0 1.08629)
(-1.26286 0 -0.301584)
(0.862319 2.24812e-18 -1.14097)
(2.10019 0 -1.52955)
(2.60189 0 -1.58746)
(2.57034 0 -1.42124)
(2.21264 0 -1.1358)
(1.7349 0 -0.846586)
(1.32236 1.62769e-18 -0.647851)
(1.08129 -2.72554e-22 -0.569109)
(1.02868 -1.46412e-18 -0.585287)
(1.09282 1.3934e-18 -0.648928)
(1.18845 0 -0.704312)
(1.2595 0 -0.73251)
(1.29144 0 -0.736621)
(1.29954 0 -0.736343)
(1.31614 0 -0.747542)
(1.36711 -5.45351e-22 -0.787364)
(1.47022 0 -0.860045)
(1.63203 -1.84378e-18 -0.967164)
(1.84769 -1.35615e-21 -1.10319)
(2.10742 0 -1.26149)
(2.39617 -3.19205e-18 -1.4324)
(2.70005 0 -1.6088)
(3.00677 2.89481e-18 -1.78355)
(3.30591 9.03519e-22 -1.95237)
(3.59422 0 -2.11371)
(3.86971 0 -2.26853)
(4.13991 0 -2.42083)
(4.40625 0 -2.57234)
(4.67557 4.21922e-18 -2.72556)
(4.94491 0 -2.8796)
(5.21927 0 -3.03627)
(5.49744 3.56608e-18 -3.19631)
(5.78456 0 -3.36131)
(6.08313 -3.18164e-18 -3.53417)
(6.39158 3.00357e-18 -3.71209)
(6.7202 0 -3.90267)
(7.0512 1.07032e-17 -4.09387)
(7.41813 1.13609e-21 -4.30633)
(7.76598 9.52538e-18 -4.50802)
(8.18475 -4.49247e-18 -4.74937)
(8.53642 -4.23539e-18 -4.95513)
(9.02793 3.99181e-18 -5.2364)
(9.36744 3.7631e-18 -5.43821)
(9.94985 3.54209e-18 -5.76929)
(10.2752 -6.6821e-18 -5.96967)
(10.9766 -6.28115e-18 -6.3599)
(11.2277 -5.9234e-18 -6.55152)
(12.3671 -5.55941e-18 -7.15002)
(12.0846 0 -7.13074)
(14.556 0 -8.54377)
(37.8792 0 -5.13165)
(37.9674 2.33675e-20 -5.37984)
(38.1674 0 -5.69772)
(38.3809 0 -6.12923)
(38.4764 0 -6.68743)
(38.3395 0 -7.33899)
(37.8797 3.17244e-20 -8.00959)
(37.0417 -2.80587e-20 -8.6106)
(35.8114 3.11075e-20 -9.06733)
(34.2145 -6.08041e-20 -9.33449)
(32.3063 6.39422e-20 -9.39769)
(30.1601 0 -9.26684)
(27.856 -6.96509e-20 -8.96748)
(25.4734 0 -8.53302)
(23.0843 -7.35321e-20 -7.99899)
(20.7487 -7.43573e-20 -7.39911)
(18.5119 0 -6.76291)
(16.4043 0 -6.11455)
(14.4434 7.57628e-20 -5.47257)
(12.6366 0 -4.85041)
(10.9841 0 -4.25691)
(9.48146 -1.47388e-19 -3.69841)
(8.12095 0 -3.17736)
(6.89384 0 -2.69602)
(5.79027 -1.40809e-19 -2.25335)
(4.80096 0 -1.84977)
(3.91627 0 -1.48264)
(3.12773 0 -1.15157)
(2.42679 5.12386e-19 -0.853421)
(1.80621 0 -0.587404)
(1.25862 -4.01729e-22 -0.350482)
(0.77805 -3.59157e-22 -0.141502)
(0.358246 2.28325e-19 0.0423911)
(-0.00604033 -2.21182e-19 0.202276)
(-0.319866 4.27864e-19 0.341105)
(-0.587973 2.06984e-19 0.460043)
(-0.814983 0 0.560773)
(-1.00435 0 0.642847)
(-1.15872 3.72194e-19 0.704987)
(-1.27877 -3.58923e-19 0.744284)
(-1.35972 0 0.758006)
(-1.40314 0 0.733377)
(-1.4005 -2.58334e-22 0.682098)
(-1.3508 -3.0939e-19 0.606541)
(-1.25724 -2.97459e-19 0.516278)
(-1.13309 -5.70827e-19 0.430422)
(-1.00402 0 0.380113)
(-0.915515 4.05521e-22 0.407945)
(-0.939701 0 0.555834)
(-1.15794 0 0.895008)
(-1.6656 4.3644e-19 1.45674)
(-2.51618 -4.06336e-19 2.23239)
(-3.67462 0 3.11374)
(-4.9655 3.48999e-19 3.89131)
(-6.09897 -1.07765e-21 4.28838)
(-6.73459 0 4.09542)
(-6.58297 0 3.29745)
(-5.53562 -1.24602e-18 2.12004)
(-3.88393 0 1.076)
(-2.43219 0 0.682236)
(-2.0338 1.21321e-18 1.22474)
(-3.19716 0 2.79305)
(-5.73176 0 4.87636)
(-8.47093 -1.9479e-18 6.47301)
(-10.2556 9.12373e-19 6.90301)
(-10.6306 -8.97793e-19 6.23635)
(-9.55913 0 4.66445)
(-7.18582 1.00327e-18 2.62051)
(-4.06854 0 0.703692)
(-1.06438 -1.06881e-18 -0.694825)
(1.19979 -1.05228e-18 -1.51538)
(2.53397 0 -1.86863)
(3.07254 0 -1.87937)
(3.03123 1.82362e-18 -1.66381)
(2.64226 1.71739e-18 -1.3392)
(2.13326 0 -1.03046)
(1.70061 0 -0.832479)
(1.45223 -2.88363e-18 -0.767084)
(1.40225 1.37011e-18 -0.798896)
(1.47578 -2.60721e-18 -0.874316)
(1.5851 0 -0.937785)
(1.67229 0 -0.972483)
(1.72296 0 -0.985435)
(1.75457 0 -0.995979)
(1.79816 0 -1.02513)
(1.88139 -5.5817e-22 -1.08692)
(2.02208 0 -1.18531)
(2.22567 0 -1.32014)
(2.48657 -1.35631e-21 -1.4851)
(2.79337 0 -1.67242)
(3.13045 -2.98126e-18 -1.87192)
(3.48239 0 -2.07589)
(3.8369 -2.7054e-18 -2.27719)
(4.18242 8.99837e-22 -2.47143)
(4.51658 0 -2.65766)
(4.83671 0 -2.83701)
(5.15189 0 -3.01422)
(5.46261 0 -3.19072)
(5.7772 -1.01921e-21 -3.36943)
(6.09147 3.72732e-18 -3.54901)
(6.41184 -3.52348e-18 -3.73176)