/*--------------------------------*- C++ -*----------------------------------*\
| =========                 |                                                 |
| \\      /  F ield         | OpenFOAM: The Open Source CFD Toolbox           |
|  \\    /   O peration     | Version:  2412                                  |
|   \\  /    A nd           | Website:  www.openfoam.com                      |
|    \\/     M anipulation  |                                                 |
\*---------------------------------------------------------------------------*/
FoamFile
{
    version     2.0;
    format      ascii;
    arch        "LSB;label=32;scalar=64";
    class       volVectorField;
    location    "0.45";
    object      ddtCorrDdt0(U);
}
// * * * * * * * * * * * * * * * * * * * * * * * * * * * * * * * * * * * * * //

dimensions      [0 1 -2 0 0 0 0];

internalField   nonuniform List<vector> 
12600
(
(0.0766874 -2.42827e-19 0.0468622)
(0.0430984 -8.43498e-19 0.0135498)
(0.00922849 -1.01426e-18 0.00174207)
(0.00154895 0 -0.00070679)
(0.00305086 -9.39045e-19 -0.000571625)
(0.0047664 -8.32555e-19 2.91994e-05)
(0.00460941 0 0.000194455)
(0.00426311 0 6.27538e-05)
(0.00479547 1.8747e-18 -0.000310861)
(0.00546066 0 -0.000743212)
(0.00597055 -3.27042e-19 -0.000970241)
(0.0068403 -1.74625e-19 -0.000925519)
(0.00793252 1.09047e-19 -0.000754625)
(0.00826351 0 -0.000578575)
(0.00697568 1.09089e-19 -0.000312934)
(0.00387542 0 0.000204533)
(-0.00103895 -7.01799e-19 0.00102668)
(-0.00706702 0 0.00189796)
(-0.0129989 4.41502e-19 0.00257127)
(-0.0173626 5.57255e-19 0.0029217)
(-0.0191868 -6.44257e-19 0.00298323)
(-0.0186441 -1.55258e-20 0.00288131)
(-0.0165517 0 0.00266281)
(-0.0139203 1.76499e-18 0.00236426)
(-0.0115205 0 0.00202104)
(-0.0096999 0 0.00167859)
(-0.0083 1.66384e-18 0.00132734)
(-0.00709116 0 0.000938125)
(-0.00556901 -1.82185e-20 0.000489533)
(-0.00340333 -1.0501e-18 1.46411e-05)
(-0.000707723 -7.53478e-19 -0.000403763)
(0.00215879 -3.9865e-19 -0.00068416)
(0.00452443 9.93969e-20 -0.000766502)
(0.00572789 -1.63826e-19 -0.000638643)
(0.00535107 -4.4167e-19 -0.000310307)
(0.00345811 5.46995e-19 0.000143577)
(0.000338755 0 0.000649638)
(-0.0034154 -3.23339e-19 0.00112723)
(-0.00699326 0 0.00145731)
(-0.00984856 -2.46857e-19 0.00161834)
(-0.01154 0 0.00162632)
(-0.011842 2.03351e-20 0.00150054)
(-0.0108143 0 0.00130944)
(-0.00870557 1.79305e-20 0.00109359)
(-0.00569244 -2.32418e-18 0.000779257)
(-0.00228352 2.21534e-18 0.000356876)
(0.000924416 -1.99147e-18 -0.000130908)
(0.00351203 0 -0.00065823)
(0.00485937 0 -0.00105404)
(0.00479985 -1.08813e-18 -0.00120976)
(0.00328904 -1.34429e-18 -0.00102515)
(0.000920617 -3.91587e-19 -0.000619981)
(-0.00197873 9.10232e-21 -2.50645e-05)
(-0.00443545 7.77848e-19 0.000583064)
(-0.00609932 0 0.00110545)
(-0.0065908 -4.41904e-19 0.0014146)
(-0.00612433 -3.84531e-20 0.00153164)
(-0.00476714 5.12135e-19 0.0013605)
(-0.00328229 0 0.000983256)
(-0.002003 0 0.000524594)
(-0.0011645 0 0.000132099)
(-0.0011936 -3.29138e-18 -8.35267e-05)
(-0.00148187 0 -0.000145902)
(-0.00248056 0 6.55545e-05)
(-0.00299504 2.17459e-18 0.000237061)
(-0.0042234 0 0.00054983)
(-0.00445221 0 0.000774924)
(-0.00589067 0 0.00121363)
(-0.00624399 -2.56511e-18 0.00143024)
(-0.00868888 3.1313e-18 0.00186475)
(-0.00999799 3.94717e-18 0.00206535)
(-0.0137733 -9.27967e-21 0.00239729)
(-0.0167274 -3.72389e-18 0.00269706)
(-0.0213425 0 0.00334298)
(-0.0257486 3.07438e-18 0.00414288)
(-0.0291588 0 0.00493682)
(-0.0331881 0 0.00592577)
(-0.0323718 0 0.0060816)
(-0.035206 -1.61743e-20 0.00661535)
(-0.0313565 3.62357e-18 0.00616083)
(-0.0351801 3.467e-18 0.00664959)
(-0.0353496 2.413e-19 0.00678529)
(-0.0420323 1.35529e-18 0.00816032)
(-0.052792 0 0.00999288)
(-0.0563261 0 0.0108573)
(-0.0682015 -4.99231e-18 0.0130652)
(-0.0596266 1.17347e-17 0.0118324)
(-0.070786 -7.14198e-18 0.013792)
(-0.066968 -5.80874e-18 0.0131149)
(-0.0747156 0 0.014862)
(-0.0900701 2.45491e-17 0.0179266)
(-0.0922957 -1.4912e-17 0.0177144)
(-0.111301 1.14742e-17 0.0220152)
(-0.0965111 -2.76998e-17 0.0188458)
(-0.116506 0 0.0228936)
(-0.113031 0 0.0210861)
(-0.0633204 0 0.0121947)
(-0.0726481 0 0.0134207)
(-0.133221 0 0.0263219)
(-0.231616 0 0.0438466)
(-0.132207 5.97793e-18 0.0259147)
(0.191116 5.69514e-17 -0.0358267)
(0.650589 2.24634e-17 -0.123374)
(1.22307 0 -0.230045)
(1.06829 0 -0.197781)
(-0.109067 0 0.0243004)
(-1.95117 -2.82363e-17 0.376604)
(-2.99434 1.09619e-17 0.573877)
(-2.72391 2.05124e-17 0.510639)
(-1.71411 0 0.318472)
(-0.501941 5.638e-17 0.0880257)
(-0.08984 0 0.0163565)
(0.0831704 1.15256e-16 -0.0123764)
(-0.565402 1.10519e-16 0.113883)
(-0.6617 1.42354e-16 0.131437)
(-1.23029 -4.47985e-17 0.239583)
(-1.30061 1.43294e-17 0.251595)
(-1.28665 -2.56203e-20 0.249835)
(-1.73079 1.05446e-16 0.336137)
(-1.81592 0 0.350932)
(0.124255 2.45136e-19 0.0751312)
(0.102453 0 0.0400119)
(0.0710406 1.02654e-18 0.0152508)
(0.0461528 0 0.00365531)
(0.032661 9.51525e-19 0.00165804)
(0.0244764 1.7772e-18 0.00242605)
(0.0180615 7.83608e-19 0.00181768)
(0.0148318 0 0.000646194)
(0.0143203 -3.56297e-20 -0.000255016)
(0.0140816 5.82453e-19 -0.000685683)
(0.0131488 -3.38506e-19 -0.000643604)
(0.0119827 -1.88436e-19 -0.00041761)
(0.0105526 1.1523e-19 -0.000305361)
(0.00823763 -8.42182e-20 -0.000335109)
(0.00423009 -2.1399e-19 -0.000117076)
(-0.00185534 0 0.000776723)
(-0.0104635 2.59048e-20 0.00244999)
(-0.0203346 -3.48235e-19 0.00423824)
(-0.0295092 -4.47925e-19 0.00559292)
(-0.0357831 0 0.0063703)
(-0.0380944 0 0.0066636)
(-0.0371426 -7.75044e-19 0.00670279)
(-0.0339134 0 0.00645558)
(-0.0296121 -8.94005e-19 0.00589001)
(-0.0250056 1.86134e-18 0.00513545)
(-0.0206568 0 0.00432703)
(-0.0166668 -1.71505e-18 0.00344679)
(-0.013138 0 0.00252241)
(-0.00962327 1.36683e-18 0.0015233)
(-0.00607924 2.15021e-18 0.000529166)
(-0.00275222 1.55288e-18 -0.000240477)
(6.06178e-05 4.03506e-19 -0.000694504)
(0.0016045 -1.0058e-19 -0.000765421)
(0.00164657 3.06801e-19 -0.000443177)
(-2.67688e-05 8.81035e-19 0.000207453)
(-0.00302668 0 0.00100886)
(-0.00679943 0 0.00183552)
(-0.0107179 3.84345e-21 0.00255924)
(-0.0139712 0 0.00294756)
(-0.0161851 2.49212e-19 0.00304798)
(-0.017098 0 0.00291939)
(-0.0167894 1.69295e-18 0.00262622)
(-0.0152699 0 0.0022971)
(-0.0128464 2.40632e-18 0.00200449)
(-0.00938201 0 0.00155268)
(-0.00523063 -2.2307e-18 0.000898513)
(-0.000915918 0 9.74788e-05)
(0.00319753 0 -0.000884039)
(0.00600124 1.43681e-18 -0.00168237)
(0.00723666 0 -0.00214051)
(0.00616936 0 -0.00197302)
(0.00355486 0 -0.00141218)
(-0.000599622 -1.8898e-19 -0.000384005)
(-0.00459355 -1.57051e-18 0.000711199)
(-0.00818718 0 0.00177403)
(-0.0100442 0 0.0024655)
(-0.0105735 2.57029e-20 0.00285551)
(-0.00916876 -5.12111e-19 0.00262932)
(-0.00718012 0 0.00204078)
(-0.004798 0 0.00121779)
(-0.00299053 0 0.000481815)
(-0.00263581 0 0.000117394)
(-0.00298325 -2.75817e-18 2.42416e-05)
(-0.00551207 1.74499e-18 0.000592261)
(-0.00744607 -2.1911e-18 0.00100057)
(-0.0118039 0 0.00195337)
(-0.0137267 0 0.00243185)
(-0.0189624 0 0.00370015)
(-0.0203531 9.25303e-21 0.00408161)
(-0.0266606 -3.10135e-18 0.00546212)
(-0.0283509 -3.90586e-18 0.00569447)
(-0.0357104 7.76111e-18 0.00683933)
(-0.0396716 4.28974e-21 0.00726504)
(-0.0482668 -2.4702e-18 0.0088553)
(-0.0572637 -3.03064e-18 0.0106062)
(-0.0652184 0 0.0124869)
(-0.0775772 0 0.0152567)
(-0.0784952 0 0.0156573)
(-0.0911843 6.19401e-18 0.0182085)
(-0.0862434 0 0.0171049)
(-0.102699 0 0.0202611)
(-0.108783 -2.36161e-19 0.0210387)
(-0.13354 -1.32504e-18 0.0263945)
(-0.167001 0 0.0321267)
(-0.180756 0 0.0349754)
(-0.214738 0 0.0413016)
(-0.193822 -1.14491e-17 0.0373261)
(-0.227419 -3.80696e-20 0.0441666)
(-0.217637 -5.71513e-18 0.0417673)
(-0.244114 7.94088e-18 0.0480374)
(-0.286623 -2.38543e-17 0.0560981)
(-0.298051 -1.4434e-17 0.0573072)
(-0.351699 -2.21932e-17 0.0684908)
(-0.313682 0 0.0599266)
(-0.373744 0 0.0725008)
(-0.349814 0 0.0649845)
(-0.210658 0 0.0393745)
(-0.242865 8.91884e-19 0.0469698)
(-0.422468 0 0.0848579)
(-0.671604 0 0.129671)
(-0.337779 5.76014e-18 0.0585929)
(0.614369 -2.72879e-17 -0.131234)
(1.88722 -4.30278e-17 -0.380564)
(3.37947 5.21981e-17 -0.658237)
(2.67572 0 -0.492474)
(-0.940839 0 0.224862)
(-6.0767 0 1.23184)
(-8.78724 -5.20376e-18 1.70542)
(-7.80819 -1.95217e-17 1.47975)
(-4.81148 0 0.877441)
(-1.44758 -1.07287e-16 0.242629)
(-0.395437 7.75619e-17 0.0652355)
(-0.0159905 -2.18653e-16 0.00956725)
(-1.94692 0 0.391646)
(-2.20243 0 0.432677)
(-3.91304 -4.21785e-17 0.765221)
(-4.01992 0 0.775147)
(-4.18534 1.14682e-16 0.809103)
(-5.39914 -9.97623e-17 1.05074)
(-5.51518 0 1.06163)
(0.131453 0 0.0741859)
(0.130063 0 0.0554849)
(0.119313 8.46796e-19 0.0313945)
(0.100048 0 0.0160569)
(0.0796207 0 0.012282)
(0.0607523 -8.42185e-19 0.0108162)
(0.0451005 -7.42084e-19 0.00655688)
(0.0347018 0 0.00250794)
(0.0288489 -3.49537e-20 0.00103316)
(0.0245327 -5.51795e-19 0.00171642)
(0.0201943 6.45189e-19 0.00299823)
(0.0157956 1.78542e-19 0.00345007)
(0.0111271 1.00916e-20 0.00282548)
(0.00611813 7.98031e-20 0.00168918)
(0.00032593 9.788e-20 0.000961505)
(-0.00672591 -1.04529e-19 0.0013176)
(-0.0161603 3.06208e-19 0.00282108)
(-0.0268579 3.30002e-19 0.00449203)
(-0.0367642 0 0.00569808)
(-0.0434862 0 0.00650212)
(-0.0459039 -5.61427e-19 0.00709738)
(-0.0450507 -6.89024e-19 0.00761217)
(-0.0418787 0 0.00774626)
(-0.0374981 0 0.00733372)
(-0.0325394 -1.76373e-18 0.00657989)
(-0.0276799 0 0.00573536)
(-0.0230956 3.25135e-18 0.00480724)
(-0.0191186 -1.53255e-18 0.00386136)
(-0.015235 0 0.00286874)
(-0.0114843 -1.0296e-18 0.00192606)
(-0.00815237 -7.48423e-19 0.00125281)
(-0.00537173 0 0.000852713)
(-0.00398416 1.13486e-19 0.000761852)
(-0.00397148 -1.33626e-19 0.000962829)
(-0.00557089 6.99208e-21 0.00139763)
(-0.00831383 0 0.00189719)
(-0.0116177 0 0.00234816)
(-0.0149425 3.05704e-19 0.00269044)
(-0.0174613 0 0.00269701)
(-0.0189236 0 0.00251491)
(-0.0191011 0 0.00222055)
(-0.0182395 0 0.00193043)
(-0.0162985 0 0.00171359)
(-0.0136923 0 0.00164132)
(-0.010077 0 0.0014617)
(-0.005796 2.1334e-18 0.00109874)
(-0.00129082 -1.92495e-18 0.000569763)
(0.00324271 0 -0.000292381)
(0.00644792 -1.35935e-18 -0.00108796)
(0.00828523 0 -0.00179321)
(0.00759447 0 -0.00196384)
(0.00541037 3.57513e-19 -0.00183784)
(0.00131766 0 -0.00110407)
(-0.00253551 7.47639e-19 -0.000244872)
(-0.0064309 -8.38284e-19 0.000845907)
(-0.00841427 0 0.00162934)
(-0.00942269 -2.42949e-20 0.00227555)
(-0.00818941 0 0.00223909)
(-0.00665249 0 0.00194305)
(-0.00445403 0 0.00129136)
(-0.00315205 3.20182e-18 0.000689727)
(-0.00343857 3.11801e-18 0.000457936)
(-0.00451839 -2.16602e-20 0.000427801)
(-0.00842362 -3.32097e-18 0.0012569)
(-0.01129 -2.56108e-20 0.00178412)
(-0.01773 0 0.00335188)
(-0.0205169 0 0.00393197)
(-0.0287405 -7.10942e-19 0.00599582)
(-0.030988 1.36989e-20 0.00632918)
(-0.0413586 0 0.00868637)
(-0.0440813 0 0.00866491)
(-0.0561654 -3.6643e-18 0.0108292)
(-0.0618686 1.37661e-20 0.0110821)
(-0.0757875 1.28517e-20 0.0135707)
(-0.0890883 0 0.0158129)
(-0.102343 0 0.0185419)
(-0.121692 -5.27878e-18 0.0228639)
(-0.125181 5.55369e-18 0.0236303)
(-0.146972 0 0.0289318)
(-0.142756 0 0.0276919)
(-0.173058 0 0.0350424)
(-0.186627 0 0.0369127)
(-0.232236 0 0.0474471)
(-0.287289 0 0.0568829)
(-0.313866 0 0.0620198)
(-0.368076 0 0.0716689)
(-0.338987 1.08003e-17 0.0652698)
(-0.396835 3.30731e-18 0.0778426)
(-0.382548 5.37149e-18 0.0737531)
(-0.433721 -7.46187e-18 0.0860094)
(-0.498994 2.24656e-17 0.097979)
(-0.525477 1.35578e-17 0.102377)
(-0.607137 1.0421e-17 0.118304)
(-0.552528 0 0.105675)
(-0.651585 0 0.127192)
(-0.601941 0 0.110338)
(-0.38793 0 0.0716266)
(-0.456665 -8.36732e-19 0.0909532)
(-0.748878 0 0.153467)
(-1.10981 0 0.211471)
(-0.49742 -5.40088e-18 0.0686986)
(1.05298 0 -0.251637)
(3.03964 2.01797e-17 -0.640309)
(5.21269 -4.89156e-17 -1.01416)
(3.74467 0 -0.617019)
(-2.33933 0 0.628597)
(-10.4277 0 2.21139)
(-14.401 -4.78354e-18 2.79334)
(-12.6178 0 2.32762)
(-7.63077 -3.89866e-17 1.3149)
(-2.39832 -3.84318e-20 0.356732)
(-0.852254 -7.25898e-17 0.137447)
(-0.374303 2.0462e-16 0.103181)
(-3.59756 0 0.74809)
(-3.9405 -1.26421e-16 0.789751)
(-6.86141 3.94529e-17 1.35889)
(-6.8533 1.28124e-17 1.32066)
(-7.43883 0 1.45145)
(-9.23572 9.32812e-17 1.80793)
(-9.21603 0 1.76405)
(0.127819 0 0.0712374)
(0.134778 0 0.0605502)
(0.139989 -8.00503e-19 0.0412318)
(0.133279 0 0.0301864)
(0.117058 8.19112e-19 0.0283068)
(0.0976124 -1.56079e-18 0.0244292)
(0.0792287 0 0.0153844)
(0.0638974 1.02758e-18 0.00714895)
(0.0522692 -7.77496e-19 0.0039542)
(0.0431992 -4.75436e-19 0.00513846)
(0.0353651 -3.06828e-19 0.00743284)
(0.0278539 1.79848e-19 0.00794008)
(0.0197237 -1.12803e-19 0.0063307)
(0.0113012 1.55104e-19 0.00375818)
(0.00281296 0 0.00175114)
(-0.00586655 1.91869e-19 0.00137818)
(-0.0163326 0 0.00268292)
(-0.0279663 0 0.00426386)
(-0.0388405 0 0.00530689)
(-0.0464806 -4.47719e-19 0.00606224)
(-0.0494631 2.62817e-21 0.00688109)
(-0.0490128 8.84117e-21 0.00779747)
(-0.0462049 -7.39615e-19 0.00824909)
(-0.0421301 0 0.00799066)
(-0.0373621 0 0.0073121)
(-0.0326445 0 0.00659603)
(-0.0280796 -3.06593e-18 0.00587247)
(-0.0241527 1.56513e-20 0.00512418)
(-0.0202482 0 0.00427566)
(-0.0163955 0 0.00343327)
(-0.0129808 0 0.002745)
(-0.00999902 0 0.00219397)
(-0.00842597 -2.05563e-19 0.00186552)
(-0.00815551 0 0.00173454)
(-0.00950144 -3.95593e-19 0.00182959)
(-0.0119683 0 0.00203538)
(-0.0149536 0 0.00221737)
(-0.0179523 -3.04419e-19 0.00236542)
(-0.0200339 0 0.00223344)
(-0.0210305 0 0.00199337)
(-0.0206622 -5.12627e-19 0.0016888)
(-0.0192826 1.51684e-18 0.00148345)
(-0.0168395 0 0.00135925)
(-0.0138426 2.17657e-18 0.00139071)
(-0.0098354 0 0.00132212)
(-0.00520815 -4.05717e-18 0.00106617)
(-0.000374907 -3.30967e-20 0.000634585)
(0.00460312 0 -0.000216386)
(0.00814195 0 -0.00103727)
(0.0104726 9.96686e-19 -0.00194192)
(0.0100836 1.22027e-18 -0.00233514)
(0.0083492 -6.914e-19 -0.00250817)
(0.00444426 0 -0.00196196)
(0.000966054 7.01883e-19 -0.00127686)
(-0.00295243 7.91308e-19 -0.000132213)
(-0.00474302 4.20952e-19 0.000687564)
(-0.0060018 3.26649e-20 0.00151878)
(-0.00473854 0 0.00159143)
(-0.00363278 0 0.00150523)
(-0.00159593 -2.67486e-18 0.000952879)
(-0.000927434 -6.05609e-18 0.000492543)
(-0.00180522 -2.94081e-18 0.000360927)
(-0.00370056 -2.45381e-20 0.0003965)
(-0.00876898 1.5777e-18 0.00146089)
(-0.0125272 1.00877e-18 0.00210983)
(-0.0208087 0 0.00425468)
(-0.0244947 0 0.00500258)
(-0.0356668 6.69977e-19 0.00791756)
(-0.039049 4.46969e-18 0.00830834)
(-0.0538245 0 0.0116835)
(-0.0580314 3.44644e-18 0.0115524)
(-0.0756963 3.43366e-18 0.0149109)
(-0.0836502 3.2487e-18 0.0152136)
(-0.104234 4.35127e-18 0.0190891)
(-0.122022 0 0.0220534)
(-0.14216 0 0.0260817)
(-0.168314 4.96745e-18 0.03193)
(-0.176446 -1.04536e-17 0.0334241)
(-0.207613 -5.53709e-18 0.0413432)
(-0.206746 0 0.0404625)
(-0.252194 0 0.0521801)
(-0.274887 0 0.0554492)
(-0.343113 0 0.0716623)
(-0.418163 0 0.0841765)
(-0.459426 0 0.0918848)
(-0.531825 4.26146e-18 0.104091)
(-0.499076 5.17823e-21 0.0962301)
(-0.582466 -3.15923e-18 0.114731)
(-0.566019 0 0.109409)
(-0.646883 -7.05341e-18 0.128952)
(-0.730948 -1.0553e-17 0.144453)
(-0.778138 0 0.152348)
(-0.880319 9.78358e-18 0.172058)
(-0.816934 2.36127e-17 0.156235)
(-0.951553 0 0.186598)
(-0.87454 0 0.157308)
(-0.60178 0 0.110286)
(-0.71969 -8.56928e-19 0.145747)
(-1.11453 0 0.233377)
(-1.54782 0 0.290653)
(-0.626923 -4.98816e-18 0.0638085)
(1.46749 2.39459e-17 -0.382075)
(4.04606 0 -0.889572)
(6.64137 0 -1.29664)
(4.22063 0 -0.59998)
(-4.2974 0 1.16236)
(-14.9435 0 3.24835)
(-19.7569 3.50747e-20 3.84384)
(-17.1093 0 3.08448)
(-10.1637 3.64824e-17 1.67031)
(-3.37498 4.70839e-17 0.449914)
(-1.475 0 0.233444)
(-0.993186 3.96959e-20 0.251745)
(-5.50075 0 1.16484)
(-5.84905 -7.81472e-20 1.18857)
(-10.0504 0 2.00801)
(-9.75889 -1.19791e-17 1.88282)
(-11.0022 0 2.15709)
(-13.1399 8.72762e-17 2.57901)
(-12.8247 0 2.44793)
(0.122915 0 0.0720128)
(0.131625 0 0.0628551)
(0.143063 0 0.0495676)
(0.142896 0 0.0437446)
(0.133646 -7.73181e-19 0.0433783)
(0.121778 4.49484e-20 0.0383017)
(0.108664 0 0.0265659)
(0.0938352 -9.69897e-19 0.0149796)
(0.079355 0 0.00933318)
(0.0673026 8.63728e-19 0.00975108)
(0.0575258 0 0.0121903)
(0.0482167 -1.69789e-19 0.0125474)
(0.037251 0 0.0100501)
(0.025089 -1.46442e-19 0.00598736)
(0.0129181 7.29655e-20 0.0024117)
(0.00152359 -1.67534e-19 0.00107912)
(-0.0106623 2.15364e-19 0.00220507)
(-0.0236975 2.58617e-19 0.00388694)
(-0.0360251 0 0.00488209)
(-0.0452666 4.2277e-19 0.00556071)
(-0.0495247 4.9896e-19 0.00647359)
(-0.0499244 1.20737e-18 0.00766206)
(-0.0477565 6.98395e-19 0.00836279)
(-0.0442165 0 0.0082058)
(-0.0398921 0 0.00760644)
(-0.0355759 0 0.00706848)
(-0.0312168 1.44255e-18 0.00660444)
(-0.0274168 1.35372e-18 0.00612601)
(-0.0235705 0 0.00547018)
(-0.0196688 0 0.00472034)
(-0.0162607 -6.27402e-19 0.00398284)
(-0.0132302 0 0.00321956)
(-0.0116138 8.32828e-21 0.00256975)
(-0.0112664 -1.50714e-19 0.00205913)
(-0.0125258 3.77178e-19 0.00180035)
(-0.014874 0 0.00173131)
(-0.017682 0 0.00171927)
(-0.0204746 2.87317e-19 0.00178118)
(-0.0222068 0 0.00160574)
(-0.0228049 0 0.00139913)
(-0.0219292 4.83747e-19 0.0011356)
(-0.0200087 -1.4313e-18 0.00100653)
(-0.0170243 0 0.000939689)
(-0.0135295 -2.05355e-18 0.00100082)
(-0.00902642 0 0.00095405)
(-0.00392208 1.92593e-18 0.000718705)
(0.00136315 1.74657e-18 0.000327246)
(0.00688772 0 -0.000531299)
(0.0108467 1.26602e-18 -0.00133579)
(0.0137336 -9.39931e-19 -0.00235881)
(0.0136927 -2.3205e-18 -0.00287327)
(0.0124568 3.3361e-19 -0.00329633)
(0.00877318 1.52773e-19 -0.00293988)
(0.00572631 -1.21933e-20 -0.00251177)
(0.00183706 0 -0.0014272)
(0.000368883 -3.96764e-19 -0.000702825)
(-0.00102931 -3.07848e-20 0.000238475)
(0.000474918 -4.2806e-19 0.000378875)
(0.0013033 1.02491e-18 0.000536607)
(0.00342866 2.5201e-18 0.000143844)
(0.00359988 2.85988e-18 -6.05476e-05)
(0.00241206 -2.81117e-18 -1.30088e-05)
(-0.000235649 2.35595e-18 0.000166611)
(-0.00623298 0 0.00146778)
(-0.0109366 0 0.00218813)
(-0.0209963 3.60888e-19 0.00480764)
(-0.0258145 0 0.00563456)
(-0.0400503 0 0.00938085)
(-0.0449222 -2.09883e-18 0.00984433)
(-0.0643955 0 0.0143996)
(-0.0704701 -3.24258e-18 0.014276)
(-0.0944165 -6.44535e-18 0.0191359)
(-0.105073 0 0.0196333)
(-0.133606 -2.04171e-18 0.0253125)
(-0.156205 0 0.0290407)
(-0.185038 0 0.0347087)
(-0.218206 -4.64967e-18 0.0419666)
(-0.233606 4.91404e-18 0.044482)
(-0.274827 4.37505e-21 0.0551223)
(-0.280607 0 0.0550952)
(-0.342565 0 0.0718402)
(-0.376604 0 0.0769327)
(-0.468785 1.14795e-18 0.0998082)
(-0.562598 -2.63434e-18 0.114794)
(-0.620276 0 0.125502)
(-0.709274 -7.9904e-18 0.139562)
(-0.677788 -4.77334e-18 0.131209)
(-0.787412 5.94247e-18 0.156099)
(-0.771859 4.7857e-18 0.149793)
(-0.886086 1.32484e-17 0.178196)
(-0.985748 0 0.196049)
(-1.05868 0 0.208271)
(-1.1746 -9.1737e-18 0.2302)
(-1.11157 -2.21373e-17 0.212649)
(-1.27677 1.10845e-17 0.250816)
(-1.17454 0 0.207827)
(-0.85966 0 0.157354)
(-1.03731 8.02889e-19 0.214367)
(-1.52149 3.8328e-18 0.324648)
(-1.99003 0 0.365759)
(-0.74962 4.67153e-18 0.0389251)
(1.81115 -2.24227e-17 -0.521658)
(4.84347 0 -1.11565)
(7.59829 0 -1.47749)
(4.07897 0 -0.402899)
(-6.75756 0 1.94032)
(-19.5429 0 4.35335)
(-24.7861 4.15654e-18 4.82003)
(-21.2576 0 3.73327)
(-12.4233 0 1.90956)
(-4.39769 0 0.525339)
(-2.26848 6.35998e-17 0.360487)
(-1.85583 -8.95344e-17 0.467314)
(-7.62184 0 1.64226)
(-7.88068 1.10601e-16 1.62632)
(-13.4371 0 2.70795)
(-12.678 -1.14113e-17 2.45006)
(-14.8028 0 2.92102)
(-17.0036 -8.15628e-17 3.34199)
(-16.2446 0 3.08784)
(0.119387 5.99599e-19 0.0743955)
(0.125591 6.8339e-19 0.066321)
(0.135196 -6.87895e-19 0.0585186)
(0.137646 -6.87564e-19 0.0551595)
(0.135868 0 0.054073)
(0.132817 6.39568e-19 0.0485871)
(0.12676 0 0.0367337)
(0.115687 -7.43313e-19 0.0242576)
(0.102091 -5.30035e-19 0.0171646)
(0.0901016 -7.46507e-19 0.0161739)
(0.0808501 2.23305e-19 0.0177078)
(0.0720822 -1.28645e-19 0.0176277)
(0.0603397 0 0.0145764)
(0.0456547 0 0.00920932)
(0.030036 -6.87905e-20 0.00375192)
(0.015493 1.19964e-20 0.000961977)
(0.00114973 -2.54768e-20 0.00161534)
(-0.0134987 -1.76821e-20 0.00342272)
(-0.0274155 0 0.0044756)
(-0.0386393 0 0.0050545)
(-0.044857 0 0.00591095)
(-0.0467027 -1.12187e-18 0.00719494)
(-0.0455775 -6.38714e-19 0.00806219)
(-0.0429262 0 0.00798961)
(-0.0394384 0 0.0074719)
(-0.0359147 -1.39365e-18 0.0071215)
(-0.032091 0 0.00691882)
(-0.0286089 0 0.0067197)
(-0.0250118 0 0.00628288)
(-0.0212316 0 0.00564117)
(-0.0180076 2.02513e-20 0.00486922)
(-0.0151638 0 0.0039078)
(-0.0137094 5.46373e-21 0.00293963)
(-0.0134866 1.4207e-19 0.00206969)
(-0.0148006 -1.06627e-20 0.00148463)
(-0.0171298 0 0.00117105)
(-0.0198235 0 0.00100926)
(-0.0224582 0 0.00103556)
(-0.0238894 0 0.000849941)
(-0.02413 0 0.000705545)
(-0.0227968 0 0.000498688)
(-0.0203489 0 0.000437821)
(-0.0168331 1.76864e-18 0.000419263)
(-0.0128021 1.95533e-18 0.000484542)
(-0.00778652 0 0.000425823)
(-0.00216126 1.83036e-18 0.000162407)
(0.00360688 0 -0.000230255)
(0.00971198 0 -0.00113635)
(0.014133 -2.39264e-18 -0.00193543)
(0.0176318 0 -0.00306158)
(0.0179955 1.10168e-18 -0.00365322)
(0.0173514 0 -0.00429712)
(0.0139693 -2.80118e-19 -0.00409955)
(0.0114839 -1.53125e-20 -0.00393739)
(0.00773086 0 -0.0029337)
(0.00676713 0 -0.00235287)
(0.00535092 0 -0.00132995)
(0.00730049 8.05712e-19 -0.00116863)
(0.00796733 -1.92986e-18 -0.00077806)
(0.010392 -2.40557e-18 -0.0010267)
(0.0101618 -2.72165e-18 -0.000954112)
(0.00890903 5.30697e-18 -0.000717525)
(0.00556815 2.25664e-18 -0.000360535)
(-0.00112835 0 0.00118094)
(-0.00679498 0 0.00196891)
(-0.0185342 2.05607e-20 0.00504389)
(-0.0246523 0 0.00593937)
(-0.0420277 0 0.0105576)
(-0.0486868 -1.96456e-18 0.0111404)
(-0.0731582 0 0.0170227)
(-0.0814984 0 0.0170057)
(-0.112476 6.02788e-18 0.0236224)
(-0.126351 -2.81396e-18 0.0244483)
(-0.164155 0 0.0323093)
(-0.191968 0 0.0369068)
(-0.231388 0 0.0446278)
(-0.271939 4.36676e-18 0.0533565)
(-0.297433 0 0.0573859)
(-0.349568 9.7535e-18 0.0709701)
(-0.365594 -2.78128e-18 0.0724494)
(-0.445405 0 0.0947369)
(-0.493349 0 0.102134)
(-0.610509 -1.07722e-18 0.132213)
(-0.722299 2.74948e-22 0.14918)
(-0.798101 -2.4825e-18 0.163157)
(-0.902739 3.7427e-18 0.178574)
(-0.877655 -4.47765e-18 0.170778)
(-1.01388 -2.79238e-18 0.20226)
(-1.00276 -4.48704e-18 0.195563)
(-1.15293 1.24263e-20 0.233725)
(-1.2657 0 0.253304)
(-1.36888 1.1218e-17 0.270292)
(-1.49296 0 0.293295)
(-1.44048 0 0.275574)
(-1.63014 -1.03841e-17 0.320582)
(-1.50908 0 0.263485)
(-1.1686 0 0.214442)
(-1.41495 0 0.296597)
(-1.97193 -3.58869e-18 0.425982)
(-2.44324 0 0.438027)
(-0.891541 4.31382e-18 0.00565236)
(2.03525 0 -0.65383)
(5.36926 0 -1.30066)
(8.02232 0 -1.54215)
(3.30494 0 -0.0302347)
(-9.70866 0 2.73122)
(-24.145 -2.01947e-17 5.50571)
(-29.4206 3.81861e-18 5.70823)
(-25.0422 1.52516e-17 4.27258)
(-14.4181 0 2.04907)
(-5.48071 0 0.585511)
(-3.22794 -1.18934e-16 0.514995)
(-2.93347 0 0.74028)
(-9.9103 8.0182e-17 2.17035)
(-9.96796 0 2.09006)
(-16.9574 3.15937e-17 3.44601)
(-15.5293 1.06637e-17 3.00846)
(-18.7417 0 3.72051)
(-20.7174 -7.62447e-17 4.07055)
(-19.3765 0 3.66473)
(0.116221 -5.64659e-19 0.0779382)
(0.118515 -1.25277e-18 0.07119)
(0.124351 6.4796e-19 0.0661269)
(0.128166 4.6028e-20 0.0633033)
(0.131452 -5.60897e-19 0.0613085)
(0.133704 0 0.0555778)
(0.132496 0 0.0445459)
(0.125902 6.99937e-19 0.0333137)
(0.116002 9.38665e-19 0.026478)
(0.10689 3.84984e-20 0.0240972)
(0.100161 -2.10253e-19 0.0238166)
(0.0938013 1.21125e-19 0.0228663)
(0.0837056 -4.78169e-20 0.0196481)
(0.0690447 0 0.013539)
(0.0518354 0 0.00626889)
(0.0348777 5.94729e-20 0.00159159)
(0.0184344 -3.0064e-19 0.00127256)
(0.00223447 -3.99424e-19 0.00300486)
(-0.0129986 0 0.00418276)
(-0.0260685 0 0.00469846)
(-0.034641 0 0.00535732)
(-0.0385325 1.58851e-20 0.00648857)
(-0.038893 1.18476e-18 0.00736841)
(-0.0375011 -6.15013e-19 0.0073694)
(-0.0352855 -1.26821e-18 0.00695152)
(-0.0330097 2.58632e-18 0.0067784)
(-0.0301501 -1.20405e-18 0.00680806)
(-0.0272764 -1.1114e-18 0.00686155)
(-0.0242049 -9.63329e-19 0.00665226)
(-0.0207983 0 0.00614129)
(-0.017969 5.37823e-19 0.00536716)
(-0.0155616 -2.87735e-19 0.00425099)
(-0.0144995 6.97876e-20 0.00300737)
(-0.0146263 -1.38406e-19 0.00182641)
(-0.0161655 -6.33117e-19 0.000958995)
(-0.0186068 0 0.000440642)
(-0.0212835 0 0.000164243)
(-0.0238465 -2.11562e-19 0.000184501)
(-0.0250818 0 8.18754e-06)
(-0.0250491 -2.09237e-19 -6.78675e-05)
(-0.0233622 -4.59103e-19 -0.000213851)
(-0.0204552 0 -0.000211936)
(-0.0164553 -3.32329e-18 -0.000186641)
(-0.0118959 -1.84009e-18 -0.000133451)
(-0.00638761 0 -0.000219729)
(-0.000233074 -1.7223e-18 -0.000547726)
(0.00600503 -1.58018e-18 -0.000971902)
(0.0127038 0 -0.00196349)
(0.0176056 2.2583e-18 -0.00277532)
(0.0217689 -8.62257e-19 -0.00400955)
(0.0225837 -1.04625e-18 -0.0046521)
(0.0226332 0 -0.0054956)
(0.0196265 4.60377e-21 -0.00541619)
(0.0178539 -1.10622e-18 -0.00551066)
(0.0143482 0 -0.0045762)
(0.0140898 0 -0.00416859)
(0.0127758 1.4149e-20 -0.00308352)
(0.0153848 -3.78727e-19 -0.00295344)
(0.0159989 1.8156e-18 -0.00235398)
(0.0189441 2.2613e-18 -0.00249379)
(0.018413 2.55819e-18 -0.00214545)
(0.0173418 -2.50204e-18 -0.00172205)
(0.0133873 -4.25332e-18 -0.00117271)
(0.00621884 0 0.000623205)
(-0.000395341 0 0.00148119)
(-0.0136998 -6.94626e-19 0.00503651)
(-0.0212264 0 0.00599621)
(-0.0417998 0 0.0115667)
(-0.0504753 1.84514e-18 0.0122924)
(-0.0802679 0 0.0196715)
(-0.0912528 -2.80335e-18 0.0198322)
(-0.130057 -1.51924e-20 0.0284987)
(-0.147675 2.64177e-18 0.0297791)
(-0.196099 0 0.0402335)
(-0.229588 0 0.0458287)
(-0.281564 0 0.0560305)
(-0.330036 4.07182e-18 0.0663666)
(-0.368622 0 0.0724133)
(-0.432694 -4.57079e-18 0.0892705)
(-0.462735 5.21359e-18 0.0928857)
(-0.561632 0 0.121312)
(-0.626211 0 0.131436)
(-0.76899 0 0.169223)
(-0.898472 -6.24782e-22 0.187699)
(-0.994079 2.32728e-18 0.205189)
(-1.11418 3.50175e-18 0.221601)
(-1.10062 4.19664e-18 0.215358)
(-1.26361 -2.64047e-18 0.253747)
(-1.26079 0 0.247266)
(-1.44847 -5.8361e-18 0.296028)
(-1.57274 0 0.316788)
(-1.71001 -1.05075e-17 0.338892)
(-1.83826 0 0.362123)
(-1.8069 0 0.345835)
(-2.01452 0 0.396989)
(-1.88535 5.8262e-18 0.324974)
(-1.53492 -3.48591e-18 0.28287)
(-1.8571 0 0.394237)
(-2.46801 3.32958e-18 0.539272)
(-2.91907 1.7932e-18 0.507303)
(-1.08663 -4.03633e-18 -0.034283)
(2.08686 1.95005e-17 -0.769523)
(5.56274 0 -1.42904)
(7.86527 0 -1.47329)
(1.89577 0 0.528951)
(-12.9914 0 3.99934)
(-28.6606 1.88838e-17 6.67627)
(-33.599 -3.86801e-20 6.50173)
(-28.4534 -2.85829e-17 4.67926)
(-16.1629 0 2.08686)
(-6.6274 0 0.635917)
(-4.33371 5.55876e-17 0.697491)
(-4.17928 0 1.06601)
(-12.2974 -7.49303e-17 2.73565)
(-12.0208 0 2.56446)
(-20.523 -5.88147e-17 4.20527)
(-18.2088 0 3.53828)
(-22.6907 0 4.53337)
(-24.1796 7.12246e-17 4.73985)
(-22.1279 0 4.15816)
(0.112643 0 0.0827179)
(0.113081 5.73024e-19 0.0771511)
(0.116671 0 0.072263)
(0.120002 5.66017e-19 0.069215)
(0.124068 9.87653e-19 0.0667041)
(0.127852 0 0.0605234)
(0.129411 -3.222e-19 0.0503679)
(0.12719 0 0.0411987)
(0.122403 -5.79106e-20 0.0355214)
(0.117555 5.14983e-19 0.0321906)
(0.113679 0 0.0299048)
(0.109685 0 0.0277015)
(0.102269 4.49744e-20 0.0244454)
(0.09001 0 0.0183109)
(0.0739258 0 0.00986339)
(0.0564268 0 0.00333597)
(0.0386937 1.25502e-19 0.00162381)
(0.0214003 1.75388e-19 0.00288158)
(0.00555584 2.03472e-19 0.00412863)
(-0.00853189 0 0.00469808)
(-0.019182 0 0.00511309)
(-0.0253967 4.77337e-19 0.00580603)
(-0.0275549 -5.48645e-19 0.00644312)
(-0.0276507 5.78437e-19 0.00648096)
(-0.0270095 1.19278e-18 0.00619903)
(-0.0263502 -2.35217e-18 0.00617378)
(-0.0248673 3.91418e-20 0.00636816)
(-0.0229324 1.04527e-18 0.006617)
(-0.0207041 9.05994e-19 0.00662517)
(-0.017983 0 0.00626071)
(-0.0157882 0 0.00551589)
(-0.0140699 2.70596e-19 0.00429351)
(-0.0136588 0 0.0028264)
(-0.0144033 1.30156e-19 0.00138348)
(-0.0164027 2.90054e-19 0.000272615)
(-0.0191533 -3.46945e-19 -0.000415713)
(-0.0219778 0 -0.000775497)
(-0.0246147 1.98927e-19 -0.000739124)
(-0.0258274 2.44808e-20 -0.000886959)
(-0.0256575 -1.74177e-20 -0.000898676)
(-0.0237753 8.76225e-19 -0.00098262)
(-0.0205379 0 -0.000925218)
(-0.0161454 1.55944e-18 -0.000859725)
(-0.0111139 0 -0.000830514)
(-0.00516971 0 -0.000947854)
(0.00148791 0 -0.00136455)
(0.0081387 2.97708e-21 -0.00183469)
(0.0154227 0 -0.00293828)
(0.0207956 -1.06122e-18 -0.00377292)
(0.0256705 1.62206e-18 -0.00512224)
(0.0269696 9.83178e-19 -0.00579235)
(0.0278163 0 -0.00682248)
(0.0252429 1.16097e-19 -0.00682123)
(0.0243415 1.01179e-18 -0.00716453)
(0.0211778 0 -0.00627748)
(0.0218292 0 -0.00606707)
(0.020722 -1.32908e-20 -0.00492864)
(0.0242112 3.61255e-19 -0.00488035)
(0.0248737 -8.52904e-19 -0.00409516)
(0.0285828 -2.14822e-18 -0.00416848)
(0.0278624 0 -0.00355887)
(0.0272363 0 -0.00296114)
(0.0227769 -4.31356e-21 -0.00222165)
(0.0153705 -1.3026e-18 -0.000152243)
(0.00787035 0 0.000775484)
(-0.00687054 3.34597e-19 0.00487044)
(-0.0158327 0 0.00589474)
(-0.0396536 0 0.0125388)
(-0.0504681 0 0.0134187)
(-0.0859318 0 0.0224969)
(-0.0998539 1.86777e-20 0.022883)
(-0.147323 -1.50957e-20 0.0339175)
(-0.169142 -2.43539e-18 0.0357632)
(-0.229568 0 0.0492325)
(-0.269193 -1.99444e-18 0.0559679)
(-0.335773 0 0.0690951)
(-0.392843 -3.81815e-18 0.0812522)
(-0.447635 4.02256e-18 0.0898484)
(-0.52483 -4.2593e-18 0.110416)
(-0.572715 -2.44159e-18 0.116792)
(-0.6919 0 0.151979)
(-0.775886 -1.73033e-19 0.165205)
(-0.944687 0 0.211095)
(-1.09206 2.17178e-18 0.230682)
(-1.20919 2.19003e-18 0.251908)
(-1.34537 -3.28045e-18 0.269182)
(-1.34823 0 0.265419)
(-1.53821 4.95988e-18 0.311035)
(-1.54767 0 0.30541)
(-1.77375 -5.48761e-18 0.365338)
(-1.90873 0 0.386973)
(-2.08328 -9.84532e-18 0.414282)
(-2.21344 0 0.437451)
(-2.21355 -1.81664e-17 0.423957)
(-2.43322 9.15937e-18 0.480381)
(-2.31013 -5.45215e-18 0.394264)
(-1.9644 3.26178e-18 0.364349)
(-2.36805 0 0.508114)
(-3.01404 -6.20651e-18 0.661853)
(-3.43296 -3.3195e-18 0.577787)
(-1.37165 0 -0.0692402)
(1.91355 -1.82376e-17 -0.85449)
(5.36891 0 -1.48414)
(7.09391 0 -1.25792)
(-0.110482 8.38226e-18 1.27113)
(-16.7416 0 4.54946)
(-33.0289 0 7.84094)
(-37.2745 -3.30122e-18 7.19222)
(-31.4853 2.68241e-17 4.95216)
(-17.67 2.83004e-17 2.02707)
(-7.82963 0 0.676474)
(-5.55197 0 0.900936)
(-5.53058 0 1.43343)