/*--------------------------------*- C++ -*----------------------------------*\
| =========                 |                                                 |
| \\      /  F ield         | OpenFOAM: The Open Source CFD Toolbox           |
|  \\    /   O peration     | Version:  2412                                  |
|   \\  /    A nd           | Website:  www.openfoam.com                      |
|    \\/     M anipulation  |                                                 |
\*---------------------------------------------------------------------------*/
FoamFile
{
    version     2.0;
    format      ascii;
    arch        "LSB;label=32;scalar=64";
    class       volVectorField;
    location    "1.61";
    object      U_0;
}
// * * * * * * * * * * * * * * * * * * * * * * * * * * * * * * * * * * * * * //

dimensions      [0 1 -1 0 0 0 0];

internalField   nonuniform List<vector> 
12600
(
(18.7664 1.26879e-21 2.10102)
(11.6345 1.61353e-20 0.453134)
(7.35821 1.89566e-20 -0.47773)
(5.09272 0 -0.709634)
(3.978 1.71184e-20 -0.682704)
(3.33633 1.59345e-20 -0.607876)
(2.89445 0 -0.540083)
(2.56276 0 -0.484505)
(2.30279 -4.78334e-20 -0.438944)
(2.09236 0 -0.401123)
(1.91775 2.00438e-20 -0.369189)
(1.77001 1.83439e-20 -0.341807)
(1.64302 -1.67962e-20 -0.318027)
(1.53244 0 -0.29715)
(1.43508 -1.40619e-20 -0.278649)
(1.34856 0 -0.262122)
(1.27103 4.71929e-20 -0.247252)
(1.20107 0 -0.233789)
(1.13754 -1.97242e-20 -0.22153)
(1.07954 -1.80253e-20 -0.210312)
(1.02633 1.64411e-20 -0.2)
(0.977279 5.27123e-24 -0.190481)
(0.931896 0 -0.181662)
(0.889752 -2.47309e-20 -0.173464)
(0.850485 0 -0.165819)
(0.813788 0 -0.158669)
(0.779398 -1.82644e-20 -0.151964)
(0.747086 0 -0.145662)
(0.716654 4.22515e-24 -0.139724)
(0.687929 1.31282e-20 -0.134117)
(0.660759 1.16614e-20 -0.128813)
(0.635009 1.03031e-20 -0.123786)
(0.610561 -9.04592e-21 -0.119012)
(0.58731 -1.57653e-20 -0.114471)
(0.565159 -1.36135e-20 -0.110146)
(0.544024 1.16137e-20 -0.106019)
(0.523828 0 -0.102075)
(0.504502 -8.09131e-21 -0.0983021)
(0.485983 0 -0.0946869)
(0.468214 5.08542e-21 -0.0912186)
(0.451143 0 -0.087887)
(0.434721 1.77223e-23 -0.0846829)
(0.418906 0 -0.0815977)
(0.403657 1.61223e-23 -0.0786235)
(0.388936 -1.12009e-21 -0.0757531)
(0.37471 2.82608e-21 -0.0729797)
(0.360945 -4.41049e-21 -0.0702971)
(0.347614 0 -0.0676996)
(0.334687 0 -0.0651815)
(0.32214 -8.31414e-21 -0.0627381)
(0.309947 -1.87523e-20 -0.0603644)
(0.298088 -2.06639e-20 -0.0580562)
(0.286538 1.96313e-23 -0.055809)
(0.275281 -2.38874e-20 -0.0536194)
(0.264294 0 -0.051483)
(0.253564 2.64586e-20 -0.0493972)
(0.243069 2.75052e-20 -0.0473576)
(0.2328 2.83984e-20 -0.0453625)
(0.222732 0 -0.0434071)
(0.212863 0 -0.041491)
(0.203166 0 -0.0396088)
(0.193646 -6.16683e-20 -0.0377614)
(0.18427 0 -0.0359424)
(0.175051 0 -0.0341544)
(0.16595 1.26378e-19 -0.0323898)
(0.156993 0 -0.0306535)
(0.148129 0 -0.0289357)
(0.139401 0 -0.0272444)
(0.130742 -1.26163e-19 -0.025567)
(0.122218 1.25492e-19 -0.023916)
(0.113742 1.24596e-19 -0.0222745)
(0.105408 2.35683e-23 -0.0206608)
(0.0971018 -1.22228e-19 -0.0190525)
(0.0889577 0 -0.0174757)
(0.0808215 1.19174e-19 -0.0159006)
(0.072882 0 -0.0143635)
(0.0649332 0 -0.0128247)
(0.0572318 0 -0.0113334)
(0.0495053 2.85715e-23 -0.00983731)
(0.042095 2.18365e-19 -0.00840192)
(0.0346441 2.13663e-19 -0.00695869)
(0.027598 -2.08837e-19 -0.00559305)
(0.0204954 -2.03791e-19 -0.00421651)
(0.0139063 0 -0.00293837)
(0.0072393 0 -0.00164527)
(0.00121476 3.76098e-19 -0.000475138)
(-0.00492473 -7.29952e-19 0.000716793)
(-0.0102703 7.07972e-19 0.00175642)
(-0.0157819 3.42576e-19 0.00282787)
(-0.0203612 0 0.00372095)
(-0.0251053 -6.39549e-19 0.0046443)
(-0.0289357 3.08515e-19 0.00539384)
(-0.0327553 -2.96874e-19 0.00613891)
(-0.0357341 5.71344e-19 0.00672418)
(-0.039302 0 0.00742098)
(-0.0394428 0 0.00746143)
(-0.0462379 0 0.00876841)
(-0.0410364 0 0.00775411)
(-0.0472359 0 0.0089908)
(-0.0519097 0 0.0097883)
(-0.0305191 -4.20271e-19 0.00590456)
(-0.0791997 -7.85779e-19 0.0150671)
(-0.013213 -7.77557e-19 0.00241272)
(-0.0706321 0 0.013636)
(-0.0457001 0 0.00845938)
(-0.0432387 0 0.00839866)
(-0.0658619 -6.21863e-19 0.0124104)
(-0.0180301 -1.16638e-18 0.00376592)
(-0.13598 5.38447e-19 0.0256743)
(0.0523633 0 -0.00983682)
(-0.1116 -8.94176e-19 0.0220618)
(-0.11474 0 0.0205043)
(0.150246 -9.08652e-19 -0.0272912)
(-0.357003 6.97648e-19 0.0677925)
(0.128592 -9.80071e-19 -0.0263724)
(0.0942245 -6.35544e-19 -0.0140484)
(-0.817913 6.54211e-19 0.154536)
(0.416431 -7.54716e-23 -0.0820362)
(0.0704165 5.51262e-19 -0.00986811)
(-0.450804 0 0.085614)
(29.1863 -1.28086e-21 4.03631)
(25.1358 0 1.86447)
(20.2651 -1.91861e-20 -0.211339)
(16.0913 0 -1.21192)
(13.1265 -1.73459e-20 -1.50806)
(11.0803 -3.04417e-20 -1.51909)
(9.60565 -1.40849e-20 -1.44133)
(8.49194 0 -1.34352)
(7.61781 3.55898e-22 -1.24796)
(6.9103 -2.1871e-20 -1.16074)
(6.32368 2.00719e-20 -1.08254)
(5.82786 1.84183e-20 -1.01263)
(5.4022 -1.68983e-20 -0.94999)
(5.032 1.55002e-20 -0.893645)
(4.7065 2.84823e-20 -0.84273)
(4.4176 0 -0.796511)
(4.15909 -6.4231e-23 -0.754366)
(3.92614 2.1843e-20 -0.715773)
(3.71491 2.00112e-20 -0.680291)
(3.5223 0 -0.647549)
(3.34581 0 -0.61723)
(3.18336 1.51838e-20 -0.589066)
(3.03324 0 -0.562825)
(2.894 1.25369e-20 -0.538308)
(2.76443 -2.27109e-20 -0.515344)
(2.64349 0 -0.493782)
(2.53028 1.85126e-20 -0.47349)
(2.42403 0 -0.454355)
(2.32408 -1.49023e-20 -0.436273)
(2.22984 -2.65968e-20 -0.419156)
(2.1408 -2.36209e-20 -0.402924)
(2.05651 -1.04287e-20 -0.387504)
(1.97656 9.15358e-21 -0.372834)
(1.90061 3.19147e-20 -0.358856)
(1.82832 2.7553e-20 -0.345518)
(1.75943 0 -0.332773)
(1.69366 0 -0.320578)
(1.63079 -1.75398e-23 -0.308896)
(1.5706 0 -0.29769)
(1.51291 -5.13394e-21 -0.286929)
(1.45754 0 -0.276582)
(1.40433 -5.12017e-21 -0.266622)
(1.35313 0 -0.257025)
(1.30381 -7.84204e-22 -0.247767)
(1.25625 0 -0.238826)
(1.21033 -2.84568e-21 -0.230182)
(1.16594 0 -0.221817)
(1.12299 0 -0.213714)
(1.08138 7.14315e-21 -0.205856)
(1.04103 0 -0.198228)
(1.00185 0 -0.190814)
(0.963781 0 -0.183604)
(0.926739 2.24283e-20 -0.176583)
(0.890669 4.78654e-20 -0.16974)
(0.855496 0 -0.163063)
(0.821175 0 -0.156542)
(0.787633 -2.74809e-20 -0.150165)
(0.75484 -2.8397e-20 -0.143928)
(0.722718 0 -0.137813)
(0.691256 0 -0.131822)
(0.660367 0 -0.125935)
(0.63006 0 -0.120158)
(0.600236 -6.20665e-20 -0.114469)
(0.57093 6.2526e-20 -0.108878)
(0.542022 -1.2566e-19 -0.103358)
(0.513583 0 -0.0979287)
(0.485461 0 -0.0925554)
(0.457777 0 -0.0872664)
(0.430334 4.7679e-23 -0.0820193)
(0.40332 -1.24292e-19 -0.076856)
(0.376475 -1.23292e-19 -0.0717204)
(0.350078 2.4417e-19 -0.0666734)
(0.323784 3.60694e-23 -0.0616407)
(0.297992 -1.19152e-19 -0.0567084)
(0.27224 -1.17478e-19 -0.0517778)
(0.247089 0 -0.0469682)
(0.221924 0 -0.0421484)
(0.197507 0 -0.0374803)
(0.173027 2.18722e-19 -0.0327907)
(0.1495 0 -0.0282946)
(0.125863 0 -0.0237657)
(0.103443 2.04393e-19 -0.0194841)
(0.0808665 1.9924e-19 -0.0151582)
(0.0598347 0 -0.0111457)
(0.0385875 0 -0.00707453)
(0.0192745 0 -0.00339388)
(-0.000357091 7.10492e-19 0.000367318)
(-0.0175942 -4.18976e-23 0.00364615)
(-0.0352954 3.32687e-19 0.00703974)
(-0.0501725 -3.21471e-19 0.00985993)
(-0.0655161 6.19792e-19 0.0128055)
(-0.078061 2.98636e-19 0.0151741)
(-0.0905412 5.74171e-19 0.0175708)
(-0.100512 0 0.0194541)
(-0.11189 0 0.0216197)
(-0.113775 0 0.0219756)
(-0.134004 0 0.0258639)
(-0.119901 4.65248e-19 0.0229855)
(-0.139669 0 0.0271277)
(-0.151619 0 0.0287284)
(-0.0941407 -4.03017e-19 0.0185401)
(-0.232029 3.76361e-19 0.0445403)
(-0.0407355 1.48826e-18 0.00727134)
(-0.215355 -6.69168e-19 0.0423506)
(-0.131 0 0.0241978)
(-0.133745 0 0.0263354)
(-0.194129 0 0.036637)
(-0.064063 5.55524e-19 0.0136092)
(-0.389572 -5.12442e-19 0.0739797)
(0.139577 0 -0.0276838)
(-0.345378 1.69916e-18 0.0700867)
(-0.303771 9.42851e-19 0.0529863)
(0.381022 1.72429e-18 -0.0692701)
(-1.01554 0 0.196683)
(0.406588 0 -0.0874307)
(0.169174 -6.02557e-19 -0.0149168)
(-2.31435 0 0.440596)
(1.26885 -8.49625e-19 -0.259994)
(0.10414 -5.21439e-19 -0.00384482)
(-1.29172 0 0.255286)
(31.9303 0 3.90836)
(31.1133 0 2.82775)
(28.5789 -1.29956e-20 1.02914)
(25.23 0 -0.380147)
(21.9725 0 -1.22557)
(19.1949 1.51333e-20 -1.65102)
(16.9331 1.33385e-20 -1.81953)
(15.1054 0 -1.85111)
(13.6157 4.20947e-22 -1.81728)
(12.3839 2.07198e-20 -1.75464)
(11.3492 -3.78228e-20 -1.68071)
(10.4674 -1.74512e-20 -1.60386)
(9.70609 1.14453e-22 -1.52808)
(9.04144 -1.46876e-20 -1.45522)
(8.45548 -1.34683e-20 -1.38607)
(7.93448 1.22948e-20 -1.32089)
(7.46773 -2.26146e-20 -1.25966)
(7.04681 -2.06993e-20 -1.20222)
(6.66496 0 -1.14835)
(6.31672 0 -1.09781)
(5.99761 1.57527e-20 -1.05034)
(5.70395 1.4357e-20 -1.00572)
(5.43265 0 -0.963704)
(5.1811 0 -0.924096)
(4.94712 2.15199e-20 -0.8867)
(4.72883 0 -0.851341)
(4.5246 -3.5077e-20 -0.817861)
(4.33304 1.57658e-20 -0.786114)
(4.15295 0 -0.755968)
(3.98325 1.26021e-20 -0.727305)
(3.82302 1.11924e-20 -0.700016)
(3.67143 0 -0.674002)
(3.52775 -8.68461e-21 -0.649173)
(3.39134 -1.51235e-20 -0.625446)
(3.26161 1.23317e-23 -0.602746)
(3.13804 0 -0.581005)
(3.02017 0 -0.560158)
(2.90757 7.75769e-21 -0.540147)
(2.79986 0 -0.520919)
(2.69668 0 -0.502424)
(2.59772 0 -0.484615)
(2.5027 0 -0.467451)
(2.41133 0 -0.450891)
(2.32338 0 -0.434899)
(2.23863 0 -0.41944)
(2.15685 2.64984e-21 -0.404483)
(2.07787 -4.14628e-21 -0.389996)
(2.0015 0 -0.375953)
(1.92756 -6.75809e-21 -0.362325)
(1.85592 0 -0.34909)
(1.78641 0 -0.336221)
(1.71891 1.95353e-20 -0.3237)
(1.65329 0 -0.311501)
(1.58942 -2.26152e-20 -0.29961)
(1.52719 2.38623e-20 -0.288001)
(1.46651 0 -0.276665)
(1.40725 2.59754e-20 -0.265575)
(1.34935 0 -0.254725)
(1.29268 0 -0.244089)
(1.2372 0 -0.233665)
(1.18277 5.72056e-20 -0.223424)
(1.12939 5.79908e-20 -0.213372)
(1.0769 2.86755e-23 -0.203473)
(1.02534 -1.18057e-19 -0.193744)
(0.974521 2.51423e-23 -0.18414)
(0.924542 0 -0.174691)
(0.875148 0 -0.16534)
(0.826538 -1.18458e-19 -0.156136)
(0.778375 3.84062e-23 -0.147004)
(0.730973 0 -0.138019)
(0.683891 0 -0.12908)
(0.637592 -1.15111e-19 -0.120295)
(0.591493 2.90281e-23 -0.111533)
(0.54626 2.69938e-23 -0.102946)
(0.501117 0 -0.094358)
(0.456998 0 -0.0859804)
(0.412873 -2.14077e-19 -0.0775811)
(0.370014 2.10121e-19 -0.0694444)
(0.327062 0 -0.061265)
(0.285715 0 -0.0534202)
(0.244196 0 -0.0455116)
(0.204725 0 -0.0380307)
(0.165007 0 -0.0304645)
(0.127887 0 -0.0234403)
(0.0904251 0 -0.0163048)
(0.0562195 0 -0.00984473)
(0.021511 -6.67966e-19 -0.00323709)
(-0.00916007 -3.23527e-19 0.00254153)
(-0.0405683 -3.12683e-19 0.00852529)
(-0.0671986 3.02079e-19 0.0135109)
(-0.0945768 -5.82232e-19 0.0187405)
(-0.117174 -2.80507e-19 0.0229408)
(-0.13963 -2.69591e-19 0.0272324)
(-0.157868 0 0.0306372)
(-0.178013 0 0.0343921)
(-0.183252 0 0.0354597)
(-0.217059 0 0.0418205)
(-0.195701 -4.36479e-19 0.0374022)
(-0.230278 0 0.0450108)
(-0.247908 0 0.0462018)
(-0.160497 3.7788e-19 0.0323549)
(-0.380455 0 0.0722504)
(-0.0701206 -6.97456e-19 0.0121563)
(-0.364232 6.27086e-19 0.0727097)
(-0.211032 0 0.0375582)
(-0.229716 0 0.0459659)
(-0.320144 0 0.0593624)
(-0.119746 5.20309e-19 0.0271265)
(-0.628846 0 0.116768)
(0.209083 -5.00224e-19 -0.0418947)
(-0.588823 3.16949e-23 0.123554)
(-0.45911 -8.8241e-19 0.0711658)
(0.548036 -1.61429e-18 -0.0904623)
(-1.6253 0 0.31321)
(0.694595 8.68059e-19 -0.159722)
(0.143745 5.63617e-19 0.0288912)
(-3.68451 5.769e-19 0.685273)
(2.12732 0 -0.455767)
(0.043937 4.87562e-19 0.0442042)
(-2.05594 0 0.41534)
(32.4508 0 2.96679)
(33.0157 0 2.77881)
(32.4602 1.22852e-20 1.73177)
(30.8135 0 0.52776)
(28.5554 -1.2317e-20 -0.479778)
(26.1337 2.50464e-20 -1.20447)
(23.809 0 -1.66867)
(21.6978 -2.18459e-20 -1.93347)
(19.8338 2.09393e-20 -2.06297)
(18.2074 1.8928e-20 -2.10736)
(16.791 1.7783e-20 -2.10054)
(15.5534 -1.61563e-20 -2.06383)
(14.466 1.50345e-20 -2.01024)
(13.5044 -2.73969e-20 -1.9476)
(12.6486 0 -1.88064)
(11.8821 -2.31933e-20 -1.81225)
(11.1916 0 -1.74417)
(10.5663 0 -1.67746)
(9.99716 0 -1.61272)
(9.47676 1.62803e-20 -1.55031)
(8.99895 -3.40269e-23 -1.49037)
(8.55856 -2.58513e-23 -1.43297)
(8.1512 1.23367e-20 -1.37808)
(7.77319 0 -1.32565)
(7.42133 0 -1.27558)
(7.09291 0 -1.22778)
(6.78556 3.31608e-20 -1.18213)
(6.49724 -5.78693e-24 -1.13851)
(6.22616 0 -1.09682)
(5.97074 0 -1.05695)
(5.72959 0 -1.0188)
(5.5015 0 -0.982255)
(5.28538 1.64275e-20 -0.947234)
(5.08024 0 -0.913644)
(4.88522 -1.23567e-20 -0.881401)
(4.69955 0 -0.850426)
(4.5225 0 -0.820645)
(4.35345 -7.35734e-21 -0.791989)
(4.19181 0 -0.764393)
(4.03706 0 -0.737796)
(3.88872 3.43096e-21 -0.71214)
(3.74635 -4.65292e-21 -0.687372)
(3.60954 0 -0.663441)
(3.47792 -7.67923e-22 -0.6403)
(3.35116 0 -0.617903)
(3.22893 -4.98711e-21 -0.59621)
(3.11094 1.90329e-23 -0.575178)
(2.99692 0 -0.554773)
(2.88661 0 -0.534956)
(2.77979 7.4046e-21 -0.515697)
(2.67622 1.671e-20 -0.496959)
(2.57572 -3.68631e-20 -0.478718)
(2.47805 0 -0.460938)
(2.38308 -2.12999e-20 -0.443598)
(2.29059 -2.25251e-20 -0.426665)
(2.20047 -2.35543e-20 -0.410123)
(2.11251 -2.44723e-20 -0.393937)
(2.02662 0 -0.378098)
(1.9426 0 -0.362567)
(1.8604 -5.30029e-20 -0.347344)
(1.77981 -1.07888e-19 -0.332386)
(1.70083 -5.46952e-20 -0.317702)
(1.62319 3.07694e-23 -0.303241)
(1.54698 5.56466e-20 -0.289026)
(1.4719 5.58884e-20 -0.274994)
(1.39809 0 -0.261187)
(1.32519 0 -0.247523)
(1.25346 1.11633e-19 -0.234073)
(1.18243 2.22178e-19 -0.220727)
(1.11253 0 -0.207593)
(1.04313 1.09432e-19 -0.194527)
(0.974891 1.08348e-19 -0.181684)
(0.906968 1.07122e-19 -0.168874)
(0.840303 2.11422e-19 -0.156315)
(0.773795 0 -0.143755)
(0.708755 0 -0.131496)
(0.643728 2.01451e-19 -0.119205)
(0.580504 -3.95345e-19 -0.10729)
(0.517164 -1.93656e-19 -0.0953114)
(0.456099 0 -0.083811)
(0.394802 0 -0.0722168)
(0.336403 0 -0.0612341)
(0.277669 0 -0.050126)
(0.22261 0 -0.0397936)
(0.16709 0 -0.0292983)
(0.116182 -3.23685e-19 -0.0197714)
(0.0645991 4.05403e-23 -0.0100311)
(0.018743 3.03783e-19 -0.00147692)
(-0.0281042 0 0.00736829)
(-0.0681494 2.8355e-19 0.0147785)
(-0.109211 2.73252e-19 0.0225515)
(-0.143397 0 0.0288168)
(-0.177358 -2.52927e-19 0.0352427)
(-0.205317 -4.86039e-19 0.0403995)
(-0.235395 0 0.0458845)
(-0.245786 0 0.0480259)
(-0.293419 0 0.0567779)
(-0.26683 -4.09164e-19 0.0510849)
(-0.317341 0 0.0626106)
(-0.339336 0 0.0625785)
(-0.228489 3.54097e-19 0.0471789)
(-0.522614 -3.30451e-19 0.0985252)
(-0.101543 0 0.0173116)
(-0.515325 0 0.104261)
(-0.284916 0 0.0491066)
(-0.331022 0 0.0673014)
(-0.442472 0 0.081015)
(-0.18435 3.23289e-23 0.0434606)
(-0.852669 0 0.155959)
(0.258914 4.68094e-19 -0.0528379)
(-0.837405 -7.44115e-19 0.180792)
(-0.583021 0 0.0797686)
(0.652229 -3.8824e-22 -0.0966395)
(-2.18063 0 0.419686)
(0.977185 -7.29571e-23 -0.237122)
(0.0296814 0 0.104757)
(-4.90876 -5.39383e-19 0.897353)
(2.95566 0 -0.660226)
(-0.100213 4.56432e-19 0.122812)
(-2.70835 0 0.561733)
(32.552 0 2.11497)
(33.309 0 2.23899)
(33.6549 0 1.76204)
(33.2888 0 0.965892)
(32.2633 1.16263e-20 0.121997)
(30.7857 -9.03179e-22 -0.628992)
(29.062 0 -1.23156)
(27.2512 2.06195e-20 -1.67652)
(25.4634 0 -1.98105)
(23.7647 -3.52301e-20 -2.17346)
(22.1877 0 -2.28242)
(20.7426 1.52526e-20 -2.33198)
(19.4267 0 -2.34048)
(18.2314 2.5867e-20 -2.32122)
(17.1455 -1.17773e-20 -2.28352)
(16.1573 2.17534e-20 -2.23386)
(15.2558 -1.99058e-20 -2.17667)
(14.4312 -1.82635e-20 -2.11504)
(13.6747 0 -2.05107)
(12.9784 -1.5373e-20 -1.98622)
(12.3358 -1.40375e-20 -1.92149)
(11.7409 -2.55613e-20 -1.85756)
(11.1886 -1.16492e-20 -1.79488)
(10.6747 0 -1.73375)
(10.1951 0 -1.67437)
(9.74662 0 -1.61682)
(9.32622 -1.56508e-20 -1.56118)
(8.93133 -1.40727e-20 -1.50744)
(8.55964 0 -1.45558)
(8.20913 0 -1.40558)
(7.87799 9.99508e-21 -1.35738)
(7.56461 0 -1.31093)
(7.26756 1.5034e-24 -1.26615)
(6.98554 -1.35232e-20 -1.22299)
(6.71739 1.16811e-20 -1.18136)
(6.46207 0 -1.14122)
(6.21861 0 -1.10248)
(5.98617 6.94401e-21 -1.06508)
(5.76396 0 -1.02896)
(5.55125 0 -0.994051)
(5.34741 -3.23767e-21 -0.960299)
(5.15183 4.39051e-21 -0.927645)
(4.96395 0 -0.896033)
(4.78327 7.24522e-22 -0.86541)
(4.60931 0 -0.835725)
(4.44166 2.34292e-21 -0.806931)
(4.27989 3.67684e-21 -0.778979)
(4.12364 0 -0.751828)
(3.97256 5.97244e-21 -0.725431)
(3.82632 -6.98295e-21 -0.699753)
(3.68462 -3.14842e-20 -0.67475)
(3.54717 1.7365e-20 -0.65039)
(3.41369 -1.87749e-20 -0.62663)
(3.28396 2.56204e-23 -0.603446)
(3.1577 0 -0.580792)
(3.03473 2.22009e-20 -0.558652)
(2.91479 2.30637e-20 -0.536979)
(2.79774 -2.37869e-20 -0.515763)
(2.6833 2.442e-20 -0.494954)
(2.57141 4.99363e-20 -0.474552)
(2.46177 5.0801e-20 -0.454499)
(2.35436 -5.14562e-20 -0.434811)
(2.24886 5.20081e-20 -0.415417)
(2.14534 0 -0.396352)
(2.0434 0 -0.377527)
(1.94324 5.26662e-20 -0.359003)
(1.84435 0 -0.340668)
(1.74708 0 -0.322617)
(1.65081 -1.04527e-19 -0.304706)
(1.55609 0 -0.287075)
(1.46208 -1.02959e-19 -0.269534)
(1.36963 -2.03817e-19 -0.252287)
(1.27766 0 -0.235083)
(1.18736 -9.94019e-20 -0.218211)
(1.0973 0 -0.201336)
(1.00918 0 -0.184857)
(0.921094 -1.8928e-19 -0.168331)
(0.835374 1.8577e-19 -0.1523)
(0.749512 3.92368e-23 -0.136181)
(0.666619 0 -0.12069)
(0.583428 0 -0.105069)
(0.504009 0 -0.0902528)
(0.424159 -1.65418e-19 -0.0752635)
(0.349092 1.61026e-19 -0.0612965)
(0.27344 0 -0.0471061)
(0.203792 6.0765e-19 -0.0341936)
(0.133302 2.94399e-19 -0.0209908)
(0.0702774 -5.70111e-19 -0.00935784)
(0.00602299 -2.75396e-19 0.00266682)
(-0.0493313 -5.31972e-19 0.0127914)
(-0.105962 0 0.0234166)
(-0.153499 0 0.0320027)
(-0.200732 2.3716e-19 0.0408578)
(-0.240069 4.55669e-19 0.0480214)
(-0.281488 -4.36459e-19 0.0554128)
(-0.299007 0 0.0590557)
(-0.360885 0 0.0701041)
(-0.331425 3.83362e-19 0.0635623)
(-0.398864 3.62942e-19 0.0794743)
(-0.424383 0 0.0772844)
(-0.296629 -3.31621e-19 0.0627858)
(-0.656688 3.09431e-19 0.122557)
(-0.134942 0 0.0228242)
(-0.666264 0 0.136547)
(-0.352121 0 0.0583373)
(-0.437168 0 0.0903508)
(-0.559628 0 0.100917)
(-0.256807 -4.55708e-19 0.0627324)
(-1.06059 0 0.190134)
(0.288075 0 -0.0595823)
(-1.08632 0 0.240599)
(-0.679936 7.71281e-19 0.0777352)
(0.698557 7.06512e-19 -0.0851507)
(-2.67823 0 0.51216)
(1.23808 -7.58872e-19 -0.316363)
(-0.1537 0 0.214493)
(-5.97143 -5.02771e-19 1.063)
(3.70993 0 -0.864305)
(-0.313254 -4.26551e-19 0.23436)
(-3.21245 0 0.684642)
(32.6229 -4.98698e-21 1.50166)
(33.2055 -6.18879e-21 1.63984)
(33.7315 7.3477e-21 1.44735)
(33.9562 8.2791e-21 0.984783)
(33.7622 0 0.391232)
(33.1615 -9.92231e-21 -0.226227)
(32.2273 0 -0.801728)
(31.0509 1.74204e-20 -1.2982)
(29.7209 1.6652e-20 -1.7002)
(28.314 3.21108e-20 -2.00815)
(26.8896 -1.47692e-20 -2.23179)
(25.4902 1.37777e-20 -2.38462)
(24.1429 0 -2.48061)
(22.8634 0 -2.53241)
(21.6591 1.11034e-20 -2.55069)
(20.5315 -1.14564e-22 -2.54398)
(19.4793 1.76012e-22 -2.51897)
(18.4988 1.35807e-22 -2.48073)
(17.5854 0 -2.43312)
(16.7343 0 -2.37903)
(15.9406 0 -2.32061)
(15.1996 2.40178e-20 -2.25947)
(14.5067 1.09195e-20 -2.19682)
(13.8579 0 -2.13356)
(13.2495 0 -2.07032)
(12.6779 1.63042e-20 -2.00762)
(12.1403 0 -1.94578)
(11.6336 0 -1.88508)
(11.1555 0 -1.82567)
(10.7036 0 -1.7677)
(10.2758 -6.24645e-24 -1.71121)
(9.87033 0 -1.65627)
(9.48546 -1.48349e-24 -1.60289)
(9.11965 1.27477e-20 -1.55105)
(8.7715 2.83656e-24 -1.50076)
(8.43974 0 -1.45197)
(8.12321 0 -1.40465)
(7.82085 0 -1.35877)
(7.53168 0 -1.31427)
(7.25482 0 -1.27111)
(6.98944 0 -1.22925)
(6.73478 0 -1.18862)
(6.49016 -2.37166e-21 -1.14919)
(6.25492 -7.19368e-22 -1.1109)
(6.02846 0 -1.0737)
(5.81024 2.17234e-21 -1.03755)
(5.59972 0 -1.00239)
(5.39644 0 -0.968185)
(5.19994 -1.12352e-20 -0.934882)
(5.0098 0 -0.902444)
(4.82562 1.48111e-20 -0.870821)
(4.64705 0 -0.839979)
(4.4737 3.53311e-20 -0.809868)
(4.3053 2.48395e-23 -0.780462)
(4.14147 0 -0.751707)
(3.982 0 -0.723585)
(3.82652 0 -0.696039)
(3.67486 4.47564e-20 -0.66906)
(3.52667 -4.5945e-20 -0.642585)
(3.38185 -4.69215e-20 -0.616618)
(3.24 -4.77345e-20 -0.591086)
(3.10112 9.67916e-20 -0.566009)
(2.96476 4.88679e-20 -0.5413)
(2.83103 0 -0.517003)
(2.6994 0 -0.493006)
(2.57011 -2.45317e-23 -0.469388)
(2.44253 0 -0.446006)
(2.31708 0 -0.422981)
(2.19296 -9.81876e-20 -0.400129)
(2.07086 0 -0.37763)
(1.94972 0 -0.355242)
(1.8306 1.91475e-19 -0.333224)
(1.7121 -9.45885e-20 -0.311255)
(1.59575 0 -0.289702)
(1.47973 0 -0.26814)
(1.36615 0 -0.247074)
(1.25263 1.77763e-19 -0.225943)
(1.14206 0 -0.205429)
(1.03131 3.41623e-19 -0.184796)
(0.92425 -1.67116e-19 -0.164949)
(0.816812 0 -0.144927)
(0.714045 0 -0.125913)
(0.610734 1.55225e-19 -0.10667)
(0.513343 -2.56824e-23 -0.0887068)
(0.415227 1.46752e-19 -0.0704506)
(0.32455 -2.84965e-19 -0.0537975)
(0.232856 2.76029e-19 -0.0367678)
(0.150422 2.67287e-19 -0.0217125)
(0.0665203 2.5821e-19 -0.00615473)
(-0.00629774 2.85837e-23 0.00701464)
(-0.0806582 0 0.0208327)
(-0.143563 -2.31297e-19 0.032038)
(-0.20611 0 0.0436504)
(-0.258713 0 0.0531055)
(-0.313165 4.0888e-19 0.0626352)
(-0.339997 0 0.0682014)
(-0.416754 0 0.0815052)
(-0.38714 0 0.0746112)
(-0.472428 -3.39827e-19 0.0952422)
(-0.501139 0 0.0901442)
(-0.36297 -3.10428e-19 0.0788853)
(-0.78054 0 0.14415)
(-0.169905 0 0.0287279)
(-0.814257 0 0.169004)
(-0.412157 0 0.065241)
(-0.547197 0 0.115053)
(-0.669804 -4.54862e-19 0.118824)
(-0.335922 -4.26273e-19 0.0846976)
(-1.25177 3.92439e-19 0.219744)
(0.296254 0 -0.0621306)
(-1.33063 0 0.301828)
(-0.754828 -1.44191e-18 0.0667516)
(0.693325 0 -0.0583215)
(-3.11502 5.03954e-19 0.591347)
(1.46206 0 -0.393927)
(-0.385529 4.61856e-19 0.352743)
(-6.85458 4.69833e-19 1.18288)
(4.34329 0 -1.05833)
(-0.581293 -3.99046e-19 0.373897)
(-3.52986 0 0.775846)
(32.6761 4.69638e-21 1.05037)
(33.0865 1.14059e-20 1.13598)
(33.532 -6.92114e-21 1.05158)
(33.8965 -7.85305e-22 0.78683)
(34.069 7.49286e-21 0.395182)
(33.9933 0 -0.0614007)
(33.6615 0 -0.533793)
(33.0937 -1.64038e-20 -0.986244)
(32.3254 -3.04551e-20 -1.3951)
(31.399 -7.10234e-22 -1.74732)
(30.3581 1.39059e-20 -2.03838)
(29.2436 -1.29723e-20 -2.26965)
(28.0903 1.17253e-20 -2.44595)
(26.9266 0 -2.57389)
(25.7743 0 -2.66066)
(24.6487 -9.50959e-21 -2.71329)
(23.5604 3.47792e-20 -2.73818)
(22.5159 3.19917e-20 -2.74092)
(21.5187 0 -2.72622)
(20.5701 0 -2.69799)
(19.6699 0 -2.65941)
(18.8169 -6.7183e-23 -2.61301)
(18.0094 -2.05115e-20 -2.56083)
(17.2453 9.30824e-21 -2.50449)
(16.5221 1.69001e-20 -2.44525)
(15.8375 -3.06547e-20 -2.38412)
(15.1891 1.38165e-20 -2.32189)
(14.5746 1.2435e-20 -2.25917)
(13.9917 1.11516e-20 -2.19645)
(13.4384 0 -2.13408)
(12.9128 -8.86589e-21 -2.07236)
(12.4129 7.82866e-21 -2.0115)
(11.937 -6.88339e-21 -1.95166)
(11.4836 -1.19957e-20 -1.89296)
(11.0512 -2.07345e-20 -1.83549)
(10.6384 0 -1.77929)
(10.2439 0 -1.72439)
(9.86653 -6.18052e-21 -1.67082)
(9.50524 0 -1.61858)
(9.15898 3.90191e-21 -1.56766)
(8.82682 2.89633e-21 -1.51803)
(8.50786 0 -1.46968)
(8.2013 4.47957e-21 -1.42258)
(7.90637 6.76971e-22 -1.37669)
(7.62236 0 -1.33197)
(7.34861 -2.04408e-21 -1.28839)
(7.08448 -3.21175e-21 -1.24591)
(6.82942 0 -1.20449)
(6.58286 1.05405e-20 -1.16409)
(6.3443 -6.14465e-21 -1.12466)
(6.11323 -1.3878e-20 -1.08616)
(5.88924 0 -1.04855)
(5.67185 -2.51384e-23 -1.01179)
(5.4607 3.54448e-20 -0.975843)
(5.25536 0 -0.940656)
(5.05553 0 -0.90621)
(4.86077 -2.0353e-20 -0.872441)
(4.67087 -2.10302e-20 -0.839341)
(4.48538 4.31569e-20 -0.806835)
(4.30417 4.41073e-20 -0.774934)
(4.12676 4.48677e-20 -0.743549)
(3.95312 -4.54703e-20 -0.712708)
(3.78272 -9.18201e-20 -0.682305)
(3.61565 0 -0.652396)
(3.45128 0 -0.622846)
(3.28988 -9.29943e-20 -0.593752)
(3.13067 0 -0.564938)
(2.97417 0 -0.536557)
(2.81938 9.22193e-20 -0.508379)
(2.66712 0 -0.480628)
(2.51611 -9.07682e-20 -0.453005)
(2.3676 -3.25547e-23 -0.42583)
(2.21992 8.88006e-20 -0.398706)
(2.07487 0 -0.372085)
(1.93025 0 -0.345444)
(1.7886 0 -0.319401)
(1.64703 1.66721e-19 -0.293267)
(1.50902 0 -0.26788)
(1.37079 -1.6023e-19 -0.242332)
(1.23697 3.13489e-19 -0.217735)
(1.10268 0 -0.192908)
(0.973986 0 -0.169302)
(0.844599 0 -0.145396)
(0.722306 -2.53837e-23 -0.123044)
(0.599112 -1.37576e-19 -0.100313)
(0.484841 -2.67032e-19 -0.0795313)
(0.369348 -2.58706e-19 -0.0582693)
(0.264978 2.50415e-19 -0.039414)
(0.158882 0 -0.0199242)
(0.0661518 2.33577e-19 -0.00335167)
(-0.0284102 0 0.0140473)
(-0.108991 2.16648e-19 0.0281992)
(-0.189212 0 0.0429461)
(-0.257235 0 0.0550036)
(-0.326742 0 0.0669487)
(-0.365292 -3.6707e-19 0.0748936)
(-0.457857 -3.4972e-19 0.0904356)
(-0.43116 0 0.083728)
(-0.53516 3.18005e-19 0.10944)
(-0.567343 -3.04629e-19 0.100766)
(-0.42506 2.9046e-19 0.0950955)
(-0.891859 -2.70853e-19 0.162751)
(-0.205517 0 0.0349854)
(-0.956097 0 0.200982)
(-0.464633 0 0.0697222)
(-0.659583 0 0.14123)
(-0.771006 4.25337e-19 0.13427)
(-0.42029 -1.98083e-23 0.109146)
(-1.42538 -7.33695e-19 0.24439)
(0.284218 0 -0.060312)
(-1.56546 0 0.363289)
(-0.813484 6.73735e-19 0.0478522)
(0.644802 0 -0.0169698)
(-3.48997 -4.70946e-19 0.654084)
(1.63705 0 -0.466819)
(-0.644266 -8.6324e-19 0.51522)
(-7.54434 0 1.25159)
(4.81422 0 -1.23314)
(-0.891982 3.7277e-19 0.537369)
(-3.62357 0 0.825661)
(32.6993 0 0.697813)
(33.0002 -5.24647e-21 0.739738)
(33.3366 0 0.68888)
(33.6665 -6.59813e-21 0.524485)
(33.9267 -1.3447e-20 0.261408)
(34.0662 0 -0.0686152)
(34.0566 6.7048e-21 -0.434163)
(33.8864 0 -0.809137)
(33.5561 9.03036e-22 -1.17334)
(33.0752 -2.58063e-20 -1.51228)
(32.4599 0 -1.81664)
(31.7303 0 -2.08153)
(30.9088 -1.10283e-20 -2.30533)
(30.0178 0 -2.4888)
(29.0783 0 -2.63422)
(28.1094 0 -2.74486)
(27.1274 -1.62462e-20 -2.82452)
(26.1455 -1.49597e-20 -2.87717)
(25.1745 -1.35656e-20 -2.90668)
(24.2223 0 -2.9167)
(23.2947 0 -2.91053)
(22.3959 -1.05504e-20 -2.89109)
(21.5283 9.62113e-21 -2.86089)
(20.6934 -8.75465e-21 -2.82208)
(19.8917 -1.5895e-20 -2.77648)
(19.1232 2.87155e-20 -2.72559)
(18.3873 -5.40452e-23 -2.67068)
(17.6833 -1.16951e-20 -2.61277)
(17.0099 -1.04879e-20 -2.55272)
(16.366 0 -2.49123)
(15.7504 0 -2.42886)
(15.1616 -7.36232e-21 -2.36608)
(14.5984 0 -2.30324)
(14.0594 1.12806e-20 -2.24066)
(13.5435 9.74789e-21 -2.17856)
(13.0492 -8.32552e-21 -2.11714)
(12.5755 0 -2.05653)
(12.1213 5.8114e-21 -1.99685)
(11.6853 4.69856e-21 -1.93819)
(11.2667 3.85512e-24 -1.88059)
(10.8644 -5.45103e-21 -1.82411)
(10.4775 0 -1.76878)
(10.1052 -2.11294e-21 -1.71459)
(9.74657 0 -1.66155)
(9.40091 0 -1.60966)
(9.06745 0 -1.5589)
(8.74551 1.39598e-23 -1.50926)
(8.43444 0 -1.4607)
(8.13359 -4.94621e-21 -1.4132)
(7.8424 1.15358e-20 -1.36674)
(7.56029 1.30413e-20 -1.32127)
(7.28677 0 -1.27676)
(7.02127 -1.55765e-20 -1.23317)
(6.7634 -3.32562e-20 -1.19048)
(6.51261 0 -1.14863)
(6.26857 0 -1.1076)
(6.03075 1.91186e-20 -1.06733)
(5.79891 1.9716e-20 -1.02781)
(5.57249 -2.02582e-20 -0.988961)
(5.35134 -4.13562e-20 -0.9508)
(5.13488 0 -0.913225)
(4.92308 0 -0.876275)
(4.71528 2.87677e-23 -0.839822)
(4.5116 -4.33627e-20 -0.803942)
(4.31127 0 -0.768469)
(4.11461 4.36349e-20 -0.733527)
(3.92066 0 -0.698903)
(3.73005 0 -0.664784)
(3.54157 0 -0.630892)
(3.35619 0 -0.597502)
(3.17237 3.45686e-23 -0.564248)
(2.99159 -3.22634e-23 -0.53152)
(2.81183 -8.32433e-20 -0.498838)
(2.63523 0 -0.466747)
(2.45915 -8.08905e-20 -0.434614)
(2.28661 0 -0.403187)
(2.11414 -1.56335e-19 -0.37163)
(1.94588 1.53309e-19 -0.340955)
(1.7773 -1.50142e-19 -0.310062)
(1.61392 -1.46916e-19 -0.280295)
(1.4499 0 -0.250225)
(1.29243 1.39965e-19 -0.221602)
(1.13407 0 -0.192588)
(0.984017 -1.32684e-19 -0.16542)
(0.832826 -1.28851e-19 -0.137765)
(0.6921 2.50156e-19 -0.112429)
(0.549887 0 -0.0864849)
(0.420741 -4.69042e-19 -0.0634126)
(0.28956 0 -0.0395432)
(0.174144 2.18667e-19 -0.0191711)
(0.0565521 0 0.00223786)
(-0.0443322 2.02782e-19 0.0197256)
(-0.144951 0 0.0380275)
(-0.230853 3.74079e-19 0.0530313)
(-0.317816 -3.58212e-19 0.0677329)
(-0.37074 3.43505e-19 0.0785236)
(-0.480409 3.27234e-19 0.0963539)
(-0.460032 0 0.0904367)
(-0.583651 -5.94978e-19 0.12153)
(-0.620243 5.69891e-19 0.108761)
(-0.479874 0 0.110936)
(-0.988008 2.53313e-19 0.177955)
(-0.240224 0 0.0414511)
(-1.08817 0 0.231754)
(-0.509123 -4.48078e-19 0.0717523)
(-0.772138 0 0.168563)
(-0.86104 0 0.146823)
(-0.508242 3.72571e-19 0.135824)
(-1.58028 6.85572e-19 0.264011)
(0.253747 3.58042e-19 -0.0544282)
(-1.78608 0 0.423826)
(-0.861818 0 0.0224052)
(0.562274 0 0.0369832)
(-3.80271 0 0.701811)
(1.75584 6.19167e-19 -0.533086)
(-0.909827 4.03285e-19 0.696905)
(-8.03186 0 1.2693)
(5.09535 0 -1.38183)
(-1.23625 0 0.719224)
(-3.46157 0 0.824916)
(32.6969 4.19273e-21 0.409992)
(32.9285 0 0.424708)
(33.1839 4.90962e-21 0.382824)
(33.4482 0 0.268322)
(33.6906 6.0129e-21 0.0817655)
(33.8795 0 -0.162132)
(33.9921 -6.30166e-21 -0.444227)
(34.0133 1.15495e-20 -0.746577)
(33.9338 2.35794e-20 -1.05403)
(33.7491 7.30394e-22 -1.35459)
(33.4585 0 -1.63925)
(33.0655 0 -1.9018)
(32.5768 0 -2.13838)
(32.0014 0 -2.34692)
(31.3505 0 -2.52666)
(30.636 0 -2.67788)
(29.8705 1.46359e-20 -2.80159)
(29.0662 -1.35558e-20 -2.89938)
(28.2348 1.27463e-20 -2.97325)
(27.3868 0 -3.02541)
(26.5313 0 -3.05819)
(25.6764 9.713e-21 -3.07393)
(24.8283 8.88092e-21 -3.07489)
(23.9923 8.09953e-21 -3.06317)
(23.1725 0 -3.04072)
(22.3719 -1.34575e-20 -3.00927)
(21.5926 -2.42426e-20 -2.97036)
(20.8361 1.08902e-20 -2.92536)
(20.1034 0 -2.87542)
(19.3948 0 -2.82157)
(18.7106 0 -2.76465)
(18.0504 6.88252e-21 -2.70541)
(17.414 0 -2.64447)
(16.8007 0 -2.58233)
(16.21 9.13211e-21 -2.51944)
(15.641 7.82105e-21 -2.45617)
(15.0931 0 -2.3928)
(14.5653 5.45541e-21 -2.32959)
(14.0569 -8.82555e-21 -2.26674)
(13.567 -3.44955e-21 -2.20441)
(13.0948 2.5623e-21 -2.14274)
(12.6395 0 -2.08184)
(12.2002 0 -2.02177)
(11.7762 0 -1.96261)
(11.3668 -6.20014e-22 -1.90439)
(10.9712 0 -1.84715)
(10.5887 2.82168e-21 -1.79089)
(10.2186 3.75864e-21 -1.73565)
(9.86036 0 -1.6814)
(9.51327 -5.40934e-21 -1.62815)
(9.17672 0 -1.57587)
(8.8502 0 -1.52456)
(8.53309 -1.45774e-20 -1.47418)
(8.22494 2.19774e-23 -1.42472)
(7.92514 1.64586e-20 -1.37613)
(7.63334 0 -1.3284)
(7.34891 0 -1.28148)
(7.07159 -1.85033e-20 -1.23535)
(6.80074 0 -1.18995)
(6.53618 3.88075e-20 -1.14529)
(6.27724 0 -1.10126)
(6.02389 0 -1.05792)
(5.77533 8.07741e-20 -1.01512)
(5.53173 8.13311e-20 -0.972958)
(5.29215 4.08182e-20 -0.931235)
(5.057 0 -0.890106)
(4.82512 0 -0.849319)
(4.59725 4.07269e-20 -0.809103)
(4.37193 8.1043e-20 -0.769125)
(4.15035 0 -0.729718)
(3.93062 7.98168e-20 -0.690443)
(3.71452 -7.89893e-20 -0.651772)
(3.49961 7.80351e-20 -0.613126)
(3.28844 -7.69532e-20 -0.575161)
(3.07787 7.58163e-20 -0.537114)
(2.87142 0 -0.499885)