/*--------------------------------*- C++ -*----------------------------------*\
| =========                 |                                                 |
| \\      /  F ield         | OpenFOAM: The Open Source CFD Toolbox           |
|  \\    /   O peration     | Version:  2412                                  |
|   \\  /    A nd           | Website:  www.openfoam.com                      |
|    \\/     M anipulation  |                                                 |
\*---------------------------------------------------------------------------*/
FoamFile
{
    version     2.0;
    format      ascii;
    arch        "LSB;label=32;scalar=64";
    class       volVectorField;
    location    "0.48";
    object      U;
}
// * * * * * * * * * * * * * * * * * * * * * * * * * * * * * * * * * * * * * //

dimensions      [0 1 -1 0 0 0 0];

internalField   nonuniform List<vector> 
12600
(
(18.7198 1.25039e-21 2.08748)
(11.6149 1.61098e-20 0.448865)
(7.35195 1.8949e-20 -0.478554)
(5.09251 0 -0.709666)
(3.98053 1.71439e-20 -0.682819)
(3.34023 1.59727e-20 -0.608186)
(2.89919 0 -0.540545)
(2.56804 0 -0.485159)
(2.30843 -4.80884e-20 -0.43974)
(2.09826 0 -0.40202)
(1.92385 2.01904e-20 -0.37016)
(1.77625 1.84971e-20 -0.342836)
(1.64938 -1.69545e-20 -0.3191)
(1.53889 0 -0.298257)
(1.44159 -1.42266e-20 -0.279785)
(1.35512 0 -0.263281)
(1.27763 4.78647e-20 -0.24843)
(1.2077 0 -0.234982)
(1.1442 -2.00609e-20 -0.222736)
(1.08622 -1.83614e-20 -0.211529)
(1.03303 1.67753e-20 -0.201227)
(0.983997 5.61362e-24 -0.191717)
(0.938632 0 -0.182906)
(0.896505 -2.53806e-20 -0.174715)
(0.857256 0 -0.167077)
(0.820579 0 -0.159934)
(0.78621 -1.88882e-20 -0.153236)
(0.753922 0 -0.146941)
(0.723518 3.85245e-24 -0.141011)
(0.694824 1.37208e-20 -0.135412)
(0.667689 1.22432e-20 -0.130117)
(0.641979 1.08741e-20 -0.125099)
(0.617576 -9.60584e-21 -0.120335)
(0.594373 -1.68629e-20 -0.115805)
(0.572276 -1.46889e-20 -0.111491)
(0.551201 1.26673e-20 -0.107376)
(0.531072 0 -0.103447)
(0.511818 -9.10046e-21 -0.0996882)
(0.493379 0 -0.096089)
(0.475697 6.05138e-21 -0.0926381)
(0.45872 0 -0.0893253)
(0.442402 1.71743e-23 -0.0861415)
(0.426698 0 -0.0830781)
(0.411569 1.56444e-23 -0.0801275)
(0.396979 6.07247e-22 -0.0772824)
(0.382893 1.13795e-21 -0.0745363)
(0.36928 -2.75996e-21 -0.0718831)
(0.35611 0 -0.0693169)
(0.343359 0 -0.0668327)
(0.330999 -6.77267e-21 -0.0644254)
(0.319007 -1.57388e-20 -0.0620905)
(0.307362 -1.77181e-20 -0.0598237)
(0.296044 1.90943e-23 -0.057621)
(0.285033 -2.10728e-20 -0.0554786)
(0.274311 0 -0.0533931)
(0.263861 2.37678e-20 -0.0513611)
(0.253668 2.48744e-20 -0.0493796)
(0.243716 2.58263e-20 -0.0474454)
(0.233993 0 -0.0455563)
(0.224484 0 -0.0437092)
(0.215179 0 -0.0419022)
(0.206063 -5.69654e-20 -0.0401324)
(0.197131 0 -0.0383988)
(0.188366 0 -0.036698)
(0.179768 1.17597e-19 -0.0350301)
(0.171317 0 -0.0333909)
(0.163022 0 -0.0317824)
(0.154854 0 -0.0301989)
(0.146835 -1.18182e-19 -0.0286447)
(0.138926 1.17702e-19 -0.027112)
(0.131165 1.1701e-19 -0.0256082)
(0.123498 2.31095e-23 -0.0241227)
(0.115981 -1.15043e-19 -0.0226668)
(0.108545 0 -0.0212266)
(0.101267 1.124e-19 -0.019817)
(0.0940609 0 -0.0184217)
(0.0870193 0 -0.0170582)
(0.0800506 0 -0.015709)
(0.0732481 2.86841e-23 -0.014392)
(0.0665296 2.07034e-19 -0.0130913)
(0.0599685 2.02867e-19 -0.0118212)
(0.0535164 -1.98527e-19 -0.0105721)
(0.0472025 -1.94066e-19 -0.00934993)
(0.0410433 0 -0.00815753)
(0.0349812 0 -0.0069843)
(0.0291167 3.60189e-19 -0.00584914)
(0.0232644 -7.00975e-19 -0.00471692)
(0.0177144 6.81593e-19 -0.00364299)
(0.0120742 3.30968e-19 -0.0025521)
(0.00699045 0 -0.00156833)
(0.00158994 -6.22651e-19 -0.000523986)
(-0.00289886 3.01641e-19 0.000344864)
(-0.00830454 -2.91763e-19 0.00138905)
(-0.0120814 5.64541e-19 0.00212023)
(-0.0177205 0 0.00320772)
(-0.0205897 0 0.00376283)
(-0.0266093 0 0.00492395)
(-0.0277879 0 0.00515002)
(-0.0349759 0 0.00653537)
(-0.0357166 0 0.00667703)
(-0.0455083 -4.36468e-19 0.00855619)
(-0.0425506 -8.43158e-19 0.00797229)
(-0.0524733 -8.08365e-19 0.0098938)
(-0.0428206 0 0.00805665)
(-0.0615241 0 0.0116963)
(-0.0795271 0 0.0151563)
(-0.148458 -6.77734e-19 0.0281576)
(-0.15382 -1.35383e-18 0.0289167)
(-0.145492 6.72429e-19 0.0270633)
(-0.0577462 0 0.0100844)
(-0.0189019 -1.30797e-18 0.00296014)
(0.0496158 0 -0.00995638)
(0.0388062 -1.19434e-18 -0.00763563)
(0.0646935 1.12814e-18 -0.0125875)
(0.0412004 -1.07809e-18 -0.00814106)
(0.0747689 -1.01879e-18 -0.0146089)
(0.0597085 9.79818e-19 -0.0119102)
(0.128475 -3.53591e-23 -0.0250318)
(0.112392 8.83434e-19 -0.0220076)
(0.20305 0 -0.0394034)
(29.1239 -1.26228e-21 4.01584)
(25.091 0 1.85227)
(20.2376 -1.91785e-20 -0.217078)
(16.0779 0 -1.2143)
(13.1229 -1.73717e-20 -1.50949)
(11.0829 -3.05217e-20 -1.52051)
(9.61242 -1.41348e-20 -1.44298)
(8.50154 0 -1.34552)
(7.62948 3.56298e-22 -1.25027)
(6.92351 -2.20103e-20 -1.1633)
(6.33808 2.02197e-20 -1.0853)
(5.8432 1.85727e-20 -1.01555)
(5.41828 -1.7058e-20 -0.953042)
(5.04868 1.56638e-20 -0.896806)
(4.72366 2.88159e-20 -0.845983)
(4.43517 0 -0.799842)
(4.177 -6.51747e-23 -0.757764)
(3.94434 2.21837e-20 -0.719228)
(3.73335 2.03527e-20 -0.683797)
(3.54096 0 -0.6511)
(3.36466 0 -0.620821)
(3.20239 1.55199e-20 -0.592694)
(3.05243 0 -0.566487)
(2.91334 1.28661e-20 -0.542003)
(2.78391 -2.33601e-20 -0.519069)
(2.66311 0 -0.497536)
(2.55003 1.91434e-20 -0.477275)
(2.44393 0 -0.458169)
(2.34412 -1.55133e-20 -0.440118)
(2.25004 -2.77965e-20 -0.423033)
(2.16115 -2.47986e-20 -0.406833)
(2.07703 -1.10066e-20 -0.391448)
(1.99726 9.72016e-21 -0.376814)
(1.9215 3.41345e-20 -0.362874)
(1.84941 2.97272e-20 -0.349576)
(1.78073 0 -0.336874)
(1.7152 0 -0.324726)
(1.65258 -1.6898e-23 -0.313094)
(1.59266 0 -0.301941)
(1.53526 -6.10911e-21 -0.291237)
(1.4802 0 -0.280951)
(1.42733 -6.98412e-21 -0.271057)
(1.37649 0 -0.261531)
(1.32756 -2.56456e-21 -0.252348)
(1.28041 0 -0.243488)
(1.23493 -1.14585e-21 -0.234931)
(1.19102 0 -0.226659)
(1.14858 0 -0.218656)
(1.10752 5.55856e-21 -0.210904)
(1.06776 0 -0.203389)
(1.02921 0 -0.196099)
(0.991814 0 -0.189018)
(0.955494 1.95401e-20 -0.182137)
(0.920188 4.22227e-20 -0.175442)
(0.885838 0 -0.168923)
(0.852386 0 -0.162571)
(0.819783 -2.48496e-20 -0.156376)
(0.787977 -2.58251e-20 -0.150329)
(0.756926 0 -0.144421)
(0.726579 0 -0.138645)
(0.696907 0 -0.132994)
(0.667859 0 -0.127459)
(0.639416 -5.74882e-20 -0.122037)
(0.611523 5.80532e-20 -0.116718)
(0.584181 -1.16926e-19 -0.111501)
(0.557322 0 -0.106375)
(0.530972 0 -0.101345)
(0.505043 0 -0.0963927)
(0.479599 4.64176e-23 -0.0915323)
(0.454518 -1.16576e-19 -0.0867394)
(0.429913 -1.15786e-19 -0.0820371)
(0.405618 2.2955e-19 -0.0773918)
(0.381806 3.52821e-23 -0.0728395)
(0.35826 -1.12254e-19 -0.0683356)
(0.335215 -1.10801e-19 -0.0639288)
(0.312408 0 -0.0595646)
(0.290123 0 -0.055302)
(0.268071 0 -0.0510814)
(0.24655 2.07159e-19 -0.046964)
(0.225289 0 -0.0428945)
(0.204539 0 -0.0389233)
(0.18412 1.94302e-19 -0.0350153)
(0.16416 1.89733e-19 -0.0311939)
(0.144666 0 -0.0274636)
(0.125507 0 -0.0237936)
(0.106952 0 -0.020243)
(0.0884844 6.82277e-19 -0.0167038)
(0.0709572 -4.65678e-23 -0.0133508)
(0.0532102 3.21404e-19 -0.0099507)
(0.0371681 -3.11597e-19 -0.00688425)
(0.0202061 6.03403e-19 -0.00363528)
(0.00600996 2.9197e-19 -0.000918669)
(-0.0108792 5.64279e-19 0.00232017)
(-0.0228312 0 0.00460205)
(-0.0403126 0 0.00796169)
(-0.04938 0 0.00968222)
(-0.0678915 0 0.0132404)
(-0.0718605 4.71336e-19 0.013977)
(-0.0939982 0 0.018274)
(-0.0963022 0 0.0187008)
(-0.125671 -4.18476e-19 0.0243556)
(-0.11644 4.03845e-19 0.0224881)
(-0.147007 1.54716e-18 0.0283582)
(-0.119653 -7.45926e-19 0.0231209)
(-0.180309 0 0.0353747)
(-0.233167 0 0.046263)
(-0.427619 0 0.0836451)
(-0.424918 6.44734e-19 0.0816238)
(-0.395536 -6.39953e-19 0.0742486)
(-0.131207 0 0.022571)
(-0.0296662 2.4852e-18 0.00364465)
(0.172936 1.19293e-18 -0.0343707)
(0.131086 2.26579e-18 -0.0254783)
(0.215735 0 -0.0413847)
(0.143616 0 -0.0278395)
(0.252529 -9.64128e-19 -0.0487102)
(0.208652 0 -0.0411019)
(0.415796 -8.78406e-19 -0.0807837)
(0.368397 -8.34344e-19 -0.0720082)
(0.640472 0 -0.124737)
(31.8677 0 3.88272)
(31.0588 0 2.80828)
(28.5359 -1.30069e-20 1.01595)
(25.2002 0 -0.388455)
(21.9552 0 -1.23098)
(19.1879 1.51697e-20 -1.65507)
(16.934 1.33857e-20 -1.82312)
(15.1124 0 -1.85468)
(13.6273 4.20919e-22 -1.82103)
(12.3991 2.08518e-20 -1.75861)
(11.3673 -3.81025e-20 -1.68491)
(10.4877 -1.75976e-20 -1.60829)
(9.72827 1.14848e-22 -1.53271)
(9.06514 -1.48427e-20 -1.46004)
(8.48046 -1.36261e-20 -1.39105)
(7.96052 1.24542e-20 -1.32602)
(7.49468 -2.29363e-20 -1.26492)
(7.07454 -2.10222e-20 -1.20761)
(6.69337 0 -1.15385)
(6.34573 0 -1.10341)
(6.02716 1.60725e-20 -1.05603)
(5.73398 1.46745e-20 -1.01149)
(5.46311 0 -0.969562)
(5.21197 0 -0.930029)
(4.97837 2.21351e-20 -0.892706)
(4.76044 0 -0.857418)
(4.55656 -3.62718e-20 -0.824006)
(4.36535 1.63534e-20 -0.792328)
(4.18559 0 -0.762251)
(4.01624 1.31701e-20 -0.733657)
(3.85635 1.175e-20 -0.706438)
(3.70512 0 -0.680496)
(3.56181 -9.22046e-21 -0.655741)
(3.42578 -1.61744e-20 -0.632092)
(3.29646 1.16742e-23 -0.609473)
(3.17331 0 -0.587817)
(3.05589 0 -0.567059)
(2.94376 8.72255e-21 -0.547143)
(2.83654 0 -0.528015)
(2.7339 0 -0.509626)
(2.63551 0 -0.49193)
(2.54109 0 -0.474886)
(2.45037 0 -0.458453)
(2.36311 0 -0.442597)
(2.27909 0 -0.427283)
(2.1981 1.04245e-21 -0.41248)
(2.11995 -2.57592e-21 -0.398159)
(2.04447 0 -0.384291)
(1.9715 -5.25892e-21 -0.370851)
(1.90087 0 -0.357815)
(1.83246 0 -0.345161)
(1.76613 1.67411e-20 -0.332866)
(1.70175 0 -0.320911)
(1.63921 -1.99478e-20 -0.309277)
(1.5784 2.12572e-20 -0.297946)
(1.51922 0 -0.286902)
(1.46158 2.34883e-20 -0.276127)
(1.40538 0 -0.265608)
(1.35055 0 -0.255331)
(1.297 0 -0.245281)
(1.24467 5.26748e-20 -0.235448)
(1.19346 5.35641e-20 -0.225817)
(1.14336 2.78163e-23 -0.216381)
(1.09425 -1.09611e-19 -0.207124)
(1.04613 2.43947e-23 -0.198046)
(0.998887 0 -0.189125)
(0.95256 0 -0.18037)
(0.906999 -1.10797e-19 -0.171753)
(0.862301 3.73318e-23 -0.163294)
(0.818266 0 -0.154954)
(0.775074 0 -0.146771)
(0.732448 -1.08218e-19 -0.138687)
(0.690673 2.83528e-23 -0.130766)
(0.649384 2.64381e-23 -0.122928)
(0.608975 0 -0.115259)
(0.568995 0 -0.107664)
(0.529931 -2.02318e-19 -0.100246)
(0.491281 1.98761e-19 -0.0928991)
(0.453568 0 -0.0857339)
(0.416304 0 -0.0786477)
(0.379951 0 -0.0717366)
(0.344161 0 -0.0649303)
(0.309203 0 -0.0582803)
(0.275031 0 -0.0517828)
(0.241484 0 -0.0453948)
(0.20897 0 -0.0392105)
(0.176675 -6.41429e-19 -0.0330567)
(0.146005 -3.11464e-19 -0.0272269)
(0.115037 -3.02078e-19 -0.0213326)
(0.0869788 2.92801e-19 -0.0160069)
(0.0574213 -5.66823e-19 -0.0103839)
(0.0325553 -2.74245e-19 -0.0056524)
(0.00325179 -2.64942e-19 -7.24178e-05)
(-0.0176898 0 0.00390706)
(-0.0478283 0 0.00965981)
(-0.0637033 0 0.0126485)
(-0.0954174 0 0.0186904)
(-0.1027 -4.42191e-19 0.0200501)
(-0.1406 0 0.0274098)
(-0.144534 0 0.0281518)
(-0.193779 3.92374e-19 0.0375314)
(-0.177899 0 0.0342727)
(-0.230319 -7.2503e-19 0.0442272)
(-0.18665 6.99018e-19 0.0361291)
(-0.293662 0 0.0587342)
(-0.378889 0 0.0774793)
(-0.687202 0 0.135779)
(-0.657417 6.03477e-19 0.124714)
(-0.6043 0 0.108885)
(-0.160642 -5.9885e-19 0.0217784)
(-0.011551 -1.4046e-22 -0.004666)
(0.324813 -1.11645e-18 -0.0661186)
(0.242208 -2.12016e-18 -0.0475448)
(0.394451 0 -0.0759549)
(0.270721 9.55111e-19 -0.0530742)
(0.464517 9.01825e-19 -0.0904662)
(0.391861 8.66529e-19 -0.0788655)
(0.739521 0 -0.145164)
(0.661413 7.80141e-19 -0.131285)
(1.11595 0 -0.219552)
(32.3914 0 2.93843)
(32.9598 0 2.75475)
(32.4102 1.22958e-20 1.71253)
(30.7721 0 0.513115)
(28.5244 -1.23489e-20 -0.490713)
(26.1133 2.51232e-20 -1.21281)
(23.7984 0 -1.67541)
(21.6958 -2.19513e-20 -1.93936)
(19.839 2.10547e-20 -2.06852)
(18.2186 1.90528e-20 -2.11284)
(16.8071 1.79151e-20 -2.10612)
(15.5737 -1.62941e-20 -2.0696)
(14.4897 1.51772e-20 -2.01622)
(13.531 -2.76889e-20 -1.9538)
(12.6776 0 -1.88707)
(11.9132 -2.34944e-20 -1.8189)
(11.2246 0 -1.75102)
(10.6008 0 -1.6845)
(10.033 0 -1.61995)
(9.51385 1.65837e-20 -1.5577)
(9.03713 -3.45229e-23 -1.49793)
(8.59771 -2.63144e-23 -1.44068)
(8.19124 1.26337e-20 -1.38593)
(7.81404 0 -1.33364)
(7.46294 0 -1.2837)
(7.13524 0 -1.23602)
(6.82857 3.42895e-20 -1.19049)
(6.5409 -6.37381e-24 -1.147)
(6.27046 0 -1.10543)
(6.01566 0 -1.06568)
(5.77514 0 -1.02765)
(5.54768 0 -0.99123)
(5.33219 1.74404e-20 -0.956333)
(5.1277 0 -0.922871)
(4.93335 -1.33292e-20 -0.89076)
(4.74836 0 -0.859923)
(4.57202 0 -0.830285)
(4.40372 -8.26838e-21 -0.801778)
(4.24287 0 -0.774338)
(4.08894 0 -0.747905)
(3.94147 4.28278e-21 -0.722423)
(3.80001 -6.31813e-21 -0.697838)
(3.66418 0 -0.6741)
(3.53359 -2.35816e-21 -0.651164)
(3.40792 0 -0.628985)
(3.28686 -1.95052e-21 -0.607522)
(3.17011 1.84309e-23 -0.586736)
(3.05741 0 -0.566591)
(2.94851 0 -0.547052)
(2.84318 6.0224e-21 -0.528087)
(2.74121 1.40098e-20 -0.509664)
(2.64239 -3.15871e-20 -0.491755)
(2.54655 0 -0.474332)
(2.45349 -1.87832e-20 -0.45737)
(2.36307 -2.0066e-20 -0.440842)
(2.27513 -2.11528e-20 -0.424727)
(2.18952 -2.21263e-20 -0.409001)
(2.1061 0 -0.393644)
(2.02476 0 -0.378637)
(1.94536 -4.86283e-20 -0.363959)
(1.86781 -9.93416e-20 -0.349595)
(1.79198 -5.052e-20 -0.335525)
(1.7178 2.98657e-23 -0.321738)
(1.64515 5.16649e-20 -0.308213)
(1.57399 5.20023e-20 -0.294947)
(1.50417 0 -0.281911)
(1.43572 0 -0.269117)
(1.36844 1.04413e-19 -0.256524)
(1.30246 2.08115e-19 -0.244162)
(1.23749 0 -0.231973)
(1.17377 1.02766e-19 -0.220013)
(1.11092 1.01858e-19 -0.2082)
(1.04933 1.00823e-19 -0.196621)
(0.98848 1.99178e-19 -0.185166)
(0.928928 0 -0.173957)
(0.870028 0 -0.162854)
(0.812479 1.90386e-19 -0.152012)
(0.755546 -3.73969e-19 -0.14127)
(0.7 -1.83413e-19 -0.130795)
(0.645108 0 -0.120431)
(0.591578 0 -0.110328)
(0.538855 0 -0.100371)
(0.487394 0 -0.0906504)
(0.43705 0 -0.0811431)
(0.387679 0 -0.0718053)
(0.339794 -3.09975e-19 -0.0627564)
(0.292325 4.4634e-23 -0.0537716)
(0.247214 2.92446e-19 -0.0452531)
(0.201785 0 -0.0366692)
(0.160531 2.74829e-19 -0.0288918)
(0.117225 2.66017e-19 -0.020714)
(0.0806207 0 -0.0137897)
(0.037872 -2.48552e-19 -0.00571299)
(0.00703868 -4.80199e-19 0.000124305)
(-0.0366539 0 0.0083959)
(-0.0600149 0 0.0127736)
(-0.105716 0 0.0213971)
(-0.116895 -4.14486e-19 0.0235021)
(-0.171377 0 0.0340586)
(-0.176961 0 0.035158)
(-0.24637 3.67604e-19 0.0482263)
(-0.223547 -3.54597e-19 0.0435099)
(-0.299102 0 0.0577017)
(-0.240537 0 0.0472807)
(-0.397443 0 0.0814268)
(-0.510422 0 0.107872)
(-0.919107 0 0.184064)
(-0.842624 -1.63612e-22 0.158796)
(-0.765068 0 0.133001)
(-0.140664 5.60385e-19 0.00982058)
(0.0391136 -1.08805e-18 -0.0206554)
(0.509115 0 -0.104679)
(0.3759 3.69751e-23 -0.0739585)
(0.605535 0 -0.116548)
(0.42661 -5.07548e-23 -0.0838339)
(0.714901 0 -0.139652)
(0.612895 -8.10175e-19 -0.124497)
(1.10177 0 -0.217595)
(0.994052 7.29158e-19 -0.199152)
(1.62944 0 -0.323107)
(32.4959 0 2.08502)
(33.2548 0 2.21235)
(33.6035 0 1.73895)
(33.2422 0 0.946469)
(32.2234 1.16564e-20 0.106001)
(30.754 -9.00259e-22 -0.642075)
(29.039 0 -1.24237)
(27.2371 2.0719e-20 -1.68572)
(25.4576 0 -1.98921)
(23.7666 -3.54663e-20 -2.18103)
(22.1965 0 -2.28972)
(20.7573 1.53828e-20 -2.33921)
(19.4467 0 -2.34779)
(18.256 2.61426e-20 -2.3287)
(17.174 -1.19173e-20 -2.29121)
(16.1892 2.20371e-20 -2.24178)
(15.2908 -2.01914e-20 -2.18485)
(14.4689 -1.85502e-20 -2.12347)
(13.7147 0 -2.05974)
(13.0205 -1.56596e-20 -1.99514)
(12.3798 -1.43226e-20 -1.93064)
(11.7866 -2.61269e-20 -1.86693)
(11.2359 -1.19296e-20 -1.80447)
(10.7233 0 -1.74355)
(10.2451 0 -1.68437)
(9.79784 0 -1.62702)
(9.3786 -1.61834e-20 -1.57157)
(8.98481 -1.45968e-20 -1.51802)
(8.61419 0 -1.46635)
(8.26471 0 -1.41654)
(7.93458 1.04916e-20 -1.36852)
(7.6222 0 -1.32226)
(7.32614 1.10069e-24 -1.27767)
(7.04511 -1.44591e-20 -1.23469)
(6.77798 1.25977e-20 -1.19327)
(6.52368 0 -1.15332)
(6.28128 0 -1.11479)
(6.04993 7.80386e-21 -1.07761)
(5.82885 0 -1.04171)
(5.61732 0 -1.00704)
(5.4147 -4.04149e-21 -0.97353)
(5.22041 5.96182e-21 -0.941132)
(5.03388 0 -0.90979)
(4.85463 2.22488e-21 -0.879451)
(4.68218 0 -0.850066)
(4.51611 9.10934e-22 -0.821588)
(4.35603 2.27805e-21 -0.793972)
(4.20157 0 -0.767176)
(4.05239 4.63844e-21 -0.741157)
(3.90816 -5.67946e-21 -0.715878)
(3.7686 -2.63927e-20 -0.6913)
(3.63342 1.48781e-20 -0.667389)
(3.50238 -1.63468e-20 -0.644111)
(3.37521 2.48218e-23 -0.621433)
(3.25171 0 -0.599325)
(3.13165 1.99373e-20 -0.577758)
(3.01485 2.08528e-20 -0.556703)
(2.90109 -2.16277e-20 -0.536134)
(2.79022 2.23111e-20 -0.516026)
(2.68205 4.58148e-20 -0.496354)
(2.57647 4.67758e-20 -0.477098)
(2.47327 -4.75254e-20 -0.458232)
(2.37238 4.81693e-20 -0.439743)
(2.2736 0 -0.421602)
(2.17691 0 -0.403805)
(2.08207 4.90958e-20 -0.386316)
(1.98914 0 -0.369148)
(1.89784 0 -0.35225)
(1.80832 -9.79099e-20 -0.33566)
(1.72021 0 -0.319302)
(1.63383 -9.66872e-20 -0.303249)
(1.54865 -1.91606e-19 -0.287393)
(1.46519 0 -0.271849)
(1.38277 -9.36448e-20 -0.256472)
(1.30211 0 -0.241423)
(1.22236 0 -0.226515)
(1.14443 -1.78879e-19 -0.211956)
(1.06735 1.75724e-19 -0.197528)
(0.992146 3.92554e-23 -0.183461)
(0.917826 0 -0.169537)
(0.84537 0 -0.155967)
(0.773981 0 -0.142586)
(0.704342 -1.57515e-19 -0.129532)
(0.636166 1.5357e-19 -0.116751)
(0.569376 0 -0.104211)
(0.504552 5.81907e-19 -0.0920476)
(0.440413 2.82695e-19 -0.0799965)
(0.379419 -5.48828e-19 -0.068562)
(0.318145 -2.66038e-19 -0.0570778)
(0.262376 -5.15604e-19 -0.0466432)
(0.204036 0 -0.0357181)
(0.154505 0 -0.026409)
(0.097166 2.33058e-19 -0.0156691)
(0.0554368 4.50194e-19 -0.00781364)
(-0.00280326 -4.33904e-19 0.00310581)
(-0.0344106 0 0.00899926)
(-0.0949731 0 0.0202938)
(-0.110686 3.88348e-19 0.0232831)
(-0.182571 3.72819e-19 0.0371645)
(-0.189793 0 0.038634)
(-0.279677 -3.4427e-19 0.0553091)
(-0.249694 3.32041e-19 0.0490804)
(-0.349698 0 0.0676533)
(-0.277483 0 0.0555554)
(-0.486579 0 0.102483)
(-0.620382 0 0.135958)
(-1.11485 0 0.225998)
(-0.972282 -5.28363e-19 0.180305)
(-0.872054 0 0.143142)
(-0.0666979 0 -0.015979)
(0.125827 0 -0.0460665)
(0.729831 9.7656e-19 -0.15145)
(0.536276 9.27187e-19 -0.105864)
(0.853785 0 -0.164612)
(0.615448 -8.34997e-19 -0.121542)
(1.00737 0 -0.197847)
(0.874893 -7.57148e-19 -0.17955)
(1.50384 0 -0.299041)
(1.3682 -6.81425e-19 -0.276826)
(2.17971 0 -0.435709)
(32.5696 -5.01578e-21 1.47021)
(33.1537 -6.2193e-21 1.61135)
(33.6813 7.37953e-21 1.42176)
(33.9085 8.31313e-21 0.962132)
(33.7185 0 0.371433)
(33.1229 -9.96022e-21 -0.243389)
(32.1951 0 -0.816564)
(31.0258 1.75192e-20 -1.3111)
(29.7034 1.67581e-20 -1.71159)
(28.3042 3.23351e-20 -2.01845)
(26.8874 -1.48874e-20 -2.24134)
(25.495 1.39005e-20 -2.39372)
(24.1544 0 -2.4895)
(22.881 0 -2.54126)
(21.682 1.12354e-20 -2.55961)
(20.5595 -1.14822e-22 -2.55308)
(19.5117 1.76565e-22 -2.52829)
(18.5351 1.36369e-22 -2.49031)
(17.6254 0 -2.44298)
(16.7776 0 -2.38918)
(15.9868 0 -2.33106)
(15.2484 2.45502e-20 -2.27022)
(14.558 1.11831e-20 -2.20786)
(13.9115 0 -2.14488)
(13.3051 0 -2.08193)
(12.7355 1.68125e-20 -2.0195)
(12.1997 0 -1.95794)
(11.6948 0 -1.89751)
(11.2183 0 -1.83837)
(10.7679 0 -1.78066)
(10.3417 -6.73481e-24 -1.72445)
(9.93773 0 -1.66977)
(9.55433 -1.90213e-24 -1.61665)
(9.18998 1.36299e-20 -1.56509)
(8.84329 2.11729e-24 -1.51506)
(8.513 0 -1.46655)
(8.19796 0 -1.41952)
(7.89711 0 -1.37393)
(7.6095 0 -1.32974)
(7.33424 0 -1.2869)
(7.07052 0 -1.24536)
(6.81759 0 -1.20508)
(6.57477 -3.81696e-21 -1.16601)
(6.34141 -2.13155e-21 -1.12809)
(6.11693 0 -1.09129)
(5.90078 8.2457e-22 -1.05555)
(5.69245 0 -1.02083)
(5.49148 0 -0.987081)
(5.29742 -8.72274e-21 -0.954267)
(5.10987 0 -0.922344)
(4.92844 1.24141e-20 -0.891269)
(4.75276 0 -0.861004)
(4.58252 3.07592e-20 -0.831511)
(4.41738 2.40171e-23 -0.802754)
(4.25707 0 -0.774697)
(4.10129 0 -0.747306)
(3.94979 0 -0.72055)
(3.80231 4.06926e-20 -0.694396)
(3.65864 -4.19761e-20 -0.668816)
(3.51854 -4.30452e-20 -0.64378)
(3.38183 -4.39491e-20 -0.619263)
(3.24828 8.93962e-20 -0.595235)
(3.11778 4.52584e-20 -0.571679)
(2.99007 0 -0.54856)
(2.8651 0 -0.525875)
(2.74258 -2.37846e-23 -0.503578)
(2.62257 0 -0.481686)
(2.50471 0 -0.460135)
(2.3892 -9.1969e-20 -0.438971)
(2.27554 0 -0.418104)
(2.16413 0 -0.39762)
(2.05433 1.80001e-19 -0.377388)
(1.94675 -8.90231e-20 -0.357549)
(1.84054 0 -0.337921)
(1.7366 0 -0.318709)
(1.63385 0 -0.299675)
(1.53346 1.67995e-19 -0.281084)
(1.43417 0 -0.262656)
(1.3373 3.23547e-19 -0.244689)
(1.24156 -1.58433e-19 -0.226897)
(1.14825 0 -0.209563)
(1.05627 0 -0.192459)
(0.966598 1.4781e-19 -0.175783)
(0.87875 -2.70516e-23 -0.159441)
(0.792771 1.40255e-19 -0.143423)
(0.70927 -2.7289e-19 -0.127871)
(0.626801 2.65045e-19 -0.112497)
(0.548316 2.57306e-19 -0.0978961)
(0.469657 2.49436e-19 -0.0832786)
(0.397902 3.45978e-23 -0.0699574)
(0.323094 0 -0.0560702)
(0.259317 -2.26109e-19 -0.0441657)
(0.186111 0 -0.0305784)
(0.132371 0 -0.020526)
(0.0584788 4.06487e-19 -0.00681357)
(0.0177766 0 0.000745597)
(-0.0586231 0 0.0148157)
(-0.0795611 0 0.0188345)
(-0.169682 -3.49075e-19 0.0361473)
(-0.178487 0 0.038001)
(-0.289198 -3.22193e-19 0.0582151)
(-0.251885 0 0.0504778)
(-0.37763 0 0.073604)
(-0.292674 0 0.0603851)
(-0.554883 0 0.120847)
(-0.700204 0 0.160068)
(-1.26509 -4.9546e-19 0.259715)
(-1.03735 -4.93861e-19 0.18836)
(-0.918898 4.89898e-19 0.138751)
(0.0663391 0 -0.0560199)
(0.25282 0 -0.0813246)
(0.991593 -1.82592e-18 -0.207051)
(0.728144 0 -0.14403)
(1.14439 8.17552e-19 -0.220893)
(0.841908 0 -0.166871)
(1.34554 7.36488e-19 -0.265471)
(1.18123 7.07542e-19 -0.244374)
(1.94647 0 -0.389517)
(1.78543 -6.36586e-19 -0.364447)
(2.76455 0 -0.556981)
(32.6255 4.7235e-21 1.01758)
(33.0372 1.14706e-20 1.10591)
(33.4839 -6.95112e-21 1.02411)
(33.8499 -7.79539e-22 0.761882)
(34.0246 7.53272e-21 0.372646)
(33.9521 0 -0.0816693)
(33.6243 0 -0.551965)
(33.0614 -1.64969e-20 -1.00253)
(32.2988 -3.06576e-20 -1.40975)
(31.3787 -7.08597e-22 -1.76061)
(30.3445 1.40173e-20 -2.0506)
(29.2368 -1.3088e-20 -2.28106)
(28.0905 1.18448e-20 -2.4568)
(26.9335 0 -2.58441)
(25.7876 0 -2.67102)
(24.6681 -9.63517e-21 -2.72364)
(23.5855 3.52848e-20 -2.74863)
(22.5463 3.24991e-20 -2.75155)
(21.554 0 -2.7371)
(20.6099 0 -2.70916)
(19.7138 0 -2.6709)
(18.8648 -6.76944e-23 -2.62484)
(18.0608 -2.10074e-20 -2.57301)
(17.3 9.55334e-21 -2.51703)
(16.5799 1.73844e-20 -2.45815)
(15.8981 -3.16111e-20 -2.39738)
(15.2524 1.42873e-20 -2.33551)
(14.6404 1.28985e-20 -2.27316)
(14.06 1.16074e-20 -2.21079)
(13.509 0 -2.14878)
(12.9856 -9.3061e-21 -2.08742)
(12.4878 8.26004e-21 -2.02692)
(12.0141 -7.30682e-21 -1.96744)
(11.5627 -1.28247e-20 -1.9091)
(11.1323 -2.23593e-20 -1.85199)
(10.7216 0 -1.79616)
(10.3291 0 -1.74165)
(9.95381 -6.94172e-21 -1.68847)
(9.59461 0 -1.63663)
(9.25048 4.62986e-21 -1.58611)
(8.92049 3.60794e-21 -1.53691)
(8.60379 0 -1.489)
(8.29955 7.19907e-21 -1.44236)
(8.00704 2.00592e-21 -1.39695)
(7.72555 0 -1.35273)
(7.45442 -7.75888e-22 -1.30968)
(7.19307 -1.97372e-21 -1.26775)
(6.9409 0 -1.22691)
(6.69739 8.17798e-21 -1.18712)
(6.46205 -4.99124e-21 -1.14833)
(6.2344 -1.16251e-20 -1.11051)
(6.014 0 -1.07363)
(5.80044 -2.42196e-23 -1.03763)
(5.59333 3.12469e-20 -1.00249)
(5.3923 0 -0.968169)
(5.19701 0 -0.934628)
(5.00714 -1.83981e-20 -0.901834)
(4.82237 -1.91201e-20 -0.869754)
(4.64243 3.94269e-20 -0.838353)
(4.46701 4.04635e-20 -0.807601)
(4.29591 4.13096e-20 -0.777468)
(4.12881 -4.19955e-20 -0.747921)
(3.96559 -8.50368e-20 -0.718941)
(3.8059 0 -0.690487)
(3.64971 0 -0.662555)
(3.49664 -8.66874e-20 -0.635094)
(3.34675 0 -0.608121)
(3.19959 0 -0.581563)
(3.05539 8.63787e-20 -0.555474)
(2.91357 0 -0.529746)
(2.77457 -8.52354e-20 -0.504482)
(2.63763 -3.17718e-23 -0.479526)
(2.50346 8.35758e-20 -0.455048)
(2.37104 0 -0.430827)
(2.24145 0 -0.407113)
(2.11338 0 -0.383616)
(1.98823 1.57555e-19 -0.360658)
(1.86447 0 -0.337898)
(1.74372 -1.51751e-19 -0.315704)
(1.62438 2.97199e-19 -0.293718)
(1.50806 0 -0.272301)
(1.39339 0 -0.251157)
(1.28163 0 -0.230552)
(1.17208 -2.68159e-23 -0.210341)
(1.06495 -1.31486e-19 -0.190549)
(0.960845 -2.55706e-19 -0.171318)
(0.858203 -2.48411e-19 -0.152345)
(0.760443 2.41051e-19 -0.134309)
(0.662679 0 -0.116309)
(0.573295 2.26381e-19 -0.0998554)
(0.480418 0 -0.0827772)
(0.400928 2.11788e-19 -0.0680531)
(0.310428 0 -0.0514247)
(0.243434 0 -0.0389854)
(0.152655 0 -0.0223217)
(0.101903 -3.67003e-19 -0.0129595)
(0.00856523 -3.53056e-19 0.0039765)
(-0.0183282 0 0.00922059)
(-0.127541 3.26623e-19 0.0300397)
(-0.13784 -3.14526e-19 0.0322731)
(-0.26981 3.01468e-19 0.0559272)
(-0.225015 -2.90662e-19 0.0466831)
(-0.377722 0 0.0744994)
(-0.28034 0 0.0607083)
(-0.59504 0 0.135164)
(-0.740241 0 0.178242)
(-1.36007 4.63299e-19 0.282869)
(-1.02908 1.70764e-22 0.180275)
(-0.899414 -9.15855e-19 0.118015)
(0.2635 0 -0.111559)
(0.424825 0 -0.127416)
(1.29947 8.53271e-19 -0.272512)
(0.956891 0 -0.189576)
(1.48255 -7.64005e-19 -0.286627)
(1.11097 0 -0.220976)
(1.73243 -1.37622e-18 -0.343443)
(1.53521 0 -0.319815)
(2.42946 0 -0.489192)
(2.24666 5.94671e-19 -0.462396)
(3.38061 0 -0.686419)
(32.6513 0 0.663935)
(32.9532 -5.28028e-21 0.708307)
(33.2906 0 0.659821)
(33.6216 -6.63371e-21 0.497704)
(33.8833 -1.35265e-20 0.236778)
(34.0248 0 -0.0912338)
(34.0177 6.75046e-21 -0.454914)
(33.8506 0 -0.828167)
(33.5241 8.99865e-22 -1.1908)
(33.0477 -2.60112e-20 -1.52836)
(32.4374 0 -1.83154)
(31.7135 0 -2.09543)
(30.898 -1.11407e-20 -2.31844)
(30.0132 0 -2.50131)
(29.0801 0 -2.64631)
(28.1176 0 -2.7567)
(27.1418 -1.64838e-20 -2.83626)
(26.166 -1.51981e-20 -2.88892)
(25.2009 -1.38035e-20 -2.91856)
(24.2542 0 -2.92879)
(23.332 0 -2.92291)
(22.4382 -1.07855e-20 -2.90379)
(21.5753 9.85411e-21 -2.87396)
(20.7448 -8.98518e-21 -2.83554)
(19.9473 -1.63505e-20 -2.79036)
(19.1828 2.96134e-20 -2.7399)
(18.4506 -5.48637e-23 -2.68543)
(17.7501 -1.2131e-20 -2.62797)
(17.0801 -1.09166e-20 -2.56837)
(16.4394 0 -2.50733)
(15.8269 0 -2.44542)
(15.2411 -7.768e-21 -2.3831)
(14.6808 0 -2.32073)
(14.1446 1.20602e-20 -2.25861)
(13.6314 1.05115e-20 -2.19698)
(13.1399 -9.07228e-21 -2.13604)
(12.669 0 -2.07592)
(12.2174 6.52714e-21 -2.01674)
(11.7842 5.39792e-21 -1.95858)
(11.3684 3.26252e-24 -1.90151)
(10.9689 -6.78857e-21 -1.84557)
(10.5849 0 -1.79079)
(10.2155 -3.39083e-21 -1.73717)
(9.85994 0 -1.68474)
(9.51743 0 -1.63347)
(9.18725 0 -1.58336)
(8.86873 1.32334e-23 -1.5344)
(8.56122 0 -1.48656)
(8.26413 -3.83629e-21 -1.43981)
(7.97686 9.36852e-21 -1.39413)
(7.69891 1.09243e-20 -1.34949)
(7.42974 0 -1.30586)
(7.16888 -1.35576e-20 -1.2632)
(6.91587 -2.93139e-20 -1.22149)
(6.67028 0 -1.18068)
(6.4317 0 -1.14075)
(6.19976 1.72823e-20 -1.10166)
(5.97406 1.79233e-20 -1.06337)
(5.7543 -1.85068e-20 -1.02585)
(5.54009 -3.79366e-20 -0.989078)
(5.33119 0 -0.953014)
(5.12723 0 -0.917623)
(4.92803 2.77195e-23 -0.882887)
(4.7332 -4.02551e-20 -0.848761)
(4.54267 0 -0.81524)
(4.356 4.06751e-20 -0.782269)
(4.17325 0 -0.749867)
(3.99388 0 -0.717952)
(3.81815 0 -0.686585)
(3.64536 0 -0.655643)
(3.47603 3.35965e-23 -0.625247)
(3.30923 -3.14419e-23 -0.595213)
(3.14582 -7.83433e-20 -0.565743)
(2.98459 0 -0.536577)
(2.82678 -7.62866e-20 -0.508009)
(2.67086 0 -0.479696)
(2.51847 -1.4774e-19 -0.452025)
(2.36777 1.45011e-19 -0.424582)
(2.22073 -1.42192e-19 -0.397817)
(2.07539 -1.39281e-19 -0.371292)
(1.93374 0 -0.345454)
(1.79405 1.33041e-19 -0.319931)
(1.65795 0 -0.295067)
(1.52446 -1.26536e-19 -0.270659)
(1.39402 -1.23142e-19 -0.246776)
(1.2672 2.39546e-19 -0.223552)
(1.14234 0 -0.200685)
(1.02333 -4.51498e-19 -0.178925)
(0.904545 0 -0.15727)
(0.795707 2.11916e-19 -0.137418)
(0.682973 0 -0.1169)
(0.58614 1.98218e-19 -0.0991143)
(0.476747 0 -0.079233)
(0.395118 3.69527e-19 -0.0642021)
(0.286061 -3.56069e-19 -0.044416)
(0.22419 3.43442e-19 -0.0331051)
(0.112682 3.30355e-19 -0.0131676)
(0.0790564 0 -0.00652177)
(-0.0501543 -6.11084e-19 0.017829)
(-0.0618201 5.88395e-19 0.020459)
(-0.215584 0 0.0474628)
(-0.163108 2.71839e-19 0.0367463)
(-0.343866 0 0.0693515)
(-0.233574 0 0.0553739)
(-0.59861 -4.76107e-19 0.143808)
(-0.729902 0 0.188271)
(-1.38972 0 0.293107)
(-0.938612 4.31464e-19 0.154476)
(-0.807275 8.55692e-19 0.0796436)
(0.530082 4.27705e-19 -0.183477)
(0.647296 0 -0.185308)
(1.65905 0 -0.34883)
(1.22858 0 -0.243638)
(1.87348 0 -0.362778)
(1.4281 6.81114e-19 -0.28486)
(2.17046 6.42789e-19 -0.432265)
(1.94025 0 -0.406473)
(2.95169 0 -0.59791)
(2.75206 0 -0.570741)
(4.02346 0 -0.823238)
(32.6514 4.23616e-21 0.375197)
(32.8838 0 0.392098)
(33.1399 4.95309e-21 0.352369)
(33.4052 0 0.239957)
(33.6487 6.05237e-21 0.0553873)
(33.8391 0 -0.186652)
(33.9533 -6.34458e-21 -0.467025)
(33.9766 1.16439e-20 -0.767792)
(33.8997 2.37702e-20 -1.07379)
(33.7179 7.27746e-22 -1.37303)
(33.4308 0 -1.65652)
(33.0418 0 -1.91804)
(32.5576 0 -2.15373)
(31.9872 0 -2.36153)
(31.3417 0 -2.54067)
(30.6328 0 -2.69144)
(29.8732 1.48587e-20 -2.81484)
(29.075 -1.3779e-20 -2.91246)
(28.2497 1.29699e-20 -2.98628)
(27.4077 0 -3.0385)
(26.5582 0 -3.07145)
(25.709 9.93283e-21 -3.08744)
(24.8666 9.0988e-21 -3.08871)
(24.0361 8.31513e-21 -3.07737)
(23.2215 0 -3.05533)
(22.4259 -1.38789e-20 -3.02434)
(21.6514 -2.50723e-20 -2.98592)
(20.8996 1.12982e-20 -2.94142)
(20.1712 0 -2.89202)
(19.4669 0 -2.8387)
(18.7868 0 -2.78234)
(18.1306 7.26249e-21 -2.72366)
(17.498 0 -2.66329)
(16.8885 0 -2.60173)
(16.3014 9.84761e-21 -2.53943)
(15.736 8.52256e-21 -2.47675)
(15.1917 0 -2.41399)
(14.6674 6.1263e-21 -2.35139)
(14.1626 -1.01387e-20 -2.28918)
(13.6762 -4.09187e-21 -2.2275)
(13.2076 3.1902e-21 -2.1665)
(12.7559 0 -2.10628)
(12.3203 0 -2.04692)
(11.9002 0 -1.98849)
(11.4946 5.23702e-22 -1.93103)
(11.1031 0 -1.87458)
(10.7247 1.72963e-21 -1.81916)
(10.359 2.69286e-21 -1.76477)
(10.0053 0 -1.71143)
(9.6629 -4.39217e-21 -1.65913)
(9.33133 0 -1.60785)
(9.01001 0 -1.55759)
(8.69842 -1.26842e-20 -1.50832)
(8.39605 2.09439e-23 -1.46003)
(8.10243 1.46531e-20 -1.41268)
(7.81708 0 -1.36626)
(7.5396 0 -1.32073)
(7.26953 -1.68208e-20 -1.27607)
(7.00652 0 -1.23225)
(6.75014 3.55986e-20 -1.18923)
(6.5001 0 -1.14699)
(6.25597 0 -1.1055)
(6.01754 7.48028e-20 -1.06474)
(5.78437 7.55016e-20 -1.02465)
(5.55635 3.79751e-20 -0.985242)
(5.33297 0 -0.94645)
(5.11429 0 -0.908301)
(4.8997 3.80893e-20 -0.870702)
(4.68946 7.59067e-20 -0.833727)
(4.48278 0 -0.797233)
(4.28022 7.49505e-20 -0.761362)
(4.08074 -7.42534e-20 -0.725904)
(3.8853 7.34417e-20 -0.691094)
(3.69248 -7.24915e-20 -0.656629)
(3.50373 7.15012e-20 -0.622855)
(3.31724 0 -0.589369)