/*--------------------------------*- C++ -*----------------------------------*\
| =========                 |                                                 |
| \\      /  F ield         | OpenFOAM: The Open Source CFD Toolbox           |
|  \\    /   O peration     | Version:  2412                                  |
|   \\  /    A nd           | Website:  www.openfoam.com                      |
|    \\/     M anipulation  |                                                 |
\*---------------------------------------------------------------------------*/
FoamFile
{
    version     2.0;
    format      ascii;
    arch        "LSB;label=32;scalar=64";
    class       surfaceScalarField;
    location    "1.78";
    object      ddtCorrDdt0(phi);
}
// * * * * * * * * * * * * * * * * * * * * * * * * * * * * * * * * * * * * * //

dimensions      [0 3 -2 0 0 0 0];

oriented        oriented;

internalField   nonuniform List<scalar> 
24930
(
0.000744263
-0.000693865
-0.000624691
0.00141967
-3.10919e-05
0.0014559
0.00022531
0.00126732
0.000169669
0.00115973
0.000112178
0.00112299
0.000126101
0.00107234
0.000157016
0.000929442
0.000162999
0.000729296
0.000145468
0.000506813
0.000126054
0.000294931
0.000111026
0.000113192
0.000102818
-3.24561e-05
9.9925e-05
-0.00014533
9.93082e-05
-0.000233116
9.84577e-05
-0.000303557
9.61631e-05
-0.00036132
9.22461e-05
-0.000406872
8.69976e-05
-0.00043763
8.08137e-05
-0.000450459
7.40606e-05
-0.000443945
6.70441e-05
-0.00041938
6.00452e-05
-0.000380357
5.33608e-05
-0.000331573
4.72762e-05
-0.000277599
4.1997e-05
-0.000222138
3.76214e-05
-0.000167867
3.41355e-05
-0.000116554
3.13836e-05
-6.92e-05
2.90135e-05
-2.6133e-05
2.64794e-05
1.2874e-05
2.31056e-05
4.84009e-05
1.82154e-05
8.11655e-05
1.12279e-05
0.000111759
1.7878e-06
0.000140433
-1.01684e-05
0.000166859
-2.42937e-05
0.000190108
-3.9871e-05
0.00020867
-5.5776e-05
0.000220801
-7.06788e-05
0.000224737
-8.30449e-05
0.000219212
-9.14999e-05
0.000203584
-9.48018e-05
0.000178299
-9.23109e-05
0.000144642
-8.37334e-05
0.000105066
-6.96401e-05
6.2539e-05
-5.08656e-05
2.08371e-05
-2.91021e-05
-1.65727e-05
-5.89867e-06
-4.61028e-05
1.64622e-05
-6.55762e-05
3.63701e-05
-7.33908e-05
5.16365e-05
-7.03838e-05
6.14954e-05
-5.80661e-05
6.47614e-05
-4.05721e-05
6.25202e-05
-2.15453e-05
5.52395e-05
-6.38647e-06
4.61346e-05
2.22201e-06
3.65219e-05
9.95211e-07
3.01761e-05
-8.55986e-06
2.69083e-05
-2.57278e-05
2.88039e-05
-4.44911e-05
3.27332e-05
-6.19819e-05
3.86169e-05
-7.0758e-05
4.15744e-05
-6.99702e-05
4.10281e-05
-5.43747e-05
3.27885e-05
-2.81554e-05
1.82461e-05
1.06688e-05
-5.18501e-06
5.30114e-05
-3.23269e-05
9.9375e-05
-6.70351e-05
0.000137543
-9.87649e-05
0.000169252
-0.000134738
0.000182113
-0.000153941
0.0001839
-0.000166382
0.000165652
-0.000148589
0.000143197
-0.000128687
0.000107995
-9.51842e-05
7.90877e-05
-7.70382e-05
4.39227e-05
-4.47577e-05
2.4323e-05
-1.18797e-05
4.77554e-06
3.60677e-05
8.09367e-06
3.82255e-05
1.95956e-05
3.736e-05
5.31669e-05
-1.09461e-05
0.000112725
-2.76335e-05
0.000119936
-0.000114759
0.00022357
-0.00038328
0.00011205
-0.000393189
7.62825e-05
0.000432604
0.000360308
-0.000190627
-0.000588316
0.000191647
0.000539269
-0.0838031
-0.000678583
0.000875249
0.000682433
-0.000473651
0.000402519
-0.000430047
-0.00246017
0.00345941
0.00459048
-0.00493013
-0.00557723
0.00724854
-0.000741328
-0.0013155
0.000538651
-0.00175431
-0.0043875
0.00539726
0.0105394
-0.0143384
-0.00488068
0.0171906
0.00542041
-0.00674534
0.00217661
0.000320745
0.00149811
0.00333996
-0.00647342
0.00595735
-0.00249881
-0.00335693
0.00681495
-0.0131533
-0.0213985
0.0237941
0.0172186
-0.0260513
0.0287013
-0.0179842
-0.0118839
0.0341818
-0.0246
0.0192663
0.0044306
-0.0206887
0.0149236
-0.0107079
-0.0131914
0.0394815
0.0006211
-0.00808306
0.0148895
-0.0126353
-0.0016091
0.0178314
0.00464923
0.000557293
-0.000496224
-0.000328556
0.0013035
2.12287e-06
0.0015438
0.00041142
0.00155485
0.000480517
0.00154747
0.000471867
0.00153749
0.000448371
0.00146619
0.000406531
0.00133686
0.000360214
0.00115586
0.00029981
0.000959465
0.000247254
0.000774651
0.000215405
0.000612941
0.000202486
0.000474758
0.000196437
0.00035506
0.00018512
0.000246843
0.000163753
0.000143776
0.000135056
4.29307e-05
0.000104593
-5.36625e-05
7.65318e-05
-0.000140059
5.25134e-05
-0.000209522
3.26959e-05
-0.000257658
1.70212e-05
-0.000283872
5.74037e-06
-0.000290828
-7.66025e-07
-0.000282762
-2.44532e-06
-0.000263819
2.14036e-07
-0.000237215
6.42759e-06
-0.000205217
1.54626e-05
-0.000169452
2.67145e-05
-0.000131105
3.94795e-05
-9.09576e-05
5.27831e-05
-4.94057e-05
6.53591e-05
-6.59037e-06
7.58427e-05
3.74335e-05
8.28924e-05
8.24148e-05
8.54825e-05
0.000127653
8.30193e-05
0.000171692
7.56195e-05
0.000212331
6.38436e-05
0.000246723
4.87817e-05
0.000271898
3.15314e-05
0.000285059
1.35786e-05
0.000284263
-3.86934e-06
0.000268499
-1.91805e-05
0.000238278
-3.13647e-05
0.000195211
-3.89459e-05
0.000142555
-4.17607e-05
8.43126e-05
-3.91356e-05
2.58017e-05
-3.23352e-05
-2.79911e-05
-2.14259e-05
-7.165e-05
-8.89384e-06
-0.000101686
5.07648e-06
-0.000115191
1.73091e-05
-0.000112765
2.84459e-05
-9.57314e-05
3.49893e-05
-6.9351e-05
3.90484e-05
-3.80834e-05
3.70973e-05
-9.50337e-06
3.35927e-05
1.25799e-05
2.4866e-05
2.25494e-05
1.76734e-05
2.16572e-05
6.87582e-06
9.11277e-06
9.5676e-07
-7.66347e-06
-8.00413e-06
-2.63311e-05
-9.76509e-06
-3.65231e-05
-1.59407e-05
-3.76913e-05
-1.38918e-05
-2.09495e-05
-1.95016e-05
8.10718e-06
-1.61546e-05
5.48136e-05
-2.42939e-05
0.000106536
-2.15025e-05
0.000166805
-3.46504e-05
0.000217767
-3.34364e-05
0.000264884
-5.29816e-05
0.000288708
-5.0102e-05
0.000302915
-6.86982e-05
0.000290533
-5.22808e-05
0.000276618
-6.45567e-05
0.000242998
-4.23607e-05
0.000221283
-6.36088e-05
0.000185762
-3.87976e-05
0.000174713
-5.19183e-05
0.00015395
-6.21436e-06
0.000166892
-2.7727e-05
0.000181856
-1.11874e-05
0.000213258
-3.19174e-05
0.000318872
-9.77218e-05
0.000228881
0.00011816
0.000573896
-0.000555249
2.93548e-05
0.000490015
0.000359733
-0.000396925
0.00103522
-0.000871541
-0.00142346
0.0031997
0.0018303
0.00214514
-0.00215582
0.00494408
0.00262979
-0.00568112
-0.000565112
0.00330989
-0.0047852
0.00673219
0.0151237
-0.0248385
-0.0152196
0.0403516
0.0071875
-0.0244163
-0.00137604
0.00730676
-0.0135745
0.0160381
0.0212467
-0.0479281
-0.0126638
0.0449363
0.0186596
-0.0296778
0.0061283
0.0149398
0.0073583
0.00110435
-0.0180442
0.0313039
-0.00544405
-0.0173756
0.00786046
-0.0234912
-0.0652073
0.0972488
0.0554299
-0.152435
0.0793836
-0.037882
-0.0398922
0.155483
-0.0662569
0.0442739
0.0166602
-0.106781
0.035496
-0.0273248
-0.0423985
0.103848
0.00933765
-0.0642622
0.0443084
-0.0484821
-0.00895265
0.0627496
0.0176102
0.000361431
-0.000183167
-0.000262542
0.000803621
2.20747e-05
0.00107726
0.000376463
0.00123713
0.000577814
0.00136335
0.000682969
0.00142734
0.000704304
0.00140574
0.000641891
0.00131262
0.000527912
0.00117737
0.000395809
0.00103655
0.000287332
0.000910834
0.000227728
0.000803337
0.000212684
0.000708808
0.000216017
0.000620963
0.000211039
0.000534135
0.000187082
0.000443251
0.000149807
0.000345674
0.000110501
0.000243608
7.66396e-05
0.000144016
4.99233e-05
5.55105e-05
2.93149e-05
-1.55162e-05
1.4145e-05
-6.69768e-05
4.95726e-06
-0.000100615
2.57986e-06
-0.000119966
6.9396e-06
-0.000128385
1.68187e-05
-0.000128179
3.06435e-05
-0.000120761
4.73193e-05
-0.000107133
6.63446e-05
-8.81328e-05
8.72496e-05
-6.44179e-05
0.000109101
-3.63724e-05
0.000130329
-4.16399e-06
0.000148993
3.21119e-05
0.000162988
7.21126e-05
0.000170569
0.000114938
0.000170574
0.000158773
0.00016288
0.00020093
0.000147929
0.000238003
0.000126859
0.000266508
0.000100717
0.000283224
7.12537e-05
0.000285914
3.99961e-05
0.00027335
9.58141e-06
0.000245888
-1.79906e-05
0.000204985
-3.95402e-05
0.000153834
-5.394e-05
9.64443e-05
-5.9223e-05
3.83251e-05
-5.68649e-05
-1.52899e-05
-4.65459e-05
-5.85851e-05
-3.22921e-05
-8.77777e-05
-1.44229e-05
-9.96334e-05
1.54165e-06
-9.47138e-05
1.64379e-05
-7.4249e-05
2.40163e-05
-4.37396e-05
2.75157e-05
-7.72124e-06
2.07972e-05
2.57625e-05
1.1525e-05
5.2775e-05
-5.94253e-06
6.71699e-05
-1.91677e-05
7.02779e-05
-3.55656e-05
6.08966e-05
-3.9546e-05
4.68483e-05
-4.39347e-05
3.0154e-05
-3.17071e-05
2.19362e-05
-2.43846e-05
2.24602e-05
-2.91337e-06
4.17388e-05
2.11327e-06
7.36391e-05
1.69733e-05
0.000124748
4.3919e-06
0.000181245
3.88059e-06
0.000247995
-2.9345e-05
0.000305173
-3.96246e-05
0.000359959
-8.43461e-05
0.000390203
-8.92323e-05
0.000412259
-0.000129074
0.000405633
-0.000107526
0.000399623
-0.000128264
0.000371057
-7.69997e-05
0.000357809
-9.34572e-05
0.00032653
-2.93092e-05
0.0003253
-5.55372e-05
0.000307687
2.14682e-05
0.00033162
-1.92293e-05
0.000354234
2.47341e-05
0.000383586
3.00651e-05
0.000543343
-0.000164689
0.000336452
0.000387441
0.000961012
-0.00112426
4.92975e-05
0.00136914
0.000660564
-0.00114364
0.00170779
-0.00203689
-0.00220952
0.00687515
0.00337883
-0.0024821
-0.00375279
0.0118596
0.00479237
-0.0139158
-0.00248854
0.0104662
-0.00641498
0.0110152
0.0262873
-0.057465
-0.0248612
0.0891734
0.00696242
-0.0557466
-0.0045673
0.0190729
-0.0240372
0.0359491
0.0272979
-0.0994332
-0.0217465
0.0932628
0.0344424
-0.101302
0.0103348
0.0375606
0.0161137
-0.00471888
-0.0282265
0.0756184
-0.00765962
-0.0370782
0.000542813
-0.0325314
-0.111718
0.207115
0.11137
-0.373558
0.126724
-0.0540439
-0.0736883
0.353624
-0.100584
0.0592894
0.0326939
-0.222335
0.0507658
-0.0451136
-0.0755986
0.229776
0.0251336
-0.164241
0.0749248
-0.0983526
-0.0212163
0.166651
0.0362077
0.000320202
0.000107211
-0.000336349
0.000517923
0.000130542
0.000721705
0.000399009
0.000954075
0.000667411
0.00115576
0.000842887
0.00127701
0.000901606
0.00128564
0.0008337
0.00120146
0.000671842
0.00107477
0.000471378
0.000952849
0.000298266
0.000857684
0.00019886
0.000785853
0.000174923
0.000724049
0.000188621
0.000662331
0.000195478
0.000596097
0.000174941
0.000522395
0.000134278
0.000439024
9.1163e-05
0.000347243
5.6837e-05
0.000253387
3.2442e-05
0.000166649
1.48261e-05
9.47157e-05
2.50878e-06
4.06689e-05
-2.99948e-06
3.03912e-06
4.2386e-07
-2.18135e-05
1.29129e-05
-3.72218e-05
3.23078e-05
-4.51706e-05
5.58912e-05
-4.65813e-05
8.20106e-05
-4.19825e-05
0.000110264
-3.18508e-05
0.000140499
-1.65782e-05
0.000171897
3.69153e-06
0.000202592
2.90598e-05
0.000230027
5.97219e-05
0.000251305
9.55751e-05
0.000264002
0.000135828
0.000266507
0.000178584
0.000258628
0.000220902
0.000240816
0.000259017
0.000214315
0.000289087
0.000180035
0.00030758
0.000139846
0.000312054
9.53676e-05
0.000301113
5.00583e-05
0.000275
6.72713e-06
0.000235043
-2.98451e-05
0.000184412
-5.77206e-05
0.000127152
-7.36251e-05
6.90064e-05
-7.92301e-05
1.54596e-05
-7.34643e-05
-2.72862e-05
-6.15673e-05
-5.52278e-05
-4.3275e-05
-6.48895e-05
-2.6039e-05
-5.69241e-05
-8.10916e-06
-3.2578e-05
1.4784e-06
2.26485e-06
7.38546e-06
4.29193e-05
5.60725e-08
8.07942e-05
-9.85851e-06
0.00011188
-3.15761e-05
0.000129549
-4.74442e-05
0.000135413
-6.90519e-05
0.000127991
-7.33782e-05
0.000115791
-7.93048e-05
0.000100631
-6.08253e-05
9.46384e-05
-4.95522e-05
9.77572e-05
-1.61019e-05
0.000121227
-6.18895e-06
0.000158085
2.0567e-05
0.000216126
7.5911e-06
0.00027985
1.50354e-05
0.000355418
-2.56353e-05
0.000420474
-3.04505e-05
0.000484076
-8.74144e-05
0.000520871
-8.63226e-05
0.000550422
-0.000142824
0.000548316
-0.000113271
0.000549044
-0.00015406
0.000523913
-8.59398e-05
0.000518423
-0.000122807
0.00049057
-3.19957e-05
0.00050012
-9.1328e-05
0.000486505
1.82397e-05
0.000524858
-6.04424e-05
0.000557611
1.33723e-05
0.000591001
5.15956e-05
0.000808692
-0.000313379
0.00049327
0.000778425
0.00141136
-0.0020064
0.000102769
0.00275841
0.00106612
-0.0022905
0.00235843
-0.00343249
-0.00288669
0.0121561
0.00511193
-0.0157112
-0.0054318
0.0223117
0.00707463
-0.0263679
-0.00519843
0.0228408
-0.00750591
0.013171
0.0375979
-0.10231
-0.0343602
0.164837
0.0141019
-0.104159
-0.00893011
0.0427172
-0.0354872
0.0619844
0.0304533
-0.164747
-0.0326952
0.155584
0.0522406
-0.174404
0.0150218
0.0765045
0.0284642
-0.0185892
-0.0362871
0.140168
-0.00874051
-0.064966
-0.0155648
-0.0252377
-0.160898
0.351025
0.178908
-0.714863
0.169614
-0.043843
-0.112191
0.635653
-0.0901655
0.0366336
0.0520449
-0.363089
0.0601292
-0.0521817
-0.111982
0.399441
0.0486248
-0.325704
0.105825
-0.155646
-0.0388473
0.308536
0.0575067
0.000337102
0.000376198
-0.000354425
0.000441894
0.000361267
0.000588393
0.000551511
0.000831622
0.000802964
0.00106831
0.000986023
0.00121654
0.00105329
0.00123896
0.000986468
0.00115308
0.000802463
0.00101233
0.000553427
0.000878701
0.000316971
0.00078581
0.000164432
0.000730143
0.0001165
0.000689069
0.000133481
0.000644377
0.000153047
0.000590266
0.000139034
0.000526932
9.65625e-05
0.000454258
5.02497e-05
0.00037265
1.71006e-05
0.000286526
-1.76495e-06
0.000204454
-1.27996e-05
0.000135181
-1.95675e-05
8.31762e-05
-1.96073e-05
4.74345e-05
-8.57288e-06
2.39224e-05
1.45347e-05
8.84004e-06
4.6464e-05
1.24584e-07
8.28187e-05
-2.89232e-06
0.000120976
-3.74661e-07
0.00016046
7.53087e-06
0.000201424
2.06729e-05
0.000243222
3.90936e-05
0.000283744
6.30867e-05
0.000319836
9.30713e-05
0.000347816
0.000129136
0.000364665
0.000170563
0.000368483
0.000215344
0.000359226
0.000260266
0.000337528
0.000301186
0.000304837
0.000333898
0.000261913
0.000354573
0.000210666
0.000360597
0.00015268
0.000350467
9.21695e-05
0.000324404
3.26791e-05
0.000283712
-1.93764e-05
0.000231674
-6.13038e-05
0.000172506
-8.84626e-05
0.000112347
-0.000102761
5.70651e-05
-0.000102176
1.33857e-05
-9.3113e-05
-1.44078e-05
-7.44047e-05
-2.25267e-05
-5.54731e-05
-1.17448e-05
-3.34222e-05
1.66734e-05
-2.04495e-05
5.63425e-05
-1.0424e-05
0.000102388
-1.70081e-05
0.000145508
-2.64872e-05
0.000181607
-5.25028e-05
0.000203417
-7.18155e-05
0.000212896
-0.000100985
0.000208158
-0.000108519
0.00019857
-0.000119905
0.000185644
-9.83832e-05
0.000182796
-8.63136e-05
0.000189487
-4.20095e-05
0.000218494
-2.77287e-05
0.0002617
1.28539e-05
0.000328433
1.25162e-06
0.000401005
2.02441e-05
0.000487286
-2.65273e-05
0.000561726
-2.33873e-05
0.000635876
-9.44712e-05
0.000680369
-8.68851e-05
0.000718899
-0.000164714
0.000722138
-0.000126949
0.000731049
-0.000194808
0.000710093
-0.000110583
0.000714095
-0.000177393
0.000690608
-5.78229e-05
0.000713331
-0.000156803
0.000705062
-5.72542e-06
0.000761279
-0.000133214
0.000805768
-2.58273e-05
0.000848264
4.64178e-05
0.00112486
-0.000531717
0.000708153
0.00125323
0.00192427
-0.00319341
0.000197722
0.00453856
0.00158017
-0.00376406
-0.00910361
-0.00629917
-0.00352742
0.0199248
0.00700582
-0.0277284
-0.00715552
0.0363866
0.0095284
-0.0429742
-0.00862901
0.041123
-0.00813277
0.0126957
0.0486381
-0.159002
-0.04354
0.251294
0.0240002
-0.171781
-0.0142835
0.0817954
-0.0474432
0.0949071
0.0309056
-0.242726
-0.0455654
0.231558
0.071254
-0.296459
0.0202227
0.124766
0.044998
-0.043763
-0.0413874
0.226311
-0.0076016
-0.0987017
-0.0404756
0.0078853
-0.213009
0.52295
0.255757
-1.18317
0.207405
0.00498644
-0.152688
0.995747
-0.112376
-0.00144381
0.0739622
-0.548013
0.0633688
-0.0408977
-0.150573
0.61223
0.0797655
-0.556699
0.136098
-0.212114
-0.0541488
0.498529
0.0867975
0.00035353
0.000604796
-0.00031566
0.000476793
0.000621259
0.000598414
0.00076045
0.000819968
0.000953945
0.00105265
0.00109812
0.00121316
0.00114877
0.00125247
0.00108374
0.00117607
0.000901365
0.00102862
0.000635399
0.000875178
0.000356346
0.000766757
0.000149
0.000711319
6.14188e-05
0.000682724
6.8266e-05
0.000651702
9.74979e-05
0.000606374
9.33073e-05
0.000548849
5.15589e-05
0.000482969
1.74133e-06
0.000409729
-3.07911e-05
0.000330894
-4.24072e-05
0.00025267
-4.32755e-05
0.000184144
-4.1379e-05
0.000131857
-3.464e-05
9.61909e-05
-1.57041e-05
7.29613e-05
1.8652e-05
5.76312e-05
6.44614e-05
4.77558e-05
0.000115185
4.27686e-05
0.000166722
4.28623e-05
0.000218266
4.83151e-05
0.000270199
5.9325e-05
0.000322124
7.61447e-05
0.000371849
9.91959e-05
0.000415737
0.000129042
0.000449358
0.000165916
0.000469146
0.000209162
0.00047304
0.00025664
0.000461336
0.00030484
0.000435003
0.000349195
0.000395776
0.000385091
0.000344206
0.000408348
0.000282138
0.000416162
0.00021093
0.000406922
0.000135441
0.000380867
5.98346e-05
0.000339311
-7.80929e-06
0.000285683
-6.41139e-05
0.000224391
-0.000103017
0.000162019
-0.000126773
0.000104841
-0.000132228
6.01642e-05
-0.000126985
3.25631e-05
-0.000108619
2.61938e-05
-8.85854e-05
4.01359e-05
-6.24492e-05
7.3145e-05
-4.59032e-05
0.000118265
-3.10247e-05
0.000170471
-3.62353e-05
0.000219653
-4.43606e-05
0.000261686
-7.43782e-05
0.000288535
-9.68264e-05
0.000302594
-0.000134364
0.000301421
-0.00014591
0.000295408
-0.000164814
0.000285586
-0.000141762
0.000286909
-0.000131414
0.00029812
-7.72679e-05
0.000333858
-6.03924e-05
0.000384497
-5.22708e-06
0.000461308
-1.57071e-05
0.000543918
1.77019e-05
0.00064247
-3.46142e-05
0.000727554
-1.97958e-05
0.000813979
-0.000105646
0.000867471
-8.84989e-05
0.000916891
-0.000190778
0.000926807
-0.000142508
0.000946052
-0.000243711
0.000930633
-0.000141905
0.00094661
-0.000248769
0.000928889
-9.72146e-05
0.000967755
-0.000247523
0.000966379
-4.50513e-05
0.0010443
-0.000235225
0.00110205
-8.3704e-05
0.00115936
2.33542e-05
0.00149495
-0.000809727
0.00098814
0.00182036
0.00249966
-0.0046882
0.00035326
0.00674182
0.00220749
-0.00569177
0.00418093
-0.00834363
-0.00346464
0.0273365
0.00895816
-0.0407459
-0.00890107
0.0540052
0.0122486
-0.0640893
-0.0126412
0.0661374
-0.00836962
0.0083896
0.0590162
-0.226256
-0.0520295
0.377285
0.0368634
-0.260721
-0.0202289
0.139787
-0.0591716
0.133474
0.028879
-0.330295
-0.060803
0.320504
0.090218
-0.445127
0.0259799
0.195059
0.066098
-0.0842877
-0.0426675
0.334792
-0.00241345
-0.139009
-0.0728955
0.0787612
-0.268537
0.717668
0.33767
-1.79173
0.24021
0.103101
-0.190432
1.42724
-0.126701
-0.0656188
0.0977829
-0.770577
0.0610548
-0.0032013
-0.190587
0.862225
0.117638
-0.86536
0.165003
-0.259515
-0.0835968
0.747198
0.109098
0.000364342
0.000764314
-0.000281754
0.000532585
0.000821023
0.000650258
0.000935897
0.000842717
0.0010701
0.00105102
0.00116018
0.00120764
0.00117987
0.00126701
0.00111295
0.00121624
0.00094878
0.00108502
0.000697079
0.000926309
0.000409519
0.000800458
0.0001649
0.000734283
3.23327e-05
0.000710025
1.38793e-05
0.000691418
4.39724e-05
0.000656293
5.07844e-05
0.000604241
1.37221e-05
0.00054322
-3.91884e-05
0.000477491
-7.3747e-05
0.000407155
-7.95458e-05
0.000334301
-6.83458e-05
0.000266343
-5.47418e-05
0.00021186
-4.02038e-05
0.000173924
-1.46778e-05
0.000149087
2.92204e-05
0.00013206
8.81315e-05
0.000119677
0.000153269
0.000111195
0.000218516
0.00010703
0.000282354
0.000107942
0.000345125
0.000114678
0.000406592
0.000127865
0.000464636
0.000148079
0.000515359
0.000175994
0.000553629
0.000212011
0.000575295
0.000255604
0.000578173
0.000304577
0.000563076
0.000355155
0.00053147
0.000402335
0.000485483
0.000441039
0.000425421
0.000466655
0.000352974
0.000476126
0.000269054
0.000467712
0.00017902
0.000441702
8.74888e-05
0.000399428
4.26087e-06
0.000344478
-6.66643e-05
0.000281406
-0.000117705
0.000217227
-0.000151611
0.000158584
-0.000163919
0.00011339
-0.000163542
8.64958e-05
-0.000146418
8.24736e-05
-0.000126164
0.000100217
-9.63107e-05
0.00013854
-7.64238e-05
0.00018984
-5.63127e-05
0.000249001
-5.98882e-05
0.000305008
-6.59098e-05
0.000353799
-9.97282e-05
0.000386434
-0.000124765
0.000405888
-0.000171145
0.00040899
-0.000186814
0.000407376
-0.000214685
0.000401386
-0.000190786
0.000407822
-0.000184287
0.0004244
-0.000120858
0.000468019
-0.000103439
0.000527093
-3.30782e-05
0.000615361
-4.36247e-05
0.000709142
6.61801e-06
0.000821568
-5.18247e-05
0.00091853
-2.18234e-05
0.00101907
-0.000124016
0.00108285
-9.40309e-05
0.00114523
-0.000224748
0.00116315
-0.000163072
0.00119509
-0.000304528
0.00118658
-0.000181991
0.0012173
-0.000339356
0.00120681
-0.000150531
0.0012652
-0.000365575
0.00127237
-0.000100042
0.00137635
-0.00036882
0.00144896
-0.000159022
0.00152759
-2.06862e-05
0.00192156
-0.00114308
0.00133854
0.00246546
0.00313619
-0.00647168
0.000583012
0.00934729
0.00294196
-0.008114
0.00507676
-0.0104961
-0.00389888
0.0360439
0.0131805
-0.0581228
-0.0106579
0.0778807
0.0153778
-0.0899002
-0.0170423
0.0986821
-0.00817954
-0.000531064
0.0680703
-0.30228
-0.0602628
0.468638
0.0524772
-0.373485
-0.0261757
0.219467
-0.0695764
0.176468
0.0244922
-0.423838
-0.0783484
0.42248
0.107717
-0.631814
0.0317862
0.258887
0.0916541
-0.144594
-0.0394627
0.465585
0.00938631
-0.187843
-0.109589
0.198328
-0.327887
0.935046
0.418311
-2.53345
0.268833
0.253287
-0.215833
1.90745
-0.134899
-0.139777
0.123156
-1.02633
0.0548312
0.0662497
-0.231862
1.14668
0.160166
-1.25784
0.192252
-0.291596
-0.111437
1.05034
0.126546
0.000374353
0.000845738
-0.000280015
0.000572184
0.000925738
0.000691
0.00102935
0.000857647
0.0011197
0.0010357
0.001164
0.00117636
0.0011541
0.00124592
0.00108334
0.00122773
0.000941942
0.00112889
0.000725923
0.000988646
0.000461075
0.000858342
0.000209531
0.000779785
4.20777e-05
0.00075248
-1.08934e-05
0.000743335
7.27713e-06
0.000720995
2.1258e-05
0.000677238
-7.4766e-06
0.000620882
-6.08903e-05
0.000561396
-0.000100271
0.000500554
-0.000105216
0.000436357
-8.37058e-05
0.000371665
-5.64532e-05
0.000315279
-3.27029e-05
0.000273808
-2.4047e-06
0.000246127
4.74377e-05
0.000226843
0.000116447
0.00021191
0.000194298
0.000200024
0.000272557
0.000191407
0.000348628
0.000187063
0.000422342
0.000188386
0.000493155
0.000196629
0.000558977
0.000212633
0.000615935
0.000237161
0.000658318
0.000270791
0.000681269
0.00031325
0.000682387
0.00036242
0.00066313
0.000414354
0.000625659
0.000463634
0.000572665
0.000504674
0.000504236
0.000532327
0.000421883
0.000543187
0.000325861
0.000535347
0.00022184
0.000509195
0.000114653
0.000466142
1.58867e-05
0.000409968
-6.98677e-05
0.000345325
-0.000133332
0.000279627
-0.000177923
0.000219823
-0.000197683
0.000174456
-0.000203055
0.00014864
-0.000187955
0.000147437
-0.000168391
0.000169512
-0.00013527
0.000213792
-0.000112499
0.000271936
-8.69917e-05
0.000338804
-8.90127e-05
0.000402352
-9.24289e-05
0.000458692
-0.000130185
0.000497819
-0.00015737
0.000523458
-0.000213214
0.000531511
-0.000232903
0.000535129
-0.000271064
0.0005337
-0.000246469
0.000546245
-0.000245694
0.000569066
-0.00017293
0.00062181
-0.000157015
0.000690374
-7.05149e-05
0.000791618
-8.28901e-05
0.000897783
-1.34576e-05
0.00102588
-7.97195e-05
0.00113606
-3.1156e-05
0.00125278
-0.000152525
0.00132827
-0.000106116
0.00140597
-0.00027039
0.00143333
-0.000191393
0.00148065
-0.00038088
0.00148053
-0.000232464
0.00152918
-0.000451405
0.00152747
-0.000217343
0.00160924
-0.000512003
0.0016267
-0.000169292
0.00176163
-0.000535532
0.00185069
-0.000250237
0.00195792
-8.99059e-05
0.00240888
-0.00152799
0.00176641
0.00317456
0.00383464
-0.00852747
0.000902764
0.0123302
0.00378104
-0.0110675
0.00602181
-0.0127668
-0.0040636
0.0459156
0.0146809
-0.0768685
-0.0125446
0.104996
0.0206349
-0.123298
-0.0215965
0.141213
-0.00803801
-0.0139697
0.0759953
-0.386388
-0.0668484
0.701465
0.0704075
-0.510787
-0.0314262
0.322461
-0.076968
0.222005
0.0182512
-0.518597
-0.098184
0.537865
0.122427
-0.852214
0.0376299
0.36094
0.120879
-0.228292
-0.0315235
0.617623
0.0309073
-0.25017
-0.145164
0.375225
-0.390861
1.17961
0.489318
-3.43409
0.294147
0.449138
-0.350699
2.56113
-0.138259
-0.36275
0.150278
-1.31228
0.047599
0.170245
-0.278409
1.47187
0.204059
-1.74126
0.217912
-0.305373
-0.138416
1.40648
0.138105
0.000389987
0.00086186
-0.00030948
0.000596223
0.000944003
0.000708551
0.00103878
0.000852479
0.00110222
0.00100227
0.00111788
0.00112187
0.00108936
0.00119006
0.00101769
0.00119511
0.00089837
0.0011342
0.000724816
0.00102741
0.00050226
0.000911221
0.000271271
0.000828361
8.96621e-05
0.000795112
3.48866e-06
0.000790754
-1.53631e-06
0.000781582
1.10164e-05
0.000749816
-8.63847e-06
0.000699795
-5.79671e-05
0.000644854
-0.000102162
0.000592218
-0.00011242
0.000539019
-8.67997e-05
0.000481963
-4.69638e-05
0.000426449
-1.23339e-05
0.000381599
2.19424e-05
0.00035017
7.36294e-05
0.000328192
0.000147923
0.00031125
0.000234746
0.000297341
0.000323696
0.000285935
0.000411162
0.000277587
0.000496093
0.000274049
0.00057675
0.000277392
0.000650501
0.000288961
0.000713693
0.000309626
0.000760318
0.000340113
0.000784677
0.000380511
0.000783875
0.000428976
0.000760051
0.000481546
0.000716267
0.00053247
0.000656021
0.000575652
0.000579297
0.000605288
0.000487526
0.000617482
0.000380128
0.000610066
0.000262864
0.000583585
0.000140424
0.00053963
2.62144e-05
0.000482272
-7.45962e-05
0.000416236
-0.000150732
0.000349289
-0.000206437
0.000288589
-0.000234036
0.000243323
-0.000245853
0.000218857
-0.000233397
0.000220843
-0.000215424
0.000247694
-0.000179518
0.000298529
-0.000154504
0.00036416
-0.00012359
0.000439505
-0.000124427
0.000511338
-0.000124915
0.000576075
-0.000167059
0.000622449
-0.00019604
0.000655144
-0.000262197
0.000668899
-0.000285681
0.000678701
-0.000335521
0.000682667
-0.000309998
0.000702473
-0.000316786
0.000732533
-0.0002341
0.000795823
-0.000221836
0.000875053
-0.000117823
0.000990999
-0.000134333
0.00111089
-4.31748e-05
0.00125672
-0.000120009
0.0013816
-4.93721e-05
0.00151691
-0.000194084
0.00160565
-0.000127156
0.0017014
-0.00033146
0.00173976
-0.000230062
0.00180559
-0.00047669
0.00181546
-0.000295263
0.0018857
-0.000588248
0.00189446
-0.000298291
0.00200406
-0.0006896
0.00203363
-0.000252791
0.00220504
-0.000738985
0.00231217
-0.00035734
0.0024562
-0.000191081
0.00296217
-0.00196126
0.00227985
0.00392882
0.00459753
-0.0108329
0.00132905
0.0156497
0.00472046
-0.0145486
0.00701162
-0.0150867
-0.00400493
0.0567019
0.0169629
-0.0978967
-0.0127221
0.134542
0.0222199
-0.157979
-0.0260664
0.189713
-0.00548816
-0.0347358
0.0829413
-0.474533
-0.0737445
0.772538
0.0892735
-0.673712
-0.0353542
0.448347
-0.0768562
0.262134
0.0110145
-0.605005
-0.119655
0.667296
0.133119
-1.105
0.0422232
0.436815
0.151832
-0.338376
-0.019306
0.788341
0.0653326
-0.334571
-0.172285
0.613912
-0.454818
1.4606
0.543386
-4.3444
0.316752
0.676426
-0.312749
3.18901
-0.136796
-0.533473
0.180227
-1.62649
0.0431592
0.308844
-0.284275
1.79597
0.244873
-2.27049
0.242376
-0.302776
-0.161472
1.81003
0.144863
0.000413592
0.000840051
-0.000357823
0.000613863
0.00091003
0.000707348
0.000993476
0.000828926
0.00104128
0.000954883
0.00104275
0.00105447
0.0010072
0.0011147
0.000940221
0.00113157
0.000841616
0.00110232
0.000707161
0.00103097
0.000534043
0.000942869
0.000338726
0.00086841
0.000163921
0.000832599
5.45564e-05
0.00082944
2.16188e-05
0.000830761
2.3312e-05
0.000812712
9.69899e-06
0.000771711
-3.12135e-05
0.000720476
-7.63117e-05
0.000672558
-9.53896e-05
0.000629205
-7.43086e-05
0.000582951
-2.74335e-05
0.00053254
1.82683e-05
0.000486166
5.73027e-05
0.000450467
0.000108086
0.000424707
0.000182407
0.00040549
0.00027275
0.000390729
0.000367917
0.000378967
0.000464143
0.00036938
0.000559899
0.00036314
0.000651345
0.000362941
0.000734
0.000370902
0.00080414
0.000388134
0.000855826
0.000415455
0.000882519
0.000453378
0.0008804
0.000500534
0.00085214
0.000553194
0.000801868
0.000605439
0.000734182
0.000650752
0.000649158
0.000682593
0.000548408
0.000696377
0.000430469
0.000689487
0.000300975
0.000662618
0.000163943
0.000617666
3.45256e-05
0.000559177
-8.16014e-05
0.000491993
-0.000170712
0.000424189
-0.000237958
0.000362984
-0.000273632
0.000318186
-0.000292426
0.000295378
-0.000283055
0.000300931
-0.000267557
0.000332995
-0.000229363
0.000391005
-0.000202934
0.000464818
-0.000166723
0.000549506
-0.000167002
0.00063047
-0.000164327
0.000704581
-0.000211557
0.000759072
-0.000241981
0.000799844
-0.000319517
0.000820178
-0.000346442
0.000837294
-0.000409542
0.000847637
-0.000382588
0.000876064
-0.000398965
0.000914506
-0.000305347
0.00098998
-0.000299174
0.00108118
-0.000175814
0.0012138
-0.00019937
0.00134891
-8.35384e-05
0.00151481
-0.000174703
0.00165603
-7.79948e-05
0.00181267
-0.000251545
0.00191638
-0.000159182
0.00203333
-0.000411565
0.00208443
-0.000281331
0.0021724
-0.000596078
0.00219402
-0.000372491
0.00229016
-0.000754244
0.00231124
-0.000394997
0.00245388
-0.000903051
0.0024976
-0.000351962
0.00271193
-0.000984975
0.00283898
-0.000481645
0.00302917
-0.000333097
0.00358798
-0.00244022
0.00288822
0.00470619
0.00542983
-0.0133618
0.0018799
0.0192517
0.00575895
-0.0185361
0.00805503
-0.0174027
-0.00371545
0.0682271
0.0193343
-0.121
-0.0137576
0.167537
0.0249829
-0.196661
-0.0302755
0.245192
-0.0050552
-0.0600897
0.0866037
-0.565888
-0.0810854
0.971284
0.107853
-0.862716
-0.0375002
0.595145
-0.101844
0.327062
0.00404621
-0.710753
-0.141782
0.811705
0.138263
-1.38503
0.0444079
0.538421
0.181843
-0.476394
-0.00421409
0.973921
0.11519
-0.453565
-0.182385
0.912728
-0.518574
1.79554
0.568933
-6.3792
0.333537
0.911941
-0.30955
3.83616
-0.131215
-0.719185
0.214943
-1.96958
0.0466583
0.478837
-0.323904
2.16488
0.278359
-2.87364
0.265846
-0.29013
-0.177365
2.25292
0.150036
0.000431384
0.000803614
-0.000391497
0.000623673
0.000856879
0.000692203
0.00092725
0.000792225
0.000965728
0.000899017
0.000961813
0.00098272
0.000927043
0.00103422
0.000869324
0.00105552
0.00079051
0.00104729
0.000689348
0.00100867
0.000561451
0.000951354
0.000406504
0.000896144
0.000250535
0.000864889
0.000131209
0.000862488
7.30249e-05
0.000870412
5.80314e-05
0.000864723
4.54639e-05
0.00083485
1.47483e-05
0.000788481
-2.54547e-05
0.00074221
-5.19302e-05
0.000704352
-4.22803e-05
0.000668319
2.77917e-06
0.000626214
5.63447e-05
0.000581245
0.000101268
0.000541549
0.000150758
0.00051038
0.000221229
0.000487049
0.000309269
0.000470788
0.000404386
0.000460031
0.000504183
0.000452174
0.000608311
0.000446476
0.000710877
0.000445289
0.000803884
0.000451455
0.000882348
0.000466544
0.0009405
0.000491445
0.000971156
0.000527049
0.000969127
0.000572618
0.000937251
0.000624917
0.000880749
0.000678134
0.000805604
0.000725564
0.000712195
0.000759973
0.000602768
0.000775904
0.000475144
0.000769976
0.000334735
0.00074288
0.000184208
0.000696877
4.01714e-05
0.000637271
-9.14583e-05
0.000569178
-0.000193942
0.000501011
-0.000273285
0.000439851
-0.000317214
0.000396043
-0.000343395
0.000375285
-0.000337354
0.000384797
-0.000325175
0.00042247
-0.000285183
0.000488254
-0.000258378
0.000570951
-0.000217118
0.000665922