/*--------------------------------*- C++ -*----------------------------------*\
| =========                 |                                                 |
| \\      /  F ield         | OpenFOAM: The Open Source CFD Toolbox           |
|  \\    /   O peration     | Version:  2412                                  |
|   \\  /    A nd           | Website:  www.openfoam.com                      |
|    \\/     M anipulation  |                                                 |
\*---------------------------------------------------------------------------*/
FoamFile
{
    version     2.0;
    format      ascii;
    arch        "LSB;label=32;scalar=64";
    class       volScalarField;
    location    "1.78";
    object      p;
}
// * * * * * * * * * * * * * * * * * * * * * * * * * * * * * * * * * * * * * //

dimensions      [0 2 -2 0 0 0 0];

internalField   nonuniform List<scalar> 
12600
(
0.0212552
-154.621
-204.633
-201.409
-188.986
-177.436
-167.307
-158.247
-150.036
-142.514
-135.552
-129.055
-122.951
-117.181
-111.699
-106.468
-101.458
-96.642
-91.9986
-87.5092
-83.1579
-78.931
-74.8165
-70.8037
-66.8836
-63.0478
-59.289
-55.6006
-51.9766
-48.4116
-44.9006
-41.4392
-38.0232
-34.6489
-31.3127
-28.0113
-24.7418
-21.5013
-18.287
-15.0966
-11.9274
-8.77739
-5.64407
-2.52557
0.580378
3.67535
6.76155
9.84013
12.9133
15.9817
19.0477
22.1112
25.175
28.2383
31.3046
34.372
37.4453
40.521
43.6056
46.6934
49.7931
52.8958
56.0132
59.1319
62.2681
65.4022
68.5566
71.7036
74.8745
78.0304
81.2147
84.3743
87.5679
90.7236
93.9202
97.0613
100.251
103.362
106.529
109.592
112.713
115.707
118.749
121.652
124.585
127.332
130.273
132.401
136.28
136.158
142.65
139.631
147.099
146.37
145.12
162.234
131.611
177.868
131.984
175.734
157.859
158.119
192.243
133.439
211.175
123.267
218.023
153.263
190.491
241.936
159.296
227.658
192.866
243.377
198.697
212.694
247.533
215.356
219.656
229.432
-24.1185
-123.753
-171.152
-180.779
-177.585
-170.868
-163.144
-155.399
-147.992
-140.998
-134.404
-128.173
-122.266
-116.646
-111.28
-106.14
-101.202
-96.4431
-91.8459
-87.3941
-83.0735
-78.8718
-74.778
-70.7824
-66.8764
-63.0523
-59.3033
-55.6229
-52.0055
-48.446
-44.9395
-41.4818
-38.0687
-34.6967
-31.3624
-28.0625
-24.794
-21.5542
-18.3405
-15.1504
-11.9813
-8.8312
-5.6977
-2.57889
0.527444
3.62288
6.70961
9.78878
12.8626
15.9316
18.9983
22.0625
25.1271
28.1911
31.2582
34.3264
37.4005
40.477
43.5623
46.6509
49.7514
52.8548
55.9729
59.0924
62.2293
65.3641
68.5193
71.6671
74.8386
77.9954
81.1804
84.3408
87.5351
90.6916
93.8888
97.0307
100.221
103.333
106.501
109.565
112.686
115.681
118.724
121.628
124.562
127.309
130.254
132.376
136.268
136.133
142.636
139.621
147.066
146.391
145.046
162.295
131.564
177.85
132.022
175.62
157.947
157.987
192.322
133.389
211.184
123.275
217.898
153.415
190.195
241.988
159.368
227.536
192.815
243.342
198.82
212.549
247.496
215.45
219.621
229.398
-40.9354
-102.354
-145.115
-162.568
-165.906
-163.297
-158.178
-152.052
-145.643
-139.29
-133.127
-127.199
-121.513
-116.057
-110.816
-105.773
-100.911
-96.213
-91.6644
-87.2518
-82.963
-78.7873
-74.7148
-70.7369
-66.8454
-63.0334
-59.2944
-55.6223
-52.0118
-48.4579
-44.9561
-41.5022
-38.0924
-34.7229
-31.3906
-28.0923
-24.8251
-21.5864
-18.3733
-15.1837
-12.0149
-8.86498
-5.73149
-2.6126
0.493914
3.58961
6.67666
9.7562
12.8304
15.8999
18.9671
22.0318
25.0969
28.1615
31.2292
34.2979
37.3725
40.4496
43.5355
46.6247
49.7257
52.8296
55.9483
59.0683
62.2058
65.3411
68.4969
71.6451
74.8172
77.9745
81.16
84.3209
87.5158
90.6727
93.8705
97.0129
100.203
103.316
106.484
109.549
112.671
115.667
118.71
121.614
124.549
127.296
130.243
132.362
136.262
136.118
142.631
139.613
147.048
146.405
145.004
162.33
131.531
177.838
132.047
175.555
158.003
157.919
192.364
133.357
211.194
123.274
217.827
153.505
190.048
242.034
159.406
227.466
192.79
243.326
198.887
212.483
247.476
215.499
219.598
229.381
-48.8685
-88.6487
-124.053
-144.566
-152.784
-154.097
-151.813
-147.621
-142.498
-137.004
-131.428
-125.911
-120.519
-115.281
-110.204
-105.288
-100.524
-95.9036
-91.4174
-87.0551
-82.8073
-78.6652
-74.6203
-70.6652
-66.7928
-62.9966
-59.2707
-55.6097
-52.0084
-48.4622
-44.9669
-41.5184
-38.1131
-34.7474
-31.4182
-28.1224
-24.8573
-21.6202
-18.4085
-15.2199
-12.0519
-8.90257
-5.76948
-2.65084
0.455558
3.55124
6.63838
9.71808
12.7926
15.8623
18.9299
21.995
25.0605
28.1255
31.1936
34.2629
37.338
40.4156
43.502
46.5917
49.6932
52.7977
55.917
59.0375
62.1755
65.3114
68.4677
71.6165
74.7891
77.9469
81.1331
84.2945
87.4899
90.6475
93.8458
96.9888
100.18
103.294
106.462
109.527
112.65
115.646
118.69
121.596
124.531
127.278
130.229
132.343
136.253
136.098
142.62
139.603
147.025
146.419
144.948
162.38
131.485
177.829
132.069
175.468
158.072
157.813
192.443
133.309
211.207
123.267
217.733
153.609
189.807
242.104
159.448
227.361
192.754
243.306
198.975
212.357
247.46
215.572
219.561
229.354
-53.9386
-80.4239
-107.328
-126.991
-138.103
-142.869
-143.518
-141.582
-138.099
-133.767
-129.011
-124.08
-119.113
-114.187
-109.345
-104.607
-99.9806
-95.4686
-91.0681
-86.7746
-82.5825
-78.4857
-74.478
-70.5536
-66.7066
-62.9316
-59.2234
-55.5771
-51.9882
-48.4525
-44.9659
-41.5248
-38.1255
-34.765
-31.44
-28.1479
-24.8857
-21.651
-18.4413
-15.2543
-12.0876
-8.93917
-5.80683
-2.68872
0.417318
3.51279
6.59985
9.67957
12.7542
15.8242
18.8919
21.9574
25.0233
28.0887
31.1573
34.227
37.3027
40.3808
43.4678
46.558
49.6601
52.7651
55.8849
59.006
62.1446
65.2811
68.438
71.5874
74.7606
77.919
81.1058
84.2678
87.4639
90.622
93.821
96.9646
100.156
103.271
106.44
109.506
112.63
115.626
118.671
121.577
124.513
127.261
130.214
132.324
136.244
136.076
142.612
139.591
147.003
146.432
144.893
162.431
131.435
177.823
132.088
175.381
158.142
157.712
192.511
133.26
211.223
123.254
217.639
153.703
189.581
242.19
159.484
227.25
192.723
243.29
199.056
212.244
247.448
215.639
219.523
229.33
-57.248
-75.3966
-95.0039
-111.878
-123.715
-130.638
-133.695
-133.947
-132.275
-129.347
-125.648
-121.502
-117.12
-112.633
-108.123
-103.639
-99.2087
-94.8499
-90.5702
-86.373
-82.2582
-78.2241
-74.2676
-70.3852
-66.5729
-62.8266
-59.1424
-55.5161
-51.944
-48.4224
-44.9476
-41.5164
-38.1256
-34.7721
-31.4531
-28.1659
-24.9079
-21.6767
-18.4698
-15.2852
-12.1204
-8.9736
-5.84251
-2.72539
0.379903
3.47482
6.5615
9.64099
12.7155
15.7855
18.8533
21.9189
24.9851
28.0508
31.1198
34.1899
37.266
40.3445
43.432
46.5227
49.6254
52.7309
55.8513
58.9729
62.1121
65.2491
68.4066
71.5566
74.7305
77.8894
81.0768
84.2394
87.4362
90.5949
93.7946
96.9388
100.131
103.246
106.416
109.483
112.607
115.605
118.65
121.557
124.494
127.242
130.198
132.304
136.233
136.055
142.604
139.578
146.981
146.443
144.835
162.486
131.378
177.82
132.102
175.288
158.215
157.599
192.597
133.204
211.243
123.234
217.538
153.782
189.321
242.302
159.514
227.121
192.691
243.277
199.134
212.106
247.443
215.71
219.475
229.302
-58.8926
-71.9098
-86.2391
-99.9345
-111.016
-118.725
-123.281
-125.251
-125.229
-123.744
-121.232
-118.031
-114.386
-110.473
-106.408
-102.27
-98.1122
-93.9675
-89.8577
-85.796
-81.7901
-77.844
-73.9592
-70.1354
-66.3713
-62.665
-59.0138
-55.4152
-51.8662
-48.3639
-44.9054
-41.4879
-38.1086
-34.7648
-31.4541
-28.1738
-24.9216
-21.6953
-18.4925
-15.3113
-12.1494
-9.00494
-5.87578
-2.76024
0.343793
3.43771
6.52363
9.60254
12.6766
15.7464
18.8141
21.8797
24.9459
28.0118
31.081
34.1514
37.2279
40.3068
43.3947
46.4859
49.589
52.6951
55.816
58.9381
62.0779
65.2155
68.3736
71.5241
74.6986
77.8582
81.0462
84.2095
87.4069
90.5663
93.7667
96.9116
100.105
103.221
106.391
109.459
112.584
115.582
118.628
121.536
124.474
127.222
130.181
132.283
136.223
136.033
142.595
139.562
146.959
146.453
144.776
162.547
131.312
177.823
132.108
175.188
158.289
157.477
192.691
133.142
211.267
123.204
217.429
153.838
189.04
242.442
159.537
226.97
192.659
243.267
199.203
211.956
247.446
215.78
219.418
229.272
-59.377
-69.1466
-79.8719
-90.7239
-100.375
-107.922
-113.143
-116.218
-117.467
-117.244
-115.881
-113.67
-110.853
-107.616
-104.098
-100.4
-96.5956
-92.7349
-88.8538
-84.977
-81.121
-77.297
-73.5118
-69.7699
-66.0732
-62.4225
-58.8176
-55.2574
-51.7405
-48.2651
-44.8292
-41.4308
-38.0675
-34.7373
-31.4379
-28.1672
-24.9232
-21.7038
-18.5068
-15.3305
-12.1727
-9.03164
-5.90533
-2.79215
0.309936
3.40227
6.48691
9.56481
12.6381
15.7073
18.7746
21.8399
24.906
27.9719
31.0412
34.1117
37.1884
40.2677
43.356
46.4475
49.5511
52.6576
55.779
58.9017
62.042
65.1801
68.3388
71.4899
74.6651
77.8253
81.014
84.1779
87.376
90.5361
93.7372
96.8828
100.077
103.193
106.365
109.433
112.559
115.558
118.605
121.514
124.453
127.202
130.162
132.262
136.211
136.009
142.585
139.545
146.938
146.46
144.712
162.613
131.249
177.831
132.107
175.08
158.361
157.344
192.797
133.078
211.298
123.166
217.309
153.858
188.725
242.618
159.554
226.794
192.625
243.261
199.259
211.785
247.46
215.848
219.35
229.241
-59.1473
-66.7172
-74.9574
-83.5199
-91.6143
-98.4981
-103.79
-107.429
-109.526
-110.273
-109.891
-108.6
-106.606
-104.082
-101.17
-97.9796
-94.5966
-91.0848
-87.4916
-83.8521
-80.192
-76.5297
-72.8783
-69.2471
-65.6423
-62.0681
-58.5269
-55.02
-51.5477
-48.1097
-44.7052
-41.3332
-37.9922
-34.6808
-31.3974
-28.1402
-24.9076
-21.6978
-18.509
-15.3396
-12.1876
-9.05147
-5.92929
-2.81957
0.27964
3.36958
6.45224
9.52853
12.6005
15.6687
18.7352
21.7999
24.8656
27.9313
31.0004
34.0709
37.1477
40.2271
43.3157
46.4075
49.5115
52.6184
55.7403
58.8634
62.0042
65.1429
68.3021
71.4539
74.6297
77.7905
80.9799
84.1444
87.3433
90.5041
93.7061
96.8524
100.047
103.165
106.337
109.406
112.533
115.533
118.581
121.491
124.43
127.18
130.143
132.24
136.199
135.983
142.577
139.525
146.919
146.463
144.649
162.683
131.134
177.847
132.096
174.963
158.43
157.197
192.917
132.992
211.336
123.117
217.175
153.834
188.372
242.84
159.565
226.58
192.595
243.26
199.297
211.593
247.486
215.913
219.268
229.207
-58.446
-64.427
-70.8993
-77.7054
-84.3864
-90.4145
-95.4152
-99.2154
-101.79
-103.207
-103.588
-103.079
-101.831
-99.9926
-97.6909
-95.0348
-92.1125
-88.9945
-85.7358
-82.3793
-78.9579
-75.4966
-72.0144
-68.5256
-65.0407
-61.5673
-58.111
-54.6757
-51.2637
-47.8767
-44.5152
-41.1796
-37.8694
-34.5841
-31.3228
-28.0844
-24.8676
-21.6713
-18.494
-15.3343
-12.1905
-9.06134
-5.94504
-2.84029
0.254736
3.34116
6.4209
9.49475
12.5648
15.6312
18.6965
21.7602
24.8251
27.8901
30.9588
34.0291
37.1058
40.1852
43.2739
46.3659
49.4701
52.5773
55.6996
58.8232
61.9645
65.1036
68.2635
71.4158
74.5922
77.7537
80.9438
84.1091
87.3088
90.4703
93.6731
96.8203
100.016
103.134
106.307
109.377
112.505
115.507
118.555
121.466
124.407
127.158
130.123
132.216
136.186
135.956
142.57
139.503
146.898
146.462
144.583
162.757
131.045
177.873
132.073
174.834
158.494
157.034
193.05
132.912
211.383
123.058
217.026
153.753
187.972
243.068
159.571
226.327
192.564
243.263
199.313
211.374
247.527
215.973
219.17
229.17
-57.4025
-62.1915
-67.3656
-72.84
-78.3337
-83.4926
-88.0161
-91.709
-94.4769
-96.3036
-97.2312
-97.3399
-96.7291
-95.5077
-93.7824
-91.6507
-89.1968
-86.492
-83.5944
-80.5515
-77.4011
-74.1732
-70.8915
-67.5745
-64.2366
-60.8891
-57.5403
-54.1967
-50.863
-47.5428
-44.2383
-40.9513
-37.6826
-34.4326
-31.2014
-27.9887
-24.7938
-21.6162
-18.4547
-15.3085
-12.1763
-9.05692
-5.94893
-2.85124
0.237812
3.31918
6.39467
9.46494
12.532
15.596
18.6592
21.7212
24.7848
27.8487
30.9167
33.9864
37.0627
40.1419
43.2305
46.3225
49.4269
52.5343
55.6569
58.7808
61.9226
65.0622
68.2226
71.3754
74.5526
77.7147
80.9056
84.0715
87.2721
90.4344
93.6381
96.7861
99.9829
103.102
106.276
109.347
112.476
115.478
118.528
121.44
124.382
127.134
130.101
132.193
136.173
135.927
142.563
139.478
146.88
146.456
144.514
162.836
130.931
177.911
132.037
174.691
158.551
156.852
193.198
132.816
211.441
122.988
216.859
153.607
187.514
243.437
159.572
226.031
192.531
243.272
199.303
211.124
247.588
216.026
219.051
229.13
-56.0964
-59.9725
-64.1679
-68.624
-73.1515
-77.5151
-81.4969
-84.9254
-87.6844
-89.7119
-90.995
-91.5612
-91.464
-90.7733
-89.5683
-87.9288
-85.9293
-83.6368
-81.109
-78.3947
-75.5344
-72.5615
-69.5032
-66.3813
-63.2134
-60.0137
-56.7932
-53.5609
-50.3236
-47.0867
-43.8543
-40.6293
-37.4142
-34.2104
-31.0188
-27.8402
-24.6747
-21.5222
-18.3824
-15.2547
-12.1383
-9.03245
-5.93603
-2.84822
0.232432
3.30664
6.37607
9.44119
12.5039
15.5642
18.6244
21.6839
24.7455
27.8077
30.8744
33.9431
37.0186
40.0972
43.1855
46.2773
49.3817
52.4891
55.6119
58.736
61.8782
65.0182
68.1792
71.3325
74.5104
77.6731
80.8648
84.0315
87.2329
90.396
93.6008
96.7497
99.9476
103.067
106.243
109.315
112.445
115.449
118.499
121.413
124.356
127.109
130.077
132.168
136.158
135.897
142.557
139.449
146.864
146.444
144.442
162.92
130.807
177.966
131.987
174.534
158.598
156.647
193.36
132.712
211.513
122.906
216.675
153.391
186.987
243.782
159.567
225.687
192.502
243.29
199.265
210.836
247.67
216.072
218.91
229.087
-54.5884
-57.7542
-61.1933
-64.8575
-68.6066
-72.2803
-75.7282
-78.8172
-81.4373
-83.5094
-84.9893
-85.8671
-86.1607
-85.9059
-85.1527
-83.9596
-82.387
-80.4932
-78.3316
-75.9497
-73.3885
-70.683
-67.8627
-64.9519
-61.9709
-58.9361
-55.8611
-52.7567
-49.6318
-46.4934
-43.3473
-40.1979
-37.0486
-33.9023
-30.7609
-27.6258
-24.4981
-21.3783
-18.2668
-15.1637
-12.0684
-8.98085
-5.90013
-2.82582
0.243254
3.30753
6.36848
9.42636
12.4829
15.538
18.5938
21.6496
24.7081
27.7679
30.8325
33.8994
36.9737
40.0513
43.1389
46.2301
49.3342
52.4415
55.5644
58.6885
61.831
64.9713
68.1328
71.2866
74.4651
77.6285
80.821
83.9885
87.1909
90.3549
93.5607
96.7106
99.9097
103.031
106.208
109.281
112.412
115.417
118.469
121.384
124.328
127.083
130.053
132.142
136.143
135.865
142.552
139.417
146.85
146.421
144.372
163.008
130.659
178.035
131.926
174.361
158.633
156.415
193.539
132.596
211.6
122.811
216.478
153.105
186.374
244.222
159.553
225.298
192.469
243.32
199.198
210.506
247.777
216.108
218.745
229.038
-52.9277
-55.5296
-58.3714
-61.4095
-64.5308
-67.6214
-70.5792
-73.3077
-75.7155
-77.7245
-79.2777
-80.3431
-80.9128
-80.9971
-80.6201
-79.8181
-78.6349
-77.1168
-75.3095
-73.2563
-70.9964
-68.5647
-65.9914
-63.3027
-60.5205
-57.6634
-54.7467
-51.7834
-48.7838
-45.7568
-42.7094
-39.6474
-36.5754
-33.4973
-30.4161
-27.3339
-24.2527
-21.1738
-18.098
-15.0261
-11.9581
-8.89422
-5.83412
-2.7777
0.275895
3.32678
6.3762
9.42414
12.4722
15.52
18.5696
21.6201
24.6742
27.7302
30.7918
33.8562
36.9285
40.0044
43.0907
46.181
49.2844
52.3912
55.5138
58.6379
61.7805
64.921
68.0829
71.2371
74.4163
77.5802
80.7737
83.9419
87.1454
90.3103
93.5174
96.6682
99.8688
102.991
106.169
109.244
112.377
115.383
118.436
121.353
124.298
127.056
130.027
132.116
136.126
135.831
142.548
139.38
146.838
146.39
144.299
163.101
130.505
178.116
131.845
174.172
158.655
156.156
193.732
132.467
211.704
122.7
216.276
152.755
185.658
244.716
159.53
224.864
192.444
243.368
199.107
210.124
247.909
216.136
218.553
228.985
-51.1427
-53.2915
-55.6544
-58.1908
-60.8034
-63.4066
-65.9313
-68.3106
-70.4739
-72.353
-73.8901
-75.0435
-75.7895
-76.1206
-76.0415
-75.5688
-74.729
-73.5549
-72.0823
-70.3477
-68.386
-66.2299
-63.9092
-61.4502
-58.876
-56.2065
-53.4586
-50.6468
-47.7832
-44.878
-41.9396
-38.975
-35.9902
-32.9898
-29.9777
-26.9572
-23.9308
-20.9004
-17.8677
-14.8338
-11.7993
-8.76502
-5.73088
-2.69725
0.336415
3.36988
6.40414
9.43889
12.4755
15.5135
18.5546
21.5978
24.6457
27.6964
30.7536
33.8143
36.8835
39.9569
43.0412
46.1298
49.2321
52.3379
55.46
58.5836
61.7262
64.8665
68.0288
71.1833
74.3631
77.5276
80.722
83.891
87.0957
90.2615
93.47
96.6219
99.8241
102.947
106.128
109.203
112.338
115.345
118.401
121.319
124.266
127.026
129.999
132.087
136.109
135.795
142.544
139.34
146.828
146.352
144.224
163.188
130.339
178.22
131.744
173.969
158.664
155.855
193.946
132.322
211.826
122.57
216.083
152.356
184.826
245.257
159.5
224.394
192.415
243.443
198.999
209.685
248.064
216.155
218.337
228.925
-49.2548
-51.0359
-53.0106
-55.1401
-57.3374
-59.5346
-61.6845
-63.7421
-65.6557
-67.3695
-68.8312
-69.9979
-70.8385
-71.3344
-71.4776
-71.2693
-70.7209
-69.8517
-68.6865
-67.2531
-65.5806
-63.6975
-61.6311
-59.4069
-57.0478
-54.5742
-52.0042
-49.3533
-46.6351
-43.8609
-41.0405
-38.1823
-35.293
-32.3785
-29.4437
-26.4924
-23.5281
-20.5534
-17.5704
-14.581
-11.5861
-8.58716
-5.58437
-2.57857
0.430486
3.4422
6.45732
9.47522
12.4971
15.5222
18.5521
21.5856
24.6251
27.6685
30.7196
33.775
36.8399
39.9095
42.9909
46.077
49.1773
52.2815
55.4025
58.5252
61.6673
64.8073
67.9697
71.1242
74.3047
77.4696
80.665
83.8346
87.0407
90.2074
93.4176
96.5706
99.7747
102.899
106.082
109.158
112.296
115.305
118.363
121.283
124.232
126.993
129.969
132.057
136.09
135.757
142.54
139.297
146.82
146.305
144.15
163.282
130.15
178.344
131.623
173.755
158.659
155.53
194.166
132.168
211.965
122.421
215.916
151.931
183.846
245.863
159.456
223.872
192.406
243.559
198.887
209.177
248.239
216.169
218.101
228.859
-47.2811
-48.7613
-50.418
-52.2141
-54.0695
-55.9281
-57.7572
-59.5274
-61.2017
-62.7367
-64.0881
-65.2161
-66.0884
-66.681
-66.9781
-66.971
-66.6593
-66.0504
-65.1585
-64.0022
-62.6032
-60.9846
-59.17
-57.182
-55.0426
-52.7717
-50.3875
-47.9062
-45.3422
-42.708
-40.0144
-37.2708
-34.4852
-31.6643
-28.814
-25.9391
-23.0435
-20.1309
-17.2038
-14.2647
-11.3151
-8.35674
-5.39042
-2.41728
0.562571
3.5482
6.54011
9.53735
12.541
15.5498
18.5655
21.5864
24.6151
27.649
30.6918
33.7401
36.799
39.8634
42.9405
46.0228
49.1203
52.2219
55.3411
58.4622
61.6034
64.7425
67.9047
71.059
74.2398
77.4049
80.6013
83.7715
86.979
90.1467
93.3586
96.5129
99.7191
102.845
106.03
109.108
112.249
115.259
118.32
121.242
124.195
126.957
129.937
132.024
136.069
135.718
142.535
139.25
146.818
146.251
144.075
163.376
129.948
178.486
131.489
173.522
158.645
155.16
194.405
131.982
212.132
122.256
215.796
151.512
182.694
246.476
159.438
223.329
192.397
243.728
198.781
208.593
248.427
216.185
217.852
228.787
-45.2347
-46.4668
-47.8607
-49.381
-50.953
-52.5284
-54.0842
-55.602
-57.056
-58.4128
-59.6367
-60.6932
-61.5518
-62.1876
-62.5807
-62.7173
-62.5887
-62.1933
-61.5359
-60.6265
-59.4791
-58.1106
-56.5395
-54.785
-52.8664
-50.8022
-48.61
-46.3058
-43.9043
-41.4186
-38.8605
-36.24
-33.5662
-30.8468
-28.0884
-25.2967
-22.4766
-19.6322
-16.7668
-13.8835
-10.9844
-8.07175
-5.14665
-2.21073
0.735587
3.691
6.65576
9.6286
12.6104
15.5997
18.5981
21.6035
24.6185
27.6403
30.6726
33.7115
36.7624
39.8198
42.8911
45.9682
49.0615
52.1595
55.2758
58.3944
61.5339
64.6715
67.8329
70.9864
74.1673
77.3323
80.5295
83.7002
86.909
90.0776
93.2916
96.4471
99.6558
102.783
105.971
109.051
112.195
115.207
118.272
121.195
124.153
126.916
129.903
131.987
136.045
135.678
142.528
139.203
146.797
146.192
144.002
163.469
129.732
178.643
131.335
173.284
158.617
154.761
194.656
131.807
212.296
122.072
215.756
151.13
181.344
247.125
159.428
222.738
192.398
243.961
198.693
207.927
248.615
216.215
217.599
228.708
-43.1258
-44.1521
-45.3273
-46.6176
-47.953
-49.2908
-50.6143
-51.9125
-53.1681
-54.3559
-55.4474
-56.4138
-57.2286
-57.8679
-58.3112
-58.542
-58.5475
-58.3196
-57.856
-57.1593
-56.2365
-55.0979
-53.7567
-52.2276
-50.5266
-48.6697
-46.6728
-44.5512
-42.3192
-39.9899
-37.5755
-35.0866
-32.5329
-29.923
-27.2642
-24.5632
-21.8253
-19.0556
-16.258
-13.4362
-10.5929
-7.73082
-4.8516
-1.95729
0.951324
3.87256
6.80641
9.75126
12.7078
15.6743
18.6522
21.6392
24.6378
27.6448
30.6641
33.6914
36.7322
39.7805
42.844
45.9143
49.0018
52.0946
55.2069
58.3218
61.4586
64.5937
67.7536
70.9056
74.0861
77.2505
80.4481
83.6189
86.8291
89.9983
93.2144
96.3711
99.5826
102.712
105.903
108.985
112.133
115.147
118.217
121.141
124.106
126.867
129.865
131.945
136.018
135.637
142.514
139.156
146.788
146.131
143.932
163.556
129.509
178.809
131.171
173.04
158.588
154.324
194.906
131.621
212.48
121.914
215.788
150.82
179.769
247.759
159.423
222.122
192.406
244.266
198.633
207.176
248.789
216.272
217.356
228.624
-40.9627
-41.8175
-42.8093
-43.9067
-45.0433
-46.1807
-47.3066
-48.415
-49.4947
-50.5267
-51.4886
-52.3572
-53.1097
-53.725
-54.1839
-54.4691
-54.5661
-54.4635
-54.1538
-53.6341
-52.9053
-51.9721
-50.8422
-49.5256
-48.0342
-46.381
-44.5794
-42.643
-40.5852
-38.4187
-36.1551
-33.8057
-31.3803
-28.888
-26.3368
-23.734
-21.0857
-18.3976
-15.6742
-12.92
-10.1381
-7.33187
-4.5034
-1.65525
1.21142
4.0945
6.9937
9.90703
12.835
15.7755
18.7299
21.6955
24.6749
27.6646
30.6683
33.6816
36.71
39.7471
42.8009
45.8623
48.9424
52.0283
55.135
58.2448
61.3776
64.509
67.6663
70.8159
73.9952
77.1581
80.3557
83.526
86.7373
89.9068
93.125
96.2826
99.4971
102.628
105.823
108.907
112.059
115.076
118.152
121.077
124.052
126.809
129.823
131.895
135.985
135.594
142.493
139.114
146.767
146.072
143.864
163.631
129.286
178.982
131.01
172.794
158.569
153.854
195.17
131.425
212.654
121.768
215.909
150.596
177.946
248.343
159.44
221.476
192.423
244.637
198.607
206.349
248.933
216.373
217.137
228.535
-38.7522
-39.4633
-40.3008
-41.2351
-42.2039
-43.1717
-44.1291
-45.074
-45.999
-46.8902
-47.73
-48.4996
-49.1804
-49.7542
-50.2037
-50.5128
-50.6666
-50.6523
-50.4598
-50.0821
-49.5159
-48.7608
-47.8198
-46.6983
-45.404
-43.9465
-42.3361
-40.5843
-38.7027
-36.7028
-34.5959
-32.3925
-30.1027
-27.7357
-25.3
-22.8031
-20.252
-17.6527
-15.0106
-12.3304
-9.616
-6.87131
-4.09889
-1.30183
1.51834
4.35902
7.21962
10.0977
12.9937
15.9049
18.8328
21.7742
24.7316
27.7013
30.687
33.6839
36.6976
39.7213
42.7632
45.8138
48.8845
51.9618
55.0612
58.1642
61.2915
64.4177
67.5713
70.7171
73.8941
77.0546
80.2513
83.4203
86.6321
89.8012
93.0212
96.1793
99.397
102.529
105.728
108.814
111.972
114.99
118.075
120.999
123.987
126.738
129.775
131.833
135.945
135.551
142.457
139.081
146.733
146.025
143.799
163.684
129.077
179.196
130.871
172.551
158.572
153.354
195.422
131.224
212.821
121.656
216.103
150.469
175.88
248.829
159.478
220.808
192.443
245.057
198.616
205.464
249.031
216.531
216.954
228.444
-36.5001
-37.0902
-37.7971
-38.593
-39.4192
-40.2428
-41.0565
-41.8604
-42.6503
-43.4159
-44.1433
-44.8174
-45.423
-45.9452
-46.3688
-46.6793
-46.8628
-46.9065
-46.7989
-46.5311
-46.0965
-45.4913
-44.7145
-43.7676
-42.6542
-41.3803
-39.9532
-38.3816
-36.6749
-34.843
-32.8959
-30.8435
-28.6952
-26.4604
-24.1473
-21.764
-19.3175
-16.8145
-14.2606
-11.6614
-9.02104
-6.34404
-3.63344
-0.892842
1.87581
4.66943
7.48713
10.326
13.1863
16.0648
18.9629
21.877
24.8097
27.7566
30.7219
33.6998
36.6966
39.7046
42.7327
45.7704
48.8297
51.8965
54.9867
58.0811
61.2013
64.3207
67.4689
70.6095
73.7829
76.9396
80.1345
83.3009
86.5124
89.6802
92.9014
96.0592
99.2799
102.412
105.617
108.704
111.869
114.888
117.982
120.905
123.91
126.651
129.719
131.758
135.895
135.506
142.402
139.063
146.679
145.997
143.735
163.701
128.897
179.316
130.78
172.314
158.612
152.829
195.638
131.018
212.964
121.6
216.337
150.458
173.601
249.168
159.547
220.126
192.459
245.5
198.66
204.553
249.07
216.758
216.82
228.352
-34.2111
-34.6992
-35.2951
-35.9729
-36.6773
-37.3779
-38.0686
-38.7511
-39.4234
-40.0778
-40.7033
-41.2878
-41.8191
-42.2848
-42.6723
-42.9688
-43.1619
-43.2393
-43.1899
-43.0035
-42.6721
-42.1895
-41.5516
-40.7567
-39.8053
-38.6998
-37.4444
-36.045
-34.5085
-32.8427
-31.0561
-29.1572
-27.1547
-25.0574
-22.8732
-20.6101
-18.2754
-15.8758
-13.4174
-10.9061
-8.34664
-5.74383
-3.10121
-0.422896
2.2888
5.03027
7.80034
10.5956
13.416
16.2581
19.1229
22.0065
24.9114
27.8327
30.7748
33.7313
36.7088
39.6989
42.7109
45.7336
48.7797
51.8339
54.9133
57.9972
61.1085
64.2194
67.3606
70.4943
73.6626
76.8139
80.0055
83.1679
86.378
89.5431
92.7648
95.9212
99.1442
102.276
105.485
108.573
111.745
114.765
117.871
120.79
123.818
126.542
129.651
131.663
135.831
135.46
142.319
139.067
146.593
146.002
143.666
163.663
128.77
179.372
130.77
172.083
158.702
152.28
195.778
130.803
213.059
121.623
216.558
150.58
171.191
249.311
159.657
219.445
192.452
245.93
198.741
203.654
249.038
217.059
216.746
228.264
-31.8894
-32.2912
-32.7924
-33.369
-33.9691
-34.5642
-35.1494
-35.7272
-36.2972
-36.8537
-37.3879
-37.8902
-38.3504
-38.7587
-39.1045
-39.377
-39.5652
-39.6582
-39.6454
-39.5168
-39.2635
-38.878
-38.3545
-37.6889
-36.8789
-35.9242
-34.8261
-33.5877
-32.2134
-30.7088
-29.0803
-27.335
-25.4803
-23.5239
-21.4734
-19.3362
-17.1195
-14.83
-12.474
-10.0576
-7.58574
-5.0638
-2.49557
0.114307
2.76323
5.44705
8.16434
10.9112
13.6873
16.4886
19.3163
22.1657
25.0395
27.9322
30.8482
33.7806
36.7363
39.7061
42.6998
45.7054
48.7362
51.7759
54.8425
57.9142
61.0148
64.1153
67.2479
70.3729
73.5345
76.6788
79.8656
83.0224
86.2297
89.3906
92.6115
95.765
98.9896
102.12
105.333
108.42
111.6
114.618
117.738
120.651
123.707
126.408
129.569
131.546
135.748
135.413
142.201
139.104
146.461
146.051
143.578
163.547
128.721
179.334
130.884
171.853
158.845
151.698
195.781
130.573
213.078
121.746
216.703
150.868
168.773
249.216
159.831
218.781
192.402
246.312
198.864
202.807
248.923
217.435
216.743
228.184
-29.5385
-29.8672
-30.2874
-30.777
-31.2873
-31.7917
-32.2861
-32.7736
-33.2547
-33.7253
-34.1784
-34.6059
-34.9999
-35.3522
-35.6542
-35.8967
-36.0704
-36.1658
-36.173
-36.0829
-35.8865
-35.5759
-35.1441
-34.5856
-33.8963
-33.0736
-32.1164
-31.0254
-29.8026
-28.4512
-26.9756
-25.3812
-23.6737
-21.8597
-19.9457
-17.9386
-15.8449
-13.6714
-11.424
-9.10892
-6.73135
-4.2969
-1.80956
0.725556
3.30564
5.92598
8.585
11.2781
14.0051
16.7612
19.5475
22.3588
25.1978
28.0583
30.9452
33.8505
36.7816
39.7285
42.7017
45.6878
48.7012
51.7243
54.7763
57.8338
60.9221
64.0105
67.1326
70.2473
73.4006
76.5361
79.7165
82.8662
86.0691
89.2241
92.4429
95.5917
98.8168
101.944
105.161
108.245
111.433
114.446
117.583
120.484
123.575
126.245
129.469
131.403
135.642
135.363
142.037
139.181
146.266
146.154
143.453
163.327
128.787
179.161
131.169
171.608
159.038
151.058
195.572
130.328
212.993
121.996
216.709
151.364
166.507
248.845
160.096
218.153
192.285
246.61
199.044
202.05
248.707
217.878
216.822
228.12
-27.1617
-27.4283
-27.779
-28.1935
-28.6262
-29.0525
-29.4685
-29.8779
-30.2819
-30.6773
-31.0584
-31.4189
-31.7521
-32.0513
-32.3095
-32.5192
-32.6724
-32.7608
-32.776
-32.7093
-32.5526
-32.2978
-31.9377
-31.466
-30.8774
-30.1677
-29.3342
-28.3753
-27.291
-26.0824
-24.7519
-23.3029
-21.7396
-20.0669
-18.2902
-16.4155
-14.4485
-12.3954
-10.2619
-8.05405
-5.7769
-3.43628
-1.03621
1.41779
3.92285
6.47368
9.0687
11.7026
14.3753
17.0811
19.8215
22.5902
25.3906
28.2151
31.0693
33.9441
36.8479
39.7689
42.719
45.6831
48.677
51.6813
54.7168
57.758
60.8323
63.9066
67.0169
70.1194
73.2628
76.3879
79.5606
82.7011
85.8984
89.0456
92.2611
95.4033
98.6279
101.749
104.969
108.048
111.245
114.25
117.407
120.29
123.422
126.052
129.347
131.232
135.506
135.313
141.821
139.31
145.985
146.31
143.264
162.982
129.004
178.806
131.681
171.31
159.254
150.327
195.073
130.087
212.773
122.416
216.524
152.118
164.547
248.159
160.484
217.572
192.089
246.795
199.305
201.415
248.365
218.387
217.002
228.082
-24.7619
-24.9756
-25.2666
-25.616
-25.9816
-26.3402
-26.6886
-27.0304
-27.3672
-27.6968
-28.0146
-28.3152
-28.5932
-28.8431
-29.0592
-29.2352
-29.3645
-29.44
-29.4543
-29.3998
-29.2691
-29.0545
-28.7491
-28.3462
-27.8399
-27.2251
-26.4978
-25.6551
-24.695
-23.6169
-22.4214
-21.11
-19.6852
-18.1505
-16.5097
-14.7676
-12.929
-10.9994
-8.98381
-6.88805
-4.71669
-2.47573
-0.168932
2.19778
4.6217
7.09693
9.62207
12.191
14.8039
17.4542
20.1439
22.8653
25.6226
28.4069
31.2248
34.0655
36.9386
39.8305
42.7548
45.694
48.6662
51.6491
54.6661
57.6889
60.7475
63.8058
66.9025
69.9911
73.1233
76.236
79.3997
82.5294
85.7199
88.8575
92.0687
95.2022
98.4256
101.539
104.762
107.831
111.039
114.031
117.211
120.069
123.249
125.83
129.201
131.037
135.339
135.267
141.542
139.494
145.591
146.5
142.984
162.503
129.423
178.231
132.481
170.893
159.454
149.481
194.237
129.897
212.381
123.086
216.108
153.172
163.008
247.113
160.997
217.033
191.82
246.832
199.687
200.939
247.865
218.954
217.305
228.082
-22.3418
-22.5104
-22.7499
-23.0429
-23.3501
-23.6501
-23.9398
-24.2229
-24.5014
-24.7735
-25.0355
-25.2829
-25.5112
-25.7159
-25.8923
-26.0353
-26.1392
-26.1981
-26.2056
-26.1552
-26.04
-25.8533
-25.5884
-25.2388
-24.7985
-24.262
-23.6244
-22.8818
-22.0311
-21.0702
-19.998
-18.8145
-17.5205
-16.118
-14.6093
-12.998
-11.2876
-9.48286
-7.58762
-5.60748
-3.54625
-1.40995
0.798177
3.07183
5.40878
7.80239
10.2518
12.7499
15.2975
17.8868
20.5205
23.1895
25.8992
28.6388
31.4164
34.2188
37.0578
39.917
42.8125
45.7237
48.6716
51.6303
54.6268
57.6286
60.6698
63.7098
66.7916
69.8642
72.9838
76.0824
79.2359
82.3529
85.5358
88.6617
91.868
94.9904
98.2126
101.314
104.542
107.598
110.817
113.791
116.998
119.825
123.055
125.585
129.03
130.828
135.135
135.233
141.193
139.727
145.054
146.686
142.604
161.916
130.091
177.419
133.631
170.259
159.595
148.55
193.074
129.83
211.77
124.092
215.414
154.564
161.952
245.641
161.657
216.527
191.515
246.671
200.236
200.661
247.175
219.581
217.757
228.137
-19.9036
-20.034
-20.229
-20.4729
-20.7293
-20.9782
-21.2169
-21.4491
-21.6767
-21.8987
-22.1116
-22.3119
-22.4958
-22.6595
-22.7992
-22.9106
-22.9891
-23.0295
-23.0264
-22.9742
-22.8669
-22.6984
-22.4627
-22.1536
-21.7653
-21.2922
-20.7292
-20.0716
-19.3155
-18.4579
-17.4964
-16.4297
-15.2571
-13.9792
-12.5968
-11.1124
-9.52793
-7.8473
-6.07321
-4.21071
-2.26264
-0.23494
1.87
4.04548
6.29009
8.5964
10.9644
13.3859
15.8626
18.3851
20.9576
23.5689
26.2262
28.9161
31.649
34.4088
37.21
40.0326
42.896
45.7757
48.6965
51.628
54.6016
57.5798
60.6016
63.6209
66.686
69.7406
72.8461
75.9287
79.0709
82.1734
85.3477
88.4601
91.6609
94.7702
97.9911
101.079
104.311
107.351
110.584
113.535
116.77
119.564
122.842
125.327
128.832
130.617
134.891
135.218
140.754
139.981
144.357
146.831
142.143
161.291
130.959
176.382
135.171
169.301
159.676
147.632
191.631
129.964
210.902
125.53
214.377
156.326
161.404
243.673
162.423
216.054
191.235
246.244
200.991
200.615
246.276
220.259
218.369
228.265
-17.4498
-17.5475
-17.7041
-17.9052
-18.1172
-18.3216
-18.5161
-18.7039
-18.8873
-19.0653
-19.2352
-19.3939
-19.5382
-19.665
-19.7711
-19.853
-19.9067
-19.9279
-19.9121
-19.8542
-19.7492
-19.5918
-19.3763
-19.0974
-18.7494
-18.327
-17.8249
-17.2385
-16.5631
-15.7952
-14.9315
-13.9697
-12.9078
-11.7454
-10.4819
-9.11845
-7.65573
-6.0967
-4.44267