/*--------------------------------*- C++ -*----------------------------------*\
| =========                 |                                                 |
| \\      /  F ield         | OpenFOAM: The Open Source CFD Toolbox           |
|  \\    /   O peration     | Version:  2412                                  |
|   \\  /    A nd           | Website:  www.openfoam.com                      |
|    \\/     M anipulation  |                                                 |
\*---------------------------------------------------------------------------*/
FoamFile
{
    version     2.0;
    format      ascii;
    arch        "LSB;label=32;scalar=64";
    class       surfaceScalarField;
    location    "1.385";
    object      ddtCorrDdt0(phi);
}
// * * * * * * * * * * * * * * * * * * * * * * * * * * * * * * * * * * * * * //

dimensions      [0 3 -2 0 0 0 0];

oriented        oriented;

internalField   nonuniform List<scalar> 
24930
(
-2.79095e-05
-3.42216e-05
-3.41186e-06
-2.06143e-05
-1.103e-05
-1.79352e-05
-5.75965e-06
-1.56682e-05
-4.49542e-06
-1.36619e-05
-3.71569e-06
-1.16717e-05
-3.15034e-06
-9.66083e-06
-2.62927e-06
-7.54754e-06
-2.15126e-06
-5.58737e-06
-1.49132e-06
-3.78568e-06
-8.99703e-07
-2.08573e-06
-4.54019e-07
-4.26339e-07
-1.7124e-07
1.15703e-06
3.97816e-08
2.50879e-06
3.00993e-07
3.43888e-06
6.54825e-07
3.83645e-06
1.03359e-06
3.71908e-06
1.32246e-06
3.19959e-06
1.44196e-06
2.41693e-06
1.38378e-06
1.48193e-06
1.19446e-06
4.58433e-07
9.38128e-07
-6.26819e-07
6.66934e-07
-1.76216e-06
4.09309e-07
-2.93295e-06
1.74622e-07
-4.1128e-06
-3.73518e-08
-5.26466e-06
-2.26999e-07
-6.34478e-06
-3.92909e-07
-7.3099e-06
-5.29309e-07
-8.11918e-06
-6.31917e-07
-8.73929e-06
-6.94967e-07
-9.14156e-06
-7.19325e-07
-9.30986e-06
-7.01162e-07
-9.23453e-06
-6.45017e-07
-8.92454e-06
-5.44128e-07
-8.39189e-06
-4.07095e-07
-7.66933e-06
-2.23927e-07
-6.78192e-06
-1.24295e-08
-5.77879e-06
2.41004e-07
-4.68851e-06
5.03972e-07
-3.57396e-06
7.96624e-07
-2.46268e-06
1.06707e-06
-1.43426e-06
1.3489e-06
-5.12279e-07
1.56703e-06
2.03549e-07
1.77946e-06
7.01275e-07
1.88355e-06
8.65209e-07
1.97373e-06
7.15861e-07
1.91321e-06
1.38021e-07
1.84865e-06
-7.83237e-07
1.60492e-06
-2.14098e-06
1.39966e-06
-3.75554e-06
1.01171e-06
-5.69139e-06
7.42576e-07
-7.67378e-06
3.07437e-07
-9.7724e-06
9.20561e-08
-1.16615e-05
-2.78998e-07
-1.34837e-05
-3.43554e-07
-1.49239e-05
-5.90986e-07
-1.62523e-05
-4.86465e-07
-1.71893e-05
-6.36867e-07
-1.81214e-05
-4.23805e-07
-1.87592e-05
-5.44888e-07
-1.95176e-05
-2.79348e-07
-2.0007e-05
-3.72508e-07
-2.05673e-05
-7.69188e-09
-2.06749e-05
4.63556e-08
-2.0587e-05
6.21702e-07
-1.97771e-05
9.17281e-07
-1.856e-05
1.63241e-06
-1.66816e-05
1.96021e-06
-1.46734e-05
2.36168e-06
-1.27322e-05
2.21816e-06
-1.14773e-05
1.8099e-06
-1.13468e-05
1.07605e-06
-1.25021e-05
1.53857e-07
-1.51692e-05
-3.11032e-07
-1.85966e-05
-7.23618e-07
-2.2747e-05
-3.99904e-08
-2.6256e-05
3.90087e-07
-2.92926e-05
1.76707e-06
-3.08288e-05
2.32117e-06
-3.1277e-05
2.87054e-06
-3.11059e-05
2.95882e-06
-2.95168e-05
1.1615e-06
-2.97514e-05
1.79277e-06
-2.75089e-05
-2.19358e-06
-2.711e-05
-1.76132e-06
-2.74483e-05
-2.02341e-06
-2.81895e-05
-1.31728e-06
-2.71767e-05
-1.10875e-06
-2.4367e-05
-3.23672e-07
-2.7046e-05
6.34258e-06
-1.43371e-05
-9.44238e-06
-2.03557e-05
1.09157e-05
-4.53279e-07
-1.44317e-05
-4.77304e-06
1.67831e-06
-1.31036e-06
-1.9972e-05
-3.38087e-05
8.93359e-06
6.30239e-05
-0.000114268
-1.10448e-05
7.29712e-05
0.000209998
-0.00018541
-0.000138948
0.000340717
-0.0001774
2.95464e-05
0.000468021
-0.000676186
0.000451244
3.64942e-05
-0.000613594
0.00108271
-0.000671856
8.20061e-05
0.00177891
-0.00242804
-0.000670519
0.00245286
-0.000503338
-0.000159289
0.00298936
-0.00348785
-0.000311538
0.00330428
0.00266467
-0.00297792
0.00377701
-0.00110718
-0.00270147
0.00647082
-9.57232e-05
-0.00315586
-0.000811018
0.000628447
-0.00764275
0.00684108
-0.00472166
-0.00279193
-0.000195656
-0.0045182
-0.000713766
-3.2681e-05
-1.78576e-05
1.22718e-05
-3.79576e-05
-1.24768e-05
-3.92656e-05
-8.94589e-06
-3.86771e-05
-8.55429e-06
-3.68356e-05
-8.03977e-06
-3.43095e-05
-7.10445e-06
-3.13174e-05
-5.99698e-06
-2.82517e-05
-4.69406e-06
-2.51312e-05
-3.28772e-06
-2.19443e-05
-2.09472e-06
-1.8538e-05
-1.35644e-06
-1.482e-05
-1.03931e-06
-1.09731e-05
-7.82338e-07
-7.45617e-06
-1.88962e-07
-4.76062e-06
8.22123e-07
-3.14085e-06
1.9616e-06
-2.53137e-06
2.81977e-06
-2.66556e-06
3.14724e-06
-3.25791e-06
2.94954e-06
-4.12311e-06
2.40408e-06
-5.19714e-06
1.72382e-06
-6.49326e-06
1.06372e-06
-8.04061e-06
4.92846e-07
-9.84114e-06
1.73301e-08
-1.18542e-05
-3.83647e-07
-1.40048e-05
-7.25912e-07
-1.6199e-05
-1.0127e-06
-1.83413e-05
-1.23034e-06
-2.03401e-05
-1.36671e-06
-2.2116e-05
-1.40658e-06
-2.35974e-05
-1.3529e-06
-2.47323e-05
-1.19815e-06
-2.54798e-05
-9.57249e-07
-2.58278e-05
-6.17472e-07
-2.57688e-05
-2.05794e-07
-2.5327e-05
2.99007e-07
-2.4515e-05
8.48619e-07
-2.33849e-05
1.47835e-06
-2.19599e-05
2.10774e-06
-2.03235e-05
2.79493e-06
-1.85103e-05
3.41284e-06
-1.66471e-05
4.05744e-06
-1.47808e-05
4.54168e-06
-1.3091e-05
5.02587e-06
-1.16254e-05
5.24932e-06
-1.06086e-05
5.4661e-06
-1.00522e-05
5.32208e-06
-1.01957e-05
5.20372e-06
-1.09588e-05
4.64738e-06
-1.25542e-05
4.21507e-06
-1.47504e-05
3.31005e-06
-1.77067e-05
2.70442e-06
-2.1019e-05
1.63169e-06
-2.48223e-05
1.08819e-06
-2.85894e-05
8.63148e-08
-3.25224e-05
-1.62346e-07
-3.60686e-05
-9.14781e-07
-3.95921e-05
-7.61042e-07
-4.25853e-05
-1.24101e-06
-4.55905e-05
-7.50427e-07
-4.81251e-05
-1.06346e-06
-5.08031e-05
-3.83776e-07
-5.30604e-05
-6.18005e-07
-5.54109e-05
1.87047e-07
-5.71465e-05
1.21121e-07
-5.85981e-05
1.14412e-06
-5.90751e-05
1.47918e-06
-5.88391e-05
2.76875e-06
-5.76389e-05
3.57444e-06
-5.58463e-05
4.78457e-06
-5.40571e-05
5.7224e-06
-5.2571e-05
6.09764e-06
-5.2811e-05
6.76759e-06
-5.4145e-05
5.76422e-06
-5.84666e-05
6.44071e-06
-6.31631e-05
4.23841e-06
-7.07694e-05
5.84948e-06
-7.63629e-05
2.8955e-06
-8.41575e-05
6.00207e-06
-8.75433e-05
2.5943e-06
-9.28825e-05
6.27451e-06
-9.37664e-05
3.46248e-06
-9.57232e-05
4.23746e-06
-9.72879e-05
5.50925e-06
-9.53386e-05
-1.66291e-06
-0.000100073
5.1297e-06
-9.40207e-05
-6.72787e-06
-9.99225e-05
4.80142e-06
-8.96169e-05
-1.25267e-05
-9.37385e-05
1.91439e-06
-8.82255e-05
-6.92719e-07
-7.35863e-05
-2.40894e-05
-7.39111e-05
1.15758e-05
-4.46019e-05
-4.29684e-05
-2.83021e-05
-1.04129e-05
-5.99395e-05
1.70967e-05
-7.05343e-05
1.74304e-05
0.000145705
-0.000333792
2.87841e-05
0.000204748
0.000605459
-0.000782162
-0.000502779
0.00145528
-0.000358533
-0.000109264
0.00144472
-0.00246149
0.00122937
0.000236661
-0.00210452
0.00441398
-0.0013416
-0.00069387
0.00528312
-0.00907263
-0.00225222
0.00997904
-0.000766258
-0.00165859
0.00798292
-0.0122488
-0.000571052
0.0118512
0.00872378
-0.0122767
0.0100965
-0.00248551
-0.00785158
0.0244213
-0.000116918
-0.0103603
-0.00365747
0.00422828
-0.022943
0.0259819
-0.0136863
-0.012076
-0.000286963
-0.0179262
-0.00266946
-3.02463e-05
-9.66896e-06
1.73385e-05
-4.00094e-05
-8.42582e-06
-4.51981e-05
-7.6742e-06
-4.82459e-05
-8.62306e-06
-4.93697e-05
-9.16562e-06
-4.87781e-05
-9.03744e-06
-4.70979e-05
-8.13392e-06
-4.47952e-05
-6.60941e-06
-4.21027e-05
-4.83019e-06
-3.90399e-05
-3.36555e-06
-3.54147e-05
-2.6857e-06
-3.11003e-05
-2.70322e-06
-2.63605e-05
-2.67752e-06
-2.18797e-05
-1.7999e-06
-1.84036e-05
7.44171e-08
-1.63111e-05
2.30395e-06
-1.5479e-05
4.00171e-06
-1.54814e-05
4.64611e-06
-1.58943e-05
4.27532e-06
-1.64835e-05
3.28537e-06
-1.72216e-05
2.12243e-06
-1.82002e-05
1.08667e-06
-1.9525e-05
2.87348e-07
-2.12467e-05
-2.98165e-07
-2.3341e-05
-7.41964e-07
-2.57252e-05
-1.0971e-06
-2.82864e-05
-1.38049e-06
-3.09078e-05
-1.57077e-06
-3.34759e-05
-1.64631e-06
-3.58889e-05
-1.5817e-06
-3.80502e-05
-1.38291e-06
-3.98838e-05
-1.03857e-06
-4.13242e-05
-5.74237e-07
-4.2338e-05
3.03323e-08
-4.28966e-05
7.29075e-07
-4.3007e-05
1.55614e-06
-4.26644e-05
2.43068e-06
-4.19091e-05
3.41246e-06
-4.0753e-05
4.36967e-06
-3.92768e-05
5.40324e-06
-3.75129e-05
6.30576e-06
-3.55992e-05
7.24356e-06
-3.35919e-05
7.9101e-06
-3.16983e-05
8.58079e-06
-2.99868e-05
8.82561e-06
-2.87242e-05
9.07703e-06
-2.79478e-05
8.74754e-06
-2.79474e-05
8.49177e-06
-2.86651e-05
7.53854e-06
-3.0364e-05
6.83527e-06
-3.28222e-05
5.386e-06
-3.62394e-05
4.48365e-06
-4.01993e-05
2.8455e-06
-4.48601e-05
2.12697e-06
-4.96606e-05
6.76539e-07
-5.4808e-05
4.89618e-07
-5.9705e-05
-5.2275e-07
-6.47083e-05
-6.07643e-08
-6.92752e-05
-6.48977e-07
-7.39326e-05
3.00695e-07
-7.8195e-05
-5.86047e-08
-8.26429e-05
1.12089e-06
-8.67531e-05
8.73364e-07
-9.09581e-05
2.20541e-06
-9.46446e-05
2.29032e-06
-9.79696e-05
3.97481e-06
-0.00010043
4.87324e-06
-0.000101972
7.0081e-06
-0.000102719
8.90382e-06
-0.000102523
1.08211e-05
-0.000102694
1.31204e-05
-0.000102675
1.32635e-05
-0.000105152
1.51711e-05
-0.000107985
1.21676e-05
-0.000115206
1.42237e-05
-0.00012148
8.12325e-06
-0.000132938
1.27342e-05
-0.000139898
4.4148e-06
-0.000152567
1.38226e-05
-0.000156615
3.58873e-06
-0.000167588
1.66278e-05
-0.000168447
6.05589e-06
-0.00017562
1.4798e-05
-0.000177951
1.17733e-05
-0.000177876
1.60878e-06
-0.000186467
1.56748e-05
-0.000175812
-1.70817e-05
-0.000189309
1.71373e-05
-0.000165311
-3.85221e-05
-0.000182747
1.75781e-05
-0.000161399
-2.22878e-05
-0.000153765
-2.97548e-05
-0.000139488
5.82989e-07
-0.000110638
-6.83562e-05
-6.42692e-05
-5.43309e-05
-0.000148863
0.000101215
-0.000103109
-3.43033e-05
0.000204438
-0.00065465
8.2144e-05
0.00031243
0.000984485
-0.00169523
-0.000949137
0.00340585
-0.000413317
-0.000664587
0.0025166
-0.00537779
0.00189352
0.000859751
-0.00372378
0.0100178
-0.00157034
-0.00285964
0.00893188
-0.0195883
-0.00405697
0.0229581
-0.000496996
-0.00522919
0.0128016
-0.0255538
-0.000727184
0.0253714
0.015589
-0.028589
0.0157468
-0.00264424
-0.0134693
0.0536401
-9.30795e-05
-0.0237354
-0.00767494
0.011844
-0.0391239
0.0571095
-0.0223087
-0.0288782
-5.21622e-05
-0.0401846
-0.00568164
-2.82874e-05
-5.10132e-06
1.93731e-05
-3.73563e-05
-4.95805e-06
-4.34521e-05
-5.3067e-06
-4.85077e-05
-6.56559e-06
-5.21293e-05
-7.70056e-06
-5.42692e-05
-8.21429e-06
-5.49914e-05
-7.88723e-06
-5.45347e-05
-6.72395e-06
-5.32259e-05
-5.063e-06
-5.12135e-05
-3.68182e-06
-4.83688e-05
-3.34122e-06
-4.45075e-05
-4.01901e-06
-3.98398e-05
-4.59535e-06
-3.51659e-05
-3.68541e-06
-3.15039e-05
-9.26796e-07
-2.94649e-05
2.64789e-06
-2.89535e-05
5.47158e-06
-2.93891e-05
6.56712e-06
-3.01576e-05
5.96701e-06
-3.09208e-05
4.36961e-06
-3.16584e-05
2.56384e-06
-3.25372e-05
1.06242e-06
-3.37509e-05
2.78157e-08
-3.54159e-05
-6.13702e-07
-3.75389e-05
-1.01973e-06
-4.00405e-05
-1.3078e-06
-4.27984e-05
-1.52073e-06
-4.56847e-05
-1.62914e-06
-4.85768e-05
-1.59886e-06
-5.13631e-05
-1.39282e-06
-5.39352e-05
-1.02125e-06
-5.62043e-05
-4.68372e-07
-5.80924e-05
2.29995e-07
-5.95561e-05
1.10463e-06
-6.05571e-05
2.09031e-06
-6.10957e-05
3.23734e-06
-6.1159e-05
4.43052e-06
-6.0784e-05
5.75845e-06
-5.99759e-05
7.03447e-06
-5.88168e-05
8.4092e-06
-5.73355e-05
9.58913e-06
-5.56786e-05
1.08216e-05
-5.39034e-05
1.16712e-05
-5.2236e-05
1.25437e-05
-5.07505e-05
1.28249e-05
-4.97414e-05
1.31453e-05
-4.9252e-05
1.26612e-05
-4.96056e-05
1.23222e-05
-5.0746e-05
1.1018e-05
-5.29716e-05
1.01164e-05
-5.60526e-05
8.18103e-06
-6.02206e-05
7.06737e-06
-6.50394e-05
4.92642e-06
-7.0692e-05
4.11948e-06
-7.65881e-05
2.27834e-06
-8.29526e-05
2.23076e-06
-8.91603e-05
1.01172e-06
-9.55776e-05
1.85082e-06
-0.000101651
1.21989e-06
-0.000107903
2.70136e-06
-0.000113871
2.40347e-06
-0.000120097
4.16931e-06
-0.000126126
4.07754e-06
-0.000132284
6.01443e-06
-0.00013809
6.46607e-06
-0.000143486
8.809e-06
-0.000148219
1.05032e-05
-0.000151859
1.33137e-05
-0.000155009
1.65828e-05
-0.0001569
1.8857e-05
-0.000159715
2.30508e-05
-0.000161853
2.25055e-05
-0.000167492
2.67697e-05
-0.000172655
2.11405e-05
-0.00018386
2.64968e-05
-0.000192511
1.51253e-05
-0.000208933
2.54483e-05
-0.000217823
8.65597e-06
-0.000236447
2.81212e-05
-0.000241368
5.56925e-06
-0.000259113
3.34169e-05
-0.000259811
7.78784e-06
-0.000273499
3.09893e-05
-0.000276305
1.76918e-05
-0.000279294
7.39694e-06
-0.00029183
2.99924e-05
-0.000276788
-3.1625e-05
-0.00029748
3.71768e-05
-0.000260334
-7.69751e-05
-0.000295127
5.11134e-05
-0.000254137
-6.35228e-05
-0.000257438
-2.50495e-05
-0.000224985
-2.92598e-05
-0.000199149
-9.14504e-05
-0.000121543
-0.000130472
-0.000262937
0.000241411
-0.000144748
-0.000157114
0.000246145
-0.00105411
0.000117138
0.000423972
0.00134165
-0.0029265
-0.00145982
0.00621369
-0.000349497
-0.00177927
0.0036618
-0.0093831
0.00242323
0.00209406
-0.00531851
0.0177549
-0.00137761
-0.00680589
0.0126708
-0.0336418
-0.0060149
0.0416374
0.000320733
-0.0115739
0.0176271
-0.0428658
-0.000803151
0.0437967
0.0231082
-0.0525031
0.0206114
-0.000147877
-0.0198628
0.0941163
-0.000170521
-0.0434225
-0.0129749
0.0246779
-0.0558327
0.103592
-0.0302772
-0.0544334
0.00049613
-0.0709605
-0.00958693
-2.78294e-05
-3.23924e-06
2.1571e-05
-3.52406e-05
-3.289e-06
-4.04317e-05
-3.72179e-06
-4.53968e-05
-4.50536e-06
-4.98932e-05
-5.31555e-06
-5.35703e-05
-5.83092e-06
-5.62259e-05
-5.70452e-06
-5.77577e-05
-4.87283e-06
-5.82353e-05
-3.54625e-06
-5.78379e-05
-2.43034e-06
-5.65146e-05
-2.5263e-06
-5.3987e-05
-4.0462e-06
-5.02135e-05
-5.64998e-06
-4.5879e-05
-5.24597e-06
-4.22291e-05
-1.9165e-06
-4.02861e-05
3.09788e-06
-4.02129e-05
7.39992e-06
-4.13828e-05
9.25318e-06
-4.29517e-05
8.49993e-06
-4.43759e-05
6.1626e-06
-4.55599e-05
3.5023e-06
-4.67094e-05
1.35849e-06
-4.81062e-05
-3.40038e-09
-4.99499e-05
-7.12749e-07
-5.22964e-05
-1.04618e-06
-5.50789e-05
-1.22257e-06
-5.81646e-05
-1.33196e-06
-6.14131e-05
-1.33829e-06
-6.46941e-05
-1.18843e-06
-6.78916e-05
-8.29161e-07
-7.08905e-05
-2.76188e-07
-7.35949e-05
4.90883e-07
-7.59191e-05
1.4259e-06
-7.78161e-05
2.57421e-06
-7.92436e-05
3.85119e-06
-8.02024e-05
5.32738e-06
-8.06771e-05
6.8503e-06
-8.07077e-05
8.54265e-06
-8.0297e-05
1.01571e-05
-7.95336e-05
1.19018e-05
-7.84444e-05
1.33877e-05
-7.71881e-05
1.49552e-05
-7.58221e-05
1.60259e-05
-7.45927e-05
1.71534e-05
-7.35754e-05
1.75172e-05
-7.30931e-05
1.79706e-05
-7.31879e-05
1.73812e-05
-7.42163e-05
1.70272e-05
-7.61139e-05
1.54171e-05
-7.92142e-05
1.4384e-05
-8.32676e-05
1.19989e-05
-8.85389e-05
1.07366e-05
-9.45587e-05
8.12079e-06
-0.000101539
7.28555e-06
-0.000108847
5.08198e-06
-0.000116734
5.23933e-06
-0.000124538
3.85921e-06
-0.000132645
5.15606e-06
-0.000140488
4.56467e-06
-0.000148594
6.67688e-06
-0.000156527
6.57522e-06
-0.000164795
9.03414e-06
-0.000173021
9.29265e-06
-0.000181418
1.19213e-05
-0.000189662
1.29993e-05
-0.000197446
1.60272e-05
-0.000204825
1.88671e-05
-0.000210922
2.22717e-05
-0.000216922
2.74163e-05
-0.000221318
2.97978e-05
-0.000227333
3.66472e-05
-0.000232121
3.48829e-05
-0.000241628
4.26823e-05
-0.000249701
3.33735e-05
-0.000265777
4.38492e-05
-0.000277436
2.51705e-05
-0.0002999
4.40583e-05
-0.000311324
1.51339e-05
-0.000337176
4.92512e-05
-0.000343431
8.47706e-06
-0.000369431
5.81132e-05
-0.000370214
9.38024e-06
-0.000392068
5.52731e-05
-0.000395469
2.42812e-05
-0.000402993
1.79102e-05
-0.000419971
4.89902e-05
-0.000400981
-4.99098e-05
-0.000431572
6.73035e-05
-0.000368965
-0.000140665
-0.000436308
0.000117461
-0.000370455
-0.000129418
-0.000390006
-3.94588e-06
-0.000335285
-8.09187e-05
-0.000315882
-0.000107435
-0.00020598
-0.000238828
-0.000405936
0.00043921
-0.000200714
-0.000368619
0.000263631
-0.00152741
0.000126449
0.000547858
0.00166419
-0.00446937
-0.00203272
0.0099121
-0.000155764
-0.00363992
0.00483841
-0.0143736
0.00280869
0.00412247
-0.00681345
0.0273767
-0.000773898
-0.0128466
0.0164401
-0.0508595
-0.00804582
0.0661167
0.00172576
-0.0213545
0.0224449
-0.063591
-0.000785666
0.067022
0.0311045
-0.0843945
0.0245363
0.00642032
-0.0269517
0.145603
-0.000522214
-0.0698502
-0.0196098
0.0437969
-0.072884
0.161002
-0.0373548
-0.0899699
0.00131638
-0.109634
-0.0142905
-2.86542e-05
-2.69999e-06
2.3773e-05
-3.49922e-05
-2.72648e-06
-3.90803e-05
-3.06031e-06
-4.30653e-05
-3.29987e-06
-4.69964e-05
-3.42113e-06
-5.06903e-05
-3.39364e-06
-5.3873e-05
-2.9825e-06
-5.63916e-05
-2.04463e-06
-5.81317e-05
-7.92784e-07
-5.91793e-05
2.32255e-07
-5.95817e-05
-2.40452e-08
-5.89988e-05
-2.16539e-06
-5.69728e-05
-4.98307e-06
-5.36905e-05
-5.76338e-06
-5.03199e-05
-2.61987e-06
-4.83346e-05
3.5238e-06
-4.84672e-05
9.55885e-06
-5.03323e-05
1.2664e-05
-5.29339e-05
1.20982e-05
-5.54258e-05
9.05663e-06
-5.75008e-05
5.36229e-06
-5.9314e-05
2.34282e-06
-6.12077e-05
4.78512e-07
-6.34808e-05
-3.76596e-07
-6.62708e-05
-6.35212e-07
-6.95463e-05
-6.62966e-07
-7.31692e-05
-6.37121e-07
-7.69813e-05
-5.26138e-07
-8.08415e-05
-2.49732e-07
-8.46313e-05
2.7079e-07
-8.82315e-05
1.01332e-06
-9.15399e-05
2.00113e-06
-9.44626e-05
3.17561e-06
-9.69489e-05
4.60122e-06
-9.89527e-05
6.1733e-06
-0.000100476
7.98793e-06
-0.000101502
9.8513e-06
-0.000102076
1.19272e-05
-0.0001022
1.38999e-05
-0.00010197
1.60452e-05
-0.000101414
1.78665e-05
-0.000100705
1.98122e-05
-9.99006e-05
2.11425e-05
-9.9271e-05
2.25818e-05
-9.88919e-05
2.30759e-05
-9.91194e-05
2.37322e-05
-9.99918e-05
2.30905e-05
-0.000101905
2.28e-05
-0.000104782
2.09361e-05
-0.000108997
1.98541e-05
-0.000114276
1.70671e-05
-0.000120924
1.57408e-05
-0.000128429
1.26949e-05
-0.000137038
1.19188e-05
-0.000146072
9.40068e-06
-0.00015581
9.8559e-06
-0.000165547
8.37721e-06
-0.000175693
1.02321e-05
-0.000185663
9.77223e-06
-0.000195993
1.26211e-05
-0.000206274
1.28551e-05
-0.000216974
1.61105e-05
-0.000227813
1.69246e-05
-0.000238863
2.0326e-05
-0.000249999
2.23234e-05
-0.000260618
2.60588e-05
-0.000271147
3.04609e-05
-0.000280183
3.43641e-05
-0.000289607
4.19841e-05
-0.000297031
4.41691e-05
-0.000306913
5.45614e-05
-0.000314932
5.09246e-05
-0.00032911
6.36235e-05
-0.000340736
4.9388e-05
-0.000362669
6.71414e-05
-0.00037803
3.88666e-05
-0.000407744
6.97752e-05
-0.000422394
2.46556e-05
-0.00045694
7.89102e-05
-0.000465127
1.32036e-05
-0.000501147
9.27852e-05
-0.000502411
1.14643e-05
-0.000534476
8.98095e-05
-0.0005387
3.17384e-05
-0.000552758
3.49853e-05
-0.000574773
7.3023e-05
-0.000552936
-7.10716e-05
-0.000595144
0.000109031
-0.000528701
-0.000208146
-0.000619278
0.000207172
-0.000515073
-0.000233528
-0.000559045
4.16896e-05
-0.000476554
-0.000160166
-0.000468962
-0.000111425
-0.000325045
-0.000381263
-0.000584526
0.000695847
-0.000279943
-0.000680023
0.00024452
-0.00206131
9.72244e-05
0.00068363
0.00193492
-0.00631108
-0.00264951
0.0144962
0.000147258
-0.00641004
0.00599347
-0.0202168
0.00305562
0.00706295
-0.00815106
0.0385841
0.000202745
-0.0212007
0.0201704
-0.0708315
-0.0100557
0.0963357
0.00372462
-0.0351443
0.0272201
-0.0870929
-0.000668141
0.0949071
0.0393404
-0.124405
0.0273847
0.0183761
-0.0346416
0.207628
-0.00133185
-0.103161
-0.0276781
0.0701704
-0.0894442
0.227432
-0.0433
-0.136127
0.00235135
-0.155287
-0.019823
-3.01227e-05
-2.5805e-06
2.58493e-05
-3.60315e-05
-2.53304e-06
-3.94733e-05
-2.83545e-06
-4.26213e-05
-2.77757e-06
-4.56132e-05
-2.3594e-06
-4.84762e-05
-1.71996e-06
-5.11136e-05
-7.75977e-07
-5.33831e-05
5.37239e-07
-5.52766e-05
2.09121e-06
-5.68312e-05
3.36597e-06
-5.82661e-05
3.46601e-06
-5.94098e-05
1.39205e-06
-5.95321e-05
-2.21534e-06
-5.80662e-05
-4.4981e-06
-5.55557e-05
-2.47709e-06
-5.35726e-05
3.95529e-06
-5.35473e-05
1.15738e-05
-5.57434e-05
1.6425e-05
-5.93142e-05
1.66874e-05
-6.31402e-05
1.33067e-05
-6.65565e-05
8.58324e-06
-6.95068e-05
4.4787e-06
-7.22982e-05
1.86453e-06
-7.53071e-05
6.91905e-07
-7.87836e-05
4.472e-07
-8.27749e-05
5.84913e-07
-8.71594e-05
7.79614e-07
-9.17599e-05
1.02426e-06
-9.64187e-05
1.42966e-06
-0.000101016
2.11634e-06
-0.000105431
3.05799e-06
-0.00010956
4.27694e-06
-0.000113298
5.69613e-06
-0.000116588
7.40337e-06
-0.000119379
9.27276e-06
-0.000121673
1.14328e-05
-0.000123451
1.36433e-05
-0.000124763
1.61181e-05
-0.000125611
1.84642e-05
-0.000126102
2.10377e-05
-0.000126262
2.32187e-05
-0.000126283
2.55837e-05
-0.00012622
2.72078e-05
-0.000126373
2.9015e-05
-0.000126815
2.9684e-05
-0.00012794
3.06161e-05
-0.000129779
2.99752e-05
-0.000132777
2.98354e-05
-0.000136838
2.77748e-05
-0.000142388
2.67419e-05
-0.00014912
2.36113e-05
-0.000157389
2.23274e-05
-0.000166635
1.89105e-05
-0.000177154
1.83067e-05
-0.000188204
1.55379e-05
-0.000200107
1.64098e-05
-0.000212107
1.49107e-05
-0.000224648
1.74468e-05
-0.00023712
1.72258e-05
-0.000250071
2.09355e-05
-0.000263122
2.16638e-05
-0.000276696
2.58326e-05
-0.000290623
2.7438e-05
-0.000304817
3.1703e-05
-0.000319383
3.49635e-05
-0.000333376
3.94321e-05
-0.00034767
4.58945e-05
-0.000360237
5.01881e-05
-0.000373791
6.10059e-05
-0.000384895
6.26438e-05
-0.000399474
7.76428e-05
-0.000411446
7.13716e-05
-0.000431288
9.05888e-05
-0.000447272
6.99762e-05
-0.000476266
9.75473e-05
-0.0004962
5.70466e-05
-0.00053462
0.000104022
-0.000553377
3.80876e-05
-0.000598365
0.000118858
-0.000609281
2.05882e-05
-0.000657406
0.000139579
-0.000659759
1.47201e-05
-0.000704457
0.000137083
-0.000709933
4.05301e-05
-0.000733015
6.11154e-05
-0.000760851
0.000102842
-0.000737849
-9.34847e-05
-0.000794019
0.000164629
-0.000714084
-0.000289166
-0.000821836
0.000314113
-0.000688974
-0.000366151
-0.00077432
0.000128904
-0.000655337
-0.000275635
-0.000668246
-9.46451e-05
-0.000486722
-0.000561271
-0.000807186
0.00101291
-0.00039273
-0.00110248
0.000175021
-0.00263946
1.65831e-05
0.000831592
0.00213708
-0.00843489
-0.00331577
0.0199489
0.000548512
-0.0102616
0.00706863
-0.0267341
0.00318372
0.0109511
-0.0092847
0.0510529
0.00148044
-0.0319665
0.0237959
-0.0931519
-0.0119472
0.132071
0.00627785
-0.0533792
0.0318903
-0.112712
-0.000456257
0.127249
0.0475365
-0.1724
0.0290885
0.0368241
-0.0428017
0.279517
-0.00284495
-0.143119
-0.0370898
0.104429
-0.105357
0.28829
-0.0480116
-0.193486
0.00354899
-0.206849
-0.0263932
-3.1801e-05
-2.52216e-06
2.78495e-05
-3.75528e-05
-2.36758e-06
-4.07239e-05
-2.64155e-06
-4.34731e-05
-2.46641e-06
-4.58405e-05
-1.78199e-06
-4.78932e-05
-7.61113e-07
-4.96571e-05
6.07282e-07
-5.11211e-05
2.32015e-06
-5.23085e-05
4.24592e-06
-5.34127e-05
6.00001e-06
-5.47564e-05
6.80239e-06
-5.65707e-05
5.54807e-06
-5.82978e-05
2.08186e-06
-5.88489e-05
-1.28274e-06
-5.77903e-05
-9.28919e-07
-5.61332e-05
4.69e-06
-5.56721e-05
1.31486e-05
-5.75564e-05
1.98805e-05
-6.15663e-05
2.17268e-05
-6.65972e-05
1.8775e-05
-7.16105e-05
1.34145e-05
-7.61605e-05
8.22536e-06
-8.03371e-05
4.64191e-06
-8.44864e-05
2.8992e-06
-8.89545e-05
2.50946e-06
-9.39121e-05
2.77547e-06
-9.92994e-05
3.1636e-06
-0.000104933
3.56128e-06
-0.00011063
4.09284e-06
-0.000116266
4.94179e-06
-0.000121727
6.08865e-06
-0.000126907
7.55194e-06
-0.000131695
9.22445e-06
-0.000136026
1.12197e-05
-0.000139837
1.33881e-05
-0.000143134
1.58994e-05
-0.00014589
1.84602e-05
-0.000148163
2.13469e-05
-0.00014995
2.40774e-05
-0.000151377
2.71054e-05
-0.000152463
2.9668e-05
-0.000153426
3.24934e-05
-0.000154315
3.44428e-05
-0.000155463
3.66751e-05
-0.000156936
3.75604e-05
-0.000159175
3.8844e-05
-0.0001622
3.82553e-05
-0.00016651
3.83599e-05
-0.000171985
3.6161e-05
-0.000179115
3.5287e-05
-0.00018755
3.18762e-05
-0.000197711
3.0759e-05
-0.000208979
2.70403e-05
-0.000221709
2.67453e-05
-0.000235091
2.38042e-05
-0.000249503
2.52395e-05
-0.000264126
2.38172e-05
-0.00027945
2.71876e-05
-0.000294836
2.73374e-05
-0.000310849
3.20606e-05
-0.000327145
3.34736e-05
-0.000344093
3.86977e-05
-0.000361652
4.13735e-05
-0.000379552
4.66102e-05
-0.000398174
5.15414e-05
-0.000416171
5.67747e-05
-0.000434951
6.58928e-05
-0.00045175
7.04537e-05
-0.000470273
8.53394e-05
-0.000485836
8.60285e-05
-0.000506101
0.000106916
-0.000522899
9.71318e-05
-0.000549596
0.000124798
-0.000570913
9.61299e-05
-0.000608411
0.000136505
-0.000633986
8.075e-05
-0.000682856
0.000148496
-0.000706827
5.64837e-05
-0.000764338
0.000171131
-0.000779038
3.16616e-05
-0.000841734
0.000200967
-0.000846069
2.00738e-05
-0.000906275
0.000200025
-0.000913716
5.1433e-05
-0.00094891
9.94424e-05
-0.00098362
0.000139537
-0.000961873
-0.00011472
-0.00103473
0.000236799
-0.000941483
-0.000383587
-0.00107758
0.000449403
-0.000919364
-0.00052404
-0.00105293
0.000264534
-0.000878636
-0.000446143
-0.000926649
-4.24976e-05
-0.000700363
-0.000786007
-0.00108575
0.00139442
-0.000552586
-0.00164467
3.78968e-05
-0.00324132
-0.00013137
0.000991146
0.00224988
-0.0108191
-0.00402202
0.0262211
0.000995372
-0.0152749
0.00800693
-0.0337429
0.00322825
0.0157327
-0.0101931
0.0644743
0.00295945
-0.0451202
0.0272604
-0.117459
-0.0136333
0.172957
0.00928447
-0.0763073
0.0363841
-0.139819
-0.000182869
0.163812
0.0553757
-0.227961
0.0296296
0.0625704
-0.0512996
0.360444
-0.00528871
-0.189133
-0.0481463
0.14729
-0.120209
0.357662
-0.0513063
-0.2624
0.00488092
-0.263038
-0.0344333
-3.3471e-05
-2.39418e-06
2.97667e-05
-3.91078e-05
-2.10384e-06
-4.21558e-05
-2.29341e-06
-4.47884e-05
-2.0499e-06
-4.6918e-05
-1.27163e-06
-4.85411e-05
-1.12585e-07
-4.96911e-05
1.44078e-06
-5.04168e-05
3.37627e-06
-5.07851e-05
5.54856e-06
-5.10419e-05
7.72289e-06
-5.1571e-05
9.24156e-06
-5.29327e-05
9.15755e-06
-5.50937e-05
6.71405e-06
-5.70258e-05
3.21925e-06
-5.75256e-05
2.10055e-06
-5.65748e-05
6.08005e-06
-5.56452e-05
1.42294e-05
-5.65389e-05
2.23375e-05
-6.00102e-05
2.62295e-05
-6.54734e-05
2.46827e-05
-7.17749e-05
1.95443e-05
-7.80418e-05
1.37004e-05
-8.39598e-05
9.17099e-06
-8.9647e-05
6.6504e-06
-9.5429e-05
5.88409e-06
-0.000101596
6.16372e-06
-0.000108206
6.74694e-06
-0.000115106
7.33039e-06
-0.000122086
7.99451e-06
-0.000129002
8.99792e-06
-0.000135745
1.03516e-05
-0.000142222
1.20763e-05
-0.000148313
1.40185e-05
-0.000153945
1.63155e-05
-0.000159043
1.87875e-05
-0.000163608
2.16572e-05
-0.000167604
2.45691e-05
-0.000171097
2.78783e-05
-0.000174077
3.1e-05
-0.00017669
3.45076e-05
-0.000178952
3.74709e-05
-0.000181105
4.07995e-05
-0.000183194
4.3104e-05
-0.00018559
4.58218e-05
-0.000188347
4.69634e-05
-0.000191961
4.86788e-05
-0.000196433
4.81926e-05
-0.000202325
4.86436e-05
-0.000209491
4.63663e-05
-0.000218491
4.57738e-05
-0.000228929
4.21513e-05
-0.000241299
4.13439e-05
-0.000254916
3.74025e-05
-0.000270209
3.75782e-05
-0.00028629
3.45588e-05
-0.000303606
3.67341e-05
-0.000321267
3.55072e-05
-0.000339821
3.9898e-05
-0.000358596
4.05791e-05
-0.000378178
4.65017e-05
-0.000398262
4.88283e-05
-0.000419157
5.52782e-05
-0.000440976
5.93575e-05
-0.00046323
6.56947e-05
-0.000486633
7.27827e-05
-0.00050936
7.88177e-05
-0.000533467
9.1304e-05
-0.000555313
9.5989e-05
-0.000579789
0.000115988
-0.000600726
0.000115263
-0.000627845
0.000143578
-0.000650499
0.000129266
-0.00068546
0.000167687
-0.000713273
0.000129025
-0.00076099
0.000185726
-0.000793492
0.000111241
-0.000854884
0.000205231
-0.000885436
8.11662e-05
-0.000957939
0.000238156
-0.000977793
4.7766e-05
-0.00105797
0.000279855
-0.00106555
2.88122e-05
-0.00114466
0.000282071
-0.0011552
6.56278e-05
-0.00120626
0.000153771
-0.00124933
0.000184618
-0.00123212
-0.000131479
-0.00132494
0.00032881
-0.00121974
-0.000490076
-0.00139062
0.000619423
-0.00121191
-0.000702352
-0.00137488
0.000429749
-0.00115008
-0.000666859
-0.00126136
7.32118e-05
-0.000976294
-0.00106945
-0.00143623
0.00185007
-0.000775516
-0.00231542
-0.000187165
-0.00384208
-0.000364393
0.00115872
0.00225136
-0.0134377
-0.00477614
0.0332494
0.00143852
-0.0214866
0.00875458
-0.0410559
0.00323164
0.0212582
-0.0108867
0.0785924
0.00452021
-0.0605288
0.030521
-0.143466
-0.0150567
0.218525
0.0125802
-0.103955
0.0406148
-0.16786
8.05635e-05
0.204341
0.0625149
-0.290397
0.0290481
0.0960374
-0.0600214
0.449512
-0.00890817
-0.240248
-0.0601327
0.198509
-0.133266
0.428938
-0.0531996
-0.342473
0.00636907
-0.322607
-0.0445532
-3.52781e-05
-2.13551e-06
3.18089e-05
-4.0729e-05
-1.72584e-06
-4.36331e-05
-1.78252e-06
-4.61936e-05
-1.4559e-06
-4.82499e-05
-6.39271e-07
-4.97334e-05
5.32721e-07
-5.06304e-05
2.09355e-06
-5.09784e-05
4.0664e-06
-5.08614e-05
6.32761e-06
-5.04304e-05
8.68546e-06
-5.01167e-05
1.07384e-05
-5.05138e-05
1.16917e-05
-5.21043e-05
1.06607e-05
-5.43734e-05
7.9463e-06
-5.59389e-05
6.09733e-06
-5.58366e-05
8.24432e-06
-5.46558e-05
1.50132e-05
-5.42243e-05
2.34477e-05
-5.61683e-05
2.91996e-05
-6.08255e-05
2.9789e-05
-6.73968e-05
2.59552e-05
-7.4811e-05
2.03389e-05
-8.23272e-05
1.53166e-05
-8.96635e-05
1.20683e-05
-9.6925e-05
1.07514e-05
-0.000104416
1.08814e-05
-0.000112332
1.1631e-05
-0.00012061
1.24609e-05
-0.000129028
1.33085e-05
-0.000137407
1.44832e-05
-0.000145628
1.60546e-05
-0.000153613
1.80711e-05
-0.000161241
2.03198e-05
-0.000168435
2.29544e-05
-0.000175097
2.57517e-05
-0.000181222
2.89992e-05
-0.000186755
3.22684e-05
-0.000191767
3.60133e-05
-0.000196239
3.95305e-05
-0.000200335
4.35429e-05
-0.000204066
4.69234e-05
-0.000207708
5.08009e-05
-0.000211293
5.34894e-05
-0.000215239
5.67587e-05
-0.000219585
5.81964e-05
-0.000224885
6.04313e-05
-0.000231117
6.00982e-05
-0.00023892
6.10079e-05
-0.000248106
5.87143e-05
-0.000259323
5.85412e-05
-0.000272115
5.47808e-05
-0.000287069
5.44466e-05
-0.00030342
5.0372e-05
-0.000321688
5.12067e-05
-0.000340895
4.82194e-05
-0.000361573
5.13426e-05
-0.000382752
5.04535e-05
-0.00040505
5.60857e-05
-0.00042776
5.74917e-05
-0.00045149
6.48343e-05
-0.00047599
6.835e-05
-0.000501488
7.62271e-05
-0.000528288
8.21095e-05
-0.000555635
8.96977e-05
-0.000584654
9.95256e-05
-0.000612947
0.000106404
-0.000643355
0.000123114
-0.000671188
0.000127751
-0.000702764
0.00015412
-0.000730135
0.000151434
-0.000765477
0.00018903
-0.000795191
0.000169007
-0.000840078
0.000220943
-0.000875754
0.000170045
-0.000935716
0.000247239
-0.000976681
0.000150044
-0.00105305
0.000276655
-0.00109186
0.000113774
-0.00118227
0.000322819
-0.00120903
7.06251e-05
-0.00131012
0.000379658
-0.0013227
4.26904e-05
-0.0014247
0.000387222
-0.00144005
8.48638e-05
-0.00151148
0.000228628
-0.00156502
0.000240238
-0.00155662
-0.000139487
-0.00167344
0.000444703
-0.00155879
-0.000606155
-0.00177115
0.000830872
-0.00156917
-0.000903885
-0.00177028
0.0006333
-0.00151201
-0.000920737
-0.00169978
0.000265725
-0.00132506
-0.00144246
-0.00188059
0.0024009
-0.00108003
-0.00312698
-0.000525029
-0.00441054
-0.000703343
0.00132711
0.00211466
-0.0162586
-0.00559264
0.0409582
0.00179696
-0.0288733
0.00926593
-0.0485217
0.00323471
0.0272918
-0.0114183
0.0932448
0.00603535
-0.0779852
0.0335453
-0.170983