/*--------------------------------*- C++ -*----------------------------------*\
| =========                 |                                                 |
| \\      /  F ield         | OpenFOAM: The Open Source CFD Toolbox           |
|  \\    /   O peration     | Version:  2412                                  |
|   \\  /    A nd           | Website:  www.openfoam.com                      |
|    \\/     M anipulation  |                                                 |
\*---------------------------------------------------------------------------*/
FoamFile
{
    version     2.0;
    format      ascii;
    arch        "LSB;label=32;scalar=64";
    class       volVectorField;
    location    "0.64";
    object      U;
}
// * * * * * * * * * * * * * * * * * * * * * * * * * * * * * * * * * * * * * //

dimensions      [0 1 -1 0 0 0 0];

internalField   nonuniform List<vector> 
12600
(
(18.7199 1.23381e-21 2.08828)
(11.6127 1.60842e-20 0.449125)
(7.35001 1.89209e-20 -0.478298)
(5.09077 0 -0.709401)
(3.97883 1.71146e-20 -0.682545)
(3.33856 1.59432e-20 -0.607912)
(2.89754 0 -0.540275)
(2.56641 0 -0.484885)
(2.30682 -4.79724e-20 -0.439462)
(2.09667 0 -0.401741)
(1.92227 2.01339e-20 -0.369879)
(1.77469 1.84415e-20 -0.342554)
(1.64783 -1.68998e-20 -0.318818)
(1.53734 0 -0.297975)
(1.44006 -1.41741e-20 -0.279503)
(1.35358 0 -0.262998)
(1.2761 4.76634e-20 -0.248146)
(1.20617 0 -0.234698)
(1.14268 -1.99647e-20 -0.222452)
(1.0847 -1.82675e-20 -0.211244)
(1.0315 1.66836e-20 -0.20094)
(0.982466 5.56682e-24 -0.191429)
(0.937097 0 -0.182617)
(0.894964 -2.52103e-20 -0.174425)
(0.855708 0 -0.166785)
(0.819023 0 -0.15964)
(0.784644 -1.87302e-20 -0.15294)
(0.752345 0 -0.146643)
(0.721928 3.90777e-24 -0.14071)
(0.69322 1.35745e-20 -0.135109)
(0.666069 1.21006e-20 -0.12981)
(0.640342 1.0735e-20 -0.124788)
(0.615919 -9.47018e-21 -0.120021)
(0.592696 -1.65982e-20 -0.115487)
(0.570577 -1.44307e-20 -0.111168)
(0.549477 1.24153e-20 -0.107049)
(0.529322 0 -0.103114)
(0.510041 -8.86048e-21 -0.0993506)
(0.491572 0 -0.0957456)
(0.473858 5.82259e-21 -0.0922885)
(0.456847 0 -0.0889692)
(0.440492 1.72848e-23 -0.0857784)
(0.42475 0 -0.0827077)
(0.409581 1.57438e-23 -0.0797492)
(0.394947 1.99779e-22 -0.0768958)
(0.380815 1.53614e-21 -0.0741409)
(0.367154 -3.14932e-21 -0.0714782)
(0.353933 0 -0.0689022)
(0.341126 0 -0.0664074)
(0.328708 -7.13674e-21 -0.063989)
(0.316655 -1.64511e-20 -0.0616423)
(0.304945 -1.8415e-20 -0.0593629)
(0.293557 1.92177e-23 -0.0571469)
(0.282472 -2.17401e-20 -0.0549903)
(0.271672 0 -0.0528898)
(0.261138 2.44078e-20 -0.0508418)
(0.250857 2.55015e-20 -0.0488434)
(0.240811 2.64406e-20 -0.0468912)
(0.230989 0 -0.044983)
(0.221373 0 -0.0431155)
(0.211956 0 -0.0412871)
(0.20272 -5.81023e-20 -0.0394944)
(0.193661 0 -0.0377365)
(0.184762 0 -0.0360098)
(0.176021 1.19751e-19 -0.0343145)
(0.167418 0 -0.0326464)
(0.15896 0 -0.0310067)
(0.150623 0 -0.0293908)
(0.14242 -1.20191e-19 -0.0278012)
(0.134323 1.19674e-19 -0.0262323)
(0.126352 1.18951e-19 -0.0246883)
(0.118474 2.33131e-23 -0.0231626)
(0.110721 -1.16917e-19 -0.0216612)
(0.103052 0 -0.0201762)
(0.0955087 1.14207e-19 -0.0187158)
(0.0880445 0 -0.0172709)
(0.0807122 0 -0.0158514)
(0.0734598 0 -0.0144477)
(0.0663473 2.89095e-23 -0.0130709)
(0.0593237 2.10264e-19 -0.0117115)
(0.0524478 2.06039e-19 -0.0103805)
(0.0456799 -2.01582e-19 -0.00907052)
(0.0390647 -1.97058e-19 -0.00778975)
(0.0325898 0 -0.00653633)
(0.0262627 0 -0.00531114)
(0.0201238 3.65426e-19 -0.00412249)
(0.0141145 -7.11102e-19 -0.00295858)
(0.00835398 6.90932e-19 -0.00184287)
(0.00268905 3.35401e-19 -0.000745393)
(-0.00266144 0 0.000291849)
(-0.00796482 -6.29924e-19 0.00131798)
(-0.0128914 3.04685e-19 0.00227324)
(-0.0178313 -2.94495e-19 0.00323048)
(-0.0223544 5.68575e-19 0.00410655)
(-0.0269606 0 0.00499925)
(-0.0310834 0 0.00579696)
(-0.0354715 0 0.00664723)
(-0.0392108 0 0.00736904)
(-0.0437733 0 0.00825186)
(-0.0469913 0 0.00887069)
(-0.0522958 -4.33322e-19 0.009897)
(-0.0519279 -8.31246e-19 0.00982747)
(-0.0629002 -7.95124e-19 0.0119371)
(-0.0562507 0 0.0106326)
(-0.0614756 0 0.0117374)
(-0.0908984 0 0.0172917)
(-0.0929716 -6.71184e-19 0.0174208)
(-0.0424257 -1.29447e-18 0.0082667)
(-0.147935 5.89663e-19 0.0285597)
(-0.217147 0 0.0406458)
(-0.0312928 -1.22511e-18 0.00480023)
(0.0411103 0 -0.00680234)
(-0.23007 -9.70013e-19 0.045192)
(-0.357697 9.84452e-19 0.0678438)
(-0.265506 -1.04507e-18 0.0489355)
(-0.0500641 -1.05822e-18 0.0080343)
(0.0556405 1.02245e-18 -0.0115321)
(0.159247 -7.79496e-24 -0.0308424)
(0.145419 8.97441e-19 -0.0277989)
(0.143359 0 -0.0275154)
(29.1231 -1.24553e-21 4.01671)
(25.0881 0 1.85289)
(20.2338 -1.91501e-20 -0.216397)
(16.0738 0 -1.21359)
(13.1186 -1.7342e-20 -1.50874)
(11.0785 -3.04622e-20 -1.51973)
(9.60798 -1.4105e-20 -1.44219)
(8.49709 0 -1.34472)
(7.62502 3.5614e-22 -1.24946)
(6.91906 -2.19524e-20 -1.16248)
(6.33363 2.01625e-20 -1.08448)
(5.83875 1.85165e-20 -1.01472)
(5.41383 -1.70027e-20 -0.952208)
(5.04424 1.56096e-20 -0.895969)
(4.71922 2.87095e-20 -0.845144)
(4.43072 0 -0.799)
(4.17255 -6.50371e-23 -0.756919)
(3.93989 2.2084e-20 -0.71838)
(3.72889 2.02552e-20 -0.682946)
(3.53649 0 -0.650245)
(3.36017 0 -0.619962)
(3.19788 1.54292e-20 -0.59183)
(3.0479 0 -0.565618)
(2.90879 1.27797e-20 -0.541128)
(2.77933 -2.31919e-20 -0.518188)
(2.65849 0 -0.496649)
(2.54538 1.89835e-20 -0.47638)
(2.43924 0 -0.457266)
(2.33939 -1.53613e-20 -0.439206)
(2.24525 -2.75003e-20 -0.422111)
(2.15632 -2.45099e-20 -0.405901)
(2.07214 -1.08658e-20 -0.390504)
(1.99231 9.58289e-21 -0.375858)
(1.91648 3.35993e-20 -0.361905)
(1.84433 2.92052e-20 -0.348594)
(1.77557 0 -0.335877)
(1.70995 0 -0.323713)
(1.64725 -1.70183e-23 -0.312064)
(1.58724 0 -0.300893)
(1.52974 -5.87814e-21 -0.290169)
(1.47457 0 -0.279863)
(1.42158 -6.54373e-21 -0.269948)
(1.37063 0 -0.260398)
(1.32157 -2.14446e-21 -0.251191)
(1.27429 0 -0.242305)
(1.22867 -1.5468e-21 -0.233721)
(1.18461 0 -0.22542)
(1.14201 0 -0.217385)
(1.10078 5.93264e-21 -0.2096)
(1.06084 0 -0.202051)
(1.0221 0 -0.194723)
(0.984499 0 -0.187604)
(0.947964 2.02242e-20 -0.180681)
(0.91243 4.35606e-20 -0.173942)
(0.877838 0 -0.167377)
(0.84413 0 -0.160975)
(0.811255 -2.54768e-20 -0.154728)
(0.779159 -2.64393e-20 -0.148624)
(0.747801 0 -0.142658)
(0.717128 0 -0.136818)
(0.68711 0 -0.131101)
(0.657693 0 -0.125494)
(0.628859 -5.86004e-20 -0.119997)
(0.600553 5.91438e-20 -0.114598)
(0.572768 -1.19068e-19 -0.109297)
(0.545444 0 -0.10408)
(0.518592 0 -0.0989536)
(0.492143 0 -0.0939003)
(0.466127 4.68826e-23 -0.0889308)
(0.440464 -1.1853e-19 -0.0840244)
(0.415209 -1.17706e-19 -0.079198)
(0.390265 2.33314e-19 -0.0744265)
(0.365716 3.56543e-23 -0.0697336)
(0.341449 -1.14065e-19 -0.0650891)
(0.317577 -1.12582e-19 -0.0605247)
(0.29397 0 -0.0560045)
(0.270771 0 -0.0515685)
(0.247838 0 -0.0471759)
(0.225335 2.10428e-19 -0.042873)
(0.203124 0 -0.0386174)
(0.181365 0 -0.0344571)
(0.159955 1.97292e-19 -0.030354)
(0.139012 1.92659e-19 -0.0263504)
(0.118515 0 -0.0224218)
(0.0984725 0 -0.0185911)
(0.0790204 0 -0.0148628)
(0.0599713 6.92136e-19 -0.0112224)
(0.0416988 -4.60026e-23 -0.00772044)
(0.0237277 3.2571e-19 -0.00428619)
(0.00673953 -3.1542e-19 -0.0010315)
(-0.0100948 6.10455e-19 0.00218719)
(-0.0257416 2.94921e-19 0.00518561)
(-0.0414301 5.69566e-19 0.00818288)
(-0.0557783 0 0.0109354)
(-0.0704017 0 0.0137274)
(-0.0834476 0 0.0162349)
(-0.0973554 0 0.0188879)
(-0.109133 4.70445e-19 0.0211623)
(-0.123466 0 0.0238929)
(-0.13349 0 0.0258417)
(-0.149766 -4.1547e-19 0.0289037)
(-0.149509 3.98143e-19 0.0289254)
(-0.182284 1.52183e-18 0.0351773)
(-0.162687 -7.30635e-19 0.0312451)
(-0.184205 0 0.0359728)
(-0.266057 0 0.0518044)
(-0.265397 0 0.0500197)
(-0.134816 6.16524e-19 0.0267672)
(-0.444787 -5.61184e-19 0.0887851)
(-0.60103 0 0.113481)
(-0.0720089 2.3277e-18 0.00853924)
(0.0771359 1.05045e-18 -0.0111683)
(-0.704039 1.84034e-18 0.142694)
(-1.00536 0 0.194043)
(-0.714432 0 0.131659)
(-0.0926775 -1.0011e-18 0.0120223)
(0.198309 0 -0.0417392)
(0.493732 -9.16795e-19 -0.0964567)
(0.43897 -8.47733e-19 -0.0840667)
(0.441219 0 -0.0847349)
(31.8666 0 3.88496)
(31.0562 0 2.80993)
(28.532 -1.29808e-20 1.01733)
(25.1953 0 -0.387243)
(21.9495 0 -1.22982)
(19.1817 1.51414e-20 -1.6539)
(16.9276 1.33576e-20 -1.82191)
(15.1057 0 -1.85344)
(13.6206 4.20736e-22 -1.81976)
(12.3923 2.07969e-20 -1.75732)
(11.3604 -3.79943e-20 -1.68361)
(10.4807 -1.75443e-20 -1.60697)
(9.72123 1.14753e-22 -1.53138)
(9.05806 -1.47913e-20 -1.4587)
(8.47334 -1.35757e-20 -1.3897)
(7.95336 1.24049e-20 -1.32466)
(7.48749 -2.28398e-20 -1.26355)
(7.06731 -2.09277e-20 -1.20623)
(6.6861 0 -1.15246)
(6.33842 0 -1.10201)
(6.01981 1.59846e-20 -1.05462)
(5.72658 1.45886e-20 -1.01007)
(5.45566 0 -0.968129)
(5.20447 0 -0.928584)
(4.97081 2.19757e-20 -0.891247)
(4.75281 0 -0.855945)
(4.54886 -3.59689e-20 -0.822518)
(4.35757 1.62058e-20 -0.790823)
(4.17774 0 -0.760729)
(4.00829 1.30298e-20 -0.732117)
(3.84831 1.16132e-20 -0.70488)
(3.69698 0 -0.678917)
(3.55356 -9.09057e-21 -0.65414)
(3.41742 -1.5921e-20 -0.630468)
(3.28796 1.1792e-23 -0.607824)
(3.16469 0 -0.586141)
(3.04712 0 -0.565355)
(2.93484 8.49308e-21 -0.545409)
(2.82746 0 -0.52625)
(2.72465 0 -0.507827)
(2.62608 0 -0.490095)
(2.53146 0 -0.473013)
(2.44053 0 -0.45654)
(2.35306 0 -0.440642)
(2.26881 0 -0.425283)
(2.18757 1.42162e-21 -0.410432)
(2.10917 -2.94639e-21 -0.39606)
(2.03341 0 -0.382138)
(1.96015 -5.61283e-21 -0.368642)
(1.88921 0 -0.355546)
(1.82047 0 -0.342828)
(1.75379 1.74021e-20 -0.330465)
(1.68904 0 -0.318439)
(1.62611 -2.05802e-20 -0.306729)
(1.56489 2.18759e-20 -0.295318)
(1.50527 0 -0.284187)
(1.44716 2.40811e-20 -0.273323)
(1.39047 0 -0.262707)
(1.33511 0 -0.252329)
(1.281 0 -0.24217)
(1.22808 5.37668e-20 -0.232223)
(1.17625 5.46342e-20 -0.222468)
(1.12547 2.80664e-23 -0.212905)
(1.07565 -1.11671e-19 -0.203509)
(1.02677 2.46273e-23 -0.194286)
(0.978735 0 -0.185208)
(0.931546 0 -0.176289)
(0.885092 -1.12708e-19 -0.167496)
(0.839413 3.77248e-23 -0.158851)
(0.794378 0 -0.150314)
(0.750067 0 -0.141918)
(0.706326 -1.09992e-19 -0.133615)
(0.66328 2.86665e-23 -0.125452)
(0.620749 2.67366e-23 -0.11737)
(0.578907 0 -0.10943)
(0.537548 0 -0.101563)
(0.496894 -2.05537e-19 -0.0938453)
(0.456724 2.01895e-19 -0.0861982)
(0.41729 0 -0.0787113)
(0.378381 0 -0.0712995)
(0.340244 0 -0.064059)
(0.302725 0 -0.0569089)
(0.266005 0 -0.0499387)
(0.230064 0 -0.0430873)
(0.194906 0 -0.0364154)
(0.160772 0 -0.0299076)
(0.127335 -6.507e-19 -0.023564)
(0.0952412 -3.15734e-19 -0.0174454)
(0.0636772 -3.06126e-19 -0.0114573)
(0.0338151 2.96394e-19 -0.0057674)
(0.0042329 -5.73451e-19 -0.000149443)
(-0.0232806 -2.77017e-19 0.00509482)
(-0.0508568 -2.67426e-19 0.0103258)
(-0.0760655 0 0.0151395)
(-0.101758 0 0.0200085)
(-0.124637 0 0.0243921)
(-0.149031 0 0.0290091)
(-0.169609 -4.41355e-19 0.032987)
(-0.194561 0 0.037695)
(-0.211926 0 0.0410923)
(-0.239771 3.89556e-19 0.0461914)
(-0.240543 0 0.0466395)
(-0.295257 -7.13166e-19 0.0568628)
(-0.263254 6.84689e-19 0.0503537)
(-0.306578 0 0.0607997)
(-0.434291 0 0.0851041)
(-0.426307 0 0.0784371)
(-0.234836 5.77412e-19 0.0483516)
(-0.740386 0 0.152055)
(-0.937409 -5.23499e-19 0.171182)
(-0.0968946 -1.55375e-22 0.00301585)
(0.0696572 -9.83106e-19 5.05619e-05)
(-1.18501 -1.72226e-18 0.249268)
(-1.58245 0 0.303092)
(-1.08314 9.24886e-19 0.187687)
(-0.0771875 9.36407e-19 -0.00430448)
(0.374486 9.04158e-19 -0.0834633)
(0.849163 0 -0.167575)
(0.741291 7.92659e-19 -0.14096)
(0.757051 0 -0.145087)
(32.39 0 2.94167)
(32.9575 0 2.75738)
(32.4068 1.22711e-20 1.71475)
(30.7676 0 0.515028)
(28.5188 -1.23229e-20 -0.488995)
(26.1068 2.50705e-20 -1.21119)
(23.7912 0 -1.67381)
(21.688 -2.18988e-20 -1.93775)
(19.8308 2.10023e-20 -2.06688)
(18.2101 1.90012e-20 -2.11117)
(16.7984 1.78641e-20 -2.10442)
(15.5647 -1.6244e-20 -2.06786)
(14.4806 1.51278e-20 -2.01446)
(13.5217 -2.7592e-20 -1.95201)
(12.6682 0 -1.88526)
(11.9037 -2.34013e-20 -1.81706)
(11.2149 0 -1.74917)
(10.5911 0 -1.68263)
(10.0232 0 -1.61805)
(9.50393 1.64987e-20 -1.55579)
(9.02712 -3.44321e-23 -1.49599)
(8.5876 -2.62319e-23 -1.43872)
(8.18104 1.25546e-20 -1.38395)
(7.80374 0 -1.33163)
(7.45253 0 -1.28168)
(7.12471 0 -1.23397)
(6.81793 3.40032e-20 -1.18842)
(6.53014 -6.2746e-24 -1.1449)
(6.25956 0 -1.1033)
(6.00463 0 -1.06353)
(5.76396 0 -1.02546)
(5.53634 0 -0.989012)
(5.32068 1.71948e-20 -0.954082)
(5.11602 0 -0.920584)
(4.92148 -1.30957e-20 -0.888436)
(4.73629 0 -0.857558)
(4.55975 0 -0.827878)
(4.39122 -8.05165e-21 -0.799327)
(4.23013 0 -0.77184)
(4.07595 0 -0.745358)
(3.92821 4.08126e-21 -0.719823)
(3.78648 -5.92462e-21 -0.695182)
(3.65034 0 -0.671386)
(3.51944 -1.98288e-21 -0.648388)
(3.39344 0 -0.626143)
(3.27202 -2.66682e-21 -0.60461)
(3.1549 1.85686e-23 -0.583751)
(3.0418 0 -0.563528)
(2.93248 0 -0.543907)
(2.8267 6.34887e-21 -0.524854)
(2.72426 1.4648e-20 -0.506339)
(2.62494 -3.28352e-20 -0.488332)
(2.52857 0 -0.470806)
(2.43495 -1.93799e-20 -0.453732)
(2.34393 -2.065e-20 -0.437089)
(2.25535 -2.17239e-20 -0.420849)
(2.16907 -2.26854e-20 -0.404994)
(2.08494 0 -0.389497)
(2.00284 0 -0.374343)
(1.92264 -4.96785e-20 -0.359507)
(1.84423 -1.01401e-19 -0.344979)
(1.7675 -5.15293e-20 -0.330731)
(1.69236 3.01307e-23 -0.316759)
(1.61869 5.26357e-20 -0.303033)
(1.54644 5.29556e-20 -0.289558)
(1.47547 0 -0.276296)
(1.40578 0 -0.263264)
(1.33721 1.06214e-19 -0.250417)
(1.26981 2.11655e-19 -0.237784)
(1.2034 0 -0.22531)
(1.13806 1.04471e-19 -0.213042)
(1.0736 1.03528e-19 -0.200911)
(1.01017 1.02466e-19 -0.188982)
(0.947523 2.02392e-19 -0.177171)
(0.885888 0 -0.165568)
(0.82499 0 -0.15407)
(0.765118 1.93415e-19 -0.14279)
(0.705977 -3.79868e-19 -0.13161)
(0.647902 -1.86308e-19 -0.120665)
(0.590611 0 -0.109825)
(0.534434 0 -0.0992363)
(0.479171 0 -0.0887739)
(0.425061 0 -0.0785763)
(0.372091 0 -0.0685442)
(0.320254 0 -0.0587785)
(0.269904 -3.14485e-19 -0.0492415)
(0.220576 4.42299e-23 -0.0399516)
(0.173191 2.96457e-19 -0.0309767)
(0.126595 0 -0.0222029)
(0.0824673 2.78204e-19 -0.0138482)
(0.038774 2.69128e-19 -0.00561663)
(-0.00189971 0 0.00208694)
(-0.0426372 -2.50886e-19 0.00975774)
(-0.0798785 -4.83646e-19 0.0168242)
(-0.117812 0 0.0239593)
(-0.151556 0 0.0303907)
(-0.187502 0 0.0371435)
(-0.217746 -4.13711e-19 0.0429771)
(-0.254231 0 0.0498035)
(-0.279556 0 0.0547675)
(-0.319631 3.64975e-19 0.0619483)
(-0.322465 -3.49617e-19 0.0631195)
(-0.399153 0 0.0771779)
(-0.355742 0 0.068196)
(-0.425819 0 0.0859305)
(-0.591671 0 0.117003)
(-0.573877 0 0.103965)
(-0.340373 3.03178e-23 0.0725173)
(-1.02685 0 0.216354)
(-1.221 4.89874e-19 0.217052)
(-0.110275 -1.01905e-18 -0.00783614)
(0.0211809 0 0.023351)
(-1.65696 -1.57033e-23 0.360596)
(-2.07224 0 0.396105)
(-1.36252 -4.18123e-22 0.222345)
(0.000142331 0 -0.0369066)
(0.585596 -8.45357e-19 -0.13474)
(1.22586 0 -0.243979)
(1.05416 7.41018e-19 -0.199601)
(1.09344 0 -0.2095)
(32.4941 0 2.08874)
(33.2525 0 2.21561)
(33.6005 0 1.74185)
(33.2384 0 0.949075)
(32.2186 1.16319e-20 0.108362)
(30.7482 -9.00047e-22 -0.639894)
(29.0322 0 -1.24031)
(27.2294 2.06695e-20 -1.6837)
(25.4492 0 -1.98721)
(23.7575 -3.53692e-20 -2.17901)
(22.1869 0 -2.28766)
(20.7473 1.53354e-20 -2.33712)
(19.4363 0 -2.34567)
(18.2452 2.60512e-20 -2.32653)
(17.1629 -1.18726e-20 -2.289)
(16.1779 2.19494e-20 -2.23954)
(15.2793 -2.01055e-20 -2.18256)
(14.4571 -1.84662e-20 -2.12115)
(13.7027 0 -2.05739)
(13.0084 -1.55793e-20 -1.99275)
(12.3674 -1.42442e-20 -1.92821)
(11.774 -2.59738e-20 -1.86447)
(11.2232 -1.18549e-20 -1.80197)
(10.7105 0 -1.74102)
(10.2321 0 -1.6818)
(9.78464 0 -1.62442)
(9.36522 -1.60483e-20 -1.56893)
(8.97124 -1.44651e-20 -1.51534)
(8.60041 0 -1.46363)
(8.25073 0 -1.41378)
(7.92039 1.03697e-20 -1.36572)
(7.60778 0 -1.31941)
(7.31149 1.17609e-24 -1.27477)
(7.03022 -1.42333e-20 -1.23175)
(6.76282 1.23775e-20 -1.19027)
(6.50825 0 -1.15027)
(6.26557 0 -1.11168)
(6.03391 7.59932e-21 -1.07444)
(5.81251 0 -1.03847)
(5.60064 0 -1.00373)
(5.39767 -3.85133e-21 -0.970156)
(5.20299 5.5905e-21 -0.937683)
(5.01607 0 -0.906261)
(4.83639 1.87081e-21 -0.875839)
(4.6635 0 -0.846366)
(4.49696 1.24873e-21 -0.817795)
(4.33638 2.60805e-21 -0.79008)
(4.18139 0 -0.763179)
(4.03165 4.95336e-21 -0.737051)
(3.88683 -5.98734e-21 -0.711655)
(3.74664 -2.75962e-20 -0.686955)
(3.61081 1.54664e-20 -0.662913)
(3.47906 -1.69218e-20 -0.639497)
(3.35115 2.5021e-23 -0.616672)
(3.22686 0 -0.59441)
(3.10596 2.04756e-20 -0.572677)
(2.98826 2.13797e-20 -0.55145)
(2.87356 -2.21433e-20 -0.530694)
(2.76169 2.28161e-20 -0.510393)
(2.65247 4.68043e-20 -0.490511)
(2.54575 4.77459e-20 -0.471037)
(2.44136 -4.84755e-20 -0.451934)
(2.33919 4.91018e-20 -0.433199)
(2.23907 0 -0.41479)
(2.14092 0 -0.396716)
(2.04457 4.99754e-20 -0.378925)
(1.95 0 -0.361443)
(1.85699 0 -0.344206)
(1.7656 -9.95754e-20 -0.327257)
(1.67558 0 -0.310518)
(1.58705 -9.82916e-20 -0.294056)
(1.49973 -1.94749e-19 -0.277774)
(1.41382 0 -0.261765)
(1.32901 -9.5156e-20 -0.245911)
(1.24557 0 -0.230336)
(1.16315 0 -0.214898)
(1.08211 -1.81726e-19 -0.199754)
(1.00208 1.78496e-19 -0.184739)
(0.923466 3.96283e-23 -0.170038)
(0.845926 0 -0.155473)
(0.769866 0 -0.141247)
(0.695042 0 -0.12718)
(0.621747 -1.59946e-19 -0.113473)
(0.549981 1.55883e-19 -0.0999741)
(0.479727 0 -0.0868412)
(0.41145 5.90373e-19 -0.0739968)
(0.34455 2.86782e-19 -0.061497)
(0.280228 -5.56356e-19 -0.0493978)
(0.216991 -2.69607e-19 -0.037586)
(0.157035 -5.21938e-19 -0.0263125)
(0.0977069 0 -0.0152267)
(0.0424141 0 -0.00482772)
(-0.012908 2.35246e-19 0.00550849)
(-0.0635077 4.53425e-19 0.0150438)
(-0.11499 -4.36675e-19 0.0246479)
(-0.160768 0 0.0333245)
(-0.209444 0 0.042391)
(-0.250333 3.87622e-19 0.05026)
(-0.299344 3.72032e-19 0.0593373)
(-0.333346 0 0.0660137)
(-0.386397 -3.41808e-19 0.0752794)
(-0.392418 3.27377e-19 0.0775622)
(-0.491051 0 0.0952078)
(-0.437635 0 0.0840691)
(-0.538475 0 0.110723)
(-0.734058 0 0.146356)
(-0.706396 0 0.125546)
(-0.447838 -5.05717e-19 0.0989334)
(-1.29556 0 0.279759)
(-1.44904 0 0.247423)
(-0.116805 0 -0.0235024)
(-0.0613496 8.60921e-19 0.0598797)
(-2.10201 7.53251e-19 0.472473)
(-2.46054 0 0.464534)
(-1.54665 -8.08232e-19 0.229873)
(0.141117 0 -0.0886684)
(0.832742 -7.9e-19 -0.196788)
(1.62462 0 -0.3257)
(1.38046 -6.92508e-19 -0.259869)
(1.45349 0 -0.27841)
(32.5675 -4.9941e-21 1.47424)
(33.1513 -6.19715e-21 1.61504)
(33.6785 7.35716e-21 1.42516)
(33.9052 8.29051e-21 0.965286)
(33.7144 0 0.374368)
(33.118 -9.9371e-21 -0.240644)
(32.1893 0 -0.813972)
(31.0191 1.74733e-20 -1.30862)
(29.6958 1.67124e-20 -1.70918)
(28.2956 3.22441e-20 -2.01606)
(26.878 -1.48426e-20 -2.23895)
(25.485 1.38563e-20 -2.39131)
(24.1436 0 -2.48705)
(22.8696 0 -2.53877)
(21.6702 1.11932e-20 -2.55707)
(20.5472 -1.14691e-22 -2.55049)
(19.4989 1.76337e-22 -2.52564)
(18.522 1.3617e-22 -2.48762)
(17.6119 0 -2.44024)
(16.7637 0 -2.38638)
(15.9727 0 -2.3282)
(15.234 2.44061e-20 -2.26731)
(14.5433 1.11128e-20 -2.2049)
(13.8965 0 -2.14187)
(13.2898 0 -2.07887)
(12.72 1.66821e-20 -2.01639)
(12.1839 0 -1.95477)
(11.6787 0 -1.89428)
(11.2019 0 -1.83509)
(10.7513 0 -1.77732)
(10.3247 -6.63616e-24 -1.72105)
(9.92046 0 -1.66631)
(9.53675 -1.8179e-24 -1.61313)
(9.17206 1.3417e-20 -1.5615)
(8.82503 2.2635e-24 -1.5114)
(8.49438 0 -1.46282)
(8.17896 0 -1.41572)
(7.87772 0 -1.37005)
(7.58969 0 -1.32577)
(7.31399 0 -1.28284)
(7.04981 0 -1.24121)
(6.7964 0 -1.20083)
(6.55306 -3.47568e-21 -1.16166)
(6.31916 -1.79828e-21 -1.12364)
(6.09411 0 -1.08672)
(5.87737 1.1425e-21 -1.05086)
(5.66841 0 -1.01601)
(5.46677 0 -0.982136)
(5.27201 -9.31585e-21 -0.949183)
(5.08371 0 -0.917111)
(4.90148 1.29806e-20 -0.88588)
(4.72498 0 -0.85545)
(4.55385 3.1842e-20 -0.825783)
(4.38777 2.42259e-23 -0.796839)
(4.22646 0 -0.768587)
(4.06963 0 -0.740988)
(3.91701 0 -0.714013)
(3.76835 4.1663e-20 -0.687624)
(3.62342 -4.29266e-20 -0.661799)
(3.48199 -4.39757e-20 -0.636497)
(3.34386 -4.48613e-20 -0.611705)
(3.20881 9.11837e-20 -0.587377)
(3.0767 4.61351e-20 -0.563512)
(2.9473 0 -0.540054)
(2.8205 0 -0.517019)
(2.69609 -2.40341e-23 -0.49434)
(2.574 0 -0.472051)
(2.45401 0 -0.45007)
(2.33612 -9.35339e-20 -0.428454)
(2.22006 0 -0.407103)
(2.10594 0 -0.386103)
(1.99344 1.82954e-19 -0.365328)
(1.88275 -9.04737e-20 -0.3449)
(1.77352 0 -0.324666)
(1.66605 0 -0.304786)
(1.55993 0 -0.285076)
(1.45557 1.70668e-19 -0.26574)
(1.35252 0 -0.246561)
(1.25128 3.28654e-19 -0.227785)
(1.15143 -1.60906e-19 -0.20917)
(1.05345 0 -0.19099)
(0.957045 0 -0.173)
(0.86258 1.5009e-19 -0.155475)
(0.770051 -2.70986e-23 -0.138196)
(0.679448 1.42368e-19 -0.121395)
(0.591333 -2.7686e-19 -0.104938)
(0.504992 2.68879e-19 -0.0889364)
(0.42189 2.60837e-19 -0.0734175)
(0.340217 2.52782e-19 -0.0582877)
(0.262676 3.32262e-23 -0.043813)
(0.18601 0 -0.0296088)
(0.114453 -2.28401e-19 -0.0162492)
(0.0429552 0 -0.00300069)
(-0.0225046 0 0.00924675)
(-0.0889906 4.09083e-19 0.0215432)
(-0.148137 0 0.0326847)
(-0.210839 0 0.0442616)
(-0.263495 0 0.0543606)
(-0.326103 -3.48338e-19 0.0658353)
(-0.369631 0 0.0743817)
(-0.436474 -3.19903e-19 0.0857835)
(-0.446923 0 0.0895366)
(-0.567387 0 0.110547)
(-0.505761 0 0.0977044)
(-0.640315 0 0.134449)
(-0.856821 0 0.172368)
(-0.821437 -4.90737e-19 0.143242)
(-0.552162 -4.73063e-19 0.126812)
(-1.53741 4.3014e-19 0.340125)
(-1.61918 0 0.262934)
(-0.119925 0 -0.0424)
(-0.167997 -1.61006e-18 0.107483)
(-2.50073 0 0.580336)
(-2.73302 7.11656e-19 0.507661)
(-1.6298 0 0.210657)
(0.347545 7.64189e-19 -0.159069)
(1.11772 7.38243e-19 -0.269584)
(2.0469 0 -0.412907)
(1.72377 -6.471e-19 -0.322726)
(1.8407 0 -0.352725)
(32.6231 4.70308e-21 1.02186)
(33.0345 1.14282e-20 1.10991)
(33.481 -6.93005e-21 1.02787)
(33.8467 -7.79725e-22 0.76544)
(34.021 7.51117e-21 0.376024)
(33.9478 0 -0.0784527)
(33.6194 0 -0.548892)
(33.0558 -1.64536e-20 -0.999573)
(32.2923 -3.05718e-20 -1.40689)
(31.3713 -7.08292e-22 -1.75781)
(30.3363 1.3975e-20 -2.04784)
(29.2277 -1.30463e-20 -2.27831)
(28.0804 1.1804e-20 -2.45405)
(26.9227 0 -2.58162)
(25.776 0 -2.66819)
(24.6558 -9.59639e-21 -2.72076)
(23.5726 3.51331e-20 -2.74569)
(22.5327 3.23507e-20 -2.74854)
(21.5399 0 -2.73403)
(20.5952 0 -2.70603)
(19.6987 0 -2.66769)
(18.8491 -6.7539e-23 -2.62156)
(18.0448 -2.08752e-20 -2.56966)
(17.2835 9.48892e-21 -2.5136)
(16.563 1.72587e-20 -2.45465)
(15.8808 -3.13658e-20 -2.39381)
(15.2347 1.41678e-20 -2.33187)
(14.6223 1.2782e-20 -2.26944)
(14.0415 1.14938e-20 -2.207)
(13.4901 0 -2.14491)
(12.9662 -9.19805e-21 -2.08347)
(12.4681 8.15481e-21 -2.02289)
(11.9939 -7.20412e-21 -1.96332)
(11.5421 -1.26246e-20 -1.9049)
(11.1113 -2.19689e-20 -1.8477)
(10.7 0 -1.79178)
(10.3071 0 -1.73717)
(9.93129 -6.7606e-21 -1.68389)
(9.57155 0 -1.63194)
(9.22687 4.45737e-21 -1.58132)
(8.89631 3.43958e-21 -1.532)
(8.579 0 -1.48397)
(8.27413 6.55691e-21 -1.4372)
(7.98095 1.69229e-21 -1.39165)
(7.69875 0 -1.3473)
(7.4269 -1.07505e-21 -1.3041)
(7.16476 -2.26578e-21 -1.26202)
(6.91177 0 -1.22101)
(6.6674 8.7357e-21 -1.18105)
(6.43115 -5.26365e-21 -1.14208)
(6.20253 -1.21576e-20 -1.10407)
(5.98111 0 -1.06698)
(5.76647 -2.44551e-23 -1.03077)
(5.55822 3.22421e-20 -0.995403)
(5.35598 0 -0.960842)
(5.15941 0 -0.927044)
(4.96818 -1.8864e-20 -0.893984)
(4.78197 -1.95762e-20 -0.861615)
(4.6005 4.03202e-20 -0.829916)
(4.42346 4.13383e-20 -0.798838)
(4.25063 4.21671e-20 -0.76837)
(4.08172 -4.28354e-20 -0.738455)
(3.91653 -8.66843e-20 -0.709097)
(3.7548 0 -0.680229)
(3.59638 0 -0.65187)
(3.441 -8.82409e-20 -0.623941)
(3.28858 0 -0.596483)
(3.13882 0 -0.569398)
(2.99174 8.78485e-20 -0.542756)
(2.84699 0 -0.516434)
(2.70468 -8.66503e-20 -0.490539)
(2.56443 -3.21538e-23 -0.464916)
(2.42647 8.49376e-20 -0.439717)
(2.29036 0 -0.414748)
(2.15644 0 -0.390215)
(2.02422 0 -0.365881)
(1.89419 1.60064e-19 -0.342008)
(1.7658 0 -0.318316)
(1.63963 -1.54146e-19 -0.295122)
(1.51519 3.01838e-19 -0.272112)
(1.39304 0 -0.249642)
(1.27283 0 -0.227385)
(1.155 0 -0.205711)
(1.03953 -2.68583e-23 -0.184314)
(0.926438 -1.33467e-19 -0.163521)
(0.816359 -2.59428e-19 -0.143119)
(0.708499 -2.52004e-19 -0.123301)
(0.604555 2.44361e-19 -0.10404)
(0.502446 0 -0.0852905)
(0.405347 2.29164e-19 -0.0673049)
(0.309439 0 -0.0496962)
(0.219761 2.13935e-19 -0.0330832)
(0.130308 0 -0.016659)
(0.0482841 0 -0.00143434)
(-0.0348285 0 0.0138026)
(-0.108863 -3.6822e-19 0.0276489)
(-0.187023 -3.53926e-19 0.0419408)
(-0.252734 0 0.0544897)
(-0.330101 3.25945e-19 0.0685027)
(-0.384163 -3.12293e-19 0.0791058)
(-0.465694 2.99326e-19 0.0926691)
(-0.481923 -2.86604e-19 0.0983078)
(-0.624046 0 0.122391)
(-0.556331 0 0.108386)
(-0.726289 0 0.156195)
(-0.954963 0 0.194032)
(-0.915966 4.58883e-19 0.156511)
(-0.646705 -4.07018e-23 0.154991)
(-1.7431 -8.04222e-19 0.395216)
(-1.73061 0 0.262789)
(-0.121078 0 -0.0635015)
(-0.285409 7.52569e-19 0.163938)
(-2.8331 0 0.679151)
(-2.87849 -6.65045e-19 0.520926)
(-1.6079 0 0.163044)
(0.620661 -1.42786e-18 -0.248531)
(1.44297 0 -0.353556)
(2.49499 0 -0.505897)
(2.08874 6.04493e-19 -0.388803)
(2.25903 0 -0.433246)
(32.6486 0 0.668427)
(32.9503 -5.26009e-21 0.712565)
(33.2875 0 0.663868)
(33.6184 -6.61349e-21 0.501569)
(33.8797 -1.34858e-20 0.240489)
(34.0209 0 -0.0876564)
(34.0133 6.7302e-21 -0.451454)
(33.8457 0 -0.824812)
(33.5186 8.99639e-22 -1.18754)
(33.0415 -2.59317e-20 -1.52517)
(32.4305 0 -1.8284)
(31.7057 0 -2.09233)
(30.8893 -1.11023e-20 -2.31535)
(30.0036 0 -2.49822)
(29.0696 0 -2.6432)
(28.1063 0 -2.75355)
(27.1296 -1.64126e-20 -2.83306)
(26.1531 -1.51284e-20 -2.88566)
(25.1871 -1.37356e-20 -2.91523)
(24.2397 0 -2.92539)
(23.3168 0 -2.91941)
(22.4223 -1.07219e-20 -2.90021)
(21.5588 9.79202e-21 -2.87029)
(20.7277 -8.92459e-21 -2.83179)
(19.9296 -1.62322e-20 -2.78651)
(19.1644 2.93831e-20 -2.73595)
(18.4317 -5.46407e-23 -2.68138)
(17.7306 -1.20214e-20 -2.62383)
(17.0601 -1.08098e-20 -2.56413)
(16.4188 0 -2.503)
(15.8057 0 -2.44098)
(15.2194 -7.66904e-21 -2.37855)
(14.6585 0 -2.31608)
(14.1218 1.1872e-20 -2.25385)
(13.608 1.0328e-20 -2.19211)
(13.1159 -8.89352e-21 -2.13105)
(12.6443 0 -2.07081)
(12.1921 6.35684e-21 -2.0115)
(11.7583 5.2319e-21 -1.95321)
(11.3417 3.40414e-24 -1.89601)
(10.9416 -6.47211e-21 -1.83993)
(10.5568 0 -1.785)
(10.1867 -3.08908e-21 -1.73123)
(9.83029 0 -1.67863)
(9.48693 0 -1.62719)
(9.15586 0 -1.5769)
(8.8364 1.3418e-23 -1.52775)
(8.52791 0 -1.47971)
(8.22977 -4.09829e-21 -1.43276)
(7.94142 9.88037e-21 -1.38686)
(7.66231 1.14247e-20 -1.34199)
(7.39192 0 -1.29812)
(7.12977 -1.40357e-20 -1.25521)
(6.87541 -3.02485e-20 -1.21322)
(6.62838 0 -1.17213)
(6.38828 0 -1.13188)
(6.15472 1.77199e-20 -1.09247)
(5.92731 1.83513e-20 -1.05384)
(5.70572 -1.89262e-20 -1.01597)
(5.4896 -3.87574e-20 -0.978804)
(5.27864 0 -0.94234)
(5.07252 0 -0.906509)
(4.871 2.80326e-23 -0.871323)
(4.67373 -4.10125e-20 -0.8367)
(4.48057 0 -0.802672)
(4.29115 4.14041e-20 -0.769139)
(4.1054 0 -0.736161)
(3.92293 0 -0.703612)
(3.74377 0 -0.671588)
(3.56749 0 -0.639931)
(3.39421 3.40233e-23 -0.608783)
(3.22348 -3.18438e-23 -0.577945)
(3.05555 -7.96201e-20 -0.547615)
(2.88989 0 -0.517545)
(2.72691 -7.75133e-20 -0.487997)
(2.566 0 -0.458671)
(2.40774 -1.50092e-19 -0.429901)
(2.25147 1.47299e-19 -0.401327)
(2.09789 -1.44437e-19 -0.373357)
(1.94636 -1.41456e-19 -0.345582)
(1.79759 0 -0.318465)
(1.65113 1.3509e-19 -0.291574)
(1.50753 0 -0.265396)
(1.36671 -1.28442e-19 -0.239515)
(1.22877 -1.24997e-19 -0.214382)
(1.09436 2.43033e-19 -0.189673)
(0.962685 0 -0.1657)
(0.835602 -4.57698e-19 -0.142343)
(0.710833 0 -0.119646)
(0.591963 2.14525e-19 -0.0978083)
(0.474694 0 -0.0764833)
(0.3648 2.00231e-19 -0.0562938)
(0.255409 0 -0.0364036)
(0.154886 3.72196e-19 -0.0179037)
(0.053338 -3.5836e-19 0.000535484)
(-0.0373203 3.4458e-19 0.0173592)
(-0.132521 3.3117e-19 0.0345836)
(-0.212769 0 0.0498284)
(-0.306156 -6.0982e-19 0.0665261)
(-0.371957 5.84222e-19 0.0793998)
(-0.469135 0 0.095167)
(-0.49263 2.68044e-19 0.103107)
(-0.656166 0 0.129965)
(-0.584721 0 0.115445)
(-0.79049 -4.6743e-19 0.174875)
(-1.02304 0 0.210339)
(-0.985974 0 0.164843)
(-0.72332 4.13483e-19 0.181948)
(-1.90333 7.51539e-19 0.442794)
(-1.78315 3.73387e-19 0.247269)
(-0.11875 0 -0.0863265)
(-0.397517 0 0.225939)
(-3.0791 0 0.76366)
(-2.88856 0 0.502855)
(-1.47784 6.57993e-19 0.0866992)
(0.961636 6.66847e-19 -0.357003)
(1.81194 0 -0.449177)
(2.97221 0 -0.60514)
(2.48098 0 -0.459213)
(2.71287 0 -0.520959)
(32.6485 4.21617e-21 0.37988)
(32.8808 0 0.396579)
(33.1367 4.93336e-21 0.356661)
(33.4018 0 0.244081)
(33.6451 6.0332e-21 0.0593679)
(33.8352 0 -0.182791)
(33.9492 -6.32553e-21 -0.463266)
(33.9721 1.16061e-20 -0.76412)
(33.8948 2.36952e-20 -1.07019)
(33.7125 7.27557e-22 -1.3695)
(33.4249 0 -1.65304)
(33.0353 0 -1.9146)
(32.5503 0 -2.15032)
(31.9791 0 -2.35812)
(31.3327 0 -2.53727)
(30.623 0 -2.68802)
(29.8625 1.47925e-20 -2.81138)
(29.0634 -1.37142e-20 -2.90896)
(28.2372 1.2906e-20 -2.98272)
(27.3943 0 -3.03487)
(26.5439 0 -3.06773)
(25.6939 9.87349e-21 -3.08363)
(24.8506 9.04084e-21 -3.0848)
(24.0193 8.25854e-21 -3.07335)
(23.2039 0 -3.05121)
(22.4075 -1.37708e-20 -3.0201)
(21.6322 -2.48618e-20 -2.98156)
(20.8796 1.11957e-20 -2.93695)
(20.1506 0 -2.88742)
(19.4455 0 -2.83398)
(18.7646 0 -2.7775)
(18.1077 7.16982e-21 -2.71869)
(17.4744 0 -2.65818)
(16.8641 0 -2.59649)
(16.2763 9.67568e-21 -2.53404)
(15.7102 8.35463e-21 -2.47122)
(15.165 0 -2.40831)
(14.64 5.96668e-21 -2.34556)
(14.1343 -9.82695e-21 -2.28319)
(13.6471 -3.93967e-21 -2.22135)
(13.1776 3.04164e-21 -2.16017)
(12.725 0 -2.09977)
(12.2885 0 -2.04023)
(11.8674 0 -1.9816)
(11.4608 2.53908e-22 -1.92394)
(11.0682 0 -1.86728)
(10.6888 1.98725e-21 -1.81163)
(10.3219 2.9443e-21 -1.75702)
(9.9669 0 -1.70343)
(9.62324 -4.63239e-21 -1.65086)
(9.29032 0 -1.59932)
(8.96757 0 -1.54876)
(8.65447 -1.31325e-20 -1.49919)
(8.3505 2.12209e-23 -1.45058)
(8.05519 1.50818e-20 -1.4029)
(7.76806 0 -1.35611)
(7.48869 0 -1.31021)
(7.21662 -1.72225e-20 -1.26514)
(6.95149 0 -1.2209)
(6.69287 3.63688e-20 -1.17743)
(6.44043 0 -1.13473)
(6.19378 0 -1.09272)
(5.95264 7.62529e-20 -1.05142)
(5.71663 7.69224e-20 -1.01075)
(5.48553 3.86723e-20 -0.970749)
(5.25895 0 -0.931296)
(5.03677 0 -0.892472)
(4.81855 3.87469e-20 -0.854125)
(4.6043 7.71987e-20 -0.81638)
(4.39353 0 -0.779041)
(4.18638 7.61948e-20 -0.74229)
(3.98228 -7.54719e-20 -0.70588)
(3.78154 7.46386e-20 -0.67006)
(3.58351 -7.36618e-20 -0.634521)
(3.38868 7.26509e-20 -0.599596)
(3.19632 0 -0.564903)
(3.0071 0 -0.530868)