/*--------------------------------*- C++ -*----------------------------------*\
| =========                 |                                                 |
| \\      /  F ield         | OpenFOAM: The Open Source CFD Toolbox           |
|  \\    /   O peration     | Version:  2412                                  |
|   \\  /    A nd           | Website:  www.openfoam.com                      |
|    \\/     M anipulation  |                                                 |
\*---------------------------------------------------------------------------*/
FoamFile
{
    version     2.0;
    format      ascii;
    arch        "LSB;label=32;scalar=64";
    class       volVectorField;
    location    "1.325";
    object      U_0;
}
// * * * * * * * * * * * * * * * * * * * * * * * * * * * * * * * * * * * * * //

dimensions      [0 1 -1 0 0 0 0];

internalField   nonuniform List<vector> 
12600
(
(18.7446 1.24362e-21 2.09609)
(11.6226 1.60969e-20 0.451526)
(7.3528 1.89229e-20 -0.477806)
(5.09042 0 -0.709327)
(3.97708 1.70983e-20 -0.682423)
(3.33612 1.59201e-20 -0.607688)
(2.89468 0 -0.539973)
(2.5633 0 -0.484483)
(2.30353 -4.7826e-20 -0.438987)
(2.09327 0 -0.401214)
(1.91878 2.00509e-20 -0.369316)
(1.77113 1.83552e-20 -0.341963)
(1.64422 -1.6811e-20 -0.318205)
(1.53371 0 -0.297346)
(1.4364 -1.40822e-20 -0.278861)
(1.34991 0 -0.262346)
(1.27241 4.72902e-20 -0.247486)
(1.20247 0 -0.23403)
(1.13897 -1.97782e-20 -0.221778)
(1.08098 -1.80815e-20 -0.210566)
(1.02778 1.64989e-20 -0.200258)
(0.978739 5.38058e-24 -0.190743)
(0.933363 0 -0.181927)
(0.891224 -2.4852e-20 -0.173732)
(0.851961 0 -0.166088)
(0.815266 0 -0.15894)
(0.780877 -1.83866e-20 -0.152237)
(0.748566 0 -0.145936)
(0.718134 4.11283e-24 -0.139999)
(0.68941 1.32482e-20 -0.134393)
(0.66224 1.17803e-20 -0.12909)
(0.636491 1.04208e-20 -0.124063)
(0.612044 -9.16208e-21 -0.11929)
(0.588793 -1.59944e-20 -0.11475)
(0.566643 -1.38393e-20 -0.110425)
(0.54551 1.1836e-20 -0.106299)
(0.525316 0 -0.102356)
(0.505993 -8.30595e-21 -0.0985835)
(0.487477 0 -0.0949692)
(0.469713 5.2922e-21 -0.0915021)
(0.452646 0 -0.0881716)
(0.436232 1.75743e-23 -0.0849691)
(0.420424 0 -0.0818852)
(0.405184 1.59942e-23 -0.0789131)
(0.390471 -7.464e-22 -0.0760443)
(0.376258 2.46049e-21 -0.0732737)
(0.362504 -4.05255e-21 -0.070593)
(0.349189 0 -0.0679988)
(0.336274 0 -0.0654831)
(0.323748 -7.97932e-21 -0.0630439)
(0.311569 -1.80973e-20 -0.0606728)
(0.299736 -2.00239e-20 -0.0583698)
(0.288202 1.94896e-23 -0.0561256)
(0.276977 -2.32764e-20 -0.0539423)
(0.266007 0 -0.0518091)
(0.255316 2.58754e-20 -0.049731)
(0.244839 2.6935e-20 -0.0476949)
(0.234617 2.78424e-20 -0.045709)
(0.224569 0 -0.0437573)
(0.214757 0 -0.0418523)
(0.20508 0 -0.0399738)
(0.195627 -6.06602e-20 -0.0381395)
(0.186269 0 -0.036324)
(0.177132 0 -0.0345519)
(0.168047 1.24511e-19 -0.0327903)
(0.159188 0 -0.0310729)
(0.150334 0 -0.0293571)
(0.141723 0 -0.0276884)
(0.133066 -1.24498e-19 -0.0260114)
(0.124682 1.23879e-19 -0.0243874)
(0.11619 1.23032e-19 -0.0227431)
(0.108027 2.34852e-23 -0.0211624)
(0.0996758 -1.20767e-19 -0.0195455)
(0.0917469 0 -0.0180105)
(0.0835104 1.17818e-19 -0.0164161)
(0.0758578 0 -0.0149346)
(0.0677056 0 -0.0133567)
(0.0604129 0 -0.0119446)
(0.0522965 2.86787e-23 -0.0103735)
(0.0455055 2.16221e-19 -0.00905807)
(0.0373469 2.11612e-19 -0.00747867)
(0.0312656 -2.06944e-19 -0.00629967)
(0.0229635 -2.01975e-19 -0.00469237)
(0.0178313 0 -0.0036957)
(0.00933754 0 -0.00205138)
(0.0052615 3.73403e-19 -0.00125692)
(-0.00314891 -7.24842e-19 0.000372878)
(-0.00665181 7.036e-19 0.00105306)
(-0.0137571 3.40747e-19 0.00243229)
(-0.0185399 0 0.00336327)
(-0.0217759 -6.37854e-19 0.00399694)
(-0.029746 3.06889e-19 0.00553823)
(-0.0283969 -2.96983e-19 0.00529153)
(-0.0392763 5.68687e-19 0.00739095)
(-0.0341502 0 0.00640254)
(-0.0468004 0 0.00885659)
(-0.0394164 0 0.00741051)
(-0.0508053 0 0.00964902)
(-0.0463369 0 0.00876203)
(-0.0545138 0 0.0103714)
(-0.0527692 -4.23886e-19 0.0100119)
(-0.0525009 -8.04399e-19 0.0100159)
(-0.0681474 -7.67002e-19 0.0129576)
(-0.0399931 0 0.00764826)
(-0.0827661 0 0.0158481)
(-0.058361 0 0.0109664)
(-0.0632016 -6.232e-19 0.0121752)
(-0.0745829 -1.18935e-18 0.0142537)
(-0.0707187 5.61387e-19 0.0136065)
(-0.106951 0 0.0204137)
(-0.0775277 -1.02645e-18 0.0147706)
(-0.105073 0 0.0203375)
(-0.165526 -9.12867e-19 0.0314723)
(-0.0707684 8.99392e-19 0.0134622)
(-0.170042 -8.12921e-19 0.0325995)
(-0.156455 -8.20688e-19 0.0294455)
(-0.116032 7.77024e-19 0.0220087)
(-0.100201 -1.85791e-23 0.0191426)
(-0.132126 6.96383e-19 0.025235)
(-0.0741835 0 0.0137712)
(29.1561 -1.25544e-21 4.02841)
(25.1112 0 1.85972)
(20.2475 -1.9152e-20 -0.213167)
(16.0798 0 -1.21217)
(13.1194 -1.73255e-20 -1.50782)
(11.0761 -3.04141e-20 -1.51881)
(9.60341 -1.40757e-20 -1.44115)
(8.49107 0 -1.3435)
(7.61796 3.55898e-22 -1.24808)
(6.91122 -2.1873e-20 -1.16098)
(6.32521 2.00789e-20 -1.08287)
(5.82987 1.84294e-20 -1.01304)
(5.4046 -1.69131e-20 -0.95046)
(5.03472 1.5518e-20 -0.894169)
(4.70947 2.85233e-20 -0.8433)
(4.42078 0 -0.797119)
(4.16246 -6.4526e-23 -0.755006)
(3.92966 2.1895e-20 -0.716441)
(3.71855 2.0066e-20 -0.680983)
(3.52605 0 -0.648261)
(3.34965 0 -0.61796)
(3.18728 1.52436e-20 -0.589811)
(3.03722 0 -0.563583)
(2.89804 1.25982e-20 -0.539077)
(2.76852 -2.2834e-20 -0.516122)
(2.64761 0 -0.494568)
(2.53443 1.8636e-20 -0.474284)
(2.42822 0 -0.455154)
(2.32829 -1.50248e-20 -0.437079)
(2.23408 -2.68398e-20 -0.419967)
(2.14506 -2.38616e-20 -0.403739)
(2.06079 -1.05477e-20 -0.388324)
(1.98086 9.27113e-21 -0.373658)
(1.90492 3.2378e-20 -0.359684)
(1.83266 2.80093e-20 -0.346349)
(1.76378 0 -0.333608)
(1.69803 0 -0.321417)
(1.63518 -1.73631e-23 -0.309739)
(1.57501 0 -0.298537)
(1.51735 -5.34269e-21 -0.287781)
(1.462 0 -0.277438)
(1.40881 -5.52118e-21 -0.267485)
(1.35764 0 -0.257892)
(1.30836 -1.16868e-21 -0.248641)
(1.26083 0 -0.239706)
(1.21495 -2.47756e-21 -0.231072)
(1.1706 0 -0.222714)
(1.1277 0 -0.214622)
(1.08613 6.79901e-21 -0.206771)
(1.04585 0 -0.199157)
(1.00672 0 -0.191752)
(0.968736 0 -0.184559)
(0.931746 2.18006e-20 -0.177546)
(0.895776 4.66406e-20 -0.170724)
(0.860659 0 -0.164056)
(0.826459 0 -0.157561)
(0.792978 -2.69106e-20 -0.151195)
(0.760332 -2.78411e-20 -0.144986)
(0.728273 0 -0.138883)
(0.696988 0 -0.132927)
(0.666162 0 -0.127052)
(0.636069 0 -0.121317)
(0.606305 -6.10862e-20 -0.115638)
(0.577255 6.15732e-20 -0.110098)
(0.5484 -1.23802e-19 -0.104588)
(0.520268 0 -0.099218)
(0.492184 0 -0.0938513)
(0.464869 0 -0.0886342)
(0.437437 4.74428e-23 -0.0833886)
(0.410867 -1.22695e-19 -0.078311)
(0.383982 -1.21744e-19 -0.0731676)
(0.358127 2.41184e-19 -0.0682245)
(0.331702 3.59606e-23 -0.0631671)
(0.306592 -1.17764e-19 -0.058365)
(0.280543 -1.16142e-19 -0.0533781)
(0.256297 0 -0.0487405)
(0.230521 0 -0.0438052)
(0.207387 0 -0.0393802)
(0.181729 2.16486e-19 -0.034467)
(0.160133 0 -0.0303376)
(0.134349 0 -0.0253993)
(0.114925 2.0254e-19 -0.0216888)
(0.0886945 1.97465e-19 -0.0166625)
(0.0721872 0 -0.0135167)
(0.0453356 0 -0.00836592)
(0.0321212 0 -0.00586048)
(0.00541474 7.05517e-19 -0.000730016)
(-0.0058541 -4.36628e-23 0.00138923)
(-0.0288361 3.30911e-19 0.00582837)
(-0.0436299 -3.19684e-19 0.00860211)
(-0.0551034 6.18151e-19 0.0108178)
(-0.0795277 2.97058e-19 0.0154955)
(-0.0767683 5.74383e-19 0.0149057)
(-0.110325 0 0.0214162)
(-0.0956074 0 0.0184471)
(-0.134822 0 0.026127)
(-0.112704 0 0.0216451)
(-0.14888 4.63294e-19 0.0288556)
(-0.134898 0 0.0259096)
(-0.160906 0 0.0311423)
(-0.155031 -4.06435e-19 0.0296614)
(-0.157129 3.85289e-19 0.030508)
(-0.200622 1.46801e-18 0.0383876)
(-0.122766 -7.04729e-19 0.0236931)
(-0.249038 0 0.0484049)
(-0.171567 0 0.0323055)
(-0.19492 0 0.0378948)
(-0.224793 5.66445e-19 0.0432756)
(-0.217483 -5.34274e-19 0.0423262)
(-0.318606 0 0.0615105)
(-0.235241 1.95042e-18 0.0449393)
(-0.32246 8.99628e-19 0.0636269)
(-0.482605 1.73169e-18 0.0923431)
(-0.21541 0 0.0411049)
(-0.510741 0 0.099882)
(-0.446999 -7.7651e-19 0.084682)
(-0.34176 0 0.0649501)
(-0.299784 -7.09458e-19 0.0576946)
(-0.387309 -6.57662e-19 0.0743469)
(-0.201177 0 0.0374843)
(31.8997 0 3.8997)
(31.0846 0 2.82095)
(28.5539 -1.29726e-20 1.02475)
(25.2099 0 -0.382538)
(21.9573 0 -1.2267)
(19.184 1.51194e-20 -1.65151)
(16.9256 1.33298e-20 -1.81977)
(15.1006 0 -1.85131)
(13.613 4.20728e-22 -1.81755)
(12.3828 2.07217e-20 -1.75499)
(11.3495 -3.78359e-20 -1.68116)
(10.4687 -1.74618e-20 -1.60441)
(9.70826 1.14536e-22 -1.52872)
(9.04433 -1.47045e-20 -1.45594)
(8.45898 -1.34876e-20 -1.38686)
(7.93848 1.23162e-20 -1.32175)
(7.47216 -2.2661e-20 -1.26058)
(7.0516 -2.07486e-20 -1.20319)
(6.67007 0 -1.14937)
(6.3221 0 -1.09887)
(6.00323 1.58078e-20 -1.05144)
(5.70977 1.44133e-20 -1.00685)
(5.43864 0 -0.964862)
(5.18724 0 -0.92528)
(4.9534 2.16366e-20 -0.887907)
(4.73522 0 -0.852569)
(4.53109 -3.53107e-20 -0.819107)
(4.33963 1.58822e-20 -0.787376)
(4.15962 0 -0.757247)
(3.98999 1.27171e-20 -0.728598)
(3.82983 1.13063e-20 -0.701322)
(3.6783 0 -0.67532)
(3.53469 -8.79571e-21 -0.650502)
(3.39833 -1.53428e-20 -0.626787)
(3.26866 1.21486e-23 -0.604098)
(3.14514 0 -0.582367)
(3.02732 0 -0.56153)
(2.91477 7.96288e-21 -0.54153)
(2.80711 0 -0.522311)
(2.70399 0 -0.503828)
(2.60509 0 -0.486029)
(2.51012 0 -0.468878)
(2.41881 0 -0.452329)
(2.33094 0 -0.436352)
(2.24624 0 -0.420905)
(2.16456 2.30179e-21 -0.405965)
(2.08564 -3.80579e-21 -0.391491)
(2.00937 0 -0.377469)
(1.93551 -6.4325e-21 -0.363856)
(1.86399 0 -0.350646)
(1.79457 0 -0.337792)
(1.72722 1.89284e-20 -0.325301)
(1.66168 0 -0.313119)
(1.598 -2.20362e-20 -0.301265)
(1.53587 2.32967e-20 -0.289674)
(1.4754 0 -0.278381)
(1.41625 2.54365e-20 -0.26731)
(1.3586 0 -0.256513)
(1.30204 0 -0.245896)
(1.24687 0 -0.235535)
(1.19255 5.62304e-20 -0.225313)
(1.13954 5.70419e-20 -0.215336)
(1.08716 2.84903e-23 -0.205455)
(1.03605 -1.16258e-19 -0.195816)
(0.985324 2.49896e-23 -0.186228)
(0.935884 0 -0.176886)
(0.886561 0 -0.167547)
(0.838598 -1.16854e-19 -0.15847)
(0.790462 3.82181e-23 -0.149342)
(0.74384 0 -0.140507)
(0.696699 0 -0.131557)
(0.651352 -1.13703e-19 -0.122954)
(0.605041 2.89431e-23 -0.114153)
(0.561007 2.6915e-23 -0.105792)
(0.515368 0 -0.0971145)
(0.472836 0 -0.0890323)
(0.427684 -2.11763e-19 -0.0804457)
(0.387061 2.07919e-19 -0.0727229)
(0.342123 0 -0.064177)
(0.304125 0 -0.0569526)
(0.258974 0 -0.0483669)
(0.224677 0 -0.0418514)
(0.178753 0 -0.0331148)
(0.14944 0 -0.0275644)
(0.102411 0 -0.0185993)
(0.0787894 0 -0.014171)
(0.0318585 -6.63287e-19 -0.00518339)
(0.0118133 -3.21526e-19 -0.00150489)
(-0.029151 -3.11014e-19 0.00645681)
(-0.0546356 3.004e-19 0.0110454)
(-0.0764997 -5.80692e-19 0.0153722)
(-0.118152 -2.79024e-19 0.0231892)
(-0.115532 -2.6969e-19 0.0226151)
(-0.173051 0 0.0337211)
(-0.149473 0 0.0288977)
(-0.217007 0 0.0421613)
(-0.180113 0 0.0345136)
(-0.243617 -4.34646e-19 0.0473955)
(-0.21929 0 0.0420047)
(-0.265243 0 0.0514566)
(-0.254408 3.81084e-19 0.0484206)
(-0.262119 0 0.0512786)
(-0.33021 -6.87941e-19 0.0625737)
(-0.209186 6.60411e-19 0.0407267)
(-0.41681 0 0.0814684)
(-0.282814 0 0.052289)
(-0.333506 0 0.0654124)
(-0.377133 5.30427e-19 0.072562)
(-0.370933 0 0.0729607)
(-0.529984 -4.70766e-19 0.102228)
(-0.397781 -1.91081e-23 0.0757732)
(-0.548091 -8.41957e-19 0.110295)
(-0.788847 -1.6202e-18 0.149107)
(-0.365517 0 0.0697478)
(-0.853632 7.20201e-19 0.168762)
(-0.717152 7.26332e-19 0.133037)
(-0.56463 6.87176e-19 0.105672)
(-0.497975 0 0.0957345)
(-0.634174 6.14937e-19 0.120251)
(-0.305078 0 0.0541529)
(32.4212 0 2.95799)
(32.9867 0 2.7711)
(32.4326 1.22634e-20 1.72564)
(30.7885 0 0.5233)
(28.5339 -1.23035e-20 -0.482804)
(26.1161 2.50248e-20 -1.20643)
(23.7952 0 -1.66994)
(21.6874 -2.18379e-20 -1.93434)
(19.8263 2.09361e-20 -2.06365)
(18.2024 1.89301e-20 -2.10798)
(16.7881 1.77893e-20 -2.10118)
(15.5522 -1.61663e-20 -2.06453)
(14.4663 1.50477e-20 -2.01102)
(13.506 -2.74286e-20 -1.94846)
(12.6512 0 -1.88159)
(11.8857 -2.32336e-20 -1.81328)
(11.196 0 -1.74528)
(10.5713 0 -1.67864)
(10.0028 0 -1.61398)
(9.4829 1.63307e-20 -1.55162)
(9.00554 -3.4168e-23 -1.49175)
(8.56554 -2.5985e-23 -1.4344)
(8.15853 1.23907e-20 -1.37956)
(7.78082 0 -1.32717)
(7.42924 0 -1.27715)
(7.10106 0 -1.22938)
(6.79393 3.33814e-20 -1.18376)
(6.5058 -5.95674e-24 -1.14018)
(6.23489 0 -1.09852)
(5.97963 0 -1.05868)
(5.73864 0 -1.02055)
(5.51068 0 -0.984031)
(5.29468 1.66375e-20 -0.949033)
(5.08966 0 -0.915464)
(4.89476 -1.25608e-20 -0.883241)
(4.70919 0 -0.852287)
(4.53225 0 -0.822525)
(4.3633 -7.55102e-21 -0.79389)
(4.20176 0 -0.766312)
(4.04712 0 -0.739735)
(3.89887 3.61374e-21 -0.714098)
(3.75661 -5.01105e-21 -0.689352)
(3.6199 0 -0.66544)
(3.48841 -1.11126e-21 -0.642324)
(3.36175 0 -0.619948)
(3.23966 -4.32962e-21 -0.598283)
(3.12178 1.88841e-23 -0.577272)
(3.00792 0 -0.5569)
(2.89774 0 -0.537106)
(2.7911 7.10444e-21 -0.517885)
(2.68766 1.61232e-20 -0.499172)
(2.58737 -3.57171e-20 -0.480976)
(2.48985 0 -0.463221)
(2.39514 -2.07536e-20 -0.445936)
(2.30281 -2.19912e-20 -0.42903)
(2.213 -2.30339e-20 -0.412553)
(2.12519 -2.39639e-20 -0.396395)
(2.03968 0 -0.380634)
(1.95583 0 -0.365132)
(1.87409 -5.20607e-20 -0.350002)
(1.79366 -1.06049e-19 -0.335073)
(1.71522 -5.38002e-20 -0.3205)
(1.63775 3.05689e-23 -0.306066)
(1.5622 5.47984e-20 -0.291984)
(1.48726 5.50619e-20 -0.277976)
(1.41425 0 -0.264326)
(1.34145 0 -0.250683)
(1.27068 1.10121e-19 -0.237418)
(1.1997 2.19243e-19 -0.224082)
(1.13095 0 -0.211169)
(1.06148 1.08058e-19 -0.198092)
(0.994648 1.07022e-19 -0.185514)
(0.926434 1.05842e-19 -0.172655)
(0.861543 2.08959e-19 -0.160425)
(0.794338 0 -0.147745)
(0.731639 0 -0.135913)
(0.665162 1.99274e-19 -0.123367)
(0.60522 -3.91203e-19 -0.112044)
(0.539062 -1.91675e-19 -0.0995612)
(0.482882 0 -0.0889433)
(0.416421 0 -0.076409)
(0.365536 0 -0.0667958)
(0.297948 0 -0.0540481)
(0.254215 0 -0.0458153)
(0.184976 0 -0.0327241)
(0.149498 -3.21362e-19 -0.0261338)
(0.0801907 4.12232e-23 -0.0129286)
(0.0501945 3.01902e-19 -0.00755334)
(-0.0111184 0 0.00438585)
(-0.0480659 2.81968e-19 0.0107939)
(-0.0828299 2.72529e-19 0.0177755)
(-0.142478 0 0.0287044)
(-0.141937 -2.53021e-19 0.0285756)
(-0.224709 -4.83763e-19 0.0443856)
(-0.193312 0 0.0378971)
(-0.291017 0 0.0570458)
(-0.239508 0 0.0461309)
(-0.333083 -4.07442e-19 0.0653416)
(-0.297458 0 0.0571265)
(-0.365935 0 0.0714311)
(-0.349132 3.57052e-19 0.0663968)
(-0.36619 -3.38366e-19 0.0723439)
(-0.455147 0 0.0858469)
(-0.298579 0 0.0587805)
(-0.583684 0 0.114782)
(-0.391522 0 0.0715111)
(-0.478077 0 0.094616)
(-0.529892 -1.7888e-23 0.102166)
(-0.529896 0 0.105305)
(-0.739081 4.40528e-19 0.142836)
(-0.564435 -8.54053e-19 0.107598)
(-0.779055 0 0.159606)
(-1.08133 1.34591e-22 0.20303)
(-0.520744 0 0.0996741)
(-1.19396 -4.25915e-23 0.238598)
(-0.962944 0 0.176057)
(-0.783628 -6.42486e-19 0.145354)
(-0.689659 0 0.132841)
(-0.868351 5.74716e-19 0.163133)
(-0.380457 0 0.0643337)
(32.5234 0 2.10591)
(33.2808 0 2.23082)
(33.6271 0 1.75498)
(33.2623 0 0.960076)
(32.2387 1.16136e-20 0.11741)
(30.7637 -9.01629e-22 -0.63249)
(29.0429 0 -1.23417)
(27.2352 2.06119e-20 -1.67847)
(25.4504 0 -1.98254)
(23.7546 -3.52347e-20 -2.17467)
(22.1802 0 -2.28347)
(20.7374 1.52621e-20 -2.33296)
(19.4237 0 -2.34147)
(18.2302 2.58969e-20 -2.32224)
(17.1458 -1.17944e-20 -2.28461)
(16.159 2.17914e-20 -2.23502)
(15.2588 -1.99468e-20 -2.17792)
(14.4353 -1.83071e-20 -2.11637)
(13.6797 0 -2.05248)
(12.9843 -1.54207e-20 -1.98772)
(12.3423 -1.40866e-20 -1.92306)
(11.7481 -2.56614e-20 -1.8592)
(11.1965 -1.17001e-20 -1.79659)
(10.683 0 -1.73553)
(10.2039 0 -1.67621)
(9.75586 0 -1.61872)
(9.33585 -1.57549e-20 -1.56313)
(8.94129 -1.41765e-20 -1.50944)
(8.56992 0 -1.45763)
(8.2197 0 -1.40768)
(7.88882 1.00964e-20 -1.35952)
(7.57569 0 -1.3131)
(7.27886 1.39638e-24 -1.26837)
(6.99705 -1.37184e-20 -1.22524)
(6.7291 1.18733e-20 -1.18365)
(6.47397 0 -1.14353)
(6.23069 0 -1.10483)
(5.99843 7.12681e-21 -1.06746)
(5.77638 0 -1.03137)
(5.56386 0 -0.996498)
(5.36017 -3.41015e-21 -0.962776)
(5.16476 4.72845e-21 -0.930156)
(4.97705 0 -0.898574)
(4.79655 1.04845e-21 -0.867988)
(4.62276 0 -0.838334)
(4.45531 2.03287e-21 -0.809581)
(4.29371 3.37357e-21 -0.781661)
(4.13769 0 -0.754557)
(3.98679 5.68277e-21 -0.728194)
(3.84081 -6.69988e-21 -0.70257)
(3.69929 -3.03777e-20 -0.677601)
(3.56215 1.68249e-20 -0.653305)
(3.42887 -1.82473e-20 -0.629582)
(3.2995 2.54321e-23 -0.606472)
(3.17345 0 -0.583857)
(3.05091 2.17104e-20 -0.561806)
(2.93118 2.25846e-20 -0.540172)
(2.81464 -2.33202e-20 -0.519062)
(2.70044 2.39643e-20 -0.498293)
(2.58916 4.90487e-20 -0.478017)
(2.47975 4.99346e-20 -0.458005)
(2.37308 -5.06137e-20 -0.438466)
(2.2678 5.11861e-20 -0.419112)
(2.16517 0 -0.400225)
(2.06343 0 -0.381437)
(1.96434 5.19115e-20 -0.363125)
(1.86561 0 -0.34482)
(1.76965 0 -0.327021)
(1.67345 -1.03146e-19 -0.309126)
(1.58029 0 -0.291794)
(1.4862 -1.01666e-19 -0.274244)
(1.39567 -2.01322e-19 -0.257355)
(1.30333 0 -0.240095)
(1.21544 -9.82435e-20 -0.223663)
(1.12449 0 -0.206641)
(1.03954 0 -0.190729)
(0.949576 -1.87233e-19 -0.173887)
(0.868285 1.83823e-19 -0.158636)
(0.778754 3.94115e-23 -0.141881)
(0.702415 0 -0.127543)
(0.612479 0 -0.110728)
(0.543092 0 -0.0976941)
(0.451646 -1.63942e-19 -0.0806027)
(0.391674 1.59707e-19 -0.0693784)
(0.297964 0 -0.0518132)
(0.248975 6.03287e-19 -0.0427946)
(0.154898 2.92335e-19 -0.0249736)
(0.11359 -5.66578e-19 -0.0177356)
(0.0292881 -2.73926e-19 -0.00128947)
(-0.0200239 -5.29002e-19 0.00690659)
(-0.0705667 0 0.0172034)
(-0.148985 0 0.0311671)
(-0.152906 2.37248e-19 0.0320237)
(-0.262203 4.53535e-19 0.052634)
(-0.224401 -4.38082e-19 0.0447493)
(-0.354205 0 0.0701085)
(-0.288483 0 0.0558862)
(-0.415057 3.81748e-19 0.0821563)
(-0.367094 3.6744e-19 0.0706493)
(-0.461207 0 0.0906002)
(-0.43718 -3.34387e-19 0.0830444)
(-0.467819 3.16842e-19 0.0933826)
(-0.573552 0 0.107476)
(-0.389928 0 0.0777496)
(-0.746915 0 0.1477)
(-0.497282 0 0.0895977)
(-0.627152 0 0.125334)
(-0.681179 -4.64524e-19 0.131523)
(-0.692816 0 0.139122)
(-0.943786 0 0.182548)
(-0.73419 0 0.139998)
(-1.01174 7.36628e-19 0.210897)
(-1.35777 7.08405e-19 0.25228)
(-0.680131 0 0.130654)
(-1.52643 -6.29625e-19 0.308048)
(-1.18136 0 0.211492)
(-0.997593 -6.00443e-19 0.183093)
(-0.86868 0 0.167371)
(-1.08564 -5.37094e-19 0.200891)
(-0.421896 0 0.0655133)
(32.5951 -4.97585e-21 1.49218)
(33.1781 -6.1782e-21 1.63127)
(33.7045 7.3377e-21 1.43972)
(33.9297 8.27e-21 0.97814)
(33.7367 0 0.385584)
(33.1373 -9.91469e-21 -0.230933)
(32.2051 0 -0.80558)
(31.0308 1.74163e-20 -1.30132)
(29.7033 1.66516e-20 -1.70272)
(28.2989 3.21165e-20 -2.01021)
(26.8772 -1.47757e-20 -2.23351)
(25.4803 1.37871e-20 -2.38612)
(24.1354 0 -2.48198)
(22.8581 0 -2.53372)
(21.6558 1.11195e-20 -2.55198)
(20.5301 -1.14552e-22 -2.5453)
(19.4795 1.76041e-22 -2.52034)
(18.5005 1.3587e-22 -2.48217)
(17.5885 0 -2.43465)
(16.7387 0 -2.38064)
(15.9461 0 -2.3223)
(15.206 2.41121e-20 -2.26125)
(14.514 1.09673e-20 -2.19869)
(13.866 0 -2.13551)
(13.2583 0 -2.07235)
(12.6874 1.6402e-20 -2.00972)
(12.1504 0 -1.94797)
(11.6443 0 -1.88733)
(11.1666 0 -1.828)
(10.7152 0 -1.77008)
(10.2878 -6.36921e-24 -1.71366)
(9.88276 0 -1.65878)
(9.49825 -1.58802e-24 -1.60545)
(9.13278 1.29316e-20 -1.55367)
(8.78495 2.6593e-24 -1.50343)
(8.4535 0 -1.45469)
(8.13725 0 -1.40742)
(7.83517 0 -1.36159)
(7.54627 0 -1.31713)
(7.26967 0 -1.27403)
(7.00454 0 -1.2322)
(6.75015 0 -1.19163)
(6.50576 -2.68316e-21 -1.15224)
(6.27079 -1.02423e-21 -1.114)
(6.04458 0 -1.07685)
(5.82664 1.88055e-21 -1.04075)
(5.61637 0 -1.00564)
(5.4134 0 -0.9715)
(5.21714 -1.06896e-20 -0.938244)
(5.02736 0 -0.905879)
(4.84344 1.42902e-20 -0.874302)
(4.66527 0 -0.843545)
(4.49219 3.43377e-20 -0.813483)
(4.32425 2.46515e-23 -0.784176)
(4.16071 0 -0.755471)
(4.00179 0 -0.727466)
(3.8466 0 -0.699972)
(3.6956 4.3878e-20 -0.67313)
(3.54771 -4.50874e-20 -0.646709)
(3.40368 -4.60867e-20 -0.620905)
(3.26213 -4.69197e-20 -0.595427)
(3.1242 9.52064e-20 -0.570544)
(2.98814 4.8095e-20 -0.545887)
(2.85555 0 -0.52182)
(2.72419 0 -0.497873)
(2.59629 -2.43838e-23 -0.474529)
(2.46892 0 -0.451189)
(2.34515 0 -0.428489)
(2.22113 -9.68895e-20 -0.405663)
(2.10106 0 -0.383548)
(1.97983 0 -0.361156)
(1.8632 1.89131e-19 -0.339597)
(1.74426 -9.34567e-20 -0.317568)
(1.63104 0 -0.296576)
(1.51391 0 -0.274847)
(1.40444 0 -0.254498)
(1.28859 1.7584e-19 -0.232994)
(1.18372 0 -0.213458)
(1.06842 3.38127e-19 -0.192068)
(0.969738 -1.65473e-19 -0.173652)
(0.853923 0 -0.152194)
(0.763907 0 -0.135384)
(0.646158 1.5384e-19 -0.113584)
(0.56791 -2.58991e-23 -0.0990242)
(0.447208 1.45562e-19 -0.0766069)
(0.382832 -2.82918e-19 -0.0648539)
(0.261317 2.74092e-19 -0.0419872)
(0.207127 2.6563e-19 -0.0326844)
(0.0968858 2.56831e-19 -0.0111736)
(0.0341549 3.12782e-23 -0.0012129)
(-0.0354481 0 0.0131765)
(-0.133432 -2.30065e-19 0.0300465)
(-0.144698 0 0.0325427)
(-0.281778 0 0.0579864)
(-0.239423 4.10401e-19 0.0490878)
(-0.403348 0 0.0809375)
(-0.324094 0 0.0634561)
(-0.486807 0 0.0974828)
(-0.425385 -3.44039e-19 0.0822401)
(-0.548861 0 0.108703)
(-0.51605 -3.12971e-19 0.0979882)
(-0.565124 0 0.114135)
(-0.68305 0 0.127276)
(-0.481801 0 0.0974775)
(-0.903299 0 0.179625)
(-0.599514 0 0.106635)
(-0.77855 -4.56033e-19 0.15725)
(-0.828768 -4.34434e-19 0.160323)
(-0.857677 4.09612e-19 0.174086)
(-1.14153 0 0.221081)
(-0.905419 0 0.172916)
(-1.24182 -1.37735e-18 0.263328)
(-1.61557 0 0.29704)
(-0.841789 6.51928e-19 0.162704)
(-1.84517 0 0.375817)
(-1.3692 5.92895e-19 0.239367)
(-1.20445 5.61105e-19 0.21896)
(-1.0275 0 0.197982)
(-1.28136 -5.01708e-19 0.232799)
(-0.423096 0 0.0566183)
(32.6492 4.6859e-21 1.04049)
(33.06 1.13885e-20 1.127)
(33.5058 -6.91172e-21 1.04348)
(33.8707 -7.82949e-22 0.779597)
(34.0437 7.48764e-21 0.388798)
(33.9688 0 -0.0669762)
(33.638 0 -0.538613)
(33.0716 -1.64e-20 -0.990371)
(32.3049 -3.0456e-20 -1.39862)
(31.3804 -7.09176e-22 -1.7503)
(30.3417 1.39121e-20 -2.04093)
(29.2293 -1.29811e-20 -2.27184)
(28.0783 1.1737e-20 -2.44788)
(26.9169 0 -2.57565)
(25.7666 0 -2.66231)
(24.6432 -9.52644e-21 -2.71488)
(23.5568 3.48521e-20 -2.73975)
(22.5142 3.20691e-20 -2.7425)
(21.5187 0 -2.72786)
(20.5717 0 -2.69969)
(19.6729 0 -2.66119)
(18.8213 -6.72661e-23 -2.61487)
(18.0151 -2.06015e-20 -2.56279)
(17.2521 9.35371e-21 -2.50654)
(16.5299 1.69917e-20 -2.44739)
(15.8463 -3.08386e-20 -2.38636)
(15.1987 1.39084e-20 -2.32422)
(14.585 1.25267e-20 -2.26159)
(14.0029 1.12428e-20 -2.19896)
(13.4503 0 -2.13668)
(12.9253 -8.95572e-21 -2.07504)
(12.4259 7.91739e-21 -2.01426)
(11.9506 -6.97112e-21 -1.9545)
(11.4977 -1.21685e-20 -1.89588)
(11.0658 -2.10752e-20 -1.83847)
(10.6534 0 -1.78234)
(10.2594 0 -1.72752)
(9.88245 -6.3423e-21 -1.67402)
(9.52155 0 -1.62184)
(9.17569 4.05765e-21 -1.57098)
(8.84388 3.049e-21 -1.52142)
(8.5253 0 -1.47314)
(8.21909 5.06569e-21 -1.4261)
(7.92454 9.63866e-22 -1.38028)
(7.64086 0 -1.33562)
(7.3675 -1.76952e-21 -1.29212)
(7.10371 -2.94335e-21 -1.2497)
(6.84907 0 -1.20837)
(6.60284 1.00275e-20 -1.16802)
(6.36474 -5.89419e-21 -1.12869)
(6.13402 -1.33884e-20 -1.09025)
(5.91055 0 -1.05275)
(5.6935 -2.49392e-23 -1.01605)
(5.48296 3.45337e-20 -0.980235)
(5.27798 0 -0.945113)
(5.07884 0 -0.910815)
(4.88445 -1.99294e-20 -0.877112)
(4.69539 -2.06174e-20 -0.844185)
(4.51027 4.23509e-20 -0.811749)
(4.33006 4.33226e-20 -0.780052)
(4.15302 4.41018e-20 -0.748736)
(3.98058 -4.47256e-20 -0.718138)
(3.81053 -9.03676e-20 -0.687803)
(3.64491 0 -0.658182)
(3.48086 0 -0.628697)
(3.32121 -9.16612e-20 -0.599945)
(3.16226 0 -0.571188)
(3.00787 0 -0.543212)
(2.85321 9.10002e-20 -0.515073)
(2.70351 0 -0.487801)
(2.5524 -8.96271e-20 -0.460181)
(2.40703 -3.24461e-23 -0.433577)
(2.25882 8.77381e-20 -0.406392)
(2.1177 0 -0.380467)
(1.97176 0 -0.35364)
(1.83526 0 -0.328478)
(1.6909 1.64917e-19 -0.301922)
(1.56 0 -0.277721)
(1.4163 -1.5859e-19 -0.251305)
(1.29287 3.10407e-19 -0.228427)
(1.14851 0 -0.201936)
(1.03551 0 -0.180964)
(0.888741 0 -0.154061)
(0.789946 -2.56219e-23 -0.135789)
(0.639446 -1.36461e-19 -0.108108)
(0.557565 -2.65112e-19 -0.0932819)
(0.405643 -2.56891e-19 -0.0649027)
(0.33676 2.48859e-19 -0.0533045)
(0.197292 0 -0.0261194)
(0.119906 2.32269e-19 -0.0143935)
(0.0275213 0 0.00493297)
(-0.0908776 2.15493e-19 0.0245265)
(-0.11292 0 0.0294576)
(-0.27903 0 0.0597128)
(-0.234485 0 0.0502893)
(-0.434645 -3.65518e-19 0.0889009)
(-0.342879 -3.52806e-19 0.0682508)
(-0.545079 0 0.110792)
(-0.469056 3.21936e-19 0.0912945)
(-0.626302 -3.04937e-19 0.125321)
(-0.582762 2.92839e-19 0.110572)
(-0.655812 -2.77414e-19 0.134246)
(-0.78087 0 0.144679)
(-0.572266 0 0.117717)
(-1.04919 0 0.209852)
(-0.697471 0 0.122542)
(-0.929274 4.26431e-19 0.189884)
(-0.970191 1.77428e-23 0.188074)
(-1.02191 -7.65898e-19 0.209765)
(-1.32943 0 0.257814)
(-1.07586 0 0.205991)
(-1.46438 6.43671e-19 0.3159)
(-1.85234 0 0.336402)
(-1.00279 -6.09229e-19 0.195274)
(-2.14388 0 0.440398)
(-1.52368 -1.10782e-18 0.258681)
(-1.40129 0 0.252257)
(-1.15743 0 0.222736)
(-1.45092 4.68675e-19 0.257199)
(-0.377314 0 0.0356115)
(32.6732 0 0.687627)
(32.9744 -5.23946e-21 0.730389)
(33.3111 0 0.680347)
(33.6413 -6.59228e-21 0.516752)
(33.9019 -1.3439e-20 0.254444)
(34.0419 0 -0.0748487)
(34.033 6.70382e-21 -0.439713)
(33.8636 0 -0.814055)
(33.5343 9.01375e-22 -1.17767)
(33.0547 -2.58154e-20 -1.51609)
(32.4408 0 -1.81999)
(31.7128 0 -2.08447)
(30.8931 -1.10392e-20 -2.30794)
(30.004 0 -2.49114)
(29.0665 0 -2.63635)
(28.0997 0 -2.74684)
(27.1196 -1.62805e-20 -2.8264)
(26.1397 -1.49961e-20 -2.87899)
(25.1706 -1.36037e-20 -2.90849)
(24.2202 0 -2.91853)
(23.2944 0 -2.9124)
(22.3972 -1.0592e-20 -2.89302)
(21.5312 9.66341e-21 -2.8629)
(20.6977 -8.79742e-21 -2.82418)
(19.8974 -1.59811e-20 -2.77867)
(19.1301 2.88882e-20 -2.72788)
(18.3954 -5.41955e-23 -2.67307)
(17.6924 -1.17813e-20 -2.61527)
(17.0201 -1.05737e-20 -2.55533)
(16.3772 0 -2.49395)
(15.7624 0 -2.43169)
(15.1745 -7.44576e-21 -2.369)
(14.612 0 -2.30627)
(14.0738 1.14431e-20 -2.24378)
(13.5585 9.90801e-21 -2.18178)
(13.0649 -8.4829e-21 -2.12045)
(12.5918 0 -2.05993)
(12.1382 5.96352e-21 -2.00034)
(11.7028 4.84774e-21 -1.94177)
(11.2847 3.73479e-24 -1.88427)
(10.8829 -5.73801e-21 -1.82787)
(10.4966 0 -1.77262)
(10.1247 -2.38835e-21 -1.71851)
(9.76661 0 -1.66558)
(9.42141 0 -1.61376)
(9.08848 0 -1.56311)
(8.76699 1.38145e-23 -1.51354)
(8.45646 0 -1.4651)
(8.15606 -4.70519e-21 -1.41768)
(7.86547 1.10652e-20 -1.37134)
(7.5838 1.25813e-20 -1.32594)
(7.31093 0 -1.28157)
(7.04588 -1.51378e-20 -1.23807)
(6.78876 -3.24006e-20 -1.19553)
(6.53842 0 -1.15376)
(6.29526 0 -1.11292)
(6.0579 1.87207e-20 -1.07273)
(5.82708 1.93285e-20 -1.03342)
(5.60112 -1.98797e-20 -0.99466)
(5.38119 -4.06198e-20 -0.956752)
(5.16519 0 -0.919262)
(4.95486 0 -0.882611)
(4.74749 2.856e-23 -0.846243)
(4.54558 -4.27007e-20 -0.810716)
(4.34564 0 -0.775325)
(4.15112 4.30092e-20 -0.740803)
(3.9575 0 -0.706251)
(3.76948 0 -0.672627)
(3.58116 0 -0.638788)
(3.39893 0 -0.605982)
(3.215 3.44314e-23 -0.572742)
(3.03807 -3.21564e-23 -0.54071)
(2.85769 -8.22467e-20 -0.507969)
(2.68593 0 -0.476721)
(2.50831 -7.99687e-20 -0.444391)
(2.34208 0 -0.414022)
(2.16634 -1.54643e-19 -0.382)
(2.00675 1.517e-19 -0.352734)
(1.83176 -1.48604e-19 -0.320873)
(1.68097 -1.45472e-19 -0.293127)
(1.50512 0 -0.261177)
(1.36656 1.38694e-19 -0.235631)
(1.18775 0 -0.203196)
(1.0659 -1.31597e-19 -0.180801)
(0.882482 -1.27805e-19 -0.14741)
(0.78072 2.48358e-19 -0.129134)
(0.595089 0 -0.0947364)
(0.509445 -4.66127e-19 -0.0805736)
(0.337095 0 -0.0470569)
(0.243598 2.17437e-19 -0.0334988)
(0.124233 0 -0.00839669)
(-0.015513 2.01695e-19 0.0137283)
(-0.0523509 0 0.0220754)
(-0.248752 3.72309e-19 0.0570259)
(-0.204957 -3.59544e-19 0.0477147)
(-0.443573 3.42051e-19 0.0933122)
(-0.340694 3.30122e-19 0.0696914)
(-0.585981 0 0.121488)
(-0.49422 -6.02329e-19 0.0972345)
(-0.690393 5.7047e-19 0.139995)
(-0.633648 0 0.120487)
(-0.737134 2.59449e-19 0.153299)
(-0.863651 0 0.159201)
(-0.65882 0 0.138117)
(-1.18047 -4.39115e-19 0.237613)
(-0.790051 0 0.137263)
(-1.07543 0 0.222572)
(-1.1027 3.79669e-19 0.214305)
(-1.18229 7.15847e-19 0.245599)
(-1.50415 3.36503e-19 0.292186)
(-1.24246 0 0.238731)
(-1.67387 0 0.36748)
(-2.06555 0 0.370068)
(-1.15889 0 0.227701)
(-2.41593 5.13518e-19 0.50019)
(-1.64202 5.17392e-19 0.269009)
(-1.58404 0 0.282265)
(-1.24863 0 0.239602)
(-1.58953 0 0.272848)
(-0.277179 0 0.000585902)
(32.6717 4.19012e-21 0.39952)
(32.9036 0 0.415007)
(33.1591 4.90767e-21 0.373884)
(33.4237 0 0.260128)
(33.6664 6.01005e-21 0.074292)
(33.8557 0 -0.16892)
(33.9688 -6.30074e-21 -0.450373)
(33.9905 1.1552e-20 -0.752129)
(33.9117 2.35863e-20 -1.05903)
(33.7278 7.29009e-22 -1.35909)
(33.4382 0 -1.64329)
(33.0463 0 -1.90543)
(32.5588 0 -2.14165)
(31.9849 0 -2.34987)
(31.3355 0 -2.52935)
(30.6226 0 -2.68035)
(29.8589 1.46686e-20 -2.80389)
(29.0564 -1.35903e-20 -2.90156)
(28.2268 1.27821e-20 -2.97533)
(27.3806 0 -3.02745)
(26.527 0 -3.06022)
(25.6738 9.75204e-21 -3.07598)
(24.8275 8.92056e-21 -3.07697)
(23.9932 8.13959e-21 -3.06532)
(23.175 0 -3.04294)
(22.3759 -1.35386e-20 -3.01158)
(21.5981 -2.44046e-20 -2.97278)
(20.843 1.09709e-20 -2.92788)
(20.1116 0 -2.87806)
(19.4042 0 -2.82433)
(18.7211 0 -2.76753)
(18.0621 6.96069e-21 -2.70841)
(17.4267 0 -2.64759)
(16.8144 0 -2.58557)
(16.2246 9.28217e-21 -2.5228)
(15.6565 7.96889e-21 -2.45964)
(15.1094 0 -2.39638)
(14.5824 5.59803e-21 -2.33329)
(14.0748 -9.10567e-21 -2.27055)
(13.5856 -3.58698e-21 -2.20835)
(13.1141 2.69702e-21 -2.14679)
(12.6595 0 -2.086)
(12.2209 0 -2.02604)
(11.7976 0 -1.96699)
(11.3888 -3.72629e-22 -1.90888)
(10.9939 0 -1.85177)
(10.6119 2.58492e-21 -1.79562)
(10.2426 3.52742e-21 -1.74051)
(9.8849 0 -1.68636)
(9.53857 -5.18845e-21 -1.63326)
(9.20258 0 -1.58109)
(8.87689 0 -1.52995)
(8.56034 -1.4166e-20 -1.47966)
(8.25312 2.17745e-23 -1.4304)
(7.95388 1.60666e-20 -1.38191)
(7.66315 0 -1.33441)
(7.37928 0 -1.28758)
(7.10321 -1.81397e-20 -1.24172)
(6.8329 0 -1.19642)
(6.56984 3.81164e-20 -1.15207)
(6.31143 0 -1.10815)
(6.05985 0 -1.06517)
(5.81181 7.94954e-20 -1.02247)
(5.57035 8.00892e-20 -0.980731)
(5.33124 4.02135e-20 -0.939108)
(5.09867 0 -0.898485)
(4.86716 0 -0.857789)
(4.64242 4.01746e-20 -0.81817)
(4.41731 7.99707e-20 -0.778261)
(4.19952 0 -0.739557)
(3.97967 7.88132e-20 -0.700308)
(3.76824 -7.80217e-20 -0.662471)
(3.55262 7.71009e-20 -0.623772)
(3.34732 -7.60553e-20 -0.586813)
(3.13493 7.49523e-20 -0.548562)
(2.93613 0 -0.512585)
(2.72591 0 -0.474668)