/*--------------------------------*- C++ -*----------------------------------*\
| =========                 |                                                 |
| \\      /  F ield         | OpenFOAM: The Open Source CFD Toolbox           |
|  \\    /   O peration     | Version:  2412                                  |
|   \\  /    A nd           | Website:  www.openfoam.com                      |
|    \\/     M anipulation  |                                                 |
\*---------------------------------------------------------------------------*/
FoamFile
{
    version     2.0;
    format      ascii;
    arch        "LSB;label=32;scalar=64";
    class       volVectorField;
    location    "1.05";
    object      ddt0(U);
}
// * * * * * * * * * * * * * * * * * * * * * * * * * * * * * * * * * * * * * //

dimensions      [0 1 -2 0 0 0 0];

internalField   nonuniform List<vector> 
12600
(
(-0.204019 4.0708e-21 0.0457922)
(0.128924 8.65303e-21 -0.00406471)
(0.119364 6.88063e-21 -0.0108216)
(0.118241 0 -0.00867234)
(0.103958 5.53166e-21 -0.00814529)
(0.0866867 5.61018e-21 -0.00707061)
(0.0746094 0 -0.00617223)
(0.0635302 0 -0.00769227)
(0.0520285 -2.03377e-20 -0.00854758)
(0.0404936 0 -0.00867545)
(0.0304956 9.4099e-21 -0.00844475)
(0.02363 8.71175e-21 -0.0080892)
(0.020246 -7.89274e-21 -0.00774233)
(0.019405 0 -0.00742065)
(0.0195687 -6.29567e-21 -0.00705931)
(0.0193806 0 -0.00659032)
(0.018127 1.90925e-20 -0.00600089)
(0.0157542 0 -0.00533541)
(0.0125879 -6.83842e-21 -0.00465748)
(0.00901913 -4.92679e-21 -0.00401201)
(0.00533529 3.50675e-21 -0.00341271)
(0.00171511 -5.30868e-22 -0.00285217)
(-0.00169817 0 -0.0023193)
(-0.00473795 -2.05186e-22 -0.00181179)
(-0.00720609 0 -0.00134114)
(-0.00890361 0 -0.000930986)
(-0.00966752 5.23648e-21 -0.000612065)
(-0.0094068 0 -0.000413125)
(-0.00812419 4.9067e-22 -0.000353843)
(-0.00593363 -7.05335e-21 -0.000437832)
(-0.00304891 -7.37309e-21 -0.000652542)
(0.000223922 -7.49262e-21 -0.0009665)
(0.00352745 7.46892e-21 -0.00133523)
(0.00646961 1.47171e-20 -0.00170058)
(0.00869736 1.44223e-20 -0.00200523)
(0.00991426 -1.39938e-20 -0.0021928)
(0.00997171 0 -0.00222818)
(0.00883016 1.37159e-20 -0.00208764)
(0.00663709 0 -0.00178051)
(0.0036004 -1.3544e-20 -0.00132266)
(7.95618e-05 0 -0.00076284)
(-0.00363601 -6.8375e-23 -0.000135466)
(-0.00716438 0 0.000498093)
(-0.0103268 -8.82545e-23 0.00111458)
(-0.0128326 -2.49256e-20 0.00165802)
(-0.0146827 2.4174e-20 0.00212963)
(-0.0156654 -2.31269e-20 0.00247926)
(-0.0159414 0 0.00273275)
(-0.0153134 0 0.00283728)
(-0.0140804 -2.12995e-20 0.00284236)
(-0.0120077 -4.22776e-20 0.00268466)
(-0.00953871 -4.18241e-20 0.00244005)
(-0.00637439 5.52493e-23 0.00203112)
(-0.00315328 -3.9651e-20 0.00157245)
(0.000483975 0 0.000976972)
(0.00364957 3.37855e-20 0.000413463)
(0.00682417 2.90696e-20 -0.000220316)
(0.00890856 2.25236e-20 -0.000703046)
(0.0106754 0 -0.0011807)
(0.01091 0 -0.00139822)
(0.0108413 0 -0.00158079)
(0.00914114 4.45211e-21 -0.00145)
(0.00751709 0 -0.00132508)
(0.00437755 0 -0.000886785)
(0.00182535 -4.48394e-20 -0.000538573)
(-0.00214591 0 0.000106435)
(-0.00509668 0 0.000575812)
(-0.00947034 0 0.00133789)
(-0.0125006 4.06299e-20 0.00186461)
(-0.016905 -3.30312e-20 0.00268239)
(-0.0196499 -3.08914e-20 0.00321345)
(-0.0234398 -7.18303e-22 0.00398462)
(-0.0251826 1.84609e-20 0.00440525)
(-0.0272838 0 0.00497502)
(-0.0265945 -2.67631e-21 0.00508306)
(-0.025951 0 0.00526408)
(-0.0211804 0 0.00460054)
(-0.0193309 0 0.00452911)
(-0.00859504 9.95979e-22 0.00269352)
(-0.0125502 -7.98158e-20 0.00359327)
(0.00794664 3.08216e-20 -0.000351221)
(-0.0131185 5.71366e-20 0.00352614)
(0.0204948 1.38956e-19 -0.00316442)
(-0.0153241 0 0.00321893)
(0.00418633 0 -0.000726278)
(0.00937643 1.01016e-18 -0.00217691)
(-0.0560678 3.67479e-18 0.00981554)
(0.0587695 3.91066e-18 -0.0120047)
(-0.146045 -1.51602e-18 0.0270984)
(0.220317 0 -0.0433627)
(-0.296766 -6.79477e-18 0.0594224)
(-0.0669198 -6.15553e-18 0.0105559)
(0.623527 -7.53794e-18 -0.119761)
(-0.917265 -1.31612e-17 0.177501)
(0.714822 0 -0.132711)
(-1.20793 0 0.234508)
(1.75128 0 -0.336844)
(-0.66285 0 0.224613)
(-2.19243 0 0.371088)
(4.54665 0 -0.842788)
(-4.92877 1.34911e-19 0.963027)
(4.28056 8.30425e-17 -0.838616)
(-2.25113 -1.41422e-16 0.443962)
(-2.55773 0 0.427572)
(8.32598 0 -1.54537)
(-12.0964 0 2.29293)
(8.26499 1.49937e-16 -1.61621)
(-2.08828 -4.78488e-16 0.431244)
(-4.82669 -2.24754e-16 0.897173)
(12.45 0 -2.37195)
(-14.436 -4.96157e-16 2.72138)
(5.16248 0 -1.01233)
(7.27951 -7.85147e-17 -1.34572)
(-8.80242 1.86333e-16 1.66307)
(3.997 1.52335e-16 -0.825289)
(3.83614 -5.89433e-18 -0.692282)
(-2.65039 6.46706e-17 0.496264)
(-5.01144 1.77116e-20 0.93201)
(-0.314495 -1.08364e-17 0.0513796)
(1.53382 0 -0.292603)
(-0.16607 -4.1108e-21 0.111965)
(0.0260648 0 -0.0123417)
(0.117442 -6.96318e-21 -0.0279147)
(0.182017 0 -0.0107777)
(0.200024 -5.60411e-21 -0.00382706)
(0.192786 -1.06482e-20 -0.00383847)
(0.181454 -5.24081e-21 -0.00684878)
(0.16837 0 -0.0127743)
(0.154875 2.40779e-22 -0.0168049)
(0.14058 -9.68476e-21 -0.0186455)
(0.127242 9.24805e-21 -0.0192991)
(0.116784 8.65526e-21 -0.0195816)
(0.10973 -7.9532e-21 -0.0198442)
(0.105034 7.21076e-21 -0.0199931)
(0.100818 1.28713e-20 -0.0197526)
(0.0954274 0 -0.0189718)
(0.0881814 3.91545e-22 -0.0177539)
(0.0794308 8.88775e-21 -0.0163603)
(0.0700443 6.9379e-21 -0.0150265)
(0.0608063 0 -0.0138494)
(0.0521146 0 -0.0127975)
(0.0440261 2.74434e-21 -0.011787)
(0.0364732 0 -0.0107526)
(0.0294563 3.64928e-22 -0.00967755)
(0.0231261 -1.31781e-22 -0.00859378)
(0.0177544 0 -0.00756382)
(0.0136545 -3.38296e-21 -0.00666237)
(0.0110791 0 -0.00595419)
(0.0101562 6.56832e-21 -0.00548572)
(0.010837 1.37253e-20 -0.0052749)
(0.0129106 1.45621e-20 -0.00531683)
(0.0159907 7.58387e-21 -0.00557002)
(0.0195805 -7.55779e-21 -0.00596826)
(0.0230619 -2.9852e-20 -0.00640653)
(0.0258419 -2.93735e-20 -0.00678033)
(0.0273456 0 -0.00697195)
(0.027235 0 -0.00691114)
(0.0252867 2.35407e-22 -0.00653149)
(0.021635 0 -0.00584697)
(0.016451 1.36732e-20 -0.00486066)
(0.0102647 0 -0.00366816)
(0.00339306 2.69602e-20 -0.00230162)
(-0.00351845 0 -0.000892404)
(-0.010312 2.59806e-20 0.000550621)
(-0.0163721 0 0.00188346)
(-0.0218136 -2.43417e-20 0.0031464)
(-0.0260131 0 0.00418158)
(-0.0293704 0 0.00508859)
(-0.0311601 2.2447e-20 0.00568225)
(-0.0321036 0 0.00613054)
(-0.0312866 0 0.00620175)
(-0.0298101 0 0.0061412)
(-0.0264919 4.1407e-20 0.00565647)
(-0.0229574 7.91353e-20 0.00510272)
(-0.017748 0 0.00413388)
(-0.0132024 0 0.00325729)
(-0.00746986 -2.78255e-20 0.00205986)
(-0.00363674 -2.25225e-20 0.00120895)
(0.000878959 0 0.000162958)
(0.00233021 0 -0.000276995)
(0.00440845 0 -0.000857984)
(0.00267357 0 -0.000659043)
(0.00212309 1.21066e-20 -0.000676112)
(-0.00262756 -1.79286e-20 0.000162665)
(-0.00523746 4.30526e-20 0.000611531)
(-0.0122979 0 0.00193864)
(-0.0161561 0 0.002676)
(-0.0247416 0 0.00431588)
(-0.029221 -2.43615e-21 0.00521992)
(-0.0386088 3.27152e-20 0.0070423)
(-0.0431619 3.05679e-20 0.00803055)
(-0.0522149 -3.99724e-20 0.00981963)
(-0.0557101 -1.26413e-21 0.0106864)
(-0.0626089 7.71858e-21 0.0121106)
(-0.0626989 2.638e-21 0.0124689)
(-0.0661169 0 0.0132329)
(-0.058915 0 0.0121213)
(-0.0627662 0 0.0127238)
(-0.0405476 5.80091e-20 0.00870926)
(-0.0611981 0 0.0123258)
(-0.00726924 0 0.00199969)
(-0.0738956 -5.592e-20 0.0143471)
(0.0287077 -1.35854e-19 -0.00575934)
(-0.0792241 0 0.0150762)
(-0.000700859 0 -0.000936575)
(0.00792639 0 -0.0015364)
(-0.153482 -3.58056e-18 0.0278907)
(0.176216 2.4859e-21 -0.0336094)
(-0.409856 -1.47358e-18 0.0781643)
(0.651489 5.02594e-19 -0.127103)
(-0.894309 6.58373e-18 0.181189)
(-0.015848 -5.96151e-18 -0.0175993)
(1.72849 1.45866e-17 -0.318959)
(-2.67052 0 0.524157)
(2.16816 0 -0.415511)
(-3.46677 0 0.666765)
(5.01634 0 -0.990821)
(-2.53715 6.94237e-17 0.462962)
(-5.55546 0 0.916373)
(12.6886 0 -2.36276)
(-14.2604 6.76224e-20 2.83586)
(13.1431 -3.97852e-17 -2.63981)
(-7.5727 2.7072e-16 1.65117)
(-5.56278 1.37564e-16 0.854055)
(23.0315 0 -4.18411)
(-35.0136 0 6.74058)
(24.2667 0 -4.91853)
(-8.41517 2.27855e-16 1.92681)
(-10.7897 2.139e-16 1.92432)
(34.9306 0 -6.59628)
(-42.1877 9.35022e-16 8.14334)
(16.6453 -4.51583e-16 -3.50276)
(18.0249 1.48745e-16 -3.22562)
(-24.1054 0 4.69285)
(13.4648 0 -2.84119)
(9.33487 -5.34513e-18 -1.68057)
(-8.33173 0 1.79511)
(-13.6437 3.97145e-17 2.57731)
(-0.165348 1.02922e-17 -0.0635725)
(4.52326 0 -0.890171)
(-0.182221 0 0.0254536)
(-0.0861744 0 -0.0552385)
(-0.0013895 -5.23464e-21 -0.0521827)
(0.0757779 0 -0.00954785)
(0.127741 0 0.0190144)
(0.154034 5.02402e-21 0.0234188)
(0.166075 4.96318e-21 0.0135028)
(0.170604 0 0.00102723)
(0.170572 -8.30202e-25 -0.00798101)
(0.166867 9.17496e-21 -0.0130409)
(0.161483 -1.74914e-20 -0.0160427)
(0.156602 -8.20076e-21 -0.0186652)
(0.153315 7.21946e-24 -0.0213913)
(0.151107 -6.83269e-21 -0.0237425)
(0.148303 -6.14316e-21 -0.0250553)
(0.143213 5.49304e-21 -0.0251407)
(0.135198 -9.69786e-21 -0.0244073)
(0.124931 -8.42231e-21 -0.0234928)
(0.113761 0 -0.0228238)
(0.102846 0 -0.0224489)
(0.0926898 4.71979e-21 -0.0221643)
(0.0832359 3.52132e-21 -0.0217318)
(0.0742199 0 -0.02102)
(0.0654854 0 -0.0200264)
(0.0571322 1.24835e-22 -0.0188357)
(0.0494829 0 -0.0175614)
(0.0429591 5.92533e-21 -0.0163078)
(0.0379216 -4.05238e-21 -0.0151456)
(0.0345875 0 -0.0141238)
(0.0329717 -6.23611e-21 -0.0132724)
(0.0329244 -6.72365e-21 -0.0126222)
(0.0340974 0 -0.0121734)
(0.036024 7.06167e-21 -0.0119069)
(0.0380643 1.41741e-20 -0.0117454)
(0.039601 -1.23905e-22 -0.011613)
(0.0399782 0 -0.0113934)
(0.0388221 0 -0.0110277)
(0.0358156 -1.33451e-20 -0.0104223)
(0.0310991 0 -0.00958927)
(0.024752 0 -0.00847828)
(0.0173628 0 -0.00718128)
(0.0091242 0 -0.00565544)
(0.000787291 0 -0.00404712)
(-0.00766577 0 -0.0022887)
(-0.0154175 0 -0.000586496)
(-0.0228065 2.34113e-20 0.00117689)
(-0.0288644 -2.2749e-20 0.00273261)
(-0.0343028 0 0.00428035)
(-0.0378955 -2.1237e-20 0.00548357)
(-0.0408436 0 0.00665397)
(-0.0415496 0 0.00735813)
(-0.0418255 4.04019e-20 0.00803351)
(-0.0395582 0 0.00812022)
(-0.0373947 -3.72393e-20 0.00822919)
(-0.0326431 3.43267e-20 0.00767573)
(-0.0290813 0 0.00730777)
(-0.023237 2.63012e-20 0.00629508)
(-0.0201456 0 0.00575209)
(-0.0150769 0 0.00463149)
(-0.0143372 0 0.00431287)
(-0.0114197 5.06293e-21 0.00344263)
(-0.0140723 -4.50343e-21 0.0036679)
(-0.0136723 -2.0463e-22 0.00325747)
(-0.0197962 3.323e-20 0.0041533)
(-0.0214944 -9.56415e-22 0.00420565)
(-0.0305264 0 0.00568957)
(-0.0335278 0 0.00605993)
(-0.0446649 3.5279e-20 0.00796142)
(-0.0483286 -2.52587e-21 0.00854589)
(-0.0607843 0 0.0107373)
(-0.0646298 0 0.0115114)
(-0.0770779 1.80739e-20 0.0137679)
(-0.0799305 -1.48101e-21 0.0145794)
(-0.0902729 -1.08869e-21 0.0165299)
(-0.0894631 0 0.017021)
(-0.0967005 0 0.0184745)
(-0.0868094 -2.68995e-20 0.0175856)
(-0.0976265 -2.31604e-20 0.0194417)
(-0.0655103 0 0.0146031)
(-0.105435 0 0.0214513)
(-0.0207608 0 0.00643146)
(-0.136743 0 0.0275081)
(0.0345407 0 -0.00565082)
(-0.15442 0 0.0317234)
(-0.00595119 0 -0.00141385)
(-0.0143481 0 0.00561654)
(-0.249467 3.37116e-18 0.0431043)
(0.272278 -1.79022e-18 -0.0489126)
(-0.671353 1.38499e-18 0.122574)
(1.04468 -4.72277e-19 -0.19994)
(-1.51453 -6.19312e-18 0.311133)
(0.14724 5.59961e-18 -0.109163)
(2.63074 -6.85251e-18 -0.442891)
(-4.33449 0 0.843279)
(3.65454 0 -0.709724)
(-5.57859 0 1.03863)
(8.0461 0 -1.59694)
(-4.70593 -6.51309e-17 1.28253)
(-7.97465 0 1.08893)
(20.0026 0 -3.57924)
(-23.2919 -6.34033e-20 4.62009)
(22.1 0 -4.56179)
(-13.5585 -1.26886e-16 3.22736)
(-6.6722 -1.28913e-16 0.558454)
(36.002 0 -6.08192)
(-56.4827 0 10.8156)
(39.6311 0 -8.28149)
(-16.886 2.13342e-16 4.26616)
(-13.0841 0 1.67739)
(55.3003 2.14226e-17 -9.93705)
(-68.7372 -8.76793e-18 13.4945)
(28.6935 4.22633e-16 -6.74208)
(25.0794 -1.38302e-16 -3.9858)
(-36.7505 0 7.1061)
(24.1081 -1.34615e-16 -5.36583)
(12.6984 4.99969e-18 -1.98372)
(-14.2446 5.7297e-17 3.30755)
(-20.9519 0 3.7974)
(0.673641 -9.62354e-18 -0.423114)
(7.38734 0 -1.47873)
(-0.188984 0 -0.0108022)
(-0.145988 0 -0.0636299)
(-0.106193 4.94864e-21 -0.0606674)
(-0.0603513 0 -0.013751)
(-0.00843454 -4.86923e-21 0.0294066)
(0.0352873 9.59619e-21 0.0445083)
(0.0670963 0 0.0361152)
(0.089358 -9.2517e-21 0.0201821)
(0.105041 8.93651e-21 0.00767337)
(0.115846 8.68446e-21 0.00067504)
(0.123216 8.25479e-21 -0.00363974)
(0.128807 -7.72886e-21 -0.00805675)
(0.133954 7.1201e-21 -0.013198)
(0.13881 -1.29262e-20 -0.0180116)
(0.14217 0 -0.0212462)
(0.142336 -1.03605e-20 -0.0225935)
(0.138451 0 -0.0228031)
(0.131192 0 -0.0229429)
(0.122258 0 -0.0236089)
(0.113227 5.59543e-21 -0.0247057)
(0.104824 -2.42374e-23 -0.0257592)
(0.0969593 -4.80304e-24 -0.0263366)
(0.0892209 2.26815e-21 -0.0262626)
(0.0813162 0 -0.0256035)
(0.0732983 0 -0.0245516)
(0.0655436 0 -0.0233072)
(0.0585878 -4.96397e-21 -0.0220158)
(0.0528984 1.93802e-22 -0.0207466)
(0.0487668 0 -0.019535)
(0.0462478 0 -0.0184067)
(0.045234 0 -0.0174126)
(0.0454087 0 -0.0165787)
(0.0463479 -1.32888e-20 -0.0159189)
(0.0474171 0 -0.0153722)
(0.0480195 1.336e-20 -0.0148884)
(0.0474683 0 -0.0143556)
(0.0454127 0 -0.0137379)
(0.0414922 1.28402e-20 -0.0129278)
(0.0359043 0 -0.0119515)
(0.0286657 0 -0.0107179)
(0.0204516 -1.22802e-20 -0.00932656)
(0.01133 2.41845e-20 -0.00766647)
(0.00216856 0 -0.00590728)
(-0.00724903 2.32933e-20 -0.00390892)
(-0.0159051 0 -0.00194609)
(-0.0244082 -4.42929e-20 0.000176921)
(-0.0314552 -1.3036e-22 0.00207929)
(-0.0381387 0 0.00406951)
(-0.0427359 0 0.00566254)
(-0.0470103 2.02007e-20 0.00732687)
(-0.0486614 3.97017e-20 0.00842917)
(-0.0503051 -7.67682e-20 0.00961496)
(-0.0488435 0 0.0100571)
(-0.0480493 -3.50676e-20 0.0106434)
(-0.0438907 -3.24031e-20 0.0103475)
(-0.0417005 -2.81243e-20 0.0103822)
(-0.0362052 -2.3519e-20 0.00948745)
(-0.034527 0 0.00924974)
(-0.0295295 0 0.00808872)
(-0.0302728 -1.35594e-20 0.00798983)
(-0.0271025 -8.79743e-21 0.00694854)
(-0.0313656 4.24748e-21 0.00737159)
(-0.0303981 -3.94101e-23 0.00672922)
(-0.0383875 -1.53699e-20 0.00787996)
(-0.0392543 -1.7791e-20 0.00768899)
(-0.0505107 0 0.00951174)
(-0.0524243 0 0.00962756)
(-0.0661812 -3.32462e-20 0.0119455)
(-0.0685435 -6.03519e-20 0.0122767)
(-0.084041 0 0.0149687)
(-0.0865016 -2.15877e-20 0.0155391)
(-0.102319 -1.36716e-20 0.0183626)
(-0.10376 -1.36712e-20 0.0190625)
(-0.117646 -1.05823e-20 0.0215944)
(-0.115228 0 0.0220925)
(-0.126615 0 0.0241635)
(-0.113599 2.5313e-20 0.0233066)
(-0.131956 4.48485e-20 0.0261314)
(-0.0900086 -4.54503e-20 0.0204424)
(-0.149957 0 0.0299526)
(-0.0349556 0 0.0106412)
(-0.201872 0 0.0398186)
(0.0397673 0 -0.00615809)
(-0.237677 0 0.0490165)
(-0.00653492 0 -0.00428932)
(-0.0541613 -8.7051e-19 0.0167774)
(-0.336658 1.23529e-21 0.0552906)
(0.348068 1.68228e-18 -0.0582212)
(-0.923731 0 0.159017)
(1.39963 -4.562e-19 -0.258919)
(-2.14085 2.91007e-18 0.4543)
(0.415988 0 -0.237865)
(3.31048 -6.43205e-18 -0.499682)
(-5.85901 1.116e-17 1.1298)
(5.13574 0 -0.99921)
(-7.54257 0 1.37585)
(10.8405 0 -2.16945)
(-7.10666 -6.11248e-17 2.23274)
(-9.44739 0 0.958637)
(26.3953 0 -4.57884)
(-31.9535 1.34226e-19 6.35677)
(30.7965 3.51513e-17 -6.49425)
(-20.0929 0 4.95345)
(-5.93821 0 -0.288457)
(47.0847 0 -7.50537)
(-75.8972 0 14.515)
(53.8597 0 -11.6275)
(-27.4684 -1.56552e-20 7.07301)
(-11.7155 0 0.467121)
(73.3159 -2.00466e-17 -12.6798)
(-93.2559 -3.97839e-16 18.67)
(40.6635 0 -10.3806)
(28.2951 9.61158e-19 -3.75461)
(-46.145 0 8.90595)
(35.4178 2.50855e-19 -8.14911)
(13.8777 0 -1.73883)
(-20.13 -5.35707e-17 4.77886)
(-26.7991 0 4.75203)
(2.07546 -9.08375e-18 -1.02717)
(10.0132 0 -2.04097)
(-0.189323 0 -0.0083175)
(-0.171336 0 -0.0459539)
(-0.160686 0 -0.0487273)
(-0.14409 0 -0.00950788)
(-0.108584 4.59646e-21 0.0333305)
(-0.0682527 -1.97096e-23 0.0526569)
(-0.034906 0 0.0475975)
(-0.00917512 8.73258e-21 0.0320585)
(0.0125649 0 0.0190929)
(0.0321353 -1.64134e-20 0.0125883)
(0.0494772 0 0.00917369)
(0.0644545 7.29665e-21 0.00480956)
(0.0776085 0 -0.00151105)
(0.0894519 1.22045e-20 -0.00813556)
(0.0995004 -5.45725e-21 -0.0129657)
(0.106253 9.7187e-21 -0.0153213)
(0.108381 -8.51189e-21 -0.0162315)
(0.106059 -7.39047e-21 -0.01729)
(0.101019 0 -0.0193424)
(0.0953006 -5.28363e-21 -0.0221108)
(0.0900332 -4.1926e-21 -0.0247451)
(0.0852369 -6.20635e-21 -0.0265401)
(0.0803827 -2.14174e-21 -0.0272616)
(0.0749982 0 -0.02707)
(0.0690109 0 -0.0263021)
(0.062787 0 -0.0252732)
(0.0569617 2.2581e-21 -0.0241802)
(0.0521266 3.43562e-21 -0.023082)
(0.0486607 0 -0.021982)
(0.0466475 0 -0.0208826)
(0.0459997 -5.60799e-21 -0.0198399)
(0.0464098 0 -0.0188922)
(0.0474862 6.41979e-23 -0.0180751)
(0.0485931 1.25399e-20 -0.0173358)
(0.0491584 -1.25564e-20 -0.0166488)
(0.0484639 0 -0.0159116)
(0.0461923 0 -0.0151241)
(0.0419405 -1.21189e-20 -0.0141769)
(0.0359818 0 -0.0131258)
(0.0282748 0 -0.0118448)
(0.0196108 1.15884e-20 -0.0104499)
(0.00993939 -2.28206e-20 -0.00875747)
(0.00028226 0 -0.00696487)
(-0.00977955 -2.19768e-20 -0.00484978)
(-0.0189904 0 -0.00276079)
(-0.0282551 2.09184e-20 -0.000409973)
(-0.0358993 2.03949e-20 0.00170185)
(-0.0434479 0 0.00401067)
(-0.0486362 1.96229e-20 0.0058706)
(-0.053862 -1.90504e-20 0.0079298)
(-0.0560559 -7.52914e-20 0.00933601)
(-0.0587359 3.64131e-20 0.0109715)
(-0.0577255 -3.54786e-20 0.0117171)
(-0.058056 -1.66633e-22 0.0127743)
(-0.0542209 0 0.0127416)
(-0.0532815 2.65082e-20 0.0132377)
(-0.0479718 2.21653e-20 0.012523)
(-0.0477266 -1.65356e-20 0.0126981)
(-0.0427423 1.13682e-20 0.0115845)
(-0.0451326 1.27749e-20 0.0118222)
(-0.0417457 3.7885e-21 0.0106815)
(-0.0479209 4.63962e-21 0.0113928)
(-0.0464849 -9.93633e-21 0.0105476)
(-0.0567449 0 0.0120041)
(-0.0568801 0 0.0115541)
(-0.0708255 -1.6012e-20 0.0137376)
(-0.0716993 0 0.0135551)
(-0.0885838 0 0.0163039)
(-0.0896073 2.73771e-20 0.0163224)
(-0.108695 0 0.0195259)
(-0.109611 2.03108e-20 0.0198059)
(-0.129392 2.45e-20 0.0231914)
(-0.129133 0 0.0236714)
(-0.147226 4.47359e-21 0.026774)
(-0.142806 0 0.0272041)
(-0.159072 0 0.0298601)
(-0.142489 -2.35388e-20 0.0290973)
(-0.169096 -2.16717e-20 0.0327777)
(-0.116934 1.41408e-21 0.0267008)
(-0.197474 0 0.038505)
(-0.0517332 0 0.0158535)
(-0.270671 0 0.0525517)
(0.043853 1.22384e-19 -0.00579297)
(-0.328831 5.70097e-20 0.0685926)
(-0.00127329 0 -0.00895723)
(-0.11128 1.63314e-18 0.0337923)
(-0.410959 -1.48823e-18 0.06307)
(0.40284 -3.15468e-18 -0.0607158)
(-1.1606 1.20486e-18 0.188132)
(1.71626 8.64621e-19 -0.30318)
(-2.76004 0 0.598819)
(0.773119 0 -0.415881)
(3.76326 6.03109e-18 -0.47338)
(-7.19465 -1.04627e-17 1.36126)
(6.5679 -2.80161e-18 -1.27612)
(-9.36021 0 1.66316)
(13.3738 0 -2.68927)
(-9.71987 5.72702e-17 2.86064)
(-10.0104 -5.31749e-17 0.498528)
(31.7976 0 -5.26765)
(-40.0463 -1.25703e-19 7.95123)
(38.9638 -3.29153e-17 -8.37829)
(-27.0333 0 6.91894)
(-3.55851 0 -1.75022)
(56.2388 0 -8.25068)
(-92.7225 0 17.6493)
(66.5638 0 -14.8009)
(-39.8739 -1.86827e-16 10.478)
(-7.08937 0 -1.82434)
(88.8764 0 -14.5583)
(-114.892 0 23.3166)
(51.9476 -3.45018e-16 -14.2304)
(27.6195 5.92829e-17 -2.65075)
(-51.9446 0 9.86318)
(46.8689 1.17458e-16 -11.0975)
(12.9995 0 -0.844517)
(-25.639 -5.01447e-17 6.33507)
(-31.1905 0 5.34813)
(3.88442 8.48908e-18 -1.80551)
(12.2987 0 -2.55451)
(-0.190186 -4.26656e-21 0.000124694)
(-0.180014 -4.35933e-21 -0.0240649)
(-0.174326 4.32292e-21 -0.0273338)
(-0.170792 4.28156e-21 0.001993)
(-0.151048 0 0.0369967)
(-0.122268 -4.26645e-21 0.0540635)
(-0.0973351 0 0.0501169)
(-0.0785794 8.28615e-21 0.0361127)
(-0.061329 8.06139e-21 0.0240811)
(-0.0424268 1.54752e-20 0.018927)
(-0.0224453 -7.30369e-21 0.0175138)
(-0.00329875 6.80688e-21 0.0147376)
(0.0139425 0 0.0086814)
(0.0294548 0 0.0011583)
(0.04351 5.14504e-21 -0.00481744)
(0.0552372 -3.75095e-23 -0.00780628)
(0.0629011 9.4403e-23 -0.00887115)
(0.0656336 1.06756e-22 -0.0102353)
(0.0645811 0 -0.0132338)
(0.0620551 0 -0.0174966)
(0.0597858 0 -0.0217041)
(0.0581349 5.69445e-21 -0.0247482)
(0.0565555 1.87698e-21 -0.0262702)
(0.0543573 0 -0.0265203)
(0.0512156 0 -0.0260046)
(0.0473452 -9.59581e-22 -0.025187)
(0.0434109 0 -0.0243378)
(0.0401415 0 -0.0235033)
(0.0380441 0 -0.0226371)
(0.0372424 0 -0.0216985)
(0.0376573 2.95187e-23 -0.0207383)
(0.0389711 0 -0.0198008)
(0.0408228 4.14633e-23 -0.0189398)
(0.0425761 -1.18207e-20 -0.0181041)
(0.0436948 6.70163e-23 -0.0172924)
(0.0434266 0 -0.0164108)
(0.0414915 0 -0.0155021)
(0.0374254 0 -0.0144574)
(0.0315796 0 -0.0133719)
(0.0238341 0 -0.0120842)
(0.0151153 0 -0.0107348)
(0.00523799 0 -0.00906128)
(-0.00458758 2.10554e-20 -0.00729657)
(-0.0150093 2.06157e-20 -0.00512609)
(-0.0244908 0 -0.00298327)
(-0.0342777 1.96827e-20 -0.000473052)
(-0.0422691 0 0.00177034)
(-0.0504871 0 0.00433143)
(-0.0560472 -3.70316e-20 0.00638543)
(-0.0620695 0 0.00878617)
(-0.0646087 3.56488e-20 0.0104366)
(-0.0682075 0 0.0124874)
(-0.0674699 6.70463e-20 0.0134942)
(-0.0688532 -1.80853e-22 0.0150121)
(-0.065187 0 0.0152222)
(-0.0654824 0 0.0161964)
(-0.0602273 0 0.0156615)
(-0.0614605 3.09719e-20 0.0162863)
(-0.0563789 -2.11994e-20 0.0152284)
(-0.0605322 -1.09715e-20 0.0158486)
(-0.0568394 -2.72388e-21 0.0146151)
(-0.0651253 -8.92642e-21 0.0156618)
(-0.0631426 -9.42947e-21 0.0146117)
(-0.0759483 0 0.0164185)
(-0.0752558 0 0.0156955)
(-0.0922316 3.81587e-22 0.0182842)
(-0.0919271 0 0.0177827)
(-0.112352 0 0.0210176)
(-0.11183 2.32489e-20 0.0207016)
(-0.134992 0 0.0244871)
(-0.134053 0 0.0244449)
(-0.158367 -2.10314e-20 0.0284703)
(-0.155979 9.03683e-21 0.0286858)
(-0.178978 0 0.0324404)
(-0.172018 0 0.0327677)
(-0.194009 0 0.0360542)
(-0.173238 2.21066e-20 0.035415)
(-0.20903 0 0.039849)
(-0.146019 7.65223e-20 0.033667)
(-0.248054 7.16894e-20 0.0473197)
(-0.0708126 0 0.0220231)
(-0.343218 0 0.0654624)
(0.0470551 -1.14844e-19 -0.00481128)
(-0.42789 -1.22921e-21 0.0896597)
(0.0104411 -3.38243e-19 -0.0156934)
(-0.18676 -7.65386e-19 0.0559295)
(-0.469589 -1.39434e-18 0.0658357)
(0.434113 1.47787e-18 -0.0560953)
(-1.37749 -1.12967e-18 0.211178)
(1.99287 9.90508e-21 -0.332261)
(-3.35983 0 0.737644)
(1.20021 4.62703e-18 -0.630274)
(3.98581 0 -0.368068)
(-8.29517 0 1.53139)
(7.89957 2.62458e-18 -1.52837)
(-11.0253 0 1.90523)
(15.6587 0 -3.15202)
(-12.3059 0 3.91648)
(-9.78965 4.97884e-17 -0.271558)
(36.1397 0 -5.61004)
(-47.2832 -4.0636e-19 9.36182)
(46.396 0 -10.1721)
(-34.2537 0 9.05271)
(0.172496 0 -3.74991)
(63.4316 0 -8.27101)
(-106.492 0 20.1632)
(77.4858 1.10881e-16 -17.7461)
(-53.662 -1.7466e-16 14.3047)
(0.0867031 -1.62827e-16 -5.04156)
(101.838 0 -15.518)
(-132.753 0 27.3467)
(62.0334 6.36373e-16 -18.2071)
(23.3096 0 -0.119603)
(-54.0883 1.35449e-16 9.95721)
(57.9711 0 -14.0537)
(10.3296 3.45536e-18 0.611459)
(-30.5002 4.68594e-17 7.8102)
(-34.1836 0 5.52999)
(5.90789 8.01316e-18 -2.84846)
(14.1404 0 -2.99102)
(-0.189231 4.01797e-21 0.0094359)
(-0.180679 8.27805e-21 -0.00390683)
(-0.169316 -4.07203e-21 -0.00517614)
(-0.167939 -2.77571e-24 0.014675)
(-0.157963 3.96979e-21 0.0396779)
(-0.139397 0 0.05261)
(-0.122874 0 0.0491171)
(-0.111964 -7.80261e-21 0.0368531)
(-0.102307 -1.51464e-20 0.0261891)
(-0.0893151 -5.19548e-23 0.0219583)
(-0.0726243 6.87684e-21 0.0220089)
(-0.0546873 -6.40903e-21 0.0210283)
(-0.0379619 5.81546e-21 0.0160524)
(-0.0231303 0 0.00833325)
(-0.00940462 0 0.00141185)
(0.00354397 -4.26285e-21 -0.00221518)
(0.0142917 1.48302e-20 -0.00313358)
(0.0208695 1.281e-20 -0.00410866)
(0.0230864 0 -0.00731977)
(0.0229268 0 -0.0126252)
(0.0226979 0 -0.0182463)
(0.0233802 -8.2827e-23 -0.0225086)
(0.0246339 -3.45737e-21 -0.0247974)
(0.0256123 8.82715e-22 -0.025404)
(0.025638 2.91665e-22 -0.0250117)
(0.0245689 1.92459e-21 -0.0242751)
(0.0229277 -2.15905e-21 -0.0235862)
(0.0215384 -3.11911e-21 -0.0229964)
(0.0210875 -3.90266e-21 -0.0223914)
(0.0217817 0 -0.02166)
(0.023553 4.94993e-21 -0.0208333)
(0.0260538 -5.25583e-21 -0.0199568)
(0.0289517 5.44345e-21 -0.0191017)
(0.0316131 1.10144e-20 -0.0182133)
(0.0335606 2.21135e-20 -0.0173127)
(0.0340093 0 -0.0163099)
(0.0327281 0 -0.0152941)
(0.0291657 1.07061e-20 -0.0141552)
(0.0237511 0 -0.0130358)
(0.0162517 -1.04024e-20 -0.011737)
(0.0077504 -1.02427e-20 -0.0104352)
(-0.00210085 0 -0.0087817)
(-0.0118608 -3.95821e-20 -0.0070578)
(-0.0224489 -1.94007e-20 -0.00484516)
(-0.031994 0 -0.00267868)
(-0.0421488 -1.85207e-20 -3.82285e-05)
(-0.0503125 -1.80766e-20 0.00228888)
(-0.0590951 0 0.00506225)
(-0.0648862 3.48976e-20 0.00725344)
(-0.0716471 -1.71726e-20 0.00995661)
(-0.0744109 -3.38468e-20 0.0117965)
(-0.078908 0 0.0142349)
(-0.0783312 1.29855e-22 0.0154586)
(-0.0807823 5.93121e-20 0.0174294)
(-0.0771734 0 0.0178563)
(-0.078752 0 0.0193264)
(-0.073429 -1.92868e-20 0.0189641)
(-0.0762218 -1.44869e-20 0.0200793)
(-0.0709032 1.96747e-20 0.0190829)
(-0.0769429 1.03135e-20 0.0201418)
(-0.0727869 2.5603e-21 0.0188254)
(-0.0833608 4.287e-21 0.0202699)
(-0.0806482 1.77583e-20 0.0190167)
(-0.0962337 0 0.0212294)
(-0.0944879 0 0.0202146)
(-0.114794 2.73654e-20 0.0232513)
(-0.113036 0 0.0223905)
(-0.137389 0 0.0261496)
(-0.13498 -2.18357e-20 0.0254441)
(-0.162705 0 0.029853)
(-0.159468 1.51887e-20 0.0294179)
(-0.188935 5.31351e-22 0.0341301)
(-0.183863 -8.48385e-21 0.0339996)
(-0.212579 0 0.0384598)
(-0.202392 0 0.0386185)
(-0.231157 0 0.0425645)
(-0.205358 2.09182e-20 0.0420661)
(-0.251612 0 0.0471444)
(-0.176752 -3.54136e-20 0.0411442)
(-0.301717 -1.35169e-19 0.0561843)
(-0.0916582 0 0.0290093)
(-0.419666 0 0.0783573)
(0.0498002 0 -0.00322445)
(-0.535002 -1.05695e-21 0.112145)
(0.0289653 3.17094e-19 -0.0245251)
(-0.281681 -7.12494e-19 0.083659)
(-0.5105 1.30683e-18 0.0630123)
(0.438876 1.3735e-18 -0.0432799)
(-1.57157 0 0.22492)
(2.22838 -3.92797e-19 -0.345563)
(-3.92923 0 0.869801)
(1.67343 -4.33397e-18 -0.88175)
(3.98443 0 -0.175426)
(-9.1263 0 1.62071)
(9.07274 0 -1.74186)
(-12.5256 -1.45028e-17 2.09719)
(17.6789 3.73218e-17 -3.5529)
(-14.8812 0 4.84856)
(-8.92888 -4.61747e-17 -1.32159)
(39.3777 -2.80148e-17 -5.59298)
(-53.3838 3.80222e-19 10.517)
(52.94 2.912e-17 -11.8266)
(-41.5647 0 11.2975)
(4.84382 0 -6.22743)
(68.6489 0 -7.57634)
(-116.902 0 21.977)
(86.5555 -1.03683e-16 -20.3799)
(-68.1514 8.67229e-20 18.3735)
(8.79877 3.04142e-16 -9.04916)
(111.987 0 -15.5182)
(-146.081 0 30.5853)
(70.7025 -2.93308e-16 -22.1859)
(15.4694 0 2.07051)
(-53.051 -1.26578e-16 9.19555)
(68.251 0 -16.8692)
(6.3634 -6.23379e-18 2.55695)
(-34.4818 0 9.13398)
(-35.8925 0 5.36078)
(8.08543 -7.48557e-18 -3.5356)
(15.4537 0 -3.32414)
(-0.185226 0 0.0189809)
(-0.178141 -3.92499e-21 0.0120724)
(-0.160939 0 0.011991)
(-0.157916 -3.79191e-21 0.0243397)
(-0.152574 -7.4646e-21 0.0407948)
(-0.140374 0 0.0499867)
(-0.129009 3.67822e-21 0.0474518)
(-0.122485 0 0.0374498)
(-0.117832 7.30775e-23 0.0283354)
(-0.110442 -1.35054e-20 0.024588)
(-0.0985905 0 0.025037)
(-0.0842814 0 0.025112)
(-0.070579 -5.46978e-21 0.021325)
(-0.059161 0 0.0138967)
(-0.0493133 0 0.00612093)
(-0.0393795 0 0.00142536)
(-0.0293785 -6.92472e-21 0.000326281)
(-0.0214805 -5.97172e-21 4.69105e-05)
(-0.0174468 -4.9305e-21 -0.00262011)
(-0.0164589 0 -0.00830327)
(-0.0160762 0 -0.0150298)
(-0.0145611 -2.40523e-21 -0.0204564)
(-0.011718 1.58947e-21 -0.0235214)
(-0.00830685 -8.30239e-22 -0.0244396)
(-0.00530273 -2.74348e-22 -0.0240325)
(-0.00338118 -2.02088e-21 -0.0231778)
(-0.00244309 -8.67035e-23 -0.0224696)
(-0.0017444 2.9335e-21 -0.0220219)
(-0.000413143 3.67037e-21 -0.0216501)
(0.00190763 0 -0.0211343)
(0.00519364 0 -0.0204602)
(0.009046 4.94275e-21 -0.019666)
(0.0131479 0 -0.0188432)
(0.0168626 -1.03578e-20 -0.0179291)
(0.0197972 -1.03761e-20 -0.0169658)
(0.0211427 1.02818e-20 -0.0158589)
(0.0207397 0 -0.014746)
(0.0179214 -1.00667e-20 -0.0135085)
(0.0131951 -9.89157e-21 -0.0123456)
(0.00616677 3.10277e-23 -0.0110164)
(-0.00189772 1.92301e-20 -0.00974784)
(-0.011549 0 -0.00809579)
(-0.0210571 1.85826e-20 -0.0064056)
(-0.0316686 0 -0.00414002)
(-0.041103 0 -0.00195765)
(-0.051508 0 0.000809106)
(-0.0596843 6.60995e-23 0.0031923)
(-0.0689523 0 0.0061594)
(-0.0748363 -1.63969e-20 0.00844411)
(-0.0823005 3.22411e-20 0.0114248)
(-0.0851645 3.18063e-20 0.0134036)
(-0.0905632 0 0.0162087)
(-0.0900255 -2.98503e-20 0.0176013)
(-0.0935843 -5.58943e-20 0.0200177)
(-0.0899022 0 0.0206236)
(-0.0928356 0 0.0226028)
(-0.0872918 1.81171e-20 0.0223892)
(-0.0917504 1.36086e-20 0.0240292)
(-0.0860164 -9.20717e-21 0.0230824)
(-0.0940962 -9.54276e-21 0.0246326)
(-0.0892714 0 0.0232288)
(-0.102345 0 0.0251351)
(-0.0986576 2.79377e-24 0.0236708)
(-0.117296 1.12891e-20 0.0263527)
(-0.1142 0 0.0250222)
(-0.13819 -1.27443e-20 0.0285621)
(-0.134626 0 0.0272997)
(-0.163364 0 0.0316347)
(-0.158642 0 0.0304829)
(-0.191514 0 0.0355708)
(-0.185443 -3.59634e-22 0.0346722)
(-0.220818 2.87132e-22 0.040136)
(-0.212387 7.10891e-21 0.0395803)
(-0.247827 0 0.0448231)
(-0.233549 -1.09866e-21 0.0447465)
(-0.270431 0 0.0494122)
(-0.238463 -1.96151e-20 0.049061)
(-0.296926 -1.9385e-20 0.0547165)
(-0.2087 -3.19288e-20 0.0491466)
(-0.358777 6.36693e-20 0.065157)
(-0.113767 0 0.0368216)
(-0.500554 -4.75823e-20 0.0912469)
(0.0525187 0 -0.000953563)
(-0.650741 -4.49218e-20 0.135901)
(0.0544688 2.97123e-19 -0.0352706)
(-0.397279 6.67466e-19 0.116958)
(-0.53224 0 0.0543313)
(0.414044 -2.56374e-18 -0.0216836)
(-1.74034 0 0.229807)
(2.42135 -3.90117e-19 -0.346178)
(-4.46065 0 0.993026)
(2.17508 -4.04363e-18 -1.14207)
(3.76554 0 0.0839214)
(-9.66341 -8.37523e-18 1.62187)
(10.0281 -2.17023e-18 -1.90048)
(-13.8366 1.35717e-17 2.23385)
(19.4296 -3.49221e-17 -3.88459)
(-17.3161 0 5.89912)
(-7.61439 8.60934e-17 -2.6163)
(41.5061 5.21886e-17 -5.20947)
(-58.1261 0 11.3657)
(58.489 -2.72341e-17 -13.3018)
(-48.6978 0 13.5994)
(9.9772 0 -9.0889)
(71.8972 -5.17815e-17 -6.17565)
(-123.843 0 23.0682)
(93.8705 0 -22.6695)
(-82.4383 1.52569e-16 22.4996)
(17.8769 -2.83642e-16 -13.6406)
(119.01 -1.50977e-17 -14.5029)
(-154.371 0 32.9364)
(77.9177 0 -26.0924)
(5.47652 0 7.11849)
(-49.7384 0 7.70199)
(77.2353 -9.43905e-17 -19.4004)
(1.85165 2.80743e-18 4.9774)
(-37.4335 0 10.2726)
(-36.467 0 4.86649)
(10.2788 0 -3.75564)
(16.1381 0 -3.53269)
(-0.179514 3.61426e-21 0.0272458)
(-0.174364 0 0.0231527)
(-0.153626 3.67637e-21 0.0232203)
(-0.148873 0 0.0306719)
(-0.145605 3.50547e-21 0.0412804)
(-0.137039 0 0.0477331)
(-0.128338 -3.45704e-21 0.0462759)
(-0.123248 6.7289e-21 0.0389898)
(-0.120282 1.31148e-20 0.0315583)
(-0.115743 1.22693e-22 0.0281975)