/*--------------------------------*- C++ -*----------------------------------*\
| =========                 |                                                 |
| \\      /  F ield         | OpenFOAM: The Open Source CFD Toolbox           |
|  \\    /   O peration     | Version:  2412                                  |
|   \\  /    A nd           | Website:  www.openfoam.com                      |
|    \\/     M anipulation  |                                                 |
\*---------------------------------------------------------------------------*/
FoamFile
{
    version     2.0;
    format      ascii;
    arch        "LSB;label=32;scalar=64";
    class       volVectorField;
    location    "0.295";
    object      ddt0(U);
}
// * * * * * * * * * * * * * * * * * * * * * * * * * * * * * * * * * * * * * //

dimensions      [0 1 -2 0 0 0 0];

internalField   nonuniform List<vector> 
12600
(
(1.762 -1.24327e-20 0.409988)
(1.1858 6.71928e-22 0.162531)
(0.633914 2.12062e-20 0.0612058)
(0.320183 0 -0.0120171)
(0.0485762 3.27194e-20 -0.0422382)
(-0.114523 3.37652e-21 -0.0422306)
(-0.179717 0 -0.0331356)
(-0.186292 0 -0.0248885)
(-0.165062 3.07329e-19 -0.018098)
(-0.138403 0 -0.0127393)
(-0.118375 -1.24437e-19 -0.00854117)
(-0.109313 -8.41149e-20 -0.0051895)
(-0.111318 4.33954e-20 -0.00250049)
(-0.122152 0 -0.000404306)
(-0.137791 -5.21466e-21 0.00119092)
(-0.152838 0 0.00248759)
(-0.161639 -2.8516e-20 0.00375754)
(-0.159936 0 0.00521496)
(-0.146307 1.01334e-19 0.00690094)
(-0.12265 1.34425e-19 0.00865232)
(-0.0935312 -1.48789e-19 0.0101683)
(-0.0647224 -4.68502e-22 0.0111364)
(-0.0415034 0 0.0113515)
(-0.0272007 1.73428e-19 0.0107733)
(-0.0222975 0 0.00950735)
(-0.0243381 0 0.00774467)
(-0.0286911 5.63215e-20 0.00570618)
(-0.0299967 0 0.00361172)
(-0.0238797 -1.62827e-21 0.00165929)
(-0.00844003 -1.11402e-19 -5.17725e-06)
(0.0149498 -1.22113e-19 -0.00133405)
(0.0418227 -1.13058e-19 -0.00241911)
(0.0658335 8.48993e-20 -0.00349584)
(0.0806683 9.35861e-20 -0.00487586)
(0.0821827 2.74599e-20 -0.00682513)
(0.0700113 -3.3189e-21 -0.00941756)
(0.0482355 0 -0.0124498)
(0.0245385 1.47569e-19 -0.0154309)
(0.00818778 0 -0.017712)
(0.0069364 -4.45289e-19 -0.0186662)
(0.0242696 0 -0.0179482)
(0.0574003 1.7631e-21 -0.0156416)
(0.0976925 0 -0.0123541)
(0.132799 5.54555e-21 -0.00904897)
(0.151052 -1.26647e-19 -0.00681742)
(0.145518 -2.64745e-19 -0.00645274)
(0.117302 4.69182e-19 -0.00817477)
(0.0755547 0 -0.0114358)
(0.0346838 0 -0.0150665)
(0.00924906 -1.93996e-19 -0.017673)
(0.00794121 -1.06282e-18 -0.0181042)
(0.0307004 -1.37642e-18 -0.0160425)
(0.0670227 1.53639e-21 -0.0119662)
(0.101894 -5.37859e-19 -0.00730593)
(0.118782 0 -0.00344488)
(0.110397 -1.02101e-18 -0.00171404)
(0.0768315 -1.33759e-18 -0.00211048)
(0.031545 -1.15713e-18 -0.00405626)
(-0.0107961 0 -0.00578452)
(-0.0343784 0 -0.00591635)
(-0.0343008 0 -0.00352103)
(-0.0159654 -2.31194e-19 0.00108968)
(0.00861583 0 0.00608965)
(0.0205126 0 0.00998882)
(0.0157052 -5.38319e-18 0.0103959)
(-0.0109438 0 0.00781872)
(-0.039229 0 0.0023087)
(-0.0572093 0 -0.00396023)
(-0.0471411 -9.58064e-18 -0.00946063)
(0.000727518 1.0772e-17 -0.0144928)
(0.0660667 7.36112e-18 -0.0165729)
(0.147249 7.1126e-20 -0.020177)
(0.184385 8.85854e-18 -0.0198913)
(0.181283 0 -0.0206431)
(0.0990373 -1.71526e-17 -0.0132374)
(-0.0242224 0 0.0031101)
(-0.165268 0 0.0254512)
(-0.307218 0 0.0596393)
(-0.386544 -4.42217e-20 0.0632396)
(-0.339844 2.1174e-17 0.0250825)
(-0.0695174 1.70541e-17 -0.0485544)
(0.346453 -1.38845e-17 -0.105276)
(0.532943 -3.31219e-18 -0.0615529)
(0.443234 0 0.0596148)
(-0.00193882 0 0.162446)
(-0.207247 -1.09097e-16 0.118406)
(0.0107785 1.80651e-16 -0.0467016)
(0.267015 -5.52724e-17 -0.128195)
(0.182421 2.17483e-17 -0.0929844)
(-0.28715 0 0.0777178)
(-0.943839 -2.17077e-17 0.199008)
(-0.861318 -1.46274e-17 0.0738813)
(-0.378812 2.15544e-17 -0.0741805)
(-0.229157 -1.20775e-17 -0.0920262)
(-0.760431 0 0.164678)
(-1.42933 0 0.355908)
(-1.99618 0 0.520828)
(-2.10181 0 0.50968)
(-1.99851 0 0.460676)
(-1.75974 0 0.379403)
(-1.75843 5.47914e-17 0.35718)
(-1.85219 1.69675e-16 0.352815)
(-2.22899 3.31786e-17 0.422566)
(-2.56382 0 0.503486)
(-3.17921 0 0.630879)
(-3.13134 0 0.624469)
(-2.40645 -1.97803e-16 0.469688)
(-0.701898 -2.42073e-16 0.127821)
(1.05387 4.53571e-17 -0.202039)
(2.52942 0 -0.459913)
(2.63056 3.16373e-16 -0.47468)
(1.93969 0 -0.410075)
(-0.450438 5.87388e-16 0.0601049)
(-2.84703 -2.58044e-16 0.57896)
(-5.29329 4.23399e-16 1.02463)
(-7.08257 1.17229e-16 1.33782)
(-7.60842 1.5988e-16 1.47739)
(-6.99407 1.3287e-19 1.41303)
(-6.30433 1.30571e-16 1.22171)
(-4.83113 0 0.87394)
(2.62247 1.25453e-20 0.668018)
(2.26239 0 0.412065)
(1.66921 -2.14431e-20 0.242662)
(1.10792 0 0.04667)
(0.609188 -3.31526e-20 -0.0642426)
(0.287936 -1.06467e-20 -0.0886804)
(0.1178 3.09728e-20 -0.078355)
(0.037127 0 -0.0622064)
(0.00351922 -5.08416e-21 -0.0477215)
(-0.0121334 1.48467e-19 -0.0366412)
(-0.025347 -1.22034e-19 -0.0286288)
(-0.0424887 -8.28113e-20 -0.0227167)
(-0.0652047 4.29222e-20 -0.0180342)
(-0.0924552 -1.19091e-20 -0.0140013)
(-0.120961 9.81444e-21 -0.0102063)
(-0.145688 0 -0.00628641)
(-0.161209 -1.71328e-21 -0.0019682)
(-0.16359 -5.87576e-20 0.00277789)
(-0.151884 -1.02808e-19 0.00762603)
(-0.128531 0 0.0119508)
(-0.0986103 0 0.015057)
(-0.0683937 -1.43529e-19 0.0164687)
(-0.0436861 0 0.0161049)
(-0.0282734 -8.77118e-20 0.0142429)
(-0.0227504 1.15497e-19 0.0113277)
(-0.0241827 0 0.00778762)
(-0.0269476 -6.22596e-20 0.00396508)
(-0.0246191 0 0.000146649)
(-0.0122022 8.9543e-20 -0.00340327)
(0.0120642 2.30283e-19 -0.0064649)
(0.0459989 2.50938e-19 -0.00896298)
(0.0840023 1.14435e-19 -0.0110566)
(0.118733 -8.59097e-20 -0.0131636)
(0.143243 -1.90602e-19 -0.0158169)
(0.153222 -5.59773e-20 -0.0194606)
(0.148404 0 -0.0241834)
(0.1332 0 -0.0296372)
(0.11557 1.03991e-21 -0.0350077)
(0.105121 0 -0.039296)
(0.109654 4.49537e-19 -0.0415335)
(0.132687 0 -0.0412544)
(0.171033 1.12536e-18 -0.0385916)
(0.215777 0 -0.0345116)
(0.254009 5.66975e-19 -0.0304075)
(0.273981 0 -0.0278881)
(0.268651 2.66582e-19 -0.0280163)
(0.239508 0 -0.0310333)
(0.196055 0 -0.036041)
(0.152939 -1.7328e-19 -0.0412412)
(0.125114 0 -0.0446815)
(0.120701 0 -0.0446226)
(0.140126 0 -0.0409005)
(0.17122 1.18855e-18 -0.0339603)
(0.199951 1.07102e-18 -0.0262478)
(0.207121 0 -0.0191198)
(0.187633 0 -0.0150163)
(0.138787 1.34277e-18 -0.013106)
(0.0776987 1.15708e-18 -0.0134362)
(0.017075 0 -0.0128298)
(-0.0239679 0 -0.0102571)
(-0.0407238 0 -0.00413841)
(-0.0387153 0 0.0049166)
(-0.0261382 8.96438e-19 0.0137895)
(-0.0270976 -2.11292e-18 0.0215276)
(-0.0347494 5.34862e-18 0.0225409)
(-0.0627054 0 0.0197268)
(-0.0752705 0 0.00925019)
(-0.0672484 0 -0.00351766)
(-0.0148813 -3.00571e-20 -0.0191774)
(0.0971934 -1.06689e-17 -0.0375429)
(0.221026 -7.28408e-18 -0.0512526)
(0.379677 5.63052e-20 -0.0693)
(0.433608 8.86955e-20 -0.0701308)
(0.425358 1.57677e-17 -0.0681702)
(0.221932 1.69085e-17 -0.0338455)
(-0.0938634 0 0.0221911)
(-0.487716 0 0.0957405)
(-0.88491 0 0.181136)
(-1.00063 1.76027e-17 0.184473)
(-0.686758 0 0.0798144)
(0.171937 0 -0.123828)
(1.12797 1.3589e-17 -0.275095)
(1.0874 3.23825e-18 -0.158624)
(0.295804 0 0.124236)
(-1.00331 0 0.399654)
(-1.12219 0 0.298985)
(-0.00314965 -1.75291e-16 -0.0825142)
(0.81253 3.63707e-19 -0.262118)
(0.210554 2.1628e-17 -0.104168)
(-1.39489 -2.97164e-17 0.294604)
(-2.9712 1.9578e-17 0.616804)
(-2.16196 -1.45278e-17 0.259772)
(-0.570674 -4.17209e-17 -0.0955679)
(-0.392839 0 -0.0790397)
(-2.48576 0 0.566733)
(-4.82853 0 1.07229)
(-6.59872 0 1.4453)
(-6.80528 -1.63698e-17 1.42995)
(-6.40243 0 1.30792)
(-5.55359 0 1.10799)
(-5.51562 5.26755e-17 1.08084)
(-5.58835 -8.12471e-17 1.08283)
(-6.65602 -6.31032e-17 1.29164)
(-7.72971 -3.06144e-17 1.52285)
(-9.48114 0 1.86464)
(-9.09217 0 1.77088)
(-6.67468 0 1.25816)
(-1.58828 1.15257e-16 0.245174)
(3.03712 -4.31665e-17 -0.636317)
(6.67903 0 -1.29596)
(6.1513 -6.01471e-16 -1.16923)
(3.26174 -4.53527e-16 -0.571076)
(-3.73669 -1.11414e-15 0.732246)
(-10.9044 0 2.1639)
(-17.6284 0 3.43643)
(-22.0095 1.10151e-16 4.2296)
(-23.4975 0 4.53395)
(-21.7437 -1.39781e-16 4.23395)
(-19.1997 -1.23225e-16 3.66955)
(-14.4421 0 2.69434)
(2.54401 0 0.703541)
(2.44794 0 0.560642)
(2.14654 -5.01748e-20 0.448016)
(1.71911 0 0.230615)
(1.22906 0 0.0486098)
(0.827752 -1.0512e-21 -0.0387395)
(0.556562 -2.93318e-20 -0.0652304)
(0.386381 0 -0.0643808)
(0.279499 -1.04848e-20 -0.0554836)
(0.205241 -1.40652e-19 -0.0473512)
(0.145283 2.26967e-19 -0.0423102)
(0.0910882 7.84631e-20 -0.0395149)
(0.0394079 6.24895e-22 -0.0372682)
(-0.010151 1.12847e-20 -0.0342247)
(-0.055652 -4.28589e-21 -0.0297046)
(-0.0932394 3.08004e-21 -0.0236068)
(-0.118466 1.57166e-20 -0.0162754)
(-0.128204 5.56811e-20 -0.00845219)
(-0.122138 0 -0.00120988)
(-0.10315 0 0.00428058)
(-0.0765628 -1.35652e-19 0.00714598)
(-0.0487525 -1.29351e-19 0.00717379)
(-0.0256021 0 0.00487076)
(-0.0109764 0 0.00113623)
(-0.00542673 -1.09441e-19 -0.00320602)
(-0.00569641 0 -0.00766503)
(-0.0056038 1.25656e-19 -0.0120299)
(0.00175593 -7.66932e-20 -0.0161629)
(0.0214142 0 -0.0198791)
(0.0545923 -1.11287e-19 -0.0229793)
(0.0982204 -1.20602e-19 -0.0254242)
(0.145828 0 -0.0274381)
(0.189562 8.602e-20 -0.0295107)
(0.222359 9.08649e-20 -0.0321563)
(0.240127 -2.56998e-21 -0.035727)
(0.242851 0 -0.0401621)
(0.235169 0 -0.0450893)
(0.225 -1.42166e-19 -0.0498061)
(0.221847 0 -0.0536725)
(0.233111 0 -0.0561049)
(0.262057 0 -0.0570403)
(0.305053 0 -0.0566791)
(0.353182 0 -0.0558133)
(0.39342 0 -0.0552034)
(0.414474 0 -0.0557359)
(0.409467 -2.67764e-19 -0.0576813)
(0.380333 4.57612e-19 -0.0608603)
(0.336463 0 -0.064422)
(0.292274 1.63939e-19 -0.0670785)
(0.262349 0 -0.0679205)
(0.254042 0 -0.0659012)
(0.268038 1.31561e-18 -0.0617227)
(0.291144 0 -0.0551842)
(0.310749 -5.02845e-19 -0.0485899)
(0.305946 -3.03557e-19 -0.041275)
(0.274216 0 -0.0357585)
(0.210211 -1.26921e-18 -0.0296327)
(0.134594 0 -0.0248333)
(0.0570587 0 -0.0180273)
(0.000388164 0 -0.0108204)
(-0.0324413 5.04066e-19 -0.00168514)
(-0.0449405 2.05917e-19 0.0083804)
(-0.0431334 3.14208e-21 0.0166213)
(-0.0529767 3.99268e-18 0.0247308)
(-0.0591792 -9.20081e-22 0.0250645)
(-0.0820213 0 0.0239813)
(-0.0730939 0 0.0111379)
(-0.0360185 -5.04795e-18 -0.00476214)
(0.059427 -3.51106e-21 -0.0303751)
(0.227499 0 -0.0626563)
(0.399373 0 -0.0908397)
(0.613813 1.83793e-20 -0.123974)
(0.662978 1.76876e-20 -0.122449)
(0.62661 1.19969e-22 -0.110373)
(0.28452 0 -0.0368523)
(-0.217804 0 0.0626422)
(-0.846937 6.46714e-18 0.188719)
(-1.4427 9.06921e-18 0.300369)
(-1.54181 0 0.281995)
(-0.932807 0 0.108744)
(0.460459 0 -0.201561)
(1.80001 0 -0.399757)
(1.42043 0 -0.192799)
(-0.0718474 0 0.200091)
(-2.0838 0 0.582029)
(-1.9654 0 0.408906)
(-0.0392381 1.64392e-16 -0.0907962)
(1.13509 2.48028e-17 -0.28059)
(-0.107944 -2.03276e-17 0.0607646)
(-2.79528 2.79239e-17 0.613833)
(-5.06414 -1.60903e-17 1.0549)
(-3.44454 1.36458e-17 0.473008)
(-0.99423 1.96049e-17 -0.00249387)
(-1.03661 0 0.138812)
(-4.74472 0 1.05172)
(-8.60514 0 1.85133)
(-11.4287 0 2.32598)
(-11.6183 1.53576e-17 2.28266)
(-10.9092 0 2.09645)
(-9.5077 0 1.81873)
(-9.52925 -4.93899e-17 1.83322)
(-9.64686 0 1.86705)
(-11.4674 2.93845e-17 2.22835)
(-13.1992 2.86892e-17 2.59168)
(-15.8174 0 3.06966)
(-14.7094 0 2.76441)
(-10.4509 0 1.82427)
(-2.19576 1.07722e-16 0.183695)
(4.68923 0 -1.0763)
(9.65122 1.16286e-16 -1.89871)
(7.71945 -7.77245e-20 -1.38587)
(1.98506 4.24453e-16 -0.300046)
(-9.55935 1.04229e-15 2.14285)
(-21.1605 0 4.35965)
(-31.6241 -3.74587e-16 6.31166)
(-37.8475 -1.03033e-16 7.35968)
(-39.9634 1.42115e-16 7.68181)
(-36.7153 0 7.01889)
(-32.4476 1.15219e-16 6.08872)
(-24.6196 0 4.58947)
(2.35222 0 0.761382)
(2.36681 0 0.687418)
(2.26409 4.74325e-20 0.602443)
(2.04224 0 0.407473)
(1.70254 -5.03722e-20 0.209488)
(1.34759 3.10805e-20 0.080024)
(1.05015 0 0.0108971)
(0.823008 7.82003e-20 -0.0198119)
(0.651971 -1.24661e-19 -0.0305053)
(0.517262 -1.15231e-19 -0.0346178)
(0.403922 -1.05292e-19 -0.0386627)
(0.304069 7.10312e-20 -0.0432114)
(0.214428 -3.90541e-20 -0.0463453)
(0.134091 2.92784e-20 -0.0463282)
(0.0639876 0 -0.0425823)
(0.00674228 -4.2479e-21 -0.0355733)
(-0.0343304 0 -0.0263951)
(-0.0569848 0 -0.0165231)
(-0.0615312 0 -0.00767152)
(-0.051251 -1.08249e-19 -0.00148892)
(-0.0316737 8.61658e-21 0.000947815)
(-0.00921478 7.21982e-21 -0.000429347)
(0.0102935 -9.80813e-20 -0.00470588)
(0.0230044 0 -0.0105605)
(0.0283288 0 -0.0169601)
(0.0295548 0 -0.0234228)
(0.0330648 -1.36978e-19 -0.0297837)
(0.0459804 -1.21951e-20 -0.0358178)
(0.0732565 0 -0.0411263)
(0.115571 0 -0.0453154)
(0.169025 0 -0.048341)
(0.226375 0 -0.0506306)
(0.279354 -1.67611e-19 -0.0529807)
(0.320842 0 -0.0561054)
(0.346962 2.76893e-20 -0.0603745)
(0.357894 0 -0.0655367)
(0.358436 0 -0.0710084)
(0.356406 1.33038e-19 -0.0759095)
(0.361177 0 -0.0796473)
(0.379748 0 -0.081783)
(0.415153 -4.82793e-19 -0.0825905)
(0.463313 9.78632e-19 -0.0825005)
(0.515307 0 -0.0825296)
(0.557909 4.73221e-19 -0.0833382)
(0.580207 0 -0.0856156)
(0.575315 5.13706e-19 -0.0891499)
(0.545558 4.18797e-21 -0.0933251)
(0.5001 0 -0.0969281)
(0.453276 0 -0.0985255)
(0.419312 1.85475e-19 -0.097518)
(0.405087 9.72875e-19 -0.0930642)
(0.4115 -2.48359e-18 -0.0866408)
(0.424534 0 -0.0778416)
(0.432825 -4.69183e-19 -0.0696272)
(0.41388 2.86546e-19 -0.0602287)
(0.36779 9.2405e-19 -0.0528885)
(0.286688 1.19289e-18 -0.0437011)
(0.195342 0 -0.0359917)
(0.100243 0 -0.0252208)
(0.0290014 3.09252e-20 -0.0148134)
(-0.0182635 -9.5868e-19 -0.00256494)
(-0.0413452 -1.94215e-19 0.0095306)
(-0.0465082 3.92475e-22 0.0184684)
(-0.0594205 -1.88346e-18 0.0268584)
(-0.0595326 -2.37798e-18 0.0246285)
(-0.0720226 0 0.021265)
(-0.0382379 0 0.00143383)
(0.0287722 4.75708e-18 -0.0210518)
(0.166201 1.69418e-17 -0.0577794)
(0.381775 0 -0.100624)
(0.591432 6.38234e-18 -0.137381)
(0.840928 -5.06958e-20 -0.176175)
(0.865613 -7.86345e-18 -0.163613)
(0.780163 -2.79694e-17 -0.134346)
(0.287347 0 -0.0177208)
(-0.389988 0 0.122893)
(-1.2311 -6.08572e-18 0.293804)
(-1.96676 -1.71074e-17 0.416203)
(-2.00908 -1.56188e-17 0.351245)
(-1.09941 0 0.0894303)
(0.747976 0 -0.316454)
(2.319 0 -0.508713)
(1.52549 0 -0.157003)
(-0.617918 0 0.379679)
(-3.19005 0 0.814702)
(-2.73719 9.38872e-17 0.491317)
(-0.154591 -1.18513e-19 -0.138025)
(1.18326 -2.29438e-17 -0.281363)
(-0.791108 0 0.277062)
(-4.43928 2.6289e-17 1.02626)
(-7.2015 6.94005e-18 1.43301)
(-4.75297 0 0.661741)
(-1.72769 1.83238e-17 0.102169)
(-2.20921 9.90559e-18 0.440271)
(-7.46899 0 1.89174)
(-12.7055 0 2.74616)
(-16.4063 0 3.31783)
(-16.4766 1.44457e-17 3.18795)
(-15.4754 0 2.91938)
(-13.594 0 2.56727)
(-13.7696 -4.63162e-17 2.64053)
(-13.9953 7.13009e-17 2.72528)
(-16.6024 0 3.25958)
(-18.872 0 3.73609)
(-22.0693 0 4.28102)
(-19.9254 0 3.67568)
(-13.7997 0 2.27611)
(-2.72672 -7.57207e-20 0.0666892)
(5.73964 0 -1.44271)
(11.1618 -1.08816e-16 -2.22323)
(7.15922 2.63588e-16 -1.20256)
(-1.78443 0 0.758149)
(-17.749 -1.20641e-19 4.00469)
(-33.3205 0 6.95322)
(-46.9809 2.13048e-19 9.45347)
(-54.3455 0 10.6111)
(-56.8372 -1.32872e-16 10.8928)
(-51.8317 0 9.81511)
(-46.0445 1.07539e-16 8.52919)
(-35.3708 0 6.55961)
(2.22373 0 0.827461)
(2.24368 0 0.747267)
(2.2277 0 0.66417)
(2.14772 0 0.509786)
(1.95518 4.75473e-20 0.339861)
(1.7052 1.27937e-20 0.209296)
(1.45965 0 0.119708)
(1.24337 -7.38116e-20 0.062078)
(1.05695 0 0.0275997)
(0.892422 2.04595e-19 0.00479823)
(0.742425 0 -0.0145734)
(0.603858 -6.70589e-20 -0.0320137)
(0.476817 0 -0.0452608)
(0.36257 -2.76439e-20 -0.0521091)
(0.26284 2.86535e-21 -0.0521542)
(0.179992 1.16026e-21 -0.0466358)
(0.116689 1.38337e-20 -0.0375713)
(0.0745981 3.96041e-20 -0.0272094)
(0.053059 0 -0.0178521)
(0.0486274 1.02217e-19 -0.0115792)
(0.0557374 1.13022e-19 -0.00970781)
(0.0680707 2.07948e-19 -0.0122981)
(0.080011 9.26151e-20 -0.018217)
(0.0878612 0 -0.0259048)
(0.0909013 0 -0.034272)
(0.0920668 0 -0.0429497)
(0.0974885 6.98043e-20 -0.0518361)
(0.114288 7.99981e-20 -0.0605153)
(0.147441 0 -0.0681789)
(0.197309 0 -0.0740448)
(0.259326 -1.32529e-19 -0.0779739)
(0.325508 0 -0.0806376)
(0.387144 -6.36836e-21 -0.0832666)
(0.437012 1.00473e-19 -0.086902)
(0.471417 -3.64566e-20 -0.0920054)
(0.490681 0 -0.0981287)
(0.499711 0 -0.104416)
(0.506136 -1.25564e-19 -0.10971)
(0.51915 0 -0.113367)
(0.545295 0 -0.115015)
(0.587379 4.55594e-19 -0.115244)
(0.640858 -9.23441e-19 -0.114749)
(0.696844 0 -0.11488)
(0.741864 -4.46476e-19 -0.116329)
(0.765386 0 -0.11972)
(0.760387 -2.45959e-19 -0.124417)
(0.72956 -4.11734e-19 -0.129359)
(0.681699 0 -0.132868)
(0.631109 -1.43992e-19 -0.133226)
(0.591573 -1.74913e-19 -0.130017)
(0.569648 -1.83442e-18 -0.122513)
(0.566393 1.17043e-18 -0.112996)
(0.567162 -9.91633e-19 -0.100897)
(0.561846 3.49658e-21 -0.0900592)
(0.526585 0 -0.0777004)
(0.46426 -8.70954e-19 -0.0680706)
(0.364584 -1.12424e-18 -0.055679)
(0.256904 9.52513e-19 -0.0454268)
(0.14418 -4.98621e-19 -0.0312024)
(0.0597867 -2.9136e-20 -0.0184259)
(-0.000118764 4.55191e-19 -0.0037902)
(-0.0299919 -1.92171e-19 0.00933435)
(-0.0384861 -7.55109e-19 0.0179211)
(-0.0487666 0 0.0250759)
(-0.0381848 0 0.0184096)
(-0.0349076 -1.61778e-18 0.0107589)
(0.0267488 0 -0.0181714)
(0.124248 0 -0.0481937)
(0.300942 -7.96953e-18 -0.0964782)
(0.554111 0 -0.147587)
(0.789276 -6.00481e-18 -0.189387)
(1.05253 9.13232e-20 -0.226947)
(1.03472 0 -0.195366)
(0.88289 1.31428e-17 -0.140872)
(0.235077 0 0.0253494)
(-0.599871 0 0.205869)
(-1.62384 5.58777e-18 0.412284)
(-2.44352 8.0591e-18 0.526601)
(-2.40142 2.98242e-20 0.394632)
(-1.20433 0 0.0338524)
(0.996495 0 -0.451693)
(2.65718 0 -0.581072)
(1.40097 -2.71664e-18 -0.0428496)
(-1.32635 -1.51895e-17 0.629156)
(-4.3094 0 1.06581)
(-3.46925 -1.76179e-16 0.544214)
(-0.402923 -7.23019e-17 -0.192765)
(0.926626 4.28638e-17 -0.215013)
(-1.8284 -1.83812e-17 0.60154)
(-6.29929 -4.93737e-17 1.51061)
(-9.36948 0 1.78784)
(-6.14273 0 0.82839)
(-2.82787 -1.71815e-17 0.26844)
(-3.90823 -9.28664e-18 0.889736)
(-10.6972 3.18404e-18 2.74595)
(-17.0925 0 3.75204)
(-21.492 0 4.34982)
(-21.3486 -1.35347e-17 4.09159)
(-20.08 -2.62699e-17 3.73786)
(-17.7915 0 3.33271)
(-18.2016 4.33762e-17 3.48948)
(-18.59 -6.67654e-17 3.64645)
(-21.9871 0 4.36106)
(-24.6449 0 4.91592)
(-28.141 0 5.44521)
(-24.7329 0 4.45551)
(-16.8322 0 2.58827)
(-3.40139 -9.42704e-17 -0.0912246)
(5.96581 0 -1.67554)
(11.0325 0 -2.20612)
(4.50255 0 -0.46583)
(-7.9017 -3.72431e-16 2.48628)
(-27.9953 -4.55695e-16 6.41587)
(-46.984 0 9.94753)
(-63.3355 3.27299e-16 12.8487)
(-71.2438 0 13.9479)
(-73.9805 -1.24483e-16 14.1228)
(-67.0592 0 12.5725)
(-60.0123 -1.00499e-16 10.9701)
(-46.6989 0 8.6027)
(2.11924 -8.46451e-20 0.862085)
(2.13967 -9.62805e-20 0.772565)
(2.15365 9.70655e-20 0.686809)
(2.13446 9.00451e-20 0.564007)
(2.0287 0 0.430716)
(1.87033 -3.03554e-20 0.317871)
(1.70043 0 0.22644)
(1.53749 -2.38113e-20 0.155973)
(1.3836 -6.01079e-20 0.105297)
(1.23423 -1.66458e-19 0.0663208)
(1.08495 7.35428e-20 0.0312023)
(0.935402 -5.81143e-20 -0.00144407)
(0.789157 0 -0.0283947)
(0.65131 0 -0.0462204)
(0.526571 -2.70165e-21 -0.0540073)
(0.418894 -1.12628e-21 -0.0534417)
(0.331567 -2.44398e-21 -0.0474155)
(0.266556 -7.5054e-21 -0.0389556)
(0.223529 0 -0.0309215)
(0.199457 0 -0.0257874)
(0.18918 0 -0.0251407)
(0.18675 -1.75881e-19 -0.0291671)
(0.186977 -7.43053e-20 -0.0366978)
(0.186517 0 -0.0460779)
(0.184559 0 -0.0562483)
(0.183359 -9.22797e-20 -0.0670365)
(0.188265 0 -0.078498)
(0.206117 0 -0.0900634)
(0.242135 0 -0.100436)
(0.296843 0 -0.108283)
(0.365346 -1.28597e-20 -0.113246)
(0.438943 0 -0.116226)
(0.50833 -7.53624e-21 -0.118974)
(0.566012 -9.47105e-20 -0.122967)
(0.608401 -7.41563e-21 -0.128829)
(0.635923 0 -0.13592)
(0.65357 0 -0.143085)
(0.668721 0 -0.148832)
(0.690346 0 -0.152426)
(0.724457 0 -0.153512)
(0.773634 0 -0.152991)
(0.832829 0 -0.151823)
(0.893215 6.72961e-19 -0.151741)
(0.941008 3.84604e-19 -0.153499)
(0.966059 0 -0.15771)
(0.961092 -2.48939e-19 -0.163317)
(0.929155 0 -0.168788)
(0.87855 0 -0.171927)
(0.823574 2.70057e-19 -0.170666)
(0.777474 0 -0.16475)
(0.746544 8.63612e-19 -0.153527)
(0.731979 0 -0.140162)
(0.718609 1.86198e-18 -0.12393)
(0.6977 4.20145e-21 -0.109728)
(0.644149 0 -0.0937444)
(0.563943 0 -0.0814577)
(0.444351 0 -0.0656583)
(0.31987 -1.78157e-18 -0.0530375)
(0.189493 9.26804e-19 -0.0356397)
(0.0933457 -7.4617e-21 -0.0211275)
(0.0225009 -4.52269e-19 -0.00478418)
(-0.0105836 3.6982e-19 0.00831468)
(-0.0189845 -7.06134e-19 0.0153747)
(-0.0213136 0 0.0197427)
(0.00412198 0 0.00695858)
(0.0279463 -2.65484e-21 -0.00659797)
(0.119535 0 -0.0460151)
(0.247117 0 -0.0838809)
(0.45881 -7.46318e-18 -0.143284)
(0.738737 0 -0.199932)
(0.986031 0 -0.242931)
(1.2424 -6.90678e-20 -0.272807)
(1.16616 6.88498e-18 -0.215608)
(0.934595 0 -0.129777)
(0.133904 0 0.0890201)
(-0.836614 0 0.30558)
(-2.00988 -5.24778e-18 0.53906)
(-2.8631 0 0.627649)
(-2.72318 2.74688e-17 0.412998)
(-1.27098 -1.60343e-17 -0.0491927)
(1.16947 0 -0.58707)
(2.7931 0 -0.605696)
(1.05289 2.54925e-18 0.143579)
(-2.171 4.68207e-20 0.934503)
(-5.43008 -3.34168e-17 1.32414)
(-4.19818 8.25862e-17 0.575757)
(-0.835709 -6.74797e-17 -0.226691)
(0.337163 -2.00047e-17 -0.0701057)
(-3.21025 1.72341e-17 1.02222)
(-8.33949 -4.88988e-20 2.04878)
(-11.5582 0 2.18749)
(-7.67612 1.12995e-17 0.989316)
(-4.34837 0 0.512947)
(-6.15371 0 1.4799)
(-14.3994 -2.98286e-18 3.54856)
(-21.6942 0 4.84476)
(-26.6277 0 5.40578)
(-26.1901 0 4.98069)
(-24.6875 2.45969e-17 4.54232)
(-22.0622 0 4.10673)
(-22.7671 4.05727e-17 4.36944)
(-23.3602 0 4.61769)
(-27.5157 0 5.51053)
(-30.3987 0 6.10463)
(-33.9436 0 6.54289)
(-29.1475 0 5.11077)
(-19.6647 -1.44479e-16 2.79364)
(-4.4182 -8.8144e-17 -0.238978)
(5.21536 3.33258e-17 -1.69032)
(9.19263 0 -1.82237)
(-0.189852 0 0.601531)
(-16.1769 6.96137e-16 4.26785)
(-39.8735 0 9.2268)
(-61.702 -1.86085e-16 13.2182)
(-80.3111 0 16.3995)
(-88.2904 -8.41408e-17 17.3165)
(-91.2744 1.16327e-16 17.3516)
(-82.3732 0 15.2989)
(-74.3752 -9.38849e-17 13.4228)
(-58.5995 0 10.7163)
(2.02851 7.97124e-20 0.869876)
(2.05434 1.95183e-19 0.783836)
(2.07589 -9.14306e-20 0.697024)
(2.07359 1.13216e-20 0.594984)
(2.00698 7.91962e-20 0.4916)
(1.90507 0 0.398158)
(1.79419 0 0.313179)
(1.68499 2.24226e-20 0.24075)
(1.57795 9.33868e-20 0.183495)
(1.4684 1.41209e-20 0.135395)
(1.35046 -6.92448e-20 0.0897447)
(1.22159 5.47176e-20 0.0453108)
(1.08453 -3.61656e-20 0.00575271)
(0.945756 0 -0.0242001)
(0.812489 0 -0.0423154)
(0.690985 1.14961e-21 -0.0498526)
(0.58619 -1.67826e-20 -0.0500345)
(0.501338 -4.75454e-20 -0.046381)
(0.437287 0 -0.0421386)
(0.39225 0 -0.0400623)
(0.362225 0 -0.0419679)
(0.342162 1.24547e-20 -0.0482517)
(0.327585 1.31849e-19 -0.0578878)
(0.315781 -5.58754e-20 -0.0692584)
(0.306129 -1.01537e-19 -0.0813579)
(0.300169 1.85823e-19 -0.0942253)
(0.30196 -1.06065e-19 -0.108202)
(0.317572 -1.20667e-19 -0.122751)
(0.352593 -1.36787e-19 -0.136153)
(0.408395 0 -0.146397)
(0.48042 1.29742e-19 -0.152701)
(0.559444 -1.25456e-19 -0.156089)
(0.635367 8.50316e-20 -0.158879)
(0.700131 1.11696e-19 -0.163089)
(0.750093 8.7152e-20 -0.169598)
(0.785724 0 -0.177605)
(0.812117 0 -0.18564)
(0.836361 1.06174e-19 -0.191842)
(0.867173 0 -0.19536)
(0.909951 -3.07953e-19 -0.195832)
(0.967044 -3.74002e-19 -0.194463)
(1.03283 0 -0.19247)
(1.09857 -1.23906e-18 -0.191982)
(1.15008 -3.61936e-19 -0.193831)
(1.17759 0 -0.198636)
(1.17344 2.34242e-19 -0.204918)
(1.14105 3.76123e-19 -0.210659)
(1.08811 0 -0.213125)
(1.02891 -2.51222e-19 -0.209854)
(0.97605 -1.57214e-19 -0.200767)
(0.935544 -8.08994e-19 -0.185246)
(0.90872 0 -0.167441)
(0.879885 -7.11759e-21 -0.146412)
(0.841915 7.641e-19 -0.128309)
(0.768439 0 -0.108183)
(0.669026 0 -0.0930118)
(0.528267 9.69584e-19 -0.0736649)
(0.386556 8.32122e-19 -0.0589178)
(0.238295 -8.45863e-19 -0.0386718)
(0.131491 7.01411e-21 -0.0231337)
(0.050943 4.25107e-19 -0.00587437)
(0.0176406 -1.77652e-19 0.00605565)
(0.0121377 1.32286e-18 0.0102976)
(0.0222794 0 0.0103774)
(0.0659457 0 -0.0101449)
(0.114115 2.86734e-18 -0.0309172)
(0.236662 0 -0.0818949)
(0.392948 0 -0.127433)
(0.634219 7.00954e-18 -0.196996)
(0.929733 0 -0.256021)
(1.17556 -5.29787e-18 -0.295882)
(1.40621 2.10584e-20 -0.311685)
(1.25856 -6.46368e-18 -0.222457)
(0.938807 0 -0.100147)
(-0.00646879 0 0.172946)
(-1.08669 0 0.420459)
(-2.37414 -4.81144e-18 0.670522)
(-3.21875 0 0.716266)
(-2.98284 -1.28677e-17 0.406123)
(-1.32593 3.00466e-17 -0.154076)
(1.23283 0 -0.713635)
(2.71499 0 -0.575398)
(0.497886 0 0.40361)
(-3.12218 5.33277e-20 1.28999)
(-6.54736 3.13273e-17 1.58461)
(-4.96596 7.70884e-17 0.591328)
(-1.4993 6.32447e-17 -0.229181)
(-0.597992 -1.82789e-17 0.163818)
(-4.90893 0 1.54549)
(-10.5229 2.17502e-17 2.64378)
(-13.7913 0 2.58187)
(-9.41043 -1.05838e-17 1.15896)
(-6.32208 0 0.85175)
(-8.91658 0 2.20615)
(-18.4382 0 4.70281)
(-26.452 5.7508e-18 6.00125)
(-31.7469 1.35448e-17 6.46234)
(-30.9504 0 5.83964)
(-29.249 -2.2987e-17 5.32158)
(-26.3474 3.90828e-17 4.87881)
(-27.3799 -3.79628e-17 5.26579)
(-28.2027 5.83845e-17 5.62027)
(-33.0521 0 6.67935)
(-36.0064 0 7.27025)
(-39.4056 0 7.54951)
(-33.2144 0 5.6411)
(-22.4156 1.351e-16 2.91363)
(-5.9343 -8.38272e-20 -0.338408)
(3.40387 -6.25123e-17 -1.55669)
(5.69982 0 -1.06465)
(-6.56291 0 2.28451)
(-25.9954 -3.25213e-16 6.86118)
(-52.873 0 12.3689)
(-76.9592 1.73897e-16 16.6748)
(-97.5057 0 20.0318)
(-105.238 1.57316e-16 20.6641)
(-108.619 0 20.5528)
(-97.7661 0 17.982)
(-89.161 8.77033e-17 15.8869)
(-71.0565 0 12.8942)
(1.94965 0 0.853136)
(1.97723 -9.83099e-20 0.776625)
(2.00287 0 0.698169)
(2.00593 -9.04508e-20 0.614434)
(1.95585 -1.57201e-19 0.532471)
(1.88204 0 0.454084)
(1.80422 3.57593e-20 0.377901)
(1.72961 0 0.309063)
(1.65857 -1.77097e-20 0.250876)
(1.58687 9.55527e-20 0.198959)
(1.50743 0 0.148273)
(1.41429 0 0.0977511)
(1.30652 3.40159e-20 0.0503654)
(1.18846 0 0.0110452)
(1.06702 0 -0.0167867)
(0.949181 0 -0.0333822)
(0.840971 6.39802e-21 -0.0416241)
(0.746829 1.82957e-20 -0.0450083)
(0.668998 2.0842e-20 -0.0468164)
(0.607376 0 -0.0498503)
(0.559795 0 -0.0559826)
(0.522771 6.11865e-20 -0.0657587)
(0.492923 -5.82012e-20 -0.0783965)
(0.468404 5.25524e-20 -0.0924515)
(0.449238 9.54983e-20 -0.106963)
(0.436689 -1.98502e-19 -0.122084)
(0.433348 -1.79538e-20 -0.138505)
(0.443809 1.13487e-19 -0.156027)
(0.473726 1.28646e-19 -0.172782)
(0.525967 0 -0.186042)
(0.597378 0 -0.194316)
(0.678841 1.17983e-19 -0.198499)
(0.759435 0 -0.201433)
(0.830155 -1.05037e-19 -0.205795)
(0.887008 -4.49675e-20 -0.212858)
(0.930387 2.27462e-20 -0.221717)
(0.965514 0 -0.2306)
(0.999173 -9.98327e-20 -0.237246)
(1.03984 -1.87089e-19 -0.240684)
(1.09221 1.14962e-20 -0.240516)
(1.1584 6.88461e-19 -0.238258)
(1.23213 0 -0.235359)
(1.30478 5.69443e-19 -0.234357)
(1.36163 0 -0.236143)
(1.3933 0 -0.24136)
(1.39162 0 -0.248106)
(1.36037 3.76076e-21 -0.253875)
(1.30652 0 -0.255403)
(1.24432 1.17242e-19 -0.249784)
(1.18566 2.96342e-19 -0.237166)
(1.1361 7.60223e-19 -0.216884)
(1.09714 0 -0.194215)
(1.05242 -8.13638e-19 -0.167879)
(0.996789 -7.06723e-19 -0.145526)
(0.902357 0 -0.120876)
(0.78296 0 -0.102747)
(0.619967 -9.1078e-19 -0.0798)
(0.460674 -7.50846e-19 -0.0632807)
(0.293962 3.90452e-19 -0.0405794)
(0.177134 -5.82084e-20 -0.0248074)
(0.0873394 0 -0.00749581)
(0.0558816 0 0.00210183)
(0.0550445 -5.85276e-21 0.00220485)
(0.0809416 1.46737e-18 -0.00336651)
(0.145103 0 -0.0331252)
(0.220112 -1.34747e-18 -0.0620574)
(0.373648 0 -0.125324)
(0.556362 0 -0.177845)
(0.821245 0 -0.256076)
(1.12149 0 -0.313926)
(1.35299 -6.14565e-21 -0.345959)
(1.54191 2.88304e-20 -0.341669)
(1.31324 5.95226e-18 -0.214629)
(0.902081 0 -0.0522457)
(-0.174526 1.13614e-17 0.275009)
(-1.33599 0 0.546834)
(-2.70303 4.51169e-18 0.802175)
(-3.50648 6.72133e-18 0.790312)
(-3.19045 -1.19818e-17 0.376606)
(-1.39416 -1.40664e-17 -0.271753)
(1.16113 0 -0.820162)
(2.42161 9.39079e-18 -0.485734)
(-0.241308 0 0.732326)
(-4.15196 1.24293e-17 1.68537)
(-7.66389 2.92329e-17 1.84472)
(-5.81306 -7.22166e-17 0.604215)
(-2.42696 0 -0.185444)
(-1.87715 3.3953e-17 0.490657)
(-6.88902 0 2.15997)
(-12.818 2.04393e-17 3.27746)
(-16.0822 0 2.99942)
(-11.3921 -9.73455e-18 1.36078)
(-8.76168 0 1.29658)
(-12.1519 -6.90444e-18 3.11472)
(-22.7931 2.0743e-18 5.88638)
(-31.2758 -5.3816e-18 7.20494)
(-36.7725 -1.26739e-17 7.50318)
(-35.5696 0 6.65551)
(-33.6993 4.29542e-17 6.06285)
(-30.5652 -7.31163e-17 5.63405)
(-31.9215 0 6.15775)
(-32.9801 -5.46034e-17 6.62964)
(-38.4311 0 7.83507)
(-41.3353 0 8.38415)
(-44.467 -1.06126e-16 8.45009)
(-36.9916 0 6.05742)
(-25.1803 0 2.97277)
(-8.04163 7.71141e-17 -0.361454)
(0.589629 5.89042e-17 -1.25196)
(0.790488 -8.22665e-17 0.0175925)
(-14.2069 0 4.39831)
(-36.8989 0 9.57229)
(-66.3768 0 15.7137)
(-92.1961 0 20.2085)
(-114.502 -2.66143e-16 23.6634)
(-121.833 -7.35185e-17 23.9457)
(-125.914 0 23.7096)
(-113.228 0 20.6227)
(-104.389 0 18.3647)
(-84.0346 0 15.1261)
(1.8834 7.52125e-20 0.82144)
(1.90956 0 0.756346)
(1.94001 9.1236e-20 0.693513)
(1.94658 0 0.626564)
(1.90443 7.77201e-20 0.559438)
(1.84318 0 0.492459)
(1.78028 -3.36091e-20 0.425448)
(1.72262 3.72324e-20 0.362331)
(1.67165 -1.75663e-20 0.305399)
(1.62433 -1.02905e-20 0.252192)
(1.57393 0 0.199636)
(1.51312 0 0.147211)
(1.43794 0 0.0967485)
(1.34943 0 0.0522712)
(1.2522 0 0.0175896)
(1.15204 0 -0.00664388)
(1.05458 -1.31743e-22 -0.0226839)
(0.964394 3.47193e-22 -0.0336178)
(0.884347 -1.95835e-20 -0.0424379)
(0.81548 0 -0.0517877)
(0.757362 0 -0.0634139)
(0.708391 -3.23596e-20 -0.0778106)
(0.666573 -3.80932e-20 -0.0943676)
(0.630954 -4.30145e-20 -0.111915)
(0.602441 0 -0.12957)
(0.58279 9.90816e-20 -0.147395)
(0.573616 2.38879e-19 -0.166286)
(0.577453 -1.46079e-19 -0.18665)
(0.599094 0 -0.206984)
(0.642975 0 -0.224037)
(0.708577 0 -0.235308)
(0.788174 -1.34098e-19 -0.241104)
(0.870503 0 -0.244591)
(0.945338 0 -0.249187)
(1.00792 -6.09104e-20 -0.25676)
(1.05829 -2.1368e-20 -0.266421)
(1.10179 0 -0.276147)
(1.14492 -8.85004e-20 -0.283255)
(1.19597 3.43475e-19 -0.286648)
(1.25886 2.61167e-19 -0.285872)
(1.33551 -3.16378e-19 -0.282759)
(1.4189 0 -0.278955)
(1.50054 0 -0.277409)
(1.56507 0 -0.279046)
(1.60348 1.94403e-20 -0.284549)
(1.60693 0 -0.291597)
(1.57954 -3.35509e-19 -0.297206)
(1.5275 -2.89203e-19 -0.297607)
(1.46493 0 -0.289404)
(1.40292 -1.3952e-19 -0.273038)
(1.34633 0 -0.247688)
(1.29693 0 -0.219924)