/*--------------------------------*- C++ -*----------------------------------*\
| =========                 |                                                 |
| \\      /  F ield         | OpenFOAM: The Open Source CFD Toolbox           |
|  \\    /   O peration     | Version:  2412                                  |
|   \\  /    A nd           | Website:  www.openfoam.com                      |
|    \\/     M anipulation  |                                                 |
\*---------------------------------------------------------------------------*/
FoamFile
{
    version     2.0;
    format      ascii;
    arch        "LSB;label=32;scalar=64";
    class       volScalarField;
    location    "1.05";
    object      Co;
}
// * * * * * * * * * * * * * * * * * * * * * * * * * * * * * * * * * * * * * //

dimensions      [0 0 0 0 0 0 0];

internalField   nonuniform List<scalar> 
12600
(
0.372303
0.152621
0.0600512
0.02646
0.0142004
0.00874878
0.00565867
0.00366357
0.00230081
0.00134398
0.000663219
0.000360429
0.000452899
0.000638221
0.000755837
0.000835994
0.000879665
0.000899116
0.000899068
0.000884374
0.000858799
0.000824544
0.00078934
0.00075063
0.000709617
0.000668488
0.000627599
0.000585101
0.000542949
0.000501661
0.000462324
0.000425077
0.000389975
0.000357158
0.000326647
0.000298396
0.000272314
0.00024831
0.000226249
0.000206034
0.000187531
0.000170624
0.000155148
0.000140946
0.000127905
0.000115943
0.000105034
9.51956e-05
8.64289e-05
7.87538e-05
7.21647e-05
6.66049e-05
6.19723e-05
5.80814e-05
5.4669e-05
5.13783e-05
4.77335e-05
4.31813e-05
3.71231e-05
2.90251e-05
1.85008e-05
1.55377e-05
2.72807e-05
4.48514e-05
6.13312e-05
7.54138e-05
8.58053e-05
9.19639e-05
9.33263e-05
9.04978e-05
8.56892e-05
7.88191e-05
6.85644e-05
5.43698e-05
3.58226e-05
2.62913e-05
3.93025e-05
5.68707e-05
6.21075e-05
5.85979e-05
5.24411e-05
4.32951e-05
3.16007e-05
1.67214e-05
4.9978e-06
2.35005e-06
1.55499e-06
2.0093e-06
1.32463e-05
3.59017e-05
0.000119151
0.000141191
0.000249529
0.000345181
0.000329817
0.000309208
0.000272265
0.000141904
9.67899e-05
3.56034e-05
1.61451e-05
1.28808e-05
2.72879e-05
2.85008e-05
3.21736e-05
4.2509e-05
5.3937e-05
5.03483e-05
7.7037e-05
0.000154764
0.000227648
0.000254143
0.00023855
0.000222255
0.000200174
0.000165902
0.00012647
8.41942e-05
7.35539e-05
6.2333e-05
0.599078
0.385779
0.223922
0.12795
0.0766936
0.0490055
0.0328321
0.0225344
0.015558
0.0106436
0.00709905
0.00450093
0.00258499
0.00116957
0.000948845
0.00147269
0.00183598
0.00207962
0.00222673
0.00230083
0.00231965
0.00229244
0.00223941
0.00216248
0.0020824
0.00199755
0.00190349
0.00179677
0.0016866
0.00157479
0.00146447
0.00135702
0.00125346
0.00115483
0.00106162
0.00097407
0.000892274
0.000816321
0.000746009
0.000681158
0.000621412
0.000566497
0.00051601
0.0004695
0.000426669
0.000387251
0.000351112
0.000318312
0.000288855
0.000262836
0.000240295
0.000221109
0.000205031
0.000191563
0.000179941
0.000169137
0.000157742
0.000144059
0.000126179
0.000102273
7.09036e-05
6.43636e-05
0.00010454
0.000161612
0.000213846
0.000257041
0.000287387
0.000303554
0.000304095
0.000291453
0.000276352
0.000258884
0.000231405
0.00019263
0.00014062
0.000107041
0.000140651
0.000190677
0.000196085
0.000180384
0.000164604
0.000137944
0.000105414
5.80247e-05
2.12819e-05
1.552e-05
1.25194e-05
1.31496e-05
5.69783e-05
0.000138457
0.0004481
0.000465326
0.000864056
0.00117429
0.00104849
0.000995084
0.000975058
0.000530951
0.000400131
0.00014899
4.75262e-05
3.90006e-05
0.000111574
0.000104966
0.000109763
0.000144671
0.0001664
0.000166873
0.000333094
0.000628127
0.000813205
0.000827049
0.000734338
0.000683368
0.000613099
0.000516989
0.000397617
0.00028628
0.000279595
0.000212988
0.666295
0.536046
0.384572
0.259882
0.173007
0.116812
0.0808086
0.0570755
0.040803
0.0292577
0.0208539
0.0146253
0.00995628
0.00640343
0.00380941
0.00201304
0.00176941
0.00240406
0.00283962
0.00312127
0.00328402
0.00334945
0.0033441
0.0032815
0.00319137
0.00308557
0.00299468
0.00287194
0.00273165
0.00257955
0.00242212
0.00226293
0.00210499
0.00195119
0.00180316
0.00166192
0.00152823
0.00140283
0.00128577
0.00117705
0.00107624
0.000983095
0.000897124
0.000817618
0.000744144
0.000676232
0.000613582
0.000556314
0.000504429
0.000458156
0.000417695
0.000382982
0.000353816
0.000329595
0.000309284
0.000291437
0.000273968
0.000254194
0.000228914
0.000194749
0.000148714
0.000143707
0.000215541
0.000313145
0.00039953
0.000467712
0.000511868
0.000530662
0.000522387
0.000492586
0.000467005
0.00044799
0.000413754
0.000363415
0.000292511
0.000235272
0.000279862
0.000349212
0.000331535
0.000294796
0.000278233
0.000240161
0.000197383
0.000126276
5.57987e-05
3.69462e-05
3.18141e-05
3.06377e-05
0.000124934
0.000280094
0.000916337
0.000818187
0.00162568
0.0021737
0.00175888
0.00168005
0.0018611
0.0010468
0.000883726
0.000339855
7.24481e-05
6.43067e-05
0.000248639
0.000204942
0.000199201
0.00026182
0.000270883
0.00033327
0.000764463
0.00132357
0.00152638
0.00140935
0.00119671
0.00112072
0.001012
0.000877863
0.000683864
0.000528529
0.000588816
0.000410974
0.666157
0.604809
0.499181
0.38448
0.283958
0.205991
0.14927
0.108902
0.0800425
0.0590822
0.0435946
0.0319787
0.02317
0.0164127
0.0112934
0.00731331
0.00427201
0.00262191
0.00266859
0.0032914
0.00370874
0.00395874
0.00408071
0.0041017
0.00404996
0.00395065
0.00384337
0.00374703
0.00362606
0.00347497
0.00330205
0.00311589
0.0029228
0.0027287
0.00253723
0.00235081
0.0021714
0.0020009
0.00184006
0.00168938
0.00154864
0.00141781
0.00129649
0.00118379
0.00107919
0.000982032
0.000891841
0.000808824
0.000732992
0.000664747
0.000604563
0.000552568
0.000508779
0.000472706
0.000443264
0.000418836
0.000396876
0.000373843
0.000345212
0.000305802
0.000250579
0.000250544
0.000355522
0.000494234
0.00061327
0.000702892
0.000755695
0.000770924
0.000747183
0.000694138
0.000656265
0.000644012
0.000612419
0.000562325
0.000486179
0.000403991
0.000449353
0.000526911
0.000465685
0.000400421
0.000391732
0.000347941
0.000304939
0.000218611
0.000107336
6.63383e-05
5.93989e-05
5.23562e-05
0.000213587
0.000446709
0.0014974
0.00117994
0.0024844
0.00330865
0.00246039
0.00232423
0.00287508
0.00168338
0.00154566
0.000610276
7.87639e-05
8.54058e-05
0.000433345
0.000322096
0.000299204
0.000385953
0.000348803
0.00059945
0.00140103
0.00220092
0.00230639
0.00195036
0.00162713
0.00152733
0.00138797
0.00123662
0.000968199
0.000784905
0.000972349
0.000648125
0.642415
0.617392
0.557246
0.473523
0.383464
0.300375
0.230814
0.175823
0.133565
0.101396
0.0768827
0.0580989
0.0436169
0.0323692
0.0236604
0.0168449
0.0115364
0.00740003
0.0041998
0.00298969
0.0034811
0.0040281
0.00437289
0.00455669
0.00461831
0.00458908
0.00449179
0.00438825
0.0042916
0.00419172
0.00404828
0.00386981
0.00366895
0.00345612
0.00323811
0.00301957
0.00280435
0.0025962
0.0023971
0.00220848
0.00203062
0.00186403
0.00170862
0.00156345
0.00142801
0.00130152
0.00118332
0.00107376
0.000972879
0.000881315
0.000799928
0.000729163
0.000669428
0.000620535
0.000581566
0.000550962
0.000525925
0.000502195
0.000473933
0.000433926
0.000374666
0.000381628
0.000519672
0.000699442
0.000849339
0.000957023
0.00101389
0.00102031
0.00097565
0.000894555
0.000840625
0.000842731
0.000822398
0.000783531
0.000715557
0.000605625
0.00064091
0.000717291
0.000594941
0.000493942
0.000501856
0.000458136
0.000424952
0.000331342
0.000173504
0.00010317
9.49434e-05
7.54434e-05
0.000318539
0.000624752
0.00216446
0.00153772
0.00339389
0.00453165
0.00314588
0.00287568
0.00395782
0.00242525
0.00238058
0.000965041
6.9152e-05
0.000100412
0.00065988
0.000450769
0.000408282
0.000509098
0.000382584
0.000995826
0.0022475
0.00320944
0.00308817
0.00240473
0.00202027
0.00189645
0.00173495
0.00158496
0.00124118
0.00103535
0.00140567
0.000918965
0.615144
0.602312
0.571406
0.519538
0.452803
0.380593
0.311155
0.249473
0.197453
0.154974
0.120913
0.0938424
0.072401
0.0554129
0.0419887
0.0313461
0.0229264
0.0162706
0.0110289
0.00692545
0.00407217
0.0034497
0.00413182
0.00457436
0.00482969
0.00494121
0.00494063
0.00485706
0.00475387
0.00465985
0.00459543
0.00447284
0.00430137
0.00409922
0.00387793
0.00364552
0.00340866
0.00317379
0.00294474
0.00272447
0.00251417
0.00231521
0.00212817
0.00195223
0.00178704
0.0016318
0.0014857
0.00134928
0.00122268
0.00110682
0.00100306
0.000912285
0.000835473
0.00077293
0.000724109
0.000687721
0.000660903
0.000638784
0.000614222
0.000577801
0.000519191
0.000533534
0.00070282
0.000923103
0.00110203
0.00122487
0.00128209
0.00127565
0.00120589
0.00109322
0.0010172
0.0010405
0.001039
0.00102107
0.00097398
0.000848369
0.000861891
0.000914842
0.000717239
0.000572663
0.000606055
0.000568363
0.000554705
0.000461389
0.000252262
0.000146612
0.000138035
9.67522e-05
0.000434671
0.00080357
0.00288891
0.00188973
0.00431316
0.00578461
0.00381047
0.00328181
0.00504354
0.00324657
0.00337777
0.00141273
9.45818e-05
0.000108264
0.000921081
0.000586542
0.000524984
0.000623048
0.000396203
0.00150911
0.00326243
0.00428935
0.00380701
0.00273892
0.00237199
0.00222183
0.00204965
0.00191697
0.00149624
0.00126493
0.0018667
0.00121643
0.591272
0.579426
0.561542
0.531469
0.487941
0.434203
0.375659
0.317397
0.263082
0.214796
0.173312
0.138507
0.109767
0.0862644
0.0671949
0.051774
0.0393532
0.0293787
0.0213996
0.015049
0.0100197
0.00606953
0.00403456
0.00405713
0.00460255
0.00493512
0.00509932
0.00513526
0.00507243
0.00496758
0.00487514
0.00485768
0.00476603
0.00461435
0.00442126
0.00419989
0.00396098
0.00371467
0.00346755
0.0032248
0.00298905
0.00276302
0.00254832
0.00234455
0.00215172
0.00196915
0.00179597
0.001633
0.00148052
0.00133983
0.00121289
0.00110118
0.0010064
0.000929529
0.000870601
0.000828793
0.000801352
0.000782905
0.000765019
0.000735952
0.000682275
0.000702644
0.000899524
0.00115934
0.00136546
0.00150103
0.00155573
0.00153348
0.00143566
0.00128911
0.00118238
0.00123296
0.00125692
0.00126841
0.00125411
0.00114771
0.00112656
0.00111435
0.000831072
0.000633182
0.000701276
0.000675978
0.000691463
0.000605684
0.000341584
0.0001956
0.000188233
0.000112888
0.00055596
0.000977332
0.00363971
0.00224494
0.00520856
0.00699812
0.00444606
0.00373877
0.00606216
0.00410964
0.00451865
0.00201556
0.000224314
0.000109537
0.00120849
0.000726645
0.000647652
0.000719157
0.000479915
0.0021417
0.00441234
0.00537484
0.00440837
0.0029397
0.00268038
0.00250188
0.00233253
0.00223126
0.00173296
0.00146544
0.00233803
0.00153523
0.571274
0.557663
0.54327
0.523971
0.496456
0.460025
0.416458
0.368692
0.319789
0.272353
0.228276
0.188699
0.15411
0.124495
0.0995455
0.0787646
0.0616124
0.0475544
0.0361041
0.0268353
0.0193764
0.0134174
0.00869227
0.00500344
0.00383302
0.00448628
0.0048977
0.0051213
0.00519873
0.00516615
0.00505394
0.00500307
0.0049968
0.0049466
0.00482419
0.00464724
0.00443262
0.00419567
0.00394682
0.00369432
0.003443
0.00319748
0.00296097
0.00273381
0.00251666
0.0023092
0.0021106
0.00192209
0.00174421
0.00157866
0.00142819
0.00129498
0.00118159
0.0010899
0.0010207
0.000973818
0.000946767
0.000933785
0.000925176
0.000906803
0.000861939
0.000885179
0.00110414
0.00140216
0.00163375
0.00178016
0.00183038
0.00179052
0.00166293
0.00148142
0.00133271
0.00141577
0.00147067
0.00151857
0.00154782
0.00147507
0.00140824
0.00131136
0.00093611
0.000672191
0.000784707
0.000778671
0.000832705
0.000761098
0.000439223
0.000248764
0.000245
0.000120438
0.000675551
0.00114594
0.00438218
0.00261795
0.00605592
0.00809807
0.0050454
0.00435606
0.00694296
0.00496486
0.00577468
0.00275017
0.000416823
0.000106669
0.00151215
0.00087026
0.000774414
0.000788053
0.000653283
0.00289
0.00565542
0.00639952
0.00485597
0.00301568
0.00294733
0.00273774
0.00258618
0.00252881
0.00195403
0.00163397
0.00280583
0.00186962
0.553905
0.538955
0.524574
0.509041
0.48982
0.465125
0.434597
0.399015
0.35985
0.318864
0.277804
0.238191
0.20121
0.167643
0.137904
0.112075
0.0900036
0.0713905
0.0558628
0.0430302
0.0325124
0.0239627
0.0170686
0.0115576
0.00719608
0.00460546
0.00424437
0.00474178
0.00502961
0.0051566
0.00516194
0.00507559
0.00503191
0.00503043
0.00502993
0.00494287
0.00478777
0.00458797
0.00435931
0.00411435
0.00386096
0.00360645
0.00335627
0.00311203
0.00287541
0.00264673
0.00242541
0.00221324
0.00201112
0.00182133
0.00164747
0.00149257
0.00136026
0.00125347
0.00117393
0.0011223
0.00109651
0.00109053
0.00109342
0.00108867
0.00105611
0.00107724
0.0013109
0.00164555
0.00190105
0.00205705
0.00210172
0.0020436
0.00188566
0.00166912
0.00146443
0.0015844
0.00167459
0.00176422
0.00184623
0.00182139
0.00169956
0.00150217
0.00103302
0.000686159
0.000853455
0.000874237
0.000976024
0.000924497
0.00054292
0.000304522
0.000307809
0.000138562
0.000785813
0.00131399
0.00507673
0.00302033
0.00684047
0.00901518
0.00560081
0.00502398
0.00762225
0.00575298
0.00710549
0.00362031
0.000682064
0.000104229
0.00182067
0.00101863
0.000902971
0.000819581
0.000887966
0.00374463
0.00694315
0.00730369
0.00513928
0.00299681
0.00318146
0.00293464
0.00281475
0.00281341
0.00216614
0.0017727
0.00326028
0.00221465
0.538271
0.522764
0.507881
0.493168
0.477251
0.458739
0.436756
0.410992
0.381658
0.349386
0.3151
0.279869
0.244793
0.210891
0.179029
0.149842
0.123712
0.100786
0.0810128
0.0642066
0.0501001
0.0383913
0.0287711
0.0209432
0.0146369
0.00960755
0.00564227
0.00409519
0.00448571
0.00484578
0.00502927
0.00507662
0.00502343
0.00497677
0.00497327
0.00502733
0.00498018
0.00485487
0.00467581
0.00446153
0.00422424
0.00397493
0.00372219
0.00346952
0.00322016
0.00297547
0.00273536
0.00250244
0.00227815
0.00206543
0.00186891
0.00169263
0.00154142
0.00141949
0.00132966
0.00127361
0.00124982
0.00125209
0.00126836
0.00127973
0.00126259
0.00127485
0.00151405
0.0018836
0.00216174
0.00232669
0.00236564
0.00228965
0.00210183
0.00185117
0.00157405
0.00173435
0.00186297
0.00199776
0.00213964
0.00217638
0.00199229
0.00168385
0.00112341
0.000671528
0.000904701
0.00096064
0.0011191
0.00109274
0.000650419
0.000361124
0.000376093
0.000178091
0.000878981
0.00148722
0.00567917
0.00345268
0.00755501
0.00969756
0.00610804
0.00572003
0.00805363
0.00641015
0.00845779
0.00462402
0.00102781
0.000108387
0.00212156
0.00117469
0.0010304
0.000802962
0.00119209
0.0046891
0.00822355
0.00804178
0.00527468
0.00292391
0.00339608
0.0030983
0.00302081
0.00308887
0.00237716
0.00188749
0.00369451
0.00256439
0.524005
0.508354
0.493216
0.47857
0.463723
0.447884
0.430414
0.41083
0.388835
0.36437
0.337613
0.308956
0.278962
0.248322
0.217804
0.188182
0.160161
0.134302
0.110981
0.0903817
0.072517
0.0572704
0.0444403
0.0337788
0.0250224
0.0179104
0.0121995
0.00766759
0.00476705
0.00414636
0.00458585
0.00482942
0.00492539
0.00490836
0.0048502
0.00484697
0.0049491
0.00494893
0.00485883
0.00470615
0.00450923
0.00428414
0.00404374
0.00379433
0.00354135
0.00328778
0.0030344
0.00278492
0.00254157
0.00230809
0.00209033
0.00189353
0.00172387
0.00158702
0.00148708
0.00142692
0.00140572
0.00141725
0.0014484
0.00147804
0.0014791
0.00147409
0.00170793
0.00211063
0.00241043
0.00258436
0.00261826
0.00252573
0.0023094
0.00202617
0.00168239
0.00186152
0.0020303
0.00221161
0.0024178
0.00252839
0.00231165
0.00188587
0.00120968
0.000624807
0.000935593
0.00103594
0.00125964
0.00126264
0.000759517
0.000416782
0.000449407
0.000228288
0.000947815
0.00166743
0.00614503
0.00390326
0.00819607
0.0101223
0.00657174
0.00643159
0.00821973
0.00687618
0.00976589
0.00575043
0.00147956
0.000146673
0.0024019
0.00134215
0.00115289
0.000727285
0.00170047
0.00582402
0.00944734
0.00858878
0.00530107
0.00294465
0.00360895
0.00323594
0.00320487
0.00335868
0.00259562
0.00198793
0.00410399
0.00291075
0.510932
0.495289
0.480108
0.465486
0.451013
0.436248
0.420857
0.404531
0.386969
0.367924
0.34724
0.324869
0.300886
0.275497
0.24905
0.222034
0.195042
0.168716
0.143674
0.120439
0.0993854
0.0807211
0.0644961
0.0506339
0.0389718
0.0292961
0.0213727
0.0149656
0.00985158
0.00582499
0.00407182
0.0042586
0.00457017
0.00471792
0.00473956
0.00467068
0.00471062
0.00480906
0.00485864
0.0048095
0.00468548
0.00451003
0.00430193
0.00407142
0.00382705
0.00357423
0.00331508
0.00305483
0.00279682
0.00254581
0.00230908
0.00209324
0.00190605
0.00175482
0.00164513
0.00158121
0.00156307
0.00158461
0.0016318
0.00168146
0.00170316
0.00167136
0.00188711
0.0023213
0.00264215
0.00282569
0.00285596
0.00274904
0.00250627
0.00219269
0.00180618
0.00196199
0.00217146
0.00239844
0.00267013
0.00286448
0.00270938
0.00216105
0.00129459
0.000542679
0.000943367
0.00109827
0.00139528
0.00143093
0.000868051
0.000469798
0.000527212
0.000286361
0.000986686
0.00184866
0.00643939
0.00435466
0.00875886
0.0103043
0.00701207
0.00714334
0.00814038
0.0071055
0.0109541
0.00697787
0.00206913
0.000258639
0.00264905
0.001524
0.0012654
0.000635642
0.00232226
0.00703873
0.0105682
0.00894184
0.00526823
0.00307804
0.00383598
0.00335537
0.00336396
0.00362378
0.00282839
0.00208741
0.00448557
0.003241
0.498914
0.483334
0.468207
0.453668
0.439417
0.425166
0.410745
0.39601
0.38079
0.3649
0.348159
0.330404
0.311494
0.291333
0.269899
0.247286
0.223724
0.199589
0.175376
0.151653
0.12899
0.107891
0.088729
0.0717246
0.0569467
0.0443402
0.0337644
0.0250263
0.0179098
0.0121957
0.00767001
0.00464917
0.00387474
0.00425883
0.00446124
0.00452903
0.00449594
0.00452511
0.00461278
0.00471898
0.00471263
0.00462111
0.00447211
0.00428144
0.0040621
0.00382292
0.00356807
0.0033049
0.00303828
0.00277427
0.00252187
0.00228928
0.00208604
0.00192137
0.00180248
0.00173515
0.00172043
0.00175249
0.00181657
0.00188769
0.00193219
0.00191425
0.0020959
0.00251072
0.00285237
0.00304669
0.00307539
0.00295686
0.00269024
0.00234886
0.00193064
0.00203251
0.00228201
0.00255153
0.00288623
0.00317061
0.00310011
0.0024342
0.00138097
0.00044689
0.000925088
0.00114569
0.00152628
0.00159717
0.000973846
0.000518721
0.000609062
0.00035197
0.000992789
0.00201712
0.00654947
0.00479372
0.00923293
0.0103005
0.00746697
0.00783853
0.00787305
0.00707897
0.0119423
0.00827314
0.00276346
0.0004333
0.0028603
0.00172086
0.0013613
0.000706764
0.00303589
0.00828454
0.0115463
0.00912282
0.00522288
0.00320967
0.00408752
0.00346818
0.00349355
0.00388252
0.00307994
0.0022039
0.0048375
0.00353703
0.487833
0.472345
0.457311
0.442882
0.428823
0.414908
0.401033
0.387136
0.373134
0.35893
0.34442
0.32949
0.314004
0.297801
0.280714
0.2626
0.243379
0.22308
0.201867
0.180049
0.158067
0.136447
0.115736
0.0964257
0.0788879
0.0633461
0.0498761
0.0384315
0.0288809
0.0210414
0.014704
0.0096587
0.00570189
0.00385909
0.00389905
0.00416541
0.00428258
0.00428641
0.00429819
0.00437036
0.00453475
0.00457486
0.00452136
0.00439888
0.00422665
0.00401843
0.00378142
0.00352589
0.00325884
0.00298803
0.00272454
0.00247848
0.0022614
0.00208467
0.00195738
0.0018871
0.00187604
0.00191893
0.00200046
0.00209417
0.0021634
0.00216918
0.00230203
0.00267453
0.00303707
0.00324383
0.00327351
0.00314659
0.00285903
0.00249234
0.00204402
0.00207052
0.00235846
0.00266527
0.00305646
0.00343212
0.0034674
0.00269791
0.00147287
0.00041757
0.000878623
0.00117636
0.00165361
0.00176232
0.00107461
0.000562502
0.000694506
0.000424257
0.000966497
0.00215557
0.00649229
0.00521599
0.00960116
0.0102045
0.00798102
0.00849553
0.00749938
0.00681291
0.0126543
0.00959251
0.00355679
0.000711683
0.00306012
0.00192975
0.00143236
0.000945724
0.0038326
0.00952615
0.0123531
0.00916996
0.00519955
0.00331818
0.00436403
0.00358933
0.00358955
0.00412986
0.00335082
0.00235891
0.00516021
0.00377756
0.477596
0.462212
0.447287
0.432975
0.419087
0.405435
0.391941
0.37857
0.36528
0.352017
0.338732
0.325376
0.311886
0.298162
0.284064
0.269414
0.254019
0.237708
0.22037
0.201995
0.182705
0.162775
0.142615
0.122733
0.103664
0.0858916
0.0697851
0.0555644
0.0433017
0.0329491
0.0243728
0.0173911
0.0118
0.0073909
0.00436328
0.00349883
0.00383294
0.00400159
0.00404811
0.00403421
0.00411974
0.00431267
0.00440462
0.00438916
0.00429404
0.00414023
0.00393933
0.00370567
0.00344927
0.00318008
0.00291179
0.00265678
0.00242895
0.00224216
0.00210764
0.00203495
0.00202778
0.00208161
0.00218091
0.00229811
0.00239379
0.00242599
0.00249509
0.00280895
0.00319276
0.00341397
0.00344755
0.00331571
0.00301021
0.00262046
0.00214303
0.0020744
0.00239853
0.0027356
0.00317271
0.00363459
0.00379326
0.00308903
0.00170528
0.000457134
0.000801849
0.00118824
0.00176585
0.00191509
0.00116782
0.000600603
0.000783102
0.000501822
0.00091069
0.00224899
0.00630958
0.00562074
0.0098454
0.0101281
0.00857857
0.0090833
0.00709869
0.00636006
0.0130299
0.0108842
0.0044369
0.00107408
0.00322072
0.00214339
0.00146883
0.00124213
0.00469674
0.0107276
0.012972
0.00912654
0.00521484
0.00340168
0.004655
0.00373604
0.00365196
0.00435817
0.00363687
0.00257331
0.00545745
0.00394434
0.468118
0.452845
0.438033
0.423836
0.410101
0.396667
0.383467
0.37048
0.357675
0.345014
0.332467
0.320014
0.30764
0.295314
0.282972
0.270507
0.257765
0.244553
0.230665
0.215913
0.200167
0.183392
0.16569
0.147319
0.128676
0.110261
0.0926056
0.0761898
0.0613759
0.048374
0.0372434
0.0279238
0.0202745
0.0141069
0.00921906
0.00540738
0.00353853
0.00346448
0.0036929
0.00378172
0.00376913
0.00387668
0.00406045
0.00420378
0.00422755
0.00416026
0.00402038
0.00382796
0.00359722
0.0033411
0.00307659
0.00281885
0.00258458
0.00239054
0.0022504
0.00217609
0.00217302
0.00223782
0.00235502
0.00249642
0.00262016
0.00268152
0.00267201
0.00291077
0.00331647
0.0035544
0.00359499
0.00346181
0.00314128
0.00273027
0.00222386
0.00204356
0.00240131
0.00276036
0.00322927
0.00376504
0.00405838
0.00346207
0.00194627
0.000517598
0.000693406
0.00117967
0.00186081
0.00205211
0.00125053
0.00063306
0.000874307
0.000585676
0.000831672
0.00228798
0.0060506
0.00600206
0.00995869
0.0101681
0.00923169
0.00956212
0.00671699
0.00579944
0.0130376
0.0120927
0.00538564
0.00152146
0.00333701
0.00235073
0.00146029
0.00159642
0.00561035
0.0118578
0.0133978
0.00903277
0.00527016
0.00345746
0.00493969
0.00392217
0.00368647
0.00455797
0.00392803
0.00285848
0.00573533
0.00402921
0.459328
0.444164
0.429467
0.415382
0.401784
0.388533
0.375571
0.362882
0.350442
0.338219
0.326183
0.314319
0.302624
0.291099
0.279733
0.26849
0.257299
0.246041
0.23455
0.222628
0.210059
0.196645
0.18224
0.166804
0.150428
0.133363
0.116006
0.0988567
0.0824475
0.0672563
0.0536351
0.0417754
0.031716
0.0233762
0.0166026
0.0112012
0.00696838
0.00398839
0.00306492
0.00335427
0.00349206
0.00351898
0.00360838
0.00377716
0.00397421
0.00403899
0.00399467
0.00387017
0.00368572
0.0034584
0.00320943
0.00295757
0.00272284
0.00252547
0.00238203
0.00230723
0.0023086
0.00238433
0.00251944
0.00268565
0.00283902
0.00293233
0.00291456
0.00305784
0.00340572
0.0036628
0.00371361
0.00358256
0.00324967
0.00281864
0.00228265
0.00197868
0.00236728
0.0027395
0.00322351
0.00381336
0.00424324
0.00379498
0.00223343
0.000641838
0.000553148
0.00114895
0.00193637
0.00217013
0.00131938
0.000660464
0.000967413
0.000714123
0.000824233
0.00231592
0.0057538
0.00634549
0.0099561
0.0103707
0.00985096
0.00989952
0.00634914
0.00521658
0.0126848
0.0131644
0.00637965
0.00205199
0.00340364
0.00253842
0.00139668
0.00203652
0.00658229
0.0128893
0.0136364
0.00892035
0.00535668
0.00348308
0.00519226
0.00415362
0.00370466
0.00472036
0.00420942
0.00320609
0.00599762
0.00403864
0.451164
0.436106
0.421521
0.407542
0.394067
0.380974
0.36821
0.355761
0.343608
0.331723
0.320075
0.308647
0.297431
0.28643
0.275651
0.265094
0.254746
0.244561
0.234458
0.224309
0.213944
0.20316
0.191734
0.179461
0.166194
0.151886
0.136631
0.120679
0.104432
0.0883974
0.0731121
0.0590503
0.046548
0.0357695
0.0267252
0.0193119
0.0133595
0.00867207
0.00504499
0.00317042
0.0029877
0.00318265
0.00324827
0.00331796
0.00346365
0.00371839
0.0038192
0.00380012
0.00369076
0.00351411
0.00329713
0.00306313
0.00283632
0.0026412
0.00249781
0.00242424
0.00243065
0.00251733
0.00267035
0.00286192
0.0030465
0.0031747
0.00319062
0.00322058
0.00345849
0.00373719
0.0038014
0.00367577
0.00333288
0.00288241
0.002315
0.00188118
0.00229855
0.00267509
0.00315629
0.00377389
0.00432999
0.00406463
0.00259019
0.000857484
0.00038323
0.00109567
0.00199052
0.00226577
0.00137054
0.000683888
0.00106141
0.000846621
0.000820758
0.00229915
0.00543897
0.00663339
0.00987149
0.010716
0.0103199
0.0100962
0.00594854
0.00468147
0.0120173
0.0140526
0.00739152
0.00266082
0.00341478
0.002692
0.00126958
0.00264806
0.00767186
0.0137971
0.0137021
0.00881132
0.00546216
0.00347881
0.00538828
0.00442609
0.00372185
0.00484048
0.00446621
0.00358424
0.00624025
0.00399301
0.443571
0.428615
0.414138
0.400259
0.386895
0.373939
0.361342
0.349091
0.337171
0.325555
0.314214
0.303128
0.292284
0.281679
0.271315
0.261201
0.251343
0.241739
0.232365
0.22317
0.214063
0.204915
0.195551
0.185761
0.175321
0.164025
0.151726
0.138382
0.124087
0.109099
0.093829
0.0787975
0.0645474
0.0515448
0.040102
0.0303506
0.0222666
0.0157241
0.0105383
0.00650572
0.00357957
0.00259634
0.00284846
0.00296191
0.00300679
0.00317266
0.00343116
0.0035706
0.00357758
0.00348255
0.00332079
0.0031217
0.00291479
0.00272994
0.00259153
0.00252183
0.00253437
0.00263228
0.00280326
0.00302082
0.00323827
0.00340448
0.00345854
0.00336865
0.00348116
0.00377591
0.00385657
0.00373936
0.00338843
0.00291845
0.00231741
0.00176111
0.00219806
0.00257106
0.00303191
0.00364658
0.00430476
0.00424649
0.00291955
0.00108129
0.000187373
0.00101932
0.00202122
0.0023355
0.00139989
0.00070476
0.00115484
0.00097766
0.000810231
0.00232087
0.00519979
0.00685205
0.00973905
0.0111342
0.0105564
0.010198
0.00546017
0.00423381
0.0111063
0.0147211
0.0083914
0.00333999
0.00336439
0.0027973
0.00107335
0.00331652
0.00875533
0.0145623
0.0136163
0.00871953
0.00557535
0.00344858
0.00551135
0.00472752
0.0037547
0.00492077
0.0046915
0.00394841
0.00645151
0.0039207
0.436501
0.421641
0.407267
0.393482
0.380219
0.367384
0.354931
0.342847
0.331118
0.31972
0.308628
0.297818
0.287274
0.276988
0.266955
0.257178
0.247664
0.238421
0.229452
0.220749
0.21228
0.203989
0.195783
0.187528
0.179042
0.170116
0.160527
0.150073
0.138609
0.126096
0.112636
0.0984979
0.0841072
0.0699971
0.0567151
0.0447159
0.0342811
0.0255049
0.018328
0.0125971
0.00811812
0.00468232
0.002792
0.00249322
0.00266549
0.00272054
0.00289638
0.00311322
0.00329353
0.00332557
0.00325263
0.00311309
0.00294355
0.00278081
0.00265482
0.00259317
0.00261382
0.00272366
0.00291289
0.00315719
0.00340934
0.00361695
0.00371403
0.003663
0.00362646
0.00377754
0.00387751
0.00377136
0.00341396
0.00292372
0.00228558
0.00165472
0.00207092
0.00243287
0.00285758
0.00343745
0.00416002
0.00431707
0.00319598
0.00136945
0.00015136
0.000922521
0.00202707
0.00237573
0.00140342
0.000724857
0.00127819
0.00113327
0.00078923
0.00232777
0.00506792
0.00706596
0.00957773
0.0115446
0.0105506
0.0102721
0.00484897
0.00387621
0.0100248
0.0151449
0.00934829
0.00407812
0.00324713
0.00284125
0.00080581
0.00402556
0.00980391
0.0151674
0.0134053
0.00865339
0.00568859
0.00339916
0.00555569
0.00504158
0.00381798
0.00497062
0.00488976
0.00426341
0.00661953
0.00384724
0.429911
0.415142
0.400864
0.387169
0.373999
0.361271
0.348943
0.337001
0.325432
0.314215
0.303326
0.292741
0.282443
0.27242
0.262661
0.253164
0.243929
0.234961
0.226269
0.217856
0.209721
0.201849
0.194207
0.186735
0.179334
0.171865
0.164148
0.155974
0.147125
0.137401
0.126665
0.114881
0.102161
0.0887871
0.0752008
0.0619491
0.0495822
0.0385387
0.0290661
0.0212138
0.0148874
0.0099083
0.00607064
0.00317662
0.0021212
0.00235055
0.00245967
0.00260267
0.00276377
0.00298461
0.00305054
0.00300732
0.002901
0.00277815
0.00267601
0.00262913
0.00266132
0.00278462
0.00299281
0.00326489
0.0035538
0.00380657
0.00395202
0.00394706
0.00374732
0.00374244
0.00386264
0.00376981
0.00340713
0.0028956
0.00221751
0.00154447
0.001921
0.00226684
0.00264257
0.00315797
0.00389661
0.00425683
0.0033914
0.00165009
0.000268834
0.000809313
0.00200681
0.00238309
0.00137765
0.000746156
0.00143099
0.00131298
0.000753163
0.00229308
0.00500658
0.00726208
0.00939104
0.0118843
0.0103516
0.0103658
0.00411068
0.00363122
0.00882464
0.0153068
0.0102312
0.00486023
0.0030598
0.00281296
0.000653761
0.00476635
0.0108029
0.0156051
0.0130996
0.00861793
0.00579774
0.00333747
0.00552472
0.00534999
0.00392128
0.00500156
0.00507069
0.00451738
0.00673877
0.00378461
0.423764
0.40908
0.394893
0.381281
0.368196
0.355564
0.343346
0.331528
0.320095
0.30903
0.298309
0.28791
0.277815
0.268009
0.25848
0.24922
0.240223
0.23149
0.223024
0.214829
0.206912
0.199272
0.191905
0.184792
0.177899
0.171159
0.16447
0.157692
0.150649
0.143133
0.134932
0.125851
0.115757
0.104623
0.0925714
0.0798966
0.0670569
0.0546132
0.0431179
0.0329886
0.024433
0.0174535
0.0119167
0.00762827
0.00436946
0.00244144
0.00202278
0.00219231
0.00228717
0.00247501
0.00265053
0.00275707
0.00275412
0.0026986
0.00263815
0.00261695
0.00266669
0.00280643
0.00303506
0.00333635
0.00366442
0.00396655
0.00416633
0.00421498
0.0040581
0.00387191
0.0038104
0.00373267
0.00336564
0.00283142
0.0021095
0.0013892
0.00175356
0.00207987
0.00239744
0.0028238
0.00352479
0.0040536
0.00347821
0.00188261
0.000436809
0.000706194
0.00196087
0.00235471
0.00131859
0.000769406
0.00158049
0.0014874
0.000696998
0.00222254
0.00495091
0.00738228
0.00917386
0.0121095
0.0100339
0.0104887
0.00357583
0.00350527
0.00752752
0.0151894
0.0110086
0.00566785
0.00280082
0.00270366
0.000796425
0.00551536
0.0117153
0.0158653
0.0127316
0.00861549
0.00590084
0.00333262
0.0054292
0.00563401
0.00406739
0.00502221
0.00524085
0.00471603
0.00683125
0.00374917
0.418026
0.403421
0.389319
0.375785
0.362777
0.350232
0.338112
0.326401
0.315087
0.304151
0.293571
0.283327
0.273401
0.263776
0.25444
0.24538
0.236589
0.228061
0.219794
0.211789
0.20405
0.196579
0.189381
0.182451
0.175785
0.169361
0.163138
0.157047
0.150987
0.144818
0.138367
0.131432
0.123804
0.115295
0.105778
0.0952351
0.0837961
0.0717695
0.0596306
0.0479544
0.0372934
0.0280399
0.0203544
0.0141942
0.0093861
0.00571958
0.00298453
0.0018365
0.0019118
0.00203931
0.00219225
0.00230371
0.00245027
0.00250525
0.00251567
0.0025381
0.00261575
0.00277749
0.00302939
0.00336209
0.00373219
0.00408841
0.00434926
0.00446018
0.00435647
0.00404115
0.00378275
0.00365773
0.00328717
0.00272913
0.00196044
0.00118791
0.00157275
0.00187914
0.00213307
0.00245263
0.00306367
0.00370538
0.00343116
0.00203855
0.000606018
0.000643928
0.00190763
0.00228873
0.00122379
0.000795402