/*--------------------------------*- C++ -*----------------------------------*\
| =========                 |                                                 |
| \\      /  F ield         | OpenFOAM: The Open Source CFD Toolbox           |
|  \\    /   O peration     | Version:  2412                                  |
|   \\  /    A nd           | Website:  www.openfoam.com                      |
|    \\/     M anipulation  |                                                 |
\*---------------------------------------------------------------------------*/
FoamFile
{
    version     2.0;
    format      ascii;
    arch        "LSB;label=32;scalar=64";
    class       volVectorField;
    location    "1.05";
    object      ddtCorrDdt0(U);
}
// * * * * * * * * * * * * * * * * * * * * * * * * * * * * * * * * * * * * * //

dimensions      [0 1 -2 0 0 0 0];

internalField   nonuniform List<vector> 
12600
(
(5.40188 0 -3.97879)
(7.96071 -8.67512e-18 -1.7693)
(14.723 -1.28177e-17 -0.155499)
(14.105 0 1.19684)
(1.66052 3.75485e-19 -0.673186)
(-18.6122 0 -5.56231)
(-34.1595 -1.63338e-18 -9.43374)
(-32.5576 0 -7.7178)
(-10.7635 0 0.782686)
(18.7452 0 9.70605)
(39.5749 0 13.9304)
(41.9783 8.75629e-18 11.3698)
(23.9789 2.30041e-17 3.31447)
(-15.1372 0 -8.43047)
(-58.755 -1.50209e-17 -20.1069)
(-80.0101 0 -22.231)
(-55.6404 4.2762e-18 -9.58067)
(30.8702 0 22.0093)
(139.557 -1.24593e-17 54.1795)
(183.147 0 52.9399)
(97.8316 0 0.828353)
(-92.523 0 -77.8501)
(-257.267 -1.3158e-16 -120.39)
(-282.752 -4.67775e-16 -95.0372)
(-154.995 3.51596e-17 -12.4804)
(43.7926 5.46197e-17 75.2404)
(188.998 0 117.019)
(186.13 0 91.4765)
(83.5199 0 35.2231)
(5.72362 1.36162e-16 1.07675)
(-16.2988 5.01021e-17 -7.9862)
(-6.11745 0 -3.55174)
(6.74371 0 2.209)
(8.4543 -1.02578e-17 3.66493)
(1.91106 2.52888e-17 1.62007)
(-4.85829 0 -1.0353)
(-7.27131 0 -2.45946)
(-5.22222 3.71606e-17 -2.23183)
(-0.991897 0 -0.857459)
(2.46336 -1.54025e-18 0.602578)
(3.03658 -2.83094e-17 1.19846)
(0.81111 -1.99317e-17 0.749423)
(-2.14748 0 -0.134796)
(-3.69973 -3.3096e-17 -0.822617)
(-2.79826 -4.89495e-17 -0.485929)
(-0.544578 1.12898e-16 0.425451)
(1.20442 -1.07973e-16 1.08777)
(1.43303 0 1.0317)
(0.552737 9.06676e-17 0.516499)
(-0.268009 -9.04982e-17 0.144984)
(-0.471892 0 -0.0637079)
(-0.1124 -8.14099e-19 -0.0883534)
(0.319381 6.66375e-17 0.000966271)
(0.480983 0 0.287795)
(0.0400987 -7.60508e-17 0.346194)
(-0.826059 0 0.146873)
(-1.4809 0 0.128238)
(-1.51809 4.10999e-19 0.41844)
(-1.14731 9.26963e-19 0.698093)
(-0.768135 3.60839e-17 0.804806)
(-0.562527 1.19114e-17 0.856574)
(-0.699049 -1.02912e-16 0.867509)
(-1.05765 0 0.803795)
(-1.4374 -1.01817e-16 0.661978)
(-1.56123 -1.69706e-17 0.355553)
(-1.24008 -1.29785e-16 -0.163201)
(-0.437217 1.40037e-16 -0.753567)
(1.13722 0 -0.697605)
(2.48884 0 -0.748309)
(3.75227 0 -0.845977)
(3.68424 0 -1.58131)
(3.91539 0 -1.45483)
(2.85839 1.06902e-15 -1.68809)
(2.82178 -8.65523e-16 -1.43097)
(1.65007 0 -0.898325)
(1.46697 0 -0.588615)
(0.0283877 -3.99204e-16 0.0209874)
(-0.423322 2.54456e-18 0.380028)
(-2.40416 -2.03232e-16 0.815843)
(-2.71996 0 1.72234)
(-4.67898 0 2.18392)
(-4.67756 0 2.59476)
(-5.28185 -4.56565e-19 2.43248)
(-5.26724 0 2.41604)
(-4.2 0 2.80189)
(-5.50318 1.3582e-15 2.47761)
(-3.25278 9.1768e-18 2.66923)
(-5.22326 0 2.78158)
(-3.72089 0 2.54848)
(-8.33096 -4.87827e-15 4.2076)
(-8.33374 -3.93069e-15 4.51719)
(-8.3414 -3.78956e-15 4.06414)
(-3.88277 -2.86086e-15 2.4348)
(-10.1087 -1.2717e-17 6.11772)
(0.802402 -4.01322e-17 0.520115)
(17.3949 -4.32238e-15 -9.92581)
(18.8978 0 -11.4497)
(-5.22923 0 1.82999)
(6.35444 0 -4.42959)
(5.89578 -5.30906e-15 -3.27442)
(-4.40899 -1.48426e-16 2.89854)
(2.05476 -7.18598e-16 -0.40997)
(-6.66109 3.09618e-15 4.23033)
(-2.04198 0 1.43434)
(-0.227964 0 0.27214)
(0.087633 0 0.166767)
(2.39734 2.61193e-15 -1.28558)
(3.96426 0 -2.26939)
(8.87958 -6.55863e-16 -5.11184)
(12.7536 0 -7.0557)
(14.3899 0 -7.84375)
(15.2843 -1.23352e-15 -8.86127)
(10.9978 0 -6.27508)
(-2.12649 0 0.759541)
(-10.5446 0 6.23129)
(-10.5458 1.19096e-17 6.17319)
(-9.85936 0 5.80021)
(-1.93302 5.28113e-16 1.24586)
(8.46713 0 -4.54675)
(8.37737 3.22166e-18 -4.49466)
(5.93822 -1.91677e-18 -6.44784)
(11.9489 5.71246e-18 -3.93491)
(17.8434 8.18684e-19 -2.42911)
(13.9589 0 -1.75906)
(-3.81204 2.27709e-17 -5.60352)
(-26.9109 -1.04132e-17 -12.2489)
(-39.0784 1.70237e-18 -15.3156)
(-29.03 -1.69988e-17 -9.29952)
(-0.527985 0 4.89979)
(29.2281 0 17.6701)
(45.1301 0 21.8579)
(40.4777 0 15.4576)
(15.293 0 0.989836)
(-30.6137 0 -19.0436)
(-72.2372 8.38716e-18 -31.6757)
(-84.1552 0 -31.4471)
(-39.9372 5.19546e-17 -4.71114)
(67.687 0 49.6518)
(175.769 2.13127e-17 95.9784)
(182.811 -1.36047e-16 75.2477)
(36.2031 0 -41.8378)
(-202.187 -3.14977e-16 -205.319)
(-348.409 6.92295e-17 -262.572)
(-301.377 2.42294e-16 -168.166)
(-85.024 -2.10716e-16 39.341)
(164.78 0 231.017)
(294.996 2.31442e-16 291.11)
(231.75 0 200.124)
(83.9239 0 70.5764)
(-3.68794 0 2.06986)
(-21.8195 -2.13674e-17 -14.946)
(-6.34111 0 -7.07191)
(8.13478 0 2.61894)
(8.5339 0 4.8187)
(0.461723 0 1.64563)
(-6.67583 0 -2.0456)
(-8.49313 0 -3.69907)
(-5.5395 -3.82378e-17 -3.02024)
(-0.637435 0 -0.888109)
(2.92142 7.00132e-17 1.14743)
(3.06304 5.86889e-17 1.8254)
(0.237392 2.05882e-17 1.04237)
(-3.12539 0 -0.256526)
(-4.62709 0 -1.02129)
(-3.3487 1.0146e-16 -0.343036)
(-0.795386 -1.15277e-16 1.06181)
(0.994416 1.10565e-16 2.0747)
(1.04023 0 2.03811)
(-0.0312155 -9.16711e-17 1.35101)
(-0.97567 0 0.783016)
(-1.28884 0 0.379911)
(-1.05145 -8.13948e-17 0.163791)
(-0.774456 0 0.0597098)
(-0.719337 0 0.415969)
(-1.3328 7.68345e-17 0.659291)
(-2.43591 0 0.601992)
(-3.28782 0 0.853088)
(-3.57585 1.22903e-18 1.50055)
(-3.58705 6.932e-17 2.06988)
(-3.58132 -1.55174e-18 2.44985)
(-3.6424 0 2.69646)
(-3.8753 1.04109e-16 2.75707)
(-4.02974 1.34227e-16 2.5648)
(-3.86337 0 2.07946)
(-3.06917 3.35872e-17 1.1873)
(-1.42719 -5.36412e-19 -0.162065)
(0.968936 0 -1.70349)
(4.24574 1.19224e-16 -2.47187)
(7.04102 0 -3.27244)
(9.82464 0 -3.27123)
(9.80755 0 -5.55173)
(10.4056 0 -5.2996)
(8.89134 -2.10524e-15 -5.22686)
(7.8272 8.47411e-16 -4.4156)
(4.98993 0 -2.79001)
(2.71027 0 -1.43285)
(-0.684482 -3.85557e-16 0.436635)
(-3.60346 4.04821e-18 2.05673)
(-7.92131 1.02212e-17 4.01141)
(-11.0336 0 6.43897)
(-15.2356 0 8.25109)
(-16.1376 0 8.9875)
(-16.7182 -1.11041e-18 9.0426)
(-16.2162 -1.73841e-15 8.68897)
(-13.909 -1.7523e-15 8.32554)
(-15.4193 -1.3123e-15 8.35171)
(-10.8857 1.30794e-17 7.54895)
(-14.6938 -1.84882e-15 8.80589)
(-11.7697 0 7.4724)
(-23.0362 4.68886e-15 13.0114)
(-23.5094 0 13.4805)
(-22.86 3.63349e-15 12.4592)
(-10.1695 0 6.30978)
(-33.536 1.62645e-15 19.5861)
(-1.18048 1.99671e-16 0.788447)
(50.6179 0 -32.0099)
(60.5208 0 -35.1377)
(-9.23626 7.05219e-15 4.83307)
(24.5349 -3.82947e-15 -15.1865)
(18.4279 5.03503e-15 -10.0709)
(-13.9957 1.40965e-16 8.88476)
(5.68529 6.81868e-16 -2.18568)
(-20.9476 0 12.8529)
(-5.76614 4.94759e-16 3.57485)
(-0.443321 0 0.452761)
(-0.434902 0 0.412333)
(8.49757 -2.47017e-15 -4.94199)
(14.5544 0 -8.4231)
(29.0179 4.50262e-18 -16.9874)
(38.1016 4.61168e-16 -22.049)
(41.6469 0 -24.0048)
(44.7583 0 -26.0593)
(31.7607 0 -18.0169)
(-6.15402 -9.35193e-16 3.63317)
(-32.6004 7.73255e-16 19.3206)
(-32.0814 -1.12004e-17 18.7918)
(-30.5795 0 17.7314)
(-9.70267 -4.96032e-16 5.13751)
(22.3288 0 -13.0964)
(25.507 3.32027e-16 -14.4104)
(7.90199 5.04881e-18 -4.38221)
(15.2019 2.96825e-19 -4.48757)
(19.4907 2.2029e-17 -5.60385)
(11.2839 0 -7.85218)
(-7.7396 1.68822e-17 -11.388)
(-26.6048 3.59074e-18 -13.2626)
(-31.6523 0 -9.7556)
(-17.3441 1.61354e-17 -0.488268)
(8.1578 0 9.73092)
(30.2731 7.57413e-18 15.0584)
(38.3038 0 12.5383)
(29.0812 0 3.4503)
(3.32728 0 -8.77885)
(-35.1857 0 -20.5258)
(-63.0714 -2.5382e-18 -17.3971)
(-62.8247 0 -6.33166)
(-10.4066 0 21.4014)
(83.5429 0 53.0459)
(150.799 -7.93386e-18 56.0727)
(109.196 2.04288e-17 -1.13856)
(-56.3623 0 -114.651)
(-243.528 1.59827e-17 -220.387)
(-298.906 0 -205.933)
(-181.279 -2.40777e-16 -61.3616)
(60.1931 0 175.704)
(270.956 0 355.774)
(321.386 -2.19521e-16 359.408)
(193.572 0 197.617)
(50.8588 0 61.246)
(-16.7846 1.24097e-16 -2.06835)
(-23.6455 0 -15.7189)
(-5.53862 0 -8.18505)
(7.21929 0 -0.477445)
(6.27014 0 1.1941)
(-1.23057 -3.69346e-17 -0.456702)
(-6.92197 0 -2.03008)
(-7.67538 0 -2.34328)
(-4.49852 2.55019e-17 -1.53793)
(-0.0670867 0 -0.163201)
(2.76096 -6.96864e-17 0.921696)
(2.41311 2.33213e-19 1.14195)
(-0.413215 -1.94923e-17 0.62759)
(-3.42479 0 -0.0091031)
(-4.47272 0 -0.0602191)
(-3.22692 -4.8664e-17 0.539331)
(-1.08363 0 1.34398)
(0.31296 -1.04589e-16 1.8893)
(0.284489 0 1.93722)
(-0.612502 8.45563e-19 1.70197)
(-1.45983 0 1.43049)
(-1.76682 0 1.18726)
(-1.64926 0 0.953322)
(-1.58024 -5.81204e-17 0.682879)
(-1.89795 0 0.637486)
(-2.71869 0 0.918854)
(-3.84599 0 1.33139)
(-4.87255 0 1.89914)
(-5.55579 1.49559e-16 2.63159)
(-5.98632 0 3.31764)
(-6.28387 -1.17319e-18 3.95183)
(-6.55255 0 4.37868)
(-6.84446 -4.94532e-17 4.42808)
(-6.75581 -1.26556e-16 4.08196)
(-6.0229 0 3.22504)
(-4.2404 -3.21279e-17 1.80888)
(-1.16053 6.16588e-17 -0.139439)
(2.90796 0 -2.3387)
(7.51997 -1.12278e-16 -4.40686)
(11.5624 0 -6.27874)
(15.4976 0 -6.58128)
(16.0399 0 -9.22377)
(16.6489 0 -9.20386)
(14.6787 2.12193e-18 -8.38961)
(12.3137 -7.96918e-16 -6.85939)
(7.37906 0 -4.08287)
(2.75104 0 -1.28083)
(-3.12624 1.98456e-18 1.82569)
(-8.38204 -9.26639e-16 5.04361)
(-14.9217 7.99288e-17 8.5039)
(-20.4099 0 12.2528)
(-26.1987 0 15.1306)
(-27.5909 0 15.8279)
(-27.6001 3.47468e-15 15.947)
(-26.4149 -3.26525e-18 15.0368)
(-23.0843 1.6438e-15 13.1363)
(-24.0703 0 13.8693)
(-17.9415 2.97674e-16 11.1296)
(-23.1218 1.73328e-15 13.7845)
(-18.6026 0 11.3071)
(-36.1134 0 20.6158)
(-35.3563 3.53102e-15 19.9585)
(-35.7887 0 19.4994)
(-10.3337 2.53726e-15 6.53018)
(-56.6742 9.85406e-18 32.4914)
(-7.02095 -2.69035e-16 1.96334)
(78.0738 3.95438e-15 -48.1843)
(99.5285 0 -55.1445)
(-9.64512 -6.59969e-15 5.85809)
(43.2735 3.58321e-15 -26.6381)
(30.4782 -4.70172e-15 -15.8543)
(-22.5553 0 13.966)
(9.73704 6.27726e-16 -4.58347)
(-33.9548 0 20.3629)
(-8.40519 -4.62636e-16 4.29857)
(-0.690289 2.27904e-15 0.316331)
(-1.45357 0 0.637046)
(14.6662 2.30899e-15 -8.71402)
(26.5505 0 -15.9692)
(49.1405 1.14468e-15 -29.0303)
(60.9837 -4.30945e-16 -35.2387)
(64.9096 0 -37.1356)
(69.0192 0 -39.2702)
(46.9135 0 -25.1342)
(-12.2653 3.39269e-18 9.27406)
(-53.4586 -7.22282e-16 31.6862)
(-51.3544 -7.5546e-18 29.5723)
(-49.2098 0 27.8263)
(-19.5383 -4.67177e-16 9.8237)
(31.3326 0 -18.7253)
(41.3348 -1.98797e-18 -23.4943)
(8.72076 -3.06085e-18 -2.56078)
(17.2848 -8.97687e-19 -3.43176)
(19.9132 -9.60861e-18 -6.40521)
(9.86925 1.40604e-17 -9.68649)
(-7.90735 9.14501e-18 -12.0409)
(-22.4762 8.91052e-18 -11.3241)
(-23.1023 0 -5.60765)
(-7.98171 0 3.52494)
(13.6515 0 11.0218)
(29.3538 -7.17373e-18 12.4408)
(31.716 0 6.60005)
(20.029 0 -3.74229)
(-3.65109 0 -13.9532)
(-32.9399 0 -17.8026)
(-51.3161 0 -7.75054)
(-42.3596 -2.10684e-17 11.4197)
(7.98896 1.31636e-17 35.7961)
(78.3948 0 44.4795)
(106.646 0 11.6893)
(39.6109 1.02947e-16 -65.5727)
(-100.441 -1.87064e-16 -146.424)
(-207.019 2.67927e-16 -160.799)
(-190.48 -2.13106e-17 -78.1453)
(-37.1427 2.27982e-16 83.1926)
(170.668 -3.70916e-16 264.284)
(300.854 3.02617e-16 374.437)
(277.887 0 339.701)
(124.454 1.12506e-16 156.042)
(13.7203 0 41.0333)
(-30.9922 -1.17448e-16 -10.3121)
(-26.4402 0 -19.5221)
(-4.9459 0 -10.3345)
(7.11086 0 -2.5111)
(5.41338 1.51925e-19 -0.409627)
(-1.87143 3.49387e-17 -1.14711)
(-7.04906 0 -2.01696)
(-7.51229 0 -2.1398)
(-4.3114 -2.41146e-17 -1.48032)
(-0.0191611 0 -0.296274)
(2.59943 -4.68576e-19 0.709677)
(2.1035 -2.67501e-17 1.02853)
(-0.722493 0 0.753962)
(-3.59318 0 0.420406)
(-4.53927 0 0.517556)
(-3.34672 0 1.04071)
(-1.39021 -1.03066e-16 1.63359)
(-0.200294 0 1.9885)
(-0.318195 8.50326e-17 2.04862)
(-1.21981 8.10423e-17 1.94302)
(-2.03179 0 1.86044)
(-2.29307 0 1.85292)
(-2.14936 0 1.87554)
(-2.09638 5.48337e-17 1.85164)
(-2.63979 -3.74319e-17 1.70491)
(-3.73576 -5.58296e-17 1.84338)
(-5.09389 0 2.33065)
(-6.43309 -6.29113e-17 2.95691)
(-7.46074 -1.38954e-16 3.77562)
(-8.18641 0 4.67142)
(-8.75689 -5.8522e-17 5.47901)
(-9.20966 0 5.98181)
(-9.51892 4.78341e-17 5.94887)
(-9.18253 1.21243e-16 5.35982)
(-7.867 0 4.11555)
(-5.12702 1.54498e-17 2.13266)
(-0.718536 -5.59235e-17 -0.515649)
(4.87425 0 -3.46983)
(10.9446 0 -6.4535)
(16.2888 0 -9.10584)
(20.7849 -9.25288e-17 -10.6045)
(22.4123 -2.32405e-16 -12.4216)
(22.7495 0 -12.6708)
(19.9664 9.28424e-16 -11.3437)
(16.1263 7.42188e-16 -8.82469)
(8.85241 0 -4.58526)
(1.48015 0 -0.23115)
(-7.21256 3.3833e-16 4.27621)
(-14.8293 -1.86532e-18 9.06119)
(-23.5047 0 13.5232)
(-30.5824 0 18.5636)
(-37.4968 0 21.8558)
(-38.7911 0 22.6301)
(-38.1413 -8.16374e-19 22.0453)
(-35.9626 1.53242e-15 20.6181)
(-31.1668 0 17.7937)
(-31.7621 0 18.44)
(-23.9257 0 14.2969)
(-30.3989 1.63396e-15 17.8122)
(-23.8702 0 14.6459)
(-47.264 4.11473e-15 27.5088)
(-43.163 -3.30665e-15 24.3945)
(-48.0613 3.16688e-15 25.9837)
(-2.48303 -2.37527e-15 2.65369)
(-79.3809 -1.46762e-15 45.5779)
(-18.6082 2.51781e-16 5.55328)
(93.8256 -3.70021e-15 -63.8351)
(134.402 0 -73.0522)
(-6.22649 0 5.36158)
(62.1863 3.3393e-15 -38.3814)
(42.4464 2.19742e-15 -21.1252)
(-29.1065 -1.39756e-16 18.7191)
(14.222 -3.28522e-18 -6.86478)
(-45.1957 0 27.4073)
(-9.99542 0 4.40509)
(-0.617436 -2.13023e-15 0.146134)
(-2.53009 0 0.837764)
(20.7277 -2.15297e-15 -13.0832)
(40.0189 0 -24.4929)
(68.9876 -4.74787e-18 -41.2116)
(80.871 0 -47.1047)
(83.5563 1.33601e-15 -48.0515)
(86.8874 -1.02313e-15 -49.2782)
(54.3562 -1.88271e-15 -28.0148)
(-22.2025 2.11118e-19 17.096)
(-72.6185 0 43.6091)
(-67.3149 7.05514e-18 38.8129)
(-65.0427 2.51666e-15 36.5078)
(-30.3533 4.36236e-16 14.3719)
(35.0908 0 -22.2002)
(55.1119 -1.9856e-18 -31.6333)
(9.56887 0 -0.0330732)
(18.3776 -3.50542e-19 -1.22992)
(19.3207 0 -4.89256)
(8.85062 -1.32842e-17 -8.19901)
(-6.48342 -2.37323e-17 -9.49772)
(-16.9561 -2.79473e-18 -7.53983)
(-14.8706 0 -1.8262)
(-0.942999 0 5.30152)
(15.9298 -7.46718e-18 9.58257)
(25.9587 -2.59591e-18 8.12512)
(24.7558 -1.60583e-18 1.14436)
(13.2638 -8.20597e-18 -8.10623)
(-5.79818 -8.08377e-18 -14.8903)
(-26.6816 0 -13.351)
(-38.2441 0 -0.286437)
(-26.9525 3.09949e-17 19.8901)
(13.9289 -1.13359e-17 37.0863)
(61.016 0 30.2812)
(65.0303 -1.24333e-17 -16.4053)
(-2.96492 1.34461e-17 -89.3758)
(-105.777 1.76839e-16 -138.51)
(-154.927 0 -109.46)
(-93.3139 2.01286e-17 3.11173)
(62.1072 1.22167e-16 161.585)
(211.828 3.50541e-16 275.357)
(263.92 -1.73199e-16 301.901)
(183.991 0 234.409)
(52.8791 5.80074e-17 105.04)
(-25.4875 0 10.6684)
(-43.0848 -8.53945e-17 -18.4603)
(-28.1759 0 -23.0602)
(-3.42775 0 -11.7089)
(7.81879 0 -3.50596)
(5.23422 -1.4334e-19 -1.09024)
(-2.14964 0 -1.35804)
(-7.12679 0 -1.91917)
(-7.45994 0 -2.00688)
(-4.24243 0 -1.46263)
(-0.0305747 -2.07843e-17 -0.384026)
(2.42779 6.39944e-17 0.592954)
(1.79659 0 0.998425)
(-1.05562 1.5919e-17 0.89532)
(-3.84722 0 0.758136)
(-4.72338 0 0.971076)
(-3.56013 0 1.4845)
(-1.72596 2.01531e-18 1.98774)
(-0.681048 0 2.24874)
(-0.893282 -8.01771e-17 2.29089)
(-1.82176 0 2.2608)
(-2.62846 0 2.30667)
(-2.88347 -7.12827e-17 2.46104)
(-2.75522 0 2.66207)
(-2.75154 0 2.83212)
(-3.39137 1.3087e-18 2.8405)
(-4.71184 5.25843e-17 2.93325)
(-6.35573 0 3.3456)
(-7.95621 3.17739e-19 4.03313)
(-9.2474 1.298e-16 4.97212)
(-10.2295 0 6.01383)
(-11.0261 2.71149e-17 6.92877)
(-11.6136 0 7.44408)
(-11.8937 -4.5e-17 7.28443)
(-11.296 -1.14039e-16 6.40846)
(-9.41165 0 4.74365)
(-5.75974 -1.70753e-17 2.17995)
(-0.111852 2.02916e-18 -1.17569)
(6.89552 0 -4.877)
(14.3865 0 -8.63677)
(20.9532 0 -11.9552)
(26.0372 1.7599e-16 -14.4657)
(28.3904 -7.68398e-19 -15.8656)
(28.4911 0 -15.911)
(24.786 -8.65232e-16 -13.9008)
(19.28 -1.38902e-15 -10.2212)
(9.42952 0 -4.33507)
(-0.973678 0 1.75591)
(-12.7273 0 7.83028)
(-22.6702 -1.33198e-18 14.1398)
(-33.1363 0 19.3784)
(-41.1829 0 25.2104)
(-48.6483 0 28.4724)
(-49.5206 0 29.0326)
(-47.9207 -1.52648e-15 27.519)
(-44.5988 1.43135e-15 25.501)
(-38.3533 0 21.7313)
(-38.4549 0 22.1072)
(-28.9213 0 16.9205)
(-36.3819 7.30277e-19 21.2127)
(-27.8096 0 17.257)
(-56.6873 -3.85198e-15 33.3661)
(-46.8351 0 26.3924)
(-61.2156 -2.9638e-15 32.2254)
(13.5862 0 -5.83018)
(-101.262 6.89935e-16 58.6014)
(-37.6881 0 11.9569)
(102.091 0 -66.6789)
(165.228 0 -87.6333)
(0.332467 0 3.4113)
(80.9625 -3.12236e-15 -50.28)
(54.9429 0 -25.8308)
(-33.8462 1.30649e-16 22.0841)
(18.638 -5.45559e-16 -9.01581)
(-54.81 0 33.5279)
(-11.0964 0 3.84257)
(-0.228977 0 -0.195599)
(-3.39559 0 0.782704)
(27.3873 3.84365e-18 -17.2812)
(54.8147 0 -34.069)
(88.3438 -9.81129e-16 -53.1812)
(97.7583 0 -56.912)
(97.8675 -2.50075e-15 -56.1063)
(98.5886 9.55585e-16 -55.0243)
(54.2635 1.75831e-15 -25.2024)
(-35.7286 7.58834e-16 27.5931)
(-89.8767 0 54.2576)
(-79.8496 0 45.7647)
(-78.1601 -4.69783e-15 43.2866)
(-40.8359 4.05775e-16 18.5139)
(34.3248 3.29615e-15 -23.2768)
(66.5658 -1.29816e-16 -38.5534)
(10.4319 0 2.36216)
(18.5439 1.50724e-18 1.19099)
(18.0919 0 -2.3232)
(7.98973 0 -5.17767)
(-4.8592 0 -5.8677)
(-12.1331 0 -3.74474)
(-8.69599 0 0.798233)
(3.17641 7.94008e-18 5.31203)
(15.6029 7.04563e-18 6.66391)
(21.4392 4.08566e-18 3.44231)
(18.6878 2.31494e-18 -3.22214)
(9.21764 7.7447e-18 -10.243)
(-4.41215 7.6296e-18 -13.5522)
(-18.4829 0 -8.93417)
(-25.8691 0 4.60115)
(-16.6286 -1.36407e-17 22.1487)
(11.8977 5.12926e-18 32.014)
(39.4188 0 16.8642)
(31.2474 1.17382e-17 -30.4092)
(-24.2028 -1.26836e-17 -88.5367)
(-88.2495 0 -111.544)
(-95.0343 -5.56823e-17 -62.0834)
(-15.0568 0 50.0956)
(114.568 -9.08101e-17 175.412)
(208.198 -4.16449e-17 243.921)
(197.275 -1.5355e-16 217.741)
(91.6953 0 125.342)
(-5.96715 -1.55054e-16 50.2219)
(-55.3407 2.07785e-16 -14.0386)
(-57.1638 1.20733e-16 -38.5379)
(-26.9536 -5.16617e-17 -23.3768)
(-0.411745 0 -11.544)
(9.37397 -4.43231e-17 -3.32712)
(5.50966 0 -1.08188)
(-2.22339 0 -1.24187)
(-7.17962 0 -1.72213)
(-7.46338 0 -1.85741)
(-4.20741 0 -1.38311)
(-0.0318789 -3.57594e-19 -0.348518)
(2.2794 -3.01354e-17 0.60533)
(1.49564 0 1.04708)
(-1.41421 -2.87749e-17 1.04163)
(-4.15852 0 1.03496)
(-4.97447 0 1.35182)
(-3.82443 0 1.89816)
(-2.08103 8.96647e-17 2.3779)
(-1.15004 0 2.60023)
(-1.44454 0 2.63469)
(-2.40457 0 2.65917)
(-3.22158 0 2.79886)
(-3.49841 1.31669e-16 3.06279)
(-3.42815 0 3.36718)
(-3.53487 0 3.61872)
(-4.30207 3.1947e-17 3.72293)
(-5.78777 0 3.85576)
(-7.62875 0 4.28729)
(-9.4176 1.10931e-16 5.06927)
(-10.9039 -6.08946e-17 6.13443)
(-12.0826 0 7.29209)
(-13.0475 0 8.26917)
(-13.721 0 8.74603)
(-13.9446 4.30307e-17 8.4081)
(-13.0829 0 7.21596)
(-10.6629 0 5.10974)
(-6.16916 3.38712e-17 1.96824)
(0.614202 9.2391e-17 -2.0682)
(8.92225 0 -6.46998)
(17.749 0 -10.9109)
(25.4577 0 -14.7957)
(31.288 -8.35987e-17 -17.8429)
(33.9665 2.05556e-16 -19.3255)
(33.8492 6.28534e-16 -18.8491)
(29.1114 8.11687e-16 -16.0496)
(21.8021 6.49397e-16 -11.0655)
(9.19165 -6.98152e-16 -3.41419)
(-4.45876 0 4.60103)
(-19.4865 0 12.3184)
(-31.7043 3.86318e-16 20.039)
(-43.5806 0 25.7417)
(-51.8601 0 32.0039)
(-59.3505 0 34.7974)
(-59.4724 0 34.9001)
(-56.6848 0 32.3164)
(-52.1423 -2.673e-15 29.6611)
(-44.5004 0 24.9888)
(-43.9935 -1.10155e-15 25.1137)
(-32.9245 0 19.0329)
(-41.1135 -1.08829e-18 24.0174)
(-30.4757 1.80269e-15 19.2894)
(-64.3534 0 38.2499)
(-46.2496 0 26.112)
(-76.5526 0 39.2178)
(35.9443 0 -17.5932)
(-120.505 -6.53518e-16 71.2868)
(-62.7021 0 21.6411)
(87.5381 0 -78.7522)
(189.625 0 -99.255)
(8.97043 0 0.693809)
(99.3939 0 -62.2026)
(68.2094 0 -30.2759)
(-36.3965 0 24.2781)
(22.6961 0 -10.7849)
(-62.5486 -2.24747e-15 38.8414)
(-12.0465 0 2.94335)
(0.429415 0 -0.67981)
(-3.67959 0 0.244376)
(34.0848 1.87549e-15 -22.9157)
(70.5988 0 -44.574)
(106.692 4.55513e-16 -64.6447)
(111.069 0 -64.6911)
(107.763 -5.92768e-18 -61.5569)
(103.814 0 -57.3699)
(47.2294 -1.6485e-15 -18.1131)
(-51.7505 0 40.0795)
(-104.572 0 63.666)
(-88.7964 0 50.7373)
(-88.4971 2.19212e-15 48.5192)
(-50.388 -7.55631e-16 21.5847)
(29.8837 -6.14945e-15 -22.8981)
(75.5918 -1.16897e-16 -44.4012)
(11.0535 0 3.78921)
(17.9993 -4.51336e-19 2.93482)
(16.6383 0 0.0544943)
(7.17204 0 -2.29227)
(-3.73424 5.89367e-18 -2.81099)
(-8.99433 -2.13768e-19 -1.15676)
(-5.29347 5.25217e-18 1.8665)
(4.39766 -1.97354e-17 4.06845)
(13.45 0 3.36757)
(16.901 2.64225e-20 -0.506536)
(14.3091 -7.53156e-19 -5.98815)
(7.80595 0 -10.5706)
(-0.798737 0 -11.2813)
(-9.92481 0 -5.51635)
(-15.4648 0 6.70154)
(-10.5026 3.88955e-18 20.5187)
(6.07726 3.16388e-18 25.2027)
(19.4259 1.85211e-18 7.95187)
(7.97097 2.42473e-17 -32.2746)
(-29.3478 0 -73.3515)
(-59.2648 -2.20482e-17 -78.3837)
(-38.7057 5.24822e-17 -25.216)
(40.1952 0 68.5073)
(133.844 -7.36128e-17 154.471)
(176.25 1.15684e-16 184.167)
(130.297 4.43918e-17 141.802)
(27.4158 0 62.0477)
(-49.9247 0 6.51714)
(-74.551 -1.9577e-16 -24.7915)
(-58.3543 -4.20682e-17 -39.948)
(-19.5944 1.21221e-16 -22.5899)
(3.99916 0 -8.92042)
(11.5678 8.75789e-17 -2.08085)
(6.04388 0 -0.55341)
(-2.18717 0 -0.897753)
(-7.22392 4.05811e-17 -1.44093)
(-7.50348 0 -1.68797)
(-4.17322 1.30103e-17 -1.24017)
(-0.00853404 -1.09576e-19 -0.215767)
(2.15199 2.69043e-17 0.704436)
(1.20121 0 1.14214)
(-1.77924 1.5538e-18 1.19004)
(-4.48558 0 1.28112)
(-5.24683 0 1.69157)
(-4.10945 0 2.28451)
(-2.45036 0 2.76508)
(-1.62201 0 2.97255)
(-1.98698 6.2969e-17 3.01235)
(-2.97519 0 3.08498)
(-3.80588 0 3.30359)
(-4.11656 -6.07143e-17 3.6517)
(-4.12262 0 4.02512)
(-4.35591 -3.90106e-17 4.31854)
(-5.25787 -2.77931e-17 4.48158)
(-6.87388 4.3352e-17 4.67559)
(-8.84758 0 5.16919)
(-10.7666 -5.2164e-17 6.04926)
(-12.3894 -5.76085e-17 7.22418)
(-13.7038 0 8.4696)
(-14.7808 0 9.46999)
(-15.4986 0 9.86713)
(-15.6495 -4.04033e-17 9.31452)
(-14.5432 0 7.77719)
(-11.6405 0 5.22326)
(-6.40255 -1.67358e-17 1.51923)
(1.38813 -8.12703e-17 -3.15746)
(10.8643 0 -8.20067)
(20.9146 0 -13.2427)
(29.6822 0 -17.6042)
(36.2768 0 -20.9458)
(39.2313 1.93394e-16 -22.436)
(38.7885 -5.89314e-16 -21.4517)
(32.9612 0 -17.7667)
(23.7792 0 -11.3697)
(8.29113 6.54307e-16 -1.9047)
(-8.74328 0 8.21377)
(-27.1953 2.67086e-16 17.6256)
(-41.6043 3.63341e-16 26.6237)
(-54.4647 0 32.4693)
(-62.3275 0 38.6653)
(-69.3148 0 40.6664)
(-68.4004 0 40.0886)
(-64.2738 0 36.3311)
(-58.5044 1.24732e-15 33.013)
(-49.5733 0 27.5247)
(-48.4254 2.05568e-15 27.4194)
(-36.0227 0 20.5535)
(-44.7142 -2.60684e-18 26.1544)
(-32.0225 3.87044e-18 20.7842)
(-70.328 0 42.0608)
(-41.8843 2.70159e-15 23.95)
(-95.5228 0 47.4554)
(59.339 0 -29.8849)
(-134.587 1.22383e-15 82.4805)
(-92.6607 0 32.796)
(65.7677 0 -70.573)
(208.287 0 -107.324)
(18.0722 0 -2.0171)
(117.252 0 -74.0294)
(82.5593 0 -34.4696)
(-36.3726 0 25.9085)
(26.0291 0 -11.9806)
(-68.287 2.0997e-15 43.1469)
(-13.2044 0 1.84535)
(1.23063 0 -1.26431)
(-3.20566 0 -0.928548)
(41.2788 -1.74092e-15 -29.8052)
(87.1651 -1.68971e-15 -55.7818)
(123.484 -4.1046e-16 -75.1315)
(120.54 3.01886e-16 -69.9624)
(113.773 -6.97798e-18 -64.4728)
(104.055 8.49907e-16 -55.2161)
(35.888 3.0829e-15 -8.08393)
(-68.7088 0 52.9772)
(-116.791 -5.52549e-16 71.1941)
(-94.7121 -7.05167e-18 53.7032)
(-96.2812 0 52.1892)
(-58.4341 3.5175e-16 23.7461)
(23.6721 2.86795e-15 -21.9119)
(82.3547 1.09114e-16 -49.2096)
(11.4525 0 3.89125)
(16.9419 -1.3052e-19 3.44702)
(14.9335 0 1.28965)
(6.13244 0 -0.612176)
(-3.37578 -5.54951e-18 -1.1695)
(-7.61103 2.01194e-19 -0.184835)
(-4.33284 -4.94344e-18 1.52535)
(3.48534 1.65467e-17 2.2208)
(10.4405 0 0.587003)
(13.088 2.40544e-18 -3.01617)
(11.728 -2.12948e-18 -7.00729)
(8.2731 0 -9.60687)
(3.61855 3.70218e-18 -8.95971)
(-2.29924 0 -3.55103)
(-7.47921 7.6749e-18 6.39889)
(-7.12244 -8.3441e-19 16.8619)
(-0.138371 -8.45793e-18 19.1889)
(4.42083 -1.74358e-18 4.49688)
(-4.85843 -4.61088e-17 -25.3855)
(-23.8599 0 -51.4704)
(-28.2212 2.07567e-17 -47.4628)
(5.45195 0 -2.81371)
(70.7646 0 63.1273)
(127.276 4.7596e-17 111.83)
(129.472 -2.09744e-16 113.269)
(65.5711 0 68.2263)
(-23.7259 0 10.5122)
(-78.2732 0 -22.5745)
(-81.2823 1.24084e-16 -32.2217)
(-47.3761 3.94238e-18 -23.016)
(-12.6523 2.08184e-17 -15.9873)
(11.0464 8.31501e-17 -2.98425)
(13.9153 -8.83471e-17 0.104215)
(6.58859 7.51152e-19 0.26936)
(-2.15464 2.9641e-17 -0.438821)
(-7.30656 -4.18742e-19 -1.13469)
(-7.59754 0 -1.55486)
(-4.12009 -1.22362e-17 -1.05328)
(0.0525324 1.77673e-17 -0.00491098)
(2.05138 -2.52997e-17 0.87198)
(0.922063 0 1.27449)
(-2.13361 1.07276e-17 1.34314)
(-4.80363 1.16761e-17 1.50797)
(-5.51431 2.2e-17 2.00067)
(-4.39484 3.15234e-17 2.64237)
(-2.82154 0 3.13428)
(-2.09096 0 3.33939)
(-2.51705 -4.13847e-18 3.39281)
(-3.52728 0 3.51059)
(-4.37146 0 3.79678)
(-4.72168 -5.03934e-17 4.2115)
(-4.81124 4.42407e-17 4.63393)
(-5.16855 3.66379e-17 4.95484)
(-6.19254 1.24476e-18 5.16289)
(-7.90598 -7.94877e-19 5.42171)
(-9.96163 0 5.98771)
(-11.9563 0 6.95821)
(-13.6583 1.08664e-16 8.22262)
(-15.0521 0 9.52587)
(-16.1931 0 10.5132)
(-16.927 1.21973e-17 10.795)
(-17.0058 0 10.0014)
(-15.6918 0 8.09964)
(-12.3804 -7.61763e-17 5.1036)
(-6.51992 2.00752e-17 0.865547)
(2.12895 6.98377e-17 -4.39933)
(12.6247 0 -10.0161)
(23.7738 -6.62495e-17 -15.576)
(33.5155 0 -20.3315)
(40.8489 0 -23.8468)
(43.9778 -3.62321e-16 -25.399)
(43.2658 0 -23.7275)
(36.3851 0 -19.066)
(25.3508 0 -11.1806)
(6.98304 0 0.141986)
(-13.5167 0 12.4784)
(-35.5139 -2.50108e-16 23.5839)
(-52.0466 2.84462e-19 33.6838)
(-65.4833 5.04382e-17 39.3051)
(-72.2355 6.59937e-16 45.0911)
(-78.3014 0 45.922)
(-76.1259 0 44.4759)
(-70.5835 0 39.5112)
(-63.645 0 35.5341)
(-53.5645 0 29.3537)
(-51.7738 -9.25882e-18 29.0944)
(-38.2505 0 21.5637)
(-46.9931 -1.25037e-15 28.1524)
(-32.6122 4.33544e-18 21.8326)
(-74.6473 0 44.737)
(-35.067 -2.52597e-15 20.8953)
(-118.726 0 57.4756)
(76.1095 1.80851e-15 -38.6022)
(-141.117 -1.45026e-19 91.1041)
(-119.128 0 42.7988)
(36.3379 0 -44.7341)
(217.674 0 -111.384)
(25.6516 0 -3.73345)
(134.102 -2.51002e-15 -85.5857)
(98.001 0 -38.6514)
(-34.1635 0 26.2996)
(28.4057 -4.26611e-16 -12.4326)
(-71.8018 0 46.392)
(-14.7801 -3.38075e-16 0.704393)
(2.02313 1.60576e-15 -1.89545)
(-1.62977 0 -2.97493)
(50.1559 3.24355e-15 -36.3585)
(103.902 9.58658e-18 -67.4119)
(138.071 7.56553e-16 -84.2053)
(125.86 -2.81873e-16 -72.6182)
(116.843 1.03178e-15 -65.1521)
(99.021 -7.93502e-16 -52.0163)
(24.4395 -1.4412e-15 2.76403)
(-84.3638 -6.33015e-16 65.7298)
(-126.766 5.15817e-16 77.4279)
(-98.2686 6.58261e-18 55.2974)
(-101.634 -1.89257e-15 54.5106)
(-65.0421 -3.21839e-16 24.7512)
(18.6476 0 -22.1075)
(86.8643 0 -53.0788)
(11.6108 0 2.78886)
(15.4398 -1.86513e-18 2.5975)
(12.9058 0 1.08237)
(4.75187 0 -0.380321)
(-3.69882 0 -0.959548)
(-7.45037 0 -0.510274)
(-4.80361 3.50876e-18 0.373703)
(1.65663 -4.71428e-18 0.435478)
(7.55701 3.47948e-18 -1.18422)
(10.3309 -3.64871e-18 -3.97687)
(10.4514 2.00204e-18 -6.62593)
(9.44173 0 -8.00396)
(7.49488 -3.48036e-18 -7.10517)
(3.56555 0 -2.956)
(-1.69625 -7.21508e-18 4.54378)
(-4.91496 -1.18074e-19 12.6372)
(-4.47109 0 14.9396)
(-4.50621 0 5.3152)
(-9.4648 2.18914e-17 -14.0614)
(-13.8132 0 -29.3891)
(-2.59517 0 -24.1516)
(32.8571 -3.83157e-17 4.97013)
(78.9235 0 41.3029)
(103.029 0 59.0216)
(78.5239 1.29543e-16 43.421)
(10.503 0 4.34724)
(-60.8452 0 -30.778)
(-93.4334 0 -42.3649)
(-79.7105 -1.97722e-16 -34.6991)
(-39.7498 0 -18.5624)
(-2.73607 1.05817e-17 -5.94952)
(15.4419 4.38778e-18 1.26032)
(15.3753 4.25103e-17 2.53597)
(6.90971 -7.05605e-19 1.23696)
(-2.27407 -5.66362e-17 -0.101574)
(-7.4776 -3.54774e-17 -0.880166)
(-7.76504 0 -1.53066)
(-4.01343 0 -0.832616)
(0.16827 1.62488e-17 0.270918)
(1.98548 -2.06814e-17 1.09526)
(0.666975 0 1.43708)
(-2.46353 0 1.49995)
(-5.09441 -1.48675e-18 1.71812)
(-5.75772 -2.06614e-17 2.2805)
(-4.66381 -2.96029e-17 2.9673)
(-3.18112 -5.96074e-17 3.47407)
(-2.5461 0 3.68309)
(-3.0255 -4.6834e-18 3.75378)
(-4.05083 0 3.91254)
(-4.90634 0 4.25517)
(-5.2978 4.72982e-17 4.72176)
(-5.47111 -4.15195e-17 5.17928)
(-5.94107 0 5.52116)
(-7.06435 2.33217e-17 5.76848)
(-8.839 -9.14175e-19 6.09193)
(-10.9279 0 6.73109)
(-12.9447 0 7.78114)
(-14.6716 -1.02996e-16 9.11452)
(-16.0956 0 10.4474)
(-17.2642 0 11.3899)
(-18.0018 -2.29782e-17 11.5281)
(-18.0274 0 10.4764)
(-16.5601 0 8.20131)
(-12.9331 1.44101e-16 4.78126)
(-6.59143 -1.88151e-17 0.0493166)
(2.74886 -3.10734e-17 -5.74517)
(14.1018 0 -11.8661)
(26.215 6.20705e-17 -17.8637)
(36.8486 0 -22.9375)
(44.8671 7.53131e-17 -26.545)
(48.4459 1.69606e-16 -27.6873)
(47.3364 0 -25.6682)
(39.48 0 -19.9881)
(26.7156 -5.07634e-16 -10.5837)
(5.5905 -5.50345e-16 2.631)
(-18.3976 0 17.2302)
(-44.0362 0 30.011)
(-62.6668 -6.37356e-16 41.0267)
(-76.3065 -4.71997e-17 46.0626)
(-81.5053 -1.2292e-15 50.8363)
(-86.1599 0 50.4333)
(-82.551 0 47.9833)
(-75.5939 0 41.8409)
(-67.6044 0 37.2374)
(-56.5414 0 30.4992)
(-54.1679 -1.22024e-17 30.1053)
(-39.6773 0 22.0641)
(-48.6403 0 29.0052)
(-32.446 4.51418e-18 22.527)
(-77.3199 0 46.2352)
(-28.1859 -2.35327e-15 18.5792)
(-145.273 0 68.9955)
(78.8111 -1.69019e-15 -39.9752)
(-139.996 -2.38663e-18 96.803)
(-136.619 0 48.0833)
(-16.5488 0 -37.9602)
(219.869 0 -112.856)
(29.742 0 -3.55903)
(149.221 1.45555e-17 -96.6036)
(114.581 -1.54064e-15 -42.684)
(-29.4786 -1.22503e-16 26.1037)
(29.6617 3.9845e-16 -12.0247)
(-72.9687 0 48.4889)
(-16.8652 3.15724e-16 -0.411633)
(2.68229 -1.49952e-15 -2.559)
(1.19168 0 -5.96831)
(59.375 -1.51058e-15 -45.05)
(120.348 2.91674e-15 -79.0804)
(149.819 -3.48518e-16 -91.3902)
(127.026 0 -72.5462)
(118.298 -9.80076e-16 -63.9191)
(93.0531 0 -43.7217)
(17.2918 0 11.379)
(-97.6954 5.90906e-16 76.9576)
(-135.658 0 82.5704)
(-100.439 0 55.8674)
(-104.623 1.76651e-15 55.4846)
(-70.1499 3.00393e-16 24.8038)
(19.6659 2.47297e-15 -26.1588)
(88.7514 -8.58434e-17 -55.6753)
(11.4905 0 1.04527)
(13.7532 1.75302e-18 0.897493)
(10.7935 7.34987e-18 -0.126953)
(3.19328 0 -1.1816)
(-4.3729 0 -1.66485)
(-7.76512 0 -1.44732)
(-5.60836 -3.29702e-18 -0.886461)
(0.000879363 0 -0.835461)
(5.46495 -3.26873e-18 -1.92336)
(8.61395 0 -3.78974)
(9.80761 0 -5.49204)
(10.2813 2.09221e-18 -6.36077)
(9.94546 0 -5.88711)
(7.3754 7.39663e-18 -3.27607)
(2.37669 -8.29522e-18 2.07617)
(-2.77676 1.10691e-19 8.71616)
(-6.07064 0 12.2191)
(-8.16777 1.08448e-19 8.09468)
(-9.27776 0 -2.60196)
(-4.47687 -5.77004e-17 -11.6084)
(13.3458 0 -10.0907)
(43.4534 3.59875e-17 1.76216)
(70.3284 1.03633e-17 12.3966)