/*--------------------------------*- C++ -*----------------------------------*\
| =========                 |                                                 |
| \\      /  F ield         | OpenFOAM: The Open Source CFD Toolbox           |
|  \\    /   O peration     | Version:  2412                                  |
|   \\  /    A nd           | Website:  www.openfoam.com                      |
|    \\/     M anipulation  |                                                 |
\*---------------------------------------------------------------------------*/
FoamFile
{
    version     2.0;
    format      ascii;
    arch        "LSB;label=32;scalar=64";
    class       volScalarField;
    location    "1.05";
    object      p;
}
// * * * * * * * * * * * * * * * * * * * * * * * * * * * * * * * * * * * * * //

dimensions      [0 2 -2 0 0 0 0];

internalField   nonuniform List<scalar> 
12600
(
-0.613874
-83.0175
-60.3454
-9.01879
34.5784
67.8753
94.2842
116.143
134.767
150.944
165.159
177.8
189.106
199.21
208.176
216.06
223.096
229.496
235.637
241.666
247.37
252.291
255.951
258.536
260.632
263.005
266.132
269.544
272.512
274.779
276.617
278.284
279.862
281.314
282.597
283.723
284.738
285.683
286.579
287.427
288.217
288.939
289.588
290.179
290.732
291.264
291.778
292.267
292.723
293.148
293.561
293.982
294.428
294.911
295.429
295.985
296.578
297.206
297.848
298.468
298.988
299.311
299.311
298.87
297.872
296.276
294.056
291.336
288.186
284.864
281.469
278.312
275.579
273.658
272.954
273.886
276.591
280.944
286.704
293.273
299.722
305.978
311.559
316.203
319.24
322.089
325.255
327.055
331.027
330.155
335.421
313.435
303.834
255.564
202.287
167.336
108.511
142.849
127.071
135.721
151.615
141.419
156.797
157.463
153.136
150.887
145.619
121.377
88.5215
46.66
39.3312
64.9863
129.51
194.467
282.785
349.833
423.179
454.109
485.958
425.816
59.3012
-16.9346
-25.695
0.333749
33.286
63.9168
90.0334
112.146
131.138
147.702
162.331
175.323
186.911
197.198
206.456
214.498
221.737
228.4
234.801
240.973
246.632
251.381
254.934
257.633
260.045
262.789
266.151
269.517
272.324
274.501
276.337
278.046
279.664
281.139
282.434
283.57
284.599
285.561
286.474
287.336
288.136
288.862
289.515
290.109
290.669
291.211
291.733
292.226
292.684
293.111
293.526
293.949
294.397
294.88
295.396
295.948
296.537
297.161
297.803
298.425
298.951
299.285
299.298
298.877
297.904
296.337
294.144
291.449
288.315
285
281.604
278.442
275.686
273.73
272.977
273.863
276.51
280.8
286.503
293.054
299.501
305.771
311.376
316.066
319.142
322.002
325.187
326.971
330.971
330.067
335.513
313.821
304.408
256.716
203.435
168.595
108.968
142.701
127.263
135.489
151.541
141.367
156.576
157.485
153.204
150.954
145.939
122.064
89.4462
47.3169
39.2532
64.0564
128.068
192.748
281.056
348.276
422.03
453.403
486.114
426.38
85.4355
29.2739
5.49527
14.0632
37.9945
64.5945
89.0876
110.658
129.544
146.154
160.848
173.923
185.605
196.005
205.253
213.438
220.83
227.652
234.186
240.386
245.909
250.379
253.91
256.886
259.803
262.978
266.365
269.623
272.23
274.313
276.145
277.883
279.529
281.02
282.324
283.471
284.512
285.486
286.408
287.278
288.083
288.812
289.468
290.067
290.631
291.178
291.704
292.2
292.66
293.089
293.505
293.928
294.376
294.856
295.372
295.923
296.511
297.133
297.773
298.395
298.924
299.264
299.289
298.883
297.927
296.377
294.199
291.515
288.391
285.085
281.683
278.513
275.747
273.774
272.997
273.844
276.457
280.716
286.397
292.936
299.388
305.667
311.281
315.992
319.093
321.959
325.153
326.932
330.938
330.017
335.58
314.015
304.741
257.293
203.928
169.123
109.21
142.624
127.39
135.372
151.511
141.342
156.465
157.501
153.235
150.99
146.069
122.352
89.8651
47.6286
39.1835
63.6775
127.591
192.204
280.493
347.753
421.625
453.139
486.198
426.592
94.1838
59.0572
34.7635
32.4272
46.4638
67.3771
89.2383
109.687
128.133
144.606
159.299
172.43
184.188
194.685
204.064
212.388
219.905
226.871
233.473
239.629
245.049
249.493
253.121
256.361
259.718
263.297
266.67
269.667
272.059
274.072
275.908
277.682
279.36
280.87
282.189
283.35
284.404
285.39
286.324
287.203
288.015
288.75
289.41
290.014
290.584
291.135
291.666
292.166
292.627
293.059
293.476
293.901
294.349
294.828
295.341
295.891
296.476
297.097
297.737
298.361
298.894
299.243
299.281
298.892
297.957
296.43
294.274
291.61
288.5
285.203
281.799
278.617
275.83
273.828
273.013
273.818
276.384
280.595
286.229
292.746
299.204
305.499
311.136
315.883
319.014
321.885
325.094
326.862
330.895
329.955
335.667
314.344
305.24
258.227
204.892
170.148
109.516
142.499
127.535
135.18
151.456
141.296
156.287
157.525
153.291
151.05
146.355
122.929
90.6097
48.1161
39.0599
62.8341
126.25
190.646
278.957
346.391
420.637
452.553
486.334
427.075
101.745
81.9661
62.1145
53.5169
58.5573
72.8879
91.0858
109.733
127.355
143.477
158.04
171.144
182.927
193.494
202.968
211.418
219.063
226.115
232.715
238.806
244.158
248.668
252.536
256.143
259.816
263.527
266.916
269.624
271.873
273.809
275.663
277.478
279.188
280.719
282.053
283.227
284.294
285.293
286.238
287.126
287.945
288.685
289.351
289.96
290.535
291.092
291.627
292.129
292.594
293.028
293.448
293.874
294.322
294.8
295.312
295.859
296.441
297.06
297.699
298.324
298.862
299.221
299.273
298.903
297.989
296.486
294.352
291.705
288.606
285.314
281.907
278.716
275.912
273.882
273.027
273.787
276.305
280.472
286.072
292.579
299.038
305.345
310.998
315.778
318.941
321.823
325.044
326.803
330.851
329.894
335.755
314.645
305.736
259.058
205.618
170.993
109.774
142.367
127.67
135
151.414
141.256
156.119
157.551
153.341
151.109
146.57
123.393
91.2234
48.5014
38.8778
62.1523
125.409
189.67
277.953
345.471
419.945
452.118
486.443
427.427
110.493
99.6455
84.7615
74.2184
73.3327
81.4402
95.0731
111.041
127.298
142.777
157.054
170.048
181.812
192.42
201.968
210.524
218.268
225.374
231.956
237.974
243.305
247.941
252.072
256.001
259.897
263.64
266.885
269.413
271.532
273.557
275.397
277.263
279.01
280.562
281.911
283.1
284.18
285.191
286.147
287.044
287.871
288.617
289.289
289.903
290.484
291.046
291.585
292.091
292.558
292.995
293.417
293.845
294.293
294.77
295.28
295.824
296.403
297.02
297.658
298.285
298.829
299.199
299.266
298.916
298.026
296.548
294.437
291.81
288.724
285.438
282.029
278.824
275.998
273.936
273.037
273.749
276.217
280.335
285.893
292.379
298.847
305.171
310.846
315.665
318.858
321.746
324.984
326.735
330.805
329.831
335.84
314.989
306.293
259.96
206.512
171.818
109.982
142.2
127.775
134.787
151.359
141.208
155.926
157.581
153.399
151.178
146.86
123.955
91.8962
48.8568
38.6006
61.2134
124.036
188.111
276.424
344.12
418.969
451.538
486.544
427.89
118.893
112.596
102.088
92.6387
89.0548
92.4004
101.374
113.941
128.147
142.549
156.32
169.103
180.805
191.434
201.045
209.692
217.514
224.654
231.213
237.187
242.538
247.315
251.696
255.879
259.908
263.606
266.703
269.149
271.194
273.117
275.172
277.051
278.828
280.402
281.766
282.968
284.061
285.084
286.051
286.958
287.793
288.546
289.223
289.843
290.43
290.997
291.54
292.05
292.52
292.96
293.384
293.814
294.262
294.738
295.245
295.786
296.363
296.977
297.614
298.244
298.795
299.176
299.259
298.931
298.066
296.615
294.529
291.922
288.85
285.568
282.155
278.937
276.087
273.989
273.042
273.702
276.115
280.185
285.702
292.176
298.647
304.989
310.685
315.545
318.771
321.67
324.923
326.661
330.755
329.765
335.916
315.342
306.896
260.843
207.328
172.9
110.112
141.985
127.823
134.556
151.31
141.159
155.715
157.615
153.459
151.253
147.157
124.497
92.4977
49.0974
38.1981
60.2278
122.844
186.767
275.067
342.893
418.067
450.978
486.605
428.315
126.494
122.67
115.567
108.236
104.036
104.475
109.631
118.665
130.242
143.005
155.903
168.289
179.854
190.478
200.146
208.881
216.779
223.956
230.506
236.467
241.864
246.782
251.365
255.715
259.801
263.425
266.407
268.793
270.852
272.833
274.824
276.856
278.658
280.238
281.619
282.834
283.939
284.973
285.951
286.869
287.711
288.47
289.154
289.78
290.374
290.946
291.493
292.006
292.48
292.922
293.35
293.781
294.229
294.704
295.208
295.745
296.318
296.93
297.568
298.2
298.758
299.152
299.254
298.948
298.111
296.688
294.629
292.044
288.985
285.708
282.288
279.056
276.178
274.041
273.04
273.643
276
280.019
285.494
291.952
298.431
304.794
310.513
315.417
318.678
321.586
324.858
326.596
330.703
329.693
335.973
315.716
307.552
261.722
208.181
173.642
110.145
141.696
127.769
134.284
151.252
141.106
155.478
157.652
153.524
151.335
147.473
125.057
93.0224
49.191
37.6381
59.0629
121.31
185.066
273.394
341.412
417.003
450.33
486.617
428.781
133.615
131.382
126.581
121.129
117.308
116.422
119.013
125.008
133.802
144.463
156.018
167.68
178.931
189.479
199.19
208.019
216.011
223.252
229.829
235.813
241.273
246.312
251.033
255.475
259.555
263.104
266.015
268.395
270.498
272.549
274.623
276.607
278.471
280.092
281.468
282.699
283.814
284.86
285.848
286.775
287.625
288.392
289.081
289.714
290.314
290.891
291.443
291.96
292.438
292.883
293.313
293.745
294.194
294.667
295.167
295.701
296.271
296.88
297.517
298.153
298.719
299.127
299.248
298.968
298.159
296.768
294.737
292.174
289.129
285.856
282.435
279.181
276.272
274.091
273.029
273.571
275.866
279.835
285.269
291.716
298.201
304.587
310.33
315.282
318.578
321.497
324.789
326.506
330.647
329.615
336.008
316.108
308.261
262.593
209.012
174.565
110.063
141.299
127.561
133.956
151.188
141.052
155.208
157.689
153.592
151.424
147.809
125.592
93.3978
49.0869
36.8893
57.7333
119.767
183.379
271.708
339.899
415.913
449.647
486.557
429.232
140.413
139.237
135.865
131.792
128.704
127.486
128.622
132.38
138.697
147.123
156.962
167.495
178.125
188.419
198.098
207.012
215.126
222.475
229.133
235.185
240.725
245.859
250.661
255.133
259.178
262.667
265.556
267.974
270.157
272.286
274.407
276.443
278.273
279.9
281.342
282.557
283.686
284.744
285.743
286.679
287.537
288.309
289.005
289.645
290.251
290.834
291.39
291.911
292.393
292.841
293.274
293.708
294.156
294.627
295.124
295.653
296.219
296.826
297.463
298.103
298.678
299.1
299.243
298.989
298.212
296.854
294.853
292.315
289.284
286.015
282.575
279.311
276.368
274.137
273.007
273.481
275.711
279.63
285.024
291.457
297.953
304.366
310.134
315.138
318.47
321.401
324.716
326.433
330.588
329.53
336.019
316.522
309.017
263.474
209.87
175.357
109.858
140.756
127.132
133.547
151.112
140.995
154.901
157.727
153.663
151.519
148.171
126.08
93.5656
48.7501
35.9139
56.26
117.965
181.426
269.783
338.185
414.697
448.887
486.409
429.685
146.826
146.341
143.907
140.84
138.486
137.382
137.817
140.124
144.52
150.91
158.915
168.013
177.67
187.415
196.876
205.793
214.023
221.523
228.323
234.497
240.144
245.364
250.215
254.685
258.694
262.155
265.066
267.563
269.843
272.053
274.219
276.269
278.121
279.735
281.137
282.456
283.563
284.626
285.637
286.581
287.445
288.224
288.926
289.573
290.185
290.774
291.335
291.86
292.345
292.798
293.233
293.668
294.116
294.584
295.077
295.601
296.163
296.767
297.404
298.048
298.633
299.071
299.237
299.013
298.269
296.947
294.978
292.465
289.45
286.185
282.753
279.448
276.465
274.179
272.972
273.37
275.529
279.4
284.758
291.187
297.689
304.131
309.925
314.984
318.354
321.3
324.639
326.341
330.524
329.441
336.014
316.958
309.803
264.392
210.759
176.135
109.536
140.02
126.414
133.015
151.019
140.936
154.55
157.765
153.737
151.619
148.544
126.477
93.4613
48.1486
34.7186
54.5589
116.032
179.375
267.744
336.353
413.402
448.066
486.151
430.112
152.836
152.829
151.085
148.758
146.987
146.121
146.289
147.753
150.798
155.533
161.832
169.393
177.825
186.715
195.681
204.406
212.654
220.292
227.274
233.626
239.422
244.748
249.653
254.132
258.132
261.606
264.581
267.181
269.569
271.858
274.056
276.117
277.969
279.591
281.003
282.226
283.437
284.519
285.529
286.482
287.352
288.135
288.844
289.497
290.116
290.711
291.277
291.806
292.295
292.751
293.189
293.626
294.072
294.537
295.025
295.545
296.102
296.704
297.341
297.989
298.584
299.04
299.231
299.037
298.33
297.046
295.113
292.627
289.627
286.365
282.914
279.592
276.563
274.214
272.92
273.233
275.319
279.14
284.47
290.888
297.405
303.88
309.7
314.821
318.229
321.19
324.556
326.252
330.455
329.35
336.005
317.412
310.595
265.368
211.713
176.856
109.113
139.044
125.343
132.305
150.899
140.879
154.152
157.8
153.812
151.713
148.934
126.728
93.01
47.257
33.2753
52.6678
113.85
177.079
265.479
334.317
411.975
447.171
485.766
430.506
158.499
158.838
157.615
155.824
154.481
153.857
153.974
154.985
157.144
160.64
165.505
171.615
178.734
186.56
194.767
203.04
211.106
218.762
225.888
232.438
238.431
243.911
248.917
253.455
257.501
261.041
264.119
266.842
269.339
271.697
273.927
275.987
277.831
279.451
280.868
282.133
283.281
284.394
285.436
286.381
287.257
288.045
288.759
289.419
290.045
290.645
291.215
291.749
292.242
292.702
293.143
293.58
294.026
294.487
294.97
295.484
296.036
296.634
297.271
297.924
298.529
299.004
299.222
299.062
298.394
297.153
295.257
292.8
289.816
286.558
283.097
279.742
276.663
274.242
272.85
273.066
275.072
278.848
284.155
290.582
297.104
303.614
309.457
314.648
318.094
321.072
324.469
326.153
330.379
329.255
336.002
317.877
311.365
266.407
212.741
177.525
108.608
137.783
123.884
131.341
150.748
140.821
153.709
157.833
153.884
151.829
149.32
126.769
92.1559
46.0382
31.5562
50.4932
111.449
174.605
263.033
332.096
410.424
446.217
485.235
430.84
163.859
164.439
163.603
162.211
161.191
160.777
160.927
161.703
163.303
165.925
169.67
174.528
180.393
187.081
194.355
201.947
209.593
217.063
224.19
230.87
237.056
242.737
247.917
252.596
256.767
260.44
263.664
266.53
269.14
271.565
273.819
275.878
277.716
279.324
280.741
282.01
283.182
284.273
285.311
286.304
287.163
287.953
288.672
289.338
289.97
290.576
291.151
291.689
292.186
292.65
293.094
293.532
293.976
294.433
294.911
295.418
295.964
296.558
297.195
297.852
298.469
298.964
299.21
299.086
298.462
297.266
295.411
292.986
290.02
286.764
283.286
279.901
276.764
274.263
272.757
272.864
274.783
278.512
283.818
290.23
296.78
303.331
309.203
314.459
317.948
320.945
324.375
326.05
330.292
329.151
336.008
318.338
312.093
267.492
213.845
178.141
108.031
136.214
122.039
130.029
150.553
140.773
153.216
157.86
153.952
151.916
149.696
126.526
90.8531
44.4473
29.5479
48.0857
108.735
171.867
260.339
329.636
408.706
445.215
484.543
431.096
168.935
169.673
169.131
168.051
167.282
167.035
167.236
167.892
169.146
171.168
174.079
177.926
182.689
188.283
194.561
201.327
208.356
215.427
222.355
229.007
235.292
241.153
246.549
251.451
255.841
259.727
263.152
266.193
268.934
271.435
273.72
275.782
277.612
279.218
280.634
281.903
283.081
284.186
285.216
286.167
287.084
287.866
288.584
289.256
289.893
290.504
291.084
291.626
292.128
292.596
293.043
293.481
293.923
294.375
294.846
295.347
295.886
296.476
297.11
297.772
298.401
298.918
299.194
299.11
298.531
297.386
295.577
293.186
290.238
286.984
283.49
280.067
276.866
274.275
272.641
272.62
274.443
278.145
283.435
289.893
296.44
303.031
308.932
314.255
317.792
320.809
324.275
325.94
330.192
329.025
336.013
318.78
312.782
268.596
215.003
178.676
107.385
134.332
119.866
128.256
150.298
140.74
152.688
157.88
154.013
151.997
150.021
125.912
89.0818
42.4207
27.2282
45.2611
105.7
168.88
257.406
326.926
406.797
444.187
483.67
431.249
173.746
174.585
174.27
173.439
172.864
172.744
172.995
173.588
174.623
176.237
178.543
181.608
185.46
190.079
195.394
201.281
207.571
214.077
220.619
227.056
233.282
239.213
244.777
249.917
254.585
258.761
262.459
265.73
268.642
271.252
273.594
275.678
277.514
279.121
280.541
281.821
282.996
284.103
285.139
286.096
286.954
287.774
288.502
289.172
289.816
290.431
291.014
291.561
292.067
292.539
292.988
293.427
293.866
294.313
294.777
295.269
295.801
296.385
297.017
297.683
298.323
298.862
299.172
299.131
298.603
297.513
295.753
293.4
290.472
287.22
283.708
280.248
276.972
274.28
272.5
272.332
274.046
277.721
283.019
289.505
296.071
302.714
308.646
314.037
317.623
320.663
324.166
325.818
330.079
328.867
336.004
319.179
313.453
269.688
216.177
179.102
106.668
132.124
117.463
125.901
149.96
140.737
152.141
157.885
154.063
152.05
150.27
124.849
86.8231
39.9068
24.5751
42.07
102.253
165.581
254.182
323.923
404.648
443.128
482.579
431.277
178.314
179.213
179.073
178.44
178.016
177.993
178.285
178.844
179.735
181.066
182.936
185.411
188.537
192.333
196.78
201.814
207.323
213.165
219.187
225.251
231.249
237.093
242.701
247.996
252.91
257.391
261.413
264.985
268.139
270.922
273.371
275.52
277.393
279.024
280.46
281.75
282.936
284.043
285.068
286.022
286.891
287.669
288.407
289.099
289.736
290.356
290.944
291.493
292.004
292.479
292.931
293.37
293.806
294.247
294.703
295.186
295.709
296.285
296.914
297.582
298.234
298.797
299.142
299.147
298.674
297.647
295.942
293.63
290.725
287.476
283.942
280.434
277.082
274.279
272.335
271.994
273.583
277.235
282.557
289.113
295.697
302.381
308.345
313.803
317.444
320.506
324.05
325.688
329.94
328.672
335.967
319.511
314.125
270.742
217.324
179.362
105.93
129.668
114.918
122.846
149.504
140.78
151.601
157.868
154.108
152.061
150.366
123.219
84.0826
36.848
21.5581
38.3286
98.3757
161.95
250.65
320.607
402.209
441.988
481.215
431.166
182.656
183.584
183.576
183.102
182.799
182.851
183.175
183.711
184.501
185.632
187.184
189.217
191.779
194.905
198.607
202.864
207.614
212.76
218.184
223.767
229.402
235.008
240.507
245.819
250.864
255.573
259.891
263.787
267.252
270.296
272.942
275.226
277.191
278.888
280.369
281.688
282.889
283.998
285.024
285.961
286.819
287.602
288.32
289.001
289.674
290.284
290.871
291.425
291.939
292.418
292.872
293.31
293.742
294.177
294.624
295.097
295.609
296.176
296.799
297.469
298.131
298.718
299.102
299.157
298.745
297.786
296.143
293.879
290.999
287.753
284.197
280.652
277.201
274.276
272.148
271.603
273.047
276.674
282.049
288.675
295.277
302.03
308.028
313.556
317.256
320.341
323.923
325.541
329.783
328.424
335.896
319.753
314.794
271.722
218.433
179.436
105.22
127.017
112.262
118.992
148.881
140.892
151.109
157.83
154.14
152.023
150.271
120.968
80.8375
33.2317
18.1372
34.0198
93.9914
157.918
246.762
316.945
399.413
440.657
479.509
430.92
186.786
187.719
187.813
187.468
187.262
187.37
187.717
188.236
188.952
189.935
191.252
192.952
195.078
197.669
200.753
204.334
208.388
212.856
217.658
222.699
227.888
233.14
238.392
243.571
248.601
253.404
257.912
262.07
265.84
269.197
272.135
274.663
276.814
278.645
280.221
281.605
282.843
283.966
284.99
285.922
286.771
287.537
288.257
288.931
289.567
290.219
290.805
291.356
291.874
292.355
292.811
293.248
293.676
294.104
294.541
295.001
295.5
296.056
296.672
297.34
298.011
298.622
299.049
299.158
298.812
297.931
296.358
294.148
291.298
288.056
284.476
280.867
277.33
274.274
271.943
271.157
272.432
276.026
281.477
288.209
294.876
301.668
307.7
313.296
317.06
320.169
323.787
325.379
329.597
328.131
335.773
319.874
315.438
272.57
219.54
179.33
104.724
124.285
109.435
114.267
148.019
141.089
150.712
157.782
154.192
151.907
149.853
117.969
77.0779
29.0288
14.2778
29.0846
89.0764
153.413
242.494
312.918
396.201
438.999
477.41
430.574
190.719
191.64
191.81
191.57
191.442
191.593
191.954
192.458
193.117
193.988
195.125
196.571
198.36
200.528
203.108
206.12
209.56
213.403
217.598
222.08
226.774
231.606
236.511
241.433
246.307
251.06
255.621
259.925
263.917
267.552
270.801
273.647
276.095
278.173
279.933
281.44
282.756
283.923
284.963
285.895
286.734
287.498
288.204
288.875
289.519
290.128
290.734
291.294
291.807
292.292
292.749
293.185
293.608
294.028
294.453
294.899
295.384
295.925
296.529
297.194
297.872
298.507
298.978
299.148
298.874
298.081
296.588
294.44
291.626
288.393
284.788
281.15
277.481
274.279
271.725
270.668
271.733
275.278
280.826
287.697
294.405
301.292
307.361
313.026
316.861
319.993
323.639
325.198
329.377
327.772
335.588
319.858
316.029
273.224
220.692
179.123
104.465
121.474
106.297
108.649
146.824
141.383
150.484
157.747
154.251
151.694
149.122
114.24
72.7538
24.2704
9.90614
23.3575
83.5463
148.334
237.794
308.496
392.514
436.903
474.9
430.179
194.466
195.364
195.59
195.435
195.369
195.552
195.922
196.411
197.024
197.805
198.803
200.05
201.576
203.411
205.585
208.124
211.04
214.326
217.957
221.892
226.077
230.454
234.959
239.541
244.15
248.728
253.209
257.527
261.622
265.441
268.941
272.089
274.869
277.281
279.342
281.084
282.556
283.814
284.906
285.863
286.71
287.47
288.173
288.841
289.464
290.083
290.663
291.22
291.758
292.234
292.687
293.122
293.539
293.949
294.361
294.792
295.259
295.783
296.371
297.027
297.71
298.367
298.885
299.123
298.93
298.232
296.833
294.76
291.991
288.769
285.137
281.419
277.656
274.299
271.502
270.143
270.948
274.416
280.078
287.135
293.944
300.907
307.017
312.75
316.665
319.82
323.482
324.998
329.113
327.339
335.321
319.675
316.549
273.613
221.928
178.86
104.49
118.549
102.686
102.149
145.174
141.77
150.479
157.759
154.356
151.339
147.809
109.671
67.8067
18.9236
4.97579
17.0935
77.3532
142.563
232.624
303.645
388.305
434.318
471.98
429.775
198.04
198.905
199.17
199.085
199.07
199.275
199.648
200.122
200.695
201.405
202.291
203.381
204.698
206.267
208.116
210.269
212.744
215.548
218.673
222.096
225.784
229.694
233.775
237.976
242.253
246.564
250.855
255.07
259.149
263.038
266.687
270.058
273.12
275.857
278.26
280.333
282.088
283.55
284.762
285.783
286.666
287.447
288.155
288.814
289.442
290.044
290.62
291.165
291.674
292.175
292.633
293.057
293.468
293.87
294.268
294.681
295.127
295.629
296.197
296.839
297.521
298.199
298.765
299.08
298.973
298.388
297.096
295.111
292.399
289.197
285.541
281.788
277.873
274.342
271.281
269.586
270.077
273.426
279.207
286.504
293.412
300.516
306.672
312.474
316.481
319.659
323.318
324.774
328.801
326.821
334.946
319.309
316.961
273.749
223.214
178.612
104.987
115.863
98.6282
94.8672
142.918
142.226
150.789
157.863
154.58
150.855
146.063
104.397
62.1927
13.0301
-0.639682
9.59149
70.338
135.985
226.907
298.316
383.512
431.231
468.662
429.363
201.45
202.276
202.569
202.539
202.565
202.785
203.156
203.615
204.154
204.803
205.598
206.561
207.711
209.067
210.653
212.491
214.601
216.996
219.677
222.637
225.859
229.313
232.965
236.77
240.685
244.674
248.701
252.721
256.682
260.533
264.225
267.715
270.969
273.957
276.657
279.056
281.143
282.917
284.388
285.585
286.561
287.389
288.126
288.802
289.43
290.026
290.595
291.128
291.64
292.114
292.569
293.007
293.406
293.79
294.174
294.568
294.989
295.464
296.005
296.627
297.301
297.996
298.613
299.014
299.004
298.543
297.376
295.5
292.86
289.692
286.012
282.179
278.136
274.42
271.067
268.998
269.12
272.299
278.189
285.785
292.885
300.108
306.331
312.205
316.32
319.516
323.157
324.529
328.434
326.201
334.423
318.698
317.275
273.625
224.574
178.435
105.111
113.059
93.9906
86.9515
139.875
142.679
151.451
158.1
154.895
150.116
143.401
98.3298
55.7935
6.49624
-7.02245
1.77901
62.4273
128.47
220.561
292.444
378.094
427.61
464.955
428.934
204.706
205.49
205.799
205.813
205.871
206.101
206.467
206.909
207.417
208.016
208.734
209.593
210.607
211.79
213.163
214.744
216.553
218.604
220.906
223.459
226.257
229.284
232.518
235.926
239.473
243.12
246.839
250.602
254.367
258.092
261.731
265.24
268.583
271.725
274.638
277.295
279.676
281.763
283.552
285.047
286.268
287.252
288.058
288.764
289.413
290.021
290.586
291.114
291.612
292.081
292.523
292.935
293.336
293.723
294.083
294.454
294.849
295.291
295.797
296.389
297.048
297.755
298.42
298.916
299.016
298.693
297.685
295.93
293.39
290.27
286.576
282.687
278.48
274.546
270.876
268.387
268.077
271.014
276.994
284.947
292.276
299.681
305.995
311.949
316.194
319.428
322.99
324.26
327.988
325.46
333.699
317.884
317.345
273.294
226.005
178.297
105.441
110.449
89.1364
78.7296
135.864
143.043
152.509
158.491
155.399
149.26
140.251
91.7501
48.6725
-0.653434
-14.4152
-7.20656
53.4231
119.93
213.446
285.932
371.97
423.42
460.843
428.525
207.815
208.553
208.871
208.92
209.003
209.239
209.597
210.022
210.502
211.056
211.711
212.482
213.383
214.425
215.624
216.995
218.557
220.323
222.303
224.505
226.928
229.567
232.409
235.434
238.615
241.92
245.318
248.789
252.307
255.839
259.347
262.789
266.128
269.327
272.356
275.182
277.78
280.125
282.202
284.002
285.532
286.807
287.846
288.684
289.375
289.993
290.575
291.116
291.609
292.066
292.493
292.902
293.281
293.636
293.995
294.347
294.708
295.112
295.574
296.126
296.759
297.469
298.18
298.777
299.002
298.839
298.008
296.424
293.997
290.961
287.258
283.33
278.909
274.734
270.707
267.74
266.937
269.571
275.591
283.94
291.626
299.236
305.668
311.716
316.127
319.393
322.852
323.971
327.451
324.569
332.71
316.785
317.196
272.726
227.545
178.004
105.627
107.725
83.8281
70.4295
130.709
143.131
153.988
159.09
156.007
147.977
135.837
84.5025
40.6365
-8.61986
-22.8698
-16.9816
43.2021
110.27
205.418
278.644
365.065
418.605
456.237
428.138
210.783
211.476
211.796
211.873
211.975
212.214
212.561
212.968
213.421
213.937
214.537
215.235
216.042
216.967
218.022
219.221
220.578
222.107
223.819
225.722
227.821
230.116
232.602
235.268
238.097
241.066
244.147
247.317
250.559
253.853
257.171
260.477
263.735
266.909
269.965
272.871
275.599
278.123
280.422
282.481
284.294
285.866
287.204
288.324
289.236
289.961
290.556
291.088
291.602
292.072
292.49
292.876
293.234
293.587
293.914
294.239
294.575
294.933
295.342
295.841
296.434
297.137
297.887
298.59
298.96
298.975
298.354
296.977
294.719
291.779
288.105
283.992
279.486
275
270.575
267.064
265.668
267.922
273.937
282.751
290.844
298.743
305.332
311.517
316.108
319.44
322.761
323.671
326.83
323.511
331.389
315.385
316.639
272.043
229.178
177.141
105.209
105.419
78.3712
61.9799
124.263
142.654
155.529
159.822
156.898
146.58
130.93
76.9721
31.9642
-17.3847
-32.7227
-27.8846
31.5641
99.4517
196.255
270.407
357.278
413.124
451.133
427.778
213.619
214.266
214.583
214.681
214.799
215.036
215.371
215.76
216.189
216.669
217.221
217.857
218.584
219.411
220.347
221.403
222.592
223.925
225.413
227.064
228.886
230.882
233.052
235.392
237.892
240.538
243.311
246.187
249.146
252.177
255.264
258.381
261.498
264.578
267.589
270.498
273.277
275.899
278.343
280.592
282.633
284.46
286.072
287.474
288.671
289.672
290.479
291.1
291.591
292.036
292.478
292.878
293.223
293.54
293.853
294.154
294.445
294.765
295.105
295.542
296.077
296.756
297.536
298.343
298.881
299.091
298.723
297.598
295.563
292.811
289.134
285.208
280.218
275.383
270.494
266.345
264.297
266.057
271.987
281.224
289.952
298.189
304.989
311.351
316.196
319.587
322.742
323.369
326.103
322.258
329.646
313.613
315.624
271.192
230.888
175.684
104.51
101.762
72.5852
53.0604
116.439
141.442
157.393
160.708
157.841
144.717
124.575
68.7542
22.2924
-27.2781
-44.0272
-39.9196
18.4441
87.3598
185.793
261.032
348.466
406.936
445.667
427.378
216.327
216.929
217.241
217.355
217.483
217.717
218.039
218.409
218.814
219.263
219.773
220.354
221.014
221.757
222.593
223.53
224.579
225.749
227.05
228.49
230.077
231.816
233.71
235.76
237.961
240.306
242.782
245.372
248.058
250.822
253.658
256.55
259.477
262.411
265.319
268.17
270.934
273.586
276.103
278.468
280.668
282.69
284.526
286.172
287.626
288.89
289.968
290.864
291.569
292.083
292.462
292.817
293.197
293.537
293.82
294.084
294.341
294.6
294.889
295.229
295.694
296.335
297.124
298.028
298.746
299.184
299.107
298.296
296.547
294.003
290.477
286.374
281.283
275.943
270.477
265.543
262.729
263.877
269.648
279.426
288.727
297.516
304.613
311.227
316.396
319.856
322.821
323.113
325.281
320.734
327.413
311.395
313.973
270.203
232.588
174.498
104.14
98.6723
66.8316
43.1782
107.021
139.089
159.013
161.254
158.763
142.459
117.769
60.3091
12.124
-38.2584
-57.1259
-53.3571
3.63553
73.9161
173.814
250.356
338.465
399.934
439.644
426.869
218.915
219.474
219.776
219.902
220.037
220.266
220.574
220.926
221.307
221.727
222.199
222.732
223.332
224.005
224.756
225.592
226.523
227.556
228.7
229.963
231.351
232.872
234.528
236.323
238.257
240.327
242.526
244.844
247.265
249.773
252.355
255.006
257.714
260.46
263.218
265.96
268.658
271.285
273.817
276.235
278.525
280.675
282.672
284.509
286.177
287.669
288.986
290.126
291.093
291.883
292.483
292.891
293.159
293.444
293.785
294.077
294.28
294.474
294.662
294.962
295.312
295.864
296.647
297.64
298.542
299.244
299.492
299.072
297.703
295.466
292.112
288.058
282.625
276.72
270.59
264.692
260.878
261.281
266.806
277.003
287.412
296.727
304.18
311.153
316.604
320.299
323.043
322.949
324.339
318.905
324.55
308.624
311.535
269.085
234.027
175.211
105.515
97.5025
60.1022
32.2323
95.9292
135.57
159.89
161.917
159.788
139.849
109.536
50.8861
0.776846
-50.7435
-72.0773
-68.3125
-12.8808
58.9163
160.269
238.31
327.164
391.917
432.915
426.288
221.388
221.904
222.195
222.329
222.469
222.691
222.984
223.317
223.676
224.068
224.505
224.995
225.544
226.155
226.832
227.583
228.413
229.331
230.343
231.456
232.676
234.01
235.462
237.036
238.735
240.559
242.504
244.566
246.734
248.997
251.338
253.75
256.227
258.76
261.335
263.928
266.515
269.07
271.569
273.99
276.316
278.533
280.629
282.593
284.417
286.092
287.61
288.964
290.152
291.173
292.028
292.712
293.215
293.538
293.709
293.936
294.232
294.443
294.533
294.637
294.926
295.44
296.14
297.149
298.246
299.232
299.893
299.914
299.041
297.224
294.153
290.077
284.455
277.839
270.788
263.674
258.625
258.075
263.2
273.955
285.028
295.661
303.637
311.1
317.24
320.947
323.457
322.869
323.338
316.787
321.054
305.166
308.111
267.771
234.981
178.649
107.889
97.4059
54.5031
21.516
83.0053
130.263
160.16
161.47
160.186
136.601
101.065
41.1494
-11.066
-64.6517
-89.1319
-85.2871
-31.3564
42.1508
144.953
224.879
314.534
382.648
425.571
425.66
223.751
224.227
224.505
224.643
224.785
225
225.277
225.59
225.927
226.294
226.699
227.15
227.653
228.209
228.822
229.498
230.243
231.062
231.961
232.946
234.023
235.198
236.475
237.858
239.352
240.958
242.676
244.503
246.435
248.464
250.578
252.764
255.016
257.33
259.702
262.117
264.557
267
269.422
271.802
274.12
276.357
278.501
280.539
282.461
284.26
285.928
287.456
288.835
290.058
291.121
292.022
292.774
293.384
293.843
294.089
294.1
294.212
294.427
294.586
294.621
294.84
295.547
296.674
297.856
299.102
300.228
300.837
300.551
299.327
296.679
292.819
286.8
279.382
271.296
262.626
255.811
253.861
258.542
270.045
282.448
294.205
302.965
311.097