/*--------------------------------*- C++ -*----------------------------------*\
| =========                 |                                                 |
| \\      /  F ield         | OpenFOAM: The Open Source CFD Toolbox           |
|  \\    /   O peration     | Version:  2412                                  |
|   \\  /    A nd           | Website:  www.openfoam.com                      |
|    \\/     M anipulation  |                                                 |
\*---------------------------------------------------------------------------*/
FoamFile
{
    version     2.0;
    format      ascii;
    arch        "LSB;label=32;scalar=64";
    class       surfaceScalarField;
    location    "1.05";
    object      phi_0;
}
// * * * * * * * * * * * * * * * * * * * * * * * * * * * * * * * * * * * * * //

dimensions      [0 3 -1 0 0 0 0];

oriented        oriented;

internalField   nonuniform List<scalar> 
24930
(
0.0155513
0.0208465
-0.0363835
0.00637907
0.00917225
0.00293047
0.00344861
0.0016398
0.00129069
0.00105344
0.000586379
0.000710482
0.000342965
0.000479628
0.000230856
0.000314058
0.000165565
0.000191258
0.000122778
9.8432e-05
9.27949e-05
2.64981e-05
7.1917e-05
-2.92359e-05
5.57557e-05
-7.30191e-05
4.38406e-05
-0.000107571
3.46094e-05
-0.000133053
2.54823e-05
-0.000153749
2.06592e-05
-0.000168834
1.49868e-05
-0.000179876
1.0942e-05
-0.000187375
7.45924e-06
-0.00019211
4.80952e-06
-0.000194734
2.80239e-06
-0.000195652
1.09645e-06
-0.000195061
-5.67501e-07
-0.000192974
-2.1922e-06
-0.00018953
-3.66499e-06
-0.000185022
-4.57614e-06
-0.00017981
-5.03884e-06
-0.000174399
-5.03365e-06
-0.000168705
-5.50637e-06
-0.000162653
-5.94697e-06
-0.000156375
-6.21639e-06
-0.000150028
-6.34877e-06
-0.000143724
-6.36729e-06
-0.000137497
-6.31151e-06
-0.000131376
-6.17432e-06
-0.000125405
-5.96755e-06
-0.000119638
-5.72039e-06
-0.000114093
-5.49157e-06
-0.000108781
-5.28117e-06
-0.000103686
-5.09848e-06
-9.88026e-05
-4.91245e-06
-9.41031e-05
-4.73463e-06
-8.95576e-05
-4.573e-06
-8.51647e-05
-4.40566e-06
-8.09242e-05
-4.2429e-06
-7.68681e-05
-4.05801e-06
-7.30658e-05
-3.80426e-06
-6.95855e-05
-3.47909e-06
-6.65254e-05
-3.0532e-06
-6.39695e-05
-2.54144e-06
-6.19697e-05
-1.98266e-06
-6.0535e-05
-1.4222e-06
-5.95836e-05
-9.51872e-07
-5.8918e-05
-6.92622e-07
-5.81853e-05
-7.64062e-07
-5.68228e-05
-1.37549e-06
-5.40526e-05
-2.7751e-06
-4.88786e-05
-5.18157e-06
-4.02038e-05
-8.68949e-06
-2.69593e-05
-1.32562e-05
-8.43359e-06
-1.85299e-05
1.54326e-05
-2.38633e-05
4.41592e-05
-2.872e-05
7.64499e-05
-3.22816e-05
0.000110142
-3.36801e-05
0.000142752
-3.25949e-05
0.000171265
-2.85067e-05
0.000193639
-2.2411e-05
0.000207378
-1.37736e-05
0.000212301
-4.92764e-06
0.000206301
6.02458e-06
0.000189682
1.66122e-05
0.000159033
3.06658e-05
0.000110817
4.8221e-05
4.13344e-05
6.94926e-05
-4.47814e-05
8.61098e-05
-0.000136275
9.14924e-05
-0.00020881
7.25231e-05
-0.000241538
3.27655e-05
-0.000229141
-1.24076e-05
-0.000200565
-2.8511e-05
-0.000155295
-4.52754e-05
-8.70897e-05
-6.81115e-05
-1.37047e-05
-7.33659e-05
1.40822e-05
-2.78224e-05
9.90023e-06
4.22155e-06
2.89351e-06
6.95898e-06
1.3581e-05
-1.06956e-05
9.41342e-05
-8.05648e-05
0.000271035
-0.000176914
0.000956584
-0.000685565
0.00120699
-0.000250385
0.00227245
-0.00106547
0.00335016
-0.00107772
0.00341236
-6.23427e-05
0.00320535
0.000207016
0.00178352
0.00142188
0.00129938
0.00048416
0.000262714
0.00103665
-0.000247485
0.000510191
-0.000126713
-0.000120829
-0.000210833
8.40324e-05
0.000267485
-0.00047839
0.000534378
-0.000266932
0.000645522
-0.000111202
0.000912935
-0.000267437
0.00124046
-0.000327515
0.000607565
0.00063291
-0.00142716
0.00203475
-0.00438235
0.00295519
-0.00691193
0.0025296
-0.00827681
0.00136496
-0.00833533
5.84681e-05
-0.00805896
-0.000276272
-0.00717256
-0.000886437
-0.0058735
-0.00129914
-0.00420166
-0.0016719
-0.00210374
-0.00209792
0.00184164
-0.00394537
-0.00175263
0.0329614
0.0298033
-0.0419181
0.0220473
0.0200864
0.0138981
0.0115978
0.00890596
0.00628283
0.00598142
0.00351089
0.00418743
0.00213688
0.00299676
0.00142145
0.0021541
0.00100821
0.00153171
0.00074523
0.00105823
0.000566412
0.000691774
0.000438508
0.000404225
0.000343378
0.000177199
0.000270797
2.98326e-06
0.000208653
-0.000150925
0.000179111
-0.000269459
0.000139094
-0.00036225
0.000108015
-0.000434651
8.38927e-05
-0.000490182
6.34904e-05
-0.000531797
4.6372e-05
-0.000562102
3.23445e-05
-0.000582579
2.0697e-05
-0.000595245
1.16022e-05
-0.000600986
3.84865e-06
-0.000600957
-2.80532e-06
-0.00059616
-8.36e-06
-0.000587349
-1.31576e-05
-0.000575919
-1.59341e-05
-0.000562051
-1.92692e-05
-0.000546165
-2.19172e-05
-0.000528832
-2.36582e-05
-0.000510578
-2.46665e-05
-0.000491812
-2.51492e-05
-0.000472771
-2.5346e-05
-0.000453661
-2.52794e-05
-0.000434704
-2.49333e-05
-0.000416116
-2.43367e-05
-0.000397999
-2.3646e-05
-0.000380424
-2.28906e-05
-0.000363388
-2.2154e-05
-0.000346903
-2.14057e-05
-0.000330925
-2.07197e-05
-0.000315389
-2.01228e-05
-0.000300292
-1.95237e-05
-0.000285658
-1.88969e-05
-0.000271601
-1.81279e-05
-0.000258356
-1.70591e-05
-0.000246175
-1.56733e-05
-0.000235383
-1.38591e-05
-0.000226283
-1.16552e-05
-0.000219053
-9.21787e-06
-0.000213714
-6.75548e-06
-0.000209974
-4.67519e-06
-0.000207131
-3.51952e-06
-0.000203955
-3.93211e-06
-0.00019851
-6.8206e-06
-0.000188109
-1.3184e-05
-0.000169382
-2.39148e-05
-0.000138579
-3.94888e-05
-9.22123e-05
-5.96168e-05
-2.78875e-05
-8.28473e-05
5.41978e-05
-0.000105942
0.000152622
-0.000127138
0.000262945
-0.000142598
0.000377912
-0.000148649
0.000488884
-0.000143575
0.000586308
-0.000125943
0.000662695
-9.87788e-05
0.000710496
-6.15554e-05
0.000727893
-2.23257e-05
0.0007097
2.42582e-05
0.000655529
7.08069e-05
0.000555733
0.000130452
0.000396831
0.000207119
0.00016705
0.000299276
-0.000122567
0.000375717
-0.000431154
0.000400083
-0.000677739
0.000319087
-0.000784494
0.000139493
-0.000742292
-5.46222e-05
-0.000639649
-0.000131153
-0.000487084
-0.000197849
-0.000250639
-0.00030457
-4.20192e-06
-0.000319851
9.45901e-05
-0.000126526
7.75917e-05
2.12089e-05
5.00763e-05
3.45391e-05
8.3823e-05
-4.44925e-05
0.000353088
-0.000349791
0.000943153
-0.00076698
0.00317011
-0.00291252
0.00401307
-0.00109339
0.00736877
-0.00442119
0.0111382
-0.00484713
0.0115645
-0.000488581
0.0108826
0.000889002
0.00666849
0.00563594
0.00472113
0.0024315
0.00111809
0.00463969
-0.000660285
0.00228858
-0.000431566
-0.000349528
-0.000600135
0.000252651
0.0010178
-0.0020963
0.00184221
-0.00109133
0.00224926
-0.000518245
0.00306274
-0.00108092
0.00377406
-0.00103886
0.0010896
0.00331731
-0.00630542
0.00942973
-0.0161081
0.0127578
-0.0239348
0.0103563
-0.027505
0.00493507
-0.0271948
-0.000251622
-0.025571
-0.0019002
-0.0226586
-0.0037988
-0.0181209
-0.00583677
-0.0132145
-0.00657829
-0.00697
-0.00834236
0.00515925
-0.0160746
-0.00800494
0.0426661
0.0321572
-0.04502
0.0353363
0.0274161
0.0267841
0.0201501
0.0194407
0.0136262
0.0140213
0.00893028
0.0102344
0.00592372
0.00757695
0.00407891
0.00565555
0.00292961
0.00422049
0.00218031
0.00312033
0.00166661
0.00226018
0.0012987
0.00157818
0.00102541
0.00103187
0.000817062
0.000590916
0.000649524
0.000237768
0.000532135
-4.79094e-05
0.000424742
-0.000281975
0.000342248
-0.000468895
0.000271147
-0.000617444
0.000212339
-0.000734042
0.000162921
-0.000824159
0.000121844
-0.00089203
8.75032e-05
-0.000940744
5.95691e-05
-0.000973424
3.66542e-05
-0.000992168
1.67526e-05
-0.00100016
3.9172e-07
-0.000999093
-1.40574e-05
-0.000990702
-2.4236e-05
-0.000975822
-3.42273e-05
-0.000955892
-4.19251e-05
-0.000932029
-4.75785e-05
-0.000905313
-5.14267e-05
-0.000876626
-5.387e-05
-0.000846561
-5.54316e-05
-0.000815617
-5.6227e-05
-0.000784302
-5.62435e-05
-0.000753081
-5.55568e-05
-0.00072223
-5.45096e-05
-0.000691939
-5.32055e-05
-0.000662283
-5.18393e-05
-0.000633335
-5.03793e-05
-0.000605079
-4.89959e-05
-0.00057744
-4.77756e-05
-0.000550443
-4.65287e-05
-0.000524161
-4.51885e-05
-0.000498811
-4.34909e-05
-0.000474819
-4.10674e-05
-0.00045265
-3.78589e-05
-0.000432892
-3.36295e-05
-0.000416093
-2.8463e-05
-0.000402579
-2.27369e-05
-0.000392379
-1.69589e-05
-0.000384962
-1.20938e-05
-0.000379051
-9.41915e-06
-0.00037241
-1.05619e-05
-0.000361556
-1.76762e-05
-0.000341675
-3.30689e-05
-0.00030678
-5.88124e-05
-0.000250291
-9.59792e-05
-0.000166151
-0.000143754
-5.03361e-05
-0.000198657
9.72586e-05
-0.000253531
0.000273547
-0.00030342
0.000470489
-0.000339534
0.000675544
-0.000353702
0.000873462
-0.000341491
0.00104777
-0.000300255
0.00118486
-0.000235849
0.00127192
-0.00014861
0.00130515
-5.55427e-05
0.00127643
5.29391e-05
0.00118463
0.000162608
0.0010142
0.00030087
0.000740528
0.000480788
0.000341811
0.000697991
-0.000167574
0.000885088
-0.000714454
0.000946963
-0.0011535
0.000758111
-0.00134133
0.000327328
-0.00126544
-0.000130543
-0.00108036
-0.000316201
-0.000809972
-0.00046827
-0.000388504
-0.000725998
4.92111e-05
-0.000757592
0.000230243
-0.000307513
0.000195428
5.59872e-05
0.000139325
9.06966e-05
0.00019112
-9.62781e-05
0.000668825
-0.000827473
0.00166127
-0.00175943
0.00553801
-0.00678927
0.00694126
-0.00249664
0.0125875
-0.0100675
0.0193903
-0.0116499
0.0204158
-0.00151403
0.0195374
0.00176734
0.0126834
0.01249
0.00899125
0.00612361
0.00237992
0.011251
-0.000927154
0.00559565
-0.000753325
-0.00052338
-0.00095658
0.000455905
0.00195422
-0.00500712
0.00332188
-0.00245898
0.0040732
-0.00126958
0.00537875
-0.00238648
0.00611726
-0.00177739
0.000583599
0.00885093
-0.013183
0.0231964
-0.0302965
0.0298712
-0.0428854
0.0229452
-0.0477955
0.00984515
-0.046392
-0.00165504
-0.0430117
-0.00528051
-0.0377676
-0.00904283
-0.0299094
-0.013695
-0.0219571
-0.0145306
-0.0121983
-0.0181012
0.0080118
-0.0362847
-0.0192154
0.048474
0.0317096
-0.0480263
0.045149
0.0307411
0.0388097
0.0264895
0.0314473
0.0209886
0.0246178
0.0157598
0.0189991
0.0115424
0.0146284
0.00844958
0.0112783
0.00627971
0.00869453
0.00476407
0.00667551
0.00368565
0.00507629
0.00289795
0.00379486
0.00230687
0.00275868
0.00185323
0.0019147
0.00149347
0.00122866
0.00121812
0.000665905
0.000987496
0.000206644
0.000801597
-0.000168374
0.000646282
-0.000473768
0.000517762
-0.000719228
0.000408257
-0.000914766
0.000317195
-0.00106789
0.000240517
-0.0011853
0.000177082
-0.00127238
0.000123986
-0.00133441
7.94793e-05
-0.00137451
4.10998e-05
-0.0013963
7.59752e-06
-0.00140359
-1.743e-05
-0.00139908
-3.89477e-05
-0.0013839
-5.71828e-05
-0.00136056
-7.09524e-05
-0.00133091
-8.11011e-05
-0.00129656
-8.82622e-05
-0.00125865
-9.33719e-05
-0.00121814
-9.67362e-05
-0.00117598
-9.83945e-05
-0.00113302
-9.8516e-05
-0.00108981
-9.77278e-05
-0.00104676
-9.62734e-05
-0.00100411
-9.45219e-05
-0.000962057
-9.24631e-05
-0.000920664
-9.04092e-05
-0.000879894
-8.85582e-05
-0.000839834
-8.65965e-05
-0.000800635
-8.43983e-05
-0.000762647
-8.14948e-05
-0.000726522
-7.72124e-05
-0.000692976
-7.14248e-05
-0.00066289
-6.37292e-05
-0.000637094
-5.42672e-05
-0.000616088
-4.37452e-05
-0.000599917
-3.31314e-05
-0.000587784
-2.42279e-05
-0.000577768
-1.9433e-05
-0.000566513
-2.18139e-05
-0.000548818
-3.5373e-05
-0.000517516
-6.43752e-05
-0.000463757
-0.000112577
-0.000377878
-0.00018186
-0.000251115
-0.000270516
-7.77091e-05
-0.000372059
0.000142534
-0.000473768
0.000404888
-0.000565767
0.00069755
-0.00063219
0.00100225
-0.000658402
0.0012967
-0.000635934
0.001557
-0.000560552
0.00176287
-0.000441708
0.00189567
-0.000281401
0.00194942
-0.000109284
0.00191331
8.90119e-05
0.00178554
0.000290381
0.00154483
0.000541576
0.00115451
0.000871098
0.000579983
0.00127251
-0.000163873
0.00162893
-0.000970949
0.00175404
-0.00162323
0.00141037
-0.00190188
0.000605988
-0.00179143
-0.000241021
-0.00151676
-0.000590836
-0.00111978
-0.000865278
-0.000495036
-0.00135069
0.00015316
-0.00140582
0.000427314
-0.000581616
0.000369017
0.000114246
0.000275143
0.00018462
0.000334765
-0.000155895
0.00103851
-0.0015312
0.00239107
-0.003112
0.00801146
-0.0124097
0.00992214
-0.00440732
0.0177932
-0.0179386
0.0278938
-0.0217505
0.0298274
-0.00344759
0.0291936
0.00240116
0.0199294
0.0217541
0.0143035
0.0117495
0.00420952
0.021345
-0.000965296
0.0107705
-0.0010792
-0.000409513
-0.00126531
0.000642025
0.0030813
-0.00935376
0.00497458
-0.00435227
0.00612233
-0.00241734
0.00781975
-0.00408392
0.00809809
-0.00205573
-0.00124666
0.0181956
-0.0223752
0.0443248
-0.0468652
0.0543612
-0.0632839
0.0393639
-0.0683693
0.0149305
-0.0652646
-0.00475973
-0.0597732
-0.0107719
-0.0521438
-0.0166721
-0.0408397
-0.0249991
-0.0301272
-0.0252431
-0.0176419
-0.0305865
0.0102977
-0.0642243
-0.0357273
0.0522949
0.0305875
-0.0511728
0.0516436
0.0313925
0.0482319
0.0299012
0.0426854
0.0265352
0.0361934
0.0222518
0.0298
0.0179359
0.0241048
0.0141447
0.0193079
0.0110767
0.0153738
0.00869815
0.0121757
0.00688372
0.00957525
0.00549845
0.00745243
0.00442972
0.00571139
0.00359429
0.00427672
0.00292812
0.00309464
0.00240016
0.00211613
0.00196598
0.00130732
0.00161042
0.000639505
0.00131413
9.09351e-05
0.00106632
-0.000359773
0.000858944
-0.000725891
0.000683399
-0.00102006
0.00053494
-0.00125327
0.000410673
-0.00143468
0.000305644
-0.00157203
0.000216812
-0.00167276
0.000141763
-0.00174327
7.81075e-05
-0.00178584
2.46012e-05
-0.00180617
-1.87435e-05
-0.00181018
-5.31691e-05
-0.00179853
-8.26139e-05
-0.00177494
-0.000104705
-0.00174206
-0.000121174
-0.00170191
-0.000133557
-0.00165613
-0.000142515
-0.00160631
-0.000148204
-0.00155387
-0.000150952
-0.0014998
-0.000151799
-0.00144488
-0.000151219
-0.00138959
-0.000149842
-0.00133437
-0.000147718
-0.00127944
-0.00014536
-0.00122486
-0.000143145
-0.00117085
-0.000140623
-0.00111766
-0.000137596
-0.00106583
-0.000133346
-0.00101626
-0.000126796
-0.000969978
-0.000117729
-0.00092819
-0.000105531
-0.000892053
-9.04109e-05
-0.000862272
-7.35287e-05
-0.00083891
-5.64918e-05
-0.000820886
-4.225e-05
-0.000805564
-3.47531e-05
-0.000788346
-3.90304e-05
-0.000762155
-6.15676e-05
-0.000717288
-0.000109248
-0.000641847
-0.000188024
-0.000522911
-0.0003008
-0.000348848
-0.000444579
-0.000112102
-0.0006088
0.000187628
-0.00077349
0.00054387
-0.000922001
0.000940867
-0.00102918
0.00135436
-0.00107189
0.00175473
-0.0010363
0.00211022
-0.000916042
0.00239356
-0.000725043
0.00257968
-0.000467522
0.00266015
-0.000189745
0.00262131
0.000127836
0.00246154
0.000450153
0.00215418
0.000848926
0.00164996
0.00137531
0.000897845
0.00202463
-9.05327e-05
0.00261728
-0.00117777
0.00284128
-0.00206404
0.0022966
-0.00244627
0.000988232
-0.00230334
-0.000383976
-0.00193632
-0.000957816
-0.00140656
-0.00139507
-0.000564763
-0.00219244
0.000313244
-0.00228385
0.000690788
-0.000959107
0.000602424
0.000202582
0.000458937
0.000328154
0.000509416
-0.000206377
0.00145109
-0.00247285
0.00310933
-0.00477025
0.0105211
-0.0198214
0.0129387
-0.00682492
0.0228559
-0.0278558
0.0363029
-0.0351975
0.0395037
-0.00664841
0.0397518
0.00215289
0.0284825
0.0330234
0.0208421
0.0193899
0.00680264
0.0353845
-0.000682945
0.018256
-0.00139819
0.000305702
-0.00152668
0.000770511
0.00438644
-0.0152669
0.00679753
-0.00676335
0.00839411
-0.00401394
0.0103457
-0.00603555
0.00955217
-0.00126222
-0.00465077
0.0323986
-0.0340304
0.0737045
-0.0655763
0.085907
-0.0843884
0.058176
-0.0884331
0.0189752
-0.0831197
-0.0100731
-0.0755295
-0.0183622
-0.0654496
-0.026752
-0.0508397
-0.0396091
-0.0375999
-0.0384829
-0.0231999
-0.0449864
0.0120917
-0.099516
-0.0578564
0.0554367
0.0296305
-0.0544796
0.0559747
0.0308545
0.0548695
0.0310064
0.051721
0.0296837
0.0468947
0.0270781
0.0411241
0.0237065
0.0351336
0.0201352
0.0294451
0.0167651
0.0243399
0.0138033
0.0199114
0.0113123
0.0161416
0.00926828
0.0129625
0.00760887
0.0102923
0.00626451
0.00805204
0.00516839
0.00617618
0.00427597
0.00460427
0.00353783
0.00328906
0.00292561
0.00219023
0.00241294
0.00127496
0.00198162
0.000516036
0.00161797
-0.000109483
0.00130916
-0.000622692
0.00104849
-0.0010385
0.000826767
-0.0013714
0.000638559
-0.00163349
0.000478451
-0.00183534
0.000342853
-0.00198587
0.000228027
-0.00209468
0.000133
-0.00216704
5.33784e-05
-0.00220616
-1.37706e-05
-0.00222388
-6.48009e-05
-0.00222013
-0.000108467
-0.00219983
-0.00014151
-0.00216628
-0.000167131
-0.00212223
-0.000186568
-0.00207017
-0.000200261
-0.00201234
-0.000208771
-0.00195042
-0.000213725
-0.00188571
-0.000215952
-0.00181912
-0.000216465
-0.00175144
-0.000215426
-0.0016832
-0.000213627
-0.00161463
-0.000211725
-0.00154614
-0.000209132
-0.00147817
-0.000205578
-0.00141147
-0.00020006
-0.00134728
-0.000191004
-0.00128696
-0.000178075
-0.0012321
-0.000160406
-0.00118423
-0.000138286
-0.0011443
-0.000113462
-0.0011124
-8.8383e-05
-0.00108717
-6.74833e-05
-0.00106519
-5.67344e-05
-0.00104052
-6.36945e-05
-0.00100408
-9.80169e-05
-0.000943445
-0.000169889
-0.000843496
-0.00028798
-0.000687907
-0.000456392
-0.000462075
-0.000670411
-0.000156585
-0.000914285
0.000229003
-0.00115907
0.000686428
-0.00137942
0.00119597
-0.00153871
0.00172725
-0.00160316
0.0022432
-0.00155225
0.0027038
-0.00137664
0.00307439
-0.00109563
0.00332277
-0.000715898
0.00343786
-0.000304834
0.00340318
0.000162509
0.00321776
0.000635574
0.00285041
0.00121627
0.00223916
0.00198655
0.00131298
0.0029508
7.48995e-05
0.00385534
-0.0013101
0.00422627
-0.00245278
0.00343925
-0.00295547
0.00149094
-0.00278844
-0.000551045
-0.00233043
-0.00141578
-0.00166558
-0.00205995
-0.000594657
-0.00326331
0.000530173
-0.00340871
0.00102303
-0.00145191
0.000897714
0.000327876
0.000689742
0.000536177
0.0007078
-0.000224439
0.00188857
-0.00365359
0.00380612
-0.00668781
0.0129829
-0.0289982
0.016022
-0.00986395
0.0277133
-0.0395472
0.0442343
-0.0517186
0.0491139
-0.0115279
0.0509894
0.000277835
0.0383373
0.0456754
0.0287757
0.0289515
0.0103892
0.053771
5.66293e-05
0.0285886
-0.00168198
0.0020443
-0.00173516
0.000823673
0.00583912
-0.0228412
0.00878636
-0.00971059
0.0108867
-0.00611432
0.0128921
-0.00804092
0.0102563
0.00137356
-0.00997034
0.0526252
-0.0482046
0.111939
-0.0859029
0.123605
-0.105344
0.0776167
-0.10721
0.0208413
-0.0995468
-0.017736
-0.090002
-0.0279071
-0.077648
-0.039106
-0.0598258
-0.0574313
-0.0443032
-0.0540055
-0.0287369
-0.0605527
0.0133984
-0.141651
-0.0858459
0.0586779
0.0289638
-0.0580111
0.0594515
0.0300809
0.0595745
0.0308833
0.0583633
0.030895
0.055571
0.0298703
0.0513862
0.0278914
0.0462516
0.0252698
0.04067
0.0223467
0.0350742
0.0193991
0.0297704
0.016616
0.0249352
0.0141035
0.020641
0.0119032
0.0168916
0.0100139
0.0136528
0.00840721
0.0108768
0.00705189
0.00850819
0.00590637
0.00649547
0.00493828
0.00479104
0.00411736
0.00335323
0.00341949
0.00214572
0.00282564
0.0011366
0.00231856
0.000298905
0.00188649
-0.000391497
0.00151731
-0.000955422
0.00120227
-0.00141043
0.000932839
-0.00177226
0.000703842
-0.00205429
0.00050942
-0.00226795
0.00034634
-0.0024248
0.000210121
-0.00253658
9.78808e-05
-0.00260212
9.09946e-07
-0.0026391
-7.14794e-05
-0.00264821
-0.000132433
-0.00263485
-0.000180524
-0.0026034
-0.000218026
-0.00255772
-0.000245927
-0.00250126
-0.00026522
-0.00243667
-0.00027832
-0.00236606
-0.000286593
-0.00229096
-0.000291597
-0.00221272
-0.000293688
-0.00213233
-0.000294042
-0.00205035
-0.000293728
-0.00196745
-0.000292045
-0.00188437
-0.00028867
-0.00180215
-0.000282303
-0.00172241
-0.000270766
-0.0016469
-0.000253601
-0.00157768
-0.000229641
-0.00151671
-0.000199267
-0.00146521
-0.000164963
-0.00142335
-0.000130234
-0.00138947
-0.000101368
-0.00135934
-8.68636e-05
-0.00132562
-9.74169e-05
-0.00127708
-0.000146566
-0.00119847
-0.000248505
-0.00107131
-0.00041514
-0.000875781
-0.00065193
-0.000594191
-0.000952001
-0.0002152
-0.00129327
0.000261867
-0.00163613
0.000826979
-0.00194452
0.00145658
-0.00216831
0.0021142
-0.00226077
0.00275532
-0.00219335
0.0033313
-0.00195262
0.00379981
-0.00156413
0.00412075
-0.00103684
0.00428011
-0.00046418
0.00425863
0.000183977
0.00405685
0.000837357
0.00363994
0.00163318
0.00293377
0.00269271
0.00184375
0.00404081
0.000355919
0.00534314
-0.0013387
0.00592089
-0.00276117
0.00486168
-0.0034066
0.00213638
-0.00323054
-0.000727132
-0.0026894
-0.00195688
-0.00189172
-0.00285766
-0.000583885
-0.00457108
0.000803621
-0.00479624
0.00142415
-0.00207238
0.00125498
0.000497025
0.00096418
0.000827028
0.000918582
-0.000178853
0.00232511
-0.00506009
0.0044918
-0.00885451
0.0153013
-0.0398078
0.0192257
-0.0137882
0.0323795
-0.0527011
0.0512857
-0.0706247
0.0582106
-0.0184528
0.0625646
-0.00407655
0.0493736
0.0588664
0.038228
0.040097
0.0152189
0.0767801
0.00128013
0.0425274
-0.00187964
0.00520403
-0.00189264
0.00083666
0.00738804
-0.0321219
0.0109366
-0.0132592
0.0135889
-0.0087666
0.0153752
-0.00982725
0.00998497
0.00676377
-0.0174398
0.0800499
-0.0647838
0.159283
-0.107151
0.165973
-0.125337
0.0958025
-0.124322
0.0198261
-0.114408
-0.0276502
-0.10331
-0.0390053
-0.0888588
-0.0535568
-0.068039
-0.0782511
-0.050322
-0.0717225
-0.0341763
-0.0766984
0.0143377
-0.190165
-0.119917
0.0622808
0.0284817
-0.0617987
0.06292
0.0294417
0.0634277
0.0303756
0.0633091
0.0310136
0.0621366
0.0310427
0.059717
0.030311
0.0561145
0.0288723
0.0515741
0.026887
0.0464267
0.0245466
0.041011
0.0220317
0.0356205
0.019494
0.0304754
0.0170483
0.0257171
0.0147723
0.0214172
0.0127071
0.0175986
0.0108704
0.0142489
0.00925592
0.0113384
0.00784876
0.00882804
0.00662771
0.00667667
0.00557094
0.00484411
0.00465839
0.00329223
0.0038707
0.00198652
0.00319241
0.000895407
0.00260843
-8.85879e-06
0.0021062
-0.000752301
0.00167564
-0.0013559
0.00130672
-0.00183931
0.000992361
-0.00221968
0.000726558
-0.00251203
0.000502568
-0.00272957
0.000315542
-0.00289043
0.000161807
-0.00299228
3.03574e-05
-0.0030544
-7.03717e-05
-0.00308174
-0.000153225
-0.00307929
-0.000220482
-0.00305316
-0.000272045
-0.0030086
-0.000309772
-0.00294964
-0.000337291
-0.00287954
-0.000356715
-0.00280081
-0.000370363
-0.00271562
-0.00037891
-0.00262562
-0.000384059
-0.0025319
-0.000387472
-0.00243556
-0.000388394
-0.00233776
-0.000386493
-0.0022399
-0.000380185
-0.00214408
-0.0003666
-0.00205256
-0.000345146
-0.00196788
-0.00031433
-0.00189253
-0.000274631
-0.00182807
-0.000229426
-0.00177479
-0.000183513
-0.00173073
-0.000145419
-0.00169088
-0.000126718
-0.00164642
-0.00014188
-0.00158392
-0.000209074
-0.00148523
-0.000347206
-0.00132843
-0.000571944
-0.00109012
-0.00089024
-0.000749487
-0.00129264
-0.000293142
-0.00174961
0.000280005
-0.00220927
0.00095825
-0.00262275
0.00171453
-0.00292458
0.00250646
-0.00305268
0.00328222
-0.0029691
0.00398434
-0.00265475
0.00456252
-0.0021423
0.00496795
-0.00144227
0.00518333
-0.000679555
0.00518635
0.000180957
0.00498
0.0010437
0.00452743
0.00208574
0.00374375
0.00347637
0.0025078
0.00527674
0.00078038
0.00707053
-0.00123175
0.00793301
-0.00295884
0.00658874
-0.0037761
0.00295366
-0.00361575
-0.000887524
-0.00300636
-0.00256623
-0.00208332
-0.00378073
-0.000534756
-0.00611958
0.0011289
-0.00645993
0.0018907
-0.00283411
0.00167115
0.000716548
0.00127491
0.00122332
0.00112815
-3.21702e-05
0.00272619
-0.0066581
0.00519466
-0.011323
0.0173615
-0.0519746
0.0225707
-0.0189974
0.0369357
-0.0670662
0.0571395
-0.0908285
0.0663743
-0.0276876
0.0740133
-0.0117152
0.0613286
0.0715511
0.0492406
0.052185
0.0215455
0.104475
0.00326523
0.0608076
-0.00190151
0.0103707
-0.00199718
0.000932312
0.00896218
-0.0430813
0.0132448
-0.0175418
0.0164858
-0.0120076
0.0176743
-0.0110158
0.00847293
0.0159651
-0.0272565
0.115779
-0.0834999
0.215526
-0.128516
0.210989
-0.14382
0.111107
-0.139785
0.0157907
-0.12792
-0.0395155
-0.115692
-0.0512326
-0.0994622
-0.0697869
-0.0757811
-0.101932
-0.0558081
-0.0916956
-0.0394507
-0.0930557
0.0149957
-0.244612
-0.16025
0.0662361
0.0280907
-0.0658451
0.0667083
0.0289695
0.0672063
0.0298776
0.0674976
0.0307224
0.0672563
0.031284
0.0661892
0.0313781
0.0641291
0.0309323
0.061057
0.0299591
0.0570811
0.0285225
0.0523981
0.0267148
0.0472507
0.0246415
0.0418903
0.0224087
0.0365462
0.0201165
0.0314029
0.0178504
0.0265927
0.0156806
0.0221941
0.0136545
0.0182423
0.0118004
0.0147412
0.0101289
0.0116738
0.00863835
0.00901204
0.00732034
0.00672132
0.00616162
0.00476546
0.00514841
0.00310811
0.0042657
0.00171469
0.00349926
0.000553225
0.00283656
-0.000405729
0.00226515
-0.00118875
0.00177511
-0.00181982
0.00135764
-0.00232033
0.00100326
-0.00270956
0.000704954
-0.00300362
0.000455953
-0.0032235
0.000250249
-0.00337293
7.90037e-05
-0.00346724
-5.89629e-05
-0.00351885
-0.000168882
-0.00353206
-0.00025883
-0.00351526
-0.000326571
-0.00347462
-0.000377939
-0.00341512
-0.00041624
-0.00334061
-0.000444905
-0.00325449
-0.000465063
-0.00315943
-0.000479145
-0.00305726
-0.000489662
-0.00294976
-0.000495904
-0.00283866
-0.000497615
-0.00272588
-0.000492988
-0.00261412
-0.000478378
-0.00250622
-0.000453073
-0.00240532
-0.000415236
-0.00231452
-0.000365443
-0.00223581
-0.00030814
-0.00216966
-0.000249661
-0.0021139
-0.000201177
-0.00206271
-0.000177911
-0.00200583
-0.000198766
-0.0019276
-0.000287308
-0.00180695
-0.000467865
-0.00161852
-0.000760382
-0.00133532
-0.00117345
-0.000933296
-0.00169466
-0.000396921
-0.00228598
0.000275621
-0.0028818
0.00107112
-0.00341824
0.00195957
-0.00381302
0.00289303
-0.00398613
0.0038127
-0.00388876
0.00465208
-0.00349413
0.00535267
-0.00284288
0.00585599
-0.00194559
0.00614067
-0.000964229
0.00618184
0.000139777
0.00598538
0.00124016
0.00551428
0.00255683
0.00467562
0.00431501
0.00332013
0.00663221
0.0013734
0.00901723
-0.000955354
0.0102618
-0.00301296
0.0086463
-0.00403935
0.00398007
-0.00393001
-0.0009969
-0.00327606
-0.00322013
-0.00224092
-0.00481591
-0.000452548
-0.00790788
0.00149806
-0.00841056
0.00241578
-0.00375177
0.00214014
0.000992169
0.00161131
0.00175221
0.00131726
0.000261945
0.00304945
-0.00839027
0.00594269
-0.0142163
0.0190161
-0.065048
0.0259631
-0.0259445
0.0414577
-0.0825608
0.0616317
-0.111002
0.0732465
-0.0393023
0.084819
-0.0232878
0.0737882
0.0825819
0.0617311
0.064242
0.0296031
0.136603
0.00620751
0.0842032
-0.00161646
0.0181947
-0.00203401
0.00134985
0.010483
-0.0555984
0.0157093
-0.022768
0.0195523
-0.0158507
0.0196386
-0.0111021
0.00545704
0.0301467
-0.0395584
0.160795
-0.103952
0.279919
-0.149255
0.256293
-0.160717
0.122568
-0.154213
0.00928675
-0.14056
-0.053169
-0.127657
-0.0641353
-0.109989
-0.087455
-0.083571
-0.12835
-0.0610286
-0.114238
-0.0445207
-0.109564
0.0155218
-0.304654
-0.206982
0.0705028
0.0277487
-0.0701609
0.0708715
0.0286009
0.0712729
0.0294762
0.0716271
0.0303681
0.0717646
0.0311465
0.0714666
0.0316762
0.0705259
0.031873
0.0687933
0.0316918
0.0662002
0.0311155
0.0627624
0.0301526
0.0585701
0.0288338
0.0537731
0.0272057
0.0485617
0.025328
0.043143
0.023269
0.0377185
0.021105
0.0324616
0.0189114
0.0275047
0.0167573
0.0229353
0.0146982
0.0188008
0.0127729
0.0151167
0.0110045
0.0118758
0.00940269
0.00905625
0.00796804
0.00662742
0.00669443
0.00455445
0.00557196
0.00280133
0.00458931
0.0013324
0.00373381
0.000113658
0.00299379
-0.000885498
0.00235693
-0.0016954
0.00181338
-0.00234224
0.00135197
-0.00284988
0.000963646
-0.00323827
0.000638601
-0.0035303
0.000370984
-0.00373932
0.000150017
-0.00387392
-3.42993e-05
-0.00395684
-0.000175888
-0.00399168
-0.000291729
-0.00398859
-0.000381046
-0.003955
-0.000449848
-0.00389688
-0.000503065
-0.00381936
-0.000542616
-0.00372662
-0.000571908
-0.00362163
-0.000594671
-0.00350714
-0.000610407
-0.0033857
-0.000619075
-0.00325994
-0.00061877
-0.00313334
-0.000605007
-0.00300942
-0.000577007
-0.00289209
-0.000532581
-0.00278514
-0.000472402
-0.00269112
-0.000402165
-0.00261079
-0.000329994
-0.00254185
-0.000270117
-0.00247776
-0.000242003
-0.00240687
-0.000269659
-0.00231136
-0.000382825
-0.00216728
-0.000611951
-0.00194588
-0.000981793
-0.0016166
-0.00150273
-0.0011521
-0.00215915
-0.000534489
-0.00290359
0.00023924
-0.00365552
0.0011545
-0.00433349
0.00217931
-0.00483781
0.00326061
-0.00506742
0.0043331
-0.00496124
0.00532113
-0.00448215
0.00615779
-0.00367953
0.00677381
-0.00256161
0.00714338
-0.0013338
0.00723747
4.5681e-05
0.00706731
0.00141032
0.00659712
0.00302701
0.00573033
0.00518178
0.00429045
0.00807207
0.00215706
0.0111506
-0.000474433
0.0128932
-0.00288963
0.0110614
-0.00417097
0.00526142
-0.00416079
-0.00100712
-0.00349547
-0.00388539
-0.00236741
-0.005944
-0.00034503
-0.00993018
0.00189972
-0.0106553
0.00298869
-0.00484067
0.00265198
0.00132886
0.00195692
0.00244733
0.00146448
0.000754382
0.00324822
-0.010174
0.00672832
-0.0176964
0.020076
-0.0783957
0.029146
-0.0350145
0.0459109
-0.0993258
0.0647884
-0.12988
0.0786862
-0.0532001
0.0945191
-0.0391205
0.08621
0.0908909
0.0754536
0.0749985
0.0395773
0.17248
0.0103511
0.113429
-0.000847277
0.029393
-0.00195511
0.00245767
0.0118889
-0.0694425
0.0183325
-0.0292115
0.0227503
-0.0202686
0.0210845
-0.00943629
0.000658188
0.050573
-0.054363
0.215816
-0.125659
0.351215
-0.168856
0.299489
-0.176462
0.130175
-0.168494
0.00131883
-0.152909
-0.0687547
-0.139668
-0.0773759
-0.12104
-0.106083
-0.0919265
-0.157463
-0.0662853
-0.139879
-0.0492745
-0.126574
0.0161087
-0.370037
-0.260048
0.0750807
0.0274401
-0.0747721
0.0753945
0.0282871
0.0757203
0.0291503
0.0760332
0.0300552
0.0762624
0.0309174
0.0762906
0.031648
0.0759716
0.032192
0.075155
0.0325084
0.0737102
0.0325603
0.0715444
0.0323184
0.0686133
0.0317649
0.0649265
0.0308925
0.0605498
0.0297048
0.0556013
0.0282175
0.0502432
0.0264631
0.0446633
0.0244912
0.0390538
0.0223667
0.0335887
0.0201633
0.0284078
0.0179538
0.0236097
0.0158027
0.0192526
0.0137599
0.0153611
0.0118595
0.0119345
0.010121
0.00895436
0.00855199
0.00639153
0.007152
0.00421075
0.00591454
0.0023743
0.00483035
0.000843907
0.00388755
-0.000416857
0.00307438
-0.00144292
0.00237816
-0.00226743
0.00178817
-0.00291858
0.00128969
-0.0034222
0.000874535
-0.00380296
0.000530728
-0.00408542
0.00024815
-0.00427086
9.60825e-06
-0.00439333
-0.000169245
-0.00445632
-0.000318067
-0.00447161
-0.000434582
-0.00444821
-0.000526495
-0.00439391
-0.000596955
-0.00431503
-0.000650822
-0.00421621
-0.00069351
-0.00410163
-0.000725
-0.00397503
-0.000745693
-0.00384002
-0.000753805
-0.00370106
-0.000743983
-0.00356262
-0.000715474
-0.00342945
-0.000665765
-0.00330625
-0.000595614
-0.00319626
-0.000512157
-0.00310069
-0.000425564
-0.00301728
-0.000353532
-0.00293889
-0.000320392
-0.00285264
-0.00035592
-0.00273866
-0.000496811
-0.00257028
-0.000780338
-0.00231545
-0.00123662
-0.00194014
-0.00187804
-0.0014136