/*--------------------------------*- C++ -*----------------------------------*\
| =========                 |                                                 |
| \\      /  F ield         | OpenFOAM: The Open Source CFD Toolbox           |
|  \\    /   O peration     | Version:  2412                                  |
|   \\  /    A nd           | Website:  www.openfoam.com                      |
|    \\/     M anipulation  |                                                 |
\*---------------------------------------------------------------------------*/
FoamFile
{
    version     2.0;
    format      ascii;
    arch        "LSB;label=32;scalar=64";
    class       surfaceScalarField;
    location    "0.09";
    object      phi_0;
}
// * * * * * * * * * * * * * * * * * * * * * * * * * * * * * * * * * * * * * //

dimensions      [0 3 -1 0 0 0 0];

oriented        oriented;

internalField   nonuniform List<scalar> 
24930
(
0.0141789
0.0108989
-0.0250778
0.00787717
0.00630172
0.00521539
0.00266177
0.00403711
0.00117828
0.00338205
0.000655064
0.0029517
0.000430349
0.00264258
0.000309119
0.0024057
0.000236882
0.00221674
0.000188956
0.00206163
0.000155111
0.00193155
0.000130084
0.00182058
0.000110966
0.00172459
9.59893e-05
0.00164059
8.40028e-05
0.00156635
7.42337e-05
0.00150021
6.61467e-05
0.00144085
5.93606e-05
0.00138725
5.35982e-05
0.00133859
4.86536e-05
0.00129422
4.43711e-05
0.00125359
4.06306e-05
0.00121625
3.73386e-05
0.00118183
3.44213e-05
0.00115001
3.18196e-05
0.00112053
2.94858e-05
0.00109315
2.73811e-05
0.00106767
2.54735e-05
0.00104394
2.37368e-05
0.00102179
2.21494e-05
0.00100109
2.06929e-05
0.000981741
1.93522e-05
0.000963627
1.81147e-05
0.000946657
1.69692e-05
0.000930751
1.59063e-05
0.000915833
1.49179e-05
0.000901837
1.39958e-05
0.000888705
1.31323e-05
0.000876385
1.23205e-05
0.00086483
1.15546e-05
0.000854001
1.08293e-05
0.000843861
1.01398e-05
0.00083438
9.48074e-06
0.000825533
8.84755e-06
0.000817295
8.23781e-06
0.000809647
7.64797e-06
0.000802568
7.07884e-06
0.000796049
6.51894e-06
0.000790078
5.97094e-06
0.000784639
5.43917e-06
0.000779733
4.90641e-06
0.00077536
4.37237e-06
0.0007715
3.8602e-06
0.000768172
3.32828e-06
0.000765368
2.80375e-06
0.000763097
2.2712e-06
0.000761356
1.74119e-06
0.000760153
1.20243e-06
0.000759524
6.28923e-07
0.00075948
4.41745e-08
0.000759969
-4.88707e-07
0.000761015
-1.04616e-06
0.000762648
-1.63334e-06
0.000764903
-2.255e-06
0.000767803
-2.89997e-06
0.000771373
-3.56949e-06
0.00077564
-4.2675e-06
0.000780638
-4.99738e-06
0.000786401
-5.76361e-06
0.000792973
-6.57155e-06
0.0008004
-7.42732e-06
0.000808738
-8.33779e-06
0.000818051
-9.31353e-06
0.000828415
-1.03639e-05
0.000839918
-1.15027e-05
0.00085266
-1.27416e-05
0.000866759
-1.40992e-05
0.000882361
-1.56025e-05
0.000899631
-1.72701e-05
0.000918752
-1.91205e-05
0.000939958
-2.12064e-05
0.000963561
-2.36029e-05
0.000989884
-2.6323e-05
0.00101922
-2.93324e-05
0.00105197
-3.27562e-05
0.0010889
-3.69276e-05
0.0011309
-4.20002e-05
0.00117848
-4.75833e-05
0.00123142
-5.2939e-05
0.00128898
-5.75617e-05
0.00135049
-6.15051e-05
0.00141571
-6.52219e-05
0.00148488
-6.91644e-05
0.00155843
-7.35536e-05
0.00163682
-7.83928e-05
0.00172044
-8.36184e-05
0.00180963
-8.91931e-05
0.00190475
-9.51187e-05
0.0020062
-0.000101443
0.00211438
-0.00010818
0.00222979
-0.000115417
0.00235291
-0.000123121
0.00248441
-0.000131492
0.00262476
-0.000140351
0.0027749
-0.000150145
0.00293525
-0.000160345
0.00310712
-0.000171876
0.00329068
-0.000183561
0.00348783
-0.000197145
0.00369837
-0.000210541
0.00392475
-0.000226377
0.00416686
-0.000242119
0.0044266
-0.000259738
0.00470642
-0.000279821
0.00500312
-0.000296692
0.00532932
-0.0003262
0.0056656
-0.000336281
0.00604834
-0.000382744
0.00643064
-0.000382301
0.00687731
-0.000446666
-0.000451063
0.029377
0.0140275
-0.0325056
0.0237909
0.0118879
0.0186988
0.00775388
0.0150975
0.0047796
0.0127096
0.00304296
0.0110729
0.00206701
0.00988468
0.00149736
0.0089778
0.00114377
0.00825753
0.000909221
0.00766807
0.000744573
0.00717472
0.000623436
0.00675454
0.000531147
0.00639159
0.000458935
0.0060744
0.000401196
0.00579445
0.000354181
0.0055453
0.000315299
0.00532196
0.000282703
0.0051205
0.00025505
0.00493781
0.000231344
0.00477135
0.000210831
0.00461905
0.000192931
0.0044792
0.000177191
0.00435037
0.000163255
0.00423135
0.000150838
0.00412113
0.000139709
0.00401882
0.000129681
0.0039237
0.0001206
0.0038351
0.000112339
0.00375245
0.000104793
0.00367527
9.78743e-05
0.00360311
9.15086e-05
0.00353559
8.56343e-05
0.00347236
8.01986e-05
0.00341312
7.51557e-05
0.00335757
7.04664e-05
0.00330547
6.60928e-05
0.0032566
6.1998e-05
0.00321077
5.81503e-05
0.00316781
5.4522e-05
0.00312755
5.10877e-05
0.00308986
4.78247e-05
0.00305464
4.47087e-05
0.00302177
4.17177e-05
0.00299116
3.88387e-05
0.00296276
3.60565e-05
0.00293647
3.33675e-05
0.00291225
3.07323e-05
0.00289007
2.81518e-05
0.00286988
2.56331e-05
0.00285166
2.31274e-05
0.00283541
2.06248e-05
0.00282106
1.82025e-05
0.00280867
1.57221e-05
0.00279822
1.32537e-05
0.00278973
1.07629e-05
0.0027832
8.27273e-06
0.00277867
5.73223e-06
0.00277622
3.07284e-06
0.00277591
3.58292e-07
0.00277756
-2.14357e-06
0.00278128
-4.76044e-06
0.00278715
-7.50926e-06
0.00279531
-1.04119e-05
0.00280583
-1.34222e-05
0.00281881
-1.65468e-05
0.00283434
-1.98027e-05
0.00285255
-2.32069e-05
0.00287357
-2.67803e-05
0.00289755
-3.05481e-05
0.00292466
-3.45374e-05
0.00295511
-3.87884e-05
0.00298913
-4.33397e-05
0.00302701
-4.82415e-05
0.00306907
-5.35563e-05
0.00311567
-5.93427e-05
0.00316726
-6.56912e-05
0.00322438
-7.27228e-05
0.00328763
-8.05251e-05
0.00335772
-8.92066e-05
0.00343554
-9.90214e-05
0.00352221
-0.000110277
0.00361891
-0.000123021
0.00372678
-0.000137207
0.00384752
-0.000153497
0.00398381
-0.000173217
0.0041385
-0.000196685
0.00431287
-0.000221958
0.00450586
-0.000245929
0.00471501
-0.00026671
0.00493829
-0.000284786
0.00517522
-0.000302151
0.00542672
-0.000320668
0.00569436
-0.000341188
0.00597966
-0.000363698
0.00628398
-0.00038794
0.00660856
-0.000413767
0.00695466
-0.000441216
0.0073237
-0.000470486
0.00771719
-0.000501673
0.00813693
-0.000535152
0.00858466
-0.000570859
0.00906271
-0.00060954
0.00957305
-0.000650689
0.0101187
-0.000695825
0.0107017
-0.000743296
0.011326
-0.000796204
0.0119932
-0.000850737
0.0127089
-0.000912832
0.0134737
-0.000975345
0.0142951
-0.0010478
0.0151736
-0.00112065
0.0161161
-0.00120224
0.0171296
-0.00129328
0.0182063
-0.00137338
0.0193858
-0.00150572
0.0206037
-0.00155421
0.021988
-0.00176705
0.023362
-0.00175622
0.0249709
-0.00205558
-0.00202434
0.0373912
0.0134042
-0.0367679
0.0351412
0.0141378
0.0311163
0.0117788
0.0270234
0.0088725
0.0235755
0.00649093
0.0208555
0.00478697
0.0187347
0.00361818
0.017062
0.00281648
0.0157128
0.00225841
0.0145997
0.0018577
0.0136633
0.00155976
0.0128631
0.00133137
0.0121702
0.00115184
0.0115636
0.00100777
0.0110277
0.000890145
0.0105503
0.000792665
0.0101222
0.000710825
0.00973591
0.000641322
0.00938556
0.000581695
0.00906632
0.00053007
0.00877425
0.000485007
0.00850606
0.000445374
0.00825904
0.000410281
0.00803086
0.000379013
0.00781958
0.000350992
0.00762351
0.000325747
0.00744122
0.00030289
0.00727146
0.000282102
0.00711314
0.000263117
0.0069653
0.000245713
0.0068271
0.000229703
0.00669781
0.00021493
0.00657675
0.00020126
0.00646333
0.000188577
0.00635701
0.000176783
0.00625732
0.000165783
0.00616383
0.000155486
0.00607617
0.000145812
0.005994
0.000136692
0.00591702
0.000128063
0.00584498
0.000119867
0.00577765
0.000112045
0.00571482
0.000104541
0.00565634
9.73198e-05
0.00560205
9.03467e-05
0.00555182
8.36018e-05
0.00550555
7.7003e-05
0.00546315
7.05435e-05
0.00542456
6.42304e-05
0.00538972
5.79657e-05
0.00535862
5.17203e-05
0.00533118
4.56438e-05
0.00530744
3.94678e-05
0.00528739
3.3299e-05
0.00527106
2.70911e-05
0.00525847
2.0868e-05
0.00524964
1.45554e-05
0.0052448
7.92194e-06
0.00524395
1.20622e-06
0.00524689
-5.08161e-06
0.00525369
-1.15636e-05
0.00526463
-1.84507e-05
0.00527988
-2.56608e-05
0.0052996
-3.31439e-05
0.00532396
-4.09086e-05
0.00535316
-4.89981e-05
0.00538741
-5.74547e-05
0.00542696
-6.633e-05
0.0054721
-7.56875e-05
0.00552315
-8.55962e-05
0.00558052
-9.61511e-05
0.00564463
-0.000107454
0.00571602
-0.000119628
0.00579529
-0.000132828
0.00588315
-0.000147204
0.00598045
-0.000162988
0.00608819
-0.00018047
0.00620754
-0.000199873
0.00633983
-0.000221499
0.0064868
-0.000245984
0.00665055
-0.000274027
0.00683327
-0.000305741
0.00703725
-0.000341189
0.00726584
-0.000382088
0.00752395
-0.000431322
0.00781633
-0.000489074
0.00814479
-0.000550412
0.00850707
-0.000608205
0.00889887
-0.000658515
0.00931694
-0.000702859
0.00976076
-0.000745969
0.0102322
-0.000792059
0.0107339
-0.000842961
0.0112688
-0.000898614
0.0118393
-0.000958412
0.0124476
-0.00102208
0.0130961
-0.0010897
0.0137874
-0.00116176
0.0145242
-0.0012385
0.0153099
-0.00132083
0.0161477
-0.00140868
0.0170419
-0.0015037
0.0179961
-0.00160495
0.0190159
-0.00171561
0.020105
-0.0018324
0.0212706
-0.00196174
0.0225157
-0.00209587
0.0238501
-0.00224724
0.0252756
-0.00240084
0.0268051
-0.00257729
0.0284399
-0.00275545
0.0301923
-0.00295464
0.0320744
-0.00317541
0.0340729
-0.00337192
0.036259
-0.0036918
0.038514
-0.00380914
0.0410749
-0.00432796
0.0436081
-0.00428947
0.0465701
-0.00501754
-0.0048956
0.0418779
0.0117111
-0.0401848
0.042225
0.0137907
0.0405371
0.0134667
0.0376502
0.0117594
0.0344288
0.00971232
0.0313777
0.00783806
0.0286957
0.00630021
0.0264083
0.00510388
0.0244744
0.00419232
0.0228325
0.00349954
0.0214257
0.00296658
0.0202079
0.00254921
0.0191435
0.00221625
0.0182051
0.00194611
0.0173716
0.00172367
0.0166262
0.00153811
0.0159555
0.00138151
0.0153488
0.00124796
0.0147975
0.00113301
0.0142944
0.00103322
0.0138335
0.000945923
0.0134098
0.000869016
0.0130193
0.00080082
0.0126583
0.000739988
0.0123239
0.000685424
0.0120134
0.000636229
0.0117246
0.000591661
0.0114556
0.000551108
0.0112047
0.000514058
0.0109703
0.000480081
0.0107512
0.000448816
0.0105462
0.000419957
0.0103542
0.000393244
0.0101743
0.000368453
0.0100057
0.000345391
0.00984761
0.000323876
0.00969936
0.000303734
0.00956036
0.000284812
0.00943008
0.000266974
0.00930805
0.000250098
0.00919384
0.000234071
0.0090871
0.000218782
0.00898752
0.000204122
0.00889483
0.000190017
0.00880877
0.000176403
0.00872914
0.000163231
0.00865579
0.000150355
0.00858858
0.000137754
0.00852738
0.000125428
0.00847212
0.000113222
0.00842278
0.000101069
0.00837921
8.92059e-05
0.00834148
7.72011e-05
0.00830959
6.51932e-05
0.00828355
5.31246e-05
0.00826341
4.10122e-05
0.00824922
2.87401e-05
0.00824123
1.5912e-05
0.00823955
2.88716e-06
0.00824378
-9.30716e-06
0.00825419
-2.19764e-05
0.00827108
-3.53365e-05
0.00829474
-4.93183e-05
0.00832542
-6.38246e-05
0.00836338
-7.88727e-05
0.00840893
-9.45473e-05
0.0084624
-0.000110928
0.00852419
-0.000128117
0.00859474
-0.000146236
0.00867457
-0.000165425
0.00876427
-0.000185858
0.00886455
-0.000207732
0.00897622
-0.000231294
0.00910022
-0.000256835
0.00923768
-0.000284658
0.0093899
-0.000315215
0.00955849
-0.000349056
0.00974524
-0.000386621
0.00995228
-0.000428538
0.0101823
-0.000476031
0.0104387
-0.000530362
0.0107247
-0.000591767
0.0110441
-0.000660617
0.0114023
-0.000740264
0.0118066
-0.000835623
0.0122637
-0.000946218
0.0127758
-0.00106249
0.0133392
-0.00117158
0.0139476
-0.00126696
0.0145967
-0.00135193
0.015286
-0.00143523
0.0160183
-0.00152439
0.0167979
-0.00162255
0.0176289
-0.00172958
0.0185148
-0.00184436
0.0194592
-0.00196648
0.0204655
-0.00209603
0.0215378
-0.00223402
0.0226801
-0.00238084
0.0238975
-0.00253821
0.0251949
-0.00270605
0.0265786
-0.00288744
0.0280543
-0.00308066
0.0296302
-0.00329144
0.0313118
-0.00351404
0.0331097
-0.00375969
0.0350288
-0.00401492
0.0370831
-0.00430157
0.0392755
-0.00459323
0.0416248
-0.00492654
0.0441329
-0.00526359
0.0468175
-0.00563925
0.0496972
-0.0060551
0.0527493
-0.00642405
0.056084
-0.00702651
0.0595153
-0.00724038
0.0634075
-0.00822013
0.067249
-0.00813096
0.0717234
-0.00949202
-0.00923363
0.0451004
0.010207
-0.0435963
0.0465229
0.0123682
0.0467262
0.0132634
0.0456109
0.0128746
0.0435975
0.0117257
0.0411555
0.0102801
0.038627
0.00882874
0.0362093
0.00752157
0.0339908
0.00641085
0.0319977
0.00549265
0.0302213
0.00474292
0.0286397
0.00413081
0.0272282
0.00362775
0.0259639
0.00321046
0.0248267
0.00286088
0.0237996
0.00256522
0.0228681
0.00231292
0.0220203
0.00209583
0.0212457
0.00190759
0.0205357
0.00174317
0.019883
0.00159862
0.0192813
0.00147072
0.0187253
0.00135691
0.0182102
0.00125507
0.0177321
0.0011635
0.0172876
0.00108075
0.0168736
0.00100565
0.0164875
0.000937204
0.016127
0.000874583
0.01579
0.000817085
0.0154747
0.000764118
0.0151794
0.000715178
0.0149029
0.000669834
0.0146436
0.000627715
0.0144005
0.000588501
0.0141725
0.000551891
0.0139586
0.000517601
0.013758
0.000485374
0.01357
0.000454985
0.0133939
0.000426229
0.013229
0.000398918
0.013075
0.000372864
0.0129312
0.000347889
0.0127974
0.00032386
0.0126731
0.000300668
0.0125581
0.000278227
0.0124521
0.000256304
0.012355
0.000234853
0.0122666
0.000213861
0.0121867
0.000193098
0.0121154
0.00017244
0.0120523
0.000152228
0.0119977
0.000131839
0.0119515
0.000111426
0.0119137
9.09262e-05
0.0118843
7.03369e-05
0.0118636
4.94951e-05
0.0118517
2.77574e-05
0.0118489
5.73225e-06
0.0118546
-1.50082e-05
0.0118692
-3.65661e-05
0.0118931
-5.92803e-05
0.0119268
-8.29704e-05
0.0119705
-0.000107544
0.0120247
-0.000133034
0.0120897
-0.000159576
0.0121661
-0.000187309
0.0122544
-0.000216401
0.0123552
-0.000247062
0.0124693
-0.000279524
0.0125975
-0.000314083
0.0127409
-0.00035107
0.0129005
-0.000390904
0.0130777
-0.000434073
0.0132741
-0.000481097
0.0134917
-0.000532744
0.0137325
-0.000589924
0.0139993
-0.0006534
0.0142951
-0.000724284
0.0146236
-0.000804617
0.0149897
-0.000896407
0.015398
-0.00100011
0.0158541
-0.00111667
0.0163655
-0.00125169
0.0169424
-0.00141248
0.0175933
-0.00159718
0.0183207
-0.00178982
0.0191192
-0.00197013
0.0199807
-0.0021285
0.0208997
-0.00227086
0.0218757
-0.00241128
0.0229129
-0.00256159
0.024017
-0.00272658
0.0251934
-0.00290599
0.0264471
-0.00309809
0.0277829
-0.00330224
0.0292055
-0.00351863
0.0307203
-0.00374882
0.0323329
-0.00399344
0.03405
-0.00425537
0.0358784
-0.00453441
0.0378266
-0.00483565
0.0399022
-0.00515623
0.0421161
-0.00550537
0.0444758
-0.00587374
0.0469955
-0.00627935
0.0496811
-0.00670055
0.0525517
-0.00717221
0.0556105
-0.00765197
0.0588824
-0.00819842
0.0623695
-0.00875077
0.0660939
-0.00936363
0.0700824
-0.0100436
0.0742974
-0.010639
0.0788961
-0.0116252
0.0836119
-0.0119562
0.0889485
-0.0135567
0.094208
-0.0133905
0.100295
-0.0155789
-0.0151563
0.0482215
0.00912462
-0.0471391
0.049706
0.0108837
0.0508133
0.0121561
0.0510668
0.0126211
0.050431
0.0123615
0.0491043
0.0116067
0.0473422
0.0105909
0.0453677
0.00949605
0.0433409
0.00843763
0.0413594
0.00747414
0.0394782
0.00662407
0.0377218
0.00588724
0.0360962
0.0052534
0.0345979
0.00470872
0.0332193
0.00423943
0.0319512
0.00383336
0.0307839
0.00348025
0.0297081
0.00317161
0.0287152
0.00290044
0.0277974
0.00266099
0.0269476
0.00244847
0.0261593
0.00225896
0.0254271
0.00208916
0.0247458
0.00193636
0.024111
0.00179825
0.0235189
0.00167292
0.0229658
0.00155873
0.0224487
0.00145431
0.0219648
0.0013585
0.0215115
0.00127031
0.0210868
0.00118887
0.0206885
0.00111347
0.0203149
0.00104347
0.0199642
0.000978335
0.0196352
0.000917597
0.0193262
0.000860812
0.0190363
0.000807561
0.0187642
0.000757465
0.018509
0.000710184
0.0182698
0.000665412
0.0180459
0.000622865
0.0178365
0.000582262
0.017641
0.000543331
0.017459
0.00050586
0.01729
0.000469691
0.0171335
0.000434676
0.0169894
0.000400481
0.0168572
0.000367018
0.0167368
0.000334257
0.016628
0.000301873
0.0165308
0.000269663
0.0164449
0.000238096
0.0163705
0.000206311
0.0163074
0.00017448
0.0162558
0.000142518
0.0162158
0.000110402
0.0161873
7.79167e-05
0.016171
4.40874e-05
0.0161668
9.92407e-06
0.0161743
-2.25183e-05
0.016194
-5.62417e-05
0.0162264
-9.16508e-05
0.0162719
-0.000128525
0.0163311
-0.000166764
0.0164045
-0.000206425
0.0164927
-0.00024771
0.0165962
-0.000290835
0.0167159
-0.000336065
0.0168525
-0.000383714
0.0170071
-0.000434152
0.0171809
-0.000487827
0.0173751
-0.000545252
0.0175912
-0.000607077
0.0178312
-0.000674054
0.0180971
-0.000746995
0.0183915
-0.000827092
0.0187173
-0.000915727
0.019078
-0.00101411
0.0194777
-0.00112401
0.0199216
-0.00124855
0.0204159
-0.00139066
0.0209669
-0.00155117
0.0215822
-0.00173191
0.0222718
-0.00194132
0.0230487
-0.00218941
0.0239237
-0.00247212
0.024899
-0.00276518
0.0259681
-0.00303922
0.0271207
-0.00328107
0.02835
-0.00350015
0.0296559
-0.00371718
0.0310436
-0.00394927
0.0325202
-0.00420323
0.0340929
-0.0044787
0.035768
-0.00477315
0.0375515
-0.00508576
0.0394495
-0.0054166
0.0414688
-0.00576811
0.0436163
-0.00614097
0.0459006
-0.00653968
0.0483299
-0.00696366
0.050915
-0.00742084
0.0536652
-0.0079064
0.0565943
-0.0084345
0.0597111
-0.00899045
0.0630334
-0.00960169
0.0665677
-0.0102349
0.0703381
-0.0109426
0.0743468
-0.0116606
0.0786249
-0.0124766
0.0831739
-0.0132998
0.0880183
-0.0142081
0.0931947
-0.01522
0.0986443
-0.0160886
0.104577
-0.0175577
0.110638
-0.018017
0.117467
-0.0203856
0.124194
-0.0201183
0.131909
-0.0232935
-0.0226995
0.0516272
0.00833122
-0.0508338
0.0528331
0.00967775
0.0541012
0.010888
0.0550219
0.0117004
0.0553625
0.012021
0.0550867
0.0118825
0.0542828
0.0113949
0.0530885
0.0106903
0.0516416
0.00988459
0.0500552
0.00906047
0.0484118
0.00826752
0.0467694
0.00752961
0.0451657
0.00685708
0.0436228
0.00625165
0.0421524
0.00570983
0.0407599
0.00522588
0.0394467
0.0047935
0.0382116
0.00440669
0.037052
0.00405998
0.0359645
0.00374851
0.034945
0.00346796
0.0339894
0.00321455
0.0330936
0.00298497
0.0322536
0.00277636
0.0314656
0.00258622
0.0307262
0.00241238
0.0300319
0.00225297
0.0293799
0.00210636
0.0287673
0.00197115
0.0281915
0.00184611
0.0276501
0.00173018
0.0271412
0.00162245
0.0266625
0.00152211
0.0262124
0.00142846
0.0257891
0.00134089
0.0253911
0.00125881
0.025017
0.00118167
0.0246655
0.00110897
0.0243354
0.00104023
0.0240258
0.000975044
0.0237357
0.000913018
0.0234642
0.000853765
0.0232106
0.000796902
0.0229743
0.000742128
0.0227548
0.000689212
0.0225515
0.00063795
0.0223641
0.000587873
0.0221923
0.000538849
0.0220357
0.000490814
0.0218943
0.000443339
0.0217678
0.000396114
0.0216562
0.000349759
0.0215593
0.000303139
0.0214774
0.000256427
0.0214104
0.000209517
0.0213584
0.000162359
0.0213217
0.000114669
0.0213006
6.51236e-05
0.0212955
1.51069e-05
0.0213056
-3.26622e-05
0.0213317
-8.23384e-05
0.0213744
-0.000134379
0.0214344
-0.000188481
0.0215122
-0.000244569
0.0216085
-0.000302741
0.0217241
-0.000363281
0.0218597
-0.000426503
0.0220165
-0.000492788
0.0221954
-0.0005626
0.0223977
-0.000636468
0.0226249
-0.000715042
0.0228787
-0.000799071
0.0231611
-0.000889497
0.0234745
-0.000987402
0.0238215
-0.00109399
0.0242053
-0.00121097
0.02463
-0.00134034
0.0250997
-0.00148389
0.02562
-0.00164424
0.0261972
-0.00182583
0.0268394
-0.00203279
0.0275546
-0.00226643
0.0283525
-0.00252983
0.0292461
-0.00283483
0.030251
-0.00319438
0.0313802
-0.00360134
0.0326364
-0.00402137
0.0340115
-0.00441428
0.0354932
-0.0047628
0.0370736
-0.00508053
0.0387525
-0.0053961
0.0405362
-0.00573294
0.0424333
-0.00610032
0.0444524
-0.00649783
0.0466012
-0.00692196
0.0488872
-0.0073717
0.0513175
-0.00784691
0.0539004
-0.00835097
0.0566438
-0.00888439
0.0595579
-0.00945378
0.062652
-0.0100578
0.0659392
-0.010708
0.0694295
-0.0113967
0.0731398
-0.0121448
0.077079
-0.0129297
0.0812689
-0.0137916
0.0857148
-0.0146808
0.090446
-0.0156739
0.095462
-0.0166765
0.1008
-0.0178142
0.106458
-0.0189582
0.112462
-0.020212
0.118858
-0.0216164
0.125562
-0.0227927
0.132835
-0.0248304
0.140238
-0.0254203
0.148522
-0.0286695
0.156691
-0.0282872
0.165945
-0.0325472
-0.0317908
0.0553582
0.00769377
-0.0547208
0.056291
0.00874493
0.0574059
0.00977323
0.0584773
0.0106289
0.0592836
0.0112147
0.059692
0.0114741
0.0596685
0.0114183
0.0592497
0.0111091
0.0585072
0.0106271
0.0575211
0.0100465
0.0563649
0.00942371
0.055098
0.00879654
0.053768
0.00818708
0.0524118
0.00760789
0.0510557
0.0070659
0.0497184
0.00656314
0.048413
0.00609894
0.0471483
0.00567137
0.0459303
0.00527801
0.0447625
0.00491631
0.0436467
0.00458371
0.0425836
0.00427773
0.0415725
0.00399599
0.0406126
0.00373629
0.0397023
0.00349655
0.0388398
0.00327489
0.0380232
0.00306957
0.0372505
0.00287905
0.0365197
0.00270192
0.0358288
0.00253695
0.035176
0.00238301
0.0345594
0.00223911
0.0339771
0.00210438
0.0334276
0.00197801
0.0329091
0.00185933
0.0324203
0.00174766
0.0319596
0.00164234
0.0315258
0.00154275
0.0311177
0.00144833
0.0307342
0.00135856
0.0303743
0.00127294
0.0300371
0.00119099
0.0297218
0.00111221
0.0294277
0.0010362
0.0291542
0.000962653
0.0289009
0.000891316
0.0286672
0.000821553
0.0284529
0.000753186
0.0282575
0.000686124
0.0280811
0.000619805
0.0279234
0.000553789
0.0277843
0.000488888
0.0276638
0.00042363
0.027562
0.000358206
0.0274791
0.000292459
0.0274151
0.000226323
0.0273703
0.000159428
0.0273454
9.00237e-05
0.0273404
2.01026e-05
0.027355
-4.71873e-05
0.0273898
-0.000117167
0.0274457
-0.000190316
0.0275235
-0.000266277
0.027624
-0.000345005
0.0277479
-0.000426654
0.0278962
-0.000511619
0.02807
-0.000600327
0.0282706
-0.000693312
0.0284992
-0.000791203
0.0287574
-0.000894746
0.0290472
-0.00100483
0.0293707
-0.00112249
0.0297302
-0.00124904
0.0301288
-0.00138596
0.0305697
-0.00153492
0.031057
-0.00169831
0.0315955
-0.00187884
0.0321907
-0.00207903
0.032849
-0.00230256
0.0335786
-0.00255546
0.0343891
-0.00284325
0.0352906
-0.00316797
0.036295
-0.00353423
0.037418
-0.00395776
0.0386782
-0.00445465
0.0400909
-0.00501398
0.0416592
-0.00558969
0.043374
-0.00612907
0.0452212
-0.00661001
0.0471915
-0.0070508
0.0492844
-0.00748907
0.0515071
-0.0079556
0.0538693
-0.00846259
0.0563813
-0.00900978
0.0590518
-0.00959249
0.0618897
-0.0102096
0.0649032
-0.0108603
0.0681014
-0.0115492
0.0714933
-0.0122762
0.0750899
-0.0130505
0.0789012
-0.013869
0.0829418
-0.0147486
0.0872219
-0.0156768
0.0917608
-0.0166836
0.0965663
-0.0177352
0.101664
-0.0188892
0.107056
-0.0200729
0.112777
-0.0213944
0.11882
-0.0227201
0.125228
-0.0242224
0.131997
-0.0257265
0.139147
-0.0273626
0.146736
-0.0292051
0.154651
-0.0307081
0.163194
-0.0333728
0.171865
-0.0340914
0.181472
-0.0382766
0.190968
-0.0377829
0.201568
-0.0431479
-0.0422458
0.0593851
0.00714574
-0.0588371
0.0601317
0.00799832
0.0610493
0.0088557
0.0620401
0.00963812
0.0629628
0.0102919
0.0636882
0.0107487
0.0641357
0.0109709
0.0642783
0.0109665
0.0641298
0.0107756
0.063727
0.0104493
0.0631149
0.0100357
0.062338
0.00957349
0.0614346
0.00909042
0.060438
0.00860452
0.0593771
0.00812683
0.0582749
0.0076653
0.0571499
0.00722402
0.0560166
0.00680464
0.0548871
0.00640754
0.0537709
0.0060325
0.0526756
0.00567896
0.0516071
0.00534619
0.0505698
0.00503333
0.0495667
0.00473939
0.0485999
0.00446334
0.0476707
0.00420409
0.0467797
0.00396056
0.0459271
0.00373168
0.0451126
0.00351643
0.0443357
0.00331385
0.0435957
0.00312302
0.0428917
0.00294311
0.0422227
0.00277334
0.0415878
0.00261297
0.0409857
0.00246137
0.0404155
0.00231788
0.039876
0.00218182
0.0393662
0.00205255
0.0388851
0.00192944
0.0384317
0.00181192
0.0380052
0.00169944
0.0376048
0.00159143
0.0372297
0.00148729
0.0368794
0.00138654
0.0365532
0.0012888
0.0362507
0.00119379
0.0359716
0.0011007
0.0357155
0.00100929
0.0354821
0.00091948
0.0352714
0.000830532
0.0350833
0.000741861
0.0349177
0.000654521
0.0347747
0.000566651
0.0346544
0.000478463
0.0345572
0.000389729
0.0344831
0.00030038
0.0344326
0.000209942
0.0344064
0.000116258
0.0344046
2.18138e-05
0.0344269
-6.94806e-05
0.0344744
-0.000164627
0.034548
-0.000263886
0.0346486
-0.000366879
0.0347772
-0.000473608
0.0349348
-0.000584315
0.0351227
-0.000699509
0.0353422
-0.000819772
0.0355947
-0.000945801
0.0358819
-0.00107844
0.0362058
-0.00121868
0.0365687
-0.00136771
0.0369731
-0.00152689
0.037422
-0.00169797
0.037919
-0.00188293
0.0384681
-0.00208399
0.0390741
-0.00230431
0.0397427
-0.00254749
0.0404806
-0.00281692
0.0412955
-0.00311749
0.0421972
-0.00345709
0.0431968
-0.00384292
0.0443068
-0.0042779
0.045541
-0.00476844
0.0469177
-0.00533453
0.0484587
-0.00599558
0.0501811
-0.00673642
0.0520894
-0.00749795
0.0541737
-0.00821339
0.0564185
-0.00885478
0.0588128
-0.00944518
0.0613558
-0.010032
0.0640547
-0.0106545
0.0669204
-0.0113283
0.0699642
-0.0120535
0.073196
-0.0128243
0.0766256
-0.0136392
0.0802619
-0.0144967
0.0841151
-0.0154024
0.0881939
-0.0163549
0.0925101
-0.0173667
0.0970728
-0.0184317
0.101898
-0.0195738
0.106994
-0.0207731
0.112383
-0.0220723
0.118069
-0.0234216
0.124081
-0.0249014
0.130417
-0.0264086
0.137114
-0.0280916
0.144161
-0.0297663
0.1516
-0.0316622
0.159424
-0.0335501
0.167649
-0.0355875
0.176336
-0.0378925
0.185353
-0.0397252
0.195017
-0.0430367
0.20481
-0.0438837
0.215523
-0.0489898
0.22615
-0.0484105
0.237823
-0.0548206
-0.0537929
0.0637025
0.00665772
-0.0632144
0.0643309
0.00736985
0.0650936
0.00809302
0.0659521
0.0087796
0.066833
0.00941108
0.0676443
0.00993741
0.0683065
0.0103087
0.0687695
0.0105036
0.0690143
0.0105307
0.0690465
0.0104172
0.0688855
0.0101967
0.0685571
0.00990187
0.0680876
0.00955995
0.0675003
0.00919176
0.0668157
0.00881151
0.0660533
0.0084277
0.0652298
0.00804752
0.0643592
0.00767524
0.0634536
0.00731309
0.0625239
0.00696217
0.0615799
0.00662305
0.06063
0.00629608
0.0596818
0.00598148
0.0587418
0.00567937
0.0578154
0.00538974
0.056907
0.00511249
0.0560202
0.00484737
0.0551578
0.00459407
0.054322
0.00435224
0.0535144
0.00412145
0.0527362
0.00390126
0.0519881
0.00369123
0.0512705
0.00349088
0.0505837
0.00329976
0.0499277
0.00311744
0.0493021
0.00294345
0.0487067
0.00277721
0.0481411
0.00261816
0.0476048
0.00246573
0.0470973
0.00231937
0.0466182
0.00217854
0.046167
0.00204264
0.0457433
0.00191104
0.0453466
0.00178319
0.0449768
0.00165867
0.0446333
0.00153724
0.0443161
0.00141788
0.0440251
0.0013003
0.0437601
0.00118449
0.0435211
0.00106951
0.0433084
0.000954596
0.0431218
0.000841143
0.0429616
0.000726804
0.0428282
0.000611874
0.042722
0.000495987
0.0426432
0.000379138
0.0425925
0.000260637
0.0425709
0.000137862
0.0425781
1.45844e-05
0.0426143
-0.000105648
0.0426809
-0.000231241
0.042779
-0.000362017
0.0429098
-0.000497651
0.0430744
-0.000638221
0.0432742
-0.000784078
0.0435106
-0.000935873
0.0437851
-0.00109436
0.0440998
-0.00126043
0.0444565
-0.00143516
0.0448577
-0.00161985
0.0453059
-0.001816
0.0458044
-0.00202538
0.0463567
-0.00225023
0.0469668
-0.00249309
0.0476397
-0.00275685
0.0483809
-0.00304551
0.0491971
-0.00336373
0.0500961
-0.00371587
0.0510868
-0.00410824
0.0521805
-0.00455076
0.0533901
-0.00505255
0.0547299
-0.0056177
0.056216
-0.0062545
0.0578689
-0.00698738
0.0597125
-0.00783926
0.0617667
-0.0087906
0.0640372
-0.00976842
0.0665143
-0.0106906
0.0691816
-0.011522
0.0720264
-0.0122901
0.0750469
-0.0130525
0.07825
-0.0138576
0.0816469
-0.0147253
0.0852498
-0.0156564
0.0890692
-0.0166437
0.0931157
-0.0176858
0.0973985
-0.0187794
0.101928
-0.0199319
0.106712
-0.0211391
0.111763
-0.0224173
0.117087
-0.023756
0.122701
-0.0251876
0.12861
-0.0266824
0.134837
-0.0282993
0.141383
-0.0299671
0.148277
-0.0317961
0.155511
-0.0336428
0.163126
-0.0357065
0.171101
-0.0377406
0.17948
-0.040042
0.188249
-0.042319
0.197419
-0.0447572
0.20705
-0.0475241
0.217001
-0.049676
0.227576
-0.0536118
0.238285
-0.0545926
0.249834
-0.0605391
0.261345
-0.0599214
0.273777
-0.0672525
-0.066129
0.0683259
0.006214
-0.0678822
0.0688757
0.0068201
0.069529
0.00743974
0.0702704
0.00803814
0.0710653
0.00861624
0.0718573
0.00914539
0.0725848
0.00958118
0.0731967
0.00989169
0.073661
0.0100664
0.0739655
0.0101127
0.0741131
0.0100491
0.074116
0.00989898
0.0739904
0.00968553
0.0737529
0.00942926
0.0734181
0.00914639
0.0729973
0.00884848
0.072503
0.00854184
0.0719456
0.00823255
0.0713342
0.0079245
0.0706766
0.00761981
0.0699801
0.0073195
0.0692522
0.00702406
0.0684998
0.00673388
0.0677298
0.00644937
0.0669486
0.00617093
0.0661621
0.00589893
0.0653758
0.00563372
0.0645943
0.00537556
0.0638218
0.00512469
0.063062
0.00488126
0.062318
0.00464534
0.0615922
0.00441698
0.0608869
0.00419618
0.0602038
0.00398286
0.0595443
0.00377696
0.0589094
0.00357832
0.0583
0.00338662
0.0577167
0.00320149
0.0571599
0.00302254
0.0566299
0.00284935
0.056127
0.00268147
0.0556512
0.00251837
0.0552028
0.00235943
0.0547819
0.00220412
0.0543886
0.00205201
0.0540229
0.00190296
0.053685
0.00175578
0.0533751
0.00161014
0.0530934
0.00146616
0.0528403
0.00132267
0.0526161
0.00117874
0.0524211
0.00103618
0.0522558
0.000892095
0.0521208
0.00074692
0.0520167
0.000600098
0.0519441
0.000451732
0.0519037
0.000300974
0.0518969
0.000144708
0.051924
-1.25192e-05
0.0519844
-0.000166035
0.0520807
-0.000327556
0.0522141
-0.000495436
0.052386
-0.000669553
0.0525979
-0.00085009
0.0528513
-0.00103754
0.0531482
-0.0012327
0.0534903
-0.00143651
0.05388
-0.00165011
0.0543197
-0.00187484
0.0548121
-0.00211229
0.0553605
-0.00236436
0.0559684
-0.00263327
0.0566399
-0.00292178
0.05738
-0.0032331
0.0581939
-0.00357082
0.0590883
-0.00393991
0.0600708
-0.00434617
0.06115
-0.00479511
0.0623363
-0.00529452
0.063642
-0.0058565
0.0650818
-0.00649237
0.0666717
-0.00720756
0.0684295
-0.00801231
0.0703775
-0.00893534
0.0725414
-0.0100032
0.0749432
-0.0111923
0.0775904
-0.0124157
0.0804747
-0.0135748
0.083579
-0.0146263
0.0868895
-0.0156006
0.0904027
-0.0165656
0.0941246
-0.0175795
0.098066
-0.0186667
0.102239
-0.0198296
0.106655
-0.0210593
0.111324
-0.0223548
0.116255
-0.0237106
0.121459
-0.0251358
0.126942
-0.0266218
0.132714
-0.0281899
0.138781
-0.0298222
0.145156
-0.0315626
0.151841
-0.0333673
0.158858
-0.0353168
0.166203
-0.0373114
0.173906
-0.0394996
0.181951
-0.0416874
0.19038
-0.0441354
0.199162
-0.0465232
0.208344
-0.0492241
0.217903
-0.0518777
0.227845
-0.0546988
0.238225
-0.0579046
0.248905
-0.0603559
0.260153
-0.0648602
0.271549
-0.0659884
0.283662
-0.0726514
0.295804
-0.0720635
0.308705
-0.0801542
-0.0789912
0.0732776
0.00580419
-0.0728678
0.0737713
0.0063264
0.074347
0.00686405
0.074998
0.00738719
0.0757082
0.00790603
0.0764462
0.00840733
0.0771695
0.00885797
0.0778349
0.00922628
0.0784082
0.00949309
0.0788681
0.00965277
0.0792067
0.00971053
0.0794266
0.00967902
0.0795372
0.00957497
0.0795504