/*--------------------------------*- C++ -*----------------------------------*\
| =========                 |                                                 |
| \\      /  F ield         | OpenFOAM: The Open Source CFD Toolbox           |
|  \\    /   O peration     | Version:  2412                                  |
|   \\  /    A nd           | Website:  www.openfoam.com                      |
|    \\/     M anipulation  |                                                 |
\*---------------------------------------------------------------------------*/
FoamFile
{
    version     2.0;
    format      ascii;
    arch        "LSB;label=32;scalar=64";
    class       surfaceScalarField;
    location    "0.705";
    object      ddtCorrDdt0(phi);
}
// * * * * * * * * * * * * * * * * * * * * * * * * * * * * * * * * * * * * * //

dimensions      [0 3 -2 0 0 0 0];

oriented        oriented;

internalField   nonuniform List<scalar> 
24930
(
0.0202116
-0.000486996
-0.0163476
0.0211494
-0.00190376
0.0195302
0.00807218
0.0178841
0.0062413
0.0137198
0.00627117
0.00902963
0.00476185
0.00550654
0.00277475
0.00381274
0.00169638
0.00297015
0.00135245
0.000355133
0.00111132
-0.00231367
-0.000572253
-0.00461447
0.000790785
-0.00155676
-1.9166e-05
0.00497526
-0.00440141
0.00396732
-0.00495126
-0.00725843
0.00274613
-0.017446
0.0140372
-0.0106333
0.00531041
0.00833263
-0.0284789
0.0129151
-0.0419891
-0.00592027
0.0102592
-0.0240403
0.0974294
-0.0271007
0.0700487
0.00381488
-0.0981236
0.0409018
-0.161264
0.0424542
-0.0454649
-0.0139334
0.136622
-0.0112099
0.0781339
0.00589543
-0.0031327
0.0124078
-0.00494589
0.00773471
0.00858881
0.00430763
0.00992771
0.00479416
0.00574343
0.00494225
0.00493382
0.00149858
0.00752977
-0.00269867
0.00756753
-0.00470344
0.00476479
-0.00451167
0.00287024
-0.00392109
0.00278945
-0.00331104
0.00225186
-0.00234226
-9.73112e-06
-0.000450773
-0.00301906
0.00159324
-0.00445236
0.00309924
-0.00529695
0.00393102
-0.00785713
0.00398572
-0.00934012
0.00320219
-0.00974429
0.00160687
-0.00910103
-0.000715871
-0.00797447
-0.00348767
-0.00635145
-0.00573492
-0.00532169
-0.00742616
-0.00384433
-0.00804876
-0.00220828
-0.00708745
-0.00151025
-0.00680935
0.00309984
-0.00655272
0.00741134
-0.0036242
0.00614761
0.000716517
0.00371398
0.00388219
0.00529282
0.00624746
0.00377477
0.00732019
0.00323822
0.00686271
0.00323459
0.00771387
0.000218973
0.00705199
0.00150571
0.00595694
0.000130562
0.00490527
0.00144096
0.00454639
0.00673951
0.00406266
-0.00627763
0.00442116
-0.00754476
0.00540535
-0.0085107
0.00640697
-0.00509617
0.0081622
-0.00669277
0.00919375
-0.0140292
0.00801559
-0.0160739
0.00404794
-0.0115123
-0.000418245
-0.00221429
-0.00449792
0.005021
-0.0056058
-0.00827467
-0.0100034
6.37185e-05
-0.0102517
0.00110713
-0.0098952
-0.00219714
-0.013733
0.00854296
-0.00899949
0.00603099
-0.0257861
0.0253406
-0.0271534
0.0146252
-0.055441
0.0332382
0.0373232
-0.0691815
-0.0182197
0.0964573
-0.0874663
0.0842066
0.0817699
-0.263402
0.0429735
0.0306301
-0.0468304
-0.0693674
0.0110378
0.0295172
-0.0210046
-0.0736866
-0.00620868
-0.0223012
-0.00435303
-0.0299733
0.00447152
-0.0179539
0.0328819
-0.0273929
0.064905
-0.0299479
0.0877734
-0.0239827
0.0733241
0.00949938
0.0336485
0.0236008
0.00771471
-0.0734643
-0.038137
0.0337136
-0.0755845
0.0420513
-0.0761673
-0.0022334
-0.0483088
-0.0230803
-0.0290257
-0.014965
-0.024342
0.00198781
-0.0197117
0.00398399
-0.0147496
0.00116348
-0.00592444
-0.00634643
0.00515816
0.0223329
0.02064
-0.00822768
0.0337451
-0.0118246
0.0122184
0.0229024
-0.00405957
0.0156296
-0.00675582
0.000767469
-0.00508029
-0.00355529
-0.00324776
-0.00054937
-0.00712878
0.00674049
0.00483369
-0.00179742
0.0118703
0.00717735
0.0131987
0.00668962
0.0117653
0.00583913
0.0091902
0.003505
0.0072187
0.000735471
0.00644184
-0.000892754
0.00532548
-0.00108747
0.00305939
-0.00138809
-0.000786873
-0.00408682
-0.00060135
-0.00534302
0.00413413
-0.00314553
0.00659443
0.000467636
0.00193231
-0.00118819
-0.0101366
-0.00502767
-0.0148445
-0.0033257
-0.00275169
0.00395116
0.0115573
-0.00109545
0.00512844
-0.0262828
-0.0167419
-0.0298249
-0.0248835
0.0753984
-0.012491
0.150835
0.014121
-0.0724128
0.0343391
-0.235914
0.0260984
-0.0538744
-0.0162759
0.196139
-0.00404156
0.0690708
0.0111968
-0.0240993
0.0139001
0.000832829
0.00853829
0.0118749
0.0062332
0.00876501
0.00714207
0.00993879
0.00677591
0.011667
0.00276965
0.00986474
-0.00143788
0.0059991
-0.00318383
0.0040967
-0.00286392
0.00448571
-0.0022938
0.00388341
-0.0016693
0.00225953
-0.000584704
0.00016139
0.00136476
-0.00104127
0.00349577
-0.0016736
0.00511269
-0.00219979
0.00581732
-0.00339408
0.00566473
-0.00436914
0.0046236
-0.00499702
0.00270591
-0.00516155
-3.34584e-06
-0.00512631
-0.00305107
-0.00475599
-0.00579551
-0.00469585
-0.00777683
-0.00380364
-0.00874256
-0.00236611
-0.00811222
-0.000812154
-0.00819729
0.00545346
-0.00819298
0.0129172
-0.00495471
0.0107446
-0.00110897
0.00585004
0.00128774
0.0067618
0.00261083
0.00614819
0.0032566
0.00559585
0.00319366
0.00540151
0.00433606
0.000434593
0.00486055
4.26486e-05
0.00592324
-0.00331868
0.00788296
-0.00690313
0.0114822
-0.00862622
0.0150159
-0.0228278
0.0194146
-0.0148925
0.0246847
-0.0159848
0.0293444
-0.0159732
0.0332002
-0.0147215
0.0339848
-0.0102264
0.0286205
-0.00308945
0.0179157
0.0045193
0.00517221
0.00868339
-0.00897562
0.0118589
-0.0166361
0.00681266
-0.024385
0.00595715
-0.0257643
0.00366926
-0.0262411
0.000982525
-0.0301206
0.00844607
-0.0373374
0.0265015
-0.0888665
0.0716257
-0.119431
0.0610515
-0.190862
0.0869936
0.0961568
-0.351351
-0.0607865
0.208888
-0.283715
0.311944
0.225105
-0.675112
0.0777757
0.188314
-0.0336687
0.223
0.0158022
-0.0319494
-0.0707111
0.0731986
-0.0175392
-0.086677
-0.00872344
-0.0119944
0.0268338
-0.0545268
0.131776
-0.143554
0.231239
-0.138056
0.276901
-0.0653692
0.219599
0.0639912
0.0973101
0.152331
0.00124237
-0.0270896
-0.118132
0.153729
-0.237041
0.15651
-0.239448
0.00377051
-0.142231
-0.123863
-0.0826235
-0.0767817
-0.067204
-0.0187022
-0.0549268
-0.00971089
-0.0432259
-0.00963645
-0.0163123
-0.0279071
0.01757
-0.0194929
0.0613928
-0.0490763
0.0698602
-0.015427
0.0179696
0.0773016
-0.0285351
0.0630182
-0.0301245
0.000843655
-0.0189317
-0.017426
-0.012481
-0.00756409
-0.00578298
0.0112237
-0.00134847
-0.000566201
0.00478742
0.00468448
0.00678061
0.0047118
0.00639875
0.00373689
0.00514206
0.00190375
0.00461807
-0.000212367
0.00481944
-0.00164414
0.00365048
-0.00256843
0.000322231
-0.0036117
-0.00278897
-0.00523733
-0.000824766
-0.0050878
0.00558157
-0.00228868
0.00842163
-0.000228676
-0.000126372
-0.00310219
-0.0128382
-0.00668025
-0.0130133
-0.0030571
0.00283072
0.0068319
0.0136411
0.00462893
-0.000360679
-0.0182426
-0.0235822
-0.0324636
-0.0239833
0.0213156
0.00812727
0.112497
0.0241173
0.0354228
0.0179798
-0.162426
2.56037e-05
-0.07062
-0.00868899
0.171171
0.00438782
0.0164092
0.0155221
-0.028034
0.0141877
0.0102654
0.00812805
0.0139757
0.00670925
0.00963255
0.00790041
0.0139532
0.00716224
0.0149998
0.00276813
0.0102943
-0.00143505
0.00506088
-0.00298205
0.0039731
-0.00254667
0.00561163
-0.00191548
0.00477535
-0.00120617
0.00294592
2.41465e-05
0.00113255
0.00218398
0.000747631
0.0044853
0.000499321
0.00621953
-0.000107721
0.00695335
-0.00156133
0.00676578
-0.00291916
0.00562045
-0.00413602
0.00351906
-0.00506485
0.000549013
-0.00582841
-0.00277116
-0.00591849
-0.00583507
-0.00599859
-0.0081312
-0.00498339
-0.00954202
-0.00323591
-0.00953013
-0.000799941
-0.00978959
0.00808021
-0.00952489
0.0162563
-0.00633216
0.0109187
-0.0038102
0.00968547
-0.00212586
0.0123062
-0.00152512
0.0123151
-0.00134912
0.0109154
-0.00100924
0.00905179
0.000403998
0.000645037
0.0024162
-0.00280198
0.00602893
-0.00973857
0.0115163
-0.0174167
0.0193652
-0.0231784
0.0275186
-0.0363026
0.0365389
-0.0305868
0.0460996
-0.0318626
0.0542111
-0.0314272
0.0596985
-0.0253798
0.0592424
-0.0135307
0.0493449
0.00291629
0.0304248
0.0202356
0.00846027
0.0261544
-0.0154
0.0289775
-0.0300654
0.0235146
-0.0405141
0.0126887
-0.0417587
0.00644881
-0.0415929
0.00375135
-0.0444264
0.00881346
-0.0663572
0.0672647
-0.162459
0.161632
-0.221595
0.136822
-0.360401
0.212514
0.135056
-0.826416
-0.0926799
0.421126
-0.477409
0.696899
0.369633
-1.51391
0.137647
0.428314
0.101024
0.280509
0.019759
-0.0246567
-0.124408
0.211162
-0.0315354
-0.192368
-0.0125003
-0.0290451
0.0634562
-0.135791
0.255396
-0.340174
0.422203
-0.309298
0.471409
-0.110902
0.352645
0.179435
0.140682
0.35939
-0.0208941
0.132205
-0.2054
0.333351
-0.405754
0.355565
-0.410166
0.00828606
-0.236988
-0.297446
-0.136165
-0.176478
-0.11294
-0.042448
-0.0927697
-0.0268272
-0.0733548
-0.0246586
-0.0239535
-0.0712668
0.0366367
-0.0808983
0.107795
-0.114391
0.11346
-0.0166092
0.017822
0.174398
-0.0550477
0.135429
-0.0546261
-0.00202613
-0.0334049
-0.0417888
-0.0278224
-0.00425903
0.0012726
0.0041773
-0.0020252
0.00176347
0.00119341
0.00336225
0.00231894
0.0029322
0.00195187
0.00174752
0.00135468
0.000236346
0.00179996
-0.00146521
0.00266619
-0.00281733
0.00155957
-0.00396173
-0.00209396
-0.00516549
-0.0045323
-0.00603246
-0.00118884
-0.00486831
0.00594542
-0.00215863
0.00760272
-0.00167422
-0.00220001
-0.00514399
-0.013959
-0.00654346
-0.011791
0.00104355
0.00478054
0.0101882
0.0125736
0.00153532
-0.00389067
-0.0238487
-0.0224078
-0.0239788
-0.01629
0.0325362
0.0144141
0.102255
0.0269571
0.0599117
0.00139716
-0.0818896
-0.0207258
-0.107925
0.00492225
0.0540959
0.0121607
-0.00187291
0.0187575
-0.0214138
0.0139775
0.0192544
0.00761257
0.0168931
0.00710194
0.012214
0.00836968
0.0179754
0.0072531
0.0171479
0.00256706
0.0103848
-0.00158625
0.00450061
-0.00296674
0.00402445
-0.00248725
0.00648848
-0.00179597
0.00535361
-0.000987486
0.00342937
0.000423836
0.00187638
0.00279771
0.00195754
0.00528433
0.00185677
0.00712999
0.0010918
0.00790648
-0.000675499
0.00768933
-0.00244557
0.00643459
-0.00420266
0.00413162
-0.00573875
0.000876274
-0.00708058
-0.0027943
-0.00752588
-0.00620912
-0.0073967
-0.00884717
-0.0060261
-0.0106722
-0.00388613
-0.0116724
-0.000305203
-0.0118176
0.00995533
-0.0106683
0.0173372
-0.00872751
0.0127213
-0.00711185
0.0151827
-0.00603495
0.0191388
-0.00601815
0.0195606
-0.00619314
0.0168983
-0.00553298
0.0126051
-0.00338163
0.0003142
0.000377357
-0.00764517
0.00687045
-0.0197129
0.0163141
-0.0324626
0.0287386
-0.0419191
0.0419549
-0.0476366
0.0560182
-0.0523636
0.0699695
-0.052884
0.0812633
-0.0505537
0.0878309
-0.0376032
0.0857093
-0.0156246
0.0693748
0.0149929
0.041601
0.0442788
0.00959959
0.0542458
-0.024286
0.058994
-0.0456937
0.0475167
-0.0581115
0.0208386
-0.0579936
0.00793089
-0.0559296
0.00508187
-0.0568276
0.00739573
-0.0963627
0.126491
-0.24767
0.30776
-0.332367
0.241045
-0.572868
0.437664
0.125572
-1.50168
-0.103469
0.639589
-0.646727
1.2394
0.534972
-2.64485
0.220322
0.7536
-0.0815451
0.54165
0.0225922
-0.114593
-0.179084
0.39683
-0.0469409
-0.33848
-0.0141126
-0.0595246
0.117628
-0.271007
0.411063
-0.637777
0.631867
-0.535346
0.662614
-0.137499
0.462993
0.375435
0.158235
0.660356
-0.0614519
0.477117
-0.297886
0.563484
-0.579466
0.634376
-0.585627
0.0133974
-0.329205
-0.554804
-0.188333
-0.316279
-0.162514
-0.0687785
-0.13337
-0.0525104
-0.10445
-0.0487441
-0.0281665
-0.141416
0.0634594
-0.171871
0.159324
-0.203605
0.152809
-0.00493198
0.0113263
0.317574
-0.0838928
0.230636
-0.0795309
-0.00901352
-0.0483856
-0.0763437
-0.0494464
-0.00145513
0.0052549
0.00155523
-0.00137327
0.00357531
-0.000299457
0.0029072
-0.000431381
0.00190399
-0.00147473
0.000527082
-0.0020518
-0.000861934
-0.00117115
-0.0023537
-1.31013e-05
-0.00375526
-0.00117057
-0.00507657
-0.00482667
-0.0062524
-0.00657652
-0.00646586
-0.00211253
-0.00475034
0.00540958
-0.00253478
0.00616955
-0.00317036
-0.00411682
-0.00635859
-0.0148916
-0.00539442
-0.0114085
0.00402437
0.00415413
0.0105457
0.0097751
-0.00276585
-0.0052729
-0.0247381
-0.0181471
-0.0112564
-0.00875213
0.0444022
0.0134118
0.086555
0.0171048
0.0383109
-0.00534152
-0.0706523
-0.022118
-0.0958341
0.00815279
0.00710567
0.0206171
0.0262548
0.0198044
-0.0132908
0.0131391
0.0245766
0.0071576
0.0203551
0.00764991
0.01634
0.00872948
0.0226625
0.00723315
0.0191372
0.00234076
0.0109916
-0.00172178
0.00484048
-0.00296486
0.00476351
-0.00252026
0.00769076
-0.00176652
0.00606763
-0.00084551
0.00399135
0.000758477
0.00254648
0.00332129
0.00277257
0.0059713
0.00251952
0.00791303
0.00139169
0.00872512
-0.000847532
0.00846554
-0.0031556
0.00708536
-0.00549883
0.00456351
-0.00756602
0.00101133
-0.00929539
-0.00301711
-0.00981152
-0.00679612
-0.0092214
-0.0098031
-0.00714853
-0.0120202
-0.00423694
-0.0136572
0.00050039
-0.0139425
0.0111683
-0.0127668
0.0181328
-0.0117518
0.0174123
-0.0106647
0.0226857
-0.0101416
0.0276356
-0.0106334
0.027884
-0.0110458
0.0234545
-0.00994852
0.0159186
-0.00682643
-0.000883601
-0.00107745
-0.0145586
0.00856264
-0.0331118
0.0222683
-0.0521751
0.039823
-0.0659818
0.0584108
-0.0718829
0.0775595
-0.0802188
0.095752
-0.0790859
0.109796
-0.0731272
0.11673
-0.050997
0.112196
-0.0163287
0.0884243
0.0330344
0.0510171
0.0763242
0.00858058
0.0924681
-0.035307
0.0985586
-0.0630885
0.0773189
-0.0766471
0.0295824
-0.0740299
0.00700099
-0.0688563
0.00369993
-0.0667706
0.00303263
-0.127563
0.208375
-0.345407
0.520665
-0.452262
0.368226
-0.833824
0.800852
0.0452946
-2.35279
-0.0793508
0.756064
-0.735448
1.89341
0.721688
-4.22543
0.329281
1.15023
-0.0583654
0.907013
0.0241138
-0.180773
-0.236005
0.639934
-0.0624797
-0.526828
-0.0105332
-0.110616
0.192233
-0.478538
0.600706
-1.05014
0.856647
-0.796373
0.840149
-0.117017
0.540611
0.669478
0.142724
1.05282
-0.115857
0.751477
-0.39601
0.837392
-0.756009
0.992532
-0.761314
0.0184602
-0.416603
-0.899637
-0.237347
-0.493915
-0.217612
-0.0886432
-0.177031
-0.0889614
-0.13649
-0.0838074
-0.028319
-0.24312
0.097448
-0.29064
0.214425
-0.313456
0.187755
0.0270394
-0.00044802
0.507237
-0.116171
0.346029
-0.104977
-0.0230727
-0.063953
-0.121001
-0.0775566
0.000393171
0.00553801
0.000850932
-0.000285118
0.00392149
-0.000586588
0.00248443
-0.00185519
0.0011397
-0.00361409
-0.000260393
-0.00443039
-0.00141711
-0.00356339
-0.00260676
-0.00256883
-0.00394838
-0.00406495
-0.00532414
-0.00778397
-0.00631627
-0.00895002
-0.0059753
-0.00367895
-0.00394645
0.00396229
-0.00220079
0.00414774
-0.00344571
-0.00603428
-0.00600081
-0.0157421
-0.00344808
-0.0120148
0.0059299
0.00159167
0.00996612
0.00592994
-0.00381874
-0.00517072
-0.020076
-0.012908
-0.00214166
-0.00414133
0.0424912
0.00884447
0.0622655
0.00583788
0.0172648
-0.00949417
-0.0501313
-0.0147261
-0.0484321
0.0123418
0.0376436
0.0268941
0.0672429
0.0179731
0.0451462
0.0102408
0.026675
0.00643172
0.0238591
0.00828018
0.0192542
0.00887345
0.0272893
0.00704974
0.0208792
0.00203467
0.0117542
-0.00187227
0.00532049
-0.00297202
0.00549541
-0.00263389
0.00876947
-0.00180407
0.00652812
-0.000754074
0.00428954
0.00105712
0.00292993
0.0038072
0.00314926
0.00661962
0.00259782
0.00865474
0.00102548
0.00949886
-0.00170821
0.00918578
-0.00456465
0.00766502
-0.007462
0.00490365
-0.00997809
0.00103133
-0.0119505
-0.00338394
-0.0123693
-0.00756208
-0.0111278
-0.0109711
-0.00808333
-0.0135896
-0.00400965
-0.0156616
0.00208667
-0.0162485
0.0132511
-0.0155145
0.0212501
-0.0150454
0.0243078
-0.014397
0.031664
-0.0143645
0.0373589
-0.0152586
0.0370945
-0.0157773
0.0304365
-0.0141281
0.0188657
-0.00985188
-0.00316964
-0.00194663
-0.0237311
0.011011
-0.0500763
0.0292454
-0.0768342
0.0514829
-0.0953442
0.0764623
-0.0990166
0.100774
-0.113525
0.123025
-0.10994
0.139274
-0.098406
0.145775
-0.064386
0.138196
-0.0153322
0.106026
0.059758
0.0586489
0.117704
0.00563974
0.141038
-0.0481256
0.146954
-0.0815747
0.112681
-0.0955199
0.0382863
-0.0894756
0.00275995
-0.0801541
-0.00143312
-0.0741012
-0.00540701
-0.160796
0.317435
-0.456946
0.811226
-0.586575
0.519387
-1.12839
1.32307
-0.100884
-3.35176
-0.000326628
0.64878
-0.718836
2.60887
0.968994
-5.73444
0.479879
1.64341
-0.0166098
1.38344
0.0250949
-0.209354
-0.292835
0.941408
-0.0779863
-0.757576
0.00240493
-0.190193
0.291553
-0.774953
0.786136
-1.54828
1.08743
-1.10309
0.992954
-0.0183296
0.576497
1.07915
0.0971202
1.52682
-0.183377
1.03223
-0.497576
1.1444
-0.932331
1.42447
-0.933549
0.0190639
-0.496819
-1.33634
-0.28223
-0.706717
-0.264306
-0.106629
-0.22441
-0.12436
-0.169763
-0.13251
-0.0246299
-0.381315
0.138831
-0.445586
0.271988
-0.438999
0.216757
0.0879613
-0.016737
0.742262
-0.146124
0.475065
-0.130719
-0.0415683
-0.0801666
-0.175454
-0.11235
0.00154578
0.00376914
-0.000216091
0.000525799
0.00271056
-0.000445108
0.00138651
-0.00238813
7.51776e-05
-0.00453356
-0.00106243
-0.00543658
-0.00170323
-0.00471183
-0.00226411
-0.0042174
-0.00320819
-0.00640411
-0.00438038
-0.0104476
-0.00503822
-0.0113377
-0.00421373
-0.00568353
-0.00201707
0.0018165
-0.000640933
0.00165908
-0.00212386
-0.00804711
-0.00398932
-0.0168207
-0.000560733
-0.0136395
0.00804065
-0.00223704
0.0105422
0.00208112
-0.00145918
-0.00411242
-0.0130454
-0.00823004
0.00137691
-0.0025132
0.0312293
0.00253654
0.0393133
-0.00319252
0.0104253
-0.0109144
-0.0148166
-0.00663966
0.00989841
0.0167616
0.0762235
0.0273536
0.0915545
0.0200847
0.0597735
0.00697694
0.0255681
0.00455404
0.0204355
0.0088108
0.0208439
0.00864924
0.0287655
0.00661966
0.0210039
0.00154901
0.0127301
-0.00212077
0.00569495
-0.00305784
0.00580827
-0.00291295
0.00942704
-0.00198199
0.00647215
-0.000783916
0.00413563
0.00124622
0.00293
0.00417699
0.00308129
0.00714939
0.00216814
0.00927526
0.00011418
0.010148
-0.00310825
0.00977165
-0.00651304
0.00809675
-0.00992856
0.00507623
-0.0128197
0.000863255
-0.0149102
-0.00395989
-0.0150854
-0.00856208
-0.0130409
-0.0123965
-0.00879658
-0.0154232
-0.00319019
-0.0178727
0.00458605
-0.0188616
0.0168356
-0.0186307
0.0265911
-0.0185195
0.0328056
-0.018239
0.0418693
-0.0185985
0.0480845
-0.0197716
0.0470099
-0.0202721
0.0376868
-0.0179872
0.0213546
-0.0124379
-0.00667938
-0.00229688
-0.0352686
0.0140436
-0.0706778
0.0368557
-0.106453
0.065128
-0.131291
0.0956095
-0.137821
0.125197
-0.152914
0.151126
-0.145074
0.168927
-0.125733
0.174169
-0.0769438
0.162307
-0.0095253
0.12183
0.0933494
0.0644615
0.168287
0.00108965
0.199613
-0.0621823
0.203888
-0.100455
0.152806
-0.114184
0.0463795
-0.104145
-0.00536845
-0.0897813
-0.0112137
-0.0787696
-0.0189417
-0.197607
0.459896
-0.584042
1.19114
-0.740554
0.698108
-1.60227
2.18845
-0.255379
-4.68954
0.16111
0.224342
-0.562894
3.3235
1.25632
-7.54849
0.676016
2.2253
0.0514084
1.98745
0.0281108
-0.174575
-0.349141
1.30352
-0.0933621
-1.03049
0.0261962
-0.309542
0.415613
-1.11399
1.01873
-2.15507
1.315
-1.40497
1.10672
0.194173
0.566852
1.61161
0.0230956
2.06404
-0.259087
1.31335
-0.602009
1.47987
-1.10473
1.92443
-1.09725
0.0112314
-0.56877
-1.86448
-0.322367
-0.951083
-0.322358
-0.106583
-0.276355
-0.165471
-0.205248
-0.197141
-0.0171268
-0.561974
0.186136
-0.639765
0.330576
-0.575343
0.238558
0.186009
-0.0360965
1.01841
-0.17646
0.614991
-0.156985
-0.0643531
-0.0971734
-0.239426
-0.15405
0.00237697
0.00116996
-0.00163585
0.0011442
0.000471842
-0.000129601
-0.000403886
-0.00241593
-0.00137285
-0.00459301
-0.00204767
-0.00526698
-0.00197481
-0.00450535
-0.00162989
-0.00451563
-0.00180144
-0.00752703
-0.00242392
-0.0121419
-0.0025592
-0.0131868
-0.00129535
-0.0077068
0.000930144
-0.000698149
0.00197844
-0.00109451
0.000484684
-0.0101369
-0.000720488
-0.0182465
0.00312632
-0.0161839
0.0108504
-0.00696328
0.0127663
-0.00200122
0.0031288
-0.00355771
-0.0059878
-0.0054084
0.00148119
-0.00311273
0.0187228
-0.00337448
0.0243275
-0.00857943
0.0162024
-0.00968471
0.0222211
0.000294826
0.0568682
0.0192188
0.0994536
0.0252242
0.0955545
0.0175385
0.0562606
0.00653583
0.0209322
0.00466535
0.0167472
0.00814554
0.0206283
0.00809473
0.0279697
0.00593867
0.0158921
0.000783776
0.0124887
-0.00253364
0.00589029
-0.0032594
0.00546782
-0.00341897
0.0095436
-0.00234174
0.00573981
-0.000970653
0.00340812
0.0012887
0.00248541
0.00439265
0.00258662
0.00752384
0.00133096
0.00973962
-0.00119715
0.0106383
-0.0048789
0.0101914
-0.00882603
0.00835246
-0.0127237
0.00505755
-0.0159278
0.000488452
-0.0180308
-0.004758
-0.0178441
-0.00980251
-0.0148798
-0.014077
-0.00924633
-0.0175104
-0.0017959
-0.0203182
0.0079706
-0.0217142
0.0217379
-0.0219097
0.0335428
-0.0220791
0.0425407
-0.0220743
0.0530858
-0.0227109
0.059627
-0.0240417
0.0574698
-0.0244241
0.0450831
-0.0214666
0.0233381
-0.0146112
-0.0114578
-0.00226434
-0.0491658
0.0173912
-0.0948799
0.044894
-0.141154
0.0782249
-0.172552
0.116576
-0.180227
0.150095
-0.196092
0.179384
-0.184104
0.198033
-0.154355
0.201235
-0.0877967
0.183282
0.00228813
0.135716
0.133306
0.0686847
0.227124
-0.0045103
0.267619
-0.0767082
0.268891
-0.118953
0.19688
-0.132183
0.0535931
-0.118052
-0.0174976
-0.0979052
-0.0263498
-0.0810598
-0.0384714
-0.240456
0.6441
-0.727585
1.6709
-0.909368
0.902356
-1.66634
2.92431
-0.300734
-6.02106
0.437745
-0.519676
-0.300779
4.0536
1.53635
-9.34303
0.926819
2.834
0.149506
2.74412
0.0353599
-0.0539872
-0.402971
1.72788
-0.109632
-1.34237
0.0683695
-0.487145
0.566747
-1.67107
1.26816
-2.85995
1.52817
-1.67102
1.17363
0.553049
0.513159
2.26387
-0.071824
2.64199
-0.340486
1.57925
-0.707235
1.83848
-1.26757
2.48143
-1.24805
-0.0087992
-0.631855
-2.48016
-0.357537
-1.22321
-0.380825
-0.0832367
-0.333941
-0.207058
-0.24482
-0.279252
-0.00683281
-0.791921
0.238624
-0.875283
0.388953
-0.717077
0.275401
0.305932
-0.0567435
1.35215
-0.206031
0.763809
-0.183916
-0.0900164
-0.115098
-0.312697
-0.202922
0.00322677
-0.00132263
-0.00327029
0.00187516
-0.00185483
0.000344846
-0.00229163
-0.00210542
-0.00279915
-0.00409648
-0.00296445
-0.0043193
-0.00220514
-0.00329525
-0.000952707
-0.00358584
-0.0002076
-0.00723666
-4.81292e-05
-0.0124108
0.0005114
-0.0139128
0.00224164
-0.00913912
0.00443976
-0.00301836
0.00518211
-0.00369288
0.00377757
-0.0120764
0.00314057
-0.0198813
0.00709826
-0.0193892
0.014019
-0.0123601
0.0159719
-0.00667861
0.00864258
-0.00458597
0.000553489
-0.00475154
0.00151146
-0.00473136
0.0102577
-0.00741662
0.0174631
-0.0103681
0.0254176
-0.00693736
0.0469737
0.00475482
0.0788207
0.0187408
0.0988306
0.0208844
0.0807007
0.0134565
0.041533
0.0056144
0.0127347
0.0048778
0.0121516
0.00704596
0.0214181
0.00840379
0.0258581
0.00499753
0.011762
-0.000369537
0.00909803
-0.00319324
0.0045208
-0.0035978
0.00419126
-0.0042193
0.00926033
-0.00291791
0.00437044
-0.00134037
0.00214403
0.001155
0.00161284
0.00442356
0.00172661
0.00771298
0.000217927
0.010021
-0.00273643
0.0109448
-0.00682894
0.0104245
-0.0113059
0.00841742
-0.01565
0.00483996
-0.0191218
-9.30528e-05
-0.0211584
-0.0057691
-0.0205284
-0.0112636
-0.0165683
-0.0159804
-0.00940754
-0.0198075
0.000113687
-0.0229448
0.0121164
-0.0247111
0.0276921
-0.0252454
0.0417039
-0.025598
0.0532292
-0.0257591
0.0650895
-0.0265565
0.0717971
-0.0279445
0.0683305
-0.028155
0.052546
-0.0245572
0.0248327
-0.0164641
-0.0174529
-0.00206466
-0.0652932
0.0206923
-0.122505
0.0527132
-0.180827
0.0930126
-0.221402
0.13561
-0.233154
0.174902
-0.245572
0.207104
-0.226551
0.225922
-0.18354
0.226439
-0.0961744
0.201697
0.0202378
0.147804
0.179434
0.0717773
0.295195
-0.010478
0.344393
-0.0905044
0.341321
-0.136305
0.244611
-0.149184
0.0600773
-0.131431
-0.0331725
-0.104882
-0.0474366
-0.0816838
-0.0645444
-0.292371
0.880692
-0.886643
2.25697
-1.07317
1.11336
-1.59847
3.42508
-0.108323
-7.47215
0.855944
-1.49598
0.0152812
4.88325
1.71053
-11.015
1.22328
3.32025
0.280738
3.66646
0.0523457
0.181082
-0.452441
2.22042
-0.127118
-1.68779
0.131264
-0.74656
0.751989
-2.29491
1.52842
-3.6398
1.71592
-1.86502
1.19412
1.07924
0.424332
3.02494
-0.183064
3.24153
-0.424933
1.81868
-0.810675
2.21567
-1.41424
3.08147
-1.38206
-0.0414436
-0.686694
-3.17487
-0.387348
-1.5202
-0.438338
-0.0321352
-0.398101
-0.241592
-0.291331
-0.378433
0.00459944
-1.0792
0.294427
-1.15455
0.445989
-0.859536
0.290734
0.467969
-0.0771369
1.72166
-0.234505
0.920679
-0.211819
-0.116496
-0.134033
-0.395242
-0.259404
0.00414301
-0.00293517
-0.00486382
0.0029137
-0.00338036
0.00110323
-0.00353595
-0.00140582
-0.00363783
-0.0031224
-0.00338227
-0.00285936
-0.00215716
-0.00150317
-0.000289483
-0.00187277
0.00118759
-0.0058476
0.00209845
-0.0113286
0.00337908
-0.0132984
0.00561114
-0.00948888
0.00784678
-0.00448608
0.0083794
-0.00549051
0.00710507
-0.0133408
0.00688444
-0.0212554
0.0107054
-0.0227553
0.0168862
-0.0181188
0.0192012
-0.0121539
0.0141108
-0.00757279
0.00676491
-0.00608194
0.00335232
-0.00662318
0.0066207
-0.00942706
0.0144305
-0.0099604
0.0289425
-0.00449476
0.0519827
0.0060792
0.0736064
0.0152213
0.0771426
0.0149754
0.0538329
0.00896717
0.0223754
0.00452846
0.00426697
0.00511084
0.00711756
0.00696885
0.0169393
0.00845596
0.0206848
0.00236346
0.00653023
-0.00167908
0.00354029
-0.00424449
0.00166431
-0.004061
0.000843531
-0.00539962
0.00880094
-0.00374053
0.00261772
-0.00191451
0.000630784
0.000821828
0.000436998
0.00424675
0.000614047
0.0076938
-0.00101673
0.0101008
-0.00431894
0.0110514
-0.00876042
0.0104621
-0.0137419
0.00829064
-0.0184902
0.0044326
-0.0222026
-0.000861236
-0.0241241
-0.00696002
-0.0230124
-0.0128974
-0.0180285
-0.0180428
-0.00926286
-0.022238
0.00246089
-0.0256604
0.0168604
-0.0277331
0.0344415
-0.0285043
0.0507321
-0.0289303
0.0645947
-0.0291422
0.0776496
-0.0299991
0.0844141
-0.0313841
0.079479
-0.0314358
0.0600536
-0.0273224
0.025937
-0.0181672
-0.0245103
-0.00199963
-0.0833937
0.0234941
-0.153228
0.0598104
-0.225278
0.105428
-0.275247
0.155765
-0.29112
0.198811
-0.299233
0.233664
-0.272074
0.252087
-0.212641
0.249506
-0.101629
0.218262
0.0443816
0.158428
0.231255
0.0744206
0.370947
-0.0161384
0.429126
-0.102485
0.418712
-0.151815
0.295859
-0.164965
0.0664534
-0.144796
-0.0512084
-0.111293
-0.0749637
-0.0816636
-0.0972789
-0.356375
1.18229
-1.05618
2.94789
-1.19187
1.27557
-1.17329
3.38139
0.375357
-8.97953
1.41807
-2.54321
0.323472
5.96593
1.59533
-12.2524
1.53022
3.385
0.448306
4.72851
0.0864009
0.544843
-0.495315
2.79202
-0.145816
-2.05911
0.214562
-1.1079
0.963485
-3.04727
1.78669
-4.46616
1.86891
-1.95444
1.17559
1.77706
0.314098
3.87711
-0.306731
3.85398
-0.511144
2.01993
-0.907933
2.60333
-1.53804
3.70765
-1.4981
-0.0819635
-0.7347
-3.93756
-0.411207
-1.8412
-0.491931
0.0487475
-0.469257
-0.258137
-0.348518
-0.490972
0.014424
-1.43284
0.351798
-1.48062
0.501105
-0.999225
0.308316
0.667952
-0.0876044
2.1194
-0.261936
1.09451
-0.240834
-0.141657
-0.15401
-0.487154
-0.323976
0.00506369
-0.00326589
-0.00609395
0.00425883
-0.00363914
0.00219887
-0.00369703
-0.000262483
-0.00355129
-0.0016558
-0.00304269
-0.000981639
-0.00164572
0.000612963
0.000410091
0.000215809
0.00222545
-0.00385536
0.00362431
-0.00937544
0.00544762
-0.0116526
0.00810244
-0.00875122
0.0104595
-0.0047735
0.0109466
-0.00596284
0.00984504
-0.0133065
0.00988648
-0.0216249
0.013412
-0.0254448
0.0189378
-0.023557
0.0217627
-0.0181366
0.0188572
-0.0122427
0.0125469
-0.0090828
0.00677048
-0.00883386
0.00578595
-0.0105208
0.0108891
-0.00940332
0.0231741
-0.00394872
0.0393212
0.00401123
0.0497413
0.00946182
0.0447776
0.00848017
0.0245551
0.00484326
0.00460446
0.00335393
-0.00254244
0.00505915
0.00293552
0.00636201
0.0102806
0.00628154
0.0115575
0.000808402
0.00130393
-0.00353284
-0.00295181
-0.0052168
-0.0031391
-0.00473753
-0.00306767
-0.00703171
0.0072605
-0.00484115
0.000156688
-0.00272708
-0.000479241
0.000266298
-0.00075765
0.00384451
-0.000570756
0.00744822
-0.00220492
0.00996601
-0.00576681
0.0109494
-0.0104949
0.0103047
-0.0159352
0.00798269
-0.0210259
0.00385927
-0.0249661
-0.00177868
-0.0267551
-0.00827692
-0.0251675
-0.0146317
-0.0191843
-0.0201733
-0.00880331
-0.0246961
0.00515477
-0.028345
0.0220147
-0.0306382
0.0417123
-0.0315366
0.0602974
-0.0319232
0.076361
-0.0320815
0.0905411
-0.0329299
0.0973203
-0.0343114
0.0908492
-0.0343018
0.0676569
-0.0299056
0.0268467
-0.0199471
-0.0323989
-0.00244465
-0.103067
0.0252763
-0.186584
0.0655199
-0.274211
0.116788
-0.33531
0.173007
-0.358825
0.221259
-0.358463
0.258589
-0.320423
0.276275
-0.241215
0.270502
-0.103969
0.233526
0.0741072
0.167964
0.288539
0.0774461
0.44935
-0.0179089
0.518675
-0.11039
0.501295
-0.165005
0.35289
-0.17965
0.0739805
-0.158875
-0.0698149
-0.117358
-0.110063
-0.0823564
-0.135646
-0.43426
1.5619
-1.22683
3.73111
-1.22967
1.30631
-0.415583
2.54226
0.985955
-10.3365
2.01513
-3.58474
0.430033
7.53543
0.968173
-12.7587
1.78589
2.57166
0.644042
5.85159
0.140579
1.04558
-0.528564
3.45349
-0.165925
-2.44538
0.321554
-1.59862
1.20403
-3.93395
2.06333
-5.32854
1.98529
-1.88432
1.13461
2.63238
0.199625
4.80214
-0.445839
4.4904
-0.598161
2.16913
-0.994008
2.98957
-1.63551
4.34498
-1.59848
-0.119659
-0.778933
-4.75638
-0.427186
-2.19033
-0.5377
0.159504
-0.546644
-0.242611
-0.420641
-0.608118
0.0188889
-1.86237
0.408467
-1.85819
0.55375
-1.13437
0.328283
0.901081
-0.100055
2.5492
-0.288211
1.28214
-0.270935
-0.163267
-0.174954
-0.588572
-0.397081
0.00589937
-0.00245501
-0.0067637
0.0056995
-0.00273971
0.00352894
-0.00284477
0.00125501
-0.00261686
0.00024143
-0.00203183
0.00124268
-0.000715608
0.00293394
0.00115828
0.00246604
0.00291372
-0.00161429
0.00445533
-0.00705638
0.00650917
-0.009541
0.0093568
-0.00738527
0.0118222
-0.0041281
0.0124106
-0.00513887
0.0115253
-0.0117361
0.0116921
-0.0203672
0.0148521
-0.0264783
0.0198718
-0.027598
0.0232816
-0.0237339
0.0224105
-0.0177823
0.0174579
-0.0134073
0.0106566
-0.0119127
0.00594843
-0.0122768
0.00593342
-0.0104785
0.0114263
-0.00612357
0.0185212
-0.000766447
0.0208393
0.00250611
0.0140893
0.00219189
0.00115918
0.00101107
-0.00783062
0.00197684
-0.00739684
0.00427837
-0.00122833
0.00487042
0.00306808
0.00338934
0.00161272
-0.00139196
-0.00614998
-0.0055472
-0.00949305
-0.00728839
-0.00829073
-0.00494391
-0.00953238
-0.00910589
0.00933694
-0.0062112
-0.00587736
-0.00384427
-0.00196538
-0.00054719
-0.00178587
0.00319648
-0.00159234
0.00695786
-0.0031746
0.00960523
-0.00692575
0.0106339
-0.0118987
0.00996026
-0.0177313
0.00751207
-0.0230664
0.00315465
-0.0272277
-0.00279471
-0.0288937
-0.00964974
-0.0268736
-0.0163752
-0.0199664
-0.0222605
-0.00802809
-0.0270547
0.00809902
-0.0308618
0.0273854
-0.0332787
0.049231
-0.0341924
0.0700878
-0.0344339
0.0882625
-0.0344611
0.103562
-0.0352833
0.110398
-0.0367358
0.102436
-0.0368576
0.0754888