/*--------------------------------*- C++ -*----------------------------------*\
| =========                 |                                                 |
| \\      /  F ield         | OpenFOAM: The Open Source CFD Toolbox           |
|  \\    /   O peration     | Version:  2412                                  |
|   \\  /    A nd           | Website:  www.openfoam.com                      |
|    \\/     M anipulation  |                                                 |
\*---------------------------------------------------------------------------*/
FoamFile
{
    version     2.0;
    format      ascii;
    arch        "LSB;label=32;scalar=64";
    class       volVectorField;
    location    "0.705";
    object      U_0;
}
// * * * * * * * * * * * * * * * * * * * * * * * * * * * * * * * * * * * * * //

dimensions      [0 1 -1 0 0 0 0];

internalField   nonuniform List<vector> 
12600
(
(19.4456 0 -0.709127)
(7.89144 -3.70742e-20 -1.64061)
(3.34885 -1.72454e-20 -1.6865)
(1.70551 0 -1.245)
(1.07479 -2.10305e-22 -0.830507)
(0.738463 0 -0.563419)
(0.513021 -3.05599e-20 -0.392906)
(0.35011 0 -0.275795)
(0.228769 0 -0.19048)
(0.136749 0 -0.126269)
(0.0652454 0 -0.0779299)
(0.00930994 -9.77701e-20 -0.0403012)
(-0.0345028 -9.99676e-20 -0.0105454)
(-0.0690358 0 0.01329)
(-0.0961681 2.03041e-19 0.0316598)
(-0.116921 0 0.0464146)
(-0.132913 2.89733e-22 0.0581061)
(-0.14488 0 0.0671699)
(-0.15361 9.82863e-20 0.0739896)
(-0.159468 0 0.07901)
(-0.163164 0 0.0825304)
(-0.164879 0 0.0847479)
(-0.165016 3.61832e-19 0.0859501)
(-0.163774 -3.52532e-19 0.0864005)
(-0.161429 -1.85319e-22 0.0861278)
(-0.158222 1.66348e-19 0.0851907)
(-0.154376 0 0.0836625)
(-0.14994 0 0.081798)
(-0.145035 0 0.0796289)
(-0.139839 -2.91894e-19 0.0771881)
(-0.134457 -5.63392e-19 0.0745525)
(-0.128964 0 0.0717791)
(-0.123413 0 0.0689164)
(-0.117854 -2.52342e-19 0.0660056)
(-0.112365 -2.4291e-19 0.0630929)
(-0.106984 0 0.0602042)
(-0.101732 0 0.0573594)
(-0.0966354 -4.32033e-19 0.0545806)
(-0.091729 0 0.0518917)
(-0.0870366 5.84216e-23 0.049307)
(-0.0825626 -3.82725e-19 0.046832)
(-0.0783043 -3.67308e-19 0.0444646)
(-0.0742659 0 0.0422083)
(-0.0704435 -3.37804e-19 0.0400658)
(-0.0667982 -3.23734e-19 0.0380165)
(-0.0633279 6.20349e-19 0.0360613)
(-0.0600331 -5.94229e-19 0.034201)
(-0.0569187 0 0.032441)
(-0.0540242 5.44705e-19 0.0308056)
(-0.0513997 -5.21345e-19 0.0293245)
(-0.0491195 0 0.0280354)
(-0.0472632 -2.22753e-23 0.0269718)
(-0.0458799 4.56676e-19 0.0261696)
(-0.0449852 0 0.0256354)
(-0.0444954 -8.35534e-19 0.0253355)
(-0.0442151 0 0.0251464)
(-0.0437645 0 0.0248549)
(-0.0425293 4.5019e-23 0.0241418)
(-0.0396376 5.62885e-23 0.0224641)
(-0.0340251 6.67178e-19 0.0191417)
(-0.02442 -6.37144e-19 0.0135632)
(-0.00993926 1.21556e-18 0.00527905)
(0.00969986 0 -0.00565302)
(0.0332356 1.1004e-18 -0.0187616)
(0.0578454 1.04329e-18 -0.0325753)
(0.0789535 -1.97299e-18 -0.0445013)
(0.0922019 9.30817e-19 -0.052062)
(0.0951312 0 -0.0535091)
(0.0881782 0 -0.0495752)
(0.0744999 0 -0.0416986)
(0.0569915 0 -0.031556)
(0.0373666 0 -0.0202724)
(0.0174424 -1.2959e-18 -0.00896147)
(0.000207162 1.22161e-18 0.000641661)
(-0.00960099 0 0.00584192)
(-0.0092176 0 0.00526483)
(-0.00616252 1.03911e-18 0.0032903)
(-0.00927472 -4.50492e-23 0.00494173)
(-0.0231755 1.87906e-18 0.0130286)
(-0.0571816 0 0.0332129)
(-0.125267 0 0.0724324)
(-0.236236 0 0.134997)
(-0.36212 -6.41806e-22 0.205293)
(-0.445231 0 0.250894)
(-0.50445 0 0.281472)
(-0.30149 1.63464e-18 0.162354)
(0.802057 1.86381e-21 -0.447515)
(0.867803 0 -0.483295)
(0.605468 0 -0.338527)
(1.32722 -1.48667e-18 -0.752972)
(0.14297 -1.09157e-18 -0.0879347)
(-0.183594 -1.54945e-18 0.0976516)
(0.136616 -1.24451e-18 -0.0759408)
(-0.098525 -9.55257e-22 0.0534186)
(0.228458 -2.34946e-23 -0.131539)
(0.219579 1.08787e-18 -0.125386)
(0.313767 0 -0.17798)
(0.384191 0 -0.213067)
(0.0851176 0 -0.0338488)
(-0.498238 1.73711e-18 0.302399)
(-1.14587 -6.92295e-19 0.661851)
(-1.57097 8.04983e-19 0.89343)
(-1.74264 1.18267e-18 0.986742)
(-1.55264 0 0.87439)
(-1.20161 0 0.672459)
(-0.860072 0 0.479269)
(-0.682464 4.56776e-18 0.381144)
(-0.322026 0 0.177458)
(-0.114405 -4.36595e-18 0.0616712)
(0.00620673 0 -0.00621832)
(0.0993471 0 -0.0591744)
(0.195359 3.6795e-18 -0.113264)
(0.234044 0 -0.133892)
(0.205115 0 -0.115779)
(0.0844955 0 -0.0451169)
(-0.0886737 -5.26895e-18 0.0506541)
(-0.106207 0 0.0587455)
(0.00527669 4.71375e-18 -0.00527004)
(0.0523379 0 -0.0316849)
(0.146676 1.08516e-23 -0.0846834)
(31.0066 -1.56922e-20 -1.08822)
(21.6563 2.12337e-20 -3.45683)
(13.7549 1.3515e-20 -4.33906)
(8.73082 0 -3.7647)
(5.8298 -1.23551e-20 -2.84303)
(4.0767 2.29289e-20 -2.08687)
(2.93766 3.18786e-20 -1.53475)
(2.14285 -3.71882e-20 -1.13043)
(1.55911 0 -0.826357)
(1.11622 0 -0.592188)
(0.772647 0 -0.40972)
(0.502672 0 -0.265077)
(0.288297 0 -0.149268)
(0.116062 0 -0.0558832)
(-0.02135 -7.35974e-22 0.0198611)
(-0.130891 0 0.0803771)
(-0.219025 1.04843e-19 0.128515)
(-0.288719 0 0.167127)
(-0.343378 -2.04194e-19 0.197413)
(-0.385124 2.00312e-19 0.220735)
(-0.416598 0 0.238313)
(-0.43899 1.92071e-19 0.250923)
(-0.453983 -1.8788e-19 0.259307)
(-0.462903 1.82964e-19 0.263933)
(-0.466624 -1.77794e-19 0.265652)
(-0.46594 0 0.265046)
(-0.461555 1.66825e-19 0.262508)
(-0.454206 0 0.258274)
(-0.444493 0 0.252641)
(-0.432878 0 0.246042)
(-0.419841 2.91306e-19 0.238655)
(-0.405738 0 0.230664)
(-0.390858 0 0.222243)
(-0.375452 0 0.213542)
(-0.35983 0 0.204726)
(-0.344181 0 0.195887)
(-0.328628 0 0.1871)
(-0.313309 4.44509e-19 0.178449)
(-0.298377 0 0.170022)
(-0.283942 8.18837e-19 0.161871)
(-0.27005 7.85371e-19 0.154023)
(-0.256719 3.76431e-19 0.146481)
(-0.243977 0 0.139268)
(-0.231836 0 0.132384)
(-0.220194 6.61743e-19 0.125773)
(-0.209051 -6.33416e-19 0.119444)
(-0.198419 6.05961e-19 0.113401)
(-0.188322 0 0.107669)
(-0.17889 -5.54252e-19 0.102328)
(-0.170287 0 0.0974776)
(-0.162747 0 0.0932522)
(-0.156512 -4.84082e-19 0.0897768)
(-0.151738 0 0.0871493)
(-0.148467 0 0.0853869)
(-0.146467 8.44184e-19 0.0842922)
(-0.14507 0 0.0834962)
(-0.143053 0 0.0822898)
(-0.138547 8.08759e-23 0.0794517)
(-0.128712 7.01768e-19 0.0733787)
(-0.110134 -9.67354e-23 0.0620236)
(-0.0789656 0 0.0433016)
(-0.0325493 -1.21647e-18 0.0158389)
(0.0298818 -1.15701e-18 -0.0201905)
(0.104412 0 -0.0631492)
(0.182461 -2.0794e-18 -0.107817)
(0.249727 -1.97592e-22 -0.14585)
(0.292312 0 -0.16941)
(0.301462 8.70671e-19 -0.173493)
(0.278598 0 -0.15912)
(0.232931 0 -0.132071)
(0.174287 0 -0.0978643)
(0.109437 0 -0.0603403)
(0.0454318 2.55246e-18 -0.0236403)
(-0.0079041 -1.20145e-18 0.00636038)
(-0.0354206 0 0.0210636)
(-0.0298501 0 0.016974)
(-0.0160392 1.0169e-18 0.0092376)
(-0.0244015 -7.3528e-23 0.0147686)
(-0.0729826 -1.78128e-23 0.0441128)
(-0.192012 0 0.115427)
(-0.418886 0 0.249546)
(-0.773432 0 0.455718)
(-1.15509 -1.05503e-21 0.674637)
(-1.37468 -1.48635e-18 0.799308)
(-1.51647 1.51581e-18 0.870586)
(-0.950686 -1.57942e-18 0.48721)
(2.37835 3.01663e-21 -1.41938)
(2.60524 -1.06448e-18 -1.49137)
(1.7804 0 -1.04664)
(4.21778 1.42893e-18 -2.41838)
(0.654606 0 -0.319866)
(-0.464621 1.48564e-18 0.269501)
(0.393364 0 -0.229764)
(-0.254615 -2.39992e-18 0.144225)
(0.751378 -1.17316e-18 -0.445284)
(0.71529 0 -0.414087)
(0.980432 0 -0.572548)
(1.08003 -1.65267e-18 -0.61673)
(-0.0023889 1.27073e-18 0.0311743)
(-1.90414 -1.65997e-18 1.14209)
(-3.82971 6.57499e-19 2.24377)
(-4.96107 -7.63841e-19 2.88407)
(-5.31801 0 3.07457)
(-4.63512 1.51723e-18 2.66396)
(-3.51481 0 2.01218)
(-2.46656 0 1.41203)
(-2.00943 -4.30643e-18 1.14568)
(-0.921757 0 0.515097)
(-0.300391 1.65562e-21 0.164016)
(0.0698831 3.91401e-18 -0.0465564)
(0.367762 0 -0.217358)
(0.660095 0 -0.385135)
(0.748228 0 -0.432346)
(0.62295 2.95802e-18 -0.356129)
(0.213433 -5.39698e-18 -0.115345)
(-0.274274 4.95328e-18 0.163762)
(-0.284043 0 0.162073)
(0.0718245 -4.4274e-18 -0.0449779)
(0.206049 0 -0.122584)
(0.493644 7.76154e-18 -0.287088)
(34.606 3.33494e-20 -0.985144)
(30.0653 -8.86388e-21 -3.06716)
(23.5143 -3.35025e-21 -4.76637)
(17.3089 0 -5.1329)
(12.5033 -1.4706e-20 -4.59607)
(9.11565 6.04693e-22 -3.76803)
(6.75879 0 -2.97751)
(5.07144 3.52968e-20 -2.31656)
(3.82078 0 -1.78322)
(2.86733 4.27448e-20 -1.35455)
(2.12513 0 -1.00828)
(1.53805 0 -0.727196)
(1.06834 0 -0.497937)
(0.688905 0 -0.310389)
(0.382793 -9.95322e-20 -0.15478)
(0.133983 0 -0.0286588)
(-0.0678735 0 0.0744537)
(-0.230822 0 0.158256)
(-0.362091 9.671e-20 0.22561)
(-0.465898 -5.66929e-22 0.279596)
(-0.547542 0 0.322096)
(-0.609981 -4.13839e-22 0.354677)
(-0.656553 0 0.378862)
(-0.689716 -1.72867e-19 0.395672)
(-0.711243 0 0.406583)
(-0.723319 0 0.412144)
(-0.72765 -1.58239e-19 0.413034)
(-0.725425 0 0.410278)
(-0.717486 0 0.404862)
(-0.705083 -2.85827e-19 0.397165)
(-0.689158 0 0.387734)
(-0.670434 0 0.376943)
(-0.64957 0 0.365066)
(-0.627108 0 0.352412)
(-0.603657 2.37145e-19 0.33929)
(-0.579638 0 0.325881)
(-0.555339 0 0.312343)
(-0.531057 -4.20832e-19 0.29884)
(-0.507102 0 0.28555)
(-0.483714 -7.75282e-19 0.272576)
(-0.461013 -7.6508e-23 0.259979)
(-0.439067 -3.56386e-19 0.247787)
(-0.417951 0 0.236054)
(-0.39772 0 0.224782)
(-0.378229 -3.13073e-19 0.213895)
(-0.359492 0 0.20342)
(-0.341541 -5.73214e-19 0.193379)
(-0.32443 0 0.183823)
(-0.308378 4.76096e-23 0.174895)
(-0.293666 0 0.166768)
(-0.280682 0 0.159677)
(-0.269823 0 0.153838)
(-0.261359 -4.36994e-19 0.149392)
(-0.255362 0 0.146345)
(-0.251424 0 0.14435)
(-0.248465 0 0.142659)
(-0.244467 0 0.140014)
(-0.236268 1.38768e-18 0.134382)
(-0.219132 0 0.123092)
(-0.187386 -7.35886e-23 0.102896)
(-0.1348 0 0.0703606)
(-0.0570638 5.73576e-19 0.0234093)
(0.0470327 1.09089e-18 -0.0374989)
(0.17121 0 -0.109394)
(0.301613 1.95987e-18 -0.183211)
(0.414675 9.2511e-19 -0.245233)
(0.487026 0 -0.282785)
(0.502933 -8.19957e-19 -0.28823)
(0.464652 0 -0.261465)
(0.386227 0 -0.213677)
(0.285009 0 -0.154206)
(0.173926 0 -0.0900815)
(0.0662275 3.00185e-22 -0.0291641)
(-0.0212035 1.12987e-18 0.0182692)
(-0.0631441 0 0.0382474)
(-0.0492082 0 0.027183)
(-0.0217917 -6.33632e-23 0.0120793)
(-0.0347212 -1.81456e-18 0.0223707)
(-0.122232 -8.61203e-19 0.078261)
(-0.33524 0 0.210084)
(-0.727681 0 0.44751)
(-1.32189 0 0.795117)
(-1.93423 -2.81633e-18 1.13878)
(-2.24294 1.81236e-21 1.30247)
(-2.42417 -1.42196e-18 1.37088)
(-1.59162 0 0.723907)
(3.68148 -1.37532e-18 -2.26661)
(4.18984 9.97943e-19 -2.35815)
(2.67292 0 -1.59718)
(7.03971 0 -4.00163)
(1.39486 9.79775e-19 -0.612066)
(-0.630844 0 0.364827)
(0.613444 1.11913e-18 -0.35723)
(-0.357857 1.12206e-21 0.187909)
(1.27822 1.09841e-18 -0.775524)
(1.21947 -9.72858e-19 -0.705998)
(1.60928 0 -0.940751)
(1.62056 1.54663e-18 -0.884905)
(-0.340993 -1.18902e-18 0.325471)
(-3.55294 1.56204e-18 2.20698)
(-6.57841 0 3.89996)
(-8.18107 -7.05992e-19 4.753)
(-8.53826 0 4.89837)
(-7.32301 -1.41873e-18 4.13032)
(-5.48267 1.70551e-18 3.05969)
(-3.80042 0 2.11808)
(-3.16613 4.02545e-18 1.75744)
(-1.41707 0 0.749198)
(-0.430035 7.69741e-18 0.210119)
(0.174441 -3.65752e-18 -0.125535)
(0.672422 0 -0.408036)
(1.14792 0 -0.674782)
(1.25316 0 -0.719697)
(1.00694 6.22472e-22 -0.560895)
(0.302551 5.04119e-18 -0.142216)
(-0.434568 -4.62607e-18 0.265399)
(-0.407149 0 0.220692)
(0.184672 -4.13328e-18 -0.123421)
(0.390741 0 -0.239748)
(0.857577 -8.50821e-24 -0.501994)
(35.2149 -1.7495e-20 -1.20365)
(33.9503 -5.00955e-21 -2.42933)
(30.1644 7.1554e-21 -4.19749)
(25.054 -1.48611e-20 -5.3344)
(19.9038 -2.09995e-20 -5.53734)
(15.4768 -4.37089e-20 -5.08965)
(11.9695 0 -4.36849)
(9.2699 0 -3.61024)
(7.19046 0 -2.91679)
(5.56974 -4.0489e-20 -2.3169)
(4.28943 0 -1.80934)
(3.26564 0 -1.38348)
(2.43898 0 -1.02715)
(1.76601 0 -0.72948)
(1.21653 0 -0.479824)
(0.766171 -9.33623e-20 -0.27273)
(0.397233 9.29855e-20 -0.0996909)
(0.0943921 0 0.0426521)
(-0.152618 0 0.160065)
(-0.352531 -1.79527e-19 0.255587)
(-0.513755 1.75584e-19 0.332849)
(-0.641483 -1.72221e-19 0.394244)
(-0.741043 1.67738e-19 0.442271)
(-0.816655 1.63694e-19 0.478863)
(-0.872077 -1.58807e-19 0.505669)
(-0.910809 1.54178e-19 0.523748)
(-0.935159 0 0.534384)
(-0.947517 -1.44741e-19 0.538376)
(-0.950419 0 0.536205)
(-0.944652 2.70523e-19 0.530783)
(-0.932062 0 0.522282)
(-0.914076 0 0.511152)
(-0.891753 0 0.497993)
(-0.866052 -2.33102e-19 0.483255)
(-0.837972 -2.24329e-19 0.467439)
(-0.80826 0 0.450838)
(-0.777444 0 0.433721)
(-0.746042 3.97947e-19 0.416368)
(-0.714572 0 0.399063)
(-0.683452 9.74577e-23 0.381978)
(-0.652926 -3.51361e-19 0.365225)
(-0.623148 0 0.348868)
(-0.59427 0 0.33301)
(-0.566416 0 0.317666)
(-0.539431 0 0.302751)
(-0.513353 -5.65829e-19 0.288328)
(-0.488254 0 0.274442)
(-0.464225 5.1752e-19 0.261183)
(-0.441579 4.9477e-19 0.248765)
(-0.420713 0 0.237439)
(-0.402173 0 0.227534)
(-0.386514 0 0.219343)
(-0.374113 4.12285e-19 0.213041)
(-0.36507 -3.93704e-19 0.208601)
(-0.358793 -7.51861e-19 0.205553)
(-0.353816 0 0.202732)
(-0.347352 -6.8517e-19 0.198256)
(-0.334929 -1.30785e-18 0.189406)
(-0.310126 0 0.172324)
(-0.265214 -1.19013e-18 0.142542)
(-0.191726 0 0.0955233)
(-0.0838581 -5.4012e-19 0.0286703)
(0.0600701 -1.02715e-18 -0.0570056)
(0.231765 0 -0.156988)
(0.412505 -9.22422e-19 -0.258711)
(0.570265 -8.70934e-19 -0.343305)
(0.672589 0 -0.393491)
(0.696582 0 -0.398748)
(0.643576 0 -0.35887)
(0.532258 6.81673e-19 -0.289394)
(0.387817 6.40168e-19 -0.20382)
(0.230336 0 -0.112989)
(0.0802409 -1.12852e-18 -0.028954)
(-0.0383711 -1.06187e-18 0.0333984)
(-0.0909429 0 0.0553163)
(-0.0656152 0 0.0349103)
(-0.0225189 -8.97204e-19 0.0118876)
(-0.040402 6.99892e-23 0.0291487)
(-0.172596 0 0.117612)
(-0.489711 0 0.319648)
(-1.05425 0 0.668227)
(-1.87939 0 1.15393)
(-2.68603 1.04596e-21 1.59911)
(-3.02586 1.30591e-18 1.76805)
(-3.20188 0 1.80319)
(-2.19182 0 0.885781)
(4.57481 0 -2.95376)
(5.60319 9.42504e-19 -3.13896)
(3.14157 0 -1.95006)
(9.73849 1.27025e-18 -5.53313)
(2.38704 -9.17485e-19 -0.9665)
(-0.664661 1.29607e-18 0.40786)
(0.797732 -1.04768e-18 -0.470311)
(-0.402579 2.09898e-18 0.197401)
(1.79784 -1.02797e-18 -1.11618)
(1.72766 9.10334e-19 -1.00342)
(2.18062 0 -1.28016)
(1.96571 0 -1.03559)
(-0.964964 -1.12332e-18 0.807244)
(-5.43088 -7.32341e-19 3.43441)
(-9.30404 -5.75083e-19 5.57289)
(-11.0977 4.76137e-21 6.47742)
(-11.2823 0 6.46812)
(-9.51274 0 5.33377)
(-7.04486 -1.59416e-18 3.89298)
(-4.83432 0 2.67374)
(-4.12511 -3.75143e-18 2.26521)
(-1.79049 0 0.908169)
(-0.499966 -1.49588e-21 0.218671)
(0.321245 0 -0.2324)
(1.00936 -3.21326e-18 -0.620927)
(1.65323 3.025e-18 -0.977553)
(1.74113 2.80006e-18 -0.997646)
(1.35007 7.16786e-22 -0.740608)
(0.356595 0 -0.146454)
(-0.554285 4.32017e-18 0.34814)
(-0.467413 4.10372e-18 0.244706)
(0.345256 3.85952e-18 -0.22946)
(0.606736 0 -0.376247)
(1.23534 -5.75642e-24 -0.72745)
(34.8582 0 -1.70005)
(34.9992 -3.6533e-21 -2.23722)
(33.5416 0 -3.54457)
(30.4567 1.40408e-20 -4.86086)
(26.369 3.29859e-20 -5.63809)
(22.0334 2.12988e-20 -5.76797)
(18.0013 0 -5.41374)
(14.5256 0 -4.7997)
(11.6417 -3.47868e-20 -4.09925)
(9.28524 -3.76583e-20 -3.41183)
(7.36573 3.98976e-20 -2.78235)
(5.79822 8.31241e-20 -2.22543)
(4.51266 8.54524e-20 -1.74147)
(3.4534 0 -1.3254)
(2.57838 0 -0.968971)
(1.85389 1.76148e-19 -0.666624)
(1.25364 -3.64667e-22 -0.410388)
(0.756178 0 -0.195352)
(0.345549 -8.57436e-20 -0.0142743)
(0.00752064 -1.68747e-19 0.135281)
(-0.269126 -1.66001e-19 0.258894)
(-0.493398 0 0.359436)
(-0.673231 -1.58567e-19 0.440405)
(-0.815295 1.54134e-19 0.504211)
(-0.925093 1.50106e-19 0.553343)
(-1.00744 -1.90326e-22 0.590135)
(-1.06648 0 0.616581)
(-1.10646 1.63423e-22 0.633523)
(-1.12995 0 0.641724)
(-1.14034 2.55133e-19 0.641645)
(-1.13938 0 0.636987)
(-1.12886 0 0.628653)
(-1.11085 0 0.616758)
(-1.08676 2.20166e-19 0.602226)
(-1.05813 0 0.58571)
(-1.02614 0 0.567646)
(-0.991656 0 0.548447)
(-0.955498 0 0.528532)
(-0.918459 -3.60344e-19 0.508322)
(-0.881201 6.91448e-19 0.488073)
(-0.844142 0 0.467966)
(-0.807571 3.17653e-19 0.44812)
(-0.771755 0 0.428703)
(-0.736923 0 0.409753)
(-0.702947 0 0.391194)
(-0.669908 7.70698e-23 0.373135)
(-0.637938 0 0.35566)
(-0.607177 -4.87968e-19 0.338907)
(-0.578037 0 0.323172)
(-0.551038 0 0.308786)
(-0.526876 -4.25757e-19 0.296174)
(-0.506265 0 0.2857)
(-0.489689 0 0.277565)
(-0.477279 2.94559e-23 0.271692)
(-0.468303 7.08164e-19 0.267394)
(-0.460866 0 0.263179)
(-0.451453 7.13215e-23 0.256541)
(-0.434441 1.23107e-18 0.243913)
(-0.40179 0 0.2204)
(-0.343887 5.59969e-19 0.180429)
(-0.250279 0 0.118508)
(-0.113811 5.08118e-19 0.0317094)
(0.0676355 9.66117e-19 -0.0782806)
(0.284155 0 -0.205223)
(0.512894 8.67518e-19 -0.333127)
(0.714317 -1.84906e-22 -0.438312)
(0.847315 0 -0.499286)
(0.881231 0 -0.503096)
(0.815359 0 -0.449133)
(0.672088 -1.28094e-18 -0.357249)
(0.484649 2.38233e-22 -0.245259)
(0.281307 0 -0.128276)
(0.090519 1.06013e-18 -0.0230042)
(-0.0563685 1.99371e-18 0.0509628)
(-0.116389 0 0.0710667)
(-0.0777202 0 0.0390657)
(-0.018234 0 0.00827438)
(-0.0428691 7.1185e-23 0.0358884)
(-0.226471 0 0.164565)
(-0.658196 0 0.447248)
(-1.3999 0 0.914039)
(-2.44269 0 1.53024)
(-3.40188 1.23623e-18 2.04424)
(-3.71661 1.21968e-18 2.1758)
(-3.85412 0 2.14891)
(-2.72681 0 0.958609)
(4.93319 0 -3.39287)
(6.87638 3.68727e-21 -3.8071)
(3.10631 0 -2.04516)
(12.2852 -1.18913e-18 -7.00141)
(3.62527 0 -1.37855)
(-0.565359 -1.21295e-18 0.39047)
(0.959996 0 -0.566232)
(-0.397876 -9.81322e-19 0.165057)
(2.29842 0 -1.46122)
(2.23779 0 -1.30079)
(2.68341 0 -1.57357)
(2.11524 0 -1.02864)
(-1.84885 1.05034e-18 1.50829)
(-7.46612 0 4.8121)
(-11.8998 5.3761e-19 7.19438)
(-13.6299 6.12587e-19 7.96263)
(-13.5288 0 7.69462)
(-11.2292 0 6.19853)
(-8.25402 0 4.46293)
(-5.62448 0 3.04792)
(-4.90989 5.28619e-21 2.63947)
(-2.05664 0 0.975707)
(-0.525112 -6.71334e-18 0.184682)
(0.501365 0 -0.370119)
(1.367 6.00214e-18 -0.855063)
(2.16961 -2.82527e-18 -1.28957)
(2.21221 -2.61502e-18 -1.2584)
(1.66004 -2.41134e-18 -0.886896)
(0.394287 0 -0.126846)
(-0.623123 0 0.403412)
(-0.471551 -7.66234e-18 0.225618)
(0.544684 3.60211e-18 -0.366809)
(0.849065 3.39551e-18 -0.533993)
(1.6233 -3.15855e-18 -0.961486)
(34.4053 0 -2.16323)
(34.8185 3.34489e-20 -2.37712)
(34.6419 0 -3.15391)
(33.3212 0 -4.24082)
(30.8235 0 -5.21634)
(27.5057 0 -5.79388)
(23.8369 0 -5.90446)
(20.2055 3.01108e-20 -5.63244)
(16.8559 3.28239e-20 -5.11731)
(13.9003 7.09556e-20 -4.48591)
(11.359 -7.50974e-20 -3.82696)
(9.20329 -7.84566e-20 -3.19223)
(7.38636 -8.06591e-20 -2.60732)
(5.85865 0 -2.08258)
(4.57571 0 -1.61877)
(3.49895 -1.65526e-19 -1.2146)
(2.59593 -1.64978e-19 -0.864823)
(1.83932 0 -0.565177)
(1.20709 8.09385e-20 -0.309265)
(0.680613 1.59286e-19 -0.093264)
(0.243948 0 0.0882628)
(-0.115724 1.52605e-19 0.238988)
(-0.409549 0 0.362982)
(-0.647189 -2.68471e-22 0.463501)
(-0.836586 -1.41224e-19 0.543732)
(-0.984972 -1.85312e-22 0.60629)
(-1.09831 0 0.65359)
(-1.18167 1.28907e-19 0.688264)
(-1.23989 -2.48938e-19 0.712597)
(-1.27773 -4.81137e-19 0.725526)
(-1.29805 -2.32027e-19 0.728968)
(-1.30411 0 0.725785)
(-1.29768 -2.15477e-19 0.718394)
(-1.28146 0 0.706592)
(-1.25753 0 0.691653)
(-1.22767 0 0.674125)
(-1.19321 0 0.654576)
(-1.15537 0 0.6336)
(-1.11532 1.11041e-22 0.611782)
(-1.07402 -3.25824e-19 0.589485)
(-1.03215 0 0.566975)
(-0.990185 -5.98621e-19 0.544445)
(-0.948559 0 0.52215)
(-0.907654 0 0.500163)
(-0.86741 0 0.47843)
(-0.827975 5.02603e-19 0.457129)
(-0.789566 0 0.43639)
(-0.752393 0 0.416418)
(-0.716971 0 0.397596)
(-0.683946 0 0.380344)
(-0.654168 8.01508e-19 0.365182)
(-0.628506 0 0.35254)
(-0.607555 0 0.342631)
(-0.591482 3.48944e-19 0.335307)
(-0.579424 0 0.329674)
(-0.569128 0 0.323822)
(-0.556376 1.2133e-18 0.314641)
(-0.534486 -5.78796e-19 0.297732)
(-0.49397 0 0.267198)
(-0.423534 0 0.216478)
(-0.310967 0 0.139326)
(-0.1479 -4.77431e-19 0.0327015)
(0.0682452 0 -0.100872)
(0.326356 0 -0.253371)
(0.600279 -1.62991e-18 -0.405563)
(0.844049 1.53843e-18 -0.529399)
(1.00844 0 -0.599624)
(1.05475 0 -0.601073)
(0.97896 0 -0.532347)
(0.805826 6.01249e-19 -0.417684)
(0.576706 -5.64444e-19 -0.279413)
(0.328919 -1.0598e-18 -0.13732)
(0.0997177 -9.94528e-19 -0.013068)
(-0.0724163 -9.35103e-19 0.0690881)
(-0.137274 8.81424e-19 0.0839249)
(-0.0844105 0 0.0388206)
(-0.0092562 0 0.00165683)
(-0.043945 7.48686e-19 0.0444096)
(-0.286722 0 0.222119)
(-0.843297 0 0.596222)
(-1.76479 0 1.18657)
(-3.00607 0 1.92076)
(-4.06813 0 2.46591)
(-4.30013 -2.28232e-18 2.5221)
(-4.37939 0 2.42045)
(-3.17864 -1.20769e-18 0.947732)
(4.63608 0 -3.52464)
(8.00886 3.63329e-21 -4.38875)
(2.55928 1.41892e-18 -1.89234)
(14.6531 0 -8.40794)
(5.0922 0 -1.83329)
(-0.320073 0 0.326028)
(1.11123 0 -0.653337)
(-0.346009 9.15377e-19 0.0977921)
(2.76744 0 -1.80431)
(2.74319 0 -1.59506)
(3.10231 0 -1.80756)
(2.05162 0 -0.864666)
(-2.9786 0 2.40582)
(-9.58506 0 6.28151)
(-14.2491 0 8.6884)
(-15.6889 0 9.17578)
(-15.2388 -8.19055e-19 8.62009)
(-12.479 0 6.79023)
(-9.13551 0 4.83985)
(-6.19468 0 3.30119)
(-5.51927 3.2693e-18 2.90916)
(-2.2197 0 0.96878)
(-0.515236 3.13454e-18 0.121846)
(0.708092 0 -0.531311)
(1.73529 -4.8748e-22 -1.10237)
(2.68963 0 -1.60632)
(2.66232 2.44271e-18 -1.50406)
(1.93886 0 -1.00757)
(0.426327 0 -0.0974508)
(-0.632312 0 0.426238)
(-0.419855 3.57635e-18 0.171744)
(0.77857 -6.72495e-18 -0.527241)
(1.11544 -6.33929e-18 -0.708713)
(2.0173 -2.94847e-18 -1.20176)
(34.075 0 -2.45706)
(34.3703 -3.58654e-20 -2.59407)
(34.6128 0 -3.0268)
(34.3168 0 -3.77973)
(33.1699 -2.74532e-20 -4.65709)
(31.159 -2.68844e-20 -5.4077)
(28.4726 2.76992e-20 -5.86256)
(25.3797 -8.71208e-20 -5.97061)
(22.1476 0 -5.77088)
(18.9918 3.47213e-23 -5.34741)
(16.0543 3.52829e-20 -4.79069)
(13.408 0 -4.17538)
(11.075 0 -3.55375)
(9.04637 0 -2.9585)
(7.29829 0 -2.40687)
(5.80104 3.32776e-22 -1.90793)
(4.5243 2.978e-22 -1.46352)
(3.43943 7.67185e-20 -1.07324)
(2.52105 7.5819e-20 -0.733271)
(1.74679 0 -0.440549)
(1.09678 -1.46582e-19 -0.190396)
(0.554379 -1.43833e-19 0.0214869)
(0.104568 0 0.198911)
(-0.265336 -2.43741e-22 0.345955)
(-0.566376 2.04339e-22 0.466176)
(-0.808396 -1.29244e-19 0.562949)
(-0.999724 0 0.63931)
(-1.14785 0 0.697912)
(-1.25917 2.34552e-19 0.741218)
(-1.33894 2.35833e-22 0.772849)
(-1.39345 4.36972e-19 0.791731)
(-1.42605 0 0.799771)
(-1.44128 4.0581e-19 0.798543)
(-1.44075 0 0.792877)
(-1.42818 0 0.782197)
(-1.40609 -1.80506e-19 0.767523)
(-1.37639 0 0.74966)
(-1.34082 -3.33025e-19 0.729393)
(-1.30103 1.0887e-22 0.707502)
(-1.25841 3.06547e-19 0.684482)
(-1.21396 0 0.660706)
(-1.16845 6.88784e-23 0.636459)
(-1.12251 0 0.612111)
(-1.07674 0 0.587784)
(-1.03121 0 0.563462)
(-0.986167 0 0.53941)
(-0.941942 0 0.515823)
(-0.898836 4.3207e-19 0.492984)
(-0.85748 0 0.471373)
(-0.818652 0 0.451506)
(-0.783356 -3.76807e-19 0.434002)
(-0.752621 0 0.419347)
(-0.727157 -3.43528e-19 0.407757)
(-0.707181 -3.27928e-19 0.398994)
(-0.691729 6.25965e-19 0.39192)
(-0.678211 0 0.38423)
(-0.66179 -5.69962e-19 0.372187)
(-0.634853 -5.43601e-19 0.350556)
(-0.586629 0 0.312511)
(-0.504372 0 0.250625)
(-0.374365 0 0.158096)
(-0.18715 4.4828e-19 0.031962)
(0.0603728 0 -0.124241)
(0.356327 0 -0.300677)
(0.672189 7.64928e-19 -0.47512)
(0.956826 -1.44405e-18 -0.615585)
(1.15364 0 -0.693451)
(1.21547 0 -0.691851)
(1.13385 0 -0.607925)
(0.934226 0 -0.470624)
(0.6659 -5.29763e-19 -0.306783)
(0.375953 9.93668e-19 -0.141198)
(0.111029 0 -0.000658284)
(-0.0835019 0 0.0861281)
(-0.151487 -8.26073e-19 0.0926044)
(-0.085011 0 0.0336852)
(0.0033415 -7.39111e-19 -0.00727204)
(-0.0461951 7.01225e-19 0.0569269)
(-0.35659 0 0.293683)
(-1.04722 0 0.769757)
(-2.14747 0 1.4863)
(-3.56157 0 2.32025)
(-4.67133 0 2.85295)
(-4.77057 1.06718e-18 2.79768)
(-4.79627 0 2.62115)
(-3.5583 2.25777e-18 0.880217)
(3.64709 0 -3.3268)
(9.01767 3.43275e-21 -4.88629)
(1.63815 2.99252e-21 -1.57067)
(16.8295 0 -9.74641)
(6.75612 7.37744e-19 -2.31107)
(0.0762553 0 0.216633)
(1.26797 0 -0.736589)
(-0.254509 -1.71043e-18 -0.0037106)
(3.19318 0 -2.13947)
(3.23673 0 -1.87955)
(3.41997 0 -1.97168)
(1.7756 0 -0.526485)
(-4.31415 0 3.48944)
(-11.6933 0 7.78617)
(-16.2443 0 9.97976)
(-17.252 0 10.0829)
(-16.4778 7.65204e-19 9.22862)
(-13.3521 0 7.12465)
(-9.77506 0 5.04289)
(-6.60834 0 3.44287)
(-5.97499 -3.04303e-18 3.07005)
(-2.29693 -3.03715e-18 0.890582)
(-0.487937 -2.92448e-18 0.0362971)
(0.929014 2.78058e-18 -0.711799)
(2.10068 -4.93183e-22 -1.35705)
(3.20553 -2.4634e-18 -1.9231)
(3.09328 -4.56184e-18 -1.73011)
(2.19609 0 -1.10249)
(0.467436 3.83805e-18 -0.0631112)
(-0.578147 3.51507e-18 0.413084)
(-0.320756 0 0.0821949)
(1.03747 3.13851e-18 -0.708895)
(1.40129 2.95857e-18 -0.899449)
(2.41291 2.75216e-18 -1.44572)
(33.8298 0 -2.61788)
(33.9857 1.7765e-20 -2.76479)
(34.2349 0 -3.04378)
(34.3283 0 -3.53645)
(33.9853 2.58503e-20 -4.2013)
(33.0344 2.53095e-20 -4.90427)
(31.4392 -2.60718e-20 -5.49653)
(29.2742 8.43149e-20 -5.87087)
(26.6863 0 -5.98306)
(23.8519 3.19049e-20 -5.84542)
(20.942 -6.61219e-20 -5.50592)
(18.0982 0 -5.02604)
(15.4209 7.03583e-20 -4.46484)
(12.9695 0 -3.87108)
(10.7702 7.23728e-20 -3.27987)
(8.82616 7.29528e-20 -2.71525)
(7.12659 7.27629e-20 -2.19103)
(5.65307 -7.22171e-20 -1.71496)
(4.38432 -1.42528e-19 -1.2891)
(3.29866 0 -0.913683)
(2.37494 1.37981e-19 -0.586326)
(1.5939 0 -0.303878)
(0.937674 0 -0.0628848)
(0.390421 -1.28579e-19 0.140761)
(-0.0621725 2.49965e-19 0.310615)
(-0.432783 0 0.450583)
(-0.732584 0 0.56414)
(-0.971527 0 0.6546)
(-1.15838 -2.2025e-19 0.724939)
(-1.30098 2.12946e-19 0.777793)
(-1.40562 -1.79359e-22 0.816588)
(-1.47916 1.97951e-19 0.842534)
(-1.52637 -3.8154e-19 0.85578)
(-1.55247 1.83561e-19 0.85731)
(-1.56003 -1.76552e-19 0.853879)
(-1.55291 8.2521e-23 0.844847)
(-1.53404 0 0.831013)
(-1.50582 3.13214e-19 0.813506)
(-1.4705 3.00558e-19 0.793335)
(-1.43006 -2.88265e-19 0.771147)
(-1.38594 0 0.747444)
(-1.33925 2.64774e-19 0.722627)
(-1.29095 2.53514e-19 0.697209)
(-1.24192 2.42683e-19 0.67138)
(-1.19241 2.32213e-19 0.645177)
(-1.14282 0 0.618976)
(-1.09363 0 0.593055)
(-1.04527 -5.32161e-23 0.567787)
(-0.998494 0 0.543764)
(-0.954226 0 0.521604)
(-0.913626 -3.53897e-19 0.502027)
(-0.87789 3.37923e-19 0.48557)
(-0.84785 3.22634e-19 0.472442)
(-0.82379 3.07459e-23 0.462301)
(-0.804678 -6.53047e-23 0.453755)
(-0.787652 0 0.444067)
(-0.767344 0 0.428874)
(-0.735332 1.02042e-18 0.402143)
(-0.679768 0 0.356194)
(-0.586686 0 0.282868)
(-0.441115 -4.41748e-19 0.174998)
(-0.23262 0 0.0298853)
(0.0424969 0 -0.147795)
(0.372088 7.58301e-19 -0.346378)
(0.726258 -7.17624e-19 -0.540945)
(1.05008 1.3545e-18 -0.696023)
(1.28042 0 -0.780048)
(1.36169 -5.99869e-19 -0.774796)
(1.27946 0 -0.675753)
(1.05806 0 -0.516365)
(0.754281 9.93155e-19 -0.328203)
(0.425346 0 -0.141257)
(0.127687 0 0.012567)
(-0.0867647 0 0.100514)
(-0.1573 0 0.0960675)
(-0.0794071 0 0.0236173)
(0.0178837 6.9213e-19 -0.0171522)
(-0.0527504 -8.37891e-23 0.0762364)
(-0.439484 -6.22873e-19 0.382952)
(-1.27141 5.89967e-19 0.970624)
(-2.54465 0 1.81237)
(-4.09917 0 2.72153)
(-5.19797 0 3.19432)
(-5.12614 0 3.00175)
(-5.13077 0 2.77155)
(-3.90933 -2.89351e-21 0.80778)
(2.0792 0 -2.86879)
(9.91959 -7.32243e-19 -5.32828)
(0.640184 2.78428e-21 -1.25438)
(18.7639 0 -11.0617)
(8.58325 -6.89746e-19 -2.79111)
(0.629479 0 0.0727673)
(1.4487 8.06622e-19 -0.821402)
(-0.128215 1.31927e-21 -0.134532)
(3.5654 0 -2.46147)
(3.70784 0 -2.14713)
(3.6264 0 -2.04265)
(1.28992 0 -0.0116667)
(-5.80871 8.74525e-19 4.7296)
(-13.6931 0 9.25826)
(-17.8021 0 11.0096)
(-18.342 4.79522e-19 10.7038)
(-17.3162 0 9.60224)
(-13.9428 -9.72349e-19 7.28273)
(-10.2478 1.1872e-18 5.13758)
(-6.91153 0 3.51793)
(-6.29112 5.67812e-18 3.14042)
(-2.30351 3.05589e-21 0.754742)
(-0.458824 5.46006e-18 -0.0605522)
(1.15005 -2.59627e-18 -0.903323)
(2.44879 -2.44244e-18 -1.611)
(3.70891 2.2999e-18 -2.23523)
(3.50477 2.12964e-18 -1.9383)
(2.43959 1.96485e-18 -1.17832)
(0.52804 -3.58288e-18 -0.0328549)
(-0.460662 -3.28126e-18 0.363699)
(-0.179507 -3.11338e-18 -0.0359886)
(1.31336 -2.9282e-18 -0.905167)
(1.70268 0 -1.10304)
(2.80549 0 -1.69071)
(33.6115 0 -2.71159)
(33.688 1.92452e-20 -2.87151)
(33.8536 0 -3.09445)
(34.0097 0 -3.43475)
(33.9987 0 -3.90811)
(33.6668 0 -4.47186)
(32.8997 2.89254e-20 -5.04046)
(31.6444 -2.72892e-20 -5.51949)
(29.9131 2.9394e-20 -5.83598)
(27.7729 -5.95476e-20 -5.95268)
(25.3287 6.21577e-20 -5.86717)
(22.703 0 -5.60314)
(20.018 -6.614e-20 -5.1992)
(17.38 0 -4.69935)
(14.8713 -6.80381e-20 -4.14501)
(12.5467 -6.79545e-20 -3.57158)
(10.436 0 -3.00584)
(8.54991 0 -2.46696)
(6.88557 6.69035e-20 -1.96652)
(5.43214 0 -1.51144)
(4.17401 0 -1.1043)
(3.09375 -1.26476e-19 -0.7451)
(2.17326 0 -0.432282)
(1.39497 0 -0.162938)
(0.742224 -1.17417e-19 0.0661405)
(0.199592 0 0.258714)
(-0.246989 0 0.418452)
(-0.610281 0 0.549031)
(-0.901725 4.13876e-19 0.653864)
(-1.13157 0 0.736374)
(-1.30896 -1.58205e-22 0.799198)
(-1.44145 -1.39661e-22 0.845689)
(-1.53653 1.79231e-19 0.87945)
(-1.60129 -1.72513e-19 0.897362)
(-1.63987 3.31742e-19 0.903481)
(-1.65736 1.59477e-19 0.902612)
(-1.65711 0 0.895655)
(-1.64278 0 0.88326)
(-1.61737 2.82177e-19 0.866896)
(-1.58362 -2.70635e-19 0.847352)
(-1.54356 0 0.82529)
(-1.49878 0 0.801249)
(-1.45065 -5.68208e-23 0.77592)
(-1.40045 -2.27917e-19 0.749586)
(-1.34867 -2.18066e-19 0.722351)
(-1.29593 -4.17043e-19 0.694727)
(-1.24293 0 0.667096)
(-1.19023 -5.17419e-23 0.639935)
(-1.13876 0 0.613962)
(-1.08959 0 0.589907)
(-1.04404 3.32161e-19 0.568592)
(-1.0035 -3.17138e-19 0.550605)
(-0.968918 0 0.536136)
(-0.940682 2.88923e-19 0.524728)
(-0.917734 -6.61379e-23 0.514717)
(-0.897005 0 0.502927)
(-0.872698 0 0.484382)
(-0.835744 -9.56923e-19 0.452274)
(-0.773422 0 0.398155)
(-0.670799 0 0.313277)
(-0.511886 8.2833e-19 0.190294)
(-0.285367 0 0.0269276)
(0.0131596 0 -0.170911)
(0.371793 -1.42161e-18 -0.389742)
(0.760293 6.7258e-19 -0.602292)
(1.12139 -6.34759e-19 -0.770029)
(1.38647 0 -0.858844)
(1.49204 5.62028e-19 -0.848819)
(1.41508 0 -0.735773)
(1.1781 -4.95983e-19 -0.555316)
(0.843923 -4.65208e-19 -0.344602)
(0.480029 0 -0.13887)
(0.152783 0 0.0250544)
(-0.0797017 7.69434e-19 0.110966)
(-0.153509 7.24518e-19 0.0937439)
(-0.068138 0 0.00912417)
(0.0320175 0 -0.0260986)
(-0.0671938 -1.22871e-18 0.105596)
(-0.538697 5.82879e-19 0.493707)
(-1.5162 -1.10407e-18 1.20089)
(-2.95101 0 2.16233)
(-4.60738 0 3.11583)
(-5.6368 0 3.4799)
(-5.37563 0 3.13836)
(-5.42152 0 2.8956)
(-4.28855 -3.19302e-21 0.787633)
(0.230852 0 -2.3278)
(10.7391 0 -5.7548)
(-0.00657035 2.65366e-21 -1.18684)