/*--------------------------------*- C++ -*----------------------------------*\
| =========                 |                                                 |
| \\      /  F ield         | OpenFOAM: The Open Source CFD Toolbox           |
|  \\    /   O peration     | Version:  2412                                  |
|   \\  /    A nd           | Website:  www.openfoam.com                      |
|    \\/     M anipulation  |                                                 |
\*---------------------------------------------------------------------------*/
FoamFile
{
    version     2.0;
    format      ascii;
    arch        "LSB;label=32;scalar=64";
    class       volVectorField;
    location    "1.24";
    object      U_0;
}
// * * * * * * * * * * * * * * * * * * * * * * * * * * * * * * * * * * * * * //

dimensions      [0 1 -1 0 0 0 0];

internalField   nonuniform List<vector> 
12600
(
(18.7395 1.24365e-21 2.09529)
(11.62 1.60957e-20 0.451221)
(7.35153 1.89219e-20 -0.477834)
(5.08984 0 -0.709267)
(3.97683 1.70994e-20 -0.682364)
(3.33605 1.59221e-20 -0.607649)
(2.89473 0 -0.539952)
(2.56341 0 -0.484481)
(2.30371 -4.78427e-20 -0.439)
(2.09348 0 -0.401239)
(1.91902 2.00608e-20 -0.369349)
(1.7714 1.83657e-20 -0.342002)
(1.64451 -1.6822e-20 -0.31825)
(1.53401 0 -0.297395)
(1.43671 -1.40938e-20 -0.278913)
(1.35023 0 -0.2624)
(1.27274 4.73379e-20 -0.247543)
(1.20281 0 -0.234089)
(1.13931 -1.98023e-20 -0.221839)
(1.08133 -1.81056e-20 -0.210628)
(1.02813 1.65229e-20 -0.200321)
(0.979093 5.40521e-24 -0.190807)
(0.93372 0 -0.181992)
(0.891582 -2.48988e-20 -0.173797)
(0.85232 0 -0.166154)
(0.815627 0 -0.159006)
(0.781239 -1.84317e-20 -0.152304)
(0.748929 0 -0.146003)
(0.718498 4.08537e-24 -0.140066)
(0.689774 1.32911e-20 -0.134461)
(0.662605 1.18223e-20 -0.129158)
(0.636857 1.0462e-20 -0.124131)
(0.612411 -9.20249e-21 -0.119359)
(0.589161 -1.60735e-20 -0.114819)
(0.567013 -1.39167e-20 -0.110494)
(0.545881 1.19118e-20 -0.106368)
(0.525689 0 -0.102426)
(0.506368 -8.37836e-21 -0.0986542)
(0.487855 0 -0.0950405)
(0.470093 5.36128e-21 -0.0915739)
(0.45303 0 -0.0882441)
(0.436619 1.75359e-23 -0.0850422)
(0.420814 0 -0.0819593)
(0.405579 1.59611e-23 -0.0789879)
(0.390872 -6.24161e-22 -0.0761203)
(0.376663 2.34129e-21 -0.0733505)
(0.362916 -3.93629e-21 -0.0706712)
(0.349607 0 -0.0680781)
(0.3367 0 -0.0655641)
(0.324181 -7.87156e-21 -0.0631261)
(0.312012 -1.78872e-20 -0.0607571)
(0.300186 -1.98192e-20 -0.0584556)
(0.288665 1.94547e-23 -0.0562137)
(0.277449 -2.3082e-20 -0.0540321)
(0.266494 0 -0.0519019)
(0.255813 2.56909e-20 -0.0498257)
(0.245354 2.6755e-20 -0.047793)
(0.235143 2.76674e-20 -0.0458092)
(0.225117 0 -0.0438618)
(0.215316 0 -0.0419589)
(0.205666 0 -0.0400855)
(0.196224 -6.03455e-20 -0.0382535)
(0.186899 0 -0.0364442)
(0.177771 0 -0.0346738)
(0.168727 1.23924e-19 -0.0329201)
(0.159871 0 -0.0312033)
(0.151072 0 -0.0294981)
(0.142452 0 -0.0278277)
(0.133872 -1.23968e-19 -0.0261655)
(0.125456 1.23375e-19 -0.0245354)
(0.117081 1.22528e-19 -0.0229134)
(0.10884 2.34855e-23 -0.0213177)
(0.100677 -1.2029e-19 -0.0197371)
(0.0925783 0 -0.0181693)
(0.0846639 1.17369e-19 -0.0166372)
(0.0766639 0 -0.0150885)
(0.069078 0 -0.01362)
(0.0611239 0 -0.0120802)
(0.0539668 2.85342e-23 -0.0106943)
(0.0460696 2.15456e-19 -0.0091654)
(0.0393094 2.10902e-19 -0.00785584)
(0.0318339 -2.06247e-19 -0.00640782)
(0.0248357 -2.01277e-19 -0.00505247)
(0.0191196 0 -0.00394168)
(0.0101766 0 -0.00221402)
(0.00831385 3.72884e-19 -0.00183983)
(-0.00417442 -7.20811e-19 0.000567976)
(-0.00102022 7.03937e-19 -2.55626e-05)
(-0.017332 3.38221e-19 0.00311738)
(-0.0103165 0 0.00175566)
(-0.0265964 -6.3228e-19 0.00492666)
(-0.0227584 3.07974e-19 0.00412369)
(-0.0298624 -2.94934e-19 0.00558397)
(-0.0417287 5.69208e-19 0.00778923)
(-0.0224943 0 0.00419715)
(-0.0635084 0 0.0120443)
(-0.0205842 0 0.00381542)
(-0.0778365 0 0.0148072)
(-0.0160119 0 0.00284332)
(-0.0748982 0 0.0144138)
(-0.0522718 -4.32373e-19 0.00961633)
(-0.0487068 -7.98914e-19 0.00943867)
(-0.0869334 -7.7463e-19 0.0164888)
(-0.0388854 0 0.00740711)
(-0.100668 0 0.0192696)
(-0.0662167 0 0.0124929)
(-0.0866102 -6.38327e-19 0.0165208)
(-0.053929 -1.22219e-18 0.0105009)
(-0.148134 5.62668e-19 0.0282513)
(-0.0492336 0 0.00910408)
(-0.114581 -1.0185e-18 0.0222277)
(-0.122165 0 0.0229598)
(-0.0689478 -9.60064e-19 0.0132562)
(-0.150621 9.00754e-19 0.0287501)
(-0.106171 -8.83706e-19 0.0198164)
(-0.0532185 -8.39882e-19 0.0103926)
(-0.165239 7.68155e-19 0.0315359)
(-0.116468 -8.54244e-23 0.0216414)
(-0.0686824 7.28311e-19 0.0129324)
(-0.0460605 0 0.00862456)
(29.1494 -1.25547e-21 4.02717)
(25.1059 0 1.85883)
(20.2435 -1.9151e-20 -0.213568)
(16.0772 0 -1.21225)
(13.1178 -1.73267e-20 -1.50779)
(11.0752 -3.04187e-20 -1.51877)
(9.60292 -1.40788e-20 -1.44113)
(8.4909 0 -1.34351)
(7.61803 3.55886e-22 -1.24812)
(6.91148 -2.18823e-20 -1.16104)
(6.3256 2.00889e-20 -1.08296)
(5.83038 1.84401e-20 -1.01314)
(5.4052 -1.69241e-20 -0.950582)
(5.03539 1.55295e-20 -0.894303)
(4.71021 2.85468e-20 -0.843444)
(4.42158 0 -0.797271)
(4.16329 -6.45882e-23 -0.755166)
(3.93053 2.19193e-20 -0.716607)
(3.71945 2.00904e-20 -0.681154)
(3.52698 0 -0.648437)
(3.35059 0 -0.61814)
(3.18824 1.52678e-20 -0.589994)
(3.0382 0 -0.563769)
(2.89903 1.26219e-20 -0.539266)
(2.76952 -2.28809e-20 -0.516314)
(2.64862 0 -0.494761)
(2.53546 1.86816e-20 -0.474479)
(2.42925 0 -0.455351)
(2.32933 -1.5069e-20 -0.437277)
(2.23512 -2.69265e-20 -0.420167)
(2.14611 -2.39467e-20 -0.40394)
(2.06185 -1.05895e-20 -0.388527)
(1.98193 9.31202e-21 -0.373862)
(1.906 3.25381e-20 -0.359889)
(1.83374 2.8166e-20 -0.346556)
(1.76487 0 -0.333817)
(1.69913 0 -0.321628)
(1.63628 -1.73175e-23 -0.309951)
(1.57613 0 -0.298751)
(1.51847 -5.41244e-21 -0.287996)
(1.46313 0 -0.277656)
(1.40996 -5.65397e-21 -0.267705)
(1.3588 0 -0.258116)
(1.30954 -1.29498e-21 -0.248868)
(1.26202 0 -0.239936)
(1.21616 -2.35753e-21 -0.231305)
(1.17183 0 -0.222951)
(1.12895 0 -0.214863)
(1.08741 6.68796e-21 -0.207017)
(1.04715 0 -0.199407)
(1.00805 0 -0.192009)
(0.970089 0 -0.18482)
(0.933139 2.16004e-20 -0.177815)
(0.897197 4.62508e-20 -0.170999)
(0.862127 0 -0.16434)
(0.827958 0 -0.157851)
(0.794534 -2.67306e-20 -0.151495)
(0.761921 -2.7666e-20 -0.145294)
(0.729932 0 -0.139203)
(0.698681 0 -0.133255)
(0.66794 0 -0.127394)
(0.637878 0 -0.121667)
(0.60822 -6.07788e-20 -0.116007)
(0.579194 6.12766e-20 -0.110473)
(0.550472 -1.23219e-19 -0.104986)
(0.522345 0 -0.099621)
(0.494437 0 -0.0942842)
(0.467089 0 -0.0890653)
(0.439903 4.73407e-23 -0.0838619)
(0.413228 -1.22196e-19 -0.07877)
(0.386711 -1.21246e-19 -0.0736907)
(0.360609 2.40243e-19 -0.0687078)
(0.334773 3.58581e-23 -0.0637551)
(0.309137 -1.17321e-19 -0.0588612)
(0.284086 -1.15699e-19 -0.0540561)
(0.258773 0 -0.0492241)
(0.23474 0 -0.0446127)
(0.20958 0 -0.0398092)
(0.186875 2.15729e-19 -0.0354537)
(0.161869 0 -0.0306761)
(0.140442 0 -0.0265724)
(0.116609 2.01857e-19 -0.0220105)
(0.0946559 1.96783e-19 -0.0178185)
(0.0759075 0 -0.0142245)
(0.0483334 0 -0.0089549)
(0.0411176 0 -0.00758018)
(0.002797 7.01588e-19 -0.000248645)
(0.0109962 -4.01955e-23 -0.00185131)
(-0.0392345 3.28454e-19 0.007862)
(-0.0185542 -3.20552e-19 0.0036812)
(-0.0698216 6.1275e-19 0.0138131)
(-0.0571698 2.98104e-19 0.0109786)
(-0.0822423 5.70426e-19 0.0162712)
(-0.1149 0 0.0219462)
(-0.0628263 0 0.0123836)
(-0.183344 0 0.0354405)
(-0.0572092 0 0.0109868)
(-0.227794 4.55252e-19 0.0440507)
(-0.0440048 0 0.00787336)
(-0.225797 0 0.0445344)
(-0.146197 -4.14526e-19 0.0270188)
(-0.149363 3.82666e-19 0.0296487)
(-0.253997 1.48258e-18 0.0485436)
(-0.11724 -7.07998e-19 0.0226926)
(-0.303364 0 0.0589451)
(-0.192583 0 0.0365617)
(-0.259648 0 0.0498408)
(-0.168737 5.82098e-19 0.0334016)
(-0.43642 -5.35494e-19 0.084207)
(-0.143788 0 0.0264552)
(-0.352719 1.93535e-18 0.0694882)
(-0.350607 9.65753e-19 0.0662527)
(-0.212829 1.82138e-18 0.0413595)
(-0.446537 0 0.0866057)
(-0.30349 0 0.0564686)
(-0.17061 -7.94962e-19 0.0336592)
(-0.486287 0 0.0947683)
(-0.322652 -7.34409e-19 0.0600691)
(-0.200032 -6.87847e-19 0.0374431)
(-0.127976 0 0.0241189)
(31.893 0 3.89814)
(31.0784 0 2.81962)
(28.5484 -1.29733e-20 1.02381)
(25.2055 0 -0.38309)
(21.954 0 -1.22699)
(19.1816 1.51214e-20 -1.65166)
(16.924 1.33327e-20 -1.81986)
(15.0996 0 -1.8514)
(13.6125 4.20674e-22 -1.81764)
(12.3827 2.07305e-20 -1.75511)
(11.3496 -3.7855e-20 -1.6813)
(10.4691 -1.74719e-20 -1.60457)
(9.70888 1.1455e-22 -1.52889)
(9.04511 -1.47154e-20 -1.45613)
(8.4599 -1.34987e-20 -1.38708)
(7.93952 1.23274e-20 -1.32197)
(7.4733 -2.26838e-20 -1.26081)
(7.05283 -2.07716e-20 -1.20344)
(6.67136 0 -1.14963)
(6.32345 0 -1.09913)
(6.00464 1.58308e-20 -1.05172)
(5.71122 1.44362e-20 -1.00713)
(5.44013 0 -0.965153)
(5.18878 0 -0.925576)
(4.95496 2.1681e-20 -0.888208)
(4.73681 0 -0.852875)
(4.53271 -3.53971e-20 -0.819417)
(4.34127 1.59247e-20 -0.787691)
(4.16128 0 -0.757565)
(3.99167 1.27582e-20 -0.72892)
(3.83153 1.13466e-20 -0.701647)
(3.68002 0 -0.675649)
(3.53642 -8.83439e-21 -0.650834)
(3.40008 -1.54186e-20 -0.627122)
(3.27042 1.21021e-23 -0.604436)
(3.14692 0 -0.582708)
(3.02912 0 -0.561875)
(2.91659 8.03211e-21 -0.541879)
(2.80895 0 -0.522665)
(2.70584 0 -0.504185)
(2.60696 0 -0.486391)
(2.51202 0 -0.469244)
(2.42074 0 -0.452701)
(2.33289 0 -0.436729)
(2.24823 0 -0.421288)
(2.16657 2.18828e-21 -0.406354)
(2.08769 -3.69518e-21 -0.391888)
(2.01145 0 -0.377873)
(1.93764 -6.32744e-21 -0.364269)
(1.86616 0 -0.351066)
(1.7968 0 -0.338224)
(1.72949 1.87341e-20 -0.325741)
(1.66402 0 -0.313573)
(1.60038 -2.1852e-20 -0.301728)
(1.53834 2.31173e-20 -0.290153)
(1.47792 0 -0.278871)
(1.41887 2.52662e-20 -0.267818)
(1.36128 0 -0.257034)
(1.30484 0 -0.246438)
(1.24972 0 -0.236091)
(1.19555 5.59244e-20 -0.225894)
(1.1426 5.67457e-20 -0.215932)
(1.0904 2.84424e-23 -0.206082)
(1.03933 -1.15698e-19 -0.196456)
(0.988839 2.49477e-23 -0.186906)
(0.939401 0 -0.177574)
(0.890391 0 -0.168284)
(0.842363 -1.16355e-19 -0.159208)
(0.794661 3.81503e-23 -0.150148)
(0.747849 0 -0.141294)
(0.701353 0 -0.132448)
(0.655573 -1.13259e-19 -0.123785)
(0.610285 2.88764e-23 -0.115155)
(0.565342 2.68933e-23 -0.106649)
(0.521424 0 -0.0982679)
(0.477065 0 -0.0898736)
(0.434902 -2.10986e-19 -0.0818185)
(0.39082 2.07172e-19 -0.0734758)
(0.350942 0 -0.0658584)
(0.307097 0 -0.0575469)
(0.269476 0 -0.0503891)
(0.227474 0 -0.042381)
(0.189229 0 -0.0351774)
(0.155478 0 -0.0286713)
(0.108125 0 -0.0197841)
(0.0936256 0 -0.0169477)
(0.0281504 -6.59587e-19 -0.00459552)
(0.0399741 -3.21685e-19 -0.00680983)
(-0.0460762 -3.08704e-19 0.00968071)
(-0.0121029 3.01216e-19 0.00270711)
(-0.101457 -5.75617e-19 0.0206182)
(-0.0787544 -2.80007e-19 0.0150713)
(-0.126216 -2.67835e-19 0.0257176)
(-0.176724 0 0.0332871)
(-0.0978029 0 0.0199991)
(-0.295528 0 0.0569824)
(-0.0887151 0 0.0172177)
(-0.372562 -4.27101e-19 0.0718985)
(-0.0677848 0 0.0116821)
(-0.378142 0 0.0759346)
(-0.229708 3.88671e-19 0.0408624)
(-0.254284 0 0.0517923)
(-0.414432 -6.94762e-19 0.0783744)
(-0.197464 6.63475e-19 0.0386151)
(-0.507932 0 0.0993579)
(-0.314136 0 0.0586964)
(-0.434862 0 0.0831523)
(-0.290678 5.45155e-19 0.0590362)
(-0.718727 0 0.138122)
(-0.236781 -5.09204e-19 0.0422487)
(-0.601015 1.13025e-23 0.120379)
(-0.564645 -9.03844e-19 0.104374)
(-0.364938 -1.70439e-18 0.0717387)
(-0.737708 0 0.143439)
(-0.488768 7.82728e-19 0.0876313)
(-0.29959 7.4359e-19 0.060652)
(-0.798781 6.79327e-19 0.156473)
(-0.503362 0 0.0898579)
(-0.32711 6.43161e-19 0.059307)
(-0.197833 0 0.0361563)
(32.4146 0 2.95624)
(32.9804 0 2.76952)
(32.4267 1.22641e-20 1.72433)
(30.7831 0 0.522296)
(28.5293 -1.23055e-20 -0.48352)
(26.1123 2.50295e-20 -1.20693)
(23.7922 0 -1.67028)
(21.6852 -2.18448e-20 -1.93459)
(19.8248 2.09438e-20 -2.06386)
(18.2014 1.89386e-20 -2.10818)
(16.7876 1.77983e-20 -2.10138)
(15.5522 -1.61758e-20 -2.06474)
(14.4666 1.50576e-20 -2.01124)
(13.5066 -2.74491e-20 -1.9487)
(12.652 0 -1.88185)
(11.8867 -2.3255e-20 -1.81356)
(11.1972 0 -1.74558)
(10.5727 0 -1.67896)
(10.0043 0 -1.61431)
(9.48451 1.63525e-20 -1.55197)
(9.00725 -3.4198e-23 -1.4921)
(8.56734 -2.60138e-23 -1.43477)
(8.16041 1.24121e-20 -1.37994)
(7.78277 0 -1.32756)
(7.43125 0 -1.27755)
(7.10312 0 -1.22979)
(6.79604 3.3463e-20 -1.18417)
(6.50796 -5.99671e-24 -1.1406)
(6.23709 0 -1.09895)
(5.98187 0 -1.05911)
(5.74091 0 -1.02099)
(5.51299 0 -0.984478)
(5.29702 1.67106e-20 -0.949485)
(5.09204 0 -0.915923)
(4.89716 -1.26308e-20 -0.883706)
(4.71163 0 -0.852757)
(4.53471 0 -0.823002)
(4.3658 -7.61639e-21 -0.794372)
(4.20429 0 -0.766802)
(4.04968 0 -0.740231)
(3.90147 3.67454e-21 -0.714602)
(3.75925 -5.12969e-21 -0.689863)
(3.62258 0 -0.66596)
(3.49113 -1.22407e-21 -0.642851)
(3.36452 0 -0.620485)
(3.24247 -4.11518e-21 -0.598829)
(3.12465 1.88441e-23 -0.577831)
(3.01084 0 -0.557468)
(2.90073 0 -0.537688)
(2.79414 7.00781e-21 -0.518479)
(2.69079 1.59349e-20 -0.499782)
(2.59056 -3.53504e-20 -0.481599)
(2.49315 0 -0.463864)
(2.3985 -2.05798e-20 -0.446593)
(2.30629 -2.18218e-20 -0.42971)
(2.21655 -2.28692e-20 -0.41325)
(2.1289 -2.38033e-20 -0.397118)
(2.04346 0 -0.381376)
(1.95979 0 -0.365905)
(1.87813 -5.17654e-20 -0.350796)
(1.79793 -1.05471e-19 -0.335903)
(1.71955 -5.35209e-20 -0.321352)
(1.64236 3.05157e-23 -0.306962)
(1.56685 5.45344e-20 -0.2929)
(1.49227 5.48023e-20 -0.278947)
(1.41925 0 -0.265313)
(1.34692 0 -0.251738)
(1.27604 1.09651e-19 -0.238478)
(1.2057 2.18309e-19 -0.225238)
(1.13667 0 -0.212302)
(1.06815 1.07615e-19 -0.19937)
(1.00068 1.06604e-19 -0.186714)
(0.933956 1.05423e-19 -0.174091)
(0.867744 2.08172e-19 -0.161667)
(0.803037 0 -0.149398)
(0.737705 0 -0.137139)
(0.675538 1.98543e-19 -0.125331)
(0.610629 -3.89797e-19 -0.113152)
(0.55176 -1.91005e-19 -0.10197)
(0.487159 0 -0.089821)
(0.431625 0 -0.0793329)
(0.369447 0 -0.0675364)
(0.313391 0 -0.0571223)
(0.26244 0 -0.047269)
(0.194026 0 -0.0346728)
(0.170016 -3.20923e-19 -0.0298925)
(0.0759945 4.40238e-23 -0.0124037)
(0.0896761 3.02055e-19 -0.0148534)
(-0.0341604 0 0.00860465)
(0.0124478 2.82738e-19 -0.00102968)
(-0.118292 2.70147e-19 0.0253365)
(-0.0843135 0 0.0164435)
(-0.159155 -2.51288e-19 0.0339058)
(-0.224024 -4.84142e-19 0.0419605)
(-0.125545 0 0.0271131)
(-0.396742 0 0.076677)
(-0.113503 0 0.0226554)
(-0.509452 -4.00333e-19 0.0984686)
(-0.0862719 0 0.0145464)
(-0.529369 0 0.108136)
(-0.300805 3.64113e-19 0.0518092)
(-0.362623 -3.36106e-19 0.0757607)
(-0.564837 0 0.106201)
(-0.279446 0 0.0554882)
(-0.71085 0 0.140072)
(-0.429766 0 0.0794946)
(-0.61122 0 0.116857)
(-0.417835 1.45908e-23 0.0868045)
(-0.991675 0 0.190369)
(-0.328708 4.76497e-19 0.0574618)
(-0.856289 -8.47503e-19 0.174112)
(-0.761202 0 0.138474)
(-0.524934 -8.8237e-24 0.104481)
(-1.01879 0 0.198947)
(-0.661043 -1.0077e-22 0.115041)
(-0.438331 0 0.0906705)
(-1.09744 -6.35147e-19 0.216385)
(-0.655258 0 0.112883)
(-0.448748 6.01143e-19 0.0793145)
(-0.251147 0 0.0446474)
(32.517 0 2.10399)
(33.2746 0 2.22909)
(33.6211 0 1.75344)
(33.2565 0 0.958768)
(32.2334 1.16155e-20 0.116342)
(30.759 -9.01327e-22 -0.633335)
(29.0388 0 -1.23483)
(27.2318 2.06185e-20 -1.67898)
(25.4477 0 -1.98295)
(23.7526 -3.52508e-20 -2.17502)
(22.1788 0 -2.28379)
(20.7365 1.52711e-20 -2.33326)
(19.4232 0 -2.34176)
(18.2302 2.59163e-20 -2.32254)
(17.1462 -1.18043e-20 -2.28492)
(16.1597 2.18115e-20 -2.23535)
(15.2598 -1.99671e-20 -2.17826)
(14.4365 -1.83276e-20 -2.11673)
(13.6811 0 -2.05286)
(12.9859 -1.54413e-20 -1.98811)
(12.3441 -1.41071e-20 -1.92348)
(11.75 -2.57022e-20 -1.85964)
(11.1985 -1.17203e-20 -1.79704)
(10.6852 0 -1.73599)
(10.2062 0 -1.67668)
(9.75826 0 -1.61921)
(9.33833 -1.57934e-20 -1.56363)
(8.94386 -1.42144e-20 -1.50995)
(8.57255 0 -1.45816)
(8.2224 0 -1.40821)
(7.89158 1.01323e-20 -1.36006)
(7.57851 0 -1.31366)
(7.28174 1.36942e-24 -1.26893)
(6.99998 -1.37859e-20 -1.22581)
(6.73208 1.19394e-20 -1.18423)
(6.477 0 -1.14413)
(6.23378 0 -1.10543)
(6.00156 7.18851e-21 -1.06807)
(5.77957 0 -1.03199)
(5.56709 0 -0.997128)
(5.36346 -3.46753e-21 -0.963418)
(5.1681 4.8404e-21 -0.930808)
(4.98045 0 -0.899239)
(4.80001 1.15489e-21 -0.868664)
(4.62629 0 -0.839025)
(4.4589 1.93175e-21 -0.810284)
(4.29738 3.27504e-21 -0.782381)
(4.14143 0 -0.75529)
(3.99062 5.58927e-21 -0.728946)
(3.84472 -6.60876e-21 -0.703338)
(3.70332 -3.00228e-20 -0.678392)
(3.56626 1.6652e-20 -0.654113)
(3.43312 -1.8079e-20 -0.630416)
(3.30383 2.53809e-23 -0.607327)
(3.17795 0 -0.584742)
(3.0555 2.15551e-20 -0.562714)
(2.93598 2.24333e-20 -0.541115)
(2.81954 -2.31732e-20 -0.520031)
(2.70558 2.38209e-20 -0.499303)
(2.5944 4.87705e-20 -0.479056)
(2.48529 4.96627e-20 -0.459091)
(2.37871 -5.03506e-20 -0.439584)
(2.27381 5.09284e-20 -0.420286)
(2.17123 0 -0.401429)
(2.06997 0 -0.382711)
(1.97086 5.16769e-20 -0.364424)
(1.87276 0 -0.346208)
(1.77665 0 -0.328419)
(1.68132 -1.02707e-19 -0.310648)
(1.58777 0 -0.293292)
(1.49497 -1.0125e-19 -0.275927)
(1.40357 -2.00536e-19 -0.258946)
(1.31324 0 -0.241986)
(1.22358 -9.78735e-20 -0.225317)
(1.13596 0 -0.208815)
(1.04752 0 -0.192373)
(0.963275 -1.86547e-19 -0.176467)
(0.875429 1.83162e-19 -0.160135)
(0.795545 3.92129e-23 -0.145048)
(0.708063 0 -0.128737)
(0.632689 0 -0.114608)
(0.54812 0 -0.0986498)
(0.472528 -1.63373e-19 -0.0848064)
(0.401948 1.59272e-19 -0.0711138)
(0.31102 0 -0.0547284)
(0.274975 6.02465e-19 -0.047426)
(0.150901 2.907e-19 -0.0247405)
(0.164326 -5.66869e-19 -0.0269724)
(0.000668574 -2.71883e-19 0.00373258)
(0.0589135 -5.30448e-19 -0.00839037)
(-0.116686 0 0.0271543)
(-0.0702631 0 0.0142976)
(-0.17803 2.35623e-19 0.0402425)
(-0.253318 4.53891e-19 0.0469833)
(-0.143799 -4.38908e-19 0.0333646)
(-0.483266 0 0.0934735)
(-0.129793 0 0.0269281)
(-0.635429 3.75088e-19 0.12286)
(-0.0981707 3.76656e-19 0.0161782)
(-0.676367 0 0.140562)
(-0.357761 -3.41001e-19 0.0590131)
(-0.473007 3.14727e-19 0.10148)
(-0.701697 0 0.130712)
(-0.362883 0 0.0733709)
(-0.907922 0 0.180151)
(-0.538765 0 0.0983443)
(-0.787193 0 0.150511)
(-0.547691 -4.77452e-19 0.116306)
(-1.25213 0 0.239528)
(-0.420111 0 0.0719953)
(-1.11446 0 0.229889)
(-0.938013 7.90402e-19 0.166928)
(-0.691791 7.45413e-19 0.139588)
(-1.28408 0 0.251375)
(-0.820206 -6.84239e-19 0.137659)
(-0.583591 0 0.123459)
(-1.3771 -5.93538e-19 0.27261)
(-0.776074 0 0.12705)
(-0.563564 -5.6179e-19 0.0966204)
(-0.282833 0 0.0478513)
(32.5889 -4.97796e-21 1.49008)
(33.1721 -6.18044e-21 1.62939)
(33.6986 7.34001e-21 1.43802)
(33.924 8.2724e-21 0.976629)
(33.7312 0 0.384268)
(33.1322 -9.9172e-21 -0.232059)
(32.2004 0 -0.806528)
(31.0266 1.74231e-20 -1.30211)
(29.6997 1.66589e-20 -1.70338)
(28.2959 3.21319e-20 -2.01077)
(26.8747 -1.47839e-20 -2.23399)
(25.4784 1.37957e-20 -2.38655)
(24.1341 0 -2.48238)
(22.8573 0 -2.5341)
(21.6554 1.11289e-20 -2.55236)
(20.5302 -1.14548e-22 -2.54569)
(19.48 1.76044e-22 -2.52073)
(18.5013 1.35882e-22 -2.48258)
(17.5896 0 -2.43507)
(16.74 0 -2.38108)
(15.9477 0 -2.32276)
(15.2078 2.41504e-20 -2.26174)
(14.516 1.09863e-20 -2.19919)
(13.8683 0 -2.13602)
(13.2607 0 -2.07289)
(12.69 1.64388e-20 -2.01028)
(12.1531 0 -1.94854)
(11.6471 0 -1.88792)
(11.1696 0 -1.8286)
(10.7182 0 -1.7707)
(10.291 -6.3995e-24 -1.7143)
(9.88598 0 -1.65943)
(9.50156 -1.61457e-24 -1.60611)
(9.13617 1.29953e-20 -1.55435)
(8.78842 2.61297e-24 -1.50412)
(8.45704 0 -1.45539)
(8.14088 0 -1.40814)
(7.83887 0 -1.36232)
(7.55004 0 -1.31788)
(7.27351 0 -1.27478)
(7.00846 0 -1.23298)
(6.75414 0 -1.19242)
(6.50985 -2.78591e-21 -1.15305)
(6.27495 -1.12442e-21 -1.11482)
(6.04883 0 -1.07769)
(5.83097 1.78536e-21 -1.04161)
(5.62081 0 -1.00652)
(5.41793 0 -0.972397)
(5.2218 -1.05135e-20 -0.939166)
(5.03211 0 -0.906821)
(4.84834 1.41231e-20 -0.875275)
(4.67027 0 -0.84454)
(4.49738 3.40207e-20 -0.814512)
(4.32955 2.45987e-23 -0.78523)
(4.16622 0 -0.756565)
(4.00742 0 -0.728589)
(3.85249 0 -0.70114)
(3.70162 4.36014e-20 -0.674333)
(3.55404 -4.48175e-20 -0.647963)
(3.41013 -4.5825e-20 -0.622197)
(3.26897 -4.6664e-20 -0.596778)
(3.13114 9.47116e-20 -0.571936)
(2.99557 4.78526e-20 -0.54735)
(2.86304 0 -0.523323)
(2.7323 0 -0.499463)
(2.60436 -2.43369e-23 -0.476153)
(2.47781 0 -0.452923)
(2.35383 0 -0.43024)
(2.23095 -9.64767e-20 -0.407566)
(2.11034 0 -0.38543)
(1.99078 0 -0.363263)
(1.87302 1.88392e-19 -0.341601)
(1.75666 -9.30874e-20 -0.319935)
(1.64118 0 -0.298669)
(1.52829 0 -0.277565)
(1.41441 0 -0.256592)
(1.30578 1.75196e-19 -0.236216)
(1.19268 0 -0.215386)
(1.08953 3.36945e-19 -0.196025)
(0.976826 -1.64886e-19 -0.1752)
(0.879456 0 -0.157085)
(0.770057 0 -0.136565)
(0.672969 1.53307e-19 -0.119033)
(0.580087 -2.51705e-23 -0.100982)
(0.464993 1.44945e-19 -0.0806948)
(0.414069 -2.82534e-19 -0.0702443)
(0.258301 2.72554e-19 -0.042288)
(0.26899 2.65768e-19 -0.0437499)
(0.0633492 2.54916e-19 -0.00555904)
(0.131864 2.96893e-23 -0.0199419)
(-0.0922718 0 0.0254678)
(-0.0323324 -2.30867e-19 0.00810649)
(-0.179186 0 0.0442364)
(-0.260428 0 0.0478616)
(-0.149755 4.11175e-19 0.0384526)
(-0.550626 0 0.106727)
(-0.135416 0 0.0298531)
(-0.746746 0 0.14456)
(-0.101766 -3.52668e-19 0.0164433)
(-0.815425 0 0.172518)
(-0.398681 -3.19115e-19 0.0622986)
(-0.583437 0 0.128753)
(-0.820957 0 0.151394)
(-0.447111 0 0.0923711)
(-1.09413 0 0.218632)
(-0.640447 0 0.11537)
(-0.960336 -4.66958e-19 0.184011)
(-0.67723 -4.46582e-19 0.146973)
(-1.49661 4.10259e-19 0.285272)
(-0.511122 0 0.0861245)
(-1.37054 0 0.286708)
(-1.09291 -1.47777e-18 0.189719)
(-0.863646 0 0.176874)
(-1.52715 6.52615e-19 0.299523)
(-0.966149 0 0.155923)
(-0.730758 6.07554e-19 0.158188)
(-1.63235 5.54652e-19 0.323981)
(-0.863381 0 0.132501)
(-0.669377 -5.24845e-19 0.110983)
(-0.286706 0 0.0446036)
(32.6432 4.68788e-21 1.03824)
(33.0541 1.13932e-20 1.12496)
(33.5001 -6.91389e-21 1.04163)
(33.8651 -7.82487e-22 0.777924)
(34.0382 7.49048e-21 0.387298)
(33.9635 0 -0.0683116)
(33.633 0 -0.53979)
(33.0669 -1.64063e-20 -0.991401)
(32.3007 -3.04701e-20 -1.39951)
(31.3766 -7.08962e-22 -1.75108)
(30.3383 1.39198e-20 -2.04161)
(29.2264 -1.29892e-20 -2.27245)
(28.0759 1.17454e-20 -2.44843)
(26.9151 0 -2.57615)
(25.7654 0 -2.66278)
(24.6424 -9.53538e-21 -2.71534)
(23.5565 3.48882e-20 -2.7402)
(22.5143 3.21054e-20 -2.74296)
(21.5192 0 -2.72832)
(20.5725 0 -2.70018)
(19.6741 0 -2.66168)
(18.8228 -6.72835e-23 -2.61539)
(18.0169 -2.06373e-20 -2.56333)
(17.2541 9.37142e-21 -2.5071)
(16.5322 1.70267e-20 -2.44797)
(15.8488 -3.09078e-20 -2.38696)
(15.2014 1.39425e-20 -2.32484)
(14.5879 1.25603e-20 -2.26224)
(14.0059 1.12758e-20 -2.19962)
(13.4535 0 -2.13736)
(12.9286 -8.98754e-21 -2.07574)
(12.4294 7.94856e-21 -2.01499)
(11.9542 -7.00169e-21 -1.95525)
(11.5015 -1.22283e-20 -1.89664)
(11.0696 -2.11923e-20 -1.83925)
(10.6574 0 -1.78314)
(10.2634 0 -1.72834)
(9.88662 -6.39694e-21 -1.67486)
(9.52583 0 -1.6227)
(9.18006 4.10972e-21 -1.57186)
(8.84836 3.09981e-21 -1.52232)
(8.52989 0 -1.47406)
(8.22378 5.25903e-21 -1.42704)
(7.92933 1.05815e-21 -1.38124)
(7.64579 0 -1.33661)
(7.37253 -1.67996e-21 -1.29313)
(7.10889 -2.85614e-21 -1.25074)
(6.85435 0 -1.20943)
(6.60829 9.86193e-21 -1.16911)
(6.37031 -5.81354e-21 -1.1298)
(6.13977 -1.32313e-20 -1.0914)
(5.91643 0 -1.05393)
(5.69961 -2.48817e-23 -1.01728)
(5.4892 3.42437e-20 -0.981491)
(5.28449 0 -0.946418)
(5.0855 0 -0.912157)
(4.89143 -1.97955e-20 -0.878509)
(4.70251 -2.04873e-20 -0.845625)
(4.51779 4.20973e-20 -0.813251)
(4.33771 4.30766e-20 -0.781602)
(4.16117 4.38615e-20 -0.750359)
(3.98883 -4.4493e-20 -0.719813)
(3.8194 -8.99122e-20 -0.689563)
(3.65383 0 -0.659995)
(3.49057 0 -0.630613)
(3.33085 -9.12467e-20 -0.601907)
(3.17294 0 -0.573281)
(3.01825 0 -0.545332)
(2.86503 9.06124e-20 -0.517372)
(2.71464 0 -0.490085)
(2.56561 -8.926e-20 -0.46273)
(2.41883 -3.23947e-23 -0.436018)
(2.27382 8.73913e-20 -0.409257)
(2.12991 0 -0.383027)
(1.98919 0 -0.356927)
(1.8473 0 -0.331056)
(1.71177 1.64312e-19 -0.305812)
(1.57084 0 -0.28012)
(1.44197 -1.58035e-19 -0.256085)
(1.30146 3.09306e-19 -0.230371)
(1.17969 0 -0.20789)
(1.04279 0 -0.182387)
(0.921987 0 -0.160873)
(0.803884 -2.49323e-23 -0.137911)
(0.662718 -1.35882e-19 -0.113592)
(0.593768 -2.64756e-19 -0.0993025)
(0.404467 -2.55449e-19 -0.0660153)
(0.409568 2.48993e-19 -0.0660721)
(0.159607 0 -0.0201501)
(0.236634 2.32907e-19 -0.036564)
(-0.0399451 0 0.0194598)
(0.0344556 2.16245e-19 -0.00285692)
(-0.158288 0 0.0452424)
(-0.240535 0 0.0437731)
(-0.139961 0 0.0419534)
(-0.593663 -3.62263e-19 0.115438)
(-0.127779 -3.56668e-19 0.0311171)
(-0.83896 0 0.162714)
(-0.0948704 3.30039e-19 0.0150843)
(-0.942189 -2.97013e-19 0.203183)
(-0.421631 2.98588e-19 0.0613076)
(-0.691191 -2.75608e-19 0.157226)
(-0.918318 0 0.167248)
(-0.530969 0 0.112495)
(-1.26366 0 0.254357)
(-0.7343 0 0.130476)
(-1.12723 4.36648e-19 0.216727)
(-0.803036 -8.56807e-24 0.17812)
(-1.72161 -7.6704e-19 0.326718)
(-0.601295 0 0.0998932)
(-1.61874 0 0.343344)
(-1.2243 6.90543e-19 0.206267)
(-1.03759 0 0.215922)
(-1.7413 -6.09871e-19 0.341803)
(-1.09896 0 0.169801)
(-0.873689 -1.13538e-18 0.193741)
(-1.85797 0 0.368949)
(-0.915019 0 0.128451)
(-0.7632 4.90288e-19 0.121642)
(-0.255693 0 0.0330475)
(32.6674 0 0.685244)
(32.9687 -5.24194e-21 0.728208)
(33.3056 0 0.678353)
(33.6359 -6.59485e-21 0.514931)
(33.8965 -1.34448e-20 0.252787)
(34.0367 0 -0.0763523)
(34.0279 6.70709e-21 -0.441073)
(33.8587 0 -0.815278)
(33.5297 9.01039e-22 -1.17877)
(33.0504 -2.58298e-20 -1.51707)
(32.4369 0 -1.82087)
(31.7093 0 -2.08526)
(30.89 -1.10472e-20 -2.30866)
(30.0013 0 -2.49179)
(29.0644 0 -2.63695)
(28.098 0 -2.74741)
(27.1184 -1.62975e-20 -2.82694)
(26.1389 -1.50132e-20 -2.87952)
(25.1702 -1.36209e-20 -2.90901)
(24.2203 0 -2.91905)
(23.2949 0 -2.91294)
(22.3981 -1.0609e-20 -2.89357)
(21.5324 9.68024e-21 -2.86347)
(20.6993 -8.81408e-21 -2.82477)
(19.8993 -1.6014e-20 -2.77928)
(19.1323 2.89532e-20 -2.72852)
(18.3979 -5.42311e-23 -2.67373)
(17.6951 -1.18129e-20 -2.61596)
(17.023 -1.06047e-20 -2.55604)
(16.3803 0 -2.49468)
(15.7657 0 -2.43244)
(15.178 -7.47508e-21 -2.36978)
(14.6157 0 -2.30707)
(14.0777 1.14994e-20 -2.24461)
(13.5626 9.96303e-21 -2.18263)
(13.0691 -8.53667e-21 -2.12133)
(12.5962 0 -2.06084)
(12.1427 6.0149e-21 -2.00128)
(11.7074 4.89786e-21 -1.94272)
(11.2895 3.69955e-24 -1.88525)
(10.8878 -5.8335e-21 -1.82888)
(10.5016 0 -1.77366)
(10.1299 -2.47921e-21 -1.71958)
(9.77197 0 -1.66666)
(9.42692 0 -1.61488)
(9.09413 0 -1.56426)
(8.77282 1.37698e-23 -1.51473)
(8.46243 0 -1.46631)
(8.16223 -4.62739e-21 -1.41893)
(7.87179 1.09136e-20 -1.37262)
(7.59035 1.24337e-20 -1.32727)
(7.31764 0 -1.28294)
(7.05287 -1.49978e-20 -1.23948)
(6.79591 -3.21282e-20 -1.19699)
(6.5459 0 -1.15528)
(6.3029 0 -1.11448)
(6.06594 1.8595e-20 -1.07435)
(5.83528 1.92065e-20 -1.0351)
(5.60981 -1.97606e-20 -0.996414)
(5.39004 -4.03889e-20 -0.958566)
(5.17463 0 -0.921161)
(4.96442 0 -0.884575)
(4.75781 2.85027e-23 -0.848307)
(4.55593 -4.24946e-20 -0.812847)
(4.35696 0 -0.777576)
(4.16233 4.28147e-20 -0.743115)
(3.96999 0 -0.708715)
(3.78158 0 -0.675132)
(3.59502 0 -0.641499)
(3.41193 0 -0.608689)
(3.23054 3.43647e-23 -0.575751)
(3.05188 -3.2099e-23 -0.543611)
(2.87539 -8.19216e-20 -0.511352)
(2.70025 0 -0.479778)
(2.52892 -7.96636e-20 -0.448269)
(2.35624 0 -0.417121)
(2.19107 -1.54076e-19 -0.386585)
(2.01955 1.51154e-19 -0.355647)
(1.86223 -1.48084e-19 -0.326508)
(1.69111 -1.44956e-19 -0.295512)
(1.54229 0 -0.268249)
(1.37497 1.38226e-19 -0.237319)
(1.22795 0 -0.211489)
(1.08146 -1.31239e-19 -0.183036)
(0.912023 -1.27261e-19 -0.15452)
(0.821607 2.48025e-19 -0.135652)
(0.596672 0 -0.0969586)
(0.592982 -4.6638e-19 -0.094901)
(0.296106 0 -0.0410192)
(0.379519 2.18037e-19 -0.0591529)
(0.0463107 0 0.00833958)
(0.135943 2.02396e-19 -0.0194142)
(-0.110204 0 0.04248)
(-0.188033 3.72545e-19 0.0337546)
(-0.110206 -3.60278e-19 0.0433384)
(-0.606396 3.39006e-19 0.11859)
(-0.10371 3.33735e-19 0.0303862)
(-0.906756 0 0.176426)
(-0.0746944 -6.17508e-19 0.0117938)
(-1.0516 5.55646e-19 0.231602)
(-0.424484 0 0.0557626)
(-0.792723 2.57759e-19 0.186364)
(-0.989154 0 0.177468)
(-0.612632 0 0.13364)
(-1.4099 -4.46272e-19 0.286033)
(-0.819786 0 0.143747)
(-1.28316 0 0.247953)
(-0.921402 3.9031e-19 0.209003)
(-1.92329 7.16779e-19 0.363171)
(-0.689338 3.64067e-19 0.11322)
(-1.85246 0 0.398381)
(-1.33097 0 0.216408)
(-1.20951 0 0.256028)
(-1.91957 0 0.376734)
(-1.21851 5.57968e-19 0.179457)
(-1.0047 5.30338e-19 0.228628)
(-2.04904 0 0.406179)
(-0.928519 0 0.114524)
(-0.841008 0 0.127689)
(-0.181767 0 0.0112399)
(32.6661 4.19337e-21 0.397035)
(32.8981 0 0.412706)
(33.1537 4.91091e-21 0.371759)
(33.4184 0 0.25817)
(33.6612 6.01291e-21 0.0724927)
(33.8506 0 -0.170571)
(33.9638 -6.30381e-21 -0.451886)
(33.9857 1.15589e-20 -0.753513)
(33.9071 2.36e-20 -1.06029)
(33.7233 7.28724e-22 -1.36024)
(33.434 0 -1.64434)
(33.0424 0 -1.90639)
(32.5552 0 -2.14253)
(31.9816 0 -2.35068)
(31.3325 0 -2.5301)
(30.6201 0 -2.68104)
(29.8568 1.46847e-20 -2.80454)
(29.0547 -1.36064e-20 -2.90218)
(28.2256 1.27982e-20 -2.97594)
(27.3798 0 -3.02804)
(26.5267 0 -3.06081)
(25.6739 9.76796e-21 -3.07657)
(24.828 8.93635e-21 -3.07758)
(23.9941 8.15522e-21 -3.06594)
(23.1763 0 -3.04358)
(22.3775 -1.35691e-20 -3.01224)
(21.6 -2.44647e-20 -2.97346)
(20.8452 1.10005e-20 -2.92859)
(20.1141 0 -2.8788)
(19.4071 0 -2.82509)
(18.7242 0 -2.76833)
(18.0654 6.98818e-21 -2.70924)
(17.4303 0 -2.64844)
(16.8182 0 -2.58645)
(16.2286 9.33376e-21 -2.52371)
(15.6608 8.0194e-21 -2.46058)
(15.1139 0 -2.39736)
(14.5871 5.6462e-21 -2.3343)
(14.0796 -9.19979e-21 -2.27159)
(13.5907 -3.63293e-21 -2.20941)
(13.1194 2.74186e-21 -2.14789)
(12.6649 0 -2.08713)
(12.2265 0 -2.02721)
(11.8034 0 -1.9682)
(11.3948 -2.91656e-22 -1.91012)
(11 0 -1.85304)
(10.6183 2.50798e-21 -1.79694)
(10.2492 3.4525e-21 -1.74187)
(9.89171 0 -1.68777)
(9.54555 -5.11733e-21 -1.63471)
(9.20986 0 -1.58259)
(8.88435 0 -1.53149)
(8.56813 -1.40347e-20 -1.48127)
(8.2611 2.17102e-23 -1.43205)
(7.96226 1.59422e-20 -1.38363)
(7.67172 0 -1.33619)
(7.38833 0 -1.28944)
(7.11244 -1.80251e-20 -1.24364)
(6.84273 0 -1.19843)
(6.57982 3.78998e-20 -1.15415)
(6.32215 0 -1.11032)
(6.07068 0 -1.06743)
(5.82355 7.90944e-20 -1.02484)
(5.58211 7.97026e-20 -0.983188)
(5.34417 4.00235e-20 -0.941702)
(5.11143 0 -0.901158)
(4.88148 0 -0.860633)
(4.65624 4.00027e-20 -0.821073)
(4.43325 7.96296e-20 -0.781395)
(4.2144 0 -0.742703)
(3.99761 7.84902e-20 -0.703793)
(3.78406 -7.77168e-20 -0.665856)
(3.5731 7.67961e-20 -0.627692)
(3.36377 -7.57685e-20 -0.590395)