/*--------------------------------*- C++ -*----------------------------------*\
| =========                 |                                                 |
| \\      /  F ield         | OpenFOAM: The Open Source CFD Toolbox           |
|  \\    /   O peration     | Version:  2412                                  |
|   \\  /    A nd           | Website:  www.openfoam.com                      |
|    \\/     M anipulation  |                                                 |
\*---------------------------------------------------------------------------*/
FoamFile
{
    version     2.0;
    format      ascii;
    arch        "LSB;label=32;scalar=64";
    class       surfaceScalarField;
    location    "0.105";
    object      phi_0;
}
// * * * * * * * * * * * * * * * * * * * * * * * * * * * * * * * * * * * * * //

dimensions      [0 3 -1 0 0 0 0];

oriented        oriented;

internalField   nonuniform List<scalar> 
24930
(
0.0166643
0.0172916
-0.033956
0.008017
0.00864732
0.00457393
0.00344307
0.00314056
0.00143338
0.00243596
0.000704599
0.00200741
0.000428548
0.00171047
0.000296938
0.00148982
0.000220651
0.00131937
0.000170452
0.001184
0.000135369
0.00107414
0.00010986
0.000983436
9.0702e-05
0.000907495
7.59403e-05
0.000843303
6.4192e-05
0.00078835
5.49531e-05
0.000741035
4.73148e-05
0.000700145
4.089e-05
0.000664667
3.54782e-05
0.000633798
3.08691e-05
0.000606896
2.69018e-05
0.000583442
2.34544e-05
0.000563007
2.04346e-05
0.000545238
1.77696e-05
0.000529834
1.54038e-05
0.000516541
1.32926e-05
0.00050514
1.14009e-05
0.00049544
9.70077e-06
0.000487271
8.16917e-06
0.000480486
6.7841e-06
0.000474941
5.54556e-06
0.00047049
4.45046e-06
0.000467044
3.44592e-06
0.000464509
2.53545e-06
0.000462826
1.68284e-06
0.000461885
9.41517e-07
0.000461293
5.91388e-07
0.000461748
-4.54992e-07
0.000463777
-2.02844e-06
0.000463196
5.80336e-07
0.000465726
-2.52987e-06
0.000467524
-1.79795e-06
0.000469099
-1.5752e-06
0.000472592
-3.49228e-06
0.000475318
-2.72613e-06
0.000477768
-2.45006e-06
0.000480479
-2.71109e-06
0.000482969
-2.48998e-06
0.000485893
-2.92422e-06
0.000488923
-3.03035e-06
0.00049206
-3.13669e-06
0.000495342
-3.28153e-06
0.000498763
-3.42142e-06
0.000502317
-3.5538e-06
0.000505991
-3.67432e-06
0.000509783
-3.79153e-06
0.000513685
-3.90258e-06
0.000517699
-4.01412e-06
0.000521826
-4.12628e-06
0.000526067
-4.24091e-06
0.000530428
-4.3616e-06
0.000534921
-4.49277e-06
0.00053956
-4.63874e-06
0.000544363
-4.80368e-06
0.000549355
-4.99181e-06
0.000554563
-5.2077e-06
0.000560018
-5.45546e-06
0.000565757
-5.73862e-06
0.000571816
-6.05909e-06
0.00057824
-6.42407e-06
0.00058508
-6.83974e-06
0.000592389
-7.30888e-06
0.000600225
-7.83645e-06
0.000608654
-8.4283e-06
0.000617744
-9.09061e-06
0.000627576
-9.83183e-06
0.000638236
-1.06605e-05
0.000649826
-1.15899e-05
0.000662459
-1.26325e-05
0.000676261
-1.38024e-05
0.00069139
-1.51288e-05
0.000708024
-1.66337e-05
0.000726353
-1.83294e-05
0.000746615
-2.02618e-05
0.000769126
-2.25105e-05
0.000794227
-2.51017e-05
0.000822218
-2.79909e-05
0.000853458
-3.12404e-05
0.000888618
-3.516e-05
0.000928612
-3.99935e-05
0.00097413
-4.55177e-05
0.00102518
-5.10456e-05
0.00108118
-5.60065e-05
0.00114147
-6.02909e-05
0.0012058
-6.43262e-05
0.00127432
-6.852e-05
0.00134755
-7.32291e-05
0.00142589
-7.83427e-05
0.0015099
-8.40047e-05
0.00159978
-8.98837e-05
0.00169619
-9.64086e-05
0.00179922
-0.000103029
0.00190983
-0.000110612
0.00202791
-0.000118077
0.0021549
-0.000126991
0.00229034
-0.000135442
0.00243635
-0.000146013
0.00259206
-0.000155707
0.00276027
-0.000168208
0.00293991
-0.000179648
0.00313395
-0.000194033
0.00334226
-0.00020831
0.00356604
-0.000223783
0.00380937
-0.000243331
0.00406729
-0.000257921
0.00435449
-0.000287196
0.00465429
-0.000299802
0.00499982
-0.000345527
0.00537328
-0.00037346
0.00589804
-0.000524767
-0.000652381
0.0344265
0.023652
-0.0407868
0.0255886
0.0174852
0.018301
0.0107307
0.0134846
0.00624975
0.0104836
0.00370559
0.00855788
0.00235427
0.00723385
0.00162097
0.00626511
0.00118939
0.00552403
0.000911535
0.00493897
0.000720432
0.00446627
0.000582555
0.00407739
0.000479589
0.00375276
0.00040057
0.00347837
0.000338575
0.00324446
0.000288863
0.00304356
0.000248217
0.00286993
0.00021452
0.00271918
0.000186231
0.00258783
0.000162218
0.00247311
0.000141622
0.00237277
0.00012379
0.00228498
0.000108225
0.00220821
9.45392e-05
0.00214119
8.24316e-05
0.00208282
7.16621e-05
0.00203218
6.20409e-05
0.00198846
5.3416e-05
0.00195097
4.56634e-05
0.00191907
3.86811e-05
0.00189228
3.23371e-05
0.00186998
2.67488e-05
0.00185174
2.16906e-05
0.0018372
1.70673e-05
0.00182603
1.28514e-05
0.00181776
9.22086e-06
0.00181192
6.42822e-06
0.00180899
2.47333e-06
0.00180881
-1.84566e-06
0.0018082
1.19225e-06
0.00181172
-6.05735e-06
0.00181533
-5.40474e-06
0.00181994
-6.18482e-06
0.00182721
-1.07633e-05
0.00183427
-9.78347e-06
0.00184185
-1.00288e-05
0.00184998
-1.08492e-05
0.001858
-1.05068e-05
0.00186692
-1.18389e-05
0.00187642
-1.25352e-05
0.00188653
-1.32411e-05
0.00189726
-1.40205e-05
0.00190861
-1.47698e-05
0.00192055
-1.54869e-05
0.00193303
-1.61571e-05
0.00194605
-1.6813e-05
0.00195959
-1.7444e-05
0.00197365
-1.8069e-05
0.00198822
-1.8697e-05
0.00200332
-1.93423e-05
0.00201898
-2.00218e-05
0.00203524
-2.07567e-05
0.00205217
-2.15659e-05
0.00206984
-2.24697e-05
0.00208833
-2.34876e-05
0.00210777
-2.46412e-05
0.00212826
-2.59485e-05
0.00214995
-2.74272e-05
0.00217298
-2.90967e-05
0.00219753
-3.09704e-05
0.00222378
-3.30846e-05
0.00225192
-3.54526e-05
0.00228218
-3.80982e-05
0.0023148
-4.10487e-05
0.00235005
-4.43345e-05
0.00238821
-4.79946e-05
0.00242962
-5.20722e-05
0.00247466
-5.66289e-05
0.00252375
-6.17236e-05
0.00257738
-6.74337e-05
0.00263614
-7.389e-05
0.0027007
-8.11924e-05
0.0027718
-8.94253e-05
0.00285035
-9.88192e-05
0.00293756
-0.000109712
0.00303466
-0.000122201
0.00314284
-0.000136174
0.00326365
-0.000152048
0.00339959
-0.000171099
0.00355365
-0.00019406
0.00372779
-0.000219653
0.00392169
-0.000244946
0.00413341
-0.000267733
0.00436099
-0.000287867
0.00460388
-0.000307217
0.00486291
-0.000327553
0.00513985
-0.000350163
0.00543625
-0.000374744
0.00575388
-0.000401635
0.00609386
-0.000429866
0.00645816
-0.000460707
0.00684776
-0.000492632
0.00726538
-0.000528224
0.00771174
-0.00056444
0.00819072
-0.000605966
0.00870252
-0.000647243
0.00925268
-0.000696174
0.00984061
-0.000743641
0.0104738
-0.000801401
0.011151
-0.000856871
0.0118808
-0.00092382
0.0126639
-0.000991394
0.0135047
-0.00106457
0.0144162
-0.00115484
0.015382
-0.00122376
0.0164546
-0.00135977
0.0175651
-0.0014103
0.018848
-0.00162839
0.0201785
-0.00170396
0.0219801
-0.00232638
-0.00257459
0.0437882
0.0244195
-0.0445558
0.0389292
0.0223442
0.032309
0.0173509
0.0261539
0.0124049
0.0212628
0.00859666
0.0176414
0.00597572
0.014982
0.00428034
0.0129872
0.00318418
0.0114465
0.00245227
0.0102246
0.00194231
0.0092347
0.00157242
0.00841901
0.00129528
0.00773748
0.0010821
0.00716157
0.000914481
0.00667033
0.000780103
0.00624813
0.000670419
0.00588307
0.000579583
0.00556586
0.000503441
0.00528917
0.000438902
0.00504716
0.00038364
0.00483506
0.000335887
0.004649
0.000294288
0.00448575
0.000257789
0.00434261
0.000225564
0.00421732
0.000196958
0.00410791
0.000171449
0.00401271
0.000148618
0.00393025
0.000128123
0.00385925
0.000109683
0.00379848
9.30993e-05
0.00374703
7.82006e-05
0.00370401
6.47175e-05
0.00366854
5.2533e-05
0.00363995
4.14422e-05
0.00361752
3.16459e-05
0.00360047
2.34868e-05
0.00358873
1.42086e-05
0.00358119
5.69937e-06
0.00357652
5.85383e-06
0.00357724
-6.77351e-06
0.00357952
-7.68653e-06
0.00358485
-1.15137e-05
0.00359326
-1.91774e-05
0.00360271
-1.92303e-05
0.003614
-2.13152e-05
0.00362662
-2.34679e-05
0.00363955
-2.34433e-05
0.00365399
-2.62805e-05
0.00366976
-2.83025e-05
0.00368686
-3.03396e-05
0.00370532
-3.24814e-05
0.00372511
-3.45557e-05
0.00374615
-3.65336e-05
0.00376841
-3.84119e-05
0.00379182
-4.02289e-05
0.00381637
-4.19938e-05
0.00384204
-4.37364e-05
0.00386883
-4.54882e-05
0.00389678
-4.72895e-05
0.00392594
-4.91844e-05
0.00395641
-5.1224e-05
0.0039883
-5.34567e-05
0.00402176
-5.59325e-05
0.00405698
-5.87012e-05
0.00409415
-6.18145e-05
0.00413352
-6.5318e-05
0.00417535
-6.92559e-05
0.00421992
-7.36699e-05
0.00426757
-7.86185e-05
0.00431864
-8.41563e-05
0.00437352
-9.03315e-05
0.00443263
-9.72031e-05
0.00449641
-0.000104837
0.00456539
-0.000113313
0.00464012
-0.000122725
0.00472124
-0.000133186
0.00480946
-0.000144848
0.00490559
-0.000157859
0.00501058
-0.000172426
0.00512556
-0.000188865
0.00525179
-0.000207424
0.00539071
-0.000228349
0.00554413
-0.000252233
0.00571427
-0.00027986
0.00590353
-0.000311452
0.00611424
-0.000346886
0.00634952
-0.000387332
0.00661408
-0.000435654
0.00691308
-0.000493063
0.00724953
-0.000556105
0.00762254
-0.000617953
0.00802866
-0.000673857
0.00846472
-0.000723923
0.00893013
-0.000772625
0.00942661
-0.000824037
0.00995739
-0.000880945
0.0105254
-0.000942708
0.0111337
-0.00100995
0.0117845
-0.00108073
0.0124814
-0.00115762
0.0132265
-0.00123765
0.0140243
-0.00132607
0.0148768
-0.00141689
0.0157904
-0.00151966
0.0167664
-0.00162321
0.0178141
-0.00174389
0.0189333
-0.00186284
0.0201369
-0.00200494
0.0214233
-0.0021433
0.0228074
-0.00230795
0.024291
-0.00247497
0.0258815
-0.00265504
0.0276029
-0.00287623
0.0294234
-0.00304434
0.031441
-0.00337735
0.0335218
-0.00349109
0.0359165
-0.00402306
0.0383647
-0.00415221
0.0415589
-0.00552059
-0.00577947
0.0490127
0.0232198
-0.047813
0.047728
0.0236289
0.0437953
0.0212835
0.0385957
0.0176045
0.0333347
0.0138577
0.0286805
0.0106299
0.0248414
0.0081194
0.0217543
0.00627128
0.0192742
0.00493245
0.0172624
0.00395411
0.0156099
0.00322489
0.0142358
0.00266936
0.0130806
0.00223729
0.0121002
0.00189491
0.0112613
0.00161899
0.0105386
0.00139316
0.0099123
0.00120586
0.00936706
0.00104868
0.00889059
0.000915375
0.00847299
0.000801233
0.00810623
0.000702644
0.0077837
0.000616826
0.00749989
0.000541599
0.0072502
0.000475255
0.00703072
0.00041643
0.00683814
0.000364033
0.00666957
0.000317186
0.00652252
0.000275169
0.00639481
0.000237397
0.00628451
0.000203402
0.00618987
0.000172844
0.00610934
0.000145241
0.00604162
0.000120256
0.0059854
9.76609e-05
0.00593948
7.75701e-05
0.00590314
5.98188e-05
0.00587559
4.17667e-05
0.00585507
2.62161e-05
0.00584167
1.92548e-05
0.00583417
7.25028e-07
0.00583123
-4.74611e-06
0.00583353
-1.38172e-05
0.0058404
-2.6046e-05
0.00584982
-2.86474e-05
0.00586304
-3.45417e-05
0.00587869
-3.91093e-05
0.00589556
-4.03162e-05
0.00591495
-4.56686e-05
0.00593667
-5.0027e-05
0.0059608
-5.44715e-05
0.0059873
-5.89738e-05
0.00601608
-6.33406e-05
0.00604709
-6.75402e-05
0.00608021
-7.1536e-05
0.00611539
-7.54043e-05
0.00615255
-7.91532e-05
0.00619167
-8.2855e-05
0.00623275
-8.65778e-05
0.00627587
-9.04031e-05
0.0063211
-9.44175e-05
0.0063686
-9.87213e-05
0.00641855
-0.000103408
0.0064712
-0.000108578
0.00652682
-0.000114325
0.00658575
-0.00012075
0.00664838
-0.000127942
0.00671511
-0.000135985
0.0067864
-0.000144965
0.00686277
-0.000154982
0.00694476
-0.000166154
0.007033
-0.000178565
0.00712813
-0.000192333
0.00723087
-0.000207584
0.00734203
-0.000224471
0.00746249
-0.00024318
0.00759323
-0.000263933
0.0077354
-0.000287018
0.00789028
-0.000312733
0.00805934
-0.000341488
0.00824436
-0.000373884
0.00844734
-0.000410406
0.00867057
-0.000451579
0.0089169
-0.000498563
0.00918984
-0.000552798
0.00949309
-0.000614699
0.00983047
-0.000684269
0.0102071
-0.000763913
0.01063
-0.000858644
0.0111069
-0.000969902
0.0116415
-0.0010907
0.0122321
-0.00120861
0.0128738
-0.00131554
0.0135622
-0.00141232
0.0142969
-0.00150729
0.0150806
-0.00160777
0.0159182
-0.00171858
0.0168141
-0.00183859
0.017773
-0.00196883
0.0187983
-0.00210603
0.0198952
-0.00225454
0.0210671
-0.00240949
0.0223207
-0.0025797
0.0236591
-0.00275531
0.0250919
-0.00295242
0.0266211
-0.00315244
0.0282603
-0.00338308
0.0300098
-0.00361237
0.031888
-0.00388312
0.0338934
-0.00414871
0.0360472
-0.0044617
0.0383525
-0.00478026
0.040819
-0.00512156
0.043484
-0.00554128
0.0462955
-0.00585576
0.0494056
-0.00648754
0.0525993
-0.00668479
0.0562652
-0.00768895
0.0599699
-0.00785683
0.0646802
-0.010231
-0.0103835
0.0525085
0.0218383
-0.051127
0.0531081
0.0230294
0.0517784
0.0226132
0.0486824
0.0207006
0.0445632
0.0179769
0.04013
0.0150631
0.0358951
0.0123543
0.0321094
0.010057
0.0288387
0.00820315
0.0260537
0.00673912
0.0236903
0.00558821
0.0216806
0.00467907
0.019964
0.00395396
0.0184899
0.00336898
0.0172175
0.0028914
0.0161137
0.00249691
0.0151521
0.00216746
0.0143112
0.00188959
0.0135735
0.00165306
0.0129248
0.00145
0.0123531
0.0012743
0.0118488
0.00112119
0.0114035
0.000986902
0.0110103
0.00086844
0.0106633
0.000763407
0.0103575
0.000669866
0.0100884
0.000586251
0.00985229
0.000511272
0.00964581
0.000443873
0.00946603
0.000383181
0.00931037
0.000328505
0.00917649
0.000279126
0.00906226
0.000234485
0.00896579
0.000194128
0.00888544
0.000157921
0.00881974
0.00012552
0.00876675
9.47512e-05
0.00872495
6.80162e-05
0.00869546
4.8749e-05
0.00867498
2.12006e-05
0.00866157
8.66682e-06
0.00865695
-9.19316e-06
0.00865698
-2.60785e-05
0.00866413
-3.57987e-05
0.00867641
-4.68201e-05
0.00869305
-5.57495e-05
0.00871261
-5.98744e-05
0.00873599
-6.90502e-05
0.00876321
-7.72457e-05
0.00879426
-8.55243e-05
0.00882908
-9.37907e-05
0.00886753
-0.000101792
0.00890947
-0.00010948
0.00895476
-0.00011683
0.00900328
-0.000123921
0.00905494
-0.000130813
0.0091097
-0.000137613
0.00916756
-0.000144444
0.00922861
-0.00015145
0.00929298
-0.000158783
0.00936086
-0.00016661
0.00943255
-0.000175096
0.00950838
-0.000184408
0.00958877
-0.00019471
0.00967419
-0.00020617
0.00976519
-0.00021894
0.00986237
-0.000233165
0.0099664
-0.000248998
0.010078
-0.000266601
0.010198
-0.00028615
0.0103273
-0.000307807
0.0104667
-0.000331762
0.0106173
-0.000358236
0.0107803
-0.000387482
0.010957
-0.000419813
0.0111487
-0.000455612
0.011357
-0.00049536
0.0115838
-0.000539565
0.0118313
-0.000588938
0.0121019
-0.000644474
0.0123985
-0.000706995
0.0127243
-0.000777457
0.0130836
-0.000857825
0.0134812
-0.000950405
0.0139224
-0.00105591
0.0144128
-0.00117468
0.0149598
-0.00131089
0.0155733
-0.00147218
0.0162632
-0.00165978
0.0170341
-0.00186161
0.0178834
-0.0020579
0.0188044
-0.00223654
0.0197917
-0.00239963
0.0208451
-0.0025607
0.0219686
-0.00273126
0.0231688
-0.00291874
0.0244516
-0.00312134
0.0258233
-0.00334062
0.0272889
-0.00357158
0.0288553
-0.00382096
0.030527
-0.00408122
0.0323134
-0.00436604
0.0342183
-0.00466023
0.0362547
-0.00498885
0.0384254
-0.0053231
0.0407485
-0.00570618
0.0432243
-0.00608819
0.0458774
-0.0065362
0.0487056
-0.00697689
0.0517366
-0.0074927
0.0549752
-0.00801888
0.0584313
-0.00857766
0.0621592
-0.00926915
0.0660787
-0.00977524
0.0704062
-0.0108151
0.0748323
-0.0111109
0.0798917
-0.0127483
0.084971
-0.0129361
0.0912706
-0.0165305
-0.0164691
0.0556672
0.0207935
-0.0546224
0.0567857
0.0219109
0.0570176
0.0223813
0.055895
0.0218231
0.0535246
0.0203473
0.0502922
0.0182955
0.0466326
0.0160139
0.042914
0.0137756
0.0393715
0.0117457
0.0361249
0.00998573
0.0332153
0.00849781
0.0306391
0.00725521
0.0283715
0.00622155
0.0263798
0.00536068
0.0246305
0.00464067
0.0230925
0.00403491
0.0217381
0.00352186
0.0205434
0.00308437
0.0194876
0.00270877
0.0185535
0.00238418
0.0177259
0.00210189
0.0169921
0.00185495
0.0163413
0.00163771
0.0157641
0.00144566
0.0152524
0.00127509
0.0147993
0.00112298
0.0143987
0.000986885
0.0140452
0.000864741
0.0137342
0.00075486
0.0134616
0.000655828
0.0132236
0.000566487
0.013017
0.000485753
0.0128387
0.000412706
0.0126863
0.000346594
0.0125572
0.000286959
0.0124496
0.000233152
0.0123609
0.000183408
0.0122894
0.000139594
0.0122345
0.000103648
0.0121912
6.44441e-05
0.0121629
3.69896e-05
0.012145
8.72881e-06
0.0121352
-1.63289e-05
0.0121353
-3.58737e-05
0.0121436
-5.51324e-05
0.0121589
-7.10068e-05
0.0121792
-8.01965e-05
0.0122055
-9.53233e-05
0.0122375
-0.000109292
0.0122754
-0.000123368
0.0123188
-0.000137245
0.0123677
-0.000150678
0.0124218
-0.000163576
0.0124809
-0.000175912
0.0125448
-0.000187805
0.0126133
-0.000199351
0.0126864
-0.00021073
0.0127641
-0.000222144
0.0128465
-0.000233821
0.0129337
-0.000245999
0.013026
-0.000258946
0.0131239
-0.000272917
0.0132276
-0.000288179
0.0133379
-0.000304988
0.0134553
-0.000323605
0.0135807
-0.000344266
0.0137147
-0.000367203
0.0138584
-0.000392652
0.0140126
-0.00042086
0.0141786
-0.0004521
0.0143574
-0.00048662
0.0145503
-0.000524714
0.0147588
-0.000566721
0.0149844
-0.000613036
0.0152287
-0.000664139
0.0154937
-0.000720626
0.0157816
-0.000783234
0.0160948
-0.000852762
0.0164362
-0.000930315
0.0168091
-0.00101741
0.0172174
-0.00111533
0.0176656
-0.00122563
0.0181591
-0.00135133
0.0187046
-0.00149585
0.019309
-0.00166031
0.0199799
-0.00184567
0.0207275
-0.00205843
0.0215646
-0.00230929
0.0225034
-0.00259862
0.0235495
-0.00290766
0.0246991
-0.00320749
0.0259439
-0.00348138
0.0272775
-0.00373321
0.0286999
-0.0039831
0.0302163
-0.00424764
0.0318351
-0.00453752
0.0335636
-0.00484993
0.0354104
-0.0051874
0.0373814
-0.0055425
0.0394856
-0.00592517
0.0417285
-0.00632416
0.0441221
-0.00675961
0.0466708
-0.00720901
0.0493913
-0.00770926
0.0522861
-0.00821795
0.0553786
-0.00879865
0.0586682
-0.00937777
0.0621858
-0.0100538
0.0659278
-0.0107189
0.0699281
-0.011493
0.0741933
-0.0122841
0.0787307
-0.0131151
0.0836148
-0.0141532
0.0887301
-0.0148906
0.0943636
-0.0164486
0.100103
-0.0168503
0.10663
-0.0192757
0.113152
-0.0194579
0.121073
-0.0244514
-0.0240698
0.0590652
0.0200418
-0.0583135
0.0600796
0.0208965
0.0608812
0.0215797
0.0609654
0.021739
0.0600952
0.0212175
0.0583112
0.0200795
0.0558083
0.0185167
0.0528532
0.0167307
0.0496959
0.014903
0.046527
0.0131546
0.0434735
0.0115513
0.0406093
0.0101193
0.0379702
0.00886072
0.0355665
0.00776435
0.0333937
0.00681343
0.031439
0.00598963
0.0296855
0.00527533
0.0281153
0.00465461
0.0267105
0.00411357
0.0254544
0.00364025
0.0243317
0.00322456
0.0233287
0.00285799
0.0224329
0.00253347
0.0216335
0.0022451
0.0209207
0.00198791
0.0202859
0.0017578
0.0197214
0.00155131
0.0192206
0.00136556
0.0187774
0.00119811
0.0183863
0.00104689
0.0180426
0.000910186
0.0177419
0.000786437
0.0174803
0.0006743
0.0172543
0.000572642
0.0170606
0.000480609
0.0168965
0.000397284
0.0167589
0.000321036
0.0166454
0.000253009
0.0165553
0.000193778
0.016484
0.000135797
0.0164296
9.13616e-05
0.0163926
4.57012e-05
0.0163685
7.74697e-06
0.016357
-2.43367e-05
0.0163582
-5.63435e-05
0.016369
-8.18354e-05
0.0163883
-9.94596e-05
0.0164162
-0.000123257
0.0164527
-0.000145784
0.0164976
-0.000168187
0.0165504
-0.000190134
0.0166111
-0.000211301
0.0166791
-0.000231603
0.0167542
-0.000251029
0.0168361
-0.000269731
0.0169247
-0.000287877
0.0170197
-0.000305733
0.0171211
-0.000323597
0.0172291
-0.000341814
0.0173439
-0.000360741
0.0174657
-0.000380772
0.017595
-0.000402291
0.0177326
-0.000425688
0.0178789
-0.000451349
0.018035
-0.000479659
0.0182017
-0.000510967
0.0183801
-0.000545616
0.0185714
-0.000583956
0.0187769
-0.000626348
0.018998
-0.000673178
0.0192362
-0.000724813
0.0194931
-0.00078168
0.0197707
-0.000844272
0.0200708
-0.00091316
0.0203957
-0.00098904
0.0207478
-0.00107278
0.02113
-0.00116544
0.0215455
-0.00126819
0.0219978
-0.00138264
0.0224914
-0.00151097
0.0230311
-0.00165505
0.0236227
-0.00181722
0.0242732
-0.00200183
0.024991
-0.00221365
0.025785
-0.00245439
0.0266653
-0.00272589
0.0276444
-0.00303755
0.0287386
-0.00340349
0.0299625
-0.00382253
0.0313225
-0.00426763
0.0328139
-0.00469895
0.034427
-0.00509447
0.0361541
-0.00546028
0.0379954
-0.00582442
0.0399571
-0.00620935
0.0420495
-0.00662988
0.0442814
-0.00708185
0.0466631
-0.00756918
0.0492018
-0.00808114
0.0519086
-0.00863203
0.0547898
-0.00920531
0.0578597
-0.00982955
0.061123
-0.0104723
0.0645997
-0.0111859
0.0682916
-0.0119099
0.0722272
-0.0127342
0.0764037
-0.0135542
0.0808585
-0.0145087
0.0855855
-0.0154459
0.0906237
-0.0165311
0.0959815
-0.017642
0.10166
-0.0187937
0.107756
-0.0202494
0.114115
-0.0212488
0.121091
-0.0234246
0.128175
-0.023935
0.136174
-0.0272739
0.144147
-0.0274315
0.153631
-0.0339355
-0.0331313
0.0628132
0.0194484
-0.0622198
0.0636035
0.0201062
0.0644352
0.0207479
0.0650007
0.0211735
0.0650271
0.0211911
0.0643769
0.0207298
0.0630497
0.0198439
0.0611405
0.0186398
0.0588057
0.0172378
0.0562062
0.0157542
0.0534821
0.0142754
0.0507431
0.0128584
0.0480681
0.0115357
0.0455104
0.0103221
0.0431026
0.00922123
0.040862
0.00823018
0.038795
0.00734233
0.0369004
0.00654925
0.0351721
0.00584184
0.0336014
0.00521099
0.0321779
0.00464804
0.0308909
0.00414502
0.0297296
0.00369478
0.0286837
0.003291
0.0277435
0.00292813
0.0268999
0.0026014
0.0261445
0.00230665
0.0254698
0.00204028
0.0248687
0.00179919
0.0243349
0.00158071
0.0238625
0.00138254
0.0234464
0.00120262
0.0230815
0.00103915
0.0227636
0.00089056
0.0224886
0.00075556
0.022253
0.0006329
0.0220531
0.000520998
0.0218859
0.000420214
0.0217492
0.000330422
0.0216383
0.00024675
0.0215538
0.000175818
0.0214892
0.000110266
0.0214443
5.27186e-05
0.0214178
2.08115e-06
0.0214087
-4.72022e-05
0.0214124
-8.55591e-05
0.0214289
-0.000115888
0.0214576
-0.000152026
0.0214985
-0.000186617
0.0215509
-0.000220635
0.0216146
-0.000253796
0.021689
-0.00028569
0.0217736
-0.000316234
0.021868
-0.000345438
0.0219718
-0.000373519
0.0220846
-0.00040072
0.0222063
-0.000427423
0.0223368
-0.000454058
0.0224761
-0.000481113
0.0226244
-0.000509098
0.0227822
-0.000538576
0.02295
-0.000570091
0.0231286
-0.000604204
0.0233187
-0.000641461
0.0235214
-0.00068241
0.023738
-0.000727554
0.0239698
-0.000777375
0.0242182
-0.000832374
0.0244849
-0.000893051
0.0247717
-0.000959948
0.0250804
-0.00103358
0.0254133
-0.00111453
0.0257725
-0.00120349
0.0261606
-0.00130124
0.0265803
-0.00140876
0.0270347
-0.00152722
0.0275274
-0.00165811
0.0280622
-0.00180303
0.0286438
-0.00196424
0.0292776
-0.00214469
0.0299695
-0.00234698
0.0307267
-0.00257444
0.0315579
-0.00283301
0.0324733
-0.00312908
0.033484
-0.00346511
0.0346023
-0.00384415
0.0358437
-0.00427897
0.0372277
-0.0047874
0.0387712
-0.00536612
0.0404819
-0.00597832
0.0423545
-0.00657152
0.0443777
-0.00711769
0.0465427
-0.00762526
0.0488497
-0.00813142
0.0513056
-0.0086652
0.0539222
-0.00924653
0.0567098
-0.0098694
0.0596805
-0.0105399
0.0628422
-0.0112428
0.0662083
-0.0119982
0.0697852
-0.0127821
0.0735897
-0.0136341
0.0776256
-0.0145081
0.0819163
-0.0154766
0.0864614
-0.016455
0.0912941
-0.0175669
0.0964082
-0.0186684
0.101847
-0.0199475
0.107601
-0.0211995
0.113711
-0.0226416
0.120189
-0.0241199
0.127026
-0.0256305
0.13434
-0.0275632
0.141936
-0.0288448
0.150224
-0.0317134
0.158624
-0.0323344
0.168015
-0.0366651
0.17737
-0.0367865
0.188278
-0.0448437
-0.0435111
0.0668787
0.0189381
-0.0663684
0.0675007
0.0194842
0.0682024
0.0200462
0.0688458
0.0205301
0.0692469
0.02079
0.0692496
0.0207271
0.0687681
0.0203254
0.0677827
0.0196252
0.0663396
0.0186809
0.0645259
0.0175679
0.0624403
0.0163609
0.0601777
0.015121
0.0578205
0.0138929
0.0554368
0.0127058
0.0530805
0.0115775
0.0507925
0.0105182
0.0486023
0.00953249
0.0465298
0.00862177
0.0445868
0.00778484
0.042779
0.00701884
0.0411072
0.00631976
0.0395693
0.00568296
0.0381606
0.00510353
0.036875
0.00457655
0.0357058
0.0040973
0.0346459
0.00366135
0.033688
0.00326458
0.0328249
0.00290332
0.0320499
0.00257421
0.0313564
0.00227426
0.0307381
0.00200077
0.0301894
0.00175132
0.0297049
0.00152372
0.0292794
0.00131602
0.0289084
0.00112654
0.0285876
0.000953687
0.0283128
0.000795809
0.0280805
0.000652594
0.0278875
0.000523388
0.0277294
0.000404792
0.0276042
0.000301094
0.027508
0.000206406
0.0274372
0.00012351
0.0273916
4.7683e-05
0.0273694
-2.495e-05
0.0273649
-8.11031e-05
0.0273776
-0.000128543
0.0274073
-0.000181765
0.0274536
-0.000232875
0.0275156
-0.000282676
0.0275929
-0.000331025
0.0276846
-0.000377394
0.02779
-0.000421723
0.0279087
-0.000464069
0.0280399
-0.000504719
0.0281832
-0.000544022
0.0283383
-0.000582498
0.0285049
-0.000620733
0.0286832
-0.000659402
0.0288733
-0.000699205
0.0290757
-0.000740909
0.0292908
-0.00078527
0.0295197
-0.000833065
0.0297633
-0.000885048
0.0300228
-0.000941973
0.0302998
-0.00100454
0.0305959
-0.00107342
0.0309128
-0.00114929
0.0312526
-0.00123286
0.0316175
-0.00132483
0.0320098
-0.00142591
0.0324322
-0.00153689
0.0328874
-0.00165869
0.0333785
-0.00179236
0.0339089
-0.00193917
0.0344824
-0.00210072
0.0351032
-0.00227893
0.0357762
-0.00247598
0.0365068
-0.00269483
0.0373014
-0.00293938
0.0381676
-0.00321311
0.0391136
-0.0035205
0.0401499
-0.00386932
0.0412887
-0.00426786
0.0425431
-0.00471952
0.0439278
-0.00522883
0.0454611
-0.00581228
0.0471654
-0.00649171
0.0490604
-0.00726114
0.051155
-0.00807288
0.0534437
-0.00886019
0.0559142
-0.0095882
0.0585563
-0.0102674
0.0613699
-0.0109451
0.0643622
-0.0116574
0.0675463
-0.0124306
0.0709331
-0.0132563
0.0745369
-0.0141437
0.0783657
-0.0150716
0.0824351
-0.0160676
0.0867504
-0.0170975
0.0913315
-0.0182153
0.0961795
-0.0193561
0.101321
-0.0206183
0.106752
-0.0218856
0.112509
-0.0233244
0.118582
-0.0247408
0.125017
-0.0263831
0.131801
-0.0279832
0.138976
-0.0298165
0.146553
-0.0316976
0.154514
-0.033591
0.162991
-0.0360403
0.171761
-0.0376143
0.181259
-0.0412121
0.190875
-0.0419502
0.201497
-0.0472874
0.212084
-0.0473734
0.22419
-0.0569493
-0.0549808
0.0712401
0.0184823
-0.0707844
0.0717589
0.0189654
0.0723378
0.0194673
0.0729213
0.0199467
0.07341
0.0203013
0.073693
0.0204441
0.0736791
0.0203393
0.073312
0.0199923
0.0725702
0.0194227
0.0714766
0.0186615
0.0700788
0.0177588
0.0684348
0.016765
0.0666045
0.0157232
0.0646439
0.0146663
0.0626038
0.0136176
0.060529
0.012593
0.0584578
0.0116036
0.0564225
0.0106571
0.0544486
0.00975866
0.0525561
0.00891139
0.0507589
0.0081169
0.0490665
0.00737538
0.0474841
0.00668596
0.0460137
0.00604693
0.044655
0.00545605
0.0434056
0.00491068
0.0422622
0.00440804
0.0412202
0.00394527
0.0402749
0.00351956
0.0394209
0.0031282
0.038653
0.00276865
0.0379659
0.00243847
0.0373543
0.00213536
0.0368131
0.00185718
0.0363376
0.00160202
0.0359232
0.00136806
0.0355655
0.00115357
0.0352604
0.0009577
0.0350043
0.000779454
0.0347926
0.000616494
0.0346228
0.00047091
0.0344901
0.000339104
0.0343912
0.000222409
0.0343234
0.000115475
0.0342878
1.05931e-05
0.034276
-6.9285e-05
0.0342862
-0.000138713
0.0343191
-0.000214681
0.0343739
-0.000287637
0.0344496
-0.000358353
0.0345453
-0.000426757
0.0346601
-0.000492216
0.0347931
-0.0005547
0.0349433
-0.000614324
0.0351101
-0.000671469
0.0352927
-0.000726599
0.0354906
-0.000780398
0.0357035
-0.000833647
0.0359313
-0.000887232
0.0361742
-0.000942087
0.0364325
-0.000999238
0.036707
-0.0010597
0.0369984
-0.00112451
0.037308
-0.0011947
0.0376374
-0.00127128
0.037988
-0.00135519
0.0383619
-0.00144736
0.0387614
-0.0015487
0.0391886
-0.00166014
0.0396464
-0.00178263
0.0401376
-0.0019171
0.0406653
-0.0020646
0.041233
-0.0022263
0.0418442
-0.00240357
0.042503
-0.00259805
0.0432141
-0.00281179
0.0439824
-0.00304725
0.0448137
-0.00330722
0.0457144
-0.0035955
0.046692
-0.00391707
0.0477553
-0.00427639
0.0489141
-0.00467926
0.0501803
-0.00513551
0.051568
-0.00565556
0.0530924
-0.00624396
0.0547705
-0.00690692
0.056623
-0.00766479
0.058675
-0.00854368
0.0609485
-0.00953466
0.0634542
-0.0105785
0.0661869
-0.011593
0.069134
-0.0125353
0.0722838
-0.0134171
0.0756356
-0.0142968
0.0791958
-0.0152176
0.0829787
-0.0162135
0.0869953
-0.0172729
0.0912614
-0.0184098
0.0957844
-0.0195946
0.100582
-0.0208654
0.105658
-0.0221735
0.111035
-0.0235918
0.116709
-0.0250301
0.12271
-0.0266196
0.129028
-0.0282033
0.135703
-0.0299997
0.142717
-0.0317548
0.150121
-0.0337868
0.157894
-0.0357558
0.166076
-0.0379992
0.174681
-0.0403021
0.183676
-0.042586
0.193201
-0.0455651
0.20302
-0.0474334
0.213558
-0.0517505
0.224228
-0.0526197
0.235854
-0.0589139
0.247456
-0.058975
0.260479
-0.0699727
-0.067268
0.0759068
0.0180684
-0.0754928
0.0763606
0.0185116
0.076854
0.0189739
0.0773614
0.0194393
0.0778318
0.0198309
0.0781977
0.0200782
0.0783915
0.0201456
0.0783591
0.0200247
0.0780608
0.019721
0.0774831
0.0192392
0.0766385
0.0186034
0.0755543
0.0178492
0.0742647
0.0170128
0.072806
0.0161251
0.0712135
0.0152101
0.0695212
0.0142853
0.0677614
0.0133635
0.0659641
0.0124544
0.0641574
0.0115654
0.0623662
0.0107026
0.0606123
0.00987086
0.0589136
0.00907406
0.0572845
0.00831501
0.0557359
0.00759556
0.0542753
0.00691665
0.0529075
0.00627848
0.0516349
0.00568058
0.0504582
0.00512199
0.0493764
0.00460139
0.0483874
0.00411718
0.0474884
0.00366764
0.046676
0.00325087
0.0459464
0.00286502
0.0452954
0.00250817
0.0447189
0.00217849
0.0442128
0.00187418
0.0437728
0.00159354
0.0433951
0.00133547
0.0430757
0.00109876
0.0428105
0.000881784
0.0425959
0.000685462
0.0424276
0.000507392
0.0423017
0.000348277
0.0422154
0.000201832
0.0421672
5.87868e-05
0.0421528
-5.48998e-05
0.0421654
-0.000151304
0.0422071
-0.000256347
0.0422768
-0.000357355
0.0423735
-0.00045506
0.042496
-0.000549302
0.0426432
-0.000639365
0.0428137
-0.000725242
0.0430065
-0.000807127
0.0432206
-0.000885487
0.0434549
-0.000960931
0.0437088
-0.00103431
0.0439818
-0.00110663
0.0442736
-0.00117902
0.0445842
-0.00125269
0.0449139
-0.00132897
0.0452634
-0.00140918
0.0456336
-0.0014947
0.0460258
-0.00158687
0.0464415
-0.00168705
0.0468828
-0.00179648
0.0473519
-0.00191641
0.0478512
-0.00204805
0.0483837
-0.00219261
0.0489524
-0.00235134
0.0495608
-0.00252547
0.0502125
-0.00271632
0.0509116
-0.0029254
0.0516624
-0.00315444
0.0524699
-0.00340548
0.0533392
-0.00368107
0.0542762
-0.00398431
0.0552876
-0.00431865
0.0563809
-0.00468879
0.0575648
-0.0051009
0.058849
-0.00556057
0.0602447
-0.00607504
0.0617655
-0.00665627
0.063427
-0.00731709
0.0652464
-0.00806337
0.0672426
-0.00890311
0.0694383
-0.00986045
0.0718605
-0.0109659
0.0745333
-0.0122075
0.0774694
-0.0135146
0.0806648
-0.0147883
0.0841068
-0.0159774
0.0877828
-0.0170931
0.0916908
-0.0182049
0.0958361
-0.0193629
0.100233
-0.0206105
0.104892
-0.0219318
0.10983
-0.0233477
0.115053
-0.0248175
0.12058
-0.0263928
0.126413
-0.028006
0.132575
-0.0297539
0.139058
-0.0315135
0.145895
-0.033456
0.153065
-0.0353738
0.160613
-0.0375478
0.168511
-0.0396528
0.176811
-0.0420864
0.185485
-0.0444304
0.194572
-0.0470854
0.20408
-0.04981
0.21397
-0.0524768
0.224376
-0.0559707
0.235072
-0.0581294
0.246435
-0.0631131
0.25795
-0.0641348
0.270321
-0.0712852
0.28269
-0.0713435
0.296338