/*--------------------------------*- C++ -*----------------------------------*\
| =========                 |                                                 |
| \\      /  F ield         | OpenFOAM: The Open Source CFD Toolbox           |
|  \\    /   O peration     | Version:  2412                                  |
|   \\  /    A nd           | Website:  www.openfoam.com                      |
|    \\/     M anipulation  |                                                 |
\*---------------------------------------------------------------------------*/
FoamFile
{
    version     2.0;
    format      ascii;
    arch        "LSB;label=32;scalar=64";
    class       volScalarField;
    location    "1.595";
    object      p;
}
// * * * * * * * * * * * * * * * * * * * * * * * * * * * * * * * * * * * * * //

dimensions      [0 2 -2 0 0 0 0];

internalField   nonuniform List<scalar> 
12600
(
-0.300082
-155.217
-205.262
-201.924
-189.363
-177.693
-167.463
-158.31
-150.017
-142.421
-135.392
-128.834
-122.672
-116.848
-111.317
-106.04
-100.986
-96.1287
-91.4462
-86.9197
-82.533
-78.2723
-74.1253
-70.0813
-66.1309
-62.2658
-58.4784
-54.762
-51.1107
-47.5189
-43.9817
-40.4945
-37.0532
-33.6538
-30.2928
-26.9669
-23.673
-20.4082
-17.1699
-13.9555
-10.7626
-7.58897
-4.4325
-1.29117
1.83692
4.95358
8.06054
11.1594
14.2519
17.3393
20.4232
23.5049
26.5858
29.6671
32.75
35.8358
38.9255
42.0204
45.1211
48.229
51.3443
54.4686
57.6013
60.7442
63.8959
67.0585
70.2293
73.4112
76.5996
79.7987
83.0012
86.2132
89.4237
92.6419
95.8513
99.0662
102.262
105.461
108.627
111.793
114.91
118.024
121.065
124.104
127.043
129.982
132.786
135.6
138.236
140.901
143.339
145.83
148.052
150.335
152.345
154.427
156.071
158.351
158.956
161.929
162.182
163.303
167.9
161.368
172.635
164.532
171.596
169.23
171.172
177.382
161.224
187.061
167.449
165.958
203.775
137.507
184.917
226.763
132.222
192.742
-24.4478
-124.237
-171.673
-181.231
-177.932
-171.111
-163.291
-155.459
-147.973
-140.907
-134.246
-127.954
-121.99
-116.317
-110.901
-105.715
-100.732
-95.9325
-91.2962
-86.8071
-82.451
-78.2153
-74.0889
-70.0619
-66.1256
-62.2721
-58.4943
-54.7859
-51.1412
-47.5548
-44.022
-40.5384
-37.0999
-33.7028
-30.3437
-27.0191
-23.7263
-20.4623
-17.2244
-14.0102
-10.8174
-7.64368
-4.48698
-1.34531
1.7832
4.90038
8.00791
11.1074
14.2005
17.2887
20.3733
23.4558
26.5374
29.6195
32.7032
35.7898
38.8803
41.9759
45.0774
48.1861
51.3022
54.4272
57.5607
60.7043
63.8567
67.0201
70.1916
73.3743
76.5634
79.7632
82.9664
86.1791
89.3903
92.6093
95.8195
99.0351
102.232
105.431
108.598
111.765
114.882
117.997
121.04
124.079
127.019
129.959
132.764
135.579
138.216
140.882
143.32
145.813
148.036
150.319
152.33
154.414
156.057
158.341
158.945
161.916
162.181
163.281
167.908
161.357
172.62
164.54
171.579
169.234
171.143
177.414
161.204
187.028
167.526
165.845
203.834
137.613
184.637
226.859
132.378
192.608
-41.2497
-102.734
-145.53
-162.951
-166.215
-163.519
-158.314
-152.106
-145.622
-139.197
-132.969
-126.981
-121.237
-115.729
-110.439
-105.35
-100.444
-95.7042
-91.1164
-86.6664
-82.3421
-78.1323
-74.0272
-70.0178
-66.0959
-62.2544
-58.4865
-54.7864
-51.1484
-47.5677
-44.0395
-40.5597
-37.1243
-33.7298
-30.3726
-27.0497
-23.7581
-20.495
-17.2578
-14.0441
-10.8516
-7.678
-4.52131
-1.37953
1.7492
4.86665
7.97453
11.0745
14.168
17.2566
20.3417
23.4248
26.5069
29.5896
32.6739
35.7611
38.8521
41.9483
45.0504
48.1596
51.2763
54.4019
57.5359
60.6801
63.833
66.9969
70.1689
73.3521
76.5418
79.7421
82.9458
86.159
89.3707
92.5902
95.8009
99.017
102.214
105.414
108.582
111.749
114.867
117.982
121.025
124.065
127.005
129.946
132.752
135.567
138.205
140.872
143.31
145.804
148.028
150.312
152.323
154.408
156.05
158.337
158.939
161.91
162.18
163.269
167.912
161.348
172.611
164.546
171.569
169.237
171.129
177.431
161.19
187.011
167.567
165.79
203.871
137.668
184.498
226.924
132.46
192.538
-49.1358
-88.941
-124.373
-144.874
-153.043
-154.287
-151.929
-147.663
-142.469
-136.908
-131.268
-125.691
-120.244
-114.953
-109.828
-104.865
-100.058
-95.3962
-90.8707
-86.4712
-82.1878
-78.0116
-73.934
-69.9474
-66.0445
-62.2187
-58.464
-54.7748
-51.146
-47.5729
-44.0512
-40.5768
-37.1459
-33.755
-30.4009
-27.0805
-23.791
-20.5295
-17.2937
-14.081
-10.8892
-7.71622
-4.55991
-1.41836
1.71026
4.82773
7.93571
11.0358
14.1296
17.2186
20.3041
23.3875
26.4701
29.5532
32.638
35.7257
38.8172
41.914
45.0165
48.1263
51.2435
54.3696
57.5042
60.6489
63.8024
66.9668
70.1394
73.3231
76.5133
79.7142
82.9185
86.1323
89.3445
92.5646
95.7758
98.9925
102.19
105.391
108.559
111.727
114.845
117.961
121.005
124.046
126.987
129.928
132.734
135.551
138.189
140.857
143.296
145.79
148.015
150.299
152.311
154.397
156.038
158.329
158.929
161.901
162.178
163.252
167.919
161.337
172.601
164.552
171.555
169.239
171.108
177.457
161.169
186.991
167.623
165.698
203.93
137.725
184.274
227.027
132.557
192.412
-54.1473
-80.6419
-107.562
-127.22
-138.3
-143.015
-143.604
-141.604
-138.057
-133.661
-128.846
-123.857
-118.836
-113.859
-108.968
-104.184
-99.5152
-94.9621
-90.5226
-86.1919
-81.9642
-77.8333
-73.7929
-69.837
-65.9594
-62.1548
-58.4177
-54.7432
-51.1268
-47.5641
-44.051
-40.5839
-37.1591
-33.7733
-30.4235
-27.1067
-23.82
-20.561
-17.3271
-14.116
-10.9255
-7.75346
-4.59788
-1.45685
1.67142
4.7887
7.89663
10.9968
14.0907
17.1799
20.2657
23.3495
26.4325
29.516
32.6013
35.6895
38.7815
41.8788
44.9819
48.0923
51.21
54.3367
57.4719
60.6172
63.7712
66.9362
70.1094
73.2937
76.4845
79.686
82.8908
86.1053
89.3181
92.5388
95.7506
98.968
102.166
105.368
108.536
111.705
114.824
117.941
120.985
124.027
126.968
129.91
132.717
135.535
138.174
140.842
143.282
145.777
148.002
150.288
152.3
154.388
156.028
158.322
158.92
161.892
162.176
163.236
167.926
161.325
172.591
164.558
171.541
169.242
171.089
177.482
161.145
186.973
167.675
165.614
203.997
137.765
184.064
227.14
132.636
192.287
-57.3953
-75.5461
-95.1598
-112.031
-123.845
-130.731
-133.741
-133.94
-132.212
-129.228
-125.472
-121.273
-116.838
-112.302
-107.745
-103.215
-98.743
-94.3436
-90.0252
-85.7909
-81.6407
-77.5726
-73.5834
-69.6695
-65.8266
-62.0507
-58.3376
-54.6831
-51.0834
-47.5347
-44.0335
-40.5763
-37.1599
-33.7812
-30.4372
-27.1254
-23.8429
-20.5873
-17.3563
-14.1476
-10.959
-7.78853
-4.63419
-1.49414
1.6334
4.75014
7.8577
10.9577
14.0515
17.1407
20.2266
23.3106
26.3938
29.4777
32.5633
35.6519
38.7444
41.8422
44.9458
48.0567
51.175
54.3022
57.4379
60.5837
63.7384
66.9039
70.0777
73.2626
76.454
79.656
82.8615
86.0765
89.29
92.5113
95.7238
98.9418
102.141
105.343
108.512
111.682
114.801
117.919
120.964
124.006
126.949
129.891
132.699
135.517
138.157
140.826
143.267
145.763
147.989
150.275
152.289
154.377
156.017
158.314
158.91
161.883
162.173
163.218
167.934
161.311
172.581
164.565
171.526
169.244
171.069
177.51
161.118
186.958
167.727
165.518
204.072
137.786
183.823
227.281
132.697
192.127
-58.9759
-71.9921
-86.3232
-100.015
-111.081
-118.762
-123.282
-125.207
-125.138
-123.604
-121.042
-117.79
-114.097
-110.136
-106.026
-101.845
-97.6449
-93.4603
-89.3122
-85.2138
-81.1728
-77.1929
-73.2755
-69.4203
-65.6257
-61.8897
-58.2097
-54.5828
-51.0062
-47.4769
-43.9919
-40.5484
-37.1435
-33.7745
-30.4388
-27.1338
-23.8572
-20.6065
-17.3796
-14.1743
-10.9886
-7.8205
-4.6681
-1.52962
1.59666
4.71241
7.81922
10.9186
14.0121
17.1011
20.1868
23.2708
26.3542
29.4383
32.5241
35.6131
38.7059
41.8041
44.9081
48.0195
51.1383
54.266
57.4022
60.5486
63.7038
66.87
70.0443
73.2298
76.4218
79.6245
82.8305
86.0462
89.2603
92.4823
95.6954
98.9141
102.114
105.317
108.487
111.657
114.777
117.896
120.941
123.985
126.928
129.871
132.68
135.499
138.14
140.81
143.252
145.748
147.975
150.262
152.276
154.366
156.005
158.307
158.899
161.874
162.17
163.2
167.944
161.294
172.571
164.572
171.509
169.245
171.049
177.54
161.085
186.945
167.777
165.415
204.163
137.778
183.56
227.452
132.732
191.949
-59.3951
-69.1625
-79.8881
-90.7372
-100.377
-107.903
-113.095
-116.134
-117.343
-117.077
-115.67
-113.414
-110.551
-107.27
-103.709
-99.9697
-96.1247
-92.2252
-88.3067
-84.3938
-80.5031
-76.6456
-72.8282
-69.0549
-65.3278
-61.6476
-58.0138
-54.4255
-50.881
-47.3786
-43.9162
-40.4917
-37.1028
-33.7474
-30.4231
-27.1278
-23.8593
-20.6156
-17.3945
-14.1941
-11.0125
-7.84782
-4.69829
-1.56218
1.56215
4.67632
7.78186
10.8803
13.973
17.0614
20.1468
23.2305
26.3138
29.3979
32.4838
35.5729
38.6661
41.7645
44.8689
47.9807
51.0999
54.2281
57.3648
60.5118
63.6675
66.8342
70.0091
73.1952
76.3878
79.5911
82.7978
86.0142
89.2289
92.4516
95.6655
98.8849
102.085
105.289
108.46
111.631
114.752
117.871
120.918
123.962
126.906
129.85
132.66
135.48
138.122
140.793
143.235
145.732
147.961
150.248
152.264
154.354
155.993
158.298
158.887
161.866
162.166
163.181
167.954
161.276
172.562
164.579
171.491
169.246
171.03
177.572
161.047
186.936
167.823
165.303
204.269
137.732
183.265
227.661
132.738
191.714
-59.1006
-66.668
-74.9083
-83.4689
-91.5548
-98.4222
-103.691
-107.301
-109.365
-110.075
-109.654
-108.323
-106.288
-103.723
-100.771
-97.5412
-94.1198
-90.5706
-86.9411
-83.2665
-79.5724
-75.8771
-72.1938
-68.5316
-64.8967
-61.2931
-57.7232
-54.1882
-50.6884
-47.2234
-43.7925
-40.3945
-37.0279
-33.6914
-30.383
-27.1012
-23.8442
-20.6101
-17.3972
-14.2038
-11.028
-7.86827
-4.72289
-1.59026
1.53118
4.64295
7.74652
10.8433
13.9347
17.0221
20.1068
23.19
26.2729
29.3567
32.4425
35.5317
38.6249
41.7235
44.8282
47.9403
51.0599
54.1885
57.3257
60.4731
63.6293
66.7966
69.9721
73.1588
76.352
79.5559
82.7633
85.9803
89.1958
92.4192
95.6338
98.854
102.055
105.259
108.431
111.603
114.725
117.845
120.893
123.938
126.883
129.828
132.639
135.46
138.102
140.774
143.218
145.716
147.945
150.234
152.25
154.342
155.98
158.29
158.874
161.857
162.161
163.162
167.966
161.254
172.554
164.587
171.471
169.247
171.01
177.607
161.002
186.932
167.865
165.18
204.397
137.641
182.932
227.921
132.713
191.498
-58.3348
-64.3138
-70.7867
-77.5921
-84.267
-90.2825
-95.2648
-99.0417
-101.589
-102.975
-103.322
-102.777
-101.494
-99.6175
-97.2786
-94.5857
-91.6271
-88.4735
-85.1799
-81.7894
-78.3349
-74.8414
-71.3279
-67.8086
-64.2939
-60.7914
-57.3067
-53.8434
-50.4041
-46.9902
-43.6024
-40.2409
-36.9052
-33.5948
-30.3087
-27.0457
-23.8046
-20.584
-17.3826
-14.1989
-11.0315
-7.87873
-4.73928
-1.61165
1.50559
4.61384
7.71447
10.8089
13.8983
16.9841
20.0674
23.1496
26.2317
29.315
32.4004
35.4893
38.5824
41.6811
44.7859
47.8982
51.018
54.147
57.2846
60.4324
63.5892
66.757
69.933
73.1203
76.3141
79.5187
82.7267
85.9445
89.1607
92.3849
95.6002
98.8212
102.023
105.228
108.401
111.574
114.697
117.818
120.866
123.913
126.858
129.805
132.616
135.438
138.082
140.755
143.2
145.699
147.929
150.219
152.236
154.329
155.967
158.281
158.86
161.849
162.155
163.142
167.98
161.229
172.547
164.595
171.449
169.246
170.991
177.645
160.95
186.933
167.901
165.043
204.55
137.495
182.554
228.231
132.671
191.084
-57.2277
-62.0151
-67.1908
-72.6659
-78.1555
-83.305
-87.8142
-91.4885
-94.2338
-96.0347
-96.9336
-97.0114
-96.3681
-95.1132
-93.3539
-91.188
-88.7002
-85.9617
-83.031
-79.9555
-76.7731
-73.514
-70.2017
-66.8548
-63.4877
-60.1115
-56.7346
-53.3634
-50.0026
-46.6557
-43.3251
-40.0123
-36.7182
-33.4432
-30.1873
-26.9501
-23.731
-20.5292
-17.3437
-14.1736
-11.0178
-7.87487
-4.74379
-1.62326
1.48796
4.59114
7.6875
10.7783
13.8647
16.9481
20.0294
23.1099
26.1907
29.273
32.3577
35.446
38.5388
41.6372
44.7419
47.8542
50.9743
54.1035
57.2413
60.3896
63.5468
66.7151
69.8916
73.0795
76.2739
79.4792
82.6879
85.9064
89.1234
92.3484
95.5645
98.7864
101.989
105.195
108.369
111.543
114.667
117.789
120.838
123.886
126.832
129.78
132.593
135.416
138.061
140.735
143.181
145.681
147.913
150.203
152.222
154.315
155.953
158.272
158.845
161.84
162.148
163.121
167.995
161.201
172.542
164.602
171.424
169.244
170.972
177.686
160.888
186.941
167.929
164.892
204.732
137.286
182.124
228.612
132.613
190.755
-55.8605
-59.7356
-63.9331
-68.3906
-72.9159
-77.2727
-81.2435
-84.6573
-87.3981
-89.4041
-90.6631
-91.2028
-91.0772
-90.3566
-89.1209
-87.45
-85.419
-83.095
-80.5358
-77.7904
-74.8995
-71.8965
-68.8085
-65.6575
-62.461
-59.2332
-55.9851
-52.7256
-49.4616
-46.1983
-42.94
-39.6895
-36.4492
-33.2205
-30.0044
-26.8015
-23.6118
-20.4353
-17.2716
-14.1201
-10.9802
-7.85092
-4.73148
-1.62089
1.48187
4.57785
7.66812
10.7538
13.8359
16.9156
19.9939
23.0719
26.1507
29.2313
32.3147
35.402
38.494
41.592
44.6963
47.8085
50.9284
54.0577
57.1958
60.3443
63.5019
66.6706
69.8477
73.0361
76.2312
79.4371
82.6465
85.8658
89.0836
92.3094
95.5265
98.7493
101.953
105.16
108.335
111.51
114.635
117.758
120.809
123.857
126.805
129.754
132.568
135.392
138.038
140.714
143.161
145.662
147.895
150.186
152.206
154.301
155.939
158.263
158.829
161.833
162.14
163.1
168.013
161.168
172.538
164.61
171.398
169.241
170.954
177.731
160.816
186.959
167.947
164.723
204.95
137.006
181.637
229.075
132.552
190.291
-54.294
-57.4588
-60.9
-64.5665
-68.3147
-71.9838
-75.4235
-78.501
-81.1066
-83.1612
-84.621
-85.4764
-85.7455
-85.4644
-84.6837
-83.4622
-81.8606
-79.9376
-77.7466
-75.3353
-72.7449
-70.0105
-67.1616
-64.2226
-61.2138
-58.1516
-55.0495
-51.9185
-48.7672
-45.603
-42.4313
-39.2566
-36.0825
-32.9115
-29.7458
-26.5865
-23.4349
-20.2913
-17.1561
-14.0293
-10.9106
-7.79973
-4.69611
-1.59911
1.49198
4.57799
7.65973
10.7381
13.8141
16.8886
19.9625
23.0369
26.1126
29.1907
32.272
35.3577
38.4484
41.5454
44.649
47.7606
50.8803
54.0095
57.1476
60.2963
63.454
66.6231
69.8007
72.9897
76.1853
79.392
82.6021
85.8222
89.0408
92.2676
95.4856
98.7095
101.914
105.123
108.298
111.475
114.601
117.725
120.777
123.827
126.776
129.727
132.542
135.368
138.015
140.692
143.14
145.643
147.877
150.169
152.191
154.286
155.924
158.253
158.811
161.825
162.129
163.077
168.033
161.13
172.536
164.618
171.368
169.236
170.937
177.781
160.73
186.987
167.954
164.534
205.209
136.646
181.085
229.627
132.498
189.765
-52.576
-55.1772
-58.0212
-61.0621
-64.184
-67.2717
-70.2236
-72.9434
-75.3398
-77.3348
-78.8714
-79.9181
-80.4669
-80.5284
-80.1271
-79.2997
-78.0901
-76.5451
-74.7105
-72.6297
-70.3423
-67.883
-65.2824
-62.5665
-59.7573
-56.8736
-53.9305
-50.9411
-47.9158
-44.8633
-41.7908
-38.7039
-35.6075
-32.5051
-29.3998
-26.2938
-23.1888
-20.0863
-16.987
-13.8916
-10.8004
-7.7134
-4.63054
-1.55156
1.52395
4.59649
7.66662
10.7351
13.8025
16.8697
19.9374
23.0065
26.0778
29.1523
32.2305
35.3137
38.4024
41.4977
44.6001
47.7108
50.8298
53.9585
57.0963
60.245
63.4029
66.5722
69.7501
72.9396
76.1358
79.3431
82.554
85.775
88.9945
92.2223
95.4413
98.6664
101.872
105.082
108.259
111.437
114.564
117.69
120.743
123.795
126.745
129.697
132.514
135.341
137.99
140.669
143.118
145.622
147.858
150.15
152.175
154.27
155.909
158.244
158.792
161.819
162.118
163.055
168.056
161.086
172.538
164.627
171.335
169.228
170.922
177.835
160.631
187.03
167.947
164.323
205.516
136.2
180.464
230.283
132.46
189.125
-50.7352
-52.8836
-55.249
-57.7887
-60.4028
-63.0047
-65.5254
-67.8982
-70.0528
-71.9208
-73.4445
-74.5823
-75.3108
-75.6225
-75.5223
-75.027
-74.1636
-72.965
-71.4673
-69.707
-67.7194
-65.5374
-63.1906
-60.7055
-58.1054
-55.4101
-52.6366
-49.7994
-46.9107
-43.9806
-41.0176
-38.0287
-35.0197
-31.9954
-28.9596
-25.9156
-22.8657
-19.8121
-16.7561
-13.699
-10.6415
-7.5843
-4.52761
-1.47157
1.58385
4.63887
7.69375
10.7489
13.8049
16.8622
19.9214
22.9833
26.0484
29.1176
32.1914
35.2709
38.3565
41.4494
44.5497
47.6588
50.7766
53.9045
57.0417
60.19
63.3477
66.5171
69.6952
72.8851
76.0818
79.2898
82.5014
85.7233
88.9437
92.1726
95.3928
98.6191
101.827
105.037
108.216
111.395
114.524
117.652
120.707
123.76
126.712
129.666
132.484
135.313
137.963
140.644
143.094
145.601
147.837
150.131
152.158
154.253
155.894
158.234
158.771
161.814
162.103
163.032
168.082
161.036
172.543
164.636
171.299
169.218
170.909
177.893
160.514
187.09
167.924
164.086
205.875
135.667
179.766
231.046
132.438
188.366
-48.7932
-50.5742
-52.5516
-54.6848
-56.8842
-59.0813
-61.2288
-63.2819
-65.189
-66.8942
-68.3453
-69.4993
-70.3254
-70.8049
-70.9299
-70.7019
-70.1326
-69.2413
-68.0533
-66.5964
-64.8998
-62.9922
-60.9012
-58.6522
-56.2683
-53.7699
-51.1752
-48.4998
-45.7571
-42.9587
-40.1143
-37.2322
-34.3193
-31.3813
-28.4232
-25.4488
-22.4614
-19.4637
-16.4579
-13.4455
-10.428
-7.40632
-4.38123
-1.35321
1.67741
4.71053
7.74614
10.7844
13.8255
16.8699
19.9179
22.97
26.0267
29.0887
32.1564
35.2307
38.3119
41.4011
44.4984
47.605
50.7208
53.8472
56.9832
60.1307
63.2879
66.4571
69.6352
72.8253
76.0223
79.231
82.4433
85.6661
88.8875
92.1176
95.339
98.5668
101.776
104.988
108.168
111.349
114.48
117.61
120.666
123.722
126.676
129.632
132.451
135.283
137.935
140.618
143.069
145.578
147.816
150.112
152.14
154.235
155.878
158.224
158.75
161.812
162.087
163.01
168.112
160.979
172.552
164.645
171.259
169.206
170.898
177.958
160.378
187.169
167.883
163.82
206.298
135.048
178.985
231.793
132.435
187.472
-46.767
-48.2474
-49.9069
-51.7069
-53.5651
-55.4245
-57.2524
-59.0197
-60.6894
-62.218
-63.561
-64.679
-65.5394
-66.1182
-66.4
-66.376
-66.0459
-65.4175
-64.505
-63.3273
-61.9062
-60.2649
-58.4271
-56.4158
-54.2528
-51.9582
-49.5503
-47.0453
-44.4577
-41.8
-39.083
-36.3162
-33.5075
-30.6637
-27.7905
-24.8929
-21.9747
-19.0395
-16.0899
-13.1282
-10.1562
-7.17552
-4.18718
-1.19208
1.80911
4.81597
7.82819
10.8457
13.8684
16.8966
19.9303
22.9699
26.0156
29.0681
32.1275
35.1947
38.2698
41.3538
44.4468
47.5499
50.6627
53.7866
56.9207
60.0668
63.2229
66.3914
69.5691
72.7591
75.9563
79.1654
82.3783
85.602
88.8244
92.0558
95.2784
98.5078
101.718
104.933
108.114
111.298
114.43
117.563
120.621
123.679
126.635
129.594
132.416
135.25
137.903
140.589
143.043
145.553
147.793
150.091
152.121
154.217
155.861
158.213
158.727
161.808
162.068
162.985
168.145
160.915
172.566
164.655
171.216
169.189
170.891
178.027
160.219
187.272
167.821
163.524
206.78
134.356
178.109
232.827
132.452
186.461
-44.6697
-45.9023
-47.2991
-48.8234
-50.3986
-51.9756
-53.5313
-55.0475
-56.4983
-57.8505
-59.0681
-60.1166
-60.9657
-61.5902
-61.9705
-62.0927
-61.9483
-61.5358
-60.8601
-59.9314
-58.7639
-57.3745
-55.7819
-54.0056
-52.0647
-49.9781
-47.7632
-45.4363
-43.0121
-40.5038
-37.923
-35.28
-32.5837
-29.8419
-27.0613
-24.2474
-21.4051
-18.5385
-15.6511
-12.7456
-9.82457
-6.88986
-3.94307
-0.985481
1.9819
4.95832
7.9432
10.9362
13.937
16.9455
19.9617
22.9858
26.0178
29.0582
32.1071
35.165
38.232
41.3091
44.3961
47.4941
50.6026
53.7229
56.8541
59.9978
63.1521
66.3193
69.496
72.6855
75.8825
79.0917
82.305
85.5294
88.7527
91.9854
95.2094
98.4406
101.653
104.869
108.053
111.239
114.374
117.509
120.57
123.631
126.59
129.552
132.376
135.213
137.869
140.558
143.013
145.527
147.769
150.068
152.101
154.198
155.844
158.202
158.703
161.807
162.046
162.967
168.18
160.843
172.584
164.666
171.17
169.168
170.887
178.103
160.039
187.402
167.736
163.195
207.342
133.615
177.139
233.731
132.518
185.334
-42.5114
-43.5385
-44.7166
-46.0111
-47.35
-48.6899
-50.0141
-51.3117
-52.5654
-53.75
-54.8369
-55.7973
-56.6045
-57.2347
-57.6674
-57.8863
-57.8782
-57.6356
-57.1559
-56.442
-55.5011
-54.3435
-52.9826
-51.4333
-49.7115
-47.8335
-45.8152
-43.672
-41.4183
-39.0672
-36.631
-34.1203
-31.5449
-28.9133
-26.2328
-23.5101
-20.7506
-17.9592
-15.14
-12.2965
-9.43167
-6.54796
-3.64743
-0.731786
2.19758
5.13958
8.0933
11.0581
14.0335
17.0191
20.0148
23.0204
26.0359
29.0615
32.0973
35.1436
38.2004
41.2685
44.3476
47.4387
50.5414
53.6567
56.7837
59.9239
63.0753
66.2402
69.4151
72.6034
75.7996
79.0085
82.2218
85.4467
88.6707
91.9045
95.1299
98.3629
101.577
104.796
107.982
111.171
114.308
117.447
120.511
123.575
126.537
129.503
132.33
135.172
137.83
140.523
142.981
145.498
147.742
150.044
152.08
154.178
155.826
158.191
158.677
161.806
162.02
162.945
168.216
160.762
172.613
164.677
171.118
169.143
170.89
178.183
159.83
187.562
167.627
162.838
207.957
132.866
176.059
234.731
132.645
184.162
-40.3006
-41.1562
-42.1511
-43.2526
-44.393
-45.5329
-46.6601
-47.7687
-48.8475
-49.8775
-50.8363
-51.7003
-52.447
-53.0551
-53.5054
-53.7807
-53.8664
-53.7511
-53.4275
-52.8927
-52.1479
-51.1977
-50.0499
-48.7147
-47.2041
-45.5312
-43.7095
-41.7528
-39.6744
-37.487
-35.2026
-32.8322
-30.3859
-27.8726
-25.3004
-22.6765
-20.0072
-17.298
-14.5536
-11.7781
-8.97516
-6.14773
-3.29838
-0.429259
2.45781
5.36137
8.28016
11.2133
14.1598
17.1194
20.0914
23.0756
26.0718
29.08
32.1001
35.1324
38.1767
41.2336
44.3028
47.3852
50.4802
53.5889
56.71
59.8453
62.9925
66.154
69.3261
72.5122
75.7067
78.9146
82.1272
85.3521
88.5764
91.8112
95.0377
98.2724
101.488
104.71
107.898
111.09
114.231
117.373
120.441
123.51
126.475
129.446
132.276
135.123
137.784
140.482
142.943
145.465
147.712
150.018
152.056
154.157
155.807
158.179
158.65
161.806
161.993
162.934
168.254
160.682
172.635
164.692
171.07
169.112
170.897
178.268
159.601
187.754
167.492
162.441
208.676
132.156
174.871
235.7
132.876
183.007
-38.0439
-38.7559
-39.5964
-40.5349
-41.5075
-42.4781
-43.4373
-44.383
-45.3079
-46.1981
-47.0359
-47.8023
-48.4787
-49.0469
-49.4896
-49.7906
-49.935
-49.9101
-49.7057
-49.315
-48.7346
-47.9644
-47.0073
-45.869
-44.5572
-43.0814
-41.4524
-39.6816
-37.7806
-35.7611
-33.6343
-31.4109
-29.101
-26.7138
-24.2578
-21.7407
-19.1692
-16.5494
-13.8867
-11.1859
-8.45098
-5.68557
-2.89274
-0.0751075
2.76506
5.62589
8.50578
11.4034
14.3178
17.2479
20.1932
23.1531
26.1272
29.1154
32.1173
35.1332
38.1626
41.2061
44.2633
47.335
50.4204
53.5206
56.6342
59.7629
62.9044
66.0609
69.2288
72.4115
75.6033
78.8091
82.0202
85.2442
88.4682
91.7033
94.9305
98.1667
101.384
104.608
107.8
110.995
114.139
117.286
120.357
123.431
126.4
129.377
132.212
135.065
137.73
140.434
142.899
145.427
147.677
149.988
152.029
154.134
155.786
158.166
158.622
161.806
161.963
162.91
168.292
160.593
172.667
164.712
171.01
169.076
170.917
178.355
159.337
187.987
167.331
162.034
209.399
131.585
173.554
236.59
133.252
181.949
-35.747
-36.3382
-37.048
-37.848
-38.678
-39.5046
-40.3204
-41.1256
-41.9161
-42.6815
-43.4077
-44.0797
-44.6822
-45.2001
-45.6184
-45.9225
-46.0984
-46.1332
-46.0156
-45.7366
-45.2898
-44.6713
-43.8803
-42.9182
-41.789
-40.4985
-39.0543
-37.465
-35.7402
-33.8899
-31.924
-29.8526
-27.6853
-25.4312
-23.0987
-20.6958
-18.2297
-15.7068
-13.1331
-10.5138
-7.85353
-5.15635
-2.42585
0.334863
3.12308
5.9365
8.77313
11.6313
14.5096
17.4069
20.3222
23.2548
26.204
29.1694
32.1506
35.1476
38.1598
41.1878
44.2308
47.2897
50.3635
53.4532
56.5575
59.6779
62.8119
65.9619
69.1241
72.3019
75.4894
78.6918
81.9002
85.1223
88.3449
91.5795
94.8067
98.0437
101.262
104.489
107.682
110.881
114.029
117.18
120.255
123.336
126.31
129.293
132.133
134.994
137.665
140.376
142.846
145.381
147.635
149.954
151.997
154.109
155.762
158.152
158.594
161.805
161.933
162.903
168.329
160.504
172.703
164.734
170.955
169.034
170.948
178.435
159.071
188.244
167.156
161.602
210.206
131.15
172.089
237.364
133.834
181.057
-33.4146
-33.9039
-34.5027
-35.1844
-35.8927
-36.5963
-37.2893
-37.9735
-38.6468
-39.3016
-39.9268
-40.5101
-41.0393
-41.5019
-41.8853
-42.1768
-42.3637
-42.4339
-42.3761
-42.1804
-41.8385
-41.3444
-40.694
-39.8858
-38.9202
-37.7997
-36.5287
-35.1131
-33.5599
-31.877
-30.0728
-28.1561
-26.1356
-24.0199
-21.8172
-19.5354
-17.1818
-14.7632
-12.2857
-9.75501
-7.1762
-4.55379
-1.89184
0.806096
3.53687
6.29775
9.08634
11.9006
14.7388
17.5994
20.4812
23.3832
26.3043
29.2442
32.2019
35.1775
38.1702
41.1803
44.207
47.2509
50.3111
53.3885
56.4816
59.5917
62.7165
65.8582
69.0129
72.1842
75.3659
78.5634
81.7676
84.9864
88.2063
91.4392
94.6652
97.9022
101.121
104.349
107.544
110.747
113.897
117.053
120.133
123.22
126.199
129.191
132.036
134.906
137.583
140.305
142.78
145.325
147.584
149.912
151.958
154.082
155.733
158.135
158.566
161.8
161.906
162.891
168.362
160.417
172.727
164.762
170.894
168.988
170.992
178.514
158.777
188.534
166.955
161.19
211.048
130.908
170.445
237.968
134.685
180.389
-31.0509
-31.454
-31.958
-32.5384
-33.1422
-33.7404
-34.3281
-34.9079
-35.4793
-36.0366
-36.571
-37.0728
-37.5318
-37.9379
-38.2808
-38.5494
-38.7328
-38.82
-38.8003
-38.6639
-38.4018
-38.0065
-37.4722
-36.7949
-35.9724
-35.0043
-33.8922
-32.6391
-31.2495
-29.7291
-28.0844
-26.3225
-24.4509
-22.4772
-20.4092
-18.2542
-16.0195
-13.7118
-11.3374
-8.90233
-6.41188
-3.87097
-1.28404
1.34493
4.01239
6.71519
9.45056
12.2161
15.0096
17.8294
20.6737
23.5414
26.4311
29.3423
32.2737
35.2251
38.1957
41.1855
44.1937
47.2206
50.2651
53.3282
56.4081
59.5062
62.6199
65.7515
68.8971
72.06
75.2344
78.4252
81.6236
84.8375
88.0532
91.2828
94.5064
97.7419
100.96
104.188
107.385
110.589
113.742
116.903
119.987
123.08
126.065
129.065
131.917
134.798
137.482
140.215
142.698
145.254
147.521
149.861
151.91
154.049
155.699
158.115
158.54
161.789
161.883
162.885
168.387
160.343
172.758
164.798
170.848
168.94
171.051
178.585
158.489
188.842
166.773
160.797
211.9
130.887
168.574
238.359
135.774
179.994
-28.6594
-28.9894
-29.4123
-29.9055
-30.4194
-30.927
-31.4239
-31.9135
-32.3963
-32.8681
-33.3218
-33.7494
-34.1428
-34.4938
-34.7937
-35.0334
-35.2034
-35.2942
-35.296
-35.1994
-34.9957
-34.6768
-34.2359
-33.6673
-32.967
-32.1326
-31.1629
-30.0588
-28.8221
-27.4564
-25.9659
-24.3561
-22.6329
-20.8027
-18.8723
-16.8483
-14.7377
-12.5467
-10.2818
-7.94891
-5.5535
-3.10076
-0.595418
1.95821
4.55622
7.19509
9.87167
12.5832
15.3271
18.1014
20.904
23.7334
26.5881
29.4671
32.369
35.2933
38.2391
41.206
44.1931
47.2007
50.2275
53.2742
56.339
59.4231
62.5241
65.6438
68.7785
71.9314
75.0966
78.2791
81.4701
84.6772
87.8872
91.1119
94.3314
97.5638
100.78
104.007
107.203
110.408
113.563
116.727
119.815
122.914
125.904
128.913
131.772
134.664
137.356
140.102
142.594
145.165
147.44
149.796
151.848
154.01
155.655
158.09
158.517
161.77
161.871
162.879
168.399
160.29
172.778
164.846
170.781
168.896
171.128
178.641
158.229
189.159
166.626
160.452
212.648
131.103
166.446
238.484
137.357
179.928
-26.2433
-26.5112
-26.8645
-27.2824
-27.7186
-28.148
-28.5666
-28.9782
-29.384
-29.7809
-30.163
-30.524
-30.8571
-31.1557
-31.4126
-31.6203
-31.7708
-31.8557
-31.8665
-31.7948
-31.632
-31.3703
-31.0026
-30.5223
-29.9243
-29.2044
-28.3599
-27.3893
-26.2927
-25.0712
-23.7272
-22.2641
-20.6862
-18.9986
-17.2066
-15.3161
-13.3331
-11.2636
-9.11349
-6.88861
-4.59446
-2.23628
0.181038
2.65294
5.17525
7.74412
10.3561
13.0081
15.6972
18.421
21.1773
23.964
26.7796
29.6225
32.4914
35.3854
38.3032
41.2444
44.208
47.1937
50.2004
53.2285
56.2763
59.3446
62.4309
65.5369
68.6591
71.8002
74.9546
78.1271
81.309
84.5078
87.7104
90.9285
94.1424
97.3701
100.582
103.807
107.001
110.206
113.361
116.527
119.617
122.721
125.716
128.733
131.599
134.502
137.203
139.964
142.466
145.052
147.338
149.713
151.77
153.961
155.601
158.057
158.498
161.736
161.876
162.875
168.392
160.276
172.782
164.914
170.751
168.865
171.223
178.674
157.961
189.466
166.552
160.163
213.468
131.622
164.115
238.288
139.23
180.243
-23.8054
-24.0205
-24.314
-24.6667
-25.0356
-25.3972
-25.7481
-26.0921
-26.4309
-26.7622
-27.0813
-27.3827
-27.661
-27.9108
-28.1262
-28.301
-28.4284
-28.5013
-28.5123
-28.4538
-28.3182
-28.0981
-27.7863
-27.3762
-26.8619
-26.2384
-25.5016
-24.6486
-23.6776
-22.5881
-21.3804
-20.0563
-18.6183
-17.0698
-15.4149
-13.6581
-11.8046
-9.85958
-7.82839
-5.71644
-3.529
-1.27124
1.05198
3.43594
5.87637
8.36912
10.9106
13.4972
16.126
18.7941
21.499
24.2384
27.0104
29.8132
32.6452
35.5051
38.3917
41.3041
44.2411
47.2023
50.1865
53.1937
56.2222
59.2726
62.3424
65.4329
68.5407
71.6683
74.8104
77.9712
81.1426
84.3314
87.5252
90.735
93.9418
97.1631
100.37
103.59
106.781
109.983
113.137
116.304
119.395
122.502
125.501
128.525
131.398
134.311
137.021
139.796
142.31
144.914
147.212
149.61
151.672
153.9
155.533
158.014
158.486
161.685
161.904
162.866
168.361
160.319
172.76
165.009
170.719
168.865
171.335
178.678
157.797
189.738
166.592
159.931
213.919
132.577
161.808
237.714
141.583
180.989
-21.3485
-21.5186
-21.7604
-22.0565
-22.3669
-22.6697
-22.9619
-23.2473
-23.5278
-23.8017
-24.0652
-24.3137
-24.5427
-24.7477
-24.924
-25.0663
-25.169
-25.226
-25.2311
-25.1776
-25.0587
-24.8675
-24.5974
-24.2419
-23.7949
-23.251
-22.6053
-21.8539
-20.9937
-20.0226
-18.9397
-17.7448
-16.4389
-15.0238
-13.5023
-11.8775
-10.1533
-8.33407
-6.42432
-4.4289
-2.35257
-0.200268
2.02336
4.31361
6.66621
9.07684
11.5418
14.0572
16.62
19.2268
21.8751
24.5622
27.2859
30.044
32.835
35.6569
38.5086
41.3886
44.296
47.2297
50.1886
53.1722
56.1792
59.2093
62.2606
65.3337
68.4254
71.5377
74.6659
77.8133
80.9726
84.1499
87.3335
90.5335
93.732
96.9453
100.146
103.36
106.546
109.745
112.896
116.061
119.152
122.261
125.263
128.292
131.171
134.093
136.812
139.6
142.127
144.748
147.059
149.485
151.552
153.822
155.45
157.957
158.484
161.609
161.964
162.848
168.302
160.439
172.697
165.148
170.706
168.921
171.455
178.646
157.757
189.934
166.799
159.754
214.01
134.162
159.942
236.696
144.387
182.21
-18.8748
-19.0066
-19.2039
-19.4507
-19.71
-19.9617
-20.2029
-20.4373
-20.667
-20.8908
-21.1054
-21.307
-21.4918
-21.6562
-21.7961
-21.9074
-21.9851
-22.0244
-22.0196
-21.9652
-21.855
-21.683
-21.4432
-21.1293
-20.7356
-20.2563
-19.6864
-19.0213
-18.2571
-17.3907
-16.4197
-15.3429
-14.1597
-12.8705
-11.4765
-9.97972
-8.38267
-6.68863
-4.90115
-3.02431
-1.06219
0.980693
3.10013
5.29152
7.55085
9.87365
12.2563
14.6947
17.1858
19.7257
22.312
24.9414
27.6119
30.3205
33.0659
35.8455
38.6584
41.5023
44.3765
47.2793
50.21
53.1672
56.1499
59.1574
62.188
65.2414
68.3152
71.4102
74.5227
77.6551
80.8009
83.965
87.137
90.3258
93.5147
96.7186
99.9117
103.118
106.299
109.492
112.64
115.801
118.892
122.001
125.005
128.037
130.921
133.85
136.579
139.377
141.918
144.556
146.881
149.336
151.409
153.728
155.354
157.884
158.494
161.502
162.061
162.811
168.217
160.659
172.582
165.356
170.707
169.07
171.57
178.584
157.897
189.994
167.256
159.673
213.626
136.676
159.002
235.42
147.66
183.941
-16.3868
-16.4858
-16.6446
-16.8484
-17.0632
-17.2703
-17.4671
-17.6572
-17.8426
-18.0225
-18.1941
-18.3543
-18.4998
-18.6275
-18.7342
-18.8162
-18.8698
-18.8904
-18.8735
-18.814
-18.707
-18.5469
-18.3282
-18.0455
-17.6931
-17.2657
-16.758
-16.1652
-15.483
-14.7075
-13.8356
-12.8649
-11.7938
-10.6213
-9.34734
-7.97268
-6.49859
-4.9272
-3.26095
-1.50306
0.343288
2.27412
4.28587
6.3742