/*--------------------------------*- C++ -*----------------------------------*\
| =========                 |                                                 |
| \\      /  F ield         | OpenFOAM: The Open Source CFD Toolbox           |
|  \\    /   O peration     | Version:  2412                                  |
|   \\  /    A nd           | Website:  www.openfoam.com                      |
|    \\/     M anipulation  |                                                 |
\*---------------------------------------------------------------------------*/
FoamFile
{
    version     2.0;
    format      ascii;
    arch        "LSB;label=32;scalar=64";
    class       volVectorField;
    location    "1.74";
    object      ddt0(U);
}
// * * * * * * * * * * * * * * * * * * * * * * * * * * * * * * * * * * * * * //

dimensions      [0 1 -2 0 0 0 0];

internalField   nonuniform List<vector> 
12600
(
(-1.76286 3.75101e-20 0.774334)
(-0.617465 3.89656e-20 -0.0843155)
(-1.70412 1.4827e-20 -0.163481)
(-1.60976 0 -0.0215593)
(-1.24893 -1.41173e-20 0.0485717)
(-1.08034 -2.32544e-20 0.0593655)
(-1.08182 0 0.0505385)
(-1.14012 0 0.0819639)
(-1.18748 1.649e-19 0.10832)
(-1.20128 0 0.128183)
(-1.17452 -9.9906e-20 0.1434)
(-1.11719 -1.05198e-19 0.154513)
(-1.04183 1.07908e-19 0.161261)
(-0.955843 0 0.163123)
(-0.861962 1.05716e-19 0.159859)
(-0.761003 0 0.151678)
(-0.653068 -3.94133e-19 0.139061)
(-0.537706 0 0.122599)
(-0.414724 1.73456e-19 0.102979)
(-0.285616 1.58883e-19 0.0810301)
(-0.154284 -1.41874e-19 0.0576758)
(-0.0262931 3.41441e-22 0.0338199)
(0.0927842 0 0.0102655)
(0.198808 1.65874e-19 -0.0123051)
(0.289623 0 -0.0333291)
(0.364808 0 -0.0523674)
(0.425075 4.99899e-20 -0.0691064)
(0.471676 0 -0.0833357)
(0.505978 -1.49287e-21 -0.094915)
(0.529224 3.27337e-20 -0.103755)
(0.542476 5.28399e-20 -0.109829)
(0.546676 6.94506e-20 -0.113189)
(0.542718 -8.30739e-20 -0.113978)
(0.531451 -1.8851e-19 -0.112414)
(0.513663 -2.0705e-19 -0.108774)
(0.490057 2.24534e-19 -0.103379)
(0.461313 0 -0.0965806)
(0.428088 -2.47701e-19 -0.088741)
(0.391096 0 -0.0802178)
(0.351037 2.65417e-19 -0.0713256)
(0.308673 0 -0.0623308)
(0.264715 -1.5957e-21 -0.0534162)
(0.219981 0 -0.0447087)
(0.175247 -7.53971e-22 -0.0362582)
(0.131515 5.11114e-19 -0.02811)
(0.0897307 -4.82273e-19 -0.0202786)
(0.0510984 4.4696e-19 -0.0128428)
(0.0165609 0 -0.00587357)
(-0.0127475 0 0.000460649)
(-0.0362698 3.24556e-19 0.00603482)
(-0.0532537 5.74131e-19 0.0106266)
(-0.0637789 5.08392e-19 0.0141256)
(-0.0675428 1.48849e-21 0.0163216)
(-0.0653569 4.17625e-19 0.0172042)
(-0.0574237 0 0.0166518)
(-0.0454864 -3.76191e-19 0.0148512)
(-0.030336 -3.7262e-19 0.0118394)
(-0.0147437 -3.72297e-19 0.00807778)
(0.000191043 0 0.00377655)
(0.0111626 0 -0.000346683)
(0.0178283 0 -0.0040415)
(0.0175285 6.56179e-19 -0.00652445)
(0.0121451 0 -0.00781647)
(0.000534431 0 -0.00736807)
(-0.0127331 -5.73578e-19 -0.00578221)
(-0.0281862 0 -0.00283848)
(-0.0397949 0 0.000308401)
(-0.0497271 0 0.00386925)
(-0.0519894 -6.74926e-19 0.00646671)
(-0.051936 8.68794e-19 0.00869564)
(-0.0439408 9.03358e-19 0.00927168)
(-0.0358502 4.48322e-22 0.00929922)
(-0.0223543 -8.4041e-19 0.00773775)
(-0.0110037 0 0.00592473)
(0.00143143 6.06248e-19 0.00306293)
(0.0120742 0 0.000573194)
(0.0180015 0 -0.00232851)
(0.0261719 0 -0.00405093)
(0.0242831 1.38629e-21 -0.00614227)
(0.0314616 2.7894e-18 -0.00610884)
(0.0255613 -3.97511e-18 -0.00735225)
(0.0299354 -5.59074e-18 -0.00620354)
(0.0236909 7.39948e-18 -0.00733248)
(0.0143597 0 -0.00531063)
(0.0145378 0 -0.00416245)
(-0.0214008 1.74378e-17 -0.00149372)
(0.00758828 2.4764e-17 0.00196642)
(-0.0701136 8.7674e-18 0.00530163)
(0.0607065 1.20199e-17 0.00209273)
(-0.186607 0 0.0271346)
(0.419334 -1.1611e-16 -0.0539883)
(-0.66873 -8.82444e-17 0.0703366)
(0.921556 -1.19514e-16 -0.161651)
(-0.384872 -3.09839e-16 0.0590732)
(-0.335585 0 0.0338386)
(1.5831 0 -0.308303)
(-3.43361 0 0.610868)
(5.45251 0 -1.03652)
(-6.26318 0 1.22017)
(4.84822 0 -0.828003)
(3.34422 -3.55218e-17 -0.60858)
(-11.5377 -1.50617e-16 2.06384)
(9.71502 3.24572e-16 -1.84883)
(-10.9628 0 2.16595)
(7.99532 0 -1.54619)
(-0.9744 0 0.18881)
(-1.83083 -1.01297e-17 0.349379)
(8.02841 3.11479e-16 -1.55513)
(-17.1919 3.06744e-16 3.17174)
(16.7966 0 -3.17204)
(-12.7557 -5.56167e-16 2.80955)
(-8.50411 0 1.42819)
(23.2039 -8.18967e-16 -4.52502)
(-1.2945 -6.38568e-16 0.471469)
(-3.57889 -1.21456e-16 0.667708)
(-8.22905 -3.15493e-16 1.53307)
(5.90553 -4.56476e-16 -1.16781)
(7.91654 1.20222e-19 -1.45654)
(-7.6524 -5.24807e-16 1.48698)
(-3.21846 0 0.54168)
(-0.940564 -3.78745e-20 1.42506)
(-0.904068 0 -0.0833202)
(-1.62974 -1.50166e-20 -0.390933)
(-1.67438 0 -0.184975)
(-1.48224 1.42991e-20 -0.027449)
(-1.43602 4.42709e-20 0.0416445)
(-1.52364 2.90565e-20 0.0745878)
(-1.6589 0 0.134499)
(-1.7853 -2.10134e-21 0.182679)
(-1.85392 9.0689e-20 0.220095)
(-1.86083 -9.85567e-20 0.251568)
(-1.82258 -1.04034e-19 0.27815)
(-1.75483 1.06879e-19 0.298038)
(-1.66475 -1.07279e-19 0.309264)
(-1.55443 -2.12989e-19 0.311319)
(-1.42532 0 0.304707)
(-1.27859 2.31311e-21 0.289887)
(-1.11433 -1.86969e-19 0.267081)
(-0.93261 -1.75982e-19 0.236856)
(-0.735925 0 0.200491)
(-0.53014 0 0.159785)
(-0.323354 -1.25216e-19 0.116618)
(-0.123735 0 0.072677)
(0.0622048 -8.44112e-20 0.0293893)
(0.230297 1.30036e-19 -0.012075)
(0.378521 0 -0.050798)
(0.506351 -5.48721e-20 -0.0860772)
(0.614013 0 -0.117342)
(0.701931 -8.84622e-21 -0.144088)
(0.770499 -6.37342e-20 -0.165885)
(0.820188 -1.04548e-19 -0.182451)
(0.851735 -7.0297e-20 -0.193717)
(0.866255 8.40631e-20 -0.199835)
(0.865126 3.77353e-19 -0.201128)
(0.8499 4.15029e-19 -0.198059)
(0.822184 0 -0.191199)
(0.783735 0 -0.181227)
(0.736354 2.87009e-21 -0.168867)
(0.681978 0 -0.154868)
(0.622389 -2.67949e-19 -0.13989)
(0.559348 0 -0.124514)
(0.4942 -5.50686e-19 -0.109112)
(0.42828 0 -0.0939557)
(0.362469 -5.35239e-19 -0.0791076)
(0.297994 0 -0.0646565)
(0.235702 4.85619e-19 -0.0505664)
(0.177155 0 -0.0369986)
(0.123279 0 -0.0240153)
(0.0758757 -3.69561e-19 -0.011983)
(0.0354901 0 -0.00106561)
(0.00377188 0 0.0082108)
(-0.0195501 0 0.0157023)
(-0.0330633 -4.59133e-19 0.020827)
(-0.0381184 -8.39846e-19 0.0236376)
(-0.0336389 0 0.0236439)
(-0.0225321 0 0.0213103)
(-0.00420824 3.74926e-19 0.0163716)
(0.0164456 3.72279e-19 0.00988852)
(0.0398181 0 0.00185391)
(0.059288 0 -0.00604697)
(0.0763565 0 -0.0137853)
(0.0838193 0 -0.0193152)
(0.0864099 5.71109e-19 -0.023141)
(0.0774715 -4.3164e-19 -0.0233617)
(0.0663341 5.72448e-19 -0.0216742)
(0.0461582 0 -0.0165608)
(0.0303291 0 -0.011071)
(0.00931349 0 -0.00360649)
(-0.00068952 3.12788e-21 0.00185299)
(-0.0142682 -8.60484e-19 0.00775907)
(-0.0129039 -8.93903e-19 0.00980435)
(-0.0166963 1.75102e-18 0.0117702)
(-0.00497487 -2.66385e-22 0.00943772)
(-0.00149665 -6.55577e-19 0.00759492)
(0.0150576 -5.97623e-19 0.00219965)
(0.0213911 0 -0.00139997)
(0.0360321 0 -0.00736005)
(0.0416969 0 -0.0100548)
(0.0510991 -1.21274e-18 -0.0147786)
(0.0566727 0 -0.0148002)
(0.0627439 0 -0.0179315)
(0.0673035 5.47176e-18 -0.0162853)
(0.0707946 -7.23428e-18 -0.0190427)
(0.0664306 0 -0.0163993)
(0.0668338 0 -0.0152928)
(0.0448654 0 -0.0120632)
(0.0596813 -2.41264e-17 -0.00685219)
(-0.00798865 -1.88637e-20 -0.000399462)
(0.170542 1.17275e-17 -0.0134586)
(-0.29764 2.98574e-17 0.062432)
(1.05812 1.12718e-16 -0.167342)
(-1.80709 -8.55998e-17 0.0483808)
(2.5633 2.31342e-16 -0.489026)
(-1.28859 0 0.257317)
(-0.665591 0 0.0483626)
(4.24314 0 -0.788386)
(-9.53369 0 1.72596)
(15.1123 -3.64264e-16 -2.90229)
(-18.4443 0 3.63846)
(14.059 0 -2.8383)
(7.75319 -3.36349e-17 -1.19712)
(-29.498 7.22204e-17 5.43836)
(28.957 -6.2139e-16 -5.54993)
(-34.7104 -3.41914e-16 6.78709)
(23.9448 0 -4.84454)
(-4.68689 0 1.12596)
(-3.07918 0 0.485589)
(23.6943 -1.48402e-16 -4.3631)
(-47.0074 -2.9193e-16 8.86103)
(47.0009 0 -9.15703)
(-44.077 1.05683e-15 9.30558)
(-15.8619 -3.81744e-16 2.38733)
(67.5264 1.55449e-15 -13.1711)
(-9.90999 0 2.51098)
(-8.45574 0 1.74333)
(-22.0767 -2.98909e-16 4.10965)
(17.2909 0 -3.62102)
(20.1217 -4.70648e-16 -3.68189)
(-22.2329 4.95945e-16 4.4699)
(-8.07369 0 1.42546)
(-0.711816 0 0.654265)
(-0.804488 0 -0.229247)
(-1.15259 -7.24222e-21 -0.493356)
(-1.23261 0 -0.376179)
(-1.19007 0 -0.235649)
(-1.22583 -2.14742e-20 -0.119405)
(-1.36278 -2.75189e-20 -0.0269952)
(-1.55107 0 0.027459)
(-1.72271 -1.58612e-21 0.0614109)
(-1.82947 -8.59176e-20 0.0893223)
(-1.86732 1.85258e-19 0.120673)
(-1.85571 9.85726e-20 0.155875)
(-1.81308 -1.54169e-21 0.189475)
(-1.74676 1.01656e-19 0.217141)
(-1.65766 1.00174e-19 0.23837)
(-1.54671 -9.59286e-20 0.253926)
(-1.41525 1.86833e-19 0.263055)
(-1.26291 1.77179e-19 0.263833)
(-1.08875 0 0.255154)
(-0.894472 0 0.23768)
(-0.68606 -1.35592e-19 0.213244)
(-0.472323 -1.18585e-19 0.183888)
(-0.262331 0 0.151378)
(-0.0634974 0 0.117123)
(0.11922 -1.23217e-19 0.0822044)
(0.283225 0 0.0474354)
(0.427631 1.05725e-19 0.0135039)
(0.552361 -2.30064e-20 -0.0188482)
(0.657429 0 -0.0487693)
(0.742719 2.89755e-20 -0.0754057)
(0.808223 4.83617e-20 -0.0980902)
(0.854343 0 -0.116427)
(0.882023 -7.59191e-20 -0.13028)
(0.892542 -1.768e-19 -0.139677)
(0.887398 -2.88558e-21 -0.144812)
(0.868168 0 -0.146017)
(0.836687 0 -0.143819)
(0.794889 2.34262e-19 -0.138836)
(0.744958 0 -0.131791)
(0.688861 0 -0.123316)
(0.628591 0 -0.114006)
(0.565544 0 -0.104197)
(0.50118 0 -0.0941745)
(0.436268 0 -0.0839358)
(0.372166 0 -0.0735963)
(0.30958 -4.59247e-19 -0.063033)
(0.25037 4.26688e-19 -0.0524544)
(0.19532 0 -0.0417956)
(0.146686 3.4964e-19 -0.0314945)
(0.104699 0 -0.0215469)
(0.0715602 0 -0.01263)
(0.0464262 -4.89387e-19 -0.0047264)
(0.031486 0 0.00127999)
(0.0245572 3.9823e-19 0.00559525)
(0.0278667 -3.75545e-19 0.00726033)
(0.0373207 0 0.00692822)
(0.055129 -3.54387e-19 0.00369332)
(0.0746529 0 -0.00109102)
(0.0984548 0 -0.00823091)
(0.117338 0 -0.0155218)
(0.135691 -6.79013e-19 -0.0238273)
(0.142664 -6.18361e-19 -0.0301641)
(0.146919 -1.58935e-23 -0.0359599)
(0.136899 8.15375e-19 -0.0378102)
(0.127333 6.38232e-22 -0.0384542)
(0.104943 0 -0.0343789)
(0.0903834 0 -0.030161)
(0.0657733 -4.41958e-19 -0.0219879)
(0.0568987 3.08231e-21 -0.0162288)
(0.0385011 0 -0.00799974)
(0.0414344 0 -0.00490944)
(0.0320942 -8.25262e-19 -0.00010439)
(0.0465754 1.43149e-22 -0.00187468)
(0.0442613 -2.80464e-22 -0.00123087)
(0.065357 0 -0.00705115)
(0.0659323 0 -0.00872802)
(0.0872352 -3.47141e-19 -0.0159747)
(0.0874265 1.17101e-18 -0.0173969)
(0.105746 0 -0.0239276)
(0.106829 0 -0.0235482)
(0.123443 0 -0.0285047)
(0.126057 0 -0.0270846)
(0.139134 0 -0.0311308)
(0.138225 0 -0.0299756)
(0.139823 0 -0.030227)
(0.13151 0 -0.0303612)
(0.133922 2.26863e-17 -0.025152)
(0.0806189 -3.98788e-18 -0.0216427)
(0.298044 -1.10223e-17 -0.0400717)
(-0.355722 -2.80562e-17 0.0636837)
(1.6478 -1.06109e-16 -0.265617)
(-2.82234 8.04038e-17 -0.0467006)
(4.16575 -1.08713e-16 -0.808116)
(-2.25339 0 0.522147)
(-0.695695 0 -0.0455635)
(6.43619 0 -1.04168)
(-14.9547 0 2.59871)
(23.6106 3.4174e-16 -4.39823)
(-30.3356 0 5.991)
(23.8127 0 -5.27178)
(10.2176 3.1537e-17 -0.86686)
(-43.6147 0 7.5759)
(47.2805 2.91278e-16 -8.99071)
(-59.6407 3.20413e-16 11.7266)
(39.6214 0 -8.42319)
(-10.4724 0 2.80035)
(-1.50688 0 -0.269054)
(38.5004 -1.39395e-16 -6.55437)
(-72.182 0 13.2952)
(74.2446 2.99178e-16 -14.391)
(-80.7884 -3.56524e-19 17.3011)
(-15.0645 3.57274e-16 -0.308341)
(109.496 -1.45633e-15 -20.397)
(-22.5706 0 6.15342)
(-11.0983 1.08265e-16 2.31436)
(-33.7574 2.79593e-16 5.93818)
(27.9953 -4.04481e-16 -6.22362)
(29.2681 0 -4.85898)
(-35.9068 -4.63727e-16 7.40728)
(-11.8219 0 1.92362)
(-0.766339 0 0.146957)
(-0.71427 0 -0.212757)
(-0.875615 6.84813e-21 -0.423285)
(-0.980345 0 -0.424342)
(-1.02731 1.25901e-20 -0.347792)
(-1.09653 -3.8416e-20 -0.242872)
(-1.23224 0 -0.149292)
(-1.41321 6.02953e-20 -0.0968691)
(-1.58402 -7.10539e-20 -0.075711)
(-1.69791 -7.88328e-20 -0.060346)
(-1.74406 -8.68831e-20 -0.0315162)
(-1.74005 9.06301e-20 0.0118551)
(-1.70707 -9.43186e-20 0.0592916)
(-1.65381 1.86703e-19 0.102642)
(-1.57952 0 0.141218)
(-1.48365 1.80154e-19 0.176567)
(-1.36775 0 0.207032)
(-1.23168 0 0.228558)
(-1.07336 0 0.238576)
(-0.892969 -1.4118e-19 0.237617)
(-0.695831 1.02923e-21 0.228013)
(-0.491012 6.24097e-22 0.212164)
(-0.288102 -9.45589e-20 0.191873)
(-0.0949756 0 0.168383)
(0.0830478 0 0.142502)
(0.243206 0 0.114737)
(0.384714 -1.02973e-19 0.0855693)
(0.507727 -1.49124e-21 0.0557461)
(0.612396 0 0.0263205)
(0.698534 0 -0.00157448)
(0.765956 0 -0.0270203)
(0.814899 0 -0.0493985)
(0.846196 1.42201e-19 -0.0683312)
(0.860994 0 -0.0835511)
(0.860623 -1.81422e-19 -0.0949462)
(0.846444 0 -0.102572)
(0.820141 0 -0.106759)
(0.783526 -2.17513e-19 -0.107974)
(0.738765 0 -0.106852)
(0.687744 0 -0.10393)
(0.632457 2.40101e-19 -0.0997623)
(0.574154 -4.85425e-19 -0.0946086)
(0.514303 0 -0.0887574)
(0.453487 -4.74766e-19 -0.0821645)
(0.393167 0 -0.0750206)
(0.333876 8.67351e-19 -0.067177)
(0.277752 1.16319e-23 -0.05895)
(0.225365 0 -0.0501925)
(0.179373 0 -0.0414384)
(0.139584 -2.95377e-19 -0.0325169)
(0.108695 -5.23648e-19 -0.0242444)
(0.0851692 9.26415e-19 -0.0164145)
(0.0719377 0 -0.0101827)
(0.0658644 3.79936e-19 -0.00514537)
(0.0703308 3.545e-19 -0.00268984)
(0.0799374 3.41356e-19 -0.00191405)
(0.098578 3.36724e-19 -0.00430869)
(0.117765 0 -0.00814463)
(0.142403 0 -0.0149628)
(0.160665 6.60437e-19 -0.021955)
(0.180128 1.28087e-18 -0.0308525)
(0.186275 5.8322e-19 -0.0377151)
(0.192103 -3.61136e-22 -0.0449818)
(0.181073 -3.84508e-19 -0.047835)
(0.173747 -2.55892e-19 -0.050253)
(0.150154 0 -0.0468497)
(0.138635 0 -0.0438983)
(0.112481 4.16492e-19 -0.0353654)
(0.107474 1.17462e-18 -0.0300248)
(0.0869701 0 -0.0204072)
(0.0946317 7.88677e-19 -0.0173278)
(0.0824307 7.74339e-19 -0.0107066)
(0.102536 7.37057e-19 -0.0128486)
(0.096423 1.16432e-18 -0.0104736)
(0.124075 0 -0.0174542)
(0.11985 0 -0.017574)
(0.1488 3.26668e-19 -0.0268319)
(0.143507 -2.20834e-18 -0.0267684)
(0.170847 1.08193e-18 -0.0360059)
(0.16672 0 -0.0342048)
(0.193383 0 -0.042273)
(0.192787 0 -0.0394648)
(0.214683 0 -0.0462834)
(0.215509 0 -0.0444762)
(0.218144 0 -0.046187)
(0.221764 -1.50217e-17 -0.0481574)
(0.212424 -1.93804e-20 -0.0402661)
(0.174685 3.67754e-18 -0.0438006)
(0.422332 0 -0.0566646)
(-0.386528 -2.64591e-17 0.0423159)
(2.17075 4.98461e-17 -0.331077)
(-3.6785 0 0.0386772)
(5.68663 -1.02184e-16 -1.1132)
(-3.26315 2.64388e-16 0.808399)
(-0.452879 0 -0.256745)
(8.1785 0 -1.14512)
(-19.5982 0 3.25308)
(30.9191 3.20457e-16 -5.6284)
(-41.7279 0 8.27558)
(33.8197 0 -7.88761)
(10.9265 2.89177e-17 0.0546942)
(-53.7604 -6.39738e-17 8.853)
(64.1622 0 -11.9962)
(-84.8392 0 16.7785)
(54.4581 0 -12.1248)
(-18.5414 0 4.94052)
(3.04928 0 -1.77718)
(52.0022 -1.81235e-19 -8.20774)
(-91.774 0 16.6451)
(98.2347 -2.7996e-16 -18.9454)
(-121.821 -4.62455e-16 26.4154)
(-6.58827 0 -4.99463)
(147.759 -1.0379e-18 -27.0207)
(-38.1436 0 10.724)
(-11.4018 2.4312e-19 2.43955)
(-43.4318 0 7.33391)
(37.6615 3.78175e-16 -8.86493)
(35.4267 0 -5.31733)
(-48.3011 -4.33554e-16 10.2545)
(-14.395 0 2.10561)
(-0.822208 0 0.000377772)
(-0.734376 0 -0.137905)
(-0.833698 0 -0.335514)
(-0.95086 0 -0.427195)
(-1.05888 -1.18844e-20 -0.405863)
(-1.15479 6.65696e-23 -0.322132)
(-1.26549 0 -0.232575)
(-1.40289 -5.69111e-20 -0.177903)
(-1.54088 0 -0.163614)
(-1.6391 1.48235e-19 -0.161688)
(-1.67793 0 -0.140384)
(-1.66745 -8.55614e-20 -0.0933719)
(-1.62966 0 -0.035516)
(-1.57604 -1.76277e-19 0.0192367)
(-1.50461 8.55463e-20 0.069116)
(-1.41223 -1.67565e-19 0.117378)
(-1.30075 1.5985e-19 0.162443)
(-1.17176 1.52022e-19 0.198239)
(-1.02284 0 0.220645)
(-0.851967 1.33313e-19 0.230417)
(-0.662826 1.20132e-19 0.230913)
(-0.464298 2.09736e-19 0.225127)
(-0.266421 8.9289e-20 0.214809)
(-0.0774989 0 0.20087)
(0.0967231 0 0.183697)
(0.25309 0 0.163344)
(0.390729 4.92441e-20 0.139926)
(0.510065 2.19513e-20 0.11405)
(0.611609 0 0.0868513)
(0.695324 0 0.0596308)
(0.760972 3.89047e-20 0.0334385)
(0.808687 0 0.00900056)
(0.839277 -1.08541e-21 -0.0131507)
(0.853876 -1.50598e-19 -0.0324977)
(0.853781 1.6714e-19 -0.048644)
(0.84023 0 -0.0613748)
(0.814826 0 -0.0708249)
(0.779301 2.05294e-19 -0.0772984)
(0.735847 0 -0.0813181)
(0.686291 0 -0.0832867)
(0.632651 -2.26574e-19 -0.0836795)
(0.576036 4.58049e-19 -0.08265)
(0.517951 0 -0.0804856)
(0.458804 4.47933e-19 -0.0771082)
(0.400194 0 -0.0728213)
(0.342458 -4.0891e-19 -0.0674822)
(0.288022 -3.80238e-19 -0.0615587)
(0.237184 0 -0.0548287)
(0.193012 -3.13413e-19 -0.0479325)
(0.154822 2.78557e-19 -0.0404915)
(0.125844 9.89352e-19 -0.0334383)
(0.103783 -4.37793e-19 -0.0263014)
(0.0923823 3.94872e-19 -0.0204736)
(0.0874706 1.85426e-21 -0.0152614)
(0.0936718 0 -0.0124592)
(0.104153 -3.21742e-19 -0.0108237)
(0.12459 -3.17344e-19 -0.0124439)
(0.144461 3.15936e-19 -0.0151361)
(0.171137 -3.17173e-19 -0.0212445)
(0.189919 -6.22226e-19 -0.027308)
(0.211756 -6.0325e-19 -0.0360756)
(0.218154 5.48454e-19 -0.0426465)
(0.226716 -4.78702e-19 -0.0507136)
(0.21553 0 -0.0540541)
(0.211362 0 -0.0581628)
(0.18709 -8.2397e-20 -0.0556816)
(0.179252 0 -0.0547834)
(0.151781 0 -0.0468907)
(0.151139 -5.51006e-19 -0.0432803)
(0.128638 0 -0.0333962)
(0.141599 -7.42025e-19 -0.0313716)
(0.126705 -1.45494e-18 -0.0234295)
(0.153215 0 -0.0261582)
(0.143578 -5.47545e-19 -0.0217098)
(0.178762 0 -0.0294002)
(0.170046 0 -0.0271545)
(0.207688 -3.08973e-19 -0.0379469)
(0.197136 1.04006e-18 -0.0355479)
(0.234438 -5.94645e-22 -0.0476114)
(0.225105 0 -0.0435794)
(0.262552 0 -0.0557492)
(0.258411 0 -0.0506641)
(0.28971 6.03001e-18 -0.0619571)
(0.291585 6.90346e-18 -0.0581946)
(0.29624 0 -0.0631153)
(0.311106 2.81721e-17 -0.0658131)
(0.291252 -9.97888e-18 -0.056431)
(0.271293 -6.86189e-18 -0.069437)
(0.541106 -9.82216e-18 -0.069919)
(-0.390401 4.96774e-17 0.00639213)
(2.63173 0 -0.366553)
(-4.34648 0 0.424357)
(7.10188 9.58144e-17 -1.39794)
(-4.28259 -2.47868e-16 1.12478)
(0.036675 -2.793e-16 -0.528249)
(9.50157 0 -1.08007)
(-23.4324 0 3.65478)
(37.0783 -3.00248e-16 -6.51709)
(-52.4319 2.49454e-16 10.3822)
(43.6748 0 -10.7168)
(10.0617 -2.70821e-17 1.67329)
(-60.0046 5.99046e-17 9.05539)
(79.3419 0 -14.4108)
(-109.286 0 21.7521)
(67.8937 0 -15.8057)
(-28.9276 0 7.749)
(10.348 0 -4.19445)
(63.6845 1.2225e-16 -9.16281)
(-105.08 0 18.5772)
(119.251 0 -22.5681)
(-165.552 0 36.3289)
(7.71412 -3.1008e-16 -11.2471)
(181.096 6.38304e-16 -33.0389)
(-54.688 0 16.0514)
(-9.46314 -9.48824e-17 2.0516)
(-51.4437 0 8.23153)
(46.1161 3.53607e-16 -11.4555)
(38.7839 0 -4.8896)
(-59.1337 4.05173e-16 12.8801)
(-15.8416 0 1.94168)
(-0.851339 -1.41662e-20 -0.0947188)
(-0.809788 -7.02404e-21 -0.159606)
(-0.901762 4.74833e-23 -0.319762)
(-1.01558 -6.10139e-21 -0.434385)
(-1.15637 0 -0.449312)
(-1.27875 1.69252e-20 -0.386716)
(-1.37612 0 -0.301489)
(-1.47047 -5.31766e-20 -0.243743)
(-1.56601 -6.17427e-20 -0.228243)
(-1.63976 -1.38802e-19 -0.233637)
(-1.66751 7.50765e-20 -0.220357)
(-1.64837 -7.89306e-20 -0.17241)
(-1.60092 0 -0.105473)
(-1.54028 0 -0.0405953)
(-1.46533 -8.06515e-20 0.0174239)
(-1.36984 1.3687e-21 0.0743236)
(-1.25513 -2.66606e-21 0.130279)
(-1.12592 -2.50149e-21 0.177326)
(-0.981415 0 0.208957)
(-0.817323 0 0.225974)
(-0.634293 0 0.233319)
(-0.440054 -1.95673e-19 0.235004)
(-0.244839 -8.28336e-20 0.232727)
(-0.0572998 0 0.226921)
(0.116354 0 0.21751)
(0.272206 -7.54851e-20 0.204067)
(0.408775 0 0.186243)
(0.526495 0 0.1644)
(0.626329 0 0.139703)
(0.708586 0 0.11361)
(0.773054 -8.65317e-22 0.0872722)
(0.819719 0 0.061461)
(0.849344 -8.07429e-22 0.0367946)
(0.863122 1.41961e-19 0.0139963)
(0.862429 -1.42407e-21 -0.00627329)
(0.84846 0 -0.0235378)
(0.82277 0 -0.0377481)
(0.787016 0 -0.0490464)
(0.743451 0 -0.0578393)
(0.693872 0 -0.0643739)
(0.64037 0 -0.0690288)
(0.583934 0 -0.0718284)
(0.526157 -4.27034e-19 -0.0730572)
(0.467285 -4.19421e-19 -0.0725994)
(0.409109 0 -0.0708894)
(0.351758 -3.8397e-19 -0.0677948)
(0.297984 0 -0.0639573)
(0.247762 0 -0.0590732)
(0.204612 5.90676e-19 -0.0539048)
(0.167293 0 -0.0478447)
(0.139633 -4.667e-19 -0.0419595)
(0.118494 0 -0.0354833)
(0.108528 -7.45368e-19 -0.030073)
(0.10441 1.7012e-21 -0.0247048)
(0.112146 0 -0.0216133)
(0.123299 0 -0.0191573)
(0.145508 0 -0.0200657)
(0.165984 -5.95406e-19 -0.0216249)
(0.194806 5.97329e-19 -0.0270393)
(0.214104 5.85818e-19 -0.0321023)
(0.238522 5.66918e-19 -0.0406658)
(0.24521 -1.03134e-18 -0.0467669)
(0.256793 -4.49009e-19 -0.0554839)
(0.245498 0 -0.05908)
(0.244825 0 -0.064751)
(0.219875 -4.51161e-22 -0.0630297)
(0.216069 0 -0.0642109)
(0.187206 0 -0.0569667)
(0.1913 -5.1176e-19 -0.055313)
(0.166664 0 -0.0453082)
(0.185356 0 -0.0446584)
(0.1676 1.36342e-18 -0.0355238)
(0.20107 -6.48941e-19 -0.0391)
(0.187761 0 -0.0325807)
(0.231217 0 -0.0411646)
(0.217928 0 -0.0364432)
(0.265198 2.90173e-19 -0.0489721)
(0.249335 0 -0.0440511)
(0.297651 -1.90557e-18 -0.0592736)
(0.282953 -2.16291e-18 -0.0526964)
(0.332247 0 -0.0694635)
(0.324125 0 -0.0616187)
(0.365881 -5.65847e-18 -0.0780833)
(0.36801 -1.59164e-20 -0.0716335)
(0.376147 -7.12368e-18 -0.0805164)
(0.401449 -1.31985e-17 -0.08321)
(0.372688 -9.28534e-18 -0.072649)
(0.372594 3.19845e-18 -0.0962043)
(0.656598 9.2092e-18 -0.0792772)
(-0.367403 1.43299e-20 -0.0436701)
(3.04397 0 -0.372076)
(-4.88041 6.68007e-17 0.807457)
(8.38421 0 -1.65443)
(-5.27996 0 1.45089)
(0.695847 2.61652e-16 -1.03403)
(10.4381 0 -0.854077)
(-26.4496 0 3.80986)
(42.1554 0 -7.0855)
(-62.2203 -2.33567e-16 12.2749)
(52.9837 0 -13.6585)
(7.75361 -2.45864e-17 3.85906)
(-62.5694 0 8.2438)
(92.6937 0 -16.1423)
(-131.917 0 26.4387)
(79.435 0 -19.415)
(-41.4875 0 11.0903)
(19.8429 -8.37116e-18 -7.33396)
(72.9329 1.14558e-16 -9.32311)
(-111.649 2.24857e-16 19.0982)
(138.017 0 -25.3118)
(-209.674 0 46.4999)
(24.8815 5.78434e-16 -19.208)
(208.337 0 -37.4553)
(-69.7309 -4.70564e-16 21.5696)
(-5.48484 0 1.16386)
(-58.1185 2.28507e-16 8.78737)
(53.3143 -3.30439e-16 -14.0062)
(39.4604 0 -3.7127)
(-68.171 3.78225e-16 15.2476)
(-16.2991 0 1.45536)
(-0.868913 1.33407e-20 -0.21997)
(-0.884379 1.21591e-20 -0.25585)
(-0.985805 -4.46178e-23 -0.364794)
(-1.08783 -6.39326e-22 -0.461014)
(-1.23588 -1.14481e-20 -0.490512)
(-1.37328 0 -0.450754)
(-1.46905 0 -0.375283)
(-1.53707 5.00735e-20 -0.312421)
(-1.59775 1.16252e-19 -0.289193)
(-1.64817 2.99303e-22 -0.291884)
(-1.66826 -7.06884e-20 -0.282688)
(-1.64683 7.43166e-20 -0.235334)
(-1.59398 -7.48275e-20 -0.160703)
(-1.52653 0 -0.0856931)
(-1.44707 0 -0.0207717)
(-1.34741 7.25079e-20 0.0418232)
(-1.22658 -2.75859e-19 0.10628)
(-1.09259 -2.62435e-19 0.163674)
(-0.94902 0 0.203756)
(-0.791016 0 0.226264)
(-0.615252 0 0.238109)
(-0.42674 1.52651e-21 0.2451)
(-0.235189 1.54849e-19 0.249089)
(-0.0492805 -6.29989e-20 0.249946)
(0.124604 -9.79685e-20 0.247155)
(0.281651 1.41708e-19 0.239892)
(0.419123 -4.48553e-20 0.227286)
(0.536866 -2.12972e-20 0.2093)
(0.636186 -3.68221e-22 0.18706)
(0.717973 0 0.162215)
(0.782203 -3.37176e-20 0.136052)
(0.828684 4.60301e-20 0.109356)
(0.858041 -5.72737e-20 0.0827511)
(0.871526 -1.31123e-19 0.0570992)
(0.87069 -2.92904e-19 0.0332882)
(0.856752 0 0.0120411)
(0.831215 0 -0.0064282)
(0.795599 -1.78717e-19 -0.0221182)
(0.752198 0 -0.0353345)
(0.702782 1.93357e-19 -0.0461625)
(0.649554 1.98083e-19 -0.0548746)
(0.593375 0 -0.0613436)
(0.535957 8.0212e-19 -0.065845)
(0.477358 3.94701e-19 -0.0682074)
(0.419611 0 -0.0690023)
(0.362596 3.61301e-19 -0.0680897)
(0.309437 3.35929e-19 -0.0662973)
(0.259724 0 -0.0632168)
(0.217502 -5.56024e-19 -0.0597517)
(0.180893 2.48288e-19 -0.0550385)
(0.154436 4.41457e-19 -0.0503112)
(0.134024 0 -0.0444809)
(0.125367 -1.53143e-21 -0.0395177)
(0.121821 -6.4235e-19 -0.0340236)
(0.130967 0 -0.0307292)
(0.142545 0 -0.027524)
(0.166419 2.83701e-19 -0.0278394)
(0.187235 2.80219e-19 -0.0283312)
(0.218131 -5.62169e-19 -0.0331432)
(0.237678 -5.50683e-19 -0.0371954)
(0.264676 -5.3287e-19 -0.0455552)
(0.271424 4.84347e-19 -0.0510486)
(0.28615 8.4299e-19 -0.060305)
(0.274572 0 -0.0639048)
(0.277654 0 -0.0709782)
(0.251893 1.46682e-19 -0.0697491)
(0.252502 0 -0.0729366)
(0.222116 0 -0.0661987)
(0.231427 4.80653e-19 -0.0666436)
(0.204485 0 -0.0565714)
(0.229469 -6.47562e-19 -0.0576579)
(0.208614 -2.14672e-21 -0.0474998)
(0.249698 6.09232e-19 -0.0523794)
(0.232431 0 -0.04392)
(0.284951 0 -0.0538211)
(0.266786 0 -0.0466073)
(0.324632 2.75126e-19 -0.0612168)
(0.3031 0 -0.0535789)
(0.363455 8.92668e-19 -0.0722609)
(0.342845 4.05396e-18 -0.0627603)
(0.404992 0 -0.0844512)
(0.392 0 -0.0733064)
(0.445198 0 -0.0954193)
(0.446332 -2.45938e-20 -0.0855642)
(0.459304 6.67827e-18 -0.0990919)
(0.493791 -1.22675e-17 -0.101054)
(0.457496 8.70261e-18 -0.0897667)
(0.478702 2.90831e-18 -0.124903)
(0.768725 0 -0.0863428)
(-0.319265 -2.18444e-17 -0.106942)
(3.40349 0 -0.349077)
(-5.34966 -6.25698e-17 0.833332)
(9.52655 0 -1.87608)
(-6.23337 0 1.79488)
(1.54989 0 -1.36496)
(11.0356 2.70472e-16 -0.474143)
(-28.6683 -2.73845e-16 3.71991)
(46.2525 0 -7.33664)
(-70.8617 2.17696e-16 13.8838)
(61.3929 1.2505e-16 -16.6133)
(4.18068 2.30049e-17 6.57724)
(-61.916 -5.2494e-17 6.46834)
(104.177 0 -17.1148)
(-151.712 0 30.6508)
(88.7744 0 -22.8314)
(-55.7573 0 14.8293)
(30.5969 7.82786e-18 -11.1719)
(79.101 2.6497e-20 -8.59767)
(-111.539 -4.20496e-16 18.1589)
(155.62 0 -27.2159)
(-251.17 0 56.2978)
(41.6567 -2.69683e-16 -28.3981)
(228.116 0 -39.9569)
(-80.5305 4.39745e-16 26.721)
(0.253528 0 -0.149628)
(-63.6906 -4.26851e-16 9.05678)
(59.3485 0 -16.4832)
(37.5778 0 -1.75869)
(-75.2831 -3.53323e-16 17.2813)
(-15.9711 0 0.679972)
(-0.877665 0 -0.352644)
(-0.937023 -5.21472e-21 -0.374516)
(-1.05151 0 -0.442075)
(-1.14153 6.00917e-21 -0.509748)
(-1.27976 2.20359e-20 -0.538223)
(-1.41644 0 -0.513997)
(-1.51115 -1.98173e-20 -0.451229)
(-1.56824 0 -0.384969)
(-1.60735 -2.26642e-23 -0.348996)
(-1.63934 1.21658e-19 -0.340853)
(-1.65533 0 -0.329547)
(-1.63845 0 -0.283413)
(-1.5879 7.03792e-20 -0.204331)
(-1.51781 0 -0.120446)
(-1.43567 0 -0.0493136)
(-1.33419 0 0.016484)
(-1.20861 1.28346e-19 0.0867906)
(-1.06774 1.22107e-19 0.154065)
(-0.921248 1.11897e-19 0.203421)
(-0.76741 0 0.231289)
(-0.5999 0 0.246098)
(-0.419595 8.46709e-20 0.256428)
(-0.234438 -7.22806e-20 0.264895)
(-0.0525582 5.92522e-20 0.270794)
(0.120167 9.21415e-20 0.273241)
(0.278504 -1.31945e-19 0.271245)
(0.418052 4.75527e-22 0.26343)
(0.537125 2.00299e-20 0.249138)
(0.636818 3.46271e-22 0.229272)
(0.718696 0 0.205693)
(0.783228 0 0.179925)
(0.830118 -4.32882e-20 0.152787)
(0.859749 0 0.124828)
(0.873352 1.23306e-19 0.0969565)
(0.872736 1.37222e-19 0.0702391)
(0.859252 -1.4824e-19 0.045635)
(0.834383 0 0.0235077)
(0.799431 1.68043e-19 0.00397724)
(0.756684 1.74753e-19 -0.0131971)
(0.707868 -9.05275e-22 -0.0279486)
(0.655361 -3.71545e-19 -0.0404459)
(0.599882 0 -0.0503874)
(0.54328 -3.76259e-19 -0.0580344)
(0.485369 0 -0.0631363)
(0.428456 0 -0.0664055)
(0.372106 0 -0.0676665)
(0.319876 -7.93839e-22 -0.0679422)
(0.270881 0 -0.0666857)
(0.2298 2.61311e-19 -0.0649633)
(0.194017 -4.66829e-19 -0.0616172)
(0.168937 -4.14843e-19 -0.0580913)
(0.149328 0 -0.0529328)
(0.142144 3.31562e-19 -0.0484887)
(0.139195 6.06378e-19 -0.0429299)
(0.149894 0 -0.0395591)
(0.16186 0 -0.0357078)
(0.187526 -2.66495e-19 -0.0355993)
(0.208585 -2.64426e-19 -0.0351334)
(0.24169 2.64139e-19 -0.0395059)
(0.261344 5.1716e-19 -0.0426024)
(0.291107 0 -0.050857)
(0.297763 0 -0.0556887)
(0.315913 -1.11742e-21 -0.0654865)
(0.303912 2.98193e-19 -0.0689149)
(0.311147 0 -0.0773219)
(0.284435 -6.89541e-20 -0.0763431)
(0.289971 0 -0.0814929)
(0.257887 0 -0.0750649)
(0.273024 0 -0.0777119)
(0.243521 0 -0.0675104)
(0.275476 2.48901e-21 -0.0706354)
(0.251153 -2.16974e-21 -0.0595092)
(0.300606 -5.68731e-19 -0.066131)
(0.278906 0 -0.0557943)
(0.34137 -4.13796e-19 -0.067477)
(0.317768 0 -0.0577263)
(0.387201 -2.57986e-19 -0.0748265)
(0.359319 8.6586e-19 -0.0642533)
(0.432781 8.26264e-19 -0.0867406)
(0.405333 -1.8983e-18 -0.0738971)
(0.481361 0 -0.100847)
(0.462201 3.73291e-18 -0.0857925)
(0.527842 0 -0.114003)
(0.526351 -5.65336e-18 -0.099947)
(0.545491 6.19214e-18 -0.118794)
(0.587579 1.14922e-17 -0.119191)
(0.544937 0 -0.107668)
(0.588475 -5.39586e-18 -0.15503)
(0.876487 0 -0.0906233)
(-0.24842 -2.04198e-17 -0.178006)
(3.70831 0 -0.297125)
(-5.71838 -5.83291e-17 0.719705)
(10.5242 0 -2.05085)
(-7.10268 -2.02193e-16 2.13889)
(2.50969 -2.27798e-16 -1.73101)
(11.3106 -2.53108e-16 0.052307)
(-30.126 2.56238e-16 3.39141)
(49.4822 0 -7.28103)
(-78.1404 -4.0664e-16 15.1643)
(68.6272 -2.33349e-16 -19.5227)
(-0.432864 0 9.71994)
(-58.7272 4.90946e-17 3.82532)
(113.768 0 -17.2777)
(-167.799 0 34.239)
(95.8431 1.8245e-16 -26.0056)
(-70.9336 0 18.7823)
(41.4568 0 -15.4597)
(81.6207 -1.00146e-16 -6.93308)
(-105.436 3.93058e-16 15.8348)
(173.252 -2.13954e-16 -28.3838)
(-286.541 0 65.1153)
(55.1306 0 -38.1316)
(239.124 0 -40.3668)
(-84.7589 0 30.9791)
(7.39073 7.80821e-17 -1.74485)
(-68.176 1.99301e-16 9.05595)
(64.414 0 -18.9051)
(33.2319 0 0.908068)
(-80.4554 0 18.9474)
(-15.0857 0 -0.34178)
(-0.879171 8.4038e-21 -0.474646)
(-0.967519 0 -0.490034)
(-1.09302 -2.49292e-21 -0.530565)
(-1.17396 0 -0.572891)
(-1.2963 -1.0588e-20 -0.59184)
(-1.42193 0 -0.573112)
(-1.51202 1.86259e-20 -0.519854)
(-1.56491 -4.48696e-20 -0.453999)
(-1.59418 -1.02536e-19 -0.404746)
(-1.61446 -5.96407e-22 -0.382011)
(-1.62644 0 -0.362378)
(-1.61588 0 -0.316513)
(-1.57289 0 -0.23702)
(-1.50481 0 -0.147425)
(-1.42236 0 -0.0708322)
(-1.32233 0 -0.00345837)
(-1.19668 -1.14038e-19 0.069603)
(-1.05079 1.08511e-19 0.145322)
(-0.898664 -1.05139e-19 0.205218)
(-0.745192 0 0.239951)
(-0.584628 0 0.257529)
(-0.413816 -7.58081e-20 0.269768)
(-0.237648 -6.49207e-20 0.281041)
(-0.0629933 -5.33964e-20 0.29027)
(0.105566 0 0.296254)
(0.263575 6.15554e-20 0.298231)
(0.405428 7.75391e-20 0.294592)
(0.527082 -1.81988e-20 0.28384)
(0.628292 0 0.266295)
(0.710908 0 0.243923)
(0.776174 0 0.21862)
(0.823963 4.01992e-20 0.191342)
(0.854371 0 0.162519)
(0.868443 0 0.133002)
(0.868246 1.2764e-19 0.103967)
(0.855399 1.39257e-19 0.0766102)
(0.831489 0 0.0514481)
(0.797546 1.56298e-19 0.0286999)
(0.755783 -3.27463e-19 0.00813545)
(0.707849 -1.69911e-19 -0.0100571)
(0.656383 1.74058e-19 -0.025959)
(0.601976 0 -0.039072)
(0.54664 0 -0.0496416)
(0.489847 0 -0.0573125)
(0.434215 3.32474e-19 -0.0629492)
(0.37889 0 -0.0663079)
(0.327945 -2.95755e-19 -0.0686224)
(0.279893 -2.70542e-19 -0.0691652)