/*--------------------------------*- C++ -*----------------------------------*\
| =========                 |                                                 |
| \\      /  F ield         | OpenFOAM: The Open Source CFD Toolbox           |
|  \\    /   O peration     | Version:  2412                                  |
|   \\  /    A nd           | Website:  www.openfoam.com                      |
|    \\/     M anipulation  |                                                 |
\*---------------------------------------------------------------------------*/
FoamFile
{
    version     2.0;
    format      ascii;
    arch        "LSB;label=32;scalar=64";
    class       surfaceScalarField;
    location    "1.74";
    object      phi;
}
// * * * * * * * * * * * * * * * * * * * * * * * * * * * * * * * * * * * * * //

dimensions      [0 3 -1 0 0 0 0];

oriented        oriented;

internalField   nonuniform List<scalar> 
24930
(
0.0179588
0.0127562
-0.0307186
0.0105966
0.00736217
0.00694753
0.00364909
0.0051723
0.00177523
0.00420065
0.000971643
0.00357798
0.000622668
0.00313221
0.000445763
0.00279281
0.000339388
0.00252372
0.000269084
0.00230387
0.000219837
0.00212012
0.00018374
0.00196373
0.000156371
0.00182867
0.00013505
0.00171059
0.000118073
0.00160627
0.000104307
0.00151329
9.29672e-05
0.00142977
8.34999e-05
0.00135426
7.55022e-05
0.00128557
6.86762e-05
0.00122277
6.27968e-05
0.00116506
5.76917e-05
0.00111183
5.32265e-05
0.00106253
4.92952e-05
0.00101671
4.58135e-05
0.000973989
4.27132e-05
0.000934047
3.99389e-05
0.000896599
3.74453e-05
0.000861402
3.51949e-05
0.000828246
3.31562e-05
0.000796943
3.13032e-05
0.00076733
2.96135e-05
0.000739264
2.80684e-05
0.000712615
2.66518e-05
0.000687268
2.53499e-05
0.000663121
2.41507e-05
0.000640081
2.30441e-05
0.000618064
2.2021e-05
0.000596996
2.10735e-05
0.000576806
2.0195e-05
0.000557432
1.93793e-05
0.000538816
1.86214e-05
0.000520906
1.79164e-05
0.000503651
1.72603e-05
0.000487008
1.66493e-05
0.000470933
1.60803e-05
0.000455389
1.55501e-05
0.000440338
1.50565e-05
0.000425746
1.4597e-05
0.000411581
1.41696e-05
0.000397813
1.37728e-05
0.000384412
1.34047e-05
0.000371352
1.30643e-05
0.000358606
1.27493e-05
0.00034615
1.24603e-05
0.00033396
1.21936e-05
0.000322011
1.1952e-05
0.000310285
1.17294e-05
0.000298757
1.15322e-05
0.00028741
1.13503e-05
0.000276218
1.11953e-05
0.00026517
1.10508e-05
0.000254237
1.09364e-05
0.000243414
1.08258e-05
0.000232665
1.07508e-05
0.000221996
1.06703e-05
0.000211363
1.06337e-05
0.000200785
1.05785e-05
0.000190205
1.05797e-05
0.000179661
1.05433e-05
0.000169079
1.05808e-05
0.000158523
1.05543e-05
0.000147896
1.06259e-05
0.000137297
1.05972e-05
0.000126597
1.06991e-05
0.000115944
1.06519e-05
0.000105165
1.07787e-05
9.44724e-05
1.06921e-05
8.36353e-05
1.08367e-05
7.29496e-05
1.06856e-05
6.21086e-05
1.08409e-05
5.15113e-05
1.05973e-05
4.07563e-05
1.07548e-05
3.03646e-05
1.03918e-05
1.98306e-05
1.05337e-05
9.78963e-06
1.00408e-05
-2.98331e-07
1.00873e-05
-9.89218e-06
9.59321e-06
-1.90207e-05
9.1279e-06
-2.86842e-05
9.66229e-06
-3.50422e-05
6.35865e-06
-4.77516e-05
1.27079e-05
-4.75562e-05
-1.88281e-07
-5.94176e-05
1.18599e-05
-7.18096e-05
1.23959e-05
-5.26951e-05
-1.91173e-05
-0.000114054
6.13638e-05
-3.81482e-05
-7.59096e-05
-0.0001534
0.000115254
-5.05346e-05
-0.000102866
-7.51044e-05
2.45629e-05
-0.0002356
0.000160496
6.01202e-05
-0.000295743
-0.000414948
0.000475065
-6.72419e-05
-0.000347706
-0.000285259
0.000218012
-0.000278215
-7.0384e-06
-5.85019e-05
-0.000219716
-0.000530091
0.000471595
0.000192219
-0.00072232
-0.00114475
0.00133697
-0.000631808
-0.000512926
0.000171095
-0.000802931
-0.000522472
0.000693575
5.31521e-06
-0.000527763
-0.000138673
0.00014399
0.000349932
-0.000488613
-0.000195703
0.00054563
-0.000569611
0.000373911
0.000354887
-0.000924493
-0.00018459
0.0336645
0.0163239
-0.0372322
0.0277276
0.0132991
0.0221759
0.00920074
0.0179032
0.00604801
0.0148583
0.00401649
0.0126988
0.00278216
0.0111125
0.00203211
0.00989595
0.00155588
0.00892915
0.00123587
0.00813914
0.00100983
0.00747918
0.000843674
0.00691799
0.000717533
0.00643381
0.00061921
0.00601096
0.0005409
0.00563785
0.00047739
0.00530571
0.000425082
0.00500776
0.000381422
0.00473869
0.000344551
0.00449425
0.000313096
0.00427101
0.000286015
0.00406617
0.000262513
0.00387742
0.000241966
0.00370281
0.000223886
0.00354074
0.000207881
0.0033898
0.000193637
0.00324884
0.000180898
0.00311683
0.000169453
0.00299289
0.00015913
0.00287626
0.000149782
0.00276628
0.00014129
0.00266234
0.00013355
0.00256394
0.000126475
0.00247061
0.000119992
0.00238193
0.000114035
0.00229754
0.000108552
0.0022171
0.000103493
0.00214031
9.88171e-05
0.0020669
9.44888e-05
0.00199663
9.04766e-05
0.00192927
8.67523e-05
0.00186461
8.32923e-05
0.00180247
8.00743e-05
0.00174266
7.708e-05
0.00168503
7.42916e-05
0.00162943
7.16947e-05
0.00157572
6.92752e-05
0.00152376
6.70221e-05
0.00147344
6.49243e-05
0.00142465
6.2973e-05
0.00137727
6.11601e-05
0.00133121
5.94774e-05
0.00128636
5.79199e-05
0.00124264
5.64785e-05
0.00119996
5.51523e-05
0.00115823
5.39295e-05
0.00111737
5.28157e-05
0.00107732
5.17931e-05
0.00103798
5.08771e-05
0.000999299
5.00392e-05
0.000961191
4.93099e-05
0.000923605
4.86431e-05
0.000886455
4.80917e-05
0.000849704
4.75822e-05
0.000813256
4.72016e-05
0.000777093
4.6835e-05
0.000741108
4.66196e-05
0.000705308
4.63786e-05
0.000669565
4.63214e-05
0.000633924
4.61824e-05
0.000598229
4.62731e-05
0.000562578
4.62031e-05
0.000526775
4.64263e-05
0.00049099
4.63797e-05
0.000454975
4.67124e-05
0.000418998
4.66274e-05
0.000382738
4.70375e-05
0.000346595
4.68344e-05
0.000310148
4.72826e-05
0.00027397
4.68635e-05
0.0002375
4.73101e-05
0.00020154
4.65576e-05
0.000165324
4.69703e-05
0.000129974
4.57415e-05
9.44104e-05
4.60959e-05
6.02239e-05
4.42266e-05
2.59193e-05
4.43904e-05
-6.47686e-06
4.1988e-05
-3.82317e-05
4.08817e-05
-7.05274e-05
4.1956e-05
-9.3277e-05
2.91096e-05
-0.000136886
5.63145e-05
-0.000133344
-3.71997e-06
-0.000185225
6.37389e-05
-0.000204182
3.13585e-05
-0.000174097
-4.92055e-05
-0.000332971
0.000220242
-0.000128597
-0.000280288
-0.000493705
0.000480367
-0.000138971
-0.000457608
-0.000297262
0.00018285
-0.000635743
0.000498963
0.000140104
-0.00107161
-0.00121038
0.00182555
-0.000214639
-0.00134345
-0.00101128
0.00101466
-0.000797518
-0.000220807
-0.000288484
-0.000728748
-0.00143463
0.00161774
0.000562654
-0.00271961
-0.00344399
0.00534363
-0.00174008
-0.00221683
0.000240814
-0.00278382
-0.00156632
0.00250071
0.000174536
-0.00226861
-0.000310442
0.000628969
0.00107613
-0.00187519
-0.000734359
0.00235613
-0.00162553
0.00126507
0.00126881
-0.00381883
-0.000686403
0.0414328
0.0160215
-0.0411304
0.0391408
0.0155912
0.0352099
0.0131316
0.0309237
0.0103342
0.0270098
0.00793037
0.0237221
0.0060699
0.0210489
0.00470526
0.0188813
0.00372349
0.0171045
0.0030126
0.0156261
0.00248827
0.0143769
0.00209276
0.0133069
0.00178756
0.012379
0.00154707
0.0115658
0.00135405
0.0108466
0.00119663
0.0102052
0.00106642
0.00962922
0.000957387
0.00910867
0.000865083
0.00863556
0.000786182
0.00820341
0.000718154
0.00780686
0.000659043
0.00744149
0.00060732
0.00710359
0.000561774
0.00679002
0.000521434
0.00649814
0.000485516
0.00622564
0.000453383
0.00597058
0.000424509
0.00573125
0.000398459
0.00550616
0.000374871
0.00529402
0.000353438
0.00509367
0.000333904
0.0049041
0.00031605
0.00472441
0.000299687
0.00455379
0.000284656
0.00439154
0.000270819
0.00423698
0.000258053
0.00408956
0.000246256
0.00394872
0.000235336
0.00381399
0.000225214
0.00368494
0.000215819
0.00356116
0.00020709
0.00344227
0.000198971
0.00332795
0.000191417
0.00321787
0.000184382
0.00311175
0.000177829
0.00300932
0.000171723
0.00291032
0.000166035
0.00281451
0.000160739
0.00272169
0.000155811
0.00263163
0.00015123
0.00254414
0.000146976
0.00245903
0.000143035
0.00237613
0.000139387
0.00229527
0.000136024
0.00221628
0.000132924
0.00213902
0.000130091
0.00206332
0.000127492
0.00198906
0.000125152
0.00191609
0.000123017
0.00184427
0.00012114
0.00177348
0.000119435
0.00170358
0.000117997
0.00163448
0.000116691
0.00156601
0.000115671
0.00149812
0.000114732
0.00143062
0.000114115
0.0013635
0.000113503
0.00129655
0.000113268
0.0012298
0.000112932
0.00116302
0.00011305
0.0010963
0.000112917
0.00102938
0.000113345
0.000962448
0.000113312
0.00089517
0.000113988
0.000827878
0.000113918
0.00076016
0.000114755
0.000692527
0.000114466
0.000624449
0.00011536
0.000556684
0.000114628
0.00048852
0.000115473
0.000421061
0.000114017
0.00035329
0.00011474
0.000286849
0.000112183
0.000220164
0.00011278
0.000155786
0.000108604
9.12067e-05
0.000108968
2.99862e-05
0.000103207
-3.01652e-05
0.000101032
-9.05485e-05
0.000102337
-0.000135186
7.37488e-05
-0.000215983
0.000137108
-0.000211372
-8.32157e-06
-0.000313903
0.000166267
-0.000335589
5.30508e-05
-0.000306621
-7.81755e-05
-0.000560126
0.000473751
-0.000232325
-0.000608092
-0.000869496
0.00111754
-0.000238625
-0.00108849
-0.000584263
0.000528485
-0.00103513
0.000949813
0.00021399
-0.00232075
-0.00204651
0.00408605
-0.000373911
-0.00301605
-0.00189986
0.00254062
-0.00137424
-0.000746434
-0.000641521
-0.00146147
-0.00232019
0.00329641
0.00101408
-0.00605388
-0.00587598
0.0122337
-0.00278686
-0.00530596
3.12234e-05
-0.00560185
-0.00269808
0.00522999
0.00052467
-0.00549136
-0.000421358
0.001575
0.00189669
-0.00419325
-0.00142222
0.00567505
-0.00264626
0.0024891
0.00245904
-0.00892412
-0.00143318
0.0458943
0.0147229
-0.0445957
0.0459753
0.0155102
0.0443944
0.0147125
0.0416694
0.0130593
0.0384252
0.0111745
0.0351205
0.0093746
0.0320226
0.00780313
0.0292457
0.00650034
0.0268086
0.0054497
0.0246851
0.00461176
0.0228341
0.00394381
0.0212135
0.0034081
0.0197862
0.00297431
0.0185211
0.00261918
0.0173924
0.00232524
0.0163795
0.00207936
0.0154652
0.00187164
0.0146357
0.00169456
0.0138795
0.00154235
0.0131871
0.00141051
0.0125506
0.00129552
0.0119633
0.0011946
0.0114196
0.0011055
0.0109146
0.00102642
0.0104442
0.000955881
0.0100049
0.00089268
0.00959361
0.000835817
0.0092076
0.000784461
0.00884456
0.000737914
0.00850241
0.00069559
0.00817933
0.000656989
0.0078737
0.000621687
0.00758407
0.000589319
0.00730916
0.000559573
0.00704781
0.000532178
0.00679898
0.000506898
0.00656172
0.000483529
0.00633517
0.000461891
0.00611857
0.000441829
0.0059112
0.000423205
0.0057124
0.000405897
0.00552159
0.000389796
0.00533821
0.00037481
0.00516176
0.000360851
0.00499176
0.000347844
0.00482777
0.000335723
0.00466939
0.000324428
0.00451624
0.000313906
0.00436795
0.000304111
0.00422419
0.000295001
0.00408464
0.000286538
0.00394899
0.000278691
0.00381697
0.00027142
0.00368829
0.000264713
0.0035627
0.000258523
0.00343994
0.000252857
0.00331978
0.000247657
0.00320199
0.000242957
0.00308634
0.000238672
0.00297261
0.000234879
0.00286061
0.000231445
0.0027501
0.00022851
0.00264093
0.000225866
0.00253286
0.000223749
0.00242576
0.000221836
0.00231937
0.0002205
0.00221363
0.000219248
0.00210824
0.000218652
0.0020032
0.000217968
0.0018982
0.000218052
0.00179331
0.000217805
0.00168817
0.000218482
0.00158299
0.000218488
0.00147734
0.000219633
0.00137162
0.00021964
0.00126529
0.000221079
0.001159
0.000220758
0.00105207
0.000222282
0.000945486
0.000221216
0.000838343
0.000222615
0.000732088
0.000220272
0.000625428
0.000221399
0.000520576
0.000217034
0.00041543
0.000217924
0.000313598
0.000210435
0.000211472
0.000211092
0.000114392
0.000200285
1.86546e-05
0.000196768
-7.65726e-05
0.000197562
-0.000149953
0.000147132
-0.00027448
0.000261631
-0.000273923
-8.8706e-06
-0.000436238
0.000328579
-0.000461109
7.79285e-05
-0.000443408
-9.58789e-05
-0.000792314
0.000822661
-0.000345459
-0.00105495
-0.00127193
0.00204402
-0.000352324
-0.00200811
-0.00093448
0.00111064
-0.00143735
0.00145265
0.000280305
-0.00403841
-0.0029156
0.00728195
-0.000539295
-0.00539236
-0.00294696
0.00494831
-0.00202488
-0.00166853
-0.0011425
-0.00234384
-0.00318739
0.00534129
0.00157518
-0.0108165
-0.00837746
0.0221863
-0.00375551
-0.00992792
-0.000372015
-0.0089853
-0.00389192
0.0087499
0.00108819
-0.0104715
-0.000472162
0.00313535
0.00282707
-0.00749248
-0.00223645
0.0107386
-0.00359174
0.00384437
0.00394144
-0.0164573
-0.0023307
0.0493594
0.0135289
-0.0481654
0.0503218
0.0145478
0.0503382
0.014696
0.0493145
0.014083
0.0474684
0.0130206
0.0450928
0.0117502
0.0424593
0.0104366
0.0397743
0.00918528
0.0371726
0.00805139
0.0347285
0.00705583
0.0324742
0.00619815
0.0304154
0.00546684
0.0285438
0.00484589
0.0268443
0.00431863
0.0252999
0.00386967
0.0238935
0.00348569
0.0226096
0.00315556
0.021434
0.00287012
0.0203544
0.00262193
0.01936
0.00240492
0.0184413
0.00221417
0.0175902
0.00204565
0.0167997
0.00189605
0.0160634
0.00176265
0.0153761
0.00164319
0.014733
0.00153578
0.01413
0.00143887
0.0135633
0.00135111
0.0130298
0.0012714
0.0125266
0.00119878
0.0120512
0.00113244
0.0116012
0.00107167
0.0111747
0.00101589
0.0107697
0.000964559
0.0103846
0.00091724
0.010018
0.000873536
0.00966843
0.000833101
0.0093347
0.000795635
0.00901567
0.000760874
0.00871031
0.000728582
0.00841766
0.000698555
0.00813686
0.000670608
0.00786711
0.00064458
0.00760765
0.000620324
0.00735779
0.000597712
0.0071169
0.000576628
0.00688437
0.000556971
0.00665964
0.000538649
0.00644218
0.000521583
0.0062315
0.000505701
0.00602711
0.000490935
0.00582858
0.000477231
0.00563548
0.000464526
0.00544742
0.000452789
0.005264
0.000441949
0.00508486
0.00043201
0.00490964
0.000422881
0.004738
0.000414606
0.00456963
0.000407059
0.00440417
0.000400346
0.00424135
0.000394272
0.00408083
0.000389034
0.00392237
0.000384332
0.00376563
0.000380498
0.0036104
0.000377069
0.00345632
0.000374577
0.00330326
0.00037231
0.00315082
0.000371086
0.00299896
0.000369831
0.00284724
0.000369772
0.00269572
0.00036932
0.00254392
0.000370278
0.00239207
0.000370333
0.00223961
0.000372091
0.002087
0.000372246
0.00193357
0.00037451
0.0017801
0.00037423
0.00162574
0.000376639
0.00147171
0.000375242
0.0013169
0.000377427
0.00116314
0.000374027
0.00100881
0.000375729
0.000856791
0.000369057
0.000704366
0.000370348
0.000556338
0.000358462
0.000407895
0.000359533
0.000266365
0.000341814
0.00012645
0.000336682
-1.17459e-05
0.000335755
-0.000122404
0.000257792
-0.000298669
0.000437892
-0.000308923
1.38424e-06
-0.00054124
0.000560893
-0.000571398
0.000108093
-0.000576526
-9.07522e-05
-0.00102185
0.00126799
-0.000462651
-0.00161415
-0.00169248
0.00327385
-0.000478772
-0.00322183
-0.00134629
0.00197816
-0.00184088
0.00194721
0.000334423
-0.00621373
-0.00379968
0.0114161
-0.000702732
-0.00848933
-0.00414446
0.00839006
-0.00275798
-0.00305502
-0.0018237
-0.00327811
-0.00403571
0.00755329
0.00226548
-0.0171176
-0.0108522
0.035304
-0.00462204
-0.0161581
-0.00112792
-0.0124793
-0.00512005
0.012742
0.00186621
-0.0174578
-0.000464468
0.00546603
0.00388532
-0.0118423
-0.00313579
0.0177597
-0.00442141
0.00512998
0.0057048
-0.0265835
-0.00328442
0.0528163
0.0126311
-0.0519184
0.0538439
0.0135202
0.0545266
0.0140134
0.0545942
0.0140154
0.0539941
0.0136206
0.052796
0.0129484
0.051129
0.0121036
0.0491397
0.0111745
0.0469628
0.0102283
0.0447088
0.00930978
0.04246
0.00844698
0.0402723
0.00765454
0.0381802
0.00693793
0.0362022
0.00629656
0.0343457
0.00572615
0.0326109
0.00522055
0.0309935
0.00477292
0.0294871
0.00437644
0.0280843
0.00402473
0.0267771
0.00371207
0.0255579
0.00343337
0.0244193
0.00318424
0.0233545
0.00296086
0.0223572
0.00275995
0.0214216
0.00257871
0.0205427
0.00241472
0.0197156
0.00226594
0.0189362
0.00213057
0.0182005
0.00200709
0.0175051
0.00189418
0.0168468
0.00179069
0.0162229
0.00169563
0.0156306
0.00160814
0.0150677
0.00152746
0.0145321
0.00145293
0.0140217
0.00138396
0.0135347
0.00132005
0.0130696
0.00126074
0.0126249
0.00120564
0.0121991
0.00115439
0.011791
0.00110668
0.0113994
0.00106223
0.0110232
0.00102079
0.0106614
0.000982132
0.010313
0.000946064
0.00997728
0.000912403
0.00965327
0.000880995
0.00934023
0.000851696
0.00903745
0.000824381
0.00874422
0.000798939
0.00845991
0.000775262
0.00818388
0.000753268
0.00791556
0.000732854
0.00765439
0.000713973
0.00739983
0.000696518
0.00715136
0.000680485
0.00690851
0.000665744
0.00667078
0.000652349
0.00643773
0.000640121
0.00620888
0.0006292
0.00598385
0.000619314
0.00576216
0.00061073
0.00554346
0.000603032
0.00532729
0.000596673
0.00511335
0.000591014
0.00490115
0.000586781
0.00469047
0.000582992
0.00448078
0.000580771
0.00427198
0.000578632
0.00406348
0.000578263
0.00385534
0.000577463
0.0036469
0.000578715
0.00343841
0.000578815
0.00322914
0.000581354
0.00301965
0.000581743
0.00280904
0.00058511
0.00259829
0.000584983
0.00238631
0.000588613
0.00217462
0.000586933
0.00196181
0.000590238
0.00175019
0.000585647
0.00153772
0.000588196
0.00132806
0.000578721
0.0011178
0.000580606
0.000913082
0.00056318
0.000707775
0.000564838
0.000511413
0.000538174
0.000316868
0.000531225
0.000125233
0.000527387
-3.20813e-05
0.00041511
-0.000270142
0.000675949
-0.000299684
3.09316e-05
-0.000613824
0.000875031
-0.000653025
0.000147301
-0.000694724
-4.90506e-05
-0.00123761
0.00181088
-0.00057568
-0.00227608
-0.0021193
0.00481748
-0.0006133
-0.00472785
-0.00181422
0.0031791
-0.00224351
0.00237645
0.000369939
-0.00882718
-0.00467803
0.016464
-0.000853612
-0.0123138
-0.00547085
0.0130073
-0.00357667
-0.00494922
-0.00271849
-0.00413627
-0.00487471
0.00970949
0.00308994
-0.0250823
-0.0131893
0.0515833
-0.00535389
-0.0239936
-0.00227868
-0.0155545
-0.00637012
0.0168334
0.00281604
-0.0266439
-0.000402949
0.00868503
0.00509385
-0.0173391
-0.00405473
0.0269083
-0.00509978
0.006175
0.00770676
-0.0393901
-0.00422334
0.0565349
0.0119444
-0.0558481
0.057388
0.0126671
0.0581839
0.0132174
0.0587098
0.0134896
0.0588434
0.0134869
0.0585391
0.0132527
0.0578063
0.0128364
0.0566929
0.012288
0.0552673
0.0116538
0.0536052
0.0109719
0.0517798
0.0102724
0.0498565
0.00957778
0.04789
0.00890445
0.0459231
0.00826335
0.043988
0.00766122
0.0421071
0.00710147
0.040295
0.00658502
0.0385603
0.00611108
0.0369073
0.00567773
0.035337
0.00528236
0.0338483
0.00492206
0.0324387
0.0045938
0.0311049
0.00429462
0.0298431
0.00402173
0.0286493
0.00377254
0.0275193
0.00354467
0.0264493
0.00333599
0.0254353
0.00314459
0.0244736
0.00296874
0.0235608
0.00280694
0.0226937
0.0026578
0.0218692
0.00252014
0.0210845
0.00239287
0.0203369
0.00227505
0.019624
0.00216582
0.0189436
0.00206442
0.0182934
0.00197019
0.0176717
0.00188252
0.0170764
0.00180088
0.0165061
0.00172478
0.015959
0.00165379
0.0154337
0.00158754
0.0149288
0.00152566
0.0144431
0.00146786
0.0139753
0.00141385
0.0135244
0.00136337
0.0130892
0.00131621
0.0126687
0.00127216
0.0122621
0.00123104
0.0118684
0.00119269
0.0114867
0.00115696
0.0111162
0.00112373
0.0107562
0.00109284
0.010406
0.00106424
0.0100648
0.00103776
0.00973185
0.00101339
0.00940665
0.000990963
0.00908847
0.000970534
0.00877675
0.000951858
0.00847083
0.000935121
0.0081702
0.000919954
0.00787423
0.00090671
0.00758244
0.000894829
0.00729421
0.000884914
0.00700912
0.000876107
0.00672652
0.000869378
0.00644611
0.000863408
0.00616718
0.000859699
0.00588955
0.000856258
0.00561247
0.000855341
0.00533593
0.000853993
0.00505911
0.000855536
0.00478226
0.000855661
0.00450443
0.000859179
0.00422626
0.00085991
0.00394663
0.000864737
0.00366669
0.000864924
0.00338508
0.000870227
0.00310363
0.000868381
0.00282059
0.000873279
0.00253881
0.000867425
0.00225576
0.000871239
0.00197599
0.000858495
0.0016953
0.000861297
0.00142132
0.000837157
0.00114649
0.000839663
0.000882778
0.000801886
0.000621021
0.000792982
0.000363901
0.000784503
0.000146416
0.000632598
-0.000164818
0.000987179
-0.000223106
8.92286e-05
-0.000633624
0.00128555
-0.00068732
0.000201004
-0.000782236
4.58667e-05
-0.0014241
0.00245274
-0.000672451
-0.00302773
-0.00253661
0.00668164
-0.000746429
-0.00651805
-0.0023265
0.00475918
-0.00264192
0.00269182
0.000379272
-0.0118484
-0.00553121
0.0223745
-0.000979303
-0.0168657
-0.00688996
0.018918
-0.00447653
-0.00736267
-0.00385225
-0.00476053
-0.00572803
0.0115852
0.00402722
-0.0348375
-0.0152869
0.0708974
-0.00591152
-0.0333689
-0.00381538
-0.0176505
-0.00765292
0.020671
0.00383152
-0.0381284
-0.00030093
0.0128175
0.00647763
-0.0241176
-0.00489876
0.0382847
-0.00559981
0.00687601
0.00986772
-0.0548576
-0.00512979
0.0605386
0.0113815
-0.0599757
0.0612227
0.011983
0.0619369
0.0125032
0.0625584
0.0128681
0.0629897
0.0130557
0.0631668
0.0130756
0.063054
0.0129491
0.062641
0.0127009
0.0619381
0.0123567
0.0609698
0.0119402
0.0597707
0.0114714
0.0583805
0.010968
0.0568404
0.0104445
0.0551905
0.00991324
0.0534676
0.00938402
0.0517043
0.00886476
0.0499278
0.00836151
0.0481602
0.00787868
0.0464186
0.00741924
0.044716
0.00698495
0.0430615
0.00657657
0.0414612
0.00619411
0.0399188
0.005837
0.0384362
0.00550427
0.0370141
0.0051947
0.0356518
0.00490695
0.0343482
0.0046396
0.0331015
0.00439123
0.0319098
0.00416047
0.0307707
0.00394599
0.029682
0.00374655
0.0286412
0.00356098
0.0276458
0.00338821
0.0266937
0.00322723
0.0257823
0.00307715
0.0249097
0.00293712
0.0240735
0.00280638
0.0232718
0.00268423
0.0225027
0.00257004
0.0217642
0.00246324
0.0210547
0.0023633
0.0203725
0.00226975
0.0197161
0.00218215
0.0190838
0.00210011
0.0184744
0.00202328
0.0178865
0.00195133
0.0173187
0.00188396
0.01677
0.00182093
0.016239
0.00176198
0.0157248
0.00170691
0.0152263
0.00165551
0.0147424
0.00160762
0.0142722
0.00156304
0.0138148
0.00152169
0.0133692
0.00148334
0.0129347
0.00144799
0.0125102
0.00141539
0.0120952
0.00138563
0.0116887
0.00135838
0.0112899
0.00133388
0.0108982
0.00131165
0.0105128
0.00129214
0.010133
0.00127462
0.00975806
0.00125988
0.00938738
0.00124679
0.00902014
0.00123662
0.00865591
0.00122764
0.00829379
0.00122182
0.0079335
0.00121655
0.00757406
0.00121477
0.00721543
0.00121262
0.00685653
0.00121444
0.00649763
0.00121456
0.00613751
0.0012193
0.00577689
0.00122052
0.00541435
0.00122727
0.00505126
0.00122801
0.00468589
0.0012356
0.00432047
0.0012338
0.00395279
0.00124096
0.00358634
0.00123387
0.003218
0.00123958
0.00285332
0.00122317
0.00248721
0.00122741
0.00212898
0.00119539
0.00176949
0.00119915
0.00142338
0.00114799
0.00107926
0.0011371
0.000741939
0.00112182
0.000449163
0.000925377
4.94439e-05
0.00138689
-4.56776e-05
0.00018436
-0.000573507
0.00181337
-0.000648631
0.000276135
-0.000817353
0.000214591
-0.00156015
0.00319554
-0.000735734
-0.00385215
-0.00292373
0.00886963
-0.000862605
-0.00857918
-0.00286337
0.00675997
-0.00302988
0.00285827
0.000355119
-0.0152334
-0.00634335
0.0290729
-0.00106674
-0.0221423
-0.00835103
0.0262024
-0.00544137
-0.0102724
-0.00523117
-0.00497069
-0.00663134
0.0129854
0.00501994
-0.0464888
-0.0170733
0.0929906
-0.00624609
-0.0441962
-0.00565283
-0.0182436
-0.00899713
0.0240152
0.00473675
-0.0518624
-0.000184983
0.0177392
0.0080584
-0.032361
-0.00554287
0.051886
-0.00589813
0.00723124
0.0120734
-0.0728292
-0.00606731
0.0648212
0.0108972
-0.0643369
0.0653863
0.0114179
0.0659936
0.0118959
0.066578
0.0122837
0.0670768
0.0125568
0.0674415
0.0127109
0.0676367
0.0127539
0.0676385
0.0126992
0.0674335
0.0125617
0.0670178
0.0123559
0.066395
0.0120943
0.0655756
0.0117874
0.0645754
0.0114447
0.0634144
0.0110743
0.0621152
0.0106832
0.0607019
0.010278
0.0591989
0.00986448
0.0576296
0.00944795
0.0560158
0.00903307
0.0543768
0.0086239
0.0527295
0.00822382
0.0510881
0.0078355
0.0494641
0.00746098
0.0478667
0.00710169
0.0463029
0.00675853
0.0447778
0.00643196
0.0432953
0.00612211
0.0418577
0.0058288
0.0404665
0.00555168
0.0391223
0.00529022
0.037825
0.00504381
0.0365743
0.00481177
0.0353691
0.00459339
0.0342084
0.00438793
0.0330909
0.0041947
0.032015
0.00401298
0.0309793
0.00384211
0.0299821
0.00368143
0.0290218
0.00353034
0.0280968
0.00338827
0.0272054
0.00325469
0.0263461
0.00312908
0.0255173
0.00301099
0.0247174
0.00289998
0.0239451
0.00279566
0.0231988
0.00269764
0.0224771
0.00260561
0.0217788
0.00251925
0.0211025
0.00243828
0.020447
0.00236245
0.019811
0.00229151
0.0191934
0.00222526
0.018593
0.00216346
0.0180087
0.00210599
0.0174395
0.0020526
0.0168842
0.00200327
0.0163419
0.00195769
0.0158116
0.00191598
0.0152922
0.00187771
0.0147829
0.0018432
0.0142828
0.00181182
0.0137907
0.00178417
0.0133061
0.0017593
0.0128277
0.00173823
0.012355
0.00171951
0.0118868
0.00170478
0.0114227
0.0016918
0.0109614
0.00168313
0.0105025
0.00167538
0.0100449
0.00167239
0.0095884
0.00166911
0.00913163
0.0016712
0.00867488
0.0016713
0.00821657
0.00167761
0.00775755
0.00167954
0.007296
0.00168882
0.00683354
0.00169047
0.00636797
0.00170117
0.00590198
0.00169979
0.0054328
0.00171014
0.00496466
0.00170201
0.0044937
0.00171054
0.00402666
0.00169021
0.00355739
0.00169668
0.00309709
0.00165569
0.0026349
0.00166134
0.00218839
0.00159449
0.00174374
0.00158175
0.00130843
0.00155713
0.000922131
0.00131168
0.000423785
0.00188523
0.000254291
0.000353864
-0.000398147
0.00246581
-0.000501611
0.000379607
-0.000770606
0.000483588
-0.00161695
0.00404189
-0.000741554
-0.00472754
-0.00325384
0.0113819
-0.000938316
-0.0108947
-0.00339544
0.00921711
-0.00339544
0.00285822
0.000293138
-0.018922
-0.00710319
0.0364693
-0.00110391
-0.0281416
-0.00979231
0.0348908
-0.00643975
-0.013625
-0.0068293
-0.00458109
-0.0076245
0.0137805
0.00597122
-0.0600845
-0.0185253
0.117487
-0.00629982
-0.0564216
-0.00760787
-0.0169354
-0.0104252
0.0268326
0.00530623
-0.0675939
-9.86027e-05
0.0231441
0.009847
-0.0423066
-0.0058354
0.0675685
-0.00596185
0.00735765
0.0141917
-0.0929827
-0.00719481
0.0693915
0.0104699
-0.0689642
0.0698747
0.0109346
0.0703949
0.0113757
0.0709164
0.0117622
0.0713995
0.0120737
0.0718104
0.0122999
0.0721232
0.0124411
0.0723183
0.012504
0.0723818
0.0124982
0.0723035
0.0124341
0.0720765
0.0123212
0.0716971
0.0121668
0.0711645
0.0119772
0.0704813
0.0117575
0.0696527
0.0115117
0.0686874
0.0112433
0.0675964
0.0109554
0.0663932
0.0106511
0.0650927
0.0103336
0.0637107
0.0100058
0.0622634
0.00967117
0.0607662
0.00933266
0.0592339
0.00899323
0.05768
0.00865556
0.0561165
0.00832203
0.0545538
0.00799465
0.0530008
0.00767511
0.0514649
0.00736473
0.0499521
0.00706452
0.0484671
0.00677521
0.0470136
0.00649726
0.0455945
0.00623093
0.0442115
0.00597632
0.0428661
0.00573335
0.041559
0.00550187
0.0402903
0.00528165
0.0390601
0.00507237
0.0378678
0.00487368
0.036713
0.00468522
0.0355947
0.0045066
0.0345119
0.00433742
0.0334637
0.0041773
0.0324489
0.00402585
0.0314662
0.00388268
0.0305145
0.00374745
0.0295923
0.00361981
0.0286985
0.00349943
0.0278318
0.00338602
0.0269908
0.00327928
0.0261743
0.00317898
0.025381
0.00308482
0.0246096
0.00299662
0.023859
0.00291411
0.0231278
0.00283716
0.0224149
0.00276548
0.0217191
0.00269907
0.0210393
0.00263755
0.0203742
0.0025811
0.0197227
0.00252919
0.0190837
0.00248223
0.0184561
0.00243943
0.0178387
0.00240158
0.0172306
0.00236746
0.0166304
0.0023384
0.0160374
0.00231253
0.0154502
0.00229199
0.0148681
0.00227391
0.0142896
0.00226157
0.0137144
0.00225064
0.0131407
0.00224604
0.0125685
0.00224133
0.0119959
0.00224375
0.0114233
0.00224387
0.0108487
0.0022522
0.0102731
0.00225518
0.00969408
0.00226784
0.0091136
0.00227095
0.00852889
0.00228588
0.00794316
0.00228552
0.00735292
0.00230038
0.0067633
0.00229164
0.00616951
0.00230432
0.00557968
0.00228004
0.00498638
0.00228997
0.00440299
0.00223907
0.0038167
0.00224764
0.00324837
0.00216282
0.00268145
0.00214867
0.00212679
0.00211178
0.00162486
0.00181361
0.00100635
0.00250374
0.000740673
0.000619555
-6.64561e-05
0.00327293
-0.00019559
0.000508749
-0.000602999
0.000890998
-0.00155547
0.00499436
-0.000657135
-0.00562588
-0.00349211
0.0142169
-0.000939774
-0.0134471
-0.00388229
0.0121596
-0.00371712
0.00269299
0.000195892
-0.022835
-0.0078026
0.0444677
-0.0010802
-0.034864
-0.0111459
0.0449566
-0.00742121
-0.0173497
-0.00857652
-0.00342573
-0.00873634
0.0139403
0.00675381
-0.0755747
-0.019668
0.143909
-0.00600131
-0.0700884
-0.00939992
-0.0135366
-0.0119089
0.0293416
0.00532466
-0.0848275
-0.000100927
0.0285697
0.0118356
-0.0542431
-0.00560984
0.0850139
-0.00572655
0.00747433
0.0161063
-0.114816
-0.00875371
0.074269
0.0100871
-0.0738863
0.0746931
0.0105106
0.0751474
0.0109214
0.0756112
0.0112984
0.0760587
0.0116262
0.0764653
0.0118933
0.0768113
0.0120952
0.0770819
0.0122333
0.0772668
0.0123133
0.0773587
0.0123422
0.0773518
0.0123281
0.0772408
0.0122777
0.0770216
0.0121965
0.0766901
0.012089
0.0762432
0.0119586
0.0756791
0.0118074
0.0749974
0.011637
0.0742001
0.0114485
0.0732908
0.0112428
0.0722758
0.0110209
0.0711629
0.0107841
0.0699616
0.010534
0.0686825
0.0102723
0.0673371
0.010001
0.0659369
0.00972222
0.0644934
0.00943817
0.0630175
0.00915097
0.0615196
0.00886264
0.060009
0.0085751
0.0584942
0.00829004
0.0569825
0.00800895
0.0554803
0.00773311
0.0539931
0.00746358
0.0525252
0.0072012
0.0510804
0.00694664
0.0496617
0.00670041
0.0482712
0.00646284
0.0469108
0.00623417
0.0455815
0.00601453
0.0442841
0.00580395
0.0430192
0.00560241
0.0417866
0.00540982
0.0405865
0.00522605
0.0394182
0.00505094
0.0382814
0.00488431
0.0371752
0.00472596
0.036099
0.00457569
0.0350517
0.0044333
0.0340324
0.00429858
0.0330401
0.00417134
0.0320736
0.00405135
0.0311317
0.00393847
0.0302134
0.00383244
0.0293174
0.0037332
0.0284425
0.00364041
0.0275874
0.00355415
0.026751
0.00347399
0.0259319
0.0034002
0.025129
0.00333214
0.0243408
0.00327037
0.0235664
0.00321393
0.0228041
0.00316383
0.022053
0.00311856
0.0213116
0.00307984
0.0205788
0.00304531
0.0198531
0.00301771
0.0191336
0.00299342
0.0184185
0.00297662
0.0177073
0.00296184
0.016998
0.00295534
0.0162904
0.00294896
0.0155822
0.00295191
0.0148739
0.00295224
0.0141628
0.0029633
0.0134501
0.00296788
0.0127328
0.00298509
0.0120133
0.00299049
0.0112879
0.00301123
0.0105606
0.00301282
0.00982695
0.00303402
0.0090931
0.00302549
0.00835315
0.00304427
0.00761683
0.00301636
0.0068752
0.0030316
0.00614412
0.00297016
0.00540855
0.0029832
0.00469306
0.00287831
0.00397805
0.00286368
0.00327853
0.0028113
0.00263441
0.00245773
0.00187149
0.00326666
0.00148274
0.00100831
0.000530361
0.00422531
0.000301744
0.000737375
-0.000265724
0.00145847
-0.00132279
0.00605142
-0.000438562
-0.0065101
-0.00359306
0.0173714
-0.000819465
-0.0162207
-0.00427121
0.0156114
-0.00395942
0.00238112
7.61945e-05
-0.0268706
-0.00843131
0.0529752
-0.0009842
-0.0423112
-0.0123422
0.0563146
-0.00831496
-0.0213769
-0.0103553
-0.00138537
-0.0099635
0.0135485
0.00723521
-0.0927734
-0.0205496
0.171694