/*--------------------------------*- C++ -*----------------------------------*\
| =========                 |                                                 |
| \\      /  F ield         | OpenFOAM: The Open Source CFD Toolbox           |
|  \\    /   O peration     | Version:  2412                                  |
|   \\  /    A nd           | Website:  www.openfoam.com                      |
|    \\/     M anipulation  |                                                 |
\*---------------------------------------------------------------------------*/
FoamFile
{
    version     2.0;
    format      ascii;
    arch        "LSB;label=32;scalar=64";
    class       volVectorField;
    location    "1.74";
    object      U;
}
// * * * * * * * * * * * * * * * * * * * * * * * * * * * * * * * * * * * * * //

dimensions      [0 1 -1 0 0 0 0];

internalField   nonuniform List<vector> 
12600
(
(18.7157 1.2247e-21 2.09159)
(11.606 1.60606e-20 0.449951)
(7.34382 1.88867e-20 -0.477677)
(5.0854 0 -0.708681)
(3.97392 1.70728e-20 -0.681781)
(3.3339 1.58995e-20 -0.607158)
(2.89306 0 -0.539544)
(2.56207 0 -0.484155)
(2.30259 -4.7789e-20 -0.438736)
(2.09254 0 -0.401019)
(1.91822 2.00416e-20 -0.369163)
(1.77071 1.83494e-20 -0.341843)
(1.6439 -1.68081e-20 -0.318111)
(1.53346 0 -0.297273)
(1.43622 -1.40839e-20 -0.278804)
(1.34978 0 -0.262302)
(1.27233 4.73102e-20 -0.247453)
(1.20243 0 -0.234006)
(1.13895 -1.97932e-20 -0.221761)
(1.08099 -1.80986e-20 -0.210554)
(1.0278 1.65177e-20 -0.200251)
(0.97878 5.44152e-24 -0.190739)
(0.933415 0 -0.181926)
(0.891283 -2.48987e-20 -0.173732)
(0.852024 0 -0.16609)
(0.815331 0 -0.158942)
(0.780941 -1.84406e-20 -0.152239)
(0.748626 0 -0.145938)
(0.718189 4.01508e-24 -0.14)
(0.689456 1.33075e-20 -0.134393)
(0.662276 1.1841e-20 -0.129088)
(0.636514 1.04826e-20 -0.124059)
(0.612053 -9.22494e-21 -0.119284)
(0.588786 -1.61217e-20 -0.114741)
(0.566618 -1.39677e-20 -0.110413)
(0.545464 1.19653e-20 -0.106283)
(0.525249 0 -0.102337)
(0.505902 -8.4354e-21 -0.0985605)
(0.487362 0 -0.0949419)
(0.469571 5.42031e-21 -0.0914701)
(0.452477 0 -0.0881349)
(0.436033 1.74269e-23 -0.084927)
(0.420194 0 -0.0818379)
(0.404921 1.58776e-23 -0.0788597)
(0.390177 -5.09539e-22 -0.0759852)
(0.375926 2.22937e-21 -0.0732078)
(0.362138 -3.82764e-21 -0.070521)
(0.348783 0 -0.0679193)
(0.335833 0 -0.0653972)
(0.323262 -7.77483e-21 -0.0629496)
(0.311047 -1.77031e-20 -0.0605718)
(0.299164 -1.96437e-20 -0.0582594)
(0.287593 1.94182e-23 -0.0560082)
(0.276313 -2.29245e-20 -0.0538144)
(0.265306 0 -0.0516742)
(0.254553 2.55501e-20 -0.0495841)
(0.24404 2.66231e-20 -0.0475411)
(0.233748 2.75417e-20 -0.0455417)
(0.223664 0 -0.0435834)
(0.213774 0 -0.0416631)
(0.204064 0 -0.0397784)
(0.19452 -6.01437e-20 -0.0379266)
(0.185135 0 -0.0361058)
(0.175891 0 -0.0343132)
(0.166786 1.23597e-19 -0.0325478)
(0.157803 0 -0.0308065)
(0.148941 0 -0.0290891)
(0.140184 0 -0.0273925)
(0.131538 -1.23713e-19 -0.0257175)
(0.122984 1.2311e-19 -0.0240607)
(0.114534 1.22297e-19 -0.0224241)
(0.106169 2.33021e-23 -0.0208042)
(0.0979061 -1.20069e-19 -0.0192044)
(0.0897292 0 -0.0176212)
(0.0816603 1.17142e-19 -0.0160589)
(0.0736875 0 -0.0145152)
(0.0658337 0 -0.0129944)
(0.0581004 0 -0.0114969)
(0.0504994 2.81896e-23 -0.0100246)
(0.0430647 2.14762e-19 -0.00858439)
(0.0357657 2.10214e-19 -0.00716999)
(0.0287205 -2.05393e-19 -0.00580439)
(0.0217677 -2.005e-19 -0.00445624)
(0.015258 0 -0.00319325)
(0.00865007 0 -0.00191107)
(0.00293403 3.69773e-19 -0.000800203)
(-0.00342921 -7.17746e-19 0.000435613)
(-0.00800324 6.95919e-19 0.00132688)
(-0.0140374 3.36625e-19 0.00249819)
(-0.0182108 0 0.00331152)
(-0.0203565 -6.28477e-19 0.00374192)
(-0.0338172 3.0186e-19 0.00627229)
(-0.0132034 -2.94012e-19 0.00243325)
(-0.0570261 5.49655e-19 0.0107758)
(-0.00764949 0 0.00126073)
(-0.0564377 0 0.0108295)
(-0.0467415 0 0.00833272)
(0.0063149 0 -0.000539827)
(-0.17186 0 0.0320007)
(0.146831 0 -0.0276265)
(-0.251548 -3.25702e-19 0.0480372)
(0.0903433 -9.51811e-19 -0.0187147)
(-0.0641752 -6.12788e-19 0.0142749)
(-0.26126 0 0.0475782)
(0.208442 0 -0.0383019)
(-0.500964 0 0.0953259)
(0.341446 -8.11292e-19 -0.0648505)
(-0.435747 -7.26962e-19 0.0839845)
(0.109285 7.71682e-19 -0.0242149)
(-0.00676803 0 0.00544095)
(-0.825092 -1.14095e-18 0.154304)
(0.432166 0 -0.0824688)
(-0.363721 -8.06364e-19 0.0722724)
(0.0606527 1.13165e-18 -0.013655)
(-0.0667023 -8.63355e-19 0.0128121)
(-0.00462135 -1.01256e-18 -0.000793285)
(0.218149 8.58448e-19 -0.0400755)
(-0.365634 -5.7866e-23 0.0699747)
(0.0453258 8.1699e-19 -0.0108715)
(0.160193 0 -0.0308667)
(29.1171 -1.23634e-21 4.02139)
(25.0779 0 1.85508)
(20.2215 -1.91154e-20 -0.214703)
(16.0608 0 -1.21177)
(13.1057 -1.72997e-20 -1.50674)
(11.0659 -3.03749e-20 -1.51765)
(9.59566 -1.40601e-20 -1.44009)
(8.48501 0 -1.34261)
(7.61315 3.55668e-22 -1.24735)
(6.90737 -2.18594e-20 -1.16037)
(6.3221 2.00695e-20 -1.08238)
(5.82736 1.84235e-20 -1.01263)
(5.40255 -1.69101e-20 -0.950126)
(5.03305 1.55175e-20 -0.893894)
(4.70812 2.85266e-20 -0.843074)
(4.41969 0 -0.796934)
(4.16157 -6.46399e-23 -0.754855)
(3.92894 2.19077e-20 -0.716318)
(3.71798 2.00812e-20 -0.680883)
(3.5256 0 -0.64818)
(3.34929 0 -0.617895)
(3.18699 1.52643e-20 -0.589757)
(3.037 0 -0.563539)
(2.89786 1.26218e-20 -0.53904)
(2.76837 -2.28838e-20 -0.516089)
(2.64748 0 -0.494538)
(2.53432 1.86905e-20 -0.474254)
(2.4281 0 -0.455125)
(2.32817 -1.50833e-20 -0.437047)
(2.23395 -2.69597e-20 -0.419932)
(2.14491 -2.39843e-20 -0.4037)
(2.06061 -1.06103e-20 -0.38828)
(1.98065 9.33473e-21 -0.373607)
(1.90468 3.26353e-20 -0.359625)
(1.83237 2.82689e-20 -0.346282)
(1.76344 0 -0.333532)
(1.69763 0 -0.321331)
(1.63472 -1.71805e-23 -0.309641)
(1.57449 0 -0.298427)
(1.51675 -5.47203e-21 -0.287657)
(1.46133 0 -0.277301)
(1.40807 -5.77386e-21 -0.267332)
(1.35682 0 -0.257725)
(1.30744 -1.4126e-21 -0.248456)
(1.25982 0 -0.239504)
(1.21384 -2.24483e-21 -0.23085)
(1.16939 0 -0.222474)
(1.12638 0 -0.214359)
(1.08471 6.5866e-21 -0.20649)
(1.04429 0 -0.19885)
(1.00506 0 -0.191426)
(0.966925 0 -0.184203)
(0.929823 2.14341e-20 -0.177171)
(0.893687 4.59351e-20 -0.170316)
(0.858454 0 -0.163627)
(0.824068 0 -0.157094)
(0.79047 -2.65987e-20 -0.150707)
(0.75761 -2.75403e-20 -0.144456)
(0.725439 0 -0.138333)
(0.693909 0 -0.132328)
(0.662978 0 -0.126435)
(0.632601 0 -0.120643)
(0.602745 -6.05941e-20 -0.114949)
(0.573366 6.10968e-20 -0.109343)
(0.544441 -1.22893e-19 -0.103822)
(0.515925 0 -0.0983762)
(0.487807 0 -0.0930061)
(0.460041 0 -0.0876993)
(0.432631 4.72047e-23 -0.0824616)
(0.40553 -1.21933e-19 -0.0772787)
(0.378758 -1.21017e-19 -0.0721609)
(0.352269 2.39744e-19 -0.0670923)
(0.3261 3.5676e-23 -0.0620885)
(0.300211 -1.17071e-19 -0.0571328)
(0.274651 -1.15475e-19 -0.0522452)
(0.249401 0 -0.0474103)
(0.224506 0 -0.0426507)
(0.199996 0 -0.0379562)
(0.175875 2.15158e-19 -0.0333459)
(0.152276 0 -0.0288255)
(0.129074 0 -0.0243932)
(0.106657 2.01022e-19 -0.020099)
(0.0845119 1.96023e-19 -0.0158717)
(0.0637139 0 -0.0118879)
(0.0426394 0 -0.00786827)
(0.024231 0 -0.00434441)
(0.00395079 6.98612e-19 -0.000476819)
(-0.0110078 -4.04195e-23 0.00237569)
(-0.0303099 3.26909e-19 0.00608189)
(-0.0437124 -3.15829e-19 0.00856555)
(-0.0523043 6.09072e-19 0.0103626)
(-0.0909191 2.92176e-19 0.0174285)
(-0.0355047 5.68655e-19 0.00712496)
(-0.161124 0 0.031168)
(-0.0190992 0 0.00316873)
(-0.166323 0 0.0332104)
(-0.126296 0 0.0222317)
(0.00385855 4.53861e-19 0.00224622)
(-0.483918 0 0.0901974)
(0.406523 0 -0.0773432)
(-0.740528 -3.1218e-19 0.144724)
(0.296181 4.5587e-19 -0.0628719)
(-0.227048 1.1732e-18 0.0530438)
(-0.704414 -7.57855e-19 0.128342)
(0.551482 0 -0.10153)
(-1.45888 0 0.279767)
(0.984973 0 -0.191997)
(-1.31799 3.46222e-19 0.259257)
(0.429102 -7.34413e-19 -0.0936089)
(-0.1078 0 0.0409157)
(-2.28332 2.16646e-18 0.430978)
(1.24058 1.34006e-18 -0.247369)
(-1.17878 1.53014e-18 0.235261)
(0.277064 0 -0.0600094)
(-0.203434 0 0.0406138)
(0.0448194 -9.57911e-19 -0.0142595)
(0.589269 0 -0.106862)
(-1.08216 -7.14229e-19 0.211126)
(0.211635 -7.7122e-19 -0.0502328)
(0.489085 0 -0.095503)
(31.8604 0 3.8924)
(31.0465 0 2.81478)
(28.5189 -1.29489e-20 1.02085)
(25.1797 0 -0.384251)
(21.9324 0 -1.22691)
(19.1638 1.50995e-20 -1.6509)
(16.9094 1.3315e-20 -1.8188)
(15.0873 0 -1.85026)
(13.6022 4.20223e-22 -1.81653)
(12.3739 2.07088e-20 -1.75406)
(11.3421 -3.78183e-20 -1.68033)
(10.4626 -1.74562e-20 -1.60367)
(9.70313 1.14488e-22 -1.52807)
(9.04002 -1.47041e-20 -1.45538)
(8.45536 -1.34892e-20 -1.38638)
(7.93543 1.23194e-20 -1.32133)
(7.46959 -2.26705e-20 -1.26021)
(7.04943 -2.07607e-20 -1.20287)
(6.66822 0 -1.14909)
(6.32053 0 -1.09863)
(6.0019 1.58257e-20 -1.05123)
(5.70863 1.44329e-20 -1.00666)
(5.43766 0 -0.964695)
(5.18639 0 -0.925127)
(4.95264 2.16837e-20 -0.887764)
(4.73454 0 -0.852434)
(4.53046 -3.54137e-20 -0.818977)
(4.33904 1.59356e-20 -0.787249)
(4.15904 0 -0.757119)
(3.98942 1.27738e-20 -0.728467)
(3.82925 1.13643e-20 -0.701187)
(3.6777 0 -0.675178)
(3.53405 -8.85575e-21 -0.650352)
(3.39764 -1.54646e-20 -0.626626)
(3.26791 1.1986e-23 -0.603925)
(3.14433 0 -0.58218)
(3.02643 0 -0.561328)
(2.91379 8.08655e-21 -0.54131)
(2.80603 0 -0.522074)
(2.7028 0 -0.503569)
(2.60379 0 -0.48575)
(2.5087 0 -0.468573)
(2.41726 0 -0.452001)
(2.32924 0 -0.435995)
(2.2444 0 -0.420522)
(2.16254 2.0818e-21 -0.405549)
(2.08347 -3.59188e-21 -0.391047)
(2.00701 0 -0.376987)
(1.93298 -6.23155e-21 -0.363343)
(1.86124 0 -0.350091)
(1.79164 0 -0.337205)
(1.72405 1.85677e-20 -0.324665)
(1.65832 0 -0.31245)
(1.59436 -2.17027e-20 -0.300539)
(1.53203 2.29771e-20 -0.288913)
(1.47125 0 -0.277556)
(1.41189 2.51416e-20 -0.26645)
(1.35388 0 -0.255579)
(1.29712 0 -0.244928)
(1.24153 0 -0.234482)
(1.18703 5.57276e-20 -0.224229)
(1.13353 5.65558e-20 -0.214153)
(1.08099 2.83739e-23 -0.204247)
(1.02931 -1.15359e-19 -0.194492)
(0.978452 2.48779e-23 -0.184886)
(0.928344 0 -0.175409)
(0.878954 0 -0.166065)
(0.830207 -1.16084e-19 -0.15683)
(0.782096 3.79978e-23 -0.147716)
(0.73455 0 -0.138696)
(0.687583 0 -0.129789)
(0.64113 -1.13024e-19 -0.120965)
(0.59523 2.86919e-23 -0.112255)
(0.549837 2.66968e-23 -0.103624)
(0.505001 0 -0.0951127)
(0.460718 0 -0.0866867)
(0.417028 -2.10524e-19 -0.0783933)
(0.374013 2.06621e-19 -0.0702044)
(0.331641 0 -0.0621645)
(0.290175 0 -0.0542682)
(0.24936 0 -0.0465305)
(0.209893 0 -0.0390133)
(0.170873 0 -0.0316262)
(0.134135 0 -0.0246277)
(0.0969571 0 -0.0176034)
(0.0642352 0 -0.0113713)
(0.0284697 -6.56797e-19 -0.00462389)
(0.00156078 -3.1802e-19 0.000474011)
(-0.0325674 -3.07253e-19 0.00699792)
(-0.0564111 2.96778e-19 0.0112522)
(-0.0737919 -5.72173e-19 0.0151806)
(-0.136443 -2.74439e-19 0.0258887)
(-0.0522751 -2.6701e-19 0.0112876)
(-0.254871 0 0.0490643)
(-0.0259975 0 0.00395488)
(-0.272624 0 0.0559781)
(-0.192906 0 0.0310671)
(-0.0112883 -4.25797e-19 0.0116411)
(-0.76775 0 0.137319)
(0.63439 0 -0.116914)
(-1.21678 2.92708e-19 0.23913)
(0.523272 0 -0.117114)
(-0.42094 -5.49955e-19 0.10868)
(-1.07165 7.10198e-19 0.183123)
(0.823567 0 -0.140729)
(-2.37724 0 0.449839)
(1.58687 0 -0.310671)
(-2.215 3.24113e-19 0.441282)
(0.846768 0 -0.196186)
(-0.28336 -3.91954e-19 0.117381)
(-3.55061 -1.26694e-21 0.649577)
(1.9785 -1.25416e-18 -0.403218)
(-2.07096 -1.43241e-18 0.422111)
(0.597597 0 -0.138617)
(-0.350627 7.64986e-19 0.072666)
(0.150141 8.9601e-19 -0.0466466)
(0.902345 7.60178e-19 -0.150224)
(-1.77613 0 0.348512)
(0.448891 7.21119e-19 -0.117902)
(0.825315 0 -0.162695)
(32.3831 0 2.95093)
(32.9487 0 2.76466)
(32.3952 1.2241e-20 1.72051)
(30.753 0 0.519805)
(28.5016 -1.22868e-20 -0.484765)
(26.0875 2.4994e-20 -1.20718)
(23.7704 0 -1.66985)
(21.6661 -2.18184e-20 -1.93373)
(19.8081 2.09201e-20 -2.06278)
(18.1869 1.89189e-20 -2.10699)
(16.7749 1.7781e-20 -2.10016)
(15.541 -1.61613e-20 -2.06355)
(14.4567 1.50451e-20 -2.01009)
(13.4977 -2.7428e-20 -1.9476)
(12.6441 0 -1.8808)
(11.8795 -2.32399e-20 -1.81257)
(11.1907 0 -1.74464)
(10.5668 0 -1.67806)
(9.99881 0 -1.61345)
(9.47945 1.6346e-20 -1.55115)
(9.00253 -3.41632e-23 -1.49132)
(8.56289 -2.59889e-23 -1.434)
(8.1562 1.24105e-20 -1.3792)
(7.77874 0 -1.32683)
(7.42737 0 -1.27683)
(7.09936 0 -1.22908)
(6.79236 3.34787e-20 -1.18347)
(6.50434 -6.0261e-24 -1.13989)
(6.23351 0 -1.09824)
(5.97829 0 -1.0584)
(5.73732 0 -1.02027)
(5.50937 0 -0.983743)
(5.29335 1.67509e-20 -0.948737)
(5.0883 0 -0.915157)
(4.89334 -1.26767e-20 -0.882921)
(4.7077 0 -0.85195)
(4.53067 0 -0.822169)
(4.36161 -7.66767e-21 -0.793512)
(4.19996 0 -0.765911)
(4.04518 0 -0.739307)
(3.89679 3.72796e-21 -0.713642)
(3.75436 -5.23655e-21 -0.688863)
(3.61749 0 -0.66492)
(3.48579 -1.32895e-21 -0.641764)
(3.35894 0 -0.619352)
(3.23662 -3.91406e-21 -0.597642)
(3.11853 1.87737e-23 -0.576593)
(3.0044 0 -0.556168)
(2.89399 0 -0.536332)
(2.78705 6.9211e-21 -0.517051)
(2.68336 1.577e-20 -0.498293)
(2.58273 -3.50361e-20 -0.480027)
(2.48494 0 -0.462225)
(2.38983 -2.0439e-20 -0.44486)
(2.29722 -2.16895e-20 -0.427905)
(2.20695 -2.27436e-20 -0.411335)
(2.11886 -2.36858e-20 -0.395127)
(2.03282 0 -0.379259)
(1.94869 0 -0.363709)
(1.86634 -5.15653e-20 -0.348455)
(1.78564 -1.051e-19 -0.333481)
(1.70649 -5.33418e-20 -0.318764)
(1.62878 3.04308e-23 -0.304293)
(1.55239 5.43744e-20 -0.290042)
(1.47726 5.46576e-20 -0.276008)
(1.40327 0 -0.262161)
(1.33037 0 -0.248507)
(1.25845 1.09395e-19 -0.235012)
(1.18748 2.17862e-19 -0.221693)
(1.11738 0 -0.208508)
(1.04814 1.07413e-19 -0.195489)
(0.979676 1.06383e-19 -0.182589)
(0.912022 1.0523e-19 -0.169853)
(0.845129 2.07729e-19 -0.15723)
(0.779037 0 -0.14478)
(0.713765 0 -0.132449)
(0.649329 1.98108e-19 -0.120309)
(0.585883 -3.8876e-19 -0.108315)
(0.52333 -1.90501e-19 -0.0965359)
(0.462094 0 -0.084956)
(0.401757 0 -0.0736068)
(0.343356 0 -0.0625617)
(0.285576 0 -0.0517155)
(0.231037 0 -0.0413996)
(0.175911 0 -0.0310846)
(0.12704 -3.18244e-19 -0.0218419)
(0.0740145 3.96967e-23 -0.0119467)
(0.033366 2.98614e-19 -0.00431292)
(-0.0173477 0 0.00530908)
(-0.0530761 2.78573e-19 0.0114834)
(-0.0817822 2.68533e-19 0.0181764)
(-0.167559 0 0.0317184)
(-0.0611258 -2.50535e-19 0.0147643)
(-0.335346 -4.67487e-19 0.0646487)
(-0.0269423 0 0.00377903)
(-0.372477 0 0.0786283)
(-0.245352 0 0.0360773)
(-0.0369437 -3.99342e-19 0.0259188)
(-1.01975 0 0.176052)
(0.827596 0 -0.148482)
(-1.67272 2.74085e-19 0.330458)
(0.764335 -4.00173e-19 -0.178018)
(-0.640209 0 0.17703)
(-1.35648 0 0.217934)
(1.02126 0 -0.160586)
(-3.24043 0 0.607398)
(2.13086 0 -0.420355)
(-3.11617 -9.94993e-23 0.626766)
(1.35253 0 -0.323177)
(-0.518429 3.66776e-19 0.224007)
(-4.59439 -9.46816e-19 0.820673)
(2.61338 0 -0.544167)
(-3.01615 -2.45065e-22 0.62201)
(1.02286 0 -0.244674)
(-0.513176 7.16959e-24 0.110633)
(0.310292 0 -0.0931646)
(1.15793 -7.10739e-19 -0.175737)
(-2.42582 0 0.478532)
(0.747781 6.73616e-19 -0.206662)
(1.16191 0 -0.230544)
(32.4864 0 2.09876)
(33.2439 0 2.22438)
(33.5902 0 1.74942)
(33.2258 0 0.95567)
(32.2035 1.15978e-20 0.114225)
(30.7305 -8.99566e-22 -0.634536)
(29.0122 0 -1.23525)
(27.2073 2.05936e-20 -1.67878)
(25.4254 0 -1.9823)
(23.7324 -3.52145e-20 -2.17405)
(22.1606 0 -2.28262)
(20.7202 1.52574e-20 -2.33198)
(19.4085 0 -2.34043)
(18.2169 2.58964e-20 -2.32119)
(17.1342 -1.1796e-20 -2.28358)
(16.1488 2.17974e-20 -2.23403)
(15.2498 -1.99555e-20 -2.17698)
(14.4273 -1.8318e-20 -2.11549)
(13.6727 0 -2.05167)
(12.9781 -1.54352e-20 -1.98695)
(12.3368 -1.41026e-20 -1.92235)
(11.7432 -2.56963e-20 -1.85854)
(11.1921 -1.17188e-20 -1.79597)
(10.6791 0 -1.73494)
(10.2004 0 -1.67564)
(9.7526 0 -1.61818)
(9.33284 -1.58008e-20 -1.56261)
(8.9385 -1.42241e-20 -1.50893)
(8.56729 0 -1.45714)
(8.2172 0 -1.40719)
(7.88641 1.0148e-20 -1.35903)
(7.57333 0 -1.31262)
(7.27653 1.33754e-24 -1.26787)
(6.99472 -1.38266e-20 -1.22473)
(6.72674 1.19825e-20 -1.18313)
(6.47155 0 -1.143)
(6.2282 0 -1.10427)
(5.99583 7.23691e-21 -1.06688)
(5.77366 0 -1.03076)
(5.56098 0 -0.995858)
(5.35714 -3.51794e-21 -0.962104)
(5.16153 4.94123e-21 -0.929444)
(4.97361 0 -0.897823)
(4.79288 1.25384e-21 -0.867188)
(4.61886 0 -0.83749)
(4.45112 1.83692e-21 -0.80868)
(4.28925 3.18306e-21 -0.780711)
(4.1329 0 -0.75354)
(3.9817 5.50398e-21 -0.727124)
(3.83534 -6.52699e-21 -0.701422)
(3.6935 -2.97117e-20 -0.676396)
(3.55591 1.65039e-20 -0.652009)
(3.42229 -1.79391e-20 -0.628224)
(3.2924 2.53516e-23 -0.605008)
(3.16598 0 -0.582329)
(3.04284 2.14367e-20 -0.560155)
(2.92274 2.23225e-20 -0.538457)
(2.80551 -2.30677e-20 -0.517204)
(2.69093 2.37226e-20 -0.496372)
(2.57884 4.85819e-20 -0.475931)
(2.46907 4.94879e-20 -0.45586)
(2.36145 -5.01821e-20 -0.436128)
(2.25584 5.07736e-20 -0.416723)
(2.1521 0 -0.39761)
(2.0501 0 -0.378785)
(1.9497 5.15428e-20 -0.360208)
(1.85081 0 -0.341889)
(1.75329 0 -0.323779)
(1.6571 -1.02496e-19 -0.305903)
(1.56211 0 -0.288205)
(1.46829 -1.01059e-19 -0.270727)
(1.37556 -2.0012e-19 -0.253403)
(1.28391 0 -0.236298)
(1.19331 -9.76654e-20 -0.219338)
(1.10377 0 -0.202607)
(1.01534 0 -0.186029)
(0.927999 -1.86138e-19 -0.169703)
(0.841982 1.82675e-19 -0.153562)
(0.757107 3.86016e-23 -0.137705)
(0.67398 0 -0.122099)
(0.591992 0 -0.106804)
(0.512553 0 -0.0918882)
(0.433904 -1.62747e-19 -0.077254)
(0.359478 1.5835e-19 -0.0632775)
(0.284331 0 -0.0493561)
(0.217243 5.97435e-19 -0.0367564)
(0.144948 2.89476e-19 -0.023419)
(0.0885306 -5.6041e-19 -0.0129099)
(0.0192457 -2.70615e-19 0.000127246)
(-0.0300697 -5.22634e-19 0.00839643)
(-0.0728155 0 0.0186133)
(-0.181079 0 0.0342452)
(-0.0591544 2.34918e-19 0.0170864)
(-0.399447 4.38276e-19 0.0769248)
(-0.02014 -4.39658e-19 0.00232656)
(-0.462604 0 0.100526)
(-0.282639 0 0.0366092)
(-0.0698515 3.74159e-19 0.0450942)
(-1.23731 3.40205e-19 0.204188)
(0.985811 0 -0.169717)
(-2.10098 -2.56687e-19 0.416068)
(1.01036 3.74719e-19 -0.244239)
(-0.877224 0 0.257593)
(-1.55707 0 0.228817)
(1.14697 0 -0.156995)
(-4.03313 0 0.745507)
(2.60157 0 -0.515835)
(-4.01013 -2.8376e-19 0.811943)
(1.92699 0 -0.474521)
(-0.792231 0 0.360967)
(-5.39149 0 0.928918)
(3.11655 1.09843e-18 -0.661618)
(-3.98497 6.26791e-19 0.830055)
(1.53705 0 -0.379737)
(-0.695479 -6.68826e-19 0.156305)
(0.522099 0 -0.155726)
(1.36202 -6.64934e-19 -0.179905)
(-3.00873 0 0.594955)
(1.08946 -6.29521e-19 -0.316737)
(1.49161 0 -0.297168)
(32.5589 -4.96745e-21 1.48472)
(33.1422 -6.16926e-21 1.62467)
(33.6686 7.32816e-21 1.43395)
(33.8939 8.26012e-21 0.973296)
(33.7013 0 0.381709)
(33.1028 -9.90373e-21 -0.233861)
(32.1718 0 -0.807626)
(30.9992 1.74034e-20 -1.30258)
(29.6737 1.66413e-20 -1.70332)
(28.2715 3.20996e-20 -2.01027)
(26.852 -1.47702e-20 -2.23315)
(25.4573 1.37838e-20 -2.38545)
(24.1146 0 -2.48109)
(22.8394 0 -2.53269)
(21.6389 1.11211e-20 -2.55087)
(20.515 -1.14344e-22 -2.54416)
(19.466 1.75721e-22 -2.5192)
(18.4884 1.3562e-22 -2.48105)
(17.5776 0 -2.43355)
(16.7289 0 -2.37958)
(15.9373 0 -2.32129)
(15.1981 2.41451e-20 -2.26028)
(14.5068 1.09851e-20 -2.19776)
(13.8595 0 -2.13461)
(13.2524 0 -2.07149)
(12.682 1.64436e-20 -2.00889)
(12.1454 0 -1.94716)
(11.6396 0 -1.88655)
(11.1623 0 -1.82723)
(10.7111 0 -1.76933)
(10.2839 -6.38742e-24 -1.71292)
(9.87897 0 -1.65804)
(9.49456 -1.62155e-24 -1.6047)
(9.12915 1.30337e-20 -1.55292)
(8.78134 2.57514e-24 -1.50266)
(8.44987 0 -1.45391)
(8.13358 0 -1.40662)
(7.83141 0 -1.36076)
(7.54239 0 -1.31628)
(7.26565 0 -1.27313)
(7.00035 0 -1.23127)
(6.74575 0 -1.19065)
(6.50114 -2.88008e-21 -1.15122)
(6.2659 -1.21747e-21 -1.11293)
(6.03942 0 -1.07572)
(5.82115 1.69617e-21 -1.03956)
(5.61057 0 -1.00438)
(5.4072 0 -0.970162)
(5.2106 -1.03529e-20 -0.936842)
(5.02034 0 -0.904381)
(4.83604 1.39766e-20 -0.872735)
(4.65732 0 -0.841865)
(4.48382 3.37574e-20 -0.811728)
(4.31524 2.45751e-23 -0.782288)
(4.15125 0 -0.753506)
(3.99158 0 -0.725345)
(3.83593 0 -0.697772)
(3.68406 4.34028e-20 -0.67075)
(3.5357 -4.46324e-20 -0.64425)
(3.39064 -4.56477e-20 -0.618236)
(3.24864 -4.64997e-20 -0.592684)
(3.10951 9.43944e-20 -0.567554)
(2.97303 4.77072e-20 -0.542834)
(2.83903 0 -0.518477)
(2.70732 0 -0.494484)
(2.57775 -2.42506e-23 -0.470799)
(2.45016 0 -0.447439)
(2.3244 0 -0.424339)
(2.20037 -9.62793e-20 -0.401534)
(2.07793 0 -0.37895)
(1.95702 0 -0.356642)
(1.83753 1.88002e-19 -0.334525)
(1.71943 -9.2917e-20 -0.312681)
(1.6027 0 -0.291014)
(1.48729 0 -0.269634)
(1.37332 0 -0.248437)
(1.26068 1.74812e-19 -0.227557)
(1.14973 0 -0.206896)
(1.04016 3.36057e-19 -0.186594)
(0.932784 -1.64359e-19 -0.166588)
(0.826783 0 -0.146979)
(0.723961 0 -0.127818)
(0.622088 1.52719e-19 -0.109032)
(0.525436 -2.50239e-23 -0.091018)
(0.427942 1.44357e-19 -0.0731378)
(0.340309 -2.80175e-19 -0.0568001)
(0.246476 2.71414e-19 -0.0396867)
(0.17199 2.6274e-19 -0.0259265)
(0.0818886 2.53727e-19 -0.00912704)
(0.0169998 2.8012e-23 0.00147224)
(-0.0427192 0 0.0159379)
(-0.173192 -2.26258e-19 0.0329009)
(-0.0428108 0 0.0177626)
(-0.443479 0 0.0854675)
(-0.00320147 4.11878e-19 -0.000600384)
(-0.539253 0 0.120977)
(-0.303401 0 0.03265)
(-0.106127 0 0.0685145)
(-1.41761 -3.18539e-19 0.22175)
(1.11008 0 -0.18114)
(-2.49383 -2.40036e-19 0.494064)
(1.25169 0 -0.313766)
(-1.12374 0 0.348645)
(-1.67435 0 0.217194)
(1.20655 0 -0.131095)
(-4.73834 0 0.862355)
(2.98487 -5.94779e-19 -0.594298)
(-4.88367 -2.65128e-19 0.992533)
(2.54278 5.61618e-19 -0.644891)
(-1.08434 0 0.524181)
(-5.92506 0 0.976334)
(3.46933 -2.05446e-18 -0.74899)
(-4.94339 0 1.03647)
(2.10647 8.18128e-19 -0.537465)
(-0.901517 0 0.211252)
(0.781309 7.3123e-19 -0.23302)
(1.52278 6.21369e-19 -0.164658)
(-3.50054 0 0.692576)
(1.44733 -5.87681e-19 -0.442654)
(1.80711 0 -0.360715)
(32.6138 4.67798e-21 1.03275)
(33.0248 1.13741e-20 1.12014)
(33.4708 -6.90273e-21 1.03746)
(33.8358 -7.80376e-22 0.774427)
(34.009 7.48095e-21 0.384477)
(33.9345 0 -0.0704771)
(33.6043 0 -0.541338)
(33.0387 -1.63878e-20 -0.992375)
(32.2731 -3.04387e-20 -1.39996)
(31.35 -7.07581e-22 -1.75107)
(30.3128 1.39069e-20 -2.04119)
(29.2021 -1.2978e-20 -2.27168)
(28.0529 1.17364e-20 -2.44738)
(26.8933 0 -2.57487)
(25.7449 0 -2.66133)
(24.6232 -9.52939e-21 -2.71376)
(23.5386 3.48687e-20 -2.73854)
(22.4975 3.20894e-20 -2.74125)
(21.5035 0 -2.72657)
(20.5578 0 -2.69841)
(19.6603 0 -2.65991)
(18.8098 -6.70915e-23 -2.61361)
(18.0045 -2.06351e-20 -2.56155)
(17.2424 9.37157e-21 -2.50532)
(16.5211 1.70293e-20 -2.44621)
(15.8381 -3.09171e-20 -2.3852)
(15.1912 1.39493e-20 -2.32309)
(14.578 1.25691e-20 -2.26049)
(13.9963 1.12865e-20 -2.19787)
(13.4441 0 -2.1356)
(12.9194 -9.00152e-21 -2.07398)
(12.4203 7.96408e-21 -2.01321)
(11.9452 -7.01854e-21 -1.95345)
(11.4924 -1.22645e-20 -1.89482)
(11.0606 -2.12688e-20 -1.83741)
(10.6483 0 -1.78126)
(10.2542 0 -1.72642)
(9.87725 -6.43974e-21 -1.67289)
(9.51627 0 -1.62069)
(9.17027 4.154e-21 -1.56979)
(8.83832 3.14437e-21 -1.52019)
(8.51953 0 -1.47185)
(8.21309 5.43621e-21 -1.42476)
(7.91825 1.14572e-21 -1.37888)
(7.63429 0 -1.33417)
(7.36056 -1.59603e-21 -1.29059)
(7.09643 -2.77478e-21 -1.2481)
(6.84133 0 -1.20667)
(6.59471 9.7109e-21 -1.16625)
(6.35606 -5.74119e-21 -1.1268)
(6.1249 -1.30937e-20 -1.08828)
(5.90077 0 -1.05065)
(5.68325 -2.48564e-23 -1.01387)
(5.47193 3.40087e-20 -0.977885)
(5.26643 0 -0.942672)
(5.06639 0 -0.908185)
(4.87145 -1.96975e-20 -0.874388)
(4.68131 -2.0394e-20 -0.84124)
(4.49565 4.19233e-20 -0.80871)
(4.31417 4.29099e-20 -0.776754)
(4.1366 4.3707e-20 -0.745349)
(3.96267 -4.4344e-20 -0.714447)
(3.79213 -8.96388e-20 -0.684034)
(3.62474 0 -0.654056)
(3.46029 0 -0.624513)
(3.29855 -9.10099e-20 -0.595339)
(3.13933 0 -0.566555)
(2.98246 0 -0.538082)
(2.82777 9.0427e-20 -0.509965)
(2.6751 0 -0.482107)
(2.52435 -8.90925e-20 -0.454585)
(2.37541 -3.21784e-23 -0.427285)
(2.22818 8.72314e-20 -0.400317)
(2.08266 0 -0.373551)
(1.93875 0 -0.347133)
(1.79661 0 -0.320922)
(1.65606 1.63954e-19 -0.295096)
(1.51756 0 -0.269516)
(1.38069 -1.57619e-19 -0.244374)
(1.24647 3.08317e-19 -0.219565)
(1.11384 0 -0.195244)
(0.985026 0 -0.17143)
(0.857312 0 -0.148098)
(0.735826 -2.4718e-23 -0.125633)
(0.61338 -1.35331e-19 -0.103409)
(0.502588 -2.62545e-19 -0.0829127)
(0.384657 -2.54381e-19 -0.0616562)
(0.289508 2.46156e-19 -0.0442261)
(0.176047 0 -0.0232776)
(0.0932829 2.29477e-19 -0.0100846)
(0.0133902 0 0.00941085)
(-0.139427 2.11928e-19 0.0268593)
(-0.00777865 0 0.0161898)
(-0.463245 0 0.0894728)
(0.0269556 0 -0.00539591)
(-0.598162 -3.4758e-19 0.139203)
(-0.305901 -3.52173e-19 0.0240164)
(-0.141209 0 0.0953982)
(-1.55816 2.97797e-19 0.22822)
(1.20368 -3.35634e-19 -0.182589)
(-2.84342 2.24596e-19 0.562351)
(1.47878 -3.28e-19 -0.384502)
(-1.37133 0 0.448131)
(-1.71373 0 0.18383)
(1.21009 0 -0.0833452)
(-5.34015 0 0.953836)
(3.27101 5.56172e-19 -0.652582)
(-5.72071 1.77009e-22 1.1636)
(3.16397 -1.04979e-18 -0.828502)
(-1.37763 0 0.709856)
(-6.19445 0 0.961221)
(3.67009 9.60387e-19 -0.802432)
(-5.85024 0 1.23107)
(2.67731 -7.64546e-19 -0.708811)
(-1.13499 0 0.276599)
(1.08085 -1.36627e-18 -0.324516)
(1.651 0 -0.130843)
(-3.87557 0 0.765707)
(1.78727 5.48988e-19 -0.578349)
(2.10136 0 -0.419588)
(32.6387 0 0.679678)
(32.9401 -5.23384e-21 0.723272)
(33.277 0 0.674043)
(33.6073 -6.58595e-21 0.511252)
(33.868 -1.34285e-20 0.249737)
(34.0083 0 -0.0787941)
(33.9997 6.70017e-21 -0.44294)
(33.8308 0 -0.816612)
(33.5021 8.9917e-22 -1.17961)
(33.0232 -2.58063e-20 -1.51746)
(32.4102 0 -1.82084)
(31.6833 0 -2.08486)
(30.8649 -1.10387e-20 -2.30793)
(29.9771 0 -2.49077)
(29.0411 0 -2.63569)
(28.0757 0 -2.74594)
(27.0971 -1.62886e-20 -2.82532)
(26.1187 -1.50058e-20 -2.87776)
(25.1511 -1.36154e-20 -2.90716)
(24.2021 0 -2.91713)
(23.2776 0 -2.91095)
(22.3817 -1.06069e-20 -2.89154)
(21.5168 9.67928e-21 -2.8614)
(20.6844 -8.81422e-21 -2.82268)
(19.8851 -1.60164e-20 -2.77718)
(19.1187 2.89624e-20 -2.7264)
(18.3848 -5.39967e-23 -2.67161)
(17.6825 -1.18211e-20 -2.61382)
(17.0108 -1.06148e-20 -2.5539)
(16.3684 0 -2.49253)
(15.7541 0 -2.43028)
(15.1665 -7.48968e-21 -2.3676)
(14.6044 0 -2.30487)
(14.0664 1.15334e-20 -2.24238)
(13.5513 9.99902e-21 -2.18037)
(13.0579 -8.57441e-21 -2.11902)
(12.5849 0 -2.05849)
(12.1312 6.05514e-21 -1.99888)
(11.6958 4.93894e-21 -1.94027)
(11.2776 3.69238e-24 -1.88273)
(10.8757 -5.91728e-21 -1.82629)
(10.4892 0 -1.77099)
(10.1171 -2.56246e-21 -1.71683)
(9.75874 0 -1.66382)
(9.41325 0 -1.61194)
(9.07993 0 -1.5612)
(8.75807 1.37347e-23 -1.51156)
(8.44705 0 -1.463)
(8.14621 -4.55644e-21 -1.4155)
(7.855 1.07777e-20 -1.36903)
(7.57285 1.23043e-20 -1.32354)
(7.29923 0 -1.27901)
(7.03364 -1.48815e-20 -1.23541)
(6.77562 -3.19074e-20 -1.19268)
(6.52469 0 -1.15081)
(6.28045 0 -1.10974)
(6.04247 1.85029e-20 -1.06944)
(5.81038 1.91188e-20 -1.02987)
(5.58378 -1.96789e-20 -0.991001)
(5.36235 -4.02324e-20 -0.952781)
(5.14573 0 -0.915188)
(4.93361 0 -0.878169)
(4.72566 2.84265e-23 -0.841711)
(4.52162 -4.23699e-20 -0.80575)
(4.3212 0 -0.770291)
(4.12415 4.27036e-20 -0.735255)
(3.93021 0 -0.700672)
(3.73916 0 -0.666443)
(3.5508 0 -0.632628)
(3.36494 0 -0.599107)
(3.18142 3.41418e-23 -0.565979)
(3.0001 -3.18817e-23 -0.533097)
(2.82086 -8.1772e-20 -0.500605)
(2.64368 0 -0.468332)
(2.46842 -7.95107e-20 -0.43647)
(2.29527 0 -0.40483)
(2.12396 -1.53739e-19 -0.373644)
(1.95508 1.50755e-19 -0.34272)
(1.78805 -1.47695e-19 -0.312317)
(1.62413 -1.44493e-19 -0.282271)
(1.462 0 -0.252814)
(1.30432 1.37657e-19 -0.223903)
(1.14788 0 -0.195596)
(0.998655 -1.3048e-19 -0.168229)
(0.848355 -1.26749e-19 -0.141238)
(0.711484 2.45952e-19 -0.116123)
(0.566573 0 -0.0903156)
(0.447845 -4.61066e-19 -0.0687529)
(0.308144 0 -0.0432332)
(0.204872 2.1483e-19 -0.0271022)
(0.101308 0 -0.00177704)
(-0.0744149 1.98351e-19 0.0155062)
(0.0511082 0 0.0117043)
(-0.453861 3.59684e-19 0.0881616)
(0.0742421 -3.60922e-19 -0.0126865)
(-0.63449 3.25266e-19 0.154337)
(-0.287807 3.2953e-19 0.0104834)
(-0.169894 0 0.124827)
(-1.65657 -5.57026e-19 0.223353)
(1.27185 6.28098e-19 -0.174713)
(-3.1418 0 0.61904)
(1.68326 3.06759e-19 -0.454508)
(-1.61163 0 0.553833)
(-1.68482 0 0.130776)
(1.17074 -4.75694e-19 -0.0155071)
(-5.82458 0 1.01788)
(3.45676 0 -0.68882)
(-6.50106 2.3155e-19 1.31958)
(3.74827 9.8054e-19 -1.01821)
(-1.66097 2.80831e-19 0.914488)
(-6.21709 0 0.888856)
(3.73782 0 -0.822049)
(-6.65625 0 1.40246)
(3.18105 0 -0.880937)
(-1.39906 5.45664e-19 0.352606)
(1.41007 6.3808e-19 -0.428918)
(1.75832 0 -0.0805188)
(-4.10742 0 0.809304)
(2.07221 0 -0.716359)
(2.36791 0 -0.472658)
(32.6381 4.1893e-21 0.391447)
(32.8701 0 0.407687)
(33.1257 4.90613e-21 0.367318)
(33.3904 0 0.254314)
(33.6333 6.00609e-21 0.0692227)
(33.8228 0 -0.173266)
(33.9361 -6.29731e-21 -0.454031)
(33.9582 1.15488e-20 -0.755143)
(33.8798 2.35792e-20 -1.06145)
(33.6963 7.27169e-22 -1.36095)
(33.4072 0 -1.64464)
(33.016 0 -1.90632)
(32.5293 0 -2.14211)
(31.9562 0 -2.34995)
(31.3078 0 -2.52908)
(30.596 0 -2.67978)
(29.8334 1.46778e-20 -2.80306)
(29.0321 -1.36007e-20 -2.90051)
(28.2038 1.27931e-20 -2.97411)
(27.3589 0 -3.02608)
(26.5065 0 -3.05873)
(25.6545 9.76661e-21 -3.0744)
(24.8094 8.93598e-21 -3.07533)
(23.9763 8.15581e-21 -3.06362)
(23.1591 0 -3.04121)
(22.361 -1.35735e-20 -3.00982)
(21.5841 -2.44776e-20 -2.97101)
(20.8298 1.10088e-20 -2.92611)
(20.0992 0 -2.87629)
(19.3925 0 -2.82255)
(18.71 0 -2.76576)
(18.0515 7.00211e-21 -2.70665)
(17.4165 0 -2.64582)
(16.8046 0 -2.5838)
(16.2151 9.36778e-21 -2.52102)
(15.6473 8.05485e-21 -2.45784)
(15.1003 0 -2.39457)
(14.5735 5.68408e-21 -2.33145)
(14.0659 -9.277e-21 -2.26868)
(13.5767 -3.67203e-21 -2.20643)
(13.1051 2.7812e-21 -2.14482)
(12.6503 0 -2.08397)
(12.2115 0 -2.02396)
(11.788 0 -1.96484)
(11.3789 -2.1591e-22 -1.90665)
(10.9835 0 -1.84944)
(10.6013 2.4362e-21 -1.79322)
(10.2314 3.38312e-21 -1.73798)
(9.87323 0 -1.68375)
(9.52621 -5.0535e-21 -1.6305)
(9.18971 0 -1.57822)
(8.86317 0 -1.52689)
(8.54603 -1.39255e-20 -1.4765)
(8.23778 2.17339e-23 -1.42702)
(7.93789 1.58449e-20 -1.37841)
(7.64592 0 -1.33064)
(7.36136 0 -1.2837)
(7.08381 -1.79428e-20 -1.23753)
(6.8128 0 -1.1921)
(6.54796 3.77529e-20 -1.14738)
(6.28886 0 -1.10334)
(6.03516 0 -1.05993)
(5.78647 7.88539e-20 -1.01713)
(5.54248 7.94687e-20 -0.974871)
(5.30283 3.99179e-20 -0.933172)
(5.06723 0 -0.891935)
(4.83537 0 -0.851204)
(4.60699 3.99097e-20 -0.810857)
(4.38184 7.94671e-20 -0.770977)
(4.15968 0 -0.731413)
(3.9403 7.83431e-20 -0.692293)
(3.72356 -7.75561e-20 -0.653433)
(3.50926 7.66559e-20 -0.615017)
(3.29739 -7.56082e-20 -0.576826)
(3.08773 7.4523e-20 -0.539107)
(2.88053 0 -0.501608)
(2.67542 0 -0.464637)
(2.47309 -1.4126e-19 -0.427925)
(2.27283 2.76724e-19 -0.391822)
(2.07611 0 -0.356078)