/*--------------------------------*- C++ -*----------------------------------*\
| =========                 |                                                 |
| \\      /  F ield         | OpenFOAM: The Open Source CFD Toolbox           |
|  \\    /   O peration     | Version:  2412                                  |
|   \\  /    A nd           | Website:  www.openfoam.com                      |
|    \\/     M anipulation  |                                                 |
\*---------------------------------------------------------------------------*/
FoamFile
{
    version     2.0;
    format      ascii;
    arch        "LSB;label=32;scalar=64";
    class       volScalarField;
    location    "0.015";
    object      Co;
}
// * * * * * * * * * * * * * * * * * * * * * * * * * * * * * * * * * * * * * //

dimensions      [0 0 0 0 0 0 0];

internalField   nonuniform List<scalar> 
12600
(
0.246627
0.136809
0.0743832
0.0480641
0.0361039
0.029249
0.0246454
0.0212584
0.0186294
0.0165149
0.0147696
0.0133008
0.012046
0.0109608
0.0100127
0.00917748
0.0084365
0.00777515
0.00718184
0.00664718
0.00616349
0.00572442
0.00532465
0.00495968
0.00462571
0.00431944
0.00403805
0.00377909
0.00354041
0.00332014
0.0031166
0.00292834
0.00275406
0.0025926
0.00244292
0.0023041
0.00217531
0.0020558
0.00194492
0.00184205
0.00174669
0.00165835
0.00157661
0.0015012
0.00143409
0.00137297
0.00131754
0.00126851
0.00122651
0.00119133
0.00116157
0.00113497
0.00110936
0.00108334
0.00105645
0.00102892
0.00100118
0.000973656
0.000946645
0.000920326
0.000894797
0.000870106
0.000846268
0.000823281
0.000801129
0.000779794
0.000759255
0.000739488
0.000720466
0.000702168
0.000684569
0.000667647
0.000651377
0.000635736
0.000620702
0.000606253
0.000592367
0.000579024
0.000566202
0.000553883
0.000542047
0.000530677
0.000519753
0.00050926
0.000499181
0.0004895
0.0004802
0.000471269
0.000462691
0.000454454
0.000446543
0.000438946
0.000431651
0.000424646
0.000417921
0.000411464
0.000405266
0.000399315
0.000393604
0.000388122
0.000382861
0.000377813
0.000372969
0.000368322
0.000363865
0.000359591
0.000355492
0.000351563
0.000347797
0.000344188
0.00034073
0.000337418
0.000334245
0.000331203
0.000328288
0.000325474
0.000322776
0.000319909
0.000317776
0.000311055
0.398617
0.31967
0.230575
0.168388
0.129434
0.104489
0.0874346
0.074983
0.0654206
0.0577957
0.0515434
0.0463086
0.0418545
0.0380159
0.0346729
0.0317358
0.0291365
0.0268215
0.0247487
0.022884
0.0211999
0.0196732
0.0182851
0.0170193
0.0158623
0.0148023
0.0138294
0.0129348
0.0121108
0.011351
0.0106494
0.0100009
0.0094009
0.00884533
0.00833059
0.00785343
0.00741098
0.00700062
0.00662009
0.00626723
0.00594029
0.00563762
0.00535761
0.00509944
0.00487524
0.00467223
0.00448987
0.00433025
0.00419447
0.00408012
0.00398099
0.00388923
0.00379842
0.0037053
0.00360958
0.00351257
0.00341585
0.00332067
0.00322778
0.00313759
0.00305034
0.00296608
0.00288481
0.0028065
0.00273107
0.00265846
0.00258857
0.00252132
0.00245662
0.0023944
0.00233455
0.00227702
0.0022217
0.00216852
0.0021174
0.00206826
0.00202104
0.00197565
0.00193203
0.00189011
0.00184982
0.00181111
0.0017739
0.00173815
0.00170379
0.00167077
0.00163903
0.00160854
0.00157922
0.00155105
0.00152397
0.00149794
0.00147291
0.00144886
0.00142572
0.00140348
0.00138209
0.00136152
0.00134173
0.0013227
0.00130438
0.00128675
0.00126978
0.00125344
0.0012377
0.00122254
0.00120793
0.00119385
0.00118026
0.00116715
0.00115449
0.00114226
0.00113043
0.00111897
0.00110785
0.001097
0.00108646
0.00107516
0.00106725
0.00104021
0.434521
0.40978
0.346035
0.280731
0.227775
0.187968
0.15835
0.13591
0.118445
0.104472
0.093016
0.0834364
0.0752986
0.0682971
0.06221
0.0568713
0.0521543
0.0479599
0.0442099
0.0408413
0.0378026
0.0350515
0.0325527
0.0302766
0.0281981
0.0262957
0.024551
0.0229478
0.0214725
0.0201128
0.0188581
0.0176989
0.016627
0.0156349
0.014716
0.0138646
0.0130753
0.0123434
0.0116649
0.0110358
0.0104529
0.00991326
0.00941375
0.00895294
0.00856632
0.00821879
0.00790934
0.00764137
0.0074151
0.00722354
0.00705353
0.00689083
0.00672564
0.00655467
0.00637949
0.00620347
0.00602957
0.00585965
0.00569465
0.00553502
0.00538089
0.00523226
0.00508903
0.00495109
0.00481827
0.00469043
0.00456741
0.00444904
0.00433516
0.00422562
0.00412027
0.00401896
0.00392154
0.00382786
0.00373778
0.00365116
0.00356788
0.00348779
0.00341078
0.00333673
0.00326551
0.00319701
0.00313112
0.00306774
0.00300676
0.00294809
0.00289163
0.00283728
0.00278495
0.00273456
0.00268603
0.00263928
0.00259422
0.00255077
0.00250888
0.00246846
0.00242944
0.00239176
0.00235534
0.00232014
0.00228608
0.0022531
0.00222114
0.00219015
0.00216006
0.00213082
0.00210238
0.00207467
0.00204763
0.00202122
0.00199538
0.00197005
0.00194517
0.00192068
0.00189649
0.00187249
0.00184874
0.00182301
0.00180484
0.0017465
0.427122
0.432662
0.403834
0.357533
0.308982
0.26541
0.228838
0.19892
0.174532
0.154491
0.137811
0.123738
0.111717
0.101337
0.0922929
0.084349
0.077324
0.0710747
0.0654864
0.0604666
0.0559392
0.0518414
0.0481207
0.0447328
0.0416401
0.0388105
0.0362164
0.0338339
0.031642
0.0296227
0.0277598
0.0260393
0.0244487
0.0229769
0.0216141
0.0203514
0.019181
0.0180958
0.0170896
0.0161566
0.015292
0.0144912
0.0137493
0.0130643
0.0125071
0.0120109
0.0115721
0.0111949
0.0108775
0.0106067
0.0103613
0.0101203
0.00987145
0.00961266
0.00934844
0.00908479
0.00882611
0.00857474
0.00833162
0.008097
0.00787083
0.00765294
0.0074431
0.00724106
0.00704656
0.00685935
0.00667918
0.0065058
0.00633897
0.00617847
0.00602405
0.00587548
0.00573256
0.00559505
0.00546274
0.00533544
0.00521293
0.00509502
0.00498153
0.00487228
0.00476708
0.00466576
0.00456817
0.00447414
0.0043835
0.00429612
0.00421185
0.00413054
0.00405206
0.00397627
0.00390304
0.00383226
0.00376378
0.00369749
0.00363329
0.00357104
0.00351065
0.00345199
0.00339496
0.00333947
0.00328539
0.00323264
0.0031811
0.00313069
0.00308129
0.00303282
0.00298518
0.00293826
0.00289199
0.00284625
0.00280095
0.00275601
0.00271131
0.00266677
0.00262225
0.00257759
0.00253291
0.00248469
0.00244854
0.00235147
0.411251
0.423155
0.416493
0.392296
0.358481
0.321916
0.286779
0.255041
0.227269
0.203288
0.182636
0.164801
0.149314
0.135784
0.123891
0.113377
0.104032
0.0956873
0.0882031
0.0814646
0.0753764
0.0698581
0.0648422
0.0602711
0.0560955
0.0522733
0.0487677
0.045547
0.0425834
0.0398524
0.0373327
0.0350053
0.0328532
0.0308617
0.0290173
0.0273081
0.0257236
0.0242541
0.0228911
0.0216267
0.0204544
0.0193679
0.0183602
0.0174287
0.0166879
0.016038
0.0154655
0.0149754
0.0145629
0.0142077
0.0138799
0.0135521
0.01321
0.0128538
0.0124915
0.0121321
0.0117814
0.011442
0.0111148
0.0107997
0.0104962
0.0102041
0.00992286
0.0096521
0.00939144
0.00914051
0.00889897
0.00866646
0.00844264
0.00822721
0.00801983
0.00782019
0.00762799
0.00744292
0.00726469
0.00709302
0.00692763
0.00676826
0.00661465
0.00646655
0.00632371
0.00618589
0.00605287
0.00592443
0.00580035
0.00568041
0.00556442
0.00545216
0.00534346
0.00523812
0.00513596
0.0050368
0.00494045
0.00484676
0.00475555
0.00466666
0.00457992
0.00449519
0.00441229
0.0043311
0.00425145
0.00417319
0.00409619
0.00402031
0.00394541
0.00387136
0.00379802
0.00372528
0.00365301
0.00358109
0.00350941
0.00343787
0.00336636
0.00329479
0.00322301
0.00315092
0.0030787
0.0030018
0.00294082
0.00280469
0.398199
0.405688
0.406639
0.396744
0.377381
0.352016
0.324045
0.295975
0.269323
0.244815
0.222668
0.202824
0.185102
0.169282
0.155141
0.142473
0.131095
0.120847
0.111593
0.103214
0.0956086
0.0886888
0.082379
0.0766136
0.0713354
0.0664947
0.062048
0.0579571
0.0541882
0.0507118
0.0475013
0.0445335
0.0417873
0.0392443
0.0368876
0.0347024
0.0326753
0.0307941
0.0290481
0.0274272
0.025923
0.0245275
0.0232313
0.0220314
0.0210874
0.020277
0.0195644
0.0189547
0.0184396
0.0179917
0.0175725
0.0171486
0.0167041
0.0162416
0.0157731
0.0153104
0.0148609
0.0144274
0.0140103
0.0136092
0.0132233
0.012852
0.0124945
0.0121504
0.011819
0.0114999
0.0111926
0.0108966
0.0106115
0.010337
0.0100725
0.00981766
0.00957207
0.00933535
0.00910712
0.008887
0.00867464
0.00846969
0.00827182
0.00808069
0.00789599
0.00771741
0.00754465
0.00737741
0.00721542
0.0070584
0.00690608
0.00675819
0.00661449
0.00647472
0.00633865
0.00620603
0.00607664
0.00595025
0.00582666
0.00570563
0.00558698
0.00547049
0.00535599
0.00524327
0.00513216
0.00502249
0.00491409
0.00480681
0.0047005
0.00459502
0.00449025
0.00438608
0.0042824
0.00417913
0.0040762
0.00397355
0.00387114
0.00376895
0.0036669
0.00356499
0.00346353
0.00335746
0.00326997
0.00310251
0.388971
0.390496
0.390997
0.386717
0.37633
0.360439
0.340664
0.318798
0.29633
0.27429
0.253293
0.233649
0.215471
0.198763
0.183465
0.169486
0.156722
0.145068
0.134421
0.124687
0.11578
0.107619
0.100133
0.093259
0.0869384
0.0811199
0.0757577
0.0708106
0.0662417
0.0620181
0.0581101
0.0544912
0.0511373
0.0480271
0.045141
0.0424616
0.039973
0.0376608
0.0355122
0.0335151
0.0316593
0.0299352
0.028331
0.0268428
0.025669
0.0246907
0.0238299
0.0230911
0.022463
0.0219116
0.0213905
0.0208606
0.0203048
0.0197281
0.0191461
0.0185736
0.0180192
0.0174858
0.0169735
0.0164812
0.0160079
0.0155525
0.0151141
0.0146919
0.0142853
0.0138935
0.0135161
0.0131523
0.0128017
0.0124638
0.0121379
0.0118236
0.0115203
0.0112277
0.0109452
0.0106723
0.0104086
0.0101537
0.00990712
0.0096685
0.00943743
0.00921351
0.00899637
0.00878566
0.00858102
0.00838211
0.00818859
0.00800014
0.00781646
0.00763723
0.00746217
0.00729099
0.00712342
0.0069592
0.00679808
0.00663981
0.00648417
0.00633093
0.0061799
0.00603088
0.0058837
0.00573819
0.00559422
0.00545165
0.00531039
0.00517033
0.00503142
0.00489362
0.00475689
0.00462125
0.00448671
0.00435332
0.00422113
0.00409024
0.00396067
0.00383254
0.00370621
0.00357656
0.003467
0.00328053
0.382211
0.379278
0.376958
0.373182
0.366476
0.35618
0.342565
0.326463
0.308856
0.290615
0.272392
0.254628
0.237598
0.221452
0.206265
0.192055
0.178812
0.166502
0.15508
0.144495
0.134693
0.12562
0.117223
0.109451
0.102256
0.0955925
0.0894191
0.0836969
0.0783904
0.0734668
0.0688962
0.0646511
0.0607065
0.0570394
0.053629
0.0504561
0.0475034
0.0447548
0.042196
0.0398131
0.0375947
0.0355297
0.033604
0.031813
0.0303781
0.029225
0.0282071
0.0273284
0.0265749
0.0259072
0.0252725
0.0246268
0.0239515
0.0232537
0.0225521
0.0218642
0.0211995
0.0205612
0.0199487
0.0193606
0.0187953
0.0182514
0.0177278
0.0172233
0.0167372
0.0162687
0.015817
0.0153813
0.0149611
0.0145556
0.0141642
0.0137863
0.0134213
0.0130686
0.0127276
0.0123977
0.0120785
0.0117694
0.0114698
0.0111794
0.0108976
0.010624
0.0103582
0.0100996
0.00984792
0.00960273
0.00936364
0.0091303
0.00890234
0.00867942
0.00846122
0.00824743
0.00803776
0.00783194
0.00762972
0.00743085
0.00723512
0.00704233
0.00685231
0.00666491
0.00648001
0.00629749
0.00611728
0.00593933
0.00576362
0.00559013
0.00541891
0.00525
0.00508347
0.00491941
0.00475793
0.00459916
0.00444322
0.00429026
0.00414029
0.00399352
0.0038502
0.00370535
0.00358097
0.00338694
0.376867
0.371042
0.366065
0.360967
0.354857
0.346913
0.336786
0.32464
0.310944
0.296254
0.281076
0.26581
0.25075
0.236095
0.221975
0.208469
0.195621
0.183452
0.171967
0.161155
0.151
0.141479
0.132566
0.12423
0.11644
0.109166
0.102377
0.0960413
0.0901306
0.0846168
0.0794732
0.0746748
0.070198
0.066021
0.062123
0.0584852
0.0550898
0.0519203
0.0489618
0.0461995
0.0436209
0.0412147
0.0389646
0.0368652
0.0351387
0.033806
0.0326236
0.0315944
0.0307026
0.0299055
0.0291454
0.0283744
0.0275724
0.0267476
0.0259217
0.0251139
0.024335
0.0235877
0.0228712
0.0221834
0.0215224
0.0208863
0.0202738
0.0196835
0.0191144
0.0185656
0.0180361
0.0175251
0.0170317
0.0165552
0.0160948
0.0156499
0.0152196
0.0148033
0.0144003
0.01401
0.0136318
0.013265
0.012909
0.0125634
0.0122275
0.0119008
0.0115829
0.0112733
0.0109714
0.010677
0.0103895
0.0101085
0.0098338
0.00956491
0.00930154
0.00904339
0.00879019
0.00854168
0.00829766
0.00805792
0.00782229
0.00759064
0.00736285
0.00713885
0.00691858
0.00670202
0.00648917
0.00628006
0.00607473
0.00587326
0.00567574
0.00548226
0.00529294
0.00510788
0.0049272
0.00475101
0.00457937
0.00441241
0.00425003
0.00409237
0.00393946
0.00378656
0.0036535
0.00345919
0.372441
0.364725
0.357782
0.351151
0.344419
0.336989
0.328379
0.318428
0.307262
0.29516
0.282448
0.26943
0.256354
0.243408
0.230725
0.218397
0.206486
0.195029
0.184052
0.173569
0.163587
0.154104
0.145116
0.136612
0.128581
0.121006
0.11387
0.107156
0.100843
0.0949123
0.0893439
0.0841183
0.0792163
0.0746194
0.0703096
0.06627
0.0624842
0.0589367
0.0556134
0.0524996
0.0495827
0.0468516
0.0442892
0.041889
0.0398512
0.0383391
0.0369884
0.0358008
0.0347599
0.0338214
0.0329253
0.0320209
0.0310865
0.0301309
0.0291775
0.0282472
0.0273514
0.0264927
0.0256696
0.0248796
0.0241203
0.0233896
0.0226858
0.0220074
0.021353
0.0207216
0.020112
0.0195233
0.0189546
0.0184048
0.0178733
0.017359
0.0168612
0.0163792
0.0159121
0.0154593
0.01502
0.0145936
0.0141794
0.0137768
0.0133852
0.0130041
0.0126329
0.0122711
0.0119183
0.011574
0.0112378
0.0109092
0.0105881
0.0102739
0.00996645
0.00966546
0.0093707
0.00908197
0.0087991
0.00852195
0.00825042
0.00798443
0.00772394
0.00746892
0.00721937
0.00697532
0.0067368
0.00650387
0.00627659
0.00605501
0.00583922
0.00562925
0.00542517
0.00522701
0.00503478
0.00484849
0.00466808
0.00449355
0.00432464
0.00416141
0.00400365
0.00384691
0.00370865
0.0035173
0.368708
0.359679
0.351341
0.343435
0.33581
0.328109
0.319922
0.310984
0.301236
0.290767
0.279753
0.268398
0.256893
0.245399
0.234037
0.222896
0.212035
0.201493
0.191295
0.181459
0.171995
0.16291
0.154208
0.145889
0.137951
0.13039
0.1232
0.116372
0.109898
0.103766
0.0979644
0.0924813
0.0873034
0.0824174
0.0778098
0.0734672
0.0693766
0.0655245
0.0618991
0.058487
0.0552767
0.0522581
0.0494144
0.0467386
0.0443929
0.0427089
0.0411927
0.0398446
0.0386483
0.0375604
0.0365209
0.0354777
0.034408
0.0333201
0.0322385
0.0311853
0.0301722
0.0292015
0.0282712
0.0273783
0.0265201
0.0256942
0.0248986
0.0241315
0.0233913
0.0226768
0.0219868
0.02132
0.0206754
0.0200521
0.019449
0.0188652
0.0182998
0.017752
0.0172208
0.0167056
0.0162056
0.01572
0.0152482
0.0147895
0.0143433
0.013909
0.0134861
0.0130741
0.0126726
0.012281
0.0118989
0.0115261
0.0111622
0.010807
0.01046
0.0101212
0.00979038
0.00946732
0.00915192
0.00884409
0.00854375
0.00825085
0.00796536
0.00768725
0.00741651
0.00715315
0.00689714
0.0066485
0.00640719
0.0061732
0.00594649
0.00572699
0.00551464
0.00530934
0.00511098
0.00491943
0.00473451
0.0045561
0.00438384
0.00421769
0.00405729
0.00389853
0.00375656
0.00356915
0.365528
0.35554
0.346193
0.337307
0.328852
0.320635
0.31236
0.303773
0.294734
0.28522
0.275293
0.265068
0.254677
0.244252
0.2339
0.223707
0.213731
0.204012
0.194573
0.185428
0.176583
0.168044
0.159811
0.151885
0.144266
0.136953
0.129944
0.123234
0.116821
0.110699
0.104864
0.0993068
0.0940218
0.0890005
0.0842342
0.0797139
0.0754302
0.071373
0.0675335
0.0639008
0.0604648
0.0572179
0.0541444
0.0512372
0.0486238
0.0467847
0.0451144
0.0436117
0.0422614
0.0410225
0.0398376
0.0386551
0.0374512
0.0362335
0.0350264
0.033853
0.032725
0.0316445
0.0306089
0.029615
0.0286596
0.0277402
0.0268546
0.0260006
0.0251766
0.0243811
0.0236125
0.0228697
0.0221515
0.0214568
0.0207845
0.0201336
0.0195032
0.0188922
0.0182998
0.0177253
0.0171677
0.0166264
0.0161007
0.0155898
0.0150932
0.0146103
0.0141405
0.0136834
0.0132385
0.0128054
0.0123838
0.0119732
0.0115734
0.0111842
0.0108052
0.0104363
0.0100773
0.00972804
0.00938841
0.00905828
0.00873754
0.0084261
0.00812386
0.00783073
0.00754662
0.00727142
0.00700502
0.0067473
0.00649811
0.00625731
0.00602474
0.0058002
0.00558351
0.00537447
0.00517286
0.00497847
0.00479103
0.00461036
0.00443603
0.00426801
0.00410576
0.00394563
0.00380051
0.00361712
0.362802
0.352089
0.34199
0.332356
0.323211
0.314455
0.305888
0.297308
0.288562
0.279571
0.270322
0.260853
0.251242
0.24158
0.231958
0.222456
0.213134
0.204035
0.195188
0.186608
0.178301
0.170268
0.162507
0.155015
0.147788
0.140823
0.134116
0.127662
0.121459
0.115502
0.109788
0.104313
0.0990716
0.0940602
0.0892728
0.0847039
0.0803476
0.0761965
0.0722449
0.0684846
0.0649075
0.0615083
0.0582734
0.0551961
0.0524012
0.0504331
0.0486292
0.0469871
0.045493
0.0441101
0.0427853
0.0414696
0.0401385
0.0387983
0.0374731
0.036186
0.0349492
0.0337644
0.0326287
0.0315385
0.0304907
0.0294826
0.0285116
0.0275756
0.0266727
0.0258009
0.0249589
0.0241452
0.0233585
0.0225976
0.0218614
0.0211489
0.0204589
0.0197905
0.0191429
0.0185151
0.0179063
0.0173158
0.0167428
0.0161867
0.0156469
0.0151227
0.0146137
0.0141194
0.0136393
0.013173
0.0127202
0.0122804
0.0118534
0.0114389
0.0110366
0.0106464
0.0102679
0.00990092
0.00954534
0.00920091
0.00886744
0.00854474
0.0082326
0.00793082
0.00763918
0.00735746
0.00708543
0.00682285
0.00656947
0.00632503
0.00608928
0.00586195
0.00564278
0.00543149
0.00522784
0.00503155
0.00484234
0.00466
0.00448406
0.0043145
0.00415068
0.00398943
0.00384142
0.00366189
0.36045
0.349179
0.338504
0.328296
0.318594
0.309352
0.300438
0.291699
0.283005
0.274261
0.265414
0.25645
0.247395
0.238297
0.229222
0.220235
0.211394
0.202746
0.194324
0.186151
0.178237
0.170586
0.163197
0.156065
0.149184
0.142546
0.136146
0.129977
0.124032
0.118306
0.112794
0.107491
0.102392
0.0974935
0.0927902
0.0882779
0.0839526
0.0798085
0.0758415
0.0720458
0.0684146
0.0649445
0.0616242
0.0584476
0.055602
0.0535378
0.0516279
0.0498699
0.0482512
0.0467399
0.045289
0.0438533
0.0424085
0.0409594
0.0395286
0.0381394
0.0368041
0.0355244
0.0342973
0.0331191
0.0319868
0.0308978
0.0298494
0.0288393
0.0278653
0.0269254
0.0260179
0.0251414
0.0242943
0.0234754
0.0226836
0.0219177
0.0211767
0.0204595
0.0197651
0.0190928
0.0184417
0.0178109
0.0171998
0.0166076
0.0160338
0.0154777
0.0149388
0.0144166
0.0139106
0.0134203
0.0129454
0.0124854
0.01204
0.0116088
0.0111915
0.0107877
0.0103972
0.0100197
0.00965471
0.00930208
0.00896146
0.00863255
0.00831502
0.00800857
0.00771288
0.00742763
0.0071525
0.00688717
0.00663134
0.00638468
0.00614689
0.00591767
0.00569673
0.00548376
0.00527849
0.00508065
0.00488993
0.00470613
0.00452876
0.00435782
0.00419255
0.00403032
0.00387962
0.00370372
0.358413
0.346703
0.335578
0.324923
0.314776
0.305121
0.295868
0.286905
0.27813
0.269457
0.260818
0.252172
0.243508
0.234837
0.226192
0.217618
0.209161
0.200864
0.192764
0.184888
0.177253
0.169869
0.16274
0.155863
0.149233
0.142844
0.136688
0.130756
0.125039
0.119531
0.114224
0.109112
0.104187
0.0994434
0.0948765
0.0904805
0.0862514
0.0821832
0.0782722
0.0745136
0.0709007
0.0674311
0.0640951
0.0608864
0.0581524
0.0560256
0.0540401
0.0521939
0.0504756
0.0488582
0.0473016
0.0457655
0.0442267
0.0426876
0.0411691
0.039694
0.0382748
0.0369135
0.0356074
0.0343529
0.0331473
0.0319882
0.0308732
0.0297997
0.0287654
0.027768
0.0268057
0.0258768
0.0249799
0.0241136
0.0232766
0.0224679
0.0216862
0.0209305
0.0201999
0.0194933
0.0188101
0.0181492
0.01751
0.0168917
0.0162937
0.0157152
0.0151558
0.0146148
0.0140917
0.0135859
0.013097
0.0126245
0.012168
0.0117269
0.0113008
0.0108894
0.0104922
0.0101088
0.00973875
0.00938168
0.00903719
0.00870488
0.00838435
0.00807523
0.00777714
0.00748971
0.00721257
0.00694537
0.00668777
0.00643943
0.00620003
0.00596925
0.00574679
0.00553235
0.00532565
0.0051264
0.0049343
0.00474916
0.00457046
0.00439823
0.00423161
0.00406853
0.00391532
0.00374279
0.356642
0.344583
0.333101
0.322092
0.311589
0.301591
0.292033
0.282834
0.273914
0.265203
0.256639
0.248169
0.239761
0.231401
0.223095
0.214862
0.206732
0.198738
0.190911
0.18328
0.175865
0.168681
0.161738
0.155037
0.148579
0.142359
0.13637
0.130605
0.125055
0.119712
0.114567
0.109613
0.104841
0.100244
0.0958144
0.0915461
0.0874334
0.0834693
0.0796489
0.0759674
0.0724174
0.0689959
0.0656954
0.0625106
0.0600495
0.0578878
0.055854
0.0539462
0.0521542
0.0504554
0.0488167
0.0472033
0.0455932
0.0439866
0.0424019
0.0408606
0.0393756
0.0379493
0.0365795
0.035263
0.0339979
0.0327821
0.0316133
0.0304891
0.0294068
0.0283642
0.0273593
0.0263901
0.0254551
0.024553
0.0236823
0.0228419
0.0220306
0.0212473
0.020491
0.0197606
0.0190552
0.018374
0.0177161
0.0170808
0.0164672
0.0158748
0.0153027
0.0147503
0.0142171
0.0137023
0.0132055
0.0127259
0.0122632
0.0118167
0.0113859
0.0109704
0.0105695
0.0101829
0.00980997
0.00945034
0.00910353
0.0087691
0.00844661
0.00813566
0.00783583
0.00754673
0.007268
0.00699925
0.00674015
0.00649034
0.0062495
0.00601731
0.00579347
0.00557768
0.00536964
0.00516909
0.00497571
0.00478931
0.00460937
0.00443595
0.00426806
0.00410423
0.0039487
0.00377927
0.355096
0.342757
0.330987
0.319696
0.308908
0.298626
0.288805
0.279382
0.270295
0.26149
0.252914
0.244516
0.236255
0.228104
0.220049
0.21209
0.204239
0.196513
0.188934
0.181527
0.17431
0.167301
0.160512
0.153951
0.147619
0.141518
0.135643
0.12999
0.124551
0.119319
0.114286
0.109443
0.104782
0.100295
0.0959749
0.0918131
0.087803
0.083937
0.0802084
0.0766118
0.0731391
0.0697855
0.0665449
0.0636634
0.0613664
0.0591869
0.057124
0.0551751
0.053331
0.0515733
0.0498747
0.0482059
0.0465468
0.0448953
0.0432664
0.0416798
0.0401482
0.0386749
0.0372582
0.0358957
0.0345859
0.0333276
0.0321188
0.0309571
0.0298399
0.0287647
0.0277293
0.0267317
0.0257702
0.0248435
0.0239499
0.0230884
0.0222576
0.0214563
0.0206835
0.0199381
0.0192191
0.0185255
0.0178565
0.0172112
0.0165887
0.0159882
0.0154091
0.0148505
0.0143117
0.0137921
0.0132909
0.0128076
0.0123415
0.011892
0.0114586
0.0110406
0.0106376
0.0102489
0.0098741
0.0095127
0.0091642
0.00882815
0.0085041
0.00819163
0.00789032
0.00759978
0.00731961
0.00704947
0.00678899
0.00653783
0.00629566
0.00606216
0.00583703
0.00561997
0.0054107
0.00520892
0.00501435
0.00482677
0.00464568
0.00447116
0.00430206
0.00413758
0.00397993
0.00381332
0.353743
0.341176
0.329173
0.317654
0.306635
0.29612
0.286075
0.276451
0.2672
0.258276
0.249638
0.241241
0.233045
0.225018
0.217134
0.209381
0.201754
0.194258
0.186904
0.179705
0.172679
0.165838
0.159197
0.152764
0.146545
0.140543
0.134759
0.129188
0.123828
0.118672
0.113713
0.108944
0.104358
0.099945
0.0956995
0.0916127
0.0876778
0.0838868
0.0802321
0.0767076
0.0733044
0.0700169
0.0670483
0.0645344
0.0622323
0.0600406
0.0579577
0.0559794
0.0540978
0.0522974
0.0505561
0.0488497
0.0471597
0.0454821
0.0438282
0.042215
0.0406549
0.0391517
0.0377043
0.0363111
0.0349714
0.0336843
0.0324484
0.0312616
0.0301213
0.0290247
0.0279697
0.026954
0.0259759
0.0250338
0.0241264
0.0232521
0.0224097
0.021598
0.0208157
0.0200618
0.0193352
0.0186348
0.0179597
0.017309
0.0166817
0.016077
0.0154941
0.0149321
0.0143903
0.013868
0.0133644
0.0128789
0.0124108
0.0119594
0.0115242
0.0111045
0.0106999
0.0103097
0.00993336
0.00957049
0.00922056
0.00888309
0.00855765
0.0082438
0.00794114
0.00764926
0.00736778
0.00709634
0.00683457
0.00658215
0.00633874
0.00610402
0.00587769
0.00565945
0.00544901
0.0052461
0.00505041
0.00486174
0.00467957
0.00450402
0.00433379
0.00416874
0.00400915
0.00384507
0.352556
0.339803
0.327609
0.315903
0.304696
0.29399
0.283757
0.273958
0.264553
0.255506
0.246781
0.238344
0.230157
0.222186
0.214405
0.206793
0.199335
0.192025
0.184862
0.177853
0.171006
0.16433
0.157835
0.151531
0.145425
0.139521
0.133821
0.128325
0.123031
0.117935
0.113032
0.108317
0.103783
0.0994219
0.0952273
0.0911914
0.0873073
0.0835676
0.0799654
0.0764936
0.0731439
0.0701606
0.0675232
0.0651028
0.0627912
0.0605868
0.0584852
0.0564821
0.0545704
0.052737
0.0509639
0.0492311
0.0475223
0.0458317
0.0441668
0.0425415
0.0409672
0.039448
0.0379835
0.0365728
0.0352155
0.0339113
0.0326593
0.0314575
0.0303034
0.0291944
0.0281281
0.0271021
0.0261146
0.0251641
0.024249
0.0233678
0.0225192
0.0217019
0.0209147
0.0201563
0.0194257
0.0187218
0.0180435
0.0173899
0.0167601
0.016153
0.0155679
0.015004
0.0144604
0.0139363
0.0134311
0.012944
0.0124744
0.0120215
0.0115849
0.0111638
0.0107578
0.0103662
0.00998857
0.00962437
0.00927312
0.00893435
0.00860762
0.0082925
0.00798857
0.00769545
0.00741274
0.00714008
0.00687712
0.00662352
0.00637895
0.00614309
0.00591563
0.00569629
0.00548477
0.0052808
0.00508406
0.00489437
0.00471119
0.00453469
0.0043634
0.00419786
0.00403652
0.00387468
0.351513
0.338605
0.326253
0.314394
0.303033
0.292169
0.281779
0.271829
0.262287
0.253121
0.244304
0.235803
0.227589
0.21963
0.211899
0.204372
0.197029
0.189859
0.182851
0.176003
0.169316
0.162793
0.156442
0.150268
0.144277
0.138474
0.132862
0.127442
0.122214
0.117176
0.112325
0.107656
0.103164
0.0988437
0.094688
0.0906903
0.0868436
0.0831404
0.079575
0.0762203
0.0731714
0.0704747
0.0679291
0.0654949
0.0631695
0.0609479
0.0588257
0.0567985
0.0548596
0.0529979
0.0511987
0.0494455
0.0477241
0.0460277
0.04436
0.0427317
0.0411527
0.0396272
0.0381555
0.0367368
0.0353712
0.0340586
0.0327984
0.0315889
0.0304277
0.0293123
0.0282401
0.0272088
0.0262167
0.0252618
0.0243429
0.0234582
0.0226065
0.0217864
0.0209965
0.0202358
0.0195031
0.0187972
0.0181171
0.0174618
0.0168303
0.0162217
0.0156352
0.0150698
0.0145248
0.0139994
0.0134928
0.0130044
0.0125335
0.0120794
0.0116415
0.0112191
0.0108118
0.010419
0.0100401
0.00967467
0.00932219
0.0089822
0.00865427
0.00833796
0.00803285
0.00773856
0.0074547
0.00718091
0.00691683
0.00666213
0.00641647
0.00617955
0.00595104
0.00573067
0.00551814
0.00531317
0.00511546
0.00492482
0.0047407
0.00456331
0.00439103
0.00422507
0.00406216
0.00390226
0.350594
0.337558
0.325073
0.313087
0.301598
0.290604
0.280082
0.270004
0.260342
0.251069
0.242159
0.233587
0.225327
0.21735
0.209631
0.202146
0.194875
0.1878
0.180907
0.174187
0.167636
0.16125
0.155031
0.148982
0.143106
0.137407
0.131886
0.126547
0.121389
0.116412
0.111614
0.106992
0.102542
0.0982585
0.0941375
0.0901721
0.0863567
0.0826854
0.0793688
0.0762793
0.0734847
0.0708084
0.0682469
0.0657963
0.0634524
0.0612106
0.0590665
0.057015
0.0550501
0.0531625
0.0513399
0.0495689
0.0478373
0.0461375
0.0444705
0.0428438
0.0412653
0.0397392
0.0382661
0.0368456
0.0354775
0.034162
0.0328985
0.0316857
0.0305214
0.029403
0.0283281
0.0272944
0.0262999
0.025343
0.0244221
0.0235356
0.0226822
0.0218605
0.0210692
0.0203071
0.019573
0.0188658
0.0181844
0.0175278
0.0168951
0.0162853
0.0156975
0.015131
0.0145848
0.0140581
0.0135504
0.0130608
0.0125887
0.0121334
0.0116943
0.0112708
0.0108623
0.0104683
0.0100882
0.00972163
0.009368
0.00902689
0.00869783
0.0083804
0.00807419
0.00777881
0.00749388
0.00721903
0.0069539
0.00669817
0.0064515
0.00621357
0.00598409
0.00576276
0.00554928
0.00534338
0.00514476
0.00495323
0.00476823
0.00459003
0.00441682
0.00425048
0.00408619
0.00392795
0.349782
0.336639
0.324043
0.311952
0.300357
0.289254
0.278622
0.268436
0.258669
0.249299
0.240303
0.231658
0.223341
0.215329
0.207598
0.200126
0.192891
0.185874
0.179061
0.172437
0.165993
0.159722
0.153621
0.147686
0.14192
0.136322
0.130895
0.125639
0.120555
0.115643
0.110901
0.10633
0.101924
0.0976788
0.0935932
0.0896607
0.0860236
0.0826081
0.0795291
0.0765987
0.0737892
0.0710975
0.0685194
0.0660505
0.0636869
0.0614246
0.0592584
0.0571834
0.0551941
0.0532825
0.0514384
0.0496508
0.0479093
0.0462064
0.0445408
0.042917
0.0413412
0.0398171
0.0383455
0.0369261
0.0355586
0.034243
0.032979
0.0317652
0.0305997
0.0294801
0.028404
0.0273691
0.0263735
0.0254154
0.0244933
0.0236058
0.0227513
0.0219285
0.0211361
0.0203729
0.0196377
0.0189294
0.0182469
0.0175893
0.0169555
0.0163446
0.0157557
0.015188
0.0146407
0.014113
0.0136042
0.0131135
0.0126402
0.0121838
0.0117436
0.011319
0.0109094
0.0105143
0.0101332
0.00976548
0.00941078
0.0090686
0.00873849
0.00842002
0.00811278
0.00781638
0.00753045
0.0072546
0.0069885
0.0067318
0.00648418
0.00624533
0.00601493
0.0057927
0.00557833
0.00537158
0.00517211
0.00497975
0.00479393
0.00461497
0.00444089
0.00427422
0.00410872
0.00395186
0.349062
0.335824
0.323132
0.310951
0.29927
0.288079
0.277357
0.267081
0.257227
0.247775
0.238703
0.22999
0.221616
0.21356
0.205801
0.198319
0.191093
0.184105
0.177339
0.17078
0.164415
0.158233
0.152228
0.146393
0.140726
0.135225
0.129889
0.124717
0.119709
0.114864
0.110183
0.105664
0.101306
0.0971049
0.0931819
0.089497
0.086093
0.082898
0.0798312
0.0768885
0.0740651
0.0713579
0.0687632
0.0662768
0.0638946
0.0616126
0.0594258
0.0573292
0.0553176
0.0533842
0.0515205
0.0497173
0.0479659
0.0462592
0.0445943
0.0429733
0.0414006
0.0398793
0.0384102
0.036993
0.0356273
0.0343129
0.0330495
0.0318357
0.0306699
0.0295498
0.0284731
0.0274374
0.026441
0.0254821
0.0245592
0.0236708
0.0228154
0.0219917
0.0211984
0.0204342
0.0196981
0.0189888
0.0183054
0.0176467
0.0170119
0.0164
0.0158101
0.0152414
0.014693
0.0141643
0.0136544
0.0131627
0.0126884
0.0122309
0.0117897
0.011364
0.0109534
0.0105573
0.0101751
0.00980643
0.00945073
0.00910755
0.00877645
0.00845701
0.0081488
0.00785145
0.00756458
0.0072878
0.00702079
0.00676319
0.00651469
0.00627496
0.00604371
0.00582064
0.00560545
0.00539789
0.00519762
0.00500449
0.0048179
0.00463825
0.00446337
0.00429639
0.00412985
0.0039741
0.348666
0.335221
0.322353
0.310078
0.298314
0.28704
0.276235
0.265878
0.255947
0.246421
0.237282
0.22851
0.220086
0.211991
0.204203
0.196704
0.189476
0.1825
0.175761
0.169243
0.162931
0.156815
0.150884
0.145129
0.139546
0.134129
0.128875
0.123783
0.118851
0.114078
0.109463
0.104999
0.100856
0.0968926
0.0931978
0.0897255
0.0863894
0.0831847
0.0801063
0.0771513
0.0743153
0.0715943
0.0689847
0.0664824
0.0640833
0.0617835
0.059578
0.0574621
0.0554308
0.0534781
0.0515968
0.0497793
0.0480181
0.0463068
0.0446416
0.0430226
0.0414527
0.0399341
0.0384677
0.0370529
0.0356892
0.0343765
0.033114
0.0319006
0.0307348
0.0296144
0.0285372
0.027501
0.0265039
0.0255443
0.0246207
0.0237315
0.0228753
0.0220507
0.0212566
0.0204916
0.0197545
0.0190443
0.01836
0.0177004
0.0170646
0.0164518
0.0158609
0.0152913
0.0147419
0.0142122
0.0137013
0.0132086
0.0127334
0.0122749
0.0118327
0.0114061
0.0109945
0.0105974
0.0102143
0.00984466
0.00948802
0.00914391
0.00881189
0.00849153
0.00818243
0.00788419
0.00759643
0.00731879
0.00705093
0.00679249
0.00654316
0.00630262
0.00607057
0.00584671
0.00563075
0.00542244
0.00522144
0.00502759
0.00484028
0.00465998
0.00448436
0.00431709
0.00414967
0.00399479
0.348919
0.335337
0.322351
0.309957
0.298061
0.286644
0.275687
0.265169
0.255069
0.245362
0.2361
0.227248
0.218759
0.210608
0.202777
0.195248
0.188003
0.181024
0.174296
0.167802
0.161527
0.15546
0.149588
0.143901
0.138391
0.13305