/*--------------------------------*- C++ -*----------------------------------*\
| =========                 |                                                 |
| \\      /  F ield         | OpenFOAM: The Open Source CFD Toolbox           |
|  \\    /   O peration     | Version:  2412                                  |
|   \\  /    A nd           | Website:  www.openfoam.com                      |
|    \\/     M anipulation  |                                                 |
\*---------------------------------------------------------------------------*/
FoamFile
{
    version     2.0;
    format      ascii;
    arch        "LSB;label=32;scalar=64";
    class       volVectorField;
    location    "0.015";
    object      ddt0(U);
}
// * * * * * * * * * * * * * * * * * * * * * * * * * * * * * * * * * * * * * //

dimensions      [0 1 -2 0 0 0 0];

internalField   nonuniform List<vector> 
12600
(
(-2.62451 0 3.1517)
(-3.84776 1.0417e-19 1.4897)
(-3.27512 1.10009e-19 1.41324)
(-2.80783 0 1.40275)
(-2.60784 -5.71312e-22 1.34628)
(-2.4953 0 1.28812)
(-2.41743 -1.71547e-19 1.24161)
(-2.35852 0 1.21364)
(-2.3084 0 1.20543)
(-2.27105 0 1.20264)
(-2.2465 0 1.20352)
(-2.23363 -3.47855e-19 1.20774)
(-2.23147 -3.45871e-19 1.21525)
(-2.23856 0 1.22615)
(-2.25379 6.71994e-19 1.24063)
(-2.27691 0 1.25892)
(-2.30814 1.47742e-22 1.28104)
(-2.34785 0 1.30707)
(-2.39629 3.16058e-19 1.33738)
(-2.45338 0 1.37227)
(-2.51927 0 1.41214)
(-2.59442 0 1.45738)
(-2.67975 1.1291e-18 1.50846)
(-2.77633 -1.09376e-18 1.56587)
(-2.88516 -2.4458e-22 1.63027)
(-3.00734 5.04803e-19 1.70242)
(-3.14413 0 1.78318)
(-3.29723 0 1.8736)
(-3.4684 0 1.97472)
(-3.65997 -8.80347e-19 2.0881)
(-3.87404 -1.70466e-18 2.21503)
(-4.11376 0 2.35778)
(-4.38235 0 2.51843)
(-4.68325 -8.06075e-19 2.69987)
(-5.0225 -8.05703e-19 2.9062)
(-5.4026 0 3.13979)
(-5.83417 0 3.4069)
(-6.32181 -1.5178e-18 3.70671)
(-6.87438 0 4.04259)
(-7.51992 -2.71844e-21 4.42531)
(-8.24803 -1.21599e-18 4.8503)
(-9.07389 -9.72788e-19 5.33098)
(-9.83181 0 5.88107)
(-11.2237 2.67233e-18 6.52797)
(-12.5739 2.52791e-19 7.1887)
(-13.5868 1.43465e-19 8.02225)
(-15.4484 2.89811e-19 9.21032)
(-18.2899 0 10.9474)
(-22.2349 -1.70683e-18 13.2524)
(-26.6482 2.26102e-18 15.7231)
(-30.4672 0 17.7648)
(-32.8111 -4.92155e-21 18.9358)
(-33.4753 -2.07709e-18 19.1875)
(-32.9207 0 18.8129)
(-31.8554 2.53971e-18 18.204)
(-30.8241 0 17.6418)
(-30.068 0 17.2404)
(-29.6082 7.86053e-21 17.0027)
(-29.3832 5.54765e-21 16.893)
(-29.327 -6.8834e-19 16.8752)
(-29.3909 6.1154e-19 16.9224)
(-29.5402 -1.02949e-18 17.0151)
(-29.7492 0 17.1395)
(-30.0013 -8.74334e-19 17.2863)
(-30.2858 -8.31455e-19 17.4502)
(-30.5983 1.569e-18 17.628)
(-30.9393 -6.59671e-19 17.8161)
(-31.2958 0 18.0317)
(-31.6751 0 18.2577)
(-32.0786 0 18.4948)
(-32.5058 0 18.744)
(-32.9558 0 19.0058)
(-33.4293 -1.16938e-20 19.2806)
(-33.926 2.82335e-19 19.5685)
(-34.4469 0 19.8701)
(-34.9923 0 20.1857)
(-35.563 9.91608e-19 20.5157)
(-36.1596 -6.61262e-22 20.8607)
(-36.7831 2.44678e-18 21.2211)
(-37.4344 0 21.5974)
(-38.1144 0 21.9904)
(-38.8243 0 22.4004)
(-39.565 -1.46566e-21 22.8283)
(-40.3379 0 23.2747)
(-41.1441 0 23.7403)
(-41.985 1.82641e-18 24.2259)
(-42.8619 -1.03703e-21 24.7322)
(-43.7764 0 25.2602)
(-44.7298 0 25.8108)
(-45.724 -2.55587e-18 26.3847)
(-46.7604 -2.32023e-18 26.9831)
(-47.841 -2.26209e-18 27.607)
(-48.9676 -2.1659e-18 28.2574)
(-50.1422 -8.59573e-22 28.9355)
(-51.3668 -8.1529e-22 29.6424)
(-52.6436 2.32836e-18 30.3795)
(-53.9748 0 31.148)
(-55.3629 0 31.9493)
(-56.8105 0 32.7849)
(-58.32 8.82232e-18 33.6564)
(-59.8944 -4.39582e-18 34.5652)
(-61.5366 4.42296e-18 35.5132)
(-63.2497 4.41647e-18 36.5021)
(-65.037 0 37.5338)
(-66.9018 0 38.6103)
(-68.848 0 39.7337)
(-70.8794 8.81681e-18 40.9064)
(-73 0 42.1305)
(-75.2143 -8.5686e-18 43.4087)
(-77.5269 0 44.7437)
(-79.9425 0 46.1382)
(-82.4673 8.02265e-18 47.5956)
(-85.1045 0 49.1181)
(-87.866 0 50.7122)
(-90.7451 0 52.3745)
(-93.7765 -1.2801e-17 54.1246)
(-96.923 0 55.9413)
(-100.206 1.09873e-17 57.8393)
(-103.938 0 59.9922)
(-107.026 1.24037e-21 61.7722)
(-4.87967 -2.92554e-20 5.68879)
(-7.11598 -7.39063e-20 3.99514)
(-7.85808 -4.03405e-22 3.89916)
(-7.85685 0 4.01945)
(-7.67433 -1.57184e-19 4.03914)
(-7.49399 1.69515e-19 3.99687)
(-7.33136 1.7885e-19 3.96094)
(-7.20285 -1.80441e-19 3.93323)
(-7.10787 0 3.92545)
(-7.05033 0 3.92736)
(-7.02274 0 3.93892)
(-7.02293 0 3.96085)
(-7.0498 0 3.99346)
(-7.10138 0 4.03704)
(-7.17636 -8.09906e-22 4.09222)
(-7.27497 0 4.15954)
(-7.39778 3.37098e-19 4.23934)
(-7.54573 0 4.33223)
(-7.72014 -6.57192e-19 4.43929)
(-7.92202 6.41265e-19 4.56164)
(-8.15296 0 4.70066)
(-8.41513 6.04882e-19 4.85773)
(-8.7115 -5.86358e-19 5.03459)
(-9.04544 5.6766e-19 5.233)
(-9.42079 -5.48937e-19 5.45532)
(-9.84163 0 5.70414)
(-10.313 5.02405e-19 5.98252)
(-10.8409 0 6.29407)
(-11.4317 0 6.64241)
(-12.0937 0 7.03297)
(-12.8348 8.8157e-19 7.47)
(-13.6668 0 7.96139)
(-14.6012 0 8.51384)
(-15.6532 0 9.13688)
(-16.8426 0 9.84376)
(-18.184 0 10.6419)
(-19.7132 0 11.5544)
(-21.4435 1.56141e-18 12.5818)
(-23.4169 0 13.7471)
(-25.7066 2.8202e-18 15.09)
(-28.3128 2.50355e-18 16.5963)
(-31.2974 1.00901e-18 18.3236)
(-34.5953 0 20.2817)
(-39.3257 0 22.499)
(-43.6835 -2.7506e-19 25.3085)
(-48.2258 -1.46177e-19 28.3047)
(-55.3201 -1.95944e-19 32.6426)
(-65.387 0 38.7536)
(-78.3051 1.64834e-18 46.4057)
(-91.8897 0 54.1806)
(-103.009 0 60.2556)
(-109.384 2.45398e-18 63.4623)
(-110.8 0 63.8749)
(-108.831 0 62.5158)
(-105.568 -2.56667e-18 60.5839)
(-102.528 0 58.8782)
(-100.348 0 57.694)
(-99.0644 1.38673e-20 57.0166)
(-98.4902 -8.57366e-19 56.7312)
(-98.4286 -6.94071e-21 56.7274)
(-98.7292 0 56.9224)
(-99.2841 1.03669e-18 57.256)
(-100.017 1.011e-18 57.686)
(-100.879 0 58.1857)
(-101.841 1.66185e-18 58.7397)
(-102.891 3.43432e-21 59.3397)
(-104.027 0 59.9789)
(-105.222 -6.10178e-19 60.689)
(-106.491 0 61.4352)
(-107.837 0 62.2202)
(-109.258 0 63.0457)
(-110.753 0 63.9124)
(-112.322 1.95354e-20 64.8213)
(-113.968 -2.74043e-19 65.7733)
(-115.69 0 66.7695)
(-117.492 0 67.811)
(-119.374 9.67877e-19 68.8991)
(-121.34 -1.24776e-21 70.0352)
(-123.392 -1.38229e-21 71.2208)
(-125.533 0 72.4574)
(-127.766 0 73.7469)
(-130.092 0 75.0909)
(-132.517 -2.51655e-21 76.4913)
(-135.043 -2.12022e-18 77.9502)
(-137.674 1.89421e-18 79.4695)
(-140.414 -1.76421e-18 81.0514)
(-143.265 -1.7246e-21 82.6982)
(-146.234 -1.46179e-18 84.4121)
(-149.322 0 86.1957)
(-152.536 2.45593e-18 88.0513)
(-155.879 0 89.9816)
(-159.355 2.16833e-18 91.9892)
(-162.971 0 94.077)
(-166.731 -4.27901e-18 96.2477)
(-170.639 -2.131e-18 98.5043)
(-174.701 0 100.85)
(-178.922 0 103.287)
(-183.308 -4.34646e-18 105.82)
(-187.865 4.25209e-18 108.451)
(-192.597 -8.38242e-18 111.184)
(-197.511 4.17424e-18 114.021)
(-202.613 -4.19629e-18 116.968)
(-207.909 0 120.025)
(-213.404 4.26455e-18 123.199)
(-219.105 0 126.491)
(-225.017 0 129.905)
(-231.146 -8.329e-18 133.444)
(-237.499 0 137.113)
(-244.081 1.61955e-21 140.914)
(-250.898 8.00518e-18 144.851)
(-257.953 0 148.926)
(-265.255 0 153.143)
(-272.802 0 157.502)
(-280.614 6.87622e-18 162.014)
(-288.657 -1.2915e-17 166.66)
(-297.016 1.20332e-17 171.489)
(-305.561 0 176.423)
(-314.333 -1.03192e-17 181.499)
(-324.328 0 187.26)
(-332.02 1.7885e-17 191.59)
(-4.84169 7.05043e-20 7.64436)
(-7.22666 -4.80136e-20 5.95966)
(-9.17338 -2.20546e-19 5.42159)
(-10.3739 0 5.50946)
(-10.963 -1.46903e-19 5.75068)
(-11.1949 -2.136e-21 5.94524)
(-11.2568 0 6.08927)
(-11.2702 1.71195e-19 6.19802)
(-11.2792 0 6.28047)
(-11.3035 1.72281e-19 6.35142)
(-11.3496 0 6.42126)
(-11.4226 0 6.49814)
(-11.5257 0 6.58664)
(-11.6601 0 6.68927)
(-11.8267 -3.31207e-19 6.8082)
(-12.0278 0 6.94508)
(-12.2656 0 7.1012)
(-12.5425 0 7.27831)
(-12.8613 3.11529e-19 7.47857)
(-13.2249 -2.06737e-21 7.70416)
(-13.6367 0 7.95774)
(-14.1011 -1.03642e-21 8.24194)
(-14.6236 0 8.56011)
(-15.2101 -5.36471e-19 8.91565)
(-15.8678 0 9.31303)
(-16.6043 0 9.75689)
(-17.4289 -4.76456e-19 10.253)
(-18.3523 0 10.8078)
(-19.3863 0 11.4279)
(-20.5459 -8.63318e-19 12.1233)
(-21.8456 0 12.9014)
(-23.3069 0 13.7768)
(-24.9506 0 14.7609)
(-26.8061 0 15.8712)
(-28.9079 7.90117e-19 17.1303)
(-31.2868 0 18.5521)
(-34.0039 0 20.179)
(-37.0815 -1.48898e-18 22.0165)
(-40.5992 0 24.1199)
(-44.6665 -2.68505e-18 26.5578)
(-49.3178 1.05508e-20 29.3108)
(-54.666 -9.55116e-19 32.5006)
(-60.882 0 36.1145)
(-69.4716 0 39.5507)
(-76.7999 1.57703e-20 45.616)
(-85.6601 0 51.3155)
(-98.5131 1.85582e-19 59.4462)
(-116.089 0 70.4144)
(-137.792 -4.77839e-20 83.3496)
(-159.96 0 95.7324)
(-177.685 0 104.776)
(-187.607 0 109.031)
(-189.642 2.03634e-18 109.021)
(-186.399 0 106.544)
(-181.182 0 103.442)
(-176.348 0 100.835)
(-172.886 0 99.0817)
(-170.859 -2.12106e-18 98.1188)
(-169.979 0 97.7609)
(-169.934 -5.59138e-21 97.8379)
(-170.477 0 98.2208)
(-171.431 -4.90864e-19 98.8156)
(-172.671 -9.53825e-19 99.5581)
(-174.119 0 100.409)
(-175.729 -1.57363e-18 101.346)
(-177.481 -7.40505e-19 102.36)
(-179.365 0 103.445)
(-181.361 5.75043e-19 104.616)
(-183.476 0 105.85)
(-185.711 0 107.151)
(-188.065 0 108.517)
(-190.536 0 109.949)
(-193.126 -1.87838e-21 111.449)
(-195.834 2.57192e-19 113.017)
(-198.664 0 114.654)
(-201.617 0 116.361)
(-204.696 -1.38974e-21 118.141)
(-207.903 -2.15464e-18 119.995)
(-211.242 -1.11904e-18 121.924)
(-214.714 0 123.931)
(-218.325 0 126.016)
(-222.076 0 128.184)
(-225.972 -4.10397e-18 130.434)
(-230.017 1.65977e-21 132.77)
(-234.212 -1.77646e-18 135.193)
(-238.563 0 137.706)
(-243.072 -1.50765e-18 140.31)
(-247.743 1.37007e-18 143.008)
(-252.579 0 145.801)
(-257.584 0 148.692)
(-262.761 2.08017e-18 151.682)
(-268.112 0 154.772)
(-273.64 1.93744e-18 157.964)
(-279.347 1.23832e-21 161.26)
(-285.234 1.99225e-18 164.66)
(-291.304 -2.07666e-18 168.166)
(-297.556 0 171.777)
(-303.991 4.06695e-18 175.493)
(-310.607 -3.97809e-18 179.314)
(-317.403 7.83792e-18 183.24)
(-324.376 0 187.267)
(-331.522 -3.9217e-18 191.395)
(-338.836 0 195.619)
(-346.31 -3.98727e-18 199.936)
(-353.935 3.93324e-18 204.341)
(-361.701 0 208.828)
(-369.595 7.78492e-18 213.388)
(-377.601 0 218.014)
(-385.7 1.51086e-17 222.693)
(-393.871 -7.4801e-18 227.415)
(-402.088 0 232.163)
(-410.325 0 236.923)
(-418.538 0 241.671)
(-426.715 -1.0526e-21 246.397)
(-434.753 1.2063e-17 251.045)
(-442.736 -1.12352e-17 255.662)
(-450.398 0 260.089)
(-457.711 -9.63494e-18 264.349)
(-466.42 0 269.341)
(-469.69 5.17216e-22 270.943)
(-4.75978 -4.05022e-20 8.66878)
(-6.3606 -7.45644e-21 7.41299)
(-8.32427 1.06375e-19 6.65721)
(-10.1779 -1.25406e-19 6.52248)
(-11.6623 -1.36324e-19 6.74698)
(-12.7157 -2.97861e-19 7.0872)
(-13.4218 0 7.41141)
(-13.8988 0 7.70596)
(-14.2517 0 7.96603)
(-14.5346 -1.63143e-19 8.1997)
(-14.7881 0 8.40857)
(-15.037 0 8.60533)
(-15.2981 0 8.80128)
(-15.5809 0 9.00471)
(-15.8923 0 9.22216)
(-16.2395 -3.06566e-19 9.45811)
(-16.6283 3.02195e-19 9.716)
(-17.0641 0 9.99961)
(-17.5525 0 10.3128)
(-18.0989 -5.74184e-19 10.6593)
(-18.7097 5.55371e-19 11.0435)
(-19.3918 -5.42362e-19 11.4697)
(-20.1537 5.24771e-19 11.9433)
(-21.0045 5.0789e-19 12.4696)
(-21.9552 -4.90102e-19 13.0555)
(-23.017 4.67442e-19 13.7081)
(-24.2042 0 14.4362)
(-25.5325 -4.33428e-19 15.2495)
(-27.0198 0 16.158)
(-28.6881 8.16952e-19 17.1768)
(-30.5589 0 18.3171)
(-32.6645 0 19.601)
(-35.0347 0 21.0456)
(-37.7145 -7.47358e-19 22.678)
(-40.753 -7.47312e-19 24.5316)
(-44.1987 0 26.6288)
(-48.1404 0 29.0324)
(-52.6133 1.40783e-18 31.7517)
(-57.7408 0 34.8742)
(-63.6693 -8.59828e-21 38.4928)
(-70.4785 -1.13382e-18 42.5876)
(-78.3296 0 47.3599)
(-87.7298 0 52.8094)
(-99.8354 0 58.2429)
(-110.825 0 66.9586)
(-124.538 -3.7712e-19 75.7759)
(-143.349 0 87.9913)
(-168.289 -6.65085e-19 103.881)
(-198.198 -1.42675e-18 121.815)
(-228.157 0 138.232)
(-251.834 0 149.605)
(-265.044 0 154.442)
(-267.843 -1.92153e-18 153.828)
(-263.689 1.55123e-18 150.285)
(-256.889 2.38511e-18 146.174)
(-250.519 0 142.826)
(-245.901 1.33265e-18 140.616)
(-243.163 2.02264e-18 139.425)
(-241.956 0 139.012)
(-241.875 1.25912e-18 139.161)
(-242.59 0 139.704)
(-243.859 4.68231e-19 140.52)
(-245.51 9.07316e-19 141.525)
(-247.437 0 142.668)
(-249.579 7.4249e-19 143.924)
(-251.906 7.03163e-19 145.28)
(-254.402 0 146.729)
(-257.048 0 148.275)
(-259.844 0 149.907)
(-262.792 -3.22191e-19 151.622)
(-265.886 -2.03419e-19 153.419)
(-269.126 0 155.298)
(-272.509 -4.83107e-21 157.259)
(-276.036 -2.38063e-19 159.302)
(-279.708 0 161.427)
(-283.524 0 163.634)
(-287.486 -8.51928e-19 165.926)
(-291.594 1.26598e-21 168.301)
(-295.849 0 170.761)
(-300.253 0 173.307)
(-304.806 0 175.938)
(-309.509 0 178.655)
(-314.361 1.94184e-21 181.459)
(-319.363 1.8628e-18 184.349)
(-324.514 0 187.325)
(-329.813 0 190.386)
(-335.258 0 193.532)
(-340.847 1.2809e-18 196.761)
(-346.577 0 200.071)
(-352.442 2.14792e-18 203.459)
(-358.439 -1.94753e-18 206.923)
(-364.56 1.89575e-18 210.459)
(-370.798 -1.81336e-18 214.063)
(-377.142 3.74424e-18 217.728)
(-383.583 -1.86417e-18 221.449)
(-390.107 1.94292e-18 225.218)
(-396.698 0 229.026)
(-403.339 0 232.863)
(-410.01 -3.71708e-18 236.718)
(-416.689 -3.66403e-18 240.577)
(-423.348 -3.64617e-18 244.425)
(-429.959 1.45069e-21 248.245)
(-436.488 0 252.019)
(-442.898 0 255.724)
(-449.147 -3.67618e-18 259.337)
(-455.191 0 262.831)
(-460.977 -7.27127e-18 266.176)
(-466.45 0 269.342)
(-471.548 -1.74721e-21 272.291)
(-476.205 0 274.986)
(-480.346 -6.73948e-18 277.383)
(-483.899 6.59095e-18 279.441)
(-486.766 6.28756e-18 281.104)
(-488.894 -1.3266e-21 282.34)
(-490.108 0 283.05)
(-490.493 1.04921e-17 283.282)
(-489.667 9.73163e-18 282.803)
(-487.537 8.9967e-18 281.644)
(-486.703 0 281.053)
(-475.86 1.40843e-21 274.465)
(-4.9697 0 9.16301)
(-5.78286 -6.97828e-21 8.38315)
(-7.09553 0 7.66896)
(-8.76566 1.18593e-19 7.32133)
(-10.5161 2.60393e-19 7.35506)
(-12.1098 1.39588e-19 7.64094)
(-13.449 0 8.04082)
(-14.5387 0 8.47139)
(-15.4222 -1.51017e-19 8.90126)
(-16.1561 -1.52204e-19 9.31708)
(-16.7865 1.52919e-19 9.71485)
(-17.3539 3.06489e-19 10.0894)
(-17.8905 3.05023e-19 10.4477)
(-18.4188 0 10.7994)
(-18.9552 0 11.1557)
(-19.5145 5.79092e-19 11.5252)
(-20.1086 -6.52457e-22 11.9145)
(-20.7476 0 12.3303)
(-21.4416 -2.75246e-19 12.7787)
(-22.1999 -5.37576e-19 13.2654)
(-23.0324 -5.24936e-19 13.7971)
(-23.9498 0 14.3799)
(-24.9641 -4.9597e-19 15.0217)
(-26.0879 4.77379e-19 15.7301)
(-27.3364 4.63154e-19 16.5145)
(-28.725 -9.01928e-22 17.3848)
(-30.2732 0 18.353)
(-32.002 5.155e-22 19.4325)
(-33.9355 0 20.6368)
(-36.1033 7.69765e-19 21.9865)
(-38.5341 0 23.4969)
(-41.2713 0 25.1979)
(-44.3534 0 27.113)
(-47.8417 7.05786e-19 29.279)
(-51.8001 0 31.741)
(-56.2945 0 34.5301)
(-61.4439 0 37.7304)
(-67.2975 0 41.356)
(-74.0223 -1.29069e-18 45.5275)
(-81.8012 2.42835e-18 50.3661)
(-90.7664 0 55.8481)
(-101.108 9.24048e-19 62.2733)
(-113.547 0 69.6975)
(-128.626 0 78.1981)
(-144.044 0 88.6131)
(-162.59 -7.69712e-20 100.758)
(-187.092 0 117.1)
(-218.738 6.27125e-19 137.693)
(-255.933 0 160.091)
(-292.855 0 179.833)
(-322.093 2.10625e-18 192.898)
(-338.743 0 197.953)
(-342.825 0 196.685)
(-338.37 1.94593e-20 192.244)
(-330.463 -2.24709e-18 187.359)
(-322.818 0 183.463)
(-317.118 1.69914e-20 180.904)
(-313.613 -1.92804e-18 179.515)
(-311.953 0 179.023)
(-311.676 -5.95514e-19 179.184)
(-312.386 0 179.808)
(-313.78 -4.40765e-19 180.75)
(-315.643 -8.53908e-19 181.91)
(-317.839 0 183.229)
(-320.287 -7.04037e-19 184.677)
(-322.948 2.82075e-21 186.237)
(-325.797 0 187.9)
(-328.814 0 189.665)
(-331.992 0 191.523)
(-335.329 6.07407e-19 193.468)
(-338.818 -1.36778e-21 195.498)
(-342.454 0 197.609)
(-346.231 1.10179e-21 199.801)
(-350.147 4.44829e-19 202.07)
(-354.197 0 204.417)
(-358.379 0 206.838)
(-362.688 0 209.332)
(-367.121 1.31097e-21 211.896)
(-371.673 0 214.53)
(-376.34 0 217.229)
(-381.116 0 219.99)
(-385.995 0 222.811)
(-390.969 1.79997e-18 225.686)
(-396.031 1.74188e-18 228.612)
(-401.169 0 231.582)
(-406.375 0 234.591)
(-411.633 0 237.63)
(-416.932 -1.28226e-21 240.692)
(-422.253 0 243.768)
(-427.58 -2.01041e-18 246.846)
(-432.891 0 249.916)
(-438.164 -1.77391e-18 252.963)
(-443.372 0 255.974)
(-448.487 -1.75077e-18 258.93)
(-453.477 0 261.815)
(-458.308 0 264.608)
(-462.94 0 267.286)
(-467.331 0 269.825)
(-471.434 3.47542e-18 272.199)
(-475.201 0 274.378)
(-478.575 3.40843e-18 276.33)
(-481.498 3.42577e-18 278.023)
(-483.908 0 279.419)
(-485.737 0 280.48)
(-486.915 0 281.165)
(-487.367 0 281.431)
(-487.015 2.04316e-21 281.234)
(-485.78 0 280.526)
(-483.58 -1.31805e-17 279.261)
(-480.334 0 277.392)
(-475.961 1.25883e-17 274.872)
(-470.389 -6.15582e-18 271.66)
(-463.529 -5.87211e-18 267.704)
(-455.36 -5.60012e-18 262.99)
(-445.726 0 257.432)
(-434.818 0 251.139)
(-422.246 -1.8171e-17 243.863)
(-408.075 8.39749e-18 235.793)
(-395.431 7.77112e-18 228.24)
(-370.024 -7.27523e-18 213.43)
(-5.23195 0 9.48023)
(-5.68622 1.13755e-19 8.99853)
(-6.37914 0 8.45028)
(-7.48256 0 8.02741)
(-8.90468 0 7.87216)
(-10.4602 0 7.98419)
(-12 0 8.29351)
(-13.4439 1.37881e-19 8.7245)
(-14.7595 1.42549e-19 9.22228)
(-15.9443 2.85689e-19 9.74749)
(-17.0095 -2.87584e-19 10.2877)
(-17.9834 -2.89286e-19 10.8292)
(-18.8887 -2.87899e-19 11.3664)
(-19.7514 0 11.895)
(-20.5937 0 12.4215)
(-21.4367 -5.45122e-19 12.9543)
(-22.2979 -5.36771e-19 13.5022)
(-23.1922 0 14.0745)
(-24.1346 2.59769e-19 14.6795)
(-25.139 5.07335e-19 15.3251)
(-26.2195 0 16.0202)
(-27.3909 4.79788e-19 16.773)
(-28.6693 0 17.5936)
(-30.0711 -1.88333e-21 18.492)
(-31.6161 -4.33696e-19 19.4808)
(-33.3239 -1.13641e-21 20.5723)
(-35.2193 0 21.7818)
(-37.3287 3.85853e-19 23.1267)
(-39.6822 -7.36482e-19 24.6238)
(-42.3173 -1.45038e-18 26.2997)
(-45.2689 -7.05001e-19 28.1733)
(-48.5922 0 30.2831)
(-52.3332 -6.85996e-19 32.6581)
(-56.5687 0 35.345)
(-61.3778 0 38.4015)
(-66.8409 0 41.8653)
(-73.1081 0 45.844)
(-80.2423 0 50.357)
(-88.4474 -6.97078e-21 55.5555)
(-97.9438 -1.14887e-18 61.5962)
(-108.919 0 68.4419)
(-121.567 -1.77366e-18 76.5031)
(-136.715 0 85.884)
(-154.889 0 96.8609)
(-174.295 0 109.442)
(-197.26 4.07397e-19 124.848)
(-226.729 0 145.053)
(-263.933 0 169.824)
(-307.108 0 195.954)
(-349.994 0 218.276)
(-384.477 -3.95142e-18 232.501)
(-404.956 0 237.575)
(-411.135 0 235.752)
(-407.234 -1.39386e-18 230.675)
(-398.86 0 225.293)
(-390.28 0 221.047)
(-383.568 -2.41119e-18 218.225)
(-379.185 9.12527e-19 216.627)
(-376.853 0 215.976)
(-376.11 0 216.03)
(-376.524 0 216.592)
(-377.741 4.20039e-19 217.502)
(-379.505 0 218.648)
(-381.643 0 219.962)
(-384.055 1.32597e-18 221.407)
(-386.684 -1.25094e-18 222.963)
(-389.498 0 224.616)
(-392.469 0 226.364)
(-395.586 0 228.194)
(-398.84 -2.85991e-19 230.098)
(-402.22 1.81006e-19 232.07)
(-405.713 1.84764e-19 234.104)
(-409.31 -7.02748e-22 236.195)
(-413 -2.07699e-19 238.338)
(-416.774 4.09383e-19 240.528)
(-420.622 0 242.759)
(-424.532 0 245.026)
(-428.493 8.85577e-19 247.32)
(-432.492 0 249.636)
(-436.516 0 251.966)
(-440.548 0 254.3)
(-444.573 0 256.629)
(-448.571 0 258.943)
(-452.523 -3.26045e-18 261.229)
(-456.405 0 263.475)
(-460.194 -1.3523e-18 265.667)
(-463.861 0 267.789)
(-467.378 -1.29264e-21 269.824)
(-470.711 2.02063e-18 271.753)
(-473.826 0 273.555)
(-476.685 0 275.21)
(-479.245 0 276.692)
(-481.463 0 277.977)
(-483.291 1.63489e-18 279.037)
(-484.677 0 279.841)
(-485.568 0 280.36)
(-485.906 0 280.559)
(-485.631 0 280.405)
(-484.681 0 279.861)
(-482.991 0 278.889)
(-480.496 0 277.453)
(-477.128 0 275.512)
(-472.823 -3.18995e-18 273.03)
(-467.515 0 269.969)
(-461.142 0 266.293)
(-453.647 0 261.968)
(-444.979 6.34444e-18 256.966)
(-435.097 0 251.262)
(-423.968 6.15465e-18 244.837)
(-411.575 0 237.682)
(-397.915 -1.64757e-21 229.795)
(-383.012 0 221.189)
(-366.886 5.48059e-18 211.876)
(-349.653 0 201.922)
(-331.278 0 191.311)
(-312.16 0 180.27)
(-291.971 8.48149e-18 168.58)
(-271.205 -1.56788e-17 156.749)
(-252.427 -1.45085e-17 145.484)
(-222.969 -6.79941e-18 128.69)
(-5.43682 0 9.74336)
(-5.79757 -1.17395e-19 9.41537)
(-6.17415 0 9.0282)
(-6.79677 0 8.65313)
(-7.72259 -1.19139e-19 8.40545)
(-8.89077 -1.21935e-19 8.3523)
(-10.206 1.25168e-19 8.49527)
(-11.591 -3.86043e-19 8.8024)
(-12.991 0 9.23382)
(-14.3684 -1.58642e-21 9.75185)
(-15.703 1.35034e-19 10.3247)
(-16.9838 0 10.9395)
(-18.2163 0 11.5843)
(-19.4064 0 12.253)
(-20.5684 0 12.9352)
(-21.7198 1.5999e-21 13.6298)
(-22.8773 1.92869e-21 14.3406)
(-24.0567 2.45636e-19 15.0763)
(-25.275 2.40722e-19 15.8457)
(-26.5483 0 16.6578)
(-27.8941 -4.60797e-19 17.5232)
(-29.3302 -4.52142e-19 18.451)
(-30.8762 0 19.4536)
(-32.5522 -2.41023e-21 20.5429)
(-34.382 2.34692e-21 21.7339)
(-36.3891 -3.9081e-19 23.0415)
(-38.603 0 24.484)
(-41.0556 0 26.0827)
(-43.7815 6.93825e-19 27.857)
(-46.8264 2.55163e-21 29.8399)
(-50.2296 1.3269e-18 32.0529)
(-54.0581 0 34.5431)
(-58.3635 1.29061e-18 37.3449)
(-63.2353 0 40.513)
(-68.7688 0 44.1193)
(-75.0521 -6.14018e-19 48.2043)
(-82.2665 0 52.9009)
(-90.4876 -1.19764e-18 58.2321)
(-99.9437 -6.79695e-21 64.3739)
(-110.892 1.1018e-18 71.5256)
(-123.576 0 79.6226)
(-138.17 -3.01047e-20 89.1876)
(-155.578 0 100.353)
(-176.563 0 113.16)
(-199.117 0 128.152)
(-225.781 0 146.476)
(-259.072 0 169.982)
(-300.241 -3.95738e-19 198.121)
(-347.678 0 227.049)
(-395.236 0 251.123)
(-434.526 1.85113e-18 266.002)
(-459.285 0 270.977)
(-468.55 1.66349e-18 268.792)
(-466.28 1.34632e-18 263.419)
(-458.282 -2.07815e-18 257.875)
(-449.247 0 253.51)
(-441.661 1.14119e-18 250.517)
(-436.277 8.81672e-19 248.676)
(-432.99 0 247.743)
(-431.416 0 247.516)
(-431.134 0 247.813)
(-431.765 -3.94575e-19 248.473)
(-433.008 0 249.376)
(-434.655 0 250.442)
(-436.576 -6.23726e-19 251.628)
(-438.696 1.1793e-18 252.907)
(-440.971 0 254.262)
(-443.361 0 255.685)
(-445.849 0 257.162)
(-448.42 0 258.679)
(-451.053 1.72276e-19 260.227)
(-453.73 -1.73481e-19 261.796)
(-456.433 0 263.376)
(-459.143 0 264.958)
(-461.844 -3.83498e-19 266.531)
(-464.514 0 268.086)
(-467.136 -6.96674e-19 269.611)
(-469.686 8.26878e-19 271.094)
(-472.142 0 272.521)
(-474.48 0 273.879)
(-476.672 0 275.153)
(-478.692 0 276.326)
(-480.507 0 277.381)
(-482.086 1.5251e-18 278.299)
(-483.393 0 279.059)
(-484.39 2.52948e-18 279.641)
(-485.038 0 280.02)
(-485.294 -1.31569e-21 280.173)
(-485.114 -2.28544e-21 280.074)
(-484.449 0 279.695)
(-483.252 1.5874e-18 279.008)
(-481.471 0 277.984)
(-479.053 0 276.592)
(-475.944 -3.05599e-18 274.801)
(-472.091 0 272.58)
(-467.438 0 269.898)
(-461.934 0 266.723)
(-455.526 0 263.026)
(-448.167 0 258.779)
(-439.812 0 253.957)
(-430.425 0 248.539)
(-419.975 0 242.506)
(-408.442 2.98035e-18 235.848)
(-395.817 0 228.558)
(-382.105 0 220.641)
(-367.327 0 212.106)
(-351.521 -5.92194e-18 202.978)
(-334.744 -5.9385e-18 193.288)
(-317.077 -5.74425e-18 183.083)
(-298.622 5.68677e-18 172.423)
(-279.5 -1.52586e-21 161.377)
(-259.867 -5.36344e-18 150.035)
(-239.869 -1.02333e-17 138.484)
(-219.752 0 126.861)
(-199.576 9.16016e-18 115.21)
(-179.877 8.53182e-18 103.834)
(-160.27 0 92.4779)
(-141.685 7.31776e-18 81.9497)
(-125.091 6.77117e-18 71.822)
(-103.03 6.35095e-18 59.6405)
(-5.58059 0 9.99105)
(-5.91487 5.74063e-20 9.74627)
(-6.188 0 9.46691)
(-6.56363 0 9.17811)
(-7.13184 1.12218e-19 8.92885)
(-7.89741 1.14846e-19 8.78711)
(-8.83432 -1.17885e-19 8.79007)
(-9.90977 3.60709e-19 8.94349)
(-11.0914 0 9.23493)
(-12.3484 1.22478e-19 9.64406)
(-13.655 -2.49879e-19 10.1469)
(-14.9903 0 10.7262)
(-16.3404 2.49278e-19 11.3678)
(-17.696 0 12.0687)
(-19.0602 2.42016e-19 12.8193)
(-20.4341 2.39919e-19 13.6134)
(-21.8263 2.35771e-19 14.4429)
(-23.2465 -2.31233e-19 15.3095)
(-24.7084 -4.50828e-19 16.2179)
(-26.2257 0 17.1757)
(-27.8151 4.33737e-19 18.1934)
(-29.4943 0 19.2801)
(-31.2842 0 20.4492)
(-33.2058 -3.9556e-19 21.7132)
(-35.2859 7.61934e-19 23.0888)
(-37.5502 0 24.5925)
(-40.0315 0 26.2445)
(-42.7659 0 28.0698)
(-45.7909 -6.48689e-19 30.0891)
(-49.1594 6.39586e-19 32.3416)
(-52.9127 -2.3483e-21 34.8502)
(-57.1278 6.09784e-19 37.6699)
(-61.861 -1.21002e-18 40.8399)
(-67.2082 5.88346e-19 44.4197)
(-73.2821 -5.883e-19 48.4974)
(-80.1704 -3.5671e-22 53.1104)
(-88.081 0 58.4175)
(-97.1032 1.12634e-18 64.4442)
(-107.472 1.08961e-18 71.3789)
(-119.474 -1.03606e-18 79.4737)
(-133.412 0 88.6193)
(-149.416 8.27312e-19 99.4398)
(-168.418 8.11562e-19 112.1)
(-191.349 1.33684e-18 126.47)
(-216.175 5.36243e-19 143.391)
(-245.469 0 164.046)
(-281.107 0 190.027)
(-324.292 5.31887e-20 220.49)
(-373.87 0 251.094)
(-424.374 0 275.974)
(-467.67 1.70077e-18 290.933)
(-496.953 -1.74449e-18 295.666)
(-510.279 -1.56239e-18 293.312)
(-510.856 1.6635e-20 288.013)
(-504.293 -3.06293e-20 282.694)
(-495.499 0 278.497)
(-487.333 0 275.463)
(-480.9 -1.66897e-18 273.358)
(-476.374 0 272.008)
(-473.553 0 271.293)
(-472.101 4.52353e-19 271.083)
(-471.651 0 271.232)
(-471.872 0 271.616)
(-472.515 -6.29341e-19 272.149)
(-473.417 5.89738e-19 272.776)
(-474.477 -1.11074e-18 273.464)
(-475.634 0 274.19)
(-476.838 4.30698e-19 274.942)
(-478.062 0 275.7)
(-479.282 0 276.448)
(-480.47 -3.24134e-19 277.169)
(-481.6 0 277.851)
(-482.644 0 278.479)
(-483.577 0 279.039)
(-484.371 0 279.517)
(-485 0 279.896)
(-485.433 6.52343e-19 280.161)
(-485.642 -1.3976e-21 280.295)
(-485.593 -8.02616e-19 280.278)
(-485.253 8.6236e-19 280.092)
(-484.588 0 279.718)
(-483.561 0 279.134)
(-482.133 0 278.317)
(-480.265 0 277.246)
(-477.915 0 275.896)
(-475.041 -1.43323e-21 274.242)
(-471.599 0 272.26)
(-467.545 -9.78715e-19 269.925)
(-462.834 -2.27644e-21 267.209)
(-457.424 0 264.09)
(-451.27 -1.48432e-18 260.54)
(-444.333 0 256.538)
(-436.573 1.37997e-18 252.06)
(-427.956 1.25551e-21 247.088)
(-418.453 0 241.603)
(-408.041 0 235.592)
(-396.703 0 229.046)
(-384.432 0 221.962)
(-371.234 2.83081e-18 214.341)
(-357.125 0 206.193)
(-342.134 0 197.536)
(-326.308 2.78881e-18 188.396)
(-309.709 0 178.809)
(-292.418 -2.83362e-18 168.821)
(-274.532 2.79615e-18 158.49)
(-256.168 0 147.882)
(-237.462 1.10593e-17 137.077)
(-218.563 2.17528e-21 126.16)
(-199.637 1.07264e-17 115.227)
(-180.859 -5.31005e-18 104.381)
(-162.409 -5.12183e-18 93.7243)
(-144.478 5.00765e-18 83.368)
(-127.22 4.77635e-18 73.4034)
(-110.868 4.55292e-18 63.9596)
(-95.4112 -8.55142e-18 55.0425)
(-81.3372 -7.96453e-18 46.921)
(-68.0431 -7.3852e-18 39.2177)
(-56.6564 -6.8298e-18 32.8743)
(-46.5011 0 26.409)
(-35.2109 0 20.655)
(-5.68301 0 10.2269)
(-5.99347 5.99189e-20 10.0362)
(-6.23392 0 9.82617)
(-6.51685 0 9.60802)
(-6.90713 0 9.40207)
(-7.41556 0 9.244)
(-8.04579 1.11746e-19 9.17245)
(-8.79692 -1.12491e-19 9.21134)
(-9.66399 1.14388e-19 9.36838)
(-10.6374 -2.32399e-19 9.64023)
(-11.7053 2.35042e-19 10.0172)
(-12.8562 0 10.4887)
(-14.079 -2.34458e-19 11.0458)
(-15.3671 0 11.6786)
(-16.7127 -2.27611e-19 12.3869)
(-18.1156 -2.20704e-19 13.1675)
(-19.5728 0 14.0199)
(-21.0869 0 14.9366)
(-22.6656 2.10853e-19 15.9151)
(-24.3169 0 16.9577)
(-26.0532 0 18.0727)
(-27.8888 -3.91454e-19 19.2673)
(-29.8413 0 20.5553)
(-31.9301 0 21.9484)
(-34.1811 -3.56825e-19 23.4638)
(-36.62 0 25.1184)
(-39.2795 0 26.9328)
(-42.1985 0 28.9345)
(-45.4136 1.21578e-18 31.1438)
(-48.9834 0 33.6055)
(-52.9479 -3.65285e-21 36.3419)
(-57.3908 -3.91288e-21 39.4144)
(-62.3719 5.67357e-19 42.8661)
(-67.9849 -5.52913e-19 46.7568)
(-74.3603 1.10314e-18 51.1924)
(-81.5776 5.43034e-19 56.2006)
(-89.8604 0 61.9645)
(-99.3155 0 68.512)
(-110.162 1.03464e-18 76.0265)
(-122.706 -9.93435e-19 84.8239)
(-137.305 0 94.7334)
(-154.027 0 106.452)
(-173.777 2.60921e-20 120.21)
(-197.582 -1.25553e-18 135.708)
(-223.499 -5.03655e-19 153.933)
(-254.069 -5.65918e-19 176.118)
(-290.373 0 203.546)
(-333.433 4.96147e-20 235.117)
(-382.716 0 266.142)
(-433.948 0 290.751)
(-479.858 -1.59607e-18 305.084)
(-513.4 1.63706e-18 309.296)
(-531.473 0 306.859)
(-536.074 -1.20207e-18 301.95)
(-532.155 -2.90626e-20 297.254)
(-524.548 0 293.565)
(-516.348 0 290.694)
(-509.009 1.59246e-18 288.361)
(-503.065 0 286.489)
(-498.614 0 285.09)
(-495.509 -8.52458e-19 284.125)
(-493.46 0 283.492)
(-492.133 0 283.076)
(-491.245 1.18353e-18 282.782)
(-490.589 -5.52778e-19 282.547)
(-490.039 5.21566e-19 282.331)
(-489.511 0 282.103)
(-488.941 -4.03552e-19 281.846)
(-488.293 0 281.537)
(-487.535 2.40686e-19 281.155)
(-486.634 1.52311e-19 280.679)
(-485.554 0 280.093)
(-484.263 0 279.379)
(-482.728 1.6836e-19 278.519)
(-480.916 3.34146e-19 277.497)
(-478.795 0 276.292)
(-476.33 0 274.887)
(-473.488 -1.44515e-18 273.261)
(-470.232 7.51132e-19 271.395)
(-466.527 -1.61215e-18 269.268)
(-462.337 0 266.86)
(-457.626 0 264.149)
(-452.358 0 261.116)
(-446.497 0 257.739)
(-440.008 0 253.999)
(-432.858 -1.42561e-21 249.877)
(-425.016 0 245.354)
(-416.454 0 240.414)
(-407.148 -2.24445e-21 235.045)
(-397.078 0 229.233)
(-386.231 -1.38372e-18 222.972)
(-374.599 0 216.257)
(-362.183 -1.28988e-18 209.089)
(-348.995 1.19309e-21 201.475)
(-335.055 0 193.425)
(-320.395 0 184.96)
(-305.062 0 176.105)
(-289.113 0 166.894)
(-272.622 -1.4826e-21 157.369)
(-255.678 2.60358e-18 147.583)
(-238.383 -2.59083e-18 137.593)
(-220.852 -2.60494e-18 127.467)
(-203.217 0 117.281)
(-185.616 2.64645e-18 107.115)
(-168.198 -2.6113e-18 97.0548)
(-151.117 0 87.1898)
(-134.527 -5.1627e-18 77.609)
(-118.578 1.03504e-17 68.3997)
(-103.413 -5.00678e-18 59.6439)
(-89.1602 0 51.4161)
(-75.9254 4.77948e-18 43.7781)
(-63.8045 0 36.7841)
(-52.8302 0 30.4558)
(-43.1033 -4.25012e-18 24.8447)
(-34.4532 0 19.8668)
(-27.2389 0 15.7107)
(-20.6417 6.89335e-18 11.8812)
(-15.8566 6.37474e-18 9.35783)
(-11.2341 5.89496e-18 6.07312)
(-7.39946 -5.53448e-18 4.70594)
(-5.75693 0 10.4472)
(-6.04174 -5.63073e-20 10.2984)
(-6.26132 -1.14608e-19 10.1385)
(-6.50357 0 9.97201)
(-6.81556 0 9.81459)
(-7.19995 0 9.67795)
(-7.65458 -1.05021e-19 9.58677)
(-8.18607 0 9.56643)
(-8.80141 -1.075e-19 9.63343)
(-9.5037 0 9.79481)
(-10.2931 0 10.0509)
(-11.1696 2.16518e-19 10.3987)
(-12.1332 0 10.8351)
(-13.1851 2.11943e-19 11.3549)
(-14.3258 -2.08453e-19 11.9572)
(-15.5555 2.07369e-19 12.6405)
(-16.8721 0 13.4126)
(-18.282 -1.96636e-19 14.2727)
(-19.7853 0 15.2235)
(-21.3873 -3.81237e-19 16.26)
(-23.0975 0 17.3867)
(-24.9266 3.67728e-19 18.6063)
(-26.888 -3.5169e-19 19.9322)
(-28.9973 0 21.3751)
(-31.2765 0 22.9521)
(-33.7489 3.16226e-19 24.6803)
(-36.4434 0 26.5785)
(-39.3992 0 28.6768)
(-42.6479 -4.97967e-21 30.9921)
(-46.2512 0 33.5742)
(-50.2444 -1.08478e-18 36.4423)
(-54.7113 -5.34506e-19 39.6616)
(-59.7165 5.23722e-19 43.2792)