/*--------------------------------*- C++ -*----------------------------------*\
| =========                 |                                                 |
| \\      /  F ield         | OpenFOAM: The Open Source CFD Toolbox           |
|  \\    /   O peration     | Version:  2412                                  |
|   \\  /    A nd           | Website:  www.openfoam.com                      |
|    \\/     M anipulation  |                                                 |
\*---------------------------------------------------------------------------*/
FoamFile
{
    version     2.0;
    format      ascii;
    arch        "LSB;label=32;scalar=64";
    class       surfaceScalarField;
    location    "0.015";
    object      phi_0;
}
// * * * * * * * * * * * * * * * * * * * * * * * * * * * * * * * * * * * * * //

dimensions      [0 3 -1 0 0 0 0];

oriented        oriented;

internalField   nonuniform List<scalar> 
24930
(
0.0139403
0.0101663
-0.0241066
0.0079016
0.00603872
0.00532314
0.00257846
0.00416902
0.00115412
0.00352166
0.00064736
0.00309426
0.000427398
0.00278333
0.000310933
0.00254375
0.000239575
0.00235192
0.000191834
0.00219391
0.000158015
0.00206094
0.000132969
0.00194714
0.000113793
0.00184841
9.87295e-05
0.00176177
8.66448e-05
0.001685
7.67722e-05
0.00161642
6.85776e-05
0.00155474
6.16813e-05
0.00149893
5.58058e-05
0.00144819
5.07446e-05
0.00140185
4.63419e-05
0.00135937
4.24771e-05
0.00132031
3.90557e-05
0.00128431
3.6003e-05
0.00125105
3.32586e-05
0.00122028
3.07736e-05
0.00119177
2.85074e-05
0.00116534
2.64266e-05
0.00114084
2.45025e-05
0.00111813
2.2711e-05
0.0010971
2.10312e-05
0.00107766
1.94444e-05
0.00105972
1.79348e-05
0.00104323
1.64862e-05
0.00102815
1.50861e-05
0.00101443
1.37197e-05
0.00100205
1.23752e-05
0.000991013
1.10403e-05
0.000981316
9.69655e-06
0.000972975
8.34092e-06
0.000966038
6.93677e-06
0.000960556
5.48258e-06
0.000956595
3.96126e-06
0.000954321
2.27322e-06
0.000953887
4.34739e-07
0.000955422
-1.53486e-06
0.000958805
-3.38322e-06
0.000964704
-5.89896e-06
0.000974086
-9.38244e-06
0.000988014
-1.39283e-05
0.00100698
-1.89674e-05
0.00103044
-2.34623e-05
0.00105694
-2.64941e-05
0.00108473
-2.77923e-05
0.00111252
-2.77877e-05
0.00113975
-2.7228e-05
0.00116648
-2.67386e-05
0.00119311
-2.66273e-05
0.00122006
-2.6943e-05
0.00124767
-2.76166e-05
0.00127624
-2.85641e-05
0.00130596
-2.97215e-05
0.001337
-3.10472e-05
0.00136952
-3.25152e-05
0.00140363
-3.41118e-05
0.00143946
-3.58314e-05
0.00147714
-3.76759e-05
0.00151679
-3.96481e-05
0.00155854
-4.1753e-05
0.00160253
-4.39951e-05
0.00164892
-4.63886e-05
0.00169787
-4.89417e-05
0.00174953
-5.16639e-05
0.0018041
-5.45667e-05
0.00186176
-5.76614e-05
0.00192272
-6.09614e-05
0.0019872
-6.44808e-05
0.00205543
-6.82348e-05
0.00212767
-7.22407e-05
0.00220419
-7.65155e-05
0.00228527
-8.10795e-05
0.00237122
-8.59537e-05
0.00246238
-9.11599e-05
0.00255911
-9.67237e-05
0.00266178
-0.000102671
0.00277081
-0.000109031
0.00288664
-0.000115834
0.00300976
-0.000123113
0.00314066
-0.000130906
0.00327991
-0.000139249
0.0034281
-0.000148187
0.00358586
-0.000157764
0.00375389
-0.00016803
0.00393293
-0.000179037
0.00412377
-0.000190844
0.00432729
-0.000203512
0.0045444
-0.000217112
0.00477611
-0.000231711
0.0050235
-0.000247394
0.00528774
-0.000264242
0.00557009
-0.000282345
0.0058719
-0.000301812
0.00619465
-0.000322748
0.00653991
-0.000345265
0.00690941
-0.0003695
0.007305
-0.000395581
0.00772866
-0.000423668
0.00818258
-0.000453912
0.00866907
-0.000486498
0.00919069
-0.000521613
0.00975014
-0.000559455
0.0103504
-0.00060025
0.0109946
-0.000644225
0.0116863
-0.000691653
0.012429
-0.000742687
0.0132267
-0.000797741
0.014083
-0.000856265
0.0150031
-0.000920132
0.0159783
-0.000975172
0.0170593
-0.00108107
-0.000893337
0.028875
0.0128878
-0.0315965
0.0236751
0.0112386
0.0188351
0.00741854
0.0153728
0.00461642
0.0130574
0.00296266
0.0114554
0.00202942
0.0102833
0.00148307
0.00938291
0.00113995
0.00866425
0.000910495
0.00807359
0.000748683
0.00757723
0.000629325
0.00715287
0.00053815
0.006785
0.000466598
0.00646244
0.000409215
0.00617686
0.000362351
0.00592196
0.000323471
0.00569288
0.000290769
0.00548576
0.000262924
0.00529755
0.000238953
0.00512578
0.000218115
0.00496842
0.000199834
0.00482381
0.000183661
0.00469058
0.00016924
0.00456755
0.000156285
0.00445376
0.000144561
0.00434839
0.000133878
0.00425075
0.000124074
0.00416024
0.000115013
0.00407636
0.000106582
0.00399872
9.86796e-05
0.00392694
9.12181e-05
0.00386076
8.41203e-05
0.00379993
7.73105e-05
0.00374429
7.0726e-05
0.00369371
6.42976e-05
0.00364812
5.79669e-05
0.00360749
5.16705e-05
0.00357186
4.53312e-05
0.00354129
3.89063e-05
0.00351598
3.22541e-05
0.00349611
2.53459e-05
0.003482
1.80773e-05
0.00347424
1.00293e-05
0.00347347
1.20485e-06
0.00347994
-8.00164e-06
0.00349402
-1.74626e-05
0.00351796
-2.98425e-05
0.00355493
-4.63493e-05
0.0036079
-6.69008e-05
0.00367772
-8.8788e-05
0.00376195
-0.000107693
0.00385557
-0.000120115
0.0039531
-0.000125319
0.00405063
-0.000125321
0.00414665
-0.000123246
0.00424152
-0.000121609
0.00433651
-0.000121621
0.00443303
-0.000123454
0.00453223
-0.00012682
0.00463503
-0.000131366
0.00474213
-0.000136825
0.00485411
-0.00014302
0.00497144
-0.000149846
0.00509457
-0.000157247
0.00522395
-0.000165207
0.00536001
-0.000173733
0.0055032
-0.000182842
0.005654
-0.000192557
0.00581292
-0.000202909
0.00598048
-0.000213951
0.00615726
-0.000225722
0.00634387
-0.000238268
0.00654094
-0.00025164
0.00674917
-0.00026589
0.00696929
-0.00028108
0.00720208
-0.000297274
0.00744838
-0.000314541
0.0077091
-0.000332957
0.00798519
-0.000352604
0.00827768
-0.00037357
0.00858768
-0.00039595
0.00891636
-0.000419848
0.00926501
-0.000445372
0.00963499
-0.000472643
0.0100277
-0.00050179
0.0104449
-0.000532951
0.010888
-0.000566275
0.011359
-0.000601925
0.0118599
-0.000640073
0.0123926
-0.000680907
0.0129595
-0.000724632
0.0135629
-0.000771463
0.0142055
-0.000821638
0.01489
-0.0008754
0.0156196
-0.000933052
0.0163973
-0.000994852
0.0172268
-0.00106115
0.0181116
-0.00113226
0.0190559
-0.00120856
0.0200641
-0.00129046
0.0211406
-0.0013784
0.0222907
-0.00147281
0.0235197
-0.00157422
0.0248333
-0.00168314
0.0262379
-0.00180016
0.0277401
-0.00192591
0.0293473
-0.00206107
0.0310671
-0.00220632
0.0329079
-0.00236244
0.0348787
-0.00253026
0.0369892
-0.00271069
0.0392495
-0.00290458
0.0416708
-0.00311293
0.0442647
-0.00333657
0.0470435
-0.00357654
0.0500193
-0.00383206
0.0532073
-0.00410811
0.0565817
-0.00434965
0.0603275
-0.00482685
-0.00402028
0.0367327
0.012063
-0.0359079
0.0348128
0.0131585
0.0311036
0.0111277
0.0272549
0.00846511
0.0239719
0.00624567
0.0213578
0.00464351
0.0193037
0.00353717
0.0176704
0.00277326
0.0163444
0.00223646
0.0152445
0.00184859
0.0143149
0.00155896
0.0135169
0.00133615
0.0128231
0.00116042
0.0122134
0.00101892
0.0116727
0.000902996
0.0111896
0.000806584
0.010755
0.000725338
0.0103619
0.000656064
0.0100045
0.000596368
0.00967816
0.000544428
0.00937916
0.000498838
0.00910433
0.000458488
0.00885107
0.0004225
0.00861719
0.000390162
0.00840085
0.000360899
0.0082005
0.000334231
0.00801481
0.00030976
0.00784268
0.000287148
0.00768315
0.000266108
0.00753544
0.000246391
0.00739888
0.000227776
0.00727294
0.000210068
0.00715717
0.00019308
0.00705124
0.000176649
0.00695494
0.000160605
0.00686811
0.000144796
0.00679072
0.00012906
0.00672284
0.000113211
0.00666463
9.71132e-05
0.00661644
8.04468e-05
0.00657868
6.31034e-05
0.00655196
4.48002e-05
0.00653746
2.45278e-05
0.00653627
2.39659e-06
0.00654904
-2.07755e-05
0.00657699
-4.54147e-05
0.0066241
-7.69504e-05
0.00669567
-0.000117922
0.00679623
-0.000167462
0.0069264
-0.000218949
0.00708132
-0.000262614
0.00725217
-0.000290969
0.00742973
-0.000302875
0.00760761
-0.000303208
0.00778345
-0.000299087
0.00795797
-0.000296129
0.00813336
-0.00029701
0.00831201
-0.000302103
0.00849595
-0.000310757
0.00868676
-0.000322178
0.00888568
-0.000335749
0.00909373
-0.000351067
0.00931177
-0.000367888
0.00954062
-0.000386091
0.00978105
-0.000405643
0.0100339
-0.000426567
0.0103
-0.000448908
0.0105801
-0.000472718
0.0108753
-0.000498082
0.0111865
-0.000525116
0.0115146
-0.000553919
0.011861
-0.0005846
0.0122266
-0.000617277
0.0126128
-0.000652083
0.0130209
-0.000689161
0.0134523
-0.000728663
0.0139085
-0.000770756
0.0143912
-0.000815622
0.014902
-0.000863451
0.0154429
-0.000914454
0.0160158
-0.000968854
0.0166228
-0.00102689
0.0172663
-0.00108883
0.0179486
-0.00115494
0.0186723
-0.00122554
0.0194403
-0.00130093
0.0202555
-0.00138146
0.0211211
-0.00146752
0.0220405
-0.00155949
0.0230174
-0.00165781
0.0240557
-0.00176294
0.0251596
-0.00187537
0.0263336
-0.00199563
0.0275825
-0.00212429
0.0289114
-0.00226197
0.0303259
-0.0024093
0.0318317
-0.00256701
0.0334353
-0.0027358
0.0351432
-0.00291649
0.0369627
-0.00310995
0.0389014
-0.0033171
0.0409675
-0.00353886
0.0431696
-0.00377631
0.0455169
-0.00403051
0.0480194
-0.00430265
0.0506875
-0.00459397
0.0535322
-0.00490577
0.0565653
-0.00523944
0.0597992
-0.00559636
0.0632471
-0.00597813
0.0669227
-0.00638628
0.0708405
-0.00682241
0.0750157
-0.0072881
0.0794639
-0.0077848
0.0842009
-0.00831359
0.0892425
-0.00887357
0.0946077
-0.00947335
0.100248
-0.00998968
0.106475
-0.0110542
-0.0093178
0.0411312
0.0102804
-0.0393486
0.0416991
0.0125906
0.0402961
0.0125307
0.0376906
0.0110706
0.0347084
0.00922787
0.0318431
0.00750881
0.0292985
0.00608178
0.0271105
0.00496127
0.0252448
0.00410216
0.0236494
0.00344396
0.022274
0.00293438
0.0210769
0.00253321
0.0200256
0.00221177
0.0190946
0.00194993
0.0182641
0.00173347
0.0175185
0.00155216
0.0168454
0.00139849
0.0162346
0.00126687
0.0156779
0.00115302
0.0151687
0.00105366
0.0147013
0.000966231
0.0142711
0.000888693
0.0138742
0.00081942
0.0135073
0.000757089
0.0131675
0.000700618
0.0128527
0.000649107
0.0125606
0.000601805
0.0122897
0.000558071
0.0120384
0.000517358
0.0118056
0.000479188
0.0115903
0.00044314
0.0113915
0.000408838
0.0112087
0.000375924
0.0110412
0.000344076
0.0108889
0.000312968
0.0107514
0.000282299
0.0106287
0.000251753
0.0105209
0.000220978
0.0104283
0.000189677
0.0103515
0.000157269
0.0102911
0.000123498
0.0102481
8.77956e-05
0.0102244
4.82751e-05
0.0102215
5.26672e-06
0.0102408
-4.00567e-05
0.0102845
-8.90877e-05
0.0103583
-0.000150732
0.0104695
-0.000229157
0.0106241
-0.000322034
0.0108222
-0.000417071
0.0110565
-0.000496925
0.0113143
-0.000548744
0.0115824
-0.000571037
0.011852
-0.000572767
0.0121196
-0.000566661
0.0123861
-0.000562689
0.0126547
-0.000565616
0.0129288
-0.000576155
0.0132112
-0.000593187
0.0135043
-0.000615305
0.01381
-0.000641404
0.0141297
-0.000670746
0.0144647
-0.000702897
0.0148162
-0.000737637
0.0151855
-0.000774906
0.0155737
-0.000814756
0.015982
-0.000857265
0.0164119
-0.000902545
0.0168645
-0.000950749
0.0173415
-0.00100208
0.0178443
-0.00105673
0.0183746
-0.00111489
0.0189341
-0.00117679
0.0195247
-0.00124265
0.0201483
-0.00131276
0.020807
-0.00138738
0.0215031
-0.00146682
0.0222388
-0.0015514
0.0230169
-0.00164148
0.0238398
-0.00173742
0.0247106
-0.00183963
0.0256323
-0.00194854
0.026608
-0.00206461
0.0276414
-0.00218833
0.0287361
-0.00232023
0.0298961
-0.00246088
0.0311255
-0.00261087
0.0324288
-0.00277086
0.0338109
-0.00294152
0.0352766
-0.00312359
0.0368315
-0.00331785
0.0384813
-0.00352513
0.040232
-0.0037463
0.04209
-0.00398231
0.0440622
-0.00423416
0.0461558
-0.00450289
0.0483784
-0.00478961
0.0507381
-0.00509552
0.0532434
-0.00542181
0.0559033
-0.00576982
0.0587271
-0.00614093
0.0617248
-0.00653655
0.0649066
-0.00695816
0.0682835
-0.00740736
0.0718666
-0.00788572
0.0756675
-0.00839492
0.0796984
-0.00893668
0.0839718
-0.00951278
0.0885003
-0.0101249
0.093297
-0.0107748
0.098375
-0.0114643
0.103748
-0.0121952
0.109428
-0.0129686
0.11543
-0.0137863
0.121764
-0.0146476
0.128442
-0.0155513
0.135478
-0.0165097
0.142799
-0.0173108
0.150775
-0.0190305
-0.0163091
0.0443217
0.00873678
-0.042778
0.0458671
0.0110452
0.0462762
0.0121216
0.0454099
0.0119369
0.0436509
0.0109869
0.0414427
0.00971706
0.0391137
0.00841075
0.0368582
0.00721676
0.0347687
0.00619164
0.0328741
0.00533858
0.0311717
0.00463682
0.0296451
0.00405973
0.0282744
0.00358253
0.0270397
0.0031846
0.0259235
0.00284964
0.0249107
0.00256499
0.0239883
0.0023209
0.0231454
0.0021098
0.0223727
0.00192574
0.0216623
0.00176404
0.0210076
0.00162096
0.0204028
0.00149346
0.0198431
0.0013791
0.0193243
0.00127585
0.0188429
0.00118203
0.0183958
0.00109624
0.0179803
0.0010173
0.0175942
0.00094417
0.0172356
0.000875987
0.0169028
0.000811978
0.0165945
0.000751457
0.0163095
0.000693808
0.016047
0.000638443
0.0158062
0.000584828
0.0155868
0.000532422
0.0153884
0.000480712
0.0152109
0.000429174
0.0150547
0.000377217
0.0149201
0.000324316
0.0148078
0.000269529
0.0147189
0.000212372
0.0146548
0.000151881
0.0146181
8.5011e-05
0.014611
1.23339e-05
0.0146358
-6.47932e-05
0.0146956
-0.000148883
0.0147978
-0.000252932
0.0149516
-0.000382963
0.0151641
-0.000534579
0.0154353
-0.00068825
0.0157554
-0.000817075
0.0161081
-0.000901419
0.0164763
-0.000939267
0.0168483
-0.000944713
0.0172192
-0.000937606
0.0175901
-0.000933565
0.0179647
-0.00094018
0.0183473
-0.000958746
0.0187417
-0.000987644
0.0191511
-0.00102473
0.019578
-0.00106826
0.0200243
-0.00111707
0.0204919
-0.00117047
0.0209823
-0.00122808
0.0214973
-0.00128983
0.0220383
-0.00135578
0.0226071
-0.00142607
0.0232054
-0.00150087
0.0238351
-0.00158043
0.0244981
-0.00166507
0.0251964
-0.00175507
0.0259323
-0.00185076
0.026708
-0.00195248
0.027526
-0.0020606
0.0283887
-0.00217554
0.0292991
-0.00229772
0.0302599
-0.00242762
0.0312742
-0.00256574
0.0323453
-0.0027126
0.0334767
-0.00286879
0.034672
-0.00303491
0.0359351
-0.0032116
0.03727
-0.00339956
0.0386812
-0.00359953
0.0401733
-0.00381228
0.041751
-0.00403863
0.0434196
-0.00427947
0.0451845
-0.00453572
0.0470513
-0.00480836
0.0490261
-0.00509842
0.0511153
-0.005407
0.0533254
-0.00573523
0.0556634
-0.00608432
0.0581366
-0.00645551
0.0607526
-0.00685017
0.0635193
-0.00726957
0.0664449
-0.00771525
0.069538
-0.00818857
0.0728073
-0.00869111
0.0762619
-0.00922442
0.0799111
-0.00979012
0.0837643
-0.0103898
0.0878312
-0.0110251
0.0921215
-0.0116977
0.096645
-0.0124092
0.101411
-0.0131613
0.10643
-0.0139555
0.111711
-0.0147935
0.117263
-0.0156765
0.123094
-0.0166061
0.129213
-0.0175833
0.135627
-0.0186093
0.142343
-0.0196844
0.149366
-0.0208094
0.1567
-0.0219814
0.164347
-0.0231983
0.172312
-0.0244753
0.180515
-0.0255136
0.189274
-0.0277891
-0.0243067
0.0474388
0.00762756
-0.0463295
0.0489917
0.00949231
0.0502278
0.0108854
0.0506648
0.0115
0.0502461
0.0114055
0.0491481
0.0108151
0.0476078
0.00995107
0.045836
0.00898849
0.0439868
0.00804089
0.0421574
0.00716795
0.0404023
0.00639196
0.0387477
0.00571432
0.0372036
0.00512662
0.0357702
0.00461801
0.0344428
0.00417704
0.0332145
0.00379324
0.0320779
0.00345758
0.0310252
0.00316246
0.0300494
0.00290154
0.0291439
0.00266958
0.0283026
0.00246225
0.0275201
0.00227591
0.0267917
0.00210751
0.0261131
0.0019545
0.0254804
0.00181468
0.0248905
0.0016862
0.0243403
0.00156747
0.0238274
0.00145708
0.0233496
0.00135381
0.0229049
0.00125659
0.022492
0.00116444
0.0221093
0.00107647
0.0217559
0.000991816
0.0214311
0.000909699
0.0211342
0.000829311
0.020865
0.000749883
0.0206235
0.000670619
0.0204101
0.000590623
0.0202254
0.000509081
0.0200703
0.000424581
0.0199464
0.00033632
0.0198554
0.000242857
0.0198007
0.000139723
0.0197854
2.76167e-05
0.0198127
-9.20787e-05
0.0198868
-0.000222975
0.0200164
-0.000382543
0.0202123
-0.000578885
0.020483
-0.000805219
0.0208283
-0.00103363
0.0212372
-0.00122591
0.0216898
-0.00135402
0.0221654
-0.00141486
0.0226489
-0.00142823
0.0231337
-0.00142247
0.0236203
-0.00142014
0.0241127
-0.00143257
0.024616
-0.00146205
0.0251349
-0.00150654
0.0256733
-0.0015631
0.0262343
-0.00162928
0.0268206
-0.00170334
0.0274344
-0.00178425
0.0280777
-0.00187147
0.0287527
-0.00196483
0.0294614
-0.00206444
0.0302058
-0.00217048
0.0309881
-0.0022832
0.0318107
-0.00240295
0.0326758
-0.00253018
0.033586
-0.00266529
0.0345439
-0.00280873
0.0355525
-0.002961
0.0366145
-0.00312262
0.0377331
-0.00329414
0.0389115
-0.00347619
0.0401533
-0.00366939
0.041462
-0.00387444
0.0428415
-0.00409206
0.0442957
-0.00432302
0.0458289
-0.00456815
0.0474456
-0.00482829
0.0491504
-0.00510437
0.0509483
-0.00539734
0.0528442
-0.00570822
0.0548436
-0.00603805
0.0569521
-0.00638796
0.0591755
-0.00675909
0.0615197
-0.00715265
0.0639912
-0.0075699
0.0665964
-0.00801215
0.0693419
-0.00848075
0.0722347
-0.00897707
0.0752817
-0.00950254
0.0784902
-0.0100587
0.0818675
-0.0106469
0.0854209
-0.0112686
0.0891579
-0.0119256
0.0930858
-0.0126191
0.0972121
-0.0133507
0.101544
-0.0141219
0.106088
-0.0149342
0.110852
-0.0157889
0.115842
-0.0166874
0.121064
-0.0176309
0.126523
-0.0186205
0.132225
-0.0196574
0.138174
-0.0207423
0.144373
-0.0218761
0.150827
-0.0230594
0.157536
-0.0242927
0.164503
-0.025576
0.171727
-0.0269089
0.17921
-0.0282918
0.186948
-0.0297194
0.19494
-0.0311905
0.203185
-0.0327208
0.211621
-0.0339493
0.220442
-0.0366102
-0.032764
0.0508469
0.00680865
-0.050028
0.0520997
0.00823953
0.0534478
0.00953735
0.0544924
0.0104554
0.0549949
0.010903
0.054908
0.010902
0.0543069
0.0105521
0.0533174
0.00997801
0.0520672
0.00929104
0.0506633
0.00857187
0.0491855
0.00786977
0.0476894
0.0072104
0.0462116
0.0066045
0.0447753
0.00605423
0.0433947
0.00555766
0.0420772
0.00511076
0.0408261
0.00470869
0.0396421
0.00434648
0.0385241
0.00401948
0.0374703
0.00372345
0.0364779
0.00345461
0.0355442
0.00320963
0.0346661
0.00298556
0.0338409
0.00277977
0.0330655
0.00258999
0.0323376
0.00241416
0.0316546
0.00225047
0.0310143
0.00209731
0.0304149
0.00195322
0.0298547
0.00181687
0.0293321
0.00168704
0.0288459
0.0015626
0.0283953
0.00144244
0.0279795
0.00132551
0.0275981
0.00121072
0.0272509
0.00109703
0.0269382
0.000983318
0.0266605
0.000868341
0.0264187
0.000750951
0.0262141
0.000629163
0.0260486
0.00050176
0.0259247
0.000366793
0.0258463
0.000218132
0.0258175
5.63787e-05
0.0258427
-0.000117269
0.0259269
-0.000307153
0.0260798
-0.000535454
0.0263134
-0.000812519
0.0266376
-0.00112935
0.0270531
-0.00144916
0.0275482
-0.00172104
0.028101
-0.00190684
0.0286873
-0.00200109
0.0292883
-0.0020293
0.0298951
-0.00202919
0.0305065
-0.0020316
0.0311265
-0.00205259
0.0317606
-0.00209609
0.032414
-0.00215996
0.0330914
-0.00224051
0.0337967
-0.00233453
0.034533
-0.00243966
0.0353031
-0.00255441
0.0361097
-0.002678
0.036955
-0.00281015
0.0378415
-0.00295095
0.0387717
-0.00310065
0.039748
-0.00325956
0.0407732
-0.00342814
0.04185
-0.00360695
0.0429813
-0.00379655
0.04417
-0.00399749
0.0454194
-0.00421042
0.0467328
-0.004436
0.0481136
-0.00467495
0.0495655
-0.00492804
0.0510922
-0.00519607
0.0526976
-0.00547989
0.054386
-0.0057804
0.0561615
-0.00609855
0.0580287
-0.00643533
0.0599921
-0.00679175
0.0620567
-0.00716893
0.0642273
-0.00756796
0.0665091
-0.00799003
0.0689074
-0.00843632
0.0714275
-0.00890811
0.0740751
-0.00940666
0.0768557
-0.00993328
0.0797751
-0.0104893
0.0828391
-0.0110761
0.0860535
-0.0116951
0.0894241
-0.0123476
0.0929566
-0.0130351
0.0966567
-0.0137589
0.10053
-0.0145202
0.104582
-0.0153207
0.108818
-0.0161614
0.113242
-0.0170435
0.11786
-0.0179684
0.122675
-0.0189372
0.127692
-0.0199507
0.132913
-0.02101
0.138342
-0.022116
0.14398
-0.0232693
0.14983
-0.0244707
0.155893
-0.0257206
0.162171
-0.0270196
0.168663
-0.0283681
0.17537
-0.0297664
0.182292
-0.0312148
0.189429
-0.0327136
0.196783
-0.0342621
0.204352
-0.0358617
0.212139
-0.0375058
0.220145
-0.0391963
0.228371
-0.0409469
0.236786
-0.042365
0.245464
-0.0452878
-0.0414849
0.0545777
0.00614699
-0.0539161
0.0555499
0.00726733
0.056723
0.00836427
0.0578807
0.00929767
0.0588035
0.00998019
0.0593555
0.01035
0.0594968
0.0104108
0.0592565
0.0102183
0.0586986
0.00984895
0.0578965
0.00937396
0.0569181
0.00884812
0.0558201
0.00830843
0.054647
0.00777762
0.0534328
0.00726844
0.0522031
0.00678735
0.0509773
0.00633657
0.0497694
0.00591661
0.0485894
0.00552645
0.0474444
0.00516444
0.0463393
0.00482862
0.045277
0.0045169
0.0442594
0.00422723
0.0432873
0.0039576
0.042361
0.00370607
0.0414802
0.00347083
0.0406442
0.00325015
0.0398523
0.0030424
0.0391035
0.00284605
0.0383971
0.00265965
0.0377321
0.00248183
0.0371079
0.00231128
0.0365238
0.00214675
0.0359792
0.00198695
0.0354741
0.00183062
0.0350084
0.00167646
0.0345823
0.00152313
0.0341964
0.00136924
0.0338516
0.00121314
0.0335492
0.00105335
0.0332911
0.000887234
0.0330798
0.000713069
0.0329181
0.00052844
0.0328109
0.000325398
0.0327632
0.000104098
0.0327805
-0.000134623
0.0328686
-0.000395248
0.0330378
-0.00070466
0.0333008
-0.0010755
0.0336687
-0.00149724
0.0341442
-0.00192464
0.0347166
-0.00229344
0.0353633
-0.00255355
0.0360574
-0.0026952
0.0367767
-0.00274861
0.0375087
-0.00276123
0.0382503
-0.00277318
0.0390041
-0.00280642
0.0397754
-0.00286735
0.0405697
-0.00295426
0.0413922
-0.00306303
0.0422474
-0.00318975
0.0431392
-0.00333139
0.0440707
-0.00348596
0.045045
-0.00365231
0.0460649
-0.00382999
0.047133
-0.00401904
0.048252
-0.00421972
0.0494249
-0.00443241
0.0506544
-0.00465764
0.0519436
-0.00489611
0.0532955
-0.00514847
0.0547134
-0.00541541
0.0562006
-0.00569767
0.0577607
-0.00599605
0.0593971
-0.00631139
0.0611137
-0.00664458
0.0629141
-0.00699656
0.0648026
-0.0073683
0.066783
-0.00776081
0.0688596
-0.00817516
0.0710367
-0.00861245
0.0733187
-0.00907379
0.0757102
-0.00956035
0.0782155
-0.0100733
0.0808395
-0.010614
0.0835867
-0.0111835
0.0864617
-0.0117832
0.0894693
-0.0124142
0.092614
-0.013078
0.0959004
-0.0137757
0.0993329
-0.0145086
0.102916
-0.0152781
0.106653
-0.0160851
0.110549
-0.0169311
0.114608
-0.0178171
0.118832
-0.0187442
0.123224
-0.0197135
0.127789
-0.0207258
0.132528
-0.0217822
0.137443
-0.0228835
0.142536
-0.0240306
0.147809
-0.025224
0.153264
-0.0264646
0.158901
-0.027753
0.164721
-0.0290898
0.170726
-0.0304758
0.176917
-0.0319116
0.183296
-0.0333981
0.189864
-0.0349361
0.196624
-0.0365266
0.20358
-0.0381707
0.210736
-0.0398699
0.218098
-0.0416243
0.225674
-0.0434373
0.23347
-0.0453015
0.241497
-0.0472231
0.249761
-0.0492111
0.258258
-0.0508623
0.266979
-0.0540087
-0.0505522
0.0586019
0.00557636
-0.0580313
0.0593842
0.00648505
0.0603514
0.00739712
0.061409
0.00824006
0.0624206
0.00896858
0.0632562
0.0095144
0.0638331
0.0098339
0.0641211
0.00993038
0.0641297
0.0098403
0.0638914
0.00961232
0.0634468
0.00929271
0.0628365
0.00891874
0.0620967
0.00851747
0.0612579
0.00810715
0.060346
0.00769931
0.0593818
0.00730076
0.0583832
0.00691522
0.057365
0.00654465
0.0563394
0.00618998
0.0553166
0.00585148
0.0543046
0.0055289
0.0533101
0.00522175
0.0523383
0.00492935
0.0513935
0.00465088
0.0504789
0.00438547
0.0495969
0.00413214
0.0487494
0.00388987
0.0479379
0.00365757
0.0471634
0.00343416
0.0464267
0.00321848
0.0457286
0.00300939
0.0450697
0.00280568
0.0444506
0.00260608
0.0438719
0.00240928
0.0433346
0.0022138
0.0428395
0.00201815
0.0423881
0.00182068
0.0419819
0.00161936
0.0416228
0.00141246
0.0413133
0.00119666
0.0410568
0.000969619
0.0408566
0.000728595
0.0407183
0.000463784
0.0406479
0.000174477
0.0406523
-0.000139007
0.0407376
-0.000480546
0.0409144
-0.000881473
0.0411954
-0.00135649
0.0415928
-0.00189472
0.0421121
-0.00244388
0.0427454
-0.00292675
0.0434716
-0.00327978
0.0442628
-0.00348635
0.0450935
-0.00357937
0.0459476
-0.00361534
0.0468187
-0.00364422
0.0477071
-0.00369486
0.0486169
-0.00377716
0.0495533
-0.00389064
0.0505216
-0.00403132
0.0515267
-0.00419488
0.0525731
-0.00437773
0.0536644
-0.00457728
0.054804
-0.00479193
0.055995
-0.00502098
0.0572403
-0.00526432
0.0585427
-0.00552218
0.0599053
-0.00579496
0.0613309
-0.00608327
0.0628227
-0.00638788
0.0643837
-0.00670952
0.0660173
-0.00704897
0.0677267
-0.00740705
0.0695153
-0.00778465
0.0713866
-0.00818268
0.0733441
-0.00860211
0.0753915
-0.00904394
0.0775324
-0.00950921
0.0797705
-0.00999898
0.0821097
-0.0105144
0.0845538
-0.0110565
0.0871064
-0.0116264
0.0897715
-0.0122254
0.0925527
-0.0128546
0.0954539
-0.0135152
0.0984787
-0.0142083
0.101631
-0.0149351
0.104913
-0.0156968
0.10833
-0.0164945
0.111883
-0.0173294
0.115577
-0.0182024
0.119414
-0.0191147
0.123396
-0.0200674
0.127526
-0.0210613
0.131807
-0.0220974
0.136239
-0.0231767
0.140825
-0.0242999
0.145568
-0.025468
0.150467
-0.0266817
0.155525
-0.0279419
0.160744
-0.0292496
0.166126
-0.0306056
0.171672
-0.0320109
0.177386
-0.0334665
0.18327
-0.0349738
0.189328
-0.036534
0.195565
-0.0381487
0.201987
-0.0398199
0.2086
-0.0415492
0.215413
-0.0433392
0.222434
-0.0451919
0.229674
-0.0471103
0.237145
-0.0490955
0.244861
-0.0511526
0.252832
-0.0532729
0.261076
-0.0554669
0.269601
-0.0577362
0.278417
-0.0596784
0.287469
-0.0630606
-0.060133
0.0629155
0.00506693
-0.0624061
0.0635766
0.00582394
0.0643838
0.00658996
0.0652998
0.007324
0.0662543
0.00801412
0.0671558
0.00861288
0.0679237
0.00906596
0.0685062
0.00934792
0.0688822
0.00946434
0.0690544
0.00944006
0.0690401
0.00930704
0.0688624
0.00909645
0.0685452
0.00883464
0.0681105
0.00854184
0.0675775
0.00823236
0.0669626
0.00791568
0.0662801
0.00759766
0.0655428
0.00728192
0.0647625
0.00697028
0.0639498
0.00666421
0.0631143
0.00636445
0.0622645
0.00607148
0.0614083
0.00578553
0.0605526
0.00550661
0.0597034
0.00523467
0.0588661
0.00496949
0.0580452
0.00471074
0.0572448
0.00445797
0.0564683
0.0042106
0.0557189
0.00396796
0.054999
0.00372921
0.0543113
0.00349345
0.0536578
0.00325955
0.0530408
0.00302633
0.0524623
0.00279228
0.0519246
0.00255587
0.0514299
0.00231533
0.050981
0.00206827
0.0505806
0.00181281
0.0502323
0.00154504
0.04994
0.00126189
0.0497081
0.000960474
0.0495426
0.000629284
0.0494508
0.000266309
0.0494405
-0.000128725
0.0495183
-0.000558361
0.0496948
-0.00105793
0.0499818
-0.00164356
0.0503924
-0.00230531
0.0509349
-0.00298635
0.0516063
-0.00359815
0.0523895
-0.004063
0.0532578
-0.00435465
0.054184
-0.00450558
0.0551483
-0.00457957
0.0561402
-0.0046361
0.0571568
-0.00471153
0.0581999
-0.0048202
0.0592731
-0.00496386
0.0603813
-0.00513952
0.0615295
-0.00534309
0.0627225
-0.00557068
0.0639643
-0.00581916
0.0652588
-0.0060864
0.0666091
-0.00637128
0.0680183
-0.0066735
0.0694893
-0.00699317
0.071025
-0.00733064
0.0726282
-0.00768655
0.0743021
-0.00806173
0.0760495
-0.00845693
0.0778735
-0.00887299
0.0797772
-0.00931075
0.0817637
-0.00977114
0.0838361
-0.0102551
0.0859976
-0.0107636
0.0882514
-0.0112977
0.0906006
-0.0118584
0.0930484
-0.0124468
0.0955979
-0.0130639
0.0982522
-0.0137108
0.101014
-0.0143886
0.103887
-0.0150984
0.106874
-0.0158414
0.109977
-0.0166184
0.1132
-0.0174308
0.116544
-0.0182794
0.120013
-0.0191654
0.123608
-0.0200897
0.127332
-0.0210534
0.131187
-0.0220574
0.135175
-0.0231027
0.139298
-0.0241903
0.143558
-0.0253212
0.147957
-0.0264962
0.152496
-0.0277165
0.15718
-0.0289829
0.162008
-0.0302967
0.166986
-0.031659
0.172115
-0.033071
0.177399
-0.0345343
0.182844
-0.0360504
0.188454
-0.037621
0.194236
-0.0392481
0.200196
-0.0409338
0.206342
-0.0426805
0.212685
-0.044491
0.219233
-0.0463679
0.225998
-0.0483144
0.232992
-0.0503337
0.240229
-0.0524289
0.247723
-0.0546038
0.255487
-0.0568598
0.263538
-0.0592033
0.271889
-0.0616236
0.280556
-0.0641347
0.28955
-0.0667295
0.298884
-0.0690125
0.308478
-0.0726545
-0.0703601
0.0675346
0.00460269
-0.0670703
0.0681145
0.005244
0.0688082
0.00589627
0.0696014
0.00653077
0.0704605
0.00715508
0.0713309
0.00774243
0.07215
0.0082469
0.0728652
0.00863274
0.0734429
0.00888665
0.0738689
0.00901401
0.0741445
0.00903148
0.0742801
0.00896077
0.0742907
0.00882404
0.0741915
0.00864104
0.0739963
0.00842757
0.0737168
0.00819517
0.0733628
0.00795166
0.0729428
0.00770193
0.0724642
0.00744887
0.0719343
0.00719415
0.0713602
0.00693853
0.070749
0.00668275
0.0701073
0.00642716
0.069442
0.00617196
0.0687594
0.0059173
0.0680657
0.00566319
0.0673667
0.00540965
0.0666682
0.00515654
0.0659751
0.00490367
0.0652924
0.0046507
0.0646244
0.00439716
0.0639754
0.00414243
0.0633494
0.00388563
0.0627499
0.00362576
0.0621808
0.00336141
0.0616456
0.00309106
0.061148
0.00281295
0.0606919
0.00252439
0.0602812
0.00222346
0.0599204
0.00190581
0.0596148
0.00156753
0.0593694
0.00120583
0.059191
0.000807764
0.0590876
0.000369685
0.0590681
-0.000109201
0.0591394
-0.000629665
0.0593118
-0.00123032
0.059596
-0.00192777
0.0600047
-0.00271404
0.0605492
-0.00353083
0.0612325
-0.00428147
0.0620442
-0.0048747
0.0629616
-0.00527209
0.063958
-0.00550195
0.0650108
-0.00563237
0.0661057
-0.00573099
0.0672357
-0.00584153
0.0683988
-0.00598334
0.0695964
-0.00616138
0.0708316
-0.00637475
0.072109
-0.0066205
0.0734334
-0.00689505
0.0748091
-0.00719493
0.0762402
-0.00751748
0.07773
-0.00786108
0.0792816
-0.00822506
0.0808978
-0.00860937
0.0825813
-0.00901421
0.084335
-0.00944019
0.0861614
-0.00988817
0.0880634
-0.0103589
0.0900436
-0.0108532
0.0921048
-0.0113719
0.0942497
-0.011916
0.0964809
-0.0124864
0.0988013
-0.0130839
0.101213
-0.0137097
0.10372
-0.0143648
0.106323
-0.01505
0.109026
-0.0157666
0.11183
-0.0165154
0.114739
-0.0172975
0.117755
-0.018114
0.120879
-0.0189659
0.124115
-0.0198541
0.127464
-0.0207798
0.130928
-0.021744
0.134511
-0.0227476
0.138213
-0.0237918
0.142037
-0.0248775
0.145985
-0.0260058
0.15006
-0.0271779
0.154265
-0.0283949
0.158602
-0.0296581
0.163074
-0.0309687
0.167686
-0.0323282
0.172441
-0.0337381
0.177345
-0.0352001
0.182402
-0.036716
0.187618
-0.0382878
0.193002
-0.0399178
0.19856
-0.0416084
0.204301
-0.0433621
0.210235
-0.0451817
0.216371
-0.0470704
0.222722
-0.0490313
0.229299
-0.0510678
0.236115
-0.0531835
0.243182
-0.0553819
0.250515
-0.057667
0.258129
-0.0600421
0.266036
-0.0625115
0.274253
-0.0650765
0.282794
-0.0677443
0.291673
-0.0705023
0.300905
-0.0733673
0.310498
-0.0763227
0.320472
-0.0789863
0.330727
-0.082909
-0.0813197
0.0724813
0.00417296
-0.0720516
0.0730033
0.00472202
0.0736161
0.00528345
0.0743142
0.00583269
0.0750825
0.0063868
0.0758905
0.00693441
0.0766958
0.00744156
0.0774543
0.00787425
0.07813
0.0082109
0.0787001
0.00844398
0.0791547
0.00857686
0.079495
0.00862049
0.0797289
0.00859013
0.0798675
0.00850239
0.0799223
0.00837276
0.0799033
0.00821417
0.0798186
0.00803638
0.0796744
0.00784616
0.0794754
0.00764784
0.0792256
0.00744394
0.0789284
0.00723577
0.0785874
0.00702376
0.0782064
0.00680809
0.0777897
0.00658873
0.0773414
0.0063656
0.0768661
0.00613843
0.0763687
0.00590703
0.0758542
0.00567108
0.0753276
0.00543029
0.074794