/*--------------------------------*- C++ -*----------------------------------*\
| =========                 |                                                 |
| \\      /  F ield         | OpenFOAM: The Open Source CFD Toolbox           |
|  \\    /   O peration     | Version:  2412                                  |
|   \\  /    A nd           | Website:  www.openfoam.com                      |
|    \\/     M anipulation  |                                                 |
\*---------------------------------------------------------------------------*/
FoamFile
{
    version     2.0;
    format      ascii;
    arch        "LSB;label=32;scalar=64";
    class       volVectorField;
    location    "1.11";
    object      U_0;
}
// * * * * * * * * * * * * * * * * * * * * * * * * * * * * * * * * * * * * * //

dimensions      [0 1 -1 0 0 0 0];

internalField   nonuniform List<vector> 
12600
(
(19.3907 0 -0.677971)
(7.85303 -3.74486e-20 -1.62788)
(3.32096 -1.73045e-20 -1.67602)
(1.68591 0 -1.23462)
(1.05952 -2.16876e-22 -0.821529)
(0.725703 0 -0.555788)
(0.502161 -3.05522e-20 -0.386351)
(0.340829 0 -0.270131)
(0.220868 0 -0.18559)
(0.130077 0 -0.12207)
(0.0596034 0 -0.0744091)
(0.00457523 -9.75237e-20 -0.0373229)
(-0.0384141 -9.96695e-20 -0.00804345)
(-0.072245 0 0.0154078)
(-0.0987067 2.0232e-19 0.0332412)
(-0.11876 0 0.0477121)
(-0.134214 2.88147e-22 0.0590747)
(-0.14558 0 0.0677693)
(-0.153845 9.78045e-20 0.0742994)
(-0.159121 0 0.0790591)
(-0.162226 0 0.0823706)
(-0.163694 0 0.0843184)
(-0.163693 3.59628e-19 0.0853219)
(-0.161965 -3.49756e-19 0.0855876)
(-0.158925 -7.38178e-23 0.085073)
(-0.155609 1.64391e-19 0.083838)
(-0.151917 0 0.0821906)
(-0.147366 0 0.0801795)
(-0.142131 0 0.077952)
(-0.13665 -2.89747e-19 0.0754601)
(-0.131148 -5.59273e-19 0.0727296)
(-0.125656 0 0.0698502)
(-0.120059 0 0.0669361)
(-0.11439 -2.5053e-19 0.0639905)
(-0.108793 -2.4127e-19 0.0610168)
(-0.103339 0 0.0580653)
(-0.0979957 0 0.0551672)
(-0.0927712 -4.29095e-19 0.0523359)
(-0.0877216 0 0.0495784)
(-0.082864 6.64543e-23 0.0468949)
(-0.0782104 -3.80041e-19 0.0443085)
(-0.0737388 -3.64703e-19 0.0418162)
(-0.0694231 0 0.0394091)
(-0.0652777 -3.35417e-19 0.037084)
(-0.0612837 -3.21484e-19 0.0348346)
(-0.0574418 6.16128e-19 0.0326713)
(-0.0537691 -5.9022e-19 0.030603)
(-0.0502887 0 0.0286423)
(-0.0470661 5.41065e-19 0.0268258)
(-0.0441521 -5.178e-19 0.0251825)
(-0.0415911 0 0.0237391)
(-0.0394249 -1.93308e-23 0.0225131)
(-0.0376488 4.53101e-19 0.0215034)
(-0.0362238 0 0.020688)
(-0.0350379 -8.2789e-19 0.0200052)
(-0.0338936 0 0.0193441)
(-0.0324807 0 0.0185281)
(-0.03036 2.83651e-23 0.0172795)
(-0.0269353 2.64455e-23 0.0152713)
(-0.0214984 6.5806e-19 0.0121283)
(-0.0133644 -6.27815e-19 0.00746966)
(-0.00201471 1.19663e-18 0.00112323)
(0.012643 0 -0.00708042)
(0.0297957 1.08246e-18 -0.0167332)
(0.0479361 1.02683e-18 -0.026972)
(0.0648299 -1.94423e-18 -0.0365508)
(0.0781889 9.18624e-19 -0.0441932)
(0.0861161 0 -0.0487226)
(0.0877102 0 -0.0495725)
(0.0821369 0 -0.0465856)
(0.0698541 0 -0.0395748)
(0.0505585 0 -0.0287193)
(0.0243709 -1.31248e-18 -0.0143976)
(-0.00823464 1.25214e-18 0.00376677)
(-0.0431898 0 0.0233638)
(-0.0732955 0 0.0403922)
(-0.0888704 1.11945e-18 0.0488669)
(-0.08073 -3.67484e-22 0.044257)
(-0.0621029 2.09042e-18 0.0338372)
(-0.0430125 0 0.0231586)
(-0.0224528 0 0.011677)
(-0.00780726 0 0.00365068)
(0.00748546 -4.10243e-23 -0.00463057)
(0.0118416 0 -0.00654051)
(0.00356774 0 -0.0011899)
(-0.0182818 1.44704e-18 0.0120923)
(-0.0595114 3.06485e-22 0.036354)
(-0.139288 0 0.0821671)
(-0.245556 0 0.141167)
(-0.363209 -2.24891e-18 0.206564)
(-0.456247 -2.20449e-18 0.258025)
(-0.496736 -2.229e-18 0.279182)
(-0.611784 -2.27845e-18 0.342542)
(-0.673434 -3.17273e-21 0.371366)
(0.720071 1.28645e-22 -0.411603)
(0.798764 1.99284e-18 -0.452461)
(0.644538 0 -0.364574)
(1.41378 0 -0.802534)
(0.860691 0 -0.486577)
(0.272332 5.02641e-18 -0.161624)
(0.163856 -2.30698e-18 -0.0920132)
(-0.037358 2.13978e-18 0.02212)
(-0.0295956 2.02654e-18 0.0177237)
(-0.148498 0 0.0824322)
(0.19849 0 -0.116838)
(0.322103 0 -0.183472)
(0.19214 3.12851e-18 -0.111872)
(0.375042 0 -0.21315)
(0.475712 -2.54907e-18 -0.266537)
(0.259958 0 -0.134321)
(-0.300434 0 0.189878)
(-0.996424 1.1851e-18 0.582935)
(-1.52719 0 0.874367)
(-1.76511 0 1.00757)
(-1.67588 0 0.952937)
(-1.54159 -3.38325e-18 0.873366)
(-1.15742 0 0.650514)
(-0.382666 3.7493e-18 0.216296)
(0.559778 0 -0.312763)
(0.78463 -1.5258e-21 -0.446309)
(30.9425 -1.54801e-20 -1.0374)
(21.5779 2.14982e-20 -3.42394)
(13.6775 1.34658e-20 -4.30847)
(8.66482 0 -3.73348)
(5.77387 -1.23734e-20 -2.81428)
(4.02881 2.29335e-20 -2.06142)
(2.89621 3.18707e-20 -1.51239)
(2.10675 -3.71589e-20 -1.11081)
(1.52767 0 -0.80917)
(1.0889 0 -0.577197)
(0.748984 0 -0.396771)
(0.482308 0 -0.253922)
(0.270937 0 -0.139747)
(0.101207 0 -0.0478483)
(-0.033491 -7.26982e-22 0.0266085)
(-0.140574 0 0.0857984)
(-0.226709 1.04426e-19 0.132623)
(-0.294114 0 0.170031)
(-0.346954 -2.03186e-19 0.199308)
(-0.386821 1.99268e-19 0.221707)
(-0.416414 0 0.238467)
(-0.437343 1.9089e-19 0.250138)
(-0.451194 -1.86694e-19 0.257538)
(-0.45882 1.81496e-19 0.261456)
(-0.461105 -1.7588e-19 0.262376)
(-0.45941 0 0.261004)
(-0.454367 1.6584e-19 0.257953)
(-0.446247 0 0.25328)
(-0.435637 0 0.247332)
(-0.423245 0 0.240477)
(-0.409664 2.8918e-19 0.232737)
(-0.395163 0 0.224412)
(-0.379912 0 0.215786)
(-0.364117 0 0.206904)
(-0.348058 0 0.197839)
(-0.331998 0 0.188755)
(-0.316036 0 0.179742)
(-0.300272 4.41487e-19 0.170864)
(-0.284852 0 0.162165)
(-0.269816 8.1316e-19 0.153657)
(-0.25526 7.79847e-19 0.145415)
(-0.241184 3.73738e-19 0.137438)
(-0.227535 0 0.1297)
(-0.214338 0 0.122205)
(-0.201547 6.57145e-19 0.114931)
(-0.189196 -6.29106e-19 0.107911)
(-0.177355 6.01891e-19 0.101187)
(-0.166107 0 0.0948084)
(-0.155648 -5.50572e-19 0.0888937)
(-0.146157 0 0.0835394)
(-0.13778 0 0.0788321)
(-0.13065 -4.80511e-19 0.0748342)
(-0.124758 0 0.0715381)
(-0.119967 0 0.0688557)
(-0.115931 8.36461e-19 0.0665706)
(-0.112012 0 0.0642979)
(-0.107227 0 0.0614481)
(-0.100144 4.89025e-23 0.0571605)
(-0.088871 6.92819e-19 0.0503508)
(-0.0712117 -4.03746e-23 0.0397821)
(-0.0449811 0 0.0242618)
(-0.00863621 -1.19759e-18 0.0031298)
(0.0381235 -1.13852e-18 -0.0240082)
(0.0928676 0 -0.0556534)
(0.150907 -2.04661e-18 -0.0889995)
(0.205285 -1.58935e-22 -0.120011)
(0.248806 0 -0.144601)
(0.275331 8.6084e-19 -0.159239)
(0.281835 0 -0.162221)
(0.26621 0 -0.152251)
(0.229237 0 -0.129974)
(0.170434 0 -0.0953603)
(0.0904333 2.58469e-18 -0.0492535)
(-0.00977466 -1.23079e-18 0.00878116)
(-0.117761 0 0.0708556)
(-0.211033 0 0.123875)
(-0.25881 1.0947e-18 0.149709)
(-0.233399 -5.80681e-22 0.133145)
(-0.175742 -4.99326e-22 0.0993449)
(-0.117765 0 0.0658154)
(-0.0562765 0 0.0305789)
(-0.0151888 0 0.00717283)
(0.0269852 -6.67474e-23 -0.0166147)
(0.0327879 -1.59726e-18 -0.0187184)
(-0.0045165 1.49908e-18 0.00399671)
(-0.0873365 -1.39814e-18 0.0532986)
(-0.227803 4.8871e-22 0.137022)
(-0.485222 -1.20606e-18 0.288312)
(-0.812944 0 0.477246)
(-1.16472 2.1616e-18 0.679376)
(-1.41747 0 0.823619)
(-1.49959 2.13721e-18 0.87169)
(-1.80686 0 1.05256)
(-2.04311 -4.61812e-18 1.12488)
(2.2799 -2.29188e-18 -1.36756)
(2.50223 0 -1.43853)
(1.99024 0 -1.17038)
(4.4266 -2.98261e-18 -2.56686)
(2.83862 2.3244e-18 -1.59123)
(1.0239 -4.77681e-18 -0.570288)
(0.528862 2.19102e-18 -0.293322)
(-0.12072 -2.0304e-18 0.076454)
(-0.105928 0 0.0642186)
(-0.433906 1.76125e-18 0.244107)
(0.673775 0 -0.405499)
(1.02177 0 -0.588807)
(0.666615 -2.95616e-18 -0.386005)
(1.17497 0 -0.687242)
(1.34756 -4.30339e-21 -0.778217)
(0.497162 1.93223e-18 -0.267416)
(-1.35449 0 0.815431)
(-3.45702 0 2.03176)
(-4.95446 0 2.88117)
(-5.52137 1.19124e-18 3.19559)
(-5.12314 -2.83617e-18 2.95662)
(-4.62633 3.18058e-18 2.66456)
(-3.46344 0 1.96947)
(-1.25667 -3.52155e-18 0.677129)
(1.60421 0 -0.961498)
(2.4346 5.27843e-18 -1.41227)
(34.5454 3.297e-20 -0.916561)
(29.9807 -8.72819e-21 -3.0177)
(23.414 -3.09635e-21 -4.72238)
(17.2062 0 -5.08833)
(12.4069 -1.46953e-20 -4.55171)
(9.02877 5.98703e-22 -3.72598)
(6.68138 0 -2.93892)
(5.00263 3.52691e-20 -2.2817)
(3.75977 0 -1.75201)
(2.81341 4.26761e-20 -1.32676)
(2.07768 0 -0.983664)
(1.49647 0 -0.705564)
(1.03216 0 -0.479109)
(0.657531 0 -0.294274)
(0.356464 -9.91878e-20 -0.140723)
(0.111838 0 -0.0172947)
(-0.0859222 0 0.0837567)
(-0.244714 0 0.165175)
(-0.372399 9.62298e-20 0.230737)
(-0.472741 -5.72603e-22 0.28294)
(-0.551031 0 0.323766)
(-0.610669 -4.24426e-22 0.354615)
(-0.654714 0 0.377169)
(-0.68524 -1.71414e-19 0.392871)
(-0.704174 0 0.402485)
(-0.714439 0 0.406233)
(-0.717186 -1.57305e-19 0.406013)
(-0.71332 0 0.402406)
(-0.703682 0 0.396417)
(-0.689859 -2.83779e-19 0.388106)
(-0.672772 0 0.378029)
(-0.653072 0 0.366637)
(-0.631354 0 0.354324)
(-0.608089 0 0.341242)
(-0.58376 2.3556e-19 0.327603)
(-0.558889 0 0.313699)
(-0.533767 0 0.299688)
(-0.508635 -4.17945e-19 0.285714)
(-0.483773 0 0.271881)
(-0.459289 -7.69884e-19 0.25824)
(-0.435384 -8.59397e-23 0.244924)
(-0.412118 -3.53836e-19 0.231944)
(-0.389434 0 0.219276)
(-0.367387 0 0.206941)
(-0.345931 -3.10899e-19 0.194917)
(-0.32514 0 0.183271)
(-0.305148 -5.69364e-19 0.172088)
(-0.286105 0 0.161467)
(-0.268344 4.26502e-23 0.151613)
(-0.252175 0 0.142687)
(-0.237853 0 0.134836)
(-0.225602 0 0.128164)
(-0.215412 -4.33583e-19 0.122645)
(-0.20706 0 0.118107)
(-0.199971 0 0.114164)
(-0.193075 0 0.110135)
(-0.184726 0 0.105004)
(-0.172511 1.37142e-18 0.0973469)
(-0.153286 0 0.0853389)
(-0.123409 -3.41187e-23 0.066925)
(-0.0792468 0 0.0401969)
(-0.0182949 5.64696e-19 0.00402646)
(0.0600166 1.07345e-18 -0.0419865)
(0.151797 0 -0.095167)
(0.249379 1.92896e-18 -0.150841)
(0.341317 9.11585e-19 -0.202345)
(0.415663 0 -0.243031)
(0.462036 -8.10699e-19 -0.26733)
(0.475188 0 -0.272678)
(0.452185 0 -0.25594)
(0.393548 0 -0.219521)
(0.298964 0 -0.163021)
(0.169573 -3.04888e-23 -0.0876014)
(0.0064757 1.15745e-18 0.00692524)
(-0.170321 0 0.107367)
(-0.323734 0 0.191913)
(-0.402695 -5.17658e-22 0.231696)
(-0.362355 -1.98695e-18 0.201854)
(-0.268915 -9.5748e-19 0.146213)
(-0.176039 0 0.0928467)
(-0.0784101 0 0.0380871)
(-0.0163238 0 0.00402236)
(0.0467164 -3.17875e-18 -0.0298195)
(0.0474943 -1.13948e-22 -0.0254495)
(-0.0274068 -1.40626e-18 0.0226037)
(-0.180865 0 0.11655)
(-0.425572 -1.21764e-18 0.265857)
(-0.858463 1.13068e-18 0.522882)
(-1.39265 0 0.830524)
(-1.95221 0 1.14614)
(-2.32151 1.9773e-18 1.34611)
(-2.40638 0 1.3927)
(-2.84361 2.03355e-18 1.65043)
(-3.26777 3.94494e-21 1.69697)
(3.67071 2.14628e-18 -2.28949)
(4.12306 -1.78706e-18 -2.34726)
(3.192 0 -1.90432)
(7.25876 2.79124e-18 -4.20226)
(4.90811 -2.17492e-18 -2.68043)
(1.93722 4.4675e-18 -1.04542)
(0.919796 0 -0.484379)
(-0.194027 -1.8993e-18 0.134874)
(-0.187535 0 0.118528)
(-0.682307 -1.6469e-18 0.364133)
(1.15727 1.66836e-18 -0.721661)
(1.70242 0 -0.975891)
(1.17669 2.76327e-18 -0.684268)
(1.93442 0 -1.13445)
(2.04116 4.50829e-18 -1.14521)
(0.425171 -1.8056e-18 -0.138645)
(-2.73336 0 1.72057)
(-6.08444 0 3.63158)
(-8.31867 0 4.84898)
(-8.9925 -3.30835e-21 5.17725)
(-8.19893 2.64922e-18 4.67965)
(-7.32102 -2.95458e-18 4.15177)
(-5.44815 0 3.01548)
(-2.08702 -3.28681e-18 1.04871)
(2.46429 0 -1.51745)
(3.95521 1.598e-21 -2.29072)
(35.1577 -1.73261e-20 -1.1244)
(33.8749 -5.01057e-21 -2.36511)
(30.0663 7.01443e-21 -4.14206)
(24.9389 -1.47699e-20 -5.2806)
(19.7818 -2.09383e-20 -5.48246)
(15.3565 -4.36938e-20 -5.03474)
(11.8561 0 -4.31546)
(9.16534 0 -3.56043)
(7.09524 0 -2.87086)
(5.48374 -4.0424e-20 -2.27504)
(4.21227 0 -1.77153)
(3.19681 0 -1.34961)
(2.37805 0 -0.997105)
(1.71239 0 -0.703221)
(1.17017 0 -0.4569)
(0.726405 -9.30206e-20 -0.253626)
(0.363916 9.26144e-20 -0.0834197)
(0.067323 0 0.0554159)
(-0.174016 0 0.169861)
(-0.368582 -1.78583e-19 0.262657)
(-0.524674 1.74602e-19 0.337273)
(-0.647848 -1.7115e-19 0.396031)
(-0.742967 1.66502e-19 0.441888)
(-0.814348 1.62317e-19 0.476812)
(-0.866006 -1.57859e-19 0.501773)
(-0.901732 1.53383e-19 0.517314)
(-0.923156 0 0.526096)
(-0.932894 -1.43652e-19 0.528353)
(-0.933133 0 0.525092)
(-0.924988 2.68584e-19 0.518841)
(-0.910503 0 0.509176)
(-0.89078 0 0.497109)
(-0.866936 0 0.483203)
(-0.839847 -2.31477e-19 0.467721)
(-0.810313 -2.22831e-19 0.451046)
(-0.779179 0 0.433635)
(-0.747004 0 0.415747)
(-0.714235 3.95216e-19 0.397633)
(-0.681348 0 0.379469)
(-0.648568 1.03758e-22 0.361362)
(-0.616238 -3.48872e-19 0.343528)
(-0.584515 0 0.325996)
(-0.553373 0 0.308765)
(-0.522929 0 0.291883)
(-0.493157 0 0.275345)
(-0.464184 -5.61983e-19 0.25927)
(-0.436224 0 0.243794)
(-0.409506 5.14086e-19 0.229078)
(-0.384501 4.91488e-19 0.215413)
(-0.36166 0 0.203031)
(-0.341348 0 0.192133)
(-0.323885 0 0.182861)
(-0.309275 4.09067e-19 0.175152)
(-0.297204 -3.90381e-19 0.16875)
(-0.286875 -7.44964e-19 0.163087)
(-0.276794 0 0.157177)
(-0.264674 -6.7773e-19 0.149572)
(-0.247182 -1.2926e-18 0.138235)
(-0.219972 0 0.120618)
(-0.178025 -1.17407e-18 0.0939019)
(-0.116344 0 0.0555126)
(-0.0314613 -5.31824e-19 0.00403592)
(0.0774523 -1.01083e-18 -0.0608248)
(0.205163 0 -0.135279)
(0.341326 -9.07872e-19 -0.212815)
(0.470366 -8.58133e-19 -0.284267)
(0.575867 0 -0.340605)
(0.643411 0 -0.374244)
(0.665479 0 -0.381952)
(0.638074 6.7652e-19 -0.359243)
(0.56178 6.37932e-19 -0.309562)
(0.436376 0 -0.23255)
(0.263303 -1.14228e-18 -0.130001)
(0.0436748 -1.08707e-18 -0.0015633)
(-0.196108 0 0.1344)
(-0.405569 0 0.247605)
(-0.515361 -9.65425e-19 0.29829)
(-0.463504 5.2906e-22 0.255473)
(-0.339095 0 0.180228)
(-0.216821 0 0.109921)
(-0.0893089 0 0.0391)
(-0.0125389 0 -0.00213572)
(0.0646874 5.49337e-23 -0.0421732)
(0.0537392 1.40528e-18 -0.0264119)
(-0.067451 0 0.0529176)
(-0.300673 0 0.197773)
(-0.653091 0 0.417119)
(-1.2554 1.0599e-18 0.779608)
(-1.97527 0 1.19589)
(-2.70808 1.89441e-18 1.60539)
(-3.14413 -1.85165e-18 1.83273)
(-3.19312 1.86614e-18 1.86001)
(-3.68514 -1.90371e-18 2.16291)
(-4.2395 4.03189e-18 2.08817)
(4.71434 -2.00867e-18 -3.08042)
(5.61158 1.67221e-18 -3.18938)
(4.18549 0 -2.55364)
(9.78408 0 -5.70868)
(7.04368 -2.03866e-18 -3.77388)
(3.03512 -2.08873e-18 -1.58503)
(1.35644 -1.919e-18 -0.681496)
(-0.247807 -9.45263e-23 0.192927)
(-0.270202 0 0.176002)
(-0.885936 0 0.453348)
(1.63022 -1.55943e-18 -1.04951)
(2.35239 0 -1.35076)
(1.71443 -2.58172e-18 -0.997646)
(2.63136 0 -1.55376)
(2.51755 4.11426e-21 -1.39099)
(0.0046815 0 0.196722)
(-4.43535 -1.25942e-18 2.82697)
(-8.80762 9.79244e-19 5.30992)
(-11.4791 9.3939e-19 6.72322)
(-12.0118 -3.83524e-21 6.9206)
(-10.7598 0 6.13122)
(-9.52512 2.75922e-18 5.38374)
(-7.01827 3.12102e-18 3.82695)
(-2.79766 3.06913e-18 1.3062)
(3.12024 0 -2.01609)
(5.28816 1.79349e-21 -3.08788)
(34.8013 0 -1.61651)
(34.9342 -3.6557e-21 -2.16208)
(33.4582 0 -3.47805)
(30.3509 1.39547e-20 -4.79859)
(26.2444 3.29185e-20 -5.57602)
(21.8977 2.12858e-20 -5.7048)
(17.8624 0 -5.35026)
(14.3896 0 -4.73747)
(11.5124 -3.47452e-20 -4.03967)
(9.16462 -3.75992e-20 -3.35584)
(7.25469 3.98166e-20 -2.73047)
(5.69704 8.29138e-20 -2.17793)
(4.42134 8.51995e-20 -1.6985)
(3.37165 0 -1.28711)
(2.5062 0 -0.935064)
(1.79081 1.75503e-19 -0.637511)
(1.19936 -3.6355e-22 -0.385427)
(0.710607 0 -0.174719)
(0.30793 -8.53174e-20 0.00203957)
(-0.0223815 -1.67842e-19 0.147873)
(-0.291784 -1.65073e-19 0.267809)
(-0.509425 0 0.364758)
(-0.682812 -1.57399e-19 0.442558)
(-0.818915 1.53052e-19 0.503615)
(-0.92328 1.4921e-19 0.550049)
(-1.0007 -2.66374e-22 0.584173)
(-1.05542 0 0.608128)
(-1.09122 2.09891e-22 0.62297)
(-1.11094 0 0.628927)
(-1.11816 2.53373e-19 0.626919)
(-1.11407 0 0.621077)
(-1.10084 0 0.611296)
(-1.08042 0 0.598294)
(-1.05419 2.18632e-19 0.582605)
(-1.02336 0 0.564808)
(-0.989228 0 0.545558)
(-0.952715 0 0.525231)
(-0.914559 0 0.504205)
(-0.875498 -3.57844e-19 0.482761)
(-0.835937 6.86605e-19 0.461087)
(-0.796404 0 0.439501)
(-0.757212 3.15362e-19 0.418061)
(-0.718407 0 0.396806)
(-0.680194 0 0.375829)
(-0.642605 0 0.355162)
(-0.605837 7.97213e-23 0.334988)
(-0.570203 0 0.315503)
(-0.536025 -4.84731e-19 0.296938)
(-0.503914 0 0.279682)
(-0.47447 0 0.264036)
(-0.448174 -4.22804e-19 0.250254)
(-0.425449 0 0.238505)
(-0.406317 0 0.228687)
(-0.39038 2.38926e-23 0.220445)
(-0.376635 7.01667e-19 0.213018)
(-0.363183 0 0.205101)
(-0.347123 4.17511e-23 0.194799)
(-0.32424 1.21678e-18 0.179484)
(-0.289058 0 0.155901)
(-0.235271 5.52434e-19 0.120513)
(-0.156614 0 0.0701598)
(-0.0487226 5.00314e-19 0.00322075)
(0.0895209 9.5077e-19 -0.0803325)
(0.251758 0 -0.175547)
(0.425317 8.53817e-19 -0.274131)
(0.590909 -1.43911e-22 -0.364593)
(0.727987 0 -0.435754)
(0.818196 0 -0.478291)
(0.851759 0 -0.48839)
(0.82339 -1.27114e-18 -0.46066)
(0.733807 9.76776e-23 -0.399308)
(0.583022 0 -0.304001)
(0.372757 1.07234e-18 -0.177021)
(0.103513 2.04062e-18 -0.0181349)
(-0.193323 0 0.149464)
(-0.455429 0 0.287376)
(-0.596586 0 0.346192)
(-0.538525 5.02529e-22 0.29097)
(-0.389454 0 0.199223)
(-0.24398 0 0.115874)
(-0.0929367 0 0.0335848)
(-0.00715572 0 -0.0105799)
(0.0786579 1.3968e-18 -0.0523257)
(0.0507895 1.31703e-18 -0.0198049)
(-0.123526 0 0.0972323)
(-0.443383 0 0.299054)
(-0.90488 0 0.591658)
(-1.66793 2.65966e-22 1.05612)
(-2.55013 0 1.56709)
(-3.42095 -1.77343e-18 2.04472)
(-3.8798 0 2.26427)
(-3.86341 -1.74647e-18 2.25137)
(-4.33178 0 2.55493)
(-4.87487 -1.88411e-18 2.22823)
(5.21573 0 -3.62547)
(6.93756 0 -3.92674)
(4.94955 0 -3.09299)
(11.9046 0 -6.9951)
(9.20847 1.90621e-18 -4.84217)
(4.32451 0 -2.19231)
(1.86983 1.79395e-18 -0.89062)
(-0.270493 1.66006e-18 0.24677)
(-0.347192 0 0.233907)
(-1.04911 0 0.502638)
(2.07107 0 -1.37952)
(2.97044 0 -1.70267)
(2.26732 3.15123e-22 -1.32099)
(3.25554 0 -1.92516)
(2.78249 -3.94957e-18 -1.47084)
(-0.728993 0 0.783503)
(-6.38148 2.35654e-18 4.14125)
(-11.5146 -9.14587e-19 7.01124)
(-14.3156 -8.77313e-19 8.40452)
(-14.497 -9.64144e-19 8.31712)
(-12.7812 0 7.21812)
(-11.2627 0 6.28723)
(-8.18632 -5.8224e-18 4.34929)
(-3.32865 2.86323e-18 1.4146)
(3.58957 2.57469e-18 -2.43601)
(6.41316 -2.1518e-18 -3.76408)
(34.3472 0 -2.07849)
(34.7588 3.32286e-20 -2.29566)
(34.5723 0 -3.07837)
(33.2337 0 -4.17023)
(30.7144 0 -5.14785)
(27.3765 0 -5.72516)
(23.6927 0 -5.83459)
(20.053 3.00757e-20 -5.56187)
(16.7016 3.27847e-20 -5.04724)
(13.7491 7.08448e-20 -4.4177)
(11.2144 -7.49465e-20 -3.76175)
(9.06751 -7.82584e-20 -3.1309)
(7.26071 -8.04207e-20 -2.55053)
(5.74375 0 -2.03086)
(4.47205 0 -1.57219)
(3.40652 -1.6492e-19 -1.17364)
(2.51463 -1.6432e-19 -0.829118)
(1.76917 0 -0.534843)
(1.14755 8.05364e-20 -0.284284)
(0.631321 1.58432e-19 -0.07318)
(0.204291 0 0.10348)
(-0.146221 1.51671e-19 0.249687)
(-0.431233 0 0.369432)
(-0.660777 -2.0409e-22 0.46609)
(-0.842778 -1.40384e-19 0.542639)
(-0.984362 -2.63082e-22 0.601611)
(-1.09131 0 0.645727)
(-1.16858 1.27891e-19 0.678035)
(-1.22163 -2.47228e-19 0.699679)
(-1.25459 -4.77872e-19 0.710024)
(-1.27103 -2.30419e-19 0.71038)
(-1.27298 0 0.705782)
(-1.26307 -2.13942e-19 0.696688)
(-1.24371 0 0.683281)
(-1.21666 0 0.666565)
(-1.18376 0 0.647401)
(-1.14644 0 0.626306)
(-1.10584 0 0.603814)
(-1.06305 1.15853e-22 0.580329)
(-1.01872 -3.23538e-19 0.556151)
(-0.973626 0 0.531726)
(-0.928312 -5.94298e-19 0.507153)
(-0.882942 0 0.48253)
(-0.837853 0 0.458015)
(-0.79317 0 0.433694)
(-0.749188 4.99185e-19 0.409832)
(-0.706341 0 0.386698)
(-0.665056 0 0.364604)
(-0.626091 0 0.344041)
(-0.590206 0 0.325383)
(-0.558004 7.95949e-19 0.308932)
(-0.530015 0 0.294877)
(-0.506295 0 0.28307)
(-0.486374 3.46004e-19 0.273045)
(-0.469056 0 0.26383)
(-0.452066 0 0.253791)
(-0.431924 1.20021e-18 0.240579)
(-0.403598 -5.72093e-19 0.220973)
(-0.360555 0 0.191054)
(-0.295307 0 0.14663)
(-0.200419 0 0.0840622)
(-0.0707032 -4.70166e-19 0.00162199)
(0.0952774 0 -0.10031)
(0.290268 0 -0.215616)
(0.499658 -1.60415e-18 -0.334314)
(0.700931 1.51571e-18 -0.442797)
(0.869794 0 -0.528012)
(0.984146 0 -0.579127)
(1.03199 0 -0.591799)
(1.00658 5.96595e-19 -0.560065)
(0.908793 -5.62342e-19 -0.488583)
(0.738826 -1.06177e-18 -0.377325)
(0.498617 -1.00598e-18 -0.229011)
(0.187542 -9.56921e-19 -0.043383)
(-0.159627 9.14676e-19 0.152177)
(-0.470691 0 0.311578)
(-0.644425 0 0.376855)
(-0.58717 8.18851e-19 0.310778)
(-0.42136 0 0.206225)
(-0.259858 0 0.113891)
(-0.0921504 0 0.0245139)
(-0.00278642 0 -0.0190027)
(0.0867122 0 -0.0588078)
(0.0379003 -2.46695e-18 -0.0050458)
(-0.19486 0 0.155147)
(-0.606213 -1.07966e-18 0.418494)
(-1.17571 0 0.786253)
(-2.08723 2.4831e-22 1.34748)
(-3.10542 1.74005e-18 1.93706)
(-4.07656 0 2.45674)
(-4.51584 0 2.64012)
(-4.40903 0 2.57332)
(-4.76829 0 2.83162)
(-5.1028 1.7533e-18 2.10368)
(5.02534 0 -3.83475)
(8.04915 0 -4.55709)
(5.49286 0 -3.52982)
(13.4868 0 -8.02291)
(11.3304 0 -5.85985)
(5.80149 0 -2.85934)
(2.49014 0 -1.12282)
(-0.248268 0 0.292338)
(-0.410966 -1.46775e-18 0.288008)
(-1.16922 0 0.515714)
(2.45966 0 -1.70113)
(3.54795 0 -2.03645)
(2.82419 2.25299e-18 -1.6455)
(3.78769 0 -2.23877)
(2.81366 1.84623e-18 -1.39347)
(-1.76884 0 1.58662)
(-8.50705 3.56744e-21 5.5952)
(-14.0857 0 8.65293)
(-16.7042 8.15044e-19 9.82701)
(-16.3704 0 9.36442)
(-14.2337 0 7.98655)
(-12.5357 0 6.93176)
(-8.96735 2.7152e-18 4.63552)
(-3.64214 -5.34445e-18 1.3586)
(3.85961 -4.80875e-18 -2.78719)
(7.29826 -2.0116e-18 -4.32485)
(34.0159 0 -2.37197)
(34.3114 -3.56632e-20 -2.50984)
(34.5507 0 -2.94546)
(34.2447 0 -3.70208)
(33.0813 -2.7346e-20 -4.58224)
(31.0501 -2.68075e-20 -5.33397)
(28.3429 2.7643e-20 -5.7884)
(25.2318 -8.69954e-20 -5.8952)
(21.9866 0 -5.69436)
(18.8236 3.28274e-23 -5.27066)
(15.8846 3.52126e-20 -4.71489)
(13.2416 0 -4.10185)
(10.9154 0 -3.48369)
(8.89621 0 -2.89305)
(7.15923 0 -2.34665)
(5.67415 3.30638e-22 -1.85369)
(4.41017 2.95793e-22 -1.41531)
(3.33851 7.63803e-20 -1.03125)
(2.43322 7.54461e-20 -0.697614)
(1.67179 0 -0.410951)
(1.03412 -1.45748e-19 -0.166818)
(0.50366 -1.42954e-19 0.0395306)
(0.0652622 0 0.211505)
(-0.294031 -2.11024e-22 0.353449)
(-0.585241 2.26785e-22 0.468888)
(-0.817968 -1.28435e-19 0.561292)
(-1.00056 0 0.633688)
(-1.14061 0 0.688716)
(-1.24447 2.32941e-19 0.728906)
(-1.31784 2.06702e-22 0.757805)
(-1.36682 4.33957e-19 0.772789)
(-1.39418 0 0.777184)
(-1.40426 4.02926e-19 0.774496)
(-1.39942 0 0.766489)
(-1.38263 0 0.753381)
(-1.3564 -1.79296e-19 0.736565)
(-1.32283 0 0.716671)
(-1.28358 -3.30723e-19 0.694421)
(-1.24021 1.14808e-22 0.670373)
(-1.19372 3.04382e-19 0.644965)
(-1.14523 0 0.618797)
(-1.09557 7.31438e-23 0.59203)
(-1.04509 0 0.564843)
(-0.99433 0 0.537479)
(-0.943542 0 0.510098)
(-0.893152 0 0.483064)
(-0.843744 0 0.456734)
(-0.795868 4.292e-19 0.431512)
(-0.750437 0 0.408001)
(-0.708381 0 0.386644)
(-0.670437 -3.74194e-19 0.367791)
(-0.637253 0 0.351647)
(-0.608929 -3.40858e-19 0.338005)
(-0.584939 -3.25176e-19 0.326277)
(-0.563923 6.20265e-19 0.315269)
(-0.543253 0 0.303009)
(-0.518924 -5.63826e-19 0.286688)
(-0.485152 -5.37372e-19 0.262508)
(-0.434449 0 0.225915)
(-0.358264 0 0.172143)
(-0.248104 0 0.097177)
(-0.0980254 4.41458e-19 -0.000691605)
(0.0937662 0 -0.120538)
(0.319359 0 -0.255119)
(0.562648 7.52835e-19 -0.392841)
(0.798443 -1.42264e-18 -0.518209)
(0.999161 0 -0.616566)
(1.13918 0 -0.675826)
(1.20426 0 -0.691307)
(1.18602 0 -0.656689)
(1.08551 -5.27506e-19 -0.576922)
(0.903112 9.95517e-19 -0.452319)
(0.640879 0 -0.286046)
(0.296524 0 -0.0776171)
(-0.0938344 -8.57234e-19 0.141962)
(-0.450434 0 0.319655)
(-0.659271 -7.93627e-19 0.389807)
(-0.611378 7.66119e-19 0.315396)
(-0.438063 0 0.20258)
(-0.268216 0 0.105736)
(-0.0905972 0 0.0137874)
(-0.00219488 0 -0.0258013)
(0.0873787 0 -0.0604928)
(0.0152925 1.15467e-18 0.0184602)
(-0.279166 0 0.226517)
(-0.784404 2.02115e-18 0.554694)
(-1.45845 0 0.997782)
(-2.50322 2.27336e-22 1.6481)
(-3.62911 -2.94675e-22 2.29836)
(-4.66386 0 2.83291)
(-5.0503 1.50837e-18 2.95291)
(-4.83792 0 2.81823)
(-5.00534 0 2.98058)
(-4.94235 -3.2737e-18 1.74524)
(4.13823 0 -3.6964)
(8.91641 0 -5.07189)
(5.86138 0 -3.88251)
(14.4425 0 -8.73597)
(13.3183 0 -6.79048)
(7.44447 0 -3.57303)
(3.24722 0 -1.38628)
(-0.164793 0 0.325179)
(-0.453164 1.37123e-18 0.334425)
(-1.24742 0 0.49061)
(2.77943 0 -2.00554)
(4.0839 0 -2.3477)
(3.37275 -2.10364e-18 -1.96352)
(4.21336 -1.97939e-18 -2.47643)
(2.61597 -1.73156e-18 -1.13349)
(-3.06975 1.39584e-18 2.6054)
(-10.7137 2.91263e-21 7.14321)
(-16.3994 -7.98292e-19 10.1563)
(-18.5744 -1.51933e-18 10.9323)
(-17.6656 0 10.0323)
(-15.1881 1.97713e-18 8.43296)
(-13.4297 2.21458e-18 7.31942)
(-9.4433 0 4.70718)
(-3.73661 2.49375e-18 1.14476)
(3.91614 2.24515e-18 -3.04536)
(7.93976 1.87766e-18 -4.75398)
(33.7703 0 -2.5324)
(33.9263 1.76711e-20 -2.67948)
(34.175 0 -2.95946)
(34.2646 0 -3.45401)
(33.9125 2.57492e-20 -4.12103)
(32.9471 2.52369e-20 -4.82563)
(31.333 -2.60187e-20 -5.41841)
(29.1472 8.41681e-20 -5.79215)
(26.539 0 -5.903)
(23.6872 3.18429e-20 -5.76393)
(20.7649 -6.5989e-20 -5.4235)
(17.9144 0 -4.94373)
(15.2359 7.01646e-20 -4.38401)
(12.788 0 -3.79331)
(10.5962 7.21318e-20 -3.2064)
(8.66261 7.26865e-20 -2.64731)
(6.97552 7.24735e-20 -2.12923)
(5.516 -7.1899e-20 -1.65979)
(4.262 -1.41833e-19 -1.24095)
(3.19139 0 -0.872526)
(2.28263 1.37197e-19 -0.552202)
(1.51629 0 -0.276471)
(0.87435 0 -0.0420641)
(0.340592 -1.27761e-19 0.155245)
(-0.0992442 2.4843e-19 0.319204)
(-0.457723 0 0.453757)
(-0.746089 0 0.562318)
(-0.974492 0 0.64814)
(-1.15177 -2.18837e-19 0.714069)
(-1.28576 2.11551e-19 0.762847)
(-1.38243 -1.83739e-22 0.798633)
(-1.44902 1.96548e-19 0.819785)
(-1.48988 -3.78857e-19 0.828978)
(-1.50997 1.82314e-19 0.828363)
(-1.51167 -1.75374e-19 0.822131)
(-1.49911 8.74558e-23 0.810213)
(-1.47517 0 0.793792)
(-1.44216 3.11048e-19 0.77378)
(-1.40227 2.98462e-19 0.750902)
(-1.35701 -2.86229e-19 0.725761)
(-1.3079 0 0.699149)
(-1.25621 2.62855e-19 0.671311)
(-1.20255 2.51681e-19 0.642524)
(-1.14769 2.40958e-19 0.613144)
(-1.09211 2.30593e-19 0.583424)
(-1.03639 0 0.55385)
(-0.981308 0 0.524881)
(-0.92755 -5.47144e-23 0.497021)
(-0.876199 0 0.470997)
(-0.828375 0 0.447323)
(-0.784955 -3.51441e-19 0.426397)
(-0.746719 3.35445e-19 0.40843)
(-0.713833 3.20126e-19 0.393147)
(-0.685736 2.47124e-23 0.379829)
(-0.660927 -4.6905e-23 0.36705)
(-0.636474 0 0.352489)
(-0.607896 0 0.332879)
(-0.568746 1.00876e-18 0.303862)
(-0.510691 0 0.2603)
(-0.424246 0 0.196929)
(-0.29999 -4.35547e-19 0.109475)
(-0.131291 0 -0.00361985)
(0.084037 0 -0.140793)
(0.337713 7.46095e-19 -0.293673)
(0.6126 -7.06253e-19 -0.449189)
(0.881428 1.33434e-18 -0.590184)
(1.11383 0 -0.700692)
(1.28093 -5.92644e-19 -0.767641)
(1.36622 0 -0.786191)
(1.35961 0 -0.749824)
(1.26215 9.88773e-19 -0.663676)
(1.07446 0 -0.528486)
(0.798643 0 -0.347826)
(0.430235 0 -0.120678)
(0.0043458 0 0.118877)
(-0.394267 0 0.312148)
(-0.641427 7.4318e-19 0.386728)
(-0.612992 -5.10213e-22 0.307223)
(-0.442705 -6.90465e-19 0.190999)
(-0.272574 6.62894e-19 0.094066)
(-0.0914902 0 0.00369025)
(-0.00757167 0 -0.0294602)
(0.0798681 0 -0.056694)
(-0.0160773 0 0.0506343)
(-0.373274 0 0.310326)
(-0.972269 4.0973e-22 0.705176)
(-1.74502 0 1.22216)
(-2.90522 -8.13525e-19 1.95187)
(-4.10985 -3.75056e-22 2.6437)
(-5.1744 0 3.16714)
(-5.48388 -1.4103e-18 3.20394)
(-5.15743 0 2.99492)
(-5.06553 1.43788e-18 3.01133)
(-4.52085 5.20937e-21 1.25157)
(2.74687 0 -3.31016)
(9.53474 0 -5.48318)
(6.10901 0 -4.17312)
(14.7525 0 -9.13826)
(15.0743 1.5568e-18 -7.6008)
(9.2149 0 -4.31387)
(4.16576 0 -1.68656)
(-0.000965725 1.35392e-18 0.3405)
(-0.465092 0 0.369608)
(-1.28309 -1.16806e-18 0.429194)
(3.01851 1.18593e-18 -2.2867)
(4.57519 0 -2.641)
(3.90191 3.92865e-18 -2.26663)
(4.51523 -1.46813e-21 -2.62422)
(2.1859 3.23736e-18 -0.69347)
(-4.58789 -1.3033e-18 3.80658)
(-12.904 -9.66739e-19 8.71447)
(-18.352 7.45306e-19 11.4499)
(-19.9091 7.07977e-19 11.7098)
(-18.4487 7.69933e-19 10.397)
(-15.7173 -1.84569e-18 8.63738)
(-14.013 -2.06728e-18 7.5274)
(-9.70586 -2.3474e-18 4.63304)
(-3.66118 -2.32323e-18 0.80819)
(3.73607 0 -3.1985)
(8.33382 0 -5.06225)
(33.5522 0 -2.62555)
(33.6283 1.91596e-20 -2.78556)
(33.7938 0 -3.00873)
(33.9488 0 -3.34967)
(33.9342 0 -3.82413)
(33.5946 0 -4.38909)
(32.8151 2.88398e-20 -4.95851)
(31.5429 -2.72329e-20 -5.43763)
(29.7914 2.93299e-20 -5.75339)
(27.6298 -5.94414e-20 -5.86869)
(25.1652 6.20326e-20 -5.7815)
(22.5224 0 -5.51604)
(19.825 -6.59579e-20 -5.11152)
(17.1804 0 -4.61252)
(14.6708 -6.78117e-20 -4.06056)
(12.3504 -6.77154e-20 -3.49117)
(10.2483 0 -2.93069)
(8.3742 0 -2.39806)
(6.72427 6.65801e-20 -1.90469)
(5.28676 0 -1.45706)
(4.04538 0 -1.05769)
(2.98222 -1.25748e-19 -0.706186)
(2.07879 0 -0.401034)
(1.31707 0 -0.139169)
(0.680298 -1.16695e-19 0.0828351)
(0.152982 0 0.26879)
(-0.279091 0 0.422322)
(-0.628931 0 0.54704)
(-0.907987 4.11244e-19 0.64635)
(-1.12654 0 0.723809)
(-1.29372 -1.56162e-22 0.781828)
(-1.4165 -1.34482e-22 0.824652)
(-1.50341 1.77981e-19 0.852807)
(-1.55992 -1.71342e-19 0.866884)
(-1.59167 3.29534e-19 0.868732)
(-1.60175 1.58403e-19 0.865067)
(-1.59492 0 0.854852)
(-1.57447 0 0.839389)
(-1.54333 2.80192e-19 0.819702)
(-1.50365 -2.68706e-19 0.796579)
(-1.45754 0 0.771051)
(-1.40682 0 0.743464)
(-1.35245 -5.95229e-23 0.714221)
(-1.29557 -2.26297e-19 0.683817)
(-1.2369 -2.16545e-19 0.652621)
(-1.17727 -4.14193e-19 0.621264)
(-1.11767 0 0.59032)
(-1.05897 -5.36221e-23 0.560409)
(-1.00244 0 0.532391)
(-0.949399 0 0.506855)
(-0.900891 3.29856e-19 0.484242)
(-0.857843 -3.14812e-19 0.464768)
(-0.820508 0 0.448082)
(-0.788316 2.86503e-19 0.433322)
(-0.759666 -4.71902e-23 0.418822)
(-0.731367 0 0.401905)
(-0.698535 0 0.378856)
(-0.654156 -9.46064e-19 0.344778)
(-0.589174 0 0.294003)
(-0.493319 0 0.220862)
(-0.35637 8.16745e-19 0.120935)
(-0.171073 0 -0.00704601)
(0.0651761 0 -0.160836)
(0.344062 -1.39875e-18 -0.330897)
(0.647868 6.61922e-19 -0.502855)
(0.947884 -6.25292e-19 -0.658113)
(1.2115 0 -0.779681)
(1.40689 5.55259e-19 -0.853765)
(1.51529 0 -0.87556)
(1.52474 -4.91706e-19 -0.838602)
(1.43622 -4.63085e-19 -0.747947)
(1.25052 0 -0.604958)
(0.969876 0 -0.413567)
(0.587178 7.85867e-19 -0.171905)
(0.134023 7.50624e-19 0.0835984)
(-0.302866 0 0.290151)
(-0.592401 0 0.369113)
(-0.594648 -1.34123e-18 0.288408)
(-0.438735 6.46134e-19 0.174039)
(-0.276393 -1.24022e-18 0.0812356)
(-0.0975982 0 -0.00396575)
(-0.0203817 0 -0.0290281)
(0.0643248 0 -0.0472301)
(-0.0543566 0 0.0908186)
(-0.473029 0 0.405013)
(-1.16316 4.08436e-22 0.866964)
(-2.02665 0 1.4548)
(-3.2827 0 2.2525)
(-4.53803 -4.65598e-22 2.9667)