/*--------------------------------*- C++ -*----------------------------------*\
| =========                 |                                                 |
| \\      /  F ield         | OpenFOAM: The Open Source CFD Toolbox           |
|  \\    /   O peration     | Version:  2412                                  |
|   \\  /    A nd           | Website:  www.openfoam.com                      |
|    \\/     M anipulation  |                                                 |
\*---------------------------------------------------------------------------*/
FoamFile
{
    version     2.0;
    format      ascii;
    arch        "LSB;label=32;scalar=64";
    class       volVectorField;
    location    "1.255";
    object      U_0;
}
// * * * * * * * * * * * * * * * * * * * * * * * * * * * * * * * * * * * * * //

dimensions      [0 1 -1 0 0 0 0];

internalField   nonuniform List<vector> 
12600
(
(18.7395 1.23992e-21 2.09513)
(11.6198 1.60907e-20 0.451188)
(7.35146 1.89172e-20 -0.477824)
(5.08981 0 -0.709255)
(3.97681 1.70953e-20 -0.682355)
(3.33602 1.59183e-20 -0.607641)
(2.8947 0 -0.539945)
(2.56339 0 -0.484475)
(2.30368 -4.78293e-20 -0.438994)
(2.09346 0 -0.401233)
(1.919 2.00547e-20 -0.369343)
(1.77138 1.83599e-20 -0.341997)
(1.64449 -1.68164e-20 -0.318245)
(1.53398 0 -0.29739)
(1.43669 -1.40887e-20 -0.278908)
(1.35021 0 -0.262396)
(1.27272 4.73193e-20 -0.247538)
(1.20279 0 -0.234085)
(1.13929 -1.97938e-20 -0.221834)
(1.08131 -1.80975e-20 -0.210623)
(1.0281 1.65151e-20 -0.200316)
(0.97907 5.40624e-24 -0.190802)
(0.933697 0 -0.181987)
(0.891559 -2.48852e-20 -0.173792)
(0.852297 0 -0.16615)
(0.815603 0 -0.159002)
(0.781215 -1.84197e-20 -0.152299)
(0.748904 0 -0.145998)
(0.718473 4.08419e-24 -0.140061)
(0.689749 1.32806e-20 -0.134456)
(0.662579 1.18123e-20 -0.129153)
(0.636831 1.04524e-20 -0.124126)
(0.612384 -9.19324e-21 -0.119353)
(0.589133 -1.60558e-20 -0.114814)
(0.566984 -1.38997e-20 -0.110489)
(0.545851 1.18955e-20 -0.106363)
(0.525658 0 -0.10242)
(0.506336 -8.36331e-21 -0.0986482)
(0.487822 0 -0.0950341)
(0.47006 5.34742e-21 -0.0915674)
(0.452995 0 -0.0882374)
(0.436583 1.75349e-23 -0.0850354)
(0.420777 0 -0.081952)
(0.40554 1.59605e-23 -0.0789806)
(0.390831 -6.46724e-22 -0.0761124)
(0.376622 2.36304e-21 -0.0733426)
(0.362871 -3.95715e-21 -0.0706626)
(0.349562 0 -0.0680696)
(0.336651 0 -0.0655546)
(0.324132 -7.89036e-21 -0.0631168)
(0.311957 -1.79233e-20 -0.0607466)
(0.300133 -1.98544e-20 -0.0584454)
(0.288604 1.94556e-23 -0.056202)
(0.27739 -2.3115e-20 -0.0540211)
(0.266426 0 -0.0518888)
(0.25575 2.57219e-20 -0.0498136)
(0.245278 2.67844e-20 -0.0477784)
(0.235074 2.76964e-20 -0.0457961)
(0.225032 0 -0.0438455)
(0.215241 0 -0.0419446)
(0.205571 0 -0.0400673)
(0.196143 -6.03965e-20 -0.0382379)
(0.186793 0 -0.0364238)
(0.177683 0 -0.034657)
(0.168609 1.24012e-19 -0.0328974)
(0.159776 0 -0.0311852)
(0.150941 0 -0.0294728)
(0.14235 0 -0.0278082)
(0.133727 -1.24044e-19 -0.0261377)
(0.125347 1.23454e-19 -0.0245145)
(0.116921 1.22601e-19 -0.0228829)
(0.108723 2.3494e-23 -0.0212954)
(0.1005 -1.20358e-19 -0.0197033)
(0.0924561 0 -0.018146)
(0.0844613 1.17433e-19 -0.0165983)
(0.0765481 0 -0.0150664)
(0.0688242 0 -0.0135713)
(0.0610522 0 -0.0120666)
(0.0536024 2.86025e-23 -0.0106243)
(0.0461211 2.15595e-19 -0.00917548)
(0.0387445 2.10972e-19 -0.00774728)
(0.0320632 -2.064e-19 -0.00645201)
(0.0241313 -2.01326e-19 -0.00491708)
(0.0192492 0 -0.00396702)
(0.00977542 0 -0.00213645)
(0.00789097 3.72962e-19 -0.00175978)
(-0.004047 -7.21545e-19 0.000544508)
(-0.00224988 7.0367e-19 0.000208941)
(-0.0162584 3.38844e-19 0.00291201)
(-0.0125795 0 0.00219591)
(-0.0251108 -6.33886e-19 0.00463879)
(-0.0250386 3.07499e-19 0.00458231)
(-0.0280263 -2.95709e-19 0.00522686)
(-0.0436913 5.67978e-19 0.00818782)
(-0.0240173 0 0.00447939)
(-0.0601262 0 0.0114009)
(-0.0197582 0 0.00366293)
(-0.0728056 0 0.0138775)
(-0.032467 0 0.0058984)
(-0.0569322 0 0.0109534)
(-0.0594059 -4.27152e-19 0.0111603)
(-0.049068 -8.0359e-19 0.00938906)
(-0.0811738 -7.70848e-19 0.0154483)
(-0.0483883 0 0.00918331)
(-0.0811131 0 0.0155341)
(-0.0690975 0 0.0131727)
(-0.105145 -6.32712e-19 0.0199802)
(-0.0385183 -1.23485e-18 0.00743427)
(-0.13675 5.5617e-19 0.0261991)
(-0.0764015 0 0.0142195)
(-0.0947529 -1.02721e-18 0.018386)
(-0.13218 0 0.0250926)
(-0.0751154 -9.60142e-19 0.0143374)
(-0.134764 8.97054e-19 0.0257991)
(-0.13703 -8.70926e-19 0.025763)
(-0.0477628 -8.47826e-19 0.00913875)
(-0.150008 7.65311e-19 0.0287635)
(-0.139326 -8.48237e-23 0.0261245)
(-0.0831151 7.27358e-19 0.0155824)
(-0.0443325 0 0.00823525)
(29.1491 -1.2517e-21 4.02687)
(25.1055 0 1.85871)
(20.2433 -1.91463e-20 -0.213575)
(16.077 0 -1.21223)
(13.1177 -1.73225e-20 -1.50776)
(11.075 -3.04109e-20 -1.51875)
(9.60281 -1.4075e-20 -1.44111)
(8.4908 0 -1.34349)
(7.61793 3.55887e-22 -1.2481)
(6.91138 -2.18759e-20 -1.16103)
(6.32551 2.00827e-20 -1.08294)
(5.8303 1.84342e-20 -1.01313)
(5.40512 -1.69185e-20 -0.950565)
(5.03531 1.55241e-20 -0.894286)
(4.71013 2.85364e-20 -0.843428)
(4.42149 0 -0.797256)
(4.16321 -6.45904e-23 -0.755151)
(3.93045 2.19103e-20 -0.716592)
(3.71937 2.00818e-20 -0.681139)
(3.5269 0 -0.648422)
(3.35052 0 -0.618125)
(3.18817 1.52602e-20 -0.589979)
(3.03812 0 -0.563754)
(2.89896 1.2615e-20 -0.539251)
(2.76944 -2.28676e-20 -0.516299)
(2.64855 0 -0.494746)
(2.53538 1.86695e-20 -0.474464)
(2.42917 0 -0.455336)
(2.32925 -1.50579e-20 -0.437262)
(2.23504 -2.69052e-20 -0.420151)
(2.14603 -2.39263e-20 -0.403924)
(2.06176 -1.05797e-20 -0.38851)
(1.98184 9.30266e-21 -0.373845)
(1.90591 3.25022e-20 -0.359872)
(1.83365 2.81315e-20 -0.346538)
(1.76478 0 -0.333798)
(1.69903 0 -0.321609)
(1.63618 -1.73165e-23 -0.309932)
(1.57602 0 -0.298731)
(1.51836 -5.39844e-21 -0.287976)
(1.46302 0 -0.277635)
(1.40985 -5.62821e-21 -0.267684)
(1.35869 0 -0.258093)
(1.30942 -1.27125e-21 -0.248845)
(1.2619 0 -0.239911)
(1.21603 -2.37943e-21 -0.23128)
(1.17169 0 -0.222924)
(1.12881 0 -0.214836)
(1.08726 6.70742e-21 -0.206987)
(1.047 0 -0.199378)
(1.00788 0 -0.191976)
(0.969926 0 -0.184789)
(0.932953 2.16342e-20 -0.177779)
(0.897019 4.6317e-20 -0.170965)
(0.861919 0 -0.164299)
(0.827765 0 -0.157813)
(0.794302 -2.67601e-20 -0.15145)
(0.76171 -2.76951e-20 -0.145253)
(0.729672 0 -0.139152)
(0.698451 0 -0.133211)
(0.667649 0 -0.127337)
(0.637629 0 -0.12162)
(0.607894 -6.08262e-20 -0.115943)
(0.578924 6.13239e-20 -0.110422)
(0.550107 -1.23306e-19 -0.104915)
(0.522053 0 -0.0995651)
(0.494032 0 -0.0942054)
(0.466775 0 -0.0890052)
(0.439456 4.73442e-23 -0.083775)
(0.412892 -1.22273e-19 -0.0787057)
(0.38622 -1.21317e-19 -0.0735954)
(0.360251 2.40388e-19 -0.0686391)
(0.334229 3.58652e-23 -0.0636499)
(0.308762 -1.1739e-19 -0.0587891)
(0.283463 -1.15762e-19 -0.0539359)
(0.258415 0 -0.0491548)
(0.233965 0 -0.0444634)
(0.209349 0 -0.0397642)
(0.185769 2.15825e-19 -0.0352409)
(0.162004 0 -0.0307022)
(0.138724 0 -0.0262398)
(0.117301 2.02007e-19 -0.0221485)
(0.0924541 1.96831e-19 -0.0173853)
(0.0763966 0 -0.01433)
(0.0469488 0 -0.00867632)
(0.0399911 0 -0.00737149)
(0.003008 7.02304e-19 -0.000277017)
(0.0074586 -4.16449e-23 -0.00118088)
(-0.0361842 3.29061e-19 0.0072795)
(-0.0253349 -3.20151e-19 0.00500401)
(-0.0653037 6.14306e-19 0.0129096)
(-0.0642346 2.97644e-19 0.0123704)
(-0.0767332 5.71925e-19 0.0151432)
(-0.121441 0 0.0233577)
(-0.0664881 0 0.0129601)
(-0.173224 0 0.0334531)
(-0.0554892 0 0.0106291)
(-0.214564 4.54605e-19 0.0418249)
(-0.089406 0 0.0163446)
(-0.172331 0 0.0339484)
(-0.171357 -4.09543e-19 0.0324882)
(-0.147653 3.84903e-19 0.0289043)
(-0.23952 1.47537e-18 0.0460358)
(-0.14363 -7.05979e-19 0.0275503)
(-0.246033 0 0.0477263)
(-0.20585 0 0.0398991)
(-0.308892 0 0.0589889)
(-0.122464 5.88129e-19 0.0238143)
(-0.410657 -5.29309e-19 0.0799729)
(-0.219726 0 0.0409295)
(-0.292749 1.95192e-18 0.0575618)
(-0.38521 9.50202e-19 0.0736388)
(-0.226719 1.8215e-18 0.0435207)
(-0.404197 0 0.0788132)
(-0.392712 0 0.0739895)
(-0.148839 -8.02435e-19 0.028543)
(-0.448875 0 0.0880164)
(-0.391901 -7.26824e-19 0.073937)
(-0.238749 -6.86915e-19 0.0444551)
(-0.121552 0 0.0226035)
(31.8926 0 3.89794)
(31.078 0 2.8195)
(28.5481 -1.29691e-20 1.02378)
(25.2052 0 -0.383084)
(21.9537 0 -1.22696)
(19.1814 1.51176e-20 -1.65163)
(16.9238 1.33292e-20 -1.81983)
(15.0994 0 -1.85136)
(13.6123 4.20669e-22 -1.81761)
(12.3825 2.07244e-20 -1.75507)
(11.3495 -3.78433e-20 -1.68127)
(10.4689 -1.74663e-20 -1.60454)
(9.70872 1.1455e-22 -1.52887)
(9.04496 -1.47103e-20 -1.4561)
(8.45975 -1.34938e-20 -1.38705)
(7.93937 1.23228e-20 -1.32195)
(7.47316 -2.26749e-20 -1.26079)
(7.05269 -2.07631e-20 -1.20341)
(6.67122 0 -1.1496)
(6.32331 0 -1.09911)
(6.0045 1.58233e-20 -1.05169)
(5.71109 1.4429e-20 -1.0071)
(5.44 0 -0.965126)
(5.18864 0 -0.925549)
(4.95483 2.16684e-20 -0.888181)
(4.73667 0 -0.852848)
(4.53257 -3.53741e-20 -0.81939)
(4.34113 1.59137e-20 -0.787663)
(4.16114 0 -0.757537)
(3.99153 1.27481e-20 -0.728891)
(3.83138 1.13369e-20 -0.701619)
(3.67987 0 -0.67562)
(3.53627 -8.82552e-21 -0.650805)
(3.39993 -1.54016e-20 -0.627092)
(3.27026 1.21011e-23 -0.604405)
(3.14676 0 -0.582677)
(3.02896 0 -0.561842)
(2.91642 8.01771e-21 -0.541846)
(2.80877 0 -0.52263)
(2.70567 0 -0.50415)
(2.60678 0 -0.486354)
(2.51183 0 -0.469207)
(2.42054 0 -0.452661)
(2.33269 0 -0.436689)
(2.24801 0 -0.421245)
(2.16635 2.20901e-21 -0.406312)
(2.08746 -3.71504e-21 -0.391841)
(2.01122 0 -0.377827)
(1.93739 -6.34585e-21 -0.364217)
(1.8659 0 -0.351016)
(1.79651 0 -0.338167)
(1.72921 1.87675e-20 -0.325688)
(1.6637 0 -0.31351)
(1.60008 -2.18832e-20 -0.301669)
(1.53798 2.31471e-20 -0.290082)
(1.47759 0 -0.278808)
(1.41847 2.52941e-20 -0.26774)
(1.36092 0 -0.256965)
(1.30439 0 -0.24635)
(1.24933 0 -0.236016)
(1.19506 5.59726e-20 -0.225796)
(1.14218 5.67937e-20 -0.215851)
(1.08985 2.84457e-23 -0.205972)
(1.03887 -1.15787e-19 -0.196368)
(0.988217 2.49506e-23 -0.186783)
(0.938903 0 -0.177478)
(0.889698 0 -0.168148)
(0.841828 -1.16433e-19 -0.159105)
(0.793896 3.81576e-23 -0.149998)
(0.747276 0 -0.141184)
(0.700511 0 -0.132284)
(0.654963 -1.13328e-19 -0.123668)
(0.609353 2.88856e-23 -0.114974)
(0.564703 2.6895e-23 -0.106525)
(0.520359 0 -0.0980619)
(0.476451 0 -0.0897529)
(0.433581 -2.11094e-19 -0.0815656)
(0.390414 2.07293e-19 -0.0733922)
(0.349068 0 -0.0655022)
(0.3073 0 -0.0575791)
(0.266564 0 -0.0498292)
(0.228642 0 -0.0426136)
(0.185417 0 -0.0344151)
(0.156438 0 -0.0288978)
(0.105543 0 -0.0192359)
(0.091954 0 -0.0166657)
(0.0282459 -6.60262e-19 -0.00455976)
(0.0342742 -3.21561e-19 -0.00577882)
(-0.0412287 -3.09275e-19 0.00880318)
(-0.0234061 3.00839e-19 0.00489976)
(-0.0938382 -5.7708e-19 0.0190706)
(-0.0908818 -2.79575e-19 0.0174624)
(-0.116975 -2.68539e-19 0.02377)
(-0.188535 0 0.0360363)
(-0.102661 0 0.0204326)
(-0.278918 0 0.053668)
(-0.0868566 0 0.0168142)
(-0.352599 -4.26495e-19 0.0691872)
(-0.138445 0 0.0242558)
(-0.28986 0 0.0581957)
(-0.276301 3.83998e-19 0.0516167)
(-0.247689 0 0.0492489)
(-0.394251 -6.91391e-19 0.0754561)
(-0.238584 6.61583e-19 0.0456403)
(-0.414524 0 0.0809684)
(-0.341869 0 0.0665806)
(-0.508576 0 0.0959291)
(-0.21436 5.508e-19 0.0425347)
(-0.686144 0 0.134479)
(-0.35577 -5.023e-19 0.0643576)
(-0.501044 1.4615e-23 0.100078)
(-0.628224 -8.89289e-19 0.118685)
(-0.382224 -1.70444e-18 0.0732725)
(-0.674173 0 0.132641)
(-0.63302 7.71355e-19 0.116024)
(-0.25693 7.50581e-19 0.0496197)
(-0.747036 6.76897e-19 0.148331)
(-0.618908 0 0.113564)
(-0.385713 6.42289e-19 0.0690224)
(-0.185752 0 0.0329653)
(32.4143 0 2.95613)
(32.98 0 2.76944)
(32.4262 1.22601e-20 1.72429)
(30.7827 0 0.52229)
(28.5289 -1.23019e-20 -0.483504)
(26.112 2.50226e-20 -1.2069)
(23.7919 0 -1.67024)
(21.6849 -2.18385e-20 -1.93455)
(19.8245 2.09377e-20 -2.06382)
(18.2011 1.89328e-20 -2.10813)
(16.7873 1.77927e-20 -2.10133)
(15.5519 -1.61705e-20 -2.0647)
(14.4664 1.50525e-20 -2.0112)
(13.5063 -2.74394e-20 -1.94866)
(12.6518 0 -1.88181)
(11.8865 -2.32461e-20 -1.81352)
(11.197 0 -1.74554)
(10.5725 0 -1.67892)
(10.0041 0 -1.61427)
(9.4843 1.63451e-20 -1.55193)
(9.00705 -3.41982e-23 -1.49206)
(8.56713 -2.60141e-23 -1.43473)
(8.16021 1.24056e-20 -1.3799)
(7.78257 0 -1.32752)
(7.43105 0 -1.27751)
(7.10292 0 -1.22975)
(6.79584 3.34412e-20 -1.18413)
(6.50776 -5.99774e-24 -1.14056)
(6.23689 0 -1.09891)
(5.98166 0 -1.05907)
(5.7407 0 -1.02095)
(5.51278 0 -0.984435)
(5.29681 1.66938e-20 -0.949442)
(5.09182 0 -0.915879)
(4.89694 -1.26154e-20 -0.883661)
(4.7114 0 -0.852711)
(4.53448 0 -0.822954)
(4.36556 -7.60278e-21 -0.794324)
(4.20404 0 -0.766751)
(4.04942 0 -0.74018)
(3.90121 3.66254e-21 -0.714548)
(3.75898 -5.10664e-21 -0.689809)
(3.6223 0 -0.665902)
(3.49084 -1.20285e-21 -0.642794)
(3.36421 0 -0.620423)
(3.24216 -4.15435e-21 -0.598767)
(3.12431 1.88436e-23 -0.577763)
(3.0105 0 -0.557402)
(2.90036 0 -0.537614)
(2.79378 7.02468e-21 -0.518407)
(2.69038 1.59672e-20 -0.4997)
(2.59017 -3.54134e-20 -0.481521)
(2.49269 0 -0.463772)
(2.39807 -2.06093e-20 -0.446509)
(2.30578 -2.185e-20 -0.429608)
(2.21608 -2.28969e-20 -0.413158)
(2.12833 -2.38296e-20 -0.397005)
(2.04295 0 -0.381276)
(1.95916 0 -0.365778)
(1.87757 -5.18139e-20 -0.350688)
(1.79722 -1.05563e-19 -0.335761)
(1.71895 -5.35661e-20 -0.321234)
(1.64156 3.05176e-23 -0.306803)
(1.5662 5.45765e-20 -0.292773)
(1.49137 5.48414e-20 -0.278769)
(1.41853 0 -0.265176)
(1.34592 0 -0.251541)
(1.27528 1.09724e-19 -0.23833)
(1.2046 2.18445e-19 -0.225021)
(1.13585 0 -0.212144)
(1.06694 1.07679e-19 -0.199132)
(0.999803 1.06669e-19 -0.186545)
(0.932613 1.05483e-19 -0.173829)
(0.86683 2.08293e-19 -0.161488)
(0.801503 0 -0.149101)
(0.736824 0 -0.136963)
(0.673644 1.98645e-19 -0.124971)
(0.610033 -3.90025e-19 -0.113022)
(0.549088 -1.9109e-19 -0.101469)
(0.487413 0 -0.0898484)
(0.427472 0 -0.0785445)
(0.371103 0 -0.0678583)
(0.307849 0 -0.0560086)
(0.263993 0 -0.0476462)
(0.190009 0 -0.0337938)
(0.167995 -3.20987e-19 -0.0295886)
(0.0757313 4.30984e-23 -0.0122379)
(0.0820078 3.01937e-19 -0.0135237)
(-0.0277531 0 0.00752348)
(-0.00331132 2.82382e-19 0.00200203)
(-0.107557 2.70834e-19 0.0231468)
(-0.101752 0 0.0199226)
(-0.146125 -2.51949e-19 0.031121)
(-0.241803 -4.83107e-19 0.0462213)
(-0.130548 0 0.027041)
(-0.374281 0 0.0721483)
(-0.112229 0 0.0223266)
(-0.484071 -3.99785e-19 0.0957926)
(-0.178197 0 0.0301759)
(-0.407826 0 0.0834531)
(-0.371593 3.59757e-19 0.0687921)
(-0.34834 -3.38041e-19 0.070471)
(-0.542446 0 0.103715)
(-0.33273 0 0.0638067)
(-0.584182 0 0.115008)
(-0.475344 0 0.093195)
(-0.702715 0 0.131699)
(-0.313707 1.81956e-23 0.0634069)
(-0.959316 0 0.189259)
(-0.483943 4.70036e-19 0.0856632)
(-0.717826 -8.54759e-19 0.145561)
(-0.857481 0 0.1609)
(-0.541397 1.9682e-23 0.104098)
(-0.94007 0 0.186698)
(-0.855863 -1.23895e-22 0.153608)
(-0.371385 0 0.0724326)
(-1.03927 -6.32876e-19 0.208882)
(-0.815294 0 0.146424)
(-0.522571 6.00295e-19 0.0904158)
(-0.232759 0 0.039433)
(32.5167 0 2.10393)
(33.2742 0 2.22903)
(33.6207 0 1.7534)
(33.2561 0 0.958759)
(32.233 1.16121e-20 0.116353)
(30.7585 -9.01292e-22 -0.633309)
(29.0384 0 -1.23479)
(27.2314 2.06125e-20 -1.67893)
(25.4473 0 -1.98291)
(23.7522 -3.52399e-20 -2.17497)
(22.1785 0 -2.28373)
(20.7362 1.52661e-20 -2.33321)
(19.4229 0 -2.34171)
(18.2299 2.59071e-20 -2.32249)
(17.1459 -1.17999e-20 -2.28487)
(16.1594 2.18031e-20 -2.23529)
(15.2595 -1.99591e-20 -2.17821)
(14.4362 -1.832e-20 -2.11668)
(13.6808 0 -2.05281)
(12.9856 -1.54343e-20 -1.98806)
(12.3439 -1.41004e-20 -1.92343)
(11.7498 -2.56893e-20 -1.85958)
(11.1983 -1.17142e-20 -1.79699)
(10.6849 0 -1.73594)
(10.206 0 -1.67663)
(9.75799 0 -1.61916)
(9.33806 -1.57831e-20 -1.56358)
(8.94359 -1.42045e-20 -1.5099)
(8.57228 0 -1.4581)
(8.22212 0 -1.40816)
(7.8913 1.01237e-20 -1.36001)
(7.57823 0 -1.3136)
(7.28145 1.3688e-24 -1.26887)
(6.99969 -1.37707e-20 -1.22575)
(6.73179 1.19248e-20 -1.18417)
(6.47669 0 -1.14406)
(6.23346 0 -1.10536)
(6.00124 7.17566e-21 -1.06801)
(5.77924 0 -1.03192)
(5.56675 0 -0.99706)
(5.36311 -3.4562e-21 -0.963346)
(5.16775 4.81865e-21 -0.930736)
(4.98007 0 -0.899162)
(4.79963 1.13487e-21 -0.868587)
(4.62589 0 -0.838941)
(4.45849 1.95022e-21 -0.810202)
(4.29694 3.29275e-21 -0.78229)
(4.14099 0 -0.755202)
(3.99014 5.60567e-21 -0.728847)
(3.84424 -6.62467e-21 -0.703243)
(3.70278 -3.00838e-20 -0.678283)
(3.56574 1.66817e-20 -0.65401)
(3.43252 -1.81074e-20 -0.630295)
(3.30327 2.53835e-23 -0.607215)
(3.17729 0 -0.584607)
(3.05489 2.15812e-20 -0.562592)
(2.93524 2.24581e-20 -0.540964)
(2.81887 -2.31977e-20 -0.519899)
(2.70475 2.3844e-20 -0.499134)
(2.59367 4.88161e-20 -0.478913)
(2.48436 4.97056e-20 -0.458903)
(2.37792 -5.03932e-20 -0.439429)
(2.27276 5.09682e-20 -0.420075)
(2.17037 0 -0.401261)
(2.06879 0 -0.382475)
(1.96993 5.17138e-20 -0.364242)
(1.87145 0 -0.345947)
(1.77564 0 -0.328224)
(1.67987 -1.0277e-19 -0.310359)
(1.58669 0 -0.293083)
(1.49336 -1.01309e-19 -0.27561)
(1.40243 -2.00658e-19 -0.258723)
(1.31146 0 -0.241637)
(1.22239 -9.79306e-20 -0.22508)
(1.13393 0 -0.208422)
(1.04637 0 -0.192136)
(0.960777 -1.86642e-19 -0.175996)
(0.874631 1.83269e-19 -0.159952)
(0.792042 3.93264e-23 -0.144402)
(0.708358 0 -0.128748)
(0.627247 0 -0.11359)
(0.550279 0 -0.0990564)
(0.465135 -1.63413e-19 -0.0833142)
(0.404221 1.59377e-19 -0.0716803)
(0.305308 0 -0.0534412)
(0.272832 6.02585e-19 -0.0471703)
(0.149993 2.90999e-19 -0.0243555)
(0.15493 -5.66645e-19 -0.0254185)
(0.00833469 -2.72389e-19 0.00254695)
(0.0388414 -5.2978e-19 -0.00458859)
(-0.102885 0 0.0243461)
(-0.093231 0 0.0188864)
(-0.161169 2.36243e-19 0.0365973)
(-0.277717 4.5292e-19 0.0529534)
(-0.147857 -4.39439e-19 0.0323165)
(-0.456024 0 0.0879345)
(-0.129667 0 0.0268036)
(-0.605758 3.74574e-19 0.12086)
(-0.207323 3.74109e-19 0.0335818)
(-0.523958 0 0.109399)
(-0.454567 -3.36921e-19 0.0830487)
(-0.448472 3.16538e-19 0.0924682)
(-0.680881 0 0.129797)
(-0.425491 0 0.0818997)
(-0.751905 0 0.149236)
(-0.604499 0 0.119191)
(-0.889905 0 0.165407)
(-0.419322 -4.82399e-19 0.0864443)
(-1.22595 0 0.243221)
(-0.604184 0 0.10423)
(-0.940425 0 0.193564)
(-1.06961 7.77725e-19 0.19852)
(-0.703678 7.45398e-19 0.135779)
(-1.19664 0 0.239689)
(-1.06013 -6.74274e-19 0.185149)
(-0.490567 0 0.0968599)
(-1.31995 -5.91481e-19 0.268184)
(-0.976939 0 0.169919)
(-0.648076 -5.60998e-19 0.107525)
(-0.257856 0 0.0402998)
(32.5886 -4.97459e-21 1.49005)
(33.1717 -6.1771e-21 1.62935)
(33.6982 7.33672e-21 1.438)
(33.9235 8.2692e-21 0.976626)
(33.7308 0 0.38428)
(33.1318 -9.91416e-21 -0.232033)
(32.1999 0 -0.806491)
(31.0262 1.74175e-20 -1.30207)
(29.6993 1.66536e-20 -1.70333)
(28.2955 3.21217e-20 -2.01072)
(26.8743 -1.4779e-20 -2.23394)
(25.478 1.3791e-20 -2.38649)
(24.1337 0 -2.48232)
(22.8569 0 -2.53404)
(21.655 1.11247e-20 -2.55229)
(20.5298 -1.14545e-22 -2.54562)
(19.4796 1.7604e-22 -2.52067)
(18.5009 1.35878e-22 -2.48252)
(17.5893 0 -2.43501)
(16.7397 0 -2.38101)
(15.9473 0 -2.3227)
(15.2075 2.41383e-20 -2.26167)
(14.5157 1.09805e-20 -2.19913)
(13.8679 0 -2.13596)
(13.2604 0 -2.07283)
(12.6897 1.64286e-20 -2.01021)
(12.1527 0 -1.94847)
(11.6467 0 -1.88785)
(11.1692 0 -1.82853)
(10.7179 0 -1.77063)
(10.2906 -6.39973e-24 -1.71423)
(9.88563 0 -1.65936)
(9.5012 -1.61494e-24 -1.60604)
(9.13581 1.2981e-20 -1.55427)
(8.78805 2.61217e-24 -1.50404)
(8.45666 0 -1.45531)
(8.14049 0 -1.40806)
(7.83847 0 -1.36223)
(7.54963 0 -1.31779)
(7.2731 0 -1.2747)
(7.00802 0 -1.23289)
(6.7537 0 -1.19233)
(6.50938 -2.76627e-21 -1.15295)
(6.27448 -1.10555e-21 -1.11473)
(6.04833 0 -1.07759)
(5.83047 1.80277e-21 -1.04151)
(5.62026 0 -1.00641)
(5.41738 0 -0.972286)
(5.2212 -1.05444e-20 -0.939041)
(5.03152 0 -0.906701)
(4.84768 1.41518e-20 -0.875137)
(4.66963 0 -0.844411)
(4.49664 3.40743e-20 -0.814359)
(4.32886 2.46013e-23 -0.78509)
(4.1654 0 -0.756395)
(4.00666 0 -0.728437)
(3.85157 0 -0.70095)
(3.70079 4.36474e-20 -0.674167)
(3.55301 -4.4861e-20 -0.64775)
(3.40923 -4.5868e-20 -0.622017)
(3.26781 -4.67044e-20 -0.59654)
(3.13016 9.47917e-20 -0.571741)
(2.99426 4.789e-20 -0.547084)
(2.86197 0 -0.523112)
(2.73083 0 -0.499165)
(2.6032 -2.43384e-23 -0.475925)
(2.47616 0 -0.452592)
(2.35258 0 -0.429996)
(2.22912 -9.65366e-20 -0.407201)
(2.10901 0 -0.385169)
(1.98876 0 -0.362863)
(1.8716 1.88506e-19 -0.341322)
(1.75442 -9.31402e-20 -0.319494)
(1.63969 0 -0.298371)
(1.52574 0 -0.277071)
(1.41297 0 -0.25629)
(1.30265 1.75285e-19 -0.235629)
(1.19167 0 -0.215142)
(1.08516 3.37095e-19 -0.195232)
(0.977156 -1.64994e-19 -0.175182)
(0.872669 0 -0.155836)
(0.772739 0 -0.137049)
(0.663597 1.53344e-19 -0.117139)
(0.583218 -2.53834e-23 -0.101772)
(0.4573 1.45018e-19 -0.0789239)
(0.412074 -2.8259e-19 -0.0701105)
(0.256412 2.72836e-19 -0.0415894)
(0.258154 2.65662e-19 -0.0420603)
(0.0719074 2.5539e-19 -0.00674482)
(0.107714 3.05222e-23 -0.0154387)
(-0.0755409 0 0.0220898)
(-0.0609851 -2.3051e-19 0.0138395)
(-0.158461 0 0.0397261)
(-0.29204 0 0.0557469)
(-0.151761 4.11672e-19 0.035973)
(-0.520119 0 0.100514)
(-0.136755 0 0.0299965)
(-0.713842 0 0.143727)
(-0.224171 -3.50283e-19 0.0343779)
(-0.635326 0 0.135578)
(-0.522208 -3.15316e-19 0.0939977)
(-0.546523 0 0.115106)
(-0.80569 0 0.153199)
(-0.516027 0 0.100021)
(-0.913749 0 0.182952)
(-0.727452 0 0.144261)
(-1.06814 -4.62686e-19 0.19713)
(-0.529361 -4.51226e-19 0.111395)
(-1.48135 4.05661e-19 0.295418)
(-0.71636 0 0.120328)
(-1.16521 0 0.243456)
(-1.26096 -1.45409e-18 0.231293)
(-0.867832 0 0.168367)
(-1.43784 6.50081e-19 0.290374)
(-1.24471 0 0.210971)
(-0.611639 6.13202e-19 0.122523)
(-1.58295 5.52729e-19 0.3248)
(-1.09948 0 0.183819)
(-0.760417 -5.2407e-19 0.120253)
(-0.255223 0 0.0344829)
(32.6429 4.68471e-21 1.03823)
(33.0537 1.13869e-20 1.12495)
(33.4997 -6.9108e-21 1.04162)
(33.8647 -7.82445e-22 0.777929)
(34.0378 7.48759e-21 0.387315)
(33.9631 0 -0.0682833)
(33.6326 0 -0.539752)
(33.0665 -1.64011e-20 -0.991355)
(32.3002 -3.04601e-20 -1.39946)
(31.3761 -7.08937e-22 -1.75102)
(30.3379 1.39152e-20 -2.04155)
(29.226 -1.29848e-20 -2.27238)
(28.0755 1.17412e-20 -2.44836)
(26.9146 0 -2.57608)
(25.7649 0 -2.66271)
(24.6419 -9.53167e-21 -2.71526)
(23.5561 3.4874e-20 -2.74013)
(22.5139 3.20919e-20 -2.74289)
(21.5188 0 -2.72825)
(20.5721 0 -2.7001)
(19.6737 0 -2.66161)
(18.8224 -6.72806e-23 -2.61531)
(18.0165 -2.06264e-20 -2.56325)
(17.2537 9.36622e-21 -2.50702)
(16.5318 1.70168e-20 -2.44789)
(15.8483 -3.08888e-20 -2.38688)
(15.201 1.39334e-20 -2.32476)
(14.5875 1.25515e-20 -2.26216)
(14.0055 1.12675e-20 -2.19954)
(13.4531 0 -2.13728)
(12.9282 -8.97988e-21 -2.07566)
(12.429 7.94122e-21 -2.0149)
(11.9538 -6.99466e-21 -1.95516)
(11.501 -1.22149e-20 -1.89655)
(11.0692 -2.11665e-20 -1.83916)
(10.6569 0 -1.78305)
(10.263 0 -1.72824)
(9.88614 -6.38554e-21 -1.67476)
(9.52533 0 -1.62259)
(9.17956 4.09923e-21 -1.57176)
(8.84784 3.08976e-21 -1.52221)
(8.52936 0 -1.47395)
(8.22322 5.22207e-21 -1.42692)
(7.92877 1.04039e-21 -1.38112)
(7.64518 0 -1.33648)
(7.37193 -1.69634e-21 -1.293)
(7.10823 -2.87183e-21 -1.2506)
(6.8537 0 -1.20929)
(6.60757 9.89099e-21 -1.16896)
(6.3696 -5.82764e-21 -1.12966)
(6.13898 -1.32583e-20 -1.09123)
(5.91566 0 -1.05378)
(5.69873 -2.48858e-23 -1.01709)
(5.48837 3.42929e-20 -0.981321)
(5.2835 0 -0.946211)
(5.08459 0 -0.911972)
(4.89033 -1.98175e-20 -0.878277)
(4.70152 -2.0509e-20 -0.845424)
(4.51655 4.21381e-20 -0.812992)
(4.33663 4.3117e-20 -0.781385)
(4.15977 4.38994e-20 -0.750068)
(3.98766 -4.45307e-20 -0.719577)
(3.81782 -8.99824e-20 -0.689238)
(3.65255 0 -0.659739)
(3.48879 0 -0.630249)
(3.32946 -9.13119e-20 -0.601632)
(3.17095 0 -0.572877)
(3.01676 0 -0.545037)
(2.86281 9.06687e-20 -0.516926)
(2.71304 0 -0.48977)
(2.56315 -8.93128e-20 -0.46224)
(2.41713 -3.24036e-23 -0.43568)
(2.27108 8.7441e-20 -0.408717)
(2.12813 0 -0.382666)
(1.98607 0 -0.356323)
(1.84557 0 -0.330686)
(1.70795 1.64396e-19 -0.305103)
(1.56963 0 -0.279809)
(1.43667 -1.58106e-19 -0.255141)
(1.30183 3.09508e-19 -0.230313)
(1.1715 0 -0.206409)
(1.04603 0 -0.182941)
(0.910501 0 -0.158556)
(0.808022 -2.51267e-23 -0.138959)
(0.65274 -1.35951e-19 -0.111256)
(0.592221 -2.64807e-19 -0.0993748)
(0.401208 -2.55713e-19 -0.0648926)
(0.397633 2.48892e-19 -0.0643494)
(0.16863 0 -0.0212033)
(0.208729 2.32612e-19 -0.0314462)
(-0.0205048 0 0.0156084)
(2.91192e-05 2.15911e-19 0.00398096)
(-0.133685 0 0.0398809)
(-0.279915 0 0.0536539)
(-0.138837 0 0.0375714)
(-0.561866 -3.62579e-19 0.108986)
(-0.130547 -3.56916e-19 0.0315191)
(-0.803897 0 0.16357)
(-0.226776 3.27764e-19 0.0323117)
(-0.73826 -3.01491e-19 0.161384)
(-0.571323 2.95033e-19 0.100973)
(-0.640401 -2.77166e-19 0.138154)
(-0.91255 0 0.172937)
(-0.60319 0 0.118083)
(-1.06488 0 0.215262)
(-0.842329 0 0.168036)
(-1.23492 4.32653e-19 0.226343)
(-0.641219 -2.2946e-23 0.137862)
(-1.72049 -7.5847e-19 0.344769)
(-0.820332 0 0.133937)
(-1.38754 0 0.294356)
(-1.42821 6.79482e-19 0.258191)
(-1.03183 0 0.201539)
(-1.65703 -6.07503e-19 0.337292)
(-1.40895 0 0.230697)
(-0.730292 -1.14592e-18 0.148728)
(-1.82199 0 0.377098)
(-1.179 0 0.186823)
(-0.85729 4.89564e-19 0.127935)
(-0.218122 0 0.0202279)
(32.6671 0 0.68525)
(32.9684 -5.239e-21 0.728212)
(33.3052 0 0.67836)
(33.6355 -6.59205e-21 0.514946)
(33.8961 -1.34394e-20 0.252811)
(34.0363 0 -0.07632)
(34.0275 6.70458e-21 -0.441032)
(33.8583 0 -0.81523)
(33.5293 9.01005e-22 -1.17872)
(33.05 -2.58208e-20 -1.51701)
(32.4364 0 -1.82081)
(31.7089 0 -2.08519)
(30.8896 -1.10432e-20 -2.30859)
(30.0009 0 -2.49172)
(29.0639 0 -2.63688)
(28.0975 0 -2.74733)
(27.1179 -1.62909e-20 -2.82687)
(26.1385 -1.50068e-20 -2.87944)
(25.1698 -1.36148e-20 -2.90893)
(24.2198 0 -2.91897)
(23.2944 0 -2.91285)
(22.3976 -1.06036e-20 -2.89349)
(21.5319 9.67512e-21 -2.86338)
(20.6988 -8.80919e-21 -2.82468)
(19.8988 -1.60047e-20 -2.77919)
(19.1318 2.89353e-20 -2.72843)
(18.3974 -5.42273e-23 -2.67364)
(17.6947 -1.18047e-20 -2.61586)
(17.0225 -1.05969e-20 -2.55595)
(16.3798 0 -2.49459)
(15.7652 0 -2.43234)
(15.1775 -7.46818e-21 -2.36968)
(14.6152 0 -2.30697)
(14.0772 1.14867e-20 -2.24451)
(13.562 9.95088e-21 -2.18253)
(13.0686 -8.52501e-21 -2.12122)
(12.5957 0 -2.06072)
(12.1421 6.00417e-21 -2.00116)
(11.7069 4.88758e-21 -1.9426)
(11.2889 3.69912e-24 -1.88512)
(10.8872 -5.8146e-21 -1.82875)
(10.501 0 -1.77353)
(10.1293 -2.46184e-21 -1.71944)
(9.77131 0 -1.66652)
(9.42622 0 -1.61473)
(9.09343 0 -1.56411)
(8.77205 1.377e-23 -1.51456)
(8.46167 0 -1.46615)
(8.16139 -4.64105e-21 -1.41875)
(7.87097 1.09401e-20 -1.37245)
(7.58942 1.2459e-20 -1.32707)
(7.31675 0 -1.28275)
(7.05184 -1.50215e-20 -1.23926)
(6.79494 -3.21745e-20 -1.19679)
(6.54475 0 -1.15503)
(6.30185 0 -1.11426)
(6.06464 1.86156e-20 -1.07408)
(5.83413 1.92268e-20 -1.03487)
(5.60835 -1.97798e-20 -0.996106)
(5.38878 -4.04268e-20 -0.958309)
(5.17299 0 -0.920816)
(4.96305 0 -0.884296)
(4.75595 2.85079e-23 -0.84792)
(4.55445 -4.25275e-20 -0.812546)
(4.35486 0 -0.777143)
(4.16072 4.28453e-20 -0.74279)
(3.96763 0 -0.708233)
(3.77985 0 -0.674785)
(3.59239 0 -0.640967)
(3.41007 0 -0.608318)
(3.22762 3.43695e-23 -0.575165)
(3.0499 -3.21086e-23 -0.543214)
(2.87213 -8.19681e-20 -0.510707)
(2.69818 0 -0.479352)
(2.5252 -7.9707e-20 -0.44755)
(2.35423 0 -0.41668)
(2.18653 -1.54155e-19 -0.385747)
(2.01813 1.51243e-19 -0.355264)
(1.85595 -1.4815e-19 -0.325409)
(1.69154 -1.45051e-19 -0.295403)
(1.5326 0 -0.266535)
(1.37881 1.3833e-19 -0.237936)
(1.2142 0 -0.208725)
(1.08677 -1.31325e-19 -0.184376)
(0.899432 -1.27326e-19 -0.151533)
(0.820846 2.48072e-19 -0.136021)
(0.591609 0 -0.0952905)
(0.580335 -4.6619e-19 -0.0932588)
(0.305103 0 -0.0417943)
(0.348272 2.1776e-19 -0.0535247)
(0.0681341 0 0.00410504)
(0.0957414 2.02083e-19 -0.0115274)
(-0.0817264 0 0.0363171)
(-0.235639 3.71754e-19 0.0458475)
(-0.104928 -3.60693e-19 0.0366002)
(-0.575709 3.39302e-19 0.112451)
(-0.10744 3.33968e-19 0.0309326)
(-0.870789 0 0.17947)
(-0.212674 -6.13227e-19 0.0271307)
(-0.828275 5.64039e-19 0.186045)
(-0.598456 0 0.103416)
(-0.727352 2.59216e-19 0.161258)
(-0.99654 0 0.188202)
(-0.685356 0 0.13601)
(-1.19952 -4.47781e-19 0.245085)
(-0.947223 0 0.190209)
(-1.38687 0 0.252624)
(-0.751525 3.94382e-19 0.165276)
(-1.93798 7.08824e-19 0.390165)
(-0.915637 3.59e-19 0.145116)
(-1.60174 0 0.345129)
(-1.56825 0 0.278701)
(-1.19258 0 0.234843)
(-1.847 0 0.378891)
(-1.5523 5.49736e-19 0.244363)
(-0.840585 5.35258e-19 0.174414)
(-2.03071 0 0.423384)
(-1.21157 0 0.178226)
(-0.935569 0 0.129881)
(-0.138812 0 -0.00435573)
(32.6658 4.19058e-21 0.397053)
(32.8977 0 0.412723)
(33.1533 4.90824e-21 0.371778)
(33.418 0 0.258194)
(33.6608 6.01039e-21 0.0725227)
(33.8502 0 -0.170534)
(33.9634 -6.30145e-21 -0.451841)
(33.9853 1.15544e-20 -0.753461)
(33.9067 2.35913e-20 -1.06024)
(33.7229 7.28696e-22 -1.36018)
(33.4335 0 -1.64428)
(33.0419 0 -1.90632)
(32.5547 0 -2.14246)
(31.9811 0 -2.3506)
(31.3321 0 -2.53002)
(30.6196 0 -2.68096)
(29.8563 1.46785e-20 -2.80446)
(29.0543 -1.36004e-20 -2.90209)
(28.2251 1.27925e-20 -2.97585)
(27.3794 0 -3.02795)
(26.5262 0 -3.06071)
(25.6734 9.76295e-21 -3.07647)
(24.8275 8.93155e-21 -3.07748)
(23.9936 8.15063e-21 -3.06584)
(23.1758 0 -3.04347)
(22.377 -1.35607e-20 -3.01213)
(21.5995 -2.44486e-20 -2.97335)
(20.8447 1.09928e-20 -2.92848)
(20.1136 0 -2.87869)
(19.4065 0 -2.82498)
(18.7237 0 -2.76821)
(18.0649 6.9817e-21 -2.70912)
(17.4297 0 -2.64832)
(16.8177 0 -2.58633)
(16.228 9.32235e-21 -2.52359)
(15.6602 8.00845e-21 -2.46045)
(15.1133 0 -2.39723)
(14.5865 5.63613e-21 -2.33416)
(14.079 -9.18048e-21 -2.27145)
(13.59 -3.62367e-21 -2.20927)
(13.1187 2.73298e-21 -2.14774)
(12.6642 0 -2.08698)
(12.2258 0 -2.02704)
(11.8026 0 -1.96804)
(11.394 -3.0667e-22 -1.90995)
(10.9992 0 -1.85287)
(10.6175 2.52183e-21 -1.79675)
(10.2483 3.46588e-21 -1.74168)
(9.89075 0 -1.68756)
(9.54463 -5.12977e-21 -1.63451)
(9.2088 0 -1.58235)
(8.88334 0 -1.53127)
(8.56695 -1.40569e-20 -1.48101)
(8.26 2.17138e-23 -1.43182)
(7.96094 1.59629e-20 -1.38334)
(7.67052 0 -1.33593)
(7.38684 0 -1.28912)
(7.11114 -1.80442e-20 -1.24337)
(6.84105 0 -1.19807)
(6.5784 3.79354e-20 -1.15385)
(6.32025 0 -1.10992)
(6.06913 0 -1.0671)
(5.82141 7.91563e-20 -1.02439)
(5.58042 7.97644e-20 -0.982841)
(5.34174 4.00522e-20 -0.941195)
(5.10961 0 -0.900784)
(4.87875 0 -0.860069)
(4.65427 4.00295e-20 -0.820673)
(4.43019 7.96792e-20 -0.780771)
(4.21228 0 -0.742275)
(3.9942 7.85367e-20 -0.703105)
(3.78181 -7.77639e-20 -0.665398)
(3.5693 7.68397e-20 -0.626934)
(3.36142 -7.58127e-20 -0.589904)
(3.15451 7.4707e-20 -0.55221)
(2.95015 0 -0.515729)
(2.74935 0 -0.478998)