/*--------------------------------*- C++ -*----------------------------------*\
| =========                 |                                                 |
| \\      /  F ield         | OpenFOAM: The Open Source CFD Toolbox           |
|  \\    /   O peration     | Version:  2412                                  |
|   \\  /    A nd           | Website:  www.openfoam.com                      |
|    \\/     M anipulation  |                                                 |
\*---------------------------------------------------------------------------*/
FoamFile
{
    version     2.0;
    format      ascii;
    arch        "LSB;label=32;scalar=64";
    class       volVectorField;
    location    "0.305";
    object      ddt0(U);
}
// * * * * * * * * * * * * * * * * * * * * * * * * * * * * * * * * * * * * * //

dimensions      [0 1 -2 0 0 0 0];

internalField   nonuniform List<vector> 
12600
(
(-5.53145 0 11.6421)
(-3.85555 4.13095e-16 34.144)
(23.7875 3.43607e-16 18.0355)
(6.5079 0 4.09847)
(-10.0598 7.72302e-18 -5.99312)
(-15.0434 0 -10.0878)
(-24.6102 -4.82144e-16 -17.5591)
(-32.3188 0 -21.413)
(-34.2355 0 -23.9514)
(-35.1849 0 -23.1276)
(-28.054 0 -13.0914)
(-22.5154 -1.06742e-15 -9.47566)
(-14.1109 -1.06814e-15 -5.52012)
(-4.81512 0 -2.02469)
(-0.516402 2.10995e-15 -0.153382)
(2.96329 0 1.15301)
(7.8041 -6.99081e-18 4.13077)
(10.1115 0 6.78439)
(15.0639 9.74636e-16 9.88559)
(18.7175 0 11.617)
(16.3445 0 11.9023)
(12.5103 0 10.8889)
(12.9433 3.05905e-15 11.6752)
(9.92235 -2.79584e-15 12.1791)
(5.57262 -2.21497e-17 15.355)
(11.3125 1.21736e-15 22.0736)
(13.4215 0 21.8971)
(9.05764 0 21.8994)
(2.98386 0 22.2695)
(4.2935 -1.80155e-15 32.0643)
(31.5181 -3.06009e-15 45.2473)
(64.9076 0 50.6276)
(61.6024 0 38.7165)
(39.0788 -7.08789e-16 23.8269)
(22.6438 -5.51217e-16 14.9913)
(17.7541 0 12.0384)
(15.9109 0 10.0276)
(14.9583 -3.76906e-16 8.608)
(15.4729 0 7.72031)
(15.8027 9.68137e-18 7.93732)
(16.716 1.1543e-16 8.66337)
(20.4913 1.88573e-16 10.1503)
(21.7298 0 11.0111)
(22.6806 5.03679e-16 11.5992)
(19.7516 7.25583e-16 10.38)
(16.8126 -1.64635e-15 9.31727)
(15.8319 2.07291e-15 8.74749)
(9.74363 0 5.75519)
(9.34459 -2.38618e-15 5.03855)
(7.31599 2.4634e-15 3.43907)
(3.93477 0 1.59444)
(4.42085 -3.18767e-18 1.56396)
(2.12809 -2.33955e-15 0.00566999)
(2.82767 0 -0.270024)
(1.95977 4.37163e-15 -0.0437501)
(1.22581 0 -0.315982)
(1.01234 0 -0.603299)
(-1.98515 -1.03774e-19 -0.874579)
(-1.25169 1.80528e-18 -1.02303)
(-0.462442 -3.62091e-15 -1.14788)
(-1.47193 3.53252e-15 -0.859887)
(-1.19641 -6.72169e-15 -0.786969)
(1.35049 0 -0.654385)
(1.85332 -6.16241e-15 -0.700687)
(5.40627 -5.62506e-15 -1.38335)
(2.83184 1.14141e-14 0.81878)
(-3.04415 -5.30917e-15 2.31451)
(-23.7063 0 11.3824)
(-38.7009 0 16.1094)
(-11.7135 0 4.03179)
(31.8496 0 -16.4671)
(12.3061 0 -5.27649)
(-2.56732 8.12199e-15 0.424944)
(-11.2948 -7.27041e-15 -1.7789)
(-8.62092 0 -2.05997)
(14.9455 0 -7.77369)
(43.1958 -5.70737e-15 -19.2074)
(60.7079 -2.82298e-18 -28.1258)
(46.8777 -1.24521e-14 -23.0189)
(15.5229 0 -13.4298)
(-8.9553 0 9.61092)
(-36.4513 0 15.3413)
(-45.1161 -9.91876e-18 20.7366)
(-37.3931 0 18.3747)
(-23.2613 0 11.9082)
(-12.9424 -1.03383e-14 6.93701)
(-6.32568 4.70348e-19 3.43255)
(-0.632385 0 0.0258763)
(1.32674 0 -1.01634)
(-1.30402 1.65118e-14 -1.00793)
(-6.46522 1.49093e-14 1.51631)
(-6.67935 1.3371e-14 1.59487)
(1.02155 1.25803e-14 -3.0029)
(11.9835 8.94827e-19 -8.12888)
(13.1261 4.21676e-19 -8.44551)
(1.6263 -9.95583e-15 -3.33541)
(-8.79992 0 0.550075)
(-9.25201 0 2.31712)
(-6.38757 0 1.64507)
(-4.19246 -2.88076e-14 0.954921)
(-3.43654 1.31714e-14 0.199553)
(-2.37141 -1.17235e-14 -0.627833)
(-1.13268 -1.00597e-14 -0.944498)
(-0.58787 0 -1.26249)
(-0.650038 0 -1.5006)
(-0.962942 0 -1.80226)
(-2.61963 -7.82812e-15 -1.85952)
(-3.47324 0 -0.660052)
(-4.41343 2.89747e-15 0.154515)
(-4.99884 0 0.919507)
(-4.34542 0 1.4805)
(-4.34695 1.07063e-15 1.45381)
(-3.72568 0 1.30609)
(-3.1294 0 0.97791)
(-2.86357 0 0.857985)
(-2.20534 -6.62333e-15 0.554847)
(-1.72567 0 0.58852)
(-1.85671 7.512e-15 0.469071)
(-1.07307 0 0.492066)
(-0.992876 1.16276e-19 0.735619)
(-25.4384 -1.26867e-16 28.7666)
(2.259 -2.89281e-16 69.4016)
(2.33957 1.71741e-17 28.0385)
(-15.018 0 3.26794)
(-22.4138 -4.52346e-16 -5.59511)
(-22.6207 4.95747e-16 -7.3416)
(-34.6474 5.0292e-16 -20.0937)
(-39.4326 -5.4101e-16 -23.527)
(-39.1899 0 -26.4009)
(-34.2859 0 -25.7787)
(-26.7572 0 -17.3497)
(-23.2174 0 -12.4205)
(-14.1872 0 -7.46125)
(-4.98295 0 -2.74928)
(-0.597386 1.47003e-17 0.789491)
(3.55673 0 2.49726)
(9.24635 1.08184e-15 6.06235)
(12.5567 0 10.5237)
(17.7357 -2.02896e-15 14.6763)
(20.6877 1.91215e-15 16.8002)
(18.4187 0 18.7784)
(14.8715 1.66356e-15 17.9147)
(16.4223 -1.58294e-15 19.4795)
(15.3244 1.44386e-15 21.7368)
(16.1011 -1.36433e-15 30.5518)
(26.8021 0 47.2567)
(27.9301 1.06828e-15 48.0721)
(25.9566 0 51.6841)
(25.7279 0 58.1561)
(39.4418 0 84.7217)
(76.1641 1.55721e-15 115.614)
(96.8998 0 107.207)
(74.4377 0 69.0887)
(43.5982 0 38.578)
(25.4646 0 22.6623)
(20.3699 0 17.0163)
(18.1044 0 13.6268)
(16.5078 3.87792e-16 10.5909)
(16.6809 0 8.4425)
(17.4758 1.1037e-16 9.0095)
(18.6073 -2.49655e-16 9.88462)
(22.2926 -2.15434e-16 11.3298)
(23.2429 0 12.0369)
(23.8898 0 12.6417)
(20.3896 -1.49957e-15 10.8398)
(17.2079 1.68103e-15 9.13269)
(15.9819 -2.16975e-15 8.54663)
(9.90133 0 5.5078)
(9.69693 2.46015e-15 4.66048)
(7.63008 0 3.00394)
(4.41643 0 1.03756)
(4.87129 2.46796e-15 0.885262)
(2.4959 0 -0.7275)
(3.47209 0 -1.05645)
(3.04693 -4.41689e-15 -0.589454)
(2.50574 0 -1.12859)
(2.40825 0 -1.82032)
(-0.608476 -1.01551e-18 -2.10753)
(-0.125244 -3.76657e-15 -2.19215)
(0.737366 -9.62471e-18 -1.58707)
(-0.477171 0 -1.69206)
(0.00641949 6.72564e-15 -1.65621)
(3.57173 6.32139e-15 -2.1097)
(5.05325 0 -2.55953)
(11.0922 1.12107e-14 -4.57372)
(2.43234 9.58622e-19 1.77977)
(-9.84944 0 7.70631)
(-64.3539 -5.16751e-15 36.9403)
(-98.5359 0 50.6091)
(-37.3967 0 14.3045)
(91.2994 0 -52.2031)
(34.764 0 -16.3496)
(-5.52989 -1.59909e-14 2.51509)
(-13.1222 7.12774e-15 -1.82188)
(-8.10442 0 -4.09033)
(50.0314 0 -29.7282)
(125.281 -5.59625e-15 -67.7806)
(168.43 -4.06835e-18 -90.7704)
(125.942 -1.61963e-18 -68.2033)
(44.5042 0 -30.8896)
(-26.0016 0 36.1667)
(-105.778 0 54.4527)
(-123.265 -1.31062e-17 66.3644)
(-104.669 1.07441e-14 56.8711)
(-67.892 -1.03106e-14 36.9547)
(-38.2806 9.98902e-15 21.2447)
(-19.3758 1.50056e-18 10.3184)
(-0.612707 9.08566e-15 -0.311023)
(5.6118 0 -3.54918)
(0.29353 -1.58707e-14 -1.99627)
(-12.455 0 5.12376)
(-12.2189 -1.28203e-14 4.49347)
(12.283 0 -10.2795)
(42.2471 2.15996e-14 -26.112)
(41.7014 1.04091e-14 -25.0222)
(8.51259 0 -7.2262)
(-18.9613 0 6.00709)
(-20.8596 1.58937e-14 8.87441)
(-14.4336 -1.44349e-14 6.09567)
(-9.14989 2.73821e-14 3.63232)
(-6.08121 -1.25093e-14 1.52446)
(-2.89756 1.11242e-14 -0.597648)
(0.22615 0 -1.95388)
(2.25296 -8.21613e-15 -3.10114)
(2.0883 0 -3.32567)
(0.756875 0 -3.24271)
(-4.24627 7.25577e-15 -2.79482)
(-6.98901 0 0.946464)
(-10.3008 -3.40957e-17 3.29888)
(-12.4532 -1.13476e-15 5.05917)
(-11.533 0 5.58581)
(-11.3858 0 5.45675)
(-9.53916 0 4.6172)
(-7.83473 2.26525e-15 3.634)
(-6.91156 -4.64146e-15 3.14459)
(-5.242 6.22652e-15 2.25026)
(-4.51954 0 2.16744)
(-4.47353 -7.05564e-15 1.93891)
(-3.38429 0 1.80101)
(-4.14896 1.32642e-14 2.55959)
(-17.3288 2.89009e-16 41.6486)
(-1.98622 -1.77617e-16 57.8646)
(-13.1318 -7.44887e-16 15.9711)
(-19.4111 0 -1.57916)
(-19.9765 -4.59523e-16 -0.243333)
(-23.0425 1.04497e-17 2.2555)
(-31.6782 0 -2.94795)
(-31.5617 5.13457e-16 -3.26062)
(-29.0485 0 -1.88942)
(-25.1933 5.44013e-16 -2.63959)
(-23.5505 0 -6.29895)
(-20.1041 0 -4.17769)
(-12.8984 0 -2.60837)
(-5.57064 0 -1.90259)
(-2.15833 -1.06244e-15 0.260066)
(1.19534 0 1.09108)
(5.93378 0 1.78773)
(8.92133 0 5.08117)
(12.1227 9.62911e-16 6.42418)
(13.9783 -2.13073e-18 5.9286)
(11.9703 0 8.18679)
(9.14518 -7.87279e-18 8.83539)
(10.5499 0 9.00462)
(10.8994 -1.31911e-15 11.0286)
(13.2984 0 18.2426)
(21.105 0 32.0716)
(23.018 -1.0133e-15 37.3549)
(27.4193 0 49.5936)
(39.2817 0 71.2513)
(61.036 -1.36813e-15 106.861)
(95.3829 0 146.341)
(84.8999 0 101.118)
(54.806 0 49.7766)
(30.076 0 22.0985)
(17.3746 4.79233e-16 10.6244)
(14.2826 0 6.29904)
(13.3237 0 4.71304)
(12.0967 -3.34757e-16 2.25491)
(12.5978 0 0.0579314)
(13.6683 -8.9788e-17 0.704918)
(14.4312 -3.98298e-18 1.07667)
(17.1467 2.03958e-16 0.910116)
(17.5654 0 0.668648)
(18.0108 0 0.996229)
(14.8639 7.17215e-16 -0.062704)
(12.2662 0 -0.96124)
(11.4108 2.05249e-15 -1.10279)
(7.23324 0 -0.822732)
(7.27337 2.28705e-18 -1.23361)
(6.04502 0 -1.38527)
(3.8971 0 -1.39796)
(4.29587 0 -1.66087)
(2.96383 2.23943e-15 -1.64116)
(4.29502 0 -1.84745)
(4.11554 0 -1.61655)
(3.97567 0 -2.09382)
(4.10774 0 -2.95325)
(1.31608 -7.32882e-15 -2.8523)
(1.65881 0 -2.63928)
(2.5859 -5.66738e-18 -1.03309)
(0.811517 0 -1.81875)
(1.39647 -3.17091e-15 -2.08563)
(5.78148 -5.96012e-15 -3.61437)
(8.26542 0 -4.81036)
(16.7105 -1.05646e-14 -7.66854)
(2.40857 -5.35199e-15 2.16507)
(-14.39 0 13.2846)
(-100.492 4.86658e-15 61.2519)
(-147.497 0 78.0498)
(-70.1271 0 26.5373)
(142.275 0 -84.2622)
(59.3655 0 -25.8761)
(-6.27815 8.15365e-19 4.49436)
(-12.4865 -6.70304e-15 -0.152302)
(-3.26939 0 -6.7459)
(89.0789 0 -57.9385)
(207.55 -3.08216e-18 -120.74)
(266.829 1.08653e-14 -146.951)
(188.289 5.70888e-15 -97.9775)
(59.1973 0 -32.3566)
(-56.5798 0 59.3647)
(-169.816 0 95.5979)
(-189.124 2.08821e-14 105.226)
(-162.281 2.15612e-18 88.0216)
(-108.662 9.67223e-15 57.8246)
(-61.9697 0 33.107)
(-31.7685 8.8678e-15 15.7253)
(-0.79372 -8.51779e-15 -1.08063)
(9.79451 0 -6.21223)
(2.07238 0 -2.01274)
(-17.1582 -1.34061e-14 8.32684)
(-14.3277 0 5.44163)
(26.6267 -1.1274e-14 -19.5452)
(71.798 8.58736e-19 -43.5016)
(66.2153 -9.74481e-15 -37.5223)
(12.3569 8.88963e-15 -6.96873)
(-27.8998 0 14.1342)
(-30.7912 -1.4874e-14 15.4732)
(-21.3605 1.35068e-14 10.3875)
(-13.3089 -2.5615e-14 6.21217)
(-8.03392 0 3.0431)
(-2.7649 1.03839e-14 0.0344502)
(1.79254 0 -2.30961)
(4.76896 7.68267e-15 -4.1111)
(4.13235 -5.87759e-15 -3.83006)
(1.80773 0 -2.49216)
(-6.53178 -6.78233e-15 -1.61379)
(-10.7949 0 4.76686)
(-15.9857 -5.03826e-15 8.24431)
(-19.5292 1.06039e-15 10.2929)
(-18.4829 0 10.0147)
(-17.9356 0 9.65539)
(-15.1144 0 7.98811)
(-12.2775 1.33772e-18 6.41832)
(-10.9496 4.33548e-15 5.59208)
(-8.32453 -5.82838e-15 4.20531)
(-7.53236 0 3.9605)
(-7.37755 -6.59616e-15 3.74558)
(-6.0186 0 3.35428)
(-7.6361 -4.60066e-19 4.60021)
(-10.2165 -1.59806e-16 37.7303)
(-15.1727 -2.77475e-17 36.643)
(-12.2182 3.68647e-16 5.03948)
(-17.771 -4.26933e-16 -8.9895)
(-25.1635 -4.714e-16 -5.90208)
(-32.6469 -9.267e-16 -6.54825)
(-37.4857 0 -4.3539)
(-35.7808 0 -3.66746)
(-32.1339 0 -0.766217)
(-30.1495 -5.15269e-16 -1.65868)
(-26.7973 0 -4.25391)
(-21.9229 0 -2.55269)
(-15.007 0 -0.69535)
(-8.07855 0 -0.94927)
(-4.76404 0 0.0247526)
(-1.28906 -1.00667e-15 1.02892)
(3.72516 9.87352e-16 1.00243)
(6.51004 0 3.37965)
(8.62173 0 4.12999)
(10.1051 -1.71681e-15 2.43973)
(7.86999 1.59976e-15 3.05532)
(5.38734 -1.48756e-15 4.67785)
(6.252 1.38522e-15 3.60462)
(6.84303 1.24911e-15 4.5128)
(7.94696 -1.13244e-15 7.33253)
(10.7571 9.98773e-16 10.7769)
(14.3627 0 16.3998)
(20.5653 -7.8499e-16 26.2088)
(35.2731 0 48.1285)
(56.2528 1.29488e-15 79.8627)
(85.1017 0 131.955)
(66.3277 0 92.3068)
(37.3601 0 33.9436)
(20.4829 -5.39495e-16 10.9395)
(12.9419 -4.53335e-16 4.09674)
(11.8905 0 1.63427)
(12.0006 0 1.57198)
(11.4454 3.16552e-16 0.51708)
(12.5516 0 -1.11481)
(13.7739 1.77946e-18 -0.628137)
(14.5291 1.21201e-16 -0.147116)
(17.1564 0 -0.433753)
(17.7001 0 -0.651572)
(18.3815 0 0.121355)
(15.1516 0 -0.961778)
(12.9452 1.53743e-15 -1.34421)
(12.0349 0 -1.80144)
(8.10797 -2.03851e-15 -1.10144)
(7.97953 -2.19848e-15 -1.7254)
(6.67383 0 -2.08472)
(4.67069 0 -1.82364)
(5.03104 0 -2.21782)
(3.84953 -2.11281e-15 -2.19498)
(5.39086 2.03773e-15 -2.55604)
(5.36387 3.93247e-15 -2.76697)
(5.6222 0 -3.20079)
(5.97854 3.64331e-15 -4.22365)
(3.33364 6.90554e-15 -3.85849)
(3.46257 0 -3.43627)
(3.84486 6.49262e-15 -1.74157)
(1.8846 0 -2.35013)
(2.57608 2.98486e-15 -3.00962)
(8.09678 5.60789e-15 -5.29771)
(11.7375 0 -7.3791)
(22.468 4.97184e-15 -10.6457)
(3.45726 5.03383e-15 2.77963)
(-16.6276 0 19.1167)
(-131.279 0 84.4716)
(-182.109 0 97.458)
(-116.794 -3.81354e-15 42.5903)
(182.083 -3.8151e-15 -113.378)
(86.7735 0 -35.12)
(-5.18582 7.06467e-15 5.19964)
(-11.412 6.28046e-15 -0.761096)
(4.5426 0 -13.5554)
(132.795 0 -91.2214)
(290.394 4.94056e-15 -174.434)
(353.065 6.36299e-18 -195.26)
(229.7 0 -113.5)
(55.9156 0 -23.8829)
(-95.4036 0 82.8325)
(-226.68 0 133.919)
(-241.293 2.48989e-18 135.642)
(-208.868 -9.45444e-15 112.625)
(-144.462 0 75.3003)
(-83.6472 0 43.4555)
(-43.4214 0 20.3579)
(-1.34989 -7.9763e-15 -1.9799)
(13.7487 0 -8.73517)
(3.62117 -1.39195e-14 -2.21807)
(-20.3336 1.25541e-14 10.6237)
(-13.3583 -1.12356e-14 3.96453)
(42.8534 1.05542e-14 -30.9741)
(99.2308 -1.8935e-14 -60.3505)
(85.5862 9.11983e-15 -47.1835)
(12.7392 -8.31832e-15 -4.98001)
(-37.1395 0 21.1083)
(-39.8135 0 20.7462)
(-27.6352 1.26303e-14 13.7452)
(-17.0676 1.19775e-14 8.13729)
(-9.86968 1.09332e-14 3.96181)
(-2.872 -3.64368e-18 0.0343751)
(2.78879 0 -2.93515)
(6.28817 0 -4.98564)
(4.71031 5.4938e-15 -4.03324)
(0.82108 0 -1.82404)
(-9.3356 6.17121e-15 1.70487)
(-16.0394 0 8.33983)
(-22.67 5.78919e-18 12.5435)
(-27.0638 0 14.8458)
(-25.5023 -4.0273e-16 14.1245)
(-24.4095 8.99185e-16 13.4015)
(-20.6898 1.58123e-15 11.1419)
(-16.7847 8.13964e-19 8.98144)
(-15.1898 0 7.98284)
(-11.7149 5.44297e-15 6.13426)
(-10.8791 5.35685e-15 5.8663)
(-10.7234 6.15927e-15 5.66452)
(-9.03754 0 5.10959)
(-11.4291 -6.6574e-19 6.81905)
(-21.4906 0 16.3629)
(-15.589 -2.61892e-17 18.2029)
(-7.92948 0 -2.69697)
(-19.5426 4.03374e-16 -16.9781)
(-31.52 8.56088e-16 -11.9296)
(-39.6232 4.45594e-16 -11.0687)
(-41.7551 0 -7.5527)
(-38.6881 0 -3.42014)
(-36.757 -4.95964e-16 -1.90632)
(-34.7818 -5.01262e-16 -1.4044)
(-29.4656 5.01465e-16 -2.01554)
(-24.1783 9.95906e-16 -1.25234)
(-17.4534 9.8824e-16 0.927355)
(-10.6229 0 1.054)
(-7.17805 0 1.528)
(-3.59945 1.90586e-15 2.70808)
(1.31222 3.98091e-19 1.8247)
(3.81058 0 2.79481)
(5.77285 -8.57055e-16 4.08048)
(7.33598 -1.61644e-15 2.36213)
(5.69641 -1.51242e-15 2.22005)
(3.78789 0 4.74345)
(4.82044 -1.30946e-15 3.92226)
(5.88347 1.16996e-15 4.23014)
(7.19064 1.07038e-15 7.60767)
(7.92814 -6.18374e-18 7.05478)
(10.6493 0 9.96952)
(14.0131 9.14179e-18 12.0061)
(24.0254 0 19.5926)
(40.6621 1.06259e-15 32.0678)
(51.2232 0 62.1743)
(40.5447 0 65.9026)
(25.3934 0 32.4256)
(15.4537 5.09557e-16 7.49153)
(11.0937 0 1.6257)
(11.175 0 -0.106884)
(11.5488 0 -0.0929514)
(11.5691 0 0.0862692)
(13.3415 -1.27934e-16 -0.594149)
(14.5238 7.2214e-17 -0.572746)
(15.2953 0 -0.0322377)
(17.829 -1.92199e-16 -0.465342)
(18.4898 0 -0.772655)
(19.1689 0 0.035745)
(15.761 0 -1.26948)
(13.8117 1.74218e-18 -1.39235)
(12.8778 0 -2.12495)
(9.07822 1.92211e-15 -1.27945)
(8.82412 0 -2.02441)
(7.50654 0 -2.57382)
(5.61832 2.08126e-15 -2.16459)
(5.91181 0 -2.78594)
(4.85375 0 -2.89333)
(6.61886 -3.25127e-18 -3.39832)
(6.75522 -3.70392e-15 -4.04381)
(7.38325 0 -4.45865)
(7.94275 -2.15635e-18 -5.64163)
(5.41177 -6.49882e-15 -5.08598)
(5.38971 0 -4.30461)
(5.01091 -3.05678e-15 -2.84802)
(2.94482 0 -3.05083)
(3.81616 -2.808e-15 -4.12661)
(10.5879 -5.27465e-15 -7.26475)
(15.5567 0 -10.3004)
(28.39 -4.67479e-15 -13.5753)
(5.44288 -2.96172e-18 3.3655)
(-16.8987 0 25.1031)
(-156.762 0 105.645)
(-199.36 0 107.889)
(-182.116 7.16102e-15 64.5322)
(209.188 2.63091e-18 -138.576)
(116.669 0 -44.1346)
(-1.59241 -6.63012e-15 5.56847)
(-8.97875 -1.1781e-14 -2.62817)
(15.1486 0 -25.8855)
(180.719 0 -129.29)
(371.128 0 -228.475)
(424.469 9.30999e-18 -232.765)
(248.957 0 -112.681)
(40.167 0 -2.39214)
(-135.94 0 109.591)
(-274.548 0 167.44)
(-279.874 -9.18133e-15 156.809)
(-245.078 -8.86438e-15 130.064)
(-175.359 0 88.8875)
(-103.757 0 52.0276)
(-54.8174 0 24.0959)
(-2.62624 3.27677e-18 -2.99688)
(17.2779 0 -11.0392)
(5.36589 1.30306e-14 -2.34928)
(-21.6896 0 11.8419)
(-9.42563 1.05151e-14 0.31314)
(60.1801 0 -44.0463)
(123.948 8.85865e-15 -75.5851)
(100.285 0 -53.0988)
(11.028 0 -0.674412)
(-45.7072 0 27.7416)
(-47.7282 0 25.0797)
(-33.182 -1.18099e-14 16.4119)
(-20.3992 0 9.61529)
(-11.5278 -1.02208e-14 4.62275)
(-3.10806 -9.07208e-15 -0.0301727)
(3.23416 0 -3.36211)
(6.83863 0 -5.30256)
(4.02001 0 -3.42609)
(-1.3194 0 0.0254036)
(-12.734 -1.68567e-17 6.6446)
(-22.1148 0 12.4)
(-29.7554 4.37474e-15 16.9356)
(-34.6071 0 19.2967)
(-32.4897 7.54475e-16 18.1114)
(-30.7627 -8.39817e-16 16.9357)
(-26.3004 -1.47673e-15 14.2086)
(-21.3912 -1.84761e-15 11.507)
(-19.6474 0 10.4427)
(-15.4111 0 8.19724)
(-14.565 -1.00053e-14 7.96053)
(-14.4516 5.75236e-15 7.80382)
(-12.4534 5.86531e-15 7.1106)
(-15.4729 -5.39645e-15 9.20519)
(-22.6759 0 12.1884)
(-9.64986 4.21269e-16 12.9981)
(-9.38233 0 -4.31051)
(-22.2093 0 -12.2839)
(-33.5493 0 -10.7489)
(-40.0645 0 -8.44183)
(-41.5871 0 -5.99574)
(-39.8668 4.7133e-16 -2.02973)
(-39.8552 4.67947e-16 -1.42567)
(-37.0685 9.52411e-16 0.860328)
(-32.1643 -9.51166e-16 0.723086)
(-27.314 -9.39919e-16 0.125187)
(-21.2111 -9.32745e-16 1.51668)
(-15.0012 0 1.43272)
(-11.1445 0 1.75149)
(-7.70801 -1.80293e-15 2.92857)
(-3.34803 -1.76455e-15 1.02491)
(-0.706364 0 0.451759)
(1.37449 8.08999e-16 2.29896)
(2.43642 1.52577e-15 0.067638)
(1.5383 0 -0.93947)
(-0.498144 1.31706e-15 1.02597)
(0.476567 0 0.762927)
(1.74633 -5.73044e-19 -0.626633)
(3.3395 -9.96296e-16 2.79266)
(4.32192 -3.558e-18 2.6748)
(7.14533 0 4.70694)
(11.3924 6.91309e-16 8.13454)
(17.611 -1.20177e-15 9.47164)
(26.2978 -1.99893e-15 8.63134)
(19.046 -8.23907e-16 1.12739)
(14.1896 0 14.5598)
(14.354 -5.62486e-16 19.9826)
(13.8362 0 12.7251)
(10.9218 0 3.09218)
(10.871 0 -0.53274)
(10.8889 0 -1.82007)
(11.3219 0 -1.09009)
(13.9735 -7.644e-19 -0.200057)
(14.9501 -3.30586e-17 -0.780037)
(15.8059 0 -0.160622)
(18.2674 3.65191e-16 -0.698462)
(19.0893 0 -1.07819)
(19.5909 0 -0.54969)
(16.0975 0 -1.99531)
(14.3657 -1.36748e-15 -1.96401)
(13.5035 0 -2.83544)
(9.8429 0 -1.87733)
(9.50757 0 -2.65716)
(8.28296 0 -3.30998)
(6.5736 -3.91707e-15 -2.69754)
(6.8496 0 -3.48926)
(5.96538 0 -3.70466)
(7.94843 -1.80315e-15 -4.33648)
(8.24367 0 -5.39805)
(9.19436 0 -5.81757)
(9.93178 -6.4459e-15 -7.1391)
(7.49482 3.05512e-15 -6.47686)
(7.35554 0 -5.28923)
(6.45391 0 -3.6943)
(4.12825 0 -3.79492)
(5.21693 2.63502e-15 -5.44016)
(13.3338 0 -9.59643)
(19.7712 0 -13.6369)
(34.4732 8.78286e-15 -16.5278)
(8.29289 -8.87918e-15 3.86947)
(-15.475 0 31.6314)
(-177.085 0 124.183)
(-197.813 0 110.448)
(-265.91 -3.35889e-15 94.9096)
(221.876 3.35985e-15 -160.72)
(148.229 6.36765e-15 -52.773)
(4.65687 6.21978e-15 5.76256)
(-4.94985 5.52055e-15 -5.9369)
(32.6867 -4.75978e-15 -37.797)
(232.646 0 -171.642)
(447.225 0 -281.648)
(477.853 -4.49933e-15 -257.436)
(246.001 0 -94.3797)
(14.5801 0 26.8617)
(-175.006 0 135.01)
(-311.255 0 194.763)
(-305.774 0 170.564)
(-271.538 1.66063e-14 141.755)
(-201.305 0 99.0634)
(-122.499 7.70867e-15 59.1741)
(-66.3823 0 27.1857)
(-4.91269 4.0913e-18 -3.91046)
(20.1358 -1.28999e-14 -13.1067)
(7.45843 0 -2.55395)
(-20.9837 0 11.8408)
(-3.25611 0 -5.98923)
(77.82 0 -57.9769)
(145.177 -8.28981e-15 -88.9012)
(110.361 0 -55.6755)
(7.68844 0 4.99656)
(-53.3206 0 33.8464)
(-54.507 0 28.6726)
(-38.0215 0 18.5552)
(-23.367 0 10.757)
(-13.1257 0 5.12252)
(-3.63202 0 -0.0522337)
(3.0056 7.25118e-15 -3.43196)
(6.29309 0 -5.02234)
(2.04578 0 -2.11534)
(-5.21221 0 1.78406)
(-18.0224 -5.37041e-15 10.509)
(-28.8254 0 16.6735)
(-37.0584 -2.04119e-15 21.4666)
(-42.0959 0 23.6605)
(-39.4572 1.9246e-18 22.0583)
(-37.0458 0 20.4056)
(-32.0177 1.38067e-15 17.2998)
(-26.1781 0 14.1136)
(-24.3778 0 13.0284)
(-19.4649 0 10.4358)
(-18.6228 4.67137e-15 10.2537)
(-18.5541 -1.07408e-14 10.1295)
(-16.2932 -1.095e-14 9.34603)
(-19.7169 -5.03545e-15 11.711)
(-19.4308 0 6.5912)
(-14.5887 -4.35463e-16 5.62337)
(-17.986 0 -7.71219)
(-26.5383 0 -9.05722)
(-35.7489 -4.43539e-16 -9.0183)
(-40.2861 -4.48823e-16 -8.92934)
(-41.627 4.53258e-16 -6.39491)
(-41.7068 -1.35694e-15 -3.75983)
(-40.7511 0 -1.51868)
(-38.0596 6.35944e-18 1.23211)
(-34.8272 4.50332e-16 1.40708)
(-30.414 0 0.840181)
(-25.1109 0 1.61397)
(-19.183 0 2.01547)
(-14.8241 0 2.69171)
(-12.2142 -1.54753e-18 3.54249)
(-8.31169 -1.4916e-18 1.69668)
(-4.8703 8.00947e-16 0.278475)
(-3.03078 7.59779e-16 1.83891)
(-2.80936 0 -0.757396)
(-3.14406 -1.34344e-15 -2.78905)
(-5.39094 -1.24132e-15 -2.38855)
(-4.72355 0 -2.41179)
(-3.32225 1.04925e-18 -4.86012)
(-2.40967 1.74566e-18 -3.92967)
(-1.26464 -8.30588e-16 -3.63799)
(1.1747 0 -4.27133)
(6.55895 0 0.947118)
(10.8898 1.13231e-15 0.336134)
(17.9106 7.41646e-19 0.224351)
(9.20546 1.55162e-15 -11.1946)
(1.965 0 -9.15863)
(5.42128 1.05651e-15 -0.886738)
(11.1405 0 8.36187)
(9.85805 0 5.94349)
(10.5603 -2.65421e-16 0.908273)
(10.4056 0 -2.34687)
(10.8428 -2.65419e-16 -2.70493)
(14.2514 9.53192e-20 -0.340309)
(15.0464 2.79637e-17 -1.16464)
(15.9151 0 -0.773583)
(18.46 2.75811e-18 -1.15376)
(19.542 0 -1.41415)
(19.784 0 -1.32258)
(16.3282 0 -2.80764)
(14.7535 0 -2.76665)
(14.0383 0 -3.68129)
(10.4902 -1.7165e-15 -2.70409)
(10.1156 0 -3.44363)
(9.05663 0 -4.16695)
(7.56801 1.84103e-15 -3.32631)
(7.85979 0 -4.23199)
(7.16661 1.75231e-15 -4.55889)
(9.33029 1.68711e-15 -5.32262)
(9.7683 -3.26434e-15 -6.77055)
(10.9845 0 -7.21395)
(11.8702 3.02691e-15 -8.64937)
(9.56051 2.86486e-15 -7.89947)
(9.35736 0 -6.39705)
(7.73577 0 -5.09182)
(5.46684 0 -4.56018)
(6.87117 -2.47412e-15 -6.96044)
(16.4414 0 -12.3043)
(24.3953 0 -17.4247)
(40.682 -4.12176e-15 -19.5451)
(11.8912 8.32356e-15 4.36351)
(-12.9778 0 38.9418)
(-191.234 0 141.086)
(-180.909 0 106.056)
(-361.843 0 130.881)
(220.261 3.14432e-15 -181.292)
(180.427 -5.97017e-15 -60.9628)
(13.5198 0 5.82716)
(1.79798 0 -10.7179)
(44.2818 4.46086e-15 -72.8424)
(285.881 0 -218.969)
(516.509 4.07949e-15 -330.479)
(510.684 -4.24024e-15 -266.842)
(222.661 0 -59.1809)
(-13.2959 0 59.8036)
(-203.355 0 165.322)
(-337.95 0 215.24)
(-322.173 0 178.273)
(-289.932 -7.77367e-15 148.555)
(-222.613 0 106.087)
(-140.107 -1.44309e-14 65.0684)
(-78.6025 0 29.9176)
(-8.64244 4.95882e-18 -4.59305)
(22.0781 -2.01823e-18 -14.847)
(9.9837 0 -2.9511)
(-18.2315 -1.02841e-14 10.5101)
(6.2418 0 -11.9159)
(95.028 0 -72.1713)
(162.589 1.55044e-14 -99.8279)
(116.379 0 -55.0254)
(3.57495 0 11.9065)
(-59.8386 0 39.357)
(-60.2833 0 31.5421)
(-42.3083 0 20.1726)
(-26.0757 0 11.6423)
(-14.7786 0 5.56315)
(-4.55851 0 0.112468)
(1.96803 -6.77438e-15 -3.12323)
(4.6628 0 -4.071)
(-1.06829 0 -0.0101351)
(-9.63176 0 5.11289)
(-24.0127 5.00538e-15 14.6742)
(-35.854 3.25748e-15 21.1776)
(-44.5007 1.89945e-15 26.0586)
(-49.5135 -7.90199e-16 27.9531)
(-46.4978 1.75833e-18 25.99)
(-43.4047 -7.33003e-16 23.8427)
(-37.9678 -2.57896e-15 20.4556)
(-31.2688 0 16.839)
(-29.4428 3.30319e-15 15.7676)
(-23.9144 4.43536e-15 12.8739)
(-23.0659 0 12.7595)
(-22.9717 5.01335e-15 12.6332)
(-20.5451 5.11027e-15 11.8196)
(-24.0886 4.70008e-15 14.2992)
(-21.9809 0 -4.3009)
(-23.4119 2.13351e-16 -5.26838)
(-24.5041 0 -8.30425)
(-29.7051 0 -9.77932)
(-35.8876 4.17665e-16 -9.06965)
(-38.8282 4.22556e-16 -9.93715)
(-39.6981 -4.26653e-16 -7.29837)
(-39.7845 1.30166e-15 -4.04293)
(-37.6709 0 -0.0766305)
(-36.8548 4.4413e-16 1.63245)
(-35.0655 -8.69334e-16 1.89887)
(-31.3819 0 1.71239)
(-27.0834 8.48773e-16 2.39441)
(-21.4858 0 3.87092)
(-17.6777 8.21194e-16 4.61588)
(-16.2226 8.01979e-16 4.85064)
(-12.1735 7.84713e-16 4.32864)
(-7.76592 -7.53912e-16 3.40245)
(-6.71876 -1.42827e-15 3.94347)
(-6.93162 0 1.92038)
(-6.79535 1.26457e-15 -0.598647)
(-8.73119 0 -0.99057)
(-8.33948 0 -1.11551)
(-6.64596 -9.79941e-16 -3.38568)
(-6.14332 1.7641e-15 -4.79122)
(-5.33108 0 -5.06855)
(-2.84787 0 -7.7524)
(2.1425 0 -4.03613)
(5.60748 -1.0629e-15 -5.07465)
(11.6831 8.82726e-16 -5.26354)
(6.36351 3.93764e-18 -11.2932)
(1.56416 5.87594e-16 -9.38007)
(4.64931 -9.91752e-16 -3.20767)
(6.69559 3.82815e-16 -1.31099)
(8.44062 -3.131e-16 3.73212)
(9.2057 4.27128e-18 1.49269)
(10.4831 0 -0.335057)
(11.0478 2.49632e-16 -2.36666)
(14.0052 1.07364e-16 -1.26965)
(14.7308 -2.6295e-17 -1.8436)
(15.7338 0 -1.54768)
(18.4849 -1.65482e-16 -1.74726)
(19.9231 -3.00456e-16 -1.61609)
(19.8763 -3.98772e-16 -1.9858)
(16.6117 -5.41007e-16 -3.34901)
(15.093 0 -3.51199)
(14.5688 0 -4.4421)
(11.0753 -4.07907e-18 -3.59539)
(10.7034 0 -4.23647)
(9.85755 0 -5.02717)
(8.59604 1.72557e-15 -3.98689)
(8.90839 -1.71095e-15 -4.97527)
(8.40534 -1.64573e-15 -5.41965)
(10.6979 -4.40276e-18 -6.3207)
(11.2561 5.31045e-18 -8.11451)
(12.6797 0 -8.59015)
(13.6828 0 -10.128)
(11.5838 -5.37376e-15 -9.24636)
(11.3397 0 -7.43326)
(9.06795 0 -6.71615)
(7.06493 2.45262e-15 -5.54732)
(8.89524 0 -8.68797)
(19.9677 0 -15.4364)
(29.4051 -4.23536e-15 -21.6685)
(46.9537 3.86674e-15 -22.5982)
(16.0207 -7.79477e-15 4.9785)
(-9.97072 0 47.3799)
(-200.275 3.55825e-15 155.863)
(-155.365 0 100.211)
(-452.597 0 164.173)
(206.941 -5.89033e-15 -202.959)
(212.426 0 -68.8211)
(24.8674 0 5.94361)
(9.30072 0 -17.5958)
(65.9934 0 -103.186)
(341.439 0 -269.604)
(575.79 -3.82001e-15 -373.02)
(521.291 -1.51788e-17 -259.139)
(180.638 4.15838e-15 -13.8036)
(-37.1162 -3.95068e-15 90.0983)
(-224.151 0 187.399)
(-355.748 0 230.382)
(-332.735 0 182.4)
(-302.13 0 151.792)
(-239.657 0 110.367)
(-156.612 -3.25118e-18 69.8463)
(-91.9424 0 32.5456)
(-14.2715 6.10647e-15 -4.81825)
(22.8198 -2.18571e-18 -16.1236)
(12.9434 0 -3.58873)
(-13.2435 9.61545e-15 7.86934)
(13.997 0 -25.0878)
(110.769 -8.06152e-15 -86.175)
(175.992 3.07466e-18 -108.194)
(118.944 0 -51.5762)
(-0.797399 0 19.4845)
(-65.1702 0 44.3661)
(-65.1904 0 33.818)
(-46.142 -9.63264e-15 21.3885)
(-28.6281 0 12.3543)
(-16.6111 0 6.02063)
(-6.00627 -7.39107e-15 0.515296)
(0.172651 0 -2.266)
(2.00704 5.46086e-15 -2.51652)
(-5.15415 -4.17499e-15 2.49413)
(-14.5278 0 9.39197)
(-30.4552 -9.34513e-15 19.0678)
(-42.9887 -3.93147e-18 25.7628)
(-51.9742 -3.54376e-15 30.7127)
(-56.8794 7.37821e-16 32.1957)
(-53.6973 -3.11344e-16 29.9875)
(-49.9524 6.84353e-16 27.3581)
(-44.2584 1.20419e-15 23.7639)
(-36.7553 1.50442e-15 19.7614)
(-34.8916 -3.08358e-15 18.6959)
(-28.7794 -4.14034e-15 15.523)
(-27.8991 -4.0766e-15 15.474)
(-27.6389 -4.67934e-15 15.2627)
(-25.1706 0 14.4952)
(-28.5074 0 16.9137)
(-25.1201 0 -6.20195)
(-22.9523 2.33456e-16 -7.2527)
(-24.9584 0 -6.41457)
(-30.476 0 -8.08828)
(-33.9579 0 -9.05036)
(-35.7361 0 -8.96903)
(-36.5254 4.29834e-16 -6.54492)
(-35.6078 -4.16094e-16 -2.5955)
(-34.4646 4.22072e-16 0.153974)
(-35.1373 -8.22789e-16 1.01795)
(-33.4162 8.17236e-16 1.85463)
(-30.3225 0 1.64552)
(-26.6104 -7.97873e-16 2.46381)
(-22.1682 0 4.63482)
(-20.1735 -7.71976e-16 5.20906)
(-19.4697 -7.58137e-16 5.32175)
(-15.1478 0 6.20163)
(-10.6704 0 6.24936)
(-10.7343 6.70429e-16 5.83324)
(-11.0115 0 5.06654)
(-10.3518 0 2.90661)
(-11.2982 -1.09645e-15 2.85854)
(-10.5708 0 3.60056)
(-8.54478 0 2.31718)
(-7.39006 -8.29253e-16 1.20426)
(-7.13032 0 -0.206037)
(-3.46504 0 -2.48042)
(0.222839 0 -2.51096)
(3.92639 1.99663e-15 -2.61891)
(8.86253 0 -4.41127)
(6.92774 3.59299e-18 -6.22035)
(4.29585 4.02741e-18 -4.22927)
(6.61137 4.66378e-16 1.3662)
(6.14294 -3.59773e-16 -0.171004)
(5.50528 5.86669e-16 -0.131803)
(7.06745 2.30596e-16 -0.870257)
(10.0181 0 0.542941)
(14.2871 0 4.99919)
(13.9709 9.99641e-17 -0.513929)
(14.3251 -2.26019e-17 -2.35131)
(15.5843 0 -1.955)
(18.3785 0 -2.34091)
(20.2348 -2.31771e-18 -1.65396)
(19.8928 3.74509e-16 -2.45706)
(16.9504 5.08047e-16 -3.54043)
(15.4638 1.14118e-15 -3.93948)
(15.0948 0 -5.01315)
(11.6219 -3.44973e-18 -4.41532)
(11.2809 0 -4.9448)
(10.6785 0 -5.81043)
(9.61814 -1.61959e-15 -4.64761)
(9.93619 1.60571e-15 -5.70637)
(9.6107 0 -6.27189)
(11.9784 -1.48246e-15 -7.30275)
(12.6295 5.79134e-18 -9.39961)
(14.2081 0 -9.90408)
(15.3034 0 -11.5526)
(13.5236 5.03072e-15 -10.5193)
(13.4487 0 -8.30797)
(10.9969 0 -7.65431)
(8.86601 -4.59689e-15 -6.84837)
(11.3617 0 -10.7088)
(23.9354 0 -19.0289)
(34.7336 7.93405e-15 -26.3299)
(53.1734 -3.62399e-15 -25.6094)
(20.3821 3.64963e-15 5.92106)
(-7.26625 0 57.2285)
(-204.852 -3.33386e-15 165.806)
(-126.227 0 98.5915)
(-510.969 2.75615e-15 180.25)
(187.217 2.7571e-15 -228.905)
(243.914 0 -76.6757)
(38.286 0 6.31172)
(21.6044 -4.497e-15 -26.6049)
(103.37 -3.89147e-15 -119.281)
(394.241 0 -321.834)
(622.414 0 -406.745)
(509.096 7.47402e-15 -233.279)
(126.204 -3.89134e-15 36.3372)
(-50.2116 7.40602e-15 113.611)
(-232.781 0 205.303)
(-367.827 0 241.742)
(-341.084 0 185.008)
(-310.246 0 152.667)
(-252.894 0 112.293)
(-171.742 -3.63978e-18 73.4967)
(-106.7 0 35.2606)
(-22.2947 0 -4.38734)
(21.7956 -2.15e-18 -17.1313)
(16.165 0 -4.521)
(-6.85914 8.98924e-15 4.01295)
(24.1876 0 -36.7182)
(125.095 7.53401e-15 -99.5324)
(185.433 3.1982e-18 -113.871)
(118.777 0 -45.7831)
(-4.87383 0 27.4748)
(-69.4428 0 48.8208)
(-69.3674 0 35.6406)
(-49.6555 1.95891e-18 22.2894)
(-31.171 -8.52562e-15 12.9011)
(-18.7063 7.78611e-15 6.56038)
(-7.99784 6.90317e-15 1.21571)
(-2.47386 0 -1.1539)
(-1.47493 -5.09981e-15 -0.403565)
(-9.67831 3.89875e-15 5.75246)
(-20.3233 0 13.0466)
(-36.9329 4.36133e-15 23.5132)
(-49.9851 -5.66913e-15 30.3265)
(-59.4143 1.65269e-15 35.354)
(-64.2223 0 36.4045)
(-61.163 2.9386e-16 34.097)
(-56.8285 0 30.9995)
(-51.0117 0 27.2766)
(-42.7366 -1.40434e-15 22.9142)
(-40.7704 0 21.8296)
(-34.0618 0 18.3794)
(-33.1074 3.80505e-15 18.3833)
(-32.465 4.36752e-15 17.9738)
(-30.0806 4.44717e-15 17.321)
(-32.8751 -4.08933e-15 19.4925)
(-24.0828 0 -4.58022)
(-24.0604 -2.19416e-16 -5.85808)
(-27.8952 -4.47843e-16 -7.73701)
(-31.2406 0 -7.42326)
(-32.8606 0 -9.07258)
(-33.482 0 -8.54217)
(-33.8833 -4.03917e-16 -5.7648)
(-32.9373 0 -2.42687)
(-33.264 -3.96533e-16 -1.98677)
(-33.1228 0 -0.888787)
(-30.696 0 1.06495)
(-27.7067 7.7784e-16 1.12181)
(-24.0187 0 1.85156)
(-21.387 7.48342e-16 3.61456)
(-21.3915 -7.31988e-16 4.08223)
(-20.9996 7.11988e-16 4.63894)
(-17.0833 0 6.07251)
(-13.9571 -6.60577e-16 6.37584)
(-15.1222 0 5.61425)
(-15.7352 -1.18229e-15 5.67854)
(-14.828 0 4.41565)
(-14.8201 1.02981e-15 4.83613)
(-13.5793 -9.48558e-16 6.90723)
(-11.1134 0 6.94508)
(-8.70711 0 8.19915)
(-8.47801 6.8792e-16 6.8112)
(-3.41101 0 6.5396)
(-0.630935 0 3.61798)
(3.96446 -3.41366e-18 4.58131)