/*--------------------------------*- C++ -*----------------------------------*\
| =========                 |                                                 |
| \\      /  F ield         | OpenFOAM: The Open Source CFD Toolbox           |
|  \\    /   O peration     | Version:  2412                                  |
|   \\  /    A nd           | Website:  www.openfoam.com                      |
|    \\/     M anipulation  |                                                 |
\*---------------------------------------------------------------------------*/
FoamFile
{
    version     2.0;
    format      ascii;
    arch        "LSB;label=32;scalar=64";
    class       volVectorField;
    location    "0.035";
    object      ddt0(U);
}
// * * * * * * * * * * * * * * * * * * * * * * * * * * * * * * * * * * * * * //

dimensions      [0 1 -2 0 0 0 0];

internalField   nonuniform List<vector> 
12600
(
(10.9104 -1.28072e-19 -0.496413)
(11.3093 -5.20142e-19 -1.32512)
(9.98124 -8.86958e-19 -1.43645)
(9.39095 0 -1.4132)
(9.15593 -9.48484e-19 -1.34499)
(8.82678 -7.71205e-19 -1.30876)
(8.30928 0 -1.32074)
(7.69231 0 -1.35692)
(7.18076 2.04229e-18 -1.37755)
(6.90895 0 -1.36762)
(6.86764 -1.49065e-18 -1.32272)
(6.93658 -1.5536e-18 -1.26546)
(6.95813 1.42139e-18 -1.21853)
(6.84998 0 -1.20019)
(6.64383 1.00862e-18 -1.20897)
(6.43394 0 -1.22255)
(6.28692 -3.78676e-18 -1.21281)
(6.27173 0 -1.20225)
(6.34556 2.10971e-18 -1.18533)
(6.35031 2.0021e-18 -1.1444)
(6.39805 -1.92427e-18 -1.16034)
(6.39598 -2.90415e-22 -1.16087)
(6.23227 0 -1.13049)
(6.32495 2.74504e-18 -1.19364)
(6.25744 0 -1.14263)
(6.19152 0 -1.13822)
(6.40161 1.54312e-18 -1.17452)
(6.20147 0 -1.09632)
(6.31321 -7.90084e-21 -1.15141)
(6.27874 6.4182e-19 -1.10581)
(6.17577 3.14978e-19 -1.12346)
(6.19304 1.72541e-18 -1.11568)
(6.01192 -1.35762e-18 -1.13171)
(6.02499 -3.16999e-18 -1.15599)
(5.85606 -1.9607e-18 -1.1452)
(5.99092 1.06989e-19 -1.18963)
(5.98274 0 -1.14991)
(6.14773 2.33023e-18 -1.18812)
(6.24232 0 -1.14654)
(6.35005 -2.47582e-18 -1.17901)
(6.45682 0 -1.13039)
(6.46765 -2.30413e-20 -1.12692)
(6.52994 0 -1.13238)
(6.48759 -1.19542e-20 -1.16909)
(6.48108 6.25322e-18 -1.15325)
(6.41156 -4.36032e-18 -1.18435)
(6.4399 7.75209e-18 -1.17804)
(6.43897 0 -1.19302)
(6.45612 0 -1.19521)
(6.43889 5.76944e-18 -1.21415)
(6.42293 1.36058e-17 -1.20989)
(6.38808 8.64616e-18 -1.22546)
(6.45953 1.97841e-21 -1.22185)
(6.44618 8.38383e-18 -1.21602)
(6.44931 0 -1.22056)
(6.52526 -9.56563e-18 -1.2172)
(6.48435 -1.23345e-17 -1.20526)
(6.46185 -9.83918e-18 -1.22874)
(6.57153 0 -1.20177)
(6.45536 0 -1.19974)
(6.4756 0 -1.21955)
(6.54973 3.65342e-17 -1.17373)
(6.36096 0 -1.19778)
(6.43777 0 -1.20204)
(6.42051 -9.15431e-17 -1.15291)
(6.24893 0 -1.20127)
(6.36374 0 -1.15538)
(6.22688 0 -1.15075)
(6.17032 8.89068e-17 -1.17068)
(6.17102 -9.76542e-17 -1.12048)
(6.01884 -9.07552e-17 -1.15124)
(6.03447 4.74956e-20 -1.10707)
(5.86862 9.66045e-17 -1.10873)
(5.84765 0 -1.09562)
(5.75905 -1.0257e-16 -1.05828)
(5.59927 0 -1.07654)
(5.60825 0 -1.0215)
(5.42903 0 -1.03287)
(5.37138 6.7785e-20 -0.992513)
(5.25283 -1.88087e-16 -0.981932)
(5.12318 -1.90369e-16 -0.956062)
(5.01353 1.87192e-16 -0.927768)
(4.85192 1.88747e-16 -0.915673)
(4.74157 0 -0.866758)
(4.5674 0 -0.857105)
(4.41568 -3.69671e-16 -0.80955)
(4.24421 7.36831e-16 -0.789931)
(4.04952 -7.32859e-16 -0.745866)
(3.861 -3.56217e-16 -0.717736)
(3.65996 0 -0.673379)
(3.43997 6.89912e-16 -0.633445)
(3.22546 -3.43045e-16 -0.588214)
(2.97529 3.36239e-16 -0.5449)
(2.72584 -6.53927e-16 -0.4949)
(2.46877 0 -0.441022)
(2.16763 0 -0.392192)
(1.86886 0 -0.326423)
(1.56899 0 -0.270221)
(1.25579 0 -0.214348)
(0.90389 0 -0.143466)
(0.542865 5.73325e-16 -0.071528)
(0.109712 1.08875e-15 0.00255222)
(-0.260191 1.07896e-15 0.0826417)
(-0.769146 0 0.175721)
(-1.15608 0 0.251822)
(-1.75543 0 0.368207)
(-2.14552 9.50128e-16 0.44511)
(-2.8507 1.84704e-15 0.578599)
(-3.3112 -8.90849e-16 0.66665)
(-4.04267 0 0.810788)
(-4.68072 1.67344e-15 0.928827)
(-5.38809 0 1.06757)
(-6.07287 1.5686e-15 1.20116)
(-6.92033 -1.50619e-15 1.35917)
(-7.75712 1.44916e-15 1.52566)
(-8.84786 1.4168e-15 1.73101)
(-10.068 -1.33467e-15 1.96424)
(-10.8554 -4.71504e-20 2.12226)
(-12.347 -1.26264e-15 2.37858)
(-17.3357 0 3.36264)
(28.1067 1.3011e-19 -2.00859)
(26.2516 0 -3.38919)
(25.2136 9.00043e-19 -3.56331)
(24.0613 0 -3.55437)
(23.2677 9.62582e-19 -3.45996)
(22.449 1.39944e-18 -3.46801)
(21.6236 5.30617e-19 -3.59627)
(20.8432 0 -3.7725)
(20.2265 9.63762e-20 -3.87861)
(19.8199 1.43346e-18 -3.87886)
(19.582 -1.6428e-18 -3.7815)
(19.4141 -1.65956e-18 -3.65568)
(19.2123 1.48748e-18 -3.55691)
(18.9376 -1.24409e-18 -3.51724)
(18.6379 -2.08238e-18 -3.53177)
(18.3917 0 -3.55468)
(18.2171 -7.157e-20 -3.5262)
(18.1501 -2.17072e-18 -3.48888)
(18.1617 -2.14088e-18 -3.45319)
(18.0876 0 -3.36383)
(18.0605 0 -3.38093)
(18.0328 -1.55899e-18 -3.39966)
(17.8413 0 -3.32577)
(17.9196 -1.39817e-18 -3.44698)
(17.8629 1.74974e-18 -3.37832)
(17.7606 0 -3.33245)
(17.9474 -1.63234e-18 -3.43753)
(17.7187 0 -3.28039)
(17.7727 1.14423e-18 -3.36474)
(17.7065 -1.32595e-18 -3.31026)
(17.5726 -6.62597e-19 -3.30221)
(17.5897 -1.7466e-18 -3.31676)
(17.4431 1.3739e-18 -3.3286)
(17.5243 6.36864e-18 -3.39826)
(17.4359 3.94896e-18 -3.37487)
(17.6426 0 -3.46489)
(17.6998 0 -3.39964)
(17.9101 5.80675e-20 -3.45599)
(18.0564 0 -3.39488)
(18.2125 2.49952e-18 -3.44583)
(18.3715 0 -3.404)
(18.4131 1.78347e-18 -3.41323)
(18.5022 0 -3.43321)
(18.4879 -2.23043e-18 -3.48511)
(18.5082 0 -3.46858)
(18.4432 4.39067e-18 -3.49884)
(18.4907 0 -3.51595)
(18.5245 0 -3.5273)
(18.5682 -7.86116e-18 -3.53652)
(18.5782 0 -3.56724)
(18.5698 0 -3.56168)
(18.55 0 -3.58248)
(18.6394 -1.07276e-17 -3.58317)
(18.613 -1.68207e-17 -3.57378)
(18.6219 0 -3.57652)
(18.7074 0 -3.58072)
(18.6412 1.23822e-17 -3.55972)
(18.6173 9.83876e-18 -3.58714)
(18.7206 0 -3.55581)
(18.5339 0 -3.53718)
(18.5301 0 -3.55722)
(18.557 0 -3.49614)
(18.2684 3.59258e-17 -3.50382)
(18.3144 -3.57756e-17 -3.50845)
(18.209 9.11382e-17 -3.43149)
(17.9357 0 -3.47168)
(17.9904 0 -3.40698)
(17.7218 0 -3.3775)
(17.5618 5.90692e-20 -3.38454)
(17.4443 9.67202e-17 -3.30185)
(17.1302 8.98052e-17 -3.31288)
(17.0125 -1.91437e-16 -3.23572)
(16.6591 2.99179e-20 -3.20144)
(16.4603 8.85417e-17 -3.16054)
(16.1827 1.0111e-16 -3.07804)
(15.8028 0 -3.06381)
(15.6211 0 -2.96493)
(15.2174 0 -2.93929)
(14.9314 -1.87627e-16 -2.85016)
(14.5735 0 -2.79659)
(14.1722 0 -2.71773)
(13.7866 -1.83208e-16 -2.63591)
(13.3261 -1.84532e-16 -2.56944)
(12.8979 0 -2.45499)
(12.3908 0 -2.38555)
(11.8844 0 -2.26642)
(11.343 -7.1744e-16 -2.17898)
(10.7429 -7.54629e-20 -2.05535)
(10.1429 -3.46126e-16 -1.95011)
(9.50566 3.45615e-16 -1.82093)
(8.80641 -6.68755e-16 -1.68914)
(8.11279 -3.32224e-16 -1.552)
(7.34245 -6.50381e-16 -1.40861)
(6.53776 0 -1.25271)
(5.71943 0 -1.08995)
(4.79112 0 -0.921764)
(3.83063 0 -0.727673)
(2.88663 -5.80832e-16 -0.5496)
(1.90995 0 -0.366057)
(0.797881 0 -0.147973)
(-0.339893 5.49865e-16 0.0734651)
(-1.66231 -5.21503e-16 0.317684)
(-2.85904 -2.06524e-15 0.557334)
(-4.41869 9.87541e-16 0.852884)
(-5.6533 0 1.09123)
(-7.52959 0 1.45409)
(-8.73943 0 1.68854)
(-10.9707 -8.79705e-16 2.11518)
(-12.3136 8.4782e-16 2.37592)
(-14.7154 0 2.83598)
(-16.5281 -3.17991e-15 3.19056)
(-18.8395 -1.53242e-15 3.62307)
(-21.0074 -2.97592e-15 4.05562)
(-23.3694 0 4.50139)
(-26.3334 0 5.07429)
(-29.2245 1.34101e-15 5.64721)
(-33.1253 0 6.37084)
(-35.681 1.2362e-15 6.88901)
(-39.7405 1.1927e-15 7.69654)
(-54.0874 0 10.4613)
(39.502 0 -4.11236)
(37.4447 0 -4.45339)
(36.9568 9.06353e-19 -4.68449)
(35.928 0 -4.83221)
(35.1327 0 -4.95949)
(34.1881 -7.1646e-19 -5.17275)
(33.2303 -5.03079e-19 -5.43579)
(32.3476 0 -5.67553)
(31.6681 1.49594e-19 -5.79986)
(31.2158 -1.35901e-18 -5.8026)
(30.9311 3.24019e-18 -5.71957)
(30.7041 1.57332e-18 -5.6252)
(30.4356 7.03819e-20 -5.56417)
(30.0939 1.17939e-18 -5.54196)
(29.7379 1.00347e-18 -5.54684)
(29.4572 -1.00015e-18 -5.54906)
(29.2576 1.90237e-18 -5.50519)
(29.1645 2.05765e-18 -5.45124)
(29.1642 0 -5.43472)
(29.0713 0 -5.37279)
(29.0205 -1.84759e-18 -5.37863)
(28.9958 -1.49397e-18 -5.43823)
(28.7894 0 -5.36429)
(28.8656 0 -5.45336)
(28.8295 -1.6582e-18 -5.46207)
(28.7295 0 -5.35806)
(28.9414 3.15169e-18 -5.50189)
(28.7469 -7.10547e-19 -5.38147)
(28.8308 0 -5.40599)
(28.7988 6.4039e-19 -5.44338)
(28.7066 3.25619e-19 -5.36979)
(28.7369 0 -5.44754)
(28.614 -1.3073e-18 -5.42289)
(28.7089 -2.99495e-18 -5.51377)
(28.6386 -4.15064e-20 -5.4832)
(28.8754 0 -5.55382)
(28.9641 0 -5.52578)
(29.2242 -2.28452e-18 -5.536)
(29.4082 0 -5.53021)
(29.6215 0 -5.54025)
(29.8204 0 -5.59694)
(29.918 0 -5.61451)
(30.0569 0 -5.66399)
(30.1011 0 -5.67774)
(30.1614 0 -5.69776)
(30.1415 -4.13926e-18 -5.67533)
(30.2136 7.42868e-18 -5.75723)
(30.2907 0 -5.73247)
(30.3577 7.43755e-18 -5.76286)
(30.3931 0 -5.77755)
(30.3898 0 -5.77635)
(30.3732 -8.1676e-18 -5.78305)
(30.4676 0 -5.79937)
(30.4455 7.95743e-18 -5.78528)
(30.4503 -9.3994e-18 -5.78882)
(30.5254 0 -5.80677)
(30.4516 -1.1704e-17 -5.78157)
(30.4075 0 -5.78769)
(30.4762 0 -5.78645)
(30.2598 0 -5.73501)
(30.2035 -2.77824e-17 -5.7389)
(30.1601 -3.45125e-17 -5.71051)
(29.8169 3.97432e-20 -5.65372)
(29.778 6.75346e-17 -5.65903)
(29.5819 3.16614e-20 -5.59857)
(29.243 0 -5.55765)
(29.175 0 -5.5294)
(28.8042 8.48403e-17 -5.45832)
(28.5321 -2.63546e-21 -5.41952)
(28.2585 0 -5.34938)
(27.8095 0 -5.28309)
(27.5206 9.02917e-17 -5.21172)
(26.9862 2.96067e-20 -5.1149)
(26.5944 -1.01648e-20 -5.04271)
(26.1085 0 -4.93646)
(25.5121 0 -4.84118)
(25.1056 1.84084e-16 -4.74345)
(24.4823 -1.70887e-16 -4.63958)
(23.9415 0 -4.52274)
(23.3341 0 -4.41012)
(22.6419 0 -4.27701)
(21.9622 0 -4.14147)
(21.187 0 -4.0006)
(20.4135 0 -3.83945)
(19.5625 0 -3.68334)
(18.6708 0 -3.50634)
(17.7422 6.74699e-16 -3.33072)
(16.709 3.35046e-16 -3.13154)
(15.6753 3.25312e-16 -2.93395)
(14.5727 -3.24765e-16 -2.72088)
(13.3692 6.2836e-16 -2.48752)
(12.1673 3.12055e-16 -2.25591)
(10.8479 3.05409e-16 -2.00188)
(9.45727 0 -1.73414)
(8.04506 0 -1.45975)
(6.4597 0 -1.15602)
(4.80053 0 -0.834271)
(3.1802 5.44914e-16 -0.526161)
(1.50201 0 -0.202315)
(-0.40829 0 0.168956)
(-2.35817 -5.15566e-16 0.545551)
(-4.60432 0 0.97538)
(-6.67025 9.6789e-16 1.37645)
(-9.31618 -9.25434e-16 1.88561)
(-11.4308 0 2.29404)
(-14.6408 0 2.91376)
(-16.6656 0 3.3046)
(-20.5277 -8.23893e-16 4.04843)
(-22.6615 0 4.4634)
(-26.9051 7.74424e-16 5.2737)
(-29.7349 -3.38585e-20 5.83635)
(-33.7816 1.43418e-15 6.58543)
(-37.4615 2.78482e-15 7.32854)
(-41.0984 0 8.01102)
(-46.5399 -1.28413e-15 9.06891)
(-50.6691 -1.25435e-15 9.89956)
(-57.4162 -1.18067e-15 11.1376)
(-61.726 0 12.023)
(-67.7552 -1.11521e-15 13.3077)
(-90.7296 0 17.6473)
(47.9492 0 -5.28658)
(46.3739 0 -5.43488)
(46.2561 -8.57763e-19 -5.68911)
(45.5221 0 -5.90705)
(44.8715 6.58997e-19 -6.21404)
(44.0006 -1.11744e-18 -6.59499)
(43.1116 0 -6.98667)
(42.3092 1.10736e-18 -7.29085)
(41.7169 -1.17226e-18 -7.45451)
(41.3406 -1.61394e-18 -7.48496)
(41.1054 -1.59237e-18 -7.43904)
(40.9012 1.68984e-18 -7.38748)
(40.6431 -1.40097e-18 -7.37177)
(40.3119 2.53534e-18 -7.38137)
(39.9712 0 -7.39626)
(39.7161 1.97069e-18 -7.39888)
(39.5425 0 -7.36195)
(39.462 0 -7.30557)
(39.4801 0 -7.30401)
(39.406 -1.80308e-18 -7.27925)
(39.3618 1.75247e-20 -7.27966)
(39.3683 -1.14351e-20 -7.37177)
(39.1852 -1.17833e-18 -7.32761)
(39.2788 0 -7.37857)
(39.2904 0 -7.46143)
(39.2169 0 -7.33304)
(39.4628 -3.08597e-18 -7.48416)
(39.3237 9.39866e-21 -7.42948)
(39.4436 0 -7.39702)
(39.457 0 -7.51674)
(39.4175 0 -7.40374)
(39.4728 0 -7.53061)
(39.3905 2.45672e-18 -7.48938)
(39.5135 0 -7.59488)
(39.4786 -1.72156e-18 -7.57264)
(39.7545 0 -7.61851)
(39.8845 0 -7.63365)
(40.1975 2.23457e-18 -7.60112)
(40.4213 0 -7.6567)
(40.6949 0 -7.61731)
(40.942 1.15437e-19 -7.7326)
(41.1089 1.58932e-18 -7.71395)
(41.2961 0 -7.80806)
(41.4002 -2.01585e-18 -7.80046)
(41.5042 0 -7.85948)
(41.5317 7.84188e-18 -7.79774)
(41.6305 -7.97808e-21 -7.95488)
(41.755 0 -7.8943)
(41.847 0 -7.95134)
(41.9142 -5.17226e-18 -7.9509)
(41.9213 -1.22174e-17 -7.96068)
(41.91 1.54407e-17 -7.95581)
(42.0094 0 -7.98257)
(41.9915 7.57083e-18 -7.96587)
(41.9914 8.8728e-18 -7.97345)
(42.0573 8.55651e-18 -7.98898)
(41.9732 1.10871e-17 -7.96908)
(41.9068 0 -7.95851)
(41.9416 0 -7.96195)
(41.6882 2.4487e-17 -7.89756)
(41.5757 5.23891e-17 -7.88487)
(41.4633 3.25513e-17 -7.85589)
(41.0528 4.13422e-20 -7.77673)
(40.9278 -3.18258e-17 -7.76153)
(40.6375 -4.06143e-17 -7.70002)
(40.2163 0 -7.62151)
(40.0269 0 -7.58381)
(39.5414 -7.99518e-17 -7.48916)
(39.1452 -1.56789e-16 -7.41584)
(38.7131 0 -7.32704)
(38.1104 -7.9833e-17 -7.21771)
(37.6454 -8.50259e-17 -7.11997)
(36.9143 -8.47664e-17 -6.98072)
(36.3179 -1.57129e-16 -6.86592)
(35.613 0 -6.72752)
(34.781 0 -6.57238)
(34.1408 -1.73227e-16 -6.44506)
(33.2766 3.2158e-16 -6.2855)
(32.4674 1.66363e-16 -6.12058)
(31.5916 0 -5.95577)
(30.5903 0 -5.76125)
(29.5989 0 -5.56752)
(28.4869 0 -5.35806)
(27.3507 0 -5.13132)
(26.1311 0 -4.90063)
(24.8351 3.18506e-16 -4.64844)
(23.4949 7.22579e-21 -4.39139)
(22.0075 -3.14701e-16 -4.10574)
(20.5161 0 -3.81914)
(18.9259 -3.04917e-16 -3.51249)
(17.1955 -2.94921e-16 -3.17705)
(15.4623 0 -2.84419)
(13.5727 2.866e-16 -2.47913)
(11.5758 5.56639e-16 -2.09438)
(9.5489 0 -1.70307)
(7.28943 0 -1.26544)
(4.91664 0 -0.809799)
(2.60223 5.10877e-16 -0.370256)
(0.208191 0 0.0935371)
(-2.50621 0 0.621927)
(-5.2699 -4.8312e-16 1.15482)
(-8.43641 4.58077e-16 1.76448)
(-11.3607 0 2.33002)
(-15.0797 0 3.04635)
(-18.037 0 3.61937)
(-22.5711 0 4.49194)
(-25.3138 0 5.02412)
(-30.8317 -7.96452e-21 6.08466)
(-33.5428 0 6.6169)
(-39.7012 -7.24678e-16 7.78993)
(-43.2343 1.39253e-15 8.49946)
(-49.011 0 9.56703)
(-54.0589 4.46991e-21 10.5835)
(-58.5394 0 11.4357)
(-66.6256 6.87849e-21 12.9978)
(-71.1453 0 13.9353)
(-80.6568 1.10388e-15 15.674)
(-86.4399 0 16.8563)
(-93.4915 -1.0425e-15 18.4973)
(-123.748 0 24.2116)
(54.7974 0 -6.19053)
(53.8106 0 -6.36745)
(53.8748 0 -6.60517)
(53.4065 0 -6.90331)
(52.9115 -6.22586e-19 -7.35329)
(52.209 1.81584e-20 -7.8464)
(51.5055 0 -8.32186)
(50.9019 -1.04618e-18 -8.6704)
(50.4919 0 -8.86846)
(50.2638 3.2413e-18 -8.93448)
(50.1365 0 -8.93682)
(50.0111 -1.59641e-18 -8.93886)
(49.8226 0 -8.97431)
(49.5643 -2.39509e-18 -9.02313)
(49.297 1.13377e-18 -9.05882)
(49.1143 -2.01625e-18 -9.07547)
(49.0081 2.00337e-18 -9.06257)
(48.9743 1.99384e-18 -9.02342)
(49.0366 0 -9.04043)
(49.0138 1.70312e-18 -9.05554)
(49.0037 1.63448e-18 -9.06357)
(49.066 2.69987e-18 -9.17997)
(48.9426 1.11291e-18 -9.17674)
(49.071 0 -9.20325)
(49.1549 0 -9.34054)
(49.1321 0 -9.21813)
(49.4195 1.48068e-18 -9.36254)
(49.3582 6.25739e-19 -9.37272)
(49.5202 0 -9.30546)
(49.5918 0 -9.4825)
(49.6147 3.71065e-19 -9.35982)
(49.708 0 -9.51862)
(49.6813 -3.37367e-20 -9.47751)
(49.8461 -2.28842e-18 -9.59219)
(49.8632 1.43827e-18 -9.58421)
(50.1843 0 -9.61093)
(50.3653 0 -9.66548)
(50.7316 -2.10914e-18 -9.60433)
(51.0011 0 -9.71312)
(51.3364 0 -9.63754)
(51.6362 -1.08958e-19 -9.7924)
(51.8731 -1.49972e-18 -9.74168)
(52.1089 0 -9.87613)
(52.2748 1.90203e-18 -9.85331)
(52.4272 0 -9.94582)
(52.5008 -3.70853e-18 -9.8434)
(52.6275 -6.61267e-18 -10.0775)
(52.8061 0 -9.97909)
(52.9224 -6.60461e-18 -10.0615)
(53.0256 4.87786e-18 -10.0455)
(53.0482 2.30206e-17 -10.0635)
(53.0441 -7.28704e-18 -10.0481)
(53.1478 9.01973e-18 -10.0817)
(53.1337 4.93689e-20 -10.0603)
(53.1268 0 -10.0714)
(53.1811 -8.06497e-18 -10.0794)
(53.0844 -1.04491e-17 -10.0624)
(52.9917 8.26954e-18 -10.0359)
(52.9888 -1.22595e-17 -10.0354)
(52.6936 -2.30705e-17 -9.9578)
(52.5185 -2.46647e-17 -9.92862)
(52.3333 3.06701e-17 -9.8882)
(51.848 -3.02098e-17 -9.79212)
(51.6301 0 -9.75252)
(51.2395 0 -9.68139)
(50.725 -3.14558e-17 -9.57283)
(50.4073 0 -9.51411)
(49.7979 0 -9.39547)
(49.2661 7.37685e-17 -9.28866)
(48.6686 0 -9.1708)
(47.8994 7.51108e-17 -9.02324)
(47.2486 1.59944e-16 -8.88962)
(46.31 0 -8.70841)
(45.4962 7.38776e-17 -8.54726)
(44.562 0 -8.37109)
(43.4803 0 -8.15868)
(42.5941 1.62778e-16 -7.9931)
(41.4751 -1.51133e-16 -7.77931)
(40.3841 1.70371e-20 -7.55942)
(39.227 0 -7.34065)
(37.9034 0 -7.08052)
(36.588 0 -6.82495)
(35.1267 1.53367e-16 -6.54565)
(33.617 -1.50506e-16 -6.24685)
(32.0173 0 -5.94214)
(30.3081 -5.97982e-16 -5.60901)
(28.5474 -2.97437e-16 -5.2703)
(26.6005 5.90637e-16 -4.89456)
(24.6458 2.8665e-16 -4.51898)
(22.5666 5.7208e-16 -4.11598)
(20.3114 0 -3.67871)
(18.0491 0 -3.24402)
(15.5994 -2.68733e-16 -2.76907)
(13.0092 -5.21855e-16 -2.26907)
(10.3833 5.21627e-16 -1.76236)
(7.47703 0 -1.19549)
(4.42105 0 -0.611027)
(1.44245 -4.78658e-16 -0.0464812)
(-1.62602 -4.74378e-16 0.550406)
(-5.08895 0 1.22727)
(-8.59924 4.52452e-16 1.90517)
(-12.6082 -4.28937e-16 2.67929)
(-16.2961 0 3.39367)
(-20.988 0 4.29731)
(-24.6454 0 5.01027)
(-30.3945 0 6.11336)
(-33.6282 0 6.74703)
(-40.7129 7.21554e-16 8.10532)
(-43.6316 0 8.68715)
(-51.6465 0 10.2117)
(-55.3863 0 10.9737)
(-62.7182 -1.25474e-15 12.3278)
(-68.7896 -1.21793e-15 13.5493)
(-73.4669 0 14.4541)
(-84.143 1.12269e-15 16.5108)
(-87.976 0 17.3499)
(-99.8513 1.03182e-15 19.5168)
(-106.565 0 20.8853)
(-113.449 9.74253e-16 22.7417)
(-149.013 0 29.3834)
(60.4496 6.97229e-19 -6.98676)
(59.9704 6.6582e-19 -7.22406)
(60.1465 -5.98553e-19 -7.50632)
(59.8789 -5.186e-19 -7.90092)
(59.5336 0 -8.43958)
(59.0442 4.63931e-19 -8.99321)
(58.5755 0 -9.49678)
(58.2188 -1.34344e-18 -9.86373)
(58.0333 -1.61718e-18 -10.0889)
(57.9908 -3.42718e-18 -10.1985)
(58.0055 1.85076e-18 -10.2523)
(57.9934 -1.74717e-18 -10.3046)
(57.9117 0 -10.3845)
(57.766 0 -10.4717)
(57.6096 -1.06944e-18 -10.5358)
(57.5291 -7.47234e-20 -10.5764)
(57.5172 1.02498e-19 -10.5981)
(57.5561 4.28165e-20 -10.5915)
(57.6828 0 -10.6326)
(57.7366 0 -10.6882)
(57.7843 0 -10.7131)
(57.9198 -2.55831e-18 -10.8464)
(57.8847 -1.03145e-18 -10.8886)
(58.064 0 -10.9039)
(58.237 0 -11.0777)
(58.2867 -1.62208e-18 -10.9829)
(58.6231 0 -11.1133)
(58.6577 0 -11.1821)
(58.8709 0 -11.1005)
(59.012 0 -11.3122)
(59.1075 6.63366e-21 -11.2017)
(59.2513 0 -11.3774)
(59.2921 -5.27204e-20 -11.3477)
(59.5091 2.15743e-18 -11.4669)
(59.5909 -1.46222e-19 -11.476)
(59.9613 0 -11.4883)
(60.2014 0 -11.5746)
(60.6213 0 -11.4953)
(60.9416 0 -11.643)
(61.3371 0 -11.5505)
(61.6911 0 -11.7376)
(61.9966 0 -11.6683)
(62.2829 -2.65621e-18 -11.8309)
(62.5118 -1.90522e-18 -11.7962)
(62.7175 0 -11.9167)
(62.8126 -3.58584e-18 -11.8852)
(63.011 0 -11.9699)
(63.2298 0 -11.9425)
(63.3686 1.24129e-17 -12.0497)
(63.5098 0 -12.0183)
(63.5516 -1.08302e-17 -12.0414)
(63.556 0 -12.0166)
(63.6628 -1.69741e-17 -12.0552)
(63.6518 6.11349e-20 -12.0288)
(63.6363 0 -12.0425)
(63.6761 0 -12.0413)
(63.5647 0 -12.026)
(63.4422 -1.55876e-17 -11.9831)
(63.3978 2.30596e-17 -11.9752)
(63.0584 2.1885e-17 -11.884)
(62.816 2.31586e-17 -11.837)
(62.5547 -5.77028e-17 -11.7818)
(61.9916 -2.85119e-17 -11.6701)
(61.6752 0 -11.6041)
(61.1806 0 -11.5212)
(60.5674 -4.72129e-20 -11.3841)
(60.1165 0 -11.3004)
(59.3793 0 -11.1579)
(58.7064 6.92995e-17 -11.0168)
(57.9402 0 -10.8669)
(57.0001 0 -10.6822)
(56.1595 -1.50249e-16 -10.5098)
(55.0113 7.50005e-17 -10.2869)
(53.9757 0 -10.0783)
(52.8106 0 -9.8635)
(51.4765 0 -9.59493)
(50.3406 -1.52874e-16 -9.38963)
(48.9657 0 -9.12261)
(47.5918 -2.93619e-16 -8.84672)
(46.1546 1.44201e-16 -8.57454)
(44.5118 0 -8.24902)
(42.8768 0 -7.93247)
(41.0732 -1.43917e-16 -7.58507)
(39.1988 -1.72015e-20 -7.21508)
(37.23 -1.42633e-16 -6.83952)
(35.1223 2.80458e-16 -6.42753)
(32.9589 -2.78946e-16 -6.01116)
(30.5753 -2.76928e-16 -5.54937)
(28.1819 -2.68761e-16 -5.09034)
(25.6455 -1.65724e-20 -4.59663)
(22.9038 0 -4.06516)
(20.152 2.57408e-16 -3.53656)
(17.1948 0 -2.96175)
(14.0693 0 -2.35784)
(10.907 -4.88665e-16 -1.74781)
(7.43516 0 -1.06704)
(3.78309 0 -0.370968)
(0.226956 0 0.300577)
(-3.41109 4.44164e-16 1.0105)
(-7.49749 0 1.8123)
(-11.6115 4.23503e-16 2.60815)
(-16.3051 0 3.51562)
(-20.5717 0 4.3443)
(-26.047 0 5.39698)
(-30.1527 0 6.20386)
(-36.9085 0 7.49347)
(-40.2748 6.95373e-16 8.16412)
(-48.7285 6.74866e-16 9.77594)
(-51.3318 -6.50061e-16 10.3121)
(-61.0189 0 12.1484)
(-64.3044 0 12.8349)
(-72.8527 2.34611e-15 14.4168)
(-79.4297 0 15.7258)
(-83.4649 -1.09193e-15 16.5445)
(-96.4611 0 19.0249)
(-98.4169 -1.02469e-15 19.5412)
(-111.927 -9.64219e-16 22.0108)
(-118.837 0 23.394)
(-124.325 9.10306e-16 25.257)
(-162.53 0 32.3468)
(64.9975 -6.56562e-19 -7.81659)
(64.9233 -1.18157e-18 -8.10381)
(65.1943 5.63772e-19 -8.47247)
(65.0988 6.77182e-20 -8.95651)
(64.9146 -4.16315e-19 -9.52354)
(64.6597 0 -10.0851)
(64.4507 0 -10.5722)
(64.3553 1.2656e-18 -10.9283)
(64.4004 3.24108e-18 -11.1571)
(64.5491 -1.66618e-19 -11.2987)
(64.7191 -1.74352e-18 -11.4013)
(64.8372 1.64593e-18 -11.5025)
(64.8795 -1.55361e-18 -11.6231)
(64.8644 0 -11.7469)
(64.8368 0 -11.8444)
(64.8724 1.00214e-18 -11.9147)
(64.9686 -3.83524e-18 -11.9731)
(65.0968 -3.65288e-18 -12.0044)
(65.3007 0 -12.0716)
(65.4471 0 -12.1665)
(65.5701 0 -12.216)
(65.7882 9.51298e-22 -12.3607)
(65.8605 1.94331e-18 -12.4484)
(66.1035 -1.0436e-18 -12.4641)
(66.3746 -1.56136e-18 -12.6588)
(66.5143 3.02689e-18 -12.605)
(66.9061 -1.40412e-18 -12.7186)
(67.0486 -6.57734e-19 -12.8365)
(67.3227 -7.44396e-19 -12.7576)
(67.5417 0 -12.9853)
(67.7179 -3.35746e-19 -12.9016)
(67.9225 1.02039e-18 -13.0834)
(68.0397 -9.43371e-19 -13.0717)
(68.3167 -1.60004e-18 -13.1918)
(68.4728 -2.10301e-18 -13.2189)
(68.8956 0 -13.221)
(69.2012 0 -13.3314)
(69.6751 1.91635e-18 -13.2438)
(70.05 0 -13.4178)
(70.5046 -1.85883e-18 -13.3211)
(70.9147 -8.52117e-20 -13.5314)
(71.2881 0 -13.4537)
(71.627 4.91797e-18 -13.6343)
(71.9189 1.79305e-18 -13.5928)
(72.1644 0 -13.7346)
(72.3145 3.3743e-18 -13.7852)
(72.5912 5.76321e-18 -13.6998)
(72.8173 0 -13.7524)
(72.9956 -1.16141e-17 -13.8824)
(73.1781 4.3766e-18 -13.8359)
(73.243 1.01151e-17 -13.8602)
(73.2587 0 -13.827)
(73.3694 1.38993e-20 -13.8688)
(73.3633 -1.29147e-17 -13.8377)
(73.3403 0 -13.8526)
(73.3649 0 -13.8415)
(73.2404 9.28256e-18 -13.8266)
(73.0882 7.33754e-18 -13.7666)
(73.002 -2.16429e-17 -13.7492)
(72.6212 -2.05727e-17 -13.6438)
(72.3122 -2.1768e-17 -13.5779)
(71.9764 2.71125e-17 -13.5065)
(71.3386 5.36435e-17 -13.3798)
(70.9244 0 -13.2865)
(70.3277 0 -13.1913)
(69.6184 5.57358e-17 -13.0266)
(69.0369 0 -12.916)
(68.1758 0 -12.7506)
(67.3658 -6.50874e-17 -12.5751)
(66.4369 0 -12.3925)
(65.3319 6.63547e-17 -12.172)
(64.3083 4.46926e-20 -11.9604)
(62.9607 -7.04113e-17 -11.6973)
(61.7116 0 -11.4422)
(60.3267 0 -11.1903)
(58.7524 0 -10.868)
(57.3763 -1.43312e-16 -10.6249)
(55.7604 0 -10.3073)
(54.1193 1.37738e-16 -9.97778)
(52.4204 -2.70526e-16 -9.6553)
(50.4819 0 -9.26796)
(48.5508 0 -8.89481)
(46.4349 0 -8.48438)
(44.2281 -2.012e-20 -8.04883)
(41.926 1.33715e-16 -7.60921)
(39.4613 2.62918e-16 -7.12564)
(36.9409 2.6144e-16 -6.64015)
(34.1746 -2.59503e-16 -6.10206)
(31.3985 0 -5.57057)
(28.4718 -2.51209e-16 -4.99816)
(25.3195 0 -4.38677)
(22.1561 -2.41105e-16 -3.77926)
(18.7867 0 -3.12227)
(15.2296 0 -2.43407)
(11.6404 0 -1.74154)
(7.73727 4.36708e-16 -0.971606)
(3.63288 4.37021e-16 -0.191654)
(-0.358267 0 0.558475)
(-4.39985 -4.15672e-16 1.35023)
(-8.91803 3.99691e-16 2.24106)
(-13.4207 -3.96261e-16 3.11449)
(-18.5656 3.75632e-16 4.11029)
(-23.1417 0 5.00319)
(-29.129 0 6.15116)
(-33.3317 0 6.98817)
(-40.7988 0 8.40323)
(-43.8232 -6.50233e-16 9.02607)
(-53.3558 -4.95434e-21 10.829)
(-54.9939 1.2155e-15 11.202)
(-66.0633 0 13.2902)
(-68.1152 0 13.7513)
(-77.4111 -1.09639e-15 15.4796)
(-83.8568 0 16.7357)
(-86.3029 1.02041e-15 17.3103)
(-101.159 0 20.1131)
(-100.107 1.91484e-15 20.0864)
(-114.27 0 22.6927)
(-120.55 0 23.907)
(-123.612 -8.50367e-16 25.6354)
(-161.36 0 32.5732)
(68.5024 0 -8.81572)
(68.7449 5.21591e-19 -9.13962)
(69.1104 0 -9.57146)
(69.2012 3.95866e-19 -10.0924)
(69.2156 8.02499e-19 -10.6324)
(69.207 0 -11.1438)
(69.2606 -6.38122e-19 -11.5739)
(69.4225 0 -11.8944)
(69.6901 1.6201e-19 -12.1117)
(70.0181 3.64476e-18 -12.2679)
(70.3359 0 -12.4069)
(70.5844 0 -12.5527)
(70.7538 1.46184e-18 -12.7129)
(70.872 0 -12.8733)
(70.9776 0 -13.008)
(71.1334 0 -13.112)
(71.3419 1.84288e-18 -13.2054)
(71.5675 1.7322e-18 -13.2734)
(71.8534 1.61179e-18 -13.3642)
(72.0985 0 -13.4927)
(72.3075 0 -13.5714)
(72.6109 1.13444e-18 -13.7228)
(72.7999 -9.14266e-19 -13.8508)
(73.1159 9.81782e-19 -13.8772)
(73.4866 1.46885e-18 -14.0789)
(73.7281 -2.81371e-18 -14.0723)
(74.1793 -2.16478e-20 -14.17)
(74.4348 6.18709e-19 -14.3249)
(74.7778 7.00201e-19 -14.2624)
(75.079 0 -14.4916)
(75.3411 0 -14.4434)
(75.6139 -9.59762e-19 -14.6237)
(75.8126 0 -14.6329)
(76.1548 1.50487e-18 -14.7511)
(76.3916 9.06685e-19 -14.7953)
(76.8688 6.00888e-19 -14.791)
(77.2445 0 -14.918)
(77.7728 -1.80204e-18 -14.8307)
(78.2055 -9.04505e-19 -15.0205)
(78.7185 4.0399e-20 -14.9289)
(79.1864 2.30927e-19 -15.1535)
(79.627 0 -15.0759)
(80.0202 -2.27334e-18 -15.2661)
(80.3752 0 -15.223)
(80.6655 0 -15.3773)
(80.892 0 -15.3971)
(81.2051 -5.01751e-20 -15.3706)
(81.4643 0 -15.3913)
(81.6844 5.44046e-18 -15.5401)
(81.9125 -8.25446e-18 -15.4783)
(82.0048 -9.50565e-18 -15.4996)
(82.0362 0 -15.4591)
(82.1543 7.4822e-18 -15.5023)
(82.1573 1.22822e-17 -15.4671)
(82.1308 0 -15.482)
(82.1432 0 -15.461)
(82.0099 -8.71977e-18 -15.4454)
(81.8324 -6.96582e-18 -15.3681)
(81.7086 1.0154e-17 -15.3399)
(81.2935 1.95389e-17 -15.2205)
(80.924 0 -15.1353)
(80.521 0 -15.0477)
(79.8173 5.71823e-20 -14.9072)
(79.3131 2.47153e-17 -14.7869)
(78.6228 0 -14.6805)
(77.8269 -2.61885e-17 -14.4899)
(77.1256 0 -14.3528)
(76.1523 0 -14.1667)
(75.2181 0 -13.9582)
(74.1426 0 -13.7446)
(72.8887 4.0264e-20 -13.4911)
(71.7 5.24443e-20 -13.2426)
(70.1752 6.61033e-17 -12.9428)
(68.7334 0 -12.645)
(67.1529 6.96782e-17 -12.3601)
(65.3648 0 -11.9891)
(63.7719 1.34384e-16 -11.7132)
(61.945 -1.24959e-16 -11.3506)
(60.0689 1.29158e-16 -10.9733)
(58.1439 1.26792e-16 -10.607)
(55.9524 0 -10.1654)
(53.7686 -1.25744e-16 -9.74401)
(51.392 0 -9.27993)
(48.9084 1.24093e-16 -8.78924)
(46.3325 1.25268e-16 -8.29706)
(43.5788 -2.46302e-16 -7.75463)
(40.7744 0 -7.21402)
(37.7095 4.86087e-16 -6.61541)
(34.6374 0 -6.0286)
(31.4206 -2.35179e-16 -5.39636)
(27.9702 0 -4.7265)
(24.5096 -2.25693e-16 -4.06255)
(20.8634 0 -3.34923)
(17.022 -4.28591e-16 -2.60493)
(13.1588 4.28155e-16 -1.8597)
(9.00694 -4.0867e-16 -1.03515)
(4.64665 -4.08921e-16 -0.209208)
(0.414225 0 0.580853)
(-3.81122 7.77718e-16 1.41203)
(-8.51203 -7.47766e-16 2.34412)
(-13.1271 0 3.24236)
(-18.4281 -3.51305e-16 4.26872)
(-22.9761 0 5.16209)
(-29.1422 0 6.33818)
(-33.0158 6.44306e-16 7.12719)
(-40.8399 0 8.59266)
(-42.9699 0 9.06882)
(-53.2363 -5.8981e-16 10.9857)
(-53.1927 -1.13609e-15 11.0666)
(-65.2948 -5.537e-16 13.332)
(-65.304 0 13.4096)
(-74.8214 0 15.1951)
(-80.4803 0 16.2427)
(-80.4281 0 16.4299)
(-96.5774 -9.1596e-16 19.425)
(-91.6548 -8.94394e-16 18.6807)
(-105.418 0 21.25)
(-110.336 0 22.1242)
(-110.385 0 23.5941)
(-144.682 0 29.8458)
(71.0709 -4.47519e-19 -10.0625)
(71.5451 0 -10.3987)
(72.0291 -3.70591e-19 -10.8303)
(72.3341 0 -11.307)
(72.5776 -3.86098e-19 -11.7686)
(72.8236 0 -12.1858)
(73.1314 5.99776e-19 -12.5278)
(73.5299 -1.61456e-18 -12.7886)
(73.9982 -3.4551e-18 -12.984)
(74.4866 7.05736e-20 -13.1473)
(74.9366 0 -13.3135)
(75.3061 0 -13.4969)
(75.5969 0 -13.693)
(75.8432 0 -13.8863)
(76.079 0 -14.0543)
(76.3537 0 -14.1896)
(76.6732 -1.80638e-18 -14.3137)
(76.9981 1.63042e-18 -14.4158)
(77.3653 -1.5149e-18 -14.528)
(77.7069 0 -14.6822)
(78.0063 0 -14.7908)
(78.3927 -1.04689e-18 -14.9448)
(78.6989 -8.71982e-19 -15.1029)
(79.0931 -8.92493e-19 -15.1467)
(79.5588 0 -15.3438)
(79.9069 1.31884e-18 -15.3836)
(80.4188 2.54377e-18 -15.4689)
(80.7854 -7.28758e-19 -15.6474)
(81.2017 0 -15.6115)
(81.585 0 -15.8315)
(81.9337 0 -15.8216)
(82.2787 6.55631e-19 -15.9957)
(82.5603 0 -16.0256)
(82.9698 0 -16.1393)
(83.2905 4.48077e-19 -16.1985)
(83.8228 -5.64526e-19 -16.1906)
(84.2705 0 -16.327)
(84.8528 -1.71003e-18 -16.2468)
(85.345 1.8004e-18 -16.4431)
(85.9148 1.6039e-18 -16.3634)
(86.4414 -1.41662e-19 -16.5949)
(86.9478 0 -16.525)
(87.3961 0 -16.7174)
(87.8133 0 -16.6769)
(88.1531 4.01554e-18 -16.8363)
(88.4518 0 -16.8311)
(88.8046 -5.04018e-18 -16.8539)
(89.101 -4.10807e-18 -16.8485)
(89.3644 0 -17.0135)
(89.6433 3.88851e-18 -16.9354)
(89.7673 0 -16.9492)
(89.8195 0 -16.9023)
(89.9502 6.99966e-18 -16.9456)
(89.9679 8.78707e-20 -16.907)
(89.9441 -6.57482e-18 -16.9209)
(89.9499 0 -16.8902)
(89.8147 0 -16.8731)
(89.6192 6.53751e-18 -16.779)
(89.466 0 -16.7394)
(89.0273 -1.83351e-17 -16.6067)
(88.6086 0 -16.5025)
(88.1511 0 -16.3997)
(87.3948 -4.74691e-17 -16.247)
(86.8148 -4.63521e-17 -16.1012)
(86.0455 -2.96801e-17 -15.9858)
(85.1783 0 -15.7722)
(84.3766 0 -15.6103)
(83.3101 -2.93893e-17 -15.4072)
(82.273 -5.72166e-17 -15.1687)
(81.0767 0 -14.9272)
(79.6993 -5.84109e-17 -14.6456)
(78.3743 6.19364e-17 -14.3646)
(76.7062 -6.19678e-17 -14.0335)
(75.1048 5.72785e-17 -13.699)
(73.3661 -6.53075e-17 -13.3877)
(71.4051 0 -12.9757)
(69.6325 0 -12.6747)
(67.6398 1.17089e-16 -12.2756)
(65.5774 -2.4204e-16 -11.8595)
(63.4782 0 -11.4591)
(61.096 0 -10.9745)
(58.7218 1.17781e-16 -10.517)
(56.1575 0 -10.0127)
(53.4757 0 -9.48174)
(50.7089 -1.17301e-16 -8.95291)
(47.7594 -2.30649e-16 -8.36931)
(44.7701 0 -7.79257)
(41.5191 -2.27516e-16 -7.1547)
(38.2664 0 -6.53529)
(34.8899 2.20118e-16 -5.86812)
(31.287 -2.12933e-16 -5.16747)
(27.6765 2.112e-16 -4.47596)
(23.9232 2.06582e-16 -3.73899)
(19.9821 -1.82281e-20 -2.97378)
(16.0341 -4.00549e-16 -2.2128)
(11.8535 0 -1.37563)
(7.47538 3.82455e-16 -0.549137)
(3.2347 -3.67084e-16 0.234771)
(-0.91763 -3.6365e-16 1.05548)
(-5.51427 6.99259e-16 1.97358)
(-9.92775 0 2.83672)
(-15.0551 -3.28497e-16 3.829)
(-19.2023 0 4.65287)
(-25.1895 0 5.78441)
(-28.2813 -6.02246e-16 6.44347)
(-36.097 0 7.88063)
(-36.7725 0 8.11209)
(-47.4312 5.51163e-16 10.0642)
(-45.023 -1.25563e-20 9.73279)
(-57.8208 3.85977e-20 12.1027)
(-55.0785 4.97035e-16 11.6569)
(-64.3445 0 13.4252)
(-68.6781 -9.2872e-16 14.1262)
(-65.449 -8.9062e-16 13.8305)
(-82.3506 8.55574e-16 16.8977)
(-73.1699 8.35349e-16 15.3434)
(-85.6634 0 17.7424)
(-88.7999 7.69066e-16 18.1763)
(-85.7862 0 19.3598)
(-114.508 0 24.5404)
(72.8419 4.20052e-19 -11.547)
(73.4862 -4.17792e-19 -11.8466)
(74.1255 -7.12888e-20 -12.1989)
(74.6619 -4.50522e-19 -12.5672)
(75.1413 0 -12.9106)
(75.632 6.14058e-19 -13.2111)
(76.1712 -7.19383e-19 -13.4557)