/*--------------------------------*- C++ -*----------------------------------*\
| =========                 |                                                 |
| \\      /  F ield         | OpenFOAM: The Open Source CFD Toolbox           |
|  \\    /   O peration     | Version:  2412                                  |
|   \\  /    A nd           | Website:  www.openfoam.com                      |
|    \\/     M anipulation  |                                                 |
\*---------------------------------------------------------------------------*/
FoamFile
{
    version     2.0;
    format      ascii;
    arch        "LSB;label=32;scalar=64";
    class       volScalarField;
    location    "0.595";
    object      Co;
}
// * * * * * * * * * * * * * * * * * * * * * * * * * * * * * * * * * * * * * //

dimensions      [0 0 0 0 0 0 0];

internalField   nonuniform List<scalar> 
12600
(
0.314445
0.17653
0.100011
0.0629541
0.0449944
0.0350793
0.0286823
0.0241019
0.0206276
0.0178911
0.0156757
0.0138448
0.0123069
0.0109983
0.00987273
0.00889602
0.00804205
0.00729057
0.00662558
0.00603429
0.00550629
0.00503304
0.00460746
0.00422361
0.00387647
0.00356178
0.00327589
0.00301566
0.00277836
0.0025616
0.00236333
0.00218171
0.00201513
0.00186217
0.00172156
0.00159217
0.00147301
0.00136315
0.00126181
0.00116824
0.00108179
0.00100186
0.000927922
0.000859479
0.000796095
0.000737361
0.000682915
0.000632415
0.000585563
0.000542071
0.000501693
0.000464181
0.000429335
0.000396941
0.000366835
0.00033883
0.000312794
0.000288562
0.000266027
0.000245045
0.000225531
0.000207353
0.000190448
0.000174696
0.00016005
0.0001464
0.000133714
0.000121889
0.000110907
0.000100671
9.11744e-05
8.23258e-05
7.41261e-05
6.64922e-05
5.94291e-05
5.28622e-05
4.67978e-05
4.11715e-05
3.59873e-05
3.1193e-05
2.67865e-05
2.27305e-05
1.90129e-05
1.56133e-05
1.25058e-05
9.68971e-06
7.12153e-06
4.82253e-06
2.72824e-06
1.72755e-06
2.37701e-06
3.79043e-06
4.95929e-06
6.07834e-06
6.9427e-06
7.82393e-06
8.38977e-06
9.07988e-06
9.40854e-06
1.01125e-05
1.05347e-05
1.14146e-05
1.21413e-05
1.3614e-05
1.2951e-05
1.24067e-05
1.85788e-05
1.79731e-05
1.68802e-05
5.86089e-06
2.63537e-05
4.05746e-05
3.80478e-05
2.82836e-05
1.40365e-05
1.18472e-05
1.37136e-05
1.28352e-05
1.10622e-05
1.18582e-05
0.477378
0.376181
0.276219
0.202429
0.153147
0.120581
0.0982801
0.0821892
0.0700246
0.0604924
0.0528166
0.046504
0.0412251
0.0367511
0.032917
0.0296008
0.0267101
0.0241734
0.0219345
0.0199484
0.0181788
0.0165959
0.0151753
0.0138962
0.0127414
0.0116962
0.0107481
0.00988631
0.00910149
0.00838555
0.00773142
0.00713292
0.00658458
0.00608158
0.00561966
0.00519501
0.00480426
0.00444435
0.00411259
0.00380651
0.00352395
0.00326289
0.00302155
0.00279831
0.00259169
0.00240035
0.00222308
0.00205875
0.00190637
0.00176499
0.00163379
0.00151197
0.00139885
0.00129373
0.00119607
0.00110526
0.00102087
0.000942341
0.000869342
0.000801383
0.000738199
0.000679348
0.000624633
0.00057365
0.000526259
0.000482085
0.00044104
0.000402773
0.000367238
0.000334107
0.000303368
0.000274714
0.000248158
0.00022342
0.000200523
0.000179219
0.000159533
0.000141252
0.000124392
0.000108783
9.44158e-05
8.11756e-05
6.90141e-05
5.78793e-05
4.76707e-05
3.84088e-05
2.9927e-05
2.23278e-05
1.53662e-05
9.23255e-06
6.45063e-06
8.89821e-06
1.26911e-05
1.63426e-05
1.91525e-05
2.20359e-05
2.38627e-05
2.61786e-05
2.72585e-05
2.98014e-05
3.11631e-05
3.4264e-05
3.65278e-05
4.14504e-05
3.71651e-05
3.7379e-05
6.04012e-05
5.06909e-05
5.72289e-05
2.20128e-05
9.88105e-05
0.000128909
0.000114361
9.27608e-05
5.26338e-05
4.45486e-05
4.42993e-05
4.01178e-05
3.47796e-05
3.97901e-05
0.511851
0.468136
0.396962
0.325254
0.264431
0.216442
0.179609
0.151321
0.129261
0.111714
0.0974851
0.0857471
0.0759214
0.0675941
0.060463
0.0543017
0.0489378
0.0442371
0.040094
0.0364241
0.0331589
0.0302423
0.0276281
0.0252775
0.0231579
0.0212419
0.0195058
0.0179296
0.0164956
0.0151889
0.0139961
0.0129058
0.0119078
0.0109932
0.0101539
0.00938293
0.00867406
0.00802165
0.00742067
0.00686662
0.00635545
0.00588348
0.00544745
0.00504433
0.00467145
0.00432631
0.00400673
0.00371062
0.00343619
0.00318167
0.00294559
0.00272646
0.00252308
0.00233415
0.00215869
0.00199559
0.00184406
0.00170311
0.00157212
0.0014502
0.00133687
0.00123133
0.00113323
0.00104183
0.000956886
0.00087771
0.000804146
0.00073556
0.000671869
0.00061248
0.00055737
0.000505988
0.000458354
0.000413963
0.00037286
0.000334594
0.000299211
0.00026633
0.000235975
0.000207846
0.000181919
0.000157999
0.000135985
0.000115806
9.72546e-05
8.04043e-05
6.49153e-05
5.10257e-05
3.82363e-05
2.69565e-05
1.65443e-05
1.40328e-05
1.8946e-05
2.54569e-05
3.04087e-05
3.5561e-05
3.87285e-05
4.29741e-05
4.48474e-05
4.98655e-05
5.22336e-05
5.82862e-05
6.21827e-05
7.13981e-05
5.98837e-05
6.38055e-05
0.00011105
8.2694e-05
0.000111719
4.6626e-05
0.000205382
0.000231258
0.000200187
0.000178944
0.000111744
9.21024e-05
8.01964e-05
7.06674e-05
6.06989e-05
7.50669e-05
0.503809
0.490596
0.452758
0.402451
0.350137
0.301522
0.259063
0.223196
0.193331
0.168525
0.147838
0.130459
0.115737
0.10316
0.0923321
0.0829425
0.0747481
0.0675555
0.0612098
0.0555858
0.0505807
0.0461101
0.0421036
0.0385022
0.0352562
0.0323233
0.0296673
0.027257
0.0250657
0.0230699
0.0212494
0.0195863
0.0180648
0.0166713
0.0153934
0.0142202
0.0131421
0.0121504
0.0112375
0.0103962
0.00962054
0.0089047
0.00824369
0.00763288
0.00706815
0.00654568
0.00606212
0.00561426
0.00519935
0.00481471
0.00445808
0.00412718
0.00382015
0.00353505
0.00327036
0.0030244
0.00279594
0.00258349
0.00238609
0.00220242
0.00203172
0.00187279
0.00172507
0.00158748
0.0014596
0.00134042
0.00122969
0.00112646
0.00103059
0.000941191
0.000858214
0.000780844
0.00070909
0.000642209
0.000580244
0.000522539
0.00046914
0.00041949
0.000373606
0.000331057
0.000291784
0.000255517
0.000222081
0.000191394
0.000163119
0.000137401
0.000113689
9.23982e-05
7.2716e-05
5.5344e-05
3.9206e-05
2.5312e-05
2.30869e-05
3.25719e-05
3.99311e-05
4.76472e-05
5.23178e-05
5.88091e-05
6.16154e-05
6.96933e-05
7.31717e-05
8.28111e-05
8.8388e-05
0.000102369
8.08575e-05
9.16587e-05
0.000167532
0.000115628
0.000176135
8.15933e-05
0.000338797
0.000338458
0.000295186
0.000282465
0.000187509
0.000152515
0.000120751
0.000104562
8.82995e-05
0.000118095
0.487646
0.482876
0.464721
0.434884
0.398311
0.359301
0.320944
0.28514
0.252806
0.224188
0.199143
0.177334
0.158363
0.141838
0.127402
0.114747
0.103611
0.0937756
0.085056
0.077299
0.0703759
0.0641783
0.0586146
0.053607
0.0490891
0.045004
0.0413027
0.0379428
0.0348874
0.0321045
0.0295659
0.0272469
0.0251258
0.0231833
0.0214024
0.0197679
0.0182662
0.0168853
0.0156144
0.0144438
0.0133647
0.0123692
0.0114502
0.0106013
0.00981676
0.00909115
0.00841978
0.0077982
0.00722252
0.00668902
0.00619451
0.00573581
0.00531033
0.00491534
0.00454873
0.00420814
0.00389186
0.00359783
0.00332467
0.00307056
0.00283443
0.00261463
0.00241036
0.00222011
0.00204329
0.00187854
0.00172545
0.00158275
0.00145019
0.00132659
0.00121183
0.00110483
0.00100555
0.000913002
0.000827207
0.000747287
0.000673273
0.000604427
0.000540736
0.000481637
0.000427018
0.000376535
0.000329915
0.00028708
0.000247529
0.000211506
0.000178207
0.000148262
0.00012049
9.59451e-05
7.30331e-05
5.32461e-05
3.6352e-05
3.6656e-05
4.67536e-05
5.73933e-05
6.37884e-05
7.29007e-05
7.68317e-05
8.85507e-05
9.32315e-05
0.000107043
0.000114246
0.000133204
9.93503e-05
0.000120481
0.000226844
0.000149076
0.00024617
0.000127612
0.000491034
0.000441808
0.000398207
0.000398695
0.000276153
0.000223955
0.000165522
0.000141795
0.000117242
0.000169311
0.473477
0.467823
0.456918
0.43905
0.415335
0.387647
0.357875
0.327651
0.298202
0.270334
0.24451
0.220924
0.199592
0.180417
0.163242
0.147883
0.134151
0.121866
0.110864
0.100995
0.0921275
0.0841458
0.0769483
0.0704463
0.0645624
0.0592288
0.0543864
0.0499832
0.0459736
0.0423173
0.038979
0.0359271
0.0331341
0.030575
0.0282279
0.0260732
0.0240933
0.0222724
0.0205964
0.0190526
0.0176295
0.0163167
0.015105
0.0139859
0.0129516
0.0119952
0.0111104
0.0102914
0.00953297
0.00883024
0.00817899
0.00757502
0.00701489
0.006495
0.00601254
0.00556441
0.00514833
0.00476157
0.00440233
0.00406819
0.00375771
0.00346876
0.00320023
0.00295017
0.00271776
0.00250123
0.00230001
0.00211245
0.00193819
0.00177572
0.00162483
0.00148413
0.00135353
0.00123177
0.00111882
0.00101359
0.000916058
0.0008253
0.000741257
0.000663226
0.00059102
0.000524227
0.000462451
0.000405629
0.000353062
0.000305121
0.000260702
0.000220694
0.000183483
0.000150548
0.000119679
9.30058e-05
6.77388e-05
5.06594e-05
4.97834e-05
6.37763e-05
7.21838e-05
8.43553e-05
8.96514e-05
0.000105587
0.000111547
0.000130066
0.000138734
0.00016269
0.000114398
0.00014948
0.000285948
0.000182602
0.000317611
0.000184128
0.000653442
0.000533146
0.000507461
0.000523003
0.000374141
0.000304804
0.00021432
0.00018236
0.000147336
0.000229094
0.462209
0.4539
0.444079
0.431033
0.414489
0.394888
0.372962
0.349554
0.325482
0.301445
0.277996
0.255539
0.234342
0.214556
0.196247
0.179411
0.164001
0.149941
0.137137
0.125493
0.114909
0.105288
0.0965413
0.0885849
0.0813425
0.074745
0.0687296
0.0632401
0.0582258
0.0536415
0.0494464
0.045604
0.0420816
0.0388499
0.0358823
0.0331552
0.0306471
0.0283388
0.0262128
0.0242535
0.0224467
0.0207793
0.0192399
0.0178177
0.0165031
0.0152874
0.0141626
0.0131213
0.012157
0.0112636
0.0104355
0.00966765
0.0089555
0.00829456
0.00768122
0.00711157
0.00658267
0.00609109
0.0056345
0.00520984
0.00481527
0.00444808
0.00410683
0.00378907
0.00349373
0.00321858
0.00296285
0.00272449
0.00250299
0.00229647
0.00210461
0.00192569
0.00175955
0.00160463
0.00146085
0.00132685
0.00120256
0.00108686
0.000979627
0.000880001
0.000787706
0.00070226
0.00062312
0.000550247
0.000482714
0.000421042
0.000363779
0.000312123
0.000263953
0.000221251
0.00018109
0.000146355
0.000113275
8.58349e-05
6.32794e-05
6.55867e-05
7.63808e-05
9.21116e-05
9.90656e-05
0.000119786
0.000127087
0.000150797
0.000160668
0.000189528
0.000125415
0.00017751
0.000341825
0.000215272
0.000386451
0.000249272
0.000816959
0.000605053
0.000620512
0.000666487
0.000492991
0.000393711
0.000267219
0.00022627
0.000180555
0.000297714
0.452899
0.442523
0.431943
0.420109
0.406553
0.391236
0.374335
0.356157
0.337077
0.317477
0.297717
0.278119
0.258956
0.240443
0.222744
0.205971
0.190191
0.175435
0.161704
0.148977
0.137214
0.126367
0.116382
0.1072
0.098764
0.0910167
0.0839032
0.077372
0.0713745
0.0658659
0.0608047
0.0561527
0.051875
0.0479397
0.0443176
0.0409822
0.0379091
0.0350764
0.0324638
0.0300531
0.0278276
0.0257721
0.0238727
0.0221167
0.0204927
0.0189899
0.0175989
0.0163106
0.0151172
0.0140112
0.0129858
0.0120348
0.0111526
0.0103337
0.0095737
0.00886775
0.00821223
0.00760294
0.00703694
0.00651051
0.00602133
0.00556609
0.00514295
0.00474895
0.00438268
0.00404144
0.00372423
0.00342855
0.00315372
0.00289745
0.0026593
0.00243719
0.00223085
0.0020384
0.0018597
0.0016931
0.00153847
0.00139447
0.00126087
0.00113669
0.00102151
0.000914798
0.000815825
0.000724595
0.000639912
0.000562476
0.000490435
0.000425346
0.000364507
0.000310481
0.000259518
0.000215386
0.000173164
0.000138106
0.000103153
8.01426e-05
7.50866e-05
9.49258e-05
0.000103892
0.000129949
0.00013865
0.000167979
0.000178706
0.000212324
0.000132292
0.000203094
0.000391554
0.000245705
0.000449032
0.000319896
0.000972433
0.000651048
0.000734386
0.000826148
0.000631289
0.000489607
0.000324542
0.000273585
0.000223373
0.000375317
0.444861
0.433157
0.421664
0.409798
0.397195
0.383721
0.369389
0.354295
0.338583
0.322419
0.305975
0.289418
0.272913
0.25661
0.240646
0.225138
0.210184
0.195862
0.182227
0.169316
0.157148
0.145726
0.13504
0.125072
0.115795
0.107177
0.0991828
0.091777
0.0849221
0.0785813
0.0727191
0.0673009
0.0622942
0.0576681
0.0533938
0.0494441
0.045794
0.0424202
0.0393012
0.0364169
0.0337492
0.0312809
0.0289967
0.026882
0.0249239
0.0231101
0.0214295
0.0198717
0.0184276
0.0170882
0.0158458
0.0146928
0.0136228
0.0126291
0.0117065
0.0108493
0.010053
0.00931266
0.00862474
0.00798478
0.00738995
0.00683628
0.00632154
0.00584216
0.00539641
0.00498108
0.00459487
0.00423484
0.00390008
0.00358789
0.00329765
0.00302691
0.00277527
0.00254052
0.00232241
0.002119
0.00193008
0.00175405
0.0015906
0.00143857
0.00129742
0.00116654
0.00104499
0.000932832
0.000828561
0.000733087
0.000644102
0.000563576
0.000488143
0.000421041
0.000357573
0.000302527
0.000249659
0.000205708
0.000161715
0.000127163
9.06248e-05
9.13182e-05
0.000102749
0.000134669
0.000144833
0.000180161
0.000191326
0.00022957
0.000134056
0.00022443
0.000432361
0.000272132
0.000502148
0.000391704
0.00111098
0.000665739
0.000845695
0.000989483
0.000778994
0.000591718
0.000386838
0.000324429
0.000277074
0.000461921
0.437755
0.425199
0.413004
0.400833
0.388436
0.375674
0.362514
0.348988
0.335162
0.321116
0.306929
0.292678
0.278437
0.264279
0.250273
0.236487
0.222987
0.209834
0.197083
0.184784
0.172977
0.161693
0.150953
0.140772
0.131151
0.122088
0.113574
0.105593
0.0981267
0.091154
0.0846513
0.0785939
0.0729571
0.0677156
0.0628449
0.058321
0.054121
0.0502227
0.0466052
0.0432488
0.040135
0.0372461
0.0345659
0.0320793
0.0297721
0.027631
0.025644
0.0237995
0.0220873
0.0204973
0.0190209
0.0176494
0.0163753
0.0151913
0.0140912
0.0130682
0.0121174
0.011233
0.0104107
0.00964543
0.00893377
0.00827111
0.00765477
0.00708058
0.00654647
0.00604865
0.00558555
0.00515372
0.00475203
0.00437731
0.00402879
0.00370358
0.00340116
0.00311894
0.00285655
0.00261176
0.00238423
0.00217211
0.00197499
0.00179151
0.00162098
0.00146272
0.00131557
0.00117963
0.00105307
0.000937025
0.00082868
0.000730476
0.000638296
0.000556145
0.000478253
0.000410579
0.000345361
0.000291055
0.000236502
0.000193589
0.000147457
0.00011741
9.89163e-05
0.000132288
0.000144021
0.000185669
0.000196818
0.000239611
0.00012902
0.00023944
0.000461651
0.000292496
0.000543123
0.000459475
0.00122438
0.000644937
0.000950833
0.00115278
0.000934557
0.000699564
0.00045484
0.000379013
0.00033921
0.000557409
0.431402
0.418273
0.405575
0.393103
0.380683
0.368193
0.355578
0.342837
0.330005
0.31713
0.304265
0.291454
0.278738
0.266148
0.253713
0.241459
0.22941
0.217591
0.206031
0.194757
0.183798
0.173181
0.162931
0.153071
0.143619
0.134587
0.125985
0.117816
0.11008
0.102771
0.095881
0.0893994
0.0833124
0.0776048
0.0722603
0.0672614
0.0625906
0.05823
0.0541621
0.0503695
0.0468354
0.0435435
0.0404784
0.0376251
0.0349698
0.0324988
0.0302
0.0280611
0.0260715
0.0242205
0.0224987
0.0208967
0.0194065
0.0180197
0.0167296
0.0155287
0.0144114
0.0133711
0.012403
0.0115014
0.0106622
0.00988039
0.0091527
0.00847438
0.00784302
0.00725426
0.00670625
0.00619501
0.00571917
0.00527509
0.00486182
0.00447601
0.00411702
0.00378184
0.00347002
0.00317894
0.00290818
0.0026556
0.00242067
0.00220184
0.00199823
0.0018091
0.00163302
0.00147018
0.00131834
0.00117894
0.00104856
0.000930187
0.000818859
0.000719454
0.000624988
0.000542752
0.000463265
0.000396938
0.00033011
0.00027748
0.0002208
0.000183451
0.000136556
0.000136216
0.000134374
0.000182584
0.000193275
0.000240615
0.000115512
0.000245811
0.000476993
0.000304571
0.000569818
0.000517374
0.00130545
0.0005857
0.00104623
0.00131264
0.00109697
0.00081294
0.000529412
0.000437642
0.000410406
0.000661546
0.425672
0.412143
0.399088
0.386369
0.373866
0.361479
0.349143
0.336836
0.324564
0.312356
0.300249
0.288279
0.276477
0.264867
0.253467
0.242288
0.231335
0.220612
0.210123
0.199871
0.189864
0.18011
0.170619
0.161405
0.15248
0.143857
0.135548
0.127563
0.119911
0.112596
0.105623
0.09899
0.092696
0.086736
0.0811031
0.0757889
0.0707832
0.0660749
0.0616521
0.0575021
0.0536121
0.0499691
0.04656
0.0433719
0.0403923
0.037609
0.0350102
0.0325845
0.0303212
0.0282097
0.0262407
0.0244044
0.0226926
0.0210965
0.0196089
0.0182219
0.0169295
0.0157244
0.0146016
0.0135544
0.0125789
0.0116689
0.0108211
0.0100302
0.00929331
0.00860562
0.007965
0.00736692
0.00680985
0.0062896
0.00580508
0.00535247
0.004931
0.00453725
0.00417063
0.00382817
0.00350933
0.0032117
0.00293457
0.00267623
0.00243559
0.00221184
0.00200324
0.00181012
0.00162977
0.00146396
0.00130861
0.00116733
0.0010342
0.000915096
0.000801663
0.000702701
0.000606789
0.000526558
0.00044552
0.000381605
0.000312643
0.000266849
0.000209735
0.000189544
0.000141135
0.000168693
0.000178582
0.000230543
9.15114e-05
0.000241063
0.000476067
0.000306074
0.000580587
0.000559322
0.0013484
0.000486317
0.0011666
0.00150235
0.00126576
0.000931884
0.000611492
0.000500726
0.000491192
0.000773996
0.420471
0.406658
0.393345
0.380434
0.367841
0.355484
0.343302
0.33126
0.319344
0.307563
0.295935
0.284487
0.273244
0.26223
0.251461
0.24095
0.230703
0.220719
0.210994
0.201522
0.192298
0.183314
0.174566
0.166053
0.157775
0.149732
0.14193
0.134374
0.127069
0.120021
0.113236
0.106718
0.100471
0.0944956
0.0887935
0.0833629
0.0782013
0.0733042
0.0686661
0.0642804
0.0601395
0.0562348
0.0525577
0.0490984
0.0458475
0.0427951
0.0399316
0.0372468
0.0347317
0.0323763
0.0301722
0.02811
0.0261818
0.0243789
0.0226943
0.02112
0.0196497
0.0182759
0.0169935
0.0157955
0.0146775
0.0136332
0.0126588
0.0117484
0.0108993
0.0101059
0.009366
0.0086745
0.00802973
0.00742701
0.00686513
0.00633979
0.00585012
0.00539226
0.00496553
0.00456659
0.00419479
0.00384739
0.00352359
0.00322142
0.00293963
0.00267731
0.00243244
0.00220544
0.00199312
0.00179762
0.00161415
0.00144698
0.00128916
0.00114766
0.00101263
0.000894537
0.000779803
0.000683552
0.000586139
0.000509149
0.000425962
0.000370266
0.000301098
0.000274699
0.000214384
0.000204801
0.000164152
0.000207131
5.45839e-05
0.000222623
0.000456575
0.000294796
0.000582714
0.000587479
0.00134905
0.000346228
0.00131913
0.0017301
0.00144086
0.00105664
0.000702023
0.00056877
0.000582014
0.000894344
0.415726
0.401707
0.388207
0.375151
0.362475
0.350117
0.338022
0.32615
0.314477
0.302996
0.291708
0.280627
0.26977
0.259153
0.248793
0.238704
0.228894
0.219369
0.210126
0.201162
0.192469
0.184035
0.175852
0.167909
0.160196
0.152706
0.145432
0.13837
0.131519
0.124877
0.118445
0.112224
0.106217
0.100427
0.0948542
0.0895014
0.0843694
0.0794583
0.0747674
0.0702947
0.0660376
0.0619922
0.0581543
0.0545183
0.0510786
0.0478284
0.0447611
0.0418694
0.0391462
0.0365835
0.0341743
0.0319107
0.0297857
0.0277914
0.0259216
0.0241685
0.0225263
0.0209877
0.0195477
0.0181992
0.0169378
0.015757
0.0146532
0.01362
0.0126546
0.0117511
0.0109072
0.0101173
0.00937983
0.0086895
0.00804512
0.0074419
0.00687897
0.00635198
0.00586026
0.00540002
0.00497059
0.00456889
0.004194
0.00384375
0.00351667
0.00321181
0.00292681
0.00266221
0.00241434
0.00218572
0.00197078
0.00177457
0.00158896
0.00142217
0.00126267
0.00112282
0.00098663
0.000872007
0.000755815
0.000663724
0.000564138
0.000496825
0.000413589
0.000379537
0.000306898
0.000292678
0.000227502
0.000225705
2.60416e-05
0.000198621
0.000416162
0.000268764
0.000604335
0.000624526
0.00130489
0.000165423
0.00146715
0.00196267
0.00162248
0.0011876
0.000801888
0.00064235
0.00068323
0.00102211
0.411374
0.397206
0.38357
0.370405
0.357663
0.345291
0.333244
0.321483
0.309981
0.298718
0.287687
0.276887
0.266325
0.256011
0.245953
0.236165
0.226655
0.217431
0.208495
0.199848
0.191485
0.183401
0.175584
0.168026
0.160714
0.153637
0.146784
0.140144
0.133709
0.12747
0.121422
0.11556
0.109881
0.104383
0.0990656
0.0939277
0.08897
0.0841927
0.0795964
0.0751809
0.0709463
0.0668915
0.0630154
0.059316
0.0557907
0.0524363
0.0492493
0.046225
0.0433594
0.0406468
0.0380825
0.0356602
0.0333751
0.0312204
0.0291913
0.0272808
0.0254844
0.023795
0.0222085
0.020718
0.0193196
0.0180069
0.0167764
0.0156219
0.0145405
0.0135263
0.0125769
0.0116866
0.0108538
0.0100728
0.00934263
0.00865795
0.00801799
0.00741798
0.00685729
0.00633174
0.00584065
0.00538062
0.00495066
0.00454837
0.00417213
0.00382092
0.00349204
0.00318622
0.00289921
0.00263401
0.00238419
0.00215567
0.00193905
0.00174392
0.00155692
0.00139249
0.001232
0.00109643
0.000958832
0.000849378
0.000730984
0.000650073
0.000550524
0.000507043
0.000419984
0.000399789
0.00032148
0.000316314
9.70687e-05
0.000262126
0.000420969
0.000307039
0.000682466
0.000694049
0.00126269
0.000122292
0.00171033
0.00219868
0.0018109
0.00132525
0.000911848
0.000722047
0.000795074
0.00115675
0.407365
0.393089
0.379354
0.36611
0.353316
0.340929
0.32891
0.317223
0.305841
0.294739
0.283904
0.273325
0.263001
0.252932
0.243122
0.233577
0.224304
0.215309
0.206595
0.198167
0.190022
0.182159
0.174571
0.167253
0.160193
0.153383
0.146811
0.140466
0.134336
0.128411
0.12268
0.117134
0.111766
0.106568
0.101536
0.0966638
0.0919492
0.0873893
0.0829826
0.0787277
0.074624
0.0706707
0.0668674
0.0632133
0.0597077
0.0563491
0.0531363
0.0500671
0.0471396
0.0443505
0.0416974
0.0391761
0.0367838
0.0345155
0.032368
0.030336
0.0284161
0.0266024
0.0248918
0.0232782
0.0217586
0.0203268
0.0189802
0.0177125
0.0165217
0.0154014
0.0143501
0.0133615
0.0124345
0.0115633
0.0107468
0.00997962
0.00926111
0.00858611
0.00795416
0.0073607
0.00680518
0.00628383
0.00579572
0.00533821
0.00490955
0.00450869
0.00413261
0.00378223
0.00345276
0.0031477
0.00285972
0.00259568
0.00234483
0.00211827
0.00190066
0.00170871
0.00152094
0.00136168
0.00119985
0.00107055
0.000930723
0.000833968
0.000715628
0.000660615
0.000556842
0.000528914
0.000435346
0.000425316
0.000187302
0.000358181
0.000507587
0.000416848
0.000783265
0.000788411
0.00131605
0.000301669
0.00197621
0.002437
0.00200622
0.00147003
0.00103246
0.000808331
0.000917587
0.00129759
0.403655
0.389304
0.375498
0.362197
0.349365
0.336966
0.324964
0.313329
0.302032
0.291051
0.280365
0.26996
0.259828
0.249962
0.240362
0.231025
0.221956
0.213156
0.204628
0.196376
0.188399
0.180697
0.173268
0.166106
0.159207
0.152563
0.146164
0.140003
0.134067
0.128348
0.122835
0.117516
0.112382
0.107425
0.102634
0.0980021
0.093523
0.0891903
0.0849992
0.0809456
0.0770262
0.0732382
0.0695798
0.0660491
0.0626452
0.0593664
0.0562123
0.0531811
0.0502723
0.0474839
0.0448151
0.0422633
0.0398272
0.0375037
0.0352911
0.0331856
0.0311854
0.029286
0.0274854
0.0257787
0.024164
0.0226359
0.0211927
0.0198286
0.0185424
0.0173279
0.0161843
0.0151055
0.0140907
0.0131341
0.0122352
0.0113882
0.0105929
0.00984384
0.00914095
0.0084793
0.00785857
0.00727472
0.00672691
0.00621232
0.00572916
0.00527634
0.0048506
0.00445307
0.0040784
0.00373068
0.00340165
0.00309919
0.00281113
0.00255019
0.00229895
0.00207657
0.00185851
0.00167273
0.00148375
0.00133195
0.00116791
0.00105282
0.000913011
0.000844037
0.00072105
0.000683231
0.000572183
0.000555419
0.000298994
0.000470416
0.00060826
0.000546966
0.000904099
0.000882837
0.00138457
0.000581629
0.00225219
0.00267655
0.00220805
0.00162223
0.00116402
0.000901365
0.0010505
0.00144374
0.40021
0.385806
0.371951
0.358611
0.345754
0.333346
0.321358
0.30976
0.298528
0.287636
0.277065
0.266797
0.25682
0.247122
0.237697
0.228541
0.21965
0.211024
0.202663
0.194568
0.186739
0.179175
0.171874
0.164835
0.158053
0.151522
0.145238
0.139192
0.133377
0.127784
0.122404
0.117228
0.112246
0.107449
0.102827
0.0983714
0.0940736
0.0899258
0.0859208
0.0820517
0.0783131
0.0746995
0.0712069
0.0678311
0.0645696
0.0614191
0.0583782
0.0554443
0.0526167
0.0498931
0.0472732
0.0447548
0.0423375
0.0400188
0.0377986
0.0356737
0.0336438
0.0317054
0.029858
0.0280974
0.0264233
0.0248308
0.0233197
0.0218846
0.0205255
0.0192366
0.0180179
0.0168636
0.0157738
0.0147427
0.0137704
0.0128511
0.0119854
0.0111673
0.0103975
0.00967061
0.00898687
0.00834196
0.00773528
0.00716387
0.00662599
0.00612056
0.00564413
0.00519811
0.00477661
0.00438439
0.00401221
0.0036691
0.00334139
0.00304359
0.00275605
0.00250056
0.0022494
0.00203434
0.00181534
0.00163832
0.00144725
0.00131113
0.00114706
0.00106139
0.000916528
0.000866219
0.000735415
0.000709479
0.000434968
0.000601503
0.000725209
0.000701556
0.00104722
0.000979018
0.00145116
0.0008874
0.0025366
0.00291608
0.00241524
0.00178176
0.00130638
0.0010079
0.00119306
0.00159395
0.397
0.382559
0.368672
0.355307
0.342434
0.330024
0.318048
0.306481
0.295298
0.284476
0.273994
0.263834
0.253981
0.24442
0.235143
0.22614
0.217406
0.208935
0.200725
0.192775
0.185082
0.177646
0.170464
0.163533
0.156852
0.150416
0.14422
0.138259
0.132527
0.127017
0.121721
0.116633
0.111743
0.107043
0.102525
0.0981809
0.0940018
0.0899795
0.0861063
0.0823744
0.0787768
0.0753068
0.0719585
0.068726
0.0656047
0.0625898
0.059678
0.0568653
0.0541495
0.0515274
0.0489977
0.0465576
0.0442067
0.0419421
0.0397639
0.0376692
0.0356584
0.0337283
0.0318795
0.0301082
0.0284153
0.0267965
0.0252526
0.023779
0.0223766
0.0210401
0.0197707
0.0185627
0.0174175
0.016329
0.0152987
0.0143205
0.0133958
0.0125187
0.0116905
0.0109057
0.0101651
0.00946415
0.00880271
0.00817769
0.00758755
0.00703128
0.00650531
0.00601141
0.0055432
0.00510615
0.00469009
0.00430528
0.00393653
0.00360022
0.00327445
0.00298377
0.00269719
0.00245042
0.00219884
0.00199399
0.0017732
0.0016133
0.00142221
0.00131684
0.00114742
0.00108154
0.000928752
0.000890476
0.000598324
0.000754399
0.00086062
0.00088484
0.00121435
0.00108015
0.00151724
0.00121516
0.00282735
0.00315393
0.00262571
0.00194793
0.00145885
0.00114074
0.00134387
0.00174641
0.393996
0.379535
0.365629
0.352249
0.339369
0.326961
0.314998
0.303457
0.292314
0.281548
0.271137
0.261063
0.25131
0.241862
0.232707
0.223835
0.215235
0.206901
0.198827
0.191009
0.183443
0.176127
0.169057
0.162231
0.155646
0.149297
0.143182
0.137296
0.131633
0.126187
0.120954
0.115925
0.111095
0.106457
0.102003
0.0977256
0.0936178
0.0896717
0.0858801
0.0822356
0.0787311
0.0753595
0.0721145
0.0689892
0.0659783
0.0630755
0.0602765
0.0575758
0.05497
0.0524543
0.0500265
0.0476823
0.0454205
0.0432374
0.0411324
0.0391021
0.0371468
0.0352627
0.033451
0.0317078
0.0300344
0.0284266
0.0268863
0.0254088
0.0239961
0.0226431
0.021352
0.0201173
0.0189415
0.0178186
0.0167511
0.0157328
0.0147664
0.0138456
0.0129727
0.0121421
0.0113553
0.0106076
0.00989949
0.00922783
0.00859139
0.00798926
0.0074179
0.00687942
0.0063671
0.00588714
0.00542853
0.00500276
0.0045932
0.00421815
0.00385351
0.00352659
0.00320325
0.00292306
0.00263699
0.0024021
0.00214937
0.00196306
0.00174248
0.00161429
0.00141777
0.00133276
0.001156
0.00110142
0.000795076
0.000932367
0.00101679
0.00110081
0.00140694
0.0011914
0.00158381
0.00156114
0.00312144
0.00338781
0.00283628
0.00211915
0.00161994
0.00129385
0.00150069
0.00189858
0.391179
0.376706
0.362791
0.349406
0.336526
0.324124
0.312176
0.300659
0.289551
0.27883
0.268478
0.258474
0.248803
0.239447
0.230394
0.221631
0.213146
0.204931
0.196977
0.189279
0.18183
0.174625
0.167662
0.160936
0.154444
0.148182
0.142145
0.13633
0.130733
0.125347
0.120168
0.115191
0.110409
0.105816
0.101406
0.0971727
0.0931096
0.0892099
0.0854671
0.0818744
0.0784255
0.0751135
0.0719326
0.068876
0.0659382
0.0631127
0.0603947
0.0577781
0.0552589
0.0528313
0.0504921
0.0482362
0.0460613
0.0439625
0.0419388
0.0399853
0.0381021
0.0362844
0.0345331
0.0328436
0.0312174
0.0296498
0.0281429
0.0266917
0.0252989
0.0239592
0.0226756
0.0214424
0.020263
0.0191313
0.0180508
0.0170153
0.0160282
0.0150834
0.014184
0.0133241
0.0125063
0.0117256
0.0109834
0.0102762
0.00960339
0.00896415
0.00835514
0.00777878
0.00722814
0.00671012
0.00621303
0.00574956
0.00530178
0.00488983
0.00448762
0.00412506
0.00376515
0.00345104
0.00312981
0.00286345
0.00257747
0.00236257
0.0021107
0.00195663
0.00173102
0.00162288
0.00142063
0.00134509
0.00103457
0.00113875
0.00119617
0.00135251
0.00162652
0.0013197
0.00165274
0.00192163
0.00341477
0.00361443
0.00304268
0.00229272
0.00178718
0.00145462
0.00166034
0.0020471
0.388526
0.374052
0.360135
0.346752
0.333878
0.321486
0.309555
0.298061
0.286984
0.276303
0.265999
0.256054
0.24645
0.237172
0.228203
0.219532
0.211146
0.203033
0.195185
0.187592
0.180249
0.173148
0.166285
0.159654
0.153251
0.147073
0.141113
0.13537
0.129837
0.12451
0.119385
0.114457
0.109719
0.105167
0.100795
0.0965971
0.0925676
0.0887006
0.0849902
0.0814303
0.0780152
0.0747387
0.0715954
0.0685791
0.0656847
0.062906
0.0602384
0.0576757
0.0552139
0.052847
0.0505715
0.0483817
0.046275
0.0442456
0.0422919
0.0404084
0.0385943
0.0368441
0.0351582
0.033531
0.0319638
0.030451
0.0289947
0.0275892
0.0262373
0.0249332
0.0236802
0.0224721
0.0213131
0.0201964
0.0191265
0.0180967
0.0171114
0.0161639
0.0152584
0.0143887
0.0135582
0.0127617
0.0120012
0.0112733
0.0105779
0.00991407
0.00927889
0.00867496
0.00809538
0.00754757
0.00701941
0.00652456
0.00604416
0.00559983
0.005164
0.00476865
0.00437465
0.00402796
0.00367276
0.00337486
0.0030558
0.00281102
0.00252727
0.0023447
0.00208898
0.00195358
0.00172497
0.00162368
0.00131835
0.0013764
0.00140125
0.00164093
0.00187458
0.00147213
0.00172804
0.00229259
0.00370188
0.00382926
0.00323967
0.00246472
0.00195692
0.00161979
0.00181872
0.00218786
0.386023
0.371553
0.357642
0.344266
0.331402
0.319024
0.307111
0.29564
0.284592
0.273947
0.263686
0.25379
0.244244
0.235029
0.226132
0.217539
0.209236
0.201212
0.193455
0.185956
0.178707
0.171701
0.164929
0.158388
0.15207
0.145972
0.140088
0.134415
0.128947
0.12368
0.118609
0.113729
0.109036
0.104524
0.100189
0.0960246
0.0920258
0.088187
0.084503
0.0809681
0.0775773
0.0743247
0.0712055
0.0682139
0.0653453
0.0625938
0.0599554
0.0574241
0.0549962
0.0526658
0.0504299
0.0482822
0.0462206
0.0442388
0.0423352
0.0405036
0.0387433
0.0370479
0.0354177
0.0338461
0.0323345
0.030876
0.0294729
0.0281184
0.0268155
0.0255571
0.0243472
0.0231785
0.0220556
0.0209709
0.0199296
0.018924
0.0179594
0.0170284
0.0161361
0.0152754
0.0144509
0.0136565
0.0128955
0.0121636
0.0114617
0.0107884
0.0101415
0.00952333
0.00892743
0.00836131
0.00781285
0.00729618
0.00679209
0.00632301
0.00586067
0.00543821
0.0050155
0.00463997
0.00425457
0.00392703
0.00357724
0.00330275
0.00298837
0.00277564
0.00249037
0.00232399
0.00206887
0.00193805
0.0016433
0.00164646
0.00163394
0.00196382
0.00215166
0.00165271
0.00181615
0.00266862
0.00397578
0.0040263
0.00342122
0.00263015
0.0021244
0.0017851
0.00197097
0.00231624
0.383653
0.369192
0.355292
0.341929
0.329078
0.316717
0.304823
0.293376
0.282356
0.271744
0.261521
0.251669
0.242172
0.233013
0.224177
0.21565
0.207418
0.19947
0.191792
0.184376
0.177211
0.170288
0.163601
0.157141
0.150904
0.144882
0.139071
0.133466
0.128062
0.122854
0.117838
0.113008
0.10836
0.10389
0.0995919
0.0954611
0.0914929
0.0876818
0.084023