/*--------------------------------*- C++ -*----------------------------------*\
| =========                 |                                                 |
| \\      /  F ield         | OpenFOAM: The Open Source CFD Toolbox           |
|  \\    /   O peration     | Version:  2412                                  |
|   \\  /    A nd           | Website:  www.openfoam.com                      |
|    \\/     M anipulation  |                                                 |
\*---------------------------------------------------------------------------*/
FoamFile
{
    version     2.0;
    format      ascii;
    arch        "LSB;label=32;scalar=64";
    class       surfaceScalarField;
    location    "0.595";
    object      phi;
}
// * * * * * * * * * * * * * * * * * * * * * * * * * * * * * * * * * * * * * //

dimensions      [0 3 -1 0 0 0 0];

oriented        oriented;

internalField   nonuniform List<scalar> 
24930
(
0.0179695
0.0127555
-0.0307255
0.0106058
0.00736374
0.00695518
0.00365061
0.005179
0.00177618
0.00420682
0.000972177
0.00358382
0.000623003
0.00313782
0.000445997
0.00279823
0.000339584
0.00252899
0.000269242
0.00230902
0.000219968
0.00212517
0.00018385
0.0019687
0.000156463
0.00183357
0.000135128
0.00171543
0.00011814
0.00161107
0.000104364
0.00151805
9.30156e-05
0.00143451
8.35405e-05
0.00135897
7.55359e-05
0.00129026
6.87032e-05
0.00122744
6.28174e-05
0.00116974
5.77056e-05
0.0011165
5.32335e-05
0.0010672
4.92953e-05
0.0010214
4.58066e-05
0.000978695
4.26993e-05
0.000938775
3.9918e-05
0.000901356
3.74175e-05
0.000866195
3.516e-05
0.000833079
3.31142e-05
0.000801825
3.12538e-05
0.000772267
2.95568e-05
0.000744263
2.8004e-05
0.000717682
2.65797e-05
0.000692413
2.52697e-05
0.00066835
2.40627e-05
0.000645403
2.29475e-05
0.000623487
2.19161e-05
0.000602528
2.09596e-05
0.000582456
2.00725e-05
0.00056321
1.92468e-05
0.000544731
1.84797e-05
0.000526969
1.77634e-05
0.000509872
1.70976e-05
0.000493399
1.64738e-05
0.000477505
1.58945e-05
0.000462156
1.53498e-05
0.000447311
1.48455e-05
0.000432942
1.4369e-05
0.000419011
1.39306e-05
0.000405497
1.35135e-05
0.000392363
1.31338e-05
0.000379594
1.2769e-05
0.000367151
1.24422e-05
0.000355027
1.21237e-05
0.000343181
1.18453e-05
0.000331613
1.15682e-05
0.000320278
1.13347e-05
0.000309183
1.10946e-05
0.000298279
1.09031e-05
0.000287583
1.06962e-05
0.000277039
1.05443e-05
0.000266672
1.03673e-05
0.000256419
1.0253e-05
0.000246316
1.01028e-05
0.000236292
1.0024e-05
0.000226394
9.89769e-06
0.000216541
9.85243e-06
0.000206793
9.74733e-06
0.000197059
9.7331e-06
0.000187411
9.64685e-06
0.000177751
9.65993e-06
0.00016816
9.59026e-06
0.000158534
9.62524e-06
0.000148963
9.56994e-06
0.000139343
9.61978e-06
0.000129765
9.57709e-06
0.000120132
9.63279e-06
0.000110529
9.60194e-06
0.000100878
9.65161e-06
9.12445e-05
9.63304e-06
8.15828e-05
9.66163e-06
7.19257e-05
9.65713e-06
6.22771e-05
9.64875e-06
5.26135e-05
9.66395e-06
4.30132e-05
9.60068e-06
3.33679e-05
9.64576e-06
2.38589e-05
9.50931e-06
1.42574e-05
9.60206e-06
4.88009e-06
9.37776e-06
-4.6595e-06
9.54023e-06
-1.38756e-05
9.21648e-06
-2.3399e-05
9.52301e-06
-3.23868e-05
8.98833e-06
-4.20086e-05
9.62485e-06
-5.08023e-05
8.7938e-06
-6.06386e-05
9.83337e-06
-6.88954e-05
8.25818e-06
-7.90362e-05
1.01419e-05
-8.68476e-05
7.80806e-06
-9.90206e-05
1.21802e-05
-0.000109479
1.04581e-05
-0.00012595
1.64583e-05
-0.00014228
1.63398e-05
-0.00016952
2.72502e-05
-0.000171429
1.90935e-06
-0.000174641
3.20946e-06
-0.00027821
0.000103585
-0.000286421
8.26598e-06
-9.08891e-05
-0.000195565
-0.000105988
1.49829e-05
-0.000507533
0.000401559
-0.000832945
0.00032546
-0.000660545
-0.000172408
-0.000242963
-0.000417597
0.000106874
-0.000349861
0.000315246
-0.000208379
0.00038973
-7.44896e-05
0.000359
3.07257e-05
0.000320909
3.81002e-05
-9.05568e-05
0.0336805
0.0163175
-0.0372425
0.0277463
0.013298
0.0221953
0.00920154
0.0179222
0.00604934
0.0148766
0.00401775
0.0127164
0.00278318
0.0111295
0.00203292
0.00991255
0.00155654
0.00894537
0.00123641
0.00815505
0.00101028
0.00749484
0.000844055
0.00693345
0.000717852
0.0064491
0.000619479
0.00602611
0.000541125
0.00565289
0.000477577
0.00532067
0.000425235
0.00502266
0.000381544
0.00475355
0.000344646
0.00450909
0.000313163
0.00428584
0.000286057
0.00408102
0.000262527
0.00389229
0.000241954
0.00371774
0.000223847
0.00355573
0.000207815
0.00340488
0.000193545
0.00326401
0.000180779
0.00313212
0.000169308
0.00300832
0.000158958
0.00289185
0.000149583
0.00278204
0.000141063
0.0026783
0.000133295
0.00258011
0.00012619
0.00248701
0.000119676
0.00239859
0.000113689
0.00231448
0.000108173
0.00223435
0.00010308
0.0021579
9.83701e-05
0.00208485
9.40049e-05
0.00201497
8.99561e-05
0.00194803
8.61909e-05
0.00188382
8.2691e-05
0.00182216
7.94269e-05
0.00176287
7.63892e-05
0.00170579
7.35485e-05
0.00165079
7.09048e-05
0.00159771
6.84259e-05
0.00154644
6.61225e-05
0.00149685
6.39561e-05
0.00144883
6.19501e-05
0.00140229
6.00564e-05
0.00135711
5.83138e-05
0.00131321
5.66602e-05
0.0012705
5.51539e-05
0.00122891
5.37139e-05
0.00118833
5.24223e-05
0.00114873
5.11739e-05
0.00110998
5.00795e-05
0.00107207
4.90037e-05
0.00103488
4.80919e-05
0.000998404
4.71728e-05
0.000962516
4.64316e-05
0.000927228
4.5655e-05
0.000892407
4.50742e-05
0.000858083
4.44272e-05
0.00082411
4.39967e-05
0.00079054
4.3467e-05
0.000757215
4.31771e-05
0.000724209
4.2753e-05
0.000691348
4.25928e-05
0.00065873
4.22632e-05
0.000626172
4.22174e-05
0.00059379
4.19706e-05
0.000561395
4.20186e-05
0.000529122
4.18419e-05
0.000496784
4.19569e-05
0.000464522
4.18378e-05
0.000432167
4.19866e-05
0.000399854
4.19139e-05
0.00036745
4.20538e-05
0.000335064
4.20189e-05
0.000302629
4.20957e-05
0.000270193
4.20928e-05
0.000237791
4.20505e-05
0.000205368
4.20866e-05
0.000173106
4.1863e-05
0.00014079
4.19618e-05
0.000108801
4.14986e-05
7.66957e-05
4.17079e-05
4.51075e-05
4.09665e-05
1.33448e-05
4.13032e-05
-1.77999e-05
4.03616e-05
-4.93536e-05
4.10776e-05
-7.9848e-05
3.94826e-05
-0.000111443
4.12196e-05
-0.000141422
3.87739e-05
-0.000173221
4.16344e-05
-0.000201783
3.68188e-05
-0.000234107
4.24673e-05
-0.000261884
3.55842e-05
-0.000300616
5.09039e-05
-0.000336667
4.6512e-05
-0.000388758
6.85551e-05
-0.000442498
7.00709e-05
-0.000525994
0.000110743
-0.000525389
1.29601e-06
-0.000560757
3.85756e-05
-0.000865926
0.000408748
-0.00084534
-1.23621e-05
-0.000279864
-0.000761019
-0.000411428
0.000146627
-0.00163817
0.00162829
-0.00251113
0.0011984
-0.00190448
-0.000779025
-0.000615864
-0.0017062
0.000440412
-0.00140612
0.00106222
-0.000830189
0.00127494
-0.000287211
0.00117172
0.000133944
0.0010951
0.000114712
-0.00038479
0.0414497
0.0160112
-0.0411433
0.0391622
0.0155854
0.0352348
0.0131289
0.0309506
0.0103335
0.0270377
0.00793067
0.0237502
0.00607068
0.021077
0.00470619
0.0189091
0.00372442
0.017132
0.00301345
0.0156533
0.00248903
0.0144039
0.00209342
0.0133337
0.00178812
0.0124056
0.00154754
0.0115923
0.00135444
0.0108729
0.00119695
0.0102315
0.00106667
0.00965543
0.000957577
0.00913486
0.000865215
0.00866176
0.000786258
0.00822964
0.000718173
0.00783316
0.000659005
0.00746789
0.000607224
0.00713011
0.000561618
0.0068167
0.00052122
0.006525
0.000485244
0.00625272
0.000453053
0.00599791
0.000424121
0.00575885
0.000398012
0.00553407
0.000374363
0.00532226
0.000352868
0.00512228
0.00033327
0.00493312
0.000315349
0.00475388
0.000298918
0.00458376
0.000283815
0.00442203
0.000269903
0.00426805
0.000257059
0.00412124
0.000245182
0.00398107
0.000234176
0.00384706
0.000223967
0.00371877
0.000214475
0.00359582
0.00020565
0.00347782
0.000197424
0.00336445
0.000189764
0.00325539
0.000182606
0.00315036
0.000175937
0.0030491
0.000169692
0.00295134
0.000163878
0.00285688
0.000158421
0.00276548
0.000153353
0.00267695
0.000148585
0.00259109
0.000144175
0.00250773
0.000140013
0.00242669
0.000136192
0.00234783
0.000132571
0.00227097
0.000129282
0.002196
0.000126146
0.00212273
0.000123345
0.00205109
0.000120647
0.00198089
0.000118295
0.00191206
0.000115996
0.00184443
0.000114061
0.00177796
0.000112128
0.00171245
0.000110583
0.00164789
0.000108984
0.00158409
0.000107803
0.00152105
0.000106508
0.00145855
0.000105667
0.00139666
0.000104648
0.00133513
0.000104119
0.00127405
0.000103348
0.00121317
0.000103095
0.00115259
0.000102541
0.00109209
0.000102518
0.00103179
0.000102147
0.000971449
0.000102293
0.000911218
0.000102068
0.000850893
0.00010231
0.000790611
0.000102195
0.000730226
0.000102438
0.000669844
0.0001024
0.000609414
0.000102525
0.000548973
0.000102534
0.000488604
0.000102419
0.000428218
0.000102472
0.000368099
0.000101982
0.000307948
0.000102114
0.000248324
0.000101123
0.000188604
0.000101428
0.000129719
9.98525e-05
7.05944e-05
0.000100429
1.26594e-05
9.8297e-05
-4.57863e-05
9.95241e-05
-0.000102667
9.63635e-05
-0.000160919
9.94728e-05
-0.000216866
9.47216e-05
-0.000275003
9.97736e-05
-0.000328567
9.03834e-05
-0.0003873
0.000101199
-0.000440014
8.83006e-05
-0.000510091
0.000120977
-0.000577132
0.000113549
-0.000670292
0.000161717
-0.000767149
0.000166927
-0.000910696
0.000254286
-0.000906776
-2.5898e-06
-0.000993284
0.000125085
-0.00150182
0.000917281
-0.00141697
-9.71815e-05
-0.000488846
-0.00168915
-0.000821556
0.000479345
-0.00291603
0.00372277
-0.004256
0.00253837
-0.00309518
-0.00193985
-0.000856478
-0.00394489
0.000937193
-0.00319979
0.0019855
-0.0018785
0.00233126
-0.000632973
0.00214845
0.000316752
0.00206339
0.000199777
-0.00092917
0.0459118
0.0147104
-0.0446111
0.0459966
0.0155007
0.0444199
0.0147056
0.0416987
0.0130547
0.0384576
0.0111718
0.0351551
0.00937317
0.0320587
0.0078026
0.0292827
0.00650036
0.0268461
0.00545003
0.0247229
0.00461223
0.022872
0.00394432
0.0212516
0.00340859
0.0198244
0.00297474
0.0185592
0.00261955
0.0174306
0.00232554
0.0164177
0.00207957
0.0155035
0.00187178
0.0146741
0.00169462
0.0139181
0.00154232
0.0132258
0.00141039
0.0125895
0.00129531
0.0120025
0.00119429
0.011459
0.0011051
0.0109543
0.00102591
0.0104842
0.000955277
0.0100453
0.000891976
0.00963443
0.000835012
0.00924888
0.000783552
0.00888635
0.000736898
0.00854475
0.000694462
0.00822227
0.000655746
0.0079173
0.000620323
0.00762838
0.000587831
0.00735425
0.000557952
0.00709373
0.000530421
0.00684579
0.000504997
0.00660949
0.00048148
0.00638399
0.000459683
0.0061685
0.000439457
0.00596232
0.000420654
0.00576481
0.000403164
0.00557538
0.000386861
0.00539347
0.000371673
0.00521859
0.000357484
0.00505027
0.000344256
0.00488809
0.000331874
0.00473164
0.000320333
0.00458055
0.000309512
0.00443446
0.000299442
0.00429306
0.000289984
0.00415603
0.000281211
0.00402308
0.000272954
0.00389394
0.000265339
0.00376835
0.000258152
0.00364605
0.000251582
0.00352684
0.000245358
0.00341044
0.00023974
0.0032967
0.000234387
0.00318535
0.000229645
0.00307626
0.000225087
0.00296917
0.000221156
0.00286397
0.000217326
0.0027604
0.000214152
0.00265839
0.00021099
0.00255768
0.00020852
0.00245821
0.00020597
0.00235973
0.000204155
0.00226221
0.000202161
0.00216538
0.000200949
0.00206927
0.000199457
0.00197358
0.000198779
0.0018784
0.000197728
0.00178341
0.000197497
0.00168874
0.000196817
0.00159411
0.000196925
0.00149964
0.000196539
0.00140509
0.00019685
0.00131061
0.00019668
0.00121602
0.000197024
0.00112143
0.00019699
0.0010268
0.000197152
0.000932157
0.00019718
0.000837637
0.000196938
0.000743111
0.000196999
0.000648984
0.000196108
0.000554859
0.00019624
0.000461507
0.000194475
0.000368109
0.000194827
0.000275927
0.000192035
0.000183537
0.000192819
9.28938e-05
0.00018894
2.08875e-06
0.00019033
-8.72131e-05
0.000185666
-0.000177748
0.000190008
-0.000265094
0.000182069
-0.000354969
0.000189649
-0.000438681
0.000174096
-0.00052919
0.000191707
-0.000612074
0.000171187
-0.000719424
0.000228326
-0.000822864
0.000216987
-0.000963448
0.000302302
-0.00110863
0.000312111
-0.00131546
0.000461113
-0.00131037
-7.5761e-06
-0.00146373
0.000278455
-0.00217215
0.0016257
-0.0019914
-0.000277945
-0.000720022
-0.00296052
-0.00133669
0.00109601
-0.00431218
0.00669826
-0.00601808
0.00424426
-0.00417878
-0.00377914
-0.000919711
-0.00720395
0.00163569
-0.00575518
0.00311915
-0.00336196
0.00359297
-0.00110679
0.00332906
0.000580655
0.00326786
0.00026097
-0.00177831
0.0493785
0.0135155
-0.0481835
0.0503432
0.0145359
0.0503629
0.0146859
0.049343
0.0140747
0.0475008
0.0130139
0.0451289
0.0117452
0.0424985
0.0104329
0.0398162
0.00918271
0.0372165
0.00804968
0.034774
0.00705472
0.0325209
0.00619744
0.0304631
0.00546639
0.0285923
0.00484559
0.0268934
0.00431839
0.0253495
0.00386945
0.0239436
0.00348545
0.0226601
0.00315527
0.021485
0.00286977
0.0204058
0.0026215
0.0194118
0.0024044
0.0184935
0.00221354
0.0176429
0.00204489
0.0168529
0.00189516
0.0161172
0.00176162
0.0154304
0.00164201
0.0147879
0.00153446
0.0141856
0.00143739
0.0136196
0.00134948
0.0130869
0.0012696
0.0125846
0.00119681
0.01211
0.00113028
0.011661
0.00106933
0.0112355
0.00101334
0.0108317
0.000961804
0.0104478
0.000914266
0.0100825
0.000870328
0.00973432
0.000829651
0.00940208
0.000791925
0.00908465
0.000756894
0.00878099
0.000724309
0.00849018
0.000693982
0.00821134
0.000665702
0.00794367
0.000639338
0.00768646
0.000614704
0.007439
0.000591718
0.00720067
0.000570204
0.00697087
0.000550131
0.00674907
0.000531315
0.00653473
0.000513782
0.00632739
0.000497323
0.00612657
0.000482028
0.00593188
0.00046765
0.00574286
0.000454349
0.00555919
0.000441826
0.00538045
0.000430325
0.00520633
0.00041947
0.00503646
0.000409606
0.00487059
0.000400265
0.00470833
0.000391904
0.00454947
0.000383943
0.00439365
0.000376974
0.0042407
0.000370281
0.00409024
0.000364605
0.00394216
0.000359078
0.00379607
0.000354606
0.00365189
0.000350148
0.00350925
0.000346795
0.0033681
0.000343315
0.00322805
0.00034099
0.00308912
0.000338392
0.00295091
0.000336984
0.00281347
0.000335164
0.00267644
0.000334528
0.00253989
0.000333366
0.00240349
0.000333323
0.00226734
0.000332683
0.00213118
0.000333015
0.00199511
0.000332751
0.00185895
0.00033318
0.00172279
0.000333145
0.00158662
0.000333322
0.00145043
0.00033337
0.00131444
0.00033293
0.00117845
0.000332985
0.00104304
0.000331526
0.000907662
0.000331616
0.00077337
0.000328767
0.000639092
0.000329106
0.000506521
0.000324607
0.000373788
0.000325554
0.000243525
0.000319204
0.000112719
0.000321137
-1.49672e-05
0.000313353
-0.000144392
0.000319434
-0.000269499
0.000307177
-0.00039747
0.000317622
-0.000517318
0.000293945
-0.000645887
0.000320275
-0.000764909
0.00029021
-0.0009162
0.000379616
-0.00106188
0.000362665
-0.00125662
0.000497047
-0.00145509
0.000510574
-0.00172826
0.00073428
-0.00172537
-1.04148e-05
-0.00196005
0.000513137
-0.00285812
0.00252377
-0.00255315
-0.000582905
-0.000971185
-0.00454248
-0.00194837
0.00207321
-0.00578402
0.0105339
-0.00772757
0.0061878
-0.00508644
-0.00642027
-0.000748716
-0.0115417
0.0025811
-0.00908498
0.00450398
-0.00528484
0.00510226
-0.00170507
0.00476123
0.000921677
0.0047616
0.000260596
-0.00299291
0.0528377
0.012617
-0.0519392
0.0538667
0.013507
0.0545514
0.0140011
0.0546218
0.0140043
0.0540251
0.0136106
0.0528306
0.0129396
0.0511675
0.0120961
0.0491819
0.0111683
0.0470084
0.0102231
0.0447575
0.00930562
0.0425114
0.00844361
0.040326
0.00765179
0.0382359
0.00693565
0.0362597
0.00629463
0.0344047
0.00572446
0.0326711
0.00521903
0.0310549
0.00477148
0.0295496
0.00437504
0.0281478
0.00402333
0.0268415
0.00371061
0.0256233
0.00343183
0.0244856
0.00318257
0.0234217
0.00295905
0.0224253
0.00275797
0.0214908
0.00257656
0.0206128
0.00241239
0.0197868
0.0022634
0.0190085
0.00212782
0.018274
0.00200411
0.0175798
0.00189096
0.0169229
0.00178722
0.0163003
0.00169188
0.0157095
0.0016041
0.0151482
0.00152311
0.0146142
0.00144826
0.0141056
0.00137894
0.0136206
0.00131467
0.0131576
0.00125497
0.012715
0.00119947
0.0122915
0.00114777
0.0118859
0.00109961
0.011497
0.00105465
0.0111236
0.0010127
0.0107649
0.000973465
0.0104197
0.000936822
0.0100874
0.000902507
0.00976713
0.000870454
0.00945804
0.000840401
0.00915946
0.000812358
0.00887075
0.000786036
0.00859125
0.00076153
0.00832039
0.000738507
0.00805758
0.000717157
0.00780233
0.000697078
0.00755407
0.000678575
0.0073124
0.000661148
0.00707677
0.000645235
0.00684681
0.000630216
0.00662204
0.000616678
0.00640212
0.00060386
0.00618657
0.000592521
0.00597513
0.000581728
0.0057673
0.000572431
0.00556288
0.000563502
0.00536138
0.000556105
0.00516263
0.000548892
0.00496617
0.000543261
0.00477186
0.00053762
0.00457924
0.000533614
0.00438823
0.000529396
0.00419837
0.000526842
0.00400965
0.000523884
0.00382161
0.000522563
0.0036343
0.000520674
0.00344731
0.000520315
0.00326071
0.000519279
0.00307418
0.000519548
0.0028878
0.000519129
0.00270137
0.000519606
0.00251496
0.000519553
0.00232858
0.000519706
0.00214217
0.000519772
0.00195606
0.000519044
0.00176997
0.000519076
0.00158465
0.000516845
0.00139943
0.000516842
0.00121566
0.000512533
0.00103199
0.000512776
0.000850638
0.000505962
0.000669202
0.00050699
0.000491143
0.000497264
0.000312512
0.00049977
0.000138324
0.000487542
-3.75999e-05
0.000495359
-0.000208207
0.000477784
-0.000381677
0.000491094
-0.000544694
0.000456963
-0.000718574
0.000494154
-0.00088057
0.000452208
-0.00108318
0.000582226
-0.00127739
0.000556871
-0.00153329
0.000752947
-0.00178963
0.00076691
-0.00213188
0.00107654
-0.00213561
-6.78671e-06
-0.00246372
0.000841261
-0.00353445
0.0035945
-0.0030825
-0.00103486
-0.00123449
-0.00639049
-0.0026351
0.00347383
-0.00727049
0.0151693
-0.00929721
0.0082145
-0.00573929
-0.00997818
-0.000280816
-0.0170001
0.00382734
-0.0131931
0.00619007
-0.00764756
0.00691222
-0.00242722
0.00650427
0.00132962
0.00660865
0.000156212
-0.00463796
0.0565589
0.0119298
-0.0558716
0.0574129
0.012653
0.0582101
0.0132039
0.0587378
0.0134766
0.0588738
0.0134746
0.0585724
0.0132411
0.0578429
0.0128256
0.0567331
0.0122781
0.0553113
0.0116448
0.053653
0.0109639
0.0518314
0.0102653
0.0499117
0.00957148
0.0479485
0.00889886
0.0459847
0.00825839
0.0440524
0.00765676
0.042174
0.00709741
0.0403642
0.00658127
0.0386317
0.00610757
0.0369806
0.00567436
0.0354122
0.00527907
0.0339252
0.00491878
0.0325173
0.00459046
0.0311852
0.00429118
0.029925
0.00401815
0.0287328
0.00376878
0.0276045
0.00354071
0.0265361
0.0033318
0.0255237
0.00314014
0.0245638
0.00296402
0.0236529
0.00280191
0.0227876
0.00265244
0.0219651
0.00251441
0.0211825
0.00238676
0.0204371
0.00226851
0.0197265
0.00215884
0.0190485
0.00205696
0.0184009
0.00196222
0.0177819
0.00187401
0.0171896
0.00179179
0.0166223
0.00171506
0.0160785
0.00164342
0.0155567
0.00157644
0.0150555
0.00151383
0.0145738
0.0014552
0.0141103
0.00140036
0.0136638
0.00134894
0.0132335
0.00130084
0.0128182
0.0012557
0.012417
0.00121351
0.0120292
0.00117389
0.0116537
0.00113694
0.01129
0.00110222
0.0109372
0.00106995
0.0105947
0.00103961
0.0102617
0.00101158
0.00993765
0.000985195
0.00962187
0.00096101
0.00931385
0.00093823
0.00901295
0.000917584
0.00871871
0.000898101
0.0084305
0.00088073
0.00814794
0.000864288
0.0078704
0.000849963
0.00759758
0.000836328
0.00732885
0.000824836
0.00706395
0.000813789
0.00680228
0.000804935
0.00654363
0.000796267
0.0062874
0.000789843
0.00603345
0.000783337
0.0057812
0.000779093
0.00553057
0.000774508
0.00528101
0.000772128
0.0050325
0.000769182
0.00478454
0.000768275
0.00453717
0.000766646
0.00428998
0.00076673
0.00404305
0.00076606
0.00379613
0.000766527
0.00354925
0.000766429
0.00330245
0.000766506
0.00305563
0.000766589
0.00280921
0.000765462
0.00256283
0.000765456
0.00231747
0.00076221
0.00207225
0.00076206
0.00182895
0.000755834
0.00158585
0.000755881
0.0013458
0.000746006
0.00110579
0.000746999
0.000870296
0.000732762
0.000634254
0.000735813
0.000404266
0.000717531
0.000172064
0.000727561
-5.23282e-05
0.000702178
-0.000279735
0.000718503
-0.000494206
0.000671435
-0.000721731
0.000721677
-0.000934482
0.00066496
-0.00119653
0.000844269
-0.00144594
0.000806288
-0.00177015
0.00107715
-0.0020884
0.00108516
-0.00250238
0.00149052
-0.00251747
8.23571e-06
-0.00294786
0.00127166
-0.00416798
0.00481462
-0.00355386
-0.00164898
-0.00149278
-0.00845156
-0.0033583
0.00533937
-0.00869007
0.020501
-0.0106219
0.0101463
-0.00604602
-0.014554
0.000558275
-0.0236044
0.00544019
-0.018075
0.00823953
-0.0104469
0.00908909
-0.00327677
0.00863119
0.00178751
0.00888579
-9.83778e-05
-0.00677974
0.0605653
0.0113663
-0.0600019
0.0612502
0.0119682
0.0619653
0.0124887
0.0625881
0.0128539
0.0630209
0.0130418
0.0631999
0.013062
0.0630896
0.0129359
0.0626795
0.0126882
0.0619798
0.0123445
0.0610151
0.0119286
0.0598199
0.0114605
0.0584337
0.0109577
0.0568976
0.0104349
0.0552517
0.00990428
0.0535328
0.00937566
0.0517733
0.00885695
0.0500004
0.00835418
0.0482362
0.00787176
0.0464979
0.00741265
0.0447983
0.0069786
0.0431467
0.00657038
0.0415492
0.006188
0.0400095
0.00583087
0.0385296
0.00549807
0.03711
0.00518837
0.0357502
0.00490044
0.0344492
0.00463287
0.0332051
0.00438424
0.0320159
0.00415316
0.0308795
0.00393833
0.0297935
0.00373849
0.0287554
0.00355247
0.0277629
0.00337921
0.0268138
0.0032177
0.0259055
0.00306704
0.0250361
0.00292638
0.0242034
0.00279497
0.0234053
0.00267208
0.02264
0.00255712
0.0219056
0.00244947
0.0212003
0.00234864
0.0205227
0.00225411
0.019871
0.0021655
0.0192439
0.00208233
0.0186399
0.00200434
0.0180578
0.00193109
0.0174962
0.00186242
0.016954
0.00179787
0.0164301
0.00173743
0.0159234
0.0016806
0.0154328
0.00162748
0.0149575
0.00157753
0.0144965
0.001531
0.0140489
0.00148723
0.0136138
0.00144667
0.0131905
0.00140851
0.0127781
0.00137341
0.0123759
0.00134037
0.0119832
0.00131029
0.0115993
0.00128196
0.0112235
0.00125655
0.0108552
0.00123257
0.0104937
0.0012115
0.0101385
0.00119155
0.00978879
0.00117453
0.00944427
0.00115831
0.00910414
0.00114506
0.00876812
0.00113228
0.00843545
0.00112252
0.0081059
0.00111288
0.00777874
0.00110626
0.00745382
0.00109942
0.00713045
0.0010955
0.00680856
0.00109107
0.00648752
0.00108931
0.00616734
0.00108683
0.0058475
0.00108657
0.00552804
0.00108552
0.00520866
0.0010859
0.00488937
0.00108572
0.00457021
0.00108566
0.00425103
0.00108577
0.00393237
0.00108412
0.00361375
0.00108408
0.00329643
0.00107954
0.0029793
0.00107919
0.00266462
0.00107051
0.00235026
0.00107025
0.00203986
0.0010564
0.00172965
0.00105721
0.00142536
0.00103706
0.0011206
0.00104057
0.000823924
0.00101421
0.000524703
0.00102678
0.00023659
0.000990291
-5.44947e-05
0.00100959
-0.00033081
0.000947751
-0.000621398
0.00101226
-0.000893794
0.000937357
-0.00122407
0.00117455
-0.00153576
0.00111797
-0.00193541
0.00147681
-0.00231893
0.00146866
-0.00280698
0.00197857
-0.00283807
3.92918e-05
-0.00337511
0.0018087
-0.00471611
0.00615562
-0.00393347
-0.00243163
-0.0017155
-0.0106695
-0.00405852
0.00768241
-0.00993975
0.0263823
-0.0115785
0.011785
-0.00590303
-0.0202295
0.00185412
-0.0313615
0.00750009
-0.023721
0.0107295
-0.0136763
0.0117151
-0.00426233
0.0112313
0.0022713
0.0116847
-0.000551759
-0.00948351
0.0648507
0.0108816
-0.064366
0.0654165
0.0114024
0.0660247
0.0118806
0.06661
0.0122685
0.06711
0.0125418
0.0674761
0.0126959
0.067673
0.012739
0.0676767
0.0126844
0.0674742
0.0125471
0.0670613
0.0123415
0.0664417
0.0120801
0.0656259
0.0117736
0.0646296
0.0114312
0.0634727
0.0110612
0.0621778
0.0106705
0.0607689
0.0102658
0.0592704
0.00985271
0.0577056
0.0094366
0.0560961
0.00902211
0.0544614
0.00861327
0.0528184
0.00821344
0.0511811
0.0078253
0.0495611
0.00745087
0.0479675
0.00709159
0.0464075
0.00674838
0.0448863
0.00642169
0.0434075
0.00611165
0.0419736
0.00581809
0.0405862
0.00554065
0.0392457
0.00527881
0.0379522
0.00503196
0.0367053
0.0047994
0.035504
0.00458044
0.0343474
0.00437434
0.033234
0.00418039
0.0321625
0.00399788
0.0311313
0.00382616
0.0301389
0.00366455
0.0291835
0.00351246
0.0282637
0.00336929
0.0273778
0.00323454
0.0265243
0.00310764
0.0257016
0.00298821
0.0249082
0.0028757
0.0241427
0.00276984
0.0234037
0.00267009
0.0226898
0.0025763
0.0219998
0.00248792
0.0213323
0.00240493
0.0206862
0.00232673
0.0200602
0.00225346
0.0194533
0.00218442
0.0188643
0.00211996
0.0182923
0.00205924
0.0177362
0.00200282
0.017195
0.0019497
0.0166677
0.00190067
0.0161535
0.00185452
0.0156515
0.00181234
0.0151608
0.00177263
0.0146806
0.00173683
0.01421
0.0017031
0.0137483
0.00167325
0.0132947
0.0016451
0.0128484
0.00162083
0.0124089
0.00159785
0.0119752
0.00157879
0.0115468
0.0015606
0.011123
0.00154638
0.0107033
0.00153258
0.0102868
0.00152274
0.00987332
0.00151288
0.00946199
0.00150683
0.00905266
0.00150039
0.00864456
0.00149741
0.00823762
0.00149376
0.00783123
0.00149295
0.00742537
0.00149138
0.00701968
0.00149159
0.0066141
0.0014913
0.0062087
0.00149106
0.00580325
0.00149121
0.00539844
0.00148894
0.00499364
0.00148888
0.00459043
0.00148275
0.00418745
0.00148217
0.00378754
0.00147042
0.00338805
0.00146974
0.00299361
0.00145084
0.00259955
0.00145128
0.00221311
0.0014235
0.00182635
0.00142733
0.00145021
0.00139036
0.00107134
0.00140565
0.000707452
0.00135418
0.000339112
0.00137793
-9.70915e-06
0.00129657
-0.000372614
0.00137517
-0.000715031
0.00127978
-0.00112294
0.00158246
-0.00150433
0.00149935
-0.00198641
0.00195889
-0.00243769
0.00191995
-0.0030019
0.00254278
-0.00305223
8.9633e-05
-0.00369523
0.00245171
-0.00512465
0.00758504
-0.00417583
-0.00338045
-0.00185392
-0.0129914
-0.00465199
0.0104805
-0.0108947
0.032625
-0.0120264
0.0129166
-0.00519218
-0.0270637
0.00370741
-0.0402611
0.0101059
-0.0301195
0.0137557
-0.0173261
0.0148913
-0.00539792
0.0144127
0.0027499
0.0151143
-0.00125337
-0.0128105
0.069424
0.0104538
-0.0689962
0.0699078
0.0109186
0.0704288
0.0113596
0.0709511
0.0117462
0.0714353
0.0120577
0.0718473
0.0122839
0.0721613
0.012425
0.072358
0.0124878
0.0724231
0.0124819
0.0723469
0.0124177
0.0721223
0.0123047
0.0717456
0.0121502
0.0712162
0.0119606
0.0705365
0.0117409
0.0697118
0.0114952
0.0687507
0.0112269
0.0676642
0.0109392
0.0664658
0.0106351
0.0651702
0.0103177
0.0637933
0.00999017
0.062351
0.00965569
0.060859
0.00931731
0.0593319
0.00897796
0.0577832
0.00864032
0.0562248
0.00830674
0.0546673
0.00797925
0.0531194
0.00765953
0.0515886
0.00734891
0.0500808
0.00704838
0.048601
0.00675866
0.0471527
0.00648022
0.0457388
0.00621332
0.0443612
0.00595804
0.0430212
0.00571431
0.0417196
0.00548199
0.0404567
0.00526081
0.0392324
0.00505049
0.0380463
0.00485065
0.0368978
0.00466094
0.0357861
0.00448093
0.0347104
0.00431028
0.0336695
0.00414852
0.0326624
0.00399534
0.0316879
0.00385025
0.0307447
0.00371303
0.0298316
0.00358314
0.0289475
0.00346047
0.028091
0.00334442
0.0272609
0.00323504
0.026456
0.00313162
0.025675
0.0030344
0.0249169
0.00294255
0.0241804
0.0028565
0.0234643
0.00277527
0.0227676
0.00269955
0.0220892
0.00262813
0.0214278
0.002562
0.0207827
0.00249967
0.0201525
0.0024425
0.0195365
0.00238864
0.0189335
0.00233987
0.0183426
0.00229394
0.0177628
0.00225305
0.0171934
0.00221455
0.0166331
0.00218109
0.0160814
0.00214953
0.0155372
0.00212306
0.0149998
0.00209795
0.0144682
0.00207799
0.0139419
0.00205884
0.0134199
0.00204481
0.0129017
0.00203105
0.0123863
0.00202219
0.0118736
0.00201313
0.0113625
0.00200851
0.0108529
0.00200333
0.0103441
0.00200178
0.00983595
0.00199953
0.00932802
0.00199951
0.00882021
0.00199911
0.0083126
0.00199868
0.00780484
0.00199897
0.0072978
0.00199598
0.00679068
0.001996
0.00628544
0.00198798
0.00578041
0.00198721
0.00527912
0.0019717
0.00477835
0.00197051
0.00428388
0.00194531
0.00378998
0.00194518
0.00330577
0.00190771
0.00282146
0.00191164
0.00235088
0.00186094
0.00187754
0.00187899
0.00142387
0.00180785
0.000964703
0.0018371
0.000533362
0.00172792
8.37578e-05
0.00182477
-0.000341523
0.00170506
-0.000836585
0.00207752
-0.00129563
0.00195839
-0.00186668
0.00252993
-0.00238732
0.00244059
-0.00302906
0.00318451
-0.00309955
0.000160124
-0.00384228
0.00319445
-0.00532492
0.00906767
-0.00421912
-0.00448625
-0.00183594
-0.0153746
-0.00502766
0.0136722
-0.011409
0.0390063
-0.0118083
0.0133159
-0.00377805
-0.0350939
0.0062372
-0.0502763
0.0133788
-0.037261
0.0174362
-0.0213835
0.018741
-0.00670273
0.0183052
0.00318567
0.0193042
-0.00225229
-0.0168148
0.0743047
0.0100706
-0.0739216
0.0747293
0.010494
0.0751843
0.0109046
0.0756489
0.0112815
0.0760974
0.0116092
0.076505
0.0118762
0.0768521
0.0120779
0.077124
0.0122159
0.0773103
0.0122956
0.0774037
0.0123243
0.0773985
0.0123099
0.0772896
0.0122591
0.0770726
0.0121775
0.0767438
0.0120697
0.0763
0.011939
0.0757393
0.0117876
0.0750616
0.0116169
0.0742684
0.0114282
0.0733639
0.0112223
0.0723538
0.0110002
0.0712461
0.0107633
0.0700504
0.0105131
0.0687771
0.0102512
0.0674376
0.00997979
0.0660435
0.00970084
0.0646062
0.00941655
0.0631367
0.00912905
0.0616452
0.00884038
0.0601411
0.00855243
0.0586329
0.00826687
0.0571279
0.00798521
0.0556326
0.00770869
0.0541522
0.00743838
0.0526914
0.0071751
0.0512539
0.00691954
0.0498425
0.00667217
0.0484597
0.00643335
0.0471071
0.00620328
0.0457859
0.00598211
0.044497
0.00576983
0.0432408
0.00556646
0.0420175
0.00537183
0.0408269
0.0051859
0.0396688
0.00500837
0.0385426
0.00483923
0.0374477
0.00467803
0.0363834
0.00452484
0.0353487
0.00437909
0.0343428
0.00424097
0.0333646
0.00410975
0.0324132
0.00398581
0.0314875
0.00386823
0.0305864
0.00375763
0.0297088
0.00365286
0.0288535
0.00355482
0.0280196
0.00346207
0.0272057
0.00337589
0.0264109
0.00329446
0.0256339
0.00321949
0.0248738
0.00314875
0.0241293
0.0030844
0.0233995
0.00302376
0.022683
0.00296952
0.0219791
0.00291843
0.0212864
0.00287377
0.0206043
0.00283168
0.0199312
0.0027961
0.0192667
0.00276247
0.0186093
0.0027354
0.0179585
0.00270962
0.017313
0.00269036
0.0166723
0.00267173
0.0160351
0.00265937
0.0154012
0.00264704
0.0147693
0.00264039
0.0141393
0.00263333
0.0135102
0.00263087
0.0128819
0.00262784
0.0122538
0.00262762
0.0116257
0.00262719
0.0109977
0.00262666
0.0103694
0.00262729
0.0097418
0.0026236
0.00911387
0.00262392
0.00848808
0.00261378
0.00786233
0.00261296
0.00724104
0.00259299
0.00662027
0.00259129
0.00600722
0.00255836
0.00539492
0.00255748
0.00479475
0.00250788
0.00419475
0.00251164
0.00361228
0.0024434
0.00302714
0.00246414
0.00246743
0.00236755
0.0019014
0.00240314
0.00137156
0.00225776
0.000817954
0.00237838
0.000301787
0.00222123
-0.000290561
0.00266987
-0.000836775
0.00250461
-0.00150241
0.00319556
-0.0020931
0.00303128
-0.00281276
0.00390417
-0.00290034
0.000247712
-0.00373134
0.00402546
-0.00522987
0.0105662
-0.00397941
-0.00573672
-0.00156092
-0.0177931
-0.00504495
0.0171563