/*--------------------------------*- C++ -*----------------------------------*\
| =========                 |                                                 |
| \\      /  F ield         | OpenFOAM: The Open Source CFD Toolbox           |
|  \\    /   O peration     | Version:  2412                                  |
|   \\  /    A nd           | Website:  www.openfoam.com                      |
|    \\/     M anipulation  |                                                 |
\*---------------------------------------------------------------------------*/
FoamFile
{
    version     2.0;
    format      ascii;
    arch        "LSB;label=32;scalar=64";
    class       volVectorField;
    location    "0.125";
    object      ddtCorrDdt0(U);
}
// * * * * * * * * * * * * * * * * * * * * * * * * * * * * * * * * * * * * * //

dimensions      [0 1 -2 0 0 0 0];

internalField   nonuniform List<vector> 
12600
(
(-113.298 0 -131.093)
(78.7881 -4.22124e-18 -37.7374)
(81.0343 -2.98704e-18 -27.2619)
(68.2608 0 -31.0359)
(59.5799 1.01252e-19 -31.3149)
(52.3418 0 -29.0691)
(46.7617 2.59698e-18 -26.5082)
(42.1142 0 -24.1069)
(38.0052 0 -21.8729)
(34.4082 0 -19.5765)
(30.9941 0 -17.7096)
(27.9947 3.45132e-18 -16.114)
(25.7865 3.13729e-18 -14.8937)
(21.8608 0 -14.6364)
(21.6476 -4.63999e-18 -12.0126)
(21.63 0 -12.3829)
(20.9917 -3.5301e-19 -12.7138)
(20.9757 0 -11.4654)
(20.3536 -6.01716e-19 -11.7996)
(20.7909 0 -11.9213)
(21.0072 0 -11.9809)
(21.5388 0 -12.0913)
(22.0211 -1.95551e-18 -12.3949)
(22.8638 1.5164e-18 -12.8023)
(23.9622 2.13765e-19 -13.4751)
(25.6589 3.16471e-19 -14.3918)
(28.0057 0 -15.791)
(31.7507 0 -17.8215)
(36.6042 0 -20.462)
(42.6104 -2.20992e-18 -23.6812)
(49.6465 -3.60015e-18 -27.1557)
(56.8371 0 -30.9072)
(63.3839 0 -34.1025)
(67.9184 1.63901e-18 -36.1429)
(68.6888 3.46552e-18 -36.2198)
(63.4151 0 -33.1558)
(50.2723 0 -25.8762)
(30.781 2.15227e-17 -12.7019)
(3.5022 0 4.33542)
(-26.8644 -2.79156e-18 17.4865)
(-50.646 4.4104e-17 27.0289)
(-66.1865 2.33149e-17 35.4287)
(-74.193 0 40.2151)
(-73.5242 3.38086e-18 39.8156)
(-66.6628 -2.29188e-18 36.2582)
(-58.9415 1.64083e-17 31.5583)
(-45.7019 -2.8661e-17 24.4467)
(-32.4461 0 18.1124)
(-23.2654 1.93488e-17 13.1161)
(-15.007 -2.1568e-17 8.77598)
(-9.04065 0 5.52934)
(-4.85852 3.93409e-19 3.29395)
(-2.12386 2.54321e-17 1.76858)
(-0.404143 0 0.840392)
(0.565582 -5.37145e-17 0.327935)
(0.892944 0 -0.0416246)
(0.720476 0 -0.258711)
(0.440071 -9.96622e-19 -0.0151368)
(0.0224513 -9.45648e-19 0.240545)
(-0.519826 5.3825e-17 0.5391)
(-1.10709 -5.30286e-17 0.876237)
(-1.72059 1.069e-16 1.2164)
(-2.34088 0 1.54826)
(-2.94332 1.07038e-16 1.86402)
(-3.45707 1.08768e-16 2.17891)
(-4.05922 -2.11429e-16 2.25421)
(-4.49851 1.0699e-16 2.48597)
(-4.78537 0 2.69999)
(-4.96672 0 2.84904)
(-5.04846 0 2.92884)
(-5.03016 0 2.94262)
(-4.9164 0 2.89468)
(-4.71566 -2.3445e-16 2.79156)
(-4.44169 2.33548e-16 2.64169)
(-4.11125 0 2.45411)
(-3.74064 0 2.24116)
(-3.35185 2.32048e-16 2.01196)
(-2.96014 1.32723e-18 1.77966)
(-2.58395 4.59034e-16 1.55361)
(-2.23647 0 1.34476)
(-1.9275 0 1.16257)
(-1.66351 0 1.01356)
(-1.44642 2.25523e-18 0.905089)
(-1.27738 0 0.83742)
(-1.15313 0 0.805795)
(-1.07352 4.26267e-16 0.804841)
(-1.04112 1.47761e-18 0.831394)
(-1.05437 0 0.878246)
(-1.10211 0 0.934776)
(-1.17908 -7.9673e-16 0.997862)
(-1.29965 -7.7921e-16 1.07901)
(-1.47815 -7.63382e-16 1.18649)
(-1.69938 -7.45011e-16 1.3125)
(-1.91584 1.1536e-18 1.43324)
(-2.09288 1.0456e-18 1.53094)
(-2.22507 6.88897e-16 1.60449)
(-2.33646 0 1.66699)
(-2.44757 0 1.72963)
(-2.56869 0 1.79844)
(-2.69848 2.44889e-15 1.87222)
(-2.83048 -1.18698e-15 1.94781)
(-2.96536 1.14887e-15 2.02561)
(-3.09631 1.10965e-15 2.10161)
(-3.23411 0 2.18196)
(-3.36503 0 2.25903)
(-3.5082 0 2.34334)
(-3.64383 1.92473e-15 2.42403)
(-3.7903 0 2.51127)
(-3.94202 -1.78431e-15 2.60203)
(-4.07746 0 2.68405)
(-4.27439 0 2.8012)
(-4.35816 1.57894e-15 2.85394)
(-4.64743 0 3.02518)
(-4.61383 0 3.00935)
(-4.97678 0 3.22541)
(-4.85357 -2.65977e-15 3.17464)
(-4.85431 0 3.16802)
(-5.07752 2.42899e-15 3.25228)
(-4.53253 0 2.99121)
(-4.34353 -1.82965e-19 2.85024)
(-79.9076 1.19162e-18 -170.102)
(75.1695 2.93015e-18 -96.8232)
(147.73 2.98201e-19 -82.8686)
(172.061 0 -88.9154)
(174.502 3.03136e-18 -92.1239)
(165.232 -2.75404e-18 -89.1759)
(153.285 -2.70922e-18 -83.6939)
(141.371 2.43145e-18 -77.6539)
(129.929 0 -71.6308)
(119.072 0 -65.5221)
(108.66 0 -59.9986)
(99.263 0 -55.1145)
(91.2067 0 -51.1602)
(82.7631 0 -48.988)
(79.3564 -3.25436e-20 -43.4149)
(75.2946 0 -42.6416)
(74.1513 -3.05618e-18 -41.6631)
(70.6705 0 -41.6207)
(68.4439 1.30201e-18 -39.756)
(68.7421 -1.32808e-18 -39.2507)
(68.2346 0 -39.4263)
(68.7318 -8.00471e-19 -39.6588)
(69.5337 9.77977e-19 -40.2652)
(71.5499 -7.2477e-19 -41.3635)
(74.4556 6.64821e-19 -43.3109)
(79.3035 0 -46.1686)
(86.0355 1.77222e-18 -50.5346)
(96.4053 0 -56.9015)
(109.906 0 -65.1438)
(126.308 0 -74.9282)
(144.781 1.90807e-18 -85.4031)
(163.137 0 -95.7178)
(178.768 0 -103.855)
(187.583 0 -107.686)
(184.837 0 -104.594)
(164.775 0 -91.2601)
(122.814 0 -65.3562)
(61.3652 -2.21465e-17 -26.4929)
(-22.6697 0 23.546)
(-103.105 -1.26348e-16 67.6421)
(-163.909 -7.96545e-17 92.4279)
(-203.108 -1.93963e-17 119.327)
(-223.095 0 129.403)
(-220.325 0 124.709)
(-199.417 4.94895e-18 112.311)
(-173.354 -1.67576e-17 96.289)
(-137.09 2.8026e-17 74.2851)
(-100.721 0 55.5412)
(-73.5325 -2.13853e-17 40.2357)
(-50.2304 0 27.4961)
(-32.7385 0 17.9745)
(-20.5325 -2.48773e-17 11.287)
(-12.4009 0 7.03481)
(-7.3664 0 4.34703)
(-4.66873 5.42707e-17 2.84952)
(-3.70548 0 2.20091)
(-4.12363 0 1.76246)
(-4.99198 -2.44887e-18 2.45565)
(-6.40703 5.38795e-17 3.26283)
(-8.12779 2.19401e-18 4.22669)
(-9.95882 0 5.31089)
(-11.8285 -1.09427e-16 6.40191)
(-13.6614 -1.10757e-16 7.45861)
(-15.3879 0 8.45141)
(-16.9077 -2.19201e-16 9.39251)
(-18.4356 -3.88187e-18 9.85424)
(-19.4988 0 10.5468)
(-20.2115 1.12559e-16 11.1282)
(-20.6232 0 11.4946)
(-20.7308 0 11.6439)
(-20.5364 0 11.5912)
(-20.0577 0 11.3541)
(-19.3271 4.65188e-16 10.957)
(-18.3898 -2.34361e-16 10.4286)
(-17.2997 0 9.79997)
(-16.1127 0 9.10912)
(-14.8925 2.31467e-16 8.38636)
(-13.6907 3.00247e-18 7.66976)
(-12.56 2.9991e-18 6.98757)
(-11.5398 0 6.37026)
(-10.6577 0 5.84353)
(-9.9307 0 5.42487)
(-9.36646 5.16646e-18 5.13181)
(-8.96729 -4.28342e-16 4.96252)
(-8.72539 4.22133e-16 4.90073)
(-8.63924 -4.11862e-16 4.9305)
(-8.71506 2.92489e-18 5.04344)
(-8.94051 -4.00856e-16 5.2195)
(-9.27873 0 5.43505)
(-9.71787 7.65795e-16 5.68841)
(-10.305 0 6.01615)
(-11.0714 7.31944e-16 6.43822)
(-11.9525 0 6.92241)
(-12.8026 -1.39379e-15 7.38911)
(-13.5267 -6.7772e-16 7.7863)
(-14.1244 0 8.11473)
(-14.673 0 8.41838)
(-15.234 -1.24272e-15 8.73022)
(-15.8349 1.20481e-15 9.06661)
(-16.4693 -2.33124e-15 9.42195)
(-17.1185 1.12731e-15 9.78666)
(-17.7853 -1.09015e-15 10.1617)
(-18.4491 0 10.5355)
(-19.1428 1.0185e-15 10.9267)
(-19.8236 0 11.3109)
(-20.5518 0 11.7224)
(-21.2619 -1.82287e-15 12.1239)
(-22.0203 0 12.553)
(-22.7925 -1.87427e-18 12.9905)
(-23.5389 1.61954e-15 13.4125)
(-24.4569 0 13.9343)
(-25.0601 0 14.2719)
(-26.2705 0 14.9641)
(-26.4949 1.36709e-15 15.0779)
(-28.0021 -2.61595e-15 15.9437)
(-27.7928 2.50042e-15 15.8571)
(-28.4933 0 16.2114)
(-28.6474 -2.28143e-15 16.2642)
(-27.8304 0 15.7021)
(-22.1497 4.14449e-15 12.7352)
(-87.9056 -2.39226e-18 -222.816)
(12.0576 1.24179e-18 -160.81)
(118.715 5.08789e-18 -129.804)
(201.776 0 -123.572)
(245.567 2.54526e-18 -129.479)
(256.993 1.03312e-19 -133.013)
(252.169 0 -131.026)
(240.442 -2.30793e-18 -125.732)
(225.842 0 -118.849)
(210.162 -1.92052e-18 -111.248)
(194.468 0 -103.494)
(179.46 0 -96.2844)
(165.788 0 -90.0802)
(152.895 0 -85.2475)
(143.961 2.34293e-18 -79.1278)
(135.828 0 -75.7078)
(131.298 0 -72.0455)
(123.217 0 -73.1713)
(120.012 -6.41357e-19 -68.1)
(116.987 1.05891e-20 -67.4187)
(114.823 0 -66.2445)
(114.465 1.76898e-19 -65.6883)
(114.475 0 -66.4037)
(116.611 2.84488e-19 -67.8191)
(120.307 0 -70.757)
(127.37 0 -75.146)
(137.298 -1.6807e-18 -82.2027)
(152.406 0 -92.1102)
(172.25 0 -104.743)
(196.158 -2.59043e-18 -119.294)
(222.561 0 -134.367)
(248.289 0 -147.737)
(268.893 0 -156.594)
(278.088 0 -157.383)
(268.83 -2.74726e-18 -146.11)
(232.965 0 -118.345)
(163.382 0 -72.1124)
(63.3179 2.06491e-17 -10.942)
(-67.7644 0 63.8557)
(-185.435 1.00017e-16 134.374)
(-271.708 8.66395e-18 171.524)
(-330.872 1.83629e-17 202.577)
(-359.847 0 210.578)
(-354.438 0 197.735)
(-320.737 -2.46643e-18 176.005)
(-278.334 0 148.955)
(-223.446 -2.6515e-17 114.754)
(-167.13 0 86.9875)
(-123.834 -5.95499e-19 63.5)
(-87.4478 0 44.7664)
(-60.082 0 30.6536)
(-40.7012 0 21.1103)
(-28.0498 -2.55708e-17 14.6702)
(-20.0072 0 11.0797)
(-15.8111 0 9.00108)
(-14.2555 0 8.49875)
(-14.7456 0 8.42203)
(-16.2294 1.08803e-16 9.53849)
(-18.5773 0 10.9179)
(-21.3773 2.1666e-18 12.5359)
(-24.3588 0 14.2815)
(-27.3782 5.24174e-17 16.0123)
(-30.3006 1.04427e-16 17.6629)
(-33.0143 0 19.1834)
(-35.4114 2.11085e-16 20.5472)
(-37.5699 1.03445e-16 21.4598)
(-39.1211 0 22.4019)
(-40.1538 -1.06003e-16 23.0927)
(-40.6849 0 23.4497)
(-40.7074 0 23.4782)
(-40.2339 0 23.2028)
(-39.3029 0 22.6545)
(-37.9746 2.78018e-18 21.8754)
(-36.3286 2.20397e-16 20.9141)
(-34.4568 0 19.8239)
(-32.4548 0 18.6642)
(-30.4247 2.49022e-18 17.4866)
(-28.4539 -4.34259e-16 16.3467)
(-26.6254 -2.13805e-16 15.2883)
(-25.003 0 14.3527)
(-23.6311 0 13.5725)
(-22.536 0 12.9686)
(-21.7321 -8.19781e-16 12.5587)
(-21.22 -3.92322e-18 12.3372)
(-20.9832 -3.95994e-16 12.2816)
(-21.0155 0 12.373)
(-21.3213 -3.83006e-16 12.6032)
(-21.8726 3.75802e-16 12.9442)
(-22.6086 0 13.3671)
(-23.5179 0 13.8774)
(-24.6782 7.06535e-16 14.5316)
(-26.1264 0 15.3477)
(-27.7409 6.72246e-16 16.256)
(-29.2863 -8.21253e-19 17.1216)
(-30.6204 6.36668e-16 17.8699)
(-31.7562 -6.18295e-16 18.5128)
(-32.8208 0 19.1257)
(-33.9108 1.16299e-15 19.7582)
(-35.0659 -1.12734e-15 20.4319)
(-36.2733 2.18369e-15 21.1348)
(-37.5022 0 21.8512)
(-38.7571 -1.02186e-15 22.5824)
(-40.0032 0 23.3097)
(-41.2925 -9.52371e-16 24.0626)
(-42.5532 9.1876e-16 24.7993)
(-43.8832 0 25.5773)
(-45.171 1.70393e-15 26.33)
(-46.5306 0 27.1265)
(-47.8916 3.15185e-15 27.9214)
(-49.2089 -1.5134e-15 28.6945)
(-50.7697 0 29.6043)
(-51.8224 0 30.2231)
(-53.8181 0 31.3857)
(-54.197 4.3785e-19 31.6025)
(-56.6855 2.44349e-15 33.0635)
(-56.2162 -2.3374e-15 32.7779)
(-57.6514 0 33.6352)
(-57.0668 -2.13176e-15 33.2851)
(-56.5329 0 32.7277)
(-43.3541 1.96662e-19 25.2844)
(-94.9096 1.19578e-18 -269.323)
(-44.6954 -3.36665e-20 -219.125)
(48.3776 -2.2942e-18 -175.104)
(151.182 2.21748e-18 -154.026)
(236.227 2.1079e-18 -154.17)
(290.667 4.63638e-18 -160.901)
(315.993 0 -165.058)
(321.015 0 -164.684)
(314.205 0 -160.466)
(300.908 1.81942e-18 -153.612)
(284.213 0 -145.522)
(266.113 0 -137.352)
(248.055 0 -129.808)
(230.543 0 -123.166)
(215.927 0 -115.916)
(202.438 1.93248e-18 -110.278)
(192.587 -1.53902e-18 -104.724)
(180.846 0 -102.314)
(172.768 0 -96.3055)
(165.199 1.18509e-18 -94.9154)
(160.858 -1.14936e-18 -91.3352)
(157.186 5.52865e-19 -90.4666)
(155.182 -8.21727e-19 -90.2878)
(156.364 -2.69777e-19 -91.2885)
(159.445 5.77199e-19 -95.1366)
(167.097 2.37662e-18 -100.737)
(178.413 0 -110.042)
(196.077 -1.58953e-18 -122.658)
(219.516 0 -138.396)
(247.643 2.45155e-18 -155.998)
(278.282 0 -173.301)
(307.192 0 -187.147)
(328.58 0 -193.628)
(334.34 7.5631e-19 -188.123)
(315.825 2.59963e-18 -165.845)
(263.64 0 -121.889)
(169.52 0 -55.2986)
(39.2772 -1.95289e-17 29.1904)
(-126.548 0 124.142)
(-292.452 -1.36669e-17 173.775)
(-376.568 2.25987e-17 254.173)
(-451.022 0 281.121)
(-483.358 0 284.057)
(-474.217 0 261.89)
(-429.172 0 231.072)
(-372.987 -1.50955e-17 194.377)
(-303.383 0 149.908)
(-230.725 3.8825e-18 115.371)
(-174.046 1.96582e-17 85.6046)
(-126.888 0 62.1134)
(-90.9801 0 45.101)
(-65.9575 0 32.9501)
(-49.3903 2.41254e-17 25.2332)
(-38.8405 -2.51066e-17 21.0167)
(-33.4271 -5.15975e-17 18.6799)
(-31.514 0 18.2859)
(-32.0075 -5.36126e-17 18.8634)
(-34.0938 -1.05855e-16 20.4416)
(-37.2818 0 22.4125)
(-41.049 -1.05253e-16 24.6477)
(-45.0583 0 26.9593)
(-49.0801 -5.18576e-17 29.2177)
(-52.926 -1.02614e-16 31.3369)
(-56.4482 0 33.2492)
(-59.5298 -1.00389e-16 34.8928)
(-62.1177 -1.0228e-16 36.1236)
(-63.9973 0 37.1218)
(-65.19 0 37.7363)
(-65.6756 0 37.9326)
(-65.4552 1.04569e-16 37.718)
(-64.5611 1.05096e-16 37.1212)
(-63.0584 0 36.184)
(-61.0389 -2.0974e-16 34.9644)
(-58.6181 -2.1074e-16 33.5299)
(-55.9252 0 31.9549)
(-53.0948 0 30.318)
(-50.2628 -2.06573e-16 28.6921)
(-47.5492 -1.17959e-18 27.1468)
(-45.0623 0 25.7398)
(-42.8864 0 24.5188)
(-41.0798 0 23.5175)
(-39.6762 0 22.7554)
(-38.6942 -2.0779e-18 22.2457)
(-38.1286 3.80507e-16 21.9796)
(-37.9501 0 21.9347)
(-38.144 0 22.0965)
(-38.7083 0 22.4599)
(-39.5983 3.54467e-16 22.9907)
(-40.737 0 23.6508)
(-42.1228 6.77928e-16 24.4508)
(-43.859 -6.61634e-16 25.4593)
(-45.9763 6.45818e-16 26.6827)
(-48.2914 -6.29323e-16 28.0043)
(-50.4893 1.22518e-15 29.24)
(-52.3916 -5.95837e-16 30.3024)
(-54.03 5.78558e-16 31.2215)
(-55.575 0 32.1019)
(-57.1516 0 33.0071)
(-58.8051 -1.05592e-15 33.9602)
(-60.5164 -1.02153e-15 34.9429)
(-62.2419 -9.88892e-16 35.9337)
(-63.988 -4.51949e-19 36.9341)
(-65.7047 0 37.9187)
(-67.4613 0 38.9253)
(-69.1559 -8.58767e-16 39.8966)
(-70.922 0 40.9091)
(-72.6014 -1.59376e-15 41.8706)
(-74.3563 0 42.8775)
(-76.0765 4.95755e-19 43.8609)
(-77.7189 0 44.8038)
(-79.6449 -1.3572e-15 45.9032)
(-80.8661 1.30129e-15 46.6005)
(-83.3154 1.24639e-15 48.0017)
(-83.5424 3.12015e-19 48.1058)
(-86.6566 0 49.9048)
(-85.5717 2.18284e-15 49.1825)
(-87.5951 2.08593e-15 50.34)
(-85.6584 1.99056e-15 49.2461)
(-85.8951 0 48.7282)
(-65.2406 2.21292e-19 37.377)
(-84.3686 0 -285.811)
(-66.9104 3.66911e-20 -253.028)
(-14.4294 0 -214.632)
(67.0431 -2.09443e-18 -186.666)
(161.241 -4.26424e-18 -175.662)
(248.32 -2.13609e-18 -176.907)
(313.595 0 -183.035)
(353.479 0 -188.354)
(371.718 1.79532e-18 -190.027)
(374.082 1.66665e-18 -187.668)
(365.848 -1.53192e-18 -182.357)
(351.08 -2.78911e-18 -175.506)
(332.724 -2.52354e-18 -168.18)
(312.677 0 -160.78)
(293.442 0 -152.617)
(274.62 -3.54933e-18 -144.871)
(258.66 1.10197e-19 -137.062)
(241.401 0 -131.77)
(227.513 6.35466e-19 -124.02)
(214.883 1.06893e-18 -119.556)
(205.359 1.0873e-18 -114.117)
(196.829 0 -112.534)
(192.197 7.77219e-19 -110.218)
(189.873 -1.47328e-19 -111.307)
(190.706 -5.45802e-19 -115.179)
(197.487 6.43052e-19 -120.566)
(207.927 0 -131.438)
(225.534 -3.37549e-20 -145.768)
(249.535 0 -163.194)
(278.475 2.51434e-18 -182.009)
(309.673 0 -199.261)
(338.051 0 -210.929)
(356.805 0 -212.096)
(356.532 -7.1471e-19 -197.345)
(327.718 0 -161.575)
(260.65 0 -99.9227)
(146.611 0 -13.3871)
(-6.69192 0 90.4903)
(-203.395 2.38967e-17 199.722)
(-381.329 -4.31199e-17 255.773)
(-473.343 0 330.861)
(-559.903 -1.37193e-17 355.116)
(-593.696 0 349.737)
(-580.956 0 316.364)
(-526.31 0 276.726)
(-459.25 2.95717e-19 231.859)
(-378.287 0 178.834)
(-292.405 -3.66364e-18 139.848)
(-225.278 0 105.592)
(-168.721 0 79.9238)
(-126.39 -1.95927e-17 60.2411)
(-96.4499 0 46.8941)
(-76.3019 0 38.8987)
(-63.8884 -1.33815e-19 34.2446)
(-57.4664 4.85991e-17 31.8997)
(-55.2388 0 31.8021)
(-55.8693 -4.30512e-19 32.914)
(-58.5257 1.0124e-16 34.9491)
(-62.4665 0 37.4547)
(-67.0808 5.0102e-17 40.2163)
(-71.954 0 43.0095)
(-76.7904 4.87851e-17 45.7014)
(-81.3575 9.65167e-17 48.1854)
(-85.4771 0 50.3784)
(-89.0122 9.59848e-17 52.2002)
(-91.838 -5.07539e-19 53.589)
(-93.8373 0 54.5339)
(-94.9715 0 54.9835)
(-95.2113 0 54.9273)
(-94.57 -1.96785e-16 54.3791)
(-93.1006 2.94565e-19 53.3772)
(-90.8951 0 51.978)
(-88.0768 1.98623e-16 50.2574)
(-84.7964 3.96108e-16 48.3028)
(-81.2189 0 46.2093)
(-77.5146 0 44.0739)
(-73.8507 0 41.9879)
(-70.3754 -4.33924e-19 40.034)
(-67.2181 0 38.2806)
(-64.479 0 36.7807)
(-62.2251 0 35.568)
(-60.4941 0 34.66)
(-59.3044 3.64135e-16 34.0651)
(-58.6432 3.58914e-16 33.7698)
(-58.4691 0 33.7488)
(-58.7608 0 33.9901)
(-59.5092 0 34.4877)
(-60.655 3.52365e-19 35.1988)
(-62.1099 0 36.0776)
(-63.8841 -6.34636e-16 37.1439)
(-66.0979 0 38.4746)
(-68.7669 -6.04403e-16 40.0559)
(-71.6437 0 41.7215)
(-74.3458 -5.73372e-16 43.2478)
(-76.6662 0 44.5442)
(-78.6582 0 45.6642)
(-80.5268 0 46.7366)
(-82.422 0 47.8345)
(-84.3892 9.87335e-16 48.9786)
(-86.4057 0 50.1448)
(-88.4135 9.24456e-16 51.3059)
(-90.4238 8.93523e-16 52.4643)
(-92.369 0 53.588)
(-94.3356 0 54.7219)
(-96.1911 0 55.7942)
(-98.1016 0 56.8977)
(-99.8661 -4.00807e-19 57.9173)
(-101.689 0 58.9733)
(-103.429 -2.75296e-15 59.9769)
(-105.035 0 60.9128)
(-106.955 2.53563e-15 62.0149)
(-107.959 -1.21537e-15 62.6042)
(-110.461 -1.16402e-15 64.0374)
(-110.143 -1.11455e-15 63.8407)
(-113.469 0 65.768)
(-111.355 0 64.4455)
(-113.726 -3.89561e-15 65.8087)
(-109.978 1.85911e-15 63.6713)
(-111.269 1.7747e-15 63.3015)
(-85.0653 -1.68682e-15 48.6921)
(-68.1618 0 -286.841)
(-64.3679 -2.158e-18 -267.743)
(-47.4865 0 -242.336)
(-2.51351 0 -216.497)
(70.0227 0 -198.107)
(157.008 0 -190.574)
(242.703 0 -191.977)
(315.629 -1.73977e-18 -197.871)
(369.402 -1.69348e-18 -204.039)
(402.54 -3.11673e-18 -207.72)
(417.357 2.86939e-18 -208.016)
(417.844 2.63271e-18 -205.42)
(408.091 2.38242e-18 -200.822)
(391.526 0 -194.642)
(371.621 0 -186.75)
(349.562 3.17104e-18 -177.741)
(328.295 2.47686e-18 -168.068)
(305.381 0 -159.705)
(284.78 -6.00347e-19 -149.798)
(265.419 -1.00986e-18 -142.41)
(249.217 0 -134.716)
(235.046 -4.89953e-19 -130.214)
(224.784 0 -126.044)
(216.911 -5.97821e-20 -126.644)
(214.805 1.03806e-18 -128.736)
(217.091 -2.94957e-21 -135.084)
(224.339 0 -145.374)
(239.192 1.44921e-18 -160.076)
(260.616 -2.70707e-18 -177.549)
(286.943 -4.84534e-18 -195.65)
(315.207 -2.14016e-18 -210.649)
(339.788 0 -217.739)
(353.231 -8.60686e-19 -211.137)
(345.331 0 -184.982)
(306.329 0 -134.43)
(226.834 0 -55.1027)
(98.0738 0 49.2873)
(-70.1032 0 168.302)
(-279.563 -1.9041e-18 286.169)
(-462.684 1.5508e-17 351.823)
(-569.534 0 409.114)
(-657.883 2.55442e-17 423.783)
(-691.212 0 407.972)
(-675.368 0 362.074)
(-612.854 0 314.07)
(-537.839 1.31395e-17 262.554)
(-448.776 0 202.096)
(-352.548 0 160.515)
(-276.528 0 125.026)
(-213.704 0 96.7613)
(-166.004 3.71459e-17 76.2361)
(-131.463 0 63.2618)
(-108.792 0 54.9755)
(-94.7135 2.23806e-17 50.5144)
(-87.4427 0 48.4826)
(-84.9825 0 48.7634)
(-85.8024 9.59817e-17 50.3432)
(-88.9392 -4.78245e-17 52.8401)
(-93.5024 0 55.8372)
(-98.8081 0 59.0497)
(-104.366 0 62.2333)
(-109.826 -4.63482e-17 65.2465)
(-114.916 0 67.9688)
(-119.432 0 70.3081)
(-123.214 -1.80622e-16 72.1779)
(-126.112 1.81799e-16 73.527)
(-128.023 0 74.3103)
(-128.895 0 74.4996)
(-128.703 0 74.094)
(-127.473 9.25021e-17 73.1178)
(-125.279 -9.29043e-17 71.623)
(-122.239 -1.86575e-16 69.6829)
(-118.507 -1.86332e-16 67.3923)
(-114.267 -1.8599e-16 64.8586)
(-109.719 1.85638e-16 62.1957)
(-105.066 0 59.5186)
(-100.504 0 56.9336)
(-96.2057 1.8169e-16 54.5348)
(-92.3195 0 52.3985)
(-88.9576 0 50.5816)
(-86.192 0 49.1174)
(-84.0613 0 48.0213)
(-82.5805 0 47.2974)
(-81.7287 -6.72601e-16 46.9255)
(-81.4536 0 46.8753)
(-81.7295 -3.24346e-16 47.1341)
(-82.5392 0 47.6916)
(-83.8117 2.39778e-19 48.4955)
(-85.4489 6.0906e-16 49.4968)
(-87.4731 0 50.727)
(-90.012 0 52.2682)
(-93.0602 0 54.0814)
(-96.3079 0 55.9541)
(-99.3196 5.36807e-16 57.6328)
(-101.866 0 59.0295)
(-104.024 0 60.2213)
(-106.021 0 61.3551)
(-108.031 0 62.5103)
(-110.093 0 63.7018)
(-112.187 0 64.9016)
(-114.239 0 66.0762)
(-116.268 0 67.2307)
(-118.186 -8.06702e-16 68.3254)
(-120.099 0 69.4128)
(-121.843 0 70.4064)
(-123.614 0 71.4134)
(-125.174 1.39139e-15 72.2993)
(-126.758 0 73.2027)
(-128.213 1.28581e-15 74.0245)
(-129.46 0 74.7401)
(-131.061 2.43632e-19 75.6364)
(-131.519 0 75.8989)
(-133.755 1.08738e-15 77.1536)
(-132.579 0 76.4418)
(-135.823 0 78.297)
(-132.388 0 76.1472)
(-135.009 1.81863e-15 77.5944)
(-129.065 -3.47146e-15 74.2676)
(-131.58 -3.31369e-15 74.0055)
(-101.9 -1.575e-15 57.7511)
(-56.2963 0 -287.653)
(-54.9745 2.11943e-18 -275.094)
(-54.4159 0 -258.789)
(-37.9487 0 -238.519)
(2.54764 1.73861e-18 -219.236)
(64.8032 1.68749e-18 -206.02)
(141.333 -1.64107e-18 -200.42)
(222.899 4.80933e-18 -201.363)
(299.956 0 -206.496)
(364.602 3.12193e-20 -212.947)
(412.103 -1.34112e-18 -218.342)
(441.15 0 -221.457)
(453.219 0 -221.986)
(451.273 0 -219.63)
(439.335 0 -214.199)
(420.04 -5.88387e-20 -205.757)
(397.358 -4.19706e-20 -195.373)
(370.758 -7.76113e-19 -184.697)
(344.072 -5.70688e-19 -172.691)
(317.636 0 -162.263)
(293.689 6.49015e-19 -151.922)
(271.942 4.62412e-19 -144.437)
(254.177 0 -138.083)
(239.827 6.44267e-20 -135.822)
(231.106 -6.92625e-19 -135.766)
(226.168 -2.5662e-18 -142.482)
(228.22 0 -151.03)
(237.023 0 -164.288)
(252.52 2.55096e-18 -180.235)
(272.818 -1.02151e-19 -195.757)
(294.867 4.17435e-18 -206.508)
(312.841 0 -207.021)
(318.999 1.84642e-18 -190.819)
(302.829 0 -151.944)
(254.858 0 -86.3352)
(166.486 2.52379e-18 9.69987)
(28.969 0 129.267)
(-145.939 1.32953e-17 258.909)
(-365.567 -1.41929e-18 380.661)
(-525.884 -6.63713e-18 476.802)
(-651.595 0 485.91)
(-744.688 -1.82464e-19 486.747)
(-776.811 0 459.08)
(-758.634 0 399.556)
(-689.83 0 343.66)
(-609.452 0 287.13)
(-515.638 0 219.395)
(-409.559 -4.95923e-18 179.696)
(-329.062 0 141.326)
(-261.171 0 112.776)
(-208.23 -1.75862e-17 93.7941)
(-170.786 0 80.9458)
(-145.865 -2.05333e-17 73.2703)
(-130.473 -2.12317e-17 69.3514)
(-122.518 4.36593e-17 67.8691)
(-119.847 0 68.6681)
(-120.825 -4.51934e-17 70.7516)
(-124.34 -4.53916e-17 73.7062)
(-129.401 0 77.1173)
(-135.245 0 80.6816)
(-141.315 0 84.1459)
(-147.217 4.35182e-17 87.3614)
(-152.644 0 90.1987)
(-157.369 0 92.5594)
(-161.21 8.49004e-17 94.3558)
(-164.004 -1.70994e-16 95.543)
(-165.655 0 96.0518)
(-166.101 0 95.8751)
(-165.324 0 95.0203)
(-163.363 0 93.5238)
(-160.312 -8.74139e-17 91.4523)
(-156.314 1.74934e-16 88.8965)
(-151.551 0 85.9693)
(-146.242 0 82.7972)
(-140.616 -1.7398e-16 79.5121)
(-134.908 0 76.2447)
(-129.343 -1.72002e-16 73.1147)
(-124.116 1.70616e-16 70.2255)
(-119.39 0 67.6597)
(-115.29 0 65.4764)
(-111.89 0 63.707)
(-109.23 0 62.3646)
(-107.32 0 61.4481)
(-106.131 3.1496e-16 60.9304)
(-105.599 0 60.7753)
(-105.696 6.07281e-16 60.9695)
(-106.394 0 61.4963)
(-107.613 1.8497e-19 62.2954)
(-109.245 3.3709e-19 63.3171)
(-111.325 0 64.6055)
(-113.979 5.43582e-16 66.2416)
(-117.179 0 68.1598)
(-120.561 0 70.105)
(-123.651 -1.00401e-15 71.8055)
(-126.201 0 73.1796)
(-128.309 0 74.328)
(-130.214 0 75.4075)
(-132.111 0 76.5022)
(-134.029 0 77.6178)
(-135.959 0 78.7262)
(-137.804 0 79.7862)
(-139.599 0 80.8086)
(-141.236 7.53656e-16 81.7452)
(-142.836 0 82.6563)
(-144.212 0 83.4426)
(-145.577 0 84.2213)
(-146.673 -1.30014e-15 84.8457)
(-147.745 -1.25071e-15 85.4624)
(-148.657 -1.2013e-15 85.9765)
(-149.268 1.15349e-15 86.3391)
(-150.299 2.03088e-19 86.9086)
(-149.943 -1.06037e-15 86.7211)
(-151.684 -2.0307e-15 87.6844)
(-149.402 0 86.3513)
(-152.387 1.85956e-15 88.0497)
(-147.368 1.77782e-15 84.9835)
(-150.273 0 86.5525)
(-141.875 1.6204e-15 81.8809)
(-145.714 1.54669e-15 81.732)
(-114.788 1.47005e-15 64.7697)
(-48.5683 0 -290.56)
(-46.448 -1.01588e-18 -280.094)
(-48.6435 0 -267.619)
(-45.9634 0 -252.245)
(-30.2523 -1.63696e-18 -235.836)
(2.77719 -1.58829e-18 -221.395)
(53.5581 1.54411e-18 -211.063)
(119.08 -4.4412e-18 -205.938)
(193.708 0 -205.967)
(270.289 -1.28095e-18 -209.919)
(341.349 2.43259e-18 -215.964)
(400.391 0 -222.336)
(443.206 -2.00998e-18 -227.678)
(468.221 0 -230.494)
(476.862 -1.53395e-18 -229.707)
(471.225 -1.31651e-18 -224.338)
(455.624 -1.03152e-18 -215.332)
(431.231 7.31081e-19 -204.082)
(402.22 1.06901e-18 -190.842)
(370.521 0 -177.947)
(339.17 -6.11759e-19 -165.077)
(309.101 0 -154.387)
(282.424 0 -145.228)
(259.165 1.16731e-19 -139.846)
(241.15 -1.22139e-19 -137.664)
(227.826 0 -140.669)
(220.733 0 -147.571)
(220.483 0 -157.891)
(226.587 -2.5243e-18 -170.703)
(237.51 2.28947e-18 -181.952)
(250.304 1.46794e-19 -186.704)
(259.249 1.80565e-18 -179.101)
(256.764 -2.1826e-18 -152.088)
(232.46 3.18623e-19 -99.9592)
(177.558 8.63138e-19 -19.9299)
(84.4099 -4.09854e-19 90.9865)
(-55.8723 0 222.499)
(-229.84 -1.2506e-17 358.133)
(-437.858 -1.69304e-17 476.685)
(-590.971 6.24228e-18 588.936)
(-740.42 0 561.701)
(-821.616 -1.09922e-17 544.176)
(-851.573 -6.58061e-18 503.829)
(-831.858 -1.83301e-18 429.638)
(-758.146 8.6629e-19 365.902)
(-673.437 0 307.992)
(-577.306 0 233.05)
(-466.327 1.14974e-18 192.06)
(-381.991 0 154.7)
(-308.616 0 129.249)
(-252.954 -1.69338e-17 111.041)
(-212.989 1.84525e-17 99.5663)
(-186.366 1.9285e-17 92.9803)
(-169.941 -8.43559e-20 89.9842)
(-161.442 1.70341e-19 89.2894)
(-158.6 0 90.7165)
(-159.695 0 93.3387)
(-163.49 8.5402e-17 96.7419)
(-168.921 0 100.515)
(-175.158 0 104.352)
(-181.589 -4.17331e-17 108.002)
(-187.778 0 111.314)
(-193.394 0 114.157)
(-198.182 8.0363e-17 116.431)
(-201.947 -8.00298e-17 118.047)
(-204.516 1.60644e-16 118.959)
(-205.784 0 119.102)
(-205.692 -8.09589e-17 118.474)
(-204.225 0 117.09)
(-201.435 0 114.999)
(-197.43 1.6395e-16 112.282)
(-192.379 0 109.045)
(-186.49 0 105.419)
(-180.009 0 101.548)
(-173.198 0 97.5801)
(-166.323 0 93.661)
(-159.631 1.61068e-16 89.922)
(-153.343 1.53301e-19 86.4755)
(-147.638 -1.58289e-16 83.409)
(-142.652 1.56602e-16 80.7838)
(-138.463 0 78.629)
(-135.111 0 76.9555)
(-132.601 0 75.7565)
(-130.898 0 74.9984)
(-129.927 0 74.6396)
(-129.656 1.84667e-19 74.6655)
(-130.046 0 75.0525)
(-131.009 -2.72526e-16 75.7333)
(-132.43 2.83886e-19 76.658)
(-134.35 0 77.8828)
(-136.887 -5.08238e-16 79.4822)
(-139.997 0 81.3642)
(-143.268 4.82847e-16 83.2359)
(-146.213 -1.77647e-19 84.8183)
(-148.558 0 86.0382)
(-150.422 0 87.0193)
(-152.036 0 87.9204)
(-153.622 0 88.83)
(-155.191 8.06994e-16 89.7409)
(-156.754 0 90.6298)
(-158.19 0 91.4459)
(-159.557 7.29643e-16 92.2094)
(-160.719 0 92.8624)
(-161.822 -6.7975e-16 93.4739)
(-162.652 6.55055e-16 93.9341)
(-163.436 0 94.3654)
(-163.908 2.42855e-15 94.6164)
(-164.296 -2.36895e-19 94.8292)
(-164.519 2.24366e-15 94.9307)
(-164.331 -1.07703e-15 94.8269)
(-164.665 -1.03278e-15 94.9743)
(-163.354 9.89992e-16 94.234)
(-164.498 9.47999e-16 94.826)
(-160.991 9.07709e-16 92.7799)
(-163.682 -1.73593e-15 94.2783)
(-156.933 -1.65956e-15 90.1793)
(-160.312 -1.58547e-15 91.9268)
(-149.212 -1.51293e-15 85.8435)
(-154.462 0 85.8509)
(-123.699 0 69.2592)
(-41.743 0 -293.215)
(-38.9921 -1.02132e-18 -283.542)
(-40.3402 0 -272.686)
(-41.7622 0 -260.46)
(-38.2795 0 -247.201)
(-25.3733 0 -233.931)
(0.271787 -1.4349e-18 -222.091)
(40.242 1.37074e-18 -213.104)
(94.1523 -1.28874e-18 -207.91)
(159.385 2.46108e-18 -206.698)
(231.225 -2.28524e-18 -209.001)
(303.432 0 -213.845)
(369.406 1.8883e-18 -220.118)
(423.124 0 -226.012)
(460.949 1.44158e-18 -229.708)
(480.939 1.17753e-18 -228.894)
(484.753 0 -223.412)
(473.291 0 -213.939)
(450.384 -4.9993e-19 -201.27)
(419.158 0 -187.385)
(383.775 0 -172.819)
(346.743 2.36134e-19 -159.327)
(311.026 0 -147.226)
(277.64 0 -138.248)
(248.631 -1.38035e-19 -132.707)
(224 0 -131.707)
(205.138 0 -134.928)
(192.542 0 -141.159)
(186.021 4.80952e-18 -149.114)
(184.356 0 -154.406)
(184.921 1.51019e-19 -151.882)
(182.548 1.96818e-19 -135.236)
(170.464 1.13581e-18 -96.7675)
(138.614 -2.99679e-19 -31.5018)
(79.0437 -1.38441e-18 61.3641)
(-14.67 -1.84637e-18 185.055)
(-152.139 0 325.035)
(-319.257 0 462.715)
(-521.214 -1.26641e-17 573.087)
(-686.501 7.71998e-18 637.138)
(-812.119 0 632.225)
(-889.182 0 596.293)
(-917.036 6.00447e-20 542.206)
(-896.433 1.72033e-18 452.491)
(-816.611 -8.14835e-19 383.405)
(-738.581 -8.55325e-18 309.037)
(-629.803 0 252.967)
(-520.349 4.04165e-18 199.972)
(-431.457 0 167.595)
(-356.305 0 143.483)
(-298.292 1.58947e-17 127.676)
(-256.56 -1.73183e-17 118.195)
(-228.689 0 113.235)
(-211.507 1.87879e-17 111.517)
(-202.613 1.5401e-19 111.828)
(-199.644 0 114.002)
(-200.825 0 117.212)
(-204.83 -8.04532e-17 121.056)
(-210.537 0 125.144)
(-217.063 0 129.188)
(-223.748 7.83671e-17 132.948)
(-230.124 0 136.281)
(-235.833 0 139.056)
(-240.603 -1.50808e-16 141.173)
(-244.221 7.50062e-17 142.547)
(-246.505 -7.5337e-17 143.126)
(-247.344 0 142.853)
(-246.672 7.58518e-17 141.728)
(-244.478 0 139.774)
(-240.82 -7.66699e-17 137.051)
(-235.821 -7.68311e-17 133.651)
(-229.665 0 129.697)
(-222.585 0 125.332)
(-214.852 1.53654e-16 120.718)
(-206.759 1.53056e-16 116.017)
(-198.597 0 111.389)
(-190.644 0 106.978)
(-183.144 -2.99436e-16 102.903)
(-176.293 1.48125e-16 99.2583)
(-170.243 -2.93178e-16 96.1073)
(-165.077 0 93.4781)
(-160.839 0 91.3797)
(-157.53 0 89.8005)
(-155.11 0 88.7014)
(-153.495 0 88.0353)
(-152.648 1.56133e-19 87.7871)
(-152.517 0 87.9248)
(-153.011 0 88.376)
(-154.002 2.41286e-19 89.0902)
(-155.54 0 90.134)
(-157.72 -4.75483e-16 91.5698)
(-160.494 0 93.2827)
(-163.415 -4.51253e-16 94.9491)
(-166.001 -1.54772e-19 96.2954)
(-167.951 0 97.2563)
(-169.4 0 97.9777)
(-170.553 0 98.6101)
(-171.661 0 99.2476)
(-172.712 2.08868e-19 99.8662)
(-173.748 7.29519e-16 100.453)
(-174.619 -7.05499e-16 100.946)
(-175.411 -6.81477e-16 101.378)
(-175.962 0 101.681)
(-176.439 6.34805e-16 101.931)
(-176.614 -6.11711e-16 102.015)
(-176.708 0 102.05)
(-176.468 -1.13394e-15 101.892)
(-176.076 2.18162e-15 101.659)
(-175.539 -1.0475e-15 101.322)
(-174.464 0 100.719)
(-174.044 9.64525e-16 100.425)
(-171.707 0 99.1144)
(-172.217 0 99.3235)
(-167.427 -8.47323e-16 96.5599)
(-169.853 0 97.8772)
(-161.249 0 92.7237)
(-165.339 1.47986e-15 94.7762)
(-151.357 1.41211e-15 87.1881)
(-158.179 1.34798e-15 87.4371)
(-128.552 -1.28122e-15 71.5644)
(-34.6072 0 -294.941)
(-31.9572 9.6005e-19 -286.089)
(-33.0317 1.84642e-18 -276.453)
(-35.0618 0 -266)
(-35.2821 0 -254.715)
(-31.621 0 -242.947)
(-21.7578 1.34828e-18 -231.433)
(-2.97503 0 -221.06)
(27.135 1.21035e-18 -212.674)
(69.6859 0 -206.922)
(124.034 0 -204.181)
(187.568 -1.91711e-18 -204.374)
(255.961 0 -207.264)
(323.299 -1.53722e-18 -211.789)
(383.692 1.32717e-18 -216.504)
(431.359 -1.1052e-18 -218.654)
(463.175 0 -216.846)
(476.484 6.55602e-19 -210.599)
(472.025 0 -200.367)
(451.936 6.30935e-19 -187.525)
(420.566 0 -172.907)
(381.777 -2.22521e-19 -157.876)
(339.807 -2.98073e-20 -143.373)
(297.13 0 -130.863)
(256.511 0 -121.382)
(218.828 9.88853e-19 -115.72)
(185.809 0 -113.978)
(158.075 0 -114.763)
(135.897 6.50289e-20 -116.408)
(118.472 0 -114.298)
(103.821 -4.2805e-18 -103.339)