/*--------------------------------*- C++ -*----------------------------------*\
| =========                 |                                                 |
| \\      /  F ield         | OpenFOAM: The Open Source CFD Toolbox           |
|  \\    /   O peration     | Version:  2412                                  |
|   \\  /    A nd           | Website:  www.openfoam.com                      |
|    \\/     M anipulation  |                                                 |
\*---------------------------------------------------------------------------*/
FoamFile
{
    version     2.0;
    format      ascii;
    arch        "LSB;label=32;scalar=64";
    class       surfaceScalarField;
    location    "1.5";
    object      phi_0;
}
// * * * * * * * * * * * * * * * * * * * * * * * * * * * * * * * * * * * * * //

dimensions      [0 3 -1 0 0 0 0];

oriented        oriented;

internalField   nonuniform List<scalar> 
24930
(
0.0179932
0.0127837
-0.0307758
0.0106144
0.00737881
0.0069567
0.00365773
0.00517742
0.00177927
0.0042038
0.000973622
0.00357999
0.00062381
0.00313346
0.000446531
0.00279355
0.00033991
0.00252408
0.000269474
0.00230394
0.000220137
0.00211996
0.000183976
0.0019634
0.000156559
0.0018282
0.000135202
0.00171
0.000118198
0.00160559
0.00010441
0.00151254
9.30536e-05
0.00142897
8.35726e-05
0.0013534
7.55639e-05
0.00128467
6.87286e-05
0.00122183
6.28414e-05
0.0011641
5.77291e-05
0.00111084
5.32574e-05
0.00106152
4.93203e-05
0.00101569
4.58331e-05
0.000972963
4.27278e-05
0.000933014
3.99491e-05
0.000895563
3.74514e-05
0.000860365
3.51972e-05
0.00082721
3.3155e-05
0.000795911
3.12988e-05
0.000766305
2.96061e-05
0.000738247
2.80583e-05
0.000711608
2.66391e-05
0.000686273
2.53349e-05
0.000662139
2.41336e-05
0.000639114
2.30251e-05
0.000617114
2.20002e-05
0.000596063
2.10513e-05
0.000575891
2.01714e-05
0.000556537
1.93547e-05
0.000537941
1.85956e-05
0.000520051
1.78898e-05
0.000502818
1.72328e-05
0.000486197
1.66214e-05
0.000470145
1.60516e-05
0.000454623
1.55215e-05
0.000439596
1.50275e-05
0.000425027
1.45684e-05
0.000410886
1.41408e-05
0.000397141
1.37447e-05
0.000383764
1.33762e-05
0.000370727
1.30364e-05
0.000358006
1.27213e-05
0.000345573
1.24326e-05
0.000333407
1.21661e-05
0.000321482
1.19244e-05
0.000309779
1.17027e-05
0.000298275
1.15046e-05
0.00028695
1.13248e-05
0.000275783
1.11673e-05
0.000264756
1.10269e-05
0.000253849
1.09075e-05
0.000243045
1.08044e-05
0.000232324
1.07207e-05
0.000221671
1.0653e-05
0.000211069
1.06024e-05
0.000200501
1.05681e-05
0.000189954
1.05472e-05
0.00017941
1.05438e-05
0.000168862
1.0548e-05
0.00015829
1.05715e-05
0.000147696
1.05942e-05
0.000137057
1.06392e-05
0.000126386
1.06708e-05
0.000115656
1.07297e-05
0.000104899
1.07573e-05
9.40785e-05
1.08203e-05
8.32508e-05
1.08276e-05
7.23676e-05
1.08831e-05
6.15172e-05
1.08504e-05
5.06318e-05
1.08853e-05
3.98422e-05
1.07895e-05
2.9052e-05
1.07902e-05
1.84443e-05
1.06076e-05
7.88538e-06
1.05589e-05
-2.38642e-06
1.02718e-05
-1.25513e-05
1.01648e-05
-2.23207e-05
9.76936e-06
-3.18912e-05
9.57048e-06
-4.10019e-05
9.11068e-06
-4.97736e-05
8.77172e-06
-5.81104e-05
8.33675e-06
-6.59093e-05
7.79887e-06
-7.33467e-05
7.43726e-06
-8.03116e-05
6.9649e-06
-8.60682e-05
5.75657e-06
-9.36541e-05
7.58632e-06
-9.5861e-05
2.20688e-06
-0.00010435
8.48891e-06
-0.000111188
6.83954e-06
-0.000103301
-7.88954e-06
-0.000122585
1.92818e-05
-0.000119505
-3.07647e-06
-0.000125312
5.80711e-06
-0.000132935
7.62262e-06
-0.000116962
-1.59764e-05
-0.000162998
4.604e-05
-0.000126907
-3.60939e-05
-0.000120059
-6.85806e-06
-0.000226805
0.000106756
-0.000120139
-0.00010667
-0.000229287
0.000109144
-0.00021767
-1.16102e-05
-0.000163356
-5.43192e-05
-0.00023339
7.00291e-05
-0.000169369
-6.40386e-05
-0.000634068
0.000464707
-0.00135917
0.000725149
-0.00138088
2.17149e-05
-0.000556351
0.0337219
0.0163575
-0.0372957
0.0277733
0.0133275
0.0222095
0.00922149
0.0179268
0.00606193
0.0148749
0.00402554
0.0127106
0.00278812
0.0111209
0.0020362
0.00990204
0.00155882
0.00893344
0.00123807
0.00814204
0.00101153
0.007481
0.000845018
0.00691895
0.00071861
0.00643407
0.000620085
0.00601065
0.000541619
0.00563707
0.000477986
0.00530454
0.00042558
0.00500628
0.00038184
0.00473694
0.000344905
0.00449227
0.000313395
0.00426884
0.000286268
0.00406385
0.000262725
0.00387496
0.000242143
0.00370025
0.000224031
0.00353808
0.000207999
0.00338708
0.00019373
0.00324606
0.000180969
0.00311401
0.000169505
0.00299004
0.000159165
0.00287339
0.000149802
0.00276339
0.000141295
0.00265946
0.000133542
0.00256106
0.000126456
0.00246774
0.000119962
0.00237908
0.000113996
0.00229471
0.000108503
0.0022143
0.000103436
0.00213754
9.87533e-05
0.00206418
9.44187e-05
0.00199395
9.04003e-05
0.00192663
8.66712e-05
0.00186202
8.32059e-05
0.00179993
7.9984e-05
0.00174017
7.69851e-05
0.0016826
7.4194e-05
0.00162706
7.15936e-05
0.00157341
6.91731e-05
0.00152152
6.69175e-05
0.00147126
6.48199e-05
0.00142254
6.28667e-05
0.00137523
6.10542e-05
0.00132923
5.93694e-05
0.00128446
5.78119e-05
0.00124081
5.63685e-05
0.0011982
5.50418e-05
0.00115655
5.38182e-05
0.00111577
5.2703e-05
0.00107579
5.16818e-05
0.00103653
5.07624e-05
0.000997925
4.99296e-05
0.0009599
4.9193e-05
0.00092239
4.85372e-05
0.000885325
4.79719e-05
0.000848647
4.74833e-05
0.000812288
4.70792e-05
0.000776193
4.67488e-05
0.000740301
4.64949e-05
0.000704556
4.63131e-05
0.000668907
4.6196e-05
0.0006333
4.61508e-05
0.000597696
4.61521e-05
0.000562042
4.62258e-05
0.000526317
4.63186e-05
0.00049047
4.64863e-05
0.000454509
4.66324e-05
0.00041838
4.68589e-05
0.000382131
4.70062e-05
0.000345704
4.72464e-05
0.000309204
4.73284e-05
0.000272557
4.75294e-05
0.000235944
4.74634e-05
0.000199263
4.7566e-05
0.0001628
4.72527e-05
0.000126391
4.71986e-05
9.04715e-05
4.65274e-05
5.47674e-05
4.62629e-05
1.9918e-05
4.51211e-05
-1.45491e-05
4.46319e-05
-4.78062e-05
4.30263e-05
-8.04456e-05
4.22098e-05
-0.000111484
4.01494e-05
-0.000141586
3.88731e-05
-0.000170052
3.68029e-05
-0.000196925
3.4672e-05
-0.000222594
3.31059e-05
-0.000246282
3.06528e-05
-0.000267036
2.65107e-05
-0.000292146
3.26963e-05
-0.000300624
1.0685e-05
-0.000332144
4.00088e-05
-0.000347652
2.23464e-05
-0.000333793
-2.17465e-05
-0.000390358
7.58468e-05
-0.00038109
-1.23452e-05
-0.00040605
3.0767e-05
-0.000421285
2.28576e-05
-0.000388173
-4.90874e-05
-0.000522094
0.000179961
-0.000400597
-0.000157588
-0.000419459
1.20172e-05
-0.000697451
0.000384743
-0.000406998
-0.00039712
-0.000742237
0.000444382
-0.000684444
-6.94076e-05
-0.000563152
-0.00017561
-0.000759506
0.000266383
-0.000661529
-0.000162013
-0.00213006
0.00193322
-0.00423472
0.0028298
-0.00403999
-0.000173015
-0.00221493
0.0414981
0.0160556
-0.0411963
0.0392017
0.0156239
0.035263
0.0131601
0.0309676
0.0103573
0.0270448
0.00794833
0.0237494
0.0060835
0.0210701
0.00471551
0.0188977
0.00373129
0.0171171
0.00301864
0.0156356
0.00249302
0.0143841
0.00209656
0.013312
0.00179064
0.0123825
0.00154959
0.011568
0.00135614
0.0108476
0.00119837
0.0102053
0.00106788
0.00962854
0.000958622
0.00910731
0.000866132
0.00863363
0.000787074
0.00820099
0.000718913
0.00780402
0.000659687
0.0074383
0.000607863
0.00710011
0.000562227
0.0067863
0.00052181
0.0064942
0.000485825
0.00622154
0.000453632
0.00596634
0.000424706
0.00572689
0.00039861
0.00550171
0.00037498
0.0052895
0.000353511
0.0050891
0.000333943
0.00489949
0.000316059
0.00471979
0.000299669
0.00454917
0.000284613
0.00438692
0.000270753
0.00423239
0.000257967
0.00408499
0.000246151
0.0039442
0.000235214
0.00380952
0.000225076
0.00368052
0.000215667
0.00355681
0.000206924
0.003438
0.000198795
0.00332375
0.000191228
0.00321376
0.000184185
0.00310773
0.000177622
0.00300539
0.000171511
0.00290649
0.000165817
0.0028108
0.000160518
0.00271808
0.000155583
0.00262813
0.000151
0.00254076
0.00014674
0.00245578
0.000142796
0.002373
0.000139141
0.00229227
0.000135775
0.00221342
0.00013267
0.00213629
0.000129832
0.00206074
0.000127234
0.00198661
0.000124885
0.00191378
0.000122757
0.00184211
0.000120865
0.00177147
0.000119178
0.00170173
0.000117713
0.00163277
0.000116443
0.00156447
0.000115381
0.00149671
0.000114505
0.00142939
0.00011382
0.00136239
0.000113313
0.00129561
0.000112974
0.00122896
0.000112807
0.00116234
0.00011277
0.00109566
0.0001129
0.00102888
0.000113104
0.000961897
0.000113468
0.000894704
0.000113825
0.000827227
0.000114336
0.000759508
0.000114725
0.000691482
0.000115272
0.000623275
0.000115535
0.000554816
0.000115988
0.00048635
0.000115929
0.000417774
0.000116142
0.000349507
0.00011552
0.000281353
0.000115353
0.00021399
0.00011389
0.000147022
0.00011323
8.15062e-05
0.000110637
1.67046e-05
0.000109433
-4.58893e-05
0.00010562
-0.000107447
0.000103767
-0.000166035
9.87377e-05
-0.000223054
9.58925e-05
-0.000276917
9.0666e-05
-0.000328039
8.57937e-05
-0.000376859
8.19253e-05
-0.000421807
7.56006e-05
-0.000462182
6.68855e-05
-0.000508867
7.93817e-05
-0.000526917
2.87345e-05
-0.000587382
0.000100474
-0.000611027
4.59926e-05
-0.000597397
-3.53793e-05
-0.000694955
0.000173405
-0.000679005
-2.82956e-05
-0.000729787
8.15486e-05
-0.000751154
4.42248e-05
-0.000709056
-9.11854e-05
-0.000932682
0.000403585
-0.000718712
-0.00037156
-0.000786473
7.97636e-05
-0.00122558
0.000823846
-0.000750925
-0.000871775
-0.00134269
0.00103615
-0.00121914
-0.000192961
-0.00105564
-0.00033911
-0.00140096
0.000611695
-0.0013383
-0.00022466
-0.00392569
0.00452062
-0.00736802
0.00627212
-0.00672088
-0.00082016
-0.00512628
0.0459629
0.0147571
-0.0446643
0.0460429
0.0155439
0.0444588
0.0147442
0.0417283
0.0130879
0.0384772
0.0111994
0.035165
0.00939564
0.0320599
0.00782057
0.0292766
0.00651464
0.0268338
0.00546139
0.0247055
0.00462133
0.0228504
0.00395168
0.0212264
0.00341461
0.0197963
0.00297973
0.0185287
0.00262374
0.017398
0.00232909
0.0163833
0.00208262
0.0154675
0.00187442
0.0146366
0.00169694
0.0138793
0.00154439
0.013186
0.00141226
0.0125486
0.00129702
0.0119606
0.00119588
0.0114163
0.00110659
0.0109107
0.00102734
0.0104399
0.000956653
0.0100002
0.000893324
0.00958858
0.000836348
0.0092023
0.000784892
0.00883902
0.000738257
0.00849668
0.000695853
0.00817344
0.000657181
0.00786768
0.000621815
0.00757796
0.000589389
0.00730299
0.00055959
0.00704159
0.000532147
0.00679274
0.000506823
0.00655547
0.000483414
0.00632895
0.000461741
0.00611238
0.000441645
0.00590505
0.000422991
0.00570632
0.000405653
0.00551559
0.000389528
0.0053323
0.000374516
0.00515595
0.000360537
0.00498606
0.00034751
0.0048222
0.000335374
0.00466395
0.000324063
0.00451094
0.000313531
0.0043628
0.000303722
0.0042192
0.000294604
0.00407981
0.000286125
0.00394434
0.000278267
0.0038125
0.000270982
0.00368401
0.000264263
0.00355861
0.000258063
0.00343606
0.000252384
0.00331612
0.00024718
0.00319854
0.000242463
0.00308311
0.000238186
0.00296961
0.000234365
0.00285783
0.000230954
0.00274757
0.000227975
0.00263863
0.000225383
0.00253082
0.000223196
0.00242395
0.000221378
0.00231783
0.000219934
0.0022123
0.000218843
0.00210719
0.000218085
0.00200234
0.000217662
0.00189759
0.000217511
0.00179282
0.000217674
0.00168791
0.000218016
0.00158273
0.000218646
0.00147724
0.000219318
0.00137132
0.000220249
0.00126502
0.000221023
0.00115825
0.000222042
0.00105116
0.000222626
0.000943674
0.000223477
0.000836102
0.000223502
0.000728339
0.000223904
0.000620953
0.000222907
0.000513713
0.000222592
0.000407574
0.000220029
0.000302008
0.000218795
0.000198558
0.000214087
9.61407e-05
0.000211851
-2.78348e-06
0.000204544
-0.000100476
0.000201459
-0.000193467
0.000191729
-0.000284192
0.000186617
-0.000369907
0.000176381
-0.000451612
0.000167499
-0.000529568
0.000159881
-0.000601491
0.000147524
-0.000666964
0.000132358
-0.000740352
0.000152769
-0.00077252
6.09027e-05
-0.000867497
0.000195451
-0.000901166
7.96603e-05
-0.000893399
-4.314e-05
-0.00103728
0.000317281
-0.0010147
-5.08675e-05
-0.00109758
0.000164423
-0.00112623
7.28745e-05
-0.00108198
-0.000135428
-0.0013973
0.0007189
-0.0010886
-0.000680263
-0.0012246
0.000215775
-0.00181766
0.0014169
-0.00115755
-0.00153189
-0.00203901
0.00191761
-0.00183186
-0.000400118
-0.00165402
-0.00051695
-0.00218058
0.00113826
-0.00222174
-0.000183542
-0.0060203
0.00831917
-0.0107182
0.01097
-0.00936196
-0.00217635
-0.00948994
0.0494306
0.0135636
-0.0482372
0.0503928
0.0145817
0.0504082
0.0147288
0.049382
0.0141141
0.047532
0.0130494
0.0451512
0.0117764
0.0425118
0.01046
0.0398206
0.00920581
0.0372128
0.00806922
0.0347629
0.00707119
0.0325033
0.00621132
0.0304398
0.00547811
0.028564
0.00485553
0.0268608
0.00432689
0.0253132
0.00387676
0.023904
0.0034918
0.0226176
0.00316083
0.0214398
0.00287468
0.0203583
0.00262588
0.0193622
0.00240835
0.0184421
0.00221715
0.0175898
0.00204822
0.0167981
0.00189827
0.0160609
0.00176455
0.0153727
0.00164481
0.0147289
0.00153717
0.0141252
0.00144004
0.013558
0.0013521
0.013024
0.00127222
0.0125204
0.00119945
0.0120446
0.00113297
0.0115944
0.00107208
0.0111676
0.00101619
0.0107624
0.000964764
0.0103772
0.000917354
0.0100104
0.000873567
0.0096608
0.000833056
0.00932702
0.000795522
0.00900796
0.000760696
0.00870261
0.000728347
0.00841
0.000698265
0.00812926
0.000670269
0.00785958
0.000644193
0.00760022
0.000619897
0.00735048
0.000597245
0.00710973
0.00057613
0.00687735
0.000556441
0.00665278
0.000538096
0.0064355
0.000521001
0.00622501
0.000505097
0.00602083
0.0004903
0.00582253
0.000476573
0.00562967
0.000463838
0.00544185
0.000452077
0.0052587
0.000441215
0.00507983
0.000431249
0.00490491
0.000422108
0.00473357
0.000413801
0.0045655
0.000406258
0.00440036
0.000399497
0.00423787
0.00039345
0.0040777
0.000388141
0.00391958
0.000383505
0.00376321
0.000379566
0.00360833
0.000376266
0.00345465
0.000373613
0.00330192
0.00037157
0.0031499
0.00037011
0.00299833
0.000369225
0.00284701
0.000368829
0.00269572
0.000368966
0.00254429
0.000369449
0.00239253
0.000370409
0.00224034
0.000371504
0.00208758
0.000373011
0.00193426
0.000374346
0.00178026
0.000376039
0.00162576
0.000377131
0.00147065
0.000378582
0.00131534
0.000378812
0.0011597
0.000379543
0.00100447
0.000378138
0.000849368
0.000377694
0.000695673
0.000373725
0.000542702
0.000371766
0.000392564
0.000364225
0.000243786
0.000360628
9.96475e-05
0.000348683
-4.2475e-05
0.000343581
-0.000178201
0.000327455
-0.000310883
0.000319299
-0.000436333
0.000301831
-0.000556378
0.000287544
-0.000670797
0.0002743
-0.000776771
0.000253498
-0.000874075
0.000229663
-0.00098048
0.000259174
-0.0010326
0.000113023
-0.00116853
0.000331379
-0.00121529
0.00012642
-0.00122035
-3.80878e-05
-0.00141605
0.000512979
-0.00138791
-7.90099e-05
-0.00151023
0.000286748
-0.00154805
0.000110691
-0.00150949
-0.000173991
-0.0019179
0.00112731
-0.00151576
-0.00108241
-0.00173831
0.000438327
-0.00247714
0.00215573
-0.00163453
-0.0023745
-0.00283731
0.0031204
-0.00253138
-0.000706051
-0.00237462
-0.000673712
-0.00311757
0.0018812
-0.00333007
2.90786e-05
-0.00840047
0.0133896
-0.0142346
0.0168041
-0.0118813
-0.00452961
-0.0155413
0.0528906
0.0126663
-0.0519933
0.0539179
0.0135544
0.0546001
0.0140467
0.0546666
0.0140477
0.0540646
0.0136514
0.0528635
0.0129775
0.0511927
0.0121308
0.0491989
0.0111997
0.0470169
0.0102512
0.0447575
0.00933053
0.0425033
0.00846557
0.0403103
0.00767108
0.0382133
0.00695257
0.0362307
0.00630947
0.0343699
0.00573752
0.0326312
0.00523055
0.0310103
0.00478171
0.0295008
0.00438417
0.0280951
0.00403153
0.0267855
0.00371804
0.025564
0.00343862
0.0244234
0.00318883
0.0233568
0.00296486
0.0223579
0.00276344
0.021421
0.00258174
0.0205408
0.00241735
0.0197126
0.00226821
0.0189322
0.00213252
0.0181957
0.00200875
0.0174995
0.00189558
0.0168406
0.00179186
0.0162161
0.0016966
0.0156234
0.00160892
0.0150601
0.00152806
0.0145241
0.00145337
0.0140134
0.00138426
0.0135262
0.00132022
0.0130609
0.00126079
0.0126161
0.00120558
0.0121902
0.00115423
0.011782
0.00110642
0.0113904
0.00106188
0.0110143
0.00102035
0.0106525
0.000981627
0.0103043
0.000945488
0.00996864
0.000911771
0.00964478
0.000880304
0.00933192
0.000850959
0.00902933
0.00082359
0.00873632
0.000798104
0.00845224
0.000774373
0.00817648
0.000752332
0.00790846
0.000731867
0.00764759
0.00071294
0.00739336
0.000695443
0.00714525
0.000679361
0.00690277
0.000664593
0.00666543
0.000651141
0.00643278
0.000638906
0.00620437
0.000627908
0.00597977
0.000618048
0.00575855
0.000609354
0.00554032
0.000601736
0.00532467
0.00059522
0.00511121
0.000589724
0.00489957
0.00058526
0.00468937
0.000581765
0.00448027
0.00057921
0.00427193
0.000577568
0.00406403
0.000576728
0.00385626
0.00057673
0.00364838
0.000577329
0.00344012
0.000578674
0.00323131
0.000580309
0.00302175
0.000582572
0.00281142
0.000584681
0.00260015
0.000587308
0.00238813
0.000589151
0.00217523
0.000591478
0.00196194
0.000592107
0.00174809
0.000593388
0.00153463
0.000591602
0.0013212
0.000591118
0.00110946
0.000585465
0.000898547
0.000582683
0.000691216
0.000571556
0.000485561
0.000566283
0.000285936
0.000548307
8.88803e-05
0.000540637
-9.96309e-05
0.000515966
-0.00028432
0.000503988
-0.000459117
0.000476628
-0.000626993
0.00045542
-0.000786845
0.000434152
-0.000935584
0.000402237
-0.001073
0.00036708
-0.00122017
0.000406346
-0.00129964
0.000192494
-0.00148395
0.000515686
-0.00154839
0.000190858
-0.00157477
-1.17009e-05
-0.00182791
0.000766128
-0.00179691
-0.000110016
-0.001967
0.000456845
-0.0020167
0.000160383
-0.00199275
-0.000197939
-0.0024954
0.00162996
-0.00200481
-0.001573
-0.00233073
0.000764251
-0.0032065
0.0030315
-0.00218945
-0.00339156
-0.00374168
0.00467262
-0.00332659
-0.00112114
-0.00323402
-0.000766279
-0.00422801
0.00287519
-0.00467391
0.00047487
-0.0110329
0.0197485
-0.0178508
0.023622
-0.0141803
-0.00820013
-0.0235575
0.0566126
0.0119799
-0.0559262
0.0574652
0.0127018
0.0582606
0.0132512
0.0587858
0.0135225
0.0589184
0.0135188
0.0586125
0.0132834
0.0578775
0.0128658
0.0567611
0.012316
0.0553321
0.0116803
0.0536659
0.0109968
0.051836
0.0102954
0.049908
0.00959906
0.0479367
0.00892395
0.045965
0.00828112
0.0440252
0.00767732
0.0421398
0.007116
0.0403234
0.00659809
0.0385847
0.00612282
0.036928
0.00568824
0.0353543
0.00529176
0.0338625
0.00493044
0.0324501
0.00460124
0.0311137
0.00430122
0.0298496
0.00402757
0.0286536
0.00377768
0.0275218
0.00354919
0.02645
0.00333996
0.0254345
0.00314806
0.0244715
0.00297176
0.0235575
0.00280955
0.0226893
0.00266005
0.0218639
0.00252205
0.0210783
0.00239448
0.02033
0.00227637
0.0196165
0.00216688
0.0189355
0.00206526
0.0182849
0.00197081
0.0176628
0.00188294
0.0170672
0.00180111
0.0164966
0.00172484
0.0159493
0.0016537
0.0154239
0.0015873
0.014919
0.00152529
0.0144332
0.00146736
0.0139655
0.00141323
0.0135146
0.00136266
0.0130795
0.00131539
0.0126592
0.00127126
0.0122528
0.00123005
0.0118592
0.00119163
0.0114778
0.0011558
0.0111076
0.00112249
0.010748
0.00109152
0.0103981
0.00106283
0.0100573
0.00103628
0.00972478
0.00101183
0.00940002
0.00098935
0.00908234
0.000968826
0.00877112
0.000950126
0.00846576
0.000933266
0.00816569
0.000918117
0.00787034
0.000904708
0.00757916
0.000892915
0.00729161
0.00088277
0.00700717
0.000874162
0.00672533
0.000867103
0.00644559
0.000861506
0.00616746
0.00085733
0.0058905
0.000854532
0.00561426
0.000852968
0.00533832
0.000852672
0.00506232
0.000853328
0.00478589
0.000855104
0.00450879
0.000857407
0.00423072
0.000860645
0.00395161
0.000863788
0.00367124
0.000867684
0.00338978
0.000870602
0.00310708
0.000874183
0.00282369
0.000875499
0.00253941
0.000877666
0.00225539
0.000875619
0.00197121
0.000875301
0.00168893
0.000867744
0.00140748
0.000864131
0.00113038
0.000848656
0.000855222
0.00084144
0.00058761
0.000815919
0.000323104
0.000805143
6.9604e-05
0.000769466
-0.000179273
0.000752864
-0.000415129
0.000712484
-0.000642431
0.000682722
-0.000858691
0.000650413
-0.00106093
0.000604472
-0.00124863
0.000554782
-0.00144612
0.000603837
-0.00156222
0.000308592
-0.00180367
0.000757144
-0.00189226
0.000279438
-0.00195019
4.62255e-05
-0.00226665
0.00108258
-0.00223757
-0.000139092
-0.00246478
0.000684049
-0.0025301
0.000225703
-0.00253089
-0.000197143
-0.00312895
0.00222801
-0.00255883
-0.00214311
-0.00300279
0.00120821
-0.0040073
0.004036
-0.00282893
-0.00456993
-0.00475371
0.00659741
-0.0042258
-0.00164906
-0.00424708
-0.000745003
-0.00552229
0.0041504
-0.00625235
0.00120497
-0.013862
0.0273581
-0.0214842
0.0312442
-0.0161483
-0.013536
-0.0338641
0.0606197
0.0114172
-0.060057
0.0613034
0.012018
0.0620171
0.0125376
0.062638
0.0129016
0.0630684
0.0130884
0.0632444
0.0131074
0.0631303
0.0129799
0.0627155
0.0127308
0.0620104
0.0123854
0.0610394
0.0119677
0.0598371
0.0114977
0.0584433
0.0109929
0.0568993
0.010468
0.0552452
0.00993523
0.053518
0.00940452
0.0517502
0.00888377
0.0499692
0.00837905
0.0481973
0.0078948
0.0464515
0.007434
0.0447448
0.00699841
0.0430865
0.0065888
0.0414825
0.00620518
0.0399368
0.00584697
0.0384511
0.00551323
0.0370261
0.00520272
0.0356612
0.00491411
0.0343551
0.00464598
0.0331063
0.0043969
0.0319126
0.00416548
0.0307717
0.0039504
0.0296814
0.00375042
0.0286391
0.00356435
0.0276424
0.00339111
0.0266891
0.00322972
0.0257767
0.00307924
0.0249031
0.00293885
0.0240662
0.00280778
0.0232638
0.00268532
0.022494
0.00257085
0.0217551
0.00246378
0.0210452
0.0023636
0.0203627
0.00226982
0.019706
0.002182
0.0190736
0.00209977
0.018464
0.00202275
0.0178761
0.00195064
0.0173083
0.00188312
0.0167597
0.00181994
0.0162289
0.00176085
0.0157148
0.00170564
0.0152165
0.0016541
0.014733
0.00160608
0.0142631
0.00156136
0.0138061
0.00151987
0.0133609
0.00148141
0.0129268
0.00144593
0.012503
0.00141323
0.0120885
0.00138333
0.0116826
0.00135602
0.0112845
0.00133134
0.0108935
0.0013091
0.0105089
0.00128935
0.0101299
0.00127192
0.00975579
0.00125685
0.00938596
0.00124399
0.00901971
0.00123336
0.00865639
0.00122483
0.00829534
0.00121837
0.00793597
0.0012139
0.00757769
0.00121125
0.00721993
0.00121043
0.0068622
0.00121106
0.00650399
0.00121331
0.00614497
0.00121643
0.0057847
0.00122091
0.00542306
0.00122543
0.00505972
0.00123103
0.00469486
0.00123546
0.00432823
0.00124081
0.00396049
0.00124324
0.00359136
0.0012468
0.00322223
0.00124475
0.00285256
0.00124497
0.00248491
0.0012354
0.00211795
0.00123109
0.00175607
0.00121054
0.00139629
0.00120121
0.00104567
0.00116654
0.000698667
0.00115215
0.000365272
0.00110286
3.75985e-05
0.00108054
-0.000273583
0.00102367
-0.000574475
0.000983614
-0.000860571
0.000936508
-0.0011295
0.000873399
-0.00137997
0.000805259
-0.00163955
0.000863416
-0.00180385
0.000472891
-0.0021129
0.0010662
-0.00223451
0.000401045
-0.00233605
0.000147781
-0.00272225
0.00146877
-0.00270266
-0.000158679
-0.00299713
0.000978524
-0.00308322
0.000311791
-0.00312009
-0.000160276
-0.0038153
0.00292321
-0.00317842
-0.00277999
-0.00375229
0.00178208
-0.00487948
0.00516319
-0.0035574
-0.00589201
-0.00587159
0.0089116
-0.0052354
-0.00228525
-0.00542441
-0.000555987
-0.00700178
0.00572776
-0.00804916
0.00225235
-0.0168068
0.0361158
-0.0250342
0.0394715
-0.0176626
-0.0209076
-0.0468394
0.0649058
0.010933
-0.0644215
0.0654706
0.0114532
0.0660775
0.0119306
0.0666613
0.0123178
0.0671594
0.0125903
0.0675232
0.0127436
0.0677174
0.0127858
0.0677178
0.0127303
0.0675114
0.0125919
0.0670939
0.0123852
0.0664689
0.0121227
0.065647
0.0118148
0.064644
0.011471
0.0634797
0.0110995
0.062177
0.0107072
0.06076
0.0103008
0.0592531
0.00988601
0.0576797
0.00946819
0.0560616
0.00905203
0.0544185
0.00864157
0.0527671
0.0082402
0.0511216
0.00785063
0.0494937
0.00747487
0.0478926
0.00711439
0.0463252
0.0067701
0.0447968
0.00644247
0.0433112
0.00613162
0.0418707
0.00583738
0.0404768
0.00555939
0.0391301
0.00529712
0.0378305
0.00504997
0.0365777
0.00481723
0.0353706
0.0045982
0.0342082
0.00439214
0.033089
0.00419835
0.0320118
0.00401611
0.0309748
0.00384475
0.0299765
0.00368363
0.0290152
0.00353212
0.0280894
0.00338966
0.0271973
0.0032557
0.0263373
0.00312975
0.025508
0.00301134
0.0247077
0.00290003
0.0239351
0.00279542
0.0231885
0.00269716
0.0224668
0.00260488
0.0217684
0.00251831
0.0210921
0.00243711
0.0204367
0.00236107
0.0198009
0.00228991
0.0191835
0.00222345
0.0185834
0.00216144
0.0179995
0.00210377
0.0174308
0.0020502
0.016876
0.00200067
0.0163343
0.00195494
0.0158046
0.001913
0.015286
0.00187463
0.0147775
0.00183984
0.0142782
0.00180843
0.0137871
0.00178042
0.0133034
0.00175563
0.0128262
0.00173409
0.0123545
0.00171563
0.0118876
0.00170025
0.0114246
0.00168782
0.0109647
0.00167827
0.0105071
0.00167151
0.0100511
0.00166732
0.00959578
0.00166572
0.00914063
0.00166621
0.00868493
0.001669
0.00822822
0.00167314
0.00776991
0.00167923
0.00730978
0.00168556
0.00684737
0.00169344
0.00638284
0.00169998
0.00591583
0.00170783
0.00544708
0.00171199
0.0049762
0.00171767
0.00450487
0.00171608
0.00403237
0.00171746
0.00356182
0.00170595
0.0030916
0.00170131
0.00262707
0.00167506
0.00216466
0.00166362
0.00171303
0.00161817
0.00126544
0.00159973
0.000834358
0.00153395
0.000409923
0.00150497
6.56595e-06
0.00142702
-0.000385539
0.00137572
-0.000757892
0.00130886
-0.00110971
0.00122522
-0.0014383
0.00113385
-0.00177448
0.0011996
-0.00200133
0.000699742
-0.00239062
0.00145548
-0.00255695
0.000567375
-0.00271632
0.000307142
-0.0031797
0.00193215
-0.00318045
-0.000157933
-0.0035531
0.00135117
-0.00366695
0.000425639
-0.00375249
-7.47171e-05
-0.00454773
0.00371845
-0.00386038
-0.00346734
-0.00457288
0.00249459
-0.00582032
0.00641061
-0.00437554
-0.00733679
-0.00708886
0.0116249
-0.0063577
-0.00301642
-0.00676909
-0.000144598
-0.00865445
0.00761312
-0.010029
0.00362687
-0.0197587
0.0458456
-0.0283789
0.0480916
-0.018591
-0.0306955
-0.062906
0.0694796
0.0105057
-0.0690523
0.0699628
0.0109701
0.0704827
0.0114108
0.0710036
0.0117968
0.0714861
0.0121078
0.0718962
0.0123335
0.0722081
0.012474
0.0724022
0.0125362
0.0724644
0.0125297
0.0723847
0.0124649
0.0721562
0.0123512
0.071775
0.012196
0.0712405
0.0120056
0.0705549
0.011785
0.0697238
0.0115383
0.0687556
0.011269
0.0676615
0.0109801
0.0664549
0.0106748
0.0651508
0.0103561
0.0637651
0.0100273
0.0623138
0.00969147
0.0608127
0.00935177
0.0592764
0.00901113
0.0577186
0.00867225
0.0561512
0.00833752
0.0545847
0.00800896
0.053028
0.00768828
0.0514886
0.00737681
0.0499724
0.00707556
0.0484842
0.00678526
0.0470278
0.00650637
0.0456059
0.00623915
0.0442204
0.00598369
0.0428727
0.00573993
0.0415633
0.0055077
0.0402926
0.00528677
0.0390606
0.00507682
0.0378667
0.00487751
0.0367103
0.00468846
0.0355907
0.00450929
0.0345068
0.00433959
0.0334576
0.00417898
0.0324419
0.00402705
0.0314585
0.00388346
0.0305061
0.00374782
0.0295834
0.00361981
0.0286892
0.00349907
0.0278222
0.00338533
0.026981
0.00327826
0.0261645
0.00317764
0.0253712
0.00308316
0.0246
0.00299466
0.0238496
0.00291183
0.0231188
0.00283458
0.0224064
0.00276263
0.0217111
0.00269591
0.0210319
0.00263417
0.0203675
0.00257738
0.0197169
0.00252529
0.0190788
0.00247793
0.0184522
0.00243505
0.0178359
0.00239669
0.0172289
0.00236262
0.0166301
0.00233291
0.0160384
0.00230732
0.0154528
0.00228589
0.0148721
0.00226845
0.0142955
0.00225491
0.0137218
0.00224517
0.0131502
0.00223896
0.0125796
0.00223631
0.0120092
0.00223658
0.0114382
0.00224005
0.0108658
0.0022455
0.0102914
0.00225369
0.00971448
0.00226244
0.00913451
0.00227341
0.0085516
0.0022829
0.0079652
0.00229423
0.00737615
0.00230103
0.00678392
0.00230991
0.00619044
0.00230956
0.00559484
0.00231307
0.00500082
0.00229996
0.00440642
0.00229571
0.00381814
0.00226335
0.00323168
0.00225009
0.00265758
0.00219227
0.00208777
0.00216954
0.00153753
0.00208418
0.000994836
0.00204767
0.000477434
0.00194442
-2.57875e-05
0.00187894
-0.000504672
0.00178774
-0.000959214
0.00167976
-0.00138479
0.00155942
-0.00181546
0.00163027
-0.00212259
0.00100688
-0.00260758
0.00194047
-0.00283374
0.000793532
-0.00306761
0.000541018
-0.00361733
0.00248187
-0.00365322
-0.00012202
-0.00411558
0.00181352
-0.00426659
0.000576647
-0.00441473
7.34042e-05
-0.0053146
0.00461831
-0.00459609
-0.00418584
-0.00545279
0.00335129
-0.00682277
0.00778058
-0.00527811
-0.00888145
-0.00839282
0.0147396
-0.00758761
-0.00382164
-0.00827215
0.000539951
-0.0104504
0.00979132
-0.0121339
0.00531045
-0.0225791
0.0562907
-0.0313678
0.0568803
-0.0187927
-0.0432706
-0.0825409
0.0743608
0.0101227
-0.0739779
0.0747849
0.0105461
0.075239
0.0109566
0.0757024
0.0113334
0.0761494
0.0116608
0.0765554
0.0119275
0.0769005
0.0121289
0.0771702
0.0122665
0.0773541
0.0123458
0.0774448
0.0123742
0.0774366
0.0123594
0.0773243
0.0123083
0.0771034
0.0122264
0.0767702
0.0121182
0.0763215
0.0119871
0.0757553
0.0118352
0.0750713
0.0116641
0.0742714
0.0114747
0.0733594
0.0112681
0.0723413
0.0110454
0.0712251
0.0108077
0.0700203
0.0105565
0.0687377
0.0102938
0.0673885
0.0100214
0.0659845
0.00974154
0.0645371
0.00945634
0.0630574
0.00916799
0.0615557
0.00887852
0.0600414
0.00858985
0.058523
0.00830369
0.0570078
0.00802153
0.0555023
0.00774465
0.0540119
0.00747411
0.0525411
0.00721077
0.0510935
0.00695528
0.0496721
0.00670815
0.0482792
0.00646973
0.0469165
0.00624025
0.0455851
0.00601983
0.0442858
0.00580852
0.0430192
0.00560627
0.0417851
0.00541301
0.0405836
0.0052286
0.0394141
0.0050529
0.0382763
0.0048857
0.0371692
0.00472683
0.0360923
0.00457605
0.0350444
0.00443318
0.0340247
0.00429798
0.033032
0.00417029
0.0320653
0.00404984
0.0311235
0.00393652
0.0302053
0.00383005
0.0293095
0.00373037
0.0284349
0.00363718
0.0275803
0.00355049
0.0267445
0.00346998
0.0259262
0.00339571
0.0251241
0.00332737
0.024337
0.00326504
0.0235636
0.00320843
0.0228027
0.00315763
0.0220529
0.00311237
0.0213131
0.00307274
0.0205819
0.0030385
0.0198581
0.00300969
0.0191405
0.00298612
0.0184277
0.00296771
0.0177185
0.00295433
0.0170118
0.00294568
0.0163063
0.00294178
0.015601
0.00294187
0.0148948
0.0029463
0.0141867
0.00295356
0.0134758
0.00296458
0.0127616
0.00297665
0.0120432
0.00299181
0.0113207
0.00300542
0.0105933
0.00302165
0.00986188
0.00303241
0.00912577
0.00304603
0.0083872
0.00304812
0.007645
0.00305527
0.00690359
0.00304137
0.00616059
0.00303871
0.00542375
0.00300019
0.00468799
0.00298584
0.00396598
0.00291428
0.00324816
0.00288736
0.00255308
0.00277927
0.00186625
0.0027345
0.00120977
0.0026009
0.000569131
0.00251958
-4.02776e-05
0.00239715
-0.000621661
0.00226114
-0.00116749
0.00210525
-0.00171466
0.00217744
-0.00212392
0.00141614
-0.00272377
0.00254032
-0.00302878
0.00109854
-0.00335698
0.000869217
-0.00400467
0.00312956
-0.00409496
-3.17743e-05
-0.0046593
0.00237786
-0.00485995