/*--------------------------------*- C++ -*----------------------------------*\
| =========                 |                                                 |
| \\      /  F ield         | OpenFOAM: The Open Source CFD Toolbox           |
|  \\    /   O peration     | Version:  2412                                  |
|   \\  /    A nd           | Website:  www.openfoam.com                      |
|    \\/     M anipulation  |                                                 |
\*---------------------------------------------------------------------------*/
FoamFile
{
    version     2.0;
    format      ascii;
    arch        "LSB;label=32;scalar=64";
    class       volVectorField;
    location    "1.5";
    object      U_0;
}
// * * * * * * * * * * * * * * * * * * * * * * * * * * * * * * * * * * * * * //

dimensions      [0 1 -1 0 0 0 0];

internalField   nonuniform List<vector> 
12600
(
(18.7529 1.24639e-21 2.09779)
(11.6266 1.61021e-20 0.452118)
(7.35458 1.89265e-20 -0.477732)
(5.09109 0 -0.709397)
(3.97721 1.70975e-20 -0.682484)
(3.33598 1.59174e-20 -0.607715)
(2.89437 0 -0.539972)
(2.56287 0 -0.484448)
(2.30302 -4.7799e-20 -0.438928)
(2.0927 0 -0.401137)
(1.91816 2.00341e-20 -0.369225)
(1.77048 1.83373e-20 -0.341861)
(1.64354 -1.67921e-20 -0.318094)
(1.53299 0 -0.297228)
(1.43566 -1.4062e-20 -0.278737)
(1.34916 0 -0.262217)
(1.27165 4.72062e-20 -0.247353)
(1.2017 0 -0.233894)
(1.13819 -1.97355e-20 -0.221639)
(1.08019 -1.80386e-20 -0.210424)
(1.02698 1.64559e-20 -0.200114)
(0.97794 5.33173e-24 -0.190598)
(0.932559 0 -0.18178)
(0.890415 -2.47673e-20 -0.173583)
(0.851148 0 -0.165939)
(0.81445 0 -0.158789)
(0.780057 -1.83045e-20 -0.152085)
(0.747742 0 -0.145782)
(0.717306 4.16739e-24 -0.139844)
(0.688578 1.31696e-20 -0.134238)
(0.661404 1.17029e-20 -0.128933)
(0.635651 1.03447e-20 -0.123905)
(0.611199 -9.08739e-21 -0.119131)
(0.587943 -1.58478e-20 -0.11459)
(0.565788 -1.36955e-20 -0.110264)
(0.544648 1.1695e-20 -0.106136)
(0.524448 0 -0.102192)
(0.505118 -8.17077e-21 -0.0984181)
(0.486595 0 -0.0948022)
(0.468821 5.16279e-21 -0.0913333)
(0.451746 0 -0.0880011)
(0.435321 1.76495e-23 -0.0847963)
(0.419502 0 -0.0817105)
(0.40425 1.6059e-23 -0.0787357)
(0.389526 -9.77365e-22 -0.0758647)
(0.375296 2.68594e-21 -0.0730908)
(0.361529 -4.27289e-21 -0.0704078)
(0.348195 0 -0.0678097)
(0.335266 0 -0.0652914)
(0.322716 -8.18429e-21 -0.0628475)
(0.310522 -1.84979e-20 -0.0604736)
(0.29866 -2.04145e-20 -0.058165)
(0.287111 1.9561e-23 -0.0559178)
(0.275851 -2.36482e-20 -0.0537277)
(0.264866 0 -0.0515916)
(0.254133 2.62293e-20 -0.0495054)
(0.243641 2.7281e-20 -0.0474663)
(0.233369 2.81788e-20 -0.0454707)
(0.223306 0 -0.0435163)
(0.213434 0 -0.0415996)
(0.203745 0 -0.0397189)
(0.19422 -6.12668e-20 -0.0378706)
(0.184854 0 -0.0360536)
(0.17563 0 -0.0342646)
(0.166542 1.25635e-19 -0.0325027)
(0.157578 0 -0.030765)
(0.148732 0 -0.0290508)
(0.139994 0 -0.0273577)
(0.131359 -1.25504e-19 -0.025685)
(0.122822 1.2485e-19 -0.0240314)
(0.114376 1.2398e-19 -0.0223958)
(0.106023 2.35274e-23 -0.0207783)
(0.0977535 -1.21657e-19 -0.0191774)
(0.0895809 0 -0.0175952)
(0.0814905 1.18649e-19 -0.016029)
(0.0735092 0 -0.014484)
(0.0656149 0 -0.0129557)
(0.0578522 0 -0.0114528)
(0.0501902 2.86134e-23 -0.0099693)
(0.04269 2.17534e-19 -0.0085168)
(0.0353179 2.12912e-19 -0.00708889)
(0.0281389 -2.08106e-19 -0.00569796)
(0.0211391 -2.03149e-19 -0.00434139)
(0.0143481 0 -0.00302472)
(0.00783188 0 -0.00176087)
(0.00149077 3.7506e-19 -0.000530265)
(-0.00439924 -7.28361e-19 0.000613383)
(-0.0102504 7.0634e-19 0.00175)
(-0.0153484 3.42045e-19 0.00274146)
(-0.0206947 0 0.00378145)
(-0.0248553 -6.39011e-19 0.00459265)
(-0.0296624 3.08163e-19 0.00552887)
(-0.0328753 -2.96843e-19 0.00615757)
(-0.0369518 5.71145e-19 0.00695302)
(-0.0395173 0 0.00745612)
(-0.0425556 0 0.00805261)
(-0.0442622 0 0.00838652)
(-0.048273 0 0.00915214)
(-0.044035 0 0.00836513)
(-0.0573197 0 0.010916)
(-0.0436732 -4.22398e-19 0.00826282)
(-0.0536838 -7.98684e-19 0.0102625)
(-0.0551462 -7.62373e-19 0.0104917)
(-0.049201 0 0.00939473)
(-0.0614254 0 0.0117286)
(-0.0470106 0 0.00891948)
(-0.0531526 -6.16062e-19 0.0102985)
(-0.0799504 -1.17037e-18 0.0150933)
(-0.012292 5.68833e-19 0.00244077)
(-0.0919951 0 0.0177072)
(-0.0658657 -1.0249e-18 0.0121992)
(-0.0296555 0 0.00605085)
(-0.13518 -8.83872e-19 0.0257786)
(-0.00776789 8.60886e-19 0.00148914)
(-0.115867 -7.71262e-19 0.0222744)
(-0.0264636 -7.67105e-19 0.00512602)
(-0.0949546 6.6357e-19 0.0194624)
(-0.316333 5.79297e-24 0.0609245)
(-0.539564 6.21013e-19 0.102357)
(-0.255818 0 0.0469922)
(29.1672 -1.25823e-21 4.03106)
(25.1198 0 1.86144)
(20.2534 -1.91557e-20 -0.212395)
(16.0835 0 -1.21196)
(13.1215 -1.73247e-20 -1.50779)
(11.077 -3.0408e-20 -1.51879)
(9.6036 -1.40712e-20 -1.44109)
(8.49074 0 -1.34337)
(7.61723 3.55887e-22 -1.2479)
(6.9102 -2.18576e-20 -1.16076)
(6.32395 2.0062e-20 -1.08262)
(5.82843 1.84114e-20 -1.01275)
(5.40301 -1.6894e-20 -0.95015)
(5.033 1.54982e-20 -0.893837)
(4.70765 2.84824e-20 -0.84295)
(4.41888 0 -0.796754)
(4.16048 -6.43992e-23 -0.754629)
(3.92762 2.18521e-20 -0.716052)
(3.71646 2.00227e-20 -0.680584)
(3.52392 0 -0.647853)
(3.34747 0 -0.617545)
(3.18507 1.52002e-20 -0.589389)
(3.03498 0 -0.563154)
(2.89577 1.25553e-20 -0.538643)
(2.76622 -2.27491e-20 -0.515683)
(2.64529 0 -0.494124)
(2.53209 1.8553e-20 -0.473835)
(2.42585 0 -0.454701)
(2.3259 -1.4944e-20 -0.436621)
(2.23167 -2.66806e-20 -0.419505)
(2.14263 -2.3705e-20 -0.403273)
(2.05834 -1.04708e-20 -0.387854)
(1.97839 9.19555e-21 -0.373184)
(1.90243 3.20815e-20 -0.359205)
(1.83014 2.77186e-20 -0.345866)
(1.76124 0 -0.33312)
(1.69547 0 -0.320924)
(1.63259 -1.74535e-23 -0.30924)
(1.57239 0 -0.298033)
(1.5147 -5.21204e-21 -0.28727)
(1.45932 0 -0.276922)
(1.4061 -5.27158e-21 -0.266961)
(1.35489 0 -0.257362)
(1.30557 -9.30549e-22 -0.248103)
(1.258 0 -0.239161)
(1.21207 -2.70457e-21 -0.230516)
(1.16767 0 -0.22215)
(1.12471 0 -0.214045)
(1.0831 7.01014e-21 -0.206186)
(1.04274 0 -0.198557)
(1.00357 0 -0.191144)
(0.965491 0 -0.183932)
(0.928451 2.21834e-20 -0.176911)
(0.892374 4.7386e-20 -0.170067)
(0.857205 0 -0.16339)
(0.822877 0 -0.156869)
(0.789345 -2.72567e-20 -0.150494)
(0.756544 -2.81775e-20 -0.144254)
(0.724438 0 -0.138143)
(0.692966 0 -0.13215)
(0.6621 0 -0.126268)
(0.631782 0 -0.120488)
(0.60199 -6.16771e-20 -0.114806)
(0.57267 6.21455e-20 -0.109211)
(0.543805 -1.24921e-19 -0.103701)
(0.515347 0 -0.0982672)
(0.487283 0 -0.0929062)
(0.459574 0 -0.0876114)
(0.432207 4.75739e-23 -0.0823803)
(0.405157 -1.23656e-19 -0.0772087)
(0.378409 -1.22682e-19 -0.0720932)
(0.35196 2.42986e-19 -0.0670344)
(0.325784 3.60272e-23 -0.0620265)
(0.299914 -1.18605e-19 -0.057077)
(0.274307 -1.16961e-19 -0.0521764)
(0.249039 0 -0.0473415)
(0.224045 0 -0.0425576)
(0.199454 0 -0.0378523)
(0.175177 2.17883e-19 -0.0332052)
(0.151391 0 -0.0286548)
(0.127999 0 -0.0241775)
(0.105192 2.03677e-19 -0.0198161)
(0.0829338 1.98613e-19 -0.0155566)
(0.06131 0 -0.0114235)
(0.0405246 0 -0.00744714)
(0.0202752 0 -0.00357953)
(0.00140171 7.08943e-19 2.96268e-05)
(-0.0173444 -4.24341e-23 0.00360757)
(-0.0337882 3.32171e-19 0.00674964)
(-0.0509805 -3.20897e-19 0.0100291)
(-0.0645246 6.19269e-19 0.012613)
(-0.0800652 2.98295e-19 0.0155778)
(-0.0906266 5.74111e-19 0.0175867)
(-0.103963 0 0.020132)
(-0.112389 0 0.0217334)
(-0.122565 0 0.0236589)
(-0.128403 0 0.0248057)
(-0.140928 4.64459e-19 0.0271011)
(-0.129808 0 0.0250832)
(-0.169034 0 0.0325675)
(-0.12859 -4.05015e-19 0.0245212)
(-0.161778 3.82552e-19 0.0313696)
(-0.163086 1.45916e-18 0.0312479)
(-0.148259 -6.94423e-19 0.0285577)
(-0.183156 0 0.0352664)
(-0.141743 0 0.0269288)
(-0.163922 0 0.0321734)
(-0.232643 5.57393e-19 0.0440344)
(-0.0472846 -5.4136e-19 0.00898538)
(-0.27792 0 0.0546757)
(-0.189667 1.9474e-18 0.0348735)
(-0.102069 8.8204e-19 0.021113)
(-0.39908 1.67674e-18 0.0764764)
(-0.0288947 0 0.004975)
(-0.355454 0 0.0689389)
(-0.0920747 -7.26069e-19 0.0170762)
(-0.333954 0 0.069378)
(-0.949461 -5.78425e-19 0.189208)
(-1.52617 -5.85932e-19 0.29359)
(-0.6749 0 0.124221)
(31.9108 0 3.90293)
(31.0948 0 2.82357)
(28.5625 -1.29731e-20 1.02655)
(25.2166 0 -0.381459)
(21.9621 0 -1.22608)
(19.1871 1.51168e-20 -1.65112)
(16.9275 1.33255e-20 -1.81947)
(15.1014 0 -1.85102)
(13.613 4.20788e-22 -1.81723)
(12.3822 2.0707e-20 -1.75464)
(11.3483 -3.7804e-20 -1.68077)
(10.4671 -1.74447e-20 -1.60398)
(9.70632 1.14495e-22 -1.52826)
(9.04211 -1.46858e-20 -1.45545)
(8.45652 -1.34683e-20 -1.38634)
(7.93582 1.22964e-20 -1.3212)
(7.46933 -2.26207e-20 -1.26)
(7.04862 -2.07079e-20 -1.20259)
(6.66696 0 -1.14875)
(6.31888 0 -1.09824)
(5.99991 1.57667e-20 -1.05079)
(5.70636 1.43724e-20 -1.00618)
(5.43515 0 -0.964188)
(5.18369 0 -0.924593)
(4.94977 2.15561e-20 -0.887208)
(4.73153 0 -0.851859)
(4.52735 -3.51535e-20 -0.818387)
(4.33584 1.58046e-20 -0.786647)
(4.15577 0 -0.756507)
(3.9861 1.26418e-20 -0.727849)
(3.82589 1.12322e-20 -0.700564)
(3.67432 0 -0.674553)
(3.53066 -8.72424e-21 -0.649726)
(3.39425 -1.52025e-20 -0.626001)
(3.26453 1.22418e-23 -0.603303)
(3.14097 0 -0.581562)
(3.0231 0 -0.560715)
(2.9105 7.83363e-21 -0.540704)
(2.80278 0 -0.521476)
(2.6996 0 -0.502979)
(2.60064 0 -0.48517)
(2.5056 0 -0.468005)
(2.41423 0 -0.451444)
(2.32628 0 -0.43545)
(2.24152 0 -0.419991)
(2.15974 2.51646e-21 -0.405032)
(2.08075 -4.01543e-21 -0.390544)
(2.00436 0 -0.376499)
(1.93043 -6.63226e-21 -0.362871)
(1.85877 0 -0.349634)
(1.78927 0 -0.336766)
(1.72176 1.92988e-20 -0.324243)
(1.65614 0 -0.312046)
(1.59227 -2.23886e-20 -0.300152)
(1.53005 2.36408e-20 -0.288546)
(1.46935 0 -0.277207)
(1.41011 2.57635e-20 -0.266121)
(1.3522 0 -0.255269)
(1.29555 0 -0.244639)
(1.24006 0 -0.234212)
(1.18567 5.68193e-20 -0.22398)
(1.13227 5.7613e-20 -0.213923)
(1.07984 2.85803e-23 -0.204037)
(1.02826 -1.17339e-19 -0.194302)
(0.977515 2.50652e-23 -0.184715)
(0.927509 0 -0.175259)
(0.878218 0 -0.165931)
(0.829572 -1.17817e-19 -0.156718)
(0.781545 3.83187e-23 -0.147616)
(0.73409 0 -0.138616)
(0.687178 0 -0.129714)
(0.640799 -1.14553e-19 -0.12091)
(0.594911 2.89911e-23 -0.112193)
(0.549557 2.69794e-23 -0.103577)
(0.50467 0 -0.0950444)
(0.460366 0 -0.0866241)
(0.416543 -2.13193e-19 -0.0782901)
(0.373405 2.09264e-19 -0.0700905)
(0.330808 0 -0.0619883)
(0.289043 0 -0.0540513)
(0.247953 0 -0.0462359)
(0.207851 0 -0.0386197)
(0.168682 0 -0.0311718)
(0.130588 0 -0.0239438)
(0.0939166 0 -0.016974)
(0.0581593 0 -0.010199)
(0.0247382 -6.66509e-19 -0.00385062)
(-0.00845287 -3.2278e-19 0.00242977)
(-0.0377275 -3.12198e-19 0.00798355)
(-0.068258 3.0154e-19 0.0137525)
(-0.0925488 -5.8174e-19 0.0183508)
(-0.12026 -2.80186e-19 0.0235886)
(-0.139353 -2.69563e-19 0.0271816)
(-0.163347 0 0.0317283)
(-0.178581 0 0.034581)
(-0.197222 0 0.0380696)
(-0.208065 0 0.0402351)
(-0.229886 -4.3574e-19 0.0440572)
(-0.213485 0 0.0413936)
(-0.278351 0 0.0534558)
(-0.211718 3.79753e-19 0.0400714)
(-0.271322 0 0.0529213)
(-0.269347 -6.83805e-19 0.0512398)
(-0.249025 6.50754e-19 0.0480024)
(-0.304839 0 0.0584926)
(-0.23842 0 0.044918)
(-0.279819 0 0.0557199)
(-0.380386 5.21877e-19 0.0704697)
(-0.0935019 0 0.0182642)
(-0.466668 -4.50196e-19 0.0931854)
(-0.308208 -8.00866e-23 0.0543436)
(-0.188626 -8.25497e-19 0.0410256)
(-0.658856 -1.56885e-18 0.12501)
(-0.0578322 0 0.00962303)
(-0.606421 6.83356e-19 0.11828)
(-0.173278 6.7915e-19 0.0321155)
(-0.620709 5.874e-19 0.136414)
(-1.58047 0 0.323945)
(-2.43038 5.47868e-19 0.4616)
(-1.00103 0 0.172592)
(32.4319 0 2.96155)
(32.997 0 2.77422)
(32.4423 1.22639e-20 1.7282)
(30.797 0 0.525242)
(28.541 -1.23012e-20 -0.481395)
(26.1216 2.50183e-20 -1.20542)
(23.7992 0 -1.66918)
(21.69 -2.18271e-20 -1.93373)
(19.8278 2.09238e-20 -2.06311)
(18.2029 1.89162e-20 -2.10746)
(16.7877 1.77741e-20 -2.10064)
(15.5512 -1.61501e-20 -2.06397)
(14.4647 1.50307e-20 -2.01042)
(13.5039 -2.73933e-20 -1.94783)
(12.6487 0 -1.88092)
(11.8827 -2.31963e-20 -1.81258)
(11.1928 0 -1.74455)
(10.5679 0 -1.67788)
(9.99905 0 -1.61319)
(9.47895 1.6292e-20 -1.55081)
(9.0014 -3.41036e-23 -1.4909)
(8.56123 -2.59239e-23 -1.43353)
(8.15407 1.23522e-20 -1.37867)
(7.77622 0 -1.32626)
(7.42451 0 -1.27622)
(7.09622 0 -1.22843)
(6.78898 3.32329e-20 -1.18279)
(6.50075 -5.87497e-24 -1.13919)
(6.22975 0 -1.09752)
(5.9744 0 -1.05766)
(5.73331 0 -1.01951)
(5.50528 0 -0.982981)
(5.28919 1.65024e-20 -0.947967)
(5.08409 0 -0.914382)
(4.88911 -1.24307e-20 -0.882144)
(4.70345 0 -0.851173)
(4.52643 0 -0.821395)
(4.35739 -7.42899e-21 -0.792741)
(4.19577 0 -0.765147)
(4.04103 0 -0.738551)
(3.89269 3.49962e-21 -0.712896)
(3.75032 -4.78807e-21 -0.688129)
(3.61352 0 -0.664198)
(3.4819 -8.98553e-22 -0.641057)
(3.35514 0 -0.618661)
(3.2329 -4.73515e-21 -0.596966)
(3.11492 1.8963e-23 -0.575936)
(3.00089 0 -0.555529)
(2.89059 0 -0.535714)
(2.78376 7.28823e-21 -0.516452)
(2.6802 1.64821e-20 -0.497717)
(2.57968 -3.64166e-20 -0.479473)
(2.48203 0 -0.461696)
(2.38704 -2.10861e-20 -0.444353)
(2.29457 -2.2316e-20 -0.427425)
(2.20443 -2.33498e-20 -0.41088)
(2.1165 -2.42724e-20 -0.394701)
(2.0306 0 -0.378858)
(1.94662 0 -0.363337)
(1.86441 -5.26293e-20 -0.34811)
(1.78388 -1.0716e-19 -0.333166)
(1.70487 -5.43389e-20 -0.318477)
(1.62733 3.06661e-23 -0.304035)
(1.55109 5.53079e-20 -0.289813)
(1.47612 5.55597e-20 -0.275807)
(1.40228 0 -0.261991)
(1.32953 0 -0.248361)
(1.25776 1.11029e-19 -0.234899)
(1.18693 2.21016e-19 -0.221597)
(1.11697 0 -0.208446)
(1.04783 1.08891e-19 -0.195435)
(0.979485 1.07822e-19 -0.182566)
(0.911877 1.06622e-19 -0.169824)
(0.845055 2.10451e-19 -0.157226)
(0.778927 0 -0.144748)
(0.713645 0 -0.132431)
(0.649066 2.0062e-19 -0.120237)
(0.585469 -3.93733e-19 -0.108235)
(0.522654 -1.92913e-19 -0.096371)
(0.461022 0 -0.0847425)
(0.400356 0 -0.0732856)
(0.341094 0 -0.0621139)
(0.283162 0 -0.0511782)
(0.226757 0 -0.040561)
(0.17238 0 -0.0303039)
(0.119311 -3.2279e-19 -0.020336)
(0.0695701 4.08708e-23 -0.0109629)
(0.0201779 3.03081e-19 -0.00170908)
(-0.0236207 0 0.00653345)
(-0.0691858 2.83042e-19 0.0150501)
(-0.105794 2.73021e-19 0.0219148)
(-0.147312 0 0.0296758)
(-0.176316 -2.52899e-19 0.0350681)
(-0.212567 -4.85866e-19 0.0418689)
(-0.235723 0 0.0461339)
(-0.264366 0 0.0514285)
(-0.281222 0 0.0547923)
(-0.313313 -4.08462e-19 0.0601498)
(-0.293429 0 0.0573763)
(-0.38351 0 0.0737034)
(-0.291943 3.55812e-19 0.0551892)
(-0.38093 -3.35967e-19 0.0748548)
(-0.37247 0 0.070624)
(-0.350713 0 0.0678693)
(-0.425204 0 0.0815471)
(-0.336507 0 0.0631326)
(-0.39955 0 0.0806214)
(-0.522497 -5.34843e-23 0.0953298)
(-0.15125 0 0.0299895)
(-0.655901 4.21279e-19 0.132739)
(-0.421775 -8.52641e-19 0.0718478)
(-0.2893 0 0.0650935)
(-0.911939 9.02647e-23 0.172012)
(-0.0968142 0 0.0159543)
(-0.868027 -6.57652e-24 0.170377)
(-0.271763 0 0.050664)
(-0.950124 -5.49198e-19 0.216512)
(-2.19442 0 0.461541)
(-3.24256 5.11442e-19 0.611328)
(-1.22229 0 0.197127)
(32.5338 0 2.10973)
(33.2909 0 2.23425)
(33.6369 0 1.75799)
(33.2714 0 0.962624)
(32.247 1.16114e-20 0.119496)
(30.7709 -9.02138e-22 -0.630817)
(29.0488 0 -1.23284)
(27.2399 2.06017e-20 -1.67738)
(25.4538 0 -1.98163)
(23.7569 -3.52083e-20 -2.17386)
(22.1814 0 -2.28272)
(20.7377 1.52468e-20 -2.33223)
(19.4231 0 -2.34073)
(18.2289 2.58636e-20 -2.32148)
(17.1438 -1.17772e-20 -2.28382)
(16.1565 2.17562e-20 -2.23419)
(15.2558 -1.99111e-20 -2.17706)
(14.4318 -1.8271e-20 -2.11547)
(13.6758 0 -2.05155)
(12.98 -1.53841e-20 -1.98675)
(12.3378 -1.40499e-20 -1.92206)
(11.7433 -2.55884e-20 -1.85816)
(11.1914 -1.16638e-20 -1.79552)
(10.6777 0 -1.73443)
(10.1984 0 -1.67508)
(9.75014 0 -1.61756)
(9.32994 -1.56848e-20 -1.56194)
(8.93522 -1.41073e-20 -1.50822)
(8.56369 0 -1.45639)
(8.21332 0 -1.40641)
(7.8823 1.00304e-20 -1.35823)
(7.56903 0 -1.31179)
(7.27207 1.45207e-24 -1.26703)
(6.99013 -1.35934e-20 -1.22387)
(6.72205 1.17508e-20 -1.18226)
(6.46678 0 -1.14213)
(6.22338 0 -1.10339)
(5.99099 7.01163e-21 -1.066)
(5.76881 0 -1.02989)
(5.55614 0 -0.994985)
(5.35233 -3.30246e-21 -0.961238)
(5.15676 4.51805e-21 -0.928587)
(4.96891 0 -0.896978)
(4.78824 8.47769e-22 -0.866357)
(4.6143 0 -0.836675)
(4.44666 2.22411e-21 -0.807882)
(4.2849 3.56031e-21 -0.779933)
(4.12866 0 -0.752782)
(3.97759 5.86052e-21 -0.726389)
(3.83135 -6.87321e-21 -0.70071)
(3.68966 -3.10546e-20 -0.67571)
(3.55221 1.71546e-20 -0.651349)
(3.41875 -1.85692e-20 -0.627595)
(3.28901 2.55339e-23 -0.604408)
(3.16278 0 -0.581762)
(3.0398 2.20081e-20 -0.559619)
(2.9199 2.28754e-20 -0.537956)
(2.80283 -2.36026e-20 -0.516736)
(2.68846 2.42402e-20 -0.495942)
(2.57655 4.95844e-20 -0.475535)
(2.46699 5.04579e-20 -0.455502)
(2.35957 -5.11208e-20 -0.435808)
(2.25419 5.16817e-20 -0.416441)
(2.15064 0 -0.397368)
(2.04886 0 -0.37858)
(1.94866 5.23645e-20 -0.360046)
(1.84999 0 -0.341759)
(1.75268 0 -0.323694)
(1.65669 -1.0398e-19 -0.305844)
(1.56189 0 -0.288192)
(1.46824 -1.0245e-19 -0.270728)
(1.37568 -2.02828e-19 -0.25345)
(1.28413 0 -0.23634)
(1.19365 -9.89453e-20 -0.219419)
(1.10411 0 -0.202657)
(1.0157 0 -0.186104)
(0.928228 -1.88499e-19 -0.169713)
(0.842051 1.85012e-19 -0.153571)
(0.756909 3.92901e-23 -0.137609)
(0.67331 0 -0.121954)
(0.590979 0 -0.10652)
(0.510475 0 -0.0914613)
(0.431709 -1.64896e-19 -0.0767046)
(0.354933 1.60516e-19 -0.0623715)
(0.280805 0 -0.0484972)
(0.208393 6.05969e-19 -0.0350182)
(0.140333 2.93756e-19 -0.0222957)
(0.0727561 -5.68792e-19 -0.00976298)
(0.0125078 -2.74968e-19 0.00148325)
(-0.050015 -5.3102e-19 0.0130402)
(-0.100741 0 0.0224646)
(-0.157926 0 0.0330332)
(-0.198442 2.37134e-19 0.0404777)
(-0.248767 4.55506e-19 0.0498246)
(-0.281158 -4.36823e-19 0.0556928)
(-0.321566 0 0.0630758)
(-0.345591 0 0.0678678)
(-0.389149 3.82703e-19 0.074791)
(-0.367742 3.65604e-19 0.0725602)
(-0.482594 0 0.0926896)
(-0.368022 -3.33226e-19 0.0694113)
(-0.488892 3.14596e-19 0.0968155)
(-0.470941 0 0.0888294)
(-0.452371 0 0.0878916)
(-0.542834 0 0.103917)
(-0.435346 0 0.0813476)
(-0.521468 0 0.106547)
(-0.65865 -4.57003e-19 0.117957)
(-0.220176 0 0.0444596)
(-0.84312 0 0.172767)
(-0.531179 0 0.086993)
(-0.403194 7.22393e-19 0.0936834)
(-1.15613 6.8601e-19 0.216091)
(-0.14804 0 0.0245812)
(-1.13881 -5.97446e-19 0.225076)
(-0.388179 0 0.0732051)
(-1.31357 -5.13631e-19 0.309935)
(-2.77473 0 0.598328)
(-3.95713 -4.77962e-19 0.734688)
(-1.32936 0 0.190479)
(32.6051 -4.97357e-21 1.49626)
(33.1879 -6.17564e-21 1.63496)
(33.714 7.33493e-21 1.44304)
(33.9389 8.26693e-21 0.981089)
(33.7454 0 0.388156)
(33.1454 -9.91117e-21 -0.228721)
(32.2123 0 -0.803696)
(31.0371 1.74057e-20 -1.29972)
(29.7085 1.66399e-20 -1.70135)
(28.3031 3.20912e-20 -2.00902)
(26.8802 -1.4762e-20 -2.23244)
(25.4823 1.37726e-20 -2.38513)
(24.1364 0 -2.48103)
(22.8582 0 -2.53279)
(21.655 1.11033e-20 -2.55105)
(20.5286 -1.14539e-22 -2.54435)
(19.4773 1.76001e-22 -2.51936)
(18.4976 1.35822e-22 -2.48116)
(17.585 0 -2.43359)
(16.7347 0 -2.37954)
(15.9416 0 -2.32117)
(15.2011 2.40433e-20 -2.26008)
(14.5087 1.09331e-20 -2.19748)
(13.8604 0 -2.13425)
(13.2524 0 -2.07106)
(12.6812 1.63353e-20 -2.00839)
(12.1438 0 -1.94659)
(11.6375 0 -1.88592)
(11.1596 0 -1.82655)
(10.7079 0 -1.7686)
(10.2804 -6.30432e-24 -1.71215)
(9.87508 0 -1.65723)
(9.49037 -1.53183e-24 -1.60387)
(9.1247 1.28138e-20 -1.55206)
(8.77668 2.75625e-24 -1.50178)
(8.44504 0 -1.453)
(8.12861 0 -1.4057)
(7.82634 0 -1.35983)
(7.53725 0 -1.31534)
(7.26046 0 -1.2722)
(6.99514 0 -1.23034)
(6.74054 0 -1.18973)
(6.49596 -2.48967e-21 -1.1503)
(6.26076 -8.3534e-22 -1.11202)
(6.03435 0 -1.07482)
(5.81615 2.06054e-21 -1.03868)
(5.60567 0 -1.00352)
(5.40241 0 -0.969321)
(5.20594 -1.10244e-20 -0.936025)
(5.01581 0 -0.903588)
(4.83166 1.46088e-20 -0.871972)
(4.6531 0 -0.84113)
(4.47979 3.49437e-20 -0.811028)
(4.31138 2.47557e-23 -0.78162)
(4.1476 0 -0.752877)
(3.98812 0 -0.724753)
(3.8327 0 -0.697222)
(3.68104 4.44096e-20 -0.67024)
(3.53293 -4.56066e-20 -0.643786)
(3.3881 -4.65905e-20 -0.617814)
(3.24637 -4.74119e-20 -0.592309)
(3.10747 9.61606e-20 -0.567226)
(2.97127 4.85609e-20 -0.542554)
(2.83751 0 -0.518248)
(2.7061 0 -0.494301)
(2.57678 -2.44624e-23 -0.470672)
(2.44948 0 -0.447354)
(2.32399 0 -0.424314)
(2.20024 -9.76736e-20 -0.401544)
(2.07806 0 -0.379022)
(1.95739 0 -0.356735)
(1.83814 1.90546e-19 -0.33468)
(1.72022 -9.41462e-20 -0.312836)
(1.60366 0 -0.291225)
(1.48832 0 -0.269813)
(1.37441 0 -0.248658)
(1.2617 1.77029e-19 -0.227703)
(1.15059 0 -0.207055)
(1.04079 3.40312e-19 -0.186628)
(0.932895 -1.66479e-19 -0.166581)
(0.826578 0 -0.146804)
(0.722514 0 -0.127493)
(0.620604 1.54736e-19 -0.108549)
(0.521152 -2.58632e-23 -0.0901385)
(0.424982 1.46353e-19 -0.0722822)
(0.330947 -2.84176e-19 -0.0549381)
(0.242311 2.75425e-19 -0.0385059)
(0.154309 2.66669e-19 -0.0223494)
(0.0754215 2.57808e-19 -0.00775336)
(-0.00623866 2.91295e-23 0.00717485)
(-0.0731489 0 0.0194906)
(-0.148114 -2.31031e-19 0.0331843)
(-0.202001 0 0.0429729)
(-0.26847 0 0.0551873)
(-0.311638 4.09221e-19 0.062886)
(-0.365834 0 0.0726774)
(-0.398364 0 0.0791293)
(-0.454842 0 0.0877236)
(-0.434067 -3.42319e-19 0.0866444)
(-0.573258 0 0.110154)
(-0.438298 -3.11894e-19 0.0827341)
(-0.593051 0 0.118459)
(-0.562948 0 0.105696)
(-0.552702 0 0.107941)
(-0.655943 0 0.125411)
(-0.533998 0 0.0994987)
(-0.64355 -4.50801e-19 0.133109)
(-0.788373 -4.27337e-19 0.138533)
(-0.299376 4.15181e-19 0.0614645)
(-1.0257 0 0.212689)
(-0.637188 0 0.100138)
(-0.528758 -1.3508e-18 0.126581)
(-1.38902 0 0.257197)
(-0.213471 6.24125e-19 0.036086)
(-1.4164 0 0.282095)
(-0.521803 5.54954e-19 0.100153)
(-1.7003 4.7998e-19 0.41427)
(-3.30338 0 0.730149)
(-4.5684 -4.45831e-19 0.833193)
(-1.31234 0 0.151988)
(32.6589 4.68375e-21 1.04482)
(33.0694 1.13827e-20 1.13094)
(33.5151 -6.90911e-21 1.04706)
(33.8797 -7.83796e-22 0.782847)
(34.0524 7.48361e-21 0.391724)
(33.9771 0 -0.0643598)
(33.6458 0 -0.536287)
(33.0788 -1.639e-20 -0.988315)
(32.3114 -3.04334e-20 -1.3968)
(31.386 -7.09508e-22 -1.74869)
(30.3463 1.38991e-20 -2.03948)
(29.233 -1.29675e-20 -2.27053)
(28.081 1.17226e-20 -2.44666)
(26.9186 0 -2.57449)
(25.7675 0 -2.66118)
(24.6431 -9.51086e-21 -2.71377)
(23.5559 3.47887e-20 -2.73864)
(22.5125 3.20051e-20 -2.74138)
(21.5162 0 -2.7267)
(20.5685 0 -2.6985)
(19.6691 0 -2.65995)
(18.817 -6.72138e-23 -2.6136)
(18.0102 -2.05372e-20 -2.56146)
(17.2467 9.32178e-21 -2.50516)
(16.524 1.69284e-20 -2.44597)
(15.84 -3.07132e-20 -2.38489)
(15.192 1.38464e-20 -2.32271)
(14.5779 1.24656e-20 -2.26003)
(13.9955 1.11825e-20 -2.19734)
(13.4425 0 -2.13502)
(12.9172 -8.89721e-21 -2.07334)
(12.4176 7.85995e-21 -2.01251)
(11.942 -6.91466e-21 -1.95271)
(11.4888 -1.20578e-20 -1.89404)
(11.0566 -2.0858e-20 -1.83659)
(10.644 0 -1.78041)
(10.2496 0 -1.72554)
(9.87244 -6.24035e-21 -1.67199)
(9.51129 0 -1.61977)
(9.16515 3.96012e-21 -1.56886)
(8.8331 2.95367e-21 -1.51925)
(8.51424 0 -1.47092)
(8.20777 4.70161e-21 -1.42383)
(7.91292 7.86108e-22 -1.37795)
(7.62899 0 -1.33324)
(7.35529 -1.93889e-21 -1.28967)
(7.09124 -3.10864e-21 -1.24721)
(6.83622 0 -1.20579)
(6.58972 1.03423e-20 -1.1654)
(6.35119 -6.04756e-21 -1.12597)
(6.12018 -1.36879e-20 -1.08748)
(5.89621 0 -1.04988)
(5.67888 -2.50522e-23 -1.01313)
(5.46775 3.50883e-20 -0.977185)
(5.26247 0 -0.942015)
(5.06264 0 -0.907568)
(4.86797 -2.01865e-20 -0.87382)
(4.67807 -2.08672e-20 -0.840717)
(4.4927 4.28389e-20 -0.80824)
(4.31148 4.37962e-20 -0.776335)
(4.13423 4.45644e-20 -0.744986)
(3.96058 -4.51739e-20 -0.71414)
(3.79038 -9.12433e-20 -0.683786)
(3.6233 0 -0.653869)
(3.4592 0 -0.624383)
(3.29778 -9.24614e-20 -0.595279)
(3.13894 0 -0.566549)
(2.9824 0 -0.538151)
(2.82807 9.17366e-20 -0.510079)
(2.67575 0 -0.482303)
(2.52533 -9.03188e-20 -0.45481)
(2.3767 -3.25216e-23 -0.427594)
(2.22974 8.83854e-20 -0.40063)
(2.08448 0 -0.373943)
(1.94073 0 -0.347492)
(1.79871 0 -0.321347)
(1.65817 1.66032e-19 -0.295437)
(1.51956 0 -0.269893)
(1.38253 -1.59615e-19 -0.244607)
(1.24777 3.12294e-19 -0.219774)
(1.1149 0 -0.195256)
(0.984705 0 -0.171299)
(0.857082 0 -0.147768)
(0.732386 -2.55724e-23 -0.124887)
(0.611609 -1.37202e-19 -0.102649)
(0.493394 -2.66292e-19 -0.0810512)
(0.381639 -2.5814e-19 -0.060511)
(0.270687 2.49834e-19 -0.0403541)
(0.170677 0 -0.0220154)
(0.0674083 2.33158e-19 -0.00335544)
(-0.0180516 0 0.0122271)
(-0.113201 2.16398e-19 0.0293954)
(-0.182612 0 0.0418618)
(-0.267581 0 0.057299)
(-0.323341 0 0.0670905)
(-0.393642 -3.67053e-19 0.0796461)
(-0.436228 -3.50906e-19 0.0880255)
(-0.507385 0 0.0984076)
(-0.489577 3.20341e-19 0.0991667)
(-0.652789 -3.04068e-19 0.12557)
(-0.50078 2.91832e-19 0.0946849)
(-0.690792 -2.75455e-19 0.139335)
(-0.646482 0 0.120782)
(-0.650033 0 0.127749)
(-0.762445 0 0.145578)
(-0.631216 0 0.117412)
(-0.763382 4.21539e-19 0.159841)
(-0.911187 4.85158e-23 0.156919)
(-0.387167 -7.76349e-19 0.080849)
(-1.20096 0 0.251919)
(-0.740522 0 0.111435)
(-0.663674 6.31297e-19 0.163497)
(-1.60836 0 0.294574)
(-0.294442 -5.83247e-19 0.0509626)
(-1.69736 0 0.34093)
(-0.670196 -1.03711e-18 0.131392)
(-2.09727 0 0.527025)
(-3.76169 0 0.85259)
(-5.07397 4.16477e-19 0.902198)
(-1.16307 0 0.0778621)
(32.6825 0 0.692144)
(32.9836 -5.23626e-21 0.734551)
(33.3201 0 0.684174)
(33.6501 -6.58877e-21 0.520261)
(33.9105 -1.34308e-20 0.257655)
(34.0503 0 -0.0719187)
(34.0409 6.69878e-21 -0.437046)
(33.8712 0 -0.811632)
(33.5414 9.01932e-22 -1.17548)
(33.0612 -2.57917e-20 -1.5141)
(32.4466 0 -1.81818)
(31.7179 0 -2.08281)
(30.8974 -1.10257e-20 -2.30641)
(30.0074 0 -2.4897)
(29.0691 0 -2.63499)
(28.1013 0 -2.74553)
(27.1203 -1.62508e-20 -2.82512)
(26.1396 -1.4966e-20 -2.87772)
(25.1696 -1.35735e-20 -2.90721)
(24.2184 0 -2.91723)
(23.2918 0 -2.91108)
(22.3939 -1.05616e-20 -2.89166)
(21.5272 9.63318e-21 -2.86149)
(20.693 -8.76739e-21 -2.82272)
(19.8921 -1.59215e-20 -2.77716)
(19.1243 2.87704e-20 -2.72632)
(18.3891 -5.41039e-23 -2.67145)
(17.6856 -1.17238e-20 -2.6136)
(17.0127 -1.0517e-20 -2.5536)
(16.3693 0 -2.49216)
(15.7541 0 -2.42983)
(15.1658 -7.39175e-21 -2.36709)
(14.6029 0 -2.3043)
(14.0643 1.1339e-20 -2.24175)
(13.5487 9.80592e-21 -2.17969)
(13.0547 -8.38298e-21 -2.1183)
(12.5813 0 -2.05773)
(12.1273 5.86766e-21 -1.99808)
(11.6915 4.75403e-21 -1.93944)
(11.2731 3.81016e-24 -1.88188)
(10.871 -5.55881e-21 -1.82542)
(10.4843 0 -1.7701)
(10.1121 -2.21727e-21 -1.71594)
(9.75361 0 -1.66292)
(9.40807 0 -1.61105)
(9.07473 0 -1.56031)
(8.75289 1.39038e-23 -1.51068)
(8.4419 0 -1.46214)
(8.14115 -4.85309e-21 -1.41466)
(7.85003 1.13534e-20 -1.3682)
(7.56801 1.28627e-20 -1.32274)
(7.29453 0 -1.27825)
(7.02913 -1.54054e-20 -1.23468)
(6.77129 -3.29214e-20 -1.19199)
(6.52061 0 -1.15016)
(6.27659 0 -1.10913)
(6.0389 1.89622e-20 -1.06889)
(5.80706 1.9563e-20 -1.02937)
(5.5808 -2.01088e-20 -0.99056)
(5.35966 -4.10643e-20 -0.952397)
(5.1434 0 -0.91487)
(4.9316 0 -0.877915)
(4.72406 2.86701e-23 -0.841526)
(4.52038 -4.30984e-20 -0.805639)
(4.32039 0 -0.770248)
(4.12372 4.33848e-20 -0.735297)
(3.93024 0 -0.700778)
(3.7396 0 -0.666643)
(3.5517 0 -0.632885)
(3.36627 0 -0.599467)
(3.18318 3.45138e-23 -0.566377)
(3.00228 -3.22328e-23 -0.533604)
(2.82342 -8.28539e-20 -0.501122)
(2.6466 0 -0.468958)
(2.47161 -8.0534e-20 -0.437064)
(2.29868 0 -0.40552)
(2.1275 -1.55689e-19 -0.374244)
(1.95858 1.52682e-19 -0.343387)
(1.79151 -1.49565e-19 -0.312823)
(1.62707 -1.46357e-19 -0.282783)
(1.46482 0 -0.253097)
(1.30566 1.39473e-19 -0.224067)
(1.14949 0 -0.195515)
(0.996696 -1.32264e-19 -0.167735)
(0.848455 -1.28501e-19 -0.140676)
(0.703202 2.49463e-19 -0.114399)
(0.565479 0 -0.0893108)
(0.428735 -4.67954e-19 -0.0647356)
(0.304794 0 -0.0422182)
(0.17712 2.18273e-19 -0.0194228)
(0.070407 0 -0.000152993)
(-0.0476569 2.02547e-19 0.0208829)
(-0.135086 0 0.0364067)
(-0.241232 3.73942e-19 0.0554616)
(-0.311719 -3.58509e-19 0.0676553)
(-0.400767 3.43488e-19 0.0833736)
(-0.455227 3.28344e-19 0.0939752)
(-0.543156 0 0.106334)
(-0.530868 -5.99351e-19 0.10961)
(-0.717984 5.6884e-19 0.138458)
(-0.552941 0 0.10484)
(-0.778957 2.57616e-19 0.158908)
(-0.719213 0 0.133764)
(-0.742195 0 0.146995)
(-0.859848 -4.40222e-19 0.164024)
(-0.725363 0 0.134837)
(-0.878142 0 0.186209)
(-1.02642 3.73437e-19 0.173102)
(-0.48106 7.25694e-19 0.102186)
(-1.36626 3.21842e-19 0.289888)
(-0.841541 0 0.12106)
(-0.804871 0 0.20395)
(-1.81188 0 0.327924)
(-0.391247 0 0.0695927)
(-1.97702 4.87454e-19 0.400811)
(-0.828913 4.8445e-19 0.16595)
(-2.48972 0 0.644951)
(-4.13075 0 0.961162)
(-5.4724 0 0.941248)
(-0.87528 0 -0.0341186)
(32.6807 4.18549e-21 0.404209)
(32.9124 0 0.41937)
(33.1678 4.90293e-21 0.377932)
(33.4322 0 0.263875)
(33.6748 6.00585e-21 0.0777546)
(33.8639 0 -0.165724)
(33.9767 -6.296e-21 -0.447425)
(33.9982 1.15412e-20 -0.74941)
(33.9191 2.35643e-20 -1.05652)
(33.7347 7.29477e-22 -1.35677)
(33.4447 0 -1.64115)
(33.0523 0 -1.90345)
(32.5642 0 -2.13981)
(31.9896 0 -2.34815)
(31.3394 0 -2.52772)
(30.6258 0 -2.6788)
(29.8612 1.46406e-20 -2.8024)
(29.058 -1.3562e-20 -2.9001)
(28.2275 1.27537e-20 -2.97391)
(27.3805 0 -3.02602)
(26.5261 0 -3.05878)
(25.672 9.72359e-21 -3.07452)
(24.8249 8.89225e-21 -3.07549)
(23.9899 8.11147e-21 -3.06379)
(23.1709 0 -3.04136)
(22.3711 -1.34833e-20 -3.00995)
(21.5926 -2.42954e-20 -2.97109)
(20.8368 1.09171e-20 -2.92613)
(20.1048 0 -2.87624)
(19.3969 0 -2.82244)
(18.7132 0 -2.76558)
(18.0536 6.91008e-21 -2.70639)
(17.4177 0 -2.64549)
(16.8049 0 -2.5834)
(16.2146 9.18649e-21 -2.52056)
(15.646 7.87502e-21 -2.45733)
(15.0984 0 -2.394)
(14.571 5.50815e-21 -2.33083)
(14.0629 -8.92971e-21 -2.26802)
(13.5733 -3.50092e-21 -2.20573)
(13.1014 2.6129e-21 -2.1441)
(12.6463 0 -2.08322)
(12.2073 0 -2.02318)
(11.7835 0 -1.96405)
(11.3743 -5.25586e-22 -1.90586)
(10.9788 0 -1.84864)
(10.5965 2.73072e-21 -1.79241)
(10.2266 3.6695e-21 -1.73719)
(9.86843 0 -1.68296)
(9.52145 -5.32372e-21 -1.62973)
(9.18504 0 -1.57748)
(8.8586 0 -1.52618)
(8.54163 -1.4417e-20 -1.47582)
(8.23354 2.19009e-23 -1.42637)
(7.9339 1.63052e-20 -1.37781)
(7.64214 0 -1.33009)
(7.35788 0 -1.2832)
(7.08059 -1.83598e-20 -1.23709)
(6.80994 0 -1.19173)
(6.54541 3.85335e-20 -1.14707)
(6.28673 0 -1.1031)
(6.03338 0 -1.05976)
(5.78516 8.02663e-20 -1.01704)
(5.54157 8.08353e-20 -0.974871)
(5.30243 4.05778e-20 -0.933251)
(5.06728 0 -0.892115)
(4.83597 0 -0.85146)
(4.60808 4.05064e-20 -0.811229)
(4.3835 8.06184e-20 -0.771416)
(4.16186 0 -0.731981)
(3.94304 7.94216e-20 -0.69291)
(3.72683 -7.86057e-20 -0.65419)
(3.51304 7.767e-20 -0.615791)
(3.30165 -7.65992e-20 -0.577744)
(3.09241 7.54821e-20 -0.539993)
(2.88555 0 -0.502631)
(2.68072 0 -0.465562)