/*--------------------------------*- C++ -*----------------------------------*\
| =========                 |                                                 |
| \\      /  F ield         | OpenFOAM: The Open Source CFD Toolbox           |
|  \\    /   O peration     | Version:  2412                                  |
|   \\  /    A nd           | Website:  www.openfoam.com                      |
|    \\/     M anipulation  |                                                 |
\*---------------------------------------------------------------------------*/
FoamFile
{
    version     2.0;
    format      ascii;
    arch        "LSB;label=32;scalar=64";
    class       volScalarField;
    location    "0.785";
    object      Co;
}
// * * * * * * * * * * * * * * * * * * * * * * * * * * * * * * * * * * * * * //

dimensions      [0 0 0 0 0 0 0];

internalField   nonuniform List<scalar> 
12600
(
0.314352
0.176457
0.0999601
0.0629181
0.0449667
0.0350562
0.0286621
0.0240839
0.0206113
0.0178762
0.015662
0.013832
0.012295
0.0109871
0.00986227
0.00888616
0.00803273
0.00728172
0.00661718
0.00602628
0.00549864
0.00502573
0.00460045
0.00421688
0.00387
0.00355556
0.0032699
0.00300987
0.00277276
0.00255619
0.00235808
0.00217661
0.00201018
0.00185735
0.00171686
0.0015876
0.00146854
0.00135879
0.00125753
0.00116405
0.00107768
0.000997827
0.000923956
0.000855579
0.000792253
0.000733575
0.000679176
0.000628725
0.000581912
0.000538461
0.000498112
0.000460635
0.00042581
0.000393444
0.00036335
0.000335367
0.000309336
0.00028512
0.000262584
0.000241613
0.00022209
0.00020392
0.000187
0.000171252
0.000156586
0.000142937
0.000130226
0.000118399
0.000107389
9.71488e-05
8.76209e-05
7.87663e-05
7.05353e-05
6.2894e-05
5.58018e-05
4.92272e-05
4.31394e-05
3.75068e-05
3.23092e-05
2.75123e-05
2.3108e-05
1.90554e-05
1.53607e-05
1.19729e-05
8.91459e-06
6.12103e-06
3.63291e-06
2.0151e-06
2.54196e-06
4.16139e-06
5.62782e-06
6.84433e-06
7.92549e-06
8.84631e-06
9.52247e-06
1.02605e-05
1.08735e-05
1.04836e-05
1.27446e-05
1.20181e-05
1.16261e-05
1.60993e-05
1.51576e-05
1.66227e-05
1.68346e-05
1.58301e-05
2.67012e-05
2.50872e-05
1.3727e-05
3.89378e-05
3.65408e-05
1.94471e-05
5.00976e-05
4.53923e-05
4.2531e-05
4.19078e-06
3.03254e-05
3.40131e-05
3.18235e-05
1.60234e-05
0.477263
0.376054
0.276103
0.20233
0.153063
0.12051
0.0982178
0.0821337
0.0699745
0.0604467
0.0527746
0.046465
0.0411889
0.0367171
0.0328851
0.0295708
0.0266818
0.0241465
0.0219089
0.0199241
0.0181556
0.0165738
0.015154
0.0138758
0.0127218
0.0116774
0.01073
0.00986884
0.0090846
0.00836921
0.0077156
0.00711756
0.00656966
0.00606708
0.00560554
0.00518125
0.00479082
0.00443122
0.00409974
0.00379393
0.00351161
0.00325078
0.00300965
0.00278661
0.00258016
0.00238899
0.00221187
0.00204768
0.00189542
0.00175416
0.00162305
0.00150133
0.00138827
0.00128324
0.00118562
0.00109488
0.00101049
0.000932018
0.000859007
0.000791087
0.000727869
0.000669045
0.000614277
0.000563309
0.000515848
0.000471679
0.000430548
0.000392277
0.000356644
0.0003235
0.000292653
0.000263979
0.000237314
0.000212547
0.000189548
0.000168211
0.000148439
0.000130124
0.000113208
9.75694e-05
8.31934e-05
6.9934e-05
5.78279e-05
4.66909e-05
3.66193e-05
2.73782e-05
1.91296e-05
1.15833e-05
7.83634e-06
9.92612e-06
1.47046e-05
1.86665e-05
2.22065e-05
2.52884e-05
2.73597e-05
3.02221e-05
3.16953e-05
3.07187e-05
3.93417e-05
3.60443e-05
3.73234e-05
4.96209e-05
5.02026e-05
6.07217e-05
4.79676e-05
5.46219e-05
9.95261e-05
8.24535e-05
4.66098e-05
0.000143439
0.000124717
5.98002e-05
0.000184822
0.000126763
0.000151738
1.86733e-05
0.000113645
9.78967e-05
0.000107785
6.0586e-05
0.511748
0.468009
0.396827
0.325122
0.264308
0.21633
0.179507
0.151229
0.129177
0.111637
0.0974142
0.0856814
0.0758601
0.0675369
0.0604092
0.0542511
0.0488899
0.0441918
0.040051
0.0363832
0.0331199
0.0302051
0.0275924
0.0252433
0.0231251
0.0212103
0.0194754
0.0179002
0.0164673
0.0151615
0.0139696
0.0128801
0.0118829
0.0109689
0.0101303
0.00935993
0.00865162
0.00799973
0.00739924
0.00684564
0.00633488
0.00586331
0.00542762
0.00502484
0.00465226
0.00430742
0.00398808
0.00369222
0.00341797
0.00316367
0.00292773
0.00270878
0.0025055
0.00231671
0.00214132
0.00197834
0.00182682
0.00168596
0.00155494
0.00143309
0.0013197
0.00121422
0.00111602
0.00102465
0.00093958
0.000860416
0.000786698
0.000718106
0.000654238
0.000594826
0.000539523
0.000488101
0.000440268
0.000395822
0.000354527
0.000316191
0.000280642
0.00024768
0.000217205
0.000188991
0.000163023
0.000139023
0.000117076
9.68287e-05
7.84849e-05
6.15869e-05
4.64724e-05
3.2566e-05
2.03431e-05
1.64591e-05
2.25579e-05
2.95679e-05
3.58617e-05
4.14554e-05
4.48238e-05
5.07457e-05
5.23198e-05
5.09843e-05
6.88533e-05
6.14298e-05
6.81437e-05
8.63711e-05
9.46127e-05
0.000123718
8.15958e-05
0.000106383
0.00020776
0.000159049
8.71727e-05
0.000296823
0.000250179
0.000107238
0.00038847
0.000197717
0.000311586
4.57786e-05
0.0002361
0.000156139
0.000214297
0.000129702
0.503715
0.490486
0.452634
0.402319
0.350003
0.301391
0.258937
0.223078
0.19322
0.168421
0.147741
0.130368
0.115652
0.10308
0.092257
0.0828716
0.074681
0.0674919
0.0611494
0.0555283
0.0505259
0.0460577
0.0420535
0.0384542
0.0352101
0.032279
0.0296246
0.0272159
0.025026
0.0230315
0.0212122
0.0195502
0.0180299
0.0166373
0.0153603
0.014188
0.0131107
0.0121198
0.0112075
0.0103669
0.00959179
0.00887651
0.008216
0.00760567
0.00704136
0.00651931
0.00603608
0.00558858
0.00517395
0.00478961
0.00443318
0.00410253
0.00379565
0.00351075
0.00324615
0.00300035
0.00277191
0.00255959
0.00236216
0.00217858
0.00200779
0.00184893
0.00170108
0.00156353
0.00143546
0.0013163
0.00120535
0.00110211
0.00100597
0.000916533
0.000833271
0.000755833
0.000683782
0.000616803
0.000554549
0.000496717
0.000443057
0.000393254
0.00034717
0.000304449
0.000265081
0.000228633
0.00019525
0.000164381
0.000136357
0.000110463
8.72458e-05
6.57941e-05
4.68834e-05
2.96255e-05
2.82522e-05
3.87071e-05
4.81233e-05
5.66289e-05
6.13123e-05
7.11855e-05
7.21456e-05
7.10822e-05
0.000100104
8.70428e-05
0.000103673
0.000124063
0.000144986
0.000202688
0.000121119
0.0001656
0.00034407
0.000253447
0.000128698
0.000486124
0.000408804
0.000158141
0.00065219
0.000274695
0.000509295
8.91316e-05
0.000387163
0.000201353
0.000346458
0.000219394
0.487555
0.482777
0.464613
0.434767
0.398187
0.359174
0.320815
0.285012
0.252681
0.224069
0.199028
0.177225
0.158259
0.141739
0.127308
0.114658
0.103527
0.0936953
0.0849794
0.0772259
0.0703061
0.0641115
0.0585506
0.0535456
0.0490301
0.0449473
0.0412481
0.0378901
0.0348365
0.0320553
0.0295183
0.0272007
0.025081
0.0231398
0.02136
0.0197266
0.018226
0.0168461
0.0155761
0.0144062
0.0133279
0.0123331
0.0114148
0.0105665
0.0097825
0.00905742
0.0083865
0.00776537
0.00719005
0.00665693
0.00616269
0.00570431
0.00527901
0.0048843
0.00451779
0.00417742
0.00386116
0.00356729
0.00329409
0.0030401
0.00280385
0.00258414
0.00237968
0.00218948
0.00201242
0.00184768
0.00169429
0.00155156
0.00141865
0.00129499
0.00117985
0.00107274
0.000973053
0.000880351
0.000794153
0.000714032
0.000639645
0.000570549
0.000506556
0.000447166
0.000392372
0.000341565
0.000294957
0.000251774
0.00021249
0.0001761
0.000143389
0.000113063
8.6255e-05
6.13532e-05
4.43236e-05
4.50388e-05
5.80404e-05
6.99113e-05
7.60788e-05
9.07232e-05
9.05382e-05
9.05769e-05
0.000131947
0.000111466
0.000143064
0.000160907
0.000198184
0.000294406
0.000165533
0.000227441
0.000501061
0.000363046
0.000165709
0.000698837
0.000595013
0.000209439
0.000964874
0.000369695
0.000732246
0.000150472
0.000555709
0.000226958
0.00049893
0.000325652
0.473384
0.46773
0.456821
0.438948
0.415227
0.387534
0.357757
0.327531
0.29808
0.270213
0.24439
0.220807
0.199478
0.180307
0.163137
0.147781
0.134053
0.121773
0.110774
0.100909
0.0920447
0.0840662
0.0768718
0.0703727
0.0644916
0.0591606
0.0543206
0.0499197
0.0459122
0.0422579
0.0389214
0.0358713
0.0330798
0.0305223
0.0281767
0.0260233
0.0240446
0.0222249
0.0205499
0.0190071
0.0175849
0.016273
0.0150621
0.0139437
0.0129101
0.0119543
0.0110701
0.0102516
0.00949362
0.00879137
0.00814044
0.00753687
0.00697695
0.00645739
0.00597505
0.00552718
0.00511112
0.00472457
0.00436525
0.00403126
0.00372064
0.00343178
0.00316301
0.002913
0.00268028
0.00246375
0.00226215
0.00207454
0.00189984
0.00173727
0.00158589
0.00144502
0.0013139
0.00119191
0.00107844
0.000972906
0.000874872
0.00078374
0.000699269
0.000620791
0.000548305
0.000481001
0.000419167
0.000361774
0.000309461
0.000260892
0.000217128
0.000176435
0.000140363
0.000106716
7.75603e-05
5.95964e-05
6.45298e-05
8.02852e-05
8.82588e-05
0.000108431
0.000106775
0.000108887
0.000163209
0.000133171
0.000185199
0.000195394
0.000251254
0.000395342
0.000214118
0.00028769
0.000671354
0.000484373
0.000193903
0.000923182
0.000802092
0.000249167
0.0013046
0.000478545
0.000968203
0.000229361
0.000730277
0.000260896
0.000671729
0.000449861
0.462115
0.453808
0.443986
0.430939
0.414393
0.394789
0.372859
0.349448
0.325373
0.301334
0.277884
0.255427
0.234229
0.214445
0.196138
0.179304
0.163897
0.149839
0.137039
0.125398
0.114817
0.105199
0.0964552
0.0885016
0.081262
0.0746671
0.0686542
0.0631671
0.0581551
0.053573
0.0493799
0.0455394
0.0420189
0.0387888
0.0358228
0.0330972
0.0305905
0.0282835
0.0261587
0.0242006
0.0223948
0.0207285
0.0191899
0.0177686
0.0164548
0.0152398
0.0141156
0.0130749
0.0121111
0.0112182
0.0103905
0.00962311
0.0089112
0.00825064
0.00763743
0.00706807
0.00653919
0.00604785
0.00559115
0.00516667
0.0047719
0.00440482
0.00406327
0.00374556
0.00344983
0.00317467
0.00291846
0.00268003
0.00245798
0.0022513
0.00205883
0.00187968
0.00171288
0.00155765
0.00141319
0.00127877
0.00115384
0.00103761
0.000929793
0.000829526
0.000736816
0.000650623
0.000571322
0.000497595
0.00043027
0.000367635
0.000311065
0.000258329
0.000211453
0.000167574
0.000129427
9.36161e-05
7.69749e-05
8.6552e-05
9.68085e-05
0.000123227
0.000119999
0.000125256
0.000192656
0.000150521
0.000228712
0.000226253
0.000301442
0.000501769
0.000265458
0.000342759
0.000847813
0.000613345
0.00021014
0.00114856
0.00102267
0.000271666
0.00165354
0.000601153
0.00120571
0.000323069
0.000899489
0.000316556
0.00087419
0.000602374
0.452804
0.44243
0.431852
0.420018
0.406463
0.391145
0.374243
0.356064
0.336982
0.317379
0.297617
0.278018
0.258854
0.24034
0.222641
0.205867
0.190088
0.175334
0.161605
0.148879
0.137118
0.126273
0.11629
0.107111
0.0986772
0.0909322
0.083821
0.077292
0.0712967
0.0657902
0.0607309
0.0560809
0.0518051
0.0478715
0.0442511
0.0409172
0.0378456
0.0350142
0.0324029
0.0299935
0.0277691
0.0257147
0.0238163
0.0220612
0.020438
0.018936
0.0175456
0.0162581
0.0150652
0.0139598
0.0129348
0.0119843
0.0111023
0.0102839
0.00952397
0.00881835
0.00816282
0.00755378
0.00698765
0.0064614
0.00597197
0.00551683
0.00509333
0.00469935
0.00433261
0.00399133
0.00367354
0.00337775
0.00310224
0.00284577
0.00260687
0.00238444
0.00217729
0.00198442
0.00180488
0.00163772
0.00148227
0.00133754
0.00120319
0.00107813
0.000962377
0.000854626
0.000755356
0.000662922
0.000578366
0.00049955
0.000428206
0.000361542
0.000302127
0.000246342
0.00019769
0.000151854
0.0001121
9.67378e-05
0.000100486
0.000133876
0.000129192
0.000138743
0.000218987
0.000161778
0.00027203
0.000252413
0.000346201
0.000609886
0.000317549
0.000389694
0.0010238
0.000745534
0.000212421
0.001366
0.00124917
0.000273594
0.00199502
0.000735529
0.0014345
0.000426703
0.00105247
0.000379162
0.00108729
0.000767415
0.444765
0.433064
0.421573
0.409708
0.397107
0.383634
0.369303
0.35421
0.338498
0.322333
0.305887
0.28933
0.272823
0.256519
0.240554
0.225045
0.21009
0.195768
0.182133
0.169222
0.157055
0.145634
0.134949
0.124982
0.115706
0.10709
0.0990976
0.0916935
0.0848403
0.0785013
0.0726408
0.0672243
0.0622192
0.0575948
0.0533219
0.0493737
0.0457251
0.0423526
0.0392348
0.0363518
0.0336852
0.031218
0.0289347
0.0268211
0.0248637
0.0230507
0.0213708
0.0198138
0.0183702
0.0170314
0.0157894
0.0146369
0.0135671
0.0125739
0.0116514
0.0107945
0.00999814
0.00925806
0.00856995
0.00793016
0.00733501
0.00678143
0.00626624
0.00578686
0.00534054
0.00492513
0.00453822
0.00417802
0.00384245
0.00352997
0.00323883
0.00296768
0.00271506
0.00247976
0.00226062
0.00205648
0.00186653
0.00168956
0.00152515
0.00137196
0.00123003
0.00109776
0.000975741
0.000861954
0.00075769
0.000660328
0.000572009
0.000489304
0.000415397
0.000345822
0.000284951
0.000227416
0.000177349
0.000133545
0.000106539
0.000138961
0.000133126
0.000148208
0.000240799
0.000165098
0.000313397
0.000272932
0.000383181
0.000715948
0.000367962
0.000426151
0.00119344
0.000876444
0.000199865
0.00156843
0.00147423
0.000253777
0.00231431
0.000878168
0.00164584
0.000533559
0.00117936
0.000447979
0.00130489
0.0009416
0.437658
0.425106
0.412912
0.400744
0.388349
0.375589
0.362431
0.348907
0.335082
0.321037
0.30685
0.292599
0.278358
0.264199
0.250193
0.236406
0.222905
0.209751
0.196999
0.184699
0.172892
0.161607
0.150868
0.140686
0.131066
0.122004
0.11349
0.10551
0.0980452
0.0910735
0.0845719
0.0785157
0.0728801
0.0676398
0.0627703
0.0582477
0.0540488
0.0501516
0.0465353
0.04318
0.040067
0.0371791
0.0344999
0.0320141
0.0297077
0.0275674
0.025581
0.0237372
0.0220254
0.020436
0.01896
0.0175889
0.0163151
0.0151315
0.0140313
0.0130087
0.0120578
0.0111736
0.0103511
0.00958591
0.00887384
0.00821123
0.00759433
0.0070201
0.0064853
0.00598733
0.0055234
0.00509133
0.00468867
0.00431358
0.00396398
0.00363824
0.00333464
0.00305171
0.00278809
0.00254236
0.00231357
0.00210025
0.00190192
0.00171696
0.00154541
0.00138535
0.0012375
0.00109943
0.000972713
0.000854176
0.000746423
0.000645315
0.000554727
0.000469247
0.00039422
0.000323098
0.000261052
0.000206297
0.000147005
0.000148641
0.000130301
0.000152301
0.000256559
0.000158525
0.000350911
0.000286904
0.000410187
0.000816383
0.000414008
0.000450351
0.00135176
0.00100173
0.000197904
0.00175074
0.00169097
0.000212963
0.00259927
0.00102452
0.00183282
0.000635706
0.00127178
0.000521809
0.00152123
0.00112186
0.431306
0.418179
0.405484
0.393014
0.380597
0.36811
0.355496
0.342757
0.329927
0.317054
0.30419
0.291381
0.278666
0.266076
0.253642
0.241388
0.229338
0.217519
0.205959
0.194684
0.183724
0.173106
0.162856
0.152995
0.143542
0.13451
0.125908
0.117739
0.110003
0.102694
0.0958046
0.0893235
0.0832371
0.0775301
0.0721862
0.0671881
0.062518
0.0581582
0.054091
0.0502992
0.0467658
0.0434746
0.0404102
0.0375576
0.0349028
0.0324325
0.0301341
0.0279958
0.0260066
0.0241561
0.0224345
0.0208329
0.0193427
0.0179563
0.0166661
0.0154654
0.0143479
0.0133078
0.0123393
0.0114378
0.0105981
0.00981624
0.00908786
0.00840944
0.00777724
0.00718826
0.00663925
0.00612767
0.00565069
0.00520612
0.00479156
0.00440509
0.00404469
0.00370863
0.00339532
0.00310308
0.00283079
0.00257671
0.00234029
0.00211958
0.00191467
0.00172326
0.00154622
0.00138065
0.00122845
0.00108583
0.000955922
0.000833785
0.000724077
0.000620323
0.000528967
0.00044213
0.000366205
0.000298544
0.0002263
0.000194645
0.000130936
0.000149475
0.000264543
0.000139961
0.000382557
0.000293342
0.000425119
0.000907866
0.000452893
0.000460974
0.00149473
0.00111736
0.000236857
0.00190949
0.00189321
0.000190646
0.00284064
0.00116939
0.00199046
0.000724714
0.00132321
0.000598782
0.00173121
0.00130547
0.425575
0.412049
0.398997
0.38628
0.373781
0.361396
0.349062
0.336757
0.324487
0.312282
0.300177
0.288209
0.276409
0.2648
0.253402
0.242223
0.231271
0.220549
0.21006
0.199808
0.1898
0.180046
0.170555
0.16134
0.152414
0.14379
0.135481
0.127495
0.119842
0.112527
0.105553
0.0989203
0.0926262
0.0866661
0.0810333
0.0757191
0.0707136
0.0660055
0.0615829
0.0574332
0.0535436
0.0499008
0.046492
0.0433043
0.040325
0.037542
0.0349435
0.0325181
0.0302549
0.0281438
0.0261748
0.0243388
0.0226268
0.0210309
0.0195431
0.0181563
0.0168634
0.0156584
0.014535
0.0134879
0.0125116
0.0116016
0.0107529
0.00996176
0.00922386
0.00853585
0.00789403
0.0072955
0.00673706
0.0062162
0.00573015
0.00527671
0.00485358
0.00445873
0.00409034
0.00374645
0.00342579
0.0031263
0.00284736
0.00258669
0.00234442
0.00211782
0.00190796
0.00171142
0.00153043
0.00136056
0.00120551
0.00105945
0.000927923
0.000803266
0.000693154
0.000588221
0.000496274
0.000413518
0.000326682
0.000285324
0.00018526
0.000161965
0.000262775
0.00010714
0.000406234
0.000291035
0.000425879
0.000987334
0.00048184
0.000457021
0.00161914
0.00121967
0.000297251
0.00204235
0.00207544
0.000239228
0.00303188
0.00130728
0.00211549
0.000792392
0.00132922
0.000676511
0.00193042
0.00148998
0.420374
0.406563
0.393254
0.380346
0.367755
0.355401
0.343222
0.331182
0.319269
0.307489
0.295864
0.284418
0.273178
0.262165
0.251398
0.240889
0.230643
0.22066
0.210937
0.201466
0.192242
0.183258
0.174511
0.165998
0.157719
0.149676
0.141873
0.134316
0.127011
0.119962
0.113176
0.106657
0.100409
0.0944338
0.0887311
0.0833001
0.078138
0.0732405
0.0686022
0.0642162
0.0600751
0.0561703
0.052493
0.0490336
0.0457826
0.0427302
0.0398665
0.0371818
0.0346664
0.0323111
0.0301067
0.0280445
0.0261159
0.0243131
0.022628
0.0210536
0.0195827
0.0182089
0.0169257
0.0157275
0.0146086
0.013564
0.0125885
0.0116779
0.0108275
0.0100336
0.00929226
0.00860017
0.00795377
0.00735027
0.00678659
0.00626022
0.0057686
0.00530939
0.00488058
0.0044799
0.00410592
0.00375628
0.00343029
0.00312528
0.00284148
0.00257567
0.00232917
0.00209793
0.00188465
0.00168411
0.0015007
0.00132757
0.00117127
0.00102282
0.000891271
0.000765593
0.00065523
0.00055492
0.000451563
0.000397745
0.000280067
0.000232514
0.000282791
5.75866e-05
0.000419814
0.000278384
0.000410239
0.00105194
0.000498168
0.000437607
0.00172234
0.00130535
0.000352631
0.00214734
0.0022329
0.000324725
0.00316856
0.00143258
0.00221429
0.000839233
0.00128751
0.000797058
0.00215884
0.0016738
0.415628
0.401612
0.388115
0.375062
0.36239
0.350034
0.337942
0.326072
0.314402
0.302923
0.291638
0.280559
0.269704
0.25909
0.248732
0.238644
0.228837
0.219313
0.210073
0.20111
0.192417
0.183985
0.175803
0.16786
0.160148
0.152658
0.145384
0.138322
0.13147
0.124828
0.118395
0.112174
0.106166
0.100375
0.0948015
0.0894479
0.0843152
0.0794033
0.0747116
0.0702382
0.0659804
0.0619345
0.0580959
0.0544594
0.051019
0.0477684
0.0447006
0.0418085
0.0390846
0.0365216
0.0341118
0.0318479
0.0297222
0.0277277
0.025857
0.0241036
0.0224605
0.0209216
0.0194805
0.0181317
0.0168691
0.0156879
0.0145827
0.013549
0.0125821
0.0116779
0.0108323
0.0100416
0.0093022
0.00861091
0.0079644
0.00735994
0.0067947
0.0062661
0.00577192
0.0053096
0.0048776
0.0044732
0.00409571
0.00374204
0.00341251
0.00310343
0.00281635
0.00254661
0.00229737
0.00206258
0.00184739
0.00164385
0.00145961
0.00128423
0.00112833
0.000978997
0.000847574
0.00072697
0.000604915
0.000535703
0.000399282
0.0003407
0.000363912
5.49061e-05
0.000445386
0.000253173
0.000375641
0.00109891
0.000499324
0.000401699
0.00180184
0.00137134
0.00039794
0.00222223
0.00236149
0.000397163
0.00324761
0.00153976
0.0022985
0.000871432
0.00119769
0.000954179
0.00241353
0.00185564
0.411275
0.397111
0.383478
0.370317
0.357577
0.345209
0.333164
0.321406
0.309906
0.298646
0.287617
0.27682
0.26626
0.255948
0.245893
0.236106
0.226599
0.217376
0.208443
0.199798
0.191437
0.183353
0.175539
0.167982
0.160671
0.153595
0.146742
0.140103
0.133668
0.127429
0.121381
0.115519
0.10984
0.104341
0.0990229
0.0938844
0.0889258
0.0841478
0.0795505
0.0751342
0.0708985
0.0668429
0.0629659
0.0592655
0.0557393
0.0523841
0.0491961
0.0461711
0.0433044
0.0405911
0.0380258
0.0356029
0.0333166
0.0311614
0.0291311
0.0272201
0.0254223
0.0237324
0.0221445
0.0206533
0.0192535
0.0179401
0.0167079
0.0155526
0.0144694
0.0134543
0.0125029
0.0116116
0.0107765
0.00999434
0.00926163
0.00857546
0.0079328
0.00733089
0.00676732
0.00623931
0.0057452
0.00528198
0.00484893
0.00444259
0.00406341
0.00370714
0.00337568
0.00306367
0.00277482
0.00250215
0.00225169
0.00201426
0.00179877
0.00159317
0.00140979
0.00123368
0.00107833
0.000934425
0.000791247
0.000703436
0.000546763
0.000473894
0.00048537
0.000116562
0.000504032
0.000218996
0.000318675
0.00112542
0.000482898
0.000347762
0.00185488
0.00141477
0.000428579
0.00226396
0.00245782
0.000449342
0.00326665
0.00162379
0.00236082
0.000887833
0.001079
0.00112062
0.00266269
0.00203434
0.407266
0.392994
0.379263
0.366022
0.353231
0.340847
0.32883
0.317146
0.305766
0.294668
0.283835
0.273259
0.262936
0.25287
0.243062
0.23352
0.224248
0.215255
0.206544
0.198117
0.189974
0.182113
0.174527
0.16721
0.160153
0.153344
0.146773
0.140429
0.1343
0.128375
0.122645
0.1171
0.111732
0.106534
0.101502
0.0966295
0.0919144
0.0873541
0.0829467
0.0786911
0.0745865
0.0706324
0.0668281
0.0631731
0.0596663
0.0563067
0.0530928
0.0500226
0.0470937
0.0443037
0.0416492
0.039127
0.0367332
0.0344641
0.0323151
0.0302822
0.0283606
0.0265461
0.0248337
0.0232193
0.0216977
0.020265
0.0189163
0.0176478
0.0164546
0.0153333
0.0142795
0.0132897
0.0123601
0.0114874
0.010668
0.00989905
0.0091774
0.00850017
0.00786489
0.00726856
0.00670952
0.00618446
0.00569273
0.00523046
0.0047983
0.00439146
0.00401224
0.0036545
0.00332264
0.00300864
0.00271953
0.00244479
0.00219473
0.00195553
0.00174147
0.00153529
0.00135295
0.00118254
0.00101559
0.000905715
0.000726971
0.000636451
0.000633118
0.000223093
0.000636438
0.000290421
0.000336239
0.0011756
0.000446728
0.000273115
0.001878
0.00143285
0.000440803
0.00226837
0.00251913
0.000475803
0.0032238
0.00168062
0.00240248
0.000949297
0.00108202
0.00137553
0.00290465
0.0022088
0.403556
0.389209
0.375406
0.362109
0.34928
0.336884
0.324885
0.313252
0.301959
0.29098
0.280296
0.269894
0.259764
0.249901
0.240302
0.230968
0.221901
0.213103
0.204577
0.196327
0.188352
0.180652
0.173225
0.166065
0.159167
0.152525
0.146128
0.139968
0.134034
0.128316
0.122804
0.117486
0.112353
0.107396
0.102606
0.0979745
0.0934956
0.089163
0.0849718
0.080918
0.0769981
0.0732097
0.0695506
0.0660192
0.0626143
0.0593347
0.0561794
0.0531473
0.0502372
0.0474478
0.0447775
0.0422247
0.0397869
0.0374623
0.035248
0.0331415
0.0311393
0.0292388
0.0274362
0.0257284
0.0241115
0.0225822
0.0211366
0.0197714
0.0184824
0.0172668
0.0161203
0.01504
0.0140222
0.0130639
0.0121616
0.0113126
0.0105137
0.00976209
0.00905537
0.00839044
0.00776567
0.00717754
0.00662555
0.00610546
0.00561819
0.00515842
0.0047289
0.00432272
0.00394504
0.00358675
0.00325601
0.00294081
0.00265309
0.00237705
0.00212915
0.00188961
0.0016772
0.00147693
0.00128339
0.00114782
0.000944889
0.000833234
0.000811525
0.000374823
0.000790064
0.000410308
0.000402435
0.00123179
0.000423846
0.000219926
0.0018774
0.00142293
0.000432207
0.00223001
0.00257536
0.000503818
0.00311774
0.00173875
0.00245481
0.00100129
0.00107632
0.00163778
0.00313811
0.0023778
0.400112
0.385711
0.37186
0.358523
0.345669
0.333264
0.321279
0.309684
0.298454
0.287566
0.276997
0.266732
0.256756
0.247061
0.237638
0.228484
0.219595
0.210972
0.202613
0.19452
0.186692
0.17913
0.171832
0.164794
0.158014
0.151485
0.145202
0.139158
0.133345
0.127753
0.122375
0.1172
0.11222
0.107424
0.102803
0.098348
0.094051
0.0899039
0.0858993
0.0820307
0.0782923
0.0746788
0.071186
0.0678102
0.0645481
0.0613974
0.0583556
0.0554212
0.0525925
0.0498683
0.047247
0.0447277
0.0423088
0.0399892
0.0377671
0.0356412
0.0336093
0.0316698
0.0298202
0.0280585
0.0263819
0.0247882
0.0232744
0.0218381
0.0204759
0.0191856
0.0179637
0.0168079
0.0157147
0.0146817
0.0137056
0.0127841
0.0119143
0.0110934
0.0103193
0.00958877
0.00890047
0.00825074
0.00763932
0.00706165
0.00651905
0.00600563
0.00552477
0.00506873
0.00464354
0.00423895
0.00386441
0.0035063
0.00317838
0.00286269
0.00257815
0.00230218
0.00205673
0.00182332
0.00160034
0.00143538
0.00120589
0.00106961
0.00102548
0.000563136
0.000970423
0.000560836
0.000488236
0.00137486
0.000521325
0.000274364
0.00190774
0.00145675
0.000473382
0.00214203
0.00263775
0.000575008
0.00297737
0.00184683
0.0025709
0.00104701
0.00106452
0.00190396
0.00336168
0.00253998
0.396901
0.382464
0.368581
0.355219
0.34235
0.329943
0.31797
0.306405
0.295225
0.284405
0.273926
0.263769
0.253918
0.24436
0.235085
0.226084
0.217352
0.208883
0.200675
0.192727
0.185036
0.177601
0.170421
0.163493
0.156813
0.150379
0.144185
0.138226
0.132495
0.126987
0.121693
0.116606
0.111717
0.107019
0.102503
0.0981596
0.0939817
0.0899606
0.0860884
0.0823575
0.0787607
0.0752915
0.0719436
0.0687116
0.0655905
0.0625759
0.0596639
0.0568512
0.0541349
0.0515127
0.0489821
0.0465417
0.0441895
0.0419244
0.0397447
0.0376493
0.0356367
0.0337058
0.0318548
0.0300826
0.0283872
0.0267674
0.0252207
0.0237459
0.0223404
0.0210026
0.0197298
0.0185203
0.0173713
0.016281
0.0152466
0.0142661
0.013337
0.012457
0.0116241
0.0108353
0.0100897
0.00938348
0.00871679
0.00808481
0.00748939
0.00692413
0.00639311
0.00588777
0.0054152
0.00496388
0.00454477
0.0041425
0.00377289
0.00341562
0.00309237
0.00277749
0.00249648
0.00222701
0.00197186
0.00177408
0.00151546
0.0013513
0.00128023
0.000793175
0.001183
0.000745437
0.000596829
0.00154308
0.000645113
0.000354356
0.00197614
0.00153539
0.000607239
0.00209024
0.00267672
0.000709327
0.00291327
0.00199815
0.00269473
0.00109008
0.00104949
0.00217123
0.00357358
0.00269377
0.393898
0.37944
0.365537
0.352161
0.339285
0.32688
0.31492
0.303382
0.292242
0.281478
0.27107
0.260999
0.251248
0.241802
0.232649
0.223779
0.215181
0.206849
0.198777
0.190961
0.183397
0.176083
0.169015
0.162191
0.155607
0.149261
0.143147
0.137262
0.131601
0.126157
0.120925
0.115899
0.11107
0.106434
0.101981
0.0977052
0.0935987
0.0896541
0.0858639
0.0822207
0.0787174
0.0753471
0.072103
0.0689789
0.0659686
0.0630669
0.0602683
0.0575683
0.0549626
0.0524475
0.0500194
0.0476757
0.0454133
0.0432303
0.0411244
0.0390941
0.0371373
0.0352532
0.0334396
0.031696
0.0300204
0.0284122
0.0268693
0.025391
0.0239753
0.0226214
0.021327
0.0200911
0.0189115
0.017787
0.0167153
0.015695
0.014724
0.0138003
0.0129225
0.0120879
0.0112959
0.0105427
0.009829
0.00914987
0.00850775
0.00789574
0.00731884
0.00676759
0.00625033
0.00575421
0.00529189
0.00484611
0.00443501
0.00403572
0.00367298
0.00331783
0.00299965
0.00269201
0.00240243
0.00216905
0.0018787
0.00168393
0.00158118
0.0010702
0.00143379
0.000967851
0.000731873
0.0017311
0.000792574
0.000460851
0.00211467
0.00169011
0.00076061
0.00216558
0.0028419
0.000851241
0.00292141
0.00223735
0.00282775
0.00113436
0.0010341
0.00243693
0.00377148
0.00283732
0.39108
0.376612
0.3627
0.349319
0.336442
0.324043
0.312098
0.300584
0.289479
0.278761
0.268411
0.25841
0.248741
0.239388
0.230337
0.221576
0.213093
0.20488
0.196928
0.189231
0.181784
0.174582
0.167621
0.160896
0.154406
0.148145
0.14211
0.136297
0.130701
0.125317
0.12014
0.115164
0.110384
0.105792
0.101384
0.0971524
0.0930908
0.0891927
0.0854513
0.0818602
0.0784126
0.0751023
0.0719226
0.0688675
0.0659308
0.0631068
0.0603897
0.0577745
0.055256
0.0528296
0.0504909
0.0482361
0.0460613
0.0439636
0.0419395
0.0399869
0.0381029
0.036286
0.0345336
0.0328446
0.0312168
0.0296495
0.0281406
0.0266895
0.0252942
0.0239543
0.0226678
0.0214341
0.0202512
0.0191186
0.0180343
0.0169972
0.0160058
0.0150586
0.0141544
0.0132909
0.0124679
0.0116818
0.010934
0.0102191
0.00954059
0.00889094
0.00827618
0.00768599
0.00713007
0.0065942
0.00609292
0.00560699
0.00515705
0.00471757
0.00431654
0.0039216
0.00356611
0.0032197
0.00289433
0.00262384
0.00229946
0.00207235
0.00193329
0.00139898
0.00172914
0.00123163
0.000897313
0.00194348
0.000970559
0.000594651
0.00226105
0.00186746
0.000937791
0.00223842
0.00302028
0.00100758
0.00291934
0.00248558
0.00297139
0.00118322
0.00102123
0.00269819
0.00395232
0.0029685
0.388429
0.373958
0.360045
0.346665
0.333794
0.321406
0.309477
0.297986
0.286912
0.276234
0.265933
0.25599
0.246389
0.237112
0.228146
0.219477
0.211093
0.202982
0.195136
0.187546
0.180204
0.173105
0.166243
0.159614
0.153213
0.147036
0.141079
0.135337
0.129806
0.124481
0.119357
0.11443
0.109694
0.105144
0.100773
0.0965768
0.0925488
0.0886834
0.0849745
0.0814161
0.0780025
0.0747277
0.0715858
0.0685712
0.0656781
0.0629012
0.0602348
0.0576739
0.0552131
0.052848
0.0505734
0.0483854
0.0462793
0.0442517
0.0422984
0.0404166
0.0386025
0.036854
0.0351677
0.033542
0.0319741
0.0304626
0.0290051
0.0276008
0.0262473
0.0249441
0.0236889
0.0224815
0.0213198
0.0202033
0.0191302
0.0180999
0.0171109
0.016162
0.0152524
0.0143799
0.0135448
0.0127436
0.0119781
0.0112429
0.0105422
0.00986795
0.00922732
0.00860904
0.00802432
0.00745746
0.00692501
0.00640567
0.00592275
0.00544794
0.00501259
0.004581
0.00419027
0.00380683
0.00344578
0.0031388
0.00277888
0.00251921
0.00234027
0.00178269
0.0020752
0.00153955
0.00109742
0.00218554
0.0011865
0.000762603
0.00241527
0.00207223
0.00114737
0.00230486
0.00321194
0.001185
0.00291099
0.00274331
0.00312624
0.00123885
0.00101862
0.0029514
0.00411225
0.00308488
0.385925
0.371459
0.357552
0.34418
0.331318
0.318944
0.307034
0.295566
0.284521
0.273878
0.26362
0.253727
0.244183
0.234971
0.226076
0.217485
0.209184
0.201162
0.193407
0.18591
0.178663
0.171658
0.164888
0.158348
0.152033
0.145936
0.140054
0.134382
0.128916
0.12365
0.118581
0.113703
0.109011
0.104501
0.100167
0.0960043
0.0920069
0.0881697
0.0844871
0.0809539
0.0775644
0.0743135
0.0711957
0.0682059
0.0653386
0.0625891
0.0599519
0.0574226
0.054996
0.0526677
0.0504329
0.0482875
0.0462268
0.0442474
0.0423446
0.0405154
0.0387557
0.0370629
0.0354329
0.0338639
0.0323522
0.0308963
0.0294928
0.0281407
0.0268371
0.025581
0.02437
0.0232033
0.0220788
0.0209958
0.0199524
0.0189478
0.0179807
0.0170498
0.0161545
0.0152925
0.0144646
0.0136669
0.012902
0.012164
0.0114579
0.0107751
0.0101238
0.00949164
0.00889146
0.00830599
0.00775383
0.00721155
0.00670508
0.00620344
0.00574107
0.00527947
0.00485845
0.00444301
0.00404859
0.00370878
0.00331345
0.00302294
0.00280308
0.00222121
0.0024767
0.00189288
0.00135682
0.00246366
0.00144809
0.00102572
0.00257954
0.00230972
0.00139784
0.00236626
0.00341929
0.00138854
0.00290264
0.00301109
0.00329157
0.00130165
0.00120776
0.00319169
0.00424659
0.00318374
0.383556
0.369099
0.355203
0.341843
0.328995
0.316638
0.304747
0.293303
0.282286
0.271676
0.261456
0.251606
0.242111
0.232955
0.224121
0.215596
0.207367
0.19942
0.191745
0.18433
0.177167
0.170246
0.16356
0.157103
0.150867
0.144847
0.139038
0.133434
0.128031
0.122825
0.11781
0.112982
0.108336
0.103867
0.09957
0.0954408
0.0914739
0.0876644
0.084007
0.0804968
0.0771286
0.0738976
0.0707985
0.0678267
0.0649772