/*--------------------------------*- C++ -*----------------------------------*\
| =========                 |                                                 |
| \\      /  F ield         | OpenFOAM: The Open Source CFD Toolbox           |
|  \\    /   O peration     | Version:  2412                                  |
|   \\  /    A nd           | Website:  www.openfoam.com                      |
|    \\/     M anipulation  |                                                 |
\*---------------------------------------------------------------------------*/
FoamFile
{
    version     2.0;
    format      ascii;
    arch        "LSB;label=32;scalar=64";
    class       volVectorField;
    location    "0.785";
    object      U_0;
}
// * * * * * * * * * * * * * * * * * * * * * * * * * * * * * * * * * * * * * //

dimensions      [0 1 -1 0 0 0 0];

internalField   nonuniform List<vector> 
12600
(
(18.7162 1.24011e-21 2.0895)
(11.6096 1.6088e-20 0.449378)
(7.34733 1.89201e-20 -0.478099)
(5.08857 0 -0.709128)
(3.97695 1.71106e-20 -0.682252)
(3.33685 1.59385e-20 -0.607629)
(2.89594 0 -0.540006)
(2.5649 0 -0.484623)
(2.30538 -4.79505e-20 -0.439208)
(2.0953 0 -0.401492)
(1.92094 2.01224e-20 -0.369637)
(1.7734 1.84299e-20 -0.342317)
(1.64657 -1.68881e-20 -0.318586)
(1.53611 0 -0.297747)
(1.43885 -1.41623e-20 -0.279278)
(1.3524 0 -0.262776)
(1.27493 4.76163e-20 -0.247927)
(1.20502 0 -0.234481)
(1.14153 -1.99414e-20 -0.222236)
(1.08356 -1.82442e-20 -0.21103)
(1.03037 1.66605e-20 -0.200728)
(0.981341 5.53724e-24 -0.191217)
(0.935975 0 -0.182405)
(0.893844 -2.51652e-20 -0.174213)
(0.854588 0 -0.166573)
(0.817901 0 -0.159428)
(0.78352 -1.86864e-20 -0.152727)
(0.751216 0 -0.146429)
(0.720793 3.93989e-24 -0.140495)
(0.692078 1.35322e-20 -0.134892)
(0.664918 1.20588e-20 -0.129591)
(0.63918 1.06937e-20 -0.124567)
(0.614746 -9.42945e-21 -0.119797)
(0.591509 -1.65179e-20 -0.115261)
(0.569375 -1.43515e-20 -0.11094)
(0.548259 1.23371e-20 -0.106817)
(0.528085 0 -0.102879)
(0.508784 -8.7845e-21 -0.0991109)
(0.490292 0 -0.0955017)
(0.472554 5.74872e-21 -0.0920399)
(0.455518 0 -0.0887156)
(0.439135 1.73295e-23 -0.0855193)
(0.423362 0 -0.0824427)
(0.408159 1.57837e-23 -0.0794779)
(0.39349 6.148e-23 -0.0766178)
(0.37932 1.67274e-21 -0.0738555)
(0.365618 -3.28442e-21 -0.0711851)
(0.352353 0 -0.0686005)
(0.339499 0 -0.0660969)
(0.32703 -7.26781e-21 -0.0636687)
(0.314924 -1.67111e-20 -0.0613118)
(0.303155 -1.86729e-20 -0.0590212)
(0.291707 1.92784e-23 -0.0567937)
(0.280555 -2.19946e-20 -0.0546244)
(0.269686 0 -0.0525108)
(0.259076 2.46597e-20 -0.0504481)
(0.248717 2.57524e-20 -0.0484349)
(0.238585 2.66905e-20 -0.0464661)
(0.228674 0 -0.0445412)
(0.218961 0 -0.0426549)
(0.209445 0 -0.0408076)
(0.200098 -5.85957e-20 -0.0389936)
(0.190929 0 -0.0372145)
(0.181904 0 -0.035464)
(0.173039 1.20725e-19 -0.0337448)
(0.164297 0 -0.0320499)
(0.155701 0 -0.0303837)
(0.147208 0 -0.0287377)
(0.138851 -1.21137e-19 -0.0271185)
(0.130579 1.20614e-19 -0.0255163)
(0.122438 1.19877e-19 -0.0239395)
(0.114369 2.33844e-23 -0.0223769)
(0.106429 -1.17818e-19 -0.0208395)
(0.0985508 0 -0.0193144)
(0.0908047 1.15077e-19 -0.0178149)
(0.0831163 0 -0.0163267)
(0.0755686 0 -0.0148658)
(0.0680793 0 -0.0134162)
(0.0607457 2.88355e-23 -0.0119968)
(0.0534776 2.11808e-19 -0.0105899)
(0.046386 2.07491e-19 -0.00921717)
(0.0393722 -2.03004e-19 -0.00785929)
(0.0325621 -1.98368e-19 -0.00654079)
(0.0258452 0 -0.00524)
(0.0193663 0 -0.00398524)
(0.0129941 3.67605e-19 -0.00275066)
(0.00690462 -7.1488e-19 -0.00157079)
(0.000923111 6.94423e-19 -0.000411257)
(-0.00471261 3.36828e-19 0.00068131)
(-0.0102731 0 0.00175955)
(-0.0153865 -6.31722e-19 0.00275154)
(-0.0205168 3.05371e-19 0.00374708)
(-0.0250999 -2.94797e-19 0.00463686)
(-0.0296234 5.68771e-19 0.00551487)
(-0.0343604 0 0.00643451)
(-0.0363811 0 0.0068317)
(-0.0450143 0 0.00849203)
(-0.0411541 0 0.00774644)
(-0.0496527 0 0.00941825)
(-0.0627349 0 0.0118011)
(-0.0271224 -4.33704e-19 0.00522979)
(-0.0941255 -7.96961e-19 0.0179356)
(-0.0530096 -8.04624e-19 0.0095456)
(-0.0186916 0 0.00422323)
(-0.175454 0 0.0332584)
(0.0125845 0 -0.00300792)
(-0.0611001 -6.10264e-19 0.0130663)
(-0.25756 -1.21715e-18 0.0481029)
(0.102755 6.60284e-19 -0.0194938)
(-0.161324 0 0.0327966)
(-0.34585 -1.10621e-18 0.063812)
(0.190104 0 -0.0362084)
(-0.114026 -8.6586e-19 0.0250757)
(-0.54574 8.92858e-19 0.103705)
(-0.139854 -1.0455e-18 0.023849)
(0.0911403 -9.58777e-19 -0.0170472)
(-0.178044 8.36796e-19 0.0355519)
(-0.372006 -1.81622e-22 0.0706353)
(-0.246055 8.72029e-19 0.0449141)
(0.0715161 0 -0.0149065)
(29.1186 -1.2519e-21 4.01866)
(25.0828 0 1.85362)
(20.2281 -1.91493e-20 -0.215904)
(16.0682 0 -1.21297)
(13.1134 -1.7338e-20 -1.50802)
(11.0737 -3.04535e-20 -1.51898)
(9.60338 -1.41001e-20 -1.44144)
(8.49271 0 -1.34397)
(7.62082 3.55968e-22 -1.24872)
(6.915 -2.19411e-20 -1.16176)
(6.3297 2.01511e-20 -1.08376)
(5.83492 1.85048e-20 -1.01402)
(5.41009 -1.69909e-20 -0.951519)
(5.04057 1.55977e-20 -0.89529)
(4.71562 2.86856e-20 -0.844473)
(4.42717 0 -0.798336)
(4.16905 -6.49423e-23 -0.756261)
(3.93642 2.20603e-20 -0.717727)
(3.72546 2.02315e-20 -0.682296)
(3.53308 0 -0.649598)
(3.35678 0 -0.619318)
(3.1945 1.54059e-20 -0.591187)
(3.04453 0 -0.564976)
(2.90542 1.27569e-20 -0.540485)
(2.77596 -2.31467e-20 -0.517544)
(2.65512 0 -0.496003)
(2.542 1.89393e-20 -0.475731)
(2.43584 0 -0.456613)
(2.33597 -1.53179e-20 -0.438549)
(2.24181 -2.74147e-20 -0.421449)
(2.15285 -2.44253e-20 -0.405232)
(2.06864 -1.0824e-20 -0.389829)
(1.98877 9.54168e-21 -0.375175)
(1.9129 3.34368e-20 -0.361214)
(1.8407 2.9045e-20 -0.347893)
(1.77189 0 -0.335166)
(1.70621 0 -0.322991)
(1.64344 -1.70725e-23 -0.311328)
(1.58337 0 -0.300144)
(1.52579 -5.80356e-21 -0.289406)
(1.47054 0 -0.279084)
(1.41747 -6.39875e-21 -0.269151)
(1.36642 0 -0.259583)
(1.31726 -2.00337e-21 -0.250356)
(1.26987 0 -0.241449)
(1.22413 -1.68435e-21 -0.232842)
(1.17995 0 -0.224517)
(1.13721 0 -0.216456)
(1.09584 6.06558e-21 -0.208644)
(1.05574 0 -0.201064)
(1.01684 0 -0.193705)
(0.97906 0 -0.186551)
(0.94234 2.04811e-20 -0.179592)
(0.9066 4.40707e-20 -0.172813)
(0.871799 0 -0.166208)
(0.837856 0 -0.159761)
(0.804743 -2.57277e-20 -0.153467)
(0.77238 -2.66892e-20 -0.147312)
(0.740753 0 -0.141294)
(0.709778 0 -0.135396)
(0.679456 0 -0.12962)
(0.649697 0 -0.123948)
(0.620522 -5.90897e-20 -0.118385)
(0.591828 5.96309e-20 -0.112911)
(0.563661 -1.20036e-19 -0.107536)
(0.535901 0 -0.102235)
(0.508621 0 -0.0970258)
(0.481683 0 -0.0918791)
(0.45519 4.70949e-23 -0.0868166)
(0.428982 -1.1946e-19 -0.0818065)
(0.403197 -1.18622e-19 -0.0768767)
(0.377651 2.35132e-19 -0.0719908)
(0.352519 3.57879e-23 -0.0671839)
(0.327591 -1.14947e-19 -0.0624147)
(0.303086 -1.1344e-19 -0.0577258)
(0.278764 0 -0.0530715)
(0.254891 0 -0.0485023)
(0.231198 0 -0.0439679)
(0.207999 2.11969e-19 -0.0395269)
(0.184996 0 -0.0351248)
(0.162552 0 -0.0308276)
(0.140337 1.98683e-19 -0.026577)
(0.118766 1.93939e-19 -0.0224465)
(0.0974663 0 -0.0183723)
(0.0769201 0 -0.0144377)
(0.0566814 0 -0.0105683)
(0.0373391 6.95816e-19 -0.00686391)
(0.0183052 -4.50494e-23 -0.00322676)
(0.000366477 3.27098e-19 0.000209313)
(-0.0173623 -3.16629e-19 0.00359484)
(-0.0336827 6.122e-19 0.00672184)
(-0.0500708 2.95587e-19 0.00984944)
(-0.0647227 5.70151e-19 0.0126553)
(-0.0792866 0 0.0154417)
(-0.0941327 0 0.0182658)
(-0.101595 0 0.0197201)
(-0.127327 0 0.0246417)
(-0.117147 4.69569e-19 0.0225472)
(-0.144636 0 0.0282516)
(-0.178457 0 0.0338867)
(-0.0836949 -4.15901e-19 0.0164938)
(-0.276011 3.8172e-19 0.0538761)
(-0.145721 1.53995e-18 0.0259241)
(-0.0760035 -7.14535e-19 0.0172079)
(-0.502529 0 0.096736)
(0.0418508 0 -0.0110627)
(-0.216305 0 0.047632)
(-0.716401 5.79591e-19 0.134683)
(0.284579 -6.28395e-19 -0.0569094)
(-0.52081 0 0.109655)
(-0.937862 2.10116e-18 0.173396)
(0.534033 1.13545e-18 -0.107026)
(-0.427225 1.64323e-18 0.0966164)
(-1.53878 0 0.296653)
(-0.339829 0 0.0531141)
(0.230167 -9.07755e-19 -0.0437489)
(-0.564445 0 0.116661)
(-1.05155 -7.70944e-19 0.203502)
(-0.649301 -8.23075e-19 0.117051)
(0.25751 0 -0.0549444)
(31.8623 0 3.88758)
(31.0509 0 2.81148)
(28.5257 -1.29805e-20 1.01835)
(25.1883 0 -0.386343)
(21.9423 0 -1.22888)
(19.1745 1.5137e-20 -1.65289)
(16.9205 1.3353e-20 -1.82084)
(15.0988 0 -1.85234)
(13.6139 4.20538e-22 -1.81865)
(12.3857 2.07862e-20 -1.75621)
(11.3539 -3.79727e-20 -1.6825)
(10.4745 -1.75332e-20 -1.60586)
(9.71507 1.14673e-22 -1.53028)
(9.052 -1.478e-20 -1.4576)
(8.46737 -1.35644e-20 -1.38862)
(7.94747 1.23936e-20 -1.32358)
(7.48167 -2.28172e-20 -1.26248)
(7.06154 -2.09053e-20 -1.20515)
(6.68038 0 -1.15139)
(6.33273 0 -1.10094)
(6.01414 1.59625e-20 -1.05355)
(5.72093 1.45667e-20 -1.009)
(5.45003 0 -0.967058)
(5.19884 0 -0.92751)
(4.96517 2.19329e-20 -0.89017)
(4.74716 0 -0.854862)
(4.54319 -3.5885e-20 -0.82143)
(4.35187 1.61644e-20 -0.789727)
(4.172 0 -0.759625)
(4.00251 1.29893e-20 -0.731003)
(3.84248 1.15732e-20 -0.703753)
(3.69109 0 -0.677778)
(3.54761 -9.05162e-21 -0.652987)
(3.41139 -1.58441e-20 -0.629299)
(3.28186 1.18544e-23 -0.606639)
(3.15849 0 -0.584937)
(3.04082 0 -0.564131)
(2.92843 8.42043e-21 -0.544163)
(2.82094 0 -0.52498)
(2.718 0 -0.506531)
(2.61929 0 -0.488772)
(2.52452 0 -0.47166)
(2.43344 0 -0.455156)
(2.34579 0 -0.439222)
(2.26135 0 -0.423827)
(2.17991 1.55167e-21 -0.408937)
(2.1013 -3.07491e-21 -0.394523)
(2.02531 0 -0.380556)
(1.9518 -5.73861e-21 -0.367012)
(1.8806 0 -0.353863)
(1.81158 0 -0.341091)
(1.74459 1.76466e-20 -0.328669)
(1.67953 0 -0.316582)
(1.61624 -2.08214e-20 -0.304803)
(1.55466 2.21155e-20 -0.293323)
(1.49464 0 -0.282114)
(1.43613 2.43183e-20 -0.271171)
(1.37898 0 -0.260466)
(1.32316 0 -0.249999)
(1.26853 0 -0.239739)
(1.21509 5.42329e-20 -0.229691)
(1.16267 5.50984e-20 -0.219823)
(1.1113 2.82103e-23 -0.210145)
(1.06082 -1.1259e-19 -0.200621)
(1.01128 2.4756e-23 -0.191269)
(0.962494 0 -0.182048)
(0.914568 0 -0.172984)
(0.867268 -1.13603e-19 -0.16403)
(0.820765 3.79153e-23 -0.155223)
(0.774784 0 -0.146506)
(0.729559 0 -0.13793)
(0.684767 -1.10849e-19 -0.129429)
(0.640713 2.87902e-23 -0.121066)
(0.597025 2.68312e-23 -0.112768)
(0.554085 0 -0.104609)
(0.511469 0 -0.0965091)
(0.469641 -2.0708e-19 -0.0885565)
(0.428125 2.03418e-19 -0.0806629)
(0.387475 0 -0.0729302)
(0.347155 0 -0.0652633)
(0.307812 0 -0.0577768)
(0.268846 0 -0.0503689)
(0.231007 0 -0.0431668)
(0.19361 0 -0.0360605)
(0.157533 0 -0.0291922)
(0.121953 0 -0.0224361)
(0.0879441 -6.54161e-19 -0.0159605)
(0.0544312 -3.1733e-19 -0.00960268)
(0.022836 -3.07431e-19 -0.00358559)
(-0.00842849 2.9753e-19 0.00234124)
(-0.0372366 -5.75093e-19 0.00782999)
(-0.0661804 -2.77643e-19 0.0133111)
(-0.0920812 -2.67702e-19 0.01824)
(-0.11795 0 0.0231718)
(-0.143815 0 0.028003)
(-0.158304 0 0.030928)
(-0.201281 0 0.0389603)
(-0.186396 -4.40534e-19 0.0358404)
(-0.234856 0 0.0464569)
(-0.284926 0 0.0530621)
(-0.142211 3.89961e-19 0.0289334)
(-0.451406 0 0.0887027)
(-0.227364 -7.21624e-19 0.0375411)
(-0.151236 6.696e-19 0.0375316)
(-0.807206 0 0.153438)
(0.0714404 0 -0.0219222)
(-0.400492 0 0.0954179)
(-1.12376 5.42214e-19 0.203874)
(0.439098 0 -0.0895494)
(-0.909977 -4.41215e-19 0.203038)
(-1.43881 -6.81133e-22 0.251459)
(0.834304 -1.06267e-18 -0.170966)
(-0.81373 -1.53861e-18 0.201191)
(-2.43172 0 0.465041)
(-0.471196 9.25197e-19 0.0521475)
(0.325063 8.49094e-19 -0.0577179)
(-0.972974 7.40512e-19 0.211773)
(-1.66158 0 0.320145)
(-0.964099 7.69606e-19 0.158213)
(0.489846 0 -0.111626)
(32.3856 0 2.94468)
(32.9525 0 2.75969)
(32.401 1.22708e-20 1.71649)
(30.7608 0 0.516452)
(28.5112 -1.23203e-20 -0.48771)
(26.0987 2.50634e-20 -1.20993)
(23.7828 0 -1.67253)
(21.6795 -2.18901e-20 -1.93642)
(19.8222 2.09928e-20 -2.0655)
(18.2015 1.89915e-20 -2.10977)
(16.7899 1.78539e-20 -2.10299)
(15.5563 -1.62337e-20 -2.06642)
(14.4722 1.51173e-20 -2.01301)
(13.5135 -2.7571e-20 -1.95056)
(12.66 0 -1.8838)
(11.8956 -2.33801e-20 -1.81559)
(11.2069 0 -1.7477)
(10.5831 0 -1.68115)
(10.0153 0 -1.61658)
(9.49602 1.64777e-20 -1.55431)
(9.01922 -3.43703e-23 -1.49451)
(8.57972 -2.61761e-23 -1.43723)
(8.17316 1.25341e-20 -1.38246)
(7.79585 0 -1.33013)
(7.44463 0 -1.28016)
(7.11679 0 -1.23245)
(6.80997 3.3924e-20 -1.18689)
(6.52213 -6.20956e-24 -1.14335)
(6.2515 0 -1.10175)
(5.9965 0 -1.06195)
(5.75576 0 -1.02387)
(5.52805 0 -0.987399)
(5.3123 1.71212e-20 -0.952448)
(5.10753 0 -0.918927)
(4.91287 -1.3024e-20 -0.886753)
(4.72755 0 -0.855847)
(4.55087 0 -0.826138)
(4.38218 -7.98309e-21 -0.797554)
(4.22092 0 -0.770033)
(4.06656 0 -0.743512)
(3.91863 4.01559e-21 -0.717937)
(3.77667 -5.79514e-21 -0.693253)
(3.64031 0 -0.66941)
(3.50916 -1.85689e-21 -0.646362)
(3.38289 0 -0.624064)
(3.26118 -2.91249e-21 -0.602474)
(3.14375 1.8631e-23 -0.581554)
(3.03032 0 -0.561265)
(2.92065 0 -0.541575)
(2.81449 6.46636e-21 -0.522446)
(2.71165 1.48809e-20 -0.503854)
(2.61189 -3.3297e-20 -0.48576)
(2.51506 0 -0.468145)
(2.42094 -1.96073e-20 -0.450973)
(2.32941 -2.08762e-20 -0.434229)
(2.24025 -2.19487e-20 -0.417876)
(2.15339 -2.29091e-20 -0.401906)
(2.0686 0 -0.386281)
(1.98584 0 -0.370998)
(1.90488 -5.01199e-20 -0.356016)
(1.82573 -1.02281e-19 -0.341342)
(1.74814 -5.19672e-20 -0.326929)
(1.67216 3.02784e-23 -0.312792)
(1.59752 5.30693e-20 -0.298879)
(1.52432 5.33863e-20 -0.285218)
(1.45226 0 -0.271746)
(1.38151 0 -0.258505)
(1.31171 1.07058e-19 -0.245423)
(1.24312 2.13321e-19 -0.232555)
(1.17533 0 -0.219819)
(1.10866 1.05285e-19 -0.207288)
(1.04266 1.04335e-19 -0.194867)
(0.977764 1.03256e-19 -0.182646)
(0.913417 2.03958e-19 -0.170519)
(0.850181 0 -0.158595)
(0.787425 0 -0.146755)
(0.725836 1.94868e-19 -0.135129)
(0.664697 -3.82732e-19 -0.123586)
(0.604831 -1.87673e-19 -0.112278)
(0.545432 0 -0.101061)
(0.487467 0 -0.0901059)
(0.430025 0 -0.0792608)
(0.374236 0 -0.0687139)
(0.319052 0 -0.0583013)
(0.265804 0 -0.0482332)
(0.213235 -3.16363e-19 -0.0383234)
(0.162971 4.33121e-23 -0.0288188)
(0.113378 2.97958e-19 -0.0194822)
(0.0666022 0 -0.0106366)
(0.0202632 2.79272e-19 -0.00192315)
(-0.0224794 2.699e-19 0.00616387)
(-0.0654421 0 0.014232)
(-0.103931 -2.51147e-19 0.0214979)
(-0.142524 -4.83824e-19 0.0288161)
(-0.180463 0 0.0357835)
(-0.203727 0 0.0405552)
(-0.264134 0 0.0515892)
(-0.24656 -4.12951e-19 0.0477957)
(-0.317686 0 0.0639047)
(-0.379959 0 0.0699806)
(-0.20098 3.65424e-19 0.0423287)
(-0.616563 -3.35164e-19 0.12214)
(-0.297886 0 0.0460096)
(-0.241443 0 0.0632206)
(-1.08438 0 0.204151)
(0.0974289 0 -0.0336812)
(-0.607246 0 0.152416)
(-1.47478 -2.92775e-22 0.259904)
(0.559396 0 -0.116356)
(-1.31618 4.12874e-19 0.306912)
(-1.84439 -9.19086e-19 0.306046)
(1.07715 0 -0.225392)
(-1.25696 -4.02574e-22 0.328017)
(-3.20403 0 0.609187)
(-0.541342 -4.03921e-22 0.0309046)
(0.37336 0 -0.0607031)
(-1.3881 -6.92352e-19 0.314969)
(-2.18242 0 0.419661)
(-1.18051 7.18822e-19 0.17419)
(0.770276 0 -0.182233)
(32.4895 0 2.09189)
(33.2477 0 2.21838)
(33.5952 0 1.74419)
(33.2323 0 0.951084)
(32.2117 1.16294e-20 0.110143)
(30.7404 -8.99803e-22 -0.638252)
(29.0239 0 -1.23873)
(27.2205 2.06613e-20 -1.68213)
(25.4399 0 -1.98562)
(23.748 -3.53511e-20 -2.17739)
(22.1771 0 -2.286)
(20.7374 1.53258e-20 -2.33542)
(19.4263 0 -2.34394)
(18.2352 2.60314e-20 -2.32477)
(17.1529 -1.18627e-20 -2.28722)
(16.1679 2.19295e-20 -2.23774)
(15.2693 -2.00857e-20 -2.18075)
(14.4471 -1.84464e-20 -2.11931)
(13.6927 0 -2.05554)
(12.9984 -1.55595e-20 -1.99089)
(12.3574 -1.42245e-20 -1.92634)
(11.7641 -2.59349e-20 -1.86258)
(11.2132 -1.18355e-20 -1.80007)
(10.7004 0 -1.73911)
(10.222 0 -1.67987)
(9.7745 0 -1.62247)
(9.35503 -1.60109e-20 -1.56696)
(8.96098 -1.44282e-20 -1.51335)
(8.59007 0 -1.46162)
(8.24029 0 -1.41174)
(7.90984 1.03341e-20 -1.36366)
(7.59712 0 -1.31732)
(7.3007 1.22506e-24 -1.27265)
(7.01928 -1.41649e-20 -1.22959)
(6.75173 1.231e-20 -1.18808)
(6.49698 0 -1.14804)
(6.25411 0 -1.10941)
(6.02224 7.53461e-21 -1.07212)
(5.80061 0 -1.03612)
(5.5885 0 -1.00132)
(5.38526 -3.78936e-21 -0.967693)
(5.1903 5.46832e-21 -0.935161)
(5.00307 0 -0.903678)
(4.82307 1.75194e-21 -0.873188)
(4.64982 0 -0.843644)
(4.4829 1.36457e-21 -0.814996)
(4.32192 2.72251e-21 -0.787201)
(4.16649 0 -0.760212)
(4.01629 5.06524e-21 -0.733992)
(3.87097 -6.09814e-21 -0.708495)
(3.73026 -2.80353e-20 -0.683691)
(3.59384 1.56841e-20 -0.659534)
(3.46149 -1.71377e-20 -0.636001)
(3.33292 2.51225e-23 -0.613044)
(3.20795 0 -0.590648)
(3.08629 2.06875e-20 -0.568765)
(2.96782 2.15905e-20 -0.547386)
(2.85225 -2.23529e-20 -0.52646)
(2.73951 2.30249e-20 -0.505987)
(2.62929 4.72202e-20 -0.48591)
(2.52158 4.81599e-20 -0.466242)
(2.41606 -4.88877e-20 -0.446919)
(2.31278 4.95119e-20 -0.427964)
(2.21137 0 -0.409307)
(2.11197 0 -0.390984)
(2.01416 5.03784e-20 -0.372913)
(1.91817 0 -0.355151)
(1.82352 0 -0.337599)
(1.73054 -1.00359e-19 -0.320335)
(1.63867 0 -0.303246)
(1.54837 -9.90571e-20 -0.28643)
(1.45899 -1.96267e-19 -0.26976)
(1.37112 0 -0.253358)
(1.28401 -9.58921e-20 -0.237079)
(1.19842 0 -0.22107)
(1.11348 0 -0.205172)
(1.03013 -1.83091e-19 -0.189558)
(0.947375 1.79842e-19 -0.174052)
(0.866339 3.9609e-23 -0.158857)
(0.785907 0 -0.143781)
(0.707408 0 -0.129051)
(0.629571 0 -0.114463)
(0.553958 -1.61011e-19 -0.10027)
(0.479105 1.56915e-19 -0.0862508)
(0.406857 0 -0.0726877)
(0.335454 5.93901e-19 -0.0593305)
(0.267158 2.8831e-19 -0.0465091)
(0.199692 -5.59175e-19 -0.0339093)
(0.136023 -2.7076e-19 -0.0219558)
(0.0728802 -5.23943e-19 -0.0101847)
(0.0145729 0 0.000767384)
(-0.044056 0 0.0116839)
(-0.096648 2.35492e-19 0.0215301)
(-0.149556 4.53593e-19 0.031505)
(-0.200796 -4.36008e-19 0.0407479)
(-0.234736 0 0.0478131)
(-0.312859 0 0.061688)
(-0.294977 3.8691e-19 0.0577129)
(-0.390103 3.6795e-19 0.0799251)
(-0.46136 0 0.0837146)
(-0.257647 -3.42229e-19 0.0563584)
(-0.767615 3.13844e-19 0.153101)
(-0.357514 0 0.0509253)
(-0.342136 0 0.0941707)
(-1.32988 0 0.246695)
(0.116192 0 -0.0453649)
(-0.828011 0 0.217896)
(-1.76771 -4.7459e-19 0.299044)
(0.640679 0 -0.1351)
(-1.72501 0 0.418862)
(-2.15631 0 0.332003)
(1.25212 9.30447e-19 -0.266357)
(-1.73535 6.7345e-19 0.47575)
(-3.84023 0 0.718329)
(-0.563575 -8.08519e-19 -0.0112462)
(0.377477 0 -0.0500065)
(-1.79141 -6.47281e-19 0.422919)
(-2.59564 0 0.495911)
(-1.29264 -6.71767e-19 0.158758)
(1.09894 0 -0.26843)
(32.5627 -4.99424e-21 1.47747)
(33.1464 -6.19686e-21 1.61804)
(33.6733 7.35636e-21 1.4279)
(33.8995 8.28908e-21 0.967758)
(33.7082 0 0.376624)
(33.1111 -9.93428e-21 -0.23856)
(32.1817 0 -0.81201)
(31.0107 1.74663e-20 -1.30673)
(29.6868 1.67048e-20 -1.70732)
(28.2861 3.22276e-20 -2.01421)
(26.868 -1.48341e-20 -2.23708)
(25.4746 1.38476e-20 -2.38941)
(24.1329 0 -2.48511)
(22.8587 0 -2.53678)
(21.6591 1.11839e-20 -2.55505)
(20.5359 -1.14584e-22 -2.54842)
(19.4875 1.76155e-22 -2.52354)
(18.5105 1.36014e-22 -2.48548)
(17.6003 0 -2.43807)
(16.7521 0 -2.38419)
(15.9609 0 -2.32598)
(15.2222 2.43696e-20 -2.26506)
(14.5314 1.10947e-20 -2.20263)
(13.8845 0 -2.13957)
(13.2778 0 -2.07654)
(12.7078 1.66468e-20 -2.01403)
(12.1716 0 -1.95239)
(11.6663 0 -1.89187)
(11.1894 0 -1.83264)
(10.7386 0 -1.77484)
(10.312 -6.56596e-24 -1.71853)
(9.90752 0 -1.66375)
(9.52363 -1.75936e-24 -1.61053)
(9.15875 1.33525e-20 -1.55885)
(8.81151 2.36123e-24 -1.50871)
(8.48063 0 -1.46008)
(8.16496 0 -1.41292)
(7.86346 0 -1.36719)
(7.57514 0 -1.32286)
(7.29913 0 -1.27986)
(7.03462 0 -1.23816)
(6.78085 0 -1.19771)
(6.53713 -3.36232e-21 -1.15845)
(6.30282 -1.68645e-21 -1.12035)
(6.07733 0 -1.08334)
(5.8601 1.25149e-21 -1.04738)
(5.65064 0 -1.01244)
(5.44845 0 -0.978445)
(5.25311 -9.52654e-21 -0.945376)
(5.06417 0 -0.913176)
(4.88129 1.31873e-20 -0.881814)
(4.70406 0 -0.851238)
(4.53218 3.22484e-20 -0.821422)
(4.36527 2.43331e-23 -0.792312)
(4.20311 0 -0.763891)
(4.04532 0 -0.736101)
(3.89173 0 -0.708935)
(3.74198 4.20575e-20 -0.682329)
(3.59595 -4.33194e-20 -0.656288)
(3.45327 -4.43667e-20 -0.63074)
(3.3139 -4.52506e-20 -0.605702)
(3.17743 9.1959e-20 -0.581095)
(3.04391 4.65206e-20 -0.556951)
(2.91288 0 -0.533178)
(2.78451 0 -0.509827)
(2.65824 -2.41657e-23 -0.486793)
(2.53438 0 -0.464147)
(2.41229 0 -0.441767)
(2.2924 -9.42704e-20 -0.41975)
(2.17398 0 -0.397952)
(2.05762 0 -0.376501)
(1.94247 1.8438e-19 -0.355231)
(1.8293 -9.11719e-20 -0.3343)
(1.71712 0 -0.313521)
(1.60691 0 -0.293085)
(1.49755 0 -0.272784)
(1.39022 1.7195e-19 -0.252843)
(1.28365 0 -0.233033)
(1.17928 3.31063e-19 -0.213615)
(1.07566 -1.6209e-19 -0.19434)
(0.974503 0 -0.175503)
(0.874145 0 -0.156837)
(0.776629 1.5109e-19 -0.138669)
(0.680012 -2.68011e-23 -0.120712)
(0.586725 1.43237e-19 -0.10333)
(0.494432 -2.78515e-19 -0.086201)
(0.406116 2.70313e-19 -0.0697451)
(0.318769 2.62159e-19 -0.0535666)
(0.236283 2.53863e-19 -0.0381971)
(0.154395 3.1985e-23 -0.0230641)
(0.0786844 0 -0.00895366)
(0.00253473 -2.28922e-19 0.00510272)
(-0.0658764 0 0.0178019)
(-0.134887 0 0.0307262)
(-0.200845 4.08457e-19 0.0424282)
(-0.247541 0 0.0522234)
(-0.343795 0 0.0688263)
(-0.328355 0 0.0652405)
(-0.448494 -3.44516e-19 0.0939419)
(-0.526374 0 0.0941128)
(-0.309116 -3.20369e-19 0.0705702)
(-0.900371 0 0.180809)
(-0.406027 0 0.0526214)
(-0.447856 0 0.12931)
(-1.53968 0 0.280807)
(0.125096 0 -0.0560465)
(-1.05326 -4.47191e-19 0.289711)
(-2.00171 -4.43321e-19 0.322329)
(0.68072 4.82251e-19 -0.14478)
(-2.12181 0 0.535314)
(-2.37905 0 0.332167)
(1.3533 -1.74013e-18 -0.291528)
(-2.22603 0 0.638506)
(-4.32657 6.44149e-19 0.794716)
(-0.553284 0 -0.0692944)
(0.343488 6.9439e-19 -0.0271413)
(-2.16257 6.04872e-19 0.530828)
(-2.88365 0 0.544074)
(-1.29588 -6.27063e-19 0.112559)
(1.47564 0 -0.369794)
(32.6181 4.70321e-21 1.02518)
(33.0295 1.14273e-20 1.11306)
(33.4758 -6.92929e-21 1.03084)
(33.8413 -7.79843e-22 0.768221)
(34.0152 7.50923e-21 0.378637)
(33.9416 0 -0.0759877)
(33.6126 0 -0.546552)
(33.0484 -1.6447e-20 -0.997332)
(32.2842 -3.05578e-20 -1.40472)
(31.3626 -7.07985e-22 -1.75568)
(30.3269 1.39671e-20 -2.04573)
(29.2177 -1.30381e-20 -2.27619)
(28.07 1.17959e-20 -2.4519)
(26.9118 0 -2.57944)
(25.7646 0 -2.66597)
(24.6441 -9.5877e-21 -2.71849)
(23.5605 3.50985e-20 -2.74337)
(22.5204 3.2316e-20 -2.74618)
(21.5273 0 -2.73161)
(20.5824 0 -2.70356)
(19.6857 0 -2.66518)
(18.8359 -6.74207e-23 -2.61901)
(18.0314 -2.08412e-20 -2.56707)
(17.2699 9.47207e-21 -2.51096)
(16.5492 1.72253e-20 -2.45197)
(15.8669 -3.12993e-20 -2.39109)
(15.2206 1.4135e-20 -2.3291)
(14.6081 1.27495e-20 -2.26663)
(14.0271 1.14617e-20 -2.20414)
(13.4755 0 -2.142)
(12.9514 -9.16652e-21 -2.08051)
(12.453 8.12376e-21 -2.01988)
(11.9786 -7.1734e-21 -1.96026)
(11.5266 -1.25641e-20 -1.90178)
(11.0955 -2.18494e-20 -1.84452)
(10.6839 0 -1.78853)
(10.2907 0 -1.73385)
(9.91455 -6.70341e-21 -1.6805)
(9.55446 0 -1.62847)
(9.20939 4.40179e-21 -1.57777)
(8.87842 3.38479e-21 -1.52836)
(8.56067 0 -1.48024)
(8.25533 6.34366e-21 -1.43337)
(7.96164 1.58705e-21 -1.38772)
(7.67891 0 -1.34326)
(7.40647 -1.1776e-21 -1.29994)
(7.14372 -2.36702e-21 -1.25773)
(6.89007 0 -1.21659)
(6.645 8.93378e-21 -1.17648)
(6.40797 -5.36163e-21 -1.13735)
(6.17856 -1.23518e-20 -1.09918)
(5.95626 0 -1.06191)
(5.74071 -2.45783e-23 -1.02552)
(5.53145 3.26213e-20 -0.989949)
(5.32818 0 -0.955182)
(5.13045 0 -0.921152)
(4.93804 -1.90503e-20 -0.887857)
(4.7505 -1.97617e-20 -0.855223)
(4.5677 4.06892e-20 -0.823258)
(4.38914 4.17058e-20 -0.79188)
(4.2148 4.25329e-20 -0.76111)
(4.04415 -4.31997e-20 -0.730854)
(3.87726 -8.74088e-20 -0.701155)
(3.71354 0 -0.671899)
(3.5532 0 -0.643154)
(3.39556 -8.89527e-20 -0.614788)
(3.24096 0 -0.586892)
(3.08864 0 -0.559315)
(2.9391 8.85403e-20 -0.532178)
(2.79144 0 -0.505306)
(2.64639 -8.73255e-20 -0.478854)
(2.50288 -3.22942e-23 -0.452619)
(2.36185 8.5593e-20 -0.426796)
(2.22208 0 -0.401154)
(2.08478 0 -0.375928)
(1.94852 0 -0.350862)
(1.8148 1.61266e-19 -0.326232)
(1.682 0 -0.301756)
(1.55193 -1.55276e-19 -0.277755)
(1.42274 3.04059e-19 -0.253922)
(1.29659 0 -0.230618)
(1.17136 0 -0.207515)
(1.04964 0 -0.185016)
(0.928938 -2.65511e-23 -0.162765)
(0.812345 -1.34281e-19 -0.141211)
(0.696875 -2.60981e-19 -0.119959)
(0.586316 -2.53348e-19 -0.0995215)
(0.476846 2.45602e-19 -0.0794207)
(0.373384 0 -0.0602967)
(0.270572 2.30047e-19 -0.0414711)
(0.175387 0 -0.0238737)
(0.0796263 2.14423e-19 -0.00636449)
(-0.00654602 0 0.00949164)
(-0.0936693 0 0.0256859)
(-0.175986 0 0.0400522)
(-0.237705 -3.6773e-19 0.0530518)
(-0.352696 -3.51734e-19 0.0722646)
(-0.342791 0 0.0697125)
(-0.488654 3.22381e-19 0.105232)
(-0.571806 -3.09202e-19 0.100592)
(-0.351463 2.99762e-19 0.0843513)
(-1.01041 -2.74697e-19 0.204358)
(-0.442658 0 0.0511621)
(-0.552172 0 0.167442)
(-1.71058 0 0.305401)
(0.12316 0 -0.0650467)
(-1.27277 4.18162e-19 0.365574)
(-2.1782 3.03226e-22 0.329517)
(0.680917 -9.0189e-19 -0.144881)
(-2.49223 0 0.652563)
(-2.52188 0 0.307708)
(1.3813 8.13384e-19 -0.29951)
(-2.70562 0 0.810401)
(-4.65703 -6.0196e-19 0.831988)
(-0.526131 0 -0.13929)
(0.282135 -1.29787e-18 0.00683071)
(-2.48042 0 0.633317)
(-3.03175 0 0.557948)
(-1.18842 5.85777e-19 0.0343419)
(1.8997 0 -0.486241)
(32.6435 0 0.671832)
(32.9451 -5.25945e-21 0.715834)
(33.2822 0 0.666995)
(33.6129 -6.61211e-21 0.504556)
(33.8741 -1.34821e-20 0.243347)
(34.015 0 -0.0849121)
(34.0071 6.72765e-21 -0.448811)
(33.839 0 -0.822258)
(33.5114 8.99381e-22 -1.18506)
(33.0338 -2.59182e-20 -1.52275)
(32.4221 0 -1.82602)
(31.6967 0 -2.08996)
(30.8797 -1.10946e-20 -2.31299)
(29.9934 0 -2.49584)
(29.0589 0 -2.64079)
(28.0949 0 -2.7511)
(27.1178 -1.63964e-20 -2.83056)
(26.1407 -1.51122e-20 -2.88311)
(25.1743 -1.37196e-20 -2.91262)
(24.2266 0 -2.92272)
(23.3032 0 -2.91668)
(22.4084 -1.07058e-20 -2.89742)
(21.5445 9.77607e-21 -2.86744)
(20.7132 -8.90874e-21 -2.82887)
(19.9148 -1.62008e-20 -2.78353)
(19.1493 2.93209e-20 -2.73292)
(18.4163 -5.44674e-23 -2.67829)
(17.715 -1.19908e-20 -2.62067)
(17.0441 -1.07795e-20 -2.56091)
(16.4026 0 -2.49971)
(15.7892 0 -2.43763)
(15.2025 -7.63984e-21 -2.37513)
(14.6414 0 -2.31258)
(14.1043 1.18151e-20 -2.25028)
(13.5902 1.02719e-20 -2.18846)
(13.0977 -8.83832e-21 -2.12731)
(12.6257 0 -2.06699)
(12.1731 6.30306e-21 -2.00759)
(11.7388 5.179e-21 -1.94921)
(11.3218 3.50013e-24 -1.8919)
(10.9212 -6.36917e-21 -1.83571)
(10.5359 0 -1.78067)
(10.1652 -2.9889e-21 -1.72678)
(9.80818 0 -1.67405)
(9.46418 0 -1.62248)
(9.13241 0 -1.57205)
(8.81222 1.35244e-23 -1.52275)
(8.50293 0 -1.47454)
(8.20397 -4.19134e-21 -1.42742)
(7.9147 1.00645e-20 -1.38133)
(7.63465 1.16071e-20 -1.33627)
(7.36322 0 -1.29218)
(7.1 -1.42151e-20 -1.24905)
(6.84443 -3.06046e-20 -1.20682)
(6.59618 0 -1.16548)
(6.3547 0 -1.12496)
(6.11975 1.78949e-20 -1.08527)
(5.89077 1.85253e-20 -1.04632)
(5.66761 -1.90995e-20 -1.00813)
(5.44968 -3.91022e-20 -0.970608)
(5.23693 0 -0.933783)
(5.02874 0 -0.897544)
(4.82519 2.82184e-23 -0.861948)
(4.62557 -4.13507e-20 -0.826863)
(4.43011 0 -0.79237)
(4.23799 4.17381e-20 -0.758314)
(4.04964 0 -0.724808)
(3.86411 0 -0.69167)
(3.68201 0 -0.659048)
(3.50224 0 -0.626731)
(3.32567 3.42091e-23 -0.594908)
(3.15101 -3.19958e-23 -0.563335)
(2.97939 -8.02347e-20 -0.532247)
(2.80931 0 -0.501365)
(2.64224 -7.81052e-20 -0.470974)
(2.47642 0 -0.440762)
(2.31369 -1.5122e-19 -0.411065)
(2.15203 1.48411e-19 -0.381541)
(1.99367 -1.45497e-19 -0.352576)
(1.8363 -1.42497e-19 -0.3238)
(1.68261 0 -0.295648)
(1.52994 1.36045e-19 -0.267722)
(1.38147 0 -0.240507)
(1.23412 -1.29293e-19 -0.213578)
(1.09171 -1.25762e-19 -0.187468)
(0.95053 2.44488e-19 -0.161711)
(0.815257 0 -0.136913)
(0.681163 -4.60024e-19 -0.112515)
(0.55431 0 -0.0892637)
(0.428134 2.15354e-19 -0.0663815)
(0.311144 0 -0.0449355)
(0.193423 2.00691e-19 -0.0236257)
(0.0872922 0 -0.00427673)
(-0.0202042 3.72347e-19 0.0155411)
(-0.120771 -3.5782e-19 0.0328162)
(-0.199995 3.44121e-19 0.0495079)
(-0.334566 3.29119e-19 0.0712537)
(-0.333598 0 0.0704472)
(-0.505686 -6.03158e-19 0.112984)
(-0.59379 5.78428e-19 0.102642)
(-0.379876 0 0.0969203)
(-1.09304 2.56908e-19 0.222877)
(-0.465756 0 0.0465146)
(-0.647836 0 0.20715)
(-1.83993 -4.35267e-19 0.320192)
(0.11157 0 -0.0721107)
(-1.47596 0 0.443057)
(-2.30025 3.87171e-19 0.321547)
(0.646707 8.4331e-19 -0.135559)
(-2.82267 3.15588e-19 0.767035)
(-2.59742 0 0.261748)
(1.34393 0 -0.290618)
(-3.15117 0 0.985175)
(-4.83144 0 0.831616)
(-0.4946 6.58436e-19 -0.217297)
(0.20796 6.06336e-19 0.0489504)
(-2.72337 0 0.72467)
(-3.02797 0 0.538162)
(-0.970894 0 -0.0754353)
(2.37047 0 -0.617451)
(32.6432 4.21515e-21 0.383388)
(32.8754 0 0.399967)
(33.1313 4.93199e-21 0.359929)
(33.3963 0 0.24723)
(33.6394 6.03144e-21 0.0624106)
(33.8294 0 -0.179842)
(33.9432 -6.32314e-21 -0.460397)
(33.9658 1.16009e-20 -0.761322)
(33.8881 2.36837e-20 -1.06746)
(33.7054 7.2734e-22 -1.36682)
(33.4174 0 -1.6504)
(33.0273 0 -1.91199)
(32.5417 0 -2.14772)
(31.97 0 -2.35553)
(31.323 0 -2.53466)
(30.6127 0 -2.68538)
(29.8516 1.47779e-20 -2.80871)
(29.0518 -1.36995e-20 -2.90624)
(28.225 1.2891e-20 -2.97995)
(27.3816 0 -3.03203)
(26.5307 0 -3.06483)
(25.6801 9.85874e-21 -3.08066)
(24.8363 9.02614e-21 -3.08176)
(24.0045 8.24391e-21 -3.07023)
(23.1887 0 -3.04801)
(22.3919 -1.37417e-20 -3.01682)
(21.6162 -2.48043e-20 -2.97821)
(20.8631 1.11673e-20 -2.93351)
(20.1337 0 -2.8839)
(19.4282 0 -2.83037)
(18.7469 0 -2.7738)
(18.0896 7.14261e-21 -2.7149)
(17.4558 0 -2.6543)
(16.8451 0 -2.59251)
(16.2568 9.62331e-21 -2.52997)
(15.6903 8.30278e-21 -2.46704)
(15.1446 0 -2.40403)
(14.6191 5.91642e-21 -2.34117)
(14.1129 -9.7277e-21 -2.27868)
(13.6251 -3.89068e-21 -2.21671)
(13.155 2.99334e-21 -2.15541)
(12.7018 0 -2.09487)
(12.2646 0 -2.03519)
(11.8427 0 -1.97641)
(11.4354 1.62575e-22 -1.91859)
(11.042 0 -1.86175)
(10.6617 2.0765e-21 -1.80593)
(10.2938 3.0324e-21 -1.75111)
(9.9379 0 -1.69732)
(9.59317 -4.71877e-21 -1.64454)
(9.25915 0 -1.59276)
(8.93518 0 -1.54196)
(8.62083 -1.33006e-20 -1.49213)
(8.31547 2.13821e-23 -1.44323)
(8.01874 1.52476e-20 -1.39526)
(7.73001 0 -1.34815)
(7.44903 0 -1.30192)
(7.17512 -1.73858e-20 -1.25648)
(6.90816 0 -1.21186)
(6.64743 3.66924e-20 -1.16797)
(6.39291 0 -1.12484)
(6.14385 0 -1.08235)
(5.90035 7.68903e-20 -1.04057)
(5.66156 7.75566e-20 -0.999358)
(5.42779 3.8987e-20 -0.958808)
(5.19804 0 -0.918739)
(4.97283 0 -0.879292)
(4.751 3.90548e-20 -0.84025)
(4.53332 7.78068e-20 -0.801797)
(4.31843 0 -0.763679)
(4.1074 7.67885e-20 -0.726126)
(3.89864 -7.60605e-20 -0.688845)
(3.69354 7.52147e-20 -0.652121)
(3.49027 -7.42322e-20 -0.61562)
(3.29058 7.32057e-20 -0.579684)
(3.09236 0 -0.54394)
(2.89781 0 -0.508788)