/*--------------------------------*- C++ -*----------------------------------*\
| =========                 |                                                 |
| \\      /  F ield         | OpenFOAM: The Open Source CFD Toolbox           |
|  \\    /   O peration     | Version:  2412                                  |
|   \\  /    A nd           | Website:  www.openfoam.com                      |
|    \\/     M anipulation  |                                                 |
\*---------------------------------------------------------------------------*/
FoamFile
{
    version     2.0;
    format      ascii;
    arch        "LSB;label=32;scalar=64";
    class       volScalarField;
    location    "1.13";
    object      Co;
}
// * * * * * * * * * * * * * * * * * * * * * * * * * * * * * * * * * * * * * //

dimensions      [0 0 0 0 0 0 0];

internalField   nonuniform List<scalar> 
12600
(
0.314603
0.176572
0.100005
0.0629306
0.0449657
0.0350494
0.0286525
0.0240727
0.0205994
0.017864
0.0156497
0.0138199
0.0122831
0.0109754
0.00985091
0.00887514
0.00802206
0.00727142
0.00660723
0.0060167
0.00548941
0.00501684
0.00459189
0.00420864
0.00386206
0.00354791
0.00326253
0.00300277
0.00276591
0.00254958
0.0023517
0.00217046
0.00200423
0.0018516
0.0017113
0.00158221
0.00146332
0.00135372
0.00125262
0.00115928
0.00107304
0.00099331
0.000919557
0.000851289
0.000788066
0.000729483
0.000675175
0.000624806
0.000578071
0.00053469
0.00049441
0.000456992
0.000422225
0.000389908
0.000359863
0.000331921
0.000305931
0.000281748
0.000259245
0.0002383
0.000218803
0.000200653
0.000183754
0.000168021
0.000153369
0.000139732
0.000127031
0.000115214
0.000104209
9.39806e-05
8.44543e-05
7.56151e-05
6.73833e-05
5.97659e-05
5.26723e-05
4.61361e-05
4.0048e-05
3.44756e-05
2.92803e-05
2.45734e-05
2.01763e-05
1.62495e-05
1.25785e-05
9.34026e-06
6.36838e-06
3.68075e-06
2.47411e-06
2.24393e-06
4.51949e-06
6.07746e-06
5.74909e-06
9.91075e-06
9.36822e-06
1.28591e-05
1.2146e-05
1.03914e-05
1.58961e-05
1.49963e-05
2.09804e-05
1.97763e-05
1.99379e-05
1.8779e-05
1.25601e-05
2.3108e-05
2.17381e-05
2.30292e-05
2.16468e-05
2.09661e-05
2.06785e-05
1.94131e-05
2.00883e-05
1.88442e-05
1.18392e-05
9.28108e-06
1.92922e-05
1.80699e-05
6.22288e-06
1.37541e-05
1.28682e-05
8.91594e-06
0.477629
0.376305
0.276256
0.202411
0.1531
0.12052
0.0982119
0.0821182
0.0699532
0.0604216
0.0527473
0.0464364
0.0411596
0.0366876
0.0328557
0.0295417
0.0266532
0.0241186
0.0218817
0.0198975
0.0181298
0.0165488
0.0151298
0.0138524
0.0126991
0.0116554
0.0107088
0.00984828
0.00906472
0.00834998
0.00769698
0.00709955
0.00655222
0.00605017
0.00558915
0.00516535
0.00477539
0.00441624
0.00408518
0.00377977
0.00349782
0.00323734
0.00299655
0.00277382
0.00256767
0.00237677
0.0021999
0.00203596
0.00188392
0.00174287
0.00161195
0.0014904
0.00137751
0.00127262
0.00117514
0.00108451
0.00100024
0.000921862
0.000848946
0.000781096
0.000717953
0.00065918
0.000604468
0.000553538
0.000506114
0.000461974
0.000420863
0.000382616
0.000346987
0.00031387
0.000283014
0.000254378
0.00022769
0.000202987
0.000179958
0.000158728
0.00013892
0.000120783
0.000103823
8.84626e-05
7.40337e-05
6.11803e-05
4.90453e-05
3.83846e-05
2.85183e-05
1.94557e-05
1.24053e-05
5.02654e-06
1.22271e-05
1.51527e-05
1.48778e-05
2.98644e-05
2.69346e-05
4.28158e-05
3.95138e-05
3.69407e-05
4.66497e-05
4.93518e-05
7.36887e-05
6.63872e-05
7.25909e-05
6.12518e-05
3.82592e-05
7.4009e-05
7.54264e-05
8.21498e-05
7.39429e-05
7.67332e-05
5.92502e-05
6.66883e-05
7.21263e-05
6.05438e-05
3.84668e-05
3.26725e-05
6.34312e-05
6.08126e-05
1.85727e-05
4.85022e-05
4.06243e-05
2.84705e-05
0.512133
0.468325
0.397065
0.325286
0.264412
0.216388
0.179533
0.151232
0.129165
0.111615
0.0973846
0.0856469
0.0758223
0.067497
0.0603681
0.0542093
0.048848
0.04415
0.0400097
0.0363425
0.03308
0.0301661
0.0275543
0.0252062
0.023089
0.0211752
0.0194413
0.0178671
0.0164352
0.0151303
0.0139394
0.0128508
0.0118544
0.0109412
0.0101034
0.00933383
0.00862625
0.00797505
0.00737522
0.00682225
0.00631209
0.00584108
0.00540593
0.00500365
0.00463154
0.00428714
0.00396822
0.00367274
0.00339886
0.00314488
0.00290927
0.00269059
0.00248758
0.00229902
0.00212386
0.00196106
0.00180974
0.00166902
0.00153816
0.00141642
0.00130315
0.00119774
0.00109963
0.00100832
0.000923297
0.000844171
0.000770476
0.000701914
0.000638039
0.00057866
0.000523321
0.000471948
0.000424052
0.000379693
0.000338312
0.000300134
0.000264475
0.000231792
0.000201165
0.000173426
0.000147227
0.000123977
0.000101754
8.24045e-05
6.42544e-05
4.73619e-05
3.51083e-05
1.6303e-05
2.49085e-05
2.14412e-05
2.27461e-05
5.22289e-05
4.40082e-05
8.1644e-05
7.48279e-05
7.50225e-05
7.69097e-05
9.36313e-05
0.000148521
0.000129242
0.00014932
0.00011598
7.04868e-05
0.000133979
0.000151
0.000167824
0.000146553
0.000159227
9.97866e-05
0.00012922
0.000145603
0.000113068
7.07987e-05
6.47739e-05
0.000117999
0.000118796
3.02889e-05
9.57327e-05
7.50503e-05
5.32785e-05
0.504089
0.490819
0.452916
0.402543
0.350172
0.301509
0.259013
0.223121
0.193237
0.16842
0.147725
0.130341
0.115617
0.10304
0.0922125
0.0828244
0.074632
0.0674418
0.0610988
0.0554776
0.0504754
0.0460078
0.0420042
0.0384058
0.0351626
0.0322325
0.0295792
0.0271716
0.0249828
0.0229894
0.0211713
0.0195103
0.017991
0.0165995
0.0153235
0.0141522
0.0130758
0.0120858
0.0111744
0.0103346
0.00956027
0.00884573
0.00818592
0.00757626
0.00701258
0.00649112
0.00600846
0.00556147
0.00514733
0.00476343
0.00440743
0.00407716
0.00377064
0.00348605
0.00322176
0.00297621
0.00274803
0.0025359
0.00233868
0.00215524
0.00198461
0.00182585
0.00167811
0.00154062
0.00141262
0.0012935
0.00118256
0.00107934
0.000983179
0.000893765
0.000810429
0.000733032
0.000660862
0.00059397
0.000531555
0.000473899
0.000420029
0.000370574
0.000324183
0.000282118
0.000242243
0.000206931
0.000172842
0.000143387
0.000115382
8.91534e-05
7.10052e-05
3.95729e-05
4.50873e-05
2.36795e-05
2.94682e-05
7.52452e-05
5.85841e-05
0.000127133
0.000115714
0.000124137
0.000103444
0.00014362
0.000240568
0.000205272
0.000247686
0.000181697
0.000114155
0.000197408
0.000243729
0.000275118
0.000236919
0.000266922
0.000145727
0.000201211
0.000235798
0.000176822
0.00010542
0.000104857
0.000178287
0.000189309
4.57211e-05
0.000151638
0.000116485
8.22391e-05
0.487911
0.483105
0.464907
0.435022
0.3984
0.359343
0.320944
0.285104
0.252742
0.224102
0.19904
0.17722
0.158241
0.14171
0.127271
0.114615
0.103479
0.0936439
0.0849257
0.0771707
0.0702499
0.0640548
0.0584939
0.0534891
0.0489742
0.044892
0.0411936
0.0378366
0.034784
0.0320039
0.0294679
0.0271515
0.0250329
0.0230928
0.0213142
0.0196818
0.0181823
0.0168034
0.0155344
0.0143655
0.0132881
0.0122941
0.0113767
0.0105292
0.00974595
0.00902159
0.00835134
0.00773084
0.00715612
0.00662354
0.00612982
0.0056719
0.00524705
0.00485271
0.00448659
0.00414651
0.00383057
0.00353694
0.00326398
0.00301016
0.0027741
0.0025545
0.00235016
0.00216003
0.00198303
0.00181832
0.00166493
0.00152221
0.00138924
0.00126557
0.00115031
0.00104321
0.000943334
0.00085069
0.000764236
0.000684276
0.000609551
0.000540835
0.000476333
0.000417759
0.000362088
0.000312832
0.000264912
0.000223747
0.000184117
0.000146958
0.00012188
7.52927e-05
7.888e-05
2.77539e-05
3.45978e-05
9.71947e-05
6.86184e-05
0.000177096
0.000159408
0.000183113
0.000123917
0.000195522
0.000345041
0.000291491
0.00036503
0.000256357
0.000169377
0.000259654
0.000349203
0.000399003
0.000342541
0.000397917
0.000196898
0.000277201
0.000337755
0.000251715
0.000138997
0.000151475
0.000240182
0.000269592
6.79455e-05
0.000212347
0.000164781
0.000114345
0.473722
0.468044
0.457111
0.439211
0.41546
0.387735
0.357925
0.327666
0.298184
0.270289
0.24444
0.220835
0.199488
0.180302
0.163118
0.147752
0.134016
0.121729
0.110725
0.100856
0.0919891
0.0840085
0.0768127
0.0703127
0.0644311
0.0591001
0.0542603
0.0498598
0.0458529
0.0421993
0.0388637
0.0358145
0.0330241
0.0304676
0.028123
0.0259707
0.0239931
0.0221744
0.0205005
0.0189587
0.0175375
0.0162266
0.0150166
0.013899
0.0128662
0.0119113
0.0110278
0.01021
0.0094527
0.00875106
0.00810072
0.00749767
0.00693827
0.00641913
0.00593722
0.00548969
0.00507399
0.00468769
0.00432866
0.00399484
0.00368442
0.00339568
0.00312704
0.00287707
0.00264441
0.00242789
0.00222625
0.00203862
0.00186381
0.0017012
0.00154962
0.00140872
0.00127731
0.00115533
0.00104147
0.000936058
0.000837523
0.000746767
0.000661534
0.000584009
0.000510182
0.000444861
0.000380936
0.000326245
0.00027301
0.000223213
0.000189812
0.000125702
0.000132911
5.50292e-05
5.16665e-05
0.00011617
7.18434e-05
0.000229251
0.000202976
0.000250325
0.000136507
0.000245675
0.000457078
0.000384748
0.000498227
0.000337471
0.000236883
0.000316797
0.000463048
0.000534165
0.000460792
0.000549607
0.000253276
0.000351952
0.000446277
0.00033694
0.000168606
0.000202655
0.000300107
0.000356801
9.59423e-05
0.000273998
0.000219324
0.000148637
0.462434
0.454107
0.444265
0.431198
0.41463
0.395002
0.373048
0.349611
0.32551
0.301446
0.277971
0.255491
0.234273
0.21447
0.196146
0.179299
0.16388
0.149812
0.137004
0.125356
0.114769
0.105147
0.0963999
0.0884437
0.0812022
0.0746059
0.0685921
0.0631045
0.0580924
0.0535103
0.0493176
0.0454776
0.0419577
0.0387283
0.0357632
0.0330384
0.0305326
0.0282265
0.0261028
0.0241456
0.0223407
0.0206753
0.0191377
0.0177172
0.0164043
0.0151901
0.0140667
0.0130268
0.0120637
0.0111714
0.0103444
0.0095775
0.00886615
0.00820603
0.00759329
0.00702429
0.00649578
0.0060047
0.0055483
0.00512398
0.00472942
0.00436243
0.004021
0.00370331
0.0034076
0.00313241
0.00287613
0.00263762
0.00241539
0.00220862
0.00201586
0.00183661
0.0016694
0.00151409
0.0013691
0.00123472
0.00110908
0.000993184
0.000884296
0.000785089
0.00069048
0.00060671
0.00052437
0.000454103
0.000385046
0.000320758
0.000277266
0.000193417
0.000203455
9.90875e-05
8.75468e-05
0.000140562
6.5661e-05
0.000281191
0.000243378
0.000323755
0.000139834
0.000290496
0.000571814
0.000481734
0.000643642
0.000422225
0.000316653
0.000365701
0.000580841
0.00067511
0.000589002
0.000718556
0.000314066
0.000420486
0.00055616
0.000430986
0.000192008
0.000256036
0.000355096
0.00044811
0.00012926
0.000332894
0.000279049
0.000184271
0.453106
0.442714
0.432119
0.420268
0.406696
0.39136
0.374439
0.356241
0.337138
0.317515
0.297733
0.278114
0.258929
0.240397
0.22268
0.205891
0.190098
0.175331
0.161591
0.148855
0.137086
0.126234
0.116246
0.107062
0.0986242
0.090876
0.0837624
0.0772315
0.0712349
0.0657274
0.0606676
0.0560173
0.0517414
0.047808
0.0441879
0.0408545
0.0377834
0.0349527
0.0323421
0.0299334
0.0277099
0.0256562
0.0237586
0.0220043
0.0203819
0.0188806
0.017491
0.0162042
0.015012
0.0139072
0.0128828
0.0119328
0.0110514
0.0102334
0.00947398
0.00876869
0.00811354
0.00750473
0.00693888
0.00641278
0.00592353
0.00546844
0.00504502
0.00465102
0.00428425
0.00394288
0.00362495
0.00332901
0.00305324
0.00279659
0.00255728
0.00233466
0.00212695
0.0019339
0.00175363
0.00158639
0.00142999
0.00128553
0.00114973
0.0010258
0.000907492
0.000802602
0.00069918
0.000611024
0.000523673
0.000442865
0.000387125
0.00028145
0.000292923
0.000159655
0.000147434
0.000175884
4.67358e-05
0.000330345
0.000277516
0.00040104
0.000132877
0.000326408
0.000684507
0.000579002
0.000797112
0.000507603
0.000407826
0.000404103
0.000698023
0.00081638
0.000724517
0.000900394
0.000377773
0.000478172
0.000662517
0.000531664
0.000207893
0.000309043
0.000402826
0.000540818
0.000166522
0.000385666
0.000342468
0.000222491
0.445049
0.433334
0.421828
0.409948
0.397332
0.383844
0.369498
0.354389
0.338662
0.322482
0.30602
0.289445
0.272922
0.256602
0.240621
0.225097
0.210128
0.195792
0.182144
0.169222
0.157045
0.145614
0.134922
0.124948
0.115666
0.107045
0.0990483
0.0916407
0.0847846
0.0784433
0.0725809
0.067163
0.0621569
0.0575317
0.0532584
0.04931
0.0456613
0.042289
0.0391715
0.0362888
0.0336226
0.0311559
0.0288732
0.0267601
0.0248034
0.022991
0.0213117
0.0197552
0.0183122
0.016974
0.0157325
0.0145805
0.0135112
0.0125183
0.0115962
0.0107396
0.00994357
0.00920366
0.00851579
0.00787608
0.00728106
0.00672746
0.00621229
0.00573281
0.00528639
0.0048708
0.00448367
0.00412323
0.00378727
0.00347452
0.00318282
0.00291136
0.00265799
0.00242237
0.00220228
0.00199791
0.0018067
0.00162988
0.00146358
0.00131157
0.00116633
0.00103734
0.000909887
0.00080125
0.000692855
0.000593297
0.000522757
0.000393246
0.000404058
0.000239637
0.000225095
0.000244509
6.56449e-05
0.000397482
0.000302322
0.000479583
0.000118456
0.000349789
0.000790663
0.000672952
0.000953972
0.000590516
0.00050861
0.000430608
0.000809818
0.000952811
0.000864705
0.00108978
0.000442375
0.000520865
0.000761146
0.000636126
0.000216065
0.000359086
0.000441578
0.000632425
0.00020547
0.000429402
0.000407715
0.000273021
0.437927
0.425361
0.413155
0.400974
0.388566
0.375793
0.362621
0.349084
0.335247
0.321189
0.30699
0.292725
0.278471
0.2643
0.25028
0.23648
0.222966
0.209799
0.197035
0.184724
0.172906
0.161611
0.150863
0.140672
0.131045
0.121976
0.113456
0.105471
0.0980009
0.0910253
0.0845204
0.0784615
0.0728235
0.0675814
0.0627104
0.0581866
0.0539869
0.0500891
0.0464723
0.0431167
0.0400037
0.0371158
0.0344367
0.0319511
0.0296449
0.0275049
0.0255189
0.0236754
0.021964
0.020375
0.0188993
0.0175285
0.0162551
0.0150717
0.0139719
0.0129494
0.0119988
0.0111146
0.0102922
0.00952705
0.00881502
0.00815229
0.00753532
0.00696089
0.00642587
0.00592762
0.00546333
0.0050309
0.00462771
0.00425221
0.00390187
0.00357567
0.0032711
0.00298768
0.00272282
0.00247669
0.00224628
0.00203296
0.00183222
0.00164843
0.0014727
0.00131634
0.0011616
0.00102959
0.000897114
0.000776346
0.000688055
0.000532728
0.000540059
0.000342493
0.00032375
0.000336963
0.000101187
0.000471425
0.0003368
0.000577395
0.000110115
0.000356886
0.000886123
0.000759787
0.00110913
0.000667959
0.000616249
0.000444581
0.00091117
0.00107979
0.00100684
0.00128043
0.00050561
0.000545096
0.000848827
0.000740849
0.000217483
0.000403752
0.000470121
0.000720674
0.000243093
0.000461717
0.000472604
0.000328506
0.431557
0.41842
0.405714
0.393233
0.380805
0.368305
0.355681
0.34293
0.330089
0.317205
0.304331
0.291511
0.278785
0.266185
0.25374
0.241475
0.229415
0.217586
0.206015
0.194729
0.183759
0.173132
0.162872
0.153003
0.143541
0.134502
0.125892
0.117717
0.109974
0.10266
0.0957663
0.089281
0.0831909
0.0774809
0.0721343
0.0671338
0.0624618
0.0581004
0.0540319
0.050239
0.0467047
0.0434129
0.040348
0.0374951
0.03484
0.0323696
0.0300711
0.0279328
0.0259436
0.0240931
0.0223717
0.0207701
0.0192801
0.0178937
0.0166036
0.015403
0.0142855
0.0132453
0.0122768
0.0113751
0.0105353
0.0097532
0.0090246
0.00834583
0.00771327
0.00712386
0.00657433
0.00606224
0.00558453
0.00513939
0.00472387
0.00433675
0.00397511
0.00363837
0.00332348
0.00303061
0.00275627
0.00250201
0.00226255
0.00204301
0.00183291
0.00164559
0.00146002
0.00130146
0.00114156
0.000996874
0.000887488
0.00070434
0.000704662
0.000472216
0.000446889
0.000450978
0.000146559
0.000552713
0.00037252
0.000682791
0.00010444
0.000343603
0.000967065
0.0008354
0.00125718
0.000737113
0.000727049
0.000445904
0.000996746
0.00119344
0.00114786
0.00146522
0.000565291
0.000548295
0.000923481
0.000841581
0.000214078
0.000440977
0.000487496
0.000803536
0.000275829
0.000480719
0.000534694
0.000389629
0.425811
0.412276
0.399214
0.386488
0.373979
0.361584
0.34924
0.336924
0.324645
0.31243
0.300315
0.288338
0.276529
0.264912
0.253505
0.242318
0.231357
0.220626
0.210128
0.199868
0.189852
0.180089
0.17059
0.161367
0.152433
0.143801
0.135484
0.127492
0.119832
0.112511
0.105531
0.0988933
0.0925944
0.08663
0.0809934
0.0756758
0.0706672
0.0659565
0.0615315
0.0573799
0.0534884
0.0498442
0.0464341
0.0432453
0.0402652
0.0374814
0.0348823
0.0324563
0.0301928
0.0280812
0.026112
0.0242756
0.0225635
0.0209673
0.0194793
0.0180922
0.0167992
0.0155938
0.0144702
0.0134227
0.0124461
0.0115356
0.0106865
0.00989482
0.00915637
0.00846773
0.00782518
0.00722595
0.00666655
0.00614491
0.00565763
0.00520334
0.00477864
0.00438287
0.0040125
0.00366774
0.0033445
0.00304461
0.00276191
0.00250236
0.00225374
0.00203163
0.00181138
0.00162284
0.00143187
0.00126032
0.00112612
0.000913078
0.000902197
0.000633347
0.000598458
0.000589875
0.000213317
0.000692583
0.000453308
0.000791428
8.77473e-05
0.000304877
0.00102985
0.000895193
0.00139248
0.000795413
0.000836516
0.000434613
0.00106102
0.00129061
0.00128394
0.00163641
0.000619583
0.000528974
0.000984056
0.000933287
0.000208323
0.000469149
0.00049276
0.000879126
0.000299823
0.000484865
0.000591377
0.000457179
0.420597
0.406778
0.39346
0.380543
0.367944
0.355581
0.343392
0.331343
0.319421
0.307633
0.295999
0.284545
0.273297
0.262276
0.251502
0.240986
0.230733
0.220743
0.211012
0.201535
0.192304
0.183313
0.174559
0.166039
0.157753
0.149703
0.141894
0.134331
0.127019
0.119964
0.113172
0.106648
0.100394
0.0944136
0.0887063
0.083271
0.0781049
0.0732038
0.0685622
0.0641733
0.0600295
0.0561224
0.0524429
0.0489817
0.045729
0.0426751
0.0398101
0.0371242
0.0346078
0.0322516
0.0300464
0.0279834
0.0260542
0.0242506
0.022565
0.0209899
0.0195185
0.018144
0.0168604
0.0156615
0.014542
0.0134966
0.0125205
0.011609
0.0107578
0.00996312
0.00922076
0.00852772
0.00788008
0.00727557
0.00671032
0.00618285
0.00568926
0.00522888
0.0047976
0.00439578
0.00401861
0.00366833
0.00333772
0.00303377
0.0027423
0.00248136
0.00222238
0.00200018
0.00177427
0.00157268
0.00140962
0.00116449
0.00113763
0.000830988
0.00078296
0.000757708
0.000324906
0.00085256
0.000541998
0.000905523
8.86846e-05
0.000279146
0.0010831
0.000935321
0.0015107
0.0008405
0.000939586
0.000410443
0.00109844
0.00136871
0.00141008
0.00178588
0.00066713
0.000486806
0.00103013
0.00101016
0.000202573
0.000487125
0.000484697
0.00094556
0.000311221
0.000472711
0.000659578
0.000550967
0.415838
0.401815
0.38831
0.37525
0.362569
0.350206
0.338105
0.326227
0.314549
0.303062
0.291769
0.280683
0.269821
0.259199
0.248834
0.23874
0.228927
0.219397
0.21015
0.201182
0.192484
0.184046
0.175859
0.16791
0.160192
0.152697
0.145417
0.13835
0.131493
0.124845
0.118406
0.11218
0.106167
0.100371
0.0947927
0.0894345
0.0842973
0.0793813
0.0746857
0.0702086
0.0659474
0.0618984
0.0580569
0.0544177
0.050975
0.0477221
0.0446523
0.0417583
0.0390328
0.0364682
0.034057
0.0317917
0.0296648
0.0276691
0.0257974
0.0240429
0.0223989
0.0208589
0.0194169
0.0180669
0.0168035
0.0156212
0.014515
0.0134802
0.0125121
0.0116068
0.0107598
0.00996797
0.00922693
0.00853433
0.00788587
0.00728002
0.00671236
0.00618229
0.00568508
0.00522132
0.00478539
0.00438012
0.00399698
0.00364432
0.0033056
0.00300178
0.00269989
0.00244025
0.00217534
0.00194038
0.00174417
0.00146463
0.00141656
0.00107078
0.00100551
0.000959206
0.000483219
0.00103669
0.000641489
0.00109491
0.000176715
0.000301912
0.00114901
0.000984434
0.00163902
0.000870101
0.00103097
0.000372339
0.0011036
0.0014252
0.00151975
0.00190551
0.000706973
0.000422481
0.00106127
0.00106581
0.000198327
0.000494168
0.000461581
0.00100076
0.000306481
0.000442605
0.00072949
0.00066565
0.411473
0.397302
0.383662
0.370494
0.357748
0.345372
0.33332
0.321555
0.310047
0.29878
0.287744
0.27694
0.266374
0.256055
0.245993
0.236201
0.226687
0.21746
0.208521
0.19987
0.191505
0.183417
0.175597
0.168036
0.160721
0.153641
0.146784
0.14014
0.1337
0.127457
0.121405
0.115538
0.109854
0.104351
0.0990287
0.0938858
0.0889231
0.0841408
0.0795395
0.0751193
0.07088
0.0668208
0.0629404
0.0592368
0.0557076
0.0523495
0.0491589
0.0461314
0.0432624
0.0405469
0.0379796
0.0355547
0.0332667
0.0311097
0.0290778
0.0271651
0.025366
0.0236745
0.0220853
0.0205926
0.0191914
0.0178765
0.016643
0.0154862
0.0144015
0.0133848
0.0124317
0.0115388
0.0107017
0.00991795
0.00918284
0.00849495
0.00784934
0.00724562
0.00667838
0.00614862
0.00564973
0.00518539
0.00474552
0.00434015
0.00395001
0.00359946
0.00325055
0.00294977
0.00264179
0.00237004
0.00213632
0.00181991
0.00174517
0.00135882
0.00127187
0.00119974
0.000681532
0.00124929
0.00075479
0.00130061
0.00027392
0.000336156
0.0012048
0.00101273
0.00175237
0.000881992
0.00110561
0.000317975
0.00107133
0.00145701
0.00160473
0.00198751
0.000738273
0.000337313
0.00107622
0.00109364
0.000195642
0.000489801
0.000421035
0.00104849
0.000288623
0.000392349
0.000793595
0.000796217
0.407452
0.393174
0.379436
0.366189
0.353392
0.341002
0.328979
0.317288
0.305902
0.294797
0.283957
0.273375
0.263046
0.252974
0.24316
0.233612
0.224335
0.215337
0.206621
0.198189
0.190042
0.182177
0.174587
0.167266
0.160205
0.153392
0.146818
0.140471
0.134338
0.12841
0.122676
0.117128
0.111756
0.106555
0.101519
0.0966431
0.0919244
0.0873604
0.0829494
0.0786902
0.0745821
0.0706245
0.0668168
0.0631584
0.0596484
0.0562857
0.0530688
0.0499957
0.0470641
0.0442714
0.0416144
0.0390897
0.0366937
0.0344222
0.0322712
0.0302362
0.0283127
0.0264961
0.024782
0.0231655
0.0216422
0.0202076
0.0188571
0.0175866
0.0163915
0.0152683
0.0142123
0.0132206
0.0122885
0.0114138
0.0105915
0.0098205
0.0090953
0.00841594
0.00777621
0.00717785
0.00661303
0.00608666
0.0055867
0.00512547
0.00468031
0.00427974
0.00388007
0.00353479
0.00317992
0.00286808
0.00259268
0.00223683
0.00213001
0.00170153
0.00158835
0.00148519
0.000926018
0.00149545
0.000885605
0.00152955
0.00038689
0.000384551
0.00134245
0.00110461
0.0018491
0.000932366
0.00121416
0.000243208
0.000996512
0.00145987
0.00165537
0.0020248
0.00075995
0.000232568
0.00107228
0.00108741
0.000192925
0.000473631
0.000360028
0.00110665
0.000306501
0.000385353
0.000884507
0.000943585
0.403731
0.389378
0.37557
0.362267
0.349433
0.337031
0.325026
0.313388
0.302088
0.291103
0.280414
0.270006
0.25987
0.250001
0.240398
0.231058
0.221985
0.213183
0.204653
0.196398
0.188419
0.180715
0.173284
0.166121
0.15922
0.152574
0.146174
0.140011
0.134075
0.128354
0.122839
0.117519
0.112383
0.107423
0.10263
0.0979965
0.0935148
0.0891794
0.0849854
0.0809286
0.0770058
0.0732144
0.0695523
0.0660179
0.0626101
0.0593275
0.0561692
0.0531342
0.0502213
0.0474291
0.0447561
0.0422005
0.0397603
0.037433
0.0352163
0.0331072
0.0311028
0.0291998
0.027395
0.0256848
0.0240657
0.0225341
0.0210862
0.0197187
0.0184274
0.0172094
0.0160603
0.0149778
0.013957
0.0129963
0.0120906
0.0112392
0.0104361
0.00968205
0.00897004
0.00830284
0.00767114
0.00708162
0.00651978
0.00600092
0.0054983
0.00504549
0.00459216
0.00419977
0.00379482
0.00343999
0.0031193
0.00272147
0.00257765
0.00210528
0.00196161
0.00182184
0.00122325
0.00178101
0.00103847
0.00178724
0.000520642
0.000450681
0.0015083
0.0012082
0.0019607
0.00101435
0.0013211
0.000140714
0.000872754
0.00142774
0.00166611
0.00201633
0.000770474
0.000108036
0.00104483
0.00104181
0.000187278
0.000445228
0.000274941
0.00115453
0.00033296
0.00040923
0.00100074
0.00110777
0.400276
0.38587
0.372014
0.358672
0.345813
0.333403
0.321413
0.309813
0.298578
0.287683
0.27711
0.266839
0.256858
0.247158
0.237731
0.228572
0.219678
0.21105
0.202687
0.194589
0.186758
0.179192
0.17189
0.164849
0.158066
0.151534
0.145249
0.139202
0.133386
0.127793
0.122412
0.117235
0.112252
0.107454
0.102831
0.0983747
0.0940758
0.0899267
0.0859201
0.0820493
0.0783087
0.0746931
0.071198
0.0678198
0.0645554
0.0614022
0.058358
0.0554211
0.0525899
0.049863
0.0472393
0.0447173
0.042296
0.0399737
0.0377493
0.0356207
0.0335864
0.0316442
0.0297922
0.0280278
0.0263488
0.0247525
0.0232361
0.0217971
0.0204323
0.0191394
0.0179146
0.0167561
0.0156595
0.0146238
0.0136438
0.0127197
0.011845
0.0110215
0.0102411
0.00950823
0.00881169
0.00816068
0.00753753
0.00696154
0.00640088
0.00589538
0.00538699
0.00494616
0.00448918
0.00408921
0.00372081
0.00327865
0.00309401
0.00257588
0.00239818
0.00221595
0.0015799
0.00211247
0.00121881
0.00208015
0.000680872
0.000584382
0.0017006
0.00132175
0.00214416
0.00117394
0.00147439
0.000142271
0.000804442
0.0013817
0.00166663
0.00199653
0.000841077
6.80546e-05
0.000991361
0.000952806
0.000197375
0.000424898
0.000188115
0.00121419
0.00035677
0.000429261
0.00112378
0.0012877
0.397056
0.382615
0.368727
0.35536
0.342486
0.330074
0.318097
0.306527
0.295342
0.284518
0.274034
0.263872
0.254016
0.244453
0.235174
0.226169
0.217432
0.208959
0.200747
0.192795
0.1851
0.177662
0.170478
0.163547
0.156865
0.150427
0.144231
0.138269
0.132536
0.127026
0.12173
0.116641
0.111751
0.107051
0.102533
0.0981884
0.0940091
0.0899866
0.086113
0.0823807
0.0787825
0.0753118
0.0719625
0.0687289
0.0656062
0.0625899
0.0596762
0.0568616
0.0541436
0.0515192
0.0489868
0.0465442
0.04419
0.0419226
0.0397408
0.037643
0.0356282
0.0336947
0.0318415
0.0300667
0.0283689
0.0267464
0.0251972
0.0237197
0.0223113
0.0209708
0.0196948
0.0184825
0.0173298
0.0162368
0.0151979
0.0142148
0.0132801
0.0123975
0.0115574
0.0107665
0.0100112
0.00930414
0.00862363
0.00799415
0.00737766
0.00682158
0.00625903
0.0057704
0.00526152
0.00481551
0.004399
0.00391064
0.00368325
0.00311761
0.00290369
0.00267324
0.00200214
0.00249668
0.00143303
0.00241582
0.000874192
0.000835071
0.00192197
0.00144881
0.00233763
0.00135296
0.00169465
0.000256024
0.000826083
0.00142209
0.00168574
0.00198562
0.000956751
0.000186117
0.00101984
0.000883662
0.000287362
0.000493168
0.000177316
0.00131633
0.000381373
0.000444015
0.00125472
0.00148144
0.394044
0.379581
0.365674
0.352294
0.339413
0.327004
0.31504
0.303497
0.292353
0.281585
0.271172
0.261097
0.251342
0.241892
0.232735
0.223861
0.215259
0.206923
0.198847
0.191027
0.18346
0.176142
0.169071
0.162244
0.155657
0.149308
0.143192
0.137305
0.131642
0.126196
0.120962
0.115933
0.111104
0.106465
0.102012
0.0977345
0.093627
0.0896813
0.0858901
0.0822459
0.0787418
0.0753705
0.0721256
0.0690005
0.0659895
0.0630867
0.0602872
0.0575861
0.0549794
0.052463
0.0500338
0.0476886
0.0454249
0.0432403
0.041133
0.0391008
0.0371425
0.0352562
0.033441
0.0316951
0.0300176
0.028407
0.0268618
0.0253811
0.0239628
0.0226063
0.0213088
0.0200704
0.018887
0.0177601
0.0166836
0.0156609
0.0146838
0.013758
0.0128721
0.0120359
0.0112327
0.0104796
0.0097499
0.0090746
0.0084082
0.00780707
0.00719459
0.00666149
0.00610392
0.00561279
0.00515083
0.00461538
0.00434611
0.00373185
0.00348144
0.00319786
0.0024946
0.00294027
0.00168829
0.00280244
0.00114835
0.0011754
0.00217527
0.00159399
0.00254675
0.00155628
0.00193058
0.000397472
0.000865288
0.00153532
0.00175336
0.00203118
0.00114596
0.000351817
0.00111996
0.000927268
0.000446481
0.000608286
0.000206802
0.00142482
0.000411342
0.000453537
0.00139492
0.00168653
0.391217
0.376745
0.362829
0.349444
0.336563
0.324161
0.312212
0.300694
0.289584
0.278862
0.268509
0.258504
0.248831
0.239474
0.230419
0.221654
0.213168
0.204951
0.196996
0.189296
0.181845
0.17464
0.167676
0.160949
0.154455
0.148192
0.142155
0.136339
0.130741
0.125355
0.120176
0.115198
0.110416
0.105824
0.101414
0.0971816
0.093119
0.0892199
0.0854778
0.0818859
0.0784378
0.0751268
0.0719467
0.0688911
0.065954
0.0631295
0.0604122
0.0577965
0.0552776
0.0528507
0.0505116
0.0482561
0.0460809
0.0439823
0.0419576
0.040004
0.0381193
0.0363011
0.0345477
0.0328573
0.0312282
0.0296593
0.0281488
0.0266959
0.0252986
0.0239569
0.0226676
0.0214321
0.0202457
0.0191113
0.0180223
0.0169837
0.0159859
0.0150375
0.0141245
0.0132607
0.0124252
0.0116408
0.0108747
0.0101657
0.00945977
0.00882309
0.00816916
0.00759822
0.00699938
0.00646641
0.00596592
0.00538405
0.00507761
0.00441508
0.00413044
0.00379094
0.00305871
0.00344864
0.00199225
0.00324816
0.00151187
0.00157936
0.0024635
0.00176249
0.0027775
0.00178869
0.00219161
0.000584782
0.000922684
0.00166383
0.00181994
0.00207721
0.00134683
0.000531303
0.00121596
0.00098025
0.00063554
0.000745479
0.000330483
0.00154141
0.000451742
0.00050749
0.00154591
0.0019002
0.388557
0.374083
0.360166
0.346783
0.333908
0.321517
0.309584
0.29809
0.287012
0.27633
0.266026
0.25608
0.246475
0.237195
0.228225
0.219553
0.211165
0.203051
0.195202
0.187608
0.180263
0.173162
0.166297
0.159665
0.153262
0.147082
0.141122
0.135378
0.129845
0.124518
0.119393
0.114464
0.109726
0.105175
0.100803
0.0966054
0.0925766
0.0887102
0.0850006
0.0814416
0.0780275
0.0747522
0.0716101
0.0685952
0.065702
0.0629249
0.0602586
0.0576975
0.055237
0.0528718
0.0505975
0.0484093
0.0463035
0.0442758
0.0423227
0.0404406
0.0386267
0.0368778
0.0351915
0.0335653
0.031997
0.030485
0.0290268
0.0276218
0.026267
0.0249631
0.0237059
0.0224979
0.0213332
0.0202163
0.0191389
0.0181086
0.0171132
0.0161649
0.015246
0.0143753
0.0135266
0.0127296
0.0119439
0.0112174
0.0104867
0.00982786
0.00914577
0.00854699
0.00791944
0.00735062
0.00682378
0.00619846
0.0058641
0.00515642
0.0048426
0.0044485
0.00369029
0.00402439
0.00240513
0.00375948
0.00193366
0.00205257
0.00278975
0.00195998
0.00303683
0.00205546
0.00248807
0.000845201
0.000998887
0.00180448
0.00188826
0.00213254
0.00155769
0.000727129
0.00130168
0.00104379
0.000853664
0.000902433
0.000542668
0.00166882
0.000547613
0.000682745
0.00170915
0.00211958
0.386046
0.371577
0.357666
0.344291
0.331426
0.319048
0.307135
0.295664
0.284615
0.27397
0.263708
0.253812
0.244264
0.235049
0.226152
0.217557
0.209253
0.201228
0.19347
0.185971
0.178721
0.171713
0.164941
0.158398
0.15208
0.145981
0.140097
0.134423
0.128954
0.123687
0.118616
0.113736
0.109043
0.104532
0.100196
0.0960324
0.0920341
0.088196
0.0845127
0.0809788
0.077589
0.0743376
0.0712196
0.0682295
0.0653623
0.0626126
0.0599758
0.0574465
0.0550203
0.0526922
0.050458
0.0483129
0.046253
0.0442739
0.042372
0.0405432
0.0387843
0.0370919
0.0354627
0.0338942
0.0323829
0.0309276
0.0295242
0.0281728
0.0268687
0.0256135
0.0244013
0.0232358
0.022109
0.0210276
0.0199804
0.018978
0.0180049
0.0170771
0.0161725
0.0153153
0.0144731
0.013683
0.0128968
0.0121708
0.0114336
0.0107683
0.0100758
0.00946168
0.00882332
0.00822708
0.00769157
0.00702885
0.0066803
0.00593506
0.00559944
0.00515883
0.00437629
0.00466468
0.00296381
0.00433866
0.00241196
0.00259702
0.00315686
0.00219268
0.00333335
0.00236259
0.00283107
0.00116995
0.00109446
0.00195636
0.00196402
0.00220658
0.00177827
0.00094237
0.00137468
0.00111944
0.00109773
0.00107322
0.000773718
0.00180965
0.000724923
0.000939727
0.00188571
0.00234168
0.38367
0.36921
0.35531
0.341947
0.329097
0.316736
0.304842
0.293395
0.282375
0.271763
0.261539
0.251687
0.242189
0.23303
0.224193
0.215665
0.207433
0.199484
0.191806
0.184388
0.177222
0.170299
0.163611
0.157151
0.150913
0.144891
0.139079
0.133474
0.128069
0.122861
0.117844
0.113014
0.108367
0.103897
0.0995987
0.0954684
0.0915006