/*--------------------------------*- C++ -*----------------------------------*\
| =========                 |                                                 |
| \\      /  F ield         | OpenFOAM: The Open Source CFD Toolbox           |
|  \\    /   O peration     | Version:  2412                                  |
|   \\  /    A nd           | Website:  www.openfoam.com                      |
|    \\/     M anipulation  |                                                 |
\*---------------------------------------------------------------------------*/
FoamFile
{
    version     2.0;
    format      ascii;
    arch        "LSB;label=32;scalar=64";
    class       surfaceScalarField;
    location    "0.67";
    object      phi_0;
}
// * * * * * * * * * * * * * * * * * * * * * * * * * * * * * * * * * * * * * //

dimensions      [0 3 -1 0 0 0 0];

oriented        oriented;

internalField   nonuniform List<scalar> 
24930
(
0.0158192
0.0209829
-0.036792
0.00653161
0.00928756
0.00302315
0.00350846
0.00170406
0.00131911
0.00110387
0.000600189
0.000752251
0.000351627
0.000515102
0.000237152
0.000344549
0.000170563
0.000217613
0.000126946
0.000121266
9.6336e-05
4.62903e-05
7.49622e-05
-1.23087e-05
5.86092e-05
-5.84025e-05
4.61393e-05
-9.47447e-05
3.63862e-05
-0.000122743
2.79863e-05
-0.000144791
2.19814e-05
-0.000161539
1.6709e-05
-0.000174298
1.28363e-05
-0.000183229
9.10271e-06
-0.000189379
6.25568e-06
-0.000192927
3.40399e-06
-0.000194486
1.12423e-06
-0.000194432
-2.71795e-07
-0.000193051
-9.55213e-07
-0.000190459
-1.76181e-06
-0.000186786
-3.33834e-06
-0.000182313
-5.12109e-06
-0.000177266
-5.42769e-06
-0.000171874
-5.46671e-06
-0.000166105
-5.67437e-06
-0.000160051
-5.9887e-06
-0.000153856
-6.21888e-06
-0.000147596
-6.29727e-06
-0.000141301
-6.27931e-06
-0.000135035
-6.22118e-06
-0.00012882
-6.19474e-06
-0.000122703
-6.12882e-06
-0.000116717
-5.99745e-06
-0.000110869
-5.83698e-06
-0.000105206
-5.64082e-06
-9.97271e-05
-5.47072e-06
-9.44262e-05
-5.30315e-06
-8.93114e-05
-5.11774e-06
-8.43614e-05
-4.94593e-06
-7.95446e-05
-4.80853e-06
-7.48713e-05
-4.66834e-06
-7.034e-05
-4.53235e-06
-6.60044e-05
-4.33921e-06
-6.19405e-05
-4.06469e-06
-5.825e-05
-3.68698e-06
-5.50771e-05
-3.16812e-06
-5.25681e-05
-2.50707e-06
-5.08749e-05
-1.69631e-06
-5.01257e-05
-7.57134e-07
-5.03482e-05
2.36001e-07
-5.14815e-05
1.14736e-06
-5.32219e-05
1.75287e-06
-5.4913e-05
1.6981e-06
-5.54786e-05
4.59201e-07
-5.33492e-05
-2.14739e-06
-4.66561e-05
-6.67864e-06
-3.35824e-05
-1.30613e-05
-1.30835e-05
-2.04978e-05
1.41889e-05
-2.72777e-05
4.58115e-05
-3.16257e-05
7.65281e-05
-3.07168e-05
9.97735e-05
-2.32399e-05
0.000110897
-1.11081e-05
0.000110673
-2.48205e-07
0.000104475
6.01678e-06
9.66134e-05
7.85675e-06
9.05747e-05
6.08204e-06
8.63521e-05
4.2478e-06
8.99079e-05
-3.84699e-06
9.84562e-05
-8.92193e-06
0.000102736
-4.18619e-06
8.37874e-05
1.92791e-05
1.84392e-05
6.54385e-05
-0.000121063
0.000139481
-0.000342229
0.000221142
-0.000583272
0.000241056
-0.000719811
0.000136655
-0.000712597
-6.58551e-06
-0.000431148
-0.000281533
0.00110292
-0.00153415
0.00193284
-0.000829976
0.00205098
-0.000117341
0.00282009
-0.000769115
0.00125879
0.00156113
-8.01595e-05
0.00133901
-3.87514e-05
-4.16271e-05
-6.91397e-05
3.04067e-05
0.000313928
-0.000382989
0.000610196
-0.000296255
0.000755167
-0.000144993
0.000866516
-0.000111699
0.000324034
0.000542424
-0.00112972
0.00145378
-0.00304663
0.00191695
-0.00471093
0.00166434
-0.00568378
0.00097291
-0.00579822
0.000113083
-0.00510628
-0.000692231
-0.00383842
-0.00126789
-0.00208336
-0.00175507
-0.000892927
-0.00119045
-0.000570265
-0.000322709
-7.81562e-05
-0.000492128
0.000320793
-0.000398942
0.000652821
-0.000332023
0.000989237
-0.000336411
0.00101869
-2.95161e-05
0.000645558
0.00037313
-3.89879e-05
0.000684561
-0.000523041
0.000484065
-0.000356313
-0.000166725
0.000156547
-0.000512862
0.000447316
-0.000290768
0.000726188
-0.00027887
-0.000194223
0.0334356
0.0298927
-0.0423455
0.0224774
0.0202458
0.0142423
0.0117435
0.00917501
0.00638641
0.006197
0.00357821
0.00436647
0.00218215
0.0031492
0.00145441
0.00228579
0.00103397
0.00164641
0.000766363
0.00115848
0.000584334
0.000779382
0.000454098
0.000480527
0.00035742
0.000243139
0.000283452
5.53092e-05
0.000224219
-0.000100248
0.000183668
-0.000226184
0.000148066
-0.000325854
0.000116388
-0.00040486
9.16721e-05
-0.000465954
7.00326e-05
-0.000512867
5.32753e-05
-0.000547554
3.84836e-05
-0.000572037
2.5821e-05
-0.000588036
1.54199e-05
-0.000597061
7.61516e-06
-0.00060008
1.35919e-06
-0.000598071
-4.85696e-06
-0.000591855
-1.13115e-05
-0.000582303
-1.47264e-05
-0.000570138
-1.75003e-05
-0.000555729
-2.01088e-05
-0.00053959
-2.21035e-05
-0.000522197
-2.35262e-05
-0.000503868
-2.45731e-05
-0.000484858
-2.52961e-05
-0.000465483
-2.56074e-05
-0.000445912
-2.57376e-05
-0.000426325
-2.56679e-05
-0.000406876
-2.54189e-05
-0.000387666
-2.50479e-05
-0.000368886
-2.44258e-05
-0.000350575
-2.37671e-05
-0.000332745
-2.31099e-05
-0.000315434
-2.24136e-05
-0.000298601
-2.1775e-05
-0.000282174
-2.12345e-05
-0.000266187
-2.06493e-05
-0.000250661
-2.00452e-05
-0.000235774
-1.92149e-05
-0.0002218
-1.80336e-05
-0.000209101
-1.63853e-05
-0.000198177
-1.40917e-05
-0.000189542
-1.11376e-05
-0.00018371
-7.5168e-06
-0.000181108
-3.34514e-06
-0.000181817
9.38632e-07
-0.000185564
4.8867e-06
-0.000191233
7.42102e-06
-0.00019647
6.94879e-06
-0.000197399
1.39405e-06
-0.00018861
-1.09108e-05
-0.0001635
-3.17969e-05
-0.000115833
-6.07309e-05
-4.19891e-05
-9.433e-05
5.55903e-05
-0.000124843
0.000168573
-0.00014461
0.000279276
-0.000141436
0.000364824
-0.000108803
0.00040809
-5.43706e-05
0.000410144
-2.39353e-06
0.0003875
2.87924e-05
0.000356421
3.89179e-05
0.000328567
3.3889e-05
0.000307451
2.53449e-05
0.000310628
-6.83117e-06
0.000330751
-2.87754e-05
0.000331821
-5.22233e-06
0.000249776
0.000101029
-3.10116e-06
0.000318222
-0.000496744
0.000633154
-0.00125257
0.000976996
-0.00204111
0.00102957
-0.00241784
0.00051329
-0.00227203
-0.000152658
-0.00132408
-0.0012294
0.003495
-0.00635324
0.00614121
-0.00347621
0.00675453
-0.000731098
0.00942962
-0.00344423
0.00468579
0.00630497
9.86274e-05
0.00592625
-0.000100375
0.000157488
-0.000135879
6.59096e-05
0.00112617
-0.00164504
0.00214081
-0.00131092
0.00257718
-0.000581356
0.00264601
-0.000180356
0.00032791
0.00286054
-0.00480317
0.0065848
-0.0110547
0.00816844
-0.0160838
0.00669349
-0.0186532
0.0035423
-0.0185994
5.8717e-05
-0.0161532
-0.00313813
-0.0120877
-0.00533342
-0.00661955
-0.00722318
-0.00269274
-0.00511723
-0.00160461
-0.0014108
-7.61333e-05
-0.00202059
0.00132331
-0.00179839
0.00239567
-0.0014044
0.00344266
-0.0013834
0.00338349
2.96638e-05
0.00193828
0.00181832
-0.000266448
0.00288927
-0.00158893
0.00180654
-0.000870096
-0.000885558
0.000774661
-0.00215762
0.00174651
-0.00126262
0.00261844
-0.0011508
-0.000866447
0.0432005
0.0321622
-0.0454701
0.0359161
0.0275302
0.027345
0.0203146
0.0199414
0.01379
0.0144523
0.00906732
0.0106039
0.0060306
0.00789624
0.00416202
0.00593409
0.00299613
0.00446509
0.0022354
0.00333591
0.00171354
0.00245042
0.00133959
0.00174595
0.00106187
0.00117966
0.000849741
0.000721244
0.000682664
0.000350162
0.000554815
4.98358e-05
0.000448448
-0.000197677
0.0003639
-0.000397867
0.000291796
-0.000558001
0.000230097
-0.000685374
0.000180702
-0.000784935
0.000138309
-0.000861157
0.000102518
-0.000917878
7.22469e-05
-0.000957729
4.68362e-05
-0.000983141
2.62497e-05
-0.000996666
8.77316e-06
-0.00100056
-7.11209e-06
-0.000996613
-1.84585e-05
-0.000985675
-2.84045e-05
-0.000969083
-3.67296e-05
-0.00094798
-4.31653e-05
-0.00092336
-4.80876e-05
-0.000895959
-5.19478e-05
-0.000866405
-5.48425e-05
-0.000835397
-5.65968e-05
-0.000803372
-5.77302e-05
-0.000770734
-5.82767e-05
-0.000737848
-5.829e-05
-0.000704983
-5.79037e-05
-0.000672527
-5.68685e-05
-0.000640638
-5.56396e-05
-0.000609376
-5.43572e-05
-0.000578849
-5.29316e-05
-0.000549029
-5.15873e-05
-0.000519828
-5.04275e-05
-0.000491317
-4.91505e-05
-0.000463572
-4.77803e-05
-0.000436913
-4.58661e-05
-0.00041185
-4.30918e-05
-0.000389051
-3.91807e-05
-0.000369416
-3.37218e-05
-0.000353878
-2.66696e-05
-0.000343361
-1.80286e-05
-0.000338595
-8.1069e-06
-0.000339717
2.0609e-06
-0.000346138
1.13086e-05
-0.000355751
1.70409e-05
-0.000364168
1.53767e-05
-0.00036432
1.53234e-06
-0.000346358
-2.88617e-05
-0.000298373
-7.97794e-05
-0.000209258
-0.000149841
-7.2693e-05
-0.000230887
0.000107626
-0.00030516
0.000316717
-0.000353709
0.000522707
-0.000347434
0.000684473
-0.000270569
0.000769717
-0.000139603
0.000777653
-9.94662e-06
0.000735665
7.08023e-05
0.000673898
0.000100675
0.000614033
9.37432e-05
0.000565992
7.33891e-05
0.000559353
-4.47327e-07
0.000582378
-5.17597e-05
0.000567093
1.00155e-05
0.000396973
0.000271105
-7.85879e-05
0.00079378
-0.0010005
0.00155507
-0.00235427
0.00233076
-0.00370917
0.00238444
-0.00425837
0.00106247
-0.00382794
-0.00058328
-0.00226402
-0.00279334
0.00585603
-0.0144733
0.0104518
-0.00807194
0.0115586
-0.00183815
0.0164948
-0.00838052
0.00891692
0.0138829
0.000649716
0.0141935
-0.00010826
0.000915407
-0.000139174
9.68193e-05
0.00210033
-0.00388452
0.0038869
-0.00309751
0.00457054
-0.00126499
0.00426804
0.000122009
-0.000396982
0.00752556
-0.00982617
0.016014
-0.0205696
0.0189118
-0.0285776
0.0147015
-0.0321852
0.00714991
-0.0315235
-0.0006025
-0.0270819
-0.00757972
-0.0202163
-0.012199
-0.011022
-0.0164175
-0.00430222
-0.0118369
-0.00247494
-0.00323808
0.000121319
-0.00461684
0.00264352
-0.0043206
0.00451586
-0.00327675
0.00623714
-0.00310469
0.00592512
0.000341702
0.00318926
0.00455418
-0.000579414
0.00665793
-0.00255767
0.00378478
-0.0011236
-0.00231963
0.00169992
-0.00498114
0.00340281
-0.00296551
0.0048934
-0.00264139
-0.00206171
0.049013
0.0316576
-0.0485083
0.0457729
0.0307703
0.0394886
0.0265989
0.0321312
0.0211475
0.0252651
0.0159334
0.0195896
0.0117061
0.0151581
0.00859344
0.0117511
0.00640321
0.00911615
0.00487034
0.00705155
0.00377816
0.00541154
0.00297959
0.0040934
0.00238001
0.00302404
0.00191911
0.0021505
0.00155624
0.00143515
0.00127021
0.000846948
0.00103667
0.000363927
0.00084691
-3.06723e-05
0.00068638
-0.000357787
0.000557234
-0.000622009
0.000445005
-0.000834243
0.000350621
-0.00100256
0.000270887
-0.00113386
0.000203502
-0.00123358
0.00014635
-0.00130678
9.89724e-05
-0.00135728
5.93339e-05
-0.00138827
2.45947e-05
-0.00140311
-3.68995e-06
-0.00140563
-2.5944e-05
-0.00139673
-4.5643e-05
-0.00137854
-6.12906e-05
-0.00135297
-7.36073e-05
-0.0013214
-8.34991e-05
-0.00128504
-9.11978e-05
-0.00124515
-9.64625e-05
-0.0012026
-0.000100241
-0.00115816
-0.000102688
-0.00111252
-0.000103917
-0.00106622
-0.000104199
-0.00101992
-0.000103148
-0.000973989
-0.000101557
-0.000928593
-9.97394e-05
-0.000883961
-9.75541e-05
-0.000840128
-9.54125e-05
-0.000797018
-9.35285e-05
-0.000754771
-9.13876e-05
-0.000713543
-8.89981e-05
-0.000673829
-8.5573e-05
-0.000636413
-8.05037e-05
-0.000602313
-7.32768e-05
-0.000572886
-6.31442e-05
-0.000549537
-5.00117e-05
-0.000533643
-3.3917e-05
-0.000526266
-1.54804e-05
-0.000527575
3.37123e-06
-0.000536578
2.03125e-05
-0.000549983
3.04546e-05
-0.000561069
2.64735e-05
-0.000559105
-4.40564e-07
-0.00052926
-5.87019e-05
-0.000453669
-0.000155369
-0.000315888
-0.000287615
-0.000106543
-0.000440225
0.000169139
-0.000580841
0.000489234
-0.000673812
0.000806835
-0.000665045
0.00106043
-0.000524163
0.00119938
-0.000278545
0.0012182
-2.86215e-05
0.00115452
0.000134496
0.00105405
0.000201131
0.000951273
0.000196515
0.000864648
0.000160018
0.000837986
2.6528e-05
0.000854081
-6.78267e-05
0.000807722
5.6254e-05
0.000519952
0.000558845
-0.000232769
0.0015465
-0.00164772
0.00297003
-0.00365925
0.00434228
-0.00559203
0.0043172
-0.00623147
0.00170189
-0.00535696
-0.00145791
-0.00324567
-0.00490465
0.00806702
-0.0257859
0.0148399
-0.0148448
0.0162463
-0.00324477
0.0237247
-0.015859
0.0140123
0.0235955
0.00174562
0.0264603
-2.92632e-05
0.00269027
-4.49533e-05
0.00011247
0.00324913
-0.00717858
0.0058434
-0.00569178
0.00669547
-0.00211707
0.00561846
0.00119925
-0.00206181
0.0152058
-0.0163351
0.0302872
-0.0315098
0.0340866
-0.0419401
0.0251319
-0.0459244
0.0111342
-0.0442362
-0.00228934
-0.0376139
-0.014202
-0.0280208
-0.021792
-0.0152137
-0.0292247
-0.00565949
-0.0213911
-0.00313632
-0.00576123
0.000568286
-0.00832144
0.00431034
-0.00806265
0.00703688
-0.00600329
0.00938116
-0.00544899
0.00863563
0.00108723
0.00439529
0.0087945
-0.000927939
0.0119811
-0.00333411
0.00619094
-0.00102845
-0.0046253
0.0029875
-0.00899708
0.00546064
-0.00543865
0.00759447
-0.00477522
-0.00381339
0.0528351
0.0305108
-0.0516883
0.0522563
0.0313491
0.0489315
0.0299237
0.043452
0.026627
0.0369884
0.022397
0.0305852
0.0181094
0.024853
0.0143256
0.0200044
0.0112518
0.0160134
0.00886132
0.0127584
0.00703319
0.0101033
0.00563476
0.0079289
0.00455437
0.00613972
0.00370832
0.00466089
0.00303509
0.0034358
0.00249534
0.00241823
0.00205426
0.00157301
0.00169213
0.000870958
0.00138845
0.000290756
0.00113747
-0.000187721
0.000923526
-0.00058066
0.000743566
-0.000899294
0.00058949
-0.00115495
0.000459166
-0.0013567
0.000348267
-0.00151255
0.000255006
-0.00162937
0.000176248
-0.00171389
0.000109587
-0.00177108
5.35564e-05
-0.00180242
5.4551e-06
-0.00181606
-3.19325e-05
-0.00181337
-6.39097e-05
-0.00179687
-9.00596e-05
-0.00176921
-0.000111151
-0.00173244
-0.00012795
-0.00168866
-0.000140209
-0.00163941
-0.000149458
-0.00158599
-0.000156085
-0.00152958
-0.000160314
-0.00147113
-0.000162643
-0.00141171
-0.000162546
-0.00135199
-0.000161256
-0.00129235
-0.000159368
-0.0012332
-0.000156694
-0.00117471
-0.000153898
-0.00111685
-0.000151372
-0.00105989
-0.000148338
-0.0010041
-0.00014478
-0.000950179
-0.000139484
-0.000899237
-0.00013144
-0.000852692
-0.000119818
-0.00081241
-0.000103421
-0.000780326
-8.20877e-05
-0.000758311
-5.59259e-05
-0.00074778
-2.60074e-05
-0.000748909
4.50183e-06
-0.000760201
3.16073e-05
-0.000776969
4.72306e-05
-0.000789827
3.9342e-05
-0.000784006
-6.13423e-06
-0.000739077
-0.00010363
-0.000630817
-0.000263628
-0.000437027
-0.0004814
-0.000145017
-0.00073223
0.000238491
-0.00096435
0.000684519
-0.00111985
0.00113062
-0.00111115
0.00149317
-0.000886713
0.00169976
-0.000485123
0.00173656
-6.53793e-05
0.00164985
0.000221207
0.00150218
0.000348788
0.00134413
0.000354561
0.00120559
0.00029857
0.00114656
8.56126e-05
0.00114426
-6.55161e-05
0.00104942
0.000151055
0.000610115
0.000998133
-0.000476804
0.00263341
-0.00245751
0.00495074
-0.00518173
0.00706648
-0.00768182
0.00681726
-0.00830131
0.00232136
-0.00680861
-0.00295069
-0.00423393
-0.0074794
0.00996197
-0.0399817
0.0192175
-0.0241002
0.0205728
-0.00460032
0.0306793
-0.0259656
0.0199782
0.0342968
0.00349226
0.0429462
0.00025273
0.00592972
0.000127264
0.00023793
0.00457148
-0.0116228
0.00799962
-0.00911993
0.00890011
-0.00301756
0.00655689
0.00354253
-0.00485048
0.0266132
-0.0243959
0.0498326
-0.0437079
0.0533985
-0.0557717
0.0371956
-0.0594674
0.0148299
-0.0564132
-0.00534345
-0.0475269
-0.0230882
-0.0353553
-0.0339636
-0.0190373
-0.0455427
-0.00671396
-0.0337144
-0.00358838
-0.0088868
0.00125271
-0.0131625
0.00633068
-0.0131406
0.00998315
-0.00965577
0.01288
-0.0083458
0.0115134
0.00245378
0.00560932
0.0146986
-0.00122883
0.0188193
-0.0038496
0.0088117
-0.000549123
-0.00792578
0.0046603
-0.0142065
0.00795541
-0.00873376
0.0107594
-0.00757917
-0.00615131
0.055994
0.0295465
-0.0550296
0.0565723
0.0307708
0.055542
0.030954
0.052483
0.0296861
0.0477362
0.0271437
0.042018
0.0238276
0.0360466
0.020297
0.0303466
0.0169519
0.0252069
0.014001
0.0207293
0.0115108
0.0169027
0.00946134
0.0136637
0.00779338
0.0109333
0.00643874
0.00863467
0.00533377
0.00670109
0.00442895
0.00507455
0.00368082
0.00370752
0.00305918
0.00255957
0.00253642
0.0015989
0.00209817
0.000797085
0.00172535
0.000131953
0.00140868
-0.000417756
0.0011392
-0.000867486
0.000908994
-0.00123123
0.000712246
-0.00152142
0.000545397
-0.00174866
0.000403406
-0.0019221
0.00028288
-0.00205003
0.0001813
-0.0021417
9.68143e-05
-0.00219751
2.39803e-05
-0.00222732
-3.40259e-05
-0.00223551
-8.18366e-05
-0.00222411
-0.000122536
-0.00219693
-0.000155117
-0.00215728
-0.00017983
-0.00210765
-0.000199055
-0.00205014
-0.000213565
-0.00198667
-0.000223776
-0.00191876
-0.000230539
-0.00184809
-0.000233193
-0.00177578
-0.000233546
-0.00170253
-0.000232609
-0.00162904
-0.000230169
-0.00155571
-0.000227219
-0.00148265
-0.000224421
-0.00141029
-0.000220692
-0.00133906
-0.000215994
-0.00126995
-0.000208594
-0.00120441
-0.000196972
-0.00114432
-0.000179897
-0.00109213
-0.00015561
-0.00105035
-0.000123863
-0.00102138
-8.48854e-05
-0.00100702
-4.03642e-05
-0.00100741
4.89866e-06
-0.00102045
4.46506e-05
-0.00103985
6.66404e-05
-0.0010533
5.27912e-05
-0.0010415
-1.78968e-05
-0.000978067
-0.000167064
-0.000831972
-0.000409723
-0.000575022
-0.000738346
-0.000190982
-0.00111627
0.000312062
-0.0014674
0.000898347
-0.00170615
0.00148998
-0.0017028
0.00198002
-0.00137676
0.00227076
-0.000775851
0.00233531
-0.000129907
0.00222604
0.000330471
0.00202304
0.000551781
0.00179666
0.000580939
0.00159163
0.00050361
0.00148708
0.000190186
0.00145318
-3.1587e-05
0.00129018
0.00031404
0.000660452
0.00162784
-0.000824191
0.00411805
-0.00344525
0.00757181
-0.00692911
0.0105503
-0.00996448
0.00985261
-0.0104288
0.00278571
-0.00815386
-0.00522575
-0.00516044
-0.0104729
0.0113101
-0.0564521
0.0233979
-0.0361878
0.0243315
-0.00553418
0.0368916
-0.0385258
0.0267684
0.0444202
0.00598981
0.0637249
0.000766665
0.0111528
0.000419209
0.000585366
0.00605851
-0.0172621
0.0103411
-0.0134025
0.0111171
-0.0037936
0.00693245
0.00772719
-0.00892812
0.0424738
-0.0339849
0.0748894
-0.0568584
0.076272
-0.0696289
0.0499661
-0.0724448
0.0176457
-0.0678495
-0.00993875
-0.0567202
-0.0342175
-0.0421559
-0.0485279
-0.0224685
-0.0652301
-0.00744329
-0.0487396
-0.003813
-0.0125171
0.00218148
-0.019157
0.00870074
-0.0196599
0.0133639
-0.0143189
0.0167401
-0.0117221
0.0145704
0.00462348
0.00687793
0.0223911
-0.00139701
0.0270942
-0.00401628
0.011431
0.00036512
-0.0123072
0.00675195
-0.0205933
0.0109253
-0.0129071
0.0144226
-0.0110765
-0.00909714
0.0592659
0.0288754
-0.0585948
0.0600561
0.0299805
0.0602239
0.0307862
0.0590862
0.0308238
0.0563846
0.0298453
0.0522902
0.027922
0.0472303
0.0253569
0.0416974
0.0224848
0.0361202
0.0195783
0.0308068
0.0168242
0.025939
0.0143291
0.0215958
0.0121366
0.017787
0.0102475
0.0144833
0.00863746
0.0116388
0.00727347
0.00920144
0.00611825
0.00712097
0.00513968
0.00535054
0.00430687
0.00385
0.00359872
0.00258256
0.00299278
0.00151713
0.0024741
0.000626673
0.0020297
-0.00011223
0.00164804
-0.000721441
0.00132166
-0.00121772
0.00104177
-0.00161704
0.000802567
-0.00193311
0.000598715
-0.00217781
0.000425878
-0.00236117
0.000280147
-0.00249606
0.000158923
-0.00258557
5.55753e-05
-0.00263744
-2.99617e-05
-0.00266167
-9.83038e-05
-0.00265926
-0.000157508
-0.00263601
-0.000203043
-0.0025959
-0.000239133
-0.00254221
-0.000267233
-0.00247786
-0.000288107
-0.00240526
-0.000303128
-0.0023269
-0.000311527
-0.00224458
-0.000315844
-0.00215948
-0.000317694
-0.00207276
-0.000316877
-0.00198517
-0.000314803
-0.00189704
-0.000312541
-0.00180905
-0.000308663
-0.00172191
-0.000303127
-0.00163688
-0.000293611
-0.00155588
-0.000277964
-0.0014813
-0.000254477
-0.00141619
-0.000220711
-0.00136373
-0.000176315
-0.0013269
-0.00012171
-0.00130786
-5.93976e-05
-0.00130675
3.79558e-06
-0.00132073
5.86267e-05
-0.00134169
8.76169e-05
-0.00135416
6.52608e-05
-0.001334
-3.80416e-05
-0.0012485
-0.000252572
-0.00105963
-0.000598592
-0.000733046
-0.00106493
-0.00024877
-0.00160054
0.00038404
-0.00210021
0.00112354
-0.00244566
0.00187732
-0.00245659
0.00251469
-0.00201412
0.00290911
-0.00117026
0.00301485
-0.000235638
0.00288631
0.000459005
0.002621
0.000817081
0.00231304
0.000888908
0.00202597
0.000790683
0.00186113
0.000355044
0.00178117
4.83262e-05
0.00152703
0.000568155
0.000662996
0.00249186
-0.00128818
0.00606922
-0.0046246
0.0109082
-0.00890235
0.014828
-0.0124132
0.0133635
-0.0125613
0.00293372
-0.00936849
-0.00841864
-0.00596176
-0.0138797
0.0117867
-0.0742005
0.027036
-0.0514368
0.0273857
-0.00588404
0.0420068
-0.0531471
0.0342962
0.0521311
0.00932178
0.0886994
0.00160309
0.0188714
0.00087237
0.00131605
0.00769332
-0.024083
0.012843
-0.0185521
0.0132592
-0.0042098
0.0065816
0.0144048
-0.0144062
0.0634617
-0.044988
0.105471
-0.0705599
0.101844
-0.0830774
0.0624835
-0.0846399
0.0192082
-0.0784921
-0.0160866
-0.0652255
-0.047484
-0.0484529
-0.0653005
-0.0254861
-0.0881968
-0.00785602
-0.0663696
-0.00382444
-0.0165487
0.00332802
-0.0263094
0.011389
-0.0277208
0.0171798
-0.0201098
0.0209706
-0.0155129
0.0178305
0.00776358
0.00828493
0.0319367
-0.00133332
0.0367124
-0.00377709
0.0138747
0.0017057
-0.01779
0.00927853
-0.0281662
0.0143988
-0.0180273
0.0186139
-0.0152916
-0.0126637
0.0629051
0.0283866
-0.0624163
0.0635521
0.0293335
0.0640805
0.0302578
0.0640055
0.0308989
0.0629026
0.0309481
0.0605726
0.030252
0.0570684
0.0288611
0.0526219
0.0269313
0.0475516
0.0246486
0.0421875
0.0221884
0.036819
0.0196977
0.031667
0.0172886
0.0268767
0.0150378
0.022526
0.0129881
0.0186424
0.0111571
0.015219
0.00954169
0.0122298
0.00812894
0.0096385
0.00689819
0.00740674
0.00583049
0.0054952
0.00490431
0.00386726
0.00410205
0.00248904
0.00340798
0.0013296
0.00280761
0.000361509
0.00228989
-0.000440166
0.00184345
-0.00109761
0.00145985
-0.00163022
0.00113116
-0.00205529
0.000850911
-0.00238802
0.000612948
-0.00264145
0.000412467
-0.0028299
0.000244116
-0.00296321
0.000103379
-0.00304398
-1.75266e-05
-0.00308993
-0.000111529
-0.0031016
-0.000191331
-0.00308605
-0.000254645
-0.00304828
-0.000304978
-0.00299277
-0.000343604
-0.00292312
-0.00037276
-0.00284303
-0.000391601
-0.00275524
-0.000403608
-0.00266167
-0.00041125
-0.00256413
-0.000414405
-0.00246391
-0.000415012
-0.00236171
-0.000414728
-0.00225859
-0.000411763
-0.0021556
-0.000406114
-0.00205439
-0.00039481
-0.00195739
-0.000374957
-0.00186756
-0.000344302
-0.00178865
-0.000299606
-0.00172456
-0.000240401
-0.00167887
-0.00016739
-0.00165419
-8.40795e-05
-0.00165053
1.48626e-07
-0.00166431
7.24106e-05
-0.00168542
0.000108739
-0.00169502
7.4865e-05
-0.00166394
-6.9115e-05
-0.00155295
-0.000363565
-0.00131697
-0.000834574
-0.000915504
-0.00146639
-0.000324656
-0.00219138
0.000445899
-0.00287077
0.00134938
-0.00334916
0.00228085
-0.00338807
0.00308636
-0.00281964
0.00360737
-0.00169127
0.00377239
-0.000400642
0.00363204
0.000599343
0.00329989
0.00114923
0.00289783
0.00129097
0.00251286
0.00117566
0.0022723
0.000595627
0.0021296
0.000191031
0.00175829
0.000939445
0.00061017
0.00363997
-0.00188105
0.00856044
-0.00600527
0.0150325
-0.0110946
0.0199173
-0.0149914
0.0172603
-0.0146427
0.00258493
-0.0104625
-0.0125989
-0.0066478
-0.0176945
0.0109636
-0.0918118
0.0296372
-0.0701103
0.0297768
-0.0060237
0.045969
-0.0693395
0.0424755
0.0556249
0.0135617
0.117613
0.00287797
0.029555
0.00152056
0.00267343
0.0094517
-0.0320141
0.0154709
-0.0245713
0.0152235
-0.00396249
0.00534279
0.0242856
-0.0213534
0.090158
-0.0571916
0.141309
-0.0843676
0.12902
-0.095791
0.0739068
-0.0960021
0.0194193
-0.0884616
-0.023627
-0.0732052
-0.0627405
-0.0543646
-0.0841411
-0.0281687
-0.114393
-0.00799557
-0.0865427
-0.00363819
-0.020906
0.00464502
-0.0345926
0.0143337
-0.0374095
0.0214131
-0.0271892
0.0255837
-0.0196835
0.0213357
0.0120116
0.00992082
0.0433515
-0.000939139
0.0475724
-0.00307732
0.0160129
0.00353633
-0.0244036
0.0122549
-0.0368847
0.0183981
-0.0241706
0.0233575
-0.020251
-0.0168515
0.0668975
0.0279873
-0.0664981
0.067377
0.028854
0.067885
0.0297497
0.0681973
0.0305866
0.0679964
0.0311491
0.0669931
0.0312553
0.0650192
0.030835
0.0620493
0.0299011
0.0581817
0.0285162
0.053601
0.0267691
0.0485385
0.0247601
0.0432367
0.0225905
0.0379197
0.0203548
0.0327723
0.0181356
0.0279292
0.0160002
0.0234744
0.0139965
0.0194493
0.012154
0.0158628
0.0104847
0.0127034
0.00898997
0.00994587
0.00766181
0.00755897
0.00648898
0.00550854
0.00545848
0.00376002
0.00455624
0.00228022
0.00376976
0.00103762
0.00308602
3.31528e-06
0.00249405
-0.00084918
0.00198358
-0.00154368
0.00154545
-0.00210168
0.00117107
-0.00254244
0.000853333
-0.00288247
0.000584197
-0.00313754
0.000358462
-0.00332592
0.000170854
-0.00344435
6.98346e-06
-0.0035188
-0.00011684
-0.00355015
-0.000223261
-0.00354646
-0.000308646
-0.00351444
-0.000375599
-0.00345953
-0.000427656
-0.00338703
-0.000464072
-0.00330112
-0.000489499
-0.00320474
-0.000507614
-0.00310066
-0.000518471
-0.00299098
-0.000524681
-0.00287695
-0.000528738
-0.00276021
-0.000528495
-0.00264224
-0.000524072
-0.00252522
-0.000511823
-0.00241216
-0.000488007
-0.00230668
-0.000449776
-0.0022133
-0.000392972
-0.00213669
-0.000317002
-0.00208111
-0.000222963
-0.00204957
-0.000115618
-0.00204219
-7.2416e-06
-0.00205425
8.44784e-05
-0.00207377
0.000128268
-0.0020784
7.94996e-05
-0.00203387
-0.000113645
-0.00189443
-0.000503001
-0.00160811
-0.0011209
-0.0011284
-0.0019461
-0.000427295
-0.00289249
0.000485924
-0.003784
0.00156108
-0.00442433
0.00268389
-0.0045109
0.00367897
-0.00381471
0.00435311
-0.0023654
0.0046012
-0.000648732
0.00446228
0.000738264
0.00406275
0.00154874
0.00355607
0.00179765
0.00305768
0.00167406
0.00272497
0.000928352
0.00250097
0.000415034
0.00198227
0.00145813
0.000494289
0.00512794
-0.0026138
0.0116685
-0.00759226
0.0200109
-0.0134904
0.0258154
-0.0176532
0.0214231
-0.01662
0.00155176
-0.0114914
-0.0177277
-0.007387
-0.021799
0.00838249
-0.107581
0.0307226
-0.0924501
0.0317854
-0.00708646
0.0491186
-0.0866729
0.0512569
0.0534869
0.0187802
0.15009
0.00472235
0.0436128
0.00240897
0.00498676
0.0113061
-0.0409112
0.0181748
-0.03144
0.0168889
-0.00267659
0.00306288
0.0381117
-0.0297791
0.123
-0.070309
0.181839
-0.0978704
0.156581
-0.107637
0.0836733
-0.106705
0.0184871
-0.0980235
-0.0323083
-0.0809176
-0.0798464
-0.0600753
-0.104983
-0.0306394
-0.143829
-0.00795599
-0.109226
-0.00329078
-0.0255713
0.00605551
-0.0439389
0.0174361
-0.0487901
0.0260244
-0.0357775
0.0305946
-0.0242536
0.0251435
0.0174627
0.0118962
0.0565988
-0.000119089
0.0595876
-0.00189035
0.0177841
0.00585072
-0.0321447
0.0156863
-0.0467203
0.0229338
-0.0314181
0.0286714
-0.0259886
-0.0216478
0.0712016
0.0276366
-0.070851
0.0715785
0.0284772
0.071988
0.0293402
0.0723534
0.0302213
0.0725108
0.0309916
0.0722485
0.0315177
0.0713647
0.0317187
0.0697123
0.0315536
0.0672209
0.0310076
0.0639
0.03009
0.05983
0.0288301
0.0551489
0.0272717
0.0500344
0.0254693
0.0446841
0.0234859
0.0392931
0.0213913
0.0340333
0.0192563
0.0290402
0.0171472
0.0244066
0.0151183
0.0201867
0.0132099
0.0164023
0.0114463
0.0130517
0.00983955
0.010118
0.00839223
0.00757435
0.00709996
0.00538901
0.00595515
0.00352781
0.00494719
0.00195669
0.00406513
0.000642671
0.00329761
-0.000445149
0.00263337
-0.00133574
0.00206179
-0.00205556
0.00157324
-0.00262798
0.00115665
-0.00307416
0.000804651
-0.00341188
0.00050858
-0.00366668
0.00026178
-0.00383599
5.25185e-05
-0.00394559
-0.000113628
-0.00400308
-0.000251135
-0.00401644
-0.000362226
-0.00399388
-0.000450186
-0.0039432
-0.000514735
-0.00387049
-0.000562187
-0.00378022
-0.00059786
-0.00367655
-0.000622128
-0.00356276
-0.000638459
-0.00344094
-0.000650542
-0.00331351
-0.00065591
-0.00318262
-0.000654952
-0.00305107
-0.000643358
-0.00292262
-0.000616457
-0.0028016
-0.000570787
-0.0026934
-0.000501158
-0.00260355
-0.000406845
-0.00253703
-0.000289472
-0.00249738
-0.000155263
-0.00248466
-1.99618e-05
-0.00249329
9.31156e-05
-0.00250922
0.000144202
-0.00250671
7.69919e-05
-0.00244649
-0.000173856
-0.00227656
-0.000672935
-0.00193838
-0.00145908
-0.00137969
-0.00250479
-0.000568097
-0.00370407
0.000488896
-0.00484099
0.00173943
-0.00567488
0.00306454
-0.00583603
0.0042705
-0.00502068
0.00512798
-0.00322287
0.00548975
-0.0010105
0.00537303
0.000854976
0.0049116
0.00201016
0.0042933
0.00241596
0.00366714
0.00230023
0.00322512
0.00137039
0.00289848
0.000741676
0.00219772
0.00215887
0.000307501
0.00701814
-0.00349559
0.0154717
-0.009385
0.0259003
-0.0160667
0.0324971
-0.0203511
0.0257074
-0.0184624
-0.000336924
-0.0125765
-0.0236138
-0.00852172
-0.0258539
0.00378881
-0.119892
0.0301474
-0.118808
0.033921
-0.01086
0.0521216
-0.104874
0.0606399
0.0449687
0.0250527
0.185677
0.00727867
0.0613866
0.00360077
0.00866461
0.0132327
-0.0505431
0.0208897
-0.0390969
0.0181205
9.26336e-05
-0.000385043
0.0566173
-0.0396314
0.162246
-0.0840241
0.226232
-0.110776
0.183333
-0.118702
0.0915993
-0.117033
0.0168186
-0.107503
-0.0418381
-0.0886479
-0.0987019
-0.0657852
-0.127846
-0.0330932
-0.176521
-0.00788775
-0.134431
-0.00282115
-0.0306379
0.0074621
-0.0542221
0.0205608
-0.0618888
0.030947
-0.0461637
0.0360186
-0.0293253
0.0293285
0.0241529
0.0143271
0.0716001
0.00126512
0.0726496
-0.000182639
0.0192318
0.00864579
-0.0409732
0.0195771
-0.0576516
0.0280067
-0.0398477
0.0345677
-0.0325496
-0.027026
0.0758182
0.0273194
-0.075501
0.0761407
0.0281547
0.0764751
0.0290057
0.0767969
0.0298995
0.0770373
0.0307512
0.0770835
0.0314715
0.0767951
0.0320071
0.0760277
0.0323211
0.0746551
0.0323803
0.0725861
0.0321589
0.0697744
0.0316419
0.0662231
0.030823
0.0619875
0.0297048
0.0571731
0.0283004
0.0519278
0.0266365
0.0464281
0.0247561
0.0408584
0.0227169
0.0353905
0.0205862
0.0301671
0.0184333
0.0252928
0.0163206
0.0208335
0.0142988
0.0168218
0.012404
0.0132639
0.0106579
0.0101475
0.00907156
0.0074482
0.00764655
0.00513423
0.00637913
0.00317039
0.00526152
0.00152028
0.00428361
0.000147787
0.0034344
-0.000979601
0.00270069
-0.00189545
0.00207251
-0.00262823
0.00153744
-0.00320416
0.00108454
-0.00364477
0.000702436
-0.00397862
0.000386419
-0.00421238
0.000120162
-0.00436669
-9.68038e-05
-0.00445842
-0.000270476
-0.00449447
-0.000414109
-0.00448669
-0.000522494
-0.0044442
-0.000604654
-0.00437367
-0.000668369
-0.00428119
-0.0007146
-0.00417176
-0.000747873
-0.00404872
-0.000773569
-0.00391562
-0.000788991
-0.00377553
-0.000795026
-0.00363209
-0.000786787
-0.00348993
-0.000758614
-0.00335424
-0.000706463
-0.00323139
-0.000624003
-0.00312785
-0.000510374
-0.00304943
-0.000367881
-0.0030003
-0.00020439
-0.00298052
-3.97408e-05
-0.00298372
9.63266e-05
-0.00299396
0.000154449
-0.00298229
6.53224e-05
-0.00290484
-0.000251302
-0.00270378
-0.000874001
-0.00231458
-0.00184827
-0.00167952
-0.00313984