/*--------------------------------*- C++ -*----------------------------------*\
| =========                 |                                                 |
| \\      /  F ield         | OpenFOAM: The Open Source CFD Toolbox           |
|  \\    /   O peration     | Version:  2412                                  |
|   \\  /    A nd           | Website:  www.openfoam.com                      |
|    \\/     M anipulation  |                                                 |
\*---------------------------------------------------------------------------*/
FoamFile
{
    version     2.0;
    format      ascii;
    arch        "LSB;label=32;scalar=64";
    class       volVectorField;
    location    "0.67";
    object      U;
}
// * * * * * * * * * * * * * * * * * * * * * * * * * * * * * * * * * * * * * //

dimensions      [0 1 -1 0 0 0 0];

internalField   nonuniform List<vector> 
12600
(
(19.4354 0 -0.701868)
(7.89514 -3.8479e-20 -1.63965)
(3.34811 -1.81198e-20 -1.68678)
(1.70538 0 -1.24515)
(1.07526 -2.10158e-22 -0.83081)
(0.739117 0 -0.563828)
(0.513821 -2.98324e-20 -0.393378)
(0.351021 0 -0.276304)
(0.229758 0 -0.191017)
(0.137793 0 -0.12683)
(0.0663198 0 -0.0785174)
(0.0104209 -9.65611e-20 -0.0409005)
(-0.033348 -9.87898e-20 -0.0111591)
(-0.0678274 0 0.0126424)
(-0.0949256 2.00697e-19 0.0310305)
(-0.115682 0 0.0457452)
(-0.131637 2.8332e-22 0.0574267)
(-0.143589 0 0.0665015)
(-0.15225 9.72897e-20 0.0733031)
(-0.158055 0 0.0782983)
(-0.161745 0 0.0817744)
(-0.163445 0 0.0839438)
(-0.16354 3.58423e-19 0.0851223)
(-0.162213 -3.49551e-19 0.0855718)
(-0.159795 -2.25178e-22 0.0852881)
(-0.156576 1.64634e-19 0.0842891)
(-0.152689 0 0.0827238)
(-0.148233 0 0.080801)
(-0.14331 0 0.0786312)
(-0.138087 -2.89194e-19 0.0761818)
(-0.132685 -5.58096e-19 0.0735232)
(-0.127177 0 0.0707251)
(-0.121602 0 0.0678445)
(-0.115989 -2.50161e-19 0.0649078)
(-0.110413 -2.40798e-19 0.0619514)
(-0.104925 0 0.0590029)
(-0.0995264 0 0.0560766)
(-0.0942514 -4.2823e-19 0.0532005)
(-0.0891065 0 0.0503816)
(-0.0841265 6.62151e-23 0.0476386)
(-0.0793443 -3.79187e-19 0.0449792)
(-0.0747349 -3.63881e-19 0.0424036)
(-0.070299 0 0.0399227)
(-0.066036 -3.34624e-19 0.0375351)
(-0.0619168 -3.20658e-19 0.0352232)
(-0.0579388 6.1438e-19 0.0329872)
(-0.0541055 -5.88422e-19 0.0308299)
(-0.0504251 0 0.0287597)
(-0.0469545 5.39104e-19 0.0268093)
(-0.0437501 -5.15706e-19 0.0250113)
(-0.040903 0 0.0234178)
(-0.038518 -1.08398e-23 0.0220874)
(-0.036687 4.50451e-19 0.0210727)
(-0.0355088 0 0.02043)
(-0.0350272 -8.21974e-19 0.0201639)
(-0.0352093 0 0.0202662)
(-0.0359416 0 0.0206688)
(-0.0368863 1.04565e-23 0.0211856)
(-0.0374536 1.1664e-23 0.0214602)
(-0.0367398 6.51528e-19 0.0209986)
(-0.0336552 -6.21931e-19 0.0191073)
(-0.0269737 1.18712e-18 0.015133)
(-0.0158105 0 0.00860377)
(-0.00014099 1.0812e-18 -0.00047624)
(0.0189924 1.03118e-18 -0.0114917)
(0.0390808 -1.96509e-18 -0.023)
(0.0559132 9.35328e-19 -0.0326264)
(0.0658821 0 -0.0383159)
(0.0674444 0 -0.0392419)
(0.0638937 0 -0.0371848)
(0.0580866 0 -0.0337986)
(0.0532628 0 -0.030875)
(0.0489821 -1.39019e-18 -0.0281733)
(0.0476237 1.31778e-18 -0.0272225)
(0.0509595 0 -0.0288435)
(0.0555733 0 -0.0310896)
(0.0526458 1.10149e-18 -0.0290235)
(0.033417 3.17077e-22 -0.017323)
(-0.017395 1.91183e-18 0.0127944)
(-0.111298 0 0.0667799)
(-0.235509 0 0.135739)
(-0.337293 0 0.191612)
(-0.346452 -1.4329e-21 0.194005)
(-0.318684 0 0.174408)
(-0.0298049 0 0.0110111)
(1.01441 1.43106e-18 -0.568644)
(0.627994 2.76874e-21 -0.346552)
(1.20845 0 -0.682508)
(1.09031 0 -0.613459)
(-0.0411383 -1.20594e-18 0.014837)
(-0.00450497 -1.39725e-18 -0.000720149)
(-0.0413848 -1.17066e-18 0.0241238)
(0.00416341 -1.23896e-18 -0.00647975)
(0.221541 1.78854e-22 -0.12624)
(0.236615 2.0363e-22 -0.135307)
(0.319345 9.59684e-19 -0.181205)
(0.282495 0 -0.152916)
(-0.0864896 0 0.0659344)
(-0.711706 0 0.422313)
(-1.30158 1.29144e-18 0.745369)
(-1.6866 -8.88242e-19 0.957018)
(-1.78939 1.37246e-18 1.01055)
(-1.65527 1.89991e-18 0.931287)
(-1.29161 0 0.722156)
(-0.855921 0 0.476238)
(-0.300382 0 0.16459)
(-0.186438 4.87941e-18 0.102488)
(-0.0976109 0 0.0523407)
(0.0563969 -4.43833e-18 -0.0344909)
(0.111146 0 -0.0660051)
(0.202593 0 -0.116474)
(0.258468 3.64847e-18 -0.147795)
(0.198574 0 -0.111363)
(0.07283 0 -0.0384371)
(-0.0950449 0 0.0545072)
(-0.115007 -5.33704e-18 0.0636831)
(-0.0183621 0 0.00800974)
(0.0775612 4.74848e-18 -0.0459068)
(0.0963282 0 -0.0563491)
(0.164401 -4.95567e-23 -0.0945372)
(31.0031 -1.52675e-20 -1.07477)
(21.6564 2.22015e-20 -3.45339)
(13.7532 1.35316e-20 -4.33916)
(8.73028 0 -3.76509)
(5.83045 -1.1529e-20 -2.84383)
(4.07813 2.21395e-20 -2.08798)
(2.93966 3.11198e-20 -1.53608)
(2.14525 -3.64433e-20 -1.13192)
(1.56181 0 -0.827972)
(1.11915 0 -0.593907)
(0.775747 0 -0.411532)
(0.505933 0 -0.266957)
(0.291697 0 -0.151211)
(0.119656 0 -0.057896)
(-0.0176931 -7.29505e-22 0.0177612)
(-0.127167 0 0.0782484)
(-0.215152 1.03777e-19 0.126373)
(-0.284822 0 0.164971)
(-0.339341 -2.02108e-19 0.195191)
(-0.380942 1.98149e-19 0.218434)
(-0.412328 0 0.235915)
(-0.43459 1.90118e-19 0.248418)
(-0.449465 -1.86124e-19 0.256665)
(-0.458202 1.81414e-19 0.261196)
(-0.461747 -1.76202e-19 0.262804)
(-0.460895 0 0.262099)
(-0.456316 1.64973e-19 0.259523)
(-0.44884 0 0.255183)
(-0.439051 0 0.249427)
(-0.427317 0 0.242769)
(-0.414161 2.88565e-19 0.235307)
(-0.39994 0 0.227239)
(-0.384927 0 0.218741)
(-0.369319 0 0.209922)
(-0.353395 0 0.200935)
(-0.337372 0 0.191878)
(-0.321329 0 0.182805)
(-0.305426 4.40596e-19 0.173812)
(-0.289734 0 0.164935)
(-0.274385 8.11393e-19 0.156257)
(-0.259502 7.78104e-19 0.147822)
(-0.245051 3.72919e-19 0.139621)
(-0.231062 0 0.131682)
(-0.217553 0 0.12401)
(-0.204452 6.55459e-19 0.116558)
(-0.191756 -6.27321e-19 0.109336)
(-0.17949 6.00069e-19 0.102356)
(-0.16769 0 0.0956509)
(-0.156544 -5.48583e-19 0.0893328)
(-0.146241 0 0.0835141)
(-0.137076 0 0.0783687)
(-0.129386 -4.78026e-19 0.0740883)
(-0.123471 0 0.0708432)
(-0.119643 0 0.0688089)
(-0.118018 8.30483e-19 0.0680199)
(-0.118488 0 0.0683853)
(-0.120629 0 0.0696714)
(-0.123314 1.75087e-23 0.0712027)
(-0.124562 6.85919e-19 0.0718075)
(-0.121489 -3.66469e-23 0.0697005)
(-0.110451 0 0.0627705)
(-0.0875262 -1.188e-18 0.0488432)
(-0.0499296 -1.13212e-18 0.026435)
(0.00245771 0 -0.0043323)
(0.0662392 -2.05505e-18 -0.0413512)
(0.133414 9.86634e-23 -0.0798159)
(0.190505 0 -0.111957)
(0.225533 8.83201e-19 -0.131043)
(0.232744 0 -0.134121)
(0.221434 0 -0.12724)
(0.200942 0 -0.115353)
(0.18203 0 -0.104558)
(0.164297 2.73781e-18 -0.0943452)
(0.155646 -1.29583e-18 -0.0898345)
(0.161548 0 -0.0935243)
(0.170726 0 -0.0985738)
(0.154377 1.07869e-18 -0.0877499)
(0.0831454 5.04245e-22 -0.0437974)
(-0.0909278 5.8359e-22 0.0605906)
(-0.395752 0 0.240201)
(-0.783404 0 0.461792)
(-1.07944 0 0.627314)
(-1.0587 -2.28242e-21 0.610233)
(-0.907596 -1.55558e-18 0.510531)
(-0.135607 1.62719e-18 0.0174171)
(3.08363 -1.3827e-18 -1.80584)
(1.82968 4.17645e-21 -1.06127)
(3.73368 -8.5859e-19 -2.17678)
(3.53626 0 -1.98033)
(0.0594911 1.1591e-18 0.00498336)
(0.0366084 0 -0.0209905)
(-0.137368 1.12245e-18 0.0799546)
(0.0652532 0 -0.0494206)
(0.715219 -2.15861e-18 -0.419766)
(0.771913 -1.00279e-18 -0.448432)
(0.980293 0 -0.567947)
(0.72743 0 -0.40641)
(-0.570363 -1.06614e-18 0.364082)
(-2.54244 6.92702e-19 1.51126)
(-4.2536 -1.2251e-18 2.4851)
(-5.25717 8.43601e-19 3.05321)
(-5.40871 -1.30232e-18 3.12708)
(-4.92056 0 2.83132)
(-3.78823 2.17572e-18 2.1659)
(-2.53425 0 1.43148)
(-0.848404 0 0.468837)
(-0.502793 -4.60687e-18 0.285947)
(-0.252612 0 0.138405)
(0.223178 7.11301e-22 -0.134722)
(0.407902 3.96824e-18 -0.239726)
(0.67074 0 -0.391078)
(0.826121 0 -0.477286)
(0.588466 0 -0.335208)
(0.178381 2.87588e-18 -0.0949477)
(-0.300239 -5.3045e-18 0.178581)
(-0.299976 5.01729e-18 0.172358)
(-0.00610944 0 -0.00145385)
(0.286168 -4.46002e-18 -0.167762)
(0.338032 0 -0.197518)
(0.546786 7.76544e-18 -0.317064)
(34.6025 3.25431e-20 -0.977455)
(30.0631 -8.44641e-21 -3.0641)
(23.5124 -1.67268e-21 -4.76602)
(17.3079 0 -5.13347)
(12.5036 -1.39281e-20 -4.59723)
(9.11715 6.06052e-22 -3.76959)
(6.76129 0 -2.97939)
(5.0747 3.45898e-20 -2.31872)
(3.82462 0 -1.78563)
(2.87162 4.20835e-20 -1.35716)
(2.12979 0 -1.01108)
(1.54304 0 -0.730147)
(1.07362 0 -0.501021)
(0.694489 0 -0.313571)
(0.388505 -9.83797e-20 -0.158186)
(0.139941 0 -0.032056)
(-0.0617186 0 0.0709405)
(-0.224567 0 0.154748)
(-0.355638 9.57145e-20 0.221941)
(-0.459194 -5.44193e-22 0.275808)
(-0.540651 0 0.318163)
(-0.602854 -3.59656e-22 0.350583)
(-0.649188 0 0.374573)
(-0.682037 -1.71288e-19 0.391211)
(-0.703252 0 0.401952)
(-0.715047 0 0.407312)
(-0.719116 -1.56483e-19 0.408023)
(-0.716661 0 0.40511)
(-0.708521 0 0.399541)
(-0.69587 -2.83168e-19 0.39173)
(-0.679701 0 0.382174)
(-0.660734 0 0.37124)
(-0.639608 0 0.359203)
(-0.616779 0 0.346304)
(-0.592799 2.35062e-19 0.332855)
(-0.568128 0 0.319038)
(-0.54299 0 0.304984)
(-0.517715 -4.17114e-19 0.290873)
(-0.492492 0 0.276797)
(-0.467575 -7.68218e-19 0.262924)
(-0.443214 -7.74817e-23 0.249353)
(-0.419408 -3.5306e-19 0.236073)
(-0.396238 0 0.22314)
(-0.373765 0 0.210574)
(-0.351893 -3.10103e-19 0.198317)
(-0.330631 0 0.186398)
(-0.310039 -5.67641e-19 0.17485)
(-0.290191 0 0.163747)
(-0.271404 3.58085e-23 0.153285)
(-0.254011 0 0.143664)
(-0.238508 0 0.135184)
(-0.22547 0 0.128167)
(-0.215405 -4.31085e-19 0.122894)
(-0.208827 0 0.119646)
(-0.205916 0 0.118474)
(-0.206492 0 0.119136)
(-0.209769 0 0.1212)
(-0.213808 1.35832e-18 0.123416)
(-0.21519 0 0.123763)
(-0.209093 -3.04288e-23 0.118999)
(-0.189247 0 0.105731)
(-0.149087 5.60153e-19 0.0803315)
(-0.0839857 1.06742e-18 0.040491)
(0.00633346 0 -0.0133499)
(0.116183 1.9365e-18 -0.0774238)
(0.232311 9.21052e-19 -0.143475)
(0.3322 0 -0.198486)
(0.395234 -8.31757e-19 -0.2312)
(0.410507 0 -0.236433)
(0.391993 0 -0.224336)
(0.355423 0 -0.202778)
(0.319491 0 -0.182205)
(0.284817 4.37146e-23 -0.162308)
(0.264878 1.21862e-18 -0.152388)
(0.26924 0 -0.155412)
(0.278226 0 -0.159642)
(0.243 3.17852e-22 -0.133468)
(0.112141 -1.88994e-18 -0.048151)
(-0.193337 -8.7695e-19 0.140353)
(-0.710127 0 0.44868)
(-1.34875 0 0.810823)
(-1.80955 0 1.0532)
(-1.71573 -2.89249e-18 0.975668)
(-1.39211 2.7649e-21 0.74823)
(-0.30794 -1.52645e-18 -0.0126238)
(4.95159 0 -2.92375)
(2.90783 -9.69992e-19 -1.6792)
(5.96504 8.04928e-19 -3.5013)
(5.99415 0 -3.26605)
(0.379758 0 -0.0861197)
(0.122766 1.25453e-18 -0.0678985)
(-0.228626 0 0.132875)
(0.164715 1.10851e-18 -0.136734)
(1.20454 -2.52161e-22 -0.717923)
(1.31027 9.3947e-19 -0.763287)
(1.58315 -8.60598e-19 -0.910011)
(0.997722 0 -0.502157)
(-1.31055 9.97734e-19 0.897202)
(-4.56453 -6.4816e-19 2.78268)
(-7.20099 1.143e-18 4.24088)
(-8.59419 0 4.97642)
(-8.63657 -1.2012e-18 4.95239)
(-7.76648 0 4.39092)
(-5.92219 -2.03447e-18 3.30159)
(-3.99684 2.23593e-18 2.17865)
(-1.28326 0 0.659343)
(-0.739881 4.30628e-18 0.401232)
(-0.355286 0 0.175156)
(0.421521 7.8276e-18 -0.266291)
(0.744497 -3.70819e-18 -0.446204)
(1.15113 0 -0.675868)
(1.38207 0 -0.792847)
(0.934839 0 -0.514756)
(0.24849 6.73891e-22 -0.111045)
(-0.486527 4.95481e-18 0.294933)
(-0.417401 -4.68365e-18 0.228432)
(0.0494072 0 -0.0496999)
(0.52515 -4.1645e-18 -0.313753)
(0.60313 0 -0.356655)
(0.943333 6.07037e-23 -0.548597)
(35.2104 -1.71127e-20 -1.20099)
(33.9476 -5.01883e-21 -2.42736)
(30.1626 6.36964e-21 -4.19707)
(25.0528 -1.41065e-20 -5.33517)
(19.9036 -2.02763e-20 -5.53888)
(15.4778 -4.22967e-20 -5.09166)
(11.9718 0 -4.37086)
(9.27335 0 -3.61295)
(7.19483 0 -2.91983)
(5.57486 -3.98626e-20 -2.32024)
(4.29517 0 -1.81295)
(3.27191 0 -1.38733)
(2.44572 0 -1.03122)
(1.7732 0 -0.733721)
(1.22402 0 -0.484298)
(0.774 -9.2345e-20 -0.277263)
(0.405342 9.20195e-20 -0.104467)
(0.102686 0 0.037818)
(-0.144022 0 0.155086)
(-0.343569 -1.77604e-19 0.250398)
(-0.504517 1.73767e-19 0.327444)
(-0.63189 -1.70517e-19 0.388625)
(-0.731065 1.66157e-19 0.436444)
(-0.806241 1.62199e-19 0.472795)
(-0.861247 -1.57156e-19 0.49937)
(-0.899602 1.52548e-19 0.517181)
(-0.923551 0 0.527576)
(-0.935608 -1.43455e-19 0.531205)
(-0.938145 0 0.528882)
(-0.931991 2.68007e-19 0.523314)
(-0.919036 0 0.514595)
(-0.900665 0 0.503245)
(-0.877931 0 0.489826)
(-0.851681 -2.31076e-19 0.474704)
(-0.822832 -2.22359e-19 0.458386)
(-0.792182 0 0.441176)
(-0.760177 0 0.423305)
(-0.727378 3.94431e-19 0.405071)
(-0.694152 0 0.386643)
(-0.660921 9.95619e-23 0.368294)
(-0.628111 -3.48105e-19 0.350178)
(-0.595791 0 0.332313)
(-0.564117 0 0.314802)
(-0.533223 0 0.29769)
(-0.503024 0 0.280916)
(-0.473554 -5.60411e-19 0.264546)
(-0.444924 0 0.248641)
(-0.417258 5.12415e-19 0.233331)
(-0.391007 4.89719e-19 0.218904)
(-0.366651 0 0.205655)
(-0.34489 0 0.194015)
(-0.326534 0 0.184435)
(-0.312296 4.0671e-19 0.177303)
(-0.302884 -3.87916e-19 0.172985)
(-0.298542 -7.39738e-19 0.171511)
(-0.298978 0 0.17248)
(-0.303026 -6.71846e-19 0.17519)
(-0.307894 -1.2803e-18 0.177758)
(-0.308718 0 0.177265)
(-0.298777 -1.16243e-18 0.168943)
(-0.269216 0 0.148149)
(-0.210948 -5.27464e-19 0.109897)
(-0.117616 -1.0049e-18 0.051262)
(0.0112435 0 -0.0268189)
(0.167798 -9.1133e-19 -0.118761)
(0.333979 -8.66601e-19 -0.212788)
(0.478732 0 -0.290772)
(0.572711 0 -0.33711)
(0.598708 0 -0.344572)
(0.574101 7.07917e-19 -0.326672)
(0.520296 6.73052e-19 -0.294449)
(0.464406 0 -0.262555)
(0.409159 -1.21005e-18 -0.231295)
(0.373965 -1.14515e-18 -0.214399)
(0.372277 0 -0.215103)
(0.376394 0 -0.215105)
(0.315839 -9.5208e-19 -0.16888)
(0.116836 -4.58421e-22 -0.0345277)
(-0.327815 0 0.247396)
(-1.05511 0 0.687644)
(-1.92576 0 1.17888)
(-2.51237 0 1.4687)
(-2.29805 2.17356e-21 1.29534)
(-1.75357 1.36593e-18 0.917046)
(-0.541452 0 -0.0758209)
(6.52435 0 -3.92804)
(3.90324 0 -2.27535)
(7.70517 7.59297e-19 -4.60051)
(8.3951 0 -4.48542)
(0.948958 1.01148e-18 -0.250302)
(0.261153 -1.1748e-18 -0.12978)
(-0.305414 9.84543e-19 0.176875)
(0.30287 -1.03773e-18 -0.255795)
(1.68134 1.8931e-18 -1.02008)
(1.84099 -8.79219e-19 -1.07715)
(2.10448 8.05288e-19 -1.20275)
(1.05385 0 -0.462192)
(-2.32905 0 1.61764)
(-6.74574 -6.1219e-19 4.17885)
(-10.0456 -5.3373e-19 5.96787)
(-11.5667 -7.19701e-19 6.72483)
(-11.3673 9.34778e-21 6.51679)
(-10.1007 0 5.6873)
(-7.62865 0 4.21199)
(-5.1968 -2.08995e-18 2.77139)
(-1.5828 0 0.762779)
(-0.894312 -4.01969e-18 0.474473)
(-0.400607 0 0.177485)
(0.649127 -6.30182e-22 -0.419675)
(1.11862 0 -0.676318)
(1.63774 -3.2376e-18 -0.968269)
(1.91597 3.00152e-18 -1.09591)
(1.23177 2.76048e-18 -0.664186)
(0.290207 7.54954e-22 -0.108141)
(-0.640592 0 0.396394)
(-0.457044 4.37394e-18 0.242983)
(0.149429 4.16685e-18 -0.124407)
(0.794076 3.88866e-18 -0.477998)
(0.891005 0 -0.530191)
(1.35066 7.07375e-23 -0.788657)
(34.8537 0 -1.69975)
(34.9965 -3.65688e-21 -2.23629)
(33.5398 0 -3.54447)
(30.4552 1.3328e-20 -4.86186)
(26.3683 3.16072e-20 -5.63992)
(22.0338 2.06331e-20 -5.77033)
(18.003 0 -5.41651)
(14.5286 0 -4.80284)
(11.646 -3.41741e-20 -4.10276)
(9.29058 -3.70693e-20 -3.41572)
(7.37198 3.93334e-20 -2.78659)
(5.80527 8.20317e-20 -2.23)
(4.52039 8.43798e-20 -1.74634)
(3.46177 0 -1.33052)
(2.58724 0 -0.974374)
(1.86321 1.74223e-19 -0.672175)
(1.26339 -3.7321e-22 -0.416195)
(0.766215 0 -0.201376)
(0.356042 -8.48512e-20 -0.0203924)
(0.0184198 -1.66994e-19 0.128833)
(-0.257833 -1.64283e-19 0.252161)
(-0.481629 0 0.352433)
(-0.66098 -1.57072e-19 0.433114)
(-0.802505 1.52587e-19 0.496602)
(-0.911764 1.48546e-19 0.545421)
(-0.993557 -1.03123e-22 0.581946)
(-1.0521 0 0.60813)
(-1.09163 1.27768e-22 0.624696)
(-1.11463 0 0.632564)
(-1.12457 2.52735e-19 0.632147)
(-1.12305 0 0.627289)
(-1.11199 0 0.618626)
(-1.0934 0 0.606374)
(-1.06857 2.18252e-19 0.591299)
(-1.03892 0 0.574094)
(-1.00571 0 0.555209)
(-0.969699 0 0.535012)
(-0.93176 0 0.513944)
(-0.892511 -3.57118e-19 0.492276)
(-0.8526 6.85135e-19 0.470414)
(-0.81268 0 0.448583)
(-0.772947 3.14692e-19 0.426842)
(-0.733666 0 0.405362)
(-0.695082 0 0.38422)
(-0.657156 0 0.363372)
(-0.619966 6.94964e-23 0.342931)
(-0.583698 0 0.323005)
(-0.548538 -4.83155e-19 0.303788)
(-0.515074 0 0.285674)
(-0.483943 0 0.269059)
(-0.456045 -4.20889e-19 0.254509)
(-0.432426 0 0.242597)
(-0.413999 0 0.233811)
(-0.401655 7.62238e-24 0.228583)
(-0.395686 6.96745e-19 0.226902)
(-0.395674 0 0.228166)
(-0.400049 1.22182e-23 0.23133)
(-0.405156 1.20526e-18 0.233811)
(-0.404735 0 0.231699)
(-0.39013 5.46957e-19 0.218829)
(-0.350064 0 0.189264)
(-0.273096 4.96213e-19 0.136841)
(-0.151294 9.45194e-19 0.0582498)
(0.0160284 0 -0.044863)
(0.219107 8.56658e-19 -0.165003)
(0.435652 9.38965e-23 -0.286914)
(0.626794 0 -0.387641)
(0.754563 0 -0.447495)
(0.79438 0 -0.457184)
(0.765328 -1.32996e-18 -0.433083)
(0.693719 -2.55793e-23 -0.389201)
(0.615365 0 -0.34441)
(0.536289 1.13617e-18 -0.300124)
(0.482341 2.14998e-18 -0.274503)
(0.470563 0 -0.271076)
(0.465585 0 -0.263155)
(0.373916 0 -0.191096)
(0.0988945 -4.45668e-22 0.00109999)
(-0.491971 0 0.385212)
(-1.4266 0 0.957899)
(-2.50675 0 1.56147)
(-3.17817 0 1.86078)
(-2.80005 1.2682e-18 1.55165)
(-2.00482 1.27387e-18 1.00439)
(-0.805757 0 -0.183281)
(7.71517 0 -4.74382)
(4.90665 0 -2.86435)
(8.79726 2.26789e-21 -5.3608)
(10.6827 0 -5.60172)
(1.76141 -9.46866e-19 -0.487227)
(0.456515 0 -0.206595)
(-0.35626 -9.21408e-19 0.206309)
(0.468946 0 -0.408286)
(2.14037 -8.85745e-19 -1.32184)
(2.35617 0 -1.38167)
(2.53357 0 -1.41979)
(0.898454 0 -0.247754)
(-3.58852 0 2.5463)
(-9.00879 5.7242e-19 5.67094)
(-12.6893 0 7.59278)
(-14.1176 6.7281e-19 8.20321)
(-13.6024 1.04113e-18 7.73785)
(-11.962 0 6.64444)
(-8.95698 0 4.84372)
(-6.15737 0 3.17361)
(-1.76026 0 0.762799)
(-0.98482 2.35374e-21 0.497356)
(-0.397666 0 0.138798)
(0.895573 -6.83003e-18 -0.594743)
(1.52089 0 -0.929904)
(2.12589 6.04819e-18 -1.26427)
(2.42635 -2.80334e-18 -1.37747)
(1.49025 -2.57805e-18 -0.775139)
(0.323885 -2.34449e-18 -0.0866194)
(-0.753818 0 0.475568)
(-0.425911 0 0.205413)
(0.285119 -7.78045e-18 -0.229441)
(1.08782 3.63008e-18 -0.661487)
(1.19849 3.40723e-18 -0.718345)
(1.76589 -3.1603e-18 -1.0347)
(34.4011 0 -2.16416)
(34.8155 3.27687e-20 -2.37731)
(34.6397 0 -3.15443)
(33.3196 0 -4.24209)
(30.8225 0 -5.21836)
(27.5055 0 -5.79649)
(23.8377 0 -5.90751)
(20.2076 2.95198e-20 -5.63589)
(16.8595 3.22458e-20 -5.12116)
(13.9052 6.98456e-20 -4.49019)
(11.3651 -7.40328e-20 -3.83166)
(9.21049 -7.74256e-20 -3.19734)
(7.39453 -7.96467e-20 -2.61281)
(5.86768 0 -2.08839)
(4.58548 0 -1.62493)
(3.50935 -1.63705e-19 -1.22099)
(2.60692 -1.63232e-19 -0.871503)
(1.85078 0 -0.572138)
(1.21908 8.00962e-20 -0.316439)
(0.69311 1.57632e-19 -0.100816)
(0.256974 0 0.0803798)
(-0.102136 1.51078e-19 0.230736)
(-0.395376 0 0.354386)
(-0.632371 -2.90891e-22 0.454518)
(-0.821114 -1.39793e-19 0.534387)
(-0.968865 -1.16935e-22 0.596574)
(-1.08158 0 0.643501)
(-1.16428 1.27794e-19 0.677904)
(-1.2219 -2.46669e-19 0.701869)
(-1.25907 -4.76608e-19 0.714391)
(-1.27879 -2.29861e-19 0.717277)
(-1.2841 0 0.713784)
(-1.27693 -2.13603e-19 0.705875)
(-1.25977 0 0.693375)
(-1.23457 0 0.677562)
(-1.20321 0 0.658996)
(-1.1669 0 0.638207)
(-1.12693 0 0.615811)
(-1.08426 1.12989e-22 0.59221)
(-1.03982 -3.22848e-19 0.56797)
(-0.994574 0 0.543406)
(-0.948904 -5.93042e-19 0.518632)
(-0.903233 0 0.493906)
(-0.857962 0 0.469359)
(-0.813139 0 0.444969)
(-0.768917 4.97798e-19 0.420923)
(-0.725578 0 0.397383)
(-0.683389 0 0.374629)
(-0.643083 0 0.353165)
(-0.605457 0 0.333499)
(-0.571614 7.92358e-19 0.316334)
(-0.542828 0 0.30236)
(-0.520211 0 0.292155)
(-0.50482 3.43834e-19 0.286193)
(-0.496987 0 0.284404)
(-0.496168 0 0.285901)
(-0.500353 1.18988e-18 0.289279)
(-0.505034 -5.66686e-19 0.291183)
(-0.502631 0 0.286611)
(-0.482559 0 0.268192)
(-0.431398 0 0.228603)
(-0.33553 -4.66222e-19 0.160783)
(-0.185642 0 0.0613042)
(0.0192139 0 -0.0672624)
(0.267654 -1.60927e-18 -0.21546)
(0.533952 1.52998e-18 -0.364693)
(0.772407 0 -0.487552)
(0.936793 0 -0.560583)
(0.994074 0 -0.572389)
(0.962998 6.24114e-19 -0.541807)
(0.873737 -5.9318e-19 -0.485483)
(0.770942 -1.12572e-18 -0.426462)
(0.665193 -1.06586e-18 -0.36775)
(0.589104 -1.00836e-18 -0.332426)
(0.563435 9.52001e-19 -0.32341)
(0.545182 0 -0.304336)
(0.416994 0 -0.200223)
(0.058359 7.8093e-19 0.0589826)
(-0.684256 0 0.553885)
(-1.81991 0 1.25774)
(-3.08228 0 1.95268)
(-3.79253 0 2.22075)
(-3.20891 0 1.74037)
(-2.15321 -2.38272e-18 1.02681)
(-1.05331 0 -0.354117)
(8.38191 -1.08335e-18 -5.31105)
(5.9743 0 -3.49108)
(9.12379 1.92103e-21 -5.72927)
(12.7843 9.06262e-19 -6.60252)
(2.79589 0 -0.778585)
(0.71964 0 -0.294505)
(-0.368479 0 0.216115)
(0.653875 0 -0.587657)
(2.57578 8.28981e-19 -1.62071)
(2.84489 0 -1.66979)
(2.84645 0 -1.55578)
(0.519837 0 0.138903)
(-5.05977 0 3.65192)
(-11.2689 0 7.19838)
(-15.0257 0 9.04975)
(-16.1741 0 9.40049)
(-15.3155 0 8.67195)
(-13.3552 -1.33118e-18 7.33408)
(-9.92642 0 5.26433)
(-6.88428 0 3.41936)
(-1.82164 0 0.677096)
(-1.01746 3.50615e-18 0.487541)
(-0.350053 0 0.0679432)
(1.15094 3.18941e-18 -0.783976)
(1.94338 0 -1.20009)
(2.6102 1.01604e-22 -1.56051)
(2.90808 0 -1.63885)
(1.71395 2.40906e-18 -0.857652)
(0.36235 0 -0.0610918)
(-0.819138 0 0.527994)
(-0.323767 0 0.125567)
(0.453063 3.63159e-18 -0.35686)
(1.4028 -6.77755e-18 -0.859954)
(1.52328 -6.36137e-18 -0.918632)
(2.1849 -2.95024e-18 -1.2849)
(34.0709 0 -2.4589)
(34.367 -3.5228e-20 -2.59535)
(34.6102 0 -3.02804)
(34.3148 0 -3.78134)
(33.1684 -2.68623e-20 -4.65928)
(31.1581 -2.63085e-20 -5.41046)
(28.4726 2.71355e-20 -5.86579)
(25.3807 -8.54588e-20 -5.97425)
(22.15 0 -5.77495)
(18.9956 3.7279e-23 -5.35193)
(16.0595 3.47813e-20 -4.79567)
(13.4146 0 -4.18084)
(11.0829 0 -3.55967)
(9.05544 0 -2.96482)
(7.30837 0 -2.4136)
(5.812 3.34071e-22 -1.91497)
(4.53605 3.00895e-22 -1.47091)
(3.45185 7.59144e-20 -1.08098)
(2.53413 7.50376e-20 -0.741315)
(1.76052 0 -0.449013)
(1.11114 -1.45104e-19 -0.199257)
(0.569392 -1.42394e-19 0.0121597)
(0.120266 0 0.189174)
(-0.248901 -2.41118e-22 0.335778)
(-0.549182 1.69975e-22 0.455569)
(-0.790445 -1.28016e-19 0.551927)
(-0.981005 0 0.627881)
(-1.12834 0 0.686104)
(-1.23884 2.32414e-19 0.729038)
(-1.31784 2.34534e-22 0.7603)
(-1.3716 4.32916e-19 0.778469)
(-1.40337 0 0.785758)
(-1.41757 4.02284e-19 0.78414)
(-1.4159 0 0.77758)
(-1.40187 0 0.765769)
(-1.37803 -1.78911e-19 0.749842)
(-1.34619 0 0.730505)
(-1.30817 -3.30081e-19 0.708566)
(-1.26541 1.10444e-22 0.684583)
(-1.21923 3.03745e-19 0.659318)
(-1.17097 0 0.633196)
(-1.12129 6.61144e-23 0.606403)
(-1.07082 0 0.579307)
(-1.02018 0 0.552111)
(-0.96956 0 0.524833)
(-0.919218 0 0.497752)
(-0.869569 0 0.471099)
(-0.820979 4.27834e-19 0.445256)
(-0.774335 0 0.420851)
(-0.730605 0 0.39851)
(-0.691087 -3.72512e-19 0.379074)
(-0.657282 0 0.363346)
(-0.630495 -3.38954e-19 0.351978)
(-0.611938 -3.2317e-19 0.345465)
(-0.601984 6.16008e-19 0.34363)
(-0.59993 0 0.3453)
(-0.603341 -5.58984e-19 0.348604)
(-0.606882 -5.32347e-19 0.349388)
(-0.601725 0 0.341542)
(-0.575533 0 0.316492)
(-0.512937 0 0.265719)
(-0.398438 4.37755e-19 0.181483)
(-0.221561 0 0.060516)
(0.0189612 0 -0.0934708)
(0.310532 7.55134e-19 -0.269073)
(0.624955 -1.43556e-18 -0.444586)
(0.910953 0 -0.588616)
(1.11469 0 -0.674334)
(1.19361 0 -0.688242)
(1.16391 0 -0.651033)
(1.05815 -5.562e-19 -0.581709)
(0.929728 1.05548e-18 -0.507406)
(0.795087 0 -0.433199)
(0.694087 0 -0.38729)
(0.651214 -8.92217e-19 -0.371356)
(0.615923 0 -0.337625)
(0.445824 -7.85877e-19 -0.195139)
(-0.00364886 7.32445e-19 0.140465)
(-0.901925 0 0.753724)
(-2.22894 0 1.58448)
(-3.64154 0 2.34529)
(-4.34234 0 2.53693)
(-3.51842 0 1.85141)
(-2.22362 1.11365e-18 0.994624)
(-1.23781 0 -0.599263)
(8.36959 2.03126e-18 -5.54413)
(7.13426 0 -4.15358)
(8.69194 1.47704e-21 -5.70208)
(14.6405 1.77351e-21 -7.48274)
(4.01495 0 -1.10251)
(1.06222 9.59425e-19 -0.392526)
(-0.329258 0 0.200821)
(0.846061 0 -0.78804)
(2.9826 -1.55045e-18 -1.91388)
(3.29657 0 -1.93224)
(3.03159 0 -1.58658)
(-0.0744775 0 0.709405)
(-6.68911 0 4.91153)
(-13.4284 0 8.69836)
(-16.9696 0 10.2779)
(-17.7364 0 10.2894)
(-16.5801 0 9.30331)
(-14.3631 1.24366e-18 7.76092)
(-10.6128 0 5.48702)
(-7.41421 0 3.51583)
(-1.78971 0 0.513137)
(-1.00821 -3.26995e-18 0.446918)
(-0.267481 -3.17731e-18 -0.0331699)
(1.40106 -2.97733e-18 -0.981125)
(2.3745 2.82029e-18 -1.48213)
(3.08584 9.8732e-23 -1.85345)
(3.36255 -2.44584e-18 -1.87551)
(1.9142 -4.49945e-18 -0.912328)
(0.421754 0 -0.0374478)
(-0.833774 3.76566e-18 0.550626)
(-0.161576 3.55495e-18 0.00249486)
(0.645937 0 -0.505785)
(1.73292 3.16325e-18 -1.07143)
(1.86192 2.96897e-18 -1.12966)
(2.60342 2.7538e-18 -1.53649)
(33.8258 0 -2.62038)
(33.9822 1.74657e-20 -2.76689)
(34.232 0 -3.04568)
(34.326 0 -3.53848)
(33.9834 2.52939e-20 -4.20371)
(33.033 2.47673e-20 -4.90715)
(31.4383 -2.55412e-20 -5.49985)
(29.2741 8.27597e-20 -5.87463)
(26.6873 0 -5.98726)
(23.8541 3.14231e-20 -5.85007)
(20.9457 -6.51854e-20 -5.51104)
(18.1035 0 -5.03166)
(15.4278 6.94715e-20 -4.47098)
(12.9778 0 -3.87771)
(10.7798 7.15339e-20 -3.28696)
(8.83702 7.21427e-20 -2.72274)
(7.13852 7.19823e-20 -2.19893)
(5.66591 -7.14602e-20 -1.72328)
(4.398 -1.41062e-19 -1.29782)
(3.31314 0 -0.922878)
(2.39019 1.3659e-19 -0.595995)
(1.60991 0 -0.314066)
(0.954455 0 -0.0735719)
(0.408032 -1.27266e-19 0.129592)
(-0.0437079 2.47517e-19 0.298955)
(-0.413444 0 0.438461)
(-0.712348 0 0.551557)
(-0.950369 0 0.641564)
(-1.13631 -2.18198e-19 0.711407)
(-1.27798 2.10938e-19 0.7637)
(-1.38162 -1.5651e-22 0.802041)
(-1.45415 1.96211e-19 0.827025)
(-1.50032 -3.78234e-19 0.839256)
(-1.52517 1.81965e-19 0.839789)
(-1.5309 -1.74997e-19 0.835304)
(-1.52178 7.95207e-23 0.8248)
(-1.50051 0 0.809277)
(-1.46957 3.10445e-19 0.789874)
(-1.43101 2.97862e-19 0.767324)
(-1.38666 -2.8563e-19 0.742621)
(-1.33837 0 0.716324)
(-1.28715 2.62309e-19 0.688709)
(-1.23394 2.51151e-19 0.660281)
(-1.17964 2.4041e-19 0.631338)
(-1.12465 2.30022e-19 0.601954)
(-1.06938 0 0.57252)
(-1.01442 0 0.543357)
(-0.960247 -4.42259e-23 0.514962)
(-0.907929 0 0.488102)
(-0.858611 0 0.463524)
(-0.813782 -3.4989e-19 0.442213)
(-0.77517 3.33794e-19 0.425077)
(-0.744264 3.18338e-19 0.412826)
(-0.722424 7.11879e-24 0.40595)
(-0.710016 -1.31362e-23 0.404208)
(-0.706299 0 0.405884)
(-0.708313 0 0.40879)
(-0.709984 9.99351e-19 0.407879)
(-0.701367 0 0.395913)
(-0.668556 0 0.363224)
(-0.594533 -4.31319e-19 0.300252)
(-0.462244 0 0.198855)
(-0.260275 0 0.0562069)
(0.013042 7.44082e-19 -0.122658)
(0.344393 -7.07964e-19 -0.324473)
(0.704241 1.34596e-18 -0.524761)
(1.03724 0 -0.688691)
(1.2829 -6.06829e-19 -0.786493)
(1.38825 0 -0.802542)
(1.36444 0 -0.758799)
(1.24456 1.04244e-18 -0.676235)
(1.09038 0 -0.585982)
(0.925433 0 -0.495615)
(0.797308 0 -0.438748)
(0.734571 0 -0.414295)
(0.678222 0 -0.363038)
(0.461166 7.3592e-19 -0.175176)
(-0.0857832 4.41497e-22 0.246526)
(-1.14144 -6.36813e-19 0.984483)
(-2.64624 5.90623e-19 1.9344)
(-4.17277 0 2.73099)
(-4.81464 0 2.79879)
(-3.72439 0 1.88195)
(-2.25176 0 0.929866)
(-1.35072 0 -0.899195)
(7.54172 3.27174e-21 -5.3755)
(8.35028 0 -4.83735)
(7.66579 -5.87295e-19 -5.36921)
(16.2184 1.29773e-21 -8.25652)
(5.37477 0 -1.43576)
(1.49621 -8.97033e-19 -0.499145)
(-0.225466 0 0.156182)
(1.03448 7.89095e-19 -1.00234)
(3.35601 -2.62331e-22 -2.19875)
(3.69915 0 -2.1591)
(3.07337 0 -1.50044)
(-0.872402 0 1.46044)
(-8.41564 0 6.28553)
(-15.3904 4.71699e-19 10.1039)
(-18.4686 0 11.2393)
(-18.8354 0 10.9013)
(-17.4593 8.14696e-19 9.71397)
(-15.0596 0 7.99739)
(-11.081 -1.41311e-18 5.57027)
(-7.78326 1.57313e-18 3.49249)
(-1.69086 0 0.290174)
(-0.967401 6.10482e-18 0.387311)
(-0.159022 1.29719e-21 -0.157276)
(1.62995 5.55961e-18 -1.17728)
(2.80141 -2.63335e-18 -1.76893)
(3.54777 -2.46248e-18 -2.13978)
(3.79012 2.2835e-18 -2.08943)
(2.09963 2.10071e-18 -0.946893)
(0.5137 1.91043e-18 -0.0248628)
(-0.79742 -3.51531e-18 0.542875)
(0.051799 -3.31849e-18 -0.153674)
(0.858914 -3.16227e-18 -0.671306)
(2.07188 -2.95205e-18 -1.29184)
(2.21097 0 -1.34913)
(3.01666 0 -1.78679)
(33.6077 0 -2.71453)
(33.6845 1.8965e-20 -2.87417)
(33.8505 0 -3.09691)
(34.007 0 -3.43722)
(33.9964 0 -3.9108)
(33.6649 0 -4.47488)
(32.8982 2.84359e-20 -5.04386)
(31.6434 -2.68048e-20 -5.5233)
(29.9128 2.89269e-20 -5.84023)
(27.7736 -5.8635e-20 -5.95736)
(25.3306 6.12774e-20 -5.87232)
(22.7065 0 -5.60878)
(20.023 -6.53063e-20 -5.20538)
(17.3868 0 -4.70606)
(14.8797 -6.72494e-20 -4.15224)
(12.5566 -6.71965e-20 -3.5793)
(10.4473 0 -3.01403)
(8.56247 0 -2.47565)
(6.89924 6.62168e-20 -1.97569)
(5.44682 0 -1.52115)
(4.18962 0 -1.11456)
(3.11025 -1.25198e-19 -0.755943)
(2.19064 0 -0.443691)
(1.41326 0 -0.174888)
(0.761473 -1.16279e-19 0.0536532)
(0.219823 0 0.245715)
(-0.225744 0 0.404939)
(-0.587994 0 0.53499)
(-0.878388 4.10009e-19 0.639258)
(-1.10716 0 0.721131)
(-1.28341 -1.35501e-22 0.78327)
(-1.41466 -1.29213e-22 0.829127)
(-1.50864 1.77679e-19 0.861561)
(-1.57147 -1.71013e-19 0.878693)
(-1.60848 3.28823e-19 0.882822)
(-1.62377 1.5807e-19 0.88047)
(-1.62093 0 0.871591)
(-1.60368 0 0.857129)
(-1.57484 2.79641e-19 0.838115)
(-1.53691 -2.68161e-19 0.815823)
(-1.4924 0 0.790968)
(-1.44283 0 0.763933)
(-1.38952 -5.45118e-23 0.735391)
(-1.33375 -2.25782e-19 0.705763)
(-1.27623 -2.16009e-19 0.675192)
(-1.21755 -4.13079e-19 0.644213)
(-1.15855 0 0.613248)
(-1.09986 -4.31521e-23 0.582931)
(-1.04272 0 0.554181)
(-0.988482 0 0.527873)
(-0.938822 3.284e-19 0.505136)
(-0.895691 -3.13263e-19 0.486974)
(-0.86076 0 0.474142)
(-0.835514 2.84752e-19 0.467098)
(-0.820388 -1.27e-23 0.465461)
(-0.814504 0 0.467078)
(-0.814467 0 0.469241)
(-0.813563 -9.3729e-19 0.466059)
(-0.800889 0 0.449175)
(-0.761214 0 0.40795)
(-0.67621 8.08788e-19 0.331987)
(-0.527623 0 0.213038)
(-0.303315 0 0.0489731)
(-0.00110679 -1.39477e-18 -0.1537)
(0.365557 6.63527e-19 -0.380013)
(0.76704 -6.3062e-19 -0.603158)
(1.14563 0 -0.785456)
(1.43552 5.6855e-19 -0.894669)
(1.57266 0 -0.913016)
(1.56053 -5.1373e-19 -0.863094)
(1.43038 -4.88168e-19 -0.767428)
(1.25162 0 -0.661018)
(1.05595 0 -0.554292)
(0.899168 8.2953e-19 -0.486472)
(0.814008 7.82983e-19 -0.452579)
(0.733011 0 -0.380104)
(0.463974 0 -0.139445)
(-0.186349 -1.28493e-18 0.3781)
(-1.3985 5.95921e-19 1.24534)
(-3.06336 -1.10547e-18 2.30277)
(-4.66422 0 3.10044)
(-5.1997 0 2.99586)
(-3.83115 0 1.83371)
(-2.28815 0 0.86134)
(-1.4484 0 -1.18904)
(5.86679 2.88173e-21 -4.7945)
(9.552 0 -5.51063)
(6.35462 0 -4.89971)
(17.5191 9.25251e-22 -8.95467)
(6.83306 0 -1.75839)
(2.03096 -8.36751e-19 -0.612487)