/*--------------------------------*- C++ -*----------------------------------*\
| =========                 |                                                 |
| \\      /  F ield         | OpenFOAM: The Open Source CFD Toolbox           |
|  \\    /   O peration     | Version:  2412                                  |
|   \\  /    A nd           | Website:  www.openfoam.com                      |
|    \\/     M anipulation  |                                                 |
\*---------------------------------------------------------------------------*/
FoamFile
{
    version     2.0;
    format      ascii;
    arch        "LSB;label=32;scalar=64";
    class       surfaceScalarField;
    location    "0.24";
    object      ddtCorrDdt0(phi);
}
// * * * * * * * * * * * * * * * * * * * * * * * * * * * * * * * * * * * * * //

dimensions      [0 3 -2 0 0 0 0];

oriented        oriented;

internalField   nonuniform List<scalar> 
24930
(
0.00615248
0.0108719
-0.00564823
0.00033976
0.00458032
-0.00269857
0.00154914
-0.00273538
0.00086541
-0.00174099
0.000737745
-0.000826693
0.000613723
-0.000225514
0.000491419
0.000127538
0.000374466
0.00032426
0.000280087
0.000443961
0.000196691
0.000539932
0.000131258
0.000634707
9.77217e-05
0.000721739
9.58959e-05
0.0007782
0.000108413
0.000782397
0.000116299
0.00072584
0.000112328
0.000614735
0.000100558
0.000463353
8.81291e-05
0.000285536
7.93739e-05
8.93076e-05
7.51347e-05
-0.0001238
7.42612e-05
-0.00035581
7.44917e-05
-0.000608051
7.26139e-05
-0.000877766
6.4991e-05
-0.00115681
4.87968e-05
-0.00143256
2.32648e-05
-0.00169018
-9.93436e-06
-0.00191499
-4.74686e-05
-0.00209415
-8.57672e-05
-0.00221718
-0.000122238
-0.00227589
-0.000155706
-0.00226419
-0.000186044
-0.00217834
-0.000213385
-0.00201778
-0.000237447
-0.00178644
-0.000257222
-0.00149374
-0.000271214
-0.00115498
-0.000277973
-0.000790767
-0.000276628
-0.000425254
-0.000267328
-8.39195e-05
-0.000251116
0.000209218
-0.000229764
0.000434164
-0.00020555
0.000577243
-0.000180698
0.000633079
-0.000157634
0.000605068
-0.000138226
0.000505073
-0.0001239
0.000351711
-0.000115435
0.000166077
-0.000111522
-3.15097e-05
-0.000108676
-0.00022684
-0.000101579
-0.000414866
-8.20422e-05
-0.000596137
-4.79001e-05
-0.000776763
1.02215e-06
-0.00095622
5.54898e-05
-0.00112338
0.000100872
-0.00125714
0.000128568
-0.00132317
0.000129976
-0.0012947
0.000111815
-0.00115779
8.54386e-05
-0.000921495
6.2163e-05
-0.000614618
3.53175e-05
-0.000284052
5.20644e-06
4.56678e-05
-6.55504e-05
0.000333687
-0.000175101
0.000563604
-0.000299368
0.000695307
-0.000406227
0.000638514
-0.000169315
0.000364114
9.42098e-05
-0.000109395
0.000354512
-0.00057869
0.000426606
-0.000702358
0.000149807
-0.000316049
-0.000225568
0.000541296
-0.000457311
0.00115226
3.54621e-05
0.000784284
0.00110777
-0.000738397
0.00206375
-0.00285692
0.00223494
-0.00417372
0.00200472
-0.00425965
0.0022184
-0.00297032
0.000819502
-0.00172844
0.000249668
-0.00137879
0.000199939
-0.00204155
0.000218045
-0.00267975
0.000307655
-0.00313339
0.000878322
-0.00316763
0.000720673
-0.00365977
0.000323847
-0.00399174
-0.000141539
-0.00414427
-0.000613522
-0.0041435
-0.00147421
-0.00384672
-0.00185968
-0.00335486
-0.00172425
-0.00353218
-0.00101304
-0.00513444
0.00035045
-0.00803378
0.00152939
-0.0105803
0.0016732
-0.01124
0.000900672
-0.00920137
-0.000325476
-0.00541524
-0.000584243
-0.00182519
0.000801965
0.000339751
0.00081351
-0.000133667
0.00300205
-0.00287817
0.00436702
-0.0076178
0.00499148
-0.0136074
0.00503789
-0.0189229
0.00432364
-0.0230841
0.00358787
-0.0250317
0.00180319
-0.0259505
0.0013027
-0.0258291
0.000633386
-0.0258249
0.000457313
-0.0234668
-0.0013041
-0.0227102
-0.000580454
-0.0187138
-0.00240496
-0.0177973
-0.00124729
-0.0150452
-0.00151495
-0.0205581
0.00633173
-0.0149944
-0.00383435
-0.0203482
-0.000639431
0.00374159
0.00894563
0.0115649
-0.00733985
0.00532318
0.00892987
0.00196997
0.00618267
0.000570251
0.00450209
0.000320471
0.00338751
0.000345965
0.00251456
0.000321207
0.00186308
0.000194283
0.00139565
1.26293e-05
0.00105869
-0.000169489
0.000813
-0.000314345
0.0006419
-0.000414573
0.00053184
-0.000490836
0.000460686
-0.000577032
0.00040317
-0.000702591
0.000343602
-0.000880637
0.000280643
-0.00110642
0.00022077
-0.00136449
0.000169211
-0.00163893
0.000126418
-0.00192073
8.98047e-05
-0.00220921
5.59729e-05
-0.00250833
2.09722e-05
-0.0028209
-2.00821e-05
-0.00314419
-7.20354e-05
-0.00346862
-0.000137337
-0.00377952
-0.000214048
-0.00406027
-0.000295865
-0.00429527
-0.000374299
-0.00447155
-0.000441697
-0.00457893
-0.000493484
-0.00460952
-0.000528768
-0.00455715
-0.000549499
-0.00441773
-0.000558942
-0.00419032
-0.000560414
-0.00387879
-0.00055664
-0.00349313
-0.00054996
-0.00304997
-0.000542723
-0.00257175
-0.000537814
-0.0020848
-0.000538394
-0.00161677
-0.00054766
-0.00119375
-0.000567547
-0.000837429
-0.000599114
-0.000562939
-0.000640788
-0.000376608
-0.000690341
-0.000275857
-0.000742593
-0.000248994
-0.00079284
-0.000277476
-0.00083425
-0.000339751
-0.000861396
-0.000415783
-0.000865893
-0.000492038
-0.000842889
-0.000565772
-0.000784576
-0.000640242
-0.000692551
-0.000725249
-0.000568801
-0.000824128
-0.00042003
-0.000929097
-0.000257754
-0.00102361
-7.93599e-05
-0.00107565
0.000106847
-0.00106517
0.000314451
-0.000983946
0.000541596
-0.000855374
0.000798146
-0.000721346
0.00106108
-0.000644043
0.00131919
-0.000651896
0.00152644
-0.000772541
0.00164086
-0.00099593
0.00167344
-0.00131395
0.00156589
-0.00176246
0.00143748
-0.00230507
0.00120102
-0.00285197
0.00083105
-0.0031084
0.000255742
-0.00259688
-0.000692653
-0.00118856
-0.00150705
0.000879262
-0.00192528
0.0022799
-0.00102943
0.00151796
0.00127185
-0.00186831
0.0035907
-0.00679081
0.0049027
-0.0103024
0.00491697
-0.0105773
0.0043888
-0.00789318
-0.000464797
-0.00476964
-0.00227156
-0.0034755
-0.00124373
-0.00465292
0.000822565
-0.00604585
0.00129932
-0.00731484
0.00235983
-0.00888528
0.00317592
-0.0115372
0.00355448
-0.0138606
0.00353428
-0.0158603
0.0034846
-0.0175483
0.0033969
-0.0182088
0.0022134
-0.0180555
0.00112295
-0.0187481
0.00128305
-0.0217636
0.00275965
-0.0266398
0.00390732
-0.0301805
0.00266819
-0.0290094
-0.00177488
-0.022001
-0.00687746
-0.0115421
-0.00989763
-0.00286601
-0.00697797
0.000617599
-0.0014924
-0.00405966
0.00909816
-0.0154826
0.0166649
-0.0324023
0.0227567
-0.0517867
0.0258461
-0.0682434
0.0229499
-0.0798939
0.0176778
-0.0850455
0.0100526
-0.0858984
0.00428222
-0.0841106
0.00102261
-0.0810118
-0.00207263
-0.0748026
-0.00493955
-0.0698335
-0.00560581
-0.0623989
-0.00543644
-0.0593573
-0.00348254
-0.0553146
-0.00146038
-0.0611868
0.00670019
-0.0542628
-0.00354165
-0.0611194
-5.35535e-06
0.00887392
0.00953936
0.0103179
-0.00821972
0.00767696
0.00973066
0.00565377
0.00845337
0.00436134
0.00713033
0.00357163
0.00589245
0.0028838
0.00470786
0.00215419
0.00367757
0.00140165
0.00286576
0.000683586
0.002255
4.9431e-05
0.00180215
-0.000475513
0.00147251
-0.000899
0.0012351
-0.00125522
0.0010557
-0.00158801
0.000903811
-0.00193398
0.000763451
-0.00231188
0.000633456
-0.00272082
0.000517771
-0.00314696
0.000416827
-0.00357434
0.000326745
-0.00399384
0.000242954
-0.00440568
0.000161811
-0.00481539
7.89297e-05
-0.00522686
-1.22527e-05
-0.0056371
-0.000118642
-0.00603503
-0.000243242
-0.00640404
-0.000381896
-0.00672607
-0.000523638
-0.00698491
-0.000654534
-0.00716774
-0.00076261
-0.00726477
-0.000841323
-0.00726834
-0.000890377
-0.00717219
-0.000914309
-0.00697185
-0.000920013
-0.0066661
-0.000914728
-0.00625897
-0.000904946
-0.00576132
-0.000896656
-0.00519134
-0.00089569
-0.0045736
-0.000908348
-0.00393686
-0.000940395
-0.00331124
-0.000996654
-0.00272522
-0.00107836
-0.00220262
-0.00118422
-0.00176049
-0.00130733
-0.00140667
-0.00143939
-0.0011398
-0.001567
-0.000948948
-0.00167911
-0.000816017
-0.00176161
-0.00071984
-0.00180607
-0.00064145
-0.00179952
-0.00056941
-0.00173757
-0.0005047
-0.00161167
-0.00045503
-0.00142595
-0.000435659
-0.00118393
-0.000455221
-0.000890418
-0.000510819
-0.000556224
-0.000590796
-0.000171118
-0.000666583
0.000253079
-0.00072394
0.000736216
-0.000760701
0.00126056
-0.000812062
0.00183805
-0.000929411
0.00242087
-0.00118554
0.0029815
-0.00160341
0.00344804
-0.00219313
0.00371784
-0.00290532
0.00378426
-0.00367766
0.00349696
-0.00448965
0.00299495
-0.00524315
0.00217536
-0.00578126
0.00106884
-0.00571752
-0.000316943
-0.00447507
-0.00220752
-0.00200166
-0.00371041
0.00120861
-0.00434102
0.00314242
-0.00247729
0.0016174
0.00235388
-0.00400239
0.00769693
-0.0118719
0.0109649
-0.0174008
0.00906665
-0.0174888
0.00483072
-0.0131781
-0.0043922
-0.00825036
-0.00653747
-0.00631741
-0.00324212
-0.0082254
0.00231957
-0.0105071
0.00340656
-0.012799
0.00512059
-0.0162633
0.00780446
-0.0212872
0.00985164
-0.025933
0.0094156
-0.0300704
0.00913398
-0.0335446
0.00887688
-0.0351636
0.00585194
-0.0354303
0.00284042
-0.0368455
0.0026849
-0.0414788
0.00565215
-0.0482497
0.00775551
-0.0522342
0.00436746
-0.0484627
-0.00633689
-0.0359735
-0.0180304
-0.0191279
-0.0243716
-0.00652649
-0.0170268
-0.00363695
-0.00184325
-0.0146539
0.0226293
-0.0368726
0.0394324
-0.0675578
0.0547578
-0.10105
0.0606394
-0.128573
0.0521696
-0.147031
0.0379229
-0.154674
0.0199076
-0.154842
0.00584635
-0.1508
-0.00132963
-0.144137
-0.00853697
-0.133647
-0.0128045
-0.124401
-0.015207
-0.113632
-0.0119899
-0.108761
-0.00787469
-0.103526
-0.00299291
-0.110013
0.0071166
-0.101599
-0.00415174
-0.110372
0.00201012
0.0160623
0.00974747
0.00894056
-0.00919569
0.0085934
0.00914056
0.00774261
0.0089949
0.00729007
0.00844985
0.00685234
0.00765372
0.00612215
0.00667807
0.00507298
0.00565448
0.0038475
0.00471409
0.00259888
0.00391673
0.00143701
0.00326588
0.000417049
0.00274831
-0.000458074
0.00234243
-0.0012216
0.0020176
-0.00192037
0.00174343
-0.00259588
0.00150218
-0.00327296
0.00128923
-0.00395655
0.00110282
-0.0046363
0.000936387
-0.00529698
0.000780757
-0.00592909
0.000629841
-0.00653309
0.000481268
-0.00711579
0.000331705
-0.00768231
0.000173448
-0.00822972
-3.03021e-06
-0.00874563
-0.000202347
-0.00921162
-0.000418975
-0.00960827
-0.000637611
-0.00991898
-0.000838789
-0.0101312
-0.00100598
-0.0102357
-0.00113052
-0.010225
-0.00121267
-0.0100927
-0.00125963
-0.00983389
-0.00128193
-0.00944707
-0.0012906
-0.00893638
-0.00129554
-0.00831358
-0.00130597
-0.00759852
-0.0013308
-0.00681801
-0.00137955
-0.0060034
-0.0014605
-0.00518758
-0.00158017
-0.00440178
-0.00173908
-0.0036725
-0.00193348
-0.00301933
-0.00215083
-0.00245244
-0.00237634
-0.00197258
-0.00258778
-0.00157057
-0.00276742
-0.0012299
-0.0028934
-0.000931134
-0.00295393
-0.00065794
-0.00293051
-0.000402699
-0.0028184
-0.000171935
-0.00260709
2.03314e-05
-0.0023026
0.000151724
-0.00190954
0.000206751
-0.00143059
0.000182441
-0.000876516
8.4904e-05
-0.000229555
-6.06153e-05
0.00049301
-0.000245044
0.0013187
-0.00047079
0.00221146
-0.000782076
0.00318842
-0.00123548
0.00417042
-0.00190797
0.00510992
-0.00280906
0.00589325
-0.00392288
0.00634012
-0.0051528
0.00641046
-0.006377
0.00584542
-0.00752025
0.00483102
-0.00842299
0.00323498
-0.00886781
0.00115332
-0.00839139
-0.00133262
-0.00634809
-0.00451087
-0.00281006
-0.0069335
0.00140828
-0.00771399
0.00359115
-0.00415186
0.000934367
0.00454959
-0.00721706
0.0143155
-0.0180805
0.0200332
-0.0254331
0.0152624
-0.0249731
0.00298413
-0.0189562
-0.00993064
-0.0123215
-0.012408
-0.010049
-0.00557664
-0.0129177
0.00476324
-0.016263
0.00659146
-0.0198824
0.00929797
-0.0255093
0.0146056
-0.0332316
0.0187295
-0.0404716
0.0179364
-0.046972
0.0171796
-0.0522854
0.0161943
-0.0548667
0.0104352
-0.0556733
0.00503586
-0.0580332
0.00487779
-0.0644465
0.0101193
-0.0729552
0.0131173
-0.0768523
0.00581942
-0.0698403
-0.0142161
-0.0516777
-0.0348293
-0.029031
-0.0445277
-0.0139946
-0.0292888
-0.01375
0.00108147
-0.0333045
0.0426202
-0.068364
0.0756832
-0.114125
0.102045
-0.162259
0.11017
-0.200629
0.0923239
-0.225221
0.064377
-0.23468
0.0316415
-0.23364
0.00620072
-0.22685
-0.00641836
-0.216211
-0.0190766
-0.201129
-0.0251797
-0.187566
-0.0292614
-0.173631
-0.0215038
-0.1672
-0.013868
-0.160919
-0.00537919
-0.168269
0.00788235
-0.158322
-0.00580194
-0.169289
0.00571112
0.0254994
0.0102004
0.00805224
-0.0101559
0.00911987
0.00842736
0.00878525
0.00883879
0.00905807
0.00889189
0.00929026
0.00860823
0.00906219
0.00804845
0.00826876
0.00732031
0.00703457
0.00653965
0.00555916
0.00577976
0.00402122
0.00507366
0.00254355
0.00443976
0.00118149
0.00388986
-6.46342e-05
0.00341948
-0.00122355
0.00301256
-0.00232944
0.00265591
-0.00340731
0.00234394
-0.0044662
0.00207008
-0.00549938
0.00182041
-0.0064921
0.00157911
-0.00743282
0.00133781
-0.0083202
0.00109642
-0.00916092
0.000854843
-0.00996112
0.000605959
-0.0107183
0.000337837
-0.011419
4.32119e-05
-0.0120429
-0.000272247
-0.0125688
-0.000589546
-0.0129794
-0.000883676
-0.0132625
-0.00113326
-0.0134094
-0.00132726
-0.013413
-0.00146643
-0.0132667
-0.00156068
-0.0129653
-0.00162425
-0.0125066
-0.00167187
-0.011895
-0.00171659
-0.011143
-0.00177045
-0.010272
-0.00184506
-0.00931123
-0.0019529
-0.0082948
-0.00210475
-0.00725857
-0.00230882
-0.00623692
-0.00256491
-0.00525952
-0.00286674
-0.00434924
-0.00319579
-0.00351934
-0.00353045
-0.00277373
-0.00383891
-0.00210621
-0.0040962
-0.00150337
-0.00427168
-0.000949236
-0.00434949
-0.000432111
-0.00430407
4.96039e-05
-0.00412921
0.000481523
-0.00381117
0.00084095
-0.0033573
0.00109628
-0.00277304
0.00122318
-0.00205868
0.00121159
-0.00122557
0.00106122
-0.000247867
0.00079427
0.00084913
0.0004156
0.00210191
-7.93439e-05
0.00345172
-0.000739969
0.00492238
-0.0016223
0.00639517
-0.00279968
0.00779722
-0.00425941
0.00895677
-0.00595046
0.00959821
-0.0077219
0.00963153
-0.00938927
0.00867362
-0.0108229
0.00695924
-0.0118105
0.00435418
-0.0120812
0.00101709
-0.0111179
-0.00287983
-0.0082405
-0.00766985
-0.00369532
-0.011156
0.00133845
-0.0118946
0.00344395
-0.00575274
-0.000703835
0.00821299
-0.0116179
0.0236713
-0.0254227
0.032013
-0.0343016
0.0232548
-0.0331099
0.00155647
-0.0252812
-0.016636
-0.0171509
-0.0197092
-0.014855
-0.00793951
-0.0189185
0.00839183
-0.0235452
0.0110727
-0.0287377
0.0151291
-0.0369087
0.0242467
-0.047599
0.0308559
-0.0577343
0.029475
-0.0667531
0.0278633
-0.0739116
0.025474
-0.0774573
0.016045
-0.0789423
0.00789458
-0.0824696
0.00812243
-0.0907781
0.0162938
-0.100808
0.0197691
-0.104119
0.0064805
-0.0934172
-0.0259563
-0.0697021
-0.0572656
-0.0422004
-0.0695205
-0.0265118
-0.0420362
-0.0310814
0.00786997
-0.0614443
0.0751053
-0.111136
0.127348
-0.173091
0.166089
-0.23616
0.175047
-0.285072
0.143291
-0.315168
0.0964524
-0.325855
0.0446045
-0.323192
0.00481327
-0.313294
-0.014724
-0.29836
-0.0341368
-0.27846
-0.0423859
-0.260588
-0.0478636
-0.243658
-0.0338713
-0.235956
-0.0212296
-0.228776
-0.00851427
-0.237244
0.0092151
-0.225773
-0.00844381
-0.239053
0.0112126
0.0373267
0.0108912
0.00768072
-0.0110306
0.00975774
0.008061
0.00945006
0.00863124
0.010055
0.00897706
0.0108127
0.00903755
0.0111923
0.00884062
0.0109695
0.00846291
0.0101563
0.00798699
0.00889095
0.00745483
0.00734651
0.00688443
0.00567655
0.00629686
0.0039883
0.00572318
0.00233469
0.00518683
0.000728622
0.00469439
-0.000836231
0.00424604
-0.00236995
0.00384302
-0.00387661
0.00348072
-0.00534885
0.00314167
-0.00676975
0.00280355
-0.00812218
0.00245443
-0.00939832
0.00209685
-0.0106008
0.00173681
-0.0117347
0.00137126
-0.0127977
0.000987543
-0.0137752
0.00057498
-0.0146444
0.000137571
-0.0153812
-0.000303243
-0.0159668
-0.000717033
-0.0163883
-0.00107702
-0.0166375
-0.00136917
-0.0167076
-0.00159443
-0.0165921
-0.0017654
-0.0162849
-0.00190017
-0.0157836
-0.00201724
-0.015092
-0.00213269
-0.0142232
-0.00226099
-0.0132002
-0.00241599
-0.0120543
-0.00261278
-0.0108225
-0.00286438
-0.00954383
-0.0031807
-0.00825619
-0.00356061
-0.00699282
-0.00399518
-0.00578047
-0.00445941
-0.00463638
-0.00492438
-0.00356872
-0.00534779
-0.00257565
-0.00569664
-0.00164869
-0.00593026
-0.000777393
-0.00602764
4.28856e-05
-0.00595453
0.000805073
-0.00570182
0.00148404
-0.00525105
0.00204539
-0.00461019
0.00244553
-0.00378538
0.0026487
-0.00277425
0.00263607
-0.00159016
0.00239964
-0.000198889
0.00195884
0.00136241
0.00131538
0.00313977
0.00046577
0.00504568
-0.000639756
0.0071107
-0.00204961
0.0091667
-0.00382453
0.0111086
-0.00592023
0.0126902
-0.0082411
0.0135238
-0.010576
0.0134557
-0.012676
0.011968
-0.014359
0.00935628
-0.0153698
0.00549233
-0.0153964
0.000607367
-0.0138991
-0.00499705
-0.0102
-0.011673
-0.00476778
-0.0162626
0.00082907
-0.0166117
0.00251249
-0.00693734
-0.00344755
0.0136281
-0.0172694
0.0358395
-0.0338904
0.0467581
-0.0439908
0.0325539
-0.0419068
-1.91405e-05
-0.0322937
-0.024897
-0.0229207
-0.0282477
-0.0209314
-0.0100217
-0.0264315
0.0134313
-0.0325821
0.0170638
-0.0398035
0.023062
-0.0507028
0.036909
-0.0646915
0.0464865
-0.0779014
0.0441917
-0.0895237
0.0412832
-0.0984905
0.0367234
-0.103001
0.0227569
-0.10531
0.011652
-0.110212
0.0127059
-0.12049
0.0242911
-0.131819
0.0274882
-0.134166
0.00596084
-0.119581
-0.0417446
-0.0907656
-0.0848514
-0.0596526
-0.0980886
-0.0452612
-0.0533171
-0.0568746
0.0223711
-0.10009
0.121091
-0.165947
0.19561
-0.244975
0.247495
-0.323172
0.255329
-0.38238
0.204773
-0.417525
0.133719
-0.429036
0.0584938
-0.424529
0.00158526
-0.411317
-0.0263279
-0.391908
-0.0537878
-0.367007
-0.0645012
-0.344829
-0.070921
-0.324999
-0.0488869
-0.316286
-0.0296319
-0.308338
-0.0121829
-0.318156
0.0113372
-0.305218
-0.0119769
-0.320695
0.0184085
0.0514524
0.0116892
0.00777324
-0.0118075
0.0105631
0.00813151
0.0100971
0.00866807
0.010744
0.00908807
0.0117614
0.00930253
0.0125818
0.00931858
0.0129071
0.00919533
0.0126586
0.00899169
0.0118785
0.00873011
0.0106771
0.00839571
0.00917678
0.0079916
0.00748663
0.00754023
0.00568538
0.00707181
0.0038203
0.00660433
0.00191805
0.00614761
-5.21179e-06
0.00571178
-0.00193707
0.00530036
-0.00386165
0.00489886
-0.00575508
0.00448102
-0.00758967
0.0040301
-0.00934402
0.00355038
-0.0110089
0.00305665
-0.0125827
0.00255519
-0.0140602
0.00203665
-0.015425
0.00148748
-0.0166503
0.000907863
-0.0177072
0.000319573
-0.0185725
-0.000242032
-0.0192312
-0.000743839
-0.0196741
-0.00116753
-0.0198944
-0.00151334
-0.0198851
-0.00179622
-0.0196396
-0.00203823
-0.0191542
-0.00226188
-0.0184319
-0.0024863
-0.0174855
-0.00272817
-0.0163389
-0.00300295
-0.0150254
-0.00332779
-0.0135848
-0.00371756
-0.0120591
-0.00418365
-0.0104898
-0.0047238
-0.00891407
-0.00532614
-0.00736297
-0.0059585
-0.00585838
-0.00658403
-0.00441382
-0.00714863
-0.00303326
-0.00761023
-0.00171513
-0.00791635
-0.000456847
-0.00803957
0.000736392
-0.00793489
0.00184576
-0.00758862
0.0028319
-0.00697569
0.00364491
-0.00610354
0.0042256
-0.00497893
0.0045233
-0.00359658
0.00450795
-0.00197409
0.00416181
-6.8773e-05
0.00350133
0.00206478
0.00252592
0.00448185
0.00123679
0.00705759
-0.000410723
0.00982775
-0.0024493
0.0125627
-0.00491714
0.0151167
-0.00772859
0.017153
-0.0107338
0.0181552
-0.0136563
0.0178963
-0.0161814
0.0157155
-0.018078
0.0119819
-0.019061
0.00659842
-0.0187931
-0.000123282
-0.0167504
-0.0076909
-0.0122944
-0.0164499
-0.00615759
-0.0220674
-0.000298504
-0.0215762
0.000613611
-0.00737179
-0.00742603
0.0210439
-0.0242047
0.0508576
-0.0434424
0.0640391
-0.0544917
0.0428093
-0.0513883
-0.00234328
-0.0401011
-0.0347709
-0.0298214
-0.0376733
-0.0284676
-0.0114907
-0.0356645
0.0201317
-0.0436526
0.024866
-0.0530075
0.0331691
-0.0671496
0.0510975
-0.0846066
0.0656288
-0.101076
0.0622834
-0.115288
0.0574305
-0.12598
0.0498581
-0.131444
0.0305621
-0.134709
0.0164481
-0.141161
0.0188086
-0.15346
0.0341498
-0.16592
0.0360749
-0.167123
0.00404374
-0.148761
-0.0614977
-0.1156
-0.116829
-0.0823196
-0.128753
-0.0711979
-0.061131
-0.0919379
0.0463867
-0.149774
0.182128
-0.233024
0.281549
-0.329822
0.347022
-0.423343
0.35121
-0.492818
0.276726
-0.532861
0.176003
-0.54504
0.0731309
-0.538694
-0.00350012
-0.522159
-0.0412583
-0.49825
-0.0780773
-0.468181
-0.0916983
-0.441623
-0.0985195
-0.418826
-0.0666005
-0.409278
-0.0388924
-0.400659
-0.0162659
-0.411979
0.0143725
-0.397669
-0.0162663
-0.41492
0.0268772
0.0675
0.0124999
0.00817469
-0.0124905
0.0114239
0.0085231
0.0107954
0.00897113
0.0113681
0.00937121
0.0124616
0.0096275
0.0135205
0.00973514
0.0142215
0.0097427
0.0144425
0.00970325
0.0141716
0.00963663
0.0134521
0.00952042
0.0123585
0.00933293
0.0109642
0.00908151
0.00933348
0.00878417
0.00751457
0.00845425
0.00554414
0.00809869
0.0034532
0.00772783
0.00126844
0.00735074
-0.000984773
0.00695827
-0.00327525
0.00652218
-0.00556382
0.00601876
-0.00781075
0.0054501
-0.00998599
0.0048393
-0.0120714
0.00420669
-0.0140525
0.00355266
-0.0159073
0.00286383
-0.0176029
0.00213516
-0.0191024
0.00138572
-0.020374
0.000654421
-0.0213963
-1.83206e-05
-0.0221563
-0.000607747
-0.022645
-0.00111142
-0.022854
-0.00154562
-0.0227752
-0.0019361
-0.0224027
-0.00230968
-0.0217376
-0.00268878
-0.0207911
-0.00309208
-0.0195867
-0.003536
-0.0181586
-0.00403893
-0.0165486
-0.00461679
-0.0148017
-0.00528218
-0.0129625
-0.00603131
-0.0110718
-0.00684906
-0.00916515
-0.00769527
-0.00726926
-0.00852427
-0.00540377
-0.00926857
-0.00357969
-0.00987546
-0.00180428
-0.0102784
-8.52574e-05
-0.0104418
0.00155942
-0.0103076
0.00309578
-0.00985522
0.00446618
-0.0090506
0.00560061
-0.0078988
0.00641964
-0.00640697
0.00685296
-0.00456648
0.00685574
-0.00240226
0.00639712
0.000136681
0.00548937
0.00297079
0.00412954
0.00616329
0.00232697
0.00954019
4.75729e-05
0.0131391
-0.00271698
0.0166541
-0.00597208
0.0198889
-0.00958073
0.0224006
-0.0133291
0.0235283
-0.0168711
0.0229664
-0.0198248
0.019907
-0.0219147
0.01481
-0.0228395
0.00764259
-0.022256
-0.00119063
-0.0197009
-0.0109202
-0.0146091
-0.0218703
-0.00801036
-0.0283213
-0.00222624
-0.0264505
-0.00241906
-0.00673793
-0.012733
0.0306205
-0.032417
0.0686279
-0.0540177
0.083564
-0.0657767
0.0537587
-0.0616093
-0.00558729
-0.0488611
-0.0459829
-0.0380259
-0.0476223
-0.0376282
-0.0120276
-0.0468078
0.0287579
-0.056921
0.0347375
-0.069061
0.0461211
-0.0861865
0.070803
-0.107537
0.0888025
-0.127229
0.0836967
-0.143911
0.0761834
-0.156195
0.0647532
-0.162567
0.0394314
-0.16687
0.0223853
-0.175003
0.0265726
-0.18938
0.045924
-0.202929
0.0454684
-0.203073
0.000803096
-0.181354
-0.0847887
-0.144822
-0.152193
-0.110863
-0.159989
-0.104831
-0.0636371
-0.136462
0.081571
-0.21031
0.259433
-0.311824
0.386029
-0.42699
0.465196
-0.536218
0.463024
-0.61634
0.359505
-0.66159
0.223611
-0.674614
0.0887173
-0.666705
-0.0101332
-0.647065
-0.0592553
-0.618816
-0.106812
-0.58339
-0.12412
-0.552209
-0.130873
-0.526087
-0.0873171
-0.515701
-0.0489892
-0.506445
-0.0206893
-0.519285
0.0183136
-0.50371
-0.0211615
-0.521934
0.035827
0.0847429
0.0132777
0.00873958
-0.0131233
0.0122272
0.00903507
0.0114909
0.00941959
0.0119765
0.00979827
0.0130733
0.0100714
0.0142466
0.0102201
0.0151647
0.0102822
0.015693
0.0103121
0.0158032
0.0103401
0.0155095
0.010358
0.014853
0.0103351
0.013876
0.0102687
0.0126151
0.0101623
0.0110976
0.0100184
0.00934479
0.00983393
0.00737865
0.00961043
0.00522236
0.00935488
0.0028985
0.00906077
0.000434416
0.00869788
-0.00213033
0.00823242
-0.00474504
0.00765661
-0.00735839
0.00699443
-0.00992875
0.00627907
-0.012424
0.0055257
-0.0148112
0.00472636
-0.0170488
0.0038712
-0.0190881
0.00297311
-0.0208838
0.00207139
-0.0224013
0.00121376
-0.0236179
0.000433959
-0.0245182
-0.000259792
-0.0250893
-0.000882793
-0.0253193
-0.00146342
-0.0251984
-0.00203268
-0.0247234
-0.0026166
-0.0239017
-0.00323591
-0.022754
-0.00390726
-0.0213133
-0.0046491
-0.0196218
-0.00547724
-0.0177259
-0.00640476
-0.0156724
-0.00742586
-0.0135049
-0.00852186
-0.0112625
-0.00964366
-0.0089762
-0.0107358
-0.00667175
-0.0117154
-0.0043677
-0.012517
-0.00208157
-0.0130571
0.000166633
-0.0132897
0.00234339
-0.0131404
0.0043962
-0.0125795
0.00624494
-0.0115602
0.00779411
-0.0100824
0.00893834
-0.00815267
0.00958153
-0.0057582
0.00965883
-0.00293506
0.00912103
0.00037604
0.00797318
0.004061
0.00620794
0.00818873
0.00384503
0.0125205
0.000865204
0.0170903
-0.00270728
0.0214982
-0.00683534
0.0254861
-0.011321
0.0284894
-0.0158768
0.0296874
-0.0200834
0.0286952
-0.023489
0.0245559
-0.0257777
0.0178412
-0.0266461
0.00862672
-0.025766
-0.00257259
-0.0227825
-0.0145968
-0.0172337
-0.0277523
-0.0104694
-0.0347307
-0.00512083
-0.0308864
-0.00672251
-0.00475631
-0.0194249
0.0424359
-0.0418676
0.0889698
-0.0655389
0.105019
-0.0778195
0.065211
-0.0726217
-0.00974594
-0.0586851
-0.0582846
-0.0476581
-0.0577287
-0.0485229
-0.0113353
-0.0600086
0.0396121
-0.0726512
0.0470704
-0.0876149
0.0619373
-0.108372
0.0915348
-0.133342
0.115627
-0.156162
0.108327
-0.175069
0.0972864
-0.188753
0.0812097
-0.195918
0.0492551
-0.201242
0.0294578
-0.211113
0.0360568
-0.227667
0.0596949
-0.242458
0.0557971
-0.241954
-0.00337166
-0.217585
-0.110906
-0.178751
-0.189847
-0.145448
-0.190425
-0.14594
-0.0593695
-0.189739
0.129226
-0.280515
0.353955
-0.400855
0.509575
-0.534995
0.602578
-0.660688
0.591475
-0.752461
0.454078
-0.803845
0.27745
-0.818304
0.105837
-0.809409
-0.0177335
-0.787146
-0.0798291
-0.754939
-0.139605
-0.713937
-0.161966
-0.677627
-0.16848
-0.647401
-0.111785
-0.635856
-0.0602269
-0.6259
-0.0254869
-0.640092
0.0229589
-0.623344
-0.0265297
-0.641319
0.0440412
0.102055
0.0139535
0.00932532
-0.0137414
0.0129361
0.00958067
0.0121257
0.00995322
0.0125331
0.0103253
0.0136174
0.0106144
0.0148563
0.0107906
0.0159064
0.01088
0.0166234
0.0109343
0.0169759
0.0109923
0.0169788
0.0110628
0.0166586
0.0111303
0.0160518
0.0111825
0.0151806
0.0112201
0.0140551
0.0112371
0.0126766
0.0112228
0.0110467
0.0111687
0.00917103
0.0110751
0.00705632
0.0109355
0.00471207
0.0107192
0.00216006
0.0103829
-0.00055864
0.00990292
-0.00338774
0.00929236
-0.00626881
0.00858717
-0.00915122
0.00781529
-0.0119892
0.00697783
-0.0147318
0.00606194
-0.0173189
0.0050708
-0.0196883
0.00403848
-0.0217865
0.00301694
-0.0235733
0.00204992
-0.0250196
0.00115488
-0.0261023
0.000320945
-0.0268013
-0.000480527
-0.0270996
-0.00128381
-0.0269863
-0.00211855
-0.0264612
-0.00300782
-0.0255378
-0.00396794
-0.0242442
-0.00501608
-0.0226194
-0.00616616
-0.0207086
-0.00743054
-0.0185584
-0.00880051
-0.0162126
-0.0102535
-0.0137119
-0.0117307
-0.0110897
-0.0131657
-0.008376
-0.0144577
-0.00559614
-0.0155265
-0.00277792
-0.0162676
4.53964e-05
-0.0166214
0.00282287
-0.0164938
0.00548084
-0.0158419
0.00791285
-0.0146022
0.00999249
-0.0127643
0.0115819
-0.0103327
0.0125516
-0.00728779
0.0128095
-0.00368116
0.0122801
0.000555547
0.0109556
0.00526225
0.00881882
0.0105109
0.00589934
0.0159779
0.0021942
0.0216869
-0.00223358
0.0271215
-0.00729677
0.0319494
-0.0127282
0.0354683
-0.0181581
0.0366823
-0.0230897
0.0351302
-0.0269983
0.029705
-0.0295294
0.0211151
-0.0303887
0.0095978
-0.0292823
-0.00419721
-0.0260121
-0.0185782
-0.0202425
-0.0338622
-0.0136551
-0.0409637
-0.00911399
-0.0345327
-0.0123896
-0.00119288
-0.0275133
0.0564843
-0.052483
0.111618
-0.0779097
0.128067
-0.0905749
0.0770281
-0.0844562
-0.0146999
-0.0696421
-0.0713364
-0.0587571
-0.0676575
-0.0611682
-0.00914394
-0.075325
0.0530318
-0.0908275
0.0621638
-0.109072
0.0808989
-0.133121
0.11744
-0.161917
0.14633
-0.187462
0.13575
-0.208207
0.120345
-0.223015
0.0989522
-0.230741
0.0598087
-0.236906
0.0374932
-0.248457
0.0472038
-0.267343
0.0756047
-0.283793
0.067453
-0.283402
-0.00773422
-0.257325
-0.138906
-0.217185
-0.22878
-0.18549
-0.219089
-0.193329
-0.0475028
-0.24994
0.18995
-0.358047
0.466058
-0.497504
0.652417
-0.651364
0.759862
-0.794848
0.737844
-0.90011
0.562256
-0.959343
0.33922
-0.976325
0.12558
-0.967342
-0.0253963
-0.943223
-0.102198
-0.907721
-0.175785
-0.860929
-0.205427
-0.818664
-0.212162
-0.78299
-0.141317
-0.769477
-0.0733994
-0.7586
-0.0308517
-0.773765
0.0278944
-0.755917
-0.0322601
-0.771993
0.049875
0.117884
0.0144894
0.00970326
-0.0140968
0.0136026
0.0100501
0.0127236
0.0104328
0.0130612
0.0108367
0.0141234
0.0111708
0.0154002
0.0113931
0.0165393
0.0115192
0.0173814
0.0115951
0.0178874
0.0116635
0.0180736
0.0117464
0.0179696
0.0118482
0.0176145
0.0119565
0.0170369
0.0120717
0.0162453
0.0121883
0.015233
0.0122935
0.0139877
0.0123735
0.0124992
0.0124224
0.0107577
0.0124335
0.00875266
0.0123797
0.00647979
0.012215
0.00395306
0.0119026
0.00121056
0.0114375
-0.00169293
0.0108456
-0.00470074
0.0101584
-0.00776116
0.00938478
-0.0108208
0.00851064
-0.0138159
0.0075268
-0.0166734
0.00645424
-0.0193212
0.0053413
-0.0216975
0.00423819
-0.0237529
0.00317254
-0.0254475
0.00214103
-0.0267472
0.00111771
-0.0276223
6.68431e-05
-0.02805
-0.00104445
-0.0280169
-0.00224196
-0.0275244
-0.00354169
-0.0265886
-0.00495853
-0.0252401
-0.00650236
-0.0235171
-0.00818297
-0.0214617
-0.00998724
-0.0191138
-0.0118884
-0.0165113
-0.0138167
-0.0136853
-0.0156944
-0.0106668
-0.0174004
-0.0074839
-0.0188367
-0.00417248
-0.0198731
-0.000777629
-0.0204328
0.00263248
-0.020397
0.0059622
-0.0197053
0.00907672
-0.0182713
0.0118143
-0.016068
0.0139984
-0.0130931
0.0154572
-0.00931602
0.0160625
-0.00480746
0.0157019
0.00051245
0.014345
0.00642513
0.0119548
0.0130035
0.00856537
0.0198151
0.00418629
0.0268642
-0.00107896
0.0334913
-0.00708961
0.0392762
-0.0135044
0.043361
-0.0198645
0.0445578
-0.0255931
0.0423343
-0.030087
0.0354316
-0.032952
0.0247203
-0.0339089
0.0106613
-0.0327109
-0.00593127
-0.0293611
-0.0226627
-0.0236644
-0.0399179
-0.0176358
-0.0466595
-0.0142778
-0.0370446
-0.0194525
0.00414069
-0.0369581
0.0726894
-0.0641533
0.136249
-0.091007
0.152375
-0.103968
0.0891332
-0.0970854
-0.0202812
-0.0817018
-0.0848301
-0.071233
-0.077145
-0.0754343
-0.00523025
-0.0926656
0.0693917
-0.111475
0.0804473
-0.133129
0.103383
-0.16086
0.147069
-0.192749
0.180101
-0.220467
0.165404
-0.242485
0.144787
-0.258031
0.117594
-0.265916
0.0706965
-0.27249
0.0460664
-0.28547
0.0597625
-0.306891
0.0938425
-0.325708
0.0811204
-0.326553
-0.01118
-0.299869
-0.167691
-0.259169
-0.26824
-0.229414
-0.245646
-0.244597
-0.0280528
-0.313909
0.263605
-0.439248
0.595592
-0.597956
0.814642
-0.772548
0.938014
-0.935883
0.90415
-1.05748
0.686864
-1.12722
0.411558
-1.1484
0.149616
-1.14055
-0.031909
-1.11563
-0.1253
-1.07784
-0.214352
-1.02517
-0.254583
-0.975801
-0.263064
-0.932677
-0.177894
-0.915708
-0.0899878
-0.903431
-0.0372373
-0.918994
0.0325023
-0.900138
-0.0382255