/*--------------------------------*- C++ -*----------------------------------*\
| =========                 |                                                 |
| \\      /  F ield         | OpenFOAM: The Open Source CFD Toolbox           |
|  \\    /   O peration     | Version:  2412                                  |
|   \\  /    A nd           | Website:  www.openfoam.com                      |
|    \\/     M anipulation  |                                                 |
\*---------------------------------------------------------------------------*/
FoamFile
{
    version     2.0;
    format      ascii;
    arch        "LSB;label=32;scalar=64";
    class       surfaceScalarField;
    location    "0.24";
    object      phi_0;
}
// * * * * * * * * * * * * * * * * * * * * * * * * * * * * * * * * * * * * * //

dimensions      [0 3 -1 0 0 0 0];

oriented        oriented;

internalField   nonuniform List<scalar> 
24930
(
0.0179588
0.0127725
-0.0307245
0.0105917
0.00736702
0.0069419
0.00364985
0.0051669
0.001775
0.00419561
0.000971292
0.00357328
0.000622333
0.00312782
0.000445453
0.00278876
0.000339066
0.00251998
0.000268776
0.00230044
0.000219538
0.00211699
0.000183448
0.00196091
0.000156083
0.00182614
0.000134766
0.00170835
0.000117792
0.00160432
0.000104027
0.00151163
9.26878e-05
0.00142841
8.32194e-05
0.00135319
7.52196e-05
0.0012848
6.83906e-05
0.00122229
6.25075e-05
0.00116489
5.73979e-05
0.00111197
5.29274e-05
0.00106298
4.89902e-05
0.00101747
4.55019e-05
0.000975079
4.23946e-05
0.000935466
3.96132e-05
0.000898353
3.71126e-05
0.000863497
3.48554e-05
0.000830686
3.28104e-05
0.000799735
3.09513e-05
0.000770478
2.92559e-05
0.000742773
2.77053e-05
0.000716489
2.62832e-05
0.000691513
2.49763e-05
0.00066774
2.37722e-05
0.000645079
2.26614e-05
0.000623444
2.16342e-05
0.00060276
2.06835e-05
0.000582959
1.98015e-05
0.000563975
1.89833e-05
0.000545753
1.8222e-05
0.000528238
1.75148e-05
0.000511382
1.68552e-05
0.00049514
1.62422e-05
0.00047947
1.56694e-05
0.000464333
1.51372e-05
0.000449694
1.4639e-05
0.000435516
1.41769e-05
0.000421772
1.37444e-05
0.000408427
1.33446e-05
0.000395456
1.29709e-05
0.00038283
1.26264e-05
0.000370525
1.23048e-05
0.000358517
1.20087e-05
0.000346785
1.17316e-05
0.000335311
1.14747e-05
0.000324082
1.12301e-05
0.000313085
1.09977e-05
0.000302319
1.07656e-05
0.000291789
1.05308e-05
0.000281517
1.02724e-05
0.000271539
9.97864e-06
0.000261911
9.62791e-06
0.000252712
9.19903e-06
0.000244
8.71112e-06
0.000235864
8.13507e-06
0.000228276
7.58635e-06
0.000221272
7.00272e-06
0.000214675
6.5956e-06
0.000208372
6.30174e-06
0.000201914
6.45691e-06
0.000194783
7.13022e-06
0.000186314
8.46738e-06
0.000176181
1.01322e-05
0.000164989
1.1192e-05
0.000154713
1.0277e-05
0.000147553
7.16148e-06
0.000144963
2.59269e-06
0.000144988
-1.97519e-08
0.000144464
5.26141e-07
0.000141018
3.44596e-06
0.000134598
6.42138e-06
0.000127195
7.40328e-06
0.00012097
6.22702e-06
0.000114876
6.09728e-06
0.000110055
4.82399e-06
0.000109542
5.14253e-07
0.000115627
-6.08466e-06
0.000127698
-1.2072e-05
0.000145909
-1.8213e-05
0.00016765
-2.17443e-05
0.000191635
-2.39884e-05
0.000215652
-2.40216e-05
0.000242436
-2.67866e-05
0.000272766
-3.03322e-05
0.00031049
-3.77236e-05
0.00034871
-3.8218e-05
0.000384464
-3.57522e-05
0.00040403
-1.95623e-05
0.000411432
-7.39715e-06
0.00040021
1.12265e-05
0.000392035
8.17914e-06
0.00038502
7.01802e-06
0.000405951
-2.09309e-05
0.000451373
-4.5424e-05
0.000533172
-8.18016e-05
0.000647585
-0.000114414
0.000776484
-0.000128901
0.000926399
-0.000149917
0.00107213
-0.000145736
0.0012329
-0.000160769
0.00138031
-0.000147409
0.00154088
-0.000160568
0.00167837
-0.00013749
0.00183988
-0.000161503
0.00197617
-0.000136294
0.00216286
-0.000186685
0.00232441
-0.000161553
0.00260599
-0.00028158
-0.000371394
0.0336664
0.0163464
-0.0372403
0.0277219
0.0133115
0.0221656
0.00920618
0.0178906
0.00605
0.0148451
0.00401681
0.0126857
0.00278175
0.0110997
0.00203137
0.00988383
0.00155498
0.00891773
0.00123488
0.00812847
0.00100879
0.00746931
0.000842603
0.00690896
0.000716435
0.00642563
0.000618093
0.00600366
0.000539765
0.00563145
0.000476238
0.00530022
0.000423912
0.00500321
0.000380231
0.00473509
0.00034334
0.00449162
0.000311861
0.00426937
0.000284756
0.00406554
0.000261227
0.00387781
0.000240652
0.00370426
0.000222543
0.00354325
0.000206508
0.00339341
0.000192233
0.00325356
0.000179464
0.00312268
0.000167991
0.0029999
0.00015764
0.00288444
0.000148268
0.00277564
0.000139753
0.0026729
0.000131991
0.00257571
0.000124897
0.0024836
0.000118395
0.00239615
0.000112422
0.002313
0.000106924
0.0022338
0.000101854
0.00215827
9.71684e-05
0.00208612
9.28342e-05
0.0020171
8.88165e-05
0.00195099
8.50906e-05
0.00188759
8.16275e-05
0.00182669
7.84106e-05
0.00176813
7.54143e-05
0.00171175
7.26286e-05
0.00165739
7.00294e-05
0.00160491
6.76117e-05
0.0015542
6.53526e-05
0.00150512
6.32522e-05
0.00145758
6.12889e-05
0.00141146
5.9466e-05
0.00136667
5.77622e-05
0.00132311
5.61806e-05
0.00128072
5.47013e-05
0.0012394
5.33243e-05
0.0011991
5.20302e-05
0.00115976
5.08122e-05
0.00112134
4.96485e-05
0.00108382
4.85233e-05
0.00104718
4.74054e-05
0.00101145
4.6258e-05
0.000976695
4.5026e-05
0.000943041
4.36323e-05
0.000910638
4.20315e-05
0.000879722
4.01165e-05
0.000850433
3.80014e-05
0.000822996
3.55734e-05
0.000797292
3.32924e-05
0.000773363
3.0933e-05
0.000750617
2.93421e-05
0.000728668
2.82508e-05
0.000706035
2.90893e-05
0.00068131
3.18547e-05
0.000652489
3.7289e-05
0.000619246
4.33755e-05
0.000583684
4.67547e-05
0.000552159
4.18007e-05
0.000530718
2.86002e-05
0.000522818
1.04911e-05
0.000521445
1.3551e-06
0.000517827
4.14342e-06
0.000505038
1.6234e-05
0.000484595
2.68633e-05
0.000462183
2.98133e-05
0.000443744
2.4665e-05
0.000426273
2.35668e-05
0.000414609
1.64881e-05
0.000417162
-2.03779e-06
0.000440538
-2.94606e-05
0.000483214
-5.47459e-05
0.000544402
-7.93977e-05
0.000616762
-9.41004e-05
0.000694974
-0.000102196
0.000775617
-0.00010466
0.000864213
-0.00011538
0.000966741
-0.000132861
0.00108713
-0.000158118
0.00120957
-0.000160657
0.00131671
-0.000142901
0.00137932
-8.2174e-05
0.00140258
-3.06626e-05
0.00138369
3.01196e-05
0.00137608
1.57897e-05
0.00139007
-6.97435e-06
0.00148892
-0.00011978
0.0016752
-0.000231696
0.00196693
-0.000373529
0.00235652
-0.000504
0.00278877
-0.000561148
0.00327651
-0.00063766
0.00375891
-0.000628138
0.00427613
-0.00067798
0.00476249
-0.000633768
0.00527864
-0.00067672
0.00573759
-0.000596436
0.00626509
-0.000689
0.00672496
-0.000596165
0.00733983
-0.000801558
0.00787443
-0.00069614
0.00878493
-0.00119208
-0.00151448
0.0414371
0.0160476
-0.0411382
0.0391383
0.0156103
0.0352008
0.0131437
0.0309095
0.0103412
0.0269925
0.00793388
0.0237031
0.00607113
0.0210293
0.0047051
0.0188618
0.0037225
0.0170856
0.00301109
0.015608
0.00248642
0.0143599
0.00209067
0.013291
0.0017853
0.0123645
0.00154467
0.0115527
0.00135154
0.0108349
0.00119402
0.0101951
0.00106373
0.00962071
0.000954611
0.00910182
0.000862225
0.00863044
0.000783245
0.00820006
0.000715137
0.00780533
0.000655947
0.00744184
0.000604144
0.00710587
0.000558516
0.00679428
0.000518095
0.00650441
0.000482099
0.00623399
0.00044989
0.00598103
0.000420945
0.00574384
0.00039483
0.00552093
0.000371183
0.00531098
0.000349697
0.00511286
0.000330114
0.00492554
0.000312216
0.00474811
0.000295815
0.00457978
0.000280753
0.00441982
0.000266889
0.00426756
0.000254107
0.00412243
0.000242299
0.00398389
0.000231378
0.00385145
0.000221258
0.00372466
0.000211876
0.00360313
0.00020316
0.00348648
0.000195064
0.00337436
0.00018753
0.00326647
0.000180523
0.0031625
0.000173991
0.0030622
0.000167912
0.00296532
0.000162236
0.00287162
0.000156953
0.00278089
0.000152016
0.00269294
0.00014742
0.00260758
0.000143122
0.00252464
0.000139115
0.00244399
0.000135358
0.00236547
0.000131838
0.00228899
0.000128516
0.00221444
0.000125362
0.00214175
0.000122337
0.00207089
0.000119384
0.00200184
0.000116452
0.00193467
0.000113428
0.00186947
0.000110224
0.00180648
0.000106627
0.00174591
0.000102596
0.00168817
9.78576e-05
0.00163344
9.27382e-05
0.00158204
8.69709e-05
0.0015337
8.16367e-05
0.00148841
7.62203e-05
0.00144508
7.26717e-05
0.001403
7.03318e-05
0.00135953
7.25573e-05
0.00131249
7.88981e-05
0.00125857
9.12003e-05
0.00119804
0.000103907
0.00113485
0.000109949
0.00108019
9.6455e-05
0.00104348
6.53095e-05
0.00102934
2.46366e-05
0.00102468
6.00731e-06
0.00101541
1.34113e-05
0.00099042
4.12249e-05
0.000954189
6.30932e-05
0.000915957
6.80444e-05
0.000885311
5.53104e-05
0.00085737
5.15076e-05
0.000841908
3.19496e-05
0.000852481
-1.26102e-05
0.000900069
-7.70482e-05
0.00098194
-0.000136616
0.00109555
-0.000193002
0.00122847
-0.000227027
0.00137092
-0.000244636
0.00151991
-0.000253648
0.00168292
-0.000278392
0.00187226
-0.000322204
0.00208762
-0.000373475
0.00230517
-0.000378213
0.00248942
-0.000327149
0.00260198
-0.000194737
0.00264868
-7.73635e-05
0.00263977
3.90242e-05
0.00265809
-2.53032e-06
0.00273326
-8.21359e-05
0.00295845
-0.000344969
0.0033454
-0.000618642
0.00390885
-0.00093698
0.00463756
-0.00123271
0.00543576
-0.00135934
0.00632255
-0.00152445
0.00720418
-0.00150977
0.00813843
-0.00161223
0.0090258
-0.00152114
0.00995942
-0.00161033
0.0108044
-0.00144142
0.0117695
-0.00165413
0.0126231
-0.00144975
0.0137511
-0.00192951
0.0147323
-0.00167737
0.0163607
-0.00282046
-0.00352735
0.0458996
0.0147506
-0.0446025
0.0459762
0.0155337
0.0443893
0.0147306
0.0416582
0.0130723
0.0384088
0.0111832
0.0351002
0.00937973
0.0319998
0.00780556
0.0292215
0.00650077
0.0267839
0.00544871
0.0246606
0.00460973
0.0228102
0.00394101
0.0211908
0.00340473
0.019765
0.00297049
0.0185015
0.00261501
0.0173748
0.00232077
0.0163639
0.00207462
0.0154518
0.00186666
0.0146247
0.00168936
0.013871
0.00153694
0.0131812
0.0014049
0.0125474
0.00128973
0.011963
0.00118862
0.0114221
0.00109934
0.0109202
0.00102008
0.0104529
0.000949369
0.0100168
0.000886009
0.00960871
0.000829
0.00922603
0.000777512
0.00886636
0.000730846
0.00852764
0.000688416
0.00820804
0.000649722
0.00790591
0.000614338
0.00761983
0.000581902
0.00734848
0.000552103
0.00709069
0.000524669
0.00684543
0.000499371
0.00661173
0.000475999
0.00638873
0.000454381
0.00617563
0.000434351
0.00597173
0.000415778
0.00577636
0.000398529
0.00558892
0.000382508
0.00540885
0.000367601
0.00523563
0.000353738
0.0050688
0.000340819
0.00490792
0.000328792
0.00475259
0.000317565
0.00460244
0.000307107
0.00445712
0.000297332
0.00431633
0.000288217
0.00417977
0.000279681
0.00404718
0.000271698
0.00391835
0.000264195
0.00379306
0.000257128
0.00367114
0.000250433
0.00355247
0.000244034
0.00343693
0.000237871
0.0033245
0.000231816
0.00321515
0.000225803
0.00310899
0.000219589
0.00300615
0.000213066
0.00290696
0.000205814
0.00281172
0.00019784
0.00272095
0.000188624
0.00263483
0.000178855
0.00255378
0.00016803
0.00247725
0.000158167
0.00240517
0.000148301
0.00233582
0.000142012
0.00226817
0.00013799
0.00219832
0.000142398
0.00212346
0.000153756
0.00203918
0.000175488
0.00194679
0.000196292
0.00185244
0.000204306
0.00177241
0.000176477
0.00171889
0.000118834
0.00169691
4.66138e-05
0.00168646
1.64517e-05
0.00166857
3.13028e-05
0.00162847
8.13165e-05
0.00157474
0.000116822
0.00152002
0.000122764
0.00147758
9.77541e-05
0.00144079
8.83008e-05
0.00142539
4.73451e-05
0.00144982
-3.70457e-05
0.00152961
-0.000156834
0.00166012
-0.000267121
0.0018364
-0.000369288
0.00204053
-0.000431152
0.00225834
-0.000462447
0.00248828
-0.000483586
0.00273966
-0.000529771
0.00303074
-0.000613288
0.00335435
-0.000697078
0.00367805
-0.000701923
0.00394781
-0.000596911
0.00411955
-0.000366472
0.0042035
-0.000161315
0.00422749
1.50293e-05
0.00430576
-8.07975e-05
0.00448863
-0.000265006
0.00489651
-0.000752851
0.00554969
-0.00127182
0.00645252
-0.0018398
0.0075899
-0.00237009
0.00882178
-0.00259122
0.0101764
-0.00287909
0.011525
-0.00285839
0.0129466
-0.00303377
0.0143028
-0.00287735
0.0157275
-0.00303499
0.0170296
-0.00274358
0.0185164
-0.00314094
0.0198414
-0.00277477
0.0215781
-0.00366616
0.0230901
-0.00318941
0.0255215
-0.00525182
-0.00651923
0.0493644
0.0135575
-0.0481713
0.0503243
0.0145738
0.0503366
0.0147183
0.0493077
0.0141012
0.0474562
0.0130347
0.0450755
0.0117604
0.0424377
0.0104434
0.0397495
0.00918903
0.0371455
0.00805266
0.0347002
0.00705506
0.0324454
0.00619575
0.030387
0.00546313
0.0285164
0.00484112
0.0268184
0.00431299
0.0252759
0.00386329
0.0238718
0.00347868
0.0225905
0.00314798
0.0214178
0.00286204
0.0203414
0.00261338
0.0193504
0.00239595
0.0184353
0.00220479
0.017588
0.00203589
0.0168014
0.00188592
0.0160693
0.00175217
0.0153863
0.00163238
0.0147477
0.00152467
0.0141492
0.00142747
0.0135872
0.00133947
0.0130585
0.00125954
0.0125602
0.00118672
0.0120897
0.00112021
0.0116448
0.0010593
0.0112233
0.0010034
0.0108234
0.000951984
0.0104435
0.000904611
0.0100819
0.00086089
0.00973747
0.000820474
0.00940878
0.000783067
0.00909474
0.000748395
0.00879429
0.000716232
0.00850646
0.000686356
0.00823037
0.000658597
0.0079652
0.000632769
0.0077102
0.000608743
0.00746466
0.000586353
0.00722795
0.000565501
0.00699948
0.000546037
0.0067787
0.00052789
0.00656511
0.000510922
0.00635825
0.000495074
0.00615771
0.000480215
0.00596313
0.000466278
0.00577419
0.000453144
0.00559059
0.000440721
0.00541212
0.000428906
0.0052386
0.000417551
0.0050699
0.000406572
0.00490598
0.000395734
0.00474683
0.000384958
0.00459259
0.000373822
0.00444344
0.00036222
0.00429981
0.000349442
0.00416203
0.000335626
0.00403074
0.000319908
0.00390605
0.000303543
0.00378841
0.000285675
0.00367694
0.000269639
0.00357144
0.000253799
0.0034695
0.000243956
0.0033697
0.000237786
0.00326692
0.000245172
0.00315789
0.000262793
0.00303727
0.000296106
0.00290801
0.000325548
0.00277861
0.000333704
0.00267059
0.000284503
0.00259806
0.000191358
0.00256583
7.88446e-05
0.00254636
3.59216e-05
0.00251638
6.12791e-05
0.00245817
0.000139532
0.00238537
0.000189615
0.00231372
0.000194414
0.00226036
0.000151112
0.0022171
0.000131569
0.00220656
5.78858e-05
0.00225179
-8.22784e-05
0.00237276
-0.000277804
0.00256216
-0.000456524
0.00281201
-0.000619131
0.00309852
-0.000717658
0.00340355
-0.000767484
0.00372787
-0.000807906
0.00408235
-0.000884243
0.00449057
-0.00102152
0.00493608
-0.00114258
0.00537778
-0.00114363
0.00574342
-0.000962556
0.00598734
-0.000610388
0.00612781
-0.000301791
0.0062145
-7.16622e-05
0.00639437
-0.00026066
0.00673893
-0.000609572
0.0073927
-0.00140661
0.00838325
-0.00226236
0.00969828
-0.00315483
0.0113191
-0.0039909
0.0130577
-0.00432981
0.0149556
-0.00477696
0.0168454
-0.00474825
0.0188326
-0.00502095
0.0207335
-0.00477823
0.0227323
-0.00503382
0.0245718
-0.00458308
0.0266743
-0.00524345
0.0285585
-0.00465895
0.0310079
-0.00611551
0.0331479
-0.00532948
0.0364638
-0.00856769
-0.0105923
0.0528204
0.0126604
-0.0519234
0.0538466
0.0135476
0.0545268
0.0140382
0.0545907
0.0140373
0.0539863
0.0136391
0.0527834
0.0129634
0.0511116
0.0121151
0.0491179
0.0111827
0.0469373
0.0102333
0.0446805
0.00931192
0.0424296
0.00844657
0.0402409
0.00765189
0.0381486
0.00693335
0.0361713
0.00629031
0.0343162
0.00571846
0.0325832
0.00521159
0.0309684
0.00476283
0.0294651
0.00436533
0.0280658
0.0040127
0.0267625
0.00369919
0.0255476
0.0034197
0.0244137
0.00316983
0.0233538
0.00294576
0.0223618
0.0027442
0.0214318
0.00256236
0.0205587
0.00239782
0.0197376
0.00224853
0.0189644
0.0021127
0.0182351
0.00198882
0.0175463
0.00187556
0.0168947
0.00177177
0.0162775
0.00167646
0.0156921
0.00158877
0.0151362
0.00150794
0.0146075
0.00143333
0.014104
0.00136434
0.013624
0.00130048
0.0131658
0.00124129
0.0127278
0.00118637
0.0123087
0.00113537
0.0119071
0.00108797
0.0115218
0.00104389
0.0111517
0.00100285
0.0107958
0.000964649
0.0104531
0.000929037
0.0101227
0.000895852
0.00980392
0.000864864
0.00949586
0.000835947
0.0091979
0.00080889
0.00890939
0.000783581
0.00862979
0.000759816
0.0083586
0.000737468
0.00809539
0.000716353
0.00783981
0.000696304
0.00759155
0.000677163
0.00735042
0.000658682
0.00711625
0.000640744
0.00688901
0.000622965
0.00666871
0.000605267
0.00645554
0.000586986
0.0062497
0.00056806
0.00605174
0.000547407
0.00586196
0.000525402
0.00568113
0.000500737
0.0055092
0.000475479
0.00534659
0.000448279
0.00519201
0.000424226
0.00504509
0.000400715
0.00490261
0.000386435
0.00476285
0.000377542
0.00461943
0.000388592
0.00446889
0.000413332
0.00430525
0.000459749
0.00413356
0.000497242
0.00396473
0.000502532
0.00382543
0.000423798
0.00373086
0.000285935
0.00368498
0.000124714
0.0036524
6.85085e-05
0.00360641
0.000107266
0.00352692
0.000219017
0.0034336
0.000282943
0.00334477
0.000283239
0.00328185
0.00021403
0.00323525
0.000178174
0.00323526
5.78717e-05
0.00330902
-0.000156032
0.00348092
-0.000449705
0.00373994
-0.000715543
0.00407444
-0.000953633
0.00445477
-0.00109798
0.00485919
-0.0011719
0.00529173
-0.00124045
0.00576423
-0.00135674
0.00630515
-0.00156244
0.00688644
-0.00172387
0.00745919
-0.00171639
0.00793357
-0.00143694
0.008267
-0.000943813
0.00848867
-0.000523463
0.00867455
-0.000257545
0.00900342
-0.000589531
0.00956951
-0.00117566
0.0105361
-0.00237324
0.0119389
-0.00366513
0.0137422
-0.00495811
0.0159252
-0.00617391
0.0182484
-0.00665305
0.020771
-0.00729948
0.0232831
-0.00726041
0.0259225
-0.00766034
0.0284524
-0.00730815
0.031118
-0.00769944
0.033584
-0.00704907
0.0364048
-0.00806422
0.0389461
-0.00720022
0.0422177
-0.00938712
0.0450977
-0.00820949
0.0493753
-0.0128452
-0.0158363
0.056538
0.0119745
-0.0558521
0.05739
0.0126956
0.0581843
0.0132439
0.0587078
0.0135138
0.0588384
0.0135085
0.0585303
0.0132714
0.0577934
0.0128521
0.0566756
0.0123004
0.0552459
0.011663
0.0535799
0.0109779
0.0517512
0.0102752
0.0498255
0.00957765
0.0478573
0.00890154
0.0458897
0.00825789
0.0439548
0.00765342
0.0420748
0.00709152
0.0402645
0.00657312
0.0385325
0.00609739
0.0368828
0.00566239
0.0353165
0.0052655
0.0338324
0.00490379
0.032428
0.00457422
0.0310999
0.00427382
0.0298444
0.00399978
0.0286572
0.00374953
0.0275343
0.00352068
0.0264717
0.00331111
0.0254655
0.00311891
0.024512
0.00294236
0.0236076
0.00277994
0.0227491
0.00263027
0.0219334
0.00249216
0.0211577
0.00236454
0.0204191
0.00224645
0.0197154
0.00213706
0.0190441
0.00203563
0.0184031
0.00194147
0.0177904
0.00185399
0.0172042
0.00177265
0.0166426
0.00169697
0.016104
0.00162651
0.015587
0.00156089
0.0150901
0.00149973
0.014612
0.00144273
0.0141515
0.00138954
0.0137074
0.00133993
0.0132788
0.00129356
0.0128645
0.00125024
0.0124637
0.00120966
0.0120756
0.00117165
0.0116995
0.00113589
0.0113348
0.00110218
0.0109809
0.00107025
0.0106374
0.00103982
0.0103039
0.00101066
0.00998021
0.000982386
0.00966611
0.00095484
0.00936164
0.00092744
0.00906678
0.000900128
0.00878183
0.000871931
0.008507
0.000842893
0.00824294
0.000811471
0.00798991
0.000778427
0.00774876
0.000741892
0.00751918
0.000705052
0.00730159
0.000665874
0.0070941
0.000631716
0.0068962
0.000598615
0.00670374
0.000578891
0.00651478
0.000566498
0.00632173
0.000581642
0.00612129
0.000613771
0.00590707
0.00067397
0.00568668
0.00071763
0.00547334
0.000715871
0.00529866
0.000598478
0.00517789
0.000406712
0.00511388
0.000188723
0.0050632
0.00011918
0.00499676
0.000173709
0.00489267
0.000323103
0.00477734
0.000398273
0.00467122
0.000389357
0.00460057
0.000284688
0.0045545
0.000224242
0.00457152
4.08515e-05
0.0046822
-0.000266715
0.00491512
-0.00068262
0.00525451
-0.00105494
0.00568455
-0.00138367
0.0061699
-0.00158332
0.00668557
-0.00168757
0.00723987
-0.00179475
0.0078448
-0.00196167
0.00853354
-0.00225118
0.0092645
-0.00245483
0.00998268
-0.00243458
0.0105813
-0.00203554
0.0110258
-0.00138837
0.0113581
-0.000855714
0.0116849
-0.000584357
0.0122142
-0.00111879
0.0130646
-0.00202611
0.0144122
-0.00372085
0.016303
-0.00555586
0.0186718
-0.00732694
0.0214985
-0.00900063
0.0244882
-0.00964272
0.0277221
-0.0105334
0.0309437
-0.010482
0.0343296
-0.0110462
0.0375812
-0.0105597
0.0410146
-0.0111329
0.0442046
-0.010239
0.0478521
-0.0117117
0.0511581
-0.0105062
0.0553629
-0.0135919
0.0591094
-0.011956
0.0644206
-0.0181565
-0.0223211
0.0605408
0.0114125
-0.0599787
0.0612238
0.0120125
0.0619367
0.012531
0.0625565
0.012894
0.0629856
0.0130794
0.06316
0.013097
0.0630441
0.0129679
0.0626276
0.012717
0.0619209
0.0123697
0.0609488
0.01195
0.059746
0.011478
0.0583524
0.0109712
0.0568095
0.0104444
0.0551575
0.0099099
0.0534334
0.00937752
0.0516697
0.00885522
0.0498937
0.00834907
0.0481276
0.00786349
0.0463886
0.00740145
0.0446893
0.00696471
0.0430391
0.00655403
0.0414439
0.0061694
0.0399075
0.00581025
0.0384317
0.00547561
0.0370169
0.00516426
0.0356627
0.00487486
0.0343679
0.004606
0.0331305
0.00435627
0.0319486
0.00412429
0.0308198
0.00390874
0.0297417
0.00370837
0.0287118
0.00352201
0.0277277
0.0033486
0.0267871
0.00318714
0.0258874
0.00303674
0.0250264
0.00289657
0.024202
0.00276588
0.023412
0.00264398
0.0226545
0.00253022
0.0219274
0.00242405
0.021229
0.00232492
0.0205575
0.00223237
0.0199113
0.0021459
0.0192889
0.00206516
0.0186887
0.00198969
0.0181095
0.00191916
0.0175499
0.00185316
0.0170088
0.00179139
0.016485
0.00173345
0.0159776
0.00167906
0.0154856
0.00162781
0.0150085
0.00157936
0.0145454
0.00153334
0.0140959
0.00148933
0.0136595
0.00144701
0.0132361
0.00140579
0.0128255
0.00136548
0.0124277
0.00132525
0.0120427
0.00128509
0.011671
0.00124363
0.0113128
0.00120111
0.0109688
0.00115544
0.0106393
0.00110796
0.0103251
0.00105611
0.0100256
0.00100455
0.0097411
0.000950342
0.00946912
0.000903697
0.00920894
0.000858801
0.00895539
0.000832433
0.00870645
0.000815441
0.00845338
0.000834709
0.00819345
0.000873698
0.00792012
0.000947307
0.00764392
0.000993829
0.00738007
0.000979719
0.00716478
0.000813771
0.00701233
0.00055916
0.0069244
0.000276645
0.00684969
0.000193894
0.00675779
0.000265608
0.00662549
0.000455402
0.00648653
0.000537232
0.00636299
0.000512895
0.00628675
0.000360928
0.00624554
0.000265449
0.0062866
-2.00019e-07
0.00644288
-0.000422999
0.00674676
-0.000986499
0.00717673
-0.00148491
0.00771233
-0.00191926
0.00831298
-0.00218397
0.00895062
-0.00232521
0.00963892
-0.00248306
0.0103891
-0.00271189
0.0112396
-0.00310168
0.0121337
-0.00334892
0.013013
-0.00331381
0.0137537
-0.00277624
0.0143345
-0.00196923
0.0148097
-0.00133088
0.0153219
-0.00109657
0.016103
-0.00189987
0.0172999
-0.00322298
0.0190933
-0.00551434
0.021545
-0.00800753
0.024555
-0.0103369
0.0281075
-0.0125532
0.0318478
-0.013383
0.0358835
-0.0145692
0.0399067
-0.0145052
0.0441398
-0.0152793
0.0482133
-0.0146332
0.0525221
-0.0154418
0.0565406
-0.0142575
0.0611249
-0.0162961
0.0653115
-0.0146928
0.070556
-0.0188363
0.0753073
-0.0167073
0.0817196
-0.0245688
-0.0300916
0.0648224
0.010929
-0.0643389
0.0653865
0.0114484
0.0659926
0.0119249
0.0665756
0.012311
0.0670726
0.0125823
0.0674353
0.0127343
0.0676282
0.0127751
0.0676272
0.0127179
0.0674193
0.0125777
0.0670003
0.012369
0.066374
0.0121043
0.0655512
0.0117941
0.0645478
0.0114479
0.0633838
0.0110738
0.0620823
0.0106791
0.0606674
0.0102701
0.0591635
0.00985292
0.0575943
0.0094327
0.0559816
0.00901421
0.0543447
0.00860153
0.0527007
0.00819804
0.0510637
0.00780645
0.0494451
0.0074288
0.0478542
0.00706653
0.0462979
0.00672055
0.0447814
0.00639135
0.0433084
0.00607905
0.0418812
0.00578351
0.0405011
0.00550436
0.0391687
0.00524109
0.037884
0.00499309
0.0366464
0.00475968
0.0354548
0.00454014
0.0343082
0.00433379
0.033205
0.0041399
0.0321438
0.00395782
0.0311228
0.00378685
0.0301404
0.0036264
0.0291948
0.00347583
0.0282842
0.0033346
0.027407
0.00320212
0.0265614
0.00307794
0.0257458
0.00296152
0.0249585
0.00285244
0.024198
0.00275019
0.0234628
0.00265438
0.0227515
0.0025645
0.0220627
0.0024802
0.0213952
0.00240095
0.0207479
0.00232636
0.0201198
0.00225592
0.01951
0.00218913
0.0189178
0.00212551
0.0183427
0.00206442
0.0177843
0.00200546
0.0172423
0.00194778
0.0167166
0.00189117
0.0162074
0.00183445
0.0157148
0.0017777
0.0152393
0.0017191
0.0147812
0.00165919
0.0143415
0.00159521
0.0139201
0.00152934
0.013518
0.00145816
0.0131343
0.00138829
0.0127691
0.00131552
0.0124191
0.00125367
0.0120835
0.00119441
0.011756
0.00115992
0.0114347
0.00113679
0.0111097
0.00115966
0.0107794
0.00120399
0.0104373
0.00128943
0.0100971
0.001334
0.00977565
0.00130121
0.00951317
0.00107625
0.00932207
0.000750257
0.00920308
0.000395639
0.00909732
0.000299648
0.00897428
0.000388652
0.00880967
0.000620007
0.00864504
0.000701867
0.00850373
0.000654197
0.00842419
0.000440471
0.0083927
0.000296941
0.00846454
-7.20441e-05
0.00867503
-0.000633485
0.00905892
-0.00137039
0.00958834
-0.00201433
0.0102378
-0.00256877
0.0109623
-0.00290841
0.0117303
-0.0030932
0.0125622
-0.00331494
0.0134675
-0.00361727
0.0144914
-0.00412557
0.0155609
-0.00441843
0.0166175
-0.00437037
0.0175195
-0.00367826
0.0182638
-0.00271348
0.0189142
-0.0019813
0.0196552
-0.00183759
0.020735
-0.00297967
0.0223344
-0.00482235
0.0246302
-0.00781012
0.0277082
-0.0110856
0.0314293
-0.014058
0.0357873
-0.0169112
0.0403623
-0.017958
0.0452916
-0.0194985
0.0502113
-0.0194248
0.0553961
-0.0204641
0.0603978
-0.0196349
0.0656928
-0.0207368
0.0706495
-0.0192141
0.0762764
-0.021923
0.0814649
-0.0198813
0.0878448
-0.0252163
0.093744
-0.0226064
0.101321
-0.0321453
-0.0391629
0.0693916
0.0105024
-0.0689651
0.0698739
0.010966
0.070393
0.0114058
0.0709132
0.0117909
0.0713948
0.0121008
0.071804
0.0123251
0.0721148
0.0124643
0.0723078
0.0125249
0.0723688
0.0125167
0.0722879
0.01245
0.072058
0.0123341
0.0716756
0.0121765
0.07114
0.0119835
0.0704537
0.0117601
0.0696223
0.0115104
0.0686545
0.0112379
0.0675616
0.0109458
0.0663572
0.0106371
0.0650563
0.0103151
0.063675
0.00998287
0.0622293
0.0096437
0.060735
0.00930072
0.0592069
0.0089569
0.0576585
0.00861496
0.0561018
0.00827729
0.0545472
0.00794596
0.0530035
0.00762268
0.0514782
0.00730881
0.0499772
0.00700539
0.0485051
0.00671316
0.0470656
0.00643258
0.0456614
0.00616393
0.0442942
0.00590732
0.0429653
0.00566271
0.0416752
0.00542996
0.0404241
0.00520887
0.0392119
0.00499915
0.0380378
0.00480048
0.0369011
0.00461247
0.0358009
0.00443479
0.0347361
0.00426699
0.0337053
0.00410873
0.0327073
0.00395953
0.0317407
0.00381904
0.0308041
0.00368676
0.0298962
0.00356231
0.0290155
0.00344514
0.0281609
0.00333485
0.027331
0.00323085
0.0265247
0.00313266
0.025741
0.00303962
0.024979
0.0029511
0.0242381
0.00286648
0.0235176
0.00278488
0.0228172
0.00270581
0.0221369
0.00262808
0.0214767
0.00255146
0.0208368
0.00247435
0.0202175
0.00239699
0.0196196
0.00231697
0.0190434
0.00223533
0.0184902
0.00214849
0.0179597
0.00205981
0.0174531
0.00196477
0.0169689
0.0018725
0.0165072
0.00177719
0.0160639
0.00169701
0.0156379
0.00162038
0.0152219
0.00157596
0.014814
0.00154461
0.0144038
0.00156988
0.0139909
0.00161687
0.0135691
0.00171123
0.0131556
0.00174752
0.012768
0.00168881
0.0124503
0.00139402
0.0122119
0.00098863
0.0120532
0.000554346
0.0119082
0.000444585
0.0117475
0.000549359
0.0115458
0.000821752
0.0113527
0.000894982
0.0111927
0.000814153
0.0111119
0.000521264
0.0110946
0.000314311
0.0112041
-0.000181549
0.0114762
-0.000905607
0.0119474
-0.00184161
0.0125829
-0.00264983
0.013352
-0.00333786
0.0142057
-0.00376216
0.0151087
-0.00399616
0.0160893
-0.00429552
0.0171549
-0.00468286
0.0183598
-0.00533053
0.0196144
-0.005673
0.0208639
-0.00561987
0.021946
-0.00476037
0.0228798
-0.00364732
0.0237336
-0.0028351
0.0247406
-0.00284453
0.0261554
-0.00439446
0.0282011
-0.00686812
0.0310411
-0.0106501
0.0347976
-0.0148421
0.0392896
-0.01855
0.0445263
-0.0221478
0.0500171
-0.0234488
0.0559291
-0.0254105
0.0618398
-0.0253355
0.0680806
-0.026705
0.0741206
-0.0256749
0.0805114
-0.0271276
0.0865184
-0.0252211
0.0932827
-0.0286873
0.0995942
-0.0261928
0.107188
-0.0328105
0.114372
-0.0297897
0.123171
-0.0409449
-0.0495204
0.0742682
0.0101204
-0.0738861
0.0746913
0.0105429
0.0751446
0.0109526
0.0756071
0.0113283
0.0760533
0.0116546
0.0764583
0.0119201
0.0768025
0.0121201
0.0770713
0.0122562
0.0772542
0.0123338
0.0773438
0.0123603
0.0773345
0.0123434
0.077221
0.01229
0.076999
0.0122055
0.0766647
0.0120944
0.076215
0.0119601
0.0756482
0.0118048
0.0749642
0.0116299
0.0741647
0.0114366
0.073254
0.0112258
0.0722381
0.0109987
0.0711253
0.0107565
0.0699252
0.0105009
0.0686485
0.0102336
0.0673068
0.00995668
0.0659117
0.00967236
0.0644748
0.00938284
0.0630072
0.00909032
0.0615191
0.00879691
0.0600199
0.00850457
0.058518
0.00821503
0.0570208
0.00792983
0.0555344
0.00765027
0.0540643
0.00737743
0.0526148
0.00711221
0.0511895
0.00685532
0.049791
0.00660731
0.0484216
0.00636856
0.0470827
0.00613935
0.0457754
0.00591981
0.0445002
0.00571003
0.0432572
0.00550993
0.0420464
0.00531951
0.0408674
0.00513852
0.0397196
0.00496685
0.0386023
0.00480413
0.0375144
0.00465013
0.0364552
0.00450435
0.0354236
0.00436644
0.0344187
0.00423579
0.0334395
0.00411188
0.0324851
0.00399399
0.0315549
0.00388132
0.0306482
0.00377313
0.0297648
0.00366828
0.0289045
0.00356618
0.0280673
0.00346524
0.0272535
0.00336525
0.0264638
0.00326406
0.0256986
0.00316216
0.0249592
0.00305643
0.0242459
0.0029486
0.0235603
0.00283412
0.0229022
0.00271789
0.0222729
0.00259409
0.0216704
0.002475
0.0210949
0.00235268
0.0205412
0.00225069
0.0200083
0.00215324
0.0194876
0.00209666
0.0189779
0.00205435
0.0184677
0.00208006
0.0179588
0.00212582
0.0174452
0.00222482
0.0169477
0.00224499
0.0164841
0.00215237
0.0161014
0.00177677
0.0158054
0.00128457
0.0155969
0.000762922
0.0154034
0.000638054
0.0151975
0.000755275
0.0149527
0.00106651
0.0147271
0.00112058
0.0145466
0.000994645
0.0144659
0.000602025
0.0144666
0.000313563
0.0146191
-0.000333995
0.0149588
-0.00124532
0.0155219
-0.00240474
0.0162668
-0.00339471
0.0171572
-0.00422829
0.0181415
-0.00474642
0.0191785
-0.00503315
0.0203063
-0.0054233
0.0215298
-0.00590639
0.0229172
-0.00671791
0.0243616
-0.00711742
0.0258167
-0.00707494
0.0270942
-0.00603794
0.0282391
-0.00479215
0.0293149
-0.00391094
0.0306122
-0.00414182
0.0323809
-0.00616314
0.0348978
-0.00938501
0.0383027
-0.014055
0.0427702
-0.0193096
0.0480772
-0.023857
0.054254
-0.0283247
0.0607345
-0.0299293
0.0677111
-0.032387
0.0747026
-0.032327
0.082098
-0.0341004
0.0892864
-0.0328633
0.0968761
-0.0347173
0.104045
-0.0323898
0.112024
-0.036666
0.119571
-0.0337407
0.128437
-0.0416762
0.13702
-0.0383726
0.147094
-0.051019
-0.0611221
0.0794738
0.00977332
-0.0791268
0.0798524
0.0101643
0.0802556
0.0105493
0.0806707
0.0109132
0.0810806