/*--------------------------------*- C++ -*----------------------------------*\
| =========                 |                                                 |
| \\      /  F ield         | OpenFOAM: The Open Source CFD Toolbox           |
|  \\    /   O peration     | Version:  2412                                  |
|   \\  /    A nd           | Website:  www.openfoam.com                      |
|    \\/     M anipulation  |                                                 |
\*---------------------------------------------------------------------------*/
FoamFile
{
    version     2.0;
    format      ascii;
    arch        "LSB;label=32;scalar=64";
    class       volVectorField;
    location    "0.24";
    object      U;
}
// * * * * * * * * * * * * * * * * * * * * * * * * * * * * * * * * * * * * * //

dimensions      [0 1 -1 0 0 0 0];

internalField   nonuniform List<vector> 
12600
(
(18.7163 1.27071e-21 2.0986)
(11.6039 1.61125e-20 0.451676)
(7.33894 1.89227e-20 -0.477126)
(5.08034 0 -0.708128)
(3.96929 1.70937e-20 -0.681166)
(3.32962 1.5916e-20 -0.606542)
(2.88906 0 -0.538953)
(2.55837 0 -0.483572)
(2.29918 -4.78251e-20 -0.438173)
(2.08941 0 -0.400487)
(1.91535 2.00538e-20 -0.368668)
(1.7681 1.83596e-20 -0.341387)
(1.64156 -1.68167e-20 -0.317697)
(1.53138 0 -0.296901)
(1.43439 -1.40899e-20 -0.278477)
(1.34821 0 -0.26202)
(1.27101 4.73262e-20 -0.247217)
(1.20137 0 -0.233817)
(1.13815 -1.97982e-20 -0.22162)
(1.08044 -1.81021e-20 -0.210462)
(1.02752 1.652e-20 -0.200208)
(0.978756 5.26591e-24 -0.190747)
(0.933657 0 -0.181985)
(0.891795 -2.48964e-20 -0.173843)
(0.85281 0 -0.166253)
(0.816394 0 -0.159159)
(0.782286 -1.84323e-20 -0.15251)
(0.750257 0 -0.146263)
(0.720109 4.31559e-24 -0.140381)
(0.691669 1.32953e-20 -0.13483)
(0.664785 1.18277e-20 -0.129582)
(0.639322 1.04683e-20 -0.12461)
(0.615161 -9.20972e-21 -0.119892)
(0.592197 -1.60894e-20 -0.115407)
(0.570334 -1.39336e-20 -0.111137)
(0.549487 1.1929e-20 -0.107065)
(0.52958 0 -0.103177)
(0.510542 -8.39552e-21 -0.099459)
(0.49231 0 -0.0958987)
(0.474828 5.37666e-21 -0.092485)
(0.458042 0 -0.0892078)
(0.441905 1.76932e-23 -0.0860575)
(0.426374 0 -0.083026)
(0.411408 1.5981e-23 -0.0801049)
(0.396969 -5.92773e-22 -0.0772875)
(0.383024 2.30301e-21 -0.0745666)
(0.369541 -3.88748e-21 -0.0719364)
(0.356489 0 -0.0693908)
(0.343844 0 -0.066925)
(0.331576 -7.76596e-21 -0.0645332)
(0.319666 -1.76217e-20 -0.0622117)
(0.308084 -1.94907e-20 -0.0599549)
(0.296818 1.86653e-23 -0.0577603)
(0.285839 -2.26099e-20 -0.0556225)
(0.275141 0 -0.0535401)
(0.264695 2.50575e-20 -0.0515077)
(0.254505 2.60419e-20 -0.0495263)
(0.244541 2.68764e-20 -0.0475899)
(0.234825 0 -0.0457029)
(0.225323 0 -0.0438587)
(0.21609 0 -0.0420679)
(0.20709 -5.83637e-20 -0.040323)
(0.198432 0 -0.0386453)
(0.19007 0 -0.0370247)
(0.182179 1.20187e-19 -0.0354947)
(0.174653 0 -0.0340339)
(0.167714 0 -0.0326946)
(0.161093 0 -0.0314188)
(0.15509 -1.21318e-19 -0.0302562)
(0.149141 1.20913e-19 -0.0290994)
(0.143666 1.20196e-19 -0.0280252)
(0.137521 2.3445e-23 -0.0268153)
(0.131284 -1.17842e-19 -0.0255961)
(0.12329 0 -0.0240553)
(0.115129 1.14737e-19 -0.0224908)
(0.105912 0 -0.020727)
(0.0994546 0 -0.0195269)
(0.0945217 0 -0.0186493)
(0.0941404 4.15228e-23 -0.0185828)
(0.0921477 2.16822e-19 -0.0181722)
(0.0913183 2.13353e-19 -0.01795)
(0.0853151 -2.0931e-19 -0.0167523)
(0.0814409 -2.05295e-19 -0.0160095)
(0.0742671 0 -0.0146566)
(0.0719737 0 -0.0142336)
(0.0648026 3.89099e-19 -0.0128914)
(0.064846 -7.66624e-19 -0.0129585)
(0.0624641 7.56671e-19 -0.0125252)
(0.070112 3.73627e-19 -0.0140056)
(0.0742729 0 -0.0148094)
(0.0881421 -7.27632e-19 -0.017492)
(0.0956533 3.58215e-19 -0.0189343)
(0.110611 -3.51437e-19 -0.0217878)
(0.118226 6.89209e-19 -0.0232575)
(0.134191 0 -0.0263346)
(0.146214 0 -0.0286716)
(0.166195 0 -0.0324675)
(0.17971 0 -0.0349946)
(0.192348 0 -0.0372782)
(0.193038 0 -0.0373276)
(0.189325 -5.46016e-19 -0.0366144)
(0.178186 -1.05241e-18 -0.0345566)
(0.172254 -1.01879e-18 -0.0336212)
(0.168448 0 -0.0330508)
(0.181437 0 -0.0357144)
(0.202172 0 -0.039974)
(0.240433 -9.96221e-19 -0.0474797)
(0.284725 -1.99131e-18 -0.0560392)
(0.332049 9.91854e-19 -0.0651502)
(0.384247 0 -0.0750951)
(0.428617 -1.92779e-18 -0.0835934)
(0.480815 0 -0.0934998)
(0.516477 -1.82911e-18 -0.100314)
(0.566442 1.76542e-18 -0.109787)
(0.587419 -1.70359e-18 -0.113828)
(0.643763 -1.6354e-18 -0.124565)
(0.647197 1.57097e-18 -0.125291)
(0.729793 -7.62105e-23 -0.141086)
(0.71023 1.43603e-18 -0.137442)
(0.870852 0 -0.168191)
(29.1209 -1.28281e-21 4.03295)
(25.0764 0 1.86025)
(20.2145 -1.91519e-20 -0.212353)
(16.0509 0 -1.21006)
(13.0949 -1.73208e-20 -1.50508)
(11.0551 -3.04095e-20 -1.51599)
(9.58504 -1.40742e-20 -1.43846)
(8.47485 0 -1.341)
(7.60353 3.55169e-22 -1.2458)
(6.89835 -2.18751e-20 -1.15891)
(6.31373 2.00825e-20 -1.08101)
(5.81965 1.84344e-20 -1.01137)
(5.39554 -1.69193e-20 -0.948987)
(5.02675 1.55252e-20 -0.892878)
(4.70254 2.85392e-20 -0.842186)
(4.41485 0 -0.796178)
(4.15748 -6.42035e-23 -0.754236)
(3.92562 2.19147e-20 -0.71584)
(3.71543 2.00863e-20 -0.680549)
(3.52384 0 -0.647994)
(3.34834 0 -0.617859)
(3.18687 1.52655e-20 -0.589875)
(3.03771 0 -0.563813)
(2.89942 1.26207e-20 -0.539474)
(2.77079 -2.288e-20 -0.516687)
(2.65078 0 -0.495301)
(2.53851 1.86829e-20 -0.475186)
(2.43319 0 -0.456226)
(2.33418 -1.50721e-20 -0.43832)
(2.24087 -2.69355e-20 -0.421379)
(2.15276 -2.39579e-20 -0.405321)
(2.0694 -1.05959e-20 -0.390076)
(1.99038 9.31933e-21 -0.375581)
(1.91534 3.25709e-20 -0.361776)
(1.84398 2.82008e-20 -0.348611)
(1.77599 0 -0.336037)
(1.71113 0 -0.324013)
(1.64916 -1.77143e-23 -0.3125)
(1.58986 0 -0.301462)
(1.53305 -5.42795e-21 -0.290865)
(1.47855 0 -0.280682)
(1.42619 -5.6812e-21 -0.270883)
(1.37584 0 -0.261445)
(1.32735 -1.3229e-21 -0.252343)
(1.28061 0 -0.243557)
(1.23549 -2.31898e-21 -0.235065)
(1.1919 0 -0.22685)
(1.14973 0 -0.218894)
(1.1089 6.60597e-21 -0.211183)
(1.06931 0 -0.2037)
(1.03091 0 -0.196433)
(0.993601 0 -0.189367)
(0.957341 2.12027e-20 -0.182494)
(0.922047 4.53057e-20 -0.175799)
(0.887697 0 -0.169279)
(0.854208 0 -0.162918)
(0.821594 -2.60192e-20 -0.15672)
(0.789766 -2.68751e-20 -0.150669)
(0.758797 0 -0.14478)
(0.72858 0 -0.139032)
(0.699291 0 -0.133461)
(0.670805 0 -0.128044)
(0.64346 -5.88012e-20 -0.122847)
(0.61708 5.93306e-20 -0.117837)
(0.592187 -1.19499e-19 -0.113112)
(0.5684 0 -0.1086)
(0.546389 0 -0.10443)
(0.525277 0 -0.100433)
(0.505968 5.06688e-23 -0.0967661)
(0.486708 -1.19757e-19 -0.0930977)
(0.468794 -1.18938e-19 -0.0896581)
(0.448793 2.35556e-19 -0.0857892)
(0.428664 3.38321e-23 -0.0818692)
(0.403558 -1.14739e-19 -0.0769926)
(0.378712 -1.13105e-19 -0.072196)
(0.351293 0 -0.0669906)
(0.3327 0 -0.0635781)
(0.318165 0 -0.0609887)
(0.316422 2.15637e-19 -0.0607766)
(0.308856 0 -0.0592792)
(0.30496 0 -0.058418)
(0.285905 2.04855e-19 -0.0546566)
(0.274641 2.00712e-19 -0.0524673)
(0.253384 0 -0.0484367)
(0.247337 0 -0.0472865)
(0.22677 0 -0.0433868)
(0.229051 7.46109e-19 -0.0439717)
(0.223223 -1.0127e-22 -0.0431008)
(0.248087 3.62744e-19 -0.048087)
(0.261325 -3.5787e-19 -0.0508178)
(0.304087 7.05061e-19 -0.0591264)
(0.326405 3.46663e-19 -0.0634516)
(0.37217 6.79653e-19 -0.0722023)
(0.39537 0 -0.0767055)
(0.444942 0 -0.0862961)
(0.480986 0 -0.0933805)
(0.540251 0 -0.104725)
(0.577672 5.97e-19 -0.111783)
(0.613045 0 -0.118126)
(0.613716 0 -0.117918)
(0.605563 -5.23525e-19 -0.115982)
(0.578873 5.04067e-19 -0.110932)
(0.57193 1.94983e-18 -0.109532)
(0.57354 -9.5814e-19 -0.110393)
(0.625443 0 -0.120788)
(0.700101 0 -0.135751)
(0.821982 0 -0.159664)
(0.960639 9.48313e-19 -0.186428)
(1.10377 -9.43949e-19 -0.214146)
(1.26205 0 -0.244358)
(1.3943 3.6628e-18 -0.269864)
(1.55134 1.78419e-18 -0.299719)
(1.65654 3.46983e-18 -0.319997)
(1.80787 0 -0.348652)
(1.87022 0 -0.360843)
(2.04378 -1.54759e-18 -0.393759)
(2.05325 0 -0.396096)
(2.30737 -1.42019e-18 -0.444486)
(2.24363 -1.35621e-18 -0.433476)
(2.72173 0 -0.525967)
(31.8653 0 3.90628)
(31.0474 0 2.82368)
(28.5143 -1.2978e-20 1.02623)
(25.1704 0 -0.380669)
(21.92 0 -1.22413)
(19.1497 1.5116e-20 -1.64844)
(16.8945 1.33284e-20 -1.81646)
(15.0724 0 -1.84799)
(13.5875 4.19971e-22 -1.81435)
(12.3598 2.07237e-20 -1.752)
(11.3287 -3.78433e-20 -1.6784)
(10.45 -1.74666e-20 -1.6019)
(9.69155 1.14285e-22 -1.52647)
(9.02949 -1.47113e-20 -1.45396)
(8.44592 -1.34952e-20 -1.38515)
(7.92714 1.23246e-20 -1.32031)
(7.4625 -2.26787e-20 -1.25941)
(7.04358 -2.07673e-20 -1.20229)
(6.66366 0 -1.14875)
(6.31729 0 -1.09852)
(6 1.58287e-20 -1.05138)
(5.70813 1.44346e-20 -1.00706)
(5.43858 0 -0.965362)
(5.18877 0 -0.926065)
(4.95651 2.16802e-20 -0.888979)
(4.73992 0 -0.85393)
(4.53739 -3.54e-20 -0.820759)
(4.34753 1.59274e-20 -0.78932)
(4.16912 0 -0.759482)
(4.00109 1.27626e-20 -0.731126)
(3.84253 1.13521e-20 -0.704142)
(3.6926 0 -0.678432)
(3.55058 -8.84193e-21 -0.653906)
(3.41581 -1.54345e-20 -0.630479)
(3.28771 1.25827e-23 -0.608078)
(3.16575 0 -0.586631)
(3.04947 0 -0.566075)
(2.93844 8.0489e-21 -0.546351)
(2.83227 0 -0.527405)
(2.73061 0 -0.509186)
(2.63314 0 -0.491649)
(2.53956 0 -0.474749)
(2.44962 0 -0.458448)
(2.36305 0 -0.442707)
(2.27964 0 -0.427494)
(2.19917 2.15215e-21 -0.412774)
(2.12146 -3.64935e-21 -0.398521)
(2.04633 0 -0.384703)
(1.97362 -6.24987e-21 -0.371301)
(1.90317 0 -0.358283)
(1.83486 0 -0.345636)
(1.76854 1.84254e-20 -0.333332)
(1.70413 0 -0.321362)
(1.64149 -2.14058e-20 -0.309701)
(1.58059 2.25987e-20 -0.298346)
(1.52128 0 -0.287273)
(1.46359 2.45939e-20 -0.276492)
(1.40738 0 -0.265977)
(1.35277 0 -0.255755)
(1.29959 0 -0.245797)
(1.24812 5.41112e-20 -0.236163)
(1.19816 5.48809e-20 -0.226816)
(1.15026 2.84246e-23 -0.217866)
(1.10408 -1.12022e-19 -0.209253)
(1.06049 2.59725e-23 -0.201132)
(1.01878 0 -0.193372)
(0.980058 0 -0.186157)
(0.942766 -1.13595e-19 -0.179201)
(0.908447 4.12891e-23 -0.172761)
(0.874071 0 -0.166275)
(0.841896 0 -0.160115)
(0.806172 -1.11049e-19 -0.153195)
(0.770508 2.70688e-23 -0.146177)
(0.726952 2.50875e-23 -0.137646)
(0.684852 0 -0.129538)
(0.639136 0 -0.121087)
(0.608799 -2.07509e-19 -0.115834)
(0.584403 2.05253e-19 -0.111749)
(0.580396 0 -0.11123)
(0.565431 0 -0.108265)
(0.557083 0 -0.106371)
(0.523892 0 -0.0997574)
(0.505572 0 -0.0962147)
(0.470247 0 -0.0896263)
(0.461294 0 -0.0879744)
(0.428109 0 -0.0818187)
(0.434791 -7.01357e-19 -0.0835265)
(0.426634 -3.45712e-19 -0.0829619)
(0.47079 -3.40933e-19 -0.0921832)
(0.493739 3.36282e-19 -0.0972212)
(0.566715 -6.62234e-19 -0.11148)
(0.60362 -3.25618e-19 -0.118618)
(0.681413 -3.19096e-19 -0.133456)
(0.7206 0 -0.141085)
(0.805604 0 -0.157642)
(0.865523 0 -0.169471)
(0.963581 0 -0.188099)
(1.02226 -5.60084e-19 -0.198724)
(1.0788 0 -0.208241)
(1.07933 0 -0.207284)
(1.07078 4.90871e-19 -0.204734)
(1.03632 0 -0.198322)
(1.03924 -9.13694e-19 -0.199435)
(1.05957 8.97886e-19 -0.205412)
(1.16245 0 -0.226942)
(1.30339 0 -0.255918)
(1.51523 0 -0.298049)
(1.75486 8.87605e-19 -0.344363)
(1.99511 0 -0.390897)
(2.26299 -8.71375e-19 -0.441662)
(2.48272 -2.76404e-22 -0.483845)
(2.74748 -1.66981e-18 -0.533638)
(2.92089 -3.24651e-18 -0.566865)
(3.17795 0 -0.614911)
(3.28092 1.50905e-18 -0.6352)
(3.57932 1.44758e-18 -0.691149)
(3.59288 1.3893e-18 -0.695319)
(4.02809 0 -0.777351)
(3.91394 1.2681e-18 -0.759242)
(4.70686 0 -0.912587)
(32.3876 0 2.96597)
(32.9511 0 2.77644)
(32.3938 1.22685e-20 1.72909)
(30.7471 0 0.52603)
(28.4916 -1.23046e-20 -0.480121)
(26.0742 2.50243e-20 -1.20351)
(23.7548 0 -1.66673)
(21.6492 -2.18391e-20 -1.93093)
(19.7906 2.09373e-20 -2.06019)
(18.1693 1.89332e-20 -2.10458)
(16.7576 1.7793e-20 -2.09793)
(15.5244 -1.61714e-20 -2.06151)
(14.4411 1.50535e-20 -2.00825)
(13.4832 -2.74423e-20 -1.94599)
(12.6309 0 -1.87944)
(11.8677 -2.32498e-20 -1.81147)
(11.1804 0 -1.74382)
(10.5581 0 -1.67754)
(9.99186 0 -1.61325)
(9.47429 1.63502e-20 -1.55128)
(8.99924 -3.39677e-23 -1.49179)
(8.56155 -2.57892e-23 -1.43483)
(8.15686 1.24112e-20 -1.38039)
(7.78148 0 -1.32841)
(7.43223 0 -1.27879)
(7.1064 0 -1.23144)
(6.80162 3.34665e-20 -1.18623)
(6.51586 -5.58824e-24 -1.14307)
(6.24732 0 -1.10183)
(5.99443 0 -1.06241)
(5.75581 0 -1.0247)
(5.53022 0 -0.988599)
(5.31657 1.67251e-20 -0.954018)
(5.1139 0 -0.920864)
(4.92131 -1.26471e-20 -0.889052)
(4.73803 0 -0.858502)
(4.56335 0 -0.829139)
(4.39661 -7.63289e-21 -0.800892)
(4.23725 0 -0.773697)
(4.08471 0 -0.747489)
(3.93853 3.68794e-21 -0.722213)
(3.79824 -5.15471e-21 -0.697812)
(3.66345 0 -0.674237)
(3.53378 -1.2491e-21 -0.651436)
(3.40889 0 -0.62937)
(3.28846 -4.04708e-21 -0.607992)
(3.17221 1.8577e-23 -0.587268)
(3.05985 0 -0.567156)
(2.95116 0 -0.547629)
(2.8459 6.91472e-21 -0.528648)
(2.74389 1.57006e-20 -0.510194)
(2.64491 -3.47687e-20 -0.492231)
(2.54884 0 -0.47475)
(2.45548 -2.01613e-20 -0.457716)
(2.36479 -2.13323e-20 -0.441131)
(2.27657 -2.23081e-20 -0.424963)
(2.19086 -2.31713e-20 -0.40923)
(2.10745 0 -0.393896)
(2.02653 0 -0.379006)
(1.94785 -5.01311e-20 -0.36452)
(1.87183 -1.02052e-19 -0.350525)
(1.79814 -5.1762e-20 -0.33697)
(1.72757 3.06323e-23 -0.324008)
(1.65956 5.28012e-20 -0.311546)
(1.59535 5.31454e-20 -0.299794)
(1.53379 0 -0.288547)
(1.47648 0 -0.278053)
(1.42107 1.0705e-19 -0.267892)
(1.3698 2.13623e-19 -0.258403)
(1.31828 0 -0.24879)
(1.26985 1.05562e-19 -0.239554)
(1.21641 1.04524e-19 -0.229198)
(1.16352 1.0328e-19 -0.21873)
(1.10019 2.03592e-19 -0.206305)
(1.0403 0 -0.194835)
(0.976143 0 -0.183267)
(0.934243 1.95271e-19 -0.176464)
(0.899341 -3.86164e-19 -0.171108)
(0.891849 -1.90857e-19 -0.170134)
(0.867491 0 -0.165318)
(0.85337 0 -0.161929)
(0.805084 0 -0.152193)
(0.780116 0 -0.147382)
(0.730722 0 -0.138347)
(0.71981 0 -0.136417)
(0.674844 -3.34743e-19 -0.128316)
(0.68805 9.3555e-23 -0.131878)
(0.678635 3.24514e-19 -0.131942)
(0.744035 0 -0.145877)
(0.777012 3.15553e-19 -0.15338)
(0.881165 3.10776e-19 -0.17384)
(0.932122 0 -0.183712)
(1.0429 -2.99295e-19 -0.204827)
(1.09818 -5.86035e-19 -0.215642)
(1.21996 0 -0.239508)
(1.30306 0 -0.255994)
(1.43893 0 -0.28167)
(1.51631 -5.24971e-19 -0.295176)
(1.59295 0 -0.307397)
(1.59446 0 -0.305675)
(1.5906 4.59897e-19 -0.303214)
(1.55735 -4.42563e-19 -0.297471)
(1.58102 0 -0.30343)
(1.63375 0 -0.317147)
(1.79805 0 -0.352002)
(2.01697 0 -0.39744)
(2.32289 0 -0.458838)
(2.66965 -2.406e-22 -0.525816)
(3.00668 0 -0.591199)
(3.38799 8.15404e-19 -0.663092)
(3.6935 -1.60351e-18 -0.721662)
(4.06979 0 -0.791897)
(4.309 2.1285e-22 -0.837673)
(4.67753 0 -0.905895)
(4.81912 -1.54697e-22 -0.934145)
(5.25116 0 -1.01436)
(5.26563 -1.29894e-18 -1.02034)
(5.89152 0 -1.13724)
(5.72128 1.18521e-18 -1.11227)
(6.82066 0 -1.32561)
(32.49 0 2.11446)
(33.2465 0 2.23791)
(33.5907 0 1.76046)
(33.2231 0 0.964428)
(32.1972 1.16146e-20 0.121105)
(30.7206 -9.00439e-22 -0.629115)
(28.9991 0 -1.23089)
(27.1917 2.06131e-20 -1.67516)
(25.408 0 -1.97919)
(23.7139 -3.52412e-20 -2.17132)
(22.1416 0 -2.28019)
(20.7012 1.52669e-20 -2.32983)
(19.39 0 -2.33854)
(18.1992 2.59099e-20 -2.31959)
(17.1176 -1.18016e-20 -2.28227)
(16.1336 2.18068e-20 -2.23303)
(15.2363 -1.99633e-20 -2.17632)
(14.4157 -1.83245e-20 -2.1152)
(13.663 0 -2.05176)
(12.9705 -1.54391e-20 -1.98745)
(12.3316 -1.41054e-20 -1.92328)
(11.7404 -2.56999e-20 -1.85991)
(11.1918 -1.17196e-20 -1.79781)
(10.6814 0 -1.73727)
(10.2055 0 -1.67847)
(9.76054 0 -1.62152)
(9.34369 -1.57953e-20 -1.56647)
(8.95232 -1.42171e-20 -1.51332)
(8.58415 0 -1.46207)
(8.23714 0 -1.41266)
(7.90947 1.01382e-20 -1.36505)
(7.59955 0 -1.31919)
(7.30592 1.65585e-24 -1.275)
(7.02729 -1.38016e-20 -1.23241)
(6.76248 1.19557e-20 -1.19136)
(6.51045 0 -1.15178)
(6.27023 0 -1.11359)
(6.04096 7.20408e-21 -1.07673)
(5.82183 0 -1.04113)
(5.61212 0 -1.00673)
(5.41118 -3.48017e-21 -0.973468)
(5.21838 4.86401e-21 -0.941283)
(5.03318 0 -0.910121)
(4.85505 1.17851e-21 -0.879924)
(4.68353 0 -0.850648)
(4.51817 1.8997e-21 -0.822237)
(4.35859 3.23446e-21 -0.794655)
(4.20441 0 -0.767851)
(4.05531 5.52144e-21 -0.741796)
(3.91095 -6.52097e-21 -0.716442)
(3.77111 -2.95822e-20 -0.69177)
(3.63548 1.63784e-20 -0.667737)
(3.50392 -1.77494e-20 -0.644335)
(3.37614 2.38331e-23 -0.621526)
(3.25211 0 -0.599315)
(3.13156 2.10263e-20 -0.577667)
(3.01456 2.18377e-20 -0.556607)
(2.90084 -2.25131e-20 -0.536098)
(2.79065 2.31031e-20 -0.516199)
(2.68366 4.72307e-20 -0.496863)
(2.58044 4.80527e-20 -0.478207)
(2.48049 -4.86949e-20 -0.460164)
(2.38485 4.92695e-20 -0.442928)
(2.29273 0 -0.426369)
(2.20568 0 -0.410744)
(2.12209 5.02061e-20 -0.395765)
(2.04405 0 -0.38173)
(1.96832 0 -0.368076)
(1.89793 -1.005e-19 -0.355221)
(1.82702 0 -0.342131)
(1.76016 -9.93176e-20 -0.329436)
(1.68689 -1.96624e-19 -0.315254)
(1.61506 0 -0.300983)
(1.53063 -9.5721e-20 -0.284433)
(1.45242 0 -0.269596)
(1.3695 0 -0.255119)
(1.31593 -1.83436e-19 -0.247055)
(1.26948 1.81444e-19 -0.240499)
(1.25698 5.87231e-23 -0.238922)
(1.22114 0 -0.231741)
(1.19998 0 -0.226454)
(1.13572 0 -0.213425)
(1.10451 -1.66599e-19 -0.207489)
(1.041 1.63262e-19 -0.196146)
(1.02913 0 -0.19422)
(0.973198 6.28368e-19 -0.184568)
(0.994949 3.09046e-19 -0.190756)
(0.985123 -6.08963e-19 -0.191884)
(1.07338 -3.00125e-19 -0.211105)
(1.11625 -5.9196e-19 -0.22125)
(1.25209 0 -0.248047)
(1.31621 0 -0.260473)
(1.46054 2.80637e-19 -0.287973)
(1.53161 5.49416e-19 -0.301956)
(1.69086 -5.3613e-19 -0.333343)
(1.79595 0 -0.354219)
(1.96825 0 -0.386508)
(2.06213 4.91865e-19 -0.402105)
(2.15841 4.71641e-19 -0.416569)
(2.16328 0 -0.41431)
(2.16968 -4.30704e-19 -0.413037)
(2.14745 4.14411e-19 -0.410448)
(2.20184 0 -0.423459)
(2.30018 0 -0.448353)
(2.53364 0 -0.498805)
(2.84123 0 -0.563254)
(3.24266 0 -0.644533)
(3.70247 -7.77125e-19 -0.733232)
(4.13405 0 -0.816981)
(4.63326 0 -0.910518)
(5.02137 0 -0.984699)
(5.5143 1.46022e-18 -1.07588)
(5.81565 1.41955e-18 -1.13339)
(6.30297 0 -1.22265)
(6.47958 -1.3192e-18 -1.2584)
(7.05511 0 -1.36414)
(7.06609 -1.2139e-18 -1.37176)
(7.89147 0 -1.52437)
(7.66143 -1.10762e-18 -1.49307)
(9.0523 0 -1.76367)
(32.5617 -4.98283e-21 1.50106)
(33.1442 -6.18454e-21 1.63928)
(33.6695 7.34311e-21 1.4466)
(33.893 8.27422e-21 0.983995)
(33.6979 0 0.390604)
(33.0965 -9.91619e-21 -0.226563)
(32.1625 0 -0.801682)
(30.987 1.74198e-20 -1.29774)
(29.6589 1.66552e-20 -1.69934)
(28.2547 3.21238e-20 -2.00698)
(26.8337 -1.47801e-20 -2.2304)
(25.4381 1.37921e-20 -2.38316)
(24.0951 0 -2.4792)
(22.82 0 -2.53118)
(21.6202 1.11264e-20 -2.54973)
(20.4973 -1.14556e-22 -2.5434)
(19.4497 1.76063e-22 -2.51884)
(18.4738 1.35894e-22 -2.48111)
(17.5651 0 -2.43407)
(16.7186 0 -2.38058)
(15.9295 0 -2.32279)
(15.1931 2.41485e-20 -2.26231)
(14.5048 1.09858e-20 -2.20035)
(13.8606 0 -2.13778)
(13.2567 0 -2.07526)
(12.6898 1.64403e-20 -2.01328)
(12.1567 0 -1.95218)
(11.6546 0 -1.89222)
(11.181 0 -1.83356)
(10.7337 0 -1.77633)
(10.3104 -6.11873e-24 -1.72059)
(9.90949 0 -1.66639)
(9.52909 -1.36739e-24 -1.61374)
(9.16771 1.301e-20 -1.56264)
(8.82395 3.01627e-24 -1.51306)
(8.4965 0 -1.46498)
(8.1842 0 -1.41835)
(7.88597 0 -1.37314)
(7.60082 0 -1.3293)
(7.32784 0 -1.28676)
(7.06621 0 -1.2455)
(6.81514 0 -1.20545)
(6.57394 -2.8075e-21 -1.16656)
(6.34192 -1.14661e-21 -1.12878)
(6.11851 0 -1.09206)
(5.90313 1.75561e-21 -1.05635)
(5.69528 0 -1.02162)
(5.49447 0 -0.987805)
(5.30031 -1.03863e-20 -0.954883)
(5.11235 0 -0.922802)
(4.93031 1.39162e-20 -0.891546)
(4.75379 0 -0.861069)
(4.58264 3.34016e-20 -0.831369)
(4.41648 2.29636e-23 -0.802404)
(4.25528 0 -0.774189)
(4.09871 0 -0.746687)
(3.94688 0 -0.719938)
(3.79945 4.236e-20 -0.6939)
(3.65676 -4.34675e-20 -0.668653)
(3.51836 -4.43793e-20 -0.644144)
(3.38498 -4.51513e-20 -0.620519)
(3.25597 9.15966e-20 -0.597697)
(3.13262 4.62917e-20 -0.575909)
(3.01378 0 -0.554984)
(2.90143 0 -0.535216)
(2.79332 -2.61108e-23 -0.516226)
(2.69214 0 -0.498355)
(2.59364 0 -0.480892)
(2.50172 -9.43963e-20 -0.464327)
(2.40895 0 -0.447388)
(2.32134 0 -0.430841)
(2.22601 1.84718e-19 -0.412451)
(2.13349 -9.11985e-20 -0.394058)
(2.02661 0 -0.373204)
(1.92944 0 -0.355023)
(1.82726 0 -0.337814)
(1.76156 1.72274e-19 -0.328684)
(1.70212 0 -0.320905)
(1.68285 3.36627e-19 -0.318411)
(1.63332 -1.65859e-19 -0.308402)
(1.60391 0 -0.300898)
(1.52283 0 -0.28445)
(1.48575 1.56333e-19 -0.277535)
(1.40799 -4.12235e-23 -0.264017)
(1.39618 1.50126e-19 -0.262388)
(1.33004 -2.94663e-19 -0.251482)
(1.36216 2.89666e-19 -0.260965)
(1.35243 2.85478e-19 -0.263682)
(1.46472 2.81395e-19 -0.288658)
(1.51683 8.66936e-23 -0.301508)
(1.6843 0 -0.334686)
(1.76023 -2.68332e-19 -0.349423)
(1.93812 0 -0.383325)
(2.02416 0 -0.400371)
(2.22076 5.02253e-19 -0.439342)
(2.34614 0 -0.46425)
(2.55307 0 -0.502653)
(2.66175 0 -0.519679)
(2.77762 -4.41602e-19 -0.536059)
(2.78933 0 -0.533744)
(2.81154 -4.03094e-19 -0.534989)
(2.81066 0 -0.537471)
(2.90384 0 -0.559753)
(3.06023 0 -0.598765)
(3.36726 0 -0.666241)
(3.77313 0 -0.751897)
(4.26836 -7.27707e-19 -0.853057)
(4.84716 -7.26395e-19 -0.964451)
(5.36877 7.22787e-19 -1.06573)
(5.99125 0 -1.18159)
(6.45689 0 -1.27037)
(7.07309 -2.7301e-18 -1.38331)
(7.43123 0 -1.45154)
(8.04617 1.27889e-18 -1.56298)
(8.25232 0 -1.60552)
(8.9817 1.18207e-18 -1.73807)
(8.98392 1.13437e-18 -1.7471)
(10.0154 0 -1.93577)
(9.72543 -1.03472e-18 -1.89935)
(11.3851 0 -2.22342)
(32.6159 4.69247e-21 1.04973)
(33.0262 1.13994e-20 1.13556)
(33.4714 -6.91681e-21 1.05122)
(33.8353 -7.82958e-22 0.786508)
(34.007 7.49093e-21 0.394935)
(33.9305 0 -0.0615506)
(33.598 0 -0.533825)
(33.03 -1.64033e-20 -0.986133)
(32.2619 -3.04634e-20 -1.39484)
(31.3364 -7.08723e-22 -1.7469)
(30.2972 1.39163e-20 -2.03785)
(29.1848 -1.29859e-20 -2.26904)
(28.0344 1.17424e-20 -2.44535)
(26.8742 0 -2.57339)
(25.7256 0 -2.66036)
(24.6042 -9.53337e-21 -2.71328)
(23.5204 3.48811e-20 -2.73855)
(22.4806 3.20996e-20 -2.74175)
(21.4883 0 -2.7276)
(20.5447 0 -2.69999)
(19.6497 0 -2.66207)
(18.802 -6.74066e-23 -2.61638)
(17.9999 -2.06363e-20 -2.56495)
(17.2411 9.37132e-21 -2.50939)
(16.5234 1.70274e-20 -2.45097)
(15.8444 -3.09108e-20 -2.39068)
(15.2015 1.39448e-20 -2.32931)
(14.5926 1.25635e-20 -2.26747)
(14.0154 1.12799e-20 -2.20562)
(13.4678 0 -2.14414)
(12.9477 -8.99301e-21 -2.08332)
(12.4535 7.95489e-21 -2.02335)
(11.9833 -7.00841e-21 -1.9644)
(11.5354 -1.2243e-20 -1.90659)
(11.1086 -2.12223e-20 -1.84998)
(10.7012 0 -1.79463)
(10.3121 0 -1.74058)
(9.93994 -6.41143e-21 -1.68782)
(9.58374 0 -1.63636)
(9.2424 4.1223e-21 -1.58619)
(8.91497 3.1113e-21 -1.53728)
(8.60052 0 -1.48961)
(8.29824 5.29963e-21 -1.44314)
(8.00733 1.07903e-21 -1.39784)
(7.72708 0 -1.35368)
(7.4568 -1.65196e-21 -1.3106)
(7.1959 -2.82115e-21 -1.2686)
(6.94376 0 -1.2276)
(6.69993 9.7433e-21 -1.18761)
(6.46385 -5.73751e-21 -1.14856)
(6.2352 -1.30395e-20 -1.11045)
(6.01348 0 -1.07324)
(5.79852 -2.31784e-23 -1.03694)
(5.58987 3.35526e-20 -1.0015)
(5.38752 0 -0.966961)
(5.19105 0 -0.933278)
(5.00066 -1.92726e-20 -0.900513)
(4.81588 -1.99044e-20 -0.868624)
(4.63721 4.08303e-20 -0.837716)
(4.46406 4.17177e-20 -0.807729)
(4.29734 4.24396e-20 -0.778844)
(4.13619 -4.30294e-20 -0.75096)
(3.98217 -8.69781e-20 -0.724348)
(3.83377 0 -0.698784)
(3.69335 0 -0.674598)
(3.558 -8.86425e-20 -0.651311)
(3.431 0 -0.629297)
(3.30701 0 -0.607691)
(3.19094 8.86585e-20 -0.587057)
(3.07363 0 -0.565885)
(2.96281 -8.75545e-20 -0.545091)
(2.84308 -3.08668e-23 -0.522119)
(2.72805 8.5618e-20 -0.499312)
(2.5973 0 -0.474008)
(2.48044 0 -0.452531)
(2.35819 0 -0.432764)
(2.2795 1.61532e-19 -0.422726)
(2.20522 0 -0.413655)
(2.17717 -1.57877e-19 -0.409924)
(2.11167 3.11118e-19 -0.396611)
(2.07283 0 -0.386559)
(1.97408 0 -0.366602)
(1.93137 0 -0.358866)
(1.83911 -4.13791e-23 -0.343341)
(1.8283 -1.40739e-19 -0.342336)
(1.7525 -2.76038e-19 -0.330708)
(1.79649 -2.71487e-19 -0.344068)
(1.78699 2.67349e-19 -0.348726)
(1.92386 0 -0.3798)
(1.98396 2.59841e-19 -0.395292)
(2.18229 0 -0.434744)
(2.26818 2.51337e-19 -0.451448)
(2.47883 0 -0.491629)
(2.57837 0 -0.511515)
(2.8112 0 -0.55793)
(2.95474 -4.58772e-19 -0.586387)
(3.1941 -4.45257e-19 -0.630299)
(3.31643 0 -0.648187)
(3.45202 4.1322e-19 -0.666245)
(3.47489 -3.957e-19 -0.664607)
(3.51767 3.77165e-19 -0.669412)
(3.54813 -3.62715e-19 -0.679539)
(3.68535 0 -0.71264)
(3.91087 0 -0.768599)
(4.29161 0 -0.85383)
(4.80421 0 -0.962646)
(5.38801 6.8047e-19 -1.08299)
(6.09192 2.31188e-22 -1.21805)
(6.69643 -1.35128e-18 -1.33549)
(7.44861 0 -1.47448)
(7.98454 0 -1.5764)
(8.73228 1.27574e-18 -1.71211)
(9.13992 0 -1.78968)
(9.89257 -1.19512e-18 -1.92457)
(10.1208 0 -1.97287)
(11.0139 -2.20883e-18 -2.13333)
(11.0021 0 -2.14353)
(12.2421 0 -2.36785)
(11.8973 9.66593e-19 -2.32814)
(13.7949 0 -2.70025)
(32.6401 0 0.697271)
(32.9408 -5.24416e-21 0.739406)
(33.2771 0 0.688676)
(33.6067 -6.59601e-21 0.524373)
(33.8664 -1.34452e-20 0.261378)
(34.0054 0 -0.0685808)
(33.9952 6.70624e-21 -0.434095)
(33.8245 0 -0.809064)
(33.4938 9.00997e-22 -1.17328)
(33.0129 -2.58234e-20 -1.51225)
(32.3978 0 -1.81665)
(31.6691 0 -2.0816)
(30.8489 -1.10443e-20 -2.3055)
(29.9598 0 -2.4891)
(29.0229 0 -2.63471)
(28.0571 0 -2.74562)
(27.0786 -1.62941e-20 -2.82562)
(26.1008 -1.50103e-20 -2.87869)
(25.1341 -1.3618e-20 -2.9087)
(24.1867 0 -2.91931)
(23.2644 0 -2.9138)
(22.3709 -1.0608e-20 -2.89507)
(21.509 9.67974e-21 -2.86565)
(20.68 -8.81398e-21 -2.82767)
(19.8844 -1.60147e-20 -2.78295)
(19.1221 2.89558e-20 -2.73298)
(18.3926 -5.44031e-23 -2.67902)
(17.695 -1.18159e-20 -2.62209)
(17.0283 -1.06086e-20 -2.56304)
(16.3911 0 -2.50256)
(15.7822 0 -2.44122)
(15.2002 -7.48103e-21 -2.37947)
(14.6438 0 -2.31767)
(14.1117 1.15131e-20 -2.25612)
(13.6025 9.97727e-21 -2.19504)
(13.1149 -8.55115e-21 -2.13462)
(12.6478 0 -2.07499)
(12.2 6.02852e-21 -2.01627)
(11.7704 4.9107e-21 -1.95852)
(11.3579 3.71419e-24 -1.90181)
(10.9614 -5.85511e-21 -1.84617)
(10.5802 0 -1.79162)
(10.2131 -2.49827e-21 -1.73816)
(9.8595 0 -1.6858)
(9.51847 0 -1.63454)
(9.18925 0 -1.58434)
(8.87121 1.3303e-23 -1.53522)
(8.56363 0 -1.48712)
(8.26599 -4.57192e-21 -1.44006)
(7.97766 1.07715e-20 -1.394)
(7.69828 1.22534e-20 -1.34895)
(7.42727 0 -1.30487)
(7.16445 -1.47265e-20 -1.26179)
(6.9093 -3.14824e-20 -1.21967)
(6.66185 0 -1.17858)
(6.4216 0 -1.13848)
(6.18883 1.81038e-20 -1.09944)
(5.96301 1.86617e-20 -1.06145)
(5.74475 -1.91662e-20 -1.02462)
(5.53333 -3.91163e-20 -0.988891)
(5.3299 0 -0.954489)
(5.13332 0 -0.921288)
(4.94549 2.86098e-23 -0.889595)
(4.76441 -4.11365e-20 -0.859131)
(4.59293 0 -0.830257)
(4.42734 4.15917e-20 -0.802381)
(4.27164 0 -0.775911)
(4.11923 0 -0.749824)
(3.97618 0 -0.724753)
(3.83149 0 -0.698964)
(3.69486 3.38104e-23 -0.673538)
(3.54828 -3.02738e-23 -0.645638)
(3.40888 -8.02625e-20 -0.618161)
(3.25272 0 -0.588302)
(3.11523 -7.78675e-20 -0.563587)
(2.97178 0 -0.541406)
(2.87887 -1.51468e-19 -0.530535)
(2.78748 1.49653e-19 -0.520006)
(2.74845 -1.47901e-19 -0.514644)
(2.66464 -1.458e-19 -0.497585)
(2.6152 0 -0.484724)
(2.49781 1.40228e-19 -0.461206)
(2.4495 0 -0.452798)
(2.34235 -1.34499e-19 -0.435436)
(2.33329 -1.31778e-19 -0.435377)
(2.24821 2.58593e-19 -0.423079)
(2.30503 0 -0.441209)
(2.29535 -5.00705e-19 -0.448172)
(2.45653 0 -0.485545)
(2.52269 2.43148e-19 -0.503495)
(2.75028 0 -0.548953)
(2.84365 2.35163e-19 -0.567171)
(3.08523 0 -0.613328)
(3.19602 4.50754e-19 -0.635686)
(3.46276 -4.39804e-19 -0.689183)
(3.62192 4.29318e-19 -0.720616)
(3.89095 4.16628e-19 -0.769344)
(4.02637 0 -0.787652)
(4.18155 -7.7311e-19 -0.80716)
(4.2203 7.40261e-19 -0.807051)
(4.28667 0 -0.816285)
(4.35766 3.39225e-19 -0.836238)
(4.54024 0 -0.881164)
(4.84414 0 -0.956496)
(5.29375 -6.35704e-19 -1.05928)
(5.92024 0 -1.19293)
(6.58338 0 -1.33104)
(7.4189 6.34635e-19 -1.49074)
(8.09619 1.2626e-18 -1.62244)
(8.98558 6.22365e-19 -1.78555)
(9.58201 0 -1.89872)
(10.4711 0 -2.05845)
(10.9189 0 -2.14364)
(11.82 0 -2.30331)
(12.0612 1.07583e-18 -2.35603)
(13.1261 1.03166e-18 -2.54512)
(13.0958 0 -2.55642)
(14.5406 0 -2.81482)
(14.1522 0 -2.77453)
(16.2495 0 -3.18783)
(32.6389 4.19302e-21 0.409634)
(32.8703 0 0.424497)
(33.1253 4.91051e-21 0.382726)
(33.3894 0 0.26831)
(33.6315 6.01297e-21 0.0818262)
(33.8202 0 -0.162019)
(33.9324 -6.30301e-21 -0.444099)
(33.9532 1.15563e-20 -0.746482)
(33.8734 2.35943e-20 -1.05401)
(33.6883 7.28976e-22 -1.35469)
(33.3975 0 -1.63951)
(33.0046 0 -1.90225)
(32.5162 0 -2.13905)
(31.9415 0 -2.34783)
(31.2918 0 -2.52785)
(30.579 0 -2.67939)
(29.8157 1.46801e-20 -2.80347)
(29.0143 -1.36023e-20 -2.90169)
(28.1863 1.27956e-20 -2.97605)
(27.3422 0 -3.02878)
(26.4912 0 -3.0622)
(25.6411 9.76614e-21 -3.07864)
(24.7984 8.93506e-21 -3.08037)
(23.9682 8.15445e-21 -3.06949)
(23.1545 0 -3.04794)
(22.3604 -1.35702e-20 -3.01744)
(21.5879 -2.44681e-20 -2.97954)
(20.8385 1.10029e-20 -2.93558)
(20.113 0 -2.88673)
(19.412 0 -2.83399)
(18.7354 0 -2.77821)
(18.083 6.99367e-21 -2.72012)
(17.4545 0 -2.66033)
(16.8492 0 -2.59936)
(16.2665 9.34713e-21 -2.53763)
(15.7055 8.03301e-21 -2.47549)
(15.1655 0 -2.41324)
(14.6455 5.65897e-21 -2.35113)
(14.1448 -9.22382e-21 -2.28933)
(13.6623 -3.64405e-21 -2.22802)
(13.1973 2.752e-21 -2.16731)
(12.7488 0 -2.1073)
(12.3161 0 -2.04808)
(11.8982 0 -1.98968)
(11.4945 -2.72042e-22 -1.93216)
(11.1041 0 -1.87554)
(10.7264 2.47754e-21 -1.81987)
(10.3606 3.41348e-21 -1.76512)
(10.0062 0 -1.71134)
(9.66243 -5.05093e-21 -1.65852)
(9.32904 0 -1.60669)
(9.00535 0 -1.55583)
(8.69121 -1.37838e-20 -1.50601)
(8.38604 1.96908e-23 -1.45721)
(8.08993 1.55909e-20 -1.40951)
(7.80231 0 -1.36289)
(7.5236 0 -1.31747)
(7.25314 -1.75139e-20 -1.27322)
(6.99177 0 -1.23031)
(6.73859 3.67056e-20 -1.18867)
(6.49503 0 -1.14856)
(6.25964 0 -1.10984)
(6.03472 7.65096e-20 -1.07286)
(5.81771 7.7154e-20 -1.03727)
(5.61203 3.88027e-20 -1.00347)
(5.41303 0 -0.970731)
(5.22557 0 -0.939507)
(5.04163 3.90426e-20 -0.90861)
(4.86866 7.7904e-20 -0.878751)
(4.69361 0 -0.847978)
(4.52851 7.69904e-20 -0.817561)
(4.35256 -7.62031e-20 -0.784424)
(4.18684 7.52408e-20 -0.752069)
(4.00357 -7.41043e-20 -0.717586)
(3.84431 7.29829e-20 -0.689697)
(3.67818 0 -0.665212)
(3.56939 0 -0.653515)
(3.45832 -1.40228e-19 -0.641322)
(3.40593 2.7709e-19 -0.633934)
(3.30139 0 -0.612703)
(3.2401 0 -0.596786)
(3.10292 -1.31348e-19 -0.56967)
(3.04877 0 -0.56072)
(2.92608 0 -0.54171)
(2.91928 1.23398e-19 -0.542908)
(2.82478 2.41946e-19 -0.530672)
(2.89485 0 -0.553723)
(2.88398 2.34321e-19 -0.563199)
(3.06824 0 -0.606868)
(3.13784 -2.27576e-19 -0.626945)
(3.39202 2.23873e-19 -0.677942)
(3.48972 -2.20062e-19 -0.697093)
(3.75908 -2.15439e-19 -0.748686)
(3.87795 -1.20996e-22 -0.77298)
(4.17482 4.11446e-19 -0.832933)