/*--------------------------------*- C++ -*----------------------------------*\
| =========                 |                                                 |
| \\      /  F ield         | OpenFOAM: The Open Source CFD Toolbox           |
|  \\    /   O peration     | Version:  2412                                  |
|   \\  /    A nd           | Website:  www.openfoam.com                      |
|    \\/     M anipulation  |                                                 |
\*---------------------------------------------------------------------------*/
FoamFile
{
    version     2.0;
    format      ascii;
    arch        "LSB;label=32;scalar=64";
    class       volVectorField;
    location    "0.385";
    object      ddt0(U);
}
// * * * * * * * * * * * * * * * * * * * * * * * * * * * * * * * * * * * * * //

dimensions      [0 1 -2 0 0 0 0];

internalField   nonuniform List<vector> 
12600
(
(-6.59685 0 2.2489)
(-3.47546 -1.44685e-18 0.888715)
(-2.37518 -1.42399e-18 0.753629)
(-2.77975 0 0.608547)
(-3.13109 2.96757e-19 0.321146)
(-2.05834 0 0.498107)
(0.0278266 6.7987e-19 1.08539)
(0.50688 0 1.09919)
(-1.92555 0 0.00937464)
(-4.09597 0 -0.902238)
(-1.73307 0 0.145716)
(3.1909 2.36222e-18 2.14583)
(3.28739 9.70037e-18 2.00867)
(-3.66772 0 -0.999286)
(-8.69231 2.33625e-17 -3.08212)
(-1.78 0 -0.288729)
(11.4277 1.49017e-18 5.03454)
(11.417 0 4.75961)
(-8.68731 6.71511e-19 -3.75347)
(-25.1879 0 -10.0135)
(-9.34436 0 -1.91669)
(26.3578 0 13.1036)
(36.0094 -1.50023e-16 13.3334)
(2.23569 1.46896e-16 -5.20659)
(-37.9681 -1.11476e-17 -20.7253)
(-39.687 2.00691e-16 -13.9544)
(-5.03582 0 4.62368)
(28.4751 0 15.9284)
(30.8811 0 12.1217)
(6.80834 -8.9682e-17 0.438078)
(-13.2109 8.01002e-17 -6.96942)
(-11.3503 0 -5.46436)
(0.158495 0 -0.298734)
(5.12151 -1.75482e-17 2.04484)
(1.37217 3.2121e-17 0.565035)
(-3.15758 0 -1.3272)
(-2.39783 0 -0.901856)
(1.0957 -2.74249e-17 0.56387)
(1.97393 0 0.790126)
(-0.0419829 -8.51973e-19 -0.0734429)
(-1.42912 -2.0672e-18 -0.498097)
(-0.712448 -1.19424e-17 -0.097102)
(0.403411 0 0.313286)
(0.408552 6.45614e-18 0.230282)
(-0.36807 3.5388e-18 -0.219428)
(-0.644087 3.61395e-18 -0.227972)
(-0.328906 -4.61677e-18 0.0648011)
(-0.179275 0 0.0861529)
(-0.16449 6.53721e-18 0.0504141)
(0.0901379 -6.10695e-18 0.0666349)
(0.638264 0 0.141979)
(0.996873 -1.8019e-19 0.11192)
(0.656049 -9.24757e-18 -0.228124)
(0.104401 0 -0.366425)
(-0.141805 -4.59038e-17 -0.317846)
(-0.0676412 0 -0.174559)
(-0.127868 0 0.0180211)
(-0.477333 -8.17252e-20 0.233531)
(-0.730121 -5.19272e-19 0.211856)
(-0.235195 6.73616e-17 0.247686)
(0.239587 -1.97751e-17 0.444746)
(-0.87408 -1.47116e-16 0.428172)
(-3.18555 0 -0.22517)
(-3.08183 8.88708e-17 -0.670726)
(2.14747 2.5713e-16 0.969602)
(8.34291 2.08837e-17 3.74371)
(4.58111 -4.98514e-16 0.230228)
(-3.39972 0 -2.25419)
(-5.59153 0 -3.58727)
(4.50025 0 -3.92465)
(19.864 0 -3.70017)
(21.6338 0 5.5313)
(-5.63447 3.8614e-15 7.23369)
(-65.054 -1.18729e-15 24.5983)
(-93.6905 0 35.4157)
(60.2442 0 -29.9679)
(48.6148 1.39406e-15 -11.6828)
(6.05314 -1.1339e-16 12.8025)
(0.742951 -7.18037e-15 -5.11839)
(-26.3964 0 5.06215)
(-17.4712 0 1.23596)
(3.51622 0 -0.178182)
(32.4993 -1.73918e-17 -10.9025)
(51.5062 0 -24.4426)
(42.2926 0 -23.6412)
(26.2912 -9.62732e-16 -16.9448)
(2.82273 7.43866e-18 -1.6669)
(-21.6042 0 12.839)
(-33.7946 0 20.3269)
(-35.5001 1.04295e-16 19.5501)
(-24.851 -2.14237e-16 12.8516)
(-15.6886 -5.12912e-16 8.05611)
(-8.59399 -6.25856e-16 4.77928)
(-1.46565 -1.51346e-19 1.41339)
(3.40358 1.34639e-17 0.44)
(1.92371 -4.95379e-16 -0.683887)
(-3.97542 0 1.49853)
(-6.77783 0 2.62014)
(0.601478 0 -0.665254)
(12.9022 3.68704e-16 -6.37235)
(16.0577 1.13178e-15 -8.16496)
(5.42236 -1.20091e-15 -3.2113)
(-5.76625 -1.69935e-16 1.80653)
(-5.78607 0 2.72223)
(-2.4675 0 1.54202)
(-0.854832 0 0.841963)
(-0.306568 -7.1123e-16 0.29538)
(0.034199 0 -0.165486)
(0.697026 -1.92006e-16 -0.845731)
(2.03758 0 -1.05771)
(2.46311 0 -1.2068)
(2.41128 -2.69419e-16 -1.22968)
(1.30752 0 -0.693588)
(0.232592 0 -0.249091)
(-1.05892 0 0.563043)
(-1.81523 -5.27432e-17 1.04334)
(-1.82701 0 1.05488)
(-1.88609 1.66813e-17 1.07405)
(-0.956711 0 0.535651)
(-0.828092 7.63429e-20 0.465711)
(-9.58373 -1.97001e-20 3.38275)
(-8.4554 1.00658e-18 1.93522)
(-7.62726 2.9623e-19 1.91099)
(-7.37083 0 1.73791)
(-6.66577 -4.63264e-20 1.37787)
(-4.29777 5.78408e-19 1.7917)
(-1.69796 -7.0904e-19 2.59327)
(-1.96025 2.03826e-18 2.23302)
(-5.01847 0 0.421258)
(-5.97036 0 -0.539297)
(-1.57868 0 1.29536)
(3.36735 0 3.89953)
(0.983586 0 2.98853)
(-7.65321 0 -1.59863)
(-10.4154 1.1803e-19 -3.86364)
(0.843916 0 1.13449)
(14.2758 -9.99971e-18 8.26607)
(8.2175 0 5.79355)
(-16.6509 -5.90762e-18 -7.30663)
(-27.7752 3.87833e-17 -13.5503)
(-0.790622 0 1.92071)
(35.9903 -2.53725e-17 22.348)
(33.0149 7.34146e-17 17.0285)
(-14.3293 -6.51424e-17 -17.7164)
(-53.645 -8.29784e-17 -42.9829)
(-39.614 0 -23.4261)
(9.13125 -6.58721e-17 17.4651)
(43.121 0 38.0065)
(35.1887 0 24.8373)
(1.3216 0 -2.31512)
(-18.6816 -5.11867e-17 -14.2921)
(-11.8961 0 -8.95856)
(1.81252 0 -0.485051)
(5.98204 0 2.74187)
(1.04751 0 0.678234)
(-3.55595 0 -1.91073)
(-2.08492 0 -1.30496)
(1.70696 2.82253e-17 0.71076)
(2.22862 0 1.00138)
(-0.112217 -3.82138e-17 -0.193092)
(-1.41705 6.53214e-18 -0.760041)
(-0.499258 1.18038e-17 -0.1958)
(0.624979 0 0.363183)
(0.478173 0 0.243266)
(-0.34668 -6.43763e-18 -0.282811)
(-0.538151 -3.68834e-18 -0.287678)
(-0.200125 4.18916e-18 0.0423583)
(-0.0740638 0 0.0631059)
(-0.043193 -7.35116e-18 -0.0125163)
(0.283629 0 -0.01277)
(0.932641 0 0.0799251)
(1.33489 1.64072e-17 0.0359213)
(0.991538 0 -0.36341)
(0.405126 0 -0.514706)
(0.0124501 4.63791e-17 -0.376406)
(-0.182153 0 -0.0237001)
(-0.606432 0 0.44699)
(-1.36372 -3.00504e-19 0.872783)
(-1.92164 2.20098e-17 0.865358)
(-1.34739 8.99975e-19 0.837284)
(-0.557257 0 0.958764)
(-1.40534 1.50057e-16 0.75991)
(-3.65986 1.54626e-16 -0.161977)
(-3.49229 0 -0.972266)
(2.5878 -5.16641e-16 1.31857)
(9.58539 1.04625e-17 3.77981)
(7.29757 0 -1.23179)
(2.97414 -4.74702e-16 -6.36263)
(4.8437 0 -10.4105)
(17.8263 0 -11.8443)
(33.8256 0 -10.8214)
(22.9382 0 7.69781)
(-32.3393 -7.61333e-15 25.7219)
(-158.241 1.14508e-15 81.472)
(-252.186 0 119.916)
(170.837 0 -100.602)
(106.185 1.33765e-15 -39.8573)
(-9.38244 -2.4178e-16 32.4468)
(13.6449 1.21172e-17 -13.8309)
(-46.9424 0 16.4443)
(-25.9867 0 4.81772)
(14.3504 0 -7.23999)
(87.2677 -2.38454e-17 -43.6495)
(147.161 1.31394e-15 -80.5586)
(126.155 -1.94697e-15 -71.1526)
(76.9067 9.30213e-16 -45.7457)
(0.135222 7.62055e-18 -1.52216)
(-72.6074 -2.1186e-16 44.2503)
(-105.185 0 62.6127)
(-104.823 -1.00243e-16 59.6964)
(-71.9664 0 39.5388)
(-45.0521 4.91789e-16 24.7847)
(-25.4126 0 14.1265)
(-6.54353 -6.48757e-16 3.97106)
(6.27791 3.79958e-16 0.178058)
(3.67477 0 -1.51738)
(-10.2826 0 5.2667)
(-15.5939 -8.32991e-16 7.66881)
(6.05884 1.19407e-15 -4.29451)
(38.874 -3.45006e-16 -21.7736)
(44.537 -1.07489e-15 -24.6845)
(13.4926 1.13953e-15 -7.60164)
(-15.4996 0 7.65124)
(-15.8852 6.90276e-16 8.53581)
(-8.07604 0 4.72561)
(-3.68421 0 2.46224)
(-1.0917 6.71738e-16 0.727145)
(1.03808 0 -0.775366)
(3.24004 -3.205e-18 -2.33723)
(6.08962 2.55068e-16 -3.41867)
(6.60005 0 -3.64085)
(6.24054 0 -3.46639)
(2.78646 0 -1.75098)
(-0.261172 -7.9114e-17 0.0243981)
(-4.1174 -4.34986e-17 2.34227)
(-6.37808 4.95831e-17 3.67929)
(-6.11139 0 3.53667)
(-6.09217 -1.56679e-17 3.48433)
(-3.23278 0 1.82215)
(-2.75554 1.57884e-16 1.57532)
(-9.96788 1.45515e-19 3.65344)
(-10.2457 1.51182e-19 2.39161)
(-10.9118 1.77578e-18 2.40654)
(-11.3009 0 2.44579)
(-9.98968 -9.80023e-19 2.57337)
(-6.97902 -4.52092e-20 3.13393)
(-4.62116 0 3.41417)
(-5.31678 -1.93456e-18 2.54998)
(-7.57884 0 1.22896)
(-6.85441 3.25786e-18 1.27532)
(-2.06758 0 2.79554)
(1.27368 0 3.61699)
(-2.45177 0 1.88088)
(-9.59161 0 -0.840128)
(-9.11859 -1.16641e-17 -0.6332)
(2.57949 0 3.38054)
(11.555 0 5.61867)
(1.80554 0 0.91189)
(-18.7378 4.94614e-18 -6.27212)
(-20.3085 4.94095e-21 -3.68976)
(7.37657 0 9.41218)
(31.0782 -2.28025e-18 14.637)
(15.7657 0 0.120189)
(-26.2887 2.08417e-18 -23.5305)
(-45.0297 0 -28.9426)
(-20.538 0 -7.39658)
(25.6677 6.24433e-17 31.4674)
(46.0734 0 43.4935)
(26.1616 0 20.2567)
(-7.6908 8.17007e-17 -9.34993)
(-19.453 0 -15.3511)
(-9.07961 0 -7.11824)
(3.21929 0 -0.00400982)
(5.66506 0 1.6995)
(0.620665 -3.42032e-17 0.0114921)
(-3.12626 0 -1.41769)
(-1.34624 0 -0.755424)
(1.93133 -1.78313e-17 0.389026)
(2.07824 0 0.305816)
(-0.0373728 3.23217e-17 -0.451825)
(-1.02481 1.32711e-18 -0.635191)
(-0.139415 -1.11744e-17 -0.217092)
(0.78248 0 0.0510516)
(0.586189 0 -0.0863736)
(-0.0191746 2.66617e-18 -0.246934)
(-0.162192 0 -0.20671)
(0.0485401 -3.96257e-18 -0.119374)
(0.171327 0 -0.135217)
(0.231335 -1.05557e-19 -0.233553)
(0.59168 0 -0.284575)
(1.24938 0 -0.27249)
(1.68086 0 -0.303982)
(1.49514 6.70158e-18 -0.380457)
(0.897774 0 -0.353874)
(0.326815 0 -0.097438)
(-0.171856 0 0.41468)
(-1.00818 0 1.05035)
(-2.23037 -7.77573e-17 1.5276)
(-3.01924 0 1.618)
(-2.4234 2.6591e-19 1.43957)
(-1.47942 0 1.12776)
(-1.97672 -7.15427e-17 0.576357)
(-3.62283 -1.45788e-16 -0.0376409)
(-2.88032 0 -0.513181)
(2.7314 4.94176e-16 0.278063)
(8.91956 -2.41093e-17 -0.865675)
(10.1635 0 -4.28994)
(10.0847 4.47047e-16 -10.455)
(15.5319 0 -16.423)
(30.3375 0 -18.3791)
(44.7903 0 -15.38)
(20.0261 0 6.4712)
(-60.1925 -1.35413e-17 47.792)
(-241.315 -1.07687e-15 137.226)
(-427.719 0 209.682)
(266.168 0 -171.677)
(169.549 -2.23778e-17 -68.5059)
(-28.6712 5.16063e-15 35.2219)
(25.1203 3.27639e-15 -20.0417)
(-64.444 0 26.7358)
(-31.2824 0 6.90334)
(31.5519 0 -22.2667)
(146.879 -2.29327e-15 -84.6407)
(238.398 8.17552e-18 -134.484)
(196.088 1.82641e-15 -106.881)
(110.744 0 -59.4346)
(-11.6606 -1.03545e-16 10.4244)
(-123.633 1.98625e-16 77.8422)
(-169 0 99.0786)
(-164.376 0 92.1248)
(-113.621 1.88854e-16 61.2643)
(-72.057 0 38.7828)
(-40.8746 5.63671e-16 21.4282)
(-11.0955 -6.25223e-19 5.60622)
(8.68492 -2.54353e-16 -0.861443)
(4.4675 4.45608e-16 -2.18733)
(-16.2642 0 9.17903)
(-22.0225 7.79549e-16 10.8632)
(14.3142 -1.11728e-15 -10.8882)
(64.916 3.17716e-16 -37.9107)
(69.1426 0 -37.75)
(17.8791 1.06458e-15 -8.21333)
(-24.6532 0 14.5109)
(-24.7383 -6.4546e-16 13.4912)
(-12.9987 5.3397e-16 7.3149)
(-6.07817 0 3.63467)
(-1.68367 -6.27907e-16 0.871891)
(2.14211 0 -1.59085)
(5.73359 3.44819e-16 -3.60315)
(9.55583 -2.38353e-16 -5.50406)
(9.80363 0 -5.44387)
(8.76806 0 -4.82252)
(3.01495 0 -1.59738)
(-1.98064 1.26098e-19 1.3108)
(-7.95626 4.06312e-17 4.74903)
(-11.3828 -4.64493e-17 6.61123)
(-10.6139 0 6.12083)
(-10.3546 -1.43511e-17 5.84814)
(-5.7866 0 3.22916)
(-4.88832 -1.73842e-19 2.78869)
(-9.67239 -1.20207e-19 3.96315)
(-9.98863 -1.61241e-19 3.24553)
(-11.6657 -6.1638e-19 3.09711)
(-13.0447 -4.66181e-19 3.14922)
(-12.2513 -1.34423e-18 3.56131)
(-9.67083 -7.84737e-19 4.22311)
(-7.93738 0 4.29015)
(-8.85965 0 3.3234)
(-10.3123 0 2.32886)
(-8.45471 -3.08592e-18 2.64841)
(-3.57117 0 3.87463)
(-1.319 0 3.94616)
(-5.60273 0 1.98846)
(-11.3431 0 0.141653)
(-8.81172 0 1.25028)
(2.51456 -1.55298e-18 4.38428)
(8.47442 -1.05025e-17 4.35433)
(-2.49189 0 -0.677946)
(-18.7487 0 -4.32989)
(-15.0582 -3.48743e-17 1.73522)
(9.58371 2.23039e-17 11.4515)
(23.3535 2.49686e-17 8.26955)
(4.21482 -4.01323e-17 -9.33812)
(-25.7898 -1.96388e-18 -20.1993)
(-29.7665 -7.60083e-18 -8.58846)
(-2.60665 -2.22989e-18 11.5616)
(30.3048 0 30.3577)
(36.4158 -1.96163e-16 32.3122)
(11.6648 0 8.41869)
(-16.3439 -7.73195e-17 -17.1245)
(-19.1335 0 -16.1011)
(-6.94908 0 -7.01281)
(4.99824 0 1.01557)
(6.03423 1.32368e-17 2.15194)
(0.176378 3.2355e-17 -0.4604)
(-3.15695 0 -1.808)
(-0.812197 0 -0.66373)
(2.36144 1.68611e-17 0.477517)
(2.1395 0 0.0506476)
(-0.00510935 -2.41434e-18 -0.821652)
(-0.762003 -5.20493e-18 -0.835138)
(0.23478 0 -0.28901)
(1.07505 0 -0.0756693)
(0.799885 0 -0.305516)
(0.221859 0 -0.471806)
(0.137212 -4.26795e-18 -0.384879)
(0.372536 0 -0.278119)
(0.496511 2.82844e-18 -0.324646)
(0.580783 6.662e-18 -0.458025)
(0.982763 0 -0.54302)
(1.66966 0 -0.568928)
(2.1172 0 -0.60631)
(1.93494 -6.32262e-18 -0.615961)
(1.27866 -1.36048e-17 -0.482127)
(0.55708 -4.06525e-17 -0.0638319)
(-0.21193 0 0.645746)
(-1.4259 4.02721e-17 1.4672)
(-3.02951 7.25458e-17 2.08597)
(-4.02645 0 2.27569)
(-3.38752 -1.2225e-16 1.9844)
(-2.20585 0 1.35982)
(-2.29189 6.78798e-17 0.450899)
(-3.4729 1.31745e-16 -0.340111)
(-2.08591 0 -0.579509)
(3.5602 -2.34157e-16 -0.634762)
(10.602 2.59327e-17 -2.74102)
(13.7565 0 -7.41541)
(17.0388 0 -15.5453)
(25.4252 0 -22.6672)
(41.1318 1.01281e-15 -24.0977)
(52.9102 6.22792e-16 -18.1553)
(19.9507 0 11.134)
(-86.7286 3.38145e-15 71.7826)
(-310.789 9.86154e-16 191.624)
(-629.316 0 308.312)
(341.566 0 -240.09)
(238.138 -1.15919e-15 -96.8279)
(-41.4859 4.32947e-18 35.6756)
(34.0115 0 -25.8731)
(-78.3866 0 35.6636)
(-33.7739 0 5.59903)
(57.1715 0 -41.906)
(212.506 1.54476e-17 -128.778)
(322.383 -1.16356e-15 -184.375)
(246.923 0 -132.583)
(125.013 0 -61.9335)
(-35.0065 0 26.3703)
(-172.976 1.83279e-16 110.814)
(-221.736 0 130.878)
(-212.098 -8.88683e-17 118.28)
(-148.874 -1.76855e-16 79.0427)
(-96.2556 4.31735e-16 50.9328)
(-54.7681 -5.27683e-16 27.7731)
(-15.1469 5.7075e-16 6.83147)
(10.5552 2.38049e-16 -2.35446)
(4.80161 -4.16964e-16 -2.12013)
(-21.5723 0 12.7743)
(-25.6965 0 12.3343)
(25.3622 -1.04863e-15 -19.2438)
(90.1603 -1.4764e-16 -53.7601)
(88.8995 9.46298e-16 -48.0824)
(18.6138 -1.29843e-18 -6.68441)
(-33.5262 0 20.644)
(-32.2653 0 17.6508)
(-17.2379 -4.99104e-16 9.42446)
(-8.02575 0 4.52913)
(-2.07351 5.85332e-16 0.890726)
(3.2837 0 -2.42196)
(7.79067 4.57098e-20 -4.94634)
(12.2973 0 -7.17828)
(11.8791 1.54714e-17 -6.64595)
(9.88277 -2.20544e-16 -5.37166)
(1.86608 -1.90254e-16 -0.661138)
(-4.94891 2.99219e-19 3.16791)
(-12.4902 0 7.51471)
(-16.6993 4.33778e-17 9.69591)
(-15.3092 -1.26416e-19 8.80816)
(-14.6616 1.34006e-17 8.22892)
(-8.69764 0 4.80299)
(-7.2992 -2.34905e-19 4.15361)
(-9.37258 0 4.36765)
(-9.32242 -8.14479e-20 4.09324)
(-10.9695 0 3.86902)
(-12.6795 4.40464e-19 3.82962)
(-12.67 2.14598e-18 4.22291)
(-11.3063 2.91078e-19 4.84953)
(-10.8045 0 4.88995)
(-12.1664 0 4.10529)
(-13.019 -1.30287e-18 3.49489)
(-10.4572 -2.47861e-18 3.95372)
(-5.84997 1.19162e-19 4.80173)
(-4.53667 -5.79798e-18 4.3873)
(-8.86595 -3.81862e-18 2.55164)
(-13.1084 0 1.44011)
(-9.18609 0 2.8477)
(1.23812 2.60938e-18 4.99127)
(4.90126 1.19519e-18 3.68476)
(-5.92588 0 -0.892491)
(-18.0957 -2.61501e-18 -2.06638)
(-11.7651 -2.68318e-17 4.67586)
(8.64693 -2.10842e-17 10.9984)
(15.8177 0 4.40113)
(-2.39366 3.79382e-17 -11.2578)
(-23.3182 -1.35059e-17 -16.1738)
(-20.4004 7.1953e-18 -1.88826)
(6.31625 2.87289e-17 19.9608)
(27.2885 0 24.8307)
(23.0463 7.0068e-17 15.446)
(-1.50227 0 -3.12159)
(-20.3136 -1.81524e-16 -19.2694)
(-18.4115 0 -17.9909)
(-3.7591 0 -5.49751)
(7.06699 0 2.45256)
(6.02644 -1.25032e-17 2.43295)
(-0.462107 0 -0.931768)
(-3.11849 0 -2.07547)
(-0.264286 0 -0.585873)
(2.69639 0 0.494415)
(2.13967 1.45301e-17 -0.187958)
(0.0481884 -1.99098e-17 -1.123)
(-0.469168 0 -1.01549)
(0.600897 7.57208e-18 -0.394372)
(1.34741 0 -0.232367)
(1.01431 0 -0.530717)
(0.475542 0 -0.714745)
(0.451189 -4.16206e-20 -0.599782)
(0.707528 0 -0.480899)
(0.832891 -2.66691e-18 -0.552872)
(0.941802 0 -0.718345)
(1.38739 0 -0.828728)
(2.10764 6.6904e-18 -0.874752)
(2.56857 0 -0.911039)
(2.37329 0 -0.876581)
(1.66201 -6.45103e-21 -0.634418)
(0.805136 3.82898e-17 -0.0513404)
(-0.209697 0 0.853355)
(-1.76609 7.62311e-19 1.85844)
(-3.72073 -6.76733e-17 2.60285)
(-4.92498 0 2.84581)
(-4.24627 5.74995e-17 2.43334)
(-2.80098 0 1.53116)
(-2.42303 -6.38579e-17 0.28102)
(-3.07969 -1.23917e-16 -0.784374)
(-1.11197 0 -1.14696)
(4.84596 2.2328e-16 -1.80824)
(12.8384 1.3743e-18 -4.84016)
(17.6857 0 -11.0447)
(24.0013 0 -20.8912)
(34.488 0 -28.5284)
(50.0508 -1.89951e-15 -28.6052)
(58.765 -1.47817e-17 -19.2605)
(21.3526 0 16.7892)
(-110.775 -3.19631e-15 96.9435)
(-367.499 -1.83836e-15 245.978)
(-854.603 0 414.152)
(395.743 0 -304.595)
(310.535 0 -124.116)
(-41.8831 -1.41742e-17 41.6271)
(40.4786 0 -30.1228)
(-88.5464 0 42.6985)
(-32.8765 0 0.72163)
(89.8582 0 -68.2464)
(281.414 9.876e-16 -176.533)
(396.367 -1.11481e-15 -227.374)
(277.585 0 -144.067)
(122.004 0 -51.2686)
(-62.6508 0 51.6863)
(-217.002 -1.11499e-18 141.834)
(-263.331 0 155.499)
(-248.706 8.31938e-17 136.83)
(-178.176 0 92.3391)
(-118.013 -4.04054e-16 60.8851)
(-67.6891 0 32.8323)
(-19.1439 -2.67405e-16 7.55946)
(11.4453 0 -4.74813)
(5.06518 0 -1.07159)
(-25.8641 0 15.8592)
(-26.7435 0 11.7642)
(38.1828 9.8052e-16 -29.6129)
(113.6 0 -68.6557)
(104.068 -8.84637e-16 -54.8197)
(17.0008 -9.2923e-16 -2.70693)
(-41.4407 0 26.343)
(-38.6006 0 20.8703)
(-20.9173 0 10.9851)
(-9.65137 0 5.09105)
(-2.37301 -1.07474e-18 0.761645)
(4.29921 0 -3.25164)
(9.39398 -3.01203e-16 -6.06335)
(14.1982 0 -8.32623)
(12.829 -2.87147e-17 -7.1017)
(9.65463 2.05982e-16 -5.03744)
(-0.507963 1.77681e-16 0.961751)
(-8.78781 6.4071e-17 5.70756)
(-17.4893 0 10.6502)
(-22.177 0 12.8959)
(-20.2133 5.11864e-19 11.5911)
(-19.0752 1.19752e-17 10.6092)
(-12.0417 7.66146e-17 6.58542)
(-10.0554 -6.38174e-17 5.69913)
(-9.2563 0 4.59584)
(-8.88902 2.08319e-19 4.58754)
(-9.95821 0 4.4899)
(-11.3135 0 4.44267)
(-11.6405 0 4.69309)
(-11.421 0 5.12643)
(-12.3012 0 5.15154)
(-14.3743 -7.35729e-19 4.67688)
(-15.1107 1.22935e-18 4.48248)
(-12.4597 4.42393e-18 5.0454)
(-8.51275 1.08017e-19 5.58456)
(-8.03141 5.47224e-18 4.94152)
(-12.1048 3.60414e-18 3.44462)
(-14.9555 0 2.95546)
(-10.255 0 4.33783)
(-1.08877 -1.9993e-18 5.46475)
(0.882818 1.52216e-17 3.37261)
(-8.82379 0 -0.324884)
(-17.2773 2.46885e-18 0.291527)
(-10.0262 2.53266e-17 6.60231)
(5.54775 0 9.61515)
(8.22363 -3.61246e-18 1.45344)
(-6.62183 0 -10.7357)
(-19.0742 9.84852e-19 -10.7894)
(-11.7114 -8.08927e-18 4.05592)
(10.7198 2.21656e-18 21.5679)
(24.0882 0 24.0233)
(12.1809 1.08821e-16 6.99012)
(-9.86345 1.1749e-16 -9.70188)
(-20.6761 3.03279e-16 -16.1449)
(-14.3763 -9.68017e-18 -13.8753)
(1.83114 0 -1.11826)
(8.72897 -2.80729e-17 3.95253)
(5.32094 0 2.23952)
(-1.31362 0 -1.4812)
(-2.98064 0 -2.14796)
(0.285861 0 -0.435595)
(2.89716 0 0.448673)
(2.04582 -9.66047e-19 -0.438867)
(0.110002 8.20497e-18 -1.3477)
(-0.150419 0 -1.13248)
(0.949926 -1.31624e-17 -0.498043)
(1.58671 0 -0.405401)
(1.22057 0 -0.750096)
(0.748906 0 -0.933003)
(0.786935 3.83085e-18 -0.80249)
(1.0526 0 -0.692183)
(1.17395 0 -0.796061)
(1.30837 0 -0.990244)
(1.79779 0 -1.11939)
(2.54956 -1.26544e-17 -1.17671)
(3.02079 0 -1.20556)
(2.81278 0 -1.12372)
(2.05251 1.20651e-17 -0.775471)
(1.07625 0 -0.0342067)
(-0.157058 0 1.05426)
(-2.01916 -7.34583e-17 2.22915)
(-4.29039 3.16852e-17 3.08131)
(-5.69563 0 3.34388)
(-5 0 2.77733)
(-3.29787 0 1.59338)
(-2.43033 5.86426e-17 -0.00332511)
(-2.47645 0 -1.35893)
(0.106611 0 -2.0407)
(6.5619 -4.20513e-16 -3.22856)
(15.4927 -4.93386e-17 -7.25664)
(21.9199 0 -14.9862)
(30.7652 0 -26.3857)
(42.484 0 -33.8026)
(56.9761 8.89869e-16 -31.7607)
(62.9879 -5.35036e-16 -19.2487)
(24.7827 1.55411e-15 22.5302)
(-132.914 2.99856e-15 123.508)
(-415.413 8.5606e-16 304.075)
(-1079.43 2.15089e-15 515.637)
(425.14 0 -377.134)
(384.243 0 -149.739)
(-33.9862 -2.17507e-15 44.749)
(44.8077 0 -32.8127)
(-94.62 0 47.6543)
(-28.0325 0 -8.11721)
(129.245 0 -100.639)
(351.073 0 -226.165)
(456.886 2.10527e-15 -261.281)
(286.443 0 -140.24)
(105.507 6.93706e-16 -31.2388)
(-87.2164 0 88.5723)
(-254.347 -8.28259e-19 169.382)
(-293.382 -8.5953e-17 173.687)
(-274.6 0 149.203)
(-201.775 0 101.996)
(-137.436 0 69.1215)
(-79.9353 0 36.9724)
(-23.4227 2.51252e-16 7.92558)
(11.4946 0 -7.32633)
(4.78919 0 -0.303687)
(-28.7867 0 18.1969)
(-25.2184 0 9.31559)
(52.1833 0 -41.2048)
(134.342 0 -82.1503)
(114.566 0 -58.3496)
(13.6069 0 2.63817)
(-48.0774 9.45097e-17 31.5344)
(-43.7678 0 23.3644)
(-24.0613 0 12.1585)
(-11.0142 0 5.42277)
(-2.65304 -5.09867e-16 0.567823)
(5.06872 0 -3.97026)
(10.4192 1.40682e-16 -6.874)
(15.1423 0 -8.93199)
(12.6219 3.32173e-19 -6.87732)
(8.20083 0 -3.90032)
(-3.79639 -1.64221e-16 3.27957)
(-13.327 0 8.6275)
(-22.8328 0 13.9878)
(-27.7348 0 16.1171)
(-25.3511 -3.67681e-19 14.4848)
(-23.6374 -2.19507e-17 13.0442)
(-15.8926 -1.42712e-16 8.61535)
(-13.2063 -5.88861e-17 7.45182)
(-9.14789 0 4.68202)
(-8.70698 -2.08407e-19 4.77909)
(-9.28732 0 4.82298)
(-10.0174 0 4.85889)
(-10.1668 -6.16045e-19 5.02848)
(-10.5182 5.35461e-19 5.25495)
(-12.3082 -1.37771e-18 5.21663)
(-14.9633 1.54675e-18 4.98509)
(-15.926 0 5.11657)
(-13.7705 -2.39152e-19 5.75468)
(-10.867 -2.07732e-19 6.13436)
(-11.2295 0 5.52835)
(-15.0241 0 4.51202)
(-16.8507 0 4.51304)
(-11.9925 0 5.67738)
(-4.2352 -5.43992e-20 5.93466)
(-3.31017 -1.26452e-18 3.51829)
(-11.3128 -5.92639e-18 0.841158)
(-16.7752 1.27372e-19 2.53314)
(-10.0095 0 7.67417)
(1.01185 -1.56252e-17 8.10951)
(1.37713 3.40419e-18 -0.0395726)
(-8.79119 0 -8.39456)
(-14.1632 2.24868e-18 -5.33451)
(-4.75802 6.65771e-18 8.51392)
(12.001 -2.57587e-17 20.8616)
(17.0724 0 18.7704)
(3.10546 0 2.82506)
(-15.1565 -1.10697e-16 -11.7451)
(-19.0866 -5.64164e-17 -13.2498)
(-7.36493 4.45503e-17 -5.30384)
(5.60297 0 2.80882)
(9.09998 4.00858e-17 4.98514)
(3.92494 0 1.65152)
(-2.27509 0 -2.01602)
(-2.7604 -5.00278e-18 -2.05555)
(0.781034 0 -0.224191)
(2.93693 -8.07298e-19 0.366106)
(1.85203 -1.37008e-18 -0.685201)
(0.164392 -3.17371e-18 -1.50034)
(0.16809 0 -1.18964)
(1.26101 1.14949e-18 -0.590918)
(1.77968 0 -0.583936)
(1.40606 0 -0.959577)
(1.02405 0 -1.13002)
(1.12563 0 -0.993617)
(1.39176 0 -0.906892)
(1.506 1.97423e-18 -1.04714)
(1.66729 0 -1.26709)
(2.1997 0 -1.41046)
(2.97939 5.97703e-18 -1.47405)
(3.45873 0 -1.49014)
(3.24206 3.98982e-18 -1.35616)
(2.44486 -1.11148e-17 -0.901408)
(1.37174 3.04478e-17 -0.00774234)
(-0.0456648 0 1.25233)
(-2.1715 3.48378e-17 2.57968)
(-4.72211 2.93821e-17 3.52006)
(-6.32464 0 3.76641)
(-5.63547 0 3.02716)
(-3.70622 0 1.54403)
(-2.34436 -5.50619e-17 -0.413094)
(-1.71177 0 -2.07898)
(1.58437 0 -3.1523)
(8.64517 1.97824e-16 -4.91121)
(18.4862 4.76857e-17 -9.99473)
(26.3458 0 -19.1785)
(37.1425 0 -31.901)
(49.2317 0 -38.3314)
(61.942 0 -33.6041)
(66.4274 -4.66967e-16 -18.7201)
(30.4496 -1.45715e-15 28.3037)
(-155.392 0 152.917)
(-458.514 0 368.733)
(-1253.38 -2.01593e-15 583.15)
(447.976 0 -437.042)
(457.963 -8.90116e-16 -172.515)
(-17.4783 -1.9845e-15 46.0004)
(47.5844 0 -33.9478)
(-96.452 0 50.2819)
(-18.4575 0 -20.8408)
(173.771 0 -139.538)
(418.905 0 -274.778)
(500.94 -9.93383e-16 -283.351)
(273.397 0 -121.109)
(80.828 -1.28847e-15 -5.5051)
(-114.184 0 115.924)
(-282.646 -3.96853e-19 192.194)
(-313.397 -2.51649e-18 185.527)
(-291.595 0 156.021)
(-220.57 1.35929e-16 108.474)
(-154.967 0 75.7912)
(-91.9842 0 40.4018)
(-28.3355 -4.69673e-16 8.12936)
(11.2436 0 -8.79443)
(4.60592 0 0.818381)
(-30.1237 0 19.5958)
(-21.4343 0 5.0533)
(66.5187 0 -53.6007)
(151.867 0 -93.7363)
(120.911 0 -58.6697)
(9.44626 0 9.1771)
(-53.4503 -8.82956e-17 35.9897)
(-47.9616 0 25.1453)
(-26.7997 0 12.9495)
(-12.2198 0 5.56039)
(-3.01556 4.73536e-16 0.351205)
(5.46261 2.24396e-16 -4.52154)
(10.7901 -1.31333e-16 -7.31603)
(15.1216 1.79756e-16 -8.93779)
(11.3897 4.81208e-19 -5.9976)
(5.666 1.76885e-16 -2.19309)
(-7.79143 3.0533e-16 6.01315)
(-18.2214 0 11.8598)
(-28.3515 3.20522e-17 17.4797)
(-33.2904 3.48771e-17 19.3409)
(-30.7637 0 17.5095)
(-28.4207 1.00547e-17 15.5552)
(-20.3176 6.64523e-17 10.9321)
(-16.7911 5.49649e-17 9.4266)
(-9.02535 0 4.6829)
(-8.68124 9.39428e-20 4.77063)
(-9.01741 0 4.87056)
(-9.20533 0 5.02084)
(-8.99162 5.80074e-19 5.2151)
(-9.43153 -5.04141e-19 5.32816)
(-11.4797 1.29682e-18 5.23553)
(-14.2175 -9.84956e-19 5.14282)
(-15.2975 0 5.44333)
(-13.8185 1.1941e-18 6.07841)
(-12.1233 1.05889e-18 6.39201)
(-13.3947 0 5.99055)
(-17.1333 -1.35849e-18 5.50382)
(-18.5048 0 5.89122)
(-14.0925 4.86025e-18 6.809)
(-7.79131 8.69103e-19 6.46865)
(-7.40241 -4.9981e-18 4.09886)
(-13.557 5.57823e-18 2.36342)
(-16.947 7.49625e-19 4.48315)
(-11.5279 0 8.22934)
(-4.18961 1.47078e-17 7.10841)
(-4.32166 0 0.0625655)
(-9.67364 0 -5.0318)
(-10.0194 8.31527e-18 -0.869339)
(-0.975727 -6.02373e-18 10.0425)
(9.48249 0 17.2776)
(7.92617 0 11.663)
(-5.76184 0 -1.62782)
(-18.1114 6.70301e-17 -11.2308)
(-15.9093 -6.39587e-17 -8.92095)
(-2.59593 1.25728e-17 -0.136608)
(7.66909 4.1682e-17 5.20484)
(8.26764 -1.38787e-17 5.04674)
(1.79236 -1.99516e-17 0.561041)
(-3.42055 1.01456e-17 -2.72298)
(-2.45283 -6.09804e-19 -1.74062)
(1.15413 0 0.0292609)
(2.77949 7.59099e-19 0.251326)
(1.55791 -9.98364e-18 -0.901358)
(0.200721 2.98433e-18 -1.57135)
(0.457138 0 -1.19089)
(1.50779 4.25249e-18 -0.671522)
(1.91162 -1.76863e-18 -0.758846)
(1.56049 -2.13395e-18 -1.14938)
(1.28676 4.939e-19 -1.30046)
(1.45023 0 -1.1689)
(1.70952 0 -1.118)
(1.81622 -7.02629e-20 -1.29682)
(2.00741 0 -1.53854)
(2.58241 0 -1.69177)
(3.38661 5.57201e-18 -1.75775)
(3.87279 -1.07601e-17 -1.75734)
(3.6534 -3.74715e-18 -1.5687)
(2.83466 1.6665e-19 -1.00959)
(1.69225 -1.24162e-18 0.0283906)
(0.131259 0 1.4459)
(-2.2107 0 2.90669)
(-5.00128 -5.50074e-17 3.9151)
(-6.79739 0 4.11515)
(-6.1483 0 3.18404)
(-4.03609 -1.07548e-17 1.38786)
(-2.19341 0 -0.944707)
(-0.830849 0 -2.94791)
(3.28961 9.24894e-17 -4.44267)
(11.0428 -1.86909e-16 -6.83572)
(21.7394 -4.51717e-17 -13.0311)
(30.7923 0 -23.6656)
(43.0371 3.05186e-16 -37.2039)
(54.6198 0 -41.997)
(65.1766 0 -34.3103)
(69.9491 8.54802e-16 -18.3678)
(37.7062 0 34.8181)
(-181.413 0 187.342)
(-495.142 0 435.805)
(-1299.22 0 576.929)
(423.264 0 -552.478)
(526.153 8.33495e-16 -193.393)
(6.70865 4.04425e-17 46.0196)
(49.5329 2.19257e-15 -33.689)
(-93.8255 -4.27282e-16 50.315)
(-4.99416 0 -39.8172)
(222.402 0 -183.157)
(481.189 0 -320.764)
(525.955 0 -291.346)
(240.722 0 -87.9083)
(56.8314 1.26113e-17 21.4182)
(-133.685 0 141.079)
(-302.703 -1.38565e-16 209.901)
(-325.103 -2.64084e-18 192.458)
(-301.648 0 158.803)
(-235.574 -1.27094e-16 112.598)
(-170.919 0 81.213)
(-104.331 3.9016e-16 43.4119)
(-34.2051 8.10157e-19 8.37008)
(10.4193 0 -9.24178)
(4.41161 0 1.85089)
(-29.7407 0 19.9287)
(-15.7739 0 -0.776675)
(80.41 7.9559e-16 -66.3532)
(165.823 0 -103.185)
(123.657 0 -56.1873)
(5.1342 -7.48672e-16 16.2085)
(-57.521 0 39.8469)
(-51.3413 -4.59751e-16 26.3744)
(-29.2193 3.73425e-16 13.461)
(-13.3619 0 5.56905)
(-3.54326 -8.82765e-16 0.171333)
(5.39339 -1.4548e-18 -4.83733)
(10.4916 2.45151e-16 -7.34944)
(14.182 -1.6784e-16 -8.38904)
(9.31791 1.08749e-17 -4.56515)
(2.4943 -1.65145e-16 0.17576)
(-12.1006 -1.41905e-16 9.04656)
(-23.2151 -4.94548e-17 15.17)
(-33.9136 -2.99213e-17 21.0158)
(-38.7993 -3.25573e-17 22.5242)
(-36.4866 1.41758e-18 20.6888)
(-33.48 -8.25094e-18 18.1866)
(-25.3789 0 13.5668)
(-20.8365 0 11.631)
(-8.94379 0 4.61565)
(-8.70331 1.03154e-19 4.66283)
(-8.91139 0 4.76671)
(-8.77029 0 5.00237)
(-8.31138 0 5.25855)
(-8.67826 0 5.34716)
(-10.5687 -1.14883e-18 5.25463)
(-12.925 1.70765e-19 5.25475)
(-13.7703 1.36622e-18 5.61129)
(-12.7007 -2.64892e-18 6.16263)
(-11.9531 -9.95456e-19 6.41542)
(-13.986 0 6.2332)
(-17.8736 1.27696e-18 6.20433)
(-19.3605 0 6.88383)
(-15.9265 -4.56894e-18 7.63869)
(-11.1311 -1.27488e-18 7.02237)
(-11.0401 0 4.95468)
(-15.6021 0 3.96679)
(-17.8323 -8.17575e-19 6.07746)
(-14.113 0 8.62581)
(-9.42862 0 6.92563)
(-8.98796 -6.67111e-18 1.44726)
(-10.367 0 -1.55543)
(-7.93006 0 1.91324)
(-0.928973 6.51651e-18 8.76838)
(3.61371 0 11.3177)
(-1.70999 0 4.66303)
(-12.9214 0 -4.87061)
(-18.5643 -8.96423e-17 -8.59904)
(-11.6231 0 -3.33855)
(1.26814 -2.05604e-19 4.47661)
(8.24763 -1.45197e-17 7.09157)
(5.86936 9.77669e-19 4.10654)
(-0.865822 1.87507e-17 -0.79649)
(-4.19168 -1.43027e-17 -2.85053)
(-2.24018 4.99481e-18 -1.61479)
(1.28787 0 0.273183)
(2.39189 0 0.123471)
(1.16142 -5.98579e-18 -1.06107)
(0.199879 -4.35241e-19 -1.55215)
(0.679207 0 -1.14165)
(1.65917 0 -0.739141)
(1.96487 -5.80089e-20 -0.920899)
(1.67029 2.00409e-18 -1.30939)
(1.51931 -4.63823e-19 -1.43835)
(1.74043 -2.11226e-18 -1.32391)
(1.98769 0 -1.31899)
(2.0896 -2.34362e-21 -1.53656)
(2.31564 0 -1.79516)
(2.93351 0 -1.95427)
(3.7593 -5.22978e-18 -2.02015)
(4.2522 1.00983e-17 -2.00155)
(4.03822 0 -1.75808)
(3.21692 9.63737e-18 -1.09947)
(2.03778 -1.15649e-18 0.0721514)
(0.379547 0 1.63102)
(-2.12585 0 3.20545)
(-5.11594 5.12976e-17 4.26071)
(-7.10205 0 4.39178)
(-6.53569 0 3.25244)
(-4.29913 1.99991e-17 1.13261)
(-2.00691 0 -1.58997)
(0.12089 0 -3.96181)
(5.16534 -1.77258e-16 -5.90805)
(13.6898 1.75176e-16 -8.99519)
(25.1794 2.11683e-17 -16.3388)
(35.185 0 -28.3301)
(48.3035 -2.85931e-16 -42.2085)
(58.6286 0 -44.7436)
(67.0697 -6.96103e-16 -34.1938)
(74.2876 -3.90743e-16 -18.774)
(44.7627 0 43.5551)
(-213.472 0 228.182)
(-514.303 -6.27804e-16 491.097)
(-1154.27 1.81854e-15 457.908)
(405.052 0 -572.077)
(593.981 0 -208.951)
(37.1083 3.35305e-15 46.1772)
(51.3615 -2.05179e-15 -32.2117)
(-86.7568 7.5907e-16 47.3938)
(15.6139 0 -59.8462)
(274.016 0 -229.751)
(534.724 0 -362.223)
(530.448 0 -283.573)
(192.83 0 -43.7401)
(39.4963 1.59789e-17 43.4555)
(-146.334 0 156.25)
(-314.058 0 223.541)
(-330.93 -2.70419e-18 195.691)
(-307.128 0 158.917)
(-247.992 -1.0733e-16 115.164)
(-185.39 0 85.5069)
(-117.466 -3.64634e-16 46.277)
(-41.4831 1.56906e-18 8.84251)
(8.21667 0 -9.66592)
(4.37762 0 2.83461)
(-27.6487 0 19.1483)
(-8.71262 0 -7.91354)
(93.2444 -4.10949e-18 -78.9706)
(176.123 8.36298e-17 -110.296)
(123.559 6.8198e-16 -51.3382)
(1.34332 6.99251e-16 23.4615)
(-60.4896 0 43.097)
(-54.092 4.29354e-16 27.1801)
(-31.4491 -3.48718e-16 13.7172)
(-14.531 0 5.49956)
(-4.30294 4.11359e-16 0.0683983)
(4.81733 -3.87053e-16 -4.89122)
(9.53289 -1.14389e-16 -7.06516)
(12.4748 0 -7.3527)
(6.69279 -8.76689e-18 -2.80524)
(-1.0167 0 2.88017)
(-16.4132 0 12.1429)
(-27.9924 4.61649e-17 18.433)
(-39.3558 0 24.5244)
(-44.201 0 25.6544)
(-42.5318 -1.32312e-18 24.0347)
(-38.8566 7.70117e-18 20.9571)
(-31.1169 5.61878e-17 16.5414)
(-25.3554 -4.6158e-17 14.0619)
(-8.89991 0 4.53385)
(-8.69844 -9.69504e-20 4.55928)
(-8.79101 -6.18866e-19 4.65654)
(-8.47702 0 4.9266)
(-7.96407 0 5.21547)
(-8.31651 0 5.31151)
(-9.94804 1.07955e-18 5.26295)
(-11.7443 0 5.35268)
(-12.1204 -1.28351e-18 5.72499)
(-11.0907 0 6.16265)
(-10.7788 0 6.33365)
(-13.1302 -2.61485e-18 6.29131)
(-17.0678 0 6.55836)
(-18.9234 2.07692e-18 7.40768)
(-16.7421 -3.16655e-18 8.08816)
(-13.4726 1.19725e-18 7.46295)
(-13.7027 0 5.8333)