/*--------------------------------*- C++ -*----------------------------------*\
| =========                 |                                                 |
| \\      /  F ield         | OpenFOAM: The Open Source CFD Toolbox           |
|  \\    /   O peration     | Version:  2412                                  |
|   \\  /    A nd           | Website:  www.openfoam.com                      |
|    \\/     M anipulation  |                                                 |
\*---------------------------------------------------------------------------*/
FoamFile
{
    version     2.0;
    format      ascii;
    arch        "LSB;label=32;scalar=64";
    class       volVectorField;
    location    "0.77";
    object      U;
}
// * * * * * * * * * * * * * * * * * * * * * * * * * * * * * * * * * * * * * //

dimensions      [0 1 -1 0 0 0 0];

internalField   nonuniform List<vector> 
12600
(
(18.7144 1.23341e-21 2.08869)
(11.6086 1.6079e-20 0.449158)
(7.34701 1.89125e-20 -0.478114)
(5.08854 0 -0.709111)
(3.97701 1.71052e-20 -0.682241)
(3.33696 1.59339e-20 -0.607626)
(2.89608 0 -0.540011)
(2.56505 0 -0.484636)
(2.30554 -4.79389e-20 -0.439226)
(2.09546 0 -0.401514)
(1.92111 2.01182e-20 -0.369662)
(1.77357 1.84263e-20 -0.342344)
(1.64675 -1.68851e-20 -0.318614)
(1.53629 0 -0.297776)
(1.43903 -1.41602e-20 -0.279308)
(1.35258 0 -0.262807)
(1.27511 4.76107e-20 -0.247958)
(1.2052 0 -0.234512)
(1.14171 -1.99396e-20 -0.222268)
(1.08374 -1.82429e-20 -0.211062)
(1.03054 1.66595e-20 -0.200759)
(0.981514 5.5483e-24 -0.191249)
(0.936146 0 -0.182437)
(0.894013 -2.51648e-20 -0.174244)
(0.854755 0 -0.166604)
(0.818066 0 -0.159459)
(0.783684 -1.8687e-20 -0.152758)
(0.751379 0 -0.146459)
(0.720955 3.93235e-24 -0.140525)
(0.692238 1.35335e-20 -0.134922)
(0.665078 1.20603e-20 -0.129622)
(0.63934 1.06954e-20 -0.124598)
(0.614905 -9.43122e-21 -0.119828)
(0.591667 -1.65216e-20 -0.115291)
(0.569533 -1.43554e-20 -0.11097)
(0.548417 1.23413e-20 -0.106847)
(0.528243 0 -0.102909)
(0.508942 -8.78891e-21 -0.0991411)
(0.490452 0 -0.0955321)
(0.472714 5.75331e-21 -0.0920704)
(0.455678 0 -0.0887463)
(0.439296 1.73245e-23 -0.0855502)
(0.423525 0 -0.0824739)
(0.408324 1.57798e-23 -0.0795094)
(0.393657 7.11287e-23 -0.0766497)
(0.379489 1.66298e-21 -0.0738878)
(0.36579 -3.27449e-21 -0.0712179)
(0.352528 0 -0.068634)
(0.339678 0 -0.066131)
(0.327213 -7.25708e-21 -0.0637035)
(0.315111 -1.66888e-20 -0.0613475)
(0.303347 -1.86497e-20 -0.0590578)
(0.291904 1.9262e-23 -0.0568312)
(0.280758 -2.19695e-20 -0.0546629)
(0.269895 0 -0.0525505)
(0.259292 2.46326e-20 -0.0504891)
(0.24894 2.57243e-20 -0.0484772)
(0.238815 2.66615e-20 -0.0465099)
(0.228913 0 -0.0445865)
(0.219207 0 -0.0427017)
(0.2097 0 -0.0408562)
(0.200362 -5.85336e-20 -0.0390439)
(0.191203 0 -0.0372669)
(0.182188 0 -0.0355181)
(0.173335 1.20602e-19 -0.0338014)
(0.164603 0 -0.0321083)
(0.156021 0 -0.0304448)
(0.147538 0 -0.0288009)
(0.139197 -1.21026e-19 -0.0271849)
(0.130936 1.20505e-19 -0.0255846)
(0.122815 1.19773e-19 -0.0240116)
(0.114755 2.33801e-23 -0.0224509)
(0.106838 -1.1772e-19 -0.020918)
(0.0989685 0 -0.0193944)
(0.0912505 1.14985e-19 -0.0179003)
(0.0835675 0 -0.0164132)
(0.0760526 0 -0.0149586)
(0.0685647 0 -0.0135093)
(0.0612686 2.88524e-23 -0.0120971)
(0.0539957 2.11644e-19 -0.0106894)
(0.0469456 2.0735e-19 -0.00932473)
(0.0399187 -2.02859e-19 -0.00796446)
(0.0331528 -1.98254e-19 -0.00665454)
(0.0264128 0 -0.00534945)
(0.019979 0 -0.00410344)
(0.0135723 3.67441e-19 -0.0028624)
(0.00752554 -7.14667e-19 -0.00169084)
(0.00149659 6.94254e-19 -0.000522384)
(-0.00410441 3.36792e-19 0.00056339)
(-0.00972366 0 0.00165262)
(-0.0148228 -6.3182e-19 0.00264171)
(-0.0200275 3.0546e-19 0.00365135)
(-0.0245794 -2.94953e-19 0.00453474)
(-0.0293595 5.69092e-19 0.00546208)
(-0.0334987 0 0.00626601)
(-0.037284 0 0.00700052)
(-0.0430347 0 0.0081125)
(-0.041165 0 0.00776715)
(-0.055107 0 0.0104339)
(-0.0482036 0 0.00906074)
(-0.0484112 -4.28509e-19 0.00927551)
(-0.0894589 -8.13337e-19 0.0169218)
(-0.0185458 -8.08487e-19 0.00343218)
(-0.08779 0 0.0171637)
(-0.117569 0 0.0216365)
(0.0337824 0 -0.00615819)
(-0.178587 -5.99267e-19 0.0344175)
(-0.120167 -1.32322e-18 0.0213865)
(0.0746031 6.14405e-19 -0.0131317)
(-0.307923 0 0.05887)
(-0.122831 -1.20748e-18 0.0208644)
(0.17633 0 -0.032105)
(-0.374265 -8.30378e-19 0.0735251)
(-0.44223 9.8253e-19 0.0818883)
(0.0259949 -1.06363e-18 -0.00667912)
(0.0258626 -9.12058e-19 -0.00341947)
(-0.296326 8.31255e-19 0.0570213)
(-0.361421 -2.48751e-22 0.0680803)
(-0.163345 8.96514e-19 0.0291103)
(0.105183 0 -0.02113)
(29.1159 -1.24513e-21 4.01734)
(25.0806 0 1.85297)
(20.2268 -1.91415e-20 -0.21613)
(16.0674 0 -1.21303)
(13.113 -1.73325e-20 -1.50803)
(11.0736 -3.04441e-20 -1.51899)
(9.60346 -1.40961e-20 -1.44146)
(8.49289 0 -1.34401)
(7.62108 3.55986e-22 -1.24877)
(6.91532 -2.19361e-20 -1.16181)
(6.33006 2.01467e-20 -1.08383)
(5.83531 1.85012e-20 -1.01409)
(5.41051 -1.69878e-20 -0.951595)
(5.041 1.55951e-20 -0.895369)
(4.71607 2.86813e-20 -0.844555)
(4.42763 0 -0.79842)
(4.16952 -6.49813e-23 -0.756347)
(3.93689 2.2058e-20 -0.717815)
(3.72593 2.02297e-20 -0.682385)
(3.53356 0 -0.649688)
(3.35726 0 -0.619408)
(3.19498 1.54052e-20 -0.591278)
(3.04501 0 -0.565066)
(2.9059 1.27567e-20 -0.540576)
(2.77644 -2.31467e-20 -0.517635)
(2.65559 0 -0.496093)
(2.54248 1.89399e-20 -0.475821)
(2.43631 0 -0.456704)
(2.33644 -1.5319e-20 -0.43864)
(2.24228 -2.74173e-20 -0.421539)
(2.15332 -2.44283e-20 -0.405323)
(2.06911 -1.08257e-20 -0.38992)
(1.98924 9.54346e-21 -0.375266)
(1.91337 3.34443e-20 -0.361305)
(1.84117 2.9053e-20 -0.347984)
(1.77236 0 -0.335257)
(1.70669 0 -0.323082)
(1.64392 -1.70637e-23 -0.31142)
(1.58385 0 -0.300237)
(1.52627 -5.8082e-21 -0.289499)
(1.47103 0 -0.279178)
(1.41796 -6.40824e-21 -0.269246)
(1.36692 0 -0.259679)
(1.31776 -2.013e-21 -0.250453)
(1.27038 0 -0.241547)
(1.22465 -1.67452e-21 -0.232942)
(1.18047 0 -0.224618)
(1.13775 0 -0.216559)
(1.09638 6.05513e-21 -0.208749)
(1.0563 0 -0.201172)
(1.01741 0 -0.193815)
(0.979643 0 -0.186663)
(0.942938 2.04569e-20 -0.179707)
(0.907215 4.40205e-20 -0.172932)
(0.872432 0 -0.16633)
(0.838509 0 -0.159887)
(0.805417 -2.56996e-20 -0.153597)
(0.773076 -2.66602e-20 -0.147447)
(0.741473 0 -0.141433)
(0.710523 0 -0.13554)
(0.680229 0 -0.129769)
(0.650498 0 -0.124102)
(0.621355 -5.90279e-20 -0.118546)
(0.592692 5.95692e-20 -0.113077)
(0.564562 -1.19915e-19 -0.10771)
(0.536834 0 -0.102415)
(0.509598 0 -0.0972147)
(0.482693 0 -0.092074)
(0.456252 4.70837e-23 -0.0870219)
(0.430078 -1.19352e-19 -0.0820178)
(0.404354 -1.1852e-19 -0.0771004)
(0.378839 2.34928e-19 -0.0722199)
(0.35378 3.578e-23 -0.0674277)
(0.32888 -1.1485e-19 -0.0626629)
(0.304461 -1.13349e-19 -0.0579917)
(0.28016 0 -0.0533401)
(0.256387 0 -0.0487917)
(0.232704 0 -0.0442576)
(0.209621 2.11811e-19 -0.0398405)
(0.186611 0 -0.0354349)
(0.164296 0 -0.0311647)
(0.14205 1.98542e-19 -0.0269056)
(0.120619 1.93827e-19 -0.0228044)
(0.0992576 0 -0.0187156)
(0.0788554 0 -0.0148113)
(0.0585219 0 -0.0109205)
(0.0393181 6.95608e-19 -0.00724551)
(0.0201507 -4.52379e-23 -0.00357947)
(0.00232919 3.27063e-19 -0.000168754)
(-0.0155681 -3.16631e-19 0.00325293)
(-0.031829 6.12295e-19 0.00636547)
(-0.0484298 2.95672e-19 0.00953719)
(-0.0629806 5.70452e-19 0.0123229)
(-0.0782521 0 0.0152419)
(-0.0914387 0 0.0177596)
(-0.103834 0 0.0201499)
(-0.121219 0 0.0234307)
(-0.117694 4.69738e-19 0.0227988)
(-0.158629 0 0.0307311)
(-0.138075 0 0.0262835)
(-0.145236 -4.10906e-19 0.0286748)
(-0.255815 3.89553e-19 0.0488148)
(-0.0572358 1.54746e-18 0.0105533)
(-0.268017 -6.9288e-19 0.0538705)
(-0.32431 0 0.0596375)
(0.0778947 0 -0.0142312)
(-0.534521 0 0.106188)
(-0.316492 6.30131e-19 0.0550483)
(0.169499 -5.84731e-19 -0.0292017)
(-0.904044 0 0.177977)
(-0.297161 2.2938e-18 0.0469093)
(0.438261 1.03692e-18 -0.0798536)
(-1.14324 1.57547e-18 0.231538)
(-1.19593 0 0.222334)
(0.102266 0 -0.0284931)
(0.0178575 -8.63701e-19 0.00239757)
(-0.88305 0 0.175931)
(-0.998845 -8.0042e-19 0.190129)
(-0.408694 -8.46263e-19 0.0704106)
(0.350535 0 -0.0719536)
(31.8594 0 3.88622)
(31.0482 0 2.81054)
(28.5235 -1.29743e-20 1.01781)
(25.1867 0 -0.386639)
(21.9412 0 -1.22904)
(19.1739 1.51325e-20 -1.65298)
(16.9202 1.33492e-20 -1.82091)
(15.0988 0 -1.85241)
(13.614 4.2053e-22 -1.81872)
(12.386 2.07814e-20 -1.75629)
(11.3543 -3.79645e-20 -1.68259)
(10.4749 -1.75298e-20 -1.60596)
(9.71558 1.14691e-22 -1.53039)
(9.05257 -1.47776e-20 -1.45771)
(8.46797 -1.35624e-20 -1.38873)
(7.94811 1.23919e-20 -1.3237)
(7.48233 -2.28145e-20 -1.2626)
(7.06223 -2.09031e-20 -1.20528)
(6.68108 0 -1.15152)
(6.33345 0 -1.10107)
(6.01487 1.59615e-20 -1.05369)
(5.72167 1.4566e-20 -1.00914)
(5.45077 0 -0.967198)
(5.19958 0 -0.927652)
(4.96592 2.19329e-20 -0.890313)
(4.74791 0 -0.855006)
(4.54395 -3.58862e-20 -0.821575)
(4.35263 1.61652e-20 -0.789873)
(4.17276 0 -0.759771)
(4.00328 1.29905e-20 -0.73115)
(3.84325 1.15746e-20 -0.703901)
(3.69186 0 -0.677927)
(3.54838 -9.05329e-21 -0.653137)
(3.41217 -1.58477e-20 -0.629449)
(3.28264 1.18428e-23 -0.606789)
(3.15928 0 -0.585089)
(3.04161 0 -0.564284)
(2.92923 8.42465e-21 -0.544317)
(2.82174 0 -0.525135)
(2.71881 0 -0.506687)
(2.6201 0 -0.48893)
(2.52535 0 -0.47182)
(2.43427 0 -0.455318)
(2.34663 0 -0.439387)
(2.26221 0 -0.423994)
(2.18078 1.54238e-21 -0.409106)
(2.10218 -3.06547e-21 -0.394695)
(2.02621 0 -0.380731)
(1.95272 -5.72873e-21 -0.367191)
(1.88154 0 -0.354046)
(1.81254 0 -0.341278)
(1.74558 1.76247e-20 -0.328861)
(1.68054 0 -0.316778)
(1.61729 -2.07976e-20 -0.305005)
(1.55574 2.20908e-20 -0.29353)
(1.49575 0 -0.282328)
(1.43727 2.42918e-20 -0.271392)
(1.38016 0 -0.260695)
(1.32438 0 -0.250236)
(1.2698 0 -0.239984)
(1.2164 5.41751e-20 -0.229946)
(1.16403 5.504e-20 -0.220086)
(1.11272 2.81831e-23 -0.210419)
(1.06229 -1.12474e-19 -0.200905)
(1.01282 2.47367e-23 -0.191567)
(0.964081 0 -0.182356)
(0.916231 0 -0.173308)
(0.868989 -1.13495e-19 -0.164364)
(0.822576 3.79009e-23 -0.155575)
(0.776655 0 -0.146869)
(0.731535 0 -0.138314)
(0.686801 -1.10753e-19 -0.129823)
(0.642872 2.87822e-23 -0.121486)
(0.599236 2.68288e-23 -0.113195)
(0.556444 0 -0.105068)
(0.513869 0 -0.0969725)
(0.472216 -2.06919e-19 -0.0890568)
(0.430724 2.03253e-19 -0.0811636)
(0.390273 0 -0.0734738)
(0.349949 0 -0.0658009)
(0.310831 0 -0.0583629)
(0.271822 0 -0.0509403)
(0.234228 0 -0.0437914)
(0.196739 0 -0.0366599)
(0.160915 0 -0.0298476)
(0.125189 0 -0.0230545)
(0.0914271 -6.53965e-19 -0.0166342)
(0.0577022 -3.17253e-19 -0.0102264)
(0.0263227 -3.07397e-19 -0.00425843)
(-0.00521363 2.97531e-19 0.00173048)
(-0.0338971 -5.75182e-19 0.00718717)
(-0.0631833 -2.77723e-19 0.0127424)
(-0.0889007 -2.67843e-19 0.017637)
(-0.115876 0 0.0227597)
(-0.13913 0 0.0271566)
(-0.161406 0 0.0314848)
(-0.190858 0 0.0368582)
(-0.187842 -4.40692e-19 0.0365947)
(-0.255176 0 0.0495043)
(-0.221554 0 0.0417402)
(-0.241474 3.85277e-19 0.0488859)
(-0.410468 0 0.0769052)
(-0.0983145 -7.25204e-19 0.0181184)
(-0.451542 6.49307e-19 0.093526)
(-0.506366 0 0.0882295)
(0.0983682 0 -0.0149316)
(-0.887313 0 0.180194)
(-0.475072 5.89665e-19 0.0731855)
(0.212663 0 -0.0280091)
(-1.47869 -4.46019e-19 0.294876)
(-0.411164 -4.78969e-22 0.0472052)
(0.610914 -9.70451e-19 -0.0991256)
(-1.92222 -1.47443e-18 0.403001)
(-1.82484 0 0.321822)
(0.192663 9.41999e-19 -0.0626066)
(-0.0445705 8.07887e-19 0.0287861)
(-1.45672 7.3523e-19 0.298083)
(-1.54773 0 0.286806)
(-0.573603 7.91287e-19 0.0827731)
(0.634924 0 -0.136469)
(32.3829 0 2.94338)
(32.9498 0 2.75861)
(32.3985 1.2265e-20 1.7157)
(30.7586 0 0.515899)
(28.5095 -1.23158e-20 -0.488082)
(26.0975 2.50554e-20 -1.21018)
(23.782 0 -1.67271)
(21.679 -2.18841e-20 -1.93656)
(19.822 2.09875e-20 -2.06562)
(18.2015 1.8987e-20 -2.10988)
(16.7901 1.785e-20 -2.10311)
(15.5566 -1.62304e-20 -2.06654)
(14.4727 1.51145e-20 -2.01313)
(13.514 -2.75663e-20 -1.95069)
(12.6606 0 -1.88394)
(11.8963 -2.33769e-20 -1.81574)
(11.2077 0 -1.74785)
(10.5839 0 -1.68132)
(10.0161 0 -1.61674)
(9.49689 1.64764e-20 -1.55448)
(9.02012 -3.4392e-23 -1.49468)
(8.58064 -2.61955e-23 -1.43741)
(8.17411 1.25336e-20 -1.38264)
(7.79681 0 -1.33032)
(7.44561 0 -1.28035)
(7.11778 0 -1.23264)
(6.81097 3.39251e-20 -1.18708)
(6.52315 -6.22637e-24 -1.14355)
(6.25252 0 -1.10194)
(5.99753 0 -1.06215)
(5.7568 0 -1.02407)
(5.52911 0 -0.987602)
(5.31336 1.71244e-20 -0.952653)
(5.1086 0 -0.919133)
(4.91395 -1.30276e-20 -0.886961)
(4.72864 0 -0.856058)
(4.55196 0 -0.82635)
(4.38329 -7.98706e-21 -0.797768)
(4.22204 0 -0.770249)
(4.06769 0 -0.743732)
(3.91977 4.01979e-21 -0.718159)
(3.77783 -5.80361e-21 -0.693478)
(3.64148 0 -0.669639)
(3.51035 -1.86549e-21 -0.646594)
(3.3841 0 -0.6243)
(3.26241 -2.89494e-21 -0.602714)
(3.145 1.86284e-23 -0.581799)
(3.03159 0 -0.561514)
(2.92195 0 -0.54183)
(2.81582 6.45674e-21 -0.522707)
(2.71301 1.4861e-20 -0.50412)
(2.61329 -3.32556e-20 -0.486033)
(2.5165 0 -0.468426)
(2.42242 -1.9585e-20 -0.451261)
(2.33093 -2.08529e-20 -0.434526)
(2.24182 -2.19245e-20 -0.418183)
(2.15501 -2.28841e-20 -0.402223)
(2.07027 0 -0.386608)
(1.98757 0 -0.371338)
(1.90668 -5.00661e-20 -0.356368)
(1.8276 -1.02172e-19 -0.341707)
(1.75008 -5.19121e-20 -0.327307)
(1.67418 3.02484e-23 -0.313187)
(1.59962 5.30144e-20 -0.299288)
(1.52651 5.33323e-20 -0.285646)
(1.45453 0 -0.272189)
(1.38389 0 -0.25897)
(1.31418 1.06956e-19 -0.245903)
(1.24572 2.13125e-19 -0.233062)
(1.17801 0 -0.220342)
(1.1115 1.05193e-19 -0.207843)
(1.04559 1.04245e-19 -0.195436)
(0.980868 1.0317e-19 -0.183253)
(0.916603 2.03786e-19 -0.171138)
(0.853581 0 -0.159259)
(0.790894 0 -0.147427)
(0.729556 1.94715e-19 -0.135855)
(0.668461 -3.82421e-19 -0.124314)
(0.608887 -1.87533e-19 -0.113069)
(0.549495 0 -0.101845)
(0.491859 0 -0.0909609)
(0.43437 0 -0.0800963)
(0.37894 0 -0.0696282)
(0.323642 0 -0.0591809)
(0.270771 0 -0.0491966)
(0.218009 -3.16222e-19 -0.0392351)
(0.168118 4.35164e-23 -0.0298144)
(0.118243 2.97885e-19 -0.0204074)
(0.0718 0 -0.011638)
(0.0250928 2.79273e-19 -0.00283706)
(-0.0174367 2.69941e-19 0.00519678)
(-0.0608627 0 0.0133675)
(-0.099069 -2.51279e-19 0.0205853)
(-0.139116 -4.84094e-19 0.0281337)
(-0.173604 0 0.0345876)
(-0.207173 0 0.0411207)
(-0.249248 0 0.0485724)
(-0.249099 -4.13106e-19 0.049249)
(-0.34207 0 0.0668508)
(-0.296651 0 0.0558373)
(-0.334492 3.61013e-19 0.0694698)
(-0.550726 -3.41978e-19 0.102011)
(-0.141465 0 0.0264042)
(-0.633726 0 0.134899)
(-0.662785 0 0.110132)
(0.0943312 0 -0.00947446)
(-1.22877 0 0.254395)
(-0.597667 -2.07357e-22 0.0807119)
(0.20487 0 -0.0134517)
(-2.01928 4.1737e-19 0.407559)
(-0.471825 -1.00372e-18 0.030475)
(0.691593 0 -0.0953857)
(-2.68789 1.72051e-23 0.581087)
(-2.31906 0 0.389298)
(0.286141 -9.8926e-23 -0.102541)
(-0.155564 0 0.0702485)
(-1.9985 -6.87414e-19 0.419037)
(-1.99041 0 0.36119)
(-0.651768 7.3916e-19 0.0720735)
(0.959606 0 -0.212607)
(32.4869 0 2.09062)
(33.2451 0 2.21725)
(33.5926 0 1.74326)
(33.2299 0 0.950344)
(32.2096 1.16252e-20 0.109575)
(30.7387 -8.99628e-22 -0.638682)
(29.0224 0 -1.23905)
(27.2194 2.06556e-20 -1.68239)
(25.4391 0 -1.98582)
(23.7475 -3.53426e-20 -2.17756)
(22.1769 0 -2.28616)
(20.7374 1.53227e-20 -2.33558)
(19.4265 0 -2.34409)
(18.2356 2.6027e-20 -2.32493)
(17.1534 -1.18608e-20 -2.28739)
(16.1685 2.19264e-20 -2.23791)
(15.27 -2.00832e-20 -2.18093)
(14.4479 -1.84444e-20 -2.1195)
(13.6936 0 -2.05574)
(12.9993 -1.55583e-20 -1.99109)
(12.3584 -1.42236e-20 -1.92655)
(11.7651 -2.59336e-20 -1.86279)
(11.2143 -1.18351e-20 -1.80029)
(10.7016 0 -1.73933)
(10.2231 0 -1.6801)
(9.77568 0 -1.6227)
(9.35622 -1.60114e-20 -1.5672)
(8.9622 -1.44289e-20 -1.51359)
(8.59131 0 -1.46187)
(8.24156 0 -1.41199)
(7.91112 1.03353e-20 -1.36391)
(7.59842 0 -1.31757)
(7.30201 1.2165e-24 -1.27291)
(7.02062 -1.4168e-20 -1.22985)
(6.75307 1.23134e-20 -1.18834)
(6.49834 0 -1.14831)
(6.25548 0 -1.10968)
(6.02364 7.53835e-21 -1.0724)
(5.80203 0 -1.03639)
(5.58993 0 -1.00161)
(5.38672 -3.79332e-21 -0.967978)
(5.19178 5.47631e-21 -0.935451)
(5.00457 0 -0.903972)
(4.82459 1.76005e-21 -0.873488)
(4.65138 0 -0.84395)
(4.48449 1.3563e-21 -0.815307)
(4.32354 2.71411e-21 -0.787519)
(4.16814 0 -0.760537)
(4.01798 5.05645e-21 -0.734324)
(3.87269 -6.08907e-21 -0.708835)
(3.73202 -2.79977e-20 -0.684039)
(3.59565 1.56646e-20 -0.659892)
(3.46336 -1.71175e-20 -0.636368)
(3.33484 2.5108e-23 -0.613423)
(3.20993 0 -0.591038)
(3.08833 2.06647e-20 -0.569168)
(2.96993 2.1567e-20 -0.547802)
(2.85444 -2.23287e-20 -0.52689)
(2.74177 2.30001e-20 -0.506433)
(2.63164 4.71694e-20 -0.486372)
(2.52402 4.81086e-20 -0.466723)
(2.41859 -4.88358e-20 -0.447417)
(2.31541 4.94602e-20 -0.428484)
(2.21411 0 -0.409846)
(2.11483 0 -0.391548)
(2.01714 5.03282e-20 -0.373498)
(1.92129 0 -0.355766)
(1.82676 0 -0.338235)
(1.73395 -1.00267e-19 -0.321007)
(1.6422 0 -0.303939)
(1.5521 -9.89711e-20 -0.287166)
(1.46284 -1.96097e-19 -0.270515)
(1.37522 0 -0.254164)
(1.28823 -9.58111e-20 -0.237902)
(1.20292 0 -0.221955)
(1.11808 0 -0.206068)
(1.03507 -1.82948e-19 -0.190527)
(0.952383 1.79696e-19 -0.175025)
(0.871738 3.96131e-23 -0.159915)
(0.791331 0 -0.14483)
(0.713273 0 -0.130198)
(0.635395 0 -0.115585)
(0.560268 -1.60917e-19 -0.101501)
(0.485287 1.5682e-19 -0.0874369)
(0.413554 0 -0.0739897)
(0.341923 5.93635e-19 -0.0605658)
(0.274143 2.88223e-19 -0.047862)
(0.206334 -5.59038e-19 -0.0351705)
(0.143136 -2.7073e-19 -0.0233268)
(0.079537 -5.23945e-19 -0.0114403)
(0.0215572 0 -0.000570104)
(-0.0376466 0 0.0104777)
(-0.0898363 2.35615e-19 0.0202605)
(-0.144499 4.53846e-19 0.0304821)
(-0.191548 -4.36537e-19 0.0391934)
(-0.237973 0 0.0482403)
(-0.293397 0 0.0577291)
(-0.298605 3.87055e-19 0.0600446)
(-0.416384 3.68334e-19 0.0819541)
(-0.361169 0 0.0678015)
(-0.421146 -3.38098e-19 0.0898708)
(-0.674178 3.20225e-19 0.122869)
(-0.185669 0 0.0353752)
(-0.809388 0 0.176863)
(-0.793773 0 0.124001)
(0.0671446 0 0.00329932)
(-1.55056 0 0.326757)
(-0.688568 -5.16228e-19 0.0766111)
(0.151146 0 0.0163576)
(-2.51405 0 0.512233)
(-0.491125 0 -0.00372123)
(0.685609 8.5063e-19 -0.0643078)
(-3.41642 6.44836e-19 0.759622)
(-2.67748 0 0.416873)
(0.371166 -8.23492e-19 -0.145912)
(-0.304007 0 0.127599)
(-2.48825 -6.42366e-19 0.533942)
(-2.31276 0 0.404593)
(-0.640436 -6.90775e-19 0.0334928)
(1.32482 0 -0.301467)
(32.5602 -4.99023e-21 1.4762)
(33.1439 -6.19288e-21 1.61689)
(33.6709 7.35248e-21 1.42689)
(33.8972 8.28538e-21 0.966903)
(33.7059 0 0.375913)
(33.1091 -9.93093e-21 -0.239143)
(32.1799 0 -0.812485)
(31.0092 1.74612e-20 -1.30712)
(29.6855 1.67003e-20 -1.70764)
(28.2851 3.22197e-20 -2.01447)
(26.8673 -1.48308e-20 -2.23731)
(25.4741 1.38447e-20 -2.38961)
(24.1327 0 -2.4853)
(22.8587 0 -2.53697)
(21.6593 1.11822e-20 -2.55523)
(20.5363 -1.14593e-22 -2.54861)
(19.4881 1.76176e-22 -2.52374)
(18.5112 1.36038e-22 -2.48569)
(17.6011 0 -2.43828)
(16.7529 0 -2.38441)
(15.9619 0 -2.32621)
(15.2232 2.43683e-20 -2.2653)
(14.5325 1.10942e-20 -2.20287)
(13.8857 0 -2.13982)
(13.279 0 -2.0768)
(12.7091 1.66469e-20 -2.01429)
(12.1729 0 -1.95266)
(11.6677 0 -1.89214)
(11.1908 0 -1.83293)
(10.7401 0 -1.77513)
(10.3134 -6.57873e-24 -1.71882)
(9.90902 0 -1.66405)
(9.52515 -1.76859e-24 -1.61083)
(9.1603 1.33555e-20 -1.55916)
(8.81309 2.348e-24 -1.50903)
(8.48224 0 -1.4604)
(8.1666 0 -1.41324)
(7.86512 0 -1.36752)
(7.57683 0 -1.32319)
(7.30085 0 -1.2802)
(7.03637 0 -1.23851)
(6.78263 0 -1.19806)
(6.53894 -3.3699e-21 -1.15881)
(6.30466 -1.69409e-21 -1.12071)
(6.07921 0 -1.08371)
(5.86202 1.24369e-21 -1.04776)
(5.65261 0 -1.01283)
(5.45046 0 -0.978845)
(5.25517 -9.50998e-21 -0.945786)
(5.06629 0 -0.913596)
(4.88346 1.31697e-20 -0.882245)
(4.70629 0 -0.851681)
(4.53447 3.22103e-20 -0.821878)
(4.36764 2.43221e-23 -0.792782)
(4.20555 0 -0.764376)
(4.04784 0 -0.736602)
(3.89434 0 -0.709454)
(3.74468 4.20119e-20 -0.682866)
(3.59876 -4.32727e-20 -0.656845)
(3.45618 -4.43191e-20 -0.631317)
(3.31692 -4.52023e-20 -0.606303)
(3.18057 9.18615e-20 -0.581718)
(3.04719 4.64719e-20 -0.557601)
(2.91629 0 -0.533853)
(2.78807 0 -0.510535)
(2.66195 -2.41455e-23 -0.487527)
(2.53827 0 -0.46492)
(2.41633 0 -0.442567)
(2.29666 -9.41841e-20 -0.420595)
(2.1784 0 -0.398824)
(2.06229 0 -0.377428)
(1.94731 1.8422e-19 -0.356183)
(1.83444 -9.10959e-20 -0.335318)
(1.72242 0 -0.314561)
(1.61257 0 -0.294204)
(1.50334 0 -0.273919)
(1.39644 1.71816e-19 -0.254071)
(1.28998 0 -0.234268)
(1.18611 3.30817e-19 -0.214959)
(1.08254 -1.61964e-19 -0.195676)
(0.98195 0 -0.176965)
(0.881562 0 -0.158271)
(0.784674 1.51002e-19 -0.140243)
(0.687924 -2.68614e-23 -0.122233)
(0.595308 1.43172e-19 -0.105003)
(0.502762 -2.7839e-19 -0.0877922)
(0.415126 2.70231e-19 -0.0714927)
(0.327385 2.62094e-19 -0.055201)
(0.245533 2.53835e-19 -0.0399806)
(0.16311 3.22532e-23 -0.0247035)
(0.0878722 0 -0.0107105)
(0.0110449 -2.28987e-19 0.00350531)
(-0.0568176 0 0.0161233)
(-0.127839 0 0.0292932)
(-0.188958 4.08953e-19 0.0404928)
(-0.249983 0 0.0523692)
(-0.31966 0 0.0639281)
(-0.332874 0 0.0685325)
(-0.474621 -3.44876e-19 0.0943602)
(-0.412266 0 0.0775518)
(-0.497718 -3.16471e-19 0.109434)
(-0.778024 0 0.139392)
(-0.229038 0 0.0448604)
(-0.97289 0 0.21823)
(-0.899466 0 0.130466)
(0.0198217 0 0.0227751)
(-1.84442 -4.38264e-19 0.39524)
(-0.752701 -4.82459e-19 0.0627204)
(0.0588944 4.49252e-19 0.0596171)
(-2.9518 0 0.606071)
(-0.482841 0 -0.0511689)
(0.6031 -1.59113e-18 -0.00854388)
(-4.08402 0 0.932476)
(-2.9041 7.0846e-19 0.40772)
(0.438405 0 -0.189306)
(-0.47588 6.60861e-19 0.197313)
(-2.90501 6.0028e-19 0.637516)
(-2.50152 0 0.416295)
(-0.537577 -6.44911e-19 -0.0318975)
(1.73072 0 -0.402832)
(32.6158 4.69943e-21 1.02391)
(33.0271 1.14201e-20 1.1119)
(33.4735 -6.92564e-21 1.02979)
(33.839 -7.79543e-22 0.767294)
(34.013 7.50623e-21 0.37783)
(33.9395 0 -0.0766835)
(33.6106 0 -0.547148)
(33.0465 -1.64422e-20 -0.997841)
(32.2826 -3.05495e-20 -1.40515)
(31.3612 -7.07879e-22 -1.75605)
(30.3258 1.39639e-20 -2.04605)
(29.2168 -1.30354e-20 -2.27647)
(28.0693 1.17935e-20 -2.45215)
(26.9113 0 -2.57967)
(25.7644 0 -2.66619)
(24.6441 -9.58633e-21 -2.7187)
(23.5607 3.5094e-20 -2.74359)
(22.5208 3.23123e-20 -2.7464)
(21.5278 0 -2.73184)
(20.5831 0 -2.70379)
(19.6865 0 -2.66542)
(18.8369 -6.74422e-23 -2.61926)
(18.0324 -2.08404e-20 -2.56732)
(17.2711 9.47184e-21 -2.51123)
(16.5504 1.72252e-20 -2.45225)
(15.8682 -3.12996e-20 -2.39138)
(15.222 1.41354e-20 -2.3294)
(14.6095 1.27501e-20 -2.26693)
(14.0285 1.14624e-20 -2.20445)
(13.477 0 -2.14232)
(12.953 -9.1676e-21 -2.08084)
(12.4547 8.12494e-21 -2.02021)
(11.9803 -7.1747e-21 -1.9606)
(11.5283 -1.25669e-20 -1.90213)
(11.0972 -2.18553e-20 -1.84487)
(10.6857 0 -1.78889)
(10.2925 0 -1.73422)
(9.91644 -6.70671e-21 -1.68088)
(9.55639 0 -1.62886)
(9.21136 4.40524e-21 -1.57816)
(8.88044 3.38828e-21 -1.52877)
(8.56273 0 -1.48065)
(8.25743 6.35793e-21 -1.43379)
(7.96379 1.59424e-21 -1.38815)
(7.68111 0 -1.3437)
(7.40872 -1.17027e-21 -1.30039)
(7.14603 -2.35957e-21 -1.25819)
(6.89243 0 -1.21706)
(6.64742 8.9182e-21 -1.17696)
(6.41046 -5.3536e-21 -1.13785)
(6.18112 -1.23351e-20 -1.0997)
(5.95889 0 -1.06244)
(5.74343 -2.45725e-23 -1.02607)
(5.53425 3.2584e-20 -0.990512)
(5.33108 0 -0.955763)
(5.13345 0 -0.921754)
(4.94115 -1.90295e-20 -0.888481)
(4.75373 -1.97402e-20 -0.855869)
(4.57104 4.06454e-20 -0.823929)
(4.39262 4.1661e-20 -0.792576)
(4.21842 4.24876e-20 -0.761835)
(4.04791 -4.31538e-20 -0.731607)
(3.88118 -8.73174e-20 -0.701941)
(3.71763 0 -0.672717)
(3.55747 0 -0.644011)
(3.40001 -8.88639e-20 -0.615677)
(3.24564 0 -0.587829)
(3.0935 0 -0.560285)
(2.94423 8.84591e-20 -0.533206)
(2.79677 0 -0.506367)
(2.65203 -8.72496e-20 -0.479982)
(2.50872 -3.22879e-23 -0.453779)
(2.36807 8.55218e-20 -0.428038)
(2.22851 0 -0.402424)
(2.09165 0 -0.377297)
(1.95557 0 -0.352251)
(1.82239 1.6114e-19 -0.327739)
(1.68973 0 -0.303272)
(1.56028 -1.55161e-19 -0.279408)
(1.43116 3.03823e-19 -0.255566)
(1.30573 0 -0.232421)
(1.18049 0 -0.209285)
(1.05956 0 -0.186964)
(0.938726 -2.66112e-23 -0.16465)
(0.822981 -1.3422e-19 -0.14329)
(0.707241 -2.60864e-19 -0.121941)
(0.597553 -2.53272e-19 -0.101705)
(0.487645 2.45541e-19 -0.0814688)
(0.385012 0 -0.0625408)
(0.281594 2.30047e-19 -0.0435405)
(0.187064 0 -0.0261048)
(0.0905315 2.14484e-19 -0.00840776)
(0.00508674 0 0.00734538)
(-0.0842628 0 0.0237663)
(-0.16117 0 0.0377096)
(-0.23874 -3.67889e-19 0.05276)
(-0.323791 -3.52755e-19 0.0664284)
(-0.347797 0 0.0740252)
(-0.512757 3.22699e-19 0.103351)
(-0.446586 -3.1197e-19 0.0843482)
(-0.559896 2.96115e-19 0.127394)
(-0.859311 -2.8025e-19 0.150933)
(-0.268625 0 0.0545726)
(-1.11827 0 0.257731)
(-0.98019 0 0.129637)
(-0.0424936 0 0.0484052)
(-2.10244 4.09815e-19 0.457892)
(-0.79562 1.79572e-22 0.0403383)
(-0.0616332 -8.4024e-19 0.114915)
(-3.32267 0 0.686367)
(-0.461839 0 -0.10834)
(0.459942 7.43863e-19 0.0700813)
(-4.66795 0 1.09345)
(-3.01121 -6.62061e-19 0.362712)
(0.482621 0 -0.230366)
(-0.653891 -1.2352e-18 0.276193)
(-3.22794 0 0.724241)
(-2.54779 0 0.392249)
(-0.343094 6.0245e-19 -0.124604)
(2.17736 0 -0.516693)
(32.6412 0 0.670555)
(32.9429 -5.25623e-21 0.714653)
(33.28 0 0.665914)
(33.6107 -6.60911e-21 0.503579)
(33.8719 -1.34767e-20 0.242474)
(34.0129 0 -0.0856884)
(34.005 6.72543e-21 -0.449499)
(33.8371 0 -0.822865)
(33.5096 8.99201e-22 -1.18559)
(33.0321 -2.59117e-20 -1.52322)
(32.4206 0 -1.82643)
(31.6954 0 -2.09032)
(30.8786 -1.10925e-20 -2.31331)
(29.9925 0 -2.49613)
(29.0582 0 -2.64106)
(28.0945 0 -2.75136)
(27.1176 -1.63943e-20 -2.83081)
(26.1407 -1.51104e-20 -2.88335)
(25.1745 -1.37182e-20 -2.91286)
(24.2269 0 -2.92296)
(23.3038 0 -2.91694)
(22.409 -1.07052e-20 -2.89768)
(21.5454 9.77568e-21 -2.86771)
(20.7141 -8.90853e-21 -2.82915)
(19.9158 -1.62007e-20 -2.78382)
(19.1505 2.93211e-20 -2.73322)
(18.4176 -5.44956e-23 -2.6786)
(17.7163 -1.19914e-20 -2.62099)
(17.0456 -1.07802e-20 -2.56124)
(16.4041 0 -2.50005)
(15.7908 0 -2.43798)
(15.2042 -7.64095e-21 -2.37549)
(14.6431 0 -2.31295)
(14.1061 1.18177e-20 -2.25066)
(13.5921 1.02746e-20 -2.18885)
(13.0997 -8.84121e-21 -2.12772)
(12.6277 0 -2.0674)
(12.1752 6.30617e-21 -2.00801)
(11.741 5.18217e-21 -1.94964)
(11.324 3.49396e-24 -1.89235)
(10.9234 -6.37575e-21 -1.83617)
(10.5382 0 -1.78113)
(10.1675 -2.9956e-21 -1.72726)
(9.81059 0 -1.67454)
(9.46665 0 -1.62299)
(9.13495 0 -1.57257)
(8.81483 1.35255e-23 -1.52328)
(8.50562 0 -1.47509)
(8.20673 -4.18402e-21 -1.42798)
(7.91755 1.00494e-20 -1.38191)
(7.63758 1.15915e-20 -1.33687)
(7.36624 0 -1.2928)
(7.10312 -1.41983e-20 -1.24969)
(6.84766 -3.05695e-20 -1.20748)
(6.59952 0 -1.16616)
(6.35817 0 -1.12567)
(6.12335 1.78754e-20 -1.086)
(5.8945 1.85052e-20 -1.04708)
(5.67149 -1.90789e-20 -1.00892)
(5.45371 -3.90602e-20 -0.971425)
(5.24114 0 -0.934635)
(5.03312 0 -0.89843)
(4.82977 2.81861e-23 -0.862875)
(4.63033 -4.13079e-20 -0.827826)
(4.4351 0 -0.793382)
(4.2432 4.16965e-20 -0.759364)
(4.05512 0 -0.725917)
(3.86981 0 -0.692818)
(3.68803 0 -0.660266)
(3.50851 0 -0.627989)
(3.33232 3.41926e-23 -0.596249)
(3.1579 -3.19874e-23 -0.564714)
(2.98674 -8.01679e-20 -0.533726)
(2.81691 0 -0.502878)
(2.65038 -7.80421e-20 -0.472608)
(2.48479 0 -0.442421)
(2.3227 -1.51101e-19 -0.412868)
(2.16123 1.4829e-19 -0.383356)
(2.00362 -1.45388e-19 -0.354561)
(1.84638 -1.42386e-19 -0.325775)
(1.69355 0 -0.297818)
(1.54089 1.35948e-19 -0.269855)
(1.3934 0 -0.242861)
(1.24593 -1.29215e-19 -0.215859)
(1.10458 -1.25704e-19 -0.189992)
(0.963114 2.44378e-19 -0.164122)
(0.828934 0 -0.139578)
(0.694368 -4.5991e-19 -0.11502)
(0.568576 0 -0.092021)
(0.441731 2.15354e-19 -0.0689311)
(0.32562 0 -0.0477022)
(0.207041 2.00748e-19 -0.0261729)
(0.101858 0 -0.00695499)
(-0.00804531 3.72551e-19 0.0130531)
(-0.102692 -3.58254e-19 0.0300285)
(-0.198987 3.44271e-19 0.0486194)
(-0.300771 3.30074e-19 0.0644895)
(-0.338508 0 0.0757719)
(-0.526108 -6.03744e-19 0.108192)
(-0.460011 5.83623e-19 0.087463)
(-0.602696 0 0.142873)
(-0.914647 2.62101e-19 0.157061)
(-0.300347 0 0.0639289)
(-1.23928 0 0.294058)
(-1.03601 -4.64028e-19 0.121832)
(-0.112747 0 0.0790154)
(-2.31719 0 0.512935)
(-0.822414 4.21493e-19 0.0109372)
(-0.198177 7.85766e-19 0.179892)
(-3.61844 3.18154e-19 0.751039)
(-0.441428 0 -0.171788)
(0.27598 0 0.167816)
(-5.14695 0 1.23665)
(-3.01738 0 0.286006)
(0.504193 6.71921e-19 -0.267975)
(-0.818539 5.77057e-19 0.359897)
(-3.43726 0 0.788618)
(-2.44689 0 0.331532)
(-0.0580207 0 -0.243945)
(2.66501 0 -0.642958)
(32.6411 4.2126e-21 0.382098)
(32.8733 0 0.398765)
(33.1292 4.92956e-21 0.358816)
(33.3941 0 0.246211)
(33.6373 6.02901e-21 0.0614835)
(33.8273 0 -0.180681)
(33.9412 -6.32105e-21 -0.461155)
(33.9639 1.15974e-20 -0.762005)
(33.8863 2.36771e-20 -1.06807)
(33.7037 7.27194e-22 -1.36737)
(33.4157 0 -1.65089)
(33.0257 0 -1.91243)
(32.5404 0 -2.14812)
(31.9688 0 -2.35589)
(31.322 0 -2.53499)
(30.6119 0 -2.68569)
(29.8509 1.47759e-20 -2.80901)
(29.0514 -1.36978e-20 -2.90652)
(28.2248 1.28897e-20 -2.98022)
(27.3815 0 -3.0323)
(26.5308 0 -3.0651)
(25.6804 9.85815e-21 -3.08093)
(24.8368 9.02574e-21 -3.08203)
(24.0052 8.24368e-21 -3.07052)
(23.1895 0 -3.0483)
(22.3928 -1.37418e-20 -3.01713)
(21.6172 -2.48049e-20 -2.97852)
(20.8643 1.11678e-20 -2.93384)
(20.135 0 -2.88424)
(19.4297 0 -2.83073)
(18.7484 0 -2.77417)
(18.0912 7.14363e-21 -2.71528)
(17.4575 0 -2.65469)
(16.8469 0 -2.59292)
(16.2588 9.62587e-21 -2.53039)
(15.6923 8.30549e-21 -2.46747)
(15.1467 0 -2.40447)
(14.6212 5.91932e-21 -2.34163)
(14.1151 -9.73366e-21 -2.27915)
(13.6274 -3.89372e-21 -2.2172)
(13.1574 2.99642e-21 -2.15591)
(12.7042 0 -2.09539)
(12.2671 0 -2.03572)
(11.8453 0 -1.97695)
(11.4381 1.68975e-22 -1.91915)
(11.0447 0 -1.86233)
(10.6645 2.06993e-21 -1.80652)
(10.2968 3.02569e-21 -1.75173)
(9.94096 0 -1.69796)
(9.59634 -4.71168e-21 -1.64519)
(9.26242 0 -1.59344)
(8.93856 0 -1.54266)
(8.62433 -1.32848e-20 -1.49285)
(8.3191 2.13788e-23 -1.44398)
(8.0225 1.52306e-20 -1.39603)
(7.73392 0 -1.34895)
(7.45308 0 -1.30275)
(7.17935 -1.7367e-20 -1.25735)
(6.91255 0 -1.21277)
(6.65201 3.66529e-20 -1.16891)
(6.39769 0 -1.12582)
(6.14883 0 -1.08337)
(5.90556 7.68099e-20 -1.04164)
(5.66701 7.74764e-20 -1.00047)
(5.4335 3.89476e-20 -0.959979)
(5.20401 0 -0.919956)
(4.97911 0 -0.880578)
(4.75755 3.90176e-20 -0.841584)
(4.54024 7.77355e-20 -0.803213)
(4.32565 0 -0.765142)
(4.11506 7.67218e-20 -0.727689)
(3.90661 -7.59944e-20 -0.690453)
(3.70204 7.51521e-20 -0.65385)
(3.49907 -7.41694e-20 -0.617389)
(3.30003 7.31466e-20 -0.581598)