/*--------------------------------*- C++ -*----------------------------------*\
| =========                 |                                                 |
| \\      /  F ield         | OpenFOAM: The Open Source CFD Toolbox           |
|  \\    /   O peration     | Version:  2412                                  |
|   \\  /    A nd           | Website:  www.openfoam.com                      |
|    \\/     M anipulation  |                                                 |
\*---------------------------------------------------------------------------*/
FoamFile
{
    version     2.0;
    format      ascii;
    arch        "LSB;label=32;scalar=64";
    class       surfaceScalarField;
    location    "0.745";
    object      ddtCorrDdt0(phi);
}
// * * * * * * * * * * * * * * * * * * * * * * * * * * * * * * * * * * * * * //

dimensions      [0 3 -2 0 0 0 0];

oriented        oriented;

internalField   nonuniform List<scalar> 
24930
(
0.00017515
0.000163523
-0.00015294
0.000108076
5.55419e-05
7.85453e-05
2.39335e-05
6.86138e-05
1.32087e-05
6.81326e-05
9.32182e-06
6.96917e-05
7.46823e-06
7.1592e-05
5.60536e-06
7.11621e-05
5.58004e-06
6.95319e-05
5.69882e-06
6.70011e-05
6.22922e-06
6.3754e-05
6.4525e-06
5.96534e-05
6.14936e-06
5.45053e-05
5.46192e-06
4.83746e-05
4.62033e-06
4.15881e-05
3.79207e-06
3.4518e-05
3.06767e-06
2.74127e-05
2.49655e-06
2.03744e-05
2.12057e-06
1.34061e-05
1.98775e-06
6.45779e-06
2.13833e-06
-5.23416e-07
2.57153e-06
-7.52878e-06
3.22315e-06
-1.44432e-05
3.98252e-06
-2.10644e-05
4.74503e-06
-2.71826e-05
5.46537e-06
-3.26658e-05
6.17232e-06
-3.75003e-05
6.93957e-06
-4.17744e-05
7.83563e-06
-4.56341e-05
8.88959e-06
-4.92303e-05
1.00795e-05
-5.26841e-05
1.13534e-05
-5.60611e-05
1.26537e-05
-5.93678e-05
1.39456e-05
-6.25342e-05
1.52011e-05
-6.54311e-05
1.64003e-05
-6.78649e-05
1.74855e-05
-6.96288e-05
1.83856e-05
-7.04859e-05
1.89594e-05
-7.02533e-05
1.90813e-05
-6.8756e-05
1.85588e-05
-6.59549e-05
1.72908e-05
-6.18397e-05
1.51188e-05
-5.66064e-05
1.2084e-05
-5.04367e-05
8.15188e-06
-4.37306e-05
3.58034e-06
-3.67474e-05
-1.54463e-06
-2.9944e-05
-6.79642e-06
-2.34905e-05
-1.20821e-05
-1.77636e-05
-1.69477e-05
-1.27661e-05
-2.14102e-05
-8.7663e-06
-2.51132e-05
-5.66851e-06
-2.81676e-05
-3.68107e-06
-3.03521e-05
-2.73113e-06
-3.16601e-05
-2.922e-06
-3.20381e-05
-4.2608e-06
-3.10593e-05
-6.53744e-06
-2.91169e-05
-9.88343e-06
-2.51385e-05
-1.35041e-05
-2.0675e-05
-1.78953e-05
-1.37326e-05
-2.14869e-05
-7.94371e-06
-2.56528e-05
3.86794e-07
-2.78469e-05
4.76304e-06
-3.09409e-05
1.20675e-05
-3.09735e-05
1.21176e-05
-3.29011e-05
1.6809e-05
-3.06225e-05
1.0913e-05
-3.17764e-05
1.31367e-05
-2.72508e-05
1.21572e-06
-2.81069e-05
2.13563e-06
-2.1535e-05
-1.53521e-05
-2.29383e-05
-1.50283e-05
-1.5519e-05
-3.7476e-05
-1.95204e-05
-3.69434e-05
-1.39141e-05
-6.0702e-05
-2.31567e-05
-5.39898e-05
-2.14302e-05
-6.93715e-05
-3.55036e-05
-4.88014e-05
-3.75677e-05
-4.2392e-05
-5.12937e-05
-2.18133e-05
-5.36094e-05
1.96428e-06
-6.56673e-05
2.7253e-05
-6.22171e-05
1.42403e-05
-6.7297e-05
4.89546e-05
-7.80782e-05
0.00010533
-3.68877e-05
-0.000171731
-9.99272e-05
0.000316028
-3.31182e-05
-0.000238412
-3.38918e-05
-0.000357024
-0.000147691
0.000998512
8.81799e-05
-0.00185489
-0.000171216
0.00100743
-0.000153213
0.00101304
0.000313563
-0.00505076
-0.000786455
0.0087718
0.000755627
-0.00708601
-0.000571843
0.00212312
-0.000271522
0.00889319
0.00115233
-0.031487
-0.00158791
0.0081951
0.00119204
-0.0041396
-0.000627592
-0.00697213
0.0015331
0.00061312
-0.00192812
-0.255464
0.00130219
-0.0038599
0.00324233
0.00220237
-0.00934493
0.0015467
0.00588587
-0.00832169
0.0023783
0.00291349
-0.0193889
0.0158449
0.0909919
-0.0262651
0.0170137
0.00029685
-0.0238967
0.0523162
0.0577855
-0.0246611
0.0196241
0.0350943
0.0163911
0.000668854
-0.00887145
0.0158033
-0.0170446
0.00705612
-0.0099167
-0.0063944
-0.00564289
0.000213705
0.000151372
-0.000193159
0.000187731
0.000107405
0.000157124
7.95755e-05
0.000139306
5.91855e-05
0.000132661
4.36616e-05
0.000132063
3.22446e-05
0.000132767
2.57859e-05
0.000133296
2.50247e-05
0.000131371
2.68204e-05
0.000127175
2.84658e-05
0.000121391
2.81524e-05
0.000114383
2.58331e-05
0.000106217
2.2339e-05
9.70657e-05
1.8356e-05
8.73184e-05
1.41913e-05
7.73748e-05
1.00069e-05
6.74399e-05
6.00324e-06
5.74871e-05
2.44533e-06
4.73172e-05
-3.85089e-07
3.665e-05
-2.28994e-06
2.52681e-05
-3.29502e-06
1.31921e-05
-3.71883e-06
7.7167e-07
-4.0513e-06
-1.14096e-05
-4.68394e-06
-2.2775e-05
-5.68786e-06
-3.29819e-05
-6.81331e-06
-4.20038e-05
-7.68954e-06
-5.00577e-05
-8.05763e-06
-5.74691e-05
-7.8808e-06
-6.45506e-05
-7.31505e-06
-7.15443e-05
-6.58529e-06
-7.86013e-05
-5.87434e-06
-8.57924e-05
-5.26656e-06
-9.30895e-05
-4.78363e-06
-0.00010038
-4.4065e-06
-0.000107448
-4.12708e-06
-0.000114018
-3.93201e-06
-0.000119725
-3.85002e-06
-0.000124216
-3.88704e-06
-0.000127104
-4.09436e-06
-0.000128143
-4.46441e-06
-0.000127129
-5.03463e-06
-0.000124137
-5.72811e-06
-0.000119284
-6.54215e-06
-0.000113003
-7.33744e-06
-0.00010563
-8.11175e-06
-9.77823e-05
-8.69935e-06
-8.9783e-05
-9.13306e-06
-8.221e-05
-9.25692e-06
-7.52148e-05
-9.16008e-06
-6.92364e-05
-8.73597e-06
-6.42844e-05
-8.10109e-06
-6.06894e-05
-7.21292e-06
-5.8452e-05
-6.13107e-06
-5.77547e-05
-4.90498e-06
-5.86734e-05
-3.38469e-06
-6.10192e-05
-1.82035e-06
-6.49858e-05
2.75207e-07
-6.96847e-05
2.18033e-06
-7.56699e-05
4.88962e-06
-8.11174e-05
6.82841e-06
-8.75198e-05
9.83057e-06
-9.19131e-05
1.10672e-05
-9.74654e-05
1.3784e-05
-9.96339e-05
1.34582e-05
-0.000103997
1.55582e-05
-0.000103662
1.32369e-05
-0.000107301
1.49765e-05
-0.000104632
1.06682e-05
-0.000108194
1.25497e-05
-0.000103475
6.35795e-06
-0.00010794
8.77933e-06
-0.000102504
8.84237e-07
-0.000110232
4.17046e-06
-0.000107233
-4.45104e-06
-0.000121556
1.48475e-06
-0.000123981
-4.75727e-06
-0.000145378
5.47264e-06
-0.000153897
6.124e-06
-0.000176885
1.48493e-05
-0.000187256
1.71147e-05
-0.000209295
2.93531e-05
-0.000213709
1.89951e-05
-0.000227239
1.90364e-05
-0.000246311
5.61709e-05
-0.000207396
-5.8539e-05
-0.000281672
7.98639e-05
-0.000209538
-6.46428e-06
-0.000217105
-0.000188779
-0.000341361
0.000280858
-9.00646e-05
-0.000335943
-0.000362658
-0.000103674
-0.000348691
0.00067951
0.000168678
-0.00141832
-0.00101742
0.00158901
0.000642401
-0.000773444
-0.000699365
-0.00112091
-0.000627187
0.00285281
0.00135857
-0.00593051
-0.00116678
0.00132985
-0.000706182
0.00449369
0.0016489
-0.00919355
0.00297511
0.00100501
-0.00865444
0.00744939
0.0109662
-0.029101
0.00256194
0.0160807
-0.0264277
0.0340315
0.0253071
-0.066959
-0.0024536
0.0383014
-0.0514717
0.0607388
0.0522916
-0.133455
0.0445866
0.00775063
-0.0776304
0.157068
-0.0509565
-0.0531456
0.0618208
-0.122872
0.0442134
0.018323
-0.0298067
0.0927578
-0.0514429
0.028676
-0.0300941
-0.0266904
-0.0226591
0.000218393
0.000148148
-0.000202657
0.000217051
0.000131196
0.00019943
0.000115797
0.00018289
9.71024e-05
0.000172527
7.57264e-05
0.000167544
5.69796e-05
0.000165777
4.56155e-05
0.00016402
4.34818e-05
0.000159509
4.67927e-05
0.000152096
4.99525e-05
0.000142937
4.93744e-05
0.000132998
4.49834e-05
0.000122635
3.84178e-05
0.000112053
3.09699e-05
0.000101595
2.3168e-05
9.15709e-05
1.53149e-05
8.20221e-05
7.85328e-06
7.26661e-05
1.35625e-06
6.29883e-05
-3.6131e-06
5.23934e-05
-6.70663e-06
4.0436e-05
-8.0611e-06
2.70902e-05
-8.41923e-06
1.28756e-05
-8.8504e-06
-1.31453e-06
-1.01607e-05
-1.46155e-05
-1.24299e-05
-2.65526e-05
-1.50506e-05
-3.71458e-05
-1.72002e-05
-4.67569e-05
-1.83454e-05
-5.58529e-05
-1.84424e-05
-6.48303e-05
-1.78234e-05
-7.39592e-05
-1.69206e-05
-8.33905e-05
-1.60519e-05
-9.31883e-05
-1.53429e-05
-0.000103318
-1.47984e-05
-0.000113664
-1.43541e-05
-0.000124
-1.39503e-05
-0.000134034
-1.35271e-05
-0.000143362
-1.30827e-05
-0.000151572
-1.26046e-05
-0.000158194
-1.21361e-05
-0.000162896
-1.16675e-05
-0.000165384
-1.12253e-05
-0.000165668
-1.07255e-05
-0.000163809
-1.01568e-05
-0.000160223
-9.40592e-06
-0.00015523
-8.49115e-06
-0.000149464
-7.31157e-06
-0.000143259
-5.93134e-06
-0.000137234
-4.27814e-06
-0.00013156
-2.47076e-06
-0.000126726
-4.98831e-07
-0.000122771
1.50237e-06
-0.000120084
3.48062e-06
-0.000118712
5.35989e-06
-0.000118896
7.03398e-06
-0.000120777
8.67194e-06
-0.000124202
1.00738e-05
-0.000129448
1.17744e-05
-0.000135605
1.32545e-05
-0.000143348
1.54988e-05
-0.000150746
1.72574e-05
-0.000159486
2.0117e-05
-0.000166374
2.16611e-05
-0.00017488
2.45267e-05
-0.000180065
2.48519e-05
-0.000188001
2.72316e-05
-0.000191187
2.59613e-05
-0.000199057
2.83519e-05
-0.000200422
2.58791e-05
-0.000208918
2.91378e-05
-0.00020875
2.57054e-05
-0.000218921
3.00998e-05
-0.000218627
2.51731e-05
-0.000232981
3.00619e-05
-0.000235861
2.31318e-05
-0.000257871
2.89531e-05
-0.00026711
2.26094e-05
-0.000297406
3.2055e-05
-0.000313803
3.17567e-05
-0.000346448
4.24857e-05
-0.000365312
4.45935e-05
-0.000397355
5.74012e-05
-0.000409967
5.03295e-05
-0.000432689
4.52322e-05
-0.000460825
7.1433e-05
-0.000426243
-1.84862e-05
-0.000513118
6.86223e-05
-0.000441267
8.90914e-06
-0.000456854
-0.000124785
-0.000593871
0.000164394
-0.000326905
-0.000199331
-0.000616592
-0.000150446
-0.000603525
0.000474225
-3.80682e-05
-0.0010269
-0.00130665
0.00100224
0.000473148
-0.000472003
-0.000877235
-0.00108988
-0.00107271
0.00287626
0.00160715
-0.00542014
-0.00095845
-0.000403088
-0.00262541
0.0110814
0.00411997
-0.020556
0.00321291
0.00373664
-0.0150341
0.0345952
0.0216233
-0.0719857
-0.000174654
0.0438787
-0.0428483
0.0748001
0.0465009
-0.161698
-0.0107478
0.101513
-0.0814984
0.127394
0.096688
-0.31138
0.065952
0.0363091
-0.136429
0.360524
-0.0651252
-0.130134
0.108034
-0.292525
0.0682404
0.0568725
-0.0556013
0.222246
-0.0884253
0.0615752
-0.050763
-0.0630225
-0.051825
0.000221666
0.000151853
-0.000210445
0.000230373
0.000144934
0.000225124
0.000139888
0.000216059
0.000126814
0.000206315
0.000105096
0.000198987
8.19191e-05
0.000194364
6.60456e-05
0.000189717
6.22954e-05
0.000182095
6.71757e-05
0.000170778
7.25095e-05
0.000157156
7.22905e-05
0.000142906
6.59799e-05
0.000128898
5.60833e-05
0.000115487
4.47295e-05
0.000103021
3.27968e-05
9.17838e-05
2.07924e-05
8.1709e-05
9.49241e-06
7.22997e-05
-1.23577e-07
6.27583e-05
-7.14926e-06
5.21893e-05
-1.10679e-05
3.98888e-05
-1.21596e-05
2.56979e-05
-1.17054e-05
1.0204e-05
-1.1547e-05
-5.45109e-06
-1.30909e-05
-2.0115e-05
-1.64844e-05
-3.31571e-05
-2.06583e-05
-4.46393e-05
-2.41597e-05
-5.50905e-05
-2.60571e-05
-6.51434e-05
-2.6285e-05
-7.52833e-05
-2.54072e-05
-8.57963e-05
-2.41226e-05
-9.6815e-05
-2.29146e-05
-0.000108382
-2.19567e-05
-0.000120445
-2.1237e-05
-0.000132869
-2.06415e-05
-0.000145411
-2.00556e-05
-0.000157759
-1.9371e-05
-0.000169478
-1.85639e-05
-0.000180115
-1.76109e-05
-0.00018915
-1.65571e-05
-0.000196205
-1.53841e-05
-0.000200945
-1.41011e-05
-0.000203365
-1.25941e-05
-0.000203518
-1.08355e-05
-0.000201837
-8.71755e-06
-0.000198655
-6.28377e-06
-0.000194645
-3.48591e-06
-0.000190156
-4.36026e-07
-0.000185842
2.8632e-06
-0.00018188
6.24674e-06
-0.000178787
9.64924e-06
-0.00017661
1.29199e-05
-0.000175772
1.59429e-05
-0.000176341
1.86456e-05
-0.000178591
2.08778e-05
-0.000182708
2.28483e-05
-0.000188545
2.43572e-05
-0.000196446
2.60081e-05
-0.000205447
2.73549e-05
-0.000216333
2.94572e-05
-0.000227036
3.12024e-05
-0.000239436
3.41741e-05
-0.000250082
3.61059e-05
-0.000262774
3.94754e-05
-0.00027215
4.06369e-05
-0.000284827
4.39666e-05
-0.000292673
4.41072e-05
-0.000305956
4.80866e-05
-0.000312535
4.77357e-05
-0.000327249
5.33188e-05
-0.000332945
5.2639e-05
-0.000350301
5.99736e-05
-0.000356682
5.79045e-05
-0.000379411
6.57489e-05
-0.000389982
6.06968e-05
-0.000421744
6.83633e-05
-0.000439911
6.22806e-05
-0.000481438
7.25509e-05
-0.000508042
7.04294e-05
-0.000552801
8.19647e-05
-0.00058258
8.12479e-05
-0.000627105
9.32941e-05
-0.000650356
8.60548e-05
-0.000684704
7.73417e-05
-0.000724482
9.82769e-05
-0.000696485
2.13789e-05
-0.000798879
8.11035e-05
-0.000729602
3.82039e-05
-0.000754823
-7.0399e-05
-0.000905538
0.000109644
-0.000626606
-9.0446e-05
-0.000938751
-0.000204611
-0.000927592
0.000403797
-0.000313245
-0.000836705
-0.00167199
0.000614018
0.000238575
-0.000194074
-0.0011341
-0.00145043
-0.00158134
0.00351702
0.00183965
-0.00611917
-0.000954539
-0.00216234
-0.00454078
0.0204657
0.0066336
-0.0367904
0.00252137
0.00980708
-0.02108
0.0626073
0.0329642
-0.13261
-0.00477848
0.0881901
-0.0582328
0.126243
0.069035
-0.286236
-0.0222747
0.199588
-0.108769
0.209625
0.145025
-0.560358
0.0802225
0.0991392
-0.199049
0.649094
-0.0762035
-0.259049
0.156483
-0.522121
0.0873204
0.125158
-0.0863448
0.381455
-0.127484
0.102524
-0.071639
-0.117678
-0.0940674
0.000227069
0.000160659
-0.000218364
0.000239889
0.000157326
0.000242559
0.000156987
0.000241387
0.000148957
0.000235962
0.000130066
0.000228712
0.000106171
0.000222365
8.74582e-05
0.000216344
8.1999e-05
0.000207571
8.83366e-05
0.000194264
9.66699e-05
0.000177236
9.81429e-05
0.00015861
9.08703e-05
0.000139985
7.79683e-05
0.000122146
6.26081e-05
0.000105659
4.61845e-05
9.09912e-05
2.94612e-05
7.8192e-05
1.36359e-05
6.67414e-05
2.3723e-07
5.57002e-05
-9.36547e-06
4.39537e-05
-1.4399e-05
3.0516e-05
-1.52132e-05
1.49475e-05
-1.36206e-05
-2.30027e-06
-1.23785e-05
-1.99645e-05
-1.37566e-05
-3.6581e-05
-1.81777e-05
-5.12414e-05
-2.4102e-05
-6.39516e-05
-2.92469e-05
-7.53984e-05
-3.20735e-05
-8.64323e-05
-3.24231e-05
-9.76776e-05
-3.11509e-05
-0.000109456
-2.93133e-05
-0.000121886
-2.761e-05
-0.000134991
-2.62706e-05
-0.000148703
-2.52627e-05
-0.000162874
-2.4417e-05
-0.000177239
-2.35578e-05
-0.000191465
-2.25183e-05
-0.000205085
-2.12508e-05
-0.000217612
-1.97195e-05
-0.000228482
-1.79773e-05
-0.000237281
-1.59924e-05
-0.000243649
-1.37595e-05
-0.000247581
-1.11286e-05
-0.000249139
-8.06952e-06
-0.000248791
-4.48496e-06
-0.000246904
-4.69997e-07
-0.000244203
3.96619e-06
-0.00024107
8.63811e-06
-0.000238209
1.34755e-05
-0.000235812
1.82587e-05
-0.00023443
2.28767e-05
-0.00023412
2.71826e-05
-0.000235335
3.10399e-05
-0.000238165
3.4409e-05
-0.000242907
3.7114e-05
-0.000249789
3.94293e-05
-0.000258653
4.11205e-05
-0.000269904
4.2896e-05
-0.000282508
4.4295e-05
-0.000297353
4.65465e-05
-0.000312214
4.85355e-05
-0.000329169
5.20357e-05
-0.000344484
5.47005e-05
-0.00036231
5.91542e-05
-0.000376834
6.15843e-05
-0.000395274
6.65959e-05
-0.00040881
6.85716e-05
-0.000428639
7.49013e-05
-0.000441583
7.68986e-05
-0.000463817
8.54605e-05
-0.000476709
8.74632e-05
-0.000502791
9.83087e-05
-0.000517421
9.87767e-05
-0.000550369
0.000110157
-0.000570518
0.000106484
-0.000614253
0.000116685
-0.000643617
0.000110373
-0.000698999
0.000122304
-0.000738474
0.00011791
-0.000798327
0.000130798
-0.000842064
0.000127044
-0.000902351
0.000139708
-0.000939627
0.000132224
-0.000989062
0.00012149
-0.00104432
0.000140988
-0.00102623
7.00897e-05
-0.00114863
0.000113653
-0.00108508
8.0903e-05
-0.0011245
-1.76176e-05
-0.00129285
8.93232e-05
-0.0010031
2.9366e-08
-0.00134459
-0.000272693
-0.00133879
0.0004085
-0.000674794
-0.000788537
-0.00213403
0.000352972
-8.29045e-05
5.49926e-05
-0.00149581
-0.0020712
-0.00217862
0.00469806
0.00200724
-0.00814343
-0.00118005
-0.00372787
-0.00645244
0.0319482
0.00910505
-0.0576503
0.000954482
0.0200719
-0.0266933
0.0938844
0.0446408
-0.211084
-0.011131
0.151134
-0.0724085
0.185385
0.0918785
-0.467888
-0.0366271
0.335511
-0.132523
0.301229
0.195768
-0.896481
0.0867104
0.206126
-0.263579
1.00698
-0.0804887
-0.448464
0.205188
-0.804268
0.0998876
0.229667
-0.121205
0.618598
-0.167898
0.149087
-0.0924444
-0.191894
-0.149404
0.000234712
0.000170814
-0.000225815
0.000249592
0.000168781
0.000255984
0.000169822
0.00026028
0.000165198
0.000259277
0.000150497
0.000253654
0.000128925
0.000246775
0.000109609
0.000240512
0.000102242
0.000233038
0.000108678
0.000221303
0.000119797
0.00020448
0.000124236
0.000184076
0.000117837
0.000162073
0.000103464
0.000139795
8.51475e-05
0.000118239
6.48341e-05
9.83433e-05
4.34985e-05
8.06425e-05
2.27717e-05
6.49613e-05
4.87887e-06
5.05185e-05
-8.16086e-06
3.6185e-05
-1.51394e-05
2.07528e-05
-1.62602e-05
3.35101e-06
-1.36554e-05
-1.60222e-05
-1.09761e-05
-3.62733e-05
-1.16415e-05
-5.56904e-05
-1.67724e-05
-7.29168e-05
-2.45754e-05
-8.76787e-05
-3.17905e-05
-0.000100724
-3.59439e-05
-0.000113168
-3.65732e-05
-0.000125866
-3.48448e-05
-0.000139226
-3.23015e-05
-0.000153356
-2.99494e-05
-0.000168261
-2.80907e-05
-0.000183862
-2.66647e-05
-0.000199999
-2.54449e-05
-0.000216382
-2.41967e-05
-0.000232651
-2.269e-05
-0.000248309
-2.08534e-05
-0.000262835
-1.86402e-05
-0.000275626
-1.61221e-05
-0.000286236
-1.3256e-05
-0.000294282
-1.00274e-05
-0.000299761
-6.24095e-06
-0.000302751
-1.87054e-06
-0.000303758
3.17861e-06
-0.000303187
8.74816e-06
-0.000301821
1.47831e-05
-0.000300083
2.10117e-05
-0.00029873
2.73108e-05
-0.000297977
3.33948e-05
-0.000298413
3.91288e-05
-0.00030011
4.4373e-05
-0.000303552
4.89946e-05
-0.00030886
5.30023e-05
-0.000316356
5.62004e-05
-0.000326317
5.89547e-05
-0.000338576
6.09651e-05
-0.000353608
6.30964e-05
-0.000370301
6.47927e-05
-0.000389665
6.75592e-05
-0.0004093
7.01267e-05
-0.000431506
7.46509e-05
-0.000452242
7.8445e-05
-0.00047605
8.45952e-05
-0.000496629
8.87197e-05
-0.000521856
9.61487e-05
-0.00054217
0.000100397
-0.000569785
0.000109942
-0.0005904
0.000114689
-0.000621657
0.000127211
-0.00064331
0.000132217
-0.000679934
0.000147679
-0.00070469
0.00015088
-0.000750042
0.000167014
-0.00078202
0.000164751
-0.000840356
0.000178838
-0.00088362
0.000172317
-0.000955965
0.000187467
-0.00101151
0.000180761
-0.00109002
0.00019641
-0.00115142
0.000189458
-0.00123148
0.000203962
-0.00128699
0.000196079
-0.00135586
0.000183871
-0.00143143
0.000203164
-0.00142761
0.000136002
-0.00157564
0.000166808
-0.00152219
0.00014106
-0.00158127
5.16439e-05
-0.00177319
8.61838e-05
-0.00148202
0.000109143
-0.00187875
-0.000318015
-0.00185877
0.000417833
-0.00114624
-0.000766283
-0.00271832
0.00011108
-0.000518864
0.000314802
-0.00199205
-0.00281496
-0.00289022
0.00618381
0.00206304
-0.0109169
-0.00166595
-0.00506348
-0.00835962
0.045378
0.0114372
-0.0841235
-0.00135937
0.0351581
-0.0317994
0.127923
0.0562248
-0.306902
-0.0190291
0.234142
-0.0851813
0.24922
0.114602
-0.661443
-0.0530739
0.511271
-0.15191
0.395424
0.247702
-1.27894
0.0852838
0.366522
-0.327972
1.42729
-0.0776573
-0.705692
0.251859
-1.13004
0.105148
0.375665
-0.160147
0.871426
-0.209002
0.197679
-0.112925
-0.286697
-0.218063
0.000243345
0.000179917
-0.000233405
0.000259555
0.000179011
0.000267209
0.000180486
0.000274396
0.000177906
0.000276711
0.000167388
0.000273153
0.000149894
0.000266816
0.000131835
0.000260766
0.000122858
0.000255552
0.000127433
0.000247982
0.000139517
0.00023534
0.000146877
0.000217394
0.000142964
0.000195528
0.000129369
0.000171155
0.000110328
0.000145537
8.80772e-05
0.000120122
6.35357e-05
9.62075e-05
3.85325e-05
7.44135e-05
1.59817e-05
5.45841e-05
-1.27786e-06
3.59818e-05
-1.13683e-05
1.74611e-05
-1.4012e-05
-2.24335e-06
-1.12041e-05
-2.38835e-05
-7.14077e-06
-4.70112e-05
-6.49802e-06
-6.99752e-05
-1.16731e-05
-9.08921e-05
-2.1203e-05
-0.000108874
-3.09464e-05
-0.000124462
-3.7104e-05
-0.000139006
-3.84757e-05
-0.000153708
-3.64165e-05
-0.00016916
-3.30991e-05
-0.000185494
-2.9993e-05
-0.00020269
-2.75184e-05
-0.000220663
-2.55741e-05
-0.000239247
-2.3874e-05
-0.000258125
-2.21379e-05
-0.000276901
-2.00761e-05
-0.000295041
-1.75915e-05
-0.000311992
-1.46228e-05
-0.000327114
-1.12712e-05
-0.00033993
-7.48551e-06
-0.000350032
-3.24606e-06
-0.000357421
1.70319e-06
-0.000362193
7.38415e-06
-0.000364896
1.39023e-05
-0.000365974
2.10283e-05
-0.000366269
2.86774e-05
-0.000366253
3.64811e-05
-0.000366737
4.42768e-05
-0.000367971
5.16956e-05
-0.000370577
5.85901e-05
-0.000374649
6.48203e-05
-0.000380706
7.0273e-05
-0.000388904
7.50122e-05
-0.000399593
7.88225e-05
-0.000413108
8.21898e-05
-0.000429278
8.47118e-05
-0.000448662
8.74768e-05
-0.000470068
8.97413e-05
-0.000494641
9.34227e-05
-0.000519799
9.69168e-05
-0.000548088
0.000103
-0.000575139
0.000108331
-0.000605927
0.000116848
-0.000633628
0.000123111
-0.000666847
0.000133791
-0.00069522
0.000140791
-0.000732082
0.000154589
-0.000761908
0.000162582
-0.000803962
0.000180325
-0.000836233
0.000188808
-0.000885552
0.000210373
-0.000922666
0.000216678
-0.000983023
0.000239225
-0.00102952
0.000238561
-0.0011056
0.000258359
-0.001166
0.000251781
-0.00125904
0.000272218
-0.00133449
0.000263321
-0.00143599
0.00028372
-0.00151953
0.000273641
-0.00162425
0.000291571
-0.00170315
0.000283415
-0.00179682
0.000270244
-0.00189873
0.000290559
-0.00191467
0.000225197
-0.00209537
0.000246233
-0.00205762
0.0002237
-0.00214362
0.00014576
-0.00236589
0.000102315
-0.00207717
0.00024395
-0.0024831
-0.000384995
-0.00251283
0.000484703
-0.00175594
-0.000752201
-0.00345511
-0.00011244
-0.00110165
0.000587651
-0.0026587
-0.00364342
-0.00375376
0.0079338
0.00195395
-0.0143787
-0.00244415
-0.00606915
-0.0103185
0.0604539
0.0135412
-0.113195
-0.00429195
0.0554496
-0.0363911
0.163848
0.0672383
-0.418522
-0.0281254
0.337892
-0.095903
0.314527
0.136298
-0.903106
-0.0707872
0.72718
-0.167399
0.487106
0.297129
-1.76244
0.0766345
0.585014
-0.390138
1.90155
-0.0686309
-1.03449
0.29393
-1.48882
0.101351
0.567657
-0.20182
1.17995
-0.250536
0.246207
-0.132896
-0.403091
-0.300228
0.000252013
0.000187514
-0.000241291
0.000269313
0.000187974
0.000277355
0.000189904
0.000285809
0.000188693
0.000290311
0.000181774
0.000288976
0.000168792
0.000284014
0.000153249
0.000278846
0.000143224
0.000275444
0.000144862
0.000272416
0.000155257
0.000265841
0.00016402
0.000253626
0.000162905
0.000235794
0.000151783
0.000213155
0.000134361
0.000186679
0.000112814
0.000157816
8.76475e-05
0.000128401
6.03733e-05
9.99951e-05
3.42171e-05
7.34695e-05
1.27619e-05
4.89832e-05
-1.31462e-06
2.59878e-05
-6.95098e-06
3.23798e-06
-5.4257e-06
-2.0747e-05
-7.40287e-07
-4.66357e-05
1.5487e-06
-7.34655e-05
-2.65642e-06
-9.90833e-05
-1.31604e-05
-0.000121705
-2.55554e-05
-0.000141182
-3.45178e-05
-0.000158851
-3.74539e-05
-0.000176319
-3.54898e-05
-0.000194523
-3.1479e-05
-0.000213692
-2.75816e-05
-0.000233795
-2.44458e-05
-0.000254744
-2.1922e-05
-0.00027638
-1.96514e-05
-0.000298371
-1.7332e-05
-0.000320276
-1.46335e-05
-0.000341513
-1.14342e-05
-0.000361494
-7.648e-06
-0.000379542
-3.41231e-06
-0.000395145
1.32566e-06
-0.000407866
6.58533e-06
-0.00041771
1.27035e-05
-0.000424794
1.97023e-05
-0.000429711
2.7712e-05
-0.000432948
3.64222e-05
-0.000435404
4.57348e-05
-0.000437607
5.5176e-05
-0.000440429
6.45612e-05
-0.000444162
7.34182e-05
-0.00044947
8.15943e-05
-0.000456472
8.89366e-05
-0.000465718
9.53627e-05
-0.000477406
0.000100999
-0.000491915
0.000105607
-0.00050965
0.000109827
-0.000530436
0.00011311
-0.000554928
0.000116849
-0.000581856
0.000120004
-0.000612516
0.000125067
-0.000644134
0.000129884
-0.000679525
0.000138144
-0.000713978
0.000145472
-0.000752943
0.000157142
-0.000789041
0.000166045
-0.000831675
0.000180959
-0.000869618
0.000191256
-0.000917435
0.00021055
-0.000958282
0.000222365
-0.00101321
0.000246874
-0.00105827
0.000259405
-0.0011228
0.000288938
-0.0011749
0.000298834
-0.00125332
0.000329928
-0.00131751
0.000331178
-0.00141504
0.000359061
-0.00149643
0.000352698
-0.0016146
0.000381078
-0.00171456
0.000370243
-0.00184422
0.000398014
-0.00195533
0.000385133
-0.00209066
0.000408623
-0.00219927
0.000400791
-0.00232434
0.000387476
-0.00246001
0.000410532
-0.00250264
0.000345302
-0.00272477
0.00036025
-0.00270994
0.000336165
-0.00283213
0.00027549
-0.00309317
0.000143646
-0.00281579
0.000416144
-0.00326583
-0.000438353
-0.00333153
0.000589978
-0.0025455
-0.000714936
-0.00437894
-0.000328723
-0.00186931
0.000879311
-0.00353569
-0.00452536
-0.00481329
0.00991652
0.0016267
-0.0184504
-0.00355333
-0.00665818
-0.0123247
0.0769323
0.0152441
-0.151081
-0.00770556
0.0810223
-0.0405177
0.200748
0.0771943
-0.545345
-0.0380161
0.462142
-0.105196
0.379095
0.155732
-1.16979
-0.088852
0.98134
-0.179235
0.572216
0.342736
-2.26955
0.0622949
0.863509
-0.448035
2.41953
-0.0559818
-1.4333
0.328907
-1.8711
0.088318
0.807752
-0.245161
1.51092
-0.282136
0.2828
-0.152256
-0.531547
-0.395883
0.000260714
0.000193915
-0.000249823
0.000278922
0.000195588
0.000287235
0.000198258
0.00029623
0.000198306
0.000302123
0.000194299
0.000302971
0.000185316
0.000300115
0.000172681
0.000296327
0.00016242
0.000294363
0.000160959
0.000294476
0.000167896
0.000293251
0.000175905
0.000287375
0.000176667
0.000275571
0.000168416
0.000257794
0.000153895
0.000234292
0.000135051
0.000205841
0.000111887
0.000174057
8.51346e-05
0.000140976
5.76623e-05
0.000108423
3.33314e-05
7.76838e-05
1.54474e-05
4.92898e-05
5.89905e-06
2.27083e-05
4.50382e-06
-3.69978e-06
8.32736e-06
-3.17588e-05
1.19145e-05
-6.19027e-05
9.69645e-06
-9.24707e-05
-2.88478e-07
-0.000120904
-1.46027e-05
-0.000145836
-2.68266e-05
-0.000168012
-3.23632e-05
-0.000189273
-3.13044e-05
-0.000211038
-2.69355e-05
-0.000233785
-2.23228e-05
-0.000257509
-1.85497e-05
-0.000282122
-1.54454e-05
-0.000307499
-1.25461e-05
-0.000333315
-9.54777e-06
-0.000359091
-6.12329e-06
-0.000384183
-2.14538e-06
-0.000407957
2.51202e-06
-0.000429694
7.67303e-06
-0.000448835
1.33843e-05
-0.000464907
1.96574e-05
-0.000477914
2.69374e-05
-0.000487999
3.52591e-05
-0.000495803
4.47928e-05
-0.000501858
5.51314e-05
-0.000507121
6.6177e-05
-0.000512172
7.7345e-05
-0.000517959
8.8453e-05
-0.000524829
9.89081e-05
-0.000533498
0.000108556
-0.000544117
0.00011721
-0.000557266
0.000124824
-0.00057319
0.000131594
-0.00059229
0.000137249
-0.000615055
0.00014263
-0.000641304
0.000146989
-0.000671809
0.000152121
-0.000705215
0.000156553
-0.000742993
0.000163554
-0.000782164
0.000170157
-0.000825843
0.000181316
-0.000868958
0.000191173
-0.000917484
0.000206915
-0.000963451
0.000219036
-0.00101714
0.000239348
-0.00106639
0.000253565
-0.00112713
0.000279839
-0.00118107
0.000296139
-0.00125126
0.000329286
-0.00131163
0.000346537
-0.00139428
0.000386333
-0.00146441
0.000400416
-0.00156445
0.000442739
-0.00165006
0.000446346
-0.00177339
0.000485349
-0.00188029
0.00047961
-0.00202884
0.000519326
-0.00215876
0.00050697
-0.0023228
0.000545519
-0.00246799
0.000530464
-0.00264111
0.000562363
-0.00278712
0.000556004
-0.00295169
0.00054385
-0.00313024
0.000572188
-0.00320824
0.000505462
-0.00348256
0.000519449
-0.00349985
0.000487809
-0.00366992
0.000453302
-0.00398026
0.00021933
-0.00372616
0.000639144
-0.00423179
-0.000468408
-0.00434801
0.000746747
-0.00351328
-0.000677074
-0.005527
-0.000492662
-0.00286766
0.00120306
-0.00466733
-0.00543763
-0.00612513
0.012123
0.00102858
-0.0230901
-0.00503276
-0.00675401
-0.0145044
0.0946231
0.016672
-0.185676
-0.0115057
0.111997
-0.044295
0.237913
0.0856913
-0.685038
-0.0482989
0.605838
-0.11305
0.44106
0.172154
-1.4617
-0.106497
1.27032
-0.186679
0.646662
0.382437
-2.84338
0.0444045
1.19965
-0.499768
2.97183
-0.00056017
-1.86867
0.35451
-2.29395
0.0656475
1.0964
-0.288589
1.8652
-0.323017
0.316916
-0.17094
-0.682217
-0.504803
0.000269064
0.000199552
-0.000258761
0.000288478
0.00020149
0.000297115
0.000205391
0.000306453
0.000206827
0.000313328
0.000205126
0.000316134
0.000199244
0.000315652
0.000189252
0.000313655
0.000179382
0.000312853
0.000175369
0.000314355
0.000178545
0.000316354
0.000184119
0.000315166
0.000185431
0.000308858
0.000179408
0.000296797
0.000167736
0.000278596
0.000152169
0.000254092
0.000132493
0.000224006
0.000108596
0.00019006
8.24196e-05
0.000154445
5.74353e-05
0.000119253
3.71252e-05
8.60951e-05
2.39301e-05
5.56099e-05
1.86787e-05
2.68733e-05
1.99808e-05
-2.40686e-06
2.36669e-05
-3.42665e-05
2.38103e-05
-6.85447e-05
1.61804e-05
-0.000102745
1.83085e-06
-0.000134185
-1.30677e-05
-0.000162265
-2.19331e-05
-0.000188482
-2.28478e-05
-0.000214671
-1.87842e-05
-0.000241729
-1.37005e-05
-0.000269778
-9.38808e-06
-0.000298735
-5.76917e-06
-0.00032852
-2.23121e-06
-0.000358867
1.54306e-06
-0.000389286
5.81808e-06
-0.000419066
1.06706e-05
-0.000447508
1.62698e-05
-0.000473834
2.24034e-05
-0.000497423
2.91031e-05
-0.000517742
3.63625e-05
-0.00053478
4.47731e-05
-0.000548712
5.44095e-05
-0.000560234
6.55043e-05
-0.000569926
7.75278e-05
-0.000578789
9.03874e-05
-0.000587458
0.000103382
-0.000596955
0.000116368
-0.000607712
0.000128626
-0.000620509
0.00014
-0.00063555
0.000150244
-0.000653442
0.000159335
-0.000674475
0.000167546
-0.00069907
0.000174563
-0.000727804
0.00018148
-0.000760495
0.000187292
-0.000798045
0.000194313
-0.000839018
0.000200484
-0.000885078
0.000210073
-0.000933036
0.000218998
-0.000986339
0.000233898
-0.00103954
0.000246895
-0.00109918
0.000267786
-0.00115668
0.000283792
-0.00122326
0.00031087
-0.00128579
0.000329725
-0.00136167
0.000364743
-0.00143109
0.000386297
-0.00151924
0.000430333
-0.00159778
0.000453086
-0.00170189
0.000505938
-0.00179354
0.000524925
-0.00191931
0.000581804
-0.00203063
0.000588354
-0.00218482
0.000642301
-0.00232251
0.000637757
-0.0025076
0.000693105
-0.00267394
0.000679855
-0.00287972
0.000733551
-0.00306676
0.000717314
-0.00328631
0.000761396
-0.00347899
0.00075831
-0.00369293
0.000749303
-0.00392545
0.000786557
-0.00404959
0.000716772
-0.00438928
0.000736879
-0.00445026
0.000690342
-0.00468279
0.000694397
-0.00505552
0.000341446
-0.00484009
0.000929555
-0.00541499
-0.000461784
-0.00560098
0.000972201
-0.00473546
-0.000613464
-0.00695204
-0.000590809
-0.00417319
0.00160327
-0.00609748
-0.00639797
-0.0077637
0.0145747
0.000110423
-0.0282857
-0.00691967
-0.006291
-0.0167119
0.113166
0.0173598
-0.230277
-0.0156584
0.147968
-0.0478981
0.274827
0.092367
-0.835558
-0.0586466
0.767234
-0.119809
0.499242
0.184843
-1.7735
-0.123285
1.58953
-0.191292
0.708523
0.413757
-3.44826
0.025219
1.58627
-0.543557
3.54912
-0.0188177
-2.40311
0.368837
-2.67726
0.0334592
1.43182
-0.330897
2.22888
-0.359719
0.345323
-0.189049
-0.851355
-0.626666
0.000278966
0.000204402
-0.000267448
0.000299271
0.000207814
0.000307493
0.000212044
0.00031694
0.000214308
0.000324519
0.000214261
0.000328854
0.000210599
0.000330458
0.000202687
0.000330247
0.000193508
0.000330362
0.00018781
0.000332316
0.000187732
0.000335278
0.00019048
0.00033643
0.000191205
0.000333614
0.00018646
0.000326066
0.000176806
0.000313151
0.000163921
0.000294038
0.000147792
0.000268447
0.000127786
0.000237273