/*--------------------------------*- C++ -*----------------------------------*\
| =========                 |                                                 |
| \\      /  F ield         | OpenFOAM: The Open Source CFD Toolbox           |
|  \\    /   O peration     | Version:  2412                                  |
|   \\  /    A nd           | Website:  www.openfoam.com                      |
|    \\/     M anipulation  |                                                 |
\*---------------------------------------------------------------------------*/
FoamFile
{
    version     2.0;
    format      ascii;
    arch        "LSB;label=32;scalar=64";
    class       volScalarField;
    location    "0.745";
    object      p;
}
// * * * * * * * * * * * * * * * * * * * * * * * * * * * * * * * * * * * * * //

dimensions      [0 2 -2 0 0 0 0];

internalField   nonuniform List<scalar> 
12600
(
0.159613
-154.526
-204.624
-201.465
-189.089
-177.575
-167.478
-158.443
-150.256
-142.755
-135.813
-129.335
-123.248
-117.495
-112.031
-106.817
-101.823
-97.0239
-92.3969
-87.9239
-83.589
-79.3782
-75.2797
-71.2829
-67.3784
-63.5581
-59.8145
-56.1411
-52.5319
-48.9815
-45.485
-42.0379
-38.6362
-35.276
-31.9538
-28.6665
-25.4109
-22.1844
-18.9842
-15.808
-12.6533
-9.51802
-6.40006
-3.2975
-0.208426
2.86888
5.93619
8.99503
12.0471
15.0937
18.1364
21.1765
24.2155
27.2543
30.2945
33.3368
36.3828
39.433
42.4888
45.5505
48.6197
51.696
54.7814
57.8746
60.978
64.0897
67.2121
70.3424
73.4839
76.632
79.7909
82.9544
86.1281
89.3029
92.4868
95.6669
98.8547
102.032
105.215
108.38
111.548
114.686
117.826
120.923
124.021
127.059
130.098
133.062
136.026
138.902
141.772
144.549
147.321
149.977
152.659
155.181
157.758
160.21
162.513
165.44
166.18
171.321
171.003
171.959
183.259
171.419
181.237
196.046
172.789
192.433
214.027
171.992
189.613
237.758
228.25
210.066
223.124
250.6
272.295
276.031
-24.0348
-123.697
-171.155
-180.836
-177.686
-171.006
-163.312
-155.593
-148.21
-141.238
-134.663
-128.451
-122.562
-116.959
-111.611
-106.488
-101.566
-96.8238
-92.2432
-87.8078
-83.5035
-79.318
-75.2402
-71.2605
-67.3702
-63.5617
-59.8278
-56.1625
-52.56
-49.0151
-45.5231
-42.0797
-38.681
-35.3232
-32.0029
-28.7171
-25.4626
-22.2369
-19.0373
-15.8613
-12.7067
-9.57141
-6.45328
-3.35043
-0.260971
2.8168
5.88464
8.94407
11.9967
15.044
18.0875
21.1283
24.168
27.2075
30.2485
33.2915
36.3383
39.3892
42.4458
45.5082
48.5782
51.6552
54.7413
57.8353
60.9394
64.0517
67.1749
70.3059
73.448
76.5968
79.7564
82.9206
86.0949
89.2704
92.455
95.6358
98.8242
102.002
105.186
108.351
111.52
114.659
117.8
120.897
123.996
127.035
130.075
133.039
136.003
138.88
141.751
144.529
147.301
149.958
152.641
155.163
157.741
160.195
162.495
165.429
166.161
171.303
171.008
171.915
183.257
171.441
181.149
196.066
172.825
192.289
214.073
172.116
189.423
237.604
228.336
210.112
223.018
250.447
272.204
276.011
-40.8942
-102.334
-145.134
-162.631
-166.008
-163.433
-158.345
-152.244
-145.86
-139.527
-133.385
-127.476
-121.807
-116.369
-111.146
-106.12
-101.274
-96.5929
-92.0608
-87.6647
-83.3923
-79.2328
-75.1764
-71.2144
-67.3387
-63.5421
-59.8183
-56.1613
-52.5656
-49.0264
-45.5392
-42.0997
-38.7041
-35.3489
-32.0307
-28.7465
-25.4934
-22.2686
-19.0697
-15.8943
-12.74
-9.60489
-6.48679
-3.38386
-0.294222
2.7838
5.85196
8.91177
11.9649
15.0126
18.0565
21.0978
24.1381
27.1781
30.2196
33.2633
36.3106
39.362
42.4192
45.4822
48.5527
51.6303
54.7169
57.8114
60.916
64.0289
67.1525
70.2841
73.4267
76.576
79.7361
82.9007
86.0756
89.2515
92.4365
95.6178
98.8067
101.985
105.17
108.335
111.504
114.644
117.785
120.883
123.982
127.021
130.062
133.026
135.991
138.869
141.74
144.518
147.291
149.948
152.632
155.154
157.732
160.187
162.487
165.424
166.151
171.295
171.011
171.893
183.258
171.454
181.103
196.081
172.844
192.213
214.106
172.184
189.327
237.523
228.382
210.138
222.968
250.372
272.158
276
-48.8634
-88.6591
-124.09
-144.636
-152.889
-154.233
-151.978
-147.812
-142.713
-137.241
-131.684
-126.186
-120.812
-115.592
-110.533
-105.633
-100.886
-96.2827
-91.813
-87.4672
-83.2358
-79.1099
-75.0812
-71.142
-67.2853
-63.5046
-59.794
-56.148
-52.5616
-49.0301
-45.5493
-42.1153
-38.7242
-35.3728
-32.0577
-28.7761
-25.525
-22.302
-19.1044
-15.9301
-12.7766
-9.64209
-6.52441
-3.42175
-0.332243
2.74576
5.814
8.87397
11.9273
14.9753
18.0196
21.0613
24.1019
27.1424
30.1844
33.2285
36.2763
39.3282
42.3859
45.4494
48.5204
51.5985
54.6856
57.7807
60.8858
63.9992
67.1234
70.2554
73.3985
76.5483
79.709
82.8741
86.0495
89.2259
92.4114
95.5932
98.7826
101.962
105.147
108.313
111.483
114.622
117.764
120.863
123.962
127.002
130.043
133.008
135.974
138.851
141.724
144.502
147.276
149.933
152.617
155.14
157.719
160.174
162.472
165.416
166.135
171.282
171.013
171.857
183.261
171.466
181.033
196.106
172.861
192.099
214.158
172.262
189.149
237.416
228.461
210.161
222.868
250.25
272.092
275.988
-53.9667
-80.4635
-107.385
-127.072
-138.212
-143.007
-143.683
-141.772
-138.312
-134.001
-129.266
-124.354
-119.405
-114.497
-109.672
-104.951
-100.342
-95.8468
-91.463
-87.1859
-83.0102
-78.9296
-74.9381
-71.0296
-67.1983
-63.4388
-59.7458
-56.1146
-52.5406
-49.0196
-45.5476
-42.1208
-38.7359
-35.3897
-32.0789
-28.8009
-25.5528
-22.3322
-19.1367
-15.9639
-12.8118
-9.67826
-6.56135
-3.45924
-0.370115
2.70767
5.77581
8.8358
11.8892
14.9374
17.982
21.024
24.065
27.1059
30.1483
33.1929
36.2412
39.2937
42.3519
45.4159
48.4874
51.5661
54.6538
57.7494
60.8551
63.969
67.0938
70.2264
73.37
76.5204
79.6816
82.8473
86.0232
89.2002
92.3863
95.5686
98.7586
101.938
105.124
108.29
111.461
114.601
117.744
120.843
123.942
126.983
130.025
132.991
135.957
138.835
141.708
144.487
147.261
149.919
152.603
155.127
157.706
160.162
162.46
165.407
166.121
171.271
171.014
171.824
183.267
171.475
180.965
196.131
172.872
191.989
214.22
172.33
188.989
237.316
228.538
210.178
222.782
250.136
272.031
275.977
-57.3049
-75.4627
-95.082
-111.974
-123.833
-130.78
-133.861
-134.136
-132.486
-129.58
-125.901
-121.774
-117.41
-112.942
-108.449
-103.982
-99.5689
-95.2269
-90.964
-86.7832
-82.6849
-78.667
-74.7266
-70.8602
-67.0636
-63.3328
-59.6639
-56.0527
-52.4955
-48.9885
-45.5284
-42.1116
-38.7352
-35.396
-32.0912
-28.8182
-25.5743
-22.3572
-19.1646
-15.9943
-12.8441
-9.71219
-6.59657
-3.49547
-0.407115
2.6701
5.73785
8.79758
11.8509
14.8991
17.9437
20.9859
24.0271
27.0684
30.1111
33.1561
36.2048
39.2577
42.3164
45.3809
48.4529
51.5321
54.6203
57.7164
60.8227
63.9372
67.0625
70.1956
73.3398
76.4907
79.6525
82.8188
85.9953
89.1728
92.3595
95.5424
98.733
101.913
105.099
108.266
111.437
114.578
117.721
120.821
123.922
126.963
130.005
132.972
135.938
138.817
141.69
144.47
147.245
149.903
152.588
155.113
157.692
160.149
162.445
165.398
166.104
171.26
171.015
171.786
183.276
171.48
180.89
196.177
172.875
191.867
214.292
172.385
188.784
237.213
228.63
210.186
222.655
250.008
271.967
275.967
-58.9749
-71.9998
-86.3381
-100.046
-111.145
-118.874
-123.451
-125.441
-125.439
-123.976
-121.483
-118.3
-114.675
-110.779
-106.732
-102.612
-98.4708
-94.343
-90.2499
-86.2048
-82.2153
-78.2856
-74.4169
-70.6091
-66.8607
-63.1699
-59.5341
-55.9505
-52.4164
-48.9289
-45.485
-42.082
-38.7171
-35.3877
-32.0912
-28.8251
-25.5872
-22.375
-19.1866
-16.0197
-12.8725
-9.74293
-6.62928
-3.5298
-0.442738
2.63345
5.70042
8.75957
11.8125
14.8604
17.9049
20.9471
23.9884
27.0297
30.0727
33.118
36.167
39.2203
42.2794
45.3443
48.4168
51.4965
54.5852
57.6819
60.7886
63.9036
67.0295
70.1632
73.308
76.4595
79.6218
82.7887
85.9657
89.1439
92.3311
95.5146
98.7058
101.887
105.073
108.241
111.413
114.554
117.698
120.798
123.899
126.942
129.984
132.951
135.919
138.798
141.672
144.453
147.228
149.887
152.573
155.098
157.677
160.135
162.43
165.389
166.085
171.25
171.014
171.746
183.289
171.48
180.81
196.22
172.869
191.735
214.383
172.423
188.559
237.111
228.731
210.182
222.527
249.871
271.901
275.958
-59.482
-69.2583
-79.9906
-90.8522
-100.516
-108.08
-113.318
-116.411
-117.68
-117.475
-116.131
-113.938
-111.139
-107.92
-104.42
-100.74
-96.952
-93.1083
-89.2441
-85.3839
-81.5445
-77.7368
-73.9679
-70.2419
-66.5609
-62.9258
-59.3362
-55.7912
-52.2893
-48.8287
-45.4075
-42.0235
-38.6747
-35.3589
-32.0738
-28.8175
-25.5877
-22.3825
-19.1999
-16.038
-12.8949
-9.76888
-6.65814
-3.56107
-0.476
2.59857
5.66423
8.72234
11.7745
14.8218
17.8659
20.9077
23.9489
26.9903
30.0333
33.0787
36.1279
39.1815
42.2409
45.3062
48.3792
51.4593
54.5484
57.6456
60.7529
63.8684
66.9948
70.1291
73.2744
76.4265
79.5894
82.7568
85.9345
89.1133
92.3012
95.4853
98.6771
101.859
105.046
108.214
111.387
114.529
117.673
120.774
123.876
126.919
129.962
132.93
135.898
138.778
141.653
144.434
147.21
149.87
152.556
155.081
157.662
160.121
162.415
165.378
166.066
171.24
171.011
171.702
183.306
171.475
180.723
196.277
172.851
191.592
214.503
172.438
188.294
237.008
228.845
210.164
222.372
249.72
271.832
275.95
-59.2727
-66.8482
-75.0942
-83.6642
-91.7689
-98.6657
-103.973
-107.628
-109.741
-110.505
-110.14
-108.868
-106.891
-104.384
-101.489
-98.3166
-94.9508
-91.4559
-87.8795
-84.2567
-80.6131
-76.9672
-73.332
-69.7168
-66.1279
-62.5693
-59.0435
-55.5518
-52.0945
-48.6714
-45.2816
-41.9242
-38.5978
-35.3008
-32.0318
-28.789
-25.5707
-22.3753
-19.2009
-16.046
-12.9088
-9.78776
-6.68122
-3.58767
-0.505536
2.56659
5.63024
8.68671
11.7375
14.7838
17.827
20.8683
23.9091
26.9501
29.993
33.0384
36.0877
39.1414
42.201
45.2666
48.3399
51.4204
54.51
57.6076
60.7153
63.8314
66.9583
70.0931
73.239
76.3917
79.5552
82.7232
85.9015
89.0809
92.2695
95.4542
98.6467
101.829
105.017
108.186
111.359
114.502
117.647
120.749
123.851
126.895
129.939
132.908
135.876
138.757
141.633
144.415
147.191
149.852
152.538
155.065
157.645
160.105
162.399
165.367
166.044
171.232
171.007
171.655
183.329
171.462
180.628
196.346
172.818
191.434
214.646
172.426
187.988
236.907
228.971
210.129
222.195
249.556
271.758
275.942
-58.5902
-64.5761
-71.0531
-77.865
-84.5541
-90.5928
-95.6061
-99.4201
-102.01
-103.442
-103.839
-103.346
-102.116
-100.294
-98.009
-95.3698
-92.4644
-89.3631
-86.1211
-82.7812
-79.3762
-75.9313
-72.4653
-68.9926
-65.5235
-62.0658
-58.625
-55.2049
-51.808
-48.4358
-45.0892
-41.7683
-38.4728
-35.202
-31.9552
-28.7313
-25.529
-22.3471
-19.1843
-16.0392
-12.9104
-9.79638
-6.69581
-3.60731
-0.529438
2.53911
5.59977
8.65377
11.7025
14.7471
17.7891
20.8293
23.8692
26.9096
29.9521
32.9971
36.0463
39.1
42.1597
45.2255
48.299
51.3798
54.4697
57.5677
60.6759
63.7924
66.9198
70.0552
73.2017
76.3549
79.5191
82.6877
85.8667
89.0467
92.2359
95.4214
98.6146
101.797
104.986
108.156
111.33
114.474
117.619
120.722
123.825
126.869
129.914
132.884
135.853
138.735
141.611
144.394
147.171
149.832
152.52
155.047
157.628
160.088
162.382
165.355
166.021
171.22
171
171.604
183.36
171.441
180.524
196.43
172.769
191.26
214.815
172.383
187.632
236.811
229.111
210.076
221.991
249.375
271.679
275.934
-57.5643
-62.3576
-67.5351
-73.0141
-78.5144
-83.682
-88.216
-91.9209
-94.7018
-96.5425
-97.4847
-97.6087
-97.0138
-95.8084
-94.0995
-91.9841
-89.5467
-86.8582
-83.9771
-80.9506
-77.8164
-74.6048
-71.3392
-68.0382
-64.7161
-61.3842
-58.0509
-54.7226
-51.4041
-48.0988
-44.8093
-41.5371
-38.2831
-35.0478
-31.8312
-28.6331
-25.4529
-22.2898
-19.143
-16.0116
-12.8943
-9.79028
-6.69815
-3.61681
-0.545011
2.51841
5.57474
8.6251
11.6708
14.7129
17.7527
20.7913
23.8298
26.8692
29.9108
32.9553
36.004
39.0574
42.117
45.1828
48.2563
51.3373
54.4275
57.5258
60.6344
63.7514
66.8793
70.0151
73.1622
76.316
79.4808
82.65
85.8297
89.0104
92.2003
95.3865
98.5804
101.764
104.954
108.124
111.299
114.443
117.59
120.693
123.797
126.843
129.888
132.858
135.829
138.711
141.588
144.372
147.15
149.812
152.5
155.028
157.609
160.07
162.364
165.342
165.995
171.213
170.99
171.548
183.399
171.41
180.411
196.531
172.701
191.069
215.02
172.305
187.219
236.721
229.266
210.002
221.759
249.176
271.591
275.925
-56.2738
-60.1535
-64.3519
-68.8118
-73.3447
-77.7156
-81.7063
-85.1452
-87.9156
-89.9555
-91.252
-91.8323
-91.7498
-91.0744
-89.885
-88.2611
-86.2776
-84.001
-81.4892
-78.7909
-75.9466
-72.9897
-69.9473
-66.8412
-63.6891
-60.5049
-57.2999
-54.0829
-50.8608
-47.6389
-44.4215
-41.2114
-38.0111
-34.8221
-31.6454
-28.4815
-25.3307
-22.193
-19.068
-15.9552
-12.854
-9.76357
-6.68316
-3.61183
-0.548556
2.5076
5.55777
8.60291
11.6442
14.6826
17.7194
20.7553
23.7918
26.8294
29.8697
32.9131
35.961
39.0138
42.073
45.1385
48.212
51.2929
54.3832
57.4818
60.5907
63.708
66.8364
69.9727
73.1203
76.2747
79.4401
82.61
85.7903
88.9717
92.1624
95.3493
98.5441
101.728
104.919
108.09
111.266
114.411
117.559
120.663
123.768
126.814
129.861
132.832
135.803
138.686
141.564
144.349
147.127
149.79
152.479
155.008
157.59
160.051
162.346
165.329
165.967
171.207
170.978
171.486
183.447
171.367
180.287
196.651
172.61
190.858
215.263
172.191
186.743
236.64
229.44
209.909
221.499
248.956
271.493
275.914
-54.7791
-57.9483
-61.3904
-65.0581
-68.8118
-72.4917
-75.9473
-79.0452
-81.6754
-83.7586
-85.2505
-86.1413
-86.4485
-86.2079
-85.4695
-84.2914
-82.7341
-80.8557
-78.7096
-76.3432
-73.7977
-71.1078
-68.3031
-65.408
-62.4425
-59.4231
-56.3634
-53.2742
-50.1644
-47.0412
-43.91
-40.7756
-37.6413
-34.5098
-31.3833
-28.2631
-25.1503
-22.0455
-18.949
-15.8609
-12.781
-9.70902
-6.64448
-3.58681
-0.535261
2.51084
5.55241
8.59021
11.6253
14.6584
17.6907
20.7229
23.7562
26.7913
29.8294
32.8711
35.9176
38.9694
42.0277
45.0926
48.1658
51.2465
54.3368
57.4354
60.5445
63.6621
66.7908
69.9276
73.0757
76.2306
79.3966
82.5672
85.7483
88.9304
92.1219
95.3096
98.5053
101.69
104.882
108.054
111.231
114.377
117.526
120.631
123.737
126.784
129.831
132.803
135.776
138.66
141.539
144.324
147.104
149.768
152.457
154.987
157.569
160.031
162.327
165.314
165.937
171.203
170.962
171.42
183.506
171.311
180.151
196.794
172.494
190.626
215.548
172.04
186.198
236.572
229.633
209.798
221.209
248.715
271.381
275.9
-53.1309
-55.7362
-58.5808
-61.622
-64.7475
-67.8435
-70.8079
-73.5442
-75.961
-77.9799
-79.5439
-80.6211
-81.2033
-81.3007
-80.9375
-80.1498
-78.9812
-77.4778
-75.6855
-73.6474
-71.4026
-68.9861
-66.4282
-63.7547
-60.9878
-58.1458
-55.2443
-52.296
-49.3115
-46.2995
-43.267
-40.22
-37.163
-34.0999
-31.0336
-27.9665
-24.9003
-21.8365
-18.7758
-15.7191
-12.6667
-9.61863
-6.57487
-3.53526
-0.499358
2.53321
5.56311
8.59087
11.6173
14.6431
17.6691
20.6959
23.7248
26.756
29.791
32.8301
35.8745
38.9245
41.9815
45.0454
48.1177
51.198
54.2879
57.3863
60.4954
63.6132
66.7422
69.8793
73.0279
76.1833
79.35
82.5213
85.7031
88.886
92.0784
95.2669
98.4635
101.65
104.842
108.015
111.193
114.34
117.49
120.596
123.703
126.751
129.8
132.773
135.746
138.632
141.512
144.298
147.079
149.743
152.433
154.964
157.548
160.009
162.308
165.298
165.902
171.203
170.942
171.347
183.577
171.241
180.002
196.96
172.35
190.372
215.879
171.853
185.581
236.519
229.846
209.671
220.898
248.447
271.251
275.88
-51.3578
-53.5097
-55.8753
-58.4146
-61.0309
-63.6389
-66.1695
-68.5557
-70.7269
-72.6149
-74.1617
-75.3257
-76.0832
-76.4264
-76.3602
-75.9008
-75.0748
-73.9148
-72.4565
-70.7364
-68.7894
-66.6481
-64.3422
-61.8981
-59.3388
-56.6841
-53.9511
-51.1542
-48.3055
-45.4151
-42.4916
-39.542
-36.5721
-33.5867
-30.5897
-27.5842
-24.5729
-21.5578
-18.5403
-15.5218
-12.5031
-9.48474
-6.46713
-3.45046
-0.434659
2.58035
5.59496
8.60941
11.6243
14.6401
17.6576
20.677
23.6996
26.7255
29.756
32.7912
35.8325
38.8799
41.9348
44.997
48.068
51.1472
54.2364
57.3344
60.4433
63.5609
66.69
69.8274
72.9764
76.1323
79.2996
82.4715
85.6541
88.8378
92.0311
95.2206
98.4183
101.605
104.799
107.973
111.152
114.301
117.452
120.559
123.667
126.717
129.767
132.741
135.715
138.602
141.483
144.27
147.052
149.718
152.409
154.941
157.525
159.986
162.287
165.28
165.868
171.203
170.917
171.268
183.662
171.154
179.841
197.153
172.176
190.096
216.256
171.635
184.894
236.482
230.081
209.533
220.568
248.155
271.098
275.851
-49.4809
-51.2648
-53.2422
-55.3744
-57.5751
-59.7766
-61.9318
-63.9957
-65.9163
-67.638
-69.1085
-70.2848
-71.1359
-71.6429
-71.7979
-71.6021
-71.0666
-70.2107
-69.0591
-67.6397
-65.9812
-64.1123
-62.0603
-59.8506
-57.5059
-55.0469
-52.4915
-49.8553
-47.1517
-44.3922
-41.5866
-38.7432
-35.8688
-32.9693
-30.0494
-27.1133
-24.1641
-21.2047
-18.2371
-15.2631
-12.2842
-9.30129
-6.31518
-3.32648
-0.335425
2.65772
5.65305
8.65057
11.6507
14.6535
17.6596
20.6693
23.6834
26.702
29.7262
32.7561
35.7929
38.8365
41.8883
44.9479
48.0168
51.0944
54.1824
57.2794
60.3876
63.5049
66.6339
69.7713
72.9205
76.0768
79.2446
82.4172
85.6005
88.7851
91.9794
95.1699
98.3687
101.557
104.752
107.927
111.108
114.257
117.41
120.519
123.628
126.679
129.73
132.706
135.682
138.57
141.452
144.241
147.024
149.691
152.382
154.916
157.5
159.962
162.266
165.261
165.83
171.205
170.888
171.182
183.759
171.05
179.664
197.373
171.972
189.794
216.681
171.395
184.137
236.464
230.328
209.398
220.226
247.838
270.915
275.81
-47.5172
-49.0002
-50.6594
-52.4581
-54.3167
-56.1793
-58.0132
-59.7891
-61.4698
-63.0119
-64.3712
-65.5079
-66.3897
-66.9924
-67.3004
-67.3048
-67.0052
-66.4088
-65.5298
-64.3867
-63.0012
-61.3962
-59.5954
-57.6214
-55.4961
-53.2394
-50.8694
-48.4025
-45.8529
-43.2332
-40.5542
-37.8253
-35.0544
-32.2484
-29.413
-26.5531
-23.6728
-20.7754
-17.8638
-14.9402
-12.0066
-9.06443
-6.11489
-3.15895
-0.197196
2.76978
5.74182
8.71863
11.7004
14.6869
17.6788
20.6759
23.679
26.6881
29.704
32.7267
35.7574
38.7957
41.843
44.8989
47.9648
51.0398
54.1258
57.2212
60.3283
63.4447
66.5731
69.7103
72.8595
76.016
79.1843
82.3573
85.5415
88.7269
91.9222
95.1138
98.3139
101.503
104.7
107.877
111.058
114.21
117.364
120.474
123.586
126.638
129.691
132.668
135.646
138.535
141.419
144.209
146.993
149.662
152.354
154.889
157.474
159.936
162.244
165.24
165.789
171.21
170.852
171.095
183.866
170.93
179.478
197.619
171.736
189.471
217.147
171.146
183.326
236.455
230.593
209.265
219.883
247.497
270.698
275.753
-45.48
-46.7149
-48.1113
-49.6341
-51.2092
-52.7883
-54.3486
-55.8715
-57.3312
-58.6945
-59.9256
-60.9899
-61.8572
-62.5022
-62.9053
-63.0525
-62.9351
-62.5514
-61.9061
-61.0091
-59.8745
-58.519
-56.9611
-55.2201
-53.3151
-51.2647
-49.0863
-46.7961
-44.4087
-41.9374
-39.3936
-36.7876
-34.1284
-31.4238
-28.6802
-25.9035
-23.0985
-20.2694
-17.4195
-14.5518
-11.6687
-8.77224
-5.86397
-2.94529
-0.0171214
2.91962
5.86448
8.81689
11.7768
14.7439
17.7184
20.7
23.6895
26.6864
29.6918
32.7052
35.7278
38.7591
41.8004
44.8511
47.9126
50.984
54.067
57.1599
60.2651
63.38
66.5074
69.6438
72.7927
75.9491
79.1176
82.291
85.4758
88.662
91.8584
95.0511
98.2526
101.444
104.641
107.82
111.004
114.157
117.313
120.425
123.538
126.592
129.647
132.627
135.606
138.497
141.383
144.174
146.96
149.631
152.323
154.861
157.446
159.908
162.22
165.218
165.744
171.217
170.811
171
183.984
170.794
179.281
197.886
171.476
189.132
217.645
170.908
182.478
236.449
230.865
209.147
219.55
247.132
270.436
275.673
-43.3797
-44.4087
-45.5863
-46.8792
-48.2175
-49.5588
-50.8864
-52.1893
-53.4502
-54.6439
-55.7419
-56.7155
-57.5381
-58.1858
-58.6382
-58.8788
-58.8945
-58.6775
-58.2252
-57.5402
-56.6293
-55.5031
-54.1745
-52.6584
-50.9704
-49.1268
-47.1434
-45.0355
-42.8172
-40.5019
-38.1016
-35.627
-33.0878
-30.4925
-27.8485
-25.1623
-22.4395
-19.6849
-16.9028
-14.0966
-11.2693
-8.42343
-5.56106
-2.68398
0.206491
3.10909
6.02307
8.94757
11.8823
14.8267
17.7807
20.7441
23.7171
26.6995
29.6918
32.6937
35.7061
38.7284
41.7619
44.8058
47.8615
50.9278
54.0066
57.096
60.1982
63.3108
66.4364
69.5714
72.7194
75.8752
79.0436
82.2171
85.4024
88.5892
91.7866
94.9804
98.1833
101.376
104.575
107.756
110.941
114.096
117.255
120.369
123.485
126.541
129.599
132.58
135.562
138.456
141.343
144.137
146.924
149.597
152.29
154.831
157.416
159.879
162.195
165.194
165.698
171.224
170.767
170.902
184.112
170.644
179.072
198.173
171.199
188.773
218.163
170.701
181.609
236.434
231.134
209.058
219.244
246.748
270.121
275.564
-41.2246
-42.0819
-43.0762
-44.176
-45.3155
-46.4562
-47.5859
-48.6987
-49.7832
-50.8206
-51.7885
-52.6636
-53.4232
-54.0463
-54.5134
-54.8075
-54.914
-54.8213
-54.5221
-54.0133
-53.2958
-52.3743
-51.2564
-49.9521
-48.4732
-46.8327
-45.0441
-43.121
-41.0767
-38.9237
-36.6741
-34.3386
-31.9275
-29.4496
-26.913
-24.325
-21.6916
-19.0186
-16.3107
-13.572
-10.806
-8.01599
-5.20434
-2.37338
0.475195
3.33972
6.21914
9.11225
12.0185
14.9371
17.8678
20.81
23.764
26.7292
29.706
32.6941
35.6941
38.7054
41.7292
44.7645
47.8126
50.8724
53.9455
57.03
60.1282
63.2373
66.3601
69.4929
72.6393
75.7938
78.9615
82.1346
85.32
88.5072
91.7054
94.9002
98.1045
101.298
104.5
107.682
110.87
114.028
117.189
120.305
123.424
126.483
129.544
132.528
135.512
138.409
141.299
144.095
146.884
149.56
152.254
154.798
157.383
159.848
162.167
165.168
165.65
171.229
170.721
170.799
184.244
170.485
178.856
198.473
170.913
188.402
218.688
170.537
180.741
236.392
231.385
209.012
218.98
246.347
269.745
275.418
-39.0215
-39.7349
-40.5748
-41.5116
-42.4831
-43.454
-44.4151
-45.3639
-46.2934
-47.1897
-48.0349
-48.8105
-49.4977
-50.0786
-50.5357
-50.8528
-51.0153
-51.0102
-50.8273
-50.4598
-49.9041
-49.16
-48.2302
-47.1204
-45.8381
-44.3927
-42.7949
-41.0559
-39.1874
-37.2008
-35.1073
-32.9177
-30.6419
-28.2891
-25.8678
-23.3856
-20.8493
-18.265
-15.6381
-12.9734
-10.2749
-7.54637
-4.79072
-2.01075
0.791392
3.61365
6.45459
9.31269
12.1871
15.0767
17.9811
20.8993
23.8316
26.7771
29.7361
32.708
35.6935
38.6918
41.7038
44.7286
47.7674
50.8189
53.8848
56.9629
60.0556
63.16
66.279
69.4084
72.5522
75.7046
78.8708
82.0429
85.2278
88.4149
91.6136
94.809
98.0146
101.21
104.414
107.598
110.788
113.948
117.112
120.232
123.354
126.416
129.48
132.468
135.455
138.355
141.248
144.048
146.84
149.519
152.215
154.763
157.347
159.816
162.137
165.141
165.601
171.23
170.676
170.695
184.374
170.328
178.637
198.772
170.637
188.022
219.192
170.444
179.899
236.299
231.604
209.034
218.781
245.938
269.297
275.226
-36.7761
-37.3685
-38.0777
-38.876
-39.7048
-40.5314
-41.3485
-42.1561
-42.9502
-43.7204
-44.4528
-45.1323
-45.7439
-46.2725
-46.703
-47.0209
-47.2124
-47.2644
-47.1658
-46.9073
-46.4825
-45.8876
-45.1214
-44.1854
-43.0834
-41.8211
-40.406
-38.8467
-37.1526
-35.3336
-33.3996
-31.3606
-29.2261
-27.0052
-24.7064
-22.3374
-19.9056
-17.4175
-14.8788
-12.2949
-9.67043
-7.00947
-4.31555
-1.59195
1.15879
3.93416
6.73236
9.55147
12.3904
15.2475
18.1224
21.0138
23.9216
26.8448
29.7836
32.737
35.7058
38.6889
41.6873
44.6996
47.7274
50.7688
53.8258
56.896
59.9818
63.08
66.1936
69.3185
72.4585
75.6077
78.7714
81.9416
85.1253
88.3115
91.5101
94.7058
97.9122
101.109
104.314
107.5
110.693
113.856
117.023
120.146
123.272
126.338
129.406
132.398
135.389
138.293
141.191
143.994
146.79
149.473
152.171
154.724
157.308
159.783
162.103
165.113
165.554
171.224
170.636
170.593
184.493
170.186
178.418
199.053
170.399
187.642
219.645
170.446
179.111
236.125
231.774
209.135
218.671
245.525
268.771
274.979
-34.4932
-34.9835
-35.5816
-36.2617
-36.9687
-37.672
-38.3659
-39.052
-39.7281
-40.3867
-41.0168
-41.6064
-42.1432
-42.6147
-43.0085
-43.3118
-43.5121
-43.5972
-43.556
-43.3783
-43.0559
-42.5828
-41.9548
-41.1703
-40.2295
-39.1351
-37.8912
-36.5035
-34.9791
-33.3258
-31.5519
-29.6661
-27.6771
-25.5933
-23.4231
-21.1742
-18.854
-16.4691
-14.0258
-11.5297
-8.98593
-6.39904
-3.773
-1.11154
1.58237
4.30578
7.05653
9.83228
12.6316
15.4527
18.2946
21.1559
24.0362
26.9343
29.8502
32.7828
35.7326
38.6984
41.681
44.679
47.6938
50.7235
53.7699
56.8305
59.9078
62.9984
66.1053
69.2242
72.3591
75.5039
78.664
81.8312
85.0126
88.1971
91.3947
94.5898
97.7966
100.994
104.201
107.388
110.584
113.749
116.92
120.046
123.176
126.246
129.319
132.316
135.312
138.221
141.124
143.932
146.732
149.421
152.121
154.682
157.265
159.749
162.064
165.085
165.511
171.208
170.608
170.495
184.588
170.079
178.207
199.291
170.231
187.267
220.003
170.573
178.407
235.836
231.878
209.35
218.677
245.121
268.159
274.668
-32.1769
-32.5808
-33.0842
-33.663
-34.2655
-34.8633
-35.4514
-36.0326
-36.6062
-37.1666
-37.705
-38.2119
-38.6772
-39.0908
-39.4424
-39.7211
-39.9159
-40.016
-40.0106
-39.89
-39.645
-39.2684
-38.7541
-38.0982
-37.2982
-36.354
-35.2667
-34.0396
-32.6769
-31.1843
-29.5681
-27.8355
-25.9938
-24.0507
-22.0138
-19.8906
-17.6881
-15.4131
-13.072
-10.6706
-8.21437
-5.70819
-3.15642
-0.563219
2.06807
4.73405
7.43222
10.1598
12.9151
15.6959
18.501
21.3286
24.1782
27.0481
29.9384
32.8475
35.7759
38.722
41.6868
44.6684
47.6684
50.6845
53.7186
56.768
59.8352
62.9166
66.0154
69.1269
72.2553
75.3944
78.5496
81.7125
84.8905
88.0721
91.2677
94.4614
97.6677
100.865
104.072
107.261
110.459
113.626
116.801
119.93
123.065
126.14
129.217
132.219
135.222
138.137
141.045
143.86
146.666
149.362
152.065
154.635
157.217
159.715
162.022
165.056
165.475
171.175
170.6
170.406
184.644
170.029
178.007
199.459
170.172
186.899
220.217
170.868
177.832
235.393
231.906
209.744
218.833
244.734
267.458
274.284
-29.8307
-30.1614
-30.5837
-31.0754
-31.588
-32.095
-32.5922
-33.0827
-33.5672
-34.0414
-34.4984
-34.9302
-35.3288
-35.686
-35.9933
-36.2415
-36.4213
-36.5231
-36.5372
-36.4544
-36.2657
-35.9632
-35.5401
-34.9906
-34.3107
-33.4978
-32.5509
-31.4706
-30.2588
-28.9189
-27.4552
-25.873
-24.1781
-22.377
-20.4764
-18.4828
-16.4031
-14.2438
-12.0111
-9.7109
-7.34873
-4.92984
-2.45882
0.0598407
2.62245
5.22523
7.86534
10.5396
13.2461
15.982
18.7461
21.5361
24.3513
27.1897
30.0512
32.9339
35.8382
38.7622
41.7067
44.6699
47.6529
50.6535
53.6736
56.7101
59.7656
62.8363
65.9254
69.0281
72.1486
75.2806
78.4296
81.5869
84.7603
87.9379
91.1304
94.3215
97.5262
100.722
103.93
107.119
110.318
113.487
116.665
119.798
122.937
126.016
129.099
132.107
135.116
138.038
140.954
143.776
146.588
149.294
152.001
154.584
157.164
159.681
161.974
165.03
165.453
171.12
170.622
170.329
184.642
170.066
177.818
199.521
170.267
186.536
220.23
171.391
177.453
234.755
231.83
210.305
219.169
244.378
266.67
273.822
-27.4579
-27.7264
-28.0791
-28.4956
-28.9305
-29.3592
-29.7779
-30.1902
-30.5972
-30.996
-31.3808
-31.7452
-32.0826
-32.3863
-32.6494
-32.8643
-33.0231
-33.1174
-33.1389
-33.0789
-32.9293
-32.682
-32.3299
-31.8666
-31.2868
-30.5864
-29.7625
-28.8137
-27.7399
-26.5423
-25.2231
-23.7859
-22.2347
-20.5745
-18.8108
-16.9493
-14.9959
-12.9568
-10.8376
-8.6444
-6.38244
-4.05714
-1.6732
0.764609
3.25238
5.78598
8.3623
10.9778
13.6302
16.3164
19.0349
21.783
24.5598
27.363
30.1922
33.0453
35.9225
38.8216
41.7434
44.6856
47.6496
50.6327
53.6367
56.6585
59.7006
62.759
65.837
68.9294
72.0407
75.1642
78.3057
81.4562
84.6237
87.796
90.9842
94.1716
97.3736
100.567
103.774
106.963
110.163
113.333
116.513
119.648
122.792
125.875
128.964
131.978
134.994
137.924
140.848
143.68
146.499
149.217
151.929
154.528
157.106
159.65
161.921
165.007
165.449
171.037
170.69
170.269
184.563
170.227
177.639
199.442
170.569
186.18
219.981
172.226
177.364
233.88
231.681
211.072
219.711
244.064
265.801
273.278
-25.0613
-25.2768
-25.5697
-25.9211
-26.2887
-26.6496
-27.0005
-27.3449
-27.6847
-28.0174
-28.3386
-28.6428
-28.9246
-29.1787
-29.3993
-29.5801
-29.7145
-29.7954
-29.8155
-29.7672
-29.643
-29.4354
-29.1374
-28.7423
-28.2442
-27.638
-26.9198
-26.0866
-25.1364
-24.0688
-22.8841
-21.5839
-20.1708
-18.6481
-17.0198
-15.2905
-13.4653
-11.5492
-9.54772
-7.4662
-5.30981
-3.08384
-0.792971
1.55789
3.96472
6.42312
8.92978
11.4808
14.0737
16.705
19.373
22.0746
24.8086
27.5725
30.3656
33.1855
36.0324
38.9035
41.7998
44.7185
47.661
50.6243
53.6102
56.6154
59.6423
62.6867
65.7519
68.8326
71.9332
75.0469
78.1795
81.322
84.4823
87.6482
90.8309
94.0136
97.2118
100.402
103.607
106.794
109.994
113.165
116.346
119.484
122.63
125.718
128.813
131.833
134.856
137.794
140.726
143.569
146.397
149.129
151.847
154.467
157.041
159.622
161.865
164.989
165.475
170.918
170.815
170.232
184.385
170.556
177.47
199.191
171.146
185.851
219.417
173.463
177.682
232.74
231.391
212.064
220.475
243.801
264.866
272.656
-22.6435
-22.8139
-23.0552
-23.3501
-23.6592
-23.9613
-24.2534
-24.539
-24.8202
-25.0952
-25.3604
-25.6111
-25.8429
-26.0515
-26.2321
-26.3795
-26.4881
-26.552
-26.5648
-26.5201
-26.4109
-26.2306
-25.9726
-25.6302
-25.1975
-24.6691
-24.04
-23.3063
-22.465
-21.5139
-20.4519
-19.2791
-17.9963
-16.6053
-15.1087
-13.5098
-11.8123
-10.0206
-8.13916
-6.17285
-4.12632
-2.00461
0.187801
2.44604
4.76608
7.14338
9.5745
12.0553
14.5831
17.1541
19.7664
22.4165
25.1031
27.8232
30.5762
33.3591
36.1719
39.0118
41.8794
44.7717
47.69
50.6309
53.5965
56.5829
59.5926
62.6212
65.672
68.7394
71.8278
74.9303
78.0527
81.1859
84.3379
87.4963
90.6724
93.8492
97.0426
100.229
103.431
106.616
109.814
112.984
116.166
119.306
122.455
125.547
128.646
131.673
134.703
137.65
140.591
143.446
146.283
149.032
151.755
154.402
156.971
159.597
161.807
164.975
165.539
170.759
171.011
170.234
184.094
171.098
177.328
198.747
172.071
185.59
218.503
175.184
178.523
231.333
231.001
213.269
221.452
243.596
263.881
271.961
-20.2069
-20.3389
-20.5356
-20.7813
-21.0395
-21.2905
-21.5314
-21.7659
-21.9961
-22.2207
-22.4366
-22.64
-22.8272
-22.9944
-23.138
-23.2534
-23.3362
-23.3812
-23.3831
-23.3361
-23.2343
-23.0718
-22.8424
-22.54
-22.1588
-21.6932
-21.1381
-20.4888
-19.7416
-18.8932
-17.9414
-16.8848
-15.7228
-14.4559
-13.0851
-11.6125
-10.0405
-8.3725
-6.61185
-4.76269
-2.82903
-0.81543
1.27402
3.43463
5.66251
7.95312
10.303
12.7079
15.1649
17.6701
20.2213
22.8148
25.4491
28.1208
30.8292
33.5708
36.3457
39.1506
41.9861
44.8487
47.7399
50.6558
53.5984
56.5636
59.554
62.5648
65.5993
68.6517
71.7263
74.8161
77.9269
81.0495
84.1919
87.3417
90.51
93.6802
96.8677
100.049
103.247
106.429
109.625
112.794
115.976
119.117
122.268
125.363
128.467
131.5
134.536
137.493
140.442
143.311
146.156
148.927
151.654
154.335
156.895
159.577
161.754
164.964
165.65
170.556
171.279
170.303
183.685
171.883
177.252
198.111
173.392
185.457
217.24
177.411
179.959
229.687
230.496
214.661
222.611
243.45
262.868
271.203
-17.7538
-17.853
-18.0112
-18.214
-18.4277
-18.6341
-18.8306
-19.0206
-19.2063
-19.3868
-19.5595
-19.721
-19.8684
-19.9985
-20.1081
-20.1937
-20.2514
-20.2769
-20.2656
-20.2126
-20.1127
-19.9607
-19.7511
-19.4784
-19.137
-18.7215
-18.2269
-17.6482
-16.9811
-16.2219
-15.3673
-14.415
-13.3632
-12.2112
-10.9587
-9.60653
-8.15586
-6.60884
-4.96786