/*--------------------------------*- C++ -*----------------------------------*\
| =========                 |                                                 |
| \\      /  F ield         | OpenFOAM: The Open Source CFD Toolbox           |
|  \\    /   O peration     | Version:  2412                                  |
|   \\  /    A nd           | Website:  www.openfoam.com                      |
|    \\/     M anipulation  |                                                 |
\*---------------------------------------------------------------------------*/
FoamFile
{
    version     2.0;
    format      ascii;
    arch        "LSB;label=32;scalar=64";
    class       volVectorField;
    location    "1.19";
    object      U_0;
}
// * * * * * * * * * * * * * * * * * * * * * * * * * * * * * * * * * * * * * //

dimensions      [0 1 -1 0 0 0 0];

internalField   nonuniform List<vector> 
12600
(
(18.7397 1.25507e-21 2.09578)
(11.6207 1.6111e-20 0.451325)
(7.35174 1.89362e-20 -0.477863)
(5.08991 0 -0.7093)
(3.97692 1.71121e-20 -0.682392)
(3.33614 1.59342e-20 -0.607674)
(2.89482 0 -0.539975)
(2.56351 0 -0.484502)
(2.3038 -4.7885e-20 -0.43902)
(2.09358 0 -0.401258)
(1.91912 2.00803e-20 -0.369368)
(1.7715 1.83845e-20 -0.342021)
(1.64461 -1.684e-20 -0.318269)
(1.53411 0 -0.297414)
(1.43681 -1.41105e-20 -0.278932)
(1.35034 0 -0.26242)
(1.27285 4.73999e-20 -0.247563)
(1.20292 0 -0.23411)
(1.13942 -1.9831e-20 -0.22186)
(1.08144 -1.81332e-20 -0.210649)
(1.02824 1.65495e-20 -0.200343)
(0.979209 5.40613e-24 -0.190829)
(0.933838 0 -0.182014)
(0.891702 -2.49463e-20 -0.17382)
(0.852443 0 -0.166178)
(0.815752 0 -0.15903)
(0.781367 -1.8474e-20 -0.152328)
(0.749059 0 -0.146028)
(0.718632 4.08312e-24 -0.140092)
(0.689911 1.33289e-20 -0.134487)
(0.662745 1.18588e-20 -0.129184)
(0.637 1.04972e-20 -0.124159)
(0.612558 -9.23642e-21 -0.119386)
(0.589311 -1.6139e-20 -0.114847)
(0.567167 -1.39799e-20 -0.110524)
(0.546039 1.19728e-20 -0.106398)
(0.525851 0 -0.102457)
(0.506533 -8.43529e-21 -0.0986856)
(0.488025 0 -0.0950728)
(0.470267 5.41443e-21 -0.0916069)
(0.453209 0 -0.0882783)
(0.436802 1.75254e-23 -0.0850769)
(0.421004 0 -0.0819953)
(0.405771 1.59516e-23 -0.0790244)
(0.391072 -5.34617e-22 -0.0761584)
(0.376865 2.25458e-21 -0.0733888)
(0.363127 -3.85268e-21 -0.0707116)
(0.349818 0 -0.0681184)
(0.336925 0 -0.0656069)
(0.324403 -7.79571e-21 -0.0631684)
(0.312251 -1.77413e-20 -0.0608027)
(0.30042 -1.96771e-20 -0.0585)
(0.288919 1.9447e-23 -0.0562624)
(0.277694 -2.29488e-20 -0.0540788)
(0.266767 0 -0.0519541)
(0.256071 2.55656e-20 -0.0498746)
(0.245648 2.66357e-20 -0.0478491)
(0.235413 2.75494e-20 -0.0458606)
(0.225434 0 -0.0439224)
(0.2156 0 -0.0420128)
(0.206009 0 -0.0401512)
(0.196521 -6.01344e-20 -0.0383098)
(0.187273 0 -0.0365157)
(0.178082 0 -0.0347329)
(0.169135 1.23556e-19 -0.0329982)
(0.160198 0 -0.0312656)
(0.151519 0 -0.0295835)
(0.142798 0 -0.0278936)
(0.13436 -1.23645e-19 -0.0262588)
(0.125826 1.23026e-19 -0.0246058)
(0.117608 1.22225e-19 -0.0230143)
(0.10924 2.33867e-23 -0.0213939)
(0.101234 -1.20005e-19 -0.0198437)
(0.0930241 0 -0.0182543)
(0.085234 1.17098e-19 -0.0167461)
(0.0771834 0 -0.0151877)
(0.0696429 0 -0.0137277)
(0.0617334 0 -0.0121967)
(0.0545666 2.85031e-23 -0.0108086)
(0.0466608 2.14858e-19 -0.00927834)
(0.0402354 2.10468e-19 -0.00803259)
(0.0318851 -2.0558e-19 -0.00641702)
(0.0269762 -2.01004e-19 -0.00546191)
(0.0174575 0 -0.00362273)
(0.0147339 0 -0.00308509)
(0.00435677 3.7048e-19 -0.00108382)
(0.00182625 -7.21965e-19 -0.000596864)
(-0.00384369 6.99142e-19 0.000523791)
(-0.0181273 3.37868e-19 0.00318681)
(0.00105885 0 -0.000367816)
(-0.0429066 -6.22948e-19 0.00803232)
(-0.001739 3.1196e-19 7.85009e-05)
(-0.0472648 -2.88355e-19 0.00894849)
(-0.0184926 5.7891e-19 0.00322738)
(-0.0426117 0 0.00813662)
(-0.0508782 0 0.0093485)
(-0.0167041 0 0.00338237)
(-0.108991 0 0.0206365)
(0.0177741 0 -0.00345657)
(-0.123689 0 0.023703)
(-0.00471745 -4.45646e-19 0.000499948)
(-0.104421 -7.6524e-19 0.0200623)
(-0.0294099 -8.13392e-19 0.0051475)
(-0.0643401 0 0.0128108)
(-0.124235 0 0.0231562)
(-0.000325659 0 0.000310682)
(-0.179332 -6.2225e-19 0.0342863)
(-0.0434959 -1.272e-18 0.00768435)
(-0.0827653 5.7891e-19 0.0161452)
(-0.0818366 0 0.0156561)
(-0.151721 -1.04212e-18 0.0287623)
(-0.0181118 0 0.0033148)
(-0.134165 -9.18108e-19 0.026108)
(-0.135818 9.44575e-19 0.025238)
(-0.0284 -8.88673e-19 0.00555559)
(-0.154341 -8.19867e-19 0.0296205)
(-0.122004 8.03016e-19 0.0226676)
(-0.0182917 -1.22814e-23 0.00329928)
(-0.0793104 7.10769e-19 0.0153128)
(-0.0671432 0 0.0126475)
(29.1503 -1.26701e-21 4.02813)
(25.107 0 1.85918)
(20.2443 -1.91655e-20 -0.213541)
(16.0777 0 -1.2123)
(13.1182 -1.73395e-20 -1.50786)
(11.0755 -3.04431e-20 -1.51884)
(9.60325 -1.40904e-20 -1.4412)
(8.49122 0 -1.34357)
(7.61834 3.55889e-22 -1.24818)
(6.91179 -2.1903e-20 -1.1611)
(6.32591 2.01087e-20 -1.08302)
(5.83069 1.84591e-20 -1.0132)
(5.40551 -1.69425e-20 -0.950642)
(5.03571 1.55471e-20 -0.894363)
(4.71053 2.85807e-20 -0.843505)
(4.42189 0 -0.797333)
(4.16362 -6.45909e-23 -0.755229)
(3.93086 2.19496e-20 -0.716671)
(3.71978 2.01195e-20 -0.681219)
(3.52731 0 -0.648503)
(3.35094 0 -0.618207)
(3.18859 1.52937e-20 -0.590062)
(3.03856 0 -0.563838)
(2.89939 1.2646e-20 -0.539337)
(2.76989 -2.29271e-20 -0.516385)
(2.649 0 -0.494835)
(2.53584 1.87245e-20 -0.474554)
(2.42964 0 -0.455428)
(2.32973 -1.51088e-20 -0.437355)
(2.23553 -2.70032e-20 -0.420247)
(2.14653 -2.40206e-20 -0.404022)
(2.06228 -1.06251e-20 -0.38861)
(1.98237 9.34635e-21 -0.373947)
(1.90645 3.26706e-20 -0.359976)
(1.8342 2.82938e-20 -0.346646)
(1.76534 0 -0.333908)
(1.69961 0 -0.321722)
(1.63678 -1.73074e-23 -0.310047)
(1.57664 0 -0.29885)
(1.51899 -5.46609e-21 -0.288097)
(1.46367 0 -0.277761)
(1.41051 -5.75413e-21 -0.267811)
(1.35937 0 -0.258226)
(1.31011 -1.38849e-21 -0.248979)
(1.26262 0 -0.240053)
(1.21677 -2.27022e-21 -0.231422)
(1.17247 0 -0.223075)
(1.12959 0 -0.214986)
(1.08809 6.60947e-21 -0.207149)
(1.04782 0 -0.199536)
(1.00877 0 -0.192149)
(0.970797 0 -0.184956)
(0.93391 2.14637e-20 -0.177966)
(0.89794 4.59836e-20 -0.171141)
(0.862953 0 -0.164501)
(0.82874 0 -0.158)
(0.795423 -2.66112e-20 -0.151669)
(0.762741 -2.7548e-20 -0.14545)
(0.730891 0 -0.139391)
(0.699541 0 -0.133418)
(0.66898 0 -0.127598)
(0.63878 0 -0.121838)
(0.609351 -6.05834e-20 -0.116229)
(0.580139 6.1077e-20 -0.110652)
(0.551708 -1.22853e-19 -0.105229)
(0.52334 0 -0.0998083)
(0.495791 0 -0.0945509)
(0.468143 0 -0.089263)
(0.441382 4.73071e-23 -0.0841538)
(0.414352 -1.2185e-19 -0.0789802)
(0.388311 -1.20946e-19 -0.0740069)
(0.361826 2.3958e-19 -0.0689344)
(0.336465 3.5839e-23 -0.0640902)
(0.310491 -1.17003e-19 -0.0591132)
(0.285816 -1.15432e-19 -0.0543994)
(0.26035 0 -0.0495183)
(0.23645 0 -0.0449525)
(0.211439 0 -0.0401583)
(0.188666 2.15245e-19 -0.0358077)
(0.163715 0 -0.0310261)
(0.14314 0 -0.0270967)
(0.116934 2.01205e-19 -0.0220729)
(0.100871 1.96516e-19 -0.0190179)
(0.0711909 0 -0.0133091)
(0.061821 0 -0.0115754)
(0.0292488 0 -0.00525031)
(0.021258 7.0271e-19 -0.00389363)
(0.00137765 -3.36756e-23 0.00019865)
(-0.0391328 3.28088e-19 0.00749173)
(0.012168 -3.20956e-19 -0.00192784)
(-0.116374 6.03682e-19 0.0226882)
(0.00528136 3.01973e-19 -0.00129358)
(-0.13491 5.57697e-19 0.0266183)
(-0.0446398 0 0.00801065)
(-0.124198 0 0.0248604)
(-0.139877 0 0.0259411)
(-0.0520904 0 0.0113393)
(-0.313425 4.55534e-19 0.0598746)
(0.0522774 0 -0.0102736)
(-0.370872 0 0.0723443)
(-0.00561846 -4.27286e-19 -0.000212918)
(-0.31553 3.66532e-19 0.0617391)
(-0.077886 1.55677e-18 0.0133313)
(-0.201774 -6.74219e-19 0.041375)
(-0.352161 0 0.0659502)
(-0.0120478 0 0.0033419)
(-0.535092 0 0.104017)
(-0.116044 6.05787e-19 0.0197845)
(-0.261588 -5.50951e-19 0.0513818)
(-0.244993 0 0.0479754)
(-0.438906 1.98004e-18 0.0836314)
(-0.0574211 1.00836e-18 0.0102306)
(-0.41196 1.7418e-18 0.0817086)
(-0.378824 0 0.0705217)
(-0.095794 0 0.0187137)
(-0.463913 -7.75932e-19 0.0908125)
(-0.338322 0 0.0626473)
(-0.0535951 -7.39438e-19 0.0093683)
(-0.242399 -6.71354e-19 0.0475418)
(-0.187233 0 0.0356358)
(31.894 0 3.89881)
(31.0796 0 2.81999)
(28.5496 -1.29861e-20 1.02392)
(25.2065 0 -0.383098)
(21.9548 0 -1.22705)
(19.1824 1.51329e-20 -1.65175)
(16.9247 1.33437e-20 -1.81997)
(15.1002 0 -1.8515)
(13.6131 4.20693e-22 -1.81775)
(12.3832 2.07501e-20 -1.75521)
(11.3502 -3.78925e-20 -1.6814)
(10.4696 -1.74899e-20 -1.60467)
(9.70941 1.14555e-22 -1.529)
(9.04565 -1.47321e-20 -1.45624)
(8.46044 -1.35148e-20 -1.38718)
(7.94006 1.23429e-20 -1.32208)
(7.47385 -2.27136e-20 -1.26092)
(7.05338 -2.08003e-20 -1.20355)
(6.67192 0 -1.14974)
(6.32402 0 -1.09925)
(6.00521 1.58563e-20 -1.05183)
(5.71181 1.44608e-20 -1.00724)
(5.44073 0 -0.96527)
(5.18938 0 -0.925695)
(4.95558 2.17248e-20 -0.88833)
(4.73744 0 -0.852999)
(4.53335 -3.54783e-20 -0.819544)
(4.34193 1.59638e-20 -0.78782)
(4.16195 0 -0.757697)
(3.99236 1.27945e-20 -0.729055)
(3.83223 1.13816e-20 -0.701785)
(3.68074 0 -0.67579)
(3.53715 -8.8669e-21 -0.650979)
(3.40083 -1.54814e-20 -0.627269)
(3.27119 1.20942e-23 -0.604587)
(3.14771 0 -0.582863)
(3.02993 0 -0.562034)
(2.91742 8.08656e-21 -0.542041)
(2.8098 0 -0.522832)
(2.70672 0 -0.504355)
(2.60787 0 -0.486568)
(2.51294 0 -0.469423)
(2.42169 0 -0.452888)
(2.33386 0 -0.436917)
(2.24924 0 -0.421486)
(2.16759 2.10568e-21 -0.406552)
(2.08877 -3.61558e-21 -0.392099)
(2.01253 0 -0.378081)
(1.93878 -6.25318e-21 -0.364492)
(1.86729 0 -0.351284)
(1.79801 0 -0.338463)
(1.73068 1.85993e-20 -0.325971)
(1.66532 0 -0.313828)
(1.60164 -2.17256e-20 -0.301968)
(1.53973 2.29966e-20 -0.290428)
(1.47924 0 -0.279123)
(1.42037 2.51534e-20 -0.268114)
(1.36266 0 -0.257298)
(1.30646 0 -0.246759)
(1.25118 0 -0.236367)
(1.19731 5.57271e-20 -0.226243)
(1.14412 5.6547e-20 -0.21622)
(1.09231 2.83996e-23 -0.206463)
(1.04093 -1.15321e-19 -0.196756)
(0.990929 2.49058e-23 -0.187323)
(0.941085 0 -0.177888)
(0.892679 0 -0.168742)
(0.844146 -1.16014e-19 -0.159538)
(0.797163 3.80741e-23 -0.15065)
(0.749752 0 -0.141644)
(0.704059 0 -0.132993)
(0.657631 -1.12947e-19 -0.124161)
(0.613149 2.88134e-23 -0.115733)
(0.567632 2.68442e-23 -0.107066)
(0.524352 0 -0.0988624)
(0.47973 0 -0.0903594)
(0.43779 -2.10506e-19 -0.082407)
(0.393973 2.06617e-19 -0.0740582)
(0.353936 0 -0.0664595)
(0.310283 0 -0.0581542)
(0.273897 0 -0.0512356)
(0.228243 0 -0.042565)
(0.199368 0 -0.0370827)
(0.147941 0 -0.0272727)
(0.130456 0 -0.0240826)
(0.0737721 0 -0.0130299)
(0.0596638 -6.60642e-19 -0.010916)
(0.0223489 -3.19501e-19 -0.00273525)
(-0.0425528 -3.08361e-19 0.00788261)
(0.0345727 3.01595e-19 -0.00498198)
(-0.175694 -5.67072e-19 0.0343209)
(0.0243961 -2.83642e-19 -0.0051392)
(-0.214657 -2.61857e-19 0.0431788)
(-0.0585453 0 0.00974716)
(-0.201625 0 0.0417647)
(-0.215499 0 0.0384622)
(-0.0888241 0 0.0213663)
(-0.504528 -4.27366e-19 0.0947145)
(0.0855762 0 -0.0164442)
(-0.618186 0 0.121466)
(0.00223212 4.00635e-19 -0.00388584)
(-0.530752 0 0.104951)
(-0.115818 -7.29526e-19 0.0175865)
(-0.348785 6.3182e-19 0.0745926)
(-0.560314 0 0.101795)
(-0.0360202 0 0.0107973)
(-0.888162 0 0.173454)
(-0.176426 5.67147e-19 0.0262155)
(-0.455779 0 0.0910351)
(-0.406556 -4.96327e-19 0.0807976)
(-0.713527 -1.49486e-22 0.13348)
(-0.101787 -9.43721e-19 0.0177615)
(-0.699298 -1.62994e-18 0.141567)
(-0.594992 0 0.10634)
(-0.175969 7.87491e-19 0.0353672)
(-0.772884 7.2579e-19 0.153078)
(-0.529653 7.09961e-19 0.0930933)
(-0.089347 0 0.0147136)
(-0.409422 6.27739e-19 0.081393)
(-0.290791 0 0.0541064)
(32.4157 0 2.95663)
(32.9817 0 2.76982)
(32.428 1.22762e-20 1.72448)
(30.7843 0 0.522334)
(28.5304 -1.23167e-20 -0.483557)
(26.1134 2.50511e-20 -1.20701)
(23.7932 0 -1.6704)
(21.6861 -2.18647e-20 -1.93472)
(19.8256 2.0963e-20 -2.064)
(18.2022 1.8957e-20 -2.10832)
(16.7884 1.7816e-20 -2.10152)
(15.553 -1.61928e-20 -2.06489)
(14.4674 1.5074e-20 -2.01139)
(13.5073 -2.74807e-20 -1.94885)
(12.6528 0 -1.882)
(11.8874 -2.32842e-20 -1.81371)
(11.198 0 -1.74573)
(10.5735 0 -1.67911)
(10.0051 0 -1.61446)
(9.48531 1.63776e-20 -1.55213)
(9.00806 -3.42025e-23 -1.49226)
(8.56816 -2.60175e-23 -1.43493)
(8.16125 1.24345e-20 -1.38011)
(7.78362 0 -1.32773)
(7.43211 0 -1.27772)
(7.104 0 -1.22996)
(6.79694 3.35398e-20 -1.18435)
(6.50888 -6.00027e-24 -1.14078)
(6.23803 0 -1.09914)
(5.98283 0 -1.0593)
(5.74189 0 -1.02118)
(5.514 0 -0.984678)
(5.29805 1.67721e-20 -0.94969)
(5.09309 0 -0.916132)
(4.89825 -1.26881e-20 -0.883921)
(4.71273 0 -0.852977)
(4.53585 0 -0.823228)
(4.36696 -7.66785e-21 -0.794603)
(4.20549 0 -0.767039)
(4.05091 0 -0.740473)
(3.90274 3.72087e-21 -0.714853)
(3.76054 -5.21926e-21 -0.690118)
(3.62392 0 -0.666226)
(3.49249 -1.30767e-21 -0.643119)
(3.36594 0 -0.620767)
(3.24391 -3.95911e-21 -0.59911)
(3.12616 1.88307e-23 -0.57813)
(3.01236 0 -0.557764)
(2.90233 0 -0.538007)
(2.79574 6.93974e-21 -0.51879)
(2.69251 1.58041e-20 -0.500123)
(2.59225 -3.50957e-20 -0.481926)
(2.49498 0 -0.464229)
(2.40028 -2.04606e-20 -0.446936)
(2.30826 -2.17079e-20 -0.430103)
(2.21842 -2.27573e-20 -0.413609)
(2.13102 -2.36969e-20 -0.397542)
(2.04543 0 -0.381751)
(1.96209 0 -0.366364)
(1.88019 -5.15672e-20 -0.351188)
(1.80042 -1.05099e-19 -0.336402)
(1.72172 -5.33334e-20 -0.321761)
(1.64508 3.04785e-23 -0.307507)
(1.56912 5.43567e-20 -0.293327)
(1.49523 5.46396e-20 -0.279544)
(1.42163 0 -0.265759)
(1.35017 0 -0.252395)
(1.27857 1.09329e-19 -0.238947)
(1.20925 2.1774e-19 -0.225958)
(1.13937 0 -0.212797)
(1.07199 1.07349e-19 -0.200152)
(1.00359 1.0631e-19 -0.187244)
(0.938029 1.05173e-19 -0.174924)
(0.870989 2.07607e-19 -0.162252)
(0.807201 0 -0.150255)
(0.741482 0 -0.13782)
(0.679639 1.98091e-19 -0.126181)
(0.615111 -3.88752e-19 -0.113974)
(0.55597 -1.90577e-19 -0.102823)
(0.491758 0 -0.0907087)
(0.437714 0 -0.080478)
(0.370825 0 -0.0679109)
(0.327282 0 -0.0596498)
(0.25234 0 -0.0455122)
(0.225054 0 -0.0405522)
(0.142158 -3.18847e-19 -0.0244242)
(0.121085 4.37448e-23 -0.0215719)
(0.0628375 3.00014e-19 -0.00835644)
(-0.0245823 0 0.00441529)
(0.0712091 2.83128e-19 -0.00959596)
(-0.216789 2.6613e-19 0.0428669)
(0.0577853 0 -0.0111642)
(-0.283198 -2.45673e-19 0.0584078)
(-0.0575967 -4.92423e-19 0.00874468)
(-0.272483 0 0.0585762)
(-0.274664 0 0.0474876)
(-0.125455 0 0.0331753)
(-0.677919 -4.00497e-19 0.125697)
(0.117031 0 -0.0215667)
(-0.860977 0 0.170395)
(0.0192336 3.75358e-19 -0.00989547)
(-0.747915 -3.21884e-19 0.14945)
(-0.141575 0 0.0185696)
(-0.503936 0 0.111791)
(-0.744432 0 0.131965)
(-0.0734259 0 0.0224626)
(-1.23171 0 0.241797)
(-0.225566 -7.44377e-23 0.0287517)
(-0.663924 0 0.134604)
(-0.56241 4.64447e-19 0.113309)
(-0.973846 -8.6683e-19 0.180047)
(-0.152225 0 0.0264155)
(-0.991246 -2.36946e-24 0.204352)
(-0.781025 0 0.134816)
(-0.269829 4.12959e-23 0.0555443)
(-1.07342 0 0.214924)
(-0.694264 -6.6379e-19 0.116315)
(-0.126058 0 0.0200785)
(-0.576449 5.86789e-19 0.115923)
(-0.372123 0 0.0679302)
(32.5181 0 2.10423)
(33.2758 0 2.22932)
(33.6224 0 1.75358)
(33.2578 0 0.958824)
(32.2347 1.1626e-20 0.116327)
(30.7602 -9.0144e-22 -0.633405)
(29.04 0 -1.23494)
(27.233 2.06373e-20 -1.67912)
(25.4488 0 -1.98311)
(23.7536 -3.52855e-20 -2.17519)
(22.1798 0 -2.28396)
(20.7375 1.52872e-20 -2.33344)
(19.4243 0 -2.34195)
(18.2312 2.59461e-20 -2.32273)
(17.1472 -1.18186e-20 -2.28511)
(16.1607 2.18391e-20 -2.23554)
(15.2608 -1.99937e-20 -2.17846)
(14.4375 -1.83532e-20 -2.11693)
(13.6821 0 -2.05307)
(12.9869 -1.5465e-20 -1.98832)
(12.3452 -1.41299e-20 -1.92369)
(11.7511 -2.57461e-20 -1.85985)
(11.1996 -1.17415e-20 -1.79726)
(10.6863 0 -1.73622)
(10.2073 0 -1.67691)
(9.75939 0 -1.61944)
(9.33948 -1.58297e-20 -1.56386)
(8.94503 -1.42493e-20 -1.51019)
(8.57376 0 -1.4584)
(8.22363 0 -1.40846)
(7.89284 1.01635e-20 -1.36032)
(7.5798 0 -1.31392)
(7.28306 1.36507e-24 -1.26919)
(7.00133 -1.38419e-20 -1.22608)
(6.73347 1.19934e-20 -1.18451)
(6.47842 0 -1.14441)
(6.23524 0 -1.10572)
(6.00306 7.23708e-21 -1.06837)
(5.78111 0 -1.0323)
(5.56866 0 -0.997443)
(5.36509 -3.51125e-21 -0.963745)
(5.16977 4.92492e-21 -0.93114)
(4.98218 0 -0.899585)
(4.80177 1.23376e-21 -0.869013)
(4.62813 0 -0.839392)
(4.46075 1.85813e-21 -0.810651)
(4.29934 3.20412e-21 -0.782771)
(4.14339 0 -0.755676)
(3.9927 5.52315e-21 -0.729363)
(3.84679 -6.54456e-21 -0.703744)
(3.70554 -2.97761e-20 -0.678838)
(3.56844 1.6532e-20 -0.65454)
(3.4355 -1.7964e-20 -0.630895)
(3.30614 2.53655e-23 -0.607774)
(3.18051 0 -0.585257)
(3.05793 2.14497e-20 -0.563183)
(2.93875 2.2333e-20 -0.541671)
(2.82209 -2.30741e-20 -0.520521)
(2.70857 2.37272e-20 -0.499906)
(2.59708 4.85836e-20 -0.479568)
(2.48854 4.94875e-20 -0.459748)
(2.38152 -5.01741e-20 -0.440117)
(2.27734 5.07645e-20 -0.421004)
(2.17418 0 -0.401985)
(2.07384 0 -0.383498)
(1.97397 5.1518e-20 -0.365004)
(1.877 0 -0.347074)
(1.77993 0 -0.329028)
(1.68596 -1.02439e-19 -0.311597)
(1.59127 0 -0.293933)
(1.49998 -1.00999e-19 -0.27696)
(1.40736 -1.99983e-19 -0.259629)
(1.31855 0 -0.243087)
(1.2278 -9.7608e-20 -0.226067)
(1.14139 0 -0.209954)
(1.05243 0 -0.193245)
(0.968623 -1.86122e-19 -0.177596)
(0.881268 1.82671e-19 -0.161196)
(0.800985 3.90616e-23 -0.146165)
(0.714141 0 -0.129923)
(0.640397 0 -0.116028)
(0.550264 0 -0.0992862)
(0.48999 -1.63156e-19 -0.0878592)
(0.389553 1.58549e-19 -0.0691406)
(0.35055 0 -0.0620672)
(0.239147 5.98567e-19 -0.0404589)
(0.210035 2.91166e-19 -0.0368945)
(0.127119 -5.63041e-19 -0.0175405)
(0.0190102 -2.71548e-19 -0.00378286)
(0.125572 -5.31198e-19 -0.0163798)
(-0.235193 0 0.0471414)
(0.107856 0 -0.0201081)
(-0.336626 2.30358e-19 0.0714919)
(-0.0390582 4.61654e-19 0.0042247)
(-0.33384 -4.26772e-19 0.0748276)
(-0.314274 0 0.0519171)
(-0.159957 0 0.0465914)
(-0.829169 3.75242e-19 0.151076)
(0.14639 3.82107e-19 -0.0252701)
(-1.09376 0 0.217859)
(0.0452687 -3.51532e-19 -0.018433)
(-0.964115 3.01409e-19 0.194685)
(-0.153857 0 0.0155872)
(-0.665092 0 0.152755)
(-0.900906 0 0.154513)
(-0.124508 0 0.0391598)
(-1.55822 0 0.30703)
(-0.265639 -4.9663e-19 0.0271911)
(-0.883062 0 0.181882)
(-0.708463 0 0.144434)
(-1.21901 0 0.221869)
(-0.209049 8.25694e-19 0.0364725)
(-1.28206 7.12851e-19 0.268784)
(-0.935223 0 0.153847)
(-0.377066 -6.88534e-19 0.0797974)
(-1.35667 0 0.274268)
(-0.832234 -6.20191e-19 0.130485)
(-0.163407 0 0.0254786)
(-0.738632 -5.48376e-19 0.150048)
(-0.425307 0 0.0748416)
(32.59 -4.98816e-21 1.49024)
(33.1733 -6.19065e-21 1.62955)
(33.6998 7.35008e-21 1.43813)
(33.9252 8.28228e-21 0.976678)
(33.7325 0 0.384257)
(33.1335 -9.92667e-21 -0.23212)
(32.2016 0 -0.806631)
(31.0279 1.74406e-20 -1.30225)
(29.7009 1.66758e-20 -1.70354)
(28.2971 3.21646e-20 -2.01095)
(26.876 -1.47996e-20 -2.23419)
(25.4796 1.38108e-20 -2.38676)
(24.1353 0 -2.48259)
(22.8585 0 -2.53432)
(21.6566 1.11424e-20 -2.55258)
(20.5314 -1.14564e-22 -2.54592)
(19.4812 1.7607e-22 -2.52097)
(18.5025 1.35903e-22 -2.48282)
(17.5908 0 -2.43531)
(16.7413 0 -2.38133)
(15.9489 0 -2.32302)
(15.2091 2.41918e-20 -2.26199)
(14.5173 1.10062e-20 -2.19946)
(13.8696 0 -2.13629)
(13.262 0 -2.07317)
(12.6914 1.64743e-20 -2.01056)
(12.1544 0 -1.94882)
(11.6485 0 -1.88821)
(11.171 0 -1.8289)
(10.7197 0 -1.77101)
(10.2925 -6.40515e-24 -1.71461)
(9.88753 0 -1.65975)
(9.50315 -1.61983e-24 -1.60644)
(9.1378 1.3048e-20 -1.55468)
(8.7901 2.6027e-24 -1.50446)
(8.45876 0 -1.45574)
(8.14265 0 -1.4085)
(7.84068 0 -1.36268)
(7.55191 0 -1.31826)
(7.27543 0 -1.27517)
(7.01044 0 -1.23338)
(6.75617 0 -1.19283)
(6.51195 -2.86272e-21 -1.15347)
(6.27709 -1.19871e-21 -1.11526)
(6.05107 0 -1.07814)
(5.83324 1.71604e-21 -1.04206)
(5.6232 0 -1.007)
(5.42033 0 -0.972875)
(5.22435 -1.0389e-20 -0.939683)
(5.03465 0 -0.907324)
(4.85107 1.40069e-20 -0.875828)
(4.67295 0 -0.845068)
(4.50031 3.38041e-20 -0.815107)
(4.33238 2.45831e-23 -0.785785)
(4.16938 0 -0.757206)
(4.0104 0 -0.72917)
(3.8559 0 -0.701833)
(3.70476 4.34149e-20 -0.67494)
(3.55774 -4.46412e-20 -0.648715)
(3.41343 -4.56492e-20 -0.62283)
(3.27299 -4.64992e-20 -0.597598)
(3.13461 9.43795e-20 -0.572596)
(2.99995 4.76986e-20 -0.548246)
(2.86667 0 -0.52401)
(2.73709 0 -0.500447)
(2.60818 -2.43107e-23 -0.476869)
(2.48306 0 -0.454006)
(2.35787 0 -0.430989)
(2.23669 -9.62252e-20 -0.408756)
(2.11466 0 -0.386217)
(1.997 0 -0.364558)
(1.87768 1.87872e-19 -0.342436)
(1.76325 -9.28664e-20 -0.321319)
(1.64637 0 -0.299582)
(1.53504 0 -0.279001)
(1.42045 0 -0.25765)
(1.31242 1.74797e-19 -0.237643)
(1.19989 0 -0.216683)
(1.09622 3.3619e-19 -0.197417)
(0.98443 -1.64428e-19 -0.176697)
(0.88874 0 -0.158759)
(0.773105 0 -0.137529)
(0.693826 1.53103e-19 -0.122517)
(0.565664 -2.65566e-23 -0.0989368)
(0.512796 1.44982e-19 -0.0893549)
(0.370342 -2.80704e-19 -0.0618632)
(0.33189 2.72992e-19 -0.0575232)
(0.22028 2.63975e-19 -0.0309856)
(0.0931833 2.54602e-19 -0.0174615)
(0.201956 1.17991e-23 -0.0257754)
(-0.225711 0 0.046199)
(0.177691 -2.33895e-19 -0.0320103)
(-0.370227 0 0.0816398)
(0.000281352 0 -0.00413712)
(-0.382124 3.99805e-19 0.0899691)
(-0.330709 0 0.0513208)
(-0.189653 0 0.0613562)
(-0.953142 0 0.170223)
(0.173946 -3.57771e-19 -0.0273282)
(-1.31007 0 0.262537)
(0.079959 -3.29006e-19 -0.0292813)
(-1.17553 0 0.239971)
(-0.151418 0 0.00846812)
(-0.829451 0 0.197113)
(-1.026 0 0.169064)
(-0.188672 0 0.06112)
(-1.85927 -4.55016e-19 0.36742)
(-0.299403 -4.64365e-19 0.0223719)
(-1.10864 4.22524e-19 0.232146)
(-0.84085 0 0.17321)
(-1.44788 0 0.259463)
(-0.271644 -1.54393e-18 0.0479897)
(-1.56531 0 0.333418)
(-1.05637 6.83853e-19 0.163775)
(-0.49612 0 0.108051)
(-1.61281 5.92762e-19 0.328934)
(-0.944289 5.79559e-19 0.136271)
(-0.199735 0 0.030869)
(-0.890245 -5.12358e-19 0.182392)
(-0.443643 0 0.0736497)
(32.6443 4.69749e-21 1.03834)
(33.0553 1.14124e-20 1.12506)
(33.5013 -6.92338e-21 1.0417)
(33.8663 -7.82623e-22 0.777952)
(34.0395 7.49943e-21 0.387279)
(33.9648 0 -0.068374)
(33.6343 0 -0.539892)
(33.0682 -1.64228e-20 -0.991536)
(32.3019 -3.05017e-20 -1.39967)
(31.3779 -7.0905e-22 -1.75127)
(30.3396 1.39346e-20 -2.04181)
(29.2277 -1.30035e-20 -2.27267)
(28.0772 1.17591e-20 -2.44866)
(26.9164 0 -2.57639)
(25.7667 0 -2.66303)
(24.6437 -9.54761e-21 -2.71559)
(23.5578 3.49353e-20 -2.74047)
(22.5156 3.21508e-20 -2.74324)
(21.5206 0 -2.7286)
(20.5739 0 -2.70046)
(19.6755 0 -2.66198)
(18.8243 -6.72985e-23 -2.61569)
(18.0183 -2.06748e-20 -2.56363)
(17.2556 9.38946e-21 -2.50741)
(16.5337 1.70615e-20 -2.44829)
(15.8503 -3.09747e-20 -2.38729)
(15.203 1.39746e-20 -2.32518)
(14.5895 1.25913e-20 -2.26258)
(14.0076 1.13057e-20 -2.19997)
(13.4552 0 -2.13772)
(12.9303 -9.01525e-21 -2.07611)
(12.4312 7.97526e-21 -2.01536)
(11.9561 -7.02744e-21 -1.95563)
(11.5034 -1.2278e-20 -1.89704)
(11.0716 -2.12881e-20 -1.83966)
(10.6594 0 -1.78356)
(10.2655 0 -1.72877)
(9.88873 -6.44e-21 -1.67529)
(9.52801 0 -1.62315)
(9.18229 4.14987e-21 -1.57232)
(8.85068 3.13855e-21 -1.5228)
(8.53225 0 -1.47454)
(8.22625 5.40358e-21 -1.42754)
(7.93184 1.12806e-21 -1.38175)
(7.64842 0 -1.33715)
(7.37519 -1.61473e-21 -1.29367)
(7.1117 -2.79332e-21 -1.25132)
(6.85717 0 -1.21)
(6.6113 9.7448e-21 -1.16973)
(6.37329 -5.7567e-21 -1.1304)
(6.143 -1.31221e-20 -1.09207)
(5.91959 0 -1.05456)
(5.70309 -2.48563e-23 -1.01799)
(5.49255 3.40447e-20 -0.982153)
(5.28824 0 -0.947188)
(5.08903 0 -0.91285)
(4.89549 -1.97069e-20 -0.879343)
(4.70623 -2.03997e-20 -0.846349)
(4.5222 4.19316e-20 -0.814157)
(4.34163 4.29114e-20 -0.782358)
(4.16596 4.37066e-20 -0.751347)
(3.99295 -4.4337e-20 -0.7206)
(3.82464 -8.96226e-20 -0.690645)
(3.65814 0 -0.660813)
(3.4963 0 -0.631803)
(3.33539 -9.0966e-20 -0.602759)
(3.17922 0 -0.574593)
(3.02306 0 -0.546221)
(2.8719 9.03762e-20 -0.518814)
(2.71976 0 -0.491016)
(2.57307 -8.90392e-20 -0.464303)
(2.42436 -3.23371e-23 -0.437001)
(2.28173 8.71839e-20 -0.410941)
(2.13607 0 -0.384096)
(1.99729 0 -0.358681)
(1.85447 0 -0.332293)
(1.71973 1.63938e-19 -0.30756)
(1.57943 0 -0.281645)
(1.44994 -1.57682e-19 -0.257768)
(1.31062 3.08446e-19 -0.232188)
(1.19053 0 -0.209805)
(1.04685 0 -0.18374)
(0.946081 0 -0.164695)
(0.787674 -2.62679e-23 -0.135942)
(0.718563 -1.35917e-19 -0.123422)
(0.542221 -2.63036e-19 -0.0896098)
(0.492889 -2.5586e-19 -0.0844103)
(0.348227 2.47317e-19 -0.0495706)
(0.20368 0 -0.0375916)
(0.30551 2.3326e-19 -0.0385772)
(-0.182402 0 0.0390264)
(0.271062 2.19081e-19 -0.047168)
(-0.378446 0 0.0878289)
(0.0640797 0 -0.0168513)
(-0.413029 0 0.103315)
(-0.319944 -3.69554e-19 0.0449892)
(-0.211161 -3.51388e-19 0.0770541)
(-1.04431 0 0.18193)
(0.200825 3.34885e-19 -0.0275525)
(-1.50249 -2.90124e-19 0.302892)
(0.122715 3.07844e-19 -0.0421689)
(-1.37726 -2.63887e-19 0.284387)
(-0.133256 0 -0.00299743)
(-0.993525 0 0.244274)
(-1.11636 0 0.17476)
(-0.264179 0 0.0884442)
(-2.12579 4.2548e-19 0.420961)
(-0.330112 6.3753e-23 0.0151243)
(-1.33434 -7.90077e-19 0.284272)
(-0.956336 0 0.198773)
(-1.65933 0 0.292443)
(-0.3382 7.21537e-19 0.060765)
(-1.83412 0 0.396637)
(-1.14434 -6.39063e-19 0.164246)
(-0.623829 0 0.139987)
(-1.83141 -1.10764e-18 0.376559)
(-1.03236 0 0.133715)
(-0.231659 0 0.0357884)
(-1.02479 4.78622e-19 0.211318)
(-0.420181 0 0.0623244)
(32.6685 0 0.6853)
(32.9699 -5.25092e-21 0.728259)
(33.3067 0 0.678386)
(33.6371 -6.60348e-21 0.514935)
(33.8978 -1.34615e-20 0.252756)
(34.038 0 -0.0764211)
(34.0292 6.71495e-21 -0.441177)
(33.86 0 -0.815415)
(33.531 9.01155e-22 -1.17894)
(33.0517 -2.58584e-20 -1.51726)
(32.4382 0 -1.82108)
(31.7106 0 -2.08549)
(30.8914 -1.106e-20 -2.3089)
(30.0027 0 -2.49205)
(29.0657 0 -2.63722)
(28.0993 0 -2.74769)
(27.1198 -1.63197e-20 -2.82723)
(26.1404 -1.50345e-20 -2.87982)
(25.1717 -1.36414e-20 -2.90932)
(24.2218 0 -2.91937)
(23.2964 0 -2.91326)
(22.3996 -1.06273e-20 -2.89391)
(21.534 9.69786e-21 -2.86381)
(20.7009 -8.83104e-21 -2.82512)
(19.9009 -1.60467e-20 -2.77964)
(19.134 2.9016e-20 -2.72889)
(18.3996 -5.42495e-23 -2.67411)
(17.6969 -1.1842e-20 -2.61635)
(17.0248 -1.06328e-20 -2.55644)
(16.3822 0 -2.49509)
(15.7677 0 -2.43286)
(15.18 -7.50019e-21 -2.37021)
(14.6178 0 -2.30752)
(14.0798 1.15461e-20 -2.24506)
(13.5647 1.00081e-20 -2.1831)
(13.0714 -8.58011e-21 -2.1218)
(12.5985 0 -2.06133)
(12.145 6.05539e-21 -2.00178)
(11.7099 4.93692e-21 -1.94324)
(11.292 3.68674e-24 -1.88578)
(10.8905 -5.90635e-21 -1.82943)
(10.5043 0 -1.77422)
(10.1327 -2.54715e-21 -1.72017)
(9.77482 0 -1.66725)
(9.42992 0 -1.61551)
(9.09716 0 -1.56488)
(8.77602 1.37501e-23 -1.5154)
(8.46565 0 -1.46697)
(8.16568 -4.57236e-21 -1.41965)
(7.8752 1.08068e-20 -1.37331)
(7.59406 1.2331e-20 -1.32804)
(7.32126 0 -1.28367)
(7.05687 -1.49021e-20 -1.24032)
(6.79975 -3.19413e-20 -1.19776)
(6.55023 0 -1.15618)
(6.30696 0 -1.11528)
(6.07064 1.85117e-20 -1.07533)
(5.83957 1.91241e-20 -1.03594)
(5.61492 -1.96828e-20 -0.997479)
(5.39455 -4.02338e-20 -0.959443)
(5.18021 0 -0.922325)
(4.96916 0 -0.885487)
(4.7639 2.84525e-23 -0.849583)
(4.56091 -4.23559e-20 -0.813794)
(4.36364 0 -0.778982)
(4.16757 4.2683e-20 -0.744099)
(3.97732 0 -0.710266)
(3.78712 0 -0.676157)
(3.60306 0 -0.643207)
(3.41783 0 -0.609757)
(3.23926 3.42918e-23 -0.577615)
(3.05826 -3.20421e-23 -0.544734)
(2.88465 -8.17271e-20 -0.513354)
(2.70735 0 -0.480992)
(2.53842 -7.94796e-20 -0.450363)
(2.36451 0 -0.418521)
(2.2004 -1.53725e-19 -0.388679)
(2.02948 1.50749e-19 -0.357387)
(1.87151 -1.47753e-19 -0.328505)
(1.70182 -1.44553e-19 -0.297647)
(1.55467 0 -0.270396)
(1.38011 1.37775e-19 -0.239112)
(1.25516 0 -0.215563)
(1.06365 -1.30641e-19 -0.181285)
(0.975713 -1.27297e-19 -0.165363)
(0.762289 2.46413e-19 -0.124763)
(0.700318 0 -0.118565)
(0.517865 -4.63243e-19 -0.074295)
(0.357252 0 -0.0648476)
(0.44236 2.18401e-19 -0.0558195)
(-0.0984427 0 0.0249332)
(0.392596 2.05069e-19 -0.0662416)
(-0.354777 0 0.0888963)
(0.156617 3.78954e-19 -0.0344452)
(-0.421416 -3.50287e-19 0.114014)
(-0.277397 3.45829e-19 0.0322385)
(-0.220303 3.28794e-19 0.0931094)
(-1.0966 0 0.185167)
(0.229198 -6.26611e-19 -0.0259452)
(-1.66265 5.42739e-19 0.337222)
(0.172987 0 -0.0567366)
(-1.56321 2.46798e-19 0.326751)
(-0.0986326 0 -0.0189059)
(-1.15308 0 0.293449)
(-1.16902 -4.61404e-19 0.171048)
(-0.348044 0 0.120944)
(-2.34816 0 0.465647)
(-0.360986 4.05785e-19 0.00641897)
(-1.552 7.38523e-19 0.336706)
(-1.05264 3.54794e-19 0.220481)
(-1.85156 0 0.320786)
(-0.405595 0 0.0743178)
(-2.08127 0 0.456728)
(-1.19973 0 0.155475)
(-0.755389 5.62e-19 0.17483)
(-2.00176 5.17342e-19 0.414752)
(-1.09905 0 0.12346)
(-0.253733 0 0.0393179)
(-1.13513 0 0.234955)
(-0.347673 0 0.0390937)
(32.6672 4.20181e-21 0.397055)
(32.8992 0 0.41272)
(33.1548 4.91905e-21 0.37176)
(33.4195 0 0.25815)
(33.6624 6.02073e-21 0.0724451)
(33.8518 0 -0.17065)
(33.965 -6.3112e-21 -0.451995)
(33.9869 1.15731e-20 -0.753652)
(33.9083 2.36276e-20 -1.06046)
(33.7246 7.28819e-22 -1.36043)
(33.4352 0 -1.64456)
(33.0437 0 -1.90663)
(32.5565 0 -2.14278)
(31.9829 0 -2.35095)
(31.3339 0 -2.53038)
(30.6215 0 -2.68134)
(29.8582 1.47054e-20 -2.80485)
(29.0562 -1.36263e-20 -2.9025)
(28.2271 1.28175e-20 -2.97627)
(27.3814 0 -3.02838)
(26.5282 0 -3.06115)
(25.6755 9.78512e-21 -3.07693)
(24.8296 8.95286e-21 -3.07795)
(23.9958 8.17112e-21 -3.06632)
(23.178 0 -3.04397)
(22.3793 -1.35986e-20 -3.01264)
(21.6018 -2.45216e-20 -2.97387)
(20.8471 1.10279e-20 -2.92902)
(20.1161 0 -2.87924)
(19.4091 0 -2.82554)
(18.7263 0 -2.76879)
(18.0676 7.01174e-21 -2.70971)
(17.4325 0 -2.64893)
(16.8205 0 -2.58696)
(16.231 9.37603e-21 -2.52423)
(15.6632 8.06021e-21 -2.46111)
(15.1164 0 -2.39791)
(14.5897 5.68421e-21 -2.33486)
(14.0823 -9.27315e-21 -2.27218)
(13.5934 -3.66837e-21 -2.21001)
(13.1222 2.77606e-21 -2.14851)
(12.6679 0 -2.08776)
(12.2296 0 -2.02787)
(11.8065 0 -1.96886)
(11.3981 -2.32219e-22 -1.91083)
(11.0034 0 -1.85375)
(10.6219 2.45256e-21 -1.7977)
(10.2527 3.39881e-21 -1.74261)
(9.89556 0 -1.68859)
(9.54936 -5.06719e-21 -1.63549)
(9.21402 0 -1.58347)
(8.8884 0 -1.53232)
(8.57264 -1.3945e-20 -1.48222)
(8.2654 2.16915e-23 -1.43292)
(7.96716 1.58585e-20 -1.38467)
(7.67627 0 -1.3371)
(7.39365 0 -1.29056)
(7.11726 -1.79479e-20 -1.2446)
(6.84853 0 -1.19966)
(6.5849 3.77542e-20 -1.15514)
(6.3285 0 -1.11167)
(6.07602 0 -1.06846)
(5.83051 7.88395e-20 -1.02632)
(5.58772 7.94424e-20 -0.984259)
(5.35181 3.99045e-20 -0.943331)
(5.11734 0 -0.902269)
(4.88989 0 -0.862435)
(4.66249 3.98852e-20 -0.822227)
(4.44247 7.9422e-20 -0.783383)
(4.22105 0 -0.7439)
(4.00763 7.8296e-20 -0.705967)
(3.79126 -7.75023e-20 -0.667107)
(3.58376 7.66137e-20 -0.630034)
(3.37177 -7.55629e-20 -0.59174)
(3.1698 7.44938e-20 -0.555515)
(2.96177 0 -0.517787)