/*--------------------------------*- C++ -*----------------------------------*\
| =========                 |                                                 |
| \\      /  F ield         | OpenFOAM: The Open Source CFD Toolbox           |
|  \\    /   O peration     | Version:  2412                                  |
|   \\  /    A nd           | Website:  www.openfoam.com                      |
|    \\/     M anipulation  |                                                 |
\*---------------------------------------------------------------------------*/
FoamFile
{
    version     2.0;
    format      ascii;
    arch        "LSB;label=32;scalar=64";
    class       volVectorField;
    location    "1.755";
    object      ddt0(U);
}
// * * * * * * * * * * * * * * * * * * * * * * * * * * * * * * * * * * * * * //

dimensions      [0 1 -2 0 0 0 0];

internalField   nonuniform List<vector> 
12600
(
(0.225083 -4.20986e-22 -0.208968)
(-0.115481 3.78162e-21 -0.0319281)
(0.0360663 -8.37983e-22 0.0187357)
(0.0646075 0 0.0149442)
(0.0617007 6.00589e-22 0.00973432)
(0.0739133 7.31935e-22 0.00655122)
(0.089692 0 0.00459214)
(0.102205 0 0.00133852)
(0.111093 -5.20284e-21 -0.0016555)
(0.118418 0 -0.00456231)
(0.12522 2.98452e-21 -0.00737652)
(0.13135 3.0035e-21 -0.00987679)
(0.135934 -2.90047e-21 -0.0118815)
(0.138316 0 -0.0134068)
(0.138711 -2.56495e-21 -0.0146344)
(0.138041 0 -0.0157713)
(0.137259 7.8334e-21 -0.0169296)
(0.136811 0 -0.0180966)
(0.136533 -2.98911e-21 -0.0191737)
(0.135869 -2.62265e-21 -0.0200387)
(0.134172 2.45012e-21 -0.0205972)
(0.130956 5.73015e-23 -0.0208098)
(0.126041 0 -0.0206934)
(0.11955 -4.4081e-21 -0.0203027)
(0.111802 0 -0.0197014)
(0.103137 0 -0.0189346)
(0.0937763 -3.36772e-21 -0.0180167)
(0.0837757 0 -0.0169368)
(0.073075 -1.38528e-22 -0.0156777)
(0.0615746 5.50234e-22 -0.0142264)
(0.049198 -6.38116e-22 -0.0125803)
(0.0358987 -1.93894e-21 -0.0107394)
(0.0216734 3.3513e-21 -0.00870747)
(0.00653082 9.6585e-21 -0.00648073)
(-0.00946922 1.27674e-20 -0.00406135)
(-0.0262308 -1.57459e-20 -0.00144601)
(-0.0435121 0 0.00134043)
(-0.0609723 2.19036e-20 0.00426896)
(-0.0780541 0 0.00726012)
(-0.0941626 -2.67391e-20 0.0102412)
(-0.108516 0 0.0130775)
(-0.120479 -3.52182e-24 0.0156762)
(-0.129314 0 0.01788)
(-0.134697 1.40174e-24 0.0196326)
(-0.136229 -5.05396e-20 0.0207997)
(-0.134148 4.29108e-20 0.0214135)
(-0.128472 -3.5696e-20 0.0213853)
(-0.120026 0 0.0208611)
(-0.109061 0 0.0197815)
(-0.0967527 -6.68929e-21 0.0183894)
(-0.0831887 -3.33373e-21 0.0165979)
(-0.0696213 1.30763e-20 0.0147131)
(-0.0556329 8.08024e-22 0.0125548)
(-0.0424605 2.31896e-20 0.0104722)
(-0.0291137 0 0.00815879)
(-0.0170951 -1.62982e-20 0.00604372)
(-0.00501907 2.65522e-21 0.00370636)
(0.00494124 -5.1711e-21 0.00173115)
(0.0145177 0 -0.000401524)
(0.0207959 0 -0.00190993)
(0.0264087 0 -0.00349404)
(0.0281472 -2.32289e-20 -0.00423374)
(0.0302806 0 -0.0051557)
(0.0293503 0 -0.00523783)
(0.0312739 1.94426e-19 -0.00589318)
(0.0314878 0 -0.00588246)
(0.0367879 0 -0.00690461)
(0.0401541 0 -0.00727567)
(0.0490207 -1.73666e-19 -0.00888838)
(0.053792 -6.95437e-20 -0.00948215)
(0.0631316 1.42378e-19 -0.0112951)
(0.0656983 -5.97095e-22 -0.0116178)
(0.0734538 -1.13346e-19 -0.01318)
(0.0728634 0 -0.0128833)
(0.078128 9.83033e-20 -0.0142533)
(0.0764067 0 -0.0135624)
(0.0806641 0 -0.0146303)
(0.0720042 0 -0.0137308)
(0.0785 1.03652e-21 -0.0145066)
(0.0681557 -3.96814e-19 -0.0121862)
(0.0487339 8.90523e-19 -0.0131414)
(0.0831262 4.34424e-19 -0.0112559)
(0.0151253 5.36266e-19 -0.00810071)
(0.0519218 0 -0.0138967)
(0.127082 0 -0.00495549)
(-0.158414 1.07452e-17 -0.0102316)
(0.420116 -1.70817e-17 -0.0245119)
(-0.402707 -1.01396e-16 0.0178156)
(0.5436 1.1049e-16 -0.0896198)
(-0.347617 0 0.089592)
(0.292893 -3.6207e-16 -0.160306)
(0.327966 -1.25603e-16 0.130786)
(-0.82133 -2.94706e-18 -0.0443749)
(1.52471 2.99111e-16 -0.211996)
(-2.01415 0 0.417214)
(2.32727 0 -0.533783)
(-4.84597 0 1.07407)
(5.59512 0 -1.1361)
(-0.65787 0 0.25709)
(-5.07092 0 0.920776)
(7.95665 8.45878e-17 -1.64926)
(-11.6418 -1.19998e-15 2.38825)
(7.27422 2.00934e-15 -1.51773)
(-4.36229 0 0.952812)
(1.95453 0 -0.269845)
(3.95892 0 -0.951999)
(-5.30093 4.19787e-16 1.04124)
(10.2275 1.77513e-18 -1.83872)
(-22.2341 9.76962e-16 4.20812)
(13.3349 0 -2.62339)
(10.0602 -5.62943e-16 -2.27473)
(-15.6391 0 2.94334)
(9.29292 2.50172e-17 -1.94752)
(5.55846 2.91518e-17 -0.94681)
(1.18638 8.91937e-17 -0.14566)
(-12.1713 -2.09925e-16 2.32557)
(1.9767 -3.17156e-16 -0.397111)
(11.511 1.00547e-19 -2.14776)
(-4.85962 -2.47615e-16 0.982348)
(-4.21834 0 0.692063)
(-0.0328315 4.27404e-22 -0.411863)
(-0.177747 0 -0.110954)
(-0.0967151 8.47697e-22 0.0293183)
(-0.0495258 0 0.0420037)
(-0.0277533 -6.08764e-22 0.0296261)
(0.00860723 -1.67333e-21 0.0185563)
(0.0489309 -9.80293e-22 0.0121693)
(0.0842309 0 0.00721624)
(0.113888 -1.05099e-22 0.00281359)
(0.139645 -3.06803e-21 -0.00221267)
(0.163214 3.20827e-21 -0.00761548)
(0.184268 3.23498e-21 -0.0124792)
(0.201252 -3.1491e-21 -0.016293)
(0.21339 2.9674e-21 -0.0193599)
(0.221808 5.32152e-21 -0.0224178)
(0.228838 0 -0.026014)
(0.236433 2.00344e-22 -0.0301858)
(0.245119 3.6626e-21 -0.0345588)
(0.254032 3.03209e-21 -0.0386279)
(0.261616 0 -0.0419887)
(0.266381 0 -0.0444458)
(0.26743 2.3396e-21 -0.0460155)
(0.264659 0 -0.0468613)
(0.258639 2.18673e-21 -0.047197)
(0.250238 -3.90964e-21 -0.0471905)
(0.240187 0 -0.0468996)
(0.228804 3.04053e-21 -0.0462746)
(0.215994 0 -0.045214)
(0.201461 -1.61606e-21 -0.0436345)
(0.184903 -1.00424e-21 -0.0414951)
(0.166138 1.38256e-21 -0.0387996)
(0.145092 1.96239e-21 -0.0355664)
(0.121797 -3.39102e-21 -0.0318234)
(0.0962904 -1.96431e-20 -0.0275751)
(0.0686653 -2.59028e-20 -0.0228292)
(0.0390117 0 -0.0175709)
(0.00761641 0 -0.0118353)
(-0.0251226 -1.43183e-23 -0.00565594)
(-0.0584498 0 0.000834772)
(-0.0915472 2.69941e-20 0.00751982)
(-0.123199 0 0.0141438)
(-0.152363 5.84474e-20 0.0205273)
(-0.177656 0 0.0263349)
(-0.198292 5.50736e-20 0.0314239)
(-0.213151 0 0.0354623)
(-0.22216 -4.32085e-20 0.0384546)
(-0.224725 0 0.0401381)
(-0.221753 0 0.04075)
(-0.213084 1.72528e-20 0.0400877)
(-0.200444 0 0.0386156)
(-0.183605 0 0.036093)
(-0.164787 0 0.0331625)
(-0.143099 -1.35715e-20 0.0294057)
(-0.121077 -4.83326e-20 0.0256078)
(-0.0968931 0 0.0210879)
(-0.0737521 0 0.0168411)
(-0.0489257 -1.798e-22 0.0119059)
(-0.0268986 5.17117e-21 0.00763474)
(-0.0040031 0 0.00278529)
(0.0136951 0 -0.000825192)
(0.0317034 0 -0.00489354)
(0.0427505 0 -0.00718556)
(0.0553693 -8.40519e-20 -0.0101304)
(0.0608937 2.89496e-20 -0.0110838)
(0.0713368 -1.95202e-19 -0.0133951)
(0.0754304 0 -0.0138004)
(0.0882172 0 -0.0165026)
(0.093836 0 -0.0171843)
(0.110345 -2.11719e-21 -0.0208233)
(0.116455 6.88789e-20 -0.0216984)
(0.134243 -1.40889e-19 -0.0258097)
(0.137097 -2.74018e-19 -0.0261319)
(0.153922 -2.04923e-21 -0.0300471)
(0.152077 1.92763e-19 -0.0291479)
(0.166756 -9.69059e-20 -0.0328376)
(0.162031 0 -0.0311864)
(0.176273 0 -0.0345009)
(0.163015 0 -0.0321753)
(0.179205 2.27897e-19 -0.0356283)
(0.163517 0 -0.0307632)
(0.151047 0 -0.0334428)
(0.181078 -4.25174e-19 -0.0317265)
(0.116721 -5.24313e-19 -0.0244016)
(0.154296 0 -0.0365677)
(0.229728 0 -0.0242488)
(-0.0464412 0 -0.023114)
(0.552898 1.66197e-17 -0.0714476)
(-0.361508 -3.45312e-20 0.0412726)
(0.972924 1.07533e-16 -0.205026)
(-0.950907 1.60356e-16 0.236303)
(1.74193 3.51218e-16 -0.439743)
(-0.702128 -1.22041e-16 0.317432)
(-0.253083 5.87209e-18 -0.0931987)
(2.93468 0 -0.489743)
(-5.4583 0 1.07788)
(7.58138 0 -1.49181)
(-15.9497 0 3.16542)
(17.2322 -1.38593e-16 -3.47269)
(-3.86421 0 0.614978)
(-13.0371 0 2.236)
(25.0086 8.1882e-17 -4.71468)
(-36.0421 5.74825e-16 7.11312)
(22.1359 -3.84604e-15 -4.65718)
(-15.741 -1.80782e-15 3.3328)
(7.01662 0 -0.942203)
(13.122 0 -2.52935)
(-15.6794 0 3.23902)
(30.4302 -1.60245e-18 -5.64869)
(-63.8008 -9.2978e-16 12.3052)
(38.7725 0 -8.18312)
(23.1393 1.07051e-15 -3.76824)
(-40.655 -7.34026e-17 7.84564)
(31.0743 -4.78174e-17 -6.48811)
(12.2184 0 -2.12907)
(2.51701 0 -0.146529)
(-35.0697 -1.98565e-16 6.7553)
(7.62266 0 -1.9183)
(31.9541 -2.95432e-16 -6.00678)
(-15.7762 2.33895e-16 3.30773)
(-10.839 0 1.95263)
(-0.112505 0 -0.289649)
(-0.18187 0 -0.0882675)
(-0.161312 -8.7301e-22 0.0433232)
(-0.130483 0 0.0586064)
(-0.105388 0 0.0368506)
(-0.0664929 9.14752e-22 0.0176439)
(-0.019063 9.28569e-22 0.0101445)
(0.0268535 0 0.0108452)
(0.0670732 7.10342e-23 0.0121197)
(0.10224 2.90674e-21 0.0107078)
(0.134069 -5.99573e-21 0.00746129)
(0.162331 -3.06523e-21 0.00446664)
(0.185265 3.98602e-23 0.00253003)
(0.20206 -2.81188e-21 0.000633077)
(0.214474 -2.5768e-21 -0.00283851)
(0.225946 2.31118e-21 -0.00863948)
(0.239283 -4.03254e-21 -0.0162299)
(0.255073 -3.47083e-21 -0.0243435)
(0.271793 0 -0.0317828)
(0.286985 0 -0.0378704)
(0.29846 2.36984e-21 -0.0425052)
(0.305021 2.1943e-21 -0.0459963)
(0.306672 0 -0.048826)
(0.304371 0 -0.0514197)
(0.299434 3.70456e-21 -0.0539812)
(0.292853 0 -0.056437)
(0.284933 -5.79995e-21 -0.0585265)
(0.275363 2.27819e-21 -0.0599662)
(0.263593 0 -0.0605809)
(0.249148 4.23332e-22 -0.0603201)
(0.231783 -6.97894e-22 -0.0592241)
(0.211437 0 -0.0573586)
(0.188205 3.17933e-21 -0.0547928)
(0.16218 9.35156e-21 -0.0515507)
(0.133509 1.92917e-22 -0.0476405)
(0.102274 0 -0.0430254)
(0.0687629 0 -0.0377093)
(0.0333227 -2.09418e-20 -0.0316759)
(-0.00327187 0 -0.0250054)
(-0.0402461 0 -0.0177567)
(-0.0762893 0 -0.010151)
(-0.110369 0 -0.0023457)
(-0.140895 0 0.00530168)
(-0.167061 0 0.0126072)
(-0.187404 0 0.0191411)
(-0.201861 4.05885e-20 0.0248118)
(-0.209398 -3.37984e-20 0.0292191)
(-0.211091 0 0.0325061)
(-0.20627 -1.63228e-20 0.0343318)
(-0.197062 0 0.0351123)
(-0.182596 0 0.0344966)
(-0.165769 -1.50406e-20 0.0331563)
(-0.144793 0 0.0305816)
(-0.123241 2.37182e-20 0.027678)
(-0.0980484 -1.41597e-20 0.023665)
(-0.0739625 0 0.0197385)
(-0.0465462 1.69991e-22 0.0147581)
(-0.0225148 0 0.0103502)
(0.00415213 0 0.00496065)
(0.0242969 0 0.000789087)
(0.0467771 5.90225e-20 -0.00433119)
(0.0601877 2.23462e-20 -0.00755298)
(0.0777239 -9.6079e-22 -0.0119099)
(0.0851435 -5.55425e-20 -0.0137999)
(0.100774 -1.16962e-21 -0.0174368)
(0.105929 0 -0.0182797)
(0.124072 0 -0.0218871)
(0.129677 -1.43048e-21 -0.0223588)
(0.151876 -1.64929e-21 -0.0266864)
(0.156958 0 -0.0270916)
(0.181251 0 -0.0321798)
(0.182211 1.28675e-19 -0.0320853)
(0.206709 -1.65407e-21 -0.03754)
(0.202069 -8.99254e-22 -0.0362492)
(0.225684 0 -0.0417745)
(0.217205 0 -0.0396509)
(0.241637 -1.96675e-19 -0.0452405)
(0.223931 -3.71074e-19 -0.0420316)
(0.251246 0 -0.0486204)
(0.230998 0 -0.0434371)
(0.229375 0 -0.0478489)
(0.257365 0 -0.0479487)
(0.200401 0 -0.0416226)
(0.245455 0 -0.0523164)
(0.320039 0 -0.0488912)
(0.0618307 0 -0.0363485)
(0.679561 -1.57069e-17 -0.0998512)
(-0.315816 4.63603e-17 0.027346)
(1.37786 -1.01067e-16 -0.240873)
(-1.48969 -1.50683e-16 0.307715)
(3.11422 -3.3025e-16 -0.666989)
(-1.74136 1.14632e-16 0.464594)
(0.468892 -2.8389e-18 -0.252232)
(4.11698 0 -0.565894)
(-8.48325 0 1.4961)
(12.5128 0 -2.23639)
(-26.3324 0 5.03862)
(28.2724 1.30023e-16 -5.84194)
(-8.07413 0 2.42097)
(-17.9166 0 2.58093)
(40.5442 -7.67747e-17 -7.24301)
(-59.2617 0 11.607)
(36.14 1.80246e-15 -7.89837)
(-29.7405 1.69414e-15 6.55891)
(13.9455 0 -3.3241)
(20.369 0 -3.58007)
(-22.9602 0 4.7504)
(50.0817 -6.75829e-17 -9.0439)
(-102.837 0 19.6991)
(62.4791 6.95229e-16 -14.0841)
(28.3292 1.68929e-19 -4.61091)
(-58.3998 6.86974e-17 10.8945)
(54.904 4.55567e-17 -11.8812)
(14.8487 0 -2.08358)
(2.98932 -7.92421e-17 0.390863)
(-56.1818 1.85734e-16 10.6965)
(14.6341 -2.80694e-16 -4.29106)
(50.001 0 -9.05398)
(-27.7338 -2.187e-16 6.16159)
(-16.6824 0 2.96381)
(-0.113061 0 -0.169712)
(-0.1608 0 -0.0558916)
(-0.156959 8.25384e-22 0.043325)
(-0.130721 0 0.0583116)
(-0.109292 -2.80769e-22 0.0317161)
(-0.0830559 1.19973e-21 0.00630316)
(-0.0465857 0 -0.0010454)
(-0.00495768 -2.12003e-21 0.0052867)
(0.035826 2.44834e-21 0.0134566)
(0.073536 2.60317e-21 0.0171993)
(0.108371 2.79529e-21 0.017421)
(0.139737 -2.77691e-21 0.0175098)
(0.165494 2.78437e-21 0.0187201)
(0.184213 -5.24401e-21 0.0191843)
(0.197498 0 0.0161714)
(0.209529 -4.37739e-21 0.00867876)
(0.224242 0 -0.00195368)
(0.242849 0 -0.0132785)
(0.263585 0 -0.0232668)
(0.28325 2.59042e-21 -0.0310332)
(0.298971 8.67316e-23 -0.0367458)
(0.309188 8.18635e-23 -0.0411756)
(0.313883 2.04628e-21 -0.0452218)
(0.31426 0 -0.0495374)
(0.312001 0 -0.0543077)
(0.308372 0 -0.0592392)
(0.303698 5.63078e-21 -0.0637852)
(0.297472 1.09801e-22 -0.0674524)
(0.288904 0 -0.0699941)
(0.277355 0 -0.0713896)
(0.26255 0 -0.0717507)
(0.244461 0 -0.0712069)
(0.223256 -5.88064e-21 -0.0698689)
(0.199084 0 -0.0677682)
(0.172138 1.14515e-20 -0.0649007)
(0.142487 0 -0.0611967)
(0.110416 0 -0.0566296)
(0.0761996 1.93776e-20 -0.05114)
(0.0406133 0 -0.0447728)
(0.00435068 0 -0.0375431)
(-0.0312367 -2.52108e-20 -0.0296537)
(-0.0652162 5.14037e-20 -0.0212416)
(-0.0958907 0 -0.0126832)
(-0.122572 4.85868e-20 -0.00418245)
(-0.143586 0 0.00376001)
(-0.159035 -7.66121e-20 0.0109998)
(-0.167574 1.64388e-23 0.0170419)
(-0.170583 0 0.0219798)
(-0.166955 0 0.0253695)
(-0.159302 5.45176e-21 0.0276013)
(-0.146087 1.34416e-21 0.0282311)
(-0.130909 2.85329e-20 0.0279522)
(-0.110985 0 0.0261709)
(-0.0909261 2.39663e-20 0.023886)
(-0.0662826 1.33662e-20 0.0202326)
(-0.0433546 1.9069e-20 0.0165665)
(-0.0158024 1.50328e-21 0.011608)
(0.00739769 0 0.00720969)
(0.0348776 0 0.00157208)
(0.0543309 -7.15128e-21 -0.00279719)
(0.0782845 -1.11168e-19 -0.00845561)
(0.0910672 -2.10762e-20 -0.0120696)
(0.110903 -3.9681e-22 -0.0172009)
(0.117728 2.65958e-20 -0.0194815)
(0.136591 8.85578e-20 -0.023897)
(0.140984 0 -0.0248445)
(0.163252 0 -0.0290777)
(0.167628 1.34798e-21 -0.0293092)
(0.194876 3.13912e-19 -0.0342816)
(0.198111 0 -0.0343551)
(0.228613 1.29281e-19 -0.0404559)
(0.227029 -1.19629e-19 -0.040094)
(0.259101 1.02771e-19 -0.0470527)
(0.25108 -3.39653e-19 -0.0454971)
(0.283696 0 -0.0528538)
(0.270955 0 -0.0502296)
(0.305821 1.85075e-19 -0.0580642)
(0.283153 6.99502e-19 -0.0540361)
(0.322096 -1.96322e-19 -0.0630932)
(0.296853 0 -0.0574585)
(0.306723 0 -0.0640425)
(0.332765 0 -0.0633167)
(0.284014 0 -0.0612662)
(0.336468 0 -0.0681131)
(0.412338 0 -0.0707887)
(0.170221 -9.2441e-18 -0.0597966)
(0.806089 -7.68158e-20 -0.112563)
(-0.259702 -4.38036e-17 -0.015341)
(1.74471 0 -0.256187)
(-1.95337 -1.41704e-16 0.319825)
(4.38171 1.55047e-16 -0.874998)
(-2.75901 0 0.682552)
(1.30484 -2.21817e-18 -0.57294)
(5.02341 -2.56977e-16 -0.539202)
(-11.0394 0 1.79089)
(17.0452 0 -2.81379)
(-35.8287 0 6.67002)
(38.5542 1.23039e-16 -8.17534)
(-13.2639 0 4.73713)
(-19.9098 0 2.17057)
(54.3695 -7.24828e-17 -9.29358)
(-80.8246 -5.04521e-16 15.8468)
(49.2558 0 -11.1703)
(-45.858 0 10.3866)
(22.3595 0 -6.22096)
(25.5618 0 -4.03872)
(-26.8887 0 5.16273)
(69.1855 -4.19808e-17 -11.7671)
(-138.383 0 26.4951)
(83.1823 -6.5057e-16 -19.9862)
(25.9457 -4.69289e-16 -2.04313)
(-67.6369 0 12.2477)
(79.8798 6.72155e-19 -17.6289)
(13.4076 0 -1.05977)
(3.12183 -8.04897e-20 1.25542)
(-75.0207 0 14.1837)
(22.5391 2.62439e-16 -7.17772)
(65.2566 0 -11.3805)
(-40.1769 -2.04312e-16 9.32969)
(-21.6152 0 3.7454)
(-0.102695 0 -0.113192)
(-0.131334 0 -0.046455)
(-0.125369 0 0.0286678)
(-0.0978321 0 0.0472097)
(-0.0778493 2.65013e-22 0.0236367)
(-0.0631781 1.0949e-23 -0.00345901)
(-0.0425781 0 -0.0122027)
(-0.0130709 2.00111e-21 -0.00404074)
(0.0216829 0 0.00850812)
(0.0577335 -4.89216e-21 0.0166222)
(0.0933452 0 0.0201766)
(0.127173 2.62166e-21 0.0233831)
(0.156485 0 0.0281517)
(0.178486 4.9512e-21 0.0318382)
(0.193329 -2.29372e-21 0.0302425)
(0.204994 4.15073e-21 0.0217215)
(0.218659 -3.70295e-21 0.00837828)
(0.237053 -3.25822e-21 -0.00588272)
(0.259026 0 -0.0179299)
(0.281001 -2.44607e-21 -0.0266132)
(0.299392 -2.19852e-21 -0.0324897)
(0.31209 -4.17051e-21 -0.0369434)
(0.318782 -1.93222e-21 -0.0413929)
(0.320652 0 -0.0467651)
(0.319654 0 -0.0532231)
(0.317427 0 -0.0602021)
(0.314496 -2.70991e-21 -0.0668025)
(0.310264 -2.13794e-21 -0.0722845)
(0.303699 0 -0.0763405)
(0.293974 0 -0.0790194)
(0.280767 -2.88039e-22 -0.0805421)
(0.264095 0 -0.0811202)
(0.244212 1.49109e-22 -0.0809081)
(0.221323 7.62927e-21 -0.0799356)
(0.19568 -1.02709e-20 -0.0781764)
(0.167343 0 -0.0755186)
(0.136599 0 -0.071906)
(0.103652 -1.8289e-20 -0.0672374)
(0.0692831 0 -0.0615338)
(0.0341054 0 -0.0547669)
(-0.000475335 2.37905e-20 -0.0471277)
(-0.0336326 -4.85048e-20 -0.038715)
(-0.0635577 0 -0.0299152)
(-0.0897027 -4.58408e-20 -0.0209111)
(-0.11018 0 -0.0122519)
(-0.125303 3.60975e-20 -0.00407501)
(-0.133418 3.01027e-20 0.00304998)
(-0.136277 0 0.00922335)
(-0.132333 1.45978e-20 0.013888)
(-0.124759 -5.14133e-21 0.0174426)
(-0.111335 -2.81452e-21 0.0192982)
(-0.0964453 -1.35124e-20 0.0201877)
(-0.0762702 1.37041e-20 0.0193555)
(-0.0565692 -2.32938e-24 0.0179199)
(-0.0314306 0 0.0148459)
(-0.00883753 -1.79733e-20 0.0117015)
(0.0195824 -1.41677e-21 0.00698362)
(0.0424385 7.20357e-21 0.00285451)
(0.0711789 1.30962e-20 -0.00282421)
(0.0901547 6.73749e-21 -0.00713946)
(0.115833 5.22763e-20 -0.0131638)
(0.128002 -1.98791e-20 -0.0169685)
(0.150259 7.17313e-20 -0.0227996)
(0.156352 0 -0.0253841)
(0.178498 0 -0.0306508)
(0.181895 2.05605e-20 -0.0317281)
(0.208349 0 -0.0367439)
(0.211247 0 -0.0367487)
(0.243701 -1.48152e-19 -0.0424603)
(0.244859 0 -0.0420702)
(0.281814 -1.21634e-19 -0.0491552)
(0.277416 2.24484e-19 -0.048279)
(0.317343 0 -0.0566871)
(0.305583 1.59328e-19 -0.0546165)
(0.347505 0 -0.0638676)
(0.330037 0 -0.0605228)
(0.37568 -1.74522e-19 -0.0707145)
(0.347469 -3.29311e-19 -0.0656736)
(0.398405 1.01859e-21 -0.0773273)
(0.36749 0 -0.0709057)
(0.389341 0 -0.0803146)
(0.412549 0 -0.0783313)
(0.372884 4.47861e-19 -0.0814499)
(0.431342 3.03502e-18 -0.0847596)
(0.509392 0 -0.0932789)
(0.282765 1.73216e-17 -0.0855662)
(0.931725 7.02683e-18 -0.124224)
(-0.188349 8.2322e-17 -0.0651927)
(2.07543 -8.94632e-17 -0.252791)
(-2.33631 2.65892e-16 0.293771)
(5.53717 0 -1.04733)
(-3.7439 0 0.897754)
(2.25408 2.07991e-18 -0.92123)
(5.65619 2.4092e-16 -0.390553)
(-13.0982 4.32473e-16 1.91802)
(21.1024 0 -3.18481)
(-44.3095 0 8.00305)
(47.8597 -1.1528e-16 -10.3829)
(-19.4553 3.20781e-16 6.57318)
(-19.2415 0 0.92705)
(66.4154 6.78818e-17 -10.6928)
(-100.148 4.7243e-16 19.6513)
(61.3224 0 -14.3415)
(-63.4551 0 14.646)
(31.7968 0 -8.85887)
(28.3763 0 -4.02048)
(-27.1809 0 4.70938)
(87.6576 9.84665e-17 -13.9177)
(-169.49 0 32.3867)
(100.143 0 -25.5958)
(16.1198 0 3.67195)
(-68.2157 -6.05693e-17 11.4424)
(104.939 -2.07614e-17 -23.4642)
(8.34227 0 1.05781)
(3.47398 6.93557e-17 2.28256)
(-91.2682 0 17.0362)
(30.6722 2.45152e-16 -10.4442)
(77.3636 0 -12.9298)
(-52.3746 1.90938e-16 12.7034)
(-25.5761 0 4.22318)
(-0.0918525 4.57697e-22 -0.0843402)
(-0.103383 2.36163e-22 -0.0411059)
(-0.0959114 5.09598e-23 0.014067)
(-0.0706586 2.3549e-22 0.0331088)
(-0.0507152 0 0.0165047)
(-0.0409918 -5.1422e-22 -0.00713508)
(-0.0314434 0 -0.0165054)
(-0.01384 1.91206e-21 -0.00939344)
(0.0122946 2.14466e-21 0.00401472)
(0.0436109 4.57419e-21 0.0143022)
(0.0775277 -2.34541e-21 0.0199792)
(0.11251 2.36758e-21 0.0253826)
(0.145829 0 0.0333076)
(0.173341 0 0.0407699)
(0.192552 2.16248e-21 0.0418119)
(0.205509 8.41418e-25 0.0333303)
(0.217781 -2.34341e-23 0.0176638)
(0.234195 -3.99796e-23 0.000317223)
(0.255444 0 -0.0139996)
(0.278397 0 -0.023562)
(0.298918 0 -0.029308)
(0.314152 4.11192e-21 -0.0333552)
(0.323141 2.00024e-21 -0.037746)
(0.32662 0 -0.0437642)
(0.326541 0 -0.0516129)
(0.32499 3.27394e-21 -0.0604554)
(0.322975 0 -0.0689704)
(0.320028 0 -0.0760988)
(0.314916 0 -0.0814552)
(0.30654 0 -0.0851892)
(0.294459 1.50849e-22 -0.0876734)
(0.278716 0 -0.0892252)
(0.259664 1.56526e-22 -0.0900471)
(0.237581 -7.19174e-21 -0.0901581)
(0.212795 3.15135e-22 -0.0895013)
(0.185375 0 -0.0879118)
(0.155633 0 -0.0853019)
(0.123695 0 -0.0815244)
(0.0903475 0 -0.0765843)
(0.0561106 0 -0.0704085)
(0.0224573 0 -0.0631869)
(-0.00990328 0 -0.0549718)
(-0.0390341 4.5086e-20 -0.0461679)
(-0.0645529 4.27101e-20 -0.0369143)
(-0.0843364 0 -0.0278137)
(-0.0989394 3.38319e-20 -0.0189579)
(-0.10636 0 -0.0109955)
(-0.108765 0 -0.00377241)
(-0.104118 -2.76111e-20 0.00201928)
(-0.0962201 0 0.00683001)
(-0.0820934 1.45689e-21 0.00987692)
(-0.0670053 0 0.011975)
(-0.0460025 -2.54809e-20 0.0121353)
(-0.0261302 -3.05123e-22 0.0116484)
(0.000119936 0 0.00922078)
(0.0228939 0 0.0067053)
(0.0527874 0 0.00227481)
(0.0757567 -1.36629e-20 -0.00149842)
(0.106338 -2.44209e-20 -0.00720816)
(0.125229 -5.68899e-21 -0.0114087)
(0.153194 -4.8514e-20 -0.0178271)
(0.165064 3.72996e-20 -0.0217826)
(0.190271 6.72912e-20 -0.0283757)
(0.195836 0 -0.0312434)
(0.221737 0 -0.0374692)
(0.224203 1.18969e-22 -0.0386878)
(0.255274 0 -0.0446541)
(0.256643 0 -0.0444727)
(0.294734 -1.39579e-19 -0.0511285)
(0.293663 0 -0.0502898)
(0.337516 0 -0.0585421)
(0.330055 -2.09824e-19 -0.0570922)
(0.378315 -9.27126e-20 -0.0670916)
(0.362469 0 -0.0643709)
(0.414234 0 -0.0756742)
(0.391591 0 -0.0714424)
(0.448616 1.63903e-19 -0.0841793)
(0.414303 0 -0.0779462)
(0.4779 3.43937e-19 -0.0924235)
(0.440664 3.18957e-19 -0.0848887)
(0.475354 0 -0.0975687)
(0.494844 0 -0.0938302)
(0.465442 -4.20266e-19 -0.102676)
(0.528485 2.80552e-21 -0.102139)
(0.60965 -4.74654e-18 -0.116591)
(0.397803 -8.10809e-18 -0.112815)
(1.05516 6.74047e-18 -0.134907)
(-0.103822 -3.86496e-17 -0.121172)
(2.37018 8.38802e-17 -0.23302)
(-2.63886 -6.12958e-20 0.236933)
(6.5696 0 -1.18268)
(-4.6705 9.41896e-17 1.12719)
(3.28204 0 -1.32376)
(6.02214 0 -0.124855)
(-14.6327 -4.05146e-16 1.87383)
(24.6149 0 -3.33166)
(-51.6679 0 9.0347)
(56.0761 0 -12.4508)
(-26.1565 -3.00352e-16 9.32823)
(-16.3143 0 -1.09326)
(76.6066 6.36627e-17 -11.3676)
(-116.592 0 22.9184)
(72.1296 0 -17.4023)
(-81.8602 0 19.1919)
(41.3122 0 -12.5773)
(28.7041 0 -2.90447)
(-23.8212 1.31029e-16 3.30205)
(105.341 1.67505e-16 -15.3924)
(-195.224 7.13698e-16 37.3418)
(112.853 0 -30.8261)
(-1.2756 0 8.06459)
(-60.8813 1.13219e-16 8.60736)
(128.963 0 -29.0319)
(0.684458 2.54848e-17 4.03866)
(4.54705 0 3.34593)
(-104.685 1.51313e-16 19.2643)
(38.5426 -2.2909e-16 -13.9029)
(86.1481 0 -13.6994)
(-63.4777 1.78076e-16 16.1027)
(-28.5482 0 4.39152)
(-0.081552 -4.31054e-22 -0.0659036)
(-0.0829195 -4.04589e-22 -0.0354762)
(-0.0772148 -4.79693e-23 0.00325167)
(-0.0574667 2.78426e-23 0.0203989)
(-0.038312 4.06766e-22 0.0116497)
(-0.0292929 0 -0.00540293)
(-0.0245745 0 -0.0137456)
(-0.0147771 -1.80049e-21 -0.00876115)
(0.00352575 -4.02074e-21 0.00309983)
(0.0285515 -2.69476e-23 0.0133785)
(0.0579862 2.2084e-21 0.0196093)
(0.0909078 -2.22926e-21 0.0256503)
(0.125821 2.14181e-21 0.0353209)
(0.158635 0 0.0462459)
(0.184399 0 0.0510831)
(0.20158 -1.84867e-21 0.044413)
(0.214014 6.61947e-21 0.0275872)
(0.227902 5.88395e-21 0.00725792)
(0.246729 0 -0.00983558)
(0.269131 0 -0.0207566)
(0.291095 0 -0.0265523)
(0.309093 7.89278e-23 -0.0301013)
(0.321276 -3.84798e-21 -0.0341536)
(0.327427 1.88471e-21 -0.0404547)
(0.328937 3.55657e-21 -0.0494003)
(0.32815 -6.33014e-21 -0.059979)
(0.326834 2.83212e-21 -0.0704039)
(0.325029 2.30871e-21 -0.0791771)
(0.321459 1.66645e-21 -0.0857639)
(0.314674 0 -0.0904262)
(0.303972 1.13657e-22 -0.0937391)
(0.289339 -9.17174e-22 -0.0961624)
(0.271226 2.12861e-21 -0.0979579)
(0.249999 6.143e-21 -0.0991265)
(0.226094 1.73011e-20 -0.0995742)
(0.199618 0 -0.0990725)
(0.17094 0 -0.0974996)
(0.140111 1.54171e-20 -0.0946552)
(0.107916 0 -0.0905348)
(0.0747475 -1.91208e-20 -0.0850184)
(0.0421578 -2.04408e-20 -0.0783109)
(0.0107169 0 -0.0704113)
(-0.0174898 -8.44389e-20 -0.0617576)
(-0.0422896 -4.01929e-20 -0.0524275)
(-0.0612949 0 -0.0430916)
(-0.0753459 -3.18345e-20 -0.0337629)
(-0.0820269 -2.65469e-20 -0.0251847)
(-0.0839702 0 -0.0170993)
(-0.0785637 2.61599e-20 -0.0103623)
(-0.0703238 -5.05568e-21 -0.00441494)
(-0.0554029 -2.11757e-21 -0.000284187)
(-0.0400826 0 0.00299297)
(-0.0181227 4.20407e-22 0.00411866)
(0.00196883 -3.89647e-20 0.00463639)
(0.0295047 0 0.002892)
(0.0525149 0 0.00112422)
(0.0840973 1.66153e-21 -0.00294826)
(0.107234 6.47118e-21 -0.0062132)
(0.139923 2.25822e-20 -0.0118794)
(0.158786 5.34778e-21 -0.0158037)
(0.189365 4.56004e-20 -0.0225598)
(0.200979 -1.74784e-20 -0.0265067)
(0.229511 -1.26039e-19 -0.033832)
(0.234539 0 -0.0368297)
(0.2646 0 -0.0440296)
(0.26605 -3.659e-20 -0.0452696)
(0.302178 0 -0.0522858)
(0.301854 0 -0.0518562)
(0.346075 1.31095e-19 -0.059645)
(0.342524 0 -0.0583163)
(0.393827 -1.0758e-19 -0.0679567)
(0.382959 6.27077e-22 -0.0658413)
(0.440178 8.70395e-20 -0.0776365)
(0.41982 0 -0.0740924)
(0.482161 0 -0.0876608)
(0.453822 0 -0.0823183)
(0.523073 1.53793e-19 -0.0978598)
(0.482034 0 -0.0901771)
(0.559232 -1.61057e-19 -0.107805)
(0.514954 -5.99566e-19 -0.0987946)
(0.563627 0 -0.115237)
(0.578386 0 -0.109217)
(0.560621 0 -0.124487)
(0.626663 -1.02334e-21 -0.119485)
(0.711891 4.44976e-18 -0.140443)
(0.513961 -7.50379e-18 -0.140793)
(1.17537 -6.31745e-18 -0.143952)
(-0.00839519 -3.6349e-17 -0.183902)
(2.62988 0 -0.199086)
(-2.86417 -1.1672e-16 0.151441)
(7.47671 0 -1.27898)
(-5.5194 -8.82242e-17 1.35926)
(4.35297 0 -1.77048)
(6.13643 0 0.256534)
(-15.6353 0 1.65182)
(27.5384 -3.7813e-16 -3.24423)
(-57.8247 1.89553e-16 9.74536)
(63.1104 0 -14.3314)
(-33.2829 2.81141e-16 11.9934)
(-11.6384 2.24869e-16 -3.81061)
(84.8558 -5.95676e-17 -11.287)
(-129.556 -4.15221e-16 25.7455)
(81.5191 0 -20.4508)
(-100.224 0 23.8578)
(50.4355 0 -16.1624)
(26.1161 0 -2.11528)
(-17.1603 -1.22524e-16 0.943013)
(121.86 3.58308e-17 -16.104)
(-214.831 -1.33439e-15 41.232)
(121.699 0 -35.5564)
(-23.7641 0 15.5773)
(-48.0354 -5.28939e-17 4.024)
(150.711 0 -33.938)
(-7.83698 -2.38156e-17 7.58108)
(6.72053 0 4.33209)
(-115.177 -2.82466e-16 20.8268)
(45.5393 0 -17.7512)
(91.3698 0 -13.4032)
(-72.5843 -1.66351e-16 19.3281)
(-30.5632 0 4.24378)
(-0.0737181 0 -0.0542995)
(-0.0695873 1.71376e-22 -0.0315565)
(-0.0656134 0 -0.00366546)
(-0.0518078 -2.34817e-22 0.0117515)
(-0.0350938 -8.18137e-22 0.00956876)
(-0.0257869 0 -0.00072014)
(-0.0218557 7.25079e-22 -0.00697271)
(-0.0154491 0 -0.00380542)
(-0.00247596 3.063e-23 0.00566194)
(0.0166299 -3.94516e-21 0.0147602)
(0.0402233 0 0.0204283)
(0.0680448 0 0.0256525)
(0.100384 -2.01456e-21 0.035038)
(0.134993 0 0.0477975)
(0.166461 0 0.0565123)
(0.189831 0 0.0534636)
(0.205078 -3.11324e-21 0.0375987)
(0.217454 -2.77806e-21 0.0153219)
(0.232796 -2.51881e-21 -0.00476537)
(0.252694 0 -0.0177634)
(0.274473 0 -0.0241779)
(0.294507 -1.93444e-21 -0.0274585)
(0.310227 1.84769e-21 -0.0310543)
(0.320188 -1.77263e-21 -0.0372329)
(0.324483 -3.34504e-21 -0.0468025)
(0.325072 6.27474e-21 -0.0588353)
(0.324464 1.6023e-22 -0.071137)
(0.323667 -2.17133e-21 -0.0816245)
(0.321753 -1.56726e-21 -0.0894565)
(0.316964 0 -0.094966)
(0.308163 0 -0.098981)
(0.295106 8.62545e-22 -0.102161)
(0.278286 0 -0.104855)
(0.258164 -5.77681e-21 -0.107042)
(0.235322 -7.97742e-21 -0.108585)
(0.20994 9.82122e-21 -0.109182)
(0.182511 0 -0.108675)
(0.153021 -1.44964e-20 -0.106796)
(0.122257 -1.61145e-20 -0.103535)
(0.0904329 3.26835e-22 -0.0987215)
(0.0591875 3.81244e-20 -0.0925942)
(0.0289221 0 -0.0850921)
(0.00189958 3.94916e-20 -0.076703)
(-0.0219814 0 -0.067422)
(-0.0400367 0 -0.0580096)
(-0.0534587 0 -0.0483673)
(-0.0593245 1.6364e-22 -0.0393591)
(-0.0608018 0 -0.0305732)
(-0.0545743 -1.23296e-20 -0.0230677)
(-0.0459983 9.65514e-21 -0.0161101)
(-0.0302094 1.98991e-21 -0.011031)
(-0.0146893 0 -0.00663691)
(0.00829702 1.07198e-20 -0.00462269)
(0.0285405 3.563e-20 -0.00308755)
(0.0574469 0 -0.0041662)
(0.0806063 0 -0.00510191)
(0.114001 -1.56076e-21 -0.00878881)
(0.13721 -5.85359e-21 -0.0114078)
(0.1722 -1.05293e-20 -0.0169837)
(0.190944 -4.97479e-21 -0.0204647)
(0.22441 0 -0.0275193)
(0.235656 0 -0.0312778)
(0.267856 5.6422e-22 -0.0393168)
(0.272191 -2.12529e-20 -0.0422568)
(0.30682 0 -0.0504517)
(0.307034 1.71896e-20 -0.0515424)
(0.348708 0 -0.0597087)
(0.346402 0 -0.0589054)
(0.397331 0 -0.0680234)
(0.39092 0 -0.0661044)
(0.450342 5.59554e-22 -0.077389)
(0.435583 7.01633e-22 -0.0744745)
(0.502542 -8.12119e-20 -0.0883396)
(0.477089 0 -0.0837682)
(0.550929 -7.06541e-20 -0.0999014)
(0.516207 0 -0.0931837)
(0.598751 -1.44212e-19 -0.111883)
(0.550187 -2.70311e-19 -0.102431)
(0.642185 -1.50479e-19 -0.12364)
(0.58995 2.81568e-19 -0.112727)
(0.654012 0 -0.133508)
(0.662796 -2.91433e-19 -0.124597)
(0.658244 0 -0.147064)
(0.725455 -2.50322e-18 -0.136803)
(0.815779 4.13918e-18 -0.164944)
(0.630772 7.02958e-18 -0.169329)
(1.29212 0 -0.151507)
(0.0969723 6.81076e-17 -0.252581)
(2.85697 0 -0.150684)
(-3.01671 -1.0888e-16 0.0359224)
(8.25619 0 -1.33401)
(-6.28004 -8.17615e-17 1.55176)
(5.43943 0 -2.24501)
(6.02178 1.99591e-16 0.746446)
(-16.1174 3.54507e-16 1.25176)
(29.8578 3.53853e-16 -2.91745)
(-62.724 -1.77366e-16 10.1254)
(68.9471 0 -15.9984)
(-40.4342 -5.25835e-16 14.9179)
(-5.86674 -4.20068e-16 -7.11795)
(91.0724 0 -10.4245)
(-138.678 3.88332e-16 27.9503)
(89.5027 0 -23.3416)
(-117.591 0 28.4724)
(58.316 5.51951e-16 -20.1245)
(21.0871 0 0.436075)
(-7.88679 0 -2.28516)
(136.548 -1.79887e-16 -15.9197)
(-227.797 1.24662e-15 44.028)
(127.621 -4.83052e-16 -39.8557)
(-49.4017 0 22.8961)
(-33.1576 0 -1.77267)
(168.722 0 -37.87)
(-14.9628 0 11.2437)
(10.2304 -5.68826e-17 5.17291)
(-122.721 1.31799e-16 21.7554)
(51.3543 0 -21.684)
(92.7863 0 -12.1028)
(-78.8636 0 22.191)
(-31.6807 0 3.80528)
(-0.0681503 -3.0016e-23 -0.0455112)
(-0.0603969 0 -0.0272961)
(-0.0570787 2.40623e-22 -0.00575324)
(-0.0480631 0 0.00816548)
(-0.034413 4.0927e-22 0.0100497)
(-0.0250737 0 0.00485673)
(-0.0202456 -6.81467e-22 0.000858346)
(-0.0143954 1.58159e-21 0.00301739)
(-0.00410672 3.44781e-21 0.0103619)
(0.0107778 5.05491e-23 0.0180792)
(0.0291623 0 0.0227697)
(0.0510829 0 0.0264296)
(0.0779508 0 0.0338439)
(0.109908 0 0.04609)
(0.143324 0 0.0571973)
(0.172019 0 0.058416)
(0.191952 2.87411e-21 0.0457884)
(0.204965 -2.63384e-21 0.0236568)
(0.217119 2.36672e-21 0.00124266)
(0.232926 0 -0.0143382)
(0.252207 0 -0.0221787)
(0.272229 1.96946e-21 -0.0257945)
(0.290385 1.88809e-21 -0.0291463)
(0.304364 1.8196e-21 -0.0349124)
(0.312533 0 -0.0444631)
(0.315455 -3.02589e-21 -0.0573718)
(0.315766 -5.47928e-21 -0.0713241)
(0.315661 2.35461e-21 -0.0835753)
(0.31515 0 -0.0927333)
(0.312497 0 -0.0990545)
(0.306047 0 -0.103634)
(0.295075 -4.67436e-22 -0.10741)