/*--------------------------------*- C++ -*----------------------------------*\
| =========                 |                                                 |
| \\      /  F ield         | OpenFOAM: The Open Source CFD Toolbox           |
|  \\    /   O peration     | Version:  2412                                  |
|   \\  /    A nd           | Website:  www.openfoam.com                      |
|    \\/     M anipulation  |                                                 |
\*---------------------------------------------------------------------------*/
FoamFile
{
    version     2.0;
    format      ascii;
    arch        "LSB;label=32;scalar=64";
    class       volScalarField;
    location    "0.91";
    object      Co;
}
// * * * * * * * * * * * * * * * * * * * * * * * * * * * * * * * * * * * * * //

dimensions      [0 0 0 0 0 0 0];

internalField   nonuniform List<scalar> 
12600
(
0.31471
0.176635
0.100034
0.0629458
0.0449754
0.0350567
0.0286583
0.0240776
0.0206036
0.0178677
0.015653
0.0138229
0.0122858
0.010978
0.00985325
0.00887733
0.00802413
0.00727338
0.0066091
0.00601848
0.00549113
0.0050185
0.0045935
0.00421019
0.00386358
0.00354939
0.00326397
0.00300419
0.0027673
0.00255095
0.00235305
0.00217178
0.00200554
0.00185289
0.00171257
0.00158347
0.00146456
0.00135496
0.00125384
0.00116049
0.00107425
0.000994513
0.000920753
0.000852482
0.000789254
0.00073067
0.00067636
0.000625992
0.000579257
0.00053588
0.000495599
0.000458187
0.00042342
0.000391111
0.000361067
0.000333135
0.000307145
0.000282973
0.000260471
0.000239539
0.000220043
0.000201907
0.000185008
0.000169289
0.000154638
0.000141015
0.000128313
0.00011651
0.000105504
9.5287e-05
8.57594e-05
7.69281e-05
6.86946e-05
6.10784e-05
5.39824e-05
4.74368e-05
4.13459e-05
3.57484e-05
3.05508e-05
2.57977e-05
2.13989e-05
1.74019e-05
1.37221e-05
1.04036e-05
7.37686e-06
4.66305e-06
2.23731e-06
1.98385e-06
3.62358e-06
5.46338e-06
5.99994e-06
8.44335e-06
7.98221e-06
8.2307e-06
1.30681e-05
1.23388e-05
1.48986e-05
1.40557e-05
9.65179e-06
1.9692e-05
1.85545e-05
2.20985e-05
2.08043e-05
9.99399e-06
2.60699e-05
2.46947e-05
2.45154e-05
2.28742e-05
1.5776e-05
3.3543e-05
3.14799e-05
5.71422e-06
4.24534e-05
3.97936e-05
2.23418e-05
4.75663e-05
3.34295e-05
2.53794e-05
1.64902e-05
1.688e-05
0.477794
0.376431
0.276342
0.202471
0.153141
0.120551
0.0982363
0.0821381
0.0699699
0.0604361
0.0527599
0.0464476
0.0411697
0.0366968
0.0328641
0.0295495
0.0266604
0.0241253
0.021888
0.0199035
0.0181355
0.0165542
0.015135
0.0138574
0.012704
0.0116601
0.0107133
0.00985273
0.00906906
0.00835422
0.00770114
0.00710363
0.00655623
0.00605412
0.00559305
0.0051692
0.00477919
0.00442
0.0040889
0.00378346
0.00350148
0.00324099
0.00300017
0.00277743
0.00257127
0.00238036
0.00220349
0.00203954
0.0018875
0.00174646
0.00161555
0.00149401
0.00138112
0.00127626
0.00117878
0.00108818
0.00100392
0.000925574
0.00085266
0.000784854
0.000721712
0.000662988
0.000608276
0.000557397
0.000509972
0.000465883
0.000424771
0.000386574
0.000350943
0.00031787
0.000287012
0.000258409
0.000231721
0.000207031
0.000184002
0.000162752
0.00014295
0.00012474
0.000107799
9.22919e-05
7.79032e-05
6.48099e-05
5.27171e-05
4.17807e-05
3.17817e-05
2.27441e-05
1.47234e-05
7.991e-06
8.23296e-06
1.4205e-05
1.54027e-05
2.52022e-05
2.14043e-05
2.47846e-05
3.99242e-05
3.83275e-05
5.14469e-05
4.54568e-05
3.24999e-05
6.23617e-05
6.42062e-05
8.20329e-05
6.95846e-05
3.19703e-05
8.6481e-05
8.89637e-05
9.54664e-05
7.38916e-05
5.60409e-05
0.000125121
0.000111984
1.78067e-05
0.000158115
0.00013935
7.12253e-05
0.000174904
0.000103041
8.98655e-05
5.99853e-05
4.83156e-05
0.512292
0.468472
0.397187
0.325384
0.264489
0.21645
0.179582
0.151273
0.129199
0.111644
0.09741
0.0856692
0.0758422
0.0675148
0.0603843
0.0542241
0.0488616
0.0441627
0.0400215
0.0363536
0.0330904
0.0301759
0.0275637
0.0252151
0.0230976
0.0211835
0.0194493
0.0178749
0.0164427
0.0151376
0.0139465
0.0128578
0.0118612
0.010948
0.01011
0.00934034
0.00863267
0.0079814
0.00738149
0.00682847
0.00631825
0.0058472
0.00541201
0.00500971
0.00463756
0.00429315
0.00397421
0.00367874
0.00340485
0.00315089
0.00291527
0.00269663
0.00249361
0.00230511
0.00212994
0.0019672
0.00181588
0.00167523
0.00154437
0.00142271
0.00130944
0.00120412
0.00110601
0.00101479
0.000929768
0.000850739
0.000777041
0.000708575
0.000644698
0.000585407
0.000530068
0.000478768
0.000430876
0.000386558
0.000345187
0.000306996
0.000271363
0.000238575
0.000208019
0.000180021
0.000153984
0.000130256
0.000108277
8.83456e-05
7.0093e-05
5.344e-05
3.87811e-05
2.47864e-05
1.75083e-05
2.18279e-05
2.27985e-05
4.38436e-05
3.24147e-05
4.33743e-05
6.96818e-05
6.8113e-05
0.000100798
8.5425e-05
6.29401e-05
0.000112165
0.000127882
0.000171884
0.000136255
6.18919e-05
0.000162674
0.00018562
0.000208807
0.000140897
0.000111836
0.000262766
0.000232414
2.65624e-05
0.000329561
0.000286707
0.000132823
0.000367884
0.000186848
0.000181675
0.000123937
7.62802e-05
0.504235
0.490963
0.453048
0.402661
0.350274
0.301597
0.259088
0.223184
0.193292
0.168466
0.147765
0.130377
0.115649
0.103069
0.0922383
0.0828478
0.0746534
0.0674615
0.0611171
0.0554946
0.0504914
0.0460228
0.0420184
0.0384193
0.0351755
0.0322448
0.029591
0.0271829
0.0249938
0.0230001
0.0211816
0.0195204
0.0180009
0.0166091
0.0153329
0.0141614
0.0130849
0.0120948
0.0111832
0.0103434
0.00956896
0.00885436
0.00819448
0.00758477
0.00702105
0.00649957
0.00601687
0.00556989
0.00515573
0.00477186
0.00441585
0.00408562
0.00377909
0.00349457
0.00323028
0.00298481
0.00275663
0.00254461
0.00234738
0.00216407
0.00199344
0.00183481
0.00168707
0.00154972
0.00142172
0.00130275
0.00119181
0.00108874
0.000992582
0.000903311
0.000819981
0.000742709
0.000670552
0.000603747
0.000541356
0.000483718
0.000429902
0.000380331
0.000334085
0.000291653
0.000252127
0.000216044
0.000182547
0.000152085
0.000124152
9.84614e-05
7.60137e-05
5.40656e-05
3.63635e-05
3.15806e-05
2.76193e-05
6.31273e-05
3.98046e-05
6.3816e-05
0.000100132
9.90776e-05
0.000160395
0.000132277
0.000101679
0.000164541
0.000204499
0.000286785
0.00021904
0.000104286
0.000247117
0.000307754
0.000359421
0.000224733
0.000175361
0.0004349
0.0003879
4.54713e-05
0.000540548
0.00047724
0.000195252
0.00061194
0.000286835
0.000292097
0.00020375
9.61574e-05
0.488045
0.483239
0.465037
0.435144
0.398512
0.359445
0.321035
0.285185
0.252813
0.224166
0.199097
0.17727
0.158286
0.141751
0.127308
0.114648
0.103509
0.0936718
0.0849514
0.0771945
0.0702721
0.0640756
0.0585134
0.0535076
0.0489917
0.0449087
0.0412096
0.0378519
0.0347988
0.0320181
0.0294817
0.0271649
0.0250459
0.0231055
0.0213266
0.019694
0.0181942
0.0168151
0.0155459
0.0143769
0.0132993
0.0123053
0.0113877
0.0105402
0.00975687
0.00903247
0.00836217
0.00774167
0.00716692
0.00663437
0.00614063
0.00568277
0.00525791
0.00486366
0.00449753
0.00415757
0.00384163
0.00354813
0.00327518
0.00302152
0.00278546
0.00256604
0.00236171
0.00217177
0.00199478
0.00183028
0.00167689
0.00153438
0.00140142
0.00127796
0.00116271
0.00105581
0.000955959
0.000863467
0.000777056
0.000697168
0.000622535
0.000553716
0.000489455
0.000430413
0.000375341
0.000324975
0.000278133
0.000235423
0.000196205
0.000159903
0.000128334
9.69034e-05
7.19566e-05
4.97673e-05
2.94419e-05
8.16457e-05
4.19806e-05
8.54962e-05
0.000129367
0.0001287
0.000227637
0.000183789
0.000148649
0.000215817
0.000289319
0.000421615
0.000315331
0.000160021
0.000333417
0.000448684
0.000541317
0.000324736
0.000239652
0.000630066
0.00057257
9.09721e-05
0.000775473
0.000704811
0.000248758
0.000891887
0.000403398
0.000412771
0.000294028
0.000112746
0.473849
0.46817
0.457233
0.439328
0.415571
0.387839
0.358022
0.327756
0.298266
0.270364
0.244509
0.220897
0.199544
0.180353
0.163165
0.147795
0.134055
0.121765
0.110759
0.100887
0.092018
0.0840356
0.0768381
0.0703366
0.0644537
0.0591215
0.0542807
0.0498793
0.0458716
0.0422173
0.038881
0.0358313
0.0330404
0.0304834
0.0281384
0.0259858
0.0240078
0.0221889
0.0205147
0.0189727
0.0175513
0.0162402
0.0150301
0.0139124
0.0128796
0.0119246
0.011041
0.0102232
0.00946587
0.00876425
0.00811389
0.00751091
0.00695149
0.00643246
0.00595055
0.00550316
0.00508746
0.00470134
0.00434231
0.0040087
0.00369829
0.00340978
0.00314116
0.00289145
0.0026588
0.00244255
0.00224093
0.00205358
0.00187879
0.00171646
0.00156492
0.00142429
0.00129293
0.00117118
0.0010574
0.000952133
0.000853738
0.000762917
0.000678044
0.000599959
0.00052704
0.000460237
0.000398005
0.00034113
0.000288819
0.000240165
0.000197942
0.000155368
0.000121902
9.13823e-05
4.61816e-05
9.91571e-05
3.7129e-05
0.000107536
0.000155548
0.000154376
0.000299761
0.000237443
0.000203243
0.000262939
0.000377808
0.000570927
0.000421942
0.000229859
0.000416196
0.000601961
0.000747631
0.000438967
0.000298641
0.000837317
0.000779856
0.000162346
0.00101994
0.000962047
0.000285896
0.00119217
0.000535425
0.000535691
0.000388424
0.000136276
0.462556
0.454226
0.444381
0.43131
0.414737
0.395104
0.373145
0.349702
0.325596
0.301526
0.278046
0.255561
0.234338
0.21453
0.196202
0.17935
0.163927
0.149856
0.137045
0.125394
0.114805
0.10518
0.0964311
0.0884731
0.08123
0.0746322
0.0686171
0.0631283
0.0581152
0.0535322
0.0493386
0.0454979
0.0419773
0.0387473
0.0357816
0.0330564
0.0305502
0.0282438
0.0261197
0.0241622
0.0223571
0.0206915
0.0191537
0.0177331
0.01642
0.0152057
0.0140822
0.0130423
0.0120792
0.0111869
0.0103599
0.00959305
0.00888168
0.00822168
0.00760894
0.00704011
0.00651161
0.00602074
0.00556436
0.00514029
0.00474575
0.00437905
0.00403764
0.00372028
0.0034246
0.00314975
0.0028935
0.00265535
0.00243317
0.00222677
0.00203406
0.00185518
0.00168805
0.00153308
0.0013882
0.00125407
0.00112863
0.00101273
0.000904352
0.000804508
0.00071117
0.000625522
0.000545612
0.000472428
0.000404994
0.000342056
0.000287421
0.000231893
0.00018845
0.000148089
8.88464e-05
0.000133251
2.32963e-05
0.000128829
0.000176869
0.000173393
0.000373849
0.000290488
0.000264329
0.000303447
0.000465636
0.000729053
0.000535259
0.000313521
0.000491218
0.000761438
0.000970822
0.00056445
0.000347243
0.00104671
0.00100288
0.00025864
0.00126146
0.00124085
0.000301645
0.00149726
0.000680532
0.000653364
0.000479759
0.000168315
0.453223
0.442829
0.43223
0.420375
0.406799
0.391458
0.374533
0.35633
0.337223
0.317596
0.297809
0.278186
0.258997
0.240461
0.222741
0.205948
0.190151
0.175381
0.161637
0.148899
0.137127
0.126273
0.116282
0.107096
0.0986567
0.0909069
0.0837918
0.0772595
0.0712616
0.065753
0.0606922
0.0560409
0.0517642
0.0478301
0.0442094
0.0408753
0.0378038
0.0349726
0.0323616
0.0299526
0.0277287
0.0256748
0.0237769
0.0220225
0.0203998
0.0188985
0.0175088
0.0162219
0.0150297
0.0139249
0.0129005
0.0119505
0.0110691
0.0102513
0.00949184
0.00878676
0.00813162
0.00752307
0.00695724
0.00643144
0.00594223
0.0054875
0.00506412
0.00467051
0.00430379
0.00396285
0.00364497
0.00334949
0.00307378
0.0028176
0.00257839
0.00235624
0.00214865
0.00195606
0.00177596
0.00160909
0.00145297
0.00130859
0.00117347
0.00104885
0.000932225
0.000825046
0.000724904
0.000633018
0.000548182
0.000468813
0.000399762
0.0003293
0.000274191
0.000222148
0.000147454
0.000179372
9.16461e-06
0.000151848
0.000191497
0.000182895
0.000446854
0.000339977
0.000330261
0.000335463
0.000548661
0.000890282
0.00065142
0.000409629
0.000555498
0.000921285
0.00120297
0.000697459
0.000381482
0.00124982
0.00123483
0.000378334
0.00149014
0.00153277
0.000307747
0.00180558
0.000835306
0.000759001
0.000560286
0.000208218
0.445163
0.433444
0.421935
0.410051
0.397431
0.383939
0.369588
0.354476
0.338744
0.32256
0.306094
0.289517
0.27299
0.256667
0.240682
0.225155
0.210183
0.195844
0.182194
0.16927
0.15709
0.145657
0.134962
0.124986
0.115703
0.107079
0.0990813
0.0916722
0.0848147
0.0784721
0.0726086
0.0671897
0.0621827
0.0575566
0.0532826
0.0493335
0.0456842
0.0423113
0.0391933
0.0363102
0.0336436
0.0311767
0.0288937
0.0267804
0.0248234
0.0230109
0.0213314
0.019775
0.0183319
0.0169936
0.0157521
0.0146002
0.0135309
0.0125382
0.0116161
0.0107597
0.00996373
0.00922414
0.0085363
0.00789696
0.00730199
0.00674882
0.00623371
0.0057547
0.00530836
0.00489329
0.00450623
0.00414635
0.0038105
0.00349833
0.00320677
0.00293591
0.00268272
0.00244769
0.00222783
0.00202398
0.00183316
0.00165653
0.00149111
0.00133836
0.00119528
0.00106359
0.00094038
0.000827127
0.000722343
0.000624155
0.000538417
0.000450848
0.000382125
0.000316322
0.000224647
0.000260323
4.32312e-05
0.000196634
0.000197464
0.000179815
0.000515625
0.000382817
0.000398907
0.00035761
0.000622897
0.00104906
0.000766473
0.000515677
0.000607279
0.00107594
0.00143615
0.000833884
0.000398648
0.00144018
0.00146918
0.000517343
0.00169904
0.0018293
0.000302777
0.00210219
0.000995733
0.000846755
0.000622153
0.000257762
0.438036
0.425467
0.413258
0.401073
0.388661
0.375884
0.362709
0.349168
0.335327
0.321265
0.307062
0.292795
0.278538
0.264363
0.25034
0.236538
0.223021
0.209852
0.197086
0.184772
0.172952
0.161655
0.150905
0.140713
0.131083
0.122013
0.113491
0.105504
0.0980334
0.0910566
0.0845505
0.0784905
0.0728516
0.0676086
0.0627368
0.0582122
0.0540118
0.0501134
0.0464961
0.04314
0.0400266
0.0371384
0.034459
0.0319732
0.0296667
0.0275266
0.0255404
0.0236969
0.0219854
0.0203964
0.0189207
0.01755
0.0162766
0.0150934
0.0139936
0.0129714
0.0120208
0.011137
0.0103147
0.00954992
0.00883796
0.00817574
0.00755886
0.00698499
0.00645007
0.00595245
0.00548828
0.00505653
0.00465348
0.0042787
0.00392854
0.00360309
0.00329876
0.00301611
0.00275156
0.00250611
0.00227622
0.00206322
0.0018636
0.00167905
0.00150602
0.00134653
0.00119711
0.00105954
0.000931979
0.000812326
0.000707348
0.000600282
0.000515712
0.000433827
0.000323548
0.000359904
9.96106e-05
0.000256993
0.000202092
0.000160671
0.000576926
0.000415812
0.000467706
0.00036888
0.000684462
0.00120018
0.000876508
0.000628093
0.000645867
0.00122005
0.00166286
0.00096956
0.000397436
0.00161336
0.00169969
0.000669194
0.001884
0.00212195
0.000282276
0.00236924
0.00115757
0.000911958
0.000657977
0.000327523
0.431663
0.418522
0.405813
0.393329
0.380897
0.368394
0.355766
0.343012
0.330167
0.317279
0.304402
0.291579
0.278849
0.266247
0.253799
0.241531
0.229469
0.217638
0.206064
0.194777
0.183805
0.173176
0.162914
0.153043
0.14358
0.134539
0.125929
0.117752
0.110008
0.102693
0.0957977
0.0893114
0.0832204
0.0775094
0.072162
0.0671608
0.0624881
0.0581261
0.0540571
0.0502637
0.046729
0.0434369
0.0403716
0.0375184
0.0348631
0.0323925
0.0300939
0.0279556
0.0259663
0.0241159
0.0223944
0.020793
0.019303
0.0179168
0.0166267
0.0154264
0.014309
0.0132692
0.0123008
0.0113996
0.01056
0.00977844
0.00904996
0.00837186
0.00773944
0.00715078
0.0066014
0.00609012
0.00561261
0.00516834
0.00475306
0.00436686
0.00400555
0.00366974
0.00335528
0.00306328
0.00278962
0.00253583
0.00229779
0.00207746
0.00187068
0.0016798
0.00150073
0.00133561
0.00118216
0.00103812
0.00091106
0.000781873
0.000678923
0.000578382
0.000447739
0.000481292
0.00018006
0.000359336
0.000244976
0.000151624
0.000642619
0.000435723
0.000533782
0.00036842
0.000729501
0.00133891
0.000977708
0.000742384
0.000671309
0.00134844
0.00187633
0.00110048
0.000377972
0.00176674
0.00192036
0.000825471
0.002043
0.00240223
0.000248978
0.00259662
0.00131665
0.000951293
0.000661421
0.000457548
0.425914
0.412375
0.39931
0.386581
0.374068
0.36167
0.349323
0.337003
0.324721
0.312502
0.300384
0.288404
0.276592
0.264972
0.253562
0.242372
0.231409
0.220676
0.210176
0.199914
0.189896
0.180132
0.170631
0.161406
0.152471
0.143838
0.13552
0.127526
0.119866
0.112543
0.105563
0.0989237
0.092624
0.0866588
0.0810214
0.0757031
0.0706939
0.0659827
0.0615572
0.0574051
0.0535133
0.0498687
0.0464583
0.0432693
0.0402889
0.0375051
0.0349058
0.0324798
0.0302162
0.0281047
0.0261354
0.0242993
0.0225872
0.0209913
0.0195034
0.0181166
0.0168237
0.0156189
0.0144954
0.0134485
0.012472
0.0115622
0.0107133
0.00992238
0.00918411
0.00849635
0.00785401
0.00725574
0.0066966
0.00617599
0.00568904
0.00523585
0.00481157
0.00441694
0.00404712
0.00370345
0.00338108
0.00308183
0.0028009
0.00254056
0.00229595
0.00206983
0.00185742
0.00166124
0.0014785
0.0013069
0.00115462
0.00100044
0.000876275
0.000754243
0.000601302
0.000628033
0.000286286
0.000481778
0.000334365
0.000191136
0.000722846
0.000443168
0.000597695
0.000355252
0.000754094
0.00146099
0.0010663
0.000853401
0.000683945
0.00145609
0.00207069
0.00122283
0.000341629
0.00189895
0.00212519
0.000976571
0.00217503
0.00266171
0.00020604
0.00277658
0.00146902
0.000962853
0.000627598
0.000609061
0.420696
0.406874
0.393553
0.380633
0.36803
0.355664
0.343473
0.33142
0.319495
0.307704
0.296066
0.284609
0.273358
0.262335
0.251558
0.241039
0.230783
0.220791
0.211058
0.201579
0.192346
0.183354
0.174598
0.166077
0.157789
0.149739
0.141928
0.134364
0.12705
0.119995
0.113202
0.106677
0.100423
0.0944415
0.0887335
0.0832976
0.078131
0.0732295
0.0685874
0.0641981
0.060054
0.0561465
0.0524668
0.0490054
0.0457526
0.0426986
0.0398335
0.0371476
0.0346312
0.0322751
0.0300699
0.0280072
0.0260781
0.0242749
0.0225893
0.0210148
0.0195434
0.0181696
0.016886
0.0156879
0.0145686
0.0135241
0.0125481
0.0116376
0.0107866
0.00999293
0.00925083
0.00855892
0.00791161
0.00730831
0.00674349
0.00621732
0.00572427
0.00526525
0.00483469
0.00443417
0.00405811
0.00370865
0.00338022
0.00307548
0.00278881
0.00252341
0.00227373
0.00204276
0.00182711
0.00162452
0.00144364
0.00126135
0.00111285
0.000966227
0.000788859
0.000804225
0.000422587
0.000628154
0.000447994
0.000241114
0.000802672
0.000470921
0.00069005
0.000327904
0.000754089
0.0015625
0.00113843
0.000955669
0.000683894
0.00153822
0.00224092
0.00133285
0.000290579
0.00200898
0.00230813
0.00111268
0.00227895
0.00289219
0.000155928
0.00290333
0.00161099
0.00094602
0.000555996
0.000780171
0.415934
0.401908
0.388401
0.375337
0.362653
0.350287
0.338183
0.326302
0.314621
0.303131
0.291835
0.280746
0.269881
0.259256
0.248889
0.238793
0.228976
0.219444
0.210196
0.201225
0.192525
0.184086
0.175896
0.167947
0.160227
0.15273
0.145449
0.138381
0.131523
0.124874
0.118435
0.112207
0.106194
0.100397
0.0948182
0.0894595
0.0843218
0.0794054
0.0747094
0.070232
0.0659705
0.0619212
0.0580795
0.0544403
0.0509974
0.0477445
0.0446746
0.0417808
0.0390552
0.0364909
0.0340798
0.0318148
0.029688
0.0276927
0.0258212
0.0240672
0.0224234
0.0208841
0.0194423
0.0180932
0.01683
0.0156486
0.0145427
0.013509
0.0125412
0.0116371
0.0107904
0.00999989
0.00925926
0.00856809
0.00792015
0.00731582
0.00674884
0.00622036
0.00572407
0.00526185
0.00482734
0.00442305
0.0040426
0.00368911
0.00335612
0.00304734
0.00275639
0.00248677
0.00223444
0.00199726
0.00178419
0.00157046
0.00139429
0.00121971
0.00101559
0.00101458
0.000593773
0.000802537
0.000589447
0.000303584
0.000941809
0.000545148
0.00078279
0.000283764
0.000724669
0.0016395
0.00119005
0.00104377
0.000670561
0.00159033
0.00238247
0.0014266
0.000227085
0.00209539
0.00246317
0.00122477
0.00235255
0.00308606
9.96638e-05
0.00297258
0.00173917
0.000920882
0.000522416
0.00101985
0.411567
0.397393
0.38375
0.370579
0.357829
0.34545
0.333396
0.321628
0.310118
0.298847
0.287809
0.277002
0.266433
0.256111
0.246047
0.236252
0.226736
0.217506
0.208565
0.199913
0.191545
0.183455
0.175634
0.168071
0.160754
0.153673
0.146814
0.140169
0.133729
0.127484
0.121431
0.115563
0.109879
0.104375
0.099052
0.0939086
0.0889453
0.0841626
0.0795609
0.0751404
0.0709008
0.0668414
0.0629608
0.0592572
0.0557279
0.0523699
0.0491792
0.0461519
0.043283
0.0405678
0.0380005
0.0355761
0.0332882
0.0311317
0.0291
0.0271881
0.0253891
0.0236985
0.0221094
0.0206178
0.0192168
0.0179031
0.0166698
0.0155143
0.0144299
0.0134146
0.0124619
0.0115706
0.010734
0.00995182
0.00921736
0.00853123
0.00788647
0.00728458
0.0067185
0.00619049
0.0056934
0.00523019
0.00479363
0.00438735
0.00400403
0.00364793
0.00331182
0.00299974
0.00270697
0.00243153
0.00218263
0.00193398
0.00172663
0.00152053
0.00128718
0.00126441
0.000805157
0.00100963
0.000763175
0.000381535
0.00111189
0.00063844
0.000904326
0.000259401
0.000712215
0.00172619
0.00121675
0.00111276
0.000642189
0.00160814
0.00249075
0.00149971
0.000184893
0.00215562
0.00258449
0.00130548
0.00239221
0.00323675
6.32906e-05
0.00298122
0.00187934
0.000927731
0.0004913
0.00127803
0.407543
0.393263
0.379522
0.366272
0.353471
0.341078
0.329052
0.317359
0.30597
0.294862
0.28402
0.273435
0.263104
0.253029
0.243213
0.233662
0.224384
0.215383
0.206665
0.198231
0.190082
0.182214
0.174623
0.1673
0.160237
0.153423
0.146848
0.140499
0.134365
0.128436
0.122701
0.117151
0.111779
0.106577
0.10154
0.0966635
0.0919443
0.0873798
0.0829683
0.0787087
0.0746003
0.0706424
0.0668345
0.063176
0.0596659
0.0563033
0.0530863
0.0500134
0.0470819
0.0442894
0.0416326
0.0391084
0.0367125
0.0344417
0.0322908
0.0302566
0.0283333
0.0265177
0.0248038
0.0231884
0.0216654
0.0202321
0.0188819
0.0176128
0.0164181
0.0152965
0.014241
0.013251
0.0123195
0.0114466
0.0106251
0.00985613
0.00913196
0.00845467
0.00781639
0.00721998
0.00665741
0.00613226
0.00563638
0.00517405
0.00473701
0.00433019
0.00394543
0.00358741
0.00325068
0.00293347
0.00264521
0.00235817
0.00211618
0.00187487
0.00160971
0.0015596
0.00106248
0.00125483
0.000974168
0.00048458
0.00130534
0.000742966
0.00108505
0.000352134
0.000761355
0.00180578
0.00125434
0.00119665
0.000595486
0.00158735
0.00256062
0.00154741
0.00018461
0.00218564
0.00266674
0.00134956
0.00239294
0.00335018
7.04794e-05
0.00292728
0.00204255
0.000972639
0.000451941
0.00154578
0.40382
0.389464
0.375653
0.362347
0.34951
0.337105
0.325098
0.313457
0.302154
0.291167
0.280475
0.270065
0.259927
0.250056
0.240449
0.231108
0.222033
0.213228
0.204696
0.196439
0.188458
0.180752
0.173319
0.166154
0.159252
0.152604
0.146203
0.140039
0.134101
0.128379
0.122862
0.117541
0.112405
0.107444
0.10265
0.0980151
0.0935326
0.0891965
0.0850019
0.0809446
0.0770213
0.0732295
0.0695671
0.0660325
0.0626244
0.0593418
0.0561834
0.0531485
0.0502356
0.0474436
0.0447707
0.0422156
0.0397754
0.0374488
0.0352323
0.033124
0.0311198
0.0292178
0.0274133
0.0257043
0.0240855
0.0225552
0.0211077
0.0197417
0.0184509
0.0172347
0.0160861
0.0150054
0.0139853
0.0130268
0.0121219
0.0112727
0.0104708
0.00971911
0.0090089
0.00834378
0.0077149
0.00712658
0.00656976
0.00604947
0.00555651
0.00509656
0.00466057
0.00425382
0.00387027
0.00350821
0.00317752
0.00284883
0.00256901
0.00228887
0.00198937
0.00190638
0.00137176
0.00154422
0.00122781
0.000668413
0.001527
0.000862759
0.00128544
0.000478629
0.000823348
0.00187017
0.00128198
0.00127834
0.000525014
0.00152359
0.00258659
0.00156469
0.000189923
0.00217978
0.00270513
0.00135412
0.00234882
0.00344311
0.000116549
0.00281636
0.0021933
0.00103011
0.000406796
0.0018175
0.400363
0.385954
0.372095
0.35875
0.345888
0.333476
0.321483
0.30988
0.298643
0.287746
0.27717
0.266897
0.256914
0.247211
0.237782
0.22862
0.219725
0.211094
0.202729
0.19463
0.186797
0.179229
0.171925
0.164883
0.158097
0.151564
0.145277
0.139229
0.133412
0.127817
0.122435
0.117257
0.112273
0.107474
0.10285
0.0983921
0.0940922
0.0899422
0.0859348
0.0820634
0.0783221
0.0747059
0.0712103
0.0678317
0.0645669
0.0614134
0.0583689
0.055432
0.0526006
0.0498739
0.04725
0.0447284
0.042307
0.0399854
0.0377609
0.0356331
0.0335989
0.0316577
0.0298058
0.0280427
0.0263639
0.0247691
0.023253
0.0218157
0.0204513
0.0191603
0.0179359
0.0167795
0.0156836
0.0146502
0.0136712
0.0127495
0.0118762
0.0110551
0.0102769
0.00954613
0.00885313
0.00820311
0.00758615
0.00700815
0.00645901
0.0059452
0.00545691
0.0049999
0.00456785
0.00415876
0.00378349
0.00341046
0.00309026
0.00276808
0.00243194
0.002311
0.00173892
0.00188434
0.00152969
0.000940332
0.00178227
0.00100266
0.00151182
0.00064043
0.000900336
0.00203463
0.0013989
0.00138356
0.000472786
0.00149119
0.00262382
0.00156549
0.000193316
0.00213075
0.00273883
0.00135959
0.00225358
0.00349728
0.000211398
0.00269391
0.00232763
0.00110303
0.000440827
0.00208769
0.39714
0.382696
0.368805
0.355436
0.342559
0.330145
0.318165
0.306593
0.295405
0.284579
0.274093
0.263928
0.25407
0.244505
0.235224
0.226217
0.217478
0.209003
0.200789
0.192835
0.185138
0.177698
0.170513
0.16358
0.156896
0.150457
0.144259
0.138296
0.132562
0.12705
0.121752
0.116662
0.111771
0.10707
0.102551
0.0982051
0.0940247
0.0900013
0.0861267
0.0823935
0.0787944
0.075323
0.0719729
0.0687388
0.0656154
0.0625986
0.0596843
0.0568696
0.054151
0.0515267
0.0489938
0.0465514
0.0441969
0.0419299
0.0397478
0.0376508
0.0356358
0.0337033
0.0318499
0.0300763
0.0283785
0.0267575
0.0252084
0.0237325
0.0223244
0.0209858
0.0197102
0.0185001
0.0173481
0.0162574
0.0152196
0.0142388
0.0133059
0.0124256
0.0115882
0.0107992
0.0100483
0.00934171
0.00866879
0.00803638
0.00743361
0.00686771
0.00632834
0.00582156
0.00534121
0.00488443
0.00446396
0.00404501
0.00368302
0.00331651
0.00294188
0.00277911
0.00216918
0.00228181
0.00188526
0.00126855
0.00207702
0.00116845
0.00177113
0.00084027
0.00099576
0.00221801
0.00153071
0.00156252
0.000583497
0.0015394
0.00263114
0.00159905
0.000282656
0.00206887
0.00274755
0.0013777
0.00212571
0.00351264
0.000317979
0.00265467
0.00256031
0.00119341
0.000642002
0.00235168
0.394126
0.379661
0.365751
0.352368
0.339485
0.327073
0.315106
0.303561
0.292415
0.281644
0.27123
0.261152
0.251395
0.241943
0.232784
0.223907
0.215304
0.206966
0.198888
0.191067
0.183497
0.176178
0.169105
0.162276
0.155688
0.149338
0.14322
0.137332
0.131667
0.126219
0.120984
0.115955
0.111124
0.106484
0.102029
0.0977509
0.0936422
0.0896955
0.0859032
0.0822581
0.0787529
0.0753808
0.0721349
0.0690091
0.0659971
0.0630938
0.0602934
0.0575919
0.0549843
0.0524677
0.0500378
0.0476925
0.0454282
0.0432438
0.0411358
0.0391041
0.0371453
0.0352598
0.0334441
0.0316993
0.0300214
0.0284121
0.0268667
0.0253875
0.0239692
0.0226146
0.0213172
0.0200809
0.018898
0.0177732
0.0166979
0.0156774
0.0147022
0.0137784
0.0128957
0.012061
0.0112631
0.0105096
0.00978917
0.00910956
0.00845939
0.00784653
0.0072605
0.00670721
0.00618151
0.00567865
0.00521466
0.00475005
0.00434663
0.00393518
0.00352101
0.00331464
0.00266602
0.00274244
0.00229919
0.00165926
0.00241741
0.00136687
0.0020713
0.00108084
0.00111328
0.00241932
0.00167913
0.00175603
0.000725888
0.0016012
0.00271899
0.00172015
0.000438945
0.00207746
0.00277825
0.00146203
0.00211732
0.00358125
0.000440558
0.00260073
0.00279302
0.00130232
0.000938188
0.00260582
0.391297
0.376822
0.362904
0.349516
0.336633
0.324228
0.312276
0.300756
0.289644
0.27892
0.268564
0.258557
0.248882
0.239523
0.230467
0.2217
0.213212
0.204993
0.197036
0.189334
0.181882
0.174675
0.167709
0.160981
0.154486
0.148221
0.142182
0.136365
0.130766
0.125378
0.120198
0.115219
0.110436
0.105842
0.101432
0.0971978
0.0931341
0.0892339
0.0854907
0.0818978
0.0784486
0.0751367
0.0719556
0.0688991
0.065961
0.0631358
0.0604173
0.057801
0.0552811
0.0528537
0.0505136
0.0482578
0.0460816
0.0439829
0.0419572
0.0400038
0.0381181
0.0363004
0.0345461
0.0328564
0.0312266
0.0296586
0.0281474
0.0266959
0.0252981
0.0239579
0.0226685
0.0214346
0.0202486
0.019116
0.0180279
0.016991
0.0159954
0.0150483
0.014139
0.0132756
0.0124466
0.0116605
0.0109055
0.0101902
0.00950322
0.0088525
0.00822822
0.00763524
0.00707072
0.00652647
0.00602378
0.00551648
0.00507437
0.0046202
0.00416649
0.0039182
0.0032297
0.00326986
0.00277449
0.00211706
0.00280947
0.00160551
0.00242093
0.00136432
0.00125657
0.00264119
0.00184956
0.00197327
0.000896073
0.0016776
0.0028369
0.00188354
0.000618968
0.00216255
0.0028822
0.00154998
0.00215018
0.00369175
0.000581788
0.00253627
0.00302229
0.00143044
0.00125121
0.00284729
0.388635
0.374158
0.360239
0.346853
0.333976
0.321582
0.309647
0.298151
0.287071
0.276387
0.26608
0.256132
0.246525
0.237243
0.228272
0.219598
0.211208
0.203092
0.195241
0.187646
0.180299
0.173196
0.16633
0.159697
0.153292
0.147111
0.14115
0.135404
0.129869
0.124541
0.119415
0.114485
0.109746
0.105193
0.10082
0.0966216
0.0925916
0.0887242
0.0850134
0.0814535
0.0780383
0.0747621
0.0716188
0.068603
0.0657087
0.0629308
0.0602633
0.0577015
0.0552398
0.0528739
0.0505984
0.0484098
0.0463027
0.0442746
0.0423202
0.040438
0.0386227
0.036874
0.0351863
0.0335605
0.0319909
0.0304795
0.0290201
0.0276159
0.0262602
0.0249572
0.0236996
0.0224926
0.0213279
0.0202121
0.0191355
0.018106
0.0171129
0.0161647
0.0152501
0.0143783
0.0135373
0.0127364
0.0119638
0.0112285
0.0105193
0.00984392
0.00919398
0.00857205
0.00797932
0.00740211
0.00686923
0.00632597
0.00585074
0.00536027
0.00486823
0.00458474
0.00385511
0.00386332
0.003311
0.00264312
0.00325828
0.0018924
0.00282854
0.00169194
0.00142926
0.00288726
0.0020483
0.00222379
0.00109041
0.00177114
0.00295638
0.00206307
0.000829419
0.00224432
0.00299018
0.00165083
0.00217118
0.00379939
0.000742935
0.00246854
0.00324687
0.00157805
0.00157615
0.0030737
0.386123
0.37165
0.357737
0.344359
0.331492
0.319112
0.307196
0.295723
0.284672
0.274025
0.263761
0.253863
0.244313
0.235097
0.226197
0.217601
0.209295
0.201268
0.193509
0.186007
0.178756
0.171747
0.164973
0.158429
0.152109
0.146009
0.140124
0.134448
0.128978
0.12371
0.118637
0.113757
0.109062
0.10455
0.100214
0.0960485
0.092049
0.0882099
0.0845256
0.0809907
0.0775997
0.0743475
0.0712284
0.0682374
0.065369
0.0626186
0.0599804
0.0574505
0.0550229
0.0526942
0.0504586
0.0483129
0.0462515
0.044272
0.0423684
0.0405394
0.0387788
0.0370862
0.0354553
0.0338867
0.0323739
0.0309186
0.0295137
0.0281624
0.0268571
0.0256021
0.024389
0.0232236
0.0220966
0.021015
0.0199686
0.0189657
0.0179949
0.0170656
0.0161659
0.0153054
0.014472
0.0136755
0.012904
0.0121664
0.0114526
0.0107685
0.010109
0.00947227
0.00886569
0.00826787
0.00771689
0.0071489
0.00664885
0.00613413
0.00560616
0.00530062
0.00452933
0.00451462
0.00390351
0.00323226
0.00376661
0.00223492
0.00330069
0.00206358
0.00163517
0.00316268
0.00228248
0.00251785
0.00130436
0.00188495
0.00308329
0.00226299
0.00107555
0.00232117
0.00310594
0.00177326
0.00218206
0.00390926
0.000923011
0.00240562
0.00346572
0.00174504
0.00190749
0.00328243
0.383744
0.369282
0.355379
0.342014
0.329161
0.316798
0.304902
0.293453
0.282431
0.271816
0.261591
0.251737
0.242237
0.233076
0.224237
0.215708
0.207474
0.199523
0.191843
0.184425
0.177257
0.170332
0.163643
0.157181
0.150942
0.144918
0.139106
0.133499
0.128093
0.122883
0.117866
0.113035
0.108386
0.103915
0.0996157
0.0954844
0.0915154
0.087704
0.0840449
0.0805331
0.0771634
0.073931
0.0708306