/*--------------------------------*- C++ -*----------------------------------*\
| =========                 |                                                 |
| \\      /  F ield         | OpenFOAM: The Open Source CFD Toolbox           |
|  \\    /   O peration     | Version:  2412                                  |
|   \\  /    A nd           | Website:  www.openfoam.com                      |
|    \\/     M anipulation  |                                                 |
\*---------------------------------------------------------------------------*/
FoamFile
{
    version     2.0;
    format      ascii;
    arch        "LSB;label=32;scalar=64";
    class       volVectorField;
    location    "0.065";
    object      ddtCorrDdt0(U);
}
// * * * * * * * * * * * * * * * * * * * * * * * * * * * * * * * * * * * * * //

dimensions      [0 1 -2 0 0 0 0];

internalField   nonuniform List<vector> 
12600
(
(63.2666 1.25585e-18 -2.36807)
(58.0717 3.00715e-18 -6.15841)
(50.0934 3.83169e-18 -6.78651)
(45.1803 0 -6.64512)
(42.0356 3.33409e-18 -6.35257)
(39.1935 3.09379e-18 -6.20121)
(36.4379 0 -6.16483)
(34.1733 0 -6.10911)
(32.7414 -9.0204e-18 -5.95264)
(32.018 0 -5.70617)
(31.5426 4.453e-18 -5.47692)
(30.8957 4.71168e-18 -5.33358)
(29.9986 -4.39749e-18 -5.26684)
(29.0316 0 -5.22333)
(28.2024 -1.45254e-18 -5.15964)
(27.601 0 -5.07061)
(27.1857 -5.38052e-18 -4.9823)
(26.847 0 -4.90209)
(26.5124 2.96633e-18 -4.83096)
(26.1234 2.36777e-18 -4.75944)
(25.6268 -2.21439e-18 -4.69208)
(25.1171 5.78268e-21 -4.65695)
(24.6909 0 -4.61005)
(24.4972 1.03868e-17 -4.53471)
(24.5477 0 -4.4239)
(24.6031 0 -4.26468)
(24.5441 1.18769e-17 -4.25349)
(24.2679 0 -4.29584)
(23.9514 -5.94688e-20 -4.30482)
(23.8864 -1.34535e-17 -4.31858)
(23.8399 -1.23413e-17 -4.21854)
(23.5313 -9.88502e-18 -4.24506)
(23.1663 7.71329e-18 -4.24101)
(22.8599 1.23939e-17 -4.22863)
(22.5899 1.11655e-17 -4.20339)
(22.4652 -1.13597e-17 -4.178)
(22.3777 0 -4.13341)
(22.2505 1.15469e-17 -4.10197)
(22.0937 0 -4.08214)
(21.9304 -1.24385e-17 -4.06429)
(21.723 0 -4.02395)
(21.6431 6.93473e-20 -3.9989)
(21.6615 0 -3.95238)
(21.4079 1.90802e-19 -3.90115)
(21.2112 7.50002e-18 -3.88885)
(21.2416 -1.78405e-17 -3.86202)
(20.7974 3.39092e-17 -3.81503)
(20.5568 0 -3.82248)
(20.7862 0 -3.77104)
(20.0047 5.40234e-17 -3.77324)
(19.7812 8.78478e-17 -3.81684)
(20.2258 8.66295e-17 -3.71619)
(19.1815 -6.2209e-20 -3.73515)
(19.5368 6.32501e-17 -3.7012)
(19.9821 0 -3.56784)
(18.5815 -8.68255e-17 -3.69455)
(19.4228 -5.39374e-17 -3.59688)
(19.0522 -7.79693e-17 -3.55889)
(18.0392 0 -3.68056)
(19.224 0 -3.4787)
(18.1696 0 -3.54211)
(18.3359 -1.35385e-17 -3.51934)
(18.6506 0 -3.40071)
(17.7612 0 -3.50768)
(18.504 1.06227e-16 -3.3631)
(17.7886 0 -3.40881)
(18.1063 0 -3.35596)
(17.986 0 -3.30726)
(17.517 -6.22925e-17 -3.37167)
(17.8723 3.65798e-17 -3.282)
(17.1819 4.31457e-17 -3.35546)
(17.4932 -2.50979e-19 -3.28643)
(17.1189 -7.50533e-17 -3.29986)
(17.2161 0 -3.26783)
(16.9892 1.26998e-16 -3.26162)
(16.9161 0 -3.26105)
(17.0016 0 -3.20628)
(16.7303 0 -3.22807)
(16.9977 -2.37456e-19 -3.15278)
(16.6734 4.76078e-16 -3.18135)
(16.8232 4.85123e-16 -3.13481)
(16.5513 -4.52978e-16 -3.15174)
(16.6835 -4.74206e-16 -3.11225)
(16.5031 0 -3.11093)
(16.5344 0 -3.09198)
(16.3891 7.36333e-16 -3.08841)
(16.3601 -1.66016e-15 -3.08363)
(16.3047 1.3948e-15 -3.06273)
(16.2023 7.67242e-16 -3.06945)
(16.2186 0 -3.03799)
(16.1133 -1.43186e-15 -3.04441)
(16.0133 6.30978e-16 -3.03307)
(15.9739 -7.22693e-16 -3.03012)
(15.9844 1.29092e-15 -2.99292)
(15.7816 0 -3.01923)
(15.8346 0 -2.97258)
(15.7718 0 -2.97814)
(15.5839 0 -2.96338)
(15.6586 0 -2.95067)
(15.5176 0 -2.9182)
(15.4183 -1.31872e-15 -2.9308)
(15.3382 -2.56342e-15 -2.88759)
(15.2621 -2.56649e-15 -2.90174)
(15.1173 0 -2.86353)
(15.0462 0 -2.86341)
(14.9409 0 -2.81874)
(14.9143 -2.4078e-15 -2.82763)
(14.615 -4.80798e-15 -2.77419)
(14.6729 2.37639e-15 -2.76904)
(14.1736 0 -2.68015)
(14.1084 -4.52209e-15 -2.67183)
(13.7987 0 -2.60046)
(13.4819 -4.2724e-15 -2.5444)
(13.4468 4.18324e-15 -2.53697)
(12.8277 -4.06666e-15 -2.41432)
(12.817 -3.92814e-15 -2.41241)
(12.2486 3.8097e-15 -2.30772)
(10.5884 2.3884e-19 -1.9839)
(11.448 3.53314e-15 -2.21954)
(3.35435 0 -0.588865)
(146.279 -1.27547e-18 -7.53731)
(132.49 0 -14.7309)
(123.019 -3.88799e-18 -15.6507)
(114.894 0 -16.0198)
(108.621 -3.3836e-18 -16.0405)
(102.922 -6.8449e-18 -16.169)
(97.8161 -3.10989e-18 -16.3295)
(93.6588 0 -16.2903)
(90.6477 -1.23214e-19 -15.9951)
(88.5014 -4.56441e-18 -15.546)
(86.6837 4.86397e-18 -15.1494)
(84.7976 5.06033e-18 -14.9208)
(82.8028 -4.57318e-18 -14.8164)
(80.8859 3.25057e-18 -14.7231)
(79.2217 2.92103e-18 -14.5749)
(77.8569 0 -14.3834)
(76.7308 1.66313e-19 -14.1984)
(75.7309 -3.14209e-18 -14.0327)
(74.7861 -3.00996e-18 -13.8794)
(73.8316 0 -13.721)
(72.8014 0 -13.5553)
(71.807 -2.95386e-18 -13.4347)
(70.9652 0 -13.2918)
(70.4178 -5.27303e-18 -13.1422)
(70.1465 1.16434e-17 -12.9738)
(69.8448 0 -12.7389)
(69.4149 -1.20848e-17 -12.7047)
(68.7844 0 -12.7541)
(68.1818 1.37974e-17 -12.6588)
(67.7486 2.73495e-17 -12.8471)
(67.4807 2.4974e-17 -12.5105)
(67.0051 1.00059e-17 -12.5299)
(66.389 -7.80536e-18 -12.5017)
(65.7809 -2.50308e-17 -12.4461)
(65.185 -2.25594e-17 -12.3689)
(64.7508 0 -12.2933)
(64.3781 0 -12.1862)
(63.969 -4.13456e-20 -12.0988)
(63.536 0 -12.0419)
(63.1047 1.25573e-17 -11.9842)
(62.6277 0 -11.8776)
(62.2698 2.13719e-17 -11.8074)
(62.0109 0 -11.7137)
(61.4799 2.14917e-18 -11.5763)
(61.0012 0 -11.5301)
(60.7538 1.79644e-17 -11.4888)
(60.0451 0 -11.3346)
(59.5364 0 -11.3168)
(59.4976 -4.52739e-17 -11.269)
(58.4721 0 -11.1454)
(58.0064 0 -11.2051)
(58.1999 0 -11.1017)
(56.9315 -9.78876e-17 -10.9687)
(57.0484 -1.26694e-16 -10.9788)
(57.2419 0 -10.7817)
(55.6163 0 -10.7924)
(56.1994 5.36157e-17 -10.7693)
(55.5806 7.79652e-17 -10.6184)
(54.3454 0 -10.6956)
(55.2562 0 -10.489)
(53.9726 0 -10.4381)
(53.9192 0 -10.4205)
(53.9726 3.66425e-18 -10.2219)
(52.8885 3.43562e-17 -10.3073)
(53.4097 -1.05862e-16 -10.1176)
(52.4641 0 -10.0945)
(52.6078 0 -10.0338)
(52.2539 0 -9.90277)
(51.5922 -5.97291e-20 -9.97189)
(51.7657 -3.62298e-17 -9.83113)
(50.8556 -4.26939e-17 -9.87998)
(50.9984 1.63713e-16 -9.77735)
(50.4199 -4.42183e-19 -9.74426)
(50.3364 -1.34768e-16 -9.69172)
(49.9363 -1.25191e-16 -9.63572)
(49.6801 0 -9.62695)
(49.6091 0 -9.51318)
(49.1554 0 -9.51624)
(49.2655 4.61468e-16 -9.38843)
(48.7677 0 -9.3972)
(48.7559 0 -9.31378)
(48.3187 4.43334e-16 -9.30148)
(48.2855 4.63615e-16 -9.23122)
(47.9463 0 -9.19111)
(47.8118 0 -9.14974)
(47.5133 0 -9.10889)
(47.3236 1.61654e-15 -9.08837)
(47.1078 7.70934e-20 -9.02232)
(46.8466 7.45597e-16 -9.01316)
(46.692 -6.4466e-16 -8.93501)
(46.4255 1.38811e-15 -8.92476)
(46.1367 6.11438e-16 -8.87024)
(45.9406 1.39817e-15 -8.84726)
(45.7244 0 -8.75516)
(45.382 0 -8.7662)
(45.1544 0 -8.65802)
(44.9734 0 -8.64944)
(44.4519 1.26019e-15 -8.56582)
(44.4298 0 -8.53797)
(43.8702 0 -8.42435)
(43.6792 -1.26553e-15 -8.42195)
(43.1331 1.22798e-15 -8.29074)
(42.9322 4.91307e-15 -8.27447)
(42.2778 -2.40814e-15 -8.14427)
(42.0467 0 -8.10977)
(41.4356 0 -7.97716)
(41.2781 0 -7.95489)
(40.3387 2.2901e-15 -7.78485)
(40.2049 -2.26161e-15 -7.74048)
(38.7637 0 -7.46724)
(38.3457 8.59357e-15 -7.40198)
(37.242 4.21325e-15 -7.16791)
(36.176 8.1059e-15 -6.98508)
(35.8054 0 -6.90399)
(33.8749 0 -6.53312)
(33.5914 -3.71852e-15 -6.48632)
(31.9029 0 -6.13405)
(26.8966 -3.46656e-15 -5.19479)
(29.846 -3.33797e-15 -5.5591)
(7.7694 0 -1.3347)
(193.579 0 -11.0515)
(180.822 0 -15.8859)
(173.987 -4.35582e-18 -18.1598)
(166.243 0 -19.9236)
(159.623 0 -21.1396)
(153.266 2.97756e-18 -22.1128)
(147.581 2.94849e-18 -22.7707)
(142.908 0 -22.9742)
(139.342 -2.88843e-19 -22.8219)
(136.555 4.32732e-18 -22.5571)
(134.05 -9.55647e-18 -22.3723)
(131.515 -4.7973e-18 -22.319)
(128.965 -1.11075e-19 -22.3212)
(126.573 -3.08152e-18 -22.2803)
(124.471 -1.37132e-18 -22.1575)
(122.677 -6.8585e-20 -21.9934)
(121.133 2.42392e-18 -21.842)
(119.739 2.97826e-18 -21.7074)
(118.431 0 -21.5656)
(117.143 0 -21.4067)
(115.799 -1.84508e-18 -21.2157)
(114.519 -2.7429e-18 -21.0382)
(113.419 0 -20.8368)
(112.633 0 -20.6769)
(112.141 -1.10341e-17 -20.5895)
(111.609 0 -20.4764)
(110.971 2.30128e-17 -20.4308)
(110.163 -1.20923e-17 -20.4469)
(109.346 0 -20.3337)
(108.761 -1.30033e-17 -20.5104)
(108.353 -1.18221e-17 -20.0749)
(107.679 0 -20.0689)
(106.923 7.26818e-18 -20.018)
(106.137 1.18336e-17 -19.919)
(105.323 5.65608e-20 -19.8021)
(104.66 0 -19.6934)
(104.07 0 -19.565)
(103.44 -1.10084e-17 -19.4435)
(102.79 0 -19.361)
(102.148 0 -19.2688)
(101.453 0 -19.1266)
(100.871 0 -19.0176)
(100.389 0 -18.9195)
(99.6338 0 -18.7372)
(98.9222 0 -18.6503)
(98.4529 -1.73169e-17 -18.6151)
(97.5288 3.30453e-17 -18.3939)
(96.7931 0 -18.3126)
(96.5349 4.28336e-17 -18.3297)
(95.319 0 -18.0581)
(94.6359 0 -18.0489)
(94.6108 -8.16943e-17 -18.0665)
(93.1653 0 -17.7109)
(93.0433 5.98381e-17 -17.7686)
(93.0133 -8.10399e-17 -17.6925)
(91.2203 0 -17.374)
(91.5356 -5.06785e-17 -17.522)
(90.7118 0 -17.3173)
(89.2899 0 -17.1332)
(89.9156 0 -17.1696)
(88.4569 -6.72164e-17 -16.8993)
(88.1774 1.42207e-17 -16.87)
(87.9821 -2.8829e-19 -16.752)
(86.738 -6.50147e-17 -16.632)
(87.0123 -1.13122e-19 -16.564)
(85.8728 0 -16.3924)
(85.8188 0 -16.3578)
(85.2409 -2.21325e-17 -16.1986)
(84.4002 7.5363e-20 -16.1533)
(84.3612 0 -16.0689)
(83.2599 0 -15.9696)
(83.2021 -7.73712e-17 -15.899)
(82.4227 -1.5878e-19 -15.7837)
(82.1422 -2.51999e-19 -15.7221)
(81.5523 0 -15.6123)
(81.1032 0 -15.5651)
(80.842 -3.61518e-16 -15.4478)
(80.1973 4.44646e-16 -15.3737)
(80.1087 0 -15.2709)
(79.4215 0 -15.2)
(79.2092 0 -15.1159)
(78.5794 0 -15.0324)
(78.3406 0 -14.9542)
(77.8075 0 -14.8583)
(77.4692 0 -14.7906)
(76.9741 0 -14.7009)
(76.5821 -1.5204e-15 -14.6426)
(76.1553 -6.37589e-16 -14.5381)
(75.6902 -7.00761e-16 -14.4777)
(75.3087 6.05769e-16 -14.3698)
(74.8327 -1.30445e-15 -14.3088)
(74.2975 -5.74316e-16 -14.2021)
(73.8884 -6.56693e-16 -14.1346)
(73.3815 0 -14.0043)
(72.8477 0 -13.946)
(72.2646 0 -13.7935)
(71.9124 0 -13.7482)
(70.9799 -1.18226e-15 -13.5678)
(70.8133 0 -13.5245)
(69.7362 0 -13.3152)
(69.4396 1.18659e-15 -13.271)
(68.3019 0 -13.0421)
(67.9839 -2.30281e-15 -12.9755)
(66.678 2.25669e-15 -12.7304)
(66.2802 0 -12.6463)
(65.0349 0 -12.4138)
(64.6776 0 -12.3305)
(63.0891 2.1453e-15 -12.0402)
(62.626 0 -11.9279)
(60.3664 -2.04173e-15 -11.4905)
(59.4064 1.95715e-19 -11.3262)
(57.5538 -3.94314e-15 -10.9323)
(55.6683 -7.58598e-15 -10.6128)
(54.8218 0 -10.4129)
(51.6565 3.60405e-15 -9.81301)
(50.8939 3.47821e-15 -9.67686)
(48.3237 3.37073e-15 -9.09626)
(39.9029 0 -7.56337)
(45.3674 3.1211e-15 -8.41806)
(11.1812 0 -1.71182)
(221.242 0 -12.6164)
(212.847 0 -16.7053)
(208.566 4.1222e-18 -19.903)
(202.657 0 -22.4893)
(197.082 -3.88748e-18 -24.5973)
(191.436 6.84755e-18 -26.217)
(186.329 0 -27.2919)
(182.078 -5.33524e-18 -27.7956)
(178.703 4.49581e-18 -27.9126)
(175.897 4.8411e-18 -27.9294)
(173.277 4.67961e-18 -28.0324)
(170.623 -4.9928e-18 -28.2205)
(167.983 4.20751e-18 -28.3918)
(165.514 -6.1135e-18 -28.4758)
(163.318 0 -28.464)
(161.395 -1.14731e-19 -28.4101)
(159.708 0 -28.3622)
(158.183 0 -28.3167)
(156.761 0 -28.2381)
(155.369 -1.34976e-18 -28.1302)
(153.923 1.85657e-19 -27.9775)
(152.547 7.10947e-20 -27.8095)
(151.354 -3.66525e-18 -27.6181)
(150.485 0 -27.4179)
(149.917 0 -27.3381)
(149.313 0 -27.2555)
(148.593 -2.20526e-17 -27.2249)
(147.697 -2.52768e-19 -27.2851)
(146.792 0 -27.3123)
(146.222 0 -27.2953)
(145.709 0 -26.9035)
(144.905 0 -26.922)
(144.092 -1.3659e-17 -26.8686)
(143.232 0 -26.746)
(142.307 1.00374e-17 -26.6141)
(141.519 0 -26.4947)
(140.801 0 -26.3678)
(140.035 1.01446e-17 -26.2318)
(139.241 0 -26.1395)
(138.46 0 -26.0262)
(137.617 -9.84657e-18 -25.8717)
(136.881 1.84013e-17 -25.7285)
(136.247 0 -25.625)
(135.332 1.06343e-18 -25.4266)
(134.449 0 -25.3071)
(133.825 3.28031e-17 -25.2582)
(132.738 1.36895e-19 -25.0326)
(131.828 0 -24.8922)
(131.413 0 -24.9271)
(130.036 -4.8708e-17 -24.6316)
(129.178 -7.85889e-17 -24.5361)
(128.997 1.53759e-16 -24.5903)
(127.389 0 -24.1622)
(127.081 5.64975e-17 -24.1372)
(126.875 7.64988e-17 -24.1498)
(124.908 7.77426e-17 -23.7007)
(125.022 4.73773e-17 -23.8279)
(124.015 0 -23.6699)
(122.414 0 -23.3055)
(122.827 4.38855e-17 -23.4139)
(121.189 1.26663e-16 -23.0955)
(120.719 -1.34125e-17 -22.9675)
(120.317 -3.18547e-19 -22.9294)
(118.905 3.07135e-17 -22.6761)
(118.977 4.72807e-17 -22.6344)
(117.649 0 -22.4145)
(117.409 0 -22.3257)
(116.627 2.08572e-17 -22.1854)
(115.604 1.09598e-16 -22.0383)
(115.363 0 -21.98)
(114.074 3.83715e-17 -21.7942)
(113.819 7.31159e-17 -21.7076)
(112.84 6.63552e-17 -21.5562)
(112.366 2.39824e-16 -21.4479)
(111.579 0 -21.3224)
(110.94 0 -21.2116)
(110.48 3.40195e-16 -21.0948)
(109.643 -8.3675e-16 -20.9494)
(109.35 -4.09326e-16 -20.846)
(108.463 0 -20.7163)
(108.042 0 -20.6076)
(107.203 0 -20.4774)
(106.751 0 -20.3618)
(106.006 0 -20.2319)
(105.454 0 -20.1158)
(104.74 -6.34394e-16 -19.998)
(104.134 -9.21877e-20 -19.8838)
(103.475 5.98851e-16 -19.7521)
(102.789 0 -19.6331)
(102.161 5.68784e-16 -19.4959)
(101.457 6.12284e-16 -19.3782)
(100.652 0 -19.2316)
(100.011 -6.16416e-16 -19.1069)
(99.1906 -1.09934e-15 -18.9343)
(98.4444 0 -18.8202)
(97.4783 0 -18.605)
(96.942 0 -18.5249)
(95.5538 -1.10858e-15 -18.2556)
(95.2476 0 -18.1848)
(93.5867 0 -17.874)
(93.2135 1.11206e-15 -17.8031)
(91.389 -1.07915e-15 -17.4566)
(91.0069 0 -17.3745)
(88.9317 0 -16.9943)
(88.4104 0 -16.8769)
(86.4296 0 -16.5203)
(85.8327 0 -16.3807)
(83.6126 8.01386e-20 -15.9748)
(82.6789 0 -15.7669)
(79.7781 1.91058e-15 -15.2006)
(78.0682 -3.76359e-15 -14.9075)
(75.5712 0 -14.3713)
(72.7944 -2.41111e-19 -13.9097)
(71.3473 0 -13.5733)
(67.0785 8.67816e-20 -12.7701)
(65.5677 0 -12.5059)
(62.4679 -3.1515e-15 -11.7364)
(50.4839 0 -9.61866)
(59.0007 2.91796e-15 -10.3622)
(14.4989 0 -1.89999)
(239.174 0 -14.1951)
(234.67 0 -18.1989)
(232.201 0 -21.6117)
(228.268 0 -24.5829)
(224.151 3.67267e-18 -27.1409)
(219.819 5.14437e-20 -29.0942)
(215.84 0 -30.4141)
(212.469 5.04041e-18 -31.1679)
(209.691 0 -31.5875)
(207.257 -9.54581e-18 -31.9191)
(204.893 0 -32.3142)
(202.483 4.71671e-18 -32.7519)
(200.092 0 -33.1192)
(197.844 5.77529e-18 -33.3647)
(195.812 -1.63938e-18 -33.5117)
(194.002 6.41907e-19 -33.62)
(192.406 5.12208e-19 -33.7196)
(190.975 1.009e-18 -33.7977)
(189.65 0 -33.8198)
(188.349 1.27485e-18 -33.8004)
(186.986 1.47327e-18 -33.7265)
(185.682 4.68362e-18 -33.6128)
(184.559 3.46168e-18 -33.4744)
(183.744 0 -33.2747)
(183.216 0 -33.2096)
(182.656 0 -33.1692)
(181.961 1.04982e-17 -33.1863)
(181.097 1.10391e-17 -33.3001)
(180.232 0 -33.3455)
(179.724 0 -33.4846)
(179.258 -1.03461e-17 -32.9378)
(178.399 0 -33.0443)
(177.617 1.05415e-19 -32.9905)
(176.777 1.0285e-17 -32.8547)
(175.845 -9.26641e-18 -32.7212)
(175.033 0 -32.6076)
(174.285 0 -32.4954)
(173.472 -9.57508e-18 -32.3601)
(172.619 0 -32.2698)
(171.781 0 -32.1495)
(170.87 9.29214e-18 -31.9958)
(170.059 -1.7364e-17 -31.8321)
(169.348 0 -31.7306)
(168.349 -1.0033e-18 -31.5307)
(167.367 0 -31.3915)
(166.657 -1.55112e-17 -31.335)
(165.477 -2.95772e-17 -31.1236)
(164.453 0 -30.9405)
(163.94 -3.77488e-17 -30.9884)
(162.462 4.5935e-17 -30.7013)
(161.479 1.4827e-16 -30.5307)
(161.195 -7.22438e-17 -30.6074)
(159.471 8.2657e-17 -30.1667)
(159.022 1.16662e-19 -30.0476)
(158.69 0 -30.1416)
(156.588 -7.32758e-17 -29.6169)
(156.548 -4.46506e-17 -29.6883)
(155.403 6.44605e-17 -29.602)
(153.659 -3.8386e-17 -29.093)
(153.91 -4.13465e-17 -29.2332)
(152.125 -5.95914e-17 -28.9149)
(151.502 -1.24972e-17 -28.6781)
(150.935 -2.51752e-18 -28.7197)
(149.38 0 -28.3627)
(149.288 0 -28.3241)
(147.801 2.46279e-17 -28.0874)
(147.396 0 -27.9289)
(146.442 0 -27.8215)
(145.257 -5.14954e-17 -27.5832)
(144.835 0 -27.5437)
(143.381 -3.61016e-17 -27.2943)
(142.943 -1.37588e-16 -27.1803)
(141.784 0 -27.0084)
(141.131 -1.12832e-16 -26.8464)
(140.158 0 -26.717)
(139.343 0 -26.5394)
(138.694 -3.20199e-16 -26.4242)
(137.675 3.93249e-16 -26.2117)
(137.186 -4.87161e-20 -26.1008)
(136.105 0 -25.9194)
(135.481 0 -25.7803)
(134.434 0 -25.6098)
(133.77 -3.85227e-16 -25.4495)
(132.812 3.303e-16 -25.2904)
(132.046 0 -25.12)
(131.108 1.19111e-15 -24.9776)
(130.282 6.70374e-16 -24.8018)
(129.383 -1.12398e-15 -24.6432)
(128.467 -6.17456e-16 -24.4616)
(127.58 -1.06722e-15 -24.2921)
(126.637 0 -24.1129)
(125.543 0 -23.9247)
(124.656 5.77987e-16 -23.7355)
(123.499 1.03064e-15 -23.5147)
(122.523 -1.08962e-15 -23.3415)
(121.14 0 -23.053)
(120.408 0 -22.9334)
(118.51 1.03867e-15 -22.5652)
(118.069 1.10317e-15 -22.4612)
(115.741 0 -22.0324)
(115.323 -1.04147e-15 -21.9371)
(112.692 1.0105e-15 -21.4473)
(112.311 0 -21.3454)
(109.323 0 -20.802)
(108.731 0 -20.6542)
(105.898 0 -20.1515)
(105.017 0 -19.9382)
(102.188 -1.87888e-15 -19.4207)
(100.603 0 -19.0731)
(97.2737 0 -18.4141)
(94.5796 0 -17.9462)
(91.5856 3.4503e-15 -17.2834)
(87.8634 3.318e-15 -16.6753)
(85.7076 0 -16.166)
(80.5503 -3.15105e-15 -15.1994)
(77.9948 0 -14.7544)
(74.839 -2.9459e-15 -13.836)
(59.2013 0 -11.1718)
(70.8606 -2.72693e-15 -12.6533)
(18.3343 0 -2.29816)
(251.493 -4.85866e-18 -16.3292)
(249.695 -4.6022e-18 -20.1683)
(248.567 4.21057e-18 -23.5136)
(246.352 3.82313e-18 -26.561)
(243.708 0 -29.1958)
(240.816 -3.18882e-18 -31.2186)
(238.086 0 -32.645)
(235.71 5.07642e-18 -33.5988)
(233.664 4.93121e-18 -34.2964)
(231.773 9.68746e-18 -34.9308)
(229.873 -5.02324e-18 -35.5917)
(227.919 4.73614e-18 -36.2394)
(225.978 0 -36.7828)
(224.135 0 -37.1952)
(222.44 1.54639e-18 -37.5134)
(220.915 3.15722e-19 -37.7933)
(219.583 -7.36624e-19 -38.0494)
(218.415 -7.01241e-19 -38.2618)
(217.346 0 -38.3983)
(216.287 0 -38.4804)
(215.151 0 -38.5021)
(214.053 -4.25483e-18 -38.4664)
(213.127 -3.24952e-18 -38.4033)
(212.475 0 -38.271)
(212.084 0 -38.2523)
(211.663 -9.81286e-18 -38.2819)
(211.094 0 -38.3619)
(210.375 0 -38.5234)
(209.621 0 -38.5754)
(209.375 0 -38.5087)
(208.917 4.45819e-20 -38.6232)
(208.136 0 -38.4317)
(207.487 1.25539e-19 -38.3961)
(206.753 -9.69597e-18 -38.2591)
(205.905 1.64825e-19 -38.1367)
(205.159 0 -38.0452)
(204.469 0 -37.9607)
(203.695 0 -37.8422)
(202.866 0 -37.7676)
(202.052 0 -37.6559)
(201.156 0 -37.5172)
(200.349 0 -37.3502)
(199.64 9.34509e-18 -37.2623)
(198.636 1.9559e-19 -37.0756)
(197.629 0 -36.9323)
(196.903 -1.49025e-17 -36.8814)
(195.703 0 -36.6976)
(194.632 0 -36.4914)
(194.082 7.09105e-17 -36.5571)
(192.57 0 -36.2972)
(191.518 -6.98432e-17 -36.0683)
(191.187 0 -36.167)
(189.409 -1.55546e-16 -35.7358)
(188.867 1.81564e-19 -35.5288)
(188.462 0 -35.7015)
(186.282 0 -35.1323)
(186.133 0 -35.1419)
(184.904 -1.20778e-16 -35.1389)
(183.064 7.24633e-17 -34.5102)
(183.196 3.81217e-17 -34.6695)
(181.313 5.55387e-17 -34.3765)
(180.575 2.32275e-17 -34.0352)
(179.887 -1.58078e-18 -34.1581)
(178.224 0 -33.7177)
(178.003 0 -33.676)
(176.394 -1.1195e-19 -33.4395)
(175.853 0 -33.2104)
(174.757 0 -33.1442)
(173.434 -4.78905e-17 -32.8242)
(172.856 0 -32.8031)
(171.26 0 -32.5036)
(170.658 1.29307e-16 -32.3596)
(169.337 -5.88702e-17 -32.1767)
(168.52 0 -31.9603)
(167.373 0 -31.8343)
(166.395 0 -31.5906)
(165.565 3.00715e-16 -31.4788)
(164.371 0 -31.2025)
(163.69 7.22439e-16 -31.0817)
(162.417 -3.6538e-16 -30.8528)
(161.589 0 -30.6806)
(160.33 0 -30.4731)
(159.449 3.6149e-16 -30.2643)
(158.267 9.25414e-21 -30.0779)
(157.278 3.31222e-16 -29.8496)
(156.1 -5.58663e-16 -29.6835)
(155.04 6.28733e-16 -29.4423)
(153.881 5.27014e-16 -29.2555)
(152.715 5.78921e-16 -29.0076)
(151.546 -9.09358e-20 -28.8027)
(150.339 0 -28.5582)
(148.927 -4.74204e-16 -28.3256)
(147.769 0 -28.0666)
(146.237 0 -27.7926)
(145.008 1.02077e-15 -27.5578)
(143.161 0 -27.188)
(142.217 0 -27.0273)
(139.743 0 -26.5514)
(139.177 -1.03291e-15 -26.4147)
(136.082 0 -25.854)
(135.665 -9.74831e-16 -25.7434)
(132.091 0 -25.0891)
(131.797 0 -24.9902)
(127.748 0 -24.2589)
(127.163 0 -24.0988)
(123.382 0 -23.4328)
(122.183 -1.76334e-15 -23.1474)
(118.819 -1.75733e-15 -22.5301)
(116.389 1.73461e-15 -22.0141)
(112.913 0 -21.3125)
(109.017 0 -20.6346)
(105.731 -6.4515e-15 -19.8868)
(101.09 0 -19.1393)
(98.1465 3.03327e-15 -18.449)
(92.4461 0 -17.3826)
(88.5692 2.84181e-15 -16.7221)
(85.9353 2.75289e-15 -15.7398)
(66.6539 0 -12.5645)
(81.5406 -2.54823e-15 -14.6709)
(23.654 0 -2.35519)
(259.83 4.57498e-18 -18.9909)
(259.888 8.47631e-18 -22.5174)
(259.915 -3.96591e-18 -25.5959)
(259.17 -2.77977e-19 -28.4618)
(257.885 2.98831e-18 -30.9421)
(256.329 0 -32.9133)
(254.744 0 -34.3952)
(253.287 -4.78223e-18 -35.5233)
(251.956 -9.45494e-18 -36.472)
(250.652 1.55603e-19 -37.3682)
(249.298 4.73213e-18 -38.2395)
(247.897 -4.46165e-18 -39.0385)
(246.496 3.72439e-18 -39.7124)
(245.142 0 -40.2653)
(243.873 0 -40.7381)
(242.733 -7.17066e-19 -41.1702)
(241.773 1.1457e-18 -41.5618)
(240.977 1.69277e-19 -41.8922)
(240.265 0 -42.1352)
(239.543 0 -42.3164)
(238.728 0 -42.4382)
(237.927 6.96327e-20 -42.4928)
(237.284 6.12416e-18 -42.5162)
(236.875 -4.00877e-18 -42.4808)
(236.697 -9.11473e-18 -42.5291)
(236.49 1.87665e-17 -42.6427)
(236.127 -1.01964e-17 -42.7941)
(235.638 -1.08072e-17 -43.004)
(235.182 -1.13739e-17 -43.085)
(235.052 0 -42.9033)
(234.717 9.14355e-18 -43.5223)
(234.279 -6.83825e-18 -43.0915)
(233.732 5.4755e-18 -43.1235)
(233.182 8.76359e-18 -42.9909)
(232.489 1.59323e-17 -42.8885)
(231.883 0 -42.8317)
(231.328 0 -42.7845)
(230.668 7.69894e-18 -42.6952)
(229.939 0 -42.647)
(229.223 -8.55533e-18 -42.5572)
(228.419 -7.585e-18 -42.4442)
(227.688 0 -42.2884)
(227.053 -1.70926e-17 -42.2241)
(226.119 -1.8403e-19 -42.063)
(225.157 0 -41.9272)
(224.482 1.40232e-17 -41.8943)
(223.332 2.64522e-17 -41.7479)
(222.276 0 -41.5346)
(221.749 -6.63077e-17 -41.6235)
(220.268 4.02706e-17 -41.4036)
(219.204 6.57995e-17 -41.1306)
(218.878 0 -41.2536)
(217.108 2.40125e-19 -40.8472)
(216.519 -9.51095e-17 -40.5633)
(216.092 0 -40.813)
(213.891 0 -40.2213)
(213.674 3.91266e-17 -40.1704)
(212.415 5.65127e-17 -40.2567)
(210.527 -6.85596e-17 -39.5284)
(210.579 -3.58356e-17 -39.7019)
(208.646 -5.22034e-17 -39.4503)
(207.827 -1.078e-17 -39.0126)
(207.054 2.48293e-18 -39.2179)
(205.32 0 -38.7088)
(205.001 0 -38.6631)
(203.302 -4.32e-17 -38.4367)
(202.649 0 -38.14)
(201.439 0 -38.1204)
(200.001 4.49795e-17 -37.7248)
(199.285 0 -37.7233)
(197.567 -3.18343e-17 -37.3805)
(196.814 -5.80055e-20 -37.2062)
(195.344 5.52679e-17 -37.0171)
(194.372 0 -36.7465)
(193.059 0 -36.6271)
(191.921 0 -36.317)
(190.914 2.82556e-16 -36.2094)
(189.547 0 -35.8693)
(188.672 -3.38896e-16 -35.7372)
(187.203 6.85453e-16 -35.461)
(186.165 0 -35.2531)
(184.686 0 -35.008)
(183.576 0 -34.7469)
(182.157 2.65933e-20 -34.5318)
(180.928 -3.10511e-16 -34.2411)
(179.494 -5.23996e-16 -34.0493)
(178.18 -5.89273e-16 -33.7371)
(176.742 4.94071e-16 -33.519)
(175.304 0 -33.1993)
(173.83 4.68778e-16 -32.9547)
(172.339 0 -32.6391)
(170.582 4.44169e-16 -32.3576)
(169.133 0 -32.0227)
(167.195 0 -31.6897)
(165.702 0 -31.389)
(163.351 -9.531e-16 -30.9297)
(162.198 -9.484e-16 -30.7261)
(159.087 0 -30.132)
(158.436 9.66445e-16 -29.965)
(154.485 -8.79592e-16 -29.2572)
(154.151 9.12123e-16 -29.1417)
(149.508 -8.85135e-16 -28.3004)
(149.434 0 -28.2205)
(144.194 0 -27.2779)
(143.737 0 -27.1242)
(138.962 0 -26.2851)
(137.436 1.64888e-15 -25.9246)
(133.697 2.62701e-20 -25.2326)
(130.23 -3.24344e-15 -24.512)
(126.97 0 -23.8306)
(121.703 0 -22.9093)
(118.373 3.01501e-15 -22.1205)
(112.96 0 -21.26)
(109.176 -2.83459e-15 -20.3752)
(103.409 0 -19.2933)
(97.9932 -5.31064e-15 -18.3916)
(96.5043 0 -17.411)
(73.897 0 -13.8528)
(91.9343 2.38044e-15 -15.4493)
(30.9861 0 -3.58617)
(265.138 0 -22.0597)
(266.547 -3.89619e-18 -25.0848)
(267.655 0 -27.705)
(268.149 -3.12649e-18 -30.2348)
(268.036 -5.3681e-18 -32.4666)
(267.605 0 -34.3575)
(266.995 2.30062e-18 -35.9119)
(266.329 0 -37.2203)
(265.64 -4.54925e-20 -38.3956)
(264.914 -9.12471e-18 -39.4978)
(264.133 0 -40.5124)
(263.308 0 -41.4044)
(262.455 -3.50438e-18 -42.1636)
(261.598 0 -42.8189)
(260.78 0 -43.407)
(260.068 0 -43.9475)
(259.528 -8.53221e-19 -44.4318)
(259.15 -3.8117e-19 -44.8459)
(258.842 -5.94721e-19 -45.1732)
(258.5 0 -45.4396)
(258.05 0 -45.6546)
(257.594 1.78265e-18 -45.8015)
(257.277 -2.88213e-18 -45.9135)
(257.159 3.77128e-18 -45.9782)
(257.24 8.57457e-18 -46.1046)
(257.288 -1.82351e-17 -46.3065)
(257.184 -3.8082e-19 -46.5331)
(256.982 1.01659e-17 -46.7917)
(256.832 1.06988e-17 -46.9152)
(256.861 0 -46.9432)
(256.852 0 -47.4258)
(256.697 6.43175e-18 -47.0658)
(256.321 0 -47.2031)
(256.021 -8.24208e-18 -47.0676)
(255.532 -7.39496e-18 -46.9878)
(255.121 7.08619e-18 -46.9738)
(254.758 0 -46.969)
(254.273 -7.2397e-18 -46.9166)
(253.705 -6.99191e-18 -46.9014)
(253.15 3.49803e-19 -46.8437)
(252.501 1.39506e-17 -46.7647)
(251.91 0 -46.6311)
(251.41 7.80083e-18 -46.5981)
(250.608 0 -46.4728)
(249.753 0 -46.3528)
(249.185 0 -46.3468)
(248.146 4.99421e-20 -46.2468)
(247.162 0 -46.0384)
(246.709 3.10579e-17 -46.1555)
(245.319 -7.54025e-17 -45.9854)
(244.292 -6.18343e-17 -45.6803)
(244.019 0 -45.8301)
(242.312 6.84559e-17 -45.4605)
(241.717 8.98509e-17 -45.1116)
(241.316 0 -45.435)
(239.148 0 -44.8395)
(238.9 -3.67542e-17 -44.7312)
(237.662 -5.16878e-17 -44.909)
(235.768 3.23076e-17 -44.1009)
(235.774 3.31425e-17 -44.2846)
(233.836 0 -44.0865)
(232.967 0 -43.5626)
(232.145 -5.31539e-19 -43.8487)
(230.374 -2.32907e-17 -43.285)
(229.98 0 -43.2355)
(228.223 2.02246e-17 -43.0264)
(227.48 0 -42.6668)
(226.18 0 -42.6969)
(224.649 0 -42.232)
(223.813 0 -42.2509)
(221.992 3.80591e-21 -41.8706)
(221.101 -9.58357e-20 -41.6666)
(219.495 -5.20742e-17 -41.475)
(218.378 0 -41.1513)
(216.905 -8.75484e-17 -41.0412)
(215.615 0 -40.6654)
(214.433 -2.64952e-16 -40.5629)
(212.897 3.24048e-16 -40.1597)
(211.827 -3.17741e-16 -40.0159)
(210.164 -3.21259e-16 -39.6932)
(208.912 0 -39.4486)
(207.21 3.04131e-16 -39.166)
(205.866 0 -38.8508)
(204.201 -2.7229e-16 -38.607)
(202.724 -2.90751e-16 -38.2516)
(201.022 4.9088e-16 -38.0337)
(199.445 0 -37.6482)
(197.718 -9.25642e-16 -37.3981)
(195.997 0 -37.0042)
(194.206 4.39242e-16 -36.7191)
(192.423 0 -36.3307)
(190.308 4.16279e-16 -35.9996)
(188.569 0 -35.5876)
(186.208 8.47268e-16 -35.1947)
(184.461 -8.94738e-16 -34.8293)
(181.583 8.91909e-16 -34.2782)
(180.253 8.87418e-16 -34.0368)
(176.459 0 -33.3198)
(175.801 -1.80803e-15 -33.1339)
(170.916 1.64592e-15 -32.2702)
(170.796 0 -32.1707)
(164.969 8.27811e-16 -31.1272)
(165.294 0 -31.0988)
(158.765 0 -29.9297)
(158.591 -1.60084e-15 -29.8135)
(152.843 0 -28.8028)
(150.99 0 -28.3771)
(147.13 1.53583e-15 -27.65)
(142.443 3.03156e-15 -26.7015)
(139.824 1.46058e-15 -26.1148)
(133.093 0 -24.9342)
(129.967 0 -24.1576)
(124.061 0 -23.2316)
(119.393 0 -22.1537)
(114.132 2.57112e-15 -21.1565)
(107.051 2.48059e-15 -20.0124)
(107.276 0 -19.1138)
(81.9182 0 -15.2921)
(102.282 0 -17.3404)
(41.2116 0 -5.28371)
(268.206 3.50905e-18 -25.3464)
(270.662 0 -27.7289)
(272.67 2.72692e-18 -29.8146)
(274.143 0 -31.9591)
(274.983 2.40276e-18 -33.9511)
(275.446 0 -35.7648)
(275.623 -2.16235e-18 -37.3949)
(275.63 4.30412e-18 -38.8705)
(275.539 8.53e-18 -40.22)
(275.384 2.01224e-19 -41.4501)
(275.175 0 -42.5422)
(274.904 0 -43.4855)
(274.566 0 -44.2963)
(274.177 0 -45.0139)
(273.796 0 -45.6696)
(273.509 0 -46.2689)
(273.391 1.58818e-18 -46.7989)
(273.432 -1.17716e-18 -47.2555)
(273.526 5.58994e-19 -47.6356)
(273.562 0 -47.9654)
(273.479 0 -48.2582)
(273.375 -1.60574e-18 -48.4897)
(273.393 -2.73988e-18 -48.6849)
(273.578 -3.62264e-18 -48.8437)
(273.926 0 -49.0506)
(274.244 8.71624e-18 -49.3374)
(274.421 1.91129e-17 -49.6349)
(274.53 -1.02589e-17 -49.9371)
(274.699 0 -50.1103)
(274.93 0 -50.2118)
(275.313 0 -50.455)
(275.367 -5.53769e-18 -50.691)
(275.238 0 -50.6636)
(275.239 0 -50.5049)
(274.978 -6.42804e-18 -50.447)
(274.793 -6.6575e-18 -50.4797)
(274.662 0 -50.5177)
(274.392 -6.02381e-18 -50.5047)
(274.029 1.27561e-17 -50.5246)
(273.68 7.22802e-18 -50.5049)
(273.234 -6.40529e-18 -50.4654)
(272.829 0 -50.3618)
(272.51 0 -50.3639)
(271.892 0 -50.2823)
(271.191 7.76461e-18 -50.1842)
(270.776 0 -50.2082)
(269.898 -2.33964e-17 -50.1625)
(269.032 -2.61569e-17 -49.9671)
(268.696 0 -50.1147)
(267.447 3.52635e-17 -50.0017)
(266.501 0 -49.6746)
(266.32 0 -49.8513)
(264.728 6.3423e-17 -49.5285)
(264.164 2.90023e-19 -49.1261)
(263.831 -5.25448e-17 -49.5178)
(261.745 0 -48.9356)
(261.5 0 -48.773)
(260.329 4.85094e-17 -49.0409)
(258.473 0 -48.1738)
(258.462 -3.11003e-17 -48.3629)
(256.563 0 -48.2275)
(255.675 0 -47.6296)
(254.836 -1.9755e-19 -47.9921)
(253.061 4.33996e-17 -47.3884)
(252.619 3.4224e-17 -47.3352)
(250.836 0 -47.1492)
(250.026 0 -46.7331)
(248.663 8.01583e-18 -46.8143)
(247.061 3.84123e-17 -46.2875)
(246.126 0 -46.3272)
(244.226 2.80014e-17 -45.9154)
(243.214 -5.32441e-17 -45.683)
(241.49 4.88163e-17 -45.4924)
(240.241 -8.73485e-17 -45.1179)
(238.622 8.20566e-17 -45.0193)
(237.19 0 -44.5799)
(235.844 0 -44.484)
(234.147 -3.03639e-16 -44.0197)
(232.892 5.95391e-16 -43.8649)
(231.042 0 -43.4973)
(229.585 0 -43.2165)
(227.665 -2.8487e-16 -42.8979)
(226.089 0 -42.5285)
(224.181 0 -42.2572)
(222.459 2.7226e-16 -41.837)
(220.491 4.60178e-16 -41.5943)
(218.655 0 -41.1348)
(216.641 4.33334e-16 -40.8542)
(214.642 0 -40.386)
(212.538 -4.11112e-16 -40.0618)
(210.475 4.41977e-16 -39.6014)
(208.006 -3.89546e-16 -39.2226)
(205.996 -4.44021e-16 -38.7352)
(203.214 3.41687e-19 -38.2843)
(201.247 8.37046e-16 -37.8589)
(197.838 0 -37.2167)
(196.395 -8.306e-16 -36.9468)
(191.887 7.96804e-16 -36.105)
(191.34 8.45328e-16 -35.9167)
(185.461 -1.53984e-15 -34.8914)
(185.728 0 -34.8342)
(178.624 7.74211e-16 -33.5768)
(179.568 0 -33.635)
(171.691 0 -32.2306)
(171.976 1.49633e-15 -32.1856)
(165.348 0 -31.016)
(163.17 0 -30.5349)
(159.532 -1.43513e-15 -29.826)
(153.465 2.97504e-22 -28.6288)
(151.934 1.56641e-19 -28.2169)
(143.751 -1.34292e-15 -26.7746)
(141.028 0 -26.0578)
(135.036 2.53148e-15 -25.1327)
(129.445 2.47372e-15 -23.8629)
(125.292 -2.40161e-15 -23.0537)
(116.538 -2.31716e-15 -21.6873)
(118.901 0 -20.9138)
(91.6748 -2.15742e-15 -17.0454)
(113.656 0 -18.6282)
(54.9831 0 -6.51544)
(269.731 -3.29366e-18 -28.782)
(272.935 2.81679e-18 -30.5202)
(275.573 2.80528e-21 -32.1094)
(277.729 2.38592e-18 -33.8882)
(279.274 0 -35.669)
(280.42 -2.19999e-18 -37.4062)
(281.235 2.13245e-18 -39.0637)
(281.843 4.32976e-20 -40.6183)
(282.333 -7.80522e-18 -42.0402)
(282.749 3.82614e-18 -43.3076)