/*--------------------------------*- C++ -*----------------------------------*\
| =========                 |                                                 |
| \\      /  F ield         | OpenFOAM: The Open Source CFD Toolbox           |
|  \\    /   O peration     | Version:  2412                                  |
|   \\  /    A nd           | Website:  www.openfoam.com                      |
|    \\/     M anipulation  |                                                 |
\*---------------------------------------------------------------------------*/
FoamFile
{
    version     2.0;
    format      ascii;
    arch        "LSB;label=32;scalar=64";
    class       surfaceScalarField;
    location    "0.03";
    object      ddtCorrDdt0(phi);
}
// * * * * * * * * * * * * * * * * * * * * * * * * * * * * * * * * * * * * * //

dimensions      [0 3 -2 0 0 0 0];

oriented        oriented;

internalField   nonuniform List<scalar> 
24930
(
0.00191353
0.00271187
-0.00468551
0.00062708
0.00128643
0.000115118
0.000511971
-7.95753e-05
0.000194723
-0.000170545
9.0977e-05
-0.000225733
5.51965e-05
-0.00026383
3.81431e-05
-0.000288027
2.41742e-05
-0.000306081
1.79717e-05
-0.000320953
1.48396e-05
-0.000333843
1.2999e-05
-0.000345604
1.19166e-05
-0.000356722
1.11858e-05
-0.000367456
1.07206e-05
-0.000378058
1.05952e-05
-0.000388773
1.07417e-05
-0.000399745
1.09829e-05
-0.000411108
1.13168e-05
-0.000423132
1.19704e-05
-0.000436154
1.30298e-05
-0.00045051
1.437e-05
-0.000466457
1.59292e-05
-0.000483756
1.73354e-05
-0.000502194
1.84087e-05
-0.000521763
1.95443e-05
-0.000542248
2.0577e-05
-0.000564267
2.18961e-05
-0.000588172
2.39056e-05
-0.000614122
2.60389e-05
-0.000643001
2.87338e-05
-0.000674565
3.16834e-05
-0.000709437
3.48099e-05
-0.000747874
3.83612e-05
-0.000789869
4.20949e-05
-0.00083647
4.65021e-05
-0.000887779
5.13989e-05
-0.000945031
5.7128e-05
-0.00100868
6.37207e-05
-0.00107941
7.06939e-05
-0.0011579
7.84643e-05
-0.00124407
8.62538e-05
-0.00134119
9.7044e-05
-0.00144959
0.000108442
-0.00157266
0.00012302
-0.00171028
0.000137707
-0.00186603
0.000155669
-0.00204157
0.000175711
-0.00224238
0.000200705
-0.00247158
0.000229232
-0.00273559
0.000264
-0.00303991
0.00030432
-0.00337354
0.000333624
-0.00372643
0.000352914
-0.00419197
0.00046548
-0.00471429
0.000522373
-0.00532965
0.000615324
-0.00606676
0.000737132
-0.00691942
0.000852667
-0.00784593
0.000926492
-0.00892731
0.0010814
-0.0104061
0.00147875
-0.0124911
0.00208502
-0.0150496
0.00255847
-0.0175643
0.00251469
-0.0194619
0.00189757
-0.0204883
0.00102637
-0.0207974
0.000309148
-0.0207602
-3.72103e-05
-0.020718
-4.221e-05
-0.0208494
0.000131396
-0.0211725
0.000323142
-0.0216226
0.000450074
-0.0221323
0.000509704
-0.0226717
0.000539385
-0.0232437
0.000571952
-0.0238633
0.000619674
-0.0245443
0.000680903
-0.0252938
0.000749514
-0.0261143
0.000820504
-0.0270098
0.0008955
-0.0279756
0.000965795
-0.0290099
0.00103432
-0.0301142
0.00110426
-0.0312916
0.00117743
-0.0325463
0.00125472
-0.0338831
0.00133677
-0.0353072
0.00142413
-0.0368245
0.00151726
-0.0384412
0.00161668
-0.0401641
0.00172289
-0.0420005
0.00183647
-0.0439587
0.00195811
-0.0460469
0.00208831
-0.0482749
0.00222788
-0.0506524
0.00237756
-0.0531906
0.00253818
-0.0559011
0.00271052
-0.0587968
0.00289569
-0.0618914
0.00309462
-0.0651998
0.00330835
-0.068738
0.00353826
-0.0725236
0.00378561
-0.0765753
0.00405167
-0.0809136
0.00433827
-0.0855603
0.00464669
-0.0905396
0.00497937
-0.0958767
0.00533712
-0.101601
0.00572436
-0.10774
0.00613912
-0.114332
0.006592
-0.121403
0.00707113
-0.129008
0.00760435
-0.137165
0.00815741
-0.145951
0.00878543
-0.15537
0.00941974
-0.165581
0.0102109
-0.176295
0.0107141
-0.188378
0.0120829
-0.201199
0.0128207
0.00947822
0.00367797
0.00392091
-0.00488715
0.00226384
0.00270059
0.00113245
0.0016434
0.000384212
0.000942951
-7.74918e-05
0.000552669
-0.000373735
0.000351479
-0.000566554
0.000230939
-0.000706163
0.000163706
-0.00081354
0.000125368
-0.000900574
0.000102035
-0.000974245
8.68683e-05
-0.00103895
7.67074e-05
-0.00109758
6.9812e-05
-0.00115208
6.52342e-05
-0.00120397
6.25122e-05
-0.00125448
6.12322e-05
-0.00130456
6.09844e-05
-0.00135503
6.17535e-05
-0.00140699
6.39073e-05
-0.00146159
6.76393e-05
-0.00151984
7.26715e-05
-0.00158233
7.8373e-05
-0.00164867
8.37085e-05
-0.00171836
8.81587e-05
-0.00179148
9.25e-05
-0.0018682
9.74269e-05
-0.00195004
0.000103705
-0.0020384
0.000112111
-0.00213426
0.000122131
-0.00223953
0.000133772
-0.00235472
0.000146942
-0.00248124
0.000161386
-0.00262033
0.000177268
-0.00277274
0.00019472
-0.0029411
0.000214639
-0.00312712
0.000237597
-0.00333401
0.000263843
-0.00356417
0.000293943
-0.0038203
0.000326885
-0.0041035
0.000361566
-0.00441865
0.000401548
-0.00477264
0.00045092
-0.00516945
0.000505433
-0.00561889
0.000572346
-0.00612398
0.000643069
-0.00669542
0.000726902
-0.00734215
0.000822642
-0.00808129
0.000939737
-0.00892603
0.00107404
-0.00989553
0.00123347
-0.0110059
0.00141472
-0.0122788
0.00160647
-0.0136886
0.00176281
-0.0153962
0.00217297
-0.0173686
0.00249486
-0.0197055
0.00295227
-0.0225017
0.00353328
-0.0256952
0.0040462
-0.0292593
0.0044906
-0.0335351
0.00535722
-0.0392673
0.00721093
-0.0469039
0.00972161
-0.0557546
0.0114091
-0.0640657
0.0108258
-0.0701241
0.00795598
-0.0733288
0.00423103
-0.0743263
0.00130674
-0.0743447
-1.88308e-05
-0.0744339
4.69945e-05
-0.0750992
0.000796644
-0.0763569
0.00158089
-0.0779979
0.00209107
-0.0798297
0.00234153
-0.0817783
0.00248791
-0.0838616
0.00265524
-0.0861286
0.00288673
-0.0886179
0.00317021
-0.0913479
0.00347947
-0.0943299
0.00380254
-0.0975678
0.00413343
-0.10105
0.00444797
-0.104774
0.00475793
-0.108745
0.00507579
-0.112976
0.00540868
-0.117482
0.0057605
-0.122279
0.00613388
-0.127386
0.00653113
-0.132823
0.00695432
-0.138612
0.00740567
-0.144777
0.00788751
-0.151343
0.0084023
-0.158337
0.00895276
-0.165791
0.00954157
-0.173735
0.0101718
-0.182204
0.0108469
-0.191236
0.0115699
-0.20087
0.012345
-0.21115
0.0131758
-0.222122
0.0140668
-0.233837
0.0150227
-0.246347
0.0160486
-0.259711
0.0171495
-0.273991
0.0183315
-0.289253
0.0196007
-0.30557
0.0209634
-0.323019
0.0224279
-0.341681
0.024
-0.361649
0.0256918
-0.383014
0.0275039
-0.405884
0.0294622
-0.430361
0.0315479
-0.456577
0.0338203
-0.48464
0.0362206
-0.514712
0.038858
-0.54687
0.0415773
-0.581595
0.0449358
-0.617777
0.0468958
-0.658746
0.0530523
-0.7018
0.0558743
0.0416481
0.00447539
0.00439487
-0.00494937
0.00352695
0.00364906
0.00240878
0.00276154
0.00139068
0.001961
0.000586061
0.00135731
-1.04178e-05
0.000948012
-0.000460489
0.000680969
-0.000795342
0.000498506
-0.00105607
0.000386139
-0.00126695
0.000313061
-0.00144412
0.000264159
-0.0015979
0.000230492
-0.00173513
0.000207007
-0.00186053
0.000190643
-0.0019777
0.000179715
-0.00208957
0.00017308
-0.0021984
0.000169772
-0.00230617
0.000169524
-0.00241501
0.000172759
-0.00252707
0.00017972
-0.00264415
0.00018983
-0.00276737
0.00020155
-0.00289646
0.000212828
-0.00303098
0.000222767
-0.00317133
0.000232678
-0.00331829
0.000244518
-0.00347435
0.000259774
-0.00364206
0.000279629
-0.0038234
0.000303711
-0.00402134
0.000331498
-0.00423746
0.000363118
-0.00447414
0.000398164
-0.00473385
0.000436758
-0.00501846
0.000479556
-0.00533228
0.000528194
-0.005679
0.000584506
-0.00606414
0.000648818
-0.00649245
0.000722295
-0.00696902
0.000803515
-0.007498
0.000890467
-0.00808699
0.000990704
-0.0087484
0.00111222
-0.0094915
0.00124872
-0.010333
0.00141366
-0.0112811
0.00159144
-0.012355
0.00180061
-0.0135731
0.00204095
-0.0149661
0.00233269
-0.0165606
0.00266856
-0.018391
0.00306379
-0.0204964
0.00352015
-0.0229092
0.00401922
-0.0256668
0.00452053
-0.0289131
0.00541916
-0.0326963
0.00627818
-0.037193
0.00744888
-0.0425334
0.00887377
-0.0486566
0.0101694
-0.0555879
0.0114218
-0.0639921
0.0137614
-0.0750576
0.0182764
-0.089268
0.023932
-0.105155
0.0272966
-0.119657
0.0253272
-0.130019
0.0183181
-0.135464
0.00967574
-0.137258
0.00310092
-0.137526
0.000249539
-0.137999
0.000519653
-0.139458
0.00225583
-0.141888
0.00401114
-0.144938
0.00514094
-0.148311
0.00571429
-0.151907
0.00608426
-0.155769
0.00651657
-0.159977
0.00709556
-0.164594
0.0077865
-0.169644
0.00852972
-0.175145
0.00930319
-0.181098
0.0100864
-0.187485
0.0108355
-0.194305
0.0115773
-0.201568
0.0123393
-0.209296
0.013137
-0.217515
0.0139792
-0.226253
0.0148718
-0.235542
0.0158199
-0.245416
0.0168281
-0.255911
0.0179015
-0.267069
0.0190451
-0.278931
0.0202643
-0.291543
0.0215648
-0.304954
0.0229527
-0.319217
0.0244343
-0.334386
0.0260167
-0.350523
0.0277067
-0.36769
0.0295122
-0.385956
0.0314412
-0.405391
0.033502
-0.426073
0.0357042
-0.448081
0.0380575
-0.471503
0.0405714
-0.496429
0.0432572
-0.522954
0.0461259
-0.55118
0.0491889
-0.581212
0.0524598
-0.613161
0.0559493
-0.647144
0.0596749
-0.683281
0.0636414
-0.721699
0.06788
-0.762529
0.0723773
-0.805899
0.0771904
-0.851962
0.0822834
-0.90084
0.0877365
-0.95261
0.093347
-1.00801
0.100336
-1.06473
0.103617
-1.12906
0.117381
-1.19498
0.121797
0.0915124
0.00486579
0.00459123
-0.0050621
0.00434821
0.00416659
0.00352908
0.00358057
0.00257696
0.00291309
0.00164759
0.00228674
0.000826391
0.00176925
0.000137542
0.00136979
-0.000436002
0.001072
-0.000905978
0.000856128
-0.00129485
0.000701992
-0.00162371
0.000593045
-0.00190939
0.000516128
-0.00216339
0.000460972
-0.0023939
0.000421146
-0.00260713
0.000392959
-0.00280817
0.000374105
-0.00300106
0.000362663
-0.0031893
0.000357804
-0.00337636
0.000359849
-0.00356559
0.000368979
-0.00375987
0.000384202
-0.00396123
0.000402884
-0.00416999
0.000421596
-0.00438597
0.000438864
-0.00461
0.000456564
-0.00484356
0.000478199
-0.00509021
0.00050644
-0.00535382
0.00054302
-0.00563756
0.000587711
-0.00594568
0.000639432
-0.00628105
0.000698534
-0.00664727
0.000764499
-0.00704827
0.000837515
-0.00748736
0.000918867
-0.00797068
0.00101124
-0.00850424
0.00111825
-0.00909614
0.00124058
-0.00975395
0.00138017
-0.0104859
0.00153552
-0.0112999
0.00170443
-0.0122082
0.00189916
-0.013228
0.00213186
-0.0143749
0.00239581
-0.0156739
0.0027125
-0.0171399
0.00305777
-0.0188027
0.00346315
-0.0206915
0.00392994
-0.0228535
0.00449458
-0.0253315
0.00514661
-0.028179
0.00591129
-0.0314612
0.00680238
-0.0352448
0.00780276
-0.0395667
0.00884254
-0.0446696
0.010522
-0.0506279
0.0122366
-0.0577125
0.0145335
-0.0660979
0.0172592
-0.0757348
0.0198063
-0.086758
0.0224449
-0.100156
0.0271596
-0.117496
0.0356164
-0.139176
0.0456117
-0.162842
0.0509628
-0.184086
0.0465708
-0.199146
0.0333779
-0.207127
0.0176567
-0.209969
0.00594317
-0.210725
0.0010058
-0.211813
0.00160779
-0.214286
0.00472859
-0.21809
0.00781505
-0.222735
0.00978604
-0.227832
0.0108109
-0.233267
0.0115191
-0.239111
0.0123608
-0.24548
0.0134653
-0.252458
0.0147636
-0.260076
0.016148
-0.268352
0.017579
-0.277281
0.0190153
-0.286839
0.0203935
-0.297022
0.0217605
-0.307846
0.0231638
-0.31934
0.0246303
-0.331536
0.0261752
-0.344472
0.0278084
-0.358191
0.0295384
-0.372735
0.0313728
-0.388154
0.0333196
-0.404495
0.0353869
-0.421814
0.0375831
-0.440166
0.039917
-0.459611
0.0423976
-0.480211
0.0450343
-0.502032
0.0478372
-0.525141
0.0508161
-0.549611
0.0539815
-0.575514
0.0573445
-0.602927
0.0609153
-0.631929
0.0647058
-0.662599
0.0687276
-0.695019
0.0729918
-0.729272
0.0775097
-0.765439
0.0822929
-0.803602
0.0873517
-0.843839
0.0926971
-0.886227
0.0983376
-0.930837
0.104284
-0.977734
0.110539
-1.02697
0.117114
-1.0786
0.124008
-1.13262
0.131217
-1.18912
0.138778
-1.248
0.14662
-1.30917
0.154519
-1.37354
0.164699
-1.43709
0.167165
-1.50955
0.18985
-1.57922
0.191466
0.145147
0.00510545
0.00470552
-0.00521974
0.0048386
0.00443333
0.00432752
0.00409156
0.00361276
0.0036279
0.00278427
0.00311532
0.00193106
0.00262251
0.00111573
0.00218507
0.000371033
0.00181664
-0.00029234
0.00151949
-0.000878616
0.00128824
-0.00139066
0.00110502
-0.00184371
0.000969101
-0.00225037
0.000867575
-0.00262106
0.000791808
-0.00296397
0.000735899
-0.00328597
0.000696144
-0.00359276
0.000669486
-0.00388933
0.000654423
-0.00418047
0.000651057
-0.00447084
0.000659391
-0.00476462
0.000678093
-0.00506526
0.000703496
-0.00537412
0.000730462
-0.00569156
0.000756475
-0.00601886
0.000783744
-0.00635815
0.000817569
-0.00671406
0.000862388
-0.00709202
0.00092077
-0.00749668
0.000992652
-0.00793373
0.00107634
-0.00840764
0.00117244
-0.00892347
0.00128047
-0.00948686
0.00140064
-0.0101029
0.00153508
-0.0107796
0.00168771
-0.0115257
0.00186456
-0.0123522
0.00206699
-0.0132702
0.00229816
-0.0142915
0.00255696
-0.0154277
0.00284049
-0.0166962
0.00316784
-0.0181207
0.00355617
-0.019724
0.00399937
-0.0215409
0.00452926
-0.0235943
0.00511146
-0.0259262
0.00579483
-0.0285782
0.00658219
-0.0316166
0.00753284
-0.0351033
0.00863335
-0.0391132
0.00992114
-0.0437451
0.0114343
-0.049106
0.0131636
-0.0552441
0.0149807
-0.0624883
0.017766
-0.0709578
0.0207063
-0.0810182
0.0245938
-0.0929176
0.0291586
-0.106646
0.0335352
-0.122459
0.0382574
-0.141645
0.0463457
-0.16607
0.0600415
-0.19596
0.0755013
-0.228042
0.0830448
-0.256582
0.0751105
-0.276837
0.053633
-0.287797
0.0286166
-0.292064
0.0102102
-0.293616
0.00255819
-0.295569
0.00356031
-0.299256
0.0084159
-0.304596
0.0131548
-0.310968
0.0161581
-0.317899
0.0177424
-0.325272
0.0188923
-0.333195
0.0202833
-0.341819
0.0220897
-0.351249
0.0241934
-0.361522
0.0264208
-0.372651
0.0287077
-0.384621
0.0309862
-0.3974
0.0331718
-0.410976
0.0353369
-0.425366
0.0375535
-0.440598
0.0398622
-0.456708
0.0422853
-0.473737
0.044837
-0.491727
0.0475285
-0.510724
0.05037
-0.530776
0.0533714
-0.551932
0.0565428
-0.574242
0.0598938
-0.59776
0.0634347
-0.622538
0.0671752
-0.648629
0.0711252
-0.676086
0.0752949
-0.704963
0.0796925
-0.73531
0.0843285
-0.767175
0.0892099
-0.800605
0.094345
-0.835639
0.0997405
-0.872314
0.105403
-0.910657
0.111334
-0.950685
0.117538
-0.992406
0.124014
-1.03581
0.130759
-1.08088
0.137766
-1.12757
0.145029
-1.17582
0.152528
-1.22553
0.160253
-1.27658
0.16816
-1.32883
0.176265
-1.38204
0.184425
-1.43608
0.19282
-1.49053
0.201066
-1.54497
0.208963
-1.60041
0.220137
-1.65082
0.217573
-1.70992
0.248951
-1.75719
0.238737
0.182958
0.00531699
0.00480705
-0.00541857
0.00514492
0.00460533
0.00483894
0.00439758
0.0043634
0.00410352
0.00373893
0.00373988
0.00301315
0.00334827
0.00223622
0.00296192
0.00145151
0.00260129
0.00069055
0.00228041
-2.72848e-05
0.00200602
-0.000700102
0.00177775
-0.00131962
0.00158852
-0.00189111
0.001439
-0.00242107
0.00132176
-0.00291714
0.00123203
-0.00338609
0.00116516
-0.00383391
0.00111733
-0.00426607
0.00108665
-0.00468802
0.00107311
-0.00510513
0.00107656
-0.00552274
0.0010958
-0.00594594
0.00112667
-0.0063776
0.00116214
-0.00681891
0.00119799
-0.00727148
0.0012362
-0.00773785
0.00128397
-0.00822358
0.00134819
-0.00873575
0.00143276
-0.00928077
0.00153797
-0.00986606
0.0016615
-0.0104979
0.00180417
-0.011183
0.0019658
-0.011929
0.00214641
-0.0127429
0.0023492
-0.0136349
0.00257951
-0.0146167
0.0028465
-0.0157024
0.00315259
-0.016907
0.00350274
-0.0182468
0.00389686
-0.019737
0.00433057
-0.021401
0.00483198
-0.0232695
0.00542456
-0.0253735
0.00610354
-0.0277588
0.00691437
-0.0304571
0.00781018
-0.0335249
0.00886237
-0.0370169
0.0100744
-0.0410208
0.0115366
-0.0456206
0.0132332
-0.0509154
0.015216
-0.0570434
0.0175623
-0.0641552
0.0202754
-0.0723036
0.0231292
-0.0819256
0.0273878
-0.0931854
0.0319662
-0.106544
0.0379528
-0.122342
0.0449564
-0.14064
0.051833
-0.161809
0.0594261
-0.187376
0.0719133
-0.219427
0.0920924
-0.258005
0.114078
-0.298994
0.124034
-0.335415
0.111532
-0.361533
0.0797516
-0.376124
0.0432075
-0.382348
0.0164335
-0.385069
0.0052791
-0.388124
0.0066163
-0.393178
0.0134692
-0.400147
0.0201235
-0.408289
0.0243009
-0.417052
0.0265045
-0.426315
0.0281561
-0.436234
0.030202
-0.447003
0.032859
-0.458751
0.035941
-0.471517
0.0391865
-0.485306
0.042497
-0.50009
0.0457699
-0.515816
0.0488977
-0.532461
0.0519822
-0.550031
0.0551237
-0.568547
0.0583784
-0.588037
0.0617756
-0.608533
0.0653325
-0.630066
0.0690619
-0.65267
0.0729739
-0.676377
0.0770781
-0.701217
0.0813832
-0.727221
0.0858972
-0.754413
0.0906273
-0.782817
0.0955794
-0.812451
0.100759
-0.843326
0.10617
-0.875446
0.111813
-0.908807
0.117689
-0.943393
0.123796
-0.979177
0.130129
-1.01611
0.136679
-1.05415
0.143435
-1.0932
0.150383
-1.13316
0.1575
-1.17391
0.164763
-1.21529
0.172138
-1.25711
0.179589
-1.29916
0.187074
-1.34116
0.194529
-1.38282
0.201919
-1.42378
0.209117
-1.46369
0.216176
-1.502
0.222736
-1.53842
0.229236
-1.57216
0.234804
-1.60259
0.239401
-1.63085
0.248391
-1.64921
0.235936
-1.67534
0.275077
-1.67887
0.242266
0.188911
0.00554431
0.00490234
-0.00563966
0.0054019
0.0047478
0.0051945
0.00460505
0.00487607
0.00442203
0.00443775
0.00417823
0.00388893
0.00389707
0.00325097
0.00359983
0.00255103
0.00330118
0.00181728
0.00301413
0.00107335
0.00274988
0.000336433
0.00251456
-0.000385255
0.0023101
-0.00108368
0.00213738
-0.00175249
0.0019906
-0.00239357
0.0018732
-0.0030106
0.00178225
-0.00360758
0.00171434
-0.00418867
0.00166782
-0.00475827
0.00164283
-0.00532097
0.00163928
-0.00588207
0.00165696
-0.00644777
0.00169237
-0.00702257
0.00173698
-0.00760873
0.00178434
-0.00820792
0.00183526
-0.00882257
0.00189863
-0.00945861
0.00198437
-0.0101246
0.00209855
-0.0108288
0.00224244
-0.0115806
0.00241323
-0.0123882
0.00261165
-0.0132605
0.00283827
-0.0142068
0.00309258
-0.0152364
0.00337899
-0.0163617
0.00370455
-0.0175974
0.00408232
-0.0189611
0.00451618
-0.0204719
0.00501353
-0.0221512
0.00557634
-0.0240181
0.00619735
-0.026102
0.00691604
-0.0284413
0.00776376
-0.0310751
0.00873749
-0.0340618
0.00990091
-0.0374427
0.0111914
-0.0412895
0.0127089
-0.0456708
0.014456
-0.0506971
0.0165627
-0.0564769
0.0190131
-0.0631357
0.0218747
-0.0708511
0.0252776
-0.0797827
0.0292069
-0.0901554
0.033502
-0.102261
0.0394933
-0.116487
0.0461921
-0.133339
0.0548049
-0.153269
0.0648869
-0.17644
0.0750034
-0.203315
0.0863018
-0.235563
0.104161
-0.275405
0.131935
-0.322766
0.161439
-0.372884
0.174152
-0.417696
0.156344
-0.450454
0.112509
-0.469521
0.062275
-0.478401
0.0253133
-0.482743
0.00962157
-0.487136
0.0110095
-0.493649
0.0199818
-0.502253
0.0287277
-0.512096
0.0341433
-0.522529
0.0369384
-0.533436
0.0390622
-0.545023
0.0417898
-0.557546
0.0453817
-0.571164
0.0495592
-0.58592
0.0539425
-0.601809
0.0583859
-0.618779
0.0627395
-0.636749
0.0668676
-0.655671
0.0709043
-0.675529
0.0749819
-0.696323
0.0791728
-0.71806
0.0835126
-0.740747
0.0880195
-0.76439
0.0927044
-0.78899
0.0975741
-0.814546
0.102634
-0.841048
0.107886
-0.868482
0.113331
-0.896823
0.118968
-0.926037
0.124794
-0.956078
0.1308
-0.986886
0.136978
-1.01839
0.143312
-1.05048
0.149788
-1.08307
0.156381
-1.116
0.163064
-1.14913
0.169805
-1.18226
0.176567
-1.21518
0.183304
-1.24765
0.189964
-1.27937
0.196487
-1.31004
0.20281
-1.33931
0.208853
-1.36678
0.214546
-1.39202
0.219775
-1.41461
0.2245
-1.43399
0.2285
-1.44974
0.231931
-1.46117
0.234159
-1.468
0.236071
-1.46933
0.236131
-1.4647
0.234777
-1.45543
0.239119
-1.43347
0.213974
-1.4187
0.260307
-1.37473
0.198295
0.160752
0.00579663
0.00498759
-0.00588182
0.0056676
0.0048769
0.00549476
0.00477793
0.00525772
0.00465909
0.00493915
0.00449681
0.00453403
0.0043022
0.00404535
0.00408852
0.00348185
0.00386468
0.00285694
0.00363903
0.00218599
0.00342076
0.0014834
0.00321704
0.000761021
0.00303242
2.90683e-05
0.00286938
-0.000709504
0.00272925
-0.00144207
0.00260582
-0.00216731
0.00250753
-0.00288444
0.00243152
-0.00359542
0.0023789
-0.00430234
0.00234982
-0.00500734
0.00234423
-0.00571374
0.00236342
-0.00642724
0.00240593
-0.00715326
0.002463
-0.00789505
0.00252626
-0.00865407
0.00259415
-0.00943177
0.00267635
-0.0102334
0.00278614
-0.011068
0.00293301
-0.0119457
0.00312028
-0.0128777
0.00334528
-0.0138743
0.00360809
-0.0149463
0.00391043
-0.0161051
0.00425123
-0.0173619
0.004636
-0.0187314
0.00507377
-0.0202312
0.00558221
-0.0218824
0.00616733
-0.0237084
0.00683957
-0.0257363
0.00760445
-0.0279887
0.00844957
-0.0305007
0.00942825
-0.0333188
0.0105818
-0.0364897
0.0119085
-0.0400856
0.0134967
-0.044157
0.015263
-0.0487917
0.0173434
-0.0540717
0.0197362
-0.0601306
0.0226215
-0.0671028
0.0259855
-0.0751404
0.0299122
-0.0844577
0.034595
-0.0953112
0.0400603
-0.10778
0.0459714
-0.122466
0.054179
-0.139679
0.0634054
-0.160034
0.0751595
-0.184109
0.0889616
-0.212195
0.103089
-0.244814
0.118921
-0.283642
0.142988
-0.330948
0.179241
-0.386661
0.217152
-0.44569
0.233181
-0.499164
0.209818
-0.539325
0.15267
-0.563857
0.0868069
-0.57626
0.0377165
-0.582773
0.016134
-0.588738
0.0169743
-0.596738
0.0279823
-0.606884
0.0388737
-0.618222
0.0454812
-0.629988
0.0487042
-0.642047
0.0511211
-0.654677
0.0544201
-0.668213
0.0589174
-0.682866
0.0642129
-0.69869
0.0697662
-0.715667
0.0753629
-0.733714
0.0807866
-0.752711
0.0858639
-0.772568
0.0907622
-0.793235
0.0956485
-0.814675
0.100613
-0.836857
0.105695
-0.859749
0.110911
-0.883312
0.116268
-0.907501
0.121763
-0.93226
0.127392
-0.957521
0.133147
-0.983206
0.139016
-1.00922
0.144982
-1.03545
0.151025
-1.06177
0.157121
-1.08803
0.16324
-1.11407
0.169345
-1.13968
0.175397
-1.16465
0.181349
-1.18873
0.187147
-1.21165
0.192731
-1.23312
0.198037
-1.25281
0.202991
-1.27036
0.207517
-1.28541
0.211529
-1.29754
0.214942
-1.30634
0.217658
-1.3114
0.219602
-1.31226
0.22064
-1.30854
0.220778
-1.29977
0.219725
-1.28569
0.217851
-1.26575
0.214217
-1.24009
0.210412
-1.20798
0.204028
-1.16971
0.196505
-1.12669
0.196096
-1.07242
0.159701
-1.02563
0.213517
-0.951643
0.124313
0.112394
0.00607078
0.00506506
-0.0061482
0.00595309
0.00499455
0.00579614
0.00493486
0.00559641
0.00485883
0.00533883
0.00475444
0.00502091
0.00462018
0.00464043
0.00446906
0.00419716
0.00430801
0.00369391
0.00414227
0.00313633
0.0039783
0.00253083
0.00382252
0.00188423
0.00367906
0.00120268
0.00355102
0.000492733
0.00343926
-0.000244749
0.00334332
-0.0010026
0.00326543
-0.00177329
0.00320229
-0.00255571
0.00316138
-0.00335037
0.00314446
-0.00415733
0.0031511
-0.00497744
0.0031836
-0.00581428
0.00324284
-0.00667287
0.00332154
-0.00755719
0.00341067
-0.00846831
0.0035052
-0.00940594
0.00361397
-0.0103731
0.00375341
-0.0113778
0.0039376
-0.0124309
0.00417346
-0.0135451
0.00445959
-0.0147324
0.0047953
-0.0160056
0.00518367
-0.0173778
0.0056232
-0.0188619
0.00612031
-0.0204743
0.00668606
-0.0222352
0.00734332
-0.0241692
0.0081012
-0.0263034
0.00897383
-0.0286714
0.00997249
-0.0312981
0.0110762
-0.0342242
0.0123545
-0.037504
0.0138615
-0.04119
0.0155947
-0.0453692
0.0176757
-0.0501001
0.0199943
-0.0554865
0.0227295
-0.0616221
0.025872
-0.0686624
0.0296617
-0.0767674
0.0340905
-0.0861153
0.0392601
-0.0969547
0.0454344
-0.109619
0.0527241
-0.124091
0.0604436
-0.141202
0.07129
-0.161228
0.0834317
-0.184855
0.0987868
-0.212793
0.116899
-0.245489
0.135785
-0.283483
0.156915
-0.328306
0.187811
-0.382157
0.233092
-0.44512
0.280116
-0.512197
0.300257
-0.574124
0.271745
-0.622234
0.20078
-0.653233
0.117806
-0.670155
0.0546387
-0.679491
0.0254697
-0.687278
0.0247612
-0.696734
0.0374383
-0.708226
0.0503661
-0.720724
0.0579795
-0.733304
0.0612841
-0.745781
0.0635975
-0.758509
0.0671484
-0.771939
0.0723472
-0.786369
0.0786427
-0.801879
0.0852764
-0.818447
0.0919307
-0.835953
0.0982934
-0.854226
0.104137
-0.873124
0.109659
-0.892541
0.115066
-0.912394
0.120465
-0.932601
0.125902
-0.953077
0.131388
-0.973728
0.136919
-0.994449
0.142484
-1.01512
0.148064
-1.03561
0.153635
-1.05576
0.15917
-1.07542
0.164635
-1.09438
0.169989
-1.11245
0.175189
-1.12939
0.180184
-1.14497
0.184919
-1.1589
0.189333
-1.17091
0.19336
-1.18069
0.196927
-1.18792
0.19996
-1.19227
0.202384
-1.1934
0.204117
-1.19096
0.205082
-1.18463
0.205199
-1.17409
0.204402
-1.15904
0.202611
-1.13925
0.199804
-1.11448
0.195871
-1.08464
0.19094
-1.0496
0.184684
-1.00956
0.177808
-0.964359
0.16902
-0.914802
0.160856
-0.860541
0.149767
-0.802806
0.138769
-0.742812
0.136102
-0.676751
0.093641
-0.61884
0.155606
-0.542958
0.0484306
0.0645889
0.00636583
0.00513829
-0.00643909
0.00625782
0.00510248
0.00611338
0.00507932
0.00593119
0.00504111
0.00570709
0.00497863
0.00543577
0.0048916
0.00511738
0.00478752
0.00475184
0.00467358
0.00433931
0.0045548
0.00388094
0.0044367
0.00337835
0.00432519
0.0028329
0.00422461
0.00224625
0.00413774
0.0016196
0.00406592
0.00095342
0.00400953
0.000249597
0.00396933
-0.000495045
0.003947
-0.00127033
0.00393666
-0.00207658
0.00395066
-0.00291223
0.00398668
-0.00377834
0.00404973
-0.004677
0.00414152
-0.00561265
0.00425713
-0.0065904
0.00438853
-0.00761151
0.00452628
-0.00867419
0.00467657
-0.0097781
0.00485746
-0.0109286
0.00508797
-0.0121351
0.00538006
-0.013411
0.00573549
-0.0147693
0.00615356
-0.0162245
0.00663892
-0.0177906
0.00718917
-0.0194818
0.00781174
-0.0213158
0.00851989
-0.0233145
0.00934206
-0.0255047
0.0102914
-0.0279172
0.0113863
-0.0305915
0.0126469
-0.0335548
0.0140394
-0.0368511
0.0156508
-0.0405423
0.0175526
-0.0446845
0.0197371
-0.0493785
0.0223696
-0.0546897
0.0253058
-0.060736
0.0287756
-0.0676199
0.0327562
-0.0755156
0.0375573
-0.0846058
0.0431807
-0.0950951
0.0497493
-0.107258
0.0575974
-0.121498
0.0669637
-0.137677
0.0766235
-0.156871
0.0904834
-0.179301
0.105862
-0.205691
0.125177
-0.236864
0.148072
-0.273445
0.172367
-0.315967
0.199437
-0.36566
0.237504
-0.424498
0.291929
-0.492834
0.348452
-0.566253
0.373676
-0.63566
0.341153
-0.691736
0.256856
-0.729993
0.156062
-0.752448
0.0770945
-0.765348
0.0383695
-0.775238
0.0346511
-0.786069
0.048269
-0.798624
0.0629215
-0.811846
0.0712014
-0.824592
0.0740302
-0.836561
0.0755659
-0.848175
0.0787626
-0.860043
0.0842153
-0.872604
0.0912032
-0.886002
0.0986753
-0.900232
0.10616
-0.915141
0.113203
-0.930501
0.119496
-0.946105
0.125263
-0.961788
0.130749
-0.977408
0.136086
-0.99283
0.141323
-1.00791
0.14647
-1.02251
0.151513
-1.03645
0.156427
-1.04957
0.161181
-1.06167
0.165738
-1.07255
0.170053
-1.082
0.174079
-1.08977
0.177761
-1.09562
0.181044
-1.09931
0.183866
-1.10055
0.186162
-1.09908
0.187868
-1.09464
0.188917
-1.08695
0.189241
-1.07577
0.188779
-1.06086
0.187473
-1.04202
0.185272
-1.01907
0.182137
-0.99191
0.178036
-0.960474
0.172966
-0.924777
0.166914
-0.884926
0.159953
-0.84109
0.152035
-0.793608
0.143458
-0.742777
0.133854
-0.689297
0.124328
-0.633407
0.11313
-0.576429
0.103878
-0.518209
0.0915472
-0.460598
0.0811582
-0.404149
0.0796525
-0.34738
0.0368721
-0.298622
0.106848
-0.242201
-0.00799056
0.0315369
0.00668443
0.0052093
-0.00675552
0.0065837
0.00520325
0.00645061
0.0052125
0.00628251
0.00520929
0.00607845
0.00518276
0.00583357
0.00513654
0.00554917
0.00507193
0.00522656
0.00499619
0.00486719
0.00491423
0.00447244
0.00483155
0.00404351
0.00475422
0.00358069
0.00468749
0.00308351
0.00463494
0.00255037
0.00459909
0.00197936
0.0045806
0.00136792
0.00458083
0.000715394
0.00459952
1.52586e-05
0.00463676
-0.000732348
0.00469826
-0.00152156
0.00477585
-0.00235451
0.00488263
-0.00323327
0.00502027
-0.00416347
0.00518727
-0.0051532
0.00537829
-0.0062062
0.0055792
-0.0073216
0.00579189
-0.00849659
0.00603266
-0.0097327
0.00632403
-0.0110366
0.00668393
-0.0124205
0.00711941
-0.0138979
0.00763083
-0.015484
0.00822525
-0.0171937
0.00889874
-0.0190415
0.00965949
-0.0210453
0.0105235
-0.0232278
0.0115247
-0.0256169
0.0126805
-0.0282453
0.0140147
-0.0311586
0.0155605
-0.0343851
0.0172658
-0.0379695
0.0192353
-0.0419806
0.0215636
-0.046475
0.0242316
-0.0515647
0.0274592
-0.0573196
0.031061
-0.0638694
0.0353253
-0.071321
0.0402079
-0.0798619
0.0460981
-0.0896897
0.0530086
-0.101038
0.0610974
-0.114192
0.0707512
-0.12964
0.0824121
-0.14704
0.0940233
-0.167743
0.111187
-0.191905
0.130023
-0.220248
0.15352
-0.253661
0.181485
-0.292949
0.211655
-0.338634
0.245122
-0.391519
0.290389
-0.453161
0.353571
-0.524219
0.41951
-0.60132
0.450777
-0.676221
0.416054
-0.739414
0.32005
-0.785175
0.201823
-0.813987
0.105906
-0.831202
0.0555842
-0.843505
0.046954
-0.855597
0.0603613
-0.868867
0.0761918
-0.882328
0.0846619
-0.894559
0.0862617
-0.905035
0.086042
-0.914204
0.0879313
-0.922869
0.0928805
-0.931683
0.100017
-0.940921
0.107913
-0.950633
0.115872
-0.960661
0.123232
-0.970724
0.129559
-0.980551
0.135091
-0.989919
0.140116
-0.998632
0.144799
-1.00651
0.1492
-1.01337
0.153329
-1.01902
0.157167
-1.02328
0.160682
-1.02593
0.163837
-1.02678
0.166585
-1.02561
0.16888
-1.0222
0.170668
-1.01633
0.171897
-1.0078
0.172513
-0.9964
0.172465
-0.98194
0.171702
-0.964251
0.17018
-0.943193
0.167859
-0.91866
0.164708
-0.890591
0.16071
-0.858978
0.15586
-0.823873
0.150167
-0.7854
0.143664
-0.743755
0.136392
-0.699221
0.128433
-0.652158
0.119851
-0.603025
0.11082
-0.552322
0.101332
-0.500701
0.0918376
-0.448701
0.0818534
-0.397234
0.0728619
-0.34659
0.0624847
-0.298161
0.0554495
-0.251544
0.04493
-0.208563
0.038177
-0.168824
0.0399137
-0.13199
3.7965e-05
-0.101502
0.0763603
-0.0696984
-0.0397937
0.015261
0.00702952
0.00527919
-0.00709939
0.00693385
0.0052991
0.00680942
0.00533696
0.00665311
0.00536559
0.00646316
0.00537269
0.00623914
0.00536052
0.00597687
0.00533418
0.00567942
0.00529366
0.00534925
0.00524447
0.00498887
0.00519201
0.00460084
0.00514228
0.00418711
0.00510124
0.0037483
0.00507378
0.0032838
0.00506367
0.0027912
0.00507324
0.00226767
0.00510437
0.0017092
0.00515794
0.00111059
0.00523535
0.000469231
0.00533962
-0.000226897
0.00547195
-0.000971756
0.00562752
-0.0017674
0.005816
-0.00261749
0.00603728
-0.00353492
0.00629564
-0.00452824
0.00657246
-0.00560232
0.00686592
-0.00675529
0.00718575
-0.00798646
0.00755512
-0.00929926
0.00799677
-0.0107041
0.00852425
-0.0122135
0.00914001
-0.0138435
0.00985524
-0.0156093
0.0106647
-0.0175253
0.0115757
-0.019609
0.0126071
-0.0218831
0.0137989
-0.0243746
0.015172
-0.0271168
0.0167569
-0.03016
0.0186038
-0.0335325
0.0206383
-0.0372773
0.0229802
-0.0414676
0.0257538
-0.0461588
0.0289229
-0.0514683
0.0327686
-0.0574676
0.0370605
-0.0642952
0.0421528
-0.0720552
0.0479681
-0.0809431
0.054986
-0.091158
0.0632235
-0.102962
0.0729012
-0.11665
0.0844389
-0.132549
0.098311
-0.150517
0.111992
-0.17215
0.13282
-0.197111
0.154984
-0.226313
0.182722
-0.260625
0.215798
-0.301007
0.252037
-0.347988
0.292103
-0.401876
0.344277
-0.463611
0.415306
-0.534095
0.489994
-0.611322
0.528004
-0.688627
0.493359
-0.756951
0.388374
-0.809561
0.254432
-0.845051
0.141397
-0.867176
0.0777096
-0.882189
0.0619668
-0.895406
0.073578
-0.909003
0.0897889
-0.92223
0.0978891
-0.933364