/*--------------------------------*- C++ -*----------------------------------*\
| =========                 |                                                 |
| \\      /  F ield         | OpenFOAM: The Open Source CFD Toolbox           |
|  \\    /   O peration     | Version:  2412                                  |
|   \\  /    A nd           | Website:  www.openfoam.com                      |
|    \\/     M anipulation  |                                                 |
\*---------------------------------------------------------------------------*/
FoamFile
{
    version     2.0;
    format      ascii;
    arch        "LSB;label=32;scalar=64";
    class       surfaceScalarField;
    location    "0.03";
    object      phi_0;
}
// * * * * * * * * * * * * * * * * * * * * * * * * * * * * * * * * * * * * * //

dimensions      [0 3 -1 0 0 0 0];

oriented        oriented;

internalField   nonuniform List<scalar> 
24930
(
0.0139317
0.0102056
-0.0241373
0.00788436
0.0060473
0.00530485
0.00257951
0.00415096
0.00115389
0.00350398
0.000646985
0.00307685
0.000427126
0.00276613
0.000310721
0.00252676
0.000239372
0.00233509
0.000191667
0.00217717
0.000157918
0.00204424
0.000132935
0.00193042
0.000113817
0.00183161
9.88091e-05
0.00174484
8.67755e-05
0.00166788
7.69528e-05
0.00159908
6.88079e-05
0.00153711
6.19614e-05
0.00148098
5.61374e-05
0.00142985
5.11302e-05
0.00138306
4.6784e-05
0.00134008
4.29795e-05
0.00130046
3.96229e-05
0.00126382
3.66401e-05
0.00122985
3.39721e-05
0.00119828
3.15708e-05
0.00116888
2.93973e-05
0.00114146
2.74193e-05
0.00111585
2.56097e-05
0.00109191
2.3946e-05
0.0010695
2.24087e-05
0.00104852
2.09815e-05
0.00102886
1.96504e-05
0.00101046
1.84039e-05
0.00099323
1.72314e-05
0.000977105
1.61241e-05
0.000962033
1.50729e-05
0.000947962
1.40705e-05
0.000934852
1.31099e-05
0.000922666
1.21859e-05
0.000911374
1.12919e-05
0.000900949
1.04248e-05
0.000891373
9.57678e-06
0.000882629
8.74349e-06
0.000874712
7.91729e-06
0.000867619
7.09248e-06
0.000861355
6.26423e-06
0.00085593
5.42536e-06
0.000851358
4.57175e-06
0.000847665
3.69313e-06
0.000844882
2.78275e-06
0.000843049
1.83331e-06
0.000842219
8.2941e-07
0.000842462
-2.42655e-07
0.00084384
-1.37784e-06
0.000846447
-2.60733e-06
0.0008504
-3.9528e-06
0.000855865
-5.46524e-06
0.000863029
-7.16363e-06
0.000872033
-9.00371e-06
0.000883038
-1.10051e-05
0.000896445
-1.34069e-05
0.000913013
-1.65683e-05
0.000933578
-2.0565e-05
0.000958477
-2.48987e-05
0.000987202
-2.87249e-05
0.00101862
-3.14226e-05
0.00105158
-3.29531e-05
0.00108534
-3.37623e-05
0.00111976
-3.44203e-05
0.00115509
-3.53263e-05
0.0011917
-3.66179e-05
0.00122995
-3.82466e-05
0.00127006
-4.01069e-05
0.00131218
-4.21265e-05
0.00135647
-4.42887e-05
0.00140308
-4.6608e-05
0.00145219
-4.91077e-05
0.001504
-5.18099e-05
0.00155872
-5.47208e-05
0.00161659
-5.78672e-05
0.00167784
-6.12575e-05
0.00174274
-6.48964e-05
0.00181154
-6.87957e-05
0.00188451
-7.29711e-05
0.00196195
-7.74409e-05
0.00204417
-8.22266e-05
0.00213153
-8.73509e-05
0.00222436
-9.28388e-05
0.00232308
-9.87173e-05
0.0024281
-0.000105016
0.00253986
-0.000111765
0.00265886
-0.000119001
0.00278562
-0.00012676
0.00292071
-0.000135081
0.00306471
-0.000144009
0.00321831
-0.000153592
0.00338218
-0.000163877
0.00355711
-0.000174924
0.00374389
-0.000186786
0.00394342
-0.00019953
0.00415665
-0.000213228
0.0043846
-0.000227953
0.00462839
-0.000243784
0.0048892
-0.000260815
0.00516834
-0.000279133
0.00546718
-0.000298848
0.00578725
-0.000320066
0.00613015
-0.000342904
0.00649766
-0.000367509
0.00689163
-0.000393971
0.00731417
-0.000422534
0.00776733
-0.000453158
0.0082537
-0.000486374
0.00877533
-0.000521631
0.00933561
-0.000560283
0.00993511
-0.000599499
0.0105823
-0.000647167
0.0112536
-0.000671313
0.0120157
-0.000762086
-0.00065387
0.0288644
0.0129565
-0.0316153
0.0236413
0.0112704
0.0187893
0.00743153
0.015322
0.00462123
0.0130046
0.00296434
0.0114016
0.00203013
0.0102291
0.00148319
0.00932858
0.00113994
0.0086097
0.000910543
0.00801875
0.000748875
0.007522
0.000629677
0.00709715
0.000538674
0.00672866
0.000467297
0.00640534
0.000410092
0.00611888
0.000363413
0.00586296
0.000324726
0.0056327
0.000292225
0.00542424
0.000264594
0.00523452
0.000240853
0.00506105
0.000220259
0.00490178
0.000202242
0.00475505
0.000186357
0.00461944
0.000172251
0.00449377
0.000159641
0.00437704
0.000148299
0.0042684
0.000138039
0.00416711
0.000128708
0.00407255
0.000120177
0.00398415
0.000112338
0.00390146
0.0001051
0.00382406
9.83848e-05
0.00375158
9.21257e-05
0.00368372
8.62676e-05
0.00362019
8.07607e-05
0.00356075
7.55625e-05
0.00350519
7.06312e-05
0.00345333
6.59312e-05
0.00340501
6.14306e-05
0.0033601
5.71026e-05
0.00331847
5.292e-05
0.00328003
4.88621e-05
0.00324472
4.48922e-05
0.00321247
4.0992e-05
0.00318326
3.71284e-05
0.00315707
3.32732e-05
0.00313394
2.9402e-05
0.00311388
2.54826e-05
0.00309696
2.14907e-05
0.00308327
1.73826e-05
0.00307293
1.3123e-05
0.00306609
8.67911e-06
0.00306295
3.9675e-06
0.00306377
-1.06117e-06
0.00306877
-6.38392e-06
0.00307835
-1.21847e-05
0.00309296
-1.85592e-05
0.00311322
-2.57276e-05
0.00313979
-3.3733e-05
0.00317323
-4.2451e-05
0.00321433
-5.20969e-05
0.00326465
-6.37322e-05
0.00332676
-7.86798e-05
0.00340308
-9.68864e-05
0.00349417
-0.000115983
0.0035979
-0.000132461
0.00371046
-0.000143978
0.00382817
-0.000150661
0.00394893
-0.000154521
0.00407245
-0.000157944
0.00419964
-0.000162515
0.00433175
-0.000168732
0.00446987
-0.000176363
0.00461475
-0.000184983
0.00476694
-0.000194323
0.00492699
-0.000204334
0.00509547
-0.000215087
0.00527304
-0.000226678
0.00546042
-0.000239194
0.00565838
-0.000252681
0.00586775
-0.000267235
0.00608938
-0.000282894
0.00632418
-0.00029969
0.00657306
-0.000317677
0.00683702
-0.00033693
0.00711711
-0.000357535
0.00741447
-0.000379587
0.00773031
-0.000403192
0.00806594
-0.000428462
0.00842274
-0.000455521
0.00880223
-0.000484502
0.00920601
-0.000515549
0.00963583
-0.000548816
0.0100935
-0.000584473
0.0105812
-0.000622694
0.0111008
-0.000663695
0.0116549
-0.000707661
0.0122459
-0.000754839
0.0128764
-0.000805462
0.0135494
-0.000859801
0.014268
-0.000918149
0.0150356
-0.000980818
0.0158558
-0.00104812
0.0167325
-0.00112044
0.0176698
-0.00119816
0.0186724
-0.00128168
0.019745
-0.00137148
0.020893
-0.00146804
0.0221219
-0.00157185
0.0234379
-0.00168352
0.0248475
-0.00180356
0.0263578
-0.0019328
0.0279761
-0.00207151
0.0297108
-0.00222104
0.03157
-0.00238083
0.0335634
-0.00255366
0.035696
-0.00273219
0.0379941
-0.00294523
0.0403797
-0.0030569
0.043101
-0.00348338
-0.00299377
0.0367268
0.0121494
-0.0359197
0.0347812
0.0132161
0.0310505
0.0111622
0.0271871
0.00848464
0.0238949
0.00625655
0.0212753
0.00464975
0.0192175
0.00354102
0.0175817
0.00277575
0.0162537
0.00223846
0.0151521
0.00185048
0.0142209
0.00156094
0.0134212
0.00133834
0.0127256
0.00116287
0.012114
0.00102168
0.0115713
0.000906104
0.011086
0.000810084
0.0106489
0.000729268
0.0102531
0.000660465
0.00989264
0.000601286
0.00956299
0.000549911
0.00926029
0.000504939
0.00898138
0.00046527
0.0087236
0.000430032
0.00848471
0.000398526
0.00826283
0.000370185
0.00805632
0.000344547
0.0078638
0.000321229
0.00768406
0.000299913
0.00751607
0.000280329
0.00735892
0.00026225
0.00721183
0.00024548
0.0070741
0.000229853
0.00694514
0.00021523
0.00682441
0.000201488
0.00671145
0.000188518
0.00660587
0.00017622
0.0065073
0.000164502
0.00641544
0.000153285
0.00633004
0.0001425
0.00625088
0.000132082
0.00617777
0.000121973
0.00611057
0.00011209
0.00604919
0.00010238
0.00599355
9.27655e-05
0.00594364
8.31768e-05
0.0058995
7.35483e-05
0.00586118
6.38037e-05
0.00582879
5.38765e-05
0.00580252
4.36577e-05
0.00578258
3.3062e-05
0.00576926
2.19979e-05
0.00576296
1.02694e-05
0.00576414
-2.24259e-06
0.00577332
-1.55627e-05
0.00579118
-3.00524e-05
0.00581865
-4.6028e-05
0.00585689
-6.39647e-05
0.00590713
-8.39698e-05
0.00597053
-0.00010585
0.00604872
-0.00013029
0.00614475
-0.000159766
0.00626306
-0.000196981
0.00640739
-0.000241226
0.00657808
-0.000286671
0.00677097
-0.000325349
0.00697932
-0.000352324
0.00719697
-0.000368313
0.00742059
-0.000378142
0.0076499
-0.000387258
0.00788655
-0.000399161
0.00813269
-0.000414871
0.00839015
-0.000433821
0.00866024
-0.000455071
0.00894398
-0.000478063
0.00924236
-0.000502721
0.00955649
-0.000529216
0.00988759
-0.000557774
0.010237
-0.000588585
0.0106061
-0.000621771
0.0109964
-0.000657538
0.0114095
-0.000695979
0.0118469
-0.00073718
0.0123105
-0.000781277
0.0128021
-0.00082845
0.0133234
-0.000878909
0.0138767
-0.000932879
0.0144642
-0.000990617
0.0150881
-0.00105239
0.0157511
-0.00111849
0.0164558
-0.00118924
0.0172052
-0.00126498
0.0180025
-0.00134608
0.0188509
-0.00143292
0.0197542
-0.00152594
0.0207161
-0.00162561
0.0217409
-0.00173242
0.0228329
-0.00184689
0.023997
-0.00196959
0.0252384
-0.00210114
0.0265624
-0.00224221
0.0279751
-0.00239352
0.0294828
-0.0025558
0.0310923
-0.0027299
0.0328108
-0.00291668
0.0346462
-0.00311707
0.0366068
-0.0033321
0.0387016
-0.00356284
0.0409402
-0.00381042
0.0433327
-0.00407605
0.0458901
-0.004361
0.0486241
-0.00466674
0.051547
-0.00499442
0.0546718
-0.00534581
0.0580125
-0.00572153
0.0615832
-0.00612441
0.0653932
-0.00654219
0.0694869
-0.00703894
0.0737228
-0.00729276
0.0785575
-0.00831812
-0.00718688
0.0411296
0.0103754
-0.0393556
0.0416777
0.0126679
0.0402514
0.0125885
0.0376245
0.0111116
0.0346249
0.00925609
0.0317465
0.00752818
0.0291921
0.00609539
0.0269966
0.00497131
0.0251249
0.00411011
0.0235246
0.00345076
0.0221449
0.00294063
0.0209439
0.00253935
0.0198888
0.00221805
0.0189539
0.00195652
0.0181195
0.00174051
0.0173698
0.00155977
0.0166923
0.00140677
0.0160769
0.00127593
0.0155152
0.00116296
0.0150005
0.0010646
0.0145272
0.000978279
0.0140905
0.000901981
0.0136864
0.000834088
0.0133116
0.000773299
0.0129633
0.000718553
0.0126388
0.000668979
0.0123362
0.000623854
0.0120535
0.000582574
0.0117892
0.00054463
0.0115419
0.000509585
0.0113103
0.000477069
0.0110934
0.000446762
0.0108902
0.000418396
0.0107
0.000391734
0.0105219
0.000366569
0.0103555
0.000342706
0.0102
0.000319971
0.0100551
0.000298211
0.00992027
0.000277292
0.00979527
0.000257084
0.00967977
0.000237472
0.00957355
0.000218303
0.00947646
0.000199474
0.00938839
0.000180836
0.00930931
0.000162256
0.00923926
0.000143602
0.00917833
0.000124727
0.00912671
0.000105496
0.00908467
8.57047e-05
0.00905255
6.51788e-05
0.00903081
4.37364e-05
0.00902006
2.10167e-05
0.00902104
-3.22392e-06
0.00903457
-2.90863e-05
0.00906176
-5.72459e-05
0.00910407
-8.83372e-05
0.0091633
-0.000123195
0.00924137
-0.00016204
0.00934021
-0.000204689
0.00946252
-0.0002526
0.00961298
-0.000310228
0.00979794
-0.000381935
0.0100224
-0.000465659
0.0102861
-0.000550413
0.0105827
-0.000621978
0.0109024
-0.000672013
0.0112365
-0.000702348
0.0115803
-0.000721937
0.0119336
-0.000740567
0.0122988
-0.000764392
0.012679
-0.000795106
0.0130769
-0.000831658
0.0134942
-0.000872412
0.0139326
-0.000916442
0.0143935
-0.000963663
0.0148787
-0.0010144
0.01539
-0.00106906
0.0159294
-0.00112799
0.0164991
-0.00119142
0.0171012
-0.0012597
0.0177382
-0.001333
0.0184126
-0.00141149
0.0191267
-0.00149544
0.0198834
-0.00158517
0.0206856
-0.00168107
0.0215363
-0.00178356
0.0224388
-0.00189311
0.0233966
-0.0020102
0.0244135
-0.00213538
0.0254934
-0.00226922
0.0266408
-0.00241234
0.0278601
-0.0025654
0.0291563
-0.00272911
0.0305346
-0.00290424
0.0320006
-0.00309161
0.0335603
-0.00329209
0.03522
-0.0035066
0.0369866
-0.00373618
0.0388673
-0.00398186
0.0408699
-0.0042448
0.0430026
-0.00452623
0.0452742
-0.00482742
0.047694
-0.00514975
0.0502721
-0.0054947
0.0530188
-0.00586381
0.0559454
-0.00625871
0.0590637
-0.00668114
0.0623863
-0.00713296
0.0659262
-0.00761596
0.0696974
-0.00813223
0.0737144
-0.00868373
0.0779927
-0.00927272
0.0825474
-0.00990055
0.0873961
-0.0105702
0.0925541
-0.0112824
0.0980307
-0.0120187
0.103888
-0.0128963
0.109914
-0.0133186
0.116759
-0.0151633
-0.0132129
0.0443204
0.00883532
-0.0427803
0.045854
0.0111343
0.0462446
0.0121979
0.045357
0.0119992
0.0435768
0.0110362
0.0413495
0.00975556
0.039004
0.00844086
0.0367346
0.00724072
0.0346334
0.00621132
0.0327287
0.00535547
0.0310175
0.00465181
0.0294831
0.00407371
0.0281051
0.00359609
0.0268634
0.00319816
0.0257404
0.00286353
0.0247207
0.00257949
0.0237912
0.00233624
0.022941
0.00212619
0.0221605
0.0019434
0.0214419
0.00178319
0.0207784
0.0016418
0.0201641
0.00151624
0.0195942
0.00140407
0.0190642
0.00130329
0.0185705
0.00121226
0.0181098
0.00112962
0.0176795
0.00105423
0.0172769
0.000985129
0.0169
0.00092151
0.0165469
0.00086267
0.016216
0.000808009
0.0159058
0.000757009
0.0156149
0.00070923
0.0153424
0.000664285
0.0150871
0.000621835
0.0148482
0.000581559
0.014625
0.00054317
0.0144168
0.000506415
0.0142231
0.000471067
0.0140432
0.000436912
0.013877
0.000403756
0.0137239
0.000371346
0.0135839
0.000339511
0.0134567
0.000308003
0.0133424
0.000276597
0.0132409
0.000245073
0.0131524
0.000213177
0.0130773
0.000180679
0.0130157
0.000147237
0.0129684
0.000112555
0.0129358
7.63182e-05
0.0129189
3.79219e-05
0.0129187
-3.0627e-06
0.0129365
-4.68389e-05
0.0129737
-9.45147e-05
0.0130326
-0.000147181
0.0131155
-0.000206167
0.0132254
-0.000271886
0.013365
-0.000344272
0.0135382
-0.000425872
0.0137516
-0.000523603
0.0140133
-0.000643653
0.0143295
-0.000781821
0.0146993
-0.000920255
0.0151141
-0.00103673
0.0155608
-0.00111869
0.016028
-0.0011696
0.0165099
-0.00120384
0.0170062
-0.00123684
0.0175199
-0.00127816
0.0180552
-0.00133037
0.0186153
-0.00139178
0.0192028
-0.0014599
0.0198197
-0.00153337
0.0204682
-0.00161213
0.0211505
-0.00169672
0.0218693
-0.00178778
0.0226271
-0.00188586
0.023427
-0.00199133
0.0242721
-0.00210472
0.0251654
-0.0022263
0.0261102
-0.00235634
0.0271101
-0.00249528
0.0281685
-0.00264364
0.0292895
-0.00280202
0.030477
-0.00297109
0.0317355
-0.00315158
0.0330695
-0.00334426
0.0344841
-0.00354996
0.0359845
-0.00376957
0.0375762
-0.00400404
0.0392651
-0.00425439
0.0410577
-0.0045217
0.0429606
-0.00480712
0.0449809
-0.0051119
0.0471261
-0.00543729
0.0494043
-0.00578475
0.0518237
-0.00615566
0.0543935
-0.00655163
0.057123
-0.00697427
0.0600221
-0.00742534
0.0631013
-0.00790659
0.0663715
-0.00841998
0.0698443
-0.00896749
0.0735317
-0.00955118
0.0774462
-0.0101732
0.0816008
-0.0108358
0.0860092
-0.0115413
0.0906853
-0.012292
0.0956435
-0.0130904
0.100898
-0.0139385
0.106465
-0.0148396
0.112358
-0.0157933
0.118594
-0.0168059
0.125184
-0.0178732
0.132135
-0.018969
0.139518
-0.0202798
0.147064
-0.0208647
0.155539
-0.0236381
-0.0208232
0.0474346
0.00772835
-0.0463276
0.0489812
0.00958771
0.0502054
0.0109737
0.0506257
0.0115789
0.0501878
0.0114741
0.0490696
0.0108738
0.0475095
0.010001
0.0457192
0.00903105
0.0438528
0.00807767
0.0420079
0.00720036
0.0402386
0.00642117
0.038571
0.00574128
0.0370149
0.00515222
0.0355701
0.00464294
0.0342317
0.0042019
0.0329927
0.00381853
0.0318452
0.0034837
0.0307816
0.0031898
0.0297945
0.00293048
0.0288772
0.00270048
0.0280236
0.00249548
0.027228
0.00231185
0.0264855
0.00214658
0.0257916
0.00199714
0.0251425
0.0018614
0.0245345
0.00173757
0.0239646
0.00162412
0.02343
0.00151974
0.0229282
0.00142333
0.022457
0.00133389
0.0220144
0.00125059
0.0215987
0.00117269
0.0212084
0.00109956
0.020842
0.00103065
0.0204984
0.00096545
0.0201764
0.000903507
0.0198752
0.000844394
0.0195939
0.000787735
0.0193318
0.000733194
0.0190882
0.000680449
0.0188628
0.000629208
0.018655
0.000579096
0.0184647
0.00052985
0.0182916
0.000481095
0.0181357
0.000432499
0.0179971
0.000383706
0.0178759
0.000334339
0.0177725
0.000284033
0.0176875
0.000232268
0.0176215
0.000178578
0.0175753
0.000122473
0.0175502
6.3022e-05
0.0175476
-4.45687e-07
0.0175691
-6.82881e-05
0.0176167
-0.000142189
0.0176934
-0.000223812
0.0178023
-0.000315135
0.0179473
-0.000416892
0.0181323
-0.000529269
0.0183626
-0.000656163
0.0186464
-0.000807348
0.0189937
-0.00099093
0.0194117
-0.00119985
0.0198992
-0.0014078
0.0204453
-0.00158282
0.0210339
-0.00170726
0.0216508
-0.00178653
0.0222887
-0.00184167
0.0229469
-0.00189504
0.0236292
-0.00196046
0.0243404
-0.00204159
0.0250847
-0.00213605
0.0258651
-0.00224031
0.0266842
-0.00235253
0.0275448
-0.0024727
0.0284497
-0.00260165
0.0294023
-0.00274033
0.0304059
-0.00288951
0.0314643
-0.00304975
0.0325814
-0.00322177
0.0337611
-0.00340597
0.0350074
-0.00360273
0.0363248
-0.00381267
0.0377177
-0.00403653
0.0391909
-0.00427518
0.0407494
-0.00452956
0.0423985
-0.00480067
0.0441438
-0.00508961
0.0459914
-0.00539751
0.0479474
-0.00572561
0.0500186
-0.00607521
0.0522119
-0.00644769
0.0545347
-0.0068445
0.0569947
-0.00726716
0.0596002
-0.00771736
0.0623596
-0.00819669
0.0652818
-0.00870701
0.0683764
-0.00925019
0.0716529
-0.00982814
0.0751215
-0.0104429
0.0787927
-0.0110966
0.0826775
-0.0117914
0.086787
-0.0125294
0.0911326
-0.0133131
0.0957262
-0.0141447
0.10058
-0.0150267
0.105705
-0.0159612
0.111115
-0.0169508
0.11682
-0.0179977
0.122834
-0.0191043
0.129167
-0.020272
0.135833
-0.0215048
0.142838
-0.022799
0.150198
-0.0241651
0.157915
-0.025591
0.165989
-0.027043
0.174492
-0.0287824
0.183132
-0.029505
0.19266
-0.0331662
-0.0295922
0.050839
0.00691168
-0.0500223
0.0520877
0.00833904
0.0534285
0.00963289
0.0544618
0.0105456
0.0549497
0.0109863
0.0548456
0.0109778
0.0542259
0.0106207
0.0532171
0.0100399
0.0519477
0.00934711
0.0505249
0.00862315
0.0490288
0.00791722
0.0475152
0.00725493
0.0460204
0.006647
0.044568
0.00609537
0.0431716
0.00559824
0.0418387
0.00515145
0.0405723
0.0047501
0.0393729
0.0043892
0.0382393
0.00406405
0.0371694
0.00377041
0.0361604
0.00350453
0.0352091
0.00326308
0.0343126
0.00304315
0.0334675
0.00284219
0.0326709
0.00265797
0.03192
0.00248852
0.0312119
0.00233216
0.0305443
0.00218738
0.0299148
0.00205287
0.0293212
0.00192746
0.0287617
0.00181013
0.0282344
0.00169995
0.0277378
0.00159613
0.0272705
0.00149797
0.0268311
0.00140484
0.0264185
0.00131611
0.0260317
0.00123124
0.0256697
0.00114972
0.0253318
0.0010711
0.0250173
0.000994933
0.0247257
0.000920829
0.0244565
0.000848268
0.0242095
0.000776884
0.0239844
0.000706154
0.0237813
0.000635605
0.0236003
0.000564735
0.0234416
0.000492999
0.0233058
0.000419872
0.0231934
0.000344604
0.0231055
0.000266523
0.0230431
0.000184911
0.0230077
9.84242e-05
0.0230011
6.09707e-06
0.0230255
-9.26566e-05
0.0230835
-0.000200236
0.0231787
-0.000318986
0.0233153
-0.00045171
0.023498
-0.000599624
0.0237321
-0.000763315
0.0240241
-0.00094822
0.024384
-0.00116721
0.0248235
-0.00143041
0.025351
-0.00172737
0.0259652
-0.00202203
0.0266534
-0.00227105
0.0273968
-0.00245057
0.0281782
-0.00256797
0.0289884
-0.00265188
0.0298263
-0.00273291
0.0306959
-0.00283005
0.0316027
-0.00294846
0.0325517
-0.00308498
0.0335463
-0.00323492
0.0345896
-0.00339587
0.0356848
-0.00356793
0.0368355
-0.00375232
0.0380455
-0.00395034
0.0393191
-0.00416305
0.0406605
-0.00439122
0.0420745
-0.00463577
0.0435658
-0.0048972
0.0451391
-0.00517604
0.0467995
-0.00547305
0.0485522
-0.00578923
0.0504027
-0.00612569
0.0523567
-0.00648363
0.0544204
-0.00686436
0.0566001
-0.00726925
0.0589023
-0.00769976
0.0613341
-0.00815741
0.0639027
-0.00864382
0.0666157
-0.00916068
0.0694809
-0.00970975
0.0725066
-0.0102929
0.0757013
-0.010912
0.0790735
-0.011569
0.0826325
-0.012266
0.0863875
-0.0130051
0.0903477
-0.0137884
0.094523
-0.0146182
0.0989231
-0.0154966
0.103558
-0.0164259
0.108437
-0.0174083
0.11357
-0.0184461
0.118966
-0.0195414
0.124636
-0.0206964
0.130588
-0.021913
0.13683
-0.0231933
0.143371
-0.0245389
0.150219
-0.0259519
0.157379
-0.0274319
0.164858
-0.028984
0.172659
-0.0305996
0.180789
-0.0322952
0.189244
-0.0340466
0.19802
-0.0358184
0.207172
-0.0379346
0.216444
-0.038777
0.226438
-0.0431603
-0.0390605
0.0545661
0.00625234
-0.0539068
0.0555348
0.00737033
0.0567027
0.00846499
0.0578528
0.00939549
0.0587652
0.0100739
0.0593043
0.0104388
0.0594305
0.0104944
0.0591735
0.0102969
0.0585976
0.00992298
0.0577767
0.00944401
0.0567791
0.00891483
0.0556615
0.00837248
0.0544688
0.00783973
0.0532349
0.00732928
0.0519856
0.00684754
0.0507402
0.00639684
0.0495127
0.00597763
0.0483129
0.00558896
0.0471478
0.00522915
0.046022
0.00489623
0.0449383
0.00458816
0.0438985
0.00430292
0.0429031
0.00403855
0.0419521
0.00379321
0.0410449
0.00356517
0.0401806
0.00335282
0.0393581
0.00315469
0.038576
0.0029694
0.0378332
0.00279572
0.0371282
0.00263249
0.0364596
0.00247866
0.0358263
0.00233326
0.035227
0.00219544
0.0346606
0.00206443
0.0341259
0.00193951
0.033622
0.00181999
0.033148
0.0017052
0.0327032
0.00159455
0.0322868
0.00148748
0.0318983
0.00138345
0.0315372
0.00128197
0.0312031
0.00118238
0.0308957
0.0010842
0.0306151
0.000986757
0.0303613
0.000889424
0.0301345
0.000791531
0.0299352
0.000692334
0.0297639
0.000591137
0.0296216
0.000486902
0.0295094
0.000378719
0.0294287
0.000265594
0.0293815
0.00014568
0.0293699
1.76754e-05
0.0293966
-0.000119314
0.0294649
-0.000268549
0.029579
-0.00043314
0.0297442
-0.000616889
0.0299663
-0.000821711
0.0302517
-0.00104874
0.0306085
-0.00130503
0.0310479
-0.00160661
0.0315833
-0.00196574
0.0322243
-0.00236843
0.0329702
-0.00276797
0.0338074
-0.00310821
0.0347146
-0.00335773
0.035672
-0.00352537
0.036668
-0.00364791
0.0377004
-0.00376531
0.0387732
-0.00390285
0.0398924
-0.00406769
0.0410634
-0.00425597
0.0422902
-0.00446167
0.043576
-0.00468173
0.0449245
-0.0049164
0.0463396
-0.00516738
0.0478256
-0.00543641
0.0493875
-0.00572495
0.0510302
-0.00603392
0.0527589
-0.00636448
0.054579
-0.00671722
0.0564957
-0.00709273
0.0585146
-0.00749195
0.0606414
-0.00791606
0.0628821
-0.00836637
0.0652428
-0.00884434
0.0677299
-0.00935149
0.0703501
-0.00988946
0.0731102
-0.0104599
0.0760174
-0.0110646
0.079079
-0.0117053
0.0823023
-0.0123841
0.0856953
-0.0131027
0.0892655
-0.0138631
0.0930211
-0.0146675
0.09697
-0.0155179
0.10112
-0.0164163
0.10548
-0.0173649
0.110057
-0.0183658
0.11486
-0.0194209
0.119896
-0.0205324
0.125172
-0.0217022
0.130696
-0.0229323
0.136475
-0.0242244
0.142513
-0.0255802
0.148818
-0.0270014
0.155395
-0.0284892
0.162246
-0.0300451
0.169377
-0.0316695
0.17679
-0.0333644
0.184485
-0.0351275
0.192467
-0.0369655
0.200731
-0.0388636
0.209283
-0.0408471
0.218113
-0.0428766
0.227219
-0.0449244
0.236635
-0.0473515
0.246183
-0.0483247
0.256244
-0.0532216
-0.0489045
0.0585868
0.00568402
-0.0580185
0.0593658
0.00659131
0.0603286
0.00750224
0.0613803
0.00834373
0.0623842
0.00907004
0.0632101
0.00961286
0.0637754
0.00992905
0.0640501
0.0100223
0.0640439
0.00992917
0.0637893
0.00969859
0.0633273
0.00937685
0.0626985
0.00900127
0.0619393
0.00859898
0.0610804
0.0081882
0.0601474
0.00778048
0.0591615
0.00738274
0.0581407
0.0069985
0.0570996
0.00663003
0.0560505
0.00627826
0.0550032
0.00594347
0.0539659
0.0056255
0.0529449
0.0053239
0.0519454
0.00503809
0.0509712
0.00476738
0.0500254
0.00451101
0.04911
0.00426818
0.0482266
0.00403806
0.0473762
0.00381982
0.0465593
0.00361259
0.0457763
0.00341555
0.0450271
0.00322788
0.0443116
0.00304876
0.0436295
0.00287748
0.0429806
0.00271333
0.0423645
0.00255565
0.0417807
0.00240377
0.0412289
0.00225702
0.0407087
0.00211476
0.0402198
0.0019764
0.0397619
0.00184134
0.0393348
0.00170904
0.0389385
0.00157871
0.0385729
0.00144981
0.0382381
0.0013215
0.0379346
0.00119301
0.0376626
0.0010635
0.0374229
0.000932007
0.0372164
0.000797659
0.0370442
0.0006591
0.0369078
0.000515139
0.0368089
0.000364477
0.0367499
0.000204683
0.0367335
3.40736e-05
0.0367628
-0.000148588
0.0368418
-0.000347613
0.0369756
-0.000566903
0.0371701
-0.000811428
0.0374325
-0.00108403
0.0377703
-0.00138658
0.0381929
-0.00172762
0.0387125
-0.00212624
0.0393438
-0.00259697
0.0400979
-0.00312253
0.0409753
-0.00364539
0.0419625
-0.00409546
0.043037
-0.00443223
0.0441765
-0.00466483
0.0453667
-0.00483809
0.0466036
-0.0050022
0.0478906
-0.00518985
0.0492339
-0.005411
0.0506392
-0.00566125
0.0521106
-0.00593308
0.0536515
-0.00622265
0.0552655
-0.00653038
0.0569567
-0.00685859
0.0587299
-0.00720962
0.0605903
-0.00758532
0.0625432
-0.00798687
0.0645943
-0.0084156
0.0667493
-0.00887217
0.0690137
-0.00935717
0.0713934
-0.00987161
0.0738941
-0.0104168
0.0765219
-0.0109942
0.079283
-0.0116054
0.0821837
-0.0122521
0.0852303
-0.0129361
0.0884295
-0.0136591
0.0917879
-0.014423
0.0953122
-0.0152297
0.0990092
-0.016081
0.102886
-0.0169791
0.106948
-0.0179257
0.111203
-0.0189229
0.115658
-0.0199725
0.120318
-0.0210765
0.12519
-0.0222368
0.130279
-0.023455
0.135591
-0.024733
0.141131
-0.0260723
0.146904
-0.0274746
0.152912
-0.028941
0.159161
-0.030473
0.165652
-0.0320716
0.172389
-0.0337379
0.179372
-0.0354725
0.186604
-0.0372766
0.194084
-0.0391496
0.201814
-0.0410941
0.209792
-0.0431059
0.218021
-0.0451946
0.226497
-0.0473394
0.235227
-0.0495776
0.244202
-0.0518511
0.25343
-0.0541521
0.262926
-0.0568478
0.2726
-0.0579988
0.282623
-0.0632449
-0.0590278
0.062897
0.00517687
-0.0623898
0.0635549
0.00593334
0.064358
0.00669915
0.065269
0.00743279
0.066217
0.00812198
0.0671107
0.00871919
0.0678694
0.00917037
0.0684412
0.00945042
0.0688052
0.00956515
0.0689643
0.00953953
0.0689355
0.00940564
0.0687421
0.00919472
0.0684079
0.00893315
0.0679549
0.00864116
0.0674023
0.00833309
0.0667666
0.00801845
0.066062
0.00770312
0.0653013
0.0073907
0.0644964
0.00708319
0.0636578
0.00678211
0.0627949
0.00648838
0.0619163
0.00620252
0.0610295
0.00592488
0.0601412
0.00565566
0.0592573
0.00539492
0.0583827
0.00514271
0.0575219
0.00489896
0.0566782
0.00466351
0.0558546
0.00443613
0.0550537
0.00421651
0.0542773
0.00400428
0.053527
0.003799
0.0528042
0.00360026
0.0521099
0.00340763
0.0514449
0.00322065
0.0508099
0.00303881
0.0502054
0.00286155
0.0496318
0.00268832
0.0490896
0.00251858
0.0485792
0.00235176
0.0481009
0.00218733
0.0476552
0.00202443
0.0472425
0.00186251
0.0468634
0.0017006
0.0465186
0.00153781
0.0462089
0.00137316
0.0459355
0.00120547
0.0456994
0.00103369
0.0455024
0.000856135
0.0453462
0.000671315
0.0452331
0.000477608
0.0451658
0.000271947
0.0451477
5.22115e-05
0.0451822
-0.000183138
0.0452743
-0.000439707
0.0454296
-0.000722137
0.0456548
-0.00103669
0.0459582
-0.00138738
0.0463486
-0.00177699
0.0468363
-0.00221536
0.0474343
-0.00272425
0.0481579
-0.0033205
0.0490197
-0.00398433
0.0500222
-0.00464796
0.0511537
-0.00522696
0.0523916
-0.00567009
0.0537117
-0.00598495
0.0550971
-0.00622346
0.0565413
-0.00644639
0.0580464
-0.00669493
0.0596182
-0.00698284
0.0612625
-0.00730555
0.0629833
-0.00765391
0.0647837
-0.00802305
0.0666669
-0.00841355
0.0686368
-0.00882851
0.0706982
-0.00927105
0.0728565
-0.00974355
0.075117
-0.0102474
0.0774857
-0.0107842
0.0799681
-0.0113546
0.08257
-0.011959
0.0852969
-0.0125985
0.0881544
-0.0132743
0.0911483
-0.0139881
0.0942842
-0.0147414
0.097568
-0.0155359
0.101005
-0.0163734
0.104602
-0.0172556
0.108363
-0.0181845
0.112295
-0.0191617
0.116403
-0.020189
0.120693
-0.0212684
0.125168
-0.0224013
0.129835
-0.0235898
0.134698
-0.0248352
0.13976
-0.0261392
0.145027
-0.0275034
0.150501
-0.028929
0.156185
-0.0304174
0.162083
-0.0319698
0.168196
-0.0335873
0.174525
-0.0352709
0.181074
-0.0370216
0.187843
-0.0388401
0.194832
-0.0407274
0.202044
-0.042684
0.209478
-0.0447113
0.217137
-0.0468088
0.225024
-0.0489802
0.233138
-0.0512203
0.241487
-0.0535434
0.25007
-0.0559225
0.258902
-0.0584095
0.267977
-0.0609259
0.277316
-0.0634919
0.286926
-0.0664576
0.296786
-0.067859
0.306915
-0.073373
-0.0695257
0.0675126
0.00471488
-0.0670506
0.0680895
0.00535642
0.0687794
0.00600928
0.0695679
0.00664427
0.0704213
0.00726863
0.0712849
0.00785558
0.0720959
0.0083593
0.0728021
0.00874429
0.0733697
0.00899751
0.0737847
0.00912449
0.0740483
0.00914207
0.074171
0.00907205
0.0741675
0.00893667
0.0740529
0.00875569
0.0738411
0.00854494
0.0735435
0.00831601
0.0731699
0.00807669
0.0727287
0.00783196
0.072227
0.00758483
0.0716724
0.00733676
0.0710718
0.00708902
0.070432
0.00684229
0.0697597
0.00659718
0.0690613
0.00635403
0.0683431
0.00611317
0.0676109
0.00587491
0.0668703
0.00563955
0.0661264
0.00540737
0.065384
0.00517858
0.0646471
0.00495334
0.0639197
0.0047317
0.063205
0.00451367
0.0625061
0.0042992
0.0618255
0.0040882
0.0611656
0.00388056
0.0605284
0.00367603
0.0599157
0.00347425
0.0593291
0.00327488
0.0587702
0.00307752
0.0582402
0.00288172
0.0577405
0.00268706
0.0572723
0.00249268
0.0568367
0.00229807
0.0564351
0.00210222
0.0560687
0.00190416
0.0557391
0.00170279
0.0554478
0.00149674
0.0551967
0.00128486
0.0549877
0.00106509
0.0548234
0.000835654
0.0547064
0.000594627
0.05464
0.000338248
0.0546283
6.39959e-05
0.0546751
-0.000229926
0.054786
-0.000550696
0.0549675
-0.000903564
0.0552269
-0.00129611
0.0555733
-0.00173378
0.0560167
-0.00222042
0.0565682
-0.0027669
0.057241
-0.00339695
0.0580502
-0.00412973
0.0590099
-0.00494402
0.0601253
-0.00576336
0.0613877
-0.00648933
0.0627763
-0.0070587
0.0642665
-0.00747518
0.0658389
-0.00779583
0.067484
-0.00809149
0.0692017
-0.00841271
0.0709972
-0.00877826
0.0728756
-0.00918398
0.0748407
-0.00961903
0.0768949
-0.0100772
0.0790403
-0.010559
0.0812804
-0.0110686
0.0836195
-0.0116101
0.0860625
-0.0121866
0.0886149
-0.0127998
0.0912822
-0.0134515
0.0940698
-0.0141423
0.0969832
-0.0148724
0.100027
-0.0156427
0.103208
-0.0164545
0.106529
-0.0173092
0.109996
-0.0182082
0.113613
-0.0191534
0.117386
-0.0201462
0.121319
-0.0211884
0.125416
-0.0222816
0.129682
-0.0234273
0.13412
-0.0246272
0.138734
-0.0258827
0.143528
-0.0271955
0.148505
-0.0285667
0.153668
-0.0299979
0.159019
-0.0314903
0.164561
-0.0330451
0.170295
-0.0346634
0.176224
-0.0363464
0.18235
-0.0380951
0.188673
-0.0399106
0.195196
-0.0417939
0.201921
-0.0437461
0.208849
-0.0457685
0.215984
-0.0478623
0.223329
-0.0500289
0.230888
-0.0522706
0.238667
-0.0545877
0.246673
-0.056986
0.254912
-0.0594598
0.263398
-0.062029
0.272135
-0.0646602
0.281147
-0.0674212
0.290433
-0.0702115
0.300024
-0.0730834
0.309921
-0.0763548
0.320149
-0.0780866
0.330629
-0.0838533
-0.0805731
0.072456
0.0042874
-0.0720285
0.072975
0.00483736
0.0735842
0.0054001
0.0742778
0.00595062
0.0750408
0.00650564
0.0758427
0.00705377
0.0766408
0.00756119
0.0773911
0.00799398
0.0780578
0.0083308
0.078618
0.00856428
0.0790621
0.008698
0.0793911
0.00874303
0.079613
0.00871477
0.0797388
0.00862991
0.0797797
0.008504
0.0797457
0.00835002
0.0796446
0.00817775
0.0794826
0.00799404
0.0792641
0.00780328
0.0789928
0.00760802
0.0786721
0.00740977
0.0783055
0.0072089
0.0778966
0.00700602
0.0774494
0.00680128
0.0769678