/*--------------------------------*- C++ -*----------------------------------*\
| =========                 |                                                 |
| \\      /  F ield         | OpenFOAM: The Open Source CFD Toolbox           |
|  \\    /   O peration     | Version:  2412                                  |
|   \\  /    A nd           | Website:  www.openfoam.com                      |
|    \\/     M anipulation  |                                                 |
\*---------------------------------------------------------------------------*/
FoamFile
{
    version     2.0;
    format      ascii;
    arch        "LSB;label=32;scalar=64";
    class       volVectorField;
    location    "0.84";
    object      ddt0(U);
}
// * * * * * * * * * * * * * * * * * * * * * * * * * * * * * * * * * * * * * //

dimensions      [0 1 -2 0 0 0 0];

internalField   nonuniform List<vector> 
12600
(
(0.259664 -7.68259e-21 0.0652175)
(0.258096 -1.26314e-20 0.0179432)
(0.208596 -1.10895e-20 -4.91154e-05)
(0.177594 0 -0.00384433)
(0.151802 -9.77129e-21 -0.00374481)
(0.131338 -9.14898e-21 -0.00274694)
(0.117701 0 -0.00210764)
(0.108522 0 -0.00382945)
(0.101848 2.60738e-20 -0.00501284)
(0.0952484 0 -0.00559768)
(0.0866136 -1.01494e-20 -0.00588141)
(0.0753072 -8.67415e-21 -0.00591804)
(0.0615877 7.15157e-21 -0.00565656)
(0.0457912 0 -0.00507177)
(0.02806 4.24879e-21 -0.00420427)
(0.00854185 0 -0.00312887)
(-0.0123372 -4.54635e-21 -0.00190784)
(-0.0338006 0 -0.000567685)
(-0.0548796 -4.50526e-21 0.000895751)
(-0.0746521 -8.38068e-21 0.00249398)
(-0.0923889 1.20788e-20 0.00421816)
(-0.10754 1.56263e-22 0.00602199)
(-0.119629 0 0.00782382)
(-0.128181 -4.39807e-20 0.00952354)
(-0.132754 0 0.0110229)
(-0.133062 0 0.0122398)
(-0.129103 -5.60416e-20 0.0131149)
(-0.121227 0 0.0136124)
(-0.1101 -4.23955e-23 0.0137192)
(-0.096603 5.41555e-20 0.0134441)
(-0.0816975 5.01934e-20 0.0128175)
(-0.0663069 4.4762e-20 0.011888)
(-0.0512331 -3.81203e-20 0.0107195)
(-0.0371024 -6.11681e-20 0.00938491)
(-0.0243511 -4.50086e-20 0.00796117)
(-0.0132125 2.7994e-20 0.00652012)
(-0.00373727 0 0.00512369)
(0.00419866 2.92744e-21 0.00381405)
(0.0108364 0 0.00261493)
(0.0165059 -2.86687e-20 0.00152612)
(0.0215256 0 0.00053624)
(0.0261744 5.92366e-22 -0.000378909)
(0.0305809 0 -0.00123534)
(0.0347544 3.35498e-22 -0.00204817)
(0.0384921 -1.20505e-19 -0.00280691)
(0.0414968 1.24199e-19 -0.00349469)
(0.0432938 -1.26539e-19 -0.00406073)
(0.0434498 0 -0.00445757)
(0.0414665 0 -0.00460832)
(0.03709 -1.26134e-19 -0.00446492)
(0.0301278 -2.46942e-19 -0.00396503)
(0.0208258 -2.38104e-19 -0.00311123)
(0.0095162 -1.49568e-22 -0.00190382)
(-0.00298237 -2.07123e-19 -0.000431248)
(-0.0159515 0 0.00123535)
(-0.0283076 1.56304e-19 0.00294194)
(-0.0393945 1.24955e-19 0.00459584)
(-0.0483283 9.16035e-20 0.0060429)
(-0.0549229 0 0.00723885)
(-0.05873 0 0.00808475)
(-0.0600628 0 0.00861398)
(-0.0587176 6.271e-20 0.00877501)
(-0.0551851 0 0.0086411)
(-0.0491928 0 0.00815342)
(-0.041244 -2.91161e-19 0.00737806)
(-0.0311701 0 0.00624446)
(-0.0199184 0 0.00486052)
(-0.00804453 0 0.00324855)
(0.00277246 1.32064e-19 0.0016491)
(0.0113921 -3.6682e-20 0.000221693)
(0.016401 6.75203e-20 -0.000768406)
(0.0173057 6.46592e-22 -0.00120724)
(0.0143071 -2.48736e-19 -0.00107386)
(0.00791903 0 -0.000409035)
(-0.000311351 3.41386e-19 0.000552289)
(-0.0102318 0 0.00184399)
(-0.0199318 0 0.00313253)
(-0.0306754 0 0.00470873)
(-0.0398731 -5.34768e-22 0.00605724)
(-0.0500897 2.91781e-19 0.00770946)
(-0.0570758 1.33569e-19 0.00879999)
(-0.0649962 4.852e-20 0.0101894)
(-0.0674423 2.0255e-19 0.0106449)
(-0.0708693 0 0.0114707)
(-0.066585 0 0.0109908)
(-0.0641887 -1.17645e-18 0.0109476)
(-0.0547731 2.48034e-18 0.00956388)
(-0.0471293 -2.54271e-18 0.00843553)
(-0.040265 -1.14794e-18 0.00751815)
(-0.0220868 0 0.00497342)
(-0.0205332 1.72264e-18 0.00494767)
(-0.00202903 -1.01829e-18 0.00305068)
(0.064169 2.91393e-19 -0.0122859)
(-0.15335 -2.71434e-19 0.0305616)
(0.429033 0 -0.0758942)
(-0.281799 0 0.0552752)
(-0.354529 0 0.0789411)
(1.59182 0 -0.287514)
(-2.67685 0 0.499602)
(2.32517 0 -0.459077)
(0.350921 -3.92887e-18 -0.0726634)
(-4.48951 -1.98671e-19 0.82104)
(6.57727 -9.99253e-18 -1.21963)
(-6.69324 0 1.27992)
(0.901545 0 -0.416787)
(7.95252 0 -1.37895)
(-13.1115 8.14794e-18 2.43735)
(9.59504 -3.9311e-17 -1.85441)
(2.17151 -9.67261e-18 -0.468368)
(-12.1167 0 2.17373)
(14.2472 -2.72504e-17 -2.69765)
(-1.47324 0 0.244234)
(-13.8046 -2.75161e-17 2.49275)
(10.8529 3.46959e-17 -2.10912)
(11.1371 3.57179e-17 -1.98965)
(-11.4165 3.11964e-19 2.1845)
(-3.81469 2.71701e-17 0.509316)
(7.81862 -8.74268e-21 -1.48155)
(0.673205 -8.23138e-18 -0.0781176)
(-2.4171 0 0.459371)
(0.359871 7.75499e-21 0.108676)
(0.365267 0 0.0424936)
(0.336319 1.12261e-20 0.0142234)
(0.301098 0 0.00928469)
(0.257098 9.90261e-21 0.00679565)
(0.218707 1.79077e-20 0.00353754)
(0.193899 8.14984e-21 -4.95787e-05)
(0.179914 0 -0.00530851)
(0.172727 6.31669e-24 -0.00879184)
(0.166025 1.18799e-20 -0.010606)
(0.156277 -1.05117e-20 -0.0115526)
(0.142593 -9.06402e-21 -0.0119447)
(0.125186 7.55048e-21 -0.0117666)
(0.104243 -6.025e-21 -0.0110055)
(0.0797941 -8.82698e-21 -0.0097936)
(0.052121 0 -0.00831791)
(0.0220152 -4.03026e-22 -0.00667707)
(-0.00935012 5.75983e-22 -0.00482935)
(-0.0407806 4.57124e-21 -0.00264046)
(-0.0713513 0 2.17069e-05)
(-0.100429 0 0.00320053)
(-0.127458 1.57289e-20 0.0068165)
(-0.151724 0 0.0106959)
(-0.172297 2.22314e-20 0.0146296)
(-0.18818 -4.92696e-20 0.0184197)
(-0.198573 0 0.0218964)
(-0.203082 5.63199e-20 0.0249149)
(-0.201799 0 0.0273492)
(-0.195246 -5.71977e-20 0.0290964)
(-0.184256 -1.09649e-19 0.0300871)
(-0.169829 -1.01699e-19 0.0302972)
(-0.153012 -4.53074e-20 0.0297485)
(-0.134814 3.8574e-20 0.0285105)
(-0.116136 1.24399e-19 0.0266912)
(-0.0977553 9.17918e-20 0.024433)
(-0.0802685 0 0.0218896)
(-0.0640977 0 0.0192171)
(-0.0494256 -8.63904e-22 0.0165414)
(-0.0362581 0 0.0139607)
(-0.024386 2.89424e-20 0.0115183)
(-0.0135625 0 0.0092365)
(-0.0034731 9.4046e-20 0.00709264)
(0.00601429 0 0.00507744)
(0.0149905 1.1511e-19 0.00315407)
(0.0232184 0 0.00133798)
(0.0304428 -1.2506e-19 -0.000373699)
(0.0360373 0 -0.00189921)
(0.039537 0 -0.00319037)
(0.0401552 1.28076e-19 -0.00409937)
(0.0375707 0 -0.00455844)
(0.0312287 0 -0.00440791)
(0.0214129 0 -0.00364693)
(0.00815718 2.25808e-19 -0.00219113)
(-0.0074269 4.15561e-19 -0.000184177)
(-0.024785 0 0.00234597)
(-0.042243 0 0.00511273)
(-0.0592305 -1.25715e-19 0.00803083)
(-0.0740563 -9.15995e-20 0.0107591)
(-0.086705 0 0.0132695)
(-0.0958614 0 0.0152726)
(-0.102257 0 0.0168724)
(-0.104837 0 0.0178507)
(-0.104766 1.01566e-19 0.0184048)
(-0.100859 -1.29683e-19 0.018314)
(-0.0944141 2.8912e-19 0.0177784)
(-0.0842579 0 0.0165582)
(-0.0722517 0 0.0148958)
(-0.0580988 0 0.0127)
(-0.0446298 8.39575e-22 0.0103792)
(-0.0325877 3.6333e-20 0.00812649)
(-0.0245809 -6.68117e-20 0.00636597)
(-0.0211067 3.2422e-19 0.00538161)
(-0.022536 1.14058e-21 0.00515766)
(-0.0286415 -3.01337e-19 0.00591473)
(-0.0372742 -3.36528e-19 0.00703539)
(-0.0493149 0 0.00903215)
(-0.0608214 0 0.0108033)
(-0.0756626 0 0.0135587)
(-0.0872587 4.44154e-19 0.0155038)
(-0.103062 0 0.0186874)
(-0.111954 0 0.0202147)
(-0.126285 -4.74849e-20 0.0232903)
(-0.129057 -1.98025e-19 0.0237072)
(-0.139048 0 0.0261772)
(-0.132493 0 0.0249179)
(-0.13569 0 0.0262265)
(-0.122331 -2.41277e-18 0.0234282)
(-0.114415 4.95378e-23 0.0223536)
(-0.108759 -1.11569e-18 0.0209162)
(-0.0729675 1.10627e-18 0.0150868)
(-0.0840271 -1.66957e-18 0.0170636)
(-0.0573995 -9.85563e-19 0.0120432)
(0.123898 -5.65271e-19 -0.0228735)
(-0.494496 0 0.0906794)
(1.11739 0 -0.21287)
(-0.913394 0 0.191507)
(-0.938328 0 0.0751627)
(4.29883 1.27078e-18 -0.78252)
(-7.48356 0 1.43916)
(6.84686 0 -1.41636)
(0.261583 -3.72095e-18 0.0650715)
(-12.0364 9.42232e-20 2.16424)
(18.6512 1.91047e-17 -3.54584)
(-19.8343 4.73363e-18 3.96876)
(4.21638 0 -0.866413)
(21.1701 0 -3.72278)
(-36.8267 0 7.00478)
(28.2653 1.87241e-17 -5.74117)
(3.38976 9.20564e-18 -0.21707)
(-31.4856 0 5.73403)
(40.5624 5.17817e-17 -8.02734)
(-8.32015 -4.04702e-17 2.24816)
(-35.8579 5.22531e-17 6.59135)
(32.2997 0 -6.66137)
(28.2903 0 -5.03243)
(-32.4925 2.98545e-19 6.51337)
(-8.89607 0 1.24486)
(22.0408 5.66737e-18 -4.3186)
(0.605029 7.81352e-18 -0.0697475)
(-7.31461 0 1.44022)
(0.342743 0 0.102391)
(0.351342 0 0.0508361)
(0.341583 9.58049e-21 0.0381912)
(0.314349 0 0.0436819)
(0.272028 0 0.0421813)
(0.230612 -8.70402e-21 0.0308699)
(0.201774 -7.71805e-21 0.0166692)
(0.186804 0 0.00543208)
(0.180673 -4.09869e-23 -0.00134926)
(0.176233 -1.12545e-20 -0.00480056)
(0.169114 1.99801e-20 -0.00652917)
(0.157851 8.58809e-21 -0.00750528)
(0.142373 1.17112e-22 -0.00800049)
(0.122757 5.70913e-21 -0.00810937)
(0.0990462 4.2788e-21 -0.00807866)
(0.0716734 -2.98573e-21 -0.00817408)
(0.0416326 2.67125e-21 -0.00842548)
(0.010203 -5.45814e-22 -0.00857143)
(-0.0215088 0 -0.00820502)
(-0.0528377 0 -0.00698025)
(-0.0834507 1.08383e-20 -0.00475846)
(-0.112981 1.43212e-20 -0.00162616)
(-0.140718 0 0.00220193)
(-0.165582 0 0.00650098)
(-0.186367 4.66858e-20 0.0110923)
(-0.202072 0 0.0158269)
(-0.212127 -1.06326e-19 0.0205445)
(-0.216451 5.41968e-20 0.0250492)
(-0.215384 0 0.029125)
(-0.209565 5.19219e-20 0.0325667)
(-0.199817 4.82019e-20 0.0352131)
(-0.187034 0 0.0369566)
(-0.172121 -3.68573e-20 0.0377585)
(-0.155916 -5.92199e-20 0.0376458)
(-0.139198 4.53569e-22 0.0367199)
(-0.122615 0 0.0351271)
(-0.106695 0 0.0330532)
(-0.0917309 -1.98275e-21 0.0306689)
(-0.0778581 0 0.0281384)
(-0.0649504 0 0.0255633)
(-0.0528649 0 0.0230361)
(-0.0413295 0 0.0205766)
(-0.0303051 0 0.0182212)
(-0.0197022 0 0.0159276)
(-0.00984183 0 0.0137146)
(-0.000930615 1.17569e-19 0.0115239)
(0.00631211 -1.19908e-19 0.00941795)
(0.0115066 0 0.00737014)
(0.0137196 -1.21172e-19 0.0055323)
(0.012727 0 0.00392276)
(0.00773805 0 0.00276998)
(-0.000836041 2.26229e-19 0.00207283)
(-0.0132815 0 0.00206276)
(-0.0282837 -1.96593e-19 0.00262984)
(-0.0456784 1.74904e-19 0.0039398)
(-0.0634522 0 0.00571444)
(-0.0814722 1.18829e-19 0.00804232)
(-0.0975164 0 0.0105016)
(-0.112069 0 0.0131833)
(-0.1231 0 0.0156265)
(-0.131971 -8.49758e-21 0.0180278)
(-0.136762 -5.69602e-20 0.0199599)
(-0.139445 -7.57759e-22 0.0217391)
(-0.137816 2.44316e-19 0.0229476)
(-0.134128 -4.17176e-22 0.0239319)
(-0.126037 0 0.0242562)
(-0.116483 0 0.0242528)
(-0.103943 1.98961e-19 0.0235849)
(-0.0924141 7.68633e-22 0.0226111)
(-0.0815229 0 0.0213084)
(-0.07499 0 0.0199922)
(-0.0724616 -1.52281e-19 0.019013)
(-0.0750749 1.18425e-21 0.0182774)
(-0.0822253 9.86691e-22 0.018459)
(-0.0918426 0 0.0186691)
(-0.105304 0 0.020145)
(-0.117625 -6.09449e-19 0.0210099)
(-0.134585 5.25742e-19 0.0235726)
(-0.146779 0 0.0246577)
(-0.165624 0 0.0280842)
(-0.174533 0 0.0288145)
(-0.192871 0 0.0327552)
(-0.194656 0 0.0324688)
(-0.209552 0 0.036525)
(-0.200479 0 0.0346064)
(-0.208813 0 0.038234)
(-0.192264 2.26606e-18 0.0348577)
(-0.185112 1.16209e-18 0.0356062)
(-0.181656 1.04861e-18 0.03421)
(-0.130506 -1.03954e-18 0.0265856)
(-0.156717 1.56853e-18 0.0320146)
(-0.118316 9.25732e-19 0.0228378)
(0.15553 2.66207e-19 -0.0183774)
(-0.81064 0 0.141416)
(1.73177 0 -0.325578)
(-1.61045 0 0.359047)
(-1.24618 0 0.104792)
(6.59236 -1.1922e-18 -1.11919)
(-11.8372 0 2.25318)
(11.3282 0 -2.4286)
(-0.674363 3.48887e-18 0.570794)
(-18.0353 0 2.9587)
(29.785 -8.94333e-18 -5.57858)
(-33.0186 -4.43599e-18 6.80645)
(8.92006 0 -2.60055)
(31.8902 0 -5.1418)
(-58.1774 0 10.9181)
(46.429 1.75634e-17 -9.82154)
(1.29844 0 0.816096)
(-46.2355 -4.56894e-18 7.86123)
(65.1844 -8.11443e-22 -13.0863)
(-18.942 3.78759e-17 5.80199)
(-52.7917 -4.90203e-17 9.10214)
(53.56 0 -11.6228)
(40.4479 -3.17363e-17 -6.38109)
(-51.8646 -2.79299e-19 10.6842)
(-11.4744 2.41623e-17 1.10974)
(34.8293 0 -6.86191)
(-0.866978 -7.30597e-18 0.795366)
(-12.2463 0 2.47836)
(0.319248 0 0.105953)
(0.326404 0 0.0690541)
(0.321463 -9.05648e-21 0.0638275)
(0.300877 0 0.0747809)
(0.269696 8.07156e-21 0.076639)
(0.235185 -1.53569e-20 0.0626282)
(0.206902 0 0.0412208)
(0.189053 1.28122e-20 0.0224786)
(0.179498 -1.18161e-20 0.0104475)
(0.173084 -1.06291e-20 0.00444069)
(0.16547 -9.47589e-21 0.00184876)
(0.154524 8.25507e-21 0.000563605)
(0.139668 -6.87681e-21 -0.000256081)
(0.120711 1.12366e-20 -0.000887096)
(0.0975696 0 -0.00171636)
(0.0706901 5.75977e-21 -0.00312544)
(0.0412131 0 -0.00508997)
(0.010575 0 -0.00710782)
(-0.0200803 0 -0.00847206)
(-0.0502257 6.58054e-21 -0.00862202)
(-0.0797866 -2.81434e-22 -0.00736241)
(-0.108637 -2.84937e-22 -0.00485127)
(-0.13618 1.63508e-20 -0.00140348)
(-0.161318 0 0.00271275)
(-0.182773 0 0.00734648)
(-0.199488 0 0.0124038)
(-0.210877 9.96804e-20 0.0177557)
(-0.216858 -4.49483e-22 0.0231894)
(-0.217748 0 0.028433)
(-0.21413 0 0.0332054)
(-0.20675 0 0.0372653)
(-0.196416 0 0.0404232)
(-0.183945 6.96749e-20 0.0425658)
(-0.170089 0 0.0436564)
(-0.155562 -4.18679e-20 0.0437573)
(-0.140956 0 0.0429917)
(-0.126788 0 0.0415469)
(-0.113334 6.05756e-22 0.0395996)
(-0.100744 0 0.0373385)
(-0.0888777 0 0.034885)
(-0.0776249 -3.30798e-20 0.0323736)
(-0.0667085 8.09137e-20 0.0298479)
(-0.0561632 0 0.0273839)
(-0.0458921 1.00681e-19 0.0249361)
(-0.0363091 0 0.0225398)
(-0.0275738 -2.21502e-19 0.0201)
(-0.0205081 5.18218e-22 0.0176855)
(-0.0153925 0 0.0152193)
(-0.0132972 0 0.0128812)
(-0.0143011 1.12931e-19 0.0106507)
(-0.0193957 2.21209e-19 0.00882714)
(-0.0279668 -4.26985e-19 0.00738702)
(-0.040585 0 0.00667885)
(-0.0556582 -1.85643e-19 0.00657567)
(-0.0734119 -1.65103e-19 0.00738648)
(-0.0914478 -1.40615e-19 0.0087832)
(-0.110133 -1.12765e-19 0.0109885)
(-0.126706 0 0.0134669)
(-0.14228 0 0.0164265)
(-0.154117 -4.64204e-20 0.0192382)
(-0.164378 1.50222e-20 0.0222216)
(-0.170258 5.37231e-20 0.0247576)
(-0.174719 -8.95109e-22 0.027315)
(-0.174467 -1.14902e-19 0.0292779)
(-0.172919 -1.28138e-19 0.0311652)
(-0.166432 0 0.0323353)
(-0.159272 0 0.0332702)
(-0.148478 -1.87497e-19 0.0334133)
(-0.139491 -2.36341e-19 0.0332084)
(-0.130478 0 0.0324612)
(-0.126574 5.58216e-20 0.0315178)
(-0.12609 1.40808e-19 0.030741)
(-0.131305 2.15988e-19 0.0300016)
(-0.140642 5.31841e-19 0.0302511)
(-0.152629 0 0.0303409)
(-0.168445 0 0.0320612)
(-0.182764 5.73505e-19 0.0328428)
(-0.202445 -9.89316e-19 0.0359477)
(-0.216171 -3.95779e-19 0.0369337)
(-0.238325 0 0.0412143)
(-0.247992 0 0.0417364)
(-0.270336 0 0.0469108)
(-0.271733 0 0.0462317)
(-0.291339 0 0.0519029)
(-0.280295 0 0.0492324)
(-0.293568 1.00512e-18 0.0547947)
(-0.274205 -2.22077e-21 0.0501962)
(-0.268132 -1.08953e-18 0.0524468)
(-0.266806 0 0.0501088)
(-0.201608 -9.765e-19 0.0408886)
(-0.243996 -7.36175e-19 0.0493026)
(-0.18937 0 0.03304)
(0.155309 2.52901e-19 -0.0078135)
(-1.10268 2.47603e-19 0.178027)
(2.26108 0 -0.420525)
(-2.33965 0 0.552134)
(-1.32448 0 0.0783385)
(8.43838 -1.10404e-18 -1.32604)
(-15.6779 0 2.95849)
(15.6801 0 -3.4776)
(-2.34302 3.18828e-18 1.3205)
(-22.4338 -8.21105e-20 3.32564)
(39.6759 0 -7.31085)
(-45.9436 0 9.69033)
(14.7926 0 -5.19063)
(40.0239 0 -5.73469)
(-76.496 0 14.2341)
(63.3722 1.36636e-20 -13.9273)
(-3.69533 0 3.4416)
(-56.0867 4.27554e-18 8.85181)
(87.4919 -2.26746e-17 -17.7856)
(-32.789 0 9.90848)
(-64.3199 -1.01238e-19 10.3481)
(73.8907 0 -16.7089)
(47.5668 -4.83418e-20 -6.42214)
(-68.9643 0 14.6066)
(-11.7619 -2.2591e-17 0.0589938)
(45.8543 0 -9.10927)
(-3.87787 -6.88607e-18 1.4736)
(-16.976 0 3.49619)
(0.302707 0 0.117111)
(0.306361 0 0.0894983)
(0.303267 0 0.0856572)
(0.290688 0 0.0974516)
(0.274335 -7.61911e-21 0.101249)
(0.253827 2.44285e-22 0.0879116)
(0.231401 0 0.0639927)
(0.211381 -1.20931e-20 0.0398712)
(0.195847 0 0.0223987)
(0.183425 1.99981e-20 0.0130777)
(0.171374 0 0.00929991)
(0.157562 -7.79337e-21 0.00785753)
(0.140943 0 0.00709192)
(0.120889 -1.06091e-20 0.00643935)
(0.0969282 4.1248e-21 0.0053324)
(0.0692439 -5.63026e-21 0.00318445)
(0.038964 3.06553e-21 -1.34494e-05)
(0.00771374 2.2789e-22 -0.00354155)
(-0.0231406 0 -0.00636013)
(-0.0529957 -6.21384e-21 -0.00764764)
(-0.0819273 -9.41455e-21 -0.00713683)
(-0.110091 -2.47669e-20 -0.00509177)
(-0.137118 -1.54396e-20 -0.00198815)
(-0.161985 0 0.00181807)
(-0.183377 0 0.00619858)
(-0.200183 0 0.0111418)
(-0.211818 -4.68235e-20 0.0165906)
(-0.218232 -4.7971e-20 0.0223556)
(-0.219777 0 0.0281441)
(-0.217031 0 0.0336331)
(-0.210715 4.24402e-20 0.0385341)
(-0.201588 0 0.0426056)
(-0.190427 -1.19213e-22 0.045683)
(-0.177931 -5.32265e-20 0.0476795)
(-0.164771 3.99481e-20 0.0486214)
(-0.151492 0 0.0486023)
(-0.1386 0 0.0477952)
(-0.126352 -5.71729e-22 0.0463596)
(-0.114912 0 0.0444842)
(-0.104112 0 0.0422873)
(-0.0938685 3.12162e-20 0.0399305)
(-0.0838786 -7.63505e-20 0.0374721)
(-0.0742373 0 0.0350271)
(-0.0648168 -9.49905e-20 0.0325484)
(-0.0561127 0 0.0300964)
(-0.0482115 1.0417e-19 0.0275456)
(-0.0420326 1.06363e-19 0.0249828)
(-0.0377323 0 0.0222838)
(-0.036521 1.07063e-19 0.0196633)
(-0.0383032 -1.06501e-19 0.0170542)
(-0.0442795 -4.1665e-19 0.0148208)
(-0.0535951 2.01182e-19 0.0128954)
(-0.0671196 -1.89804e-19 0.0117302)
(-0.0829339 2.04043e-22 0.0111534)
(-0.101676 0 0.0116082)
(-0.120502 1.32535e-19 0.0126967)
(-0.14032 1.06274e-19 0.0147846)
(-0.157761 -7.83893e-20 0.01722)
(-0.174639 4.98309e-20 0.0203574)
(-0.187429 4.37347e-20 0.0234071)
(-0.199199 -6.60039e-21 0.0268467)
(-0.206159 4.87514e-20 0.0298642)
(-0.212407 -8.36798e-20 0.0331045)
(-0.21342 0 0.0357367)
(-0.213972 0 0.0384684)
(-0.208941 -1.20851e-19 0.0404359)
(-0.204163 0 0.0422985)
(-0.195007 0 0.0432811)
(-0.188652 1.11503e-19 0.0439474)
(-0.181499 0 0.0439323)
(-0.180471 -5.25197e-20 0.0436097)
(-0.182138 -2.63595e-19 0.043325)
(-0.19039 0 0.0428565)
(-0.202172 -2.49524e-19 0.0434121)
(-0.217175 0 0.043527)
(-0.235735 0 0.0455942)
(-0.252873 -5.37797e-19 0.0463066)
(-0.275718 4.6493e-19 0.0499811)
(-0.2919 -4.19512e-22 0.0508145)
(-0.31778 0 0.0559489)
(-0.329202 0 0.0561579)
(-0.355927 0 0.0625635)
(-0.357998 1.57497e-19 0.0613577)
(-0.382657 -2.91114e-19 0.0686986)
(-0.370771 0 0.0651467)
(-0.389366 -1.88398e-18 0.0728431)
(-0.368178 -9.9616e-19 0.0668097)
(-0.364076 2.04329e-18 0.0711434)
(-0.365326 9.22098e-19 0.0674664)
(-0.288021 1.83204e-18 0.0578731)
(-0.347661 0 0.0694256)
(-0.273491 0 0.0436268)
(0.121098 -2.37136e-19 0.0134998)
(-1.37428 -2.3213e-19 0.200697)
(2.69629 2.41683e-19 -0.489926)
(-3.08637 0 0.763406)
(-1.25278 0 -0.1928)
(9.84313 1.03441e-18 -1.38583)
(-18.9802 9.94433e-19 3.51635)
(19.7943 0 -4.51905)
(-4.5963 -2.98589e-18 2.33386)
(-25.2932 7.69131e-20 3.1985)
(48.1358 0 -8.6373)
(-58.1997 0 12.5037)
(21.6401 0 -7.50237)
(45.5446 0 -5.47692)
(-91.3035 0 16.7164)
(78.5846 -1.53945e-17 -17.8672)
(-11.6837 0 5.25178)
(-61.2288 0 8.48181)
(107.043 0 -21.8742)
(-48.8879 -3.33909e-17 15.1837)
(-70.6466 2.15671e-17 10.0626)
(92.6065 0 -21.6963)
(49.931 2.77921e-17 -5.01587)
(-83.2837 0 18.0333)
(-10.1271 -2.12172e-17 -1.6831)
(54.8672 0 -10.9109)
(-8.04469 6.43543e-18 3.38089)
(-21.2213 0 4.44334)
(0.289091 7.12173e-21 0.128133)
(0.292374 7.35243e-21 0.107313)
(0.293457 -7.3076e-21 0.10296)
(0.287884 -7.03762e-21 0.112186)
(0.283166 0 0.11628)
(0.276405 6.49521e-21 0.105191)
(0.263608 0 0.0824905)
(0.245842 -1.0926e-20 0.056859)
(0.22691 -1.0136e-20 0.035714)
(0.208928 -1.86911e-20 0.0228236)
(0.191589 8.37041e-21 0.0169924)
(0.173724 -7.348e-21 0.014729)
(0.154342 0 0.0136479)
(0.13254 0 0.0128793)
(0.107352 -3.88879e-21 0.0116722)
(0.0784118 -6.00962e-23 0.00911636)
(0.046552 1.36738e-22 0.00499416)
(0.0134879 1.59356e-22 0.000140684)
(-0.0190476 0 -0.00406375)
(-0.0500753 0 -0.00645373)
(-0.0795711 0 -0.00660496)
(-0.107925 2.28354e-20 -0.00487126)
(-0.135116 1.40197e-20 -0.00194554)
(-0.16033 0 0.00165712)
(-0.182259 0 0.00579613)
(-0.199707 4.06812e-20 0.0105508)
(-0.212033 0 0.0159652)
(-0.219199 0 0.0218978)
(-0.221598 0 0.028049)
(-0.219824 0 0.0340611)
(-0.214578 -3.77984e-22 0.0396091)
(-0.206586 0 0.0444132)
(-0.196598 -1.9906e-22 0.0482711)
(-0.185283 5.01739e-20 0.0510554)
(-0.173285 -1.81169e-23 0.0527623)
(-0.16111 0 0.0534555)
(-0.149257 0 0.0532906)
(-0.137975 0 0.0524008)
(-0.127464 0 0.0509646)
(-0.117545 0 0.0490843)
(-0.108172 0 0.0469411)
(-0.0990146 0 0.0446004)
(-0.0902333 7.98571e-20 0.0422162)
(-0.0816584 8.75159e-20 0.0397371)
(-0.0738746 0 0.0372538)
(-0.0668777 9.66469e-20 0.0346111)
(-0.0616942 0 0.0319241)
(-0.0583334 0 0.0290235)
(-0.0581618 -2.01195e-19 0.02617)
(-0.060882 0 0.0232471)
(-0.0679296 1.95937e-19 0.0206912)
(-0.078175 0 0.0183791)
(-0.092824 3.56958e-19 0.0168685)
(-0.109584 3.69881e-22 0.0159247)
(-0.129557 0 0.016126)
(-0.149387 0 0.0169852)
(-0.170591 0 0.0190179)
(-0.189111 1.47695e-19 0.0214419)
(-0.20755 -9.40362e-20 0.0247761)
(-0.221491 -4.2608e-20 0.0280619)
(-0.235024 4.57202e-21 0.0319578)
(-0.243238 -9.0904e-20 0.0354481)
(-0.251508 -7.70684e-20 0.0393719)
(-0.253919 0 0.0426647)
(-0.256782 0 0.0462361)
(-0.253305 4.8751e-22 0.0489812)
(-0.251123 0 0.0517533)
(-0.243687 0 0.0535502)
(-0.24021 1.05517e-19 0.0550805)
(-0.235006 0 0.0558087)
(-0.237139 0 0.0561536)
(-0.241055 2.45262e-19 0.0564387)
(-0.25269 -1.87168e-19 0.0563395)
(-0.267049 0 0.0573165)
(-0.285519 0 0.05756)
(-0.307035 0 0.0600911)
(-0.327585 5.05073e-19 0.0608259)
(-0.35389 0 0.0652006)
(-0.373263 6.99411e-19 0.0659798)
(-0.403231 -2.28679e-19 0.0721298)
(-0.417298 0 0.0721307)
(-0.448841 0 0.0799563)
(-0.452638 -1.47792e-19 0.0783125)
(-0.482871 1.93067e-21 0.0875324)
(-0.47135 -3.56847e-19 0.0831469)
(-0.495919 8.82148e-19 0.0932321)
(-0.474056 -9.29392e-19 0.0856522)
(-0.473142 -9.57296e-19 0.0925771)
(-0.477576 -8.64553e-19 0.0871214)
(-0.390547 -3.38725e-22 0.0780997)
(-0.468288 0 0.092648)
(-0.372111 7.65275e-19 0.055691)
(0.0520399 0 0.0441699)
(-1.62741 0 0.211381)
(3.03159 -2.26412e-19 -0.532706)
(-3.82227 0 0.980111)
(-1.025 0 -0.425098)
(10.815 0 -1.30238)
(-21.7283 -9.31105e-19 3.92984)
(23.5436 0 -5.52497)
(-7.27093 -2.68782e-18 3.59029)
(-26.7341 0 2.60843)
(55.047 0 -9.52167)
(-69.3823 0 15.1771)
(28.775 0 -10.5363)
(48.5532 0 -4.37251)
(-102.296 5.76979e-18 18.3382)
(91.5736 -1.43869e-17 -21.5514)
(-21.0332 -7.28021e-18 11.9505)
(-62.0429 0 6.76418)
(123.578 0 -25.1496)
(-66.2735 6.25208e-17 21.0767)
(-72.3693 0 8.38336)
(109.142 2.5219e-17 -26.4322)
(47.9541 0 -2.29721)
(-94.3569 -2.28515e-19 20.8907)
(-7.13633 1.98272e-17 -4.02355)
(61.7504 0 -12.2373)
(-13.305 6.04563e-18 5.88506)
(-24.811 0 5.22574)
(0.278 -6.70674e-21 0.138649)
(0.283345 -1.35661e-20 0.123198)
(0.289139 6.88337e-21 0.117756)
(0.287624 2.62495e-22 0.122355)
(0.288701 -6.0256e-21 0.124863)
(0.290799 0 0.116356)
(0.286927 0 0.0971532)
(0.27455 1.02884e-20 0.0730348)
(0.256492 1.8927e-20 0.0507493)
(0.236478 1.16477e-22 0.0350644)
(0.216145 -7.88119e-21 0.0266754)
(0.195577 6.91848e-21 0.022722)
(0.174323 -5.86849e-21 0.0205125)
(0.151611 0 0.0190426)
(0.126183 0 0.0175249)
(0.0970257 2.59393e-21 0.0146914)
(0.0643527 -5.78399e-21 0.00989483)
(0.029657 -8.12945e-22 0.00386707)
(-0.00504393 0 -0.00176276)
(-0.0381549 0 -0.00542124)
(-0.069153 0 -0.00637214)
(-0.0984052 -2.29906e-22 -0.00495153)
(-0.126255 -2.61531e-20 -0.00208772)
(-0.152263 1.52662e-20 0.00145094)
(-0.175254 3.453e-20 0.00543469)
(-0.193944 -7.60301e-20 0.0100165)
(-0.207561 3.99399e-20 0.0153661)
(-0.216023 4.10242e-20 0.021418)
(-0.219752 4.08792e-20 0.0278754)
(-0.219371 0 0.0343429)
(-0.215574 -3.73146e-20 0.0404578)
(-0.209052 3.31987e-20 0.0459079)
(-0.200535 -2.88841e-20 0.0504644)
(-0.19067 -4.6686e-20 0.053968)
(-0.180089 -7.06955e-20 0.0563902)
(-0.169246 0 0.0577679)
(-0.158626 0 0.0582422)
(-0.14846 -6.9433e-22 0.0579191)
(-0.138998 0 0.0569643)
(-0.130059 -1.84229e-20 0.0554555)
(-0.121651 -2.60165e-20 0.0535876)
(-0.113404 0 0.0514253)
(-0.105554 -1.49251e-19 0.0491601)
(-0.0978775 -8.2358e-20 0.0467299)
(-0.0910659 0 0.0442584)
(-0.0850123 -9.0941e-20 0.0415568)
(-0.0808737 -9.23717e-20 0.0387764)
(-0.0784895 0 0.0357016)
(-0.0794113 1.88267e-19 0.0326507)
(-0.0831067 -9.31843e-20 0.0294549)
(-0.0912859 -1.82784e-19 0.0266339)
(-0.102502 0 0.023999)
(-0.118349 -6.5277e-22 0.0222212)
(-0.136103 3.0834e-19 0.0209855)
(-0.157394 0 0.0210115)
(-0.178285 0 0.0217005)
(-0.200986 -9.40658e-20 0.0237275)
(-0.220659 -6.94934e-20 0.0261602)
(-0.240802 8.87529e-20 0.0296996)
(-0.255992 4.00525e-20 0.0332049)
(-0.27147 -4.29741e-21 0.037539)
(-0.281051 4.23285e-20 0.0414706)
(-0.291551 1.44117e-19 0.0460551)
(-0.295476 0 0.0499801)
(-0.300878 0 0.0543741)
(-0.299072 2.12123e-19 0.0578781)
(-0.29974 0 0.0615517)
(-0.294159 0 0.0641629)
(-0.293855 -9.9103e-20 0.0665718)
(-0.29075 0 0.0680864)
(-0.296381 -4.35679e-20 0.06916)
(-0.302706 -1.06201e-21 0.0701226)
(-0.318101 1.75716e-19 0.0704996)
(-0.335231 0 0.0720554)
(-0.35763 0 0.0725418)
(-0.382375 0 0.075708)
(-0.406926 4.7197e-19 0.0765526)
(-0.437063 0 0.0818039)
(-0.460356 -3.28178e-19 0.0825873)
(-0.494883 4.29595e-19 0.0899508)
(-0.512481 0 0.0897808)
(-0.549422 0 0.099261)
(-0.555988 0 0.0971815)
(-0.592486 1.82152e-21 0.108553)
(-0.582514 3.34535e-19 0.103276)
(-0.613884 8.20733e-19 0.116095)
(-0.592487 8.71065e-19 0.106742)
(-0.596149 -8.93472e-19 0.116878)
(-0.604343 0 0.109047)
(-0.510159 -8.04184e-19 0.101757)
(-0.606519 0 0.118806)
(-0.486812 -7.16806e-19 0.0688861)
(-0.0518182 0 0.084944)
(-1.86509 0 0.208905)
(3.26524 0 -0.546707)
(-4.52667 -9.53953e-19 1.20168)
(-0.721082 4.87103e-19 -0.7651)
(11.3837 0 -1.08)
(-23.925 8.6519e-19 4.18772)
(26.8149 -2.8097e-18 -6.45872)
(-10.2077 2.5149e-18 4.96779)
(-26.9635 -1.69e-20 1.58681)
(60.3669 0 -9.93371)
(-79.1014 0 17.5994)
(35.7718 0 -13.7733)
(49.2204 0 -2.46725)
(-109.45 -5.39525e-18 19.0568)
(102.409 3.59756e-20 -24.8736)
(-32.0448 1.37225e-17 17.977)
(-59.6348 0 4.01996)
(136.93 0 -27.6661)
(-83.6612 -2.9258e-17 27.3564)
(-70.5571 0 5.4502)
(123.109 -2.35672e-17 -30.7258)
(42.201 0 1.62476)
(-101.895 3.93854e-19 23.0174)
(-3.41668 0 -6.81647)
(66.3654 0 -13.025)
(-19.6306 -5.64766e-18 7.69486)
(-27.5376 0 5.83811)
(0.268994 0 0.148474)
(0.27631 6.24761e-21 0.136817)
(0.285696 0 0.130422)
(0.286396 5.98982e-21 0.130713)
(0.289126 1.1127e-20 0.130934)
(0.294657 0 0.124182)
(0.295983 -4.92312e-21 0.108817)
(0.288779 0 0.0876599)
(0.274128 -1.60957e-22 0.0660974)
(0.255318 1.61156e-20 0.048989)
(0.234981 0 0.038314)
(0.21402 0 0.0322514)
(0.192577 5.51963e-21 0.0282527)
(0.170317 0 0.0254137)
(0.146109 0 0.0231744)
(0.118518 0 0.0200626)
(0.0869985 2.75932e-21 0.0148849)
(0.0523879 4.33194e-22 0.00800163)
(0.0165444 -1.95164e-21 0.00105114)
(-0.0184368 0 -0.00405123)
(-0.0512141 0 -0.00610306)
(-0.0816688 -9.78243e-21 -0.00520054)
(-0.110281 1.21815e-20 -0.00241734)
(-0.137071 -1.43583e-20 0.0011527)
(-0.161189 -3.24762e-20 0.00507134)
(-0.181357 7.03838e-20 0.00950294)
(-0.196625 -5.96378e-22 0.0147544)
(-0.206769 -3.85831e-20 0.0208741)
(-0.212191 -3.84462e-20 0.0275884)
(-0.213543 0 0.0344592)
(-0.211527 0 0.0410772)
(-0.206798 -3.12211e-20 0.0470984)
(-0.200065 0 0.0522767)
(-0.191961 4.3903e-20 0.0564288)
(-0.183121 3.31597e-20 0.0595064)
(-0.173945 -2.19334e-20 0.0615198)
(-0.164883 0 0.0626013)
(-0.156124 6.52862e-22 0.062834)
(-0.147975 -8.60295e-21 0.0623742)
(-0.140256 3.88689e-22 0.0612688)
(-0.13305 4.84721e-20 0.0597227)
(-0.125932 0 0.0577914)
(-0.119217 6.96577e-20 0.0557035)
(-0.112606 0 0.0533793)
(-0.106922 0 0.0509774)
(-0.101938 0 0.0482682)
(-0.098975 7.44518e-22 0.0454457)
(-0.0976719 0 0.0422412)
(-0.0998022 -8.82077e-20 0.0390429)
(-0.104555 1.74588e-19 0.0356223)
(-0.113967 1.71765e-19 0.0325965)
(-0.126217 0 0.0296985)
(-0.143355 -1.56901e-19 0.0277261)
(-0.162152 -2.88483e-19 0.0262646)
(-0.184852 0 0.0261873)
(-0.206844 0 0.0267607)
(-0.231143 8.83608e-20 0.0288331)
(-0.252016 6.51203e-20 0.0312996)
(-0.273997 -4.17354e-20 0.0350633)
(-0.290507 -3.82605e-20 0.0387823)
(-0.308102 0 0.043549)
(-0.319147 0 0.0479002)
(-0.332085 -6.27336e-22 0.0531313)
(-0.337637 8.65724e-20 0.0576675)
(-0.345817 0 0.0628733)
(-0.34581 -9.93177e-20 0.0671266)
(-0.349607 0 0.0717001)
(-0.346034 0 0.0751368)
(-0.349227 0 0.07844)
(-0.348404 0 0.0807893)
(-0.35789 6.37468e-22 0.0826372)
(-0.366832 -8.97781e-22 0.0843803)
(-0.386385 -1.62683e-19 0.0853124)
(-0.406545 0 0.0876055)
(-0.433343 -2.2688e-19 0.088426)
(-0.461673 0 0.0924226)
(-0.490802 -4.42567e-19 0.0934498)
(-0.525248 3.82415e-19 0.0998003)
(-0.553162 -3.07521e-19 0.100631)
(-0.592858 -2.01621e-19 0.109468)
(-0.614824 0 0.10914)
(-0.657923 -2.31707e-20 0.120586)
(-0.668235 0 0.11804)
(-0.711908 2.36556e-19 0.131928)
(-0.704585 3.10094e-19 0.125655)
(-0.743838 -7.68864e-19 0.14166)
(-0.723973 0 0.130258)
(-0.733857 1.67162e-18 0.144328)
(-0.746324 0 0.133457)
(-0.647822 -7.51752e-19 0.129129)
(-0.763077 0 0.147949)
(-0.619008 -6.71018e-19 0.0842799)
(-0.19047 0 0.13564)
(-2.09052 -1.96567e-19 0.195289)
(3.39743 2.17266e-19 -0.531175)
(-5.18353 8.92706e-19 1.41659)
(-0.376206 -4.55774e-19 -1.13242)
(11.5858 0 -0.726461)
(-25.5836 -1.61183e-18 4.28941)
(29.508 5.20448e-18 -7.29024)
(-13.2509 0 6.30156)
(-26.2409 1.58343e-20 0.183879)
(64.1175 0 -9.86409)
(-87.0302 0 19.6994)
(42.1464 -9.26168e-18 -17.19)
(47.8049 0 0.166131)
(-113.036 0 18.9097)
(110.814 1.25402e-17 -27.775)
(-44.4703 -1.3003e-17 19.5428)
(-54.7891 3.6614e-18 0.501678)
(147.182 0 -29.4989)
(-99.5412 0 33.7237)
(-66.5927 0 1.50108)
(134.27 0 -34.453)
(33.3803 -2.26972e-17 6.58034)
(-105.863 -1.68461e-19 24.3681)
(0.444991 0 -9.90661)
(68.7017 0 -13.2366)
(-26.3041 0 10.5384)
(-29.379 0 6.28072)
(0.261421 -5.18005e-21 0.156475)
(0.269537 0 0.147271)
(0.281336 -5.34438e-21 0.140669)
(0.283495 0 0.138277)
(0.285988 -5.12983e-21 0.136527)
(0.291483 0 0.130491)
(0.294397 4.62707e-21 0.117977)
(0.290338 -8.52788e-21 0.0999968)
(0.279225 -1.61175e-20 0.0801269)
(0.263242 -1.53509e-22 0.0628979)
(0.244787 0 0.0506656)
(0.225159 0 0.0425985)
(0.204835 0 0.036573)
(0.183895 0 0.0319259)
(0.161683 0 0.0285285)
(0.136839 0 0.0249888)
(0.108298 -2.60696e-21 0.0196723)
(0.0760532 4.71391e-22 0.0124234)
(0.0412352 1.83373e-21 0.00458497)
(0.00586183 0 -0.00186111)
(-0.0280324 0 -0.00525604)
(-0.0594648 8.82728e-21 -0.00520484)
(-0.0885903 1.10213e-20 -0.00268316)
(-0.115736 1.30145e-20 0.000929126)
(-0.140538 0 0.00486749)
(-0.161928 -3.27939e-20 0.00918732)
(-0.178833 -6.88565e-20 0.0143027)