/*--------------------------------*- C++ -*----------------------------------*\
| =========                 |                                                 |
| \\      /  F ield         | OpenFOAM: The Open Source CFD Toolbox           |
|  \\    /   O peration     | Version:  2412                                  |
|   \\  /    A nd           | Website:  www.openfoam.com                      |
|    \\/     M anipulation  |                                                 |
\*---------------------------------------------------------------------------*/
FoamFile
{
    version     2.0;
    format      ascii;
    arch        "LSB;label=32;scalar=64";
    class       surfaceScalarField;
    location    "1.53";
    object      ddtCorrDdt0(phi);
}
// * * * * * * * * * * * * * * * * * * * * * * * * * * * * * * * * * * * * * //

dimensions      [0 3 -2 0 0 0 0];

oriented        oriented;

internalField   nonuniform List<scalar> 
24930
(
-3.54356e-05
-3.768e-05
8.06794e-05
-8.94651e-06
-2.30808e-05
2.52192e-06
-8.053e-06
6.07551e-06
-5.47446e-07
7.41396e-06
1.74851e-06
7.9465e-06
2.03324e-06
8.1305e-06
1.80435e-06
8.05696e-06
1.7867e-06
8.06554e-06
1.64927e-06
8.17037e-06
1.585e-06
8.3954e-06
1.55041e-06
8.74877e-06
1.52776e-06
9.19094e-06
1.50325e-06
9.63598e-06
1.47673e-06
9.9841e-06
1.46066e-06
1.01552e-05
1.46205e-06
1.01009e-05
1.47101e-06
9.79941e-06
1.4644e-06
9.24683e-06
1.41673e-06
8.45287e-06
1.31085e-06
7.43705e-06
1.14483e-06
6.22572e-06
9.31258e-07
4.8536e-06
6.88259e-07
3.37106e-06
4.28583e-07
1.85086e-06
1.55845e-07
3.86367e-07
-1.29855e-07
-9.21691e-07
-4.22618e-07
-1.98398e-06
-7.06368e-07
-2.73909e-06
-9.57369e-07
-3.16143e-06
-1.15187e-06
-3.26115e-06
-1.27198e-06
-3.07765e-06
-1.3095e-06
-2.67143e-06
-1.26467e-06
-2.11369e-06
-1.14619e-06
-1.47808e-06
-9.6746e-07
-8.31085e-07
-7.4705e-07
-2.28171e-07
-5.03026e-07
2.91242e-07
-2.54609e-07
7.01105e-07
-1.57346e-08
9.91097e-07
1.99034e-07
1.16086e-06
3.81646e-07
1.2231e-06
5.21985e-07
1.19529e-06
6.19034e-07
1.1018e-06
6.71147e-07
9.61486e-07
6.89622e-07
7.91876e-07
6.82247e-07
6.01474e-07
6.63309e-07
3.98415e-07
6.37279e-07
1.84951e-07
6.10821e-07
-3.74153e-08
5.82822e-07
-2.70007e-07
5.50237e-07
-5.21203e-07
5.11943e-07
-7.97212e-07
4.55391e-07
-1.12135e-06
3.87571e-07
-1.5018e-06
2.85582e-07
-1.97856e-06
1.78164e-07
-2.54922e-06
2.79193e-08
-3.26125e-06
-1.01219e-07
-4.07369e-06
-2.72622e-07
-5.03015e-06
-3.70756e-07
-6.03092e-06
-5.07182e-07
-7.13762e-06
-5.00855e-07
-8.2132e-06
-5.48419e-07
-9.40877e-06
-3.82038e-07
-1.05842e-05
-3.13564e-07
-1.20201e-05
6.5777e-08
-1.35037e-05
3.06288e-07
-1.53556e-05
9.88058e-07
-1.7112e-05
1.41644e-06
-1.90439e-05
2.28385e-06
-2.03901e-05
2.549e-06
-2.15201e-05
3.12387e-06
-2.15663e-05
2.84232e-06
-2.12687e-05
3.12783e-06
-1.98118e-05
2.78645e-06
-1.83851e-05
3.36819e-06
-1.61643e-05
3.11612e-06
-1.46453e-05
3.04081e-06
-1.2829e-05
1.21524e-06
-1.22659e-05
-1.35612e-06
-1.16578e-05
-4.98077e-06
-1.23263e-05
-8.87754e-06
-1.27932e-05
-1.07911e-05
-1.39497e-05
-1.3135e-05
-1.45468e-05
-1.03875e-05
-1.50371e-05
-1.06159e-05
-1.48152e-05
-3.55915e-06
-1.4113e-05
-2.21189e-06
-1.34076e-05
-2.49066e-07
-1.04218e-05
8.10763e-06
-1.11577e-05
6.03216e-06
-1.63426e-06
2.07064e-05
-9.73339e-06
2.21163e-05
1.23348e-05
-2.3062e-05
-3.31173e-06
5.35235e-05
8.45036e-06
-0.000144979
8.29004e-05
-2.79065e-05
-9.24873e-05
0.000162945
-1.8455e-05
-0.000401152
0.00020597
-0.000126411
-2.38946e-05
-0.000827319
8.91836e-05
-0.000439722
-0.000555257
5.5008e-05
0.000750302
-0.00139489
-0.000110452
0.000820667
-0.000970717
0.00249405
0.00215426
-0.00308521
-0.00192316
0.00408317
-0.000942182
-0.000707984
0.00205537
-0.00319963
-0.000862795
0.00319824
0.000431878
-0.0017469
-0.000532148
0.000936483
0.00152844
-0.0014792
-0.00491194
0.00651012
-0.00480521
-0.000532966
0.0177346
-0.0219797
0.0130183
0.00456634
-0.0165323
0.0287907
0.00457114
-7.09905e-05
-5.40939e-05
9.07206e-05
-4.18966e-05
-4.57219e-05
-1.82399e-05
-2.59336e-05
-2.62112e-06
-1.04508e-05
6.03911e-06
-1.99312e-06
1.03893e-05
1.65119e-06
1.24947e-05
3.15716e-06
1.37956e-05
3.7964e-06
1.47522e-05
4.01037e-06
1.57025e-05
4.05933e-06
1.68248e-05
4.01874e-06
1.81879e-05
3.88211e-06
1.97576e-05
3.64153e-06
2.14054e-05
3.36183e-06
2.29502e-05
3.14117e-06
2.42197e-05
3.02229e-06
2.50923e-05
2.96277e-06
2.5504e-05
2.87364e-06
2.54345e-05
2.67384e-06
2.4888e-05
2.32767e-06
2.38732e-05
1.85834e-06
2.23916e-05
1.33257e-06
2.0448e-05
8.1994e-07
1.80799e-05
3.5313e-07
1.53844e-05
-7.95773e-08
1.25193e-05
-5.06387e-07
9.6735e-06
-9.35379e-07
7.02549e-06
-1.34076e-06
4.71212e-06
-1.67543e-06
2.81644e-06
-1.89651e-06
1.36926e-06
-1.98019e-06
3.57785e-07
-1.92644e-06
-2.65768e-07
-1.75065e-06
-5.72342e-07
-1.48078e-06
-6.46547e-07
-1.14713e-06
-5.74036e-07
-7.83623e-07
-4.3694e-07
-4.14007e-07
-3.05876e-07
-5.85268e-08
-2.41509e-07
2.78469e-07
-2.85945e-07
5.87989e-07
-4.6612e-07
8.70711e-07
-7.84434e-07
1.11182e-06
-1.2304e-06
1.31061e-06
-1.77861e-06
1.45618e-06
-2.41064e-06
1.5655e-06
-3.10835e-06
1.64009e-06
-3.86497e-06
1.6965e-06
-4.66983e-06
1.72622e-06
-5.51688e-06
1.73367e-06
-6.3971e-06
1.71043e-06
-7.30291e-06
1.65269e-06
-8.23674e-06
1.56713e-06
-9.19618e-06
1.43255e-06
-1.0208e-05
1.27886e-06
-1.12758e-05
1.05221e-06
-1.24622e-05
8.34055e-07
-1.37648e-05
5.21504e-07
-1.52753e-05
2.81569e-07
-1.69433e-05
-6.9953e-08
-1.88695e-05
-2.36997e-07
-2.09101e-05
-5.44856e-07
-2.3191e-05
-5.25442e-07
-2.54824e-05
-7.40745e-07
-2.80328e-05
-4.87807e-07
-3.05758e-05
-6.72896e-07
-3.35761e-05
-2.31653e-07
-3.66644e-05
-5.09964e-07
-4.04418e-05
9.56791e-08
-4.41833e-05
-3.32296e-07
-4.84846e-05
5.05458e-07
-5.2118e-05
-8.29309e-08
-5.58139e-05
1.05823e-06
-5.80258e-05
2.97997e-07
-5.99951e-05
1.86493e-06
-6.00885e-05
1.01493e-06
-6.02556e-05
3.08865e-06
-5.87462e-05
1.98071e-06
-5.81147e-05
4.21493e-06
-5.62759e-05
2.51608e-06
-5.61281e-05
4.88613e-06
-5.502e-05
3.0935e-06
-5.58954e-05
5.98425e-06
-5.55e-05
4.10391e-06
-5.66618e-05
6.20697e-06
-5.56294e-05
2.60341e-06
-5.57287e-05
3.23888e-06
-5.24663e-05
-1.57685e-06
-5.10729e-05
-1.43714e-07
-4.53748e-05
-5.8269e-06
-4.04504e-05
-8.37133e-06
-3.55536e-05
-4.91683e-07
-1.7175e-05
-2.75789e-05
-2.96069e-05
2.12626e-05
3.06417e-05
-8.3978e-05
-2.23333e-05
5.32265e-05
4.10374e-05
-6.20911e-05
0.000216013
-0.000236294
-0.000305021
0.000692113
2.8856e-05
-0.000471364
0.000512387
-0.000742644
2.17067e-05
0.00043802
4.35145e-05
-0.000206725
-0.00149222
0.00223806
0.00238505
-0.00491503
-0.00104055
0.00433562
-0.00224011
0.00194782
0.00621625
-0.0115165
-0.00589418
0.016206
-0.00223336
-0.00463055
0.00565623
-0.0108866
-0.0020596
0.0107906
0.00110009
-0.00453385
-0.00147569
0.00322705
0.00432296
-0.00777096
-0.0151077
0.0260333
-0.00948392
-0.006773
0.0630714
-0.0942833
0.0329461
0.034898
-0.0507595
0.112158
0.00153826
-9.123e-05
-5.53957e-05
9.62882e-05
-7.51037e-05
-5.634e-05
-5.40703e-05
-4.16258e-05
-3.42946e-05
-2.52531e-05
-1.85419e-05
-1.35469e-05
-7.42989e-06
-5.87408e-06
1.01333e-07
-1.03063e-06
5.25125e-06
1.88336e-06
8.9818e-06
3.47137e-06
1.20455e-05
4.25929e-06
1.49111e-05
4.58689e-06
1.78232e-05
4.54667e-06
2.08528e-05
4.18738e-06
2.39145e-05
3.70208e-06
2.68102e-05
3.3446e-06
2.93211e-05
3.22863e-06
3.12903e-05
3.2654e-06
3.26501e-05
3.26316e-06
3.33991e-05
3.0578e-06
3.35616e-05
2.59168e-06
3.31483e-05
1.93153e-06
3.21374e-05
1.22636e-06
3.0492e-05
6.17807e-07
2.82123e-05
1.56477e-07
2.53854e-05
-2.08939e-07
2.21908e-05
-5.64167e-07
1.88553e-05
-9.46421e-07
1.55937e-05
-1.31729e-06
1.2567e-05
-1.59638e-06
9.87527e-06
-1.71707e-06
7.56493e-06
-1.6535e-06
5.64154e-06
-1.42143e-06
4.07727e-06
-1.05754e-06
2.8213e-06
-6.12042e-07
1.80789e-06
-1.3138e-07
9.67336e-07
3.39759e-07
2.27497e-07
7.81264e-07
-4.79932e-07
1.18361e-06
-1.22068e-06
1.56301e-06
-2.04531e-06
1.92185e-06
-2.98886e-06
2.26981e-06
-4.05806e-06
2.58298e-06
-5.24413e-06
2.85689e-06
-6.52285e-06
3.06985e-06
-7.88028e-06
3.24747e-06
-9.30496e-06
3.38818e-06
-1.07976e-05
3.51272e-06
-1.23527e-05
3.59845e-06
-1.39673e-05
3.64461e-06
-1.56336e-05
3.63127e-06
-1.73435e-05
3.5479e-06
-1.91007e-05
3.4049e-06
-2.09017e-05
3.16436e-06
-2.27768e-05
2.87885e-06
-2.47288e-05
2.45687e-06
-2.68309e-05
2.04428e-06
-2.90816e-05
1.46832e-06
-3.15919e-05
1.027e-06
-3.43083e-05
4.08379e-07
-3.73563e-05
1.35258e-07
-4.05743e-05
-3.52783e-07
-4.41139e-05
-2.37833e-07
-4.77045e-05
-4.99892e-07
-5.16315e-05
8.22632e-08
-5.5571e-05
-8.44014e-08
-6.00626e-05
8.45896e-07
-6.46665e-05
4.99059e-07
-7.01071e-05
1.68569e-06
-7.55466e-05
1.05906e-06
-8.17381e-05
2.72517e-06
-8.72555e-05
1.99048e-06
-9.30213e-05
4.44933e-06
-9.71854e-05
3.5778e-06
-0.000101255
6.74608e-06
-0.000103192
5.33937e-06
-0.000105335
8.91696e-06
-0.000105407
6.60404e-06
-0.000106528
1.03855e-05
-0.000105896
6.93767e-06
-0.00010723
1.08297e-05
-0.000106836
6.24134e-06
-0.000108894
1.02434e-05
-0.000108504
4.444e-06
-0.00011044
8.02382e-06
-0.000108191
-4.26295e-08
-0.000108583
3.83115e-06
-0.000101795
-7.34706e-06
-0.000100971
-9.45329e-08
-8.93165e-05
-1.4855e-05
-8.41817e-05
-1.24441e-05
-7.11145e-05
-1.40462e-05
-4.6804e-05
-4.89658e-05
-6.04563e-05
3.22243e-05
3.81726e-05
-0.00017877
-5.78517e-05
0.000153503
7.45654e-05
-0.000202556
0.000327384
-0.000483386
-0.00055947
0.00155543
0.00013442
-0.00111108
0.000787499
-0.00139683
4.7753e-05
0.00171105
-7.89185e-05
3.90517e-05
-0.00236073
0.00444638
0.00417191
-0.0114764
-0.00231379
0.0108796
-0.00323558
0.00276956
0.0102994
-0.0250138
-0.0102753
0.0367505
-0.00295393
-0.0119409
0.00914346
-0.023005
-0.00343136
0.0232666
0.00196113
-0.00969281
-0.00248676
0.00769442
0.00686273
-0.0172254
-0.0253493
0.058341
-0.0109173
-0.0212311
0.109749
-0.231091
0.0482229
0.0963811
-0.0874044
0.248099
-0.00108462
-0.000101777
-5.14353e-05
0.000101233
-9.67115e-05
-5.59668e-05
-8.54146e-05
-4.82464e-05
-7.03343e-05
-3.62741e-05
-5.45603e-05
-2.5735e-05
-3.99581e-05
-1.70084e-05
-2.76971e-05
-9.83843e-06
-1.80339e-05
-4.42568e-06
-1.04515e-05
-8.54843e-07
-4.20561e-06
1.30932e-06
1.30281e-06
2.5359e-06
6.45673e-06
2.99196e-06
1.14663e-05
2.77574e-06
1.63582e-05
2.23924e-06
2.09729e-05
1.86955e-06
2.50615e-05
1.91924e-06
2.84247e-05
2.26214e-06
3.09835e-05
2.56655e-06
3.27605e-05
2.54598e-06
3.38166e-05
2.10515e-06
3.41902e-05
1.36269e-06
3.38628e-05
5.73494e-07
3.27758e-05
-2.28638e-08
3.08979e-05
-3.4739e-07
2.83006e-05
-5.0623e-07
2.51788e-05
-6.71874e-07
2.17955e-05
-9.28884e-07
1.8398e-05
-1.22023e-06
1.51635e-05
-1.41135e-06
1.21935e-05
-1.39441e-06
9.53406e-06
-1.13565e-06
7.19422e-06
-6.6862e-07
5.15395e-06
-5.45327e-08
3.37239e-06
6.31189e-07
1.79482e-06
1.32253e-06
3.62637e-07
1.9604e-06
-9.88119e-07
2.52691e-06
-2.32254e-06
3.02394e-06
-3.70826e-06
3.48996e-06
-5.19906e-06
3.93794e-06
-6.83147e-06
4.38441e-06
-8.60974e-06
4.79339e-06
-1.0521e-05
5.15709e-06
-1.25378e-05
5.44618e-06
-1.46471e-05
5.70132e-06
-1.68414e-05
5.92212e-06
-1.91268e-05
6.13534e-06
-2.15021e-05
6.30298e-06
-2.39676e-05
6.41688e-06
-2.65182e-05
6.44454e-06
-2.91478e-05
6.36664e-06
-3.18646e-05
6.19963e-06
-3.46664e-05
5.88511e-06
-3.75906e-05
5.50427e-06
-4.06401e-05
4.92049e-06
-4.3901e-05
4.35689e-06
-4.73696e-05
3.55553e-06
-5.11762e-05
2.96649e-06
-5.52571e-05
2.12031e-06
-5.97611e-05
1.80015e-06
-6.44974e-05
1.15947e-06
-6.96445e-05
1.42276e-06
-7.48782e-05
1.1172e-06
-8.05281e-05
2.08475e-06
-8.61983e-05
1.94277e-06
-9.25158e-05
3.4847e-06
-9.89491e-05
3.13911e-06
-0.000106361
5.14031e-06
-0.000113769
4.41284e-06
-0.000122108
7.15334e-06
-0.000129716
6.24259e-06
-0.00013775
1.01859e-05
-0.000144023
9.06204e-06
-0.000150378
1.41023e-05
-0.000154332
1.20836e-05
-0.000158704
1.76265e-05
-0.000160637
1.39213e-05
-0.000163908
1.9514e-05
-0.000164917
1.35695e-05
-0.000168297
1.9016e-05
-0.000169187
1.05365e-05
-0.000173115
1.60303e-05
-0.00017334
4.96214e-06
-0.000176785
1.08215e-05
-0.000173809
-4.13683e-06
-0.000175288
4.60304e-06
-0.000165988
-1.66889e-05
-0.000167526
1.37195e-06
-0.000147747
-3.28153e-05
-0.000143571
-1.52942e-05
-0.000121243
-3.55191e-05
-9.21555e-05
-7.4459e-05
-0.000105956
4.45264e-05
3.17907e-05
-0.000313393
-0.000111083
0.000300026
0.000101442
-0.000419743
0.000413852
-0.000790275
-0.000845923
0.00279126
0.000275312
-0.00218234
0.00104642
-0.00216897
1.62656e-05
0.00267318
-0.000226508
0.000371355
-0.00316142
0.00727814
0.0060621
-0.0207542
-0.00373686
0.0207292
-0.00395102
0.00294282
0.0143278
-0.0432897
-0.0149821
0.0660278
-0.00300762
-0.0239031
0.0124332
-0.038452
-0.00520783
0.0407858
0.00307041
-0.017754
-0.00360237
0.014373
0.00922077
-0.0301972
-0.0351698
0.1028
-0.00893742
-0.0475111
0.157595
-0.382014
0.0581877
0.195761
-0.124956
0.431347
-0.0139639
-0.000108256
-4.67858e-05
0.000106939
-0.00010831
-5.07594e-05
-0.000104809
-4.79234e-05
-9.67578e-05
-4.09954e-05
-8.55771e-05
-3.35583e-05
-7.28683e-05
-2.61192e-05
-6.0189e-05
-1.88275e-05
-4.86464e-05
-1.23976e-05
-3.85661e-05
-7.49089e-06
-2.96797e-05
-4.09575e-06
-2.16594e-05
-1.83852e-06
-1.42453e-05
-6.38986e-07
-7.20027e-06
-4.94233e-07
-3.7731e-07
-9.77346e-07
6.14915e-06
-1.3302e-06
1.21078e-05
-1.05718e-06
1.72118e-05
-2.62598e-07
2.13129e-05
5.59033e-07
2.44189e-05
9.40013e-07
2.66185e-05
7.03233e-07
2.79927e-05
3.45766e-09
2.8557e-05
-7.88572e-07
2.8256e-05
-1.30412e-06
2.70298e-05
-1.4022e-06
2.49168e-05
-1.23799e-06
2.21103e-05
-1.10024e-06
1.89095e-05
-1.15627e-06
1.56086e-05
-1.33797e-06
1.24123e-05
-1.43403e-06
9.4262e-06
-1.26774e-06
6.6909e-06
-7.84668e-07
4.21454e-06
-3.75317e-08
1.98156e-06
8.83657e-07
-4.24778e-08
1.87601e-06
-1.90622e-06
2.85224e-06
-3.66229e-06
3.73545e-06
-5.37054e-06
4.50742e-06
-7.09606e-06
5.18068e-06
-8.91143e-06
5.81645e-06
-1.08765e-05
6.436e-06
-1.30318e-05
7.05853e-06
-1.5381e-05
7.63077e-06
-1.79085e-05
8.14039e-06
-2.05841e-05
8.55238e-06
-2.33961e-05
8.92854e-06
-2.63406e-05
9.27421e-06
-2.94283e-05
9.62497e-06
-3.26615e-05
9.92725e-06
-3.60425e-05
1.01642e-05
-3.95685e-05
1.0291e-05
-4.32341e-05
1.02771e-05
-4.7052e-05
1.01484e-05
-5.10196e-05
9.82034e-06
-5.51828e-05
9.41017e-06
-5.95419e-05
8.72473e-06
-6.41979e-05
8.08045e-06
-6.91407e-05
7.11206e-06
-7.4523e-05
6.4494e-06
-8.0263e-05
5.42495e-06
-8.65371e-05
5.12833e-06
-9.3114e-05
4.35972e-06
-0.000100207
4.82777e-06
-0.000107424
4.46563e-06
-0.000115155
5.86768e-06
-0.000122912
5.71466e-06
-0.000131437
7.95639e-06
-0.000140079
7.59512e-06
-0.000149874
1.05837e-05
-0.000159655
9.75372e-06
-0.000170584
1.38014e-05
-0.000180708
1.26581e-05
-0.000191482
1.83468e-05
-0.000200307
1.68594e-05
-0.000209448
2.41599e-05
-0.000215885
2.14583e-05
-0.000223035
2.95494e-05
-0.000227333
2.43112e-05
-0.000233367
3.22989e-05
-0.000236577
2.33492e-05
-0.000242692
3.08377e-05
-0.000245474
1.75153e-05
-0.000252021
2.51181e-05
-0.00025347
7.24216e-06
-0.000259195
1.62621e-05
-0.000256031
-8.31199e-06
-0.000259353
7.09586e-06
-0.000247601
-2.87931e-05
-0.000248965
2.33343e-06
-0.000224237
-5.62576e-05
-0.000222114
-1.63951e-05
-0.00018993
-6.64717e-05
-0.000156783
-0.00010414
-0.000170011
5.66498e-05
7.14283e-06
-0.000487984
-0.000185337
0.000494214
0.000116525
-0.000722739
0.000468554
-0.00113565
-0.00115937
0.00439664
0.000448778
-0.00375721
0.00127663
-0.00299947
-7.94776e-05
0.00390456
-0.000381663
0.000744236
-0.0038844
0.0107704
0.0080071
-0.0326418
-0.00525872
0.0340398
-0.00435757
0.00200257
0.0182369
-0.0658536
-0.0198827
0.104099
-0.00233064
-0.0414275
0.0154064
-0.056189
-0.00735525
0.0634401
0.00443952
-0.0293489
-0.00481845
0.023614
0.0115448
-0.0467084
-0.0440486
0.158449
-0.00332022
-0.0883582
0.205395
-0.590685
0.0622143
0.33887
-0.161493
0.654913
-0.0450905
-0.00011387
-4.29524e-05
0.000113101
-0.000114426
-4.5478e-05
-0.000114412
-4.47233e-05
-0.000111314
-4.10082e-05
-0.000105146
-3.63066e-05
-9.65883e-05
-3.09065e-05
-8.67066e-05
-2.48336e-05
-7.64691e-05
-1.8873e-05
-6.65053e-05
-1.37948e-05
-5.69841e-05
-9.89199e-06
-4.79162e-05
-7.00554e-06
-3.93311e-05
-5.19438e-06
-3.11206e-05
-4.6957e-06
-2.30702e-05
-5.19095e-06
-1.51242e-05
-5.71196e-06
-7.53346e-06
-5.41661e-06
-7.03775e-07
-4.25433e-06
5.0588e-06
-2.84781e-06
9.66187e-06
-1.90534e-06
1.3172e-05
-1.76529e-06
1.57038e-05
-2.29235e-06
1.73291e-05
-3.02242e-06
1.80296e-05
-3.43637e-06
1.77255e-05
-3.27308e-06
1.6392e-05
-2.69128e-06
1.41754e-05
-2.11072e-06
1.13891e-05
-1.84027e-06
8.38415e-06
-1.84185e-06
5.41419e-06
-1.81706e-06
2.59836e-06
-1.48274e-06
-3.10865e-08
-7.39245e-07
-2.47258e-06
3.41469e-07
-4.73863e-06
1.63204e-06
-6.85691e-06
2.99831e-06
-8.87081e-06
4.33228e-06
-1.08279e-05
5.53751e-06
-1.27831e-05
6.59305e-06
-1.47992e-05
7.52157e-06
-1.69524e-05
8.41007e-06
-1.93095e-05
9.2886e-06
-2.19177e-05
1.01767e-05
-2.47826e-05
1.09979e-05
-2.78877e-05
1.17323e-05
-3.12012e-05
1.23388e-05
-3.47138e-05
1.29051e-05
-3.84261e-05
1.34462e-05
-4.23547e-05
1.40086e-05
-4.65067e-05
1.45229e-05
-5.0887e-05
1.4962e-05
-5.54959e-05
1.52694e-05
-6.03282e-05
1.54006e-05
-6.54021e-05
1.53955e-05
-7.07135e-05
1.51363e-05
-7.63173e-05
1.47863e-05
-8.22091e-05
1.4081e-05
-8.85064e-05
1.34509e-05
-9.51881e-05
1.23954e-05
-0.000102432
1.17603e-05
-0.00011013
1.06297e-05
-0.000118492
1.04597e-05
-0.000127234
9.61313e-06
-0.000136616
1.03811e-05
-0.00014616
9.97268e-06
-0.000156338
1.18961e-05
-0.000166551
1.17028e-05
-0.000177683
1.4754e-05
-0.000188936
1.43358e-05
-0.000201565
1.84934e-05
-0.000214169
1.7525e-05
-0.000228197
2.31509e-05
-0.000241335
2.17103e-05
-0.000255421
2.94796e-05
-0.000267348
2.7479e-05
-0.000279913
3.74382e-05
-0.000289437
3.38149e-05
-0.000300072
4.49683e-05
-0.000307398
3.78662e-05
-0.000316982
4.88947e-05
-0.000323113
3.64222e-05
-0.000332823
4.67215e-05
-0.000338264
2.76922e-05
-0.000348354
3.83453e-05
-0.000351801
1.21325e-05
-0.000360758
2.5531e-05
-0.000358113
-1.14519e-05
-0.00036423
1.28107e-05
-0.000350478
-4.25727e-05
-0.000354217
5.85164e-06
-0.000323216
-8.58894e-05
-0.000324447
-1.41865e-05
-0.000281104
-0.000108501
-0.000245252
-0.000136472
-0.000256636
6.67504e-05
-4.09034e-05
-0.000701172
-0.00028449
0.000738727
0.000114501
-0.00112224
0.000484288
-0.0014976
-0.00149448
0.00635001
0.000644946
-0.00586476
0.00145887
-0.00381634
-0.000232415
0.00550382
-0.000528315
0.00111125
-0.00454405
0.0147724
0.00995881
-0.0472187
-0.00684527
0.0508847
-0.00444373
-0.000445476
0.021953
-0.0922013
-0.0248243
0.150814
-0.000898469
-0.0653166
0.017968
-0.0750484
-0.0098259
0.0911103
0.0060385
-0.0450053
-0.00610643
0.0357308
0.0140558
-0.0670183
-0.0515162
0.224061
0.00512217
-0.14514
0.251326
-0.836992
0.0598646
0.530231
-0.194841
0.90947
-0.103746
-0.00011927
-3.97564e-05
0.000118959
-0.000118785
-4.12814e-05
-0.00011951
-4.09504e-05
-0.000118635
-3.87699e-05
-0.000115608
-3.58177e-05
-0.000110522
-3.21459e-05
-0.000103807
-2.75819e-05
-9.61107e-05
-2.26498e-05
-8.78503e-05
-1.81607e-05
-7.93814e-05
-1.43594e-05
-7.08933e-05
-1.13118e-05
-6.26275e-05
-9.16642e-06
-5.46493e-05
-8.41835e-06
-4.67264e-05
-9.03539e-06
-3.86114e-05
-1.00136e-05
-3.03997e-05
-1.01367e-05
-2.25375e-05
-9.01127e-06
-1.55238e-05
-7.23908e-06
-9.64955e-06
-5.76346e-06
-4.9618e-06
-5.16889e-06
-1.36544e-06
-5.43354e-06
1.26417e-06
-6.07148e-06
2.98338e-06
-6.43406e-06
3.72966e-06
-6.08102e-06
3.39936e-06
-5.07706e-06
2.02571e-06
-3.93707e-06
-1.2551e-07
-3.17545e-06
-2.65847e-06
-2.87484e-06
-5.24617e-06
-2.67745e-06
-7.73395e-06
-2.15447e-06
-1.0098e-05
-1.11575e-06
-1.2354e-05
3.57797e-07
-1.45187e-05
2.08919e-06
-1.66147e-05
3.90437e-06
-1.86821e-05
5.67582e-06
-2.07652e-05
7.28715e-06
-2.29125e-05
8.71046e-06
-2.51791e-05
9.97572e-06
-2.76402e-05
1.12002e-05
-3.03683e-05
1.24278e-05
-3.34196e-05
1.36797e-05
-3.68041e-05
1.485e-05
-4.05058e-05
1.59062e-05
-4.44908e-05
1.67981e-05
-4.87511e-05
1.76432e-05
-5.32928e-05
1.84698e-05
-5.814e-05
1.93384e-05
-6.33063e-05
2.0163e-05
-6.88006e-05
2.09046e-05
-7.4628e-05
2.14959e-05
-8.07842e-05
2.18747e-05
-8.7294e-05
2.21015e-05
-9.41519e-05
2.2016e-05
-0.000101424
2.18405e-05
-0.000109098
2.12199e-05
-0.000117311
2.07247e-05
-0.000126025
1.96838e-05
-0.000135447
1.92043e-05
-0.000145435
1.80591e-05
-0.000156236
1.81467e-05
-0.000167502
1.72888e-05
-0.00017955
1.84831e-05
-0.000191804
1.80531e-05
-0.000204836
2.0622e-05
-0.000217913
2.03693e-05
-0.000232102
2.4382e-05
-0.000246417
2.38649e-05
-0.000262383
2.94198e-05
-0.000278314
2.8266e-05
-0.000296015
3.58055e-05
-0.000312735
3.39928e-05
-0.000330784
4.42716e-05
-0.000346445
4.15899e-05
-0.000363173
5.47077e-05
-0.000376488
4.98601e-05
-0.000391446
6.46778e-05
-0.000402586
5.52735e-05
-0.000416666
7.01021e-05
-0.000426592
5.34833e-05
-0.000440958
6.75348e-05
-0.000450013
4.18269e-05
-0.000464803
5.66827e-05
-0.000471241
2.04623e-05
-0.000484647
3.97227e-05
-0.00048348
-1.2651e-05
-0.000493612
2.29933e-05
-0.000478639
-5.71459e-05
-0.000485998
1.33241e-05
-0.000450234
-0.000119988
-0.000455422
-7.88384e-06
-0.000399173
-0.000163279
-0.00036267
-0.000169313
-0.00037083
7.34884e-05
-0.000118478
-0.000950893
-0.000413191
0.00103379
8.83109e-05
-0.00162385
0.000454108
-0.00185464
-0.00184647
0.00862292
0.000851404
-0.00853056
0.00157903
-0.00454722
-0.000437451
0.00745744
-0.00065916
0.0014061
-0.00511885
0.0192241
0.011861
-0.0633981
-0.00843847
0.0712198
-0.00422331
-0.00471155
0.0254169
-0.121781
-0.0296508
0.205803
0.00125848
-0.0961779
0.0200736
-0.0938525
-0.0124997
0.123551
0.00780099
-0.0650847
-0.0074128
0.0509053
0.017011
-0.0915936
-0.0571725
0.298273
0.016187
-0.218657
0.294018
-1.11478
0.051002
0.773106
-0.223107
1.18321
-0.199978
-0.000124652
-3.67311e-05
0.000124532
-0.000123178
-3.77624e-05
-0.000123678
-3.73765e-05
-0.000123375
-3.59318e-05
-0.000121643
-3.40282e-05
-0.000118419
-3.15253e-05
-0.000113802
-2.81659e-05
-0.000108103
-2.42487e-05
-0.000101638
-2.04584e-05
-9.46037e-05
-1.7087e-05
-8.73393e-05
-1.41055e-05
-8.01608e-05
-1.17915e-05
-7.33007e-05
-1.07823e-05
-6.66009e-05
-1.14188e-05
-5.96426e-05
-1.29114e-05
-5.22147e-05
-1.38143e-05
-4.45844e-05
-1.32722e-05
-3.73173e-05
-1.16232e-05
-3.09116e-05
-9.90452e-06
-2.56045e-05
-8.96186e-06
-2.14018e-05
-8.97526e-06
-1.81746e-05
-9.54157e-06
-1.57744e-05
-9.96944e-06
-1.41771e-05
-9.63271e-06
-1.35241e-05
-8.37671e-06
-1.39442e-05
-6.68587e-06
-1.53204e-05
-5.29196e-06
-1.72761e-05
-4.52638e-06
-1.94035e-05
-4.07168e-06
-2.14758e-05
-3.34398e-06
-2.34623e-05
-1.9969e-06
-2.54074e-05
-8.40139e-08
-2.73475e-05
2.16e-06
-2.93084e-05
4.50491e-06
-3.13315e-05
6.80212e-06
-3.34631e-05
8.91582e-06
-3.57471e-05
1.08041e-05
-3.82259e-05
1.24956e-05
-4.09665e-05
1.41414e-05
-4.40448e-05
1.58089e-05
-4.75292e-05
1.75287e-05
-5.14385e-05
1.91611e-05
-5.57596e-05
2.06532e-05
-6.04551e-05
2.19387e-05
-6.55176e-05
2.31681e-05
-7.09579e-05
2.43875e-05
-7.68093e-05
2.56754e-05
-8.30941e-05
2.69292e-05
-8.98272e-05
2.80955e-05
-9.70202e-05
2.90972e-05
-0.000104671
2.98501e-05
-0.000112812
3.04424e-05
-0.000121437
3.0661e-05
-0.000130626
3.0802e-05
-0.000140356
3.03966e-05
-0.000150787
3.01857e-05
-0.000161858
2.92845e-05
-0.000173811
2.91165e-05
-0.000186456
2.80663e-05
-0.000200091
2.85691e-05
-0.000214285
2.77787e-05
-0.000229429
2.95547e-05
-0.000244826
2.91373e-05
-0.000261177
3.25143e-05
-0.000277588
3.2193e-05
-0.000295348
3.73727e-05
-0.000313242
3.67224e-05
-0.000333128
4.39713e-05
-0.000352966
4.25841e-05
-0.000375006
5.24584e-05
-0.000395959
5.01897e-05
-0.000418733
6.35235e-05
-0.000438861
5.99806e-05
-0.000460623
7.69104e-05
-0.000478556
7.05075e-05
-0.000498836
8.9767e-05
-0.000514727
7.75501e-05
-0.000534449
9.71187e-05
-0.000549231
7.56029e-05
-0.000569555
9.45396e-05
-0.000583406
6.10096e-05
-0.000604344
8.14386e-05
-0.000615041
3.33312e-05
-0.000634443
6.02057e-05
-0.000636034
-1.07979e-05
-0.000651752
3.90786e-05
-0.000636689
-7.1474e-05
-0.00064919
2.62216e-05
-0.000608852
-0.000158354
-0.000616844
1.40415e-06
-0.000539767
-0.000238741
-0.000515324
-0.000189797
-0.00051848
7.51258e-05
-0.000233051
-0.00123352
-0.00057716
0.00137793
2.9552e-05
-0.00223044
0.000370935
-0.00218644
-0.00221151
0.0111754
0.00104929
-0.0117576
0.00162484
-0.00512631
-0.000678175
0.00970517
-0.000767817
0.00157273
-0.0056811
0.0241312
0.0137708
-0.0499872
-0.00999982
0.0949864
-0.00373939
-0.0110262
0.0285847
-0.154035
-0.0342207
0.268517
0.00404934
-0.134389
0.0217447
-0.111535
-0.0152299
0.160382
0.00962876
-0.0897058
-0.00866015
0.0691472
0.0206614
-0.121072
-0.0607961
0.379751
0.0289547
-0.308571
0.331707
-1.41741
0.0357213
1.06891
-0.24476
1.46355
-0.342892
-0.000130151
-3.37167e-05
0.000130124
-0.000127975
-3.45819e-05
-0.000128122
-3.4143e-05
-0.000127798
-3.3129e-05
-0.000126421
-3.19049e-05
-0.000123916
-3.0163e-05
-0.000120282
-2.76388e-05
-0.000115665
-2.45175e-05
-0.000110308
-2.13299e-05
-0.000104321
-1.84464e-05
-9.80299e-05
-1.56435e-05
-9.17939e-05
-1.32289e-05
-8.59791e-05
-1.18717e-05
-8.06243e-05
-1.22242e-05
-7.5324e-05
-1.39058e-05
-6.95947e-05
-1.55369e-05
-6.33479e-05
-1.58903e-05
-5.69802e-05
-1.48556e-05
-5.106e-05
-1.33236e-05
-4.59942e-05
-1.22986e-05
-4.19352e-05
-1.21844e-05
-3.8819e-05
-1.27409e-05
-3.64362e-05
-1.33595e-05
-3.46084e-05
-1.332e-05
-3.33945e-05
-1.21758e-05
-3.30446e-05
-1.01766e-05
-3.3681e-05
-8.15224e-06
-3.50746e-05
-6.77386e-06
-3.67866e-05
-5.94167e-06
-3.84852e-05
-4.99105e-06
-4.00908e-05
-3.36328e-06
-4.16729e-05
-1.01053e-06
-4.33085e-05
1.79097e-06
-4.50444e-05
4.73526e-06
-4.69337e-05
7.64379e-06
-4.90345e-05
1.03616e-05
-5.1394e-05
1.28242e-05
-5.40403e-05
1.50411e-05
-5.70243e-05
1.71948e-05
-6.04192e-05
1.93896e-05
-6.4309e-05
2.16822e-05
-6.87287e-05
2.38984e-05
-7.36727e-05
2.59558e-05
-7.91004e-05
2.77597e-05
-8.50032e-05
2.94951e-05
-9.1396e-05
3.12303e-05
-9.83227e-05
3.30682e-05
-0.000105817
3.489e-05
-0.000113902
3.66263e-05
-0.000122598
3.81901e-05
-0.000131907
3.947e-05
-0.000141873
4.05906e-05
-0.000152488
4.12735e-05
-0.000163848
4.19066e-05
-0.00017592
4.18781e-05
-0.000188888
4.21364e-05
-0.000202665
4.1529e-05
-0.000217529
4.18631e-05
-0.000233236
4.10416e-05
-0.00025014
4.21507e-05
-0.000267713
4.15232e-05
-0.000286438
4.40712e-05
-0.00030547
4.37119e-05
-0.000325675
4.81039e-05
-0.000345957
4.77142e-05
-0.000367882
5.4327e-05
-0.000389952
5.35161e-05
-0.000414433
6.28366e-05
-0.000438848
6.11661e-05
-0.000465999
7.39005e-05
-0.000491943
7.10789e-05
-0.000520332
8.81512e-05
-0.000545784
8.35464e-05
-0.000573605
0.000105126
-0.000597132
9.68035e-05
-0.000623924
0.000121509
-0.000645685
0.0001059
-0.000672434
0.000131403
-0.000693355
0.000104114
-0.000721236
0.000129347
-0.000741343
8.66715e-05
-0.000770233
0.000114349
-0.000786799
5.22476e-05
-0.000814163
8.88274e-05
-0.00082019
-4.33507e-06
-0.00084352
6.29783e-05
-0.000829965
-8.40571e-05
-0.000849562
4.64233e-05
-0.000805833
-0.000199841
-0.000819845
1.6896e-05
-0.000744827
-0.000311873
-0.000712569
-0.000217876
-0.000706229
6.7204e-05
-0.000393725
-0.00154299
-0.000783686
0.00176775
-7.19071e-05
-0.00294189
0.00022706
-0.00247506
-0.00258894
0.0139592
0.00121551
-0.0155261
0.00158939
-0.00550404
-0.000940832
0.0121841
-0.000867979
0.00158144
-0.00610478
0.0293594
0.0154426
-0.104435
-0.011471
0.121891
-0.00306049
-0.0194934
0.0314377
-0.188456
-0.0384232
0.338274
0.00732258
-0.180065
0.0230713
-0.127272
-0.0178438
0.201143
0.0114037
-0.118698
-0.00975452
0.090252
0.0251977
-0.156189
-0.0623914
0.467356
0.042643
-0.413773
0.362903
-1.73755
0.0146116
1.41699
-0.260513
1.7384
-0.539209
-0.00013585
-3.07788e-05
0.000135931
-0.000133126
-3.16197e-05
-0.000132994
-3.11738e-05
-0.000132535
-3.04337e-05
-0.000131222
-2.96769e-05
-0.000128949
-2.84628e-05
-0.000125689
-2.65265e-05
-0.000121538
-2.40191e-05
-0.00011669
-2.13582e-05
-0.000111333
-1.88659e-05
-0.000105558
-1.64031e-05
-9.98036e-05
-1.39587e-05
-9.44782e-05
-1.22518e-05
-8.98565e-05
-1.20632e-05
-8.57564e-05
-1.34499e-05
-8.165e-05
-1.53768e-05
-7.71393e-05
-1.65135e-05
-7.23071e-05
-1.63051e-05
-6.76121e-05
-1.52891e-05
-6.35258e-05
-1.44517e-05
-6.03179e-05
-1.43653e-05
-5.8028e-05
-1.4966e-05
-5.64604e-05
-1.58168e-05
-5.52837e-05
-1.62696e-05
-5.43305e-05
-1.56577e-05
-5.37956e-05
-1.38247e-05
-5.40133e-05
-1.14314e-05
-5.50348e-05
-9.41903e-06
-5.65254e-05
-8.08077e-06
-5.80666e-05
-6.86233e-06
-5.94699e-05
-5.01512e-06
-6.07885e-05
-2.29774e-06
-6.21491e-05
1.03761e-06
-6.36454e-05
4.60697e-06
-6.53612e-05
8.18599e-06
-6.7382e-05
1.15969e-05
-6.97733e-05
1.47443e-05
-7.25557e-05
1.75927e-05
-7.57571e-05
2.03408e-05
-7.94392e-05
2.31404e-05
-8.37015e-05
2.61013e-05
-8.86036e-05
2.90233e-05
-9.41564e-05
3.1785e-05
-0.000100319
3.42461e-05
-0.000107081
3.66228e-05
-0.00011446
3.90104e-05
-0.000122511
4.1544e-05
-0.000131282
4.40909e-05
-0.000140809
4.65642e-05
-0.000151125
4.88679e-05
-0.000162236
5.0856e-05
-0.000174201
5.26997e-05
-0.000187013
5.40409e-05
-0.00020079
5.53802e-05
-0.000215485
5.59281e-05
-0.000231313
5.68828e-05
-0.000248152
5.67606e-05
-0.000266327
5.78315e-05
-0.000285527
5.74045e-05
-0.000306172
5.93553e-05
-0.000327619
5.90111e-05
-0.000350463
6.2567e-05
-0.000373684
6.23282e-05
-0.000398348
6.79951e-05
-0.000423117
6.75475e-05
-0.00044989
7.59285e-05
-0.000476821
7.49337e-05
-0.000506673
8.67962e-05
-0.000536437
8.47881e-05
-0.000569596
0.000101031
-0.000601405
9.75421e-05
-0.000636444
0.000119202
-0.000668218
0.000113303
-0.000703305
0.000140592
-0.000733571
0.000129938
-0.000768291
0.000161377
-0.000797251
0.000141716
-0.000832693
0.000174686
-0.000861302
0.000140621
-0.000898693
0.000173947
-0.000926848
0.000120617
-0.000965934
0.000157645
-0.000990389
7.9195e-05
-0.00102821
0.000128023
-0.00104085
8.85355e-06
-0.00107441
9.72374e-05
-0.00106455
-9.27735e-05
-0.0010938
7.64303e-05
-0.00104861
-0.00024256
-0.00107116
4.10905e-05
-0.000989173
-0.000391785
-0.000958965
-0.00024361
-0.000938884
4.54265e-05
-0.000611729
-0.00186683
-0.00104252
0.00219832
-0.000227832
-0.0037561
1.32503e-05
-0.00270507
-0.00298264
0.0169209
0.00132275
-0.0197932
0.00146947
-0.00565497
-0.00120794
0.0148106
-0.000983402
0.00144365
-0.00671729
0.0350381
0.0170599
-0.128877
-0.0128384
0.151778
-0.0022726
-0.0301181
0.0339852
-0.224632
-0.0421906
0.414337
0.0108752
-0.233052
0.0242016
-0.140589
-0.0201751
0.245356
0.0130036
-0.151603
-0.0106031
0.1138