/*--------------------------------*- C++ -*----------------------------------*\
| =========                 |                                                 |
| \\      /  F ield         | OpenFOAM: The Open Source CFD Toolbox           |
|  \\    /   O peration     | Version:  2412                                  |
|   \\  /    A nd           | Website:  www.openfoam.com                      |
|    \\/     M anipulation  |                                                 |
\*---------------------------------------------------------------------------*/
FoamFile
{
    version     2.0;
    format      ascii;
    arch        "LSB;label=32;scalar=64";
    class       surfaceScalarField;
    location    "1.115";
    object      phi_0;
}
// * * * * * * * * * * * * * * * * * * * * * * * * * * * * * * * * * * * * * //

dimensions      [0 3 -1 0 0 0 0];

oriented        oriented;

internalField   nonuniform List<scalar> 
24930
(
0.0179713
0.0127632
-0.0307379
0.010604
0.00736721
0.00695208
0.00365197
0.00517544
0.00177665
0.00420309
0.000972346
0.00358002
0.000623075
0.00313398
0.000446036
0.0027944
0.000339581
0.00252517
0.000269232
0.00230522
0.000219953
0.00212139
0.000183834
0.00196494
0.000156448
0.00182983
0.000135114
0.0017117
0.000118128
0.00160735
0.000104354
0.00151434
9.30079e-05
0.00143081
8.35354e-05
0.00135528
7.55335e-05
0.00128658
6.87036e-05
0.00122376
6.28207e-05
0.00116605
5.7712e-05
0.0011128
5.32432e-05
0.0010635
4.93084e-05
0.00101768
4.58231e-05
0.000974958
4.27193e-05
0.000935019
3.99416e-05
0.000897576
3.74446e-05
0.000862388
3.51907e-05
0.000829241
3.31487e-05
0.000797951
3.12923e-05
0.000768353
2.95993e-05
0.000740304
2.80509e-05
0.000713674
2.6631e-05
0.000688349
2.53257e-05
0.000664226
2.41234e-05
0.000641213
2.30134e-05
0.000619225
2.19872e-05
0.000598188
2.10366e-05
0.000578032
2.0155e-05
0.000558695
1.93362e-05
0.000540118
1.85754e-05
0.00052225
1.78671e-05
0.000505041
1.72081e-05
0.000488447
1.65936e-05
0.000472424
1.60218e-05
0.000456935
1.54881e-05
0.000441943
1.4992e-05
0.000427414
1.45284e-05
0.000413314
1.40989e-05
0.000399616
1.36972e-05
0.000386288
1.3327e-05
0.000373306
1.29804e-05
0.000360641
1.26639e-05
0.000348273
1.23668e-05
0.000336172
1.20993e-05
0.000324324
1.18473e-05
0.000312697
1.16252e-05
0.000301282
1.14145e-05
0.000290046
1.1235e-05
0.000278983
1.10623e-05
0.00026806
1.09231e-05
0.000257274
1.07856e-05
0.000246589
1.06847e-05
0.000236009
1.05798e-05
0.000225494
1.05151e-05
0.000215054
1.04402e-05
0.000204645
1.04095e-05
0.000194283
1.03621e-05
0.000183921
1.03621e-05
0.000173582
1.03392e-05
0.000163217
1.0365e-05
0.000152854
1.03629e-05
0.000142447
1.04066e-05
0.000132025
1.04214e-05
0.000121554
1.04701e-05
0.000111054
1.04996e-05
0.000100523
1.05315e-05
8.9942e-05
1.05806e-05
7.93844e-05
1.05577e-05
6.87366e-05
1.0648e-05
5.82298e-05
1.05069e-05
4.75555e-05
1.06744e-05
3.71926e-05
1.03628e-05
2.66502e-05
1.0542e-05
1.63722e-05
1.02773e-05
6.49391e-06
9.8772e-06
-4.25575e-06
1.0749e-05
-1.20122e-05
7.75517e-06
-2.55098e-05
1.34971e-05
-2.83377e-05
2.82631e-06
-4.09304e-05
1.25904e-05
-5.69976e-05
1.6073e-05
-4.18591e-05
-1.51474e-05
-8.70267e-05
4.51648e-05
-4.93305e-05
-3.76917e-05
-0.000111065
6.17516e-05
-7.27045e-05
-3.83208e-05
-6.62732e-05
-6.43801e-06
-0.000188981
0.00012277
-2.52267e-05
-0.000163768
-0.00024145
0.000216217
-8.97727e-05
-0.000151685
-0.000210804
0.000120984
-0.000241672
3.08883e-05
-6.58058e-05
-0.000175913
-0.000371238
0.000305461
-4.36847e-05
-0.00032756
-0.000398141
0.000354448
-0.000270067
-0.000128049
-0.000180215
-8.98856e-05
-0.000495518
0.000315321
-0.000136857
-0.000358646
-0.000143002
6.09741e-06
-0.000305479
0.000162493
-0.00039572
9.02729e-05
-7.95933e-05
-0.000316154
-0.000267946
0.000188335
-0.000481836
0.000213915
-0.000229627
-0.000252205
-0.000152841
0.0336849
0.0163318
-0.0372535
0.0277453
0.0133068
0.0221903
0.00920692
0.0179146
0.00605235
0.0148676
0.0040194
0.0127066
0.00278411
0.0111191
0.00203346
0.00990184
0.00155687
0.00893445
0.00123662
0.00814399
0.00101042
0.00748368
0.000844146
0.00692222
0.000717915
0.00643781
0.000619524
0.00601478
0.000541161
0.00564153
0.000477608
0.00530927
0.000425266
0.00501124
0.000381576
0.00474209
0.000344682
0.00449759
0.000313206
0.00427431
0.000286107
0.00406943
0.000262587
0.00388066
0.000242023
0.00370604
0.000223927
0.00354396
0.000207908
0.00339303
0.00019365
0.00325208
0.000180897
0.00312009
0.000169439
0.00299619
0.000159103
0.0028796
0.000149743
0.00276965
0.000141238
0.00266577
0.000133486
0.00256743
0.000126399
0.00247416
0.000119904
0.00238555
0.000113936
0.00230123
0.00010844
0.00222088
0.000103369
0.00214418
9.86812e-05
0.00207088
9.43409e-05
0.00200071
9.03168e-05
0.00193347
8.65802e-05
0.00186893
8.31081e-05
0.00180692
7.98769e-05
0.00174726
7.68701e-05
0.00168978
7.40677e-05
0.00163434
7.14584e-05
0.0015808
6.9024e-05
0.00152903
6.67588e-05
0.00147892
6.46445e-05
0.00143033
6.2681e-05
0.00138318
6.08482e-05
0.00133735
5.91528e-05
0.00129276
5.75705e-05
0.00124931
5.61163e-05
0.00120691
5.47593e-05
0.00116548
5.35249e-05
0.00112496
5.23729e-05
0.00108524
5.13414e-05
0.00104627
5.03775e-05
0.00100797
4.95352e-05
0.000970284
4.87452e-05
0.000933125
4.8081e-05
0.000896456
4.74528e-05
0.000860183
4.6957e-05
0.000824283
4.64791e-05
0.000788656
4.61425e-05
0.000753292
4.58036e-05
0.000718086
4.56163e-05
0.000683043
4.54047e-05
0.000648051
4.53543e-05
0.000613135
4.52555e-05
0.000578177
4.53235e-05
0.000543223
4.53171e-05
0.000508153
4.5477e-05
0.000473038
4.5536e-05
0.000437761
4.57465e-05
0.000402419
4.58413e-05
0.000366915
4.60353e-05
0.000331339
4.61561e-05
0.000295693
4.62036e-05
0.000259922
4.64193e-05
0.000224387
4.60416e-05
0.000188478
4.65832e-05
0.000153501
4.53401e-05
0.000117688
4.63543e-05
8.34412e-05
4.45239e-05
4.92449e-05
4.40732e-05
1.39215e-05
4.60713e-05
-1.37916e-05
3.54678e-05
-5.89675e-05
5.86709e-05
-6.64226e-05
1.0281e-05
-0.000118128
6.42953e-05
-0.000153418
5.13561e-05
-0.000128231
-4.0332e-05
-0.000253378
0.00017031
-0.00015001
-0.000141061
-0.000353908
0.000265645
-0.000200963
-0.00019127
-0.000243505
3.61405e-05
-0.000531086
0.000410344
-9.27535e-05
-0.000602075
-0.000723747
0.000847227
-0.000278887
-0.000596517
-0.00071904
0.000561152
-0.000695023
6.90123e-06
-0.000273081
-0.00059784
-0.00107789
0.00111026
-0.000143358
-0.00126209
-0.00122681
0.00143789
-0.000798735
-0.000556131
-0.000661534
-0.00022708
-0.00149587
0.00114965
-0.000412927
-0.00144159
-0.000482769
7.5965e-05
-0.000994865
0.000674578
-0.0011474
0.000242799
-0.000259418
-0.00120412
-0.00089061
0.000819533
-0.00146937
0.000792661
-0.000646788
-0.00107478
-0.000603327
0.0414557
0.0160288
-0.0411527
0.0391634
0.0155991
0.0352312
0.0131391
0.0309429
0.0103407
0.0270267
0.00793558
0.0237368
0.00607396
0.0210619
0.00470839
0.0188929
0.00372592
0.017115
0.00301451
0.0156356
0.00248979
0.0143858
0.00209399
0.0133151
0.00178856
0.0123868
0.00154789
0.0115732
0.00135473
0.0108536
0.00119719
0.010212
0.00106689
0.0096358
0.000957781
0.00911508
0.000865412
0.00864183
0.000786455
0.00820956
0.000718377
0.00781293
0.00065922
0.00744751
0.000607454
0.00710957
0.000561868
0.00679599
0.000521491
0.0065041
0.000485539
0.00623163
0.000453374
0.00597661
0.00042447
0.00573732
0.000398391
0.00551229
0.000374774
0.00530022
0.000353314
0.00509996
0.000333754
0.00491049
0.000315872
0.00473091
0.000299484
0.00456042
0.000284426
0.0043983
0.000270561
0.0042439
0.000257769
0.00409664
0.000245945
0.00395598
0.000234998
0.00382145
0.000224848
0.0036926
0.000215424
0.00356904
0.000206667
0.0034504
0.000198518
0.00333633
0.000190933
0.00322653
0.000183865
0.00312071
0.000177281
0.00301859
0.00017114
0.00291992
0.000165421
0.00282448
0.000160086
0.00273204
0.000155125
0.00264239
0.000150497
0.00255533
0.000146208
0.00247069
0.00014221
0.00238828
0.000138523
0.00230794
0.000135092
0.00222951
0.000131954
0.00215284
0.000129037
0.00207778
0.000126404
0.00200419
0.000123959
0.00193193
0.000121796
0.00186089
0.000119789
0.0017909
0.000118066
0.00172188
0.000116467
0.00165368
0.00011516
0.00158622
0.000113941
0.00151933
0.000113027
0.00145298
0.000112159
0.00138698
0.000111614
0.00132132
0.000111069
0.00125581
0.000110864
0.00119046
0.000110605
0.00112508
0.0001107
0.00105972
0.000110674
0.000994189
0.000111013
0.000928582
0.000111142
0.000862685
0.000111644
0.000796691
0.000111835
0.000730359
0.000112367
0.000663955
0.00011256
0.000597307
0.000112851
0.000530549
0.000113178
0.000464033
0.000112558
0.000396971
0.000113645
0.000331476
0.000110835
0.000264325
0.000113505
0.00020043
0.000108418
0.000135586
0.000108917
7.00229e-05
0.000111632
1.66716e-05
8.88177e-05
-6.65e-05
0.000141841
-8.1709e-05
2.54881e-05
-0.000183232
0.000165815
-0.000235682
0.000103805
-0.000211036
-6.49859e-05
-0.000419626
0.000378898
-0.000252581
-0.000308104
-0.000616369
0.000629438
-0.000331352
-0.000476277
-0.000458161
0.00016296
-0.000881219
0.000833415
-0.000170993
-0.00131229
-0.00124613
0.00192238
-0.000485514
-0.00135712
-0.00131802
0.00139366
-0.00118023
-0.000130938
-0.00055495
-0.00122313
-0.001828
0.00238331
-0.000242946
-0.00284716
-0.00214587
0.00334082
-0.00135114
-0.00135087
-0.00127434
-0.000303836
-0.00257753
0.00245284
-0.000687621
-0.0033315
-0.000909055
0.000297405
-0.00176873
0.00153425
-0.00191613
0.00039018
-0.000461603
-0.00265865
-0.00162529
0.00198323
-0.00251542
0.00168279
-0.00103088
-0.00255933
-0.0013636
0.0459182
0.0147297
-0.0446191
0.0459998
0.0155175
0.044419
0.0147199
0.0416933
0.0130664
0.0384479
0.011181
0.0351417
0.00938021
0.0320421
0.00780793
0.0292637
0.00650437
0.0268251
0.00545307
0.0247004
0.00461456
0.0228482
0.00394613
0.0212267
0.00341003
0.0197987
0.00297592
0.0185329
0.00262053
0.0174037
0.00232637
0.0163903
0.00208031
0.0154757
0.00187244
0.0146459
0.00169523
0.0138894
0.0015429
0.0131968
0.00141096
0.0125602
0.00129588
0.0119728
0.00119487
0.0114289
0.0011057
0.0109239
0.00102654
0.0104535
0.000955937
0.0100142
0.000892674
0.00960291
0.000835753
0.00921697
0.000784342
0.008854
0.000737742
0.00851195
0.000695367
0.00818899
0.000656716
0.0078835
0.000621365
0.00759404
0.000588948
0.00731932
0.000559153
0.00705817
0.000531708
0.00680956
0.000506379
0.00657254
0.00048296
0.00634627
0.000461272
0.00612995
0.000441159
0.0059229
0.000422481
0.00572444
0.000405119
0.00553399
0.000388961
0.00535101
0.000373917
0.00517497
0.000359895
0.00500542
0.00034683
0.00484192
0.000334641
0.00468406
0.000323285
0.00453145
0.000312688
0.00438375
0.000302827
0.00424061
0.00029363
0.00410173
0.000285093
0.00396679
0.000277139
0.00383552
0.00026979
0.00370766
0.000262954
0.00358292
0.000256684
0.00346109
0.000250865
0.00334191
0.000245585
0.00322517
0.000240699
0.00311062
0.00023634
0.00299809
0.000232318
0.00288733
0.000228821
0.00277819
0.000225605
0.00267043
0.000222921
0.00256392
0.000220455
0.0024584
0.00021854
0.00235379
0.000216772
0.00224982
0.000215579
0.00214644
0.000214454
0.00204337
0.00021393
0.00194061
0.000213375
0.00183786
0.000213448
0.00173518
0.000213356
0.00163226
0.000213929
0.00152926
0.000214145
0.00142582
0.00021508
0.00132225
0.000215402
0.00121814
0.000216484
0.00111394
0.000216757
0.00100928
0.000217514
0.000904513
0.00021794
0.000799944
0.000217126
0.000694654
0.000218935
0.000591563
0.000213926
0.000485918
0.00021915
0.000385425
0.00020891
0.000282683
0.000211658
0.000180231
0.000214083
9.3953e-05
0.000175094
-3.43875e-05
0.000270179
-6.1974e-05
5.30735e-05
-0.000223945
0.000327785
-0.000294409
0.000174263
-0.000280687
-7.86963e-05
-0.000578455
0.000676663
-0.000350256
-0.0005363
-0.000888939
0.00116813
-0.000462178
-0.000903026
-0.000705207
0.00040601
-0.00123794
0.00136616
-0.000257464
-0.00229275
-0.00180587
0.00347081
-0.000706896
-0.00245608
-0.00200271
0.00268949
-0.00170317
-0.000430415
-0.000918162
-0.00200813
-0.00262046
0.00408561
-0.000336299
-0.00513134
-0.0031512
0.00615572
-0.00192294
-0.00257913
-0.00202569
-0.000201178
-0.00373195
0.00415909
-0.000955644
-0.00610782
-0.00143148
0.000773245
-0.0026112
0.00271398
-0.00269671
0.000475732
-0.000686945
-0.00466841
-0.00246314
0.00375942
-0.00359396
0.00281362
-0.00136248
-0.00479081
-0.00244559
0.0493843
0.0135357
-0.0481902
0.0503471
0.0145547
0.0503641
0.0147029
0.0493406
0.0140899
0.0474944
0.0130272
0.0451182
0.0117564
0.0424838
0.0104423
0.0397978
0.00919042
0.0371949
0.00805598
0.0347496
0.00705986
0.0324941
0.00620165
0.0304343
0.00546986
0.0285617
0.00484849
0.0268614
0.00432085
0.0253162
0.00387156
0.0239092
0.0034873
0.0226247
0.00315692
0.0214487
0.00287127
0.0203687
0.00262289
0.0193739
0.00240572
0.018455
0.00221482
0.0176037
0.00204615
0.016813
0.00189642
0.0160767
0.00176289
0.0153893
0.00164331
0.0147462
0.00153581
0.0141431
0.00143879
0.0135765
0.00135094
0.0130431
0.00127114
0.0125401
0.00119844
0.0120648
0.00113201
0.011615
0.00107116
0.0111887
0.0010153
0.0107839
0.000963889
0.0103991
0.000916489
0.0100328
0.000872702
0.00968359
0.000832186
0.00935022
0.000794636
0.00903159
0.000759789
0.00872666
0.000727408
0.00843449
0.000697291
0.0081542
0.000669248
0.00788499
0.000643124
0.00762612
0.000618763
0.00737689
0.000596051
0.00713668
0.000574854
0.00690487
0.000555091
0.00668091
0.000536644
0.00646427
0.000519464
0.00625447
0.000503434
0.00605102
0.00048854
0.00585349
0.00047466
0.00566146
0.000461816
0.00547455
0.000449868
0.00529235
0.000438883
0.00511451
0.000428693
0.00494068
0.000419416
0.00477054
0.00041084
0.00460373
0.000403147
0.00443998
0.000396066
0.00427894
0.000389857
0.00412037
0.00038417
0.00396393
0.00037936
0.00380942
0.000374974
0.00365647
0.000371485
0.00350493
0.000368313
0.00335444
0.000366069
0.00320488
0.000364016
0.00305588
0.000362929
0.00290738
0.000361873
0.002759
0.000361828
0.00261077
0.000361589
0.00246227
0.000362434
0.00231367
0.000362742
0.00216448
0.000364267
0.00201512
0.000364762
0.00186496
0.000366642
0.0017147
0.000367019
0.00156369
0.000368526
0.00141257
0.000369055
0.00126154
0.000368161
0.00110959
0.000370884
0.000960443
0.000363071
0.000807778
0.000371815
0.000662297
0.00035439
0.000512998
0.000360956
0.000365498
0.000361582
0.000237651
0.00030294
5.66465e-05
0.000451181
1.06775e-05
9.90415e-05
-0.000225092
0.000563553
-0.000315302
0.000264468
-0.000325385
-6.86421e-05
-0.000717695
0.00106897
-0.000433093
-0.000820899
-0.00116122
0.00189626
-0.000587154
-0.00147708
-0.0009791
0.000797982
-0.00159389
0.00198095
-0.000350519
-0.00353609
-0.00239259
0.0055129
-0.000936577
-0.00391207
-0.00276759
0.00452052
-0.00226323
-0.000934786
-0.00137242
-0.00289894
-0.00344692
0.0061601
-0.000420751
-0.00815753
-0.00422725
0.00996222
-0.00250382
-0.00430256
-0.00292144
0.0002166
-0.00494199
0.00617964
-0.00121876
-0.00983106
-0.0020529
0.0016074
-0.00350627
0.00416735
-0.00348084
0.000450187
-0.000936028
-0.00721322
-0.0033852
0.0062086
-0.00466928
0.0040977
-0.00161905
-0.00784104
-0.00386075
0.0528425
0.0126378
-0.0519446
0.0538704
0.0135268
0.0545534
0.0140199
0.0546214
0.0140219
0.0540217
0.0136269
0.0528236
0.0129545
0.0511565
0.0121094
0.0491668
0.0111801
0.0469894
0.0102334
0.0447347
0.00931456
0.042485
0.00845133
0.0402964
0.00765845
0.0382035
0.00694142
0.0362247
0.00629964
0.0343674
0.00572885
0.0326318
0.00522291
0.0310138
0.00477496
0.0295069
0.00437819
0.0281035
0.00402622
0.026796
0.00371331
0.0255764
0.00343439
0.0244375
0.00318504
0.0233724
0.00296146
0.022375
0.00276036
0.0214393
0.00257895
0.0205604
0.00241481
0.0197333
0.00226587
0.0189539
0.00213035
0.0182183
0.00200674
0.017523
0.0018937
0.016865
0.00179008
0.0162412
0.0016949
0.0156492
0.00160728
0.0150867
0.00152648
0.0145513
0.00145182
0.0140413
0.00138272
0.0135548
0.00131869
0.0130902
0.00125925
0.012646
0.00120402
0.0122207
0.00115263
0.0118132
0.00110478
0.0114223
0.00106018
0.0110468
0.00101859
0.0106858
0.000979774
0.0103383
0.000943548
0.0100035
0.000909714
0.00968041
0.00087814
0.00936841
0.000848647
0.00906672
0.000821151
0.00877467
0.000795481
0.00849161
0.000771601
0.00821693
0.000749335
0.00795005
0.000728698
0.00769042
0.000709496
0.00743749
0.000691804
0.00719079
0.00067539
0.0069498
0.000660403
0.00671409
0.000646551
0.00648316
0.000634074
0.00625662
0.000622598
0.00603401
0.000612471
0.00581496
0.000603213
0.00559902
0.000595303
0.00538587
0.000588119
0.00517505
0.000582304
0.00496631
0.000577058
0.00475916
0.000573221
0.0045534
0.00056977
0.00434855
0.000567779
0.00414449
0.000565935
0.0039407
0.000565619
0.00373719
0.000565101
0.00353338
0.000566238
0.0033295
0.000566626
0.00312485
0.000568913
0.00291998
0.000569633
0.00271401
0.000572609
0.00250789
0.000573141
0.00230066
0.000575756
0.00209329
0.000576421
0.0018858
0.000575649
0.00167718
0.000579509
0.0014719
0.000568346
0.00126207
0.000581654
0.00106156
0.000554898
0.000855372
0.00056714
0.000653021
0.000563931
0.000473162
0.000482798
0.000230889
0.000693451
0.000148604
0.000181325
-0.000166812
0.000878968
-0.000278694
0.000376345
-0.000328999
-1.8329e-05
-0.000820479
0.00156045
-0.000487383
-0.00115399
-0.0014186
0.00282748
-0.000695863
-0.00219981
-0.00127054
0.00137269
-0.00193891
0.00264932
-0.000447505
-0.00502747
-0.00299131
0.00805673
-0.00116552
-0.00573785
-0.00360044
0.00695546
-0.00285609
-0.00167912
-0.0019263
-0.00382872
-0.00429828
0.00853206
-0.000496689
-0.0119591
-0.00535032
0.0148159
-0.00307907
-0.00657383
-0.00395983
0.00109725
-0.00618786
0.00840767
-0.00148449
-0.0145344
-0.00276994
0.00289287
-0.00443406
0.00583146
-0.00425912
0.000275483
-0.00120603
-0.0102663
-0.00435956
0.00936215
-0.00569785
0.00543598
-0.00177574
-0.0117631
-0.00562151
0.0565626
0.011951
-0.0558758
0.0574158
0.0126736
0.0582119
0.0132238
0.058738
0.0134958
0.058872
0.0134929
0.058568
0.0132585
0.0578353
0.012842
0.056722
0.0122934
0.0552965
0.011659
0.0536341
0.0109769
0.0518084
0.010277
0.0498847
0.00958213
0.0479177
0.00890846
0.0459503
0.00826702
0.0440147
0.00766454
0.0421331
0.00710443
0.0403205
0.00658765
0.0385853
0.00611339
0.0369317
0.00567973
0.035361
0.00528407
0.0338719
0.00492348
0.032462
0.00459494
0.031128
0.0042955
0.029866
0.00402236
0.028672
0.00377292
0.027542
0.00354483
0.0264719
0.00333594
0.025458
0.00314433
0.0244964
0.00296829
0.0235838
0.00280629
0.0227169
0.00265698
0.0218927
0.00251913
0.0211083
0.00239169
0.0203611
0.00227368
0.0196486
0.00216427
0.0189687
0.00206269
0.0183191
0.00196827
0.0176979
0.00188042
0.0171034
0.00179858
0.0165337
0.00172228
0.0159874
0.00165109
0.0154629
0.00158462
0.014959
0.00152253
0.0144743
0.00146449
0.0140076
0.00141024
0.0135578
0.00135951
0.0131238
0.0013121
0.0127047
0.00126777
0.0122995
0.00122638
0.0119073
0.0011877
0.0115272
0.00115167
0.0111585
0.00111804
0.0108004
0.00108682
0.0104521
0.00105774
0.010113
0.00103091
0.0097824
0.00100599
0.00945962
0.00098318
0.00914408
0.00096209
0.00883512
0.000943024
0.00853223
0.000925487
0.00823477
0.000909932
0.00794226
0.000895718
0.00765409
0.000883476
0.00736983
0.000872378
0.00708886
0.000863273
0.00681082
0.000855094
0.00653508
0.00084896
0.00626136
0.000843495
0.005989
0.000840143
0.00571781
0.000837121
0.00544712
0.000836314
0.00517689
0.00083533
0.00490637
0.000836757
0.0046358
0.000837197
0.00436427
0.000840442
0.00409245
0.000841456
0.00381917
0.000845888
0.00354564
0.000846667
0.00327055
0.000850844
0.00299524
0.000851732
0.00271949
0.0008514
0.00244232
0.000856675
0.00216896
0.00084171
0.00188989
0.00086072
0.00162237
0.000822425
0.00134699
0.00084251
0.00107803
0.000832893
0.00083361
0.000727218
0.000518579
0.00100848
0.000389289
0.000310614
-2.58785e-05
0.00129413
-0.00015746
0.000507919
-0.000270121
9.43216e-05
-0.000864045
0.00215437
-0.000494205
-0.00152383
-0.00164115
0.00397443
-0.000772529
-0.00306842
-0.00156461
0.00216481
-0.00225964
0.00334435
-0.000543888
-0.0067432
-0.00358317
0.011096
-0.0013811
-0.0079399
-0.00448088
0.0100553
-0.00347266
-0.00268733
-0.00258409
-0.00471727
-0.00516697
0.0111149
-0.000569728
-0.0165564
-0.00649116
0.0207373
-0.00362935
-0.00943565
-0.00512645
0.00259443
-0.00744924
0.0107304
-0.00176792
-0.0202158
-0.00357177
0.00469674
-0.00537237
0.00763205
-0.00502172
-7.57456e-05
-0.0014885
-0.0137995
-0.00534009
0.0132138
-0.00662871
0.00672459
-0.00180494
-0.0165869
-0.00778367
0.0605679
0.011388
-0.0600048
0.0612521
0.0119894
0.0619664
0.0125095
0.062588
0.0128741
0.0630195
0.0130615
0.0631967
0.0130812
0.0630842
0.0129545
0.0626714
0.0127062
0.0619687
0.0123618
0.0610006
0.011945
0.0598016
0.011476
0.0584114
0.0109723
0.0568712
0.0104486
0.0552211
0.00991708
0.0534981
0.00938757
0.0517345
0.00886802
0.0499577
0.00836447
0.0481897
0.00788133
0.0464479
0.00742159
0.044745
0.00698699
0.0430902
0.0065783
0.0414896
0.00619553
0.039947
0.0058381
0.0384643
0.00550506
0.037042
0.0051952
0.0356797
0.00490715
0.0343761
0.00463952
0.0331295
0.00439089
0.031938
0.00415986
0.0307991
0.00394513
0.0297107
0.00374544
0.0286702
0.00355963
0.0276753
0.00338661
0.0267236
0.00322539
0.0258128
0.00307505
0.0249407
0.00293477
0.0241052
0.00280377
0.0233043
0.00268136
0.0225359
0.0025669
0.0217984
0.00245982
0.0210899
0.0023596
0.0204088
0.00226574
0.0197534
0.00217784
0.0191224
0.00209548
0.0185144
0.00201832
0.0179279
0.00194601
0.0173617
0.00187829
0.0168146
0.00181486
0.0162854
0.00175553
0.0157732
0.00169999
0.0152767
0.00164815
0.014795
0.00159971
0.0143271
0.00155465
0.0138722
0.00151264
0.0134294
0.00147378
0.0129977
0.00143765
0.0125764
0.00140451
0.0121646
0.00137382
0.0117617
0.001346
0.0113668
0.00132039
0.0109791
0.00129756
0.0105981
0.00127671
0.010223
0.00125862
0.00985313
0.00124223
0.00948776
0.00122865
0.00912639
0.00121646
0.0087682
0.00120715
0.0084128
0.00119889
0.00805935
0.0011936
0.00770757
0.0011889
0.00735658
0.00118731
0.0070063
0.00118561
0.00665575
0.00118731
0.00630518
0.00118776
0.00595343
0.0011922
0.00560128
0.00119361
0.00524722
0.00119994
0.00489276
0.00120113
0.00453616
0.00120745
0.00417916
0.00120873
0.00382125
0.00120931
0.00346155
0.00121638
0.00310596
0.0011973
0.00274339
0.00122328
0.00239458
0.00117123
0.00203542
0.00120168
0.00168577
0.00118254
0.00136175
0.00105123
0.000960572
0.00140965
0.000769111
0.000502074
0.000256217
0.00180703
7.85836e-05
0.000685545
-0.000121392
0.00029433
-0.000817974
0.00285094
-0.000427992
-0.0019138
-0.00180213
0.00534858
-0.000794185
-0.00407635
-0.001839
0.00320967
-0.00253805
0.0040434
-0.00063186
-0.00864936
-0.00414543
0.0146096
-0.0015671
-0.0105182
-0.00537859
0.0138668
-0.00409633
-0.00396958
-0.00334159
-0.00547199
-0.00604695
0.0138203
-0.000652256
-0.0219511
-0.00761718
0.0277022
-0.00413027
-0.0129226
-0.00638849
0.00485266
-0.00870496
0.0130469
-0.0020916
-0.0268292
-0.00443926
0.00704442
-0.00629728
0.00949006
-0.00575625
-0.000616227
-0.00176674
-0.017789
-0.00626486
0.0177119
-0.00740298
0.0078627
-0.00167446
-0.0223154
-0.0104012
0.0648521
0.0109036
-0.0643676
0.0654173
0.0114241
0.0660247
0.011902
0.0666092
0.0122896
0.0671081
0.0125626
0.0674729
0.0127164
0.0676683
0.0127592
0.0676702
0.0127043
0.0674654
0.0125665
0.0670499
0.0123605
0.0664273
0.0120987
0.0656081
0.0117916
0.0646081
0.0114486
0.0634472
0.011078
0.0621481
0.0106867
0.0607349
0.0102812
0.059232
0.00986742
0.0576627
0.00945062
0.0560488
0.00903547
0.0544098
0.00862601
0.0527625
0.00822562
0.051121
0.00783698
0.049497
0.00746213
0.0478996
0.0071025
0.0463358
0.00675899
0.0448109
0.00643209
0.0433285
0.00612191
0.0418911
0.00582827
0.0405001
0.00555083
0.0391562
0.00528905
0.0378594
0.00504232
0.036609
0.00480996
0.0354044
0.00459126
0.0342443
0.00438548
0.0331274
0.00419192
0.0320523
0.00400987
0.0310174
0.00383865
0.0300212
0.00367763
0.0290619
0.00352618
0.028138
0.00338374
0.0272478
0.00324977
0.0263898
0.00312375
0.0255624
0.00300525
0.0247641
0.00289379
0.0239933
0.00278902
0.0232488
0.00269053
0.0225291
0.00259802
0.0218329
0.00251111
0.0211588
0.00242961
0.0205056
0.00235314
0.0198722
0.0022816
0.0192573
0.0022146
0.0186598
0.00215214
0.0180786
0.00209378
0.0175127
0.00203968
0.0169611
0.0019893
0.0164226
0.00194295
0.0158965
0.00189998
0.0153816
0.0018609
0.0148771
0.00182488
0.014382
0.00179265
0.0138955
0.00176317
0.0134167
0.00173746
0.0129447
0.00171416
0.0124787
0.00169467
0.012018
0.0016772
0.0115615
0.00166365
0.0111087
0.00165167
0.0106586
0.00164373
0.0102107
0.00163674
0.00976401
0.00163402
0.00931831
0.00163131
0.00887235
0.00163327
0.00842642
0.0016337
0.00797899
0.00163962
0.00753101
0.00164159
0.00708056
0.00165039
0.00662944
0.00165225
0.00617542
0.00166147
0.00572068
0.00166347
0.00526436
0.00166563
0.00480571
0.00167503
0.00435129
0.00165172
0.00388842
0.00168615
0.00344145
0.0016182
0.0029812
0.00166193
0.0025341
0.00162963
0.00211255
0.00147278
0.00160932
0.00191289
0.00133685
0.00077454
0.00070915
0.00243473
0.000454109
0.000940577
0.000170569
0.00057786
-0.000641756
0.00366326
-0.000254466
-0.00230109
-0.0018662
0.00696032
-0.000728211
-0.00521433
-0.00206198
0.00454348
-0.00274911
0.00473053
-0.000698304
-0.0107001
-0.00465111
0.0185624
-0.00170304
-0.0134663
-0.00625272
0.0184165
-0.00470023
-0.00552206
-0.00418077
-0.00599143
-0.00693171
0.0165712
-0.000763712
-0.0281192
-0.00869576
0.0356343
-0.00455247
-0.0170659
-0.00768935
0.00798958
-0.00993011
0.0152877
-0.00248248
-0.0342768
-0.00534437
0.00990633
-0.00718435
0.01133
-0.00644391
-0.00135688
-0.00201294
-0.02222
-0.00705562
0.0227546
-0.00795219
0.00875926
-0.0013436
-0.028924
-0.0135657
0.069424
0.0104761
-0.0689966
0.0699074
0.0109408
0.0704277
0.0113817
0.0709493
0.0117681
0.0714325
0.0120794
0.0718435
0.0123054
0.0721563
0.0124464
0.0723516
0.012509
0.0724151
0.012503
0.0723369
0.0124387
0.0721101
0.0123255
0.0717309
0.0121708
0.0711986
0.0119809
0.0705156
0.011761
0.0696873
0.0115149
0.0687223
0.0112463
0.0676316
0.0109581
0.0664286
0.0106536
0.0651284
0.0103357
0.0637467
0.0100077
0.0622995
0.00967276
0.0608026
0.00933393
0.0592706
0.00899416
0.0577169
0.00865614
0.0561537
0.00832224
0.0545913
0.0079945
0.0530386
0.00767458
0.0515031
0.00736382
0.0499907
0.00706324
0.0485062
0.00677354
0.0470533
0.00649521
0.0456347
0.0062285
0.0442525
0.00597348
0.0429079
0.00573011
0.0416016
0.00549823
0.0403339
0.00527757
0.0391047
0.00506786
0.0379136
0.00486872
0.03676
0.0046798
0.035643
0.00450069
0.0345618
0.00433101
0.0335152
0.00417035
0.0325021
0.00401836
0.0315212
0.00387461
0.0305715
0.00373879
0.0296515
0.0036105
0.02876
0.00348949
0.0278958
0.00337536
0.0270575
0.00326792
0.0262438
0.00316677
0.0254536
0.00307181
0.0246856
0.00298262
0.0239385
0.00289921
0.0232112
0.00282109
0.0225024
0.00274844
0.0218111
0.00268064
0.021136
0.00261808
0.020476
0.00255996
0.0198299
0.00250693
0.0191969
0.00245795
0.0185755
0.00241399
0.017965
0.00237369
0.0173641
0.0023384
0.0167719
0.00230635
0.0161872
0.00227938
0.0156092
0.00225518
0.0150366
0.00223621
0.0144689
0.00221943
0.0139045
0.00220806
0.0133432
0.00219812
0.0127833
0.00219388
0.0122248
0.00218985
0.0116659
0.00219209
0.0111071
0.00219252
0.0105464
0.00220033
0.00998486
0.00220313
0.00942009
0.00221516
0.00885422
0.00221812
0.00828445
0.00223123
0.00771343
0.00223449
0.00713988
0.00223918
0.00656318
0.00225173
0.00599056
0.00222434
0.0054077
0.00226901
0.00484276
0.00218313
0.00426106
0.00224363
0.00369665
0.00219404
0.00315628
0.00201315
0.00253206
0.0025371
0.00215581
0.00115079
0.00139477
0.00319577
0.00104576
0.00128958
0.000663866
0.00095976
-0.000280078
0.0046072
7.25756e-05
-0.00265373
-0.00178725
0.00882015
-0.00052846
-0.0064731
-0.00219013
0.0062052
-0.00285745
0.00539785
-0.000721856
-0.0128357
-0.00506753
0.0229081
-0.0017631
-0.0167707
-0.00705144
0.0237048
-0.00524378
-0.00732972
-0.0050638
-0.00617137
-0.00780915
0.0193165
-0.000927787
-0.0350005
-0.00969628
0.0444028
-0.00486181
-0.0219004
-0.00894498
0.0120728
-0.0110894
0.017432
-0.0029639
-0.0424023
-0.00624899
0.0131915
-0.00800822
0.0130893
-0.00705496
-0.00231007
-0.00218539
-0.0270895
-0.00761783
0.028187
-0.00819491
0.00933632
-0.000756356
-0.0363626
-0.0174131
0.0743033
0.0100932
-0.0739203
0.0747275
0.0105166
0.075182
0.0109272
0.0756459
0.0113041
0.0760936
0.0116318
0.0765003
0.0118987
0.0768463
0.0121004
0.077117
0.0122383
0.077302
0.012318
0.0773939
0.0123467
0.0773871
0.0123323
0.0772762
0.0122816
0.0770571
0.0122001
0.0767258
0.0120923
0.0762792
0.0119616
0.0757153
0.0118101
0.0750341
0.0116394
0.074237
0.0114506
0.0733282
0.0112445
0.0723136
0.0110223
0.0712011
0.0107852
0.0700003
0.0105348
0.0687217
0.0102727
0.0673768
0.0100011
0.0659771
0.00972194
0.0645341
0.00943748
0.0630588
0.00914986
0.0615616
0.00886111
0.0600517
0.00857314
0.0585376
0.00828764
0.0570267
0.0080061
0.0555254
0.0077298
0.0540391
0.0074598
0.0525723
0.00719693
0.0511286
0.00694187
0.0497111
0.00669511
0.0483219
0.00645701
0.0469628
0.00622778
0.0456351
0.00600756
0.0443394
0.00579636
0.0430762
0.00559419
0.0418457
0.00540092
0.0406476
0.00521645
0.0394816
0.00504059
0.0383471
0.00487321
0.0372436
0.00471403
0.0361702
0.00456294
0.0351259
0.00441961
0.0341099
0.00428397
0.033121
0.00415563
0.0321582
0.00403461
0.0312204
0.00392043
0.0303064
0.00381324
0.029415
0.00371246
0.028545
0.0036184
0.0276953
0.00353033
0.0268646
0.00344879
0.0260518
0.00337282
0.0252554
0.00330326
0.0244745
0.00323886
0.0237077
0.00318085
0.0229538
0.00312754
0.0222115
0.00308067
0.0214798
0.00303803
0.0207573
0.00300196
0.0200429
0.00296956
0.0193351
0.00294395
0.0186333
0.0029213
0.0179356
0.00290574
0.0172416
0.00289216
0.0165493
0.0028861
0.0158587
0.0028805
0.0151676
0.00288318
0.0144764
0.00288374
0.0137826
0.00289406
0.0130876
0.00289816
0.0123883
0.00291444
0.0116872
0.00291922
0.0109809
0.00293754
0.0102725
0.00294296
0.00956014
0.0029515
0.00884342
0.00296845
0.00813028
0.00293749
0.00740459
0.00299469
0.00669862
0.00288911
0.00597166
0.00297058
0.00526659
0.00289911
0.00458231
0.00269743
0.00381464
0.00330477
0.00330743
0.00165799
0.00239218
0.00411101
0.00192439
0.00175736
0.00141414
0.00147002
0.000318809
0.00570252
0.000612055
-0.00294697
-0.00150583
0.010938
-0.000122044
-0.00785687
-0.00216584
0.00824904
-0.00281282
0.00604482
-0.000669107
-0.0149794
-0.00535319
0.0275922
-0.00171357
-0.0204103
-0.0077116
0.0297029
-0.00566909
-0.00937222
-0.00592747
-0.00591296
-0.0086528
0.0220418
-0.00116499