/*--------------------------------*- C++ -*----------------------------------*\
| =========                 |                                                 |
| \\      /  F ield         | OpenFOAM: The Open Source CFD Toolbox           |
|  \\    /   O peration     | Version:  2412                                  |
|   \\  /    A nd           | Website:  www.openfoam.com                      |
|    \\/     M anipulation  |                                                 |
\*---------------------------------------------------------------------------*/
FoamFile
{
    version     2.0;
    format      ascii;
    arch        "LSB;label=32;scalar=64";
    class       volVectorField;
    location    "1.115";
    object      U;
}
// * * * * * * * * * * * * * * * * * * * * * * * * * * * * * * * * * * * * * //

dimensions      [0 1 -1 0 0 0 0];

internalField   nonuniform List<vector> 
12600
(
(18.7289 1.22554e-21 2.09259)
(11.6139 1.6069e-20 0.450393)
(7.34876 1.88979e-20 -0.477844)
(5.08861 0 -0.709089)
(3.97626 1.70825e-20 -0.682201)
(3.33581 1.59081e-20 -0.607533)
(2.89469 0 -0.539874)
(2.56352 0 -0.484444)
(2.30391 -4.7813e-20 -0.438994)
(2.09376 0 -0.401254)
(1.91936 2.00519e-20 -0.369381)
(1.77178 1.83591e-20 -0.342048)
(1.64492 -1.68174e-20 -0.318306)
(1.53445 0 -0.297459)
(1.43717 -1.40926e-20 -0.278983)
(1.35071 0 -0.262476)
(1.27324 4.73438e-20 -0.247623)
(1.20332 0 -0.234173)
(1.13983 -1.98093e-20 -0.221926)
(1.08185 -1.81143e-20 -0.210717)
(1.02865 1.6533e-20 -0.200412)
(0.979622 5.45733e-24 -0.1909)
(0.934252 0 -0.182086)
(0.892116 -2.49257e-20 -0.173892)
(0.852855 0 -0.16625)
(0.816162 0 -0.159103)
(0.781774 -1.84628e-20 -0.152401)
(0.749464 0 -0.1461)
(0.719032 4.02788e-24 -0.140164)
(0.690307 1.33246e-20 -0.134559)
(0.663137 1.18563e-20 -0.129256)
(0.637387 1.04963e-20 -0.124229)
(0.612939 -9.23697e-21 -0.119456)
(0.589686 -1.61427e-20 -0.114917)
(0.567535 -1.39858e-20 -0.110592)
(0.546401 1.19807e-20 -0.106465)
(0.526206 0 -0.102523)
(0.506882 -8.44622e-21 -0.0987507)
(0.488366 0 -0.0951366)
(0.470602 5.42771e-21 -0.0916696)
(0.453536 0 -0.0883395)
(0.437123 1.74681e-23 -0.0851372)
(0.421317 0 -0.0820541)
(0.406079 1.59031e-23 -0.0790823)
(0.391371 -5.00599e-22 -0.0762146)
(0.37716 2.21978e-21 -0.0734445)
(0.363413 -3.8169e-21 -0.0707654)
(0.350102 0 -0.068172)
(0.337197 0 -0.0656583)
(0.324676 -7.75852e-21 -0.0632199)
(0.31251 -1.76658e-20 -0.0608515)
(0.300681 -1.96018e-20 -0.0585494)
(0.289164 1.93952e-23 -0.0563086)
(0.277945 -2.28733e-20 -0.0541263)
(0.266997 0 -0.0519975)
(0.256311 2.54905e-20 -0.0499203)
(0.245863 2.65595e-20 -0.0478897)
(0.235645 2.74751e-20 -0.0459046)
(0.225634 0 -0.0439601)
(0.215826 0 -0.0420557)
(0.206195 0 -0.0401861)
(0.196744 -5.99909e-20 -0.0383521)
(0.187445 0 -0.036548)
(0.178305 0 -0.0347753)
(0.169295 1.23266e-19 -0.0330281)
(0.160426 0 -0.0313088)
(0.151669 0 -0.0296115)
(0.143037 0 -0.0279388)
(0.134503 -1.23362e-19 -0.0262856)
(0.12608 1.22764e-19 -0.0246541)
(0.117751 1.21947e-19 -0.023041)
(0.109516 2.33561e-23 -0.0214463)
(0.101384 -1.19732e-19 -0.0198718)
(0.0933222 0 -0.018311)
(0.0853993 1.16832e-19 -0.0167771)
(0.0775004 0 -0.015248)
(0.0698212 0 -0.0137613)
(0.0620822 0 -0.0122631)
(0.054702 2.84648e-23 -0.0108341)
(0.0471429 2.1443e-19 -0.00937054)
(0.0400998 2.09954e-19 -0.00800628)
(0.0328412 -2.0524e-19 -0.00660037)
(0.0260313 -2.00422e-19 -0.00528084)
(0.0194669 0 -0.00400809)
(0.0124773 0 -0.00265409)
(0.00725569 3.70542e-19 -0.00163812)
(-8.1868e-05 -7.19094e-19 -0.000218173)
(-0.00464391 6.98465e-19 0.000671034)
(-0.00919137 3.38203e-19 0.00155792)
(-0.0208554 0 0.00375388)
(-0.00774557 -6.36792e-19 0.00132679)
(-0.042348 3.01028e-19 0.00793177)
(-0.0118196 -2.9932e-19 0.0019893)
(-0.0391173 5.5701e-19 0.00745433)
(-0.0453763 0 0.00826156)
(-0.0045125 0 0.0011611)
(-0.119786 0 0.022478)
(0.0668813 0 -0.0126921)
(-0.154387 0 0.029581)
(0.00855305 0 -0.00264)
(-0.0447609 -3.88065e-19 0.00957336)
(-0.157168 -8.35098e-19 0.0289221)
(0.0826127 -7.99711e-19 -0.0150395)
(-0.299905 0 0.0570352)
(0.136146 0 -0.0261299)
(-0.221707 0 0.0434024)
(-0.0361307 -7.31753e-19 0.0052618)
(-0.0125158 -1.14244e-18 0.00374947)
(-0.288057 5.99399e-19 0.0541323)
(0.101279 0 -0.0192253)
(-0.265773 -9.91093e-19 0.0514507)
(-0.0660963 0 0.0112564)
(-0.0438411 -9.89559e-19 0.008507)
(-0.0488609 9.55661e-19 0.0097501)
(-0.178233 -8.56145e-19 0.0338965)
(-0.064396 -9.11423e-19 0.011308)
(0.00659761 8.16109e-19 -0.000688857)
(-0.180928 -2.47051e-23 0.0346016)
(-0.109361 7.47812e-19 0.0201901)
(-0.0243413 0 0.00423329)
(29.1344 -1.23718e-21 4.02284)
(25.0934 0 1.85637)
(20.2346 -1.91267e-20 -0.214429)
(16.0713 0 -1.21231)
(13.114 -1.73095e-20 -1.5076)
(11.0727 -3.03912e-20 -1.51856)
(9.60143 -1.40674e-20 -1.44097)
(8.49007 0 -1.34342)
(7.61767 3.5587e-22 -1.2481)
(6.91148 -2.18704e-20 -1.16107)
(6.32589 2.00797e-20 -1.08303)
(5.83089 1.84333e-20 -1.01325)
(5.40588 -1.69194e-20 -0.950718)
(5.03622 1.55266e-20 -0.894463)
(4.71115 2.85443e-20 -0.843624)
(4.42262 0 -0.797469)
(4.16441 -6.47196e-23 -0.755378)
(3.93172 2.19243e-20 -0.716831)
(3.72069 2.00975e-20 -0.681389)
(3.52827 0 -0.648681)
(3.35192 0 -0.618391)
(3.1896 1.52793e-20 -0.590251)
(3.03959 0 -0.564032)
(2.90045 1.26355e-20 -0.539533)
(2.77095 -2.29096e-20 -0.516584)
(2.65007 0 -0.495035)
(2.53692 1.8713e-20 -0.474755)
(2.43072 0 -0.45563)
(2.33081 -1.51023e-20 -0.437557)
(2.23661 -2.69942e-20 -0.420449)
(2.1476 -2.40154e-20 -0.404223)
(2.06334 -1.06242e-20 -0.38881)
(1.98342 9.34691e-21 -0.374146)
(1.90749 3.26778e-20 -0.360174)
(1.83523 2.83055e-20 -0.346841)
(1.76636 0 -0.334101)
(1.70062 0 -0.321912)
(1.63777 -1.72327e-23 -0.310235)
(1.57761 0 -0.299035)
(1.51995 -5.4795e-21 -0.28828)
(1.46461 0 -0.27794)
(1.41144 -5.78449e-21 -0.267988)
(1.36028 0 -0.258398)
(1.31101 -1.42153e-21 -0.249149)
(1.26349 0 -0.240218)
(1.21763 -2.23518e-21 -0.231586)
(1.1733 0 -0.223233)
(1.13042 0 -0.215144)
(1.08888 6.57234e-21 -0.2073)
(1.04862 0 -0.199688)
(1.00953 0 -0.192293)
(0.97156 0 -0.185102)
(0.934625 2.13871e-20 -0.178101)
(0.898673 4.58324e-20 -0.171282)
(0.863626 0 -0.164628)
(0.829444 0 -0.158136)
(0.796051 -2.65351e-20 -0.151787)
(0.763421 -2.74738e-20 -0.145581)
(0.731476 0 -0.139501)
(0.700203 0 -0.133546)
(0.669521 0 -0.1277)
(0.639432 0 -0.121965)
(0.60985 -6.04367e-20 -0.116323)
(0.580792 6.09373e-20 -0.110779)
(0.552167 -1.22564e-19 -0.105315)
(0.524007 0 -0.0999387)
(0.496218 0 -0.0946301)
(0.46884 0 -0.0893999)
(0.441788 4.71756e-23 -0.0842288)
(0.415098 -1.2159e-19 -0.0791272)
(0.388714 -1.20671e-19 -0.0740812)
(0.362638 2.39074e-19 -0.0690946)
(0.336891 3.57309e-23 -0.0641686)
(0.311374 -1.16757e-19 -0.0592873)
(0.286288 -1.15169e-19 -0.0544867)
(0.261294 0 -0.0497041)
(0.236968 0 -0.0450488)
(0.212478 0 -0.0403613)
(0.189076 2.1475e-19 -0.0358842)
(0.165138 0 -0.0313005)
(0.142785 0 -0.0270276)
(0.119736 2.00872e-19 -0.0226113)
(0.098153 1.95947e-19 -0.0184906)
(0.0771414 0 -0.0144632)
(0.0551116 0 -0.0102558)
(0.0381306 0 -0.00701555)
(0.014971 6.99921e-19 -0.00256095)
(0.000409105 -4.44128e-23 0.000151858)
(-0.0152918 3.28447e-19 0.00330111)
(-0.0490485 -3.16755e-19 0.00948463)
(-0.014901 6.17143e-19 0.00320064)
(-0.115424 2.91371e-19 0.0225077)
(-0.026008 5.789e-19 0.00454988)
(-0.11277 0 0.0226698)
(-0.12308 0 0.0225175)
(-0.0181345 0 0.00520053)
(-0.338558 0 0.0638527)
(0.189259 4.95912e-19 -0.0363676)
(-0.45782 0 0.0900885)
(0.0473343 0 -0.0128111)
(-0.153866 -3.72275e-19 0.0342516)
(-0.434538 3.99943e-19 0.0801139)
(0.216942 1.53093e-18 -0.0389976)
(-0.873494 -6.36883e-19 0.168192)
(0.4011 0 -0.079571)
(-0.683795 0 0.136169)
(-0.0585964 0 0.00562662)
(-0.0742029 5.44166e-19 0.0201206)
(-0.813165 -5.70451e-19 0.154098)
(0.284756 0 -0.055702)
(-0.813122 1.88328e-18 0.16001)
(-0.151797 1.04364e-18 0.0241286)
(-0.145626 1.87738e-18 0.028019)
(-0.157313 0 0.0323004)
(-0.513124 0 0.0994154)
(-0.162563 -8.62342e-19 0.0275333)
(-0.00474025 0 0.00306337)
(-0.535397 -7.21379e-19 0.104768)
(-0.296807 -7.06117e-19 0.0543479)
(-0.0565919 0 0.00936317)
(31.8777 0 3.89362)
(31.0639 0 2.81619)
(28.5357 -1.29553e-20 1.0217)
(25.1952 0 -0.384176)
(21.9461 0 -1.22744)
(19.1758 1.51079e-20 -1.65178)
(16.9198 1.33219e-20 -1.81986)
(15.0966 0 -1.85137)
(13.6105 4.20539e-22 -1.81763)
(12.3815 2.07193e-20 -1.75514)
(11.349 -3.78376e-20 -1.68137)
(10.469 -1.74654e-20 -1.60469)
(9.70917 1.14576e-22 -1.52906)
(9.04574 -1.47126e-20 -1.45633)
(8.4608 -1.34975e-20 -1.38731)
(7.94065 1.23275e-20 -1.32223)
(7.47462 -2.26865e-20 -1.2611)
(7.05431 -2.07764e-20 -1.20375)
(6.67299 0 -1.14995)
(6.3252 0 -1.09948)
(6.00649 1.58403e-20 -1.05208)
(5.71316 1.44469e-20 -1.0075)
(5.44215 0 -0.965539)
(5.19085 0 -0.925973)
(4.95709 2.17082e-20 -0.888614)
(4.73899 0 -0.853289)
(4.53493 -3.54564e-20 -0.819838)
(4.34352 1.59553e-20 -0.788118)
(4.16356 0 -0.757997)
(3.99398 1.27902e-20 -0.729357)
(3.83386 1.13791e-20 -0.702089)
(3.68237 0 -0.676094)
(3.53878 -8.86732e-21 -0.651282)
(3.40245 -1.54847e-20 -0.627572)
(3.27281 1.20091e-23 -0.604889)
(3.14932 0 -0.583163)
(3.03152 0 -0.562331)
(2.91899 8.09695e-21 -0.542336)
(2.81135 0 -0.523123)
(2.70825 0 -0.504643)
(2.60937 0 -0.48685)
(2.51443 0 -0.469703)
(2.42315 0 -0.453161)
(2.3353 0 -0.437189)
(2.25065 0 -0.42175)
(2.16898 2.07265e-21 -0.406815)
(2.09012 -3.58166e-21 -0.392352)
(2.01387 0 -0.378335)
(1.94008 -6.21805e-21 -0.364735)
(1.86859 0 -0.35153)
(1.79924 0 -0.338693)
(1.73193 1.8528e-20 -0.326208)
(1.66649 0 -0.314046)
(1.60284 -2.16542e-20 -0.302197)
(1.54083 2.29243e-20 -0.290632)
(1.48039 0 -0.279344)
(1.42139 2.50815e-20 -0.268305)
(1.36378 0 -0.257512)
(1.30741 0 -0.246935)
(1.25226 0 -0.236576)
(1.19819 5.55866e-20 -0.226405)
(1.14519 5.6412e-20 -0.216427)
(1.09312 2.8342e-23 -0.20661)
(1.042 -1.15057e-19 -0.196965)
(0.991669 2.48551e-23 -0.187457)
(0.942177 0 -0.178103)
(0.893363 0 -0.168865)
(0.845289 -1.15762e-19 -0.159765)
(0.79781 3.7991e-23 -0.150766)
(0.750979 0 -0.141889)
(0.704699 0 -0.133107)
(0.658972 -1.12708e-19 -0.12443)
(0.613825 2.87461e-23 -0.115854)
(0.569096 2.67738e-23 -0.107359)
(0.525111 0 -0.0989983)
(0.481306 0 -0.0906743)
(0.438636 -2.10027e-19 -0.0825604)
(0.39571 2.06187e-19 -0.0743995)
(0.354627 0 -0.0665895)
(0.312644 0 -0.0586015)
(0.273371 0 -0.051147)
(0.232864 0 -0.0434262)
(0.194975 0 -0.0362588)
(0.157819 0 -0.0291571)
(0.119312 0 -0.0218865)
(0.0889023 0 -0.0161049)
(0.0484048 -6.58025e-19 -0.00834889)
(0.0226247 -3.19178e-19 -0.00370237)
(-0.00656205 -3.08698e-19 0.00242301)
(-0.0617196 2.97648e-19 0.0118489)
(-0.0116614 -5.79768e-19 0.00354307)
(-0.175415 -2.73682e-19 0.034314)
(-0.0295832 -2.7181e-19 0.00461943)
(-0.180672 0 0.0377657)
(-0.187186 0 0.0324539)
(-0.0347135 0 0.0121836)
(-0.53786 0 0.0982713)
(0.301371 -4.65247e-19 -0.056409)
(-0.755813 0 0.150665)
(0.106159 0 -0.0310325)
(-0.281484 3.49055e-19 0.0681144)
(-0.676224 0 0.118727)
(0.320946 -7.17577e-19 -0.0516492)
(-1.42323 5.96832e-19 0.271518)
(0.656708 0 -0.13275)
(-1.16438 0 0.236711)
(-0.0322681 0 -0.0112952)
(-0.172427 5.09928e-19 0.0517444)
(-1.28753 0 0.238134)
(0.445847 -5.43679e-19 -0.086961)
(-1.37416 -4.52911e-24 0.274478)
(-0.192261 -9.76738e-19 0.0203834)
(-0.265522 -1.75686e-18 0.05188)
(-0.272935 0 0.0589631)
(-0.828199 7.58255e-19 0.159826)
(-0.234269 8.06617e-19 0.0333599)
(-0.0400149 7.22149e-19 0.015365)
(-0.878371 0 0.173739)
(-0.454181 6.60245e-19 0.0774506)
(-0.0724128 0 0.0089119)
(32.3999 0 2.95185)
(32.9658 0 2.76573)
(32.4127 1.2247e-20 1.72139)
(30.7703 0 0.520222)
(28.5182 -1.22927e-20 -0.484864)
(26.1031 2.50065e-20 -1.20773)
(23.7848 0 -1.67073)
(21.6793 -2.18289e-20 -1.93484)
(19.8203 2.09305e-20 -2.06401)
(18.1981 1.89282e-20 -2.10829)
(16.7853 1.77901e-20 -2.10149)
(15.5507 -1.61698e-20 -2.06488)
(14.4658 1.50534e-20 -2.01141)
(13.5063 -2.74439e-20 -1.94891)
(12.6523 0 -1.88209)
(11.8873 -2.32551e-20 -1.81384)
(11.1982 0 -1.7459)
(10.574 0 -1.67931)
(10.0059 0 -1.61469)
(9.48632 1.63601e-20 -1.55237)
(9.00926 -3.42557e-23 -1.49253)
(8.56952 -2.60699e-23 -1.43522)
(8.16274 1.24232e-20 -1.38041)
(7.78523 0 -1.32805)
(7.43382 0 -1.27805)
(7.1058 0 -1.23031)
(6.79881 3.35189e-20 -1.18471)
(6.5108 -6.07807e-24 -1.14115)
(6.24 0 -1.09951)
(5.98484 0 -1.05968)
(5.74393 0 -1.02157)
(5.51606 0 -0.985062)
(5.30013 1.67728e-20 -0.950077)
(5.09518 0 -0.91652)
(4.90033 -1.26932e-20 -0.884309)
(4.71482 0 -0.853365)
(4.53793 0 -0.823614)
(4.36903 -7.67755e-21 -0.794988)
(4.20754 0 -0.767421)
(4.05294 0 -0.740853)
(3.90475 3.7336e-21 -0.715227)
(3.76253 -5.24617e-21 -0.69049)
(3.62588 0 -0.66659)
(3.49443 -1.33701e-21 -0.643482)
(3.36784 0 -0.62112)
(3.24579 -3.89676e-21 -0.599463)
(3.12799 1.87742e-23 -0.578471)
(3.01418 0 -0.558107)
(2.90409 0 -0.538334)
(2.79751 6.90651e-21 -0.519122)
(2.69419 1.57366e-20 -0.500434)
(2.59395 -3.49611e-20 -0.482246)
(2.49658 0 -0.464523)
(2.40192 -2.03932e-20 -0.447246)
(2.30976 -2.16397e-20 -0.430379)
(2.22 -2.26904e-20 -0.413909)
(2.13242 -2.36291e-20 -0.397799)
(2.04696 0 -0.382044)
(1.96339 0 -0.366601)
(1.88168 -5.14373e-20 -0.351475)
(1.80161 -1.04834e-19 -0.336619)
(1.72318 -5.32061e-20 -0.322046)
(1.64617 3.04107e-23 -0.307704)
(1.57059 5.42323e-20 -0.293614)
(1.49623 5.4511e-20 -0.279723)
(1.42314 0 -0.266056)
(1.35108 0 -0.252558)
(1.28014 1.09092e-19 -0.239261)
(1.21011 2.17242e-19 -0.22611)
(1.14106 0 -0.213139)
(1.07284 1.07105e-19 -0.200302)
(1.00545 1.06086e-19 -0.187621)
(0.938928 1.04934e-19 -0.175083)
(0.873035 2.07171e-19 -0.162667)
(0.808221 0 -0.150436)
(0.743697 0 -0.138268)
(0.680796 1.97641e-19 -0.12639)
(0.617559 -3.87944e-19 -0.114456)
(0.556948 -1.90138e-19 -0.103013)
(0.495062 0 -0.0913229)
(0.437071 0 -0.0803953)
(0.377243 0 -0.0690659)
(0.321328 0 -0.0585847)
(0.266126 0 -0.0480821)
(0.209527 0 -0.03752)
(0.163797 -3.18901e-19 -0.0288601)
(0.104283 4.13741e-23 -0.0175472)
(0.065838 2.99696e-19 -0.0107879)
(0.0206401 0 -0.00109048)
(-0.0553685 2.7937e-19 0.0109481)
(0.00496152 2.72101e-19 0.00229526)
(-0.218687 0 0.0433787)
(-0.020398 -2.5501e-19 0.00258191)
(-0.239745 -4.73916e-19 0.0523257)
(-0.234933 0 0.0387559)
(-0.0522001 0 0.0213314)
(-0.713949 0 0.12716)
(0.40218 -4.36319e-19 -0.0733116)
(-1.04252 0 0.21029)
(0.183201 0 -0.0550959)
(-0.424858 3.27216e-19 0.109218)
(-0.877011 -3.50832e-19 0.14724)
(0.392584 0 -0.05485)
(-1.93992 0 0.367438)
(0.895588 0 -0.184199)
(-1.65537 0 0.342646)
(0.0426086 0 -0.0416417)
(-0.306246 1.56747e-22 0.0959197)
(-1.69997 0 0.308746)
(0.577332 5.08757e-19 -0.112102)
(-1.93663 -8.24689e-19 0.391622)
(-0.187286 0 0.00363347)
(-0.405385 -6.14501e-23 0.080534)
(-0.389986 0 0.0876004)
(-1.11925 -1.40689e-22 0.21592)
(-0.281002 0 0.0321982)
(-0.0983016 -6.75184e-19 0.0344801)
(-1.19856 0 0.23972)
(-0.578745 6.16952e-19 0.0916982)
(-0.0701687 0 0.00399279)
(32.5028 0 2.09961)
(33.2605 0 2.22516)
(33.6071 0 1.75009)
(33.243 0 0.956069)
(32.2208 1.16034e-20 0.114272)
(30.7475 -9.00491e-22 -0.634852)
(29.0287 0 -1.2359)
(27.2232 2.06035e-20 -1.67971)
(25.4405 0 -1.98345)
(23.7467 -3.52315e-20 -2.17537)
(22.1741 0 -2.28405)
(20.7329 1.52654e-20 -2.33349)
(19.4206 0 -2.34199)
(18.2284 2.59114e-20 -2.32278)
(17.1451 -1.18032e-20 -2.28518)
(16.1593 2.18116e-20 -2.23564)
(15.2599 -1.99694e-20 -2.17859)
(14.4371 -1.83317e-20 -2.11709)
(13.6821 0 -2.05326)
(12.9873 -1.54484e-20 -1.98855)
(12.3459 -1.41155e-20 -1.92394)
(11.7521 -2.57212e-20 -1.86013)
(11.2008 -1.17309e-20 -1.79756)
(10.6877 0 -1.73654)
(10.2089 0 -1.67726)
(9.76114 0 -1.61981)
(9.34136 -1.58198e-20 -1.56425)
(8.94703 -1.42416e-20 -1.51059)
(8.57585 0 -1.45881)
(8.22581 0 -1.40888)
(7.89509 1.01611e-20 -1.36075)
(7.58211 0 -1.31436)
(7.28541 1.3134e-24 -1.26964)
(7.00373 -1.38446e-20 -1.22653)
(6.73589 1.1998e-20 -1.18496)
(6.48086 0 -1.14487)
(6.23768 0 -1.10618)
(6.00551 7.24623e-21 -1.06883)
(5.78356 0 -1.03276)
(5.57111 0 -0.997897)
(5.36752 -3.52326e-21 -0.964193)
(5.17219 4.95031e-21 -0.931588)
(4.98456 0 -0.900025)
(4.80414 1.26144e-21 -0.869454)
(4.63045 0 -0.839821)
(4.46308 1.82876e-21 -0.811082)
(4.3016 3.17395e-21 -0.783187)
(4.14565 0 -0.756097)
(3.99488 5.492e-21 -0.729763)
(3.84899 -6.51323e-21 -0.704153)
(3.70763 -2.96489e-20 -0.67922)
(3.57056 1.64685e-20 -0.654937)
(3.43748 -1.78998e-20 -0.631256)
(3.30818 2.52955e-23 -0.608159)
(3.18238 0 -0.585596)
(3.05991 2.13866e-20 -0.563556)
(2.94049 2.22691e-20 -0.541987)
(2.82401 -2.30119e-20 -0.520886)
(2.71019 2.3664e-20 -0.500196)
(2.59895 4.84613e-20 -0.479926)
(2.49002 4.93627e-20 -0.460013)
(2.38336 -5.00544e-20 -0.440474)
(2.27869 5.06416e-20 -0.421243)
(2.17603 0 -0.402347)
(2.07506 0 -0.383712)
(1.97586 5.14039e-20 -0.365379)
(1.87811 0 -0.347268)
(1.78192 0 -0.329427)
(1.687 -1.02205e-19 -0.311778)
(1.59342 0 -0.29437)
(1.50101 -1.00769e-19 -0.277138)
(1.40974 -1.99561e-19 -0.260116)
(1.31964 0 -0.243278)
(1.23042 -9.74032e-20 -0.226608)
(1.14265 0 -0.210173)
(1.05529 0 -0.193831)
(0.97007 -1.85699e-19 -0.177856)
(0.884443 1.82291e-19 -0.161824)
(0.802251 3.90443e-23 -0.146416)
(0.718402 0 -0.130699)
(0.639686 0 -0.115978)
(0.558468 0 -0.100703)
(0.482597 -1.6268e-19 -0.0866158)
(0.407235 1.58417e-19 -0.0723442)
(0.330722 0 -0.0582436)
(0.267543 5.98668e-19 -0.0463213)
(0.187151 2.90016e-19 -0.031171)
(0.134335 -5.62437e-19 -0.0221024)
(0.0704306 -2.71892e-19 -0.00811618)
(-0.0261232 -5.24121e-19 0.00576361)
(0.038495 0 -0.00113364)
(-0.241287 0 0.0486195)
(0.00395797 2.39113e-19 -0.00222803)
(-0.286288 4.44303e-19 0.0656947)
(-0.263623 -4.37494e-19 0.0404591)
(-0.067776 0 0.0324095)
(-0.86341 0 0.148661)
(0.49179 4.08804e-19 -0.0862293)
(-1.3117 3.23172e-19 0.2673)
(0.275401 0 -0.0849486)
(-0.579663 -3.06445e-19 0.157406)
(-1.03331 3.28516e-19 0.163093)
(0.432286 0 -0.0467453)
(-2.41456 0 0.452357)
(1.11024 0 -0.231935)
(-2.14749 0 0.451606)
(0.16166 0 -0.0866428)
(-0.471886 -4.46732e-19 0.153734)
(-2.04138 0 0.360797)
(0.673411 0 -0.12849)
(-2.48648 0 0.508218)
(-0.141305 8.53724e-19 -0.0275966)
(-0.565286 7.68427e-19 0.114923)
(-0.501843 0 0.117004)
(-1.38356 -6.62804e-19 0.265626)
(-0.305508 0 0.0232254)
(-0.17636 -6.31294e-19 0.0611214)
(-1.48421 0 0.299693)
(-0.669986 -5.76565e-19 0.094941)
(-0.0481968 0 -0.00650922)
(32.5752 -4.96755e-21 1.4856)
(33.1584 -6.1701e-21 1.62534)
(33.685 7.32984e-21 1.43445)
(33.9105 8.26261e-21 0.973573)
(33.7182 0 0.381722)
(33.1198 -9.90806e-21 -0.234125)
(32.1888 0 -0.80816)
(31.0161 1.74106e-20 -1.30337)
(29.6902 1.66485e-20 -1.70434)
(28.2876 3.21145e-20 -2.01149)
(26.8677 -1.47772e-20 -2.23455)
(25.4725 1.37906e-20 -2.38699)
(24.1292 0 -2.48274)
(22.8534 0 -2.53443)
(21.6525 1.11278e-20 -2.55267)
(20.5281 -1.14517e-22 -2.54601)
(19.4786 1.76016e-22 -2.52107)
(18.5006 1.35876e-22 -2.48295)
(17.5895 0 -2.43547)
(16.7405 0 -2.38151)
(15.9486 0 -2.32323)
(15.2092 2.41683e-20 -2.26224)
(14.5178 1.09962e-20 -2.19973)
(13.8704 0 -2.13659)
(13.2631 0 -2.07349)
(12.6927 1.64625e-20 -2.01091)
(12.156 0 -1.9492)
(11.6503 0 -1.88861)
(11.1729 0 -1.82931)
(10.7218 0 -1.77144)
(10.2947 -6.46007e-24 -1.71506)
(9.88987 0 -1.66021)
(9.50559 -1.66881e-24 -1.60691)
(9.14032 1.30506e-20 -1.55516)
(8.79267 2.51835e-24 -1.50495)
(8.46139 0 -1.45624)
(8.14531 0 -1.409)
(7.84338 0 -1.36319)
(7.55463 0 -1.31876)
(7.27817 0 -1.27568)
(7.01318 0 -1.23389)
(6.75891 0 -1.19333)
(6.51467 -2.88771e-21 -1.15397)
(6.27981 -1.22465e-21 -1.11576)
(6.05375 0 -1.07863)
(5.83592 1.68848e-21 -1.04256)
(5.62581 0 -1.00748)
(5.42296 0 -0.97336)
(5.22689 -1.03303e-20 -0.940144)
(5.03722 0 -0.907798)
(4.85351 1.39471e-20 -0.87627)
(4.67545 0 -0.845531)
(4.50263 3.36834e-20 -0.815526)
(4.3348 2.45127e-23 -0.786235)
(4.17157 0 -0.757599)
(4.01274 0 -0.729608)
(3.85795 0 -0.702199)
(3.70703 4.32978e-20 -0.675369)
(3.55963 -4.45223e-20 -0.64905)
(3.41565 -4.55343e-20 -0.623254)
(3.27472 -4.63819e-20 -0.597902)
(3.1368 9.41542e-20 -0.573019)
(3.00151 4.7583e-20 -0.548519)
(2.86888 0 -0.524441)
(2.73849 0 -0.50069)
(2.61045 -2.42493e-23 -0.477318)
(2.48433 0 -0.454225)
(2.36026 0 -0.431472)
(2.23787 -9.60052e-20 -0.408958)
(2.11725 0 -0.386749)
(1.99816 0 -0.364757)
(1.88057 1.87476e-19 -0.343034)
(1.7645 -9.26552e-20 -0.321534)
(1.64958 0 -0.300251)
(1.53649 0 -0.279252)
(1.42397 0 -0.25838)
(1.31413 1.74399e-19 -0.237949)
(1.20381 0 -0.217464)
(1.09777 3.35416e-19 -0.197734)
(0.989675 -1.64101e-19 -0.177633)
(0.888006 0 -0.158768)
(0.783101 0 -0.13918)
(0.685116 1.52657e-19 -0.12116)
(0.587244 -2.56823e-23 -0.102722)
(0.488767 1.44438e-19 -0.0848011)
(0.405756 -2.80752e-19 -0.0691929)
(0.302404 2.71916e-19 -0.0499084)
(0.233239 2.63689e-19 -0.0382571)
(0.147705 2.54925e-19 -0.0193302)
(0.0306853 3.65425e-23 -0.00413802)
(0.0932052 0 -0.00735038)
(-0.238579 -2.25621e-19 0.0493989)
(0.0466065 0 -0.0097833)
(-0.315875 0 0.0771223)
(-0.270117 4.0985e-19 0.0372407)
(-0.0779013 0 0.0449485)
(-0.982239 0 0.162428)
(0.571217 0 -0.0952026)
(-1.55658 -3.0259e-19 0.320117)
(0.379255 0 -0.119683)
(-0.74049 -2.8697e-19 0.211775)
(-1.14221 0 0.166213)
(0.44213 0 -0.0274878)
(-2.83717 0 0.525066)
(1.29363 0 -0.274135)
(-2.63021 0 0.561003)
(0.317343 -5.34347e-19 -0.144585)
(-0.663952 -4.18097e-19 0.224406)
(-2.30333 4.36275e-19 0.393775)
(0.730217 0 -0.134174)
(-3.00802 0 0.620551)
(-0.06247 -1.596e-18 -0.0713669)
(-0.743398 0 0.15516)
(-0.601747 6.9296e-19 0.145503)
(-1.61897 0 0.30899)
(-0.310283 6.58486e-19 0.00763646)
(-0.269459 5.89933e-19 0.0942427)
(-1.72304 0 0.351)
(-0.728469 -5.3847e-19 0.0877497)
(-0.0039994 0 -0.0227264)
(32.6299 4.67808e-21 1.03365)
(33.0409 1.1375e-20 1.1208)
(33.4869 -6.90432e-21 1.03789)
(33.852 -7.81266e-22 0.77463)
(34.0253 7.48296e-21 0.384435)
(33.951 0 -0.0707616)
(33.6209 0 -0.541854)
(33.0555 -1.63946e-20 -0.993111)
(32.2899 -3.04513e-20 -1.40091)
(31.3667 -7.08361e-22 -1.75221)
(30.3293 1.39135e-20 -2.04252)
(29.2184 -1.29845e-20 -2.27318)
(28.0689 1.17423e-20 -2.44903)
(26.9091 0 -2.57665)
(25.7603 0 -2.66322)
(24.6382 -9.53548e-21 -2.71574)
(23.5533 3.48923e-20 -2.7406)
(22.5119 3.21127e-20 -2.74336)
(21.5175 0 -2.72873)
(20.5716 0 -2.70061)
(19.6738 0 -2.66214)
(18.8231 -6.72983e-23 -2.61588)
(18.0177 -2.06558e-20 -2.56385)
(17.2554 9.38139e-21 -2.50766)
(16.5339 1.7048e-20 -2.44857)
(15.8509 -3.09525e-20 -2.38759)
(15.2039 1.39657e-20 -2.32551)
(14.5907 1.25842e-20 -2.26294)
(14.0091 1.13004e-20 -2.20036)
(13.4569 0 -2.13813)
(12.9323 -9.01306e-21 -2.07654)
(12.4333 7.97429e-21 -2.01581)
(11.9583 -7.02763e-21 -1.9561)
(11.5058 -1.22802e-20 -1.89752)
(11.0741 -2.12962e-20 -1.84016)
(10.662 0 -1.78407)
(10.2682 0 -1.72928)
(9.8915 -6.44794e-21 -1.67582)
(9.53083 0 -1.62368)
(9.18517 4.15964e-21 -1.57286)
(8.85358 3.14908e-21 -1.52333)
(8.53519 0 -1.47508)
(8.22918 5.45056e-21 -1.42808)
(7.9348 1.15247e-21 -1.38229)
(7.65134 0 -1.33768)
(7.37814 -1.5888e-21 -1.29421)
(7.11458 -2.76673e-21 -1.25184)
(6.86009 0 -1.21053)
(6.61412 9.68972e-21 -1.17024)
(6.37617 -5.72907e-21 -1.13093)
(6.14573 -1.3066e-20 -1.09255)
(5.9224 0 -1.05508)
(5.7057 -2.47851e-23 -1.01846)
(5.49528 3.39326e-20 -0.982658)
(5.2907 0 -0.947623)
(5.09169 0 -0.913344)
(4.8978 -1.96505e-20 -0.879747)
(4.70882 -2.03447e-20 -0.846835)
(4.52432 4.18199e-20 -0.814527)
(4.34417 4.28033e-20 -0.78284)
(4.1679 4.35963e-20 -0.751681)
(3.99546 -4.42312e-20 -0.721083)
(3.82638 -8.94055e-20 -0.690942)
(3.66067 0 -0.661308)
(3.49785 0 -0.632064)
(3.338 -9.07645e-20 -0.603279)
(3.18061 0 -0.574825)
(3.02582 0 -0.546784)
(2.87317 9.01696e-20 -0.519028)
(2.72278 0 -0.491643)
(2.57431 -8.88364e-20 -0.464513)
(2.42774 -3.2249e-23 -0.437712)
(2.28307 8.69856e-20 -0.41117)
(2.13986 0 -0.384899)
(1.99889 0 -0.358955)
(1.85866 0 -0.333176)
(1.72167 1.63565e-19 -0.307905)
(1.58414 0 -0.282589)
(1.45175 -1.57319e-19 -0.258152)
(1.31689 3.07834e-19 -0.233286)
(1.1898 0 -0.209896)
(1.05867 0 -0.185602)
(0.936165 0 -0.16329)
(0.813184 -2.54189e-23 -0.140257)
(0.690434 -1.35407e-19 -0.118205)
(0.58494 -2.63083e-19 -0.0984471)
(0.456296 -2.54851e-19 -0.0747087)
(0.368506 2.4704e-19 -0.0601597)
(0.258178 0 -0.0356074)
(0.120458 2.30118e-19 -0.0195511)
(0.174194 0 -0.0170669)
(-0.205298 2.11331e-19 0.0446434)
(0.111265 0 -0.020887)
(-0.323323 0 0.0857085)
(-0.2509 0 0.028563)
(-0.0782491 -3.66286e-19 0.0582996)
(-1.06618 -3.36783e-19 0.167569)
(0.642814 0 -0.100191)
(-1.76993 2.83035e-19 0.367057)
(0.491054 -3.36264e-19 -0.158354)
(-0.900917 2.68511e-19 0.271067)
(-1.20239 -2.8725e-19 0.156161)
(0.426277 0 0.0028087)
(-3.19795 0 0.582876)
(1.44023 0 -0.309129)
(-3.09185 0 0.667888)
(0.498267 4.99663e-19 -0.21357)
(-0.87561 -1.19249e-22 0.306903)
(-2.48026 -8.15499e-19 0.405748)
(0.746957 0 -0.128025)
(-3.48407 0 0.724556)
(0.0365874 7.45716e-19 -0.125509)
(-0.935561 0 0.200982)
(-0.683441 -6.47573e-19 0.171485)
(-1.82445 0 0.345533)
(-0.297486 -1.23042e-18 -0.0141386)
(-0.371211 0 0.132785)
(-1.9028 0 0.39078)
(-0.756439 5.03016e-19 0.0701033)
(0.0657073 0 -0.0455268)
(32.6545 0 0.680574)
(32.9559 -5.23395e-21 0.723928)
(33.2928 0 0.674467)
(33.6232 -6.58732e-21 0.51144)
(33.884 -1.34316e-20 0.249684)
(34.0244 0 -0.0790855)
(34.0158 6.70204e-21 -0.443457)
(33.847 0 -0.817337)
(33.5184 9.00133e-22 -1.18053)
(33.0397 -2.58166e-20 -1.51857)
(32.4267 0 -1.82213)
(31.6999 0 -2.08632)
(30.8814 -1.10443e-20 -2.30955)
(29.9935 0 -2.49254)
(29.0574 0 -2.63759)
(28.0919 0 -2.74797)
(27.1131 -1.62995e-20 -2.82745)
(26.1346 -1.50166e-20 -2.87999)
(25.1667 -1.36257e-20 -2.90947)
(24.2175 0 -2.91951)
(23.2929 0 -2.9134)
(22.3968 -1.06169e-20 -2.89405)
(21.5318 9.68893e-21 -2.86397)
(20.6993 -8.82346e-21 -2.82531)
(19.8998 -1.6034e-20 -2.77985)
(19.1334 2.89951e-20 -2.72913)
(18.3995 -5.42788e-23 -2.67438)
(17.6972 -1.18354e-20 -2.61664)
(17.0255 -1.06279e-20 -2.55677)
(16.3832 0 -2.49545)
(15.7689 0 -2.43324)
(15.1815 -7.49927e-21 -2.37062)
(14.6196 0 -2.30795)
(14.0818 1.15482e-20 -2.24552)
(13.5669 1.00118e-20 -2.18357)
(13.0737 -8.5852e-21 -2.12229)
(12.601 0 -2.06183)
(12.1477 6.06285e-21 -2.0023)
(11.7126 4.94527e-21 -1.94377)
(11.2948 3.63715e-24 -1.88632)
(10.8934 -5.92609e-21 -1.82997)
(10.5073 0 -1.77477)
(10.1357 -2.56919e-21 -1.72072)
(9.77786 0 -1.66782)
(9.43295 0 -1.61606)
(9.10025 0 -1.56545)
(8.77906 1.3698e-23 -1.51594)
(8.46875 0 -1.46753)
(8.16868 -4.5465e-21 -1.42018)
(7.87829 1.07549e-20 -1.37388)
(7.59699 1.22783e-20 -1.32856)
(7.32431 0 -1.28423)
(7.05969 -1.48489e-20 -1.24081)
(6.80273 -3.18361e-20 -1.1983)
(6.5529 0 -1.15664)
(6.30988 0 -1.11582)
(6.07313 1.84587e-20 -1.07576)
(5.84243 1.90726e-20 -1.03648)
(5.61722 -1.96304e-20 -0.99787)
(5.39736 -4.01325e-20 -0.959974)
(5.18229 0 -0.922675)
(4.97196 0 -0.886023)
(4.76576 2.83917e-23 -0.849892)
(4.56374 -4.2259e-20 -0.814348)
(4.36529 0 -0.77925)
(4.1705 4.25884e-20 -0.744686)
(3.97877 0 -0.7105)
(3.79025 0 -0.676799)
(3.60437 0 -0.643421)
(3.42127 0 -0.610479)
(3.24053 3.41947e-23 -0.577827)
(3.06213 -3.19535e-23 -0.545562)
(2.88604 -8.15413e-20 -0.513588)
(2.71173 0 -0.481937)
(2.54012 -7.9299e-20 -0.45065)
(2.36941 0 -0.419569)
(2.20252 -1.53375e-19 -0.389055)
(2.03502 1.50436e-19 -0.358508)
(1.87357 -1.47413e-19 -0.328955)
(1.70918 -1.44266e-19 -0.298917)
(1.55397 0 -0.270593)
(1.39383 1.3755e-19 -0.241169)
(1.24412 0 -0.214175)
(1.09318 -1.30534e-19 -0.186084)
(0.943558 -1.26817e-19 -0.159556)
(0.81266 2.46457e-19 -0.135145)
(0.656093 0 -0.106605)
(0.547103 -4.6272e-19 -0.0887821)
(0.408526 0 -0.0579125)
(0.249519 2.15414e-19 -0.0413933)
(0.287511 0 -0.0312054)
(-0.1354 1.97775e-19 0.0334169)
(0.202644 0 -0.0361108)
(-0.302589 3.64777e-19 0.0903611)
(-0.201887 -3.58973e-19 0.0139021)
(-0.0636331 3.4277e-19 0.0716592)
(-1.11056 3.15129e-19 0.163347)
(0.710358 0 -0.101521)
(-1.94405 -5.29471e-19 0.406412)
(0.607478 6.29046e-19 -0.200004)
(-1.05365 0 0.333749)
(-1.21414 2.68648e-19 0.133069)
(0.390812 0 0.0434728)
(-3.48722 0 0.624153)
(1.54713 -5.24269e-19 -0.33565)
(-3.5194 0 0.769017)
(0.689832 0 -0.290864)
(-1.09917 3.65516e-19 0.399717)
(-2.56997 7.61705e-19 0.396397)
(0.726667 3.89306e-19 -0.109936)
(-3.89608 0 0.815983)
(0.139719 0 -0.186747)
(-1.1352 0 0.251398)
(-0.741871 0 0.193542)
(-1.99969 5.40193e-19 0.374551)
(-0.268166 5.74668e-19 -0.0416707)
(-0.474059 0 0.175113)
(-2.01164 0 0.416361)
(-0.75715 0 0.0426756)
(0.165352 0 -0.0759452)
(32.6536 4.18782e-21 0.39231)
(32.8856 0 0.408331)
(33.1413 4.90561e-21 0.36774)
(33.406 0 0.25451)
(33.6489 6.00718e-21 0.0691864)
(33.8385 0 -0.173536)
(33.9519 -6.29907e-21 -0.454525)
(33.974 1.15517e-20 -0.755848)
(33.8957 2.35868e-20 -1.06235)
(33.7123 7.27968e-22 -1.36204)
(33.4233 0 -1.64591)
(33.0322 0 -1.90775)
(32.5455 0 -2.14371)
(31.9725 0 -2.3517)
(31.3241 0 -2.53098)
(30.6124 0 -2.68181)
(29.8498 1.4687e-20 -2.80521)
(29.0486 -1.36099e-20 -2.90278)
(28.2202 1.28028e-20 -2.97649)
(27.3752 0 -3.02856)
(26.5228 0 -3.06131)
(25.6708 9.77542e-21 -3.07707)
(24.8256 8.94453e-21 -3.07808)
(23.9925 8.16403e-21 -3.06646)
(23.1753 0 -3.04412)
(22.3772 -1.35888e-20 -3.01281)
(21.6003 -2.45057e-20 -2.97407)
(20.8461 1.10216e-20 -2.92924)
(20.1155 0 -2.87948)
(19.409 0 -2.82582)
(18.7266 0 -2.7691)
(18.0682 7.01081e-21 -2.71005)
(17.4335 0 -2.64929)
(16.8218 0 -2.58735)
(16.2325 9.37942e-21 -2.52465)
(15.665 8.065e-21 -2.46155)
(15.1184 0 -2.39837)
(14.5919 5.69111e-21 -2.33534)
(14.0847 -9.28878e-21 -2.27267)
(13.596 -3.67696e-21 -2.21052)
(13.1249 2.78531e-21 -2.14903)
(12.6706 0 -2.0883)
(12.2324 0 -2.02841)
(11.8095 0 -1.96942)
(11.4011 -2.10035e-22 -1.91138)
(11.0065 0 -1.85432)
(10.625 2.42913e-21 -1.79825)
(10.2559 3.37512e-21 -1.74319)
(9.89862 0 -1.68913)
(9.55255 -5.04285e-21 -1.63607)
(9.21704 0 -1.58399)
(8.89159 0 -1.5329)
(8.57557 -1.38951e-20 -1.48273)
(8.26856 2.16217e-23 -1.4335)
(7.96995 1.58086e-20 -1.38514)
(7.67939 0 -1.33767)
(7.39627 0 -1.291)
(7.12033 -1.78995e-20 -1.24516)
(6.85094 0 -1.20005)
(6.58794 3.76591e-20 -1.15571)
(6.33067 0 -1.11202)
(6.07907 0 -1.06904)
(5.83244 7.86485e-20 -1.02663)
(5.59081 7.92607e-20 -0.984866)
(5.35348 3.98106e-20 -0.943593)
(5.12056 0 -0.902919)
(4.89133 0 -0.862659)
(4.66595 3.97989e-20 -0.822946)
(4.44375 7.92404e-20 -0.783584)
(4.22489 0 -0.744719)
(4.00886 7.81178e-20 -0.706166)
(3.79562 -7.73388e-20 -0.668057)
(3.58513 7.64395e-20 -0.630259)
(3.37675 -7.54044e-20 -0.592836)
(3.17153 7.43246e-20 -0.555802)