/*--------------------------------*- C++ -*----------------------------------*\
| =========                 |                                                 |
| \\      /  F ield         | OpenFOAM: The Open Source CFD Toolbox           |
|  \\    /   O peration     | Version:  2412                                  |
|   \\  /    A nd           | Website:  www.openfoam.com                      |
|    \\/     M anipulation  |                                                 |
\*---------------------------------------------------------------------------*/
FoamFile
{
    version     2.0;
    format      ascii;
    arch        "LSB;label=32;scalar=64";
    class       volScalarField;
    location    "0.69";
    object      p;
}
// * * * * * * * * * * * * * * * * * * * * * * * * * * * * * * * * * * * * * //

dimensions      [0 2 -2 0 0 0 0];

internalField   nonuniform List<scalar> 
12600
(
-0.294019
-85.5399
-63.9629
-12.4513
31.7283
65.5967
92.5933
115.048
134.19
150.724
165.179
178.128
189.862
200.355
209.52
217.597
225.205
232.639
239.476
244.903
248.936
252.673
257.301
263.022
268.267
269.689
270.747
273.083
276.878
280.056
282.011
283.456
285.083
286.814
288.278
289.448
290.552
291.689
292.744
293.622
294.383
295.137
295.9
296.605
297.213
297.761
298.295
298.824
299.32
299.772
300.193
300.606
301.012
301.405
301.779
302.136
302.477
302.78
303.008
303.103
303.002
302.607
301.817
300.548
298.829
296.807
294.789
293.154
292.196
292.101
292.943
294.722
297.335
300.354
303.331
305.56
306.761
306.395
304.702
301.009
297.048
295.293
299.969
313.488
325.249
348.027
317.154
316.003
286.344
160.986
206.711
229.597
204.249
230.471
216.236
213.295
206.374
175.042
131.08
97.8327
106.081
159.45
241.482
335.072
407.295
456.096
495.713
519.027
528.094
536.92
538.144
540.846
535.03
526.117
514.962
515.186
527.98
531.626
537.149
536.146
59.5564
-18.4746
-28.5568
-2.73502
30.4988
61.6266
88.3301
111.014
130.45
147.317
162.241
175.632
187.653
198.26
207.604
216.025
224.053
231.674
238.315
243.497
247.778
252.318
257.665
263.078
267.073
268.306
270.202
273.187
276.987
279.803
281.605
283.157
284.915
286.657
288.083
289.262
290.417
291.583
292.634
293.505
294.281
295.059
295.833
296.537
297.145
297.699
298.244
298.779
299.277
299.73
300.155
300.572
300.982
301.376
301.751
302.111
302.454
302.761
302.994
303.096
303.001
302.618
301.845
300.597
298.898
296.89
294.871
293.222
292.234
292.106
292.907
294.644
297.233
300.236
303.222
305.487
306.738
306.433
304.816
301.175
297.198
295.327
299.75
313.06
324.619
347.833
317.531
316.217
288.316
162.495
206.029
229.591
204.233
230.253
216.419
213.406
206.878
176.088
132.183
98.297
105.506
157.833
239.322
333.012
405.782
455.018
494.958
518.621
527.871
536.793
538.089
540.871
535.199
526.35
515.099
515.055
527.795
531.522
537.095
536.151
85.8108
28.5129
3.44972
11.409
35.366
62.3608
87.395
109.493
128.782
145.69
160.712
174.22
186.321
196.982
206.382
214.985
223.236
230.896
237.375
242.472
247.054
252.313
258.173
263.028
265.613
268.28
270.064
273.436
277.073
279.619
281.327
282.96
284.797
286.546
287.957
289.148
290.329
291.511
292.561
293.433
294.219
295.008
295.789
296.494
297.104
297.662
298.212
298.75
299.25
299.704
300.132
300.551
300.963
301.358
301.734
302.096
302.44
302.749
302.983
303.089
303.002
302.628
301.867
300.63
298.941
296.939
294.919
293.262
292.259
292.107
292.883
294.598
297.174
300.171
303.16
305.441
306.723
306.459
304.884
301.282
297.299
295.345
299.616
312.841
324.275
347.686
317.732
316.379
289.307
163.308
205.644
229.604
204.22
230.128
216.514
213.465
207.122
176.59
132.743
98.5469
105.174
157.202
238.484
332.174
405.125
454.579
494.669
518.442
527.771
536.734
538.061
540.886
535.262
526.446
515.158
515.008
527.723
531.48
537.072
536.154
94.667
58.8186
33.4758
30.3761
44.1684
65.2829
87.5776
108.486
127.3
144.074
159.12
172.698
184.865
195.609
205.154
213.94
222.288
229.943
236.426
241.659
246.593
252.156
257.919
262.294
264.739
267.178
270.223
273.735
277.062
279.341
281.027
282.75
284.647
286.396
287.802
289.013
290.222
291.417
292.468
293.345
294.142
294.944
295.73
296.438
297.051
297.615
298.17
298.712
299.214
299.671
300.102
300.524
300.938
301.335
301.713
302.076
302.423
302.734
302.973
303.083
303.004
302.641
301.894
300.674
299
297.007
294.986
293.314
292.287
292.107
292.852
294.534
297.085
300.073
303.074
305.382
306.706
306.493
304.976
301.416
297.415
295.358
299.422
312.481
323.774
347.511
318.029
316.609
290.872
164.288
205.053
229.628
204.201
229.958
216.668
213.562
207.563
177.442
133.604
98.8488
104.624
155.743
236.576
330.427
403.867
453.679
494.037
518.115
527.59
536.631
538.018
540.911
535.409
526.642
515.264
514.884
527.566
531.394
537.029
536.159
102.327
82.131
61.5367
52.183
56.7742
71.0706
89.5288
108.53
126.473
142.894
157.824
171.377
183.559
194.371
204.039
212.953
221.355
229
235.502
240.975
246.225
251.859
257.323
261.415
264.061
266.736
270.341
274.105
276.955
279.029
280.734
282.56
284.499
286.24
287.644
288.879
290.116
291.321
292.373
293.255
294.065
294.879
295.67
296.379
296.996
297.567
298.128
298.672
299.176
299.636
300.07
300.496
300.912
301.31
301.69
302.055
302.405
302.719
302.961
303.078
303.007
302.656
301.925
300.72
299.06
297.074
295.052
293.365
292.316
292.105
292.818
294.47
297.003
299.981
302.989
305.322
306.69
306.526
305.072
301.554
297.533
295.361
299.217
312.134
323.268
347.271
318.301
316.877
292.207
165.028
204.431
229.662
204.179
229.785
216.814
213.65
207.936
178.197
134.365
99.083
104.038
154.647
235.147
329.029
402.808
452.968
493.568
517.839
527.436
536.542
537.978
540.935
535.519
526.796
515.35
514.802
527.445
531.327
536.994
536.163
111.26
100.158
84.7545
73.5578
72.1605
80.0559
93.7491
109.92
126.416
142.169
156.809
170.242
182.394
193.255
203.02
212.02
220.432
228.062
234.658
240.383
245.864
251.452
256.602
260.55
263.496
266.607
270.381
274.027
276.606
278.64
280.467
282.375
284.347
286.072
287.477
288.742
290.007
291.22
292.271
293.16
293.985
294.81
295.606
296.317
296.938
297.516
298.082
298.63
299.136
299.599
300.037
300.465
300.884
301.284
301.666
302.034
302.386
302.703
302.95
303.073
303.011
302.674
301.959
300.771
299.126
297.148
295.114
293.418
292.343
292.101
292.78
294.399
296.909
299.878
302.898
305.259
306.674
306.563
305.174
301.7
297.651
295.35
298.977
311.73
322.686
346.918
318.569
317.2
293.558
165.481
203.673
229.706
204.152
229.595
216.978
213.752
208.392
179.037
135.143
99.2329
103.292
153.05
233.172
327.23
401.503
452.07
492.95
517.511
527.253
536.437
537.933
540.963
535.665
526.988
515.446
514.666
527.287
531.243
536.952
536.169
119.896
113.403
102.504
92.5368
88.4904
91.5463
100.422
113.028
127.356
141.967
156.066
169.261
181.338
192.227
202.07
211.126
219.535
227.167
233.881
239.837
245.474
250.95
255.854
259.792
263.094
266.545
270.334
273.769
276.269
278.208
280.157
282.235
284.184
285.893
287.303
288.602
289.894
291.113
292.163
293.061
293.902
294.739
295.538
296.251
296.877
297.462
298.034
298.585
299.094
299.56
300.001
300.433
300.854
301.256
301.64
302.011
302.366
302.687
302.939
303.069
303.018
302.695
301.996
300.828
299.198
297.227
295.2
293.472
292.369
292.093
292.738
294.323
296.811
299.77
302.803
305.194
306.659
306.604
305.284
301.851
297.766
295.32
298.697
311.281
322.017
346.389
318.804
317.591
294.704
165.52
202.739
229.738
204.121
229.384
217.149
213.852
208.854
179.865
135.847
99.2502
102.39
151.537
231.243
325.407
400.144
451.178
492.365
517.176
527.065
536.327
537.885
540.992
535.804
527.174
515.539
514.55
527.132
531.16
536.91
536.176
127.734
123.743
116.327
108.594
104.014
104.162
109.139
118.088
129.663
142.535
155.687
168.434
180.346
191.23
201.134
210.238
218.655
226.316
233.154
239.3
245.026
250.393
255.151
259.168
262.794
266.471
270.195
273.421
275.858
277.885
279.918
282.036
284.056
285.705
287.124
288.463
289.78
291.001
292.05
292.958
293.815
294.664
295.466
296.181
296.813
297.405
297.984
298.538
299.049
299.518
299.963
300.398
300.821
301.226
301.613
301.986
302.345
302.67
302.928
303.066
303.026
302.718
302.038
300.889
299.275
297.31
295.268
293.527
292.394
292.082
292.689
294.24
296.704
299.655
302.703
305.125
306.644
306.65
305.4
302.005
297.874
295.263
298.366
310.768
321.237
345.626
318.984
318.062
295.588
165.08
201.552
229.783
204.087
229.148
217.33
213.955
209.352
180.679
136.438
99.0859
101.285
149.612
228.961
323.323
398.606
450.176
491.701
516.81
526.856
536.206
537.83
541.023
535.959
527.376
515.632
514.399
526.956
531.067
536.864
536.184
135.089
132.717
127.655
121.878
117.749
116.61
119.006
124.848
133.544
144.212
155.922
167.862
179.411
190.201
200.136
209.295
217.748
225.47
232.436
238.735
244.521
249.819
254.528
258.673
262.544
266.336
269.951
273.018
275.449
277.586
279.74
281.892
283.817
285.521
286.954
288.323
289.663
290.884
291.932
292.851
293.726
294.585
295.391
296.107
296.745
297.346
297.93
298.487
299
299.473
299.923
300.362
300.787
301.194
301.583
301.96
302.322
302.652
302.916
303.063
303.035
302.745
302.085
300.956
299.359
297.4
295.351
293.582
292.416
292.065
292.635
294.149
296.591
299.532
302.598
305.054
306.63
306.7
305.522
302.161
297.969
295.169
297.972
310.18
320.334
344.595
319.084
318.607
296.103
164.205
200.015
229.828
204.051
228.88
217.516
214.063
209.864
181.434
136.853
98.6919
99.949
147.556
226.523
321.063
396.913
449.109
491.02
516.42
526.629
536.072
537.768
541.054
536.116
527.581
515.723
514.236
526.769
530.969
536.815
536.192
142.126
140.837
137.239
132.889
129.547
128.123
129.079
132.662
138.827
147.181
157.08
167.796
178.65
189.143
199.019
208.215
216.734
224.551
231.655
238.097
243.953
249.247
253.985
258.264
262.292
266.116
269.62
272.593
275.073
277.336
279.575
281.729
283.648
285.253
286.771
288.2
289.542
290.763
291.809
292.742
293.635
294.504
295.311
296.029
296.675
297.284
297.874
298.433
298.949
299.426
299.881
300.322
300.75
301.16
301.552
301.932
302.299
302.633
302.904
303.062
303.047
302.774
302.137
301.029
299.45
297.495
295.433
293.637
292.435
292.041
292.573
294.048
296.467
299.404
302.485
304.979
306.618
306.755
305.65
302.313
298.045
295.032
297.502
309.497
319.299
343.31
319.087
319.195
296.212
163.077
198.012
229.875
204.016
228.574
217.704
214.149
210.381
182.079
137.026
98.0228
98.35
145.205
223.78
318.541
395.016
447.936
490.281
515.998
526.377
535.922
537.696
541.083
536.28
527.793
515.812
514.04
526.562
530.861
536.762
536.201
148.782
148.203
145.57
142.261
139.695
138.422
138.7
140.837
145.06
151.33
159.323
168.518
178.322
188.208
197.816
206.954
215.523
223.455
230.719
237.32
243.288
248.652
253.477
257.881
261.998
265.813
269.239
272.187
274.752
277.128
279.418
281.55
283.43
285.072
286.575
288.046
289.438
290.63
291.681
292.631
293.542
294.42
295.228
295.948
296.602
297.219
297.815
298.377
298.895
299.377
299.836
300.281
300.711
301.123
301.519
301.903
302.274
302.614
302.892
303.06
303.06
302.807
302.194
301.108
299.548
297.597
295.521
293.693
292.449
292.009
292.501
293.939
296.333
299.267
302.366
304.901
306.608
306.816
305.781
302.458
298.097
294.844
296.942
308.695
318.12
341.861
318.996
319.753
295.936
161.985
195.402
229.929
203.985
228.226
217.893
214.224
210.884
182.547
136.889
97.0429
96.4704
142.61
220.774
315.761
392.901
446.663
489.506
515.544
526.098
535.752
537.609
541.108
536.443
528.008
515.899
513.842
526.337
530.745
536.704
536.211
155.037
154.951
153.03
150.49
148.537
147.53
147.563
148.87
151.742
156.335
162.575
170.169
178.682
187.656
196.712
205.584
214.089
222.098
229.521
236.311
242.45
247.959
252.922
257.449
261.63
265.443
268.846
271.826
274.487
276.95
279.258
281.357
283.215
284.877
286.435
287.911
289.273
290.535
291.557
292.52
293.448
294.332
295.141
295.865
296.526
297.152
297.753
298.317
298.838
299.324
299.788
300.237
300.67
301.084
301.483
301.872
302.247
302.593
302.879
303.059
303.075
302.843
302.255
301.196
299.654
297.706
295.613
293.746
292.457
291.967
292.418
293.817
296.188
299.12
302.24
304.819
306.601
306.883
305.916
302.592
298.116
294.595
296.278
307.746
316.768
340.395
318.841
320.202
295.353
161.211
192.023
229.995
203.968
227.832
218.08
214.271
211.348
182.763
136.386
95.716
94.288
139.668
217.43
312.672
390.538
445.266
488.679
515.057
525.788
535.555
537.503
541.128
536.606
528.225
515.983
513.608
526.091
530.616
536.641
536.222
160.943
161.217
159.838
157.859
156.356
155.61
155.61
156.479
158.474
161.822
166.602
172.702
179.855
187.72
195.966
204.315
212.549
220.491
228.003
234.972
241.326
247.05
252.205
256.885
261.155
265.012
268.454
271.508
274.259
276.778
279.084
281.16
283.011
284.705
286.3
287.798
289.151
290.314
291.435
292.418
293.354
294.243
295.051
295.779
296.448
297.082
297.687
298.254
298.779
299.269
299.738
300.19
300.626
301.043
301.446
301.839
302.219
302.571
302.866
303.059
303.092
302.883
302.321
301.29
299.769
297.824
295.71
293.802
292.459
291.913
292.321
293.681
296.029
298.961
302.107
304.734
306.597
306.959
306.052
302.709
298.097
294.276
295.497
306.617
315.196
339.049
318.641
320.488
294.569
160.897
187.687
230.076
203.977
227.398
218.267
214.283
211.736
182.637
135.478
94.0094
91.7842
136.402
213.731
309.249
387.903
443.74
487.807
514.536
525.443
535.328
537.373
541.14
536.761
528.442
516.066
513.358
525.822
530.475
536.57
536.232
166.545
167.072
166.099
164.539
163.376
162.854
162.9
163.549
164.998
167.475
171.123
175.944
181.813
188.509
195.784
203.396
211.13
218.797
226.231
233.282
239.824
245.791
251.193
256.083
260.508
264.483
268.03
271.19
274.027
276.587
278.894
280.962
282.834
284.564
286.183
287.684
289.029
290.217
291.275
292.306
293.27
294.15
294.96
295.691
296.369
297.01
297.619
298.188
298.716
299.211
299.685
300.141
300.58
301
301.406
301.803
302.188
302.547
302.852
303.059
303.11
302.926
302.394
301.393
299.895
297.951
295.812
293.847
292.453
291.845
292.207
293.528
295.855
298.791
301.966
304.646
306.6
307.045
306.189
302.806
298.032
293.877
294.591
305.276
313.354
337.813
318.37
320.614
293.665
160.921
182.17
230.173
204.02
226.932
218.46
214.248
211.992
182.097
134.124
91.8897
88.9258
132.707
209.62
305.447
384.965
442.066
486.879
513.978
525.06
535.062
537.21
541.142
536.906
528.657
516.149
513.079
525.527
530.318
536.492
536.243
171.86
172.556
171.893
170.663
169.766
169.421
169.529
170.071
171.187
173.073
175.882
179.677
184.424
190.008
196.264
203.009
210.064
217.253
224.405
231.359
237.965
244.116
249.768
254.92
259.583
263.762
267.485
270.789
273.728
276.346
278.68
280.775
282.683
284.45
286.088
287.576
288.907
290.091
291.179
292.191
293.159
294.074
294.867
295.603
296.289
296.936
297.548
298.119
298.65
299.151
299.629
300.089
300.53
300.954
301.364
301.766
302.156
302.521
302.836
303.058
303.129
302.972
302.472
301.507
300.03
298.088
295.922
293.903
292.439
291.761
292.074
293.353
295.662
298.606
301.816
304.553
306.616
307.144
306.326
302.878
297.917
293.386
293.554
303.691
311.198
336.538
317.891
320.611
292.605
161.011
175.225
230.277
204.225
226.458
218.67
214.159
212.055
181.054
132.298
89.3252
85.6733
128.56
205.043
301.223
381.693
440.223
485.889
513.381
524.637
534.752
537.006
541.131
537.035
528.868
516.233
512.777
525.205
530.143
536.403
536.254
176.91
177.716
177.295
176.329
175.637
175.428
175.594
176.085
176.996
178.484
180.688
183.692
187.515
192.112
197.393
203.236
209.509
216.068
222.76
229.425
235.915
242.108
247.923
253.313
258.248
262.703
266.676
270.187
273.281
276.007
278.423
280.587
282.554
284.356
286.002
287.482
288.801
289.982
291.081
292.112
293.069
293.949
294.793
295.521
296.208
296.861
297.475
298.047
298.582
299.088
299.571
300.034
300.478
300.905
301.32
301.726
302.121
302.494
302.819
303.057
303.149
303.021
302.556
301.629
300.179
298.238
296.04
293.964
292.416
291.66
291.916
293.153
295.446
298.403
301.657
304.457
306.611
307.257
306.462
302.923
297.746
292.792
292.386
301.839
308.699
335.027
317.064
320.495
291.209
160.683
166.562
230.358
204.44
226.007
218.921
214.004
211.857
179.445
129.969
86.2882
81.9611
123.851
199.929
296.521
378.043
438.189
484.821
512.735
524.171
534.394
536.752
541.107
537.143
529.075
516.321
512.449
524.851
529.949
536.302
536.264
181.716
182.59
182.357
181.601
181.07
180.965
181.18
181.647
182.426
183.642
185.413
187.822
190.911
194.678
199.085
204.064
209.53
215.378
221.484
227.706
233.905
239.964
245.79
251.309
256.458
261.182
265.446
269.236
272.572
275.495
278.068
280.354
282.408
284.258
285.916
287.391
288.707
289.899
291
292.034
292.995
293.875
294.665
295.435
296.135
296.784
297.401
297.974
298.513
299.023
299.51
299.977
300.424
300.854
301.273
301.684
302.084
302.464
302.8
303.055
303.17
303.073
302.647
301.762
300.342
298.403
296.171
294.021
292.386
291.54
291.73
292.922
295.201
298.18
301.486
304.357
306.645
307.391
306.598
302.941
297.514
292.077
291.087
299.707
305.839
333.157
315.842
320.307
289.135
158.725
155.877
230.364
204.82
225.623
219.248
213.824
211.28
177.207
127.101
82.7571
77.7089
118.52
194.187
291.28
373.969
435.935
483.653
512.018
523.66
533.984
536.436
541.07
537.226
529.277
516.417
512.1
524.465
529.733
536.186
536.272
186.298
187.206
187.117
186.531
186.129
186.103
186.356
186.81
187.501
188.526
189.984
191.949
194.468
197.56
201.22
205.42
210.114
215.234
220.69
226.368
232.144
237.912
243.583
249.075
254.31
259.214
263.729
267.816
271.462
274.681
277.506
279.988
282.174
284.103
285.801
287.295
288.625
289.829
290.942
291.978
292.922
293.801
294.606
295.341
296.05
296.718
297.322
297.899
298.442
298.956
299.447
299.916
300.367
300.801
301.224
301.639
302.044
302.431
302.778
303.051
303.192
303.127
302.745
301.907
300.524
298.586
296.317
294.085
292.343
291.397
291.51
292.653
294.922
297.93
301.301
304.255
306.683
307.548
306.735
302.933
297.218
291.224
289.649
297.291
302.598
330.856
314.24
320.147
286.014
156.243
142.899
230.193
205.382
225.355
219.683
213.602
210.299
174.337
123.655
78.7162
72.8113
112.457
187.715
285.419
369.412
433.43
482.349
511.2
523.098
533.523
536.048
541.016
537.279
529.475
516.529
511.732
524.044
529.49
536.054
536.278
190.669
191.588
191.608
191.161
190.863
190.898
191.178
191.623
192.25
193.137
194.366
195.997
198.076
200.631
203.673
207.2
211.193
215.617
220.413
225.498
230.773
236.138
241.514
246.827
251.999
256.951
261.614
265.934
269.875
273.422
276.571
279.335
281.737
283.811
285.601
287.159
288.534
289.769
290.894
291.928
292.874
293.739
294.537
295.282
295.974
296.627
297.267
297.829
298.37
298.888
299.381
299.854
300.307
300.745
301.173
301.592
302.002
302.395
302.754
303.045
303.214
303.184
302.85
302.064
300.722
298.798
296.486
294.161
292.311
291.233
291.25
292.338
294.598
297.648
301.098
304.146
306.738
307.731
306.877
302.903
296.855
290.214
288.014
294.6
298.955
328.034
312.341
319.997
281.516
149.059
127.493
229.681
206.174
225.254
220.291
213.356
208.81
170.809
119.585
74.1495
67.1527
105.591
180.392
278.847
364.306
430.625
480.862
510.237
522.475
533.015
535.576
540.937
537.297
529.671
516.666
511.353
523.587
529.22
535.9
536.28
194.843
195.755
195.86
195.526
195.31
195.391
195.69
196.126
196.705
197.489
198.544
199.922
201.662
203.791
206.331
209.292
212.676
216.467
220.633
225.12
229.854
234.757
239.747
244.763
249.739
254.602
259.285
263.724
267.87
271.685
275.142
278.222
280.919
283.243
285.225
286.918
288.386
289.683
290.843
291.888
292.832
293.696
294.493
295.224
295.919
296.564
297.158
297.759
298.304
298.819
299.316
299.79
300.246
300.687
301.119
301.542
301.956
302.356
302.726
303.037
303.235
303.243
302.962
302.235
300.943
299.04
296.684
294.254
292.254
291.045
290.945
291.967
294.22
297.325
300.874
304.031
306.811
307.945
307.028
302.856
296.424
289.031
286.19
291.626
294.881
324.573
310.087
319.791
275.617
140.127
109.965
228.577
207.247
225.36
221.122
213.106
206.78
166.701
114.863
69.042
60.601
97.8284
172.084
271.452
358.565
427.444
479.128
509.079
521.788
532.463
535.017
540.818
537.278
529.868
516.842
510.976
523.098
528.916
535.721
536.273
198.834
199.725
199.892
199.651
199.503
199.618
199.928
200.354
200.894
201.598
202.519
203.702
205.176
206.97
209.105
211.6
214.465
217.7
221.291
225.207
229.401
233.811
238.372
243.02
247.701
252.361
256.936
261.366
265.593
269.567
273.246
276.594
279.59
282.223
284.5
286.445
288.099
289.514
290.743
291.828
292.794
293.664
294.459
295.193
295.875
296.513
297.116
297.678
298.23
298.757
299.245
299.722
300.182
300.627
301.062
301.489
301.908
302.314
302.696
303.026
303.256
303.305
303.082
302.423
301.192
299.314
296.932
294.371
292.215
290.834
290.588
291.53
293.772
296.945
300.619
303.912
306.903
308.194
307.196
302.801
295.923
287.65
284.113
288.347
290.342
320.334
307.374
319.281
269.156
128.662
91.6302
226.551
208.587
225.694
222.14
212.879
204.115
161.991
109.446
63.3606
53.0064
89.0788
162.645
263.102
352.081
423.787
477.085
507.689
521.036
531.866
534.37
540.637
537.219
530.07
517.076
510.62
522.583
528.577
535.51
536.253
202.653
203.513
203.726
203.56
203.467
203.607
203.922
204.337
204.844
205.483
206.299
207.326
208.592
210.118
211.928
214.041
216.472
219.23
222.312
225.706
229.383
233.301
237.413
241.661
245.992
250.364
254.729
259.032
263.216
267.228
271.018
274.547
277.78
280.697
283.286
285.549
287.494
289.142
290.528
291.702
292.72
293.623
294.435
295.171
295.848
296.478
297.065
297.631
298.165
298.68
299.192
299.661
300.117
300.566
301.005
301.434
301.857
302.269
302.662
303.012
303.275
303.37
303.211
302.63
301.473
299.633
297.218
294.538
292.213
290.613
290.17
291.012
293.24
296.504
300.328
303.76
307.013
308.487
307.389
302.748
295.357
286.066
281.696
284.808
285.307
315.153
304.03
318.112
264.216
116.603
75.6435
223.224
210.148
226.223
223.655
212.703
200.853
156.815
103.35
57.0607
44.4214
79.2583
151.92
253.641
344.727
419.54
474.679
506.031
520.204
531.219
533.642
540.359
537.119
530.278
517.389
510.319
522.054
528.201
535.259
536.215
206.308
207.132
207.377
207.272
207.224
207.383
207.698
208.101
208.579
209.164
209.893
210.796
211.894
213.205
214.752
216.552
218.623
220.976
223.619
226.547
229.747
233.196
236.858
240.693
244.651
248.689
252.771
256.856
260.895
264.838
268.635
272.243
275.625
278.751
281.599
284.154
286.407
288.36
290.021
291.41
292.563
293.535
294.385
295.145
295.832
296.458
297.04
297.593
298.119
298.626
299.107
299.591
300.056
300.5
300.942
301.377
301.803
302.222
302.626
302.995
303.293
303.438
303.35
302.858
301.792
300.007
297.574
294.762
292.24
290.378
289.686
290.406
292.6
295.948
299.984
303.651
307.147
308.833
307.624
302.716
294.729
284.269
278.872
280.957
279.743
308.858
299.853
315.764
262.575
106.866
65.9209
218.335
211.832
226.87
225.273
212.591
196.904
151.069
96.5036
50.0078
34.7242
68.2314
139.752
242.889
336.358
414.584
471.858
504.082
519.206
530.517
532.845
539.935
536.979
530.495
517.809
510.113
521.534
527.789
534.96
536.151
209.81
210.593
210.86
210.805
210.793
210.964
211.277
211.666
212.117
212.656
213.315
214.116
215.077
216.214
217.546
219.089
220.861
222.875
225.141
227.662
230.435
233.448
236.68
240.102
243.678
247.366
251.128
254.938
258.759
262.548
266.262
269.856
273.292
276.536
279.558
282.334
284.847
287.084
289.043
290.726
292.145
293.318
294.279
295.084
295.792
296.438
297.028
297.575
298.091
298.585
299.067
299.527
299.984
300.445
300.885
301.316
301.747
302.172
302.587
302.976
303.31
303.514
303.499
303.11
302.154
300.447
298.013
295.065
292.306
290.135
289.147
289.68
291.837
295.331
299.569
303.387
307.299
309.248
307.917
302.72
294.059
282.293
275.621
276.749
273.588
301.277
294.59
311.602
262.874
99.1279
62.0702
211.781
213.512
227.446
227.102
212.509
192.399
144.906
88.9619
42.0914
23.7816
55.8848
125.984
230.641
326.8
408.766
468.54
501.795
517.95
529.767
531.988
539.311
536.809
530.721
518.367
510.054
521.049
527.352
534.601
536.056
213.167
213.906
214.185
214.171
214.188
214.368
214.675
215.05
215.477
215.976
216.575
217.292
218.141
219.136
220.291
221.622
223.146
224.876
226.822
228.992
231.389
234.008
236.839
239.866
243.062
246.396
249.832
253.339
256.896
260.472
264.03
267.531
270.935
274.206
277.312
280.225
282.922
285.384
287.599
289.561
291.268
292.724
293.94
294.93
295.726
296.393
296.993
297.558
298.08
298.563
299.026
299.477
299.928
300.369
300.816
301.26
301.69
302.121
302.548
302.956
303.327
303.594
303.661
303.388
302.567
300.968
298.558
295.479
292.452
289.953
288.568
288.826
290.865
294.493
299.091
303.213
307.474
309.753
308.302
302.8
293.359
280.111
271.873
272.122
266.901
292.217
287.99
305.381
262.051
90.1336
57.5891
203.491
214.959
227.824
229.015
212.42
187.266
138.073
80.5594
33.0843
11.5007
41.9332
110.462
216.662
315.842
401.874
464.595
499.129
516.362
528.975
531.072
538.444
536.614
530.954
519.087
510.191
520.629
526.905
534.177
535.923
216.386
217.08
217.366
217.383
217.424
217.609
217.908
218.268
218.672
219.137
219.684
220.331
221.088
221.965
222.975
224.132
225.45
226.941
228.618
230.489
232.559
234.83
237.299
239.958
242.79
245.775
248.884
252.087
255.359
258.682
262.031
265.373
268.673
271.895
275.004
277.972
280.773
283.386
285.793
287.98
289.937
291.659
293.148
294.409
295.454
296.296
296.963
297.522
298.041
298.545
299.014
299.451
299.88
300.319
300.755
301.188
301.632
302.071
302.51
302.94
303.345
303.676
303.84
303.695
303.038
301.583
299.237
296.049
292.69
289.738
287.897
287.806
289.832
293.631
298.461
302.932
307.692
310.378
308.815
302.972
292.687
277.838
267.709
267.077
259.577
281.633
279.781
296.969
259.729
78.8665
48.3489
193.545
216.014
227.735
230.743
212.203
181.683
130.775
71.393
22.882
-2.19687
26.2392
93.0363
200.692
303.237
393.649
459.857
495.997
514.398
528.095
530.087
537.339
536.423
531.192
519.985
510.573
520.302
526.47
533.686
535.747
219.474
220.124
220.41
220.453
220.513
220.699
220.989
221.334
221.716
222.149
222.652
223.24
223.919
224.699
225.589
226.602
227.749
229.043
230.494
232.111
233.901
235.87
238.018
240.343
242.837
245.487
248.274
251.175
254.162
257.215
260.319
263.455
266.593
269.703
272.75
275.703
278.537
281.226
283.752
286.096
288.245
290.187
291.916
293.43
294.735
295.839
296.751
297.478
298.04
298.505
298.961
299.426
299.865
300.279
300.694
301.129
301.571
302.021
302.47
302.919
303.373
303.768
304.045
304.037
303.574
302.309
300.074
296.805
293.098
289.489
287.169
286.588
288.5
292.446
297.721
302.595
307.949
311.155
309.523
303.33
292.071
275.39
263.027
261.395
251.597
269.552
269.826
286.114
257.586
69.1841
40.6739
181.813
216.476
226.794
232.257
211.822
175.605
122.667
61.1798
11.1522
-17.4691
8.46877
73.5257
182.45
288.701
383.808
454.135
492.241
512.008
527.028
529.013
536.062
536.287
531.43
521.066
511.234
520.092
526.069
533.137
535.526
222.439
223.044
223.326
223.39
223.464
223.65
223.93
224.258
224.619
225.024
225.488
226.024
226.638
227.336
228.127
229.02
230.026
231.155
232.417
233.82
235.373
237.081
238.949
240.977
243.164
245.502
247.981
250.583
253.289
256.074
258.923
261.823
264.758
267.705
270.635
273.517
276.323
279.026
281.604
284.038
286.313
288.415
290.333
292.061
293.595
294.937
296.092
297.071
297.876
298.509
298.986
299.372
299.787
300.244
300.679
301.083
301.502
301.961
302.449
302.923
303.383
303.86
304.267
304.416
304.178
303.16
301.111
297.827
293.713
289.929
286.397
285.096
286.733
290.935
296.815
302.289
308.331
312.166
310.491
303.887
291.64
273.07
258.086
255.319
243.046
256.06
258.025
273.087
254.857
61.8729
37.6506
169.038
216.286
224.825
233.171
211.124
169.212
114.068
50.1193
-2.09687
-34.4007
-11.539
51.7791
161.666
271.932
372.038
447.168
487.699
509.155
525.687
527.839
534.713
536.011
531.667
522.328
512.202
520.025
525.719
532.545
535.263
225.285
225.847
226.124
226.202
226.288
226.472
226.74
227.052
227.393
227.77
228.199
228.689
229.247
229.876
230.583
231.376
232.264
233.255
234.359
235.583
236.934
238.42
240.046
241.814
243.727
245.782
247.972
250.289
252.719
255.243
257.841
260.5
263.21
265.959
268.726
271.487
274.212
276.875
279.45
281.916
284.257
286.458
288.508
290.396
292.116
293.663
295.034
296.231
297.262
298.136
298.858
299.423
299.84
300.162
300.559
301.042
301.507
301.927
302.377
302.9
303.479
303.975
304.472
304.842
304.85
304.149
302.353
299.132
294.65
289.932
285.58
283.233
284.321
288.911
295.613
301.85
308.788
313.42
311.838
304.87
291.46
270.663
252.692
248.659
234.218
241.375
244.343
258.182
250.676
55.8852
34.3293
156.247
215.29
221.854
233.32
209.983
162.5
104.71
37.881
-17.2678
-53.1755
-34.024
27.5279
138.079
252.628
358.009
438.633
482.279
505.867
524.069
526.57
533.364
535.634
531.89
523.753
513.482
520.124
525.43
531.94
534.956
228.02
228.541
228.809
228.899
228.994
229.175
229.43
229.726
230.046
230.399
230.795
231.244
231.751
232.32
232.955
233.663
234.452
235.327
236.298
237.371
238.552
239.849
241.267
242.81
244.482
246.284
248.213
250.265
252.431
254.7
257.056
259.481
261.963
264.496
267.07
269.668
272.267
274.841
277.365
279.816
282.175
284.424
286.551
288.545
290.398
292.102
293.653
295.044
296.274
297.349
298.277
299.072
299.734
300.257
300.644
300.91
301.337
301.909
302.465
302.917
303.427
304.126
304.804
305.31
305.616
305.272
303.878
300.846
295.961
290.308
284.755
281.035
281.237
286.223
294.127
301.518
309.552
315.173
313.661
306.232
291.745
268.854
247.408
240.99
224.423
225.64
228.885
241.008
246.005
57.2444
35.648
145.919
213.842
217.998
232.529
208.471
155.618
94.9821
24.8859
-34.1045
-73.8546
-59.1073
0.718988
111.458
230.497
341.405
428.229
475.959
502.134
522.17
525.193
532.018
535.048
532.105
525.319
515.031
520.421
525.213
531.346
534.603
230.649
231.129
231.388
231.487
231.588
231.765
232.009
232.288
232.589
232.918
233.284
233.696
234.159
234.674
235.247
235.882
236.585
237.362
238.22
239.165
240.202
241.339
242.579
243.929
245.392
246.972
248.667
250.478
252.4
254.426
256.545
258.745
261.009
263.327
265.693
268.101
270.538
272.982
275.412
277.805
280.138
282.392
284.553
286.606
288.542
290.354
292.036
293.581
294.984
296.242
297.357
298.333
299.182
299.922
300.558
301.087
301.482
301.719
302.238
302.989
303.706
304.177
304.875
305.735
306.504
306.537
305.555
302.917
297.905
291.292
284.014
278.17
277.092
282.395
291.928
300.989
310.482
317.362
316.226
308.478
292.66
267.173
242.017
232.835
214.496
209.682
212.034
222.691
240.395
74.3008