/*--------------------------------*- C++ -*----------------------------------*\
| =========                 |                                                 |
| \\      /  F ield         | OpenFOAM: The Open Source CFD Toolbox           |
|  \\    /   O peration     | Version:  2412                                  |
|   \\  /    A nd           | Website:  www.openfoam.com                      |
|    \\/     M anipulation  |                                                 |
\*---------------------------------------------------------------------------*/
FoamFile
{
    version     2.0;
    format      ascii;
    arch        "LSB;label=32;scalar=64";
    class       volVectorField;
    location    "0.835";
    object      ddt0(U);
}
// * * * * * * * * * * * * * * * * * * * * * * * * * * * * * * * * * * * * * //

dimensions      [0 1 -2 0 0 0 0];

internalField   nonuniform List<vector> 
12600
(
(0.109183 9.01494e-23 0.0723144)
(0.0813179 -1.37554e-23 0.0173625)
(0.0266421 4.67512e-22 -0.000503632)
(0.00916321 0 -0.00329711)
(0.00853309 8.52576e-22 -0.00391681)
(0.0102276 1.16457e-21 -0.00379223)
(0.0114941 0 -0.00311962)
(0.0103386 0 -0.00263263)
(0.0056599 -7.91091e-21 -0.00202984)
(-0.00173717 0 -0.00122112)
(-0.0104123 4.47219e-21 -0.000203723)
(-0.0191214 4.47065e-21 0.000910694)
(-0.0270665 -4.35688e-21 0.00195271)
(-0.0337619 0 0.0027907)
(-0.0389115 -3.83015e-21 0.00339594)
(-0.0424566 0 0.00383972)
(-0.0446297 1.13905e-20 0.00423026)
(-0.0458512 0 0.00464123)
(-0.0465222 -3.20479e-21 0.00507987)
(-0.0468632 -1.82972e-21 0.00550119)
(-0.0468787 5.98382e-22 0.00584272)
(-0.0464324 -7.18232e-23 0.0060542)
(-0.0453681 0 0.00611211)
(-0.0436149 4.74183e-21 0.00602084)
(-0.0412315 0 0.00580558)
(-0.0383797 0 0.00550066)
(-0.0352588 8.02841e-21 0.00513856)
(-0.0320428 0 0.00474405)
(-0.028857 2.89979e-23 0.00433609)
(-0.0257912 -8.40778e-21 0.00393343)
(-0.0229321 -8.11954e-21 0.00356011)
(-0.0203779 -7.73688e-21 0.00324376)
(-0.018233 7.32928e-21 0.0030101)
(-0.0165704 1.39209e-20 0.00287247)
(-0.0154101 1.33398e-20 0.00282841)
(-0.0146975 -1.30384e-20 0.00285714)
(-0.0143325 0 0.00292885)
(-0.0141782 1.30008e-20 0.00300707)
(-0.0141192 0 0.00306247)
(-0.0140565 -1.38691e-20 0.0030703)
(-0.0139745 0 0.00302559)
(-0.0138945 1.13686e-22 0.00293148)
(-0.0139397 0 0.00281535)
(-0.0142208 8.05831e-23 0.00270342)
(-0.0149113 -3.37756e-20 0.00264077)
(-0.0160622 3.45175e-20 0.00265064)
(-0.0177345 -3.46689e-20 0.00276633)
(-0.0197643 0 0.0029769)
(-0.0220217 0 0.00328355)
(-0.0241239 -3.45207e-20 0.00363061)
(-0.025852 -6.72864e-20 0.00399451)
(-0.026751 -6.74733e-20 0.00429042)
(-0.0267078 -1.70377e-23 0.00449842)
(-0.0253622 -6.5756e-20 0.00453279)
(-0.0228647 0 0.00441015)
(-0.0190203 6.3051e-20 0.00406414)
(-0.0142679 5.84584e-20 0.00356153)
(-0.00851188 5.72129e-20 0.0028503)
(-0.00241301 0 0.00203892)
(0.00411494 0 0.00107384)
(0.0102073 0 0.000101475)
(0.0159274 -5.45546e-20 -0.000926563)
(0.0201589 0 -0.00180762)
(0.022983 0 -0.00257217)
(0.0232298 -2.8455e-20 -0.00297861)
(0.0213372 0 -0.00308097)
(0.0165463 0 -0.00268564)
(0.0100241 0 -0.00194755)
(0.00168919 1.37767e-19 -0.000807523)
(-0.0067316 -2.02695e-19 0.00047745)
(-0.0149754 -1.35762e-19 0.001848)
(-0.0215718 1.88542e-23 0.00307454)
(-0.0265531 8.8598e-20 0.00406768)
(-0.0295792 0 0.00480797)
(-0.0311969 1.99268e-21 0.00522682)
(-0.0323599 0 0.00560667)
(-0.033305 0 0.00579475)
(-0.0355992 0 0.00630838)
(-0.0380795 -1.40447e-22 0.00668516)
(-0.0423123 -4.7276e-19 0.00757663)
(-0.0449051 7.46938e-19 0.00807518)
(-0.0499426 5.42028e-19 0.00903375)
(-0.0482617 -9.08042e-19 0.0091138)
(-0.0534237 0 0.00989588)
(-0.0453096 0 0.00890401)
(-0.046842 -2.67749e-18 0.00987281)
(-0.0386123 -9.53143e-18 0.00716349)
(-0.0264879 -1.39476e-17 0.00796453)
(-0.0314768 1.03712e-17 0.0053022)
(0.00136292 0 0.00287393)
(-0.0218447 -2.59967e-17 0.00559745)
(0.00864898 -8.34113e-18 -0.00260891)
(0.0324884 3.6042e-18 -0.00197942)
(-0.125109 4.21198e-17 0.0216422)
(0.341806 0 -0.0612676)
(-0.50386 0 0.0945758)
(0.0847745 0 -0.0242693)
(1.00335 0 -0.181338)
(-2.02306 0 0.377515)
(2.83617 0 -0.560151)
(-1.15345 -2.28683e-16 0.215197)
(-3.01606 5.45751e-16 0.517201)
(6.65722 -4.07504e-16 -1.23437)
(-7.90934 0 1.53967)
(2.71657 0 -0.60212)
(5.63287 0 -0.994289)
(-12.7083 2.63809e-16 2.35339)
(11.6684 -3.147e-17 -2.27013)
(-1.31492 2.67847e-16 0.296341)
(-9.63816 0 1.65544)
(15.5748 -5.09827e-16 -2.93758)
(-6.11531 0 1.29887)
(-11.3247 3.47163e-16 1.9851)
(12.1347 3.5348e-16 -2.42879)
(7.59659 1.65207e-16 -1.33685)
(-10.7767 -6.03354e-17 2.09205)
(-2.50255 -2.12855e-17 0.40879)
(7.96825 -2.45318e-20 -1.5072)
(-0.114311 9.99615e-17 0.14859)
(-2.85372 0 0.548136)
(0.190993 -9.13269e-23 0.122723)
(0.157224 0 0.0579868)
(0.09003 -4.73173e-22 0.0142047)
(0.0445797 0 -0.00492583)
(0.0326315 -8.63809e-22 -0.0121544)
(0.034239 -2.06825e-21 -0.0132711)
(0.0357034 -1.34325e-21 -0.0114185)
(0.0317065 0 -0.00907609)
(0.0211956 1.42542e-22 -0.00664107)
(0.00570758 -4.18846e-21 -0.00412119)
(-0.0121939 4.38119e-21 -0.00158596)
(-0.0301068 4.42834e-21 0.000685721)
(-0.0461524 -4.36019e-21 0.00239212)
(-0.0590754 4.18537e-21 0.00343275)
(-0.0683896 7.78011e-21 0.00399519)
(-0.0744835 0 0.00444636)
(-0.0783932 7.81724e-23 0.00510691)
(-0.081243 4.66543e-21 0.00608781)
(-0.0837276 3.25178e-21 0.00729166)
(-0.0859503 0 0.00852368)
(-0.0875957 0 0.00960028)
(-0.0882195 -4.66147e-22 0.0104004)
(-0.0874872 0 0.0108714)
(-0.0853043 -2.37563e-21 0.0110181)
(-0.0818347 6.07222e-21 0.0108864)
(-0.0774195 0 0.0105411)
(-0.0724495 -8.00407e-21 0.0100458)
(-0.0672636 0 0.00945239)
(-0.0621286 8.63388e-21 0.00880872)
(-0.0572725 1.70025e-20 0.00816892)
(-0.0529333 1.64192e-20 0.00760083)
(-0.0493459 7.83105e-21 0.00717296)
(-0.046701 -7.41645e-21 0.00693919)
(-0.0450567 -2.80986e-20 0.00691519)
(-0.0443254 -2.68992e-20 0.00708137)
(-0.0442603 0 0.00737996)
(-0.0445587 0 0.00774287)
(-0.044873 -1.16911e-22 0.00808681)
(-0.0449439 0 0.00834853)
(-0.0445482 1.40014e-20 0.00846595)
(-0.0436617 0 0.00842609)
(-0.0423141 3.06507e-20 0.00822338)
(-0.0407896 0 0.00791906)
(-0.0393283 3.3171e-20 0.00756071)
(-0.0383958 0 0.00726123)
(-0.0381964 -3.4757e-20 0.00707109)
(-0.0391061 0 0.00709784)
(-0.0409977 0 0.00732959)
(-0.0439813 3.46804e-20 0.00782499)
(-0.0474974 0 0.00847701)
(-0.0514623 0 0.00929597)
(-0.0549865 0 0.0100883)
(-0.0580157 6.54807e-20 0.0108561)
(-0.0595251 1.31891e-19 0.0113627)
(-0.0597835 0 0.0116708)
(-0.0578134 0 0.0115484)
(-0.0544133 -5.84684e-20 0.0111664)
(-0.0486725 -5.72101e-20 0.0103022)
(-0.0419617 0 0.00923562)
(-0.0333193 0 0.00772422)
(-0.0247007 0 0.00615319)
(-0.015069 0 0.00426873)
(-0.00708603 -2.93003e-20 0.0026018)
(0.000415093 9.24731e-21 0.000913144)
(0.0042521 2.77409e-20 -0.000138526)
(0.00615416 0 -0.000838312)
(0.00301842 0 -0.000547209)
(-0.00226783 0 0.000262343)
(-0.0121742 -5.78143e-22 0.0020267)
(-0.0226331 2.00756e-19 0.00405676)
(-0.0355997 1.34339e-19 0.00656132)
(-0.0467624 -4.52267e-19 0.00885464)
(-0.0581914 -3.12803e-22 0.0110343)
(-0.0667325 2.29629e-19 0.0127821)
(-0.0748506 -1.96482e-21 0.0141461)
(-0.0812834 0 0.0154067)
(-0.0878249 0 0.0163382)
(-0.0948757 0 0.0178181)
(-0.101889 5.10416e-19 0.0189081)
(-0.110819 0 0.0210201)
(-0.116842 0 0.0221271)
(-0.126834 -5.30494e-19 0.0244924)
(-0.126999 8.8777e-19 0.0245868)
(-0.137021 0 0.0269066)
(-0.1285 0 0.0248831)
(-0.134201 0 0.0274484)
(-0.123126 9.29014e-18 0.0228954)
(-0.110946 -1.1366e-20 0.0239224)
(-0.116125 1.00968e-17 0.0208513)
(-0.0675141 1.2596e-17 0.0143648)
(-0.108052 2.5217e-17 0.0216695)
(-0.0493812 -8.07935e-18 0.0049314)
(0.0239855 -6.99016e-18 -0.000114039)
(-0.377897 0 0.0662476)
(0.884174 0 -0.166096)
(-1.45168 0 0.288007)
(0.393222 0 -0.109564)
(2.65056 8.10019e-17 -0.467031)
(-5.63672 0 1.06368)
(8.46147 0 -1.68457)
(-3.97824 -2.19236e-16 0.874201)
(-7.43016 -2.61459e-16 1.21914)
(18.524 7.80019e-16 -3.46372)
(-23.2593 1.08092e-16 4.61908)
(9.72492 0 -2.20319)
(13.9208 0 -2.3788)
(-34.283 0 6.47152)
(33.1117 1.49405e-17 -6.70033)
(-7.51725 -2.54913e-16 2.00207)
(-23.5343 0 4.02124)
(43.9576 9.68719e-16 -8.50149)
(-21.8253 -1.58489e-17 4.72256)
(-28.019 -6.59074e-16 4.90404)
(36.7491 0 -7.53586)
(17.0791 0 -2.85605)
(-30.4723 -5.70931e-17 6.08888)
(-4.67147 0 0.593165)
(22.0168 3.32233e-17 -4.27977)
(-1.80611 -9.43383e-17 0.310248)
(-8.50898 0 1.67033)
(0.211214 0 0.122943)
(0.196121 0 0.0859507)
(0.149996 -1.28081e-22 0.0387352)
(0.102698 0 0.00364624)
(0.0775852 0 -0.0159885)
(0.0688778 9.88136e-22 -0.0221369)
(0.0638766 1.27204e-21 -0.0200343)
(0.0548658 0 -0.0149837)
(0.0393298 8.23506e-23 -0.00985852)
(0.018338 3.96787e-21 -0.00549698)
(-0.00543335 -8.22016e-21 -0.00228085)
(-0.0290156 -4.19576e-21 -0.000573081)
(-0.0497831 6.11217e-23 -0.0004479)
(-0.0659213 -3.96593e-21 -0.00148076)
(-0.0768543 -3.68918e-21 -0.00283459)
(-0.0834074 3.26521e-21 -0.00362967)
(-0.0873557 -5.58176e-21 -0.0033751)
(-0.0904794 -4.42115e-21 -0.00212939)
(-0.0937649 0 -0.000302954)
(-0.0972399 0 0.00166019)
(-0.100342 7.6652e-22 0.00346693)
(-0.102398 -3.25892e-22 0.00498237)
(-0.102933 0 0.00616549)
(-0.101794 0 0.00702223)
(-0.0991458 -5.75377e-21 0.00758738)
(-0.0953685 0 0.00790843)
(-0.0908988 1.51374e-20 0.00803103)
(-0.0861042 -7.98641e-21 0.00799613)
(-0.0812679 0 0.00785728)
(-0.0766436 -8.04152e-21 0.00769067)
(-0.0725211 -7.76703e-21 0.0075936)
(-0.0691934 0 0.00765172)
(-0.0668901 6.97632e-21 0.00791737)
(-0.0656579 1.32762e-20 0.00838503)
(-0.0653686 7.0636e-23 0.00901602)
(-0.0657111 0 0.00973825)
(-0.0663451 0 0.0104871)
(-0.0668835 -1.23273e-20 0.0111766)
(-0.0670706 0 0.0117466)
(-0.0666596 0 0.0121165)
(-0.0656595 0 0.0122687)
(-0.0640848 0 0.0121709)
(-0.0622969 0 0.0118905)
(-0.0605286 0 0.0114552)
(-0.0593716 0 0.0110105)
(-0.0590071 3.27667e-20 0.0106004)
(-0.0599767 -3.29245e-20 0.0103999)
(-0.0620793 0 0.0104026)
(-0.0656288 -3.28109e-20 0.0107679)
(-0.0699099 0 0.011387)
(-0.075081 0 0.0123791)
(-0.0799619 6.42225e-20 0.0134996)
(-0.0847704 0 0.0148392)
(-0.0880121 -6.23761e-20 0.0160375)
(-0.0903063 5.94926e-20 0.0172331)
(-0.090041 0 0.0180105)
(-0.0885443 5.52655e-20 0.018638)
(-0.0841214 0 0.0186725)
(-0.0789265 0 0.0185393)
(-0.0710175 0 0.0177367)
(-0.0634252 6.58789e-20 0.0168515)
(-0.0538866 5.18957e-20 0.0153222)
(-0.0464954 -1.81051e-22 0.0139457)
(-0.0385762 -1.76766e-20 0.0121259)
(-0.035146 -2.68572e-22 0.0108822)
(-0.0326584 0 0.00956031)
(-0.036467 0 0.00929614)
(-0.0415123 1.40081e-19 0.00925225)
(-0.0528597 -5.8691e-22 0.0104731)
(-0.0638649 0 0.0118605)
(-0.0792926 0 0.0142466)
(-0.0918977 2.13259e-19 0.0164391)
(-0.106626 -3.15781e-22 0.019087)
(-0.1173 2.21909e-22 0.0212941)
(-0.129152 0 0.0235305)
(-0.138147 0 0.0255242)
(-0.148418 -2.32802e-19 0.0273098)
(-0.158282 -4.15794e-19 0.0294486)
(-0.168665 0 0.0310799)
(-0.180729 0 0.0337564)
(-0.189449 0 0.0351143)
(-0.203081 0 0.0382993)
(-0.204852 0 0.0384299)
(-0.219048 0 0.04196)
(-0.210457 0 0.0399828)
(-0.22071 0 0.0435416)
(-0.20776 -8.75172e-18 0.0399269)
(-0.197451 6.38751e-18 0.0406069)
(-0.204767 -9.48972e-18 0.0398179)
(-0.143705 -1.18362e-17 0.0311494)
(-0.205579 -2.3706e-17 0.0411773)
(-0.117428 7.58892e-18 0.0216055)
(-0.0149793 3.29103e-18 0.0103548)
(-0.619961 0 0.10366)
(1.33879 0 -0.240812)
(-2.38227 0 0.476721)
(0.810478 0 -0.261483)
(3.94243 -7.59932e-17 -0.611526)
(-8.9467 0 1.61512)
(13.8348 0 -2.77073)
(-7.24414 2.05562e-16 1.8807)
(-10.3726 0 1.35068)
(28.9284 -3.65569e-16 -5.19536)
(-37.9216 -1.01295e-16 7.61205)
(17.9336 0 -4.42976)
(19.5143 0 -2.73115)
(-52.1717 0 9.51566)
(52.5702 1.3568e-17 -10.8609)
(-16.9576 0 5.00722)
(-32.3529 3.3451e-16 4.63827)
(69.9837 -1.43199e-19 -13.4325)
(-40.1493 1.48332e-17 9.40258)
(-39.7321 6.17581e-16 6.10169)
(60.5174 0 -12.7988)
(21.8681 -1.45796e-16 -2.67261)
(-48.1819 5.34038e-17 9.72662)
(-4.32855 -1.89323e-17 -0.208969)
(34.3176 0 -6.61494)
(-4.72534 8.82095e-17 1.53342)
(-13.9927 0 2.78826)
(0.205504 0 0.109892)
(0.207184 0 0.0936722)
(0.186243 1.20835e-22 0.0561934)
(0.15342 0 0.016675)
(0.126444 -7.02879e-22 -0.0121263)
(0.109318 1.84288e-21 -0.024645)
(0.0966979 0 -0.0240904)
(0.0824954 -2.84379e-21 -0.0175709)
(0.0634496 3.34778e-21 -0.0101493)
(0.0393244 3.58041e-21 -0.00406441)
(0.0118887 3.84793e-21 -0.000455986)
(-0.01597 -3.80271e-21 8.34927e-05)
(-0.0410608 3.84932e-21 -0.00219718)
(-0.0608052 -7.23219e-21 -0.00613766)
(-0.0740916 0 -0.0100485)
(-0.0817155 -6.10475e-21 -0.0124211)
(-0.0859427 0 -0.012607)
(-0.0892566 0 -0.0109589)
(-0.093139 0 -0.00835506)
(-0.0977112 1.78385e-21 -0.00558747)
(-0.102231 -3.8851e-23 -0.00307339)
(-0.105809 -2.24039e-23 -0.000924606)
(-0.10783 -1.24368e-21 0.000873267)
(-0.108074 0 0.00235669)
(-0.106673 0 0.00356371)
(-0.104006 0 0.00452765)
(-0.100532 -1.42567e-20 0.00527078)
(-0.0966334 3.35762e-23 0.00581251)
(-0.0925923 0 0.00620218)
(-0.0886612 0 0.00653089)
(-0.0851564 0 0.00691935)
(-0.0824131 0 0.00746289)
(-0.0807014 -1.31567e-20 0.00820564)
(-0.080072 0 0.0091197)
(-0.0803865 1.19407e-20 0.0101554)
(-0.081307 0 0.0112415)
(-0.082498 0 0.0123338)
(-0.0835679 1.14621e-20 0.0133564)
(-0.0842914 0 0.0142603)
(-0.0844079 0 0.014949)
(-0.0839594 -1.2783e-20 0.0154011)
(-0.082926 2.68829e-20 0.0155552)
(-0.0817188 0 0.0154819)
(-0.0805155 2.9264e-20 0.015181)
(-0.0799851 0 0.0148225)
(-0.0802205 -6.18001e-20 0.0144293)
(-0.0818798 8.72459e-23 0.0142302)
(-0.0846299 0 0.0142058)
(-0.0889646 0 0.0146013)
(-0.0939799 3.10361e-20 0.0152863)
(-0.100097 6.04828e-20 0.0164792)
(-0.10585 -1.2127e-19 0.0178712)
(-0.111807 0 0.0196457)
(-0.116047 -5.88843e-20 0.0213212)
(-0.119664 -5.61588e-20 0.0231351)
(-0.120463 -5.62635e-20 0.0245028)
(-0.12044 -5.20669e-20 0.0258233)
(-0.117126 0 0.0264446)
(-0.113581 0 0.0269706)
(-0.106823 -8.12931e-20 0.0266437)
(-0.101062 -1.24296e-19 0.0262862)
(-0.0926702 -4.89465e-20 0.0250276)
(-0.0872619 -1.54196e-22 0.0239696)
(-0.0804246 8.43404e-21 0.0221507)
(-0.0791045 -1.19371e-20 0.0209864)
(-0.0776175 0 0.0194211)
(-0.0837029 0 0.0190996)
(-0.0897356 -1.32009e-19 0.0187487)
(-0.103616 -2.40041e-19 0.0200086)
(-0.11569 0 0.0212775)
(-0.133946 -1.17947e-19 0.0240031)
(-0.147743 -2.00452e-19 0.0264021)
(-0.165534 -7.71159e-20 0.0297061)
(-0.177569 -4.08037e-19 0.0323933)
(-0.192672 0 0.0354362)
(-0.203311 0 0.0380017)
(-0.216935 2.19072e-19 0.0404996)
(-0.228809 7.83251e-19 0.0431552)
(-0.242467 -4.51978e-19 0.0452823)
(-0.257001 0 0.0484965)
(-0.268575 0 0.0501673)
(-0.285262 0 0.0541131)
(-0.289021 0 0.0544446)
(-0.306941 0 0.0589281)
(-0.298946 0 0.0570924)
(-0.313366 2.31887e-18 0.061547)
(-0.299526 -5.2791e-21 0.0579158)
(-0.291057 -6.01575e-18 0.0593513)
(-0.301362 0 0.058343)
(-0.229136 -1.11245e-17 0.0490677)
(-0.312488 1.11275e-17 0.0609379)
(-0.193954 0 0.0353849)
(-0.0767774 3.14786e-18 0.027861)
(-0.844766 -3.60384e-17 0.128336)
(1.71072 0 -0.292597)
(-3.26873 0 0.662848)
(1.31346 0 -0.469688)
(4.8749 -7.10966e-17 -0.641425)
(-11.9063 0 2.05635)
(18.7931 0 -3.79257)
(-10.857 1.92802e-16 3.02393)
(-11.8806 2.29979e-16 1.07665)
(37.6815 0 -6.5007)
(-51.4685 0 10.4557)
(26.8489 0 -7.02761)
(22.4675 0 -2.3253)
(-66.1769 0 11.7418)
(69.8264 -1.26094e-19 -14.7719)
(-29.0216 0 8.52235)
(-36.4346 -3.13024e-16 3.91387)
(93.0867 -4.24042e-16 -17.6579)
(-60.365 0 14.7867)
(-46.3757 4.11569e-19 6.06578)
(82.6886 0 -17.923)
(22.3296 3.62038e-19 -1.3773)
(-63.5805 0 13.0205)
(-1.94044 1.7701e-17 -1.64)
(44.7088 0 -8.60075)
(-8.90506 8.25226e-17 3.14584)
(-19.0965 0 3.85575)
(0.195308 0 0.0992295)
(0.202724 0 0.0919361)
(0.197453 0 0.0659443)
(0.180002 0 0.02935)
(0.158115 6.63443e-22 -0.00282543)
(0.137739 1.3982e-23 -0.0200753)
(0.120125 0 -0.0226752)
(0.103258 2.68408e-21 -0.0169736)
(0.0843728 0 -0.00863724)
(0.0616389 -6.65862e-21 -0.00118972)
(0.0348661 0 0.00295612)
(0.00577201 3.58995e-21 0.00247515)
(-0.0224608 0 -0.00231279)
(-0.0463755 6.82826e-21 -0.00952819)
(-0.063639 -3.07654e-21 -0.0164927)
(-0.0741021 5.59695e-21 -0.0208585)
(-0.0798484 -4.65695e-21 -0.0216587)
(-0.0839192 -3.6813e-21 -0.019539)
(-0.0885521 0 -0.015987)
(-0.0942724 -1.68444e-21 -0.0122986)
(-0.100297 -6.4793e-22 -0.00908327)
(-0.105516 6.78254e-22 -0.00640814)
(-0.109158 1.17436e-21 -0.00415171)
(-0.110921 0 -0.00220798)
(-0.110889 0 -0.000513074)
(-0.109416 0 0.000966525)
(-0.10699 6.71601e-21 0.00223647)
(-0.104039 7.09978e-21 0.00329203)
(-0.100874 0 0.00417091)
(-0.0977448 0 0.0049728)
(-0.094979 -6.84355e-21 0.00583785)
(-0.0929465 0 0.00686552)
(-0.0919648 4.40177e-23 0.00808396)
(-0.0921005 1.16348e-20 0.00943536)
(-0.0932121 -1.11011e-20 0.0108575)
(-0.094931 0 0.0122839)
(-0.0969209 0 0.0136998)
(-0.0987759 -1.08182e-20 0.0150465)
(-0.100298 0 0.016293)
(-0.101203 0 0.0173293)
(-0.101566 1.20628e-20 0.0181341)
(-0.101319 -2.53669e-20 0.0186166)
(-0.100926 0 0.0188509)
(-0.100498 -2.76101e-20 0.0188022)
(-0.100787 0 0.018659)
(-0.101785 2.90958e-20 0.018409)
(-0.104279 2.92571e-20 0.0183264)
(-0.107786 0 0.0183613)
(-0.112996 2.91213e-20 0.0188404)
(-0.118792 -2.92688e-20 0.0195985)
(-0.125877 -1.13983e-19 0.0209587)
(-0.132469 5.71652e-20 0.022543)
(-0.139521 -5.51314e-20 0.0246487)
(-0.144651 7.37613e-23 0.026677)
(-0.14949 0 0.0289967)
(-0.151214 5.30306e-20 0.0308571)
(-0.15257 4.90702e-20 0.0328202)
(-0.15025 -4.7901e-20 0.0340143)
(-0.148318 4.16344e-20 0.0352458)
(-0.142659 7.65898e-20 0.0354762)
(-0.13879 5.85504e-20 0.0357865)
(-0.131585 -4.61521e-20 0.0349655)
(-0.128346 2.48836e-20 0.0344439)
(-0.12274 0 0.0328531)
(-0.123855 0 0.0320235)
(-0.123622 -2.98832e-20 0.0304385)
(-0.132435 0 0.0302634)
(-0.139774 0 0.029723)
(-0.156714 1.12644e-19 0.0310782)
(-0.17017 0 0.0321803)
(-0.191797 1.1097e-19 0.0351511)
(-0.207031 3.76677e-19 0.0376016)
(-0.228417 0 0.0414222)
(-0.241976 1.91877e-19 0.0444578)
(-0.260863 0 0.0482337)
(-0.273234 0 0.051342)
(-0.290786 -2.04602e-19 0.0545691)
(-0.304715 -3.68479e-19 0.0577965)
(-0.322305 1.1193e-21 0.0604615)
(-0.339307 0 0.0642663)
(-0.354493 0 0.0662466)
(-0.374186 0 0.0709708)
(-0.380833 -7.38056e-19 0.0714832)
(-0.402416 -5.64742e-19 0.0770115)
(-0.396093 0 0.0752855)
(-0.414593 -4.35382e-18 0.080948)
(-0.400984 3.86667e-18 0.0770646)
(-0.394613 1.12918e-17 0.0799177)
(-0.408387 -8.38156e-18 0.0782518)
(-0.326327 2.08661e-17 0.0695578)
(-0.430632 0 0.0833264)
(-0.280808 0 0.0503335)
(-0.162084 -2.95163e-18 0.0542142)
(-1.05395 3.37866e-17 0.143371)
(1.99958 6.81624e-17 -0.3152)
(-4.09779 0 0.838794)
(1.86982 0 -0.722683)
(5.46082 6.66132e-17 -0.538612)
(-14.4639 1.98652e-18 2.35465)
(23.2083 0 -4.70274)
(-14.6805 -1.80564e-16 4.29689)
(-12.1202 -2.1535e-16 0.352062)
(44.7241 0 -7.28348)
(-63.5634 0 13.0091)
(35.9433 0 -9.90685)
(23.032 0 -1.08564)
(-76.3504 0 12.9778)
(84.828 -1.17645e-17 -18.2644)
(-42.813 0 12.844)
(-36.4374 0 2.00062)
(112.862 0 -21.0512)
(-81.5369 -1.1288e-17 20.7341)
(-48.3804 -2.70664e-16 4.4955)
(102.628 0 -22.6853)
(18.9904 1.2713e-16 1.25153)
(-76.2704 0 15.7103)
(1.86322 1.65836e-17 -3.7135)
(53.0151 0 -10.0696)
(-14.2691 -7.71205e-17 4.65941)
(-23.5798 0 4.78586)
(0.186097 3.03128e-22 0.0934134)
(0.192405 6.00275e-23 0.0880695)
(0.192181 1.56206e-22 0.0700943)
(0.184496 3.99696e-22 0.0396385)
(0.168707 0 0.00902846)
(0.148426 -8.37214e-22 -0.0104325)
(0.128436 0 -0.0167055)
(0.110711 2.4853e-21 -0.0138765)
(0.0941782 2.77935e-21 -0.00655213)
(0.0763774 6.07416e-21 0.00143185)
(0.0550434 -3.0996e-21 0.00639494)
(0.0296108 3.13745e-21 0.00570906)
(0.00190292 0 -0.000860512)
(-0.0245798 0 -0.0111153)
(-0.046217 2.90048e-21 -0.0214638)
(-0.0610338 -1.19838e-22 -0.028466)
(-0.0698016 2.20444e-22 -0.0304345)
(-0.075441 1.95669e-22 -0.0280608)
(-0.0809742 0 -0.0234904)
(-0.0877344 0 -0.0187358)
(-0.095205 0 -0.0147561)
(-0.102128 -7.73145e-22 -0.0115945)
(-0.107541 -1.19816e-21 -0.00897216)
(-0.111041 0 -0.00667352)
(-0.112629 0 -0.00459258)
(-0.112586 -5.70448e-21 -0.00268291)
(-0.111399 0 -0.000943085)
(-0.109566 0 0.00059869)
(-0.107461 0 0.00195758)
(-0.105333 0 0.00323094)
(-0.10349 4.44529e-23 0.00457566)
(-0.10231 0 0.00609623)
(-0.102166 4.70729e-23 0.00780296)
(-0.103161 -1.09675e-20 0.00960154)
(-0.105168 9.72263e-23 0.0114125)
(-0.107784 0 0.0131737)
(-0.110664 0 0.0149049)
(-0.113381 0 0.016569)
(-0.115768 0 0.0181572)
(-0.117518 0 0.0195468)
(-0.118743 0 0.0207198)
(-0.119324 0 0.0215548)
(-0.119783 2.45602e-20 0.0221333)
(-0.120156 2.56525e-20 0.0223816)
(-0.121292 0 0.0225088)
(-0.123068 2.71127e-20 0.0224588)
(-0.12642 0 0.0225519)
(-0.1307 0 0.0226963)
(-0.136822 -5.47555e-20 0.0233021)
(-0.143421 0 0.0241563)
(-0.151521 5.36323e-20 0.0256928)
(-0.158978 0 0.0274525)
(-0.167181 1.03715e-19 0.0298612)
(-0.173231 1.28224e-22 0.032194)
(-0.179363 0 0.0349759)
(-0.18205 0 0.0372802)
(-0.184875 0 0.0398592)
(-0.183587 9.00368e-20 0.0416029)
(-0.183369 -7.82757e-20 0.0435457)
(-0.178837 -7.17413e-20 0.0443395)
(-0.176967 -5.4973e-20 0.0453514)
(-0.170969 8.67728e-20 0.044996)
(-0.170027 2.35773e-20 0.0450673)
(-0.165676 0 0.0437517)
(-0.169399 0 0.0433351)
(-0.170465 2.55726e-22 0.0417945)
(-0.182239 0 0.0418568)
(-0.190955 0 0.0411904)
(-0.211258 1.04678e-19 0.04272)
(-0.226193 0 0.0436926)
(-0.251571 0 0.0469571)
(-0.268374 -3.5292e-19 0.0494684)
(-0.293844 6.7613e-20 0.0538376)
(-0.309104 0 0.0572324)
(-0.332383 0 0.0617881)
(-0.346698 0 0.0654857)
(-0.368898 1.92153e-19 0.0695286)
(-0.385112 0 0.0734278)
(-0.40746 7.93817e-19 0.0767557)
(-0.427151 3.64998e-19 0.0812843)
(-0.446896 0 0.0837089)
(-0.469796 0 0.0893455)
(-0.480424 6.9258e-19 0.0901519)
(-0.505859 1.19452e-21 0.0968609)
(-0.502431 9.05405e-19 0.0953059)
(-0.525184 2.04207e-18 0.102361)
(-0.513062 3.62606e-18 0.098119)
(-0.509293 -5.29494e-18 0.102813)
(-0.527165 7.8585e-18 0.100029)
(-0.436904 -1.44945e-20 0.092707)
(-0.561609 0 0.107798)
(-0.38037 6.17927e-18 0.0667114)
(-0.272291 0 0.0873836)
(-1.25081 0 0.149204)
(2.20315 -6.38554e-17 -0.311078)
(-4.85967 0 0.997891)
(2.44285 0 -1.00766)
(5.71823 0 -0.313336)
(-16.5683 -1.86001e-18 2.5023)
(26.9814 0 -5.4799)
(-18.5698 -1.68988e-16 5.64432)
(-11.3153 0 -0.77786)
(50.0656 0 -7.54127)
(-73.9298 0 15.2307)
(44.6877 0 -12.9727)
(21.4995 0 0.87593)
(-82.8395 1.93111e-16 13.2958)
(97.5299 -1.0801e-17 -21.3342)
(-57.4966 1.96465e-16 17.6106)
(-33.1384 0 -0.924021)
(129.157 0 -23.6651)
(-102.454 2.05054e-17 27.0338)
(-46.572 0 1.55784)
(119.811 2.55602e-16 -26.9421)
(12.3629 0 4.95719)
(-85.8142 4.31792e-17 17.7374)
(6.47816 -1.5497e-17 -6.22353)
(59.0852 0 -10.9991)
(-20.386 -7.21688e-17 6.982)
(-27.2677 0 5.57585)
(0.176866 -2.8542e-22 0.089824)
(0.180859 -3.97531e-23 0.0840551)
(0.179991 -1.47186e-22 0.070719)
(0.176401 3.86487e-23 0.0470043)
(0.165248 6.29228e-22 0.0206556)
(0.146936 0 0.00106843)
(0.126857 0 -0.00843256)
(0.109178 -2.34025e-21 -0.00950911)
(0.0947107 -5.15961e-21 -0.00492507)
(0.0818262 -1.15411e-22 0.00222993)
(0.0675825 2.9184e-21 0.00776618)
(0.0494071 -2.954e-21 0.0077816)
(0.0267642 2.76499e-21 0.000917302)
(0.00160113 0 -0.0110922)
(-0.0224097 0 -0.0243468)
(-0.0416158 -2.32726e-21 -0.0343957)
(-0.0545342 7.59627e-21 -0.0383601)
(-0.0627387 5.93657e-21 -0.0363771)
(-0.0694337 0 -0.0309964)
(-0.076958 0 -0.025101)
(-0.0855232 0 -0.0202632)
(-0.0939625 -1.08567e-22 -0.0166158)
(-0.101137 2.33747e-21 -0.0136931)
(-0.10652 -1.81474e-21 -0.0111246)
(-0.11001 -4.63287e-21 -0.00875036)
(-0.111742 1.07793e-20 -0.00650165)
(-0.112113 -5.94202e-21 -0.00435899)
(-0.111678 -6.23804e-21 -0.00236266)
(-0.110913 -6.31685e-21 -0.000532647)
(-0.110089 0 0.00120617)
(-0.109457 6.03257e-21 0.00302228)
(-0.109358 -5.6873e-21 0.00503286)
(-0.110213 5.41307e-21 0.00723697)
(-0.112191 1.01332e-20 0.00949903)
(-0.115212 1.9415e-20 0.011714)
(-0.118842 0 0.0138182)
(-0.122723 0 0.0158686)
(-0.126391 9.30425e-21 0.0178528)
(-0.129719 0 0.0197892)
(-0.132379 -9.93568e-21 0.0215408)
(-0.134534 -1.04019e-20 0.0230957)
(-0.136004 0 0.0242998)
(-0.137382 -4.60213e-20 0.0252469)
(-0.138611 -2.41406e-20 0.0258214)
(-0.140657 0 0.0262581)
(-0.143259 -2.5512e-20 0.0264499)
(-0.147533 -2.55373e-20 0.026768)
(-0.152632 0 0.0270668)
(-0.159731 5.12917e-20 0.0278455)
(-0.167179 -2.5669e-20 0.0288269)
(-0.176367 -5.01232e-20 0.0305647)
(-0.184734 0 0.0325005)
(-0.194177 -1.54558e-22 0.0352049)
(-0.201205 9.77595e-20 0.0378109)
(-0.208751 0 0.041026)
(-0.212481 0 0.0437319)
(-0.216931 -4.31317e-20 0.0469042)
(-0.216769 -4.22635e-20 0.0491718)
(-0.218441 7.33905e-20 0.0518319)
(-0.215126 6.74386e-20 0.0531949)
(-0.215446 5.16715e-20 0.0549507)
(-0.21073 -4.07442e-20 0.0551002)
(-0.212291 -4.4337e-20 0.0558422)
(-0.209261 0 0.0548735)
(-0.215821 0 0.0549818)
(-0.21825 5.20938e-20 0.0535864)
(-0.233248 0 0.0540213)
(-0.243401 0 0.0533383)
(-0.26737 -9.83152e-20 0.0551668)
(-0.283848 0 0.0560884)
(-0.313349 9.66922e-20 0.0597192)
(-0.33182 7.87735e-22 0.0623116)
(-0.361851 -6.34758e-20 0.0672419)
(-0.378974 0 0.070978)
(-0.407251 0 0.0763018)
(-0.423734 0 0.0805881)
(-0.451311 1.77562e-19 0.0854641)
(-0.470084 0 0.0901061)
(-0.498046 -3.71581e-19 0.0941694)
(-0.520737 -6.83269e-19 0.0995699)
(-0.546045 0 0.102542)
(-0.572503 0 0.109281)
(-0.588273 0 0.110458)
(-0.617919 2.02322e-21 0.118547)
(-0.618675 -8.48793e-19 0.117175)
(-0.646055 1.90751e-18 0.125856)
(-0.636754 -3.39849e-18 0.12115)
(-0.636303 -4.94917e-18 0.128156)
(-0.659008 0 0.123763)
(-0.562388 -9.14725e-18 0.118925)
(-0.706951 0 0.134383)
(-0.494992 -5.7879e-18 0.085015)
(-0.408483 0 0.127682)
(-1.43914 0 0.145899)
(2.32165 0 -0.278503)
(-5.54664 -8.19197e-17 1.14085)
(2.99335 8.68718e-17 -1.31739)
(5.67888 0 0.0302248)
(-18.1902 2.02613e-18 2.48908)
(30.0568 8.47465e-17 -6.10252)
(-22.3541 1.58118e-16 7.07563)
(-9.74282 1.88163e-16 -2.25094)
(53.7837 0 -7.27931)
(-82.3729 0 17.0486)
(52.6151 0 -16.0859)
(18.2191 0 3.48705)
(-85.9723 -1.80576e-16 12.7131)
(107.944 7.73955e-20 -23.8942)
(-72.1285 -3.67432e-16 22.6166)
(-27.6267 0 -4.86044)
(141.948 0 -25.1605)
(-121.687 -9.30188e-18 33.2987)
(-42.1633 0 -2.53968)
(133.887 -2.3886e-16 -30.5356)
(3.13353 0 9.66248)
(-91.991 -8.04423e-17 18.9621)
(11.3319 0 -9.00805)
(62.7912 0 -11.3266)
(-27.0723 6.74171e-17 9.27125)
(-30.0365 0 6.18542)
(0.167206 0 0.0864113)
(0.169478 -1.57913e-23 0.0802862)
(0.166499 0 0.0697263)
(0.163723 -3.90649e-22 0.0516036)
(0.155457 -1.22283e-21 0.0298115)
(0.139978 0 0.0112241)
(0.121721 9.49832e-22 -0.000436169)
(0.105082 0 -0.00512214)
(0.0918346 8.56088e-23 -0.00401501)
(0.0817603 -4.94381e-21 0.000970257)
(0.0728083 0 0.00609344)
(0.0619311 0 0.00693914)
(0.0467602 -2.60058e-21 0.00110157)
(0.0268844 0 -0.0107402)
(0.00433897 0 -0.0253343)
(-0.0170523 0 -0.037958)
(-0.0338395 -3.45137e-21 -0.0445161)
(-0.0452647 -2.68298e-21 -0.0438918)
(-0.0535012 -1.63064e-21 -0.0383471)
(-0.0614642 0 -0.0314768)
(-0.0704381 0 -0.0257284)
(-0.0797772 4.81219e-22 -0.0215732)
(-0.0883135 -1.13736e-21 -0.0184002)
(-0.095407 1.70683e-21 -0.0156395)
(-0.10087 4.35735e-21 -0.0130679)
(-0.104643 -1.0231e-20 -0.0105967)
(-0.106907 -2.57144e-23 -0.00815797)
(-0.10817 5.86686e-21 -0.00577027)
(-0.109032 5.9409e-21 -0.00349287)
(-0.109838 0 -0.00130413)
(-0.110776 0 0.000960047)
(-0.112079 5.34852e-21 0.00344045)
(-0.11418 0 0.00614205)
(-0.117333 -9.52914e-21 0.00888763)
(-0.12155 -9.07964e-21 0.0115342)
(-0.126388 8.67807e-21 0.0140034)
(-0.131468 0 0.0163899)
(-0.136267 -8.74857e-21 0.0187088)
(-0.140703 -8.85331e-21 0.0210127)
(-0.144421 1.158e-22 0.0231477)
(-0.147659 1.94453e-20 0.0251104)
(-0.150162 0 0.0267093)
(-0.152609 2.15352e-20 0.0280564)
(-0.154827 0 0.0289898)
(-0.157922 0 0.0297777)
(-0.161471 0 0.0302532)
(-0.166799 1.72634e-22 0.0308467)
(-0.17282 0 0.031345)
(-0.181021 -2.40436e-20 0.0323463)
(-0.189405 4.81053e-20 0.0334908)
(-0.1998 4.71015e-20 0.0354655)
(-0.209154 0 0.0375903)
(-0.219965 -4.56349e-20 0.0406017)
(-0.228055 -9.14618e-20 0.0434672)
(-0.237172 0 0.0471086)
(-0.242045 0 0.0501898)
(-0.248308 4.05159e-20 0.0539498)
(-0.24938 3.93398e-20 0.0567241)
(-0.253156 -3.44119e-20 0.0601166)
(-0.251162 -6.27551e-20 0.0620541)
(-0.253904 0 0.0645973)
(-0.250566 0 0.0652835)
(-0.254879 1.83449e-23 0.0667695)
(-0.253256 -7.02143e-21 0.0662073)
(-0.262931 0 0.0669434)
(-0.266798 -2.43413e-20 0.0657794)
(-0.285323 0 0.0667122)
(-0.29698 0 0.0661125)
(-0.324949 0 0.0683623)
(-0.343038 0 0.0693161)
(-0.377052 -3.18584e-22 0.0733974)
(-0.397292 9.21558e-22 0.0761137)
(-0.432375 5.95213e-20 0.0816373)
(-0.451529 0 0.0857283)
(-0.485415 -2.67273e-22 0.0918233)
(-0.504309 0 0.0967275)
(-0.538003 -1.665e-19 0.102453)
(-0.559663 -3.01071e-19 0.107934)
(-0.594105 -3.43553e-19 0.112789)
(-0.620209 3.19547e-19 0.119243)
(-0.652104 0 0.122846)
(-0.682621 -3.60028e-19 0.130932)
(-0.704714 0 0.132534)
(-0.73913 4.62561e-19 0.14228)
(-0.745378 -7.89677e-19 0.141078)
(-0.77802 -1.78696e-18 0.15171)
(-0.772923 0 0.146414)
(-0.7768 9.25585e-18 0.15628)
(-0.805172 0 0.149779)
(-0.704356 -8.51049e-18 0.14856)
(-0.86831 0 0.163366)
(-0.627073 -5.34286e-18 0.106111)
(-0.571628 0 0.176781)
(-1.62303 2.78422e-17 0.133869)
(2.35554 5.57904e-17 -0.217995)
(-6.15628 7.66604e-17 1.26046)
(3.48567 -8.12862e-17 -1.63966)
(5.3839 0 0.481286)
(-19.3296 -3.94427e-18 2.31375)
(32.4151 -1.58455e-16 -6.55736)
(-25.8746 0 8.52333)
(-7.70433 -1.75978e-16 -4.00527)
(56.001 0 -6.51541)
(-88.7733 0 18.4308)
(59.3603 1.23717e-16 -19.1541)
(13.5839 0 6.63874)
(-86.2636 0 11.3108)
(116.122 9.36745e-18 -25.9075)
(-85.6973 3.43467e-16 27.6635)
(-21.0772 -2.3937e-16 -9.59676)
(151.22 0 -25.575)
(-137.675 0 39.2398)
(-36.5654 0 -7.58982)
(144.661 0 -33.2835)
(-7.84168 -1.01973e-16 15.1434)
(-94.9086 3.74582e-17 19.3721)
(15.8859 0 -12.1595)
(64.0797 0 -11.0192)
(-33.8262 0 11.8806)
(-31.899 0 6.536)
(0.157505 1.22445e-22 0.0823402)
(0.158463 0 0.076275)
(0.153553 3.47282e-22 0.0674845)
(0.150426 0 0.0533303)
(0.143852 5.92902e-22 0.0353109)
(0.13124 0 0.0182285)
(0.115828 -8.92712e-22 0.00568041)
(0.10118 1.95003e-21 -0.00146341)
(0.0889827 4.23656e-21 -0.00350996)
(0.0799409 1.30073e-22 -0.00141922)
(0.0734451 0 0.0021028)
(0.0673163 0 0.0030508)
(0.0587797 0 -0.001389)
(0.0457539 0 -0.0115499)
(0.0280368 0 -0.0254649)
(0.00796407 0 -0.0391835)
(-0.0105957 2.64038e-21 -0.0480994)
(-0.0247901 -1.97492e-21 -0.0496324)