/*--------------------------------*- C++ -*----------------------------------*\
| =========                 |                                                 |
| \\      /  F ield         | OpenFOAM: The Open Source CFD Toolbox           |
|  \\    /   O peration     | Version:  2412                                  |
|   \\  /    A nd           | Website:  www.openfoam.com                      |
|    \\/     M anipulation  |                                                 |
\*---------------------------------------------------------------------------*/
FoamFile
{
    version     2.0;
    format      ascii;
    arch        "LSB;label=32;scalar=64";
    class       surfaceScalarField;
    location    "1.38";
    object      ddtCorrDdt0(phi);
}
// * * * * * * * * * * * * * * * * * * * * * * * * * * * * * * * * * * * * * //

dimensions      [0 3 -2 0 0 0 0];

oriented        oriented;

internalField   nonuniform List<scalar> 
24930
(
-5.98328e-07
-9.78287e-06
-1.56168e-05
7.63979e-07
-1.13531e-06
-6.32034e-09
1.13416e-06
-8.21324e-07
1.19044e-06
-1.39692e-06
9.37636e-07
-1.7226e-06
6.70067e-07
-1.85012e-06
4.47113e-07
-1.95466e-06
3.88743e-07
-2.10366e-06
3.935e-07
-2.30717e-06
4.14028e-07
-2.52112e-06
3.98336e-07
-2.70253e-06
3.44071e-07
-2.83842e-06
2.75291e-07
-2.94216e-06
2.1282e-07
-3.03643e-06
1.62592e-07
-3.13921e-06
1.18769e-07
-3.25886e-06
7.2214e-08
-3.3963e-06
1.70552e-08
-3.54906e-06
-4.77995e-08
-3.71352e-06
-1.20488e-07
-3.88478e-06
-1.98601e-07
-4.05598e-06
-2.79707e-07
-4.2178e-06
-3.61377e-07
-4.35934e-06
-4.40215e-07
-4.46905e-06
-5.12713e-07
-4.53781e-06
-5.73797e-07
-4.56066e-06
-6.18995e-07
-4.54075e-06
-6.4226e-07
-4.48731e-06
-6.4193e-07
-4.41765e-06
-6.15868e-07
-4.34906e-06
-5.70687e-07
-4.30272e-06
-5.08546e-07
-4.29135e-06
-4.42408e-07
-4.33099e-06
-3.71105e-07
-4.42265e-06
-3.09453e-07
-4.57619e-06
-2.46497e-07
-4.77967e-06
-2.01256e-07
-5.04095e-06
-1.51674e-07
-5.3372e-06
-1.28098e-07
-5.68396e-06
-9.40646e-08
-6.05275e-06
-9.78613e-08
-6.47813e-06
-8.18212e-08
-6.92561e-06
-1.20405e-07
-7.45224e-06
-1.25312e-07
-8.00528e-06
-2.06941e-07
-8.66065e-06
-2.33176e-07
-9.33133e-06
-3.60777e-07
-1.01138e-05
-3.97396e-07
-1.08782e-05
-5.60836e-07
-1.17543e-05
-5.83075e-07
-1.25689e-05
-7.62229e-07
-1.35036e-05
-7.39596e-07
-1.43382e-05
-9.1501e-07
-1.53147e-05
-8.21803e-07
-1.61482e-05
-9.78927e-07
-1.7132e-05
-7.90414e-07
-1.7883e-05
-9.05973e-07
-1.87235e-05
-5.80091e-07
-1.91392e-05
-6.02443e-07
-1.94717e-05
-6.88368e-08
-1.90818e-05
7.30668e-08
-1.8377e-05
8.68519e-07
-1.66877e-05
1.1815e-06
-1.46189e-05
2.15391e-06
-1.16359e-05
2.44135e-06
-8.66256e-06
3.25691e-06
-5.37824e-06
3.12775e-06
-2.92634e-06
3.39306e-06
-1.02398e-06
2.65117e-06
-6.65577e-07
2.38504e-06
-1.32682e-06
1.37237e-06
-3.55407e-06
9.88439e-07
-6.60594e-06
1.44657e-07
-1.06329e-05
-1.84393e-07
-1.49889e-05
-7.47798e-07
-1.95709e-05
-9.4065e-07
-2.40047e-05
-9.01532e-07
-2.79992e-05
-5.24981e-07
-3.14048e-05
2.11593e-07
-3.40948e-05
9.71747e-07
-3.56938e-05
1.16302e-06
-3.72127e-05
2.0097e-06
-3.63921e-05
3.54204e-07
-3.74529e-05
2.92739e-06
-3.37804e-05
-1.06283e-06
-3.27859e-05
2.1301e-06
-3.00998e-05
4.30696e-07
-3.00783e-05
2.62946e-06
-2.7416e-05
-1.07704e-06
-2.48812e-05
-2.43177e-06
-2.80354e-05
2.56008e-06
-1.60855e-05
-1.28793e-05
-2.76777e-05
1.08348e-05
-7.02336e-06
-2.06317e-05
-1.97996e-05
1.35194e-05
-1.57833e-05
-2.59975e-06
-2.38075e-05
8.56138e-06
7.52056e-05
-0.000101922
-8.91662e-06
8.24496e-05
0.000190882
-0.000200902
-0.000220315
0.000395255
-3.10125e-05
-0.000272668
0.000640142
-0.000673144
0.000227121
0.000386119
-0.000608684
0.000783454
-0.000244901
-0.000360511
0.00168132
-0.00199355
-0.00109063
0.00273531
2.51963e-05
-0.00115212
0.00223509
-0.00218139
-0.000299804
0.00249076
0.0030434
-0.00343316
0.00293021
7.79399e-05
-0.00294784
0.00598687
0.000373158
-0.00329692
-0.00099987
0.00146921
-0.00756504
0.00679022
-0.0040202
-0.00356524
0.000156721
-0.00418859
-0.000387537
-6.65303e-07
-6.61431e-07
-8.18958e-06
-2.3592e-06
1.14737e-06
-4.2029e-06
3.56769e-06
-5.83095e-06
3.41241e-06
-7.03253e-06
2.72291e-06
-7.71537e-06
1.9183e-06
-8.01882e-06
1.28116e-06
-8.21304e-06
1.06225e-06
-8.53243e-06
1.13844e-06
-8.98938e-06
1.24755e-06
-9.47465e-06
1.21681e-06
-9.88814e-06
1.04742e-06
-1.02015e-05
8.26787e-07
-1.04451e-05
6.27168e-07
-1.06667e-05
4.68292e-07
-1.09012e-05
3.31199e-07
-1.11635e-05
1.8874e-07
-1.14569e-05
2.6665e-08
-1.17821e-05
-1.53947e-07
-1.21415e-05
-3.44881e-07
-1.25357e-05
-5.38999e-07
-1.29603e-05
-7.31708e-07
-1.34031e-05
-9.20294e-07
-1.38448e-05
-1.1007e-06
-1.42609e-05
-1.26865e-06
-1.46276e-05
-1.41488e-06
-1.49268e-05
-1.52953e-06
-1.51538e-05
-1.59685e-06
-1.53152e-05
-1.61096e-06
-1.54317e-05
-1.56477e-06
-1.55257e-05
-1.4735e-06
-1.5627e-05
-1.34079e-06
-1.57553e-05
-1.19684e-06
-1.59391e-05
-1.03508e-06
-1.61876e-05
-8.90002e-07
-1.65262e-05
-7.3162e-07
-1.69464e-05
-6.09246e-07
-1.74691e-05
-4.68505e-07
-1.80636e-05
-3.91152e-07
-1.87569e-05
-2.85552e-07
-1.95038e-05
-2.78512e-07
-2.03596e-05
-2.19691e-07
-2.12693e-05
-3.01815e-07
-2.23281e-05
-2.9238e-07
-2.34559e-05
-4.79112e-07
-2.47836e-05
-5.15565e-07
-2.61792e-05
-8.1403e-07
-2.78096e-05
-8.71167e-07
-2.94723e-05
-1.26171e-06
-3.13865e-05
-1.28234e-06
-3.32742e-05
-1.71828e-06
-3.54337e-05
-1.62526e-06
-3.75061e-05
-2.05438e-06
-3.98858e-05
-1.77753e-06
-4.21115e-05
-2.159e-06
-4.46651e-05
-1.63876e-06
-4.69386e-05
-1.92799e-06
-4.9467e-05
-1.09351e-06
-5.1445e-05
-1.21451e-06
-5.34286e-05
3.36483e-08
-5.44081e-05
1.82809e-07
-5.49955e-05
1.9263e-06
-5.40981e-05
2.3968e-06
-5.25501e-05
4.58332e-06
-4.94323e-05
5.22581e-06
-4.59922e-05
7.49128e-06
-4.16894e-05
7.85956e-06
-3.8101e-05
9.55285e-06
-3.49616e-05
9.15567e-06
-3.3662e-05
9.7641e-06
-3.39045e-05
8.56634e-06
-3.62902e-05
8.06112e-06
-4.05333e-05
6.56459e-06
-4.61653e-05
5.15055e-06
-5.34947e-05
4.05396e-06
-6.07857e-05
1.96889e-06
-6.96662e-05
2.18793e-06
-7.67057e-05
-1.50691e-07
-8.55102e-05
2.07114e-06
-9.07258e-05
-3.82866e-07
-9.79679e-05
2.76255e-06
-0.000101178
8.82579e-07
-0.000104803
1.03963e-06
-0.000107754
4.25835e-06
-0.000104439
-4.84361e-06
-0.00010943
7.75913e-06
-9.8885e-05
-8.41245e-06
-0.000105156
1.1222e-05
-9.22487e-05
-1.104e-05
-9.79893e-05
6.22523e-06
-9.05211e-05
-2.39682e-06
-7.62191e-05
-2.5697e-05
-8.45651e-05
1.97698e-05
-4.99817e-05
-5.5271e-05
-5.75422e-05
2.13071e-05
-8.76468e-05
2.71884e-05
-3.61925e-05
-4.29731e-05
0.000163255
-0.000299988
2.02444e-05
0.000224535
0.000506196
-0.000686535
-0.000709408
0.0016339
0.000100806
-0.0025637
0.00185787
-0.00243908
0.000470678
0.00175416
-0.00204961
0.00322803
0.00018278
-0.00259871
0.00490934
-0.00676405
-0.00322455
0.0108594
0.000687091
-0.00506491
0.00605334
-0.00756844
-0.000733748
0.00705859
0.00968729
-0.0137969
0.0075814
0.00225661
-0.00874009
0.0223214
0.00109337
-0.01299
-0.0042608
0.00678867
-0.0225019
0.0250572
-0.0115223
-0.0145463
0.000710926
-0.0164135
-0.00136711
-2.77731e-07
5.33413e-06
-5.34341e-06
-3.74283e-06
5.17992e-06
-6.41397e-06
6.77867e-06
-9.14217e-06
6.67634e-06
-1.14505e-05
5.55114e-06
-1.30294e-05
4.00973e-06
-1.39759e-05
2.72029e-06
-1.46626e-05
2.2026e-06
-1.54329e-05
2.3128e-06
-1.63492e-05
2.5203e-06
-1.72735e-05
2.45648e-06
-1.80627e-05
2.11216e-06
-1.86758e-05
1.66734e-06
-1.91611e-05
1.27598e-06
-1.95945e-05
9.8117e-07
-2.00313e-05
7.42884e-07
-2.04949e-05
5.04054e-07
-2.09908e-05
2.36166e-07
-2.15237e-05
-5.6689e-08
-2.21018e-05
-3.5725e-07
-2.27326e-05
-6.5308e-07
-2.34161e-05
-9.39507e-07
-2.41405e-05
-1.21713e-06
-2.48831e-05
-1.48492e-06
-2.56122e-05
-1.74064e-06
-2.62961e-05
-1.97154e-06
-2.69096e-05
-2.16111e-06
-2.74439e-05
-2.28086e-06
-2.79042e-05
-2.31834e-06
-2.83115e-05
-2.26032e-06
-2.86876e-05
-2.1319e-06
-2.90617e-05
-1.93899e-06
-2.94529e-05
-1.72977e-06
-2.98918e-05
-1.48932e-06
-3.03916e-05
-1.27006e-06
-3.09855e-05
-1.01849e-06
-3.16713e-05
-8.15717e-07
-3.24781e-05
-5.72601e-07
-3.33774e-05
-4.28495e-07
-3.44027e-05
-2.33247e-07
-3.55079e-05
-2.00832e-07
-3.67566e-05
-8.03639e-08
-3.80928e-05
-1.94172e-07
-3.96251e-05
-1.51633e-07
-4.12705e-05
-4.34285e-07
-4.31777e-05
-4.59734e-07
-4.52068e-05
-9.19273e-07
-4.7546e-05
-9.66788e-07
-4.99778e-05
-1.56727e-06
-5.27469e-05
-1.539e-06
-5.55527e-05
-2.20079e-06
-5.87243e-05
-1.96825e-06
-6.18726e-05
-2.60447e-06
-6.54275e-05
-2.05235e-06
-6.88908e-05
-2.59144e-06
-7.27826e-05
-1.6154e-06
-7.64531e-05
-1.96677e-06
-8.04711e-05
-4.32796e-07
-8.39858e-05
-4.42853e-07
-8.75674e-05
1.8282e-06
-9.01581e-05
2.3436e-06
-9.23483e-05
5.47109e-06
-9.30124e-05
6.57799e-06
-9.29241e-05
1.04156e-05
-9.11872e-05
1.18069e-05
-8.89512e-05
1.56368e-05
-8.58212e-05
1.64783e-05
-8.3211e-05
1.90539e-05
-8.11998e-05
1.84449e-05
-8.08539e-05
1.87782e-05
-8.2506e-05
1.67541e-05
-8.60743e-05
1.48657e-05
-9.23542e-05
1.27225e-05
-9.95122e-05
9.14067e-06
-0.000109752
8.59889e-06
-0.000118763
3.4209e-06
-0.000131575
6.29909e-06
-0.000140111
-6.39619e-07
-0.000153961
7.40535e-06
-0.00015989
-1.69412e-06
-0.000173173
1.06077e-05
-0.000176189
4.81044e-07
-0.00018562
9.0031e-06
-0.000188947
7.87622e-06
-0.000187505
-4.50272e-06
-0.000196794
2.00918e-05
-0.00018015
-2.11332e-05
-0.000195681
3.08658e-05
-0.000168429
-3.43633e-05
-0.000189764
3.04342e-05
-0.00016361
-2.68028e-05
-0.000157195
-3.17366e-05
-0.00015236
1.43028e-05
-0.000114155
-9.46985e-05
-0.000107452
1.38783e-05
-0.000184455
0.000103877
-3.94083e-05
-0.000187369
0.000223043
-0.000561696
5.81957e-05
0.00038934
0.000785847
-0.00141463
-0.0012522
0.00365843
0.000393201
0.012008
0.00310561
-0.0051503
0.000553404
0.00431901
-0.00347381
0.0072263
0.00111825
-0.00720717
0.00817821
-0.0139133
-0.00550923
0.0245266
0.00198074
-0.0125538
0.00984947
-0.0154245
-0.00109317
0.0164415
0.0169696
-0.0317722
0.0114301
0.00787184
-0.0150118
0.0487346
0.00180794
-0.0296231
-0.008769
0.0173441
-0.0381923
0.0546912
-0.0185812
-0.034161
0.00154036
-0.0365315
-0.00274815
4.03933e-07
9.99321e-06
-4.66298e-06
-3.0047e-06
9.20311e-06
-5.85193e-06
1.01644e-05
-8.95746e-06
1.03043e-05
-1.20953e-05
9.19737e-06
-1.48174e-05
7.23254e-06
-1.69459e-05
5.33591e-06
-1.86923e-05
4.40281e-06
-2.04031e-05
4.42779e-06
-2.22043e-05
4.67621e-06
-2.39653e-05
4.5309e-06
-2.55042e-05
3.92603e-06
-2.67514e-05
3.14371e-06
-2.77626e-05
2.45498e-06
-2.86453e-05
1.94993e-06
-2.94861e-05
1.56749e-06
-3.03261e-05
1.20721e-06
-3.11776e-05
8.15258e-07
-3.20496e-05
3.96594e-07
-3.29575e-05
-1.99585e-08
-3.39171e-05
-4.15628e-07
-3.49347e-05
-7.877e-07
-3.60016e-05
-1.14397e-06
-3.70943e-05
-1.49035e-06
-3.81778e-05
-1.82967e-06
-3.92159e-05
-2.14657e-06
-4.01801e-05
-2.41687e-06
-4.10613e-05
-2.5964e-06
-4.18661e-05
-2.66357e-06
-4.26189e-05
-2.59723e-06
-4.33431e-05
-2.43364e-06
-4.40689e-05
-2.18176e-06
-4.48137e-05
-1.90951e-06
-4.561e-05
-1.59101e-06
-4.6472e-05
-1.29641e-06
-4.74393e-05
-9.44419e-07
-4.85123e-05
-6.50992e-07
-4.97268e-05
-2.89007e-07
-5.10539e-05
-6.22873e-08
-5.25331e-05
2.43978e-07
-5.41156e-05
3.19904e-07
-5.58747e-05
5.28767e-07
-5.7751e-05
4.06045e-07
-5.98677e-05
5.18106e-07
-6.21359e-05
1.69185e-07
-6.47227e-05
2.01902e-07
-6.74764e-05
-3.84369e-07
-7.06077e-05
-3.66447e-07
-7.388e-05
-1.14103e-06
-7.75663e-05
-1.00057e-06
-8.13402e-05
-1.85141e-06
-8.55658e-05
-1.40751e-06
-8.98214e-05
-2.21108e-06
-9.45775e-05
-1.30122e-06
-9.92971e-05
-1.95098e-06
-0.000104544
-4.23596e-07
-0.000109627
-7.7691e-07
-0.000115152
1.56359e-06
-0.000120228
1.73946e-06
-0.000125444
5.13659e-06
-0.000129707
6.09502e-06
-0.000133594
1.06716e-05
-0.000135976
1.24749e-05
-0.000137571
1.7961e-05
-0.000137554
2.0159e-05
-0.000136963
2.54991e-05
-0.000135609
2.69707e-05
-0.000134688
3.03981e-05
-0.000134691
2.99983e-05
-0.000136239
3.00745e-05
-0.000140388
2.79851e-05
-0.00014617
2.45621e-05
-0.000155631
2.28137e-05
-0.000165264
1.63414e-05
-0.000179495
1.7797e-05
-0.000190957
7.87276e-06
-0.000208687
1.57709e-05
-0.000219155
1.1195e-06
-0.000239011
1.88904e-05
-0.000245749
-2.30147e-06
-0.000266152
2.51656e-05
-0.000268694
-1.07686e-06
-0.000285236
2.32191e-05
-0.000288361
1.03899e-05
-0.000290064
-1.86624e-06
-0.000303298
3.56166e-05
-0.000280818
-4.02935e-05
-0.000304949
5.86805e-05
-0.00026385
-7.17166e-05
-0.000305158
7.45967e-05
-0.000255956
-7.4081e-05
-0.000262208
-2.47583e-05
-0.000240341
-7.54352e-06
-0.00020188
-0.000133522
-0.000180418
-7.93972e-06
-0.000304306
0.000227926
-5.1031e-05
-0.000439939
0.000258525
-0.000871017
6.9445e-05
0.0005783
0.0010346
-0.00237971
-0.00183819
0.00651647
0.000831383
-0.00698515
0.00435733
-0.00867664
0.000474405
0.00821679
-0.00477738
0.0124277
0.00246398
-0.0144627
0.0114398
-0.0229719
-0.00787421
0.0438226
0.00394714
-0.0243707
0.0137267
-0.0251885
-0.0012975
0.0427301
0.0247208
-0.0577334
0.0143928
0.0182759
-0.0218746
0.0849599
0.00238594
-0.053804
-0.014619
0.0343378
-0.0542046
0.0940828
-0.0249293
-0.063437
0.00261092
-0.0640678
-0.00436949
8.15231e-07
1.33296e-05
-3.71408e-06
-1.8567e-06
1.25433e-05
-4.2174e-06
1.30794e-05
-6.84322e-06
1.34675e-05
-9.91456e-06
1.27891e-05
-1.31579e-05
1.09848e-05
-1.62438e-05
8.91416e-06
-1.91005e-05
7.72011e-06
-2.19238e-05
7.66482e-06
-2.48481e-05
7.96491e-06
-2.77599e-05
7.76511e-06
-3.04316e-05
6.8818e-06
-3.27243e-05
5.67566e-06
-3.46569e-05
4.56597e-06
-3.63447e-05
3.73476e-06
-3.79053e-05
3.12277e-06
-3.94056e-05
2.58119e-06
-4.08686e-05
2.0164e-06
-4.23076e-05
1.42806e-06
-4.37454e-05
8.59419e-07
-4.52083e-05
3.38841e-07
-4.6713e-05
-1.33353e-07
-4.82582e-05
-5.75403e-07
-4.9824e-05
-1.00425e-06
-5.13754e-05
-1.43169e-06
-5.28743e-05
-1.84185e-06
-5.42903e-05
-2.2031e-06
-5.56144e-05
-2.45319e-06
-5.68562e-05
-2.55879e-06
-5.80457e-05
-2.48776e-06
-5.92109e-05
-2.28834e-06
-6.03857e-05
-1.97327e-06
-6.15878e-05
-1.63366e-06
-6.28514e-05
-1.23071e-06
-6.41921e-05
-8.53365e-07
-6.56554e-05
-3.87511e-07
-6.72437e-05
1.17825e-08
-6.89993e-05
5.14287e-07
-7.08913e-05
8.42878e-07
-7.29657e-05
1.28555e-06
-7.51687e-05
1.42488e-06
-7.75841e-05
1.75198e-06
-8.01465e-05
1.64303e-06
-8.29958e-05
1.8629e-06
-8.60335e-05
1.47464e-06
-8.94488e-05
1.61279e-06
-9.30732e-05
9.28086e-07
-9.71453e-05
1.06578e-06
-0.000101403
1.44252e-07
-0.000106156
4.58832e-07
-0.000111043
-5.53796e-07
-0.000116474
1.74334e-07
-0.000121984
-7.65617e-07
-0.000128098
5.89045e-07
-0.000134228
-1.31178e-07
-0.000140996
2.05194e-06
-0.000147656
1.75445e-06
-0.00015487
5.02508e-06
-0.00016169
5.47233e-06
-0.000168738
1.01352e-05
-0.000174881
1.16584e-05
-0.000180689
1.78298e-05
-0.00018503
2.04981e-05
-0.000188572
2.77714e-05
-0.000190574
3.10077e-05
-0.000191958
3.79649e-05
-0.000192773
4.03873e-05
-0.000193968
4.46908e-05
-0.000196514
4.49467e-05
-0.000200504
4.46121e-05
-0.00020784
4.30782e-05
-0.000216503
3.76186e-05
-0.000230004
3.71732e-05
-0.000242863
2.67194e-05
-0.000262102
3.1682e-05
-0.000276786
1.5004e-05
-0.000300603
3.06327e-05
-0.000313707
4.74566e-06
-0.000340905
3.69353e-05
-0.000348982
-2.31605e-06
-0.000378052
4.77117e-05
-0.000380383
-3.40734e-06
-0.000405783
4.59003e-05
-0.000408753
1.25747e-05
-0.000415222
5.59837e-06
-0.000432801
5.5765e-05
-0.000405042
-6.43056e-05
-0.000440998
9.88432e-05
-0.000370324
-0.000138147
-0.000450003
0.000157565
-0.000371764
-0.000150081
-0.000396981
1.37534e-06
-0.000353546
-5.08313e-05
-0.000319205
-0.00016809
-0.000282154
-4.49628e-05
-0.000451056
0.000397138
-7.80148e-05
-0.00081238
0.000261913
-0.00121098
4.71311e-05
0.000792906
0.00124032
-0.00357277
-0.00245402
0.0102137
0.00140167
-0.00910399
0.00556783
-0.0128441
0.000246653
0.0135421
-0.00590447
0.0185175
0.00415975
-0.0245406
0.0146445
-0.0335427
-0.0102162
0.068662
0.00659421
-0.0411793
0.0176731
-0.0362533
-0.00140198
0.0535765
0.0327563
-0.0918513
0.0163754
0.0347356
-0.0292158
0.130502
0.00265803
-0.085616
-0.0217818
0.0587736
-0.0703203
0.142353
-0.0303907
-0.103369
0.00386644
-0.0983219
-0.00615303
6.39382e-07
1.56274e-05
-2.47661e-06
-1.19727e-06
1.5102e-05
-2.94032e-06
1.53987e-05
-4.80758e-06
1.58936e-05
-7.19396e-06
1.57117e-05
-1.01378e-05
1.44454e-05
-1.33895e-05
1.26608e-05
-1.67323e-05
1.15268e-05
-2.01917e-05
1.15462e-05
-2.38881e-05
1.20376e-05
-2.77676e-05
1.19791e-05
-3.15922e-05
1.10018e-05
-3.51284e-05
9.46194e-06
-3.82872e-05
7.91374e-06
-4.1124e-05
6.67829e-06
-4.37502e-05
5.75216e-06
-4.62481e-05
4.95967e-06
-4.8648e-05
4.16e-06
-5.09616e-05
3.33877e-06
-5.32129e-05
2.55677e-06
-5.54368e-05
1.8594e-06
-5.76625e-05
1.2482e-06
-5.99005e-05
6.93859e-07
-6.21401e-05
1.65391e-07
-6.43507e-05
-3.63019e-07
-6.64949e-05
-8.79226e-07
-6.85399e-05
-1.34689e-06
-7.0476e-05
-1.68473e-06
-7.23145e-05
-1.84531e-06
-7.40915e-05
-1.78065e-06
-7.58427e-05
-1.55002e-06
-7.7609e-05
-1.16984e-06
-7.941e-05
-7.59749e-07
-8.12826e-05
-2.66959e-07
-8.32423e-05
1.98285e-07
-8.53415e-05
7.89891e-07
-8.75846e-05
1.3088e-06
-9.00226e-05
1.97435e-06
-9.26221e-05
2.42482e-06
-9.54378e-05
3.03243e-06
-9.84095e-05
3.25676e-06
-0.000101634
3.73614e-06
-0.000105037
3.66502e-06
-0.000108779
4.03581e-06
-0.000112749
3.63608e-06
-0.000117162
3.93314e-06
-0.000121828
3.17964e-06
-0.000127022
3.50044e-06
-0.000132448
2.46193e-06
-0.000138462
3.02541e-06
-0.000144659
1.88279e-06
-0.000151507
2.98455e-06
-0.000158487
1.94479e-06
-0.00016619
3.85082e-06
-0.000173967
3.10658e-06
-0.000182513
6.07173e-06
-0.000191013
5.89569e-06
-0.000200198
1.02444e-05
-0.000209053
1.10598e-05
-0.000218248
1.71548e-05
-0.000226595
1.93816e-05
-0.000234668
2.732e-05
-0.00024133
3.10445e-05
-0.000247198
4.02618e-05
-0.000251627
4.47911e-05
-0.000255405
5.34669e-05
-0.000258863
5.71811e-05
-0.000262647
6.23458e-05
-0.000268297
6.37422e-05
-0.000275273
6.27888e-05
-0.000286479
6.25497e-05
-0.00029865
5.45146e-05
-0.000317029
5.65446e-05
-0.000333826
4.09706e-05
-0.000359102
5.13561e-05
-0.000377778
2.57282e-05
-0.000408935
5.2335e-05
-0.000425437
1.12276e-05
-0.000461493
6.33057e-05
-0.00047156
-8.20018e-07
-0.000511126
8.03439e-05
-0.000513659
-5.86166e-06
-0.00055008
7.93689e-05
-0.000553051
1.46305e-05
-0.000566525
2.00433e-05
-0.000588914
8.07963e-05
-0.000557185
-9.2139e-05
-0.000606714
0.000152763
-0.000534071
-0.000206341
-0.000638235
0.000265164
-0.000515542
-0.000270388
-0.000569247
5.61104e-05
-0.000497973
-0.000121834
-0.000474308
-0.000191834
-0.000419443
-9.95264e-05
-0.000631186
0.00060931
-0.00013043
-0.00131255
0.000221436
-0.00156299
-1.96217e-05
0.00103406
0.00139186
-0.0049841
-0.00310242
0.0147109
0.00208943
-0.0143177
0.0066839
-0.0174396
-9.70564e-05
0.0203235
-0.00681684
0.0251657
0.00612813
-0.0374988
0.0177429
-0.0452489
-0.0124248
0.0988063
0.00987372
-0.0634771
0.0215273
-0.0478981
-0.00136335
0.0770636
0.0408534
-0.134031
0.0172923
0.0583804
-0.0369133
0.184729
0.00239634
-0.124859
-0.0304837
0.0916515
-0.0861037
0.197913
-0.0347966
-0.154678
0.00524415
-0.13836
-0.00815678
2.21951e-08
1.73029e-05
-1.22079e-06
-1.17645e-06
1.70828e-05
-2.47077e-06
1.72884e-05
-3.76125e-06
1.77567e-05
-5.40293e-06
1.78979e-05
-7.64137e-06
1.72043e-05
-1.04158e-05
1.59306e-05
-1.35018e-05
1.50785e-05
-1.68243e-05
1.52981e-05
-2.04969e-05
1.60989e-05
-2.4597e-05
1.64273e-05
-2.89956e-05
1.57079e-05
-3.34413e-05
1.41679e-05
-3.77286e-05
1.23988e-05
-4.17866e-05
1.0851e-05
-4.56531e-05
9.62849e-06
-4.93854e-05
8.57798e-06
-5.30013e-05
7.52396e-06
-5.6493e-05
6.43145e-06
-5.98672e-05
5.38146e-06
-6.31538e-05
4.44853e-06
-6.63876e-05
3.64594e-06
-6.95902e-05
2.9387e-06
-7.27638e-05
2.28325e-06
-7.5887e-05
1.63567e-06
-7.89255e-05
9.97957e-07
-8.18445e-05
4.05169e-07
-8.46304e-05
-4.37969e-08
-8.72925e-05
-2.86296e-07
-8.98719e-05
-2.51549e-07
-9.24129e-05
-5.86339e-09
-9.49681e-05
4.33702e-07
-9.75616e-05
9.12015e-07
-0.000100234
1.4953e-06
-0.000102998
2.04702e-06
-0.000105915
2.76999e-06
-0.00010899
3.41603e-06
-0.000112285
4.26411e-06
-0.000115766
4.85388e-06
-0.000119498
5.65579e-06
-0.000123414
5.98641e-06
-0.000127628
6.65543e-06
-0.000132053
6.64694e-06
-0.000136875
7.21728e-06
-0.000141965
6.83581e-06
-0.000147573
7.35385e-06
-0.000153483
6.56461e-06
-0.00016001
7.14414e-06
-0.00016682
6.02337e-06
-0.000174326
6.92653e-06
-0.000182069
5.69154e-06
-0.000190587
7.27587e-06
-0.000199294
6.17944e-06
-0.000208867
8.7662e-06
-0.000218576
8.05162e-06
-0.000229211
1.19509e-05
-0.000239869
1.19704e-05
-0.000251373
1.7573e-05
-0.000262621
1.88643e-05
-0.000274346
2.65863e-05
-0.000285295
2.96714e-05
-0.000296059
3.95771e-05
-0.000305489
4.45727e-05
-0.000314153
5.59158e-05
-0.000321514
6.20292e-05
-0.00032821
7.25412e-05
-0.000334891
7.79441e-05
-0.000341852
8.39531e-05
-0.000351289
8.70629e-05
-0.000361916
8.52521e-05
-0.000377808
8.71939e-05
-0.000394237
7.59749e-05
-0.000418479
8.18939e-05
-0.000440046
5.99172e-05
-0.000472553
7.80096e-05
-0.000496118
4.09422e-05
-0.000536061
8.23196e-05
-0.000556867
2.14629e-05
-0.000603525
9.9735e-05
-0.000616403
2.99841e-06
-0.00066857
0.000125168
-0.000671909
-7.83098e-06
-0.000721864
0.000126141
-0.000725188
1.69074e-05
-0.000748397
4.41966e-05
-0.000776222
0.000111336
-0.000742485
-0.000121822
-0.000807968
0.000222835
-0.0007206
-0.000289034
-0.000843328
0.00039152
-0.00068751
-0.000423666
-0.000789062
0.000158824
-0.000679872
-0.000230645
-0.00067706
-0.000194603
-0.000599519
-0.000176614
-0.00085339
0.000863727
-0.000219624
-0.00194569
0.000124548
-0.00190736
-0.000140726
0.00129931
0.00147473
-0.00659945
-0.00377142
0.0199601
0.00284464
-0.0209473
0.00765947
-0.0222552
-0.000513187
0.0284945
-0.00749558
0.032068
0.00827099
-0.0532785
0.020697
-0.0577729
-0.0144025
0.13388
0.013689
-0.0915687
0.025227
-0.0594257
-0.00119898
0.103657
0.048743
-0.183935
0.0171453
0.090068
-0.0448477
0.246667
0.00137006
-0.170992
-0.0405414
0.133561
-0.101091
0.258458
-0.0380546
-0.217717
0.00669647
-0.183108
-0.0106261
-8.74106e-07
1.86387e-05
2.69617e-08
-1.62637e-06
1.86811e-05
-2.63664e-06
1.89051e-05
-3.6237e-06
1.93221e-05
-4.78189e-06
1.96044e-05
-6.3778e-06
1.93243e-05
-8.48658e-06
1.85381e-05
-1.0941e-05
1.80033e-05
-1.36063e-05
1.84018e-05
-1.65828e-05
1.94776e-05
-2.00753e-05
2.02825e-05
-2.41558e-05
2.01085e-05
-2.86925e-05
1.89741e-05
-3.34661e-05
1.73771e-05
-3.83073e-05
1.58125e-05
-4.31523e-05
1.44884e-05
-4.79992e-05
1.33156e-05
-5.28319e-05
1.21096e-05
-5.76031e-05
1.08099e-05
-6.2276e-05
9.51333e-06
-6.68476e-05
8.33468e-06
-7.1336e-05
7.31481e-06
-7.57597e-05
6.42635e-06
-8.01288e-05
5.62378e-06
-8.44325e-05
4.84713e-06
-8.86418e-05
4.08241e-06
-9.27184e-05
3.35423e-06
-9.66414e-05
2.77465e-06
-0.000100411
2.41987e-06
-0.000104068
2.39106e-06
-0.000107661
2.62256e-06
-0.00011126
3.10555e-06
-0.000114896
3.64305e-06
-0.000118616
4.31263e-06
-0.000122428
4.94209e-06
-0.000126399
5.79395e-06
-0.000130536
6.56547e-06
-0.000134916
7.60975e-06
-0.000139501
8.35077e-06
-0.000144373
9.37508e-06
-0.000149457
9.83074e-06
-0.000154884
1.07286e-05
-0.000160556
1.08063e-05
-0.000166689
1.16292e-05
-0.000173131
1.12958e-05
-0.000180174
1.2105e-05
-0.000187567
1.1315e-05
-0.000195682
1.22413e-05
-0.000204134
1.10765e-05
-0.000213403
1.24266e-05
-0.000222968
1.11416e-05
-0.000233452
1.33385e-05
-0.000244189
1.22348e-05
-0.000255957
1.56573e-05
-0.000267931
1.5034e-05
-0.000281017
2.00495e-05
-0.000294205
2.03487e-05
-0.000308429
2.7414e-05
-0.000322484
2.93022e-05
-0.000337188
3.88813e-05
-0.000351203
4.2999e-05
-0.000365154
5.51085e-05
-0.000377876
6.1621e-05
-0.000389887
7.53062e-05
-0.000400777
8.33438e-05
-0.000411007
9.58371e-05
-0.000421602
0.0001034
-0.000432436
0.000110244
-0.000446473
0.00011575
-0.000461539
0.00011281
-0.000483089
0.000117985
-0.000504668
0.000102878
-0.000535943
0.000114362
-0.000563276
8.45142e-05
-0.000604429
0.000113013
-0.000633963
6.16812e-05
-0.000684402
0.000122255
-0.000710628
3.65279e-05
-0.000769945
0.000148249
-0.000786693
1.0175e-05
-0.000853932
0.000184641
-0.000858956
-8.43369e-06
-0.0009254
0.000189189
-0.000929705
2.007e-05
-0.00096599
8.14466e-05
-0.0010001
0.000148292
-0.000967133
-0.000150511
-0.00105125
0.000311802
-0.000949169
-0.000386175
-0.00110327
0.000549467
-0.00091806
-0.000606174
-0.00107455
0.000316585
-0.00090581
-0.000398938
-0.000940458
-0.000159836
-0.000831003
-0.000285514
-0.00113013
0.00116349
-0.000360064
-0.00271507
-4.43033e-05
-0.00222336
-0.000328613
0.00158341
0.00147364
-0.00840162
-0.00446419
0.0259012
0.00362253
-0.0290343
0.00845219
-0.0270854
-0.000946917
0.0378909
-0.00795139
0.0389844
0.0104795
-0.0717226
0.0234826
-0.0708815
-0.0160814
0.173418
0.0178875
-0.125538
0.0286799
-0.0702063
-0.000943843
0.133058
0.0561161
-0.240954
0.0159452
0.130336
-0.0528775
0.315306
-0.000669882
-0.223097
-0.0518842
0.184773
-0.114846
0.321386
-0.0401218
-0.292445
0.00820898
-0.231435
-0.0140373
-1.89687e-06
1.97785e-05
1.25276e-06
-2.32149e-06
2.00217e-05
-3.13916e-06
2.03361e-05
-3.99276e-06
2.07589e-05
-4.93451e-06
2.11004e-05
-6.1423e-06
2.10636e-05
-7.72669e-06
2.06297e-05
-9.5736e-06
2.033e-05
-1.15139e-05
2.07923e-05
-1.36023e-05
2.19826e-05
-1.6094e-05
2.31518e-05
-1.92268e-05
2.35737e-05
-2.30495e-05
2.3075e-05
-2.7447e-05
2.19847e-05
-3.22554e-05
2.07451e-05
-3.73612e-05
1.96127e-05
-4.27193e-05
1.85692e-05
-4.82937e-05
1.74438e-05
-5.4011e-05
1.61447e-05
-5.97867e-05
1.47632e-05
-6.55652e-05
1.34493e-05
-7.13215e-05
1.22806e-05
-7.70449e-05
1.1251e-05
-8.2735e-05
1.03309e-05
-8.83843e-05
9.45721e-06
-9.39677e-05
8.60011e-06
-9.94409e-05
7.76321e-06
-0.00010477
7.06438e-06
-0.000109938
6.58747e-06
-0.000114971
6.46934e-06
-0.000119915
6.65414e-06
-0.000124851
7.15854e-06
-0.000129823
7.74221e-06
-0.000134885
8.49326e-06
-0.00014004
9.1886e-06
-0.000145359
1.01616e-05
-0.000150844
1.1048e-05
-0.000156591
1.22956e-05
-0.000162559
1.31928e-05
-0.00016885
1.44655e-05
-0.000175377
1.5061e-05
-0.000182298
1.62283e-05
-0.000189496
1.64131e-05
-0.000197221
1.75456e-05
-0.000205297
1.72883e-05
-0.000214066
1.84666e-05
-0.000223234
1.77117e-05
-0.000233239
1.90856e-05
-0.000243638
1.79174e-05
-0.000254994
1.9839e-05
-0.000266706
1.85503e-05
-0.000279503
2.15124e-05
-0.000292621
2.04571e-05
-0.000306964
2.48985e-05
-0.00032159
2.44367e-05
-0.000337544
3.07837e-05
-0.000353689
3.1458e-05
-0.000371098
4.02322e-05
-0.000388436
4.28539e-05
-0.000406634
5.45603e-05
-0.000424251
5.99084e-05
-0.000441963
7.44981e-05
-0.000458581
8.28098e-05
-0.000474579
9.90914e-05
-0.000489689
0.00010945
-0.000504171
0.000124099
-0.000519482
0.000134384
-0.000535002
0.000142058
-0.000554593
0.000150781
-0.000575025
0.000146402
-0.000603378
0.00015607
-0.000631158
0.000136261
-0.000670852
0.000155307
-0.000705131
0.000115906
-0.000756609
0.000158005
-0.000793408
8.92008e-05
-0.000856374
0.000174133
-0.000889388
5.77593e-05
-0.0009638
0.000211256
-0.000985785
2.20546e-05
-0.001071
0.000261658
-0.00107896
-6.42167e-06
-0.00116536
0.000271993
-0.00117169
2.51954e-05
-0.00122507
0.000135858
-0.0012667
0.000192964
-0.00123823
-0.000174415
-0.00134415
0.000422878
-0.00122856
-0.00049649
-0.00142078
0.000745766
-0.00121099
-0.000813077
-0.00140136
0.000508315
-0.00117849
-0.000621325
-0.00128195
-5.62367e-05
-0.00112366
-0.000443185
-0.00147855
0.00151908
-0.000568531
-0.00362434
-0.000303567
-0.00248859
-0.000597437
0.00187694
0.00136884
-0.0103679
-0.00519301
0.0324666
0.00434847
-0.038572
0.0090302
-0.0317676
-0.0013478
0.0482656
-0.00822734
0.0457679
0.0126429
-0.0926061
0.026089
-0.0844415
-0.0174388
0.216917
0.0222637
-0.165242
0.0317996
-0.0797286
-0.000680767
0.165912
0.0626531
-0.304244
0.0137711
0.179324
-0.0609312
0.390446
-0.00393149
-0.279979
-0.0643136
0.245151
-0.12699
0.384065
-0.0410002
-0.378438
0.00982422
-0.282256
-0.0190707
-3.23993e-06
2.0708e-05
2.81517e-06
-3.33371e-06
2.11169e-05
-3.95641e-06
2.15813e-05
-4.69367e-06
2.20883e-05
-5.52069e-06
2.24927e-05
-6.51998e-06
2.26071e-05
-7.7773e-06
2.24077e-05
-9.2094e-06
2.2256e-05
-1.06372e-05
2.26853e-05
-1.20442e-05
2.38219e-05
-1.36568e-05
2.51567e-05
-1.57575e-05
2.60186e-05
-1.85222e-05
2.61261e-05
-2.1971e-05
2.56487e-05
-2.60265e-05
2.49282e-05
-3.05983e-05
2.42071e-05
-3.56424e-05
2.35152e-05
-4.1143e-05
2.2715e-05
-4.705e-05
2.16859e-05
-5.32728e-05
2.04848e-05
-5.97234e-05
1.927e-05
-6.63357e-05
1.81474e-05
-7.30576e-05
1.71305e-05
-7.98599e-05
1.62181e-05
-8.67264e-05
1.53629e-05
-9.36338e-05
1.45285e-05
-0.000100531
1.36883e-05
-0.000107368
1.29557e-05
-0.000114099
1.24111e-05
-0.000120724
1.22269e-05
-0.000127265
1.23614e-05
-0.000133803
1.28802e-05
-0.000140387
1.35069e-05
-0.000147085
1.43472e-05
-0.00015389
1.51069e-05
-0.000160873
1.62003e-05
-0.000168027
1.71904e-05
-0.000175464
1.86476e-05
-0.000183136
1.97018e-05
-0.00019117
2.12492e-05
-0.000199463
2.19966e-05
-0.000208208
2.34774e-05
-0.000217259
2.37885e-05
-0.000226915
2.52933e-05
-0.000236959
2.51384e-05
-0.000247797
2.67728e-05
-0.000259085
2.60886e-05
-0.000271339
2.80253e-05
-0.000284045
2.68963e-05
-0.000297865
2.95331e-05
-0.000312104
2.82901e-05
-0.000327619
3.21948e-05
-0.000343527
3.12493e-05
-0.000360883
3.6924e-05
-0.000378607
3.6703e-05
-0.00039791
4.46333e-05
-0.000417506
4.5791e-05
-0.000438631
5.65612e-05
-0.000459801
6.00717e-05
-0.000482082
7.42194e-05
-0.000503918
8.10244e-05
-0.000526046
9.84153e-05
-0.000547257
0.000108852
-0.000567977
0.000128025
-0.000588106
0.000141171
-0.000607666
0.00015818
-0.00062863
0.000171856
-0.000649776
0.000180365
-0.000676033
0.000193292
-0.000702908
0.000187123
-0.000739406
0.000202799
-0.000774617
0.000177351
-0.000824361
0.000206346
-0.000866976
0.000155456
-0.000930765
0.000214937
-0.000976375
0.00012501
-0.00105427
0.000240325
-0.00109575
8.67922e-05
-0.00118814
0.000291607
-0.0012171
4.03495e-05
-0.00132372
0.000359613
-0.00133634
-8.04834e-08
-0.00144674
0.000378597
-0.00145674
3.3936e-05
-0.00153196
0.00021222
-0.00158299
0.000247265
-0.0015638
-0.000188696
-0.00169536
0.000559973
-0.00156866
-0.000617533
-0.00180609
0.000987579
-0.00156858
-0.0010475
-0.00180192
0.000743112
-0.00154381
-0.000878939
-0.00172992
0.000130036
-0.00148778
-0.000684675
-0.00192214
0.0019542
-0.000864083
-0.0046816
-0.000676381
-0.00267658
-0.000964232
0.00216436
0.00113533
-0.0124674
-0.00598103
0.0395868
0.00494159
-0.0494902
0.00936963
-0.036196
-0.00167752
0.0593093
-0.00841711
0.0524034
0.0146578
-0.115695
0.0285109
-0.0984179
-0.0185086
0.263906