/*--------------------------------*- C++ -*----------------------------------*\
| =========                 |                                                 |
| \\      /  F ield         | OpenFOAM: The Open Source CFD Toolbox           |
|  \\    /   O peration     | Version:  2412                                  |
|   \\  /    A nd           | Website:  www.openfoam.com                      |
|    \\/     M anipulation  |                                                 |
\*---------------------------------------------------------------------------*/
FoamFile
{
    version     2.0;
    format      ascii;
    arch        "LSB;label=32;scalar=64";
    class       volScalarField;
    location    "1.38";
    object      p;
}
// * * * * * * * * * * * * * * * * * * * * * * * * * * * * * * * * * * * * * //

dimensions      [0 2 -2 0 0 0 0];

internalField   nonuniform List<scalar> 
12600
(
-0.0159084
-154.762
-204.812
-201.537
-189.041
-177.425
-167.24
-158.128
-149.872
-142.308
-135.309
-128.777
-122.641
-116.841
-111.333
-106.077
-101.043
-96.2052
-91.5412
-87.0324
-82.6627
-78.4183
-74.2871
-70.2583
-66.3226
-62.4717
-58.6981
-54.9952
-51.3569
-47.7779
-44.253
-40.7779
-37.3483
-33.9605
-30.6109
-27.2962
-24.0134
-20.7596
-17.5321
-14.3285
-11.1464
-7.98351
-4.83769
-1.70702
1.41055
4.5167
7.61338
10.702
13.7845
16.862
19.9366
23.0088
26.081
29.1534
32.2285
35.3059
38.3884
41.4751
44.5693
47.6689
50.7782
53.8936
57.0208
60.1541
63.3008
66.4529
69.6198
72.7905
75.9766
79.1641
82.3671
85.5679
88.7829
91.9911
95.2107
98.418
101.631
104.826
108.018
111.186
114.338
117.46
120.55
123.603
126.612
129.56
132.475
135.274
138.092
140.689
143.419
145.755
148.421
150.434
153.071
154.716
157.329
158.701
160.994
162.595
163.944
166.532
166.906
168.912
169.856
171.768
173.592
170.471
177.854
173.785
175.019
180.465
173.263
180.922
184.368
188.446
190.112
210.036
206.398
216.227
-24.1372
-123.841
-171.272
-180.87
-177.622
-170.848
-163.071
-155.278
-147.827
-140.793
-134.162
-127.897
-121.958
-116.308
-110.916
-105.75
-100.788
-96.0078
-91.3899
-86.9187
-82.5796
-78.3603
-74.2497
-70.238
-66.3164
-62.4772
-58.7132
-55.0183
-51.3867
-47.813
-44.2926
-40.8211
-37.3945
-34.009
-30.6612
-27.3479
-24.0662
-20.8131
-17.5862
-14.3828
-11.2008
-8.03781
-4.89179
-1.76079
1.3572
4.46384
7.56107
10.6503
13.7335
16.8117
19.8869
22.9599
26.0329
29.106
32.1818
35.26
38.3433
41.4307
44.5257
47.6261
50.7362
53.8524
56.9802
60.1143
63.2617
66.4146
69.5821
72.7536
75.9404
79.1287
82.3324
85.5338
88.7496
91.9585
95.1788
98.3868
101.601
104.797
107.989
111.158
114.31
117.434
120.525
123.578
126.588
129.536
132.453
135.252
138.071
140.668
143.4
145.736
148.404
150.417
153.055
154.702
157.315
158.689
160.98
162.587
163.931
166.522
166.9
168.902
169.847
171.755
173.598
170.461
177.84
173.799
174.998
180.47
173.27
180.891
184.348
188.438
190.052
209.984
206.378
216.199
-40.9468
-102.395
-145.179
-162.62
-165.92
-163.264
-158.099
-151.927
-145.477
-139.084
-132.884
-126.923
-121.205
-115.72
-110.453
-105.385
-100.499
-95.7787
-91.2094
-86.7772
-82.47
-78.2766
-74.1874
-70.1932
-66.2861
-62.4589
-58.7049
-55.0182
-51.3934
-47.8254
-44.3097
-40.842
-37.4185
-34.0356
-30.6898
-27.3782
-24.0977
-20.8456
-17.6193
-14.4165
-11.2347
-8.07188
-4.92586
-1.79477
1.32341
4.43033
7.5279
10.6175
13.7011
16.7798
19.8555
22.9291
26.0025
29.0762
32.1526
35.2313
38.3152
41.4032
44.4987
47.5997
50.7103
53.8271
56.9555
60.0901
63.238
66.3915
69.5595
72.7315
75.9188
79.1076
82.3118
85.5137
88.73
91.9394
95.1602
98.3687
101.583
104.779
107.972
111.142
114.295
117.419
120.51
123.564
126.574
129.523
132.44
135.24
138.06
140.658
143.391
145.727
148.395
150.408
153.048
154.694
157.308
158.683
160.973
162.582
163.924
166.518
166.897
168.898
169.843
171.748
173.602
170.455
177.833
173.808
174.99
180.474
173.275
180.878
184.339
188.432
190.029
209.959
206.369
216.185
-48.8583
-88.6475
-124.067
-144.576
-152.77
-154.046
-151.721
-147.489
-142.327
-136.796
-131.184
-125.633
-120.211
-114.944
-109.841
-104.899
-100.112
-95.47
-90.9631
-86.5813
-82.315
-78.1552
-74.0936
-70.1222
-66.2341
-62.4226
-58.6818
-55.0061
-51.3905
-47.8302
-44.3209
-40.8586
-37.4396
-34.0604
-30.7177
-27.4086
-24.1302
-20.8797
-17.6548
-14.453
-11.272
-8.10979
-4.96417
-1.83332
1.28475
4.39167
7.48934
10.5791
13.663
16.742
19.818
22.892
25.9658
29.04
32.1168
35.196
38.2804
41.3689
44.465
47.5664
50.6776
53.7949
56.9239
60.059
63.2075
66.3615
69.53
72.7025
75.8904
79.0797
82.2844
85.487
88.7037
91.9137
95.135
98.3442
101.559
104.756
107.949
111.12
114.273
117.398
120.49
123.544
126.555
129.505
132.423
135.223
138.044
140.642
143.376
145.712
148.382
150.395
153.036
154.682
157.297
158.674
160.962
162.575
163.913
166.509
166.892
168.89
169.836
171.738
173.606
170.445
177.824
173.818
174.972
180.48
173.278
180.85
184.324
188.423
189.974
209.92
206.354
216.161
-53.8977
-80.3849
-107.296
-126.958
-138.053
-142.793
-143.41
-141.438
-137.92
-133.553
-128.764
-123.801
-118.804
-113.85
-108.981
-104.218
-99.5694
-95.0356
-90.6145
-86.3015
-82.0908
-77.9764
-73.9519
-70.0112
-66.1485
-62.3581
-58.635
-54.974
-51.3708
-47.8208
-44.3203
-40.8653
-37.4524
-34.0783
-30.7399
-27.4343
-24.1589
-20.9109
-17.6879
-14.4877
-11.308
-8.14671
-5.00183
-1.87151
1.2462
4.35291
7.45051
10.5404
13.6243
16.7035
19.7799
22.8541
25.9284
29.003
32.0803
35.16
38.2449
41.3339
44.4305
47.5325
50.6442
53.7621
56.8916
60.0273
63.1763
66.3309
69.5001
72.6732
75.8616
79.0515
82.2568
85.4599
88.6773
91.8879
95.1098
98.3196
101.535
104.733
107.927
111.098
114.251
117.377
120.47
123.524
126.537
129.487
132.405
135.206
138.028
140.626
143.362
145.698
148.369
150.383
153.025
154.671
157.287
158.665
160.952
162.569
163.903
166.502
166.887
168.883
169.829
171.729
173.611
170.435
177.816
173.829
174.958
180.487
173.281
180.827
184.311
188.413
189.932
209.885
206.341
216.14
-57.1736
-75.3215
-94.9309
-111.803
-123.628
-130.532
-133.564
-133.787
-132.083
-129.125
-125.395
-121.219
-116.808
-112.294
-107.759
-103.25
-98.7973
-94.4169
-90.1168
-85.9002
-81.767
-77.7152
-73.7419
-69.8432
-66.0152
-62.2536
-58.5543
-54.9134
-51.3269
-47.791
-44.3023
-40.8572
-37.4527
-34.0857
-30.7532
-27.4526
-24.1813
-20.9368
-17.7167
-14.5189
-11.3411
-8.18145
-5.03783
-1.90849
1.20848
4.31464
7.41186
10.5015
13.5853
16.6645
19.741
22.8154
25.89
28.9649
32.0425
35.1226
38.2079
41.2974
44.3945
47.497
50.6092
53.7276
56.8577
59.9939
63.1435
66.2987
69.4684
72.6421
75.8311
79.0216
82.2275
85.4312
88.6492
91.8604
95.0829
98.2933
101.509
104.708
107.902
111.074
114.228
117.355
120.448
123.504
126.516
129.467
132.387
135.188
138.011
140.61
143.347
145.683
148.356
150.369
153.012
154.659
157.276
158.655
160.941
162.561
163.892
166.494
166.882
168.874
169.821
171.72
173.617
170.423
177.808
173.84
174.938
180.495
173.281
180.797
184.297
188.4
189.875
209.847
206.328
216.114
-58.7832
-71.7986
-86.1277
-99.8208
-110.894
-118.588
-123.124
-125.069
-125.021
-123.51
-120.97
-117.741
-114.07
-110.13
-106.041
-101.88
-97.6998
-93.5339
-89.404
-85.3231
-81.2989
-77.3353
-73.4336
-69.5936
-65.8138
-62.0921
-58.426
-54.8126
-51.2492
-47.7327
-44.2602
-40.8288
-37.4359
-34.0786
-30.7543
-27.4607
-24.1952
-20.9556
-17.7397
-14.5453
-11.3704
-8.21307
-5.0714
-1.94365
1.17205
4.27722
7.37368
10.4627
13.5462
16.6252
19.7015
22.7759
25.8506
28.9256
32.0035
35.0839
38.1696
41.2594
44.3569
47.4599
50.5726
53.6915
56.8221
59.9589
63.109
66.2647
69.435
72.6093
75.7989
78.99
82.1965
85.4008
88.6194
91.8313
95.0544
98.2655
101.482
104.681
107.877
111.049
114.204
117.331
120.425
123.482
126.495
129.447
132.367
135.169
137.993
140.593
143.331
145.667
148.341
150.355
153
154.646
157.264
158.644
160.929
162.554
163.88
166.487
166.876
168.865
169.813
171.711
173.623
170.41
177.8
173.851
174.92
180.505
173.28
180.766
184.284
188.384
189.819
209.809
206.314
216.088
-59.2318
-68.9993
-79.7238
-90.5735
-100.218
-107.753
-112.958
-116.013
-117.241
-116.994
-115.607
-113.371
-110.529
-107.268
-103.727
-100.007
-96.181
-92.2997
-88.399
-84.5034
-80.6294
-76.788
-72.9862
-69.228
-65.5156
-61.8496
-58.2297
-54.6549
-51.1236
-47.634
-44.1841
-40.7718
-37.3948
-34.051
-30.7383
-27.4543
-24.197
-20.9643
-17.7541
-14.5647
-11.3939
-8.24002
-5.10122
-1.97586
1.13789
4.24146
7.33664
10.4247
13.5074
16.5858
19.6617
22.7359
25.8104
28.8854
31.9634
35.0439
38.1298
41.22
44.3178
47.4212
50.5343
53.6537
56.7847
59.9221
63.0728
66.229
69.3999
72.5747
75.765
78.9567
82.1638
85.3688
88.588
91.8006
95.0244
98.2362
101.454
104.653
107.849
111.023
114.178
117.306
120.401
123.458
126.473
129.425
132.347
135.149
137.975
140.574
143.314
145.65
148.326
150.34
152.986
154.633
157.252
158.633
160.917
162.546
163.867
166.479
166.87
168.856
169.804
171.702
173.63
170.394
177.794
173.863
174.897
180.518
173.277
180.729
184.27
188.365
189.752
209.77
206.3
216.058
-58.9667
-66.5342
-74.7736
-83.3344
-91.4236
-98.2981
-103.577
-107.2
-109.279
-110.005
-109.602
-108.29
-106.273
-103.727
-100.793
-97.5819
-94.1786
-90.647
-87.0347
-83.377
-79.6992
-76.0198
-72.3519
-68.7047
-65.0843
-61.4949
-57.9388
-54.4173
-50.9305
-47.4784
-44.0599
-40.6741
-37.3195
-33.9946
-30.6977
-27.4273
-24.1814
-20.9584
-17.7564
-14.5739
-11.409
-8.26007
-5.12543
-2.00355
1.10729
4.20846
7.30166
10.3881
13.4695
16.5468
19.622
22.6956
25.7697
28.8445
31.9223
35.0028
38.0888
41.1791
44.2772
47.3809
50.4944
53.6141
56.7456
59.8834
63.0346
66.1914
69.3629
72.5383
75.7292
78.9215
82.1292
85.3349
88.5548
91.7681
94.9926
98.2051
101.423
104.624
107.821
110.995
114.151
117.28
120.376
123.434
126.449
129.402
132.325
135.128
137.955
140.555
143.296
145.633
148.311
150.324
152.972
154.619
157.239
158.622
160.905
162.537
163.853
166.471
166.864
168.845
169.794
171.693
173.637
170.376
177.788
173.875
174.874
180.533
173.27
180.689
184.257
188.343
189.68
209.731
206.286
216.026
-58.2297
-64.2088
-70.6806
-77.4856
-84.1627
-90.1834
-95.1738
-98.9609
-101.521
-102.921
-103.283
-102.754
-101.487
-99.6282
-97.3066
-94.6309
-91.6894
-88.5526
-85.2757
-81.9015
-78.4629
-74.985
-71.4866
-67.982
-64.4817
-60.9933
-57.5222
-54.0723
-50.646
-47.2448
-43.8695
-40.5201
-37.1963
-33.8976
-30.6229
-27.3712
-24.1413
-20.9318
-17.7414
-14.5686
-11.412
-8.2701
-5.14139
-2.02451
1.08212
4.17975
7.27001
10.354
13.4334
16.5091
19.583
22.6555
25.7288
28.803
31.8804
34.9607
38.0466
41.1369
44.2351
47.3389
50.4527
53.5727
56.7046
59.8428
62.9945
66.1518
69.3238
72.4998
75.6913
78.8842
82.0927
85.299
88.5196
91.7337
94.9589
98.1723
101.391
104.593
107.79
110.965
114.123
117.252
120.349
123.408
126.424
129.378
132.302
135.106
137.934
140.535
143.277
145.615
148.294
150.307
152.957
154.604
157.226
158.609
160.891
162.528
163.839
166.464
166.858
168.834
169.784
171.685
173.645
170.355
177.784
173.887
174.846
180.551
173.26
180.641
184.245
188.316
189.599
209.69
206.273
215.99
-57.1504
-61.938
-67.1124
-72.5865
-78.0775
-83.2307
-87.746
-91.4285
-94.1838
-95.9963
-96.9082
-97.0001
-96.3718
-95.1323
-93.3889
-91.239
-88.7673
-86.0447
-83.1298
-80.07
-76.903
-73.6589
-70.3614
-67.029
-63.676
-60.3136
-56.9502
-53.5922
-50.2444
-46.9101
-43.5919
-40.2912
-37.0089
-33.7456
-30.5011
-27.2752
-24.0672
-20.8765
-17.702
-14.5429
-11.3978
-8.26576
-5.14542
-2.03565
1.06496
4.15751
7.24349
10.3239
13.4003
16.4735
19.5453
22.6162
25.6882
28.7614
31.838
34.9177
38.0032
41.0932
44.1913
47.2951
50.4091
53.5293
56.6615
59.8001
62.9522
66.1099
69.2825
72.459
75.6512
78.8448
82.0539
85.2609
88.4823
91.6971
94.9231
98.1373
101.357
104.559
107.758
110.934
114.092
117.223
120.32
123.381
126.398
129.353
132.278
135.083
137.912
140.513
143.257
145.595
148.276
150.289
152.942
154.588
157.212
158.596
160.877
162.518
163.823
166.456
166.852
168.822
169.772
171.677
173.654
170.33
177.782
173.899
174.816
180.573
173.246
180.59
184.233
188.284
189.509
209.65
206.259
215.95
-55.8099
-59.6851
-63.8812
-68.3376
-72.8633
-77.2228
-81.1982
-84.6184
-87.3673
-89.3829
-90.6529
-91.2047
-91.0921
-90.3855
-89.1641
-87.5079
-85.4919
-83.1829
-80.6387
-77.9082
-75.032
-72.0436
-68.9699
-65.833
-62.6503
-59.436
-56.2012
-52.9547
-49.7034
-46.4527
-43.2066
-39.9681
-36.7396
-33.5225
-30.3178
-27.1261
-23.9476
-20.7821
-17.6294
-14.4888
-11.3597
-8.24125
-5.13256
-2.03273
1.05942
4.14476
7.22464
10.2999
13.3719
16.4415
19.5103
22.5787
25.6486
28.7201
31.7954
34.874
37.9588
41.0482
44.146
47.2496
50.3634
53.4837
56.6161
59.7549
62.9074
66.0656
69.2386
72.4157
75.6084
78.8027
82.0125
85.2203
88.4425
91.6581
94.885
98.1001
101.321
104.524
107.723
110.9
114.06
117.192
120.29
123.351
126.37
129.326
132.253
135.058
137.889
140.491
143.237
145.575
148.258
150.271
152.926
154.571
157.197
158.583
160.863
162.508
163.806
166.449
166.845
168.809
169.759
171.671
173.665
170.302
177.783
173.911
174.784
180.6
173.227
180.53
184.223
188.246
189.409
209.608
206.245
215.906
-54.2695
-57.4342
-60.874
-64.539
-68.2871
-71.9579
-75.401
-78.4835
-81.0955
-83.1579
-84.6269
-85.4926
-85.773
-85.5041
-84.7364
-83.5282
-81.9405
-80.0313
-77.8544
-75.4572
-72.8808
-70.1604
-67.3253
-64.4
-61.4046
-58.3556
-55.2665
-52.1481
-49.0095
-45.8575
-42.6979
-39.5351
-36.3727
-33.2132
-30.0587
-26.9107
-23.7701
-20.6376
-17.5133
-14.3973
-11.2895
-8.18945
-5.09656
-2.01032
1.07017
4.14553
7.21688
10.2848
13.3508
16.4151
19.4795
22.5442
25.611
28.6799
31.7532
34.8301
37.9136
41.002
44.099
47.202
50.3156
53.4357
56.5681
59.707
62.8598
66.0183
69.1918
72.3693
75.5627
78.7576
81.9681
85.1767
88.3997
91.6162
94.844
98.0601
101.282
104.486
107.687
110.865
114.025
117.158
120.258
123.321
126.341
129.298
132.226
135.032
137.865
140.467
143.215
145.554
148.238
150.252
152.908
154.554
157.182
158.568
160.848
162.498
163.788
166.441
166.838
168.795
169.745
171.663
173.676
170.269
177.786
173.923
174.739
180.632
173.202
180.461
184.215
188.202
189.298
209.567
206.231
215.857
-52.5766
-55.1777
-58.0202
-61.0594
-64.1807
-67.2694
-70.2237
-72.9472
-75.3487
-77.35
-78.8941
-79.9494
-80.508
-80.5801
-80.1903
-79.3749
-78.1779
-76.6457
-74.8242
-72.7566
-70.4824
-68.0365
-65.4491
-62.7463
-59.9501
-57.0791
-54.1487
-51.1717
-48.1587
-45.1183
-42.0577
-38.9825
-35.8976
-32.8066
-29.7124
-26.6176
-23.5236
-20.4321
-17.3437
-14.2591
-11.1786
-8.10243
-5.03028
-1.96204
1.10288
4.16477
7.22453
10.2825
13.3399
16.3969
19.4551
22.5145
25.5769
28.6421
31.7123
34.7867
37.868
40.9548
44.0505
47.1526
50.2654
53.385
56.5172
59.656
62.8089
65.9675
69.1414
72.3194
75.5133
78.7088
81.9202
85.1295
88.3534
91.5708
94.7997
98.0168
101.24
104.445
107.647
110.826
113.988
117.122
120.224
123.287
126.309
129.267
132.197
135.005
137.839
140.443
143.192
145.531
148.218
150.232
152.89
154.536
157.167
158.553
160.833
162.486
163.769
166.435
166.831
168.779
169.729
171.664
173.69
170.231
177.793
173.935
174.703
180.669
173.172
180.394
184.208
188.15
189.175
209.525
206.218
215.799
-50.7602
-52.9083
-55.2722
-57.8101
-60.4232
-63.0255
-65.5478
-67.9233
-70.0818
-71.9548
-73.4846
-74.6297
-75.3663
-75.6872
-75.5969
-75.1124
-74.2602
-73.0733
-71.5877
-69.8397
-67.8646
-65.6951
-63.3609
-60.8884
-58.3007
-55.6177
-52.8565
-50.0314
-47.1546
-44.2363
-41.285
-38.3076
-35.3099
-32.2968
-29.2722
-26.2391
-23.2001
-20.1573
-17.1121
-14.0658
-11.0191
-7.97259
-4.92655
-1.88123
1.16364
4.20802
7.25254
10.2973
13.3432
16.3903
19.44
22.4921
25.5483
28.6082
31.674
34.7446
37.8229
40.9071
44.0008
47.1012
50.2128
53.3315
56.463
59.6014
62.7541
65.9128
69.0869
72.2652
75.4597
78.6557
81.8678
85.078
88.3029
91.5212
94.7512
97.9695
101.194
104.4
107.603
110.784
113.948
117.083
120.186
123.252
126.275
129.235
132.166
134.975
137.811
140.416
143.167
145.508
148.196
150.211
152.871
154.517
157.15
158.537
160.817
162.474
163.748
166.428
166.823
168.762
169.712
171.661
173.705
170.187
177.804
173.946
174.656
180.713
173.134
180.282
184.204
188.09
189.04
209.484
206.204
215.733
-48.8418
-50.6224
-52.5983
-54.7296
-56.9278
-59.1248
-61.2732
-63.3282
-65.2382
-66.9473
-68.4033
-69.5632
-70.3961
-70.8834
-71.017
-70.7984
-70.2391
-69.3584
-68.1813
-66.7358
-65.0507
-63.155
-61.0758
-58.8387
-56.4666
-53.9802
-51.3972
-48.7335
-46.0024
-43.2155
-40.3825
-37.5116
-34.6098
-31.6829
-28.7357
-25.7721
-22.7955
-19.8086
-16.8134
-13.8117
-10.8048
-7.79381
-4.77931
-1.76196
1.25816
4.28068
7.30595
10.3338
13.3649
16.3991
19.4375
22.4799
25.5277
28.5803
31.6399
34.7053
37.7792
40.8596
43.9503
47.0481
50.1578
53.2749
56.4053
59.5428
62.695
65.8533
69.0274
72.2059
75.4007
78.5973
81.8101
85.021
88.247
91.4663
94.6976
97.9171
101.143
104.351
107.556
110.738
113.903
117.04
120.146
123.212
126.238
129.199
132.133
134.943
137.782
140.388
143.141
145.483
148.173
150.189
152.851
154.497
157.133
158.52
160.8
162.462
163.725
166.423
166.816
168.744
169.693
171.664
173.721
170.136
177.819
173.958
174.602
180.764
173.089
180.182
184.202
188.022
188.892
209.443
206.19
215.656
-46.8383
-48.3183
-49.9763
-51.7744
-53.6312
-55.4901
-57.3184
-59.087
-60.7588
-62.2903
-63.6372
-64.7599
-65.6259
-66.2113
-66.5004
-66.4845
-66.1632
-65.5442
-64.6416
-63.4742
-62.0637
-60.4333
-58.6066
-56.6066
-54.4548
-52.1716
-49.7749
-47.2812
-44.7048
-42.0582
-39.3523
-36.5964
-33.7986
-30.9656
-28.1031
-25.2161
-22.3086
-19.3839
-16.4449
-13.4937
-10.5323
-7.56218
-4.58435
-1.59984
1.39091
4.38723
7.38918
10.3963
13.409
16.427
19.4512
22.481
25.5179
28.5609
31.6123
34.6705
37.7383
40.8135
43.8998
46.994
50.1007
53.2152
56.3437
59.4797
62.6309
65.7884
68.9621
72.1404
75.3355
78.5323
81.7459
84.9574
88.1844
91.4048
94.6375
97.8583
101.086
104.295
107.502
110.686
113.854
116.993
120.1
123.169
126.197
129.16
132.096
134.908
137.75
140.357
143.113
145.456
148.148
150.166
152.829
154.476
157.114
158.503
160.782
162.448
163.703
166.418
166.808
168.724
169.672
171.662
173.74
170.078
177.84
173.969
174.544
180.822
173.036
180.066
184.203
187.944
188.732
209.4
206.18
215.566
-44.763
-45.9952
-47.3905
-48.9129
-50.4865
-52.0628
-53.6185
-55.1353
-56.5876
-57.942
-59.1625
-60.2148
-61.0685
-61.6984
-62.0849
-62.214
-62.0772
-61.6729
-61.0061
-60.0866
-58.9288
-57.5494
-55.9671
-54.2012
-52.271
-50.1951
-47.991
-45.6748
-43.2614
-40.7638
-38.1937
-35.5613
-32.8757
-30.1444
-27.3742
-24.5707
-21.7389
-18.8827
-16.0056
-13.1106
-10.2
-7.2757
-4.3393
-1.3922
1.56484
4.53079
7.50547
10.4881
13.479
16.4774
19.4841
22.4984
25.5216
28.5526
31.5933
34.6422
37.702
40.7702
43.8505
46.9395
50.0419
53.1528
56.2784
59.412
62.5613
65.7174
68.8903
72.0678
75.2628
78.4596
81.6736
84.8857
88.1138
91.3351
94.5693
97.7914
101.021
104.232
107.441
110.627
113.797
116.938
120.049
123.119
126.151
129.116
132.056
134.869
137.714
140.323
143.082
145.427
148.122
150.141
152.806
154.455
157.095
158.484
160.764
162.434
163.679
166.411
166.8
168.704
169.648
171.666
173.761
170.011
177.865
173.979
174.477
180.888
172.976
179.934
184.201
187.858
188.56
209.359
206.173
215.464
-42.6261
-43.6526
-44.8293
-46.1218
-47.4592
-48.7981
-50.1219
-51.4198
-52.6744
-53.8606
-54.9497
-55.913
-56.7239
-57.3585
-57.7963
-58.021
-58.0195
-57.7839
-57.312
-56.6064
-55.6741
-54.5257
-53.1742
-51.6346
-49.9227
-48.0547
-46.0466
-43.9136
-41.6701
-39.3294
-36.9034
-34.403
-31.8379
-29.2165
-26.5463
-23.8337
-21.0844
-18.3032
-15.4942
-12.661
-9.80639
-6.93299
-4.04271
-1.13743
1.78171
4.71334
7.65697
10.6115
13.5771
16.5526
19.5389
22.5347
25.5414
28.5577
31.5853
34.6226
37.6721
40.7313
43.8038
46.8859
49.9825
53.0883
56.2097
59.3396
62.4862
65.6399
68.8111
71.9873
75.1815
78.3778
81.592
84.8043
88.0332
91.2554
94.4911
97.7145
100.946
104.159
107.371
110.559
113.732
116.875
119.99
123.062
126.098
129.065
132.009
134.825
137.674
140.285
143.047
145.395
148.092
150.115
152.781
154.432
157.074
158.465
160.744
162.419
163.653
166.405
166.794
168.68
169.621
171.673
173.784
169.937
177.896
173.99
174.4
180.96
172.909
179.793
184.208
187.767
188.383
209.313
206.175
215.348
-40.4359
-41.2909
-42.2843
-43.384
-44.5227
-45.6615
-46.7881
-47.8967
-48.9759
-50.007
-50.9673
-51.8336
-52.5831
-53.1948
-53.6492
-53.9294
-54.0206
-53.9114
-53.5945
-53.067
-52.3298
-51.3878
-50.2485
-48.9222
-47.4207
-45.7571
-43.945
-41.9979
-39.9292
-37.7517
-35.4772
-33.1167
-30.6802
-28.1768
-25.6146
-23.0006
-20.3412
-17.642
-14.9076
-12.1422
-9.34926
-6.53198
-3.69271
-0.833821
2.04317
4.93648
7.84531
10.7682
13.7051
16.6546
19.6173
22.5918
25.5793
28.5781
31.5902
34.6134
37.6505
40.6985
43.7612
46.8345
49.9235
53.0225
56.1383
59.2631
62.4056
65.5557
68.7242
71.8981
75.0909
78.2859
81.4996
84.7116
87.941
91.1636
94.4007
97.6253
100.859
104.074
107.288
110.478
113.656
116.801
119.92
122.995
126.036
129.005
131.955
134.773
137.628
140.242
143.008
145.359
148.058
150.085
152.753
154.407
157.05
158.445
160.722
162.403
163.627
166.399
166.787
168.656
169.593
171.682
173.808
169.853
177.933
174
174.329
181.038
172.836
179.634
184.213
187.673
188.203
209.268
206.191
215.223
-38.1991
-38.9104
-39.7495
-40.6862
-41.6571
-42.6265
-43.585
-44.5303
-45.4554
-46.3462
-47.1851
-47.9531
-48.6317
-49.2027
-49.6487
-49.9536
-50.1027
-50.0829
-49.8842
-49.4998
-48.9262
-48.1632
-47.2138
-46.0835
-44.78
-43.3129
-41.6927
-39.9308
-38.039
-36.0287
-33.9113
-31.6974
-29.397
-27.0193
-24.5729
-22.0654
-19.5036
-16.8935
-14.2406
-11.5496
-8.82452
-6.06907
-3.28615
-0.478582
2.35167
5.20239
8.07246
10.9601
13.8648
16.785
19.7211
22.6714
25.6369
28.6157
31.6098
34.6165
37.6389
40.6734
43.7242
46.7867
49.8663
52.9567
56.0651
59.1833
62.3202
65.4653
68.6298
71.8001
74.9903
78.183
81.3955
84.6063
87.8356
91.0581
94.2963
97.5216
100.757
103.974
107.192
110.384
113.565
116.713
119.838
122.915
125.963
128.934
131.891
134.712
137.573
140.19
142.962
145.318
148.02
150.053
152.72
154.381
157.023
158.425
160.699
162.386
163.599
166.391
166.781
168.629
169.562
171.696
173.829
169.766
177.973
174.01
174.219
181.123
172.756
179.474
184.216
187.584
188.031
209.22
206.23
215.096
-35.9213
-36.5119
-37.2204
-38.0186
-38.8469
-39.6722
-40.4872
-41.2919
-42.0822
-42.8479
-43.5748
-44.2479
-44.852
-45.372
-45.793
-46.1002
-46.2799
-46.3189
-46.2062
-45.9326
-45.4916
-44.8795
-44.0953
-43.1404
-42.0186
-40.736
-39.2999
-37.7189
-36.0027
-34.161
-32.204
-30.1416
-27.9833
-25.7383
-23.415
-21.0214
-18.5646
-16.0512
-13.487
-10.8773
-8.2266
-5.53917
-2.81837
-0.0675396
2.71095
5.51442
8.3414
11.1897
14.0585
16.946
19.8523
22.7753
25.716
28.6722
31.6456
34.6335
37.6388
40.6578
43.6946
46.7442
49.8123
52.8923
55.9916
59.1013
62.231
65.3694
68.5286
71.6937
74.8801
78.0691
81.2793
84.4877
87.7162
90.9375
94.1761
97.4015
100.639
103.856
107.078
110.271
113.458
116.608
119.739
122.818
125.874
128.848
131.814
134.637
137.507
140.129
142.907
145.269
147.974
150.015
152.682
154.352
156.992
158.404
160.671
162.369
163.571
166.381
166.775
168.602
169.529
171.712
173.852
169.673
178.009
174.022
174.131
181.204
172.682
179.301
184.218
187.514
187.876
209.171
206.302
214.978
-33.6075
-34.0962
-34.6936
-35.3737
-36.0803
-36.7826
-37.4747
-38.1582
-38.8311
-39.4859
-40.1113
-40.6954
-41.2257
-41.6899
-42.0754
-42.3693
-42.5593
-42.633
-42.5793
-42.388
-42.0512
-41.5625
-40.9181
-40.1162
-39.1572
-38.0438
-36.7802
-35.3722
-33.8269
-32.152
-30.3561
-28.4478
-26.4359
-24.3289
-22.135
-19.8622
-17.5175
-15.108
-12.6397
-10.1184
-7.54889
-4.93601
-2.28352
0.404735
3.126
5.87709
8.65624
11.4607
14.2897
17.1406
20.0135
22.9059
25.8189
28.7494
31.6997
34.6661
37.6521
40.6531
43.6738
46.7085
49.7633
52.8309
55.9192
59.0187
62.1395
65.2695
68.4215
71.58
74.7611
77.9449
81.1514
84.3561
87.5824
90.8014
94.0395
97.2637
100.502
103.72
106.944
110.139
113.33
116.482
119.62
122.702
125.767
128.743
131.72
134.546
137.427
140.053
142.839
145.209
147.918
149.97
152.636
154.32
156.954
158.382
160.64
162.351
163.542
166.368
166.771
168.574
169.495
171.731
173.873
169.578
178.064
174.036
174.026
181.287
172.608
179.139
184.218
187.469
187.753
209.121
206.424
214.887
-31.2617
-31.6641
-32.1669
-32.7456
-33.3478
-33.9447
-34.5314
-35.1104
-35.6812
-36.2383
-36.7728
-37.2749
-37.7346
-38.1419
-38.4863
-38.7568
-38.9426
-39.0326
-39.0163
-38.8836
-38.6257
-38.2351
-37.7059
-37.0341
-36.2175
-35.2557
-34.1502
-32.904
-31.5216
-30.0087
-28.3716
-26.6175
-24.7539
-22.7885
-20.7288
-18.5824
-16.3562
-14.0573
-11.6918
-9.26574
-6.78432
-4.25268
-1.67494
0.944558
3.60276
6.29595
9.02211
11.778
14.5625
17.3726
20.2084
23.0666
25.9483
28.8502
31.7743
34.7167
37.6808
40.6615
43.6639
46.6815
49.721
52.7741
55.8497
58.937
62.0472
65.1671
68.3104
71.4604
74.6346
77.8116
81.0129
84.2122
87.4352
90.6501
93.8867
97.1083
100.347
103.563
106.79
109.985
113.181
116.334
119.48
122.562
125.638
128.616
131.605
134.434
137.327
139.959
142.756
145.135
147.849
149.916
152.58
154.283
156.908
158.358
160.601
162.333
163.515
166.35
166.768
168.546
169.463
171.75
173.893
169.486
178.044
174.057
173.927
181.367
172.546
178.989
184.221
187.473
187.676
209.074
206.611
214.847
-28.8874
-29.2167
-29.6384
-30.1301
-30.6424
-31.1487
-31.6445
-32.1333
-32.6154
-33.0868
-33.5403
-33.968
-34.3618
-34.7135
-35.0145
-35.2557
-35.4275
-35.5205
-35.5249
-35.4315
-35.2312
-34.9162
-34.4796
-33.9158
-33.2207
-32.3917
-31.428
-30.33
-29.0998
-27.7408
-26.2574
-24.6549
-22.9391
-21.1167
-19.1941
-17.1782
-15.0757
-12.8932
-10.6368
-8.31255
-5.92584
-3.4821
-0.985626
1.55875
4.1478
6.77723
9.44489
12.1469
14.8821
17.6468
20.4412
23.2611
26.1081
28.9777
31.8727
34.7879
37.7275
40.6852
43.667
46.6651
49.6873
52.7239
55.7849
58.8582
61.9561
65.0639
68.197
71.3368
74.5026
77.6709
80.8657
84.0578
87.276
90.4852
93.7189
96.9361
100.175
103.387
106.616
109.809
113.01
116.161
119.315
122.397
125.485
128.462
131.466
134.297
137.206
139.844
142.652
145.044
147.764
149.848
152.51
154.239
156.85
158.334
160.555
162.315
163.488
166.326
166.768
168.52
169.435
171.768
173.91
169.407
178.085
174.09
173.826
181.443
172.502
178.877
184.234
187.537
187.665
209.03
206.885
214.884
-26.4879
-26.7551
-27.1073
-27.5237
-27.9584
-28.3864
-28.804
-29.2147
-29.6197
-30.016
-30.3978
-30.7586
-31.0919
-31.3909
-31.6485
-31.8572
-32.0091
-32.0957
-32.1086
-32.0392
-31.8793
-31.6209
-31.2568
-30.7805
-30.1869
-29.4718
-28.6325
-27.6674
-26.5765
-25.3611
-24.0235
-22.5671
-20.9961
-19.3156
-17.531
-15.6481
-13.6728
-11.6113
-9.46921
-7.25271
-4.96686
-2.6174
-0.20859
2.25428
4.76798
7.32759
9.93101
12.5735
15.2543
17.9686
20.7169
23.4943
26.3025
29.136
31.9984
34.883
37.7952
40.727
43.6857
46.6618
49.6645
52.6823
55.7269
58.784
61.868
64.962
68.0832
71.2109
74.367
77.5248
80.7117
83.8948
87.107
90.3085
93.5383
96.7491
99.9857
103.193
106.423
109.611
112.817
115.965
119.127
122.206
125.306
128.282
131.302
134.134
137.059
139.703
142.526
144.93
147.658
149.764
152.424
154.186
156.778
158.308
160.499
162.298
163.464
166.295
166.772
168.499
169.418
171.785
173.925
169.354
178.103
174.143
173.738
181.513
172.487
178.819
184.269
187.684
187.745
208.995
207.264
215.028
-24.066
-24.2804
-24.5727
-24.924
-25.2914
-25.6517
-26.0016
-26.3446
-26.6826
-27.0132
-27.3318
-27.6329
-27.9112
-28.1611
-28.3769
-28.5523
-28.6807
-28.7548
-28.7674
-28.7108
-28.5775
-28.36
-28.0512
-27.6445
-27.1339
-26.5145
-25.7822
-24.934
-23.9681
-22.884
-21.682
-20.364
-18.9323
-17.3904
-15.7422
-13.9926
-12.1462
-10.2088
-8.18516
-6.08124
-3.90166
-1.65233
0.6628
3.03796
5.47019
7.95383
10.4871
13.0644
15.6853
18.3439
21.0413
23.7712
26.5363
29.3296
32.1556
35.0059
37.8875
40.7901
43.723
46.6742
49.6552
52.6516
55.6778
58.7165
61.7851
64.863
67.971
71.0848
74.2296
77.3753
80.553
83.7253
86.9303
90.1224
93.3471
96.5495
99.7835
102.984
106.214
109.395
112.605
115.747
118.917
121.991
125.103
128.076
131.111
133.943
136.886
139.535
142.374
144.792
147.529
149.661
152.317
154.121
156.689
158.28
160.43
162.283
163.444
166.256
166.785
168.487
169.42
171.797
173.94
169.346
178.114
174.229
173.666
181.584
172.546
178.844
184.344
187.944
187.955
208.973
207.767
215.301
-21.6243
-21.7937
-22.0345
-22.3292
-22.6382
-22.9397
-23.2309
-23.5153
-23.7949
-24.0681
-24.3309
-24.579
-24.8077
-25.0127
-25.1891
-25.3317
-25.435
-25.493
-25.4992
-25.4472
-25.33
-25.1409
-24.8732
-24.5205
-24.0766
-23.5361
-22.8942
-22.147
-21.2912
-20.3249
-19.247
-18.0576
-16.7573
-15.3483
-13.8329
-12.2148
-10.4972
-8.68515
-6.78244
-4.79468
-2.72572
-0.58156
1.63448
3.91613
6.26103
8.66267
11.12
13.6261
16.1815
18.7788
21.4202
24.0975
26.8151
29.5634
32.349
35.161
38.0084
40.8783
43.7824
46.7054
49.6621
52.6344
55.6401
58.658
61.7092
64.7691
67.8622
70.9602
74.0924
77.224
80.3914
83.5511
86.7479
89.9287
93.1475
96.3397
99.5703
102.761
105.991
109.164
112.376
115.51
118.688
121.755
124.878
127.846
130.896
133.726
136.687
139.341
142.196
144.629
147.375
149.537
152.188
154.043
156.579
158.249
160.348
162.269
163.431
166.208
166.811
168.488
169.451
171.805
173.961
169.406
178.105
174.373
173.626
181.662
172.676
178.981
184.482
188.352
188.343
208.974
208.404
215.719
-19.1653
-19.2963
-19.4926
-19.7381
-19.9961
-20.2466
-20.4867
-20.7202
-20.949
-21.1719
-21.3858
-21.5868
-21.7713
-21.9354
-22.0752
-22.1866
-22.2647
-22.3045
-22.3005
-22.2471
-22.1382
-21.9679
-21.7299
-21.4183
-21.0271
-20.5507
-19.984
-19.3224
-18.562
-17.6997
-16.7332
-15.6613
-14.4831
-13.1994
-11.8109
-10.3203
-8.72926
-7.04194
-5.26093
-3.39138
-1.43607
0.598951
2.71136
4.89435
7.14655
9.46047
11.8361
14.2652
16.7495
19.2798
21.8599
24.4793
27.1444
29.8428
32.5838
35.353
38.1624
40.9956
43.8676
46.7591
49.6887
52.6338
55.6166
58.611
61.6429
64.6823
67.7589
70.8391
73.9571
77.0728
80.2285
83.3739
86.5615
89.7293
92.9413
96.1215
99.3481
102.528
105.756
108.919
112.134
115.258
118.442
121.5
124.635
127.595
130.66
133.488
136.465
139.124
141.994
144.443
147.198
149.392
152.037
153.953
156.448
158.216
160.253
162.256
163.428
166.153
166.856
168.51
169.524
171.808
173.999
169.565
178.071
174.609
173.64
181.762
172.956
179.267
184.718
188.936
188.961
209.011
209.181
216.285
-16.6912
-16.7896
-16.9474
-17.1499
-17.3635
-17.5694
-17.7651
-17.9542
-18.1387
-18.3177
-18.4886
-18.6481
-18.793
-18.9204
-19.0268
-19.1088
-19.1624
-19.1833
-19.1668
-19.1081
-19.002
-18.8431
-18.6259
-18.345
-17.9946
-17.5695
-17.0644
-16.4746
-15.7955
-15.0237
-14.1556
-13.1892
-12.1224
-10.9549
-9.68591
-8.31686
-6.84821
-5.2831
-3.62271
-1.87175
-0.031605
1.89165
3.89699
5.97712