/*--------------------------------*- C++ -*----------------------------------*\
| =========                 |                                                 |
| \\      /  F ield         | OpenFOAM: The Open Source CFD Toolbox           |
|  \\    /   O peration     | Version:  2412                                  |
|   \\  /    A nd           | Website:  www.openfoam.com                      |
|    \\/     M anipulation  |                                                 |
\*---------------------------------------------------------------------------*/
FoamFile
{
    version     2.0;
    format      ascii;
    arch        "LSB;label=32;scalar=64";
    class       surfaceScalarField;
    location    "0.855";
    object      ddtCorrDdt0(phi);
}
// * * * * * * * * * * * * * * * * * * * * * * * * * * * * * * * * * * * * * //

dimensions      [0 3 -2 0 0 0 0];

oriented        oriented;

internalField   nonuniform List<scalar> 
24930
(
0.00065947
0.000899472
-0.000381084
0.000385559
0.000327071
0.000286615
0.000142022
0.00023479
8.26289e-05
0.0001997
5.94305e-05
0.000168547
4.83521e-05
0.000139851
3.90771e-05
0.000111774
3.14024e-05
8.58622e-05
2.26856e-05
6.03284e-05
1.57376e-05
3.49753e-05
9.5358e-06
1.09863e-05
3.39908e-06
-1.02892e-05
-2.71693e-06
-2.82771e-05
-8.44768e-06
-4.3235e-05
-1.34311e-05
-5.57388e-05
-1.75305e-05
-6.62148e-05
-2.07937e-05
-7.48385e-05
-2.32942e-05
-8.16958e-05
-2.50285e-05
-8.69388e-05
-2.59414e-05
-9.0781e-05
-2.6016e-05
-9.33806e-05
-2.53251e-05
-9.47395e-05
-2.40116e-05
-9.47032e-05
-2.22288e-05
-9.30556e-05
-2.00926e-05
-8.96407e-05
-1.76735e-05
-8.44448e-05
-1.50232e-05
-7.76163e-05
-1.22028e-05
-6.9448e-05
-9.28751e-06
-6.03478e-05
-6.35215e-06
-5.08044e-05
-3.46402e-06
-4.13361e-05
-6.93096e-07
-3.24246e-05
1.87168e-06
-2.44484e-05
4.11958e-06
-1.76378e-05
5.9319e-06
-1.20665e-05
7.21102e-06
-7.67581e-06
7.90436e-06
-4.32467e-06
8.0255e-06
-1.83489e-06
7.64403e-06
-2.64419e-08
6.8726e-06
1.28711e-06
5.82245e-06
2.28874e-06
4.61194e-06
3.17458e-06
3.33363e-06
4.11645e-06
2.10155e-06
5.28433e-06
9.84571e-07
6.78463e-06
8.37688e-08
8.71564e-06
-5.92066e-07
1.10643e-05
-9.74301e-07
1.38077e-05
-1.14469e-06
1.67382e-05
-1.05946e-06
1.96464e-05
-9.01334e-07
2.20542e-05
-6.13206e-07
2.35722e-05
-4.93888e-07
2.35235e-05
-4.25441e-07
2.15552e-05
-8.15568e-07
1.70453e-05
-1.34698e-06
1.0052e-05
-2.4836e-06
3.47035e-07
-3.54227e-06
-1.11976e-05
-5.06431e-06
-2.4206e-05
-5.90173e-06
-3.68647e-05
-6.8741e-06
-4.85082e-05
-6.41779e-06
-5.6912e-05
-6.07105e-06
-6.21953e-05
-3.97554e-06
-6.27385e-05
-2.84383e-06
-6.0588e-05
-2.49785e-07
-5.50327e-05
-6.17619e-08
-4.99534e-05
1.6835e-06
-4.42395e-05
1.41363e-07
-4.23057e-05
1.61811e-06
-4.07785e-05
-4.55666e-07
-4.39066e-05
2.6043e-06
-4.551e-05
1.03026e-06
-5.08321e-05
6.05105e-06
-5.1802e-05
3.6369e-06
-5.6615e-05
8.73618e-06
-5.57024e-05
2.72106e-06
-6.08588e-05
6.63776e-06
-5.95141e-05
-2.86836e-06
-6.64395e-05
3.20586e-06
-6.43071e-05
-5.5701e-06
-7.1062e-05
7.2015e-06
-6.37315e-05
6.59673e-07
-6.55013e-05
1.92224e-05
-4.93975e-05
9.65603e-06
-4.54722e-05
2.32817e-05
-2.58425e-05
1.24116e-06
-2.21933e-05
5.07833e-06
-1.28579e-05
-1.28085e-05
-1.67481e-06
-2.17092e-05
-2.74582e-05
2.56458e-05
4.44059e-05
-4.99104e-05
4.68316e-05
1.11295e-05
-0.000264693
0.000828928
0.000639361
-0.00163705
-0.000393914
0.0007653
0.000127389
-0.000837214
0.00125713
-0.00131403
-0.0034022
0.00744945
0.0030991
-0.0063179
-0.000560989
0.003732
-0.00504392
0.00462268
0.00670051
-0.0112209
-0.0087249
0.0151839
0.0401182
-0.0118263
0.00479945
-0.00167305
-0.0143616
0.0192883
0.0131526
-0.0304475
-0.00216513
0.0152578
-0.0125895
0.0105111
0.0231758
-0.0355666
-0.00574
0.028843
-0.0204023
0.0140844
0.0380429
-0.115519
0.0157482
0.0209917
-0.0227913
0.0400276
-0.00435976
-0.0184351
0.0166026
-0.0208431
0.00390437
0.0127616
0.0082977
0.000909657
0.000740645
-0.000695096
0.000838355
0.000493171
0.00074383
0.000300055
0.000660346
0.000216303
0.000584937
0.000172342
0.000515174
0.000141772
0.000449926
0.000114422
0.000391878
8.78031e-05
0.000336235
6.49504e-05
0.00027997
4.74617e-05
0.000222788
3.26292e-05
0.000166943
1.77241e-05
0.000114958
2.09629e-06
6.79952e-05
-1.32084e-05
2.58375e-05
-2.68776e-05
-1.21765e-05
-3.82981e-05
-4.63925e-05
-4.75621e-05
-7.67554e-05
-5.49198e-05
-0.000103157
-6.03634e-05
-0.000125701
-6.36697e-05
-0.00014464
-6.47009e-05
-0.000160128
-6.36006e-05
-0.000172045
-6.07469e-05
-0.000180031
-5.65669e-05
-0.00018369
-5.13858e-05
-0.000182795
-4.54069e-05
-0.000177404
-3.87954e-05
-0.000167847
-3.17538e-05
-0.000154686
-2.45118e-05
-0.000138682
-1.72653e-05
-0.000120765
-1.01513e-05
-0.000101962
-3.29182e-06
-8.328e-05
3.1402e-06
-6.55801e-05
8.89862e-06
-4.94931e-05
1.36987e-05
-3.54035e-05
1.72979e-05
-2.34904e-05
1.95632e-05
-1.38076e-05
2.05255e-05
-6.34015e-06
2.03443e-05
-1.02911e-06
1.92645e-05
2.26955e-06
1.75015e-05
3.78945e-06
1.52788e-05
3.88057e-06
1.27601e-05
2.93719e-06
1.01817e-05
1.41857e-06
7.68051e-06
-2.64642e-07
5.49427e-06
-1.67255e-06
3.63601e-06
-2.52071e-06
2.30004e-06
-2.53084e-06
1.31107e-06
-1.74204e-06
8.57749e-07
-2.29363e-07
5.53663e-07
1.43613e-06
6.61387e-07
2.77225e-06
4.82669e-07
2.74059e-06
4.05459e-07
7.50553e-07
-6.33139e-07
-4.36833e-06
-1.80447e-06
-1.27874e-05
-4.4514e-06
-2.53202e-05
-6.90372e-06
-4.10521e-05
-1.0868e-05
-5.99942e-05
-1.35315e-05
-7.96995e-05
-1.73662e-05
-9.9547e-05
-1.82505e-05
-0.000115994
-2.01716e-05
-0.000129147
-1.75584e-05
-0.000135742
-1.69522e-05
-0.000138472
-1.08986e-05
-0.000135132
-9.43238e-06
-0.000131515
-1.84349e-06
-0.000125136
-2.22729e-06
-0.000123575
5.47724e-06
-0.000121404
1.98646e-06
-0.000126801
1.05271e-05
-0.000129841
4.26173e-06
-0.000140374
1.52723e-05
-0.000144544
6.23186e-06
-0.000156594
2.03689e-05
-0.000159227
6.81832e-06
-0.000172645
2.35357e-05
-0.000174237
3.43939e-06
-0.000190102
2.39799e-05
-0.000189966
-1.54539e-06
-0.000206225
2.6749e-05
-0.000198456
-4.2181e-06
-0.000209001
3.39666e-05
-0.000187882
-4.04864e-06
-0.000191366
4.03589e-05
-0.000160215
-9.66883e-06
-0.000153944
2.43768e-05
-0.000148936
8.37965e-06
-0.000106599
-3.98044e-05
-0.000221277
0.000153914
7.60555e-05
-0.000348061
-0.000143671
0.000243124
-0.000803302
0.00095613
0.00180898
-0.00361009
-0.00162657
0.0042717
0.00141577
-0.00376501
0.00293063
-0.00267701
-0.00943406
0.0172171
0.0101567
-0.0257879
-0.00371074
0.0175637
-0.0102852
0.0110827
0.019374
-0.0411063
-0.025426
0.0604533
0.010247
-0.0473034
0.00857035
5.56153e-05
-0.0402507
0.0679652
0.043923
-0.120133
-0.0104436
0.0695599
-0.0333182
0.0333295
0.0720592
-0.141132
-0.0226999
0.123514
-0.0571452
0.048947
0.0745623
-0.18727
0.0404366
0.0533736
-0.0689329
0.147413
-0.00514291
-0.0815284
0.0486671
-0.0752888
0.00881723
0.052552
0.0324207
0.000943266
0.000649025
-0.000785836
0.000994352
0.000522087
0.000962567
0.000387002
0.000910138
0.000314562
0.000843089
0.000273906
0.000764788
0.000242243
0.00068622
0.000204016
0.000612569
0.000161657
0.000541327
0.000125127
0.000468689
9.80623e-05
0.000393952
7.58907e-05
0.000319918
5.2952e-05
0.000250017
2.75816e-05
0.000185972
1.79422e-06
0.000127621
-2.16332e-05
7.41285e-05
-4.13453e-05
2.50736e-05
-5.75447e-05
-1.93927e-05
-7.08128e-05
-5.90384e-05
-8.1158e-05
-9.39416e-05
-8.80795e-05
-0.000124405
-9.12237e-05
-0.000150588
-9.082e-05
-0.000172258
-8.7573e-05
-0.00018885
-8.22545e-05
-0.000199765
-7.53859e-05
-0.000204657
-6.72245e-05
-0.000203556
-5.79653e-05
-0.000196833
-4.79048e-05
-0.000185135
-3.74091e-05
-0.000169362
-2.67738e-05
-0.000150647
-1.61715e-05
-0.000130273
-5.7494e-06
-0.000109513
4.22741e-06
-8.94666e-05
1.33318e-05
-7.09461e-05
2.10531e-05
-5.44768e-05
2.69623e-05
-4.03662e-05
3.08399e-05
-2.88101e-05
3.27601e-05
-1.99508e-05
3.30061e-05
-1.38785e-05
3.19686e-05
-1.05519e-05
2.99466e-05
-9.77455e-06
2.7228e-05
-1.11624e-05
2.40004e-05
-1.42339e-05
2.05893e-05
-1.83949e-05
1.71655e-05
-2.30723e-05
1.40817e-05
-2.76339e-05
1.13203e-05
-3.16084e-05
9.18787e-06
-3.45302e-05
7.38135e-06
-3.63089e-05
6.24167e-06
-3.69204e-05
5.14366e-06
-3.69336e-05
4.57749e-06
-3.6836e-05
3.37821e-06
-3.77709e-05
2.24225e-06
-4.03924e-05
-6.17869e-07
-4.60622e-05
-3.7132e-06
-5.50476e-05
-9.26995e-06
-6.84266e-05
-1.43006e-05
-8.53505e-05
-2.16391e-05
-0.000106097
-2.63366e-05
-0.000128124
-3.26093e-05
-0.000150985
-3.33245e-05
-0.000170789
-3.5415e-05
-0.000187776
-2.93199e-05
-0.000198137
-2.65091e-05
-0.000204854
-1.4259e-05
-0.000205074
-1.02686e-05
-0.000205245
3.81302e-06
-0.00020214
3.24054e-06
-0.000204478
1.60101e-05
-0.000205799
8.63698e-06
-0.000215873
2.21177e-05
-0.000223099
9.88607e-06
-0.000239428
2.86523e-05
-0.00024848
1.3076e-05
-0.000267406
3.9315e-05
-0.000275355
1.74917e-05
-0.000296552
4.94812e-05
-0.000303386
1.58086e-05
-0.000327554
5.32902e-05
-0.000332085
7.44236e-06
-0.000356965
5.61602e-05
-0.000352017
-2.52239e-06
-0.000371317
6.44567e-05
-0.000349939
-7.28357e-06
-0.000363562
8.00629e-05
-0.000327181
-1.40988e-05
-0.00033848
6.80031e-05
-0.000328585
2.5034e-05
-0.000259633
-9.09205e-05
-0.000483969
0.000389601
7.15098e-05
-0.000893834
-0.000475892
0.000802664
-0.00134676
0.00183262
0.00293517
-0.00791931
-0.00319462
0.0103637
0.00302377
-0.0100152
0.00411941
-0.00370262
-0.0152588
0.0367279
0.018066
-0.0590065
-0.0081314
0.043748
-0.0139331
0.0168515
0.0320908
-0.0871011
-0.0427318
0.13282
0.0216301
-0.111491
0.00906907
0.012648
-0.0664773
0.143431
0.0784336
-0.272598
-0.0223082
0.170359
-0.0520526
0.0630757
0.123508
-0.316747
-0.0454445
0.292326
-0.0914009
0.0950443
0.136154
-0.414565
0.0599688
0.129619
-0.118237
0.32565
-0.00336726
-0.196325
0.0810174
-0.159657
0.0103851
0.123153
0.071712
0.000939107
0.000591642
-0.000821221
0.00101859
0.000520691
0.00102543
0.000433236
0.00100714
0.000377626
0.00096527
0.000348848
0.000904824
0.000324211
0.000834126
0.000285896
0.000759947
0.000236693
0.000683912
0.000191109
0.000603917
0.000157211
0.000519707
0.000129938
0.000434697
0.00010058
0.000353452
6.59206e-05
0.000278734
2.90212e-05
0.000210763
-5.22827e-06
0.000148501
-3.41415e-05
9.12057e-05
-5.79013e-05
3.88956e-05
-7.76038e-05
-8.19167e-06
-9.34041e-05
-5.01827e-05
-0.000104466
-8.75327e-05
-0.00011011
-0.000120542
-0.000110658
-0.000148968
-0.000107279
-0.000172078
-0.000101242
-0.000189034
-9.33184e-05
-0.000199302
-8.37571e-05
-0.000202823
-7.26775e-05
-0.000199956
-6.03917e-05
-0.00019138
-4.73645e-05
-0.000178058
-3.39648e-05
-0.000161233
-2.0364e-05
-0.000142334
-6.70361e-06
-0.000122787
6.65479e-06
-0.000103796
1.90552e-05
-8.6223e-05
2.9696e-05
-7.06038e-05
3.79165e-05
-5.72578e-05
4.34056e-05
-4.64263e-05
4.63073e-05
-3.8333e-05
4.7058e-05
-3.31624e-05
4.6205e-05
-3.09466e-05
4.41087e-05
-3.15248e-05
4.10879e-05
-3.45066e-05
3.73175e-05
-3.93798e-05
3.31949e-05
-4.54931e-05
2.89061e-05
-5.22082e-05
2.49178e-05
-5.88062e-05
2.11652e-05
-6.47433e-05
1.80855e-05
-6.94771e-05
1.52432e-05
-7.28959e-05
1.31851e-05
-7.496e-05
1.10476e-05
-7.63024e-05
9.622e-06
-7.744e-05
7.2362e-06
-7.96287e-05
4.97462e-06
-8.35449e-05
2.35382e-07
-9.06956e-05
-4.70444e-06
-0.000101345
-1.30947e-05
-0.000116755
-2.04324e-05
-0.000136011
-3.09226e-05
-0.000159587
-3.72153e-05
-0.000184726
-4.56937e-05
-0.000211165
-4.58413e-05
-0.00023461
-4.8151e-05
-0.000255562
-3.84318e-05
-0.00026968
-3.38624e-05
-0.000280459
-1.53472e-05
-0.000284403
-9.29492e-06
-0.000288859
1.19436e-05
-0.000289743
1.12926e-05
-0.000297119
3.08543e-05
-0.000303208
2.01385e-05
-0.000319571
4.08179e-05
-0.000332506
2.24966e-05
-0.000356375
5.09069e-05
-0.000371777
2.72527e-05
-0.000399265
6.71841e-05
-0.000413858
3.44873e-05
-0.000444474
8.40365e-05
-0.000457789
3.36992e-05
-0.000491933
9.18182e-05
-0.000502348
2.19473e-05
-0.000537522
9.59181e-05
-0.000536638
3.5046e-06
-0.000566409
0.000105567
-0.000546201
-9.94996e-06
-0.000571765
0.000129776
-0.000532117
-2.49431e-05
-0.000557298
0.000122466
-0.000549645
4.3011e-05
-0.000455924
-0.000164378
-0.000790583
0.000740694
2.87971e-05
-0.0017004
-0.000898926
0.00174212
-0.00187788
0.00282027
0.0040089
-0.0138373
-0.00501483
0.0193413
0.0047589
-0.0197548
0.00485926
-0.00371764
-0.0208546
0.0625182
0.026666
-0.106406
-0.013784
0.0841844
-0.0166937
0.019733
0.0443454
-0.148039
-0.0600846
0.23521
0.0362062
-0.207583
0.00642348
0.0424402
-0.0926384
0.242412
0.115641
-0.470797
-0.0371893
0.323228
-0.0680827
0.0939733
0.175305
-0.560195
-0.073414
0.540887
-0.121409
0.143172
0.202012
-0.738294
0.0734619
0.25841
-0.169691
0.568932
0.00256018
-0.368507
0.112333
-0.26942
0.00792409
0.22753
0.124484
0.000942106
0.000572398
-0.000861656
0.00101714
0.000526953
0.00103396
0.000468814
0.00103052
0.000424476
0.00100996
0.000401407
0.000971942
0.000383421
0.000919594
0.000349681
0.000857187
0.000300472
0.000786664
0.000252035
0.000707978
0.000215464
0.000621338
0.000186826
0.00053028
0.000154665
0.000440423
0.000113241
0.000356255
6.59805e-05
0.000279331
2.02891e-05
0.000208995
-1.88454e-05
0.0001443
-5.09817e-05
8.51034e-05
-7.77581e-05
3.17012e-05
-9.96928e-05
-1.5986e-05
-0.000115601
-5.8575e-05
-0.000124273
-9.66605e-05
-0.000125991
-0.000130201
-0.000122482
-0.000158425
-0.000115745
-0.000180277
-0.000106976
-0.000194993
-9.64238e-05
-0.000202394
-8.40235e-05
-0.000202829
-6.99953e-05
-0.000197019
-5.48563e-05
-0.000185986
-3.90412e-05
-0.000171052
-2.27046e-05
-0.000153763
-5.95388e-06
-0.000135668
1.07599e-05
-0.000118065
2.65133e-05
-0.000101842
4.01461e-05
-8.7516e-05
5.07141e-05
-7.53817e-05
5.78053e-05
-6.56932e-05
6.16641e-05
-5.87275e-05
6.29179e-05
-5.4744e-05
6.22901e-05
-5.38333e-05
6.01887e-05
-5.58625e-05
5.69373e-05
-6.04322e-05
5.26691e-05
-6.70062e-05
4.78479e-05
-7.48896e-05
4.26657e-05
-8.34034e-05
3.77157e-05
-9.17694e-05
3.28755e-05
-9.94095e-05
2.87423e-05
-0.000105739
2.47412e-05
-0.000110669
2.16838e-05
-0.000114169
1.84464e-05
-0.000116969
1.61922e-05
-0.000119622
1.26602e-05
-0.000123517
9.40136e-06
-0.000129337
2.85261e-06
-0.000138751
-3.77925e-06
-0.000151976
-1.49744e-05
-0.000170473
-2.44625e-05
-0.000193186
-3.81244e-05
-0.0002208
-4.58178e-05
-0.000250238
-5.65657e-05
-0.000281454
-5.58791e-05
-0.000309625
-5.8511e-05
-0.000335605
-4.47418e-05
-0.000354381
-3.84891e-05
-0.000370136
-1.29549e-05
-0.000378561
-4.8171e-06
-0.000388184
2.48062e-05
-0.000393824
2.4154e-05
-0.000407283
5.22107e-05
-0.000419078
3.79927e-05
-0.000443071
6.7851e-05
-0.00046288
4.26007e-05
-0.000495962
8.28403e-05
-0.000519065
4.94178e-05
-0.000557088
0.000105719
-0.00057978
5.95761e-05
-0.000622036
0.000130122
-0.000643319
5.93574e-05
-0.000689939
0.000142598
-0.000707723
4.36736e-05
-0.000755966
0.0001489
-0.00076058
1.57383e-05
-0.000803922
0.000161728
-0.00078614
-7.97147e-06
-0.000827092
0.000197449
-0.000784921
-3.57455e-05
-0.000827838
0.000197105
-0.000821433
6.45859e-05
-0.000706255
-0.000256904
-0.00115375
0.0012072
-6.34864e-05
-0.00277571
-0.00141943
0.00311166
-0.00239413
0.00380001
0.00500108
-0.0212735
-0.00704341
0.0313271
0.00653638
-0.0333105
0.00511225
-0.00219792
-0.0261176
0.0938171
0.0357956
-0.168205
-0.0205828
0.140547
-0.0189362
0.0180594
0.0553778
-0.222196
-0.0771725
0.370012
0.0539556
-0.338554
0.000829702
0.0955646
-0.118077
0.361274
0.154592
-0.740348
-0.0543692
0.532211
-0.080554
0.120165
0.225152
-0.865957
-0.105604
0.871467
-0.14551
0.183183
0.269989
-1.15413
0.0802629
0.448416
-0.221807
0.871047
0.0131693
-0.603413
0.141135
-0.397369
0.00089712
0.367733
0.187864
0.000960651
0.000575184
-0.00090224
0.00102898
0.000542369
0.0010454
0.000502765
0.00104502
0.000466119
0.00103424
0.000443165
0.00101243
0.000426542
0.000976622
0.000397342
0.000928307
0.00035035
0.000869031
0.000301689
0.000798953
0.000265067
0.000718053
0.000238038
0.000628235
0.000207619
0.000534485
0.000164498
0.000442581
0.000110565
0.000356227
5.49354e-05
0.000276247
5.60389e-06
0.000202136
-3.53049e-05
0.000133843
-6.96109e-05
7.19694e-05
-9.83965e-05
1.68112e-05
-0.000120203
-3.21847e-05
-0.000132983
-7.59494e-05
-0.000136585
-0.000114892
-0.000133183
-0.00014845
-0.000125744
-0.000175449
-0.000116218
-0.000194855
-0.000105003
-0.0002063
-9.17695e-05
-0.000210103
-7.64963e-05
-0.000207048
-5.96724e-05
-0.000198228
-4.18004e-05
-0.000185033
-2.30315e-05
-0.000169111
-3.41355e-06
-0.000152152
1.655e-05
-0.000135592
3.56621e-05
-0.000120395
5.23418e-05
-0.000107084
6.52915e-05
-9.59313e-05
7.39703e-05
-8.71953e-05
7.87498e-05
-8.12042e-05
8.04958e-05
-7.82998e-05
8.01409e-05
-7.8642e-05
7.81305e-05
-8.21329e-05
7.47641e-05
-8.83625e-05
7.00941e-05
-9.67658e-05
6.46407e-05
-0.000106597
5.85874e-05
-0.000117133
5.26703e-05
-0.000127534
4.66937e-05
-0.000137188
4.14503e-05
-0.000145465
3.62099e-05
-0.000152303
3.21156e-05
-0.000157674
2.77458e-05
-0.000162411
2.47204e-05
-0.000167086
2.00858e-05
-0.000173238
1.59672e-05
-0.000181536
7.66278e-06
-0.000193836
-4.98809e-07
-0.000210288
-1.44802e-05
-0.000232586
-2.59144e-05
-0.000259495
-4.27377e-05
-0.000291966
-5.15128e-05
-0.000326531
-6.45008e-05
-0.000363438
-6.24995e-05
-0.000397229
-6.54268e-05
-0.000429229
-4.69278e-05
-0.000453593
-3.90073e-05
-0.000475383
-5.52604e-06
-0.000489252
4.56857e-06
-0.000505201
4.38331e-05
-0.000516636
4.28986e-05
-0.000537512
8.12022e-05
-0.000556188
6.29814e-05
-0.000589401
0.000104355
-0.00061743
7.11706e-05
-0.000661628
0.000126148
-0.000693968
8.11023e-05
-0.000744776
0.000157328
-0.000777273
9.47092e-05
-0.000833791
0.000190599
-0.000864905
9.48385e-05
-0.000927044
0.000208796
-0.00095419
7.46896e-05
-0.00101894
0.000218542
-0.00103111
3.61206e-05
-0.00109182
0.000236395
-0.00107844
4.79571e-08
-0.0011388
0.000286408
-0.00109564
-4.58189e-05
-0.0011606
0.000295202
-0.00115543
8.84165e-05
-0.00103796
-0.000350687
-0.00161001
0.00179959
-0.000203127
-0.00416607
-0.00204664
0.00497046
-0.00289656
0.00465189
0.00587103
-0.0300881
-0.00924043
0.046371
0.00834674
-0.050871
0.00483431
0.00141514
-0.0309898
0.129703
0.0452045
-0.244553
-0.0282983
0.214034
-0.0206278
0.0103605
0.064643
-0.307266
-0.0941367
0.523588
0.0747012
-0.507409
-0.00725426
0.17751
-0.142765
0.496768
0.193225
-1.07369
-0.072765
0.798213
-0.0886743
0.136082
0.270515
-1.2252
-0.140818
1.28261
-0.162182
0.204644
0.337308
-1.65397
0.0802854
0.705726
-0.272742
1.22411
0.0277602
-0.903838
0.165735
-0.535327
-0.0110252
0.544466
0.25745
0.000989259
0.000586003
-0.000940304
0.00105603
0.00056053
0.00107255
0.000534048
0.0010737
0.000504377
0.00106693
0.000480304
0.00105331
0.00046155
0.00102841
0.000434062
0.000989815
0.000390036
0.000940591
0.000340741
0.000881221
0.00030365
0.000811587
0.000278023
0.000731076
0.000251496
0.000641582
0.000211687
0.000547875
0.000156957
0.000455098
9.57887e-05
0.0003662
3.8554e-05
0.000281962
-1.00888e-05
0.00020289
-5.14008e-05
0.000130197
-8.70829e-05
6.50309e-05
-0.000115637
7.43531e-06
-0.000133934
-4.3586e-05
-0.000140733
-8.90269e-05
-0.000138141
-0.000128885
-0.000130114
-0.000162109
-0.000119793
-0.00018741
-0.000108099
-0.000204119
-9.44892e-05
-0.000212434
-7.85327e-05
-0.000213172
-6.05434e-05
-0.000207498
-4.10714e-05
-0.000196845
-2.0304e-05
-0.000182919
1.78078e-06
-0.000167555
2.47007e-05
-0.000152381
4.7038e-05
-0.000138518
6.67528e-05
-0.00012654
8.20961e-05
-0.0001167
9.23247e-05
-0.000109235
9.79434e-05
-0.000104508
0.000100115
-0.000102954
0.000100039
-0.000104821
9.82028e-05
-0.00011007
9.48496e-05
-0.000118286
8.98985e-05
-0.000128876
8.39063e-05
-0.000141038
7.70275e-05
-0.000154008
7.01611e-05
-0.000166877
6.30183e-05
-0.000179007
5.66285e-05
-0.000189713
5.00781e-05
-0.000198964
4.4919e-05
-0.000206717
3.93791e-05
-0.00021392
3.56426e-05
-0.000221149
2.99382e-05
-0.00023011
2.51074e-05
-0.000241441
1.50957e-05
-0.000257217
5.60061e-06
-0.000277491
-1.11369e-05
-0.000304246
-2.42404e-05
-0.000336018
-4.41814e-05
-0.000374099
-5.3602e-05
-0.000414551
-6.87552e-05
-0.000458025
-6.48004e-05
-0.000498299
-6.79613e-05
-0.000537328
-4.38651e-05
-0.000568246
-3.43028e-05
-0.000597234
8.25732e-06
-0.000617634
2.00863e-05
-0.000641272
7.04761e-05
-0.000659746
6.87897e-05
-0.000689668
0.000119399
-0.000716658
9.64175e-05
-0.000761035
0.000152118
-0.000798915
0.000109685
-0.000856526
0.000183015
-0.000899921
0.000124067
-0.000966214
0.000224709
-0.00101052
0.000141936
-0.00108446
0.000268704
-0.00112762
0.000142445
-0.001209
0.000294225
-0.00124792
0.000117476
-0.00133346
0.000309184
-0.00135574
6.71954e-05
-0.00143862
0.000334371
-0.00143209
1.66181e-05
-0.00151706
0.000402025
-0.00147488
-5.2816e-05
-0.00156756
0.000422794
-0.00156344
0.00011459
-0.0014472
-0.000442205
-0.00207255
0.00244658
-0.000316217
-0.00590399
-0.00280622
0.00747758
-0.0033962
0.00524299
0.00657171
-0.0401081
-0.0115681
0.064435
0.0101737
-0.0725893
0.00399377
0.00770337
-0.0354533
0.169211
0.0545748
-0.335043
-0.036604
0.305204
-0.0215613
-0.00471367
0.0716996
-0.400385
-0.109647
0.710414
0.0979773
-0.71511
-0.0169835
0.292457
-0.165848
0.64562
0.229823
-1.46916
-0.0914616
1.11951
-0.0930328
0.137658
0.309092
-1.62738
-0.178015
1.76951
-0.170453
0.197176
0.400963
-2.22573
0.0740365
1.03295
-0.320443
1.6186
0.045126
-1.26933
0.184527
-0.67471
-0.0280351
0.756984
0.325543
0.0010225
0.000598743
-0.000977719
0.0010906
0.00057787
0.00110927
0.000560684
0.00111404
0.000537437
0.00111072
0.00051318
0.00110126
0.00049168
0.00108196
0.000464186
0.00104947
0.000422491
0.0010056
0.000373536
0.000954687
0.000333521
0.000896472
0.00030689
0.00082928
0.000282634
0.000751246
0.000247967
0.000663799
0.000197434
0.000571359
0.00013642
0.000478264
7.56272e-05
0.000386854
2.20843e-05
0.00029847
-2.41994e-05
0.000215016
-6.53996e-05
0.000138769
-0.000100412
7.10338e-05
-0.000125161
1.14526e-05
-0.000136705
-4.12901e-05
-0.000136127
-8.80144e-05
-0.000127879
-0.000128216
-0.000116558
-0.000160559
-0.000104201
-0.000183997
-9.03834e-05
-0.000198424
-7.41948e-05
-0.00020458
-5.55654e-05
-0.000203654
-3.49977e-05
-0.000197081
-1.27542e-05
-0.000186554
1.12319e-05
-0.000173992
3.65925e-05
-0.000161248
6.18258e-05
-0.000149692
8.44608e-05
-0.00014003
0.000102183
-0.000132493
0.000113901
-0.000127251
0.000120209
-0.000124656
0.000122629
-0.000125222
0.000122725
-0.000129315
0.000121058
-0.000136979
0.000117795
-0.000147815
0.000112655
-0.00016121
0.000106201
-0.000176305
9.8528e-05
-0.000192301
9.07244e-05
-0.000208227
8.23842e-05
-0.000223426
7.4819e-05
-0.000237155
6.68886e-05
-0.000249415
6.06409e-05
-0.000260143
5.38831e-05
-0.000270412
4.94995e-05
-0.000280793
4.27495e-05
-0.00029319
3.73739e-05
-0.000308186
2.57018e-05
-0.000328121
1.51089e-05
-0.000352911
-4.34951e-06
-0.000384892
-1.87783e-05
-0.000422311
-4.17827e-05
-0.000466888
-5.13087e-05
-0.00051412
-6.85364e-05
-0.00056519
-6.1837e-05
-0.000612963
-6.51557e-05
-0.000660208
-3.43843e-05
-0.000698821
-2.32096e-05
-0.000736379
2.98429e-05
-0.000764597
4.31354e-05
-0.000797544
0.00010649
-0.000824537
0.000103435
-0.000865448
0.000168837
-0.000902456
0.000140045
-0.000960314
0.000213437
-0.00100998
0.000160003
-0.00108375
0.000256085
-0.00114035
0.00018037
-0.00122536
0.000311024
-0.00128386
0.000203627
-0.00137903
0.000368286
-0.00143691
0.00020493
-0.00154208
0.000403523
-0.00159572
0.000175072
-0.00170738
0.000426187
-0.00174294
0.000112165
-0.00185402
0.000461672
-0.00185758
4.49782e-05
-0.0019737
0.000550955
-0.00193537
-5.36963e-05
-0.00206295
0.000587313
-0.00206047
0.000143909
-0.00195584
-0.00052098
-0.00265568
0.00316925
-0.000813592
-0.00772601
-0.00374935
0.0104319
-0.00390972
0.00540431
0.00705134
-0.0511255
-0.0140046
0.0854075
0.0120368
-0.0986096
0.00259958
0.0172585
-0.0395466
0.211402
0.063521
-0.451998
-0.0451501
0.413966
-0.0215108
-0.0283902
0.0767859
-0.498715
-0.12496
0.912778
0.122745
-0.962893
-0.0272874
0.442469
-0.187119
0.805436
0.262027
-1.91836
-0.10998
1.49152
-0.0762599
0.103947
0.33926
-2.04296
-0.216614
2.32515
-0.170364
0.151022
0.457882
-2.85432
0.0625019
1.42864
-0.362718
2.04382
0.0635751
-1.69553
0.196006
-0.807121
-0.0498585
1.00282
0.395368
0.00105746
0.000611213
-0.00101537
0.00112741
0.000593124
0.00114866
0.000582005
0.00115801
0.000563869
0.00115863
0.000540391
0.00115216
0.000517024
0.00113612
0.000489224
0.00110726
0.000449832
0.00106668
0.000402306
0.00102047
0.000358796
0.000970489
0.000328258
0.000915138
0.00030293
0.00085053
0.000271759
0.000774538
0.000227187
0.000689084
0.000170589
0.000598302
0.000110767
0.000505506
5.59357e-05
0.000412695
7.66014e-06
0.000322085
-3.63695e-05
0.000236721
-7.58986e-05
0.00015939
-0.00010661
9.11978e-05
-0.00012385
3.1316e-05
-0.000126715
-2.17286e-05
-0.000119016
-6.84041e-05
-0.000106482
-0.000107803
-9.28066e-05
-0.00013864
-7.83458e-05
-0.000160346
-6.19392e-05
-0.000173354
-4.29806e-05
-0.000178757
-2.17294e-05
-0.00017793
1.50283e-06
-0.000172459
2.6769e-05
-0.000164224
5.38776e-05
-0.000155255
8.14574e-05
-0.000147255
0.000106761
-0.000141179
0.000126833
-0.000137282
0.000140013
-0.000135605
0.000146839
-0.000136405
0.000149229
-0.000140233
0.000149248
-0.000147576
0.000147622
-0.0001586
0.000144444
-0.000172952
0.000139158
-0.000190013
0.000132288
-0.000208869
0.000123825
-0.000228698
0.000115082
-0.000248472
0.000105505
-0.000267531
9.67404e-05
-0.000285063
8.73554e-05
-0.000301109
7.99928e-05
-0.000315567
7.195e-05
-0.000329659
6.69816e-05
-0.000343943
5.91971e-05
-0.000360553
5.34656e-05
-0.000380002
4.01794e-05
-0.000404939
2.87731e-05
-0.000435103
6.63452e-06
-0.000473251
-8.69857e-06
-0.000517265
-3.47044e-05
-0.000569402
-4.36796e-05
-0.000624478
-6.28806e-05
-0.000684362
-5.24745e-05
-0.00074083
-5.58716e-05
-0.000797689
-1.71132e-05
-0.000845333
-4.37848e-06
-0.000893075
6.08967e-05
-0.000930616
7.5311e-05
-0.000974778
0.000153889
-0.00101202
0.000148678
-0.00106621
0.00023189
-0.00111523
0.000195909
-0.0011893
0.00029105
-0.00125302
0.000224358
-0.0013462
0.000348548
-0.00141856
0.000252491
-0.00152613
0.000420084
-0.00160167
0.000282614
-0.00172267
0.000493972
-0.0017985
0.000285574
-0.001933
0.000542287
-0.002005
0.000251156
-0.00214934
0.00057615
-0.0022022
0.000175042
-0.00234904
0.000625882
-0.00236688
8.93692e-05
-0.00252255
0.000741698
-0.00249204
-4.42996e-05
-0.00266385
0.000798296
-0.00266476
0.000178326
-0.00258593
-0.000572723
-0.00335005
0.00395739
-0.00138459
-0.00966988
-0.00473552
0.0138028
-0.00462568
0.00529457
0.00725295
-0.0630639
-0.0165571
0.109127
0.0140089
-0.12916
0.000685605
0.030711
-0.0433354
0.255482
0.0716421
-0.552637
-0.0536325
0.539348
-0.0201984
-0.0618704
0.0791443
-0.598171
-0.140045
1.13204
0.147751
-1.25077
-0.0370562
0.627251
-0.205839
0.974202
0.288035
-2.41224
-0.12849
1.90806
-0.0716033
0.0470683
0.360506
-2.47514
-0.256601
2.94202
-0.163215
0.0577359
0.505219
-3.52311
0.0467524
1.88743
-0.397531
2.4881
0.0812291
-2.1742
0.199096
-0.924966
-0.0766052
1.2785
0.451089
0.00109406
0.000621372
-0.00105347
0.00116566
0.000605425
0.00118843
0.000598425
0.00120134
0.000583876
0.00120537
0.000561541
0.00120137
0.00053736
0.0011878
0.000509688
0.00116201
0.000472815
0.0011247
0.000427529
0.00108071
0.000382431
0.00103555
0.000345991
0.000987629
0.000317117
0.00093341
0.000286385
0.000868877
0.000246537
0.000793309
0.000195799
0.00070945
0.000139853
0.000620711
8.65883e-05
0.000529377
3.89017e-05
0.000437436
-5.15298e-06
0.000347814
-4.62687e-05
0.000264123
-8.08261e-05
0.000189175
-0.000103335
0.000123584
-0.000110656
6.60096e-05
-0.000104655
1.49789e-05
-9.1064e-05
-2.96262e-05
-7.52015e-05
-6.6791e-05
-5.89516e-05
-9.5556e-05
-4.15616e-05
-0.000115826
-2.20316e-05
-0.000128369
-1.80889e-07
-0.000134401
2.37845e-05
-0.000135317
4.98635e-05
-0.000132791
7.80204e-05
-0.000128869
0.000107235
-0.000125585
0.000134799
-0.000124289
0.000157184
-0.000125369
0.000171907
-0.000128713
0.000179172
-0.000134363
0.000181235
-0.000142814
0.000180826
-0.000154646
0.000178983
-0.000170173
0.000175788
-0.000189122
0.000170343
-0.000210894
0.000163076
-0.000234528
0.000153808
-0.000259189
0.000144116
-0.000283801
0.000133264
-0.000307712
0.000123291
-0.000330032
0.000112376
-0.000350841
0.000103869
-0.000369975
9.44456e-05
-0.000388828
8.89471e-05
-0.000407931
8.01176e-05
-0.0004297
7.42425e-05
-0.000454549
5.9386e-05
-0.0004855
4.75072e-05
-0.000522061
2.27356e-05
-0.000567486
7.00554e-06
-0.000619208
-2.19392e-05
-0.000680138
-2.9582e-05
-0.000744283
-5.0656e-05
-0.000814378
-3.53934e-05
-0.000880908
-3.88008e-05
-0.000948982
9.51489e-06
-0.00100718
2.37101e-05
-0.00106696
0.000103295
-0.00111556
0.000118391
-0.00117313
0.000214943
-0.00122263
0.000206591
-0.00129273
0.000311279
-0.00135607
0.000266368
-0.00144956
0.000388178
-0.00152997
0.00030539
-0.0016464
0.000464214
-0.00173751
0.000343389
-0.00187223
0.000556442
-0.00196817
0.000382261
-0.00212053
0.000651292
-0.00221819
0.000388281
-0.00238875
0.00071727
-0.00248355
0.000350191
-0.00266867
0.000767177
-0.00274382
0.000260832
-0.00293589
0.000836495
-0.0029734
0.000155241
-0.00317931
0.000985046
-0.00316201
-1.90683e-05
-0.00339008
0.00106797
-0.00339767
0.000221307
-0.00336282
-0.000579118
-0.00417944
0.00479926
-0.00211778
-0.0117086
-0.00566791
0.0173744
-0.00517898
0.00480703
0.00705969
-0.0753685
-0.0193027
0.135394
0.0162801
-0.164719
-0.00169113
0.0488267
-0.0468612
0.30085
0.0785977
-0.677287
-0.0618697
0.679908
-0.0174422
-0.106352
0.0794915
-0.695226
-0.155052
1.36786
0.171394
-1.5773
-0.0454244
0.844038
-0.221306
1.15006
0.306638
-2.94019
-0.147804
2.3625
-0.0602947
-0.0404333
0.373641
-2.90913
-0.298216
3.61361
-0.151521
-0.0888297
0.540518
-4.21554
0.0274364
2.40086
-0.423397
2.93893
0.0961249
-2.69363
0.193372
-1.02219
-0.106839
1.57864
0.486544
0.00112255
0.000625399
-0.00108042
0.00119714
0.000612295
0.00122268
0.000608081
0.00123942
0.000596568
0.00124694
0.000576084
0.00124563
0.000552362
0.0012347
0.000525674
0.00121227
0.00049165
0.00117854
0.000449407
0.00113727
0.000404365
0.00109415
0.000363051
0.00104973
0.00032924
0.00100107
0.000296805
0.000944423
0.000259281
0.000877579
0.000213573
0.000801664
0.000162349
0.000719595
0.000112009
0.0006337
6.62116e-05
0.000545529
2.38437e-05
0.000457163
-1.63185e-05
0.000371932
-5.18996e-05
0.00029366
-7.78637e-05
0.000224788
-8.96581e-05
0.000165145
-8.656e-05
0.000112881
-7.27649e-05
6.65774e-05
-5.42876e-05
2.624e-05
-3.48234e-05