/*--------------------------------*- C++ -*----------------------------------*\
| =========                 |                                                 |
| \\      /  F ield         | OpenFOAM: The Open Source CFD Toolbox           |
|  \\    /   O peration     | Version:  2412                                  |
|   \\  /    A nd           | Website:  www.openfoam.com                      |
|    \\/     M anipulation  |                                                 |
\*---------------------------------------------------------------------------*/
FoamFile
{
    version     2.0;
    format      ascii;
    arch        "LSB;label=32;scalar=64";
    class       surfaceScalarField;
    location    "0.285";
    object      phi_0;
}
// * * * * * * * * * * * * * * * * * * * * * * * * * * * * * * * * * * * * * //

dimensions      [0 3 -1 0 0 0 0];

oriented        oriented;

internalField   nonuniform List<scalar> 
24930
(
0.0177477
0.0219485
-0.0397465
0.00759701
0.0101518
0.00364431
0.00395239
0.00212011
0.00152406
0.00142267
0.000697471
0.00101276
0.000409968
0.000734858
0.000277951
0.000532969
0.000201944
0.000380767
0.000152249
0.000263181
0.000117622
0.000170276
9.29342e-05
9.57629e-05
7.45367e-05
3.55745e-05
6.01972e-05
-1.33727e-05
4.89457e-05
-5.34106e-05
4.00195e-05
-8.62366e-05
3.28073e-05
-0.00011272
2.64748e-05
-0.000134321
2.157e-05
-0.000151784
1.74604e-05
-0.000165733
1.39078e-05
-0.000176571
1.08257e-05
-0.000184922
8.33789e-06
-0.000190862
5.90038e-06
-0.000195047
4.16799e-06
-0.000197444
2.37223e-06
-0.000198537
1.05509e-06
-0.000198348
-1.90508e-07
-0.000197251
-1.11713e-06
-0.000195227
-2.04899e-06
-0.000192492
-2.77173e-06
-0.000189226
-3.26849e-06
-0.000185438
-3.84847e-06
-0.000181241
-4.23462e-06
-0.000176837
-4.45091e-06
-0.000172124
-4.72078e-06
-0.000167174
-4.96093e-06
-0.000162102
-5.10288e-06
-0.00015689
-5.19688e-06
-0.000151674
-5.19499e-06
-0.000146421
-5.21394e-06
-0.000141289
-5.14776e-06
-0.000136175
-5.08654e-06
-0.000131223
-4.95643e-06
-0.000126461
-4.75464e-06
-0.000122029
-4.41257e-06
-0.000118107
-3.9075e-06
-0.000114978
-3.12619e-06
-0.000112799
-2.12652e-06
-0.000111644
-1.1444e-06
-0.000111283
-3.68331e-07
-0.000111034
-2.19525e-07
-0.00010971
-1.27777e-06
-0.000105294
-4.39006e-06
-9.48427e-05
-1.04301e-05
-7.51243e-05
-1.97271e-05
-4.39595e-05
-3.11551e-05
-3.18859e-06
-4.07563e-05
3.83151e-05
-4.14932e-05
6.84383e-05
-3.01054e-05
7.71289e-05
-8.69279e-06
6.37949e-05
1.33638e-05
1.96625e-05
4.41354e-05
-8.2103e-05
0.000101793
-0.000255297
0.000173205
-0.000428329
0.000173046
-0.000423708
-4.61189e-06
-6.1552e-05
-0.000362182
0.00074883
-0.000810408
0.00110599
-0.00035718
0.000491282
0.000614726
0.000195367
0.000295961
0.000367655
-0.000172296
0.000402011
-3.43609e-05
0.00042304
-2.09892e-05
0.000123521
0.000299582
-0.00070275
0.000826316
-0.00191447
0.0012117
-0.00307396
0.00115944
-0.0036854
0.000611403
-0.00351541
-0.000170065
-0.00263817
-0.00087726
-0.00150314
-0.00113503
-0.000595386
-0.000907718
-1.86269e-05
-0.000576721
0.000286357
-0.000304962
0.000394481
-0.000108091
0.000398612
-4.09667e-06
0.000388299
1.0332e-05
0.000435352
-4.70489e-05
0.00050837
-7.30096e-05
0.00045415
5.42388e-05
0.00017311
0.000281056
-0.00019889
0.000371993
-0.000419456
0.000220546
-0.00040634
-1.3118e-05
-0.000282461
-0.000123892
-0.000162085
-0.000120378
-7.30655e-05
-8.90142e-05
-1.74117e-05
-5.56467e-05
6.99908e-06
-2.4412e-05
-3.76208e-06
1.07654e-05
-4.16725e-05
3.79085e-05
-0.000102619
6.09475e-05
-0.000149741
4.7123e-05
-0.000175912
2.61704e-05
-0.000149554
-2.63502e-05
-6.93284e-05
-8.02238e-05
4.16808e-05
-0.000111012
0.00020298
-0.000161288
0.000334932
-0.000131961
0.000520757
-0.000185821
0.000637209
-0.000116445
0.000820121
-0.000182917
0.000915899
-9.57777e-05
0.00110733
-0.000191422
0.00120877
-0.000101445
0.00142805
-0.000219279
0.00159822
-0.000170161
0.00198872
-0.000390506
-0.000506123
0.0368901
0.0308324
-0.0457731
0.0255097
0.0215318
0.0166155
0.0128459
0.0109856
0.00715368
0.00761538
0.00406754
0.0055254
0.00249982
0.00412613
0.0016771
0.00312548
0.00120248
0.00237683
0.000900786
0.00179867
0.00069566
0.00134227
0.000549233
0.000976085
0.000440639
0.000678514
0.00035771
0.000434714
0.000292731
0.000234069
0.000240674
6.95966e-05
0.000197291
-7.00638e-05
0.000166201
-0.000189137
0.000140658
-0.00028661
0.000115012
-0.000366707
9.40436e-05
-0.000431955
7.61175e-05
-0.000484905
6.13567e-05
-0.000526763
4.78038e-05
-0.000559695
3.71742e-05
-0.000584389
2.71361e-05
-0.00060228
1.8967e-05
-0.000614318
1.19188e-05
-0.000621352
5.92672e-06
-0.000624142
7.92438e-07
-0.000623327
-3.59538e-06
-0.000619539
-6.97597e-06
-0.000613079
-1.02722e-05
-0.000604347
-1.29016e-05
-0.000593926
-1.48325e-05
-0.000581856
-1.67691e-05
-0.000568435
-1.83317e-05
-0.000554033
-1.9496e-05
-0.000538818
-2.03747e-05
-0.000523121
-2.09347e-05
-0.000507122
-2.11706e-05
-0.000491109
-2.11884e-05
-0.000475068
-2.10996e-05
-0.000459316
-2.07075e-05
-0.000444057
-2.0008e-05
-0.000429751
-1.87188e-05
-0.000417045
-1.65779e-05
-0.000406796
-1.33973e-05
-0.000399587
-9.30547e-06
-0.000395578
-5.12025e-06
-0.000393925
-1.98289e-06
-0.000392386
-1.75166e-06
-0.000386797
-6.87667e-06
-0.000370424
-2.07805e-05
-0.000333643
-4.71983e-05
-0.000265849
-8.75345e-05
-0.000160136
-0.000136863
-2.2868e-05
-0.000178008
0.0001183
-0.000182666
0.000221459
-0.000133229
0.000250888
-3.81375e-05
0.000197431
6.68662e-05
2.54967e-05
0.000216066
-0.000341495
0.000468825
-0.000939532
0.000771258
-0.00150112
0.000734637
-0.00146948
-3.62725e-05
-0.000280667
-0.00155104
0.00233212
-0.0034232
0.00359005
-0.00161511
0.00178204
0.00242272
0.000751884
0.00132617
0.00123138
-0.00065179
0.00135861
-0.000161572
0.00126745
7.02284e-05
8.04784e-06
0.00155901
-0.00288743
0.0037218
-0.0068653
0.00518951
-0.010391
0.00468503
-0.0120149
0.0022353
-0.0111729
-0.0010122
-0.00827116
-0.00377898
-0.00469953
-0.00470665
-0.00181066
-0.00379656
5.64839e-05
-0.00244381
0.00104271
-0.00129116
0.00139514
-0.000460482
0.00141068
-1.96207e-05
0.00138774
3.32745e-05
0.00153865
-0.000197947
0.00171813
-0.000252476
0.00143357
0.000338805
0.000452304
0.00126232
-0.000718176
0.00154247
-0.00135208
0.000854426
-0.00126058
-0.000104621
-0.000849458
-0.000535023
-0.000456377
-0.000513449
-0.000170413
-0.000374976
7.97588e-06
-0.000234026
7.62467e-05
-9.26849e-05
3.74836e-05
4.95304e-05
-8.17267e-05
0.000157118
-0.000253918
0.000233135
-0.000363804
0.000157015
-0.000388791
5.11506e-05
-0.000232674
-0.000182475
8.49924e-05
-0.000397881
0.000496238
-0.00052228
0.00105569
-0.000720724
0.00154861
-0.000624889
0.00215672
-0.00079393
0.00260718
-0.000566896
0.00320223
-0.000777958
0.00359315
-0.000486704
0.00423651
-0.000834774
0.00464284
-0.000507774
0.00540611
-0.000982555
0.00603932
-0.000803354
0.00737013
-0.00172132
-0.00222234
0.0471392
0.0327448
-0.0490517
0.0400278
0.0286424
0.0312291
0.0216442
0.0233442
0.0150384
0.0173325
0.0100793
0.0130372
0.00679506
0.00997715
0.00473719
0.00773777
0.00344187
0.00604466
0.00259389
0.0047289
0.00201141
0.00368428
0.00159384
0.00284113
0.00128375
0.00215205
0.00104674
0.00158346
0.000861288
0.00111084
0.00071326
0.000716007
0.000592076
0.000386276
0.000495928
0.000110981
0.000415886
-0.00012185
0.000347829
-0.00031827
0.000290417
-0.000481282
0.000239069
-0.000616459
0.000196501
-0.000726975
0.000158265
-0.000816972
0.000127141
-0.000888655
9.88037e-05
-0.000945012
7.52863e-05
-0.000987625
5.45663e-05
-0.00101867
3.69365e-05
-0.00103957
2.16943e-05
-0.00105206
8.83811e-06
-0.00105746
-1.63556e-06
-0.00105667
-1.11519e-05
-0.0010507
-1.88606e-05
-0.00103998
-2.54911e-05
-0.00102531
-3.14327e-05
-0.00100729
-3.63391e-05
-0.000986643
-4.01667e-05
-0.000963865
-4.31489e-05
-0.000939564
-4.53127e-05
-0.000914226
-4.64898e-05
-0.000888353
-4.712e-05
-0.00086208
-4.73649e-05
-0.000835956
-4.68464e-05
-0.000810415
-4.55643e-05
-0.000786285
-4.28684e-05
-0.000764722
-3.81172e-05
-0.000747193
-3.09685e-05
-0.000734731
-2.17663e-05
-0.000727559
-1.22952e-05
-0.000724132
-5.41333e-06
-0.000720409
-5.50127e-06
-0.000709056
-1.82611e-05
-0.000678218
-5.16377e-05
-0.00061142
-0.000113981
-0.000490456
-0.000208513
-0.000303526
-0.000323791
-6.13624e-05
-0.000420157
0.000189673
-0.000433712
0.000374584
-0.000318102
0.000426381
-8.99533e-05
0.000320259
0.000173034
-9.70454e-06
0.000546022
-0.000694522
0.00115368
-0.0017703
0.00184705
-0.00273634
0.00170068
-0.00265611
-0.000116518
-0.00063243
-0.00357477
0.00382358
-0.00787921
0.00616841
-0.00395994
0.00330775
0.00528337
0.00145684
0.00317713
0.00218475
-0.0013797
0.0023799
-0.000356703
0.00201112
0.000439063
-0.000435603
0.00400575
-0.00580727
0.00909347
-0.0126727
0.0120549
-0.0183301
0.0103423
-0.0205822
0.00448736
-0.018767
-0.00282742
-0.013739
-0.00880705
-0.00775902
-0.0106866
-0.0029123
-0.00864327
0.000260775
-0.00561684
0.00196006
-0.00299043
0.00257122
-0.0010716
0.00260183
-5.02179e-05
0.00257054
6.45729e-05
0.00281686
-0.000444257
0.00304337
-0.000478981
0.00242877
0.000953415
0.000667711
0.00302338
-0.00131131
0.00352149
-0.00230113
0.00184422
-0.00208139
-0.000324366
-0.00135761
-0.00125881
-0.000679593
-0.00119146
-0.000190187
-0.00086438
0.000109074
-0.000533278
0.000224655
-0.000208269
0.00015675
0.000117439
-3.2183e-05
0.00034605
-0.000289604
0.000490553
-0.000414418
0.000281834
-0.000374789
1.15177e-05
-1.3137e-05
-0.000544131
0.000604467
-0.00101547
0.0013903
-0.00130813
0.00242157
-0.00175198
0.00333421
-0.00153754
0.00442105
-0.00188076
0.00527127
-0.00141711
0.00633859
-0.00184528
0.00709556
-0.00124368
0.00827408
-0.00201328
0.00905791
-0.00129161
0.0104813
-0.00240592
0.0116557
-0.00197778
0.0140273
-0.00409292
-0.00529836
0.0530328
0.0319871
-0.0522756
0.0502263
0.0314485
0.0441961
0.0276743
0.036784
0.0224504
0.0296092
0.017254
0.0235079
0.0128964
0.0186415
0.00960348
0.0148401
0.00724323
0.0118616
0.00557238
0.00949908
0.00437384
0.00759889
0.00349395
0.00605087
0.00283171
0.00477602
0.00232153
0.00371695
0.00192031
0.00283107
0.0015991
0.00208612
0.00133698
0.0014585
0.00112355
0.00092827
0.000946058
0.000479998
0.000796093
0.000102564
0.000667823
-0.000218915
0.000560495
-0.000489428
0.000466982
-0.000714532
0.000383316
-0.00090146
0.00031402
-0.00105463
0.000251934
-0.00117898
0.000199574
-0.00127818
0.000153762
-0.00135558
0.00011434
-0.00141452
8.07152e-05
-0.00145708
5.14658e-05
-0.00148561
2.69762e-05
-0.00150219
5.42306e-06
-0.0015085
-1.25501e-05
-0.00150651
-2.74944e-05
-0.0014964
-4.15396e-05
-0.00147972
-5.29873e-05
-0.0014577
-6.22054e-05
-0.00143128
-6.95335e-05
-0.00140152
-7.51385e-05
-0.0013693
-7.86738e-05
-0.00133546
-8.10131e-05
-0.00130037
-8.24392e-05
-0.00126489
-8.23268e-05
-0.00122975
-8.07112e-05
-0.0011962
-7.64325e-05
-0.00116596
-6.83253e-05
-0.00114114
-5.58221e-05
-0.00112328
-3.96314e-05
-0.00111262
-2.29747e-05
-0.00110691
-1.11484e-05
-0.00110021
-1.21926e-05
-0.00108168
-3.67928e-05
-0.00103425
-9.90956e-05
-0.000934221
-0.000213991
-0.000755613
-0.000387133
-0.000481424
-0.000597978
-0.000126217
-0.00077535
0.000244848
-0.000804789
0.000521135
-0.000594348
0.000597611
-0.000166448
0.000424963
0.00034573
-9.52923e-05
0.00106627
-0.00115382
0.00221225
-0.0027544
0.00344765
-0.00413901
0.00308528
-0.00398782
-0.000267723
-0.00114088
-0.00642176
0.00511988
-0.01414
0.00876756
-0.00760763
0.00506806
0.00898284
0.00232204
0.00592322
0.00323001
-0.00228768
0.00343704
-0.000563713
0.00259709
0.00127908
-0.00139235
0.00799519
-0.00951917
0.0172203
-0.0192868
0.0218225
-0.0267497
0.0178051
-0.0291904
0.00692809
-0.0261238
-0.00589417
-0.018946
-0.0159848
-0.0106584
-0.0189742
-0.00389799
-0.0154036
0.000605442
-0.0101202
0.00305412
-0.00543908
0.00394817
-0.00196562
0.00400206
-0.000104104
0.0039606
0.000106041
0.00428001
-0.000763655
0.00448838
-0.000687331
0.00344029
0.00200151
0.000827053
0.00563661
-0.00194318
0.00629172
-0.00322962
0.00313063
-0.00283592
-0.000718069
-0.00177897
-0.00231576
-0.000802983
-0.00216744
-0.00010191
-0.00156545
0.000321819
-0.000956997
0.000484346
-0.000370801
0.00039639
0.000205399
0.000159565
0.000582874
-0.000138561
0.000788674
-0.000215301
0.000358579
-2.8438e-05
-0.000175356
0.000594718
-0.00116729
0.00161438
-0.00203512
0.00285017
-0.00254395
0.00441562
-0.00331741
0.00582236
-0.00294428
0.00745155
-0.00350995
0.00877261
-0.00273816
0.0103874
-0.0034601
0.0115853
-0.00244152
0.0133959
-0.00382392
0.0146374
-0.00253309
0.0168334
-0.00460194
0.0186505
-0.00379481
0.0221426
-0.00758511
-0.00987162
0.0568983
0.0307379
-0.0556493
0.056688
0.0316586
0.0538217
0.0305405
0.0486816
0.0275905
0.0423241
0.0236115
0.0357965
0.019424
0.0297802
0.0156198
0.0245676
0.0124558
0.0201915
0.00994848
0.0165621
0.00800327
0.0135562
0.00649986
0.0110578
0.00533005
0.00897029
0.00440905
0.00721653
0.00367407
0.00573596
0.0030797
0.00448083
0.00259209
0.00341457
0.00218986
0.00250682
0.00185381
0.00173311
0.00156984
0.0010737
0.00132726
0.000513095
0.0011211
3.97161e-05
0.000940389
-0.000366445
0.000789489
-0.000706765
0.000654367
-0.000990558
0.000535778
-0.00122581
0.000434824
-0.00141861
0.000346582
-0.00157459
0.000270295
-0.00169866
0.000204824
-0.00179503
0.000147866
-0.00186781
9.9885e-05
-0.00192019
5.7921e-05
-0.00195428
2.16415e-05
-0.00197213
-9.65185e-06
-0.00197807
-3.56521e-05
-0.001972
-5.90253e-05
-0.0019563
-7.79093e-05
-0.00193267
-9.31268e-05
-0.00190271
-0.000105135
-0.0018679
-0.000113428
-0.00182957
-0.000119395
-0.00178844
-0.000123559
-0.00174577
-0.000124985
-0.0017027
-0.000123786
-0.00166095
-0.000118186
-0.00162288
-0.000106354
-0.00159129
-8.74316e-05
-0.00156825
-6.26509e-05
-0.00155407
-3.71611e-05
-0.00154568
-1.95528e-05
-0.00153514
-2.26995e-05
-0.00150809
-6.38239e-05
-0.00144207
-0.00016514
-0.00130627
-0.000349771
-0.00106682
-0.000626595
-0.000701131
-0.000963667
-0.000226653
-0.00124981
0.0002731
-0.00130456
0.000649867
-0.000971072
0.000752942
-0.000269543
0.000498337
0.000600386
-0.000251032
0.00181563
-0.00173639
0.00369765
-0.00390176
0.00561304
-0.00570385
0.00488738
-0.00545081
-0.000520796
-0.00182198
-0.0100506
0.00607423
-0.0220362
0.0112318
-0.0127652
0.00704969
0.0131649
0.00335822
0.00961479
0.00435856
-0.00328802
0.00449514
-0.000700285
0.0029497
0.00282458
-0.00293656
0.0138814
-0.014069
0.0283527
-0.0266109
0.0343644
-0.0353921
0.0265862
-0.0375362
0.00907212
-0.0330149
-0.0104156
-0.0237626
-0.0252371
-0.0133289
-0.0294079
-0.00473892
-0.0239936
0.00110105
-0.0159601
0.00434086
-0.00867886
0.00555034
-0.00317506
0.00563972
-0.00019347
0.00558189
0.000163879
0.00593903
-0.00112078
0.00605086
-0.000799152
0.00447426
0.00357811
0.000959868
0.00915099
-0.00257315
0.00982474
-0.00409315
0.00465061
-0.00348416
-0.00132705
-0.00207632
-0.00372361
-0.000792227
-0.00345152
0.000125512
-0.00248319
0.000681921
-0.0015134
0.000901217
-0.000590102
0.000810528
0.000296092
0.000560564
0.000832838
0.000271869
0.00107737
0.000313388
0.000317066
0.000715792
-0.000577768
0.00170834
-0.00215985
0.00321657
-0.00354333
0.00497948
-0.00430689
0.00716386
-0.00550177
0.00913404
-0.00491447
0.0113874
-0.00576334
0.0132554
-0.00460611
0.0155122
-0.00571689
0.0172323
-0.00416163
0.0197927
-0.0063843
0.0215788
-0.00431924
0.0246823
-0.00770539
0.0272452
-0.00635768
0.0319211
-0.0122611
-0.0160345
0.0601959
0.0297418
-0.0591998
0.0609667
0.0308879
0.0603243
0.0311829
0.0577385
0.0301764
0.0534081
0.0279419
0.0479487
0.0248835
0.0420433
0.0215252
0.0362334
0.0182658
0.0308532
0.0153286
0.026055
0.0128015
0.0218685
0.0106864
0.0182572
0.00894128
0.0151579
0.00750842
0.0125017
0.00633027
0.0102246
0.0053568
0.00827039
0.00454627
0.00659228
0.00386799
0.00515022
0.00329587
0.00391057
0.0028095
0.00284525
0.0023926
0.00193113
0.00203522
0.00114783
0.00172371
0.000479927
0.0014574
-8.72152e-05
0.00122152
-0.000571072
0.00101968
-0.000976985
0.000840738
-0.00131567
0.000685316
-0.0015958
0.000550426
-0.00182501
0.000434062
-0.00200953
0.000332353
-0.00215551
0.000245863
-0.00226796
0.000170379
-0.00235192
0.000105673
-0.0024112
4.96683e-05
-0.0024462
-6.61696e-07
-0.0024647
-4.05275e-05
-0.00246713
-7.5497e-05
-0.00245596
-0.000104262
-0.00243391
-0.000127215
-0.00240325
-0.000144034
-0.00236596
-0.000156726
-0.00232331
-0.000166204
-0.00227711
-0.000171173
-0.00222901
-0.00017188
-0.00218133
-0.000165879
-0.00213709
-0.000150538
-0.00209988
-0.000124657
-0.00207234
-9.01525e-05
-0.00205488
-5.46013e-05
-0.00204367
-3.07651e-05
-0.00202871
-3.762e-05
-0.00199212
-0.000100392
-0.00190618
-0.000251104
-0.00173307
-0.000522868
-0.0014311
-0.000928566
-0.000971755
-0.00142301
-0.000374118
-0.00184743
0.000261262
-0.00193995
0.00074726
-0.00145702
0.000879388
-0.000401691
0.000526642
0.000953186
-0.000492041
0.0028343
-0.00245599
0.00566164
-0.00521613
0.00837318
-0.00741981
0.00709106
-0.00703258
-0.000908055
-0.00269063
-0.0143926
0.00651543
-0.0312422
0.0133666
-0.0196164
0.00922168
0.0173098
0.00456814
0.0142684
0.00555609
-0.00427597
0.00551508
-0.000659253
0.00299255
0.00534716
-0.00514608
0.0220201
-0.0194438
0.0426504
-0.0344759
0.0493965
-0.0439838
0.0360939
-0.0453983
0.0104866
-0.039348
-0.0164659
-0.0281849
-0.0364003
-0.0157934
-0.0417994
-0.00545375
-0.0343333
0.00174279
-0.0231566
0.00583149
-0.0127675
0.00740461
-0.00474815
0.00755005
-0.000338886
0.00746473
0.000249205
0.00780969
-0.00146572
0.00774041
-0.000729858
0.00554825
0.00577028
0.00110371
0.0135955
-0.00314653
0.014075
-0.00483746
0.00634151
-0.00398072
-0.00218378
-0.00220933
-0.005495
-0.000605368
-0.00505548
0.000535842
-0.0036244
0.0012372
-0.00221475
0.00152896
-0.000881859
0.00146526
0.000359788
0.00124923
0.00104887
0.00103715
0.00128944
0.00127788
7.63442e-05
0.00199562
-0.00129552
0.00344449
-0.00360873
0.00552742
-0.00562624
0.0079046
-0.00668409
0.010788
-0.00838519
0.0134098
-0.00753621
0.0163762
-0.00872978
0.0188813
-0.00711118
0.0218844
-0.00871994
0.0242214
-0.00649865
0.0276533
-0.0098162
0.0300881
-0.0067541
0.0342206
-0.0118378
0.0376612
-0.00979832
0.0435626
-0.0181625
-0.0238304
0.0636823
0.0290392
-0.0629798
0.0645459
0.0300243
0.0649325
0.0307963
0.0641728
0.0309361
0.0619466
0.0301682
0.0583285
0.0285017
0.0536604
0.0261933
0.0483777
0.0235485
0.0428864
0.0208199
0.0375026
0.0181853
0.0324365
0.0157525
0.0278027
0.013575
0.0236443
0.0116668
0.019958
0.0100166
0.016715
0.00859972
0.0138755
0.0073858
0.0113972
0.00634633
0.00923871
0.00545431
0.007362
0.00468621
0.00573283
0.00402175
0.00432157
0.00344645
0.00310143
0.00294384
0.00205046
0.00250834
0.00114742
0.00212454
0.00037598
0.00179112
-0.000281013
0.00149771
-0.000838013
0.00124234
-0.00130549
0.00101787
-0.00169507
0.000823628
-0.00201612
0.000653389
-0.00227773
0.00050748
-0.00248733
0.000379925
-0.00265128
0.000269579
-0.00277583
0.000174254
-0.00286862
9.2164e-05
-0.00292852
1.94055e-05
-0.0029651
-3.89632e-05
-0.00298132
-8.80356e-05
-0.00297922
-0.000129346
-0.00296277
-0.000160428
-0.00293495
-0.000184581
-0.00289779
-0.000203365
-0.00285381
-0.000215135
-0.00280539
-0.000220299
-0.00275552
-0.000215771
-0.00270801
-0.000198004
-0.00266727
-0.000165406
-0.00263663
-0.00012075
-0.00261668
-7.4526e-05
-0.0026029
-4.4536e-05
-0.00258341
-5.70946e-05
-0.00253692
-0.000146857
-0.00243073
-0.000357318
-0.00222036
-0.000733223
-0.00185652
-0.00129242
-0.00130423
-0.0019753
-0.000582577
-0.00256906
0.000192848
-0.00271539
0.000796026
-0.00206015
0.000960023
-0.000565708
0.000492962
0.0014203
-0.000834746
0.004162
-0.00332411
0.00815105
-0.00669511
0.0117442
-0.00926937
0.00966532
-0.00872167
-0.00145578
-0.00377409
-0.0193402
0.00624976
-0.041266
0.0149457
-0.0283124
0.0115308
0.0207246
0.00594459
0.0198548
0.00680238
-0.00513375
0.00644754
-0.000304387
0.00264379
0.00915098
-0.00807817
0.032742
-0.0255812
0.0601533
-0.0426495
0.0664649
-0.0522477
0.045692
-0.0526289
0.0108678
-0.0451213
-0.0239735
-0.0322672
-0.0492543
-0.018097
-0.0559696
-0.0060734
-0.0463569
0.00251459
-0.0317446
0.00753206
-0.017785
0.00953783
-0.00675389
0.00977013
-0.000571166
0.00964246
0.000376893
0.00991318
-0.00173643
0.00957161
-0.000388269
0.00669169
0.0086502
0.00131251
0.0189747
-0.00359894
0.0189865
-0.00540414
0.00814668
-0.00427488
-0.00331304
-0.00212972
-0.00764017
-0.000192075
-0.00699312
0.00118255
-0.00499903
0.00204567
-0.00307786
0.00243572
-0.00127191
0.00244029
0.000355222
0.00231665
0.0011725
0.00225732
0.00134877
0.00278121
-0.00044754
0.00390788
-0.0024222
0.00590279
-0.00560365
0.00865327
-0.00837671
0.0117335
-0.00976437
0.0154124
-0.012064
0.0187777
-0.0109016
0.0225625
-0.0125145
0.0258042
-0.0103529
0.0296726
-0.0125883
0.0327308
-0.00955692
0.0371642
-0.0142495
0.0403648
-0.00995475
0.0456452
-0.0171182
0.0501048
-0.0142579
0.0572587
-0.0253164
-0.033231
0.0675609
0.028499
-0.0670206
0.068248
0.0293372
0.0688726
0.0301717
0.0690117
0.0307971
0.0682611
0.0309188
0.0663924
0.0303705
0.0634012
0.0291845
0.0594514
0.0274983
0.0547975
0.0254738
0.0497213
0.0232615
0.0444869
0.0209869
0.0393136
0.0187483
0.0343641
0.0166163
0.0297438
0.0146369
0.0255093
0.0128343
0.0216797
0.0112153
0.0182503
0.00977579
0.0152012
0.0085034
0.012505
0.00738238
0.0101313
0.00639551
0.00804962
0.00552809
0.00623025
0.00476321
0.00464677
0.00409179
0.00327308
0.00349822
0.00208711
0.00297708
0.00106759
0.00251719
0.000196708
0.00211323
-0.000545384
0.00175996
-0.00117214
0.00145037
-0.00169685
0.00117809
-0.00213263
0.000943241
-0.00249041
0.000737707
-0.00277981
0.000558979
-0.0030094
0.000403826
-0.00318637
0.000269144
-0.00332171
0.000154787
-0.00341652
5.58406e-05
-0.00347747
-2.70869e-05
-0.00351378
-9.30938e-05
-0.00352654
-0.000147602
-0.00352067
-0.000190477
-0.00349941
-0.000224621
-0.00346637
-0.000248168
-0.00342479
-0.000261871
-0.00337854
-0.000262049
-0.00333234
-0.000244169
-0.00329155
-0.000206218
-0.00326029
-0.000151978
-0.0032395
-9.52992e-05
-0.00322421
-5.98304e-05
-0.00320084
-8.04511e-05
-0.00314511
-0.00020258
-0.00301981
-0.000482633
-0.0027744
-0.000978614
-0.00235227
-0.00171455
-0.00171141
-0.00261616
-0.000868704
-0.00341173
4.73913e-05
-0.00363149
0.000775157
-0.00278787
0.00097469
-0.000765262
0.000378133
0.00201692
-0.00129532
0.00583544
-0.00434808
0.0112039
-0.0083296
0.0157257
-0.0112314
0.0125672
-0.010517
-0.00217024
-0.00513048
-0.0247268
0.0050911
-0.0514876
0.0157653
-0.0389866
0.0139104
0.0225794
0.00746939
0.0262959
0.00806965
-0.005734
0.00723854
0.000526735
0.00182541
0.0145642
-0.0117601
0.0463275
-0.0323652
0.0807584
-0.0508628
0.0849624
-0.0599735
0.0548026
-0.0592268
0.010121
-0.050465
-0.0327353
-0.0361474
-0.0635718
-0.0203331
-0.0717839
-0.00665695
-0.0600331
0.00338288
-0.0417844
0.00943955
-0.0238416
0.0119754
-0.00928966
0.0123421
-0.000937908
0.0121559
0.000563084
0.0122788
-0.00185925
0.0115741
0.000316439
0.00794976
0.0122745
0.00165369
0.0252707
-0.00385607
0.0244962
-0.00572734
0.0100179
-0.00431011
-0.00473026
-0.00178269
-0.0101676
0.000493897
-0.00926969
0.00212663
-0.00663176
0.00317598
-0.0041272
0.00369938
-0.00179532
0.00382388
0.00023073
0.00385826
0.00113812
0.00403303
0.00117399
0.0049245
-0.001339
0.0065501
-0.0040478
0.00917724
-0.00823079
0.0126836
-0.0118831
0.0165639
-0.0136447
0.0211375
-0.0166376
0.0253546
-0.0151187
0.0300735
-0.0172334
0.0341646
-0.0144439
0.0390251
-0.0174488
0.0429213
-0.0134532
0.0484795
-0.0198077
0.05258
-0.0140553
0.059101
-0.0236391
0.0647313
-0.0198883
0.0731554
-0.0337405
-0.0441355
0.0717953
0.0280358
-0.0713321
0.072322
0.0288105
0.0728821
0.0296117
0.0732952
0.030384
0.0732898
0.0309243
0.0726019
0.0310584
0.0710613
0.0307252
0.0686149
0.0299447
0.0653139
0.0287749
0.061285
0.0272904
0.0567009
0.0255711
0.0517543
0.0236949
0.0466374
0.0217332
0.0415246
0.0197498
0.0365592
0.0177997
0.0318475
0.0159271
0.0274588
0.0141645
0.0234303
0.0125319
0.0197747
0.0110381
0.0164873
0.00968289
0.0135532
0.0084622
0.0109504
0.00736599
0.00865515
0.00638708
0.00664089
0.00551249
0.00488282
0.00473517
0.00335578
0.00404424
0.00203661
0.00343241
0.000903644
0.00289296
-6.23808e-05
0.0024164
-0.000885166
0.0020009
-0.00157689
0.00163499
-0.00215421
0.00131501
-0.00263103
0.00103585
-0.00301983
0.000792658
-0.00333173
0.000581001
-0.00357609
0.000399158
-0.00376467
0.000244436
-0.00390567
0.00011394
-0.00400007
1.24586e-06
-0.00406378
-8.38704e-05
-0.0040984
-0.000155875
-0.00410824
-0.000214778
-0.00409881
-0.000257601
-0.00407468
-0.000286
-0.00404078
-0.000295971
-0.00400288
-0.00028203
-0.00396747
-0.000241666
-0.00393966
-0.000179769
-0.003921
-0.000113954
-0.00390638
-7.446e-05
-0.00388105
-0.000105773
-0.00381826
-0.000265359
-0.00367711
-0.000623801
-0.00340177
-0.00125394
-0.0029287
-0.00218762
-0.00220808
-0.00333678
-0.0012519
-0.00436788
-0.000196002
-0.00468741
0.000659597
-0.00364342
0.000899545
-0.00100523
0.000160327
0.0027562
-0.00188855
0.00788431
-0.00552967
0.014845
-0.0101035
0.0202996
-0.0132847
0.0157484
-0.0124355
-0.00301945
-0.00685674
-0.0303056
0.00291316
-0.0612574
0.0157109
-0.0517844
0.0162913
0.0219989
0.00911381
0.0334735
0.00932298
-0.00594316
0.00782511
0.00202463
0.000463258
0.0219261
-0.0161851
0.0629758
-0.0396388
0.104212
-0.058851
0.104175
-0.0670572
0.0630087
-0.0653197
0.00838354
-0.0555804
-0.0424748
-0.0399979
-0.0791543
-0.0226171
-0.0891647
-0.00728172
-0.0753684
0.00429552
-0.0533616
0.0115374
-0.0310835
0.0147369
-0.0124891
0.0153092
-0.00151022
0.0150528
0.000819539
0.0149479
-0.00175437
0.0137902
0.00147415
0.00938367
0.0166811
0.00220868
0.0324457
-0.00383476
0.0305397
-0.00573733
0.0119205
-0.00402471
-0.00644287
-0.00110552
-0.0130868
0.00152289
-0.0118981
0.00343856
-0.00854743
0.00470664
-0.00539527
0.00540612
-0.0024948
0.00571073
-7.38733e-05
0.00596988
0.000878971
0.00645735
0.000686516
0.00778783
-0.00266947
0.00999137
-0.00625134
0.0133271
-0.0115665
0.0176757
-0.0162317
0.0224539
-0.0184229
0.0280321
-0.0222158
0.0332174
-0.020304
0.0389991
-0.023015
0.0440624
-0.0195072
0.0500472
-0.0234336
0.0549084
-0.0183144
0.0617025
-0.0266018
0.0668486
-0.0192014
0.0746768
-0.0314674
0.0816126
-0.026824
0.0913195
-0.0434475
-0.0563734
0.076345
0.027618
-0.0759271
0.0767799
0.0283757
0.0772402
0.0291514
0.0776643
0.02996
0.0779185
0.0306701
0.0778262
0.0311508
0.077216
0.0313354
0.0759561
0.0312045
0.0739725
0.0307586
0.0712502
0.0300127
0.0678271
0.0289941
0.0637853
0.0277367
0.0592415
0.0262769
0.0543377
0.0246536
0.049228
0.0229094
0.0440647
0.0210904
0.0389846
0.0192446
0.0340995
0.017417
0.0294912
0.0156464
0.0252123
0.0139618
0.0212909
0.0123836
0.0177354
0.0109215
0.0145416
0.00958094
0.0116947
0.00835939
0.00917547
0.00725445
0.00696044
0.0062593
0.0050252
0.00536766
0.00334485
0.00457335
0.00189449
0.00386679
0.000651284
0.00324412
-0.000407703
0.00269404
-0.00130389
0.0022112
-0.00205512
0.00178709
-0.00267888
0.00141646
-0.0031908
0.00109292
-0.0036052
0.00081354
-0.00393442
0.000573672
-0.00419042
0.000369989
-0.0043895
0.000200294
-0.0045308
5.74657e-05
-0.00462908
-5.76115e-05
-0.00469296
-0.000150899
-0.00472594
-0.000224602
-0.00473481
-0.000277111
-0.00472602
-0.000304778
-0.00470683
-0.000301179
-0.00468504
-0.000263491
-0.00466704
-0.000197773
-0.00465538
-0.000125597
-0.00464549
-8.43603e-05
-0.00462198
-0.000129289
-0.00455651
-0.000330813
-0.00440556
-0.000774763
-0.00410905
-0.00155044
-0.003597
-0.00269968
-0.00281078
-0.004123
-0.00175415
-0.00542447
-0.000565246
-0.00587633
0.000419892
-0.0046285
0.000707089
-0.00129245
-0.00017885
0.0036422
-0.00262643
0.0103319
-0.00686391
0.0190825
-0.0119946
0.0254303
-0.0154119
0.0191656
-0.0145168
-0.00391461
-0.00907034
-0.0357522
-0.000278568
-0.0700491
0.0148111
-0.0668741
0.018607
0.018203
0.010839
0.0412416
0.0105137
-0.00561783
0.00814
0.00439839
-0.0014478
0.0315139
-0.0213099
0.0828378
-0.0472
0.130102
-0.0663923
0.123367
-0.0735202
0.0701365
-0.0711224
0.00598573
-0.0606851
-0.0529121
-0.0439896
-0.0958498
-0.0250678
-0.108087
-0.00803384
-0.0924024
0.00518297
-0.0665783
0.0137906
-0.0396911
0.0178313
-0.0165298
0.0187145
-0.00239332
0.0183891
0.00114493
0.0179763
-0.00134154
0.016281
0.00316942
0.0110724
0.0218897
0.00307202
0.0404461
-0.00344375
0.0370555
-0.0053583
0.013835
-0.00335054
-0.00845062
-1.70747e-05
-0.0164203
0.00297013
-0.0148853
0.00519616
-0.0107735
0.00672262
-0.00692172
0.00764643
-0.00341862
0.00819125
-0.000618682
0.00873553
0.000334683
0.00960267
-0.000180625
0.0114244
-0.00449123
0.0142654
-0.00909231
0.0183692
-0.0156703
0.023635
-0.0214975
0.029409
-0.024197
0.0361034
-0.0289101
0.042384
-0.0265847
0.0493645
-0.0299955
0.0555329
-0.0256756
0.0627716
-0.0306723
0.068734
-0.0242768
0.07685
-0.0347178
0.0831914
-0.0255429
0.0923581
-0.0406341
0.100697
-0.0351625
0.111689
-0.0544403
-0.0697221
0.0812161
0.0272333
-0.0808314
0.0816019
0.0279899
0.0819949
0.0287583
0.0823716
0.0295834
0.082673
0.0303687
0.0828071
0.0310167
0.0826623
0.0314802
0.0821251
0.0317418
0.0810951
0.0317886
0.0794955
0.0316123
0.0772774
0.0312122
0.0744221
0.030592
0.0709427
0.0297564
0.0668858
0.0287105
0.0623324
0.0274628
0.0573934
0.0260294
0.0522018
0.0244363
0.0468993
0.0227195
0.041623
0.0209227
0.0364929
0.019092
0.0316043
0.0172722
0.027025
0.0155007
0.022798
0.013808
0.0189438
0.0122136
0.015467
0.0107312
0.0123597
0.00936663
0.00960579
0.00812155
0.00718397
0.00699516
0.00506928
0.00598153
0.00323604
0.00507734
0.00165734
0.00427278
0.000307754
0.0035608
-0.000838163
0.00293299
-0.00180284
0.00238115
-0.00260731
0.00189741
-0.00327133
0.00147756
-0.00381274
0.00111508
-0.00424789
0.000805164
-0.00459083
0.000543204
-0.00485983
0.00032651
-0.0050633
0.000145841
-0.00520658
-7.60968e-06
-0.00530908
-0.000122114
-0.00537375
-0.000212432
-0.00540893
-0.000269608
-0.00542377
-0.000286295
-0.00542786
-0.000259426
-0.00542945
-0.000196181
-0.00543263
-0.000122401
-0.00543383
-8.31641e-05
-0.00541848
-0.000144626
-0.00535767
-0.000391618
-0.00520659
-0.000925845
-0.0049022
-0.00185482
-0.00436858
-0.00323329
-0.00353712
-0.00495446
-0.00239941
-0.00656215
-0.00108999
-0.00718576
1.81201e-05
-0.00573656
0.000365681
-0.00164003
-0.000660768
0.00466871
-0.00351673
0.0131878
-0.00833817
0.023904
-0.0139764
0.0310686
-0.0176037
0.0227929
-0.0168199
-0.0046984
-0.0118681
-0.040704