/*--------------------------------*- C++ -*----------------------------------*\
| =========                 |                                                 |
| \\      /  F ield         | OpenFOAM: The Open Source CFD Toolbox           |
|  \\    /   O peration     | Version:  2412                                  |
|   \\  /    A nd           | Website:  www.openfoam.com                      |
|    \\/     M anipulation  |                                                 |
\*---------------------------------------------------------------------------*/
FoamFile
{
    version     2.0;
    format      ascii;
    arch        "LSB;label=32;scalar=64";
    class       volVectorField;
    location    "0.285";
    object      U;
}
// * * * * * * * * * * * * * * * * * * * * * * * * * * * * * * * * * * * * * //

dimensions      [0 1 -1 0 0 0 0];

internalField   nonuniform List<vector> 
12600
(
(21.5003 0 -1.34351)
(9.04965 -4.70291e-20 -1.93986)
(4.01793 -2.65568e-20 -1.95685)
(2.12002 0 -1.4911)
(1.37711 -1.64469e-22 -1.02615)
(0.983366 0 -0.720324)
(0.719065 -2.53542e-20 -0.523491)
(0.526583 0 -0.387143)
(0.381424 0 -0.286721)
(0.269632 0 -0.210068)
(0.181497 0 -0.150916)
(0.110903 -9.55675e-20 -0.104321)
(0.0540083 -9.88694e-20 -0.0667229)
(0.00789704 0 -0.0360562)
(-0.0296082 2.04553e-19 -0.0108892)
(-0.0602575 0 0.00993233)
(-0.0853197 3.55283e-22 0.0267719)
(-0.105422 0 0.0405366)
(-0.121536 1.01749e-19 0.052014)
(-0.134421 0 0.0613368)
(-0.144437 0 0.0687391)
(-0.152077 0 0.0746102)
(-0.157611 3.82281e-19 0.0790792)
(-0.161324 -3.73876e-19 0.0824081)
(-0.163575 -1.85999e-22 0.0847165)
(-0.16444 1.77888e-19 0.0861546)
(-0.164205 0 0.0869733)
(-0.162979 0 0.0871772)
(-0.161015 0 0.0868386)
(-0.158435 -3.16146e-19 0.0860001)
(-0.155352 -6.1215e-19 0.0847957)
(-0.151905 0 0.0832735)
(-0.148101 0 0.0814969)
(-0.143928 -2.76621e-19 0.0796196)
(-0.139544 -2.67104e-19 0.0775207)
(-0.134998 0 0.0752611)
(-0.130337 0 0.0728849)
(-0.125612 -4.78307e-19 0.0704271)
(-0.12084 0 0.067918)
(-0.116091 8.64798e-23 0.065392)
(-0.111415 -4.25768e-19 0.0628827)
(-0.106796 -4.09151e-19 0.0603944)
(-0.102297 0 0.0579511)
(-0.0979507 -3.77198e-19 0.0555821)
(-0.0938165 -3.61893e-19 0.053322)
(-0.090032 6.94132e-19 0.0512457)
(-0.0867625 -6.65432e-19 0.0494454)
(-0.0841748 0 0.0480197)
(-0.0823748 6.10714e-19 0.0470055)
(-0.081283 -5.84869e-19 0.0463696)
(-0.0805715 0 0.0459356)
(-0.0795686 -1.83698e-23 0.0453259)
(-0.0771406 5.13596e-19 0.0439137)
(-0.0716115 0 0.0406167)
(-0.0607646 -9.41498e-19 0.0342367)
(-0.0425526 0 0.0237822)
(-0.0165818 0 0.00935548)
(0.0132915 -6.03995e-24 -0.00710609)
(0.0392262 -5.90933e-23 -0.021637)
(0.052174 7.3715e-19 -0.0289756)
(0.0496381 -6.97925e-19 -0.027319)
(0.0329327 1.32026e-18 -0.0169792)
(-0.0104497 0 0.00923329)
(-0.101451 1.16971e-18 0.062188)
(-0.231829 1.10572e-18 0.134156)
(-0.298978 -2.1326e-18 0.169854)
(-0.214526 1.03296e-18 0.117367)
(0.165716 0 -0.090874)
(0.721569 0 -0.400925)
(0.52907 0 -0.290486)
(0.0711536 0 -0.0437332)
(0.168172 0 -0.0963021)
(0.229457 -1.21479e-18 -0.129318)
(0.239182 1.13663e-18 -0.133239)
(0.21421 0 -0.112564)
(-0.10313 0 0.078124)
(-0.691883 6.47678e-19 0.413883)
(-1.35247 -8.20898e-22 0.770168)
(-1.79991 1.52225e-18 1.01382)
(-1.87659 0 1.0432)
(-1.54083 0 0.851496)
(-0.973531 0 0.530776)
(-0.449195 -3.6782e-21 0.241196)
(-0.104367 0 0.0517527)
(0.0890928 0 -0.0542496)
(0.167159 2.80839e-18 -0.0960012)
(0.178493 1.68829e-22 -0.102143)
(0.164019 0 -0.0940439)
(0.166522 0 -0.0956245)
(0.198977 -4.38413e-18 -0.113545)
(0.211381 -4.0811e-18 -0.119044)
(0.137126 -3.75626e-18 -0.0743164)
(-0.0139 -3.45988e-18 0.0114811)
(-0.138241 -2.16705e-22 0.0783707)
(-0.163967 -7.01138e-22 0.0916482)
(-0.121871 2.97468e-18 0.0672885)
(-0.0736168 0 0.0401117)
(-0.0352885 0 0.0186949)
(-0.0126144 0 0.00617799)
(0.00210119 9.57419e-18 -0.00190366)
(0.00211455 -4.50132e-18 -0.00167072)
(-0.00456536 4.23057e-18 0.00207833)
(-0.0214328 3.97655e-18 0.0115298)
(-0.0381903 0 0.0208186)
(-0.0458607 0 0.024885)
(-0.0496447 0 0.0263075)
(-0.0272837 6.37194e-18 0.0132237)
(-0.00777962 0 0.00165304)
(0.0324072 -5.75139e-18 -0.0215574)
(0.0662216 0 -0.0407659)
(0.101999 0 -0.0613661)
(0.136529 4.84784e-18 -0.0807568)
(0.160317 0 -0.0945859)
(0.194866 0 -0.113972)
(0.202823 0 -0.118876)
(0.251441 -7.57681e-18 -0.146456)
(0.237664 0 -0.138845)
(0.316746 6.66151e-18 -0.184199)
(0.287714 0 -0.167631)
(0.442559 1.31672e-22 -0.256341)
(33.9081 -1.45924e-20 -2.08909)
(24.2934 2.78679e-20 -4.19125)
(15.8994 1.54008e-20 -5.09004)
(10.3622 0 -4.50484)
(7.09847 -4.30282e-21 -3.48737)
(5.10163 1.62232e-20 -2.63176)
(3.79481 2.64465e-20 -1.99964)
(2.87652 -3.26904e-20 -1.53244)
(2.19578 0 -1.17749)
(1.67345 0 -0.900846)
(1.2629 0 -0.681716)
(0.934806 0 -0.505422)
(0.669262 0 -0.361557)
(0.452138 0 -0.243129)
(0.273432 -8.77637e-22 -0.145103)
(0.125201 0 -0.0635788)
(0.00258663 1.07199e-19 0.00461797)
(-0.0982895 0 0.0610903)
(-0.182059 -2.11318e-19 0.107523)
(-0.251271 2.08463e-19 0.146027)
(-0.307642 0 0.17761)
(-0.353303 2.01911e-19 0.203303)
(-0.389622 -1.98468e-19 0.223678)
(-0.417823 1.94031e-19 0.23967)
(-0.439282 -1.8934e-19 0.251807)
(-0.454609 0 0.260468)
(-0.465122 1.79094e-19 0.266078)
(-0.471198 0 0.269243)
(-0.47367 0 0.270332)
(-0.472883 0 0.269782)
(-0.469431 3.16524e-19 0.267897)
(-0.463899 0 0.264712)
(-0.45638 0 0.260505)
(-0.447368 0 0.255295)
(-0.437012 0 0.249433)
(-0.425591 0 0.242924)
(-0.41333 0 0.235951)
(-0.400459 4.9212e-19 0.228635)
(-0.387123 0 0.221066)
(-0.373569 9.09535e-19 0.213382)
(-0.359998 8.73661e-19 0.205685)
(-0.346423 4.19276e-19 0.197992)
(-0.333041 0 0.190409)
(-0.319988 0 0.183023)
(-0.307477 7.3974e-19 0.17597)
(-0.295931 -7.08754e-19 0.169504)
(-0.285862 6.78587e-19 0.163922)
(-0.2778 0 0.15953)
(-0.272021 -6.21443e-19 0.156439)
(-0.268292 0 0.15444)
(-0.265555 0 0.152865)
(-0.261672 -5.43912e-19 0.150448)
(-0.253171 0 0.145027)
(-0.234724 0 0.133433)
(-0.199628 9.51247e-19 0.11186)
(-0.141763 0 0.0771948)
(-0.06006 0 0.0298929)
(0.0339287 -1.50861e-23 -0.0236115)
(0.116559 7.81311e-19 -0.0697805)
(0.158404 1.72366e-22 -0.0918973)
(0.148436 0 -0.0836661)
(0.0872239 -1.32186e-18 -0.0446358)
(-0.0639185 -1.24421e-18 0.0486877)
(-0.364066 0 0.228301)
(-0.771525 -2.20393e-18 0.458864)
(-0.97018 6.64091e-22 0.558394)
(-0.694566 0 0.366762)
(0.437726 9.87749e-19 -0.306799)
(2.16148 0 -1.267)
(1.67921 0 -0.916215)
(0.292739 0 -0.150779)
(0.544965 0 -0.323631)
(0.722418 2.39328e-18 -0.418249)
(0.721815 -1.11999e-18 -0.416992)
(0.542226 0 -0.290596)
(-0.562152 0 0.379202)
(-2.43082 6.38438e-19 1.47551)
(-4.36816 -1.5384e-21 2.56902)
(-5.56027 -6.16492e-21 3.23201)
(-5.6194 0 3.2308)
(-4.52268 0 2.56281)
(-2.82487 0 1.57093)
(-1.28415 -5.80975e-21 0.695661)
(-0.259608 -3.00938e-18 0.122515)
(0.321499 2.87654e-18 -0.19875)
(0.555573 -2.71348e-18 -0.323866)
(0.587913 2.49712e-22 -0.339068)
(0.544296 -2.38848e-18 -0.313359)
(0.554096 0 -0.320729)
(0.642965 4.21391e-18 -0.372727)
(0.647764 0 -0.371935)
(0.38394 3.60156e-18 -0.212359)
(-0.0822663 0 0.058991)
(-0.431944 -6.21629e-18 0.254476)
(-0.483493 -2.96661e-18 0.279076)
(-0.346386 0 0.196911)
(-0.20002 0 0.112562)
(-0.0844703 -5.11883e-18 0.0467749)
(-0.018058 4.83153e-18 0.00931765)
(0.0245121 -9.10087e-18 -0.0144452)
(0.0210622 4.27506e-18 -0.0117513)
(0.000822405 -4.01433e-18 0.000403554)
(-0.0474193 0 0.028671)
(-0.0896937 3.54868e-18 0.0530483)
(-0.100179 0 0.0587687)
(-0.0959494 0 0.0559238)
(-0.0138357 -6.01958e-18 0.00780321)
(0.0593773 0 -0.0346819)
(0.18871 1.28617e-21 -0.110076)
(0.300091 5.1245e-18 -0.173778)
(0.411942 0 -0.239061)
(0.52206 0 -0.301561)
(0.597952 0 -0.346167)
(0.70824 4.04089e-18 -0.408631)
(0.736187 -7.60898e-18 -0.425828)
(0.894944 7.12287e-18 -0.516267)
(0.850399 0 -0.491841)
(1.11429 -6.25683e-18 -0.643378)
(1.01116 0 -0.586281)
(1.51125 1.09468e-17 -0.875796)
(37.4888 3.12111e-20 -2.15908)
(33.1256 -7.15834e-21 -4.04247)
(26.5442 9.69177e-21 -5.74171)
(20.0586 0 -6.15429)
(14.8584 -7.76275e-21 -5.59939)
(11.1003 7.51414e-22 -4.69525)
(8.4478 0 -3.80923)
(6.52935 3.10253e-20 -3.05659)
(5.09339 0 -2.44165)
(3.9869 4.00676e-20 -1.94139)
(3.11509 0 -1.53203)
(2.41607 0 -1.19463)
(1.84781 0 -0.914654)
(1.38101 0 -0.680945)
(0.994632 -1.001e-19 -0.48503)
(0.672699 0 -0.320378)
(0.404476 0 -0.180519)
(0.180519 0 -0.0630502)
(-0.00714335 1.0005e-19 0.0350612)
(-0.163715 -7.1301e-22 0.117635)
(-0.293904 0 0.186202)
(-0.401521 -5.34677e-22 0.243369)
(-0.489554 0 0.290167)
(-0.560565 -1.83272e-19 0.328208)
(-0.617335 0 0.358516)
(-0.661334 0 0.382034)
(-0.69481 -1.69876e-19 0.399573)
(-0.718734 0 0.412116)
(-0.734696 0 0.420476)
(-0.743949 -3.09896e-19 0.424745)
(-0.747542 0 0.425885)
(-0.746313 0 0.424424)
(-0.740702 0 0.420773)
(-0.731561 0 0.415078)
(-0.719379 2.6079e-19 0.407698)
(-0.704614 0 0.399066)
(-0.687792 0 0.389376)
(-0.669393 -4.6581e-19 0.378872)
(-0.649748 0 0.367738)
(-0.629315 -8.61069e-19 0.356236)
(-0.608494 -1.24414e-22 0.344542)
(-0.587386 -3.9695e-19 0.332699)
(-0.566324 0 0.32093)
(-0.545591 0 0.309381)
(-0.525556 -3.49972e-19 0.298318)
(-0.50692 0 0.288179)
(-0.490529 -6.41916e-19 0.279454)
(-0.47726 0 0.272619)
(-0.467549 5.4012e-23 0.267811)
(-0.460996 0 0.264602)
(-0.455873 0 0.261675)
(-0.448699 0 0.256736)
(-0.433698 -4.91378e-19 0.246233)
(-0.402145 0 0.225079)
(-0.343266 0 0.187219)
(-0.247233 0 0.127906)
(-0.112259 0 0.0484456)
(0.0435806 1.55517e-18 -0.0399763)
(0.182281 0 -0.114436)
(0.253705 1.44301e-22 -0.147688)
(0.235463 0 -0.127937)
(0.124234 6.23453e-19 -0.0509921)
(-0.143162 1.1731e-18 0.122396)
(-0.655818 0 0.43725)
(-1.32713 2.07736e-18 0.811321)
(-1.64159 9.98898e-19 0.939475)
(-1.18138 0 0.574866)
(0.599059 -9.30237e-19 -0.532851)
(3.40723 0 -2.02847)
(2.81518 0 -1.46735)
(0.579158 0 -0.267852)
(0.919688 0 -0.558341)
(1.19652 7.87463e-22 -0.69257)
(1.15336 1.05325e-18 -0.654226)
(0.732899 0 -0.329149)
(-1.21791 0 0.894257)
(-4.3201 2.12912e-21 2.72267)
(-7.34372 -1.12344e-18 4.38799)
(-9.03802 -6.90124e-19 5.24652)
(-8.92136 0 5.05763)
(-7.07964 0 3.88356)
(-4.39668 0 2.32459)
(-1.98303 -5.73587e-18 0.990058)
(-0.356139 1.91776e-21 0.115213)
(0.579322 -2.69843e-18 -0.376415)
(0.95906 0 -0.564009)
(1.01127 -2.38759e-18 -0.581565)
(0.941178 2.23919e-18 -0.539886)
(0.956809 0 -0.55459)
(1.08534 0 -0.628362)
(1.05422 3.67425e-18 -0.593638)
(0.588062 0 -0.301983)
(-0.16942 3.10569e-18 0.135988)
(-0.702999 3.25795e-22 0.419636)
(-0.758137 2.7758e-18 0.431108)
(-0.528157 -2.65569e-18 0.289261)
(-0.292078 0 0.155199)
(-0.105958 4.79042e-18 0.0520061)
(-0.00116727 -4.52088e-18 -0.00479657)
(0.0660482 8.51393e-18 -0.0403133)
(0.0575476 0 -0.0328021)
(0.0268399 -3.75431e-18 -0.0137744)
(-0.0456092 0 0.0284965)
(-0.101218 -3.31827e-18 0.0588495)
(-0.101193 3.13071e-18 0.0574614)
(-0.0753297 0 0.0382152)
(0.0735771 5.62681e-18 -0.0506252)
(0.20863 0 -0.130011)
(0.42542 1.01423e-17 -0.256709)
(0.616405 -4.78867e-18 -0.364884)
(0.801197 0 -0.472368)
(0.986656 0 -0.575986)
(1.11422 0 -0.651019)
(1.30068 -3.70344e-22 -0.754822)
(1.35013 7.10736e-18 -0.786404)
(1.62243 -6.65169e-18 -0.939442)
(1.54586 0 -0.899554)
(2.00291 -5.84226e-18 -1.16036)
(1.81629 0 -1.0601)
(2.65572 -1.51927e-22 -1.54526)
(37.9278 -1.64578e-20 -2.50855)
(36.907 -5.5229e-21 -3.59309)
(33.3901 1.81207e-21 -5.30862)
(28.3673 -9.62392e-21 -6.49229)
(23.0838 -1.60865e-20 -6.74903)
(18.3862 -3.2309e-20 -6.30113)
(14.5697 0 -5.52699)
(11.5775 0 -4.68738)
(9.23959 0 -3.90354)
(7.39411 -3.79502e-20 -3.21436)
(5.91784 0 -2.6225)
(4.72162 0 -2.11834)
(3.74143 0 -1.68958)
(2.93085 0 -1.32468)
(2.25573 0 -1.01376)
(1.69002 -9.44531e-20 -0.748682)
(1.21472 9.4776e-20 -0.521803)
(0.814724 0 -0.328547)
(0.477593 0 -0.163989)
(0.193141 -1.8671e-19 -0.0241311)
(-0.0459381 1.83466e-19 0.0940409)
(-0.246157 -1.80946e-19 0.193772)
(-0.413206 1.76958e-19 0.276573)
(-0.550824 1.73544e-19 0.345705)
(-0.663786 -1.69091e-19 0.402252)
(-0.754589 1.64813e-19 0.447989)
(-0.826742 0 0.484449)
(-0.882447 -1.55823e-19 0.512621)
(-0.924331 0 0.533822)
(-0.954349 2.93302e-19 0.548362)
(-0.973944 0 0.55762)
(-0.984901 0 0.562069)
(-0.988393 0 0.562009)
(-0.985549 -2.55677e-19 0.558344)
(-0.976802 -2.46697e-19 0.552324)
(-0.963386 0 0.543772)
(-0.946069 0 0.533377)
(-0.925654 4.40479e-19 0.521473)
(-0.902751 0 0.508341)
(-0.878076 1.56634e-22 0.494406)
(-0.85228 -3.90807e-19 0.479928)
(-0.825608 0 0.465005)
(-0.798563 0 0.449989)
(-0.771603 0 0.435106)
(-0.745279 0 0.420769)
(-0.720563 -6.33077e-19 0.407599)
(-0.698622 0 0.396272)
(-0.68066 5.79998e-19 0.387406)
(-0.667258 5.5475e-19 0.381102)
(-0.657837 0 0.376699)
(-0.650035 0 0.372224)
(-0.639082 0 0.364325)
(-0.617095 4.63594e-19 0.348093)
(-0.572466 -4.43107e-19 0.316421)
(-0.490826 -8.46915e-19 0.261287)
(-0.359033 0 0.176818)
(-0.17442 -7.70782e-19 0.0657686)
(0.0397614 -1.46593e-18 -0.0554915)
(0.232539 0 -0.15545)
(0.333535 -1.3161e-18 -0.196501)
(0.30582 0 -0.160631)
(0.138548 -5.87723e-19 -0.0373557)
(-0.253226 -1.10604e-18 0.22821)
(-0.978461 0 0.685026)
(-1.89259 -9.77737e-19 1.18708)
(-2.29847 -9.38885e-19 1.3099)
(-1.66001 0 0.74576)
(0.643478 0 -0.765155)
(4.37364 0 -2.68589)
(3.90611 6.2643e-19 -1.96406)
(0.931105 6.01216e-19 -0.390983)
(1.28677 0 -0.795497)
(1.64107 -1.05888e-18 -0.953608)
(1.51407 -9.92344e-19 -0.841385)
(0.752878 0 -0.244483)
(-2.09033 0 1.59135)
(-6.33509 -5.65306e-19 4.11067)
(-10.1911 2.10505e-21 6.18658)
(-12.0975 0 7.06023)
(-11.6588 0 6.56633)
(-9.11865 0 4.90717)
(-5.64042 0 2.87134)
(-2.52541 5.07272e-21 1.17104)
(-0.38874 2.64572e-18 0.0519934)
(0.861463 0 -0.580016)
(1.37604 0 -0.816435)
(1.44813 0 -0.832322)
(1.35463 2.09824e-18 -0.775874)
(1.37208 0 -0.796791)
(1.51918 3.70019e-18 -0.88044)
(1.42294 -3.44074e-18 -0.792461)
(0.74806 3.16358e-18 -0.36093)
(-0.266885 -2.90739e-18 0.226631)
(-0.937913 5.44742e-18 0.569678)
(-0.976346 -2.59778e-18 0.553042)
(-0.658081 2.48502e-18 0.353091)
(-0.342782 0 0.174636)
(-0.0940262 0 0.0385961)
(0.0431103 -4.22774e-18 -0.0338495)
(0.13195 -3.98114e-18 -0.0792077)
(0.117823 -3.73908e-18 -0.0662417)
(0.0819668 1.79812e-22 -0.0429661)
(-0.00542929 0 0.00859872)
(-0.0595875 0 0.037129)
(-0.0364267 -2.92629e-18 0.0209866)
(0.0262692 0 -0.0223776)
(0.247295 -5.2558e-18 -0.154632)
(0.451778 0 -0.27487)
(0.752666 -1.19923e-21 -0.451788)
(1.02451 0 -0.604767)
(1.27843 -4.2404e-18 -0.753167)
(1.53872 3.98352e-18 -0.897445)
(1.71731 3.76309e-18 -1.0032)
(1.98051 -4.26703e-22 -1.14838)
(2.05273 0 -1.19583)
(2.44172 6.21183e-18 -1.41261)
(2.33209 5.82967e-18 -1.35794)
(2.98814 5.4553e-18 -1.73056)
(2.71115 0 -1.58585)
(3.87212 -1.69925e-22 -2.25907)
(37.4685 0 -3.05045)
(37.7351 -4.04992e-21 -3.53542)
(36.5654 0 -4.78362)
(33.7688 9.0929e-21 -6.11065)
(29.845 2.21356e-20 -6.94783)
(25.5096 1.60895e-20 -7.13313)
(21.3407 0 -6.79566)
(17.6469 0 -6.15371)
(14.5129 -3.16144e-20 -5.39183)
(11.9043 -3.51269e-20 -4.62411)
(9.74472 3.79777e-20 -3.90634)
(7.95417 8.04178e-20 -3.25952)
(6.46292 8.37806e-20 -2.68734)
(5.21451 0 -2.18605)
(4.16438 0 -1.74915)
(3.27722 1.78081e-19 -1.36973)
(2.52577 -4.74151e-22 -1.0403)
(1.88828 0 -0.755476)
(1.34669 -8.84857e-20 -0.509935)
(0.886285 -1.75211e-19 -0.298807)
(0.496115 -1.7345e-19 -0.117261)
(0.165246 0 0.0373046)
(-0.113464 -1.6728e-19 0.168587)
(-0.346827 1.63283e-19 0.279146)
(-0.54181 1.59825e-19 0.371403)
(-0.702227 -2.9205e-22 0.447967)
(-0.833451 0 0.510536)
(-0.938848 2.13319e-22 0.560743)
(-1.02215 0 0.600423)
(-1.086 2.76605e-19 0.630927)
(-1.13325 0 0.653585)
(-1.16665 0 0.669022)
(-1.18765 0 0.67806)
(-1.19837 2.41488e-19 0.680685)
(-1.20037 0 0.67795)
(-1.19418 0 0.672414)
(-1.18147 0 0.663728)
(-1.16352 0 0.652527)
(-1.14121 -3.99475e-19 0.639333)
(-1.11561 7.67781e-19 0.624672)
(-1.0877 0 0.608928)
(-1.05794 3.53712e-19 0.59227)
(-1.02703 0 0.5752)
(-0.995659 0 0.558045)
(-0.96458 0 0.541379)
(-0.935032 1.14363e-22 0.526018)
(-0.908495 0 0.512813)
(-0.88648 -5.46879e-19 0.502493)
(-0.86971 0 0.495078)
(-0.857474 0 0.489573)
(-0.846806 -4.77917e-19 0.483344)
(-0.831754 0 0.472052)
(-0.802661 0 0.449324)
(-0.745363 7.82715e-23 0.406332)
(-0.64246 7.97695e-19 0.333377)
(-0.47795 0 0.223881)
(-0.248154 4.73694e-23 0.0824383)
(0.0198596 1.3801e-18 -0.0691685)
(0.264184 0 -0.191034)
(0.394818 6.19353e-19 -0.235543)
(0.356955 0 -0.177823)
(0.128412 5.52897e-19 0.00110112)
(-0.394173 1.04032e-18 0.370905)
(-1.32839 0 0.972876)
(-2.45941 9.19444e-19 1.58134)
(-2.92887 6.60493e-22 1.65903)
(-2.12164 0 0.873212)
(0.57396 0 -1.00114)
(4.99289 0 -3.18985)
(4.93008 -1.17812e-18 -2.39327)
(1.34295 -1.79762e-22 -0.515017)
(1.64061 0 -1.02897)
(2.05106 9.95816e-19 -1.19195)
(1.79296 1.86448e-18 -0.960976)
(0.602808 0 -0.00520127)
(-3.15583 0 2.48397)
(-8.41426 0 5.61053)
(-12.8205 2.65344e-21 7.89502)
(-14.6791 0 8.57497)
(-13.8272 0 7.68194)
(-10.6854 0 5.57781)
(-6.59791 0 3.18504)
(-2.9359 2.51388e-18 1.22741)
(-0.37086 2.47517e-18 -0.0705337)
(1.16181 0 -0.809083)
(1.80526 0 -1.08053)
(1.90034 0 -1.09052)
(1.78632 1.4389e-22 -1.02047)
(1.79848 0 -1.04517)
(1.94245 -3.4639e-18 -1.12368)
(1.75898 0 -0.960617)
(0.878036 -2.9607e-18 -0.385466)
(-0.358812 0 0.326446)
(-1.12738 -2.54817e-18 0.696126)
(-1.13709 0 0.635132)
(-0.737489 0 0.379796)
(-0.352664 0 0.164294)
(-0.0479828 0 0.00133233)
(0.116599 3.95314e-18 -0.0822869)
(0.225783 0 -0.135425)
(0.207291 3.49545e-18 -0.116727)
(0.17344 3.28108e-18 -0.0931475)
(0.0806109 0 -0.0383634)
(0.0419752 0 -0.0219889)
(0.0982851 0 -0.0608745)
(0.210975 0 -0.137326)
(0.505663 1.30797e-21 -0.315493)
(0.785879 0 -0.480541)
(1.1668 -8.84844e-18 -0.705069)
(1.52087 0 -0.902909)
(1.84086 7.92062e-18 -1.08974)
(2.1766 -3.72051e-18 -1.27391)
(2.40581 -3.51441e-18 -1.41)
(2.74763 -3.29171e-18 -1.59631)
(2.84307 0 -1.66092)
(3.35232 0 -1.94164)
(3.20881 -1.08859e-17 -1.87361)
(4.06604 5.09251e-18 -2.35765)
(3.69746 4.76936e-18 -2.16987)
(5.15152 -4.45418e-18 -3.01437)
(36.9704 0 -3.50917)
(37.4041 3.25761e-20 -3.74469)
(37.3954 0 -4.49885)
(36.3523 0 -5.57775)
(34.1468 0 -6.58702)
(31.0535 0 -7.22631)
(27.4962 0 -7.39628)
(23.8561 2.68164e-20 -7.15662)
(20.398 2.98282e-20 -6.63702)
(17.2661 6.61868e-20 -5.96713)
(14.5112 -7.14309e-20 -5.24438)
(12.1269 -7.58962e-20 -4.52968)
(10.0793 -7.90751e-20 -3.85587)
(8.32622 0 -3.23797)
(6.8262 0 -2.68081)
(5.54193 -1.67103e-19 -2.18401)
(4.44172 -1.67844e-19 -1.74377)
(3.49893 0 -1.35622)
(2.69085 8.35237e-20 -1.01677)
(1.99824 1.65382e-19 -0.72074)
(1.4057 0 -0.463323)
(0.89919 1.6003e-19 -0.241269)
(0.46856 0 -0.0490844)
(0.102923 -3.62073e-22 0.114124)
(-0.205601 -1.50193e-19 0.253114)
(-0.463823 -2.76331e-22 0.370009)
(-0.678879 0 0.467712)
(-0.855686 1.38739e-19 0.548318)
(-0.99956 -2.68868e-19 0.614083)
(-1.11469 -5.21591e-19 0.666435)
(-1.20485 -2.52294e-19 0.707327)
(-1.27348 0 0.738326)
(-1.32323 -2.35733e-19 0.760843)
(-1.3573 0 0.775309)
(-1.37756 0 0.781802)
(-1.38644 0 0.781194)
(-1.385 0 0.776937)
(-1.37505 0 0.769121)
(-1.35825 1.77974e-22 0.75801)
(-1.33594 -3.61772e-19 0.744631)
(-1.30955 0 0.729393)
(-1.27983 -6.6654e-19 0.712564)
(-1.24775 0 0.694829)
(-1.21427 0 0.676632)
(-1.18038 0 0.658729)
(-1.1476 5.62312e-19 0.642137)
(-1.11771 0 0.627879)
(-1.09251 0 0.616762)
(-1.07288 0 0.608681)
(-1.05801 0 0.602277)
(-1.04444 8.99674e-19 0.594201)
(-1.02524 0 0.579087)
(-0.98922 0 0.549265)
(-0.920168 3.9269e-19 0.494328)
(-0.798202 0 0.403258)
(-0.604879 0 0.269229)
(-0.335293 1.36502e-18 0.0990846)
(-0.0189363 -6.48918e-19 -0.0799101)
(0.273569 0 -0.219726)
(0.433541 0 -0.263134)
(0.385286 0 -0.17723)
(0.091436 -5.20147e-19 0.0673809)
(-0.56596 0 0.552816)
(-1.70053 0 1.29974)
(-3.01715 -1.72729e-18 1.98792)
(-3.51932 1.65591e-18 1.97901)
(-2.55934 0 0.954864)
(0.39666 0 -1.23505)
(5.1861 0 -3.51002)
(5.85333 5.53445e-19 -2.75302)
(1.80405 -5.29701e-19 -0.632381)
(1.97491 -1.02645e-18 -1.25195)
(2.41835 -9.3419e-19 -1.40159)
(1.97672 -8.75107e-19 -1.00023)
(0.276897 7.73844e-19 0.394803)
(-4.38701 0 3.55753)
(-10.4829 0 7.17358)
(-15.134 4.58605e-19 9.44495)
(-16.7162 0 9.76831)
(-15.4237 0 8.44204)
(-11.8141 0 5.95922)
(-7.30071 0 3.31054)
(-3.2327 0 1.18141)
(-0.313781 -4.63406e-18 -0.2427)
(1.4739 0 -1.06038)
(2.24477 -2.09214e-18 -1.35582)
(2.36825 0 -1.3578)
(2.23693 1.47959e-22 -1.27475)
(2.23461 3.45399e-18 -1.29835)
(2.35263 0 -1.35662)
(2.06362 0 -1.10271)
(0.987327 0 -0.385493)
(-0.431744 0 0.425514)
(-1.26145 2.38239e-18 0.793562)
(-1.23385 0 0.679555)
(-0.762021 0 0.372214)
(-0.317821 0 0.125853)
(0.0362794 0 -0.0592902)
(0.223822 0 -0.15066)
(0.353272 0 -0.210755)
(0.332791 0 -0.187331)
(0.309703 0 -0.168384)
(0.221247 -2.87751e-18 -0.115988)
(0.213442 0 -0.119947)
(0.310969 0 -0.186338)
(0.48539 0 -0.303732)
(0.852844 4.58597e-18 -0.52739)
(1.21459 0 -0.740276)
(1.66985 4.13178e-18 -1.00997)
(2.10809 0 -1.25287)
(2.49032 -7.95547e-22 -1.47666)
(2.90302 0 -1.70078)
(3.18155 3.28072e-18 -1.8672)
(3.60465 0 -2.09511)
(3.72282 0 -2.17796)
(4.35481 0 -2.52239)
(4.17808 5.08131e-18 -2.4435)
(5.23204 -9.50797e-18 -3.03486)
(4.77861 -8.90433e-18 -2.81035)
(6.48325 -4.15751e-18 -3.80374)
(36.6024 0 -3.79278)
(36.8859 -3.5678e-20 -3.9818)
(37.1896 0 -4.43332)
(37.06 0 -5.18998)
(36.1628 -2.55437e-20 -6.08543)
(34.436 -2.44962e-20 -6.88045)
(32.0138 2.50657e-20 -7.39751)
(29.1197 -7.87337e-20 -7.56765)
(25.9939 0 -7.41269)
(22.8457 1.54657e-22 -7.00583)
(19.829 3.3536e-20 -6.43449)
(17.0378 0 -5.77625)
(14.516 0 -5.08923)
(12.2726 0 -4.41226)
(10.2966 0 -3.76881)
(8.56656 4.55604e-22 -3.17174)
(7.05792 4.09305e-22 -2.6263)
(5.74611 7.84653e-20 -2.13406)
(4.60788 7.80742e-20 -1.69392)
(3.62195 0 -1.30329)
(2.76997 -1.52782e-19 -0.958455)
(2.03518 -1.50826e-19 -0.656458)
(1.40384 0 -0.392471)
(0.863015 -3.37795e-22 -0.164463)
(0.402002 2.99754e-22 0.0327064)
(0.0109433 -1.38e-19 0.200609)
(-0.318753 0 0.343376)
(-0.594459 0 0.463215)
(-0.823118 2.53326e-19 0.563192)
(-1.01057 3.00599e-22 0.645151)
(-1.16203 4.75108e-19 0.711566)
(-1.28256 0 0.76405)
(-1.37591 4.43896e-19 0.804146)
(-1.44558 0 0.833952)
(-1.49492 0 0.855039)
(-1.52739 -1.98874e-19 0.866283)
(-1.54524 0 0.869325)
(-1.55086 -3.68415e-19 0.867044)
(-1.54557 1.75732e-22 0.861011)
(-1.53189 3.40283e-19 0.851157)
(-1.5116 0 0.838481)
(-1.48585 1.09583e-22 0.823339)
(-1.45598 0 0.806575)
(-1.42328 0 0.788789)
(-1.38904 0 0.770931)
(-1.35505 0 0.754229)
(-1.32339 0 0.73987)
(-1.29617 4.84178e-19 0.728714)
(-1.27443 0 0.720496)
(-1.25734 0 0.713442)
(-1.24109 -4.22945e-19 0.703501)
(-1.21794 0 0.684351)
(-1.17558 -3.86136e-19 0.647076)
(-1.09623 -3.68951e-19 0.579926)
(-0.958116 7.04883e-19 0.47089)
(-0.740765 0 0.313286)
(-0.437756 -6.41252e-19 0.116555)
(-0.0795303 -6.09704e-19 -0.0864744)
(0.256976 0 -0.239957)
(0.445845 0 -0.277131)
(0.387545 0 -0.156091)
(0.0258163 4.88383e-19 0.164417)
(-0.767225 0 0.775359)
(-2.08806 0 1.66261)
(-3.55434 8.1054e-19 2.39901)
(-4.05869 -1.55235e-18 2.26164)
(-2.97151 0 0.993547)
(0.112751 0 -1.45165)
(4.89664 0 -3.6202)
(6.64041 0 -3.04588)
(2.29915 -4.96105e-19 -0.73424)
(2.28322 9.62403e-19 -1.45694)
(2.73478 0 -1.5749)
(2.05519 0 -0.943727)
(-0.219185 -7.25229e-19 0.963818)
(-5.74157 0 4.79067)
(-12.457 -4.6903e-19 8.74082)
(-17.0481 4.22312e-19 10.7722)
(-18.2071 0 10.6183)
(-16.5243 0 8.86915)
(-12.5953 0 6.09208)
(-7.80739 0 3.27843)
(-3.4456 0 1.04909)
(-0.233823 2.16794e-18 -0.456349)
(1.7894 0 -1.33037)
(2.69175 3.91582e-18 -1.64163)
(2.85291 0 -1.63414)
(2.70792 1.43379e-22 -1.53848)
(2.68009 1.89318e-22 -1.55493)
(2.75007 0 -1.57757)
(2.34409 2.82312e-18 -1.21896)
(1.08968 0 -0.366571)
(-0.471852 0 0.515718)
(-1.33267 -4.45447e-18 0.856619)
(-1.26589 0 0.681618)
(-0.731218 0 0.327243)
(-0.237016 0 0.0565239)
(0.161194 0 -0.146065)
(0.368208 0 -0.242082)
(0.519353 0 -0.309044)
(0.500481 0 -0.282184)
(0.497818 0 -0.273645)
(0.422176 2.6883e-18 -0.229127)
(0.458248 0 -0.263073)
(0.600614 0 -0.360886)
(0.847244 0 -0.525671)
(1.28282 -4.28061e-18 -0.793022)
(1.73148 -4.0576e-18 -1.05681)
(2.25464 -3.85637e-18 -1.36777)
(2.77985 3.64054e-18 -1.65665)
(3.22055 -7.75399e-22 -1.91484)
(3.71312 -3.24238e-18 -2.17962)
(4.03901 -6.12581e-18 -2.3754)
(4.54683 0 -2.64557)
(4.68649 5.39986e-18 -2.74719)
(5.44156 5.0536e-18 -3.15364)
(5.23538 0 -3.06793)
(6.47223 4.43759e-18 -3.75715)
(5.95138 4.15573e-18 -3.50704)
(7.85248 3.8806e-18 -4.61875)
(36.3111 0 -3.95215)
(36.4613 1.78243e-20 -4.1515)
(36.728 0 -4.47205)
(36.8914 0 -4.99116)
(36.6911 2.40538e-20 -5.67871)
(35.9561 2.30628e-20 -6.4147)
(34.6282 -2.35946e-20 -7.05598)
(32.7461 7.74344e-20 -7.49164)
(30.4169 0 -7.66743)
(27.7829 3.04047e-20 -7.58377)
(24.9926 -6.3139e-20 -7.2785)
(22.1801 0 -6.8068)
(19.4513 6.87129e-20 -6.22584)
(16.8795 0 -5.58596)
(14.5078 7.21306e-20 -4.92672)
(12.3553 7.34718e-20 -4.27688)
(10.4242 7.38713e-20 -3.65523)
(8.70636 -7.38567e-20 -3.07348)
(7.18809 -1.46669e-19 -2.53793)
(5.85282 0 -2.05115)
(4.68367 1.43811e-19 -1.61283)
(3.66378 0 -1.22208)
(2.77787 0 -0.875524)
(2.01136 -1.36055e-19 -0.571398)
(1.35109 2.65594e-19 -0.305401)
(0.785304 0 -0.0750914)
(0.302891 0 0.123404)
(-0.105627 0 0.292757)
(-0.449189 -2.3775e-19 0.436309)
(-0.735795 2.30787e-19 0.556264)
(-0.972123 -2.44333e-22 0.655864)
(-1.16504 2.15867e-19 0.737041)
(-1.31974 -4.17248e-19 0.801879)
(-1.4414 2.01241e-19 0.852296)
(-1.53422 -1.94046e-19 0.890017)
(-1.60176 1.27895e-22 0.918289)
(-1.64913 0 0.93522)
(-1.67827 3.46498e-19 0.943417)
(-1.69301 3.33095e-19 0.943849)
(-1.69455 -3.19988e-19 0.940642)
(-1.68604 0 0.933078)
(-1.66925 2.94769e-19 0.921714)
(-1.64583 2.82597e-19 0.907855)
(-1.61756 2.70865e-19 0.89218)
(-1.58605 2.59491e-19 0.875857)
(-1.55339 0 0.860342)
(-1.52201 0 0.846984)
(-1.49429 -7.78295e-23 0.836676)
(-1.47152 0 0.828967)
(-1.45292 0 0.821658)
(-1.4345 -3.97179e-19 0.81)
(-1.40801 3.79541e-19 0.786763)
(-1.36039 3.62651e-19 0.741963)
(-1.27285 8.27337e-23 0.662736)
(-1.1223 -1.53403e-22 0.536387)
(-0.886587 0 0.356691)
(-0.55747 0 0.135899)
(-0.164789 1.14464e-18 -0.0874753)
(0.210692 0 -0.250154)
(0.427799 0 -0.275601)
(0.360589 -4.85652e-19 -0.1119)
(-0.0695508 0 0.294694)
(-0.995055 0 1.03886)
(-2.48235 8.09691e-19 2.05684)
(-4.05913 -7.59731e-19 2.80588)
(-4.53894 1.45383e-18 2.50184)
(-3.36507 0 0.998676)
(-0.289274 -6.78128e-19 -1.62225)
(4.11361 0 -3.52137)
(7.26137 0 -3.28364)
(2.8099 9.29305e-19 -0.811773)
(2.55851 0 -1.63599)
(2.99274 0 -1.70144)
(2.02058 0 -0.777871)
(-0.872105 0 1.70278)
(-7.1668 0 6.15213)
(-14.2513 4.39201e-19 10.2489)
(-18.5069 -5.04487e-21 11.8295)
(-19.1957 -4.63952e-19 11.1527)
(-17.229 6.306e-19 9.03717)
(-13.1251 0 6.04401)
(-8.17816 0 3.12947)
(-3.60591 0 0.850207)
(-0.14951 0 -0.701751)
(2.09798 0 -1.61498)
(3.14194 4.46945e-23 -1.93692)
(3.35398 0 -1.92038)
(3.20039 -1.6096e-18 -1.81215)
(3.13562 1.9228e-22 -1.814)
(3.13697 0 -1.7867)
(2.60823 -2.63955e-18 -1.31407)
(1.1984 0 -0.337106)
(-0.466628 2.22737e-18 0.589102)
(-1.33502 5.728e-22 0.881531)
(-1.23076 0 0.642414)
(-0.64333 0 0.245423)
(-0.107855 0 -0.0439406)
(0.330109 0 -0.260161)
(0.553935 3.2251e-18 -0.35837)
(0.729481 0 -0.432953)
(0.715897 0 -0.404743)
(0.743706 2.67551e-18 -0.412274)
(0.687209 0 -0.379564)
(0.77864 -2.36133e-18 -0.451931)
(0.966245 2.22649e-18 -0.580128)
(1.29324 0 -0.7982)
(1.7889 7.99358e-18 -1.10513)
(2.33005 1.36428e-21 -1.42269)
(2.91285 7.2007e-18 -1.77079)
(3.52947 -3.39922e-18 -2.10716)
(4.02362 -3.2228e-18 -2.39736)
(4.60062 3.02719e-18 -2.70429)
(4.97026 2.85925e-18 -2.9281)
(5.56674 2.67752e-18 -3.2413)
(5.72598 -5.04086e-18 -3.36218)
(6.60069 -4.71745e-18 -3.82664)
(6.37324 -4.42627e-18 -3.74088)
(7.76741 -4.14128e-18 -4.51195)
(7.20657 0 -4.25293)
(9.2403 0 -5.44752)
(36.0428 0 -4.0512)
(36.1222 1.98372e-20 -4.25561)
(36.3006 0 -4.52478)
(36.484 0 -4.90607)
(36.5336 0 -5.41419)
(36.3177 0 -6.01245)
(35.7326 2.79564e-20 -6.6222)
(34.7189 -2.54942e-20 -7.1525)
(33.2684 2.80942e-20 -7.52914)
(31.4192 -5.62635e-20 -7.70968)
(29.2437 5.93556e-20 -7.68414)
(26.835 0 -7.46789)
(24.2927 -6.45924e-20 -7.09215)
(21.7126 0 -6.59561)
(19.1774 -6.78073e-20 -6.01779)
(16.7512 -6.82419e-20 -5.39484)
(14.478 0 -4.75672)
(12.3836 0 -4.1267)
(10.479 6.88002e-20 -3.52148)
(8.7649 0 -2.95223)
(7.23498 0 -2.42524)
(5.87887 -1.32284e-19 -1.94423)
(4.68428 0 -1.50934)
(3.6379 0 -1.1207)
(2.72623 -1.24717e-19 -0.77568)
(1.93642 0 -0.472352)
(1.25581 0 -0.207446)
(0.673166 0 0.0222023)
(0.177136 4.46682e-19 0.219403)
(-0.241816 0 0.387356)
(-0.592656 -2.32835e-22 0.52892)
(-0.884179 -2.14519e-22 0.646875)
(-1.12329 1.95984e-19 0.743658)
(-1.31678 -1.89127e-19 0.821761)
(-1.47049 3.64573e-19 0.883294)
(-1.58986 1.75669e-19 0.930197)
(-1.67899 0 0.965816)
(-1.74347 0 0.990357)
(-1.78645 3.12634e-19 1.00461)
(-1.81222 -3.00343e-19 1.00939)
(-1.82321 0 1.00931)
(-1.82151 0 1.00456)
(-1.80997 -8.75554e-23 0.995717)
(-1.79073 -2.54384e-19 0.984096)
(-1.76583 -2.43682e-19 0.971054)
(-1.73775 -4.66492e-19 0.958233)
(-1.70925 0 0.94715)
(-1.68307 -7.52853e-23 0.93873)
(-1.66075 0 0.932327)
(-1.64176 0 0.925312)
(-1.62212 3.72785e-19 0.912266)
(-1.59338 -3.56197e-19 0.885185)
(-1.54216 0 0.833172)
(-1.44924 3.25023e-19 0.742495)
(-1.29078 -1.58144e-22 0.600048)
(-1.04327 0 0.400283)
(-0.696252 0 0.158327)
(-0.277435 -1.07368e-18 -0.0815014)
(0.131197 0 -0.248785)
(0.375653 0 -0.25677)
(0.301642 9.10925e-19 -0.0424251)
(-0.194923 0 0.459895)
(-1.24494 0 1.34219)
(-2.87331 -1.5182e-18 2.47621)
(-4.52021 7.12036e-19 3.2)
(-4.95729 -6.80735e-19 2.69862)
(-3.75611 0 0.987719)
(-0.830695 6.35375e-19 -1.70911)
(2.9006 0 -3.25677)
(7.6986 -4.58198e-19 -3.48918)
(3.31732 -4.34949e-19 -0.857359)
(2.79373 0 -1.7808)
(3.18575 0 -1.76741)
(1.86888 7.24812e-19 -0.490022)
(-1.66003 6.43655e-19 2.60569)
(-8.60324 0 7.60246)
(-15.7898 0 11.636)
(-19.4956 -7.24739e-19 12.5964)
(-19.7781 4.34168e-19 11.4233)
(-17.6588 -1.16984e-18 9.01707)
(-13.4976 0 5.87223)
(-8.47069 0 2.89845)
(-3.74392 0 0.602157)
(-0.0803689 0 -0.969355)
(2.38716 0 -1.9096)
(3.58903 2.06597e-23 -2.24013)
(3.87026 0 -2.2163)
(3.71559 0 -2.09571)
(3.60327 1.92939e-22 -2.07529)
(3.51921 0 -1.98335)
(2.86643 -2.46987e-18 -1.39266)
(1.32728 0 -0.305049)
(-0.405189 -2.08162e-18 0.638748)
(-1.26464 6.30389e-22 0.865732)
(-1.1288 0 0.560851)
(-0.497935 0 0.12603)