/*--------------------------------*- C++ -*----------------------------------*\
| =========                 |                                                 |
| \\      /  F ield         | OpenFOAM: The Open Source CFD Toolbox           |
|  \\    /   O peration     | Version:  2412                                  |
|   \\  /    A nd           | Website:  www.openfoam.com                      |
|    \\/     M anipulation  |                                                 |
\*---------------------------------------------------------------------------*/
FoamFile
{
    version     2.0;
    format      ascii;
    arch        "LSB;label=32;scalar=64";
    class       volScalarField;
    location    "1.43";
    object      p;
}
// * * * * * * * * * * * * * * * * * * * * * * * * * * * * * * * * * * * * * //

dimensions      [0 2 -2 0 0 0 0];

internalField   nonuniform List<scalar> 
12600
(
0.0297834
-154.69
-204.74
-201.466
-188.967
-177.35
-167.163
-158.05
-149.792
-142.226
-135.225
-128.693
-122.555
-116.754
-111.244
-105.988
-100.953
-96.1134
-91.4482
-86.9383
-82.5675
-78.322
-74.1897
-70.1598
-66.2231
-62.3711
-58.5965
-54.8925
-51.2532
-47.673
-44.1471
-40.6709
-37.2403
-33.8513
-30.5006
-27.1848
-23.9008
-20.6459
-17.4172
-14.2124
-11.029
-7.86486
-4.71773
-1.58573
1.53323
4.64077
7.7389
10.829
13.913
16.992
20.068
23.1418
26.2155
29.2895
32.3661
35.445
38.5292
41.6174
44.7132
47.8145
50.9254
54.0427
57.1714
60.3068
63.4551
66.6097
69.7781
72.9517
76.1393
79.3302
82.5342
85.7386
88.9541
92.1658
95.3851
98.5954
101.808
105.004
108.195
111.362
114.512
117.63
120.72
123.764
126.769
129.711
132.611
135.417
138.193
140.824
143.471
145.881
148.402
150.559
152.934
154.873
157.008
158.874
160.564
162.595
163.838
165.728
166.977
167.366
172.027
168.04
173.334
173.792
172.465
178.04
174.245
175.909
180.65
173.048
175.076
183.985
175.074
202.934
208.276
220.891
-24.0786
-123.771
-171.201
-180.798
-177.548
-170.773
-162.994
-155.199
-147.747
-140.711
-134.079
-127.812
-121.872
-116.221
-110.827
-105.661
-100.698
-95.916
-91.2971
-86.8246
-82.4845
-78.2641
-74.1524
-70.1396
-66.2169
-62.3766
-58.6117
-54.9157
-51.2829
-47.7082
-44.1868
-40.7142
-37.2865
-33.8999
-30.551
-27.2366
-23.9537
-20.6994
-17.4713
-14.2667
-11.0834
-7.9192
-4.77185
-1.63953
1.47985
4.58787
7.68656
10.7772
13.8619
16.9416
20.0184
23.0929
26.1674
29.242
32.3194
35.3991
38.484
41.573
44.6696
47.7717
50.8833
54.0014
57.1309
60.267
63.416
66.5714
69.7405
72.9148
76.1031
79.2947
82.4995
85.7045
88.9207
92.1332
95.3532
98.5642
101.777
104.974
108.166
111.333
114.485
117.603
120.694
123.739
126.745
129.688
132.588
135.395
138.172
140.804
143.452
145.863
148.385
150.543
152.918
154.859
156.993
158.862
160.551
162.584
163.828
165.716
166.974
167.348
172.024
168.041
173.313
173.797
172.453
178.033
174.255
175.889
180.656
173.075
175.049
183.99
175.043
202.836
208.217
220.852
-40.8857
-102.327
-145.108
-162.549
-165.847
-163.189
-158.022
-151.849
-145.397
-139.002
-132.801
-126.839
-121.119
-115.633
-110.364
-105.295
-100.408
-95.687
-91.1165
-86.6832
-82.3749
-78.1805
-74.0901
-70.0948
-66.1867
-62.3584
-58.6034
-54.9156
-51.2897
-47.7207
-44.2039
-40.7351
-37.3105
-33.9265
-30.5796
-27.2668
-23.9852
-20.7319
-17.5044
-14.3004
-11.1174
-7.95329
-4.80595
-1.67353
1.44604
4.55434
7.65337
10.7444
13.8295
16.9097
19.9869
23.062
26.137
29.2122
32.2902
35.3704
38.4559
41.5455
44.6426
47.7452
50.8575
53.9761
57.1061
60.2428
63.3923
66.5482
69.7179
72.8927
76.0815
79.2736
82.4789
85.6844
88.9011
92.1141
95.3346
98.5461
101.759
104.957
108.149
111.317
114.469
117.588
120.679
123.725
126.732
129.675
132.576
135.383
138.161
140.793
143.442
145.854
148.376
150.534
152.911
154.852
156.986
158.856
160.545
162.579
163.823
165.712
166.972
167.34
172.023
168.041
173.302
173.8
172.447
178.029
174.261
175.88
180.661
173.09
175.035
183.994
175.021
202.791
208.188
220.833
-48.7967
-88.5815
-123.997
-144.504
-152.696
-153.971
-151.644
-147.41
-142.247
-136.714
-131.101
-125.549
-120.125
-114.857
-109.753
-104.81
-100.022
-95.3784
-90.8703
-86.4874
-82.22
-78.0591
-73.9963
-70.0239
-66.1347
-62.3222
-58.5803
-54.9036
-51.2869
-47.7255
-44.2151
-40.7518
-37.3316
-33.9513
-30.6075
-27.2973
-24.0177
-20.7661
-17.54
-14.337
-11.1547
-7.99123
-4.84429
-1.71211
1.40735
4.51565
7.61478
10.706
13.7914
16.8718
19.9494
23.0248
26.1003
29.176
32.2544
35.3351
38.4211
41.5112
44.6089
47.712
50.8248
53.9439
57.0745
60.2117
63.3618
66.5182
69.6884
72.8638
76.0531
79.2457
82.4515
85.6576
88.8749
92.0884
95.3095
98.5215
101.735
104.934
108.126
111.295
114.448
117.567
120.659
123.705
126.713
129.656
132.558
135.366
138.145
140.777
143.427
145.839
148.363
150.521
152.899
154.84
156.975
158.847
160.535
162.57
163.815
165.702
166.969
167.325
172.022
168.04
173.285
173.804
172.436
178.024
174.268
175.863
180.668
173.109
175.012
183.998
174.989
202.711
208.144
220.802
-53.8346
-80.3186
-107.227
-126.887
-137.98
-142.718
-143.333
-141.36
-137.84
-133.471
-128.681
-123.717
-118.718
-113.763
-108.893
-104.129
-99.479
-94.944
-90.5218
-86.2077
-81.9959
-77.8803
-73.8547
-69.913
-66.0492
-62.2578
-58.5335
-54.8715
-51.2672
-47.7162
-44.2145
-40.7585
-37.3445
-33.9693
-30.6298
-27.3231
-24.0464
-20.7973
-17.5731
-14.3717
-11.1907
-8.02818
-4.88198
-1.75033
1.36878
4.47687
7.57593
10.6672
13.7527
16.8333
19.9112
22.987
26.0628
29.1389
32.2178
35.299
38.3855
41.4761
44.5744
47.678
50.7914
53.911
57.0422
60.18
63.3307
66.4876
69.6584
72.8344
76.0243
79.2175
82.4239
85.6306
88.8485
92.0626
95.2842
98.4969
101.711
104.91
108.103
111.273
114.426
117.546
120.639
123.685
126.694
129.638
132.541
135.35
138.13
140.762
143.413
145.826
148.35
150.509
152.887
154.83
156.965
158.838
160.525
162.562
163.807
165.695
166.966
167.312
172.021
168.038
173.269
173.808
172.426
178.02
174.275
175.849
180.678
173.127
174.99
184.001
174.952
202.64
208.103
220.775
-57.1088
-75.2544
-94.8616
-111.732
-123.555
-130.457
-133.487
-133.708
-132.003
-129.043
-125.312
-121.135
-116.723
-112.208
-107.671
-103.161
-98.707
-94.3254
-90.0242
-85.8065
-81.6721
-77.6193
-73.6448
-69.745
-65.9159
-62.1533
-58.4529
-54.8109
-51.2233
-47.6864
-44.1966
-40.7505
-37.3448
-33.9767
-30.6431
-27.3414
-24.0689
-20.8232
-17.602
-14.4029
-11.2239
-8.06295
-4.918
-1.78734
1.33102
4.43856
7.53725
10.6283
13.7137
16.7943
19.8724
22.9483
26.0244
29.1008
32.18
35.2616
38.3486
41.4396
44.5383
47.6425
50.7564
53.8766
57.0083
60.1466
63.2978
66.4554
69.6267
72.8033
75.9938
79.1876
82.3945
85.6018
88.8203
92.035
95.2573
98.4706
101.686
104.886
108.079
111.249
114.403
117.524
120.617
123.665
126.674
129.619
132.523
135.332
138.113
140.746
143.398
145.811
148.336
150.496
152.875
154.818
156.953
158.829
160.515
162.553
163.799
165.687
166.962
167.297
172.022
168.036
173.252
173.814
172.414
178.017
174.282
175.831
180.689
173.144
174.964
184.004
174.908
202.556
208.06
220.744
-58.7168
-71.7305
-86.0579
-99.7492
-110.82
-118.513
-123.047
-124.991
-124.942
-123.429
-120.887
-117.657
-113.984
-110.044
-105.953
-101.791
-97.6096
-93.4426
-89.3115
-85.2294
-81.2041
-77.2394
-73.3367
-69.4955
-65.7146
-61.9919
-58.3247
-54.7103
-51.1457
-47.6281
-44.1546
-40.7221
-37.3281
-33.9697
-30.6443
-27.3495
-24.0829
-20.8421
-17.6249
-14.4293
-11.2532
-8.09461
-4.95162
-1.82254
1.29455
4.4011
7.49902
10.5895
13.6745
16.7549
19.8328
22.9087
25.9849
29.0615
32.141
35.2229
38.3102
41.4016
44.5008
47.6054
50.7197
53.8404
56.9726
60.1115
63.2633
66.4214
69.5933
72.7705
75.9616
79.156
82.3636
85.5715
88.7906
92.006
95.2289
98.4429
101.659
104.859
108.053
111.224
114.379
117.501
120.594
123.643
126.653
129.599
132.503
135.313
138.095
140.729
143.382
145.795
148.322
150.482
152.862
154.806
156.942
158.818
160.504
162.544
163.79
165.678
166.958
167.281
172.022
168.032
173.234
173.82
172.401
178.014
174.289
175.813
180.704
173.16
174.935
184.007
174.856
202.468
208.017
220.713
-59.1639
-68.9301
-79.6532
-90.5015
-100.144
-107.678
-112.882
-115.935
-117.161
-116.913
-115.524
-113.287
-110.444
-107.182
-103.639
-99.9183
-96.091
-92.2086
-88.3067
-84.4099
-80.5347
-76.6922
-72.8893
-69.1301
-65.4166
-61.7495
-58.1285
-54.5526
-51.0202
-47.5295
-44.0785
-40.6651
-37.2871
-33.9422
-30.6283
-27.3431
-24.0847
-20.8508
-17.6395
-14.4488
-11.2767
-8.12161
-4.98149
-1.85479
1.26034
4.3653
7.46194
10.5514
13.6356
16.7155
19.793
22.8686
25.9447
29.0213
32.1008
35.1829
38.2704
41.3622
44.4617
47.5667
50.6814
53.8026
56.9353
60.0747
63.227
66.3857
69.5582
72.7359
75.9276
79.1226
82.3308
85.5394
88.7592
91.9752
95.1988
98.4135
101.63
104.831
108.026
111.198
114.353
117.476
120.571
123.62
126.631
129.577
132.483
135.293
138.076
140.711
143.365
145.779
148.307
150.467
152.848
154.794
156.929
158.808
160.492
162.534
163.781
165.67
166.953
167.264
172.024
168.027
173.215
173.827
172.386
178.013
174.296
175.793
180.722
173.174
174.902
184.009
174.794
202.369
207.972
220.679
-58.8974
-66.4638
-74.7021
-83.2616
-91.3496
-98.2226
-103.501
-107.122
-109.199
-109.924
-109.52
-108.206
-106.188
-103.641
-100.706
-97.4933
-94.0887
-90.556
-86.9426
-83.2837
-79.6047
-75.9242
-72.2552
-68.6069
-64.9854
-61.3949
-57.8377
-54.3151
-50.8273
-47.374
-43.9545
-40.5675
-37.2118
-33.8858
-30.5878
-27.3162
-24.0692
-20.845
-17.6418
-14.4581
-11.2919
-8.14173
-5.00576
-1.88254
1.22969
4.33224
7.4269
10.5148
13.5977
16.6765
19.7532
22.8283
25.904
28.9803
32.0597
35.1418
38.2294
41.3213
44.421
47.5263
50.6415
53.763
56.8962
60.0361
63.1889
66.3481
69.5212
72.6995
75.8918
79.0874
82.2963
85.5055
88.726
91.9427
95.167
98.3825
101.6
104.802
107.997
111.17
114.326
117.45
120.545
123.595
126.607
129.555
132.461
135.272
138.056
140.692
143.347
145.762
148.291
150.452
152.834
154.78
156.916
158.797
160.48
162.524
163.771
165.661
166.947
167.247
172.028
168.02
173.194
173.835
172.37
178.013
174.302
175.771
180.744
173.186
174.865
184.011
174.722
202.262
207.925
220.645
-58.159
-64.1371
-70.608
-77.4121
-84.088
-90.1076
-95.0966
-98.8825
-101.441
-102.84
-103.201
-102.671
-101.402
-99.5422
-97.2194
-94.5425
-91.5998
-88.4618
-85.1837
-81.8084
-78.3687
-74.8896
-71.3901
-67.8844
-64.383
-60.8935
-57.4213
-53.9703
-50.5429
-47.1407
-43.7642
-40.4137
-37.0888
-33.7889
-30.5131
-27.2603
-24.0292
-20.8186
-17.6269
-14.4529
-11.295
-8.15184
-5.0218
-1.90359
1.20444
4.30345
7.39518
10.4806
13.5615
16.6387
19.7141
22.7882
25.8631
28.9388
32.0178
35.0996
38.1871
41.279
44.3788
47.4843
50.5997
53.7216
56.8551
59.9954
63.1488
66.3085
69.4821
72.661
75.8539
79.0502
82.2597
85.4696
88.6908
91.9083
95.1334
98.3496
101.568
104.77
107.967
111.141
114.298
117.422
120.518
123.569
126.582
129.531
132.438
135.25
138.036
140.672
143.329
145.744
148.274
150.436
152.819
154.766
156.902
158.785
160.467
162.513
163.761
165.652
166.94
167.227
172.033
168.012
173.172
173.845
172.351
178.015
174.308
175.748
180.771
173.196
174.823
184.012
174.637
202.142
207.877
220.606
-57.0783
-61.8651
-67.0388
-72.5121
-78.0021
-83.1543
-87.6685
-91.3498
-94.104
-95.9153
-96.826
-96.9166
-96.2871
-95.0465
-93.3018
-91.1508
-88.6779
-85.9541
-83.0381
-79.9771
-76.809
-73.5638
-70.2652
-66.9316
-63.5775
-60.214
-56.8495
-53.4904
-50.1415
-46.8061
-43.4867
-40.1849
-36.9016
-33.6371
-30.3915
-27.1644
-23.9553
-20.7633
-17.5877
-14.4273
-11.2809
-8.14761
-5.02594
-1.91483
1.18718
4.28111
7.36857
10.4504
13.5283
16.603
19.6764
22.7488
25.8224
28.897
31.9753
35.0565
38.1436
41.2353
44.335
47.4405
50.5561
53.6782
56.812
59.9527
63.1064
66.2666
69.4407
72.6202
75.8138
79.0107
82.2209
85.4315
88.6534
91.8717
95.0976
98.3147
101.534
104.737
107.935
111.109
114.267
117.393
120.49
123.542
126.556
129.506
132.414
135.227
138.014
140.651
143.309
145.725
148.257
150.419
152.803
154.751
156.888
158.773
160.453
162.502
163.75
165.643
166.933
167.207
172.04
168.001
173.149
173.856
172.33
178.019
174.314
175.721
180.805
173.201
174.775
184.013
174.539
202.01
207.827
220.566
-55.7365
-59.6111
-63.8065
-68.2622
-72.7872
-77.1457
-81.1202
-84.5393
-87.2871
-89.3017
-90.5705
-91.1212
-91.0075
-90.2997
-89.0772
-87.4199
-85.4027
-83.0925
-80.5472
-77.8156
-74.9383
-71.9487
-68.8739
-65.7359
-62.5521
-59.3367
-56.1008
-52.8532
-49.6008
-46.3489
-43.1017
-39.8621
-36.6324
-33.4142
-30.2084
-27.0155
-23.8358
-20.6692
-17.5152
-14.3734
-11.243
-8.12326
-5.01322
-1.91206
1.1815
4.26823
7.34959
10.4263
13.4999
16.5709
19.6413
22.7112
25.7827
28.8557
31.9326
35.0128
38.0991
41.1902
44.2896
47.3949
50.5104
53.6325
56.7665
59.9075
63.0616
66.2222
69.3968
72.5768
75.771
78.9686
82.1795
85.3909
88.6136
91.8327
95.0594
98.2774
101.497
104.702
107.9
111.076
114.235
117.361
120.46
123.513
126.528
129.479
132.389
135.203
137.991
140.629
143.288
145.705
148.238
150.401
152.787
154.736
156.873
158.76
160.439
162.491
163.739
165.634
166.925
167.185
172.051
167.988
173.123
173.869
172.306
178.026
174.319
175.692
180.845
173.203
174.721
184.013
174.428
201.863
207.775
220.521
-54.1949
-57.3591
-60.7983
-64.4627
-68.2102
-71.8802
-75.3224
-78.404
-81.0151
-83.0765
-84.5444
-85.409
-85.6884
-85.4184
-84.6495
-83.4403
-81.8514
-79.9412
-77.7631
-75.3648
-72.7873
-70.0658
-67.2296
-64.3032
-61.3066
-58.2565
-55.1663
-52.0469
-48.9071
-45.754
-42.5933
-39.4294
-36.2658
-33.1052
-29.9496
-26.8004
-23.6586
-20.5248
-17.3993
-14.2821
-11.173
-8.07166
-4.97742
-1.88984
1.19207
4.26882
7.34165
10.4111
13.4785
16.5443
19.6103
22.6765
25.745
28.8154
31.8903
34.9688
38.0538
41.1439
44.2425
47.3473
50.4624
53.5844
56.7185
59.8595
63.0139
66.1748
69.3499
72.5304
75.7252
78.9234
82.1351
85.3472
88.5708
91.7907
95.0184
98.2374
101.458
104.664
107.864
111.04
114.201
117.328
120.428
123.482
126.499
129.451
132.362
135.177
137.966
140.605
143.267
145.684
148.219
150.382
152.77
154.72
156.858
158.746
160.424
162.48
163.726
165.626
166.915
167.161
172.064
167.971
173.097
173.885
172.279
178.037
174.323
175.657
180.894
173.198
174.658
184.011
174.302
201.701
207.719
220.472
-52.5008
-55.1014
-57.9434
-60.9822
-64.1029
-67.191
-70.1445
-72.8672
-75.2679
-77.2682
-78.8114
-79.8658
-80.4233
-80.4944
-80.1035
-79.2871
-78.089
-76.5556
-74.7331
-72.6645
-70.3892
-67.9421
-65.3536
-62.6497
-59.8525
-56.9804
-54.0489
-51.0708
-48.0567
-45.0151
-41.9534
-38.8771
-35.791
-32.6988
-29.6036
-26.5075
-23.4124
-20.3196
-17.2299
-14.1441
-11.0624
-7.9849
-4.91139
-1.84181
1.22453
4.28782
7.34907
10.4085
13.4674
16.5259
19.5857
22.6466
25.7107
28.7774
31.8492
34.9251
38.0081
41.0965
44.1939
47.2977
50.4121
53.5336
56.6674
59.8084
62.9629
66.124
69.2995
72.4804
75.6758
78.8746
82.087
85.3
88.5244
91.7454
94.9741
98.1941
101.416
104.623
107.824
111.002
114.163
117.292
120.394
123.449
126.467
129.42
132.333
135.15
137.941
140.581
143.244
145.662
148.199
150.363
152.751
154.703
156.841
158.732
160.408
162.468
163.713
165.617
166.904
167.135
172.08
167.951
173.068
173.902
172.249
178.047
174.326
175.627
180.952
173.188
174.587
184.008
174.162
201.523
207.659
220.416
-50.6833
-52.831
-55.1945
-57.732
-60.3446
-62.9463
-65.4679
-67.8428
-70.0005
-71.8727
-73.4016
-74.5458
-75.2815
-75.6014
-75.5102
-75.0246
-74.1714
-72.9835
-71.4968
-69.7478
-67.7716
-65.601
-63.2657
-60.7921
-58.2033
-55.5193
-52.757
-49.9308
-47.0529
-44.1335
-41.181
-38.2025
-35.2037
-32.1894
-29.1636
-26.1294
-23.0892
-20.0452
-16.9988
-13.9512
-10.9032
-7.85538
-4.80799
-1.76132
1.28498
4.33076
7.37678
10.423
13.4704
16.5191
19.5703
22.6239
25.6818
28.7432
31.8106
34.8828
37.9628
41.0486
44.144
47.2461
50.3593
53.4799
56.6131
59.7536
62.908
66.0691
69.2448
72.4261
75.622
78.8214
82.0346
85.2484
88.4737
91.6957
94.9255
98.1467
101.37
104.578
107.781
110.96
114.123
117.253
120.356
123.413
126.433
129.388
132.302
135.121
137.913
140.555
143.219
145.639
148.177
150.343
152.732
154.685
156.824
158.718
160.391
162.455
163.7
165.609
166.891
167.11
172.101
167.927
173.037
173.923
172.214
178.066
174.329
175.566
181.02
173.171
174.505
184.001
174.01
201.328
207.596
220.349
-48.7638
-50.5441
-52.5196
-54.6505
-56.8484
-59.0448
-61.1927
-63.2471
-65.1564
-66.8647
-68.32
-69.4791
-70.3111
-70.7975
-70.9302
-70.7107
-70.1503
-69.2687
-68.0906
-66.644
-64.9579
-63.0611
-60.9809
-58.7427
-56.3696
-53.882
-51.298
-48.6332
-45.901
-43.113
-40.2789
-37.4069
-34.504
-31.5759
-28.6275
-25.6628
-22.685
-19.6968
-16.7004
-13.6975
-10.6893
-7.67699
-4.66113
-1.64244
1.37911
4.40303
7.42981
10.4591
13.4918
16.5275
19.5675
22.6114
25.6608
28.715
31.7763
34.8432
37.9187
41.0009
44.0932
47.1928
50.3041
53.4231
56.5551
59.6948
62.8486
66.0095
69.1851
72.3666
75.5629
78.7628
81.9767
85.1913
88.4177
91.6407
94.8718
98.0943
101.319
104.529
107.733
110.914
114.078
117.211
120.315
123.374
126.396
129.353
132.269
135.089
137.884
140.527
143.193
145.614
148.155
150.321
152.712
154.667
156.806
158.702
160.374
162.443
163.685
165.602
166.877
167.075
172.127
167.899
173.004
173.947
172.174
178.088
174.33
175.53
181.099
173.146
174.413
183.991
173.84
201.117
207.528
220.271
-46.7594
-48.2391
-49.8968
-51.6945
-53.5509
-55.4094
-57.2372
-59.0052
-60.6765
-62.2073
-63.5535
-64.6755
-65.5407
-66.1253
-66.4135
-66.3967
-66.0745
-65.4545
-64.551
-63.3826
-61.9711
-60.3397
-58.512
-56.5109
-54.3581
-52.0738
-49.6761
-47.1813
-44.6038
-41.9561
-39.2491
-36.4921
-33.6931
-30.859
-27.9954
-25.1072
-22.1985
-19.2726
-16.3323
-13.38
-10.4172
-7.44583
-4.46663
-1.48078
1.51141
4.50912
7.51258
10.5211
13.5355
16.5549
19.5807
22.612
25.6506
28.6952
31.7482
34.808
37.8775
40.9544
44.0423
47.1383
50.2466
53.3631
56.4932
59.6314
62.7842
65.9443
69.1196
72.3009
75.4973
78.6976
81.9122
85.1275
88.3549
91.579
94.8115
98.0354
101.262
104.473
107.679
110.862
114.029
117.163
120.27
123.331
126.355
129.314
132.232
135.055
137.851
140.497
143.165
145.588
148.13
150.298
152.691
154.647
156.787
158.686
160.355
162.429
163.67
165.595
166.861
167.048
172.157
167.865
172.969
173.974
172.13
178.116
174.329
175.476
181.191
173.113
174.306
183.975
173.674
200.891
207.458
220.177
-44.6832
-45.915
-47.3101
-48.8321
-50.4055
-51.9813
-53.5366
-55.053
-56.5047
-57.8585
-59.0785
-60.1301
-60.983
-61.6121
-61.9979
-62.1261
-61.9885
-61.5833
-60.9155
-59.9952
-58.8363
-57.456
-55.8727
-54.1058
-52.1746
-50.0976
-47.8925
-45.5753
-43.1608
-40.6621
-38.0909
-35.4574
-32.7706
-30.0383
-27.2669
-24.4623
-21.6292
-18.7719
-15.8936
-12.9973
-10.0854
-7.15985
-4.22209
-1.27366
1.68481
4.65215
7.62834
10.6124
13.6048
16.6047
19.6131
22.6289
25.6538
28.6863
31.7287
34.7792
37.8406
40.9105
43.9926
47.0833
50.1874
53.3003
56.4275
59.5633
62.7142
65.8729
69.0473
72.228
75.4243
78.6246
81.8396
85.0555
88.2839
91.5091
94.7429
97.9683
101.197
104.41
107.618
110.803
113.972
117.109
120.218
123.282
126.309
129.27
132.192
135.016
137.816
140.463
143.134
145.559
148.104
150.274
152.668
154.627
156.767
158.669
160.336
162.415
163.654
165.588
166.844
167.013
172.193
167.826
172.932
174.005
172.08
178.149
174.327
175.42
181.295
173.071
174.196
183.954
173.468
200.65
207.388
220.066
-42.5454
-43.5716
-44.748
-46.0403
-47.3774
-48.7159
-50.0394
-51.3369
-52.591
-53.7767
-54.8652
-55.8279
-56.6381
-57.272
-57.7091
-57.933
-57.9307
-57.6943
-57.2216
-56.5151
-55.5819
-54.4325
-53.08
-51.5394
-49.8265
-47.9576
-45.9484
-43.8144
-41.5699
-39.2281
-36.801
-34.2996
-31.7333
-29.1108
-26.4394
-23.7258
-20.9753
-18.1929
-15.3827
-12.5483
-9.69236
-6.8177
-3.92607
-1.01948
1.9011
4.8341
7.77923
10.7352
13.7023
16.6793
19.6672
22.6646
25.673
28.6907
31.7201
34.7589
37.8102
40.871
43.9452
47.0291
50.1273
53.2351
56.3582
59.4904
62.6386
65.7949
68.9676
72.1469
75.3425
78.5424
81.7574
84.9736
88.2028
91.4289
94.6642
97.8911
101.121
104.336
107.547
110.734
113.907
117.046
120.159
123.225
126.255
129.22
132.145
134.973
137.775
140.426
143.1
145.528
148.075
150.248
152.643
154.605
156.746
158.652
160.316
162.401
163.638
165.581
166.823
166.98
172.235
167.781
172.892
174.04
172.024
178.188
174.323
175.357
181.411
173.022
174.048
183.927
173.288
200.4
207.32
219.939
-40.3543
-41.2091
-42.2023
-43.3017
-44.4402
-45.5787
-46.7049
-47.8132
-48.8919
-49.9226
-50.8824
-51.7481
-52.497
-53.1081
-53.5619
-53.8413
-53.9318
-53.8218
-53.5041
-52.9757
-52.2377
-51.2948
-50.1546
-48.8273
-47.3249
-45.6603
-43.8472
-41.8991
-39.8294
-37.6508
-35.3752
-33.0137
-30.5761
-28.0716
-25.5082
-22.8932
-20.2326
-17.5322
-14.7966
-12.03
-9.23582
-6.4173
-3.57669
-0.716503
2.16191
5.05657
7.96689
10.8912
13.8296
16.7806
19.7449
22.7209
25.7101
28.7105
31.7243
34.749
37.7878
40.8375
43.9018
46.9769
50.0676
53.1687
56.286
59.4132
62.5573
65.7101
68.8801
72.0571
75.2511
78.4498
81.6644
84.8803
88.1099
91.3366
94.5732
97.8014
101.034
104.251
107.464
110.654
113.83
116.972
120.089
123.158
126.193
129.161
132.09
134.922
137.729
140.383
143.061
145.493
148.042
150.22
152.616
154.582
156.722
158.633
160.294
162.385
163.62
165.575
166.8
166.946
172.278
167.732
172.852
174.077
171.964
178.232
174.318
175.287
181.536
172.967
173.907
183.898
173.096
200.142
207.26
219.798
-38.1167
-38.8279
-39.6668
-40.6032
-41.5739
-42.543
-43.5012
-44.4462
-45.3709
-46.2613
-47.0997
-47.8672
-48.5453
-49.1157
-49.5611
-49.8654
-50.0138
-49.9933
-49.7939
-49.4086
-48.8342
-48.0704
-47.1201
-45.9889
-44.6845
-43.2164
-41.5952
-39.8324
-37.9396
-35.9283
-33.8098
-31.5948
-29.2934
-26.9147
-24.4672
-21.9585
-19.3955
-16.7843
-14.1302
-11.438
-8.71171
-5.95505
-3.17079
-0.361952
2.46971
5.32176
8.19332
11.0823
13.9886
16.9103
19.848
22.7997
25.7669
28.7472
31.743
34.7513
37.7753
40.8115
43.864
46.9283
50.0095
53.102
56.212
59.3325
62.471
65.6188
68.7848
71.9583
75.1497
78.3461
81.5594
84.7742
88.0037
91.2303
94.4679
97.697
100.931
104.15
107.366
110.559
113.738
116.884
120.005
123.079
126.119
129.09
132.026
134.861
137.674
140.332
143.015
145.452
148.004
150.187
152.584
154.557
156.695
158.613
160.272
162.368
163.602
165.569
166.775
166.91
172.326
167.681
172.806
174.119
171.897
178.283
174.309
175.212
181.672
172.908
173.743
183.87
172.927
199.887
207.214
219.65
-35.8383
-36.4287
-37.1369
-37.935
-38.7631
-39.5881
-40.4028
-41.2072
-41.9972
-42.7625
-43.489
-44.1616
-44.7653
-45.2848
-45.7052
-46.0118
-46.1908
-46.2293
-46.1158
-45.8415
-45.3997
-44.7868
-44.0017
-43.046
-41.9234
-40.6398
-39.2028
-37.6209
-35.9036
-34.061
-32.103
-30.0395
-27.8802
-25.6341
-23.3098
-20.9151
-18.4572
-15.9426
-13.3772
-10.7664
-8.11446
-5.42584
-2.70372
0.0483533
2.82825
5.63301
8.46147
11.3111
14.1815
17.0704
19.9783
22.9027
25.8451
28.8027
31.7779
34.7673
37.7743
40.7949
43.8334
46.8848
49.9546
53.0366
56.1374
59.2495
62.3808
65.5219
68.6824
71.8509
75.0384
78.2312
81.442
84.6546
87.883
91.1087
94.3465
97.576
100.812
104.032
107.251
110.446
113.63
116.778
119.905
122.983
126.029
129.005
131.947
134.788
137.607
140.271
142.96
145.403
147.958
150.15
152.547
154.529
156.665
158.592
160.247
162.35
163.583
165.561
166.749
166.876
172.377
167.625
172.758
174.161
171.833
178.33
174.302
175.132
181.807
172.857
173.575
183.851
172.784
199.643
207.192
219.506
-33.5238
-34.0123
-34.6095
-35.2894
-35.9958
-36.6979
-37.3897
-38.073
-38.7456
-39.4
-40.0251
-40.6087
-41.1386
-41.6024
-41.9873
-42.2808
-42.4701
-42.5433
-42.4889
-42.297
-41.9594
-41.47
-40.8248
-40.022
-39.0623
-37.948
-36.6835
-35.2746
-33.7283
-32.0525
-30.2556
-28.3463
-26.3334
-24.2253
-22.0304
-19.7565
-17.4107
-15.0001
-12.5307
-10.0082
-7.43747
-4.82342
-2.16962
0.519839
3.24249
5.99485
8.77547
11.5813
14.4118
17.264
20.1386
23.0324
25.947
28.879
31.8309
34.7989
37.7865
40.7892
43.8115
46.848
49.9044
52.974
56.0638
59.1657
62.288
65.4208
68.5741
71.7359
74.918
78.1057
81.3126
84.5216
87.7477
90.9713
94.2084
97.4371
100.674
103.895
107.116
110.313
113.501
116.652
119.785
122.866
125.919
128.901
131.851
134.697
137.525
140.196
142.892
145.343
147.903
150.106
152.502
154.497
156.629
158.568
160.221
162.33
163.564
165.552
166.724
166.842
172.427
167.569
172.714
174.205
171.764
178.383
174.292
175.056
181.942
172.82
173.4
183.852
172.69
199.425
207.204
219.382
-31.1773
-31.5796
-32.0822
-32.6608
-33.2628
-33.8595
-34.4459
-35.0246
-35.5952
-36.152
-36.6862
-37.1879
-37.6473
-38.0541
-38.398
-38.6681
-38.8533
-38.9428
-38.9259
-38.7925
-38.534
-38.1427
-37.6127
-36.9402
-36.1227
-35.1601
-34.0538
-32.8067
-31.4235
-29.9096
-28.2716
-26.5165
-24.652
-22.6855
-20.6248
-18.4773
-16.2501
-13.9501
-11.5834
-9.1563
-6.67366
-4.14089
-1.56185
1.05882
3.71839
6.41281
9.14042
11.8976
14.6836
17.4951
20.3324
23.192
26.0754
28.9786
31.9044
34.8483
37.814
40.7964
43.8004
46.8197
49.8608
52.916
55.993
59.0827
62.1943
65.317
68.4616
71.615
74.79
77.9709
81.1725
84.3762
87.5986
90.8185
94.0536
97.2801
100.517
103.737
106.96
110.158
113.349
116.503
119.641
122.727
125.788
128.774
131.734
134.586
137.424
140.102
142.808
145.269
147.835
150.051
152.447
154.459
156.586
158.541
160.192
162.307
163.545
165.54
166.701
166.811
172.474
167.518
172.655
174.252
171.699
178.431
174.284
174.974
182.07
172.813
173.228
183.886
172.662
199.248
207.262
219.293
-28.8025
-29.1317
-29.5532
-30.0447
-30.5569
-31.063
-31.5586
-32.0471
-32.529
-33.0001
-33.4533
-33.8807
-34.2742
-34.6255
-34.926
-35.1667
-35.3381
-35.4306
-35.4345
-35.3404
-35.1396
-34.8239
-34.3866
-33.8221
-33.1262
-32.2965
-31.3319
-30.2331
-29.0021
-27.6423
-26.1579
-24.5544
-22.8377
-21.0143
-19.0907
-17.0739
-14.9703
-12.7867
-10.5292
-8.2039
-5.81599
-3.37115
-0.873408
1.67212
4.26251
6.89315
9.56223
12.2655
15.0022
17.7682
20.5641
23.3854
26.234
29.1051
32.0016
34.9183
37.8595
40.8188
43.8022
46.8021
49.8257
52.8644
55.9267
59.0025
62.1016
65.2124
68.3465
71.4898
74.6562
77.8286
81.0233
84.2201
87.4373
90.6517
93.8835
97.1062
100.341
103.559
106.783
109.98
113.175
116.33
119.474
122.562
125.63
128.622
131.591
134.45
137.3
139.987
142.703
145.177
147.749
149.984
152.378
154.413
156.532
158.51
160.16
162.281
163.526
165.524
166.683
166.785
172.512
167.48
172.611
174.3
171.641
178.476
174.28
174.926
182.185
172.854
173.068
183.963
172.728
199.127
207.379
219.258
-26.4025
-26.6696
-27.0216
-27.4379
-27.8724
-28.3003
-28.7176
-29.1281
-29.5329
-29.9289
-30.3105
-30.671
-31.004
-31.3026
-31.5598
-31.7682
-31.9195
-32.0057
-32.0181
-31.9482
-31.7877
-31.5287
-31.164
-30.6871
-30.0928
-29.3769
-28.5368
-27.571
-26.4793
-25.263
-23.9245
-22.4672
-20.8953
-19.2139
-17.4283
-15.5445
-13.5681
-11.5056
-9.36243
-7.14489
-4.85788
-2.50734
-0.0972982
2.3667
4.88171
7.4425
10.0473
12.6911
15.3733
18.0889
20.8387
23.6174
26.4271
29.2622
32.126
35.0122
37.9258
40.8593
43.8194
46.7974
49.8014
52.8214
55.8671
58.9268
62.0119
65.1089
68.2309
71.3623
74.5186
77.6808
80.8671
84.0552
87.2658
90.4731
93.7002
96.9172
100.15
103.364
106.587
109.782
112.978
116.133
119.281
122.371
125.447
128.442
131.422
134.287
137.15
139.845
142.574
145.062
147.642
149.899
152.291
154.357
156.467
158.473
160.124
162.25
163.509
165.503
166.675
166.769
172.535
167.465
172.562
174.349
171.597
178.514
174.287
174.851
182.288
172.962
172.93
184.107
172.927
199.08
207.57
219.291
-23.9801
-24.1944
-24.4866
-24.8378
-25.2051
-25.5652
-25.9149
-26.2578
-26.5955
-26.9259
-27.2442
-27.545
-27.823
-28.0726
-28.2881
-28.4631
-28.5911
-28.6648
-28.6769
-28.6198
-28.486
-28.268
-27.9586
-27.5512
-27.04
-26.4199
-25.6869
-24.8379
-23.8713
-22.7864
-21.5836
-20.2647
-18.8321
-17.2893
-15.6402
-13.8897
-12.0424
-10.1039
-8.07924
-5.9743
-3.79361
-1.54321
0.773099
3.14938
5.58286
8.06769
10.6023
13.1808
15.8031
18.463
21.1618
23.8931
26.6596
29.4544
32.2818
35.1338
38.0166
40.9211
43.8551
46.8084
49.7903
52.7892
55.8162
58.8578
61.927
65.0084
68.1167
71.2345
74.3791
77.5294
80.7059
83.8837
87.0864
90.2848
93.5058
96.7156
99.944
103.152
106.374
109.564
112.762
115.914
119.066
122.156
125.239
128.236
131.226
134.097
136.972
139.677
142.418
144.922
147.51
149.794
152.184
154.286
156.386
158.428
160.084
162.213
163.495
165.476
166.683
166.765
172.536
167.49
172.522
174.402
171.578
178.546
174.315
174.864
182.358
173.161
172.833
184.345
173.315
199.127
207.85
219.404
-21.5381
-21.7074
-21.9481
-22.2426
-22.5515
-22.8529
-23.1439
-23.4281
-23.7075
-23.9805
-24.2431
-24.4909
-24.7194
-24.924
-25.1001
-25.2424
-25.3454
-25.4029
-25.4088
-25.3562
-25.2386
-25.049
-24.7808
-24.4275
-23.983
-23.4419
-22.7993
-22.0514
-21.1949
-20.2279
-19.1492
-17.9589
-16.6579
-15.248
-13.7317
-12.1127
-10.3942
-8.58115
-6.67744
-4.68867
-2.61865
-0.473433
1.74371
4.0265
6.37256
8.77543
11.2339
13.7414
16.298
18.8967
21.5393
24.2182
26.9369
29.6869
32.4736
35.2875
38.1358
41.0078
43.9127
46.8381
49.7954
52.7705
55.7766
58.7978
61.8491
64.9128
68.0057
71.1081
74.2394
77.3762
80.5415
83.7074
86.9009
90.0889
93.3027
96.5036
99.7268
102.928
106.146
109.331
112.528
115.676
118.831
121.918
125.008
128.005
131.006
133.88
136.767
139.481
142.236
144.757
147.353
149.667
152.054
154.199
156.29
158.372
160.039
162.17
163.488
165.442
166.712
166.778
172.508
167.577
172.488
174.467
171.595
178.571
174.383
174.912
182.407
173.505
172.814
184.712
173.966
199.286
208.235
219.602
-19.0788
-19.2097
-19.4059
-19.6513
-19.9092
-20.1595
-20.3995
-20.6328
-20.8614
-21.0841
-21.2978
-21.4986
-21.6828
-21.8466
-21.9862
-22.0972
-22.175
-22.2144
-22.2101
-22.1563
-22.047
-21.8762
-21.6377
-21.3256
-20.9338
-20.4568
-19.8895
-19.2273
-18.4662
-17.6033
-16.636
-15.5633
-14.3843
-13.0998
-11.7105
-10.219
-8.6271
-6.93884
-5.1569
-3.28635
-1.33007
0.706042
2.81945
5.00363
7.25685
9.57207
11.9487
14.3793
16.8646
19.3964
21.9775
24.5987
27.2646
29.965
32.7067
35.4781
38.2881
41.1237
43.996
46.8903
49.8199
52.7683
55.7509
58.7491
61.7804
64.8243
67.9
70.9852
74.1015
77.223
80.3757
83.5281
86.7109
89.8873
93.0926
96.2832
99.5002
102.692
105.907
109.085
112.28
115.423
118.579
121.663
124.757
127.754
130.763
133.64
136.538
139.262
142.027
144.568
147.169
149.518
151.901
154.094
156.178
158.305
159.99
162.119
163.49
165.402
166.771
166.812
172.449
167.754
172.465
174.559
171.669
178.594
174.523
175.058
182.438
174.029
172.934
185.24
174.964
199.58
208.739
219.889
-16.6045
-16.7028
-16.8605
-17.0629
-17.2763
-17.4821
-17.6777
-17.8666
-18.051
-18.2298
-18.4005
-18.5598
-18.7045
-18.8316
-18.9377
-19.0194
-19.0727
-19.0933
-19.0765
-19.0175
-18.9109
-18.7516
-18.534
-18.2525
-17.9017
-17.476
-16.9703
-16.3799
-15.7003
-14.9278
-14.059
-13.0919
-12.0244
-10.8561
-9.58634
-8.21644
-6.74698
-5.18094
-3.51971
-1.76773
0.0732758