/*--------------------------------*- C++ -*----------------------------------*\
| =========                 |                                                 |
| \\      /  F ield         | OpenFOAM: The Open Source CFD Toolbox           |
|  \\    /   O peration     | Version:  2412                                  |
|   \\  /    A nd           | Website:  www.openfoam.com                      |
|    \\/     M anipulation  |                                                 |
\*---------------------------------------------------------------------------*/
FoamFile
{
    version     2.0;
    format      ascii;
    arch        "LSB;label=32;scalar=64";
    class       volScalarField;
    location    "0.985";
    object      Co;
}
// * * * * * * * * * * * * * * * * * * * * * * * * * * * * * * * * * * * * * //

dimensions      [0 0 0 0 0 0 0];

internalField   nonuniform List<scalar> 
12600
(
0.369123
0.150928
0.0592975
0.0260789
0.0139656
0.00857915
0.00552682
0.00355738
0.00221328
0.00127077
0.000601692
0.000353971
0.000490547
0.000668363
0.000783786
0.000858934
0.000899569
0.000915208
0.000911968
0.000893543
0.000865496
0.000829943
0.000795049
0.000757592
0.000716909
0.000673439
0.000628608
0.000584631
0.000542845
0.000502559
0.000463649
0.000426459
0.000391277
0.000358275
0.0003274
0.0002986
0.000271918
0.000247316
0.000224764
0.000204163
0.000185369
0.000168226
0.000152629
0.000138392
0.000125374
0.000113504
0.000102718
9.30213e-05
8.44455e-05
7.70259e-05
7.07865e-05
6.57043e-05
6.17054e-05
5.91704e-05
5.71868e-05
5.52153e-05
5.27145e-05
5.0124e-05
4.664e-05
4.14473e-05
3.40286e-05
2.4105e-05
1.44162e-05
1.89705e-05
3.60046e-05
5.32054e-05
7.01983e-05
8.66769e-05
0.00010149
0.000113144
0.000119588
0.000119342
0.000112906
0.00010512
9.00399e-05
6.9546e-05
4.50457e-05
2.23235e-05
2.18163e-05
3.36898e-05
3.53461e-05
3.33244e-05
2.82001e-05
1.97098e-05
1.94292e-05
2.7265e-05
3.25112e-05
3.85109e-05
4.84432e-05
7.26842e-05
0.000107506
0.00016967
0.000209576
0.000243061
0.000258767
0.000242597
0.00020201
0.000158175
7.01392e-05
3.38708e-05
2.01656e-05
1.96982e-05
2.3239e-05
2.17231e-05
3.86533e-05
4.35987e-05
4.0711e-05
6.23333e-05
0.000134961
0.000223221
0.000273102
0.000276604
0.000257786
0.000229396
0.000188694
0.000128674
6.55496e-05
2.38256e-05
1.8204e-05
1.71221e-05
0.594466
0.382079
0.221393
0.126301
0.0755888
0.0482137
0.0322284
0.0220548
0.0151666
0.0103188
0.00682711
0.00427198
0.00239116
0.00115425
0.00105876
0.00157278
0.00192211
0.00215082
0.0022865
0.00234748
0.00235677
0.00232267
0.0022648
0.00218573
0.00210669
0.00201567
0.00191309
0.00180433
0.00169428
0.00158337
0.00147304
0.00136507
0.00126069
0.001161
0.00106642
0.000977124
0.000893496
0.000815605
0.000743578
0.000677342
0.000616584
0.000560889
0.000510034
0.000463471
0.000420729
0.000381607
0.000345889
0.000313575
0.000284777
0.00025962
0.000238223
0.000220574
0.000206501
0.000198153
0.00019154
0.000184481
0.000175103
0.000167335
0.000157146
0.000141955
0.000119917
8.98277e-05
6.0738e-05
7.75079e-05
0.000134062
0.000190219
0.000244942
0.00029722
0.000343037
0.000377559
0.00039419
0.000388566
0.000363826
0.000348153
0.000307897
0.00024816
0.000170759
9.47785e-05
9.0201e-05
0.000121653
0.00011654
0.000109898
0.000100694
8.15918e-05
8.02263e-05
9.95177e-05
0.000111609
0.000124499
0.000155995
0.000237426
0.000357466
0.000572225
0.000680709
0.000787054
0.000831678
0.000777991
0.000696181
0.000637756
0.000293839
0.00011622
7.14887e-05
8.10434e-05
9.85241e-05
7.57931e-05
0.000140597
0.000137317
0.000136627
0.000272208
0.000559378
0.000810446
0.000904487
0.000850687
0.000784478
0.000701726
0.000595364
0.000429717
0.000225001
7.00547e-05
6.40714e-05
6.5614e-05
0.661887
0.531644
0.380776
0.25689
0.170753
0.115114
0.0794982
0.0560343
0.0399555
0.0285561
0.0202665
0.0141298
0.00953477
0.00606558
0.00349386
0.00197171
0.00194325
0.00254996
0.00296379
0.00321989
0.00336356
0.00341373
0.00339676
0.00332787
0.00323638
0.00312625
0.00302374
0.00289685
0.00275492
0.00260192
0.00244291
0.00228199
0.00212206
0.00196598
0.00181542
0.00167119
0.00153444
0.00140566
0.00128544
0.00117411
0.00107142
0.000976794
0.0008901
0.000810494
0.000737125
0.000669674
0.000607724
0.000551234
0.000500402
0.00045548
0.000416771
0.0003844
0.000358274
0.000344093
0.000332863
0.000319779
0.000301528
0.000291035
0.000277446
0.000256796
0.000225544
0.000180822
0.000136959
0.000169506
0.000268143
0.000364102
0.00045625
0.000542992
0.000616669
0.000668679
0.00068732
0.000665989
0.000611811
0.000606605
0.000558055
0.000473385
0.000348848
0.00021506
0.000199053
0.000234242
0.000200853
0.000192578
0.00019717
0.000182515
0.000174091
0.000190984
0.000200287
0.000211221
0.000268706
0.000422975
0.000649209
0.00105494
0.0012
0.00137386
0.00143256
0.00128929
0.00125331
0.00136887
0.000669307
0.000215669
0.000137546
0.000182005
0.000219824
0.00013798
0.000274338
0.000226472
0.000272734
0.000630737
0.00120053
0.00155479
0.00158482
0.00137408
0.00127924
0.00116165
0.00102776
0.000791897
0.000432429
0.000115938
0.000128073
0.000138846
0.662241
0.600576
0.494975
0.380638
0.280679
0.2033
0.14709
0.107129
0.078583
0.057867
0.0425735
0.0311148
0.0224337
0.0158005
0.0107505
0.00685473
0.00387686
0.00256017
0.00287629
0.00345931
0.00384735
0.00407224
0.0041749
0.00418446
0.00412444
0.00401821
0.00389848
0.00380078
0.00367421
0.00351802
0.0033408
0.00315107
0.00295434
0.00275631
0.00256082
0.00236993
0.00218607
0.00201057
0.00184492
0.0016902
0.0015465
0.00141328
0.00129071
0.00117778
0.00107322
0.000976641
0.00088739
0.000805359
0.00073085
0.000664288
0.000606254
0.000557136
0.000517053
0.000496515
0.0004805
0.00046036
0.000432643
0.000421378
0.000407547
0.000385723
0.00035032
0.000296119
0.000241026
0.000291659
0.000433958
0.000569845
0.00069859
0.000818181
0.000916845
0.000981933
0.000996175
0.000951041
0.000853845
0.000876308
0.000836309
0.000741937
0.000577836
0.00038088
0.00034418
0.000367306
0.000285272
0.000280566
0.000315084
0.000318688
0.000297958
0.000298146
0.000292629
0.000290347
0.000377156
0.000616263
0.00096632
0.00159164
0.00175198
0.00198822
0.00205002
0.00173087
0.00183547
0.00231953
0.00119522
0.000309559
0.000211477
0.000320219
0.000383057
0.000207548
0.00042958
0.000297019
0.000463051
0.00113827
0.00202631
0.00239933
0.00225727
0.00181091
0.00173702
0.00159663
0.00146464
0.00119088
0.000673121
0.000157571
0.000201942
0.000231541
0.63889
0.613638
0.553276
0.469522
0.379662
0.296944
0.227823
0.173265
0.131392
0.0995507
0.0753118
0.056758
0.042467
0.031394
0.0228111
0.0161175
0.0109081
0.00686463
0.00376838
0.00293216
0.00369846
0.00420948
0.00452482
0.00468785
0.00473362
0.00468906
0.00457798
0.00446775
0.00437381
0.0042645
0.00411235
0.00392745
0.00372055
0.00350152
0.00327752
0.00305266
0.00283136
0.00261635
0.00241049
0.00221613
0.00203405
0.00186394
0.00170657
0.00156092
0.00142537
0.00129949
0.0011824
0.00107393
0.000974501
0.000884772
0.000805698
0.000738063
0.000682323
0.00065434
0.000633204
0.000604866
0.000568471
0.000557801
0.000546606
0.000527582
0.000492786
0.000434041
0.000370499
0.000440321
0.000626983
0.000802052
0.000965705
0.00111587
0.00123646
0.00131075
0.00131558
0.00124072
0.0010843
0.00115032
0.00113587
0.00104848
0.000854908
0.000595677
0.00052703
0.000516573
0.000366595
0.000371775
0.000450926
0.000485764
0.000448274
0.000417147
0.000382354
0.000353745
0.000471747
0.000804909
0.00129164
0.00215296
0.00232118
0.0026107
0.00266162
0.00210486
0.00239338
0.00344753
0.0018698
0.000375653
0.000287476
0.000492072
0.000583395
0.000283533
0.000595703
0.000334337
0.00078696
0.00185362
0.00299492
0.00328247
0.00286886
0.00213741
0.00215495
0.00200011
0.0018917
0.0016075
0.000936914
0.000193884
0.000279832
0.000339293
0.61186
0.598986
0.567906
0.515857
0.449045
0.376913
0.307687
0.246302
0.194616
0.152473
0.118727
0.0919395
0.070747
0.0539861
0.0407462
0.0302716
0.0219949
0.0154688
0.0103329
0.00633234
0.00395272
0.00371917
0.00435853
0.00476803
0.00499693
0.00508517
0.00506521
0.00496587
0.0048603
0.00477111
0.00469427
0.00456097
0.0043799
0.00416836
0.0039384
0.00369728
0.0034523
0.00320835
0.00297025
0.00274219
0.00252613
0.00232228
0.00213234
0.00195552
0.00178994
0.0016352
0.00149027
0.00135492
0.00122974
0.00111567
0.00101413
0.000926446
0.000853552
0.000816407
0.000789656
0.000751923
0.000708379
0.000699857
0.000693925
0.000681326
0.000651525
0.00059287
0.000522602
0.00061129
0.000842171
0.00105495
0.00125124
0.00142937
0.00156896
0.0016494
0.00164133
0.00153298
0.0013109
0.00142233
0.00144986
0.00138713
0.00117661
0.000862768
0.000749297
0.000677785
0.000442248
0.000463915
0.000600867
0.000678705
0.000620531
0.000543551
0.000463048
0.000393876
0.000544589
0.000978893
0.00161182
0.00271123
0.00289735
0.00322667
0.00324115
0.00252121
0.00287248
0.00469968
0.002688
0.000391915
0.000360169
0.00069244
0.000815943
0.000364316
0.000761256
0.000366711
0.00121381
0.00272873
0.00405673
0.00414142
0.00337636
0.00234756
0.0025294
0.00236694
0.00229917
0.00202751
0.00121562
0.00022409
0.00035697
0.000458014
0.588144
0.576374
0.55845
0.528246
0.484562
0.430724
0.372169
0.31399
0.259842
0.211785
0.170565
0.136035
0.107564
0.0843215
0.065483
0.0502749
0.0380428
0.0282398
0.0204082
0.0141952
0.00928323
0.00543609
0.00389916
0.00433039
0.00483659
0.00513574
0.00527322
0.0052871
0.00520679
0.00510135
0.00501666
0.00498524
0.00488002
0.00471442
0.00450902
0.00427577
0.00402611
0.00376802
0.00350909
0.00325609
0.0030127
0.00278008
0.00256127
0.002356
0.0021623
0.00197996
0.00180788
0.00164578
0.0014945
0.00135533
0.00123027
0.00112128
0.00102996
0.000981258
0.000948279
0.000899921
0.000851838
0.000846858
0.000848549
0.000845667
0.000824889
0.000770678
0.000694205
0.000799813
0.00107399
0.00132242
0.00154859
0.00175179
0.00190759
0.00199178
0.00196866
0.00182507
0.00154117
0.00168493
0.00177021
0.00175064
0.00153834
0.00117628
0.00100418
0.000846762
0.000510105
0.00055399
0.000760511
0.000891817
0.000809538
0.00067242
0.000528324
0.000403868
0.000589217
0.00112987
0.00191649
0.00323874
0.00347295
0.00382266
0.00375942
0.00300046
0.0032184
0.0060117
0.00363976
0.000337266
0.000425103
0.000914539
0.00107511
0.000447459
0.000914299
0.000451124
0.00174767
0.00373942
0.00515607
0.00491913
0.00375464
0.00256088
0.00286125
0.00269802
0.00268294
0.0024423
0.00150576
0.00025003
0.000430296
0.000584385
0.568275
0.554775
0.540439
0.521117
0.493509
0.456959
0.413281
0.365442
0.316526
0.269146
0.225191
0.185792
0.151418
0.122041
0.0973319
0.0767873
0.0598579
0.0460094
0.0347477
0.0256545
0.0183515
0.012531
0.00793024
0.00483579
0.00415317
0.00476026
0.00513493
0.00532813
0.00538048
0.00532471
0.00521465
0.00514051
0.00515462
0.00508683
0.00494676
0.00475368
0.00452489
0.00427278
0.00400872
0.00374295
0.00348167
0.00322749
0.00298526
0.00275571
0.00253699
0.00232926
0.00213149
0.00194346
0.00176631
0.00160177
0.00145254
0.00132135
0.00121061
0.00114725
0.00110734
0.00104715
0.000998191
0.000997991
0.00100938
0.00101915
0.00101104
0.000965344
0.000881861
0.0010006
0.00131647
0.00159803
0.00185101
0.00207632
0.00224578
0.00233205
0.00229304
0.00211434
0.00177134
0.00193072
0.0020881
0.00213048
0.00193406
0.00153344
0.00128822
0.00101963
0.000568823
0.000638626
0.000925099
0.00111885
0.00100946
0.000798412
0.000571978
0.000410486
0.000601378
0.00125199
0.0021994
0.00371144
0.00404394
0.00438852
0.00419312
0.00348172
0.00338697
0.00730936
0.00473722
0.00021969
0.000478927
0.00114989
0.00135472
0.000529755
0.00104217
0.000593899
0.00238741
0.00485402
0.00623524
0.00557066
0.0039989
0.00281193
0.00315235
0.00299572
0.00304172
0.00284685
0.00180639
0.000274523
0.000497615
0.000715612
0.551028
0.536188
0.521901
0.50642
0.487198
0.462453
0.431837
0.396147
0.356877
0.315811
0.274717
0.235129
0.198233
0.164807
0.135251
0.10963
0.0877811
0.0693929
0.0540821
0.0414579
0.0311332
0.0227596
0.0160257
0.0106597
0.00642729
0.00443302
0.00456247
0.00501797
0.00527069
0.00536558
0.00534089
0.00522621
0.00519121
0.00521966
0.00519732
0.00508768
0.0049138
0.00469455
0.0044465
0.00418451
0.00391826
0.00365249
0.00339452
0.00314663
0.0029074
0.00267767
0.00245665
0.00224432
0.00204223
0.00185265
0.00167907
0.00152517
0.00139432
0.00131255
0.00126496
0.00119186
0.00114663
0.00115229
0.00117518
0.00120015
0.00120799
0.00117458
0.00108401
0.00120974
0.00156329
0.00187521
0.00215182
0.00239634
0.00257724
0.0026646
0.00260996
0.00239787
0.00199835
0.00215221
0.00239406
0.00251676
0.00235609
0.0019301
0.00159749
0.00119295
0.000617926
0.000714052
0.00108957
0.00135313
0.00121395
0.00091586
0.000588262
0.000458755
0.000579083
0.00134171
0.0024576
0.0041115
0.00460806
0.00491384
0.00453284
0.00395741
0.00335494
0.00851187
0.00602572
0.000218071
0.000519807
0.00138852
0.00164786
0.000607494
0.00113198
0.000785274
0.00312621
0.00603372
0.00723795
0.0060698
0.00412566
0.0030366
0.00340787
0.00326529
0.00337664
0.00323803
0.00211843
0.000302016
0.0005578
0.00084957
0.535513
0.520108
0.505322
0.49069
0.474829
0.456342
0.434345
0.408524
0.379096
0.346709
0.312304
0.276975
0.24184
0.207936
0.17613
0.147055
0.121085
0.0983508
0.0787875
0.0622001
0.0483102
0.036809
0.0273838
0.019737
0.0135961
0.00871736
0.00523384
0.00426112
0.00480149
0.00511799
0.00526203
0.00527248
0.00518572
0.00515807
0.00519463
0.00522154
0.00514866
0.00499808
0.00479414
0.00455801
0.00430418
0.00404033
0.00377709
0.00351903
0.00326561
0.0030187
0.00277808
0.00254407
0.00231878
0.00210516
0.00190765
0.00173098
0.00157969
0.00147515
0.00141918
0.00133227
0.0012962
0.00130862
0.00134451
0.00138689
0.00141357
0.00139597
0.00131509
0.00143948
0.0018079
0.00214733
0.00244449
0.00270556
0.0028961
0.0029842
0.00291515
0.00267265
0.00222103
0.00234227
0.00267829
0.00289834
0.00279486
0.00236043
0.00192753
0.0013639
0.000657929
0.000776232
0.00124866
0.00158773
0.00141635
0.00101896
0.000572057
0.000540687
0.000522877
0.00139774
0.00269052
0.00443134
0.00516329
0.00538526
0.00479133
0.00441982
0.00343891
0.00953734
0.00741723
0.000446143
0.000547338
0.00161928
0.00194707
0.000676973
0.00117077
0.00103269
0.00395173
0.00723543
0.00811568
0.00641351
0.00416612
0.0032395
0.0036323
0.00351071
0.00368897
0.00361194
0.00244125
0.000336584
0.000610216
0.000984637
0.521359
0.505805
0.490759
0.476197
0.461426
0.445654
0.428229
0.408658
0.386635
0.362098
0.335233
0.306444
0.276313
0.245554
0.214954
0.185305
0.157317
0.131551
0.108373
0.0879561
0.070297
0.0552666
0.0426535
0.0322032
0.0236476
0.0167236
0.0111847
0.0068065
0.00457431
0.00449842
0.00488645
0.00508311
0.00513651
0.00508361
0.00505392
0.00508846
0.00517006
0.00513732
0.00501528
0.00483464
0.00461646
0.00437265
0.0041182
0.00386101
0.00360198
0.00334454
0.00308943
0.00283756
0.00259184
0.00235601
0.00213564
0.00193671
0.0017651
0.00163305
0.00156815
0.00147031
0.0014458
0.00146572
0.00151583
0.00157744
0.00162551
0.00162697
0.00155917
0.00167309
0.00204365
0.00240788
0.00272278
0.00299815
0.00319706
0.00328614
0.00320464
0.0029356
0.00243773
0.00249448
0.00293109
0.00326307
0.0032389
0.00281658
0.00227321
0.00153037
0.000690363
0.000820968
0.00139708
0.00181567
0.00160987
0.00110192
0.0005191
0.000633545
0.000435823
0.00142065
0.0028988
0.00467637
0.00570516
0.0057844
0.00500614
0.00485971
0.00384694
0.0103091
0.00887323
0.000858813
0.000562396
0.00183051
0.00224458
0.000735208
0.00114613
0.00139003
0.00489146
0.00841515
0.00883315
0.00662034
0.00415859
0.00342825
0.00383074
0.00373548
0.00398076
0.00396374
0.00277045
0.000380602
0.000654365
0.00111964
0.508391
0.492841
0.477749
0.463207
0.448812
0.434125
0.418808
0.402541
0.385013
0.365966
0.345236
0.322777
0.298668
0.273126
0.246522
0.219365
0.19227
0.165896
0.140869
0.117714
0.0967954
0.0783086
0.0622885
0.0486456
0.0372068
0.0277505
0.0200358
0.013821
0.00887701
0.00525
0.00412273
0.00458537
0.0048428
0.00494554
0.00492802
0.00489029
0.00491197
0.00505088
0.00506259
0.00497708
0.00482564
0.00462609
0.00439927
0.00415772
0.00390463
0.00364565
0.00338304
0.00311868
0.0028565
0.00260132
0.00235998
0.00213995
0.00194856
0.0017935
0.00170998
0.00161292
0.00159422
0.00162214
0.00168739
0.00176974
0.0018414
0.00186494
0.00181387
0.00190588
0.00226398
0.00265061
0.00298088
0.00326884
0.0034754
0.00356625
0.00347481
0.00318366
0.00264629
0.00260362
0.00314344
0.00359817
0.0036748
0.00328829
0.0026283
0.00169106
0.000717728
0.000844019
0.00152957
0.00203009
0.00178782
0.00115914
0.000508147
0.000735968
0.000323053
0.00141225
0.00308368
0.00486466
0.00622345
0.00609105
0.00523406
0.00525846
0.00434537
0.0107635
0.0103503
0.00142166
0.000626278
0.00201049
0.00253269
0.000780725
0.00104681
0.00191397
0.00597236
0.00952643
0.00937117
0.00672369
0.00413756
0.00361029
0.00400705
0.00394091
0.00425465
0.00428943
0.00309717
0.000452964
0.000712046
0.00125367
0.49647
0.48098
0.46594
0.451478
0.437301
0.423128
0.408787
0.394129
0.378978
0.363136
0.346415
0.328642
0.309669
0.2894
0.26782
0.245034
0.221294
0.196997
0.17266
0.148872
0.126212
0.105185
0.0861562
0.0693318
0.0547655
0.0423881
0.0320455
0.0235334
0.0166259
0.0110984
0.00673382
0.00442269
0.00422584
0.00455278
0.00470564
0.00473132
0.0046739
0.00474108
0.00487394
0.0049355
0.00489312
0.0047704
0.00459643
0.00439033
0.00415863
0.00391019
0.00364952
0.00337998
0.00310692
0.00283647
0.00257707
0.00233785
0.00212799
0.00195675
0.00184301
0.0017579
0.00173997
0.00177628
0.00185735
0.0019616
0.00205873
0.0021072
0.00207649
0.00213326
0.00246254
0.00286966
0.00321353
0.00351298
0.0037271
0.00382096
0.00372248
0.00341384
0.00284405
0.00266581
0.00330752
0.00389102
0.00408757
0.0037627
0.00302924
0.0018866
0.000743333
0.000841246
0.00164105
0.0022245
0.00194377
0.00118541
0.000569054
0.000845448
0.000191119
0.00137491
0.00324716
0.0050216
0.00669962
0.0062927
0.00553659
0.00557878
0.0047666
0.0108507
0.0118016
0.00209271
0.000732005
0.00216305
0.00280404
0.000814232
0.000863486
0.00252238
0.00709302
0.0105271
0.00973198
0.00676355
0.00412841
0.00379318
0.0041669
0.00412767
0.00451488
0.0045897
0.00341207
0.00052728
0.000766081
0.00138605
0.485482
0.470081
0.455131
0.440777
0.426789
0.412948
0.399151
0.385332
0.371409
0.357277
0.342826
0.327934
0.312454
0.296217
0.279049
0.260807
0.241419
0.220927
0.199514
0.177513
0.155389
0.133691
0.112976
0.0937376
0.0763385
0.0609873
0.0477413
0.0365363
0.0272236
0.0196085
0.0134738
0.00860458
0.00499866
0.00381779
0.00421508
0.00442755
0.00450394
0.00447712
0.00453745
0.00464621
0.00476575
0.00476497
0.00467817
0.00453428
0.00434479
0.00412311
0.0038771
0.00361226
0.00333591
0.00305592
0.0027826
0.0025271
0.00230063
0.00211444
0.00197861
0.00189854
0.00188146
0.00192634
0.00202363
0.00215066
0.0022749
0.00235094
0.00234425
0.00235101
0.00263344
0.00305968
0.00341605
0.00372654
0.00394872
0.00404726
0.00394483
0.00362323
0.00302819
0.00267907
0.00341733
0.00412996
0.00446122
0.0042244
0.00350604
0.00215243
0.000771054
0.000808793
0.00172675
0.00239286
0.0020717
0.0011761
0.000648542
0.000958466
6.99087e-05
0.00133255
0.00339262
0.00517071
0.00710769
0.00639674
0.00596039
0.00576173
0.00506426
0.0105365
0.0131787
0.00285145
0.00092315
0.0023243
0.00305171
0.000838937
0.000589396
0.00320571
0.00822009
0.0113822
0.00993373
0.00677688
0.0041436
0.00398038
0.00431807
0.00429588
0.00476609
0.00487137
0.00371193
0.00059951
0.000816816
0.00151621
0.475332
0.460033
0.44519
0.43095
0.417131
0.40355
0.390129
0.376834
0.36362
0.350434
0.337222
0.323933
0.310493
0.296796
0.282689
0.267988
0.252495
0.236038
0.218513
0.199922
0.180411
0.160277
0.139961
0.119993
0.100919
0.0832263
0.0672716
0.053256
0.0412287
0.0311206
0.0227813
0.0160171
0.0106211
0.00638174
0.00409682
0.00383794
0.00412004
0.00424776
0.00426554
0.00429937
0.00437839
0.00455366
0.00460179
0.00455672
0.00443773
0.00426478
0.0040506
0.00380383
0.00353452
0.0032528
0.00297134
0.00270369
0.00246341
0.00226421
0.00211742
0.00203264
0.00201677
0.00207029
0.00218399
0.00233441
0.00248714
0.00259327
0.00261422
0.00255549
0.00277131
0.00321588
0.00358439
0.00390607
0.00413738
0.00424259
0.0041394
0.0038091
0.00319515
0.00264258
0.00346905
0.00430523
0.00477973
0.00465561
0.00398631
0.00242896
0.000805007
0.000743334
0.00178236
0.0025297
0.00216602
0.00112734
0.000735889
0.00113317
0.000117164
0.00135332
0.00354422
0.00532512
0.00742063
0.00643439
0.00651905
0.00574146
0.00522138
0.00981167
0.0144339
0.00368153
0.00115809
0.00244566
0.00326917
0.000860377
0.000579296
0.00395064
0.00932062
0.0120694
0.0100062
0.00679113
0.00418504
0.00417041
0.00447149
0.00444654
0.00501118
0.00514312
0.00400259
0.000672764
0.000866154
0.00164373
0.465939
0.450746
0.436015
0.421888
0.40822
0.394853
0.381723
0.368807
0.356075
0.343488
0.331015
0.318636
0.306331
0.294063
0.281762
0.269311
0.256547
0.243269
0.229265
0.214349
0.198394
0.181382
0.163437
0.144845
0.126035
0.107531
0.0898787
0.0735561
0.0589103
0.0461268
0.0352391
0.0261644
0.0187484
0.0127937
0.00809468
0.00460522
0.00342871
0.00378016
0.00396756
0.00403406
0.00402834
0.00413302
0.00430878
0.00441208
0.00440291
0.00430878
0.00414984
0.00393931
0.0036911
0.00341837
0.00313672
0.00286267
0.00261256
0.00240289
0.00224757
0.00215818
0.0021437
0.00220581
0.0023359
0.00251008
0.00269248
0.0028311
0.0028833
0.00280352
0.0029295
0.00333405
0.00371508
0.00404863
0.00429063
0.00440479
0.00430402
0.00396888
0.00334223
0.00255802
0.00346131
0.00441003
0.00502834
0.00503687
0.00445395
0.00271099
0.00084922
0.000642371
0.00180415
0.00263013
0.00222172
0.00103624
0.000829843
0.00133833
0.000256843
0.0014459
0.00376847
0.00548379
0.00762011
0.00644891
0.00718402
0.00548316
0.00526849
0.00871058
0.0155234
0.00456244
0.00143659
0.00252092
0.00344978
0.000885758
0.000899812
0.00474063
0.010363
0.0125757
0.00998471
0.00682098
0.00424642
0.00435435
0.0046385
0.00458188
0.00524833
0.0054071
0.00429218
0.00075674
0.000917408
0.00176838
0.457229
0.442144
0.427524
0.413507
0.399974
0.386788
0.373893
0.361271
0.3489
0.336746
0.32478
0.312988
0.301365
0.289909
0.278606
0.267414
0.256255
0.244999
0.233473
0.22147
0.20877
0.19517
0.180536
0.16484
0.148201
0.130902
0.113372
0.0961373
0.0797434
0.0646625
0.0512254
0.0395945
0.0297826
0.0216886
0.0151457
0.00995819
0.00591456
0.0037062
0.00341293
0.00366782
0.00377778
0.00378829
0.00388935
0.00403885
0.00419096
0.00421822
0.00414699
0.00399781
0.00379003
0.003541
0.00327015
0.00299766
0.00274327
0.00252681
0.00236512
0.00227233
0.00225961
0.00233019
0.00247646
0.00267455
0.00288765
0.00306104
0.00314811
0.00310001
0.00311428
0.00341058
0.00380522
0.00415168
0.00440632
0.00453191
0.00443675
0.00410025
0.00346562
0.00253364
0.00339671
0.00444121
0.00519505
0.00534822
0.00488966
0.00312803
0.0010327
0.00050478
0.00178934
0.00268992
0.0022344
0.000901039
0.000928525
0.00153287
0.000412936
0.00152982
0.00398971
0.00563375
0.00770416
0.00647731
0.00789251
0.00502549
0.00528101
0.00732949
0.0164117
0.00547143
0.00175675
0.00254611
0.00358633
0.000923003
0.00133063
0.00559712
0.0113182
0.012899
0.00990448
0.00686976
0.00431814
0.00451786
0.00482797
0.00470619
0.00547066
0.00565539
0.0045799
0.000859855
0.000975694
0.00189033
0.449141
0.43416
0.41965
0.405738
0.392326
0.379296
0.366595
0.354211
0.342123
0.330302
0.318721
0.307359
0.296211
0.285279
0.274568
0.264076
0.253784
0.243643
0.233562
0.223405
0.212994
0.202115
0.19054
0.178062
0.164543
0.149955
0.13442
0.118223
0.101801
0.0856898
0.0704354
0.0565011
0.0441976
0.0336587
0.0248676
0.0177054
0.0119882
0.0075139
0.00417571
0.0030218
0.00333866
0.00350423
0.00355859
0.00362241
0.00373681
0.00393975
0.00400253
0.00394991
0.00380951
0.00360466
0.00335991
0.00310012
0.00284923
0.00263115
0.00246631
0.00237175
0.00236129
0.00244017
0.00260227
0.00282429
0.00306895
0.00327932
0.0034049
0.00339297
0.00327831
0.00344247
0.00385238
0.00421301
0.00448251
0.00462225
0.00453588
0.0042013
0.00356377
0.00259648
0.00327802
0.0043997
0.00527224
0.00557093
0.00527129
0.00354852
0.00123953
0.000331042
0.00173624
0.0027056
0.00220037
0.000721276
0.00113077
0.00180386
0.000570931
0.00160704
0.0042099
0.00575548
0.00768697
0.00653563
0.00856691
0.00448836
0.00534586
0.00581968
0.0170723
0.00638444
0.00211401
0.00251863
0.00367085
0.000979773
0.00191587
0.00655982
0.0121613
0.0130479
0.0097964
0.00693291
0.00439059
0.00464364
0.0050431
0.00482588
0.00566911
0.00587642
0.00485323
0.000982884
0.00104835
0.00201017
0.441623
0.426741
0.412337
0.398524
0.385221
0.372325
0.35979
0.347601
0.335741
0.324186
0.312908
0.301884
0.291104
0.280563
0.270265
0.260216
0.250422
0.240877
0.231553
0.222394
0.213301
0.204137
0.194715
0.184815
0.174207
0.162686
0.150116
0.136473
0.121883
0.106642
0.0911997
0.076102
0.0618991
0.049043
0.0378159
0.0283192
0.0205009
0.0142161
0.00927425
0.00545899
0.00332602
0.00298607
0.00321496
0.00330516
0.00333304
0.00346702
0.00365943
0.00375251
0.00371806
0.00358641
0.00338936
0.00315801
0.00292165
0.00270933
0.00254591
0.00245201
0.0024447
0.0025318
0.00270929
0.00295509
0.0032321
0.00348158
0.00364938
0.00367851
0.00355506
0.00355868
0.0038544
0.00423073
0.00451748
0.00467431
0.0046
0.0042706
0.00363405
0.00265648
0.00311161
0.00429023
0.00525791
0.00568976
0.00557495
0.00395152
0.0015495
0.000206125
0.00164477
0.00267451
0.00211687
0.000497746
0.00135756
0.00207367
0.000732304
0.00168209
0.00442668
0.00582811
0.0075907
0.00661899
0.00913282
0.00402031
0.00551468
0.00434565
0.0174927
0.00727855
0.00250108
0.0024369
0.00369483
0.00106288
0.00255314
0.00752179
0.0128722
0.0130409
0.00968556
0.00700309
0.00445785
0.00471707
0.0052807
0.00494957
0.00583709
0.00606416
0.00509593
0.00117112
0.00119511
0.00212881
0.434625
0.419838
0.405533
0.391813
0.37861
0.365833
0.353439
0.341414
0.329743
0.318404
0.30737
0.296618
0.286134
0.275907
0.265935
0.25622
0.246768
0.237587
0.228677
0.220027
0.211603
0.203342
0.195144
0.186862
0.178306
0.169255
0.159481
0.148783
0.137029
0.1242
0.110433
0.0960357
0.0814751
0.0673115
0.054097
0.0422687
0.0320746
0.0235721
0.0166772
0.0112146
0.00697771
0.00376886
0.00261303
0.00289623
0.00303935
0.00308145
0.00320767
0.00334415
0.00346833
0.00345206
0.00333406
0.0031539
0.00294803
0.00275213
0.00259688
0.00250731
0.00250469
0.00260013
0.00279261
0.00306197
0.00337199
0.00366269
0.00387652
0.0039519
0.00386895
0.00369273
0.00380926
0.00420319
0.0045097
0.00468687
0.00462818
0.00430738
0.00367527
0.00269057
0.00290354
0.00412057
0.00515613
0.00569526
0.0057771
0.00431487
0.00188566
0.000174061
0.0015335
0.00260156
0.00198233
0.000274052
0.00162319
0.0023204
0.000899298
0.00176107
0.0046336
0.00583296
0.0074351
0.00670841
0.00952247
0.00372713
0.00578057
0.00371731
0.0176646
0.00813144
0.00290792
0.00230007
0.0036497
0.00117792
0.00322937
0.00845894
0.0134367
0.0129052
0.00959065
0.00707384
0.00451854
0.00472988
0.00553227
0.00508762
0.00597372
0.0062205
0.00529568
0.00137939
0.00139254
0.00224694
0.428107
0.413408
0.399197
0.385564
0.372452
0.359781
0.34751
0.335625
0.324112
0.31295
0.302115
0.291586
0.281343
0.271375
0.261673
0.252233
0.243056
0.234148
0.225513
0.217158
0.209078
0.201255
0.193653
0.186206
0.178804
0.171299
0.163499
0.155186
0.146135
0.136151
0.125105
0.112989
0.0999492
0.0863118
0.0725615
0.0592745
0.0470042
0.0361638
0.0269622
0.0194074
0.0133728
0.00866838
0.00506696
0.00297167
0.00255771
0.00276073
0.00284651
0.00292865
0.00303381
0.00315007
0.00315631
0.00306103
0.0029094
0.00274586
0.00260906
0.00252973
0.00253447
0.00263897
0.00284619
0.00313887
0.00348254
0.00381653
0.00408031
0.00420754
0.00417162
0.00398713
0.00389328
0.00412907
0.00445797
0.00465919
0.00462004
0.0043115
0.0036864
0.00269721
0.00266153
0.00390033
0.00497642
0.00558569
0.00585723
0.00461362
0.00221274
0.000345719
0.0014383
0.00248555
0.0017967
0.000204686
0.00196493
0.00254182
0.00107408
0.00185056
0.00490658
0.00584043
0.00723124
0.00677766
0.00968032
0.00365297
0.00607048
0.00425708
0.0175431
0.00892228
0.00332253
0.00210836
0.0035277
0.00132882
0.00393195
0.00934873
0.0138467
0.0126739
0.00952478
0.00714199
0.00457586
0.00468269
0.00578559
0.00525075
0.00608462
0.00635304
0.0054486
0.00158049
0.00162435
0.0023644
0.422029
0.407412
0.393291
0.379739
0.36671
0.354133
0.34197
0.330206
0.318828
0.307815
0.297146
0.286799
0.276756
0.267002
0.257526
0.248319
0.239376
0.230697
0.222286
0.214146
0.206283
0.198697
0.191381
0.184314
0.177457
0.170735
0.164037
0.157213
0.150075
0.142407
0.133989
0.124629
0.114209
0.102726
0.0903428
0.0774029
0.0644121
0.0519604
0.0405992
0.0307125
0.0224566
0.0157938
0.0105533
0.00652526
0.00349153
0.00229509
0.00246267
0.00260503
0.0026655
0.00277785
0.00282142
0.00283868
0.00277693
0.00267022
0.00256766
0.00250793
0.00252502
0.00264032
0.00286251
0.00317839
0.00355632
0.00393567
0.00425351
0.00443867
0.00445725
0.00431891
0.0040558
0.00406509
0.00436149
0.00459103
0.00457585
0.00428339
0.00366702
0.00267456
0.00239231
0.00363944
0.00473171
0.00536765
0.00580111
0.00482194
0.00250907
0.000590545
0.00130758
0.0023194
0.00162013
0.000393672
0.00230057
0.0027387
0.00125781
0.00195582
0.00515734
0.00577389
0.00698273
0.0068009
0.00958416
0.00380389
0.00620367
0.00492263
0.0169759
0.00961902
0.00373016
0.00186267
0.0033225
0.00151774
0.00464801
0.0101706
0.0141018
0.0123828
0.00949503
0.00720733
0.0046352
0.00458337
0.00602439
0.00544564
0.00617986
0.00647326
0.00556555
0.00176077
0.00187368
0.00248024
0.416359
0.401819
0.38778
0.374305
0.361352
0.34886
0.336793
0.325134
0.313872
0.302986
0.292456
0.282261
0.272384
0.262808
0.253521
0.244511
0.235769
0.227291
0.219075
0.211121
0.203433
0.196014
0.188867
0.181988
0.17537
0.168988
0.162796
0.156717
0.150639
0.144415
0.137857
0.130756
0.122897
0.114093
0.104232
0.0933249
0.0815472
0.0692608
0.0569916
0.0453433
0.0348573
0.0258847
0.0185246
0.0126841
0.00816875
0.00474959
0.00265054
0.00214846
0.00235342
0.00246452
0.00252097
0.00258398
0.00259026
0.00255313
0.00249468
0.00242874
0.00246357
0.00259368
0.00283205
0.00317135
0.00358421
0.00401103
0.00438723
0.00463705
0.00471868
0.00463572
0.00441456
0.00416624
0.0042198
0.0044826
0.00449621
0.00422339
0.00361594
0.00261884
0.00210083
0.00334693
0.0044356
0.00505503
0.00560353
0.00491585
0.00275094
0.000818516
0.00114356
0.00214346
0.00147908