/*--------------------------------*- C++ -*----------------------------------*\
| =========                 |                                                 |
| \\      /  F ield         | OpenFOAM: The Open Source CFD Toolbox           |
|  \\    /   O peration     | Version:  2412                                  |
|   \\  /    A nd           | Website:  www.openfoam.com                      |
|    \\/     M anipulation  |                                                 |
\*---------------------------------------------------------------------------*/
FoamFile
{
    version     2.0;
    format      ascii;
    arch        "LSB;label=32;scalar=64";
    class       volScalarField;
    location    "0.82";
    object      p;
}
// * * * * * * * * * * * * * * * * * * * * * * * * * * * * * * * * * * * * * //

dimensions      [0 2 -2 0 0 0 0];

internalField   nonuniform List<scalar> 
12600
(
1.61233
-80.949
-58.9358
-7.54331
36.4069
70.0492
96.8026
118.999
137.931
154.364
168.774
181.561
192.969
203.162
212.305
220.528
228.065
234.927
241.153
246.695
251.629
256.093
260.228
264.214
268.052
271.62
274.389
276.434
278.68
280.913
282.876
284.596
286.181
287.671
289.026
290.221
291.289
292.276
293.198
294.041
294.799
295.488
296.129
296.729
297.286
297.798
298.274
298.725
299.155
299.558
299.939
300.322
300.734
301.054
301.671
302.604
302.9
303.474
304.183
304.876
305.439
305.77
305.802
305.455
304.672
303.421
301.778
299.805
297.583
294.983
291.709
288.485
286.001
277.688
272.382
269.327
266.414
264.552
263.673
263.881
264.543
265.143
265.079
263.195
257.864
251.297
245.788
249.995
260.485
297.096
323.328
365.467
382.533
276.328
192.687
210.409
230.856
223.427
225.174
233.936
229.836
225.046
197.862
156.564
121.681
118.705
151.57
210.654
281.562
352.801
412.825
454.41
481.352
492.593
502.43
496.091
499.946
489.205
489.1
495.023
62.2007
-14.4923
-23.9398
2.00101
35.1474
66.0817
92.5375
114.978
134.256
151.053
165.874
179.016
190.713
201.129
210.575
219.023
226.759
233.778
240.099
245.718
250.771
255.422
259.755
263.814
267.57
270.975
273.732
275.98
278.383
280.64
282.602
284.35
285.975
287.492
288.858
290.064
291.151
292.158
293.094
293.946
294.711
295.41
296.061
296.669
297.231
297.747
298.229
298.685
299.118
299.523
299.906
300.291
300.703
301.049
301.682
302.517
302.829
303.426
304.136
304.83
305.397
305.74
305.787
305.459
304.699
303.466
301.838
299.886
297.7
295.135
291.922
288.653
285.418
277.553
272.651
269.498
266.559
264.615
263.688
263.867
264.519
265.133
265.117
263.333
258.095
251.548
245.884
249.878
259.873
296.178
322.271
364.472
383.198
278.803
193.821
210.094
230.718
223.481
225.032
233.852
229.915
225.448
198.736
157.55
122.225
118.486
150.555
209.142
279.902
351.275
411.641
453.603
480.899
492.346
502.382
496.122
500.024
489.332
489.044
494.955
88.4784
31.9518
7.61111
15.9337
39.9366
66.7883
91.5943
113.471
132.626
149.462
164.349
177.583
189.382
199.918
209.403
217.974
225.859
232.944
239.305
244.971
250.11
254.905
259.422
263.521
267.139
270.315
273.105
275.647
278.189
280.454
282.415
284.186
285.839
287.373
288.748
289.963
291.063
292.083
293.028
293.885
294.656
295.361
296.018
296.63
297.195
297.715
298.2
298.66
299.095
299.501
299.885
300.271
300.679
301.069
301.69
302.39
302.772
303.396
304.107
304.799
305.368
305.716
305.776
305.464
304.717
303.495
301.876
299.935
297.771
295.23
292.074
288.676
285.166
277.311
272.671
269.694
266.662
264.642
263.691
263.856
264.505
265.127
265.14
263.414
258.235
251.706
245.956
249.795
259.555
295.741
321.753
363.926
383.616
279.882
194.409
209.908
230.676
223.508
224.965
233.806
229.961
225.647
199.127
158.013
122.495
118.344
150.155
208.602
279.324
350.749
411.188
453.273
480.708
492.241
502.36
496.135
500.056
489.384
489.024
494.926
97.2446
61.9093
37.2173
34.5782
48.5615
69.6342
91.7553
112.478
131.173
147.866
162.758
176.059
187.952
198.601
208.213
216.916
224.857
232.039
238.488
244.245
249.496
254.394
258.95
263.021
266.524
269.58
272.54
275.371
277.949
280.226
282.193
283.99
285.672
287.225
288.611
289.84
290.954
291.988
292.943
293.809
294.587
295.3
295.963
296.581
297.15
297.674
298.163
298.627
299.065
299.473
299.859
300.246
300.654
301.089
301.675
302.229
302.72
303.358
304.07
304.763
305.335
305.693
305.765
305.47
304.741
303.535
301.931
300.007
297.865
295.349
292.226
288.632
283.901
277.316
273.231
269.971
266.819
264.69
263.705
263.843
264.485
265.12
265.173
263.529
258.421
251.903
246.022
249.676
259.023
294.95
320.884
363.146
384.155
281.878
195.146
209.621
230.556
223.548
224.847
233.744
230.034
226.001
199.854
158.804
122.891
118.11
149.231
207.231
277.858
349.418
410.186
452.601
480.336
492.039
502.325
496.162
500.124
489.488
488.97
494.87
104.866
84.996
64.8821
55.9902
60.8857
75.2655
93.6409
112.512
130.358
146.694
161.462
174.749
186.684
197.409
207.107
215.9
223.92
231.171
237.687
243.55
248.903
253.86
258.418
262.479
266.01
269.11
272.095
275.127
277.744
279.99
281.97
283.796
285.504
287.075
288.473
289.715
290.845
291.892
292.857
293.73
294.516
295.236
295.907
296.53
297.104
297.632
298.125
298.592
299.033
299.445
299.832
300.221
300.631
301.1
301.64
302.086
302.675
303.319
304.032
304.724
305.301
305.668
305.755
305.477
304.766
303.577
301.988
300.079
297.955
295.454
292.328
288.539
282.839
277.624
273.866
270.177
266.971
264.718
263.71
263.828
264.464
265.113
265.208
263.646
258.611
252.101
246.082
249.535
258.522
294.26
320.071
362.356
384.606
283.436
195.694
209.301
230.478
223.585
224.741
233.683
230.108
226.282
200.468
159.479
123.219
117.839
148.536
206.294
276.854
348.506
409.429
452.063
480.03
491.874
502.294
496.185
500.179
489.57
488.934
494.822
113.733
102.838
87.7736
76.9866
75.9308
84.0034
97.7192
113.84
130.282
145.961
160.446
173.632
185.559
196.327
206.084
214.946
223.022
230.335
236.93
242.884
248.313
253.319
257.865
261.925
265.511
268.738
271.843
274.863
277.441
279.765
281.746
283.593
285.331
286.918
288.329
289.585
290.73
291.791
292.766
293.647
294.441
295.17
295.847
296.476
297.054
297.587
298.085
298.556
299
299.414
299.804
300.194
300.607
301.106
301.594
301.984
302.628
303.278
303.991
304.684
305.266
305.642
305.745
305.486
304.794
303.622
302.051
300.16
298.054
295.566
292.43
288.352
282.814
278.207
274.38
270.369
267.071
264.766
263.716
263.811
264.442
265.105
265.246
263.772
258.811
252.301
246.128
249.361
257.924
293.41
319.122
361.446
384.942
285.207
196.024
208.895
230.378
223.625
224.618
233.618
230.192
226.639
201.186
160.22
123.525
117.479
147.511
204.893
275.391
347.19
408.426
451.381
479.651
491.671
502.26
496.213
500.247
489.669
488.877
494.764
122.264
115.922
105.279
95.6483
91.9161
95.1881
104.17
116.813
131.149
145.723
159.691
172.667
184.536
195.322
205.125
214.044
222.171
229.542
236.209
242.247
247.747
252.769
257.32
261.404
265.061
268.403
271.58
274.586
277.177
279.4
281.506
283.406
285.152
286.758
288.181
289.451
290.612
291.686
292.671
293.56
294.363
295.099
295.784
296.418
297.002
297.54
298.042
298.517
298.965
299.381
299.774
300.166
300.581
301.085
301.541
301.939
302.581
303.234
303.947
304.642
305.228
305.616
305.735
305.496
304.824
303.672
302.119
300.248
298.159
295.681
292.527
288.183
282.805
278.837
274.64
270.528
267.158
264.8
263.72
263.791
264.417
265.098
265.288
263.906
259.018
252.496
246.151
249.143
257.271
292.507
318.088
360.399
385.077
286.76
195.997
208.372
230.29
223.666
224.488
233.55
230.283
226.994
201.895
160.919
123.757
117.022
146.566
203.608
274.057
345.989
407.448
450.69
479.261
491.464
502.223
496.24
500.315
489.765
488.824
494.704
129.984
126.116
118.907
111.444
107.128
107.489
112.613
121.665
133.315
146.205
159.272
171.839
183.565
194.338
204.182
213.16
221.344
228.78
235.52
241.633
247.187
252.236
256.803
260.924
264.657
268.092
271.314
274.292
276.884
279.161
281.222
283.181
284.995
286.587
288.027
289.313
290.49
291.577
292.572
293.47
294.281
295.026
295.718
296.358
296.947
297.49
297.997
298.476
298.927
299.347
299.743
300.136
300.551
301.044
301.482
301.902
302.533
303.188
303.901
304.596
305.189
305.589
305.726
305.507
304.856
303.725
302.193
300.342
298.272
295.8
292.605
288.258
282.984
279.287
274.844
270.682
267.247
264.843
263.722
263.769
264.39
265.085
265.332
264.046
259.228
252.678
246.14
248.871
256.527
291.474
316.922
359.162
384.955
288.138
195.496
207.681
230.201
223.708
224.346
233.476
230.38
227.382
202.622
161.578
123.895
116.44
145.302
202.034
272.455
344.555
406.323
449.904
478.82
491.231
502.181
496.268
500.39
489.868
488.757
494.637
137.219
134.95
130.062
124.505
120.595
119.643
122.192
128.173
136.994
147.736
159.419
171.231
182.625
193.308
203.177
212.224
220.488
228.007
234.833
241.024
246.637
251.723
256.323
260.494
264.296
267.797
271.039
273.993
276.587
278.888
281.007
282.964
284.773
286.459
287.874
289.172
290.366
291.466
292.47
293.376
294.196
294.95
295.649
296.295
296.889
297.437
297.949
298.433
298.887
299.311
299.709
300.105
300.519
300.995
301.412
301.864
302.483
303.138
303.851
304.548
305.147
305.56
305.716
305.519
304.891
303.783
302.274
300.445
298.392
295.924
292.681
288.455
283.318
279.561
275.047
270.843
267.338
264.88
263.721
263.744
264.359
265.073
265.377
264.19
259.433
252.837
246.084
248.535
255.689
290.318
315.609
357.7
384.542
289.126
194.447
206.752
230.118
223.753
224.192
233.396
230.483
227.781
203.324
162.149
123.907
115.715
144.073
200.408
270.819
343.095
405.133
449.051
478.335
490.975
502.133
496.295
500.468
489.972
488.69
494.564
144.132
142.929
139.482
135.32
132.161
130.893
131.99
135.721
142.039
150.507
160.433
171.077
181.82
192.225
202.04
211.147
219.513
227.148
234.088
240.379
246.072
251.219
255.874
260.103
263.965
267.508
270.755
273.691
276.294
278.63
280.783
282.779
284.598
286.208
287.734
289.039
290.24
291.353
292.365
293.279
294.108
294.871
295.577
296.229
296.829
297.382
297.899
298.387
298.845
299.272
299.674
300.071
300.485
300.945
301.363
301.823
302.431
303.086
303.797
304.496
305.103
305.53
305.706
305.532
304.927
303.844
302.36
300.556
298.522
296.065
292.801
288.643
283.644
279.809
275.265
271.009
267.43
264.917
263.717
263.716
264.324
265.058
265.422
264.334
259.626
252.958
245.971
248.124
254.741
289.007
314.115
356.028
383.831
289.636
192.905
205.502
230.038
223.802
224.025
233.308
230.586
228.193
203.974
162.596
123.768
114.833
142.532
198.544
268.976
341.459
403.814
448.101
477.79
490.686
502.074
496.318
500.55
490.079
488.611
494.485
150.661
150.156
147.656
144.511
142.099
140.957
141.359
143.638
148.021
154.428
162.485
171.659
181.397
191.225
200.792
209.867
218.322
226.098
233.19
239.625
245.439
250.686
255.425
259.726
263.642
267.216
270.465
273.395
276.016
278.387
280.575
282.592
284.426
286.072
287.52
288.892
290.126
291.236
292.259
293.181
294.019
294.79
295.503
296.161
296.766
297.324
297.847
298.339
298.801
299.232
299.637
300.036
300.448
300.895
301.314
301.78
302.377
303.029
303.739
304.439
305.054
305.496
305.694
305.545
304.966
303.909
302.454
300.676
298.662
296.181
292.962
288.854
283.981
280.066
275.495
271.18
267.523
264.949
263.709
263.683
264.285
265.038
265.466
264.473
259.797
253.03
245.787
247.627
253.672
287.52
312.408
354.189
382.864
289.625
191.114
203.831
229.961
223.858
223.844
233.211
230.689
228.597
204.539
162.88
123.452
113.773
140.907
196.534
267.009
339.727
402.385
447.054
477.179
490.356
502
496.335
500.634
490.188
488.53
494.398
156.786
156.763
154.962
152.567
150.746
149.849
149.99
151.428
154.454
159.192
165.52
173.131
181.617
190.563
199.602
208.443
216.875
224.76
232.027
238.651
244.644
250.046
254.913
259.311
263.295
266.905
270.17
273.11
275.759
278.17
280.384
282.416
284.256
285.904
287.391
288.728
289.98
291.141
292.15
293.081
293.928
294.706
295.427
296.09
296.7
297.264
297.792
298.289
298.755
299.189
299.599
299.999
300.409
300.845
301.265
301.733
302.32
302.968
303.675
304.377
305
305.46
305.681
305.558
305.006
303.979
302.554
300.806
298.813
296.373
293.143
289.099
284.371
280.347
275.735
271.355
267.615
264.977
263.696
263.645
264.24
265.013
265.504
264.601
259.932
253.037
245.523
247.034
252.464
285.83
310.444
352.183
381.767
289.192
189.512
201.634
229.882
223.929
223.647
233.103
230.808
228.984
204.962
162.965
122.942
112.519
138.944
194.285
264.833
337.827
400.821
445.896
476.492
489.972
501.907
496.344
500.719
490.3
488.44
494.304
162.559
162.888
161.616
159.766
158.379
157.728
157.822
158.809
160.947
164.438
169.319
175.461
182.616
190.477
198.728
207.076
215.276
223.136
230.521
237.344
243.563
249.181
254.235
258.779
262.868
266.547
269.857
272.835
275.525
277.974
280.214
282.255
284.093
285.75
287.245
288.609
289.852
290.987
292.066
292.988
293.836
294.623
295.349
296.017
296.633
297.202
297.735
298.236
298.706
299.145
299.558
299.96
300.369
300.795
301.216
301.684
302.26
302.903
303.606
304.308
304.941
305.418
305.664
305.569
305.046
304.051
302.661
300.946
298.976
296.539
293.351
289.375
284.895
280.645
275.984
271.533
267.705
264.999
263.675
263.6
264.188
264.981
265.534
264.711
260.017
252.967
245.168
246.335
251.101
283.905
308.175
349.986
380.651
288.509
188.59
198.803
229.79
224.024
223.434
232.984
230.911
229.332
205.199
162.818
122.22
111.059
136.895
191.805
262.465
335.785
399.121
444.62
475.719
489.524
501.791
496.34
500.805
490.417
488.347
494.201
168.025
168.599
167.724
166.28
165.22
164.782
164.911
165.665
167.245
169.856
173.609
178.49
184.381
191.091
198.386
206.019
213.752
221.375
228.721
235.657
242.086
247.957
253.26
258.019
262.277
266.084
269.49
272.545
275.298
277.791
280.055
282.104
283.95
285.608
287.113
288.488
289.746
290.89
291.909
292.888
293.754
294.537
295.27
295.943
296.563
297.138
297.676
298.182
298.656
299.099
299.516
299.92
300.327
300.746
301.166
301.632
302.196
302.831
303.528
304.232
304.874
305.371
305.643
305.578
305.087
304.128
302.775
301.096
299.153
296.756
293.586
289.681
285.432
280.962
276.242
271.713
267.792
265.012
263.646
263.546
264.129
264.941
265.554
264.793
260.037
252.808
244.716
245.515
249.562
281.707
305.555
347.544
379.513
287.704
188.576
195.231
229.663
224.157
223.204
232.853
231.011
229.614
205.187
162.429
121.27
109.369
134.455
189.037
259.843
333.557
397.271
443.215
474.853
488.995
501.646
496.321
500.89
490.539
488.251
494.091
173.204
173.94
173.365
172.24
171.435
171.166
171.348
171.983
173.217
175.227
178.141
182.005
186.789
192.398
198.684
205.465
212.541
219.719
226.819
233.695
240.218
246.293
251.859
256.892
261.401
265.418
268.993
272.18
275.032
277.592
279.893
281.96
283.815
285.485
287.002
288.376
289.642
290.792
291.835
292.774
293.652
294.467
295.19
295.868
296.493
297.073
297.616
298.126
298.604
299.051
299.472
299.879
300.284
300.696
301.115
301.576
302.128
302.752
303.443
304.146
304.799
305.315
305.616
305.584
305.128
304.208
302.896
301.259
299.346
296.981
293.85
290.014
285.837
281.293
276.509
271.893
267.875
265.015
263.606
263.483
264.059
264.892
265.56
264.836
259.976
252.551
244.161
244.548
247.821
279.185
302.544
344.767
378.222
286.714
189.247
190.826
229.466
224.346
222.958
232.712
231.102
229.79
204.887
161.774
120.081
107.409
131.8
185.949
256.948
331.137
395.26
441.671
473.885
488.376
501.466
496.284
500.974
490.669
488.156
493.973
178.113
178.954
178.612
177.742
177.135
176.994
177.227
177.802
178.817
180.419
182.724
185.803
189.672
194.303
199.62
205.506
211.815
218.386
225.056
231.675
238.114
244.255
250.005
255.299
260.102
264.41
268.241
271.637
274.646
277.316
279.689
281.8
283.683
285.372
286.901
288.29
289.552
290.701
291.745
292.699
293.563
294.36
295.131
295.799
296.423
297.008
297.554
298.068
298.55
299.001
299.427
299.835
300.239
300.646
301.061
301.515
302.053
302.666
303.347
304.05
304.712
305.25
305.582
305.586
305.167
304.29
303.025
301.434
299.556
297.264
294.147
290.376
286.227
281.638
276.783
272.074
267.951
265.005
263.552
263.406
263.983
264.832
265.548
264.83
259.825
252.193
243.5
243.426
245.854
276.278
299.113
341.607
376.631
285.34
189.931
185.525
229.141
224.618
222.698
232.562
231.179
229.82
204.252
160.841
118.643
105.158
128.741
182.485
253.72
328.479
393.068
439.973
472.806
487.661
501.243
496.226
501.055
490.811
488.066
493.85
182.778
183.681
183.519
182.851
182.398
182.356
182.632
183.174
184.046
185.365
187.232
189.717
192.86
196.667
201.114
206.139
211.649
217.524
223.631
229.832
236.005
242.036
247.821
253.271
258.322
262.93
267.075
270.763
274.014
276.869
279.373
281.577
283.524
285.256
286.81
288.21
289.479
290.634
291.665
292.622
293.496
294.294
295.019
295.726
296.36
296.942
297.493
298.01
298.496
298.951
299.38
299.791
300.193
300.595
301.004
301.45
301.971
302.57
303.24
303.941
304.613
305.174
305.538
305.581
305.204
304.376
303.162
301.623
299.786
297.53
294.476
290.765
286.614
281.997
277.065
272.255
268.02
264.979
263.481
263.313
263.885
264.764
265.515
264.766
259.572
251.731
242.727
242.14
243.642
272.911
295.234
338.053
374.687
283.456
189.624
179.338
228.61
224.963
222.424
232.413
231.235
229.649
203.253
159.605
116.947
102.606
125.307
178.593
250.11
325.547
390.668
438.106
471.608
486.846
500.959
496.148
501.133
490.971
487.988
493.722
187.214
188.148
188.122
187.617
187.287
187.321
187.631
188.152
188.925
190.042
191.591
193.631
196.207
199.344
203.047
207.294
212.035
217.191
222.665
228.343
234.111
239.868
245.52
250.973
256.146
260.971
265.401
269.404
272.969
276.104
278.835
281.208
283.277
285.093
286.701
288.132
289.413
290.568
291.613
292.562
293.431
294.232
294.973
295.645
296.286
296.887
297.43
297.951
298.441
298.899
299.332
299.745
300.146
300.542
300.944
301.378
301.882
302.463
303.12
303.816
304.498
305.082
305.483
305.569
305.238
304.463
303.308
301.827
300.037
297.775
294.846
291.184
287.04
282.372
277.357
272.437
268.08
264.935
263.39
263.201
263.788
264.686
265.46
264.637
259.216
251.17
241.835
240.644
241.168
269.006
290.863
334.042
372.35
281.198
189.333
172.387
227.764
225.647
222.143
232.261
231.263
229.23
201.879
158.039
114.981
99.6805
121.433
174.203
246.05
322.28
388.022
436.049
470.283
485.927
500.585
496.051
501.207
491.155
487.931
493.594
191.437
192.377
192.455
192.082
191.851
191.942
192.276
192.781
193.482
194.452
195.764
197.469
199.607
202.21
205.296
208.87
212.911
217.376
222.201
227.3
232.581
237.948
243.321
248.62
253.761
258.668
263.276
267.532
271.4
274.859
277.905
280.554
282.839
284.809
286.519
288.016
289.337
290.512
291.564
292.517
293.389
294.175
294.914
295.595
296.221
296.811
297.387
297.899
298.386
298.849
299.284
299.698
300.098
300.488
300.881
301.301
301.785
302.345
302.986
303.676
304.365
304.974
305.412
305.546
305.268
304.553
303.463
302.049
300.313
298.061
295.257
291.638
287.461
282.766
277.661
272.621
268.131
264.87
263.274
263.067
263.672
264.602
265.382
264.439
258.757
250.512
240.814
238.88
238.414
264.497
285.921
329.45
369.385
278.861
187.158
164.934
226.469
226.229
221.854
232.111
231.265
228.495
200.123
156.103
112.722
96.3009
117.024
169.246
241.468
318.617
385.086
433.782
468.822
484.897
500.086
495.941
501.277
491.377
487.908
493.471
195.46
196.389
196.546
196.28
196.128
196.262
196.611
197.103
197.748
198.606
199.738
201.186
202.985
205.165
207.751
210.758
214.188
218.021
222.222
226.733
231.485
236.397
241.394
246.411
251.377
256.22
260.87
265.263
269.349
273.089
276.456
279.438
282.036
284.269
286.173
287.798
289.202
290.429
291.511
292.478
293.35
294.145
294.873
295.546
296.175
296.761
297.302
297.842
298.338
298.794
299.235
299.652
300.05
300.432
300.814
301.218
301.678
302.215
302.836
303.516
304.212
304.844
305.324
305.511
305.292
304.645
303.628
302.29
300.623
298.47
295.715
292.131
287.961
283.187
277.98
272.811
268.174
264.781
263.129
262.906
263.547
264.523
265.28
264.174
258.208
249.762
239.656
236.782
235.334
259.336
280.289
324.063
365.49
276.809
185.657
157.485
224.581
226.978
221.55
231.995
231.223
227.412
198.003
153.764
110.137
92.3961
112.144
163.639
236.278
314.489
381.809
431.284
467.216
483.747
499.43
495.833
501.343
491.65
487.936
493.36
199.297
200.202
200.416
200.237
200.148
200.315
200.672
201.15
201.75
202.521
203.512
204.761
206.294
208.139
210.321
212.861
215.77
219.047
222.675
226.621
230.838
235.266
239.837
244.491
249.175
253.829
258.388
262.789
266.974
270.895
274.51
277.791
280.718
283.281
285.486
287.355
288.929
290.263
291.413
292.421
293.316
294.117
294.846
295.518
296.135
296.72
297.272
297.784
298.279
298.759
299.192
299.601
299.997
300.375
300.744
301.129
301.564
302.073
302.669
303.336
304.035
304.69
305.213
305.46
305.308
304.739
303.804
302.554
300.97
298.895
296.255
292.67
288.465
283.634
278.321
273.008
268.208
264.666
262.951
262.723
263.41
264.451
265.167
263.852
257.583
248.924
238.349
234.278
231.84
253.486
273.81
317.58
360.245
275.522
184.86
150.858
221.943
227.864
221.235
231.759
231.113
225.906
195.514
150.972
107.171
87.8871
106.415
157.282
230.377
309.815
378.138
428.539
465.453
482.462
498.599
495.741
501.409
491.989
488.037
493.272
202.958
203.83
204.084
203.975
203.939
204.128
204.488
204.951
205.513
206.213
207.093
208.183
209.505
211.083
212.94
215.098
217.572
220.37
223.49
226.915
230.619
234.559
238.685
242.941
247.278
251.652
256.013
260.304
264.467
268.45
272.207
275.697
278.888
281.757
284.289
286.483
288.347
289.907
291.204
292.298
293.244
294.079
294.824
295.497
296.115
296.691
297.23
297.748
298.235
298.69
299.142
299.568
299.956
300.32
300.672
301.035
301.442
301.919
302.486
303.133
303.831
304.508
305.076
305.387
305.313
304.832
303.994
302.844
301.357
299.371
296.751
293.266
288.986
284.123
278.691
273.222
268.236
264.52
262.735
262.504
263.267
264.397
265.057
263.49
256.91
248.006
236.872
231.281
227.817
246.906
266.304
309.674
353.218
275.417
185.372
146.139
218.44
228.836
220.909
231.576
230.911
223.97
192.673
147.705
103.746
82.6782
100.296
150.081
223.637
304.498
374.015
425.521
463.511
481.033
497.6
495.68
501.475
492.412
488.236
493.219
206.452
207.285
207.567
207.515
207.52
207.724
208.083
208.531
209.06
209.7
210.489
211.451
212.604
213.968
215.562
217.407
219.52
221.913
224.592
227.554
230.783
234.255
237.937
241.783
245.746
249.79
253.878
257.965
262.002
265.937
269.722
273.314
276.674
279.77
282.577
285.079
287.266
289.142
290.718
292.019
293.088
293.986
294.771
295.471
296.101
296.676
297.212
297.716
298.202
298.666
299.099
299.507
299.898
300.262
300.603
300.944
301.315
301.755
302.287
302.908
303.599
304.293
304.908
305.292
305.305
304.923
304.202
303.161
301.794
299.909
297.469
293.939
289.713
284.674
279.104
273.452
268.256
264.342
262.476
262.25
263.126
264.375
264.969
263.117
256.209
247.008
235.211
227.734
223.002
239.521
257.567
300.083
344.143
275.93
187.129
143.742
213.954
229.817
220.516
231.311
230.578
221.522
189.431
143.91
99.7582
76.6896
92.7438
141.868
215.902
298.413
369.363
422.181
461.339
479.451
496.46
495.686
501.542
492.937
488.559
493.213
209.788
210.579
210.879
210.872
210.91
211.125
211.478
211.91
212.408
212.998
213.711
214.567
215.583
216.772
218.152
219.741
221.556
223.611
225.914
228.47
231.274
234.313
237.568
241.007
244.593
248.287
252.059
255.88
259.71
263.507
267.223
270.814
274.241
277.468
280.465
283.207
285.673
287.854
289.745
291.352
292.687
293.775
294.659
295.401
296.06
296.658
297.201
297.703
298.179
298.629
299.069
299.483
299.861
300.21
300.53
300.844
301.188
301.585
302.074
302.661
303.335
304.042
304.702
305.167
305.279
305.01
304.417
303.522
302.28
300.515
298.056
294.706
290.465
285.286
279.565
273.714
268.274
264.129
262.177
261.967
263
264.407
264.933
262.771
255.53
245.951
233.32
223.55
217.33
231.209
247.38
288.691
333.072
275.1
187.936
142.068
208.505
230.657
220.051
230.911
230.085
218.612
185.8
139.579
95.0899
69.7799
84.686
132.523
206.989
291.406
364.087
418.446
458.867
477.707
495.207
495.659
501.615
493.575
489.029
493.267
212.976
213.721
214.03
214.061
214.124
214.345
214.69
215.105
215.575
216.121
216.769
217.538
218.439
219.485
220.689
222.068
223.637
225.409
227.394
229.601
232.032
234.681
237.54
240.588
243.801
247.145
250.589
254.108
257.68
261.269
264.839
268.345
271.75
275.015
278.109
281.004
283.673
286.098
288.266
290.169
291.81
293.194
294.334
295.25
295.981
296.6
297.163
297.688
298.169
298.617
299.04
299.446
299.825
300.167
300.473
300.759
301.058
301.412
301.851
302.393
303.042
303.752
304.454
305.003
305.225
305.089
304.649
303.91
302.845
301.21
298.899
295.57
291.278
286.011
280.095
273.996
268.278
263.874
261.829
261.668
262.898
264.527
264.991
262.499
254.878
244.839
231.212
218.718
210.607
221.884
235.569
275.528
320.106
271.622
186.209
139.153
201.914
231.281
219.462
230.335
229.368
215.172
181.684
134.657
89.5906
61.798
74.8404
121.868
196.68
283.287
358.055
414.225
456.038
475.78
493.859
495.569
501.698
494.329
489.663
493.392
216.021
216.721
217.033
217.092
217.176
217.399
217.734
218.131
218.575
219.082
219.675
220.369
221.175
222.101
223.16
224.365
225.728
227.264
228.983
230.892
232.999
235.305
237.805
240.49
243.344
246.344
249.464
252.674
255.959
259.298
262.663
266.018
269.327
272.553
275.662
278.623
281.411
284.003
286.38
288.527
290.436
292.106
293.539
294.742
295.725
296.5
297.109
297.63
298.127
298.602
299.035
299.431
299.792
300.129
300.42
300.682
300.94
301.24
301.62
302.109
302.718
303.42
304.158
304.794
305.141
305.151
304.89
304.342
303.474
302.032
299.833
296.583
292.259
286.795
280.694
274.332
268.282
263.575
261.449
261.363
262.856
264.788
265.189
262.364
254.359
243.724
228.804
213.062
202.564
211.217
222.068
260.688
305.172
267.107
183.261
136.126
194.344
231.602
218.776
229.462
228.389
211.32
177.136
129.153
83.1187
52.6415
63.7217
109.629
184.743
273.825
351.094
409.415
452.808
473.634
492.405
495.292
501.788
495.198
490.467
493.599
218.931
219.585
219.895
219.977
220.077
220.3
220.623
221.002
221.42
221.892
222.437
223.067
223.792
224.618
225.555
226.614
227.807
229.145
230.639
232.297
234.126
236.132
238.314
240.669
243.189
245.86
248.662
251.572
254.567
257.633
260.756
263.911
267.066
270.188
273.243
276.2
279.03
281.71
284.22
286.542
288.661
290.569
292.261
293.735
294.997
296.053
296.91
297.576
298.087
298.533
298.982
299.416
299.79
300.105
300.375
300.616
300.84
301.081
301.397
301.814
302.374
303.05
303.811
304.531
305.019
305.183
305.127
304.81
304.187
302.969
300.94
297.773
293.4
287.816
281.383
274.666
268.24
263.215
261.021
261.073
262.918
265.243
265.61
262.426
253.93
242.616
226.212
206.738
193.296
199.449
206.906
244.284
288.671
262.256
181.286
137.813
185.632
231.29
218.042
228.323
227.065
207.041
172.06
123.004
75.4852
42.131
50.7453
95.6135
170.935
262.762
342.978
403.876
449.123
471.229
490.815
494.756
501.9
496.153
491.429
493.892
221.713
222.322
222.626
222.725
222.837
223.057
223.368
223.728
224.123
224.563
225.065
225.64
226.294
227.035
227.87
228.807
229.856
231.029
232.333
233.778
235.37
237.117
239.021
241.082
243.299
245.663
248.162
250.779
253.494
256.288
259.152
262.073
265.031
267.998
270.943
273.835
276.646
279.349
281.921
284.346
286.607
288.692
290.59
292.294
293.8
295.112
296.233
297.172
297.933
298.516
298.949
299.331
299.725
300.092
300.364
300.566
300.748
300.941
301.181
301.532
302.004
302.646
303.419
304.209
304.843
305.187
305.357
305.307
304.983
304.059
302.227
299.208
294.764
288.935
282.236
275.128
268.194
262.776
260.561
260.808
263.158
265.974
266.345
262.773
253.82
241.63
223.31
199.465
182.488
185.665
190.448
226.528
271.068
255.598
178.825
141.627
176.448
230.457
217.316
226.878
225.442
202.52
166.605
116.249
66.5591
30.1476
35.8806
79.5758
155.038
249.824
333.448
397.414
444.889
468.514
489.062
493.992
501.957
497.186
492.518
494.268
224.371
224.937
225.233
225.345
225.466
225.682
225.979
226.32
226.692
227.103
227.566
228.092
228.687
229.355
230.101
230.935
231.864
232.897
234.041
235.306
236.697
238.222
239.884
241.688
243.634
245.718
247.934
250.272
252.717
255.25
257.858
260.532
263.265
266.038
268.827
271.605
274.343
277.014
279.593
282.061
284.4
286.596
288.638
290.517
292.224
293.754
295.104
296.278
297.285
298.133
298.825
299.344
299.699
299.981
300.275
300.542
300.701
300.828
300.993
301.236
301.669
302.218
302.966
303.822
304.605
305.132
305.562
305.84
305.883
305.325
303.766
300.905
296.451
290.288
283.134
275.39
267.961
262.198
260.052
260.62
263.614
267.091
267.543
263.55
253.868
240.778
220.404
191.764
170.586
170.33
172.956
207.713
251.909
247.389
166.499
140.635
165.89
228.468
216.79
225.146
223.515
197.846
160.723
108.792
56.1807
16.5526
18.9149
61.327
136.816
234.725
322.238
389.802
439.992
465.409
487.122
493.112
501.91
498.208
493.667
494.714
226.913
227.436
227.722
227.843
227.97
228.181
228.464
228.787
229.137
229.52
229.949
230.432
230.974
231.578
232.25
232.996
233.822
234.736
235.746
236.857
238.077
239.412
240.868
242.447
244.154
245.988
247.946
250.023
252.209
254.492
256.857
259.29
261.788
264.344
266.944
269.566
272.186
274.777
277.315
279.776
282.141
284.394
286.523
288.518
290.369
292.069
293.611
294.989
296.206
297.266
298.181
298.96
299.59
300.03
300.261
300.376
300.566
300.747
300.862
301.003
301.263
301.799
302.548
303.385
304.278
305.007
305.704
306.353
306.87
306.803
305.624
303.031
298.461
291.991
284.279
276.009
267.739
261.39
259.434
260.498
264.352
268.627
269.262
264.913
254.546
240.296
217.352
183.198
157.214
153.499
154.523
187.993
231.614
237.305
150.401
138.918
151.97
225.838
216.683
223.122
221.353
193.218
154.683
100.746
44.353
1.32621
-0.503945
40.5219
115.909
217.118
309.063
380.817
434.327
461.862
484.949
492.207
501.642
499.241
494.808
495.192
229.342
229.825
230.099
230.227
230.358
230.562
230.831
231.137
231.466
231.824
232.221
232.665
233.16
233.709
234.315
234.985
235.724
236.537
237.431
238.413
239.487
240.66
241.938
243.324
244.822
246.434
248.161
249.999
251.944
253.989
256.121
258.329
260.6
262.934
265.325
267.762
270.227
272.697
275.15
277.56
279.907
282.173
284.341
286.401
288.343
290.159
291.842
293.384
294.78
296.029
297.132
298.097
298.925
299.619
300.157
300.503
300.54
300.475
300.609
300.838
301.08
301.351
301.948
302.903
303.959
304.795
305.724
306.802
307.921
308.548
307.857
305.624
301.117
293.998
285.442
276.033
266.891
260.253
258.621
260.446
265.427
270.821
271.742
266.974
255.627
240.148
214.665
174.937
143.898
136.939