/*--------------------------------*- C++ -*----------------------------------*\
| =========                 |                                                 |
| \\      /  F ield         | OpenFOAM: The Open Source CFD Toolbox           |
|  \\    /   O peration     | Version:  2412                                  |
|   \\  /    A nd           | Website:  www.openfoam.com                      |
|    \\/     M anipulation  |                                                 |
\*---------------------------------------------------------------------------*/
FoamFile
{
    version     2.0;
    format      ascii;
    arch        "LSB;label=32;scalar=64";
    class       volVectorField;
    location    "1.395";
    object      ddtCorrDdt0(U);
}
// * * * * * * * * * * * * * * * * * * * * * * * * * * * * * * * * * * * * * //

dimensions      [0 1 -2 0 0 0 0];

internalField   nonuniform List<vector> 
12600
(
(0.0116694 -4.19566e-22 -0.0145426)
(-0.0187004 -5.55386e-22 -0.00247058)
(-0.0068638 -5.30344e-22 0.00113263)
(-0.00451468 0 0.00108747)
(-0.00531865 -4.80392e-22 0.000974336)
(-0.00558064 -4.60339e-22 0.000915228)
(-0.00548386 0 0.000872475)
(-0.00518134 0 0.000888623)
(-0.00473936 1.57849e-21 0.000910266)
(-0.00420761 0 0.00092275)
(-0.00360273 -6.81348e-22 0.000921698)
(-0.00292411 -6.19087e-22 0.00090584)
(-0.00216794 5.5151e-22 0.000874135)
(-0.00132417 0 0.000820931)
(-0.000370589 4.04897e-22 0.000736563)
(0.000712368 0 0.000614135)
(0.00190946 -9.78041e-22 0.000456265)
(0.00314988 0 0.000275779)
(0.00431836 1.70674e-22 9.02784e-05)
(0.00529007 1.35691e-23 -8.44882e-05)
(0.00596432 1.25189e-22 -0.000237936)
(0.00627835 4.85723e-24 -0.00036362)
(0.00620128 0 -0.000456125)
(0.00572048 -8.02497e-22 -0.000508464)
(0.00483409 0 -0.000511872)
(0.00355387 0 -0.000457582)
(0.00191578 -7.70559e-22 -0.000339995)
(-1.18589e-05 0 -0.000159015)
(-0.00212522 3.94498e-24 7.82064e-05)
(-0.00429356 1.8451e-22 0.000357932)
(-0.00636935 -7.77463e-23 0.000660361)
(-0.0082076 -3.42767e-22 0.000962751)
(-0.0096773 5.91509e-22 0.00124072)
(-0.0106839 1.61385e-21 0.00147307)
(-0.0111723 1.95109e-21 0.00164209)
(-0.0111458 -2.18466e-21 0.00173881)
(-0.0106484 0 0.00175979)
(-0.00977834 2.27814e-21 0.00171233)
(-0.0086457 0 0.00160623)
(-0.00739057 -1.98273e-21 0.00146036)
(-0.00612157 0 0.00128957)
(-0.00496092 -7.72574e-24 0.00111601)
(-0.00396518 0 0.00095082)
(-0.00321127 -7.75824e-24 0.000813045)
(-0.00268488 -1.3995e-21 0.00070365)
(-0.00241838 1.01798e-21 0.00063507)
(-0.00233093 -7.02767e-22 0.000595375)
(-0.00243818 0 0.000592813)
(-0.00261896 0 0.000605501)
(-0.00291303 -1.54808e-22 0.000644175)
(-0.0031799 -1.10139e-22 0.000680896)
(-0.00351332 5.32119e-23 0.000735166)
(-0.00375417 -2.41303e-24 0.000774176)
(-0.00406314 3.33808e-22 0.00082979)
(-0.00424316 0 0.000861689)
(-0.00452984 -6.23044e-22 0.000916323)
(-0.0046624 -7.71062e-22 0.000941299)
(-0.00496621 -9.18702e-22 0.00100049)
(-0.00508556 0 0.00102331)
(-0.00546014 0 0.0010956)
(-0.00560049 0 0.00112108)
(-0.00609901 2.79789e-21 0.00121511)
(-0.00628083 0 0.00124603)
(-0.00694409 0 0.00136935)
(-0.00715411 -5.86299e-21 0.00140402)
(-0.00799185 0 0.00156064)
(-0.00816142 0 0.00158874)
(-0.00915491 0 0.00177789)
(-0.00917329 5.08347e-21 0.00177945)
(-0.0103341 -4.9499e-21 0.00200229)
(-0.0101067 -4.89218e-21 0.00195508)
(-0.0115648 -2.09861e-24 0.00223085)
(-0.0110364 4.7025e-21 0.00211847)
(-0.0130547 0 0.00249481)
(-0.0120907 -3.94241e-21 0.00229199)
(-0.0150241 0 0.00284044)
(-0.0132396 0 0.00247649)
(-0.0175244 0 0.00328374)
(-0.0142449 1.30578e-23 0.00263089)
(-0.0205177 3.62548e-21 0.00382395)
(-0.0148537 6.85513e-21 0.00271929)
(-0.0236825 -9.89806e-21 0.00441971)
(-0.0148512 -1.25271e-20 0.00272421)
(-0.0260521 0 0.00490232)
(-0.014376 0 0.00267235)
(-0.0263792 3.10747e-20 0.00503657)
(-0.014236 -5.95297e-20 0.00264878)
(-0.0240031 5.99229e-20 0.00455798)
(-0.0156567 2.84857e-20 0.00294561)
(-0.0175303 0 0.00330875)
(-0.018954 -5.89583e-20 0.00358426)
(-0.00956506 3.31933e-20 0.0017888)
(-0.0238204 -2.93188e-20 0.00454437)
(0.00279704 6.53803e-20 -0.000537786)
(-0.0352035 0 0.0067846)
(0.0342508 0 -0.00644436)
(-0.057126 0 0.0115325)
(0.0456066 0 -0.00830434)
(-0.0407303 0 0.00901803)
(0.0272984 0 -0.00520938)
(0.186772 2.9904e-20 -0.0361037)
(-0.165679 9.55813e-20 0.0355696)
(-0.0170374 -1.81023e-19 0.00297468)
(0.0172189 0 -0.00700323)
(0.680939 0 -0.124678)
(-0.79092 0 0.160414)
(-0.120903 -4.60709e-20 0.00220064)
(1.24817 1.55283e-21 -0.225031)
(-1.14612 -1.3313e-20 0.222959)
(0.767633 0 -0.157358)
(0.737871 -8.88267e-20 -0.136003)
(-0.864194 0 0.156231)
(2.37255 1.07111e-18 -0.456717)
(0.503284 4.2155e-19 -0.0865491)
(-1.44246 8.34248e-19 0.25562)
(1.10029 4.69305e-19 -0.205954)
(-1.63229 -4.08255e-19 0.311823)
(-2.95559 -1.58477e-21 0.555412)
(-0.719589 2.5675e-19 0.126011)
(0.112535 0 -0.024298)
(-0.00796311 4.2375e-22 -0.0293054)
(-0.0222129 0 -0.00872632)
(-0.0177995 5.36702e-22 0.000574138)
(-0.0153694 0 0.00210806)
(-0.0157072 4.86726e-22 0.00236202)
(-0.0160699 9.29956e-22 0.00241662)
(-0.0160734 4.44462e-22 0.00241304)
(-0.0158182 0 0.0024913)
(-0.0154168 -6.55682e-25 0.00260674)
(-0.0148976 7.48978e-22 0.00272103)
(-0.01425 -6.92407e-22 0.00281529)
(-0.0134459 -6.30118e-22 0.00288587)
(-0.0124589 5.62423e-22 0.00292633)
(-0.0112477 -4.89912e-22 0.00291116)
(-0.00973992 -8.24306e-22 0.00280522)
(-0.00787126 0 0.00259111)
(-0.00565965 -7.00905e-24 0.002286)
(-0.0032441 -3.42441e-22 0.00193196)
(-0.000847207 -1.73207e-22 0.00157054)
(0.00130789 0 0.00122431)
(0.00306309 0 0.00089644)
(0.00433617 2.43243e-22 0.000583932)
(0.00508827 0 0.000291627)
(0.00528306 4.05134e-22 3.88706e-05)
(0.00486995 -8.62647e-22 -0.000143933)
(0.00379608 0 -0.000223814)
(0.0020388 7.78251e-22 -0.000175404)
(-0.000368318 0 1.38121e-05)
(-0.00331959 -4.30171e-22 0.000339985)
(-0.00664814 -3.81041e-22 0.000785611)
(-0.0101364 1.48091e-22 0.00131898)
(-0.0135495 3.46925e-22 0.00190089)
(-0.0166467 -5.98533e-22 0.00248395)
(-0.0192279 -3.24525e-21 0.00302462)
(-0.0211319 -3.92912e-21 0.00348001)
(-0.0222878 0 0.00382397)
(-0.0226752 0 0.00403525)
(-0.0223801 -4.72328e-24 0.00411752)
(-0.0214997 0 0.00407355)
(-0.0202231 2.00165e-21 0.00393342)
(-0.0186799 0 0.00371292)
(-0.0170893 2.964e-21 0.00345836)
(-0.0155376 0 0.00318418)
(-0.0142294 1.88245e-21 0.00294152)
(-0.0131514 0 0.00272657)
(-0.0124677 -1.02504e-21 0.0025846)
(-0.0120305 0 0.00248236)
(-0.0119888 0 0.00246193)
(-0.0120758 2.95011e-22 0.00246237)
(-0.0124929 0 0.00253536)
(-0.0128748 0 0.00259699)
(-0.0135433 0 0.00272273)
(-0.0140286 -1.94495e-22 0.00280632)
(-0.0148221 -6.65405e-22 0.00295733)
(-0.0153072 0 0.00304059)
(-0.0161927 0 0.00320883)
(-0.0166521 7.64044e-22 0.00328675)
(-0.0176725 9.18657e-22 0.00348044)
(-0.0181266 0 0.00355774)
(-0.0193635 0 0.00379226)
(-0.0198351 0 0.00387363)
(-0.0213779 0 0.00416557)
(-0.021865 2.89293e-21 0.00425152)
(-0.0237976 -2.93887e-21 0.00461722)
(-0.0242461 5.83314e-21 0.00469973)
(-0.0266287 0 0.0051521)
(-0.0268967 0 0.00520687)
(-0.0297764 0 0.00575475)
(-0.0296318 4.18696e-24 0.00573667)
(-0.0331234 4.90254e-21 0.00639674)
(-0.0322848 4.84096e-21 0.00624651)
(-0.0367075 -9.52046e-21 0.00707289)
(-0.0348429 -5.45857e-24 0.00672489)
(-0.0408088 4.34529e-21 0.00783609)
(-0.0373454 3.8863e-21 0.00718877)
(-0.0458503 0 0.0087828)
(-0.0396201 0 0.00761559)
(-0.0520775 0 0.00996462)
(-0.0411098 5.4219e-22 0.00789539)
(-0.0595938 0 0.0114043)
(-0.0412668 0 0.0079278)
(-0.0678661 9.68744e-21 0.0130192)
(-0.0400154 1.22475e-20 0.00771012)
(-0.0748395 0 0.0144128)
(-0.0385549 0 0.00745109)
(-0.0771235 0 0.0149409)
(-0.0392019 5.79352e-20 0.00748102)
(-0.0714978 -3.16085e-24 0.0137342)
(-0.0443368 2.76442e-20 0.00846883)
(-0.0525589 -2.99474e-20 0.0100039)
(-0.0549668 5.71048e-20 0.010569)
(-0.0281238 3.2111e-20 0.00528056)
(-0.0700663 5.66922e-20 0.0135353)
(0.00828954 0 -0.00166271)
(-0.103809 0 0.0199633)
(0.0977728 0 -0.0189356)
(-0.175954 0 0.0349632)
(0.132273 -3.10734e-21 -0.0264123)
(-0.136917 0 0.0281282)
(0.0873744 0 -0.022056)
(0.505366 2.86457e-20 -0.0957734)
(-0.51123 -4.59167e-20 0.0970293)
(0.0203592 3.45186e-19 -0.00721024)
(0.109696 -1.15337e-19 -0.0290087)
(1.81318 0 -0.337466)
(-2.3436 0 0.481624)
(-0.0287004 0 -0.0464962)
(3.41114 -4.11922e-22 -0.63142)
(-3.38713 1.2671e-20 0.669754)
(2.4747 0 -0.523054)
(1.92933 1.70141e-19 -0.342709)
(-2.22906 -5.37818e-19 0.399411)
(6.92542 -2.03153e-18 -1.36617)
(0.992592 0 -0.122438)
(-4.00255 0 0.777783)
(3.06864 4.42814e-19 -0.590398)
(-5.05012 0 1.03633)
(-8.21674 2.50115e-19 1.56234)
(-1.82715 -2.40515e-19 0.29903)
(0.373445 0 -0.0858893)
(-0.0127857 0 -0.0176471)
(-0.0210879 0 -0.00722432)
(-0.0224866 4.84748e-22 -6.1219e-05)
(-0.0222923 0 0.00206941)
(-0.0228874 0 0.00276802)
(-0.0235735 -4.42779e-22 0.00311007)
(-0.0239335 -4.20903e-22 0.0033237)
(-0.0239946 0 0.00356286)
(-0.0238787 -2.5137e-24 0.00386078)
(-0.0236395 -7.09541e-22 0.00417316)
(-0.0232596 1.31043e-21 0.00446805)
(-0.0226877 5.9702e-22 0.00474534)
(-0.021877 -6.89988e-25 0.0049939)
(-0.0207687 4.64217e-22 0.00516102)
(-0.0192642 3.91748e-22 0.00518246)
(-0.0172684 -3.17279e-22 0.00504138)
(-0.0147915 4.79108e-22 0.00478937)
(-0.0120081 3.24495e-22 0.00450699)
(-0.00920424 0 0.00424441)
(-0.00665437 0 0.0039946)
(-0.00452797 9.93139e-23 0.00371267)
(-0.00288302 2.14595e-22 0.00335705)
(-0.00172637 0 0.00291991)
(-0.00108274 0 0.00243353)
(-0.00102168 8.17417e-22 0.00195502)
(-0.00163847 0 0.00154603)
(-0.003004 -1.46687e-21 0.00125542)
(-0.00512625 5.95997e-22 0.00111512)
(-0.007926 0 0.00113857)
(-0.0112515 1.8396e-22 0.0013273)
(-0.0148868 -6.57377e-23 0.00166702)
(-0.0185923 0 0.00213476)
(-0.0221083 5.50286e-22 0.00269099)
(-0.0252146 1.52755e-21 0.00329589)
(-0.0277146 1.38398e-23 0.00389792)
(-0.0295133 0 0.00446068)
(-0.0305493 0 0.00493933)
(-0.0308919 -2.17505e-21 0.00531956)
(-0.0305947 0 0.00557266)
(-0.0298458 0 0.00571424)
(-0.0287316 0 0.00573199)
(-0.027501 0 0.00567483)
(-0.0262026 0 0.00553907)
(-0.0251116 0 0.00539866)
(-0.0241671 0 0.00523456)
(-0.0236388 9.86016e-22 0.00512892)
(-0.0232953 -6.86365e-22 0.00502661)
(-0.0234276 0 0.00501817)
(-0.0236301 -2.79109e-22 0.00500674)
(-0.0242971 0 0.00510306)
(-0.024851 0 0.00516713)
(-0.0258791 -4.1559e-23 0.00534694)
(-0.0266015 0 0.00545579)
(-0.027878 3.12738e-22 0.00569508)
(-0.0286526 -4.41903e-22 0.00582194)
(-0.0301478 0 0.00610917)
(-0.0309284 -7.22185e-22 0.00624179)
(-0.0326952 0 0.00658285)
(-0.0334815 0 0.00671913)
(-0.0356201 0 0.0071286)
(-0.0364074 -2.45377e-21 0.00726556)
(-0.0390332 -2.62241e-21 0.00776082)
(-0.0397828 -2.79789e-24 0.00789058)
(-0.0430169 5.54935e-21 0.00849216)
(-0.0436235 9.90067e-25 0.00859834)
(-0.0475803 0 0.00932952)
(-0.047829 0 0.00937995)
(-0.0526397 4.94402e-21 0.010269)
(-0.052188 5.3184e-24 0.0102061)
(-0.0581007 0 0.0112963)
(-0.0564917 0 0.0110304)
(-0.0640387 4.48694e-21 0.0124078)
(-0.0606486 -5.56336e-24 0.0118114)
(-0.0707931 -5.82978e-24 0.013645)
(-0.0645599 0 0.0125218)
(-0.0789235 0 0.0151207)
(-0.067826 4.21957e-21 0.0130954)
(-0.0888244 -2.04074e-21 0.0169254)
(-0.0695282 0 0.013363)
(-0.100766 0 0.0191286)
(-0.068816 0 0.0131575)
(-0.114103 0 0.0216492)
(-0.0657863 0 0.0125161)
(-0.125835 0 0.0239664)
(-0.0628475 0 0.0119192)
(-0.130485 0 0.0250484)
(-0.0640942 -5.44563e-20 0.0120281)
(-0.122023 -2.73837e-20 0.0233885)
(-0.0732513 -2.59821e-20 0.0136476)
(-0.0909403 2.81409e-20 0.0172698)
(-0.0924321 -5.36102e-20 0.0174497)
(-0.0497087 -3.01617e-20 0.00922023)
(-0.118738 -2.6613e-20 0.0225448)
(0.0109147 0 -0.00219125)
(-0.173836 0 0.0325622)
(0.156209 0 -0.0298673)
(-0.298048 0 0.0590306)
(0.22198 2.91509e-21 -0.0458835)
(-0.238452 0 0.0494772)
(0.163845 0 -0.047992)
(0.774747 -2.68594e-20 -0.136997)
(-0.859877 0 0.191239)
(0.119208 -1.61162e-19 -0.0397762)
(0.227695 1.08086e-19 -0.0693845)
(2.74157 0 -0.482128)
(-3.84799 0 0.806825)
(0.349834 0 -0.207496)
(5.26104 2.2012e-21 -0.933168)
(-5.5335 0 1.1021)
(4.32416 1.46773e-19 -0.966439)
(2.84993 1.28476e-21 -0.444531)
(-3.2239 5.03336e-19 0.516461)
(11.2418 1.9009e-18 -2.23997)
(0.977886 0 0.0503364)
(-6.28656 -7.508e-19 1.1237)
(4.78135 -4.14198e-19 -0.907075)
(-8.60282 -3.59636e-19 1.85833)
(-12.83 0 2.3818)
(-2.65579 2.24897e-19 0.341558)
(0.665479 0 -0.169226)
(-0.013132 0 -0.00787425)
(-0.0194035 0 -0.00430386)
(-0.022808 -4.58249e-22 8.35363e-05)
(-0.024109 0 0.00219713)
(-0.0253441 4.25747e-22 0.00305288)
(-0.0266867 -8.23625e-22 0.00345301)
(-0.0277713 0 0.00374591)
(-0.0284721 7.49239e-22 0.00412871)
(-0.028884 -7.1402e-22 0.00462898)
(-0.0291143 -6.64855e-22 0.00515973)
(-0.029178 -6.18827e-22 0.00565793)
(-0.0290182 5.60439e-22 0.00612527)
(-0.0285747 -5.03321e-22 0.00655493)
(-0.0277909 8.73894e-22 0.00687464)
(-0.0265724 0 0.00699419)
(-0.0248052 5.99647e-22 0.0069033)
(-0.0224707 0 0.00670086)
(-0.0197424 0 0.00651829)
(-0.0169477 0 0.00641562)
(-0.0144148 -3.74792e-23 0.00634531)
(-0.0123368 -7.28967e-24 0.00620025)
(-0.0107514 -8.24682e-24 0.00589264)
(-0.00962196 2.81313e-22 0.00540344)
(-0.00893904 0 0.00478373)
(-0.00876544 0 0.00412103)
(-0.0092157 0 0.00350326)
(-0.0103901 1.36699e-21 0.00299472)
(-0.0123246 -9.77878e-24 0.00263615)
(-0.0149577 0 0.00244836)
(-0.0181514 0 0.00244462)
(-0.0216976 0 0.0026236)
(-0.0253682 0 0.00297694)
(-0.0289073 -1.03494e-21 0.00347376)
(-0.0321032 0 0.00408163)
(-0.0347545 1.73852e-21 0.00474613)
(-0.0367729 0 0.00542845)
(-0.0380828 0 0.00606844)
(-0.0387603 2.03957e-21 0.00664224)
(-0.0388291 0 0.00709682)
(-0.0384862 0 0.00743981)
(-0.0377726 -1.57608e-21 0.0076351)
(-0.0369633 2.67121e-21 0.00773744)
(-0.0360516 0 0.00772503)
(-0.0353704 1.71092e-21 0.00769335)
(-0.0347852 0 0.00760368)
(-0.0346589 -1.87129e-21 0.00757126)
(-0.0346505 -7.05274e-24 0.00751324)
(-0.0351907 0 0.00756548)
(-0.0357131 0 0.00759002)
(-0.0368163 1.48608e-22 0.0077557)
(-0.0376886 1.13033e-22 0.00786231)
(-0.0392084 7.55253e-23 0.00813168)
(-0.0402586 0 0.0082932)
(-0.0421063 2.90641e-22 0.00864378)
(-0.0432186 4.17136e-22 0.00882941)
(-0.0453858 5.44545e-22 0.00924875)
(-0.0465079 6.75287e-22 0.00944249)
(-0.0490729 0 0.00993826)
(-0.0501929 0 0.0101349)
(-0.0532856 2.1068e-21 0.0107249)
(-0.0543766 4.62229e-21 0.0109172)
(-0.0581471 2.47337e-21 0.0116231)
(-0.0591348 -4.45916e-24 0.0117975)
(-0.0637492 -2.61587e-21 0.012647)
(-0.0644764 -2.59751e-21 0.01278)
(-0.0701109 0 0.0138076)
(-0.0702862 0 0.013858)
(-0.0771653 -4.65913e-21 0.0151098)
(-0.0763315 -8.98303e-21 0.0150048)
(-0.0848489 0 0.0165487)
(-0.0823675 -4.29862e-21 0.0161672)
(-0.0932864 -4.21974e-21 0.0181229)
(-0.0882322 -4.11349e-21 0.0172801)
(-0.10289 -7.69607e-21 0.0198738)
(-0.0936929 0 0.0182861)
(-0.114359 0 0.0219385)
(-0.0981032 -3.97069e-21 0.0190751)
(-0.128234 3.84433e-21 0.0244438)
(-0.100154 -4.41595e-22 0.0194106)
(-0.144964 0 0.0275072)
(-0.0986419 0 0.0190403)
(-0.163826 0 0.0310587)
(-0.0937791 0 0.0179995)
(-0.180923 0 0.0344511)
(-0.0891773 0 0.0169899)
(-0.188609 -2.67001e-20 0.0362222)
(-0.0908673 1.55828e-23 0.0170335)
(-0.177774 2.57073e-20 0.0342022)
(-0.104201 0 0.0191398)
(-0.13484 2.64026e-20 0.025788)
(-0.133032 2.51531e-20 0.0247519)
(-0.0764232 0 0.0143719)
(-0.171653 -2.49403e-20 0.032113)
(0.00854068 -5.56173e-20 -0.00146613)
(-0.247332 0 0.0451879)
(0.206869 0 -0.0387839)
(-0.424189 0 0.0841683)
(0.312296 2.5748e-21 -0.0660172)
(-0.346899 0 0.0738724)
(0.254626 0 -0.081345)
(0.98903 -2.49027e-20 -0.163897)
(-1.2087 1.54337e-20 0.255634)
(0.277268 0 -0.0881591)
(0.350804 0 -0.127403)
(3.47842 0 -0.575815)
(-5.25716 0 1.12622)
(0.974542 0 -0.45564)
(6.77777 1.46444e-21 -1.13921)
(-7.50547 0 1.50541)
(6.25312 -1.3734e-19 -1.46234)
(3.48275 -7.62895e-20 -0.467397)
(-3.82926 0 0.531133)
(15.1896 2.74896e-22 -3.06339)
(0.478975 0 0.372971)
(-8.21403 -6.11519e-21 1.50818)
(6.16544 0 -1.15166)
(-12.2108 3.36257e-19 2.75198)
(-16.6858 0 3.04534)
(-3.23385 2.08371e-19 0.295777)
(0.985552 0 -0.267908)
(-0.0133578 0 -0.00338798)
(-0.0178212 0 -0.00228655)
(-0.0212494 0 0.000469814)
(-0.0230271 0 0.00242807)
(-0.0245366 -4.01878e-22 0.00339573)
(-0.026239 4.70077e-24 0.0038245)
(-0.0278905 0 0.00409533)
(-0.0292607 -7.0718e-22 0.00449525)
(-0.0303357 0 0.00510507)
(-0.0311907 1.24891e-21 0.00580802)
(-0.0318511 0 0.00648309)
(-0.0322585 -5.29091e-22 0.00710996)
(-0.0323384 0 0.00768956)
(-0.0320461 -8.25085e-22 0.00814169)
(-0.0313204 3.4632e-22 0.00834723)
(-0.0300476 -5.6401e-22 0.0082906)
(-0.0281527 4.29496e-22 0.00811755)
(-0.0257509 2.96473e-22 0.0080257)
(-0.0231735 0 0.00810015)
(-0.0208149 3.53825e-23 0.00825363)
(-0.0189363 -8.18352e-23 0.0083051)
(-0.0175937 -3.59184e-22 0.0081086)
(-0.0167165 -2.65641e-22 0.00763034)
(-0.0162456 0 0.00694432)
(-0.0162137 0 0.00617367)
(-0.0167373 0 0.00543335)
(-0.0179385 -6.39309e-22 0.00479803)
(-0.0198787 -5.2297e-22 0.00430875)
(-0.0225114 0 0.00398488)
(-0.025708 0 0.0038449)
(-0.0292626 -5.73395e-23 0.00389657)
(-0.0329563 0 0.00414513)
(-0.0365363 4.10226e-24 0.00456925)
(-0.0398029 1.32492e-21 0.00514738)
(-0.0425517 -1.61195e-21 0.00582703)
(-0.044708 0 0.0065738)
(-0.0461859 0 0.00731828)
(-0.0470793 -1.92499e-21 0.00803377)
(-0.0473879 0 0.00864656)
(-0.0473307 0 0.00916059)
(-0.0469072 1.48729e-21 0.00951607)
(-0.0464305 -2.52057e-21 0.00977523)
(-0.0458367 0 0.00989439)
(-0.0455259 -1.61423e-21 0.00998991)
(-0.0452805 0 0.00999672)
(-0.0455661 8.86496e-22 0.0100629)
(-0.0459153 6.18282e-22 0.010071)
(-0.0469112 0 0.0102052)
(-0.0478027 2.60119e-22 0.0102807)
(-0.0494118 -1.40147e-22 0.0105307)
(-0.0506614 -2.17495e-22 0.0106885)
(-0.0527505 -3.4211e-23 0.0110588)
(-0.0541835 1.54108e-22 0.0112789)
(-0.0566796 -1.68893e-24 0.0117519)
(-0.0581739 0 0.0120022)
(-0.0610894 -5.13252e-22 0.0125667)
(-0.0625861 -6.36417e-22 0.0128286)
(-0.0660287 7.58773e-22 0.0134944)
(-0.0675052 -8.77574e-22 0.013759)
(-0.0716403 -1.9849e-21 0.0145463)
(-0.073048 -2.17391e-21 0.0148014)
(-0.0780675 2.31796e-21 0.015736)
(-0.0792969 -2.41994e-21 0.0159621)
(-0.0854194 0 0.0170786)
(-0.08626 0 0.0172449)
(-0.0937323 -2.3833e-21 0.0185888)
(-0.0938123 0 0.0186451)
(-0.102962 0 0.0202805)
(-0.101702 4.22955e-21 0.0201394)
(-0.113077 0 0.0221597)
(-0.109647 4.04434e-21 0.0216716)
(-0.124258 7.93718e-21 0.0242319)
(-0.117418 0 0.0231585)
(-0.137001 3.61603e-21 0.0265417)
(-0.124653 0 0.0245122)
(-0.152151 0 0.0292422)
(-0.130455 3.72666e-21 0.0255665)
(-0.170414 -1.80859e-21 0.0324877)
(-0.133107 7.63535e-24 0.0260095)
(-0.192427 0 0.0364519)
(-0.131009 0 0.0254919)
(-0.217434 0 0.041101)
(-0.124418 -1.00854e-20 0.0240167)
(-0.240679 1.15836e-20 0.0456944)
(-0.118107 0 0.0224859)
(-0.252264 5.01013e-20 0.0483462)
(-0.120178 2.39864e-20 0.0223252)
(-0.239715 -4.82394e-20 0.0461525)
(-0.137943 -2.28637e-20 0.024734)
(-0.185423 -4.95303e-20 0.0357454)
(-0.177527 0 0.0324401)
(-0.109555 0 0.0208362)
(-0.229773 2.33857e-20 0.0422245)
(-0.000159232 5.21421e-20 0.000634635)
(-0.325638 -3.85967e-20 0.0577939)
(0.248007 0 -0.0452516)
(-0.554754 0 0.109673)
(0.400628 -2.41223e-21 -0.0869627)
(-0.464712 -3.69508e-20 0.100393)
(0.355557 0 -0.123752)
(1.14079 2.33228e-20 -0.170071)
(-1.53983 -1.44174e-20 0.312101)
(0.486631 0 -0.155345)
(0.461055 0 -0.19041)
(4.04618 0 -0.61335)
(-6.53106 0 1.41783)
(1.78198 0 -0.816117)
(7.95429 -3.28847e-21 -1.2439)
(-9.231 0 1.85521)
(8.1907 0 -1.99956)
(3.83537 0 -0.393638)
(-4.05807 -4.40822e-19 0.41911)
(18.6636 -8.3176e-19 -3.79513)
(-0.432693 0 0.869821)
(-9.82275 6.62118e-19 1.62907)
(7.1538 0 -1.30032)
(-15.7794 3.1606e-19 3.71757)
(-19.7108 0 3.49549)
(-3.61215 -1.94739e-19 0.155993)
(1.334 0 -0.382239)
(-0.0137822 3.90608e-22 -0.000958994)
(-0.0167378 3.92506e-22 -0.000555645)
(-0.019627 -3.87623e-22 0.00112622)
(-0.0213677 -3.79173e-22 0.00269921)
(-0.0227634 0 0.00368769)
(-0.0243434 3.60336e-22 0.00422053)
(-0.0260522 0 0.00453735)
(-0.0276848 -6.50379e-22 0.00492429)
(-0.0291595 -6.15773e-22 0.00555712)
(-0.030491 -1.16302e-21 0.00635534)
(-0.0316808 5.34524e-22 0.00715385)
(-0.0326573 -4.87263e-22 0.00789266)
(-0.0333162 0 0.00858104)
(-0.0336044 0 0.00914993)
(-0.033503 -3.26502e-22 0.00945054)
(-0.0329282 2.8832e-24 0.00943207)
(-0.0317436 -3.44543e-24 0.00926391)
(-0.0299389 -9.05359e-25 0.00922191)
(-0.027772 0 0.00944853)
(-0.0256816 0 0.0098356)
(-0.0240427 0 0.0101204)
(-0.0229954 3.21862e-22 0.0100782)
(-0.0224714 2.31374e-22 0.00964613)
(-0.0223559 0 0.00892091)
(-0.0226229 0 0.00806926)
(-0.0233664 6.21087e-22 0.00724053)
(-0.0247213 0 0.00652094)
(-0.0267793 0 0.00594774)
(-0.0295158 0 0.00553239)
(-0.0328145 0 0.00529369)
(-0.0364698 -5.31931e-24 0.00524559)
(-0.0402706 0 0.00540646)
(-0.0439655 2.19502e-24 0.00576435)
(-0.0473685 -1.24893e-21 0.00630999)
(-0.0502698 1.34342e-23 0.0069939)
(-0.0526078 0 0.0077893)
(-0.0542827 0 0.00861948)
(-0.0554092 0 0.00945875)
(-0.0559616 0 0.0102137)
(-0.0561883 0 0.0108879)
(-0.0560438 0 0.0113971)
(-0.055889 0 0.0118137)
(-0.0555949 1.94175e-21 0.012069)
(-0.055642 1.53131e-21 0.0123023)
(-0.0557174 0 0.0124165)
(-0.056408 8.49527e-22 0.0125951)
(-0.0571024 0 0.0126795)
(-0.0585601 0 0.0129073)
(-0.0598183 -4.9474e-22 0.0130396)
(-0.0619557 0 0.0133821)
(-0.0635907 1.04448e-22 0.0135938)
(-0.0662877 0 0.0140719)
(-0.0681189 -2.8815e-22 0.0143519)
(-0.0713175 -1.54119e-24 0.0149555)
(-0.0732136 0 0.0152728)
(-0.0769473 0 0.0159938)
(-0.0788397 0 0.0163282)
(-0.0832467 -1.42577e-21 0.0171787)
(-0.085099 1.64884e-21 0.0175174)
(-0.0903825 1.85488e-21 0.0185194)
(-0.0921216 2.03244e-21 0.0188443)
(-0.0985189 -4.35511e-21 0.0200277)
(-0.0999966 -2.26596e-21 0.0203134)
(-0.107784 0 0.0217196)
(-0.108732 0 0.0219277)
(-0.118235 1.59283e-24 0.0236136)
(-0.118196 0 0.023685)
(-0.129853 0 0.0257321)
(-0.128116 3.98261e-21 0.025565)
(-0.142643 0 0.0280923)
(-0.138175 0 0.0275092)
(-0.156843 -7.45583e-21 0.0307078)
(-0.148076 3.62358e-21 0.0294191)
(-0.173046 0 0.0336285)
(-0.157335 0 0.03118)
(-0.192255 0 0.037023)
(-0.164799 -3.49988e-21 0.0325661)
(-0.215351 0 0.0410702)
(-0.168337 7.59484e-22 0.0331863)
(-0.243184 -2.68894e-21 0.0460074)
(-0.165911 0 0.0325817)
(-0.275005 0 0.0518593)
(-0.157757 9.464e-21 0.0306908)
(-0.30526 -2.23801e-23 0.057823)
(-0.149754 1.14988e-20 0.0285767)
(-0.321738 -2.34851e-20 0.0615839)
(-0.152211 2.24594e-20 0.0280883)
(-0.308337 2.26136e-20 0.0594544)
(-0.174755 2.14369e-20 0.0306426)
(-0.243417 8.69791e-24 0.0474457)
(-0.226301 0 0.0405047)
(-0.150013 -2.48298e-20 0.0289215)
(-0.293687 0 0.053006)
(-0.0161636 0 0.00440129)
(-0.409782 3.61581e-20 0.0707047)
(0.278315 0 -0.0489539)
(-0.689765 0 0.135523)
(0.484556 0 -0.107808)
(-0.593966 3.45976e-20 0.129345)
(0.462852 0 -0.172451)
(1.22775 2.14781e-20 -0.156819)
(-1.83042 0 0.404271)
(0.729457 0 -0.236189)
(0.541916 0 -0.252228)
(4.46972 0 -0.602607)
(-7.63527 0 1.6812)
(2.71444 -3.47571e-20 -1.23382)
(8.79994 -6.39716e-21 -1.24409)
(-10.6492 -6.61609e-21 2.13982)
(10.061 0 -2.56191)
(3.92392 0 -0.236875)
(-3.93914 8.2424e-19 0.215654)
(21.5787 0 -4.41647)
(-1.69221 3.31141e-19 1.50726)
(-11.0504 0 1.83883)
(7.70935 -3.33917e-19 -1.34011)
(-19.2167 -2.95365e-19 4.6846)
(-21.8439 0 3.7353)
(-3.84749 -1.80254e-19 -0.0583727)
(1.71663 0 -0.514121)
(-0.0142022 -3.67848e-22 0.000722511)
(-0.0162017 -7.36438e-22 0.00094131)
(-0.0186033 3.65124e-22 0.00191129)
(-0.0201647 5.57368e-24 0.00304106)
(-0.0213264 -3.40846e-22 0.00395882)
(-0.0225768 0 0.00459123)
(-0.023995 0 0.00501318)
(-0.025463 6.12432e-22 0.00544038)
(-0.0269013 1.14906e-21 0.00608469)
(-0.0283021 1.02296e-23 0.00693709)
(-0.0296625 -5.03286e-22 0.00781993)
(-0.0309231 4.58784e-22 0.00862909)
(-0.0319665 -4.02668e-22 0.00937702)
(-0.0327134 0 0.0100317)
(-0.0331704 0 0.0104357)
(-0.0333152 2.46875e-22 0.0104746)
(-0.0329909 -7.5066e-22 0.0102902)
(-0.0320319 -5.22112e-22 0.0102259)
(-0.0305159 0 0.0105243)
(-0.0288325 0 0.0111053)
(-0.0274647 0 0.0116358)
(-0.0267066 -8.7536e-24 0.0117874)
(-0.0265659 -4.25149e-22 0.0114375)
(-0.0268967 2.55398e-22 0.0106921)
(-0.0275901 5.60302e-22 0.00976766)
(-0.0286799 -1.14495e-21 0.00886083)
(-0.0302909 5.10549e-22 0.00807738)
(-0.0325448 4.15137e-22 0.00745043)
(-0.0354494 2.80701e-22 0.00697772)
(-0.038911 0 0.00667262)
(-0.0427259 5.59017e-23 0.00655167)
(-0.0466907 -2.49251e-22 0.00664581)
(-0.0505547 4.25456e-22 0.00695185)
(-0.0541495 1.15947e-21 0.00747316)
(-0.0572583 2.82373e-21 0.00816248)
(-0.0598341 0 0.00900234)
(-0.0617561 0 0.00990928)
(-0.0631647 1.66952e-21 0.0108623)
(-0.0640032 0 0.0117486)
(-0.0645589 -1.47485e-21 0.0125752)
(-0.0647325 -1.30538e-21 0.0132322)
(-0.0649427 0 0.0138064)
(-0.0649806 -3.65271e-21 0.0142011)
(-0.065422 -1.44106e-21 0.0145825)
(-0.0658401 0 0.0148156)
(-0.0669669 -7.99372e-22 0.0151235)
(-0.0680208 -5.66952e-22 0.0152982)
(-0.0699718 0 0.0156373)
(-0.0716078 4.74722e-22 0.0158383)
(-0.0743101 -1.33991e-22 0.0162887)
(-0.0763406 -1.08006e-22 0.0165616)
(-0.0796912 0 0.0171602)
(-0.0819311 2.23847e-24 0.017504)
(-0.0858907 -4.77786e-22 0.0182498)
(-0.0881997 0 0.0186365)
(-0.092826 0 0.0195269)
(-0.0951242 5.57357e-22 0.0199366)
(-0.100589 6.69047e-22 0.0209875)
(-0.102824 -1.54464e-21 0.0214044)
(-0.10937 -1.74363e-21 0.02264)
(-0.111441 -1.91037e-21 0.0230402)
(-0.119357 2.04354e-21 0.0244941)
(-0.121073 4.25275e-21 0.0248457)
(-0.130699 0 0.0265663)
(-0.13173 0 0.0268239)
(-0.143477 4.2057e-21 0.0288793)
(-0.143272 0 0.0289747)
(-0.1577 0 0.0314636)
(-0.155411 -3.74052e-21 0.0312805)
(-0.173416 0 0.0343468)
(-0.167792 3.57073e-21 0.0336812)
(-0.190927 1.05117e-24 0.0375519)
(-0.180056 -3.40184e-21 0.0360658)
(-0.210935 0 0.0411363)
(-0.191605 0 0.0382964)
(-0.234613 0 0.0452837)
(-0.201031 -3.276e-21 0.0400862)
(-0.263031 0 0.0501956)
(-0.205779 -3.53681e-22 0.040961)
(-0.297274 5.03542e-21 0.0561778)
(-0.203345 0 0.0403379)
(-0.336646 0 0.0633363)
(-0.193877 0 0.0380564)
(-0.374853 -2.15759e-23 0.0708449)
(-0.184286 -1.07799e-20 0.0352955)
(-0.397341 -2.19541e-20 0.0759682)
(-0.18722 -2.10499e-20 0.034337)
(-0.384139 2.11649e-20 0.0741737)
(-0.214978 0 0.037026)
(-0.309618 2.17403e-20 0.060809)
(-0.279781 0 0.0489245)
(-0.19874 2.32572e-20 0.0388925)
(-0.364056 0 0.0644692)
(-0.0405271 0 0.0100626)
(-0.500965 0 0.0839773)
(0.296624 -3.79137e-20 -0.0495836)
(-0.829531 -1.01242e-20 0.161596)
(0.561264 0 -0.128251)
(-0.736835 -3.20879e-20 0.161356)
(0.571856 2.5491e-20 -0.227403)
(1.24549 -2.00976e-20 -0.121853)
(-2.08306 1.33049e-20 0.449724)
(0.985736 0 -0.328133)
(0.581147 0 -0.312029)
(4.77625 0 -0.548926)
(-8.54698 0 1.90244)
(3.70893 3.25088e-20 -1.66378)
(9.33548 -1.97721e-21 -1.14269)
(-11.7202 1.10093e-20 2.3453)
(11.7887 0 -3.1309)
(3.78213 0 -7.87662e-05)
(-3.55021 -3.85183e-19 -0.156502)
(23.878 0 -4.90652)
(-3.18451 -3.09434e-19 2.27289)
(-11.9441 0 2.02544)
(7.78862 6.22203e-19 -1.26036)
(-22.397 0 5.73305)
(-23.0641 0 3.74671)
(-4.00107 1.68395e-19 -0.332146)
(2.14676 0 -0.665093)
(-0.0146045 0 0.00191421)
(-0.0160363 3.45021e-22 0.00208946)
(-0.0180931 0 0.00267614)
(-0.0194765 3.30788e-22 0.00347383)
(-0.0204566 6.35603e-22 0.0042756)
(-0.0214367 0 0.00494765)
(-0.0225244 -2.90827e-22 0.00545994)
(-0.0236646 0 0.00595909)
(-0.0248081 -1.20308e-23 0.00663716)
(-0.025944 9.9162e-22 0.00753209)
(-0.0270881 0 0.00848563)
(-0.0282228 0 0.00935642)
(-0.0292647 3.78734e-22 0.0101407)
(-0.0301274 0 0.0108525)
(-0.0308258 0 0.0113647)
(-0.0314177 0 0.0115008)
(-0.0318121 3.50465e-22 0.011314)
(-0.0317515 2.44322e-22 0.0111612)
(-0.0310766 1.39713e-22 0.011407)
(-0.0299818 0 0.0120747)
(-0.0289532 0 0.0128146)
(-0.0284521 -1.30443e-22 0.0131874)
(-0.0286518 1.94954e-22 0.0129666)
(-0.0294501 -2.40211e-22 0.0122317)
(-0.0306647 -5.26979e-22 0.0112419)
(-0.0322299 1.02623e-21 0.0102556)
(-0.0342163 -2.62507e-23 0.00941426)
(-0.0367571 -3.90436e-22 0.00875301)
(-0.0398976 -2.63996e-22 0.00825152)
(-0.0435814 0 0.00791055)
(-0.0476126 0 0.00774373)
(-0.0517975 2.34403e-22 0.00779372)
(-0.0558826 0 0.00806561)
(-0.0597221 -1.09035e-21 0.00857587)
(-0.0630916 -1.3221e-21 0.00927747)
(-0.0659622 1.46819e-21 0.0101633)
(-0.068184 0 0.0111427)
(-0.0699274 -1.56981e-21 0.0122036)
(-0.0710989 -1.49236e-21 0.0132133)
(-0.0720371 1.14181e-23 0.0141865)
(-0.0725778 2.4462e-21 0.0149856)
(-0.0732115 0 0.0157171)
(-0.0736287 1.71597e-21 0.0162521)
(-0.0745206 0 0.0167903)
(-0.0753194 0 0.0171515)
(-0.0769344 0 0.0176054)
(-0.0783775 -5.52518e-24 0.0178843)
(-0.0808733 0 0.0183548)
(-0.0829103 -2.25344e-22 0.0186379)
(-0.0862322 2.55587e-22 0.0192159)
(-0.0886756 1.01496e-22 0.0195601)
(-0.0927416 0 0.0202966)
(-0.0954027 1.24306e-22 0.0207103)
(-0.100196 4.45847e-22 0.021614)
(-0.102926 0 0.0220733)
(-0.108533 0 0.023149)
(-0.111238 -5.23552e-22 0.0236364)
(-0.117866 -6.24368e-22 0.0249056)
(-0.120477 7.24121e-22 0.0254031)
(-0.128416 1.62602e-21 0.0268926)
(-0.130801 0 0.027371)
(-0.140393 0 0.0291187)
(-0.142315 -6.48456e-24 0.0295402)
(-0.153973 2.02412e-21 0.0316018)
(-0.155035 0 0.0319141)
(-0.169266 -1.97263e-21 0.0343687)
(-0.16882 0 0.0344949)
(-0.186319 0 0.0374584)
(-0.183366 0 0.0372685)
(-0.205225 0 0.0409091)
(-0.198286 -1.09836e-25 0.0401736)
(-0.22636 1.0447e-24 0.0447536)
(-0.213165 3.18615e-21 0.0430894)
(-0.25055 0 0.0490596)
(-0.227295 2.65482e-21 0.0458592)
(-0.27915 0 0.054025)
(-0.239017 3.07188e-21 0.0481342)
(-0.313437 -1.49635e-21 0.0598726)
(-0.245353 -3.25686e-22 0.0493548)
(-0.354747 -2.35577e-21 0.066981)
(-0.243306 0 0.0488006)
(-0.402479 6.51393e-21 0.0755598)
(-0.232871 0 0.0461774)
(-0.449662 -9.50837e-21 0.0848009)
(-0.221913 -1.00635e-20 0.0427276)
(-0.479395 2.05668e-20 0.0915664)
(-0.225534 0 0.0411662)
(-0.467632 -3.96284e-20 0.0904312)
(-0.259121 0 0.0438345)
(-0.384784 2.03382e-20 0.0760057)
(-0.338481 0 0.057924)
(-0.256728 2.17469e-20 0.0511505)
(-0.441694 0 0.076571)
(-0.0744046 4.27397e-20 0.0179179)
(-0.60054 -3.16432e-20 0.0978414)
(0.301823 3.54795e-20 -0.0468816)
(-0.974781 9.47338e-21 0.187825)
(0.627742 0 -0.14756)
(-0.895691 5.99205e-20 0.196473)
(0.678095 -4.75811e-20 -0.286998)
(1.19379 0 -0.0654348)
(-2.27642 -1.24433e-20 0.50316)
(1.22801 0 -0.424847)
(0.574367 0 -0.364645)
(4.99144 -4.53897e-20 -0.458885)
(-9.25851 0 2.08107)
(4.68451 0 -2.16139)