/*--------------------------------*- C++ -*----------------------------------*\
| =========                 |                                                 |
| \\      /  F ield         | OpenFOAM: The Open Source CFD Toolbox           |
|  \\    /   O peration     | Version:  2412                                  |
|   \\  /    A nd           | Website:  www.openfoam.com                      |
|    \\/     M anipulation  |                                                 |
\*---------------------------------------------------------------------------*/
FoamFile
{
    version     2.0;
    format      ascii;
    arch        "LSB;label=32;scalar=64";
    class       surfaceScalarField;
    location    "1.395";
    object      ddtCorrDdt0(phi);
}
// * * * * * * * * * * * * * * * * * * * * * * * * * * * * * * * * * * * * * //

dimensions      [0 3 -2 0 0 0 0];

oriented        oriented;

internalField   nonuniform List<scalar> 
24930
(
-1.77606e-05
-5.0272e-05
-1.96569e-05
-6.66546e-06
-1.25781e-05
-5.76997e-06
-2.16522e-06
-6.09462e-06
-6.60942e-07
-6.3403e-06
-6.90827e-07
-6.3625e-06
-8.46261e-07
-6.15108e-06
-9.37918e-07
-5.71493e-06
-9.57531e-07
-5.15489e-06
-8.67607e-07
-4.507e-06
-7.39366e-07
-3.77623e-06
-5.85357e-07
-2.95553e-06
-3.94265e-07
-2.03711e-06
-1.57429e-07
-1.00428e-06
1.06928e-07
1.68804e-07
3.67012e-07
1.49076e-06
6.11471e-07
2.91762e-06
8.62855e-07
4.34221e-06
1.15497e-06
5.6202e-06
1.49742e-06
6.61324e-06
1.85986e-06
7.22029e-06
2.18495e-06
7.38344e-06
2.41519e-06
7.07571e-06
2.51315e-06
6.28695e-06
2.46705e-06
5.02058e-06
2.28335e-06
3.30119e-06
1.97748e-06
1.18743e-06
1.56683e-06
-1.22143e-06
1.07253e-06
-3.78621e-06
5.20534e-07
-6.3411e-06
-5.30714e-08
-8.70789e-06
-6.0851e-07
-1.07192e-05
-1.10057e-06
-1.22331e-05
-1.49297e-06
-1.31576e-05
-1.75107e-06
-1.34537e-05
-1.86221e-06
-1.31515e-05
-1.81679e-06
-1.23292e-05
-1.63669e-06
-1.11205e-05
-1.3373e-06
-9.6686e-06
-9.70923e-07
-8.13845e-06
-5.61716e-07
-6.65744e-06
-1.72691e-07
-5.35437e-06
1.93309e-07
-4.28983e-06
4.82838e-07
-3.52998e-06
7.30339e-07
-3.05491e-06
8.86407e-07
-2.8728e-06
1.01675e-06
-2.89924e-06
1.0616e-06
-3.12008e-06
1.115e-06
-3.4257e-06
1.09477e-06
-3.82085e-06
1.1181e-06
-4.20037e-06
1.07014e-06
-4.60929e-06
1.09089e-06
-4.95442e-06
1.03077e-06
-5.31786e-06
1.05423e-06
-5.61081e-06
9.82842e-07
-5.94027e-06
1.00724e-06
-6.21738e-06
9.29938e-07
-6.56081e-06
9.57415e-07
-6.88284e-06
8.83941e-07
-7.29845e-06
9.1158e-07
-7.72997e-06
8.48721e-07
-8.26925e-06
8.65589e-07
-8.86302e-06
8.22278e-07
-9.54869e-06
8.16295e-07
-1.0317e-05
8.14582e-07
-1.11102e-05
7.80247e-07
-1.20041e-05
8.60743e-07
-1.28086e-05
7.87341e-07
-1.37618e-05
9.78108e-07
-1.45115e-05
8.04687e-07
-1.55512e-05
1.07938e-06
-1.63104e-05
6.96596e-07
-1.75969e-05
1.04146e-06
-1.85001e-05
4.14889e-07
-2.01856e-05
9.56318e-07
-2.12833e-05
1.4738e-07
-2.33386e-05
9.19978e-07
-2.45688e-05
-9.43907e-08
-2.685e-05
7.89437e-07
-2.81954e-05
-2.6306e-07
-3.03391e-05
5.93723e-07
-3.16925e-05
8.29355e-08
-3.29806e-05
5.69844e-07
-3.40315e-05
1.00156e-06
-3.40349e-05
5.34068e-07
-3.88479e-05
5.52973e-06
-3.37469e-05
-4.68927e-06
-3.30894e-05
-9.97647e-07
-3.22676e-05
-1.96027e-06
-2.89052e-05
-4.7865e-06
-3.15672e-05
1.70018e-06
-2.44275e-05
-7.26623e-06
-2.87655e-05
4.90978e-06
-1.94776e-05
-7.31284e-06
-1.90237e-05
2.03345e-06
2.46134e-06
-1.79475e-05
-4.51955e-05
5.28619e-05
4.54086e-05
-7.29006e-05
-5.27768e-05
0.000111275
0.000232504
-0.000311738
6.69031e-05
7.99694e-05
-0.000247818
0.000292209
1.51203e-05
-0.000198176
0.000657496
-0.000603107
0.000231962
0.000551468
-0.00136029
0.00145253
0.0013618
-0.00269342
0.000367618
0.00100117
-0.000944701
0.00128505
0.00220512
-0.00318516
-0.000138954
0.00232155
0.00174404
-0.00196321
0.00487793
-0.00318372
-0.00169757
0.00648526
-0.000815885
-0.00111303
-0.00037715
-0.000418931
-0.00747599
0.00713477
-0.00595061
-0.00151614
-0.00100007
-0.0049508
-0.00138905
-2.32282e-05
-3.24607e-05
3.91103e-06
-2.10084e-05
-1.75563e-05
-1.97318e-05
-5.50088e-06
-1.94639e-05
-2.77086e-06
-1.96448e-05
-2.21062e-06
-1.97908e-05
-2.15156e-06
-1.96298e-05
-2.19983e-06
-1.92329e-05
-2.07913e-06
-1.86683e-05
-1.76303e-06
-1.79653e-05
-1.34643e-06
-1.70903e-05
-8.69813e-07
-1.60012e-05
-3.08234e-07
-1.46584e-05
3.43996e-07
-1.29958e-05
1.01232e-06
-1.09235e-05
1.59785e-06
-8.39811e-06
2.08632e-06
-5.5034e-06
2.57689e-06
-2.46236e-06
3.19208e-06
4.37126e-07
3.95906e-06
2.94239e-06
4.77072e-06
4.89187e-06
5.44561e-06
6.20437e-06
5.82498e-06
6.83127e-06
5.8351e-06
6.71603e-06
5.49114e-06
5.7893e-06
4.85757e-06
3.99604e-06
4.00611e-06
1.33599e-06
2.99056e-06
-2.1092e-06
1.85491e-06
-6.16783e-06
6.44731e-07
-1.05953e-05
-5.72209e-07
-1.50963e-05
-1.71927e-06
-1.93621e-05
-2.70596e-06
-2.30976e-05
-3.46317e-06
-2.60661e-05
-3.92246e-06
-2.81035e-05
-4.06516e-06
-2.91527e-05
-3.87216e-06
-2.92417e-05
-3.39626e-06
-2.85023e-05
-2.66612e-06
-2.71047e-05
-1.80076e-06
-2.52819e-05
-8.43584e-07
-2.32375e-05
6.14699e-08
-2.12084e-05
9.24421e-07
-1.93472e-05
1.6176e-06
-1.7832e-05
2.23439e-06
-1.67054e-05
2.64044e-06
-1.60495e-05
2.99766e-06
-1.57834e-05
3.13935e-06
-1.59241e-05
3.30425e-06
-1.63178e-05
3.27373e-06
-1.69807e-05
3.35489e-06
-1.77411e-05
3.25135e-06
-1.8661e-05
3.3326e-06
-1.9578e-05
3.21343e-06
-2.06064e-05
3.32104e-06
-2.1595e-05
3.19663e-06
-2.26992e-05
3.32495e-06
-2.3781e-05
3.20502e-06
-2.50119e-05
3.3458e-06
-2.62707e-05
3.24381e-06
-2.77092e-05
3.37173e-06
-2.92416e-05
3.29897e-06
-3.09597e-05
3.37433e-06
-3.28493e-05
3.35565e-06
-3.48801e-05
3.33168e-06
-3.71611e-05
3.41881e-06
-3.94536e-05
3.24689e-06
-4.20822e-05
3.53926e-06
-4.44982e-05
3.16635e-06
-4.74008e-05
3.79448e-06
-4.98138e-05
3.1146e-06
-5.30277e-05
4.1815e-06
-5.54557e-05
2.98717e-06
-5.92109e-05
4.58225e-06
-6.1764e-05
2.61047e-06
-6.63685e-05
4.98933e-06
-6.90616e-05
2.01039e-06
-7.45853e-05
5.33734e-06
-7.72065e-05
1.15289e-06
-8.35035e-05
5.45408e-06
-8.59362e-05
2.90407e-07
-9.23293e-05
4.88024e-06
-9.46385e-05
1.38389e-07
-9.94827e-05
3.14926e-06
-0.000101965
1.42175e-06
-0.000103384
3.09359e-07
-0.000106108
7.20361e-06
-0.000103282
-7.96078e-06
-0.000106562
2.33103e-06
-9.76149e-05
-1.06568e-05
-9.7004e-05
-5.27839e-06
-9.20482e-05
-3.47251e-06
-8.56563e-05
-1.39933e-05
-7.99194e-05
-9.58787e-07
-7.62388e-05
-1.10351e-05
-4.19137e-05
-3.08327e-05
-3.43685e-05
-2.34992e-05
-0.000113113
0.000136098
7.10602e-05
-0.000257679
-0.000129696
0.000316789
0.000681124
-0.00110495
8.92399e-05
0.000701072
-0.000671713
0.00122923
0.00018502
-0.00109629
0.00209373
-0.00241616
5.65682e-05
0.00256001
-0.00358246
0.00532309
0.00439345
-0.0106612
0.000559148
0.00481964
-0.00221401
0.00404053
0.00667254
-0.0120644
-0.000323889
0.00932029
0.006193
-0.0084258
0.0136124
-0.0105546
-0.00521826
0.0253609
-0.0021979
-0.00393477
-0.00229677
-0.000349001
-0.0227991
0.0276046
-0.0175376
-0.00679237
-0.00260679
-0.0198848
-0.00535706
-2.44234e-05
-2.15457e-05
1.17495e-05
-2.8678e-05
-1.55972e-05
-2.90316e-05
-6.91414e-06
-2.97739e-05
-3.70059e-06
-3.06905e-05
-2.86652e-06
-3.13555e-05
-2.83461e-06
-3.16343e-05
-2.94583e-06
-3.15987e-05
-2.78225e-06
-3.13755e-05
-2.28895e-06
-3.10034e-05
-1.62775e-06
-3.04215e-05
-8.98973e-07
-2.95525e-05
-7.06079e-08
-2.83291e-05
8.69229e-07
-2.66528e-05
1.78739e-06
-2.43877e-05
2.50686e-06
-2.14566e-05
3.0238e-06
-1.79627e-05
3.56647e-06
-1.42092e-05
4.40438e-06
-1.05822e-05
5.59762e-06
-7.39557e-06
6.92222e-06
-4.81321e-06
8.01005e-06
-2.88225e-06
8.56058e-06
-1.62321e-06
8.46587e-06
-1.10093e-06
7.80152e-06
-1.43241e-06
6.72816e-06
-2.74121e-06
5.39553e-06
-5.09248e-06
3.89367e-06
-8.44964e-06
2.27546e-06
-1.26612e-05
5.89465e-07
-1.74811e-05
-1.07716e-06
-2.2594e-05
-2.61962e-06
-2.76566e-05
-3.90927e-06
-3.23266e-05
-4.85235e-06
-3.6314e-05
-5.35332e-06
-3.93992e-05
-5.39425e-06
-4.14756e-05
-4.95058e-06
-4.25274e-05
-4.112e-06
-4.26537e-05
-2.92362e-06
-4.19988e-05
-1.57674e-06
-4.07829e-05
-1.30763e-07
-3.92073e-05
1.19349e-06
-3.75252e-05
2.43707e-06
-3.59148e-05
3.41078e-06
-3.45934e-05
4.28899e-06
-3.36374e-05
4.85647e-06
-3.31657e-05
5.38604e-06
-3.31184e-05
5.59694e-06
-3.35372e-05
5.88386e-06
-3.42747e-05
5.87678e-06
-3.5362e-05
6.08111e-06
-3.66246e-05
5.99872e-06
-3.8132e-05
6.23472e-06
-3.97146e-05
6.14849e-06
-4.14878e-05
6.43368e-06
-4.32967e-05
6.34299e-06
-4.52928e-05
6.65301e-06
-4.73481e-05
6.5723e-06
-4.96191e-05
6.88707e-06
-5.2015e-05
6.84199e-06
-5.46475e-05
7.10951e-06
-5.74937e-05
7.12376e-06
-6.05634e-05
7.26723e-06
-6.39581e-05
7.39489e-06
-6.74985e-05
7.32498e-06
-7.14909e-05
7.67488e-06
-7.54427e-05
7.29507e-06
-8.00067e-05
8.07331e-06
-8.42138e-05
7.27109e-06
-8.9301e-05
8.75737e-06
-9.36084e-05
7.30645e-06
-9.92972e-05
9.75319e-06
-0.000103677
7.19377e-06
-0.000110264
1.08455e-05
-0.000114746
6.51772e-06
-0.000122667
1.20038e-05
-0.000127122
5.19618e-06
-0.000136553
1.31404e-05
-0.000140516
3.16473e-06
-0.000151382
1.40661e-05
-0.000154556
9.4863e-07
-0.000165951
1.35755e-05
-0.000168632
1.22407e-07
-0.000177925
1.00128e-05
-0.000181455
3.09638e-06
-0.000184926
2.71074e-06
-0.000190604
1.26151e-05
-0.000185474
-1.28161e-05
-0.000194529
1.17789e-05
-0.000173484
-3.16111e-05
-0.000181079
1.88213e-06
-0.000162523
-2.28187e-05
-0.000163728
-1.34232e-05
-0.000139602
-2.49088e-05
-0.000149913
4.02382e-07
-6.72232e-05
-0.0001117
-9.5288e-05
8.53693e-06
-0.000175784
0.000223084
8.14735e-05
-0.000506368
-0.000187417
0.000594962
0.00115207
-0.00243748
2.28073e-05
0.00183003
-0.00107213
0.0104244
0.000488806
-0.00269958
0.00356094
-0.0055065
-0.000503091
0.00662284
-0.00558295
0.0104191
0.00784036
-0.0240927
0.000393818
0.0122479
-0.00316492
0.0075765
0.0115313
-0.0267868
-0.00039941
0.0212246
0.0115848
-0.0203995
0.0220965
-0.0210379
-0.00949485
0.0569732
-0.00359822
-0.00982729
-0.00529022
0.00131907
-0.0392823
0.061581
-0.0290446
-0.0170369
-0.00383898
-0.0450916
-0.0117996
-2.40701e-05
-1.27452e-05
1.36646e-05
-3.04772e-05
-1.13784e-05
-3.28234e-05
-6.24279e-06
-3.48442e-05
-3.32074e-06
-3.68582e-05
-2.38302e-06
-3.86006e-05
-2.39092e-06
-3.98648e-05
-2.66184e-06
-4.06517e-05
-2.62876e-06
-4.11243e-05
-2.09929e-06
-4.13799e-05
-1.27699e-06
-4.13734e-05
-3.66309e-07
-4.10054e-05
6.33429e-07
-4.01956e-05
1.74974e-06
-3.8847e-05
2.80779e-06
-3.68049e-05
3.53555e-06
-3.39474e-05
3.91607e-06
-3.03562e-05
4.33065e-06
-2.63817e-05
5.26453e-06
-2.2508e-05
6.86133e-06
-1.91313e-05
8.76445e-06
-1.64317e-05
1.03533e-05
-1.44131e-05
1.11259e-05
-1.30394e-05
1.09256e-05
-1.23497e-05
9.91694e-06
-1.24796e-05
8.39808e-06
-1.35999e-05
6.62221e-06
-1.58258e-05
4.71516e-06
-1.91555e-05
2.72101e-06
-2.34519e-05
6.70431e-07
-2.84695e-05
-1.34362e-06
-3.3885e-05
-3.19468e-06
-3.93425e-05
-4.71777e-06
-4.44825e-05
-5.79583e-06
-4.89961e-05
-6.30425e-06
-5.26446e-05
-6.22275e-06
-5.53071e-05
-5.51435e-06
-5.69548e-05
-4.3026e-06
-5.76778e-05
-2.64506e-06
-5.76089e-05
-8.08561e-07
-5.69618e-05
1.13428e-06
-5.59312e-05
2.88336e-06
-5.47762e-05
4.51999e-06
-5.3682e-05
5.79167e-06
-5.28843e-05
6.96283e-06
-5.24685e-05
7.72654e-06
-5.25696e-05
8.47248e-06
-5.31283e-05
8.79128e-06
-5.4198e-05
9.24515e-06
-5.5628e-05
9.29923e-06
-5.746e-05
9.67313e-06
-5.95155e-05
9.65365e-06
-6.18738e-05
1.00963e-05
-6.43623e-05
1.00933e-05
-6.71017e-05
1.06129e-05
-6.99409e-05
1.06177e-05
-7.30301e-05
1.11703e-05
-7.62608e-05
1.12091e-05
-7.97719e-05
1.17595e-05
-8.3516e-05
1.18753e-05
-8.75548e-05
1.23347e-05
-9.19484e-05
1.25699e-05
-9.66042e-05
1.28126e-05
-0.00010177
1.32639e-05
-0.000107082
1.31424e-05
-0.000113093
1.39957e-05
-0.000118999
1.33386e-05
-0.000125854
1.49359e-05
-0.00013218
1.35262e-05
-0.000139866
1.63415e-05
-0.000146432
1.37665e-05
-0.000155086
1.82848e-05
-0.000161822
1.37407e-05
-0.000171829
2.05118e-05
-0.000178681
1.27865e-05
-0.000190628
2.30523e-05
-0.000197294
1.06108e-05
-0.000211475
2.57088e-05
-0.00021718
6.91035e-06
-0.000233613
2.82127e-05
-0.000237809
2.57935e-06
-0.000255367
2.83846e-05
-0.000258549
5.55998e-07
-0.000273532
2.24862e-05
-0.000278209
5.76076e-06
-0.0002847
7.85341e-06
-0.000293748
2.09992e-05
-0.000286212
-2.05273e-05
-0.000300853
2.64363e-05
-0.000268149
-6.43934e-05
-0.0002871
2.05059e-05
-0.000252239
-5.81884e-05
-0.000263936
-2.14267e-06
-0.000218412
-7.03105e-05
-0.000244617
2.74648e-05
-0.000109473
-0.000245191
-0.000180712
8.30934e-05
-0.000251888
0.000300711
8.39136e-05
-0.000834386
-0.00024368
0.000928209
0.00163355
-0.00431407
-0.000118146
0.00358127
-0.00144502
0.0037724
0.000928591
-0.00508931
0.00497135
-0.00957019
-0.00130254
0.0129115
-0.00733042
0.0164696
0.0116446
-0.0430731
-7.94432e-05
0.0239556
-0.00381353
0.0112814
0.0167074
-0.0473313
-0.000337766
0.038254
0.0178059
-0.0385321
0.0302238
-0.0334301
-0.014655
0.101863
-0.0051319
-0.0198659
-0.00947293
0.0056375
-0.0566707
0.108771
-0.0401004
-0.0336132
-0.00466435
-0.0805272
-0.0205923
-2.36436e-05
-6.84253e-06
1.6123e-05
-3.0081e-05
-7.18316e-06
-3.33724e-05
-4.61355e-06
-3.59956e-05
-2.32436e-06
-3.86406e-05
-1.22799e-06
-4.12219e-05
-1.05294e-06
-4.3524e-05
-1.29324e-06
-4.54015e-05
-1.35349e-06
-4.68907e-05
-8.70573e-07
-4.80906e-05
3.52432e-08
-4.89691e-05
1.06388e-06
-4.94052e-05
2.14827e-06
-4.93082e-05
3.34198e-06
-4.86139e-05
4.47275e-06
-4.71887e-05
5.16411e-06
-4.48566e-05
5.31303e-06
-4.16072e-05
5.41623e-06
-3.77667e-05
6.24112e-06
-3.39086e-05
8.12687e-06
-3.05659e-05
1.06319e-05
-2.80025e-05
1.28306e-05
-2.62105e-05
1.39244e-05
-2.5084e-05
1.365e-05
-2.46012e-05
1.22687e-05
-2.48854e-05
1.02627e-05
-2.61406e-05
8.03168e-06
-2.85304e-05
5.75018e-06
-3.20881e-05
3.43903e-06
-3.6688e-05
1.08674e-06
-4.20784e-05
-1.22468e-06
-4.79224e-05
-3.35274e-06
-5.38502e-05
-5.09388e-06
-5.94871e-05
-6.30563e-06
-6.45101e-05
-6.82998e-06
-6.86679e-05
-6.64006e-06
-7.18334e-05
-5.67714e-06
-7.39756e-05
-4.09408e-06
-7.51876e-05
-1.95515e-06
-7.56027e-05
3.92788e-07
-7.54394e-05
2.8659e-06
-7.48946e-05
5.0784e-06
-7.42408e-05
7.1594e-06
-7.3673e-05
8.78625e-06
-7.3448e-05
1.03217e-05
-7.3658e-05
1.13515e-05
-7.4452e-05
1.23895e-05
-7.57656e-05
1.2879e-05
-7.76605e-05
1.35652e-05
-7.99754e-05
1.3732e-05
-8.27602e-05
1.43337e-05
-8.58263e-05
1.44259e-05
-8.92611e-05
1.51342e-05
-9.28857e-05
1.52692e-05
-9.68264e-05
1.60857e-05
-0.000100936
1.62546e-05
-0.000105364
1.71177e-05
-0.000110027
1.73681e-05
-0.000115041
1.82245e-05
-0.000120413
1.86237e-05
-0.000126147
1.93357e-05
-0.000132402
1.99526e-05
-0.000138964
2.03299e-05
-0.000146261
2.13186e-05
-0.000153705
2.11349e-05
-0.000162148
2.27814e-05
-0.00017041
2.17597e-05
-0.000180035
2.45811e-05
-0.000188929
2.23532e-05
-0.000199769
2.70792e-05
-0.000209086
2.29724e-05
-0.000221349
3.0416e-05
-0.000230978
2.31624e-05
-0.000245166
3.43313e-05
-0.000254965
2.19632e-05
-0.000271841
3.89715e-05
-0.000281313
1.87492e-05
-0.000301312
4.39813e-05
-0.000309324
1.28097e-05
-0.000332583
4.89946e-05
-0.000338275
5.48746e-06
-0.000363449
5.05809e-05
-0.000367484
1.61833e-06
-0.000389716
4.2005e-05
-0.000395878
9.73931e-06
-0.000406711
1.72068e-05
-0.000419754
3.32804e-05
-0.000410262
-3.02588e-05
-0.000432679
4.8835e-05
-0.000379701
-0.000117474
-0.000420798
6.12838e-05
-0.000365909
-0.000113576
-0.000392043
2.35647e-05
-0.000321819
-0.000140458
-0.000366252
7.27808e-05
-0.000175349
-0.000434257
-0.000296081
0.00020744
-0.000346301
0.000357992
7.30105e-05
-0.00124448
-0.000308195
0.00131605
0.00210929
-0.00673267
-0.000353193
0.00603654
-0.00175452
0.00481599
0.00148623
-0.00833758
0.00629034
-0.0143781
-0.00228487
0.0215096
-0.00877537
0.0229803
0.0157203
-0.0672893
-0.000809481
0.0404682
-0.00408218
0.0145227
0.022093
-0.073529
-0.000117893
0.060454
0.0247335
-0.0633755
0.0377151
-0.046387
-0.0206295
0.160213
-0.00693471
-0.0410356
-0.0149887
0.0136703
-0.0745788
0.168341
-0.0503611
-0.0578373
-0.00508214
-0.125806
-0.0316577
-2.42274e-05
-3.28257e-06
1.90582e-05
-2.98033e-05
-3.90451e-06
-3.32108e-05
-2.82341e-06
-3.58777e-05
-1.21405e-06
-3.85056e-05
1.30886e-09
-4.12569e-05
5.45067e-07
-4.39996e-05
5.85531e-07
-4.65776e-05
6.71027e-07
-4.89105e-05
1.2408e-06
-5.10155e-05
2.29005e-06
-5.28495e-05
3.48729e-06
-5.42509e-05
4.66576e-06
-5.5086e-05
5.90175e-06
-5.53166e-05
7.09491e-06
-5.48707e-05
7.80096e-06
-5.35382e-05
7.73809e-06
-5.11452e-05
7.38919e-06
-4.78642e-05
7.81212e-06
-4.42807e-05
9.70477e-06
-4.11011e-05
1.27007e-05
-3.87783e-05
1.55849e-05
-3.73783e-05
1.71486e-05
-3.67417e-05
1.68943e-05
-3.67469e-05
1.51331e-05
-3.74572e-05
1.25704e-05
-3.9085e-05
9.81974e-06
-4.18446e-05
7.14628e-06
-4.58191e-05
4.54737e-06
-5.09049e-05
1.94258e-06
-5.68456e-05
-6.21821e-07
-6.32875e-05
-2.99774e-06
-6.98449e-05
-4.93997e-06
-7.61283e-05
-6.2779e-06
-8.18009e-05
-6.81762e-06
-8.65961e-05
-6.52622e-06
-9.03784e-05
-5.316e-06
-9.31132e-05
-3.3652e-06
-9.48993e-05
-7.36577e-07
-9.58731e-05
2.13817e-06
-9.62623e-05
5.16743e-06
-9.62674e-05
7.87196e-06
-9.61774e-05
1.04392e-05
-9.61988e-05
1.24694e-05
-9.66141e-05
1.44367e-05
-9.75245e-05
1.58032e-05
-9.90987e-05
1.72173e-05
-0.000101268
1.79524e-05
-0.000104106
1.89547e-05
-0.00010744
1.93046e-05
-0.000111331
2.02154e-05
-0.000115578
2.04887e-05
-0.00012028
2.1543e-05
-0.000125248
2.18897e-05
-0.000130616
2.30842e-05
-0.000136242
2.3504e-05
-0.000142272
2.47619e-05
-0.00014865
2.5337e-05
-0.000155469
2.65844e-05
-0.0001628
2.74165e-05
-0.00017057
2.84542e-05
-0.000179068
2.96492e-05
-0.000187925
3.02043e-05
-0.000197788
3.19918e-05
-0.000207801
3.17351e-05
-0.00021918
3.45304e-05
-0.000230287
3.30429e-05
-0.000243263
3.75853e-05
-0.000255265
3.42927e-05
-0.000269925
4.16386e-05
-0.000282587
3.55216e-05
-0.000299231
4.69222e-05
-0.000312396
3.61081e-05
-0.000331666
5.32066e-05
-0.000345109
3.4739e-05
-0.000367978
6.082e-05
-0.000380979
3.033e-05
-0.00040806
6.92226e-05
-0.000419087
2.15858e-05
-0.000450663
7.79267e-05
-0.000458479
1.03309e-05
-0.000493008
8.19316e-05
-0.000498406
3.84401e-06
-0.000529798
7.05084e-05
-0.000537924
1.5539e-05
-0.000554833
3.25317e-05
-0.000572681
5.02872e-05
-0.000562085
-4.11615e-05
-0.000593645
8.03065e-05
-0.000534535
-0.00017676
-0.000593383
0.000119755
-0.000508614
-0.000198867
-0.000555283
6.98302e-05
-0.000456152
-0.000239454
-0.000522493
0.000140086
-0.000272927
-0.000681902
-0.000449092
0.000387426
-0.000466329
0.000382598
3.8169e-05
-0.00173907
-0.000390329
0.00175105
0.0025562
-0.00968138
-0.000667133
0.00925002
-0.00200794
0.00611884
0.00213045
-0.0124798
0.00748747
-0.0197347
-0.00336823
0.0323927
-0.00988399
0.0295129
0.019977
-0.0974245
-0.00172073
0.0621481
-0.00391556
0.016684
0.0275482
-0.105016
0.000263232
0.0877291
0.0321937
-0.0952997
0.0443093
-0.058477
-0.0274625
0.231986
-0.0090518
-0.0522848
-0.0219455
0.0265423
-0.0925055
0.238884
-0.0594896
-0.0908597
-0.00511842
-0.180177
-0.0450179
-2.57188e-05
-1.03199e-06
2.19131e-05
-3.04528e-05
-1.48722e-06
-3.3657e-05
-1.14432e-06
-3.61961e-05
-1.13914e-07
-3.8545e-05
1.07667e-06
-4.09895e-05
1.94651e-06
-4.35671e-05
2.38323e-06
-4.61679e-05
2.7822e-06
-4.87343e-05
3.63987e-06
-5.12163e-05
4.97641e-06
-5.35813e-05
6.49766e-06
-5.56688e-05
7.92446e-06
-5.72972e-05
9.30673e-06
-5.84215e-05
1.06569e-05
-5.9052e-05
1.15537e-05
-5.90149e-05
1.14921e-05
-5.79672e-05
1.07383e-05
-5.57816e-05
1.05091e-05
-5.28698e-05
1.19845e-05
-5.00405e-05
1.51473e-05
-4.80196e-05
1.86637e-05
-4.70893e-05
2.08581e-05
-4.71195e-05
2.08126e-05
-4.7876e-05
1.87461e-05
-4.9296e-05
1.55725e-05
-5.1545e-05
1.21977e-05
-5.48723e-05
9.0605e-06
-5.94273e-05
6.16676e-06
-6.51505e-05
3.34687e-06
-7.17923e-05
5.76041e-07
-7.89824e-05
-2.01329e-06
-8.63188e-05
-4.13285e-06
-9.33995e-05
-5.5787e-06
-9.98771e-05
-6.11861e-06
-0.000105468
-5.71966e-06
-0.000110026
-4.26144e-06
-0.000113508
-1.94391e-06
-0.00011602
1.18427e-06
-0.000117706
4.60237e-06
-0.000118803
8.21498e-06
-0.000119515
1.14378e-05
-0.000120146
1.45287e-05
-0.000120911
1.70025e-05
-0.000122119
1.94643e-05
-0.000123882
2.12342e-05
-0.000126393
2.31111e-05
-0.000129578
2.41709e-05
-0.000133528
2.55828e-05
-0.000138059
2.61967e-05
-0.000143247
2.7512e-05
-0.000148879
2.80496e-05
-0.000155066
2.95472e-05
-0.000161614
3.01958e-05
-0.000168662
3.18672e-05
-0.000176078
3.26442e-05
-0.000184002
3.43991e-05
-0.000192415
3.54365e-05
-0.000201376
3.71775e-05
-0.000211035
3.8624e-05
-0.000221229
4.00759e-05
-0.000232397
4.20877e-05
-0.000243987
4.28736e-05
-0.000256915
4.57785e-05
-0.000269992
4.54377e-05
-0.000284882
4.98154e-05
-0.000299392
4.77442e-05
-0.000316382
5.46122e-05
-0.000332113
4.99642e-05
-0.000351364
6.07899e-05
-0.000368054
5.20988e-05
-0.000389974
6.87008e-05
-0.000407427
5.33285e-05
-0.000432836
7.81932e-05
-0.00045074
5.19284e-05
-0.000480858
8.98475e-05
-0.000498259
4.62142e-05
-0.000533912
0.000102917
-0.000548834
3.41083e-05
-0.000590493
0.000116767
-0.000601258
1.79214e-05
-0.00064721
0.000124488
-0.000654688
7.93528e-06
-0.000697543
0.000110281
-0.00070832
2.3839e-05
-0.000733496
5.60189e-05
-0.000757184
7.30686e-05
-0.000746843
-5.1861e-05
-0.000789618
0.000122933
-0.000718382
-0.000248248
-0.000790169
0.000191089
-0.000682754
-0.000306853
-0.000762779
0.000149457
-0.000628172
-0.000373858
-0.000722666
0.000235673
-0.000410831
-0.000991625
-0.000648653
0.000629357
-0.000619969
0.000361822
-3.29207e-05
-0.00231537
-0.000504249
0.00222973
0.0029512
-0.0131396
-0.00107097
0.0132599
-0.00217881
0.00721055
0.00281225
-0.017474
0.00854557
-0.0254605
-0.00447338
0.0454425
-0.0106305
0.0356895
0.0243025
-0.132348
-0.00272037
0.0891521
-0.00328113
0.0172093
0.0329199
-0.141242
0.000777841
0.119861
0.0399368
-0.134448
0.0497874
-0.0683003
-0.0349431
0.316719
-0.0118201
-0.0745812
-0.0304134
0.0451124
-0.109892
0.318367
-0.0671889
-0.13357
-0.004811
-0.242555
-0.060854
-2.78303e-05
5.68176e-07
2.47537e-05
-3.19769e-05
3.4912e-07
-3.49149e-05
3.886e-07
-3.7354e-05
1.02157e-06
-3.94999e-05
2.08057e-06
-4.15915e-05
3.10803e-06
-4.37617e-05
3.86345e-06
-4.59971e-05
4.60142e-06
-4.82397e-05
5.7837e-06
-5.04901e-05
7.49949e-06
-5.27174e-05
9.43983e-06
-5.48443e-05
1.12885e-05
-5.67033e-05
1.29995e-05
-5.82375e-05
1.4674e-05
-5.95438e-05
1.60134e-05
-6.05919e-05
1.63482e-05
-6.10022e-05
1.555e-05
-6.03177e-05
1.4703e-05
-5.85508e-05
1.5399e-05
-5.6377e-05
1.82337e-05
-5.47407e-05
2.21052e-05
-5.42723e-05
2.50003e-05
-5.50383e-05
2.54299e-05
-5.67591e-05
2.3278e-05
-5.91984e-05
1.95383e-05
-6.23848e-05
1.54452e-05
-6.65452e-05
1.17255e-05
-7.1891e-05
8.47929e-06
-7.84326e-05
5.45721e-06
-8.59497e-05
2.5252e-06
-9.40622e-05
-2.38008e-07
-0.00010235
-2.50755e-06
-0.000110399
-4.03819e-06
-0.000117858
-4.55247e-06
-0.000124428
-4.02797e-06
-0.000129946
-2.31349e-06
-0.000134357
3.71257e-07
-0.000137777
4.01091e-06
-0.000140359
7.99417e-06
-0.000142358
1.22266e-05
-0.000143978
1.60008e-05
-0.000145537
1.9656e-05
-0.000147252
2.2611e-05
-0.000149461
2.56264e-05
-0.000152283
2.78626e-05
-0.000155942
3.02898e-05
-0.000160358
3.1755e-05
-0.000165644
3.36762e-05
-0.000171603
3.46404e-05
-0.00017833
3.64663e-05
-0.000185598
3.73619e-05
-0.000193537
3.94147e-05
-0.000201945
4.0471e-05
-0.000210973
4.27353e-05
-0.000220496
4.39964e-05
-0.000230651
4.63684e-05
-0.000241464
4.80325e-05
-0.000252947
5.03874e-05
-0.000265353
5.26659e-05
-0.000278404
5.46351e-05
-0.000292725
5.77518e-05
-0.000307541
5.883e-05
-0.000324092
6.32383e-05
-0.000340793
6.28e-05
-0.000359845
6.92872e-05
-0.000378388
6.6493e-05
-0.000400155
7.64211e-05
-0.000420323
7.00744e-05
-0.000445054
8.54209e-05
-0.000466562
7.34926e-05
-0.000494804
9.67972e-05
-0.000517422
7.5701e-05
-0.000550213
0.000110534
-0.000573549
7.45004e-05
-0.000612405
0.000127537
-0.000635256
6.74466e-05
-0.000681258
0.00014683
-0.000701168
5.14619e-05
-0.000755013
0.000167607
-0.000769804
2.93258e-05
-0.000829635
0.000180696
-0.000840201
1.48871e-05
-0.000897276
0.000164073
-0.00091169
3.56183e-05
-0.000947862
9.0399e-05
-0.000978756
0.000102995
-0.000970637
-6.03754e-05
-0.00102712
0.000179226
-0.00094407
-0.000331616
-0.00103755
0.000284042
-0.000909855
-0.000435181
-0.00102981
0.000269008
-0.000845327
-0.00055809
-0.000979137
0.0003707
-0.000599285
-0.00136917
-0.000906622
0.000941105
-0.000818068
0.000281702
-0.000157287
-0.00296457
-0.00066667
0.00274697
0.00326555
-0.0170749
-0.00156002
0.0180713
-0.00229337
0.00793152
0.00347199
-0.0232425
0.00945545
-0.0314306
-0.00552442
0.0604562
-0.0110499
0.0412373
0.0285784
-0.171969
-0.00370701
0.121418
-0.00219143
0.0156566
0.0380548
-0.181514
0.00139054
0.156514
0.0477273
-0.180833
0.0539905
-0.0745343
-0.0431385
0.41385
-0.0153009
-0.10237
-0.0403382
0.0701247
-0.126174
0.404147
-0.0732124
-0.186539
-0.00419293
-0.311575
-0.0795518
-3.03471e-05
1.82681e-06
2.76997e-05
-3.41055e-05
1.81949e-06
-3.67812e-05
1.78779e-06
-3.91484e-05
2.21837e-06
-4.12283e-05
3.14394e-06
-4.31343e-05
4.19465e-06
-4.49901e-05
5.12461e-06
-4.68243e-05
6.1045e-06
-4.85847e-05
7.52736e-06
-5.02901e-05
9.56019e-06
-5.19381e-05
1.18843e-05
-5.35327e-05
1.41928e-05
-5.49843e-05
1.63413e-05
-5.62461e-05
1.84544e-05
-5.74749e-05
2.04084e-05
-5.88502e-05
2.15205e-05
-6.01789e-05
2.12461e-05
-6.08715e-05
2.02207e-05
-6.04806e-05
2.01219e-05
-5.92554e-05
2.21917e-05
-5.81018e-05
2.59452e-05
-5.79826e-05
2.94019e-05
-5.93429e-05
3.05469e-05
-6.20383e-05
2.8686e-05
-6.57005e-05
2.46253e-05
-7.01384e-05
1.98387e-05
-7.54481e-05
1.54296e-05
-8.1849e-05
1.17313e-05
-8.94286e-05
8.48496e-06
-9.80273e-05
5.43189e-06
-0.000107272
2.54478e-06
-0.000116722
1.60434e-07
-0.000125949
-1.429e-06
-0.000134604
-1.88485e-06
-0.000142375
-1.20591e-06
-0.000149082
7.80292e-07
-0.000154648
3.82988e-06
-0.000159195
7.98753e-06
-0.00016289
1.25565e-05
-0.000166016
1.74523e-05
-0.000168778
2.18191e-05
-0.000171507
2.60862e-05
-0.000174417
2.95592e-05
-0.000177872
3.31855e-05
-0.000182
3.59466e-05
-0.000187056
3.9013e-05
-0.000192959
4.09657e-05
-0.000199845
4.35028e-05
-0.000207503
4.49094e-05
-0.000216052
4.73619e-05
-0.000225251
4.87199e-05
-0.000235251
5.14551e-05
-0.000245846
5.30424e-05
-0.000257196
5.6034e-05
-0.000269195
5.79288e-05
-0.000281965
6.10565e-05
-0.000295591
6.35421e-05
-0.000310031
6.66487e-05
-0.000325658
7.00189e-05
-0.000342056
7.26235e-05
-0.000360079
7.71908e-05
-0.000378678
7.86306e-05
-0.00039949
8.5009e-05
-0.000420447
8.44551e-05
-0.000444407
9.36915e-05
-0.000467704
9.00082e-05
-0.000495123
0.000103888
-0.000520542
9.54362e-05
-0.000551788
0.000116565
-0.00057903
0.000100618
-0.00061482
0.000132436
-0.000643633
0.000104254
-0.000685272
0.000151693
-0.000715193
0.000103605
-0.000764548
0.000175647
-0.000794119
9.52912e-05
-0.000852578
0.000203061
-0.000878838
7.49968e-05
-0.000947366
0.000232933
-0.000967581
4.59319e-05
-0.00104421
0.000253458
-0.00105924
2.60728e-05
-0.00113382
0.000235159
-0.00115328
5.22735e-05
-0.0012038
0.000139025
-0.00124372
0.000141896
-0.00124053
-6.39941e-05
-0.00131382
0.000252298
-0.00122043
-0.000425378
-0.00134146
0.000404474
-0.00119811
-0.000579228
-0.00134305
0.000413515
-0.0011125
-0.00078836
-0.00130849
0.000568029
-0.000849465
-0.0018257
-0.00123841
0.00133479
-0.0010738
0.000126118
-0.000356175
-0.00366972
-0.000898054
0.0032974
0.00346882
-0.0214452
-0.00213625
0.0236606
-0.00236744
0.00814887
0.00403951
-0.0296531
0.0102218
-0.0375956
-0.00646892
0.0771835
-0.0112034
0.045997
0.0326965
-0.215864
-0.0045879
0.158682
-0.000712599
0.0117425
0.0428154
-0.225069
0.00203403
0.197284
0.0551422
-0.233859
0.0568338
-0.0761944
-0.0518204
0.522506
-0.019841
-0.134319
-0.0516686
0.101925
-0.140603
0.493122
-0.0773886
-0.249762
-0.00326412
-0.3857
-0.101593
-3.32306e-05
2.86661e-06
3.08953e-05
-3.67038e-05
3.0445e-06
-3.91233e-05
3.06211e-06
-4.13874e-05
3.4427e-06
-4.3437e-05
4.30128e-06
-4.52823e-05
5.33655e-06
-4.69871e-05
6.34216e-06
-4.85677e-05
7.4562e-06
-4.99695e-05
9.01298e-06
-5.11518e-05
1.11981e-05
-5.2181e-05
1.38018e-05
-5.30559e-05
1.64538e-05
-5.37747e-05
1.90016e-05
-5.43141e-05
2.15332e-05
-5.48344e-05
2.40833e-05
-5.56718e-05
2.61099e-05
-5.69539e-05
2.6817e-05
-5.82745e-05
2.62574e-05
-5.89474e-05
2.57761e-05
-5.8689e-05
2.69685e-05
-5.80351e-05
3.01283e-05
-5.8047e-05
3.37745e-05
-5.95969e-05
3.56931e-05
-6.2904e-05
3.45486e-05
-6.76493e-05
3.06443e-05
-7.34334e-05
2.54356e-05
-8.01101e-05
2.03671e-05
-8.77917e-05
1.61393e-05
-9.65996e-05
1.26251e-05
-0.000106454
9.48702e-06
-0.000117017
6.54835e-06
-0.000127836
4.11017e-06
-0.000138459
2.5015e-06
-0.000148534
2.14756e-06
-0.000157751
3.02577e-06
-0.000165907
5.3147e-06
-0.000172891
8.72812e-06
-0.000178823
1.34012e-05
-0.000183883
1.85667e-05
-0.000188391
2.41711e-05
-0.00019256
2.91788e-05
-0.000196737
3.41147e-05
-0.000201124
3.81454e-05
-0.000206111
4.24402e-05
-0.000211826
4.57807e-05
-0.000218567
4.95763e-05
-0.000226247
5.21011e-05
-0.000235036
5.53687e-05
-0.000244704
5.73166e-05
-0.000255396
6.05223e-05
-0.000266861
6.24589e-05
-0.000279274
6.60196e-05
-0.000292427
6.82817e-05
-0.000306492
7.2154e-05
-0.000321382
7.48596e-05
-0.000337204
7.88999e-05
-0.000354115
8.24377e-05
-0.000371999
8.64512e-05
-0.000391386
9.12234e-05
-0.000411684
9.45955e-05
-0.000434034
0.00010103
-0.000457044
0.000102906
-0.000482846
0.000111819
-0.000508778
0.000111122
-0.000538503
0.000123884
-0.000567374
0.00011911
-0.000601458
0.000138024
-0.000633063
0.000126983
-0.000672024
0.000155421
-0.000706059
0.000134534
-0.000750831
0.00017705
-0.000787039
0.000140187
-0.00083925
0.000203395
-0.000877114
0.000140598
-0.000939052
0.000236257
-0.000976867
0.000131266
-0.00105028
0.000274102
-0.00108457
0.00010638
-0.00117074
0.000315694
-0.00119818
6.95263e-05
-0.00129504
0.000346205
-0.00131642
4.33608e-05
-0.00141239
0.000327413
-0.00143887
7.57809e-05
-0.0015078
0.000205955
-0.00155924
0.000192253
-0.00156453
-5.91483e-05
-0.00165853
0.00034605
-0.00155739
-0.000526926
-0.00171218
0.000558596
-0.00155136
-0.000740826
-0.00172902
0.000590702
-0.0014658
-0.00105127
-0.00173703
0.000840694
-0.00117251
-0.00238752
-0.00166477
0.00183212
-0.00140282
-0.000126176
-0.000656518
-0.00440263
-0.00122103
0.00387117
0.00352663
-0.0261965
-0.00280451
0.0299744
-0.00245168
0.00777952
0.00444008
-0.0365491
0.010857
-0.0439924
-0.00729049
0.09537
-0.0111881
0.0499226
0.0365591
-0.263606
-0.00529885
0.200519
0.0010264
0.00537726
0.0470682
-0.271138