/*--------------------------------*- C++ -*----------------------------------*\
| =========                 |                                                 |
| \\      /  F ield         | OpenFOAM: The Open Source CFD Toolbox           |
|  \\    /   O peration     | Version:  2412                                  |
|   \\  /    A nd           | Website:  www.openfoam.com                      |
|    \\/     M anipulation  |                                                 |
\*---------------------------------------------------------------------------*/
FoamFile
{
    version     2.0;
    format      ascii;
    arch        "LSB;label=32;scalar=64";
    class       volScalarField;
    location    "0.17";
    object      Co;
}
// * * * * * * * * * * * * * * * * * * * * * * * * * * * * * * * * * * * * * //

dimensions      [0 0 0 0 0 0 0];

internalField   nonuniform List<scalar> 
12600
(
0.276486
0.155602
0.0894014
0.0576229
0.0421025
0.033375
0.0276518
0.0235055
0.0203245
0.0177924
0.0157229
0.0139977
0.0125367
0.0112836
0.0101975
0.00924795
0.00841162
0.00767041
0.00700995
0.00641868
0.00588715
0.00540762
0.00497361
0.00457969
0.00422127
0.00389442
0.00359575
0.00332235
0.00307168
0.00284154
0.00262997
0.00243526
0.00225589
0.0020905
0.00193791
0.00179703
0.00166692
0.00154672
0.00143563
0.00133297
0.00123809
0.00115042
0.00106947
0.000994769
0.000925951
0.000862687
0.000804665
0.000751612
0.000703207
0.000659115
0.000618933
0.000582201
0.000548432
0.000517097
0.000487752
0.000459969
0.000433489
0.000408056
0.00038356
0.000359844
0.000336976
0.000315115
0.000294799
0.000276612
0.000261215
0.000251382
0.000244192
0.000238947
0.00023493
0.000231533
0.000228041
0.000223912
0.000218783
0.000212734
0.000206079
0.000199377
0.000193036
0.000187579
0.000183071
0.000179996
0.000177904
0.000177409
0.000177496
0.000179062
0.000180506
0.000183095
0.000184913
0.000187447
0.000188733
0.000190465
0.000190829
0.00019147
0.000190785
0.000190421
0.00018893
0.000187761
0.000185646
0.000183906
0.000181471
0.000179348
0.000176668
0.000174268
0.00017153
0.000169127
0.000166422
0.000164022
0.000161236
0.000158845
0.000156052
0.000153817
0.000151162
0.000149115
0.000146672
0.000144686
0.000142524
0.000140405
0.000138815
0.000136218
0.000137157
0.000136777
0.423907
0.334151
0.246395
0.182502
0.140027
0.111841
0.0923566
0.0781438
0.0672842
0.0586894
0.0517028
0.0459055
0.041016
0.0368377
0.0332283
0.0300821
0.0273187
0.0248756
0.0227036
0.0207631
0.0190221
0.0174541
0.0160372
0.0147531
0.0135864
0.0125237
0.0115538
0.0106669
0.0098546
0.00910953
0.00842522
0.00779601
0.00721686
0.00668335
0.00619155
0.00573794
0.00531938
0.0049331
0.00457648
0.00424729
0.00394343
0.003663
0.00340437
0.00316599
0.00294656
0.00274494
0.00256004
0.00239086
0.00223636
0.00209539
0.00196672
0.00184891
0.0017405
0.00163986
0.00154567
0.0014566
0.00137189
0.00129075
0.00121292
0.00113788
0.00106583
0.000997054
0.000933059
0.000875402
0.000826846
0.000799043
0.000778269
0.000762636
0.000749798
0.000738078
0.00072527
0.000710229
0.000692186
0.000672077
0.000650977
0.000630802
0.000612463
0.000597478
0.000585636
0.000578354
0.000573835
0.000574089
0.000575512
0.000581249
0.000585738
0.000593695
0.000598353
0.000605382
0.000607811
0.000612084
0.000611544
0.000612425
0.000608833
0.000606861
0.00060107
0.000596809
0.000589376
0.000583606
0.000575435
0.00056857
0.000559824
0.000552262
0.000543595
0.000536109
0.000527565
0.000520052
0.000511268
0.00050392
0.000495211
0.000488515
0.000480226
0.000474176
0.000466466
0.000460596
0.000453744
0.000447268
0.000442577
0.00043351
0.000438808
0.000433554
0.457158
0.418588
0.355321
0.29236
0.239439
0.197856
0.165908
0.141245
0.121869
0.106328
0.0936168
0.083042
0.0741159
0.0664894
0.0599061
0.0541735
0.0491443
0.0447039
0.0407612
0.0372433
0.0340909
0.0312552
0.0286957
0.0263786
0.0242754
0.0223615
0.0206164
0.019022
0.0175628
0.0162254
0.0149979
0.0138699
0.0128324
0.0118773
0.0109973
0.0101862
0.00943821
0.00874835
0.00811194
0.00752488
0.00698341
0.00648407
0.00602382
0.00559988
0.00520977
0.00485135
0.00452261
0.00422167
0.00394668
0.00369563
0.00346643
0.00325661
0.00306369
0.00288486
0.00271779
0.00256011
0.00241049
0.00226749
0.00213069
0.001999
0.0018726
0.00175144
0.00163793
0.00153448
0.00144907
0.00140603
0.00137332
0.00134793
0.00132554
0.00130374
0.00127867
0.00124939
0.00121501
0.0011784
0.00114139
0.00110778
0.00107837
0.00105581
0.00103889
0.00103012
0.00102554
0.00102902
0.00103336
0.00104485
0.00105264
0.00106642
0.00107289
0.00108384
0.00108553
0.00109126
0.00108765
0.00108749
0.00107892
0.00107424
0.00106236
0.00105402
0.00103979
0.00102924
0.00101415
0.00100184
0.000986056
0.000972792
0.000957546
0.000944526
0.000929506
0.000916385
0.000900961
0.000888356
0.000873189
0.000861984
0.00084751
0.000837523
0.000823915
0.000814204
0.000802082
0.000790916
0.000783387
0.000765457
0.000779859
0.000763536
0.451133
0.440693
0.407123
0.362514
0.316448
0.27392
0.236932
0.205715
0.17966
0.15792
0.139681
0.124254
0.11109
0.0997615
0.0899343
0.0813487
0.0737998
0.0671246
0.0611922
0.055896
0.0511486
0.0468779
0.0430234
0.0395345
0.0363683
0.0334881
0.0308624
0.0284643
0.0262703
0.02426
0.0224155
0.0207211
0.019163
0.017729
0.0164083
0.0151913
0.0140694
0.0130351
0.0120813
0.0112018
0.010391
0.00964368
0.00895515
0.00832121
0.007738
0.00720222
0.00671077
0.00626078
0.00584952
0.005474
0.00513124
0.00481764
0.00452965
0.0042631
0.00401453
0.00378034
0.00355855
0.00334691
0.00314479
0.00295029
0.0027634
0.00258347
0.00241375
0.00225749
0.00213235
0.00207551
0.00203147
0.00199602
0.00196264
0.00192853
0.00188817
0.00184162
0.00178805
0.00173321
0.00167945
0.00163288
0.00159353
0.00156536
0.00154542
0.0015375
0.0015348
0.00154342
0.00155178
0.00156997
0.00158094
0.00160046
0.00160758
0.00162151
0.00162066
0.00162657
0.00161788
0.0016153
0.00159994
0.00159134
0.0015718
0.00155834
0.00153603
0.00151985
0.00149679
0.00147825
0.0014546
0.00143501
0.00141259
0.00139346
0.00137136
0.00135204
0.0013294
0.00131112
0.00128901
0.00127307
0.00125191
0.00123782
0.00121774
0.00120399
0.00118606
0.00116965
0.00115952
0.00113017
0.00115733
0.00112396
0.437021
0.43472
0.419286
0.392952
0.360557
0.326111
0.292395
0.26104
0.232774
0.207746
0.185791
0.1666
0.149824
0.135126
0.122206
0.110805
0.100704
0.0917201
0.0836999
0.0765147
0.0700565
0.0642341
0.0589704
0.0541995
0.0498651
0.0459189
0.0423191
0.0390295
0.0360184
0.0332584
0.0307253
0.0283977
0.0262569
0.0242862
0.0224709
0.020798
0.0192558
0.0178337
0.0165225
0.0153136
0.0141993
0.0131723
0.0122264
0.0113556
0.0105546
0.00981877
0.00914385
0.00852585
0.00796103
0.00744539
0.00697494
0.00654488
0.00615045
0.00578595
0.00544667
0.0051275
0.0048257
0.00453802
0.00426353
0.00399926
0.00374489
0.00349888
0.00326546
0.00304873
0.00288021
0.00280997
0.00275416
0.00270749
0.00266101
0.00261204
0.00255331
0.0024868
0.00241172
0.00233752
0.00226663
0.0022079
0.0021598
0.00212789
0.00210668
0.0021016
0.0021022
0.00211734
0.00213026
0.0021556
0.00216922
0.00219405
0.00220036
0.00221622
0.00221092
0.00221571
0.00219997
0.00219368
0.00216975
0.00215612
0.0021274
0.00210781
0.00207621
0.00205356
0.00202151
0.00199595
0.00196362
0.00193709
0.00190686
0.00188098
0.00185115
0.00182497
0.00179452
0.00177008
0.00174049
0.00171944
0.00169103
0.00167248
0.00164534
0.0016271
0.00160289
0.00158035
0.00156794
0.00152438
0.00156692
0.00151124
0.424618
0.421485
0.412932
0.397611
0.376771
0.352276
0.325937
0.299266
0.27335
0.248876
0.226209
0.205493
0.186718
0.169787
0.154559
0.140873
0.12857
0.117499
0.107522
0.0985141
0.0903672
0.0829843
0.0762813
0.0701842
0.0646285
0.0595577
0.054922
0.050678
0.0467872
0.0432159
0.0399342
0.0369155
0.0341364
0.0315759
0.0292154
0.0270385
0.0250303
0.0231776
0.0214685
0.0198921
0.0184385
0.0170987
0.0158643
0.0147278
0.0136824
0.012722
0.011841
0.0110343
0.0102972
0.00962442
0.00901102
0.00845082
0.00793776
0.00746442
0.00702462
0.00661153
0.00622145
0.00584984
0.00549537
0.00515367
0.00482405
0.00450388
0.0041985
0.00391294
0.00369517
0.00361071
0.00354158
0.00348169
0.00341944
0.00335282
0.00327279
0.00318398
0.00308556
0.00299134
0.00290323
0.00283326
0.00277749
0.00274348
0.00272233
0.00272158
0.00272633
0.00274886
0.00276631
0.00279883
0.00281413
0.00284361
0.00284747
0.00286412
0.00285245
0.00285489
0.00283018
0.002819
0.00278482
0.00276511
0.00272578
0.00269913
0.00265707
0.00262712
0.00258508
0.00255173
0.00250991
0.00247575
0.00243704
0.0024037
0.00236544
0.00233169
0.00229275
0.00226156
0.00222386
0.00219717
0.00216089
0.00213727
0.00210249
0.00207898
0.0020481
0.00201811
0.00200388
0.00194315
0.00200261
0.00192043
0.415036
0.409144
0.40159
0.390785
0.376548
0.359367
0.339996
0.319268
0.297962
0.276721
0.256034
0.236243
0.217565
0.200119
0.183946
0.169035
0.155338
0.142788
0.131305
0.120805
0.111206
0.102429
0.094398
0.0870456
0.0803086
0.0741299
0.0684581
0.0632466
0.0584538
0.0540422
0.0499782
0.0462317
0.0427755
0.0395854
0.0366395
0.0339186
0.0314049
0.029083
0.0269384
0.0249583
0.0231308
0.021445
0.0198908
0.0184591
0.0171415
0.0159306
0.0148196
0.0138022
0.0128726
0.0120244
0.0112517
0.0105467
0.00990205
0.00930833
0.00875776
0.00824143
0.00775451
0.00729083
0.00684841
0.00642121
0.00600806
0.00560502
0.00521877
0.00485534
0.00457859
0.00447774
0.00439265
0.00431672
0.00423555
0.00414837
0.0040442
0.00393112
0.00380788
0.00369326
0.00358797
0.00350763
0.00344502
0.00341015
0.00338987
0.00339442
0.00340356
0.00343384
0.00345527
0.00349463
0.00351034
0.00354363
0.00354326
0.00355962
0.00353967
0.00353862
0.00350312
0.00348599
0.00344
0.00341326
0.00336198
0.00332739
0.00327377
0.00323568
0.00318269
0.00314072
0.00308863
0.0030461
0.00299821
0.0029566
0.00290918
0.00286702
0.0028189
0.00278017
0.00273369
0.00270058
0.00265576
0.00262617
0.0025832
0.00255322
0.00251544
0.00247619
0.00246073
0.00237984
0.00245659
0.00234506
0.407413
0.399244
0.390813
0.381076
0.3696
0.356361
0.341557
0.325513
0.308608
0.291223
0.273704
0.256345
0.239386
0.223013
0.20736
0.192516
0.178531
0.165424
0.153191
0.141809
0.131245
0.121456
0.112397
0.104019
0.0962757
0.0891195
0.0825062
0.0763937
0.0707429
0.0655173
0.0606834
0.0562104
0.05207
0.0482365
0.0446864
0.0413986
0.038354
0.0355352
0.0329264
0.030513
0.0282817
0.0262202
0.0243171
0.0225618
0.0209449
0.0194576
0.0180923
0.0168414
0.0156984
0.0146557
0.0137064
0.0128412
0.0120512
0.0113251
0.0106532
0.0100242
0.00943187
0.00886798
0.00832971
0.00780887
0.00730374
0.00680886
0.00633245
0.00588157
0.00553045
0.00540964
0.00530476
0.0052092
0.0051055
0.00499475
0.00486372
0.00472465
0.00457532
0.00444005
0.0043175
0.00422744
0.00415835
0.00412342
0.00410419
0.00411447
0.00412762
0.00416553
0.00418992
0.00423553
0.00425011
0.00428631
0.0042799
0.00429496
0.00426491
0.00425942
0.00421144
0.00418744
0.00412823
0.00409359
0.00402916
0.00398577
0.00391959
0.00387254
0.00380769
0.00375625
0.0036931
0.00364136
0.00358361
0.0035328
0.00347551
0.00342395
0.0033659
0.00331867
0.00326266
0.00322209
0.00316809
0.00313125
0.00307964
0.00304157
0.00299685
0.00294605
0.00293004
0.00282619
0.00291927
0.00277712
0.401042
0.391335
0.381828
0.371919
0.361249
0.349682
0.33723
0.323992
0.31012
0.295791
0.281182
0.266465
0.251795
0.237312
0.223137
0.209373
0.196101
0.183382
0.171259
0.159758
0.14889
0.138655
0.129043
0.120036
0.111612
0.103743
0.0964028
0.0895603
0.0831862
0.0772513
0.0717271
0.0665865
0.0618038
0.0573547
0.0532167
0.049369
0.0457925
0.0424698
0.0393846
0.0365219
0.0338679
0.0314096
0.029135
0.0270328
0.0250928
0.0233056
0.021663
0.0201567
0.0187794
0.017523
0.0163794
0.0153381
0.0143889
0.0135181
0.0127142
0.0119632
0.0112573
0.0105855
0.009944
0.00932191
0.00871681
0.00812139
0.00754562
0.00699744
0.00654926
0.00640342
0.00627371
0.00615409
0.00602379
0.00588633
0.00572578
0.00555911
0.00538243
0.00522617
0.00508598
0.00498643
0.0049107
0.00487589
0.00485725
0.00487311
0.00488932
0.00493435
0.00496028
0.00501137
0.00502311
0.00506138
0.00504715
0.00506009
0.00501827
0.00500757
0.00494565
0.00491404
0.00484038
0.00479708
0.00471846
0.00466548
0.00458586
0.00452899
0.00445148
0.00438965
0.00431472
0.0042528
0.00418455
0.00412354
0.00405568
0.00399363
0.00392488
0.00386796
0.0038017
0.00375232
0.00368858
0.00364286
0.00358234
0.00353409
0.00348265
0.00341762
0.00340166
0.00327263
0.00337965
0.00320717
0.395555
0.384821
0.374448
0.364088
0.353485
0.342496
0.331079
0.319258
0.307096
0.294676
0.282084
0.269406
0.256721
0.244101
0.231616
0.21933
0.207304
0.195589
0.184233
0.173274
0.162742
0.152661
0.143044
0.133899
0.125227
0.117024
0.109281
0.101985
0.0951207
0.088671
0.0826175
0.0769409
0.0716221
0.066642
0.0619819
0.0576242
0.0535523
0.0497503
0.0462037
0.0428986
0.0398219
0.0369613
0.0343052
0.0318427
0.0295638
0.0274592
0.0255207
0.0237401
0.0221101
0.0206219
0.0192671
0.0180343
0.0169119
0.0158843
0.0149381
0.0140564
0.0132294
0.0124431
0.0116921
0.0109624
0.0102506
0.00954701
0.00886348
0.00820851
0.00763209
0.00745454
0.00729364
0.00714465
0.00698311
0.0068156
0.00662277
0.00642686
0.00622137
0.00604347
0.00588478
0.00577544
0.0056922
0.0056571
0.00563789
0.00565867
0.00567641
0.00572774
0.00575348
0.00580924
0.00581635
0.00585604
0.00583232
0.00584258
0.00578754
0.00577114
0.00569405
0.00565426
0.00556518
0.00551259
0.00541897
0.00535563
0.00526185
0.00519435
0.00510353
0.00503033
0.00494296
0.00486984
0.00479054
0.00471824
0.00463924
0.00456548
0.00448532
0.00441735
0.00434016
0.00428037
0.00420648
0.00414992
0.00408046
0.00401963
0.00396189
0.00387986
0.00386426
0.00370879
0.00382592
0.00362492
0.390759
0.379307
0.36829
0.357489
0.34673
0.335887
0.324895
0.313745
0.302463
0.291094
0.27969
0.268299
0.256967
0.24573
0.234619
0.223664
0.212891
0.202326
0.191994
0.18192
0.172127
0.162635
0.153463
0.144626
0.136137
0.128004
0.120231
0.112819
0.105768
0.0990713
0.0927228
0.0867133
0.0810327
0.0756693
0.0706113
0.0658465
0.061363
0.0571491
0.0531935
0.0494855
0.0460144
0.0427702
0.0397431
0.0369239
0.0343042
0.0318759
0.0296319
0.0275648
0.0256683
0.023934
0.0223538
0.0209155
0.0196073
0.0184117
0.0173137
0.0162936
0.0153393
0.0144334
0.0135686
0.012727
0.011904
0.0110869
0.0102891
0.00951917
0.00881276
0.00855693
0.00835709
0.0081724
0.00797428
0.00777302
0.00754486
0.00731782
0.00708169
0.00688104
0.00670235
0.00658227
0.00648993
0.00645348
0.00643187
0.00645644
0.00647373
0.00653036
0.00655397
0.00661366
0.00661441
0.00665509
0.00662047
0.00662779
0.0065584
0.00653606
0.00644297
0.0063946
0.00628944
0.00622704
0.00611791
0.00604352
0.0059351
0.00585619
0.0057516
0.00566606
0.00556574
0.00548028
0.00538955
0.00530488
0.00521436
0.00512762
0.00503549
0.00495494
0.00486631
0.00479433
0.00471012
0.00464058
0.00456242
0.00448648
0.00442299
0.00432148
0.00430604
0.00412412
0.00424636
0.00401989
0.386524
0.374553
0.363055
0.351884
0.340921
0.330062
0.319237
0.308416
0.297597
0.286803
0.276066
0.265422
0.254903
0.244536
0.23434
0.22433
0.214514
0.2049
0.195494
0.186302
0.177331
0.168587
0.160078
0.151813
0.1438
0.136047
0.128562
0.121348
0.114412
0.107755
0.101379
0.0952811
0.0894604
0.0839126
0.0786328
0.0736151
0.0688535
0.0643417
0.0600733
0.0560418
0.0522408
0.0486638
0.0453047
0.0421571
0.0392157
0.0364748
0.0339301
0.0315762
0.0294089
0.0274211
0.0256063
0.0239527
0.0224489
0.021076
0.0198186
0.0186538
0.0175679
0.0165395
0.0155592
0.0146045
0.0136692
0.0127366
0.0118214
0.010931
0.0101065
0.00970323
0.00945516
0.00922726
0.00898635
0.00874705
0.00848004
0.00821956
0.00795038
0.00772527
0.00752436
0.0073919
0.00728815
0.00724872
0.0072223
0.00724921
0.0072637
0.00732455
0.00734402
0.00740711
0.00739989
0.00744149
0.00739487
0.00739935
0.00731485
0.00728666
0.00717713
0.00711999
0.00699847
0.00692592
0.00680111
0.00671506
0.0065918
0.0065008
0.00638229
0.00628346
0.00616987
0.00607096
0.00596866
0.0058706
0.00576844
0.00566754
0.00556306
0.00546843
0.00536807
0.00528209
0.00518767
0.00510303
0.00501665
0.00492331
0.0048546
0.00473185
0.00471576
0.00450879
0.00463046
0.00438243
0.382758
0.3704
0.358539
0.347069
0.335906
0.32497
0.314195
0.30354
0.292986
0.282534
0.272199
0.262003
0.251972
0.242128
0.232489
0.223069
0.213873
0.204906
0.196166
0.187651
0.179357
0.171279
0.163414
0.15576
0.148314
0.141078
0.13405
0.127233
0.120629
0.114239
0.108065
0.102109
0.0963704
0.0908502
0.0855476
0.0804615
0.0755903
0.0709325
0.0664864
0.0622499
0.0582213
0.0543985
0.0507795
0.0473623
0.0441455
0.0411273
0.0383073
0.0356836
0.0332554
0.0310186
0.0289692
0.0270973
0.025393
0.0238377
0.0224159
0.0211028
0.0198833
0.018732
0.0176375
0.0165723
0.0155282
0.014483
0.0134522
0.0124404
0.0114947
0.0108845
0.0105777
0.0102978
0.0100068
0.00972442
0.00941437
0.00911754
0.00881225
0.00856028
0.0083342
0.00818709
0.00806898
0.00802447
0.0079904
0.00801802
0.00802717
0.00809127
0.00810466
0.00817093
0.00815438
0.00819725
0.00813793
0.00814004
0.00804014
0.00800648
0.00788058
0.00781465
0.00767693
0.00759403
0.00745381
0.00735563
0.00721767
0.00711404
0.00698181
0.00686889
0.00674199
0.00662856
0.00651481
0.00640257
0.00628897
0.00617297
0.00605604
0.005946
0.0058339
0.00573229
0.00562808
0.00552655
0.00543261
0.00532019
0.00524666
0.00510199
0.00508392
0.00485454
0.00496997
0.00470482
0.379386
0.366736
0.354596
0.342886
0.331546
0.320512
0.30973
0.299154
0.288756
0.278524
0.268455
0.258559
0.24885
0.239344
0.230058
0.221005
0.212194
0.203628
0.19531
0.187237
0.179404
0.171804
0.164428
0.157268
0.150315
0.143561
0.137
0.130626
0.124434
0.118421
0.112583
0.106918
0.101426
0.0961055
0.0909551
0.0859746
0.0811638
0.076523
0.0720527
0.0677538
0.0636278
0.0596759
0.0559002
0.0523027
0.0488863
0.0456537
0.042609
0.0397548
0.0370951
0.0346297
0.0323592
0.0302766
0.0283755
0.0266387
0.0250524
0.0235908
0.0222387
0.0209671
0.0197633
0.0185941
0.0174495
0.0163006
0.0151625
0.0140352
0.0129704
0.0120904
0.0117133
0.0113717
0.0110221
0.0106905
0.0103324
0.00999566
0.00965053
0.00936868
0.00911384
0.00894931
0.00881344
0.0087615
0.00871674
0.00874348
0.00874477
0.00881143
0.00881702
0.00888668
0.00885982
0.00890472
0.00883251
0.00883306
0.00871797
0.00867949
0.00853782
0.00846328
0.00830995
0.00821672
0.00806178
0.00795122
0.00779901
0.00768245
0.00753709
0.00740954
0.00726958
0.00714078
0.00701599
0.00688912
0.00676462
0.00663303
0.00650385
0.00637749
0.00625392
0.00613551
0.00602215
0.00590261
0.00580186
0.00566964
0.00559155
0.00542549
0.00540387
0.00515567
0.00525989
0.00498222
0.37635
0.363475
0.351119
0.339219
0.327727
0.316595
0.305776
0.295228
0.28492
0.27483
0.264946
0.255266
0.245792
0.236533
0.227499
0.2187
0.210145
0.20184
0.193789
0.185991
0.178445
0.171147
0.164089
0.157262
0.150657
0.144263
0.13807
0.132068
0.126247
0.120598
0.115113
0.109784
0.104606
0.0995729
0.0946802
0.0899245
0.0853031
0.0808143
0.0764577
0.0722337
0.0681441
0.0641911
0.0603787
0.056711
0.0531942
0.0498344
0.0466401
0.0436184
0.0407784
0.0381248
0.0356637
0.0333925
0.0313099
0.0294014
0.0276573
0.0260522
0.0245723
0.0231863
0.0218809
0.0206181
0.0193861
0.0181485
0.0169189
0.0156901
0.0145169
0.0134179
0.0128497
0.0124356
0.0120178
0.0116301
0.0112181
0.0108371
0.0104478
0.0101326
0.00984501
0.00966003
0.00950287
0.00944121
0.00938281
0.00940741
0.00939863
0.00946759
0.00946411
0.00953785
0.00950017
0.0095483
0.00946355
0.00946368
0.00933408
0.00929165
0.00913536
0.00905256
0.00888463
0.00878128
0.00861272
0.00848978
0.00832409
0.00819461
0.00803708
0.00789475
0.0077423
0.00759763
0.00746245
0.00732102
0.00718649
0.00703944
0.0068985
0.0067555
0.00662098
0.00648532
0.00636366
0.00622588
0.00611915
0.00596749
0.00588505
0.00569926
0.0056727
0.00540974
0.00549899
0.0052133
0.373603
0.360553
0.348029
0.335977
0.324359
0.313136
0.302267
0.291718
0.281456
0.271456
0.261701
0.252178
0.242883
0.233816
0.224979
0.216378
0.208019
0.199906
0.192043
0.184433
0.177074
0.169966
0.163105
0.156484
0.150096
0.143933
0.137985
0.13224
0.126688
0.121319
0.11612
0.111081
0.106193
0.101446
0.0968308
0.0923396
0.0879657
0.0837033
0.0795483
0.0754976
0.0715504
0.0677067
0.0639692
0.0603415
0.0568303
0.0534428
0.05019
0.0470819
0.044132
0.0413495
0.0387464
0.0363247
0.0340897
0.0320311
0.0301449
0.0284077
0.0268096
0.0253182
0.0239219
0.0225783
0.0212757
0.0199692
0.0186707
0.0173632
0.0161023
0.0148858
0.013973
0.0134759
0.0129797
0.0125278
0.0120553
0.0116252
0.0111872
0.0108348
0.0105106
0.0103022
0.0101206
0.0100473
0.00997284
0.00999466
0.00997422
0.0100459
0.0100327
0.0101118
0.0100633
0.0101162
0.0100199
0.0100209
0.00987797
0.00983263
0.00966326
0.00957274
0.00939149
0.0092785
0.0090977
0.00896274
0.00878455
0.00864252
0.00847406
0.00831731
0.00815319
0.00799267
0.00784789
0.00769261
0.00754914
0.0073875
0.00723557
0.00707636
0.00693164
0.00677911
0.00665012
0.00649491
0.00638305
0.0062134
0.00612689
0.0059239
0.00589146
0.00561791
0.0056899
0.00540035
0.371105
0.357919
0.345262
0.333089
0.321368
0.310064
0.299145
0.288578
0.278335
0.268388
0.258719
0.24931
0.240151
0.231234
0.222557
0.214119
0.205922
0.197967
0.190257
0.182793
0.175576
0.168604
0.161876
0.155389
0.149137
0.143115
0.137315
0.131728
0.126346
0.121158
0.116152
0.111319
0.106647
0.102124
0.0977399
0.0934835
0.0893448
0.0853142
0.0813832
0.0775449
0.0737938
0.070126
0.0665405
0.0630374
0.0596211
0.0562968
0.0530753
0.0499665
0.0469864
0.0441464
0.0414633
0.0389434
0.0365986
0.0344234
0.0324207
0.0305707
0.0288695
0.0272852
0.0258103
0.0244
0.0230444
0.0216914
0.0203511
0.0189947
0.0176768
0.0163837
0.015211
0.0144775
0.0138932
0.0133687
0.0128287
0.0123445
0.0118532
0.0114603
0.011096
0.010862
0.0106535
0.0105676
0.0104756
0.0104949
0.0104622
0.0105376
0.0105149
0.0106012
0.0105427
0.0106022
0.0104956
0.0104992
0.0103443
0.0102972
0.0101166
0.0100191
0.00982586
0.00970395
0.00951241
0.00936617
0.00917655
0.00902274
0.00884475
0.0086745
0.00849969
0.00832391
0.0081704
0.00800263
0.00785146
0.00767685
0.0075149
0.00734064
0.00718663
0.00701843
0.00688319
0.00671224
0.00659619
0.00641081
0.00632072
0.00610353
0.00606491
0.00578467
0.00583851
0.00554874
0.368825
0.355531
0.34277
0.3305
0.318694
0.307322
0.296355
0.285764
0.275522
0.265606
0.255992
0.246663
0.237604
0.228804
0.220255
0.211952
0.203892
0.196073
0.188495
0.181158
0.174061
0.167203
0.160581
0.154195
0.14804
0.142113
0.136408
0.130919
0.125639
0.120558
0.115669
0.110962
0.106427
0.102052
0.0978275
0.0937413
0.0897825
0.0859396
0.0822019
0.0785592
0.0750026
0.071524
0.0681182
0.0647808
0.061512
0.0583129
0.055191
0.0521537
0.0492159
0.0463887
0.0436912
0.0411321
0.0387285
0.0364791
0.0343941
0.0324579
0.0306739
0.0290126
0.0274729
0.0260094
0.0246172
0.0232385
0.0218835
0.0205106
0.0191729
0.0178414
0.0165818
0.0154821
0.0147441
0.014139
0.0135247
0.0129815
0.0124331
0.0119972
0.0115906
0.01133
0.0110936
0.0109955
0.0108858
0.010904
0.0108596
0.0109407
0.0109096
0.0110053
0.0109382
0.0110063
0.0108913
0.010899
0.0107338
0.0106861
0.010496
0.0103925
0.0101886
0.0100587
0.00985788
0.00970147
0.00950141
0.00933696
0.00915079
0.0089685
0.00878402
0.00859415
0.00843274
0.00825438
0.0080968
0.0079114
0.00774051
0.00755298
0.00739066
0.00720866
0.00706824
0.0068839
0.00676463
0.00656627
0.00647327
0.00624502
0.00620041
0.00591693
0.00595282
0.00566579
0.366734
0.353356
0.340511
0.328165
0.31629
0.304861
0.293851
0.283234
0.272986
0.263083
0.253504
0.24423
0.235244
0.226533
0.218084
0.209891
0.201945
0.194243
0.186781
0.179556
0.172567
0.165811
0.159285
0.152987
0.146915
0.141064
0.135431
0.130011
0.124798
0.119786
0.114968
0.110335
0.10588
0.101593
0.0974643
0.0934842
0.089642
0.0859265
0.0823268
0.0788315
0.0754304
0.0721127
0.0688706
0.0656956
0.0625843
0.0595326
0.0565442
0.0536213
0.050776
0.0480159
0.0453598
0.0428156
0.0404037
0.0381249
0.0359958
0.0340044
0.0321619
0.0304419
0.0288516
0.0273467
0.0259303
0.0245416
0.0231939
0.0218339
0.0205131
0.0191868
0.017917
0.0166322
0.0155816
0.0148261
0.0141314
0.0135252
0.0129173
0.0124374
0.0119883
0.0117019
0.0114388
0.0113303
0.0112047
0.0112244
0.0111702
0.0112597
0.0112222
0.01133
0.0112561
0.011335
0.0112135
0.011227
0.011053
0.0110059
0.0108079
0.0106995
0.0104858
0.0103492
0.0101402
0.00997503
0.00976529
0.00959164
0.00939843
0.009206
0.00901272
0.00881042
0.00864181
0.00845511
0.00829232
0.00809863
0.0079199
0.00772119
0.00755154
0.00735796
0.00721338
0.00701828
0.00689673
0.00668823
0.00659304
0.0063567
0.00630658
0.00602268
0.00604148
0.00575942
0.364809
0.351365
0.338455
0.326047
0.314118
0.302641
0.291594
0.280953
0.270693
0.260795
0.251237
0.241999
0.233065
0.22442
0.21605
0.207943
0.200092
0.192488
0.185126
0.178001
0.171109
0.164446
0.158008
0.151793
0.145797
0.140016
0.134447
0.129086
0.123928
0.118967
0.114198
0.109615
0.105209
0.100974
0.0969021
0.0929836
0.0892098
0.0855709
0.0820571
0.0786574
0.075362
0.0721597
0.0690415
0.0659972
0.0630208
0.0601046
0.0572487
0.0544503
0.0517176
0.0490532
0.0464734
0.0439828
0.0416026
0.0393329
0.0371951
0.0351787
0.0333026
0.0315427
0.0299155
0.0283789
0.0269459
0.0255555
0.0242279
0.0229003
0.0216253
0.0203434
0.019113
0.0178364
0.0165865
0.0154902
0.0146397
0.0139678
0.0133001
0.0127775
0.0122884
0.0119793
0.0116929
0.0115779
0.0114396
0.0114647
0.0114039
0.0115049
0.0114637
0.0115863
0.0115078
0.0115993
0.0114733
0.0114942
0.0113125
0.0112673
0.0110626
0.0109507
0.0107278
0.0105857
0.0103692
0.010197
0.009978
0.00979677
0.0095973
0.00939685
0.00919543
0.00898262
0.00880728
0.00861459
0.0084476
0.00824811
0.00806254
0.00785483
0.00767865
0.00747581
0.00732785
0.00712461
0.00700149
0.00678553
0.00668871
0.00644689
0.00639172
0.00610959
0.00611241
0.00583675
0.363031
0.349534
0.336572
0.324117
0.312143
0.300629
0.289551
0.278887
0.268616
0.258717
0.24917
0.239957
0.231059
0.222463
0.214152
0.206114
0.198339
0.190817
0.18354
0.176501
0.169694
0.163115
0.156759
0.150621
0.144697
0.138983
0.133476
0.12817
0.123063
0.118149
0.113422
0.108878
0.10451
0.100312
0.0962763
0.092396
0.0886633
0.0850694
0.0816062
0.0782637
0.0750334
0.0719045
0.0688689
0.0659157
0.0630387
0.0602279
0.0574815
0.0547928
0.0521669
0.0496012
0.0471091
0.0446901
0.0423646
0.0401298
0.0380093
0.0359924
0.0341039
0.0323209
0.0306689
0.0291076
0.0276614
0.0262704
0.0249651
0.0236765
0.0224612
0.0212492
0.0200995
0.0188871
0.0176664
0.0163454
0.0152148
0.0143054
0.0135797
0.0130185
0.0124948
0.0121689
0.0118651
0.0117489
0.0116031
0.0116378
0.0115745
0.0116901
0.0116484
0.0117882
0.0117073
0.011813
0.0116842
0.011714
0.0115255
0.0114833
0.0112725
0.0111585
0.0109264
0.0107803
0.0105566
0.010379
0.010151
0.00996383
0.00975846
0.00955216
0.00934297
0.00912163
0.0089398
0.00874326
0.00857278
0.00836975
0.00817811
0.00796341
0.0077813
0.00757132
0.00742049
0.0072114
0.00708713
0.00686599
0.0067678
0.00652265
0.00646269
0.00618388
0.00617182
0.00590332
0.361383
0.347844
0.334842
0.322348
0.31034
0.298795
0.287692
0.277009
0.266727
0.256825
0.247284
0.238086
0.229215
0.220654
0.212388
0.204404
0.196689
0.189234
0.182027
0.175062
0.16833
0.161825
0.155542
0.149476
0.143619
0.137969
0.132521
0.12727
0.122213
0.117344
0.112658
0.108151
0.103817
0.0996505
0.0956448
0.0917933
0.0880896
0.0845257
0.0810947
0.0777877
0.0745974
0.0715141
0.0685307
0.0656366
0.0628265
0.0600895
0.0574235
0.0548192
0.0522804
0.0497998
0.0473887
0.0450415
0.042777
0.0405879
0.038499
0.036497
0.034611
0.0328175
0.0311498
0.0295689
0.0281097
0.0267143
0.025425
0.0241701
0.0230124
0.0218759
0.0208277
0.0197235
0.0185933
0.0173023
0.0160074
0.0147593
0.0137591
0.0131658
0.0126159
0.0122814
0.0119682
0.0118575
0.0117099
0.0117589
0.0116973
0.0118303
0.011791
0.0119499
0.0118686
0.0119897
0.0118593
0.0118993
0.0117043
0.0116664
0.0114495
0.0113351
0.0110935
0.0109447
0.0107136
0.0105325
0.0102952
0.0101037
0.00989244
0.00968229
0.00946542
0.00923742
0.00904908
0.00885053
0.00867692
0.00847221
0.00827499
0.00805503
0.00786728
0.00765198
0.00749841
0.0072854
0.00715999
0.00693555
0.00683588
0.00658912
0.00652431
0.0062499
0.00622386
0.00596278
0.359848
0.346278
0.333245
0.320721
0.308686
0.297117
0.285994
0.275296
0.265003
0.255097
0.24556
0.236373
0.22752
0.218985
0.210753
0.20281
0.195143
0.187741
0.180593
0.173689
0.167021
0.160582
0.154364
0.148361
0.142568
0.136977
0.131586
0.126388
0.121379
0.116555
0.11191
0.10744
0.10314
0.0990037
0.0950262
0.0912011
0.0875224
0.0839831
0.0805769
0.0772958
0.0741336
0.071081
0.0681325
0.0652778
0.0625125
0.0598258
0.0572162
0.0546729
0.0521991
0.0497849
0.04744
0.0451546
0.042946
0.0408025
0.038749
0.0367684
0.034893
0.0330969
0.0314196
0.0298222
0.0283494
0.0269438
0.0256603
0.0244265
0.0233127
0.0222388
0.0212883
0.0203109
0.0193184
0.018122
0.0168523
0.0154522
0.0141618
0.013229
0.0126636
0.0123305
0.012017
0.0119188
0.0117754
0.0118427
0.0117868
0.0119389
0.0119045
0.0120834
0.0120035
0.0121403
0.0120093
0.0120605
0.0118591
0.0118264
0.0116033
0.01149
0.0112383
0.0110884
0.0108495
0.0106664
0.0104195
0.0102252
0.0100076
0.00979547
0.00957076
0.0093378
0.00914267
0.00894355
0.00876684
0.00856191
0.00835933
0.00813554
0.00794218
0.00772305
0.00756658
0.00735114
0.00722432
0.00699803
0.00689648
0.00664947
0.00657952
0.0063102
0.00627091
0.00601719
0.358416
0.344821
0.331764
0.319218
0.307162
0.295575
0.284436
0.273726
0.263425
0.253516
0.24398
0.2348
0.225961
0.217445
0.209239
0.201328
0.193699
0.18634
0.179239
0.172387
0.165773
0.159389
0.153228
0.147282
0.141545
0.13601
0.130671
0.125524
0.120562
0.115782
0.111177
0.106745
0.102478
0.0983733
0.0944243
0.0906254
0.0869713
0.0834552
0.0800718
0.0768132
0.0736744
0.0706464
0.0677247
0.0648992
0.0621669
0.0595168
0.056948
0.0544491
0.0520237
0.0496595
0.0473661
0.04513
0.0429683
0.0408646
0.0388442
0.0368858
0.0350239
0.0332293
0.0315464
0.0299349
0.028448
0.0270277
0.0257398
0.024513
0.0234253
0.0223917
0.0215148
0.0206541
0.0198187
0.0187676
0.0175856
0.0161856
0.0148164
0.0134608
0.0126521
0.0123306
0.0120262
0.0119468
0.011813
0.0119012
0.0118541
0.0120262
0.0119984
0.0121974
0.0121201
0.0122725
0.0121416
0.0122045
0.0119967
0.0119702
0.0117403
0.0116298
0.0113675
0.0112177
0.0109704
0.0107869
0.01053
0.0103341
0.0101098
0.00989718
0.00966437
0.00942791
0.00922555
0.00902698
0.00884693