/*--------------------------------*- C++ -*----------------------------------*\
| =========                 |                                                 |
| \\      /  F ield         | OpenFOAM: The Open Source CFD Toolbox           |
|  \\    /   O peration     | Version:  2412                                  |
|   \\  /    A nd           | Website:  www.openfoam.com                      |
|    \\/     M anipulation  |                                                 |
\*---------------------------------------------------------------------------*/
FoamFile
{
    version     2.0;
    format      ascii;
    arch        "LSB;label=32;scalar=64";
    class       volVectorField;
    location    "0.17";
    object      ddtCorrDdt0(U);
}
// * * * * * * * * * * * * * * * * * * * * * * * * * * * * * * * * * * * * * //

dimensions      [0 1 -2 0 0 0 0];

internalField   nonuniform List<vector> 
12600
(
(606.434 3.66953e-19 92.3407)
(374.212 1.43033e-18 43.1119)
(263.239 2.03759e-18 21.9088)
(199.342 0 12.4008)
(159.742 2.69427e-18 7.6569)
(132.854 2.87427e-18 4.89258)
(112.849 0 3.1068)
(97.1875 0 1.83219)
(84.8591 -1.11782e-17 0.962553)
(75.4895 0 0.532997)
(68.5716 5.86465e-18 0.48494)
(63.129 6.15534e-18 0.545011)
(58.2315 -6.34857e-18 0.471862)
(53.5458 0 0.31384)
(49.2179 -6.15808e-18 0.0794918)
(45.4976 0 -0.104263)
(42.5176 2.29666e-17 -0.171125)
(40.0862 0 -0.205183)
(37.8973 -1.12015e-17 -0.279333)
(35.8661 -1.12444e-17 -0.345613)
(34.1116 1.12475e-17 -0.397429)
(32.6688 6.88094e-21 -0.444168)
(31.4188 0 -0.491477)
(30.1988 -2.18761e-17 -0.523468)
(28.9455 0 -0.582833)
(27.7649 0 -0.676949)
(26.6771 -1.983e-17 -0.727242)
(25.7482 0 -0.744697)
(25.0191 -8.47441e-21 -0.788528)
(24.1872 1.85963e-17 -0.797536)
(23.1276 1.80268e-17 -0.79027)
(22.4696 1.74611e-17 -0.904828)
(21.7886 -1.71167e-17 -0.871823)
(20.8337 -3.3284e-17 -0.791439)
(20.6317 -3.26747e-17 -0.92349)
(19.6835 3.21434e-17 -0.785354)
(18.3197 0 -0.732016)
(18.3376 -2.94353e-17 -0.901376)
(17.0532 0 -0.617153)
(16.2174 2.69497e-17 -0.615502)
(16.456 0 -0.630973)
(14.3518 -2.16592e-21 -0.292592)
(13.8168 0 -0.397425)
(13.0047 -5.0761e-21 -0.180103)
(11.0796 4.83447e-17 0.0374773)
(11.024 -4.93997e-17 0.149326)
(9.23054 4.8393e-17 0.4955)
(8.17348 0 0.634754)
(6.88246 0 0.956665)
(5.47436 4.07994e-17 1.12614)
(5.16741 8.22404e-17 1.4035)
(4.07376 7.82955e-17 1.59054)
(4.32161 -8.18552e-20 1.66718)
(3.78887 7.50557e-17 1.65716)
(3.84332 0 1.44324)
(4.1189 -6.86935e-17 1.27693)
(4.48295 -6.44575e-17 1.01145)
(5.08889 -6.48306e-17 0.848025)
(5.31542 0 0.607947)
(5.69706 0 0.465341)
(5.45092 0 0.385449)
(5.32379 1.0893e-16 0.496896)
(4.3823 0 0.869481)
(3.07219 0 1.16057)
(1.15233 -2.03012e-16 0.967131)
(-0.441083 0 1.65917)
(-1.94083 0 2.50386)
(-3.20307 0 2.3801)
(-4.12685 1.72784e-16 2.37309)
(-4.59781 -1.62797e-16 2.313)
(-4.50946 -1.60275e-16 2.17812)
(-3.79269 -5.43312e-20 1.94467)
(-2.45223 1.47951e-16 1.70971)
(-1.28544 0 1.51322)
(-0.491305 -1.36994e-16 1.45318)
(-0.330723 0 1.50689)
(-0.628964 0 1.68405)
(-1.5806 0 1.86191)
(-2.87887 -1.4724e-19 2.1148)
(-4.56683 -2.31425e-16 2.31683)
(-6.2756 -2.31071e-16 2.60534)
(-8.08433 2.23117e-16 2.818)
(-9.63734 2.21909e-16 3.08988)
(-10.9709 0 3.26287)
(-12.0791 0 3.42138)
(-12.9455 -4.05849e-16 3.47721)
(-13.1174 8.06826e-16 3.51929)
(-13.3413 -7.76449e-16 3.46821)
(-13.0085 -3.74997e-16 3.38044)
(-12.6638 0 3.27279)
(-12.1073 7.04854e-16 3.12694)
(-11.6058 -3.37481e-16 2.98947)
(-10.8077 3.32076e-16 2.83999)
(-10.4472 -6.33821e-16 2.72465)
(-9.83321 0 2.59573)
(-9.49905 0 2.49855)
(-8.97669 0 2.39772)
(-8.81394 0 2.34131)
(-8.55087 0 2.27523)
(-8.37003 0 2.22497)
(-8.17254 4.82665e-16 2.17636)
(-8.11108 9.25105e-16 2.1477)
(-8.16871 8.85693e-16 2.15367)
(-8.18492 0 2.14447)
(-8.39829 0 2.16469)
(-8.28828 0 2.13217)
(-8.41808 7.46802e-16 2.15537)
(-8.37107 1.41429e-15 2.12795)
(-8.65274 -6.77192e-16 2.18015)
(-8.67414 0 2.17011)
(-9.07763 1.23095e-15 2.24093)
(-9.09464 0 2.22795)
(-9.5153 1.12197e-15 2.30187)
(-9.38673 -1.06341e-15 2.26373)
(-9.98869 1.01646e-15 2.3659)
(-9.45679 9.66967e-16 2.25631)
(-10.5294 -9.19732e-16 2.43822)
(-8.97685 3.07719e-20 2.13432)
(-10.9792 -8.29604e-16 2.47041)
(-8.08563 0 1.7226)
(531.104 -3.70544e-19 221.459)
(398.119 0 114.571)
(300.73 -2.06273e-18 61.8482)
(234.109 0 34.9412)
(188.467 -2.73035e-18 21.0917)
(156.576 -5.72367e-18 13.3844)
(133.027 -2.89203e-18 8.63179)
(114.902 0 5.4615)
(100.938 4.95492e-20 3.3208)
(90.5867 -5.6809e-18 2.14478)
(82.9717 5.93693e-18 1.60957)
(76.8904 6.23275e-18 1.26404)
(71.4946 -6.39792e-18 0.749281)
(66.4848 6.383e-18 0.0711055)
(62.0043 1.24485e-17 -0.665821)
(58.3481 0 -1.21071)
(55.5489 -2.1354e-20 -1.50111)
(53.3302 1.14586e-17 -1.68704)
(51.4035 1.13645e-17 -1.89934)
(49.6959 0 -2.10658)
(48.2935 0 -2.28922)
(47.209 1.14266e-17 -2.45467)
(46.3194 0 -2.61093)
(45.434 1.10839e-17 -2.75112)
(44.4656 -2.13665e-17 -2.93525)
(43.5427 0 -3.17697)
(42.6996 2.00487e-17 -3.31143)
(41.9668 0 -3.35458)
(41.3801 -1.92729e-17 -3.45168)
(40.6503 -3.7652e-17 -3.48567)
(39.5864 -3.64819e-17 -3.46132)
(38.8584 -1.76738e-17 -3.67163)
(38.073 1.73203e-17 -3.61016)
(36.8547 6.73299e-17 -3.37345)
(36.2918 6.60396e-17 -3.59046)
(34.921 0 -3.29932)
(32.9182 0 -3.05052)
(32.2232 5.1078e-20 -3.34221)
(30.1696 0 -2.69414)
(28.3306 -2.72067e-17 -2.48542)
(27.5096 0 -2.48931)
(24.1973 -5.28093e-17 -1.6321)
(22.2102 0 -1.65145)
(19.8682 -5.1761e-17 -1.15116)
(16.2121 0 -0.438796)
(14.2858 4.97423e-17 -0.112289)
(10.5677 0 0.745888)
(7.57673 0 1.18743)
(4.4987 -4.48394e-17 1.88417)
(1.56562 0 2.32898)
(0.150388 0 2.80665)
(-1.57692 0 3.17336)
(-1.45226 -7.74353e-17 3.17497)
(-1.62825 -1.50373e-16 3.09574)
(-0.85003 0 2.63366)
(0.408689 0 2.24699)
(1.86014 6.44042e-17 1.71838)
(3.58499 6.48273e-17 1.34704)
(4.79907 0 0.881728)
(5.9092 0 0.589407)
(5.80477 0 0.510874)
(4.94647 0 0.832083)
(2.17444 1.05522e-16 1.70149)
(-2.03463 -1.02375e-16 2.73427)
(-7.33661 2.00358e-16 2.92202)
(-12.0349 0 4.51287)
(-16.372 0 5.764)
(-19.8354 0 5.92435)
(-22.0522 -1.14987e-19 6.09921)
(-22.8909 1.6124e-16 6.01221)
(-21.9731 1.58597e-16 5.65302)
(-19.5253 -2.92263e-16 5.02189)
(-15.9303 -5.9698e-20 4.34647)
(-12.8894 1.36906e-16 3.81123)
(-11.0182 1.35044e-16 3.60463)
(-10.9534 0 3.72238)
(-12.3274 0 4.16588)
(-15.2945 0 4.76023)
(-19.1996 -2.37008e-16 5.53812)
(-23.9201 0 6.30736)
(-28.745 0 7.19074)
(-33.6205 -2.18368e-16 7.96764)
(-37.8903 -2.16954e-16 8.75275)
(-41.5217 0 9.33245)
(-44.176 0 9.77331)
(-46.169 0 10.008)
(-46.5159 -7.8526e-16 10.0652)
(-46.6582 6.28466e-20 9.97391)
(-45.3781 -3.64127e-16 9.6963)
(-44.311 3.55353e-16 9.42238)
(-42.2876 -6.83049e-16 8.99272)
(-40.7468 -3.26664e-16 8.6445)
(-38.4389 -6.42244e-16 8.20349)
(-37.2271 0 7.9203)
(-35.3475 0 7.54691)
(-34.2855 0 7.30513)
(-32.7922 0 7.01913)
(-32.2211 -5.24898e-16 6.88484)
(-31.331 0 6.69637)
(-30.7809 0 6.57189)
(-30.1591 4.62785e-16 6.44079)
(-29.9179 -4.43096e-16 6.38182)
(-30.0499 -1.69517e-15 6.40342)
(-30.0127 8.17036e-16 6.38244)
(-30.4235 0 6.44074)
(-30.0517 0 6.35402)
(-30.4538 0 6.42994)
(-30.2128 -6.7357e-16 6.36602)
(-31.0881 6.44483e-16 6.53283)
(-31.0586 0 6.51203)
(-32.2423 -2.33896e-15 6.73188)
(-32.1274 -1.1086e-15 6.69566)
(-33.4143 -2.12847e-15 6.92744)
(-32.8595 0 6.81431)
(-34.6475 0 7.13246)
(-32.9274 9.15109e-16 6.80455)
(-36.1373 0 7.3738)
(-31.2514 8.26949e-16 6.44651)
(-37.3033 7.83544e-16 7.51914)
(-26.7559 0 5.28174)
(405.033 0 266.419)
(356.289 0 156.21)
(298.983 -1.97232e-18 93.9698)
(249.497 0 57.5212)
(209.413 0 36.0839)
(177.718 2.71907e-18 23.1455)
(152.744 2.739e-18 15.0028)
(133.056 0 9.68626)
(117.875 1.00443e-20 6.28307)
(106.558 5.38205e-18 4.20219)
(98.0829 -1.12507e-17 2.71209)
(91.3028 -5.90562e-18 1.42401)
(85.4004 5.28319e-20 0.157248)
(80.109 -6.04845e-18 -1.22368)
(75.6347 -5.87483e-18 -2.4921)
(72.189 5.66453e-18 -3.37754)
(69.6747 -1.10119e-17 -3.93187)
(67.7764 -1.08586e-17 -4.35217)
(66.2186 0 -4.72565)
(64.923 0 -5.07047)
(63.9603 1.07849e-17 -5.38849)
(63.3257 1.07789e-17 -5.70014)
(62.8816 0 -5.99382)
(62.4155 0 -6.28423)
(61.8382 2.0246e-17 -6.5925)
(61.2974 0 -6.92595)
(60.8135 -3.79649e-17 -7.12129)
(60.3636 1.85201e-17 -7.18406)
(59.9855 0 -7.29354)
(59.3965 1.78295e-17 -7.36398)
(58.3631 1.72709e-17 -7.31761)
(57.5888 0 -7.45016)
(56.6724 -1.63938e-17 -7.38637)
(55.1411 -3.18826e-17 -7.01438)
(54.1429 -4.34201e-20 -7.08286)
(52.2136 0 -6.7658)
(49.4445 0 -6.22773)
(47.885 2.81127e-17 -6.32282)
(44.8233 0 -5.54507)
(41.7675 0 -4.88366)
(39.6098 0 -4.74944)
(34.7918 0 -3.58029)
(31.1136 0 -3.11371)
(26.952 0 -2.44877)
(21.3515 0 -1.18094)
(17.3585 -4.69746e-17 -0.56044)
(11.5835 4.60202e-17 0.596735)
(6.6225 0 1.41475)
(1.75619 4.24222e-17 2.20218)
(-2.59951 0 2.87692)
(-5.04226 0 3.22823)
(-7.26387 -7.42053e-17 3.55509)
(-7.14909 0 3.30577)
(-6.84057 7.10369e-17 3.03556)
(-5.22395 -6.55817e-17 2.47297)
(-2.91467 0 1.90094)
(-0.322862 -6.0876e-17 1.32603)
(2.49267 0 0.808653)
(4.62416 0 0.346823)
(6.26625 0 0.04979)
(6.02965 -1.04857e-16 0.1809)
(4.09279 -1.02456e-16 0.801912)
(-0.800286 -3.36771e-20 2.06212)
(-8.02651 1.93204e-16 3.82582)
(-16.4348 -9.41742e-19 6.00476)
(-24.4914 0 7.0147)
(-31.5978 0 7.99628)
(-36.9244 1.61724e-16 8.72827)
(-40.1626 -3.50128e-20 9.1114)
(-41.1185 0 8.996)
(-39.2685 0 8.37627)
(-35.2427 1.37767e-16 7.41415)
(-29.8329 -2.3898e-20 6.37824)
(-25.5288 -3.16197e-20 5.66787)
(-23.2158 0 5.41546)
(-23.8091 0 5.69727)
(-26.6831 2.33419e-16 6.43063)
(-31.9166 -2.21638e-16 7.54163)
(-38.5236 0 8.86992)
(-46.2229 0 10.3088)
(-54.0002 0 11.7618)
(-61.6843 0 13.1412)
(-68.3405 0 14.349)
(-73.9186 0 15.3035)
(-77.7605 0 15.9272)
(-80.5638 0 16.3221)
(-80.8016 7.38233e-16 16.2959)
(-80.6813 3.54791e-16 16.1623)
(-78.3188 3.42232e-16 15.665)
(-76.4703 -3.33916e-16 15.2485)
(-72.9367 6.41652e-16 14.5342)
(-70.3969 3.06832e-16 14.0288)
(-66.6256 3.01548e-16 13.3148)
(-64.6082 0 12.9181)
(-61.5084 0 12.3212)
(-59.7756 0 11.9816)
(-57.3871 0 11.5391)
(-56.4308 4.92439e-16 11.3574)
(-54.9461 0 11.0601)
(-54.0588 0 10.8877)
(-53.0903 -4.33918e-16 10.6977)
(-52.718 0 10.6375)
(-52.9409 7.94396e-16 10.6809)
(-52.812 -7.65652e-16 10.6484)
(-53.4109 0 10.7396)
(-52.7653 0 10.607)
(-53.5159 0 10.7499)
(-53.0932 -6.3074e-16 10.6658)
(-54.656 0 10.9663)
(-54.5335 5.73674e-16 10.9365)
(-56.591 2.75812e-20 11.3189)
(-56.2491 1.03753e-15 11.2498)
(-58.5168 1.99165e-15 11.656)
(-57.427 0 11.458)
(-60.5166 -9.0052e-16 12.0047)
(-57.5025 -8.5597e-16 11.4559)
(-63.0056 -8.13484e-16 12.4246)
(-54.621 0 10.8669)
(-64.996 -7.32639e-16 12.7074)
(-46.7188 0 8.97487)
(306.978 0 257.558)
(301.703 0 173.6)
(275.802 1.86458e-18 116.176)
(246.209 0 77.9229)
(217.605 -2.45074e-18 52.4432)
(191.764 5.12235e-18 35.218)
(169.197 0 23.3637)
(150.232 -5.07578e-18 15.2612)
(135.031 5.01057e-18 9.94686)
(123.238 5.13424e-18 6.39509)
(114.114 5.31991e-18 3.78265)
(106.742 -5.52457e-18 1.54125)
(100.377 5.68353e-18 -0.609698)
(94.8661 -1.11904e-17 -2.68149)
(90.4902 0 -4.40595)
(87.326 -1.07134e-17 -5.65321)
(85.1369 0 -6.50536)
(83.593 0 -7.16631)
(82.4541 0 -7.73467)
(81.6363 1.02524e-17 -8.25202)
(81.1815 -8.05747e-21 -8.72567)
(81.0711 -3.65119e-20 -9.2012)
(81.1633 1.00246e-17 -9.65367)
(81.227 0 -10.0982)
(81.1639 0 -10.5235)
(81.129 0 -10.9391)
(81.1257 3.58592e-17 -11.1999)
(81.0702 2.95795e-21 -11.2955)
(80.9979 0 -11.4161)
(80.6412 0 -11.5138)
(79.7195 0 -11.4437)
(78.9473 0 -11.4655)
(77.926 3.09997e-17 -11.3755)
(76.0815 0 -10.8758)
(74.6025 -2.95066e-17 -10.7355)
(72.0544 0 -10.3583)
(68.4235 0 -9.50575)
(65.8518 -2.64967e-17 -9.29173)
(61.6135 0 -8.36837)
(57.1233 0 -7.20264)
(53.3821 2.47916e-17 -6.81756)
(46.8095 -4.73666e-17 -5.3377)
(41.1751 0 -4.26447)
(34.9484 -4.62594e-17 -3.36148)
(27.1865 0 -1.51282)
(20.9505 8.86925e-17 -0.492836)
(13.0018 -3.33338e-20 0.946132)
(6.01797 0 2.18777)
(-0.636842 0 3.04615)
(-6.36478 -3.65123e-17 3.9486)
(-9.75609 -7.36223e-17 4.19261)
(-12.3902 1.40172e-16 4.43703)
(-12.2014 0 3.97826)
(-11.3587 6.70022e-17 3.41981)
(-8.87327 6.19066e-17 2.69828)
(-5.50734 6.1213e-17 1.83827)
(-1.78722 5.74448e-17 1.14877)
(2.06806 0 0.423927)
(5.00431 0 -0.0526674)
(6.99046 1.0594e-16 -0.316573)
(6.36843 1.97793e-16 0.117532)
(3.10328 9.66333e-17 1.20314)
(-4.08047 -1.35276e-20 3.0737)
(-14.3325 -9.10221e-17 5.45371)
(-25.9712 -8.7791e-17 8.99632)
(-37.2428 0 9.83597)
(-46.7524 0 11.1642)
(-53.7999 -1.52405e-16 12.1499)
(-57.8973 -3.04263e-16 12.5195)
(-58.8601 0 12.2457)
(-56.1427 -1.40759e-16 11.2687)
(-50.8423 -1.29701e-16 9.99211)
(-44.1304 -1.29661e-16 8.69343)
(-39.172 -2.42939e-16 7.98619)
(-36.9818 0 7.88718)
(-38.6891 0 8.54343)
(-43.3682 -2.19652e-16 9.72815)
(-51.0465 4.1702e-16 11.4216)
(-60.3808 2.09672e-16 13.3152)
(-70.9829 0 15.3504)
(-81.509 0 17.312)
(-91.7548 0 19.1611)
(-100.459 0 20.7001)
(-107.672 0 21.9004)
(-112.371 0 22.6087)
(-115.734 3.49221e-16 23.046)
(-115.615 -2.43251e-20 22.8813)
(-115.118 -3.33198e-16 22.6219)
(-111.573 0 21.8762)
(-108.926 -3.13415e-16 21.2836)
(-103.868 -3.01142e-16 20.2694)
(-100.393 0 19.597)
(-95.2103 2.8292e-16 18.6216)
(-92.437 5.39199e-16 18.1035)
(-88.1726 0 17.2922)
(-85.8193 0 16.8528)
(-82.6107 0 16.2702)
(-81.2745 4.61631e-16 16.0343)
(-79.2366 0 15.6337)
(-78.0269 0 15.4126)
(-76.7878 -4.06576e-16 15.1782)
(-76.2964 3.89112e-16 15.1178)
(-76.6211 0 15.1856)
(-76.3363 0 15.1271)
(-77.1199 0 15.2481)
(-76.161 0 15.0606)
(-77.321 0 15.284)
(-76.6834 -4.13461e-21 15.1714)
(-79.0009 0 15.6207)
(-78.6951 -5.36824e-16 15.5627)
(-81.7004 1.02416e-15 16.1203)
(-80.9854 0 15.9889)
(-84.3389 -2.01597e-20 16.5851)
(-82.5387 0 16.2705)
(-87.0438 1.75003e-20 17.0556)
(-82.5567 0 16.2625)
(-90.4879 7.60577e-16 17.6252)
(-78.4519 0 15.4313)
(-93.282 -6.84819e-16 18.0028)
(-67.6463 0 12.776)
(241.007 0 231.559)
(252.024 0 173.167)
(244.638 0 126.177)
(230.026 0 90.9346)
(212.506 2.31343e-18 65.1131)
(194.326 3.70652e-20 46.1585)
(176.907 0 32.1743)
(161.269 4.7912e-18 21.9957)
(147.942 0 14.7685)
(137.008 -9.74887e-18 9.59041)
(128.13 0 5.63412)
(120.659 5.21582e-18 2.23851)
(114.178 0 -0.942062)
(108.805 1.05659e-17 -3.74097)
(104.764 -5.13882e-18 -5.95218)
(101.995 1.01308e-17 -7.6363)
(100.237 -1.00079e-17 -8.87611)
(99.1652 -9.90654e-18 -9.83654)
(98.5429 0 -10.6637)
(98.2934 -9.6812e-18 -11.4446)
(98.4587 -9.6251e-18 -12.1592)
(99.0137 -1.91433e-17 -12.8372)
(99.8002 -9.46599e-18 -13.4694)
(100.566 0 -14.0885)
(101.202 0 -14.6553)
(101.866 0 -15.1681)
(102.541 -1.69195e-17 -15.5098)
(103.078 -1.65403e-17 -15.6581)
(103.5 0 -15.7981)
(103.561 0 -15.9171)
(102.931 1.54097e-17 -15.8265)
(102.306 0 -15.7402)
(101.311 -8.21366e-22 -15.6013)
(99.2684 -2.84786e-17 -14.9731)
(97.3722 2.77833e-17 -14.5899)
(94.256 0 -14.0922)
(89.774 0 -12.913)
(86.1278 2.50081e-17 -12.3266)
(80.6378 0 -11.2068)
(74.5764 0 -9.52485)
(69.0707 -2.33949e-17 -8.79386)
(60.5718 4.46953e-17 -6.96575)
(52.763 0 -5.23426)
(44.2693 4.36449e-17 -4.00546)
(34.1606 0 -1.57572)
(25.5037 -4.18019e-17 -0.109849)
(15.2589 -4.09776e-17 1.60071)
(6.15512 0 3.23272)
(-2.34406 -3.76656e-17 4.13239)
(-9.47776 3.44331e-17 5.18876)
(-13.8406 1.38841e-16 5.28155)
(-16.9034 -6.60994e-17 5.36787)
(-16.6642 6.49561e-17 4.66021)
(-15.3057 -2.02329e-20 3.7571)
(-11.9708 0 2.83523)
(-7.5569 -5.76956e-17 1.66348)
(-2.71746 -5.41384e-17 0.845795)
(2.15208 5.43996e-17 -0.071554)
(5.82403 -5.09851e-17 -0.523881)
(8.03453 -9.98101e-17 -0.672741)
(6.8698 -9.31507e-17 0.174835)
(2.14055 9.0987e-17 1.85505)
(-7.40306 -8.84707e-17 4.46135)
(-20.6622 0 7.50524)
(-35.6035 0 11.1706)
(-49.6828 -7.68933e-17 12.9803)
(-61.4907 0 14.5492)
(-70.1451 0 15.6474)
(-75.0203 1.43164e-16 15.8912)
(-76.0052 0 15.3875)
(-72.6132 1.32433e-16 14.0344)
(-66.4358 2.44021e-16 12.5078)
(-58.9625 0 11.0766)
(-53.9272 1.14229e-16 10.5451)
(-52.3616 0 10.7678)
(-55.565 0 11.9427)
(-62.2761 2.06363e-16 13.6736)
(-72.4992 -1.95956e-16 15.9919)
(-84.5179 -5.14484e-20 18.4461)
(-97.8904 0 21.0321)
(-110.928 0 23.4331)
(-123.473 0 25.6603)
(-133.893 1.8014e-16 27.4312)
(-142.463 -1.76227e-16 28.7774)
(-147.721 0 29.4775)
(-151.443 -6.55617e-16 29.8774)
(-150.767 -3.25387e-16 29.5122)
(-149.82 6.25355e-16 29.0863)
(-145.02 3.01457e-16 28.0697)
(-141.58 5.87993e-16 27.2921)
(-134.997 0 25.9765)
(-130.643 0 25.1502)
(-124.101 -2.65282e-16 23.93)
(-120.599 -5.05505e-16 23.3006)
(-115.226 4.88501e-16 22.2905)
(-112.268 0 21.7611)
(-108.306 0 21.0579)
(-106.558 -4.32518e-16 20.7667)
(-104.007 -4.12938e-16 20.2724)
(-102.449 0 20.0029)
(-101.002 3.80767e-16 19.7403)
(-100.35 -3.64359e-16 19.6785)
(-100.782 0 19.7713)
(-100.238 0 19.6674)
(-101.201 0 19.8143)
(-99.838 0 19.5574)
(-101.44 0 19.8699)
(-100.488 5.52392e-16 19.7143)
(-103.591 0 20.3196)
(-102.949 0 20.206)
(-106.947 0 20.9444)
(-105.647 -9.07707e-16 20.7119)
(-110.169 -8.70996e-16 21.5076)
(-107.405 0 21.0337)
(-113.42 7.87294e-16 22.0626)
(-107.207 0 20.9922)
(-117.644 7.10911e-16 22.734)
(-101.861 0 19.9135)
(-121.01 6.39987e-16 23.1453)
(-88.9282 0 16.5474)
(197.633 -1.80174e-18 203.342)
(212.984 -1.88301e-18 164.193)
(214.903 2.01174e-18 128.006)
(209.443 2.17311e-18 97.7644)
(199.766 0 73.5613)
(188.089 -2.32154e-18 54.5799)
(175.834 0 39.8793)
(164.155 4.67863e-18 28.5681)
(153.751 4.6456e-18 19.9608)
(144.781 9.30801e-18 13.4303)
(137.046 -4.76789e-18 8.17295)
(130.221 4.84361e-18 3.52079)
(124.303 0 -0.658868)
(119.585 0 -4.16231)
(116.215 4.84497e-18 -6.95246)
(114.099 3.41081e-20 -9.1393)
(112.979 -1.22211e-19 -10.8089)
(112.522 -1.1968e-19 -12.1609)
(112.531 0 -13.3702)
(112.987 0 -14.5104)
(113.946 0 -15.5248)
(115.355 1.79638e-17 -16.4419)
(117.032 8.81964e-18 -17.2944)
(118.718 0 -18.1272)
(120.302 0 -18.8646)
(121.931 1.62639e-17 -19.4906)
(123.561 0 -19.9299)
(124.975 0 -20.1565)
(126.177 0 -20.3367)
(126.947 0 -20.4866)
(126.903 1.10293e-20 -20.3914)
(126.7 0 -20.2111)
(125.999 2.02171e-22 -20.0061)
(124.021 2.68453e-17 -19.2471)
(121.923 -3.1421e-20 -18.6009)
(118.436 0 -17.9348)
(113.263 0 -16.4296)
(108.622 0 -15.4299)
(101.942 0 -14.0647)
(94.3055 0 -11.8635)
(86.972 0 -10.7037)
(76.4829 0 -8.48901)
(66.3714 -4.00511e-17 -6.07105)
(55.4769 -4.10464e-17 -4.44101)
(42.8842 0 -1.44546)
(31.6479 -3.92165e-17 0.489296)
(18.9782 0 2.45631)
(7.62007 0 4.4283)
(-2.84402 7.09062e-17 5.33838)
(-11.5065 0 6.46908)
(-16.9726 -6.53739e-17 6.36255)
(-20.5933 0 6.22262)
(-20.4409 -1.22284e-16 5.22472)
(-18.6789 -2.52267e-20 3.94207)
(-14.5865 0 2.79366)
(-9.17785 0 1.30689)
(-3.24586 0 0.360407)
(2.62452 -1.02377e-16 -0.721695)
(7.00916 9.59495e-17 -1.10256)
(9.40949 9.37657e-17 -1.05354)
(7.66921 8.76264e-17 0.307678)
(1.48912 -1.71196e-16 2.68244)
(-10.3385 -8.322e-17 6.09434)
(-26.4306 0 9.83924)
(-44.4017 0 13.9534)
(-61.2025 2.34202e-20 16.2855)
(-75.2144 0 17.9799)
(-85.4369 0 19.0917)
(-91.1317 1.34567e-16 19.1333)
(-92.2982 0 18.3616)
(-88.5494 0 16.6473)
(-81.9616 -2.29323e-16 14.9538)
(-74.2669 1.14544e-16 13.5214)
(-69.6769 0 13.3213)
(-69.1564 0 14.0052)
(-74.149 0 15.808)
(-83.0347 -1.93806e-16 18.1474)
(-95.8286 0 21.1146)
(-110.43 -3.6984e-16 24.1114)
(-126.406 1.76932e-16 27.2037)
(-141.699 0 29.9743)
(-156.293 0 32.5001)
(-168.125 -1.6904e-16 34.4125)
(-177.821 7.10569e-21 35.8221)
(-183.389 -1.61775e-16 36.4354)
(-187.331 3.07473e-16 36.7374)
(-185.947 -3.05122e-16 36.1219)
(-184.524 -2.93207e-16 35.5031)
(-178.421 -2.82643e-16 34.1998)
(-174.211 -4.52817e-20 33.2344)
(-166.117 0 31.6191)
(-160.928 2.53076e-16 30.6511)
(-153.077 0 29.2006)
(-148.845 0 28.4655)
(-142.418 -4.57632e-16 27.2709)
(-138.827 0 26.6538)
(-134.169 0 25.8458)
(-131.932 0 25.4903)
(-128.906 3.86638e-16 24.9106)
(-126.918 0 24.584)
(-125.31 3.5642e-16 24.305)
(-124.396 0 24.229)
(-124.939 0 24.3461)
(-123.986 0 24.1697)
(-125.117 0 24.3382)
(-123.198 0 23.9867)
(-125.237 5.46355e-16 24.3897)
(-123.801 5.16681e-16 24.1635)
(-127.679 -4.94013e-16 24.923)
(-126.486 0 24.7157)
(-131.491 0 25.6332)
(-129.333 1.69725e-15 25.2513)
(-135.078 0 26.2489)
(-131.032 -7.70723e-16 25.5628)
(-138.622 0 26.8332)
(-130.383 -6.9919e-16 25.4458)
(-143.313 -6.64333e-16 27.5323)
(-123.822 0 24.1194)
(-146.794 5.97942e-16 27.8773)
(-109.723 0 20.1298)
(168.281 1.69665e-18 178.041)
(183.623 3.69151e-18 152.032)
(189.736 -1.89491e-18 124.929)
(189.462 1.09493e-19 100.023)
(184.871 2.25953e-18 78.5646)
(177.739 0 60.5998)
(169.375 0 45.9068)
(160.921 -4.40571e-18 34.1438)
(153.126 -8.85916e-18 24.8054)
(146.116 6.85298e-20 17.2607)
(139.718 4.4894e-18 10.8855)
(133.92 -4.56068e-18 5.21343)
(129.024 4.53172e-18 0.242689)
(125.324 0 -3.90422)
(122.907 0 -7.25078)
(121.674 -4.53652e-18 -9.91981)
(121.339 1.81408e-17 -12.0751)
(121.593 1.79407e-17 -13.9397)
(122.336 0 -15.6388)
(123.634 0 -17.2033)
(125.545 0 -18.5724)
(127.979 -4.65624e-20 -19.789)
(130.739 -1.6556e-17 -20.9159)
(133.582 8.07689e-18 -21.9946)
(136.394 1.57061e-17 -22.9227)
(139.292 -3.0594e-17 -23.6837)
(142.2 1.50053e-17 -24.2527)
(144.844 1.47487e-17 -24.598)
(147.2 1.45054e-17 -24.8521)
(149.073 0 -25.0546)
(150.034 -1.36883e-17 -24.9796)
(150.669 1.32307e-17 -24.7276)
(150.686 -1.29848e-17 -24.4514)
(149.209 -2.53019e-17 -23.5714)
(147.309 -4.92233e-17 -22.6637)
(143.84 0 -21.8045)
(138.337 0 -19.9893)
(132.985 -2.21388e-17 -18.5543)
(125.371 0 -16.9048)
(116.352 2.05081e-17 -14.1938)
(107.307 2.06716e-17 -12.5416)
(94.926 0 -9.91595)
(82.5281 7.54183e-17 -6.80894)
(69.212 3.86272e-17 -4.72154)
(54.0837 0 -1.19231)
(40.1613 3.69013e-17 1.21838)
(24.9509 3.61629e-17 3.42432)
(11.1804 0 5.68137)
(-1.43008 -6.66155e-17 6.57746)
(-11.8381 3.05963e-17 7.70797)
(-18.6582 6.14757e-17 7.36286)
(-23.0994 0 6.93922)
(-23.3075 4.86011e-20 5.61832)
(-21.3804 -1.11748e-16 3.93537)
(-16.7285 0 2.54347)
(-10.4558 0 0.750461)
(-3.50207 4.80079e-17 -0.319182)
(3.35355 4.8115e-17 -1.5318)
(8.474 -9.01776e-17 -1.79506)
(11.1309 -8.81419e-17 -1.47307)
(8.93407 -8.23636e-17 0.482016)
(1.49998 8.04448e-17 3.62195)
(-12.3498 1.56416e-16 7.87513)
(-30.9539 0 12.3153)
(-51.6506 0 16.8774)
(-71.0019 1.35813e-16 19.5722)
(-87.1612 0 21.2987)
(-99.0052 0 22.3525)
(-105.699 -1.26387e-16 22.1473)
(-107.352 0 21.1019)
(-103.675 1.16784e-16 19.0689)
(-97.1846 -1.24006e-20 17.3049)
(-89.7817 -1.07535e-16 15.9997)
(-86.0834 0 16.2716)
(-86.9347 0 17.5345)
(-93.9143 0 20.0508)
(-105.036 -1.8173e-16 23.039)
(-120.363 0 26.6615)
(-137.404 1.73456e-16 30.1692)
(-155.802 -3.3191e-16 33.7166)
(-173.101 0 36.7836)
(-189.53 0 39.5331)
(-202.509 0 41.502)
(-213.174 7.34546e-21 42.9049)
(-218.86 1.5166e-16 43.3627)
(-222.961 2.88205e-16 43.521)
(-220.77 2.85972e-16 42.6144)
(-218.89 -2.74784e-16 41.7871)
(-211.465 0 40.1863)
(-206.526 -2.58156e-16 39.0351)
(-196.943 0 37.1242)
(-190.938 -2.37047e-16 36.0245)
(-181.826 0 34.358)
(-176.825 0 33.5182)
(-169.398 0 32.1532)
(-165.091 4.08755e-16 31.4421)
(-159.788 3.95013e-16 30.5438)
(-156.935 0 30.1068)
(-153.465 -3.61832e-16 29.449)
(-150.901 3.48041e-16 29.0454)
(-149.159 -3.33492e-16 28.7587)
(-147.819 3.1904e-16 28.6445)
(-148.483 0 28.7857)
(-146.931 0 28.5014)
(-148.213 0 28.6858)
(-145.52 0 28.2027)
(-147.953 -5.10888e-16 28.69)
(-145.795 2.70215e-20 28.3539)
(-150.402 9.23701e-16 29.2585)
(-148.391 0 28.9108)
(-154.395 0 30)
(-151.061 -7.9318e-16 29.4131)
(-158.064 0 30.6095)
(-152.378 7.2024e-16 29.6524)
(-161.575 0 31.1542)
(-151.022 1.30657e-15 29.4131)
(-166.304 0 31.789)
(-143.358 0 27.8537)
(-169.257 -5.5857e-16 31.947)
(-129.067 0 23.352)
(148.233 0 156.661)
(161.798 -1.80434e-18 139.104)
(169.297 0 119.085)
(171.994 -2.02877e-18 99.1968)
(170.633 -4.3489e-18 80.7855)
(166.56 0 64.4415)
(160.973 2.23995e-18 50.3796)
(154.905 0 38.6687)
(148.899 -1.17904e-19 28.9548)
(143.123 -8.49861e-18 20.6841)
(137.658 0 13.4662)
(132.723 0 7.10752)
(128.697 -4.26248e-18 1.58153)
(125.868 0 -3.08847)
(124.312 0 -6.87647)
(123.859 0 -9.9576)
(124.173 -8.5973e-18 -12.626)
(125.019 -8.49581e-18 -15.0776)
(126.429 -8.38308e-18 -17.3231)
(128.542 0 -19.3464)
(131.406 0 -21.1135)
(134.902 -7.89059e-18 -22.6801)
(138.834 7.76058e-18 -24.1116)
(142.987 -7.59668e-18 -25.4436)
(147.235 -1.47722e-17 -26.5783)
(151.649 2.8725e-17 -27.5095)
(156.129 1.70189e-20 -28.251)
(160.359 -1.38712e-17 -28.7572)
(164.28 -1.36422e-17 -29.1194)
(167.712 0 -29.4014)
(170.183 0 -29.3789)
(172.192 -1.24426e-17 -29.0887)
(173.494 0 -28.7535)
(173.126 2.37937e-17 -27.7818)
(172.027 2.31312e-17 -26.6374)
(169.185 -2.27878e-17 -25.5815)
(163.959 0 -23.4877)
(158.437 2.08167e-17 -21.6157)
(150.406 2.05485e-17 -19.661)
(140.461 6.97749e-20 -16.4706)
(130.072 -3.88417e-17 -14.2911)
(116.131 0 -11.2532)
(101.68 -3.54659e-17 -7.48421)
(86.1034 0 -4.90739)
(68.5349 0 -0.893723)
(51.9268 0 1.98427)
(34.1174 -7.41803e-20 4.40937)
(17.788 0 6.89492)
(2.81164 3.12809e-17 7.75929)
(-9.64101 -5.75607e-17 8.82315)
(-18.1848 -5.77697e-17 8.21163)
(-23.8546 0 7.46004)
(-24.858 5.39691e-17 5.79599)
(-23.1654 1.04926e-16 3.70702)
(-18.3022 0 2.06489)
(-11.4204 0 -0.0137224)
(-3.60263 -4.50963e-17 -1.19514)
(4.18818 -4.51446e-17 -2.4997)
(10.0966 4.23433e-17 -2.60466)
(13.1787 8.26174e-17 -1.94842)
(10.8128 0 0.653838)
(2.53431 0 4.59572)
(-12.8514 3.807e-21 9.68802)
(-33.4475 7.09619e-17 14.7794)
(-56.4016 0 20.0058)
(-78.1233 -6.37348e-17 22.681)
(-96.3892 0 24.3549)
(-109.999 0 25.2988)
(-118.011 0 24.8307)
(-120.594 0 23.5322)
(-117.509 -4.97678e-20 21.2415)
(-111.646 -1.89632e-20 19.5061)
(-105.005 1.00819e-16 18.447)
(-102.558 0 19.3125)
(-105.013 9.2934e-17 21.251)
(-114.087 0 24.5451)
(-127.434 1.70408e-16 28.205)
(-145.208 -1.61786e-16 32.4759)
(-164.524 1.62472e-16 36.4548)
(-185.171 1.55553e-16 40.4041)
(-204.249 0 43.6967)
(-222.358 -1.49631e-16 46.6035)
(-236.289 0 48.5546)
(-247.854 1.45246e-16 49.895)
(-253.535 1.42056e-16 50.1411)
(-257.819 -2.6999e-16 50.1247)
(-254.778 0 48.8962)
(-252.51 5.14729e-16 47.8532)
(-243.773 0 45.9487)
(-238.154 -2.41627e-16 44.6161)
(-227.119 0 42.4151)
(-220.285 -2.21935e-16 41.1888)
(-209.964 0 39.3208)
(-204.112 -4.1521e-16 38.3697)
(-195.741 4.00968e-16 36.8483)
(-190.572 -3.82511e-16 36.0267)
(-184.67 -3.69613e-16 35.0516)
(-181.026 0 34.5074)
(-177.14 6.76989e-16 33.778)
(-173.786 -6.51114e-16 33.2658)
(-171.92 0 32.9769)
(-169.93 -2.98378e-16 32.7907)
(-170.744 0 32.9583)
(-168.367 0 32.5246)
(-169.789 5.19912e-16 32.7193)
(-166.054 0 32.058)
(-168.797 0 32.6167)
(-165.632 -4.51589e-16 32.1228)
(-170.888 -8.63321e-16 33.1575)
(-167.763 -4.10218e-16 32.6186)
(-174.751 0 33.8694)
(-169.904 0 33.0206)
(-178.193 0 34.4093)
(-170.517 0 33.1255)
(-181.31 -6.42336e-16 34.8404)
(-168.233 -6.10279e-16 32.7238)
(-185.571 0 35.3085)
(-159.695 0 30.9638)
(-187.276 0 35.1541)
(-146.017 0 26.0536)
(134.043 1.98681e-18 139.191)
(145.405 0 126.83)
(152.987 2.06788e-18 112.018)
(157.039 0 96.2409)
(157.756 2.08943e-18 80.8116)
(155.97 0 66.4047)
(152.562 -2.10525e-18 53.462)
(148.245 4.28921e-18 42.1589)
(143.425 8.26511e-18 32.288)
(138.433 -6.20483e-20 23.6045)
(133.54 0 15.9095)
(129.071 0 9.10404)
(125.458 0 3.16494)
(123.052 0 -1.85458)
(121.889 0 -5.94749)
(121.679 0 -9.40794)
(122.103 8.35536e-18 -12.601)
(123.077 -8.1834e-18 -15.6419)
(124.753 7.87701e-18 -18.4281)
(127.315 0 -20.9049)
(130.807 0 -23.0718)
(135.099 7.3407e-18 -24.9914)
(140.01 7.21094e-18 -26.718)
(145.355 7.06262e-18 -28.2911)
(150.995 0 -29.6434)
(156.957 -1.34868e-17 -30.7766)
(163.131 -2.65822e-17 -31.7194)
(169.172 1.3117e-17 -32.4111)
(174.972 0 -32.9078)
(180.362 0 -33.2976)
(184.835 0 -33.365)
(188.785 1.17191e-17 -33.0779)
(192.013 0 -32.7094)
(193.477 0 -31.6894)
(193.949 2.16958e-17 -30.3507)
(192.552 2.14071e-17 -29.11)
(188.46 0 -26.783)
(183.596 1.95643e-17 -24.496)
(175.966 -3.86321e-17 -22.2402)
(165.872 -1.81771e-17 -18.6296)
(154.835 1.82283e-17 -15.923)
(139.982 0 -12.4987)
(124.017 0 -8.12643)
(106.612 0 -5.05548)
(86.9345 3.24406e-17 -0.624782)
(67.8327 0 2.69329)
(47.4991 -3.18489e-17 5.31263)
(28.5418 -2.98659e-17 7.96738)
(10.9959 0 8.78606)
(-3.84358 2.70476e-17 9.72538)
(-14.5763 0 8.83079)
(-22.0242 0 7.72145)
(-24.4323 5.05534e-17 5.70868)
(-23.5697 -4.08736e-20 3.22463)
(-19.0429 -4.56469e-17 1.33874)
(-11.9914 0 -0.990786)
(-3.61769 0 -2.26435)
(4.966 4.23679e-17 -3.61791)
(11.6984 0 -3.53135)
(15.4488 -7.75257e-17 -2.49831)
(13.3632 0 0.771419)
(4.87793 0 5.5124)
(-11.2981 -1.37798e-16 11.3996)
(-33.0979 -1.33117e-16 17.0845)
(-57.9137 -6.37682e-17 21.8829)
(-81.4908 0 25.4075)
(-101.777 0 26.9757)
(-117.361 -5.58497e-17 27.7801)
(-127.13 -1.11138e-16 27.0607)
(-131.21 0 25.5517)
(-129.321 -1.02689e-16 23.075)
(-124.623 9.47204e-17 21.4623)
(-119.167 -9.45116e-17 20.7528)
(-118.25 8.8587e-17 22.3127)
(-122.453 -8.71042e-17 25.003)
(-133.651 0 29.1208)
(-149.16 0 33.4618)
(-169.269 1.51596e-16 38.3656)
(-190.691 -3.04359e-16 42.7733)
(-213.449 0 47.0746)
(-234.127 0 50.5293)
(-253.845 1.40155e-16 53.5401)
(-268.609 0 55.4132)
(-281.111 0 56.6525)
(-286.745 -1.33022e-16 56.6449)
(-291.332 -2.52811e-16 56.4386)
(-287.463 0 54.8675)
(-284.923 -2.4093e-16 53.6091)
(-274.918 0 51.4002)
(-268.68 2.26153e-16 49.8917)
(-256.251 -2.17337e-16 47.4082)
(-248.532 2.07683e-16 46.0536)
(-237.069 2.03829e-16 44)
(-230.238 -3.99365e-20 42.9239)
(-220.987 -3.75114e-16 41.2609)
(-214.752 0 40.3017)
(-208.299 3.4572e-16 39.2642)
(-203.644 -3.31675e-16 38.5794)
(-199.377 -3.16552e-16 37.7852)
(-194.954 6.08831e-16 37.1218)
(-192.961 0 36.8343)
(-190.045 -2.78966e-16 36.5342)
(-191.065 0 36.7359)
(-187.627 0 36.1086)
(-189.19 -4.85971e-16 36.3094)
(-184.119 0 35.4176)
(-187.058 0 36.029)
(-182.573 4.22082e-16 35.3263)
(-188.378 1.21175e-20 36.4719)
(-183.838 -4.54502e-21 35.6927)
(-191.799 3.65481e-16 37.0948)
(-185.122 0 35.9325)
(-194.725 -6.64135e-16 37.5061)
(-184.763 -6.28594e-16 35.8512)
(-197.098 5.99988e-16 37.7529)
(-181.432 5.69992e-16 35.2636)
(-200.357 0 37.954)
(-172.352 5.14433e-16 33.3507)
(-200.175 0 37.3849)
(-159.794 0 28.1144)
(123.674 -1.86529e-18 124.621)
(133.009 2.07397e-18 115.593)
(139.825 1.66567e-19 104.329)
(144.403 2.14707e-18 91.8982)
(146.462 0 79.1869)
(146.338 -2.16628e-18 66.7863)
(144.608 2.13419e-18 55.1558)
(141.687 1.37094e-19 44.4878)
(137.918 -7.9676e-18 34.8082)
(133.658 3.8378e-18 26.0737)
(129.235 0 18.189)
(125.077 0 11.1368)
(121.688 -3.76375e-18 4.97914)