/*--------------------------------*- C++ -*----------------------------------*\
| =========                 |                                                 |
| \\      /  F ield         | OpenFOAM: The Open Source CFD Toolbox           |
|  \\    /   O peration     | Version:  2412                                  |
|   \\  /    A nd           | Website:  www.openfoam.com                      |
|    \\/     M anipulation  |                                                 |
\*---------------------------------------------------------------------------*/
FoamFile
{
    version     2.0;
    format      ascii;
    arch        "LSB;label=32;scalar=64";
    class       volVectorField;
    location    "0.17";
    object      U_0;
}
// * * * * * * * * * * * * * * * * * * * * * * * * * * * * * * * * * * * * * //

dimensions      [0 1 -1 0 0 0 0];

internalField   nonuniform List<vector> 
12600
(
(16.3376 1.35339e-21 1.75084)
(10.3577 1.539e-20 0.32492)
(6.66737 1.82217e-20 -0.47528)
(4.72045 0 -0.665523)
(3.76456 1.72405e-20 -0.639421)
(3.20512 1.6462e-20 -0.574205)
(2.81485 0 -0.514824)
(2.51965 0 -0.466596)
(2.2865 -5.36397e-20 -0.427357)
(2.09644 0 -0.394697)
(1.93774 2.36856e-20 -0.366834)
(1.80271 2.22598e-20 -0.342691)
(1.686 -2.09357e-20 -0.321525)
(1.5838 0 -0.302784)
(1.4933 -1.85204e-20 -0.286043)
(1.41241 0 -0.270973)
(1.33951 6.58368e-20 -0.257312)
(1.27335 0 -0.244852)
(1.21291 -2.92528e-20 -0.233424)
(1.15739 -2.76172e-20 -0.222891)
(1.10614 2.60544e-20 -0.213137)
(1.0586 1.53199e-23 -0.204069)
(1.01434 0 -0.195606)
(0.972966 -4.37948e-20 -0.187681)
(0.934168 0 -0.180238)
(0.897671 0 -0.173226)
(0.863246 -3.68811e-20 -0.166605)
(0.830696 0 -0.160337)
(0.79985 -8.86998e-24 -0.154392)
(0.770559 3.10891e-20 -0.148742)
(0.742694 2.93812e-20 -0.143364)
(0.716142 2.77716e-20 -0.138236)
(0.690808 -2.62558e-20 -0.133342)
(0.666605 -4.96535e-20 -0.128664)
(0.643468 -4.69591e-20 -0.124193)
(0.621331 4.44278e-20 -0.119914)
(0.600141 0 -0.115821)
(0.579859 -3.97599e-20 -0.111904)
(0.560444 0 -0.108157)
(0.541865 3.55982e-20 -0.104574)
(0.524106 0 -0.101152)
(0.507143 -2.83364e-24 -0.0978883)
(0.490986 0 -0.0947842)
(0.475651 -5.92999e-25 -0.091842)
(0.461172 5.38322e-20 -0.0890689)
(0.447602 -5.08214e-20 -0.0864721)
(0.434997 4.79396e-20 -0.0840614)
(0.423399 0 -0.0818423)
(0.41284 0 -0.0798184)
(0.403288 3.99723e-20 -0.0779824)
(0.394684 7.51136e-20 -0.0763208)
(0.386866 7.0516e-20 -0.0748039)
(0.379664 1.03718e-23 -0.0733993)
(0.372814 6.21231e-20 -0.0720594)
(0.366131 0 -0.0707493)
(0.35937 -5.4762e-20 -0.0694227)
(0.352442 -5.14616e-20 -0.0680633)
(0.345143 -4.84254e-20 -0.0666324)
(0.337469 0 -0.0651313)
(0.329238 0 -0.0635294)
(0.320721 0 -0.0618844)
(0.312099 7.60804e-20 -0.0602363)
(0.304357 0 -0.0587689)
(0.29805 0 -0.0575767)
(0.294503 -1.23827e-19 -0.0569987)
(0.293682 0 -0.0568641)
(0.295998 0 -0.0573529)
(0.300369 0 -0.0582506)
(0.307159 8.79425e-20 -0.0595804)
(0.314588 -8.01837e-20 -0.0610045)
(0.323225 -7.32109e-20 -0.062631)
(0.330452 2.13664e-23 -0.0639654)
(0.337517 6.15762e-20 -0.0652623)
(0.34158 0 -0.0659946)
(0.345746 -5.21697e-20 -0.0667737)
(0.347215 0 -0.0670658)
(0.350757 0 -0.0677858)
(0.352757 0 -0.0682377)
(0.358917 4.74715e-23 -0.0695007)
(0.364426 -5.46345e-20 -0.0706607)
(0.375674 -4.3161e-20 -0.0729066)
(0.38645 3.1111e-20 -0.0750834)
(0.403975 1.94e-20 -0.0785101)
(0.420319 0 -0.0817392)
(0.443944 0 -0.0862911)
(0.464455 2.83715e-20 -0.0902897)
(0.49281 -9.23617e-20 -0.095704)
(0.515278 1.26807e-19 -0.100044)
(0.546191 7.65642e-20 -0.105916)
(0.568201 0 -0.110148)
(0.600105 -1.94835e-19 -0.116198)
(0.620214 1.05451e-19 -0.120055)
(0.651962 -1.09969e-19 -0.126079)
(0.669458 2.29069e-19 -0.129439)
(0.701154 0 -0.135465)
(0.716194 0 -0.138359)
(0.747868 0 -0.144394)
(0.760656 0 -0.146866)
(0.792998 0 -0.153045)
(0.804227 0 -0.155219)
(0.837273 -2.2951e-19 -0.161545)
(0.846998 -4.53709e-19 -0.163437)
(0.88108 -4.45445e-19 -0.169982)
(0.890489 0 -0.17182)
(0.926437 0 -0.178727)
(0.935655 0 -0.180526)
(0.973097 -4.16421e-19 -0.187721)
(0.981427 -8.20769e-19 -0.189361)
(1.021 4.01927e-19 -0.196972)
(1.02856 0 -0.198482)
(1.07215 -7.78463e-19 -0.206866)
(1.07866 0 -0.208181)
(1.12801 -7.5625e-19 -0.21767)
(1.13224 7.46881e-19 -0.218545)
(1.18846 -7.3564e-19 -0.229364)
(1.18976 -7.24529e-19 -0.229653)
(1.25136 7.14656e-19 -0.241546)
(1.25776 -8.15017e-23 -0.24274)
(1.30725 6.8921e-19 -0.252431)
(1.38814 0 -0.267699)
(25.97 -1.36666e-21 3.49987)
(22.4919 0 1.48515)
(18.2408 -1.84464e-20 -0.355531)
(14.6498 0 -1.2025)
(12.1271 -1.74715e-20 -1.44591)
(10.3807 -3.17214e-20 -1.45182)
(9.11155 -1.50515e-20 -1.3835)
(8.14522 0 -1.29912)
(7.38146 3.39482e-22 -1.21694)
(6.75925 -2.52315e-20 -1.14154)
(6.24011 2.37614e-20 -1.0733)
(5.79863 2.23799e-20 -1.01174)
(5.41731 -2.10836e-20 -0.956121)
(5.08368 1.98673e-20 -0.905706)
(4.78854 3.75193e-20 -0.859819)
(4.525 0 -0.817868)
(4.28773 -8.73855e-23 -0.779347)
(4.07258 3.14005e-20 -0.743824)
(3.87623 2.96783e-20 -0.710936)
(3.69604 0 -0.680372)
(3.52982 0 -0.651869)
(3.3758 2.4919e-20 -0.625201)
(3.23248 0 -0.600176)
(3.09862 2.21969e-20 -0.576626)
(2.97318 -4.18713e-20 -0.554407)
(2.85526 0 -0.533395)
(2.74411 3.73358e-20 -0.51348)
(2.63906 0 -0.494569)
(2.53957 -3.33272e-20 -0.476578)
(2.44514 -6.2952e-20 -0.459436)
(2.35537 -5.94804e-20 -0.443078)
(2.26988 -2.81098e-20 -0.427453)
(2.18836 2.65682e-20 -0.412511)
(2.11056 1.00443e-19 -0.398213)
(2.03624 9.49647e-20 -0.384527)
(1.96522 0 -0.371422)
(1.89734 0 -0.358875)
(1.83246 8.68165e-24 -0.346868)
(1.77048 0 -0.335382)
(1.7113 -3.59377e-20 -0.324405)
(1.65487 0 -0.313932)
(1.60115 -6.42955e-20 -0.303956)
(1.55014 0 -0.294488)
(1.50189 -5.7435e-20 -0.285538)
(1.45649 0 -0.277128)
(1.41406 5.11738e-20 -0.269277)
(1.37472 0 -0.262009)
(1.33852 0 -0.25533)
(1.30551 -4.27621e-20 -0.249239)
(1.27549 0 -0.243695)
(1.24823 0 -0.238642)
(1.22319 0 -0.233975)
(1.19985 -6.63956e-20 -0.22959)
(1.17741 -1.24579e-19 -0.225343)
(1.15538 0 -0.221139)
(1.13303 0 -0.216856)
(1.11019 5.15072e-20 -0.212455)
(1.08628 4.84229e-20 -0.20784)
(1.06142 0 -0.203031)
(1.0352 0 -0.197973)
(1.00866 0 -0.192882)
(0.982452 0 -0.187928)
(0.959597 7.11198e-20 -0.183691)
(0.941587 -6.63742e-20 -0.180448)
(0.932134 1.23208e-19 -0.178927)
(0.93065 0 -0.179062)
(0.938383 0 -0.180889)
(0.951888 0 -0.183766)
(0.972282 5.87604e-23 -0.187853)
(0.994056 7.94167e-20 -0.19211)
(1.01912 7.24445e-20 -0.196883)
(1.03971 -1.32517e-19 -0.200707)
(1.06021 2.86185e-23 -0.204451)
(1.07225 5.59777e-20 -0.206582)
(1.08577 5.14273e-20 -0.209044)
(1.09196 0 -0.21019)
(1.10559 0 -0.212835)
(1.11493 0 -0.214753)
(1.13773 -6.46925e-20 -0.219278)
(1.1583 0 -0.223472)
(1.19679 0 -0.231043)
(1.23301 -3.04488e-20 -0.238293)
(1.28996 -1.89668e-20 -0.249364)
(1.34201 0 -0.259652)
(1.41629 0 -0.273939)
(1.47969 0 -0.286358)
(1.56705 8.96435e-20 -0.303044)
(1.63521 -1.49899e-22 -0.316301)
(1.72949 7.41561e-20 -0.33422)
(1.7957 -8.61384e-20 -0.347047)
(1.8927 1.88671e-19 -0.365452)
(1.95295 1.0195e-19 -0.377096)
(2.04974 2.1262e-19 -0.395453)
(2.10235 0 -0.405632)
(2.19939 0 -0.424063)
(2.24484 0 -0.43286)
(2.34234 0 -0.451404)
(2.38145 2.27943e-19 -0.458996)
(2.48142 0 -0.478056)
(2.51604 0 -0.484772)
(2.61862 -2.19992e-19 -0.504355)
(2.64923 2.17301e-19 -0.510294)
(2.75574 8.52489e-19 -0.530675)
(2.78562 -4.20219e-19 -0.536492)
(2.89805 0 -0.558012)
(2.92729 0 -0.5637)
(3.04469 0 -0.586152)
(3.07174 3.90881e-19 -0.591444)
(3.19645 -3.82514e-19 -0.615287)
(3.22178 0 -0.620296)
(3.35912 1.47906e-18 -0.646555)
(3.38165 7.30276e-19 -0.65105)
(3.53645 1.43456e-18 -0.680664)
(3.55259 0 -0.683901)
(3.72812 0 -0.717549)
(3.73572 -6.85501e-19 -0.719034)
(3.9275 0 -0.756019)
(3.94951 -6.63253e-19 -0.759932)
(4.10243 -6.50781e-19 -0.790511)
(4.33265 0 -0.834311)
(28.7128 0 3.27508)
(28.0595 0 2.28305)
(25.8241 -1.31223e-20 0.66632)
(22.8997 0 -0.562112)
(20.1007 0 -1.28546)
(17.7334 1.56385e-20 -1.64535)
(15.8065 1.42551e-20 -1.78666)
(14.2445 0 -1.81235)
(12.9655 3.86364e-22 -1.78268)
(11.902 2.39043e-20 -1.72823)
(11.0035 -4.48227e-20 -1.66375)
(10.2331 -2.12053e-20 -1.59635)
(9.56398 1.16945e-22 -1.52947)
(8.97627 -1.8826e-20 -1.46477)
(8.45497 -1.77447e-20 -1.40297)
(7.98857 1.66724e-20 -1.34433)
(7.5681 -3.15501e-20 -1.28889)
(7.18646 -2.97565e-20 -1.23653)
(6.83796 0 -1.18709)
(6.51799 0 -1.14037)
(6.22276 2.49496e-20 -1.09619)
(5.94914 2.35506e-20 -1.05436)
(5.69453 0 -1.01468)
(5.45673 0 -0.977006)
(5.23389 3.96755e-20 -0.941172)
(5.02443 0 -0.907043)
(4.827 -7.07248e-20 -0.874494)
(4.64044 3.33875e-20 -0.84341)
(4.46377 0 -0.813694)
(4.29612 2.98126e-20 -0.785253)
(4.13675 2.8168e-20 -0.758009)
(3.98502 0 -0.731894)
(3.84039 -2.51477e-20 -0.70685)
(3.7024 -4.75621e-20 -0.682826)
(3.57067 -1.45838e-23 -0.659783)
(3.44485 0 -0.637687)
(3.3247 0 -0.616509)
(3.20997 3.80305e-20 -0.596228)
(3.1005 0 -0.576826)
(2.99612 0 -0.558291)
(2.89677 0 -0.540623)
(2.80236 0 -0.523825)
(2.71294 0 -0.507919)
(2.62854 0 -0.492927)
(2.5493 0 -0.478887)
(2.47537 -4.84341e-20 -0.465824)
(2.40689 4.5668e-20 -0.453763)
(2.34388 0 -0.442692)
(2.28628 4.04569e-20 -0.432577)
(2.23372 0 -0.42332)
(2.18571 0 -0.414797)
(2.1413 -6.69848e-20 -0.406812)
(2.09958 0 -0.399181)
(2.05924 5.89063e-20 -0.391675)
(2.01948 -5.52508e-20 -0.384153)
(1.97914 0 -0.376442)
(1.93798 -4.86855e-20 -0.368505)
(1.89511 0 -0.360215)
(1.8509 0 -0.351647)
(1.80482 0 -0.342787)
(1.75889 -7.62649e-20 -0.334082)
(1.71433 -7.1675e-20 -0.325908)
(1.67623 1.28806e-23 -0.319252)
(1.64686 1.25369e-19 -0.314523)
(1.63208 2.36849e-23 -0.312635)
(1.63037 0 -0.313731)
(1.64389 0 -0.31739)
(1.66657 9.02724e-20 -0.322525)
(1.70038 4.67488e-23 -0.329459)
(1.73589 0 -0.336439)
(1.77669 0 -0.344085)
(1.8098 6.25e-20 -0.350035)
(1.84354 2.23608e-23 -0.35594)
(1.86382 1.94429e-23 -0.359357)
(1.88822 0 -0.363714)
(1.90118 0 -0.366184)
(1.92823 7.99286e-20 -0.371561)
(1.9483 -7.07383e-20 -0.37588)
(1.99226 0 -0.38485)
(2.03187 0 -0.393215)
(2.10253 0 -0.407395)
(2.16797 0 -0.420802)
(2.269 0 -0.44066)
(2.35973 0 -0.458837)
(2.48852 0 -0.483685)
(2.59678 0 -0.505021)
(2.74615 -8.39986e-20 -0.533466)
(2.86104 -5.77734e-20 -0.555816)
(3.02118 -6.96969e-20 -0.586041)
(3.13212 8.09421e-20 -0.607474)
(3.29663 -1.77078e-19 -0.638419)
(3.39732 -9.5761e-20 -0.657785)
(3.5619 -9.98003e-20 -0.688731)
(3.65004 0 -0.705718)
(3.8156 0 -0.736923)
(3.89199 0 -0.751662)
(4.05901 0 -0.783225)
(4.12532 -2.13847e-19 -0.796087)
(4.29704 0 -0.828663)
(4.35606 0 -0.84011)
(4.53278 2.0627e-19 -0.873713)
(4.58572 0 -0.884011)
(4.76995 -3.99463e-19 -0.919187)
(4.82193 3.93791e-19 -0.929349)
(5.01637 0 -0.966493)
(5.06722 0 -0.976421)
(5.27063 0 -1.01523)
(5.31842 3.65906e-19 -1.02466)
(5.53507 0 -1.06602)
(5.58068 -3.53056e-19 -1.07517)
(5.81906 -1.25715e-22 -1.12067)
(5.86052 -6.83459e-19 -1.12911)
(6.12807 -1.34214e-18 -1.18018)
(6.15963 0 -1.18669)
(6.46144 6.51479e-19 -1.24442)
(6.47984 6.41201e-19 -1.24814)
(6.80763 6.31843e-19 -1.31145)
(6.85102 0 -1.31882)
(7.10825 6.08501e-19 -1.37189)
(7.48151 0 -1.44099)
(29.3595 0 2.30329)
(29.9633 0 2.17598)
(29.4948 1.24056e-20 1.23879)
(28.0438 0 0.173913)
(26.0801 -1.29313e-20 -0.704852)
(23.9988 2.65249e-20 -1.32919)
(22.0146 0 -1.72475)
(20.2185 -2.42503e-20 -1.94858)
(18.633 2.36305e-20 -2.05728)
(17.2465 2.19983e-20 -2.09385)
(16.0345 2.10973e-20 -2.08692)
(14.9705 -1.97225e-20 -2.05439)
(14.0307 1.87836e-20 -2.00716)
(13.195 -3.52206e-20 -1.95185)
(12.4468 0 -1.89246)
(11.7727 -3.14716e-20 -1.83148)
(11.1617 0 -1.77041)
(10.6047 0 -1.71017)
(10.0943 0 -1.65133)
(9.62449 2.49472e-20 -1.5942)
(9.19002 -4.60667e-23 -1.53895)
(8.78665 -3.78683e-23 -1.48566)
(8.41075 2.0997e-20 -1.43433)
(8.05925 0 -1.38492)
(7.72954 0 -1.3374)
(7.41935 0 -1.29168)
(7.12678 6.68334e-20 -1.2477)
(6.85015 -2.57047e-23 -1.20538)
(6.58804 0 -1.16466)
(6.3392 0 -1.12545)
(6.10257 0 -1.0877)
(5.87723 0 -1.05135)
(5.66239 4.75455e-20 -1.01635)
(5.45739 0 -0.982677)
(5.26168 -4.25001e-20 -0.950288)
(5.07481 0 -0.919161)
(4.89639 0 -0.889279)
(4.72613 -3.59319e-20 -0.860628)
(4.56378 0 -0.833201)
(4.40915 0 -0.806997)
(4.26214 3.04039e-20 -0.782032)
(4.12265 -5.75058e-20 -0.758323)
(3.99074 0 -0.73591)
(3.86646 -5.13643e-20 -0.714832)
(3.74998 0 -0.695138)
(3.64141 9.15204e-20 -0.676855)
(3.54091 3.85109e-24 -0.659996)
(3.44837 0 -0.644514)
(3.36364 0 -0.630329)
(3.28605 -3.59127e-20 -0.617264)
(3.21483 -6.7439e-20 -0.605116)
(3.14857 1.26515e-19 -0.593589)
(3.08599 0 -0.582422)
(3.02523 5.56324e-20 -0.571308)
(2.9652 5.21545e-20 -0.560075)
(2.90431 4.8954e-20 -0.548516)
(2.84231 4.59573e-20 -0.536612)
(2.77802 0 -0.524226)
(2.71219 0 -0.511522)
(2.64427 7.64688e-20 -0.498576)
(2.57745 1.43886e-19 -0.486127)
(2.51354 6.76016e-20 -0.474796)
(2.45976 1.41765e-23 -0.465973)
(2.41892 -5.91148e-20 -0.460139)
(2.39882 -5.4868e-20 -0.458492)
(2.39677 0 -0.460776)
(2.41588 0 -0.466496)
(2.44718 -8.50708e-20 -0.474039)
(2.49377 -1.55249e-19 -0.483836)
(2.54199 0 -0.493406)
(2.59767 -6.44698e-20 -0.503721)
(2.64245 -5.89174e-20 -0.511555)
(2.6894 -5.40422e-20 -0.5195)
(2.71838 -9.94201e-20 -0.52422)
(2.75546 0 -0.530761)
(2.77734 0 -0.534999)
(2.8213 -7.52144e-20 -0.54382)
(2.8554 1.33173e-19 -0.551295)
(2.925 5.75149e-20 -0.565677)
(2.98729 0 -0.579078)
(3.09482 0 -0.60088)
(3.19273 0 -0.621238)
(3.34213 0 -0.650782)
(3.4739 0 -0.677437)
(3.66073 0 -0.713527)
(3.81517 -2.38796e-20 -0.744127)
(4.02936 1.4403e-22 -0.784801)
(4.19141 5.40174e-20 -0.81637)
(4.41988 0 -0.859254)
(4.57555 7.58041e-20 -0.889305)
(4.81006 8.30711e-20 -0.933127)
(4.95103 0 -0.960179)
(5.18631 -9.35261e-20 -1.00413)
(5.30996 -1.94527e-19 -1.02791)
(5.54736 0 -1.0724)
(5.65482 0 -1.09309)
(5.89517 0 -1.13829)
(5.9891 -2.00359e-19 -1.1565)
(6.23668 0 -1.20328)
(6.3207 0 -1.21957)
(6.5761 1.93191e-19 -1.26797)
(6.6524 -1.90717e-19 -1.28282)
(6.91938 0 -1.33367)
(6.99459 0 -1.34839)
(7.27618 0 -1.40205)
(7.34982 0 -1.41644)
(7.64467 0 -1.47256)
(7.7148 -7.26184e-23 -1.48643)
(8.02932 0 -1.54632)
(8.09725 3.30377e-19 -1.56004)
(8.44266 -6.47486e-19 -1.62578)
(8.50563 0 -1.63871)
(8.89135 1.33545e-22 -1.7121)
(8.94199 0 -1.72262)
(9.37414 -1.26486e-22 -1.80506)
(9.40905 0 -1.81206)
(9.87396 -5.9075e-19 -1.90195)
(9.94797 0 -1.91407)
(10.3042 5.68608e-19 -1.98974)
(10.8176 0 -2.08285)
(29.5607 0 1.4234)
(30.3492 0 1.61373)
(30.7165 0 1.21203)
(30.4168 0 0.513056)
(29.5298 1.22068e-20 -0.227581)
(28.2545 -7.44923e-22 -0.882484)
(26.7756 0 -1.40309)
(25.2308 2.28908e-20 -1.78417)
(23.7121 0 -2.04327)
(22.272 -4.10969e-20 -2.20604)
(20.9347 0 -2.29756)
(19.7068 1.86204e-20 -2.3385)
(18.585 0 -2.34445)
(17.5617 3.32551e-20 -2.32659)
(16.6275 -1.55955e-20 -2.29276)
(15.7727 2.95695e-20 -2.24837)
(14.9883 -2.78638e-20 -2.19716)
(14.2664 -2.63253e-20 -2.14175)
(13.5997 0 -2.08392)
(12.9819 -2.35573e-20 -2.02493)
(12.4076 -2.22407e-20 -1.96567)
(11.872 -4.19518e-20 -1.90674)
(11.371 -1.98269e-20 -1.84855)
(10.9011 0 -1.79139)
(10.4591 0 -1.73545)
(10.0423 0 -1.68084)
(9.64835 -3.15381e-20 -1.62765)
(9.27523 -2.97893e-20 -1.57591)
(8.92114 0 -1.52565)
(8.58452 0 -1.47686)
(8.26402 2.51024e-20 -1.42955)
(7.95848 0 -1.38372)
(7.66691 -1.34223e-23 -1.33937)
(7.38848 -4.23957e-20 -1.29648)
(7.1225 4.00829e-20 -1.25508)
(6.8684 0 -1.21516)
(6.62573 0 -1.17675)
(6.39412 3.39133e-20 -1.13984)
(6.17331 0 -1.10446)
(5.96306 0 -1.07063)
(5.7633 -2.8691e-20 -1.0384)
(5.57393 5.42627e-20 -1.0078)
(5.39502 0 -0.978908)
(5.22664 4.84613e-20 -0.95178)
(5.06899 0 -0.926474)
(4.92213 -4.31688e-20 -0.903013)
(4.78619 -4.06988e-20 -0.881392)
(4.66092 0 -0.861514)
(4.54601 -3.60569e-20 -0.843236)
(4.44046 3.38677e-20 -0.826288)
(4.34321 1.272e-19 -0.810373)
(4.25233 -5.96518e-20 -0.795087)
(4.16617 5.5941e-20 -0.780093)
(4.08231 9.58155e-24 -0.765016)
(3.99937 0 -0.749666)
(3.91531 -4.6141e-20 -0.733825)
(3.82991 -4.33121e-20 -0.717508)
(3.74169 4.07105e-20 -0.7006)
(3.65191 -3.82801e-20 -0.683388)
(3.56006 -7.20444e-20 -0.666095)
(3.47065 -6.77759e-20 -0.649803)
(3.38608 6.36945e-20 -0.635418)
(3.31569 -5.96811e-20 -0.624721)
(3.2626 0 -0.618207)
(3.23647 0 -0.617234)
(3.23314 -4.77275e-20 -0.62103)
(3.25689 0 -0.629011)
(3.29555 0 -0.638985)
(3.35373 7.30761e-20 -0.651542)
(3.41324 0 -0.663465)
(3.48278 6.06562e-20 -0.676175)
(3.5383 1.10876e-19 -0.685618)
(3.5986 0 -0.695499)
(3.6368 4.67592e-20 -0.701578)
(3.68847 0 -0.71067)
(3.72132 0 -0.717191)
(3.78558 7.08094e-20 -0.730262)
(3.83664 -6.26131e-20 -0.741701)
(3.93604 7.30014e-23 -0.762525)
(4.02403 0 -0.781829)
(4.17267 0 -0.812288)
(4.30553 0 -0.840327)
(4.5071 1.60866e-20 -0.880426)
(4.68141 -6.32673e-21 -0.916023)
(4.92942 0 -0.96397)
(5.13058 4.46766e-20 -1.00402)
(5.41217 3.68341e-20 -1.0573)
(5.62117 -1.01254e-19 -1.09805)
(5.9204 -6.10933e-20 -1.15386)
(6.12022 -1.42127e-19 -1.19237)
(6.42734 0 -1.24934)
(6.60791 0 -1.28388)
(6.91693 8.76955e-20 -1.3412)
(7.0755 1.82371e-19 -1.37162)
(7.38818 -1.8487e-19 -1.42985)
(7.5263 0 -1.45639)
(7.84378 0 -1.51578)
(7.96518 1.87723e-19 -1.53931)
(8.29261 1.85475e-19 -1.60092)
(8.40167 0 -1.62205)
(8.73997 -1.80927e-19 -1.68595)
(8.84001 1.78585e-19 -1.70544)
(9.1942 0 -1.77276)
(9.29316 0 -1.79216)
(9.66624 0 -1.8631)
(9.76326 0 -1.88208)
(10.1539 0 -1.95626)
(10.2473 -3.20385e-19 -1.97483)
(10.664 0 -2.05401)
(10.7557 0 -2.07268)
(11.212 0 -2.15933)
(11.2987 5.97573e-19 -2.17731)
(11.805 5.86792e-19 -2.2734)
(11.8786 0 -2.28882)
(12.4408 -5.69459e-19 -2.39583)
(12.4996 0 -2.40757)
(13.096 -5.5195e-19 -2.52313)
(13.2139 0 -2.54198)
(13.6563 -5.31383e-19 -2.63907)
(14.3108 0 -2.75466)
(29.7099 -5.97758e-21 0.771365)
(30.3289 -7.16035e-21 0.986012)
(30.8746 8.28373e-21 0.863333)
(31.126 9.20378e-21 0.477348)
(30.99 0 -0.035447)
(30.4883 -1.07901e-20 -0.573321)
(29.6935 0 -1.0739)
(28.6911 1.98943e-20 -1.50322)
(27.5612 1.93399e-20 -1.84873)
(26.3699 3.78019e-20 -2.11195)
(25.1667 -1.78505e-20 -2.30198)
(23.9854 1.70261e-20 -2.43101)
(22.8475 0 -2.51133)
(21.7647 0 -2.55393)
(20.7422 1.47037e-20 -2.56787)
(19.7811 -1.06337e-22 -2.56037)
(18.8797 1.67022e-22 -2.537)
(18.0351 1.32127e-22 -2.50201)
(17.2437 0 -2.45862)
(16.5013 0 -2.40927)
(15.8042 0 -2.35577)
(15.1485 3.94574e-20 -2.29951)
(14.5307 1.86139e-20 -2.24153)
(13.9476 0 -2.1826)
(13.3962 0 -2.12331)
(12.8738 3.13925e-20 -2.0641)
(12.3782 0 -2.00532)
(11.907 0 -1.94722)
(11.4584 0 -1.88999)
(11.0308 0 -1.83379)
(10.6227 -2.15144e-23 -1.77873)
(10.2327 0 -1.72491)
(9.85979 -1.5651e-23 -1.67243)
(9.50304 3.99643e-20 -1.62137)
(9.16171 -2.26795e-23 -1.57179)
(8.83516 0 -1.52377)
(8.52293 0 -1.47737)
(8.22465 0 -1.43265)
(7.94006 0 -1.38968)
(7.66897 0 -1.34853)
(7.41134 0 -1.30928)
(7.16712 0 -1.27201)
(6.93645 -4.83086e-20 -1.23682)
(6.71942 -4.56523e-20 -1.2038)
(6.51625 0 -1.17303)
(6.327 -4.06709e-20 -1.14452)
(6.15173 0 -1.11823)
(5.99003 0 -1.09401)
(5.84144 6.79288e-20 -1.07164)
(5.7046 0 -1.05075)
(5.57814 -5.99017e-20 -1.03094)
(5.45961 0 -1.01169)
(5.34698 -1.05359e-19 -0.992592)
(5.23722 8.493e-24 -0.97322)
(5.12872 0 -0.953379)
(5.01887 0 -0.932853)
(4.90754 0 -0.911716)
(4.79291 -7.66355e-20 -0.889899)
(4.67685 7.20533e-20 -0.867851)
(4.55888 6.78027e-20 -0.845988)
(4.44498 6.37838e-20 -0.825785)
(4.33802 -1.19861e-19 -0.808445)
(4.24952 -5.61728e-20 -0.796125)
(4.18258 0 -0.789237)
(4.1488 0 -0.789213)
(4.14229 -2.66714e-23 -0.794735)
(4.16881 0 -0.805055)
(4.21274 0 -0.817381)
(4.28067 6.87914e-20 -0.832512)
(4.34953 0 -0.846492)
(4.43169 0 -0.861309)
(4.49686 -1.04249e-19 -0.872094)
(4.57066 4.78258e-20 -0.883844)
(4.61848 0 -0.89136)
(4.68658 0 -0.903382)
(4.7321 0 -0.912668)
(4.81975 -6.65007e-20 -0.930745)
(4.89007 0 -0.946851)
(5.02292 -1.01706e-19 -0.975041)
(5.13877 4.22535e-20 -1.00096)
(5.33212 0 -1.04096)
(5.50141 0 -1.07722)
(5.75834 -1.50954e-20 -1.12859)
(5.97569 -8.81571e-23 -1.17341)
(6.28756 2.19466e-21 -1.23371)
(6.53505 -2.08802e-20 -1.28323)
(6.8864 3.42714e-20 -1.34943)
(7.14132 4.74146e-20 -1.39917)
(7.51372 5.72806e-20 -1.46815)
(7.75637 9.71833e-23 -1.51486)
(8.1388 0 -1.58523)
(8.35755 -7.87254e-20 -1.62696)
(8.74345 0 -1.698)
(8.93565 0 -1.7348)
(9.32705 1.73188e-19 -1.8072)
(9.49468 0 -1.83936)
(9.89296 0 -1.91346)
(10.0409 0 -1.94213)
(10.4518 -1.73661e-19 -2.01912)
(10.5852 0 -2.04496)
(11.01 -1.69266e-19 -2.12492)
(11.1334 0 -2.149)
(11.5783 0 -2.23335)
(11.7008 0 -2.25741)
(12.1685 0 -2.34611)
(12.2888 0 -2.36969)
(12.7778 -3.04339e-19 -2.46232)
(12.8949 -2.99515e-19 -2.4857)
(13.4157 2.92946e-19 -2.58444)
(13.532 0 -2.60831)
(14.0997 0 -2.71586)
(14.2123 -1.11721e-18 -2.73937)
(14.8371 0 -2.85766)
(14.9385 5.40748e-19 -2.87893)
(15.624 0 -3.00919)
(15.7166 5.23358e-19 -3.02742)
(16.4302 5.15787e-19 -3.16618)
(16.6098 0 -3.19436)
(17.1174 -4.96297e-19 -3.31016)
(17.9159 0 -3.44748)
(29.8376 5.62908e-21 0.28523)
(30.2799 1.34557e-20 0.448021)
(30.7497 -7.80272e-21 0.434069)
(31.1371 -5.72977e-22 0.238838)
(31.3422 8.58735e-21 -0.0835038)
(31.3172 0 -0.472474)
(31.0589 0 -0.879928)
(30.59 -1.87338e-20 -1.27112)
(29.946 -3.56776e-20 -1.62389)
(29.1668 -5.90848e-22 -1.92675)
(28.2917 1.68079e-20 -2.17596)
(27.3555 -1.60316e-20 -2.37291)
(26.3875 1.49669e-20 -2.52209)
(25.4106 0 -2.62954)
(24.442 0 -2.70165)
(23.4937 -1.29884e-20 -2.74451)
(22.5738 4.89513e-20 -2.76358)
(21.6871 4.633e-20 -2.76357)
(20.8363 0 -2.74844)
(20.0223 0 -2.72142)
(19.2448 0 -2.68519)
(18.5029 -6.85905e-23 -2.64186)
(17.7953 -3.49995e-20 -2.59314)
(17.1203 1.6514e-20 -2.5404)
(16.4762 3.12142e-20 -2.48472)
(15.8611 -5.90576e-20 -2.42698)
(15.2734 2.78754e-20 -2.36788)
(14.7112 2.63421e-20 -2.30797)
(14.1732 2.48938e-20 -2.24772)
(13.6577 0 -2.18749)
(13.1635 -2.22612e-20 -2.12759)
(12.6894 2.10172e-20 -2.0683)
(12.2345 -1.98865e-20 -2.00983)
(11.7979 -3.75684e-20 -1.95241)
(11.3789 -7.10699e-20 -1.89621)
(10.977 0 -1.84139)
(10.5918 0 -1.78813)
(10.223 -3.00482e-20 -1.73654)
(9.87052 0 -1.68678)
(9.53422 2.68834e-20 -1.63898)
(9.21421 2.54263e-20 -1.59328)
(8.91055 0 -1.54982)
(8.62351 9.09183e-20 -1.50876)
(8.35325 4.29617e-20 -1.47022)
(8.10008 0 -1.43429)
(7.86405 3.82697e-20 -1.40098)
(7.64522 3.6081e-20 -1.37022)
(7.44304 0 -1.3418)
(7.25688 -6.39165e-20 -1.31542)
(7.08507 3.00241e-20 -1.29058)
(6.92594 5.63701e-20 -1.26679)
(6.77651 0 -1.24343)
(6.63441 -9.16686e-24 -1.22002)
(6.49595 -9.29201e-20 -1.19607)
(6.35928 0 -1.17143)
(6.22116 0 -1.14588)
(6.08154 3.83435e-20 -1.11957)
(5.93818 3.60267e-20 -1.09252)
(5.7936 -6.77406e-20 -1.06537)
(5.64731 -6.37361e-20 -1.03877)
(5.50684 -5.9953e-20 -1.01461)
(5.37532 5.63309e-20 -0.994409)
(5.26652 1.05594e-19 -0.980663)
(5.18323 0 -0.973629)
(5.13913 0 -0.974699)
(5.12638 8.44142e-20 -0.982004)
(5.15274 0 -0.994587)
(5.1988 0 -1.00904)
(5.27388 -6.46099e-20 -1.02645)
(5.3495 0 -1.04211)
(5.44266 5.36257e-20 -1.05872)
(5.51606 -2.54745e-23 -1.07056)
(5.60334 -4.48992e-20 -1.08413)
(5.66079 0 -1.09314)
(5.74685 0 -1.10846)
(5.80609 0 -1.12092)
(5.91967 -6.25163e-20 -1.14469)
(6.01059 0 -1.16604)
(6.1798 4.77435e-20 -1.2024)
(6.32452 -7.93563e-20 -1.23545)
(6.56537 0 -1.28573)
(6.77131 0 -1.33055)
(7.08604 0 -1.39375)
(7.34574 -8.89104e-23 -1.44786)
(7.72362 -2.05743e-21 -1.52086)
(8.01596 -1.92702e-20 -1.57968)
(8.43918 -3.21205e-20 -1.65903)
(8.73804 4.41889e-20 -1.71741)
(9.18597 0 -1.79976)
(9.46924 6.22808e-20 -1.85421)
(9.92972 0 -1.93823)
(10.1844 7.37391e-20 -1.98668)
(10.6503 0 -2.07177)
(10.874 0 -2.1145)
(11.3474 0 -2.20147)
(11.5425 -1.64558e-19 -2.23885)
(12.0249 -1.64119e-19 -2.32809)
(12.1976 0 -2.36156)
(12.6951 1.62414e-19 -2.45432)
(12.8512 -1.61182e-19 -2.48457)
(13.3651 1.58378e-19 -2.58097)
(13.5106 -1.56247e-19 -2.60941)
(14.0482 0 -2.71109)
(14.1933 0 -2.73962)
(14.7568 0 -2.84623)
(14.8997 0 -2.87428)
(15.4873 2.84583e-19 -2.98531)
(15.6276 7.2409e-23 -3.01347)
(16.2512 -5.47683e-19 -3.13142)
(16.3925 0 -3.16066)
(17.0679 0 -3.2883)
(17.2086 5.22039e-19 -3.31786)
(17.9441 0 -3.4568)
(18.0795 -5.05329e-19 -3.4851)
(18.8739 0 -3.63589)
(19.0132 -9.77881e-19 -3.66288)
(19.8195 0 -3.82059)
(20.0824 0 -3.86126)
(20.6266 4.63618e-19 -3.99161)
(21.5719 0 -4.14979)
(29.9345 0 -0.0936856)
(30.2601 -6.31402e-21 0.0195462)
(30.6189 0 0.0367594)
(30.9718 -7.61719e-21 -0.0616688)
(31.2596 -1.56793e-20 -0.260548)
(31.4343 0 -0.528836)
(31.47 7.95932e-21 -0.835592)
(31.3578 0 -1.15493)
(31.1011 7.31086e-22 -1.46696)
(30.711 -3.12934e-20 -1.75777)
(30.2039 0 -2.0187)
(29.5989 0 -2.24517)
(28.9159 -1.40776e-20 -2.43566)
(28.1743 0 -2.5909)
(27.3916 0 -2.71307)
(26.5833 0 -2.80518)
(25.7623 -2.29222e-20 -2.87059)
(24.9391 -2.171e-20 -2.91277)
(24.1219 -2.03858e-20 -2.93503)
(23.3167 0 -2.94046)
(22.5281 0 -2.93183)
(21.7591 -1.7384e-20 -2.91156)
(21.0115 1.64332e-20 -2.88174)
(20.2867 -1.55322e-20 -2.84416)
(19.585 -2.93581e-20 -2.80034)
(18.9064 5.5412e-20 -2.75155)
(18.2508 -6.21577e-23 -2.69887)
(17.6176 -2.47749e-20 -2.64319)
(17.0062 -2.34124e-20 -2.58529)
(16.4159 0 -2.5258)
(15.8461 0 -2.46527)
(15.2959 -1.97653e-20 -2.40419)
(14.765 0 -2.34299)
(14.2527 3.5329e-20 -2.28203)
(13.7588 3.34034e-20 -2.22168)
(13.2829 -3.15625e-20 -2.16223)
(12.825 0 -2.10396)
(12.3849 2.82537e-20 -2.04712)
(11.9629 2.671e-20 -1.99197)
(11.5591 -1.29293e-23 -1.93871)
(11.1738 -4.77997e-20 -1.88761)
(10.8074 0 -1.83887)
(10.4602 -4.27317e-20 -1.79271)
(10.1328 0 -1.74931)
(9.82548 0 -1.70878)
(9.53844 0 -1.67114)
(9.27181 -1.64022e-26 -1.6363)
(9.02494 0 -1.60397)
(8.79715 3.00372e-20 -1.57377)
(8.58647 -5.6436e-20 -1.5451)
(8.39103 -5.29719e-20 -1.51736)
(8.20735 0 -1.48984)
(8.03276 4.6568e-20 -1.46198)
(7.8629 8.73154e-20 -1.4333)
(7.69564 0 -1.40363)
(7.52706 0 -1.37282)
(7.35712 -3.6018e-20 -1.34111)
(7.18303 -3.38419e-20 -1.3086)
(7.00802 3.18121e-20 -1.27616)
(6.83135 5.98623e-20 -1.24471)
(6.66216 0 -1.21659)
(6.50356 0 -1.19361)
(6.37162 1.50199e-23 -1.17857)
(6.26847 4.62853e-20 -1.1715)
(6.21023 0 -1.17364)
(6.18685 -3.96317e-20 -1.18262)
(6.20885 0 -1.19723)
(6.25269 0 -1.21344)
(6.33133 0 -1.23273)
(6.41026 0 -1.2496)
(6.51227 3.04733e-23 -1.26764)
(6.59189 -2.44133e-23 -1.28022)
(6.6922 4.21587e-20 -1.29551)
(6.75862 0 -1.30602)
(6.86359 3.56032e-20 -1.32492)
(6.93661 0 -1.34085)
(7.07781 5.86215e-20 -1.37086)
(7.18944 -5.19725e-20 -1.39783)
(7.39689 4.4913e-20 -1.44298)
(7.57006 3.72343e-20 -1.48346)
(7.86015 0 -1.54456)
(8.10149 -2.14045e-20 -1.59801)
(8.47558 0 -1.67343)
(8.77555 5.37572e-21 -1.73665)
(9.22099 -1.76437e-21 -1.82259)
(9.55545 1.80523e-20 -1.8903)
(10.0524 0 -1.98294)
(10.3921 -8.26485e-20 -2.04941)
(10.9178 0 -2.14526)
(11.2384 5.81324e-20 -2.20684)
(11.7797 0 -2.30469)
(12.067 6.88947e-20 -2.35923)
(12.6159 0 -2.45863)
(12.8679 1.49374e-19 -2.50668)
(13.4263 -1.51503e-19 -2.6085)
(13.646 1.53992e-19 -2.65054)
(14.215 1.53566e-19 -2.75517)
(14.4099 0 -2.79294)
(14.9958 -3.03822e-19 -2.90167)
(15.1723 3.01491e-19 -2.93587)
(15.7765 0 -3.04876)
(15.9418 1.46127e-19 -3.08117)
(16.5723 0 -3.20009)
(16.7381 0 -3.23278)
(17.3963 -2.76297e-19 -3.35696)
(17.5607 0 -3.38925)
(18.2438 0 -3.51799)
(18.4066 2.61699e-19 -3.55082)
(19.1274 5.11757e-19 -3.68684)
(19.2941 2.5216e-19 -3.72156)
(20.0679 0 -3.86747)
(20.2399 0 -3.9037)
(21.0711 0 -4.06043)
(21.2486 0 -4.09723)
(22.1284 4.64182e-19 -4.26421)
(22.3307 4.56699e-19 -4.30265)
(23.1949 0 -4.47334)
(23.5645 0 -4.52985)
(24.1119 0 -4.66952)
(25.2026 0 -4.84724)
(30.0038 5.59096e-21 -0.402707)
(30.2546 0 -0.323926)
(30.5277 6.24618e-21 -0.302398)
(30.8123 0 -0.354651)
(31.0798 7.1432e-21 -0.480477)
(31.299 0 -0.665844)
(31.4469 -7.48071e-21 -0.892233)
(31.5094 1.42039e-20 -1.142)
(31.4787 2.88368e-20 -1.40011)
(31.352 5.86055e-22 -1.65462)
(31.1305 0 -1.8967)
(30.8187 0 -2.12032)
(30.4235 0 -2.32161)
(29.9538 0 -2.49842)
(29.4193 0 -2.65003)
(28.8307 0 -2.77671)
(28.1983 2.09985e-20 -2.87946)
(27.5321 -1.99658e-20 -2.95973)
(26.8411 1.91552e-20 -3.0193)
(26.1337 0 -3.06013)
(25.4168 0 -3.08422)
(24.6963 1.61506e-20 -3.09357)
(23.9773 1.52917e-20 -3.09005)
(23.2635 1.44726e-20 -3.07542)
(22.558 0 -3.05129)
(21.8632 -2.59965e-20 -3.0191)
(21.1809 -4.90735e-20 -2.98015)
(20.5122 2.31667e-20 -2.93559)
(19.8581 0 -2.88643)
(19.2193 0 -2.83356)
(18.596 0 -2.77778)
(17.9886 1.85152e-20 -2.71979)
(17.3973 0 -2.66024)
(16.8223 0 -2.59971)
(16.2638 3.1314e-20 -2.53872)
(15.7221 2.96501e-20 -2.47777)
(15.1976 0 -2.41727)
(14.6907 2.64998e-20 -2.35765)
(14.202 -5.01598e-20 -2.29926)
(13.7322 -2.37297e-20 -2.24247)
(13.2819 2.24434e-20 -2.18764)
(12.852 0 -2.13506)
(12.4431 0 -2.08507)
(12.0561 0 -2.03789)
(11.6917 3.5793e-20 -1.99371)
(11.3503 0 -1.95252)
(11.0321 -3.18463e-20 -1.91424)
(10.7367 -2.9984e-20 -1.87853)
(10.4634 0 -1.84492)
(10.21 2.64965e-20 -1.81272)
(9.97471 0 -1.78123)
(9.75348 0 -1.74966)
(9.54352 4.37303e-20 -1.71741)
(9.33976 4.80833e-24 -1.68397)
(9.13988 -3.84153e-20 -1.64922)
(8.93908 0 -1.61307)
(8.73736 0 -1.57586)
(8.53117 3.17603e-20 -1.53781)
(8.32435 0 -1.50004)
(8.11568 -5.6173e-20 -1.46374)
(7.91581 0 -1.43171)
(7.72745 0 -1.40603)
(7.56903 -9.30713e-20 -1.38977)
(7.44163 -8.68606e-20 -1.38264)
(7.36425 -4.03302e-20 -1.38563)
(7.32447 0 -1.39601)
(7.33646 0 -1.41224)
(7.37225 -3.12523e-20 -1.42967)
(7.44966 -5.69839e-20 -1.4503)
(7.52731 0 -1.46783)
(7.63518 -4.72033e-20 -1.48685)
(7.71812 4.31017e-20 -1.49978)
(7.83027 -3.9521e-20 -1.51664)
(7.90398 3.63465e-20 -1.52851)
(8.02786 -3.33698e-20 -1.55116)
(8.11344 0 -1.57064)
(8.2828 0 -1.60726)
(8.41367 4.86991e-20 -1.63999)
(8.65999 -8.4243e-20 -1.69433)
(8.85947 0 -1.74224)
(9.19934 0 -1.81446)
(9.47312 2.00489e-20 -1.87634)
(9.90713 0 -1.96415)
(10.2437 0 -2.03605)
(10.7576 1.65216e-21 -2.135)
(11.13 1.65988e-20 -2.21099)
(11.7021 0 -2.31695)
(12.0782 3.86262e-20 -2.39074)
(12.6839 0 -2.50016)
(13.0375 -5.44095e-20 -2.56805)
(13.6621 5.95219e-20 -2.67986)
(13.9778 -6.44703e-20 -2.73966)
(14.6122 -6.71392e-20 -2.8535)
(14.8885 -1.08108e-22 -2.9061)
(15.534 1.41734e-19 -3.02289)
(15.7746 0 -3.06884)
(16.4317 -1.43498e-19 -3.18891)
(16.6452 1.43689e-19 -3.2303)
(17.3202 1.42038e-19 -3.35491)
(17.5138 -2.81821e-19 -3.39243)
(18.2074 0 -3.52152)
(18.3896 1.3653e-19 -3.55732)
(19.1105 0 -3.69291)
(19.295 0 -3.72934)
(20.0436 2.5826e-19 -3.87017)
(20.2281 0 -3.90642)
(20.9999 0 -4.05146)
(21.1843 -2.44418e-19 -4.08881)
(21.9918 -7.2285e-23 -4.24084)