/*--------------------------------*- C++ -*----------------------------------*\
| =========                 |                                                 |
| \\      /  F ield         | OpenFOAM: The Open Source CFD Toolbox           |
|  \\    /   O peration     | Version:  2412                                  |
|   \\  /    A nd           | Website:  www.openfoam.com                      |
|    \\/     M anipulation  |                                                 |
\*---------------------------------------------------------------------------*/
FoamFile
{
    version     2.0;
    format      ascii;
    arch        "LSB;label=32;scalar=64";
    class       volScalarField;
    location    "0.5";
    object      Co;
}
// * * * * * * * * * * * * * * * * * * * * * * * * * * * * * * * * * * * * * //

dimensions      [0 0 0 0 0 0 0];

internalField   nonuniform List<scalar> 
12600
(
0.383816
0.159503
0.0636762
0.0284606
0.0154748
0.00968053
0.00638209
0.00424142
0.00276864
0.0017254
0.000975523
0.000427199
0.000302088
0.00049474
0.000648307
0.000750812
0.000817489
0.00085454
0.000869253
0.000867336
0.000850929
0.000826804
0.000796022
0.000761559
0.000727495
0.000688979
0.000649579
0.000610295
0.000569469
0.000530008
0.000491708
0.000454743
0.000419638
0.000386271
0.000354786
0.000325264
0.0002977
0.000272067
0.00024828
0.000226312
0.000206059
0.000187412
0.000170298
0.000154568
0.000140132
0.000126919
0.000114865
0.000103963
9.42359e-05
8.57153e-05
7.84322e-05
7.23536e-05
6.73613e-05
6.31956e-05
5.94198e-05
5.53946e-05
5.02389e-05
4.29149e-05
3.23999e-05
1.8108e-05
1.98994e-05
3.75263e-05
4.94318e-05
5.31978e-05
5.0452e-05
4.74097e-05
4.06494e-05
3.3425e-05
2.80746e-05
2.67449e-05
2.53071e-05
2.16345e-05
2.85644e-05
6.37309e-05
0.00010777
0.000123111
0.000116327
9.0322e-05
7.20812e-05
0.000366703
0.000621207
0.000585651
0.000245098
2.90297e-05
2.73516e-05
6.29043e-05
0.000101254
0.000111993
0.000105301
0.000134382
0.000256285
0.000427278
0.000515351
0.000497637
0.000466735
0.000376754
0.00025583
0.000138751
5.94108e-05
2.71109e-05
2.58888e-05
2.67604e-05
3.2477e-05
4.20055e-05
4.80255e-05
4.48588e-05
3.10278e-05
2.32735e-05
2.09273e-05
1.95229e-05
1.18132e-05
1.21851e-05
1.62924e-05
1.83485e-05
1.90928e-05
1.91951e-05
1.78681e-05
1.78983e-05
1.85305e-05
2.12115e-05
0.614477
0.400171
0.234966
0.135724
0.0821722
0.0530539
0.0359658
0.0250377
0.0175948
0.0123185
0.00848413
0.00565041
0.00353379
0.00194895
0.00101902
0.00105636
0.00151464
0.00183171
0.00204195
0.00217062
0.00222978
0.00224411
0.00221959
0.00216774
0.0020972
0.00201675
0.00193713
0.00184867
0.00174801
0.00164596
0.00154234
0.001439
0.00133785
0.00123971
0.00114554
0.00105578
0.000970764
0.000890867
0.00081603
0.000746321
0.000681588
0.000621606
0.000566303
0.000515253
0.000468181
0.000424916
0.000385244
0.000349126
0.00031663
0.000287873
0.000263021
0.000242068
0.000224783
0.000210535
0.00019815
0.000185846
0.000171017
0.000150356
0.000120268
7.8112e-05
8.29655e-05
0.000136321
0.000171326
0.000178342
0.000164059
0.000159569
0.000139616
0.000115074
9.45851e-05
8.69483e-05
8.39142e-05
7.80061e-05
0.000123234
0.000260809
0.000397308
0.000415531
0.000393098
0.000342101
0.000265205
0.00138298
0.00215146
0.00208989
0.00106913
0.000113551
9.75348e-05
0.0002459
0.00036211
0.000351903
0.000342869
0.000581105
0.00107642
0.00155141
0.00169853
0.00151127
0.00146557
0.00121205
0.000850247
0.000475926
0.000211874
0.000106495
9.57001e-05
9.44921e-05
0.000118242
0.000149979
0.000156645
0.000149521
0.000118723
8.81139e-05
6.1961e-05
6.53803e-05
4.61882e-05
4.82485e-05
5.8583e-05
6.22871e-05
6.33735e-05
6.19385e-05
5.69305e-05
5.88987e-05
6.33937e-05
7.51313e-05
0.680772
0.552347
0.400168
0.273117
0.183547
0.125066
0.0873426
0.0623434
0.0451168
0.0328284
0.0238302
0.0171175
0.0120437
0.00817639
0.0052234
0.00299024
0.00176829
0.00185847
0.00241632
0.00280477
0.00304771
0.00319211
0.00325061
0.00324517
0.00318831
0.00310205
0.00299886
0.00290528
0.0027901
0.00266249
0.00252233
0.00237572
0.00222657
0.00207781
0.00193197
0.00179026
0.00165387
0.00152415
0.00140135
0.00128592
0.0011779
0.00107713
0.000983784
0.000897222
0.000817016
0.000742958
0.000674645
0.000611969
0.00055504
0.000504077
0.000459516
0.000421584
0.000390266
0.000364986
0.00034434
0.000325984
0.00030608
0.000279177
0.000238405
0.000177227
0.000186063
0.000269629
0.000319472
0.000317223
0.000278944
0.000281044
0.000251669
0.000207606
0.000166263
0.000147424
0.00015003
0.000160401
0.00028385
0.000561112
0.000779967
0.000738869
0.000722431
0.000710223
0.000544325
0.00284216
0.00408135
0.00396867
0.00241194
0.000218229
0.000181391
0.000509884
0.00069418
0.000572321
0.000652334
0.00133625
0.00232672
0.00297086
0.00295711
0.00241928
0.00248642
0.00213043
0.00155502
0.000905938
0.000429514
0.000229232
0.00018508
0.000174159
0.000225388
0.00028062
0.000267138
0.000278254
0.000258394
0.000185073
0.000102953
0.000127019
9.92223e-05
9.88507e-05
0.000110788
0.000111423
0.000110915
0.000105428
9.62771e-05
0.000102949
0.000115448
0.000140878
0.678986
0.619762
0.515474
0.400517
0.298485
0.218462
0.159711
0.117592
0.0872925
0.0651606
0.0487129
0.0363027
0.0268254
0.0195238
0.0138709
0.00949989
0.00609257
0.00345715
0.00234389
0.00270066
0.00325115
0.00363002
0.0038574
0.00397085
0.0039936
0.00395038
0.00385544
0.00374723
0.00363782
0.00352919
0.00339167
0.00323224
0.00305935
0.00287917
0.00269668
0.00251463
0.00233573
0.00216285
0.00199696
0.00183927
0.00169036
0.00155031
0.0014198
0.00129814
0.00118478
0.00107958
0.000981939
0.000891662
0.000808906
0.000734024
0.000667843
0.000611021
0.000564063
0.000526858
0.000498262
0.000475916
0.000455163
0.000428515
0.00038522
0.000313139
0.000325731
0.000433683
0.000491936
0.000469928
0.000397415
0.000409579
0.000375341
0.000310576
0.000243926
0.000211664
0.000226181
0.000270193
0.000509072
0.000957089
0.00124219
0.00107895
0.0011071
0.00117458
0.000897721
0.00457467
0.00630981
0.00597275
0.00420741
0.000432413
0.00028156
0.000842172
0.00107711
0.00074638
0.00105777
0.00238649
0.00393756
0.00457637
0.00419482
0.00326542
0.00350833
0.00309122
0.00233126
0.00140424
0.000706546
0.000395877
0.000291887
0.00026602
0.000352043
0.000427579
0.000370623
0.000432353
0.000438698
0.000299897
0.000147074
0.000200613
0.000166658
0.000161201
0.000170908
0.00016429
0.000160763
0.000149125
0.000136879
0.000150398
0.000175198
0.00021847
0.654152
0.630198
0.571767
0.489258
0.399383
0.315494
0.244531
0.187914
0.144055
0.110427
0.0846334
0.0647429
0.0493038
0.0372472
0.0277903
0.0203652
0.0145114
0.00990493
0.00629632
0.00348048
0.00271704
0.00344776
0.00395071
0.00427125
0.00444671
0.00451049
0.00448775
0.00439756
0.00428748
0.00417224
0.00408328
0.00395381
0.00379102
0.00360635
0.00340865
0.00320323
0.0029951
0.00278937
0.00258829
0.00239434
0.00220899
0.00203288
0.00186751
0.00171231
0.00156678
0.0014309
0.00130394
0.00118563
0.00107619
0.00097615
0.000886843
0.000809548
0.000745575
0.000695658
0.000659363
0.000634844
0.000617055
0.0005966
0.000558371
0.000483245
0.000498184
0.000624248
0.000685969
0.000635648
0.000520125
0.000541778
0.000508387
0.000423153
0.000328138
0.000282199
0.000314222
0.000413816
0.000802214
0.00144081
0.00176991
0.0014193
0.0015459
0.00171554
0.00134073
0.00637948
0.00870057
0.00782335
0.00636896
0.000828974
0.000404005
0.00122919
0.0014888
0.000862155
0.00158129
0.00370865
0.00582498
0.00625422
0.00531988
0.00407346
0.00450581
0.00405465
0.00314026
0.00194675
0.00103874
0.0006069
0.000414431
0.000370076
0.0004958
0.000584551
0.000460063
0.000612265
0.000649388
0.000420862
0.000195237
0.00028854
0.000250205
0.000232962
0.000237144
0.000219635
0.000212216
0.000192959
0.000179353
0.000201723
0.000242593
0.000307426
0.626366
0.613558
0.58365
0.533195
0.467634
0.39594
0.326301
0.263839
0.210671
0.166874
0.131472
0.103123
0.0805016
0.0624613
0.0480658
0.0365814
0.0274086
0.0200899
0.0142672
0.00963764
0.00600579
0.00371677
0.00342348
0.00405858
0.00447669
0.00472264
0.00483519
0.00484132
0.00476931
0.00465254
0.00454308
0.00447823
0.00437044
0.00421778
0.00403383
0.00382818
0.00360913
0.00338501
0.00316006
0.0029386
0.00272353
0.00251643
0.00232
0.00213408
0.00195833
0.00179309
0.00163754
0.00149138
0.00135494
0.00122898
0.00111545
0.00101642
0.00093429
0.000870997
0.000827241
0.000802147
0.000790674
0.00078169
0.000755414
0.000684728
0.000699286
0.000836652
0.000898619
0.000813598
0.000647596
0.000674129
0.000648403
0.000544449
0.000419532
0.000359941
0.000416389
0.00061205
0.00118063
0.00200266
0.00234746
0.00174371
0.0020362
0.0023136
0.00190543
0.00804297
0.011108
0.00924468
0.00879432
0.00140829
0.000558533
0.00165597
0.00190695
0.00103009
0.00238308
0.0054086
0.00789157
0.00789116
0.00625996
0.00483062
0.00546003
0.00499137
0.00395447
0.00251566
0.00140621
0.000847057
0.000551248
0.000485992
0.000653599
0.000745362
0.000530127
0.000816546
0.000880208
0.00053855
0.00024707
0.000393592
0.000352671
0.000311874
0.00030792
0.000276514
0.000264895
0.000237081
0.000224418
0.000257204
0.000316886
0.000406611
0.602225
0.589903
0.572172
0.542911
0.50054
0.447895
0.3901
0.332106
0.277565
0.228635
0.186209
0.150295
0.120381
0.0957228
0.0755304
0.0590737
0.045699
0.0348601
0.0261066
0.0190526
0.013415
0.00891513
0.00535943
0.00374132
0.00398798
0.00450787
0.00483151
0.00499807
0.00504295
0.00499525
0.00487772
0.00479054
0.00473464
0.00465965
0.00452891
0.00435404
0.00414881
0.00392602
0.00369284
0.00345614
0.00322097
0.0029903
0.00276851
0.00255623
0.00235352
0.00216127
0.00197874
0.00180568
0.0016426
0.00149053
0.00135215
0.00123053
0.00112938
0.00105219
0.0010012
0.000976917
0.000974682
0.00098181
0.00097369
0.000914533
0.000924504
0.00106565
0.00112637
0.00100251
0.000780211
0.000802385
0.000792487
0.000673273
0.000518595
0.00044659
0.000534705
0.000852576
0.0016293
0.00263154
0.00295788
0.00203613
0.00257219
0.00294684
0.00261559
0.00937363
0.0134149
0.0100173
0.0113725
0.00218344
0.000757598
0.00210587
0.00230947
0.00130411
0.00343518
0.00741188
0.0100317
0.00938487
0.0069703
0.00553714
0.00635599
0.00588045
0.00475223
0.00309688
0.00180011
0.00111024
0.000701237
0.000613132
0.000821987
0.000904383
0.000577737
0.00104283
0.00112152
0.000645876
0.000301724
0.000505341
0.00046439
0.000396102
0.000381955
0.000334282
0.00031872
0.000281888
0.000272744
0.000316903
0.000396626
0.000514124
0.58198
0.567806
0.553086
0.533919
0.507
0.471465
0.428884
0.381992
0.333691
0.286487
0.242249
0.202159
0.166783
0.136206
0.11019
0.0883191
0.0700938
0.0550123
0.0426088
0.0324552
0.0242025
0.0175215
0.0121529
0.00787037
0.004666
0.00376486
0.00439457
0.00479979
0.00502719
0.00511707
0.00509984
0.00500296
0.00492066
0.00487012
0.00483841
0.00473682
0.00457843
0.00438331
0.00416289
0.00392764
0.00368554
0.00344159
0.00320249
0.00297009
0.00274523
0.00252961
0.00232279
0.00212468
0.00193609
0.00175839
0.00159513
0.0014505
0.0013298
0.00123838
0.00118037
0.00115807
0.00116753
0.00119474
0.00121028
0.00116933
0.00116887
0.00130539
0.00136513
0.00120072
0.000918215
0.000921732
0.000937205
0.000808092
0.00062567
0.000543843
0.000671154
0.00113617
0.00214357
0.00331468
0.00358326
0.00228209
0.00314427
0.00359027
0.00346225
0.010258
0.0155805
0.010038
0.0139962
0.00315368
0.00101563
0.00256051
0.00267425
0.00164979
0.00469143
0.00961473
0.0121369
0.0106543
0.00744053
0.00619367
0.0071873
0.006712
0.00552082
0.00368091
0.0022142
0.00139183
0.000863517
0.000750508
0.000997294
0.00105677
0.000658999
0.00128772
0.00136465
0.000738115
0.000357364
0.000620478
0.00058248
0.000484121
0.00045829
0.000392625
0.000373844
0.000327824
0.000324623
0.000380484
0.000479614
0.000627284
0.564329
0.548871
0.534026
0.518233
0.499058
0.474739
0.444871
0.410138
0.371872
0.331687
0.291201
0.251853
0.214792
0.180824
0.150409
0.123709
0.100647
0.0809883
0.0644131
0.0505592
0.0390813
0.0296357
0.0219215
0.0156686
0.0106411
0.00663812
0.00436285
0.00415634
0.00464907
0.00494431
0.00508402
0.0051047
0.00503395
0.00495074
0.00490137
0.004919
0.00485265
0.00472034
0.00454068
0.00432912
0.00409777
0.00385448
0.00360903
0.00336516
0.00312486
0.00289108
0.00266395
0.00244374
0.00223168
0.00202962
0.00184208
0.00167458
0.00153418
0.00142842
0.00136363
0.00134426
0.00136741
0.001418
0.00146197
0.00144548
0.00142697
0.00154938
0.0016102
0.00140606
0.00106151
0.00102666
0.00107849
0.000946914
0.000740829
0.000653231
0.000827505
0.00146267
0.00271728
0.00403789
0.00420548
0.00247009
0.00373789
0.00421675
0.0043988
0.0107109
0.0176566
0.00934998
0.0165714
0.00430587
0.00134742
0.00299992
0.00297947
0.00208136
0.00613725
0.0119413
0.0141028
0.0116495
0.00769516
0.00680188
0.00795431
0.00748482
0.0062536
0.00426086
0.00264407
0.0016888
0.00103739
0.000896805
0.0011759
0.00119883
0.00078984
0.00154718
0.00160238
0.000812869
0.000411986
0.000736302
0.000704609
0.000574802
0.000536277
0.000451508
0.000430537
0.000375324
0.000379908
0.000447158
0.000563016
0.000742697
0.548401
0.53244
0.517104
0.502008
0.485837
0.467265
0.445469
0.420159
0.391511
0.360078
0.326669
0.292233
0.257756
0.224177
0.192313
0.162805
0.136079
0.112344
0.091625
0.0737957
0.058649
0.0459168
0.0353191
0.0265781
0.0194325
0.0136458
0.00900438
0.00532312
0.00394969
0.00439723
0.00476546
0.00496207
0.00502493
0.00498624
0.00489479
0.00486315
0.00491323
0.00489033
0.00478874
0.0046304
0.00443332
0.00420931
0.00397222
0.00372851
0.00348191
0.00323712
0.00299526
0.00275721
0.00252486
0.00230065
0.00209024
0.0019006
0.00174082
0.00162086
0.00154958
0.0015339
0.00157224
0.00164882
0.00172527
0.00173906
0.00169293
0.00179052
0.00185617
0.00161574
0.00120962
0.00111094
0.00121155
0.00108717
0.000863776
0.00077605
0.00100521
0.00183081
0.00334256
0.0047858
0.0048072
0.00259364
0.00433262
0.00480008
0.00536078
0.0108815
0.0197493
0.00812124
0.0190198
0.00561705
0.00176622
0.00340277
0.00320384
0.00260956
0.00774799
0.0143101
0.0158391
0.0123584
0.00778563
0.00736523
0.00866287
0.00820403
0.00694889
0.00483094
0.00308585
0.00199965
0.00122224
0.00105041
0.00135449
0.00132807
0.000934856
0.00181676
0.00182909
0.00086965
0.00046329
0.000850573
0.000829025
0.000667369
0.000615531
0.00051109
0.000489006
0.000424588
0.000437767
0.000515574
0.000643533
0.000856485
0.533851
0.517777
0.502219
0.487187
0.471995
0.455877
0.438255
0.418711
0.39699
0.373035
0.346995
0.319193
0.290096
0.260283
0.230412
0.20117
0.173212
0.147094
0.123228
0.101856
0.0830645
0.0668008
0.0529206
0.0412207
0.0314691
0.0234285
0.016867
0.0115699
0.00734106
0.00462031
0.00405662
0.00450547
0.00476367
0.00487485
0.00487226
0.00478602
0.00478288
0.00483464
0.00485812
0.00479289
0.00466131
0.00448125
0.00427206
0.00404402
0.00380335
0.0035572
0.0033082
0.00305825
0.00281014
0.00256714
0.00233618
0.0021259
0.00194758
0.00181389
0.00173649
0.00172503
0.00177961
0.00188409
0.00199636
0.00204581
0.00196058
0.00202113
0.00209696
0.00182632
0.00136164
0.00116769
0.00133077
0.00122561
0.000993719
0.000913239
0.00120526
0.00223811
0.00400986
0.00554257
0.00537306
0.00265392
0.00490193
0.00531854
0.00629454
0.0109963
0.0219465
0.00657293
0.0212735
0.00705648
0.00228164
0.00374691
0.00332674
0.00324003
0.00949049
0.0166386
0.0172782
0.0128044
0.00777759
0.00788843
0.00932185
0.00887812
0.00760827
0.00538504
0.00353504
0.00232438
0.00141746
0.00120946
0.0015303
0.00144345
0.00109235
0.00209193
0.00204127
0.00090949
0.000509157
0.000961391
0.000954472
0.000761353
0.000695839
0.000571613
0.000549245
0.000475507
0.000496717
0.00058384
0.000717736
0.000964664
0.52051
0.504463
0.488884
0.473898
0.459076
0.443971
0.428278
0.411739
0.394107
0.375181
0.354834
0.333025
0.3098
0.285305
0.259797
0.233655
0.207363
0.181472
0.156546
0.133094
0.111523
0.092098
0.074941
0.0600472
0.0473154
0.0365821
0.0276479
0.0203004
0.0143283
0.00953152
0.00572682
0.0040194
0.00417326
0.00450062
0.00466462
0.00470447
0.00465325
0.0046446
0.00468899
0.00476435
0.00474117
0.00463815
0.00448298
0.00429127
0.00407282
0.00383818
0.00359224
0.00333839
0.00308078
0.00282375
0.00257571
0.00234718
0.00215182
0.00200526
0.00192221
0.00191534
0.00198673
0.00212037
0.00227109
0.00236114
0.00227981
0.00228679
0.00232585
0.00203363
0.00151589
0.00118916
0.0014296
0.00135812
0.00112922
0.00106523
0.00142806
0.00268077
0.00470824
0.00629259
0.00589121
0.00266241
0.00541395
0.00575713
0.00717584
0.0112678
0.0242566
0.00681101
0.0232742
0.00858745
0.00289775
0.00401007
0.00332879
0.00397275
0.0113264
0.0188416
0.018381
0.0130376
0.00773497
0.00837457
0.00994093
0.00951655
0.00823582
0.00591636
0.00398576
0.00266416
0.0016223
0.00137185
0.00170126
0.00154536
0.0012597
0.00236832
0.00226953
0.000966337
0.000571602
0.00109095
0.0010801
0.000856492
0.000777033
0.000633247
0.000610857
0.00052749
0.000554637
0.000649603
0.000782471
0.00106365
0.508237
0.492268
0.476759
0.461871
0.447289
0.4327
0.417941
0.402895
0.387424
0.371382
0.354635
0.33706
0.318546
0.299001
0.278378
0.25671
0.234139
0.210932
0.187474
0.164236
0.141727
0.120433
0.100756
0.0829776
0.0672437
0.0535783
0.0419074
0.0320904
0.0239476
0.0172819
0.0118955
0.0075982
0.00460387
0.00377806
0.00418001
0.00440349
0.00449308
0.00447747
0.00445684
0.00448454
0.0046181
0.00463764
0.00457152
0.00444377
0.00426929
0.00406332
0.00383404
0.00358706
0.00332841
0.00306388
0.00280367
0.00256038
0.00235027
0.00219221
0.00210414
0.00210207
0.00219042
0.00235381
0.00254493
0.0026801
0.00263818
0.00257393
0.00253559
0.00223273
0.00167057
0.00116775
0.00150067
0.00147972
0.00126806
0.00123181
0.00167325
0.00315366
0.00542576
0.00702152
0.00635471
0.00264296
0.00583411
0.00610855
0.00809133
0.0119022
0.026598
0.00885957
0.0249509
0.0101663
0.00361141
0.00417092
0.00319239
0.00488436
0.0132895
0.0208418
0.0191473
0.0131222
0.00770743
0.00882225
0.0105293
0.0101282
0.00883759
0.00641865
0.00443145
0.0030208
0.00183579
0.00153528
0.0018661
0.0016356
0.00143344
0.00264185
0.00248807
0.00102037
0.000635156
0.00122691
0.00120534
0.000952612
0.000858859
0.000695953
0.000672992
0.000579483
0.000609055
0.000710307
0.000835321
0.0011508
0.496914
0.481049
0.465645
0.45088
0.436503
0.422266
0.408061
0.393836
0.379523
0.365045
0.350328
0.335297
0.31986
0.303895
0.287261
0.26982
0.251466
0.23217
0.212006
0.191176
0.170002
0.148908
0.128372
0.108866
0.0907913
0.0744408
0.059976
0.0474356
0.0367591
0.0278172
0.0204403
0.0144395
0.00962614
0.00581819
0.0038898
0.00380792
0.00410026
0.00424005
0.00426701
0.00422499
0.00429012
0.00442326
0.00449255
0.00446643
0.00436517
0.00421085
0.00401643
0.00379071
0.00354239
0.00327921
0.00301357
0.00276043
0.00253889
0.0023713
0.00227912
0.00228195
0.00238697
0.0025801
0.00281294
0.00299732
0.00300325
0.00285002
0.00271856
0.0024181
0.00182238
0.00119118
0.00153637
0.00158434
0.00140708
0.00141189
0.00193958
0.00365033
0.00614993
0.00771713
0.00676279
0.00269811
0.00612933
0.00637333
0.00928708
0.0131469
0.0287966
0.0108123
0.0261982
0.0117399
0.00441096
0.00421024
0.00290303
0.00609901
0.0154448
0.0225752
0.0196072
0.0131217
0.00772308
0.00922262
0.0110939
0.0107202
0.00942042
0.00688829
0.00486657
0.00339536
0.0020567
0.00169716
0.00202428
0.00171725
0.00160929
0.00290885
0.00269604
0.00107382
0.000690984
0.00136044
0.00132981
0.00104949
0.000940874
0.000759365
0.000734347
0.000629979
0.000657471
0.000763572
0.000875002
0.0012248
0.486442
0.470694
0.45541
0.440772
0.426578
0.412618
0.398809
0.385121
0.371516
0.357948
0.34438
0.330783
0.317126
0.303347
0.28935
0.274992
0.260107
0.244527
0.228114
0.210803
0.192627
0.173745
0.154442
0.135114
0.11622
0.0982271
0.0815407
0.0664592
0.0531504
0.041657
0.0319217
0.0238174
0.0171784
0.0118208
0.00755939
0.0044089
0.00339162
0.00375452
0.00395291
0.00403051
0.0040095
0.00407328
0.00418723
0.00431046
0.00432303
0.00425163
0.00411667
0.00393159
0.00370889
0.00345904
0.00319713
0.0029409
0.00271258
0.00253829
0.00244328
0.00245109
0.00257212
0.0027944
0.00306968
0.00330691
0.0033691
0.00310816
0.00286707
0.00258355
0.00196828
0.00128322
0.00152758
0.00166504
0.00154206
0.00160338
0.00226521
0.00420247
0.00686757
0.0083694
0.00712148
0.00286455
0.00627297
0.00655987
0.0105012
0.0146781
0.0306069
0.0124423
0.0268559
0.0132405
0.00527503
0.00411239
0.00245075
0.00741096
0.0175557
0.024003
0.0198147
0.0130892
0.00778807
0.00955954
0.0116378
0.0112969
0.00998976
0.00732608
0.00528725
0.00378573
0.00228364
0.00185459
0.00217579
0.00179448
0.00178209
0.00316602
0.00289441
0.00117779
0.000784223
0.00149074
0.00145321
0.00114673
0.00102239
0.000822751
0.000793325
0.000677245
0.00069781
0.000807631
0.000901566
0.00128581
0.476739
0.461112
0.445953
0.431438
0.417406
0.403675
0.390175
0.376885
0.363778
0.350818
0.337976
0.325239
0.312607
0.300071
0.287601
0.275126
0.262532
0.249665
0.236341
0.222377
0.207618
0.191975
0.175454
0.158187
0.140439
0.122588
0.105089
0.0884067
0.0729505
0.0590204
0.0467822
0.036274
0.0274336
0.0201312
0.0141986
0.00945615
0.00572163
0.00364607
0.00337059
0.00363969
0.00376285
0.00378562
0.00382594
0.00391438
0.00409039
0.00414561
0.00410384
0.00398578
0.00380948
0.00358919
0.00334351
0.00309349
0.00286484
0.00268785
0.00259187
0.00260484
0.00274095
0.00299124
0.00330909
0.0036023
0.00372895
0.00351266
0.00313651
0.00272257
0.00210401
0.00137997
0.00146569
0.00171382
0.00166762
0.00180296
0.00263865
0.00479543
0.00756567
0.008972
0.00744393
0.00302288
0.0062494
0.00668305
0.011748
0.016372
0.0317687
0.0136791
0.0267223
0.0145829
0.00617143
0.00386668
0.00183108
0.00879409
0.0195683
0.0251057
0.0198372
0.0130618
0.00789094
0.0098128
0.0121575
0.0118592
0.0105473
0.0077377
0.00568994
0.00418408
0.00251571
0.00200439
0.00232076
0.00187239
0.00194573
0.00341033
0.00308462
0.00129073
0.000874438
0.00161742
0.00157525
0.00124373
0.00110253
0.000885049
0.000848257
0.000719586
0.000728781
0.000841686
0.000916303
0.00133515
0.46773
0.452223
0.437188
0.422794
0.408906
0.395369
0.382119
0.36914
0.356413
0.343904
0.331583
0.319436
0.307464
0.295677
0.284079
0.272659
0.261377
0.25015
0.238854
0.227323
0.21537
0.202803
0.189454
0.175217
0.160086
0.144175
0.127737
0.111146
0.0948546
0.0793314
0.0649875
0.0521196
0.0408849
0.0313105
0.0233223
0.0167843
0.0115244
0.00736248
0.00412448
0.00295689
0.00328906
0.00347249
0.00354058
0.00354925
0.00365793
0.00383703
0.00393443
0.00392024
0.00381886
0.0036504
0.00343809
0.00320712
0.00298716
0.00281315
0.002719
0.00273757
0.00288763
0.00316436
0.00352428
0.00387606
0.00407496
0.00393227
0.00340234
0.00282844
0.00222453
0.00147349
0.00134173
0.00172202
0.00177722
0.00200592
0.0030281
0.00539386
0.0082318
0.00952224
0.0077484
0.00317539
0.00605719
0.00676251
0.0130332
0.0180854
0.0320716
0.0145098
0.0256352
0.0156703
0.00705732
0.00346969
0.00148377
0.010221
0.0214347
0.0258843
0.0197453
0.0130613
0.00800979
0.00996488
0.0126427
0.0124049
0.0110912
0.00813347
0.00606885
0.00457526
0.00275363
0.00214331
0.00245899
0.00195658
0.002093
0.00363878
0.00326833
0.00141305
0.000961396
0.00174055
0.00169573
0.00133964
0.00118027
0.000945013
0.000897714
0.000755724
0.000750119
0.00086605
0.000921344
0.00137482
0.459351
0.443961
0.429048
0.414768
0.401011
0.38764
0.374598
0.361872
0.349445
0.337288
0.32537
0.313671
0.302185
0.290918
0.27988
0.269084
0.258531
0.2482
0.238041
0.227962
0.217832
0.207485
0.19673
0.185366
0.17322
0.160179
0.146225
0.131467
0.116153
0.100655
0.0854305
0.0709516
0.0576298
0.0457547
0.0354686
0.0267817
0.0196049
0.0137908
0.00916954
0.00555014
0.00336054
0.00291059
0.00315863
0.00327416
0.00329761
0.00340919
0.00354894
0.00368694
0.00370104
0.00361562
0.00346059
0.00326659
0.00306802
0.00290522
0.00281716
0.00284241
0.00300532
0.00330647
0.00370738
0.00411962
0.00439792
0.00434337
0.00378424
0.00302847
0.00232434
0.00156076
0.00114774
0.00168042
0.00186317
0.00220624
0.00342612
0.00598518
0.00885535
0.0100206
0.00805504
0.00352848
0.00570888
0.00681929
0.0143435
0.0196857
0.0315081
0.0150589
0.0236128
0.0164165
0.00788267
0.00292538
0.00187696
0.0116637
0.0231154
0.0263599
0.0196024
0.0130968
0.00812014
0.010008
0.0130778
0.0129308
0.0116195
0.00852811
0.00643024
0.0049532
0.00300126
0.00226853
0.00258939
0.00205272
0.00221564
0.00384816
0.00344714
0.00154539
0.00104573
0.00186072
0.00181463
0.00143351
0.00125465
0.00100143
0.000940757
0.000785058
0.000762564
0.00088198
0.000919099
0.00140683
0.451548
0.436269
0.421474
0.407302
0.393663
0.380438
0.367572
0.355055
0.342871
0.330996
0.319399
0.308057
0.296957
0.286096
0.275479
0.265116
0.255021
0.2452
0.235648
0.226336
0.217205
0.208161
0.19907
0.189765
0.18005
0.169724
0.15861
0.146592
0.13365
0.119888
0.105553
0.091021
0.0767546
0.0632316
0.0508618
0.0399233
0.0305387
0.022695
0.0162898
0.0111577
0.00712467
0.00401134
0.00269327
0.00281696
0.00299237
0.00306156
0.00313807
0.00323684
0.00340382
0.0034454
0.00338181
0.00325035
0.00309142
0.00295184
0.00287654
0.00291077
0.00308573
0.00340903
0.0038492
0.00432296
0.00468696
0.00473455
0.00427383
0.00331655
0.00239733
0.00163764
0.000971701
0.00158001
0.00191661
0.00239609
0.00382322
0.00655648
0.00942742
0.0104699
0.00838068
0.00411751
0.00522963
0.00687157
0.0156379
0.021077
0.0303022
0.0155365
0.0209171
0.0167693
0.00859612
0.00228262
0.00271279
0.0130947
0.0245801
0.0265679
0.0194578
0.0131689
0.00820169
0.00994802
0.013446
0.0134348
0.012134
0.00893933
0.00677779
0.00531227
0.00326625
0.00237861
0.0027095
0.0021658
0.00230448
0.00403471
0.00362224
0.00168833
0.00112826
0.00197905
0.00193228
0.00152447
0.00132488
0.00105333
0.000977111
0.000807828
0.000767653
0.000891293
0.000911738
0.0014328
0.444272
0.429099
0.414415
0.400345
0.386814
0.373717
0.361004
0.348662
0.33668
0.325035
0.313697
0.302644
0.291859
0.281331
0.271058
0.261042
0.251292
0.241819
0.232633
0.223736
0.215115
0.206735
0.198532
0.190411
0.18224
0.173846
0.165034
0.155606
0.145385
0.134255
0.122193
0.109305
0.0958383
0.0821733
0.068781
0.0561447
0.0446711
0.034621
0.0260955
0.0190526
0.0133691
0.00887634
0.00538773
0.00307975
0.00245148
0.00269145
0.00281318
0.00285638
0.00299161
0.00308409
0.00315836
0.0031264
0.0030341
0.00293592
0.00288389
0.00293161
0.00311875
0.00346191
0.00393895
0.00447428
0.00492916
0.00509204
0.00475268
0.00379573
0.00263858
0.00169931
0.000925245
0.00141219
0.00192758
0.00256562
0.00420858
0.0070954
0.00994036
0.0108735
0.00873755
0.00484048
0.00466097
0.00692988
0.0168512
0.0222035
0.0287941
0.0160845
0.0179156
0.0167175
0.00915088
0.00239965
0.00364814
0.0144877
0.0258087
0.0265536
0.0193428
0.0132722
0.00824289
0.00980359
0.0137319
0.0139141
0.01264
0.00938182
0.0070961
0.0056339
0.00355743
0.00247466
0.00281528
0.00229911
0.00234981
0.00419388
0.00379406
0.00184254
0.00120958
0.00209693
0.00204953
0.00161197
0.00139041
0.00110012
0.00100716
0.000824996
0.000767309
0.000895901
0.00090089
0.0014538
0.43748
0.422405
0.407827
0.393853
0.380421
0.367438
0.354858
0.342668
0.330856
0.319401
0.308277
0.297461
0.286934
0.276682
0.266698
0.256975
0.247516
0.238326
0.229415
0.220791
0.212459
0.204417
0.196645
0.189104
0.181733
0.174433
0.167068
0.159469
0.151445
0.1428
0.13336
0.12301
0.111728
0.0996191
0.0869334
0.0740587
0.0614749
0.0496696
0.0390452
0.0298417
0.0221293
0.0158434
0.0108357
0.00692805
0.00393521
0.00245457
0.00236958
0.0025559
0.00264681
0.00272331
0.00281134
0.00284831
0.00286108
0.00283194
0.00282063
0.00289032
0.00309172
0.00345293
0.00396388
0.00455964
0.00510914
0.00539933
0.00520399
0.00436897
0.00298478
0.0017638
0.000947792
0.00116908
0.00188523
0.00270328
0.00457001
0.00758917
0.0103875
0.0112344
0.00912939
0.00566088
0.00496166
0.00699446
0.0179081
0.0232665
0.0274188
0.0166146
0.0148336
0.0162741
0.00950536
0.00325399
0.00477803
0.0159274
0.0267885
0.026363
0.0192695
0.0133975
0.00824264
0.00960014
0.013923
0.0143619
0.0131398
0.00985769
0.00740207
0.00593242
0.00387752
0.00256165
0.00290155
0.00245311
0.00234201
0.00432017
0.00396198
0.0020089
0.00128995
0.00221545
0.00216773
0.00169615
0.00145102
0.00114162
0.00103181
0.000838015
0.00076349
0.000897479
0.000887623
0.00147045
0.431131
0.41615
0.401671
0.387787
0.374446
0.361567
0.349105
0.337046
0.325379
0.314085
0.303139
0.292519
0.282205
0.272184
0.262441
0.252969
0.243761
0.234819
0.226144
0.217744
0.209625
0.201794
0.194251
0.186987
0.179981
0.173196
0.166565
0.159987
0.15333
0.146428
0.139095
0.131139
0.122391
0.112736
0.102155
0.0907513
0.0787804
0.0666362
0.0548079
0.043788
0.033969
0.0255705
0.0186286
0.0130491
0.00866652
0.00529267
0.00284194
0.00202755
0.00227971
0.00242869
0.00250711
0.00256415
0.00261028
0.00260315
0.00265898
0.00276652
0.0029883
0.00336722
0.00390889
0.00456259
0.00520865
0.00563661
0.00560738
0.00492848
0.0036363
0.00210591
0.000957377
0.00084464
0.0017783
0.00279626
0.00489493
0.00802497
0.0107623
0.0115532
0.00955007
0.00653251
0.00604398
0.00705076
0.018739
0.0243745
0.0264516
0.0170705
0.0116657
0.015457
0.00962475
0.00409425
0.00602963
0.017347
0.0275148
0.0260395
0.019235
0.0135344
0.00820908
0.00936317
0.014011
0.0147641
0.0136268
0.0103533
0.00771079
0.00621604
0.00421548
0.00264973
0.00296306
0.0026243
0.00227249
0.00440705
0.00412384
0.00218798
0.00136963
0.00233468
0.00228854
0.00177803
0.00150681
0.00117794
0.00105216
0.000848437
0.000757839
0.000897288
0.000872586
0.00148314
0.425191
0.410297
0.395912
0.382114
0.368857
0.356071
0.343714
0.33177
0.320229
0.309073
0.298277
0.287822
0.277687
0.267857
0.258318
0.249058
0.240069
0.231343
0.222881
0.214682
0.20675
0.199092
0.19171
0.184608
0.177781
0.171221
0.164906
0.158794
0.152816
0.146875
0.14084
0.134552
0.12783
0.120488
0.112361
0.103336
0.093394
0.0826408
0.0713337
0.0598734
0.048756
0.0384794
0.0294257
0.0217883
0.0155707
0.0106475
0.00683967
0.00395211
0.00228497
0.0019834
0.00219494
0.00231775
0.00238006
0.0023903
0.0024282
0.00253111
0.00278627
0.00318614
0.00375589
0.00446373
0.00520604
0.00578006
0.00593795
0.00545074
0.00429457
0.00268409
0.00117162
0.000435206
0.00159561
0.00295009
0.00527868
0.0083898
0.0110584
0.0118269
0.00998435
0.00740436
0.00699867
0.00706746
0.0192855
0.0251744
0.0261128
0.0179126
0.00834698
0.014269
0.00946968
0.00488145
0.00727947
0.0186351
0.0279866
0.0256147
0.0192228
0.0136716
0.00815598
0.00911268
0.0139929
0.0151022
0.0140881
0.0108501