/*--------------------------------*- C++ -*----------------------------------*\
| =========                 |                                                 |
| \\      /  F ield         | OpenFOAM: The Open Source CFD Toolbox           |
|  \\    /   O peration     | Version:  2412                                  |
|   \\  /    A nd           | Website:  www.openfoam.com                      |
|    \\/     M anipulation  |                                                 |
\*---------------------------------------------------------------------------*/
FoamFile
{
    version     2.0;
    format      ascii;
    arch        "LSB;label=32;scalar=64";
    class       volScalarField;
    location    "0.635";
    object      p;
}
// * * * * * * * * * * * * * * * * * * * * * * * * * * * * * * * * * * * * * //

dimensions      [0 2 -2 0 0 0 0];

internalField   nonuniform List<scalar> 
12600
(
0.110084
-154.656
-204.786
-201.628
-189.244
-177.722
-167.618
-158.578
-150.385
-142.879
-135.933
-129.452
-123.362
-117.606
-112.139
-106.923
-101.927
-97.1255
-92.497
-88.0226
-83.6865
-79.4749
-75.3757
-71.3785
-67.4738
-63.6535
-59.9102
-56.2372
-52.6287
-49.0793
-45.584
-42.1384
-38.7384
-35.3802
-32.0604
-28.7757
-25.5231
-22.2998
-19.1032
-15.9308
-12.7804
-9.64961
-6.5365
-3.43906
-0.355438
2.71615
5.77738
8.82987
11.8751
14.9147
17.9499
20.9822
24.0127
27.0429
30.0738
33.1065
36.1422
39.1817
42.2263
45.2762
48.333
51.3964
54.4683
57.5474
60.6363
63.7327
66.84
69.954
73.08
76.211
79.3547
82.5005
85.6597
88.8165
91.9874
95.1497
98.3271
101.488
104.664
107.814
110.981
114.109
117.255
120.35
123.463
126.511
129.578
132.569
135.577
138.5
141.439
144.286
147.151
149.917
152.714
155.4
158.139
160.749
163.456
166.033
168.766
171.401
173.779
177.04
178.57
180.113
186.657
188.625
184.2
198.408
215.461
203.075
193.459
212.818
239.339
255.978
262.614
264.904
261.028
259.409
-24.1079
-123.817
-171.301
-180.988
-177.835
-171.149
-163.451
-155.726
-148.338
-141.362
-134.783
-128.568
-122.675
-117.07
-111.718
-106.593
-101.669
-96.9254
-92.3432
-87.9065
-83.6011
-79.4147
-75.3363
-71.3561
-67.4657
-63.6571
-59.9235
-56.2587
-52.6568
-49.1129
-45.6221
-42.1802
-38.7832
-35.4274
-32.1095
-28.8262
-25.5747
-22.3522
-19.1561
-15.9841
-12.8337
-9.70292
-6.58963
-3.49189
-0.407882
2.66418
5.72593
8.77901
11.8249
14.8651
17.901
20.934
23.9653
26.9962
30.0278
33.0613
36.0978
39.1381
42.1834
45.2341
48.2916
51.3558
54.4283
57.5082
60.5978
63.6949
66.8028
69.9176
73.0442
76.1759
79.3203
82.4667
85.6266
88.784
91.9556
95.1185
98.2965
101.458
104.635
107.785
110.953
114.082
117.228
120.324
123.437
126.487
129.554
132.546
135.555
138.478
141.418
144.265
147.131
149.898
152.695
155.381
158.12
160.731
163.439
166.015
168.748
171.386
173.761
177.024
178.565
180.091
186.626
188.64
184.188
198.3
215.432
203.16
193.465
212.683
239.197
255.895
262.578
264.903
261.045
259.414
-40.9767
-102.441
-145.264
-162.772
-166.15
-163.573
-158.48
-152.376
-145.987
-139.651
-133.504
-127.592
-121.92
-116.479
-111.253
-106.225
-101.378
-96.6945
-92.1609
-87.7633
-83.4898
-79.3295
-75.2724
-71.31
-67.4341
-63.6376
-59.914
-56.2574
-52.6625
-49.1242
-45.6382
-42.2001
-38.8063
-35.4531
-32.1372
-28.8556
-25.6054
-22.3839
-19.1886
-16.017
-12.867
-9.73632
-6.62306
-3.52524
-0.441059
2.63126
5.69333
8.74679
11.7931
14.8338
17.8702
20.9037
23.9355
26.9669
29.9991
33.0331
36.0702
39.111
42.1569
45.2081
48.2662
51.3309
54.404
57.4844
60.5745
63.6721
66.7806
69.8959
73.023
76.1552
79.3
82.447
85.6073
88.7652
91.9372
95.1006
98.2791
101.441
104.618
107.769
110.937
114.066
117.214
120.309
123.424
126.473
129.541
132.533
135.542
138.466
141.406
144.254
147.12
149.888
152.685
155.372
158.111
160.722
163.43
166.007
168.74
171.378
173.753
177.018
178.562
180.078
186.612
188.651
184.176
198.245
215.418
203.209
193.46
212.621
239.125
255.852
262.56
264.904
261.052
259.416
-48.9474
-88.7581
-124.206
-144.764
-153.022
-154.367
-152.109
-147.941
-142.839
-137.363
-131.803
-126.301
-120.925
-115.702
-110.64
-105.738
-100.989
-96.3842
-91.9129
-87.5658
-83.3333
-79.2065
-75.1772
-71.2375
-67.3806
-63.6
-59.8896
-56.2441
-52.6584
-49.1279
-45.6483
-42.2157
-38.8263
-35.4769
-32.1641
-28.8851
-25.637
-22.4172
-19.2232
-16.0527
-12.9035
-9.77344
-6.6606
-3.56304
-0.47899
2.59331
5.65547
8.70909
11.7556
14.7966
17.8333
20.8672
23.8994
26.9313
29.9639
32.9984
36.036
39.0773
42.1237
45.1754
48.234
51.2993
54.3728
57.4538
60.5444
63.6425
66.7515
69.8673
72.9949
76.1276
79.273
82.4204
85.5812
88.7396
91.9122
95.0761
98.255
101.417
104.595
107.747
110.915
114.045
117.193
120.289
123.403
126.454
129.522
132.515
135.524
138.449
141.389
144.238
147.104
149.872
152.669
155.357
158.097
160.708
163.416
165.993
168.725
171.366
173.738
177.006
178.558
180.058
186.59
188.663
184.157
198.159
215.407
203.276
193.449
212.5
239.015
255.791
262.535
264.906
261.066
259.419
-54.0504
-80.5571
-107.491
-127.189
-138.335
-143.132
-143.809
-141.896
-138.434
-134.121
-129.383
-124.468
-119.516
-114.606
-109.779
-105.056
-100.445
-95.948
-91.5626
-87.2843
-83.1075
-79.0261
-75.0339
-71.125
-67.2936
-63.5341
-59.8414
-56.2107
-52.6374
-49.1173
-45.6464
-42.2212
-38.838
-35.4937
-32.1853
-28.9098
-25.6647
-22.4473
-19.2554
-16.0865
-12.9386
-9.80952
-6.69744
-3.60044
-0.516756
2.55532
5.61739
8.67103
11.7177
14.7589
17.7959
20.83
23.8627
26.8949
29.928
32.963
36.001
39.0429
42.0897
45.1421
48.2012
51.267
54.3411
57.4226
60.5138
63.6125
66.722
69.8383
72.9665
76.0998
79.2457
82.3937
85.555
88.714
91.8871
95.0515
98.2311
101.394
104.573
107.724
110.893
114.024
117.172
120.269
123.384
126.435
129.504
132.497
135.507
138.432
141.373
144.222
147.089
149.857
152.655
155.343
158.083
160.695
163.403
165.98
168.713
171.354
173.725
176.996
178.553
180.038
186.571
188.676
184.133
198.077
215.4
203.343
193.429
212.394
238.912
255.735
262.513
264.91
261.078
259.421
-57.3873
-75.5523
-95.1802
-112.081
-123.946
-130.897
-133.979
-134.255
-132.604
-129.696
-126.015
-121.886
-117.52
-113.049
-108.555
-104.086
-99.6711
-95.3276
-91.0632
-86.8813
-82.7819
-78.7633
-74.8223
-70.9554
-67.1587
-63.428
-59.7593
-56.1486
-52.5921
-49.0861
-45.6272
-42.2119
-38.8371
-35.5
-32.1975
-28.927
-25.6861
-22.4723
-19.2832
-16.1167
-12.9708
-9.84334
-6.73254
-3.63654
-0.553632
2.51788
5.57955
8.63294
11.6795
14.7207
17.7577
20.7921
23.8249
26.8575
29.8909
32.9263
35.9647
39.007
42.0544
45.1072
48.1668
51.2331
54.3078
57.3898
60.4815
63.5808
66.6909
69.8077
72.9364
76.0702
79.2167
82.3652
85.5272
88.6867
91.8603
95.0253
98.2054
101.369
104.548
107.7
110.87
114.001
117.15
120.247
123.363
126.414
129.484
132.477
135.488
138.414
141.355
144.205
147.072
149.841
152.639
155.327
158.068
160.68
163.389
165.966
168.698
171.342
173.71
176.986
178.547
180.015
186.55
188.691
184.101
197.985
215.401
203.414
193.396
212.261
238.798
255.676
262.492
264.915
261.092
259.423
-59.055
-72.0854
-86.43
-100.145
-111.249
-118.982
-123.562
-125.553
-125.552
-124.087
-121.594
-118.41
-114.782
-110.885
-106.836
-102.714
-98.5719
-94.4427
-90.3484
-86.3022
-82.3119
-78.3814
-74.5122
-70.704
-66.9556
-63.2648
-59.6293
-56.0462
-52.5129
-49.0263
-45.5836
-42.1821
-38.819
-35.4915
-32.1973
-28.9339
-25.6988
-22.4899
-19.305
-16.142
-12.999
-9.87393
-6.76511
-3.67072
-0.589103
2.48139
5.54227
8.59508
11.6412
14.6821
17.7191
20.7534
23.7863
26.819
29.8527
32.8883
35.9271
38.9698
42.0175
45.0708
48.1309
51.1976
54.2728
57.3553
60.4476
63.5474
66.658
69.7754
72.9047
76.0391
79.1861
82.3352
85.4977
88.6578
91.832
94.9976
98.1783
101.342
104.522
107.675
110.845
113.977
117.126
120.224
123.34
126.392
129.463
132.457
135.468
138.394
141.336
144.186
147.054
149.824
152.623
155.311
158.052
160.665
163.373
165.951
168.683
171.328
173.694
176.975
178.541
179.99
186.531
188.707
184.062
197.887
215.41
203.489
193.349
212.116
238.677
255.617
262.47
264.921
261.106
259.425
-59.5592
-69.3399
-80.0771
-90.944
-100.613
-108.18
-113.422
-116.517
-117.786
-117.582
-116.237
-114.044
-111.244
-108.023
-104.522
-100.84
-97.0515
-93.2067
-89.3414
-85.4803
-81.6401
-77.8318
-74.0625
-70.3362
-66.6553
-63.0203
-59.431
-55.8866
-52.3854
-48.9258
-45.5058
-42.1234
-38.7763
-35.4625
-32.1798
-28.926
-25.6992
-22.4972
-19.3182
-16.1601
-13.0212
-9.89969
-6.79377
-3.7018
-0.622168
2.4467
5.50628
8.55805
11.6034
14.6437
17.6802
20.7143
23.7471
26.7797
29.8135
32.8492
35.8882
38.9312
41.9793
45.0329
48.0934
51.1606
54.2362
57.3192
60.412
63.5123
66.6235
69.7414
72.8713
76.0062
79.1538
82.3035
85.4666
88.6273
91.8021
94.9683
98.1496
101.314
104.495
107.648
110.819
113.951
117.101
120.2
123.317
126.369
129.44
132.435
135.447
138.374
141.316
144.167
147.035
149.805
152.605
155.294
158.036
160.648
163.357
165.935
168.667
171.314
173.677
176.964
178.534
179.961
186.512
188.724
184.012
197.779
215.429
203.566
193.285
211.95
238.548
255.555
262.449
264.93
261.122
259.426
-59.3466
-66.9257
-75.1758
-83.7501
-91.859
-98.7595
-104.07
-107.727
-109.842
-110.606
-110.242
-108.969
-106.992
-104.484
-101.589
-98.4148
-95.0481
-91.5523
-87.9751
-84.3517
-80.7075
-77.0611
-73.4257
-69.8104
-66.2215
-62.6631
-59.1377
-55.6466
-52.1901
-48.768
-45.3795
-42.0236
-38.699
-35.4041
-32.1374
-28.8972
-25.6819
-22.4897
-19.3189
-16.1678
-13.0349
-9.9183
-6.81658
-3.72813
-0.651444
2.41498
5.47254
8.52267
11.5667
14.6059
17.6417
20.6751
23.7074
26.7398
29.7734
32.8092
35.8482
38.8913
41.9396
44.9935
48.0543
51.1219
54.1979
57.2814
60.3747
63.4754
66.5872
69.7056
72.8361
75.9715
79.1198
82.27
85.4337
88.595
91.7705
94.9373
98.1193
101.284
104.466
107.62
110.791
113.924
117.075
120.174
123.292
126.345
129.417
132.412
135.425
138.352
141.295
144.147
147.016
149.786
152.586
155.276
158.018
160.631
163.34
165.918
168.65
171.298
173.659
176.953
178.525
179.928
186.494
188.743
183.951
197.663
215.46
203.646
193.202
211.763
238.409
255.491
262.429
264.94
261.138
259.427
-58.6606
-64.6494
-71.1299
-77.9455
-84.6383
-90.6803
-95.6964
-99.5126
-102.104
-103.538
-103.935
-103.443
-102.212
-100.39
-98.1047
-95.465
-92.559
-89.4571
-86.2146
-82.8742
-79.4689
-76.0237
-72.5576
-69.0848
-65.6159
-62.1585
-58.7182
-55.2988
-51.9028
-48.5318
-45.1865
-41.8671
-38.5734
-35.3047
-32.0603
-28.839
-25.6397
-22.4611
-19.3019
-16.1607
-13.036
-9.92653
-6.8308
-3.74741
-0.67499
2.38785
5.44243
8.49007
11.532
14.5696
17.604
20.6364
23.6679
26.6996
29.7328
32.7682
35.8072
38.8502
41.8986
44.9526
48.0137
51.0815
54.1579
57.2418
60.3355
63.4367
66.5489
69.668
72.7989
75.935
79.0838
82.2346
85.399
88.5609
91.7371
94.9045
98.0871
101.253
104.435
107.59
110.762
113.895
117.047
120.147
123.265
126.319
129.392
132.388
135.401
138.329
141.273
144.125
146.995
149.766
152.566
155.256
157.999
160.612
163.322
165.899
168.632
171.282
173.64
176.942
178.515
179.892
186.477
188.763
183.877
197.535
215.506
203.728
193.097
211.551
238.26
255.424
262.407
264.952
261.155
259.428
-57.6309
-62.4268
-67.6074
-73.0895
-78.593
-83.7636
-88.3003
-92.0074
-94.7902
-96.6323
-97.5756
-97.7003
-97.1057
-95.9005
-94.1914
-92.0759
-89.6382
-86.9495
-84.068
-81.0412
-77.9069
-74.6952
-71.4296
-68.1288
-64.807
-61.4756
-58.1429
-54.8153
-51.4978
-48.1938
-44.9056
-41.635
-38.3829
-35.1498
-31.9356
-28.7402
-25.5629
-22.4031
-19.26
-16.1324
-13.0194
-9.9199
-6.83262
-3.7564
-0.690068
2.36763
5.41786
8.46186
11.5008
14.5358
17.5681
20.5988
23.6289
26.6596
29.6919
32.7268
35.7652
38.808
41.8562
44.9102
47.9714
51.0394
54.1161
57.2002
60.2943
63.396
66.5087
69.6282
72.7597
75.8963
79.0457
82.1972
85.3622
88.5247
91.7016
94.8697
98.0531
101.22
104.402
107.558
110.731
113.865
117.017
120.118
123.237
126.292
129.365
132.362
135.376
138.305
141.25
144.102
146.972
149.744
152.545
155.236
157.979
160.593
163.302
165.88
168.613
171.264
173.62
176.931
178.504
179.851
186.462
188.786
183.789
197.396
215.568
203.812
192.968
211.313
238.098
255.352
262.385
264.965
261.173
259.429
-56.3366
-60.2185
-64.4195
-68.8822
-73.418
-77.7917
-81.7849
-85.2259
-87.9983
-90.0399
-91.3376
-91.9188
-91.8371
-91.1621
-89.9729
-88.3492
-86.3657
-84.0891
-81.5772
-78.8789
-76.0347
-73.0779
-70.0356
-66.9298
-63.7781
-60.5945
-57.3903
-54.1741
-50.9531
-47.7325
-44.5165
-41.3082
-38.1098
-34.923
-31.7487
-28.5876
-25.4399
-22.3055
-19.1841
-16.0752
-12.9783
-9.89244
-6.8169
-3.75071
-0.692929
2.35749
5.40154
8.4403
11.4748
14.5061
17.5353
20.5634
23.5914
26.6204
29.6513
32.6851
35.7227
38.7649
41.8127
44.8664
47.9275
50.9955
54.0723
57.1566
60.251
63.353
66.4662
69.5861
72.7182
75.8553
79.0054
82.1574
85.3231
88.4863
91.6639
94.8328
98.0169
101.184
104.368
107.524
110.698
113.833
116.986
120.087
123.208
126.263
129.337
132.335
135.35
138.279
141.225
144.078
146.949
149.721
152.523
155.214
157.957
160.572
163.281
165.859
168.593
171.245
173.599
176.921
178.491
179.804
186.449
188.811
183.684
197.244
215.649
203.899
192.816
211.046
237.923
255.275
262.359
264.979
261.192
259.429
-54.8379
-58.009
-61.4535
-65.1237
-68.88
-72.5624
-76.0203
-79.1204
-81.7526
-83.8374
-85.3308
-86.2228
-86.531
-86.2911
-85.5532
-84.3755
-82.8185
-80.9404
-78.7945
-76.4283
-73.8829
-71.1933
-68.389
-65.4942
-62.5293
-59.5106
-56.4518
-53.3636
-50.255
-47.1331
-44.0035
-40.8708
-37.7385
-34.6094
-31.4853
-28.3679
-25.2582
-22.1568
-19.064
-15.9798
-12.9043
-9.83687
-6.77723
-3.72473
-0.678699
2.36164
5.39706
8.42847
11.4567
14.4827
17.5074
20.5318
23.5566
26.583
29.6118
32.6438
35.68
38.7211
41.7681
44.8212
47.8819
50.9497
54.0264
57.1108
60.2054
63.3076
66.4211
69.5415
72.6741
75.8117
78.9624
82.1151
85.2815
88.4454
91.6238
94.7933
97.9783
101.146
104.331
107.488
110.663
113.799
116.953
120.055
123.176
126.232
129.307
132.306
135.321
138.252
141.198
144.052
146.924
149.697
152.499
155.191
157.935
160.55
163.259
165.837
168.572
171.225
173.575
176.911
178.477
179.752
186.437
188.839
183.562
197.078
215.752
203.989
192.64
210.753
237.732
255.191
262.33
264.993
261.212
259.429
-53.1857
-55.7927
-58.6394
-61.6829
-64.8108
-67.909
-70.8756
-73.614
-76.0327
-78.0533
-79.6189
-80.6974
-81.2808
-81.3792
-81.0168
-80.2298
-79.0617
-77.5588
-75.7669
-73.7291
-71.4848
-69.0688
-66.5113
-63.8384
-61.0721
-58.231
-55.3304
-52.3832
-49.4
-46.3894
-43.3586
-40.3134
-37.2585
-34.1977
-31.134
-28.0697
-25.0067
-21.9463
-18.8894
-15.8367
-12.7886
-9.74512
-6.70631
-3.67189
-0.641545
2.38523
5.40896
8.43029
11.4499
14.4685
17.4869
20.5059
23.5262
26.5488
29.5744
32.6037
35.6378
38.6772
41.7228
44.7748
47.8347
50.9019
53.9783
57.0625
60.1571
63.2595
66.3732
69.4939
72.6269
75.7651
78.9164
82.0697
85.2368
88.4014
91.5807
94.751
97.9369
101.106
104.291
107.449
110.625
113.762
116.917
120.02
123.142
126.2
129.275
132.275
135.292
138.223
141.17
144.025
146.897
149.671
152.474
155.166
157.911
160.526
163.236
165.813
168.549
171.203
173.551
176.901
178.461
179.694
186.428
188.87
183.42
196.897
215.874
204.084
192.443
210.434
237.523
255.096
262.293
265.005
261.232
259.43
-51.4084
-53.5618
-55.9294
-58.4707
-61.0893
-63.6994
-66.232
-68.6201
-70.7933
-72.683
-74.2314
-75.3969
-76.1557
-76.5001
-76.4349
-75.9764
-75.1511
-73.9918
-72.5342
-70.8147
-68.8682
-66.7275
-64.4223
-61.9789
-59.4204
-56.7667
-54.0347
-51.239
-48.3916
-45.5028
-42.581
-39.6333
-36.6655
-33.6825
-30.6881
-27.6855
-24.6774
-21.6657
-18.652
-15.6376
-12.6232
-9.60952
-6.59689
-3.58545
-0.575227
2.43396
5.44235
8.45036
11.4584
14.467
17.4768
20.4884
23.5024
26.5196
29.5407
32.5662
35.5971
38.6338
41.6773
44.7276
47.7862
50.8523
53.928
57.0117
60.106
63.2082
66.3221
69.443
72.5764
75.715
78.8668
82.0207
85.1886
88.354
91.5341
94.7053
97.8922
101.062
104.248
107.408
110.585
113.722
116.879
119.983
123.106
126.165
129.241
132.242
135.26
138.193
141.14
143.996
146.869
149.644
152.447
155.141
157.886
160.501
163.211
165.788
168.525
171.18
173.525
176.891
178.444
179.627
186.421
188.903
183.261
196.706
216.014
204.184
192.227
210.096
237.296
254.988
262.246
265.013
261.253
259.432
-49.5271
-51.3126
-53.2916
-55.4259
-57.6286
-59.8321
-61.9892
-64.0549
-65.9774
-67.7008
-69.173
-70.3508
-71.2033
-71.7116
-71.8678
-71.6731
-71.1386
-70.2836
-69.1329
-67.7142
-66.0565
-64.1884
-62.1372
-59.9283
-57.5846
-55.1266
-52.5723
-49.9374
-47.2352
-44.4773
-41.6735
-38.832
-35.9598
-33.0627
-30.1455
-27.2123
-24.2664
-21.3104
-18.3466
-15.3768
-12.4022
-9.42397
-6.44287
-3.45941
-0.473972
2.51333
5.50242
8.49346
11.4866
14.4823
17.4807
20.4825
23.488
26.4978
29.5126
32.5328
35.5592
38.5921
41.6324
44.6801
47.7366
50.8011
53.8754
56.9582
60.0518
63.1536
66.2673
69.3882
72.5218
75.6607
78.8131
81.9676
85.1363
88.3024
91.4834
94.6556
97.8436
101.014
104.202
107.362
110.541
113.679
116.837
119.943
123.067
126.127
129.205
132.207
135.226
138.16
141.108
143.965
146.839
149.615
152.419
155.113
157.859
160.475
163.185
165.761
168.5
171.155
173.497
176.88
178.423
179.558
186.416
188.939
183.082
196.503
216.172
204.288
192.006
209.735
237.047
254.861
262.184
265.013
261.276
259.436
-47.5591
-49.0434
-50.7043
-52.5048
-54.3653
-56.2298
-58.0655
-59.8432
-61.5256
-63.0695
-64.4304
-65.5688
-66.452
-67.0562
-67.3654
-67.3711
-67.0726
-66.4773
-65.5993
-64.4572
-63.0726
-61.4686
-59.6687
-57.6958
-55.5715
-53.3159
-50.9472
-48.4816
-45.9335
-43.3155
-40.6383
-37.9114
-35.1428
-32.3392
-29.5066
-26.6496
-23.7725
-20.8787
-17.9708
-15.0514
-12.1221
-9.18465
-6.24013
-3.28944
-0.333313
2.62781
5.59359
8.56391
11.5387
14.5181
17.5022
20.4914
23.486
26.4862
29.4927
32.5057
35.5259
38.5535
41.5893
44.6333
47.6866
50.7485
53.8209
56.902
59.9945
63.0954
66.2086
69.3291
72.4627
75.6017
78.7545
81.9095
85.0789
88.2457
91.4278
94.6009
97.7901
100.962
104.151
107.313
110.492
113.632
116.792
119.899
123.025
126.086
129.165
132.169
135.189
138.124
141.074
143.932
146.807
149.584
152.389
155.084
157.83
160.446
163.157
165.733
168.473
171.129
173.468
176.87
178.4
179.479
186.413
188.975
182.895
196.284
216.343
204.399
191.783
209.366
236.776
254.712
262.1
265.001
261.297
259.444
-45.5175
-46.7536
-48.1515
-49.6761
-51.2529
-52.8338
-54.3958
-55.9204
-57.3819
-58.7469
-59.9796
-61.0455
-61.9144
-62.5608
-62.9654
-63.1138
-62.9977
-62.6153
-61.9711
-61.0753
-59.9418
-58.5874
-57.0307
-55.2908
-53.387
-51.3378
-49.1608
-46.8721
-44.4863
-42.0166
-39.4747
-36.8709
-34.214
-31.5118
-28.771
-25.9972
-23.1955
-20.3698
-17.5238
-14.6602
-11.7815
-8.88966
-5.9864
-3.07296
-0.150415
2.78048
5.71908
8.66502
11.618
14.5779
17.5446
20.5184
23.4992
26.4874
29.4833
32.4869
35.4991
38.5196
41.5494
44.5882
47.6372
50.6954
53.7648
56.8434
59.934
63.0333
66.1454
69.2652
72.3985
75.5373
78.6903
81.8455
85.0156
88.1831
91.3662
94.5402
97.7308
100.904
104.095
107.257
110.439
113.581
116.742
119.85
122.978
126.041
129.122
132.127
135.149
138.086
141.037
143.897
146.773
149.551
152.357
155.053
157.8
160.416
163.127
165.703
168.445
171.101
173.437
176.858
178.377
179.397
186.408
189.014
182.695
196.057
216.518
204.52
191.568
208.996
236.479
254.532
261.988
264.972
261.323
259.458
-43.4127
-44.4428
-45.6218
-46.9163
-48.2563
-49.5993
-50.9285
-52.2331
-53.4956
-54.691
-55.7906
-56.7659
-57.59
-58.2393
-58.6932
-58.9352
-58.9523
-58.7366
-58.2856
-57.6019
-56.6923
-55.5674
-54.24
-52.7252
-51.0386
-49.1963
-47.2144
-45.108
-42.8914
-40.5779
-38.1795
-35.7071
-33.1702
-30.5774
-27.9361
-25.2529
-22.5334
-19.7824
-17.004
-14.2019
-11.379
-8.53774
-5.68035
-2.80849
0.0763844
2.97317
5.88092
8.79897
11.7268
14.664
17.6104
20.5658
23.5303
26.5038
29.4867
32.4789
35.4808
38.4924
41.5144
44.5464
47.5895
50.6427
53.7078
56.7829
59.8706
62.9675
66.0779
69.1962
72.3286
75.4668
78.6197
81.7749
84.9454
88.1134
91.2975
94.4725
97.6645
100.839
104.031
107.195
110.379
113.522
116.686
119.796
122.926
125.991
129.074
132.081
135.105
138.044
140.997
143.858
146.736
149.515
152.322
155.019
157.767
160.385
163.096
165.671
168.415
171.072
173.404
176.844
178.353
179.309
186.402
189.056
182.496
195.821
216.69
204.65
191.385
208.639
236.157
254.313
261.839
264.917
261.344
259.481
-41.2529
-42.1112
-43.1068
-44.2082
-45.3493
-46.4917
-47.6229
-48.7373
-49.8234
-50.8625
-51.832
-52.7086
-53.4698
-54.0945
-54.5631
-54.8587
-54.9667
-54.8755
-54.5777
-54.0703
-53.3542
-52.4341
-51.3175
-50.0147
-48.5372
-46.8983
-45.1112
-43.1898
-41.1472
-38.9961
-36.7485
-34.4153
-32.0065
-29.5311
-26.9974
-24.4123
-21.7822
-19.1127
-16.4086
-13.6739
-10.9123
-8.12689
-5.3202
-2.4944
0.348613
3.20739
6.0806
8.96732
11.8667
14.7782
17.7012
20.6356
23.5811
26.5375
29.505
32.4833
35.473
38.4736
41.4859
44.5093
47.5449
50.5916
53.6511
56.7212
59.8049
62.8984
66.006
69.1221
72.2529
75.3898
78.542
81.6968
84.8675
88.0357
91.2207
94.3964
97.5898
100.765
103.96
107.126
110.311
113.457
116.622
119.735
122.867
125.935
129.02
132.03
135.056
137.997
140.952
143.816
146.695
149.477
152.285
154.984
157.733
160.351
163.063
165.638
168.383
171.042
173.369
176.828
178.329
179.219
186.39
189.1
182.307
195.584
216.842
204.791
191.25
208.309
235.807
254.046
261.642
264.83
261.373
259.516
-39.045
-39.7594
-40.6006
-41.5388
-42.5119
-43.4843
-44.4469
-45.3973
-46.3284
-47.2262
-48.073
-48.8502
-49.539
-50.1214
-50.5801
-50.8988
-51.0628
-51.0592
-50.8779
-50.5119
-49.9577
-49.215
-48.2868
-47.1785
-45.8978
-44.454
-42.8579
-41.1207
-39.2539
-37.2693
-35.178
-32.9906
-30.7172
-28.367
-25.9485
-23.4693
-20.9363
-18.3555
-15.7324
-13.0717
-10.3776
-7.65357
-4.90283
-2.12797
0.66866
3.48522
6.32002
9.1718
12.0394
14.9219
17.8187
20.7292
23.6531
26.5899
29.5396
32.5019
35.4771
38.4647
41.4654
44.4784
47.5048
50.5433
53.5956
56.6595
59.7378
62.8266
65.9304
69.0432
72.1715
75.3062
78.4571
81.6107
84.7811
87.9491
91.1346
94.3108
97.5055
100.682
103.878
107.046
110.234
113.382
116.55
119.665
122.801
125.871
128.96
131.973
135.001
137.946
140.903
143.77
146.651
149.435
152.246
154.946
157.697
160.316
163.029
165.605
168.35
171.011
173.333
176.808
178.308
179.13
186.373
189.145
182.14
195.348
216.96
204.943
191.17
208.025
235.43
253.722
261.387
264.699
261.396
259.567
-36.7948
-37.3881
-38.0985
-38.8982
-39.7285
-40.5565
-41.3751
-42.1842
-42.9798
-43.7515
-44.4855
-45.1666
-45.7798
-46.3099
-46.742
-47.0615
-47.2545
-47.3082
-47.2111
-46.9542
-46.531
-45.9377
-45.1731
-44.2387
-43.1384
-41.8779
-40.4646
-38.9071
-37.215
-35.398
-33.4662
-31.4295
-29.2975
-27.0792
-24.7832
-22.4173
-19.9888
-17.5041
-14.9692
-12.3893
-9.76911
-7.11265
-4.42361
-1.70505
1.04023
3.80998
6.6021
9.41499
12.2471
15.0974
17.9648
20.8485
23.7479
26.6626
29.5921
32.5362
35.4947
38.4673
41.4544
44.4551
47.4705
50.4991
53.5427
56.5988
59.6703
62.7531
65.8518
68.9601
72.0848
75.2164
78.365
81.5167
84.686
87.8531
91.0386
94.2149
97.4106
100.588
103.786
106.955
110.146
113.296
116.468
119.585
122.725
125.798
128.891
131.907
134.939
137.887
140.848
143.719
146.603
149.39
152.203
154.906
157.659
160.28
162.994
165.571
168.316
170.981
173.298
176.783
178.292
179.052
186.346
189.191
182.037
195.12
217.021
205.106
191.188
207.808
235.027
253.33
261.064
264.516
261.423
259.637
-34.5068
-34.9981
-35.5973
-36.2788
-36.9871
-37.6919
-38.3872
-39.0747
-39.7523
-40.4124
-41.0441
-41.6352
-42.1735
-42.6466
-43.042
-43.3469
-43.5488
-43.6355
-43.5959
-43.4198
-43.0992
-42.6277
-42.0014
-41.2186
-40.2797
-39.187
-37.945
-36.5593
-35.0369
-33.3857
-31.614
-29.7306
-27.7441
-25.663
-23.4957
-21.2498
-18.9329
-16.5515
-14.1119
-11.6198
-9.08032
-6.49789
-3.87668
-1.22018
1.46832
4.1862
6.93094
9.70057
12.4932
15.3075
18.142
20.9957
23.8678
26.7575
29.6644
32.5877
35.5274
38.4828
41.4543
44.4409
47.4435
50.4605
53.4938
56.5404
59.6036
62.679
65.7712
68.8738
71.9936
75.121
78.2663
81.415
84.5824
87.7478
90.9326
94.1083
97.3046
100.483
103.682
106.853
110.046
113.198
116.373
119.494
122.638
125.714
128.811
131.832
134.869
137.821
140.786
143.661
146.549
149.341
152.157
154.864
157.619
160.243
162.959
165.539
168.282
170.954
173.264
176.754
178.286
178.981
186.308
189.236
182
194.904
217.001
205.285
191.342
207.685
234.602
252.861
260.664
264.27
261.445
259.729
-32.1854
-32.5902
-33.0946
-33.6748
-34.2786
-34.8778
-35.4673
-36.0498
-36.6248
-37.1867
-37.7267
-38.235
-38.7018
-39.117
-39.4702
-39.7505
-39.9469
-40.0486
-40.045
-39.926
-39.6828
-39.3079
-38.7954
-38.1412
-37.3431
-36.4007
-35.3155
-34.0904
-32.7298
-31.2393
-29.6255
-27.8952
-26.0562
-24.1158
-22.0818
-19.9617
-17.7625
-15.491
-13.1536
-10.7561
-8.30412
-5.80234
-3.25536
-0.667049
1.9589
4.61944
7.31167
10.0333
12.782
15.5561
18.3539
21.1741
24.0156
26.8773
29.7586
32.6586
35.5771
38.5131
41.4669
44.4373
47.4253
50.429
53.4502
56.4859
59.5393
62.6058
65.6901
68.7856
71.8993
75.0212
78.162
81.3067
84.4711
87.6338
90.8171
93.9914
97.1874
100.365
103.566
106.738
109.933
113.087
116.266
119.39
122.538
125.618
128.721
131.745
134.788
137.745
140.716
143.597
146.49
149.287
152.107
154.82
157.577
160.207
162.925
165.51
168.25
170.933
173.236
176.72
178.295
178.945
186.255
189.285
182.05
194.705
216.87
205.488
191.672
207.685
234.161
252.309
260.181
263.955
261.463
259.843
-29.834
-30.1655
-30.5888
-31.0818
-31.5957
-32.104
-32.6025
-33.0944
-33.5803
-34.0559
-34.5143
-34.9476
-35.3477
-35.7065
-36.0153
-36.2651
-36.4465
-36.55
-36.5658
-36.4847
-36.2977
-35.9971
-35.5757
-35.0281
-34.3501
-33.5392
-32.5943
-31.5161
-30.3065
-28.9688
-27.5075
-25.9277
-24.2355
-22.4371
-20.5394
-18.549
-16.4726
-14.3167
-12.0877
-9.79142
-7.43347
-5.01892
-2.55263
-0.0387926
2.51854
5.11598
7.75023
10.4186
13.1186
15.848
18.6049
21.3876
24.1949
27.0252
29.8779
32.7517
35.6462
38.5603
41.4942
44.4463
47.4177
50.4061
53.4136
56.4366
59.4787
62.5348
65.61
68.6969
71.8033
74.9184
78.0535
81.193
84.3533
87.5122
90.693
93.865
97.06
100.237
103.438
106.61
109.808
112.963
116.145
119.272
122.425
125.509
128.617
131.647
134.696
137.66
140.637
143.524
146.424
149.228
152.054
154.774
157.536
160.174
162.894
165.487
168.222
170.921
173.217
176.684
178.329
178.949
186.186
189.343
182.215
194.53
216.597
205.736
192.23
207.842
233.712
251.67
259.613
263.566
261.471
259.979
-27.4558
-27.725
-28.0787
-28.4964
-28.9326
-29.3626
-29.7826
-30.1961
-30.6045
-31.0047
-31.3909
-31.7567
-32.0956
-32.4009
-32.6655
-32.882
-33.0424
-33.1384
-33.1615
-33.1033
-32.9554
-32.7099
-32.3597
-31.8983
-31.3205
-30.622
-29.8002
-28.8536
-27.782
-26.5867
-25.2699
-23.8352
-22.2866
-20.6293
-18.8685
-17.0101
-15.06
-13.0243
-10.9089
-8.71954
-6.46177
-4.14075
-1.76148
0.671585
3.15415
5.68251
8.25306
10.8628
13.5088
16.1886
18.9
21.641
24.41
27.2053
30.0259
32.8703
35.738
38.6274
41.5388
44.4703
47.4229
50.394
53.3858
56.3945
59.4236
62.4677
65.5323
68.6094
71.707
74.8142
77.9423
81.0755
84.2305
87.3847
90.5618
93.7305
96.9236
100.099
103.299
106.471
109.67
112.827
116.012
119.141
122.298
125.387
128.501
131.537
134.593
137.563
140.549
143.444
146.351
149.165
151.997
154.728
157.495
160.144
162.868
165.475
168.201
170.922
173.214
176.648
178.399
178.996
186.098
189.418
182.554
194.393
216.158
206.043
193.065
208.186
233.266
250.948
258.965
263.101
261.464
260.133
-25.0537
-25.2699
-25.5637
-25.9163
-26.2851
-26.6472
-26.9993
-27.3451
-27.6861
-28.0202
-28.3427
-28.6483
-28.9316
-29.1872
-29.4093
-29.5917
-29.7277
-29.8102
-29.832
-29.7855
-29.663
-29.4573
-29.1611
-28.7679
-28.2718
-27.6677
-26.9516
-26.1205
-25.1726
-24.1073
-22.9251
-21.6275
-20.217
-18.6971
-17.0718
-15.3456
-13.5237
-11.6111
-9.61325
-7.53554
-5.38329
-3.16154
-0.875281
1.47092
3.87263
6.32588
8.82686
11.3722
13.9589
16.5839
19.2449
21.9396
24.666
27.4222
30.2069
33.0183
35.8559
38.7176
41.6037
44.5119
47.4434
50.395
53.3692
56.3615
59.3759
62.4064
65.4587
68.5245
71.6122
74.71
77.83
80.9556
84.1044
87.2526
90.4253
93.5897
96.7799
99.9521
103.152
106.322
109.522
112.679
115.867
118.998
122.16
125.252
128.373
131.414
134.478
137.456
140.45
143.356
146.272
149.097
151.937
154.682
157.456
160.122
162.849
165.476
168.191
170.942
173.235
176.616
178.514
179.118
185.993
189.521
183.101
194.317
215.534
206.436
194.212
208.736
232.838
250.154
258.245
262.563
261.436
260.299
-22.6301
-22.8013
-23.0435
-23.3394
-23.6498
-23.953
-24.2463
-24.5331
-24.8155
-25.0919
-25.3584
-25.6105
-25.8437
-26.0538
-26.2358
-26.3848
-26.4949
-26.5605
-26.575
-26.5319
-26.4246
-26.2461
-25.9899
-25.6495
-25.2188
-24.6924
-24.0654
-23.334
-22.4949
-21.5462
-20.4867
-19.3165
-18.0364
-16.6482
-15.1546
-13.5587
-11.8645
-10.0763
-8.19848
-6.23593
-4.19349
-2.07594
0.111935
2.36559
4.68061
7.05285
9.47842
11.9537
14.4753
17.0402
19.6457
22.289
24.9682
27.6808
30.4256
33.2002
36.004
38.8346
41.6925
44.5745
47.4822
50.4117
53.366
56.3398
59.3376
62.3526
65.3912
68.4441
71.5204
74.6075
77.7182
80.835
83.9764
87.1177
90.2848
93.444
96.6304
99.7991
102.997
106.165
109.365
112.522
115.712
118.845
122.011
125.107
128.233
131.281
134.353
137.34
140.343
143.26
146.186
149.026
151.875
154.638
157.419
160.107
162.839
165.493
168.196
170.982
173.289
176.598
178.682
179.342
185.882
189.656
183.879
194.327
214.73
206.917
195.674
209.493
232.441
249.305
257.466
261.966
261.384
260.471
-20.1876
-20.3203
-20.5179
-20.7646
-21.024
-21.2761
-21.5182
-21.7539
-21.9852
-22.2111
-22.4283
-22.633
-22.8216
-22.9903
-23.1353
-23.2522
-23.3365
-23.3831
-23.3866
-23.3414
-23.2414
-23.0806
-22.8531
-22.5526
-22.1734
-21.7099
-21.1569
-20.5098
-19.7649
-18.9189
-17.9696
-16.9156
-15.7563
-14.4922
-13.1244
-11.6548
-10.0862
-8.42151
-6.66448
-4.81905
-2.88941
-0.879901
1.2051
3.36119
5.58418
7.86981
10.2143
12.6137
15.0648
17.5639
20.1086
22.6954
25.3225
27.9869
30.6873
33.4208
36.1871
38.9829
41.809
44.6616
47.5426
50.4473
53.3792
56.3321
59.3113
62.3086
65.3318
68.3699
71.4334
74.5083
77.6084
80.7152
83.848
86.9813
90.1419
93.295
96.4768
99.641
102.836
106.002
109.201
112.358
115.549
118.684
121.852
124.953
128.085
131.139
134.218
137.215
140.227
143.157
146.093
148.951
151.81
154.595
157.385
160.101
162.838
165.528
168.221
171.042
173.383
176.601
178.902
179.667
185.784
189.827
184.88
194.447
213.784
207.464
197.407
210.432
232.086
248.422
256.646
261.322
261.303
260.641
-17.7284
-17.8282
-17.9873
-18.1911
-18.4059
-18.6134
-18.811
-19.0022
-19.189
-19.3708
-19.5446
-19.7075
-19.8562
-19.9877
-20.0988
-20.1859
-20.2451
-20.2721
-20.2624
-20.211
-20.1129
-19.9627
-19.755
-19.4841
-19.1447
-18.7313
-18.2387
-17.6622
-16.9975
-16.2406
-15.3885
-14.4388
-13.3897
-12.2405
-10.991
-9.64181
-8.19439