/*--------------------------------*- C++ -*----------------------------------*\
| =========                 |                                                 |
| \\      /  F ield         | OpenFOAM: The Open Source CFD Toolbox           |
|  \\    /   O peration     | Version:  2412                                  |
|   \\  /    A nd           | Website:  www.openfoam.com                      |
|    \\/     M anipulation  |                                                 |
\*---------------------------------------------------------------------------*/
FoamFile
{
    version     2.0;
    format      ascii;
    arch        "LSB;label=32;scalar=64";
    class       volScalarField;
    location    "0.53";
    object      p;
}
// * * * * * * * * * * * * * * * * * * * * * * * * * * * * * * * * * * * * * //

dimensions      [0 2 -2 0 0 0 0];

internalField   nonuniform List<scalar> 
12600
(
0.210066
-86.8611
-66.2755
-14.3815
30.5848
65.1212
92.6204
115.465
134.997
151.999
166.937
180.196
192.042
202.702
212.345
221.09
229.013
236.207
242.753
248.72
254.148
259.069
263.658
268.085
272.057
275.115
277.193
279.367
282.497
285.524
287.82
289.689
291.437
293.091
294.6
295.955
297.19
298.335
299.394
300.359
301.228
302.012
302.728
303.386
303.99
304.544
305.05
305.506
305.909
306.267
306.593
306.903
307.204
307.501
307.805
308.137
308.505
308.894
309.254
309.507
309.555
309.294
308.65
307.681
306.557
305.529
304.732
304.215
303.886
303.524
302.875
301.488
299.512
296.741
294.154
292.566
295.742
304.165
317.878
322.613
301.827
305.201
230.105
176.915
226.992
216.716
226.535
224.612
223.161
212.815
188.634
141.379
103.048
105.711
154.078
245.447
346.372
433.075
491.665
524.383
540.531
548.022
548.664
550.596
553.313
553.783
549.213
534.592
519.267
520.902
532.403
544.141
547.641
550.687
549.42
550.319
546.579
545.786
542.351
539.931
60.3169
-18.979
-30.1701
-4.30983
29.4126
61.0837
88.2378
111.321
131.209
148.58
163.92
177.539
189.706
200.641
210.54
219.524
227.615
234.969
241.667
247.759
253.293
258.34
263.068
267.508
271.357
274.368
276.71
279.294
282.503
285.35
287.541
289.429
291.223
292.907
294.429
295.798
297.049
298.209
299.279
300.253
301.13
301.923
302.647
303.314
303.926
304.488
305.001
305.463
305.872
306.235
306.566
306.88
307.183
307.482
307.785
308.114
308.479
308.865
309.224
309.481
309.538
309.289
308.665
307.714
306.601
305.57
304.767
304.242
303.91
303.552
302.911
301.548
299.619
296.884
294.295
292.61
295.589
303.753
317.443
322.645
301.991
305.931
232.033
177.341
226.501
216.732
226.379
224.589
223.289
213.308
189.75
142.722
103.728
105.255
152.31
242.93
343.838
431.108
490.417
523.706
540.206
547.91
548.632
550.537
553.264
553.815
549.44
534.958
519.45
520.77
532.132
543.962
547.563
550.664
549.419
550.344
546.626
545.829
542.412
539.954
86.7186
28.6367
2.5915
10.227
34.4023
61.8037
87.2359
109.742
129.515
146.936
162.352
176.07
188.348
199.403
209.398
218.448
226.65
234.102
240.875
247.025
252.615
257.755
262.581
266.98
270.705
273.778
276.545
279.515
282.649
285.26
287.348
289.257
291.088
292.791
294.322
295.698
296.958
298.127
299.204
300.184
301.067
301.866
302.597
303.269
303.886
304.453
304.971
305.436
305.849
306.214
306.549
306.865
307.169
307.468
307.771
308.099
308.462
308.845
309.202
309.46
309.522
309.287
308.675
307.735
306.625
305.592
304.788
304.259
303.925
303.568
302.934
301.585
299.684
296.976
294.392
292.641
295.488
303.522
317.178
322.679
302.103
306.413
233.077
177.624
226.247
216.75
226.287
224.575
223.368
213.576
190.303
143.451
104.111
104.948
151.522
241.838
342.761
430.222
489.833
523.381
540.049
547.855
548.615
550.508
553.238
553.835
549.53
535.117
519.535
520.711
532.026
543.887
547.528
550.653
549.419
550.355
546.642
545.846
542.433
539.962
95.6814
59.4098
33.3255
29.7366
43.4614
64.7789
87.387
108.695
128.005
145.29
160.72
174.515
186.898
198.067
208.176
217.338
225.636
233.171
240.043
246.259
251.909
257.127
262.013
266.391
270.091
273.271
276.536
279.815
282.705
285.074
287.117
289.059
290.928
292.65
294.191
295.575
296.843
298.021
299.107
300.094
300.985
301.793
302.533
303.213
303.837
304.41
304.933
305.403
305.82
306.189
306.527
306.846
307.152
307.45
307.752
308.079
308.44
308.822
309.178
309.439
309.508
309.285
308.688
307.761
306.66
305.626
304.816
304.281
303.943
303.591
302.966
301.64
299.771
297.089
294.501
292.666
295.35
303.173
316.846
322.72
302.264
307.044
234.669
177.799
225.851
216.78
226.162
224.563
223.486
214.011
191.209
144.507
104.575
104.474
149.941
239.602
340.626
428.603
488.824
522.841
539.792
547.769
548.589
550.46
553.201
553.866
549.731
535.421
519.674
520.589
531.795
543.74
547.466
550.635
549.42
550.377
546.684
545.883
542.486
539.98
103.558
83.154
62.0514
52.1778
56.4825
70.7564
89.3958
108.747
127.167
144.083
159.39
173.178
185.609
196.851
207.041
216.286
224.672
232.294
239.219
245.484
251.209
256.479
261.395
265.813
269.651
273.089
276.556
279.945
282.601
284.867
286.881
288.871
290.775
292.513
294.061
295.451
296.727
297.912
299.005
300
300.9
301.718
302.467
303.156
303.787
304.366
304.894
305.369
305.79
306.164
306.506
306.827
307.134
307.432
307.733
308.058
308.417
308.796
309.152
309.417
309.494
309.283
308.702
307.789
306.693
305.658
304.844
304.303
303.962
303.61
302.999
301.694
299.86
297.207
294.614
292.685
295.198
302.842
316.502
322.753
302.432
307.665
235.995
177.814
225.46
216.82
226.036
224.553
223.604
214.403
192.04
145.481
104.965
103.917
148.617
237.83
338.86
427.208
487.931
522.355
539.563
547.692
548.565
550.416
553.164
553.898
549.885
535.671
519.791
520.486
531.615
543.622
547.414
550.62
549.421
550.395
546.712
545.911
542.522
539.994
112.806
101.577
85.8141
74.1551
72.3879
80.0962
93.8147
110.228
127.137
143.344
158.345
172.026
184.449
195.727
205.975
215.287
223.746
231.436
238.421
244.745
250.507
255.83
260.773
265.242
269.222
272.879
276.451
279.736
282.309
284.487
286.672
288.687
290.618
292.37
293.924
295.32
296.603
297.796
298.896
299.899
300.809
301.638
302.398
303.095
303.734
304.319
304.854
305.334
305.76
306.138
306.484
306.808
307.115
307.412
307.712
308.035
308.392
308.769
309.125
309.393
309.479
309.283
308.718
307.817
306.729
305.693
304.874
304.327
303.983
303.643
303.031
301.754
299.956
297.33
294.728
292.694
295.021
302.456
316.128
322.759
302.6
308.281
237.446
177.541
225.012
216.872
225.9
224.542
223.735
214.862
192.953
146.472
105.262
103.2
146.842
235.478
336.654
425.532
486.886
521.796
539.301
547.607
548.538
550.366
553.125
553.935
550.088
535.971
519.917
520.348
531.381
543.477
547.352
550.603
549.422
550.418
546.754
545.949
542.574
540.01
121.767
115.167
103.992
93.6557
89.2591
92.0549
100.83
113.546
128.173
143.157
157.577
171.019
183.37
194.657
204.949
214.322
222.85
230.606
237.648
244.027
249.843
255.202
260.159
264.68
268.78
272.586
276.181
279.367
281.96
284.199
286.354
288.516
290.471
292.218
293.78
295.182
296.472
297.673
298.781
299.793
300.713
301.554
302.325
303.032
303.678
304.271
304.812
305.298
305.729
306.112
306.461
306.788
307.095
307.391
307.69
308.011
308.365
308.74
309.096
309.369
309.465
309.283
308.734
307.848
306.766
305.729
304.905
304.353
304.005
303.665
303.074
301.817
300.057
297.461
294.842
292.688
294.813
302.033
315.712
322.716
302.746
308.85
238.725
176.822
224.502
216.938
225.756
224.53
223.873
215.334
193.871
147.396
105.408
102.293
145.047
233.123
334.388
423.784
485.786
521.204
539.027
547.519
548.51
550.313
553.082
553.975
550.285
536.269
520.038
520.204
531.149
543.332
547.291
550.587
549.424
550.442
546.791
545.986
542.622
540.026
129.906
125.821
118.189
110.169
105.29
105.171
109.979
118.923
130.666
143.799
157.202
170.165
182.334
193.588
203.915
213.354
221.958
229.789
236.899
243.343
249.214
254.605
259.576
264.132
268.313
272.202
275.794
278.937
281.572
283.907
286.152
288.283
290.291
292.075
293.622
295.038
296.336
297.545
298.661
299.682
300.614
301.467
302.249
302.965
303.621
304.221
304.768
305.26
305.697
306.085
306.438
306.767
307.075
307.369
307.665
307.984
308.336
308.709
309.066
309.343
309.449
309.283
308.752
307.879
306.804
305.764
304.936
304.379
304.029
303.691
303.114
301.885
300.165
297.595
294.952
292.663
294.567
301.552
315.238
322.591
302.847
309.331
239.823
175.478
223.903
217.018
225.605
224.514
224.012
215.836
194.781
148.2
105.345
101.147
142.846
230.384
331.83
421.835
484.568
520.552
538.728
547.426
548.48
550.256
553.037
554.018
550.506
536.587
520.156
520.036
530.885
543.172
547.224
550.569
549.426
550.469
546.836
546.028
542.678
540.043
137.546
135.106
129.871
123.86
119.479
118.096
120.299
126.064
134.818
145.63
157.5
169.596
181.36
192.478
202.811
212.319
221.018
228.947
236.15
242.678
248.615
254.045
259.03
263.611
267.839
271.763
275.344
278.485
281.185
283.616
285.924
288.111
290.089
291.867
293.485
294.881
296.195
297.415
298.538
299.568
300.511
301.376
302.17
302.896
303.561
304.169
304.723
305.221
305.663
306.057
306.414
306.745
307.052
307.345
307.639
307.955
308.304
308.676
309.033
309.316
309.433
309.283
308.77
307.912
306.843
305.806
304.968
304.406
304.054
303.718
303.159
301.959
300.279
297.734
295.055
292.612
294.275
301.006
314.687
322.351
302.893
309.684
240.532
173.329
223.178
217.116
225.449
224.49
224.158
216.351
195.637
148.813
105.012
99.7273
140.496
227.43
329.051
419.708
483.232
519.832
538.401
547.326
548.447
550.195
552.986
554.063
550.735
536.913
520.267
519.842
530.603
543.003
547.153
550.551
549.428
550.498
546.882
546.071
542.736
540.06
144.867
143.533
139.792
135.24
131.682
130.041
130.807
134.275
140.425
148.831
158.803
169.603
180.61
191.371
201.602
211.149
219.954
228.01
235.341
241.988
248.018
253.507
258.522
263.125
267.377
271.31
274.884
278.043
280.814
283.333
285.7
287.907
289.908
291.679
293.25
294.763
296.057
297.281
298.415
299.454
300.408
301.284
302.089
302.825
303.498
304.114
304.676
305.18
305.628
306.028
306.389
306.722
307.029
307.32
307.611
307.924
308.27
308.64
308.997
309.285
309.415
309.283
308.789
307.945
306.882
305.84
305
304.434
304.081
303.748
303.206
302.037
300.398
297.874
295.147
292.529
293.928
300.381
314.036
321.956
302.9
309.874
240.7
170.261
222.272
217.233
225.293
224.46
224.289
216.87
196.387
149.157
104.353
98.0027
137.816
224.108
325.967
417.351
481.75
519.03
538.038
547.217
548.41
550.129
552.93
554.107
550.976
537.249
520.371
519.625
530.292
542.819
547.077
550.532
549.431
550.529
546.933
546.119
542.801
540.077
151.805
151.196
148.441
144.953
142.195
140.73
140.83
142.84
147.006
153.271
161.272
170.488
180.376
190.457
200.359
209.823
218.692
226.886
234.381
241.19
247.357
252.945
258.023
262.664
266.937
270.873
274.445
277.632
280.473
283.065
285.476
287.7
289.707
291.493
293.091
294.515
295.919
297.157
298.29
299.34
300.305
301.192
302.006
302.751
303.433
304.057
304.626
305.136
305.591
305.997
306.363
306.697
307.004
307.293
307.581
307.891
308.233
308.6
308.958
309.252
309.395
309.281
308.808
307.979
306.921
305.878
305.032
304.462
304.108
303.781
303.258
302.121
300.523
298.013
295.222
292.406
293.515
299.661
313.264
321.369
302.895
309.881
240.188
166.316
221.109
217.375
225.145
224.422
224.429
217.373
196.962
149.151
103.322
95.9341
134.648
220.455
322.566
414.743
480.104
518.131
537.632
547.095
548.369
550.057
552.866
554.151
551.225
537.591
520.466
519.4
529.954
542.621
546.995
550.512
549.435
550.563
546.987
546.171
542.871
540.094
158.334
158.227
156.201
153.5
151.373
150.192
150.064
151.247
154.047
158.603
164.813
172.384
180.923
190.018
199.295
208.443
217.232
225.503
233.163
240.169
246.526
252.271
257.465
262.184
266.501
270.455
274.042
277.264
280.165
282.814
285.259
287.491
289.504
291.302
292.919
294.398
295.74
297.017
298.181
299.227
300.204
301.1
301.922
302.676
303.366
303.998
304.573
305.091
305.552
305.964
306.335
306.671
306.978
307.264
307.549
307.855
308.193
308.557
308.915
309.215
309.371
309.277
308.825
308.013
306.96
305.913
305.061
304.489
304.137
303.816
303.315
302.21
300.652
298.148
295.273
292.235
293.023
298.825
312.353
320.544
302.873
309.72
238.989
161.772
219.595
217.546
225.02
224.382
224.575
217.839
197.283
148.72
101.874
93.4927
131.17
216.392
318.791
411.846
478.271
517.117
537.172
546.958
548.322
549.979
552.793
554.189
551.48
537.937
520.551
519.083
529.583
542.405
546.906
550.491
549.438
550.601
547.046
546.227
542.948
540.112
164.51
164.768
163.296
161.169
159.507
158.604
158.46
159.215
161.137
164.437
169.169
175.22
182.356
190.278
198.671
207.235
215.712
223.895
231.631
238.818
245.398
251.361
256.74
261.599
266.011
270.022
273.654
276.927
279.884
282.579
285.046
287.288
289.306
291.117
292.754
294.247
295.622
296.874
298.042
299.138
300.102
301.008
301.838
302.599
303.296
303.935
304.518
305.042
305.51
305.929
306.305
306.644
306.95
307.234
307.515
307.816
308.149
308.509
308.866
309.172
309.342
309.27
308.841
308.046
306.998
305.947
305.088
304.514
304.165
303.854
303.375
302.304
300.784
298.275
295.294
292.005
292.437
297.854
311.29
319.417
302.747
309.483
237.266
157.143
217.615
217.747
224.935
224.348
224.714
218.237
197.249
147.815
99.9625
90.6529
127.298
211.883
314.599
408.619
476.227
515.971
536.647
546.801
548.266
549.893
552.708
554.212
551.736
538.285
520.626
518.763
529.176
542.171
546.808
550.469
549.442
550.641
547.11
546.288
543.031
540.13
170.38
170.895
169.837
168.139
166.829
166.166
166.084
166.633
168.013
170.44
174.034
178.794
184.616
191.32
198.677
206.44
214.366
222.236
229.869
237.121
243.881
250.082
255.707
260.782
265.363
269.499
273.226
276.581
279.607
282.349
284.84
287.093
289.122
290.95
292.601
294.112
295.497
296.768
297.929
298.995
300.029
300.923
301.753
302.521
303.224
303.87
304.459
304.99
305.466
305.891
306.273
306.614
306.92
307.202
307.479
307.775
308.102
308.455
308.811
309.122
309.308
309.258
308.855
308.077
307.034
305.978
305.111
304.536
304.194
303.893
303.44
302.404
300.918
298.39
295.276
291.706
291.739
296.69
310.061
317.91
302.345
309.333
235.35
153.053
215.049
217.98
224.914
224.334
224.856
218.528
196.762
146.391
97.5385
87.3731
122.844
206.866
309.93
405.016
473.943
514.674
536.039
546.619
548.2
549.797
552.607
554.226
551.99
538.632
520.692
518.402
528.728
541.914
546.7
550.444
549.445
550.685
547.179
546.354
543.122
540.149
175.964
176.651
175.908
174.548
173.514
173.041
173.036
173.488
174.54
176.376
179.131
182.859
187.543
193.099
199.385
206.223
213.417
220.766
228.085
235.214
242.017
248.385
254.251
259.591
264.42
268.765
272.662
276.151
279.28
282.093
284.625
286.903
288.95
290.797
292.469
293.993
295.384
296.662
297.835
298.911
299.886
300.835
301.676
302.442
303.153
303.804
304.399
304.936
305.419
305.852
306.239
306.584
306.89
307.169
307.442
307.731
308.05
308.396
308.748
309.065
309.265
309.239
308.864
308.106
307.068
306.006
305.134
304.555
304.221
303.935
303.509
302.508
301.051
298.486
295.212
291.325
290.911
295.351
308.635
315.945
301.477
309.41
233.603
149.967
211.777
218.235
224.986
224.363
225.019
218.67
195.724
144.413
94.5518
83.6032
117.898
201.266
304.72
400.981
471.386
513.206
535.331
546.405
548.121
549.689
552.485
554.227
552.237
538.976
520.748
518.005
528.235
541.631
546.58
550.417
549.448
550.732
547.254
546.426
543.221
540.168
181.28
182.079
181.583
180.495
179.676
179.349
179.412
179.819
180.667
182.105
184.255
187.193
190.944
195.49
200.762
206.651
213.014
219.691
226.516
233.328
239.988
246.371
252.38
257.95
263.05
267.67
271.819
275.521
278.815
281.747
284.361
286.694
288.782
290.657
292.35
293.888
295.29
296.568
297.744
298.826
299.824
300.729
301.583
302.374
303.076
303.736
304.337
304.881
305.371
305.811
306.204
306.552
306.859
307.135
307.403
307.684
307.993
308.33
308.676
308.996
309.212
309.212
308.866
308.132
307.1
306.03
305.131
304.568
304.245
303.976
303.581
302.615
301.183
298.559
295.092
290.85
289.916
293.633
306.948
313.48
299.989
309.706
232.228
147.96
207.687
218.491
225.153
224.458
225.218
218.607
194.047
141.849
90.9558
79.2437
112.227
195
298.891
396.448
468.514
511.547
534.5
546.153
548.024
549.565
552.339
554.215
552.47
539.316
520.798
517.563
527.694
541.32
546.447
550.387
549.449
550.783
547.335
546.504
543.328
540.188
186.348
187.217
186.914
186.046
185.396
185.181
185.299
185.685
186.399
187.562
189.279
191.623
194.639
198.342
202.714
207.702
213.216
219.143
225.348
231.69
238.032
244.253
250.247
255.928
261.231
266.115
270.553
274.537
278.08
281.212
283.974
286.414
288.579
290.508
292.235
293.792
295.204
296.49
297.669
298.745
299.743
300.662
301.497
302.278
303.027
303.672
304.275
304.825
305.323
305.77
306.17
306.521
306.828
307.102
307.363
307.635
307.932
308.256
308.595
308.916
309.146
309.174
308.862
308.154
307.13
306.052
305.175
304.575
304.265
304.017
303.655
302.725
301.309
298.601
294.908
290.266
288.728
291.72
304.909
310.53
297.794
310.08
231.245
146.723
202.677
218.712
225.534
224.644
225.459
218.288
191.658
138.661
86.713
74.224
105.799
187.955
292.356
391.336
465.275
509.678
533.526
545.854
547.905
549.423
552.162
554.179
552.684
539.651
520.845
517.086
527.101
540.977
546.298
550.353
549.449
550.838
547.424
546.59
543.444
540.208
191.184
192.091
191.94
191.25
190.737
190.609
190.77
191.142
191.765
192.733
194.136
196.038
198.486
201.509
205.119
209.3
214.009
219.173
224.696
230.466
236.36
242.263
248.076
253.71
259.085
264.137
268.815
273.083
276.924
280.336
283.339
285.968
288.27
290.295
292.088
293.687
295.121
296.418
297.601
298.684
299.676
300.591
301.435
302.211
302.915
303.609
304.219
304.77
305.276
305.731
306.136
306.492
306.799
307.07
307.324
307.584
307.865
308.174
308.501
308.821
309.065
309.122
308.847
308.171
307.159
306.071
305.161
304.576
304.28
304.055
303.731
302.836
301.427
298.609
294.651
289.555
287.332
289.404
302.41
307.143
294.865
310.388
230.644
145.92
196.672
218.851
225.649
224.936
225.766
217.651
188.512
134.805
81.791
68.4975
98.4583
179.998
285.006
385.551
461.61
507.58
532.387
545.494
547.758
549.259
551.947
554.12
552.874
539.98
520.895
516.568
526.452
540.597
546.13
550.315
549.445
550.898
547.519
546.683
543.569
540.228
195.809
196.727
196.694
196.151
195.75
195.688
195.88
196.244
196.801
197.629
198.801
200.372
202.383
204.869
207.852
211.343
215.326
219.764
224.597
229.744
235.108
240.585
246.081
251.517
256.813
261.898
266.704
271.179
275.283
278.991
282.295
285.202
287.735
289.934
291.848
293.526
295.013
296.341
297.538
298.626
299.623
300.542
301.371
302.156
302.877
303.531
304.156
304.729
305.233
305.694
306.107
306.466
306.773
307.04
307.286
307.532
307.795
308.083
308.395
308.71
308.965
309.052
308.819
308.182
307.187
306.091
305.168
304.57
304.288
304.089
303.805
302.946
301.535
298.578
294.312
288.696
285.687
286.759
299.349
303.38
291.273
310.445
230.354
145.577
189.604
218.882
226.27
225.327
226.145
216.663
184.596
130.228
76.1541
61.9008
90.0978
170.97
276.714
378.984
457.446
505.224
531.057
545.044
547.575
549.069
551.687
554.033
553.035
540.304
520.956
516.02
525.746
540.177
545.941
550.27
549.439
550.962
547.622
546.786
543.706
540.248
200.237
201.149
201.205
200.783
200.471
200.462
200.678
201.036
201.545
202.269
203.268
204.588
206.264
208.326
210.805
213.718
217.071
220.852
225.029
229.549
234.343
239.329
244.419
249.539
254.622
259.598
264.4
268.963
273.235
277.177
280.76
283.969
286.804
289.273
291.405
293.238
294.826
296.219
297.458
298.569
299.575
300.494
301.337
302.111
302.826
303.492
304.101
304.665
305.202
305.668
306.079
306.442
306.751
307.015
307.25
307.48
307.721
307.984
308.274
308.58
308.843
308.961
308.775
308.184
307.214
306.113
305.168
304.563
304.289
304.117
303.879
303.054
301.63
298.506
293.883
287.673
283.755
283.75
295.664
299.282
287.007
309.985
230.489
145.259
181.484
218.713
226.791
225.785
226.585
215.26
179.939
124.887
69.7774
54.2537
80.5861
160.685
267.324
371.501
452.695
502.566
529.5
544.458
547.352
548.85
551.372
553.883
553.165
540.625
521.041
515.463
524.983
539.712
545.727
550.218
549.429
551.032
547.733
546.899
543.849
540.268
204.481
205.373
205.495
205.171
204.934
204.966
205.2
205.554
206.027
206.671
207.538
208.664
210.078
211.809
213.883
216.323
219.145
222.351
225.929
229.852
234.075
238.539
243.173
247.906
252.676
257.427
262.097
266.623
270.947
275.019
278.8
282.261
285.383
288.157
290.585
292.679
294.467
295.994
297.315
298.48
299.52
300.458
301.306
302.084
302.801
303.455
304.07
304.636
305.149
305.636
306.074
306.433
306.735
306.992
307.219
307.43
307.645
307.878
308.14
308.429
308.697
308.844
308.709
308.175
307.24
306.141
305.175
304.546
304.285
304.141
303.951
303.159
301.714
298.392
293.358
286.472
281.505
280.387
291.325
294.864
282.141
308.779
230.822
147.048
172.615
218.149
227.285
226.24
227.055
213.404
174.594
118.749
62.6292
45.4096
69.8039
148.945
256.653
362.948
447.24
499.534
527.673
543.678
547.089
548.599
550.996
553.734
553.264
540.947
521.165
514.916
524.164
539.196
545.484
550.156
549.414
551.107
547.853
547.024
544.012
540.288
208.551
209.413
209.583
209.34
209.165
209.23
209.476
209.825
210.269
210.85
211.612
212.586
213.795
215.263
217.013
219.069
221.45
224.166
227.218
230.596
234.275
238.217
242.372
246.681
251.082
255.525
259.963
264.34
268.6
272.691
276.566
280.189
283.53
286.567
289.285
291.679
293.755
295.529
297.033
298.31
299.417
300.398
301.275
302.067
302.785
303.444
304.054
304.615
305.141
305.617
306.032
306.416
306.731
306.986
307.196
307.384
307.569
307.767
307.994
308.258
308.523
308.696
308.617
308.151
307.266
306.178
305.194
304.553
304.283
304.162
304.026
303.266
301.789
298.242
292.736
285.077
278.911
276.568
286.313
290.079
276.714
306.498
231.408
146.718
163.462
216.982
227.617
226.621
227.482
211.049
168.649
111.812
54.6833
35.2357
57.6265
135.534
244.492
353.138
440.927
496.029
525.536
542.653
546.795
548.309
550.552
553.547
553.332
541.277
521.349
514.384
523.298
538.624
545.205
550.081
549.393
551.189
547.979
547.16
544.179
540.308
212.459
213.284
213.489
213.312
213.188
213.277
213.53
213.871
214.29
214.819
215.496
216.348
217.393
218.65
220.141
221.886
223.904
226.209
228.81
231.705
234.887
238.332
242.01
245.878
249.885
253.978
258.117
262.26
266.36
270.367
274.234
277.919
281.386
284.606
287.554
290.214
292.576
294.641
296.42
297.932
299.204
300.28
301.208
302.034
302.776
303.444
304.053
304.617
305.134
305.616
306.047
306.417
306.721
306.97
307.177
307.348
307.497
307.653
307.837
308.068
308.32
308.515
308.493
308.107
307.289
306.229
305.232
304.558
304.289
304.189
304.112
303.38
301.864
298.064
292.024
283.5
275.972
272.342
280.615
284.826
270.726
302.851
232.287
147.841
154.877
215.072
227.687
226.8
227.798
208.182
162.184
104.076
45.8704
23.6193
43.9404
120.234
230.603
341.859
433.571
491.942
523.056
541.363
546.473
547.973
550.039
553.299
553.373
541.621
521.623
513.891
522.402
537.989
544.882
549.988
549.364
551.275
548.119
547.311
544.37
540.331
216.215
216.998
217.227
217.104
217.021
217.128
217.382
217.713
218.107
218.591
219.197
219.949
220.86
221.948
223.228
224.72
226.441
228.406
230.625
233.105
235.845
238.836
242.06
245.491
249.092
252.819
256.627
260.483
264.351
268.191
271.96
275.613
279.113
282.425
285.521
288.375
290.97
293.297
295.353
297.145
298.683
299.982
301.063
301.962
302.738
303.43
304.06
304.629
305.149
305.632
306.048
306.43
306.74
306.983
307.169
307.314
307.435
307.542
307.674
307.86
308.089
308.296
308.33
308.035
307.306
306.296
305.302
304.604
304.324
304.24
304.223
303.52
301.956
297.881
291.233
281.728
272.661
267.598
274.196
278.97
264.137
297.393
233.975
150.264
148.531
212.323
227.412
226.649
227.859
204.77
155.285
95.5968
36.1467
10.4887
28.6306
102.827
214.714
328.866
424.97
487.167
520.31
539.709
546.087
547.582
549.463
552.966
553.387
541.987
522.03
513.496
521.511
537.289
544.502
549.868
549.321
551.366
548.259
547.476
544.58
540.358
219.826
220.565
220.809
220.731
220.681
220.8
221.051
221.37
221.74
222.184
222.729
223.396
224.198
225.146
226.254
227.539
229.016
230.699
232.599
234.725
237.082
239.668
242.477
245.494
248.694
252.048
255.517
259.061
262.654
266.267
269.864
273.407
276.856
280.174
283.331
286.299
289.056
291.584
293.872
295.916
297.718
299.285
300.622
301.739
302.651
303.396
304.037
304.624
305.166
305.654
306.084
306.457
306.76
307.002
307.18
307.303
307.38
307.441
307.513
307.643
307.834
308.039
308.124
307.927
307.311
306.379
305.41
304.698
304.405
304.34
304.386
303.709
302.091
297.716
290.399
279.832
269.05
262.328
267.08
272.359
256.837
289.754
236.587
155.101
146.488
208.834
226.747
226.057
227.607
200.856
147.998
86.3727
25.3888
-4.21962
11.4725
83.101
196.525
313.887
414.9
481.597
517.138
537.76
545.53
547.128
548.837
552.505
553.368
542.383
522.622
513.282
520.683
536.529
544.051
549.71
549.258
551.457
548.412
547.66
544.796
540.391
223.301
223.996
224.247
224.206
224.184
224.31
224.556
224.861
225.209
225.617
226.11
226.705
227.413
228.244
229.21
230.323
231.598
233.047
234.68
236.508
238.536
240.77
243.209
245.845
248.666
251.653
254.777
258.007
261.308
264.656
268.029
271.397
274.726
277.978
281.122
284.127
286.968
289.625
292.082
294.327
296.352
298.158
299.745
301.118
302.28
303.236
304
304.614
305.148
305.654
306.114
306.502
306.81
307.038
307.203
307.305
307.352
307.357
307.362
307.425
307.562
307.75
307.872
307.776
307.293
306.475
305.568
304.862
304.57
304.524
304.65
303.991
302.315
297.635
289.566
277.792
265.121
256.527
259.293
264.86
248.647
279.644
238.801
162.224
148.957
204.931
225.68
224.982
226.852
196.451
140.389
76.5224
13.5735
-20.4895
-7.48324
60.885
175.718
296.615
403.099
475.085
513.434
535.44
544.634
546.627
548.171
551.864
553.305
542.81
523.478
513.336
519.995
535.729
543.515
549.499
549.162
551.543
548.56
547.858
545.039
540.437
226.649
227.299
227.554
227.542
227.543
227.675
227.914
228.205
228.532
228.908
229.355
229.888
230.517
231.25
232.095
233.064
234.17
235.423
236.832
238.408
240.158
242.088
244.201
246.497
248.969
251.607
254.394
257.305
260.313
263.386
266.506
269.655
272.807
275.932
278.999
281.975
284.834
287.551
290.108
292.489
294.682
296.681
298.481
300.079
301.477
302.675
303.681
304.503
305.152
305.664
306.097
306.507
306.856
307.103
307.257
307.33
307.344
307.298
307.237
307.217
307.288
307.438
307.577
307.573
307.24
306.574
305.777
305.119
304.847
304.841
305.075
304.426
302.68
297.671
288.813
275.81
261.092
250.256
250.81
256.35
239.396
266.974
238.702
170.763
154.852
200.937
224.435
223.493
225.674
191.707
132.491
66.0238
0.541237
-38.3518
-28.8705
36.0104
151.98
276.722
389.252
467.398
509.011
532.695
543.276
546.122
547.465
551.004
553.144
543.263
524.638
513.768
519.537
534.931
542.886
549.218
549.018
551.618
548.704
548.074
545.318
540.501
229.874
230.48
230.735
230.748
230.769
230.905
231.137
231.415
231.723
232.071
232.479
232.96
233.521
234.169
234.912
235.76
236.723
237.81
239.031
240.394
241.907
243.575
245.406
247.401
249.559
251.875
254.341
256.94
259.652
262.452
265.314
268.222
271.16
274.11
277.045
279.936
282.754
285.471
288.067
290.521
292.822
294.957
296.92
298.703
300.302
301.712
302.937
303.986
304.868
305.591
306.143
306.541
306.846
307.114
307.311
307.383
307.36
307.264
307.143
307.055
307.029
307.124
307.252
307.315
307.139
306.66
306.034
305.482
305.284
305.345
305.716
305.108
303.271
297.975
288.244
273.821
256.893
243.594
241.715
246.801
229.039
251.654
235.537
182.596
163.07
197.522
223.232
221.707
224.082
186.733
124.434
55.1041
-13.5945
-57.6708
-51.9972
8.4486
125.066
253.887
373.019
458.233
503.675
529.513
541.436
545.627
546.697
549.919
552.821
543.731
526.097
514.693
519.391
534.189
542.168
548.85
548.807
551.665
548.834
548.308
545.603
540.593
232.984
233.546
233.799
233.833
233.871
234.01
234.234
234.5
234.791
235.115
235.489
235.925
236.429
237.006
237.662
238.408
239.25
240.197
241.258
242.44
243.75
245.195
246.781
248.513
250.392
252.418
254.587
256.889
259.312
261.838
264.446
267.112
269.821
272.564
275.325
278.081
280.805
283.47
286.052
288.527
290.88
293.097
295.168
297.085
298.841
300.428
301.843
303.087
304.166
305.093
305.871
306.49
306.921
307.177
307.296
307.39
307.393
307.285
307.084
306.906
306.813
306.838
306.919
307.016
306.975
306.698
306.304
305.94
305.904
306.102
306.68
306.138
304.184
298.536
287.977
272.256
253.046
236.761
231.972
236.058
217.666
234.198
229.172
187.681
171.758
194.303
222.326
220.157
222.315
181.86
116.383
43.8199
-28.9537
-78.542
-77.6216
-21.7353
94.7959
227.832
354.048
447.269
497.274
525.852
539.175
545.028
545.826
548.662
552.326
544.206
527.846
516.135
519.636
533.562
541.386
548.381
548.513
551.672
548.94
548.557
545.938
540.724
235.986
236.507
236.754
236.804
236.855
236.995
237.211
237.465
237.74
238.043
238.388
238.786
239.241
239.758
240.342
241.001
241.741
242.57
243.496
244.524
245.661
246.915
248.291
249.795
251.429
253.197
255.096
257.124
259.273
261.532
263.884
266.313
268.798
271.324
273.884
276.467
279.052
281.617
284.135
286.584
288.943
291.195
293.327
295.329
297.193
298.911
300.477
301.888
303.14
304.238
305.187
305.989
306.647
307.135
307.42
307.457
307.331
307.217
307.074
306.884
306.667
306.564
306.615
306.706
306.722
306.657
306.54
306.489
306.735
307.156
307.984
307.62
305.599
299.674
288.223
270.939
249.334
230.051
221.943
224.877
205.648
215.001
220.276
179.645
173.458
188.367
222.099
219.283
220.49
177.348
108.646
32.6001
-45.1136
-100.457
-105.406
-54.4719
61.1577
198.352
331.979
434.155
489.638
521.537
536.467
544.079
544.818
547.33
551.258
544.675
529.84
518.154
520.263
533.1
540.585
547.808
548.13
551.62
548.989
548.822
546.283
540.91
238.887
239.368
239.606
239.668
239.727
239.866
240.072
240.313
240.573
240.857
241.177
241.541
241.955
242.422
242.946
243.532
244.187
244.917
245.729
246.627
247.618
248.709
249.905
251.212
252.634
254.174
255.835
257.614
259.51
261.514
263.619
265.81
268.073
270.389
272.744
275.132
277.546
279.969
282.381
284.758
287.08
289.325
291.477
293.523
295.452
297.257
298.93
300.466
301.861
303.109
304.208
305.161
305.965
306.623
307.115
307.426
307.535
307.304
306.902
306.679
306.594
306.547
306.415
306.328
306.425
306.53
306.7
307.03
307.702
308.494
309.846
309.651
307.536
301.317
289.051
270.628
246.762
223.759
212.553
212.373
192.76
194.86
208.299
175.163
176.198
179.961
221.803
219.966
219.169