/*--------------------------------*- C++ -*----------------------------------*\
| =========                 |                                                 |
| \\      /  F ield         | OpenFOAM: The Open Source CFD Toolbox           |
|  \\    /   O peration     | Version:  2412                                  |
|   \\  /    A nd           | Website:  www.openfoam.com                      |
|    \\/     M anipulation  |                                                 |
\*---------------------------------------------------------------------------*/
FoamFile
{
    version     2.0;
    format      ascii;
    arch        "LSB;label=32;scalar=64";
    class       volVectorField;
    location    "0.69";
    object      ddtCorrDdt0(U);
}
// * * * * * * * * * * * * * * * * * * * * * * * * * * * * * * * * * * * * * //

dimensions      [0 1 -2 0 0 0 0];

internalField   nonuniform List<vector> 
12600
(
(-0.171855 1.65257e-22 0.0185416)
(-0.0641083 -3.27255e-22 -0.000495348)
(-0.0563806 4.93648e-23 0.000359305)
(-0.0429529 0 0.00420036)
(-0.0338892 -3.58661e-23 0.00521935)
(-0.030368 -2.83314e-23 0.00488645)
(-0.0285254 0 0.0041876)
(-0.0267584 0 0.00410257)
(-0.0249164 -4.41964e-22 0.00417025)
(-0.0230801 0 0.00423908)
(-0.0210797 2.80866e-22 0.00418948)
(-0.0188795 3.22361e-22 0.00400567)
(-0.0167403 -3.71437e-22 0.00376498)
(-0.0150047 0 0.00353911)
(-0.0137983 -4.54028e-22 0.00333788)
(-0.0129711 0 0.00313013)
(-0.0122693 2.00878e-21 0.00289124)
(-0.0115202 0 0.00262622)
(-0.0106885 -9.49263e-22 0.00236102)
(-0.00982942 -8.45998e-22 0.00212285)
(-0.00902141 7.13813e-22 0.00192769)
(-0.00831919 -1.30726e-23 0.00177778)
(-0.00772901 0 0.00166485)
(-0.00720156 -4.86122e-22 0.00157409)
(-0.00664637 0 0.0014876)
(-0.00596385 0 0.00138778)
(-0.00508069 4.21764e-22 0.00126067)
(-0.00396627 0 0.0010968)
(-0.0026244 3.94472e-23 0.000889651)
(-0.00107134 -8.74984e-22 0.00063372)
(0.00067348 -8.99073e-22 0.000326109)
(0.00258242 -8.44772e-22 -3.04845e-05)
(0.00460186 7.14127e-22 -0.000424063)
(0.00665144 1.03117e-21 -0.000835247)
(0.00863048 5.22506e-22 -0.00124031)
(0.0104482 3.63487e-23 -0.00161883)
(0.0120295 0 -0.00195424)
(0.013328 -1.29192e-21 -0.00223647)
(0.0142938 0 -0.00245461)
(0.014887 2.32476e-21 -0.00260082)
(0.0150469 0 -0.0026635)
(0.0147417 1.19584e-24 -0.00263831)
(0.0139301 0 -0.00251841)
(0.012631 5.82506e-24 -0.00230917)
(0.0108462 5.33982e-21 -0.00201033)
(0.00865258 -4.66702e-21 -0.00163623)
(0.00607771 3.75558e-21 -0.00118924)
(0.00324151 0 -0.00069064)
(0.000181386 0 -0.000144054)
(-0.00294053 3.21272e-22 0.000420915)
(-0.00609174 -1.81673e-21 0.00100106)
(-0.00908505 -4.08754e-21 0.00156087)
(-0.0119331 3.31849e-23 0.00210416)
(-0.0144542 -7.86861e-21 0.00259444)
(-0.0167335 0 0.00304716)
(-0.0185964 1.00453e-20 0.00342558)
(-0.0202084 1.04635e-20 0.00375901)
(-0.0214022 1.02647e-20 0.00401137)
(-0.0224203 0 0.00422607)
(-0.0230921 0 0.00436675)
(-0.0237189 0 0.00448944)
(-0.0241259 -1.20209e-20 0.00455899)
(-0.0246456 0 0.00464147)
(-0.0250986 0 0.00470246)
(-0.025768 6.33487e-21 0.00480446)
(-0.026479 0 0.00490988)
(-0.0273498 0 0.00505725)
(-0.0283128 0 0.00521701)
(-0.029199 3.93004e-21 0.00538872)
(-0.0302873 -2.65784e-20 0.00558462)
(-0.030928 5.70372e-21 0.00574542)
(-0.0320714 -2.6062e-23 0.00596314)
(-0.0322575 -3.35672e-20 0.00607556)
(-0.0335144 0 0.00630514)
(-0.0332702 8.55706e-20 0.00635052)
(-0.0350289 0 0.00663131)
(-0.0347777 0 0.00665471)
(-0.037605 0 0.00708739)
(-0.0379428 -5.79669e-22 0.0071884)
(-0.0421469 -6.84009e-19 0.00786877)
(-0.0433158 8.19897e-19 0.0081099)
(-0.0480359 9.2035e-19 0.00901026)
(-0.0498207 -1.03983e-18 0.009263)
(-0.0526984 0 0.0101753)
(-0.0553575 0 0.01021)
(-0.0539893 -2.14396e-18 0.0108933)
(-0.0601171 -3.40748e-18 0.0107268)
(-0.05274 -1.891e-18 0.0112429)
(-0.0652061 -3.43961e-19 0.0111702)
(-0.0513231 0 0.0114471)
(-0.0697053 9.59501e-18 0.0117076)
(-0.04713 7.94234e-18 0.0115726)
(-0.0723977 1.15895e-17 0.0113603)
(-0.0437529 3.07967e-17 0.011216)
(-0.075782 0 0.0111249)
(-0.0434191 0 0.0110504)
(-0.0818837 0 0.0123582)
(-0.0393791 0 0.0111905)
(-0.0828557 0 0.0125872)
(-0.0640221 0 0.0137674)
(-0.0166512 9.94497e-17 0.000569704)
(-0.063244 -2.18984e-16 0.012217)
(-0.325312 2.37981e-16 0.0561616)
(0.937856 0 -0.181321)
(-0.805911 0 0.172635)
(-2.183 0 0.388085)
(3.93369 2.31772e-16 -0.735914)
(-0.372674 -4.92064e-16 -0.00669285)
(-5.36488 -2.48391e-16 0.978502)
(7.7041 0 -1.51046)
(5.05215 3.04109e-16 -0.878457)
(-12.8454 0 2.47227)
(-4.76096 3.56445e-16 0.755681)
(10.3742 3.7027e-16 -2.00057)
(5.38312 3.0355e-16 -0.958619)
(-4.58724 -2.33652e-16 0.917419)
(-5.51088 -2.09291e-16 1.04221)
(-4.17655 2.73622e-20 0.771003)
(-1.52536 -1.72849e-16 0.280995)
(0.0928719 0 -0.0475609)
(-0.181164 -1.67188e-22 0.0423328)
(-0.141912 0 0.00052168)
(-0.125732 -5.00901e-23 -0.00281201)
(-0.103336 0 0.00698188)
(-0.0857393 3.63532e-23 0.0123274)
(-0.0761265 9.39026e-23 0.013212)
(-0.0696293 -3.36034e-23 0.0122322)
(-0.0639346 0 0.0118226)
(-0.0589621 6.62774e-24 0.0119445)
(-0.0544017 -2.24922e-22 0.012086)
(-0.0496893 2.51337e-22 0.0118318)
(-0.0445752 3.00286e-22 0.0112643)
(-0.0395306 -3.58012e-22 0.0107126)
(-0.0352584 4.12033e-22 0.0103305)
(-0.031989 9.17643e-22 0.0100062)
(-0.0293672 0 0.00955819)
(-0.0268724 3.47391e-24 0.00891656)
(-0.0242206 1.02266e-21 0.00814207)
(-0.0214416 9.62936e-22 0.00734591)
(-0.0187365 0 0.00662021)
(-0.0163241 0 0.00601573)
(-0.0143567 5.82018e-22 0.00554656)
(-0.0128816 0 0.00520009)
(-0.0118305 2.54836e-22 0.00494538)
(-0.0110441 -2.57743e-22 0.00474193)
(-0.0103317 0 0.00454942)
(-0.0095366 -3.14004e-22 0.00433568)
(-0.0085605 0 0.00407502)
(-0.00734209 7.8498e-22 0.00374238)
(-0.00582049 1.71164e-21 0.00331058)
(-0.00394061 1.76759e-21 0.00276086)
(-0.00168652 8.55135e-22 0.00209325)
(0.000869581 -7.22697e-22 0.0013354)
(0.00357862 -2.0358e-21 0.000531596)
(0.00624374 -1.02419e-21 -0.000267032)
(0.00870337 0 -0.00102343)
(0.0108345 0 -0.00170849)
(0.0125797 5.4635e-24 -0.00230692)
(0.0138577 0 -0.002793)
(0.0146085 -2.34687e-21 -0.00314895)
(0.0147102 0 -0.00334296)
(0.0141154 -5.84396e-21 -0.00336725)
(0.0127267 0 -0.00320034)
(0.0105884 -5.82621e-21 -0.00285733)
(0.00765286 0 -0.00232597)
(0.00405537 4.69941e-21 -0.00163941)
(-0.000244906 0 -0.000784336)
(-0.00503322 0 0.000188245)
(-0.0103533 -1.61908e-21 0.00129154)
(-0.0158782 0 0.00244899)
(-0.0216674 0 0.00367733)
(-0.0272954 0 0.00487931)
(-0.0329156 6.19776e-21 0.00609118)
(-0.0380493 1.57157e-20 0.00720362)
(-0.0429986 0 0.00828125)
(-0.0472298 0 0.00920346)
(-0.0512272 -1.05041e-20 0.0100707)
(-0.0544087 -1.02643e-20 0.0107546)
(-0.0574445 0 0.0113916)
(-0.0596856 0 0.0118451)
(-0.0619653 0 0.0122841)
(-0.0635915 0 0.0125736)
(-0.0655388 -9.1058e-21 0.0129106)
(-0.0671048 6.07595e-21 0.0131685)
(-0.0692642 -6.47479e-21 0.0135384)
(-0.0713093 0 0.0138986)
(-0.0739773 0 0.0143797)
(-0.0767005 0 0.014894)
(-0.0797538 -2.09591e-22 0.0154656)
(-0.0830943 2.6324e-20 0.0161232)
(-0.0862484 -5.64443e-21 0.0167277)
(-0.0901539 -9.3187e-20 0.017514)
(-0.0931093 -3.25488e-22 0.018074)
(-0.0975507 8.15716e-20 0.0189606)
(-0.100229 -8.43539e-20 0.0194223)
(-0.105551 0 0.0204513)
(-0.108331 0 0.0208595)
(-0.115086 0 0.022166)
(-0.118711 5.50191e-19 0.0226914)
(-0.127326 0 0.0244348)
(-0.132343 0 0.0252372)
(-0.141972 -9.00764e-19 0.0273811)
(-0.148164 1.01661e-18 0.02833)
(-0.156026 0 0.0304648)
(-0.163136 0 0.0312324)
(-0.166422 0 0.0328341)
(-0.176284 3.32046e-18 0.0334036)
(-0.173365 6.6455e-23 0.0344004)
(-0.187565 -3.3527e-19 0.0351102)
(-0.178887 -2.21179e-18 0.0355569)
(-0.195248 -9.30795e-18 0.0365062)
(-0.181 7.70297e-18 0.0364396)
(-0.198031 -2.24277e-17 0.0364045)
(-0.184217 0 0.0366824)
(-0.198548 0 0.0356909)
(-0.188528 0 0.0367998)
(-0.199128 0 0.0366572)
(-0.181858 6.58874e-17 0.0366256)
(-0.203056 0 0.0384117)
(-0.247507 0 0.0456181)
(0.000830428 9.54794e-17 -0.000708682)
(-0.270226 1.04908e-16 0.0537628)
(-0.81386 -4.55604e-16 0.144296)
(2.61314 -2.36911e-16 -0.508011)
(-2.48761 0 0.528448)
(-5.71725 0 0.994727)
(10.9966 0 -2.14784)
(-2.17122 2.34409e-16 0.614837)
(-14.1804 2.36395e-16 2.56841)
(22.1184 0 -4.50371)
(11.693 -5.7774e-16 -1.88547)
(-36.3173 3.20678e-16 7.20314)
(-10.2955 -6.76586e-16 1.52684)
(29.5458 0 -5.8938)
(13.0814 0 -2.25371)
(-13.9495 -2.21328e-16 2.89012)
(-15.741 0 3.01345)
(-11.6676 -1.78579e-16 2.16702)
(-4.0758 1.63399e-16 0.714334)
(0.679264 0 -0.182737)
(-0.174126 0 0.0269652)
(-0.165025 0 -0.0029299)
(-0.158453 -9.87992e-23 -0.00729725)
(-0.144383 0 0.00346151)
(-0.127868 0 0.0128744)
(-0.114517 -5.08078e-23 0.0165956)
(-0.103572 3.18864e-23 0.0166901)
(-0.0938417 0 0.0164146)
(-0.08533 -2.19845e-24 0.0169666)
(-0.0779407 2.13153e-22 0.0174114)
(-0.0709514 -4.67145e-22 0.0170114)
(-0.0637812 -2.84568e-22 0.0161983)
(-0.0568262 -4.01345e-24 0.0157423)
(-0.0509824 -3.90462e-22 0.0157918)
(-0.0465831 -4.331e-22 0.0158852)
(-0.0430968 4.75355e-22 0.0155543)
(-0.0397155 -9.68194e-22 0.0147062)
(-0.0359949 -9.69138e-22 0.0135461)
(-0.0319926 0 0.0123297)
(-0.028037 0 0.0112262)
(-0.0244778 7.48727e-22 0.0103154)
(-0.0215642 6.08438e-22 0.00962112)
(-0.0194055 0 0.00913152)
(-0.0179578 0 0.00880779)
(-0.0170498 2.44221e-22 0.00859834)
(-0.0164548 0 0.00845579)
(-0.0159781 5.32949e-22 0.00834572)
(-0.0154873 -4.57894e-22 0.00823499)
(-0.0148807 0 0.00807867)
(-0.0140383 -7.8205e-22 0.00782143)
(-0.0128406 -8.12117e-22 0.00742421)
(-0.011225 0 0.00688272)
(-0.00926104 6.40195e-22 0.00623537)
(-0.00712294 9.40118e-22 0.0055349)
(-0.005042 -1.83102e-23 0.00483152)
(-0.00318152 0 0.00414459)
(-0.00164965 0 0.00348753)
(-0.000465613 1.23075e-21 0.00286297)
(0.000294071 0 0.00230472)
(0.000579356 0 0.0018357)
(0.000233289 0 0.00150531)
(-0.000783385 0 0.00131951)
(-0.00260947 0 0.00131557)
(-0.00517108 0 0.00147098)
(-0.00857466 0 0.00182329)
(-0.0126421 -4.44424e-21 0.00233234)
(-0.0175082 3.62243e-21 0.00304852)
(-0.0228884 0 0.00390467)
(-0.028947 1.5318e-21 0.00495493)
(-0.0352306 0 0.00608924)
(-0.0419507 0 0.00737195)
(-0.0484936 3.66351e-21 0.00865602)
(-0.0552257 0 0.0100374)
(-0.061415 -7.40085e-21 0.0113368)
(-0.0676529 8.68737e-21 0.0126891)
(-0.0730718 0 0.0138819)
(-0.0785385 9.92868e-21 0.0151019)
(-0.083046 0 0.016109)
(-0.0877395 0 0.0171407)
(-0.0914379 0 0.0179313)
(-0.095542 1.42953e-20 0.0187671)
(-0.0987443 1.16073e-20 0.0193799)
(-0.102691 -8.70059e-23 0.0201012)
(-0.106016 -1.15657e-20 0.0206795)
(-0.110425 -9.5508e-23 0.021444)
(-0.114518 0 0.0221634)
(-0.119725 0 0.023087)
(-0.124831 1.14212e-20 0.0240458)
(-0.130683 -1.96576e-22 0.0251392)
(-0.136794 0 0.0263663)
(-0.143016 0 0.0275916)
(-0.150181 4.39328e-20 0.0290891)
(-0.156475 -2.71587e-22 0.0303609)
(-0.164712 1.09783e-22 0.0320781)
(-0.17098 0 0.0333161)
(-0.18065 0 0.0352308)
(-0.187187 -3.10926e-19 0.0364122)
(-0.198757 -4.24639e-19 0.0385567)
(-0.20625 0 0.0398223)
(-0.220047 0 0.0423156)
(-0.229068 0 0.0438996)
(-0.244088 0 0.0467403)
(-0.254329 0 0.048695)
(-0.26749 0 0.0514874)
(-0.278498 0 0.0536269)
(-0.286952 0 0.0558042)
(-0.300276 -3.12369e-18 0.0579277)
(-0.302696 8.6455e-19 0.0591966)
(-0.318933 3.15105e-19 0.0611278)
(-0.316443 2.07836e-18 0.0618423)
(-0.331691 8.75964e-18 0.0631459)
(-0.326409 -7.23534e-18 0.0642871)
(-0.336678 1.05365e-17 0.063659)
(-0.337652 0 0.0664701)
(-0.336095 0 0.0622346)
(-0.34769 0 0.0677701)
(-0.332504 0 0.0604322)
(-0.340011 -6.18133e-17 0.0673999)
(-0.340362 0 0.0645355)
(-0.439698 0 0.0824352)
(-0.00553493 -8.95241e-17 -0.00232164)
(-0.520462 0 0.117341)
(-1.22695 2.13562e-16 0.189725)
(4.03772 2.22013e-16 -0.758555)
(-4.32444 0 0.970324)
(-8.4221 0 1.29414)
(17.3838 0 -3.42219)
(-4.89616 2.19396e-16 1.3719)
(-21.0167 0 3.47757)
(35.6878 -2.02776e-16 -7.43326)
(15.2284 2.51185e-19 -1.684)
(-57.7403 -3.00121e-16 11.5361)
(-12.4237 6.33682e-16 0.916012)
(46.9264 0 -9.4456)
(17.8786 -2.68855e-16 -2.52684)
(-23.4315 2.07026e-16 5.08375)
(-25.2104 -1.85268e-16 4.76134)
(-18.3976 0 3.29019)
(-6.1141 -1.52784e-16 0.927155)
(1.37229 0 -0.374321)
(-0.169937 0 0.0171575)
(-0.16664 0 -3.4723e-05)
(-0.167366 9.34287e-23 -0.00531678)
(-0.163971 0 0.00251347)
(-0.154968 6.6806e-23 0.0120473)
(-0.144353 -4.39897e-23 0.0165117)
(-0.1335 0 0.0168932)
(-0.122356 -1.99731e-22 0.0172718)
(-0.111639 1.94748e-22 0.0190465)
(-0.102112 1.90356e-22 0.0205168)
(-0.0934373 2.16547e-22 0.0204417)
(-0.0847962 -2.71562e-22 0.0196673)
(-0.0763198 3.24679e-22 0.0196021)
(-0.0690672 -7.87723e-22 0.0204559)
(-0.0636882 0 0.0213168)
(-0.0596644 -9.1805e-22 0.0213297)
(-0.0558934 0 0.0203883)
(-0.0516522 0 0.0189203)
(-0.0469317 0 0.0173875)
(-0.0421522 8.56469e-22 0.0160488)
(-0.0377824 3.69907e-23 0.0149954)
(-0.0341538 3.74089e-23 0.0142387)
(-0.0314271 4.70643e-22 0.0137485)
(-0.0295908 0 0.0134637)
(-0.0284798 0 0.0133128)
(-0.0278454 0 0.0132404)
(-0.0274605 -3.79463e-22 0.0132153)
(-0.027167 5.97283e-23 0.0132046)
(-0.0268434 0 0.0131506)
(-0.0263406 0 0.0129777)
(-0.0255036 0 0.0126382)
(-0.0242419 0 0.012137)
(-0.022629 -1.20567e-21 0.0115339)
(-0.0208624 0 0.0108923)
(-0.0192028 4.61152e-22 0.0102556)
(-0.0178086 0 0.00961639)
(-0.0167698 0 0.00896685)
(-0.0160654 -1.01618e-21 0.00829684)
(-0.0157683 0 0.00765179)
(-0.0159163 0 0.00706252)
(-0.0166989 2.24811e-21 0.00659674)
(-0.0181378 -4.91073e-21 0.00625724)
(-0.0204075 0 0.00609615)
(-0.0233946 -4.98718e-21 0.00608268)
(-0.027263 0 0.00627996)
(-0.0317817 8.2913e-21 0.00663945)
(-0.0371783 -7.99691e-23 0.00724702)
(-0.0430834 0 0.00801514)
(-0.049785 0 0.00903654)
(-0.0566919 -3.80232e-22 0.0101641)
(-0.0641852 1.40478e-21 0.0115105)
(-0.0714566 -6.88134e-21 0.0128778)
(-0.0791149 0 0.0144252)
(-0.0861652 -6.85103e-21 0.0159028)
(-0.0935272 -8.20056e-21 0.0175216)
(-0.0999821 -8.85828e-21 0.0189763)
(-0.106826 -9.28064e-21 0.0205475)
(-0.112593 0 0.0218794)
(-0.118957 0 0.0233193)
(-0.124154 -1.56337e-20 0.0244652)
(-0.130218 -2.69633e-20 0.0257334)
(-0.135151 -1.09477e-20 0.0267121)
(-0.141351 -4.50087e-23 0.0278826)
(-0.146684 5.4956e-21 0.028849)
(-0.153676 3.0231e-21 0.0300949)
(-0.160105 0 0.0312491)
(-0.16821 0 0.0327031)
(-0.175992 -1.0763e-20 0.034168)
(-0.185005 -6.00599e-21 0.0358598)
(-0.194176 0 0.0376953)
(-0.203818 5.6259e-21 0.0396066)
(-0.214532 -4.13147e-20 0.0418269)
(-0.224504 2.99802e-20 0.0438673)
(-0.236854 -1.45008e-19 0.0464016)
(-0.247045 0 0.04848)
(-0.261437 0 0.0512582)
(-0.272058 2.92589e-19 0.0533148)
(-0.288904 7.99311e-19 0.0563043)
(-0.300565 -4.89641e-19 0.0584768)
(-0.320109 0 0.0617696)
(-0.333358 0 0.06435)
(-0.354421 0 0.0679489)
(-0.368845 0 0.0710667)
(-0.388063 0 0.0745877)
(-0.403089 0 0.0780638)
(-0.417568 1.84802e-18 0.0809857)
(-0.434548 1.69337e-21 0.084387)
(-0.443135 -8.07124e-19 0.0864379)
(-0.461795 0 0.0890661)
(-0.46616 1.96162e-18 0.0908765)
(-0.481014 -4.11526e-18 0.0918332)
(-0.485002 0 0.0952503)
(-0.489762 9.90446e-18 0.0924935)
(-0.505117 -2.62806e-17 0.0996597)
(-0.489366 0 0.0901535)
(-0.521749 0 0.102743)
(-0.482678 0 0.086052)
(-0.515035 -5.79994e-17 0.103297)
(-0.495983 0 0.0920956)
(-0.642728 0 0.120625)
(-0.0407599 -8.39443e-17 0.000638048)
(-0.81252 -9.22569e-17 0.194053)
(-1.57407 0 0.194421)
(5.17567 0 -0.940818)
(-6.21663 0 1.64595)
(-10.3102 0 1.35736)
(22.931 0 -4.56436)
(-8.3188 -3.77335e-19 2.48208)
(-25.79 0 3.84209)
(47.9119 1.89751e-16 -10.2721)
(15.8038 2.52701e-16 -0.609179)
(-76.5058 0 15.4942)
(-11.5643 1.05671e-19 -0.632365)
(62.1214 0 -12.7196)
(19.787 1.61056e-19 -2.03352)
(-32.7597 0 7.39898)
(-33.7518 1.73219e-16 6.32384)
(-24.2899 0 4.19826)
(-7.62864 -1.4288e-16 0.978692)
(2.15157 0 -0.605137)
(-0.168469 0 0.0148352)
(-0.165266 0 0.00544975)
(-0.167258 0 0.000127538)
(-0.168903 0 0.00482555)
(-0.166174 -6.30246e-23 0.0125578)
(-0.160674 3.6336e-23 0.0161626)
(-0.153592 0 0.0160011)
(-0.144873 1.88566e-22 0.0166401)
(-0.135132 0 0.0196835)
(-0.12566 -3.57157e-22 0.0226065)
(-0.116835 0 0.02327)
(-0.107886 2.56407e-22 0.022674)
(-0.0985594 0 0.0230347)
(-0.0899872 7.43774e-22 0.0248643)
(-0.0834209 -4.33845e-22 0.0267775)
(-0.078762 9.06041e-22 0.0273519)
(-0.0747686 -9.60022e-22 0.0263846)
(-0.0703269 -9.59882e-22 0.0245903)
(-0.0652026 0 0.022732)
(-0.059836 -8.08759e-22 0.0211979)
(-0.0548077 -7.03686e-22 0.0200785)
(-0.0505315 -1.19479e-21 0.0193465)
(-0.0472152 -4.44423e-22 0.0189346)
(-0.0448921 0 0.0187482)
(-0.0434318 0 0.0186867)
(-0.0425815 0 0.0186817)
(-0.0420779 1.48057e-22 0.0187075)
(-0.0417277 3.5247e-22 0.0187395)
(-0.0413973 0 0.0187159)
(-0.0409315 0 0.0185481)
(-0.0401609 -6.42136e-22 0.0181878)
(-0.0389716 0 0.0176592)
(-0.037434 -1.85188e-24 0.0170528)
(-0.0357626 8.84142e-22 0.016446)
(-0.0342534 -5.29847e-22 0.0158723)
(-0.0330728 0 0.0152905)
(-0.0323067 0 0.0146663)
(-0.0318993 9.59094e-22 0.013975)
(-0.0319238 0 0.0132752)
(-0.0324047 0 0.0126054)
(-0.0335676 -2.12146e-21 0.0120501)
(-0.0354139 4.63379e-21 0.0116041)
(-0.0381564 0 0.0113322)
(-0.0416338 4.70532e-21 0.011191)
(-0.0460703 0 0.0112695)
(-0.0511706 -3.86066e-21 0.0115067)
(-0.0572563 -3.15255e-21 0.0120243)
(-0.0638555 0 0.0127089)
(-0.0713847 -1.29089e-21 0.0136937)
(-0.0790955 3.58577e-22 0.0147902)
(-0.0875524 -2.6783e-21 0.0161664)
(-0.0957298 3.22663e-21 0.0175707)
(-0.104501 -4.98411e-21 0.0192365)
(-0.112577 5.85902e-23 0.0208402)
(-0.121239 0 0.022682)
(-0.128876 8.34929e-21 0.0243592)
(-0.137258 8.74649e-21 0.0262603)
(-0.144406 -8.53384e-21 0.0279042)
(-0.152585 8.13286e-21 0.0297623)
(-0.159376 1.47292e-20 0.0312826)
(-0.167533 1.26974e-20 0.0330267)
(-0.174284 -1.03147e-20 0.0344221)
(-0.182876 7.75782e-21 0.0361146)
(-0.190304 0 0.0375408)
(-0.200031 0 0.0393506)
(-0.208888 1.97756e-22 0.0410059)
(-0.220059 0 0.043056)
(-0.230624 0 0.0450696)
(-0.242997 2.7426e-21 0.0474011)
(-0.255373 0 0.0498697)
(-0.268675 -5.29314e-21 0.0524973)
(-0.283123 7.76367e-20 0.0554654)
(-0.29704 0 0.0583124)
(-0.313741 6.81898e-20 0.0617118)
(-0.328137 0 0.0646964)
(-0.347553 0 0.0684246)
(-0.362547 -2.75102e-19 0.071461)
(-0.385075 -3.75753e-19 0.075425)
(-0.401202 4.6449e-22 0.0786329)
(-0.42704 0 0.0828647)
(-0.44481 0 0.0865436)
(-0.472641 0 0.0909929)
(-0.491533 -8.45573e-19 0.0952959)
(-0.517735 -8.93463e-19 0.0995859)
(-0.53707 0 0.104362)
(-0.558657 -3.46633e-18 0.108095)
(-0.579583 1.37531e-18 0.112774)
(-0.595438 1.51105e-18 0.115807)
(-0.616884 2.88432e-19 0.119207)
(-0.629083 -3.68406e-18 0.122513)
(-0.644207 0 0.123076)
(-0.658123 0 0.129143)
(-0.658421 -9.28704e-18 0.124161)
(-0.688236 2.46384e-17 0.13609)
(-0.659767 3.13819e-17 0.121201)
(-0.712675 0 0.141511)
(-0.651564 0 0.115198)
(-0.709281 5.43419e-17 0.143904)
(-0.671799 -6.26243e-17 0.123308)
(-0.859405 0 0.159409)
(-0.110181 7.86158e-17 0.0104406)
(-1.1416 8.63885e-17 0.284769)
(-1.86456 0 0.162982)
(6.01621 0 -1.04158)
(-8.12779 0 2.30745)
(-11.4598 0 1.15861)
(27.5688 0 -5.5044)
(-12.1159 -1.91791e-16 4.44828)
(-28.6401 0 3.5906)
(58.3961 0 -12.8385)
(13.7748 0 1.44834)
(-92.1426 2.62195e-16 18.7977)
(-8.38686 -2.77333e-16 -3.01623)
(74.858 0 -15.57)
(18.9838 2.34906e-16 -0.642414)
(-41.6174 0 9.73476)
(-41.2598 1.61847e-16 7.61746)
(-29.3114 0 4.83441)
(-8.64281 1.33526e-16 0.842011)
(2.98929 0 -0.878498)
(-0.167906 -8.53296e-24 0.0140171)
(-0.164806 -2.26081e-23 0.00903953)
(-0.165395 1.12507e-23 0.00523071)
(-0.167536 -2.14587e-24 0.00817759)
(-0.167376 0 0.0139271)
(-0.165133 -2.70138e-23 0.0165837)
(-0.161682 0 0.0159635)
(-0.156708 1.86637e-22 0.0163844)
(-0.150046 1.7213e-22 0.0200128)
(-0.14268 3.31134e-22 0.024127)
(-0.135469 -1.90457e-22 0.0256018)
(-0.127887 2.50771e-22 0.0251122)
(-0.119169 0 0.0256497)
(-0.110107 0 0.0283973)
(-0.102522 4.09036e-22 0.0316359)
(-0.0971899 2.09099e-23 0.0331358)
(-0.0931482 -4.12828e-23 0.0323466)
(-0.08894 -3.94765e-23 0.0302544)
(-0.0839222 0 0.0280461)
(-0.0784016 0 0.0263269)
(-0.0730299 0 0.0251946)
(-0.0683082 1.19428e-21 0.024557)
(-0.0644917 4.84396e-22 0.024293)
(-0.0616711 0 0.0242692)
(-0.0597941 0 0.0243499)
(-0.0586487 1.94642e-22 0.0244424)
(-0.0579487 0 0.0245231)
(-0.0574547 0 0.0245823)
(-0.0570193 0 0.0245641)
(-0.0565004 0 0.0243722)
(-0.0557351 1.50804e-23 0.0239593)
(-0.0545827 0 0.0233716)
(-0.0530865 -7.29819e-24 0.0227356)
(-0.0514564 -8.33427e-22 0.0221478)
(-0.0500261 -6.10701e-23 0.0216329)
(-0.0489879 0 0.0211114)
(-0.048443 0 0.020519)
(-0.0483018 0 0.0198142)
(-0.048633 0 0.0190715)
(-0.0494372 0 0.0183376)
(-0.0509806 0 0.0177155)
(-0.0532433 0 0.0171882)
(-0.0564845 -4.07152e-21 0.016833)
(-0.0604877 -4.02769e-21 0.0165908)
(-0.0655446 0 0.0165783)
(-0.0712821 -3.32921e-21 0.0167182)
(-0.0781271 0 0.0171704)
(-0.0854874 0 0.0177894)
(-0.0939243 2.34438e-21 0.018753)
(-0.10251 0 0.0198251)
(-0.112017 1.27478e-21 0.0212362)
(-0.121173 0 0.0226753)
(-0.131148 9.37693e-21 0.0244598)
(-0.140324 3.65472e-23 0.0261851)
(-0.150381 0 0.0282527)
(-0.159271 0 0.0301526)
(-0.169289 0 0.0323944)
(-0.177881 1.59909e-20 0.0343588)
(-0.187971 -1.52406e-20 0.0366552)
(-0.196413 -1.3677e-20 0.0385667)
(-0.206766 -1.18184e-20 0.0408174)
(-0.215392 1.93542e-20 0.0426571)
(-0.226497 7.28169e-21 0.0449144)
(-0.236086 0 0.046837)
(-0.248683 0 0.0492594)
(-0.260043 2.81931e-23 0.0514531)
(-0.274439 0 0.0541453)
(-0.287888 0 0.0567415)
(-0.303826 2.36264e-21 0.0597565)
(-0.319555 0 0.0628929)
(-0.336769 0 0.0662817)
(-0.355156 -7.2731e-20 0.0700376)
(-0.373314 -2.66816e-20 0.0737404)
(-0.394643 0 0.0780569)
(-0.41357 0 0.0820045)
(-0.438371 0 0.0867513)
(-0.458097 2.58363e-19 0.0908366)
(-0.486787 0 0.0958692)
(-0.507764 8.61985e-19 0.100199)
(-0.540526 5.24929e-19 0.105492)
(-0.563204 0 0.110365)
(-0.59861 0 0.115803)
(-0.622354 7.93473e-19 0.12138)
(-0.656562 2.32331e-21 0.126585)
(-0.680602 8.51383e-19 0.132742)
(-0.710506 1.6242e-18 0.137435)
(-0.735786 1.28185e-18 0.143477)
(-0.760206 -7.06708e-19 0.147659)
(-0.784937 -2.70432e-19 0.151954)
(-0.806235 -2.39117e-21 0.156898)
(-0.822378 0 0.157282)
(-0.847214 -5.98224e-18 0.16615)
(-0.8442 0 0.159089)
(-0.888928 0 0.175848)
(-0.84939 -2.9399e-17 0.15575)
(-0.922976 0 0.183968)
(-0.841928 0 0.148182)
(-0.925757 0 0.189134)
(-0.87077 5.86359e-17 0.158861)
(-1.09349 0 0.200034)
(-0.2202 7.34941e-17 0.0291701)
(-1.50402 0 0.384976)
(-2.11136 0 0.10653)
(6.55424 0 -1.06035)
(-9.98552 0 2.88927)
(-11.9767 0 0.729919)
(31.223 1.69434e-16 -6.22767)
(-16.2494 -1.78754e-16 6.06831)
(-29.7692 -1.8146e-16 2.78791)
(66.8441 0 -15.059)
(9.5604 0 4.31281)
(-104.284 -4.89842e-16 21.3965)
(-3.69697 0 -6.15587)
(84.9195 2.67953e-16 -17.8465)
(15.687 0 1.52903)
(-49.6545 1.68893e-16 12.0306)
(-47.6687 -1.51244e-16 8.64922)
(-33.4387 0 5.21287)
(-9.1878 1.24681e-16 0.53181)
(3.8583 0 -1.18153)
(-0.166891 8.04923e-24 0.0135188)
(-0.164361 1.5129e-23 0.0110612)
(-0.163723 -1.0615e-23 0.00896523)
(-0.164851 1.59713e-23 0.0110038)
(-0.164902 3.79801e-23 0.0152378)
(-0.16352 0 0.0174284)
(-0.161667 0 0.0169525)
(-0.159202 -1.75757e-22 0.0172491)
(-0.155336 -3.09627e-22 0.0208011)
(-0.150327 -4.79265e-24 0.0254971)
(-0.145198 1.79344e-22 0.0276293)
(-0.139892 -2.36133e-22 0.0271355)
(-0.133252 3.12963e-22 0.0274225)
(-0.125165 0 0.0306629)
(-0.117382 0 0.0352456)
(-0.111607 -4.31369e-22 0.0380625)
(-0.107703 1.82177e-21 0.0378294)
(-0.104229 1.81624e-21 0.035599)
(-0.100072 0 0.0330536)
(-0.0951812 0 0.0311517)
(-0.0901435 0 0.0300504)
(-0.0855197 2.73751e-23 0.0295747)
(-0.0816008 -9.36915e-22 0.0295291)
(-0.078521 3.54352e-22 0.0297425)
(-0.0763381 4.5872e-22 0.0300431)
(-0.074952 -4.00614e-22 0.0302986)
(-0.0741022 -7.46542e-24 0.0304727)
(-0.0735057 -2.05828e-22 0.0305743)
(-0.072991 -3.67622e-22 0.0305669)
(-0.0724413 0 0.0303536)
(-0.0717274 5.55759e-22 0.0298855)
(-0.0706867 -5.64722e-22 0.0292255)
(-0.069309 5.11486e-22 0.0285392)
(-0.0677632 8.65653e-22 0.0279504)
(-0.0664148 1.11887e-21 0.0274826)
(-0.0655039 0 0.0270176)
(-0.0651782 0 0.0264568)
(-0.0653192 -5.38815e-22 0.0257374)
(-0.0659813 0 0.0249523)
(-0.0671216 1.25679e-21 0.0241584)
(-0.0690495 1.5265e-21 0.023481)
(-0.0717234 0 0.022889)
(-0.0754649 7.42668e-21 0.0224727)
(-0.0799924 3.79031e-21 0.0221528)
(-0.0856749 0 0.0220764)
(-0.0920451 3.13266e-21 0.022145)
(-0.0996529 2.3994e-21 0.02256)
(-0.107766 0 0.0231369)
(-0.117116 -2.0195e-21 0.0241026)
(-0.12657 1.48492e-22 0.0251656)
(-0.13714 -1.37098e-21 0.0266266)
(-0.147272 0 0.0281069)
(-0.158475 1.62587e-23 0.0300189)
(-0.168751 1.12503e-20 0.0318667)
(-0.180242 0 0.0341669)
(-0.190397 0 0.0362891)
(-0.202106 -7.52818e-21 0.0388803)
(-0.212163 -7.48282e-21 0.0411663)
(-0.224237 1.41923e-20 0.0439136)
(-0.234361 1.28567e-20 0.046222)
(-0.24701 1.11087e-20 0.0489999)
(-0.257563 -9.06948e-21 0.0512999)
(-0.27131 -1.36329e-20 0.0541554)
(-0.283132 0 0.056603)
(-0.298757 0 0.059682)
(-0.312713 -4.0715e-22 0.0624515)
(-0.330522 0 0.065836)
(-0.346986 0 0.0690596)
(-0.366725 -2.219e-21 0.0728137)
(-0.385994 0 0.0766714)
(-0.407406 -4.80413e-21 0.0808815)
(-0.429982 1.9017e-22 0.0854873)
(-0.452717 2.5049e-20 0.0901092)
(-0.478999 0 0.0954161)
(-0.502836 0 0.100394)
(-0.533442 0 0.106247)
(-0.558322 2.4051e-19 0.111458)
(-0.593723 0 0.117669)
(-0.62001 -4.03781e-19 0.123216)
(-0.660405 -9.82471e-19 0.129703)
(-0.688474 0 0.135883)
(-0.732355 0 0.142459)
(-0.761455 0 0.149432)
(-0.804799 3.48791e-21 0.15571)
(-0.834075 -7.98149e-19 0.163381)
(-0.873639 1.51052e-18 0.169185)
(-0.903832 -1.2014e-18 0.176737)
(-0.938286 -6.52243e-19 0.182213)
(-0.96697 0 0.18759)
(-0.998861 1.6217e-18 0.194337)
(-1.01695 0 0.194796)
(-1.054 5.60335e-18 0.206537)
(-1.04897 0 0.197785)
(-1.10942 0 0.21946)
(-1.06074 0 0.194326)
(-1.15556 -3.3743e-17 0.230733)
(-1.05703 4.02179e-17 0.185627)
(-1.168 0 0.239728)
(-1.09666 -5.47306e-17 0.199557)
(-1.35014 -6.15393e-17 0.2433)
(-0.377699 -6.87666e-17 0.0586199)
(-1.89643 -7.5431e-17 0.495379)
(-2.33466 0 0.0239474)
(6.80285 0 -0.996758)
(-11.688 0 3.51899)
(-12.0052 0 0.0979526)
(33.9005 -1.58436e-16 -6.7135)
(-20.3375 2.46251e-19 7.86065)
(-29.5383 3.39149e-16 1.49089)
(73.1025 0 -16.8452)
(3.6888 0 7.88837)
(-112.786 2.28724e-16 23.1741)
(1.71079 0 -9.83706)
(92.1314 -2.50402e-16 -19.483)
(10.2165 0 4.4412)
(-56.5496 -3.15373e-16 14.1666)
(-52.9761 0 9.40363)
(-36.6838 0 5.32231)
(-9.30798 -1.16472e-16 0.055074)
(4.72895 0 -1.5095)
(-0.165131 0 0.0133292)
(-0.163255 5.80424e-24 0.0122291)
(-0.162199 0 0.0112665)
(-0.162386 -1.31386e-23 0.0128081)
(-0.161953 -6.82074e-23 0.0160821)
(-0.160334 0 0.0182579)
(-0.158527 6.36036e-23 0.0184158)
(-0.156863 0 0.0189072)
(-0.154405 1.81904e-23 0.0221086)
(-0.150757 -2.75461e-22 0.0268281)
(-0.14685 0 0.0294728)
(-0.143262 0 0.0291121)
(-0.138987 -2.94371e-22 0.0289327)
(-0.132932 0 0.0320443)
(-0.12594 0 0.0375429)
(-0.120062 0 0.0417983)
(-0.11624 -8.75271e-22 0.0425333)
(-0.113628 -8.71759e-22 0.0404684)
(-0.110894 -8.69636e-22 0.0376711)
(-0.107474 0 0.0355704)
(-0.103652 0 0.0344965)
(-0.0999392 -5.69048e-22 0.0342086)
(-0.0966213 4.52205e-22 0.0344149)
(-0.0938177 -3.33286e-22 0.0349104)
(-0.0916699 -4.31452e-22 0.0355004)
(-0.0902479 4.30291e-22 0.0359986)
(-0.0894057 1.55802e-23 0.0363281)
(-0.0888543 1.93571e-22 0.0365077)
(-0.0883867 3.45735e-22 0.0365349)
(-0.0879047 0 0.036325)
(-0.0873407 0 0.0358227)
(-0.0865366 5.31078e-22 0.035095)
(-0.0854151 0 0.0343437)
(-0.0840567 -8.14042e-22 0.0337311)
(-0.0828335 -5.55943e-22 0.0332954)
(-0.0820496 3.11547e-22 0.0328839)
(-0.0819442 0 0.0323582)
(-0.0823888 5.06639e-22 0.031625)
(-0.0834193 7.57326e-22 0.0307953)
(-0.0849187 -1.1472e-22 0.0299397)
(-0.0872376 -2.75314e-21 0.0292126)
(-0.0903106 0 0.0285678)
(-0.0945452 -3.37958e-21 0.0281099)
(-0.0995842 0 0.0277331)
(-0.105887 0 0.027618)
(-0.112868 0 0.0276392)
(-0.121226 -1.59812e-22 0.0280455)
(-0.130064 0 0.0286049)
(-0.140321 9.00175e-22 0.0296002)
(-0.150619 -1.91444e-22 0.0306739)
(-0.162257 1.28833e-21 0.0322075)
(-0.173348 0 0.0337422)
(-0.185796 -4.15456e-21 0.0357999)
(-0.197165 -1.05583e-20 0.0377787)
(-0.210125 0 0.0403276)
(-0.221545 0 0.0426783)
(-0.235 7.07161e-21 0.0456346)
(-0.246533 6.89056e-21 0.0482478)
(-0.260669 -6.63094e-21 0.0514634)
(-0.272506 -1.18246e-20 0.0541767)
(-0.28756 0 0.0575054)
(-0.300097 0 0.0602821)
(-0.316629 7.16107e-23 0.0637699)
(-0.330765 -4.27792e-21 0.0667704)
(-0.349589 0 0.0705498)
(-0.366246 1.93301e-22 0.0739333)
(-0.387678 0 0.0780623)
(-0.407309 0 0.0819634)
(-0.431107 0 0.0865175)
(-0.454127 0 0.0911598)
(-0.48005 7.05717e-23 0.0962582)
(-0.507096 2.42173e-22 0.101789)
(-0.534771 -2.31375e-20 0.107401)
(-0.566373 0 0.113786)
(-0.595529 -5.78567e-20 0.119868)
(-0.632418 0 0.126928)
(-0.662917 -2.25526e-19 0.133348)
(-0.705649 -3.05454e-19 0.140858)
(-0.737771 -3.74035e-19 0.147723)
(-0.786587 4.59389e-19 0.15555)
(-0.820619 0 0.163161)
(-0.873967 -6.10269e-19 0.17104)
(-0.909049 0 0.179559)
(-0.962765 7.31155e-19 0.187087)
(-0.997967 -7.39754e-19 0.196449)
(-1.04865 -1.41506e-18 0.20354)
(-1.08451 0 0.212802)
(-1.13063 1.21517e-18 0.219736)
(-1.16416 0 0.226436)
(-1.20836 1.51917e-18 0.235152)
(-1.22956 0 0.23599)
(-1.28038 5.22628e-18 0.250818)
(-1.27493 0 0.240611)
(-1.35232 2.01217e-17 0.267298)
(-1.2967 2.5619e-17 0.237637)
(-1.41383 3.15767e-17 0.282428)
(-1.30065 -3.7632e-17 0.228269)
(-1.44022 0 0.296404)
(-1.354 1.0227e-16 0.246085)
(-1.63553 1.14986e-16 0.290693)
(-0.589831 0 0.100378)
(-2.31737 7.05461e-17 0.613791)
(-2.55599 0 -0.0730519)
(6.78755 0 -0.855048)
(-13.1853 1.56916e-16 4.13891)
(-11.7095 0 -0.700311)
(35.6208 0 -6.95909)
(-24.1716 1.55997e-16 9.49161)
(-28.3534 -3.16619e-16 -0.209033)
(77.1475 1.44313e-16 -18.1534)
(-3.25183 0 12.0089)
(-117.742 0 24.1221)
(7.11882 0 -13.8746)
(96.3831 0 -20.4167)
(2.96854 -1.90352e-16 7.9881)
(-62.0446 1.47196e-16 16.0762)
(-57.2246 0 9.89032)
(-39.0906 0 5.17418)
(-9.05565 0 -0.57682)
(5.57318 0 -1.85314)
(-0.162865 -9.44419e-23 0.0132034)
(-0.161484 0 0.0127804)
(-0.160465 -3.77173e-23 0.0124751)
(-0.160045 0 0.0138323)
(-0.159196 3.05248e-23 0.0165885)
(-0.15729 0 0.018918)
(-0.155091 -5.97819e-23 0.0198492)
(-0.153255 9.02909e-23 0.0207272)
(-0.151112 2.10223e-22 0.0235583)
(-0.147904 4.74648e-24 0.0279342)
(-0.14422 0 0.0309757)
(-0.141145 0 0.031098)
(-0.13834 0 0.0306788)
(-0.134283 0 0.0332469)
(-0.128583 0 0.0389513)
(-0.122812 0 0.044327)