/*--------------------------------*- C++ -*----------------------------------*\
| =========                 |                                                 |
| \\      /  F ield         | OpenFOAM: The Open Source CFD Toolbox           |
|  \\    /   O peration     | Version:  2412                                  |
|   \\  /    A nd           | Website:  www.openfoam.com                      |
|    \\/     M anipulation  |                                                 |
\*---------------------------------------------------------------------------*/
FoamFile
{
    version     2.0;
    format      ascii;
    arch        "LSB;label=32;scalar=64";
    class       volScalarField;
    location    "0.275";
    object      Co;
}
// * * * * * * * * * * * * * * * * * * * * * * * * * * * * * * * * * * * * * //

dimensions      [0 0 0 0 0 0 0];

internalField   nonuniform List<scalar> 
12600
(
0.314908
0.176782
0.100135
0.0630154
0.0450282
0.0351002
0.0286962
0.0241114
0.0206344
0.017896
0.0156794
0.0138475
0.0123091
0.011
0.00987427
0.00889744
0.00804343
0.00729196
0.00662704
0.00603584
0.00550796
0.00503485
0.00460942
0.00422573
0.00387875
0.00356424
0.00327852
0.00301846
0.00278132
0.00256474
0.00236662
0.00218515
0.00201871
0.00186589
0.00172541
0.00159615
0.0014771
0.00136736
0.00126611
0.00117263
0.00108627
0.00100642
0.000932556
0.00086418
0.000800854
0.000742173
0.000687771
0.000637312
0.000590492
0.000547029
0.00050667
0.000469179
0.000434341
0.000401958
0.000371847
0.000343841
0.000317784
0.000293539
0.000270972
0.000249968
0.000230412
0.000212212
0.00019527
0.00017951
0.000164862
0.00015126
0.000138668
0.000127015
0.000116295
0.000106413
9.73633e-05
8.90241e-05
8.1344e-05
7.41813e-05
6.73922e-05
6.08642e-05
5.44795e-05
4.83111e-05
4.26243e-05
3.77863e-05
3.41726e-05
3.13177e-05
2.84906e-05
2.49238e-05
2.06978e-05
1.69555e-05
1.45052e-05
1.35512e-05
1.28297e-05
1.15767e-05
9.2793e-06
6.76084e-06
5.26504e-06
7.19081e-06
1.02268e-05
1.32799e-05
1.57091e-05
1.76633e-05
1.93601e-05
2.12813e-05
2.35272e-05
2.6558e-05
2.96519e-05
3.19272e-05
3.22475e-05
3.06356e-05
2.8797e-05
2.56641e-05
2.22775e-05
1.99222e-05
2.17758e-05
2.49641e-05
3.08397e-05
3.61036e-05
4.29875e-05
4.78035e-05
5.34032e-05
5.6837e-05
6.25939e-05
6.90159e-05
0.478039
0.376689
0.276573
0.202664
0.153301
0.120686
0.098353
0.0822418
0.0700636
0.0605219
0.0528393
0.0465218
0.0412394
0.0367628
0.0329268
0.0296094
0.0267178
0.0241805
0.0219413
0.019955
0.0181854
0.0166027
0.0151823
0.0139035
0.012749
0.0117042
0.0107565
0.00989516
0.00911077
0.00839526
0.00774156
0.00714347
0.00659553
0.00609293
0.00563139
0.0052071
0.00481668
0.00445709
0.00412562
0.00381983
0.00353751
0.00327669
0.00303556
0.0028125
0.00260604
0.00241484
0.00223767
0.00207344
0.00192112
0.0017798
0.00164862
0.00152681
0.00141367
0.00130855
0.00121083
0.00111999
0.0010355
0.00095691
0.00088379
0.000815763
0.000752453
0.000693552
0.000638746
0.000587772
0.000540405
0.000496401
0.000455657
0.000417901
0.000383138
0.000351021
0.000321582
0.000294408
0.00026941
0.000246153
0.000224253
0.000203346
0.000183043
0.000163355
0.000144992
0.000128916
0.000116738
0.000107253
9.84804e-05
8.76259e-05
7.43879e-05
6.20835e-05
5.35643e-05
4.98755e-05
4.76125e-05
4.42261e-05
3.74638e-05
2.95447e-05
2.55791e-05
3.32611e-05
4.32765e-05
5.19697e-05
5.8559e-05
6.3758e-05
6.88232e-05
7.4773e-05
8.21318e-05
9.16248e-05
0.000100458
0.000105391
0.000103798
9.6646e-05
9.19563e-05
8.36019e-05
7.41687e-05
7.07945e-05
8.04761e-05
9.29087e-05
0.000113175
0.00012922
0.000150561
0.0001632
0.000179759
0.000187853
0.000206378
0.000224409
0.512522
0.468736
0.39746
0.325644
0.264727
0.216663
0.179773
0.151445
0.129355
0.111787
0.0975423
0.0857927
0.0759581
0.0676243
0.0604881
0.0543231
0.0489564
0.0442537
0.0401093
0.0364384
0.0331726
0.0302558
0.0276415
0.025291
0.0231717
0.0212561
0.0195205
0.0179448
0.0165114
0.0152053
0.0140132
0.0129235
0.0119261
0.0110121
0.0101734
0.00940305
0.00869474
0.00804286
0.00744237
0.00688879
0.00637803
0.00590646
0.00547076
0.00506795
0.00469532
0.00435041
0.00403099
0.00373501
0.00346064
0.00320618
0.00297009
0.00275095
0.00254748
0.00235848
0.00218288
0.00201967
0.00186794
0.00172685
0.00159562
0.00147357
0.00136002
0.0012544
0.00115615
0.00106478
0.000979867
0.000900945
0.000827839
0.000760006
0.000697511
0.000639666
0.000586646
0.000537652
0.000492716
0.000451025
0.000412061
0.00037505
0.000339223
0.000304117
0.000270793
0.000240832
0.000218184
0.000201166
0.000186672
0.00016844
0.000144905
0.000121738
0.000104975
9.72996e-05
9.41922e-05
8.95978e-05
7.83164e-05
6.37046e-05
5.85728e-05
7.51078e-05
9.37279e-05
0.000107474
0.000117374
0.000124862
0.000133445
0.000143756
0.000157332
0.000173888
0.000187893
0.000192618
0.000185424
0.000169303
0.000162865
0.000150177
0.000134206
0.000137278
0.000160871
0.00018629
0.000225032
0.000251984
0.000289199
0.000306929
0.000334689
0.00034421
0.00037837
0.000407817
0.504449
0.491199
0.453305
0.402925
0.350535
0.301848
0.259325
0.223406
0.193498
0.168658
0.147945
0.130545
0.115807
0.103218
0.0923806
0.0829836
0.0747834
0.0675864
0.0612374
0.0556109
0.050604
0.0461322
0.042125
0.0385232
0.0352771
0.0323444
0.0296887
0.0272789
0.0250882
0.0230931
0.0212734
0.019611
0.0180904
0.0166977
0.0154205
0.0142482
0.0131708
0.0121799
0.0112677
0.0104271
0.00965198
0.0089367
0.00827616
0.00766579
0.00710141
0.00657925
0.00609589
0.00564821
0.00523336
0.00484876
0.00449206
0.00416109
0.00385388
0.00356863
0.00330367
0.00305748
0.00282867
0.00261597
0.00241819
0.00223429
0.00206325
0.00190419
0.00175625
0.00161867
0.00149082
0.00137194
0.00126177
0.00115945
0.00106513
0.000977704
0.00089757
0.000823462
0.000755667
0.000692892
0.000634595
0.00057939
0.000526079
0.000473338
0.000422593
0.000376139
0.000341185
0.000315637
0.000295266
0.000269012
0.000233628
0.000197353
0.000170433
0.000157288
0.000154237
0.000148862
0.000132594
0.000109837
0.000106678
0.000134416
0.000162663
0.000180581
0.000193019
0.000201898
0.000214231
0.000229087
0.000249741
0.000273327
0.000291464
0.00029302
0.000277155
0.000249589
0.000241187
0.000224527
0.000204307
0.000222464
0.000265225
0.000306473
0.000366668
0.000404158
0.000457943
0.000478074
0.000517028
0.00052503
0.000576717
0.000617406
0.488255
0.483455
0.465264
0.435382
0.398758
0.359693
0.321281
0.285425
0.253045
0.224387
0.199308
0.177471
0.158477
0.141933
0.127482
0.114815
0.10367
0.093826
0.0851003
0.0773386
0.0704119
0.0642116
0.0586459
0.053637
0.0491183
0.0450328
0.0413315
0.0379718
0.0349169
0.0321346
0.0295967
0.0272786
0.0251584
0.0232168
0.0214369
0.0198033
0.0183027
0.0169227
0.0156528
0.014483
0.0134046
0.0124099
0.0114916
0.0106433
0.00985918
0.00913398
0.00846288
0.00784151
0.0072659
0.00673241
0.00623776
0.00577892
0.00535314
0.00495788
0.00459083
0.00424987
0.00393305
0.0036386
0.00336487
0.0031104
0.00287377
0.00265375
0.00244915
0.00225887
0.00208205
0.00191757
0.00176511
0.00162341
0.00149271
0.00137143
0.00126026
0.00115738
0.00106344
0.000976566
0.000896286
0.000820395
0.000747257
0.000674354
0.000603581
0.000538031
0.000488919
0.00045364
0.00042677
0.000391347
0.000342357
0.000290816
0.000252045
0.00023248
0.000229606
0.000223389
0.000201304
0.00016884
0.000172432
0.000212973
0.000251302
0.00027226
0.000286486
0.000295889
0.000312183
0.000331595
0.000359843
0.000389865
0.000410701
0.000406207
0.000379247
0.00033872
0.000326379
0.000305653
0.000292191
0.000328872
0.000395157
0.000454117
0.000537782
0.000584901
0.000655506
0.000675331
0.000725392
0.000729162
0.000799269
0.000850946
0.474059
0.468377
0.457442
0.439542
0.415791
0.388063
0.358249
0.327984
0.298494
0.270588
0.244728
0.221111
0.199752
0.180554
0.163359
0.147983
0.134237
0.121941
0.110929
0.101053
0.0921793
0.0841929
0.0769917
0.070487
0.0646012
0.0592664
0.0544232
0.0500197
0.0460101
0.0423542
0.0390164
0.0359654
0.0331732
0.0306152
0.0282692
0.0261157
0.0241369
0.0223172
0.0206423
0.0190996
0.0176775
0.0163657
0.0151548
0.0140364
0.0130028
0.0120469
0.0111625
0.0103437
0.00958542
0.00888271
0.00823127
0.00762707
0.00706651
0.00654621
0.00606312
0.00561442
0.00519756
0.00481019
0.00445012
0.00411543
0.00380425
0.00351493
0.00324593
0.00299573
0.00276322
0.0025469
0.00234633
0.0021598
0.00198767
0.00182782
0.00168126
0.00154554
0.00142178
0.00130739
0.00120206
0.00110256
0.00100686
0.000910954
0.000817393
0.000730111
0.000664896
0.000618404
0.000583909
0.000537712
0.000473194
0.000404317
0.000352163
0.000325634
0.000322234
0.000314642
0.000285576
0.000241772
0.000258282
0.000312458
0.000360783
0.000383427
0.000398687
0.00040772
0.000428108
0.000451845
0.00048782
0.000523174
0.000545032
0.000531852
0.000492107
0.000437998
0.000417676
0.000392398
0.000401493
0.000458049
0.000551188
0.000628794
0.000737094
0.000792513
0.000879872
0.000896803
0.000957797
0.000954984
0.00104333
0.00110556
0.462767
0.454431
0.444582
0.431509
0.414936
0.395305
0.373347
0.349907
0.325803
0.301733
0.278254
0.255767
0.234542
0.214731
0.1964
0.179544
0.164117
0.150042
0.137227
0.125572
0.114979
0.105351
0.0965988
0.0886379
0.0813921
0.074792
0.0687749
0.0632843
0.0582695
0.053685
0.0494902
0.0456484
0.0421268
0.038896
0.0359296
0.0332037
0.0306969
0.02839
0.0262654
0.0243074
0.0225018
0.0208357
0.0192974
0.0178762
0.0165624
0.0153474
0.0142232
0.0131823
0.0122182
0.0113247
0.0104965
0.00972831
0.00901561
0.00835411
0.00773994
0.00716951
0.00663956
0.00614709
0.00568938
0.0052639
0.00486835
0.00450057
0.00415863
0.00384056
0.00354498
0.0032699
0.0030148
0.00277742
0.00255831
0.00235466
0.0021679
0.00199483
0.00183713
0.00169135
0.00155746
0.00143099
0.00130958
0.00118751
0.00106823
0.000956498
0.000873065
0.000813515
0.000769745
0.000710748
0.000628643
0.000540431
0.000473453
0.000439049
0.000434242
0.00042428
0.000386765
0.000329961
0.000366632
0.000434507
0.000492251
0.000515005
0.000530509
0.000538174
0.000562632
0.00059015
0.000633587
0.00067273
0.000693843
0.000669695
0.000616223
0.000548647
0.000514117
0.000493598
0.000531451
0.000610422
0.000732663
0.00082898
0.000962318
0.00102445
0.00112826
0.00113998
0.00121159
0.00120033
0.00130563
0.00137766
0.453435
0.443033
0.432428
0.420568
0.406988
0.391644
0.374717
0.356514
0.337407
0.31778
0.297994
0.278371
0.259183
0.240647
0.222926
0.206133
0.190334
0.175562
0.161817
0.149077
0.137303
0.126447
0.116454
0.107266
0.0988251
0.0910738
0.0839573
0.0774239
0.071425
0.0659156
0.0608541
0.0562023
0.0519252
0.0479908
0.0443698
0.0410356
0.0379639
0.0351327
0.0325217
0.0301126
0.0278887
0.0258347
0.0239367
0.022182
0.0205591
0.0190573
0.0176671
0.0163794
0.0151864
0.0140804
0.0130549
0.0121036
0.0112208
0.0104012
0.00964019
0.00893324
0.00827636
0.00766587
0.00709839
0.00657081
0.00608028
0.00562413
0.00519999
0.0048054
0.00443867
0.00409728
0.00378062
0.00348583
0.00321362
0.00296045
0.0027282
0.00251281
0.00231658
0.00213509
0.00196862
0.00181134
0.00166066
0.00150896
0.00136086
0.00122181
0.00111779
0.00104291
0.000987677
0.000913474
0.000811596
0.000702094
0.000618857
0.00057535
0.000567897
0.000554137
0.000506422
0.000434951
0.00049975
0.000580638
0.000646779
0.000667845
0.000682713
0.000687812
0.000716091
0.000746467
0.000796715
0.000837763
0.000856421
0.000819446
0.000752001
0.000671592
0.000624686
0.000619258
0.000682163
0.000785013
0.000937502
0.00105184
0.00120996
0.00127715
0.00139694
0.00140157
0.00148327
0.00146228
0.00158217
0.00166277
0.445375
0.433648
0.422132
0.410242
0.397616
0.384118
0.369763
0.354646
0.338912
0.322726
0.306259
0.28968
0.273154
0.256831
0.240847
0.22532
0.210348
0.19601
0.18236
0.169435
0.157255
0.145822
0.135127
0.125151
0.115867
0.107243
0.0992454
0.0918362
0.0849788
0.0786364
0.0727731
0.0673546
0.062348
0.0577225
0.0534491
0.0495007
0.0458521
0.0424799
0.0393626
0.0364803
0.0338144
0.031348
0.0290655
0.0269526
0.024996
0.0231836
0.0215041
0.0199473
0.0185038
0.0171648
0.0159224
0.0147692
0.0136985
0.0127041
0.0117804
0.0109219
0.0101239
0.00938207
0.00869224
0.00805072
0.00745407
0.00689907
0.00638291
0.00590254
0.00545601
0.00504019
0.00465441
0.0042951
0.00396318
0.00365429
0.00337077
0.00310762
0.0028678
0.00264578
0.00244225
0.00224986
0.00206592
0.0018808
0.00170057
0.00153115
0.00140385
0.00131089
0.00124148
0.00114932
0.00102536
0.000892612
0.000791603
0.000737478
0.000725664
0.00070626
0.000646353
0.000569807
0.00065976
0.00075225
0.000825358
0.000842697
0.000855893
0.000856938
0.000888473
0.00092035
0.000976409
0.00101724
0.00103191
0.000980682
0.00089958
0.00080721
0.000757785
0.000765856
0.00085222
0.000979305
0.00116212
0.00129321
0.00147528
0.00154596
0.00168112
0.00167738
0.00176834
0.001737
0.0018682
0.00195555
0.438248
0.425671
0.413455
0.401263
0.388844
0.376061
0.362879
0.349332
0.335486
0.321419
0.307213
0.292942
0.278683
0.264507
0.250483
0.23668
0.223164
0.209995
0.19723
0.184917
0.173097
0.161802
0.151053
0.140862
0.131233
0.122164
0.113644
0.105658
0.0981884
0.091213
0.0847085
0.0786501
0.0730128
0.0677714
0.0629014
0.0583786
0.05418
0.0502834
0.0466679
0.0433136
0.0402019
0.0373153
0.0346374
0.032153
0.0298478
0.0277086
0.0257232
0.0238802
0.022169
0.0205798
0.0191037
0.0177322
0.0164577
0.0152731
0.0141717
0.0131474
0.0121947
0.0113084
0.0104838
0.00971642
0.0090024
0.00833786
0.00771954
0.00714383
0.00660847
0.0061097
0.0056468
0.00521544
0.00481679
0.00444555
0.00410457
0.00378781
0.00349889
0.00323108
0.00298553
0.00275326
0.00253169
0.00230907
0.00209317
0.00189009
0.00173645
0.00162215
0.00153531
0.00142212
0.00127363
0.00111564
0.000995176
0.000928565
0.000910193
0.000882915
0.000808569
0.000741686
0.000848606
0.000950581
0.00102885
0.00104016
0.00105042
0.00104553
0.00107936
0.00111091
0.00117146
0.00120983
0.00121922
0.0011527
0.00105862
0.00095508
0.000908576
0.000927679
0.00103855
0.00118915
0.00140137
0.00154754
0.00175223
0.00182515
0.00197492
0.00196226
0.00206131
0.00201961
0.00215816
0.00224978
0.431875
0.418727
0.40601
0.393518
0.381079
0.368569
0.355934
0.343174
0.330322
0.317428
0.304545
0.291717
0.278983
0.266377
0.253926
0.241656
0.229592
0.21776
0.206186
0.194899
0.183927
0.173299
0.163039
0.153169
0.143708
0.134669
0.12606
0.117886
0.110145
0.102832
0.0959395
0.089456
0.0833679
0.0776599
0.0723155
0.0673174
0.0626479
0.058289
0.0542231
0.0504328
0.0469012
0.043612
0.0405496
0.0376991
0.0350463
0.0325779
0.0302813
0.0281446
0.0261567
0.024307
0.0225861
0.0209846
0.0194943
0.0181071
0.0168159
0.0156137
0.0144943
0.0134518
0.012481
0.0115768
0.0107347
0.00995031
0.00921995
0.0085394
0.00790618
0.00731584
0.00676768
0.00625654
0.0057839
0.0053434
0.0049385
0.00456192
0.00421806
0.00389881
0.00360588
0.00332858
0.00306463
0.00280016
0.00254486
0.00230458
0.00212112
0.00198169
0.00187368
0.0017361
0.00156048
0.00137513
0.00123329
0.00115195
0.00112434
0.00108659
0.000995352
0.000946617
0.00106797
0.00117668
0.00125796
0.00126064
0.00126639
0.0012532
0.00128788
0.00131676
0.00138023
0.00141384
0.00141692
0.00133433
0.00122806
0.00111377
0.00107143
0.00110126
0.00123636
0.00140885
0.0016487
0.00180813
0.00203366
0.002108
0.00227145
0.00225012
0.00235577
0.00230421
0.00244576
0.00253853
0.426126
0.412579
0.399506
0.386769
0.374249
0.361844
0.34949
0.337164
0.324874
0.312649
0.300525
0.288539
0.27672
0.265095
0.25368
0.242486
0.231519
0.220783
0.210281
0.200017
0.189998
0.180233
0.170732
0.161508
0.152574
0.143943
0.135626
0.127635
0.119977
0.112658
0.105681
0.0990451
0.0927492
0.086788
0.0811547
0.0758407
0.0708358
0.066129
0.0617081
0.0575605
0.0536733
0.0500332
0.0466273
0.0434425
0.0404662
0.0376862
0.0350905
0.0326677
0.0304069
0.0282976
0.0263302
0.0244952
0.0227839
0.0211879
0.0196996
0.0183116
0.0170171
0.0158098
0.0146838
0.0136337
0.0126545
0.0117412
0.01089
0.0100959
0.00935638
0.00866628
0.008025
0.0074265
0.00687267
0.00635601
0.00588064
0.00543796
0.00503311
0.00465656
0.0043106
0.00398283
0.0036715
0.00336061
0.00306199
0.00278073
0.00256359
0.00239477
0.00226139
0.0020958
0.00189023
0.00167526
0.00150983
0.00141111
0.00137111
0.00131998
0.00120917
0.00118565
0.00131926
0.00143136
0.00151317
0.0015043
0.00150362
0.00147922
0.00151273
0.00153604
0.0016006
0.00162715
0.00162312
0.00152383
0.001406
0.00128072
0.00124262
0.00128161
0.00143933
0.00163141
0.0018964
0.00206738
0.00231159
0.00238707
0.00256312
0.00253414
0.0026447
0.00258406
0.00272423
0.00281456
0.420908
0.407078
0.393749
0.380821
0.368211
0.355838
0.343639
0.33158
0.319648
0.30785
0.296206
0.284742
0.273485
0.262455
0.251672
0.241148
0.230887
0.22089
0.211153
0.20167
0.192434
0.183439
0.174681
0.166158
0.157871
0.14982
0.14201
0.134447
0.127135
0.120082
0.113292
0.10677
0.10052
0.0945428
0.0888393
0.0834083
0.0782469
0.0733507
0.0687142
0.0643307
0.0601924
0.056291
0.0526172
0.0491618
0.0459148
0.0428664
0.0400067
0.0373259
0.0348142
0.0324621
0.0302606
0.0282007
0.026274
0.0244721
0.0227875
0.0212126
0.0197406
0.0183647
0.0170791
0.0158777
0.0147555
0.0137071
0.0127283
0.0118138
0.0109611
0.0101642
0.00942293
0.00873026
0.00808862
0.00748934
0.00693727
0.00642238
0.00595063
0.00551094
0.00510626
0.0047225
0.00435866
0.00399671
0.00365075
0.00332458
0.00306957
0.00286669
0.00270335
0.00250589
0.00226737
0.00202034
0.00182873
0.00170962
0.00165364
0.00158593
0.00145266
0.00146056
0.00160355
0.00171515
0.00179466
0.00177103
0.0017616
0.00172251
0.00175216
0.00176644
0.00182999
0.00184722
0.00183537
0.00171874
0.00158949
0.0014522
0.00141709
0.00146247
0.00164
0.00184902
0.00213621
0.00231739
0.00257789
0.00265475
0.00284221
0.00280719
0.00292095
0.00285211
0.00298682
0.00307084
0.416146
0.402112
0.388596
0.375524
0.362834
0.35046
0.338349
0.326461
0.314774
0.303277
0.291974
0.280878
0.270007
0.259376
0.249002
0.2389
0.229078
0.21954
0.210286
0.20131
0.192605
0.184162
0.175968
0.168015
0.160293
0.152794
0.145512
0.138443
0.131584
0.124936
0.118498
0.112273
0.106262
0.100468
0.0948935
0.0895392
0.0844065
0.0794955
0.0748054
0.0703343
0.0660795
0.0620371
0.0582026
0.0545706
0.0511351
0.0478895
0.044827
0.04194
0.0392213
0.036663
0.0342577
0.0319976
0.0298753
0.0278832
0.0260144
0.0242617
0.0226185
0.0210783
0.0196352
0.0182832
0.0170172
0.0158317
0.0147225
0.0136841
0.0127139
0.0118057
0.0109594
0.0101674
0.00943263
0.00874535
0.00811122
0.00751876
0.00697474
0.00646653
0.00599776
0.00555272
0.00513136
0.00471384
0.00431657
0.00394155
0.0036443
0.00340247
0.0032043
0.00297099
0.00269629
0.00241454
0.00219384
0.00205098
0.00197506
0.00188733
0.00172853
0.00177268
0.0019215
0.00202821
0.00210229
0.00206043
0.00203951
0.00198172
0.00200411
0.00200529
0.00206534
0.00207099
0.0020506
0.00191585
0.00177465
0.00162347
0.00158868
0.00163679
0.00183036
0.00205377
0.00236011
0.00255073
0.00282504
0.00290396
0.00310165
0.00306255
0.00317803
0.00310177
0.00322744
0.00330141
0.411779
0.397596
0.383945
0.370766
0.358009
0.345623
0.333561
0.321786
0.310269
0.298993
0.287947
0.277134
0.266558
0.25623
0.24616
0.236359
0.226837
0.217601
0.208654
0.199996
0.191622
0.183527
0.175701
0.168133
0.160812
0.153726
0.146865
0.140217
0.133774
0.127528
0.121474
0.115606
0.109922
0.10442
0.0990988
0.0939582
0.0889986
0.0842202
0.0796236
0.0752088
0.0709756
0.0669231
0.06305
0.0593543
0.0558332
0.0524837
0.0493017
0.0462829
0.0434227
0.0407156
0.0381563
0.0357389
0.0334579
0.0313068
0.0292801
0.0273713
0.025575
0.0238849
0.0222958
0.0208021
0.019399
0.0180811
0.0168445
0.0156836
0.0145962
0.0135757
0.0126228
0.011729
0.0108983
0.0101196
0.00939979
0.00872581
0.00810538
0.00752428
0.00698689
0.00647599
0.00599267
0.00551549
0.00506327
0.00463569
0.00429195
0.00400626
0.00376834
0.00349518
0.00318094
0.00286169
0.00260862
0.00243841
0.00233826
0.00222696
0.0020624
0.00212277
0.00227322
0.00237024
0.00243542
0.00237168
0.0023362
0.00225536
0.0022663
0.00224968
0.00230324
0.00229501
0.00226512
0.00211127
0.00195676
0.00178908
0.0017507
0.00179741
0.00200276
0.00223851
0.00256123
0.00276126
0.00304718
0.00312913
0.00333601
0.00329482
0.00341089
0.00332781
0.00344153
0.00350214
0.407755
0.393466
0.379717
0.366459
0.353651
0.341251
0.329218
0.317518
0.306122
0.295007
0.284158
0.273567
0.26323
0.253148
0.243326
0.233769
0.224484
0.215478
0.206753
0.198314
0.190159
0.182286
0.174689
0.16736
0.160292
0.153473
0.146893
0.140539
0.134402
0.128469
0.122731
0.117179
0.111805
0.106602
0.101565
0.0966888
0.0919709
0.0874086
0.0830003
0.0787447
0.0746412
0.070689
0.0668877
0.0632365
0.0597345
0.0563803
0.0531726
0.050109
0.0471873
0.0444044
0.0417573
0.0392421
0.0368552
0.0345921
0.0324486
0.0304198
0.0285014
0.0266883
0.0249762
0.0233601
0.0218361
0.020399
0.0190457
0.0177707
0.0165726
0.0154446
0.0143882
0.0133944
0.0124685
0.0115983
0.0107919
0.0100349
0.009336
0.00867947
0.00807052
0.00749055
0.00694192
0.00640193
0.0058918
0.00540862
0.00501457
0.00468052
0.00439816
0.00408139
0.00372428
0.00336469
0.00307575
0.00287441
0.00274557
0.00260708
0.0024573
0.00251093
0.00265817
0.00274031
0.0027928
0.00270349
0.00265013
0.00254179
0.0025364
0.00249668
0.00254003
0.00251546
0.00247475
0.0023006
0.00213056
0.00194333
0.00189654
0.00193783
0.00215082
0.00239779
0.00273485
0.00294506
0.00324089
0.00332694
0.00354231
0.00350074
0.00361674
0.00352725
0.00362686
0.00367151
0.404032
0.389667
0.375848
0.362534
0.34969
0.337277
0.325263
0.313615
0.302306
0.291312
0.280613
0.270197
0.260052
0.250175
0.240563
0.231215
0.222134
0.213323
0.204785
0.196523
0.188536
0.180824
0.173385
0.166215
0.159307
0.152654
0.146247
0.140077
0.134134
0.128407
0.122887
0.117561
0.112421
0.107457
0.102661
0.098024
0.0935405
0.0892041
0.0850101
0.0809543
0.0770336
0.0732453
0.0695874
0.0660583
0.0626568
0.0593815
0.0562315
0.0532055
0.0503024
0.0475204
0.044858
0.042313
0.0398834
0.0375662
0.0353591
0.0332584
0.0312614
0.029364
0.0275634
0.0258554
0.024237
0.0227039
0.021254
0.0198818
0.0185874
0.0173636
0.0162134
0.0151273
0.0141121
0.0131548
0.012265
0.011427
0.0106507
0.00991907
0.00923811
0.00858809
0.0079727
0.00736834
0.00679865
0.00625792
0.00581073
0.00542473
0.00509392
0.00473045
0.00432748
0.00392492
0.00359651
0.00336024
0.00319825
0.00302912
0.0028943
0.00293616
0.00307484
0.00313666
0.00317235
0.00305389
0.00297925
0.00283926
0.00281217
0.00274354
0.00277203
0.00272837
0.00267502
0.00247921
0.0022907
0.00208078
0.00202048
0.00205307
0.00227033
0.00252862
0.00287905
0.00310091
0.00340577
0.00349694
0.00372046
0.00367981
0.00379549
0.00369982
0.0037839
0.00381091
0.400574
0.386157
0.37229
0.358937
0.346067
0.333648
0.321647
0.310038
0.298794
0.28789
0.277308
0.267028
0.257039
0.24733
0.237895
0.228728
0.219826
0.21119
0.202819
0.194714
0.186875
0.179302
0.171992
0.164944
0.158153
0.151614
0.145322
0.139268
0.133445
0.127845
0.122458
0.117275
0.112286
0.107482
0.102854
0.0983927
0.0940898
0.0899373
0.0859281
0.0820556
0.0783142
0.0746988
0.0712051
0.0678294
0.0645687
0.0614203
0.0583822
0.0554524
0.0526295
0.0499117
0.0472979
0.0447863
0.0423758
0.0400643
0.0378504
0.0357316
0.0337064
0.0317716
0.0299257
0.0281652
0.0264886
0.024892
0.0233744
0.0219311
0.0205631
0.0192634
0.0180367
0.016873
0.0157809
0.0147467
0.0137819
0.0128697
0.0120215
0.0112189
0.010469
0.00975123
0.00907042
0.00840263
0.00777368
0.0071753
0.00667369
0.00623372
0.00585177
0.00543971
0.00498874
0.00454122
0.00416994
0.00389514
0.00369568
0.0034928
0.00337122
0.00339608
0.00352047
0.00355643
0.00357089
0.00341994
0.00332071
0.00314572
0.00309144
0.00298788
0.00299576
0.00292985
0.00286145
0.00264255
0.00243228
0.00219684
0.00211836
0.00214027
0.00235987
0.00263081
0.0029949
0.00323038
0.00354423
0.00364138
0.00387304
0.00383412
0.00394952
0.00384782
0.00391571
0.00392424
0.397351
0.382899
0.369
0.355623
0.342738
0.330316
0.318329
0.306751
0.295556
0.284723
0.27423
0.26406
0.254196
0.244625
0.235337
0.226324
0.21758
0.209099
0.20088
0.19292
0.185218
0.177772
0.170581
0.163643
0.156953
0.150509
0.144305
0.138337
0.132597
0.127079
0.121777
0.116681
0.111784
0.107078
0.102554
0.0982035
0.0940187
0.0899911
0.086113
0.0823768
0.0787754
0.0753023
0.0719516
0.0687176
0.0655956
0.0625811
0.0596705
0.0568602
0.0541477
0.0515301
0.0490055
0.0465715
0.0442269
0.0419694
0.0397978
0.0377099
0.0357047
0.0337795
0.0319335
0.0301638
0.0284697
0.0268478
0.0252983
0.0238167
0.0224051
0.0210569
0.0197781
0.0185586
0.0174089
0.0163146
0.0152895
0.0143155
0.013406
0.0125415
0.0117303
0.010951
0.0102099
0.009483
0.00879794
0.00814434
0.0075893
0.00709562
0.00666186
0.00620124
0.00570178
0.00520854
0.00479171
0.00447532
0.0042345
0.00399531
0.00388352
0.00388624
0.00399053
0.00399525
0.00398382
0.00379746
0.00367048
0.00345845
0.00337207
0.00322781
0.00320826
0.00311631
0.00302987
0.00278648
0.00255123
0.00228825
0.00218814
0.00219905
0.00242087
0.00270685
0.00308597
0.00333718
0.00366068
0.00376444
0.00400444
0.00396761
0.00408294
0.00397528
0.00402699
0.004017
0.394337
0.379863
0.365946
0.352555
0.339664
0.327244
0.315271
0.303719
0.292565
0.281788
0.271367
0.261284
0.25152
0.242062
0.232897
0.224015
0.215406
0.207063
0.19898
0.191152
0.183578
0.176253
0.169175
0.162341
0.155747
0.149391
0.143268
0.137374
0.131704
0.126251
0.121011
0.115976
0.111139
0.106494
0.102034
0.0977505
0.0936368
0.0896852
0.0858883
0.082239
0.07873
0.0753545
0.072106
0.0689781
0.0659652
0.0630614
0.060262
0.0575622
0.0549579
0.0524452
0.0500209
0.0476815
0.045425
0.043248
0.0411492
0.0391255
0.0371759
0.0352973
0.0334893
0.0317486
0.0300752
0.0284655
0.0269205
0.0254356
0.0240139
0.0226488
0.0213474
0.0200993
0.0189169
0.0177851
0.0167198
0.0157022
0.0147474
0.0138353
0.0129751
0.0121457
0.0113538
0.0105762
0.00984175
0.00913866
0.00853407
0.00798986
0.00750639
0.00699988
0.00645391
0.00591632
0.0054527
0.00509277
0.00480749
0.00453021
0.00442354
0.00439934
0.00447808
0.0044468
0.0044048
0.00418063
0.004023
0.0037735
0.00365147
0.00346182
0.00340719
0.00328468
0.00317664
0.00290757
0.00264476
0.00235341
0.00223012
0.00223149
0.00245715
0.00276114
0.00315727
0.00342613
0.00376025
0.00387102
0.00411955
0.00408483
0.00420031
0.00408677
0.00412293
0.00409492
0.391509
0.377025
0.363098
0.349703
0.336812
0.324399
0.312441
0.300913
0.289795
0.279065
0.268702
0.258689
0.249008
0.239643
0.23058
0.221808
0.213315
0.205091
0.197128
0.189421
0.181963
0.174751
0.16778
0.161046
0.154546
0.148276
0.142232
0.13641
0.130805
0.125413
0.120227
0.115243
0.110454
0.105855
0.101439
0.0972002
0.0931313
0.089226
0.0854778
0.0818801
0.0784263
0.0751101
0.0719252
0.0688652
0.0659245
0.0630969
0.0603774
0.0577603
0.0552412
0.0528149
0.0504778
0.048225
0.0460539
0.0439599
0.0419412
0.0399934
0.0381153
0.0363029
0.0345554
0.0328689
0.0312434
0.0296747
0.028164
0.0267062
0.025305
0.0239531
0.0226587
0.0214106
0.0202227
0.0190791
0.0179977
0.0169586
0.0159789
0.0150378
0.0141456
0.0132815
0.0124528
0.0116374
0.0108642
0.0101211
0.00947417
0.00888584
0.00835808
0.00781147
0.00722426
0.0066468
0.00613744
0.00573403
0.00540254
0.00508626
0.00497975
0.00492435
0.00497299
0.00490229
0.00482549
0.00456184
0.00437091
0.00408514
0.00392613
0.00368846
0.00359101
0.00343266
0.00329893
0.00300323
0.00271151
0.00239248
0.00224666
0.00224153
0.00247397
0.00279885
0.00321395
0.00350188
0.00384754
0.0039655
0.00422259
0.00418973
0.00430559
0.00418626
0.00420796
0.00416279
0.388847
0.374361
0.360434
0.34704
0.334155
0.321754
0.309812
0.298308
0.287221
0.276531
0.266218
0.256264
0.246651
0.237363
0.228386
0.219706
0.211311
0.20319
0.195333
0.187733
0.180381
0.173273
0.166402
0.159763
0.153353
0.147167
0.141201
0.13545
0.129911
0.124578
0.119446
0.114511
0.109767
0.105209
0.100831
0.0966272
0.0925921
0.0887196
0.0850039
0.0814389
0.0780189
0.074738
0.0715905
0.0685705
0.0656726
0.0628912
0.0602213
0.0576571
0.0551944
0.0528275
0.0505527
0.0483646
0.0462601
0.044234
0.042284
0.0404048
0.0385948
0.036849
0.0351664
0.033542
0.0319756
0.0304621
0.0290025
0.0275911
0.0262314
0.0249154
0.0236515
0.0224278
0.0212588
0.0201276
0.0190536
0.0180158
0.017033
0.0160835
0.0151789
0.0142989
0.0134503
0.0126136
0.0118157
0.0110456
0.0103667
0.00974361
0.00918035
0.00860247
0.00798284
0.0073739
0.00682296
0.00637909
0.00600215
0.00565496
0.00553644
0.005446
0.0054614
0.00535009
0.00523539
0.00493172
0.00470508
0.00438548
0.00419095
0.00390588
0.00375879
0.00355878
0.00339478
0.00307187
0.00275147
0.00240718
0.0022417
0.0022342
0.00247683
0.00282483
0.00326029
0.00356806
0.0039259
0.00405105
0.00431648
0.00428512
0.00440151
0.00427649
0.00428518
0.00422388
0.386334
0.371853
0.357932
0.344546
0.331671
0.319284
0.307361
0.29588
0.284823
0.274169
0.263899
0.253995
0.244439
0.235217
0.226311
0.21771
0.209399
0.201366
0.193601
0.186095
0.178839
0.171824
0.165046
0.158497
0.152172
0.146067
0.140177
0.134496
0.129022
0.123748
0.118671
0.113785
0.109086
0.104569
0.100227
0.0960573
0.0920529
0.0882088
0.0845196
0.0809798
0.0775842
0.0743271
0.0712036
0.0682081
0.0653358
0.0625813
0.0599401
0.0574067
0.0549772
0.052646
0.0504097
0.0482626
0.0462021
0.0442222
0.0423209
0.0404923
0.0387349
0.0370428
0.0354149
0.0338456
0.0323342
0.0308752
0.0294689
0.0281091
0.0267987
0.0255292
0.0243085
0.0231238
0.0219902
0.0208889
0.019841
0.0188231
0.0178563
0.0169175
0.016019
0.0151419
0.0142909
0.013451
0.012644
0.0118621
0.0111642
0.0105176
0.00993031
0.0093323
0.00869173
0.00806392
0.00747887
0.00700109
0.00658341
0.00621726
0.00607442
0.00594521
0.00592565
0.0057757
0.00562209
0.00527954
0.00501528
0.00466475
0.0044389
0.00411128
0.0039101
0.00366258
0.00346325
0.00311287
0.00276579
0.00240038
0.0022199
0.0022146
0.00247054
0.00284281
0.0032992
0.003627
0.00399729
0.00412952
0.00440286
0.00437261
0.00448959
0.00435905
0.00435631
0.00428
0.383955
0.369485
0.355574
0.3422
0.32934
0.31697
0.305067
0.293611
0.282582
0.271961
0.261729
0.251869
0.242363
0.233196
0.224352
0.215817
0.207578
0.199621
0.191937
0.184513
0.17734
0.170411
0.163716
0.15725
0.151006
0.144977
0.13916
0.133548
0.128138
0.122924
0.117901
0.113066
0.108412
0.103936
0.0996323
0.0954962
0.0915225
0.0877063
0.0840424
0.0805259
0.0771516
0.0739145
0.0708098
0.0678323
0.0649777
0.0622407
0.0596174
0.0571023
0.0546922
0.0523813
0.050167
0.0480434
0.0460085
0.0440559
0.0421845
0.0403876
0.0386644
0.0370084
0.0354188
0.0338897
0.0324201
0.0310044
0.0296422
0.0283275