/*--------------------------------*- C++ -*----------------------------------*\
| =========                 |                                                 |
| \\      /  F ield         | OpenFOAM: The Open Source CFD Toolbox           |
|  \\    /   O peration     | Version:  2412                                  |
|   \\  /    A nd           | Website:  www.openfoam.com                      |
|    \\/     M anipulation  |                                                 |
\*---------------------------------------------------------------------------*/
FoamFile
{
    version     2.0;
    format      ascii;
    arch        "LSB;label=32;scalar=64";
    class       volVectorField;
    location    "0.275";
    object      ddtCorrDdt0(U);
}
// * * * * * * * * * * * * * * * * * * * * * * * * * * * * * * * * * * * * * //

dimensions      [0 1 -2 0 0 0 0];

internalField   nonuniform List<vector> 
12600
(
(2.42711 -3.22776e-20 -0.477705)
(0.561682 -4.93569e-20 0.00451146)
(0.669142 1.06443e-20 0.0198562)
(0.364103 0 -0.0256948)
(0.0640052 5.05392e-20 -0.0435547)
(-0.119334 2.49478e-20 -0.0493871)
(-0.193929 0 -0.0425522)
(-0.194599 0 -0.0244486)
(-0.16276 5.18727e-19 -0.0098856)
(-0.125694 0 -0.000874552)
(-0.0911617 -3.60106e-19 0.00497888)
(-0.0582528 -3.46659e-19 0.0103865)
(-0.0270024 2.98514e-19 0.0164388)
(-0.00198823 0 0.0225283)
(0.0097658 1.56045e-19 0.0273339)
(0.00313164 0 0.0299592)
(-0.0219975 -2.14052e-19 0.0304941)
(-0.060456 0 0.0297764)
(-0.103998 5.68344e-20 0.0287809)
(-0.144244 6.85777e-20 0.0281874)
(-0.174829 -9.1394e-20 0.028304)
(-0.192244 5.59867e-22 0.0291787)
(-0.195734 0 0.0307078)
(-0.186786 3.36776e-19 0.0326869)
(-0.168477 0 0.0348415)
(-0.14473 0 0.0368678)
(-0.119522 4.15785e-19 0.0384783)
(-0.0962021 0 0.0394413)
(-0.077077 1.16706e-21 0.0396089)
(-0.0633054 -3.11263e-19 0.0389293)
(-0.0550471 -2.41586e-19 0.0374439)
(-0.0517253 -1.63627e-19 0.0352635)
(-0.0523577 8.35612e-20 0.0325445)
(-0.0558139 1.51608e-20 0.0294515)
(-0.0610816 -1.1587e-19 0.0261426)
(-0.0673564 2.11816e-19 0.0227386)
(-0.0741721 0 0.0193374)
(-0.0812424 -2.65882e-19 0.0159957)
(-0.0884476 0 0.0127823)
(-0.0954431 1.28381e-19 0.00975938)
(-0.101703 0 0.00705495)
(-0.106151 -2.95119e-21 0.00479717)
(-0.107576 0 0.0031678)
(-0.104432 -2.0947e-21 0.00226698)
(-0.0956114 -7.94569e-19 0.00217559)
(-0.0803118 9.33856e-19 0.00282554)
(-0.0589033 -1.02355e-18 0.00411368)
(-0.0326481 0 0.00580066)
(-0.00398887 0 0.00757482)
(0.0239973 -7.41063e-19 0.00900298)
(0.0483666 -8.6277e-19 0.00951485)
(0.0662666 -1.66448e-19 0.00862245)
(0.0768332 6.99796e-21 0.00581503)
(0.0794832 8.40602e-19 0.00113618)
(0.0769941 0 -0.00525617)
(0.0711182 -7.65691e-19 -0.0123873)
(0.0659062 -4.82255e-19 -0.019486)
(0.0624015 -2.33698e-19 -0.0254084)
(0.0615209 0 -0.0296057)
(0.0637136 0 -0.031776)
(0.0664469 0 -0.031525)
(0.0720398 7.29771e-19 -0.0295735)
(0.0718457 0 -0.0249932)
(0.0692237 0 -0.0192116)
(0.0537758 -3.69545e-18 -0.00966052)
(0.0386741 0 0.00321738)
(0.0206001 0 0.0220668)
(0.00752254 0 0.0447118)
(-0.00812365 1.26108e-17 0.0659272)
(-0.0405224 -1.11082e-17 0.0808705)
(-0.0657468 -8.69258e-18 0.0816333)
(-0.0821684 -1.3966e-20 0.0610644)
(-0.0348957 7.0695e-18 0.044879)
(0.0676381 0 0.0101993)
(0.164151 -1.52277e-17 -0.0405468)
(0.266886 0 -0.106234)
(0.239206 0 -0.15299)
(0.142806 0 -0.171226)
(-0.154753 -1.66014e-19 -0.085628)
(-0.576067 5.488e-17 0.039795)
(-0.845803 5.88973e-17 0.117868)
(-0.730042 -5.41191e-17 0.0931419)
(-0.200456 -5.10481e-17 -0.0265907)
(0.390483 0 -0.131712)
(0.304389 0 -0.0556594)
(-0.190538 6.45642e-17 0.139794)
(-0.890153 -2.45694e-17 0.444404)
(-1.12983 -6.38752e-17 0.423681)
(-0.677765 -7.78348e-17 0.232214)
(-0.0573924 0 0.0612724)
(0.0758941 2.05842e-16 0.040336)
(-0.119409 -1.042e-16 0.0929155)
(-0.935419 1.03451e-16 0.253001)
(-1.91992 -1.92106e-16 0.424574)
(-2.66341 0 0.553778)
(-2.71839 0 0.501043)
(-2.58752 0 0.428505)
(-2.34719 0 0.359121)
(-2.48232 0 0.373945)
(-2.53771 0 0.403496)
(-3.00407 -2.38224e-16 0.528376)
(-3.42004 -5.48868e-16 0.640359)
(-3.7086 -4.95714e-16 0.728378)
(-2.87091 0 0.576441)
(-1.4446 0 0.308622)
(0.578763 0 -0.0807253)
(1.83067 3.06076e-16 -0.294863)
(2.47041 1.12773e-15 -0.404172)
(1.24554 -5.82731e-16 -0.240533)
(-0.593288 0 0.151225)
(-3.44974 9.38764e-16 0.703933)
(-5.89327 0 1.15966)
(-7.7947 4.25324e-16 1.51097)
(-8.67566 -1.82453e-16 1.68687)
(-9.1966 8.98647e-17 1.75045)
(-8.38316 -2.23771e-16 1.59287)
(-7.70606 -7.01287e-17 1.46077)
(-6.29405 2.20426e-20 1.21266)
(-5.50645 -1.55824e-16 1.06034)
(-4.86395 0 0.893307)
(2.60933 3.25957e-20 -0.899954)
(2.1014 0 -0.0311244)
(1.85347 -1.07654e-20 0.0591112)
(1.32799 0 -0.0220716)
(0.809469 -5.12089e-20 -0.0876887)
(0.443002 -6.47072e-20 -0.114319)
(0.241077 1.74071e-20 -0.0956225)
(0.136048 0 -0.0539866)
(0.0724175 -4.47772e-21 -0.0213193)
(0.0294329 3.32126e-19 -0.00264306)
(0.000919933 -3.61553e-19 0.00987291)
(-0.0164058 -3.46948e-19 0.0228683)
(-0.028102 2.97092e-19 0.0372353)
(-0.0421779 -2.2722e-19 0.0504548)
(-0.0667925 -3.13077e-19 0.0599166)
(-0.106955 0 0.0647686)
(-0.162301 1.81604e-21 0.0661769)
(-0.227465 -6.60398e-20 0.0663985)
(-0.294532 -5.76604e-20 0.0674811)
(-0.355787 0 0.070476)
(-0.40545 0 0.0754404)
(-0.440252 -1.19827e-19 0.0818621)
(-0.459379 0 0.0890474)
(-0.464165 -1.70888e-19 0.0963032)
(-0.457604 3.80743e-19 0.102996)
(-0.443652 0 0.108583)
(-0.426397 -4.16824e-19 0.112654)
(-0.409308 0 0.114955)
(-0.394803 3.71295e-19 0.115402)
(-0.38413 6.25682e-19 0.114077)
(-0.377539 4.84777e-19 0.111196)
(-0.374513 1.6562e-19 0.107053)
(-0.374114 -8.45558e-20 0.101973)
(-0.375181 -2.54115e-20 0.0962456)
(-0.376675 2.38257e-19 0.0901294)
(-0.377706 0 0.0837864)
(-0.377821 0 0.077359)
(-0.376672 3.74161e-22 0.0708876)
(-0.374238 0 0.064471)
(-0.370065 -1.29606e-19 0.0581355)
(-0.36373 0 0.0520736)
(-0.353904 2.0614e-19 0.0463852)
(-0.339453 0 0.0413464)
(-0.3184 6.31473e-19 0.0369853)
(-0.289705 0 0.0334372)
(-0.252155 -9.40334e-19 0.0305137)
(-0.206512 0 0.0281597)
(-0.154092 0 0.0260544)
(-0.0978931 9.48984e-19 0.0238452)
(-0.041091 0 0.0209744)
(0.0135981 0 0.0165432)
(0.0631603 0 0.0100207)
(0.107493 -4.61254e-19 0.000436287)
(0.144558 -1.69151e-18 -0.0116785)
(0.177828 0 -0.0264686)
(0.206043 0 -0.0417358)
(0.233882 4.69753e-19 -0.0568416)
(0.259101 2.33686e-19 -0.0692887)
(0.282435 0 -0.0786418)
(0.302886 0 -0.084053)
(0.313794 0 -0.0843858)
(0.31997 0 -0.0811187)
(0.300052 8.15667e-19 -0.0703999)
(0.265908 -1.2108e-18 -0.056371)
(0.186126 3.70336e-18 -0.0311947)
(0.0908156 0 0.00015311)
(-0.0398581 0 0.0453883)
(-0.175907 0 0.0963268)
(-0.316416 1.60676e-20 0.145386)
(-0.46303 1.1002e-17 0.183356)
(-0.547601 8.60161e-18 0.190951)
(-0.567226 -1.30073e-17 0.166028)
(-0.409336 3.05161e-20 0.121033)
(-0.0764629 1.12818e-17 0.0307854)
(0.315678 1.5011e-17 -0.0874235)
(0.787051 0 -0.233789)
(0.888731 0 -0.308451)
(0.656098 0 -0.297846)
(-0.35234 3.88194e-17 -0.064215)
(-1.69731 0 0.236669)
(-2.45769 0 0.397718)
(-1.9618 5.29673e-17 0.290681)
(-0.313843 4.99083e-17 -0.0542002)
(1.178 0 -0.314113)
(0.568648 0 -0.0891562)
(-1.0985 0 0.368715)
(-3.1247 2.18818e-17 1.25154)
(-3.64031 -1.11142e-18 1.17194)
(-2.19562 -7.61928e-17 0.574247)
(-0.416754 8.91907e-17 0.125909)
(-0.271952 -1.99582e-16 0.120809)
(-1.1463 -1.0088e-16 0.339626)
(-3.77346 -1.99997e-16 0.921558)
(-6.49362 0 1.35851)
(-8.29094 0 1.65432)
(-8.08242 0 1.5231)
(-7.5235 0 1.35569)
(-6.78133 7.78419e-17 1.19382)
(-7.20532 0 1.27107)
(-7.49338 0 1.35588)
(-9.0728 -2.2874e-16 1.70736)
(-10.2788 2.62918e-16 1.97785)
(-10.9957 9.487e-16 2.13119)
(-8.2891 -3.82885e-16 1.59065)
(-4.18797 0 0.781514)
(1.39387 0 -0.290351)
(4.30094 0 -0.813238)
(5.40982 -5.37232e-16 -0.989229)
(1.27865 5.54587e-16 -0.120191)
(-4.42658 0 0.949357)
(-12.5986 -1.78294e-15 2.5212)
(-19.3587 -6.58446e-16 3.79667)
(-24.5061 -8.06399e-16 4.75907)
(-26.5871 0 5.15215)
(-27.5713 0 5.28227)
(-24.9115 -2.12089e-16 4.75499)
(-22.8538 0 4.3498)
(-19.0188 -3.59912e-16 3.63164)
(-16.7414 1.47312e-16 3.20004)
(-14.6305 0 2.75789)
(2.73148 0 -0.361845)
(2.60782 0 -0.0537236)
(2.41379 -4.87934e-20 0.0795953)
(2.07226 0 0.0860242)
(1.63015 0 -0.00927744)
(1.22441 2.0295e-20 -0.0850597)
(0.930978 -1.64859e-20 -0.0844889)
(0.72114 0 -0.0458884)
(0.556482 -1.42701e-20 -0.014479)
(0.423525 -3.14645e-19 -0.000384377)
(0.319319 6.73511e-19 0.00930741)
(0.237962 3.28732e-19 0.0233425)
(0.169199 -9.51741e-21 0.0397637)
(0.102441 2.15309e-19 0.0533729)
(0.0293975 1.46625e-19 0.0616381)
(-0.0543381 -8.58188e-20 0.0654179)
(-0.14825 1.00965e-19 0.0675111)
(-0.247511 6.25824e-20 0.0710541)
(-0.345234 0 0.0782068)
(-0.43483 0 0.0894703)
(-0.511325 -8.58416e-20 0.103882)
(-0.571753 -1.09904e-19 0.119777)
(-0.615213 0 0.13551)
(-0.642803 0 0.149816)
(-0.657315 -3.60777e-19 0.161855)
(-0.662591 0 0.171162)
(-0.662676 7.79441e-19 0.177573)
(-0.661032 -3.71392e-19 0.181171)
(-0.660091 0 0.182235)
(-0.661131 -2.94132e-19 0.181173)
(-0.66445 -2.27538e-19 0.178464)
(-0.669561 0 0.174549)
(-0.675536 7.23047e-20 0.169818)
(-0.681137 9.54263e-21 0.164521)
(-0.68524 4.27869e-21 0.15885)
(-0.686793 0 0.152855)
(-0.685276 0 0.146611)
(-0.680185 2.54019e-19 0.140043)
(-0.671502 0 0.133197)
(-0.658592 0 0.12593)
(-0.641106 0 0.118348)
(-0.61748 0 0.110287)
(-0.586747 0 0.101903)
(-0.546618 0 0.0929311)
(-0.496332 0 0.0834939)
(-0.434413 8.90054e-19 0.0733038)
(-0.362233 -9.73314e-19 0.0625721)
(-0.28112 0 0.0511742)
(-0.194728 -8.97828e-19 0.0391275)
(-0.106105 0 0.0262475)
(-0.0179683 0 0.011913)
(0.0666096 1.25604e-19 -0.00371737)
(0.147716 0 -0.0215442)
(0.221803 8.02563e-19 -0.0401188)
(0.292375 -8.81319e-19 -0.0602441)
(0.355031 0 -0.0789605)
(0.414733 -4.44019e-19 -0.0970664)
(0.465605 0 -0.111372)
(0.508624 0 -0.122621)
(0.540439 0 -0.12926)
(0.551825 -4.32603e-19 -0.129666)
(0.548465 -6.74924e-19 -0.12527)
(0.499153 -8.78265e-21 -0.108907)
(0.422834 2.28151e-18 -0.0871962)
(0.270331 6.94917e-23 -0.0473122)
(0.0893482 0 -0.00182508)
(-0.155879 0 0.0618469)
(-0.408109 1.06617e-17 0.127164)
(-0.663849 1.46323e-20 0.191087)
(-0.902592 0 0.242578)
(-1.02523 0 0.256172)
(-1.0213 6.12668e-18 0.242457)
(-0.740867 1.11829e-20 0.166023)
(-0.186293 9.34425e-21 0.0341005)
(0.47242 0 -0.124304)
(1.23607 0 -0.300627)
(1.37783 1.35542e-17 -0.335179)
(0.92744 1.22248e-17 -0.226968)
(-0.812013 0 0.158869)
(-2.95063 0 0.569897)
(-4.03901 0 0.722886)
(-3.05409 0 0.467245)
(-0.389819 0 -0.0889286)
(1.72723 0 -0.404327)
(0.430925 0 0.00320834)
(-2.37253 0 0.631072)
(-5.57515 -1.75229e-17 1.75443)
(-6.0942 3.04426e-17 1.71506)
(-3.70898 7.16115e-17 0.747338)
(-0.994398 -8.38105e-17 0.160098)
(-1.04699 1.8754e-16 0.259256)
(-2.74852 9.47557e-17 0.673734)
(-7.18863 9.38662e-17 1.73451)
(-11.4299 0 2.4034)
(-14.0702 0 2.76303)
(-13.5048 0 2.54172)
(-12.5946 0 2.32196)
(-11.4515 -7.30285e-17 2.12197)
(-12.2609 0 2.30286)
(-12.8257 0 2.45444)
(-15.492 2.14473e-16 3.01306)
(-17.2133 0 3.35015)
(-17.9845 -4.44548e-16 3.41881)
(-13.1838 3.58807e-16 2.38344)
(-6.63363 0 1.05757)
(1.94096 0 -0.54958)
(5.68756 0 -1.13872)
(6.45149 -5.03606e-16 -1.11911)
(-1.18287 0 0.354149)
(-10.8606 5.58527e-16 2.45189)
(-23.9936 4.11138e-19 4.96048)
(-34.4237 6.16236e-16 6.87451)
(-42.2975 7.53871e-16 8.28083)
(-44.9537 0 8.70008)
(-46.1134 -7.89648e-17 8.79242)
(-41.4058 1.98383e-16 7.83164)
(-38.0128 -6.2047e-17 7.1516)
(-31.9151 0 6.01104)
(-28.3688 -1.37741e-16 5.35175)
(-24.9691 0 4.71429)
(2.68628 0 -0.119163)
(2.58279 0 -0.0768275)
(2.49347 4.61264e-20 0.113872)
(2.34835 0 0.195816)
(2.11019 -8.16593e-20 0.107425)
(1.83037 9.13707e-20 -0.00122974)
(1.57029 0 -0.0277886)
(1.33874 9.80451e-20 0.00152698)
(1.12484 -2.18341e-19 0.0247635)
(0.930327 -2.66152e-19 0.0253985)
(0.762696 -3.12962e-19 0.0229554)
(0.620196 2.8509e-19 0.0305541)
(0.49236 -2.57228e-19 0.0440764)
(0.368469 3.71924e-19 0.0552202)
(0.24161 0 0.0609695)
(0.108704 1.5796e-19 0.0632932)
(-0.0295442 0 0.0659435)
(-0.168977 0 0.0724382)
(-0.303684 0 0.0849446)
(-0.428051 -5.73635e-20 0.103596)
(-0.537835 5.14075e-21 0.126637)
(-0.630354 6.01509e-21 0.151395)
(-0.70459 -1.20152e-19 0.175353)
(-0.761335 0 0.196701)
(-0.803104 0 0.214383)
(-0.833576 0 0.227932)
(-0.856737 -7.10612e-19 0.237313)
(-0.876044 1.61575e-20 0.242806)
(-0.893949 0 0.244932)
(-0.911747 0 0.244342)
(-0.929767 0 0.241729)
(-0.94752 0 0.237686)
(-0.964052 -1.30442e-19 0.232692)
(-0.978011 0 0.227005)
(-0.98815 -1.12471e-19 0.220818)
(-0.993217 0 0.214128)
(-0.992582 0 0.207002)
(-0.985536 -2.37252e-19 0.199285)
(-0.972023 0 0.191011)
(-0.951167 0 0.181905)
(-0.92265 8.00408e-21 0.172044)
(-0.884612 1.954e-19 0.161071)
(-0.836241 0 0.149113)
(-0.774909 5.68658e-19 0.135682)
(-0.7002 0 0.120958)
(-0.610382 -1.67973e-18 0.104562)
(-0.507567 3.02462e-21 0.0869346)
(-0.393062 0 0.0679828)
(-0.271381 0 0.0478785)
(-0.145455 6.46915e-19 0.0264878)
(-0.0184773 7.31612e-19 0.00322303)
(0.106237 -2.26521e-19 -0.0213161)
(0.228269 0 -0.047978)
(0.342403 7.67006e-19 -0.074348)
(0.451648 8.31931e-19 -0.101539)
(0.548454 6.71286e-19 -0.125444)
(0.637935 4.09163e-19 -0.147823)
(0.710395 0 -0.164349)
(0.767474 0 -0.176824)
(0.802681 2.56709e-19 -0.182617)
(0.805631 8.001e-19 -0.180024)
(0.781531 6.36569e-19 -0.170169)
(0.692199 -1.60018e-20 -0.14356)
(0.562702 -1.0732e-18 -0.109218)
(0.329991 -1.65518e-18 -0.0499717)
(0.0604639 0 0.0143234)
(-0.296212 0 0.101171)
(-0.651599 -1.00474e-17 0.184114)
(-1.00654 -2.22856e-17 0.263563)
(-1.31153 0 0.322561)
(-1.45172 -7.60476e-18 0.331034)
(-1.40543 -5.77192e-18 0.299969)
(-0.99597 -6.23686e-18 0.181068)
(-0.237365 -2.00393e-17 0.00438882)
(0.642847 0 -0.200461)
(1.61086 0 -0.398993)
(1.70088 -1.27548e-17 -0.379061)
(0.962125 -2.3114e-17 -0.156702)
(-1.48752 -3.47935e-17 0.419005)
(-4.26726 0 0.939036)
(-5.53709 0 1.04099)
(-4.00649 0 0.582801)
(-0.48698 0 -0.171284)
(1.98045 0 -0.456755)
(-0.115867 0 0.206006)
(-3.96491 -5.46237e-17 1.05006)
(-8.17577 1.055e-18 2.05977)
(-8.46184 -3.12599e-17 2.1642)
(-5.249 0 0.868302)
(-1.83921 -7.86472e-17 0.247707)
(-2.28824 -8.80164e-17 0.518696)
(-4.91903 0 1.20165)
(-11.1484 8.79961e-17 2.60573)
(-16.6487 1.62928e-16 3.52071)
(-19.9249 0 3.91212)
(-18.944 0 3.55087)
(-17.7786 0 3.27828)
(-16.3349 -6.86875e-17 3.05807)
(-17.6167 0 3.36146)
(-18.4793 0 3.60031)
(-22.1633 2.01056e-16 4.3652)
(-24.1083 -2.3099e-16 4.71236)
(-24.6147 0 4.62209)
(-17.6142 0 3.05275)
(-8.95018 0 1.26744)
(1.96506 0 -0.746217)
(5.74659 0 -1.21588)
(5.3835 -5.67359e-20 -0.871306)
(-6.06657 0 1.60488)
(-19.7525 -5.22651e-16 4.43347)
(-37.384 7.79973e-16 7.83275)
(-50.7956 0 10.2367)
(-60.9014 -2.61107e-19 11.969)
(-63.5909 0 12.3075)
(-64.7165 1.70398e-19 12.2976)
(-57.8478 0 10.8777)
(-53.2136 5.80117e-17 9.93829)
(-45.0261 0 8.40617)
(-40.4347 -1.28621e-16 7.56662)
(-35.8836 0 6.76609)
(2.6054 0 -0.000357494)
(2.50192 0 -0.0172518)
(2.41985 0 0.131843)
(2.36057 0 0.225332)
(2.26767 7.708e-20 0.166711)
(2.12613 1.56219e-20 0.0674278)
(1.96644 0 0.0416798)
(1.80022 -9.2543e-20 0.0764014)
(1.62093 0 0.099379)
(1.43231 4.78338e-19 0.0868744)
(1.24749 0 0.0660338)
(1.07264 -2.69146e-19 0.0592078)
(0.903004 0 0.0634904)
(0.731843 -3.51156e-19 0.067914)
(0.556183 1.10861e-19 0.0684097)
(0.37594 -1.39845e-19 0.0675326)
(0.192888 7.60352e-20 0.069427)
(0.0110158 4.64582e-20 0.0774728)
(-0.164195 0 0.0936731)
(-0.327604 5.41672e-20 0.117964)
(-0.47548 7.1816e-20 0.148031)
(-0.605438 1.76861e-19 0.180311)
(-0.716329 1.13456e-19 0.211443)
(-0.80851 0 0.239092)
(-0.884017 0 0.261993)
(-0.946179 0 0.279656)
(-0.998801 3.27609e-19 0.292112)
(-1.04527 3.1638e-19 0.299756)
(-1.088 0 0.30327)
(-1.12827 0 0.303477)
(-1.16639 -1.72117e-19 0.301246)
(-1.20184 0 0.297285)
(-1.23361 7.876e-21 0.292145)
(-1.26023 -1.56839e-20 0.286087)
(-1.2803 1.16275e-19 0.279303)
(-1.29235 0 0.271749)
(-1.2956 0 0.26349)
(-1.28907 2.23923e-19 0.254295)
(-1.27264 0 0.244187)
(-1.24512 0 0.23276)
(-1.2062 -7.55318e-21 0.22008)
(-1.15366 -1.8438e-19 0.205608)
(-1.08685 0 0.189484)
(-1.00276 -5.36518e-19 0.171023)
(-0.901406 0 0.150512)
(-0.78075 7.91308e-19 0.127497)
(-0.643737 8.64478e-19 0.102673)
(-0.491574 0 0.075932)
(-0.329817 7.85499e-19 0.0475581)
(-0.161298 -6.10077e-19 0.0173923)
(0.00987031 -1.36625e-18 -0.0151429)
(0.179967 1.01755e-19 -0.0489837)
(0.347454 4.22163e-19 -0.0848793)
(0.505298 5.72448e-21 -0.119312)
(0.655479 0 -0.153647)
(0.787231 -6.32713e-19 -0.182391)
(0.905555 -3.85614e-19 -0.208273)
(0.996706 1.72881e-19 -0.225527)
(1.0632 -7.17532e-20 -0.237192)
(1.09475 -2.41857e-19 -0.23925)
(1.08101 -3.69306e-19 -0.230298)
(1.02575 5.61724e-19 -0.21096)
(0.886627 -6.61325e-19 -0.169974)
(0.694217 0 -0.119)
(0.375538 0 -0.0369691)
(0.0162252 -2.53248e-18 0.0480854)
(-0.447001 0 0.158735)
(-0.892065 0 0.256789)
(-1.3299 1.04873e-17 0.347143)
(-1.67655 0 0.404886)
(-1.81637 7.15493e-18 0.397812)
(-1.71043 1.0854e-17 0.338195)
(-1.17434 0 0.170054)
(-0.238897 9.42101e-18 -0.0546239)
(0.809271 0 -0.297958)
(1.89427 0 -0.494386)
(1.85283 1.17795e-17 -0.388393)
(0.778749 1.09141e-17 -0.0231828)
(-2.33639 -4.70868e-20 0.74288)
(-5.60735 0 1.32647)
(-6.94025 0 1.32127)
(-4.8522 0 0.633426)
(-0.673186 -4.13882e-17 -0.27461)
(1.89735 4.30729e-17 -0.435297)
(-1.06074 0 0.545086)
(-5.83916 1.02399e-16 1.58668)
(-10.8234 6.01053e-18 2.4583)
(-10.7688 5.99461e-17 2.45333)
(-6.86806 6.34277e-17 0.994205)
(-3.00754 1.47473e-16 0.39932)
(-4.0291 0 0.910913)
(-7.66976 0 1.84142)
(-15.572 -8.25106e-17 3.66046)
(-22.0693 -1.52747e-16 4.71699)
(-25.8052 1.08192e-16 5.06517)
(-24.3699 0 4.53859)
(-23.0456 0 4.23378)
(-21.3864 6.43559e-17 4.02297)
(-23.2083 1.12044e-16 4.47171)
(-24.3688 0 4.80716)
(-28.9687 -1.88293e-16 5.75578)
(-30.8568 2.16297e-16 6.03555)
(-30.8652 0 5.7006)
(-21.6925 0 3.57539)
(-11.3344 0 1.41734)
(1.2286 0 -0.82214)
(4.30949 0 -0.983775)
(2.20743 4.41103e-16 -0.0267242)
(-13.2351 0 3.58981)
(-30.8049 0 6.99105)
(-52.3988 0 11.1283)
(-68.1219 -5.38177e-16 13.8476)
(-80.0329 -3.29343e-16 15.7754)
(-82.3456 0 15.9137)
(-83.3218 6.88787e-17 15.7462)
(-74.2703 0 13.8484)
(-68.5273 5.41435e-17 12.6777)
(-58.4078 0 10.7943)
(-52.992 1.202e-16 9.83398)
(-47.366 0 8.9086)
(2.53816 -7.0333e-20 0.101918)
(2.44498 -9.56829e-20 0.0572308)
(2.35785 1.10904e-19 0.136277)
(2.3178 1.156e-19 0.211415)
(2.27229 0 0.178807)
(2.19591 -6.15761e-20 0.105877)
(2.10968 0 0.0951913)
(2.02449 -3.15604e-20 0.14383)
(1.92712 -1.21794e-19 0.178226)
(1.80604 -4.00492e-19 0.164095)
(1.6638 2.16519e-19 0.130023)
(1.50654 -2.12756e-19 0.108309)
(1.33464 0 0.101007)
(1.14665 0 0.0962448)
(0.944732 -1.04518e-19 0.0890594)
(0.733183 5.81338e-21 0.082706)
(0.516123 -7.19801e-21 0.081772)
(0.298342 -5.41855e-21 0.0892468)
(0.085877 0 0.106805)
(-0.115605 0 0.134375)
(-0.302266 0 0.169366)
(-0.471852 -1.49272e-19 0.207433)
(-0.623057 -8.72662e-20 0.244333)
(-0.75562 0 0.277168)
(-0.870769 0 0.304477)
(-0.971125 -2.54773e-19 0.325761)
(-1.06003 0 0.341098)
(-1.14061 0 0.350945)
(-1.21515 0 0.356068)
(-1.28478 0 0.3574)
(-1.34973 1.67585e-20 0.355926)
(-1.40936 0 0.352431)
(-1.46261 9.38092e-21 0.347503)
(-1.50786 1.47845e-20 0.341371)
(-1.54358 6.5621e-21 0.334211)
(-1.56797 0 0.325915)
(-1.58007 0 0.316548)
(-1.57856 0 0.305789)
(-1.56317 0 0.293655)
(-1.53234 0 0.279586)
(-1.48571 0 0.263648)
(-1.42061 0 0.245115)
(-1.33655 3.51097e-19 0.22417)
(-1.23006 5.02697e-19 0.199939)
(-1.10164 0 0.172869)
(-0.948852 7.37133e-19 0.142439)
(-0.775528 0 0.109638)
(-0.582652 0 0.0743282)
(-0.377018 -1.47177e-18 0.0369096)
(-0.161396 0 -0.00280288)
(0.058761 6.36967e-19 -0.0453434)
(0.279168 0 -0.0890898)
(0.496651 -8.04728e-19 -0.134633)
(0.70218 6.02192e-21 -0.177204)
(0.896239 0 -0.218423)
(1.06465 0 -0.251241)
(1.21203 0 -0.279449)
(1.32023 -3.20854e-19 -0.295632)
(1.39278 1.28377e-19 -0.304256)
(1.41497 1.93728e-19 -0.299691)
(1.37761 3.06747e-19 -0.281137)
(1.28229 -1.03047e-18 -0.248641)
(1.08518 -5.75219e-19 -0.189659)
(0.822097 0 -0.118809)
(0.413714 0 -0.011684)
(-0.0346287 1.86963e-20 0.0947532)
(-0.597698 0 0.228087)
(-1.11822 0 0.337396)
(-1.62242 9.82681e-18 0.433169)
(-1.98793 0 0.481637)
(-2.11259 0 0.451119)
(-1.93522 -1.01837e-17 0.356235)
(-1.28419 5.48772e-18 0.135632)
(-0.206736 0 -0.132829)
(0.947538 0 -0.401588)
(2.06343 0 -0.570914)
(1.82175 -1.10628e-17 -0.351431)
(0.387686 0 0.175839)
(-3.3222 6.15179e-17 1.12374)
(-6.9361 -4.22159e-17 1.72155)
(-8.24254 0 1.55953)
(-5.63126 0 0.630836)
(-1.01269 3.88381e-17 -0.375069)
(1.44873 -2.8331e-20 -0.327099)
(-2.38712 3.28432e-17 1.00264)
(-7.94858 -4.79527e-17 2.21413)
(-13.4786 4.81183e-18 2.9883)
(-13.0193 -2.87052e-17 2.70298)
(-8.62202 -5.94694e-17 1.13799)
(-4.54703 -1.25109e-19 0.627205)
(-6.29802 0 1.44066)
(-10.95 7.81201e-17 2.71915)
(-20.3784 0 4.86575)
(-27.6093 0 5.97123)
(-31.6541 -1.01355e-16 6.21291)
(-29.7453 0 5.50045)
(-28.3532 0 5.18356)
(-26.5445 0 5.00917)
(-28.9516 -1.04908e-16 5.62207)
(-30.3878 0 6.0576)
(-35.7765 -1.76271e-16 7.15996)
(-37.3578 0 7.30124)
(-36.7294 0 6.6587)
(-25.5387 0 3.98587)
(-13.9612 0 1.55345)
(-0.452525 0 -0.738775)
(1.31882 2.24341e-16 -0.415912)
(-3.07885 4.12546e-16 1.08679)
(-22.536 -4.25642e-16 5.61169)
(-43.602 0 9.9824)
(-68.6051 0 14.7413)
(-86.0315 1.0059e-15 17.6249)
(-99.4046 0 19.6431)
(-101.074 -1.30928e-16 19.5057)
(-101.885 0 19.1489)
(-90.7125 1.62906e-16 16.7744)
(-84.0231 -5.05962e-17 15.404)
(-72.0931 0 13.1977)
(-66.0727 1.11811e-16 12.1672)
(-59.3899 0 11.1364)
(2.47229 6.62342e-20 0.15766)
(2.40509 1.95203e-19 0.113675)
(2.33261 -1.04465e-19 0.147776)
(2.28746 1.24794e-20 0.195487)
(2.23671 1.11074e-19 0.177689)
(2.16949 0 0.129534)
(2.10774 0 0.131265)
(2.06917 2.97193e-20 0.188424)
(2.04187 1.9933e-19 0.234824)
(2.00037 2.99059e-20 0.228908)
(1.92995 -2.03865e-19 0.19319)
(1.8283 2.0032e-19 0.164467)
(1.69535 -1.52409e-19 0.150095)
(1.53122 0 0.138683)
(1.33999 0 0.124616)
(1.12852 5.43047e-20 0.11214)
(0.902961 -1.13468e-19 0.106887)
(0.669098 -6.61078e-20 0.11168)
(0.434055 0 0.127854)
(0.205025 0 0.155639)
(-0.0130664 0 0.192682)
(-0.217644 1.12793e-20 0.234117)
(-0.407158 1.5156e-19 0.274789)
(-0.580598 -8.37765e-20 0.311143)
(-0.738011 -1.92084e-19 0.341505)
(-0.880811 4.48894e-19 0.365405)
(-1.0114 -2.15133e-19 0.382985)
(-1.13228 -2.08495e-19 0.394728)
(-1.24535 -1.88879e-19 0.40142)
(-1.35144 0 0.404023)
(-1.45052 1.36995e-19 0.403578)
(-1.54172 -7.27357e-20 0.400892)
(-1.62388 3.61865e-20 0.396554)
(-1.69518 -3.92417e-20 0.390719)
(-1.75392 -2.26247e-19 0.383513)
(-1.79794 0 0.374734)
(-1.82601 0 0.364439)
(-1.8363 -1.90102e-19 0.352202)
(-1.82836 0 0.338031)
(-1.80009 8.15337e-20 0.321193)
(-1.75107 -1.86593e-22 0.30176)
(-1.67799 0 0.278799)
(-1.58053 -6.5889e-19 0.252567)
(-1.4546 -4.7307e-19 0.221996)
(-1.30121 0 0.187737)
(-1.11735 -6.93614e-19 0.149199)
(-0.907771 -7.48226e-19 0.107702)
(-0.673033 0 0.0630714)
(-0.42135 1.36751e-18 0.0158415)
(-0.155456 -5.17021e-19 -0.0341688)
(0.117469 -5.67014e-19 -0.0874164)
(0.392449 0 -0.141595)
(0.664285 -1.01859e-20 -0.197108)
(0.921743 -1.30811e-18 -0.247747)
(1.16343 0 -0.29546)
(1.37142 0 -0.331429)
(1.5497 3.33533e-19 -0.360687)
(1.67518 1.4868e-19 -0.373932)
(1.7525 -1.07366e-19 -0.377287)
(1.76189 -1.82109e-19 -0.363304)
(1.6962 -2.88325e-19 -0.332058)
(1.55446 4.71789e-19 -0.28305)
(1.2935 1.0503e-18 -0.202807)
(0.954593 0 -0.10944)
(0.454976 0 0.0244781)
(-0.079665 4.41678e-18 0.152098)
(-0.734673 0 0.306218)
(-1.31646 0 0.422286)
(-1.87148 -9.22949e-18 0.517583)
(-2.23616 0 0.549163)
(-2.33532 6.27066e-18 0.488084)
(-2.08164 1.68029e-20 0.352607)
(-1.33599 -5.15192e-18 0.0789137)
(-0.158175 0 -0.225595)
(1.03517 0 -0.503323)
(2.10156 0 -0.619076)
(1.60527 -1.01179e-17 -0.259303)
(-0.189309 0 0.445233)
(-4.40296 -2.88713e-17 1.56023)
(-8.22112 7.91452e-17 2.12336)
(-9.44595 0 1.75856)
(-6.38953 0 0.5863)
(-1.56115 0 -0.457107)
(0.62402 -4.24996e-20 -0.122396)
(-4.06004 -3.07896e-17 1.5807)
(-10.2369 -4.4639e-17 2.92519)
(-16.1185 -4.50985e-18 3.59323)
(-15.2582 -2.82057e-17 2.88411)
(-10.5751 0 1.2939)
(-6.48889 -6.46082e-17 0.940502)
(-9.08245 0 2.11168)
(-14.743 -7.31723e-17 3.63935)
(-25.4878 0 6.18415)
(-33.1808 0 7.25727)
(-37.4105 0 7.33626)
(-35.0217 4.97923e-17 6.42595)
(-33.6368 -9.52291e-18 6.11815)
(-31.7192 0 6.00367)
(-34.7287 9.81538e-17 6.79346)
(-36.4003 -1.39084e-16 7.32578)
(-42.4417 1.64932e-16 8.54443)
(-43.5255 -1.89358e-16 8.48316)
(-42.2223 0 7.49016)
(-29.2795 0 4.3058)
(-16.9662 0 1.71001)
(-3.17233 0 -0.451989)
(-3.16583 -2.09778e-16 0.479601)
(-10.1367 -8.13403e-20 2.88538)
(-33.3653 7.95608e-16 8.41595)
(-57.6372 0 13.3354)
(-85.4977 0 18.5741)
(-104.131 -4.69903e-16 21.4869)
(-118.725 0 23.5082)
(-119.65 1.22353e-16 23.0437)
(-120.382 0 22.4857)
(-107.227 -3.04706e-16 19.6489)
(-99.7764 0 18.1172)
(-86.0949 0 15.6089)
(-79.681 -1.04449e-16 14.5612)
(-71.9024 0 13.4366)
(2.4125 0 0.17941)
(2.36818 -9.88585e-20 0.147001)
(2.3142 0 0.157381)
(2.26573 -1.14187e-19 0.183905)
(2.20351 -2.15347e-19 0.176949)
(2.12904 0 0.149577)
(2.0658 5.31367e-20 0.158102)
(2.03899 0 0.213686)
(2.04547 -2.97133e-20 0.26404)
(2.05655 2.43125e-19 0.267643)
(2.04578 0 0.238722)
(2.00273 0 0.211857)
(1.92499 1.43349e-19 0.197452)
(1.81133 0 0.185234)
(1.66339 0 0.168776)
(1.48638 0 0.152789)
(1.28574 4.96075e-20 0.144194)
(1.06646 2.81829e-20 0.145975)
(0.835466 1.54957e-20 0.159105)
(0.601121 0 0.184378)
(0.36991 0 0.220404)
(0.145183 5.11306e-20 0.26241)
(-0.0712552 -6.52615e-20 0.304457)
(-0.277753 7.87944e-20 0.342236)
(-0.47304 1.8066e-19 0.373808)
(-0.656874 -3.59268e-19 0.398779)
(-0.83013 3.35702e-20 0.417419)
(-0.994148 1.96089e-19 0.43025)
(-1.15004 1.77637e-19 0.438037)
(-1.29804 0 0.441697)
(-1.43761 0 0.442257)
(-1.56745 6.8403e-20 0.440497)
(-1.68612 0 0.436973)
(-1.79152 3.69024e-20 0.431719)
(-1.88178 1.09916e-19 0.424775)
(-1.95426 -1.65312e-19 0.415798)
(-2.00733 0 0.404827)
(-2.0385 1.78748e-19 0.391303)
(-2.04701 1.36613e-19 0.375237)
(-2.03002 -2.51645e-21 0.355689)
(-1.98698 1.39581e-21 0.332749)
(-1.91375 0 0.305243)
(-1.8101 3.08793e-19 0.273535)
(-1.67109 0 0.236341)
(-1.49826 0 0.194554)
(-1.28771 0 0.147492)
(-1.0451 1.03704e-20 0.0968351)
(-0.770272 0 0.0423693)
(-0.472987 -6.38071e-19 -0.0152121)
(-0.155907 9.60613e-19 -0.0760383)
(0.171741 5.32831e-19 -0.140476)
(0.504223 0 -0.205392)
(0.83409 3.69442e-19 -0.271026)
(1.14769 1.24074e-18 -0.329502)
(1.44154 0 -0.383228)
(1.6934 0 -0.421353)
(1.9065 -3.13305e-19 -0.450401)
(2.05202 -1.30611e-19 -0.458888)
(2.13584 4.71121e-20 -0.454882)
(2.13226 1.28374e-19 -0.428908)
(2.03695 0 -0.382172)
(1.84602 0 -0.313776)
(1.51868 -3.53805e-20 -0.209526)
(1.10212 7.23551e-19 -0.091782)
(0.512127 0 0.0698906)
(-0.10417 -2.06212e-18 0.217589)
(-0.842795 0 0.389877)
(-1.47248 0 0.507724)
(-2.06498 0 0.59649)
(-2.4133 0 0.604263)
(-2.48167 -2.702e-20 0.506652)
(-2.15376 2.2211e-20 0.327531)
(-1.34084 4.77407e-18 0.00286956)
(-0.109186 0 -0.327031)
(1.05464 1.01444e-17 -0.595183)
(1.99984 0 -0.631971)
(1.20966 9.48759e-18 -0.10894)
(-0.924036 9.36401e-18 0.780362)
(-5.53804 -2.70876e-17 2.0412)
(-9.43753 -3.70695e-17 2.52326)
(-10.5598 0 1.92129)
(-7.17173 3.60035e-17 0.516957)
(-2.35808 0 -0.501956)
(-0.568877 -3.54394e-17 0.183501)
(-6.03544 -2.87177e-17 2.26836)
(-12.6557 4.18179e-17 3.69833)
(-18.7499 0 4.19702)
(-17.52 5.29928e-17 3.00962)
(-12.7575 0 1.48008)
(-8.84558 -6.01396e-17 1.34932)
(-12.3756 0 2.93258)
(-18.9293 -6.83866e-17 4.80872)
(-30.7644 0 7.59847)
(-38.6885 -1.25227e-16 8.55597)
(-43.0041 8.85765e-17 8.42103)
(-40.1343 -4.65956e-17 7.30288)
(-38.8061 8.91063e-18 7.02116)
(-36.7886 0 6.98518)
(-40.3835 -1.83604e-16 7.95837)
(-42.2383 2.60139e-16 8.58048)
(-48.8058 0 9.87676)
(-49.2845 1.77095e-16 9.56426)
(-47.3643 0 8.19965)
(-33.0215 0 4.56137)
(-20.4174 -1.14056e-16 1.91145)
(-6.91508 0 0.038044)
(-8.89013 0 1.6847)
(-18.5748 -3.60479e-16 5.21264)
(-45.2554 -7.43048e-16 11.3898)
(-72.2896 -3.98199e-16 16.9269)
(-102.51 0 22.5193)
(-122.005 0 25.3565)
(-137.69 0 27.3154)
(-137.934 0 26.5081)
(-138.781 -5.51643e-17 25.7553)
(-123.848 1.42456e-16 22.4831)
(-115.849 0 20.8295)
(-100.392 0 18.0244)
(-93.776 0 17.0066)
(-84.8143 0 15.789)
(2.35778 6.66826e-20 0.182814)
(2.32799 0 0.160002)
(2.28989 1.02867e-19 0.161174)
(2.24466 0 0.176794)
(2.17806 1.04183e-19 0.178177)
(2.09977 0 0.167398)
(2.03254 -4.99416e-20 0.180168)
(2.00276 4.73376e-20 0.227868)
(2.01499 -6.54766e-20 0.274057)
(2.04527 -3.0447e-20 0.283578)
(2.06473 0 0.264179)
(2.05935 0 0.243791)
(2.02627 0 0.233419)
(1.96366 0 0.22473)
(1.86987 0 0.210772)
(1.74617 0 0.195654)
(1.59509 -3.09516e-20 0.186982)
(1.41885 1.40145e-20 0.187901)
(1.22172 -1.45602e-20 0.198721)
(1.01096 0 0.220563)
(0.793542 0 0.253527)
(0.573308 -2.36158e-20 0.293776)
(0.351929 -3.33765e-20 0.335035)
(0.131029 -4.32352e-20 0.372232)
(-0.087339 0 0.403083)
(-0.301371 1.52868e-19 0.427293)
(-0.510095 2.81826e-19 0.445368)
(-0.713167 -1.20807e-19 0.457963)
(-0.910431 0 0.465851)
(-1.10114 0 0.469859)
(-1.28398 0 0.470951)
(-1.45688 -3.25693e-20 0.469833)
(-1.61787 0 0.467014)
(-1.76441 0 0.462373)
(-1.89435 1.19906e-19 0.455826)
(-2.00447 1.55295e-19 0.446834)
(-2.09264 0 0.435395)
(-2.15544 1.6306e-19 0.420791)
(-2.19164 -2.54068e-19 0.403051)
(-2.19741 -6.96419e-20 0.380996)
(-2.17194 -1.14627e-21 0.354746)
(-2.10998 0 0.322841)
(-2.01128 0 0.28578)
(-1.86972 0 0.242028)
(-1.68727 -5.0133e-19 0.192754)
(-1.4588 0 0.137136)
(-1.19074 6.50668e-19 0.0772364)
(-0.881793 6.41388e-19 0.0127951)
(-0.543285 0 -0.0553065)
(-0.177644 -4.45735e-19 -0.127088)
(0.203654 0 -0.202848)
(0.594135 0 -0.278477)
(0.984099 3.67311e-19 -0.354139)
(1.3573 5.60884e-21 -0.420014)
(1.70816 -6.22532e-19 -0.479192)
(2.0094 0 -0.51843)
(2.26357 0 -0.546099)
(2.43493 1.22578e-19 -0.548145)
(2.53086 0 -0.534952)
(2.51854 -1.20463e-19 -0.494769)
(2.39709 0 -0.430195)
(2.15916 0 -0.340176)
(1.76742 -7.91717e-19 -0.209826)
(1.27575 -1.31781e-18 -0.0667472)
(0.599128 -1.09183e-18 0.1229)
(-0.0920372 0 0.288699)
(-0.906074 0 0.476022)
(-1.57166 -3.59977e-18 0.590375)
(-2.19168 -8.00659e-18 0.666684)
(-2.51295 0 0.644616)
(-2.55072 -5.49099e-18 0.505697)
(-2.15727 4.16472e-18 0.282226)
(-1.30953 -4.47537e-18 -0.0890168)