/*--------------------------------*- C++ -*----------------------------------*\
| =========                 |                                                 |
| \\      /  F ield         | OpenFOAM: The Open Source CFD Toolbox           |
|  \\    /   O peration     | Version:  2412                                  |
|   \\  /    A nd           | Website:  www.openfoam.com                      |
|    \\/     M anipulation  |                                                 |
\*---------------------------------------------------------------------------*/
FoamFile
{
    version     2.0;
    format      ascii;
    arch        "LSB;label=32;scalar=64";
    class       surfaceScalarField;
    location    "0.275";
    object      phi_0;
}
// * * * * * * * * * * * * * * * * * * * * * * * * * * * * * * * * * * * * * //

dimensions      [0 3 -1 0 0 0 0];

oriented        oriented;

internalField   nonuniform List<scalar> 
24930
(
0.0179951
0.0127769
-0.030769
0.0106189
0.00737625
0.00696195
0.00365695
0.00518287
0.00177907
0.00420932
0.000973551
0.00358555
0.000623769
0.00313906
0.000446493
0.00279915
0.000339905
0.00252968
0.000269467
0.00230956
0.000220126
0.00212559
0.000183962
0.00196905
0.00015654
0.00183387
0.000135179
0.0017157
0.00011817
0.00161132
0.000104376
0.00151831
9.30141e-05
0.00143478
8.35272e-05
0.00135927
7.55125e-05
0.00129059
6.86711e-05
0.00122782
6.27775e-05
0.00117016
5.76586e-05
0.00111698
5.31799e-05
0.00106774
4.92355e-05
0.001022
4.57408e-05
0.000979371
4.26278e-05
0.00093953
3.98411e-05
0.000902194
3.73353e-05
0.000867121
3.50727e-05
0.000834099
3.30221e-05
0.000802942
3.1157e-05
0.000773487
2.94553e-05
0.000745588
2.78982e-05
0.000719119
2.64693e-05
0.000693964
2.51549e-05
0.000670021
2.3943e-05
0.000647198
2.28235e-05
0.000625411
2.17872e-05
0.000604585
2.08264e-05
0.000584651
1.99341e-05
0.000565546
1.91044e-05
0.000547215
1.83319e-05
0.000529603
1.76119e-05
0.000512663
1.69401e-05
0.00049635
1.63129e-05
0.000480623
1.57272e-05
0.000465444
1.51798e-05
0.000450776
1.46683e-05
0.000436586
1.41898e-05
0.000422844
1.37427e-05
0.00040952
1.33239e-05
0.000396587
1.29334e-05
0.000384019
1.25683e-05
0.00037179
1.22293e-05
0.000359876
1.19142e-05
0.000348255
1.16221e-05
0.000336902
1.13528e-05
0.000325801
1.11018e-05
0.000314927
1.08734e-05
0.00030427
1.06574e-05
0.000293805
1.04643e-05
0.000283528
1.02773e-05
0.00027342
1.01079e-05
0.000263481
9.93859e-06
0.000253718
9.76369e-06
0.000244132
9.58532e-06
0.000234778
9.35399e-06
0.000225646
9.1325e-06
0.000216839
8.80743e-06
0.000208299
8.54007e-06
0.000200136
8.16397e-06
0.000192217
7.91917e-06
0.000184538
7.67941e-06
0.000176869
7.66967e-06
0.000168922
7.94665e-06
0.00016043
8.49181e-06
0.000151055
9.37375e-06
0.000140953
1.00992e-05
0.000130909
1.00413e-05
0.000122209
8.69671e-06
0.000116428
5.77995e-06
0.00011243
3.99755e-06
0.000107795
4.63492e-06
9.94073e-05
8.38663e-06
8.7063e-05
1.23433e-05
7.52661e-05
1.17973e-05
6.79849e-05
7.28395e-06
6.61729e-05
1.82036e-06
6.70845e-05
-9.04516e-07
6.39404e-05
3.14853e-06
5.41625e-05
9.77979e-06
4.17368e-05
1.24268e-05
3.28042e-05
8.93293e-06
3.44439e-05
-1.64093e-06
4.97935e-05
-1.53502e-05
7.49425e-05
-2.5149e-05
0.000103027
-2.80854e-05
0.000129096
-2.60719e-05
0.000153844
-2.47512e-05
0.000178801
-2.49616e-05
0.000208503
-2.97053e-05
0.000244637
-3.61365e-05
0.00029319
-4.85544e-05
0.000347652
-5.44599e-05
0.000397679
-5.00246e-05
0.00042688
-2.91988e-05
0.000431181
-4.29695e-06
0.000408919
2.22635e-05
0.000377927
3.09917e-05
0.00035385
2.40778e-05
0.000360171
-6.32415e-06
0.000419626
-5.94582e-05
0.000512873
-9.32497e-05
0.000675622
-0.000162751
0.000843714
-0.000168092
0.00107196
-0.000228247
0.00127253
-0.000200572
0.00151814
-0.000245607
0.00172619
-0.00020805
0.00203171
-0.000305516
-0.000363392
0.0337233
0.0163438
-0.0372903
0.0277801
0.0133194
0.0222202
0.00921689
0.0179398
0.00605943
0.0148892
0.00402417
0.0127257
0.0027873
0.0111365
0.00203566
0.00991798
0.00155844
0.00894967
0.00123777
0.00815852
0.00101128
0.0074977
0.000844784
0.00693585
0.000718386
0.00645116
0.000619864
0.00602794
0.000541393
0.00565456
0.00047775
0.00532224
0.000425331
0.00502419
0.000381575
0.00475508
0.000344622
0.00451066
0.000313092
0.00428749
0.000285943
0.00408277
0.000262376
0.00389418
0.000241768
0.00371979
0.000223628
0.00355797
0.000207566
0.00340733
0.000193267
0.00326669
0.000180474
0.00313505
0.000168977
0.00301152
0.000158603
0.00289534
0.000149205
0.00278583
0.000140662
0.00268242
0.000132872
0.00258457
0.000125746
0.00249183
0.000119212
0.00240378
0.000113203
0.00232005
0.000107667
0.00224032
0.000102554
0.00216429
9.78234e-05
0.00209168
9.34395e-05
0.00202224
8.93699e-05
0.00195576
8.55875e-05
0.00189202
8.20669e-05
0.00183085
7.8787e-05
0.00177206
7.57282e-05
0.0017155
7.28737e-05
0.00166102
7.02085e-05
0.00160848
6.77186e-05
0.00155776
6.53927e-05
0.00150873
6.32174e-05
0.00146129
6.11848e-05
0.00141533
5.92825e-05
0.00137076
5.75075e-05
0.00132748
5.5849e-05
0.0012854
5.43068e-05
0.00124444
5.28711e-05
0.00120453
5.15386e-05
0.00116558
5.03036e-05
0.00112753
4.91535e-05
0.00109031
4.80939e-05
0.00105387
4.70978e-05
0.00101814
4.61859e-05
0.000983107
4.5314e-05
0.000948713
4.45013e-05
0.000914954
4.36979e-05
0.000881847
4.28696e-05
0.000849413
4.20185e-05
0.000817783
4.0984e-05
0.000786961
3.99541e-05
0.000757183
3.85852e-05
0.000728327
3.73965e-05
0.000700618
3.58736e-05
0.000673677
3.48605e-05
0.000647442
3.39157e-05
0.000621128
3.39847e-05
0.000594008
3.50676e-05
0.000565142
3.73596e-05
0.000533898
4.06181e-05
0.000500816
4.31823e-05
0.000468597
4.22613e-05
0.000441107
3.61874e-05
0.000422297
2.45902e-05
0.000408061
1.82326e-05
0.000390997
2.16975e-05
0.000362278
3.7104e-05
0.000323602
5.10185e-05
0.000288104
4.72929e-05
0.000267257
2.81286e-05
0.000262408
6.67451e-06
0.0002637
-2.19326e-06
0.000252063
1.47841e-05
0.000221986
3.98554e-05
0.000186564
4.78475e-05
0.000164541
3.09564e-05
0.00017766
-1.47589e-05
0.000231397
-6.9086e-05
0.000314638
-0.00010839
0.000403965
-0.00011741
0.000489663
-0.000111768
0.00057042
-0.000105505
0.000656296
-0.000110834
0.000755493
-0.000128901
0.000879207
-0.000159848
0.00103557
-0.00020492
0.0012079
-0.000226783
0.00135692
-0.000199051
0.00144348
-0.000115756
0.00145365
-1.44736e-05
0.00139691
7.90041e-05
0.00132466
0.000103235
0.00129351
5.52245e-05
0.00136575
-7.85659e-05
0.00160286
-0.000296575
0.00195259
-0.000442977
0.0024946
-0.000704761
0.0030684
-0.000741896
0.00379572
-0.000955568
0.00445572
-0.000860573
0.00523155
-0.00102143
0.00590701
-0.00088351
0.00687446
-0.00127296
-0.00147291
0.0414983
0.0160378
-0.0411922
0.0392074
0.0156103
0.0352741
0.0131501
0.0309833
0.0103503
0.0270639
0.00794349
0.0237711
0.00608018
0.0210935
0.00471317
0.0189224
0.00372957
0.0171429
0.0030173
0.0156622
0.00249192
0.0144114
0.00209561
0.01334
0.00178978
0.0124111
0.00154879
0.0115971
0.00135536
0.0108773
0.0011976
0.0102355
0.00106711
0.00965923
0.000957834
0.00913853
0.000865316
0.0086654
0.000786224
0.00823332
0.000718021
0.00783694
0.000658747
0.00747184
0.000606868
0.0071343
0.000561174
0.00682117
0.000520692
0.0065298
0.000484639
0.0062579
0.000452375
0.0060035
0.000423374
0.0057649
0.0003972
0.00554062
0.000373489
0.00532934
0.000351936
0.00512993
0.000332281
0.00494138
0.000314305
0.00476277
0.00029782
0.00459331
0.000282665
0.00443227
0.0002687
0.00427902
0.000255807
0.00413297
0.00024388
0.00399358
0.000232828
0.00386038
0.000222571
0.00373293
0.000213038
0.00361083
0.000204167
0.00349371
0.000195904
0.00338124
0.0001882
0.0032731
0.000181012
0.00316901
0.000174301
0.0030687
0.000168033
0.00297191
0.000162178
0.00287843
0.000156704
0.00278802
0.000151588
0.0027005
0.000146802
0.00261568
0.000142335
0.00253336
0.000138162
0.00245339
0.000134277
0.00237561
0.000130657
0.00229986
0.000127292
0.002226
0.000124164
0.0021539
0.000121248
0.00208345
0.000118544
0.00201455
0.000116005
0.00194708
0.000113652
0.00188098
0.000111411
0.00181619
0.000109292
0.00175268
0.000107208
0.00169049
0.000105063
0.00162964
0.000102863
0.00157035
0.00010028
0.00151262
9.76824e-05
0.00145679
9.441e-05
0.00140268
9.1511e-05
0.00135057
8.79847e-05
0.0012998
8.56261e-05
0.00125023
8.34938e-05
0.00120042
8.37904e-05
0.00114929
8.61981e-05
0.00109518
9.14763e-05
0.00103744
9.83553e-05
0.000977145
0.000103477
0.00091927
0.000100136
0.000870221
8.52372e-05
0.000835749
5.90616e-05
0.000807986
4.59956e-05
0.000774357
5.5325e-05
0.000720871
9.05882e-05
0.000653
0.000118888
0.00059268
0.000107611
0.000558516
6.22905e-05
0.000550716
1.44704e-05
0.000551052
-2.52964e-06
0.00052874
3.70938e-05
0.000477401
9.11935e-05
0.000420839
0.000104409
0.00039124
6.05556e-05
0.000425261
-4.87803e-05
0.000528003
-0.000171827
0.000680235
-0.000260621
0.000840127
-0.000277301
0.000996117
-0.000267756
0.00114374
-0.000253125
0.00130495
-0.000272045
0.00148913
-0.000313079
0.00171953
-0.00039025
0.00200032
-0.000485707
0.00230378
-0.000530241
0.00255694
-0.000452211
0.00270389
-0.000262711
0.00272298
-3.35672e-05
0.00264616
0.000155822
0.00256066
0.00018873
0.00257184
4.40412e-05
0.00277355
-0.000280284
0.0032653
-0.000788326
0.00395376
-0.00113144
0.00495837
-0.00170937
0.00602253
-0.00180606
0.00732868
-0.00226172
0.00852533
-0.00205722
0.00990872
-0.00240482
0.0111262
-0.00210096
0.0128364
-0.0029832
-0.0034232
0.0459625
0.0147367
-0.0446614
0.0460467
0.0155261
0.0444676
0.0147292
0.0417423
0.0130756
0.0384962
0.0111896
0.0351885
0.00938792
0.0320871
0.00781457
0.0293067
0.00650993
0.0268664
0.00545761
0.0247401
0.00461821
0.0228867
0.00394902
0.0212642
0.00341228
0.0198354
0.00297762
0.018569
0.00262176
0.0174394
0.0023272
0.0164257
0.00208078
0.0155109
0.0018726
0.0146811
0.0016951
0.0139248
0.00154252
0.0132325
0.00141034
0.0125962
0.00129503
0.0120093
0.0011938
0.0114661
0.00110442
0.0109617
0.00102506
0.0104921
0.000954256
0.0100536
0.000890802
0.00964332
0.000833693
0.00925842
0.000782098
0.0088966
0.000735316
0.00855578
0.000692758
0.00823413
0.000653925
0.00793005
0.00061839
0.00764208
0.000585788
0.00736894
0.000555805
0.00710947
0.00052817
0.00686263
0.000502647
0.00662748
0.000479032
0.00640316
0.000457146
0.0061889
0.000436831
0.00598399
0.000417949
0.00578778
0.000400377
0.00559968
0.000384009
0.00541913
0.000368747
0.00524564
0.000354507
0.00507873
0.000341213
0.00491796
0.000328797
0.00476294
0.000317197
0.00461329
0.000306353
0.00446867
0.000296218
0.00432873
0.000286738
0.00419318
0.000277886
0.00406173
0.000269616
0.00393409
0.00026191
0.00381003
0.000254723
0.00368929
0.000248033
0.00357165
0.000241799
0.00345692
0.00023598
0.00334491
0.000230557
0.00323545
0.000225461
0.0031284
0.000220703
0.00302364
0.000216172
0.00292108
0.000211852
0.00282067
0.000207613
0.00272247
0.000203262
0.00262652
0.00019882
0.00253306
0.00019373
0.00244213
0.000188615
0.00235414
0.000182402
0.00226878
0.000176868
0.0021864
0.000170367
0.002106
0.000166028
0.00202731
0.000162185
0.00194823
0.000162867
0.00186737
0.000167069
0.00178236
0.00017648
0.00169283
0.000187889
0.00160052
0.000195786
0.00151296
0.000187696
0.00143888
0.000159317
0.00138536
0.000112583
0.00134003
9.13274e-05
0.00128519
0.000110164
0.00120248
0.000173294
0.00110259
0.00021878
0.0010164
0.000193795
0.000969029
0.000109659
0.000958033
2.54606e-05
0.000956009
-5.06632e-07
0.000921379
7.17211e-05
0.000848766
0.000163805
0.000774349
0.000178826
0.000744362
9.05427e-05
0.000810118
-0.000114536
0.000973352
-0.000335061
0.00120617
-0.000493434
0.00144701
-0.00051814
0.00168491
-0.000505661
0.00191191
-0.000480125
0.00216408
-0.000524215
0.00245059
-0.000599587
0.00280727
-0.000746924
0.00322955
-0.000907991
0.00367708
-0.000977768
0.00404134
-0.000816479
0.00425448
-0.000475852
0.00429196
-7.10499e-05
0.00421731
0.000230473
0.00415712
0.000248917
0.00427004
-6.88868e-05
0.00467416
-0.000684405
0.0055061
-0.00162027
0.00662134
-0.00224668
0.00818077
-0.00326879
0.00982248
-0.00344777
0.0117983
-0.00423755
0.0136123
-0.00387116
0.015693
-0.00448552
0.0175336
-0.00394158
0.0200676
-0.00551724
-0.00631701
0.0494307
0.0135417
-0.0482357
0.0503956
0.0145613
0.0504147
0.0147101
0.049393
0.0140973
0.047548
0.0130346
0.0451724
0.0117636
0.0425379
0.010449
0.0398513
0.0091965
0.0372476
0.00806133
0.0348014
0.00706444
0.0325449
0.00620547
0.0304842
0.00547296
0.028611
0.00485091
0.0269101
0.00432265
0.0253645
0.00387279
0.0239573
0.00348801
0.0226727
0.00315715
0.0214967
0.00287106
0.020417
0.00262227
0.0194226
0.0024047
0.0185042
0.00221342
0.0176536
0.0020444
0.0168637
0.00189431
0.0161283
0.00176045
0.0154421
0.00164054
0.0148002
0.00153271
0.0141985
0.00143538
0.0136334
0.00134722
0.0131016
0.00126711
0.0126002
0.00119409
0.0121268
0.00112735
0.011679
0.0010662
0.0112548
0.00101002
0.0108523
0.000958292
0.0104699
0.00091057
0.0101061
0.000866459
0.00975949
0.000825614
0.0094289
0.000787734
0.00911318
0.000752553
0.00881129
0.000719837
0.00852229
0.000689378
0.00824531
0.000660993
0.00797954
0.000634518
0.00772424
0.000609809
0.00747871
0.000586736
0.00724233
0.00056518
0.00701449
0.000545038
0.00679464
0.000526204
0.00658226
0.000508598
0.00637687
0.000492128
0.00617801
0.000476744
0.00598527
0.000462365
0.00579822
0.000448957
0.00561651
0.000436438
0.00543977
0.000424768
0.0052677
0.00041387
0.0051
0.000403681
0.00493641
0.00039415
0.00477669
0.000385182
0.00462063
0.000376756
0.00446808
0.000368728
0.0043189
0.000361025
0.00417303
0.000353482
0.00403054
0.000345759
0.00389143
0.000337925
0.00375604
0.000329115
0.00362435
0.000320315
0.00349683
0.000309917
0.00337303
0.000300668
0.00325331
0.000290089
0.00313628
0.000283059
0.00302155
0.000276913
0.00290632
0.000278097
0.00278896
0.000284434
0.00266652
0.00029892
0.0025391
0.000315306
0.0024093
0.000325589
0.00228737
0.000309621
0.00218403
0.000262661
0.00210718
0.000189433
0.00203937
0.000159133
0.00195812
0.000191417
0.00184163
0.000289781
0.00170706
0.000353351
0.00159408
0.000306773
0.00153345
0.000170285
0.00151867
4.02421e-05
0.00151286
5.29772e-06
0.00146488
0.000119697
0.00137226
0.000256423
0.00128504
0.000266042
0.00126369
0.0001119
0.00137338
-0.00022423
0.00160955
-0.000571225
0.00193522
-0.000819106
0.00226818
-0.000851098
0.00260066
-0.000838137
0.00292069
-0.000800158
0.00328078
-0.000884305
0.00368809
-0.0010069
0.0041912
-0.00125003
0.00477192
-0.00148871
0.00537648
-0.00158233
0.00586017
-0.00130017
0.00614925
-0.000764937
0.00622101
-0.000142817
0.00618017
0.000271309
0.00619392
0.00023517
0.00647867
-0.000353643
0.00716643
-0.00137217
0.00843155
-0.00288539
0.0100661
-0.00388124
0.0122785
-0.00548122
0.0145898
-0.005759
0.0173336
-0.00698143
0.0198536
-0.00639114
0.0227297
-0.00736166
0.025286
-0.00649778
0.0287241
-0.00895535
-0.0102538
0.052892
0.0126432
-0.0519935
0.053921
0.0135323
0.0546055
0.0140255
0.0546752
0.0140276
0.0540772
0.0136326
0.0528807
0.0129601
0.0512149
0.0121148
0.0492263
0.0111852
0.0470494
0.0102382
0.044795
0.00931882
0.0425455
0.00845504
0.0403568
0.00766157
0.0382638
0.00694391
0.036285
0.0063015
0.0344277
0.00573008
0.0326922
0.00522352
0.0310743
0.00477497
0.0295678
0.00437762
0.0281649
0.0040251
0.026858
0.00371164
0.0256392
0.00343219
0.0245013
0.00318231
0.0234374
0.00295821
0.0224413
0.0027566
0.0215071
0.00257469
0.0206298
0.00241005
0.0198045
0.00226062
0.0190271
0.00212463
0.0182937
0.00200053
0.0176008
0.00188701
0.0169452
0.00178291
0.0163242
0.00168725
0.015735
0.00159914
0.0151755
0.00151784
0.0146434
0.00144268
0.0141368
0.00137309
0.0136538
0.00130854
0.013193
0.0012486
0.0127527
0.00119285
0.0123315
0.00114096
0.0119283
0.00109259
0.0115418
0.00104748
0.011171
0.00100537
0.0108148
0.000966038
0.0104722
0.000929286
0.0101425
0.000894931
0.00982468
0.000862811
0.00951812
0.000832764
0.00922206
0.000804662
0.00893583
0.000778363
0.00865879
0.000753784
0.00839035
0.000730798
0.00812997
0.000709343
0.00787712
0.000689289
0.00763132
0.000670567
0.00739214
0.000653049
0.00715918
0.000636642
0.00693208
0.000621245
0.00671054
0.000606729
0.00649427
0.000593025
0.00628304
0.000579952
0.00607672
0.000567348
0.00587518
0.000555025
0.00567849
0.000542439
0.00548666
0.00052976
0.00530005
0.000515724
0.00511855
0.000501816
0.00494271
0.000485752
0.00477185
0.000471535
0.00460632
0.000455611
0.0044443
0.000445081
0.00428529
0.000435927
0.00412577
0.000437621
0.003964
0.000446209
0.00379654
0.00046638
0.00362425
0.000487594
0.00345064
0.000499193
0.00328883
0.000471431
0.00315102
0.000400479
0.00304551
0.000294938
0.00294939
0.000255252
0.00283598
0.000304824
0.0026811
0.000444659
0.00250932
0.000525127
0.00236859
0.000447504
0.00229438
0.000244495
0.00227485
5.97749e-05
0.00226387
1.62693e-05
0.00220238
0.000181185
0.00209248
0.000366323
0.00199938
0.000359135
0.00199738
0.000113907
0.00216441
-0.000391263
0.00248646
-0.000893275
0.00291786
-0.0012505
0.00335462
-0.00128787
0.00379521
-0.00127872
0.00422261
-0.00122755
0.00470846
-0.00137016
0.00525539
-0.00155383
0.00592516
-0.00191981
0.00668079
-0.00224434
0.00745587
-0.00235741
0.00806951
-0.00191381
0.00844934
-0.00114477
0.00857823
-0.000271715
0.00861164
0.000237901
0.00875631
9.04901e-05
0.00929029
-0.000887628
0.0103483
-0.00243018
0.0121427
-0.0046798
0.0143922
-0.00613072
0.0173587
-0.00844774
0.0204364
-0.00883664
0.0240529
-0.010598
0.0273772
-0.00971545
0.0311545
-0.011139
0.0345318
-0.009875
0.0389534
-0.013377
-0.0153262
0.0566154
0.0119559
-0.0559281
0.0574694
0.0126783
0.0582664
0.0132285
0.0587937
0.0135003
0.0589291
0.0134972
0.0586266
0.0132625
0.0578956
0.0128458
0.0567839
0.0122969
0.0553599
0.0116622
0.0536989
0.0109798
0.0518745
0.0102795
0.0499519
0.00958415
0.0479858
0.00890999
0.0460193
0.00826801
0.0440844
0.00766495
0.0422037
0.00710423
0.0403919
0.00658681
0.0386576
0.0061119
0.0370051
0.00567758
0.0354355
0.00528125
0.0339477
0.00491998
0.0325393
0.00459075
0.0312069
0.00429061
0.0299467
0.00401677
0.0287547
0.00376664
0.0276269
0.00353785
0.0265593
0.00332827
0.025548
0.00313597
0.0245893
0.00295923
0.0236797
0.00279654
0.0228161
0.00264652
0.0219954
0.00250796
0.0212148
0.0023798
0.0204715
0.00226107
0.0197633
0.00215092
0.0190878
0.00204861
0.0184429
0.00195346
0.0178266
0.00186486
0.0172372
0.00178228
0.0166729
0.00170524
0.0161322
0.00163332
0.0156135
0.00156611
0.0151156
0.00150329
0.0146371
0.00144453
0.0141769
0.00138955
0.0137337
0.00133811
0.0133065
0.00128996
0.0128944
0.00124488
0.0124964
0.00120268
0.0121116
0.00116315
0.0117392
0.00112618
0.0113784
0.00109158
0.0110286
0.00105924
0.0106889
0.00102898
0.0103588
0.00100068
0.0100377
0.000974148
0.00972505
0.000949253
0.00942047
0.000925822
0.00912351
0.000903686
0.00883384
0.000882701
0.00855114
0.000862648
0.00827525
0.000843242
0.00800598
0.000824289
0.00774344
0.000804981
0.00748754
0.000785658
0.00723871
0.000764552
0.0069967
0.000743829
0.00676211
0.000720348
0.00653394
0.000699704
0.00631257
0.00067698
0.00609564
0.000662007
0.0058826
0.000648973
0.00566922
0.000651004
0.00545381
0.000661623
0.00523256
0.000687626
0.00500736
0.000712795
0.00478266
0.000723889
0.00457442
0.000679669
0.00439576
0.000579146
0.00425508
0.000435621
0.00412381
0.000386521
0.00397198
0.000456643
0.00377404
0.000642605
0.00356257
0.000736594
0.00339297
0.000617101
0.00330443
0.000333027
0.00327885
8.53626e-05
0.00326161
3.34992e-05
0.00318744
0.000255347
0.00306459
0.000489177
0.00297452
0.000449208
0.00300407
8.43503e-05
0.00324274
-0.000629932
0.00366393
-0.00131446
0.00421423
-0.0018008
0.00476675
-0.00184039
0.00532942
-0.00184139
0.00587853
-0.00177666
0.00650803
-0.00199966
0.00721283
-0.00225863
0.00806882
-0.0027758
0.00901502
-0.00319054
0.0099749
-0.00331729
0.0107317
-0.00267065
0.0112225
-0.00163557
0.0114378
-0.000486968
0.0115934
8.23094e-05
0.0119312
-0.000247348
0.0127957
-0.00175215
0.0143116
-0.00394603
0.0167311
-0.00709933
0.0196907
-0.00909027
0.0235129
-0.01227
0.0274573
-0.0127811
0.0320562
-0.0151968
0.0362933
-0.0139526
0.0410837
-0.0159294
0.0454008
-0.0141922
0.050884
-0.0188602
-0.0216147
0.0606243
0.0113923
-0.0600608
0.0613091
0.0119936
0.0620241
0.0125135
0.0626466
0.0128779
0.0630789
0.0130649
0.0632573
0.0130842
0.063146
0.012957
0.0627347
0.0127082
0.0620336
0.0123633
0.0610672
0.0119461
0.05987
0.0114767
0.0584816
0.0109726
0.0569432
0.0104484
0.0552949
0.00991629
0.0535736
0.00938623
0.0518118
0.00886607
0.0500367
0.00836188
0.0482705
0.00787807
0.0465305
0.0074176
0.0448295
0.00698224
0.0431767
0.00657276
0.0415783
0.00618916
0.040038
0.00583087
0.0385579
0.00549694
0.0371383
0.00518617
0.035779
0.00489721
0.0344786
0.00462865
0.0332355
0.00437908
0.0320476
0.0041471
0.0309127
0.00393141
0.0298285
0.00373074
0.0287925
0.00354394
0.0278024
0.00336992
0.0268558
0.00320768
0.0259504
0.00305632
0.025084
0.002915
0.0242545
0.00278297
0.0234598
0.00265952
0.0226981
0.00254403
0.0219674
0.00243592
0.0212661
0.00233467
0.0205924
0.00223982
0.0199447
0.00215091
0.0193217
0.00206758
0.0187218
0.00198944
0.0181437
0.00191619
0.0175862
0.00184751
0.017048
0.0017831
0.0165279
0.00172273
0.0160249
0.00166611
0.015538
0.00161308
0.0150662
0.00156338
0.0146086
0.00151686
0.0141643
0.00147327
0.0137326
0.00143243
0.0133127
0.00139406
0.0129039
0.00135799
0.0125058
0.00132394
0.0121178
0.0012917
0.0117395
0.00126102
0.0113705
0.00123164
0.0110106
0.00120312
0.0106596
0.00117529
0.0103176
0.001147
0.0099844
0.00111886
0.00966048
0.00108847
0.0093454
0.00105891
0.00903979
0.00102596
0.00874229
0.000997206
0.00845328
0.000965996
0.00816981
0.000945472
0.00789133
0.00092746
0.00761294
0.000929389
0.0073332
0.000941372
0.00704807
0.000972755
0.00676069
0.00100017
0.00647644
0.00100815
0.00621399
0.000942119
0.00598672
0.000806412
0.00580299
0.000619356
0.00562868
0.000560831
0.00543166
0.000653656
0.00518585
0.000888409
0.00493208
0.000990362
0.00473215
0.000817036
0.00462801
0.000437161
0.00459474
0.000118634
0.00457048
5.77508e-05
0.00448571
0.00034012
0.00435586
0.000619022
0.00427929
0.000525774
0.00435391
9.73161e-06
0.00467904
-0.000955053
0.00521252
-0.00184793
0.00589496
-0.00248324
0.00657496
-0.00252039
0.00727349
-0.00253991
0.00795768
-0.00246085
0.00874763
-0.00278962
0.00962668
-0.00313767
0.0106868
-0.00383593
0.0118381
-0.0043418
0.0129981
-0.00447727
0.0139142
-0.00358681
0.0145413
-0.00226267
0.014877
-0.000822641
0.0152064
-0.000247148
0.0158005
-0.000841397
0.0170741
-0.00302576
0.019131
-0.00600299
0.0222656
-0.0102339
0.0260263
-0.0128509
0.0308021
-0.0170458
0.0357155
-0.0176946
0.0414088
-0.02089
0.0466776
-0.0192214
0.0525966
-0.0218484
0.057985
-0.0195806
0.0646075
-0.0254826
-0.029183
0.0649123
0.0109073
-0.0644273
0.0654781
0.0114278
0.0660861
0.0119054
0.0666712
0.0122927
0.0671708
0.0125653
0.0675364
0.0127186
0.0677326
0.0127608
0.0677355
0.0127053
0.0675319
0.0125669
0.0671179
0.0123602
0.0664969
0.0120977
0.0656795
0.0117899
0.0646815
0.0114464
0.0635228
0.011075
0.062226
0.010683
0.0608152
0.0102769
0.0593147
0.00986236
0.057748
0.00944478
0.0561368
0.00902881
0.0545006
0.00861849
0.0528561
0.00821717
0.0512177
0.00782756
0.0495969
0.00745167
0.0480029
0.00709096
0.0464428
0.00674633
0.0449217
0.00641826
0.0434435
0.00610689
0.0420105
0.00581204
0.0406243
0.00553334
0.0392854
0.00527029
0.0379939
0.00502226
0.0367492
0.00478857
0.0355506
0.00456852
0.034397
0.00436137
0.0332869
0.00416641
0.0322189
0.00398295
0.0311916
0.00381032
0.0302032
0.00364788
0.0292522
0.00349503
0.0283369
0.00335119
0.0274558
0.00321584
0.0266071
0.00308848
0.0257894
0.00296864
0.0250011
0.0028559
0.0242407
0.00274986
0.0235067
0.00265014
0.0227978
0.00255639
0.0221127
0.00246827
0.0214499
0.00238547
0.0208084
0.00230767
0.0201868
0.00223465
0.0195841
0.00216609
0.0189991
0.0021018
0.018431
0.00204142
0.0178787
0.00198474
0.0173414
0.00193138
0.0168183
0.00188108
0.0163087
0.00183347
0.0158122
0.00178827
0.0153281
0.00174511
0.014856
0.00170369
0.0143958
0.00166335
0.0139471
0.00162399
0.01351
0.00158406
0.0130843
0.00154455
0.0126705
0.00150229
0.0122679
0.00146154
0.0118771
0.00141675
0.0114964
0.00137796
0.011126
0.00133633
0.0107626
0.00130894
0.0104054
0.00128457
0.0100492
0.00128562
0.00969285
0.00129774
0.00933226
0.00133334
0.00897207
0.00136036
0.00861843
0.00136179
0.00829255
0.001268
0.00800739
0.00109157
0.00777126
0.000855483
0.0075449
0.000787192
0.00729531
0.000903236
0.00699661
0.00118711
0.00669759
0.00128938
0.00646531
0.00104932
0.00634365
0.00055882
0.00630081
0.000161469
0.00626926
8.92966e-05
0.00617707
0.000432307
0.00604766
0.000748432
0.00599691
0.000576521
0.00613019
-0.000123542
0.00655683
-0.00138169
0.00721518
-0.00250628
0.00804257
-0.00331062
0.00886092
-0.00333875
0.00970795
-0.00338694
0.0105383
-0.00329121
0.0115028
-0.00375408
0.0125689
-0.00420382
0.0138482
-0.00511526
0.0152173
-0.00571083
0.0165934
-0.00585341
0.0176874
-0.00468081
0.0184797
-0.00305497
0.0189715
-0.0013144
0.0195255
-0.000801217
0.0204324
-0.0017483
0.0221839
-0.00477726
0.0248539
-0.008673
0.0287813
-0.0141613
0.033425
-0.0174946
0.0392434
-0.0228642
0.0452269
-0.0236781
0.052125
-0.0277881
0.0585534
-0.0256498
0.0657176
-0.0290126
0.0723171
-0.0261801
0.0801567
-0.0333222
-0.0380748
0.0694883
0.0104794
-0.0690603
0.0699722
0.0109438
0.0704931
0.0113845
0.0710153
0.0117706
0.071499
0.0120815
0.0719106
0.012307
0.0722241
0.0124474
0.07242
0.0125093
0.0724844
0.0125025
0.0724072
0.0124374
0.0721816
0.0123233
0.0718038
0.0121678
0.0712731
0.011977
0.070592
0.0117561
0.0697659
0.0115091
0.0688033
0.0112395
0.0677152
0.0109504
0.0665152
0.0106448
0.0652181
0.0103259
0.0638397
0.00999684
0.0623961
0.00966074
0.060903
0.00932071
0.059375
0.00897968
0.0578256
0.00864032
0.0562669
0.00830503
0.0547093
0.00797582
0.0531618
0.0076544
0.0516318
0.00734209
0.0501252
0.0070399
0.0486469
0.00674856
0.0472007
0.00646853
0.0457892
0.00620007
0.0444144
0.00594328
0.0430777
0.00569809
0.0417798
0.00546435
0.0405209
0.00524183
0.039301
0.00503022
0.0381197
0.0048292
0.0369763
0.00463839
0.0358701
0.00445742
0.0348
0.00428591
0.033765
0.00412346
0.032764
0.00396971
0.0317956
0.00382428
0.0308586
0.00368681
0.0299518
0.00355696
0.0290738
0.0034344
0.0282233
0.00331875
0.0273991
0.00320973
0.0265998
0.00310697
0.0258242
0.00301024
0.0250711
0.00291916
0.0243394
0.00283353
0.0236279
0.0027529
0.0229356
0.00267702
0.0222616
0.00260537
0.021605
0.00253766
0.0209652
0.00247336
0.0203413
0.00241215
0.0197329
0.00235347
0.0191396
0.00229701
0.0185611
0.00224186
0.017997
0.00218803
0.0174477
0.00213344
0.0169125
0.00207969
0.0163922
0.00202262
0.0158857
0.00196805
0.0153937
0.00190872
0.0149139
0.00185774
0.0144468
0.00180348
0.013988
0.00176771
0.0135373
0.00173528
0.0130886
0.00173426
0.0126417
0.00174468
0.0121925
0.00178252
0.0117474
0.00180552
0.011313
0.00179615
0.0109129
0.00166812
0.0105589
0.00144559
0.0102595
0.0011549
0.00997085
0.0010758
0.00966063
0.00121346
0.00930352
0.00154422
0.00895571
0.00163718
0.00868833
0.0013167
0.00854647
0.000700675
0.00849193
0.000216013
0.0084532
0.000128019
0.00835789
0.000527616
0.00823752
0.000868793
0.00822544
0.000588601
0.00843169
-0.000329789
0.00897394
-0.00192394
0.00976858
-0.00330092
0.0107527
-0.0042947
0.0117186
-0.00430464
0.0127244
-0.00439282
0.0137081
-0.00427486
0.0148563
-0.00490232
0.0161167
-0.00546417
0.0176257
-0.0066243
0.0192223
-0.00730736
0.0208305
-0.00746161
0.0221217
-0.00597206
0.0231088
-0.00404211
0.0237895
-0.00199502
0.0246106
-0.00162235
0.025873
-0.0030107
0.0281516
-0.0070559
0.0314877
-0.0120091
0.0362659
-0.0189395
0.0418604
-0.0230892
0.0487951
-0.0297988
0.0559437
-0.0308267
0.0641501
-0.0359945
0.0718714
-0.0333711
0.0803954
-0.0375366
0.0883473
-0.034132
0.0974821
-0.042457
-0.0483122
0.0743718
0.0100959
-0.0739884
0.0747966
0.0105191
0.0752516
0.0109295
0.0757161
0.011306
0.0761643
0.0116333
0.0765716
0.0118998
0.0769181
0.0121008
0.0771894
0.0122381
0.077375
0.0123169
0.0774676
0.0123448
0.0774615
0.0123294
0.0773517
0.0122776
0.0771337
0.012195
0.0768038
0.012086
0.0763588
0.0119541
0.075797
0.0118014
0.075118
0.0116294
0.0743236
0.0114392
0.0734177
0.0112318
0.0724064
0.0110082
0.0712976
0.0107696
0.0701007
0.0105176
0.0688265
0.0102539
0.0674864
0.00998051
0.0660918
0.00969958
0.0646544
0.00941327
0.063185
0.00912372
0.0616941
0.00883298
0.0601911
0.00854294
0.0586844
0.00825531
0.0571813
0.00797158
0.0556884
0.00769302
0.054211
0.00742069
0.0527536
0.00715544
0.05132
0.00689795
0.0499131
0.00664873
0.0485352
0.00640814
0.047188
0.00617642
0.0458726
0.0059537
0.04459
0.00574005
0.0433405
0.00553544
0.0421241
0.00533981
0.0409408
0.00515304
0.0397901
0.00497498
0.0386715
0.00480546
0.0375842
0.00464427
0.0365273
0.00449122
0.0355001
0.00434601
0.0345014
0.00420844
0.0335302
0.00407817
0.0325854
0.00395504
0.0316659
0.00383864
0.0307706
0.00372881
0.0298985
0.00362501
0.0290485
0.003527
0.0282198
0.00343413
0.0274113
0.00334607
0.0266226
0.00326214
0.0258528
0.00318196
0.0251014
0.00310478
0.0243681
0.0030303
0.0236527
0.00295726
0.0229549
0.00288589
0.0222748
0.0028135
0.0216121
0.00274245
0.0209673
0.00266742
0.0203391
0.00259618
0.0197285
0.00251939
0.0191323
0.00245387
0.0185513
0.00238455
0.0179803
0.00233867
0.0174194
0.00229616
0.0168622
0.00229149
0.0163092
0.00229769
0.0157568
0.00233497
0.0152129
0.00234932
0.014685
0.00232409
0.0141982
0.0021549
0.0137627
0.0018811
0.0133875
0.00153009
0.0130252
0.00143811
0.0126454
0.00159328
0.0122237
0.00196592
0.0118227
0.00203822
0.0115165
0.00162287
0.0113509
0.000866245
0.0112823
0.000284675
0.0112367
0.000173528
0.0111433
0.000621039
0.0110412
0.000970937
0.0110813
0.000548486
0.0113733
-0.000621827
0.0120442
-0.0025948
0.0129846
-0.00424129
0.0141352
-0.00544536
0.0152552
-0.00542458
0.0164266
-0.00556425
0.0175648
-0.00541307
0.0188987
-0.00623623
0.020352
-0.0069174
0.0220941
-0.00836649
0.0239232
-0.00913637
0.0257771
-0.00931556
0.0272833
-0.00747825
0.0284912
-0.00524999
0.0293846
-0.00288846
0.0304985
-0.00273624
0.0321356
-0.00464779
0.0349615
-0.0098818
0.0389896
-0.0160372
0.0446491
-0.024599
0.0512424
-0.0296825
0.0593446
-0.037901
0.0677414
-0.0392235
0.0773457
-0.0455988
0.0864916
-0.0425169
0.0964853
-0.0475303
0.105923
-0.04357
0.11643
-0.0529639
-0.0598977
0.0795849
0.00974749
-0.0792364