/*--------------------------------*- C++ -*----------------------------------*\
| =========                 |                                                 |
| \\      /  F ield         | OpenFOAM: The Open Source CFD Toolbox           |
|  \\    /   O peration     | Version:  2412                                  |
|   \\  /    A nd           | Website:  www.openfoam.com                      |
|    \\/     M anipulation  |                                                 |
\*---------------------------------------------------------------------------*/
FoamFile
{
    version     2.0;
    format      ascii;
    arch        "LSB;label=32;scalar=64";
    class       surfaceScalarField;
    location    "1.175";
    object      phi;
}
// * * * * * * * * * * * * * * * * * * * * * * * * * * * * * * * * * * * * * //

dimensions      [0 3 -1 0 0 0 0];

oriented        oriented;

internalField   nonuniform List<scalar> 
24930
(
0.0158888
0.0212035
-0.0370519
0.0065271
0.00936172
0.00299624
0.00353086
0.00167503
0.0013212
0.00107626
0.000598754
0.000726571
0.000349678
0.000491313
0.000235248
0.000322576
0.000168735
0.000197408
0.00012517
0.000102694
9.47089e-05
2.92641e-05
7.34111e-05
-2.77282e-05
5.69671e-05
-7.24882e-05
4.47434e-05
-0.000107692
3.52067e-05
-0.000134017
2.63363e-05
-0.00015521
2.1202e-05
-0.000170736
1.55154e-05
-0.000182425
1.16628e-05
-0.000190533
8.0828e-06
-0.000195831
5.28761e-06
-0.000198763
2.94746e-06
-0.000199661
9.53599e-07
-0.000198928
-6.71828e-07
-0.000196785
-2.13564e-06
-0.000193561
-3.35001e-06
-0.000189832
-3.8666e-06
-0.000185109
-4.62923e-06
-0.000179706
-5.31121e-06
-0.000173949
-5.74852e-06
-0.000167894
-6.04387e-06
-0.000161635
-6.24608e-06
-0.00015528
-6.33551e-06
-0.000148902
-6.35403e-06
-0.000142527
-6.36148e-06
-0.000136217
-6.30458e-06
-0.000130024
-6.18652e-06
-0.000123943
-6.07009e-06
-0.000118026
-5.90456e-06
-0.000112267
-5.7498e-06
-0.000106676
-5.58572e-06
-0.000101274
-5.40016e-06
-9.60335e-05
-5.23846e-06
-9.09474e-05
-5.08486e-06
-8.60062e-05
-4.94139e-06
-8.12015e-05
-4.80679e-06
-7.65396e-05
-4.66606e-06
-7.20419e-05
-4.50341e-06
-6.7757e-05
-4.2918e-06
-6.37732e-05
-3.99149e-06
-6.01729e-05
-3.60871e-06
-5.7066e-05
-3.11623e-06
-5.45486e-05
-2.52732e-06
-5.26802e-05
-1.87885e-06
-5.14893e-05
-1.20134e-06
-5.09014e-05
-5.97992e-07
-5.07338e-05
-1.76757e-07
-5.06313e-05
-1.10898e-07
-5.00003e-05
-6.38586e-07
-4.79425e-05
-2.06453e-06
-4.3257e-05
-4.6913e-06
-3.45449e-05
-8.71711e-06
-2.05142e-05
-1.40347e-05
-1.6713e-07
-2.03501e-05
2.53359e-05
-2.55053e-05
5.43432e-05
-2.90085e-05
8.20518e-05
-2.77092e-05
0.000102485
-2.04337e-05
0.000109661
-7.17643e-06
0.000100085
9.57422e-06
7.42547e-05
2.58289e-05
3.66843e-05
3.75678e-05
-5.59253e-06
4.22751e-05
-4.63252e-05
4.07305e-05
-7.72213e-05
3.08942e-05
-9.68299e-05
1.96069e-05
-0.000100643
3.81083e-06
-9.05779e-05
-1.00663e-05
-6.50527e-05
-2.55287e-05
-2.94333e-05
-3.56158e-05
1.71394e-05
-4.6576e-05
7.51873e-05
-5.80387e-05
0.000140158
-6.49751e-05
0.000204963
-6.47915e-05
0.000254893
-4.99342e-05
0.000268704
-1.37989e-05
0.000238246
3.04512e-05
0.000154816
8.3441e-05
-2.42411e-05
0.000179049
-0.00030456
0.000280329
-0.000639444
0.000334886
-0.000966503
0.000327067
-0.00128763
0.000321135
-0.00156514
0.000277513
-0.00167031
0.000105189
-0.00179357
0.000123277
-0.00225318
0.000459603
-0.00250598
0.000252814
-0.00244485
-6.11028e-05
0.000543728
-0.00298856
0.00417281
-0.00362912
0.0041267
4.6112e-05
0.00316439
0.000962342
0.00086749
0.00229693
0.000226437
0.000641078
0.000438819
-0.000212407
0.000805573
-0.000366782
0.00213973
-0.00133414
0.00193476
0.000204946
0.00198923
-5.44425e-05
0.00263689
-0.000647698
0.00287833
-0.000241411
0.00206914
0.000809163
0.000767269
0.00130188
0.000135572
0.000631671
0.00150943
-0.00137387
0.00321516
-0.00170574
0.00182625
0.00138888
3.8969e-05
0.00178727
0.00104616
-0.00100722
-0.00116255
0.0335855
0.0302311
-0.0426131
0.0225124
0.0204348
0.0142097
0.0118336
0.00911026
0.00642056
0.00612095
0.00358805
0.00428814
0.00218247
0.00307236
0.00145101
0.00221213
0.00102896
0.00157671
0.00076057
0.00109326
0.000578133
0.000718903
0.000447745
0.00042491
0.000350942
0.000192512
0.00027713
1.21086e-05
0.000215608
-0.000143597
0.000182033
-0.000265468
0.000143061
-0.000361082
0.000111112
-0.000436243
8.68044e-05
-0.000494178
6.60091e-05
-0.000537934
4.90721e-05
-0.00056992
3.49805e-05
-0.000591712
2.27843e-05
-0.00060546
1.30203e-05
-0.00061223
4.55852e-06
-0.000613356
-2.20567e-06
-0.00061003
-7.31412e-06
-0.000602441
-1.22051e-05
-0.000591572
-1.60567e-05
-0.000578216
-1.90664e-05
-0.000562802
-2.14326e-05
-0.00054581
-2.32021e-05
-0.000527727
-2.4384e-05
-0.000508908
-2.51428e-05
-0.000489558
-2.56894e-05
-0.000469961
-2.58846e-05
-0.000450361
-2.57658e-05
-0.000430831
-2.55784e-05
-0.000411548
-2.51696e-05
-0.000392564
-2.47213e-05
-0.000373952
-2.41903e-05
-0.000355812
-2.35364e-05
-0.000338104
-2.2945e-05
-0.000320817
-2.23728e-05
-0.000303945
-2.1819e-05
-0.000287478
-2.12826e-05
-0.000271454
-2.07015e-05
-0.000255964
-2.00088e-05
-0.000241186
-1.90867e-05
-0.000227421
-1.77749e-05
-0.00021497
-1.60797e-05
-0.000204206
-1.39013e-05
-0.000195466
-1.12892e-05
-0.000188962
-8.40544e-06
-0.00018477
-5.41444e-06
-0.00018263
-2.75766e-06
-0.000181883
-9.42451e-07
-0.000181276
-7.34012e-07
-0.000178724
-3.20431e-06
-0.000171115
-9.68547e-06
-0.000154299
-2.15179e-05
-0.000123533
-3.94908e-05
-7.44273e-05
-6.31464e-05
-4.02956e-06
-9.07517e-05
8.48334e-05
-0.000114371
0.0001857
-0.000129876
0.000282844
-0.000124855
0.000356076
-9.36685e-05
0.000384765
-3.58678e-05
0.000355981
3.83541e-05
0.000269673
0.000112133
0.000140685
0.000166551
-7.4529e-06
0.000190409
-0.000150165
0.000183438
-0.000258663
0.000139387
-0.000322854
8.37952e-05
-0.000332001
1.29525e-05
-0.000291617
-5.04474e-05
-0.000203661
-0.000113493
-8.38937e-05
-0.00015537
6.77035e-05
-0.000198182
0.000253879
-0.000244192
0.000459734
-0.000270839
0.000662142
-0.000267172
0.000814083
-0.000201886
0.00084559
-4.52805e-05
0.000720762
0.000155264
0.000397422
0.000406804
-0.00025438
0.000830846
-0.00125688
0.00128285
-0.002416
0.00149401
-0.00348765
0.00139874
-0.00451361
0.00134711
-0.00536751
0.00113144
-0.0056505
0.000388204
-0.00595113
0.000423936
-0.00738121
0.0018897
-0.00826148
0.00113312
-0.00791422
-0.000408378
0.0019667
-0.0128695
0.0139518
-0.0156142
0.0140913
-9.33744e-05
0.0103435
0.0047102
0.0031534
0.00948702
0.000721127
0.00307335
0.00121079
-0.000702072
0.00289668
-0.00205273
0.00691623
-0.00535363
0.00658423
0.000536875
0.0068122
-0.000282344
0.00865205
-0.00248763
0.00861413
-0.000203446
0.00522725
0.00419598
0.000503749
0.00602538
-0.0018876
0.00302299
0.00207067
-0.00533218
0.00835798
-0.00799308
0.00606429
0.00368253
0.000952372
0.00689916
0.00389566
-0.00395054
-0.00495347
0.0433962
0.032552
-0.0457172
0.0360147
0.0278163
0.0273504
0.0204979
0.0198794
0.0138915
0.0143516
0.00911592
0.0104845
0.00604952
0.00777004
0.00416545
0.00580743
0.00299155
0.0043415
0.00222648
0.00321745
0.00170215
0.00233833
0.00132683
0.00164092
0.00104834
0.00108193
0.000836116
0.000630584
0.000666962
0.000267941
0.000544668
-2.45961e-05
0.000435576
-0.000266393
0.000352879
-0.000459701
0.00028009
-0.000613765
0.000220071
-0.000735218
0.000170572
-0.000829435
0.000129268
-0.000900688
9.40746e-05
-0.000952733
6.4967e-05
-0.000988466
4.01431e-05
-0.00100998
1.93554e-05
-0.00102056
3.2349e-06
-0.00102171
-1.10637e-05
-0.00101512
-2.25063e-05
-0.00100185
-3.23075e-05
-0.000983234
-4.00407e-05
-0.000960373
-4.60291e-05
-0.000934313
-5.04052e-05
-0.00090586
-5.35635e-05
-0.000875548
-5.59799e-05
-0.000843998
-5.74152e-05
-0.000811769
-5.79725e-05
-0.000779111
-5.82134e-05
-0.000746396
-5.7865e-05
-0.000713812
-5.72921e-05
-0.000681548
-5.64472e-05
-0.000649838
-5.52428e-05
-0.000618683
-5.40982e-05
-0.000588099
-5.29583e-05
-0.000558113
-5.18105e-05
-0.000528743
-5.06622e-05
-0.000500083
-4.93751e-05
-0.000472314
-4.77947e-05
-0.000445775
-4.56435e-05
-0.000421013
-4.25579e-05
-0.000398586
-3.85287e-05
-0.000379167
-3.3344e-05
-0.000363367
-2.71134e-05
-0.000351569
-2.0227e-05
-0.000343893
-1.31139e-05
-0.000339863
-6.80981e-06
-0.000338256
-2.56942e-06
-0.000336775
-2.23276e-06
-0.000331616
-8.3787e-06
-0.000317166
-2.41482e-05
-0.000286017
-5.2678e-05
-0.000229735
-9.57814e-05
-0.000140546
-0.000152342
-1.36216e-05
-0.00021768
0.00014753
-0.000275525
0.000330213
-0.000312561
0.000507488
-0.000302131
0.000643765
-0.000229949
0.000701748
-9.38539e-05
0.000656816
8.32813e-05
0.000506559
0.000262386
0.000275928
0.000397177
6.66971e-06
0.000459663
-0.000253413
0.000443517
-0.000450967
0.000336935
-0.000563779
0.000196605
-0.000575727
2.4894e-05
-0.000498511
-0.00012766
-0.000341249
-0.000270762
-0.000132487
-0.000364119
0.000127738
-0.000458417
0.00044309
-0.00055952
0.000787961
-0.00061572
0.00112413
-0.000603307
0.00137154
-0.000449318
0.00140683
-8.05397e-05
0.0011552
0.000406877
0.000530391
0.00103164
-0.000692663
0.00205389
-0.00255205
0.00314226
-0.00464023
0.0035822
-0.00648865
0.00324718
-0.00821043
0.00306892
-0.00960752
0.00252856
-0.00998958
0.000770278
-0.0103605
0.00079488
-0.0127709
0.00430012
-0.0141809
0.00254318
-0.0133776
-0.00121169
0.00329334
-0.0295404
0.0240303
-0.0363512
0.0250618
-0.00112485
0.0183301
0.0114419
0.00593726
0.0218799
0.00124723
0.00776339
0.00187009
-0.00132493
0.00522772
-0.00541042
0.0119929
-0.0121187
0.0116896
0.000840104
0.0121739
-0.000766629
0.014856
-0.00516976
0.0138068
0.000845805
0.00701253
0.0109902
-0.00157813
0.014616
-0.00608035
0.00752517
0.000333766
-0.0117463
0.0118785
-0.0195378
0.0101912
0.0053698
0.00238701
0.0147033
0.00723718
-0.00880075
-0.0115546
0.0492384
0.0320614
-0.0487477
0.0459342
0.0311205
0.0395602
0.0268718
0.0321136
0.0213381
0.0251775
0.016052
0.0194556
0.0117714
0.0149976
0.00862348
0.0115776
0.00641146
0.00893877
0.00486533
0.00687591
0.00376499
0.00524131
0.0029614
0.00393087
0.00235876
0.00287059
0.00189639
0.00200655
0.001531
0.0013026
0.00124861
0.000724654
0.0010135
0.00025231
0.000825202
-0.000134004
0.000666384
-0.000449997
0.000536057
-0.000704696
0.0004253
-0.000908293
0.000332929
-0.00106834
0.000254164
-0.00119221
0.000188756
-0.00128519
0.000132976
-0.00135255
8.67853e-05
-0.00139742
4.8196e-05
-0.00142341
1.49513e-05
-0.00143396
-1.18421e-05
-0.00143283
-3.33971e-05
-0.0014204
-5.24826e-05
-0.0013992
-6.7197e-05
-0.00137112
-7.84438e-05
-0.00133767
-8.69846e-05
-0.0012999
-9.37281e-05
-0.00125895
-9.83473e-05
-0.00121584
-0.00010105
-0.00117116
-0.000102877
-0.00112556
-0.000103442
-0.00107948
-0.000103362
-0.00103329
-0.000102625
-0.000987444
-0.000101084
-0.000942047
-9.94937e-05
-0.000897191
-9.78159e-05
-0.000852979
-9.60275e-05
-0.000809493
-9.41582e-05
-0.000766913
-9.19691e-05
-0.000725543
-8.91815e-05
-0.000685917
-8.52896e-05
-0.000648861
-7.96345e-05
-0.000615239
-7.21738e-05
-0.000586063
-6.25444e-05
-0.000562261
-5.09414e-05
-0.000544412
-3.81018e-05
-0.000532676
-2.48742e-05
-0.000526324
-1.31851e-05
-0.000523489
-5.42517e-06
-0.000520691
-5.04927e-06
-0.000512187
-1.68997e-05
-0.000489559
-4.67904e-05
-0.000441784
-0.000100465
-0.000356401
-0.000181173
-0.00022194
-0.000286811
-3.14511e-05
-0.000408173
0.000210795
-0.000517774
0.000485979
-0.000587747
0.000755307
-0.000571461
0.000966606
-0.000441251
0.00106387
-0.000191118
0.00100802
0.000139123
0.000791852
0.00047855
0.000449838
0.000739186
4.43171e-05
0.000865179
-0.000350432
0.000838261
-0.000650054
0.000636552
-0.000817185
0.000363733
-0.000830993
3.8695e-05
-0.00071167
-0.000246979
-0.000479709
-0.000502732
-0.000178204
-0.000665609
0.000191302
-0.000827934
0.000634496
-0.00100269
0.00111487
-0.0010961
0.00157875
-0.00106716
0.00191305
-0.000783624
0.00193624
-0.000103706
0.0015194
0.000823703
0.000515566
0.0020355
-0.00139256
0.00396201
-0.00423931
0.00598904
-0.00734759
0.00669049
-0.00998812
0.00588774
-0.0123843
0.0054651
-0.0142725
0.00441682
-0.0146591
0.00115687
-0.0149906
0.00112646
-0.0183365
0.00764607
-0.0200781
0.00428474
-0.0182952
-0.00299455
0.00415359
-0.0519892
0.0333592
-0.0655568
0.0368139
-0.00457948
0.0273023
0.0209536
0.0093265
0.0398557
0.00182662
0.0152633
0.00240196
-0.00190027
0.00771277
-0.0107213
0.017306
-0.0217119
0.0172143
0.000931765
0.0180497
-0.001602
0.021135
-0.00825511
0.0181496
0.00383125
0.00706163
0.0220781
-0.00574464
0.0274223
-0.0122993
0.0140798
-0.00337519
-0.0206705
0.0136632
-0.0365762
0.0138978
0.00513511
0.00409642
0.0245047
0.010854
-0.0155583
-0.0211821
0.0530751
0.0309127
-0.0519264
0.0524642
0.0317313
0.0490736
0.0302625
0.0435076
0.0269041
0.0369563
0.0226033
0.0304783
0.0182493
0.0246908
0.014411
0.0198058
0.0112965
0.0157939
0.00887721
0.0125294
0.0070294
0.00987302
0.00561779
0.00770307
0.00452869
0.0059221
0.00367735
0.0044536
0.0029995
0.00324172
0.00246048
0.00223745
0.00201777
0.00140636
0.00165628
0.000718604
0.00135413
0.000152207
0.00110244
-0.00031375
0.000891254
-0.000693844
0.000713049
-0.00100027
0.000560614
-0.00124469
0.00043316
-0.00143635
0.000324546
-0.00158282
0.000233332
-0.00169124
0.00015681
-0.00176868
9.24222e-05
-0.00181865
3.81732e-05
-0.00184385
-8.17562e-06
-0.00185271
-4.36479e-05
-0.0018451
-7.47685e-05
-0.00182462
-9.88816e-05
-0.00179386
-0.000117704
-0.00175473
-0.000132841
-0.00170909
-0.000143968
-0.00165868
-0.000151435
-0.00160456
-0.000156972
-0.00154787
-0.00016011
-0.00148941
-0.000161809
-0.00142987
-0.000162154
-0.00137001
-0.000160937
-0.00131014
-0.000159366
-0.00125049
-0.00015747
-0.0011913
-0.000155223
-0.00113277
-0.000152698
-0.00107521
-0.000149542
-0.00101909
-0.000145318
-0.000965175
-0.000139225
-0.000914621
-0.000130211
-0.00086864
-0.000118179
-0.000828631
-0.000102579
-0.000795882
-8.3718e-05
-0.000771196
-6.28152e-05
-0.000754781
-4.13154e-05
-0.000745617
-2.23725e-05
-0.000741101
-9.96351e-06
-0.000736406
-9.76503e-06
-0.000723636
-2.96868e-05
-0.00069132
-7.91219e-05
-0.000624514
-0.000167283
-0.000506412
-0.000299284
-0.000321577
-0.000471654
-6.06552e-05
-0.000669099
0.000271372
-0.000849805
0.000649665
-0.000966042
0.00102334
-0.00094514
0.00132283
-0.000740745
0.00147146
-0.00033975
0.00141283
0.000197745
0.00113179
0.000759592
0.000670559
0.00120041
0.000113801
0.00142193
-0.000432811
0.00138487
-0.000848366
0.0010521
-0.0010773
0.000592668
-0.00109363
5.50189e-05
-0.000929519
-0.000411089
-0.000620068
-0.000812193
-0.000225656
-0.00106
0.000250702
-0.0013043
0.000816525
-0.00156848
0.00142476
-0.00170435
0.00200617
-0.00164854
0.00241549
-0.00119296
0.00240711
-9.52879e-05
0.00178172
0.00144907
0.000313166
0.00350408
-0.00240504
0.00668021
-0.00637627
0.00996029
-0.0105752
0.0108895
-0.0139896
0.00930214
-0.0170078
0.00848333
-0.0193098
0.00671884
-0.0195818
0.00142893
-0.0197432
0.00128785
-0.0239386
0.0118415
-0.0256151
0.00596121
-0.0219676
-0.00664204
0.00417752
-0.0781342
0.0406254
-0.102005
0.0489984
-0.0129525
0.0374433
0.0325087
0.0134852
0.0638138
0.00252513
0.0262234
0.00281917
-0.00219431
0.010264
-0.0181662
0.0228204
-0.0342682
0.02316
0.000591999
0.024389
-0.00283089
0.0273049
-0.0111711
0.0214634
0.00967286
0.00529086
0.0382505
-0.0118522
0.0445653
-0.0201076
0.0223352
-0.00840742
-0.0323708
0.0140996
-0.0590833
0.0170013
0.00223331
0.00569143
0.0358146
0.014381
-0.0242479
-0.0341562
0.0562382
0.0299421
-0.0552676
0.0568067
0.0311628
0.0557398
0.0313294
0.0526163
0.0300275
0.0477865
0.027433
0.0419803
0.0240555
0.0359282
0.0204631
0.0301625
0.0170622
0.0249747
0.014065
0.0204658
0.0115383
0.0166219
0.00946167
0.0133765
0.00777407
0.0106478
0.00640601
0.00835641
0.00529091
0.00643518
0.00438171
0.00482327
0.00362967
0.00347293
0.00300661
0.00234274
0.00248431
0.00139963
0.00204551
0.000615802
0.00167506
-3.1109e-05
0.00135996
-0.000565117
0.00109464
-0.000999088
0.000867185
-0.00134837
0.000673856
-0.00162514
0.000510213
-0.00183992
0.000371801
-0.00200211
0.00025465
-0.00212055
0.000156598
-0.00220337
7.46423e-05
-0.00225022
3.18956e-06
-0.00227419
-5.07693e-05
-0.00227607
-9.69569e-05
-0.0022599
-0.000133834
-0.00222896
-0.000163759
-0.00218624
-0.000186661
-0.0021345
-0.000203152
-0.00207555
-0.000215899
-0.00201121
-0.000224427
-0.00194285
-0.000230153
-0.00187164
-0.00023336
-0.00179878
-0.000233785
-0.00172492
-0.00023323
-0.00165052
-0.000231868
-0.00157606
-0.000229689
-0.00150192
-0.000226849
-0.0014286
-0.000222873
-0.0013568
-0.000217141
-0.00128755
-0.000208497
-0.00122239
-0.000195388
-0.00116295
-0.000177649
-0.00111105
-0.000154503
-0.0010684
-0.000126399
-0.00103605
-9.51931e-05
-0.00101426
-6.31289e-05
-0.0010017
-3.49641e-05
-0.000994926
-1.67598e-05
-0.000987628
-1.70839e-05
-0.000969552
-4.77821e-05
-0.000925914
-0.000122776
-0.000837587
-0.000255622
-0.000683164
-0.000453718
-0.000443011
-0.000711815
-0.000105148
-0.00100697
0.000324959
-0.00127991
0.000816799
-0.00145788
0.00130755
-0.00143589
0.0017098
-0.001143
0.00192445
-0.000554403
0.00187448
0.000247709
0.00153294
0.00110113
0.000947283
0.00178605
0.000225579
0.00214363
-0.000490691
0.00210113
-0.00103794
0.00159934
-0.0013387
0.000893424
-0.00136176
7.80673e-05
-0.00115332
-0.000619515
-0.000766877
-0.00119865
-0.000282317
-0.00154455
0.000295381
-0.00188201
0.000975936
-0.00224901
0.00170183
-0.00243026
0.00238792
-0.0023346
0.00285751
-0.00166256
0.00279558
-3.33217e-05
0.00191166
0.00233297
-0.000120019
0.00553579
-0.00378406
0.0103442
-0.00900957
0.0151858
-0.0143373
0.0162172
-0.0184713
0.0134362
-0.0220408
0.0120528
-0.0246643
0.00934241
-0.0246938
0.00145843
-0.0245496
0.00114373
-0.0294174
0.0167093
-0.0305221
0.00706605
-0.0238193
-0.0133449
0.00324966
-0.105203
0.0447922
-0.143547
0.0610973
-0.0292576
0.0488246
0.0447814
0.0185808
0.0940576
0.00343127
0.0413729
0.00312089
-0.00188394
0.0127655
-0.0278109
0.0284439
-0.0499465
0.0295064
-0.000470608
0.0311371
-0.00446151
0.0332432
-0.0132773
0.0234813
0.0194348
0.00149591
0.0602358
-0.0197783
0.0658396
-0.0289431
0.0314999
-0.0141707
-0.0471433
0.0134322
-0.0866862
0.0194232
-0.00375775
0.00690792
0.0483298
0.0174094
-0.0347494
-0.0508117
0.0595117
0.0292652
-0.0588348
0.0603025
0.030372
0.0604559
0.031176
0.0592811
0.0312023
0.0565183
0.0301959
0.0523443
0.0282295
0.0471961
0.0256112
0.0415765
0.0226817
0.0359228
0.0197187
0.030548
0.0169131
0.0256359
0.0143738
0.0212645
0.0121454
0.0174414
0.0102291
0.0141342
0.0085981
0.0112954
0.00722049
0.00886977
0.00605531
0.00680573
0.00507065
0.00505494
0.00423508
0.00357542
0.003525
0.0023302
0.00292025
0.00128698
0.00240315
0.000418731
0.00196292
-0.000299255
0.00158527
-0.000888271
0.00126298
-0.00136586
0.00098791
-0.00174781
0.0007539
-0.00204806
0.000554906
-0.00227831
0.000386782
-0.0024489
0.000245221
-0.00257361
0.000127914
-0.00265095
2.66045e-05
-0.0026957
-5.21484e-05
-0.00271233
-0.000117173
-0.00270414
-0.000171928
-0.00267609
-0.000214691
-0.00263246
-0.000246753
-0.00257616
-0.000272174
-0.00251
-0.000290557
-0.00243621
-0.000303936
-0.00235662
-0.00031294
-0.00227312
-0.000317271
-0.00218685
-0.000319503
-0.00209865
-0.000320065
-0.00200935
-0.000318996
-0.00191962
-0.000316593
-0.00183023
-0.000312273
-0.00174218
-0.000305219
-0.00165682
-0.000293872
-0.00157617
-0.000276065
-0.0015023
-0.000251551
-0.00143753
-0.000219297
-0.00138404
-0.000179921
-0.00134317
-0.000136092
-0.00131525
-9.10781e-05
-0.00129858
-5.16577e-05
-0.00128884
-2.65253e-05
-0.00127809
-2.78619e-05
-0.00125352
-7.23651e-05
-0.00119685
-0.000179466
-0.00108454
-0.000367945
-0.000890386
-0.000647882
-0.00059038
-0.00101183
-0.000169695
-0.00142766
0.000366056
-0.00181567
0.000981318
-0.00207315
0.00160188
-0.00205646
0.00212258
-0.0016637
0.00242045
-0.000852279
0.00239463
0.000273532
0.00200156
0.00149419
0.00129001
0.0024976
0.000391662
0.00304197
-0.000512131
0.00300492
-0.00120881
0.00229601
-0.00159495
0.00127956
-0.00163293
0.000116035
-0.00138526
-0.000867176
-0.000926368
-0.00165755
-0.000358053
-0.00211285
0.000312581
-0.00255266
0.00109744
-0.00303383
0.00192828
-0.00326111
0.00270316
-0.00310944
0.00321514
-0.00217455
0.00307366
0.000108196
0.00187369
0.00353292
-0.000813431
0.00822295
-0.00558505
0.0151159
-0.0121797
0.0217805
-0.0186272
0.0226647
-0.0233848
0.0181939
-0.0274209
0.0160889
-0.0302644
0.012186
-0.0299204
0.0011144
-0.029311
0.000534374
-0.0345962
0.0219945
-0.0345258
0.00699575
-0.0237816
-0.0240891
0.00177299
-0.130758
0.0458733
-0.187648
0.0724835
-0.0558678
0.0614496
0.0558154
0.0247929
0.130714
0.00468707
0.0614788
0.00332774
-0.00052461
0.0150871
-0.0395704
0.0341321
-0.0689914
0.0362532
-0.00259175
0.038217
-0.00642526
0.0387622
-0.0138226
0.0240584
0.0341388
-0.00408021
0.0883743
-0.0291026
0.0908619
-0.0381396
0.0405369
-0.0198969
-0.065386
0.0121072
-0.11869
0.0211864
-0.012837
0.00748582
0.0620304
0.0195127
-0.0467764
-0.0714445
0.0631543
0.0287714
-0.0626605
0.0638043
0.0297219
0.0643299
0.0306504
0.064239
0.0312931
0.0631009
0.031334
0.060714
0.0306163
0.0571345
0.0291908
0.0526003
0.0272159
0.0474384
0.0248806
0.0419872
0.0223642
0.0365431
0.0198178
0.0313314
0.0173571
0.0264989
0.0150616
0.0221223
0.0129747
0.0182277
0.0111151
0.014805
0.009478
0.0118258
0.00804979
0.00925168
0.00680922
0.00704158
0.00573508
0.00515503
0.00480676
0.00355373
0.00400444
0.00220315
0.00331353
0.00107108
0.00271744
0.000129399
0.00220478
-0.000647269
0.00176465
-0.00128106
0.00138776
-0.00179186
0.00106569
-0.002197
0.00079185
-0.00251165
0.000559852
-0.00274858
0.000364876
-0.00292476
0.000202834
-0.00304298
6.6126e-05
-0.00311528
-4.48454e-05
-0.00315221
-0.000134967
-0.0031565
-0.000210379
-0.00313527
-0.000267957
-0.00309314
-0.000314275
-0.00303438
-0.000349289
-0.0029624
-0.000375901
-0.00288005
-0.000395285
-0.00279017
-0.000407143
-0.00269462
-0.000415048
-0.00259485
-0.000419841
-0.00249217
-0.000421674
-0.00238771
-0.000421068
-0.00228263
-0.000417371
-0.00217829
-0.000409575
-0.00207649
-0.000395691
-0.00197976
-0.000372822
-0.00189071
-0.000340631
-0.00181223
-0.000297806
-0.00174702
-0.000245162
-0.00169677
-0.000186376
-0.00166189
-0.000125991
-0.00164031
-7.32628e-05
-0.00162675
-4.01141e-05
-0.00161152
-4.31091e-05
-0.00157916
-0.000104745
-0.0015077
-0.00025095
-0.00136907
-0.000506591
-0.00113215
-0.000884814
-0.000768428
-0.00137556
-0.000260007
-0.00193609
0.000387834
-0.00246351
0.00113542
-0.00282073
0.00189822
-0.00281926
0.00255398
-0.00231947
0.00295512
-0.00125342
0.00297332
0.000255326
0.0025431
0.00192439
0.00170914
0.00333156
0.00062546
0.00412565
-0.000483364
0.00411374
-0.00134986
0.0031625
-0.00183959
0.00176929
-0.00190656
0.000182998
-0.00162993
-0.0011438
-0.00110759
-0.00217991
-0.0004652
-0.00275522
0.000287804
-0.00330568
0.00116501
-0.00391101
0.00208669
-0.0041828
0.00293238
-0.00395509
0.00346581
-0.002708
0.00321384
0.000360201
0.00163065
0.00511609
-0.00183501
0.0116886
-0.00786039
0.0211412
-0.0159105
0.0298306
-0.023409
0.0301633
-0.0286561
0.0234409
-0.0330781
0.0205109
-0.0360528
0.0151608
-0.0352101
0.000271777
-0.0339658
-0.000709898
-0.0393097
0.0273384
-0.0375231
0.00520922
-0.022428
-0.0391842
0.000698714
-0.153884
0.0450459
-0.231995
0.0824114
-0.0932332
0.0752172
0.0630096
0.0322975
0.173634
0.00646542
0.0873109
0.00348045
0.00246036
0.0171018
-0.0531918
0.0398124
-0.091702
0.0433875
-0.00616696
0.0455389
-0.00857665
0.043706
-0.0119898
0.0230144
0.0548304
-0.0114424
0.122831
-0.0393704
0.11879
-0.0471203
0.0482868
-0.0252531
-0.0872533
0.0102184
-0.154162
0.0222957
-0.0249144
0.00733344
0.0769927
0.0203717
-0.0598147
-0.0961647
0.067152
0.0283671
-0.0667477
0.0676346
0.0292393
0.0681437
0.0301413
0.0684516
0.0309852
0.068235
0.0315506
0.0671996
0.0316517
0.0651744
0.031216
0.0621344
0.0302559
0.0581813
0.0288337
0.0535059
0.0270396
0.0483473
0.0249764
0.0429558
0.0227486
0.0375623
0.0204552
0.0323551
0.0181818
0.0274711
0.0159991
0.0229933
0.0139559
0.0189609
0.0120821
0.0153803
0.0103898
0.0122366
0.00887876
0.00950243
0.0075409
0.0071438
0.00636306
0.00512502
0.00533233
0.00340961
0.00443293
0.00196302
0.00365145
0.000752958
0.00297474
-0.000250159
0.00239089
-0.00107334
0.00188883
-0.00174078
0.00145923
-0.00227405
0.00109312
-0.00269243
0.000783308
-0.0030121
0.000522558
-0.00325162
0.000305696
-0.00342227
0.000125836
-0.0035295
-2.77142e-05
-0.00359337
-0.000146476
-0.00361604
-0.000245262
-0.00360552
-0.000324767
-0.00356818
-0.000386604
-0.00350925
-0.000434809
-0.00343302
-0.000471504
-0.00334371
-0.000496449
-0.00324425
-0.000514506
-0.00313693
-0.000527159
-0.00302384
-0.00053477
-0.00290672
-0.000538202
-0.0027873
-0.000536814
-0.00266745
-0.000529446
-0.00254948
-0.000513678
-0.00243656
-0.000485769
-0.00233192
-0.000445299
-0.0022391
-0.000390659
-0.00216141
-0.000322889
-0.00210092
-0.000246892
-0.00205819
-0.000168758
-0.00203077
-0.000100709
-0.00201238
-5.85351e-05
-0.00199153
-6.39838e-05
-0.00194998
-0.000146317
-0.00186201
-0.000338937
-0.00169499
-0.000673624
-0.00141287
-0.00116695
-0.000982559
-0.00180587
-0.000382835
-0.00253581
0.000381991
-0.00322834
0.00126936
-0.00370811
0.00218604
-0.00373594
0.00299403
-0.00312747
0.00352042
-0.00177982
0.00360758
0.000168159
0.00316134
0.00237063
0.00221486
0.00427803
0.000941453
0.00539904
-0.000388904
0.00544409
-0.00144876
0.00422235
-0.00206607
0.0023866
-0.00218276
0.000299683
-0.00189381
-0.00143274
-0.00132172
-0.00275201
-0.000617782
-0.00345914
0.000205902
-0.00412938
0.00116309
-0.00486816
0.002161
-0.00518072
0.00305755
-0.0048516
0.0035872
-0.00323766
0.00318697
0.00076047
0.00114211
0.00716093
-0.0032328
0.0160636
-0.0106569
0.0285653
-0.0202051
0.0393789
-0.0286162
0.0385743
-0.0341925
0.0290173
-0.038946
0.0252645
-0.0419841
0.0181988
-0.0405467
-0.00116558
-0.0384627
-0.00279387
-0.043429
0.0323047
-0.0395417
0.00132204
-0.0207148
-0.0580111
0.000986065
-0.175585
0.0437267
-0.274735
0.08994
-0.139446
0.0899298
0.0630198
0.0412636
0.2223
0.00898794
0.119587
0.00368129
0.00776702
0.0187246
-0.0682352
0.045447
-0.118424
0.0509104
-0.0116304
0.0529979
-0.0106641
0.0478804
-0.00687238
0.0202798
0.0824311
-0.0203229
0.163434
-0.0500031
0.14847
-0.0554941
0.0537778
-0.0300964
-0.112651
0.00795037
-0.192209
0.0228443
-0.0398083
0.00645862
0.0933783
0.019819
-0.0731752
-0.124772
0.0714624
0.0280114
-0.0711067
0.0718426
0.0288591
0.0722542
0.0297296
0.0726196
0.0306198
0.072772
0.0313981
0.0724953
0.0319283
0.0715836
0.0321278
0.069886
0.0319534
0.0673308
0.0313889
0.0639285
0.0304419
0.0597635
0.0291414
0.0549797
0.0275323
0.049763
0.0256719
0.0443185
0.0236263
0.0388482
0.0214694
0.0335282
0.0192758
0.0284955
0.0171148
0.0238423
0.015043
0.0196202
0.0131009
0.0158478
0.0113132
0.0125203
0.00969055
0.00961773
0.00823495
0.00711032
0.0069404
0.00496395
0.00579787
0.00314275
0.00479593
0.00161125
0.00392237
0.000335332
0.00316472
-0.000716473
0.00251101
-0.00157376
0.00195043
-0.0022631
0.00147271
-0.00280805
0.00106756
-0.00322935
0.000727052
-0.00354759
0.000444103
-0.00378322
0.000207935
-0.00393525
5.58636e-06
-0.00403419
-0.000146291
-0.00408108
-0.000277847
-0.0040861
-0.000381557
-0.00405715
-0.000463743
-0.00400063
-0.000528014
-0.00392269
-0.000574383
-0.00382784
-0.000609354
-0.0037196
-0.000635391
-0.00360117
-0.00065321
-0.00347519
-0.000664194
-0.00334417
-0.000667847
-0.0032107
-0.000662939
-0.00307774
-0.000646667
-0.0029492
-0.000614334
-0.00282906
-0.000565463
-0.0027216
-0.000498152
-0.00263084
-0.000413682
-0.00255934
-0.000318426
-0.00250783
-0.000220306
-0.00247353
-0.000135035
-0.00244916
-8.29411e-05
-0.0024214
-9.17698e-05
-0.00236923
-0.000198506
-0.00226322
-0.000444968
-0.00206623
-0.000870632
-0.00173734
-0.00149586
-0.00123891
-0.00230431
-0.000546094
-0.00322864
0.000338614
-0.00411306
0.00137129
-0.00474079
0.00245215
-0.0048168
0.00342946
-0.00410479
0.00410657
-0.00245694
0.00429164
-1.69183e-05
0.00385766
0.00280461
0.00281625
0.00531944
0.00135446
0.00686083
-0.000211617
0.00701016
-0.00149226
0.00550298
-0.00226788
0.00316222
-0.00246301
0.000494795
-0.00218502
-0.00171072
-0.00158141
-0.00335563
-0.00083038
-0.00421015
5.27863e-05
-0.00501256
0.00107811
-0.00589344
0.00213809
-0.00624072
0.0030637
-0.00577716
0.00355891
-0.00373289
0.0029639
0.00135552
0.000362457
0.00976235
-0.0050573
0.0214834
-0.0140107
0.0375187
-0.0250407
0.050409
-0.0341531
0.0476868
-0.039896
0.0347602
-0.0449772
0.0303458
-0.0480522
0.0212738
-0.0459427
-0.00327503
-0.0428108
-0.0059257
-0.0468751
0.036369
-0.0407886
-0.00476436
-0.0195538
-0.079246
0.0028424
-0.197981
0.0421452
-0.314038
0.0939553
-0.191257
0.10527
0.0517047
0.0518388
0.275732
0.0124837
0.158942
0.00410063
0.0161501
0.0199666
-0.0841013
0.0509995
-0.149457
0.0588254
-0.0194564
0.0604789
-0.0123174
0.0511107
0.00249564
0.0158058
0.117736
-0.0303394
0.209579
-0.0604801
0.178611
-0.0632048
0.0565025
-0.0346097
-0.141246
0.00531212
-0.232131
0.0228497
-0.057346
0.00500451
0.111223
0.0178564
-0.0860271
-0.15663
0.076086
0.0276889
-0.0757636
0.0764123
0.0285327
0.0767495
0.0293925
0.0770727
0.0302966
0.0773124
0.0311584
0.0773537
0.031887
0.0770529
0.0324285
0.0762619
0.0327445
0.0748507
0.0328
0.0727254
0.0325672
0.0698384
0.0320284
0.0661945
0.0311762
0.0618533
0.0300131
0.0569266
0.0285529
0.051571
0.0268251
0.045971
0.0248759
0.0403183
0.0227675
0.0347895
0.0205718
0.0295286
0.0183617
0.0246393
0.0162025
0.0201845
0.0141453
0.0161931
0.0122263
0.0126674
0.0104662
0.00959123
0.00887403
0.00693702
0.00745012
0.00467046
0.00618889
0.00275419
0.00508097
0.00115026
0.00411494
-0.000178179
0.00327891
-0.00126493
0.00255953
-0.00214359
0.00194628
-0.00284252
0.00142603
-0.00338855
0.00099016
-0.00380316
0.000622572
-0.00411743
0.000319887
-0.00433014
6.64474e-05
-0.0044707
-0.000137253
-0.00454943
-0.0003028
-0.00457567
-0.00043749
-0.00455916
-0.000544514
-0.00450894
-0.000624588
-0.00443177
-0.000686523
-0.00433296
-0.000734203
-0.00421727
-0.000768901
-0.00408869
-0.000792786
-0.00395084
-0.000805718
-0.00380725
-0.000806552
-0.00366172
-0.000792222
-0.00351912
-0.000756965
-0.0033843
-0.000700314
-0.00326239
-0.000620089
-0.00315829
-0.000517823
-0.00307512
-0.000401633
-0.00301389
-0.000281564
-0.00297159
-0.000177369
-0.00293996
-0.000114601
-0.00290394
-0.000127822
-0.0028398