/*--------------------------------*- C++ -*----------------------------------*\
| =========                 |                                                 |
| \\      /  F ield         | OpenFOAM: The Open Source CFD Toolbox           |
|  \\    /   O peration     | Version:  2412                                  |
|   \\  /    A nd           | Website:  www.openfoam.com                      |
|    \\/     M anipulation  |                                                 |
\*---------------------------------------------------------------------------*/
FoamFile
{
    version     2.0;
    format      ascii;
    arch        "LSB;label=32;scalar=64";
    class       volScalarField;
    location    "0.955";
    object      p;
}
// * * * * * * * * * * * * * * * * * * * * * * * * * * * * * * * * * * * * * //

dimensions      [0 2 -2 0 0 0 0];

internalField   nonuniform List<scalar> 
12600
(
-0.358736
-82.2052
-59.41
-8.2223
35.1541
68.3179
94.7687
116.771
135.434
151.41
165.305
177.791
189.172
199.402
208.4
216.195
223.12
229.44
235.553
241.721
247.656
252.319
254.751
255.769
258.674
264.125
268.565
270.71
272.018
274.103
276.444
278.134
279.295
280.561
282.058
283.422
284.435
285.263
286.145
287.094
287.965
288.685
289.32
289.961
290.619
291.24
291.791
292.295
292.789
293.288
293.777
294.248
294.712
295.184
295.667
296.15
296.617
297.046
297.4
297.631
297.675
297.489
297.026
296.291
295.325
294.221
293.035
291.852
290.635
289.402
288.042
286.553
284.889
283.233
282.049
282.12
284.538
289.188
294.668
300.426
306.031
309.548
312.187
312.65
310.586
305.773
299.339
290.327
281.474
273.2
267.793
260.462
229.637
207.751
142.155
83.1433
84.4474
72.7644
96.6541
113.167
102.298
120.205
111.629
112.038
115.306
105.203
86.3817
49.8749
22.7548
24.4239
73.5986
150.932
252.33
331.327
404.84
453.779
486.829
481.439
499.295
492.388
59.5792
-16.3044
-24.8953
1.04745
33.8276
64.3878
90.6006
112.836
131.764
148.062
162.446
175.388
187.069
197.426
206.64
214.597
221.761
228.376
234.783
241.091
246.79
250.962
253.332
255.417
259.407
264.64
268.155
269.952
271.552
273.932
276.249
277.832
279.025
280.402
281.948
283.283
284.272
285.124
286.046
287.014
287.88
288.594
289.238
289.895
290.563
291.185
291.735
292.242
292.744
293.248
293.739
294.211
294.676
295.15
295.634
296.117
296.585
297.016
297.375
297.612
297.665
297.489
297.038
296.318
295.363
294.267
293.083
291.901
290.684
289.449
288.086
286.596
284.932
283.271
282.071
282.101
284.455
289.053
294.503
300.247
305.875
309.438
312.121
312.65
310.671
305.938
299.589
290.621
281.748
273.399
267.904
260.827
230.26
208.634
143.663
84.0123
84.6885
72.8089
96.2348
113.073
102.206
120.056
111.707
111.994
115.356
105.543
87.065
50.6853
23.1478
24.0001
72.2569
148.932
250.287
329.606
403.469
452.856
486.494
481.305
499.175
492.443
85.6784
29.7434
6.14647
14.6988
38.521
65.094
89.6834
111.333
130.126
146.498
160.995
174.032
185.766
196.194
205.423
213.572
220.91
227.648
234.14
240.414
245.83
249.585
252.25
255.858
260.758
265.019
267.77
269.241
271.219
273.818
276.105
277.632
278.862
280.305
281.867
283.186
284.17
285.041
285.985
286.959
287.822
288.537
289.188
289.854
290.526
291.148
291.7
292.211
292.717
293.223
293.715
294.187
294.653
295.128
295.613
296.097
296.565
296.997
297.357
297.598
297.656
297.488
297.048
296.336
295.387
294.294
293.112
291.93
290.712
289.476
288.114
286.624
284.959
283.293
282.08
282.084
284.401
288.973
294.414
300.152
305.797
309.382
312.082
312.653
310.72
306.015
299.71
290.774
281.895
273.49
267.973
261.041
230.573
209.12
144.343
84.4294
84.8302
72.8241
96.0331
113.028
102.165
119.974
111.744
111.976
115.387
105.682
87.37
51.0642
23.342
23.7673
71.7396
148.283
249.579
328.993
402.972
452.511
486.353
481.254
499.135
492.469
94.3763
59.414
35.2727
32.9599
46.9555
67.8842
89.8348
110.332
128.684
144.961
159.492
172.567
184.327
194.831
204.224
212.575
220.059
226.891
233.352
239.459
244.723
248.726
252.149
256.519
261.404
265.019
267.127
268.539
270.905
273.675
275.913
277.4
278.679
280.183
281.757
283.061
284.047
284.942
285.907
286.887
287.749
288.467
289.127
289.801
290.477
291.102
291.656
292.171
292.681
293.189
293.683
294.156
294.624
295.1
295.585
296.07
296.539
296.973
297.337
297.583
297.648
297.489
297.059
296.358
295.418
294.331
293.152
291.971
290.752
289.515
288.151
286.66
284.994
283.322
282.092
282.06
284.327
288.861
294.28
300.001
305.671
309.297
312.034
312.659
310.794
306.163
299.916
291.011
282.117
273.657
268.073
261.351
231.1
209.856
145.542
85.0627
84.9922
72.8202
95.6911
112.962
102.088
119.856
111.807
111.938
115.436
105.982
87.9371
51.708
23.611
23.3554
70.5274
146.422
247.785
327.503
401.795
451.735
486.083
481.141
499.033
492.519
101.9
82.2321
62.4825
53.9247
58.981
73.3684
91.6582
110.345
127.888
143.851
158.269
171.29
183.037
193.61
203.14
211.662
219.272
226.127
232.495
238.466
243.735
248.171
252.377
257.029
261.378
264.307
265.902
267.959
270.715
273.547
275.714
277.165
278.503
280.064
281.642
282.931
283.924
284.843
285.828
286.812
287.672
288.394
289.064
289.747
290.427
291.053
291.61
292.13
292.644
293.155
293.65
294.125
294.594
295.071
295.557
296.043
296.513
296.949
297.316
297.567
297.64
297.491
297.072
296.382
295.45
294.369
293.192
292.011
290.792
289.554
288.19
286.698
285.03
283.35
282.1
282.029
284.246
288.746
294.151
299.866
305.56
309.217
311.985
312.668
310.868
306.279
300.103
291.236
282.327
273.795
268.175
261.654
231.578
210.548
146.529
85.5742
85.1247
72.7697
95.3763
112.903
102.02
119.74
111.864
111.908
115.487
106.216
88.4124
52.2472
23.8174
22.9284
69.611
145.275
246.537
326.444
400.948
451.162
485.862
481.057
498.967
492.563
110.596
99.8235
85.0038
74.5018
73.6627
81.8572
95.595
111.611
127.814
143.164
157.305
170.196
181.903
192.526
202.162
210.81
218.499
225.363
231.668
237.563
242.948
247.814
252.499
257.089
260.876
263.359
265.144
267.556
270.621
273.446
275.486
276.913
278.326
279.941
281.519
282.793
283.796
284.742
285.745
286.732
287.591
288.318
288.998
289.69
290.374
291.001
291.562
292.086
292.605
293.119
293.615
294.091
294.561
295.04
295.527
296.013
296.484
296.923
297.295
297.551
297.632
297.494
297.087
296.407
295.485
294.409
293.236
292.056
290.836
289.597
288.232
286.739
285.068
283.378
282.105
281.991
284.154
288.618
294.008
299.712
305.434
309.132
311.936
312.68
310.953
306.434
300.317
291.484
282.558
273.96
268.285
261.978
232.119
211.294
147.618
86.0651
85.2119
72.6373
95.0041
112.841
101.94
119.61
111.927
111.868
115.546
106.518
88.9626
52.8243
23.9754
22.3722
68.3022
143.373
244.732
324.955
399.776
450.394
485.591
480.947
498.871
492.618
118.932
112.69
102.225
92.8104
89.2818
92.7286
101.82
114.454
128.635
142.938
156.583
169.255
180.892
191.542
201.253
209.989
217.74
224.629
230.919
236.815
242.329
247.474
252.342
256.718
260.103
262.455
264.617
267.416
270.558
273.271
275.26
276.645
278.149
279.818
281.388
282.648
283.663
284.638
285.659
286.648
287.504
288.237
288.929
289.63
290.318
290.946
291.51
292.04
292.563
293.08
293.577
294.055
294.527
295.007
295.495
295.982
296.455
296.896
297.272
297.535
297.625
297.497
297.103
296.435
295.522
294.452
293.282
292.103
290.884
289.644
288.278
286.782
285.109
283.406
282.105
281.942
284.047
288.478
293.854
299.553
305.301
309.044
311.887
312.697
311.045
306.593
300.542
291.745
282.797
274.121
268.396
262.31
232.67
212.041
148.629
86.4627
85.2255
72.3749
94.5899
112.778
101.855
119.468
111.991
111.827
115.612
106.813
89.4937
53.3399
24.0414
21.7037
67.0222
141.747
243.052
323.553
398.667
449.659
485.315
480.839
498.789
492.676
126.467
122.684
115.613
108.309
104.164
104.705
109.984
119.101
130.683
143.379
156.17
168.45
179.948
190.59
200.351
209.161
216.989
223.943
230.274
236.2
241.791
247.042
251.884
256.034
259.233
261.732
264.306
267.369
270.501
273.044
274.785
276.402
277.991
279.693
281.25
282.496
283.528
284.532
285.57
286.558
287.412
288.153
288.857
289.567
290.258
290.888
291.456
291.991
292.519
293.039
293.537
294.016
294.49
294.972
295.46
295.948
296.423
296.867
297.248
297.519
297.618
297.502
297.121
296.465
295.561
294.498
293.331
292.154
290.934
289.694
288.327
286.83
285.151
283.433
282.098
281.881
283.924
288.321
293.688
299.383
305.174
308.954
311.837
312.719
311.147
306.765
300.785
292.018
283.045
274.291
268.504
262.646
233.248
212.787
149.606
86.7736
85.1328
71.9225
94.1036
112.708
101.761
119.308
112.055
111.777
115.684
107.136
90.0209
53.7829
23.984
20.8797
65.4662
139.636
241.035
321.895
397.366
448.811
485.003
480.716
498.692
492.742
133.524
131.321
126.542
121.114
117.347
116.558
119.267
125.353
134.176
144.802
156.276
167.845
179.032
189.587
199.371
208.262
216.203
223.276
229.694
235.66
241.263
246.492
251.224
255.234
258.455
261.245
264.178
267.374
270.385
272.746
274.5
276.076
277.835
279.583
281.104
282.34
283.39
284.425
285.477
286.463
287.316
288.065
288.783
289.501
290.194
290.826
291.398
291.94
292.473
292.995
293.495
293.975
294.451
294.934
295.424
295.912
296.389
296.837
297.223
297.502
297.611
297.508
297.141
296.498
295.603
294.547
293.384
292.208
290.989
289.748
288.38
286.881
285.195
283.458
282.084
281.803
283.78
288.145
293.507
299.204
305.021
308.862
311.788
312.746
311.26
306.95
301.044
292.302
283.299
274.455
268.603
262.985
233.846
213.512
150.524
87.0289
84.8999
71.2108
93.5189
112.646
101.659
119.127
112.116
111.722
115.768
107.465
90.5016
54.0997
23.77
19.8903
63.7823
137.537
238.94
320.165
396.007
447.922
484.662
480.586
498.6
492.816
140.26
139.104
135.748
131.699
128.663
127.535
128.781
132.631
138.993
147.41
157.194
167.652
178.223
188.512
198.243
207.209
215.299
222.543
229.093
235.115
240.704
245.867
250.508
254.496
257.88
260.986
264.165
267.362
270.201
272.419
274.189
275.896
277.672
279.435
280.969
282.174
283.251
284.317
285.381
286.363
287.216
287.974
288.705
289.432
290.127
290.761
291.338
291.886
292.424
292.948
293.449
293.931
294.409
294.893
295.384
295.874
296.353
296.804
297.197
297.484
297.605
297.516
297.163
296.534
295.649
294.599
293.439
292.266
291.047
289.806
288.438
286.935
285.241
283.48
282.058
281.705
283.61
287.946
293.309
299.014
304.872
308.768
311.74
312.781
311.385
307.153
301.315
292.599
283.555
274.623
268.69
263.323
234.464
214.2
151.417
87.2107
84.4933
70.1653
92.7999
112.569
101.546
118.921
112.171
111.648
115.85
107.802
90.9062
54.2456
23.3716
18.7153
61.923
135.074
236.573
318.222
394.488
446.935
484.275
480.441
498.499
492.898
146.614
146.141
143.719
140.677
138.373
137.351
137.886
140.283
144.732
151.131
159.104
168.145
177.75
187.48
196.975
205.938
214.173
221.623
228.352
234.474
240.084
245.221
249.849
253.92
257.52
260.882
264.177
267.289
269.951
272.085
273.913
275.72
277.566
279.29
280.762
282.046
283.115
284.208
285.281
286.259
287.112
287.881
288.625
289.359
290.056
290.692
291.274
291.829
292.373
292.899
293.401
293.885
294.364
294.85
295.342
295.833
296.314
296.77
297.169
297.466
297.599
297.525
297.188
296.572
295.697
294.654
293.498
292.328
291.11
289.87
288.5
286.994
285.289
283.499
282.02
281.586
283.408
287.718
293.091
298.812
304.717
308.675
311.694
312.823
311.524
307.372
301.604
292.901
283.809
274.787
268.757
263.655
235.092
214.84
152.315
87.5387
83.889
68.7502
91.8946
112.496
101.426
118.687
112.215
111.575
115.954
108.132
91.188
54.1735
22.7662
17.3453
59.7198
132.467
234.017
316.123
392.849
445.867
483.834
480.281
498.4
492.991
152.569
152.568
150.832
148.529
146.806
146.016
146.274
147.823
150.926
155.681
161.964
169.485
177.872
186.742
195.728
204.493
212.769
220.398
227.338
233.628
239.345
244.552
249.266
253.489
257.296
260.823
264.133
267.122
269.654
271.77
273.68
275.581
277.454
279.158
280.597
281.793
282.996
284.108
285.179
286.152
287.005
287.786
288.543
289.283
289.981
290.62
291.208
291.77
292.318
292.846
293.35
293.835
294.317
294.805
295.297
295.789
296.273
296.733
297.139
297.446
297.594
297.534
297.214
296.613
295.748
294.712
293.561
292.394
291.177
289.938
288.568
287.057
285.338
283.513
281.966
281.421
283.169
287.454
292.848
298.598
304.56
308.582
311.651
312.876
311.68
307.612
301.909
293.204
284.058
274.923
268.801
263.979
235.698
215.431
153.262
87.6514
83.0654
66.9523
90.7351
112.443
101.3
118.419
112.244
111.45
116.052
108.442
91.2974
53.8478
21.9322
15.7715
57.5724
129.524
231.179
313.799
391.042
444.689
483.322
480.104
498.295
493.095
158.179
158.52
157.303
155.535
154.237
153.682
153.882
154.971
157.187
160.71
165.573
171.656
178.739
186.543
194.758
203.064
211.168
218.844
225.956
232.459
238.379
243.768
248.661
253.077
257.063
260.689
263.973
266.863
269.336
271.492
273.504
275.473
277.346
279.014
280.432
281.673
282.826
284.002
285.084
286.041
286.898
287.689
288.458
289.204
289.903
290.544
291.139
291.708
292.261
292.791
293.296
293.783
294.267
294.756
295.249
295.742
296.228
296.693
297.107
297.425
297.588
297.545
297.243
296.657
295.803
294.774
293.627
292.463
291.249
290.012
288.642
287.125
285.389
283.523
281.896
281.24
282.884
287.148
292.575
298.368
304.397
308.49
311.613
312.941
311.853
307.875
302.229
293.504
284.297
275.053
268.814
264.274
236.259
215.985
154.269
88.4669
81.987
64.7842
89.2443
112.402
101.177
118.12
112.253
111.326
116.162
108.709
91.1747
53.2457
20.8504
13.9877
54.7458
126.325
228.07
311.258
389.072
443.396
482.716
479.909
498.19
493.213
163.485
164.065
163.234
161.864
160.887
160.536
160.761
161.609
163.264
165.916
169.668
174.512
180.352
187.018
194.29
201.906
209.59
217.095
224.235
230.9
237.052
242.698
247.844
252.489
256.652
260.367
263.654
266.523
269.022
271.264
273.373
275.386
277.244
278.867
280.274
281.535
282.737
283.88
284.964
285.941
286.788
287.593
288.372
289.121
289.821
290.465
291.067
291.644
292.201
292.733
293.239
293.728
294.214
294.703
295.197
295.691
296.179
296.65
297.072
297.403
297.581
297.556
297.274
296.704
295.862
294.84
293.696
292.537
291.326
290.092
288.721
287.197
285.441
283.527
281.807
281.018
282.548
286.791
292.264
298.12
304.232
308.417
311.583
313.019
312.05
308.164
302.564
293.797
284.523
275.15
268.79
264.533
236.737
216.524
155.288
88.7366
80.6793
62.2828
87.3323
112.397
101.065
117.792
112.236
111.145
116.265
108.904
90.7591
52.3552
19.5021
11.9721
52.032
122.766
224.63
308.456
386.909
441.966
481.989
479.7
498.081
493.347
168.506
169.244
168.706
167.648
166.918
166.729
166.998
167.72
169.026
171.082
174.007
177.851
182.599
188.175
194.444
201.221
208.28
215.39
222.349
229.019
235.317
241.194
246.609
251.516
255.896
259.759
263.141
266.095
268.704
271.07
273.267
275.304
277.136
278.736
280.138
281.419
282.641
283.799
284.852
285.804
286.702
287.499
288.285
289.036
289.736
290.384
290.993
291.577
292.138
292.671
293.179
293.67
294.157
294.647
295.141
295.635
296.127
296.602
297.033
297.377
297.573
297.568
297.307
296.755
295.924
294.91
293.77
292.615
291.407
290.177
288.807
287.275
285.494
283.525
281.699
280.757
282.156
286.375
291.907
297.847
304.063
308.302
311.563
313.113
312.272
308.483
302.913
294.078
284.731
275.222
268.718
264.74
237.102
217.062
156.259
89.4666
79.0482
59.4846
84.8985
112.443
100.981
117.444
112.193
110.924
116.354
108.988
89.9994
51.1606
17.869
9.69939
48.6251
118.867
220.837
305.375
384.544
440.386
481.108
479.477
497.968
493.501
173.262
174.101
173.79
172.98
172.442
172.374
172.685
173.34
174.425
176.075
178.4
181.472
185.318
189.924
195.227
201.114
207.422
213.959
220.539
227.013
233.28
239.257
244.863
250.015
254.654
258.764
262.368
265.53
268.331
270.853
273.143
275.204
277.022
278.611
280.027
281.335
282.561
283.714
284.762
285.701
286.557
287.421
288.202
288.949
289.649
290.301
290.917
291.507
292.072
292.607
293.116
293.609
294.098
294.588
295.081
295.576
296.069
296.55
296.991
297.349
297.564
297.58
297.343
296.809
295.991
294.984
293.847
292.697
291.493
290.268
288.899
287.358
285.549
283.517
281.571
280.454
281.697
285.892
291.495
297.544
303.89
308.241
311.556
313.226
312.505
308.832
303.275
294.34
284.917
275.257
268.587
264.879
237.323
217.591
157.076
90.0677
77.1446
56.4026
81.8302
112.555
100.952
117.091
112.123
110.646
116.41
108.916
88.8532
49.6523
15.9337
7.13688
45.0687
114.531
216.639
301.972
381.952
438.633
480.018
479.237
497.844
493.677
177.775
178.674
178.538
177.924
177.534
177.558
177.906
178.521
179.46
180.828
182.722
185.211
188.341
192.13
196.565
201.591
207.105
212.965
219.016
225.117
231.161
237.058
242.708
248.012
252.89
257.296
261.227
264.707
267.785
270.512
272.922
275.039
276.881
278.493
279.937
281.268
282.506
283.645
284.673
285.613
286.483
287.296
288.116
288.867
289.561
290.218
290.84
291.436
292.004
292.541
293.051
293.546
294.035
294.525
295.017
295.511
296.007
296.493
296.943
297.316
297.552
297.592
297.379
296.869
296.063
295.064
293.93
292.783
291.583
290.364
288.996
287.446
285.605
283.503
281.424
280.107
281.183
285.336
291.018
297.2
303.709
308.173
311.567
313.363
312.829
309.215
303.646
294.581
285.073
275.24
268.378
264.925
237.38
218.069
157.623
90.7549
74.9324
53.0596
78.0076
112.752
101.002
116.753
112.037
110.311
116.406
108.634
87.288
47.8016
13.6803
4.22512
40.9366
109.737
211.996
298.215
379.111
436.69
478.677
478.924
497.705
493.88
182.063
182.99
182.987
182.531
182.258
182.352
182.726
183.315
184.151
185.319
186.899
188.952
191.524
194.651
198.345
202.591
207.335
212.484
217.922
223.528
229.199
234.846
240.379
245.698
250.717
255.372
259.628
263.466
266.885
269.887
272.492
274.734
276.664
278.349
279.851
281.215
282.459
283.588
284.608
285.533
286.406
287.237
288.016
288.774
289.482
290.134
290.764
291.364
291.934
292.472
292.984
293.48
293.97
294.458
294.948
295.442
295.939
296.43
296.889
297.279
297.537
297.602
297.418
296.933
296.141
295.15
294.017
292.875
291.678
290.466
289.1
287.538
285.661
283.481
281.256
279.717
280.584
284.701
290.468
296.803
303.515
308.125
311.599
313.526
313.147
309.634
304.025
294.798
285.189
275.206
268.074
264.848
237.23
218.463
157.815
91.4079
72.4392
49.4972
73.3044
113.031
101.199
116.462
111.949
109.919
116.315
108.086
85.3014
45.5835
11.0895
0.887142
36.3439
104.385
206.85
294.052
375.986
434.536
477.024
478.472
497.546
494.112
186.14
187.073
187.17
186.841
186.662
186.807
187.199
187.766
188.527
189.547
190.894
192.618
194.761
197.36
200.442
204.015
208.058
212.519
217.32
222.37
227.576
232.855
238.131
243.321
248.342
253.121
257.6
261.73
265.471
268.792
271.684
274.166
276.286
278.115
279.719
281.144
282.411
283.54
284.553
285.481
286.349
287.169
287.953
288.685
289.384
290.066
290.687
291.29
291.862
292.402
292.915
293.413
293.902
294.388
294.875
295.367
295.864
296.36
296.829
297.236
297.518
297.612
297.458
297.002
296.227
295.244
294.112
292.972
291.777
290.572
289.208
287.634
285.716
283.45
281.067
279.284
279.916
283.98
289.838
296.34
303.3
308.092
311.662
313.722
313.519
310.091
304.406
294.99
285.253
275.03
267.644
264.608
236.873
218.695
157.636
92.1243
69.8827
45.7361
67.6083
113.399
101.533
116.253
111.888
109.482
116.097
107.205
82.8916
42.9463
8.14009
-2.96971
31.1424
98.4057
201.145
289.432
372.528
432.153
475.026
477.818
497.374
494.377
190.02
190.941
191.114
190.888
190.783
190.966
191.367
191.914
192.616
193.524
194.693
196.166
197.977
200.161
202.748
205.757
209.189
213.022
217.209
221.688
226.388
231.233
236.156
241.092
245.972
250.723
255.277
259.568
263.537
267.14
270.348
273.157
275.587
277.671
279.456
280.991
282.32
283.482
284.511
285.443
286.31
287.127
287.893
288.621
289.31
289.965
290.626
291.222
291.791
292.332
292.846
293.344
293.831
294.313
294.797
295.286
295.783
296.282
296.761
297.185
297.494
297.62
297.5
297.076
296.324
295.348
294.215
293.077
291.882
290.683
289.32
287.73
285.768
283.408
280.855
278.804
279.182
283.173
289.124
295.8
303.054
308.074
311.755
313.956
313.938
310.584
304.785
295.154
285.248
274.954
267.066
264.161
236.291
218.726
157.182
92.9593
67.4154
41.6977
60.8217
113.795
102.133
116.165
111.889
109.012
115.72
105.939
80.105
39.8812
4.80663
-7.49822
25.2546
91.6885
194.802
284.288
368.675
429.493
472.686
476.949
497.203
494.673
193.715
194.612
194.841
194.698
194.652
194.861
195.265
195.794
196.446
197.265
198.295
199.572
201.124
202.98
205.169
207.715
210.63
213.911
217.534
221.463
225.649
230.031
234.547
239.143
243.764
248.349
252.83
257.141
261.22
265.013
268.486
271.615
274.393
276.817
278.896
280.65
282.118
283.363
284.445
285.408
286.285
287.096
287.855
288.573
289.252
289.91
290.531
291.15
291.726
292.26
292.776
293.273
293.757
294.236
294.715
295.2
295.696
296.197
296.684
297.127
297.464
297.626
297.544
297.158
296.43
295.468
294.33
293.191
291.993
290.799
289.435
287.826
285.814
283.35
280.617
278.275
278.374
282.272
288.326
295.173
302.766
308.071
311.884
314.232
314.407
311.114
305.157
295.288
285.161
274.563
266.277
263.454
235.459
218.532
156.684
93.9587
65.1605
37.151
52.8893
114.192
102.982
116.24
112.001
108.542
115.137
104.224
76.9492
36.3393
1.06221
-12.7205
18.6013
84.1208
187.726
278.549
364.353
426.485
470.047
475.914
497.049
495
197.235
198.1
198.368
198.293
198.294
198.522
198.924
199.432
200.042
200.787
201.706
202.827
204.172
205.767
207.637
209.805
212.289
215.095
218.218
221.638
225.325
229.237
233.325
237.534
241.82
246.138
250.433
254.644
258.714
262.591
266.232
269.604
272.677
275.429
277.843
279.915
281.655
283.098
284.3
285.33
286.244
287.071
287.83
288.54
289.217
289.863
290.489
291.079
291.652
292.208
292.712
293.203
293.684
294.156
294.629
295.109
295.601
296.103
296.599
297.06
297.428
297.63
297.591
297.249
296.551
295.605
294.463
293.318
292.115
290.923
289.552
287.918
285.849
283.271
280.345
277.689
277.485
281.305
287.441
294.454
302.419
308.075
312.078
314.543
314.929
311.677
305.518
295.388
284.984
274.16
265.247
262.436
234.338
218.049
156.426
95.137
63.1119
31.8026
43.7668
114.399
104.14
116.51
112.283
108.13
114.344
102.04
73.5039
32.3779
-3.1422
-18.7277
11.0925
75.558
179.794
272.126
359.485
423.054
467.16
474.765
496.916
495.35
200.59
201.417
201.712
201.691
201.731
201.97
202.365
202.853
203.425
204.108
204.934
205.928
207.107
208.491
210.102
211.961
214.087
216.492
219.178
222.14
225.363
228.819
232.474
236.283
240.202
244.196
248.228
252.251
256.215
260.069
263.77
267.275
270.545
273.547
276.253
278.644
280.716
282.474
283.938
285.143
286.146
287.014
287.798
288.522
289.197
289.838
290.455
291.032
291.593
292.119
292.646
293.138
293.604
294.073
294.54
295.014
295.501
296.002
296.504
296.983
297.384
297.631
297.64
297.35
296.689
295.762
294.62
293.471
292.249
291.054
289.669
288.004
285.866
283.16
280.037
277.036
276.523
280.181
286.496
293.652
302.005
308.084
312.233
314.967
315.507
312.27
305.862
295.441
284.699
273.538
263.886
261.065
232.885
217.227
156.483
96.4176
61.144
25.5321
33.5004
114.357
105.622
116.988
112.773
107.804
113.309
99.3595
69.7368
27.9423
-7.86701
-25.6698
2.62127
65.8346
170.844
264.915
353.986
419.135
464.03
473.504
496.766
495.711
203.789
204.573
204.885
204.909
204.979
205.226
205.611
206.078
206.614
207.243
207.991
208.88
209.922
211.134
212.533
214.139
215.968
218.035
220.348
222.908
225.71
228.74
231.976
235.388
238.938
242.591
246.319
250.093
253.873
257.613
261.27
264.799
268.158
271.311
274.225
276.875
279.245
281.327
283.118
284.627
285.871
286.885
287.73
288.48
289.176
289.828
290.438
291.012
291.559
292.083
292.58
293.064
293.544
293.996
294.449
294.915
295.395
295.894
296.401
296.897
297.331
297.628
297.693
297.465
296.85
295.949
294.804
293.645
292.407
291.196
289.797
288.082
285.861
283.004
279.661
276.31
275.459
279.042
285.419
292.771
301.514
308.089
312.488
315.205
316.135
312.888
306.187
295.438
284.277
272.701
262.152
259.28
231.075
216.02
156.743
97.6356
59.2054
18.149
22.3078
113.658
107.4
117.677
113.536
107.64
112.078
96.2352
65.7429
23.1673
-13.1546
-33.6196
-6.9124
54.7445
160.68
256.777
347.754
414.653
460.604
472.105
496.538
496.073
206.838
207.578
207.9
207.958
208.053
208.303
208.677
209.122
209.626
210.207
210.889
211.689
212.617
213.687
214.912
216.31
217.894
219.679
221.676
223.889
226.321
228.967
231.814
234.845
238.033
241.347
244.758
248.246
251.784
255.338
258.866
262.326
265.677
268.884
271.913
274.738
277.334
279.684
281.774
283.596
285.154
286.46
287.531
288.402
289.134
289.795
290.424
291.008
291.547
292.054
292.538
293.007
293.455
293.91
294.362
294.813
295.285
295.78
296.289
296.802
297.269
297.621
297.75
297.595
297.039
296.172
295.028
293.86
292.592
291.36
289.929
288.151
285.824
282.793
279.215
275.469
274.261
277.759
284.391
291.844
300.951
308.086
312.764
315.684
316.807
313.523
306.474
295.361
283.725
271.598
260.02
257.001
228.9
214.393
157.075
98.6504
57.9712
10.8547
11.5313
112.22
109.449
118.504
114.563
107.665
110.628
92.7044
61.4094
17.9315
-19.1002
-42.6651
-17.7498
42.0688
149.053
247.53
340.666
409.521
456.798
470.585
496.15
496.409
209.746
210.44
210.765
210.852
210.966
211.217
211.578
212.002
212.476
213.014
213.638
214.362
215.195
216.147
217.229
218.454
219.836
221.387
223.119
225.038
227.151
229.457
231.954
234.631
237.471
240.453
243.549
246.736
249.997
253.311
256.647
259.968
263.236
266.416
269.476
272.387
275.124
277.663
279.985
282.074
283.922
285.53
286.904
288.059
289.005
289.764
290.397
290.976
291.537
292.054
292.524
292.967
293.407
293.835
294.264
294.722
295.175
295.665
296.173
296.7
297.2
297.611
297.818
297.745
297.261
296.441
295.302
294.122
292.825
291.553
290.079
288.204
285.733
282.494
278.655
274.516
272.888
276.367
283.077
290.912
300.328
308.068
313.065
316.136
317.511
314.18
306.74
295.2
282.965
270.129
257.198
254.155
226.351
212.311
157.44
99.4089
59.547
5.36047
4.76294
109.394
111.63
119.446
115.864
107.97
109.045
88.9047
56.8827
12.4223
-25.7569
-52.8967
-29.9853
27.5662
135.678
236.937
332.563
403.657
452.546
468.914
495.564
496.711
212.518
213.168
213.491
213.6
213.729
213.977
214.325
214.728
215.173
215.674
216.247
216.906
217.657
218.509
219.471
220.554
221.768
223.126
224.636
226.307
228.147
230.159
232.345
234.699
237.214
239.875
242.662
245.552
248.526
251.573
254.675
257.805
260.932
264.022
267.043
269.965
272.761
275.406
277.881
280.166
282.248
284.117
285.77
287.212
288.449
289.489
290.331
290.985
291.515
292.011
292.507
292.96
293.368
293.768
294.182
294.607
295.07
295.544
296.055
296.596
297.125
297.6
297.898
297.919
297.524
296.767
295.64
294.453
293.118
291.795
290.249
288.269
285.602
282.079
277.923
273.384
271.307
274.805
281.956
289.93
299.687
308.053
313.393
316.622
318.241
314.835
306.947
294.93
282.045
268.253
254.177
250.666
223.403
209.744
157.827
100.141
64.3643
4.30439
4.63319
105.416
113.812
120.273
117.391
108.521
107.386
84.9614
51.9782
6.40491
-33.284
-64.3833
-44.0394
10.9942
120.217
224.729
323.227
396.954
447.817
467.021
494.71
496.965
215.162
215.767
216.085
216.21
216.35
216.595
216.928
217.31
217.729
218.195
218.723
219.324
220.005
220.772
221.632
222.595
223.668
224.863
226.188
227.65
229.258
231.016
232.928
234.994
237.212
239.572
242.062
244.665
247.361
250.138
252.987
255.893
258.835
261.784
264.709
267.579
270.368
273.049
275.601
278.007
280.251
282.318
284.2
285.892
287.392
288.703
289.829
290.767
291.507
292.052
292.471
292.89
293.338
293.75
294.123
294.517
294.953
295.449
295.942
296.481
297.051
297.596
297.988
298.123
297.837
297.163
296.057
294.861
293.496
292.103
290.475
288.296
285.379
281.527
276.96
271.989
269.429
273.011
280.606
289.165
299.062
308.049
313.739
317.141
318.99
315.502
307.156
294.549
280.817
265.915
250.256
246.473
220.023
206.714
158.044
100.402
69.2163
4.07447
5.92799
99.6911
115.695
120.902
118.995
109.337
105.68
81.0354
47.0065
0.115788
-41.6924
-77.2421
-59.9851
-7.81677
102.321
210.609
312.394
389.222
442.548
464.796
493.545
497.15
217.682
218.244
218.553
218.69
218.838
219.078
219.396
219.758
220.152
220.585
221.072
221.623
222.242
222.934
223.706
224.566
225.52
226.577
227.744
229.029
230.438
231.978
233.653
235.466
237.417
239.503
241.717
244.048
246.481
248.999
251.596
254.263
256.99
259.757
262.538
265.306
268.033
270.693
273.263
275.724
278.059
280.255
282.3
284.186
285.906
287.453
288.826
290.022
291.039
291.874
292.51
292.952
293.267
293.635
294.077
294.491
294.867
295.301
295.837
296.416
296.977
297.579
298.092
298.373
298.208
297.64
296.569
295.383
293.977
292.504
290.761
288.432
285.105
280.675
275.575
270.162
267.104
270.886
279.238
288.131
298.568
308.149
314.139
317.688
319.771
316.174
307.285
294.046
279.404
262.968
245.765
241.526
216.163
203.121
157.995
100.43
73.4659
3.04028
3.76574
92.9948
117.098
121.129
120.536
110.459
104.118
77.3238
41.7473
-6.75508
-51.1916
-91.5651
-78.2844
-29.1042
81.6468
194.284
299.8
380.181
436.561
462.247
491.958
497.233
220.085
220.604
220.903
221.049
221.201
221.435
221.738
222.081
222.451
222.855
223.304
223.809
224.373
225
225.695
226.465
227.316
228.254
229.287
230.421
231.661
233.014
234.485
236.078
237.795
239.636
241.599
243.677
245.86
248.137
250.493
252.922
255.42
257.979
260.58
263.204
265.823
268.414
270.952
273.415
275.785
278.049
280.193
282.208
284.087
285.821
287.402
288.821
290.074
291.154
292.066
292.801
293.348
293.714
293.938
294.319
294.832
295.314
295.72
296.266
296.949
297.652
298.207
298.67
298.652
298.222
297.189
295.993
294.588
293.083
291.153
288.52
284.763
279.782
273.754
267.694
264.096
268.188
277.654
287.649
298.227
308.354
314.626
318.309
320.576
316.863
307.473
293.409
277.565
259.562
240.521
235.709
211.772
198.946
157.493
100.306
77.7965
3.39263
1.3108
85.0724
117.604
120.877
121.878
111.692
102.669
73.9095
36.7191
-13.8905
-61.6884
-107.315
-99.0033
-53.0368
57.8761
175.456
285.217
369.544
429.642
459.395
489.826
497.177
222.374
222.853
223.14
223.291
223.447
223.673
223.962
224.285
224.633
225.01
225.427
225.89
226.405
226.975
227.603
228.295
229.057
229.893
230.811
231.815
232.911
234.104
235.4
236.802
238.315
239.941
241.678
243.525
245.475
247.521
249.651
251.854
254.126
256.466
258.866
261.314
263.788
266.268
268.73
271.151
273.512
275.794
277.985
280.074
282.053
283.913
285.648
287.247
288.701
289.998
291.134
292.102
292.923
293.592
294.109
294.427
294.588
295.073
295.761
296.379
296.856
297.58
298.412
299.09
299.195
298.894
297.938
296.808
295.34
293.75
291.686
288.798
284.346
278.135
270.994
264.091
259.981
264.598
275.573
286.935
298.08
308.863
315.314