/*--------------------------------*- C++ -*----------------------------------*\
| =========                 |                                                 |
| \\      /  F ield         | OpenFOAM: The Open Source CFD Toolbox           |
|  \\    /   O peration     | Version:  2412                                  |
|   \\  /    A nd           | Website:  www.openfoam.com                      |
|    \\/     M anipulation  |                                                 |
\*---------------------------------------------------------------------------*/
FoamFile
{
    version     2.0;
    format      ascii;
    arch        "LSB;label=32;scalar=64";
    class       volVectorField;
    location    "0.955";
    object      U_0;
}
// * * * * * * * * * * * * * * * * * * * * * * * * * * * * * * * * * * * * * //

dimensions      [0 1 -1 0 0 0 0];

internalField   nonuniform List<vector> 
12600
(
(19.0842 0 -0.610645)
(7.69541 -3.6683e-20 -1.58923)
(3.23379 -1.65405e-20 -1.63974)
(1.63233 0 -1.20209)
(1.02062 -2.20894e-22 -0.79595)
(0.694281 0 -0.535398)
(0.475907 -3.06786e-20 -0.369473)
(0.318494 0 -0.255815)
(0.201636 0 -0.173293)
(0.113336 0 -0.111498)
(0.0450337 0 -0.0652383)
(-0.00803563 -9.6922e-20 -0.0293513)
(-0.0491915 -9.87982e-20 -0.00110396)
(-0.0815348 0 0.0216025)
(-0.106744 1.99977e-19 0.0382163)
(-0.125226 0 0.0520131)
(-0.13982 2.70486e-22 0.0627359)
(-0.150195 0 0.0708176)
(-0.157431 9.66463e-20 0.0768754)
(-0.161903 0 0.0811594)
(-0.164403 0 0.0839181)
(-0.165485 0 0.0851859)
(-0.164857 3.54818e-19 0.0859252)
(-0.162662 -3.48535e-19 0.0861901)
(-0.159244 -5.49361e-22 0.0857541)
(-0.155402 1.62998e-19 0.0842423)
(-0.15126 0 0.0820493)
(-0.146499 0 0.079944)
(-0.141233 0 0.0776389)
(-0.13568 -2.85253e-19 0.0750462)
(-0.13011 -5.49488e-19 0.0722496)
(-0.124528 0 0.0693332)
(-0.118917 0 0.0664119)
(-0.113347 -2.46505e-19 0.0635123)
(-0.107903 -2.37084e-19 0.0606167)
(-0.102632 0 0.0577507)
(-0.0975299 0 0.0549579)
(-0.0925833 -4.21551e-19 0.0522579)
(-0.0878135 0 0.0496468)
(-0.0832371 7.54331e-23 0.0471145)
(-0.0788332 -3.73203e-19 0.0446558)
(-0.0745775 -3.5824e-19 0.0422737)
(-0.0704433 0 0.039961)
(-0.0664221 -3.29722e-19 0.0377057)
(-0.06252 -3.16056e-19 0.035505)
(-0.0587445 6.05809e-19 0.0333683)
(-0.0551244 -5.80557e-19 0.0313209)
(-0.0517117 0 0.0293942)
(-0.0485565 5.32667e-19 0.0276146)
(-0.0457246 -5.09966e-19 0.0260057)
(-0.0432454 0 0.0245917)
(-0.0411062 -2.76296e-23 0.0233679)
(-0.039256 4.46904e-19 0.0223071)
(-0.0375689 0 0.0213396)
(-0.035847 -8.17596e-19 0.0203545)
(-0.0337994 0 0.0191878)
(-0.0310564 0 0.0176053)
(-0.0271627 3.46942e-23 0.01535)
(-0.0216604 2.84238e-23 0.01219)
(-0.0142038 6.50545e-19 0.00794396)
(-0.00477039 -6.2027e-19 0.00265454)
(0.00634278 1.1815e-18 -0.00351441)
(0.0181035 0 -0.0101241)
(0.0290945 1.06768e-18 -0.0163421)
(0.0378773 1.01327e-18 -0.0213526)
(0.0438627 -1.92165e-18 -0.0248109)
(0.047271 9.10534e-19 -0.0267463)
(0.0493959 0 -0.0279707)
(0.0518494 0 -0.0294071)
(0.0567336 0 -0.0321958)
(0.0659425 0 -0.0374311)
(0.0807042 0 -0.0458734)
(0.100628 -1.3038e-18 -0.0573309)
(0.120235 1.23007e-18 -0.0687476)
(0.131327 0 -0.0755361)
(0.118833 0 -0.0690412)
(0.0792272 1.05345e-18 -0.0471272)
(0.0313741 -2.27588e-22 -0.0200623)
(-0.00885333 1.95762e-18 0.00309335)
(-0.0309413 0 0.0158133)
(-0.0227009 0 0.0114229)
(-0.00761301 0 0.00317689)
(0.0172893 -1.68079e-22 -0.0109273)
(0.0600884 0 -0.0344591)
(0.0957176 0 -0.0540689)
(0.117074 1.372e-18 -0.0658752)
(0.110582 5.08544e-22 -0.0614646)
(0.0509794 0 -0.0260921)
(-0.0281481 0 0.0195477)
(-0.0935657 -1.93834e-18 0.0561001)
(-0.0495898 -1.78911e-18 0.0307818)
(0.150745 -1.63968e-18 -0.0806035)
(0.483785 -1.35991e-18 -0.27101)
(0.525498 2.37558e-21 -0.288941)
(1.50044 3.81383e-21 -0.847657)
(1.00327 4.09226e-19 -0.566119)
(0.739009 0 -0.422856)
(0.27092 0 -0.157657)
(-0.26314 0 0.145338)
(-0.0767265 1.72769e-18 0.0423842)
(-0.0928546 -7.32098e-19 0.0528079)
(-0.0114682 8.06192e-19 0.00396219)
(0.188725 7.01748e-19 -0.107481)
(0.108908 0 -0.0633576)
(0.203952 0 -0.116691)
(0.292431 0 -0.165171)
(0.185337 8.33077e-19 -0.0978685)
(-0.222993 0 0.141284)
(-0.854247 -1.93448e-19 0.500936)
(-1.4774 0 0.844371)
(-1.87865 0 1.06715)
(-1.98388 1.03572e-18 1.1234)
(-1.774 0 0.999521)
(-1.37029 0 0.768947)
(-0.984106 0 0.549006)
(-0.632314 -4.70878e-18 0.350892)
(-0.201468 0 0.109784)
(0.0253493 4.33947e-18 -0.0166893)
(-0.0717319 0 0.0393938)
(0.116335 -2.09381e-22 -0.0658597)
(30.5384 -1.53187e-20 -0.925907)
(21.2163 2.10282e-20 -3.33112)
(13.3885 1.31935e-20 -4.20886)
(8.44855 0 -3.63535)
(5.60757 -1.29179e-20 -2.72966)
(3.89541 2.32735e-20 -1.99044)
(2.78544 3.20028e-20 -1.45225)
(2.01262 -3.71162e-20 -1.05915)
(1.44652 0 -0.764364)
(1.01834 0 -0.538178)
(0.687452 0 -0.362661)
(0.42862 0 -0.224118)
(0.224341 0 -0.113759)
(0.0601487 0 -0.0251532)
(-0.0687283 -6.60871e-22 0.0466722)
(-0.170398 0 0.102383)
(-0.252561 1.03381e-19 0.147135)
(-0.316102 0 0.182335)
(-0.365167 -2.00729e-19 0.209733)
(-0.401902 1.96107e-19 0.230337)
(-0.428859 0 0.245273)
(-0.44736 1.87902e-19 0.255573)
(-0.459077 -1.84377e-19 0.261155)
(-0.464546 1.80864e-19 0.26447)
(-0.465129 -1.75465e-19 0.264802)
(-0.461503 0 0.263344)
(-0.455294 1.62415e-19 0.258793)
(-0.446215 0 0.25316)
(-0.434851 0 0.246831)
(-0.421815 0 0.239598)
(-0.407745 2.84104e-19 0.231591)
(-0.392855 0 0.223112)
(-0.377407 0 0.214426)
(-0.361714 0 0.205642)
(-0.345984 0 0.196788)
(-0.33038 0 0.187958)
(-0.315013 0 0.179276)
(-0.29995 4.33725e-19 0.170789)
(-0.285269 0 0.162515)
(-0.271012 7.98625e-19 0.154447)
(-0.257144 7.6582e-19 0.146575)
(-0.24364 3.6714e-19 0.138906)
(-0.230458 0 0.131418)
(-0.217573 0 0.124091)
(-0.204998 6.46038e-19 0.116929)
(-0.192771 -6.18569e-19 0.109963)
(-0.181001 5.92019e-19 0.103273)
(-0.169864 0 0.0969609)
(-0.159525 -5.41991e-19 0.0911192)
(-0.150181 0 0.0858472)
(-0.141944 0 0.0812071)
(-0.13479 -4.7367e-19 0.0771793)
(-0.128571 0 0.0736666)
(-0.122899 0 0.0704302)
(-0.117154 8.2606e-19 0.0670965)
(-0.110415 0 0.0631237)
(-0.101483 0 0.0577952)
(-0.0889047 6.01261e-23 0.0502808)
(-0.0712413 6.85121e-19 0.0397996)
(-0.0473849 -3.69203e-23 0.0257852)
(-0.0172361 0 0.00835294)
(0.0182262 -1.18248e-18 -0.0120023)
(0.0558949 -1.12324e-18 -0.0336157)
(0.0913647 0 -0.0538195)
(0.120054 -2.01958e-18 -0.0700357)
(0.139922 -1.21195e-22 -0.0811973)
(0.151443 0 -0.0875954)
(0.158695 8.55951e-19 -0.0917291)
(0.166921 0 -0.0966115)
(0.182929 0 -0.106178)
(0.21308 0 -0.124018)
(0.261777 0 -0.152617)
(0.328453 2.56779e-18 -0.191287)
(0.396503 -1.2096e-18 -0.230113)
(0.440549 0 -0.254073)
(0.411638 0 -0.235048)
(0.293937 1.03069e-18 -0.165686)
(0.142229 -3.68773e-22 -0.0782664)
(0.00889925 -4.14389e-22 -0.00236942)
(-0.0669122 0 0.0393967)
(-0.0477422 0 0.0263355)
(-0.00692495 0 0.00200424)
(0.0670596 -2.72107e-22 -0.0421516)
(0.1962 -1.52361e-18 -0.116341)
(0.299919 1.42822e-18 -0.175267)
(0.358694 -1.32564e-18 -0.207609)
(0.324477 7.65469e-22 -0.184586)
(0.115902 -1.11843e-18 -0.0605179)
(-0.14896 0 0.0921197)
(-0.358253 1.86308e-18 0.207504)
(-0.209722 0 0.112673)
(0.377733 1.57216e-18 -0.237575)
(1.45315 0 -0.85056)
(1.45624 -2.22224e-18 -0.877533)
(4.63324 -7.14975e-19 -2.69393)
(3.21294 0 -1.82135)
(2.47905 0 -1.40527)
(0.982382 -6.01239e-19 -0.532458)
(-0.739137 7.44359e-19 0.439298)
(-0.239545 -1.64154e-18 0.131166)
(-0.289082 6.953e-19 0.165776)
(-0.00877149 -7.64984e-19 -0.00553968)
(0.607257 0 -0.35377)
(0.381254 6.24351e-19 -0.220035)
(0.659373 0 -0.386305)
(0.875358 0 -0.50591)
(0.412498 -7.94917e-19 -0.223674)
(-1.00052 0 0.607607)
(-2.98281 -2.36023e-21 1.75961)
(-4.77233 1.77442e-19 2.78495)
(-5.81233 0 3.3746)
(-5.94659 0 3.44036)
(-5.2184 0 3.00354)
(-3.97032 1.85132e-18 2.2779)
(-2.79542 -4.22583e-18 1.59891)
(-1.77576 4.42669e-18 1.00755)
(-0.55815 0 0.303771)
(0.137753 -4.07585e-18 -0.0817826)
(-0.191903 0 0.108812)
(0.357675 7.22243e-18 -0.211464)
(34.1481 3.26167e-20 -0.767623)
(29.554 -8.66933e-21 -2.89346)
(22.9957 -3.82783e-21 -4.59393)
(16.8339 0 -4.95196)
(12.0929 -1.51157e-20 -4.41858)
(8.76702 5.72819e-22 -3.60424)
(6.46062 0 -2.83073)
(4.81367 3.5229e-20 -2.18623)
(3.59616 0 -1.66778)
(2.6707 4.25189e-20 -1.25235)
(1.95268 0 -0.917956)
(1.38677 0 -0.647652)
(0.936069 0 -0.428212)
(0.57285 0 -0.24986)
(0.28311 -9.81133e-20 -0.100491)
(0.0484322 0 0.0167659)
(-0.141071 0 0.113259)
(-0.292318 0 0.19063)
(-0.412704 9.50417e-20 0.252628)
(-0.506915 -4.24251e-22 0.3013)
(-0.579567 0 0.338846)
(-0.634255 2.66594e-24 0.367393)
(-0.673872 0 0.387119)
(-0.700088 -1.69942e-19 0.400962)
(-0.715101 0 0.409355)
(-0.722444 0 0.41136)
(-0.722627 -1.54056e-19 0.40964)
(-0.716723 0 0.403912)
(-0.705233 0 0.396879)
(-0.689893 -2.79116e-19 0.387787)
(-0.671603 0 0.377148)
(-0.650967 0 0.365366)
(-0.628652 0 0.352853)
(-0.605287 0 0.33983)
(-0.581265 2.31382e-19 0.326436)
(-0.556927 0 0.31287)
(-0.532569 0 0.299335)
(-0.5084 -4.10634e-19 0.285916)
(-0.484588 0 0.272685)
(-0.461235 -7.56103e-19 0.259664)
(-0.438332 -7.89684e-23 0.246859)
(-0.415884 -3.47589e-19 0.234288)
(-0.39386 0 0.221929)
(-0.372233 0 0.209776)
(-0.351036 -3.05639e-19 0.197854)
(-0.330349 0 0.186228)
(-0.310366 -5.60025e-19 0.175033)
(-0.291394 0 0.164449)
(-0.273716 5.67632e-23 0.154635)
(-0.257662 0 0.145777)
(-0.243445 0 0.137963)
(-0.231043 0 0.131154)
(-0.220228 -4.27618e-19 0.125174)
(-0.21037 0 0.119608)
(-0.200441 0 0.11381)
(-0.188911 0 0.106859)
(-0.173752 0 0.0975793)
(-0.152538 1.35607e-18 0.0845998)
(-0.122859 0 0.066619)
(-0.0828403 -3.0581e-23 0.042746)
(-0.0322687 0 0.0131853)
(0.0272562 5.57578e-19 -0.021197)
(0.090742 1.05905e-18 -0.057414)
(0.150922 0 -0.0910999)
(0.200107 1.90347e-18 -0.118091)
(0.234633 9.00955e-19 -0.136704)
(0.255024 0 -0.147595)
(0.267976 -8.06095e-19 -0.154856)
(0.282346 0 -0.163565)
(0.309671 0 -0.180548)
(0.360969 0 -0.211891)
(0.444147 0 -0.261805)
(0.559186 1.3124e-22 -0.329014)
(0.679564 1.13753e-18 -0.397053)
(0.764182 0 -0.440803)
(0.730394 0 -0.413348)
(0.545233 -2.16767e-22 -0.301567)
(0.293119 -1.86148e-18 -0.156759)
(0.0633398 -8.96717e-19 -0.0285574)
(-0.0717777 0 0.042511)
(-0.0499188 0 0.0237305)
(0.00862707 0 -0.0122831)
(0.125009 -3.02491e-18 -0.0832952)
(0.332351 -2.03741e-23 -0.202065)
(0.494203 -1.33979e-18 -0.290851)
(0.580436 0 -0.334252)
(0.507367 -1.14769e-18 -0.278359)
(0.137132 1.04853e-18 -0.0529791)
(-0.319847 0 0.209281)
(-0.667901 0 0.390554)
(-0.407904 1.61061e-18 0.208711)
(0.506265 0 -0.35156)
(2.30997 1.22615e-18 -1.35975)
(2.15152 -3.0292e-21 -1.34803)
(7.50766 6.78979e-19 -4.37187)
(5.39315 -3.72638e-19 -3.00048)
(4.30909 0 -2.39974)
(1.82272 5.62659e-19 -0.932605)
(-1.09662 -6.96496e-19 0.668489)
(-0.393613 1.53491e-18 0.205908)
(-0.470858 0 0.263986)
(0.0139023 -7.14215e-19 -0.0447313)
(1.02341 0 -0.600299)
(0.679394 -5.83813e-19 -0.393408)
(1.10877 5.62665e-19 -0.655186)
(1.3826 0 -0.784522)
(0.456765 7.43046e-19 -0.189791)
(-2.03281 0 1.29806)
(-5.28879 3.47374e-19 3.18023)
(-8.01552 -1.65814e-19 4.70149)
(-9.4377 0 5.45671)
(-9.41428 0 5.39174)
(-8.14803 0 4.6036)
(-6.13652 -5.44101e-21 3.43632)
(-4.26892 3.94727e-18 2.36964)
(-2.68505 -4.12367e-18 1.46334)
(-0.835766 0 0.414515)
(0.29239 -3.805e-18 -0.181262)
(-0.278855 0 0.151777)
(0.585554 2.57489e-22 -0.351147)
(34.7817 -1.71364e-20 -0.949361)
(33.4572 -4.92465e-21 -2.21359)
(29.6124 7.23787e-21 -3.99536)
(24.4795 -1.49727e-20 -5.12529)
(19.3477 -2.11021e-20 -5.32007)
(14.9652 -4.4204e-20 -4.87383)
(11.5108 0 -4.1632)
(8.86221 0 -3.42033)
(6.82877 0 -2.74382)
(5.24887 -4.02756e-20 -2.16073)
(4.00484 0 -1.66917)
(3.01346 0 -1.25833)
(2.21619 0 -0.915957)
(1.56922 0 -0.631501)
(1.04444 0 -0.39269)
(0.616771 -9.20252e-20 -0.197336)
(0.267632 9.16125e-20 -0.0347187)
(-0.0162396 0 0.0981064)
(-0.246029 0 0.206721)
(-0.430615 -1.75883e-19 0.293978)
(-0.577232 1.72077e-19 0.363695)
(-0.692077 -1.6887e-19 0.418327)
(-0.779222 1.64747e-19 0.460767)
(-0.843719 1.60924e-19 0.492149)
(-0.889556 -1.54759e-19 0.514425)
(-0.920497 1.50074e-19 0.526759)
(-0.937056 0 0.533393)
(-0.943317 -1.41792e-19 0.532551)
(-0.9399 0 0.527892)
(-0.928974 2.64172e-19 0.520221)
(-0.912225 0 0.509542)
(-0.8907 0 0.496737)
(-0.865574 0 0.48237)
(-0.837914 -2.27652e-19 0.466804)
(-0.808407 -2.18878e-19 0.450301)
(-0.777649 0 0.433205)
(-0.746193 0 0.415823)
(-0.714446 3.88303e-19 0.39832)
(-0.682726 0 0.380836)
(-0.65125 1.07111e-22 0.363436)
(-0.620079 -3.42604e-19 0.346162)
(-0.589281 0 0.329061)
(-0.558869 0 0.312132)
(-0.528843 0 0.295388)
(-0.499273 0 0.278889)
(-0.470293 -5.52538e-19 0.262747)
(-0.442188 0 0.247168)
(-0.4154 5.05849e-19 0.232413)
(-0.390342 4.83815e-19 0.218714)
(-0.367488 0 0.206326)
(-0.347159 0 0.195371)
(-0.329354 0 0.18579)
(-0.313775 4.03439e-19 0.177324)
(-0.299569 -3.85249e-19 0.16938)
(-0.285322 -7.35632e-19 0.161038)
(-0.268917 0 0.150989)
(-0.247548 -6.69979e-19 0.137567)
(-0.217845 -1.2781e-18 0.118865)
(-0.176446 0 0.0931145)
(-0.120711 -1.16068e-18 0.0591434)
(-0.0502553 0 0.0173062)
(0.0328332 -5.2515e-19 -0.0309981)
(0.121763 -9.97325e-19 -0.0816137)
(0.206628 0 -0.128551)
(0.276747 -8.95874e-19 -0.166157)
(0.326707 -8.48059e-19 -0.192199)
(0.35691 0 -0.207649)
(0.376317 0 -0.218315)
(0.397274 0 -0.231365)
(0.436077 6.76965e-19 -0.256442)
(0.508486 6.38898e-19 -0.3021)
(0.62611 0 -0.374282)
(0.790199 -1.13504e-18 -0.471024)
(0.965884 -1.0689e-18 -0.569593)
(1.0985 0 -0.635167)
(1.07311 0 -0.602593)
(0.834406 -9.09216e-19 -0.452326)
(0.488441 3.41414e-22 -0.252243)
(0.160291 0 -0.0716241)
(-0.0406952 0 0.0290867)
(-0.0261933 0 0.00796133)
(0.0404462 0 -0.0359616)
(0.190875 2.19301e-22 -0.131669)
(0.466277 1.34041e-18 -0.290334)
(0.673929 0 -0.401559)
(0.775613 0 -0.447064)
(0.649986 0 -0.347272)
(0.106361 9.83828e-19 -0.0106129)
(-0.544829 0 0.361721)
(-1.01767 1.63783e-18 0.593692)
(-0.636101 -1.50826e-18 0.309103)
(0.531839 1.38353e-18 -0.438906)
(3.01697 -1.14787e-18 -1.80698)
(2.61531 1.96012e-18 -1.7499)
(9.98693 -6.35437e-19 -5.88943)
(7.47097 3.48685e-19 -4.11323)
(6.19807 0 -3.40103)
(2.8068 0 -1.36372)
(-1.3037 -6.47411e-19 0.844207)
(-0.532787 -7.17578e-19 0.270485)
(-0.62851 -6.07034e-19 0.346844)
(0.0580171 6.51454e-22 -0.106127)
(1.43152 0 -0.84967)
(1.00205 0 -0.579975)
(1.54055 -5.25925e-19 -0.918695)
(1.78468 0 -1.00148)
(0.276715 -7.01991e-19 -0.0140368)
(-3.33899 0 2.16936)
(-7.72845 1.6528e-21 4.7075)
(-11.09 0 6.55517)
(-12.6029 -4.23866e-19 7.31467)
(-12.2599 8.22948e-19 7.0208)
(-10.4636 1.30053e-18 5.889)
(-7.80649 -6.28818e-21 4.33868)
(-5.37603 0 2.95292)
(-3.34009 3.85101e-18 1.78438)
(-1.02578 3.85466e-18 0.468194)
(0.486242 3.55298e-18 -0.301272)
(-0.329784 0 0.177421)
(0.800007 3.02407e-22 -0.490572)
(34.4386 0 -1.43082)
(34.5476 -3.58595e-21 -1.98801)
(33.0284 0 -3.31232)
(29.8823 1.41462e-20 -4.63039)
(25.7579 3.34496e-20 -5.39932)
(21.4181 2.15021e-20 -5.52137)
(17.4086 0 -5.16622)
(13.9714 0 -4.55915)
(11.1327 -3.46595e-20 -3.87148)
(8.82249 -3.74595e-20 -3.20008)
(6.94771 3.96196e-20 -2.58798)
(5.42234 8.23861e-20 -2.04872)
(4.17624 8.45348e-20 -1.58202)
(3.15318 0 -1.18282)
(2.31238 0 -0.841287)
(1.61986 1.73602e-19 -0.554272)
(1.04851 -3.9308e-22 -0.312219)
(0.578457 0 -0.109986)
(0.192468 -8.43435e-20 0.0581836)
(-0.122542 -1.65764e-19 0.196579)
(-0.37769 -1.62687e-19 0.309496)
(-0.582588 0 0.400607)
(-0.74445 -1.5574e-19 0.472885)
(-0.870391 1.50473e-19 0.52861)
(-0.965853 1.4628e-19 0.570123)
(-1.03487 6.80149e-23 0.600957)
(-1.08275 0 0.621266)
(-1.11203 4.93339e-23 0.632868)
(-1.12669 0 0.635153)
(-1.12932 2.48996e-19 0.631308)
(-1.12134 0 0.62401)
(-1.10511 0 0.612857)
(-1.08235 0 0.599019)
(-1.05472 2.15019e-19 0.582985)
(-1.02333 0 0.565163)
(-0.989133 0 0.546068)
(-0.953028 0 0.526152)
(-0.915707 0 0.505677)
(-0.877708 -3.51539e-19 0.484878)
(-0.839423 6.74295e-19 0.463885)
(-0.801037 0 0.442794)
(-0.762729 3.09814e-19 0.421708)
(-0.724594 0 0.400656)
(-0.686687 0 0.379695)
(-0.649143 0 0.358931)
(-0.612167 8.64657e-23 0.338535)
(-0.576143 0 0.318798)
(-0.541659 -4.76963e-19 0.300066)
(-0.509267 0 0.282645)
(-0.47959 0 0.266868)
(-0.453073 -4.16495e-19 0.252885)
(-0.42975 0 0.240608)
(-0.409277 0 0.229695)
(-0.390601 3.70931e-23 0.219363)
(-0.371943 6.92877e-19 0.208412)
(-0.35063 0 0.195143)
(-0.323103 5.82431e-23 0.177415)
(-0.28509 1.20312e-18 0.152807)
(-0.232309 0 0.119109)
(-0.16137 5.46135e-19 0.0749238)
(-0.071676 0 0.0207837)
(0.0342985 4.94035e-19 -0.0413064)
(0.148193 9.38066e-19 -0.105997)
(0.257701 0 -0.165779)
(0.349282 8.42521e-19 -0.213653)
(0.415637 -1.05244e-22 -0.246947)
(0.456752 0 -0.267051)
(0.483528 0 -0.281447)
(0.511629 0 -0.299356)
(0.561972 -1.27194e-18 -0.333239)
(0.655079 8.40466e-23 -0.393991)
(0.806379 0 -0.489166)
(1.01909 1.06591e-18 -0.615971)
(1.2518 2.00681e-18 -0.745882)
(1.43899 0 -0.835038)
(1.43583 0 -0.801313)
(1.15945 0 -0.617953)
(0.728359 3.40621e-22 -0.366397)
(0.300877 0 -0.134315)
(0.0265707 0 -0.00371401)
(0.0222683 0 -0.0229802)
(0.0868742 0 -0.0700167)
(0.26276 1.32897e-18 -0.187053)
(0.595836 1.25607e-18 -0.379765)
(0.837461 0 -0.504175)
(0.942026 0 -0.54093)
(0.751307 0 -0.382757)
(0.0252357 7.47965e-22 0.074406)
(-0.817741 0 0.553185)
(-1.39451 -1.53324e-18 0.814079)
(-0.881357 0 0.409126)
(0.467702 -1.29482e-18 -0.498929)
(3.55562 0 -2.16265)
(2.94143 -9.18539e-19 -2.11273)
(11.9827 0 -7.15347)
(9.37827 0 -5.10291)
(8.10275 0 -4.38172)
(3.9414 0 -1.82429)
(-1.34784 6.05354e-19 0.950994)
(-0.653238 0 0.322424)
(-0.756094 5.67481e-19 0.40664)
(0.118824 6.23617e-19 -0.192527)
(1.82885 0 -1.09818)
(1.34529 0 -0.779074)
(1.94573 0 -1.16749)
(2.06954 0 -1.12842)
(-0.127092 -3.80587e-21 0.342084)
(-4.87915 0 3.23797)
(-10.2146 -3.0896e-19 6.3018)
(-13.8916 0 8.2562)
(-15.2504 7.85563e-19 8.83643)
(-14.4976 -7.68618e-19 8.23103)
(-12.2268 -1.2146e-18 6.77987)
(-9.05259 -1.49784e-18 4.92863)
(-6.19068 0 3.31194)
(-3.79231 0 1.94656)
(-1.14368 -7.19646e-18 0.455312)
(0.707985 3.31594e-18 -0.44331)
(-0.349101 3.20077e-18 0.181092)
(1.0071 -2.93985e-18 -0.629216)
(33.9906 0 -1.88983)
(34.3958 3.27846e-20 -2.10726)
(34.1811 0 -2.89518)
(32.8004 0 -3.98891)
(30.2404 0 -4.96191)
(26.8749 0 -5.53102)
(23.1819 0 -5.63344)
(19.5508 3.00253e-20 -5.35824)
(16.2217 3.27043e-20 -4.84662)
(13.2999 7.0576e-20 -4.22485)
(10.7998 -7.45778e-20 -3.57996)
(8.68861 -7.77612e-20 -2.96207)
(6.91693 -7.9794e-20 -2.39538)
(5.43338 0 -1.88964)
(4.19336 0 -1.44391)
(3.15781 -1.63096e-19 -1.05823)
(2.2933 -1.62465e-19 -0.726257)
(1.57327 0 -0.443285)
(0.974947 7.96174e-20 -0.203838)
(0.480298 1.56471e-19 -0.00240159)
(0.073237 0 0.1648)
(-0.259178 1.49576e-19 0.302711)
(-0.52782 0 0.414857)
(-0.742537 -4.26593e-22 0.504505)
(-0.911282 -1.37649e-19 0.574762)
(-1.04107 1.17274e-22 0.628001)
(-1.13735 0 0.667391)
(-1.20531 1.26385e-19 0.69584)
(-1.2508 -2.43435e-19 0.712476)
(-1.27684 -4.69497e-19 0.718912)
(-1.28764 -2.26319e-19 0.716708)
(-1.28456 0 0.710596)
(-1.2708 -2.10542e-19 0.700027)
(-1.24879 0 0.685882)
(-1.22018 0 0.6688)
(-1.18643 0 0.649485)
(-1.14889 0 0.628566)
(-1.10864 0 0.60643)
(-1.06654 1.23571e-22 0.583435)
(-1.02323 -3.17736e-19 0.559794)
(-0.979075 0 0.535687)
(-0.934431 -5.83847e-19 0.511286)
(-0.889523 0 0.486677)
(-0.844504 0 0.461975)
(-0.799601 0 0.43735)
(-0.755109 4.90787e-19 0.413048)
(-0.711531 0 0.389456)
(-0.669609 0 0.367015)
(-0.630045 0 0.346111)
(-0.59362 0 0.327153)
(-0.560919 7.84059e-19 0.310313)
(-0.532033 0 0.295477)
(-0.506593 0 0.282202)
(-0.48337 3.41442e-19 0.269511)
(-0.460252 0 0.255915)
(-0.434044 0 0.23932)
(-0.400476 1.18644e-18 0.217116)
(-0.354418 -5.65664e-19 0.186395)
(-0.290708 0 0.144559)
(-0.205216 0 0.0900517)
(-0.0970805 0 0.0236449)
(0.0309278 -4.64297e-19 -0.052019)
(0.169135 0 -0.130398)
(0.30311 0 -0.202589)
(0.416606 -1.58292e-18 -0.260398)
(0.500327 1.49781e-18 -0.300829)
(0.553565 0 -0.325722)
(0.58876 0 -0.344213)
(0.624625 0 -0.367515)
(0.686474 5.96947e-19 -0.410827)
(0.799462 -5.63183e-19 -0.487239)
(0.982841 -1.06197e-18 -0.605758)
(1.24242 -9.99952e-19 -0.762594)
(1.53235 -9.41207e-19 -0.924036)
(1.77945 8.86816e-19 -1.03805)
(1.81294 0 -1.00712)
(1.51732 0 -0.796497)
(1.01322 7.67445e-19 -0.49788)
(0.487536 0 -0.215556)
(0.132345 0 -0.0539507)
(0.0961927 0 -0.0666358)
(0.147323 0 -0.112633)
(0.339103 0 -0.248161)
(0.718955 -2.3527e-18 -0.468965)
(0.98223 0 -0.597584)
(1.07577 -1.02415e-18 -0.614724)
(0.806933 0 -0.384106)
(-0.107802 7.52324e-22 0.201328)
(-1.13449 1.5755e-18 0.778784)
(-1.78682 0 1.04074)
(-1.13193 0 0.501377)
(0.326187 0 -0.541297)
(3.89239 0 -2.41889)
(3.25349 8.65087e-19 -2.51574)
(13.3824 0 -8.13095)
(11.0137 0 -5.93547)
(9.95709 0 -5.31032)
(5.22133 0 -2.30796)
(-1.21083 0 0.993232)
(-0.747671 0 0.361877)
(-0.845157 0 0.440223)
(0.193922 0 -0.30154)
(2.21008 -5.09533e-19 -1.34525)
(1.70566 0 -0.987172)
(2.31279 0 -1.39295)
(2.21341 0 -1.15714)
(-0.767031 6.16235e-19 0.873881)
(-6.61771 0 4.466)
(-12.6474 1.44837e-19 7.89393)
(-16.3023 0 9.7403)
(-17.3049 -6.83958e-21 10.0252)
(-16.1137 0 9.10256)
(-13.4633 1.11922e-18 7.37898)
(-9.9076 0 5.30009)
(-6.74675 0 3.52604)
(-4.0719 0 2.00751)
(-1.19655 3.35851e-18 0.392622)
(0.952624 -6.19062e-18 -0.598262)
(-0.335856 -5.97551e-18 0.168618)
(1.21052 -2.74492e-18 -0.771664)
(33.6637 0 -2.18269)
(33.9595 -3.51395e-20 -2.31539)
(34.1868 0 -2.7507)
(33.8531 0 -3.50844)
(32.6513 -2.71474e-20 -4.38687)
(30.5791 -2.66784e-20 -5.13291)
(27.8368 2.75393e-20 -5.57948)
(24.7028 -8.6735e-20 -5.67913)
(21.4501 0 -5.47432)
(18.2945 1.69604e-23 -5.0512)
(15.3749 3.50403e-20 -4.50065)
(12.7596 0 -3.89668)
(10.4663 0 -3.29023)
(8.48223 0 -2.71305)
(6.78106 0 -2.18049)
(5.33154 3.27167e-22 -1.70182)
(4.10161 2.93791e-22 -1.27794)
(3.06235 7.55442e-20 -0.907627)
(2.18752 7.46458e-20 -0.587546)
(1.45463 0 -0.313308)
(0.843728 -1.4393e-19 -0.0810137)
(0.337732 -1.4098e-19 0.114261)
(-0.0781864 0 0.27624)
(-0.416979 -1.7944e-22 0.408939)
(-0.689678 -2.44961e-23 0.515976)
(-0.905735 -1.26311e-19 0.600806)
(-1.07348 0 0.666387)
(-1.20041 0 0.715384)
(-1.29262 2.29367e-19 0.750858)
(-1.35635 2.75735e-22 0.774377)
(-1.39638 4.26323e-19 0.785619)
(-1.41708 0 0.786051)
(-1.42102 3.96514e-19 0.781785)
(-1.41174 0 0.772386)
(-1.39192 0 0.758431)
(-1.36361 -1.76058e-19 0.740982)
(-1.32879 0 0.72087)
(-1.28906 -3.2495e-19 0.698636)
(-1.2457 1.21849e-22 0.674785)
(-1.1997 2.9892e-19 0.649643)
(-1.15171 0 0.623492)
(-1.10231 6.73376e-23 0.596608)
(-1.05192 0 0.569149)
(-1.00086 0 0.541309)
(-0.94946 0 0.513341)
(-0.898157 0 0.485584)
(-0.84758 0 0.458535)
(-0.798642 4.2229e-19 0.432739)
(-0.752209 0 0.408667)
(-0.709233 0 0.386805)
(-0.670456 -3.68598e-19 0.367347)
(-0.636045 0 0.350138)
(-0.605628 -3.3612e-19 0.334635)
(-0.577836 -3.20863e-19 0.319654)
(-0.550255 6.12426e-19 0.303409)
(-0.519208 0 0.283412)
(-0.479766 -5.57348e-19 0.256591)
(-0.425997 -5.31316e-19 0.219579)
(-0.351909 0 0.169441)
(-0.252652 0 0.104534)
(-0.127054 0 0.0259427)
(0.0219372 4.35947e-19 -0.0630079)
(0.183606 0 -0.154623)
(0.341708 0 -0.238716)
(0.477495 7.42866e-19 -0.30605)
(0.579581 -1.40576e-18 -0.353427)
(0.646256 0 -0.383193)
(0.691025 0 -0.40612)
(0.735284 0 -0.435332)
(0.808395 0 -0.48863)
(0.939926 -5.28286e-19 -0.581048)
(1.15283 9.95709e-19 -0.722847)
(1.45608 0 -0.909039)
(1.80163 0 -1.10149)
(2.11224 -8.31125e-19 -1.24103)
(2.19677 0 -1.21682)
(1.90271 -7.48266e-19 -0.985473)
(1.34134 7.18247e-19 -0.645403)
(0.721028 0 -0.314976)
(0.277153 0 -0.121526)
(0.194517 0 -0.122964)
(0.220527 0 -0.162776)
(0.418297 0 -0.313786)
(0.83384 1.10116e-18 -0.556607)
(1.10704 0 -0.680134)
(1.17612 1.91736e-18 -0.663631)
(0.815338 0 -0.347361)
(-0.291056 7.39002e-22 0.371694)
(-1.48705 1.27482e-21 1.03489)
(-2.17917 0 1.26524)
(-1.37719 1.23738e-18 0.580427)
(0.123505 0 -0.571358)
(4.00202 0 -2.56216)
(3.68125 -1.62056e-18 -3.02314)
(14.1269 0 -8.77115)
(12.2798 0 -6.56491)
(11.6752 0 -6.14702)
(6.62696 0 -2.80252)
(-0.88497 0 0.970968)
(-0.806249 0 0.387214)
(-0.889109 0 0.442591)
(0.280078 0 -0.432202)
(2.57016 4.7603e-19 -1.5884)
(2.0778 0 -1.20116)
(2.63019 0 -1.58402)
(2.20328 0 -1.06584)
(-1.63216 -5.82497e-19 1.59102)
(-8.49005 -3.24607e-19 5.82432)
(-14.9152 -1.3592e-19 9.41216)
(-18.2404 1.12535e-19 10.9437)
(-18.7918 -6.9711e-21 10.8548)
(-17.2208 -6.46577e-19 9.62788)
(-14.2979 -2.08212e-18 7.70004)
(-10.4786 0 5.46766)
(-7.12861 2.96224e-18 3.6065)
(-4.25025 3.1143e-18 1.98442)
(-1.2013 0 0.28431)
(1.21142 2.88912e-18 -0.764936)
(-0.293604 2.7887e-18 0.138452)
(1.41599 2.56218e-18 -0.919672)
(33.4235 0 -2.34248)
(33.5796 1.74011e-20 -2.4835)
(33.8244 0 -2.75927)
(33.9014 0 -3.25169)
(33.5253 2.5562e-20 -3.91679)
(32.5256 2.51152e-20 -4.61771)
(30.8714 -2.59209e-20 -5.20446)
(28.6458 8.37904e-20 -5.57071)
(26.0043 0 -5.67439)
(23.1305 3.16449e-20 -5.53029)
(20.2 -6.56307e-20 -5.18835)
(17.3549 0 -4.71121)
(14.6938 6.96778e-20 -4.158)
(12.2722 0 -3.57718)
(10.1126 7.14226e-20 -3.00231)
(8.21494 7.18775e-20 -2.45695)
(6.56527 7.16486e-20 -1.95389)
(5.14335 -7.11125e-20 -1.49969)
(3.9262 -1.40328e-19 -1.09635)
(2.89112 0 -0.742813)
(2.01635 1.35487e-19 -0.436899)
(1.28183 0 -0.174897)
(0.669512 0 0.0468319)
(0.163094 -1.25435e-19 0.232304)
(-0.251719 2.44287e-19 0.385441)
(-0.587514 0 0.510084)
(-0.855501 0 0.609659)
(-1.06573 0 0.687575)
(-1.22702 -2.15105e-19 0.746388)
(-1.34648 2.07722e-19 0.789431)
(-1.43107 -7.9599e-23 0.820494)
(-1.48758 1.93441e-19 0.836519)
(-1.51997 -3.72807e-19 0.841117)
(-1.53298 1.79196e-19 0.838993)
(-1.52964 -1.72228e-19 0.831061)
(-1.51325 6.80197e-23 0.817868)
(-1.48651 0 0.800677)
(-1.45177 3.05619e-19 0.780174)
(-1.41085 2.93186e-19 0.757052)
(-1.36522 -2.81093e-19 0.731769)
(-1.31591 0 0.704744)
(-1.26384 2.58239e-19 0.676378)
(-1.2097 2.47334e-19 0.646931)
(-1.15401 2.36821e-19 0.616696)
(-1.0973 2.26656e-19 0.586031)
(-1.04015 0 0.555382)
(-0.983364 0 0.525378)
(-0.928031 -6.71813e-23 0.496678)
(-0.875202 0 0.46984)
(-0.826011 0 0.445432)
(-0.781379 -3.46161e-19 0.423662)
(-0.741573 3.3059e-19 0.404335)
(-0.706246 3.15677e-19 0.386792)
(-0.673922 3.78162e-23 0.369633)
(-0.641924 -7.0331e-23 0.350771)
(-0.606146 0 0.327318)
(-0.561055 0 0.295756)
(-0.499986 9.97384e-19 0.252297)
(-0.416179 0 0.193727)
(-0.304095 0 0.11839)
(-0.162208 -4.30388e-19 0.0277574)
(0.00648721 0 -0.0741147)
(0.190532 0 -0.178433)
(0.37221 7.36012e-19 -0.273839)
(0.530514 -6.9688e-19 -0.350209)
(0.651904 1.31843e-18 -0.404276)
(0.733347 0 -0.438949)
(0.788881 -5.88925e-19 -0.466605)
(0.84213 0 -0.50215)
(0.926015 0 -0.565808)
(1.07416 9.90241e-19 -0.67425)
(1.31302 0 -0.838758)
(1.65514 0 -1.05292)
(2.0528 0 -1.27514)
(2.42835 0 -1.44014)
(2.57754 0 -1.42641)
(2.30786 7.00698e-19 -1.18142)
(1.70917 -3.83421e-22 -0.806654)
(1.00129 -6.46791e-19 -0.43111)
(0.461663 6.22649e-19 -0.20477)
(0.317689 0 -0.188783)
(0.305536 0 -0.218856)
(0.498931 0 -0.382705)
(0.939101 0 -0.641501)
(1.21105 0 -0.750702)
(1.24054 5.17205e-22 -0.687802)
(0.775464 0 -0.270679)
(-0.521876 -7.56491e-19 0.584794)
(-1.86595 1.22978e-21 1.31509)
(-2.55643 0 1.47629)
(-1.61034 -1.15693e-18 0.643027)
(-0.127874 0 -0.591837)
(3.86921 8.88574e-19 -2.59488)
(4.28015 -2.62421e-21 -3.65991)
(14.2103 0 -9.06744)
(13.0956 0 -6.96503)
(13.1558 0 -6.84797)
(8.12356 0 -3.29036)
(-0.367805 4.85219e-19 0.892133)
(-0.815832 0 0.39562)
(-0.881708 0 0.41087)
(0.374978 5.06197e-19 -0.582966)
(2.9032 0 -1.82564)
(2.45528 -4.14955e-19 -1.4162)
(2.8846 4.01695e-19 -1.72864)
(2.02468 0 -0.843115)
(-2.70576 1.09098e-18 2.48426)
(-10.4238 -2.15222e-21 7.26335)
(-16.9111 2.53116e-19 10.7833)
(-19.6649 -1.05075e-19 11.8387)
(-19.7664 -3.04792e-19 11.3828)
(-17.9141 6.03667e-19 9.92211)
(-14.8312 9.68246e-19 7.84551)
(-10.8464 1.19694e-18 5.51386)
(-7.39388 -2.76532e-18 3.61441)
(-4.39246 -2.90717e-18 1.93114)
(-1.17541 -2.92125e-18 0.143017)
(1.47913 -2.69541e-18 -0.93762)
(-0.223386 0 0.0943761)
(1.62725 0 -1.0763)
(33.2113 0 -2.43434)
(33.2866 1.88237e-20 -2.589)
(33.45 0 -2.80668)
(33.6 0 -3.14304)
(33.5743 0 -3.61384)
(33.2145 0 -4.17507)
(32.4051 2.85535e-20 -4.7397)
(31.0953 -2.70663e-20 -5.21265)
(29.3022 2.91086e-20 -5.5213)
(27.1003 -5.91267e-20 -5.62956)
(24.6018 6.16956e-20 -5.53663)
(21.9359 0 -5.26798)
(19.2287 -6.55005e-20 -4.86353)
(16.5879 0 -4.36832)
(14.0942 -6.71455e-20 -3.82356)
(11.7997 -6.69905e-20 -3.26446)
(9.73053 0 -2.71703)
(7.89374 0 -2.19915)
(6.28351 6.58733e-20 -1.72187)
(4.88657 0 -1.29069)
(3.68558 0 -0.907817)
(2.66154 -1.24002e-19 -0.572516)
(1.79545 0 -0.282765)
(1.06889 0 -0.0354693)
(0.464791 -1.14858e-19 0.172986)
(-0.032565 0 0.346346)
(-0.437398 0 0.488306)
(-0.762625 0 0.602841)
(-1.01989 4.04139e-19 0.692969)
(-1.21894 0 0.762167)
(-1.36895 -7.06283e-23 0.813524)
(-1.4771 -1.17456e-22 0.851588)
(-1.55213 1.75133e-19 0.873349)
(-1.59854 -1.68412e-19 0.882936)
(-1.62208 3.23622e-19 0.883165)
(-1.62588 1.55559e-19 0.877243)
(-1.61423 0 0.865357)
(-1.59027 0 0.848712)
(-1.55658 2.75224e-19 0.828173)
(-1.51529 -2.63887e-19 0.804355)
(-1.46796 0 0.777838)
(-1.41594 0 0.749188)
(-1.36031 -6.36507e-23 0.718786)
(-1.30187 -2.22412e-19 0.687054)
(-1.24141 -2.12848e-19 0.654476)
(-1.17971 -4.07193e-19 0.621626)
(-1.11777 0 0.589283)
(-1.0569 -6.69767e-23 0.558229)
(-0.998346 0 0.529118)
(-0.943442 0 0.502605)
(-0.89331 3.249e-19 0.478907)
(-0.848346 -3.10256e-19 0.457778)
(-0.808258 0 0.438436)
(-0.771502 2.82691e-19 0.419257)
(-0.735189 -7.04977e-23 0.397843)
(-0.694838 0 0.37091)
(-0.644385 0 0.334514)
(-0.576513 -9.35382e-19 0.284482)
(-0.483769 0 0.217391)
(-0.359961 0 0.131652)
(-0.203178 8.07086e-19 0.0291933)
(-0.0163083 0 -0.0851469)
(0.188751 0 -0.201547)
(0.39319 -1.37986e-18 -0.307587)
(0.574019 6.53137e-19 -0.392401)
(0.715511 -6.17815e-19 -0.452795)
(0.813001 0 -0.492294)
(0.880462 5.51774e-19 -0.524852)
(0.943185 0 -0.567001)
(1.03703 -4.91861e-19 -0.641148)
(1.19919 -4.63775e-19 -0.765226)
(1.4594 0 -0.951305)
(1.834 0 -1.19133)
(2.2783 7.74087e-19 -1.44133)
(2.71759 7.2872e-19 -1.63102)
(2.94345 0 -1.63114)
(2.72237 0 -1.37992)
(2.11075 -1.25766e-18 -0.978438)
(1.32678 6.0526e-19 -0.561879)
(0.685991 -1.16486e-18 -0.302)
(0.46454 0 -0.26372)
(0.401393 0 -0.279327)
(0.579986 0 -0.453772)
(1.03387 0 -0.722668)
(1.29438 0 -0.808334)
(1.26932 5.23897e-22 -0.684539)
(0.687796 0 -0.152163)