/*--------------------------------*- C++ -*----------------------------------*\
| =========                 |                                                 |
| \\      /  F ield         | OpenFOAM: The Open Source CFD Toolbox           |
|  \\    /   O peration     | Version:  2412                                  |
|   \\  /    A nd           | Website:  www.openfoam.com                      |
|    \\/     M anipulation  |                                                 |
\*---------------------------------------------------------------------------*/
FoamFile
{
    version     2.0;
    format      ascii;
    arch        "LSB;label=32;scalar=64";
    class       surfaceScalarField;
    location    "1.66";
    object      phi;
}
// * * * * * * * * * * * * * * * * * * * * * * * * * * * * * * * * * * * * * //

dimensions      [0 3 -1 0 0 0 0];

oriented        oriented;

internalField   nonuniform List<scalar> 
24930
(
0.0179733
0.0127643
-0.0307468
0.0106046
0.00736867
0.00695167
0.00365296
0.00517451
0.00177716
0.0042019
0.000972611
0.00357866
0.000623231
0.00313252
0.000446143
0.00279287
0.00033965
0.00252359
0.000269283
0.00230359
0.000219993
0.00211973
0.000183866
0.00196326
0.000156474
0.00182812
0.000135137
0.00170998
0.000118148
0.00160561
0.000104372
0.00151259
9.30261e-05
0.00142904
8.35535e-05
0.00135349
7.55515e-05
0.00128478
6.87218e-05
0.00122194
6.28393e-05
0.00116422
5.77312e-05
0.00111096
5.32631e-05
0.00106164
4.93292e-05
0.0010158
4.58448e-05
0.000973059
4.2742e-05
0.000933098
3.99653e-05
0.000895632
3.74695e-05
0.000860419
3.52167e-05
0.000827246
3.31759e-05
0.000795928
3.13207e-05
0.000766301
2.96291e-05
0.000738221
2.80821e-05
0.000711559
2.66638e-05
0.000686201
2.53603e-05
0.000662042
2.416e-05
0.000638991
2.30521e-05
0.000616963
2.20282e-05
0.000595884
2.10798e-05
0.000575684
2.02009e-05
0.0005563
1.93845e-05
0.000537673
1.86266e-05
0.000519753
1.79208e-05
0.000502488
1.72653e-05
0.000485834
1.66534e-05
0.000469749
1.60856e-05
0.000454194
1.55544e-05
0.000439131
1.50631e-05
0.000424529
1.4602e-05
0.00041035
1.41782e-05
0.000396571
1.37789e-05
0.000383155
1.34156e-05
0.000370083
1.30712e-05
0.00035732
1.2763e-05
0.000344851
1.24677e-05
0.00033264
1.22105e-05
0.00032068
1.19596e-05
0.000308929
1.17504e-05
0.000297388
1.15398e-05
0.000286011
1.13765e-05
0.000274808
1.1202e-05
0.000263725
1.10828e-05
0.000252784
1.09404e-05
0.000241918
1.08647e-05
0.000231166
1.0751e-05
0.000220446
1.07194e-05
0.000209815
1.06299e-05
0.000199173
1.06417e-05
0.000188602
1.057e-05
0.000177977
1.06245e-05
0.000167412
1.05637e-05
0.00015675
1.0661e-05
0.000146149
1.06013e-05
0.00013541
1.07382e-05
0.000124745
1.0664e-05
0.00011391
1.08352e-05
0.000103181
1.07291e-05
9.22511e-05
1.093e-05
8.14806e-05
1.07708e-05
7.04881e-05
1.09929e-05
5.97373e-05
1.07514e-05
4.87558e-05
1.0982e-05
3.81292e-05
1.06272e-05
2.72719e-05
1.08579e-05
1.69047e-05
1.03679e-05
6.32618e-06
1.05793e-05
-3.64526e-06
9.97232e-06
-1.37885e-05
1.01443e-05
-2.31516e-05
9.36428e-06
-3.26413e-05
9.49123e-06
-4.13064e-05
8.66651e-06
-4.98382e-05
8.53327e-06
-5.75838e-05
7.74691e-06
-6.5668e-05
8.08419e-06
-7.05244e-05
4.85767e-06
-8.11888e-05
1.0664e-05
-7.99878e-05
-1.20184e-06
-9.55802e-05
1.55931e-05
-9.10699e-05
-4.51092e-06
-9.16997e-05
6.2952e-07
-0.000116546
2.48445e-05
-9.21326e-05
-2.44096e-05
-0.000128714
3.65803e-05
-8.02858e-05
-4.84304e-05
-0.000184875
0.000104594
-7.51662e-05
-0.000109707
-0.000141403
6.62468e-05
-0.000271381
0.000129994
6.39027e-05
-0.000335276
-0.000496332
0.000560197
-7.08956e-05
-0.000425406
-0.00018949
0.000118678
-0.000685685
0.00049616
0.000375645
-0.00106135
-0.00119847
0.00157413
-0.000861674
-0.000336783
0.000228657
-0.00109031
-0.000958363
0.001187
0.000148748
-0.00110712
0.000465604
-0.000316802
0.000654782
0.033689
0.0163363
-0.037261
0.0277472
0.0133104
0.0221904
0.00920981
0.0179132
0.00605432
0.0148651
0.00402069
0.0127034
0.00278498
0.0111155
0.00203407
0.00989782
0.00155731
0.00893015
0.00123696
0.00813946
0.00101068
0.00747897
0.00084436
0.00691736
0.000718093
0.00643282
0.000619677
0.00600968
0.000541295
0.00563633
0.000477731
0.00530399
0.000425381
0.00500586
0.000381685
0.00473664
0.000344787
0.00449206
0.000313308
0.00426871
0.000286207
0.00406376
0.000262687
0.00387491
0.000242124
0.00370022
0.00022403
0.00353806
0.000208013
0.00338705
0.000193757
0.00324602
0.000181008
0.00311394
0.000169554
0.00298994
0.000159221
0.00287326
0.000149866
0.00276322
0.000141366
0.00265923
0.00013362
0.00256078
0.000126539
0.0024674
0.00012005
0.00237867
0.000114089
0.00229423
0.000108602
0.00221375
0.000103539
0.00213692
9.8861e-05
0.00206347
9.45299e-05
0.00199315
9.05165e-05
0.00192575
8.67899e-05
0.00186105
8.33298e-05
0.00179886
8.01096e-05
0.00173901
7.71166e-05
0.00168134
7.43258e-05
0.00162569
7.17323e-05
0.00157193
6.93103e-05
0.00151993
6.70635e-05
0.00146957
6.49622e-05
0.00142073
6.30203e-05
0.0013733
6.12013e-05
0.00132719
5.95317e-05
0.00128229
5.79637e-05
0.00123852
5.65403e-05
0.00119578
5.51978e-05
0.00115399
5.40006e-05
0.00111309
5.28627e-05
0.00107296
5.18765e-05
0.00103357
5.09259e-05
0.00099481
5.01388e-05
0.000956651
4.93587e-05
0.000918972
4.87604e-05
0.000881776
4.81352e-05
0.000844918
4.77209e-05
0.000808429
4.72384e-05
0.00077214
4.7006e-05
0.000736119
4.66499e-05
0.000700165
4.6593e-05
0.000664393
4.63402e-05
0.000628564
4.64519e-05
0.000592848
4.62786e-05
0.000556955
4.65525e-05
0.000521132
4.64227e-05
0.000485031
4.6838e-05
0.000448999
4.66947e-05
0.000412612
4.72212e-05
0.000376341
4.69995e-05
0.000339664
4.7607e-05
0.000303208
4.72272e-05
0.000266336
4.78654e-05
0.000229873
4.72154e-05
0.000193039
4.78166e-05
0.000156888
4.67793e-05
0.000120455
4.72925e-05
8.50452e-05
4.5779e-05
4.9487e-05
4.6139e-05
1.53212e-05
4.41397e-05
-1.8752e-05
4.42192e-05
-5.11586e-05
4.17728e-05
-8.30745e-05
4.14092e-05
-0.000113321
3.89152e-05
-0.000141785
3.69998e-05
-0.000169742
3.57067e-05
-0.000195375
3.37194e-05
-0.000215783
2.52657e-05
-0.000247889
4.27726e-05
-0.000248819
-2.71834e-07
-0.000300731
6.75073e-05
-0.000279499
-2.5744e-05
-0.000301032
2.2166e-05
-0.000356386
8.01958e-05
-0.000304701
-7.60945e-05
-0.000393548
0.000125429
-0.000273977
-0.000168005
-0.000575354
0.00040598
-0.0002336
-0.000451472
-0.000506387
0.000339066
-0.000760076
0.000383643
0.000123283
-0.0012186
-0.00149272
0.00217621
-0.000205382
-0.00171279
-0.000745333
0.000658591
-0.00184556
0.00159637
0.001059
-0.00396593
-0.00373455
0.00636772
-0.00242953
-0.00164184
0.000458199
-0.00397802
-0.00282356
0.00446879
0.000680178
-0.00461089
0.00134709
-0.000983698
0.00273668
0.0414606
0.0160351
-0.0411594
0.0391664
0.0156045
0.0352323
0.0131439
0.0309421
0.0103445
0.0270243
0.00793853
0.0237331
0.00607619
0.0210571
0.00471007
0.0188872
0.0037272
0.0171086
0.00301552
0.0156287
0.0024906
0.0143784
0.00209465
0.0133074
0.00178912
0.0123787
0.00154837
0.0115649
0.00135515
0.010845
0.00119757
0.0102032
0.00106724
0.00962676
0.000958107
0.00910584
0.00086572
0.0086324
0.00078675
0.00819996
0.000718662
0.00780316
0.0006595
0.00743756
0.000607732
0.00709945
0.000562146
0.0067857
0.000521771
0.00649365
0.000485823
0.006221
0.000453664
0.00596579
0.000424766
0.00572633
0.000398696
0.00550111
0.000375088
0.00528884
0.000353639
0.00508838
0.00033409
0.0048987
0.000316222
0.0047189
0.000299848
0.00454819
0.000284807
0.00438583
0.000270962
0.00423118
0.000258189
0.00408366
0.000246387
0.00394273
0.000235461
0.00380791
0.000225335
0.00367877
0.000215935
0.00355489
0.000207206
0.00343592
0.000199083
0.0033215
0.00019153
0.00321134
0.00018449
0.00310513
0.000177943
0.00300261
0.000171833
0.00290351
0.000166156
0.00280762
0.000160854
0.0027147
0.000155943
0.00262455
0.000151352
0.00253696
0.00014712
0.00245176
0.000143162
0.00236875
0.000139544
0.00228779
0.000136155
0.00220869
0.000133098
0.00213133
0.000130226
0.00205551
0.00012769
0.00198115
0.000125292
0.00190804
0.000123245
0.00183611
0.000121282
0.00176518
0.000119696
0.00169518
0.000118132
0.00162591
0.000116991
0.00155734
0.000115799
0.00148925
0.000115093
0.00142167
0.000114237
0.00135431
0.000113947
0.00128727
0.000113377
0.00122024
0.000113481
0.00115337
0.000113146
0.0010863
0.000113622
0.00101928
0.000113444
0.000951881
0.000114234
0.000884489
0.000114085
0.0008166
0.00011511
0.000748752
0.000114848
0.000680337
0.000116022
0.0006121
0.000115465
0.000543312
0.000116654
0.000474982
0.000115547
0.000406223
0.000116577
0.000338353
0.000114651
0.000270258
0.000115388
0.000203615
0.000112424
0.000137014
0.000112742
7.25422e-05
0.000108613
8.64097e-06
0.000108122
-5.27875e-05
0.000103203
-0.000112783
0.000101407
-0.00017039
9.65258e-05
-0.000223938
9.05497e-05
-0.000277869
8.96409e-05
-0.000325219
8.10716e-05
-0.000366985
6.70328e-05
-0.000424056
9.98459e-05
-0.000431392
7.06294e-06
-0.000525711
0.000161828
-0.000485741
-6.57162e-05
-0.000539768
7.61959e-05
-0.000621676
0.000162101
-0.000547949
-0.000149821
-0.000688905
0.000266387
-0.000504092
-0.000352822
-0.00100502
0.000906916
-0.000423776
-0.00103272
-0.000949438
0.000864766
-0.0012646
0.00069878
0.00013831
-0.00262148
-0.00256582
0.00488033
-0.000367334
-0.00391132
-0.00147913
0.00177042
-0.00294941
0.00306662
0.00177865
-0.00869401
-0.00653556
0.014682
-0.00398437
-0.00419309
0.000495456
-0.00845782
-0.00476068
0.00972495
0.00153523
-0.0109068
0.00222296
-0.00167141
0.00643526
0.0459234
0.0147372
-0.0446255
0.0460036
0.0155243
0.0444213
0.0147262
0.0416939
0.0130719
0.0384466
0.0111858
0.0351386
0.00938423
0.0320374
0.00781123
0.0292576
0.00650707
0.0268178
0.00545528
0.024692
0.00461639
0.022839
0.00394767
0.0212168
0.00341134
0.0197881
0.00297704
0.0185218
0.00262152
0.0173921
0.00232726
0.0163782
0.00208112
0.0154631
0.00187319
0.0146329
0.00169593
0.0138761
0.00154357
0.0131832
0.0014116
0.0125462
0.0012965
0.0119585
0.00119548
0.0114143
0.00110629
0.010909
0.00102714
0.0104383
0.000956533
0.00999867
0.000893276
0.00958709
0.000836363
0.00920082
0.000784964
0.00883754
0.000738379
0.00849516
0.00069602
0.00817187
0.000657389
0.00786603
0.000622061
0.00757621
0.000589671
0.00730112
0.000559905
0.00703959
0.000532494
0.00679058
0.0005072
0.00655315
0.00048382
0.00632644
0.000462171
0.00610967
0.000442103
0.00590214
0.000423469
0.00570319
0.000406158
0.00551222
0.000390049
0.00532869
0.000375063
0.00515209
0.000361096
0.00498193
0.000348097
0.00481779
0.000335969
0.00465926
0.00032469
0.00450596
0.000314159
0.00435751
0.000304388
0.0042136
0.000295264
0.00407388
0.000286833
0.00393808
0.00027896
0.00380589
0.000271735
0.00367706
0.000264987
0.00355129
0.000258863
0.00342838
0.000253139
0.00330803
0.000248033
0.00319007
0.00024325
0.00307422
0.000239095
0.00296032
0.000235177
0.0028481
0.000231917
0.00273743
0.000228798
0.00262802
0.000226399
0.00251979
0.000224027
0.00241242
0.000222465
0.00230588
0.000220776
0.00219981
0.000220007
0.00209427
0.000218914
0.00198886
0.000218894
0.0018837
0.000218306
0.00177833
0.000218986
0.00167301
0.000218761
0.00156722
0.000220024
0.00146137
0.000219937
0.00135485
0.000221625
0.00124828
0.000221417
0.00114095
0.000223356
0.00103372
0.000222693
0.000925763
0.000224612
0.000818284
0.000223027
0.000710279
0.000224583
0.000603351
0.000221579
0.000496238
0.000222503
0.000391007
0.000217657
0.000286038
0.000217713
0.000183957
0.000210696
8.28032e-05
0.000209279
-1.45877e-05
0.000200597
-0.000109629
0.000196451
-0.00020145
0.00018835
-0.000286686
0.000175788
-0.000373077
0.000176036
-0.000448068
0.000156064
-0.000517286
0.000136253
-0.000604713
0.000187276
-0.00062337
2.57197e-05
-0.000766059
0.000304519
-0.000708653
-0.000123125
-0.000804674
0.00017222
-0.000912875
0.000270299
-0.000819532
-0.000243163
-0.00101746
0.000464313
-0.000769787
-0.000600494
-0.00147389
0.00161103
-0.000652015
-0.00185461
-0.00146746
0.00168025
-0.00179189
0.00102317
9.92645e-05
-0.00451259
-0.00371108
0.00869068
-0.000568184
-0.00705426
-0.00240093
0.0036032
-0.00400116
0.00466681
0.00254087
-0.0152361
-0.00955004
0.026773
-0.00552732
-0.00821587
0.000260386
-0.0142455
-0.0067178
0.0167032
0.00277822
-0.0204029
0.00308055
-0.0019737
0.0119222
0.0493896
0.0135441
-0.0481964
0.0503514
0.0145624
0.0503673
0.0147103
0.0493424
0.0140968
0.0474946
0.0130336
0.0451166
0.0117622
0.0424804
0.0104474
0.0397926
0.00919491
0.037188
0.00805986
0.0347412
0.00706322
0.0324843
0.00620456
0.0304232
0.00547239
0.0285496
0.00485071
0.0268483
0.00432282
0.0253022
0.00387333
0.0238945
0.00348892
0.0226092
0.00315841
0.0214325
0.00287266
0.0203519
0.0026242
0.0193566
0.00240696
0.0184371
0.002216
0.0175852
0.0020473
0.016794
0.00189754
0.0160571
0.001764
0.0153693
0.00164442
0.0147256
0.00153691
0.0141221
0.0014399
0.013555
0.00135207
0.0130211
0.00127228
0.0125176
0.0011996
0.0120417
0.0011332
0.0115914
0.00107239
0.0111645
0.00101656
0.0107592
0.000965199
0.0103739
0.000917851
0.010007
0.000874119
0.00965713
0.000833664
0.00932313
0.000796176
0.00900383
0.0007614
0.00869821
0.000729091
0.00840532
0.000699056
0.00812427
0.000671093
0.00785427
0.000645063
0.00759457
0.000620794
0.00734448
0.000598189
0.00710336
0.000577094
0.00687059
0.000557457
0.00664562
0.000539123
0.00642792
0.000522088
0.006217
0.000506184
0.00601237
0.000491461
0.00581361
0.000477721
0.00562027
0.000465076
0.00543197
0.000453284
0.0052483
0.000442534
0.00506892
0.000432515
0.00489344
0.000423515
0.00472156
0.000415126
0.00455289
0.000407759
0.00438719
0.000400872
0.00422407
0.000395038
0.00406332
0.000389544
0.00390454
0.00038518
0.00374757
0.000380996
0.00359198
0.000378054
0.00343768
0.000375073
0.00328421
0.000373478
0.00313155
0.000371563
0.00297921
0.000371238
0.00282726
0.000370247
0.00267515
0.000371102
0.0025231
0.000370806
0.00237048
0.00037264
0.00221774
0.00037268
0.00206413
0.000375229
0.00191036
0.000375187
0.00175557
0.000378145
0.00160079
0.000377477
0.00144503
0.000380378
0.00128973
0.000378319
0.00113374
0.000380578
0.000979004
0.000376318
0.000824048
0.00037746
0.000671431
0.000370276
0.000519251
0.000369894
0.000370802
0.000359147
0.000223716
0.000356368
8.17219e-05
0.000342594
-5.6851e-05
0.000335026
-0.00019126
0.000322762
-0.00031629
0.000300821
-0.000443043
0.000302792
-0.00055305
0.000266074
-0.000657161
0.000240365
-0.000781601
0.000311718
-0.000817786
6.19045e-05
-0.00101569
0.000502425
-0.000943909
-0.000194909
-0.0010922
0.000320511
-0.00122691
0.000405008
-0.00111771
-0.000352358
-0.00137853
0.000725127
-0.00107039
-0.000908632
-0.00198055
0.0025212
-0.000921428
-0.00291374
-0.00205876
0.00281763
-0.00234491
0.00130928
-1.07289e-05
-0.00684695
-0.00491537
0.0135955
-0.000814857
-0.0111548
-0.00352023
0.00630862
-0.00500742
0.00615396
0.00334239
-0.0235859
-0.0126911
0.0428065
-0.00705867
-0.0138484
-0.000273534
-0.0210306
-0.00864197
0.0250716
0.00444616
-0.033491
0.0039087
-0.00143622
0.0193338
0.0528477
0.0126468
-0.0519505
0.0538749
0.0135353
0.0545571
0.0140281
0.0546241
0.0140298
0.0540231
0.0136345
0.0528236
0.0129617
0.0511548
0.0121162
0.0491634
0.0111863
0.0469841
0.0102392
0.0447276
0.00931977
0.0424761
0.00845603
0.0402858
0.00766268
0.0381913
0.00694522
0.0362111
0.00630307
0.0343524
0.00573198
0.0326156
0.00522578
0.0309964
0.00477761
0.0294884
0.00438066
0.0280841
0.00402854
0.0267755
0.00371551
0.025555
0.00343649
0.0244153
0.00318706
0.0233494
0.00296342
0.0223512
0.00276228
0.0214148
0.00258084
0.020535
0.00241668
0.0197072
0.00226774
0.018927
0.00213223
0.0181907
0.00200863
0.0174947
0.00189561
0.0168358
0.00179203
0.0162113
0.00169689
0.0156186
0.00160933
0.0150552
0.00152859
0.014519
0.001454
0.0140082
0.00138499
0.0135208
0.00132104
0.0130553
0.00126169
0.0126101
0.00120656
0.0121839
0.00115528
0.0117754
0.00110755
0.0113834
0.00106307
0.0110069
0.00102162
0.0106447
0.000982946
0.010296
0.000946883
0.00995992
0.000913204
0.00963556
0.000881818
0.00932218
0.0008525
0.00901905
0.000825223
0.00872548
0.00079975
0.00844082
0.000776126
0.00816445
0.000754081
0.00789578
0.000733745
0.00763428
0.00071479
0.00737936
0.00069745
0.00713056
0.00068131
0.00688734
0.000666738
0.00664927
0.000653192
0.00641583
0.000641198
0.00618665
0.000630045
0.00596122
0.000620472
0.00573921
0.000611548
0.0055201
0.000604294
0.00530362
0.000597469
0.00508922
0.000592455
0.00487672
0.000587568
0.00466552
0.000584674
0.00445556
0.000581526
0.00424616
0.000580633
0.00403739
0.000579015
0.00382851
0.000579976
0.00361977
0.000579546
0.00341036
0.000582055
0.00320075
0.000582284
0.00299005
0.00058593
0.00277904
0.000586192
0.00256669
0.000590497
0.0023542
0.000589966
0.00214039
0.000594195
0.00192699
0.000591717
0.00171261
0.000594959
0.00149963
0.000589298
0.00128631
0.000590789
0.00107577
0.00058081
0.000865787
0.000579883
0.000660437
0.000564499
0.000456886
0.00055992
0.000259875
0.000539608
6.73782e-05
0.000527526
-0.000119664
0.000509808
-0.000294329
0.000475489
-0.000471097
0.000479564
-0.000625212
0.000420191
-0.000773336
0.000388491
-0.000942908
0.000481293
-0.00100462
0.000123618
-0.00126553
0.000763331
-0.00118445
-0.000275985
-0.00139628
0.000532339
-0.00155823
0.000566959
-0.00143917
-0.000471421
-0.00176927
0.00105523
-0.00140359
-0.00127431
-0.00252238
0.00364
-0.00123313
-0.004203
-0.00271923
0.00430378
-0.00292641
0.00151641
-0.000134093
-0.00963922
-0.00616222
0.0196236
-0.00111175
-0.0162053
-0.00483888
0.0100358
-0.00598417
0.0072992
0.00416986
-0.0337399
-0.0158476
0.0628241
-0.00857626
-0.0211198
-0.00114734
-0.0284594
-0.0105055
0.0344298
0.00653426
-0.0505308
0.0047028
0.000395327
0.0287599
0.0565677
0.0119604
-0.0558813
0.0574203
0.0126827
0.0582158
0.0132326
0.0587412
0.0135044
0.0588743
0.0135014
0.0585692
0.0132668
0.0578353
0.0128501
0.0567205
0.0123012
0.0552932
0.0116664
0.0536291
0.0109839
0.0518015
0.0102836
0.0498759
0.00958828
0.047907
0.00891418
0.0459377
0.00827232
0.0440002
0.00766947
0.042117
0.00710903
0.0403027
0.00659195
0.0385659
0.00611743
0.0369109
0.00568354
0.0353387
0.00528768
0.0338483
0.00492692
0.0324371
0.00459825
0.0311019
0.0042987
0.0298387
0.00402548
0.0286436
0.00377598
0.0275124
0.00354784
0.0264412
0.00333892
0.0254262
0.00314731
0.0244635
0.00297128
0.0235498
0.0028093
0.0226819
0.00266002
0.0218565
0.00252222
0.021071
0.00239484
0.0203227
0.00227691
0.0196091
0.0021676
0.018928
0.00206612
0.0182772
0.00197183
0.0176548
0.00188409
0.017059
0.0018024
0.016488
0.00172624
0.0159403
0.00165522
0.0154145
0.00158892
0.0149091
0.00152703
0.0144229
0.00146918
0.0139546
0.00141517
0.0135031
0.00136466
0.0130674
0.00131752
0.0126465
0.00127344
0.0122393
0.00123236
0.0118451
0.00119397
0.0114629
0.00115831
0.011092
0.001125
0.0107315
0.00109421
0.0103808
0.00106551
0.0100391
0.00103917
0.00970573
0.00101467
0.00938002
0.000992446
0.00906139
0.000971817
0.00874915
0.000953438
0.0084428
0.000936396
0.00814164
0.000921626
0.00784525
0.000907936
0.00755292
0.000896623
0.00726429
0.000886097
0.00697862
0.000878121
0.00669565
0.000870533
0.0064146
0.00086572
0.00613533
0.000860795
0.00585699
0.000858972
0.00557958
0.000856417
0.00530219
0.000857371
0.00502503
0.000856704
0.00474708
0.000859994
0.00446889
0.000860475
0.00418931
0.000865511
0.00390925
0.000866252
0.00362742
0.000872325
0.00334525
0.000872135
0.00306128
0.000878166
0.00277761
0.000875394
0.00249252
0.000880047
0.00220892
0.000872906
0.00192468
0.000875022
0.00164368
0.000861815
0.00136321
0.000860356
0.00108833
0.00083938
0.000815628
0.000832626
0.000551062
0.000804178
0.000291901
0.00078669
4.00834e-05
0.00076163
-0.000196004
0.00071158
-0.000434694
0.000718258
-0.000644051
0.000629551
-0.000847409
0.00059185
-0.00107207
0.000705959
-0.00116937
0.000220916
-0.00150245
0.00109642
-0.00141954
-0.000358906
-0.00170738
0.000820186
-0.00189821
0.000757782
-0.00177815
-0.000591479
-0.00218408
0.00146116
-0.0017648
-0.0016936
-0.00309471
0.00496992
-0.00158536
-0.00571236
-0.00344148
0.00615996
-0.00353899
0.00161386
-0.000330746
-0.0128474
-0.00743607
0.026729
-0.00145957
-0.0221819
-0.00634476
0.014921
-0.00695768
0.00791206
0.00499759
-0.0456952
-0.0189031
0.0867248
-0.010073
-0.02995
-0.0025036
-0.0360288
-0.0123259
0.0442521
0.00897248
-0.0718293
0.00546937
0.00389844
0.0402331
0.0605728
0.0113978
-0.0600101
0.0612565
0.0119989
0.0619703
0.0125188
0.0625913
0.0128834
0.0630221
0.0130707
0.0631986
0.0130903
0.0630852
0.0129635
0.0626713
0.012715
0.0619672
0.0123705
0.0609976
0.0119535
0.059797
0.0114843
0.0584049
0.0109803
0.0568628
0.0104563
0.0552108
0.00992439
0.0534857
0.00939455
0.05172
0.00887467
0.0499412
0.00837081
0.0481712
0.00788739
0.0464274
0.00742736
0.0447226
0.00699251
0.043066
0.0065836
0.0414636
0.00620063
0.0399193
0.00584304
0.0384349
0.00550987
0.037011
0.0051999
0.035647
0.00491177
0.0343419
0.00464409
0.0330938
0.00439542
0.0319007
0.00416438
0.0307603
0.00394966
0.0296704
0.00375
0.0286283
0.00356423
0.0276319
0.00339129
0.0266787
0.00323016
0.0257663
0.00307994
0.0248927
0.00293979
0.0240555
0.00280894
0.0232529
0.00268669
0.0224829
0.00257242
0.0217436
0.00246553
0.0210333
0.00236553
0.0203504
0.0022719
0.0196931
0.00218427
0.0190601
0.00210217
0.01845
0.00202532
0.0178613
0.00195332
0.0172929
0.00188597
0.0167434
0.00182289
0.0162118
0.00176398
0.0156969
0.00170885
0.0151977
0.00165752
0.0147132
0.00160953
0.0142423
0.00156507
0.0137843
0.00152357
0.013338
0.0014854
0.0129028
0.00144986
0.0124777
0.00141753
0.0120621
0.0013875
0.0116549
0.00136062
0.0112555
0.00133573
0.0108632
0.00131399
0.0104772
0.0012939
0.0100967
0.00127709
0.00972128
0.00126156
0.00934988
0.00124951
0.00898218
0.00123823
0.00861718
0.00123072
0.00825465
0.00122332
0.00789352
0.00122011
0.00753372
0.00121621
0.00717409
0.001217
0.00681484
0.00121595
0.00645469
0.00122015
0.00609421
0.00122095
0.00573197
0.00122774
0.00536903
0.00122919
0.00500377
0.00123759
0.00463787
0.00123803
0.00426952
0.00124652
0.00390123
0.00124369
0.00353089
0.00125039
0.00316201
0.00124179
0.00279201
0.00124502
0.00242562
0.00122822
0.00205954
0.00122643
0.00170004
0.00119889
0.00134296
0.00118971
0.000995754
0.00115138
0.0006549
0.00112755
0.00032386
0.00109267
1.24276e-05
0.00102302
-0.000303889
0.00103458
-0.000581939
0.000907605
-0.000854416
0.000864328
-0.00114634
0.000997885
-0.00129191
0.000366483
-0.00170807
0.00151258
-0.00163352
-0.000433459
-0.0020113
0.00119798
-0.00223411
0.000980583
-0.00212544
-0.000700142
-0.0026136
0.00194932
-0.00214636
-0.00216085
-0.00369027
0.00651384
-0.00197266
-0.00742998
-0.00421412
0.00840147
-0.00418356
0.00158325
-0.000600326
-0.0164306
-0.00872425
0.0348529
-0.00185653
-0.0290497
-0.00800964
0.0210742
-0.00795867
0.00786103
0.00578756
-0.0594415
-0.0217514
0.114264
-0.0115244
-0.0401771
-0.00434514
-0.043208
-0.0141617
0.0540687
0.0116151
-0.0976061
0.00622598
0.0092876
0.0537134
0.0648567
0.0109136
-0.0643726
0.0654215
0.0114341
0.0660285
0.0119118
0.0666125
0.0122994
0.0671108
0.0125723
0.0674751
0.0127261
0.0676697
0.0127689
0.0676708
0.0127139
0.0674651
0.0125762
0.0670485
0.0123701
0.0664246
0.0121082
0.0656039
0.011801
0.0646022
0.011458
0.0634395
0.0110871
0.0621385
0.0106956
0.0607232
0.0102899
0.0592181
0.00987594
0.0576466
0.0094589
0.0560305
0.00904351
0.0543892
0.00863382
0.0527396
0.0082332
0.0510959
0.00784435
0.0494696
0.00746932
0.04787
0.00710952
0.046304
0.00676588
0.0447769
0.00643886
0.0432924
0.00612859
0.041853
0.0058349
0.0404599
0.00555742
0.039114
0.00529564
0.037815
0.00504893
0.0365626
0.00481662
0.0353559
0.00459799
0.0341938
0.00439232
0.0330748
0.0041989
0.0319976
0.004017
0.0309606
0.00384597
0.0299622
0.00368514
0.0290006
0.00353393
0.0280745
0.00339173
0.0271819
0.00325804
0.0263215
0.00313232
0.0254916
0.00301416
0.0246907
0.00290306
0.0239174
0.0027987
0.0231701
0.00270061
0.0224475
0.00260858
0.0217482
0.00252215
0.021071
0.00244122
0.0204145
0.00236529
0.0197776
0.00229442
0.0191591
0.00222804
0.0185578
0.00216637
0.0179726
0.00210872
0.0174025
0.00205554
0.0168464
0.00200597
0.0163032
0.0019607
0.0157721
0.00191865
0.0152519
0.00188082
0.0147418
0.0018458
0.0142408
0.00181502
0.013748
0.00178663
0.0132625
0.00176263
0.0127835
0.00174054
0.0123099
0.00172312
0.0118412
0.00170695
0.0113761
0.0016958
0.0109143
0.0016851
0.0104545
0.00167994
0.00999645
0.00167421
0.0095388
0.00167465
0.00908169
0.00167305
0.00862352
0.00167832
0.00816492
0.00167955
0.00770408
0.00168858
0.00724222
0.00169105
0.0067773
0.00170251
0.00631132
0.00170402
0.00584198
0.00171585
0.00537232
0.00171335
0.00489967
0.00172303
0.0044283
0.00171316
0.00395501
0.00171832
0.00348555
0.00169767
0.00301594
0.00169605
0.00255383
0.001661
0.00209416
0.00164939
0.00164622
0.00159932
0.00120546
0.00156831
0.000777148
0.00152099
0.000369665
0.0014305
-4.0126e-05
0.00144437
-0.000401826
0.00126931
-0.000760873
0.00122338
-0.00113483
0.00137185
-0.00134456
0.000576209
-0.001857
0.00202503
-0.0018042
-0.00048627
-0.0022877
0.00168149
-0.00254778
0.00124065
-0.00246703
-0.000780885
-0.00304356
0.00252585
-0.0025366
-0.00266781
-0.00429808
0.00827533
-0.00238481
-0.00934326
-0.00502123
0.011038
-0.00485759
0.00141956
-0.000942111
-0.020346
-0.0100185
0.0439292
-0.00229822
-0.03677
-0.00978829
0.0285644
-0.009014
0.00708668
0.00649475
-0.0749502
-0.0243132
0.145072
-0.0128793
-0.0516111
-0.00658538
-0.0495018
-0.0160776
0.0635609
0.0142602
-0.127944
0.00700348
0.0165443
0.069068
0.0694284
0.0104864
-0.0690012
0.0699115
0.010951
0.0704314
0.0113919
0.0709525
0.0117783
0.0714352
0.0120896
0.0718457
0.0123156
0.0721579
0.0124566
0.0723525
0.0125193
0.0724153
0.0125133
0.0723364
0.0124491
0.0721086
0.012336
0.0717283
0.0121814
0.0711947
0.0119915
0.0705103
0.0117716
0.0696804
0.0115255
0.0687135
0.0112568
0.0676208
0.0109686
0.0664157
0.010664
0.0651132
0.010346
0.0637292
0.0100179
0.0622796
0.00968281
0.0607801
0.00934384
0.0592455
0.00900394
0.0576892
0.0086658
0.0561233
0.00833178
0.0545583
0.00800393
0.0530029
0.00768393
0.0514647
0.00737312
0.0499496
0.0070725
0.0484625
0.0067828
0.0470069
0.00650449
0.0455857
0.00623782
0.0442008
0.0059829
0.0428535
0.00573965
0.0415445
0.00550792
0.040274
0.00528746
0.039042
0.00507796
0.0378481
0.00487907
0.0366916
0.00469043
0.0355717
0.00451162
0.0344875
0.0043423
0.0334378
0.00418202
0.0324215
0.00403046
0.0314374
0.00388715
0.0304842
0.00375186
0.0295607
0.0036241
0.0286656
0.00350371
0.0277976
0.00339019
0.0269553
0.00328349
0.0261375
0.00318304
0.025343
0.00308896
0.0245704
0.00300059
0.0238186
0.00291821
0.0230863
0.00284103
0.0223722
0.00276958
0.0216754
0.00270286
0.0209943
0.00264171
0.0203282
0.00258482
0.0196756
0.00253343
0.0190355
0.00248581
0.0184068
0.00244374
0.0177885
0.00240493
0.0171793
0.00237188
0.0165783
0.00234151
0.0159842
0.00231724
0.0153963
0.00229486
0.014813
0.00227903
0.014234
0.00226409
0.0136576
0.00225638
0.0130835
0.00224828
0.01251
0.0022482
0.0119371
0.00224588
0.011363
0.00225248
0.0107882
0.00225433
0.0102105
0.00226626
0.00963136
0.00227021
0.00904815
0.00228572
0.00846324
0.00228892
0.00787375
0.00230534
0.00728328
0.00230383
0.0066885
0.00231781
0.00609455
0.00230711
0.00549744
0.00231544
0.00490419
0.00229093
0.00430985
0.00229039
0.00372382
0.00224703
0.00313989
0.00223332
0.00256961
0.00216961
0.00200706
0.00213086
0.00145993
0.00206814
0.000935754
0.00195468
0.000413838
0.00196629
-5.29059e-05
0.00173606
-0.000522462
0.00169294
-0.000996061
0.00184545
-0.00128989
0.000870042
-0.0019148
0.00264994
-0.00190071
-0.000500371
-0.00250821
0.002289
-0.00281377
0.00154621
-0.00278229
-0.000812367
-0.00345305
0.00319661
-0.00291849
-0.00320237
-0.00490193
0.0102588
-0.00280547
-0.0114397
-0.00584179
0.0140744
-0.00555275
0.00113048
-0.00134951
-0.0245492
-0.0113142
0.0538939
-0.00277762
-0.0453067
-0.0116218
0.0374086
-0.010137
0.00560184
0.00707821
-0.0921655
-0.0265398
0.17869
-0.0140484
-0.0641026
-0.00902082
-0.0545292
-0.0180739
0.072614
0.0167116
-0.16273
0.00784744
0.0254086
0.0860461
0.0743074
0.0101037
-0.0739246
0.0747313
0.0105271
0.0751854
0.0109378
0.0756489
0.0113147
0.0760961
0.0116424
0.0765023
0.0119094
0.0768478
0.0121111
0.077118
0.0122492
0.0773024
0.0123289
0.0773937
0.0123578
0.0773861
0.0123436
0.0772744
0.012293
0.0770544
0.0122116
0.076722
0.012104
0.0762741
0.0119734
0.0757089
0.0118221
0.075026
0.0116515
0.0742272
0.0114628
0.0733165
0.0112568
0.0722997
0.0110347
0.0711849
0.0107976
0.0699815
0.0105472
0.0687003
0.0102852
0.0673526
0.0100135
0.0659501
0.00973435
0.0645041
0.00944989
0.0630258
0.00916226
0.0615254
0.00887352
0.0600123
0.00858557
0.058495
0.00830011
0.0569809
0.00801864
0.0554763
0.00774243
0.0539866
0.00747255
0.0525164
0.00720985
0.0510693
0.00695499
0.0496483
0.00670847
0.0482557
0.00647064
0.046893
0.00624171
0.0455616
0.00602184
0.0442622
0.00581103
0.0429952
0.0056093
0.0417607
0.00541649
0.0405586
0.00523257
0.0393885
0.00505727
0.0382498
0.00489054
0.0371419
0.00473202
0.0360639
0.00458172
0.0350149
0.00443917
0.0339939
0.00430446
0.0329999
0.00417703
0.0320318
0.00405712
0.0310884
0.003944
0.0301684
0.00383813
0.0292709
0.00373857
0.0283944
0.00364605
0.0275379
0.00355938
0.0266999
0.00347966
0.0258795
0.00340529
0.025075
0.00333786
0.0242856
0.00327524
0.0235097
0.00321967
0.0227463
0.00316835
0.0219938
0.00312438
0.0212513
0.00308398
0.0205171
0.0030514
0.0197905
0.00302144
0.0190697
0.00299991
0.018354
0.0029798
0.0176414
0.00296898
0.0169316
0.002958
0.0162225
0.00295735
0.0155141
0.00295425
0.014804
0.00296263
0.0140928
0.00296544
0.0133779
0.0029812
0.0126608
0.00298734
0.0119382
0.00300828
0.011213
0.00301412
0.0104815
0.00303684
0.00974803
0.00303731
0.00900834
0.00305751
0.00826864
0.00304682
0.0075239
0.00306017
0.00678269
0.00303214
0.00603883
0.00303425
0.00530384
0.00298202
0.00457004
0.00296713
0.00385172
0.00288793
0.00314125
0.00284134
0.00244945
0.00275994
0.00178245
0.00262168
0.00112219
0.00262657
0.000518985
0.00233926
-8.26702e-05
0.00229459
-0.000674516
0.0024373
-0.00107771
0.00127324
-0.00183517
0.0034074
-0.00188064
-0.000454903
-0.00263399
0.00304236
-0.00299684
0.00190905
-0.00304161
-0.000767601
-0.00381243
0.00396744
-0.00326776
-0.00374705
-0.00547833
0.0124694
-0.00321054
-0.0137075
-0.00664839
0.0175123
-0.00625187
0.00073389
-0.00180686
-0.0289941
-0.012607
0.064694
-0.0032833
-0.0546304
-0.0134429