/*--------------------------------*- C++ -*----------------------------------*\
| =========                 |                                                 |
| \\      /  F ield         | OpenFOAM: The Open Source CFD Toolbox           |
|  \\    /   O peration     | Version:  2412                                  |
|   \\  /    A nd           | Website:  www.openfoam.com                      |
|    \\/     M anipulation  |                                                 |
\*---------------------------------------------------------------------------*/
FoamFile
{
    version     2.0;
    format      ascii;
    arch        "LSB;label=32;scalar=64";
    class       surfaceScalarField;
    location    "0.125";
    object      phi_0;
}
// * * * * * * * * * * * * * * * * * * * * * * * * * * * * * * * * * * * * * //

dimensions      [0 3 -1 0 0 0 0];

oriented        oriented;

internalField   nonuniform List<scalar> 
24930
(
0.00372058
0.00243402
-0.00615432
0.00257427
0.00114632
0.00207904
0.000495209
0.0018359
0.000243128
0.00169174
0.000144145
0.00159376
9.79794e-05
0.00152108
7.26787e-05
0.00146408
5.70122e-05
0.00141768
4.64095e-05
0.00137891
3.87771e-05
0.00134587
3.30336e-05
0.00131729
2.85661e-05
0.00129227
2.50102e-05
0.00127014
2.21272e-05
0.0012504
1.97445e-05
0.00123266
1.77398e-05
0.00121663
1.60289e-05
0.00120209
1.45483e-05
0.00118885
1.32486e-05
0.00117676
1.20915e-05
0.0011657
1.10553e-05
0.00115561
1.00845e-05
0.0011464
9.20342e-06
0.00113799
8.40409e-06
0.00113033
7.66225e-06
0.00112337
6.96671e-06
0.00111706
6.3036e-06
0.0011114
5.65719e-06
0.00110635
5.05594e-06
0.00110185
4.49517e-06
0.00109793
3.92192e-06
0.00109454
3.38905e-06
0.00109167
2.84922e-06
0.00108934
2.33913e-06
0.00108752
1.82463e-06
0.00108619
1.31889e-06
0.00108539
8.08922e-07
0.00108508
3.02902e-07
0.00108525
-1.76899e-07
0.00108592
-6.64561e-07
0.00108707
-1.1542e-06
0.00108872
-1.64594e-06
0.00109087
-2.15217e-06
0.00109353
-2.65769e-06
0.00109669
-3.17518e-06
0.00110039
-3.6883e-06
0.0011046
-4.21159e-06
0.00110936
-4.75382e-06
0.00111467
-5.30623e-06
0.00112054
-5.88012e-06
0.001127
-6.46045e-06
0.00113406
-7.05498e-06
0.00114173
-7.66837e-06
0.00115003
-8.3035e-06
0.00115901
-8.96998e-06
0.00116864
-9.64398e-06
0.00117899
-1.03485e-05
0.00119006
-1.10647e-05
0.00120189
-1.18283e-05
0.0012145
-1.26077e-05
0.00122793
-1.34329e-05
0.0012422
-1.4269e-05
0.00125735
-1.5147e-05
0.00127341
-1.60605e-05
0.00129042
-1.70134e-05
0.00130843
-1.80138e-05
0.00132746
-1.90236e-05
0.00134758
-2.0127e-05
0.00136879
-2.12093e-05
0.00139124
-2.24506e-05
0.00141484
-2.35982e-05
0.00143984
-2.50028e-05
0.00146605
-2.62083e-05
0.00149389
-2.78317e-05
0.00152297
-2.90877e-05
0.00155396
-3.09906e-05
0.00158623
-3.22586e-05
0.00162075
-3.45225e-05
0.00165652
-3.57722e-05
0.00169502
-3.84953e-05
0.00173465
-3.96283e-05
0.00177756
-4.29123e-05
0.00182141
-4.38514e-05
0.00186926
-4.78467e-05
0.00191779
-4.85329e-05
0.00197113
-5.33418e-05
0.00202479
-5.36584e-05
0.00208404
-5.925e-05
0.00214331
-5.92698e-05
0.00220894
-6.5625e-05
0.00227472
-6.57834e-05
0.00234752
-7.27956e-05
0.00242121
-7.36943e-05
0.00250216
-8.09514e-05
0.00258527
-8.3112e-05
0.00267546
-9.01877e-05
0.00276922
-9.37565e-05
0.00287
-0.000100778
0.00297515
-0.000105157
0.0030884
-0.000113253
0.00320548
-0.000117074
0.0033335
-0.000128024
0.00346341
-0.000129907
0.00360837
-0.000144957
0.00375288
-0.000144511
0.00391655
-0.000163671
0.00407786
-0.000161312
0.00426235
-0.000184487
0.00444199
-0.00017964
0.00464997
-0.000207974
0.00484867
-0.000198699
0.005082
-0.000233334
0.0053001
-0.000218102
0.00555768
-0.000257574
0.00579139
-0.000233713
0.00606379
-0.000272403
0.00628152
-0.000217724
0.0065204
-0.000238881
0.00646086
5.95378e-05
0.000330226
0.00807151
0.00307503
-0.00871253
0.00704045
0.00217736
0.00621442
0.00132121
0.00564075
0.000816779
0.00524662
0.000538273
0.0049644
0.00038021
0.00475187
0.000285223
0.00458481
0.000224088
0.004449
0.000182221
0.00433573
0.00015204
0.0042394
0.000129353
0.00415622
0.000111726
0.00408353
9.76908e-05
0.00401936
8.62967e-05
0.00396223
7.68773e-05
0.00391103
6.89561e-05
0.00386487
6.21941e-05
0.00382309
5.63416e-05
0.00378513
5.12062e-05
0.00375058
4.66355e-05
0.00371913
4.24915e-05
0.00369049
3.87154e-05
0.00366443
3.5264e-05
0.00364074
3.20874e-05
0.00361927
2.91308e-05
0.00359987
2.63647e-05
0.00358245
2.37259e-05
0.00356695
2.11562e-05
0.00355325
1.8765e-05
0.00354124
1.65025e-05
0.00353094
1.4202e-05
0.00352227
1.20677e-05
0.00351519
9.91423e-06
0.00350966
7.86736e-06
0.00350571
5.79546e-06
0.00350331
3.69056e-06
0.00350249
1.64642e-06
0.00350316
-3.78346e-07
0.00350536
-2.38827e-06
0.00350907
-4.36035e-06
0.00351428
-6.37542e-06
0.00352103
-8.37551e-06
0.00352933
-1.04725e-05
0.00353922
-1.25361e-05
0.00355068
-1.46522e-05
0.00356379
-1.67847e-05
0.00357855
-1.8958e-05
0.003595
-2.12097e-05
0.0036132
-2.35021e-05
0.00363318
-2.58727e-05
0.00365502
-2.82799e-05
0.00367873
-3.07724e-05
0.00370441
-3.3336e-05
0.00373209
-3.60006e-05
0.00376189
-3.87609e-05
0.00379383
-4.15947e-05
0.00382803
-4.45355e-05
0.00386453
-4.75699e-05
0.00390347
-5.076e-05
0.00394491
-5.40552e-05
0.00398897
-5.7488e-05
0.00403574
-6.10361e-05
0.00408531
-6.47186e-05
0.00413784
-6.85913e-05
0.0041934
-7.2574e-05
0.00425219
-7.68066e-05
0.00431422
-8.10546e-05
0.00437982
-8.572e-05
0.0044489
-9.02955e-05
0.00452196
-9.55086e-05
0.00459876
-0.000100397
0.00468002
-0.000106262
0.00476529
-0.000111478
0.00485564
-0.000118181
0.00495027
-0.000123716
0.00505074
-0.000131459
0.00515574
-0.000137252
0.00526751
-0.000146291
0.00538402
-0.000152276
0.00550842
-0.0001629
0.00563761
-0.000168822
0.005776
-0.000181303
0.00591916
-0.00018701
0.00607312
-0.000201801
0.00623173
-0.000207143
0.00640292
-0.00022454
0.00657842
-0.000229147
0.00676824
-0.000249076
0.00696219
-0.000253217
0.00717249
-0.000275931
0.0073877
-0.000280988
0.00762143
-0.000306527
0.00786198
-0.000314244
0.00812259
-0.00034156
0.00839288
-0.000353405
0.00868385
-0.00038116
0.00898786
-0.000397762
0.0093131
-0.000426019
0.00965402
-0.000446076
0.0100186
-0.000477844
0.0103993
-0.000497739
0.0108096
-0.000538316
0.0112336
-0.00055391
0.0116963
-0.000607649
0.0121691
-0.000617342
0.0126903
-0.000684923
0.0132188
-0.000689732
0.0138054
-0.000771081
0.0143947
-0.000768959
0.0150552
-0.000868464
0.0157076
-0.000851127
0.0164499
-0.000975637
0.0171644
-0.000932566
0.0179891
-0.00108233
0.0187527
-0.000997242
0.019634
-0.00115373
0.020357
-0.000940745
0.021157
-0.00103889
0.0210833
0.000133237
0.00106915
0.0110962
0.00278255
-0.0108038
0.0107057
0.00256789
0.0100689
0.00195797
0.009461
0.00142467
0.0089588
0.00104047
0.00855971
0.000779313
0.00824199
0.000602956
0.00798483
0.00048126
0.00777246
0.000394588
0.00759376
0.000330722
0.00744101
0.000282092
0.00730874
0.00024399
0.00719295
0.000213466
0.00709069
0.000188565
0.00699966
0.000167904
0.00691814
0.000150488
0.00684475
0.000135592
0.00677842
0.000122677
0.0067183
0.000111327
0.00666372
0.000101215
0.00661414
9.2057e-05
0.00656918
8.36716e-05
0.00652845
7.59916e-05
0.00649163
6.89106e-05
0.00645845
6.23094e-05
0.00642869
5.61214e-05
0.00640221
5.02075e-05
0.00637891
4.44499e-05
0.00635861
3.90749e-05
0.00634115
3.39595e-05
0.00632656
2.87761e-05
0.00631469
2.39467e-05
0.00630551
1.90749e-05
0.00629903
1.43467e-05
0.00629513
9.71724e-06
0.00629386
4.92214e-06
0.00629537
1.59276e-07
0.00629942
-4.44711e-06
0.00630602
-8.99176e-06
0.00631529
-1.36138e-05
0.00632715
-1.82501e-05
0.0063417
-2.29034e-05
0.00635888
-2.76788e-05
0.00637882
-3.24699e-05
0.00640153
-3.73697e-05
0.00642709
-4.2339e-05
0.00645556
-4.74094e-05
0.00648699
-5.26537e-05
0.00652151
-5.80091e-05
0.00655916
-6.35381e-05
0.00660007
-6.91763e-05
0.00664431
-7.50213e-05
0.00669203
-8.10381e-05
0.00674331
-8.72971e-05
0.00679833
-9.37708e-05
0.00685717
-0.000100451
0.00692002
-0.00010737
0.00698699
-0.000114547
0.00705829
-0.00012205
0.00713408
-0.000129849
0.00721452
-0.000137926
0.00729982
-0.000146341
0.00739013
-0.000155024
0.00748575
-0.00016421
0.00758677
-0.000173597
0.0076936
-0.000183637
0.00780622
-0.000193679
0.00792524
-0.000204739
0.00805052
-0.000215578
0.00818292
-0.000227908
0.00832206
-0.000239537
0.00846917
-0.000253372
0.00862356
-0.000265867
0.00878698
-0.000281594
0.00895824
-0.000294975
0.00913979
-0.000313013
0.00932978
-0.000327234
0.00953157
-0.000348084
0.00974237
-0.000363078
0.00996674
-0.000387268
0.0102005
-0.000402612
0.0104498
-0.000430616
0.010709
-0.000446131
0.010986
-0.000478798
0.0112731
-0.000494262
0.0115806
-0.000532093
0.0118983
-0.000546791
0.0122389
-0.000589734
0.01259
-0.000604296
0.0129674
-0.00065335
0.0133569
-0.000670494
0.0137767
-0.000726299
0.0142116
-0.00074915
0.0146801
-0.000810025
0.0151678
-0.000841161
0.0156912
-0.000904522
0.0162388
-0.000945408
0.0168237
-0.0010109
0.0174376
-0.00105993
0.0180923
-0.00113259
0.0187783
-0.00118373
0.0195135
-0.00127349
0.0202785
-0.00131893
0.0211059
-0.00143501
0.0219595
-0.00147096
0.0228904
-0.00161584
0.0238444
-0.00164371
0.024891
-0.00181768
0.0259552
-0.00183316
0.0271327
-0.00204598
0.0283111
-0.00202955
0.0296354
-0.00229994
0.0309247
-0.00222188
0.032401
-0.00255863
0.0337791
-0.00237527
0.0353674
-0.00274201
0.0366921
-0.00226546
0.0381743
-0.00252114
0.038258
4.95791e-05
0.00208011
0.0133726
0.00203118
-0.0126213
0.0135836
0.00235689
0.0133837
0.00215784
0.0130043
0.00180408
0.0125875
0.00145738
0.0121971
0.00116964
0.0118538
0.000946315
0.0115582
0.000776871
0.0113044
0.000648325
0.0110856
0.000549543
0.0108955
0.000472169
0.0107292
0.000410336
0.0105825
0.000360092
0.0104524
0.000318665
0.0103363
0.000284009
0.0102322
0.000254607
0.0101385
0.000229331
0.0100539
0.00020732
0.00997727
0.000187908
0.00990792
0.000170561
0.00984515
0.000154814
0.00978848
0.000140335
0.00973745
0.000127025
0.00969165
0.000114716
0.00965074
0.000103216
0.00961446
9.2402e-05
0.00958263
8.20402e-05
0.00955515
7.19233e-05
0.00953178
6.24505e-05
0.00951233
5.34118e-05
0.00949683
4.42476e-05
0.00948518
3.56142e-05
0.00947725
2.69851e-05
0.00947301
1.85806e-05
0.0094726
1.015e-05
0.00947597
1.51798e-06
0.009483
-6.85303e-06
0.00949386
-1.53136e-05
0.00950849
-2.36375e-05
0.00952675
-3.18513e-05
0.00954874
-4.02582e-05
0.00957459
-4.87292e-05
0.00960431
-5.74264e-05
0.00963803
-6.6177e-05
0.00967578
-7.51317e-05
0.0097177
-8.42482e-05
0.00976387
-9.35651e-05
0.0098144
-0.000103196
0.00986946
-0.000113056
0.00992914
-0.000123237
0.00999363
-0.000133652
0.0100631
-0.000144454
0.0101376
-0.000155587
0.0102175
-0.000167176
0.0103029
-0.000179167
0.010394
-0.00019158
0.0104911
-0.000204428
0.0105943
-0.000217797
0.010704
-0.000231731
0.0108204
-0.000246273
0.0109438
-0.00026129
0.0110745
-0.000277015
0.0112126
-0.000293178
0.0113588
-0.00031035
0.011513
-0.000327822
0.0116759
-0.000346604
0.0118476
-0.000365331
0.0120289
-0.000386022
0.0122196
-0.000406254
0.0124209
-0.000429301
0.0126325
-0.000451063
0.012856
-0.000476897
0.0130905
-0.00050036
0.0133385
-0.000529646
0.0135985
-0.000554901
0.0138738
-0.000588366
0.014162
-0.000615423
0.0144678
-0.000653889
0.0147875
-0.000682713
0.0151272
-0.000726991
0.0154816
-0.000756994
0.0158587
-0.000807792
0.0162514
-0.000838817
0.0166701
-0.000897446
0.017105
-0.000929208
0.0175693
-0.000996377
0.0180503
-0.00102774
0.0185641
-0.00110356
0.0190956
-0.00113576
0.0196647
-0.00122253
0.0202542
-0.00126
0.0208874
-0.00135946
0.0215451
-0.00140688
0.0222518
-0.00151671
0.0229885
-0.00157786
0.0237779
-0.00169392
0.024604
-0.00177149
0.0254857
-0.00189263
0.026411
-0.00198524
0.027397
-0.0021186
0.0284311
-0.00221774
0.0295366
-0.00237901
0.0306898
-0.00247212
0.0319322
-0.0026775
0.0332186
-0.00275727
0.0346153
-0.00301253
0.0360519
-0.0030804
0.0376209
-0.00338661
0.039223
-0.00343532
0.0409869
-0.00380983
0.0427608
-0.00380342
0.0447447
-0.00428393
0.0466851
-0.00416219
0.0489006
-0.00477418
0.0509779
-0.00445258
0.053373
-0.00513712
0.0554023
-0.00429478
0.0576888
-0.0048076
0.058164
-0.000425601
0.00317477
0.0152323
0.00113936
-0.0143404
0.0158418
0.00174735
0.0160885
0.0019111
0.0160688
0.00182384
0.0158963
0.00162984
0.015655
0.00141095
0.0153953
0.001206
0.0151428
0.00102932
0.0149085
0.000882705
0.0146954
0.000762555
0.0145037
0.000663922
0.0143317
0.000582326
0.0141775
0.00051431
0.014039
0.000457133
0.0139144
0.000408571
0.0138022
0.000366868
0.0137009
0.000330659
0.0136093
0.000298868
0.0135266
0.000270633
0.0134519
0.000245255
0.0133846
0.000222089
0.0133243
0.00020064
0.0132705
0.000180814
0.0132228
0.000162395
0.0131809
0.000145121
0.0131445
0.000128812
0.0131134
0.000113127
0.0130876
9.77161e-05
0.0130669
8.3233e-05
0.0130509
6.93363e-05
0.0130399
5.52349e-05
0.0130335
4.20287e-05
0.0130319
2.8566e-05
0.0130352
1.53194e-05
0.0130431
2.27092e-06
0.0130558
-1.12099e-05
0.0130737
-2.47582e-05
0.0130961
-3.7716e-05
0.0131232
-5.07983e-05
0.0131553
-6.38936e-05
0.0131922
-7.72143e-05
0.0132342
-9.06915e-05
0.0132813
-0.000104522
0.0133337
-0.000118516
0.0133914
-0.000132851
0.0134546
-0.000147492
0.0135235
-0.000162481
0.0135983
-0.000177978
0.0136792
-0.000193881
0.0137662
-0.000210318
0.0138598
-0.000227176
0.01396
-0.000244675
0.0140671
-0.000262732
0.0141815
-0.000281544
0.0143034
-0.000301024
0.014433
-0.000321243
0.0145708
-0.00034217
0.014717
-0.000363998
0.0148719
-0.000386705
0.0150361
-0.000410479
0.0152098
-0.000434986
0.0153936
-0.000460748
0.0155876
-0.000487151
0.0157925
-0.000515307
0.0160085
-0.000543851
0.0162366
-0.000574674
0.0164766
-0.000605311
0.0167298
-0.000639285
0.016996
-0.000672397
0.0172769
-0.000710229
0.0175718
-0.000745902
0.0178832
-0.000788303
0.0182096
-0.000826838
0.0185548
-0.00087484
0.0189164
-0.000916439
0.0192992
-0.000971175
0.0196997
-0.00101596
0.0201245
-0.00107866
0.0205684
-0.00112666
0.0210399
-0.00119846
0.0215318
-0.00124893
0.0220549
-0.00133081
0.0225997
-0.00138366
0.0231797
-0.00147744
0.0237828
-0.00153232
0.0244253
-0.00163889
0.0250918
-0.0016942
0.0258022
-0.00181403
0.0265384
-0.00187188
0.0273251
-0.00200924
0.0281412
-0.00207618
0.0290162
-0.00223444
0.0299262
-0.0023168
0.0309025
-0.00249306
0.0319205
-0.00259586
0.0330106
-0.00278402
0.0341507
-0.00291163
0.0353674
-0.00310931
0.0366434
-0.00326124
0.0380026
-0.00347777
0.0394277
-0.00364288
0.0409498
-0.00390107
0.0425383
-0.00406068
0.044247
-0.0043862
0.0460175
-0.00452776
0.0479365
-0.00493149
0.0499121
-0.00505601
0.0520656
-0.00554013
0.0542673
-0.00563702
0.0566861
-0.00622861
0.0591228
-0.00624013
0.0618425
-0.00700368
0.0645078
-0.0068274
0.067547
-0.00781341
0.0704077
-0.00731326
0.0737037
-0.0084331
0.0765458
-0.00713694
0.0797481
-0.00800988
0.0808876
-0.00156512
0.00408701
0.0169296
0.000274698
-0.016065
0.0177214
0.000955544
0.0182886
0.00134393
0.018617
0.00149542
0.0187533
0.00149354
0.0187571
0.00140721
0.0186802
0.00128283
0.01856
0.00114952
0.0184202
0.00102253
0.0182749
0.000907764
0.0181325
0.000806399
0.017997
0.000717755
0.0178706
0.000640743
0.0177538
0.000573918
0.0176467
0.000515701
0.0175489
0.000464665
0.01746
0.000419593
0.0173794
0.000379455
0.0173066
0.000343376
0.0172413
0.000310616
0.0171829
0.00028042
0.0171314
0.00025213
0.0170865
0.000225763
0.0170478
0.000201098
0.0170151
0.000177824
0.0169882
0.000155704
0.016967
0.000134302
0.0169517
0.00011302
0.016942
9.30093e-05
0.0169374
7.38995e-05
0.0169384
5.41955e-05
0.0169453
3.51284e-05
0.0169574
1.6527e-05
0.0169746
-1.96328e-06
0.0169985
-2.1562e-05
0.0170279
-4.0641e-05
0.0170626
-5.94598e-05
0.0171032
-7.82814e-05
0.0171495
-9.71528e-05
0.0172017
-0.000116105
0.01726
-0.000135463
0.0173244
-0.000155115
0.0173952
-0.000175304
0.0174725
-0.000195815
0.0175565
-0.000216862
0.0176474
-0.000238426
0.0177455
-0.000260548
0.017851
-0.000283443
0.0179641
-0.000306987
0.0180851
-0.000331361
0.0182144
-0.000356419
0.0183521
-0.000382456
0.0184988
-0.000409362
0.0186546
-0.000437422
0.0188201
-0.000466508
0.0189957
-0.000496773
0.0191816
-0.000528104
0.0193785
-0.000560857
0.0195866
-0.000594881
0.0198068
-0.000630614
0.0200392
-0.000667393
0.0202846
-0.0007062
0.0205434
-0.000745867
0.0208164
-0.000788326
0.0211037
-0.000831217
0.0214068
-0.000877754
0.0217253
-0.00092384
0.0220612
-0.000975176
0.0224138
-0.00102499
0.0227858
-0.00108216
0.0231757
-0.00113587
0.0235874
-0.00119997
0.0240186
-0.00125806
0.0244744
-0.00133057
0.0249513
-0.00139339
0.0254561
-0.00147598
0.025984
-0.00154382
0.0265435
-0.00163822
0.0271281
-0.00171122
0.0277486
-0.00181893
0.0283959
-0.00189622
0.0290836
-0.00201851
0.0298
-0.00210011
0.0305619
-0.00223932
0.0313543
-0.00232478
0.0321974
-0.00248195
0.0330724
-0.00256917
0.0340037
-0.0027454
0.0349695
-0.00283765
0.0360002
-0.00303993
0.0370703
-0.00314629
0.0382161
-0.00338024
0.039408
-0.00350871
0.0406859
-0.00377092
0.0420178
-0.00392776
0.0434435
-0.00420974
0.0449334
-0.00440152
0.0465232
-0.00469913
0.0481889
-0.00492698
0.049963
-0.00525183
0.0518218
-0.00550173
0.0538062
-0.00588541
0.0558762
-0.00613069
0.0581014
-0.00661138
0.0604057
-0.0068321
0.0629021
-0.00742785
0.0654704
-0.00762434
0.0682684
-0.00833814
0.0711282
-0.00849682
0.0742669
-0.00936726
0.0774301
-0.00940338
0.0809563
-0.0105298
0.0844167
-0.0102878
0.0883554
-0.0117522
0.0920818
-0.0110397
0.0963593
-0.0127105
0.100126
-0.0109041
0.104333
-0.0122165
0.106422
-0.00365444
0.00448918
0.0186434
-0.000521666
-0.017847
0.0194539
0.000145041
0.0201835
0.000614291
0.0207583
0.000920675
0.0211698
0.00108199
0.0214377
0.00113933
0.0215937
0.00112677
0.021669
0.0010742
0.0216892
0.00100237
0.0216736
0.000923342
0.0216363
0.000843652
0.0215871
0.00076698
0.0215322
0.000695676
0.0214756
0.000630526
0.0214199
0.000571362
0.0213669
0.000517709
0.0213175
0.000468987
0.0212724
0.000424572
0.0212319
0.000383854
0.0211962
0.000346259
0.0211656
0.000311048
0.0211404
0.00027739
0.0211205
0.000245627
0.021106
0.000215588
0.0210969
0.000186979
0.021093
0.000159602
0.0210943
0.000132999
0.0211013
0.000105951
0.021114
8.03021e-05
0.0211328
5.51714e-05
0.021157
2.99068e-05
0.0211858
6.35995e-06
0.021222
-1.96851e-05
0.021265
-4.49875e-05
0.0213133
-6.97899e-05
0.0213678
-9.51586e-05
0.0214288
-0.000120457
0.0214962
-0.000145674
0.0215702
-0.000171199
0.0216511
-0.000196987
0.021739
-0.000223377
0.0218342
-0.000250263
0.0219368
-0.000277937
0.0220472
-0.000306174
0.0221655
-0.000335215
0.0222922
-0.00036507
0.0224274
-0.000395769
0.0225715
-0.000427591
0.0227249
-0.00046039
0.022888
-0.000494412
0.0230611
-0.000529472
0.0232445
-0.000565955
0.0234389
-0.000603711
0.0236446
-0.00064314
0.0238622
-0.000684052
0.0240921
-0.000726732
0.024335
-0.00077093
0.0245913
-0.000817248
0.0248618
-0.0008653
0.0251471
-0.00091593
0.0254477
-0.000967965
0.0257645
-0.00102309
0.0260979
-0.00107927
0.0264493
-0.00113966
0.0268185
-0.00120043
0.0272075
-0.00126672
0.0276157
-0.00133207
0.0280458
-0.00140527
0.0284967
-0.00147589
0.028972
-0.00155746
0.0294698
-0.00163365
0.0299949
-0.00172514
0.0305445
-0.00180758
0.0311249
-0.00191105
0.0317318
-0.00200029
0.0323739
-0.00211806
0.0330447
-0.00221464
0.0337556
-0.00234905
0.0344977
-0.00245329
0.035285
-0.00260626
0.036106
-0.0027172
0.0369777
-0.00289027
0.0378857
-0.00300807
0.0388505
-0.00320411
0.0398539
-0.00332821
0.0409203
-0.00354832
0.0420271
-0.00367602
0.043204
-0.00392222
0.0444245
-0.00405823
0.0457257
-0.00434113
0.0470769
-0.00449741
0.0485223
-0.00482569
0.0500255
-0.00501193
0.0516363
-0.0053817
0.053314
-0.00560545
0.0551095
-0.00600526
0.0569838
-0.00627582
0.0589838
-0.00669911
0.0610769
-0.00702004
0.063306
-0.00748094
0.065639
-0.0078347
0.0681293
-0.00837579
0.0707238
-0.00872513
0.0735132
-0.0094008
0.076397
-0.00971592
0.0795224
-0.0105532
0.0827323
-0.0108342
0.0862298
-0.0118356
0.0898005
-0.0120675
0.0937171
-0.0132839
0.097664
-0.0133502
0.102058
-0.0149234
0.106377
-0.014607
0.111277
-0.0166521
0.115946
-0.0157094
0.121265
-0.0180293
0.126068
-0.0157068
0.13134
-0.0174886
0.134641
-0.00695575
0.00400915
0.0204327
-0.0012147
-0.0197396
0.02122
-0.000642258
0.0219819
-0.000147598
0.022678
0.000224493
0.0232744
0.000485563
0.0237565
0.000657267
0.0241334
0.000749778
0.0244192
0.000788408
0.0246309
0.000790666
0.0247853
0.000768981
0.0248971
0.000731873
0.0249779
0.000686099
0.0250367
0.000636941
0.0250799
0.00058733
0.0251125
0.000538721
0.0251383
0.000491935
0.0251599
0.000447368
0.0251793
0.000405114
0.0251981
0.000365097
0.0252172
0.000327174
0.0252375
0.000290749
0.0252602
0.000254713
0.0252858
0.000220041
0.0253146
0.000186735
0.025347
0.000154573
0.0253836
0.000123076
0.0254246
9.19556e-05
0.0254705
6.0076e-05
0.0255208
2.99391e-05
0.0255746
1.42291e-06
0.0256359
-3.14729e-05
0.0257044
-6.20594e-05
0.0257773
-9.25833e-05
0.025856
-0.000123692
0.0259414
-0.000155201
0.0260332
-0.000186961
0.0261317
-0.000218933
0.0262372
-0.000251193
0.02635
-0.000284003
0.0264703
-0.00031733
0.0265985
-0.000351559
0.0267348
-0.000386571
0.0268796
-0.000422712
0.0270332
-0.000459755
0.0271959
-0.000497957
0.0273682
-0.000537377
0.0275505
-0.00057802
0.0277431
-0.000620242
0.0279466
-0.000663866
0.0281614
-0.000709222
0.028388
-0.000756079
0.028627
-0.000804928
0.0288789
-0.00085556
0.0291442
-0.000908525
0.0294237
-0.000963539
0.0297181
-0.00102109
0.0300279
-0.0010807
0.030354
-0.00114335
0.0306969
-0.00120827
0.0310579
-0.0012769
0.0314373
-0.00134733
0.0318364
-0.00142226
0.0322556
-0.0014984
0.0326966
-0.00158064
0.0331592
-0.00166303
0.0336459
-0.00175345
0.0341559
-0.00184211
0.0346927
-0.00194209
0.0352547
-0.00203787
0.0358466
-0.00214936
0.0364656
-0.00225269
0.0371183
-0.00237783
0.0378004
-0.00248963
0.0385205
-0.00263116
0.0392725
-0.00275226
0.0400677
-0.00291327
0.0408976
-0.00304453
0.0417766
-0.0032281
0.0426934
-0.00337012
0.0436658
-0.00357861
0.044679
-0.00373042
0.0457544
-0.00396566
0.0468739
-0.00412761
0.0480628
-0.00439292
0.0492988
-0.00456427
0.0506112
-0.00486074
0.0519732
-0.00503799
0.0534198
-0.00536882
0.0549199
-0.00555833
0.0565176
-0.00593882
0.058176
-0.00615578
0.0599489
-0.00659863
0.0617914
-0.00685447
0.0637652
-0.00735543
0.0658187
-0.007659
0.0680163
-0.00820289
0.0703074
-0.00856693
0.0727522
-0.00914388
0.0753073
-0.00957512
0.0780286
-0.0102023
0.0808723
-0.0106784
0.0839089
-0.0114124
0.0870658
-0.011882
0.0904628
-0.0127978
0.0939655
-0.0132186
0.0977658
-0.0143536
0.101659
-0.0147274
0.105903
-0.0160797
0.110229
-0.0163939
0.114972
-0.0180261
0.119751
-0.0181291
0.125058
-0.020231
0.130292
-0.0198405
0.136194
-0.0225545
0.141877
-0.0213928
0.148271
-0.0244233
0.15421
-0.0216457
0.160582
-0.0238606
0.165302
-0.011675
0.0022686
0.0223774
-0.00182192
-0.0217702
0.0230769
-0.00134178
0.0238268
-0.00089752
0.0245675
-0.000516207
0.0252537
-0.000200686
0.0258602
5.07925e-05
0.0264014
0.000208564
0.0268651
0.000324633
0.0272569
0.000398926
0.0275852
0.000440662
0.027862
0.000455042
0.0280967
0.000451426
0.028297
0.000436712
0.0284698
0.000414491
0.0286212
0.000387285
0.0287561
0.000357063
0.0288783
0.000325185
0.0289908
0.000292527
0.0290963
0.000259642
0.0291967
0.000226758
0.0292935
0.000193963
0.0293886
0.000159631
0.0294831
0.000125566
0.0295778
9.19798e-05
0.0296736
5.88618e-05
0.02977
2.66514e-05
0.0298671
-5.17082e-06
0.0299702
-4.30168e-05
0.030077
-7.68688e-05
0.0301894
-0.000111027
0.0303041
-0.000146132
0.0304236
-0.00018159
0.030549
-0.000217977
0.0306801
-0.000254774
0.030817
-0.00029213
0.0309604
-0.000330323
0.0311106
-0.00036915
0.031268
-0.000408628
0.0314331
-0.000449045
0.0316061
-0.000490363
0.0317875
-0.000532986
0.0319778
-0.000576795
0.0321772
-0.000622175
0.0323864
-0.000668916
0.0326057
-0.000717279
0.0328357
-0.000767385
0.0330769
-0.00081921
0.0333299
-0.00087319
0.0335951
-0.000929113
0.0338733
-0.000987411
0.034165
-0.00104779
0.034471
-0.00111088
0.0347918
-0.00117639
0.0351283
-0.00124505
0.0354812
-0.00131643
0.0358515
-0.00139135
0.0362397
-0.00146895
0.0366471
-0.00155077
0.0370743
-0.00163543
0.0375227
-0.00172531
0.0379928
-0.00181736
0.0384863
-0.00191578
0.0390033
-0.00201543
0.0395463
-0.00212369
0.0401149
-0.00223156
0.0407122
-0.00235082
0.0413371
-0.00246697
0.041994
-0.00259903
0.0426806
-0.00272445
0.0434031
-0.00287186
0.0441576
-0.00300713
0.0449525
-0.00317271
0.0457819
-0.00331902
0.046657
-0.00350632
0.0475696
-0.00366481
0.0485341
-0.00387782
0.0495394
-0.00404978
0.0506037
-0.00429246
0.0517126
-0.00447895
0.0528881
-0.00475412
0.0541119
-0.00495425
0.0554102
-0.005264
0.056761
-0.0054784
0.0581945
-0.00582643
0.0596844
-0.00605411
0.0612649
-0.00644132
0.0629045
-0.00667758
0.0646444
-0.00710864
0.0664475
-0.00736148
0.0683663
-0.00785763
0.0703564
-0.00814584
0.0724828
-0.00872501
0.0746902
-0.0090619
0.0770544
-0.00971962
0.0795109
-0.0101155
0.0821398
-0.0108318
0.0848765
-0.0113037
0.0877968
-0.0120641
0.0908442
-0.0126225
0.0940903
-0.0134484
0.0974757
-0.0140638
0.101093
-0.0150301
0.104844
-0.0156322
0.108885
-0.0168395
0.113038
-0.0173712
0.117551
-0.0188665
0.12216
-0.0193363
0.127186
-0.0211064
0.132303
-0.0215109
0.137904
-0.0236269
0.143553
-0.0237777
0.149802
-0.0264805
0.155994
-0.0260327
0.162916
-0.0294765
0.169672
-0.0281482
0.177147
-0.0318987
0.184301
-0.0287994
0.191789
-0.0313489
0.198053
-0.0179386
-0.00107588
0.0244969
-0.00236354
-0.0239553
0.0251236
-0.00196853
0.0258098
-0.00158364
0.0265206
-0.00122704
0.0272303
-0.000910461
0.0279244
-0.000643279
0.0285619
-0.00042897
0.0291465
-0.000259984
0.029676
-0.000130578
0.030147
-3.02453e-05
0.0305689
3.30777e-05
0.0309519
6.85001e-05
0.0312973
9.13085e-05
0.0316101
0.000101643
0.0318953
0.000102052
0.0321574
9.49407e-05
0.0324004
8.21851e-05
0.0326277
6.52172e-05
0.0328421
4.52759e-05
0.0330451
2.37978e-05
0.0332383
7.55167e-07
0.0334279
-2.99673e-05
0.0336131
-5.96092e-05
0.0337948
-8.9741e-05
0.0339743
-0.000120684
0.0341539
-0.000152903
0.0343349
-0.0001862
0.0345138
-0.000221962
0.034695
-0.000258017
0.0348785
-0.00029456
0.0350657
-0.0003333
0.0352567
-0.00037256
0.0354517
-0.000413049
0.0356517
-0.000454759
0.0358572
-0.000497648
0.0360688
-0.000541864
0.0362869
-0.000587267
0.0365121
-0.000633867
0.036745
-0.000681933
0.0369861
-0.000731418
0.0372358
-0.000782741
0.0374948
-0.000835781
0.0377636
-0.000890949
0.0380428
-0.000948077
0.0383329
-0.00100741
0.0386346
-0.00106914
0.0389487
-0.00113322
0.0392756
-0.00120016
0.0396162
-0.00126972
0.0399713
-0.00134245
0.0403415
-0.00141797
0.0407277
-0.0014971
0.0411307
-0.00157937
0.0415515
-0.00166585
0.0419908
-0.00175581
0.04245
-0.00185055
0.0429298
-0.00194868
0.0434316
-0.00205255
0.043956
-0.00215982
0.0445049
-0.00227426
0.0450787
-0.00239114
0.0456798
-0.00251689
0.046308
-0.00264362
0.0469665
-0.00278226
0.0476545
-0.00291954
0.0483763
-0.00307263
0.0491299
-0.00322051
0.0499211
-0.00339032
0.0507466
-0.0035499
0.0516144
-0.00373967
0.0525189
-0.00391166
0.0534712
-0.004125
0.0544631
-0.00431092
0.0555091
-0.00455227
0.0565979
-0.00475361
0.0577481
-0.00502802
0.0589449
-0.00524664
0.0602115
-0.00555905
0.0615293
-0.00579669
0.0629256
-0.00615042
0.0643778
-0.00640645
0.0659176
-0.00680383
0.0675185
-0.00707928
0.0692163
-0.0075243
0.07098
-0.00781779
0.0728497
-0.00831095
0.074788
-0.00861592
0.0768429
-0.00916358
0.0789708
-0.00948935
0.0812333
-0.0101201
0.0835769
-0.0104894
0.0860798
-0.011228
0.0886743
-0.0116564
0.0914529
-0.0124982
0.0943354
-0.012998
0.0974203
-0.0139167
0.100627
-0.01451
0.104048
-0.0154854
0.107612
-0.0161866
0.111409
-0.0172457
0.11536
-0.0180147
0.119587
-0.0192568
0.123952
-0.0199978
0.128667
-0.0215544
0.133491
-0.0221946
0.138743
-0.0241188
0.14409
-0.0246829
0.149921
-0.026938
0.155853
-0.027442
0.162328
-0.0301026
0.168872
-0.0303217
0.17607
-0.0336784
0.183253
-0.0332154
0.191186
-0.0374097
0.199054
-0.0360161
0.207594
-0.040439
0.216005
-0.0372109
0.224617
-0.0399608
0.232467
-0.0257882
-0.00629405
0.026805
-0.00285481
-0.0263137
0.0273707
-0.00253425
0.0279978
-0.00221073
0.0286677
-0.00189699
0.0293601
-0.00160289
0.0300536
-0.00133679
0.0307297
-0.0011051
0.0313789
-0.000909122
0.031995
-0.000746641
0.0325797
-0.000614925
0.0331267
-0.000513923
0.0336323
-0.00043715
0.0341034
-0.000379722
0.0345434
-0.000338374
0.0349557
-0.000310278
0.0353436
-0.000292982
0.0357102
-0.000284455
0.0360585
-0.000283058
0.0363913
-0.000287503
0.0367119
-0.000296852
0.0370228
-0.000310146
0.0373216
-0.000328739
0.0376126
-0.000350543
0.0378975
-0.000374715
0.0381781
-0.000401262
0.0384553
-0.000430104
0.0387307
-0.000461554
0.039005
-0.000496275
0.0392792
-0.00053223
0.0395544
-0.000569763
0.039831
-0.000609916
0.0401102
-0.000651771
0.0403928
-0.000695622
0.0406794
-0.000741415
0.0409709
-0.000789074
0.0412677
-0.000838749
0.0415708
-0.000890327
0.0418807
-0.000943781
0.0421981
-0.000999367
0.0425238
-0.00105703
0.0428582
-0.00111719
0.0432022
-0.00117973
0.0435563
-0.00124507
0.0439213
-0.00131312
0.044298
-0.00138406
0.044687
-0.00145822
0.0450893
-0.00153546
0.0455056
-0.00161645
0.0459367
-0.00170083
0.0463836
-0.00178935
0.0468472
-0.00188151
0.0473284
-0.00197835
0.0478282
-0.0020792
0.0483479
-0.00218552
0.0488882
-0.00229615
0.0494508
-0.00241314
0.0500364
-0.00253425
0.0506468
-0.002663
0.0512827
-0.00279567
0.0519464
-0.002938
0.0526382
-0.00308287
0.0533611
-0.00323985
0.0541147
-0.00339719
0.0549032
-0.00357076
0.055725
-0.00374132
0.0565858
-0.00393345
0.0574825
-0.00411723
0.058423
-0.00433079
0.059402
-0.00452896
0.0604303
-0.00476792
0.0614999
-0.0049813
0.0626251
-0.00525017
0.0637948
-0.0054806
0.0650274
-0.00578484
0.066308
-0.00603422
0.0676599
-0.00637998
0.0690643
-0.00665095
0.0705495
-0.00704426
0.0720923
-0.00733953
0.0737262
-0.0077843
0.0754235
-0.00810373
0.0772221
-0.00860243
0.0790905
-0.00894769
0.0810707
-0.00950458
0.0831266
-0.00987369
0.0853044
-0.0104887
0.0875606
-0.0108721
0.0899503
-0.0115533
0.092422
-0.011961
0.0950479
-0.012746
0.0977634
-0.0132049
0.100662
-0.0141271
0.103662
-0.0146558
0.106874
-0.0157106
0.1102
-0.0163242
0.113761
-0.0174768
0.117454
-0.0182039
0.121396
-0.0194266
0.125494
-0.0202846
0.129862
-0.0216138
0.134393
-0.0225461
0.139249
-0.0241126
0.144242
-0.0249909
0.149649
-0.0269618
0.155154
-0.0276989
0.16116
-0.0301253
0.167255
-0.0307779
0.173899
-0.0335813
0.180656