/*--------------------------------*- C++ -*----------------------------------*\
| =========                 |                                                 |
| \\      /  F ield         | OpenFOAM: The Open Source CFD Toolbox           |
|  \\    /   O peration     | Version:  2412                                  |
|   \\  /    A nd           | Website:  www.openfoam.com                      |
|    \\/     M anipulation  |                                                 |
\*---------------------------------------------------------------------------*/
FoamFile
{
    version     2.0;
    format      ascii;
    arch        "LSB;label=32;scalar=64";
    class       volVectorField;
    location    "0.045";
    object      U_0;
}
// * * * * * * * * * * * * * * * * * * * * * * * * * * * * * * * * * * * * * //

dimensions      [0 1 -1 0 0 0 0];

internalField   nonuniform List<vector> 
12600
(
(-6.10026 -7.79181e-22 -0.694083)
(-4.57423 -7.39212e-21 0.221004)
(-3.43548 -1.00806e-20 0.383816)
(-2.804 0 0.385155)
(-2.39117 -1.33135e-20 0.357617)
(-2.08632 -1.43574e-20 0.326867)
(-1.84825 0 0.298254)
(-1.65494 0 0.272736)
(-1.49367 6.12038e-20 0.250125)
(-1.35633 0 0.230021)
(-1.23745 -3.06989e-20 0.212038)
(-1.13318 -3.04642e-20 0.195848)
(-1.04071 3.01141e-20 0.181182)
(-0.957933 0 0.167817)
(-0.883241 2.90934e-20 0.155573)
(-0.815373 0 0.1443)
(-0.753326 -1.11743e-19 0.133875)
(-0.696294 0 0.124196)
(-0.643619 5.31629e-20 0.115176)
(-0.594757 5.18144e-20 0.106742)
(-0.549253 -5.03711e-20 0.098831)
(-0.506722 -4.09619e-23 0.0913891)
(-0.466837 0 0.0843694)
(-0.429315 9.18789e-20 0.0777313)
(-0.393913 0 0.0714389)
(-0.360422 0 0.0654607)
(-0.328665 8.30994e-20 0.0597693)
(-0.298485 0 0.0543404)
(-0.269747 2.72839e-23 0.0491531)
(-0.242325 -7.4534e-20 0.0441886)
(-0.21611 -7.17758e-20 0.0394295)
(-0.190999 -6.90664e-20 0.0348601)
(-0.166904 6.64088e-20 0.0304663)
(-0.143741 1.27611e-19 0.0262356)
(-0.121434 1.22518e-19 0.022157)
(-0.0999045 -1.17554e-19 0.018223)
(-0.0790791 0 0.0144397)
(-0.0589014 1.07938e-19 0.0108171)
(-0.0393365 0 0.00730235)
(-0.0203557 -9.88141e-20 0.00383297)
(-0.00192277 0 0.000433906)
(0.0160024 4.21783e-24 -0.00289733)
(0.0334559 0 -0.00615167)
(0.050463 -9.17157e-25 -0.00933554)
(0.0670604 -1.56202e-19 -0.012452)
(0.0832823 1.48627e-19 -0.0155055)
(0.0991404 -1.41273e-19 -0.0184967)
(0.114648 0 -0.0214273)
(0.129845 0 -0.0243042)
(0.144759 -1.20574e-19 -0.0271316)
(0.159412 -2.28227e-19 -0.0299126)
(0.173834 -2.15732e-19 -0.0326532)
(0.188046 -2.4253e-23 -0.0353567)
(0.202066 -1.92009e-19 -0.0380255)
(0.215926 0 -0.0406661)
(0.229642 1.69843e-19 -0.0432814)
(0.243223 1.59355e-19 -0.0458716)
(0.256711 1.4927e-19 -0.048446)
(0.270116 0 -0.051006)
(0.283444 0 -0.0535514)
(0.296763 0 -0.0560965)
(0.310064 -2.24778e-19 -0.0586387)
(0.323376 0 -0.0611829)
(0.336752 0 -0.0637408)
(0.350174 3.53259e-19 -0.0663073)
(0.363684 0 -0.0688908)
(0.377321 0 -0.0714992)
(0.391059 0 -0.0741265)
(0.404971 -2.42115e-19 -0.0767878)
(0.419056 2.17188e-19 -0.079482)
(0.433323 1.93373e-19 -0.0822108)
(0.447848 -8.61916e-23 -0.0849894)
(0.462605 -1.48882e-19 -0.0878119)
(0.477668 0 -0.0906931)
(0.493061 1.08425e-19 -0.0936358)
(0.508781 0 -0.0966403)
(0.524921 0 -0.0997266)
(0.541442 0 -0.102885)
(0.558409 -1.39812e-22 -0.106131)
(0.575828 4.70703e-20 -0.109463)
(0.593709 1.83127e-20 -0.112884)
(0.612128 8.66514e-21 -0.116409)
(0.631072 3.42225e-20 -0.120032)
(0.650625 0 -0.123771)
(0.67078 0 -0.127626)
(0.691593 -2.03945e-19 -0.131606)
(0.713104 4.86347e-19 -0.13572)
(0.735306 -5.59691e-19 -0.139966)
(0.758302 -3.13911e-19 -0.144363)
(0.782083 0 -0.148912)
(0.806683 7.48412e-19 -0.153616)
(0.832185 -4.00868e-19 -0.158494)
(0.85858 4.24889e-19 -0.163542)
(0.885915 -8.94099e-19 -0.168771)
(0.914296 0 -0.174199)
(0.943628 0 -0.17981)
(0.974102 0 -0.18564)
(1.00567 0 -0.191679)
(1.03855 0 -0.197969)
(1.07222 0 -0.204411)
(1.10767 1.08805e-18 -0.211194)
(1.14364 2.2028e-18 -0.218078)
(1.18237 2.22231e-18 -0.225488)
(1.22056 0 -0.232797)
(1.26319 0 -0.240957)
(1.30336 0 -0.248641)
(1.35066 2.24611e-18 -0.257703)
(1.39253 4.4793e-18 -0.265706)
(1.44516 -2.22749e-18 -0.275802)
(1.48859 0 -0.284089)
(1.54787 4.38497e-18 -0.29547)
(1.59243 0 -0.303967)
(1.65985 4.28533e-18 -0.316914)
(1.70262 -4.21707e-18 -0.325094)
(1.77887 4.15582e-18 -0.339715)
(1.81983 4.07748e-18 -0.347588)
(1.89841 -3.99922e-18 -0.362671)
(1.93666 4.01492e-22 -0.370068)
(2.00412 -3.81507e-18 -0.383334)
(1.84472 0 -0.353267)
(-12.8379 7.91552e-22 -1.53599)
(-10.4318 0 0.217495)
(-8.65651 1.02293e-20 0.663623)
(-7.3736 0 0.781824)
(-6.42458 1.35115e-20 0.793448)
(-5.68583 2.8123e-20 0.767065)
(-5.0911 1.46939e-20 0.727382)
(-4.59791 0 0.684054)
(-4.17979 -3.26133e-22 0.640892)
(-3.81899 3.08329e-20 0.599424)
(-3.50319 -3.08158e-20 0.560212)
(-3.22351 -3.0636e-20 0.523392)
(-2.97337 3.03272e-20 0.488909)
(-2.74777 -2.99155e-20 0.456628)
(-2.5428 -5.89542e-20 0.426381)
(-2.3554 0 0.397999)
(-2.18311 1.61434e-22 0.371321)
(-2.02392 -5.51971e-20 0.346197)
(-1.87618 -5.39486e-20 0.32249)
(-1.73852 0 0.300077)
(-1.6098 0 0.278846)
(-1.48903 -4.95703e-20 0.258696)
(-1.37536 0 0.239535)
(-1.26806 -4.65704e-20 0.221281)
(-1.1665 9.00428e-20 0.20386)
(-1.07014 0 0.187206)
(-0.978507 -8.41116e-20 0.171261)
(-0.891191 0 0.155973)
(-0.807832 7.83449e-20 0.141295)
(-0.728105 1.5093e-19 0.127185)
(-0.651712 1.45313e-19 0.113602)
(-0.578381 6.99123e-20 0.100511)
(-0.507868 -6.72031e-20 0.0878774)
(-0.439952 -2.58156e-19 0.0756743)
(-0.374424 -2.47782e-19 0.0638778)
(-0.311071 0 0.0524605)
(-0.249705 0 0.0413749)
(-0.19018 -1.78344e-23 0.0306213)
(-0.132398 0 0.0201362)
(-0.076246 9.97598e-20 0.00984712)
(-0.0216332 0 -0.000224933)
(0.0315598 1.81923e-19 -0.010059)
(0.08342 0 -0.0197017)
(0.134013 1.65308e-19 -0.0291313)
(0.183439 0 -0.0383683)
(0.231796 -1.49661e-19 -0.0474265)
(0.279123 0 -0.0563064)
(0.325453 0 -0.0650169)
(0.370896 1.27969e-19 -0.073577)
(0.41553 0 -0.0819987)
(0.459416 0 -0.0902921)
(0.502645 0 -0.0984728)
(0.545273 2.04322e-19 -0.10655)
(0.587349 3.85047e-19 -0.114533)
(0.628968 0 -0.122437)
(0.670174 0 -0.130271)
(0.71099 -1.59528e-19 -0.138039)
(0.751543 -1.49263e-19 -0.145762)
(0.79186 0 -0.153448)
(0.831958 0 -0.161098)
(0.872037 0 -0.16875)
(0.912067 0 -0.1764)
(0.952139 -2.07448e-19 -0.184061)
(0.992405 1.91296e-19 -0.191765)
(1.03281 -3.51523e-19 -0.1995)
(1.07349 0 -0.207289)
(1.11454 0 -0.215155)
(1.15589 0 -0.223082)
(1.19777 -1.53554e-22 -0.231112)
(1.24016 -2.1511e-19 -0.239243)
(1.28309 -1.91348e-19 -0.247482)
(1.3268 3.37445e-19 -0.255872)
(1.37119 -1.36982e-22 -0.264396)
(1.4165 -1.26588e-19 -0.2731)
(1.46278 -1.06882e-19 -0.281993)
(1.51005 0 -0.291075)
(1.55856 0 -0.300402)
(1.60821 0 -0.309946)
(1.65918 7.61814e-20 -0.319748)
(1.7115 0 -0.32981)
(1.76518 0 -0.340137)
(1.82047 -8.48068e-21 -0.350777)
(1.87732 -3.34582e-20 -0.361716)
(1.93599 0 -0.373005)
(1.99644 0 -0.384639)
(2.05885 0 -0.396652)
(2.12333 -4.72887e-19 -0.409066)
(2.18987 3.2134e-22 -0.421875)
(2.25878 -3.04404e-19 -0.435143)
(2.33002 3.34616e-19 -0.448858)
(2.4037 -7.24884e-19 -0.463046)
(2.48006 -3.87645e-19 -0.477751)
(2.55908 -8.2153e-19 -0.492967)
(2.6409 0 -0.508724)
(2.72582 0 -0.52508)
(2.81358 0 -0.54198)
(2.90474 0 -0.55954)
(2.99917 -9.8796e-19 -0.57773)
(3.09746 0 -0.59666)
(3.19814 0 -0.61605)
(3.30408 1.04275e-18 -0.636462)
(3.41164 -1.05498e-18 -0.657179)
(3.52732 -4.25287e-18 -0.679474)
(3.64146 2.13832e-18 -0.701451)
(3.76887 0 -0.726014)
(3.88863 0 -0.749072)
(4.03049 0 -0.776414)
(4.15457 -2.13318e-18 -0.800324)
(4.31345 2.1199e-18 -0.830901)
(4.44081 0 -0.85553)
(4.62065 -8.33133e-18 -0.890033)
(4.75033 -4.11207e-18 -0.915249)
(4.95489 -8.12903e-18 -0.954352)
(5.08105 0 -0.978964)
(5.31024 0 -1.02281)
(5.43398 3.85803e-18 -1.04678)
(5.67076 0 -1.09219)
(5.78938 3.69638e-18 -1.11489)
(6.00686 3.60259e-18 -1.15422)
(5.61796 0 -1.07729)
(-16.1466 0 -2.21454)
(-14.082 0 -0.560905)
(-12.3463 9.22174e-21 0.199079)
(-10.863 0 0.57173)
(-9.66557 0 0.745994)
(-8.68009 -1.34918e-20 0.819855)
(-7.85752 -1.39316e-20 0.841744)
(-7.15783 0 0.835885)
(-6.55328 -2.15206e-22 0.814951)
(-6.02374 -2.92317e-20 0.78583)
(-5.55452 5.82735e-20 0.752412)
(-5.13463 2.90441e-20 0.716952)
(-4.75572 -1.14015e-22 0.680785)
(-4.41128 2.83599e-20 0.644705)
(-4.09616 2.78911e-20 0.609189)
(-3.80625 -2.72881e-20 0.574515)
(-3.53819 5.35598e-20 0.540843)
(-3.28924 5.23223e-20 0.508253)
(-3.0571 0 0.476776)
(-2.83986 0 0.446412)
(-2.6359 -4.82401e-20 0.417137)
(-2.44381 -4.68525e-20 0.388916)
(-2.26238 0 0.361703)
(-2.09056 0 0.335454)
(-1.92745 -8.53334e-20 0.310118)
(-1.77224 0 0.285651)
(-1.62425 1.59355e-19 0.26201)
(-1.48288 -7.68804e-20 0.239153)
(-1.34759 0 0.217039)
(-1.2179 -7.14811e-20 0.195628)
(-1.09337 -6.88194e-20 0.174881)
(-0.973587 0 0.15476)
(-0.858189 6.36174e-20 0.135234)
(-0.74684 1.22251e-19 0.116275)
(-0.639224 2.95739e-23 0.0978576)
(-0.535033 0 0.0799428)
(-0.433984 0 0.0624024)
(-0.335846 -1.03257e-19 0.0452124)
(-0.240444 0 0.0283747)
(-0.147594 0 0.0118869)
(-0.0571683 0 -0.00427246)
(0.0310131 0 -0.0200482)
(0.117075 0 -0.035572)
(0.201133 0 -0.0507783)
(0.283332 0 -0.065706)
(0.363828 1.41656e-19 -0.0803755)
(0.442694 -1.34579e-19 -0.094783)
(0.519975 0 -0.108947)
(0.595839 -1.21073e-19 -0.122897)
(0.670411 0 -0.136648)
(0.743789 0 -0.150217)
(0.816114 2.04903e-19 -0.163624)
(0.887476 0 -0.176884)
(0.957956 -1.82067e-19 -0.19001)
(1.0277 1.71298e-19 -0.203026)
(1.09678 0 -0.215941)
(1.16523 1.50789e-19 -0.228765)
(1.23326 0 -0.241532)
(1.30092 0 -0.254247)
(1.36822 0 -0.266923)
(1.43551 2.28482e-19 -0.279612)
(1.50272 2.11901e-19 -0.292308)
(1.57002 -7.25791e-23 -0.305039)
(1.63764 -3.61345e-19 -0.317845)
(1.70551 -6.96432e-23 -0.330715)
(1.77383 0 -0.343683)
(1.84277 0 -0.356781)
(1.91223 -2.51359e-19 -0.369991)
(1.98256 -1.26025e-22 -0.383377)
(2.05373 0 -0.396934)
(2.12582 0 -0.410677)
(2.19918 -1.59175e-19 -0.424677)
(2.27369 -1.1187e-22 -0.438903)
(2.34973 -1.08314e-22 -0.453434)
(2.4274 0 -0.468283)
(2.50668 0 -0.483451)
(2.58805 -1.3352e-19 -0.499027)
(2.67129 1.01997e-19 -0.514962)
(2.75674 0 -0.531327)
(2.84442 0 -0.548121)
(2.93437 0 -0.565356)
(3.02699 0 -0.583111)
(3.12218 0 -0.601363)
(3.2204 0 -0.620201)
(3.32157 0 -0.639609)
(3.42601 0 -0.659648)
(3.53388 4.4405e-19 -0.68035)
(3.64516 2.55408e-19 -0.701707)
(3.76038 2.86099e-19 -0.723828)
(3.87945 -3.1443e-19 -0.746685)
(4.00258 6.80517e-19 -0.770329)
(4.13016 3.6411e-19 -0.794828)
(4.26213 3.85625e-19 -0.820171)
(4.39875 0 -0.846413)
(4.54052 0 -0.873642)
(4.68698 0 -0.901771)
(4.83908 0 -0.930996)
(4.99663 9.26865e-19 -0.961265)
(5.1605 0 -0.992739)
(5.3284 0 -1.02499)
(5.50494 -9.77705e-19 -1.05891)
(5.68421 0 -1.09336)
(5.87689 1.99275e-18 -1.1304)
(6.0669 -2.00384e-18 -1.16691)
(6.27922 0 -1.20773)
(6.47804 0 -1.24594)
(6.71507 0 -1.2915)
(6.91979 -1.99675e-18 -1.33088)
(7.18674 0 -1.38209)
(7.39468 1.96735e-18 -1.42231)
(7.69815 7.12569e-22 -1.48027)
(7.90807 3.84845e-18 -1.52121)
(8.25296 7.6054e-18 -1.58672)
(8.45928 0 -1.62718)
(8.84199 -3.68054e-18 -1.69994)
(9.04891 -3.6087e-18 -1.74006)
(9.44361 -3.53606e-18 -1.8154)
(9.64588 0 -1.85393)
(10.0261 -3.36853e-18 -1.91943)
(9.49557 0 -1.81578)
(-17.6426 0 -2.8859)
(-16.1659 0 -1.42553)
(-14.7117 -8.72737e-21 -0.488964)
(-13.3166 0 0.0842221)
(-12.0929 1.16199e-20 0.426211)
(-11.0253 -2.48797e-20 0.625689)
(-10.0968 0 0.73877)
(-9.28329 2.66916e-20 0.798366)
(-8.56445 -2.72897e-20 0.824348)
(-7.92361 -2.73504e-20 0.828804)
(-7.34757 -2.74981e-20 0.819292)
(-6.82588 2.72481e-20 0.800638)
(-6.35023 -2.70982e-20 0.775997)
(-5.91396 5.3318e-20 0.74747)
(-5.51166 0 0.716482)
(-5.13892 5.15767e-20 0.684017)
(-4.79206 0 0.650759)
(-4.46805 0 0.617186)
(-4.16432 0 0.583636)
(-3.87869 -4.68579e-20 0.550342)
(-3.60928 6.38785e-23 0.517463)
(-3.35449 5.54402e-23 0.485108)
(-3.1129 -4.29492e-20 0.453346)
(-2.88328 0 0.422222)
(-2.66455 0 0.391763)
(-2.45577 0 0.361985)
(-2.2561 -1.50627e-19 0.332892)
(-2.06483 4.57165e-23 0.304483)
(-1.8813 0 0.276749)
(-1.70491 0 0.249671)
(-1.53514 0 0.22323)
(-1.37148 0 0.197404)
(-1.21347 -1.20298e-19 0.172175)
(-1.06071 0 0.147525)
(-0.912794 1.10915e-19 0.123433)
(-0.769344 0 0.0998684)
(-0.629997 0 0.0767126)
(-0.494447 9.75883e-20 0.0539331)
(-0.362468 0 0.031546)
(-0.233838 0 0.00954983)
(-0.108391 -8.5268e-20 -0.0120794)
(0.0140898 1.62763e-19 -0.0332845)
(0.133774 0 -0.0541967)
(0.250813 1.47872e-19 -0.0747526)
(0.365388 0 -0.094992)
(0.477708 -2.67683e-19 -0.114937)
(0.587877 -1.32806e-23 -0.134572)
(0.695952 0 -0.153927)
(0.802139 0 -0.173035)
(0.90661 1.08314e-19 -0.191914)
(1.00949 2.04878e-19 -0.210583)
(1.11097 -3.87006e-19 -0.229066)
(1.21116 0 -0.247379)
(1.31018 -1.71961e-19 -0.265538)
(1.4082 -1.61701e-19 -0.283572)
(1.50535 -1.51885e-19 -0.301491)
(1.60165 -1.42387e-19 -0.31931)
(1.69739 0 -0.337069)
(1.79263 0 -0.354777)
(1.88742 -2.31907e-19 -0.372453)
(1.98218 -4.31135e-19 -0.390165)
(2.07688 -1.9986e-19 -0.407902)
(2.1717 -7.97237e-23 -0.425709)
(2.26697 1.70393e-19 -0.443627)
(2.36263 1.56552e-19 -0.461651)
(2.45891 0 -0.479824)
(2.55606 0 -0.498183)
(2.65395 2.36876e-19 -0.516712)
(2.75305 4.27401e-19 -0.535494)
(2.85332 0 -0.554519)
(2.95488 1.70373e-19 -0.573818)
(3.05822 1.50148e-19 -0.593477)
(3.16317 1.3078e-19 -0.613461)
(3.27023 2.25023e-19 -0.633878)
(3.37957 0 -0.654741)
(3.49116 0 -0.676054)
(3.60566 1.25645e-19 -0.697942)
(3.72275 -1.9214e-19 -0.72033)
(3.84292 -6.80651e-20 -0.743323)
(3.9662 0 -0.766913)
(4.09261 0 -0.791122)
(4.22276 0 -0.816059)
(4.35647 0 -0.841688)
(4.49439 0 -0.868138)
(4.63641 0 -0.89538)
(4.78297 1.74529e-19 -0.923504)
(4.9343 -3.02529e-22 -0.952549)
(5.09036 -2.39339e-19 -0.982509)
(5.2519 0 -1.01354)
(5.41877 -2.94706e-19 -1.04558)
(5.59128 -3.19283e-19 -1.07872)
(5.76995 0 -1.11305)
(5.95472 3.61408e-19 -1.14856)
(6.14594 7.59246e-19 -1.18531)
(6.34427 0 -1.22343)
(6.54911 0 -1.2628)
(6.76174 0 -1.30369)
(6.98193 8.68243e-19 -1.34603)
(7.21085 0 -1.39002)
(7.44533 0 -1.4351)
(7.69175 -9.15533e-19 -1.48249)
(7.94185 9.25678e-19 -1.53061)
(8.21061 0 -1.58231)
(8.47526 0 -1.63323)
(8.7715 0 -1.69021)
(9.04738 0 -1.74334)
(9.37902 0 -1.80707)
(9.66089 4.75908e-22 -1.86148)
(10.0364 0 -1.93344)
(10.3192 -1.84097e-18 -1.9884)
(10.748 3.64717e-18 -2.07016)
(11.0304 0 -2.12563)
(11.5167 -7.29699e-22 -2.2178)
(11.7971 0 -2.27311)
(12.3304 6.52687e-22 -2.37435)
(12.6185 0 -2.43028)
(13.1657 3.30608e-18 -2.53459)
(13.4521 0 -2.58908)
(13.9993 -3.14794e-18 -2.67936)
(13.4164 0 -2.56288)
(-18.1995 0 -3.45523)
(-17.2176 0 -2.18348)
(-16.094 0 -1.2157)
(-14.9145 0 -0.530143)
(-13.7946 -1.0978e-20 -0.0591626)
(-12.7602 -4.78626e-23 0.256719)
(-11.8212 0 0.466294)
(-10.9714 -2.5217e-20 0.602872)
(-10.2018 0 0.689347)
(-9.50201 5.15907e-20 0.741045)
(-8.86292 0 0.768341)
(-8.27636 -2.57417e-20 0.778318)
(-7.73546 0 0.775884)
(-7.23442 -5.03688e-20 0.764492)
(-6.76836 2.47253e-20 0.746604)
(-6.33318 -4.86066e-20 0.724008)
(-5.92538 4.75586e-20 0.698014)
(-5.54201 4.64908e-20 0.669592)
(-5.18053 0 0.639467)
(-4.83876 4.42605e-20 0.60818)
(-4.51481 4.30486e-20 0.576138)
(-4.20701 8.35774e-20 0.54365)
(-3.91391 4.05652e-20 0.51095)
(-3.63422 0 0.478218)
(-3.3668 0 0.445593)
(-3.11065 0 0.413184)
(-2.86489 7.10982e-20 0.381075)
(-2.62872 6.86268e-20 0.349328)
(-2.40144 0 0.317986)
(-2.18241 0 0.287074)
(-1.97104 -6.1374e-20 0.256607)
(-1.76676 0 0.226596)
(-1.5691 1.84355e-23 0.197048)
(-1.37756 1.09042e-19 0.167965)
(-1.19172 -1.04658e-19 0.139342)
(-1.01114 0 0.111163)
(-0.835411 0 0.0833542)
(-0.66417 -9.21116e-20 0.0558807)
(-0.497161 0 0.0287636)
(-0.334137 0 0.00200424)
(-0.174901 8.0468e-20 -0.0244099)
(-0.0192152 -1.5359e-19 -0.0504202)
(0.133124 0 -0.0761407)
(0.282298 -1.3952e-19 -0.101516)
(0.428511 0 -0.126581)
(0.572017 1.26268e-19 -0.151355)
(0.712948 1.19944e-19 -0.175808)
(0.851368 0 -0.199976)
(0.987507 1.07904e-19 -0.223899)
(1.12158 -1.02148e-19 -0.247591)
(1.25373 -3.86437e-19 -0.271075)
(1.38417 1.82474e-19 -0.294373)
(1.51307 -1.72155e-19 -0.317499)
(1.64054 -4.2004e-23 -0.340474)
(1.7668 0 -0.363327)
(1.892 1.43159e-19 -0.386066)
(2.01619 1.34193e-19 -0.408713)
(2.13967 -1.256e-19 -0.431315)
(2.26258 1.17283e-19 -0.453876)
(2.38495 2.18491e-19 -0.47643)
(2.50729 2.03112e-19 -0.499054)
(2.62959 -1.88412e-19 -0.52173)
(2.75208 1.74152e-19 -0.544524)
(2.87515 0 -0.567472)
(2.99874 0 -0.590574)
(3.12315 1.35055e-19 -0.613887)
(3.24866 0 -0.637442)
(3.37515 0 -0.661234)
(3.50317 -2.0118e-19 -0.685358)
(3.6327 0 -0.709799)
(3.76388 -1.60295e-19 -0.734607)
(3.89733 -2.82618e-19 -0.759881)
(4.03283 0 -0.785579)
(4.17104 -1.05868e-19 -0.811843)
(4.31214 0 -0.838678)
(4.45611 0 -0.866097)
(4.60379 -1.18528e-19 -0.894255)
(4.75479 9.03935e-20 -0.923049)
(4.90969 -1.98974e-22 -0.95262)
(5.06854 0 -0.982951)
(5.23139 0 -1.01407)
(5.39898 0 -1.04613)
(5.5711 2.71581e-20 -1.07906)
(5.74857 -4.6612e-20 -1.11305)
(5.93125 0 -1.14804)
(6.11968 -3.27358e-19 -1.18416)
(6.31418 -1.95341e-19 -1.22145)
(6.51467 4.48912e-19 -1.25989)
(6.72211 2.51309e-19 -1.2997)
(6.93632 5.5267e-19 -1.34079)
(7.15767 0 -1.38329)
(7.38681 0 -1.42728)
(7.62369 -3.38878e-19 -1.47275)
(7.86869 -7.11801e-19 -1.51981)
(8.1227 7.41778e-19 -1.5686)
(8.38491 0 -1.61895)
(8.65695 0 -1.67124)
(8.93852 -8.13487e-19 -1.72535)
(9.2311 -8.30596e-19 -1.78152)
(9.53063 0 -1.83907)
(9.84522 8.57415e-19 -1.89953)
(10.1642 -8.66792e-19 -1.96089)
(10.507 0 -2.02676)
(10.8436 0 -2.09156)
(11.2216 0 -2.16416)
(11.5708 0 -2.23147)
(11.9951 0 -2.31283)
(12.3484 1.74826e-18 -2.38117)
(12.8316 0 -2.47349)
(13.1805 0 -2.54162)
(13.7346 0 -2.64688)
(14.0786 -3.36491e-18 -2.71491)
(14.7046 -3.32518e-18 -2.83305)
(15.0499 0 -2.90156)
(15.7262 3.21722e-18 -3.02955)
(16.0908 0 -3.10033)
(16.7791 3.08915e-18 -3.23117)
(17.1463 0 -3.30104)
(17.8528 2.94186e-18 -3.41238)
(17.2993 0 -3.29956)
(-18.2577 8.23224e-21 -3.91044)
(-17.6224 8.75896e-21 -2.82116)
(-16.7917 -9.4431e-21 -1.90277)
(-15.8531 -1.013e-20 -1.17747)
(-14.8948 0 -0.627335)
(-13.9609 1.11082e-20 -0.221731)
(-13.0756 0 0.0732725)
(-12.2474 -2.37764e-20 0.285257)
(-11.4772 -2.41053e-20 0.435861)
(-10.7621 -4.85522e-20 0.54107)
(-10.0977 2.42679e-20 0.612593)
(-9.47901 -2.41537e-20 0.658946)
(-8.9015 0 0.686351)
(-8.36086 0 0.699383)
(-7.85327 -2.33226e-20 0.70144)
(-7.37536 4.41402e-23 0.695075)
(-6.92418 -8.04315e-23 0.68222)
(-6.49714 -7.25673e-23 0.664355)
(-6.09198 0 0.642618)
(-5.70671 0 0.61789)
(-5.33959 0 0.590858)
(-4.98905 -7.87317e-20 0.562063)
(-4.65371 -3.81759e-20 0.531933)
(-4.33234 0 0.50081)
(-4.02385 0 0.468974)
(-3.72724 -6.92919e-20 0.436649)
(-3.44166 0 0.404017)
(-3.1663 0 0.371226)
(-2.90047 0 0.338384)
(-2.64351 0 0.305578)
(-2.39482 2.44805e-23 0.272873)
(-2.15384 0 0.240323)
(-1.92006 1.70608e-23 0.207974)
(-1.69299 -1.02799e-19 0.175859)
(-1.47216 2.25703e-23 0.143998)
(-1.25714 0 0.112394)
(-1.04747 0 0.0810148)
(-0.842765 0 0.0498403)
(-0.642759 0 0.0189099)
(-0.44719 0 -0.011759)
(-0.255842 0 -0.0421649)
(-0.0684703 0 -0.0722482)
(0.115153 1.3801e-19 -0.102088)
(0.295226 1.31476e-19 -0.131657)
(0.471968 0 -0.160967)
(0.645668 1.18984e-19 -0.190037)
(0.816481 0 -0.218814)
(0.984467 0 -0.24734)
(1.14987 -2.03292e-19 -0.27566)
(1.31294 0 -0.303784)
(1.47383 1.81987e-19 -0.33173)
(1.63279 0 -0.359521)
(1.79 3.24253e-19 -0.387163)
(1.94559 -4.2867e-23 -0.414683)
(2.09979 0 -0.442106)
(2.25279 0 -0.469436)
(2.40464 0 -0.496703)
(2.5557 2.36475e-19 -0.523957)
(2.70613 -2.20798e-19 -0.551197)
(2.85596 -2.05769e-19 -0.578471)
(3.00578 -1.91276e-19 -0.605862)
(3.1556 3.54612e-19 -0.633346)
(3.30569 1.63987e-19 -0.661009)
(3.45648 0 -0.688877)
(3.60796 0 -0.716957)
(3.76045 7.55213e-23 -0.745316)
(3.91427 0 -0.77398)
(4.06933 0 -0.802954)
(4.22621 -1.89399e-19 -0.832346)
(4.38493 0 -0.862129)
(4.54568 0 -0.892379)
(4.70914 2.65839e-19 -0.923201)
(4.87511 -1.15933e-19 -0.954551)
(5.04432 0 -0.986599)
(5.21705 0 -1.01934)
(5.39322 0 -1.0528)
(5.57387 1.11316e-19 -1.08716)
(5.75852 0 -1.12229)
(5.94787 1.20686e-19 -1.15836)
(6.14199 -3.70297e-20 -1.19536)
(6.3409 0 -1.23331)
(6.54553 0 -1.27239)
(6.75558 -2.54847e-20 -1.31253)
(6.97207 1.67551e-22 -1.35394)
(7.19481 -6.06253e-20 -1.39657)
(7.42445 1.53386e-19 -1.44055)
(7.66138 -1.82629e-19 -1.48593)
(7.90547 -2.10346e-19 -1.53271)
(8.15789 -2.35625e-19 -1.58113)
(8.41841 -2.63987e-22 -1.63108)
(8.68747 0 -1.68272)
(8.96582 2.99473e-19 -1.73614)
(9.25342 0 -1.79134)
(9.55069 0 -1.84843)
(9.85868 -6.94905e-19 -1.90757)
(10.1764 0 -1.96859)
(10.5058 0 -2.0319)
(10.8465 0 -2.09738)
(11.2003 7.77695e-19 -2.16529)
(11.5622 0 -2.23482)
(11.9421 8.01975e-19 -2.30781)
(12.3265 0 -2.38182)
(12.7399 0 -2.46124)
(13.1443 0 -2.53916)
(13.6002 0 -2.62664)
(14.0168 0 -2.70714)
(14.53 1.6411e-18 -2.80537)
(14.9464 1.63426e-18 -2.88624)
(15.5342 -1.62331e-18 -2.99822)
(15.9377 0 -3.07756)
(16.6143 0 -3.20566)
(17.0061 6.29099e-18 -3.28383)
(17.7657 0 -3.42679)
(18.1641 -3.05358e-18 -3.5063)
(18.9701 0 -3.65861)
(19.4034 -2.94586e-18 -3.7427)
(20.2146 -2.88675e-18 -3.89663)
(20.6553 0 -3.98064)
(21.5 2.74789e-18 -4.10895)
(21.0427 0 -4.01149)
(-18.0381 -7.75206e-21 -4.27368)
(-17.6296 -1.74387e-20 -3.34812)
(-17.0289 8.89452e-21 -2.51326)
(-16.3073 -4.78595e-22 -1.79913)
(-15.5222 -1.04338e-20 -1.21546)
(-14.718 0 -0.752782)
(-13.9232 0 -0.392729)
(-13.1543 2.23987e-20 -0.116279)
(-12.4196 4.54799e-20 0.0939253)
(-11.7222 -2.02731e-23 0.252221)
(-11.0624 -2.28618e-20 0.370043)
(-10.4387 2.2754e-20 0.456287)
(-9.84893 -2.25224e-20 0.517818)
(-9.29063 0 0.55992)
(-8.76132 0 0.586669)
(-8.25863 2.15289e-20 0.601226)
(-7.78033 -8.42994e-20 0.606057)
(-7.32442 -8.24181e-20 0.603097)
(-6.88906 0 0.593871)
(-6.47261 0 0.579589)
(-6.07356 0 0.561217)
(-5.69058 3.98069e-23 0.539534)
(-5.32245 7.18791e-20 0.51517)
(-4.96807 -3.48178e-20 0.488642)
(-4.62645 -6.74218e-20 0.460377)
(-4.2967 1.30472e-19 0.43073)
(-3.97801 -6.3013e-20 0.399993)
(-3.66966 -6.0832e-20 0.368405)
(-3.37095 -5.86743e-20 0.336157)
(-3.08129 0 0.303405)
(-2.8001 5.44683e-20 0.270276)
(-2.52685 -5.23819e-20 0.236876)
(-2.26104 5.03714e-20 0.203298)
(-2.00218 9.67385e-20 0.169614)
(-1.74983 1.85719e-19 0.135879)
(-1.50354 0 0.102123)
(-1.26286 0 0.0683481)
(-1.02741 8.17048e-20 0.0345649)
(-0.79691 0 0.000839827)
(-0.571099 -7.47268e-20 -0.0327873)
(-0.349758 -7.13753e-20 -0.066297)
(-0.132644 0 -0.0996284)
(0.080478 -2.59785e-19 -0.132815)
(0.289813 -1.23733e-19 -0.165863)
(0.49559 0 -0.198755)
(0.698118 -1.11964e-19 -0.231506)
(0.897569 -1.06363e-19 -0.264033)
(1.094 0 -0.296383)
(1.28765 1.91297e-19 -0.328606)
(1.47878 -9.05629e-20 -0.360701)
(1.66758 -1.71273e-19 -0.392685)
(1.85429 0 -0.424573)
(2.03911 4.30094e-23 -0.456365)
(2.22218 2.87307e-19 -0.488087)
(2.40375 0 -0.519763)
(2.58404 0 -0.551389)
(2.7631 -1.18893e-19 -0.582999)
(2.94129 -1.11187e-19 -0.61465)
(3.11884 2.07659e-19 -0.646329)
(3.29578 1.9343e-19 -0.678103)
(3.47274 1.7979e-19 -0.710057)
(3.64976 -1.66682e-19 -0.742155)
(3.82716 -3.08304e-19 -0.774507)
(4.00539 0 -0.807125)
(4.18447 0 -0.840022)
(4.36477 -2.3887e-19 -0.873276)
(4.54662 0 -0.906899)
(4.72996 0 -0.940916)
(4.91543 1.77887e-19 -0.975436)
(5.10305 0 -1.01043)
(5.29305 -1.41841e-19 -1.04599)
(5.48618 1.28461e-22 -1.08223)
(5.68226 1.08839e-19 -1.1191)
(5.88209 0 -1.1568)
(6.08601 0 -1.19532)
(6.29393 0 -1.23468)
(6.50703 1.04877e-19 -1.2751)
(6.72479 0 -1.31642)
(6.94797 -5.6706e-20 -1.35884)
(7.17671 6.96662e-20 -1.40232)
(7.41095 0 -1.44693)
(7.65183 0 -1.49285)
(7.89895 0 -1.54)
(8.15349 1.67823e-22 -1.58864)
(8.41525 5.68345e-20 -1.63866)
(8.68494 1.43176e-19 -1.69026)
(8.96303 1.71167e-19 -1.74347)
(9.24936 -1.96565e-19 -1.7983)
(9.54524 0 -1.85502)
(9.85042 -2.42343e-19 -1.91349)
(10.1654 0 -1.97391)
(10.491 -2.80505e-19 -2.03637)
(10.8272 0 -2.10086)
(11.1743 0 -2.16751)
(11.5337 0 -2.23649)
(11.9042 6.73423e-19 -2.30761)
(12.2879 6.94063e-19 -2.38135)
(12.6843 0 -2.45753)
(13.0957 -7.27142e-19 -2.53644)
(13.516 7.39901e-19 -2.61718)
(13.9568 -7.50387e-19 -2.70186)
(14.4019 7.58141e-19 -2.78758)
(14.8809 0 -2.87952)
(15.3468 0 -2.96941)
(15.875 0 -3.07062)
(16.351 0 -3.16281)
(16.9475 -1.53457e-18 -3.27667)
(17.4157 -4.56551e-22 -3.36809)
(18.1029 3.03486e-18 -3.49846)
(18.5463 0 -3.5864)
(19.3395 0 -3.73591)
(19.7624 -2.9396e-18 -3.82123)
(20.6448 0 -3.98675)
(21.0824 2.85358e-18 -4.07459)
(21.9986 0 -4.24744)
(22.4894 5.50439e-18 -4.34262)
(23.3992 0 -4.51484)
(23.9013 0 -4.61078)
(24.8527 -2.56695e-18 -4.74937)
(24.5352 0 -4.67591)
(-17.6603 0 -4.5692)
(-17.3966 8.64429e-21 -3.78297)
(-16.9651 0 -3.04066)
(-16.4202 9.42767e-21 -2.3678)
(-15.7942 1.99785e-20 -1.78502)
(-15.1234 0 -1.29561)
(-14.4339 -1.05693e-20 -0.893541)
(-13.7447 0 -0.568396)
(-13.0681 1.20764e-22 -0.308413)
(-12.4113 4.31145e-20 -0.102414)
(-11.7781 0 0.0594429)
(-11.1701 0 0.185431)
(-10.5874 2.11921e-20 0.282335)
(-10.0294 0 0.355641)
(-9.49495 0 0.409759)
(-8.98286 0 0.448227)
(-8.4917 3.96286e-20 0.473885)
(-8.02013 3.8745e-20 0.489018)
(-7.56683 3.77691e-20 0.495471)
(-7.13056 0 0.494737)
(-6.71016 0 0.488032)
(-6.30457 3.48269e-20 0.476353)
(-5.91278 -3.37951e-20 0.460525)
(-5.53389 3.27557e-20 0.441233)
(-5.16707 6.34273e-20 0.419051)
(-4.81154 -1.2265e-19 0.394462)
(-4.46661 3.8285e-23 0.36787)
(-4.13163 5.72235e-20 0.339612)
(-3.80601 5.51923e-20 0.309965)
(-3.48919 0 0.279159)
(-3.18066 0 0.247386)
(-2.87993 4.92687e-20 0.214814)
(-2.58655 0 0.181585)
(-2.30007 -9.09831e-20 0.147816)
(-2.02007 -8.73219e-20 0.113602)
(-1.74613 8.37268e-20 0.0790055)
(-1.47781 0 0.0440696)
(-1.21475 -7.68322e-20 0.00883609)
(-0.956671 -7.35001e-20 -0.0265953)
(-0.703339 2.40082e-24 -0.0621585)
(-0.454538 1.3422e-19 -0.0978116)
(-0.210036 0 -0.133485)
(0.0303966 1.22122e-19 -0.169184)
(0.266963 0 -0.204915)
(0.499895 0 -0.240646)
(0.729507 0 -0.276388)
(0.955986 -1.63278e-23 -0.312014)
(1.17936 0 -0.347578)
(1.39988 -8.99047e-20 -0.383131)
(1.61781 1.70242e-19 -0.418663)
(1.83333 1.60952e-19 -0.454182)
(2.0467 0 -0.489699)
(2.25811 -1.43343e-19 -0.525199)
(2.46774 -2.70028e-19 -0.560709)
(2.67581 0 -0.59625)
(2.88256 0 -0.631805)
(3.08807 1.11685e-19 -0.667417)
(3.29269 1.04523e-19 -0.703142)
(3.4967 -9.75403e-20 -0.738957)
(3.70011 -1.81828e-19 -0.774947)
(3.90361 0 -0.811195)
(4.10724 0 -0.847654)
(4.31139 -8.18188e-23 -0.884459)
(4.51649 -1.33511e-19 -0.921595)
(4.72264 0 -0.95909)
(4.93021 1.12149e-19 -0.997029)
(5.13954 0 -1.0354)
(5.35063 0 -1.07426)
(5.56413 0 -1.11372)
(5.78007 0 -1.15372)
(5.99873 -1.32937e-22 -1.19441)
(6.22093 1.28972e-22 -1.23588)
(6.44646 -1.02341e-19 -1.27808)
(6.67621 0 -1.32124)
(6.91058 -7.44153e-20 -1.36534)
(7.14945 0 -1.41041)
(7.39413 -9.83431e-20 -1.45668)
(7.64409 7.5434e-20 -1.50396)
(7.90011 -5.3555e-20 -1.5525)
(8.16241 -3.27442e-20 -1.60224)
(8.43086 0 -1.65325)
(8.70675 -4.75827e-21 -1.70575)
(8.98961 0 -1.75963)
(9.28077 3.81167e-20 -1.81517)
(9.57998 5.29353e-20 -1.87228)
(9.88802 -1.34127e-19 -1.93115)
(10.2054 0 -1.99183)
(10.532 3.67918e-19 -2.05431)
(10.8691 0 -2.11889)
(11.2166 -2.26418e-19 -2.18542)
(11.575 0 -2.25412)
(11.945 -2.62137e-19 -2.32506)
(12.3267 0 -2.39826)
(12.7205 -5.82934e-19 -2.47385)
(13.1278 6.07746e-19 -2.55199)
(13.5472 -6.30187e-19 -2.63247)
(13.9809 -6.49435e-19 -2.71581)
(14.4284 0 -2.80181)
(14.8924 1.36014e-18 -2.89078)
(15.3657 -1.3839e-18 -2.9817)
(15.8618 0 -3.07695)
(16.361 -7.09042e-19 -3.17314)
(16.8988 0 -3.27631)
(17.4182 0 -3.37668)
(18.0114 1.43756e-18 -3.49012)
(18.5361 0 -3.59214)
(19.2081 0 -3.71997)
(19.7145 -1.42787e-18 -3.81954)
(20.4932 -2.83572e-18 -3.96652)
(20.9591 -1.40503e-18 -4.06009)
(21.8591 0 -4.22889)
(22.295 0 -4.31806)
(23.284 0 -4.50302)
(23.7457 0 -4.5962)
(24.7467 -2.62276e-18 -4.7849)
(25.2811 -2.57077e-18 -4.88839)
(26.2607 0 -5.07339)
(26.8074 0 -5.17812)
(27.8283 0 -5.321)
(27.6654 0 -5.27432)
(-17.1951 -9.63074e-21 -4.81687)
(-17.0226 0 -4.14621)
(-16.7107 -9.67037e-21 -3.49305)
(-16.3013 0 -2.87569)
(-15.8093 -9.55053e-21 -2.31626)
(-15.2608 0 -1.82416)
(-14.6766 9.93416e-21 -1.40137)
(-14.0744 -2.0362e-20 -1.04443)
(-13.4674 -4.0672e-20 -0.747065)
(-12.8648 1.06544e-22 -0.501836)
(-12.2727 0 -0.301294)
(-11.6949 0 -0.138557)
(-11.1335 0 -0.00755556)
(-10.5895 0 0.0969048)
(-10.063 0 0.179198)
(-9.55398 0 0.242969)
(-9.06175 -3.71741e-20 0.291237)
(-8.58568 3.63409e-20 0.3265)
(-8.12498 -3.54989e-20 0.350819)
(-7.67888 0 0.365903)
(-7.24656 0 0.373166)
(-6.82726 -3.26702e-20 0.373791)
(-6.42024 -3.17053e-20 0.368768)
(-6.02479 -3.07334e-20 0.358932)
(-5.64027 0 0.344992)
(-5.26606 5.7611e-20 0.32755)
(-4.90157 1.11304e-19 0.307116)
(-4.54629 -5.37127e-20 0.284121)
(-4.1997 0 0.258927)
(-3.86133 0 0.231838)
(-3.53075 0 0.203114)
(-3.20754 -4.62613e-20 0.172983)
(-2.89128 0 0.141639)
(-2.5816 0 0.109248)
(-2.27811 -8.20067e-20 0.0759431)
(-1.98043 -7.86626e-20 0.0418278)
(-1.68817 0 0.0069839)
(-1.40097 -7.21651e-20 -0.0285116)
(-1.11859 1.3809e-19 -0.0645234)
(-0.840821 6.60026e-20 -0.100956)
(-0.567455 -6.30392e-20 -0.137743)
(-0.298284 0 -0.174802)
(-0.0330971 0 -0.212113)
(0.228304 0 -0.249669)
(0.486139 -1.04003e-19 -0.287436)
(0.74073 0 -0.32541)
(0.992263 9.39032e-20 -0.363416)
(1.24074 8.9112e-20 -0.401513)
(1.48639 0 -0.439754)
(1.72949 -7.9934e-20 -0.478116)
(1.97021 0 -0.516597)
(2.2088 0 -0.555199)
(2.44546 -1.34654e-19 -0.593896)
(2.68037 -4.41051e-23 -0.632709)
(2.91374 1.1924e-19 -0.671654)
(3.14582 0 -0.710704)
(3.37671 0 -0.749906)
(3.60674 -9.80957e-20 -0.789316)
(3.83622 0 -0.828898)
(4.06519 1.70625e-19 -0.868753)
(4.29433 0 -0.908962)
(4.5237 0 -0.949464)
(4.75375 2.71891e-19 -0.990415)
(4.98488 2.50579e-19 -1.03178)
(5.21724 1.15117e-19 -1.07359)
(5.45125 0 -1.11593)
(5.68723 0 -1.15879)
(5.92522 8.70259e-20 -1.20223)
(6.16589 1.56943e-19 -1.24636)
(6.40929 0 -1.29112)
(6.65571 1.24904e-19 -1.33667)
(6.90601 -1.10055e-19 -1.38311)
(7.16003 9.59382e-20 -1.43038)
(7.41865 -8.26226e-20 -1.47875)
(7.68238 6.97474e-20 -1.52814)
(7.95104 0 -1.57864)
(8.22605 0 -1.63047)
(8.50689 -7.06831e-20 -1.68343)
(8.79435 1.00558e-19 -1.73777)
(9.08873 0 -1.79344)
(9.38979 0 -1.8505)
(9.69897 4.45693e-21 -1.90921)
(10.0157 0 -1.96944)
(10.3415 0 -2.03149)
(10.6761 -4.95689e-20 -2.09524)
(11.0202 -1.24983e-19 -2.16092)