/*--------------------------------*- C++ -*----------------------------------*\
| =========                 |                                                 |
| \\      /  F ield         | OpenFOAM: The Open Source CFD Toolbox           |
|  \\    /   O peration     | Version:  2412                                  |
|   \\  /    A nd           | Website:  www.openfoam.com                      |
|    \\/     M anipulation  |                                                 |
\*---------------------------------------------------------------------------*/
FoamFile
{
    version     2.0;
    format      ascii;
    arch        "LSB;label=32;scalar=64";
    class       surfaceScalarField;
    location    "0.535";
    object      ddtCorrDdt0(phi);
}
// * * * * * * * * * * * * * * * * * * * * * * * * * * * * * * * * * * * * * //

dimensions      [0 3 -2 0 0 0 0];

oriented        oriented;

internalField   nonuniform List<scalar> 
24930
(
-0.00492987
-0.0043563
0.00387113
-0.0040596
0.000159037
-0.00767985
-0.00181271
-0.00833707
-0.00856869
0.00120142
-0.00880533
0.0140351
0.00170687
0.00838237
0.0170148
-0.0192729
0.0194029
-0.032813
-0.00365152
0.00519347
-0.045779
0.0559853
-0.0364646
0.0387865
0.0425375
-0.0533313
0.0945151
-0.0911022
0.00461725
0.00656644
-0.139449
0.134389
-0.119239
0.0973543
0.11098
-0.109794
0.281695
-0.227385
0.0844222
-0.0405397
-0.360015
0.295953
-0.502703
0.376978
0.024902
-0.0666406
1.00246
-0.575805
0.790951
-0.367082
-0.889679
0.402617
-1.70276
0.424908
0.333141
-0.115047
1.17619
-0.18207
0.092835
-0.0052063
-0.256715
0.0779076
-0.139363
-0.0082718
0.021995
-0.0522996
0.029332
-0.0052058
0.00174191
0.0289471
0.00200295
0.00873047
0.00644622
-0.0156617
-0.00164138
-0.0104392
-0.00967392
0.00438336
-0.00465947
0.00535046
0.0065997
-0.00226608
0.00874319
-0.0044926
-0.000361257
-0.000938661
-0.00789807
0.00101634
-0.0073198
-0.000220325
0.00342511
-0.00112299
0.00547863
-0.000430938
0.00116307
4.47832e-05
-0.00202846
-0.000325153
-0.00236665
-0.00029221
-0.000853226
0.000515071
0.00135452
0.000823859
0.00251171
5.46278e-05
0.00325291
-0.000546248
0.000214656
0.000304066
-0.00693199
0.00171704
-0.00774048
0.00144006
0.00209177
-0.000339245
0.00544491
-0.00112183
-0.000705164
0.000330491
-0.00459659
0.00204227
0.000372873
0.00129588
0.00425836
-0.00133088
0.0061107
-0.00242537
0.00600186
-0.000385091
-0.00340398
0.00268623
-0.0528912
0.00213484
-0.00709697
-0.00151281
0.010758
-0.00345694
0.0227138
-0.00124801
0.0187944
0.00308544
-0.0507321
0.00495981
-0.125385
0.00267589
0.0155572
0.00301723
0.0251963
0.00932169
0.000555358
0.0157383
-0.00797285
0.0145312
-0.00572265
0.00503263
-0.0372027
-0.0292435
0.0562905
-0.0723295
0.047219
-0.1054
-9.04366e-05
-0.0255684
-0.0856142
0.177607
-0.221575
0.0829711
0.0979789
-0.0148323
0.154569
0.0135456
-0.0158013
-0.0124247
-0.0895816
-0.0132659
-0.0262368
-0.011536
-0.0196129
-9.64354e-05
0.163123
0.0433856
0.108875
0.0786796
-0.0297928
0.088729
-0.0214849
0.0576411
0.0220943
0.0088899
0.0557654
-0.0279313
0.241138
-0.0510053
0.0818666
-0.0633301
-0.00481961
-0.0561828
-0.0248851
-0.0451278
-0.0163441
-0.0242348
-0.0149193
-0.0100035
-0.00729514
-0.00471579
-0.00261724
-0.00633653
-0.00249596
-0.0108479
0.000477842
-0.00857096
-0.00226776
0.00747518
-0.00269934
0.0285019
-0.0127492
0.0303574
-0.000481706
0.00367591
0.0255359
-0.0177844
0.00497013
-0.0146872
-0.00375578
-0.0108518
-0.0017655
-0.00652329
-0.00344257
-0.0045908
-0.00193375
-0.0027379
-0.00306634
-0.00136182
-0.00567467
-0.000494617
0.00167655
0.000767182
0.00707365
0.00303541
-0.00679439
-0.00226875
0.00515604
-0.0102463
-0.00185385
-0.0151929
-0.00566371
-0.0118272
-0.00785812
0.00437572
-0.000737607
0.0143673
0.00736827
-0.00386036
0.000824881
-0.0337962
-0.014036
-0.0247356
-0.00605535
0.0286842
0.0188096
0.0565922
0.0204455
0.00207872
-0.014781
-0.0802275
-0.0405317
-0.0683744
-0.00386971
0.0550793
0.0615269
0.14194
0.0396989
0.0331105
-0.0798137
-0.170272
-0.109024
-0.187493
0.112308
0.0768778
0.311419
0.339388
-0.0813403
0.222182
-0.981076
-0.248737
-0.231815
-0.491543
1.57423
-0.0928238
1.16334
0.450487
-1.54534
0.266418
-0.393849
-0.21773
0.763467
-0.146822
-0.691482
0.0489655
-0.376464
0.0736722
0.0268871
-0.0289958
0.0251723
-0.051278
-0.0659761
0.00560298
0.00902565
0.0303062
0.0738237
0.00321024
0.0151522
-0.0179899
-0.0457612
-0.00850014
-0.0232493
0.00578145
0.0207077
0.00442373
0.0186463
-0.00362579
-0.00779582
-0.00498708
-0.0129697
-0.0012071
0.00133025
0.000214589
0.00746707
-0.00137813
0.00102921
-0.00221591
-0.00351446
-0.00146275
-8.35415e-05
-0.00105951
0.00300448
-0.0014168
0.000483013
-0.00116094
-0.00226387
-0.000115675
-0.000394389
0.000292976
0.00249752
-0.000360373
0.00170978
-0.000622424
-0.00124287
0.00064811
-0.00418825
0.00219268
-0.00126206
0.0018029
0.00401173
-0.000209018
0.00257485
-0.00127712
-0.00292025
-6.66802e-05
-0.00409957
0.00135881
0.00124873
0.0001872
0.00569378
-0.00273754
0.00341472
-0.00370954
-0.00244935
-0.000857785
-0.00323916
0.0023245
-0.0126896
0.00169816
0.00782589
-0.00235765
0.00683565
-0.00455734
-0.00152891
-0.00161671
0.00159644
0.00433401
-0.00548408
0.0084726
-0.0835062
0.011162
0.000552349
0.0181594
-0.0126786
0.0324735
-0.0229992
0.0422041
-0.0095495
0.0361771
0.0176284
0.00682821
-0.0291203
-0.0853598
0.131075
-0.229754
0.184023
-0.365001
0.163134
-0.0635073
-0.394759
0.567267
-0.86136
0.312975
0.327455
-0.0274311
0.453667
0.0315575
-0.0557075
-0.0492071
0.120126
-0.0547104
-0.0034942
-0.0244689
-0.0611035
0.0242662
-0.0352134
0.167646
-0.174911
0.269563
-0.129388
0.28159
-0.024212
0.172278
0.129467
0.00698506
0.207182
-0.108138
0.399217
-0.173139
0.0974499
-0.204973
0.043112
-0.182918
-0.0350872
-0.144344
-0.0532293
-0.0859344
-0.0772655
-0.0366375
-0.0600104
-0.0200387
-0.0213699
-0.0248583
0.00409627
-0.035871
0.0138778
-0.0226215
-0.0151351
0.0361509
-0.0696347
0.0989572
-0.0833212
0.09265
0.00469473
0.00246639
0.118276
-0.0587133
0.0831454
-0.0515448
-0.00966441
-0.0331013
-0.0226829
-0.0203671
-0.017365
-0.0146507
-0.00675811
-0.00840949
-0.00734607
-0.00340905
-0.00712498
0.000452988
-0.00530189
0.00188949
-0.00193121
0.00837936
-0.00613848
-0.000820334
0.00485753
-0.0121971
-0.00217129
-0.0187626
-0.00693103
-0.0124987
-0.00754148
0.00564657
-0.000326898
0.0113917
0.00447279
-0.0121599
-0.00368187
-0.0377367
-0.0132674
-0.0186193
-0.00161953
0.0364137
0.0217573
0.0513022
0.0155342
-0.0157068
-0.02752
-0.0892262
-0.0472978
-0.0504886
0.0140123
0.0840276
0.092607
0.136342
0.0398909
-0.0080005
-0.140833
-0.193427
-0.176784
-0.139887
0.152996
0.156706
0.513808
0.321196
0.123007
0.00915941
-1.16398
-0.396867
-1.35532
-0.255067
0.764541
0.258203
2.25181
0.340025
-0.348706
0.0523888
-1.36046
-0.27607
0.504374
-0.0922415
-0.886789
0.0999526
-0.278366
0.064993
0.186625
-0.0446533
0.0165511
-0.0484272
-0.0991322
0.0131669
0.02542
0.0302935
0.0922014
-0.000250727
0.00469416
-0.0185342
-0.0599047
-0.00659307
-0.0203316
0.00696062
0.0296536
0.00421365
0.0184511
-0.0039397
-0.0140028
-0.0048101
-0.0148012
-0.00105777
0.00477628
-3.89124e-05
0.0102385
-0.00189433
0.000172719
-0.00274562
-0.00490677
-0.00202658
0.000423986
-0.00174564
0.00436373
-0.00213454
0.00107424
-0.00173123
-0.00239658
-0.000499778
-0.000599905
9.73173e-06
0.00217128
-0.00057382
0.000729198
-0.000587206
-0.00225494
0.00103432
-0.00321901
0.00271078
0.000113242
0.00217931
0.0039064
-0.000176028
0.00200286
-0.00161736
-0.00256568
-0.00075477
-0.00259142
0.00033524
0.00295519
-0.00131567
0.00641276
-0.00455275
0.00213434
-0.00533154
-0.00414379
-0.0018191
-0.00243269
0.00185043
-0.00405461
0.00119019
0.0101125
-0.00320037
0.00626602
-0.00551853
-0.00389179
-0.0018869
0.000769909
0.00593784
-0.000227862
0.0129003
-0.0225397
0.0209671
-0.0126403
0.0351777
-0.0333296
0.0566365
-0.0436177
0.067072
-0.0149614
0.0525654
0.041374
0.00288982
0.03062
-0.133985
0.264485
-0.382751
0.431117
-0.62715
0.404567
-0.113786
-0.921363
0.942281
-1.9339
0.57933
0.682497
-0.0135276
1.05036
0.0494332
-0.10032
-0.0852163
0.265377
-0.0998314
0.00450323
-0.0335956
-0.141983
0.0657808
-0.0836583
0.320401
-0.435152
0.482995
-0.289664
0.471271
-0.0139826
0.263956
0.332657
-0.0221452
0.488313
-0.204635
0.441172
-0.299288
0.192765
-0.345452
0.0906914
-0.307826
-0.0732983
-0.244718
-0.116819
-0.145252
-0.1763
-0.0644382
-0.140472
-0.0370289
-0.0492995
-0.0458854
0.0125503
-0.0609096
0.0288358
-0.0301054
-0.0458195
0.0749718
-0.178007
0.175589
-0.184524
0.145771
0.0351277
-0.00642342
0.272034
-0.102205
0.180389
-0.0867969
-0.0249871
-0.0553683
-0.0545567
-0.0338427
-0.0387236
-0.0238004
-0.0160403
-0.0123538
-0.0182418
-0.00380389
-0.0160141
0.00272536
-0.0125255
0.00252692
-0.0019181
0.020725
-0.00586744
-0.000481428
0.00512187
-0.0131873
-0.00220474
-0.0199574
-0.00698748
-0.0118557
-0.00715199
0.00592868
-0.000984238
0.00725221
0.00172841
-0.0186952
-0.00540543
-0.0390034
-0.0104443
-0.0135338
0.000843835
0.0383014
0.0159155
0.042968
0.00481931
-0.026416
-0.0278701
-0.0865414
-0.0294265
-0.0349826
0.0299713
0.0887466
0.0744536
0.114763
-0.00440577
-0.0303828
-0.147749
-0.176081
-0.104156
-0.0930719
0.221699
0.155954
0.427104
0.215853
-0.0650177
-0.0807679
-1.00886
-0.319795
-0.892608
-0.0487295
0.918293
0.384093
2.20005
0.206337
0.467494
-0.196806
-1.6406
-0.233791
0.414181
-0.0256344
-0.181287
0.14184
-0.0228747
0.0487005
0.295095
-0.0581148
-0.0166302
-0.043386
-0.112752
0.0193611
0.0443481
0.0287134
0.0915482
-0.00342672
-0.0116684
-0.0182304
-0.0645222
-0.00462199
-0.0121498
0.0076934
0.0343834
0.00382279
0.0144869
-0.00408371
-0.0184408
-0.00448602
-0.013888
-0.000922968
0.00802045
-0.000359876
0.0113151
-0.00237357
-0.000879834
-0.00316847
-0.00536092
-0.00248765
0.0013816
-0.00234045
0.00541131
-0.00273704
0.0013219
-0.00215131
-0.00258971
-0.000709899
-0.000853539
-8.71273e-05
0.00167697
-0.000578218
-0.00012397
-0.000355304
-0.00295089
0.00158451
-0.00281244
0.00338824
0.000611027
0.00268158
0.00361008
-8.10287e-05
0.00178837
-0.00195903
-0.00159672
-0.00149571
-0.000391378
-0.0008032
0.0050374
-0.00300112
0.00730322
-0.00658167
0.00125977
-0.0071302
-0.00507072
-0.00288503
-0.00156736
0.00140037
0.00107294
0.000779408
0.0115915
-0.00389667
0.00549157
-0.00623653
-0.00551264
-0.00182092
0.00168726
0.00796196
-0.000115172
0.0183976
-0.0139813
0.0322994
-0.0327776
0.0535876
-0.0609336
0.0813128
-0.0700142
0.0899772
-0.0181575
0.0632797
0.0742331
-0.00546944
0.0975036
-0.166477
0.417603
-0.518573
0.781265
-0.851063
0.73327
-0.189883
-1.5977
1.24295
-3.38512
0.871698
1.04604
0.023337
1.90521
0.067669
-0.124962
-0.119305
0.461787
-0.144383
0.022624
-0.0372744
-0.264343
0.127332
-0.335247
0.449248
-0.759998
0.710476
-0.548742
0.64889
0.0463291
0.324122
0.653022
-0.0802871
0.890294
-0.31449
0.59201
-0.422657
0.303323
-0.479329
0.148612
-0.429959
-0.12314
-0.343971
-0.203342
-0.207792
-0.312227
-0.0937071
-0.254388
-0.056071
-0.087571
-0.0691977
0.025338
-0.0850277
0.0447288
-0.0310326
-0.0997704
0.125183
-0.336264
0.256758
-0.317052
0.194437
0.0980814
-0.0227415
0.491071
-0.146864
0.306528
-0.121166
-0.0505194
-0.0769112
-0.099468
-0.0463465
-0.0692311
-0.0315223
-0.0300405
-0.0141909
-0.034931
-0.00244477
-0.0279032
0.006215
-0.0221629
0.00224482
0.00140258
0.0407606
-0.00649165
-0.000883348
0.00549457
-0.014286
-0.00254833
-0.0199695
-0.00660823
-0.01034
-0.00637117
0.00592718
-0.00132099
0.00305343
0.000211801
-0.0240619
-0.00567743
-0.0399474
-0.00886112
-0.0107602
-9.11561e-05
0.0373072
0.00950567
0.0353714
-0.000408861
-0.0322869
-0.021849
-0.0815219
-0.0151426
-0.0263931
0.030514
0.0829225
0.0479027
0.0953498
-0.0292426
-0.0332506
-0.121222
-0.141674
-0.0388461
-0.0632781
0.219225
0.113238
0.289738
0.114967
-0.151739
-0.091921
-0.671362
-0.162316
-0.281557
0.0992521
0.958572
0.298765
1.29303
0.0285988
-0.254543
-0.350861
-1.74048
-0.10999
-0.535626
0.0735809
0.235057
0.161161
-0.134398
0.0236421
0.183356
-0.0695398
-0.0615813
-0.036056
-0.121336
0.0243905
0.0583923
0.0259167
0.0819248
-0.00622266
-0.0256326
-0.0172043
-0.0631376
-0.0026675
-0.004083
0.0080137
0.0354828
0.00328924
0.00977424
-0.00407773
-0.0207022
-0.00406388
-0.0117154
-0.000849044
0.0104927
-0.000751295
0.011443
-0.00282788
-0.00167757
-0.00351243
-0.00510361
-0.00289
0.00251039
-0.0028979
0.00609166
-0.00328279
0.00119011
-0.0024832
-0.00294801
-0.000818367
-0.00113666
-8.59449e-05
0.00115612
-0.00047221
-0.000980569
-1.24043e-05
-0.00374271
0.00222497
-0.00295254
0.00414034
0.000758084
0.00321448
0.00357834
-1.15104e-05
0.00212742
-0.00237257
-3.95148e-07
-0.00234354
0.00243353
-0.00206926
0.00759596
-0.00492408
0.0087044
-0.0088884
0.000816514
-0.00918448
-0.00585351
-0.00415595
-0.00159518
0.000887941
0.00178046
0.000424375
0.0120985
-0.00446349
0.00471308
-0.00674073
-0.0064433
-0.00139742
0.00322068
0.0105594
-0.00406782
0.0248762
-0.0232052
0.04502
-0.0595637
0.0732896
-0.0948024
0.105825
-0.100514
0.109587
-0.0162605
0.0666948
0.11902
-0.0170154
0.17743
-0.173269
0.564955
-0.627517
1.2339
-0.987553
1.08894
-0.311678
-2.28971
1.37946
-5.09499
1.17149
1.24704
0.090113
2.99595
0.0869959
-0.100903
-0.15161
0.708565
-0.185927
0.0483017
-0.033537
-0.432242
0.215136
-0.609277
0.677792
-1.22244
0.945973
-0.814305
0.802644
0.187685
0.344413
1.10649
-0.168373
1.40213
-0.428477
0.846707
-0.536306
0.414797
-0.603433
0.216221
-0.546673
-0.181132
-0.443242
-0.307421
-0.270904
-0.483992
-0.12492
-0.39994
-0.0774054
-0.135668
-0.0943838
0.0417828
-0.107148
0.0573825
-0.0231154
-0.1838
0.185405
-0.54567
0.339976
-0.472146
0.234696
0.204155
-0.0447362
0.772311
-0.191626
0.454845
-0.1551
-0.0869616
-0.0978795
-0.1572
-0.0576816
-0.109241
-0.0376369
-0.0492094
-0.0139395
-0.0580993
0.000422465
-0.042706
0.0104856
-0.0329939
0.00111857
0.0106951
0.0703039
-0.00793574
-0.0014203
0.00600877
-0.0159054
-0.00309136
-0.019526
-0.00610139
-0.00822528
-0.00519859
0.00620236
-0.00102362
-0.000632412
-0.000463313
-0.028685
-0.00570995
-0.0411225
-0.0081752
-0.0094812
-0.00129606
0.0354049
0.00535621
0.0291247
-0.00265056
-0.0359633
-0.0167815
-0.0778651
-0.0076971
-0.0238798
0.0257448
0.0730821
0.0290452
0.0819587
-0.0361629
-0.024932
-0.0929823
-0.110297
-0.00976228
-0.0540587
0.174803
0.0591964
0.190038
0.0491108
-0.107228
-0.0544189
-0.3264
-0.0261682
0.0404965
0.153122
0.644564
0.16242
0.410913
-0.128055
-0.732865
-0.304361
-1.21597
-0.0367722
-0.114866
0.170295
0.669663
0.11386
0.357059
-0.00419602
-0.0617827
-0.0782238
-0.113844
-0.025655
-0.126165
0.0282995
0.0707188
0.0220155
0.0663763
-0.00864453
-0.0370073
-0.0155455
-0.0573965
-0.00076889
0.0036453
0.00794388
0.033765
0.00263448
0.00449829
-0.00392767
-0.0212559
-0.00355791
-0.0084916
-0.00085292
0.0123951
-0.00123067
0.0108224
-0.00327333
-0.00231392
-0.00380034
-0.0042877
-0.00326717
0.00375933
-0.00345645
0.00644874
-0.00380884
0.000758159
-0.00276377
-0.0034104
-0.000871583
-0.00148934
-4.26191e-05
0.000498585
-0.000328352
-0.001991
0.000371653
-0.00472877
0.00289818
-0.00340305
0.00490501
0.000759811
0.00371897
0.00374559
-1.25681e-05
0.00298058
-0.0028896
0.00226484
-0.00332451
0.00595567
-0.00415395
0.0116312
-0.0071015
0.00983696
-0.011504
0.000742315
-0.011556
-0.00676552
-0.00559865
-0.00248128
0.000299773
-0.000767236
9.32644e-05
0.0116198
-0.00493275
0.00363465
-0.00705293
-0.00734278
-0.00069625
0.0186364
0.0137071
-0.0098724
0.0323222
-0.0392185
0.0592062
-0.09375
0.0940691
-0.135157
0.129665
-0.133472
0.12501
-0.00562649
0.0628548
0.178627
-0.0293356
0.295434
-0.145216
0.672004
-0.702686
1.79017
-0.992942
1.37506
-0.513331
-2.78605
1.23522
-6.86288
1.44602
1.02956
0.183065
4.26994
0.109579
-0.00574864
-0.181483
1.00756
-0.222925
0.0802002
-0.017215
-0.653975
0.330101
-0.970118
0.911142
-1.80242
1.17855
-1.07885
0.921732
0.442301
0.320839
1.70241
-0.278725
2.00107
-0.537995
1.10587
-0.634488
0.515118
-0.715528
0.29767
-0.658916
-0.239145
-0.542762
-0.424307
-0.335626
-0.690503
-0.158767
-0.576311
-0.101555
-0.193483
-0.12124
0.0608963
-0.126418
0.0624176
-0.00656078
-0.303678
0.254637
-0.80752
0.423111
-0.641177
0.267695
0.360447
-0.070901
1.11286
-0.235331
0.620819
-0.187815
-0.134398
-0.118055
-0.227517
-0.0676643
-0.159426
-0.0420685
-0.0738707
-0.0116871
-0.0879327
0.00443446
-0.0592713
0.0152142
-0.0446282
-0.00104757
0.0268057
0.1107
-0.0100444
-0.00189181
0.00690714
-0.01801
-0.00361131
-0.018913
-0.00555817
-0.00575933
-0.00394305
0.00677209
-0.000488145
-0.00370435
-0.000830484
-0.0324335
-0.0056546
-0.0418919
-0.00744704
-0.00851187
-0.00161362
0.0334926
0.00316691
0.0239314
-0.00389419
-0.0388148
-0.0140468
-0.0761281
-0.00451531
-0.0254049
0.0213777
0.0620568
0.0191486
0.0731695
-0.0349508
-0.0125438
-0.0752335
-0.0850459
-0.00840855
-0.0559132
0.124521
0.0134443
0.140021
0.0159415
-0.0208636
-0.00761487
-0.102917
0.0535969
0.0960128
0.137049
0.243423
0.037284
-0.140798
-0.198031
-0.734955
-0.21321
-0.550544
0.0410613
0.385378
0.17996
0.778944
0.0903254
0.356721
-0.0424983
-0.169754
-0.0797703
-0.00661997
-0.0119414
-0.0598148
0.0304991
0.0817617
0.0171929
0.0466832
-0.0105427
-0.0444765
-0.0133729
-0.0485456
0.000912649
0.0100209
0.00747134
0.0295667
0.00192032
-0.000728373
-0.0036158
-0.0201556
-0.00299395
-0.00459676
-0.000942269
0.0136164
-0.00176873
0.00962604
-0.00367138
-0.00267159
-0.00400823
-0.00296589
-0.00360788
0.00503539
-0.0040048
0.00645865
-0.00430013
6.07755e-05
-0.0029811
-0.00393949
-0.000868963
-0.00190668
3.04102e-05
-0.000331439
-0.000169304
-0.00322707
0.0007706
-0.00592805
0.00357997
-0.00405963
0.00565518
0.000715153
0.00417319
0.00416433
-9.47035e-05
0.00436471
-0.00350725
0.00521751
-0.00441562
0.0102044
-0.00538793
0.0156856
-0.00949597
0.0123325
-0.0144138
0.00106791
-0.0142413
-0.00792372
-0.00738948
-0.00428788
-0.000370929
-0.00796363
-0.000253559
0.00983374
-0.00530537
0.00210815
-0.00743196
-0.0081573
0.000795228
0.000336733
0.0175603
-0.0184289
0.0408052
-0.0614282
0.0750857
-0.136008
0.115792
-0.181332
0.152313
-0.16672
0.135584
0.0175019
0.0507666
0.259289
-0.0368458
0.380495
-0.0761397
0.703006
-0.746095
2.45953
-0.873719
1.4991
-0.87084
-2.80588
0.701963
-8.45518
1.6528
0.072183
0.293602
5.6417
0.138363
0.172606
-0.208083
1.3618
-0.253581
0.115394
0.0154286
-0.939479
0.478225
-1.44255
1.1645
-2.4867
1.39596
-1.30709
0.990923
0.844931
0.255935
2.43222
-0.402373
2.65894
-0.63324
1.33965
-0.714872
0.600962
-0.816676
0.399799
-0.767445
-0.289951
-0.6444
-0.548104
-0.402832
-0.931335
-0.196061
-0.782507
-0.128967
-0.261188
-0.149604
0.0809091
-0.142251
0.0548846
0.0190791
-0.465053
0.330929
-1.12011
0.504118
-0.814875
0.293588
0.571929
-0.0990397
1.50752
-0.278278
0.801573
-0.219741
-0.192905
-0.137679
-0.310135
-0.0763632
-0.220488
-0.0450423
-0.104193
-0.00791086
-0.124518
0.00899762
-0.0767156
0.0198968
-0.0563738
-0.003931
0.0506129
0.163117
-0.0124483
-0.0023293
0.00811479
-0.020188
-0.00393729
-0.0181043
-0.00493725
-0.0032774
-0.00280553
0.00724445
-0.000107113
-0.00645064
-0.00125533
-0.0352547
-0.0055295
-0.0416908
-0.00630228
-0.00703237
-0.000931589
0.0320076
0.00219659
0.0196126
-0.00494066
-0.0410661
-0.0128573
-0.0755374
-0.00286942
-0.0292745
0.0190321
0.0503787
0.0148363
0.0661768
-0.0319372
-0.000264743
-0.0667259
-0.0645565
-0.0187875
-0.0589672
0.0822107
-0.018012
0.113889
0.00112169
0.0400263
0.0239104
-0.00837243
0.0816739
0.0284261
0.0916252
-0.0399678
-0.041042
-0.327218
-0.192611
-0.467226
-0.118214
-0.016012
0.0898101
0.613284
0.152021
0.646656
0.0442909
0.149655
-0.0758294
-0.277484
-0.0532154
-0.161059
0.00180983
0.00935208
0.030075
0.0820711
0.0117303
0.0226433
-0.0117907
-0.0470136
-0.0108607
-0.0380477
0.00219659
0.0140721
0.00661187
0.0232821
0.001229
-0.00531982
-0.00313442
-0.0175104
-0.00241576
-0.000443099
-0.00113184
0.0140555
-0.00233687
0.00805025
-0.00399128
-0.00260842
-0.00412896
-0.00117798
-0.00391902
0.0062589
-0.00454665
0.00612533
-0.00475602
-0.00083248
-0.00314013
-0.00447566
-0.000826275
-0.00237525
0.000108883
-0.00135668
-2.33461e-05
-0.00471794
0.00115613
-0.00733038
0.00424468
-0.00484486
0.006368
0.000690572
0.00456507
0.00486153
-0.000252063
0.00628652
-0.00419823
0.00886589
-0.00557871
0.015211
-0.00714552
0.0204948
-0.0120536
0.0155752
-0.017575
0.00185059
-0.0172551
-0.00933791
-0.00938903
-0.00728919
-0.00132585
1.07554e-05
-0.000609412
0.00687755
-0.00558602
1.88942e-05
-0.0073087
-0.00796275
0.00216519
-0.0035763
0.0221311
-0.0355104
0.0504544
-0.0899854
0.0950659
-0.189372
0.138324
-0.229946
0.173314
-0.197723
0.140806
0.056931
0.0332376
0.362851
-0.0335534
0.440578
0.0325759
0.62932
-0.770816
3.26316
-0.729116
1.45458
-1.49557
-2.0562
-0.255988
-9.7144
1.75142
-1.94159
0.406491
7.00053
0.176251
0.42663
-0.229874
1.77557
-0.27644
0.150996
0.0673398
-1.30009
0.65828
-2.0422
1.43199
-3.25754
1.585
-1.45652
1.00987
1.4175
0.160455
3.27634
-0.526618
3.3458
-0.709747
1.526
-0.779494
0.675171
-0.91032
0.530921
-0.874233
-0.327733
-0.749569
-0.673544
-0.475034
-1.20505
-0.23782
-1.01908
-0.160228
-0.339402
-0.179637
0.0996611
-0.154576
0.0296167
0.0531137
-0.672804
0.412574
-1.48028
0.581452
-0.984274
0.313874
0.840533
-0.12726
1.95079
-0.293066
0.968901
-0.250911
-0.23502
-0.157024
-0.404606
-0.0840689
-0.293153
-0.0470122
-0.140182
-0.00317875
-0.167789
0.013525
-0.0940002
0.024239
-0.0679859
-0.00716932
0.082009
0.228169
-0.0148259
-0.002698
0.00946429
-0.0220944
-0.00395413
-0.0170721
-0.00418208
-0.00105539
-0.00187568
0.00721785
-3.4971e-05
-0.00920741
-0.00183138
-0.0373144
-0.0053486
-0.040517
-0.00489753
-0.0049651
0.00022343
0.0310262
0.001769
0.0163663
-0.00582071
-0.0421203
-0.0121385
-0.0749567
-0.00146372
-0.0344448
0.0182376
0.0377001
0.0134229
0.0588371
-0.0283389
0.010282
-0.061843
-0.0466034
-0.0306806
-0.0588143
0.0474119
-0.0381382
0.0890569
-0.0105668
0.0597144
0.0314445
0.0124468
0.0747788
-0.0358808
0.050016
-0.147473
-0.0688917
-0.276825
-0.144468
-0.171053
-0.0435447
0.26111
0.100514
0.575784
0.104592
0.396226
-0.00075706
-0.0397515
-0.0738319
-0.268473
-0.0393957
-0.118844
0.0124568
0.0531392
0.0259937
0.0764758
0.00623127
-0.00546551
-0.0123555
-0.0461013
-0.00825595
-0.0280845
0.0029151
0.0150181
0.00543388
0.0155415
0.000658581
-0.00868483
-0.00249367
-0.0135599
-0.00187877
0.00349834
-0.00142794
0.0136653
-0.00289473
0.00635545
-0.00420223
-0.00196878
-0.00416409
0.00102081
-0.00421502
0.00735492
-0.00508894
0.00548384
-0.00517881
-0.0018236
-0.00325156
-0.0049527
-0.00076682
-0.00288456
0.00016313
-0.00259048
8.07156e-05
-0.00646538
0.00150257
-0.0089112
0.00487054
-0.00570903
0.00702895
0.000723676
0.0048945
0.00584298
-0.000462825
0.00872974
-0.00491546
0.0131927
-0.00674496
0.0209696
-0.00892268
0.0261006
-0.0146864
0.019622
-0.02092
0.00317444
-0.0205446
-0.01098
-0.0117597
-0.0117075
-0.00234097
-0.00330226
-0.00104423
0.00280658
-0.00576945
-0.00281292
-0.00693578
-0.00845618
0.00432308
-0.00831935
0.0272689
-0.0455598
0.0613928
-0.125419
0.106854
-0.244192
0.161427
-0.289903
0.192278
-0.223776
0.1403
0.116477
0.0134263
0.486319
-0.00925878
0.456164
0.167466
0.44594
-0.797274
4.22924
-0.735767
1.39142
-2.47709
-0.330963
-1.53388
-10.677
1.72308
-5.20445
0.500572
8.23807
0.225367
0.726286
-0.244541
2.25293
-0.289458
0.184382
0.142123
-1.74864
0.868776
-2.7764
1.70519
-4.09017
1.73386
-1.48115
0.984383
2.16426
0.0531379
4.20222
-0.642649
4.04157
-0.767815
1.65534
-0.83479
0.746897
-1.00215
0.698573
-0.980049
-0.351617
-0.859133
-0.795234
-0.555293
-1.50797
-0.285212
-1.28843
-0.195967
-0.429278
-0.211903
0.114912
-0.164005
-0.0185121
0.0946163
-0.931518
0.497437
-1.88387
0.654187
-1.14155
0.330673
1.16514
-0.15345
2.43715
-0.340943
1.15797
-0.281915
-0.294068
-0.176661
-0.510466
-0.0913225
-0.378156
-0.0486706
-0.181693
0.0017341
-0.217618
0.0174819
-0.110392
0.0281354
-0.0795699
-0.00986465
0.120051
0.305969
-0.0169863
-0.00291603
0.0109008
-0.0235293
-0.00370214
-0.015821
-0.00335723
0.000724836
-0.00118799
0.00650964
-0.000231412
-0.0120939
-0.00245481
-0.0388161
-0.00510223
-0.0388118
-0.00355027
-0.00286813
0.00121969
0.0302352
0.00134044
0.0144098
-0.00649945
-0.0412323
-0.0113262
-0.0733608
-8.68668e-06
-0.0401122
0.0182495
0.0239771
0.013816
0.0502573
-0.0232283
0.0186348
-0.0561836
-0.0301999
-0.0396802
-0.0552746
0.0179821
-0.0515901
0.0605079
-0.0249674
0.054985
0.0214408
0.0157636
0.0563285
-0.0475946
0.0278628
-0.130193
-0.0574697
-0.154861
-0.0869738
0.00720852
-0.000740269
0.292544
0.0802387
0.379544
0.0532061
0.145505
-0.0303359
-0.148133
-0.062713
-0.210855
-0.0234614
-0.0509648
0.0174534
0.072881
0.0202748
0.0588547
0.000321001
-0.0207703
-0.0120806
-0.0334723
-0.00583972
-0.016851
0.00295906
0.0127026
0.00406652
0.00730093
0.000299546
-0.0103486
-0.00173806
-0.00873426
-0.00144973
0.00674989
-0.00182538
0.0125088
-0.00339405
0.00486121
-0.0042816
-0.000620509
-0.00412983
0.0035415
-0.00452022
0.00825951
-0.00564322
0.00460896
-0.00557607
-0.00278723
-0.00333489
-0.00530367
-0.000723728
-0.00343209
0.000156312
-0.00404242
0.000111534
-0.00845502
0.00178585
-0.0106373
0.00544048
-0.0066181
0.00763226
0.000823179
0.00517507
0.00708193
-0.000686362
0.0116446
-0.00558829
0.0181459
-0.00781676
0.0274413
-0.0106009
0.0325127
-0.0172799
0.0245256
-0.0243578
0.00515062
-0.0240983
-0.0127091
-0.0144826
-0.0170184
-0.00379538
-0.00899234
-0.00157704
-0.00267435
-0.00587631
-0.00655492
-0.00625302
-0.0100938
0.00664227
-0.015046
0.0337256
-0.0634225
0.0738585
-0.16783
0.127215
-0.307578
0.184998
-0.352942
0.20889
-0.241957
0.134861
0.198846
-0.00340228
0.621935
0.0468756
0.398626
0.301173
0.18604
-0.843309
5.37642
-1.03331
1.58141
-3.75443
2.37536
-2.87248
-11.5774
1.58724
-9.66896
0.559427
9.28186
0.285847
1.02478
-0.248921
2.79484
-0.290029
0.213494
0.242107
-2.29762
1.10367
-3.64443
1.97404
-4.95567
1.83482
-1.33743
0.930894
3.06538
-0.0432861
5.17034
-0.747028
4.74549
-0.81468
1.72764
-0.89016
0.827389
-1.09837
0.907081
-1.08376
-0.368068
-0.972677
-0.907075
-0.648254
-1.83136
-0.33951
-1.59637
-0.236876
-0.532545
-0.247556
0.124884
-0.171968
-0.0943547
0.141798
-1.24543
0.583548
-2.32645
0.722048
-1.2806
0.346482
1.54187
-0.175634
2.96162
-0.377515
1.36143
-0.313737
-0.357888
-0.197268
-0.627567
-0.0988467
-0.476193
-0.0507944
-0.228527
0.00617396
-0.273995
0.0206621
-0.125581
0.0319845
-0.091869
-0.0108187
0.162927
0.396071
-0.0187598
-0.00298724
0.0123702
-0.0243899
-0.00333421
-0.0144437
-0.00258619
0.00192405
-0.000749633
0.00513832
-0.000587068
-0.0149817
-0.00297597
-0.0398417
-0.00475526
-0.037089
-0.00245923
-0.00148518
0.00170179
0.0291082
0.000639239
0.013676
-0.00701255
-0.0380725
-0.0103616
-0.0701373
0.00127755
-0.0455087
0.0184052
0.00978133
0.01544
0.0404983
-0.0160558
0.0246167
-0.0477577
-0.0155167
-0.0437755
-0.0494176
-0.00482246
-0.0605202
0.0340873
-0.0404718
0.0454311
0.00465922
0.0255073
0.0391263
-0.0211931
0.0223146
-0.0729485
-0.0319363
-0.0689609
-0.0431834
0.0443983
0.0115232
0.179951
0.0466502
0.156329
0.0114188
-0.0261712
-0.0422047
-0.16905
-0.0468118
-0.132933
-0.0102849
0.000740582
0.0167767
0.0678887
0.0128791
0.0310416
-0.00514582
-0.0306363
-0.0097252
-0.0338556
-0.00396077
-0.00918797
0.00226056
0.00778914
0.00266475
-0.000195729
0.000191812
-0.0100829
-0.000963329
-0.00366323
-0.00120063
0.00889899
-0.00230438
0.0107878
-0.00378512
0.00390978
-0.00422363
0.00150284
-0.00406094
0.00625222
-0.0048688
0.00892996
-0.00622524
0.00361755
-0.00596141
-0.00358189
-0.00341889
-0.00547359
-0.000738656
-0.00402877
4.7328e-05
-0.00572004
3.82756e-05
-0.0106625
0.00198634
-0.0124757
0.00594523
-0.00755896
0.00818368
0.000963842
0.00543637
0.00851292
-0.000861449
0.0149417
-0.00612201
0.0236332
-0.00867272
0.0345523
-0.0120402
0.039706
-0.0196931
0.0303314
-0.0277731
0.00792115
-0.0278373
-0.0142875
-0.0175061
-0.0230335
-0.00548366
-0.016616
-0.00230467
-0.00955115
-0.0059521
-0.011416
-0.0053096
-0.0131928
0.00976354
-0.0241457
0.0410194
-0.0873728
0.0879781
-0.217974
0.148549
-0.378801
0.208813
-0.41826
0.22296
-0.249386
0.125948
0.305071
-0.00985024
0.755934
0.147537
0.234102
0.397798
-0.0686721
-0.927116
6.70578
-1.5972
2.25358
-5.02386
5.78916
-3.92112
-12.697
1.40224
-14.9953
0.631972
10.0687
0.356505
1.32542
-0.239077
3.39718
-0.274414
0.2365
0.369166
-2.95755
1.34416
-4.62448
2.22816
-5.83364
1.87552
-0.979773
0.87179
4.06624
-0.104041
6.14044
-0.844857
5.48667
-0.862911
1.75094
-0.95566
0.925418
-1.20427
1.15601
-1.18244
-0.391768
-1.08992
-1.00031
-0.760004
-2.16012
-0.401918
-1.95357
-0.283574
-0.651519
-0.288419
0.129003
-0.181034
-0.202022
0.192287
-1.61895
0.66889
-2.80395
0.785505
-1.39779
0.364195
1.96441
-0.192782
3.52103
-0.412084
1.58234
-0.347166
-0.422896
-0.219628
-0.755759
-0.107448
-0.587934
-0.0541222
-0.280553
0.00964936
-0.337162
0.0232716
-0.139968
0.0367173
-0.106333
-0.00838337
0.208145
0.497717
-0.0200272
-0.00297011
0.0137545
-0.0246772
-0.00296843
-0.0131053
-0.00197188
0.00244801
-0.000549479
0.00324726
-0.000995409
-0.0176242
-0.00329119
-0.0403736
-0.00427692
-0.0357
-0.00163627
-0.00132581
0.00170046
0.0272362
-0.000257274
0.01387
-0.00736023
-0.0328556
-0.00944371
-0.0652067
0.0019516
-0.050048
0.0179914
-0.00408957
0.0174016
0.0299872
-0.00748512
0.0281715
-0.036518
-0.00280821
-0.0421081
-0.0415851
-0.0189534
-0.0644078
0.0147369
-0.0529386
0.0380425
-0.0115675
0.0377038
0.0251724
0.00927036
0.0218026
-0.0311104
-0.011625
-0.042336
-0.020888
0.00185092
0.00455494
0.0437752
0.0139338
0.000229485
-0.0139047
-0.0964282
-0.0404776
-0.131472
-0.030802
-0.0626503
-0.00258424
0.0263715
0.0121555
0.0479921
0.00508996
0.00716418
-0.00710016
-0.0309095
-0.00848313
-0.0263139
-0.00362655
-0.00653756
0.000916762
0.000648747
0.00139741
-0.00549825
0.000326892
-0.00820251
-0.000300496
0.000817452
-0.00119485
0.00971516
-0.00282978
0.00883093
-0.00402642
0.00380068
-0.00404759
0.00436048
-0.00401171
0.00898266
-0.00530195
0.00935769
-0.00685309
0.0026623
-0.00635423
-0.00407004
-0.003541
-0.00543469
-0.00085938
-0.00470291
-0.000205587
-0.00762859
-0.000166053
-0.0130576
0.00209131
-0.0144021
0.00638525
-0.00854692
0.00870207
0.00108102
0.00572501
0.0100278
-0.000906347
0.0184883
-0.0063995
0.0295198
-0.0091686
0.0421914
-0.0130811
0.0476248
-0.0217561
0.0370658