/*--------------------------------*- C++ -*----------------------------------*\
| =========                 |                                                 |
| \\      /  F ield         | OpenFOAM: The Open Source CFD Toolbox           |
|  \\    /   O peration     | Version:  2412                                  |
|   \\  /    A nd           | Website:  www.openfoam.com                      |
|    \\/     M anipulation  |                                                 |
\*---------------------------------------------------------------------------*/
FoamFile
{
    version     2.0;
    format      ascii;
    arch        "LSB;label=32;scalar=64";
    class       volVectorField;
    location    "0.14";
    object      U;
}
// * * * * * * * * * * * * * * * * * * * * * * * * * * * * * * * * * * * * * //

dimensions      [0 1 -1 0 0 0 0];

internalField   nonuniform List<vector> 
12600
(
(9.85251 6.29095e-22 1.40863)
(6.17515 9.40848e-21 0.17522)
(3.95525 1.04729e-20 -0.331167)
(2.87919 0 -0.422639)
(2.35871 1.00963e-20 -0.399497)
(2.04117 9.84595e-21 -0.360639)
(1.81511 0 -0.326483)
(1.6434 0 -0.298784)
(1.50736 -3.42314e-20 -0.276171)
(1.3962 0 -0.257329)
(1.30328 1.57964e-20 -0.241336)
(1.22421 1.51761e-20 -0.22756)
(1.15596 -1.45921e-20 -0.215549)
(1.09635 0 -0.204976)
(1.0438 -1.34899e-20 -0.195594)
(0.997094 0 -0.187214)
(0.955324 5.01459e-20 -0.179687)
(0.917768 0 -0.172896)
(0.883853 -2.32948e-20 -0.166746)
(0.853115 -2.24946e-20 -0.16116)
(0.825178 2.16999e-20 -0.156073)
(0.799728 1.8251e-23 -0.151432)
(0.776508 0 -0.147193)
(0.755301 -3.89784e-20 -0.143318)
(0.735924 0 -0.139775)
(0.71822 0 -0.136537)
(0.702055 -3.50491e-20 -0.133581)
(0.68731 0 -0.130885)
(0.673886 -1.41434e-23 -0.128432)
(0.661688 3.14826e-20 -0.126204)
(0.650635 3.03761e-20 -0.124186)
(0.640653 2.93049e-20 -0.122367)
(0.631661 -2.82677e-20 -0.120729)
(0.623599 -5.45262e-20 -0.119263)
(0.616399 -5.258e-20 -0.117956)
(0.609991 5.0706e-20 -0.116795)
(0.604339 0 -0.115775)
(0.599384 -4.70968e-20 -0.114886)
(0.595093 0 -0.114122)
(0.591446 4.37142e-20 -0.113481)
(0.588412 0 -0.112933)
(0.58595 -9.05651e-24 -0.112475)
(0.584123 0 -0.112174)
(0.582957 -6.44627e-24 -0.111983)
(0.58239 7.21748e-20 -0.111879)
(0.582378 -6.93762e-20 -0.111888)
(0.582959 6.66667e-20 -0.112018)
(0.58409 0 -0.112256)
(0.585829 0 -0.112614)
(0.588129 5.89973e-20 -0.113082)
(0.591053 1.13187e-19 -0.113672)
(0.594539 1.08533e-19 -0.114368)
(0.598675 7.26502e-25 -0.115191)
(0.603355 9.96825e-20 -0.116115)
(0.608712 0 -0.117167)
(0.614572 -9.14447e-20 -0.118309)
(0.621126 -8.75587e-20 -0.119578)
(0.628113 -8.38358e-20 -0.120921)
(0.635811 0 -0.122395)
(0.643845 0 -0.123926)
(0.65261 0 -0.125593)
(0.661578 1.4106e-19 -0.127296)
(0.671305 0 -0.129142)
(0.681075 0 -0.130996)
(0.691654 -2.48904e-19 -0.133002)
(0.70209 0 -0.134983)
(0.71341 0 -0.13713)
(0.724374 0 -0.139212)
(0.736332 2.13004e-19 -0.141482)
(0.747715 -2.05355e-19 -0.143647)
(0.760239 -1.98275e-19 -0.146026)
(0.77196 -1.14744e-23 -0.148258)
(0.785001 1.85396e-19 -0.150738)
(0.797011 0 -0.153029)
(0.81055 -1.74119e-19 -0.155607)
(0.82283 0 -0.157953)
(0.836872 0 -0.160629)
(0.849421 0 -0.16303)
(0.864004 -3.13454e-23 -0.165812)
(0.876838 -3.02441e-19 -0.168271)
(0.892048 -2.94952e-19 -0.171175)
(0.905162 2.87313e-19 -0.17369)
(0.921111 2.80473e-19 -0.176739)
(0.934507 0 -0.17931)
(0.951352 0 -0.182533)
(0.964962 -5.21154e-19 -0.185147)
(0.982855 1.01801e-18 -0.188575)
(0.996692 -9.93228e-19 -0.191234)
(1.01587 -4.84911e-19 -0.194911)
(1.02996 0 -0.197619)
(1.05049 9.23087e-19 -0.20156)
(1.0649 -4.49894e-19 -0.20433)
(1.087 4.38652e-19 -0.208576)
(1.10199 -8.54178e-19 -0.211457)
(1.12577 0 -0.216024)
(1.14119 0 -0.218988)
(1.1666 0 -0.223868)
(1.18224 0 -0.226882)
(1.20973 0 -0.232162)
(1.22567 0 -0.235241)
(1.25602 7.00515e-19 -0.241071)
(1.27229 1.35454e-18 -0.244216)
(1.30602 1.313e-18 -0.250697)
(1.3225 0 -0.253881)
(1.35985 0 -0.261059)
(1.37628 0 -0.264237)
(1.41765 1.13969e-18 -0.272184)
(1.43346 2.19016e-18 -0.27525)
(1.47969 -1.05502e-18 -0.28413)
(1.49374 0 -0.286859)
(1.54626 1.94471e-18 -0.296955)
(1.55655 0 -0.298958)
(1.61729 1.78421e-18 -0.310645)
(1.62065 -1.70416e-18 -0.311315)
(1.69139 1.62897e-18 -0.324935)
(1.68261 1.5502e-18 -0.32328)
(1.76337 -1.47779e-18 -0.33884)
(1.72701 3.89514e-23 -0.331927)
(1.8142 -1.32587e-18 -0.348754)
(1.68358 0 -0.323678)
(16.7677 -6.35832e-22 2.84504)
(14.0614 0 0.933629)
(11.1099 -1.06087e-20 -0.332535)
(8.90232 0 -0.810507)
(7.44635 -1.02357e-20 -0.927569)
(6.44885 -1.89893e-20 -0.921474)
(5.72235 -9.19699e-21 -0.879613)
(5.16846 0 -0.830979)
(4.73007 2.24724e-22 -0.784198)
(4.37257 -1.64499e-20 -0.741403)
(4.07431 1.58351e-20 -0.702835)
(3.82098 1.52463e-20 -0.668193)
(3.60271 -1.46837e-20 -0.63705)
(3.41245 1.41463e-20 -0.608985)
(3.24501 2.73226e-20 -0.583623)
(3.0965 0 -0.560644)
(2.96393 -8.02542e-23 -0.539768)
(2.84496 2.44416e-20 -0.520758)
(2.73773 2.36348e-20 -0.503412)
(2.64074 0 -0.487556)
(2.55274 0 -0.473041)
(2.47274 2.12165e-20 -0.459744)
(2.39989 0 -0.447556)
(2.3335 1.97541e-20 -0.436385)
(2.27295 -3.8077e-20 -0.426152)
(2.21775 0 -0.416786)
(2.16746 3.54639e-20 -0.408225)
(2.12168 0 -0.400412)
(2.08009 -3.30484e-20 -0.3933)
(2.04238 -6.37419e-20 -0.386841)
(2.00829 -6.14884e-20 -0.380995)
(1.97757 -2.9662e-20 -0.375724)
(1.94996 2.86042e-20 -0.370985)
(1.92527 1.10291e-19 -0.366744)
(1.90329 1.06325e-19 -0.362971)
(1.88379 0 -0.359628)
(1.86668 0 -0.356702)
(1.85175 1.53174e-23 -0.354164)
(1.83892 0 -0.351999)
(1.82812 -4.41311e-20 -0.3502)
(1.81922 0 -0.348733)
(1.81217 -8.1769e-20 -0.347589)
(1.80712 0 -0.346819)
(1.80407 -7.56365e-20 -0.346385)
(1.80288 0 -0.346277)
(1.8034 6.9857e-20 -0.346497)
(1.80575 0 -0.34707)
(1.8098 0 -0.347966)
(1.8157 -6.18056e-20 -0.349218)
(1.82331 0 -0.350794)
(1.83281 0 -0.352733)
(1.84399 0 -0.354987)
(1.85713 -1.04358e-19 -0.357616)
(1.87187 -1.99876e-19 -0.360543)
(1.88864 0 -0.363852)
(1.90687 0 -0.367425)
(1.92716 8.76177e-20 -0.371384)
(1.94869 8.3831e-20 -0.375558)
(1.97234 0 -0.380128)
(1.9969 0 -0.384861)
(2.02366 0 -0.390004)
(2.05092 0 -0.395238)
(2.08048 1.34709e-19 -0.400901)
(2.11005 -1.29089e-19 -0.40657)
(2.1421 2.47582e-19 -0.4127)
(2.17359 0 -0.418735)
(2.20782 0 -0.425274)
(2.24084 0 -0.431604)
(2.27698 -1.42523e-23 -0.438503)
(2.31123 2.03389e-19 -0.445075)
(2.3491 1.96198e-19 -0.452301)
(2.38436 -3.78744e-19 -0.459076)
(2.42384 -2.23601e-23 -0.466606)
(2.46 1.77093e-19 -0.473564)
(2.50105 1.7164e-19 -0.481392)
(2.53806 0 -0.488526)
(2.58071 0 -0.496658)
(2.61861 0 -0.503972)
(2.66298 -3.05105e-19 -0.512432)
(2.70183 0 -0.519939)
(2.74817 0 -0.528778)
(2.78796 -2.81196e-19 -0.536472)
(2.83662 -2.74209e-19 -0.54576)
(2.87737 0 -0.55364)
(2.92881 0 -0.56347)
(2.97032 0 -0.571491)
(3.02508 -9.90821e-19 -0.581971)
(3.06735 8.89098e-23 -0.590136)
(3.12616 -4.7086e-19 -0.601404)
(3.16921 4.58791e-19 -0.609714)
(3.23236 -8.94511e-19 -0.621823)
(3.27639 -4.35432e-19 -0.630326)
(3.34454 -8.48338e-19 -0.643397)
(3.39016 0 -0.652219)
(3.46351 0 -0.666269)
(3.51034 0 -0.675343)
(3.58883 0 -0.690357)
(3.63652 -7.35881e-19 -0.699626)
(3.72162 0 -0.715892)
(3.77044 0 -0.725407)
(3.86445 6.71595e-19 -0.743378)
(3.9143 -6.48771e-19 -0.753107)
(4.01883 -2.51294e-18 -0.773089)
(4.06917 1.21103e-18 -0.782922)
(4.18495 0 -0.805055)
(4.23513 0 -0.814869)
(4.36324 0 -0.839358)
(4.41169 -1.04307e-18 -0.84885)
(4.5547 1.00406e-18 -0.876196)
(4.59788 0 -0.884676)
(4.76044 -3.69512e-18 -0.915772)
(4.79194 -1.76742e-18 -0.922012)
(4.98045 -3.38475e-18 -0.958064)
(4.99036 0 -0.960174)
(5.2108 0 -1.00227)
(5.18358 1.46704e-18 -0.997276)
(5.43691 0 -1.04542)
(5.32812 1.32198e-18 -1.02473)
(5.60541 1.25224e-18 -1.07646)
(5.22155 0 -1.00142)
(19.2357 0 2.94058)
(18.346 0 1.72265)
(16.3927 -7.58661e-21 0.406288)
(14.2609 0 -0.437802)
(12.4337 0 -0.883659)
(10.9777 9.33476e-21 -1.08708)
(9.82931 8.71298e-21 -1.16082)
(8.91472 0 -1.17151)
(8.1732 2.37857e-22 -1.15322)
(7.56026 1.55875e-20 -1.12216)
(7.0447 -2.98744e-20 -1.08608)
(6.60458 -1.44482e-20 -1.04876)
(6.22415 8.57778e-23 -1.01203)
(5.89185 -1.34063e-20 -0.976794)
(5.59907 -1.29198e-20 -0.943473)
(5.33923 1.24074e-20 -0.912227)
(5.10724 -2.40177e-20 -0.883076)
(4.89908 -2.31636e-20 -0.855965)
(4.71153 0 -0.830802)
(4.54198 0 -0.807479)
(4.3883 2.07597e-20 -0.785887)
(4.24869 2.00371e-20 -0.765921)
(4.12171 0 -0.747482)
(4.00609 0 -0.73048)
(3.9008 3.60813e-20 -0.714829)
(3.80492 0 -0.70045)
(3.71768 -6.71735e-20 -0.687267)
(3.63839 3.23975e-20 -0.675213)
(3.56646 0 -0.664222)
(3.50134 3.01836e-20 -0.654233)
(3.44255 2.91162e-20 -0.645191)
(3.38966 0 -0.637036)
(3.34223 -2.70678e-20 -0.629711)
(3.29989 -5.2222e-20 -0.623169)
(3.26228 -1.98884e-23 -0.617356)
(3.22903 0 -0.612233)
(3.19992 0 -0.607772)
(3.17466 4.50437e-20 -0.603937)
(3.15305 0 -0.600713)
(3.13497 0 -0.598086)
(3.12022 0 -0.596058)
(3.10871 0 -0.594632)
(3.10072 0 -0.593661)
(3.0961 0 -0.593278)
(3.09467 0 -0.593491)
(3.09622 -6.60987e-20 -0.594242)
(3.10088 6.348e-20 -0.59557)
(3.10846 0 -0.597432)
(3.11919 5.84735e-20 -0.599881)
(3.1328 0 -0.602856)
(3.14961 0 -0.606428)
(3.16924 -1.03035e-19 -0.610509)
(3.19215 0 -0.615203)
(3.21773 9.44987e-20 -0.620373)
(3.24668 -9.04555e-20 -0.62617)
(3.27803 0 -0.632386)
(3.31282 -8.28173e-20 -0.639236)
(3.34958 0 -0.646426)
(3.3899 0 -0.654267)
(3.43163 0 -0.662352)
(3.47705 -1.3879e-19 -0.671109)
(3.52316 -1.32852e-19 -0.679986)
(3.57318 7.14524e-25 -0.68957)
(3.62305 2.4379e-19 -0.699131)
(3.67716 -1.86755e-24 -0.709455)
(3.73013 0 -0.719589)
(3.78787 0 -0.730569)
(3.84333 2.07002e-19 -0.74117)
(3.90427 -1.31581e-23 -0.752736)
(3.96175 0 -0.763729)
(4.02562 0 -0.775836)
(4.0848 1.78571e-19 -0.787167)
(4.15144 -1.94562e-23 -0.799788)
(4.21214 -2.05124e-23 -0.811432)
(4.28151 0 -0.824563)
(4.3437 0 -0.83652)
(4.41586 3.04281e-19 -0.850177)
(4.4796 -2.95324e-19 -0.862459)
(4.55475 0 -0.876684)
(4.62019 0 -0.889317)
(4.69874 0 -0.904194)
(4.76588 0 -0.917173)
(4.84842 0 -0.932825)
(4.91727 0 -0.946142)
(5.00461 0 -0.962727)
(5.07483 0 -0.976305)
(5.16793 9.31456e-19 -0.994028)
(5.2395 4.53839e-19 -1.00786)
(5.33961 4.42545e-19 -1.02696)
(5.41245 -4.31112e-19 -1.04102)
(5.5202 8.40236e-19 -1.06161)
(5.5946 4.08995e-19 -1.07599)
(5.71108 3.98302e-19 -1.09826)
(5.78788 0 -1.11313)
(5.91328 0 -1.13705)
(5.99192 0 -1.15232)
(6.12628 0 -1.17791)
(6.20645 6.90373e-19 -1.19356)
(6.35231 0 -1.22132)
(6.43447 0 -1.23744)
(6.5957 -6.29702e-19 -1.26813)
(6.67942 0 -1.2846)
(6.85869 1.17759e-18 -1.31872)
(6.94292 -1.13487e-18 -1.33531)
(7.1415 0 -1.37311)
(7.2252 0 -1.38963)
(7.44475 0 -1.43141)
(7.5255 -9.76628e-19 -1.4474)
(7.77031 0 -1.49399)
(7.84204 9.00695e-19 -1.50829)
(8.12028 1.28903e-22 -1.56125)
(8.1718 1.65411e-18 -1.57171)
(8.49484 3.16707e-18 -1.63315)
(8.50921 0 -1.63656)
(8.88775 -1.44309e-18 -1.70838)
(8.8396 -1.37223e-18 -1.69987)
(9.27625 -1.307e-18 -1.78201)
(9.09538 0 -1.74801)
(9.57741 -1.17089e-18 -1.8356)
(8.96636 0 -1.7141)
(20.0597 0 2.35322)
(20.263 0 1.91899)
(19.5034 7.17285e-21 0.993966)
(18.1326 0 0.129684)
(16.5864 -7.69888e-21 -0.507585)
(15.1093 1.59955e-20 -0.920619)
(13.7941 0 -1.16297)
(12.659 -1.52143e-20 -1.29249)
(11.6893 1.50881e-20 -1.35289)
(10.86 1.43712e-20 -1.37241)
(10.1464 1.40634e-20 -1.36819)
(9.52765 -1.34445e-20 -1.3504)
(8.98691 1.30814e-20 -1.32508)
(8.51085 -2.50788e-20 -1.29585)
(8.08896 0 -1.26492)
(7.71295 -2.34225e-20 -1.23362)
(7.37617 0 -1.20279)
(7.0733 0 -1.17294)
(6.79998 0 -1.14434)
(6.55261 2.02967e-20 -1.11716)
(6.32824 -4.25144e-23 -1.0915)
(6.12436 -3.62263e-23 -1.06739)
(5.9389 1.8263e-20 -1.04483)
(5.77008 0 -1.02381)
(5.61639 0 -1.0043)
(5.47653 0 -0.986247)
(5.34935 6.34683e-20 -0.969604)
(5.23386 -2.91224e-23 -0.954321)
(5.12919 0 -0.94034)
(5.03453 0 -0.927605)
(4.94917 0 -0.916061)
(4.87248 0 -0.90564)
(4.8038 5.1175e-20 -0.896281)
(4.74261 0 -0.88793)
(4.68835 -4.75784e-20 -0.880526)
(4.64052 0 -0.87403)
(4.59876 0 -0.868414)
(4.56265 -4.25552e-20 -0.863638)
(4.53193 0 -0.859694)
(4.50637 0 -0.856561)
(4.48569 3.79905e-20 -0.854257)
(4.4698 -7.31175e-20 -0.852833)
(4.45904 0 -0.851947)
(4.45307 -6.76229e-20 -0.851921)
(4.45174 0 -0.852704)
(4.45471 1.24891e-19 -0.854239)
(4.46218 -3.96598e-24 -0.856579)
(4.47382 0 -0.859662)
(4.48996 0 -0.863562)
(4.5102 -5.29632e-20 -0.868189)
(4.53499 -1.01538e-19 -0.873641)
(4.56373 1.94583e-19 -0.879791)
(4.59712 0 -0.886786)
(4.63419 8.92166e-20 -0.894423)
(4.67604 8.5386e-20 -0.902923)
(4.72114 8.17058e-20 -0.911976)
(4.77112 7.81637e-20 -0.921905)
(4.82372 0 -0.932273)
(4.88135 0 -0.943539)
(4.94078 1.36834e-19 -0.955105)
(5.00546 2.61839e-19 -0.967601)
(5.0709 1.25301e-19 -0.98022)
(5.14195 -2.24721e-26 -0.993826)
(5.21248 -1.14936e-19 -1.00735)
(5.28921 -1.10184e-19 -1.02196)
(5.36398 0 -1.03624)
(5.44575 0 -1.05174)
(5.52392 -1.95073e-19 -1.06665)
(5.6102 -3.75368e-19 -1.08296)
(5.69114 0 -1.09841)
(5.78162 -1.74256e-19 -1.11548)
(5.86491 -1.68139e-19 -1.1314)
(5.95937 -1.62531e-19 -1.1492)
(6.04482 -3.14284e-19 -1.16557)
(6.14322 0 -1.18411)
(6.23082 0 -1.20093)
(6.33328 -2.86333e-19 -1.22024)
(6.42315 5.55665e-19 -1.23754)
(6.52993 2.70159e-19 -1.25767)
(6.62227 0 -1.27549)
(6.73396 0 -1.29656)
(6.82881 0 -1.3149)
(6.94623 0 -1.33708)
(7.04358 0 -1.35593)
(7.16788 0 -1.37945)
(7.26726 4.48438e-19 -1.39868)
(7.3999 -8.3169e-23 -1.42385)
(7.50117 -4.26087e-19 -1.44345)
(7.64397 0 -1.47062)
(7.7469 -4.04608e-19 -1.49052)
(7.90091 -3.94321e-19 -1.51987)
(8.00583 0 -1.54018)
(8.17252 3.73621e-19 -1.57198)
(8.28037 7.26413e-19 -1.5929)
(8.45988 0 -1.62707)
(8.56992 0 -1.64848)
(8.76247 0 -1.68505)
(8.87456 6.4705e-19 -1.70701)
(9.08386 0 -1.74674)
(9.19857 0 -1.76937)
(9.43004 -5.89907e-19 -1.8133)
(9.54641 5.69595e-19 -1.83634)
(9.80384 0 -1.8852)
(9.92021 0 -1.90828)
(10.2053 0 -1.96239)
(10.3204 0 -1.98527)
(10.6353 0 -2.04502)
(10.7458 8.99997e-23 -2.06711)
(11.0964 0 -2.13362)
(11.1939 -8.42837e-19 -2.15328)
(11.5921 1.61788e-18 -2.22877)
(11.6601 0 -2.24294)
(12.1225 -1.16895e-22 -2.33044)
(12.1374 0 -2.33459)
(12.6793 9.26892e-23 -2.43679)
(12.6071 0 -2.42437)
(13.233 1.222e-18 -2.54101)
(12.9832 0 -2.49442)
(13.676 -1.09442e-18 -2.61744)
(12.8864 0 -2.45653)
(20.3582 0 1.65493)
(20.9224 0 1.65693)
(20.9418 0 1.17091)
(20.39 0 0.52096)
(19.4566 7.26818e-21 -0.094138)
(18.3388 -3.89418e-22 -0.593333)
(17.1772 0 -0.960517)
(16.0566 1.43643e-20 -1.21183)
(15.0194 0 -1.37386)
(14.0798 -2.6898e-20 -1.4719)
(13.2371 0 -1.52595)
(12.4841 1.26954e-20 -1.55047)
(11.8112 0 -1.55544)
(11.2089 2.36828e-20 -1.54765)
(10.6683 -1.13604e-20 -1.53166)
(10.1817 2.20131e-20 -1.51056)
(9.74254 -2.12101e-20 -1.48645)
(9.34522 -2.04879e-20 -1.46075)
(8.98496 0 -1.43443)
(8.65772 -1.91676e-20 -1.40816)
(8.36003 -1.85044e-20 -1.38241)
(8.08893 -3.56889e-20 -1.35749)
(7.84191 -1.72464e-20 -1.33365)
(7.61677 0 -1.31102)
(7.41164 0 -1.2897)
(7.22486 0 -1.26974)
(7.05498 -2.99492e-20 -1.25116)
(6.90071 -2.89041e-20 -1.23397)
(6.76091 0 -1.21816)
(6.63453 0 -1.20369)
(6.52065 2.59422e-20 -1.19053)
(6.41839 0 -1.17862)
(6.32692 -1.47011e-23 -1.16792)
(6.24552 -4.65442e-20 -1.15838)
(6.17346 4.48713e-20 -1.14993)
(6.11008 0 -1.14256)
(6.05488 0 -1.13624)
(6.00732 4.01649e-20 -1.13095)
(5.96702 0 -1.12667)
(5.93367 0 -1.12339)
(5.90687 -3.58504e-20 -1.12116)
(5.88656 6.89944e-20 -1.12002)
(5.87304 0 -1.11965)
(5.86585 6.38012e-20 -1.12032)
(5.86483 0 -1.122)
(5.86954 -5.89054e-20 -1.12462)
(5.88018 -5.65639e-20 -1.12826)
(5.89632 0 -1.13285)
(5.91836 -5.20839e-20 -1.13847)
(5.94575 4.99471e-20 -1.145)
(5.97907 1.91495e-19 -1.15259)
(6.01749 -9.17355e-20 -1.16104)
(6.06196 8.78546e-20 -1.17056)
(6.11111 2.08168e-24 -1.18087)
(6.16646 0 -1.19228)
(6.22586 -7.70105e-20 -1.20435)
(6.29163 -7.36645e-20 -1.21752)
(6.36057 7.04607e-20 -1.23121)
(6.43608 -6.73898e-20 -1.24605)
(6.51364 -1.28916e-19 -1.2612)
(6.59814 -1.23331e-19 -1.27755)
(6.68324 1.18026e-19 -1.29399)
(6.77583 -1.12994e-19 -1.31171)
(6.86732 0 -1.32924)
(6.96715 0 -1.3482)
(7.06391 -9.95051e-20 -1.36666)
(7.17022 0 -1.38673)
(7.27122 0 -1.40596)
(7.38337 1.76622e-19 -1.42706)
(7.48785 0 -1.44695)
(7.60546 1.63947e-19 -1.46903)
(7.71292 3.16319e-19 -1.48952)
(7.83577 0 -1.51256)
(7.946 1.47772e-19 -1.53363)
(8.07406 0 -1.55764)
(8.18709 0 -1.57931)
(8.32051 2.69065e-19 -1.60433)
(8.43652 -2.61106e-19 -1.62663)
(8.57565 -4.93785e-23 -1.65274)
(8.69493 0 -1.67575)
(8.84048 0 -1.70307)
(8.96309 0 -1.72678)
(9.11614 2.27629e-19 -1.75557)
(9.24201 -2.21578e-19 -1.77994)
(9.40409 0 -1.81048)
(9.53257 -8.41813e-19 -1.83537)
(9.70568 -4.10487e-19 -1.86809)
(9.8365 7.99603e-19 -1.89344)
(10.023 3.89683e-19 -1.92881)
(10.1557 7.59055e-19 -1.95449)
(10.3573 0 -1.99279)
(10.4921 0 -2.01894)
(10.7105 -3.50328e-19 -2.06048)
(10.8484 -6.81019e-19 -2.08729)
(11.0836 6.62499e-19 -2.13192)
(11.2237 0 -2.15924)
(11.4763 0 -2.20705)
(11.6185 -6.06242e-19 -2.23505)
(11.8934 -5.88804e-19 -2.28706)
(12.0383 0 -2.31585)
(12.3425 5.52459e-19 -2.37339)
(12.4885 -5.3336e-19 -2.40254)
(12.8269 0 -2.46654)
(12.9716 0 -2.4955)
(13.3463 0 -2.56637)
(13.4883 0 -2.59488)
(13.9016 0 -2.67301)
(14.0371 8.55222e-19 -2.70042)
(14.4963 0 -2.78718)
(14.6141 0 -2.81138)
(15.1349 0 -2.90963)
(15.2138 -1.44682e-18 -2.92666)
(15.8176 -1.38493e-18 -3.0403)
(15.8278 0 -3.04449)
(16.534 1.26158e-18 -3.17679)
(16.4352 0 -3.16031)
(17.249 1.14208e-18 -3.3105)
(16.9384 0 -3.25317)
(17.8342 1.02277e-18 -3.40874)
(16.9338 0 -3.21934)
(20.5312 -3.0245e-21 1.05182)
(21.0778 -3.94497e-21 1.20676)
(21.4202 4.79463e-21 1.027)
(21.4152 5.4744e-21 0.637137)
(21.0641 0 0.169432)
(20.4438 -6.58761e-21 -0.287918)
(19.6486 0 -0.686356)
(18.763 1.26578e-20 -1.00729)
(17.8512 1.25191e-20 -1.25134)
(16.9557 2.48519e-20 -1.42854)
(16.1015 -1.19934e-20 -1.55186)
(15.3011 1.16683e-20 -1.63376)
(14.5593 0 -1.68476)
(13.8762 0 -1.71317)
(13.2494 1.07123e-20 -1.72532)
(12.6751 -6.82137e-23 -1.72589)
(12.1495 1.11522e-22 -1.71835)
(11.6686 9.18867e-23 -1.7052)
(11.2284 0 -1.68831)
(10.8256 0 -1.66901)
(10.4569 0 -1.64833)
(10.1195 3.35706e-20 -1.62701)
(9.81076 1.61925e-20 -1.60564)
(9.52846 0 -1.58461)
(9.27054 0 -1.56425)
(9.03521 2.91705e-20 -1.54477)
(8.82081 0 -1.52632)
(8.62586 0 -1.50901)
(8.44904 0 -1.49291)
(8.28909 0 -1.47805)
(8.14491 -2.13928e-23 -1.46445)
(8.01544 0 -1.4521)
(7.89967 -1.57048e-23 -1.44098)
(7.7967 4.38761e-20 -1.43105)
(7.70566 -2.30364e-23 -1.42229)
(7.62571 0 -1.41469)
(7.5562 0 -1.40825)
(7.49646 0 -1.40296)
(7.44602 0 -1.39884)
(7.40444 0 -1.39587)
(7.37124 0 -1.39416)
(7.34632 0 -1.39366)
(7.32995 -6.25062e-20 -1.39422)
(7.32155 -6.00965e-20 -1.39593)
(7.32094 0 -1.39883)
(7.32756 -5.54836e-20 -1.40286)
(7.34164 0 -1.40811)
(7.36259 0 -1.41448)
(7.39092 9.81133e-20 -1.4221)
(7.42584 0 -1.4308)
(7.46817 -9.01706e-20 -1.44077)
(7.5167 0 -1.45175)
(7.57276 -1.6545e-19 -1.46402)
(7.63443 1.96428e-24 -1.47721)
(7.70379 0 -1.49171)
(7.77794 0 -1.50696)
(7.86 0 -1.52354)
(7.94566 -1.32636e-19 -1.54068)
(8.03957 1.26843e-19 -1.5592)
(8.13558 1.21317e-19 -1.57804)
(8.24037 1.16048e-19 -1.59834)
(8.3454 -2.22083e-19 -1.61865)
(8.46001 -1.06295e-19 -1.64056)
(8.57261 0 -1.66213)
(8.69601 0 -1.68549)
(8.81483 5.0778e-24 -1.70812)
(8.94613 0 -1.7328)
(9.06996 0 -1.75632)
(9.20844 1.6601e-19 -1.78224)
(9.33637 0 -1.80654)
(9.48161 0 -1.83366)
(9.61309 -2.9722e-19 -1.85867)
(9.76485 1.43582e-19 -1.88697)
(9.89964 0 -1.91268)
(10.0579 0 -1.94219)
(10.1961 0 -1.96864)
(10.361 -2.52692e-19 -1.9994)
(10.5029 0 -2.02665)
(10.6749 -4.76587e-19 -2.05876)
(10.8208 2.31465e-19 -2.08689)
(11.0007 0 -2.12051)
(11.1507 0 -2.14952)
(11.3399 -2.13602e-19 -2.18494)
(11.4939 4.58065e-23 -2.21476)
(11.6942 -2.02648e-19 -2.25235)
(11.8512 3.94763e-19 -2.2828)
(12.0654 -3.84814e-19 -2.32312)
(12.2249 -3.74865e-19 -2.35409)
(12.4559 -3.65362e-19 -2.39772)
(12.6172 -7.29977e-23 -2.42901)
(12.8671 0 -2.47634)
(13.0304 3.37123e-19 -2.50809)
(13.3015 0 -2.55949)
(13.4675 0 -2.59184)
(13.7595 -6.20633e-19 -2.64707)
(13.9272 0 -2.67987)
(14.241 0 -2.73908)
(14.4102 0 -2.77259)
(14.7522 5.51301e-19 -2.83707)
(14.9234 0 -2.87136)
(15.3022 5.16989e-19 -2.94275)
(15.4728 0 -2.97716)
(15.8943 0 -3.0566)
(16.0614 0 -3.09042)
(16.5279 0 -3.17834)
(16.6902 0 -3.21133)
(17.2037 8.33442e-19 -3.30806)
(17.357 7.99712e-19 -3.33955)
(17.926 -7.69397e-19 -3.44661)
(18.0567 0 -3.47412)
(18.7003 0 -3.59493)
(18.7829 2.70515e-18 -3.6137)
(19.5264 0 -3.75282)
(19.5267 -1.23482e-18 -3.75632)
(20.3918 0 -3.9173)
(20.2664 -1.12069e-18 -3.89703)
(21.2568 -1.06725e-18 -4.07803)
(20.9008 0 -4.01304)
(21.974 9.55557e-19 -4.19558)
(21.0436 0 -3.99064)
(20.6834 2.84817e-21 0.575053)
(21.1079 7.42877e-21 0.747262)
(21.4952 -4.51594e-21 0.725942)
(21.7323 -3.23289e-22 0.53419)
(21.7534 5.23868e-21 0.233811)
(21.55 0 -0.114878)
(21.1509 0 -0.465202)
(20.6016 -1.19195e-20 -0.786707)
(19.9499 -2.31836e-20 -1.06365)
(19.2388 -3.13106e-22 -1.29112)
(18.5023 1.12938e-20 -1.47093)
(17.7657 -1.09878e-20 -1.60843)
(17.0466 1.05106e-20 -1.7103)
(16.3559 0 -1.78322)
(15.7003 0 -1.83321)
(15.0829 -9.68377e-21 -1.86536)
(14.505 3.73284e-20 -1.88385)
(13.9663 3.61066e-20 -1.89198)
(13.4657 0 -1.89234)
(13.0017 0 -1.88697)
(12.5725 0 -1.87748)
(12.1762 -5.20166e-23 -1.86511)
(11.8109 -3.04537e-20 -1.85087)
(11.4748 1.46911e-20 -1.83551)
(11.1661 2.83846e-20 -1.81963)
(10.8832 -5.48854e-20 -1.8037)
(10.6246 2.64761e-20 -1.78804)
(10.3886 2.55638e-20 -1.77293)
(10.1741 2.46783e-20 -1.75857)
(9.9797 0 -1.7451)
(9.80414 -2.30086e-20 -1.73262)
(9.64632 2.21751e-20 -1.72117)
(9.5051 -2.14068e-20 -1.71081)
(9.37945 -4.12539e-20 -1.70154)
(9.26837 -7.95735e-20 -1.69339)
(9.1709 0 -1.68637)
(9.08624 0 -1.68054)
(9.01362 -3.55943e-20 -1.67592)
(8.95243 0 -1.67255)
(8.90214 3.30098e-20 -1.67043)
(8.86216 3.1774e-20 -1.66973)
(8.83236 0 -1.67038)
(8.81293 1.1764e-19 -1.67227)
(8.80321 5.65552e-20 -1.67542)
(8.80299 0 -1.67991)
(8.81158 5.22084e-20 -1.68568)
(8.82922 5.01248e-20 -1.69286)
(8.85516 0 -1.70132)
(8.89002 -9.23013e-20 -1.71121)
(8.93274 4.4251e-20 -1.72235)
(8.98439 8.48201e-20 -1.73494)
(9.04335 0 -1.74869)
(9.11136 -1.25523e-24 -1.76392)
(9.18588 -1.48958e-19 -1.78017)
(9.26968 0 -1.79793)
(9.35886 0 -1.81651)
(9.45764 6.52026e-20 -1.83665)
(9.5603 6.23519e-20 -1.85735)
(9.67304 -1.19249e-19 -1.87968)
(9.78772 -1.14041e-19 -1.90227)
(9.91324 -1.09078e-19 -1.9266)
(10.0383 1.04363e-19 -1.95082)
(10.1754 1.99783e-19 -1.97696)
(10.3091 0 -2.00257)
(10.4566 0 -2.03037)
(10.5974 1.75815e-19 -2.05715)
(10.7541 0 -2.08646)
(10.9006 0 -2.11422)
(11.0659 -1.55918e-19 -2.14498)
(11.217 0 -2.1736)
(11.3903 1.44633e-19 -2.20577)
(11.5455 2.22984e-23 -2.2352)
(11.7266 -1.34796e-19 -2.26878)
(11.8855 0 -2.29902)
(12.0743 0 -2.33403)
(12.2372 0 -2.36514)
(12.434 -2.37022e-19 -2.40164)
(12.6011 0 -2.43371)
(12.8063 2.23532e-19 -2.47181)
(12.9782 -4.34196e-19 -2.50492)
(13.1928 0 -2.54481)
(13.3693 0 -2.57896)
(13.5949 0 -2.62097)
(13.7759 4.6159e-23 -2.65608)
(14.0147 1.89976e-19 -2.70066)
(14.1991 3.69865e-19 -2.73647)
(14.4544 3.60662e-19 -2.78433)
(14.6412 -3.51139e-19 -2.82067)
(14.9168 0 -2.87251)
(15.1048 -3.33235e-19 -2.90908)
(15.4034 0 -2.96542)
(15.5928 -3.15769e-19 -3.00237)
(15.9169 0 -3.06362)
(16.1082 0 -3.101)
(16.4576 0 -3.16681)
(16.6491 5.63747e-19 -3.20446)
(17.0248 5.48082e-19 -3.27507)
(17.2165 0 -3.3133)
(17.6264 -5.15779e-19 -3.3903)
(17.8179 4.98851e-19 -3.42911)
(18.2726 -4.83732e-19 -3.51444)
(18.4606 4.66834e-19 -3.55291)
(18.9669 0 -3.6479)
(19.1481 0 -3.68516)
(19.7078 0 -3.7902)
(19.8813 0 -3.82612)
(20.4956 -7.79339e-19 -3.94137)
(20.6574 -8.8001e-23 -3.97534)
(21.3356 1.43854e-18 -4.10237)
(21.4701 0 -4.13164)
(22.2336 0 -4.2742)
(22.3122 -1.26413e-18 -4.29349)
(23.1888 0 -4.45648)
(23.1754 1.15394e-18 -4.45886)
(24.186 0 -4.6456)
(24.0387 2.09418e-18 -4.62266)
(25.1819 0 -4.82951)
(24.8051 0 -4.76148)
(26.0113 -8.92637e-19 -4.96252)
(25.1346 0 -4.75564)
(20.8271 0 0.203445)
(21.1402 -3.49321e-21 0.350615)
(21.467 0 0.391207)
(21.752 -4.5466e-21 0.315837)
(21.9357 -9.59196e-21 0.144917)
(21.9812 0 -0.0900075)
(21.8778 5.06552e-21 -0.357583)
(21.6336 0 -0.63163)
(21.2683 3.93645e-22 -0.893102)
(20.8066 -2.08479e-20 -1.13003)
(20.2742 0 -1.33631)
(19.695 0 -1.51021)
(19.0895 -9.88656e-21 -1.65282)
(18.4745 0 -1.76693)
(17.8628 0 -1.85611)
(17.2642 0 -1.92411)
(16.6853 -1.74945e-20 -1.97451)
(16.1309 -1.69309e-20 -2.01053)
(15.6037 -1.6273e-20 -2.03495)
(15.1056 0 -2.05011)
(14.6373 0 -2.05802)
(14.1988 -1.47999e-20 -2.06034)
(13.7898 1.43022e-20 -2.05842)
(13.4097 -1.38188e-20 -2.0534)
(13.0575 -2.66988e-20 -2.04619)
(12.7324 5.15131e-20 -2.0375)
(12.4332 -5.252e-23 -2.02791)
(12.1588 -2.40445e-20 -2.01789)
(11.9082 -2.32111e-20 -2.00781)
(11.6802 0 -1.99795)
(11.4736 0 -1.98854)
(11.2873 -2.08554e-20 -1.97973)
(11.1203 0 -1.97164)
(10.9715 3.87965e-20 -1.96437)
(10.8398 3.74037e-20 -1.95799)
(10.7242 -3.60286e-20 -1.9526)
(10.6238 0 -1.94829)
(10.5377 3.34696e-20 -1.94515)
(10.4653 3.22206e-20 -1.94327)
(10.4058 -1.20815e-23 -1.94265)
(10.3587 -5.97376e-20 -1.94356)
(10.3236 0 -1.94589)
(10.3009 -5.5292e-20 -1.9496)
(10.2896 0 -1.95464)
(10.2897 0 -1.96113)
(10.3001 0 -1.96902)
(10.3213 -4.66557e-24 -1.97846)
(10.3523 0 -1.98932)
(10.3938 4.33728e-20 -2.00179)
(10.4444 -8.31708e-20 -2.01562)
(10.5056 -7.97072e-20 -2.03109)
(10.5751 0 -2.04781)
(10.6553 7.31091e-20 -2.06621)
(10.7429 1.39955e-19 -2.08569)
(10.8414 0 -2.1069)
(10.9458 0 -2.12894)
(11.0616 -6.12482e-20 -2.15276)
(11.1814 -5.85693e-20 -2.17711)
(11.3133 5.60006e-20 -2.20334)
(11.4468 1.07103e-19 -2.22973)
(11.5934 0 -2.25817)
(11.7385 0 -2.28631)
(11.8985 -2.31247e-24 -2.31674)
(12.0533 8.98054e-20 -2.34636)
(12.2252 0 -2.37863)
(12.3878 -8.25144e-20 -2.40949)
(12.5705 0 -2.44345)
(12.7393 0 -2.47535)
(12.9318 0 -2.51095)
(13.1056 0 -2.54378)
(13.3075 -2.16391e-23 -2.58099)
(13.4856 2.28882e-23 -2.6147)
(13.6965 1.26402e-19 -2.65353)
(13.8788 0 -2.68814)
(14.0986 1.18268e-19 -2.72863)
(14.2852 0 -2.76422)
(14.5142 2.22254e-19 -2.80641)
(14.7056 -2.15508e-19 -2.8431)
(14.9442 2.09462e-19 -2.88712)
(15.1408 2.03484e-19 -2.92501)
(15.3901 0 -2.97107)
(15.592 -1.92518e-19 -3.01014)
(15.8538 0 -3.05863)
(16.0604 1.82555e-19 -3.09875)
(16.3375 1.779e-19 -3.1502)
(16.5473 -3.46488e-19 -3.19104)
(16.8437 0 -3.2463)
(17.0554 6.57668e-19 -3.28761)
(17.3753 0 -3.34752)
(17.5874 -3.11897e-19 -3.38889)
(17.9344 0 -3.4541)
(18.1466 -2.95491e-19 -3.49565)
(18.5236 0 -3.56661)
(18.7362 -5.58828e-19 -3.60833)
(19.1427 5.43538e-19 -3.68458)
(19.3533 -5.27552e-19 -3.72623)
(19.791 -5.1284e-19 -3.80809)
(19.9988 0 -3.85001)
(20.4771 9.64942e-19 -3.9394)
(20.6812 -9.33184e-19 -3.98143)
(21.2125 0 -4.08063)
(21.4086 -4.366e-19 -4.12158)
(22.0004 0 -4.23207)
(22.1853 0 -4.27099)
(22.8383 7.85969e-19 -4.393)
(23.0124 0 -4.42996)
(23.7263 0 -4.56332)
(23.8859 -6.98842e-19 -4.59791)
(24.6701 -1.34438e-18 -4.74404)
(24.7985 -6.43761e-19 -4.77343)
(25.6752 0 -4.93619)
(25.7431 0 -4.95493)
(26.7395 0 -5.13902)
(26.7122 0 -5.14042)
(27.8455 -1.02903e-18 -5.34831)
(27.687 -9.78128e-19 -5.32485)
(28.946 0 -5.55039)
(28.5815 0 -5.48523)
(29.8613 0 -5.69425)
(29.1138 0 -5.4978)
(20.9584 3.05319e-21 -0.0930207)
(21.1926 0 0.0254092)
(21.4455 3.66292e-21 0.082682)
(21.6979 0 0.0653094)
(21.9149 4.38302e-21 -0.0237586)
(22.0637 0 -0.170852)
(22.123 -4.76068e-21 -0.358487)
(22.0831 9.2638e-21 -0.569276)
(21.9436 1.90395e-20 -0.788002)
(21.711 3.19378e-22 -1.00265)
(21.3963 0 -1.20464)
(21.0131 0 -1.38854)
(20.5761 0 -1.55146)
(20.0997 0 -1.6925)
(19.597 0 -1.81216)
(19.0797 0 -1.91183)
(18.5576 1.6117e-20 -1.99342)
(18.039 -1.56431e-20 -2.05904)
(17.5302 1.52916e-20 -2.11081)
(17.0363 0 -2.1508)
(16.561 0 -2.18089)
(16.1071 1.37776e-20 -2.20281)
(15.6762 1.33304e-20 -2.21809)
(15.2698 1.28931e-20 -2.22807)
(14.8883 0 -2.23387)
(14.5321 -2.41729e-20 -2.23645)
(14.2012 -4.66386e-20 -2.23661)
(13.8951 2.24982e-20 -2.23501)
(13.6134 0 -2.2322)
(13.3555 0 -2.22862)
(13.1205 0 -2.22466)
(12.9077 1.95457e-20 -2.22059)
(12.7161 0 -2.21664)
(12.5447 0 -2.21302)
(12.3928 3.50804e-20 -2.20988)
(12.2591 3.38471e-20 -2.2074)
(12.1429 0 -2.20576)
(12.0431 3.14052e-20 -2.20511)
(11.9591 -6.05173e-20 -2.2056)
(11.8902 -2.91427e-20 -2.20728)
(11.8356 2.8051e-20 -2.2105)
(11.795 0 -2.21516)
(11.7686 0 -2.22127)
(11.7555 0 -2.2287)
(11.7556 4.79577e-20 -2.23765)
(11.7677 0 -2.24806)
(11.7924 -4.42385e-20 -2.26014)
(11.8282 -4.24513e-20 -2.27373)
(11.8763 0 -2.28908)
(11.9348 3.90451e-20 -2.30587)
(12.0055 0 -2.32446)
(12.0855 0 -2.34438)
(12.1781 6.86344e-20 -2.36615)
(12.2786 1.03785e-24 -2.38903)
(12.392 -6.28505e-20 -2.41384)
(12.5116 0 -2.43945)
(12.6447 0 -2.46708)
(12.7816 5.4967e-20 -2.49514)
(12.933 0 -2.52536)
(13.0852 -1.00503e-19 -2.55558)
(13.2533 0 -2.58818)
(13.4184 0 -2.62023)
(13.6016 -1.75975e-19 -2.65498)
(13.7773 -1.6849e-19 -2.68856)
(13.974 -8.07138e-20 -2.72531)
(14.1582 0 -2.76016)
(14.3671 0 -2.79877)
(14.5578 -7.13199e-20 -2.83469)
(14.778 -1.37157e-19 -2.87511)
(14.9739 0 -2.91199)
(15.2046 -1.27213e-19 -2.95422)
(15.405 1.22673e-19 -2.99202)
(15.646 -1.18493e-19 -3.03606)
(15.8507 1.14475e-19 -3.07482)
(16.1016 -1.10849e-19 -3.12071)
(16.3109 0 -3.16054)
(16.5721 0 -3.20834)
(16.7864 2.01933e-19 -3.24938)
(17.0583 -3.9245e-19 -3.29921)
(17.2783 0 -3.34159)
(17.562 0 -3.39367)
(17.7875 1.80325e-19 -3.43733)
(18.0852 0 -3.49211)
(18.3153 0 -3.53687)
(18.6302 -1.66586e-19 -3.59496)
(18.8629 -3.24253e-19 -3.6404)
(19.1996 0 -3.70282)
(19.4332 -3.07795e-19 -3.74857)
(19.7969 0 -3.81629)
(20.0292 2.91921e-19 -3.86183)
(20.4239 -2.84205e-19 -3.93563)
(20.6546 2.76514e-19 -3.98106)
(21.0838 2.69015e-19 -4.06146)
(21.3127 1.19815e-22 -4.10665)
(21.7758 -5.08489e-19 -4.19305)
(21.9995 0 -4.23766)
(22.4985 4.79487e-19 -4.33048)
(22.7149 -4.64544e-19 -4.37478)
(23.2612 -4.51157e-19 -4.47629)
(23.4683 8.72463e-19 -4.51995)
(24.0763 0 -4.6328)
(24.2693 -4.08059e-19 -4.67434)
(24.9467 0 -4.80008)
(25.1233 0 -4.83858)
(25.8684 -7.34659e-19 -4.97711)
(26.0311 0 -5.01302)
(26.8413 0 -5.16363)
(26.9875 6.52902e-19 -5.19691)
(27.871 8.30168e-23 -5.36068)
(27.9845 7.24966e-23 -5.38864)
(28.9624 5.7699e-19 -5.56912)
(29.0155 0 -5.58668)
(30.1111 -1.05563e-18 -5.7878)
(30.0746 -1.00684e-18 -5.78915)