/*--------------------------------*- C++ -*----------------------------------*\
| =========                 |                                                 |
| \\      /  F ield         | OpenFOAM: The Open Source CFD Toolbox           |
|  \\    /   O peration     | Version:  2412                                  |
|   \\  /    A nd           | Website:  www.openfoam.com                      |
|    \\/     M anipulation  |                                                 |
\*---------------------------------------------------------------------------*/
FoamFile
{
    version     2.0;
    format      ascii;
    arch        "LSB;label=32;scalar=64";
    class       surfaceScalarField;
    location    "1.29";
    object      ddtCorrDdt0(phi);
}
// * * * * * * * * * * * * * * * * * * * * * * * * * * * * * * * * * * * * * //

dimensions      [0 3 -2 0 0 0 0];

oriented        oriented;

internalField   nonuniform List<scalar> 
24930
(
0.000171944
6.32808e-05
-0.000231143
0.000131788
5.14866e-05
0.000102058
3.93191e-05
8.26445e-05
2.67522e-05
7.01444e-05
1.89571e-05
6.04063e-05
1.52784e-05
5.21303e-05
1.28744e-05
4.39266e-05
1.17229e-05
3.69558e-05
9.49116e-06
3.11021e-05
7.41135e-06
2.61203e-05
5.62088e-06
2.16887e-05
4.21771e-06
1.75155e-05
3.19841e-06
1.34173e-05
2.47885e-06
9.34869e-06
1.93629e-06
5.37921e-06
1.45928e-06
1.62539e-06
9.91824e-07
-1.8302e-06
5.49117e-07
-4.98995e-06
1.91879e-07
-7.93274e-06
-2.79463e-08
-1.07555e-05
-1.13314e-07
-1.35083e-05
-1.26116e-07
-1.61674e-05
-1.49078e-07
-1.86554e-05
-2.38073e-07
-2.0882e-05
-4.00584e-07
-2.27754e-05
-6.06541e-07
-2.42862e-05
-8.16164e-07
-2.53763e-05
-9.99994e-07
-2.60059e-05
-1.14463e-06
-2.61382e-05
-1.24073e-06
-2.57513e-05
-1.27812e-06
-2.48561e-05
-1.24128e-06
-2.34945e-05
-1.12479e-06
-2.17421e-05
-9.26859e-07
-1.96867e-05
-6.65892e-07
-1.74298e-05
-3.53628e-07
-1.50591e-05
-2.1267e-08
-1.26675e-05
3.29158e-07
-1.03165e-05
6.66196e-07
-8.08167e-06
1.0072e-06
-5.99207e-06
1.30845e-06
-4.11576e-06
1.60715e-06
-2.45856e-06
1.8343e-06
-1.10665e-06
2.05932e-06
-4.64103e-08
2.17281e-06
6.12263e-07
2.29297e-06
9.35688e-07
2.24924e-06
8.07452e-07
2.24074e-06
3.95959e-07
2.0148e-06
-4.14737e-07
1.89759e-06
-1.3171e-06
1.51965e-06
-2.4585e-06
1.38621e-06
-3.39242e-06
9.46353e-07
-4.39209e-06
9.30524e-07
-4.91353e-06
5.0379e-07
-5.48542e-06
6.84734e-07
-5.46904e-06
2.53139e-07
-5.70319e-06
6.44564e-07
-5.32427e-06
1.62251e-07
-5.45697e-06
8.12704e-07
-4.85387e-06
2.51816e-07
-4.9993e-06
1.18537e-06
-4.21091e-06
4.04249e-07
-4.51914e-06
1.54139e-06
-3.7334e-06
3.59893e-07
-4.54715e-06
1.7331e-06
-4.05337e-06
1.3861e-07
-5.66706e-06
1.91998e-06
-5.54864e-06
-9.01937e-08
-7.97816e-06
2.21357e-06
-8.02636e-06
-2.89887e-07
-1.10407e-05
2.62384e-06
-1.09531e-05
-4.0591e-07
-1.42522e-05
3.02765e-06
-1.39978e-05
-5.00531e-07
-1.74914e-05
3.10723e-06
-1.7295e-05
-7.56534e-07
-2.08363e-05
2.92386e-06
-2.04073e-05
-6.39544e-07
-2.37052e-05
4.34323e-06
-2.21465e-05
1.21601e-06
-2.58508e-05
8.57019e-06
-2.36419e-05
3.80391e-06
-3.08298e-05
1.35538e-05
-2.88791e-05
3.41479e-06
-3.45594e-05
9.58689e-06
-3.40133e-05
4.47118e-07
-4.50558e-05
1.03902e-05
-1.78629e-05
-2.95822e-05
-5.90272e-05
4.1104e-05
2.46807e-05
-8.3477e-05
-0.000144604
0.000167675
0.00010046
-0.000242198
-0.000120146
0.000216895
1.82548e-05
-0.000136425
0.000263078
-0.000252969
-0.000389614
-0.124996
-1.53416e-05
-0.000355024
4.75228e-05
0.216605
0.000352222
-0.000295302
-9.7236e-05
0.000445183
-2.56207e-05
-7.46091e-05
0.000667767
-0.000763784
-0.000135439
0.000740751
-0.000527692
-0.00479309
0.00212524
-0.0026377
0.000414479
0.00172814
-0.000863565
0.0012672
0.00143642
-0.0022799
9.82871e-05
0.0014211
0.000738379
-0.00068185
-0.00168595
0.00244303
-0.000522466
-0.00116382
0.00150341
-0.002037
-0.00389723
0.00566617
-0.00199498
-0.00186763
0.00289406
-0.0048824
0.000243184
0.00264071
-0.00240865
0.00264736
-0.000684518
0.0002411
7.09819e-05
-0.000237419
0.000240882
7.24266e-05
0.000222402
7.3004e-05
0.000198219
6.41145e-05
0.000172905
5.57337e-05
0.00014893
4.87403e-05
0.000126848
4.23782e-05
0.000108524
3.56515e-05
9.35277e-05
2.83203e-05
8.1538e-05
2.15322e-05
7.16895e-05
1.59965e-05
6.2977e-05
1.1982e-05
5.45678e-05
9.34974e-06
4.5984e-05
7.69328e-06
3.71422e-05
6.51453e-06
2.82545e-05
5.40978e-06
1.96321e-05
4.21017e-06
1.14815e-05
3.00795e-06
3.79891e-06
2.0392e-06
-3.58381e-06
1.48337e-06
-1.08434e-05
1.31454e-06
-1.80217e-05
1.31335e-06
-2.49943e-05
1.21933e-06
-3.15522e-05
8.92349e-07
-3.7512e-05
3.6154e-07
-4.27713e-05
-2.41859e-07
-4.72892e-05
-7.91467e-07
-5.1033e-05
-1.22451e-06
-5.39406e-05
-1.53882e-06
-5.59305e-05
-1.74021e-06
-5.69324e-05
-1.81959e-06
-5.69235e-05
-1.74393e-06
-5.59323e-05
-1.50056e-06
-5.40433e-05
-1.08271e-06
-5.13702e-05
-5.3057e-07
-4.80632e-05
1.37792e-07
-4.42699e-05
8.58047e-07
-4.01669e-05
1.64041e-06
-3.58959e-05
2.41404e-06
-3.16272e-05
3.22663e-06
-2.74549e-05
3.96115e-06
-2.35289e-05
4.70931e-06
-1.9891e-05
5.28669e-06
-1.67077e-05
5.87456e-06
-1.39799e-05
6.18489e-06
-1.19115e-05
6.53089e-06
-1.04196e-05
6.46002e-06
-9.73104e-06
6.50155e-06
-9.60499e-06
5.9765e-06
-1.02836e-05
5.75193e-06
-1.12968e-05
4.81917e-06
-1.29406e-05
4.52417e-06
-1.44823e-05
3.3557e-06
-1.63986e-05
3.2951e-06
-1.77243e-05
2.07788e-06
-1.9327e-05
2.52539e-06
-2.00189e-05
1.31249e-06
-2.12103e-05
2.4066e-06
-2.13226e-05
1.08226e-06
-2.2344e-05
2.88559e-06
-2.20351e-05
1.25867e-06
-2.30919e-05
3.83841e-06
-2.24331e-05
1.63572e-06
-2.378e-05
5.02744e-06
-2.30046e-05
1.87677e-06
-2.51728e-05
6.18678e-06
-2.46965e-05
1.77974e-06
-2.82751e-05
7.30703e-06
-2.83078e-05
1.36445e-06
-3.3595e-05
8.51111e-06
-3.3876e-05
6.07335e-07
-4.07698e-05
9.79191e-06
-4.07446e-05
-4.32277e-07
-4.88569e-05
1.095e-05
-4.84299e-05
-1.24063e-06
-5.74293e-05
1.17106e-05
-5.72551e-05
-1.38566e-06
-6.62174e-05
1.13597e-05
-6.6985e-05
-3.18193e-07
-7.4274e-05
1.13044e-05
-7.63818e-05
3.75791e-06
-8.03999e-05
1.38663e-05
-8.66104e-05
1.30529e-05
-9.05703e-05
2.19659e-05
-0.000100973
2.00112e-05
-0.000103111
1.8388e-05
-0.000121102
2.62369e-05
-0.00011087
6.27508e-06
-0.000100514
-3.45018e-05
-0.000137421
7.87289e-05
-5.86e-06
-0.00021522
-0.0003985
0.000560046
0.000304203
-0.000948395
-0.000422342
0.000946162
0.00020177
-0.000767911
0.000589695
-0.000635505
-0.00113614
0.00185724
-4.14259e-05
-0.00141065
0.000239205
0.000995752
0.000955001
-0.00101563
-0.000342242
0.00173905
0.000100579
-0.000510749
0.00202978
-0.00267142
-0.000800855
0.00355414
-0.00109346
0.000682882
0.00649538
-0.0102433
0.000676715
0.00753526
-0.00210707
0.00406953
0.00396509
-0.00828998
0.000425075
0.00570748
0.00191127
-0.00205984
-0.00524949
0.00962154
-0.00103842
-0.00537123
0.00373741
-0.00679498
-0.0119646
0.0216881
-0.00527539
-0.00855516
0.00833856
-0.0184975
-0.000221164
0.0111986
-0.00728271
0.00971149
-0.00295714
0.00024674
7.75716e-05
-0.00023997
0.000260614
7.57994e-05
0.000262647
8.41467e-05
0.000251433
8.72777e-05
0.000230596
8.70628e-05
0.000203639
8.4477e-05
0.000175638
7.74178e-05
0.000150461
6.61612e-05
0.000129727
5.27385e-05
0.000113526
3.98342e-05
0.00010076
2.93525e-05
8.99016e-05
2.20189e-05
7.95937e-05
1.75618e-05
6.901e-05
1.50802e-05
5.79479e-05
1.3478e-05
4.66763e-05
1.18886e-05
3.56277e-05
9.97025e-06
2.50838e-05
7.94208e-06
1.50137e-05
6.31876e-06
5.15236e-06
5.4788e-06
-4.75477e-06
5.35579e-06
-1.47332e-05
5.48069e-06
-2.45479e-05
5.32323e-06
-3.38555e-05
4.63689e-06
-4.23904e-05
3.54126e-06
-5.00437e-05
2.34605e-06
-5.681e-05
1.30865e-06
-6.26862e-05
5.21629e-07
-6.76098e-05
-5.20799e-08
-7.1475e-05
-4.5555e-07
-7.41819e-05
-6.86938e-07
-7.5683e-05
-6.93132e-07
-7.59862e-05
-4.5435e-07
-7.51572e-05
3.81234e-08
-7.3293e-05
7.18813e-07
-7.05358e-05
1.5673e-06
-6.70365e-05
2.49394e-06
-6.29917e-05
3.53603e-06
-5.85721e-05
4.59102e-06
-5.39865e-05
5.74663e-06
-4.93623e-05
6.8066e-06
-4.48892e-05
7.92197e-06
-4.06371e-05
8.77785e-06
-3.68153e-05
9.67793e-06
-3.34465e-05
1.01312e-05
-3.07823e-05
1.06689e-05
-2.87491e-05
1.05194e-05
-2.76274e-05
1.05911e-05
-2.71651e-05
9.72408e-06
-2.76688e-05
9.4158e-06
-2.86238e-05
7.92774e-06
-3.04066e-05
7.58772e-06
-3.21869e-05
5.76137e-06
-3.4548e-05
5.88707e-06
-3.63569e-05
3.98955e-06
-3.86456e-05
5.00299e-06
-3.99753e-05
3.05998e-06
-4.20249e-05
5.15838e-06
-4.28547e-05
2.9121e-06
-4.48749e-05
6.19745e-06
-4.5318e-05
3.30846e-06
-4.75217e-05
7.98339e-06
-4.76222e-05
4.02012e-06
-5.03099e-05
1.02588e-05
-5.02889e-05
4.51107e-06
-5.40976e-05
1.25319e-05
-5.43818e-05
4.28293e-06
-6.00803e-05
1.47357e-05
-6.0873e-05
3.35478e-06
-6.89886e-05
1.72872e-05
-6.99063e-05
1.75292e-06
-8.05463e-05
2.03143e-05
-8.07678e-05
-5.18823e-07
-9.36471e-05
2.34041e-05
-9.30364e-05
-2.3114e-06
-0.000107676
2.58047e-05
-0.000107458
-2.23505e-06
-0.000121885
2.50751e-05
-0.000124363
1.66976e-06
-0.000134757
2.18488e-05
-0.000143025
1.35586e-05
-0.000144043
1.82638e-05
-0.000165058
3.95149e-05
-0.000158167
2.21592e-05
-0.00019152
6.13972e-05
-0.000180138
1.48748e-05
-0.0002198
7.30645e-05
-0.000167308
-4.08047e-05
-0.000214451
1.65462e-05
-0.000210188
7.60009e-05
-9.33655e-05
-0.000331987
-0.000664902
0.0011307
0.000515055
-0.0021288
-0.000773342
0.00223268
0.000467105
-0.00200833
0.00081072
-0.000964453
-0.00193322
0.00515131
1.12593e-05
-0.00334524
0.000448699
-0.000877642
0.001529
-0.0020913
-0.000663012
0.00382443
0.000372941
-0.00154363
0.00343271
-0.00571793
-0.00173856
0.0087131
-0.00134406
0.000285264
0.0110929
-0.0227097
0.000500013
0.0181154
-0.00306466
0.00765054
0.0066003
-0.0179031
0.000495446
0.0119412
0.00292579
-0.00440943
-0.00918984
0.0217537
-0.0013236
-0.0132338
0.00546196
-0.0135745
-0.0207732
0.0481385
-0.00798373
-0.0213389
0.0137144
-0.0401944
-0.0017046
0.0266439
-0.0124951
0.0205048
-0.00737029
0.000249
9.25021e-05
-0.000251747
0.000258113
8.34178e-05
0.000264599
9.0178e-05
0.000263935
9.94909e-05
0.00025324
0.000107865
0.000233644
0.000112586
0.000208188
0.000109726
0.000181302
9.8252e-05
0.000156911
8.07643e-05
0.000136847
6.20241e-05
0.000120909
4.59655e-05
0.000107712
3.45194e-05
9.56329e-05
2.76919e-05
8.34932e-05
2.41731e-05
7.08593e-05
2.21527e-05
5.79487e-05
2.01257e-05
4.52684e-05
1.74545e-05
3.31886e-05
1.44734e-05
2.16836e-05
1.20601e-05
1.0389e-05
1.08983e-05
-1.08213e-06
1.09157e-05
-1.28127e-05
1.13214e-05
-2.45018e-05
1.11946e-05
-3.56706e-05
1.01142e-05
-4.5948e-05
8.32109e-06
-5.52064e-05
6.38934e-06
-6.34851e-05
4.77017e-06
-7.08292e-05
3.58881e-06
-7.71904e-05
2.73463e-06
-8.24482e-05
2.09814e-06
-8.64812e-05
1.66729e-06
-8.92274e-05
1.52234e-06
-9.06836e-05
1.69376e-06
-9.09034e-05
2.19061e-06
-8.99674e-05
2.91775e-06
-8.80057e-05
3.85591e-06
-8.51636e-05
4.89528e-06
-8.1646e-05
6.11228e-06
-7.76349e-05
7.37416e-06
-7.33597e-05
8.81536e-06
-6.89599e-05
1.015e-05
-6.46478e-05
1.15971e-05
-6.05015e-05
1.26959e-05
-5.6759e-05
1.3893e-05
-5.34472e-05
1.44693e-05
-5.08552e-05
1.52085e-05
-4.89015e-05
1.49748e-05
-4.79156e-05
1.51141e-05
-4.76165e-05
1.39084e-05
-4.83784e-05
1.35839e-05
-4.96246e-05
1.15438e-05
-5.18273e-05
1.12582e-05
-5.40427e-05
8.75978e-06
-5.69952e-05
9.1997e-06
-5.93666e-05
6.56412e-06
-6.24096e-05
8.30834e-06
-6.4406e-05
5.52577e-06
-6.7379e-05
8.87621e-06
-6.89707e-05
5.55348e-06
-7.21103e-05
1.07003e-05
-7.34038e-05
6.30485e-06
-7.69606e-05
1.35952e-05
-7.79832e-05
7.44126e-06
-8.23173e-05
1.72453e-05
-8.32742e-05
8.22866e-06
-8.91363e-05
2.1052e-05
-9.04475e-05
7.96134e-06
-9.87884e-05
2.49897e-05
-0.000100615
6.57576e-06
-0.000112196
2.97278e-05
-0.000113983
3.944e-06
-0.000129136
3.55035e-05
-0.000129739
-1.15362e-07
-0.000148329
4.16377e-05
-0.000147523
-3.57109e-06
-0.00016895
4.66529e-05
-0.000168551
-3.32336e-06
-0.000189724
4.55173e-05
-0.000193886
5.39376e-06
-0.000208501
3.6763e-05
-0.00022355
3.03233e-05
-0.000222044
2.02815e-05
-0.000260189
8.32187e-05
-0.000241271
1.04273e-05
-0.000302729
0.000131224
-0.000273817
-5.62258e-06
-0.000340941
0.000148144
-0.000283836
-9.17752e-05
-0.000370597
0.000107314
-0.000305043
1.19136e-05
-0.000217079
-0.000420119
-0.000953275
0.00186597
0.000721819
-0.00380527
-0.00117287
0.00412661
0.00079019
-0.00397226
0.000916082
-0.00107167
-0.00277926
0.00951815
0.000146782
-0.00626804
0.000639598
-0.00124165
0.00204704
-0.00349377
-0.001057
0.00832798
0.000775023
-0.00337946
0.00482134
-0.00975485
-0.0028293
0.0163463
-0.0012985
-0.00125708
0.0157732
-0.039811
-0.00010632
0.0339884
-0.00371521
0.011276
0.00927675
-0.0308333
0.000161844
0.0200211
0.00377
-0.00793668
-0.0135183
0.0390634
-0.00150424
-0.0252484
0.00651205
-0.0215825
-0.0301589
0.0856236
-0.0100068
-0.041495
0.0188013
-0.0690012
-0.00432776
0.049736
-0.0179365
0.034115
-0.0145612
0.000258142
0.000110335
-0.000263495
0.000260267
9.86719e-05
0.000262339
0.000100382
0.00026422
0.00010894
0.000261679
0.000120398
0.000251927
0.000130795
0.000234626
0.000133884
0.000212017
0.000126128
0.000187681
0.000108823
0.000164977
8.69635e-05
0.000145418
6.63227e-05
0.000128758
5.06101e-05
0.000113769
4.08435e-05
9.91672e-05
3.58104e-05
8.42486e-05
3.31538e-05
6.9056e-05
3.0639e-05
5.41137e-05
2.71462e-05
3.99367e-05
2.29994e-05
2.6618e-05
1.94675e-05
1.37584e-05
1.76928e-05
7.89169e-07
1.77456e-05
-1.25592e-05
1.85199e-05
-2.60265e-05
1.85614e-05
-3.90116e-05
1.71134e-05
-5.09799e-05
1.44967e-05
-6.17288e-05
1.16373e-05
-7.13339e-05
9.28972e-06
-7.99163e-05
7.64998e-06
-8.747e-05
6.49906e-06
-9.38708e-05
5.61431e-06
-9.89771e-05
4.95253e-06
-0.000102717
4.63046e-06
-0.000105086
4.69828e-06
-0.000106138
5.1657e-06
-0.000105947
5.9002e-06
-0.000104638
6.88425e-06
-0.000102353
7.99028e-06
-9.93108e-05
9.34666e-06
-9.57061e-05
1.07898e-05
-9.17913e-05
1.2509e-05
-8.77153e-05
1.4114e-05
-8.37118e-05
1.59026e-05
-7.98592e-05
1.7247e-05
-7.64228e-05
1.87621e-05
-7.34212e-05
1.94658e-05
-7.11812e-05
2.04394e-05
-6.95976e-05
2.01215e-05
-6.90537e-05
2.03733e-05
-6.92198e-05
1.88168e-05
-7.05494e-05
1.85368e-05
-7.23764e-05
1.59131e-05
-7.52915e-05
1.5769e-05
-7.81994e-05
1.25385e-05
-8.20058e-05
1.34212e-05
-8.51554e-05
9.94856e-06
-8.91868e-05
1.26206e-05
-9.20288e-05
8.85405e-06
-9.61475e-05
1.37663e-05
-9.86598e-05
9.16274e-06
-0.000103157
1.66354e-05
-0.00010546
1.04154e-05
-0.000110655
2.09732e-05
-0.000112776
1.21086e-05
-0.000119116
2.63936e-05
-0.000121254
1.32914e-05
-0.000129629
3.22509e-05
-0.000132195
1.30592e-05
-0.00014377
3.86253e-05
-0.000146875
1.11961e-05
-0.000162683
4.64756e-05
-0.000165576
7.28174e-06
-0.000186222
5.61843e-05
-0.000187394
8.27077e-07
-0.000212947
6.67739e-05
-0.000212028
-5.02173e-06
-0.000241774
7.57209e-05
-0.000241171
-4.71529e-06
-0.000270797
7.43274e-05
-0.000276731
1.08664e-05
-0.000297097
5.75076e-05
-0.000319608
5.47762e-05
-0.000316383
2.09491e-05
-0.000373803
0.000146694
-0.000342005
-1.36047e-05
-0.000436148
0.000234359
-0.00038647
-4.62939e-05
-0.000488618
0.000258733
-0.000417574
-0.000156464
-0.000549485
0.000243389
-0.000409613
-0.000126512
-0.000389742
-0.000440169
-0.00126743
0.00274238
0.000913473
-0.00598728
-0.0016241
0.00666266
0.00115784
-0.00675545
0.000898589
-0.000792263
-0.00367223
0.0191037
0.000352901
-0.0102991
0.000781527
-0.00172301
0.00251919
-0.00522553
-0.00156188
0.0109992
0.00129209
-0.00623936
0.00614325
-0.0146018
-0.00403479
0.0265002
-0.000962232
-0.0043382
0.0203936
-0.061196
-0.00111905
0.0554949
-0.00401422
0.0141893
0.0119036
-0.0466826
-0.000646455
0.0327627
0.00438835
-0.0128879
-0.018243
0.0617154
-0.0016294
-0.0418617
0.00681334
-0.0300176
-0.0400889
0.132793
-0.0112859
-0.0703015
0.0233552
-0.103641
-0.00804977
0.0811721
-0.0234373
0.0495051
-0.0251712
0.00027059
0.000125832
-0.000273475
0.000271373
0.000115774
0.000269306
0.000114384
0.00026968
0.000119643
0.000270351
0.000129599
0.000268121
0.00014147
0.000259922
0.000149001
0.000245203
0.000146223
0.000225363
0.000132513
0.000203188
0.000111498
0.000181374
8.90529e-05
0.000161209
7.03085e-05
0.000142597
5.76971e-05
0.000124681
5.08002e-05
0.000106659
4.7243e-05
8.83236e-05
4.42176e-05
7.01131e-05
3.99636e-05
5.27151e-05
3.45411e-05
3.65135e-05
2.94945e-05
2.12612e-05
2.65644e-05
6.25134e-06
2.62548e-05
-9.10865e-06
2.73314e-05
-2.47893e-05
2.7717e-05
-4.01485e-05
2.60504e-05
-5.44198e-05
2.25426e-05
-6.72054e-05
1.85073e-05
-7.85573e-05
1.51717e-05
-8.86928e-05
1.29202e-05
-9.76927e-05
1.14144e-05
-0.00010545
1.02475e-05
-0.0001118
9.30207e-06
-0.000116656
8.73784e-06
-0.000120018
8.64348e-06
-0.000121955
9.03616e-06
-0.000122544
9.73412e-06
-0.000121909
1.0716e-05
-0.000120193
1.18344e-05
-0.000117628
1.32861e-05
-0.000114426
1.48777e-05
-0.00011087
1.68666e-05
-0.000107123
1.874e-05
-0.000103447
2.08894e-05
-9.9919e-05
2.24897e-05
-9.6838e-05
2.43578e-05
-9.42092e-05
2.52011e-05
-9.24052e-05
2.64572e-05
-9.12869e-05
2.60599e-05
-9.13046e-05
2.64863e-05
-9.20626e-05
2.45684e-05
-9.41144e-05
2.44173e-05
-9.6677e-05
2.11769e-05
-0.000100491
2.12948e-05
-0.000104268
1.72668e-05
-0.000109144
1.87676e-05
-0.000113264
1.43445e-05
-0.000118527
1.82021e-05
-0.000122417
1.32717e-05
-0.000127956
2.01278e-05
-0.000131602
1.39714e-05
-0.000137771
2.43299e-05
-0.000141308
1.58713e-05
-0.00014851
3.04962e-05
-0.00015197
1.82742e-05
-0.000160762
3.81686e-05
-0.000164337
1.99714e-05
-0.000175775
4.66865e-05
-0.000179869
1.98434e-05
-0.000195367
5.63196e-05
-0.000200029
1.74839e-05
-0.000220941
6.84075e-05
-0.000225215
1.20507e-05
-0.000252481
8.35111e-05
-0.000254459
2.5809e-06
-0.000288418
0.000100302
-0.000287534
-6.4695e-06
-0.000327371
0.00011483
-0.000326621
-6.32116e-06
-0.000366712
0.000113538
-0.000374588
1.82546e-05
-0.000402586
8.59422e-05
-0.000433355
8.76783e-05
-0.00042965
2.14747e-05
-0.000508577
0.000232158
-0.000463638
-5.01998e-05
-0.000595044
0.000375413
-0.000522326
-0.000109374
-0.000666629
0.00041206
-0.000575545
-0.000240818
-0.000726089
0.000398255
-0.000512598
-0.000338708
-0.00062582
-0.000327045
-0.0016075
0.00372296
0.00107516
-0.00867124
-0.00213308
0.00986971
0.00155125
-0.0104415
0.000706846
6.71289e-05
-0.00453807
0.0200783
0.000601132
-0.0154469
0.000842221
-0.00194282
0.00287943
-0.00725948
-0.00212305
0.0161724
0.00189002
-0.0102601
0.00733643
-0.0200468
-0.00530229
0.0391111
-0.000361062
-0.00928835
0.0247965
-0.0863835
-0.00249268
0.0827786
-0.0039465
0.0156619
0.0143037
-0.0648574
-0.00193036
0.0491091
0.00470934
-0.0194389
-0.023372
0.0898197
-0.00178203
-0.0634518
0.00610488
-0.0378996
-0.0500595
0.188131
-0.0117799
-0.108585
0.0271692
-0.142588
-0.0129459
0.121255
-0.0288057
0.0653669
-0.0398387
0.000283859
0.000138058
-0.000283703
0.0002871
0.000130725
0.000284135
0.000128903
0.000283098
0.000131488
0.000284126
0.000138281
0.000285546
0.000148429
0.000284238
0.000157258
0.000277365
0.000158557
0.000264431
0.000149411
0.000246228
0.000132172
0.00022517
0.00011113
0.000203445
9.16547e-05
0.000182185
7.72589e-05
0.000161406
6.86757e-05
0.000140538
6.41437e-05
0.000119166
6.07293e-05
9.74916e-05
5.60627e-05
7.62765e-05
4.96382e-05
5.63124e-05
4.29472e-05
3.77998e-05
3.82925e-05
2.01393e-05
3.69531e-05
2.40419e-06
3.80092e-05
-1.58441e-05
3.88978e-05
-3.41451e-05
3.73704e-05
-5.1512e-05
3.31286e-05
-6.71887e-05
2.77352e-05
-8.10495e-05
2.30685e-05
-9.33754e-05
1.99399e-05
-0.000104384
1.79616e-05
-0.000114026
1.64624e-05
-0.000122113
1.5164e-05
-0.000128524
1.42593e-05
-0.000133266
1.39071e-05
-0.000136435
1.41553e-05
-0.000138127
1.476e-05
-0.00013847
1.568e-05
-0.000137598
1.67354e-05
-0.000135755
1.82103e-05
-0.000133169
1.98871e-05
-0.000130162
2.21127e-05
-0.000126913
2.423e-05
-0.000123721
2.67442e-05
-0.000120662
2.85943e-05
-0.000118076
3.08425e-05
-0.000115951
3.18247e-05
-0.000114717
3.34114e-05
-0.000114193
3.29287e-05
-0.000114913
3.36009e-05
-0.000116397
3.13023e-05
-0.000119328
3.13853e-05
-0.000122773
2.74863e-05
-0.000127667
2.80213e-05
-0.000132477
2.31167e-05
-0.000138635
2.54618e-05
-0.000143908
1.9949e-05
-0.000150654
2.53193e-05
-0.000155797
1.89989e-05
-0.000163055
2.82739e-05
-0.000168059
2.02168e-05
-0.000176259
3.41496e-05
-0.000181278
2.29257e-05
-0.00019092
4.2601e-05
-0.000195987
2.62127e-05
-0.000207758
5.31041e-05
-0.000213059
2.85636e-05
-0.000228209
6.50118e-05
-0.000234132
2.86165e-05
-0.00025436
7.88786e-05
-0.000260886
2.57417e-05
-0.000287926
9.65443e-05
-0.000293875
1.85459e-05
-0.00032907
0.000118793
-0.000332119
5.41182e-06
-0.000376143
0.000143886
-0.000375476
-7.72847e-06
-0.000427429
0.000166006
-0.000426633
-8.03952e-06
-0.000479488
0.000165439
-0.000489551
2.77899e-05
-0.000527391
0.000124264
-0.000567342
0.000129951
-0.000564794
2.35112e-05
-0.000667586
0.000342005
-0.000609741
-9.9073e-05
-0.000783048
0.000559067
-0.000685614
-0.000196507
-0.00087913
0.000615196
-0.000764763
-0.000348066
-0.000951524
0.000589608
-0.000782963
-0.000505727
-0.000977675
-0.000132497
-0.00197387
0.00471759
0.00118918
-0.0118356
-0.00271109
0.0137685
0.00194923
-0.0151036
0.000386924
0.00163204
-0.00538364
0.0246963
0.000848226
-0.0216854
0.000794108
-0.00189082
0.00318115
-0.00964431
-0.00281197
0.0221363
0.00251971
-0.0156002
0.00833769
-0.025865
-0.00658603
0.0540037
0.000443123
-0.0163269
0.0288238
-0.114795
-0.00416829
0.115765
-0.00353949
0.0150532
0.0163391
-0.0846538
-0.00368549
0.0692003
0.0046481
-0.0276775
-0.028919
0.12341
-0.00205994
-0.090311
0.00447967
-0.0444371
-0.0601283
0.251812
-0.0115652
-0.157149
0.029892
-0.184043
-0.0188384
0.170023
-0.0338131
0.0803438
-0.0591473
0.000297177
0.000147804
-0.000294961
0.000303557
0.000142762
0.000301852
0.000141759
0.000300885
0.000142952
0.000301758
0.000146889
0.000304223
0.000154199
0.000306307
0.000162073
0.000305034
0.000165322
0.000298211
0.000160261
0.000285541
0.000147397
0.00026785
0.000129921
0.000247272
0.000111925
0.0002256
9.72803e-05
0.000203712
8.76695e-05
0.000181533
8.23097e-05
0.000158578
7.87027e-05
0.000134679
7.41767e-05
0.00011039
6.75047e-05
8.67755e-05
5.96515e-05
6.4692e-05
5.31089e-05
4.40743e-05
5.00542e-05
2.39442e-05
5.04704e-05
3.28499e-06
5.18366e-05
-1.79794e-05
5.09793e-05
-3.88672e-05
4.65627e-05
-5.81724e-05
3.99446e-05
-7.53413e-05
3.3674e-05
-9.05652e-05
2.93235e-05
-0.000104208
2.66885e-05
-0.000116344
2.48054e-05
-0.000126775
2.31024e-05
-0.000135327
2.1751e-05
-0.000141986
2.10163e-05
-0.00014689
2.10292e-05
-0.000150173
2.1482e-05
-0.000151976
2.22853e-05
-0.000152416
2.31944e-05
-0.000151735
2.45977e-05
-0.000150169
2.62625e-05
-0.000148085
2.86607e-05
-0.000145678
3.09667e-05
-0.000143293
3.38266e-05
-0.000141002
3.58935e-05
-0.000139199
3.85319e-05
-0.000137845
3.96281e-05
-0.000137446
4.1584e-05
-0.00013776
4.09868e-05
-0.000139431
4.19756e-05
-0.00014187
3.92533e-05
-0.000145923
3.96885e-05
-0.000150471
3.50637e-05
-0.000156696
3.62012e-05
-0.000162759
3.03101e-05
-0.000170468
3.37772e-05
-0.000177119
2.69935e-05
-0.00018565
3.42825e-05
-0.00019228
2.62826e-05
-0.000201606
3.85656e-05
-0.000208221
2.8164e-05
-0.000218865
4.65197e-05
-0.000225637
3.18607e-05
-0.000238217
5.77943e-05
-0.000245184
3.62241e-05
-0.000260542
7.18165e-05
-0.000267879
3.93864e-05
-0.000287492
8.79867e-05
-0.000295566
3.9708e-05
-0.000321464
0.000107246
-0.000330179
3.62961e-05
-0.000364535
0.000132073
-0.000372478
2.70817e-05
-0.000417115
0.000163538
-0.000421532
9.61489e-06
-0.000477527
0.000199427
-0.000477321
-8.5532e-06
-0.00054369
0.000231552
-0.000543059
-9.657e-06
-0.000611277
0.000232636
-0.000623933
3.98833e-05
-0.000674162
0.000175023
-0.000724458
0.000182767
-0.000725133
2.91386e-05
-0.000854371
0.000478839
-0.00078447
-0.000159346
-0.00100445
0.000790131
-0.0008814
-0.000308558
-0.00113134
0.000875405
-0.000992092
-0.000479755
-0.00122692
0.000829322
-0.00106076
-0.000670358
-0.00130315
0.000109727
-0.00242339
0.00583653
0.00123314
-0.0154938
-0.00337686
0.0183773
0.00232457
-0.0208071
-0.000114304
0.00406745
-0.00615663
0.0304113
0.0010325
-0.0288798
0.000617429
-0.00148181
0.0033474
-0.012373
-0.00358952
0.0290835
0.0031058
-0.0223045
0.00908014
-0.0318406
-0.00785253
0.0709025
0.00135205
-0.02554
0.0323296
-0.145805
-0.00608625
0.154175
-0.00287864
0.0118668
0.0178681
-0.105311
-0.00588529
0.0930068
0.00410913
-0.0375696
-0.0349003
0.162445
-0.00259844
-0.122613
0.00158904
-0.0486239
-0.0699734
0.323324
-0.0107356
-0.216387
0.0315571
-0.226333
-0.0255392
0.227099
-0.038255
0.0930621
-0.0836439
0.000310343
0.00015574
-0.000306846
0.000319359
0.000152295
0.00031951
0.000152289
0.00031961
0.000152966
0.000320698
0.000154977
0.000323138
0.000159773
0.000326064
0.000165916
0.000327304
0.000169524
0.000324429
0.00016717
0.00031641
0.000158009
0.000302947
0.000144533
0.000285296
0.000129312
0.000265231
0.000115719
0.000244132
0.000105859
0.000222471
9.98847e-05
0.000199903
9.61383e-05
0.00017591
9.21386e-05
0.000150535
8.61015e-05
0.000124689
7.81228e-05
9.97092e-05
7.02548e-05
7.63764e-05
6.5218e-05
5.42076e-05
6.42509e-05
3.18651e-05
6.5692e-05
8.46089e-06
6.59367e-05
-1.55115e-05
6.2291e-05
-3.85837e-05
5.51599e-05
-5.95587e-05
4.73803e-05
-7.82327e-05
4.15295e-05
-9.50006e-05
3.80072e-05
-0.000110113
3.56976e-05
-0.00012342
3.36026e-05
-0.000134672
3.1745e-05
-0.000143795
3.05038e-05
-0.000150953
3.01796e-05
-0.000156345
3.04322e-05
-0.000160149
3.10946e-05
-0.000162453
3.1795e-05
-0.00016348
3.30298e-05
-0.000163454
3.45609e-05
-0.000162782
3.70398e-05
-0.000161676
3.94474e-05
-0.000160537
4.26102e-05
-0.000159427
4.48314e-05
-0.000158807
4.78536e-05
-0.000158603
4.90119e-05
-0.000159414
5.13679e-05
-0.000160917
5.05979e-05
-0.000163892
5.19732e-05
-0.00016761
4.87506e-05
-0.000173124
4.96686e-05
-0.000179078
4.42133e-05
-0.000186968
4.61713e-05
-0.000194572
3.91385e-05
-0.000204178
4.40644e-05
-0.00021249
3.57676e-05
-0.000223177
4.5474e-05
-0.000231579
3.54189e-05
-0.00024339
5.14356e-05
-0.000251906
3.81197e-05
-0.00026548
6.19415e-05
-0.00027431
4.29942e-05
-0.000290409
7.66691e-05
-0.000299595
4.86384e-05
-0.00031925
9.50241e-05
-0.000328958
5.27834e-05
-0.000353912
0.000116497
-0.000364483
5.34705e-05
-0.000397147
0.000142525
-0.000408401
4.94994e-05
-0.000451462
0.00017638
-0.000461749
3.80057e-05
-0.000517585
0.000219501
-0.000523725
1.55412e-05
-0.000593877
0.000269112
-0.000594487
-8.59071e-06
-0.000677873
0.000314069
-0.000677809
-1.07692e-05
-0.000764297
0.000318037
-0.000780246
5.52401e-05
-0.00084573
0.000241098
-0.000907921
0.00024769
-0.000914294
4.08559e-05
-0.0010729
0.000645611
-0.000992451
-0.000229478
-0.00126407
0.00107361
-0.00111539
-0.000445503
-0.00142922
0.0012002
-0.0012647
-0.000636217
-0.00155779
0.00112764
-0.00138756
-0.000838948
-0.00164304
0.000364998
-0.00282034
0.00701211
0.00117726
-0.0194928
-0.00416567
0.0237184
0.00264496
-0.0276198
-0.000804451
0.0075121
-0.00685407
0.0364589
0.00108471
-0.0368237
0.000302389
-0.000699856
0.00337513
-0.0154448
-0.00451857
0.036955
0.00355402
-0.0303863
0.00949694
-0.0377854
-0.00908275
0.0894459
0.00222531
-0.036859
0.0351914
-0.178805
-0.00820709
0.197568
-0.00212309
0.00580517
0.0187558
-0.126092
-0.0084417
0.120284
0.0029918
-0.0488923
-0.0413324
0.206795
-0.00355882
-0.160386
-0.00240415
-0.049778
-0.0793824
0.400233
-0.00947171
-0.286298
0.0320767
-0.267878
-0.0327136
0.291901
-0.0419429
0.102294
-0.11517
0.000323817
0.000162303
-0.00031957
0.000334798
0.000159875
0.00033648
0.000160748
0.000337782
0.000161333
0.000339338
0.000162226
0.00034155
0.000165283
0.000344143
0.000169883
0.000345815
0.000173166
0.000344704
0.00017225
0.000339308
0.000165969
0.000329382
0.000155608
0.000314971
0.00014346
0.00029744
0.000131607
0.000278222
0.00012211
0.000258185
0.000115716
0.000237302
0.000111687
0.00021494
0.000108164
0.000190607
0.000103235
0.000164641
9.61702e-05
0.000138328
8.80747e-05
0.000113136
8.14812e-05
8.9523e-05
7.86404e-05
6.64605e-05
7.93804e-05
4.23942e-05
8.06438e-05
1.68301e-05
7.87013e-05
-9.08922e-06
7.2346e-05
-3.36249e-05
6.38349e-05
-5.58501e-05
5.65646e-05
-7.5889e-05
5.19844e-05
-9.41264e-05
4.92251e-05
-0.000110547
4.68561e-05
-0.000124849
4.45614e-05
-0.000136838
4.27585e-05
-0.000146659
4.20134e-05
-0.000154582
4.20425e-05
-0.000160856
4.25994e-05
-0.000165555
4.30933e-05
-0.000168854
4.41029e-05
-0.000170931
4.53812e-05
-0.000172222
4.7836e-05
-0.000172943
5.02324e-05
-0.00017356
5.36369e-05
-0.000174116
5.59215e-05
-0.000175157
5.93096e-05
-0.00017656
6.04528e-05
-0.000179042
6.32391e-05
-0.000182171
6.22088e-05
-0.000186896
6.40457e-05
-0.0001923
6.02054e-05
-0.000199701
6.17543e-05
-0.000207439
5.53143e-05
-0.000217413
5.83523e-05
-0.000226915
4.99606e-05
-0.000238843
5.67549e-05
-0.000249158
4.66202e-05
-0.000262453
5.93562e-05
-0.000272959
4.67547e-05
-0.000287755
6.73993e-05
-0.000298507
5.04345e-05
-0.000315586
8.10073e-05
-0.000326813
5.66827e-05
-0.000347115
9.99231e-05
-0.000358872
6.38192e-05
-0.000383655
0.00012357
-0.000396095
6.91268e-05
-0.00042742
0.000151583
-0.000440858
7.02823e-05
-0.000481579
0.00018601
-0.000495748
6.57317e-05
-0.000549138
0.000231092
-0.00056216
5.17065e-05
-0.000631236
0.000288719
-0.000639531
2.36187e-05
-0.000726339
0.000355435
-0.000728281
-7.32767e-06
-0.000831595
0.000416467
-0.0008328
-1.06752e-05
-0.000940737
0.000424823
-0.000961143
7.50295e-05
-0.001045
0.00032562
-0.00112123
0.00032688
-0.00113612
6.15156e-05
-0.00132754
0.000845797
-0.00123874
-0.000307239
-0.00156724
0.00141478
-0.00139394
-0.000606284
-0.00177944
0.00159741
-0.00159043
-0.000816628
-0.00195168
0.00149449
-0.00177795
-0.00101092
-0.00209052
0.000677392
-0.00341427
0.00833417
0.00106034
-0.0239691
-0.00522839
0.0300061
0.00287899
-0.0357297
-0.00170051
0.012087
-0.00746791
0.0422275
0.000921719
-0.0452186
-0.000148682
0.000370454
0.00321273
-0.0188055
-0.00561518
0.0457776
0.00374913
-0.0397601
0.00952179
-0.0435603
-0.0103164
0.109246
0.00290144
-0.0500623
0.0373182
-0.213256
-0.0105346
0.245414
-0.00150582
-0.00319988
0.0189187
-0.14641
-0.0112963
0.150544
0.00119663
-0.0612648
-0.0482244
0.256242
-0.00513015
-0.20348
-0.00740917
-0.047498
-0.0880763
0.480842
-0.00801757
-0.366357
0.0316249
-0.307517
-0.0399952
0.36352
-0.0447316
0.107033
-0.151213
0.000336609
0.00016718
-0.000331374
0.000349168
0.000165752
0.000352168
0.000167279
0.000354668
0.000167997
0.000356866
0.000168394
0.000359035
0.000170467
0.000361135
0.000174057
0.000362427
0.000176979
0.000361621
0.000176882