/*--------------------------------*- C++ -*----------------------------------*\
| =========                 |                                                 |
| \\      /  F ield         | OpenFOAM: The Open Source CFD Toolbox           |
|  \\    /   O peration     | Version:  2412                                  |
|   \\  /    A nd           | Website:  www.openfoam.com                      |
|    \\/     M anipulation  |                                                 |
\*---------------------------------------------------------------------------*/
FoamFile
{
    version     2.0;
    format      ascii;
    arch        "LSB;label=32;scalar=64";
    class       surfaceScalarField;
    location    "1.29";
    object      phi_0;
}
// * * * * * * * * * * * * * * * * * * * * * * * * * * * * * * * * * * * * * //

dimensions      [0 3 -1 0 0 0 0];

oriented        oriented;

internalField   nonuniform List<scalar> 
24930
(
0.0179829
0.0127741
-0.0307577
0.0106096
0.0073733
0.00695466
0.00365497
0.00517665
0.00177801
0.00420365
0.000973004
0.0035802
0.000623451
0.00313391
0.000446288
0.00279416
0.000339748
0.00252481
0.000269355
0.00230476
0.000220046
0.00212086
0.000183905
0.00196436
0.000156503
0.0018292
0.000135158
0.00171104
0.000118163
0.00160666
0.000104381
0.00151363
9.30297e-05
0.00143008
8.35528e-05
0.00135453
7.55473e-05
0.00128581
6.87146e-05
0.00122299
6.28294e-05
0.00116527
5.77187e-05
0.00111202
5.32482e-05
0.00106271
4.93119e-05
0.00101688
4.58254e-05
0.00097416
4.27205e-05
0.000934218
3.9942e-05
0.000896773
3.74444e-05
0.000861583
3.519e-05
0.000828435
3.31478e-05
0.000797143
3.12911e-05
0.000767545
2.95981e-05
0.000739494
2.80496e-05
0.000712864
2.663e-05
0.000687538
2.53247e-05
0.000663415
2.41231e-05
0.000640401
2.3013e-05
0.000618412
2.19879e-05
0.000597375
2.1037e-05
0.000577217
2.01572e-05
0.000557879
1.93376e-05
0.000539299
1.85792e-05
0.000521429
1.78694e-05
0.000504215
1.7214e-05
0.000487618
1.6597e-05
0.000471587
1.60304e-05
0.000456094
1.54925e-05
0.000441091
1.50036e-05
0.000426557
1.45338e-05
0.000412443
1.41141e-05
0.000398739
1.37033e-05
0.000385393
1.33465e-05
0.000372406
1.29871e-05
0.000359717
1.26884e-05
0.000347343
1.23737e-05
0.000335213
1.21299e-05
0.000323359
1.18543e-05
0.000311696
1.16631e-05
0.000300274
1.14213e-05
0.000288993
1.12817e-05
0.000277924
1.10689e-05
0.000266943
1.09803e-05
0.000256152
1.07918e-05
0.000245397
1.07547e-05
0.000234812
1.05853e-05
0.000224211
1.06006e-05
0.000213767
1.04448e-05
0.000203253
1.05135e-05
0.000192888
1.03655e-05
0.0001824
1.04878e-05
0.00017206
1.03408e-05
0.000161545
1.05155e-05
0.000151183
1.03614e-05
0.000140598
1.0585e-05
0.000130185
1.04134e-05
0.000119505
1.06802e-05
0.000109028
1.04771e-05
9.8246e-05
1.07823e-05
8.77215e-05
1.05246e-05
7.68469e-05
1.08747e-05
6.63325e-05
1.05145e-05
5.53866e-05
1.0946e-05
4.4999e-05
1.03877e-05
3.40027e-05
1.09964e-05
2.39223e-05
1.00806e-05
1.29475e-05
1.0975e-05
3.17567e-06
9.77187e-06
-7.64716e-06
1.08228e-05
-1.61634e-05
8.5162e-06
-2.80215e-05
1.1858e-05
-3.44244e-05
6.40297e-06
-4.73984e-05
1.29737e-05
-5.26465e-05
5.24835e-06
-6.20482e-05
9.40073e-06
-7.27792e-05
1.07321e-05
-7.25913e-05
-1.88645e-07
-9.30875e-05
2.04954e-05
-8.60201e-05
-7.10602e-06
-0.000104657
1.86352e-05
-9.75927e-05
-6.8539e-06
-0.000121435
2.38418e-05
-0.000117607
-3.82273e-06
-0.000131614
1.40063e-05
-0.000136742
5.12494e-06
-0.000161974
2.52349e-05
-0.000152687
-9.28749e-06
-0.000164591
1.18983e-05
-0.000231719
6.71357e-05
-0.000180369
-5.13502e-05
-0.000249969
6.95966e-05
-0.000246846
-3.11141e-06
-0.000288823
4.19791e-05
-0.00034939
6.05728e-05
-0.000275902
-7.34926e-05
-0.000381976
0.000106076
-0.000429703
4.77538e-05
-0.000276905
-0.000152807
-0.000399563
0.000122654
-0.000413134
1.35756e-05
-0.000303603
-0.000109529
-0.000125433
0.0337046
0.0163452
-0.0372756
0.0277603
0.0133176
0.0222008
0.00921446
0.0179215
0.0060573
0.0148719
0.00402256
0.0127092
0.00278617
0.0111206
0.00203486
0.00990253
0.00155786
0.00893453
0.00123736
0.0081436
0.00101098
0.00748292
0.000844583
0.00692116
0.000718261
0.00643652
0.000619803
0.0060133
0.000541386
0.00563989
0.000477793
0.0053075
0.000425418
0.00500935
0.000381702
0.00474011
0.000344787
0.00449553
0.000313293
0.00427218
0.00028618
0.00406726
0.000262647
0.00387843
0.000242074
0.00370377
0.000223969
0.00354166
0.000207942
0.0033907
0.000193677
0.00324972
0.000180919
0.00311771
0.000169457
0.00299378
0.000159118
0.00287717
0.000149755
0.00276721
0.000141249
0.00266331
0.000133496
0.00256496
0.000126408
0.00247167
0.000119912
0.00238305
0.000113943
0.00229872
0.000108449
0.00221836
0.000103377
0.00214165
9.86928e-05
0.00206834
9.43517e-05
0.00199816
9.03321e-05
0.0019309
8.65939e-05
0.00186635
8.31286e-05
0.00180433
7.98943e-05
0.00174464
7.68975e-05
0.00168715
7.40893e-05
0.00163169
7.14942e-05
0.00157813
6.90503e-05
0.00152633
6.68051e-05
0.00147618
6.46757e-05
0.00142756
6.27396e-05
0.00138038
6.08844e-05
0.0013345
5.92261e-05
0.00128987
5.76117e-05
0.00124635
5.62073e-05
0.00120392
5.48058e-05
0.00116241
5.36372e-05
0.00112184
5.24252e-05
0.00108203
5.14791e-05
0.00104301
5.0436e-05
0.00100459
4.97034e-05
0.000966848
4.88106e-05
0.000929542
4.82857e-05
0.000892808
4.75256e-05
0.000856358
4.72056e-05
0.000820383
4.65602e-05
0.000784539
4.64446e-05
0.000749089
4.58944e-05
0.000713621
4.59824e-05
0.00067848
4.55065e-05
0.000643173
4.57946e-05
0.000608145
4.53693e-05
0.000572814
4.58472e-05
0.000537731
4.54442e-05
0.000502229
4.60881e-05
0.000466965
4.56773e-05
0.000431205
4.64406e-05
0.000395687
4.59959e-05
0.000359662
4.68071e-05
0.000323881
4.63064e-05
0.000287676
4.708e-05
0.000251717
4.64728e-05
0.000215504
4.71598e-05
0.000179604
4.62873e-05
0.000143581
4.70201e-05
0.000108236
4.54258e-05
7.25376e-05
4.66737e-05
3.84902e-05
4.38195e-05
3.64287e-06
4.56703e-05
-2.81051e-05
4.02643e-05
-6.56539e-05
4.94069e-05
-8.98568e-05
3.0606e-05
-0.000132893
5.60101e-05
-0.000148932
2.12869e-05
-0.000187079
4.75491e-05
-0.000213269
3.69206e-05
-0.000227092
1.36351e-05
-0.000280123
7.35256e-05
-0.000271827
-1.53616e-05
-0.000321133
6.79417e-05
-0.000312397
-1.57907e-05
-0.000379244
9.06891e-05
-0.00037559
-7.48792e-06
-0.000417528
5.59449e-05
-0.000440432
2.80313e-05
-0.00051843
0.000103231
-0.00048327
-4.44471e-05
-0.000552567
8.11967e-05
-0.000722162
0.000236727
-0.000596585
-0.000176925
-0.000798009
0.000271023
-0.000796683
-4.45749e-06
-0.000937319
0.000182617
-0.00109318
0.00021643
-0.000895219
-0.000271448
-0.00123695
0.000447805
-0.00130952
0.00012028
-0.000901721
-0.000560602
-0.00125938
0.000480313
-0.00129573
4.99324e-05
-0.000904264
-0.00050099
-0.000506843
0.0414781
0.0160426
-0.0411755
0.0391838
0.0156119
0.0352484
0.0131499
0.0309564
0.0103492
0.0270369
0.0079421
0.0237442
0.00607883
0.0210671
0.00471201
0.0188963
0.00372864
0.0171171
0.00301659
0.0156366
0.00249142
0.0143859
0.00209528
0.0133146
0.0017896
0.0123857
0.00154874
0.0115716
0.00135542
0.0108517
0.00119777
0.0102097
0.00106737
0.00963322
0.000958187
0.00911225
0.000865755
0.0086388
0.000786747
0.00820636
0.000718626
0.00780957
0.000659432
0.00744401
0.000607635
0.00710596
0.000562022
0.00679228
0.000521622
0.0065003
0.000485651
0.00622775
0.00045347
0.00597265
0.000424553
0.00573331
0.000398463
0.00550822
0.000374838
0.0052961
0.000353371
0.00509579
0.000333805
0.00490628
0.000315919
0.00472666
0.000299528
0.00455613
0.000284468
0.00439398
0.000270604
0.00423954
0.000257809
0.00409225
0.00024599
0.00395156
0.00023504
0.00381699
0.000224898
0.00368811
0.000215471
0.00356451
0.000206726
0.00344583
0.000198572
0.00333172
0.000191005
0.00322188
0.000183928
0.00311601
0.00017737
0.00301384
0.000171214
0.00291512
0.000165531
0.00281962
0.000160173
0.0027271
0.00015526
0.00263739
0.000150597
0.00255024
0.000146374
0.00246552
0.000142325
0.002383
0.000138727
0.00230259
0.000135224
0.00222402
0.000132202
0.00214726
0.000129189
0.00207203
0.000126706
0.00199833
0.000124133
0.00192587
0.000122163
0.00185469
0.000119988
0.00178447
0.00011851
0.0017153
0.000116695
0.00164681
0.000115697
0.00157917
0.000114202
0.00151193
0.000113677
0.00144537
0.000112459
0.00137895
0.000112401
0.00131304
0.000111415
0.00124703
0.000111808
0.0011814
0.000111003
0.00111543
0.000111819
0.00104974
0.000111135
0.000983518
0.000112306
0.000917509
0.000111686
0.000850872
0.000113078
0.000784372
0.000112497
0.0007173
0.000113879
0.000650234
0.000113373
0.000582905
0.00011441
0.000515338
0.00011404
0.000448129
0.000114369
0.000380363
0.000114054
0.000313728
0.000113655
0.000246562
0.000112592
0.000180721
0.000112515
0.000115741
0.000108799
5.03311e-05
0.000111081
-1.01699e-05
0.000100765
-7.82149e-05
0.000117452
-0.000125948
7.83395e-05
-0.000205361
0.000135423
-0.000235413
5.13385e-05
-0.000311125
0.000123261
-0.000353504
7.93e-05
-0.000390574
5.07051e-05
-0.000477273
0.000160225
-0.000473543
-1.90704e-05
-0.000556782
0.00015118
-0.000551853
-2.07331e-05
-0.000666087
0.000204924
-0.000665698
-7.85693e-06
-0.000741551
0.000131798
-0.000788171
7.46506e-05
-0.00092375
0.00023881
-0.000862829
-0.000105368
-0.00101177
0.000230138
-0.00127615
0.000501108
-0.00108328
-0.000369792
-0.00143009
0.000617832
-0.00142983
-4.68428e-06
-0.00168595
0.000438744
-0.00192675
0.00045723
-0.00161209
-0.000586114
-0.00221456
0.00105029
-0.0022677
0.000173482
-0.00161559
-0.00121272
-0.00222827
0.001093
-0.00225753
7.91685e-05
-0.00152472
-0.00123381
-0.00118514
0.0459417
0.0147436
-0.0446427
0.0460227
0.0155309
0.0444403
0.0147323
0.0417123
0.0130773
0.038464
0.0111903
0.0351548
0.00938803
0.0320525
0.00781432
0.0292716
0.00650955
0.026831
0.00545725
0.0247044
0.00461795
0.0228508
0.0039489
0.0212281
0.00341231
0.019799
0.00297781
0.0185323
0.00262211
0.0174024
0.00232771
0.0163883
0.00208144
0.0154731
0.0018734
0.0146428
0.00169605
0.013886
0.00154361
0.013193
0.00141157
0.012556
0.00129641
0.0119683
0.00119533
0.0114243
0.00110609
0.010919
0.00102689
0.0104484
0.000956237
0.0100089
0.000892936
0.00959751
0.000835985
0.00921143
0.000784547
0.00884834
0.000737926
0.00850618
0.000695532
0.00818311
0.000656867
0.00787753
0.000621503
0.00758798
0.000589078
0.00731317
0.000559274
0.00705194
0.000531827
0.00680326
0.000506491
0.00656617
0.000483076
0.00633983
0.000461383
0.00612345
0.00044128
0.00591632
0.000422597
0.00571779
0.000405251
0.00552728
0.000389086
0.00534421
0.000374069
0.0051681
0.000360036
0.00499846
0.000347009
0.00483488
0.000334801
0.00467691
0.000323499
0.00452421
0.000312871
0.00437639
0.000303085
0.00423314
0.000293839
0.00409411
0.000285403
0.00395906
0.000277379
0.00382762
0.000270165
0.00369962
0.00026323
0.00357468
0.000257136
0.00345269
0.000251182
0.00333326
0.000246131
0.00321633
0.000241065
0.0031015
0.000236998
0.00298874
0.000232741
0.00287764
0.000229614
0.00276824
0.000226093
0.00266006
0.000223877
0.00255324
0.00022102
0.00244722
0.000219695
0.00234226
0.000217429
0.00223768
0.000216975
0.00213388
0.000215217
0.00203009
0.000215603
0.00192683
0.000214262
0.00182322
0.000215425
0.00171996
0.000214397
0.00161607
0.000216201
0.00151236
0.000215395
0.00140787
0.000217562
0.0013034
0.000216967
0.00119828
0.000219005
0.00109287
0.000218776
0.000987371
0.000219914
0.000881053
0.000220359
0.000775774
0.000219648
0.000668895
0.000220933
0.000564599
0.000217952
0.00045828
0.000218911
0.000355339
0.000215456
0.000252058
0.000212081
0.000149575
0.000213563
5.3742e-05
0.000196599
-5.24229e-05
0.000223617
-0.000130544
0.00015646
-0.000253707
0.000258586
-0.000302761
0.000100392
-0.000424691
0.000245192
-0.000486736
0.000141344
-0.000555468
0.000119438
-0.000679928
0.000284684
-0.000685288
-1.37448e-05
-0.000809286
0.000275178
-0.00081183
-1.81861e-05
-0.00098107
0.000374163
-0.000985581
-3.34399e-06
-0.00110453
0.000250746
-0.00117977
0.000149893
-0.00137813
0.000437167
-0.00129617
-0.000187331
-0.001543
0.000476973
-0.00189855
0.000856653
-0.00164307
-0.000625266
-0.00215253
0.00112729
-0.00214922
-8.02421e-06
-0.00253669
0.000826216
-0.00285428
0.000774817
-0.00243012
-0.00101027
-0.00331157
0.00193174
-0.00330477
0.000166582
-0.0024174
-0.00210009
-0.00330208
0.00197769
-0.00327962
5.67537e-05
-0.00214915
-0.00236428
-0.00221465
0.0494087
0.0135497
-0.0482148
0.0503713
0.0145683
0.0503876
0.014716
0.0493629
0.0141021
0.0475148
0.0130384
0.0451364
0.0117664
0.0424996
0.0104512
0.039811
0.00919812
0.0372057
0.00806259
0.0347581
0.0070655
0.0325006
0.00620645
0.0304389
0.00547394
0.0285648
0.00485196
0.0268631
0.00432382
0.0253167
0.00387411
0.0239086
0.00348949
0.0226232
0.00315882
0.0214463
0.00287291
0.0203656
0.00262432
0.0193702
0.00240697
0.0184507
0.00221591
0.017599
0.00204711
0.0168078
0.00189726
0.0160711
0.00176363
0.0153833
0.00164396
0.0147399
0.00153638
0.0141366
0.0014393
0.0135697
0.0013514
0.0130361
0.00127156
0.0125328
0.00119881
0.0120573
0.00113235
0.0116073
0.00107148
0.0111808
0.00101559
0.0107759
0.000964164
0.010391
0.000916754
0.0100245
0.000872952
0.00967518
0.000832434
0.00934169
0.000794874
0.00902294
0.000760036
0.00871788
0.000727646
0.00842558
0.00069755
0.00814517
0.000669496
0.00787583
0.000643407
0.00761684
0.000619032
0.00736747
0.000596373
0.00712712
0.000575152
0.00689516
0.000555465
0.00667105
0.000536978
0.00645423
0.000519902
0.00624426
0.000503812
0.0060406
0.000489059
0.00584289
0.000475089
0.00565062
0.000462433
0.0054635
0.000450359
0.00528101
0.000439622
0.00510294
0.000429257
0.00492877
0.000420301
0.00475834
0.000411491
0.00459113
0.000404208
0.00442705
0.000396819
0.00426554
0.00039113
0.00410659
0.000385043
0.00394957
0.000380889
0.0037946
0.000375989
0.00364097
0.000373331
0.0034889
0.000369497
0.00333758
0.000368296
0.0031874
0.000365399
0.00303741
0.000365596
0.00288818
0.00036349
0.00273863
0.000364978
0.00258953
0.000363499
0.00243968
0.000366044
0.00229003
0.000365053
0.00213941
0.000368174
0.00198869
0.000367691
0.00183719
0.00037051
0.00168508
0.000370883
0.00153301
0.000371984
0.00137946
0.00037391
0.00122766
0.000371444
0.00107306
0.000375537
0.000922637
0.000368374
0.000768436
0.000373112
0.000619973
0.00036392
0.000469618
0.000362436
0.000321771
0.000361411
0.00018193
0.00033644
2.9531e-05
0.000376016
-8.72405e-05
0.000273232
-0.000262803
0.000434149
-0.000337283
0.000174872
-0.00051559
0.000423498
-0.00060191
0.000227664
-0.000712345
0.000229873
-0.000879367
0.000451707
-0.000899877
6.80066e-06
-0.00107264
0.000447941
-0.00108706
-3.76279e-06
-0.00132002
0.000607119
-0.00133169
8.33258e-06
-0.00150465
0.000423705
-0.00161345
0.000258694
-0.00188085
0.000704565
-0.00178494
-0.000283243
-0.00214731
0.000839344
-0.00259002
0.00129936
-0.00227976
-0.000935522
-0.00296749
0.00181502
-0.00295631
-1.91801e-05
-0.00349074
0.00136065
-0.00387518
0.00115926
-0.00335148
-0.00153397
-0.0045237
0.00310396
-0.0044151
5.81032e-05
-0.00330618
-0.00320901
-0.00446639
0.0031379
-0.00433865
-7.10364e-05
-0.0027541
-0.00394882
-0.00366216
0.0528678
0.012652
-0.0519701
0.0538955
0.0135406
0.0545782
0.0140333
0.0546456
0.0140347
0.0540448
0.0136391
0.0528453
0.0129659
0.0511765
0.01212
0.0491848
0.0111898
0.0470051
0.0102422
0.0447482
0.00932244
0.0424963
0.00845834
0.0403056
0.00766466
0.0382107
0.00694689
0.0362301
0.00630444
0.0343711
0.00573307
0.032634
0.00522662
0.0310146
0.00477822
0.0295064
0.00438106
0.028102
0.00402876
0.0267934
0.00371556
0.0255729
0.00343638
0.0244332
0.0031868
0.0233675
0.00296302
0.0223693
0.00276175
0.0214331
0.00258018
0.0205536
0.00241591
0.019726
0.00226686
0.0189462
0.00213125
0.0182102
0.00200755
0.0175146
0.00189444
0.0168562
0.00179076
0.0162321
0.00169552
0.0156398
0.00160786
0.015077
0.00152702
0.0145414
0.00145233
0.0140312
0.00138321
0.0135444
0.00131916
0.0130796
0.0012597
0.0126351
0.00120448
0.0122097
0.00115307
0.011802
0.00110525
0.0114109
0.00106063
0.0110352
0.00101908
0.010674
0.000980243
0.0103263
0.000944087
0.00999122
0.000910222
0.00966794
0.000878747
0.00935571
0.000849205
0.00905377
0.000821847
0.00876148
0.000796102
0.00847812
0.000772411
0.00820318
0.000750033
0.00793596
0.00072965
0.00767603
0.000710289
0.00742272
0.000692931
0.00717568
0.000676299
0.00693424
0.000661743
0.00669813
0.000647598
0.00646667
0.000635672
0.00623968
0.00062381
0.00601643
0.00061438
0.00579685
0.000604619
0.00558015
0.000597591
0.00536638
0.000589756
0.00515465
0.00058506
0.00494518
0.000578972
0.00473693
0.000576544
0.00453032
0.000572012
0.00432416
0.000571756
0.00411908
0.000568564
0.00391375
0.000570314
0.00370903
0.000568218
0.00350346
0.00057161
0.0032981
0.000570418
0.00309157
0.000574698
0.0028848
0.00057447
0.00267706
0.000578246
0.00246835
0.000579596
0.00225977
0.000580561
0.00204893
0.000584746
0.00184059
0.000579791
0.00162803
0.000588091
0.0014214
0.00057501
0.00120893
0.000585578
0.00100486
0.000567994
0.00079698
0.000570316
0.00059375
0.000564641
0.000399455
0.000530735
0.00018956
0.000585911
2.54499e-05
0.000437342
-0.000212544
0.000672143
-0.000320451
0.000282779
-0.000567172
0.00067022
-0.000683587
0.000344078
-0.00084792
0.000394206
-0.00106289
0.000666681
-0.00110705
5.09147e-05
-0.00133733
0.000678228
-0.0013695
2.84051e-05
-0.00167569
0.000913309
-0.00169804
3.06454e-05
-0.00193749
0.000663163
-0.00208494
0.00040614
-0.00242909
0.00104871
-0.00232842
-0.00038391
-0.00282311
0.00133403
-0.00334876
0.00182501
-0.00299548
-0.00128879
-0.00387364
0.00269318
-0.00385044
-4.23916e-05
-0.00454585
0.00205606
-0.00498552
0.00159892
-0.00437482
-0.00214466
-0.00584115
0.00457029
-0.00558931
-0.000193858
-0.00427651
-0.00452182
-0.00569648
0.00455788
-0.00540329
-0.000364189
-0.00330779
-0.00604432
-0.0056106
0.0565889
0.0119653
-0.0559022
0.0574419
0.0126875
0.0582378
0.0132374
0.0587635
0.013509
0.0588969
0.0135057
0.058592
0.0132708
0.0578583
0.0128537
0.0567436
0.0123045
0.0553164
0.0116694
0.0536522
0.0109866
0.0518245
0.010286
0.0498988
0.00959037
0.0479297
0.00891598
0.0459603
0.00827385
0.0440227
0.00767072
0.0421393
0.00711
0.0403248
0.00659266
0.038588
0.0061179
0.036933
0.00568378
0.0353608
0.00528771
0.0338705
0.00492675
0.0324594
0.00459787
0.0311243
0.00429813
0.0298613
0.00402472
0.0286664
0.00377505
0.0275356
0.00354675
0.0264648
0.00333768
0.0254501
0.00314591
0.0244879
0.00296974
0.0235747
0.00280762
0.0227073
0.00265819
0.0218826
0.00252025
0.0210977
0.00239273
0.0203501
0.00227465
0.0196372
0.00216519
0.0189568
0.00206356
0.0183069
0.00196911
0.0176854
0.00188121
0.0170905
0.00179937
0.0165205
0.00172304
0.0159739
0.00165187
0.0154491
0.00158537
0.0149449
0.00152333
0.0144599
0.00146526
0.0139929
0.0014111
0.0135428
0.00136033
0.0131085
0.00131304
0.012689
0.00126865
0.0122834
0.00122744
0.0118909
0.00118866
0.0115104
0.00115287
0.0111413
0.00111911
0.0107828
0.00108822
0.0104341
0.00105895
0.0100945
0.00103255
0.0097634
0.00100736
0.00944003
0.000985117
0.00912396
0.000963667
0.00881431
0.00094532
0.00851081
0.000927309
0.00821253
0.000912664
0.00791932
0.00089783
0.00763017
0.000886741
0.00734509
0.000874838
0.00706295
0.0008672
0.00678394
0.000857974
0.0065068
0.000853689
0.00623194
0.000846872
0.00595789
0.000845801
0.00568537
0.000841091
0.00541269
0.000842992
0.00514086
0.000840051
0.00486807
0.000844396
0.00459553
0.000842961
0.00432158
0.00084865
0.00404721
0.000848839
0.00377165
0.000853811
0.00349466
0.000856586
0.00321784
0.000857379
0.00293785
0.000864735
0.00266107
0.000856568
0.00237847
0.000870695
0.00210362
0.00084986
0.00182057
0.000868627
0.00154883
0.000839737
0.00127098
0.000848169
0.00100032
0.000835299
0.000739166
0.000791889
0.000460214
0.000864863
0.000237256
0.000660301
-7.644e-05
0.000985838
-0.000227185
0.000433524
-0.000556986
0.00100002
-0.000710624
0.000497715
-0.00094377
0.000627352
-0.00121287
0.000935777
-0.0012921
0.000130167
-0.00158945
0.000975578
-0.00164707
8.6028e-05
-0.00203691
0.00130316
-0.00207495
6.87e-05
-0.00239495
0.000983163
-0.00258631
0.000597493
-0.00301692
0.00147932
-0.00292241
-0.000478413
-0.00356504
0.00197666
-0.0041699
0.00242987
-0.00378949
-0.0016692
-0.00486555
0.00376925
-0.00482723
-8.07072e-05
-0.00569494
0.00292378
-0.006177
0.00208098
-0.00549338
-0.00282827
-0.00724802
0.00632493
-0.00681317
-0.00062859
-0.0053162
-0.00601879
-0.00695614
0.00619782
-0.00643252
-0.000887836
-0.00376865
-0.0087082
-0.00816363
0.0605952
0.0114024
-0.0600322
0.0612792
0.0120035
0.0619933
0.0125233
0.0626147
0.0128877
0.0630457
0.0130747
0.0632224
0.0130941
0.0631091
0.012967
0.0626955
0.0127182
0.0619916
0.0123733
0.0610222
0.011956
0.0598217
0.0114865
0.0584298
0.0109823
0.0568878
0.010458
0.0552359
0.0099258
0.0535109
0.00939569
0.0517453
0.00887554
0.0499666
0.00837141
0.0481968
0.00788772
0.0464531
0.00742745
0.0447484
0.00699236
0.043092
0.00658321
0.0414898
0.00620001
0.0399458
0.00584218
0.0384617
0.00550878
0.0370382
0.00519858
0.0356747
0.00491025
0.03437
0.00464235
0.0331225
0.00439348
0.03193
0.00416225
0.0307903
0.00394732
0.029701
0.00374747
0.0286597
0.0035615
0.0276641
0.00338836
0.0267117
0.00322702
0.0258003
0.0030766
0.0249277
0.00293622
0.0240916
0.00280517
0.0232901
0.00268268
0.0225213
0.00256821
0.0217833
0.00246107
0.0210743
0.00236086
0.0203927
0.00226696
0.0197369
0.0021791
0.0191055
0.00209669
0.018497
0.00201963
0.01791
0.00194726
0.0173434
0.00187971
0.0167958
0.00181619
0.0162662
0.00175708
0.0157534
0.00170142
0.0152564
0.0016499
0.0147742
0.00160129
0.0143058
0.00155665
0.0138503
0.0015144
0.0134068
0.00147609
0.0129745
0.00143964
0.0125524
0.00140721
0.01214
0.00137609
0.0117361
0.00134919
0.0113404
0.001323
0.0109518
0.00130134
0.0105699
0.00127973
0.0101935
0.00126312
0.00982255
0.00124575
0.0094557
0.00123405
0.00909309
0.00122058
0.00873313
0.00121365
0.00837628
0.00120373
0.00802071
0.00120137
0.0076672
0.0011946
0.00731371
0.00119649
0.00696136
0.0011924
0.00660795
0.00119781
0.00625483
0.00119608
0.0059
0.00120348
0.00554456
0.00120428
0.00518759
0.00121078
0.00482864
0.00121553
0.00446981
0.00121621
0.00410673
0.00122782
0.00374753
0.00121577
0.00338062
0.00123761
0.00302335
0.00120713
0.00265514
0.00123683
0.00230137
0.00119351
0.00193875
0.00121079
0.00158625
0.0011878
0.00124343
0.00113471
0.000881137
0.00122715
0.000584525
0.000956913
0.000181688
0.00138867
-2.20645e-05
0.000637276
-0.000455226
0.00143318
-0.000654413
0.000696901
-0.000974773
0.000947713
-0.00130493
0.00126593
-0.00143463
0.000259861
-0.001809
0.00134994
-0.00190255
0.000179577
-0.00238717
0.00178778
-0.00244815
0.000129672
-0.00286399
0.00139901
-0.00310492
0.000838417
-0.00363415
0.00200855
-0.00355787
-0.000554692
-0.00436271
0.0027815
-0.00504435
0.00311151
-0.00465661
-0.00205694
-0.00593214
0.00504478
-0.00587793
-0.000134919
-0.00692458
0.00397044
-0.00743566
0.00259207
-0.00669321
-0.00357072
-0.00871994
0.00835166
-0.00806585
-0.00128274
-0.00640361
-0.00768102
-0.00819522
0.00798944
-0.00737426
-0.00170879
-0.00408263
-0.0119998
-0.0114504
0.0648804
0.010918
-0.064396
0.0654455
0.0114384
0.0660528
0.0119161
0.066637
0.0123035
0.0671355
0.0125762
0.0674999
0.0127297
0.0676947
0.0127722
0.067696
0.0127169
0.0674905
0.0125788
0.0670741
0.0123724
0.0664504
0.0121102
0.0656299
0.0118027
0.0646286
0.0114593
0.0634662
0.0110882
0.0621654
0.0106964
0.0607505
0.0102905
0.0592457
0.0098762
0.0576745
0.00945888
0.0560588
0.00904323
0.0544179
0.00863327
0.0527687
0.00823239
0.0511254
0.00784328
0.0494996
0.00746797
0.0479005
0.00710791
0.0463351
0.00676399
0.0448086
0.00643671
0.0433248
0.00612618
0.041886
0.00583223
0.0404938
0.0055545
0.0391486
0.00529245
0.0378506
0.00504549
0.0365992
0.00481291
0.0353935
0.00459402
0.0342325
0.00438807
0.0331147
0.00419437
0.0320388
0.00401218
0.0310031
0.00384086
0.030006
0.00367972
0.029046
0.00352823
0.0281214
0.00338569
0.0272305
0.00325172
0.0263718
0.00312563
0.0255438
0.00300717
0.0247448
0.00289564
0.0239735
0.00279099
0.0232283
0.00269241
0.022508
0.00260008
0.0218111
0.00251307
0.0211363
0.00243184
0.0204825
0.00235522
0.0198484
0.00228406
0.0192328
0.00221685
0.0186345
0.00215491
0.0180527
0.00209627
0.0174859
0.00204286
0.0169334
0.00199209
0.016394
0.00194664
0.015867
0.00190315
0.0153509
0.00186522
0.0148454
0.0018285
0.014349
0.00179774
0.0138614
0.00176735
0.013381
0.00174351
0.0129078
0.00171902
0.0124399
0.00170192
0.0119776
0.00168289
0.0115189
0.00167235
0.0110643
0.00165834
0.0106115
0.00165413
0.0101615
0.00164462
0.00971168
0.0016463
0.00926336
0.00164072
0.00881384
0.00164733
0.00836468
0.00164524
0.00791341
0.00165474
0.00746126
0.00165644
0.00700712
0.00166492
0.00655032
0.00167233
0.00609343
0.0016731
0.00563098
0.00169027
0.00517297
0.00167378
0.00470504
0.00170554
0.00424862
0.00166355
0.00377811
0.00170734
0.00332529
0.00164632
0.0028604
0.00167568
0.00240885
0.00163935
0.0019667
0.00157686
0.00150393
0.00168993
0.00111616
0.00134468
0.000607477
0.00189736
0.000325654
0.000919099
-0.000223394
0.00198223
-0.000476385
0.000949892
-0.000907203
0.00137853
-0.00130632
0.00166505
-0.00150667
0.000460213
-0.00196836
0.00181163
-0.00211189
0.000323108
-0.00270308
0.00237897
-0.00279695
0.000223546
-0.00332497
0.00192703
-0.00362184
0.00113529
-0.00426472
0.00265143
-0.00421909
-0.000600315
-0.00519918
0.00376159
-0.0059572
0.00386952
-0.00558538
-0.00242876
-0.00705546
0.00651486
-0.0069875
-0.00020288
-0.00821313
0.00519607
-0.00874006
0.003119
-0.00795074
-0.00436003
-0.0102236
0.0106245
-0.00931788
-0.00218846
-0.00750426
-0.00949464
-0.00934822
0.00983341
-0.008163
-0.00289401
-0.00417998
-0.0159828
-0.015619
0.0694534
0.0104905
-0.069026
0.0699367
0.0109551
0.0704569
0.0113959
0.0709783
0.0117821
0.0714612
0.0120933
0.0718718
0.0123191
0.0721842
0.0124598
0.0723789
0.0125222
0.0724419
0.0125159
0.0723631
0.0124513
0.0721355
0.0123378
0.0717554
0.0121828
0.0712221
0.0119927
0.0705379
0.0117724
0.0697083
0.011526
0.0687419
0.011257
0.0676496
0.0109684
0.066445
0.0106635
0.0651431
0.0103452
0.0637596
0.0100168
0.0623106
0.00968138
0.0608118
0.00934211
0.0592778
0.0090019
0.0577223
0.00866343
0.0561572
0.0083291
0.054593
0.00800093
0.0530385
0.00768061
0.0515013
0.00736948
0.0499872
0.00706854
0.0485012
0.00677852
0.0470468
0.00649988
0.0456268
0.00623288
0.0442432
0.00597762
0.0428973
0.005734
0.0415897
0.00550192
0.0403208
0.00528107
0.0390905
0.0050712
0.0378983
0.0048719
0.0367437
0.00468288
0.0356257
0.00450364
0.0345435
0.00433393
0.033496
0.00417316
0.0324819
0.0040212
0.0315002
0.00387734
0.0305496
0.00374165
0.0296287
0.00361325
0.0287364
0.00349245
0.0278713
0.00337817
0.027032
0.00327106
0.0262176
0.00316971
0.0254264
0.00307522
0.0246575
0.00298577
0.0239094
0.002903
0.0231811
0.00282453
0.0224713
0.00275274
0.0217789
0.00268445
0.0211025
0.00262301
0.0204414
0.00256425
0.019794
0.00251266
0.0191596
0.00246285
0.0185367
0.00242071
0.0179247
0.00237932
0.0173218
0.00234635
0.016728
0.00231288
0.016141
0.00228889
0.0155611
0.00226281
0.0149858
0.00224761
0.0144158
0.00222839
0.0138482
0.00222169
0.0132841
0.0022087
0.0127205
0.00220997
0.0121587
0.00220252
0.0115955
0.00221054
0.0110326
0.00220809
0.0104671
0.00222021
0.00990039
0.0022232
0.00933101
0.0022343
0.00875806
0.00224528
0.00818462
0.00224654
0.00760399
0.00227091
0.00702816
0.00224961
0.00643978
0.00229391
0.00586467
0.00223866
0.0052718
0.00230021
0.00469989
0.00221823
0.00411211
0.00226346
0.00354112
0.00221035
0.00297868
0.0021393
0.00239496
0.00227365
0.00189504
0.00184459
0.00126025
0.00253216
0.000882032
0.00129732
0.000195899
0.00266837
-0.000122614
0.0012684
-0.000696473
0.00195239
-0.00117299
0.00214156
-0.00147034
0.000757566
-0.00202978
0.00237107
-0.00224223
0.000535562
-0.0029522
0.00308894
-0.00309249
0.000363835
-0.00374959
0.00258413
-0.00410998
0.00149568
-0.00488461
0.00342605
-0.00488153
-0.000603406
-0.00604911
0.00492918
-0.00688547
0.00470588
-0.00655556
-0.00275867
-0.00820859
0.00816789
-0.0081329
-0.000278569
-0.00952855
0.00659172
-0.010059
0.00364947
-0.00922995
-0.0051891
-0.0117141
0.0131087
-0.0105275
-0.00337509
-0.00856705
-0.0114551
-0.010332
0.0115984
-0.00871697
-0.00450904
-0.00397131
-0.0207285
-0.0209362
0.0743338
0.0101075
-0.0739507
0.0747579
0.0105309
0.0752123
0.0109415
0.0756761
0.0113183
0.0761235
0.0116459
0.0765299
0.0119127
0.0768755
0.0121142
0.0771458
0.0122519
0.0773303
0.0123314
0.0774217
0.0123599
0.0774142
0.0123453
0.0773027
0.0122943
0.0770828
0.0122125
0.0767506
0.0121045
0.0763031
0.0119736
0.0757382
0.0118219
0.0750557
0.0116509
0.0742574
0.0114618
0.0733472
0.0112554
0.072331
0.0110329
0.0712169
0.0107955
0.0700143
0.0105447
0.068734
0.0102823
0.0673872
0.0100102
0.0659856
0.00973069
0.0645407
0.00944584
0.0630635
0.00915782
0.0615642
0.00886869
0.0600524
0.00858034
0.0585365
0.00829447
0.0570238
0.0080126
0.0555207
0.00773596
0.0540327
0.00746566
0.0525642
0.00720249
0.0511189
0.00694718
0.0496998
0.00670016
0.0483092
0.00646186
0.0469487
0.0062324
0.0456195
0.00601205
0.0443225
0.00580066
0.043058
0.00559843
0.0418261
0.00540499
0.0406268
0.00522055
0.0394596
0.00504454
0.038324
0.00487728
0.0372193
0.00471794
0.0361446
0.00456709
0.0350992
0.00442356
0.034082
0.00428831
0.033092
0.00415972
0.0321279
0.00403926
0.0311889
0.00392475
0.0302736
0.00381834
0.029381
0.00371712
0.0285096
0.00362411
0.0276586
0.00353545
0.0268264
0.00345529
0.0260121
0.00337854
0.025214
0.00331076
0.0244315
0.00324534
0.0236626
0.00318959
0.022907
0.00313496
0.0221623
0.00309098
0.0214286
0.00304661
0.0207033
0.00301424
0.0199865
0.00297957
0.0192755
0.00295864
0.0185708
0.00293306
0.0178692
0.00292328
0.0171718
0.00290607
0.016475
0.00290683
0.0157803
0.00289718
0.0150839
0.00290696
0.0143877
0.0029043
0.0136882
0.00291975
0.0129867
0.00292467
0.0122817
0.00293929
0.0115719
0.0029551
0.0108609
0.00295755
0.0101406
0.00299121
0.00942516
0.00296504
0.00869401
0.00302506
0.0079776
0.00295507
0.00723914
0.00303868
0.00652473
0.00293265
0.00578999
0.0029982
0.0050755
0.00292483
0.00436803
0.00284677
0.00363907
0.00300261
0.00300194
0.00248172
0.00221711
0.00331698
0.00171834
0.00179609
0.000878886
0.00350782
0.00044984
0.00169745
-0.000285775
0.00268801
-0.000845987
0.00270177
-0.00127493
0.00118651
-0.00194238
0.00303851
-0.00224912
0.000842302
-0.00309033
0.00393014
-0.00329507
0.000568575
-0.00409829
0.00338735
-0.00453162
0.001929