/*--------------------------------*- C++ -*----------------------------------*\
| =========                 |                                                 |
| \\      /  F ield         | OpenFOAM: The Open Source CFD Toolbox           |
|  \\    /   O peration     | Version:  2412                                  |
|   \\  /    A nd           | Website:  www.openfoam.com                      |
|    \\/     M anipulation  |                                                 |
\*---------------------------------------------------------------------------*/
FoamFile
{
    version     2.0;
    format      ascii;
    arch        "LSB;label=32;scalar=64";
    class       volScalarField;
    location    "1.14";
    object      Co;
}
// * * * * * * * * * * * * * * * * * * * * * * * * * * * * * * * * * * * * * //

dimensions      [0 0 0 0 0 0 0];

internalField   nonuniform List<scalar> 
12600
(
0.377486
0.155489
0.0614846
0.0272124
0.0146641
0.00908078
0.00591208
0.00386259
0.00245903
0.00147043
0.000765101
0.000374283
0.000398316
0.00059493
0.000726206
0.0008148
0.000865239
0.000890925
0.000895488
0.000885316
0.000862299
0.000829559
0.000795505
0.000760343
0.000721917
0.000684631
0.00064065
0.000598525
0.000557139
0.000517048
0.000478168
0.000441061
0.000405957
0.000372782
0.000341578
0.000312552
0.000285634
0.000260721
0.000237749
0.000216666
0.000197402
0.000179824
0.000163777
0.000149141
0.000135778
0.000123561
0.000112426
0.000102305
9.31774e-05
8.5061e-05
7.79694e-05
7.19218e-05
6.68987e-05
6.28453e-05
6.00665e-05
5.7836e-05
5.56365e-05
5.29332e-05
5.02902e-05
4.65618e-05
4.10623e-05
3.31899e-05
2.2629e-05
1.51508e-05
2.18144e-05
3.64896e-05
4.76548e-05
5.36369e-05
5.38198e-05
5.09799e-05
4.58341e-05
3.70631e-05
2.69115e-05
1.81327e-05
1.20753e-05
7.79352e-06
6.66061e-06
1.26714e-05
2.34905e-05
3.25705e-05
3.78259e-05
3.79057e-05
3.57215e-05
3.22407e-05
2.58228e-05
1.84156e-05
2.21014e-05
3.97764e-05
7.20249e-05
0.000119396
0.000177434
0.000222997
0.000216694
0.000203313
0.000142961
3.73961e-05
4.89244e-05
0.00024733
0.000356179
0.000333416
0.000131303
5.08439e-05
2.30204e-05
2.14522e-05
2.67215e-05
5.1692e-05
5.2586e-05
7.23e-05
8.0695e-05
7.52761e-05
5.63074e-05
7.07875e-05
0.000117086
0.000142974
0.000142961
0.000133118
8.22099e-05
4.35162e-05
5.2825e-05
5.54268e-05
0.606111
0.3919
0.228417
0.131001
0.0787827
0.0505153
0.0339799
0.0234371
0.0162819
0.0112304
0.00757789
0.00489332
0.00290408
0.00142623
0.000970475
0.00134913
0.00174312
0.00201429
0.00218181
0.00227524
0.00230826
0.00229288
0.00224769
0.0021828
0.00210284
0.0020261
0.00192952
0.00183028
0.00172491
0.0016173
0.0015094
0.00140344
0.00130073
0.00120176
0.00110711
0.00101787
0.00093412
0.000855778
0.000782893
0.000715481
0.000653476
0.000596588
0.000544391
0.000496593
0.000452821
0.000412654
0.000375887
0.000342308
0.000311861
0.000284596
0.000260564
0.000239861
0.000222464
0.000208254
0.0001987
0.000191247
0.000183453
0.000173976
0.000166037
0.000155277
0.000139453
0.000116424
8.47748e-05
6.36333e-05
8.74702e-05
0.000135148
0.000169888
0.000186541
0.000183593
0.000173657
0.000162046
0.000135767
0.000101121
6.77626e-05
4.24834e-05
2.43718e-05
2.98138e-05
6.16233e-05
9.69422e-05
0.000122597
0.000132994
0.000125682
0.00011786
0.000107483
8.79797e-05
6.18083e-05
8.29814e-05
0.000155451
0.000276831
0.000443779
0.000634694
0.000756855
0.000675717
0.000674997
0.000552227
0.000158682
0.000210578
0.000961709
0.00122916
0.00120034
0.000518993
0.000198922
0.000100586
8.12741e-05
0.000117534
0.000203314
0.000170873
0.000247745
0.000256913
0.000242042
0.00024127
0.00033527
0.000454468
0.000497629
0.000462027
0.00046351
0.000333069
0.000187572
0.0001923
0.000188162
0.67298
0.543142
0.391076
0.265219
0.177143
0.11998
0.0832712
0.0590301
0.0423815
0.0305479
0.0219167
0.0155055
0.0106848
0.00702199
0.00428498
0.00218785
0.00163892
0.00224519
0.00272138
0.0030405
0.00323267
0.00332329
0.00333754
0.00329772
0.00322279
0.00312133
0.00301585
0.00290837
0.00278052
0.00263726
0.00248608
0.00233143
0.00217677
0.00202407
0.00187508
0.00173233
0.00159656
0.00146804
0.00134727
0.00123464
0.00113033
0.00103409
0.000945333
0.000863743
0.000788804
0.000719779
0.000656309
0.000598021
0.000544804
0.000496742
0.00045394
0.000416644
0.000384913
0.000358714
0.000341494
0.00032882
0.000314555
0.000297796
0.000286624
0.000272402
0.000251271
0.000219168
0.000172678
0.0001434
0.000187758
0.000268169
0.000322446
0.000342575
0.000327313
0.000305867
0.000298428
0.000260384
0.000200384
0.000136525
8.54125e-05
5.89342e-05
8.00087e-05
0.000141024
0.000201668
0.000237692
0.000242123
0.000214958
0.00020477
0.000190674
0.00015991
0.000108305
0.000166948
0.000323468
0.000565992
0.000879267
0.00121129
0.00136559
0.00109674
0.00121408
0.00119235
0.000367643
0.000509992
0.00204853
0.00234161
0.00234011
0.0010983
0.000428635
0.00023197
0.000164917
0.000270916
0.000428507
0.00029594
0.000456695
0.000430324
0.000443945
0.00056311
0.000777731
0.000896985
0.000892898
0.000768906
0.000853924
0.000697356
0.000418108
0.000380922
0.000335122
0.67212
0.611481
0.506157
0.391116
0.289805
0.210897
0.1533
0.112202
0.0827572
0.0613298
0.045466
0.0335433
0.0244786
0.0175201
0.0121931
0.00806104
0.00489744
0.00276194
0.00243709
0.0031222
0.00358882
0.00388158
0.00403977
0.00409429
0.00407888
0.00399544
0.00388531
0.00376905
0.00366774
0.00353214
0.0033721
0.00319579
0.00301037
0.00282063
0.00263013
0.0024436
0.00226304
0.00208957
0.0019246
0.00176918
0.00162405
0.00148923
0.00136418
0.00124871
0.00114226
0.0010438
0.000952829
0.000868812
0.000791568
0.00072123
0.000657978
0.000602289
0.000554383
0.00051444
0.000488059
0.000470035
0.000448355
0.000424774
0.000412342
0.000397989
0.000376211
0.000340651
0.000285087
0.000252253
0.000319684
0.000432709
0.000503321
0.00052099
0.000485491
0.000444754
0.000452605
0.000409907
0.000325852
0.000227672
0.000144947
0.000114269
0.000158248
0.00024855
0.000332933
0.00037196
0.000359621
0.000301752
0.000296468
0.000280376
0.000239222
0.000155827
0.000277083
0.000545299
0.000936074
0.00141383
0.0018838
0.0020173
0.00149176
0.00180499
0.00206503
0.000697731
0.000977935
0.0034046
0.00368103
0.00366037
0.00186004
0.000753603
0.00041647
0.00026368
0.00048309
0.000712533
0.000424428
0.000688983
0.000584573
0.000692094
0.00101814
0.00136859
0.00140359
0.00129156
0.00103796
0.00127988
0.00113884
0.000711666
0.000610563
0.00049331
0.647856
0.623225
0.563638
0.480219
0.390042
0.306472
0.236233
0.180517
0.137577
0.104805
0.0797741
0.0605518
0.0456952
0.0341382
0.0251395
0.0180873
0.0125831
0.00826818
0.00491807
0.00317289
0.00325731
0.00386947
0.00427201
0.00450657
0.00461437
0.00461991
0.00454582
0.00443098
0.00431199
0.00422931
0.00410714
0.00394701
0.00376069
0.00355773
0.0033444
0.0031286
0.00291452
0.0027047
0.00250195
0.00230842
0.00212577
0.0019547
0.00179489
0.00164646
0.001509
0.0013812
0.00126252
0.00115225
0.00105015
0.000956434
0.000871385
0.000795789
0.000730128
0.000674892
0.000637255
0.000613605
0.000583539
0.000554539
0.000542554
0.000531095
0.000512957
0.000479203
0.000420113
0.000387648
0.000480001
0.000625611
0.000710028
0.000720424
0.000658084
0.00058673
0.000621589
0.000582921
0.000478347
0.000344086
0.000224972
0.000191665
0.000262735
0.000381161
0.000485906
0.000519782
0.000480278
0.000382243
0.000391872
0.00037417
0.000322734
0.00020187
0.00041672
0.00082217
0.00138266
0.00203342
0.00262483
0.00267491
0.00188709
0.0024278
0.00310206
0.00111933
0.0016363
0.00492113
0.00524094
0.00505988
0.0027879
0.00118818
0.000654426
0.000370945
0.000747228
0.00104268
0.00055396
0.000933779
0.000702764
0.000996559
0.00159702
0.0020685
0.00193013
0.00165975
0.00124765
0.001722
0.0016238
0.0010392
0.000868794
0.000660387
0.6203
0.607479
0.576925
0.525519
0.45911
0.386951
0.317291
0.255181
0.202617
0.159557
0.124929
0.0973325
0.0754161
0.0580136
0.0442085
0.0332366
0.0245348
0.0176263
0.0121681
0.00786899
0.00450804
0.00334637
0.00393703
0.0044511
0.00476735
0.00492839
0.0049672
0.00491489
0.00479757
0.00469834
0.00462479
0.00452873
0.00438238
0.00419827
0.00398756
0.00376259
0.00353079
0.00329694
0.00306587
0.00284138
0.00262657
0.0024232
0.00223147
0.00205209
0.00188497
0.00172867
0.00158265
0.0014461
0.00131875
0.00120092
0.00109304
0.0009963
0.000911525
0.000839649
0.000788015
0.000758381
0.000718944
0.00068692
0.000676932
0.000671083
0.000660464
0.000633322
0.000575916
0.000546731
0.000664837
0.000843049
0.000939449
0.000939018
0.00084474
0.000727622
0.000801695
0.000777337
0.000658189
0.000488426
0.000329303
0.000292891
0.000391804
0.000534778
0.000654834
0.00067504
0.000599019
0.000457896
0.00048975
0.000469622
0.000407293
0.000243916
0.000589126
0.00115417
0.00189908
0.00272102
0.00340438
0.00330138
0.00228654
0.00306497
0.00424143
0.00160766
0.00248015
0.00648541
0.00700833
0.00642527
0.00385524
0.00174428
0.000947343
0.000482708
0.00105386
0.00140861
0.000682803
0.00117866
0.000769055
0.00136338
0.00228322
0.00283245
0.00243133
0.00196944
0.0014354
0.00216587
0.00212643
0.00137201
0.00113986
0.000834715
0.596257
0.584225
0.566392
0.536602
0.493455
0.440042
0.381673
0.323393
0.268876
0.220243
0.178316
0.143024
0.113789
0.0898136
0.0702927
0.0544595
0.0416702
0.0313619
0.0230886
0.0164729
0.0112101
0.00705614
0.00432786
0.0038226
0.00445062
0.00485183
0.0050743
0.00515801
0.00513598
0.00503443
0.0049405
0.00487416
0.004816
0.00469501
0.00452117
0.0043142
0.00408626
0.00384542
0.00359934
0.00335417
0.00311509
0.00288544
0.00266632
0.00245934
0.00226502
0.00208194
0.0019097
0.00174748
0.00159501
0.00145279
0.00132146
0.00120266
0.0010977
0.00100807
0.000939041
0.000902962
0.000853195
0.000821447
0.000814878
0.000817078
0.000817466
0.000801321
0.0007505
0.000726272
0.000869665
0.00108049
0.00118777
0.00117428
0.00104459
0.000862544
0.000988406
0.00099025
0.000864993
0.000662829
0.000461452
0.000419045
0.000542844
0.000704726
0.00083378
0.000831862
0.000711369
0.000538537
0.000588308
0.000563884
0.000489427
0.000304455
0.000797064
0.0015399
0.00247614
0.0034564
0.0041899
0.00386045
0.00268944
0.00370026
0.00540829
0.00212704
0.00346226
0.00798971
0.00895606
0.00764148
0.00502452
0.00242978
0.00129791
0.000597866
0.00139093
0.00180239
0.000810841
0.00141064
0.000768427
0.00179631
0.00305245
0.00360985
0.00286709
0.00220395
0.00163323
0.00260118
0.00263025
0.00168755
0.00140798
0.00101535
0.576111
0.562274
0.547749
0.528491
0.501178
0.465044
0.421787
0.37427
0.3255
0.278054
0.233822
0.193965
0.159006
0.128968
0.10357
0.0823403
0.0647596
0.0502981
0.038478
0.0288703
0.0211057
0.014874
0.0099059
0.00598164
0.00413527
0.00430082
0.00479364
0.00508488
0.00521878
0.00523233
0.00515138
0.00506002
0.0049966
0.00498686
0.00489711
0.00474459
0.00454952
0.00432465
0.00408167
0.00383
0.00357768
0.0033303
0.00309036
0.00286077
0.00264304
0.002436
0.00223957
0.00205302
0.0018762
0.00170986
0.00155489
0.00141353
0.00128763
0.0011794
0.00109194
0.00104607
0.000985004
0.000957687
0.000955792
0.000968147
0.000982612
0.000981398
0.000941735
0.000922649
0.00108928
0.00133269
0.00145046
0.00142302
0.00125627
0.000988462
0.00117632
0.00121777
0.00109746
0.000868744
0.000624512
0.000570543
0.000712337
0.000885757
0.00101668
0.000984786
0.000813696
0.00062404
0.00068555
0.000654029
0.00056568
0.000398008
0.00104242
0.00197597
0.00310169
0.00421652
0.0049483
0.00432123
0.00309897
0.00432136
0.00652028
0.00263618
0.00448803
0.00934446
0.0110389
0.00860683
0.00624879
0.00324678
0.00170973
0.000717942
0.00174428
0.00221826
0.000938858
0.00161618
0.0008222
0.00241759
0.00399159
0.00434911
0.00320653
0.00235913
0.00182056
0.00301905
0.00312782
0.00197364
0.00166014
0.00120137
0.558587
0.543431
0.528862
0.513221
0.494006
0.469433
0.439124
0.403818
0.364935
0.324182
0.283259
0.243665
0.206573
0.17278
0.14272
0.116507
0.0940192
0.0749788
0.0590329
0.0458001
0.0349075
0.0260133
0.0188056
0.0130139
0.00840115
0.0050005
0.00402609
0.00461546
0.00497994
0.00517027
0.00522169
0.00517133
0.00507534
0.00502015
0.00505364
0.00500465
0.0048811
0.00470284
0.00448719
0.00424815
0.00399758
0.0037442
0.00349255
0.0032474
0.00301169
0.00278485
0.00256733
0.00235872
0.00215907
0.00196951
0.00179128
0.00162729
0.00148009
0.00135272
0.00124823
0.00118611
0.00111892
0.00109516
0.00109894
0.00112325
0.00115444
0.00117163
0.00114736
0.00113186
0.00131783
0.0015937
0.00172224
0.00168138
0.0014778
0.0011334
0.00135912
0.00145487
0.00135317
0.00110668
0.000820929
0.000747134
0.000896067
0.00107243
0.00119782
0.00112917
0.00090344
0.000707413
0.00077925
0.000737065
0.000632574
0.000517899
0.00132583
0.00245664
0.00376065
0.00497621
0.0056481
0.00466176
0.00351452
0.00491775
0.00749697
0.00309792
0.00542322
0.0104922
0.0131913
0.00924716
0.00747577
0.00419061
0.00218745
0.000846156
0.00209829
0.00265217
0.0010686
0.00178215
0.000993775
0.00313887
0.00498935
0.00500204
0.00343363
0.00244351
0.00198748
0.00340979
0.00361658
0.00222869
0.00188827
0.00139112
0.5428
0.527107
0.512039
0.497169
0.481144
0.462597
0.440667
0.415053
0.385948
0.353953
0.319948
0.284958
0.250042
0.216191
0.184257
0.154879
0.128464
0.105182
0.0850119
0.0677897
0.0532668
0.0411555
0.0311549
0.0229762
0.0163502
0.0110356
0.00681882
0.00451169
0.00433236
0.00477861
0.00502655
0.00512569
0.00511092
0.00500934
0.00499404
0.00503287
0.00503007
0.00493965
0.00478362
0.00458267
0.00435392
0.00411035
0.00385937
0.00360825
0.00336208
0.00312125
0.00288711
0.0026598
0.00243978
0.00222867
0.0020282
0.00184206
0.00167363
0.00152691
0.00140607
0.00132181
0.00125682
0.00123316
0.00124349
0.00128123
0.00133137
0.00137
0.00136501
0.00134955
0.00154881
0.00185696
0.00199721
0.0019448
0.0017066
0.00130445
0.00152944
0.00169522
0.00162831
0.00137596
0.00105228
0.000947931
0.00108937
0.00125946
0.0013722
0.00126152
0.000979317
0.000787091
0.000867157
0.000810091
0.00068681
0.000665921
0.0016462
0.00297355
0.00443526
0.00570949
0.0062623
0.00487245
0.00393093
0.00547777
0.00835624
0.00357545
0.00610904
0.0113969
0.0153132
0.00951077
0.00865196
0.0052496
0.00277729
0.00102896
0.00243666
0.00310063
0.00120198
0.00189547
0.00122453
0.00393173
0.0059877
0.00553068
0.003549
0.00247325
0.00213001
0.00376135
0.0040941
0.00245818
0.00208946
0.00158165
0.528386
0.512563
0.497252
0.482447
0.467458
0.451501
0.433959
0.414376
0.392468
0.368176
0.341664
0.313297
0.283601
0.253223
0.222891
0.193348
0.165285
0.139265
0.115681
0.0947425
0.0764878
0.0608265
0.047577
0.036508
0.0273667
0.0199002
0.0138684
0.00904954
0.0052582
0.00396219
0.00449013
0.00480658
0.00495874
0.00498214
0.00491405
0.00489825
0.0049345
0.0049816
0.00492921
0.00480045
0.00462033
0.00440769
0.00417394
0.00392981
0.00368332
0.00343643
0.00319183
0.00295057
0.00271377
0.00248373
0.00226279
0.00205562
0.00186653
0.00170066
0.00156339
0.00146047
0.00139495
0.00137098
0.00138847
0.0014408
0.0015117
0.00157432
0.00159215
0.00157115
0.00177527
0.00211541
0.00226892
0.0022081
0.00193946
0.00148283
0.00167911
0.00193117
0.00191752
0.00167442
0.00131905
0.00117144
0.0012875
0.00144213
0.0015359
0.0013797
0.00104135
0.000861446
0.000947083
0.000870392
0.00072536
0.000844045
0.00200044
0.00351576
0.00510593
0.00639135
0.00677121
0.00495779
0.00433825
0.00598633
0.0091033
0.0041262
0.00638225
0.0120169
0.017259
0.00934605
0.00972372
0.00640522
0.00345478
0.00124621
0.00274318
0.00355917
0.00134071
0.00194432
0.00151131
0.00477803
0.00694159
0.00591292
0.00356835
0.00246621
0.00224264
0.00406083
0.00455502
0.00266989
0.00226442
0.00176851
0.515175
0.499367
0.484024
0.469252
0.454635
0.439729
0.424209
0.407789
0.390188
0.371175
0.350605
0.328431
0.304715
0.279637
0.253512
0.226782
0.200002
0.173781
0.148721
0.125344
0.104039
0.0850397
0.0684234
0.0541419
0.0420551
0.0319674
0.0236559
0.0168913
0.0114548
0.00713564
0.00455832
0.00413016
0.00452192
0.00472907
0.00480047
0.0047687
0.00474299
0.00476642
0.00486798
0.00485811
0.00476264
0.00460919
0.00441484
0.00419503
0.00396182
0.00371955
0.00347283
0.00322413
0.00297554
0.00273033
0.00249166
0.00226532
0.00205678
0.0018724
0.00171914
0.00160361
0.00153158
0.00150765
0.0015328
0.00160054
0.00169357
0.00178231
0.00182616
0.00179211
0.00198991
0.00236173
0.00253056
0.00246563
0.0021725
0.00166705
0.00179925
0.00215371
0.00221367
0.00199815
0.00162038
0.00141562
0.00148599
0.00161673
0.00168643
0.00148306
0.00109077
0.000928911
0.00101701
0.000915543
0.000745524
0.00105264
0.0023833
0.00407005
0.00575229
0.00699985
0.00716453
0.00493538
0.00472318
0.00642681
0.00963491
0.00468755
0.00622139
0.0124114
0.0188729
0.00870809
0.0106355
0.00763215
0.0042229
0.00149936
0.00300247
0.00402073
0.00148563
0.00191826
0.00185704
0.00565803
0.00780939
0.00614625
0.00351787
0.00243512
0.00231918
0.00429752
0.00499136
0.00290929
0.00245322
0.00194604
0.503027
0.487288
0.472005
0.457323
0.442936
0.428545
0.413983
0.399117
0.383789
0.367829
0.351075
0.333378
0.314609
0.29467
0.27353
0.251254
0.228039
0.204216
0.180241
0.156646
0.133982
0.112749
0.0933367
0.0759921
0.0608154
0.0477818
0.0367744
0.0276178
0.0201089
0.0140303
0.00917695
0.00535509
0.00385516
0.0041765
0.00444964
0.00457253
0.00457962
0.00453578
0.00457592
0.00469816
0.00473533
0.00467943
0.00455426
0.00438196
0.00418027
0.00395692
0.00371929
0.00347194
0.00321837
0.00296324
0.00271073
0.00246802
0.00224195
0.0020403
0.00187171
0.00174445
0.00166583
0.00164207
0.00167517
0.00175884
0.00187497
0.00199154
0.00206423
0.00204122
0.00221797
0.00258861
0.00277522
0.00271141
0.00240135
0.00185505
0.0018806
0.00235261
0.00250779
0.00234125
0.00195391
0.00167797
0.00168104
0.0017808
0.00182284
0.00157236
0.00112975
0.000988042
0.00107518
0.000943496
0.00074506
0.00129028
0.00278737
0.00462153
0.00635437
0.00751808
0.00744236
0.00483228
0.0050719
0.00678654
0.00994466
0.00525179
0.00578327
0.0127817
0.020076
0.00762752
0.0113307
0.00889805
0.00508222
0.00178861
0.00320054
0.00447482
0.00163636
0.00180892
0.00226139
0.00654658
0.00855626
0.00624776
0.00342861
0.00238469
0.00235579
0.00446605
0.00539455
0.00315497
0.00263584
0.00210714
0.491824
0.476181
0.460997
0.44643
0.432241
0.418193
0.404181
0.390147
0.376014
0.361694
0.347095
0.332116
0.316641
0.300523
0.283603
0.265739
0.246837
0.226903
0.206065
0.184587
0.162866
0.141392
0.120687
0.101242
0.0834459
0.0675523
0.053671
0.041787
0.0317949
0.0235269
0.0167888
0.0113778
0.00709106
0.00438115
0.00378152
0.00412655
0.00430331
0.00435691
0.00431958
0.00437699
0.00447949
0.00456989
0.004555
0.00446166
0.00431606
0.00413087
0.00391739
0.00368319
0.00343387
0.00317594
0.00291499
0.00265989
0.00241912
0.00220211
0.00201939
0.00188105
0.00179627
0.00177291
0.00181407
0.00191388
0.0020537
0.00219937
0.00230341
0.00230976
0.00244999
0.002789
0.00299619
0.00293937
0.00262118
0.00204409
0.00191405
0.0025167
0.00278905
0.00269564
0.00231548
0.00195561
0.00186982
0.00193336
0.00194569
0.00164946
0.00116101
0.00103756
0.00112012
0.000952625
0.000776316
0.00155367
0.00320337
0.00515456
0.00689434
0.00793601
0.00761457
0.00467941
0.005373
0.00706232
0.0100576
0.00591168
0.00497035
0.0129775
0.0209092
0.00625876
0.0117568
0.0101634
0.00602989
0.0021135
0.00332534
0.00490805
0.00179089
0.00161051
0.00272047
0.00741943
0.00916052
0.00624936
0.00333088
0.00231229
0.00235372
0.00456727
0.00575741
0.0033935
0.00279798
0.00224309
0.481469
0.465937
0.450865
0.436419
0.422406
0.408628
0.395003
0.381501
0.368079
0.354689
0.341284
0.327826
0.314264
0.300513
0.286449
0.271908
0.256707
0.240672
0.223681
0.205701
0.186815
0.167252
0.147373
0.127647
0.108584
0.0906676
0.0742873
0.059696
0.047004
0.0361948
0.0271621
0.0197437
0.0137452
0.00897027
0.00522829
0.00361067
0.00376063
0.00400121
0.00410531
0.00410742
0.00414249
0.00421968
0.00436514
0.00439466
0.00433876
0.00421787
0.00404891
0.00384384
0.00361122
0.00336015
0.00309813
0.00283613
0.00258467
0.00235506
0.00216002
0.00201173
0.00192135
0.00189855
0.00194773
0.00206359
0.00222731
0.00240301
0.00254059
0.00257986
0.00266753
0.00295648
0.0031872
0.00314362
0.0028269
0.00223077
0.00189114
0.00263429
0.00304492
0.00305094
0.00269888
0.00224531
0.00205062
0.00207489
0.0020568
0.00171692
0.00118739
0.00107634
0.0011507
0.000941818
0.000910229
0.00183759
0.00362067
0.00565397
0.0073581
0.00825129
0.00769863
0.00450584
0.00561942
0.00726101
0.010027
0.00659809
0.00384412
0.0130784
0.0214557
0.00480355
0.0118708
0.0113817
0.00705897
0.00254139
0.0034299
0.00530596
0.00194516
0.00132012
0.00334088
0.00835669
0.00961031
0.00619155
0.00325047
0.0022129
0.00232242
0.00460711
0.00607462
0.00362678
0.00293811
0.0023442
0.471879
0.456461
0.441508
0.427181
0.413325
0.399769
0.386445
0.373332
0.360402
0.347617
0.334947
0.322375
0.309893
0.297478
0.285081
0.272609
0.259923
0.246845
0.233175
0.218727
0.203357
0.187007
0.169739
0.151758
0.133412
0.115157
0.0975007
0.0809231
0.0658117
0.0524131
0.0408279
0.0310325
0.022912
0.0163004
0.0110082
0.00683859
0.0040806
0.00335837
0.00366822
0.00382615
0.00387259
0.00387571
0.00395622
0.00412617
0.00420616
0.00418577
0.00408921
0.00393501
0.00373603
0.00350497
0.00325193
0.0029906
0.00273397
0.00249567
0.00229088
0.0021342
0.00203904
0.00201702
0.00207402
0.00220555
0.00239306
0.00259937
0.0027724
0.00284808
0.0028664
0.00308548
0.00334267
0.00331864
0.00301332
0.00241105
0.00180479
0.00269385
0.00326154
0.00339459
0.00309554
0.00254345
0.00222289
0.00220707
0.00215881
0.00177753
0.00121145
0.00110343
0.00116613
0.000910423
0.00111342
0.00213533
0.00402799
0.00610614
0.00773658
0.00846905
0.00771625
0.00433469
0.00580806
0.00739428
0.00991574
0.00725905
0.00253782
0.0131286
0.021751
0.00430699
0.0116395
0.0124992
0.00815745
0.0030552
0.00349004
0.00565519
0.00209261
0.00107328
0.00407097
0.00929433
0.00990899
0.00611584
0.0032068
0.00208493
0.00228061
0.00459482
0.00634225
0.00385524
0.00305252
0.00240129
0.462981
0.447677
0.432842
0.418631
0.404914
0.391546
0.378466
0.365658
0.353099
0.340757
0.328603
0.316621
0.304811
0.293176
0.281713
0.270397
0.259168
0.247921
0.236507
0.22474
0.212414
0.199331
0.185335
0.170353
0.154439
0.137786
0.120737
0.103746
0.0873192
0.0719393
0.0579869
0.0456978
0.0351555
0.0263198
0.0190667
0.0132214
0.00859461
0.0049942
0.00330315
0.00330357
0.00352312
0.00361411
0.00361188
0.00371312
0.00386053
0.00398863
0.00400384
0.0039306
0.00378857
0.00359559
0.00336536
0.00311506
0.00286093
0.00261936
0.00240845
0.00224562
0.00214683
0.00212586
0.00219039
0.00233699
0.00254786
0.00278505
0.00299519
0.00311058
0.0030611
0.00318827
0.00345786
0.00345948
0.00317533
0.00258036
0.00178127
0.00268476
0.00342426
0.00371202
0.00349469
0.00284602
0.002387
0.00233242
0.00225468
0.00183387
0.00123523
0.00111798
0.00116607
0.000877123
0.00133357
0.00243919
0.00441424
0.00650017
0.00802662
0.00860061
0.00768957
0.00418154
0.00593795
0.00747204
0.00977229
0.0079466
0.00123881
0.0131081
0.0217908
0.0050353
0.0110388
0.0134547
0.0093075
0.00362975
0.00347676
0.00594463
0.00222416
0.00118469
0.00483626
0.0101548
0.0100726
0.00605357
0.00321187
0.00199994
0.00225382
0.00454205
0.00655729
0.00407636
0.003146
0.00241648
0.454712
0.439518
0.4248
0.410698
0.397108
0.383901
0.371023
0.35846
0.346194
0.334197
0.322437
0.310897
0.299568
0.288457
0.27757
0.266915
0.256481
0.246237
0.236111
0.22599
0.215721
0.205114
0.193957
0.182044
0.169215
0.155393
0.140625
0.125104
0.109171
0.0932839
0.0779557
0.0636681
0.0507933
0.0395479
0.0299946
0.0220709
0.0156383
0.0105164
0.00651069
0.00373745
0.00291016
0.00319341
0.00333554
0.00337518
0.00344724
0.00356476
0.00374243
0.00379322
0.00374088
0.00361114
0.00342296
0.0031982
0.00295723
0.00271997
0.00250805
0.00234224
0.00224147
0.00222203
0.00229373
0.00245461
0.00268816
0.00295625
0.00320492
0.0033631
0.00335942
0.00336988
0.00352896
0.00356185
0.00330804
0.00273374
0.00189215
0.00259824
0.00351848
0.00398678
0.0038834
0.00318142
0.00257616
0.00245379
0.00234716
0.00188803
0.00126018
0.00111931
0.00115066
0.000941925
0.00156513
0.0027408
0.00476942
0.00682881
0.008231
0.00866143
0.0076381
0.00405513
0.00600822
0.00749906
0.00961731
0.00870402
0.00119767
0.0129698
0.0215642
0.00598782
0.0100562
0.0141829
0.0104843
0.00426602
0.00338958
0.00616509
0.00232776
0.00157471
0.00562068
0.010922
0.010126
0.0060226
0.0032695
0.00214216
0.00226798
0.00446284
0.0067187
0.0042853
0.00327934
0.00244846
0.447017
0.43193
0.417323
0.403324
0.389848
0.376782
0.364075
0.351715
0.339686
0.327963
0.316517
0.305325
0.294375
0.283664
0.273195
0.262978
0.253022
0.243328
0.233881
0.224639
0.215524
0.20642
0.19717
0.187579
0.177433
0.166525
0.154694
0.141864
0.128081
0.113538
0.0985825
0.0836806
0.0693517
0.056077
0.0442162
0.0339618
0.0253478
0.0182894
0.0126293
0.00818181
0.00475055
0.00299106
0.00283751
0.00303971
0.00311903
0.00315975
0.00327568
0.00346831
0.00355203
0.00352162
0.00340262
0.00322378
0.00301109
0.00278891
0.00258328
0.00241905
0.00231876
0.00230169
0.00238028
0.00255451
0.00280988
0.00310867
0.00339707
0.00360098
0.0036472
0.00352599
0.00355301
0.00362212
0.00340689
0.0028659
0.00204213
0.00242809
0.00353067
0.00420101
0.00424634
0.00358286
0.00283203
0.00257385
0.00243853
0.00194158
0.00128741
0.0011069
0.00112079
0.00109393
0.00180145
0.00303202
0.00508527
0.00708894
0.00835765
0.00866878
0.00757656
0.00395909
0.00601744
0.00747597
0.00945103
0.00950243
0.00233185
0.0126938
0.0210751
0.00681984
0.00871292
0.0146146
0.0116558
0.0049625
0.0032311
0.00630833
0.00238993
0.00200183
0.00640647
0.011581
0.0100953
0.00602779
0.00337489
0.00245946
0.00234216
0.004373
0.00682932
0.00447793
0.00337592
0.00248851
0.439848
0.424861
0.41036
0.396459
0.383087
0.370144
0.357585
0.345395
0.333563
0.322063
0.31087
0.29996
0.289316
0.27893
0.268798
0.258922
0.24931
0.239972
0.230914
0.222131
0.213601
0.205274
0.197072
0.188876
0.180523
0.171818
0.162547
0.152508
0.141541
0.12957
0.116644
0.102961
0.0888773
0.0748691
0.0614643
0.0491416
0.0382432
0.0289332
0.0212119
0.0149694
0.0100317
0.00620217
0.00340241
0.00245779
0.00271889
0.0028488
0.00288543
0.00301768
0.00316289
0.0032811
0.00327125
0.00316796
0.00300524
0.0028137
0.00262501
0.00246912
0.00237308
0.00235988
0.00244535
0.00263201
0.00290821
0.0032373
0.00356648
0.00381897
0.00391976
0.00379277
0.00366237
0.00363718
0.00346767
0.00297139
0.00218175
0.00217139
0.00344952
0.00433667
0.00456615
0.00397811
0.0030969
0.00269478
0.00253041
0.00199571
0.00131797
0.00108043
0.00107737
0.00124902
0.00203613
0.00330525
0.00535586
0.00728152
0.00841799
0.00863875
0.00751364
0.00389391
0.00596412
0.00740179
0.00926592
0.0102297
0.00351007
0.0123223
0.0203967
0.00762131
0.00710495
0.0146782
0.0127827
0.00571558
0.00300552
0.00636604
0.00239722
0.00245724
0.00718102
0.0121237
0.0100059
0.00606507
0.00351571
0.00278273
0.00248348
0.00428822
0.00689543
0.00465246
0.00342869
0.00258619
0.433162
0.418268
0.403868
0.390059
0.376782
0.36395
0.351519
0.339475
0.327807
0.316492
0.305506
0.294826
0.284434
0.274317
0.264465
0.254874
0.245547
0.236487
0.227704
0.219204
0.210989
0.203048
0.195353
0.187854
0.18047
0.173075
0.165508
0.157577
0.14907
0.139788
0.129575
0.118358
0.10619
0.093277
0.0799838
0.0667999
0.0542606
0.0428412
0.0328613
0.0244513
0.0175759
0.0120947
0.00782122
0.00455033
0.00269867
0.00237668
0.00256605
0.00264589
0.00274088
0.00283615
0.00297818
0.00299387
0.00291368
0.00277595
0.00261996
0.00248257
0.00239672
0.00239017
0.00248307
0.00268143
0.00297741
0.00333631
0.00370713
0.00401099
0.00417111
0.00410587
0.00380225
0.0036044
0.00348643
0.00304473
0.00230449
0.00182881
0.00326716
0.00437679
0.00482411
0.00435398
0.00336704
0.00281793
0.00262389
0.00205152
0.0013533
0.00103988
0.00102292
0.00140253
0.00226282
0.00355391
0.00557767
0.00741081
0.00842479
0.00858394
0.00745263
0.0038587
0.00584776
0.00727593
0.00905461
0.0107606
0.00469637
0.0119279
0.0197006
0.00846373
0.00541921
0.0143089
0.0138165
0.00651711
0.00271679
0.00633073
0.00233728
0.00292715
0.00792562
0.0125408
0.00987641
0.00612554
0.00367601
0.00308042
0.00268737
0.00422143
0.00692466
0.00480905
0.00342988
0.00263149
0.42692
0.412114
0.397808
0.384086
0.370896
0.358162
0.345845
0.333928
0.3224
0.311241
0.300427
0.289938
0.279753
0.269858
0.260241
0.250894
0.24181
0.232991
0.224438
0.216159
0.208158
0.20044
0.193
0.185826
0.178887
0.172132
0.165471
0.158783
0.151906
0.144652
0.136815
0.1282
0.118655
0.10811
0.0966248
0.0844121
0.0718477
0.0594339
0.0477138
0.0371559
0.0280544
0.0204985
0.0144162
0.00963748
0.00596121
0.0031877
0.00209977
0.00226338
0.00239754
0.00245133
0.00258258
0.00264747
0.00269539
0.00264628
0.00254768
0.00244489
0.00237884
0.00238378
0.00248591
0.00269574
0.0030106
0.00339871
0.00381192
0.00416985
0.00439424
0.00439752
0.00412564
0.00372837
0.00345935
0.00308046
0.00240345
0.00155183
0.00297996
0.00430701
0.00499998
0.00469445
0.00364437
0.00295036
0.00271967
0.00211042
0.00139553
0.000985593
0.000960313
0.00154965
0.00247581
0.00377257
0.00574944
0.0074832
0.00839009
0.00851247
0.00739326
0.00385217
0.00566978
0.00709962
0.00881223
0.0110324
0.00585418
0.011559
0.0192233
0.00934713
0.0039047
0.0134604
0.0147013
0.00735359
0.00236964
0.00619569
0.00220662
0.00351603
0.00873097
0.0128322
0.00972319
0.00620047
0.0038419
0.00332718
0.00294077
0.00418106
0.00692625
0.00495144
0.00337428
0.00260914
0.421087
0.406364
0.392146
0.378505
0.365395
0.352752
0.340535
0.328729
0.317322
0.306295
0.295627
0.285297
0.275285
0.265576
0.256156
0.247014
0.238141
0.229532
0.221184
0.213099
0.20528
0.197732
0.190458
0.183457
0.176725
0.170245
0.163987
0.157891
0.151871
0.145804
0.139534
0.132878
0.125635
0.117614
0.108668
0.0987341
0.0878742
0.0763096
0.0644265
0.0527395
0.0417993
0.0320641
0.0237988
0.0170481
0.011698
0.00755822
0.00441723
0.00244121
0.00194205
0.00213609
0.00223842
0.00230811
0.00238703
0.00239056
0.00237616
0.00233322
0.00230306
0.00232864
0.00244385
0.00266605
0.00299929
0.00341605
0.00387227
0.00428691
0.00458069
0.00465989
0.00446716
0.00394847
0.00346835
0.00307317
0.00247153
0.00153185
0.00258888
0.00411715
0.00507375
0.00498064
0.00401861
0.0031883
0.00281826
0.00217439
0.00144755
0.000918156
0.000933497
0.00168607
0.00266961
0.00395712
0.00587164
0.00750573
0.00832344
0.00842807
0.00733341
0.00387273
0.00543368
0.00687709