/*--------------------------------*- C++ -*----------------------------------*\
| =========                 |                                                 |
| \\      /  F ield         | OpenFOAM: The Open Source CFD Toolbox           |
|  \\    /   O peration     | Version:  2412                                  |
|   \\  /    A nd           | Website:  www.openfoam.com                      |
|    \\/     M anipulation  |                                                 |
\*---------------------------------------------------------------------------*/
FoamFile
{
    version     2.0;
    format      ascii;
    arch        "LSB;label=32;scalar=64";
    class       surfaceScalarField;
    location    "0.165";
    object      phi_0;
}
// * * * * * * * * * * * * * * * * * * * * * * * * * * * * * * * * * * * * * //

dimensions      [0 3 -1 0 0 0 0];

oriented        oriented;

internalField   nonuniform List<scalar> 
24930
(
0.0197423
0.0229504
-0.0426927
0.00872911
0.0110132
0.00432339
0.00440572
0.00258975
0.00173364
0.00179404
0.000795714
0.00132578
0.000468261
0.00100751
0.000318272
0.000774822
0.000232686
0.000597965
0.000176856
0.000459871
0.000138094
0.000349843
0.000110029
0.000260133
8.97096e-05
0.000186394
7.37394e-05
0.000125181
6.12127e-05
7.39923e-05
5.11887e-05
3.09766e-05
4.30156e-05
-5.18005e-06
3.61567e-05
-3.6008e-05
3.08279e-05
-6.21117e-05
2.61037e-05
-8.427e-05
2.21583e-05
-0.000102011
1.77413e-05
-0.000117656
1.56444e-05
-0.000130144
1.24883e-05
-0.000140656
1.05122e-05
-0.000148836
8.17993e-06
-0.000155481
6.64452e-06
-0.000160323
4.84235e-06
-0.000164005
3.68252e-06
-0.000166215
2.20951e-06
-0.000167588
1.37262e-06
-0.000167773
1.85845e-07
-0.00016714
-6.33312e-07
-0.000165418
-1.72211e-06
-0.000162679
-2.73893e-06
-0.000158792
-3.88742e-06
-0.000153884
-4.90768e-06
-0.000148264
-5.6196e-06
-0.000142627
-5.63736e-06
-0.000137982
-4.64488e-06
-0.000135622
-2.36047e-06
-0.000136639
1.01749e-06
-0.000141834
5.19454e-06
-0.000151741
9.90754e-06
-0.000167509
1.57675e-05
-0.000190612
2.31029e-05
-0.000222912
3.23005e-05
-0.000266835
4.39234e-05
-0.000325302
5.84663e-05
-0.000399331
7.40295e-05
-0.000485314
8.59823e-05
-0.000568516
8.32028e-05
-0.000614373
4.5857e-05
-0.000576237
-3.81366e-05
-0.000429508
-0.000146729
-0.000192268
-0.00023724
5.56171e-05
-0.000247885
0.000238138
-0.000182521
0.000299417
-6.12786e-05
0.000192173
0.000107244
-0.000134527
0.000326701
-0.000648048
0.000513521
-0.00121979
0.000571738
-0.00165617
0.000436381
-0.00176178
0.000105612
-0.00148313
-0.000278652
-0.000979173
-0.000503955
-0.000485881
-0.000493292
-0.000128099
-0.000357782
8.47195e-05
-0.000212819
0.000187219
-0.000102499
0.000211377
-2.41578e-05
0.000181854
2.95233e-05
0.000124882
5.69717e-05
6.75005e-05
5.73813e-05
2.80426e-05
3.94579e-05
1.38205e-05
1.4222e-05
1.5418e-05
-1.59748e-06
2.04617e-05
-5.04372e-06
2.05755e-05
-1.13795e-07
1.29176e-05
7.65792e-06
-1.77699e-07
1.30953e-05
-1.59251e-05
1.57474e-05
-2.87242e-05
1.27992e-05
-3.54684e-05
6.74414e-06
-3.39449e-05
-1.52352e-06
-2.31411e-05
-1.08038e-05
-2.75892e-06
-2.03821e-05
2.29555e-05
-2.57144e-05
5.47756e-05
-3.18202e-05
9.07261e-05
-3.59505e-05
0.000128463
-3.77373e-05
0.000166997
-3.85333e-05
0.000204593
-3.75958e-05
0.000241446
-3.68533e-05
0.000277033
-3.55867e-05
0.000313351
-3.63187e-05
0.000350724
-3.73725e-05
0.000391004
-4.02802e-05
0.000433181
-4.21773e-05
0.000478588
-4.54067e-05
0.000525963
-4.73747e-05
0.000577791
-5.18282e-05
0.000632594
-5.48035e-05
0.000693903
-6.13083e-05
0.000758756
-6.4853e-05
0.000832265
-7.35091e-05
0.000909289
-7.70243e-05
0.000997609
-8.83196e-05
0.00108961
-9.19984e-05
0.00119564
-0.000106037
0.00130746
-0.000111814
0.00143402
-0.000126567
0.00157437
-0.000140345
0.00172373
-0.000149361
0.00191563
-0.000191896
0.00208559
-0.000169968
0.00241266
-0.000327065
0.0026163
-0.000203635
0.00337672
-0.000760421
-0.000816168
0.0403425
0.0316825
-0.0490746
0.0286237
0.022732
0.0191283
0.0139012
0.0129559
0.00790602
0.00919916
0.00455243
0.00685334
0.00281408
0.00527613
0.00189549
0.00414246
0.00136635
0.00328877
0.00103054
0.00262452
0.000802345
0.00209474
0.000639806
0.00166505
0.000519402
0.00131111
0.000427683
0.00101629
0.000356033
0.00076859
0.000298886
0.000559151
0.000252454
0.000381339
0.000213969
0.000230255
0.000181912
0.000102004
0.000154355
-2.10291e-06
0.000126265
-0.000105289
0.000120927
-0.000188888
9.92436e-05
-0.000258774
8.23741e-05
-0.00031784
6.95788e-05
-0.000366807
5.71464e-05
-0.000407686
4.7524e-05
-0.000440824
3.79797e-05
-0.000467839
3.06977e-05
-0.000488582
2.29531e-05
-0.00050465
1.74407e-05
-0.000515865
1.14006e-05
-0.000522939
6.44003e-06
-0.000525797
1.13587e-06
-0.000524613
-3.92292e-06
-0.000519254
-9.24555e-06
-0.000510328
-1.3834e-05
-0.000499094
-1.68541e-05
-0.000487903
-1.68277e-05
-0.000480218
-1.23306e-05
-0.000480077
-2.50136e-06
-0.000491147
1.20874e-05
-0.000515703
2.97512e-05
-0.000555587
4.97912e-05
-0.000614219
7.43994e-05
-0.000696212
0.000105096
-0.000807519
0.000143607
-0.000955717
0.000192121
-0.00114801
0.000250755
-0.00138558
0.000311603
-0.00165234
0.000352747
-0.00189411
0.000324966
-0.00199974
0.000151492
-0.0018361
-0.000201777
-0.00133434
-0.000648491
-0.00056687
-0.00100471
0.000213676
-0.00102843
0.000761595
-0.00073044
0.000881758
-0.000181442
0.000407883
0.000581119
-0.000756072
0.00149066
-0.00245802
0.00221547
-0.00423164
0.00234535
-0.00545838
0.00166312
-0.0056047
0.00025193
-0.00460949
-0.00127386
-0.00298778
-0.00212566
-0.00142969
-0.00205138
-0.000300629
-0.00148685
0.000366613
-0.00088006
0.000680867
-0.000416754
0.000740503
-8.37939e-05
0.000632102
0.000137925
0.000445124
0.00024395
0.000264888
0.000237617
0.00014774
0.000156606
0.00010883
5.31323e-05
0.000116695
-9.46316e-06
0.000132373
-2.07216e-05
0.000131928
3.31818e-07
0.000108863
3.07228e-05
7.09822e-05
5.09759e-05
3.24119e-05
5.43176e-05
6.8108e-06
3.84003e-05
2.50481e-06
1.10501e-05
2.31786e-05
-2.21973e-05
7.32517e-05
-6.0877e-05
0.000151432
-9.85628e-05
0.000253622
-0.000127904
0.000373358
-0.000151556
0.000504735
-0.000167328
0.00064135
-0.000174352
0.000779806
-0.00017699
0.000916064
-0.000173854
0.00105037
-0.000171164
0.00118308
-0.000168291
0.00131975
-0.00017299
0.00146307
-0.000180688
0.00161728
-0.000194491
0.00178092
-0.000205817
0.00195639
-0.000220878
0.00214229
-0.000233272
0.00234398
-0.00025352
0.0025605
-0.000271327
0.00279887
-0.000299677
0.00305571
-0.000321697
0.00334
-0.000357796
0.00364565
-0.000382676
0.00398492
-0.000427591
0.00435023
-0.000457309
0.00475542
-0.000511226
0.00519674
-0.000553133
0.00568173
-0.000611553
0.00622318
-0.000681798
0.00680817
-0.000734351
0.00750227
-0.000886
0.00820392
-0.000871617
0.00931578
-0.00143892
0.0101239
-0.00101171
0.0126783
-0.00331487
-0.00346739
0.0509906
0.0331993
-0.0525074
0.044135
0.0295876
0.0352143
0.0228219
0.0269379
0.0161824
0.0204572
0.0110331
0.0157449
0.00752646
0.0123507
0.00528968
0.00984809
0.00386891
0.00794306
0.00293558
0.00645159
0.00229381
0.00525762
0.00183378
0.00428461
0.00149241
0.00348057
0.00123173
0.00280857
0.00102804
0.00224181
0.000865648
0.00176038
0.000733879
0.00134919
0.000625159
0.00099671
0.000534394
0.000693386
0.000457679
0.000432238
0.000387413
0.000209887
0.000343278
2.05092e-05
0.000288622
-0.000149493
0.000252376
-0.000293308
0.000213394
-0.000415017
0.000178856
-0.000518316
0.000150823
-0.000604733
0.000124396
-0.000677075
0.00010304
-0.000736061
8.1939e-05
-0.000784192
6.55711e-05
-0.000821704
4.89131e-05
-0.000850134
3.48702e-05
-0.000869476
2.0478e-05
-0.000880621
7.22145e-06
-0.000883907
-5.95938e-06
-0.000880521
-1.722e-05
-0.000872898
-2.4477e-05
-0.000865258
-2.44676e-05
-0.000863754
-1.38344e-05
-0.000875478
9.2228e-06
-0.000905963
4.25719e-05
-0.000959311
8.30997e-05
-0.00103871
0.000129186
-0.00114958
0.000185275
-0.0012996
0.000255114
-0.0014987
0.000342706
-0.00175867
0.00045209
-0.00208973
0.000581819
-0.00248979
0.000711664
-0.00292603
0.00078899
-0.00330028
0.000699217
-0.0034295
0.000280704
-0.00310663
-0.000524646
-0.0022263
-0.00152882
-0.000923557
-0.00230745
0.000382375
-0.00233436
0.00126252
-0.00161058
0.00136613
-0.000285049
0.00040862
0.00153862
-0.00171726
0.00361654
-0.00467444
0.00517265
-0.00757239
0.0052433
-0.00940422
0.00349495
-0.0094117
0.00025941
-0.00760441
-0.00308115
-0.00484791
-0.00488216
-0.00223822
-0.00466108
-0.000350163
-0.0033749
0.000768991
-0.00199921
0.00128217
-0.000929933
0.00136129
-0.000162915
0.00116056
0.000338652
0.000837799
0.000566714
0.000537548
0.000537868
0.000348808
0.000345347
0.000290704
0.000111235
0.000308336
-2.70947e-05
0.000336594
-4.89797e-05
0.000337523
-5.97347e-07
0.000302704
6.55421e-05
0.000246896
0.000106784
0.000194072
0.000107141
0.000166463
6.60097e-05
0.000179427
-1.91414e-06
0.000241617
-8.43868e-05
0.000355304
-0.000174565
0.000516858
-0.000260117
0.000718631
-0.000329677
0.00094915
-0.000382075
0.00119844
-0.000416613
0.00145589
-0.000431811
0.00171633
-0.00043743
0.00197368
-0.000431204
0.00222925
-0.00042673
0.00248474
-0.000423779
0.00275023
-0.000438482
0.00303073
-0.00046119
0.00333327
-0.00049703
0.00365557
-0.000528117
0.0040017
-0.000567002
0.0043699
-0.000601477
0.00476937
-0.000652989
0.00519924
-0.0007012
0.00567124
-0.000771671
0.00618076
-0.000831219
0.00674238
-0.000919412
0.0073478
-0.000988099
0.00801599
-0.00109579
0.00873812
-0.00117943
0.00953312
-0.00130623
0.0104025
-0.00142249
0.01135
-0.00155905
0.0124105
-0.00174229
0.0135491
-0.00187301
0.0148904
-0.00222726
0.0162507
-0.00223197
0.0183106
-0.00349884
0.0198286
-0.00252965
0.0243053
-0.00779159
-0.00808004
0.0569199
0.0321773
-0.0558979
0.0545761
0.0319313
0.0488787
0.0285193
0.041529
0.0235321
0.0341617
0.0184005
0.0277265
0.0139616
0.0224902
0.0105259
0.0183404
0.00801878
0.0150527
0.00622322
0.01242
0.00492655
0.0102828
0.003971
0.0085247
0.00325046
0.00706152
0.00269492
0.00583161
0.00225794
0.00478923
0.00190803
0.00389979
0.00162333
0.0031367
0.00138825
0.00247937
0.00119172
0.00191115
0.00102589
0.00141875
0.000879821
0.000994627
0.000767397
0.000625784
0.000657464
0.000307728
0.000570432
3.54488e-05
0.000485673
-0.000205888
0.000420193
-0.000411515
0.000356451
-0.00058621
0.00029909
-0.000734846
0.000251677
-0.000859217
0.00020631
-0.000963372
0.000169726
-0.00104865
0.000134189
-0.00111734
0.000103566
-0.00117075
7.38828e-05
-0.00120981
4.6279e-05
-0.00123548
1.97146e-05
-0.00125038
-2.3244e-06
-0.00125846
-1.63971e-05
-0.00126609
-1.68306e-05
-0.00128173
1.80231e-06
-0.00131594
4.34329e-05
-0.00137587
0.000102507
-0.00146783
0.000175056
-0.00159632
0.000257674
-0.0017686
0.00035756
-0.00199524
0.000481751
-0.00228979
0.000637256
-0.00266731
0.000829607
-0.00313924
0.00105375
-0.00369774
0.00127016
-0.00428959
0.00138085
-0.00477162
0.00118125
-0.00489578
0.000404867
-0.00439185
-0.00102858
-0.00312653
-0.00279413
-0.00129467
-0.00413931
0.000521423
-0.00415045
0.00169994
-0.0027891
0.00171405
-0.000299163
0.000143013
0.00310966
-0.003028
0.00678755
-0.00724075
0.00938541
-0.0111473
0.00914987
-0.0133906
0.00573824
-0.0130989
-3.2265e-05
-0.0104194
-0.00576071
-0.00653985
-0.00876168
-0.00290067
-0.00830025
-0.000260715
-0.00601486
0.00130372
-0.00356365
0.00200968
-0.00163589
0.00209729
-0.000250521
0.00179464
0.000641302
0.00133236
0.00102899
0.000914597
0.000955631
0.000661123
0.00059882
0.000589972
0.000182386
0.000621258
-5.83806e-05
0.000665657
-9.33781e-05
0.000672857
-7.7972e-06
0.000634396
0.000104002
0.00057314
0.000168041
0.000522877
0.000157403
0.000514149
7.47377e-05
0.000567788
-5.55526e-05
0.000694722
-0.000211321
0.000896823
-0.000376665
0.0011671
-0.000530397
0.00149375
-0.000656319
0.00186014
-0.00074847
0.00225218
-0.000808651
0.00265559
-0.000835219
0.00306361
-0.000845453
0.003469
-0.000836596
0.00387457
-0.000832296
0.00428443
-0.000833644
0.00471337
-0.000867416
0.00516924
-0.00091706
0.00566148
-0.000989271
0.0061875
-0.00105414
0.00675278
-0.00113228
0.00735613
-0.00120483
0.0080102
-0.00130706
0.00871544
-0.00140644
0.0094874
-0.00154363
0.0103223
-0.00166608
0.0112382
-0.00183536
0.0122285
-0.00197836
0.0133144
-0.00218169
0.0144929
-0.00235791
0.0157794
-0.00259274
0.0171928
-0.00283592
0.0187194
-0.0030856
0.0204316
-0.00345458
0.0222599
-0.00370129
0.0243905
-0.00435784
0.0265698
-0.00441125
0.0297278
-0.0066569
0.0320957
-0.00489752
0.0385426
-0.0142385
-0.0147293
0.0608175
0.0308118
-0.059452
0.0609673
0.0317815
0.058576
0.0309106
0.0538438
0.0282643
0.0477075
0.0245368
0.0411898
0.0204793
0.0350175
0.0166983
0.0295494
0.0134869
0.0248747
0.0108979
0.0209393
0.00886199
0.0176376
0.0072727
0.0148604
0.00602765
0.0125123
0.00504301
0.0105153
0.00425492
0.00880727
0.00361609
0.00733889
0.00309171
0.00607102
0.00265613
0.00497243
0.00229031
0.00401774
0.00198059
0.00318593
0.00171163
0.00246331
0.00149002
0.00183223
0.00128854
0.00128321
0.00111946
0.000804869
0.000964012
0.000390547
0.000834515
3.45366e-05
0.000712461
-0.000280035
0.000613662
-0.000548646
0.000520289
-0.000777159
0.000434823
-0.000971621
0.000364188
-0.00113494
0.00029751
-0.00127101
0.000239632
-0.00138198
0.000184852
-0.00147045
0.000134747
-0.00153905
8.83201e-05
-0.0015908
4.94282e-05
-0.00163118
2.398e-05
-0.00166925
2.12361e-05
-0.00171719
4.97437e-05
-0.00178649
0.000112732
-0.00188814
0.000204159
-0.00203007
0.000316987
-0.00221816
0.000445764
-0.00246129
0.000600684
-0.00277258
0.000793043
-0.00316861
0.00103329
-0.00366662
0.00132761
-0.00427705
0.00166418
-0.00498358
0.00197669
-0.00571039
0.00210765
-0.00627276
0.00174362
-0.00636815
0.000500258
-0.00567684
-0.00171989
-0.0040441
-0.00442688
-0.00171334
-0.00647007
0.000584103
-0.0064479
0.00202325
-0.00422824
0.0018737
-0.000149614
-0.000380088
0.00536345
-0.00468067
0.0110881
-0.0100901
0.0147948
-0.0148204
0.0138802
-0.0172538
0.00817163
-0.0165271
-0.000758934
-0.0129575
-0.00933038
-0.00800321
-0.0137159
-0.00337791
-0.0129256
-3.90257e-06
-0.00938886
0.00199755
-0.0055651
0.00288857
-0.00252692
0.00297556
-0.000337504
0.00256478
0.00105207
0.00196309
0.00163068
0.0014335
0.00148522
0.00112283
0.000909487
0.00104534
0.000259876
0.00109612
-0.000109151
0.00116315
-0.00016041
0.00118567
-3.03164e-05
0.00115619
0.000133478
0.00110604
0.000218191
0.00107917
0.000184278
0.00111364
4.02641e-05
0.00123435
-0.000176268
0.00145489
-0.000431856
0.0017752
-0.000696978
0.00218447
-0.000939666
0.00266639
-0.00113824
0.00319894
-0.00128101
0.00376417
-0.00137388
0.00434427
-0.00141532
0.00493168
-0.00143286
0.00551833
-0.00142324
0.00610958
-0.00142355
0.00671234
-0.00143641
0.00734695
-0.00150202
0.00802387
-0.00159398
0.00875548
-0.00172088
0.00953843
-0.00183708
0.0103805
-0.00197436
0.0112807
-0.00210498
0.0122562
-0.00228262
0.0133082
-0.00245839
0.0144575
-0.00269301
0.0156999
-0.00290843
0.0170595
-0.00319492
0.0185289
-0.00344776
0.0201348
-0.00378764
0.0218777
-0.00410076
0.0237716
-0.00448665
0.025853
-0.00491731
0.0280869
-0.00531958
0.0305942
-0.00596182
0.0332492
-0.00635637
0.0363393
-0.00744785
0.0394704
-0.00754239
0.0439109
-0.0110974
0.0472489
-0.00823558
0.05565
-0.0226395
-0.0233863
0.0642502
0.0297587
-0.063197
0.065207
0.0308247
0.0649317
0.0311859
0.0628182
0.0303778
0.0589529
0.0284022
0.0538509
0.0255813
0.0481487
0.0224005
0.0423831
0.0192524
0.036914
0.016367
0.0319312
0.0138447
0.0275011
0.0117028
0.0236151
0.00991363
0.0202282
0.00842995
0.0172824
0.0072007
0.0147198
0.00617876
0.0124873
0.00532418
0.0105389
0.00460447
0.00883557
0.00399368
0.00734396
0.0034722
0.00603562
0.00301997
0.00488986
0.00263577
0.00388373
0.00229467
0.00300218
0.00200101
0.00222927
0.00173692
0.00155397
0.00150981
0.000964145
0.00130229
0.000451895
0.00112591
1.16423e-05
0.000960542
-0.000378853
0.000825318
-0.000711574
0.000696908
-0.00099541
0.000581347
-0.00123669
0.000480907
-0.00143941
0.00038758
-0.00160777
0.0003031
-0.00174571
0.000226266
-0.00185871
0.000162427
-0.0019546
0.000119871
-0.00204417
0.000110799
-0.00214144
0.000147019
-0.00226244
0.000233735
-0.00242011
0.000361824
-0.00262486
0.000521736
-0.00288391
0.000704815
-0.0032075
0.000924277
-0.0036109
0.00119644
-0.00411283
0.00153522
-0.00473124
0.00194602
-0.00547358
0.00240652
-0.00631328
0.00281639
-0.00715226
0.00294663
-0.00777121
0.00236257
-0.0078282
0.000557245
-0.00696689
-0.0025812
-0.00501118
-0.00638259
-0.00223145
-0.0092498
0.000511452
-0.0091908
0.00217495
-0.00589174
0.00180565
0.000219693
-0.00119382
0.00836291
-0.00662972
0.016524
-0.0131104
0.0212755
-0.0184353
0.0192051
-0.0208487
0.010585
-0.019602
-0.00200559
-0.0151789
-0.0137536
-0.00922076
-0.019674
-0.00365314
-0.0184932
0.000434252
-0.0134763
0.00287749
-0.00800834
0.00395112
-0.00360055
0.00403334
-0.000419723
0.00351262
0.0015728
0.00277429
0.00236901
0.00213963
0.00211988
0.00177984
0.00126927
0.00170346
0.000336255
0.00178126
-0.000186951
0.00188088
-0.000260024
0.00193181
-8.12522e-05
0.00192905
0.000136241
0.00191252
0.000234725
0.00193477
0.000162026
0.00204092
-6.58875e-05
0.00226065
-0.000396003
0.00260794
-0.000779147
0.00308049
-0.00116953
0.00366322
-0.00152239
0.00433513
-0.00181015
0.00506883
-0.00201471
0.00584279
-0.00214784
0.00663604
-0.00220858
0.00744071
-0.00223753
0.00824848
-0.00223101
0.009068
-0.00224306
0.00990953
-0.00227794
0.0107993
-0.00239183
0.0117506
-0.00254525
0.0127787
-0.00274898
0.0138797
-0.00293811
0.015064
-0.00315864
0.016331
-0.00337197
0.0177028
-0.00365447
0.0191815
-0.00393706
0.0207934
-0.00430487
0.0225343
-0.00464939
0.0244336
-0.00509423
0.0264856
-0.00549969
0.0287191
-0.00602121
0.0311434
-0.00652498
0.0337634
-0.00710673
0.0366442
-0.00779802
0.0397149
-0.00839035
0.0431614
-0.00940831
0.0467824
-0.00997738
0.050983
-0.0116484
0.0552098
-0.0117693
0.0610731
-0.0169606
0.0655395
-0.012702
0.0757997
-0.0328998
-0.0339309
0.0679388
0.0289965
-0.0671766
0.0688885
0.029875
0.069477
0.0305974
0.0690629
0.0307919
0.0672935
0.0301716
0.0641701
0.0287047
0.0599633
0.0266072
0.055052
0.0241638
0.0498077
0.0216113
0.044536
0.0191164
0.0394567
0.0167821
0.0347065
0.0146639
0.0303542
0.0127822
0.0264204
0.0111345
0.0228955
0.00970366
0.0197535
0.00846621
0.0169612
0.00739675
0.0144841
0.00647083
0.0122886
0.00566765
0.0103435
0.00496509
0.00862341
0.00435585
0.00710151
0.00381657
0.00575758
0.00334495
0.0045711
0.0029234
0.00352663
0.00255428
0.00260794
0.00222098
0.00180304
0.00193082
0.00109852
0.00166506
0.000485815
0.00143803
-4.45177e-05
0.00122724
-0.000509771
0.0010466
-0.000908411
0.000879547
-0.00124932
0.000728487
-0.00153942
0.000593202
-0.00178493
0.000471776
-0.00199313
0.000370625
-0.00217405
0.000300797
-0.00234135
0.000278092
-0.00251177
0.000317446
-0.00270436
0.000426319
-0.00293549
0.000592954
-0.00321799
0.000804235
-0.00356066
0.00104749
-0.00397484
0.00133846
-0.00447733
0.00169893
-0.00508791
0.0021458
-0.0058237
0.00268181
-0.00668747
0.00327029
-0.00764219
0.00377111
-0.00857074
0.00387519
-0.00923065
0.00302248
-0.00925759
0.000584188
-0.00827129
-0.00356751
-0.00606703
-0.00858684
-0.00290975
-0.0124071
0.000237384
-0.0123379
0.00209995
-0.00775431
0.00147189
0.000847754
-0.00229526
0.0121301
-0.00879711
0.0230259
-0.0161571
0.0286355
-0.0218207
0.0248687
-0.0240399
0.0128043
-0.0222564
-0.00378917
-0.0170608
-0.0189491
-0.010181
-0.0265539
-0.00370783
-0.0249663
0.00109281
-0.0182769
0.00397949
-0.010895
0.00523934
-0.0048604
0.00531787
-0.000498256
0.00468956
0.00220111
0.00382
0.00323857
0.0030881
0.00285178
0.00268755
0.00166982
0.002621
0.000402809
0.00273637
-0.000302323
0.00288235
-0.000406002
0.0029806
-0.0001795
0.00302738
8.94556e-05
0.00307051
0.000191596
0.00317251
6.00254e-05
0.00338361
-0.000276984
0.0037383
-0.000750693
0.00424997
-0.00129082
0.00491353
-0.00183309
0.00570937
-0.00231823
0.00661177
-0.00271255
0.00758788
-0.00299083
0.00861294
-0.0031729
0.00966298
-0.00325862
0.0107304
-0.00330493
0.0118069
-0.0033075
0.0129051
-0.00334134
0.014039
-0.00341181
0.0152412
-0.00359404
0.0165275
-0.00383147
0.0179166
-0.00413809
0.0194038
-0.00442539
0.0210029
-0.00475774
0.0227135
-0.00508251
0.0245632
-0.00550419
0.0265545
-0.00592837
0.0287199
-0.00647031
0.0310551
-0.00698452
0.033595
-0.00763416
0.0363351
-0.00823978
0.0393067
-0.0089928
0.0425281
-0.00974641
0.045993
-0.0105716
0.0497988
-0.0116038
0.0538301
-0.0124216
0.0583504
-0.0139286
0.063059
-0.0146861
0.068514
-0.0171034
0.0739417
-0.017197
0.0813453
-0.0243642
0.0870806
-0.0184372
0.0990449
-0.0448641
-0.0461303
0.0720365
0.0283818
-0.0714218
0.0727878
0.0291236
0.0735143
0.0298709
0.0738457
0.0304605
0.0734075
0.0306098
0.0719614
0.0301508
0.0694687
0.0290999
0.0660449
0.0275876
0.0618929
0.0257634
0.0572475
0.0237618
0.0523376
0.021692
0.0473634
0.019638
0.0424852
0.0176605
0.0378195
0.0158001
0.0334416
0.0140816
0.0293919
0.0125159
0.0256848
0.0111039
0.0223167
0.00983891
0.0192734
0.00871095
0.0165341
0.00770439
0.0140781
0.00681189
0.0118804
0.00601419
0.0099198
0.00530558
0.00817362
0.00466958
0.00662322
0.00410467
0.00524899
0.00359522
0.00403538
0.00314442
0.00296531
0.00273513
0.00202644
0.0023769
0.00120339
0.00205029
0.000486056
0.00176394
-0.000137742
0.00150334
-0.00068166
0.0012724
-0.00115042
0.00106196
-0.0015542
0.000875555
-0.00190317
0.000719598
-0.00220977
0.000607397
-0.00248998
0.000558304
-0.00276379
0.000591255
-0.00305391
0.000716433
-0.00338011
0.000919156
-0.00375838
0.00118251
-0.00419946
0.00148857
-0.0047155
0.00185449
-0.00532405
0.00230748
-0.00604481
0.00286656
-0.00689265
0.00352964
-0.00786472
0.00424236
-0.0089154
0.0048218
-0.00991539
0.00487517
-0.0106139
0.00372103
-0.0106427
0.000612906
-0.00960515
-0.00460501
-0.00725543
-0.0109366
-0.00381209
-0.0158504
-0.000305395
-0.0158446
0.00174303
-0.00980273
0.000850234
0.00174055
-0.0036413
0.0166216
-0.0110689
0.0304535
-0.0190627
0.0366294
-0.0248131
0.030619
-0.0267332
0.0147244
-0.0244677
-0.00605463
-0.0186144
-0.0248025
-0.0108908
-0.0342774
-0.00352988
-0.0323272
0.00199873
-0.0238055
0.00534794
-0.0142442
0.00680674
-0.0063192
0.00688885
-0.000580363
0.00615912
0.00293084
0.00516528
0.00423241
0.00434397
0.00367309
0.00391092
0.00210287
0.003864
0.000449729
0.00403014
-0.000468461
0.0042406
-0.00061647
0.00440832
-0.000347212
0.00453224
-3.44722e-05
0.00466693
5.69108e-05
0.00488142
-0.000154468
0.00523533
-0.000630896
0.00576486
-0.00128022
0.00648237
-0.00200833
0.00738016
-0.00273088
0.00843388
-0.00337194
0.00961309
-0.00389176
0.0108795
-0.00425724
0.0122053
-0.00449865
0.0135634
-0.00461679
0.014947
-0.00468846
0.0163478
-0.0047083
0.017783
-0.00477663
0.0192702
-0.00489896
0.0208487
-0.0051726
0.0225367
-0.0055194
0.0243567
-0.00595813
0.0263035
-0.00637215
0.0283942
-0.00684852
0.0306289
-0.00731713
0.0330407
-0.007916
0.0356326
-0.00852029
0.0384429
-0.00928064
0.0414675
-0.0100091
0.0447457
-0.0109124
0.0482761
-0.0117702
0.0520883
-0.012805
0.0562151
-0.0138732
0.0606294
-0.014986
0.0654722
-0.0164465
0.070567
-0.0175165
0.0762713
-0.0196328
0.0821627
-0.0205775
0.0889709
-0.0239116
0.0956794
-0.0239054
0.104661
-0.0333455
0.111794
-0.0255703
0.125251
-0.0583211
-0.059667
0.0764906
0.0278373
-0.0759461
0.0770887
0.0285255
0.0777215
0.0292381
0.0782386
0.0299435
0.0784068
0.0304415
0.0779897
0.030568
0.0768269
0.0302626
0.074857
0.0295575
0.0721058
0.0285146
0.0686629
0.0272047
0.0646558
0.0256991
0.0602312
0.0240626
0.0555413
0.0223504
0.0507321
0.0206093
0.0459345
0.0188791
0.0412566
0.0171937
0.0367802
0.0155804
0.0325606
0.0140584
0.0286307
0.0126409
0.0250042
0.0113308
0.021684
0.0101321
0.0186616
0.00903661
0.0159249
0.00804226
0.0134569
0.00713761
0.0112409
0.00632072
0.00925742
0.00557866
0.00748962
0.00491223
0.00591803
0.00430671
0.00452746
0.00376748
0.0032994
0.00327834
0.00221968
0.00284366
0.00127222
0.0024508
0.000444214
0.00210041
-0.000279018
0.00178519
-0.000910627
0.00150716
-0.00146177
0.00127074
-0.00194813
0.00109376
-0.00238854
0.000998715
-0.00280607
0.00100878
-0.00322739
0.00113775
-0.00367645
0.00136821
-0.00417323
0.0016793
-0.00473095
0.00204628
-0.00536241
0.00248596
-0.00608511
0.00303018
-0.00691744
0.00369889
-0.00787096
0.00448316
-0.00893755
0.00530896
-0.0100672
0.00595145
-0.0111286
0.00593655
-0.0118796
0.00447204
-0.0119653
0.000698608
-0.0109769
-0.00559338
-0.0086106
-0.0133029
-0.00499262
-0.0194684
-0.00117157
-0.0196657
0.00106167
-0.012036
-7.00628e-05
0.00287228
-0.00515675
0.0217083
-0.013298
0.0385947
-0.0216445
0.0449759
-0.0272725
0.036247
-0.0288752
0.0163271
-0.0262451
-0.00868471
-0.0198651
-0.0311825
-0.011366
-0.0427766
-0.00311074
-0.0405825
0.0031846
-0.0301008
0.00703648
-0.0180961
0.00871962
-0.00800234
0.0088196
-0.00068034
0.00799778
0.00375266
0.00688693
0.00534326
0.00598302
0.00457701
0.00552502
0.00256086
0.00550864
0.000466111
0.00574156
-0.000701378
0.00603814
-0.000913048
0.00630261
-0.000611683
0.00653318
-0.000265039
0.00679219
-0.000202102
0.00715788
-0.000520162
0.00769405
-0.00116707
0.00844042
-0.00202658
0.00940844
-0.00297636
0.0105877
-0.00391019
0.0119493
-0.00473346
0.013458
-0.00540045
0.0150699
-0.00586916
0.0167541
-0.00618285
0.0184802
-0.00634297
0.020242
-0.00645021
0.0220311
-0.00649735
0.0238694
-0.00661499
0.0257776
-0.00680713
0.0278021
-0.00719711
0.0299629
-0.00768018
0.0322872
-0.00828242
0.0347688
-0.00885378
0.0374293
-0.00950901
0.0402683
-0.0101561
0.0433248
-0.0109725
0.0466018
-0.0117973
0.050143
-0.0128219
0.0539446
-0.0138106
0.0580488
-0.0150166
0.0624584
-0.0161798
0.0671977
-0.0175442
0.0723174
-0.018993
0.0777627
-0.0204313
0.0837243
-0.0224082
0.0899535
-0.0237456
0.0969116
-0.0265909
0.104035
-0.0277011
0.112247
-0.0321229
0.120256
-0.031915
0.130779
-0.0438685
0.139369
-0.0341597
0.154061
-0.0730137
-0.0741653
0.0812639
0.0273375
-0.0807641
0.081777
0.0280124
0.0823115
0.0287036
0.082813
0.029442
0.0831678
0.0300867
0.0832266
0.0305092
0.0828445
0.0306447
0.0819105
0.0304915
0.0803598
0.0300652
0.0781737
0.0293908
0.0753714
0.0285014
0.0720022
0.0274318
0.0681395
0.0262132
0.0638761
0.0248727
0.0593195
0.0234357
0.0545847
0.0219286
0.0497852
0.0203798
0.0450254
0.0188183
0.0403932
0.0172732
0.0359563
0.0157678
0.0317639
0.0143245
0.0278458
0.0129547
0.0242183
0.0116697
0.0208853
0.0104706
0.0178442
0.00936186
0.0150848
0.00833806
0.0125952
0.00740176
0.0103588
0.00654314
0.00836032
0.00576597
0.00658038
0.00505828
0.00500224
0.0044218
0.00360683
0.00384621
0.00237711
0.00333014
0.00129544
0.00286687
0.000345536
0.00245706
-0.000490594
0.00210687
-0.00122999
0.00183316
-0.00189441
0.00166313
-0.00250996
0.00162433
-0.00310769
0.00173549
-0.0037166
0.00197712
-0.00436184
0.00232454
-0.00505999
0.00274442
-0.00582467
0.00325065
-0.00667247
0.00387798
-0.00761949
0.00464591
-0.00867343
0.00553709
-0.00982267
0.0064582
-0.0110192
0.007148
-0.0121422
0.00705957
-0.0129753
0.00530508
-0.0131921
0.000915434
-0.0123719
-0.00641356
-0.0101377
-0.0155371
-0.00647784
-0.0231282
-0.00239443
-0.0237491
8.46267e-06
-0.0144389
-0.00115287
0.00403361
-0.00672933
0.0272847
-0.0153108
0.0471762
-0.0237208
0.0533859
-0.0290904
0.0416166
-0.0304425
0.0176792
-0.0276052
-0.011522
-0.0208354
-0.0379523
-0.0116219
-0.0519901
-0.00244426
-0.0497601
0.00468332
-0.0372284
0.00910654
-0.0225193
0.0110573
-0.00995307
0.0111981
-0.000821136
0.010296
0.00465471
0.00907425
0.00656502
0.00809195
0.00555931
0.00761461
0.0030382
0.00763964
0.000441083
0.00795685
-0.00101859
0.00836369
-0.00131988
0.00875257
-0.00100056
0.00912276
-0.000635234
0.00954089
-0.000620226
0.0100937
-0.00107297
0.0108526
-0.00192597
0.0118586
-0.00303261
0.0131234
-0.00424109
0.0146343
-0.00542117
0.0163579
-0.00645706
0.0182546
-0.00729715
0.0202745
-0.007889
0.022383
-0.00829141
0.0245458
-0.00850571
0.0267565
-0.00866092
0.0290059
-0.00874674
0.0313204
-0.00892954
0.0337229
-0.00920961
0.0362667
-0.0097409
0.0389733
-0.0103868
0.041875
-0.0111842
0.0449651
-0.0119439
0.0482695
-0.0128134
0.0517875
-0.0136741
0.0555632
-0.0147482
0.0595996
-0.0158337
0.0639442
-0.0171665
0.0685943
-0.0184607
0.073592
-0.0200143
0.0789469
-0.0215348
0.0846715
-0.0232688
0.0908405
-0.025162
0.0973605
-0.0269513
0.104481
-0.029529
0.111868
-0.0311322
0.120096
-0.0348187
0.128444
-0.0360493
0.138035
-0.0417141
0.147308
-0.0411879
0.159243
-0.0558039
0.169263
-0.0441791
0.184892
-0.0886427
-0.089239
0.0863667
0.0268715
-0.0859007
0.0868329
0.0275463
0.0873052
0.0282313
0.0877589
0.0289883
0.0881397
0.0297059
0.0883686
0.0302804
0.0883532
0.0306601
0.0880041
0.0308406
0.0872455
0.0308238
0.0860214
0.030615
0.0842957
0.0302271
0.0820501
0.0296774
0.0792829
0.0289804
0.0760101
0.0281454
0.0722682
0.0271777
0.0681151
0.0260817
0.0636291
0.0248658
0.0589041
0.0235433
0.0540424
0.0221348
0.0491458
0.0206643
0.0443089
0.0191614
0.0396111
0.0176525
0.035116
0.0161648
0.0308687
0.0147178
0.0269
0.0133306
0.0232256
0.0120124
0.0198526
0.0107748
0.0167775
0.00961819
0.0139935
0.00854999
0.0114864
0.00756542
0.00924101
0.00666714
0.00723834
0.00584889
0.00545921
0.00510926
0.00388293
0.00444315
0.00248921
0.00385078
0.00125747
0.00333861
0.000165728
0.0029249
-0.000809373
0.00263823
-0.0016972
0.00251215
-0.00253344
0.00257173
-0.00335285
0.00279654
-0.00418743
0.00315912
-0.00505855
0.00361554
-0.00598128
0.00417338
-0.00697083
0.00486754
-0.00804023
0.00571531
-0.00919332
0.00669019
-0.0104181
0.00768296
-0.0116763
0.00840617
-0.0128708
0.00825415
-0.0138262
0.0062605
-0.0142566
0.00134575
-0.0137304
-0.00693969
-0.0117892
-0.0174783
-0.00824513
-0.0266723
-0.00396622
-0.028028
-0.00125837
-0.0171467
-0.00241125
0.00518649
-0.00821296
0.0330865
-0.0169151
0.0558783
-0.0251245
0.0615953
-0.0301848
0.0466769
-0.0314156
0.01891
-0.0285415
-0.0143962
-0.0215197
-0.044974
-0.0116598
-0.0618501
-0.00152218
-0.0598977
0.0065227
-0.0452733
0.0116229
-0.0276196
0.0139104
-0.0122405
0.014127
-0.00103768
0.013159
0.00562265
0.0118296
0.00789439
0.0107686
0.00662039
0.0102736
0.00353312
0.0103487
0.000366027
0.0107674
-0.00143728
0.0113085
-0.00186097
0.01185
-0.00154213
0.0123888
-0.00117399
0.0129987
-0.00123012
0.0137742
-0.00184849
0.0147919
-0.00294364
0.0160978
-0.00433857
0.0177043
-0.00584756
0.0195977
-0.00731453
0.0217402
-0.00859954
0.024088
-0.00964495
0.0265845