/*--------------------------------*- C++ -*----------------------------------*\
| =========                 |                                                 |
| \\      /  F ield         | OpenFOAM: The Open Source CFD Toolbox           |
|  \\    /   O peration     | Version:  2412                                  |
|   \\  /    A nd           | Website:  www.openfoam.com                      |
|    \\/     M anipulation  |                                                 |
\*---------------------------------------------------------------------------*/
FoamFile
{
    version     2.0;
    format      ascii;
    arch        "LSB;label=32;scalar=64";
    class       volVectorField;
    location    "0.345";
    object      U;
}
// * * * * * * * * * * * * * * * * * * * * * * * * * * * * * * * * * * * * * //

dimensions      [0 1 -1 0 0 0 0];

internalField   nonuniform List<vector> 
12600
(
(20.9543 0 -1.13669)
(8.7067 -3.99118e-20 -1.84557)
(3.80982 -1.99714e-20 -1.87311)
(1.98407 0 -1.413)
(1.27378 -1.14841e-22 -0.962202)
(0.897281 0 -0.667819)
(0.644814 -3.21625e-20 -0.47886)
(0.461461 0 -0.348324)
(0.32381 0 -0.252517)
(0.218301 0 -0.179749)
(0.135723 0 -0.123808)
(0.0701333 -1.07079e-19 -0.0800556)
(0.0176892 -1.09948e-19 -0.0449927)
(-0.0243845 0 -0.0166113)
(-0.0582529 2.25001e-19 0.0065173)
(-0.08561 0 0.0252035)
(-0.107358 3.17317e-22 0.0400377)
(-0.124371 0 0.0523328)
(-0.137841 1.10237e-19 0.0621931)
(-0.14806 0 0.0699)
(-0.155691 0 0.0758868)
(-0.161006 0 0.0803422)
(-0.164396 4.10011e-19 0.0835565)
(-0.166247 -4.00348e-19 0.08566)
(-0.166573 -1.95204e-22 0.0869382)
(-0.165714 1.89984e-19 0.0875277)
(-0.163865 0 0.0874337)
(-0.161215 0 0.0867871)
(-0.157983 0 0.0856032)
(-0.154168 -3.36604e-19 0.0840752)
(-0.149971 -6.50137e-19 0.0822673)
(-0.145534 0 0.0802255)
(-0.140875 0 0.077966)
(-0.136057 -2.91821e-19 0.0755692)
(-0.13111 -2.81184e-19 0.0730704)
(-0.12611 0 0.0704795)
(-0.121065 0 0.0678338)
(-0.116026 -5.01348e-19 0.0651595)
(-0.111059 0 0.0624947)
(-0.106165 1.05247e-22 0.0598549)
(-0.101375 -4.44941e-19 0.0572564)
(-0.0967328 -4.27213e-19 0.0547175)
(-0.0922161 0 0.0522387)
(-0.0878202 -3.93238e-19 0.0498154)
(-0.0835787 -3.77042e-19 0.0474643)
(-0.0795524 7.22881e-19 0.0452352)
(-0.0758733 -6.92794e-19 0.0431818)
(-0.0727176 0 0.0414246)
(-0.0702516 6.35698e-19 0.0400372)
(-0.0685253 -6.0889e-19 0.03905)
(-0.0673608 0 0.0383728)
(-0.0662588 -3.01812e-23 0.0377268)
(-0.0643128 5.34264e-19 0.0366129)
(-0.0602526 0 0.0342199)
(-0.0526136 -9.7837e-19 0.0297539)
(-0.0403653 0 0.0227042)
(-0.0239469 0 0.0133778)
(-0.0058767 1.90462e-23 0.00336487)
(0.00951626 -2.80754e-24 -0.00523533)
(0.0195438 7.73499e-19 -0.0109111)
(0.024983 -7.35837e-19 -0.014006)
(0.0285848 1.3986e-18 -0.0159276)
(0.0300332 0 -0.0164553)
(0.0250597 1.257e-18 -0.013339)
(0.00812551 1.18812e-18 -0.002939)
(-0.0285097 -2.24062e-18 0.0185159)
(-0.0772879 1.0582e-18 0.0464289)
(-0.141892 0 0.0815152)
(-0.166593 0 0.0943207)
(-0.159005 0 0.0873791)
(0.0685452 0 -0.0408205)
(0.633018 0 -0.351862)
(0.66752 -1.34091e-18 -0.371439)
(0.154141 1.30135e-18 -0.0916682)
(0.196995 0 -0.111013)
(0.185147 0 -0.103668)
(0.126341 1.09726e-18 -0.0756889)
(0.305081 5.46798e-22 -0.171534)
(0.351281 1.80998e-18 -0.194982)
(0.190145 0 -0.0935477)
(-0.270161 0 0.176538)
(-0.944203 0 0.554574)
(-1.51434 -2.60339e-21 0.859291)
(-1.79433 0 1.00846)
(-1.7191 0 0.95636)
(-1.3286 2.0824e-18 0.733671)
(-0.788324 -4.24389e-21 0.430264)
(-0.357471 0 0.192185)
(-0.0823891 0 0.040701)
(0.0763901 -4.40794e-18 -0.0469918)
(0.14273 -4.17112e-18 -0.0829254)
(0.156403 -3.91397e-18 -0.0898016)
(0.130441 -3.67599e-18 -0.0750679)
(0.131655 -1.12311e-22 -0.0765843)
(0.18615 1.88602e-23 -0.107152)
(0.244691 3.04411e-18 -0.13864)
(0.189721 0 -0.104229)
(0.00865145 0 -9.72458e-05)
(-0.177736 0 0.101384)
(-0.209905 9.08026e-18 0.117747)
(-0.143721 -4.35171e-18 0.0793631)
(-0.0722567 4.14113e-18 0.0392154)
(-0.0277096 3.91234e-18 0.0144997)
(0.00304402 0 -0.00263971)
(0.0154116 0 -0.00932496)
(0.021183 0 -0.012349)
(0.0110293 6.05589e-18 -0.00649559)
(-0.00565935 0 0.00288287)
(-0.0257713 -5.3098e-18 0.0140369)
(-0.044241 0 0.024305)
(-0.0428191 0 0.0228586)
(-0.0339815 4.45322e-18 0.0172969)
(-7.85906e-05 0 -0.00276283)
(0.0467986 0 -0.0296862)
(0.0797351 0 -0.0486718)
(0.154071 -7.09362e-18 -0.0909807)
(0.161283 0 -0.0950005)
(0.251754 6.24831e-18 -0.146594)
(0.235656 0 -0.137299)
(0.375058 2.44729e-23 -0.216738)
(33.1255 -1.6263e-20 -1.76883)
(23.5412 2.29243e-20 -3.95799)
(15.2602 1.50086e-20 -4.85545)
(9.85493 0 -4.27065)
(6.68933 -1.16992e-20 -3.27851)
(4.76139 2.36151e-20 -2.45099)
(3.50317 3.35489e-20 -1.84202)
(2.62122 -3.97216e-20 -1.39333)
(1.96953 0 -1.0536)
(1.47149 0 -0.789914)
(1.0819 0 -0.581957)
(0.772223 0 -0.415594)
(0.523119 0 -0.280686)
(0.320908 0 -0.170418)
(0.155543 -7.89313e-22 -0.0798482)
(0.0199012 0 -0.00502891)
(-0.0902336 1.16948e-19 0.056552)
(-0.180317 0 0.106402)
(-0.254128 -2.29042e-19 0.147237)
(-0.313353 2.2537e-19 0.180313)
(-0.360693 0 0.206822)
(-0.397684 2.17171e-19 0.227504)
(-0.425905 -2.12888e-19 0.243396)
(-0.446786 2.07783e-19 0.255069)
(-0.461039 -2.02472e-19 0.263177)
(-0.470133 0 0.268022)
(-0.474568 1.90984e-19 0.270217)
(-0.475061 0 0.270381)
(-0.472264 0 0.268853)
(-0.466654 0 0.265921)
(-0.459012 3.36102e-19 0.261543)
(-0.449719 0 0.256103)
(-0.438924 0 0.249958)
(-0.42697 0 0.243183)
(-0.414114 0 0.235917)
(-0.400571 0 0.22824)
(-0.386492 0 0.220269)
(-0.372099 5.15827e-19 0.212123)
(-0.357613 0 0.203926)
(-0.343138 9.51348e-19 0.195736)
(-0.328787 9.12996e-19 0.187617)
(-0.314702 4.37755e-19 0.179643)
(-0.300887 0 0.17181)
(-0.287323 0 0.164117)
(-0.274139 7.70697e-19 0.156641)
(-0.261553 -7.38108e-19 0.149538)
(-0.249955 7.06472e-19 0.143021)
(-0.239923 0 0.137448)
(-0.231965 -6.4685e-19 0.133076)
(-0.226236 0 0.129958)
(-0.222203 0 0.127723)
(-0.218293 -5.65891e-19 0.125404)
(-0.211676 0 0.121284)
(-0.198243 0 0.112911)
(-0.173372 9.885e-19 0.0977261)
(-0.133856 0 0.0741563)
(-0.0809902 0 0.0433807)
(-0.0227517 3.58364e-23 0.0104271)
(0.0273202 8.16518e-19 -0.0175488)
(0.0601968 3.72954e-23 -0.0357006)
(0.0774309 0 -0.0451906)
(0.0872427 -1.39988e-18 -0.0505686)
(0.0883908 -1.3269e-18 -0.0506144)
(0.0676719 0 -0.0370669)
(0.00672423 -2.3684e-18 0.000737014)
(-0.115821 -4.54085e-22 0.0738635)
(-0.273004 0 0.166033)
(-0.468646 9.94246e-19 0.275878)
(-0.533402 0 0.30817)
(-0.497362 0 0.271271)
(0.187346 0 -0.152418)
(1.88712 0 -1.12068)
(2.12467 2.6441e-18 -1.18743)
(0.581484 -1.27942e-18 -0.313016)
(0.614418 0 -0.357801)
(0.599215 0 -0.337472)
(0.446704 1.07321e-18 -0.266938)
(0.946341 9.09804e-22 -0.55498)
(1.0391 2.02294e-21 -0.59303)
(0.393085 0 -0.192701)
(-1.15877 0 0.729551)
(-3.21786 0 1.91984)
(-4.82165 -4.35338e-21 2.81572)
(-5.48041 -1.18978e-18 3.1719)
(-5.10181 1.60934e-18 2.92488)
(-3.88118 -2.01207e-18 2.19703)
(-2.27326 -6.50509e-21 1.26633)
(-1.00701 -2.2723e-18 0.548755)
(-0.191324 0 0.0909853)
(0.290021 4.2368e-18 -0.177082)
(0.485137 0 -0.283425)
(0.52051 3.75279e-18 -0.299694)
(0.44128 0 -0.253478)
(0.453892 -6.61814e-18 -0.263776)
(0.618566 -3.11837e-18 -0.360721)
(0.761994 0 -0.440854)
(0.538582 0 -0.30264)
(-0.0349701 -4.85079e-18 0.0338056)
(-0.564687 4.5107e-18 0.333161)
(-0.620021 -8.62902e-18 0.357553)
(-0.409135 4.13298e-18 0.231877)
(-0.194057 -3.92946e-18 0.10837)
(-0.0633516 0 0.0342803)
(0.0287761 3.4883e-18 -0.0178514)
(0.061777 0 -0.0361451)
(0.0762411 0 -0.0437924)
(0.0425721 -5.72336e-18 -0.0237425)
(-0.006371 0 0.0048355)
(-0.0599179 3.40489e-22 0.0360158)
(-0.102897 4.70774e-18 0.060556)
(-0.0809494 0 0.0474391)
(-0.0345882 0 0.0200212)
(0.0812877 0 -0.0480157)
(0.240549 3.75127e-18 -0.139622)
(0.34003 -7.10173e-18 -0.198395)
(0.581352 6.66863e-18 -0.336445)
(0.593158 0 -0.344546)
(0.887732 -5.86872e-18 -0.513305)
(0.823794 0 -0.47858)
(1.26957 1.02435e-17 -0.735679)
(36.7187 3.48781e-20 -1.77852)
(32.2778 -9.55909e-21 -3.72533)
(25.6705 -2.27345e-21 -5.43119)
(19.2332 0 -5.83103)
(14.1257 -1.47437e-20 -5.27773)
(10.4642 7.59796e-22 -4.39205)
(7.89255 0 -3.5316)
(6.03903 3.76993e-20 -2.80462)
(4.65631 0 -2.2132)
(3.5948 4.63742e-20 -1.73408)
(2.76183 0 -1.34374)
(2.09699 0 -1.02358)
(1.55931 0 -0.759413)
(1.12028 0 -0.540302)
(0.759159 -1.10321e-19 -0.357989)
(0.461103 0 -0.20523)
(0.21549 0 -0.0771178)
(0.0117677 0 0.0281018)
(-0.156481 1.08488e-19 0.11595)
(-0.294666 -6.13161e-22 0.188125)
(-0.407673 0 0.247528)
(-0.498876 -4.5397e-22 0.295576)
(-0.571503 0 0.334055)
(-0.628479 -1.96411e-19 0.364135)
(-0.671662 0 0.386977)
(-0.703492 0 0.403438)
(-0.725116 -1.81155e-19 0.414565)
(-0.738218 0 0.421256)
(-0.744495 0 0.423693)
(-0.744771 -3.28962e-19 0.423033)
(-0.740249 0 0.419473)
(-0.731435 0 0.413968)
(-0.719207 0 0.406561)
(-0.704124 0 0.397777)
(-0.68676 2.74436e-19 0.387819)
(-0.667564 0 0.376864)
(-0.646897 0 0.365157)
(-0.625203 -4.88262e-19 0.352938)
(-0.602923 0 0.340436)
(-0.58031 -9.00667e-19 0.327772)
(-0.557603 -1.11941e-22 0.315066)
(-0.535069 -4.14444e-19 0.302472)
(-0.512778 0 0.289986)
(-0.490724 0 0.277633)
(-0.469141 -3.64614e-19 0.265585)
(-0.448413 0 0.254098)
(-0.429177 -6.68294e-19 0.243585)
(-0.412406 0 0.234607)
(-0.398942 5.3809e-23 0.227589)
(-0.389066 0 0.222543)
(-0.381924 0 0.218747)
(-0.374937 0 0.214438)
(-0.363416 -5.11206e-19 0.206647)
(-0.340473 0 0.191411)
(-0.298453 0 0.164595)
(-0.232004 0 0.12386)
(-0.143087 0 0.071572)
(-0.0447773 1.61972e-18 0.0161712)
(0.0406222 0 -0.0301666)
(0.0972044 2.99095e-23 -0.0596844)
(0.126215 0 -0.0743638)
(0.140715 6.60125e-19 -0.0814738)
(0.138646 1.25107e-18 -0.077722)
(0.0980867 0 -0.0484625)
(-0.0119936 2.23281e-18 0.0232787)
(-0.223512 1.05088e-18 0.152393)
(-0.487845 0 0.308573)
(-0.803075 -9.36336e-19 0.481138)
(-0.896296 0 0.516398)
(-0.826983 0 0.425294)
(0.258075 0 -0.296331)
(2.93528 0 -1.79941)
(3.54926 2.54926e-21 -1.93521)
(1.10093 1.20317e-18 -0.552642)
(1.02625 0 -0.59544)
(1.01585 0 -0.564225)
(0.794676 -3.50245e-22 -0.484944)
(1.54884 -1.86281e-18 -0.917635)
(1.63129 -8.32039e-19 -0.901263)
(0.39934 0 -0.093812)
(-2.2824 0 1.52836)
(-5.5991 0 3.4237)
(-8.00933 -1.71563e-18 4.70809)
(-8.82074 8.47941e-21 5.07842)
(-8.04697 -1.50972e-18 4.52559)
(-6.06171 0 3.3161)
(-3.5265 -2.08422e-18 1.86618)
(-1.53795 2.13031e-18 0.77331)
(-0.242848 0 0.0733424)
(0.536913 0 -0.34229)
(0.850131 3.75145e-18 -0.500876)
(0.902153 0 -0.517238)
(0.774708 3.29743e-18 -0.44326)
(0.802369 1.39325e-22 -0.469654)
(1.06233 2.9198e-18 -0.624005)
(1.25119 -2.72196e-18 -0.717292)
(0.829107 0 -0.440548)
(-0.117036 4.53957e-18 0.115683)
(-0.92999 -4.22067e-18 0.556769)
(-0.974175 8.07003e-18 0.552161)
(-0.626607 0 0.340993)
(-0.281059 -3.67373e-18 0.146397)
(-0.075174 0 0.0335763)
(0.0729754 -3.26181e-18 -0.0474735)
(0.121181 3.05827e-18 -0.0720201)
(0.142469 0 -0.0816475)
(0.0861186 5.3499e-18 -0.0470976)
(0.0119443 0 -0.00400237)
(-0.0637534 9.36588e-18 0.0389662)
(-0.114441 -4.39923e-18 0.0654819)
(-0.0583558 0 0.0295556)
(0.0407348 0 -0.031339)
(0.240786 0 -0.150639)
(0.518831 -6.65802e-22 -0.309846)
(0.677411 6.63355e-18 -0.404352)
(1.08761 -6.22685e-18 -0.636272)
(1.09417 0 -0.642571)
(1.59607 -5.4799e-18 -0.927476)
(1.47392 0 -0.862615)
(2.21924 -3.5374e-23 -1.29048)
(37.21 -1.84308e-20 -2.08118)
(36.1079 -5.59121e-21 -3.20983)
(32.4883 7.33912e-21 -4.94819)
(27.4066 -1.56577e-20 -6.12273)
(22.129 -2.2376e-20 -6.36218)
(17.4849 -4.55484e-20 -5.90951)
(13.7418 0 -5.14601)
(10.8248 0 -4.32668)
(8.55637 0 -3.5672)
(6.77344 -4.39246e-20 -2.90316)
(5.3532 0 -2.33578)
(4.20749 0 -1.85482)
(3.27321 0 -1.44798)
(2.50478 0 -1.10375)
(1.86844 0 -0.812443)
(1.3391 -1.03829e-19 -0.565474)
(0.898369 1.03721e-19 -0.356107)
(0.530538 0 -0.179966)
(0.223356 0 -0.0311703)
(-0.0323344 -2.02004e-19 0.0931865)
(-0.244321 1.98065e-19 0.197158)
(-0.419115 -1.94738e-19 0.282702)
(-0.561633 1.90105e-19 0.353184)
(-0.676894 1.85987e-19 0.410089)
(-0.768138 -1.80923e-19 0.455358)
(-0.839194 1.7602e-19 0.490672)
(-0.89261 0 0.517183)
(-0.931276 -1.65827e-19 0.536197)
(-0.957485 0 0.54837)
(-0.972679 3.11348e-19 0.555183)
(-0.979333 0 0.556342)
(-0.978559 0 0.553363)
(-0.97101 0 0.54782)
(-0.958111 -2.69456e-19 0.539485)
(-0.940814 -2.59606e-19 0.528984)
(-0.919858 0 0.516675)
(-0.895937 0 0.502897)
(-0.869785 4.6171e-19 0.488061)
(-0.842125 0 0.472521)
(-0.813423 1.3373e-22 0.456479)
(-0.784093 -4.08417e-19 0.440136)
(-0.754567 0 0.423736)
(-0.725026 0 0.407292)
(-0.695516 0 0.390877)
(-0.666394 0 0.374774)
(-0.638221 -6.59325e-19 0.359361)
(-0.611884 0 0.345248)
(-0.588723 6.03796e-19 0.333205)
(-0.569917 5.77432e-19 0.323788)
(-0.555874 0 0.316937)
(-0.545431 0 0.311544)
(-0.535078 0 0.304994)
(-0.518348 4.82301e-19 0.293075)
(-0.485821 -4.6072e-19 0.270229)
(-0.426994 -8.80231e-19 0.230903)
(-0.334442 0 0.172308)
(-0.210579 -8.01371e-19 0.0982631)
(-0.0728724 -1.52666e-18 0.020963)
(0.048027 0 -0.0427907)
(0.128914 -1.38039e-18 -0.0827176)
(0.169538 0 -0.101554)
(0.187044 -6.21879e-19 -0.108683)
(0.178394 -1.1785e-18 -0.0979541)
(0.112948 0 -0.0486918)
(-0.0515865 -1.05101e-18 0.0628543)
(-0.354167 -9.89692e-19 0.25168)
(-0.722008 0 0.470993)
(-1.14172 0 0.695007)
(-1.24991 0 0.72017)
(-1.14178 8.08992e-19 0.557336)
(0.281321 7.86402e-19 -0.465177)
(3.68419 0 -2.36901)
(4.89588 -1.17244e-18 -2.63072)
(1.71282 -1.13013e-18 -0.807075)
(1.43882 0 -0.832658)
(1.43156 0 -0.788921)
(1.16546 -9.46617e-19 -0.720498)
(2.09815 -8.87505e-22 -1.26037)
(2.09444 0 -1.12368)
(0.173426 0 0.173944)
(-3.64499 0 2.51829)
(-8.02899 0 5.0109)
(-10.9602 4.76537e-21 6.50192)
(-11.6883 1.03878e-18 6.73356)
(-10.4489 0 5.82749)
(-7.7997 0 4.1834)
(-4.51366 0 2.30112)
(-1.93569 1.99066e-18 0.906955)
(-0.23332 0 0.0082671)
(0.815421 3.71616e-18 -0.533187)
(1.23686 -3.51305e-18 -0.733703)
(1.30162 3.29211e-18 -0.744733)
(1.13268 -3.08689e-18 -0.646249)
(1.17669 5.8004e-18 -0.691792)
(1.51052 -2.73254e-18 -0.892677)
(1.70184 2.54703e-18 -0.970941)
(1.05578 0 -0.537611)
(-0.229336 0 0.222964)
(-1.25676 -3.947e-18 0.765076)
(-1.25851 -3.77302e-18 0.709872)
(-0.787572 -3.61161e-18 0.418546)
(-0.327077 7.92197e-22 0.160986)
(-0.0588425 0 0.016714)
(0.139395 0 -0.0896549)
(0.197076 -2.85857e-18 -0.116965)
(0.224684 0 -0.128069)
(0.148032 -4.99953e-18 -0.0799199)
(0.0589667 0 -0.0278565)
(-0.0258344 -3.31331e-22 0.0201947)
(-0.0649467 0 0.0384206)
(0.0375802 -3.87243e-18 -0.0273529)
(0.204694 3.6583e-18 -0.129394)
(0.488249 3.46558e-18 -0.30062)
(0.889865 -7.66106e-22 -0.529287)
(1.09873 0 -0.656359)
(1.678 5.81509e-18 -0.981649)
(1.67001 5.47826e-18 -0.982715)
(2.38009 5.11694e-18 -1.384)
(2.19149 0 -1.28666)
(3.22092 -3.43289e-23 -1.87895)
(36.778 0 -2.60568)
(37.0056 -4.14171e-21 -3.1075)
(35.7419 0 -4.37766)
(32.8397 1.47936e-20 -5.70683)
(28.8381 3.43178e-20 -6.52801)
(24.4705 2.23181e-20 -6.6942)
(20.313 0 -6.34641)
(16.6607 0 -5.70698)
(13.5839 -3.75492e-20 -4.9585)
(11.0383 -4.08719e-20 -4.21108)
(8.9422 4.35181e-20 -3.51716)
(7.21305 9.1074e-20 -2.89559)
(5.78025 9.40076e-20 -2.34897)
(4.58717 0 -1.87296)
(3.58925 0 -1.46086)
(2.75168 1.95879e-19 -1.10516)
(2.04773 -4.17617e-22 -0.798842)
(1.45511 0 -0.536891)
(0.955882 -9.61809e-20 -0.312982)
(0.536472 -1.89831e-19 -0.122261)
(0.184289 -1.87253e-19 0.0390897)
(-0.1096 0 0.174788)
(-0.353316 -1.7971e-19 0.288053)
(-0.554484 1.75141e-19 0.381523)
(-0.718049 1.71009e-19 0.457983)
(-0.849827 -2.5559e-22 0.519477)
(-0.95374 0 0.567837)
(-1.03382 1.91095e-22 0.605115)
(-1.09337 0 0.633016)
(-1.1357 2.9319e-19 0.652689)
(-1.16371 0 0.664604)
(-1.17916 0 0.669483)
(-1.18454 0 0.66802)
(-1.1806 2.54502e-19 0.663202)
(-1.16905 0 0.654933)
(-1.15131 0 0.643536)
(-1.12837 0 0.629756)
(-1.10138 0 0.614117)
(-1.07142 -4.18387e-19 0.597129)
(-1.03924 8.03195e-19 0.579106)
(-1.0055 0 0.560346)
(-0.970851 3.69354e-19 0.541201)
(-0.935635 0 0.521716)
(-0.899999 0 0.502037)
(-0.864448 0 0.482583)
(-0.829738 9.79388e-23 0.463869)
(-0.797001 0 0.446711)
(-0.767927 -5.69318e-19 0.432087)
(-0.744024 0 0.420646)
(-0.725839 0 0.412214)
(-0.71195 -4.9746e-19 0.405229)
(-0.698003 0 0.396171)
(-0.675894 0 0.379577)
(-0.63387 5.28101e-23 0.34841)
(-0.558824 8.29074e-19 0.295883)
(-0.441383 0 0.219036)
(-0.284152 6.58983e-23 0.123412)
(-0.108288 1.43716e-18 0.0250078)
(0.0479483 0 -0.0549747)
(0.153782 6.49544e-19 -0.104029)
(0.206103 0 -0.125607)
(0.22502 5.85032e-19 -0.130713)
(0.20646 1.10848e-18 -0.109332)
(0.111551 0 -0.0345508)
(-0.112393 9.88978e-19 0.12257)
(-0.506938 -3.88747e-22 0.373858)
(-0.972801 0 0.65309)
(-1.48077 0 0.914912)
(-1.59285 0 0.91513)
(-1.44391 -1.51924e-18 0.664619)
(0.259316 -3.37205e-22 -0.653164)
(4.05742 0 -2.77957)
(6.13261 1.10526e-18 -3.25618)
(2.40654 2.12136e-18 -1.06894)
(1.86208 0 -1.06842)
(1.84813 0 -1.00985)
(1.55032 0 -0.969572)
(2.58824 -8.92198e-22 -1.57018)
(2.41877 0 -1.23028)
(-0.272752 0 0.64255)
(-5.19511 0 3.69899)
(-10.4213 0 6.62833)
(-13.5849 7.47708e-19 8.11353)
(-14.0412 9.54847e-19 8.05747)
(-12.3314 0 6.76205)
(-9.14412 0 4.75227)
(-5.27463 0 2.54825)
(-2.22319 -2.75784e-21 0.938772)
(-0.176361 0 -0.107697)
(1.11715 -3.47887e-18 -0.749463)
(1.64316 0 -0.981138)
(1.72077 -3.081e-18 -0.981697)
(1.5171 0 -0.863179)
(1.57452 -2.71341e-18 -0.929533)
(1.95726 0 -1.16199)
(2.11439 0 -1.19268)
(1.23338 0 -0.586045)
(-0.350979 0 0.352691)
(-1.5328 3.69062e-18 0.947906)
(-1.47417 0 0.818387)
(-0.896156 3.3763e-18 0.455703)
(-0.333888 3.2101e-18 0.145958)
(-0.0145897 0 -0.0204784)
(0.229468 0 -0.147749)
(0.292229 0 -0.173751)
(0.32819 0 -0.186479)
(0.235014 3.26874e-23 -0.126357)
(0.14343 0 -0.073018)
(0.0609507 -8.17377e-18 -0.0279931)
(0.0511132 0 -0.0314014)
(0.20779 7.2333e-18 -0.133377)
(0.455056 -3.41676e-18 -0.285568)
(0.818303 -3.23656e-18 -0.507428)
(1.34691 -3.05516e-18 -0.806714)
(1.59803 0 -0.961824)
(2.34646 0 -1.37817)
(2.3178 -1.02296e-17 -1.37057)
(3.23535 4.7767e-18 -1.88555)
(2.97719 4.47912e-18 -1.755)
(4.26922 -4.16833e-18 -2.49809)
(36.2897 0 -3.06387)
(36.7164 3.70174e-20 -3.29447)
(36.6574 0 -4.05719)
(35.5249 0 -5.14208)
(33.2158 0 -6.14427)
(30.0307 0 -6.76517)
(26.4104 0 -6.9141)
(22.7427 3.25128e-20 -6.65934)
(19.2894 3.54284e-20 -6.13492)
(16.1872 7.70587e-20 -5.47072)
(13.4785 -8.19292e-20 -4.76206)
(11.1494 -8.59553e-20 -4.06734)
(9.16148 -8.87298e-20 -3.41731)
(7.46972 0 -2.82546)
(6.03092 0 -2.29567)
(4.807 -1.84035e-19 -1.8265)
(3.76608 -1.83982e-19 -1.414)
(2.88078 0 -1.05438)
(2.12799 9.07886e-20 -0.742124)
(1.48908 1.79184e-19 -0.47239)
(0.947564 0 -0.240967)
(0.490953 1.72523e-19 -0.0425443)
(0.106838 0 0.12496)
(-0.214098 -3.21833e-22 0.266154)
(-0.479929 -1.60834e-19 0.383628)
(-0.698591 -2.4684e-22 0.480558)
(-0.875878 0 0.55929)
(-1.01764 1.47681e-19 0.622258)
(-1.12884 -2.85728e-19 0.671361)
(-1.21368 -5.52943e-19 0.708593)
(-1.27581 -2.67051e-19 0.73612)
(-1.31903 0 0.754698)
(-1.34609 -2.48726e-19 0.764257)
(-1.35971 0 0.765574)
(-1.36166 0 0.761988)
(-1.35337 0 0.75445)
(-1.33688 0 0.742962)
(-1.31368 0 0.728644)
(-1.28537 1.52876e-22 0.712074)
(-1.25309 -3.78472e-19 0.693703)
(-1.2178 0 0.67396)
(-1.18043 -6.96037e-19 0.653319)
(-1.14159 0 0.631878)
(-1.10156 0 0.609881)
(-1.06104 0 0.587909)
(-1.021 5.85646e-19 0.566633)
(-0.98281 0 0.547088)
(-0.948497 0 0.530447)
(-0.919892 0 0.517427)
(-0.897701 0 0.507685)
(-0.880308 9.3649e-19 0.499142)
(-0.862611 0 0.487353)
(-0.835076 0 0.465583)
(-0.783888 4.08325e-19 0.42541)
(-0.693612 0 0.359062)
(-0.553051 0 0.263743)
(-0.364681 1.41913e-18 0.14698)
(-0.152504 -6.7572e-19 0.0285704)
(0.038535 0 -0.0661867)
(0.169911 0 -0.122903)
(0.234132 0 -0.145686)
(0.252994 -5.49966e-19 -0.146503)
(0.221203 0 -0.11063)
(0.0922685 0 -0.00472407)
(-0.195164 -1.85837e-18 0.203809)
(-0.680906 1.7487e-18 0.519272)
(-1.23695 0 0.8533)
(-1.81606 0 1.13805)
(-1.9224 0 1.10133)
(-1.73613 7.12651e-19 0.749458)
(0.190582 -6.92832e-19 -0.847946)
(3.98796 -1.27134e-18 -3.00047)
(7.21656 -1.03685e-18 -3.80978)
(3.16192 -9.94728e-19 -1.32726)
(2.30228 9.6206e-19 -1.30012)
(2.26728 0 -1.22813)
(1.94144 0 -1.22566)
(3.00928 7.70694e-19 -1.83834)
(2.58779 0 -1.20994)
(-0.933727 0 1.30774)
(-6.87854 0 5.03271)
(-12.6782 0 8.2106)
(-15.791 0 9.48671)
(-15.842 -1.77777e-18 9.053)
(-13.7094 0 7.38546)
(-10.1243 -1.51024e-18 5.08195)
(-5.83444 0 2.64664)
(-2.41455 -2.81001e-21 0.888422)
(-0.0825948 3.40595e-18 -0.264538)
(1.43415 0 -0.986003)
(2.06575 0 -1.24172)
(2.16005 0 -1.22934)
(1.92921 0 -1.09476)
(1.9937 2.53752e-18 -1.18072)
(2.39712 0 -1.4276)
(2.48593 0 -1.38494)
(1.36977 0 -0.59726)
(-0.466076 0 0.491132)
(-1.74627 0 1.09828)
(-1.61502 0 0.882594)
(-0.949825 0 0.457643)
(-0.298677 0 0.103946)
(0.0603212 -2.83023e-18 -0.0770099)
(0.34675 0 -0.222226)
(0.410734 0 -0.243928)
(0.459137 0 -0.260214)
(0.353955 4.3635e-18 -0.190477)
(0.27432 0 -0.14441)
(0.204454 3.81707e-18 -0.108319)
(0.242068 0 -0.144211)
(0.456575 -7.53648e-22 -0.28458)
(0.795108 0 -0.492853)
(1.23073 3.02074e-18 -0.762721)
(1.88906 0 -1.13265)
(2.17401 0 -1.31302)
(3.09025 0 -1.81795)
(3.03744 4.77494e-18 -1.80158)
(4.15724 -8.91836e-18 -2.4261)
(3.83262 -8.36253e-18 -2.2661)
(5.35615 -3.89095e-18 -3.14334)
(35.9306 0 -3.34847)
(36.216 -4.00174e-20 -3.52412)
(36.5024 0 -3.97123)
(36.323 0 -4.72877)
(35.3457 -3.04823e-20 -5.62127)
(33.5214 -2.96236e-20 -6.4042)
(31.0003 3.03105e-20 -6.90149)
(28.0208 -9.46575e-20 -7.0496)
(24.8337 0 -6.87605)
(21.6533 1.50687e-22 -6.45793)
(18.6327 3.85011e-20 -5.88428)
(15.8612 0 -5.23252)
(13.3769 0 -4.5596)
(11.1833 0 -3.90275)
(9.26482 0 -3.28396)
(7.59721 3.84195e-22 -2.71447)
(6.15386 3.47821e-22 -2.1986)
(4.90849 8.57817e-20 -1.73745)
(3.83651 8.50166e-20 -1.32883)
(2.91638 0 -0.969524)
(2.12855 -1.65266e-19 -0.656102)
(1.4567 -1.62603e-19 -0.383913)
(0.885779 0 -0.150145)
(0.403292 -3.01576e-22 0.0502707)
(-0.00216865 2.62658e-22 0.219503)
(-0.340491 -1.47482e-19 0.361826)
(-0.62015 0 0.479851)
(-0.848863 0 0.576848)
(-1.0335 2.69213e-19 0.655205)
(-1.18003 2.48032e-22 0.717316)
(-1.29389 5.02945e-19 0.765136)
(-1.37938 0 0.800741)
(-1.44058 4.6838e-19 0.826731)
(-1.4822 0 0.84126)
(-1.50616 0 0.846796)
(-1.51591 -2.09052e-19 0.845027)
(-1.51259 0 0.839066)
(-1.4991 -3.86316e-19 0.828488)
(-1.47749 1.4905e-22 0.814516)
(-1.44939 3.56047e-19 0.79774)
(-1.41618 0 0.778713)
(-1.37918 9.37091e-23 0.758066)
(-1.33932 0 0.735969)
(-1.29713 0 0.71279)
(-1.25352 0 0.6893)
(-1.2097 0 0.666346)
(-1.1673 0 0.645189)
(-1.12866 5.04078e-19 0.627195)
(-1.09594 0 0.613115)
(-1.07003 0 0.602389)
(-1.04918 -4.40265e-19 0.592378)
(-1.0277 0 0.577685)
(-0.99486 -4.01811e-19 0.550325)
(-0.93511 -3.83699e-19 0.500617)
(-0.831023 7.3275e-19 0.420047)
(-0.669713 0 0.306296)
(-0.453163 -6.66664e-19 0.169109)
(-0.207206 -6.34758e-19 0.0320689)
(0.0176627 0 -0.0757859)
(0.175136 0 -0.138515)
(0.251735 0 -0.160747)
(0.269195 5.16384e-19 -0.154944)
(0.221179 0 -0.100183)
(0.053942 0 0.0424609)
(-0.29989 8.72266e-19 0.307995)
(-0.874268 -1.64172e-18 0.687721)
(-1.51039 0 1.06925)
(-2.1434 0 1.36164)
(-2.23895 0 1.27686)
(-2.02465 0 0.81617)
(0.0624796 -6.48918e-19 -1.02525)
(3.45331 1.19206e-18 -3.02147)
(8.10504 0 -4.29476)
(3.95152 0 -1.5692)
(2.76026 -9.01638e-19 -1.52347)
(2.69099 0 -1.44357)
(2.33118 -7.78938e-19 -1.48186)
(3.35255 7.23782e-19 -2.05287)
(2.59469 0 -1.04596)
(-1.78741 0 2.16711)
(-8.62472 0 6.47665)
(-14.702 0 9.68781)
(-17.5277 0 10.5764)
(-17.1398 8.27049e-19 9.69776)
(-14.6665 0 7.72427)
(-10.8142 2.81698e-18 5.20229)
(-6.23985 0 2.61766)
(-2.53398 -2.84725e-21 0.766995)
(0.0323133 -2.45117e-21 -0.454931)
(1.75599 0 -1.2382)
(2.49984 2.87708e-18 -1.51345)
(2.61969 0 -1.4875)
(2.36966 0 -1.34112)
(2.43183 -4.74492e-18 -1.44319)
(2.82641 0 -1.68577)
(2.82083 0 -1.54475)
(1.47976 0 -0.575451)
(-0.55707 0 0.62888)
(-1.88901 0 1.21011)
(-1.68336 0 0.897975)
(-0.950858 0 0.422222)
(-0.221445 0 0.0327922)
(0.167122 2.64413e-18 -0.154844)
(0.494161 0 -0.315541)
(0.556463 0 -0.330192)
(0.623713 0 -0.353051)
(0.511044 -4.0754e-18 -0.276158)
(0.458728 -3.80826e-18 -0.24681)
(0.407765 -3.56403e-18 -0.224676)
(0.508654 3.34593e-18 -0.304218)
(0.778287 -7.34646e-22 -0.483303)
(1.21668 -2.97691e-18 -0.753443)
(1.71457 -5.64004e-18 -1.06623)
(2.50445 0 -1.50682)
(2.81657 5.03801e-18 -1.70911)
(3.89765 4.72968e-18 -2.29875)
(3.82244 0 -2.27518)
(5.13381 4.16241e-18 -3.00119)
(4.75451 3.90291e-18 -2.81917)
(6.47078 3.63182e-18 -3.80818)
(35.6516 0 -3.50617)
(35.8018 1.99003e-20 -3.69221)
(36.0632 0 -4.00193)
(36.2063 0 -4.51461)
(35.963 2.87038e-20 -5.19705)
(35.1598 2.78895e-20 -5.92432)
(33.7432 -2.85309e-20 -6.55079)
(31.7615 9.22244e-20 -6.96645)
(29.3334 0 -7.11997)
(26.6124 3.51488e-20 -7.01526)
(23.7563 -7.24988e-20 -6.69336)
(20.9037 0 -6.21186)
(18.1614 7.74744e-20 -5.62928)
(15.6003 0 -4.99615)
(13.2592 8.01819e-20 -4.35147)
(11.1526 8.1083e-20 -3.72263)
(9.27872 8.11166e-20 -3.12708)
(7.62604 -8.0745e-20 -2.57549)
(6.17788 -1.59794e-19 -2.07273)
(4.91589 0 -1.62019)
(3.82123 1.55564e-19 -1.21738)
(2.87632 0 -0.861567)
(2.06438 0 -0.550643)
(1.37026 -1.46057e-19 -0.280446)
(0.780298 2.84582e-19 -0.0481824)
(0.281797 0 0.150178)
(-0.136156 0 0.317749)
(-0.483602 0 0.45806)
(-0.769738 -2.52743e-19 0.574023)
(-1.00239 2.44762e-19 0.66866)
(-1.18889 -2.12003e-22 0.744468)
(-1.33552 2.28188e-19 0.80363)
(-1.44793 -4.4033e-19 0.848061)
(-1.53033 2.12113e-19 0.881226)
(-1.58838 -2.04257e-19 0.902416)
(-1.62506 1.10289e-22 0.912929)
(-1.64452 0 0.913658)
(-1.64823 3.63334e-19 0.910031)
(-1.63965 3.48928e-19 0.901342)
(-1.62119 -3.34812e-19 0.888398)
(-1.59468 0 0.872085)
(-1.56197 3.07842e-19 0.853183)
(-1.52444 2.949e-19 0.831967)
(-1.4829 2.82444e-19 0.808952)
(-1.43859 2.70417e-19 0.785126)
(-1.393 0 0.761537)
(-1.348 0 0.739678)
(-1.30626 -7.28984e-23 0.721105)
(-1.27024 0 0.706577)
(-1.24106 0 0.695273)
(-1.21697 -4.13488e-19 0.683957)
(-1.19185 3.94974e-19 0.666266)
(-1.15407 3.77373e-19 0.633022)
(-1.08671 5.34238e-23 0.573438)
(-0.97074 -1.06526e-22 0.478519)
(-0.791728 0 0.346711)
(-0.55074 0 0.190133)
(-0.274289 1.1916e-18 0.036084)
(-0.0170682 0 -0.0830095)
(0.167006 0 -0.149941)
(0.256707 -5.11028e-19 -0.169674)
(0.27195 0 -0.15446)
(0.205013 0 -0.0764118)
(-0.00416956 8.67995e-19 0.108735)
(-0.426039 -8.18827e-19 0.435922)
(-1.08427 1.54019e-18 0.878343)
(-1.78833 0 1.29801)
(-2.4592 -6.83001e-19 1.58339)
(-2.54421 0 1.4422)
(-2.31892 0 0.872289)
(-0.152797 1.21575e-18 -1.149)
(2.50423 0 -2.8737)
(8.76324 0 -4.71068)
(4.74219 0 -1.78136)
(3.2272 0 -1.73724)
(3.1208 0 -1.65545)
(2.71254 7.29425e-19 -1.73062)
(3.60871 9.52369e-22 -2.20175)
(2.43715 -6.10969e-19 -0.727806)
(-2.80222 5.26265e-19 3.20748)
(-10.356 0 7.97874)
(-16.4068 0 10.9953)
(-18.787 0 11.3716)
(-17.9943 0 10.069)
(-15.3001 0 7.85033)
(-11.2882 -1.00963e-20 5.16741)
(-6.53607 0 2.49269)
(-2.60577 -1.51944e-18 0.590119)
(0.151547 -2.52629e-21 -0.669541)
(2.07059 0 -1.50054)
(2.9387 -2.69002e-18 -1.79372)
(3.09827 0 -1.75613)
(2.83832 2.36196e-18 -1.60191)
(2.88681 1.40806e-22 -1.71453)
(3.24329 0 -1.93377)
(3.12363 0 -1.67545)
(1.57719 0 -0.529936)
(-0.608676 0 0.755751)
(-1.95556 3.00994e-18 1.27967)
(-1.67928 0 0.868244)
(-0.899778 0 0.351806)
(-0.100903 2.61561e-18 -0.0669916)
(0.307876 0 -0.25446)
(0.67529 -2.32212e-18 -0.42931)
(0.733502 2.17695e-18 -0.434712)
(0.827704 0 -0.468489)
(0.711014 7.61164e-18 -0.386453)
(0.701432 1.40865e-22 -0.383258)
(0.671423 6.65556e-18 -0.37659)
(0.849607 -3.12415e-18 -0.508354)
(1.16566 -2.94309e-18 -0.722159)
(1.711 2.77933e-18 -1.05809)
(2.25748 2.63237e-18 -1.40755)
(3.18053 2.48385e-18 -1.91804)
(3.51406 -4.70307e-18 -2.1408)
(4.75429 -4.41508e-18 -2.80984)
(4.6638 -4.15915e-18 -2.78464)
(6.14849 -3.88452e-18 -3.60031)
(5.73474 0 -3.40864)
(7.59833 0 -4.48367)
(35.3969 0 -3.602)
(35.4741 2.18908e-20 -3.79523)
(35.648 0 -4.0524)
(35.823 0 -4.42294)
(35.8547 0 -4.92206)
(35.604 0 -5.51097)
(34.9626 3.2364e-20 -6.10857)
(33.8713 -3.0059e-20 -6.62277)
(32.3264 3.25558e-20 -6.97969)
(30.3736 -6.52617e-20 -7.13809)
(28.0949 6.81534e-20 -7.08995)
(25.5932 0 -6.85306)
(22.9768 -7.28283e-20 -6.46123)
(20.3468 0 -5.95529)
(17.7883 -7.53766e-20 -5.37624)
(15.3644 -7.5521e-20 -4.7606)
(13.1163 0 -4.13788)
(11.0657 0 -3.53052)
(9.21935 7.49963e-20 -2.95385)
(7.57424 0 -2.41741)
(6.12077 0 -1.92675)
(4.84613 -1.42898e-19 -1.4835)
(3.73564 0 -1.08823)
(2.7742 0 -0.738815)
(1.9471 -1.33662e-19 -0.433299)
(1.23994 0 -0.168386)
(0.639754 0 0.0593511)
(0.133959 0 0.253052)
(-0.288678 4.74909e-19 0.416275)
(-0.638393 0 0.55221)
(-0.924722 -1.98935e-22 0.663869)
(-1.15588 -1.80315e-22 0.754001)
(-1.3394 2.0685e-19 0.82521)
(-1.48194 -1.99346e-19 0.879569)
(-1.58879 3.83787e-19 0.920178)
(-1.66586 1.84683e-19 0.948935)
(-1.71772 0 0.964867)
(-1.74859 0 0.969681)
(-1.76163 3.27551e-19 0.968793)
(-1.75972 -3.14306e-19 0.962525)
(-1.74586 0 0.951192)
(-1.72244 0 0.936099)
(-1.69147 -7.28607e-23 0.917577)
(-1.65421 -2.65259e-19 0.896311)
(-1.61225 -2.53943e-19 0.873544)
(-1.56743 -4.85918e-19 0.850543)
(-1.52191 0 0.829041)
(-1.47865 -7.06882e-23 0.810783)
(-1.44047 0 0.796514)
(-1.40875 0 0.785127)
(-1.38184 3.88092e-19 0.77276)
(-1.35345 -3.7068e-19 0.752105)
(-1.31138 0 0.71287)
(-1.2378 3.38045e-19 0.64334)
(-1.11246 -1.08336e-22 0.534297)
(-0.919536 0 0.38519)
(-0.658691 0 0.210589)
(-0.355851 -1.11759e-18 0.0413705)
(-0.0683204 0 -0.0869697)
(0.142768 0 -0.156179)
(0.246709 9.58373e-19 -0.1713)
(0.259661 0 -0.143107)
(0.171365 0 -0.037652)
(-0.082501 -1.62753e-18 0.195465)
(-0.572287 7.67423e-19 0.587924)
(-1.30725 -7.21843e-19 1.0895)
(-2.06553 0 1.53622)
(-2.7607 6.39915e-19 1.80171)
(-2.84103 0 1.60149)
(-2.63162 -5.83858e-19 0.92952)
(-0.491004 -5.69104e-19 -1.18031)
(1.28602 0 -2.63873)
(9.13855 0 -5.08575)
(5.49534 8.14407e-19 -1.95226)
(3.69164 7.94034e-19 -1.9302)
(3.55581 0 -1.86164)
(3.07901 0 -1.96348)
(3.77054 -1.27122e-18 -2.27014)
(2.12018 5.71728e-19 -0.248165)
(-3.93748 -9.86627e-19 4.40776)
(-11.9936 0 9.48227)
(-17.7318 0 12.0826)
(-19.6189 0 11.8948)
(-18.526 0 10.221)
(-15.7194 0 7.82617)
(-11.623 -1.04859e-20 5.02178)
(-6.76667 0 2.29713)
(-2.65462 0 0.371541)
(0.258049 -2.63449e-21 -0.899601)
(2.36433 0 -1.76724)
(3.37335 -2.51419e-18 -2.07922)
(3.59256 0 -2.03432)
(3.33402 -2.20741e-18 -1.87618)
(3.35707 1.38152e-22 -1.99241)