/*--------------------------------*- C++ -*----------------------------------*\
| =========                 |                                                 |
| \\      /  F ield         | OpenFOAM: The Open Source CFD Toolbox           |
|  \\    /   O peration     | Version:  2412                                  |
|   \\  /    A nd           | Website:  www.openfoam.com                      |
|    \\/     M anipulation  |                                                 |
\*---------------------------------------------------------------------------*/
FoamFile
{
    version     2.0;
    format      ascii;
    arch        "LSB;label=32;scalar=64";
    class       volScalarField;
    location    "1.58";
    object      Co;
}
// * * * * * * * * * * * * * * * * * * * * * * * * * * * * * * * * * * * * * //

dimensions      [0 0 0 0 0 0 0];

internalField   nonuniform List<scalar> 
12600
(
0.315142
0.176858
0.100138
0.0629897
0.044992
0.0350605
0.0286552
0.0240703
0.0205939
0.0178564
0.0156408
0.0138101
0.0122727
0.0109648
0.00984019
0.00886446
0.0080115
0.00726104
0.00659709
0.00600682
0.00547983
0.00500756
0.00458293
0.00419999
0.00385373
0.00353989
0.00325481
0.00299535
0.00275878
0.00254274
0.00234513
0.00216414
0.00199816
0.00184576
0.00170569
0.00157681
0.00145812
0.00134872
0.00124779
0.00115462
0.00106855
0.000988973
0.000915363
0.000847231
0.000784135
0.000725671
0.000671475
0.000621211
0.000574574
0.000531285
0.000491089
0.000453751
0.000419057
0.000386809
0.000356826
0.000328943
0.000303004
0.00027887
0.000256411
0.000235507
0.000216046
0.000197928
0.000181059
0.000165351
0.000150725
0.000137105
0.000124425
0.00011262
0.000101635
9.14116e-05
8.19062e-05
7.30664e-05
6.48596e-05
5.72365e-05
5.01761e-05
4.36297e-05
3.75884e-05
3.20014e-05
2.68731e-05
2.21469e-05
1.78427e-05
1.38941e-05
1.0339e-05
7.09691e-06
4.22591e-06
2.28383e-06
2.78756e-06
4.56663e-06
6.15736e-06
7.4012e-06
8.52761e-06
9.2899e-06
1.00398e-05
1.03972e-05
1.07966e-05
1.09494e-05
1.08902e-05
1.09872e-05
1.08844e-05
1.02602e-05
1.15015e-05
1.0833e-05
1.05628e-05
1.01659e-05
9.56333e-06
1.21773e-05
1.14459e-05
9.14625e-06
8.59056e-06
9.78074e-06
9.43793e-06
8.85412e-06
1.42826e-05
1.33882e-05
4.33917e-06
3.28241e-05
3.98867e-05
8.565e-06
5.74466e-05
5.10429e-05
0.478407
0.376891
0.276652
0.202661
0.153252
0.12061
0.0982644
0.0821459
0.0699643
0.0604213
0.0527389
0.0464223
0.0411415
0.0366667
0.0328328
0.0295176
0.0266283
0.0240933
0.0218563
0.0198722
0.0181048
0.0165242
0.0151057
0.0138289
0.0126763
0.0116332
0.0106872
0.00982744
0.00904457
0.00833051
0.00767818
0.0070814
0.0065347
0.00603328
0.00557285
0.00514962
0.0047602
0.00440157
0.00407101
0.00376608
0.00348458
0.00322454
0.00298415
0.0027618
0.00255601
0.00236546
0.00218891
0.00202526
0.00187351
0.00173272
0.00160205
0.00148073
0.00136804
0.00126335
0.00116605
0.00107559
0.000991476
0.000913236
0.000840445
0.000772711
0.000709672
0.000650992
0.000596365
0.000545504
0.000498151
0.000454058
0.000413009
0.000374787
0.000339216
0.000306104
0.000275309
0.000246658
0.000220046
0.000195308
0.00017238
0.000151096
0.000131435
0.000113219
9.64756e-05
8.10055e-05
6.68891e-05
5.3892e-05
4.21597e-05
3.14049e-05
2.1846e-05
1.31349e-05
8.82986e-06
1.1089e-05
1.62767e-05
2.03583e-05
2.40809e-05
2.66074e-05
2.91815e-05
3.03517e-05
3.18688e-05
3.24217e-05
3.22313e-05
3.31089e-05
3.22545e-05
3.02233e-05
3.57024e-05
3.38021e-05
3.47053e-05
3.05411e-05
3.02725e-05
4.08551e-05
3.73549e-05
3.00858e-05
2.71029e-05
3.30848e-05
2.83845e-05
3.13769e-05
5.25261e-05
5.01124e-05
2.10021e-05
0.000116069
0.000146677
2.66838e-05
0.000204527
0.000144677
0.512935
0.469031
0.397638
0.325722
0.264728
0.216609
0.179684
0.151332
0.129228
0.111651
0.0974013
0.0856491
0.0758137
0.0674803
0.0603454
0.0541822
0.0488177
0.0441175
0.0399757
0.0363076
0.0330445
0.0301304
0.0275189
0.025171
0.0230544
0.0211412
0.0194081
0.0178347
0.0164036
0.0150996
0.0139095
0.0128218
0.0118263
0.010914
0.0100771
0.00930833
0.00860156
0.00795115
0.00735208
0.00679984
0.00629038
0.00582004
0.00538552
0.00498385
0.00461231
0.00426845
0.00395004
0.00365504
0.00338161
0.00312806
0.00289284
0.00267454
0.00247186
0.00228363
0.00210875
0.00194624
0.00179516
0.00165467
0.00152401
0.00140246
0.00128936
0.0011841
0.00108613
0.000994926
0.000910021
0.000830967
0.000757371
0.000688844
0.000625062
0.000565678
0.000510438
0.000459024
0.000411249
0.000366811
0.000325594
0.000287295
0.000251877
0.000219017
0.000188765
0.000160755
0.000135143
0.00011149
9.00776e-05
7.03648e-05
5.27769e-05
3.66519e-05
2.25466e-05
1.83737e-05
2.53107e-05
3.25452e-05
3.91848e-05
4.36429e-05
4.8365e-05
5.03089e-05
5.32999e-05
5.42325e-05
5.37589e-05
5.62458e-05
5.36353e-05
5.02486e-05
6.24072e-05
5.96606e-05
6.42679e-05
5.27178e-05
5.34726e-05
7.7503e-05
6.95734e-05
5.61278e-05
4.82105e-05
6.27567e-05
4.92787e-05
6.19769e-05
0.000108239
0.000105886
5.08266e-05
0.000232539
0.00030738
6.5085e-05
0.000425937
0.000225159
0.504868
0.491542
0.45356
0.403092
0.35062
0.301862
0.259283
0.223322
0.193383
0.168521
0.147792
0.130383
0.115638
0.103045
0.0922053
0.0828076
0.0746078
0.067412
0.0610648
0.0554404
0.050436
0.0459668
0.0419623
0.0383633
0.03512
0.03219
0.0295371
0.02713
0.0249419
0.0229494
0.0211321
0.0194721
0.0179537
0.0165631
0.0152881
0.0141178
0.0130424
0.0120533
0.0111428
0.010304
0.00953053
0.00881684
0.00815785
0.00754897
0.00698604
0.00646529
0.0059833
0.00553695
0.0051234
0.00474008
0.00438461
0.00405483
0.00374877
0.00346462
0.00320072
0.00295554
0.00272769
0.00251589
0.00231894
0.00213576
0.00196535
0.0018068
0.00165924
0.0015219
0.00139405
0.00127502
0.00116421
0.00106104
0.000964993
0.000875563
0.000792352
0.000714883
0.000642863
0.000575842
0.000513632
0.000455782
0.000402224
0.000352477
0.000306605
0.000264063
0.000225076
0.000188985
0.000156216
0.00012595
9.88375e-05
7.38686e-05
5.18973e-05
3.32895e-05
3.2335e-05
4.31615e-05
5.31128e-05
5.97883e-05
6.70224e-05
6.98163e-05
7.46719e-05
7.6007e-05
7.52339e-05
8.00554e-05
7.47963e-05
7.09428e-05
9.08783e-05
8.74603e-05
9.85888e-05
7.72116e-05
7.77e-05
0.000120275
0.000107084
8.72171e-05
7.15611e-05
9.79346e-05
7.27632e-05
9.80864e-05
0.00017767
0.000177189
9.43265e-05
0.000371245
0.000508809
0.00013366
0.000704754
0.000293276
0.488661
0.48381
0.465561
0.435613
0.39892
0.359788
0.321314
0.285405
0.25298
0.224287
0.199179
0.177321
0.158311
0.141755
0.127296
0.114623
0.103474
0.0936288
0.0849023
0.0771407
0.0702147
0.0640158
0.0584519
0.053445
0.0489285
0.0448455
0.0411466
0.0377894
0.0347369
0.0319571
0.0294217
0.027106
0.0249882
0.0230489
0.0212712
0.0196398
0.0181412
0.0167633
0.0154953
0.0143274
0.013251
0.012258
0.0113415
0.0104949
0.00971252
0.00898899
0.00831954
0.00769979
0.00712579
0.0065939
0.00610081
0.0056435
0.00521921
0.0048254
0.00445975
0.00412014
0.00380461
0.00351136
0.00323874
0.00298524
0.00274945
0.0025301
0.00232599
0.00213603
0.00195922
0.00179462
0.00164138
0.0014987
0.00136586
0.00124216
0.00112704
0.00101983
0.000920116
0.000827284
0.000741056
0.000660818
0.000586452
0.000517309
0.000453456
0.000394151
0.000339687
0.00028917
0.000243168
0.000200566
0.000162253
0.000126842
9.5522e-05
6.67045e-05
4.91691e-05
5.11984e-05
6.49671e-05
7.42562e-05
8.44497e-05
8.82715e-05
9.54504e-05
9.72531e-05
9.63263e-05
0.000104079
9.55222e-05
9.20861e-05
0.000120472
0.000116143
0.000136846
0.000103522
0.000101777
0.000167498
0.000148894
0.000123282
9.67735e-05
0.000137749
9.84047e-05
0.00013752
0.000257352
0.000260446
0.000151075
0.000522709
0.000737987
0.000230423
0.00101289
0.000367455
0.474444
0.468724
0.457749
0.439804
0.416004
0.388223
0.358356
0.328039
0.2985
0.270552
0.244654
0.221005
0.19962
0.180401
0.16319
0.1478
0.134045
0.121741
0.110724
0.100844
0.0919679
0.0839802
0.0767785
0.070274
0.0643888
0.059055
0.0542132
0.0498113
0.0458035
0.0421494
0.0388136
0.0357645
0.0329744
0.0304183
0.0280744
0.0259228
0.0239459
0.0221281
0.0204551
0.0189143
0.017494
0.0161841
0.014975
0.0138584
0.0128265
0.0118725
0.0109898
0.0101729
0.00941637
0.00871549
0.00806586
0.00746349
0.00690471
0.00638618
0.00590482
0.00545781
0.00504257
0.00465672
0.00429807
0.00396462
0.00365451
0.00336605
0.00309767
0.0028479
0.00261544
0.00239903
0.00219757
0.00200996
0.0018353
0.00167262
0.00152118
0.00138012
0.00124887
0.00112663
0.00101301
0.000907208
0.000809058
0.000717716
0.000633243
0.000554686
0.000482399
0.00041523
0.000353901
0.000296968
0.000245582
0.000197939
0.000155603
0.000116474
8.24325e-05
6.51902e-05
7.37182e-05
8.6141e-05
9.9839e-05
0.00010498
0.000115018
0.00011741
0.000116637
0.000127798
0.000115552
0.000113311
0.000150543
0.000144608
0.000178129
0.000131128
0.000124648
0.000217549
0.0001939
0.000164066
0.000123452
0.000181378
0.000125805
0.000178395
0.000344069
0.000352174
0.000219919
0.000679008
0.000982566
0.000355611
0.00132471
0.000457713
0.463129
0.454763
0.444884
0.431779
0.415171
0.395503
0.373505
0.350023
0.325877
0.301766
0.278247
0.255725
0.234468
0.214629
0.196273
0.179397
0.163953
0.149863
0.137036
0.125373
0.114772
0.105139
0.0963824
0.0884184
0.0811706
0.0745691
0.0685512
0.0630603
0.0580457
0.0534617
0.0492676
0.0454267
0.0419062
0.0386766
0.0357115
0.0329869
0.0304815
0.0281759
0.0260528
0.0240963
0.0222923
0.0206277
0.0190909
0.0176713
0.0163592
0.0151459
0.0140233
0.0129842
0.012022
0.0111305
0.0103042
0.00953799
0.00882729
0.00816782
0.00755565
0.00698721
0.00645919
0.00596859
0.0055126
0.00508868
0.00469445
0.00432776
0.00398659
0.00366911
0.00337362
0.00309853
0.00284242
0.00260391
0.00238182
0.00217494
0.00198231
0.00180283
0.00163577
0.00148011
0.00133533
0.00120045
0.0010752
0.000958529
0.000850496
0.000749905
0.000657175
0.000570868
0.000491871
0.000418375
0.000351822
0.000289939
0.000234717
0.000183475
0.000138627
9.70089e-05
8.39188e-05
9.43577e-05
0.000112218
0.000119103
0.000132621
0.000135803
0.000135655
0.000150598
0.000134548
0.000134248
0.000180432
0.000171701
0.00022145
0.000159299
0.000145353
0.000268864
0.000240885
0.000209078
0.000151154
0.000228055
0.000154418
0.000219092
0.000434885
0.000449085
0.000299044
0.000833885
0.00123142
0.000507676
0.00161539
0.000567493
0.453772
0.443346
0.432717
0.420832
0.407226
0.391855
0.3749
0.356666
0.337528
0.317868
0.298049
0.278394
0.259174
0.240608
0.222859
0.20604
0.190219
0.175427
0.161664
0.148909
0.137122
0.126255
0.116253
0.107058
0.0986111
0.0908549
0.0837345
0.077198
0.0711967
0.0656855
0.0606227
0.05597
0.0516923
0.0477575
0.0441365
0.0408024
0.037731
0.0349002
0.0322898
0.0298813
0.0276582
0.025605
0.023708
0.0219544
0.0203326
0.0188321
0.0174432
0.0161571
0.0149657
0.0138616
0.0128379
0.0118886
0.0110078
0.0101904
0.00943157
0.00872685
0.00807219
0.00746386
0.00689842
0.0063727
0.00588379
0.005429
0.00500584
0.00461203
0.00424546
0.00390417
0.00358639
0.00329042
0.00301476
0.00275794
0.00251873
0.0022958
0.0020882
0.00189469
0.0017146
0.00154671
0.00139068
0.00124522
0.00111035
0.000984633
0.000868546
0.000760327
0.000661052
0.000568498
0.000484437
0.000406065
0.000335859
0.000270477
0.000212967
0.000159395
0.000113928
9.91566e-05
0.000120432
0.000129641
0.00014736
0.000151634
0.000152744
0.00017177
0.000152081
0.000154408
0.000209454
0.000196222
0.000265755
0.000187112
0.000163013
0.000319977
0.000288536
0.000257567
0.000179364
0.000277043
0.000183575
0.000258221
0.000527171
0.000548199
0.000386123
0.000982765
0.00147506
0.000683565
0.00186244
0.00070592
0.445688
0.433941
0.422404
0.410494
0.397847
0.384329
0.369953
0.354815
0.339057
0.322848
0.306356
0.289752
0.273199
0.25685
0.240839
0.225287
0.210292
0.195931
0.18226
0.169316
0.157119
0.14567
0.134962
0.124974
0.115679
0.107046
0.0990404
0.0916245
0.0847613
0.078414
0.0725466
0.0671245
0.0621149
0.0574869
0.0532113
0.0492611
0.0456111
0.0422377
0.0391195
0.0362364
0.0335701
0.0311034
0.0288208
0.0267079
0.0247516
0.0229396
0.0212608
0.0197049
0.0182624
0.0169247
0.0156838
0.0145324
0.0134636
0.0124713
0.0115497
0.0106936
0.00989801
0.00915855
0.00847104
0.00783169
0.00723696
0.00668363
0.00616869
0.00568936
0.00524311
0.00482755
0.00444053
0.00407999
0.00374411
0.0034311
0.00313946
0.00286757
0.00261427
0.00237805
0.00215807
0.00195287
0.001762
0.00158391
0.00141861
0.00126433
0.00112165
0.000988444
0.000865988
0.000751598
0.000647416
0.000550041
0.000462501
0.000380706
0.000308433
0.000240847
0.000182995
0.000129475
0.000123104
0.000135401
0.000158152
0.000163949
0.000167121
0.000190484
0.0001676
0.000173173
0.000236887
0.000216905
0.000309935
0.000213462
0.000176805
0.000369551
0.000335461
0.000308519
0.000207462
0.000327607
0.000212514
0.000294573
0.000618628
0.000646892
0.000478426
0.00112257
0.001706
0.000879099
0.00204762
0.000882514
0.438537
0.425944
0.41371
0.401501
0.389065
0.376264
0.363066
0.349503
0.335639
0.321556
0.307331
0.293043
0.278764
0.264568
0.250524
0.2367
0.223162
0.209973
0.197187
0.184854
0.173016
0.161703
0.150936
0.14073
0.131087
0.122005
0.113473
0.105477
0.0979983
0.0910145
0.0845024
0.0784372
0.0727939
0.0675471
0.0626723
0.0581452
0.0539428
0.0500428
0.0464242
0.0430673
0.0399532
0.0370646
0.0343849
0.031899
0.0295927
0.0274526
0.0254666
0.0236234
0.0219122
0.0203235
0.0188481
0.0174778
0.0162046
0.0150217
0.0139222
0.0129001
0.0119498
0.011066
0.0102439
0.00947898
0.00876716
0.00810462
0.00748781
0.00691345
0.00637853
0.00588024
0.005416
0.00498337
0.0045802
0.00420433
0.00385398
0.00352721
0.00322263
0.00293844
0.00267363
0.00242643
0.0021963
0.00198139
0.00178168
0.00159509
0.00142227
0.00126067
0.00111183
0.000972524
0.000845322
0.000726143
0.000618648
0.000517891
0.000428498
0.000344588
0.000272327
0.000202827
0.000154207
0.000134961
0.000163702
0.000171613
0.000177815
0.000205768
0.000180403
0.000189783
0.00026195
0.000232405
0.000352835
0.000237084
0.000185936
0.000416394
0.00038021
0.000360667
0.000234709
0.000378963
0.000240408
0.000327083
0.000707274
0.000742921
0.000572941
0.00125131
0.00192423
0.00109421
0.00215884
0.00110567
0.43214
0.418978
0.406247
0.393741
0.381287
0.368763
0.356113
0.343339
0.330474
0.317567
0.304671
0.29183
0.279082
0.266462
0.253996
0.241711
0.229631
0.217782
0.206192
0.194888
0.183899
0.173254
0.162977
0.153091
0.143615
0.134561
0.125938
0.11775
0.109997
0.102672
0.0957693
0.0892758
0.0831785
0.0774621
0.0721099
0.0671045
0.0624283
0.0580633
0.0539917
0.0501962
0.0466598
0.0433663
0.0402999
0.0374458
0.0347899
0.0323188
0.0300198
0.0278812
0.0258918
0.0240412
0.0223197
0.0207182
0.0192282
0.0178419
0.016552
0.0153515
0.0142342
0.0131941
0.0122258
0.0113242
0.0104845
0.00970244
0.00897388
0.00829506
0.0076625
0.00707292
0.00652335
0.00601092
0.00553314
0.00508748
0.00467185
0.00428399
0.00392225
0.00358451
0.00326957
0.00297537
0.00270123
0.00244499
0.00220661
0.00198361
0.00177677
0.00158309
0.00140434
0.00123674
0.00108332
0.000939239
0.000808882
0.000686324
0.000577173
0.000474348
0.000385317
0.000299474
0.000231748
0.000163503
0.00016245
0.000173265
0.00018364
0.000216483
0.000189604
0.000203326
0.000283768
0.000241268
0.00039326
0.000256565
0.000189602
0.000459452
0.000421289
0.000412531
0.000260228
0.000430227
0.000266376
0.000354777
0.000791408
0.000834393
0.000666492
0.00136755
0.00213629
0.00133216
0.00219149
0.00144877
0.426368
0.41281
0.399726
0.386977
0.374444
0.362027
0.34966
0.337322
0.325021
0.312785
0.30065
0.288653
0.276825
0.265189
0.253764
0.24256
0.231582
0.220834
0.21032
0.200044
0.190012
0.180233
0.170719
0.161481
0.152532
0.143887
0.135557
0.127552
0.11988
0.112548
0.105558
0.0989104
0.0926028
0.0866305
0.0809867
0.0756627
0.0706484
0.0659326
0.0615032
0.0573476
0.0534529
0.0498057
0.0463932
0.0432022
0.0402203
0.037435
0.0348346
0.0324076
0.0301432
0.028031
0.0260611
0.0242244
0.0225119
0.0209155
0.0194273
0.01804
0.0167469
0.0155414
0.0144177
0.0133701
0.0123934
0.0114827
0.0106335
0.00984162
0.00910301
0.00841403
0.00777129
0.00717156
0.00661195
0.00608959
0.00560209
0.00514683
0.0047219
0.00432486
0.00395433
0.00360788
0.00328477
0.00298243
0.00270083
0.00243709
0.00219209
0.00196232
0.00174988
0.00155031
0.0013672
0.00119482
0.0010384
0.000890901
0.000759066
0.000634432
0.000525973
0.000421148
0.000337421
0.000246952
0.000194192
0.000167274
0.000183136
0.000221287
0.000194077
0.000212716
0.000301332
0.000241888
0.000429968
0.000270358
0.000186929
0.000497777
0.000457159
0.000462459
0.000282998
0.000480353
0.000289503
0.00037673
0.000869535
0.000919694
0.000755833
0.00146977
0.00232293
0.00156898
0.00214821
0.00188579
0.421128
0.407289
0.39395
0.381012
0.368392
0.356008
0.343799
0.33173
0.319788
0.30798
0.296327
0.284855
0.273589
0.262551
0.25176
0.241228
0.23096
0.220956
0.211211
0.201719
0.192474
0.183471
0.174703
0.16617
0.157871
0.149809
0.141988
0.134413
0.127089
0.120024
0.113221
0.106687
0.100424
0.0944352
0.0887197
0.0832769
0.078104
0.0731966
0.0685493
0.0641553
0.0600069
0.0560956
0.0524125
0.0489481
0.0456926
0.0426362
0.0397691
0.0370813
0.0345633
0.0322057
0.0299993
0.0279353
0.0260052
0.0242009
0.0225146
0.0209389
0.019467
0.0180921
0.0168079
0.0156087
0.0144888
0.013443
0.0124665
0.0115546
0.010703
0.00990773
0.009165
0.00847122
0.0078232
0.00721771
0.00665208
0.00612335
0.00562939
0.0051674
0.00473583
0.0043319
0.00395475
0.00360144
0.00327197
0.00296296
0.00267548
0.00240544
0.0021553
0.00191984
0.0017033
0.00149896
0.00131301
0.00113715
0.00097941
0.000829768
0.000698921
0.00057217
0.000469746
0.000359948
0.000286614
0.000198552
0.000174494
0.000218604
0.000192404
0.000216675
0.000313437
0.000232449
0.000461658
0.000276779
0.000176895
0.000530458
0.000486215
0.000508672
0.000301852
0.00052809
0.00030884
0.000392023
0.000940262
0.0009974
0.000837733
0.00155594
0.00248214
0.00179334
0.00203666
0.00235148
0.416345
0.402303
0.38878
0.3757
0.363
0.350618
0.338498
0.326602
0.314905
0.3034
0.292089
0.280986
0.270107
0.25947
0.249089
0.238981
0.229153
0.21961
0.21035
0.201369
0.192659
0.18421
0.176011
0.168051
0.160323
0.152816
0.145526
0.138448
0.131581
0.124923
0.118475
0.112239
0.106218
0.100413
0.0948261
0.08946
0.0843154
0.0793924
0.0746903
0.0702072
0.0659405
0.0618863
0.0580402
0.0543969
0.0509503
0.047694
0.0446211
0.0417244
0.0389964
0.0364296
0.0340164
0.0317494
0.029621
0.0276239
0.025751
0.0239953
0.0223503
0.0208094
0.0193665
0.0180158
0.0167516
0.0155685
0.0144616
0.0134261
0.0124573
0.0115511
0.0107035
0.00991063
0.00916899
0.00847511
0.00782606
0.0072186
0.00665038
0.00611829
0.00562062
0.00515425
0.00471824
0.00430925
0.0039273
0.00356854
0.00323423
0.00291965
0.00262768
0.0023523
0.00209842
0.00185827
0.0016391
0.00143119
0.00124407
0.00106593
0.000909441
0.000757506
0.000633348
0.00050126
0.00041045
0.000302207
0.000219692
0.000212931
0.000182775
0.000213709
0.000318609
0.00021085
0.00048693
0.00027399
0.000173426
0.00055652
0.000506755
0.000549298
0.000315468
0.000571938
0.000323407
0.000399696
0.00100217
0.00106617
0.000909041
0.00162325
0.00261353
0.00199156
0.00186598
0.00282156
0.411957
0.397769
0.384111
0.370926
0.358162
0.345768
0.333699
0.321917
0.310393
0.299108
0.288056
0.277236
0.266654
0.25632
0.246244
0.236438
0.226911
0.217671
0.20872
0.200058
0.191681
0.183582
0.175753
0.168181
0.160857
0.153767
0.146901
0.140248
0.1338
0.127548
0.121487
0.115612
0.10992
0.10441
0.0990793
0.0939289
0.0889589
0.0841696
0.0795617
0.0751351
0.0708898
0.0668249
0.0629393
0.0592308
0.0556971
0.0523348
0.0491402
0.0461092
0.043237
0.0405185
0.0379484
0.0355211
0.0332308
0.0310718
0.029038
0.0271236
0.0253229
0.02363
0.0220393
0.0205454
0.019143
0.0178269
0.0165922
0.0154343
0.0143486
0.0133307
0.0123766
0.0114823
0.0106443
0.0098589
0.00912296
0.00843304
0.00778666
0.00718043
0.00661254
0.00607955
0.00558048
0.00511158
0.00467298
0.00426029
0.00387504
0.00351182
0.00317401
0.00285467
0.00255955
0.00227966
0.00202346
0.00177967
0.00155949
0.00134913
0.00116347
0.0009828
0.000833553
0.000675894
0.00056449
0.000433741
0.000334063
0.000269345
0.000177396
0.000202102
0.000314999
0.000174601
0.00050424
0.000259966
0.000179262
0.000574807
0.000516911
0.00058237
0.000322356
0.000610127
0.000332188
0.000398708
0.00105366
0.00112467
0.000966737
0.001668
0.00271845
0.0021483
0.00164355
0.00327211
0.407914
0.39362
0.379866
0.366603
0.353789
0.341383
0.329344
0.317638
0.306235
0.295115
0.28426
0.273663
0.26332
0.253233
0.243406
0.233845
0.224555
0.215545
0.206817
0.198375
0.190217
0.182342
0.174742
0.167412
0.160342
0.153522
0.146939
0.140584
0.134444
0.128508
0.122767
0.117212
0.111833
0.106625
0.101582
0.0966997
0.0919745
0.0874042
0.0829869
0.0787217
0.0746078
0.0706445
0.0668314
0.0631679
0.059653
0.0562857
0.0530644
0.0499872
0.0470518
0.0442555
0.0415951
0.0390674
0.0366684
0.0343943
0.0322407
0.0302034
0.0282777
0.0264592
0.024743
0.0231248
0.0215998
0.0201635
0.0188114
0.0175393
0.0163428
0.0152179
0.0141606
0.013167
0.0122337
0.0113569
0.0105335
0.00975997
0.00903376
0.00835129
0.00771075
0.0071084
0.00654333
0.00601139
0.00551286
0.00504283
0.00460315
0.00418769
0.00380043
0.00343343
0.00309337
0.00276995
0.00247298
0.00218947
0.00193251
0.00168607
0.00146755
0.00125435
0.00107639
0.000889573
0.000754103
0.000597401
0.000478017
0.000392791
0.000252906
0.000213287
0.000300227
0.000120693
0.000511835
0.000232443
0.00018153
0.000583824
0.000514564
0.000605784
0.000320824
0.0006406
0.00033411
0.000387869
0.00109284
0.00117146
0.00100799
0.00168573
0.00279969
0.00224817
0.0013739
0.00368226
0.404172
0.389804
0.375981
0.362663
0.349814
0.337397
0.325377
0.313724
0.30241
0.291411
0.280708
0.270286
0.260137
0.250255
0.240638
0.231286
0.222201
0.213387
0.204846
0.196581
0.188592
0.180878
0.173438
0.166266
0.159357
0.152703
0.146296
0.140126
0.134183
0.128455
0.122934
0.117607
0.112466
0.1075
0.102702
0.0980621
0.0935748
0.0892339
0.0850345
0.0809724
0.0770444
0.0732478
0.0695808
0.0660416
0.062629
0.0593418
0.0561792
0.0531399
0.0502229
0.0474269
0.0447502
0.0421911
0.0397475
0.0374172
0.0351974
0.0330855
0.0310784
0.0291729
0.0273657
0.0256532
0.0240318
0.0224981
0.0210482
0.0196785
0.0183854
0.0171653
0.0160145
0.0149296
0.0139073
0.012944
0.0120369
0.0111823
0.010378
0.0096202
0.00890723
0.00823515
0.0076032
0.00700688
0.00644674
0.00591733
0.00542094
0.00495068
0.00451123
0.00409359
0.00370551
0.00333524
0.00299415
0.00266733
0.00237
0.0020837
0.0018286
0.00157899
0.00136851
0.00114872
0.00098542
0.000798975
0.000656836
0.000546317
0.000385635
0.00031177
0.000323272
4.51709e-05
0.000507691
0.000188874
0.000176736
0.000581574
0.000497211
0.000617218
0.000308924
0.000661008
0.000328035
0.000365778
0.00111737
0.00120496
0.00103023
0.00167125
0.00286995
0.00228696
0.00105916
0.00403487
0.400697
0.386276
0.372406
0.359051
0.346178
0.333754
0.32175
0.310137
0.298888
0.287981
0.277394
0.267111
0.257117
0.247404
0.237965
0.228794
0.21989
0.21125
0.202877
0.194769
0.186928
0.179353
0.172042
0.164993
0.158202
0.151663
0.14537
0.139317
0.133494
0.127895
0.122508
0.117326
0.112338
0.107535
0.102907
0.0984452
0.0941415
0.0899878
0.0859766
0.0821015
0.0783565
0.0747365
0.0712371
0.0678548
0.0645862
0.0614289
0.0583807
0.0554399
0.0526048
0.0498742
0.0472468
0.0447214
0.0422966
0.0399711
0.0377433
0.0356117
0.0335744
0.0316294
0.0297746
0.0280076
0.026326
0.0247271
0.0232084
0.0217669
0.0203999
0.0191044
0.0178775
0.0167162
0.0156178
0.014579
0.0135973
0.0126694
0.0117932
0.0109652
0.0101838
0.00944498
0.00874834
0.00808907
0.0074681
0.00687947
0.00632604
0.00580015
0.00530728
0.00483735
0.0043993
0.00397984
0.00359208
0.00321903
0.00287829
0.0025487
0.00225357
0.00196378
0.00171702
0.00146031
0.00126528
0.00104501
0.000876745
0.000735974
0.000552905
0.000455793
0.000444282
7.1094e-05
0.000528248
0.00012652
0.000163236
0.000565342
0.000461769
0.000613992
0.000284376
0.000668689
0.00031272
0.000330713
0.00112435
0.00122337
0.00103128
0.00161844
0.00297383
0.00229633
0.000804796
0.00441374
0.397457
0.383002
0.369101
0.355722
0.342835
0.33041
0.31842
0.306838
0.295641
0.284804
0.274309
0.264135
0.254267
0.244693
0.235402
0.226386
0.217639
0.209155
0.200934
0.192972
0.185268
0.177821
0.170629
0.163689
0.156999
0.150554
0.144351
0.138383
0.132644
0.127127
0.121826
0.116732
0.111836
0.107132
0.10261
0.0982609
0.0940774
0.090051
0.0861735
0.0824375
0.0788356
0.0753614
0.0720085
0.0687715
0.0656454
0.0626257
0.0597087
0.0568909
0.0541694
0.0515419
0.0490062
0.0465605
0.0442031
0.0419327
0.0397478
0.0376471
0.0356293
0.033693
0.0318369
0.0300594
0.0283588
0.0267336
0.0251818
0.0237016
0.0222908
0.0209473
0.0196691
0.0184537
0.017299
0.0162023
0.0151616
0.0141741
0.013238
0.0123499
0.0115089
0.0107109
0.00995592
0.0092389
0.00856132
0.00791679
0.00730885
0.00672907
0.00618391
0.00566212
0.00517402
0.0047047
0.00426915
0.0038482
0.00346204
0.00308662
0.0027487
0.00241544
0.002129
0.00183156
0.00160098
0.00134267
0.00114474
0.000968529
0.000760829
0.000634549
0.000603321
0.000184058
0.00061669
0.000105316
0.00016498
0.000531369
0.000404278
0.000592888
0.000244437
0.000660669
0.000286808
0.000280495
0.00111015
0.00122456
0.00100957
0.00152015
0.00308083
0.00228102
0.000608068
0.0047748
0.394426
0.379951
0.366032
0.35264
0.339747
0.327326
0.31535
0.303796
0.29264
0.281861
0.271437
0.261351
0.251585
0.242124
0.232957
0.224072
0.21546
0.207115
0.199029
0.1912
0.183624
0.176298
0.169219
0.162384
0.15579
0.149434
0.143311
0.137418
0.131748
0.126296
0.121057
0.116024
0.111189
0.106547
0.102088
0.0978074
0.093696
0.0897467
0.0859521
0.0823048
0.0787974
0.0754232
0.0721754
0.0690475
0.0660337
0.0631283
0.0603261
0.0576224
0.0550131
0.0524942
0.0500624
0.0477147
0.0454484
0.0432613
0.0411513
0.0391167
0.0371557
0.0352671
0.0334492
0.0317009
0.0300207
0.0284076
0.0268599
0.0253765
0.0239558
0.0225964
0.0212967
0.0200549
0.0188696
0.0177386
0.0166606
0.0156329
0.0146546
0.0137225
0.0128361
0.0119916
0.0111894
0.0104245
0.00969887
0.00900583
0.00834971
0.00772133
0.00712825
0.00655807
0.00602258
0.00550521
0.00502302
0.00455451
0.0041227
0.00370043
0.00331827
0.00293931
0.00261068
0.00226929
0.00199984
0.00169939
0.00146834
0.00125146
0.00101643
0.000855193
0.000800865
0.000350233
0.000773484
0.00017993
0.000263714
0.00052489
0.000319365
0.000549861
0.000185713
0.000633673
0.00024884
0.000212226
0.00107023
0.00120608
0.000964474
0.00136797
0.0031912
0.00232807
0.000515949
0.00508455
0.391582
0.377098
0.363171
0.349774
0.336882
0.324469
0.312509
0.30098
0.28986
0.279128
0.268763
0.258748
0.249065
0.239698
0.230634
0.221859
0.213364
0.205138
0.197174
0.189465
0.182006
0.174793
0.167821
0.161086
0.154586
0.148315
0.142272
0.13645
0.130846
0.125455
0.12027
0.115288
0.110501
0.105904
0.101491
0.097254
0.0931878
0.0892853
0.08554
0.0819451
0.0784942
0.0751806
0.0719979
0.06894
0.0660006
0.063174
0.0604545
0.0578369
0.055316
0.0528872
0.0505462
0.0482889
0.0461117
0.0440113
0.0419847
0.0400293
0.0381426
0.0363225
0.0345671
0.0328747
0.0312437
0.0296726
0.0281601
0.0267049
0.0253056
0.0239611
0.0226701
0.0214313
0.0202434
0.0191049
0.0180147
0.0169708
0.0159725
0.0150171
0.0141045
0.013231
0.0123978
0.0115997
0.0108394
0.0101099
0.00941641
0.00874901
0.00811648
0.00750523
0.00692868
0.00636852
0.005844
0.00533122
0.00485622
0.0043885
0.00396282
0.00353775
0.00316608
0.00277868
0.00246819
0.00212216
0.001855
0.00159262
0.00132728
0.00112565
0.00104384
0.000560038
0.000963631
0.000274601
0.000417231
0.00063807
0.000370121
0.000581632
0.000158047
0.000609069
0.000201487
0.000125016
0.000998697
0.00120327
0.000933098
0.00119966
0.0033471
0.00234154
0.000577324
0.00534303
0.388906
0.37442
0.360493
0.347099
0.334213
0.321811
0.309869
0.298364
0.287276
0.276585
0.266271
0.256315
0.246701
0.237412
0.228433
0.219752
0.211355
0.203233
0.195375
0.187773
0.18042
0.173311
0.166439
0.1598
0.15339
0.147204
0.141238
0.135487
0.129948
0.124616
0.119486
0.114552
0.10981
0.105254
0.100878
0.0966772
0.0926447
0.0887751
0.0850623
0.0815005
0.0780837
0.074806
0.0716615
0.0686445
0.0657493
0.0629703
0.0603022
0.0577397
0.0552775
0.0529109
0.0506352
0.0484459
0.0463387
0.0443098
0.0423554
0.0404722
0.038657
0.036907
0.0352193
0.0335919
0.0320223
0.0305089
0.0290494
0.0276426
0.0262867
0.0249805
0.0237225
0.0225115
0.0213462
0.0202253
0.0191479
0.018112
0.0171174
0.0161615
0.0152446
0.0143632
0.0135187
0.0127061
0.0119287
0.011179
0.0104633
0.00977089
0.00911178
0.00847117
0.00786416
0.00727064
0.00671216
0.00616225
0.00565017
0.0051418
0.00467654
0.00420774
0.00379486
0.00336149
0.00300979
0.00261616
0.00231105
0.00199943
0.0017009
0.00145425
0.00133985
0.00082146
0.00119507
0.000432052
0.000607458
0.000782844
0.000446235
0.000688764
0.000240698
0.000679634
0.000281846
0.0001636
0.000978974
0.00124586
0.000986041
0.0011249
0.00359629
0.00233872
0.00088988
0.00555449
0.386379
0.371899
0.357978
0.344592
0.331717
0.31933
0.307407
0.295926
0.284869
0.274214
0.263943
0.254038
0.244482
0.235258
0.226352
0.217749
0.209437
0.201404
0.193638
0.186131
0.178874
0.171859
0.16508
0.15853
0.152205
0.1461
0.14021
0.13453
0.129056
0.123784
0.118708
0.113823
0.109126
0.10461
0.100271
0.0961033
0.0921015
0.0882601
0.0845738
0.0810371
0.0776446
0.0743909
0.0712706
0.0682785
0.0654093
0.062658
0.0600195
0.0574889
0.0550614
0.0527322
0.0504969
0.048351
0.0462901
0.0443103
0.0424075
0.0405783
0.0388186
0.0371257
0.0354959
0.0339268
0.0324151
0.0309589
0.0295553
0.0282027
0.0268987
0.0256417
0.0244299
0.0232618
0.0221359
0.0210507
0.0200051
0.0189972
0.0180267
0.017091
0.0161907
0.0153219
0.0144866
0.0136794
0.0129044
0.0121535
0.0114338
0.0107338
0.0100647
0.00941046
0.00878776
0.00817461
0.0075949
0.0070194
0.00648076
0.00594077
0.00544406
0.00493775
0.00448932
0.00401324
0.00362329
0.00318267
0.0028397
0.00247733
0.00214343
0.00184883
0.00169646
0.00114279
0.00147647
0.000672626
0.000843788
0.00096275
0.000546091
0.000822167
0.000346891
0.000800874
0.00042042
0.000245688
0.00105171
0.00137322
0.00107601
0.00105067
0.00387154
0.0023352
0.00130758
0.00572473
0.383987
0.369517
0.355608
0.342235
0.329375
0.317005
0.305103
0.293647
0.282618
0.271997
0.261765
0.251904
0.242398
0.233231
0.224386
0.215851
0.207611
0.199654
0.191969
0.184544
0.177371
0.170441
0.163747
0.15728
0.151036
0.145008
0.139191
0.133579
0.12817
0.122956
0.117935
0.1131
0.108449
0.103974
0.0996724
0.0955385