/*--------------------------------*- C++ -*----------------------------------*\
| =========                 |                                                 |
| \\      /  F ield         | OpenFOAM: The Open Source CFD Toolbox           |
|  \\    /   O peration     | Version:  2412                                  |
|   \\  /    A nd           | Website:  www.openfoam.com                      |
|    \\/     M anipulation  |                                                 |
\*---------------------------------------------------------------------------*/
FoamFile
{
    version     2.0;
    format      ascii;
    arch        "LSB;label=32;scalar=64";
    class       surfaceScalarField;
    location    "1.58";
    object      ddtCorrDdt0(phi);
}
// * * * * * * * * * * * * * * * * * * * * * * * * * * * * * * * * * * * * * //

dimensions      [0 3 -2 0 0 0 0];

oriented        oriented;

internalField   nonuniform List<scalar> 
24930
(
0.000492005
0.000465072
-0.000821152
0.000229667
0.000258063
0.000101288
0.000125714
4.34576e-05
5.66862e-05
1.75552e-05
2.61413e-05
5.54911e-06
1.34805e-05
-1.11503e-06
8.64213e-06
-5.04919e-06
6.28008e-06
-8.02008e-06
6.01049e-06
-9.76516e-06
5.87923e-06
-1.00662e-05
5.4264e-06
-9.09779e-06
4.58842e-06
-7.37747e-06
3.60991e-06
-5.46835e-06
2.72576e-06
-3.70276e-06
1.98351e-06
-2.10634e-06
1.30567e-06
-5.02386e-07
6.19303e-07
1.3162e-06
-8.15283e-08
3.444e-06
-7.47591e-07
5.8022e-06
-1.31631e-06
8.17163e-06
-1.74773e-06
1.02903e-05
-2.0373e-06
1.19565e-05
-2.20307e-06
1.30846e-05
-2.26081e-06
1.36967e-05
-2.21031e-06
1.38751e-05
-2.04611e-06
1.37117e-05
-1.78254e-06
1.32715e-05
-1.46727e-06
1.25631e-05
-1.16219e-06
1.15106e-05
-9.10593e-07
9.94878e-06
-7.28497e-07
7.66414e-06
-6.28651e-07
4.46681e-06
-6.43774e-07
2.7202e-07
-8.37307e-07
-4.84328e-06
-1.28851e-06
-1.06301e-05
-2.06048e-06
-1.67253e-05
-3.14829e-06
-2.27376e-05
-4.46564e-06
-2.83318e-05
-5.86012e-06
-3.32536e-05
-7.1807e-06
-3.73366e-05
-8.30266e-06
-4.04726e-05
-9.1655e-06
-4.26183e-05
-9.7343e-06
-4.37733e-05
-1.00229e-05
-4.40142e-05
-1.00266e-05
-4.34523e-05
-9.78777e-06
-4.22591e-05
-9.31354e-06
-4.05816e-05
-8.67596e-06
-3.85975e-05
-7.86518e-06
-3.64051e-05
-6.95568e-06
-3.41245e-05
-5.90243e-06
-3.17425e-05
-4.80892e-06
-2.92916e-05
-3.60597e-06
-2.66424e-05
-2.44862e-06
-2.37857e-05
-1.22913e-06
-2.05225e-05
-1.64429e-07
-1.68742e-05
9.34284e-07
-1.26159e-05
1.79425e-06
-7.85672e-06
2.73155e-06
-2.34815e-06
3.36934e-06
3.66599e-06
4.16073e-06
1.04155e-05
4.54638e-06
1.73691e-05
5.14748e-06
2.46397e-05
5.12814e-06
3.1283e-05
5.3472e-06
3.73684e-05
4.62651e-06
4.16187e-05
4.25684e-06
4.43679e-05
2.69661e-06
4.42425e-05
1.89192e-06
4.22663e-05
-2.07488e-07
3.71687e-05
-8.44361e-07
3.09749e-05
-2.86791e-06
2.24062e-05
-2.54127e-06
1.44886e-05
-3.93592e-06
5.42894e-06
-2.16667e-06
-9.79498e-07
-3.08624e-06
-7.76731e-06
-2.83522e-07
-1.05374e-05
-1.76081e-06
-1.4149e-05
1.38492e-06
-1.32478e-05
-1.27498e-06
-1.45941e-05
2.57723e-06
-1.09452e-05
-1.01254e-06
-1.09518e-05
3.96365e-06
-4.83272e-06
-1.20303e-06
-3.57135e-06
4.0967e-06
4.40178e-06
-2.9151e-06
5.73916e-06
2.35437e-06
1.54805e-05
-8.23563e-06
1.38693e-05
-9.82578e-08
2.45852e-05
-1.48259e-05
1.91092e-05
-1.29955e-06
3.03683e-05
-1.9625e-05
2.91104e-05
-4.76236e-06
2.88962e-05
-2.22032e-05
5.37691e-05
-3.32851e-05
3.12228e-05
1.23474e-05
7.01441e-05
-9.03508e-05
0.000148473
-6.96899e-05
-0.000142924
0.000142964
0.000566031
-0.000632273
-7.76121e-06
0.000600052
0.000100079
-0.000107027
0.000974503
-0.000903289
-0.00147061
0.00242715
0.00129139
-0.00275693
0.00112328
0.00033391
-0.00128613
0.00249669
0.00074432
-0.00205047
0.00161271
-0.00100896
0.000753205
0.000767348
-0.00337707
0.00225607
0.00501248
-0.0083447
-0.00148606
0.00655959
-0.00210652
0.000631074
0.0162391
-0.00719532
-0.0188059
0.0350825
-0.0229412
0.00411637
0.0404597
-0.0701471
0.0300153
0.0104555
0.0267366
0.000835983
0.000558446
-0.000933874
0.00063172
0.000455776
0.000430951
0.000323528
0.000272594
0.000213917
0.000167746
0.000132234
0.00010442
7.99985e-05
6.57706e-05
5.17458e-05
3.93225e-05
3.84055e-05
2.05547e-05
3.22509e-05
7.70802e-06
2.79677e-05
1.74421e-07
2.31521e-05
-2.88145e-06
1.76675e-05
-2.89785e-06
1.26034e-05
-1.47339e-06
8.82571e-06
2.4848e-07
6.34466e-06
1.80104e-06
4.65361e-06
3.18609e-06
3.27718e-06
4.52045e-06
2.00444e-06
5.78648e-06
8.2589e-07
6.7793e-06
-2.17333e-07
7.21876e-06
-1.13362e-06
6.92395e-06
-1.99103e-06
5.93307e-06
-2.85625e-06
4.50116e-06
-3.72182e-06
2.99465e-06
-4.49182e-06
1.76175e-06
-5.05054e-06
1.04658e-06
-5.36147e-06
9.49343e-07
-5.5037e-06
1.38403e-06
-5.59285e-06
2.02532e-06
-5.67272e-06
2.30867e-06
-5.70715e-06
1.54138e-06
-5.68416e-06
-9.06022e-07
-5.71e-06
-5.39895e-06
-6.03699e-06
-1.1917e-05
-6.988e-06
-2.00624e-05
-8.81852e-06
-2.92138e-05
-1.15443e-05
-3.87221e-05
-1.49101e-05
-4.80629e-05
-1.84684e-05
-5.6855e-05
-2.17964e-05
-6.48319e-05
-2.45777e-05
-7.17664e-05
-2.66904e-05
-7.74793e-05
-2.80804e-05
-8.1825e-05
-2.87996e-05
-8.47743e-05
-2.88274e-05
-8.63617e-05
-2.82568e-05
-8.67341e-05
-2.70941e-05
-8.60179e-05
-2.55255e-05
-8.44178e-05
-2.35254e-05
-8.20403e-05
-2.12926e-05
-7.90605e-05
-1.87045e-05
-7.54635e-05
-1.60224e-05
-7.13388e-05
-1.30341e-05
-6.6526e-05
-1.0116e-05
-6.10773e-05
-6.942e-06
-5.47341e-05
-4.05918e-06
-4.76152e-05
-9.41949e-07
-3.94306e-05
1.67777e-06
-3.04425e-05
4.61515e-06
-2.02835e-05
6.81097e-06
-9.37256e-06
9.44347e-06
2.72194e-06
1.10187e-05
1.51994e-05
1.32634e-05
2.84029e-05
1.40248e-05
4.09234e-05
1.5698e-05
5.3083e-05
1.5155e-05
6.2866e-05
1.58385e-05
7.09126e-05
1.34688e-05
7.48115e-05
1.3083e-05
7.61203e-05
8.87247e-06
7.2345e-05
7.97338e-06
6.65751e-05
2.41168e-06
5.61994e-05
2.08587e-06
4.60631e-05
-4.05024e-06
3.28267e-05
-2.58805e-06
2.29506e-05
-8.92844e-06
1.13147e-05
-5.0725e-06
5.72695e-06
-1.20695e-05
-1.89196e-06
-5.46999e-06
-2.09388e-06
-1.35672e-05
-6.22494e-06
-3.6266e-06
-1.78089e-06
-1.35905e-05
-3.07038e-06
-7.0173e-07
6.44182e-06
-1.44817e-05
8.87281e-06
7.832e-08
2.3828e-05
-1.75149e-05
3.05041e-05
-2.31311e-06
5.02221e-05
-2.50255e-05
5.30642e-05
4.14128e-07
8.06049e-05
-4.02054e-05
7.65432e-05
3.85711e-06
0.000111034
-5.43773e-05
0.000117429
-1.47965e-05
0.000117674
-9.10481e-06
0.00021245
-0.000131343
0.000103543
0.000119431
0.000322301
-0.000265207
0.00038095
-0.000137829
-0.000267132
0.00093717
0.00174741
-0.00259001
-0.0002395
0.00258339
0.000937442
-0.00126044
0.00255563
-0.00247382
-0.00411703
0.00941621
0.00435769
-0.0112174
0.00254322
0.00229002
-0.0037977
0.00882129
0.00242905
-0.0082726
0.00534804
-0.00387552
0.0013059
0.00483298
-0.00878173
0.0143803
0.0165088
-0.033645
-0.00543087
0.028478
-0.00316817
-0.00168013
0.0500998
-0.0716784
-0.0583317
0.143533
-0.0591051
0.00490569
0.132019
-0.254537
0.0869974
0.055471
0.112486
0.000965587
0.000562544
-0.000975094
0.00087991
0.000536233
0.000737153
0.00046354
0.000577676
0.000372137
0.000433846
0.000277368
0.000320605
0.000196262
0.000235404
0.00014068
0.000170979
0.000107711
0.00012191
8.81506e-05
8.51275e-05
7.3485e-05
5.91022e-05
5.88872e-05
4.23004e-05
4.40037e-05
3.23308e-05
3.11131e-05
2.63782e-05
2.19875e-05
2.21953e-05
1.64392e-05
1.85986e-05
1.30987e-05
1.52347e-05
1.07128e-05
1.20529e-05
8.69016e-06
8.92377e-06
6.92186e-06
5.55929e-06
5.40207e-06
1.66436e-06
3.99865e-06
-2.84949e-06
2.45487e-06
-7.7506e-06
5.52052e-07
-1.25463e-05
-1.71774e-06
-1.66638e-05
-4.12216e-06
-1.96297e-05
-6.34529e-06
-2.11632e-05
-8.20805e-06
-2.12009e-05
-9.75017e-06
-1.99418e-05
-1.10738e-05
-1.7923e-05
-1.21362e-05
-1.6021e-05
-1.27606e-05
-1.5282e-05
-1.28771e-05
-1.66267e-05
-1.27291e-05
-2.05581e-05
-1.2906e-05
-2.70147e-05
-1.41399e-05
-3.54351e-05
-1.6982e-05
-4.50167e-05
-2.14641e-05
-5.49991e-05
-2.70691e-05
-6.48455e-05
-3.2934e-05
-7.42272e-05
-3.82829e-05
-8.29375e-05
-4.25914e-05
-9.07683e-05
-4.57157e-05
-9.75101e-05
-4.76399e-05
-0.00010295
-4.8505e-05
-0.000106986
-4.82991e-05
-0.000109577
-4.71859e-05
-0.000110805
-4.5178e-05
-0.000110731
-4.25859e-05
-0.000109516
-3.93492e-05
-0.000107231
-3.57794e-05
-0.000104051
-3.16372e-05
-9.99566e-05
-2.73338e-05
-9.50717e-05
-2.24749e-05
-8.92478e-05
-1.76795e-05
-8.2581e-05
-1.23781e-05
-7.48145e-05
-7.50039e-06
-6.61225e-05
-2.13938e-06
-5.6214e-05
2.45184e-06
-4.54175e-05
7.65427e-06
-3.33221e-05
1.16175e-05
-2.03936e-05
1.63276e-05
-6.1107e-06
1.91933e-05
8.64814e-06
2.31613e-05
2.43276e-05
2.45027e-05
3.93782e-05
2.72979e-05
5.42523e-05
2.61146e-05
6.66968e-05
2.68739e-05
7.74972e-05
2.21939e-05
8.38558e-05
2.08376e-05
8.75339e-05
1.28119e-05
8.55397e-05
1.05637e-05
8.13548e-05
3.25049e-07
7.17865e-05
-6.463e-07
6.23715e-05
-1.15326e-05
4.90813e-05
-8.97632e-06
3.94569e-05
-1.98307e-05
2.74637e-05
-1.27204e-05
2.23321e-05
-2.43839e-05
1.45195e-05
-1.21844e-05
1.52176e-05
-2.56301e-05
1.10143e-05
-7.74919e-06
1.68726e-05
-2.4888e-05
1.6041e-05
-2.56531e-06
2.84517e-05
-2.68785e-05
3.29137e-05
-1.92616e-06
5.40076e-05
-3.41741e-05
6.52159e-05
-8.045e-06
9.26903e-05
-4.7165e-05
0.000101684
-4.79014e-06
0.000142905
-8.0578e-05
0.000142523
1.55922e-06
0.000199687
-0.00011736
0.000215272
-3.84616e-05
0.000216384
-1.93903e-05
0.000391057
-0.000313825
0.000174506
0.000328229
0.00062335
-0.00072276
0.000592673
-0.000115489
-0.000315249
0.00184374
0.00301478
-0.00604238
-0.000569411
0.00617547
0.00210888
-0.00393065
0.00404222
-0.00438124
-0.00668169
0.0200831
0.00800005
-0.0258796
0.00353294
0.00689637
-0.00632223
0.0186897
0.00463725
-0.0192394
0.00919421
-0.00844326
0.00140086
0.0126111
-0.0135253
0.0291817
0.0292436
-0.0764324
-0.00984664
0.0675741
-0.00220142
-0.00931671
0.0844389
-0.158258
-0.101357
0.329329
-0.0883181
-0.00813293
0.183159
-0.526034
0.141765
0.0968793
0.257788
0.00102029
0.000551578
-0.00101397
0.00100139
0.000550156
0.000937252
0.000524862
0.000836109
0.000472445
0.000717547
0.000397884
0.000597369
0.000319594
0.000486252
0.000255292
0.000389149
0.000209471
0.000306981
0.000177052
0.00023933
0.00014976
0.000185913
0.000121763
0.000146057
9.30444e-05
0.000117538
6.78659e-05
9.68186e-05
4.97682e-05
8.05154e-05
3.86852e-05
6.65004e-05
3.21118e-05
5.38883e-05
2.7583e-05
4.23822e-05
2.3867e-05
3.17049e-05
2.06974e-05
2.14342e-05
1.8036e-05
1.11715e-05
1.56012e-05
8.06085e-07
1.28564e-05
-9.35367e-06
9.31756e-06
-1.86773e-05
4.89105e-06
-2.64647e-05
-4.43363e-08
-3.21865e-05
-4.89444e-06
-3.55937e-05
-9.23967e-06
-3.67202e-05
-1.30054e-05
-3.59084e-05
-1.62287e-05
-3.38929e-05
-1.87262e-05
-3.18093e-05
-2.01237e-05
-3.09827e-05
-2.02803e-05
-3.2542e-05
-1.96562e-05
-3.7042e-05
-1.93412e-05
-4.43027e-05
-2.06525e-05
-5.35448e-05
-2.45386e-05
-6.37632e-05
-3.1032e-05
-7.40954e-05
-3.92497e-05
-8.40224e-05
-4.77894e-05
-9.33079e-05
-5.54412e-05
-0.000101851
-6.14527e-05
-0.00010951
-6.56885e-05
-0.0001161
-6.82101e-05
-0.000121392
-6.92773e-05
-0.000125266
-6.88893e-05
-0.000127656
-6.72851e-05
-0.000128625
-6.44803e-05
-0.000128205
-6.0922e-05
-0.000126545
-5.6504e-05
-0.000123698
-5.16578e-05
-0.000119844
-4.60014e-05
-0.000114961
-4.0108e-05
-0.000109197
-3.33679e-05
-0.000102397
-2.66753e-05
-9.46815e-05
-1.91816e-05
-8.57662e-05
-1.22524e-05
-7.58632e-05
-4.53479e-06
-6.46508e-05
2.12497e-06
-5.25133e-05
9.75364e-06
-3.89734e-05
1.55768e-05
-2.45542e-05
2.24985e-05
-8.63625e-06
2.66604e-05
7.79071e-06
3.2428e-05
2.52786e-05
3.42745e-05
4.20944e-05
3.82637e-05
5.88428e-05
3.63384e-05
7.29926e-05
3.73475e-05
8.5534e-05
3.03382e-05
9.32565e-05
2.84203e-05
9.82375e-05
1.66784e-05
9.69667e-05
1.36836e-05
9.34716e-05
-1.21533e-06
8.39265e-05
-2.25198e-06
7.473e-05
-1.82575e-05
6.10444e-05
-1.42721e-05
5.16583e-05
-3.06484e-05
3.94036e-05
-2.02265e-05
3.509e-05
-3.80848e-05
2.74176e-05
-1.99791e-05
2.95107e-05
-4.02633e-05
2.56156e-05
-1.34235e-05
3.33713e-05
-3.93047e-05
3.34247e-05
-6.49874e-06
4.91138e-05
-4.37898e-05
5.62813e-05
-7.96216e-06
8.31223e-05
-5.80194e-05
9.82908e-05
-1.91577e-05
0.000134889
-7.96772e-05
0.000151786
-1.86856e-05
0.000207101
-0.000135047
0.000210657
-3.80096e-06
0.000292632
-0.000203401
0.000316852
-6.87103e-05
0.000322396
-3.24148e-05
0.000579393
-0.000578099
0.000253992
0.00064686
0.000946897
-0.00142317
0.000805217
1.91511e-05
-0.000304082
0.00295206
0.00432627
-0.0106681
-0.000983319
0.0114938
0.00346567
-0.00837767
0.00541264
-0.00630487
-0.00914442
0.0347242
0.0121656
-0.047168
0.0040785
0.0151384
-0.00876597
0.0315409
0.00733115
-0.0353473
0.0128448
-0.0139616
0.00113808
0.0243113
-0.0175765
0.0478645
0.042938
-0.136956
-0.0145126
0.125031
0.00067427
-0.024489
0.118154
-0.275738
-0.146887
0.594372
-0.109395
-0.0456212
0.283128
-0.918551
0.192747
0.187266
0.469236
0.00106133
0.00054572
-0.00105982
0.001062
0.000544336
0.0010455
0.000539141
0.00100244
0.000515906
0.000933618
0.000469324
0.000844921
0.000411322
0.000745724
0.000357684
0.000645215
0.000314669
0.000549202
0.000280129
0.000460684
0.000247198
0.000382485
0.000209474
0.000317255
0.000167328
0.000265484
0.00012775
0.000224771
9.75837e-05
0.000191436
7.81937e-05
0.00016255
6.63498e-05
0.000136621
5.81494e-05
0.000113068
5.14215e-05
9.14811e-05
4.56381e-05
7.12959e-05
4.07674e-05
5.19513e-05
3.64148e-05
3.32207e-05
3.17119e-05
1.54089e-05
2.57866e-05
-7.48569e-07
1.83427e-05
-1.44118e-05
9.86922e-06
-2.49724e-05
1.30462e-06
-3.2217e-05
-6.5681e-06
-3.63115e-05
-1.34567e-05
-3.77718e-05
-1.92881e-05
-3.75243e-05
-2.3722e-05
-3.69275e-05
-2.6161e-05
-3.75541e-05
-2.6378e-05
-4.07371e-05
-2.5102e-05
-4.70964e-05
-2.40705e-05
-5.63375e-05
-2.53703e-05
-6.7448e-05
-3.04687e-05
-7.91959e-05
-3.93913e-05
-9.05996e-05
-5.07785e-05
-0.000101155
-6.25483e-05
-0.000110727
-7.29633e-05
-0.000119335
-8.10147e-05
-0.000126923
-8.66028e-05
-0.000133341
-8.99048e-05
-0.000138363
-9.13309e-05
-0.000141862
-9.08909e-05
-0.000143769
-8.89018e-05
-0.000144148
-8.5375e-05
-0.000143024
-8.0911e-05
-0.000140552
-7.53467e-05
-0.00013678
-6.92498e-05
-0.000131909
-6.20686e-05
-0.000125917
-5.45617e-05
-0.000118984
-4.58675e-05
-0.000110937
-3.72021e-05
-0.000101929
-2.73915e-05
-9.16338e-05
-1.83069e-05
-8.03096e-05
-8.0655e-06
-6.75888e-05
7.98751e-07
-5.39268e-05
1.10704e-05
-3.87644e-05
1.88917e-05
-2.27121e-05
2.82455e-05
-5.03634e-06
3.37939e-05
1.31167e-05
4.15791e-05
3.24335e-05
4.39704e-05
5.09366e-05
4.93779e-05
6.94273e-05
4.66614e-05
8.50148e-05
4.8139e-05
9.89674e-05
3.8637e-05
0.000107561
3.64007e-05
0.000113313
2.06465e-05
0.000112067
1.71762e-05
0.000108585
-2.88562e-06
9.82357e-05
-3.67842e-06
8.85425e-05
-2.55622e-05
7.36113e-05
-1.97472e-05
6.38242e-05
-4.27118e-05
5.05069e-05
-2.83936e-05
4.64964e-05
-5.37561e-05
3.82069e-05
-2.86395e-05
4.13188e-05
-5.71192e-05
3.70427e-05
-1.95701e-05
4.65607e-05
-5.59709e-05
4.69699e-05
-1.09335e-05
6.61499e-05
-6.40608e-05
7.56711e-05
-1.60127e-05
0.000108855
-8.77259e-05
0.000128501
-3.4218e-05
0.000176006
-0.000122596
0.000200962
-4.02826e-05
0.000269193
-0.000202236
0.000277291
-1.37617e-05
0.000386232
-0.000316843
0.000418323
-0.000107503
0.000432314
-5.49556e-05
0.000772229
-0.000926983
0.000337645
0.00107308
0.00128433
-0.00237798
0.00101595
0.000280598
-0.000246178
0.00421219
0.00565936
-0.0165687
-0.00147985
0.0186431
0.00494531
-0.014799
0.00662935
-0.0079657
-0.0114461
0.0529507
0.0167756
-0.0753666
0.00417457
0.0279089
-0.0110134
0.0467407
0.010385
-0.0567582
0.016117
-0.0197078
0.000613228
0.039804
-0.0209031
0.0693448
0.0573744
-0.215237
-0.0192305
0.201644
0.00521237
-0.0489228
0.150485
-0.42101
-0.19345
0.938308
-0.122276
-0.116795
0.384864
-1.42568
0.238549
0.333586
0.749694
0.00110653
0.000543148
-0.001108
0.00110748
0.000538731
0.00110827
0.000537479
0.0010979
0.000527762
0.00106863
0.000501242
0.00101833
0.000464088
0.000951581
0.000427399
0.00087473
0.000396596
0.000792346
0.000370247
0.00070676
0.000342207
0.000621151
0.000304739
0.000540758
0.000256675
0.000470101
0.000206423
0.000410178
0.000164688
0.000358873
0.000135961
0.000313396
0.000117605
0.000271976
0.000104662
0.0002339
9.39004e-05
0.000198778
8.44192e-05
0.000166042
7.62618e-05
0.000135009
6.9055e-05
0.000105288
6.16414e-05
7.71084e-05
5.26602e-05
5.12943e-05
4.14409e-05
2.88883e-05
2.84631e-05
1.06843e-05
1.50294e-05
-3.05688e-06
2.43123e-06
-1.26083e-05
-8.66096e-06
-1.86645e-05
-1.79889e-05
-2.23238e-05
-2.50632e-05
-2.51147e-05
-2.90717e-05
-2.88233e-05
-2.96639e-05
-3.50263e-05
-2.78159e-05
-4.45061e-05
-2.5999e-05
-5.69404e-05
-2.72631e-05
-7.11065e-05
-3.37765e-05
-8.55141e-05
-4.56037e-05
-9.90174e-05
-6.08098e-05
-0.000111101
-7.64752e-05
-0.00012173
-9.02166e-05
-0.000131063
-0.000100724
-0.000139151
-0.000107959
-0.000145898
-0.000112263
-0.000151079
-0.000114243
-0.000154564
-0.000113927
-0.000156274
-0.000111714
-0.000156284
-0.000107599
-0.000154609
-0.000102353
-0.000151417
-9.57393e-05
-0.000146752
-8.84782e-05
-0.000140851
-7.98115e-05
-0.00013369
-7.07121e-05
-0.000125496
-6.00208e-05
-0.00011608
-4.93349e-05
-0.000105638
-3.70951e-05
-9.38037e-05
-2.5766e-05
-8.08972e-05
-1.28325e-05
-6.64957e-05
-1.63962e-06
-5.11484e-05
1.14997e-05
-3.41999e-05
2.14484e-05
-1.63821e-05
3.34781e-05
3.17616e-06
4.05019e-05
2.31278e-05
5.05628e-05
4.43328e-05
5.35334e-05
6.4507e-05
6.06315e-05
8.47043e-05
5.70565e-05
0.000101585
5.92855e-05
0.00011678
4.71094e-05
0.000125934
4.49123e-05
0.000132132
2.48603e-05
0.000130418
2.13912e-05
0.000126479
-4.28496e-06
0.000114665
-4.22568e-06
0.000103899
-3.27035e-05
8.6932e-05
-2.43189e-05
7.61178e-05
-5.4995e-05
6.08496e-05
-3.5873e-05
5.64981e-05
-7.02892e-05
4.66172e-05
-3.67959e-05
5.01472e-05
-7.53286e-05
4.45238e-05
-2.51236e-05
5.5408e-05
-7.45627e-05
5.53604e-05
-1.52707e-05
7.79465e-05
-8.79195e-05
8.92163e-05
-2.5848e-05
0.000128909
-0.000123888
0.000152835
-5.34756e-05
0.000210807
-0.000175933
0.000241315
-6.74556e-05
0.000325319
-0.000285299
0.000339352
-2.98189e-05
0.000476737
-0.000458915
0.000515708
-0.000153361
0.000542755
-9.07145e-05
0.000964347
-0.00135792
0.000424124
0.00160453
0.00163072
-0.00359301
0.00122348
0.000680968
-0.000139638
0.00557278
0.00698292
-0.0236854
-0.00204791
0.0276848
0.00650839
-0.0233507
0.00765533
-0.00908824
-0.0135426
0.0743263
0.0217273
-0.110612
0.00386406
0.0459562
-0.0129385
0.0635563
0.0136378
-0.0833484
0.0189046
-0.0249917
-6.18645e-05
0.0587568
-0.0235314
0.0927925
0.0723188
-0.311088
-0.0237706
0.297741
0.0110651
-0.0837518
0.180738
-0.590678
-0.239221
1.35827
-0.127016
-0.229
0.487746
-2.04042
0.276847
0.54449
1.1035
0.00115607
0.000540083
-0.00115648
0.00115554
0.000535735
0.00115935
0.000533924
0.00116035
0.000528535
0.00115102
0.00051274
0.00112734
0.000489912
0.0010908
0.000467303
0.0010448
0.000448618
0.000990484
0.000433225
0.000927183
0.000415453
0.000854989
0.000386658
0.000777904
0.000342535
0.000702165
0.000290022
0.000632164
0.000241916
0.000568646
0.000206218
0.000510191
0.000182272
0.000455404
0.000165024
0.000403748
0.000150395
0.000355122
0.000137046
0.000309235
0.000125146
0.000265486
0.000114564
0.000223372
0.000104051
0.000182997
9.17661e-05
0.000145226
7.64796e-05
0.000111369
5.84358e-05
8.25734e-05
3.92096e-05
5.93484e-05
2.07162e-05
4.14524e-05
4.22694e-06
2.80737e-05
-9.66166e-06
1.79897e-05
-2.03043e-05
9.5888e-06
-2.6719e-05
9.49978e-07
-2.83879e-05
-9.77668e-06
-2.64021e-05
-2.36933e-05
-2.39257e-05
-4.0627e-05
-2.51439e-05
-5.92244e-05
-3.32054e-05
-7.7698e-05
-4.83768e-05
-9.46466e-05
-6.81024e-05
-0.00010947
-8.84492e-05
-0.000122205
-0.000106226
-0.000133165
-0.000119733
-0.000142544
-0.000129001
-0.000150335
-0.000134585
-0.000156331
-0.000137359
-0.000160399
-0.000137391
-0.000162447
-0.000135173
-0.000162558
-0.000130662
-0.00016074
-0.000124823
-0.000157175
-0.000117321
-0.000151905
-0.000109047
-0.000145206
-9.89887e-05
-0.000137058
-8.83714e-05
-0.000127744
-7.56808e-05
-0.000117058
-6.29674e-05
-0.000105258
-4.82077e-05
-9.19309e-05
-3.45709e-05
-7.74801e-05
-1.87839e-05
-6.14125e-05
-5.15994e-06
-4.43967e-05
1.10752e-05
-2.56618e-05
2.32648e-05
-6.09939e-06
3.82372e-05
1.53303e-05
4.68176e-05
3.70286e-05
5.94545e-05
6.00779e-05
6.3032e-05
8.18119e-05
7.21587e-05
0.000103606
6.76526e-05
0.000121562
7.10159e-05
0.000137778
5.59767e-05
0.000147122
5.43143e-05
0.00015341
2.96574e-05
0.000150686
2.68464e-05
0.000145798
-4.94821e-06
0.000131804
-3.20416e-06
0.000119367
-3.91031e-05
9.95005e-05
-2.71364e-05
8.69925e-05
-6.68396e-05
6.87622e-05
-4.16591e-05
6.33541e-05
-8.6976e-05
5.07312e-05
-4.33146e-05
5.39933e-05
-9.42402e-05
4.58364e-05
-2.89546e-05
5.76066e-05
-9.4673e-05
5.60064e-05
-1.84919e-05
8.18261e-05
-0.000115256
9.38472e-05
-3.65074e-05
0.00014016
-0.00016662
0.000167508
-7.60521e-05
0.000236102
-0.000239813
0.000270132
-9.81586e-05
0.000370302
-0.000384671
0.000393268
-5.5081e-05
0.000558992
-0.000629654
0.00060385
-0.000205454
0.00064896
-0.000144863
0.00114893
-0.00186764
0.000509514
0.00223463
0.00197884
-0.00507119
0.00142353
0.00122922
6.82097e-06
0.00698663
0.00827441
-0.031948
-0.00266758
0.0386386
0.00811687
-0.0341296
0.00846089
-0.00940642
-0.015406
0.0983811
0.0268947
-0.152886
0.00323552
0.0698157
-0.014423
0.081229
0.0169174
-0.114704
0.0211667
-0.0292615
-0.000768298
0.0806756
-0.0255516
0.117563
0.0875468
-0.424185
-0.0279118
0.413209
0.017902
-0.12956
0.208399
-0.781164
-0.282423
1.84909
-0.12395
-0.387473
0.588621
-2.75298
0.308218
0.824895
1.53101
0.00120829
0.000535301
-0.00120625
0.00120859
0.000533196
0.00121218
0.0005312
0.00121504
0.000527401
0.00121258
0.000517294
0.00120214
0.000503062
0.00118457
0.000489463
0.00116164
0.000478884
0.00113308
0.000471334
0.00109597
0.000462794
0.0010475
0.000444703
0.000988061
0.000410437
0.000922184
0.000363538
0.000855278
0.000316051
0.000790393
0.000278089
0.000727877
0.000251419
0.000667073
0.000231891
0.000607696
0.000215072
0.000549979
0.000199137
0.000494107
0.000184283
0.000439833
0.00017077
0.00038671
0.000157569
0.000334704
0.000142541
0.000284624
0.000123809
0.000238017
0.000101076
0.000196539
7.59215e-05
0.000161238
5.08543e-05
0.000132208
2.79605e-05
0.000108717
8.43489e-06
8.9525e-05
-6.82249e-06
7.30632e-05
-1.67225e-05
5.74369e-05
-2.05706e-05
4.0579e-05
-1.93366e-05
2.09081e-05
-1.66208e-05
-1.83065e-06
-1.77973e-05
-2.63426e-05
-2.73631e-05
-5.05435e-05
-4.61393e-05
-7.2646e-05
-7.10341e-05
-9.18183e-05
-9.69415e-05
-0.00010808
-0.000119642
-0.000121883
-0.000136888
-0.000133604
-0.000148729
-0.000143381
-0.000155968
-0.000151062
-0.000159838
-0.000156521
-0.000160491
-0.000159651
-0.00015854
-0.000160544
-0.000153882
-0.000159197
-0.000147696
-0.000155812
-0.000139521
-0.000150422
-0.000130445
-0.000143355
-0.000119144
-0.000134587
-0.000107142
-0.00012447
-9.24974e-05
-0.000112779
-7.78001e-05
-9.98529e-05
-6.04608e-05
-8.52268e-05
-4.44906e-05
-6.94075e-05
-2.57058e-05
-5.18136e-05
-9.58345e-06
-3.32629e-05
9.97012e-06
-1.28463e-05
2.44863e-05
8.33975e-06
4.26861e-05
3.15411e-05
5.28849e-05
5.48477e-05
6.84398e-05
7.96222e-05
7.26346e-05
0.000102725
8.4201e-05
0.000125933
7.86797e-05
0.000144661
8.3675e-05
0.000161601
6.55662e-05
0.000170665
6.5086e-05
0.000176599
3.54697e-05
0.000172199
3.41662e-05
0.000165765
-4.34337e-06
0.000148728
1.64734e-07
0.000133896
-4.41357e-05
0.000110073
-2.72474e-05
9.50477e-05
-7.7518e-05
7.26015e-05
-4.45762e-05
6.52381e-05
-0.00010297
4.84377e-05
-4.67855e-05
5.05641e-05
-0.000112985
3.83776e-05
-2.95489e-05
5.03837e-05
-0.000115622
4.57799e-05
-1.91126e-05
7.44882e-05
-0.000145685
8.58324e-05
-4.65183e-05
0.000138704
-0.00021581
0.000168092
-0.000100508
0.000247493
-0.000314361
0.000284975
-0.000132276
0.000407269
-0.000506289
0.000431869
-8.22533e-05
0.000626142
-0.000829341
0.000676687
-0.000263667
0.000744977
-0.000222606
0.00131787
-0.00245074
0.000589518
0.00295315
0.00232107
-0.00681203
0.00160931
0.00193362
0.000184044
0.00840881
0.00950683
-0.041265
-0.00331342
0.0514717
0.00974133
-0.047178
0.00903768
-0.00867541
-0.0170276
0.124647
0.0321324
-0.202018
0.00241512
0.0997516
-0.0153744
0.0990337
0.0200612
-0.150155
0.0229574
-0.032181
-0.00137991
0.104994
-0.0271044
0.143277
0.102838
-0.554126
-0.0314786
0.547534
0.0253979
-0.186431
0.233117
-0.988872
-0.321595
2.4038
-0.113722
-0.595346
0.683568
-3.55025
0.333061
1.17541
2.02805
0.00126213
0.000528718
-0.00125743
0.00126528
0.000529308
0.00126933
0.000528593
0.00127212
0.000526733
0.00127164
0.000520688
0.00126681
0.000512014
0.00125858
0.000503881
0.00124818
0.000497815
0.0012353
0.000494237
0.00121718
0.000491027
0.00119009
0.000480956
0.00115162
0.000456973
0.00110309
0.000419482
0.00104861
0.000377766
0.000992026
0.000341898
0.000934999
0.000315481
0.000877534
0.000295904
0.00081935
0.000279036
0.000760622
0.000262645
0.000701779
0.000246692
0.000642959
0.000231718
0.000583895
0.000217134
0.000524405
0.000200835
0.00046505
0.000180383
0.000407379
0.000154682
0.000353498
0.000124862
0.000305213
9.3723e-05
0.00026336
6.41894e-05
0.000227669
3.83386e-05
0.000197109
1.75855e-05
0.000170312
3.1275e-06
0.000145662
-4.24282e-06
0.000121105
-5.11918e-06
9.45442e-05
-3.0135e-06
6.49672e-05
-4.25131e-06
3.3256e-05
-1.5022e-05
1.66077e-06
-3.72767e-05
-2.75323e-05
-6.7716e-05
-5.30407e-05
-0.000100008
-7.46735e-05
-0.00012866
-9.29245e-05
-0.000150616
-0.000108361
-0.000165793
-0.000121335
-0.000175217
-0.000131816
-0.000180572
-0.000139716
-0.000182178
-0.000144912
-0.000180823
-0.000147501
-0.000176328
-0.000147467
-0.000170109
-0.000145035
-0.000161539
-0.000140228
-0.000151939
-0.000133423
-0.000139609
-0.000124589
-0.00012643
-0.000114152
-0.000109943
-0.000101867
-9.33758e-05
-8.81808e-05
-7.34435e-05
-7.25685e-05
-5.51669e-05
-5.56655e-05
-3.32682e-05
-3.67811e-05
-1.463e-05
-1.69176e-05
8.45054e-06
4.99831e-06
2.5339e-05
2.76113e-05
4.70648e-05
5.2418e-05
5.89139e-05
7.71255e-05
7.77701e-05
0.000103445
8.25654e-05
0.000127655
9.70634e-05
0.00015203
9.04251e-05
0.000171141
9.76841e-05
0.000188426
7.62772e-05
0.000196634
7.78103e-05
0.000201666
4.28288e-05
0.000194784
4.41213e-05
0.000186078
-1.80162e-06
0.000164944
6.85773e-06
0.000146826
-4.69992e-05
0.000117749
-2.34429e-05
9.91771e-05
-8.60848e-05
7.09516e-05
-4.31292e-05
6.04954e-05
-0.000117181
3.77208e-05
-4.54334e-05
3.76046e-05
-0.000130455
1.94944e-05
-2.49923e-05
3.08585e-05
-0.000136501
2.1342e-05
-1.51856e-05
5.23684e-05
-0.000178595
6.10569e-05
-5.38551e-05
0.000120208
-0.000271125
0.00014961
-0.000124759
0.000239843
-0.000399552
0.000279191
-0.000168183
0.000421028
-0.000647558
0.000444424
-0.000108541
0.000657113
-0.00104787
0.000727627
-0.000342378
0.000823314
-0.000328272
0.00146179
-0.00309999
0.00065789
0.00374665
0.00264897
-0.0088129
0.00177
0.00280485
0.000379551
0.00979603
0.0106587
-0.0515378
-0.00395956
0.0661039
0.0113579
-0.0624881
0.00939777
-0.00668633
-0.0184183
0.152677
0.0372863
-0.257694
0.00155092
0.135726
-0.0157432
0.116344
0.0229416
-0.188856
0.024416
-0.0336813
-0.00180006
0.13119
-0.0283702
0.169838
0.11798
-0.700473
-0.034378
0.699902
0.0333495
-0.254153
0.254825
-1.21033
-0.355853
3.01447
-0.0967684
-0.854428
0.76824
-4.41524
0.35333
1.59032
2.58253
0.00131462
0.000521474
-0.00130814
0.001322
0.000523217
0.00132779
0.000525123
0.00133158
0.0005261
0.00133291
0.000523743
0.00133137
0.00051934
0.00132781
0.000514987
0.00132312
0.000511686
0.00131732
0.00051001
0.00130905
0.00050893
0.0012953
0.000503357
0.00127294
0.000487039
0.00124077
0.000458925
0.00120082
0.00042504
0.00115648
0.000393719
0.00111011
0.0003693
0.00106223
0.000350824
0.00101245
0.000335098
0.000960504
0.000319814
0.000906575
0.000304522
0.000850895
0.000289743
0.000793315
0.000275328
0.000733453
0.000259525
0.000671351
0.00023965
0.000608084
0.000213752
0.000545751
0.000182041
0.00048675
0.000147011
0.000432883
0.000112053
0.000384807
8.01794e-05
0.000342061
5.36759e-05
0.000303669
3.40276e-05
0.000268561
2.19674e-05
0.000235129
1.73714e-05
0.000201009
1.75207e-05
0.000164217
1.58364e-05
0.000124731
4.37122e-06
8.46009e-05
-2.06596e-05
4.65803e-05
-5.64119e-05
1.26298e-05
-9.55339e-05
-1.65381e-05
-0.0001311
-4.12198e-05
-0.000158914
-6.20784e-05
-0.000178464
-7.97281e-05
-0.000190829
-9.43534e-05
-0.000198188
-0.000105976
-0.000201138
-0.000114465
-0.000200762
-0.000119912
-0.000196804
-0.000122279
-0.000190935
-0.000121825
-0.000182308
-0.000118553
-0.000172533
-0.000112886
-0.00015946
-0.000104762
-0.000145408
-9.4692e-05
-0.00012728
-8.2405e-05
-0.00010905
-6.84853e-05
-8.65753e-05
-5.23434e-05
-6.60903e-05
-3.4773e-05
-4.10027e-05
-1.495e-05
-1.98965e-05
5.89701e-06
6.89628e-06
2.90361e-05
2.6149e-05
5.27902e-05
5.17092e-05
7.8958e-05
6.51989e-05
0.00010478
8.77817e-05
0.000132395
9.31232e-05
0.000157371
0.000111134
0.000182597
0.00010325
0.000201615
0.000113558
0.000218789
8.85946e-05
0.000225452
9.319e-05
0.000228936
5.2378e-05
0.000218615
5.76458e-05
0.000206775
3.49594e-06
0.000180288
1.80698e-05
0.000157818
-4.67015e-05
0.000121913
-1.42347e-05
9.8535e-05
-9.13645e-05
6.26128e-05
-3.54782e-05
4.76522e-05
-0.000128261
1.66836e-05
-3.70838e-05
1.29322e-05
-0.000145283
-1.34774e-05
-1.29155e-05
-3.91901e-06
-0.000156136
-2.08204e-05
-4.2161e-06
1.16671e-05
-0.000213095
1.50471e-05
-5.58226e-05
7.99067e-05
-0.000331945
0.000106521
-0.000145953
0.000207383
-0.000495126
0.00024596
-0.000203201
0.00040688
-0.000807992
0.000427213
-0.000132073
0.000691201
-0.00131819
0.000756791
-0.000416727
0.000873891
-0.000455987
0.00157064
-0.00380816
0.000705787
0.00460048
0.00295464
-0.0110721
0.00188961
0.00386169
0.000580037
0.0111023
0.0117104
-0.0626612
-0.00458506
0.0824144
0.012949
-0.0800138
0.009576
-0.00328287
-0.0196042
0.18209
0.0422058
-0.319473
0.000791219
0.177404
-0.015538
0.13269
0.0254878
-0.229899
0.0257602
-0.0339822
-0.0019684
0.158896
-0.0295378
0.197399
0.132766
-0.862774
-0.0366246
0.869302
0.0416759
-0.332447
0.273769
-1.44241
-0.384852
3.67309
-0.0828025
-1.15648
0.837607
-5.33563
0.371123
2.05681
3.16975
0.00138474
0.00051791
-0.00138066
0.00139059
0.000521235
0.00139474
0.000524538
0.00139821
0.000527292
0.00140035
0.000527606
0.00140052
0.000526333
0.00139918
0.000524671
0.0013968
0.000523341
0.00139347
0.000522898
0.00138885
0.000522647
0.00138126
0.000519179
0.00136808
0.000507776
0.00134715
0.000487189
0.00131883
0.000460896
0.00128558
0.000434784
0.00124987
0.000412903