/*--------------------------------*- C++ -*----------------------------------*\
| =========                 |                                                 |
| \\      /  F ield         | OpenFOAM: The Open Source CFD Toolbox           |
|  \\    /   O peration     | Version:  2412                                  |
|   \\  /    A nd           | Website:  www.openfoam.com                      |
|    \\/     M anipulation  |                                                 |
\*---------------------------------------------------------------------------*/
FoamFile
{
    version     2.0;
    format      ascii;
    arch        "LSB;label=32;scalar=64";
    class       volVectorField;
    location    "1.34";
    object      U;
}
// * * * * * * * * * * * * * * * * * * * * * * * * * * * * * * * * * * * * * //

dimensions      [0 1 -1 0 0 0 0];

internalField   nonuniform List<vector> 
12600
(
(18.7457 1.24447e-21 2.09631)
(11.6232 1.60983e-20 0.451603)
(7.35307 1.89241e-20 -0.4778)
(5.09054 0 -0.709341)
(3.97712 1.70989e-20 -0.682435)
(3.33613 1.59204e-20 -0.607696)
(2.89467 0 -0.539977)
(2.56327 0 -0.484482)
(2.30349 -4.7825e-20 -0.438983)
(2.09322 0 -0.401208)
(1.91872 2.00499e-20 -0.369308)
(1.77107 1.8354e-20 -0.341954)
(1.64416 -1.68097e-20 -0.318195)
(1.53363 0 -0.297335)
(1.43632 -1.40807e-20 -0.278848)
(1.34983 0 -0.262333)
(1.27233 4.72833e-20 -0.247472)
(1.20239 0 -0.234016)
(1.13889 -1.97746e-20 -0.221764)
(1.0809 -1.80778e-20 -0.210551)
(1.02769 1.64951e-20 -0.200243)
(0.978653 5.37492e-24 -0.190728)
(0.933277 0 -0.181912)
(0.891137 -2.48442e-20 -0.173716)
(0.851873 0 -0.166072)
(0.815177 0 -0.158924)
(0.780788 -1.83789e-20 -0.15222)
(0.748476 0 -0.145919)
(0.718044 4.11971e-24 -0.139982)
(0.689319 1.32406e-20 -0.134376)
(0.662148 1.17728e-20 -0.129073)
(0.636399 1.04133e-20 -0.124046)
(0.611951 -9.15469e-21 -0.119272)
(0.588699 -1.59798e-20 -0.114732)
(0.566549 -1.38248e-20 -0.110407)
(0.545415 1.18217e-20 -0.106281)
(0.52522 0 -0.102338)
(0.505896 -8.29202e-21 -0.0985654)
(0.48738 0 -0.0949509)
(0.469615 5.27866e-21 -0.0914836)
(0.452548 0 -0.088153)
(0.436132 1.75855e-23 -0.0849502)
(0.420323 0 -0.0818662)
(0.405082 1.60037e-23 -0.0788938)
(0.390369 -7.71335e-22 -0.0760249)
(0.376153 2.48492e-21 -0.0732538)
(0.362399 -4.07655e-21 -0.0705732)
(0.349082 0 -0.0679784)
(0.336167 0 -0.0654627)
(0.323637 -8.00186e-21 -0.0630228)
(0.311459 -1.81416e-20 -0.0606519)
(0.299621 -2.00672e-20 -0.058348)
(0.288088 1.95008e-23 -0.056104)
(0.276857 -2.33179e-20 -0.0539195)
(0.265889 0 -0.0517868)
(0.255191 2.59151e-20 -0.0497071)
(0.244718 2.69742e-20 -0.0476717)
(0.234486 2.78803e-20 -0.0456839)
(0.224443 0 -0.0437333)
(0.214618 0 -0.0418258)
(0.204949 0 -0.0399488)
(0.195481 -6.07285e-20 -0.0381115)
(0.186133 0 -0.0362979)
(0.176976 0 -0.034522)
(0.167904 1.2464e-19 -0.032763)
(0.15902 0 -0.0310409)
(0.150184 0 -0.0293284)
(0.141543 0 -0.0276541)
(0.132907 -1.24616e-19 -0.0259811)
(0.124489 1.2399e-19 -0.0243506)
(0.116023 1.23145e-19 -0.0227112)
(0.107821 2.34884e-23 -0.0211229)
(0.0995 -1.20876e-19 -0.0195119)
(0.0915256 0 -0.0179681)
(0.0833271 1.17921e-19 -0.0163811)
(0.0756186 0 -0.0148888)
(0.0675178 0 -0.0133207)
(0.0601494 0 -0.0118941)
(0.0521126 2.86959e-23 -0.0103383)
(0.0452049 2.16378e-19 -0.0090004)
(0.0371846 2.11791e-19 -0.00744762)
(0.0309046 -2.07085e-19 -0.00623035)
(0.0228553 -2.02147e-19 -0.00467169)
(0.0173711 0 -0.00360729)
(0.00933501 0 -0.00205092)
(0.0046518 3.73595e-19 -0.00114011)
(-0.00299638 -7.25508e-19 0.000342323)
(-0.00739656 7.03884e-19 0.00119784)
(-0.0135712 3.41055e-19 0.00239682)
(-0.018946 0 0.00344116)
(-0.0222559 -6.38123e-19 0.00408895)
(-0.0294762 3.07173e-19 0.00548741)
(-0.0292004 -2.96972e-19 0.00544745)
(-0.0387019 5.69346e-19 0.00728164)
(-0.034938 0 0.00655937)
(-0.0460967 0 0.00872237)
(-0.0406016 0 0.00765137)
(-0.0509211 0 0.00966722)
(-0.0453743 0 0.00857952)
(-0.0537377 0 0.0102296)
(-0.0549175 -4.23128e-19 0.0104189)
(-0.0492546 -8.06047e-19 0.00939736)
(-0.0714933 -7.63671e-19 0.0136247)
(-0.0425861 0 0.00804518)
(-0.0658884 0 0.0126824)
(-0.0655657 0 0.0124712)
(-0.0629744 -6.24327e-19 0.0120485)
(-0.0709519 -1.18744e-18 0.0135614)
(-0.0560915 5.62557e-19 0.0108823)
(-0.105416 0 0.020171)
(-0.0863747 -1.0215e-18 0.0163387)
(-0.0807726 0 0.0158201)
(-0.179116 -8.92781e-19 0.03415)
(-0.0858799 8.94412e-19 0.0161621)
(-0.152328 -8.12148e-19 0.0292771)
(-0.172081 -8.059e-19 0.0326912)
(-0.143197 7.72253e-19 0.0270511)
(-0.0913855 -2.51166e-23 0.0173306)
(-0.127066 6.94575e-19 0.0242946)
(-0.0785128 0 0.0146307)
(29.1576 -1.25629e-21 4.02877)
(25.1124 0 1.85995)
(20.2483 -1.91532e-20 -0.213073)
(16.0804 0 -1.21215)
(13.1198 -1.73261e-20 -1.50783)
(11.0763 -3.04147e-20 -1.51882)
(9.60351 -1.40758e-20 -1.44116)
(8.4911 0 -1.34349)
(7.61793 3.559e-22 -1.24807)
(6.91116 -2.18722e-20 -1.16096)
(6.32511 2.00779e-20 -1.08285)
(5.82975 1.84283e-20 -1.01301)
(5.40445 -1.69117e-20 -0.950431)
(5.03455 1.55166e-20 -0.894137)
(4.70929 2.85202e-20 -0.843265)
(4.42059 0 -0.797082)
(4.16226 -6.4512e-23 -0.754968)
(3.92945 2.18914e-20 -0.7164)
(3.71834 2.00623e-20 -0.680941)
(3.52583 0 -0.648218)
(3.34942 0 -0.617916)
(3.18704 1.52397e-20 -0.589766)
(3.03698 0 -0.563537)
(2.8978 1.25943e-20 -0.539031)
(2.76827 -2.28262e-20 -0.516075)
(2.64736 0 -0.49452)
(2.53418 1.86282e-20 -0.474235)
(2.42796 0 -0.455105)
(2.32803 -1.50171e-20 -0.437029)
(2.23382 -2.68244e-20 -0.419917)
(2.14479 -2.38463e-20 -0.403688)
(2.06052 -1.05402e-20 -0.388273)
(1.98059 9.26365e-21 -0.373606)
(1.90465 3.23484e-20 -0.359631)
(1.83238 2.79801e-20 -0.346296)
(1.7635 0 -0.333555)
(1.69775 0 -0.321363)
(1.6349 -1.73764e-23 -0.309685)
(1.57473 0 -0.298482)
(1.51706 -5.32902e-21 -0.287725)
(1.46171 0 -0.277382)
(1.40852 -5.4947e-21 -0.267428)
(1.35735 0 -0.257835)
(1.30806 -1.14313e-21 -0.248583)
(1.26052 0 -0.239648)
(1.21464 -2.50215e-21 -0.231012)
(1.17029 0 -0.222654)
(1.12738 0 -0.21456)
(1.08581 6.8222e-21 -0.206709)
(1.04552 0 -0.199093)
(1.00639 0 -0.191688)
(0.968391 0 -0.184492)
(0.931404 2.18433e-20 -0.177481)
(0.895416 4.67237e-20 -0.170655)
(0.860305 0 -0.163989)
(0.826083 0 -0.157488)
(0.792611 -2.69499e-20 -0.151124)
(0.759935 -2.78789e-20 -0.144909)
(0.727892 0 -0.13881)
(0.696569 0 -0.132846)
(0.665765 0 -0.126976)
(0.635624 0 -0.12123)
(0.60589 -6.1154e-20 -0.115559)
(0.576781 6.16376e-20 -0.110005)
(0.547964 -1.23931e-19 -0.104504)
(0.51976 0 -0.0991191)
(0.491726 0 -0.0937638)
(0.464323 0 -0.088528)
(0.436954 4.74708e-23 -0.0832964)
(0.41028 -1.22804e-19 -0.0781969)
(0.383472 -1.21856e-19 -0.0730704)
(0.357498 2.4139e-19 -0.068102)
(0.331165 3.59832e-23 -0.0630648)
(0.305916 -1.17862e-19 -0.0582334)
(0.279981 -1.16244e-19 -0.0532712)
(0.255565 0 -0.0485981)
(0.229944 0 -0.0436953)
(0.20658 0 -0.0392232)
(0.181161 2.1667e-19 -0.0343591)
(0.159211 0 -0.0301585)
(0.133843 0 -0.0253034)
(0.113817 2.02678e-19 -0.0214739)
(0.0883491 1.97633e-19 -0.0165977)
(0.0707752 0 -0.0132432)
(0.0453076 0 -0.00836235)
(0.030249 0 -0.00549884)
(0.00586276 7.06165e-19 -0.000817374)
(-0.00816691 -4.3646e-23 0.00183843)
(-0.0282361 3.31209e-19 0.00569848)
(-0.0450471 -3.19831e-19 0.00889061)
(-0.0564246 6.1841e-19 0.0110611)
(-0.0788549 2.97334e-19 0.0153642)
(-0.079177 5.74361e-19 0.0153755)
(-0.108659 0 0.0210812)
(-0.0980622 0 0.0189346)
(-0.132824 0 0.0257322)
(-0.116381 0 0.0223862)
(-0.148881 4.63821e-19 0.0288008)
(-0.132237 0 0.0253921)
(-0.159145 0 0.0308454)
(-0.161098 -4.05704e-19 0.0308236)
(-0.147969 3.86079e-19 0.0287048)
(-0.210914 1.46164e-18 0.0405509)
(-0.127649 -7.06169e-19 0.0241978)
(-0.201508 0 0.0393156)
(-0.19472 0 0.0372445)
(-0.190872 0 0.0368338)
(-0.213818 5.65534e-19 0.0409841)
(-0.176339 -5.35388e-19 0.0344473)
(-0.316423 0 0.0615261)
(-0.257691 1.94098e-18 0.0488186)
(-0.254377 9.00114e-19 0.0506427)
(-0.526955 1.69361e-18 0.101664)
(-0.25354 0 0.0478265)
(-0.461925 0 0.0904701)
(-0.49755 -7.62543e-19 0.0953403)
(-0.414881 0 0.0785876)
(-0.271267 -7.13272e-19 0.0516135)
(-0.375815 -6.55978e-19 0.0723383)
(-0.214544 0 0.0402097)
(31.9012 0 3.90011)
(31.086 0 2.82128)
(28.5551 -1.29733e-20 1.02498)
(25.2109 0 -0.382411)
(21.9581 0 -1.22663)
(19.1845 1.51197e-20 -1.65148)
(16.926 1.33299e-20 -1.81975)
(15.1008 0 -1.85129)
(13.6131 4.20739e-22 -1.81752)
(12.3828 2.0721e-20 -1.75497)
(11.3494 -3.78341e-20 -1.68113)
(10.4686 -1.74607e-20 -1.60437)
(9.70811 1.14532e-22 -1.52868)
(9.04414 -1.47031e-20 -1.45589)
(8.45875 -1.34861e-20 -1.38681)
(7.93823 1.23146e-20 -1.3217)
(7.47189 -2.26577e-20 -1.26052)
(7.05131 -2.07452e-20 -1.20313)
(6.66975 0 -1.1493)
(6.32177 0 -1.0988)
(6.00288 1.58042e-20 -1.05137)
(5.70941 1.44097e-20 -1.00678)
(5.43827 0 -0.964791)
(5.18687 0 -0.925207)
(4.95301 2.16292e-20 -0.887832)
(4.73483 0 -0.852493)
(4.53069 -3.52959e-20 -0.81903)
(4.33922 1.58748e-20 -0.787298)
(4.1592 0 -0.757167)
(3.98958 1.27098e-20 -0.728517)
(3.82941 1.12991e-20 -0.70124)
(3.67787 0 -0.675238)
(3.53425 -8.78864e-21 -0.650419)
(3.39789 -1.53288e-20 -0.626702)
(3.26821 1.21614e-23 -0.604012)
(3.14469 0 -0.58228)
(3.02686 0 -0.561442)
(2.91431 7.94956e-21 -0.541441)
(2.80664 0 -0.522221)
(2.70351 0 -0.503736)
(2.60461 0 -0.485937)
(2.50963 0 -0.468784)
(2.41832 0 -0.452234)
(2.33044 0 -0.436255)
(2.24574 0 -0.420808)
(2.16404 2.32504e-21 -0.405865)
(2.08512 -3.82862e-21 -0.391391)
(2.00883 0 -0.377366)
(1.93498 -6.45444e-21 -0.363753)
(1.86344 0 -0.350538)
(1.79402 0 -0.337686)
(1.72664 1.89694e-20 -0.32519)
(1.66111 0 -0.31301)
(1.59739 -2.20755e-20 -0.301147)
(1.53527 2.33355e-20 -0.28956)
(1.47477 0 -0.278258)
(1.41563 2.54735e-20 -0.267192)
(1.35793 0 -0.256383)
(1.3014 0 -0.245773)
(1.24616 0 -0.235397)
(1.19188 5.62977e-20 -0.225185)
(1.13879 5.71062e-20 -0.215189)
(1.08646 2.85009e-23 -0.205321)
(1.03525 -1.1638e-19 -0.195658)
(0.984588 2.4999e-23 -0.186087)
(0.935023 0 -0.176717)
(0.885786 0 -0.167399)
(0.837673 -1.16963e-19 -0.158288)
(0.789643 3.82338e-23 -0.149186)
(0.742844 0 -0.140311)
(0.695833 0 -0.131392)
(0.650282 -1.138e-19 -0.122744)
(0.604127 2.89546e-23 -0.11398)
(0.559855 2.69334e-23 -0.105566)
(0.51441 0 -0.096933)
(0.471587 0 -0.0887878)
(0.426698 -2.11945e-19 -0.0802586)
(0.385683 2.08078e-19 -0.0724534)
(0.341149 0 -0.0639921)
(0.30255 0 -0.0566457)
(0.258101 0 -0.048201)
(0.222783 0 -0.041484)
(0.178146 0 -0.0329995)
(0.147027 0 -0.0270981)
(0.102336 0 -0.0185858)
(0.0755879 0 -0.0135539)
(0.0325935 -6.63896e-19 -0.00532445)
(0.00782461 -3.21656e-19 -0.000728476)
(-0.0280902 -3.11294e-19 0.0062067)
(-0.0572946 3.00538e-19 0.0116193)
(-0.0785357 -5.80934e-19 0.0157121)
(-0.117251 -2.79284e-19 0.0230236)
(-0.119547 -2.6968e-19 0.0233915)
(-0.170369 0 0.0331689)
(-0.153712 0 0.0297438)
(-0.21382 0 0.0415328)
(-0.186409 0 0.0358034)
(-0.243184 -4.35141e-19 0.0471173)
(-0.215244 0 0.0412168)
(-0.262985 0 0.0511968)
(-0.264048 3.80399e-19 0.0501686)
(-0.247561 0 0.0484286)
(-0.347611 -6.84957e-19 0.0664876)
(-0.213809 6.61761e-19 0.0402262)
(-0.341723 0 0.0673886)
(-0.322939 0 0.06132)
(-0.322401 0 0.0623059)
(-0.359219 5.29572e-19 0.0685811)
(-0.305701 0 0.0606014)
(-0.5292 -4.64926e-19 0.10352)
(-0.430211 -4.75429e-23 0.0805188)
(-0.440947 -8.42412e-19 0.0901787)
(-0.866899 -1.5846e-18 0.166656)
(-0.420185 0 0.0781041)
(-0.778266 7.1957e-19 0.154482)
(-0.805516 7.13267e-19 0.152728)
(-0.675986 6.82861e-19 0.125361)
(-0.448577 0 0.0845462)
(-0.619781 6.13362e-19 0.118448)
(-0.327461 0 0.0589063)
(32.4227 0 2.95843)
(32.9882 0 2.77148)
(32.434 1.22641e-20 1.72596)
(30.7897 0 0.523534)
(28.535 -1.23038e-20 -0.482639)
(26.117 2.50251e-20 -1.20632)
(23.7959 0 -1.66986)
(21.6879 -2.18376e-20 -1.93428)
(19.8266 2.09357e-20 -2.0636)
(18.2026 1.89294e-20 -2.10794)
(16.7882 1.77884e-20 -2.10113)
(15.5522 -1.61652e-20 -2.06448)
(14.4662 1.50465e-20 -2.01096)
(13.5058 -2.7426e-20 -1.9484)
(12.651 0 -1.88152)
(11.8854 -2.32307e-20 -1.81321)
(11.1957 0 -1.74521)
(10.571 0 -1.67857)
(10.0024 0 -1.6139)
(9.48251 1.63274e-20 -1.55154)
(9.00513 -3.41609e-23 -1.49166)
(8.5651 -2.59781e-23 -1.43431)
(8.15808 1.23872e-20 -1.37947)
(7.78035 0 -1.32708)
(7.42875 0 -1.27705)
(7.10055 0 -1.22928)
(6.79341 3.33674e-20 -1.18366)
(6.50527 -5.94657e-24 -1.14007)
(6.23435 0 -1.09841)
(5.97907 0 -1.05857)
(5.73807 0 -1.02044)
(5.5101 0 -0.983919)
(5.29409 1.66241e-20 -0.948918)
(5.08907 0 -0.915348)
(4.89415 -1.25477e-20 -0.883124)
(4.70857 0 -0.852167)
(4.53162 0 -0.822404)
(4.36266 -7.53845e-21 -0.793766)
(4.20112 0 -0.766187)
(4.04646 0 -0.739608)
(3.89821 3.60172e-21 -0.71397)
(3.75594 -4.98741e-21 -0.689221)
(3.61922 0 -0.665308)
(3.48771 -1.08844e-21 -0.642189)
(3.36105 0 -0.619811)
(3.23894 -4.37354e-21 -0.598142)
(3.12106 1.88952e-23 -0.577132)
(3.00717 0 -0.556755)
(2.89699 0 -0.536961)
(2.79032 7.12464e-21 -0.517734)
(2.68689 1.61629e-20 -0.499022)
(2.58656 -3.57946e-20 -0.480818)
(2.48905 0 -0.463066)
(2.39429 -2.07907e-20 -0.44577)
(2.30197 -2.20278e-20 -0.428869)
(2.2121 -2.30693e-20 -0.412379)
(2.12432 -2.39988e-20 -0.396228)
(2.03874 0 -0.380449)
(1.95492 0 -0.364957)
(1.87309 -5.21248e-20 -0.349806)
(1.79272 -1.06176e-19 -0.334891)
(1.71416 -5.38609e-20 -0.32029)
(1.63676 3.05818e-23 -0.305876)
(1.56106 5.48557e-20 -0.291759)
(1.48622 5.51194e-20 -0.277776)
(1.41302 0 -0.264085)
(1.34035 0 -0.250472)
(1.26936 1.10224e-19 -0.237158)
(1.19853 2.19452e-19 -0.223859)
(1.12953 0 -0.210888)
(1.06025 1.08157e-19 -0.197857)
(0.993119 1.07114e-19 -0.185212)
(0.925131 1.05936e-19 -0.172407)
(0.859894 2.09131e-19 -0.1601)
(0.79297 0 -0.147485)
(0.72985 0 -0.135561)
(0.663749 1.99445e-19 -0.123098)
(0.603241 -3.91502e-19 -0.111656)
(0.537661 -1.91838e-19 -0.0992938)
(0.480618 0 -0.0885023)
(0.415156 0 -0.0761663)
(0.362812 0 -0.0662695)
(0.297055 0 -0.0538742)
(0.250745 0 -0.0451494)
(0.184831 0 -0.0326917)
(0.144894 -3.21527e-19 -0.0252521)
(0.0812005 4.10713e-23 -0.0131226)
(0.0444157 3.02023e-19 -0.00642571)
(-0.00955187 0 0.00400071)
(-0.0522211 2.82099e-19 0.0117181)
(-0.0854253 2.72642e-19 0.0181607)
(-0.141581 0 0.0285602)
(-0.147531 -2.5301e-19 0.0296454)
(-0.221134 -4.84325e-19 0.0436392)
(-0.199448 0 0.0391315)
(-0.286766 0 0.0562126)
(-0.248517 0 0.0480269)
(-0.331929 -4.07902e-19 0.0647357)
(-0.292466 0 0.0561492)
(-0.363614 0 0.0713353)
(-0.361958 3.56406e-19 0.0686314)
(-0.346799 -3.39066e-19 0.0685756)
(-0.479656 0 0.0915528)
(-0.300645 0 0.0564695)
(-0.484717 0 0.096568)
(-0.448877 0 0.084943)
(-0.456908 0 0.0886226)
(-0.50604 -1.85752e-23 0.0965403)
(-0.44318 0 0.088987)
(-0.741514 4.35063e-19 0.14606)
(-0.603349 -8.49877e-19 0.112163)
(-0.638379 0 0.133567)
(-1.19495 1.17434e-22 0.229642)
(-0.585656 0 0.108026)
(-1.0974 -1.84151e-23 0.220634)
(-1.09064 0 0.205703)
(-0.92526 -6.38452e-19 0.169168)
(-0.619418 0 0.116177)
(-0.854625 5.73267e-19 0.162327)
(-0.411217 0 0.0710924)
(32.5248 0 2.10637)
(33.2822 0 2.23124)
(33.6285 0 1.75534)
(33.2636 0 0.960382)
(32.2399 1.16139e-20 0.117657)
(30.7648 -9.01701e-22 -0.632296)
(29.0438 0 -1.23402)
(27.236 2.06117e-20 -1.67835)
(25.451 0 -1.98245)
(23.755 -3.52334e-20 -2.17459)
(22.1805 0 -2.2834)
(20.7376 1.52611e-20 -2.33289)
(19.4237 0 -2.3414)
(18.2302 2.58945e-20 -2.32217)
(17.1457 -1.17931e-20 -2.28453)
(16.1588 2.17886e-20 -2.23494)
(15.2586 -1.99439e-20 -2.17783)
(14.435 -1.83041e-20 -2.11628)
(13.6793 0 -2.05239)
(12.9839 -1.54175e-20 -1.98762)
(12.3419 -1.40834e-20 -1.92296)
(11.7476 -2.56549e-20 -1.8591)
(11.1959 -1.16969e-20 -1.79648)
(10.6825 0 -1.73542)
(10.2034 0 -1.67609)
(9.75527 0 -1.6186)
(9.33523 -1.57483e-20 -1.563)
(8.94066 -1.41699e-20 -1.50931)
(8.56927 0 -1.4575)
(8.21902 0 -1.40754)
(7.88813 1.009e-20 -1.35938)
(7.57498 0 -1.31297)
(7.27814 1.40361e-24 -1.26822)
(6.99632 -1.3706e-20 -1.22509)
(6.72835 1.1861e-20 -1.1835)
(6.4732 0 -1.14338)
(6.22991 0 -1.10467)
(5.99763 7.11495e-21 -1.06731)
(5.77557 0 -1.03121)
(5.56303 0 -0.996336)
(5.35934 -3.39881e-21 -0.962612)
(5.16391 4.70615e-21 -0.929989)
(4.97618 0 -0.898405)
(4.79567 1.02693e-21 -0.867815)
(4.62187 0 -0.838159)
(4.45439 2.05358e-21 -0.809401)
(4.29279 3.39391e-21 -0.781481)
(4.13674 0 -0.75437)
(3.98583 5.70228e-21 -0.728007)
(3.83982 -6.71894e-21 -0.702375)
(3.6983 -3.04527e-20 -0.677408)
(3.56111 1.68614e-20 -0.6531)
(3.42784 -1.82832e-20 -0.629381)
(3.2984 2.54473e-23 -0.606257)
(3.17237 0 -0.583648)
(3.04975 2.17438e-20 -0.561578)
(2.93006 2.26176e-20 -0.539954)
(2.81342 -2.3352e-20 -0.51882)
(2.69926 2.39957e-20 -0.498065)
(2.58786 4.9109e-20 -0.47776)
(2.47852 4.99945e-20 -0.457767)
(2.37169 -5.06707e-20 -0.438192)
(2.26651 5.1243e-20 -0.418863)
(2.16368 0 -0.39993)
(2.06207 0 -0.381175)
(1.96274 5.19626e-20 -0.362808)
(1.86418 0 -0.344545)
(1.76792 0 -0.326679)
(1.67193 -1.03244e-19 -0.308835)
(1.57843 0 -0.291424)
(1.48459 -1.0176e-19 -0.273936)
(1.39367 -2.01495e-19 -0.256957)
(1.30162 0 -0.23977)
(1.21328 -9.83246e-20 -0.223234)
(1.12269 0 -0.2063)
(1.03718 0 -0.190264)
(0.947717 -1.87394e-19 -0.173532)
(0.865674 1.83963e-19 -0.158123)
(0.776904 3.94112e-23 -0.141527)
(0.699424 0 -0.12696)
(0.6108 0 -0.110402)
(0.539492 0 -0.0970009)
(0.450442 -1.64081e-19 -0.080362)
(0.387088 1.59805e-19 -0.0685043)
(0.297726 0 -0.0517525)
(0.242891 6.03597e-19 -0.0416376)
(0.156168 2.92604e-19 -0.0252122)
(0.105897 -5.66806e-19 -0.0162339)
(0.0314015 -2.74173e-19 -0.00182847)
(-0.0259496 -5.29249e-19 0.00825794)
(-0.0735424 0 0.017566)
(-0.148389 0 0.0311207)
(-0.160013 2.37238e-19 0.0333593)
(-0.257919 4.54062e-19 0.051727)
(-0.232537 -4.37923e-19 0.0463945)
(-0.34904 0 0.0691063)
(-0.300277 0 0.0584102)
(-0.41296 3.8218e-19 0.081094)
(-0.361707 3.6749e-19 0.0696088)
(-0.459156 0 0.0908095)
(-0.452833 -3.33783e-19 0.0855785)
(-0.444197 3.17498e-19 0.0888525)
(-0.604984 0 0.114969)
(-0.387577 0 0.0727367)
(-0.628145 0 0.126443)
(-0.571279 0 0.107528)
(-0.593458 0 0.115572)
(-0.652937 -4.63774e-19 0.124333)
(-0.587226 0 0.119455)
(-0.950955 0 0.188503)
(-0.776458 0 0.14331)
(-0.843626 7.37125e-19 0.180467)
(-1.50748 6.9286e-19 0.288862)
(-0.749703 0 0.137155)
(-1.41456 -6.29096e-19 0.287928)
(-1.34825 0 0.25164)
(-1.16188 -5.966e-19 0.208641)
(-0.778921 0 0.145088)
(-1.07583 -5.35739e-19 0.20211)
(-0.459688 0 0.0740924)
(32.5965 -4.97609e-21 1.49267)
(33.1795 -6.17841e-21 1.63172)
(33.7058 7.33788e-21 1.44012)
(33.931 8.27014e-21 0.978492)
(33.738 0 0.385888)
(33.1385 -9.91476e-21 -0.230674)
(32.2062 0 -0.805363)
(31.0318 1.74159e-20 -1.30114)
(29.7042 1.66511e-20 -1.70257)
(28.2997 3.21152e-20 -2.01009)
(26.8778 -1.47749e-20 -2.2334)
(25.4807 1.37861e-20 -2.38602)
(24.1357 0 -2.48188)
(22.8583 0 -2.53363)
(21.6559 1.11183e-20 -2.55189)
(20.5301 -1.14552e-22 -2.54521)
(19.4794 1.76039e-22 -2.52025)
(18.5003 1.35867e-22 -2.48208)
(17.5883 0 -2.43454)
(16.7383 0 -2.38053)
(15.9457 0 -2.32219)
(15.2055 2.4106e-20 -2.26114)
(14.5135 1.09642e-20 -2.19857)
(13.8655 0 -2.13538)
(13.2577 0 -2.07222)
(12.6868 1.63958e-20 -2.00959)
(12.1497 0 -1.94782)
(11.6436 0 -1.88718)
(11.1659 0 -1.82785)
(10.7144 0 -1.76993)
(10.2871 -6.36113e-24 -1.71351)
(9.88196 0 -1.65862)
(9.49742 -1.5809e-24 -1.60529)
(9.13193 1.29199e-20 -1.5535)
(8.78408 2.67187e-24 -1.50325)
(8.4526 0 -1.45451)
(8.13634 0 -1.40724)
(7.83423 0 -1.3614)
(7.54531 0 -1.31694)
(7.26869 0 -1.27383)
(7.00354 0 -1.23201)
(6.74913 0 -1.19143)
(6.50473 -2.66251e-21 -1.15204)
(6.26973 -1.00398e-21 -1.11379)
(6.0435 0 -1.07664)
(5.82553 1.90003e-21 -1.04054)
(5.61525 0 -1.00542)
(5.41224 0 -0.971271)
(5.21598 -1.07263e-20 -0.938015)
(5.02615 0 -0.905639)
(4.84222 1.43254e-20 -0.874065)
(4.66399 0 -0.843293)
(4.49093 3.44053e-20 -0.813236)
(4.32291 2.46669e-23 -0.78391)
(4.15939 0 -0.755214)
(4.00037 0 -0.727184)
(3.84522 0 -0.699703)
(3.6941 4.39378e-20 -0.672832)
(3.54627 -4.51465e-20 -0.646428)
(3.40208 -4.61434e-20 -0.620586)
(3.26062 -4.6976e-20 -0.595133)
(3.12249 9.53138e-20 -0.570202)
(2.98655 4.81485e-20 -0.545579)
(2.85372 0 -0.521453)
(2.72251 0 -0.497549)
(2.59431 -2.43964e-23 -0.474133)
(2.46714 0 -0.450847)
(2.34301 0 -0.42806)
(2.21925 -9.69819e-20 -0.405302)
(2.09874 0 -0.383086)
(1.97784 0 -0.360773)
(1.8607 1.89293e-19 -0.339097)
(1.74214 -9.35406e-20 -0.317163)
(1.62833 0 -0.296037)
(1.51168 0 -0.27442)
(1.40148 0 -0.253912)
(1.28627 1.75992e-19 -0.23255)
(1.18044 0 -0.212812)
(1.06611 3.38414e-19 -0.191621)
(0.965978 -1.65593e-19 -0.172919)
(0.851808 0 -0.151779)
(0.759378 0 -0.134515)
(0.644618 1.53971e-19 -0.113268)
(0.562142 -2.59524e-23 -0.0979328)
(0.446852 1.4569e-19 -0.0765072)
(0.375181 -2.83063e-19 -0.0634107)
(0.262833 2.74345e-19 -0.0422628)
(0.197387 2.65737e-19 -0.0307838)
(0.0995846 2.57063e-19 -0.0118815)
(0.0261646 3.06758e-23 0.000653759)
(-0.0386019 0 0.0134346)
(-0.133506 -2.30281e-19 0.0301908)
(-0.153209 0 0.0341047)
(-0.277045 0 0.0569736)
(-0.249641 4.10252e-19 0.0511608)
(-0.397448 0 0.0798079)
(-0.338724 0 0.0666259)
(-0.483624 0 0.095872)
(-0.420256 -3.44085e-19 0.0812847)
(-0.547316 0 0.109311)
(-0.534207 -3.12402e-19 0.10073)
(-0.537886 0 0.109004)
(-0.721068 0 0.136496)
(-0.473652 0 0.0890946)
(-0.769077 0 0.156486)
(-0.688719 0 0.129)
(-0.730621 -4.56783e-19 0.143015)
(-0.798056 -4.33736e-19 0.151896)
(-0.735765 4.10524e-19 0.151666)
(-1.15476 0 0.230372)
(-0.948388 0 0.174006)
(-1.0528 -1.37832e-18 0.230194)
(-1.80059 0 0.343938)
(-0.911391 6.48127e-19 0.165669)
(-1.72414 0 0.355174)
(-1.57329 5.82254e-19 0.29033)
(-1.38438 5.57514e-19 0.244119)
(-0.920746 0 0.170267)
(-1.27825 -5.00467e-19 0.236965)
(-0.465831 0 0.0666646)
(32.6506 4.68613e-21 1.04101)
(33.0613 1.13888e-20 1.12747)
(33.5071 -6.91189e-21 1.0439)
(33.872 -7.8306e-22 0.779983)
(34.0449 7.48762e-21 0.389144)
(33.97 0 -0.0666698)
(33.6392 0 -0.538343)
(33.0727 -1.63996e-20 -0.990136)
(32.3059 -3.04549e-20 -1.39841)
(31.3813 -7.09225e-22 -1.75012)
(30.3424 1.39113e-20 -2.04077)
(29.2299 -1.29802e-20 -2.2717)
(28.0788 1.1736e-20 -2.44776)
(26.9173 0 -2.57553)
(25.767 0 -2.66219)
(24.6433 -9.52521e-21 -2.71477)
(23.5569 3.48469e-20 -2.73964)
(22.5142 3.20638e-20 -2.74239)
(21.5186 0 -2.72774)
(20.5715 0 -2.69958)
(19.6727 0 -2.66106)
(18.821 -6.72612e-23 -2.61475)
(18.0147 -2.05957e-20 -2.56265)
(17.2516 9.3508e-21 -2.5064)
(16.5294 1.69859e-20 -2.44725)
(15.8457 -3.0827e-20 -2.38621)
(15.1981 1.39026e-20 -2.32407)
(14.5843 1.25209e-20 -2.26143)
(14.0021 1.12371e-20 -2.19879)
(13.4495 0 -2.1365)
(12.9244 -8.95003e-21 -2.07486)
(12.4251 7.91176e-21 -2.01408)
(11.9497 -6.96554e-21 -1.95431)
(11.4968 -1.21575e-20 -1.89569)
(11.0648 -2.10534e-20 -1.83827)
(10.6524 0 -1.78214)
(10.2584 0 -1.72731)
(9.8814 -6.33181e-21 -1.67381)
(9.52047 0 -1.62162)
(9.17458 4.04746e-21 -1.57076)
(8.84275 3.03897e-21 -1.52119)
(8.52414 0 -1.47291)
(8.2179 5.02684e-21 -1.42586)
(7.92331 9.44808e-22 -1.38003)
(7.63962 0 -1.33538)
(7.36622 -1.78786e-21 -1.29187)
(7.10241 -2.96135e-21 -1.24945)
(6.84772 0 -1.2081)
(6.60148 1.00621e-20 -1.16775)
(6.36332 -5.91104e-21 -1.12841)
(6.1326 -1.34215e-20 -1.08997)
(5.90905 0 -1.05245)
(5.69202 -2.49543e-23 -1.01576)
(5.48138 3.45955e-20 -0.979919)
(5.27642 0 -0.944808)
(5.07717 0 -0.91048)
(4.88283 -1.99585e-20 -0.876793)
(4.69361 -2.06455e-20 -0.843828)
(4.50856 4.24065e-20 -0.811414)
(4.32815 4.33759e-20 -0.77967)
(4.15123 4.41547e-20 -0.748385)
(3.97854 -4.4776e-20 -0.717728)
(3.80864 -9.04681e-20 -0.687434)
(3.64271 0 -0.65774)
(3.47887 0 -0.628309)
(3.31884 -9.17513e-20 -0.599467)
(3.16015 0 -0.570779)
(3.0053 0 -0.542694)
(2.85097 9.1087e-20 -0.514639)
(2.70072 0 -0.48724)
(2.55002 -8.97098e-20 -0.459722)
(2.40401 -3.2465e-23 -0.43297)
(2.25628 8.78168e-20 -0.405906)
(2.11443 0 -0.379811)
(1.96908 0 -0.353127)
(1.83168 0 -0.327765)
(1.68811 1.65059e-19 -0.301385)
(1.55602 0 -0.276934)
(1.41351 -1.58725e-19 -0.250761)
(1.28829 3.10633e-19 -0.227536)
(1.14594 0 -0.201423)
(1.03 0 -0.17991)
(0.886846 0 -0.153661)
(0.782921 -2.56723e-23 -0.134469)
(0.63895 -1.3658e-19 -0.107959)
(0.548248 -2.65248e-19 -0.0915397)
(0.407389 -2.57127e-19 -0.0652054)
(0.324827 2.48959e-19 -0.0509797)
(0.200613 0 -0.0270156)
(0.109535 2.32378e-19 -0.0119199)
(0.0244127 0 0.00500103)
(-0.0920662 2.15696e-19 0.024978)
(-0.12268 0 0.0311911)
(-0.274193 0 0.0586693)
(-0.246838 0 0.0527996)
(-0.428225 -3.65944e-19 0.0876943)
(-0.360378 -3.52484e-19 0.0720786)
(-0.540765 0 0.108551)
(-0.464909 3.21983e-19 0.0905981)
(-0.625377 -3.0507e-19 0.1264)
(-0.603173 2.92307e-19 0.113622)
(-0.625584 -2.77997e-19 0.12868)
(-0.825021 0 0.155566)
(-0.55751 0 0.105322)
(-0.903979 0 0.186048)
(-0.799716 0 0.149015)
(-0.866373 4.27132e-19 0.170651)
(-0.939163 1.35819e-23 0.178752)
(-0.886102 -7.67617e-19 0.185163)
(-1.34985 0 0.271064)
(-1.11748 0 0.203965)
(-1.2612 6.44143e-19 0.281854)
(-2.07056 0 0.393848)
(-1.06899 -6.05677e-19 0.193277)
(-2.01978 0 0.420942)
(-1.76116 -1.08794e-18 0.32013)
(-1.59087 0 0.274981)
(-1.0372 0 0.190016)
(-1.45662 4.67515e-19 0.265045)
(-0.422184 0 0.0465646)
(32.6745 0 0.688171)
(32.9757 -5.23953e-21 0.730888)
(33.3124 0 0.680804)
(33.6426 -6.5923e-21 0.517169)
(33.9031 -1.34389e-20 0.254824)
(34.0431 0 -0.0745051)
(34.0341 6.70362e-21 -0.439403)
(33.8647 0 -0.813775)
(33.5354 9.01453e-22 -1.17742)
(33.0557 -2.5814e-20 -1.51587)
(32.4417 0 -1.81979)
(31.7137 0 -2.08429)
(30.8939 -1.10383e-20 -2.30778)
(30.0046 0 -2.49099)
(29.0671 0 -2.63621)
(28.1001 0 -2.74671)
(27.1199 -1.62781e-20 -2.82627)
(26.1399 -1.49936e-20 -2.87886)
(25.1707 -1.36012e-20 -2.90836)
(24.2202 0 -2.9184)
(23.2943 0 -2.91227)
(22.397 -1.05893e-20 -2.89289)
(21.5309 9.6607e-21 -2.86276)
(20.6973 -8.79469e-21 -2.82403)
(19.8969 -1.59756e-20 -2.77852)
(19.1296 2.88772e-20 -2.72773)
(18.3949 -5.41856e-23 -2.67291)
(17.6918 -1.17759e-20 -2.6151)
(17.0194 -1.05683e-20 -2.55516)
(16.3764 0 -2.49377)
(15.7616 0 -2.4315)
(15.1736 -7.44047e-21 -2.3688)
(14.6111 0 -2.30606)
(14.0728 1.14328e-20 -2.24357)
(13.5575 9.89775e-21 -2.18156)
(13.0639 -8.47279e-21 -2.12022)
(12.5907 0 -2.0597)
(12.137 5.95366e-21 -2.00011)
(11.7016 4.83802e-21 -1.94152)
(11.2835 3.74474e-24 -1.88402)
(10.8817 -5.71914e-21 -1.82762)
(10.4953 0 -1.77236)
(10.1234 -2.3701e-21 -1.71825)
(9.76525 0 -1.6653)
(9.42002 0 -1.61348)
(9.08704 0 -1.56282)
(8.76553 1.38262e-23 -1.51325)
(8.45494 0 -1.46479)
(8.15452 -4.72143e-21 -1.41737)
(7.86386 1.10968e-20 -1.37101)
(7.58219 1.26124e-20 -1.32562)
(7.30923 0 -1.28123)
(7.0442 -1.51677e-20 -1.23773)
(6.78695 -3.24586e-20 -1.19517)
(6.53665 0 -1.15341)
(6.29333 0 -1.11253)
(6.05603 1.8748e-20 -1.07236)
(5.82502 1.93549e-20 -1.03301)
(5.59915 -1.99058e-20 -0.994272)
(5.37899 -4.06698e-20 -0.956306)
(5.16312 0 -0.918855)
(4.95249 0 -0.88213)
(4.74531 2.85736e-23 -0.845814)
(4.54303 -4.27454e-20 -0.810197)
(4.34333 0 -0.774874)
(4.14835 4.30515e-20 -0.74024)
(3.95505 0 -0.705774)
(3.76647 0 -0.672016)
(3.57856 0 -0.638283)
(3.39566 0 -0.605319)
(3.21222 3.44489e-23 -0.572206)
(3.03452 -3.21758e-23 -0.539991)
(2.85473 -8.23206e-20 -0.5074)
(2.68207 0 -0.475942)
(2.50517 -8.00389e-20 -0.443788)
(2.33785 0 -0.413173)
(2.16307 -1.54776e-19 -0.381368)
(2.00203 1.51816e-19 -0.351797)
(1.82847 -1.4873e-19 -0.320227)
(1.67552 -1.45578e-19 -0.292066)
(1.50208 0 -0.260563)
(1.35999 1.38788e-19 -0.234379)
(1.18549 0 -0.202703)
(1.05753 -1.31677e-19 -0.179241)
(0.881829 -1.27917e-19 -0.147199)
(0.769627 2.48485e-19 -0.127078)
(0.597054 0 -0.0950558)
(0.495153 -4.66314e-19 -0.0777972)
(0.341078 0 -0.0481528)
(0.230506 2.1754e-19 -0.0303474)
(0.121416 0 -0.00859097)
(-0.0183392 2.01885e-19 0.0146297)
(-0.0631504 0 0.0239018)
(-0.244253 3.72744e-19 0.0560539)
(-0.219453 -3.59414e-19 0.0506574)
(-0.436899 3.42451e-19 0.0920904)
(-0.361089 3.2982e-19 0.0741792)
(-0.580598 0 0.118566)
(-0.491831 -6.02419e-19 0.096983)
(-0.690094 5.7072e-19 0.14158)
(-0.656281 0 0.123625)
(-0.704519 2.59993e-19 0.147459)
(-0.913462 0 0.171612)
(-0.637245 0 0.121108)
(-1.02867 -4.41301e-19 0.214365)
(-0.902589 0 0.16739)
(-0.997928 0 0.19806)
(-1.07351 3.79063e-19 0.204532)
(-1.03487 7.17482e-19 0.219355)
(-1.5328 3.32351e-19 0.309942)
(-1.28132 0 0.232859)
(-1.46329 0 0.334361)
(-2.31369 0 0.437752)
(-1.21966 0 0.219605)
(-2.2945 5.13195e-19 0.4836)
(-1.90737 5.08107e-19 0.340355)
(-1.77856 0 0.300798)
(-1.11915 0 0.202517)
(-1.60534 0 0.284935)
(-0.320732 0 0.0117145)
(32.673 4.19e-21 0.40008)
(32.9048 0 0.415528)
(33.1604 4.90751e-21 0.374366)
(33.4249 0 0.260573)
(33.6676 6.00994e-21 0.0747013)
(33.8569 0 -0.168545)
(33.9699 -6.30055e-21 -0.450029)
(33.9916 1.15515e-20 -0.751814)
(33.9128 2.35851e-20 -1.05874)
(33.7288 7.29074e-22 -1.35882)
(33.4392 0 -1.64305)
(33.0472 0 -1.90521)
(32.5597 0 -2.14145)
(31.9857 0 -2.34969)
(31.3362 0 -2.52918)
(30.6232 0 -2.68019)
(29.8594 1.46663e-20 -2.80373)
(29.0568 -1.35879e-20 -2.90141)
(28.2271 1.27797e-20 -2.97519)
(27.3808 0 -3.0273)
(26.5271 0 -3.06007)
(25.6738 9.74951e-21 -3.07583)
(24.8274 8.91801e-21 -3.07683)
(23.993 8.13703e-21 -3.06517)
(23.1747 0 -3.04278)
(22.3755 -1.35334e-20 -3.01142)
(21.5976 -2.43944e-20 -2.97261)
(20.8425 1.09659e-20 -2.92771)
(20.1109 0 -2.87788)
(19.4035 0 -2.82414)
(18.7204 0 -2.76733)
(18.0612 6.95574e-21 -2.70821)
(17.4258 0 -2.64737)
(16.8134 0 -2.58535)
(16.2236 9.27256e-21 -2.52257)
(15.6554 7.95939e-21 -2.4594)
(15.1083 0 -2.39614)
(14.5813 5.58878e-21 -2.33304)
(14.0736 -9.08742e-21 -2.27029)
(13.5844 -3.57798e-21 -2.20808)
(13.1128 2.68817e-21 -2.14651)
(12.6581 0 -2.08571)
(12.2195 0 -2.02574)
(11.7961 0 -1.96669)
(11.3873 -3.89121e-22 -1.90857)
(10.9923 0 -1.85144)
(10.6104 2.60079e-21 -1.79529)
(10.2409 3.54292e-21 -1.74017)
(9.88322 0 -1.68602)
(9.53679 -5.20332e-21 -1.6329)
(9.20081 0 -1.58073)
(8.875 0 -1.52956)
(8.55846 -1.4194e-20 -1.47929)
(8.2511 2.17921e-23 -1.42999)
(7.9519 1.60935e-20 -1.38151)
(7.66099 0 -1.33397)
(7.37719 0 -1.28716)
(7.10089 -1.81644e-20 -1.24125)
(6.8307 0 -1.19598)
(6.56734 3.81633e-20 -1.15156)
(6.30911 0 -1.10768)
(6.05717 0 -1.06461)
(5.80935 7.95839e-20 -1.02198)
(5.56744 8.01731e-20 -0.980133)
(5.32863 4.02555e-20 -0.938593)
(5.09551 0 -0.897835)
(4.86439 0 -0.857244)
(4.63898 4.02121e-20 -0.817462)
(4.41435 8.0047e-20 -0.777682)
(4.19577 0 -0.738786)
(3.97651 7.88859e-20 -0.699695)
(3.76414 -7.80885e-20 -0.661633)
(3.54924 7.71701e-20 -0.62312)
(3.34284 -7.61181e-20 -0.585902)
(3.13135 7.50181e-20 -0.547869)
(2.9312 0 -0.511591)