/*--------------------------------*- C++ -*----------------------------------*\
| =========                 |                                                 |
| \\      /  F ield         | OpenFOAM: The Open Source CFD Toolbox           |
|  \\    /   O peration     | Version:  2412                                  |
|   \\  /    A nd           | Website:  www.openfoam.com                      |
|    \\/     M anipulation  |                                                 |
\*---------------------------------------------------------------------------*/
FoamFile
{
    version     2.0;
    format      ascii;
    arch        "LSB;label=32;scalar=64";
    class       surfaceScalarField;
    location    "0.17";
    object      phi;
}
// * * * * * * * * * * * * * * * * * * * * * * * * * * * * * * * * * * * * * //

dimensions      [0 3 -1 0 0 0 0];

oriented        oriented;

internalField   nonuniform List<scalar> 
24930
(
0.0194788
0.0227255
-0.0422043
0.00860588
0.0108729
0.00426909
0.00433679
0.00256329
0.0017058
0.00177946
0.000783824
0.00131777
0.000461688
0.00100374
0.000314036
0.00077399
0.000229747
0.00059921
0.00017478
0.000462563
0.000136647
0.000353521
0.000109042
0.000264421
8.90997e-05
0.000190991
7.34305e-05
0.00012984
6.11511e-05
7.85045e-05
5.13352e-05
3.51691e-05
4.33355e-05
-1.22956e-06
3.63986e-05
-3.28665e-05
3.1637e-05
-5.96852e-05
2.68186e-05
-8.25607e-05
2.28755e-05
-0.000101278
1.87176e-05
-0.000117718
1.64397e-05
-0.000131171
1.34532e-05
-0.000142542
1.1371e-05
-0.000151656
9.11341e-06
-0.000159099
7.44357e-06
-0.000164773
5.67339e-06
-0.000169101
4.32796e-06
-0.000172004
2.9034e-06
-0.000173876
1.8718e-06
-0.000174611
7.35186e-07
-0.000174579
-3.14259e-08
-0.00017361
-9.69044e-07
-0.000172049
-1.56108e-06
-0.000169584
-2.46513e-06
-0.000166158
-3.42576e-06
-0.000161084
-5.07466e-06
-0.000153911
-7.17232e-06
-0.000144046
-9.86519e-06
-0.000131305
-1.27409e-05
-0.000115973
-1.53321e-05
-9.87495e-05
-1.72237e-05
-8.09461e-05
-1.78035e-05
-6.44584e-05
-1.64877e-05
-5.16541e-05
-1.28043e-05
-4.69208e-05
-4.73327e-06
-5.52535e-05
8.33275e-06
-8.30692e-05
2.78156e-05
-0.000137379
5.43094e-05
-0.000224663
8.72846e-05
-0.000347534
0.000122871
-0.000497223
0.000149689
-0.000647347
0.000150125
-0.00074213
9.47824e-05
-0.000706114
-3.60155e-05
-0.000521059
-0.000185056
-0.000242915
-0.000278144
1.42915e-05
-0.000257206
0.000174299
-0.000160008
0.00017777
-3.4705e-06
-2.99743e-05
0.000207744
-0.000448526
0.000418551
-0.00100139
0.000552862
-0.00150439
0.000502999
-0.00175031
0.000245925
-0.00161109
-0.000139222
-0.00115912
-0.000451965
-0.000636103
-0.000523022
-0.000221643
-0.00041446
3.81348e-05
-0.000259778
0.000175685
-0.000137551
0.000224876
-4.91901e-05
0.000211846
1.30293e-05
0.000158405
5.3441e-05
9.14164e-05
6.69888e-05
3.63207e-05
5.50957e-05
8.02891e-06
2.82918e-05
5.38279e-06
2.6461e-06
1.42771e-05
-8.8943e-06
2.21441e-05
-7.86694e-06
2.14461e-05
6.97922e-07
1.11872e-05
1.02589e-05
-4.7633e-06
1.59505e-05
-2.15055e-05
1.67423e-05
-3.35845e-05
1.20792e-05
-3.74122e-05
3.82776e-06
-3.10109e-05
-6.40152e-06
-1.36454e-05
-1.73655e-05
1.26086e-05
-2.6254e-05
4.55951e-05
-3.29864e-05
8.40737e-05
-3.84786e-05
0.000126016
-4.19419e-05
0.000168703
-4.26876e-05
0.000211349
-4.26453e-05
0.000252365
-4.10165e-05
0.00029313
-4.07646e-05
0.000333608
-4.04782e-05
0.000375972
-4.23643e-05
0.00041936
-4.33876e-05
0.000465455
-4.60948e-05
0.000512804
-4.73496e-05
0.000564239
-5.14351e-05
0.000617998
-5.37583e-05
0.000678233
-6.02357e-05
0.000741507
-6.32739e-05
0.000813638
-7.21313e-05
0.000888908
-7.52695e-05
0.000975474
-8.65658e-05
0.00106586
-9.03908e-05
0.00116925
-0.000103384
0.00128
-0.00011075
0.00140207
-0.000122069
0.0015424
-0.000140331
0.00168457
-0.000142175
0.00187871
-0.00019414
0.00203877
-0.000160055
0.00236781
-0.000329047
0.00256425
-0.000196431
0.00329408
-0.000729838
-0.000800856
0.039876
0.0314158
-0.0485663
0.028261
0.0224879
0.0188801
0.0137177
0.0127966
0.00778937
0.009098
0.00448238
0.00678873
0.00277096
0.00523569
0.00186708
0.00411899
0.00134644
0.00327767
0.0010161
0.00262259
0.000791726
0.00209959
0.000632047
0.00167483
0.000513863
0.00132433
0.000423929
0.00103173
0.000353747
0.000785234
0.000297833
0.000576103
0.000252466
0.000397861
0.000214641
0.000245694
0.000183804
0.00011574
0.000156772
8.54139e-06
0.000130074
-9.52947e-05
0.000122554
-0.00018167
0.000102815
-0.000254557
8.63399e-05
-0.000316547
7.33608e-05
-0.00036857
6.1137e-05
-0.000412267
5.11403e-05
-0.000448185
4.15913e-05
-0.000477536
3.36794e-05
-0.000500637
2.6004e-05
-0.000518514
1.97487e-05
-0.000531502
1.37233e-05
-0.000540445
8.91155e-06
-0.000545398
3.98445e-06
-0.000547211
2.51334e-07
-0.000545251
-4.4251e-06
-0.000539048
-9.6288e-06
-0.000526996
-1.71266e-05
-0.000507651
-2.65171e-05
-0.000479548
-3.79687e-05
-0.000442466
-4.98226e-05
-0.000397621
-6.01767e-05
-0.000347729
-6.71159e-05
-0.000297348
-6.81842e-05
-0.000253135
-6.07011e-05
-0.000223337
-4.2602e-05
-0.000221992
-6.07894e-06
-0.000264865
5.12059e-05
-0.00037218
0.000135131
-0.000565535
0.000247664
-0.000862528
0.000384278
-0.00126538
0.000525725
-0.00173879
0.000623098
-0.0021867
0.000598035
-0.0024289
0.000336976
-0.00225437
-0.000210537
-0.00162599
-0.000813445
-0.00073365
-0.00117048
7.2152e-05
-0.00106301
0.000532008
-0.000619864
0.000443921
8.46169e-05
-0.000343019
0.000994684
-0.00179138
0.00186691
-0.00356371
0.0023252
-0.00505678
0.00199606
-0.00565577
0.000844917
-0.00506212
-0.000732873
-0.00357507
-0.00193901
-0.00191166
-0.00218643
-0.000600364
-0.00172575
0.000223705
-0.00108385
0.000652646
-0.000566492
0.000794365
-0.000190909
0.000734408
7.29859e-05
0.000551968
0.000235881
0.000336585
0.000282372
0.000167314
0.000224366
8.63113e-05
0.000109295
8.37354e-05
5.22204e-06
0.000113986
-3.91447e-05
0.000137693
-3.15746e-05
0.000134434
3.95695e-06
0.000103831
4.08627e-05
5.96123e-05
6.01688e-05
1.98146e-05
5.65398e-05
6.95815e-08
3.18241e-05
5.48194e-06
-1.58463e-06
4.30957e-05
-4.40153e-05
0.000114822
-8.90919e-05
0.000216646
-0.000128078
0.000342459
-0.000158799
0.000484036
-0.000180056
0.000635174
-0.000193081
0.000788608
-0.000196121
0.000941418
-0.000195456
0.00109074
-0.000190343
0.00124027
-0.000190287
0.00139201
-0.000192217
0.00155117
-0.000201529
0.00171708
-0.000209298
0.00189288
-0.000221894
0.00207698
-0.000231448
0.00227528
-0.000249732
0.00248663
-0.000265116
0.00271914
-0.000292741
0.00296893
-0.000313064
0.00324608
-0.000349285
0.00354368
-0.000372868
0.00387464
-0.000417527
0.00423135
-0.000447098
0.00462621
-0.000498239
0.00505855
-0.000543096
0.00552937
-0.000592891
0.00606136
-0.000672321
0.00662602
-0.000706834
0.00731502
-0.000883141
0.00798559
-0.000830617
0.00910322
-0.00144668
0.00987795
-0.000971166
0.0123401
-0.00319199
-0.00341824
0.0504567
0.0329487
-0.0519897
0.0436287
0.0293159
0.0347819
0.0225645
0.0266014
0.0159698
0.020211
0.0108728
0.0155708
0.00741119
0.0122306
0.00520725
0.00976827
0.00380881
0.00789362
0.00289075
0.00642546
0.00225989
0.00524944
0.00180806
0.00429021
0.00147309
0.00349657
0.00121757
0.00283218
0.00101814
0.00227067
0.000859338
0.00179248
0.000730657
0.00138276
0.000624364
0.00103034
0.000536227
0.00072575
0.00046136
0.00046232
0.000393504
0.000236367
0.000348507
4.20992e-05
0.000297083
-0.000130993
0.000259432
-0.000279838
0.000222206
-0.000406742
0.000188041
-0.000515024
0.000159422
-0.000606365
0.000132932
-0.000683021
0.000110335
-0.000746173
8.91568e-05
-0.000797719
7.12944e-05
-0.00083831
5.43142e-05
-0.00086976
4.03616e-05
-0.000892337
2.65612e-05
-0.000907478
1.53928e-05
-0.000914768
2.8643e-06
-0.000913598
-1.07981e-05
-0.000901373
-2.93514e-05
-0.000875871
-5.20194e-05
-0.000835202
-7.86379e-05
-0.000779437
-0.000105588
-0.00071126
-0.000128354
-0.000635903
-0.000142473
-0.000561652
-0.000142435
-0.000500048
-0.000122305
-0.000465657
-7.69933e-05
-0.000481702
9.96624e-06
-0.00057555
0.000145054
-0.000781893
0.000341474
-0.00113502
0.000600788
-0.00165996
0.000909226
-0.00235161
0.00121737
-0.00313889
0.00141038
-0.00384881
0.00130796
-0.00418264
0.000670802
-0.00382217
-0.000571006
-0.00272224
-0.00191337
-0.00121205
-0.00268067
0.000125053
-0.00240011
0.000837702
-0.00133251
0.000562777
0.000359542
-0.000927264
0.00248472
-0.00351925
0.0044589
-0.0065048
0.00531075
-0.0088465
0.00433776
-0.00960793
0.00160635
-0.00842634
-0.00191446
-0.00585677
-0.00450858
-0.00305554
-0.00498767
-0.00085528
-0.00392601
0.000532148
-0.00247127
0.00124629
-0.00128063
0.00146544
-0.000410057
0.00134119
0.000197228
0.00101771
0.000559369
0.000651399
0.000648678
0.000373482
0.000502283
0.000246647
0.00023613
0.000249826
2.04225e-06
0.000304449
-9.37677e-05
0.000345675
-7.27999e-05
0.000341811
7.8209e-06
0.000295285
8.73882e-05
0.000230662
0.000124793
0.000178091
0.00010911
0.000162041
4.78748e-05
0.00019783
-3.7374e-05
0.000292429
-0.000138614
0.000445631
-0.000242294
0.000649416
-0.000331863
0.000892933
-0.000402316
0.00116192
-0.000449039
0.00144613
-0.000477293
0.00173376
-0.000483753
0.00202072
-0.000482417
0.00230335
-0.000472976
0.00258883
-0.000475766
0.00288142
-0.000484801
0.00318997
-0.000510079
0.00351365
-0.000532976
0.00385767
-0.000565921
0.00422006
-0.000593835
0.00461076
-0.00064043
0.0050288
-0.000683155
0.00548745
-0.000751399
0.00598159
-0.000807205
0.00652725
-0.000894944
0.00711516
-0.000960779
0.00776491
-0.00106728
0.00846804
-0.00115022
0.00924085
-0.00127105
0.0100899
-0.00139214
0.0110089
-0.00151191
0.0120471
-0.00171055
0.0131474
-0.00180714
0.0144725
-0.00220821
0.0157742
-0.00213227
0.0178355
-0.00350803
0.0192933
-0.00242893
0.0236227
-0.0075214
-0.00799233
0.0563626
0.0319422
-0.0553561
0.0540063
0.0316722
0.0483278
0.028243
0.0410355
0.0232621
0.0337493
0.018159
0.0274006
0.0137598
0.0222436
0.0103643
0.0181606
0.00789172
0.0149277
0.00612366
0.0123392
0.00484842
0.0102375
0.00390974
0.00850791
0.00320272
0.00706723
0.00265825
0.00585485
0.00223052
0.00482571
0.00188848
0.00394578
0.00161058
0.00318894
0.0013812
0.00253513
0.00119004
0.00196793
0.00102856
0.00147454
0.000886898
0.00104718
0.00077586
0.000674009
0.000670257
0.000350132
0.000583309
7.04863e-05
0.000501851
-0.000176395
0.000434922
-0.000389474
0.000372501
-0.000571502
0.00031496
-0.0007267
0.000265533
-0.000857458
0.000219915
-0.000966885
0.000180722
-0.00105677
0.000144196
-0.00112971
0.000113305
-0.00118687
8.37208e-05
-0.00123039
5.89102e-05
-0.00125955
3.20228e-05
-0.00127407
3.72783e-06
-0.00127206
-3.13682e-05
-0.00124988
-7.41956e-05
-0.00120558
-0.000122938
-0.00113987
-0.000171295
-0.00105721
-0.000211012
-0.000965727
-0.00023396
-0.000877714
-0.000230449
-0.000810262
-0.000189756
-0.000784435
-0.000102821
-0.000831812
5.73439e-05
-0.000992924
0.000306165
-0.00131488
0.000663425
-0.00184348
0.0011294
-0.00260756
0.00167331
-0.00358898
0.00219879
-0.00467452
0.00249592
-0.00561036
0.0022438
-0.00599219
0.00105263
-0.00541438
-0.00114882
-0.00383562
-0.00349213
-0.00171597
-0.00480032
0.00013315
-0.00424924
0.00104868
-0.00224804
0.000487618
0.000920602
-0.00182017
0.00479251
-0.00560973
0.00824846
-0.00974982
0.00945084
-0.0127741
0.00736204
-0.013514
0.00234627
-0.0116388
-0.00378969
-0.00797461
-0.00817276
-0.00405437
-0.00890792
-0.000973437
-0.00700694
0.000976676
-0.00442139
0.00197273
-0.00227668
0.0022589
-0.000696232
0.002057
0.000399132
0.00158322
0.00103315
0.00106466
0.00116724
0.00068365
0.000883296
0.000519374
0.000400406
0.000534017
-1.26008e-05
0.000616289
-0.00017604
0.000678297
-0.000134808
0.000679364
6.75315e-06
0.000626575
0.000140178
0.000556386
0.000194982
0.00051085
0.000154645
0.000523234
3.54914e-05
0.000613916
-0.000128056
0.00079146
-0.000316158
0.00105322
-0.000504057
0.00138624
-0.000664882
0.00177437
-0.000790444
0.00219746
-0.000872125
0.00264126
-0.000921102
0.00309023
-0.000932715
0.00353945
-0.000931641
0.0039857
-0.000919223
0.00443996
-0.000930031
0.00490957
-0.00095441
0.00540673
-0.00100724
0.00593102
-0.00105727
0.00648937
-0.00112427
0.00708039
-0.00118486
0.00771758
-0.00127762
0.00840157
-0.00136715
0.00914966
-0.00149948
0.00995779
-0.00161533
0.0108455
-0.00178267
0.0118054
-0.0019207
0.0128591
-0.0021209
0.0140043
-0.00229547
0.0152532
-0.00251991
0.0166303
-0.00276926
0.0181112
-0.00299285
0.0197823
-0.00338165
0.0215528
-0.00357757
0.0236471
-0.00430255
0.0257397
-0.00422481
0.0288957
-0.00666402
0.031168
-0.00470125
0.0374236
-0.013777
-0.0146127
0.0602416
0.0305817
-0.0588811
0.0603743
0.0315395
0.0579719
0.0306454
0.0532533
0.0279807
0.0471604
0.024252
0.0407096
0.0202106
0.0346166
0.0164573
0.0292298
0.0132786
0.0246312
0.0107223
0.0207633
0.00871634
0.0175197
0.00715333
0.0147915
0.00593089
0.0124841
0.00496563
0.0105204
0.00419425
0.00883898
0.00356991
0.0073913
0.00305826
0.0061388
0.0026337
0.00505095
0.0022779
0.00410276
0.00197675
0.00327388
0.00171577
0.00255058
0.00149916
0.00191643
0.0013044
0.00136177
0.00113797
0.000876287
0.000987335
0.000453277
0.000857932
8.68551e-05
0.000738924
-0.000235432
0.000637247
-0.000513388
0.000543489
-0.000750827
0.000457354
-0.000952907
0.000382802
-0.0011227
0.000313986
-0.00126434
0.000254954
-0.00137978
0.000199161
-0.0014723
0.000151428
-0.00154248
0.000102205
-0.00159053
5.17735e-05
-0.00161241
-9.49106e-06
-0.00160799
-7.86087e-05
-0.00157354
-0.000157389
-0.00151106
-0.000233781
-0.0014271
-0.000294967
-0.00133288
-0.000328184
-0.00124485
-0.000318474
-0.00118614
-0.000248468
-0.00118361
-0.000105352
-0.00127812
0.00015185
-0.00152207
0.000550122
-0.00197434
0.00111569
-0.00268941
0.00184447
-0.00369575
0.00267965
-0.0049567
0.00345974
-0.00631254
0.00385176
-0.00743094
0.0033622
-0.00782207
0.00144376
-0.00701614
-0.00195475
-0.00497918
-0.00552909
-0.00228233
-0.00749716
4.63012e-05
-0.00657787
0.00111081
-0.00331255
0.000165995
0.00186542
-0.00303933
0.00799784
-0.00803205
0.0132412
-0.0131978
0.0146166
-0.0166854
0.0108496
-0.0172177
0.00287858
-0.0145849
-0.00642251
-0.0098556
-0.012902
-0.0048631
-0.0139004
-0.00092416
-0.0109459
0.00158356
-0.0069291
0.00285614
-0.00354927
0.00319923
-0.00103932
0.0029088
0.000689561
0.00227954
0.00166241
0.00161123
0.00183555
0.00113493
0.0013596
0.00094138
0.000593954
0.00097397
-4.51905e-05
0.00108962
-0.000291688
0.00117934
-0.000224531
0.00119548
-9.38523e-06
0.00115099
0.000184666
0.00109438
0.000251591
0.00107958
0.000169449
0.00114762
-3.25481e-05
0.00132307
-0.000303506
0.00161503
-0.000608117
0.00201763
-0.000906657
0.00251229
-0.00115955
0.00307744
-0.00135559
0.00368685
-0.00148154
0.00432288
-0.00155713
0.00496641
-0.00157625
0.00561287
-0.0015781
0.00625984
-0.00156619
0.00692329
-0.00159349
0.00761354
-0.00164466
0.00834682
-0.00174051
0.00912264
-0.00183309
0.00995059
-0.00195222
0.0108294
-0.00206364
0.0117773
-0.00222559
0.0127958
-0.00238565
0.013908
-0.00261163
0.0151093
-0.00281666
0.0164254
-0.00309872
0.0178485
-0.00334388
0.019405
-0.00367732
0.0210974
-0.00398793
0.0229344
-0.00435685
0.0249612
-0.00479607
0.0271282
-0.00515993
0.0295743
-0.00582768
0.0321481
-0.0061514
0.0351827
-0.0073372
0.0381944
-0.00723647
0.0426238
-0.0110934
0.0458342
-0.0079117
0.0540115
-0.0219543
-0.0232638
0.0636484
0.0295294
-0.062596
0.0645968
0.030591
0.0643061
0.0309361
0.0621826
0.0301042
0.0583253
0.0281092
0.0532549
0.0252811
0.0476065
0.0221057
0.0419114
0.0189736
0.0365217
0.016112
0.0316204
0.0136177
0.0272683
0.0115054
0.0234538
0.00974535
0.0201303
0.00828918
0.0172393
0.00708525
0.0147228
0.00608635
0.0125284
0.00525264
0.0106105
0.00455164
0.00893051
0.00395788
0.00745575
0.00345151
0.00615848
0.00301305
0.00501817
0.00263947
0.00401318
0.00230939
0.0031285
0.00202266
0.00234945
0.00176638
0.00166522
0.00154216
0.00106495
0.0013392
0.000540881
0.00116131
8.65092e-05
0.000997861
-0.000312468
0.000856331
-0.00065566
0.000725994
-0.000948393
0.000606718
-0.00119704
0.000503602
-0.0014049
0.000407018
-0.0015768
0.000323327
-0.00171402
0.000239427
-0.00181826
0.000156011
-0.00188833
6.05788e-05
-0.00192057
-4.63679e-05
-0.00191541
-0.000162545
-0.0018745
-0.000274694
-0.00180695
-0.000362516
-0.00172719
-0.000407944
-0.0016561
-0.000389559
-0.00162262
-0.000281948
-0.00166003
-6.79439e-05
-0.00181669
0.000308513
-0.00215741
0.000890838
-0.00275052
0.0017088
-0.00365668
0.00275063
-0.00489977
0.00392274
-0.00642039
0.00498035
-0.00801164
0.00544301
-0.00927256
0.00462312
-0.00965304
0.00182424
-0.00863924
-0.00296855
-0.00619525
-0.00797308
-0.00297098
-0.0107214
-0.000199397
-0.00934945
0.000967704
-0.00447965
-0.000410242
0.00324336
-0.00457506
0.0121627
-0.0107107
0.0193768
-0.016712
0.0206179
-0.0204235
0.0145611
-0.0206005
0.00305552
-0.0172038
-0.00981916
-0.0114757
-0.0186302
-0.00546584
-0.0199102
-0.000687476
-0.0157242
0.00237656
-0.00999314
0.00392531
-0.00509802
0.00431982
-0.00143384
0.00393476
0.00107463
0.00314852
0.00244865
0.00233507
0.002649
0.00177193
0.00192273
0.00155753
0.000808354
0.00161538
-0.000103031
0.00177252
-0.000448829
0.00190078
-0.000352796
0.00194698
-5.55863e-05
0.00193097
0.000200675
0.00191355
0.000269012
0.00195848
0.000124523
0.00211411
-0.00018818
0.00240934
-0.000598735
0.00285178
-0.00105055
0.00343177
-0.00148665
0.0041249
-0.00185267
0.00490407
-0.00213476
0.00573726
-0.00231473
0.00660375
-0.00242363
0.00748148
-0.00245397
0.00836684
-0.00246346
0.00925903
-0.00245838
0.0101795
-0.00251399
0.0111419
-0.00260702
0.0121665
-0.00276515
0.0132531
-0.00291964
0.014414
-0.00311308
0.0156484
-0.00329805
0.0169797
-0.00355688
0.0184105
-0.00381648
0.0199694
-0.00417058
0.0216528
-0.00450005
0.0234909
-0.0049368
0.0254786
-0.00533155
0.027643
-0.00584177
0.0299977
-0.00634258
0.0325395
-0.00689865
0.0353454
-0.00760198
0.0383269
-0.00814148
0.0416903
-0.009191
0.0452072
-0.00966835
0.049331
-0.011461
0.0534084
-0.0113139
0.0592535
-0.0169384
0.0635611
-0.0122193
0.0735778
-0.031971
-0.0338347
0.0673046
0.0287691
-0.0665443
0.0682518
0.0296438
0.0688314
0.0303565
0.0684042
0.0305315
0.0666259
0.0298875
0.0635062
0.0284008
0.0593214
0.0262904
0.0544522
0.0238429
0.0492684
0.0212957
0.0440714
0.0188146
0.0390752
0.0165016
0.0344108
0.0144098
0.0301422
0.0125578
0.0262865
0.0109409
0.0228321
0.00954081
0.0197516
0.00833308
0.0170116
0.00729167
0.0145774
0.00639206
0.0124159
0.00561302
0.0104962
0.00493276
0.0087933
0.00434239
0.00728154
0.00382115
0.00594101
0.00336319
0.00475262
0.00295477
0.00370136
0.00259342
0.00277261
0.00226796
0.00195487
0.00197905
0.00123663
0.00171611
0.000609359
0.0014836
6.60181e-05
0.00126933
-0.000410755
0.00108349
-0.000819396
0.000912242
-0.00116674
0.000754367
-0.00146013
0.000616712
-0.00170263
0.000481932
-0.0018971
0.000350481
-0.00204465
0.000208125
-0.00214233
5.13106e-05
-0.00219322
-0.000111651
-0.00219919
-0.000268726
-0.00217161
-0.000390097
-0.00212833
-0.000451228
-0.00209478
-0.000423111
-0.00210611
-0.000270613
-0.00220041
2.63577e-05
-0.00243465
0.000542748
-0.00288325
0.00133944
-0.00362274
0.00244829
-0.00471697
0.00384485
-0.00618175
0.00538753
-0.00793351
0.00673211
-0.00972253
0.00723203
-0.0110957
0.00599625
-0.0114707
0.00219932
-0.0103044
-0.00413492
-0.00753714
-0.0107403
-0.00385257
-0.014406
-0.000671159
-0.0125309
0.000561084
-0.0057119
-0.00127347
0.00507792
-0.00638976
0.0172789
-0.0135348
0.0265219
-0.0201278
0.0272109
-0.0238311
0.0182645
-0.023563
0.00278741
-0.0194551
-0.013927
-0.01282
-0.0252653
-0.00584804
-0.0268822
-0.000237976
-0.0213343
0.00338685
-0.013618
0.00521778
-0.00692895
0.00566361
-0.00187967
0.00518255
0.0015557
0.00424171
0.00338949
0.00328977
0.00360095
0.00264878
0.00256372
0.00242213
0.00103499
0.00251435
-0.000195249
0.00272458
-0.000659055
0.00290699
-0.000535205
0.00300424
-0.000152843
0.00304271
0.000162205
0.00309377
0.000217957
0.00323255
-1.42546e-05
0.00351291
-0.000468546
0.00396723
-0.00105305
0.00460077
-0.00168409
0.00539994
-0.00228583
0.00633407
-0.00278679
0.00737071
-0.00317141
0.00847204
-0.00341606
0.00961481
-0.00356639
0.0107742
-0.00361333
0.0119484
-0.00363768
0.0131385
-0.00364845
0.0143721
-0.00374767
0.0156661
-0.00390095
0.0170453
-0.00414442
0.0185095
-0.00438376
0.0200745
-0.00467808
0.0217398
-0.0049634
0.0235346
-0.00535167
0.0254623
-0.00574416
0.0275578
-0.00626608
0.0298176
-0.00675988
0.0322774
-0.0073966
0.0349343
-0.00798848
0.0378162
-0.00872361
0.0409487
-0.00947507
0.0443131
-0.0102631
0.0480248
-0.0113136
0.0519441
-0.0120608
0.0563618
-0.0136087
0.0609442
-0.0142507
0.0663061
-0.0168229
0.0715571
-0.0165648
0.0789337
-0.0243151
0.0844909
-0.0177765
0.0962045
-0.0436846
-0.0460973
0.0713665
0.0281585
-0.070756
0.0721161
0.0288942
0.072839
0.0296336
0.0731624
0.0302081
0.0727138
0.0303361
0.0712598
0.0298547
0.0687678
0.0287825
0.0653583
0.0272524
0.061238
0.025416
0.056643
0.0234097
0.0518007
0.0213439
0.0469079
0.0193026
0.0421199
0.0173458
0.037548
0.0155128
0.0332625
0.0138263
0.0293001
0.0122954
0.0256723
0.0109195
0.0223738
0.00969055
0.0193894
0.00859744
0.016698
0.00762414
0.0142787
0.0067617
0.0121075
0.00599235
0.0101632
0.00530744
0.00842479
0.00469319
0.00687418
0.00414403
0.00549365
0.00364848
0.00426846
0.00320424
0.00318389
0.00280068
0.00222799
0.00243949
0.00138834
0.00210899
0.000655674
0.00181616
2.2955e-05
0.00154496
-0.000532993
0.00131031
-0.00100628
0.00109
-0.00140609
0.00088175
-0.00173845
0.000682841
-0.00200476
0.000474431
-0.00221098
0.000257531
-0.00234926
2.66246e-05
-0.00243668
-0.000181306
-0.00248015
-0.000346622
-0.00250142
-0.000429961
-0.00253044
-0.000394093
-0.0026087
-0.000192355
-0.0027785
0.000196158
-0.00310477
0.000869021
-0.0036694
0.00190407
-0.00455522
0.00333411
-0.00582663
0.00511626
-0.00748947
0.00705036
-0.00943828
0.00868093
-0.0113907
0.00918442
-0.0128639
0.00746945
-0.0132707
0.00260613
-0.0120437
-0.00536194
-0.00906694
-0.013717
-0.00500327
-0.0184697
-0.00143799
-0.0160961
-0.000160988
-0.0069889
-0.00242919
0.00734612
-0.00841086
0.0232606
-0.0163603
0.0344713
-0.0232698
0.0341203
-0.0267751
0.0217698
-0.0260526
0.0020649
-0.021338
-0.0186416
-0.0138979
-0.0327054
-0.00600638
-0.0347737
0.000434126
-0.0277748
0.00465108
-0.0178349
0.00678104
-0.00905891
0.00728557
-0.0023842
0.00671242
0.00212885
0.00562235
0.00447956
0.00453944
0.00468386
0.00382916
0.003274
0.00359903
0.00126512
0.0037364
-0.00033262
0.00401499
-0.000937645
0.0042719
-0.000792114
0.00444575
-0.000326687
0.00456933
3.86168e-05
0.00472452
6.27697e-05
0.00499351
-0.000283239
0.00544018
-0.000915219
0.00609689
-0.00170976
0.00696662
-0.00255382
0.00803167
-0.00335089
0.0092551
-0.00401022
0.0105992
-0.00451554
0.0120205
-0.00483728
0.0134932
-0.00503917
0.0149901
-0.00511016
0.0165115
-0.00515907
0.0180603
-0.00519734
0.0196711
-0.00535841
0.0213632
-0.00559311
0.0231669
-0.00594809
0.0250816
-0.00629842
0.0271272
-0.00672374
0.0293037
-0.00713991
0.031646
-0.00769391
0.0341584
-0.00825658
0.0368817
-0.00898942
0.0398135
-0.00969169
0.0429931
-0.0105761
0.0464223
-0.0114177
0.0501248
-0.0124262
0.0541449
-0.0134951
0.0584382
-0.0145564
0.0631699
-0.0160453
0.0681329
-0.0170237
0.0737188
-0.0191946
0.0794661
-0.0199981
0.0861696
-0.0235264
0.0926829
-0.0230781
0.101632
-0.0332642
0.10858
-0.0247248
0.121794
-0.0568987
-0.0597339
0.0757836
0.0276196
-0.0752447
0.0763785
0.0282993
0.0770089
0.0290032
0.077522
0.029695
0.0776835
0.0301746
0.077258
0.0302803
0.0760881
0.0299524
0.0741164
0.0292241
0.0713737
0.0281587
0.0679536
0.0268297
0.0639869
0.0253106
0.0596213
0.0236682
0.055008
0.0219592
0.0502898
0.020231
0.045593
0.0185231
0.0410203
0.0168681
0.0366482
0.0152917
0.0325276
0.0138111
0.0286877
0.0124373
0.02514
0.0111718
0.0218856
0.0100161
0.0189157
0.00896229
0.0162178
0.00800535
0.0137758
0.00713518
0.0115736
0.00634624
0.00959373
0.00562833
0.00782031
0.00497766
0.00623679
0.0043842
0.00482887
0.0038474
0.00358153
0.00335633
0.00248235
0.00291534
0.00151749
0.00250982
0.000677123
0.00215068
-4.86794e-05
0.0018158
-0.000680843
0.00151391
-0.00121582
0.00121782
-0.00166171
0.000920319
-0.00202179
0.000617608
-0.00230929
0.000314127
-0.0025147
2.41035e-05
-0.00266877
-0.00019255
-0.00279049
-0.000308245
-0.00291328
-0.000271301
-0.00308436
-2.1276e-05
-0.00335081
0.000462607
-0.00378267
0.00130089
-0.00446825
0.00258964
-0.0054947
0.00436056
-0.00692517
0.00654673
-0.00875592
0.00888112
-0.0108663
0.0107913
-0.0129573
0.0112754
-0.0145418
0.00905393
-0.0150496
0.00311394
-0.0138861
-0.00652543
-0.0108399
-0.0167632
-0.00649167
-0.0228179
-0.00255924
-0.0200286
-0.00117183
-0.00837631
-0.00384217
0.0100165
-0.0105296
0.029948
-0.0190174
0.0429592
-0.0259681
0.041071
-0.0291642
0.0249659
-0.0280515
0.00095224
-0.0228722
-0.0238209
-0.0147289
-0.0408487
-0.00594367
-0.043559
0.00135786
-0.0350763
0.00621172
-0.0226888
0.00867368
-0.0115209
0.00925409
-0.00296462
0.00859817
0.00278477
0.00736634
0.0057114
0.00615957
0.00589062
0.00538731
0.00404626
0.0051622
0.00149022
0.00535756
-0.000527976
0.00572337
-0.00130345
0.00607955
-0.0011483
0.0063603
-0.000607433
0.00660259
-0.000203677
0.00689767
-0.000232308
0.00733984
-0.000725407
0.00799594
-0.00157132
0.00890093
-0.00261475
0.0100554
-0.00370832
0.0114379
-0.00473332
0.0130049
-0.00557729
0.0147139
-0.00622449
0.016515
-0.00663837
0.0183804
-0.0069046
0.0202795
-0.0070093
0.0222154
-0.0070949
0.0241922
-0.00717415
0.0262511
-0.0074173
0.0284141
-0.00775612
0.0307168
-0.00825083
0.0331586
-0.00874021
0.0357641
-0.00932922
0.0385332
-0.00990902
0.0415068
-0.0106675
0.0446899
-0.0114397
0.0481287
-0.0124282
0.0518221
-0.0133851
0.0558111
-0.0145651
0.0601044
-0.015711
0.064717
-0.0170387
0.0697162
-0.0184944
0.0750232
-0.0198634
0.0808625
-0.0218846
0.086944
-0.0231053
0.0937757
-0.0260263
0.100743
-0.0269657
0.108848
-0.0316308
0.116655
-0.0308852
0.127142
-0.0437514
0.13556
-0.0331426
0.150033
-0.0713724
-0.074365
0.0805189
0.0271261
-0.0800253
0.0810273
0.0277908
0.0815583
0.0284723
0.0820564
0.0291969
0.0824069
0.0298242
0.0824598
0.0302274
0.0820706
0.0303416
0.0811299
0.0301648
0.0795758
0.0297128
0.0773934
0.0290121
0.0746064
0.0280976
0.0712681
0.0270065
0.0674547
0.0257726
0.0632605
0.0244252
0.0587919
0.0229916
0.0541609
0.0214991
0.0494764
0.0199761
0.0448368
0.0184507
0.0403241
0.0169501
0.0360005
0.0154954
0.0319107
0.0141059
0.0280815
0.0127915
0.0245269
0.0115599
0.0212502
0.0104119
0.0182483
0.00934811
0.0155126
0.00836408
0.013032
0.0074582
0.0107929
0.00662333
0.0087816
0.00585872
0.00698259
0.00515534
0.00538209
0.00451583
0.00396424
0.00392767
0.00271628
0.00339864
0.00162239
0.00290968
0.000671196
0.00246511
-0.000149747
0.00203876
-0.000856414
0.00162699
-0.00144954
0.00121073
-0.00193522
0.000799814
-0.00233479
0.000423669
-0.00264918
0.000121841
-0.00291381
-4.362e-05
-0.00316773
-1.7378e-05
-0.00346549
0.000276483
-0.00385108
0.000848202
-0.00440236
0.00185216
-0.0052115
0.00339878
-0.00636829
0.00551735
-0.00793415
0.00811259
-0.00989936
0.0108463
-0.0121388
0.0130308
-0.0143574
0.0134939
-0.0160881
0.0107846
-0.0167919
0.00381782
-0.0158382
-0.00747921
-0.0128832
-0.0197182
-0.00836082
-0.0273402
-0.00407068
-0.0243187
-0.0025154
-0.00993158
-0.0054435
0.0129446
-0.0126021
0.0371066
-0.0213217
0.0516788
-0.0280727
0.047822
-0.0309332
0.0278263
-0.0295751
-0.000405872
-0.024078
-0.0293179
-0.0153304
-0.0495963
-0.005665
-0.0532244
0.00254858
-0.0432899
0.00811484
-0.028255
0.0109651
-0.0143711
0.011652
-0.00365148
0.0109285
0.00350825
0.00956321
0.00707665
0.00823768
0.00721615
0.00740808
0.00487586
0.00719531
0.001703
0.0074623
-0.000794972
0.00793678
-0.00177793
0.00841995
-0.00163148
0.00883925
-0.00102673
0.00923575
-0.000600174
0.00970995
-0.00070651
0.0103645
-0.00137997
0.0112741
-0.00248087
0.0124742
-0.00381485
0.0139641
-0.00519829
0.0157191
-0.00648823
0.0176894
-0.00754767
0.0198274
-0.00836247
0.0220765
-0.00888744
0.0244061
-0.00923419
0.0267814
-0.00938464
0.0292074
-0.00952089
0.0316886
-0.0096554
0.0342726
-0.0100012
0.036983
-0.0104666
0.0398614
-0.0111292
0.042907
-0.0117859
0.0461495
-0.0125717
0.0495889
-0.0133485
0.0532714
-0.0143499
0.0572029
-0.0153713
0.0614332
-0.0166584
0.0659638
-0.0179157
0.070834
-0.0194353
0.0760626
-0.0209396
0.0816483
-0.0226245
0.0876895
-0.0245356
0.09406
-0.0262339
0.101055
-0.0288793
0.108285
-0.0303358
0.116387
-0.0341286
0.124577
-0.0351552
0.134068
-0.0411222
0.143147
-0.0399642
0.155047
-0.0556515
0.164926
-0.0430214
0.180377
-0.0868236
-0.0895973
0.0855822
0.0266667
-0.0851228
0.0860426
0.0273304
0.0865099
0.0280049
0.0869592
0.0287475
0.0873358
0.0294477
0.08756
0.0300031
0.0875391
0.0303626
0.0871834
0.0305205
0.086418
0.0304782
0.085189
0.0302411
0.0834632
0.0298233
0.0812264
0.0292433
0.078481
0.0285179
0.0752474
0.0276588
0.071565
0.026674
0.0674932
0.0255709
0.0631096
0.0243598
0.0585048
0.0230555
0.0537761
0.0216788
0.0490186
0.0202529
0.0443196
0.0188049
0.0397521
0.0173589
0.035374
0.0159381
0.0312264
0.0145595
0.027337
0.0132375
0.0237211
0.01198
0.0203855
0.0107939
0.0173289
0.00967991
0.0145461
0.00864145
0.0120272
0.0076743
0.00976093
0.00678209
0.00773247
0.00595613
0.00592854
0.00520257
0.00433169
0.00450653
0.00292716
0.00386964
0.00169764
0.00326829
0.000630006
0.00269462
-0.00028956
0.0021303
-0.00107397
0.00158422
-0.00172907
0.00107878
-0.00227929
0.000672063
-0.00275299
0.000430072
-0.00319142
0.000421053
-0.00364994
0.000735007
-0.00418451
0.00138277
-0.00487169
0.00253934
-0.00580676
0.00433385
-0.00708118
0.00679177
-0.00875605
0.00978746
-0.0108225
0.0129128
-0.013165
0.0153732
-0.0155136
0.0158426
-0.0174427
0.0127137
-0.0184499
0.004825
-0.0178593
-0.00806975
-0.0151708
-0.0224067
-0.0106072
-0.0319039
-0.00596876
-0.0289571
-0.00414383
-0.0117565
-0.00712584
0.0159266
-0.0144541
0.0444349
-0.0230824
0.0603071
-0.0294569
0.0541966
-0.0320483
0.0304177
-0.0306123
-0.00184184
-0.0249496
-0.0349806
-0.0156994
-0.0588465
-0.0051694
-0.0637544
0.00401672
-0.052476
0.0104053
-0.0346436
0.0137327
-0.0176985
0.014576
-0.00449472
0.0138076
0.00427664
0.0123171
0.00856709
0.010874
0.00865933
0.00998696
0.00576286
0.00979066
0.0018993
0.0101421
-0.00114638
0.010747
-0.00238288
0.0113854
-0.00226983
0.0119746
-0.00161597
0.0125583
-0.00118388
0.0132463
-0.00139448
0.0141519
-0.00228556
0.0153544
-0.00368341
0.016894