/*--------------------------------*- C++ -*----------------------------------*\
| =========                 |                                                 |
| \\      /  F ield         | OpenFOAM: The Open Source CFD Toolbox           |
|  \\    /   O peration     | Version:  2412                                  |
|   \\  /    A nd           | Website:  www.openfoam.com                      |
|    \\/     M anipulation  |                                                 |
\*---------------------------------------------------------------------------*/
FoamFile
{
    version     2.0;
    format      ascii;
    arch        "LSB;label=32;scalar=64";
    class       volVectorField;
    location    "1.135";
    object      ddtCorrDdt0(U);
}
// * * * * * * * * * * * * * * * * * * * * * * * * * * * * * * * * * * * * * //

dimensions      [0 1 -2 0 0 0 0];

internalField   nonuniform List<vector> 
12600
(
(0.374188 4.16713e-21 0.170635)
(0.506937 7.39437e-21 0.0294273)
(0.350968 6.21932e-21 -0.00569896)
(0.307663 0 -0.01365)
(0.285455 6.52141e-21 -0.0170037)
(0.266283 6.98736e-21 -0.0157701)
(0.251901 0 -0.0132141)
(0.236477 0 -0.0149444)
(0.218176 -3.12336e-20 -0.0162941)
(0.197557 0 -0.0169542)
(0.175266 1.5888e-20 -0.0171057)
(0.152519 1.60066e-20 -0.0168215)
(0.130366 -1.59681e-20 -0.0161853)
(0.109276 0 -0.0152943)
(0.0892163 -1.57058e-20 -0.0142201)
(0.0699798 0 -0.0129827)
(0.0514016 5.82707e-20 -0.0115637)
(0.0333779 0 -0.00994285)
(0.0158123 -2.65278e-20 -0.00812398)
(-0.00136375 -2.4733e-20 -0.00613861)
(-0.0181029 2.30255e-20 -0.00403766)
(-0.034192 -2.8975e-23 -0.00188201)
(-0.0493008 0 0.000265572)
(-0.0630924 -3.45339e-20 0.00234852)
(-0.0753165 0 0.00432289)
(-0.0858383 0 0.00615869)
(-0.0946081 -2.24653e-20 0.0078345)
(-0.101609 0 0.00932991)
(-0.106816 -3.36811e-22 0.0106202)
(-0.110187 1.09172e-20 0.011678)
(-0.111682 7.54388e-21 0.0124781)
(-0.111292 4.40357e-21 0.0130054)
(-0.109066 -1.52391e-21 0.0132562)
(-0.105127 2.1353e-21 0.0132405)
(-0.0996524 6.693e-21 0.0129754)
(-0.0928651 -1.00668e-20 0.0124848)
(-0.0849744 0 0.011789)
(-0.0761867 1.63284e-20 0.0109127)
(-0.0666543 0 0.0098727)
(-0.056544 -1.941e-20 0.00869517)
(-0.0459679 0 0.00739483)
(-0.0351002 -3.48255e-22 0.00600208)
(-0.0240461 0 0.00452856)
(-0.0130349 -1.83842e-22 0.00301314)
(-0.00218662 -3.38773e-20 0.00146556)
(0.00818635 3.0288e-20 -6.13523e-05)
(0.0179724 -2.60526e-20 -0.00156235)
(0.0267719 0 -0.0029661)
(0.0345244 0 -0.00427651)
(0.0407419 -1.28406e-20 -0.00539924)
(0.0454924 -1.81747e-20 -0.00635687)
(0.0482246 -1.18944e-20 -0.00702875)
(0.0492638 3.72396e-22 -0.00747285)
(0.0480525 -3.59668e-21 -0.00754835)
(0.0453603 0 -0.00738781)
(0.040649 1.65776e-21 -0.00684773)
(0.0352139 1.85382e-21 -0.00617076)
(0.0283343 1.55396e-21 -0.0051923)
(0.0217455 0 -0.00425824)
(0.0142183 0 -0.00311326)
(0.00789399 0 -0.00217626)
(0.000797363 -7.34819e-22 -0.00103146)
(-0.00432438 0 -0.000199573)
(-0.0102812 0 0.000894048)
(-0.0134084 6.61092e-22 0.00153137)
(-0.0175785 0 0.00245067)
(-0.0181204 0 0.00270825)
(-0.0204051 0 0.00331292)
(-0.0186406 -1.07226e-20 0.003126)
(-0.0198622 6.2793e-21 0.00350583)
(-0.0167501 7.38718e-21 0.00305027)
(-0.0178872 -6.71221e-22 0.00341665)
(-0.0142331 -6.2484e-21 0.00285632)
(-0.0155575 0 0.00323319)
(-0.0119153 8.69014e-21 0.00261808)
(-0.0128962 0 0.00285873)
(-0.0101404 0 0.00236112)
(-0.00926177 0 0.00223664)
(-0.00893349 -5.48339e-22 0.00222225)
(-0.00408592 -3.34588e-20 0.00133164)
(-0.00757373 -3.67665e-20 0.00208834)
(0.0010541 5.98917e-20 0.000516092)
(-0.000795219 6.4052e-20 0.000784634)
(-0.00884556 0 0.00195757)
(0.0368576 0 -0.00559872)
(-0.0790139 -5.34823e-19 0.0150406)
(0.159877 -7.79487e-19 -0.0320273)
(-0.233236 -4.70795e-19 0.0482258)
(0.183105 -3.80393e-19 -0.0329721)
(0.102958 0 -0.0216114)
(-0.499069 -1.30613e-18 0.0908242)
(0.719853 9.03292e-19 -0.128804)
(-0.998618 3.72912e-18 0.185018)
(2.02733 8.10084e-18 -0.368094)
(-2.43712 0 0.500933)
(0.803556 0 -0.172755)
(2.6674 0 -0.483407)
(-4.91206 0 0.912604)
(4.05943 0 -0.777236)
(-3.47715 0 0.684243)
(2.60709 -1.11726e-17 -0.523155)
(-1.38295 7.62398e-18 0.299676)
(-1.3367 5.70556e-18 0.209918)
(5.79142 0 -1.06771)
(-5.65541 0 1.07295)
(4.3237 0 -0.836245)
(-3.37833 2.11069e-17 0.674636)
(1.23715 -2.06861e-17 -0.288973)
(1.74395 1.62231e-17 -0.313212)
(-4.38996 0 0.805384)
(5.6601 7.91316e-18 -1.11321)
(0.054746 0 0.0362253)
(-4.11648 -1.82697e-17 0.801527)
(0.791078 -3.71154e-17 -0.199593)
(2.91705 -1.02412e-17 -0.523746)
(-3.71879 -2.05176e-17 0.744043)
(-0.778469 -4.83099e-18 0.133162)
(3.71516 -9.67035e-21 -0.713627)
(-0.552566 1.12675e-18 0.125735)
(-1.19087 0 0.227515)
(0.572661 -4.20824e-21 0.294873)
(0.639348 0 0.0839602)
(0.580433 -6.29122e-21 0.0156451)
(0.543749 0 -0.00796498)
(0.512685 -6.6057e-21 -0.0241169)
(0.486342 -1.49436e-20 -0.03021)
(0.464341 -7.82913e-21 -0.0313766)
(0.441032 0 -0.0355456)
(0.415422 -5.57437e-22 -0.0384623)
(0.385654 -1.68905e-20 -0.0400017)
(0.352736 1.70876e-20 -0.0407536)
(0.318805 1.71532e-20 -0.041001)
(0.28556 -1.70517e-20 -0.0407985)
(0.253644 1.67743e-20 -0.0401404)
(0.222915 3.22831e-20 -0.0390284)
(0.192982 0 -0.0374252)
(0.163468 5.75387e-22 -0.0352327)
(0.133989 2.88766e-20 -0.0323603)
(0.104192 2.69137e-20 -0.0288101)
(0.0739324 0 -0.0246976)
(0.0434555 0 -0.0202079)
(0.0133659 2.15361e-20 -0.0155345)
(-0.0155775 0 -0.0108377)
(-0.0426975 1.74768e-20 -0.00622941)
(-0.0675342 -3.04054e-20 -0.00177628)
(-0.0898523 0 0.00248446)
(-0.109558 2.19513e-20 0.00651885)
(-0.126586 0 0.0102745)
(-0.140809 -1.46857e-20 0.0136725)
(-0.152031 -2.14624e-20 0.0166236)
(-0.160035 -1.4616e-20 0.0190492)
(-0.164687 -4.45772e-21 0.020905)
(-0.165986 1.54247e-21 0.0221812)
(-0.164111 -5.52904e-21 0.0229033)
(-0.159347 -1.4662e-20 0.0231063)
(-0.152066 0 0.0228371)
(-0.142595 0 0.0221249)
(-0.131275 7.95687e-22 0.021013)
(-0.118336 0 0.0195225)
(-0.104087 1.9595e-20 0.0177102)
(-0.0887089 0 0.0155978)
(-0.0725608 4.04296e-20 0.0132616)
(-0.0557908 0 0.0107123)
(-0.038861 3.72472e-20 0.00804916)
(-0.0218726 0 0.00526238)
(-0.00542458 -3.04981e-20 0.00248258)
(0.0104962 0 -0.000330933)
(0.0251054 0 -0.0029948)
(0.0385993 1.69278e-20 -0.00558999)
(0.0499407 0 -0.00785821)
(0.0596473 0 -0.00994627)
(0.0663724 0 -0.0114981)
(0.0711599 6.88139e-21 -0.0127673)
(0.0723195 6.23264e-21 -0.0132922)
(0.0717747 0 -0.0135234)
(0.0674406 0 -0.0129011)
(0.0623955 -2.41759e-22 -0.0121625)
(0.0538027 -1.55373e-21 -0.0105981)
(0.0460354 0 -0.00927427)
(0.0349583 0 -0.00719318)
(0.0264335 0 -0.00574745)
(0.0144079 0 -0.00347013)
(0.00670792 1.20359e-21 -0.00216183)
(-0.00512501 -1.85491e-21 0.000197261)
(-0.0105371 -3.47652e-22 0.00118004)
(-0.0210432 0 0.00343791)
(-0.02284 0 0.00377279)
(-0.0314774 0 0.00569876)
(-0.0293708 -1.28089e-21 0.00519618)
(-0.036747 -6.21972e-21 0.00685357)
(-0.0314214 -7.31031e-21 0.00567496)
(-0.0385066 6.04415e-21 0.0073473)
(-0.0309924 -1.5283e-21 0.00575819)
(-0.0380052 -4.54529e-21 0.0075008)
(-0.0298653 -8.56663e-21 0.00573403)
(-0.0354616 0 0.00720856)
(-0.02959 0 0.00577466)
(-0.0295519 0 0.00618878)
(-0.0310163 -1.26808e-20 0.00612529)
(-0.0189673 0 0.00420822)
(-0.0331857 0 0.00664902)
(-0.00949642 -5.86172e-20 0.00236843)
(-0.0210771 -6.26221e-20 0.00439557)
(-0.0393078 0 0.00710505)
(0.0736099 0 -0.0125721)
(-0.237943 0 0.0438233)
(0.44468 7.60492e-19 -0.085568)
(-0.718344 -3.47891e-21 0.142541)
(0.561617 -3.71114e-19 -0.114963)
(0.208083 2.1797e-19 -0.0276945)
(-1.3597 1.26985e-18 0.235961)
(2.00967 8.65561e-19 -0.372908)
(-2.89695 -7.21471e-18 0.535204)
(5.73823 0 -1.06461)
(-7.26619 0 1.48278)
(3.07479 0 -0.733145)
(6.98914 0 -1.21576)
(-13.7512 -2.07e-19 2.59518)
(12.0424 0 -2.35852)
(-10.858 0 2.16263)
(7.90191 -1.07437e-17 -1.61578)
(-4.92556 -3.66222e-18 1.09106)
(-2.61713 -1.08428e-17 0.389379)
(16.1527 -7.44573e-20 -3.01122)
(-16.2838 0 3.16156)
(13.2286 0 -2.60212)
(-10.8672 0 2.18415)
(4.24555 9.86363e-18 -0.97854)
(3.91162 -1.54395e-17 -0.666028)
(-11.9173 0 2.19023)
(17.0313 -1.51204e-17 -3.38313)
(-1.27126 1.56839e-17 0.443505)
(-11.4795 3.46817e-17 2.22876)
(3.09223 0 -0.749874)
(7.6952 0 -1.3906)
(-11.3622 -1.94006e-17 2.28078)
(-1.43135 0 0.162784)
(10.7298 1.26947e-17 -2.07555)
(-2.22787 -1.09285e-18 0.520592)
(-3.47864 0 0.675406)
(0.544429 0 0.197597)
(0.601687 0 0.0925792)
(0.606908 -5.73664e-21 0.0503083)
(0.59558 0 0.0277716)
(0.576692 0 0.0055707)
(0.556089 7.09979e-21 -0.011774)
(0.534975 7.41426e-21 -0.0236552)
(0.511963 0 -0.0305456)
(0.485292 -5.6104e-23 -0.0341588)
(0.453498 1.60016e-20 -0.0362905)
(0.417943 -3.24484e-20 -0.0384745)
(0.381357 -1.62527e-20 -0.0412874)
(0.346064 -7.17412e-23 -0.0443587)
(0.312971 -1.5895e-20 -0.0470889)
(0.281785 -1.54898e-20 -0.0491251)
(0.251777 1.50589e-20 -0.0502843)
(0.222193 -2.87434e-20 -0.0503603)
(0.192274 -2.73647e-20 -0.0491672)
(0.161328 0 -0.0467129)
(0.129036 0 -0.0432504)
(0.0957011 2.23359e-20 -0.0391543)
(0.0621643 2.04049e-20 -0.0347532)
(0.0294477 0 -0.0302414)
(-0.00159526 0 -0.025686)
(-0.0304363 2.88108e-20 -0.021081)
(-0.0568445 0 -0.0164066)
(-0.0807504 -4.1282e-20 -0.0116813)
(-0.10209 1.66219e-20 -0.00698945)
(-0.120677 0 -0.00247728)
(-0.1362 9.85837e-21 0.00169359)
(-0.148299 6.6102e-21 0.00539088)
(-0.156728 0 0.00854981)
(-0.16143 -4.25283e-22 0.0111595)
(-0.162594 3.19183e-21 0.0132549)
(-0.160533 -8.02579e-22 0.0148643)
(-0.15566 0 0.0160203)
(-0.148298 0 0.0167163)
(-0.138798 -1.6375e-20 0.016973)
(-0.127345 0 0.0167772)
(-0.114271 0 0.0161872)
(-0.0997079 0 0.0152002)
(-0.0840902 0 0.0139156)
(-0.067507 0 0.0123118)
(-0.0505556 0 0.0105258)
(-0.0332318 0 0.00848803)
(-0.0163374 2.89759e-20 0.00637979)
(0.000337366 -2.47402e-20 0.00406349)
(0.0156999 0 0.00180749)
(0.0302751 -1.60153e-20 -0.00060804)
(0.0425595 0 -0.00278389)
(0.0535962 0 -0.00506162)
(0.0613287 9.46036e-21 -0.00685665)
(0.0675938 0 -0.00868898)
(0.0696421 -2.48401e-21 -0.00974603)
(0.0705923 -2.87075e-22 -0.0108443)
(0.066831 0 -0.010901)
(0.0631927 2.28518e-22 -0.0111568)
(0.0546645 0 -0.0101759)
(0.0481595 0 -0.0097634)
(0.0364995 0 -0.00797914)
(0.0291277 -1.21081e-21 -0.00728953)
(0.0157489 -2.43427e-21 -0.00498996)
(0.00915512 1.0619e-21 -0.00434986)
(-0.00491077 4.15002e-21 -0.00166893)
(-0.00907327 2.47423e-22 -0.00130261)
(-0.0226465 0 0.00166218)
(-0.0227191 0 0.00148944)
(-0.0351948 -9.21722e-21 0.00459646)
(-0.030638 -1.52319e-21 0.00361583)
(-0.0426548 0 0.00678467)
(-0.0340063 0 0.00488541)
(-0.0465334 -3.59778e-21 0.00821161)
(-0.034904 -1.87434e-21 0.00557088)
(-0.0478871 -1.6804e-21 0.00912499)
(-0.0355338 0 0.00619652)
(-0.0465338 0 0.00953718)
(-0.0381423 -1.36874e-20 0.00713752)
(-0.0400341 -4.48803e-21 0.00884319)
(-0.044254 0 0.00862178)
(-0.0260235 0 0.00645914)
(-0.0527679 0 0.0106857)
(-0.0136914 0 0.00397219)
(-0.0395182 0 0.00928753)
(-0.0624367 0 0.0114371)
(0.104432 0 -0.0146668)
(-0.380923 0 0.0666731)
(0.706707 -7.15236e-19 -0.125597)
(-1.19038 2.19388e-19 0.231053)
(0.977721 3.48799e-19 -0.217804)
(0.212388 -2.04822e-19 0.0159575)
(-2.08575 -1.20151e-18 0.350672)
(3.2197 -8.13016e-19 -0.581518)
(-4.72204 3.38864e-18 0.830538)
(9.09406 0 -1.64487)
(-11.9616 0 2.44148)
(5.91069 0 -1.59366)
(10.2934 0 -1.52829)
(-21.5421 1.94205e-19 3.96616)
(19.9033 0 -3.92616)
(-18.6669 0 3.78515)
(13.2104 1.00736e-17 -2.77422)
(-9.17442 0 2.15452)
(-2.59831 5.04478e-18 -0.0773083)
(25.267 6.97716e-20 -4.52898)
(-26.0627 0 5.06761)
(22.4254 0 -4.46591)
(-19.0541 0 3.93238)
(7.60589 9.28968e-18 -1.87314)
(4.75391 0 -0.549343)
(-18.0022 1.09142e-17 3.12033)
(28.2329 -1.21368e-19 -5.66608)
(-4.02802 -1.46785e-17 1.42598)
(-17.8035 -3.25076e-17 3.35004)
(5.85963 0 -1.54564)
(11.3378 8.87422e-18 -1.87817)
(-18.9434 1.81469e-17 3.85284)
(-1.20703 -4.19005e-18 -0.18983)
(17.1211 0 -3.27399)
(-4.45381 1.02184e-18 1.15248)
(-5.61585 0 1.091)
(0.509198 0 0.15504)
(0.555643 0 0.106602)
(0.577936 5.42311e-21 0.0762417)
(0.580301 0 0.05421)
(0.575502 -6.23629e-21 0.033907)
(0.566254 1.32088e-20 0.0157743)
(0.552738 0 0.00135664)
(0.534091 -1.42299e-20 -0.00794134)
(0.509319 1.49141e-20 -0.0129462)
(0.477999 1.50015e-20 -0.0161158)
(0.441567 1.53747e-20 -0.020325)
(0.403143 -1.52393e-20 -0.0266999)
(0.36598 1.53483e-20 -0.0342674)
(0.331804 -2.99476e-20 -0.0415007)
(0.300559 0 -0.0475362)
(0.271314 -2.84021e-20 -0.0520926)
(0.243022 0 -0.0549485)
(0.214631 0 -0.0558759)
(0.185118 0 -0.0549299)
(0.153854 2.27924e-20 -0.0525633)
(0.12101 -6.94156e-23 -0.0493988)
(0.0875095 -6.47945e-23 -0.0459116)
(0.0545588 1.73487e-20 -0.0422888)
(0.0231405 0 -0.0384943)
(-0.00619284 0 -0.0344098)
(-0.0332545 0 -0.0299477)
(-0.0580321 3.86249e-20 -0.02512)
(-0.0804981 -1.32179e-22 -0.0200587)
(-0.100458 0 -0.0149892)
(-0.117542 0 -0.0101477)
(-0.131295 0 -0.0057111)
(-0.141395 0 -0.00174927)
(-0.147749 6.13396e-22 0.00173972)
(-0.150563 0 0.00480524)
(-0.150168 7.82792e-21 0.00746396)
(-0.147006 0 0.0097244)
(-0.141371 0 0.0115336)
(-0.133602 1.63701e-20 0.0128844)
(-0.123816 0 0.0137257)
(-0.112342 0 0.0141166)
(-0.0992369 -1.9016e-20 0.0140271)
(-0.0849812 3.76347e-20 0.0135774)
(-0.0695712 0 0.0127106)
(-0.0537137 3.40304e-20 0.0116011)
(-0.0372616 0 0.0101215)
(-0.0211999 -5.47565e-20 0.0085106)
(-0.00508871 5.64924e-23 0.00654205)
(0.0096812 0 0.00458019)
(0.0239993 0 0.00227399)
(0.0358996 1.07284e-20 0.000172727)
(0.0469931 1.43385e-20 -0.00225465)
(0.0545118 -1.72735e-20 -0.004188)
(0.0611426 0 -0.00641346)
(0.0630713 -5.98988e-22 -0.00776816)
(0.0646821 2.71016e-22 -0.00944599)
(0.0608061 2.04343e-21 -0.00985518)
(0.0581149 2.00254e-21 -0.0107651)
(0.049364 0 -0.0100354)
(0.0440967 0 -0.0102312)
(0.0319892 3.0851e-21 -0.00847263)
(0.02617 4.0625e-21 -0.0082981)
(0.0119502 2.29602e-21 -0.00575282)
(0.00722228 1.04905e-21 -0.00557609)
(-0.00827821 -2.26157e-21 -0.00239444)
(-0.0101873 -1.72495e-22 -0.00251997)
(-0.0259065 0 0.00120205)
(-0.0231919 0 0.0004737)
(-0.0386598 8.68623e-21 0.0046354)
(-0.0306915 2.55315e-20 0.00298297)
(-0.04671 0 0.00747014)
(-0.0339636 1.16063e-20 0.00465154)
(-0.0515635 7.12707e-21 0.00949527)
(-0.0352527 8.60156e-21 0.00563455)
(-0.0541289 1.29541e-20 0.0109074)
(-0.0371653 0 0.00659559)
(-0.0537465 0 0.0117368)
(-0.0425542 1.28804e-20 0.00807637)
(-0.0467104 6.78353e-21 0.0111225)
(-0.0536187 7.34708e-21 0.0104312)
(-0.0293761 0 0.00815183)
(-0.0692964 0 0.0139685)
(-0.0135803 0 0.00453251)
(-0.0571096 0 0.0138493)
(-0.0781225 0 0.0129813)
(0.130135 0 -0.014496)
(-0.505225 4.59601e-19 0.0820162)
(0.945591 1.84309e-21 -0.159205)
(-1.63789 -2.06154e-19 0.315324)
(1.42599 0 -0.332047)
(0.118593 -2.00226e-19 0.0896452)
(-2.65646 5.66444e-19 0.421398)
(4.32002 0 -0.753145)
(-6.43075 3.19055e-18 1.07407)
(12.0823 -6.81412e-18 -2.1102)
(-16.4457 0 3.39188)
(9.18865 0 -2.62176)
(12.5532 0 -1.50914)
(-28.062 8.50454e-20 5.051)
(27.4336 0 -5.44121)
(-26.6935 0 5.49448)
(18.4358 9.43829e-18 -3.98909)
(-14.1403 3.26758e-18 3.38918)
(-1.2147 0 -0.4644)
(32.9498 0 -5.66447)
(-34.6064 0 6.75747)
(31.6832 0 -6.36234)
(-27.7986 0 5.86104)
(11.2397 8.05355e-21 -2.94337)
(4.15947 0 -0.155417)
(-22.4457 -1.02132e-17 3.64351)
(38.9342 6.77142e-18 -7.90345)
(-8.08634 0 2.82427)
(-22.927 -9.39157e-21 4.21205)
(8.84792 0 -2.48677)
(13.8389 -1.02107e-19 -2.0413)
(-26.1552 0 5.39194)
(-0.193741 3.91754e-18 -0.78526)
(22.647 0 -4.29704)
(-7.11529 9.09675e-19 1.9421)
(-7.50517 0 1.45689)
(0.49024 0 0.151127)
(0.522951 0 0.120536)
(0.547038 0 0.0947467)
(0.554303 0 0.0743486)
(0.556505 5.88665e-21 0.055876)
(0.555236 -1.02273e-22 0.0391985)
(0.548668 0 0.0251669)
(0.536108 1.34311e-20 0.0150027)
(0.517101 0 0.00933817)
(0.490773 -2.80679e-20 0.00601362)
(0.457353 0 0.000855398)
(0.419286 1.4387e-20 -0.00835292)
(0.380466 0 -0.0202685)
(0.343976 2.82753e-20 -0.0321287)
(0.310744 -1.36241e-20 -0.0421962)
(0.280149 2.65791e-20 -0.0500139)
(0.251179 -2.53988e-20 -0.0554404)
(0.222781 -2.42102e-20 -0.0582641)
(0.193774 0 -0.0585868)
(0.163147 -2.15223e-20 -0.0570869)
(0.130697 -1.98838e-20 -0.0547076)
(0.0972397 -3.62246e-20 -0.0521276)
(0.0641224 -1.63818e-20 -0.0495216)
(0.032509 0 -0.0467007)
(0.00302653 0 -0.0433887)
(-0.0241631 0 -0.0394127)
(-0.0491035 -1.81786e-20 -0.0347804)
(-0.0718203 -1.47177e-20 -0.0296775)
(-0.092153 0 -0.0244106)
(-0.10973 0 -0.0192858)
(-0.12405 5.36461e-21 -0.0145121)
(-0.134734 0 -0.010145)
(-0.141649 -1.92785e-24 -0.00615068)
(-0.145021 3.98463e-21 -0.00245245)
(-0.145209 -7.78385e-21 0.000956715)
(-0.142695 0 0.00405745)
(-0.13776 0 0.0067439)
(-0.130751 -1.54505e-20 0.00897843)
(-0.121723 0 0.0106704)
(-0.111024 0 0.0118821)
(-0.0986311 1.79446e-20 0.0125545)
(-0.0850893 -3.55123e-20 0.0128308)
(-0.0702931 0 0.012613)
(-0.0550685 -3.21071e-20 0.012117)
(-0.039108 0 0.0111498)
(-0.0235933 2.58297e-20 0.0100163)
(-0.00782939 2.1993e-20 0.00839281)
(0.00647512 0 0.00675296)
(0.0206089 1.38253e-20 0.00459929)
(0.032114 -1.01174e-20 0.00264781)
(0.0432171 -2.67512e-20 0.000152921)
(0.0503968 7.86422e-21 -0.00180715)
(0.0572577 -3.17345e-21 -0.00432309)
(0.05886 5.05261e-22 -0.00585188)
(0.060941 0 -0.00802041)
(0.0566888 -1.926e-21 -0.00868492)
(0.0547301 -1.88727e-21 -0.0102177)
(0.0454694 2.55321e-21 -0.00970683)
(0.0412362 -2.16611e-21 -0.0105651)
(0.0283974 -2.90658e-21 -0.00886322)
(0.0239706 -2.75097e-21 -0.00931336)
(0.00865955 4.6529e-21 -0.00655825)
(0.00572223 -2.94084e-21 -0.00695204)
(-0.0113973 0 -0.00326706)
(-0.0110205 0 -0.00398563)
(-0.0290153 1.07065e-21 0.000515837)
(-0.0233962 0 -0.000901236)
(-0.0419667 0 0.00434041)
(-0.0304009 -1.27116e-20 0.0018563)
(-0.050528 0 0.00773755)
(-0.033434 -1.09197e-20 0.00386235)
(-0.056223 -1.50189e-20 0.0103969)
(-0.03493 0 0.00518357)
(-0.0598509 -6.9007e-21 0.012417)
(-0.0379241 0 0.0065006)
(-0.0602855 0 0.0137345)
(-0.0459045 -1.58668e-20 0.00845886)
(-0.0525554 -2.4072e-21 0.0132572)
(-0.0618882 -1.22998e-21 0.0116555)
(-0.0316493 0 0.00977172)
(-0.0851312 0 0.0168636)
(-0.0114057 0 0.0047549)
(-0.0757685 5.0206e-20 0.0189514)
(-0.0881751 -6.16112e-20 0.0125581)
(0.149036 0 -0.0104887)
(-0.612215 -8.62202e-19 0.0897102)
(1.15942 3.13255e-19 -0.181604)
(-2.05647 3.83533e-19 0.392306)
(1.89253 3.1557e-19 -0.461356)
(-0.0675349 3.78723e-19 0.211345)
(-3.06586 0 0.406683)
(5.28288 0 -0.875408)
(-7.98678 -2.99166e-18 1.25678)
(14.694 6.38833e-18 -2.4595)
(-20.6551 2.73107e-18 4.28113)
(12.7306 0 -3.83167)
(13.8055 0 -1.10742)
(-33.1629 -7.96712e-20 5.76263)
(34.4348 4.22395e-18 -6.83252)
(-34.6772 0 7.2454)
(23.4806 -8.83918e-18 -5.23005)
(-19.7423 -3.05975e-18 4.83179)
(1.03563 0 -2.53494)
(39.0473 0 -6.34387)
(-41.5736 0 8.11334)
(40.7654 0 -8.22457)
(-36.8731 0 7.94462)
(15.035 -8.14332e-18 -4.17248)
(1.91993 0 -0.451097)
(-25.181 0 3.66492)
(48.8094 0 -9.9789)
(-13.1847 1.3123e-17 4.63898)
(-26.774 1.42406e-17 4.71167)
(11.7954 0 -3.52031)
(15.2675 -7.66314e-18 -1.86632)
(-32.6879 0 6.81167)
(1.41465 3.521e-18 -1.72415)
(27.1136 0 -5.06131)
(-10.0497 -8.5011e-19 2.87543)
(-9.06564 0 1.74412)
(0.477162 -3.80044e-21 0.153983)
(0.502435 -4.24919e-21 0.131293)
(0.527082 4.73932e-21 0.110545)
(0.535444 5.19852e-21 0.092459)
(0.53905 0 0.0751061)
(0.540389 -5.72819e-21 0.0585149)
(0.537216 0 0.0440599)
(0.52897 1.21283e-20 0.0334094)
(0.516083 1.25611e-20 0.0274018)
(0.497592 2.59961e-20 0.0245426)
(0.471758 -1.30618e-20 0.0198998)
(0.438672 1.31075e-20 0.00958998)
(0.40126 0 -0.00556842)
(0.36345 0 -0.0217132)
(0.327621 1.28445e-20 -0.0357888)
(0.294136 -1.82277e-22 -0.0468445)
(0.262518 3.25898e-22 -0.0548094)
(0.232171 2.86005e-22 -0.0595156)
(0.202155 0 -0.0610337)
(0.171201 0 -0.0602025)
(0.138512 0 -0.0583456)
(0.104485 3.3921e-20 -0.0564699)
(0.0704794 1.5266e-20 -0.054803)
(0.0379099 0 -0.0529775)
(0.00759614 0 -0.0505046)
(-0.0202545 2.04543e-20 -0.047096)
(-0.045714 0 -0.0427534)
(-0.0688599 0 -0.03772)
(-0.0895955 0 -0.0323859)
(-0.107609 0 -0.0271265)
(-0.122402 9.99003e-23 -0.0221806)
(-0.133548 0 -0.0175795)
(-0.140851 1.06244e-22 -0.0132438)
(-0.144531 -3.75613e-21 -0.00905699)
(-0.14497 1.88767e-22 -0.00501881)
(-0.142709 0 -0.0011793)
(-0.138033 0 0.00229471)
(-0.131318 0 0.00533257)
(-0.122567 0 0.00780002)
(-0.112165 0 0.00976612)
(-0.100013 0 0.0111389)
(-0.0867351 0 0.012089)
(-0.072115 3.21963e-20 0.0124699)
(-0.0571197 3.01897e-20 0.0125449)
(-0.0412611 0 0.0120444)
(-0.0259478 2.42481e-20 0.0113509)
(-0.0101974 0 0.0100288)
(0.00392082 0 0.00867985)
(0.0181426 -2.60011e-20 0.00664036)
(0.0294576 0 0.00482005)
(0.0407786 1.24598e-20 0.00223045)
(0.0477501 0 0.00024594)
(0.0549956 5.78738e-21 -0.00257041)
(0.0563353 2.48065e-22 -0.0042448)
(0.0589957 0 -0.00689806)
(0.0543656 0 -0.00776791)
(0.0532115 0 -0.00991542)
(0.0433771 -5.32376e-21 -0.00956833)
(0.0402225 4.62411e-21 -0.0110999)
(0.0265253 5.25248e-21 -0.00940818)
(0.0235162 4.872e-21 -0.0105199)
(0.00693136 -9.57687e-21 -0.00750976)
(0.00581786 -4.17492e-21 -0.00852879)
(-0.0131369 0 -0.00428359)
(-0.0104084 0 -0.00566393)
(-0.0309275 4.7386e-23 -0.000308945)
(-0.0223025 0 -0.00250336)
(-0.0442647 0 0.00390871)
(-0.0289557 -1.39905e-20 0.000478625)
(-0.0535178 0 0.00787103)
(-0.0318784 0 0.00280765)
(-0.060216 1.69195e-20 0.0112003)
(-0.0336873 -1.20292e-20 0.00448125)
(-0.0650411 0 0.0139032)
(-0.0378289 0 0.00616313)
(-0.0663825 0 0.0157875)
(-0.0484469 1.49014e-20 0.00856187)
(-0.0580225 0 0.0155241)
(-0.0695281 -9.60295e-21 0.0125591)
(-0.0335124 2.09553e-20 0.0115737)
(-0.100918 0 0.019539)
(-0.00806097 0 0.00486801)
(-0.0963067 -4.71126e-20 0.0245737)
(-0.0936595 2.75588e-22 0.0104427)
(0.160049 -1.38753e-20 -0.00308153)
(-0.702975 4.04058e-19 0.090511)
(1.34647 2.87922e-19 -0.193541)
(-2.44249 -1.78239e-19 0.460185)
(2.36479 -2.95875e-19 -0.601831)
(-0.340835 1.798e-21 0.369775)
(-3.29723 0 0.34991)
(6.07826 -6.61314e-19 -0.941581)
(-9.35423 0 1.36663)
(16.932 0 -2.68939)
(-24.5173 -2.55851e-18 5.0998)
(16.3548 0 -5.18087)
(14.1062 0 -0.35199)
(-36.7573 0 6.07801)
(40.7244 -3.95493e-18 -8.04357)
(-42.3181 0 8.98412)
(28.2501 -8.2301e-18 -6.48049)
(-25.9314 0 6.44784)
(4.22727 0 -4.51805)
(43.514 0 -6.54715)
(-46.6806 0 9.07516)
(49.4378 0 -9.98228)
(-45.9552 1.55053e-17 10.1296)
(18.8515 -7.59176e-18 -5.54157)
(-1.43436 1.32721e-17 1.10469)
(-26.2437 0 3.18614)
(57.5486 0 -11.8121)
(-18.9506 -2.47474e-17 6.80531)
(-29.3342 0 4.85584)
(14.4516 -2.66878e-17 -4.58535)
(15.746 0 -1.37171)
(-38.2548 1.49013e-17 8.05334)
(3.42167 -3.29023e-18 -2.84633)
(30.3671 0 -5.53491)
(-13.0671 -7.50142e-19 3.91527)
(-10.2366 0 1.93717)
(0.465877 3.57901e-21 0.159534)
(0.488453 8.08085e-21 0.141709)
(0.514261 -4.46424e-21 0.124778)
(0.523008 -2.38659e-24 0.108354)
(0.526521 5.15602e-21 0.0915561)
(0.528205 0 0.0748703)
(0.526051 0 0.0596278)
(0.519623 -1.14205e-20 0.0477185)
(0.51034 -2.34766e-20 0.0406656)
(0.498421 -1.79628e-22 0.0376016)
(0.481514 1.22983e-20 0.0339709)
(0.457151 -1.23412e-20 0.0243509)
(0.425597 1.20994e-20 0.00793868)
(0.389911 0 -0.0112499)
(0.35332 0 -0.0288415)
(0.317398 -1.15551e-20 -0.0429999)
(0.282582 4.4144e-20 -0.0535637)
(0.249138 4.21375e-20 -0.0603957)
(0.216935 0 -0.0633825)
(0.184932 0 -0.0632975)
(0.151767 0 -0.0617951)
(0.117057 -1.71846e-22 -0.0603712)
(0.0818517 -2.86085e-20 -0.0594798)
(0.0477781 1.26988e-20 -0.0586141)
(0.0159883 2.22886e-20 -0.0570141)
(-0.0131416 -3.84375e-20 -0.0542222)
(-0.0396533 1.61103e-20 -0.0502192)
(-0.0636492 1.31288e-20 -0.0453077)
(-0.0850989 1.02642e-20 -0.0399603)
(-0.103802 0 -0.0346233)
(-0.119331 -4.85573e-21 -0.0295727)
(-0.131243 2.59419e-21 -0.0248189)
(-0.139243 -2.75296e-22 -0.0202299)
(-0.143497 3.04713e-21 -0.0156342)
(-0.144376 1.31687e-20 -0.0110305)
(-0.142489 0 -0.00649833)
(-0.138141 0 -0.00227351)
(-0.13176 1.34154e-20 0.00153806)
(-0.123301 0 0.00475365)
(-0.113203 -1.5445e-20 0.00745399)
(-0.101278 -1.57447e-20 0.00950956)
(-0.0882511 0 0.011125)
(-0.0737702 -6.04119e-20 0.0120955)
(-0.0589723 -2.84104e-20 0.012741)
(-0.0431558 0 0.012701)
(-0.0279983 -2.28165e-20 0.0124495)
(-0.0121794 -1.9354e-20 0.0114194)
(0.00180853 0 0.010364)
(0.0162179 2.44202e-20 0.00842601)
(0.0273943 -8.82909e-21 0.00674474)
(0.0390395 -1.16497e-20 0.00404925)
(0.0458405 0 0.0020615)
(0.0535856 -2.97232e-24 -0.00105846)
(0.0546836 -4.03231e-22 -0.00283609)
(0.0580479 0 -0.00596838)
(0.0530349 0 -0.0069813)
(0.0528205 3.00823e-21 -0.00973971)
(0.0423737 2.74597e-21 -0.00948672)
(0.0404413 -5.18392e-21 -0.0117099)
(0.0257972 -4.93744e-21 -0.00996603)
(0.0243576 -4.57938e-21 -0.0117951)
(0.00635663 4.88659e-21 -0.00847851)
(0.00724243 8.27364e-21 -0.010219)
(-0.0137412 0 -0.00536206)
(-0.008452 0 -0.00753262)
(-0.0317524 -2.01075e-21 -0.0012521)
(-0.0198797 0 -0.00437483)
(-0.0455644 0 0.00331459)
(-0.0262317 1.31401e-20 -0.00123625)
(-0.0556344 0 0.00781777)
(-0.029128 -1.30163e-20 0.00136656)
(-0.0634881 9.86923e-22 0.0118307)
(-0.0313612 1.12932e-20 0.003377)
(-0.0696722 0 0.0152844)
(-0.0367651 0 0.00542806)
(-0.0720673 0 0.0178424)
(-0.0501577 1.6595e-20 0.00825359)
(-0.0632354 0 0.0179231)
(-0.0766308 4.01086e-21 0.0130364)
(-0.0352194 -3.86573e-20 0.0136195)
(-0.116855 0 0.0219129)
(-0.00399788 0 0.00499909)
(-0.118983 0 0.0306971)
(-0.0953069 2.07803e-22 0.00679288)
(0.162888 1.30079e-20 0.00786166)
(-0.778783 3.76456e-19 0.0843201)
(1.50674 -2.69852e-19 -0.194294)
(-2.7937 -1.55292e-19 0.517295)
(2.83148 0 -0.747699)
(-0.692817 -1.69346e-19 0.559904)
(-3.35215 0 0.226902)
(6.6791 6.19427e-19 -0.939898)
(-10.4942 0 1.40685)
(18.8081 0 -2.79179)
(-27.9648 0 5.81756)
(19.8841 1.72709e-18 -6.6221)
(13.5414 -6.05659e-19 0.741591)
(-38.8481 0 5.97982)
(46.1456 3.60831e-18 -9.02113)
(-49.2893 8.3424e-18 10.6431)
(32.6671 7.70071e-18 -7.71372)
(-32.4375 2.63289e-18 8.18092)
(8.21811 0 -5.43952)
(46.1915 0 -6.25571)
(-49.7601 0 9.58465)
(57.4693 0 -11.5603)
(-54.6164 -1.44989e-17 12.3358)
(22.639 3.65884e-20 -7.02116)
(-5.85819 -2.48079e-17 3.95497)
(-25.8924 0 2.2219)
(64.8671 0 -13.3135)
(-24.8958 1.16632e-17 9.20878)
(-30.6929 0 4.63248)
(16.6094 2.49398e-17 -5.6188)
(15.4449 0 -0.593237)
(-42.6204 -2.7904e-17 9.05016)
(5.64171 0 -3.80359)
(32.304 0 -5.68697)
(-15.9593 7.00735e-19 5.0036)
(-10.9858 0 2.02301)
(0.455432 0 0.166517)
(0.476595 -3.83706e-21 0.151341)
(0.503493 0 0.13653)
(0.512786 -4.60479e-21 0.121293)
(0.516517 -9.70061e-21 0.105079)
(0.518594 0 0.0885358)
(0.517047 5.1194e-21 0.0728657)
(0.511437 0 0.0594492)
(0.503549 1.30684e-22 0.0503577)
(0.49496 -2.23373e-20 0.0457858)
(0.48467 0 0.0423459)
(0.469192 0 0.0341263)
(0.446104 -1.13801e-20 0.0184243)
(0.416167 0 -0.00182075)
(0.382093 0 -0.0216496)
(0.346124 0 -0.038262)
(0.309482 -2.06003e-20 -0.0512067)
(0.273264 -1.96697e-20 -0.0603699)
(0.238478 -1.83145e-20 -0.0653358)
(0.205021 0 -0.0664453)
(0.171485 0 -0.0653923)
(0.136596 -1.47981e-20 -0.0642243)
(0.100622 1.33872e-20 -0.0638903)
(0.0651268 -1.19436e-20 -0.0639099)
(0.0316469 -2.09629e-20 -0.0632298)
(0.000889215 3.59148e-20 -0.0611408)
(-0.0270546 -9.50368e-23 -0.0575624)
(-0.0522526 -1.23476e-20 -0.0528492)
(-0.0746946 -9.65329e-21 -0.0475508)
(-0.0943022 0 -0.0421814)
(-0.110793 0 -0.0370678)
(-0.123785 -2.43965e-21 -0.0322175)
(-0.132879 0 -0.0274506)
(-0.138125 -2.8655e-21 -0.0225253)
(-0.139814 -6.05501e-21 -0.0174234)
(-0.138615 8.44742e-21 -0.0122465)
(-0.134856 0 -0.00730636)
(-0.12905 -1.26142e-20 -0.00274646)
(-0.121106 -1.35602e-20 0.0011954)
(-0.111537 2.12048e-22 0.00461808)
(-0.10005 2.94231e-20 0.00734853)
(-0.0874905 0 0.00963403)
(-0.0733389 2.83079e-20 0.0112001)
(-0.058938 0 0.012436)
(-0.0433244 0 0.0128716)
(-0.0284984 0 0.0130908)
(-0.0127286 4.3741e-23 0.0123676)
(0.000987943 0 0.0116377)
(0.0155189 -1.14747e-20 0.00981287)
(0.0264409 1.66468e-20 0.00830771)
(0.0383853 1.09474e-20 0.00551503)
(0.0449119 0 0.00357052)
(0.0531753 -2.47099e-21 0.000155424)
(0.053936 3.04803e-22 -0.00166313)
(0.0580692 0 -0.00526653)
(0.0525755 0 -0.00634468)
(0.0534129 -2.82578e-21 -0.00971572)
(0.0422398 -2.93437e-21 -0.00947066)
(0.0416847 2.58586e-21 -0.0124122)
(0.0259426 5.57184e-21 -0.0105317)
(0.02627 0 -0.013145)
(0.00665488 0 -0.00944278)
(0.00979317 2.5506e-22 -0.012018)
(-0.0134737 3.43477e-21 -0.0064661)
(-0.00531322 0 -0.00958077)
(-0.0317277 9.5772e-22 -0.00226519)
(-0.0162409 0 -0.0065002)
(-0.0460725 0 0.00262037)
(-0.0222909 0 -0.00326599)
(-0.0570552 0 0.00765615)
(-0.0252012 -5.86646e-22 -0.000433997)
(-0.0661957 7.08534e-22 0.0123767)
(-0.0279442 -1.21902e-20 0.00189391)
(-0.0738896 0 0.0166525)
(-0.0347268 -1.24145e-20 0.00431276)
(-0.0774929 0 0.0199992)
(-0.0510731 -1.55611e-20 0.00755327)
(-0.0683882 1.99782e-21 0.0205741)
(-0.0833034 2.22093e-21 0.0131088)
(-0.0370561 1.7811e-20 0.0160606)
(-0.133114 0 0.0239937)
(0.000291864 -3.7236e-20 0.00535923)
(-0.143979 0 0.0372852)
(-0.0940114 5.03479e-20 0.00193806)
(0.157494 1.18583e-20 0.0221705)
(-0.841433 -3.52664e-19 0.0718026)
(1.64117 0 -0.184137)
(-3.11018 2.82447e-19 0.562879)
(3.28323 0 -0.896388)
(-1.11292 -1.59122e-19 0.785973)
(-3.23393 0 0.0392474)
(7.062 5.74684e-19 -0.858486)
(-11.3809 0 1.31968)
(20.3386 5.05842e-18 -2.75104)
(-30.9329 2.01789e-18 6.41479)
(23.1617 -1.61618e-18 -8.11509)
(12.2178 5.66687e-19 2.13981)
(-39.5323 0 5.47245)
(50.5669 -6.68349e-18 -9.71796)
(-55.2534 -1.55807e-17 12.1538)
(36.6752 0 -8.90429)
(-39.0458 -2.4624e-18 9.97553)
(12.1316 0 -7.93686)
(47.099 0 -5.47047)
(-50.804 2.14139e-18 9.61576)
(64.6254 0 -12.8834)
(-62.3277 0 14.4671)
(26.2926 6.60084e-18 -8.58069)
(-11.5126 2.3112e-17 5.85827)
(-24.4638 -7.50132e-18 0.814755)
(70.4977 0 -14.4066)
(-30.4293 0 11.735)
(-31.0127 0 4.06966)
(18.131 0 -6.57976)
(14.5714 5.77861e-18 0.420536)
(-45.6283 1.30606e-17 9.76764)
(7.67398 0 -5.43149)
(32.8839 0 -5.50538)
(-18.5097 0 6.09212)
(-11.3142 0 1.9864)
(0.445319 3.37114e-21 0.172799)
(0.465114 0 0.159078)
(0.492753 3.97041e-21 0.145537)
(0.502505 0 0.131333)
(0.506658 4.55815e-21 0.115887)
(0.509507 0 0.0997728)
(0.509017 -4.81159e-21 0.0840321)
(0.504427 9.8177e-21 0.0696072)
(0.497205 2.02369e-20 0.0581704)
(0.489661 1.47828e-22 0.0511916)
(0.482453 0 0.0465274)
(0.473052 0 0.0391086)
(0.457764 0 0.0250591)
(0.43499 0 0.00559018)
(0.405956 0 -0.0148005)
(0.372745 0 -0.0327294)
(0.336868 1.86941e-20 -0.047366)
(0.299732 -1.78429e-20 -0.0586591)