/*--------------------------------*- C++ -*----------------------------------*\
| =========                 |                                                 |
| \\      /  F ield         | OpenFOAM: The Open Source CFD Toolbox           |
|  \\    /   O peration     | Version:  2412                                  |
|   \\  /    A nd           | Website:  www.openfoam.com                      |
|    \\/     M anipulation  |                                                 |
\*---------------------------------------------------------------------------*/
FoamFile
{
    version     2.0;
    format      ascii;
    arch        "LSB;label=32;scalar=64";
    class       surfaceScalarField;
    location    "1.135";
    object      ddtCorrDdt0(phi);
}
// * * * * * * * * * * * * * * * * * * * * * * * * * * * * * * * * * * * * * //

dimensions      [0 3 -2 0 0 0 0];

oriented        oriented;

internalField   nonuniform List<scalar> 
24930
(
0.000648971
0.000666542
-0.000308403
0.000421742
0.000217252
0.000368154
0.00013266
0.00033909
9.86567e-05
0.0003134
6.87174e-05
0.000293698
5.14513e-05
0.000278787
4.17553e-05
0.000259422
4.80998e-05
0.000237731
4.92356e-05
0.000213512
4.85566e-05
0.000187893
4.61641e-05
0.000162281
4.25869e-05
0.000137626
3.82739e-05
0.000114181
3.3337e-05
9.17517e-05
2.77418e-05
7.00839e-05
2.16463e-05
4.90421e-05
1.5431e-05
2.85448e-05
9.42044e-06
8.49777e-06
3.67051e-06
-1.11424e-05
-1.97028e-06
-3.02513e-05
-7.65767e-06
-4.85106e-05
-1.34251e-05
-6.55073e-05
-1.9192e-05
-8.08737e-05
-2.48229e-05
-9.4371e-05
-3.01674e-05
-0.000105887
-3.50785e-05
-0.000115378
-3.9443e-05
-0.000122813
-4.32066e-05
-0.000128144
-4.63705e-05
-0.000131312
-4.89411e-05
-0.000132271
-5.08881e-05
-0.000131032
-5.21225e-05
-0.000127674
-5.25376e-05
-0.000122364
-5.20365e-05
-0.000115325
-5.05984e-05
-0.000106811
-4.82533e-05
-9.70556e-05
-4.51197e-05
-8.62757e-05
-4.13035e-05
-7.46335e-05
-3.6971e-05
-6.23074e-05
-3.2203e-05
-4.94272e-05
-2.71722e-05
-3.61914e-05
-2.19045e-05
-2.27398e-05
-1.65896e-05
-9.34878e-06
-1.11727e-05
3.80739e-06
-5.89325e-06
1.63503e-05
-5.98906e-07
2.81028e-05
4.38623e-06
3.85845e-05
9.37051e-06
4.76665e-05
1.38829e-05
5.47728e-05
1.84245e-05
5.99224e-05
2.22737e-05
6.24932e-05
2.61989e-05
6.28316e-05
2.90906e-05
6.03732e-05
3.20504e-05
5.60306e-05
3.33743e-05
4.93111e-05
3.46495e-05
4.17393e-05
3.34089e-05
3.25916e-05
3.20304e-05
2.38499e-05
2.72001e-05
1.41476e-05
2.27142e-05
5.90057e-06
1.44752e-05
-3.12609e-06
8.36361e-06
-9.75971e-06
-1.04616e-06
-1.71723e-05
-5.86623e-06
-2.10604e-05
-1.42478e-05
-2.59472e-05
-1.64399e-05
-2.63342e-05
-2.41087e-05
-2.87654e-05
-2.44135e-05
-2.62323e-05
-3.21951e-05
-2.75674e-05
-2.98067e-05
-2.3413e-05
-3.58619e-05
-2.50428e-05
-2.80286e-05
-1.99463e-05
-3.14669e-05
-2.23954e-05
-1.9668e-05
-1.63657e-05
-2.49343e-05
-1.96604e-05
-1.29857e-05
-1.2547e-05
-2.14886e-05
-1.62137e-05
-7.9165e-06
-8.09303e-06
-1.69351e-05
-1.13489e-05
-2.22442e-06
-2.89363e-06
-9.25465e-06
-2.73883e-06
1.85873e-06
-5.60182e-07
5.88352e-06
4.14969e-06
-3.27162e-06
1.02618e-05
9.89458e-06
1.38523e-05
1.35444e-05
-1.92823e-05
6.21275e-05
-8.76491e-05
0.00012106
0.000277311
-0.000386427
-0.000356924
0.000763591
7.035e-05
-0.000356944
8.23012e-05
0.000142248
0.000208056
-0.000146872
0.000281276
0.00069861
-0.00205985
0.00305664
0.00308614
0.000531278
-0.00209001
0.00703548
-0.00116016
-0.00217033
0.00178424
-0.00312156
-0.00215974
0.00432064
0.0025451
-0.00458678
-0.00369144
0.00582817
0.00435394
-0.00959756
0.000841795
0.00574952
-0.00194674
0.00200921
0.00248825
-0.00516169
-0.00345017
0.00626458
0.00476062
-0.00873941
-0.00339514
0.00968414
0.00115039
-0.00695188
0.00842678
-0.00556992
-0.00545713
0.0131041
-0.00506782
-0.00215994
0.00484139
-0.0122117
-0.000676308
0.0088321
-0.00727978
0.00743339
0.00428047
-0.0137252
0.00570989
-0.000934777
-0.00304777
0.00895505
0.000586779
0.000765999
0.000473983
-0.000545472
0.000726721
0.000293192
0.000682359
0.000205917
0.000646223
0.000160919
0.000611921
0.000123358
0.000583598
9.82207e-05
0.000555939
8.45843e-05
0.000528069
7.76035e-05
0.000495112
7.19485e-05
0.00045728
6.59476e-05
0.000416545
5.78344e-05
0.00037537
4.73733e-05
0.000335352
3.56246e-05
0.000296854
2.36981e-05
0.0002595
1.21288e-05
0.000222776
1.23707e-06
0.000186232
-8.49782e-06
0.000149442
-1.66596e-05
0.000112081
-2.33025e-05
7.41586e-05
-2.89616e-05
3.61631e-05
-3.42717e-05
-1.04613e-06
-3.95982e-05
-3.6529e-05
-4.494e-05
-6.95294e-05
-5.00405e-05
-9.95853e-05
-5.45473e-05
-0.00012648
-5.81441e-05
-0.000150109
-6.06659e-05
-0.000170343
-6.21545e-05
-0.000186965
-6.2817e-05
-0.000199694
-6.28733e-05
-0.000208278
-6.24336e-05
-0.000212603
-6.14364e-05
-0.000212742
-5.97377e-05
-0.000208971
-5.71756e-05
-0.00020168
-5.37186e-05
-0.000191318
-4.94147e-05
-0.000178281
-4.44711e-05
-0.000162944
-3.90328e-05
-0.000145601
-3.33375e-05
-0.000126593
-2.74109e-05
-0.000106192
-2.14648e-05
-8.47882e-05
-1.54126e-05
-6.2663e-05
-9.54237e-06
-4.03038e-05
-3.65766e-06
-1.80019e-05
1.7715e-06
3.64403e-06
7.07419e-06
2.43829e-05
1.15416e-05
4.34732e-05
1.5815e-05
6.07489e-05
1.88851e-05
7.53016e-05
2.18677e-05
8.7173e-05
2.33078e-05
9.5304e-05
2.50421e-05
0.000100163
2.49329e-05
0.000100658
2.57199e-05
9.80597e-05
2.41367e-05
9.12854e-05
2.41586e-05
8.25676e-05
2.09348e-05
7.0479e-05
2.00958e-05
5.81454e-05
1.45433e-05
4.32547e-05
1.23023e-05
2.98104e-05
3.59017e-06
1.41517e-05
7.8226e-08
1.57038e-06
-1.14392e-05
-1.31566e-05
-1.44709e-05
-2.28112e-05
-2.71934e-05
-3.48217e-05
-2.71768e-05
-3.97994e-05
-3.97435e-05
-4.84596e-05
-3.50867e-05
-4.86825e-05
-4.78369e-05
-5.51158e-05
-3.82096e-05
-5.16476e-05
-5.18925e-05
-5.75472e-05
-3.58091e-05
-5.11686e-05
-5.02894e-05
-5.78078e-05
-2.58704e-05
-4.87018e-05
-4.27793e-05
-5.68764e-05
-1.08748e-05
-4.45575e-05
-3.44133e-05
-5.4e-05
2.80822e-06
-3.83567e-05
-2.84648e-05
-4.75645e-05
1.16936e-05
-3.27647e-05
-1.79703e-05
-3.16136e-05
7.02744e-06
-4.01347e-05
1.95817e-05
-8.93346e-07
-3.56406e-05
-7.22041e-05
0.000108804
7.90078e-05
-0.000192189
-0.000176964
0.000362195
-0.000217559
0.000136213
0.000771351
-0.00134612
-0.00109912
0.00258065
0.000398884
-0.00196678
-0.000332972
0.000959466
0.0015036
-0.0024197
-0.000228443
0.00281525
-0.00536406
0.00736687
0.0102015
-0.0213104
-0.00687927
0.0235574
-0.00273304
-0.00603489
0.00356977
-0.00907986
-0.00573984
0.0130295
0.00585749
-0.0154537
-0.0102566
0.0222596
0.0150961
-0.0362798
0.00139542
0.0189122
-0.00493624
0.00852311
0.00563544
-0.0148436
-0.0104022
0.0214668
0.0130821
-0.0319205
-0.0110281
0.0320825
0.00574314
-0.0236872
0.0246834
-0.0243794
-0.0186062
0.0583786
-0.013824
-0.00509452
0.0161127
-0.0430432
-0.00466761
0.0298185
-0.022105
0.0247968
0.0149294
-0.0504798
0.0161309
-0.00280507
-0.0104547
0.0367703
0.00271629
0.000744413
0.000396126
-0.000604259
0.000787322
0.000308128
0.000781011
0.00025392
0.000763713
0.000217522
0.000742508
0.00017947
0.00071773
0.000150349
0.000690597
0.000129816
0.000659751
0.000116998
0.000622577
0.000109217
0.000579261
0.000102008
0.000532372
9.0538e-05
0.000485353
7.33416e-05
0.000440547
5.27859e-05
0.000398437
3.20479e-05
0.000358293
1.28222e-05
0.000319079
-4.32963e-06
0.000279806
-1.88479e-05
0.000239534
-3.01774e-05
0.000197564
-3.85277e-05
0.000153817
-4.50597e-05
0.00010901
-5.1179e-05
6.43995e-05
-5.77023e-05
2.12934e-05
-6.45954e-05
-1.93311e-05
-7.12545e-05
-5.69385e-05
-7.69295e-05
-9.13234e-05
-8.1029e-05
-0.000122396
-8.33163e-05
-0.000149986
-8.39702e-05
-0.000173741
-8.34713e-05
-0.000193183
-8.22986e-05
-0.000207863
-8.06872e-05
-0.000217536
-7.8525e-05
-0.000222247
-7.55345e-05
-0.000222312
-7.14215e-05
-0.000218194
-6.61375e-05
-0.000210399
-5.97869e-05
-0.000199348
-5.27316e-05
-0.000185418
-4.5206e-05
-0.000168899
-3.75646e-05
-0.000150143
-2.97921e-05
-0.000129445
-2.21756e-05
-0.000107243
-1.45237e-05
-8.3869e-05
-7.27455e-06
-5.9885e-05
-8.29204e-08
-3.56327e-05
6.2878e-06
-1.17907e-05
1.23872e-05
1.13527e-05
1.70473e-05
3.29612e-05
2.13344e-05
5.28461e-05
2.35706e-05
6.99836e-05
2.56147e-05
8.4413e-05
2.50548e-05
9.49123e-05
2.50083e-05
0.000101974
2.19703e-05
0.000104297
2.06557e-05
0.000103263
1.57243e-05
9.75393e-05
1.40873e-05
8.95796e-05
7.78209e-06
7.76475e-05
6.57067e-06
6.52522e-05
-1.41372e-06
4.96668e-05
-2.46451e-06
3.54468e-05
-1.33214e-05
1.83171e-05
-1.43708e-05
4.36521e-06
-2.86189e-05
-1.24701e-05
-2.83324e-05
-2.37785e-05
-4.51155e-05
-3.81984e-05
-4.05113e-05
-4.47001e-05
-5.82515e-05
-5.58327e-05
-4.65102e-05
-5.72181e-05
-6.55952e-05
-6.616e-05
-4.61301e-05
-6.33553e-05
-6.87742e-05
-7.19808e-05
-3.99866e-05
-6.56428e-05
-6.72536e-05
-7.57008e-05
-2.5059e-05
-6.57624e-05
-5.90352e-05
-7.86502e-05
-1.71818e-06
-6.37656e-05
-4.96574e-05
-7.9557e-05
2.11858e-05
-5.88984e-05
-4.44284e-05
-7.56149e-05
3.55326e-05
-5.67097e-05
-2.79884e-05
-5.59456e-05
1.6133e-05
-7.99725e-05
5.39468e-05
-3.97895e-07
-0.000108359
-0.000169969
0.000315661
0.000159723
-0.000580505
-0.000309276
0.000909135
-0.000305521
0.000111756
0.00125136
-0.00293253
-0.00192232
0.0058039
0.000861162
-0.00492384
-0.000872646
0.00292102
0.00293947
-0.00671279
-0.00125526
0.00746678
-0.00819615
0.0137218
0.0179163
-0.0479553
-0.0123379
0.0544485
-0.0034414
-0.0155071
0.00471176
-0.0165797
-0.0100697
0.0269461
0.00847942
-0.0330555
-0.0168213
0.0475588
0.0276686
-0.0759596
0.00133474
0.0458279
-0.00687932
0.016029
0.00844544
-0.0293484
-0.0186939
0.0476467
0.0208691
-0.07142
-0.0195389
0.0766476
0.0130452
-0.0574972
0.0404858
-0.0509569
-0.0343022
0.133196
-0.0211648
-0.0172585
0.0279787
-0.0929004
-0.0112004
0.0699532
-0.0372024
0.0504111
0.0276747
-0.116003
0.0256372
-0.000791014
-0.0196412
0.0822317
0.00453256
0.000730648
0.000362984
-0.000633462
0.000790989
0.000316848
0.000805467
0.000282614
0.000806921
0.000255497
0.000800485
0.000226293
0.000787744
0.000197704
0.000767677
0.000174842
0.000739164
0.000161108
0.000701621
0.00015455
0.000655546
0.000149405
0.000603897
0.000137236
0.000551276
0.000114088
0.000501466
8.34491e-05
0.000455779
5.16294e-05
0.000413472
2.25506e-05
0.000373086
-2.64948e-06
0.000333149
-2.33817e-05
0.000292216
-3.89103e-05
0.000249076
-4.95209e-05
0.000203316
-5.7153e-05
0.000155662
-6.43421e-05
0.000107654
-7.26237e-05
6.09326e-05
-8.19154e-05
1.66672e-05
-9.10614e-05
-2.45781e-05
-9.87202e-05
-6.26581e-05
-0.000103943
-9.75485e-05
-0.000106429
-0.000129088
-0.000106542
-0.00015685
-0.000105105
-0.000180207
-0.000102913
-0.000198546
-0.000100327
-0.000211517
-9.71295e-05
-0.000219143
-9.28303e-05
-0.00022179
-8.69567e-05
-0.000219987
-7.94595e-05
-0.000214278
-7.05595e-05
-0.000205084
-6.08505e-05
-0.000192755
-5.0713e-05
-0.000177542
-4.06601e-05
-0.000159773
-3.06471e-05
-0.00013973
-2.10541e-05
-0.000117868
-1.15802e-05
-9.45292e-05
-2.83392e-06
-7.03211e-05
5.69446e-06
-4.56016e-05
1.29206e-05
-2.11082e-05
1.96488e-05
2.86091e-06
2.42143e-05
2.53878e-05
2.81614e-05
4.62903e-05
2.90644e-05
6.44383e-05
2.95879e-05
7.99057e-05
2.62315e-05
9.13168e-05
2.35032e-05
9.924e-05
1.63469e-05
0.000102178
1.16447e-05
0.000101684
1.74637e-06
9.61758e-05
-3.14943e-06
8.84053e-05
-1.44016e-05
7.62917e-05
-1.7541e-05
6.38123e-05
-2.95672e-05
4.77332e-05
-3.02139e-05
3.32525e-05
-4.37074e-05
1.53315e-05
-4.13719e-05
9.77354e-07
-5.70394e-05
-1.69234e-05
-5.05244e-05
-2.86017e-05
-6.86558e-05
-4.42144e-05
-5.54112e-05
-5.08548e-05
-7.54269e-05
-6.33138e-05
-5.24135e-05
-6.45958e-05
-7.55244e-05
-7.51819e-05
-4.20441e-05
-7.20394e-05
-7.20438e-05
-8.29348e-05
-2.62551e-05
-7.59405e-05
-6.63457e-05
-8.94189e-05
-2.55569e-06
-7.81696e-05
-5.72295e-05
-9.62414e-05
2.93463e-05
-7.83294e-05
-5.10355e-05
-0.000101482
6.03883e-05
-7.51058e-05
-5.18656e-05
-0.00010099
7.95141e-05
-7.67872e-05
-3.13545e-05
-7.8357e-05
3.69799e-05
-0.000117039
0.000109638
3.31667e-06
-0.000212825
-0.000269238
0.000622458
0.000255326
-0.00114385
-0.000474485
0.00168769
-0.00042521
5.36146e-05
0.00166365
-0.00502633
-0.00281905
0.0102236
0.00145495
-0.00895355
-0.00151382
0.00608471
0.00430591
-0.0130639
-0.00269984
0.014979
-0.0105716
0.0214142
0.0259865
-0.0845377
-0.0183356
0.0987375
-0.00301083
-0.0309661
0.00519355
-0.0242191
-0.0152779
0.0465227
0.0102797
-0.0577751
-0.0234388
0.0809185
0.0419689
-0.156231
0.000851427
0.0870866
-0.0071939
0.0238169
0.0108127
-0.0464808
-0.0284845
0.0859727
0.0278277
-0.127629
-0.0289856
0.128688
0.0233219
-0.11045
0.0553808
-0.0823433
-0.0524075
0.241017
-0.0269144
-0.040846
0.0398872
-0.160517
-0.020175
0.130885
-0.0521631
0.082322
0.0420983
-0.211586
0.0337902
0.00710993
-0.0304813
0.146793
0.00501812
0.000738738
0.000353547
-0.000672289
0.000797413
0.000326624
0.000819312
0.000304722
0.000830134
0.000283937
0.000834713
0.000260627
0.000831682
0.000236015
0.000819987
0.000213089
0.000799014
0.000198404
0.000767381
0.000194327
0.000724636
0.000194087
0.000672404
0.000185828
0.000615472
0.00016106
0.000559406
0.000122372
0.000507428
7.92511e-05
0.000459754
3.91512e-05
0.000415097
4.63757e-06
0.000371921
-2.35654e-05
0.000328573
-4.4444e-05
0.000283342
-5.80071e-05
0.000235187
-6.68108e-05
0.000184499
-7.48489e-05
0.00013295
-8.48863e-05
8.25581e-05
-9.7015e-05
3.47863e-05
-0.00010938
-9.71579e-06
-0.000119799
-5.08556e-05
-0.00012683
-8.86951e-05
-0.000130089
-0.000123132
-0.000130156
-0.000153732
-0.000128243
-0.000179785
-0.000125513
-0.000200542
-0.000122487
-0.000215546
-0.000118793
-0.000224798
-0.000113632
-0.000228726
-0.000106263
-0.000227946
-9.66146e-05
-0.000223069
-8.50562e-05
-0.000214534
-7.24774e-05
-0.000202681
-5.94465e-05
-0.00018773
-4.66691e-05
-0.00017
-3.4068e-05
-0.000149763
-2.21336e-05
-0.000127496
-1.04393e-05
-0.000103554
2.02609e-07
-7.85888e-05
1.04929e-05
-5.29689e-05
1.89713e-05
-2.74938e-05
2.67478e-05
-2.46094e-06
3.15824e-05
2.11235e-05
3.55914e-05
4.31019e-05
3.54721e-05
6.22267e-05
3.48429e-05
7.86367e-05
2.8913e-05
9.07837e-05
2.38292e-05
9.9359e-05
1.26705e-05
0.000102633
4.86132e-06
0.0001024
-1.00519e-05
9.67674e-05
-1.8008e-05
8.88853e-05
-3.44997e-05
7.62388e-05
-3.94867e-05
6.3406e-05
-5.61685e-05
4.65052e-05
-5.64023e-05
3.15619e-05
-7.3391e-05
1.25696e-05
-6.74864e-05
-2.28071e-06
-8.5539e-05
-2.14514e-05
-7.22731e-05
-3.34545e-05
-9.29644e-05
-5.04011e-05
-7.02664e-05
-5.70122e-05
-9.42919e-05
-7.09292e-05
-5.88583e-05
-7.18464e-05
-8.83728e-05
-8.42609e-05
-3.90248e-05
-8.04456e-05
-7.93506e-05
-9.39137e-05
-1.33405e-05
-8.58539e-05
-7.01526e-05
-0.000103242
2.0443e-05
-9.01372e-05
-6.10155e-05
-0.000114157
6.296e-05
-9.24121e-05
-6.00309e-05
-0.000124154
0.000105106
-9.08198e-05
-6.95345e-05
-0.00012778
0.000132423
-9.63581e-05
-4.38695e-05
-0.000102753
6.14801e-05
-0.000153769
0.000177304
5.45473e-06
-0.000358508
-0.000368209
0.00103615
0.000353464
-0.00191692
-0.000666338
0.00276866
-0.000494386
-0.000121251
0.00233505
-0.00783987
-0.00387713
0.0163133
0.00217788
-0.0150766
-0.00226184
0.0107504
0.00564763
-0.0215478
-0.00454972
0.0257293
-0.0125037
0.0290397
0.0341781
-0.131222
-0.0246652
0.157728
-0.00124148
-0.0546151
0.00495952
-0.0298291
-0.021274
0.0717461
0.0110284
-0.0891146
-0.0304425
0.12191
0.0573161
-0.225242
0.000154336
0.144437
-0.00531392
0.0288763
0.0126042
-0.0634708
-0.0397974
0.137267
0.0336096
-0.20087
-0.0392733
0.20817
0.0366696
-0.187238
0.0688198
-0.113662
-0.0725765
0.382013
-0.0309662
-0.0808221
0.0512791
-0.2436
-0.0312706
0.214335
-0.0664174
0.117245
0.0575779
-0.336563
0.0400806
0.0242501
-0.0426752
0.229627
0.00238217
0.000763264
0.000355135
-0.000711833
0.000820683
0.000338232
0.000844867
0.000325193
0.000859057
0.000309178
0.000867615
0.000288628
0.000869519
0.000265908
0.000862974
0.000243823
0.000849057
0.000226897
0.000826987
0.000222261
0.00079414
0.000226332
0.00074895
0.000225058
0.000693661
0.000204718
0.000634049
0.000163675
0.000575453
0.000112412
0.000520118
6.22589e-05
0.00046792
1.83086e-05
0.000418048
-1.81919e-05
0.000369334
-4.58151e-05
0.000319941
-6.36522e-05
0.000268039
-7.41189e-05
0.00021318
-8.26314e-05
0.000156804
-9.38735e-05
0.000101295
-0.000108752
4.86021e-05
-0.000124788
-3.73737e-07
-0.000138665
-4.55182e-05
-0.000148201
-8.69658e-05
-0.00015285
-0.000124705
-0.0001534
-0.000158374
-0.000151461
-0.00018726
-0.000148622
-0.000210519
-0.000145643
-0.000227558
-0.000142019
-0.000238311
-0.000136565
-0.000243246
-0.000128145
-0.000243084
-0.000116599
-0.000238539
-0.000102452
-0.000230099
-8.69519e-05
-0.000218115
-7.08968e-05
-0.000202794
-5.52224e-05
-0.000184453
-3.98102e-05
-0.000163367
-2.52801e-05
-0.000140044
-1.10552e-05
-0.000114854
1.80862e-06
-8.85053e-05
1.4239e-05
-6.13767e-05
2.43285e-05
-3.43434e-05
3.35542e-05
-7.6976e-06
3.89943e-05
1.74471e-05
4.34542e-05
4.09676e-05
4.25876e-05
6.14739e-05
4.11555e-05
7.91944e-05
3.28219e-05
9.23762e-05
2.56876e-05
0.000101874
1.05793e-05
0.000105673
-6.07483e-08
0.000105872
-2.00966e-05
0.000100191
-3.08914e-05
9.22781e-05
-5.29764e-05
7.90699e-05
-5.96841e-05
6.58887e-05
-8.1725e-05
4.80362e-05
-8.15083e-05
3.2576e-05
-0.000103044
1.22957e-05
-9.34352e-05
-3.12558e-06
-0.000115159
-2.38413e-05
-9.4647e-05
-3.62229e-05
-0.000119353
-5.48299e-05
-8.609e-05
-6.14248e-05
-0.00011577
-7.71925e-05
-6.60038e-05
-7.77042e-05
-0.000103966
-9.2434e-05
-3.59005e-05
-8.78353e-05
-8.92886e-05
-0.0001045
1.16878e-06
-9.51638e-05
-7.62562e-05
-0.00011727
4.74684e-05
-0.000101922
-6.70738e-05
-0.000132972
0.000103743
-0.000106712
-7.28387e-05
-0.000148614
0.000160606
-0.000107162
-9.41693e-05
-0.000157512
0.000199666
-0.0001169
-6.3921e-05
-0.000131205
9.53759e-05
-0.000191812
0.000256031
3.36087e-06
-0.000538198
-0.000468762
0.00155037
0.000450263
-0.00288543
-0.00087665
0.0041556
-0.000520817
-0.000472631
0.00278517
-0.011148
-0.00437223
0.0234411
0.00298158
-0.0224398
-0.00313668
0.0171288
0.00701626
-0.0322218
-0.00676731
0.0401105
-0.0140137
0.0360256
0.0422102
-0.187495
-0.0311058
0.231135
0.00201745
-0.0879584
0.00401716
-0.0312178
-0.0278459
0.102569
0.0104874
-0.126433
-0.0379555
0.169934
0.0736637
-0.353132
-0.000445834
0.218689
-0.000662325
0.0286772
0.0138058
-0.0769742
-0.0524363
0.202388
0.0374718
-0.290596
-0.0502445
0.289152
0.0528964
-0.291303
0.080378
-0.140293
-0.094238
0.556452
-0.0333644
-0.139883
0.0615836
-0.339552
-0.0439455
0.320818
-0.0794217
0.152616
0.073379
-0.477806
0.044047
0.0532366
-0.0557606
0.329673
-0.00491667
0.000796758
0.000361728
-0.000749473
0.000856284
0.000350528
0.000882041
0.000343641
0.000897987
0.000331368
0.000907916
0.000312703
0.000911344
0.000290874
0.00090719
0.00026875
0.000896627
0.00025
0.000882181
0.00024068
0.000860819
0.000244793
0.000828242
0.000249125
0.000782235
0.000236693
0.000725766
0.000199826
0.000664501
0.000146419
0.000602664
8.99939e-05
0.000541992
3.85396e-05
0.000483187
-5.75217e-06
0.000426499
-4.10778e-05
0.000370912
-6.50466e-05
0.000314162
-7.85715e-05
0.000254545
-8.75866e-05
0.000192605
-9.9121e-05
0.000130803
-0.000115978
7.17224e-05
-0.00013563
1.67845e-05
-0.000153455
-3.37078e-05
-0.00016615
-7.98931e-05
-0.000172824
-0.000121842
-0.00017441
-0.000159325
-0.000172869
-0.000191745
-0.000170226
-0.000218238
-0.000167603
-0.000238064
-0.000164494
-0.000250996
-0.000159323
-0.000257474
-0.000150422
-0.000258313
-0.000137407
-0.000254362
-0.000120917
-0.000246195
-0.000102614
-0.0002342
-8.35753e-05
-0.000218581
-6.5014e-05
-0.000199663
-4.67575e-05
-0.000177719
-2.95772e-05
-0.000153293
-1.27105e-05
-0.000126767
2.49884e-06
-9.89136e-05
1.72595e-05
-7.01195e-05
2.91332e-05
-4.13463e-05
4.00463e-05
-1.28735e-05
4.62658e-05
1.40554e-05
5.14399e-05
3.93602e-05
4.99752e-05
6.14756e-05
4.80158e-05
8.07465e-05
3.73584e-05
9.51734e-05
2.8456e-05
0.00010582
9.39929e-06
0.000110318
-3.74486e-06
0.000111145
-2.90138e-05
0.000105538
-4.22899e-05
9.77596e-05
-7.02831e-05
8.40521e-05
-7.83592e-05
7.0653e-05
-0.000106406
5.18389e-05
-0.000105414
3.59645e-05
-0.000132554
1.43141e-05
-0.000118823
-1.58039e-06
-0.000145669
-2.39952e-05
-0.000117167
-3.66457e-05
-0.000147696
-5.71581e-05
-0.000102467
-6.36087e-05
-0.000139947
-8.15951e-05
-7.34935e-05
-8.15475e-05
-0.000122607
-9.91272e-05
-3.2342e-05
-9.35502e-05
-0.000102465
-0.000114166
1.75286e-05
-0.000103278
-8.57006e-05
-0.000131129
7.87594e-05
-0.000113091
-7.68589e-05
-0.000152573
0.000152242
-0.000121064
-9.12301e-05
-0.000175125
0.000228102
-0.000124331
-0.000128044
-0.000190929
0.000283318
-0.00013901
-9.46952e-05
-0.000165107
0.000141608
-0.000231967
0.000341841
-5.44387e-06
-0.000748871
-0.000570945
0.00216114
0.000540375
-0.00405024
-0.00110113
0.00585998
-0.000510678
-0.00105381
0.00320341
-0.0148628
-0.00531794
0.0318684
0.00422792
-0.0319256
-0.00417981
0.0257985
0.00862501
-0.0459177
-0.0092998
0.0586775
-0.0151415
0.0415823
0.0497791
-0.252459
-0.0374624
0.31848
0.00681753
-0.132462
0.00247662
-0.0262585
-0.0346061
0.13855
0.00858445
-0.168539
-0.0456486
0.223714
0.0902653
-0.478403
-0.00085103
0.309907
0.00723645
0.0201431
0.0146122
-0.083354
-0.0659294
0.281733
0.039334
-0.395713
-0.0627107
0.399793
0.0714789
-0.426466
0.08985
-0.157794
-0.11654
0.762544
-0.0343294
-0.220246
0.0703024
-0.445245
-0.0574478
0.44958
-0.0907746
0.185858
0.088418
-0.649444
0.0453559
0.0959822
-0.0691374
0.444347
-0.0185888
0.000834166
0.000369409
-0.000787329
0.000897449
0.0003613
0.000925077
0.000358329
0.000943014
0.00034908
0.000954677
0.000332457
0.000959588
0.000311924
0.00095668
0.000290082
0.000947776
0.000269557
0.00093626
0.000255485
0.00092313
0.000253948
0.000902973
0.000259272
0.000870324
0.000253528
0.000823555
0.000224521
0.000766012
0.000175025
0.000702363
0.000117767
0.00063583
6.272e-05
0.000568673
1.31134e-05
0.000503036
-2.92807e-05
0.00043984
-6.07748e-05
0.000377531
-7.95144e-05
0.000313368
-9.00481e-05
0.000246299
-0.000101149
0.000178132
-0.000118575
0.000111943
-0.000140997
4.99514e-05
-0.000162771
-7.07006e-06
-0.000179089
-5.91074e-05
-0.000188373
-0.000106223
-0.000191577
-0.000148307
-0.000190897
-0.000184982
-0.00018869
-0.000215519
-0.000186529
-0.000239081
-0.000184139
-0.000255198
-0.000179708
-0.000264146
-0.000170941
-0.000266768
-0.000157032
-0.000264059
-0.000138606
-0.000256724
-0.00011776
-0.000245226
-9.59053e-05
-0.000229782
-7.45975e-05
-0.000210732
-5.36009e-05
-0.000188343
-3.38699e-05
-0.000163194
-1.44113e-05
-0.000135668
3.09333e-06
-0.000106608
2.02089e-05
-7.63977e-05
3.38659e-05
-4.60902e-05
4.65455e-05
-1.5935e-05
5.3546e-05
1.26728e-05
5.95599e-05
3.97087e-05
5.7501e-05
6.33914e-05
5.51998e-05
8.42144e-05
4.21786e-05
9.98828e-05
3.17368e-05
0.000111724
8.62628e-06
0.000116939
-6.70051e-06
0.000118468
-3.74025e-05
0.000112954
-5.27466e-05
0.000105406
-8.70379e-05
9.11985e-05
-9.59909e-05
7.76879e-05
-0.000130751
5.78712e-05
-0.000128428
4.17028e-05
-0.000162317
1.85966e-05
-0.000143746
2.37762e-06
-0.000177339
-2.1887e-05
-0.000139744
-3.46287e-05
-0.000178222
-5.73002e-05
-0.000119176
-6.33979e-05
-0.000167085
-8.40049e-05
-8.09661e-05
-8.31555e-05
-0.000144586
-0.000104196
-2.77502e-05
-9.73505e-05
-0.000119175
-0.000122809
3.66522e-05
-0.000109985
-9.88549e-05
-0.000144823
0.000115582
-0.000123533
-9.08976e-05
-0.000173162
0.000210235
-0.00013557
-0.000115906
-0.00020422
0.000310192
-0.000142781
-0.000172194
-0.000229043
0.000387012
-0.000163601
-0.000138092
-0.000206171
0.000205049
-0.000275522
0.000431197
-2.3852e-05
-0.000984013
-0.000675853
0.00286141
0.00061859
-0.00540064
-0.0013354
0.00787851
-0.0004718
-0.00190185
0.0035566
-0.018895
-0.00617108
0.0415168
0.00504932
-0.0431322
-0.00564249
0.0367328
0.0121487
-0.0639762
-0.012076
0.0834729
-0.0159476
0.0452249
0.0565718
-0.325041
-0.0436109
0.418776
0.0130625
-0.189362
0.000557444
-0.013132
-0.0409863
0.178938
0.00536995
-0.213745
-0.0544107
0.28297
0.105784
-0.641529
-0.00100171
0.41681
0.0186023
5.85798e-05
0.0154781
-0.0792104
-0.0793396
0.3753
0.0389772
-0.513874
-0.0765521
0.515814
0.0913166
-0.595353
0.0973018
-0.162903
-0.138318
0.99792
-0.0342277
-0.322405
0.0770954
-0.557714
-0.0709093
0.598663
-0.100045
0.214987
0.101462
-0.857666
0.043835
0.153353
-0.0820861
0.570501
-0.0404847
0.00087341
0.000376076
-0.000826852
0.000940971
0.000369565
0.000970499
0.000369138
0.000990469
0.000362352
0.00100442
0.000347892
0.0010118
0.00032916
0.00101102
0.000308348
0.00100335
0.000287049
0.000992643
0.000269088
0.000982682
0.000259805
0.000970526
0.000260928
0.000949769
0.000257689
0.00091505
0.000236161
0.000866021
0.00019401
0.000805995
0.000140642
0.000738547
8.62929e-05
0.000666672
3.50188e-05
0.000593777
-1.19102e-05
0.000523023
-5.0643e-05
0.000454947
-7.65072e-05
0.000386971
-9.06372e-05
0.000316359
-0.000101546
0.000243304
-0.000118033
0.000170693
-0.000141519
0.000101563
-0.000166408
3.74771e-05
-0.000186313
-2.11511e-05
-0.000198538
-7.41934e-05
-0.00020385
-0.000121508
-0.000204545
-0.000162928
-0.000203073
-0.000198037
-0.000201353
-0.000226084
-0.000199581
-0.00024636
-0.000196052
-0.000258816
-0.000187922
-0.000264163
-0.000173769
-0.000263491
-0.000153956
-0.000257668
-0.000130957
-0.000247284
-0.000106547
-0.000232602
-8.27109e-05
-0.000214
-5.9151e-05
-0.000191735
-3.70569e-05
-0.000166417
-1.51544e-05
-0.00013842
4.47822e-06
-0.000108665
2.38614e-05
-7.75131e-05
3.91701e-05
-4.61099e-05
5.35695e-05
-1.46416e-05
6.11939e-05
1.53275e-05
6.80415e-05
4.38479e-05
6.5241e-05
6.88715e-05
6.26942e-05
9.10782e-05
4.71402e-05
0.000107817
3.53307e-05
0.000120752
7.92824e-06
0.000126556
-9.281e-06
0.000128747
-4.57486e-05
0.000123226
-6.27129e-05
0.000115922
-0.000103822
0.000101118
-0.000113036
8.75417e-05
-0.000155336
6.6603e-05
-0.000150896
5.02315e-05
-0.000192823
2.55235e-05
-0.000168356
9.12977e-06
-0.000210541
-1.7193e-05
-0.000162294
-2.98261e-05
-0.000211207
-5.49786e-05
-0.000135913
-6.047e-05
-0.000197448
-8.41889e-05
-8.79043e-05
-8.22283e-05
-0.000170193
-0.000107471
-2.13267e-05
-9.89776e-05
-0.000139749
-0.000130363
5.97058e-05
-0.000115105
-0.000116161
-0.00015845
0.000159528
-0.000133214
-0.000109847
-0.000195105
0.000279901
-0.000150473
-0.000147767
-0.00023668
0.000409938
-0.000163216
-0.000227877
-0.000273219
0.000514942
-0.000192023
-0.000196174
-0.000256606
0.000291298
-0.000324478
0.000520303
-5.54763e-05
-0.00123588
-0.000785598
0.00364307
0.000678815
-0.00692383
-0.0015773
0.0102004
-0.000414654
-0.00304181
0.00382551
-0.0231441
-0.00694293
0.0522004
0.00592686
-0.0559662
-0.00608496
0.0490652
0.0110488
-0.0819884
-0.0150313
0.110252
-0.0170914
0.0467978
0.0622978
-0.404333
-0.0495302
0.530709
0.0204586
-0.259569
-0.00143429
0.00938134
-0.0462367
0.222529
0.00114625
-0.259917
-0.0639063
0.347518
0.119417
-0.824083
-0.00118326
0.53752
0.0331958
-0.034827
0.0170962
-0.0620755
-0.0912886
0.482364
0.036425
-0.641425
-0.0922118
0.64352
0.110781
-0.799393
0.103009
-0.154267
-0.158137
1.25882
-0.0334945
-0.445053
0.0818748
-0.674302
-0.0833988
0.765087
-0.107087
0.238727
0.111817
-1.08954
0.0394857
0.225436
-0.093824
0.704055
-0.0664577
0.000914413
0.000380345
-0.000868222
0.00098645
0.00037535
0.00101744
0.000376829
0.00103893
0.000372025
0.00105499
0.000359624
0.00106521
0.000342862
0.00106744
0.000323524
0.00106188
0.000302475
0.00105189
0.000282053
0.00104148
0.000266727
0.00103229
0.000259742
0.0010185
0.000254716
0.000993495
0.000237702
0.000953751
0.000203139
0.000900391
0.000156081
0.000836385
0.00010536
0.000764539
5.55432e-05
0.000688229
7.38752e-06
0.000611856
-3.64e-05
0.000538528
-6.98295e-05
0.000467482
-8.9904e-05
0.000395326
-0.000102263
0.000320135
-0.000117174
0.000243498
-0.000139685
0.000168731
-0.000165929
9.82941e-05
-0.00018858
3.32507e-05
-0.000203525
-2.58839e-05
-0.000211065
-7.8677e-05
-0.000213524
-0.000124944
-0.000213181
-0.000164625
-0.000211933
-0.000197334
-0.000210434
-0.00022232
-0.000207521
-0.000239139
-0.00020017
-0.000248134
-0.000186309
-0.000250321
-0.000165736
-0.000246694
-0.000141099
-0.000238012
-0.000114486
-0.000224642
-8.83944e-05
-0.000207037
-6.24726e-05
-0.000185457
-3.82332e-05
-0.000160545
-1.40717e-05
-0.000132656
7.4615e-06
-0.000102798
2.89759e-05
-7.12936e-05
4.57311e-05
-3.93758e-05
6.17286e-05
-7.11333e-06
6.96874e-05
2.3752e-05
7.72454e-05
5.33818e-05
7.34001e-05
7.93958e-05
7.06224e-05
0.000102703
5.22381e-05
0.000120216
3.91932e-05
0.000134031
7.11948e-06
0.000140183
-1.16864e-05
0.000142902
-5.44124e-05
0.000137177
-7.25116e-05
0.000130057
-0.000121125
0.000114471
-0.000129852
0.000100826
-0.000180691
7.85653e-05
-0.000173098
6.20562e-05
-0.000224564
3.55308e-05
-0.000192769
1.91155e-05
-0.000245678
-9.54462e-06
-0.000184681
-2.18445e-05
-0.000246958
-4.98867e-05
-0.000152269
-5.44673e-05
-0.00023132
-8.19039e-05
-9.36334e-05
-7.8445e-05
-0.000199755
-0.000108796
-1.20718e-05
-9.8169e-05
-0.000164602
-0.000136805
8.81118e-05
-0.000118473
-0.000138199
-0.000172193
0.000212542
-0.000142152
-0.000134539
-0.000218915
0.000363889
-0.000166139
-0.0001879
-0.000273503
0.000530982
-0.000186574
-0.000296466
-0.000325121
0.00067197
-0.000226063
-0.000270903
-0.000319002
0.000406727
-0.000381604
0.000605562
-0.000104401
-0.0014954
-0.000903583
0.00449728
0.000714486
-0.00860332
-0.00182678
0.0128078
-0.000351055
-0.00448571
0.00399446
-0.0275057
-0.00762228
0.0637313
0.00675495
-0.0703062
-0.0068566
0.0629945
0.0115335
-0.101682
-0.0181351
0.140583
-0.0145993
0.0431693
0.0667111
-0.485839
-0.05533
0.652944
0.0284712
-0.343587
-0.00316297
0.0416136
-0.04946
0.26756
-0.00354836
-0.30457
-0.0740932
0.417547
0.130023
-1.02827
-0.00199576
0.66965
0.0501097
-0.0874527
0.0202678
-0.0311865
-0.0998688
0.601108
0.0326085
-0.773734
-0.10974
0.78874
0.127601
-1.03779
0.107287
-0.133114
-0.174441
1.54032
-0.0325216
-0.584931
0.0848677
-0.792985
-0.094073
0.945257
-0.111793
0.256612
0.118404
-1.32054
0.0324836
0.311087
-0.103597
0.840393
-0.100656
0.000955619
0.000381671
-0.000910444
0.00103163
0.000377764
0.00106426
0.000380998
0.00108721
0.000378153
0.00110512
0.000367873
0.00111805
0.00035316
0.00112352
0.000335449
0.00112076
0.000315258
0.00111187
0.000293882
0.00110069
0.000274403
0.0010906
0.000259604
0.00107881
0.000249561
0.00105887
0.000233913
0.00102585
0.000205165
0.000978949
0.000164524
0.000920164
0.000118432
0.000851702
7.15923e-05
0.000775991
2.47408e-05
0.000697095
-2.10785e-05
0.000619786