/*--------------------------------*- C++ -*----------------------------------*\
| =========                 |                                                 |
| \\      /  F ield         | OpenFOAM: The Open Source CFD Toolbox           |
|  \\    /   O peration     | Version:  2412                                  |
|   \\  /    A nd           | Website:  www.openfoam.com                      |
|    \\/     M anipulation  |                                                 |
\*---------------------------------------------------------------------------*/
FoamFile
{
    version     2.0;
    format      ascii;
    arch        "LSB;label=32;scalar=64";
    class       surfaceScalarField;
    location    "1.135";
    object      phi;
}
// * * * * * * * * * * * * * * * * * * * * * * * * * * * * * * * * * * * * * //

dimensions      [0 3 -1 0 0 0 0];

oriented        oriented;

internalField   nonuniform List<scalar> 
24930
(
0.0179746
0.012767
-0.0307429
0.0106055
0.00736904
0.00695277
0.00365278
0.00517579
0.00177699
0.00420328
0.000972507
0.00358012
0.000623166
0.00313403
0.000446096
0.00279441
0.000339622
0.00252516
0.000269262
0.00230518
0.000219976
0.00212134
0.000183852
0.00196488
0.000156462
0.00182976
0.000135125
0.00171163
0.000118136
0.00160727
0.00010436
0.00151426
9.30131e-05
0.00143072
8.35396e-05
0.00135519
7.5537e-05
0.00128649
6.87065e-05
0.00122366
6.28231e-05
0.00116595
5.77138e-05
0.00111271
5.32443e-05
0.0010634
4.93088e-05
0.00101758
4.58229e-05
0.000974864
4.27185e-05
0.000934925
3.99402e-05
0.000897482
3.74428e-05
0.000862294
3.51885e-05
0.000829148
3.31461e-05
0.000797859
3.12893e-05
0.000768262
2.95959e-05
0.000740215
2.80472e-05
0.000713587
2.66271e-05
0.000688265
2.53217e-05
0.000664144
2.41193e-05
0.000641134
2.30093e-05
0.00061915
2.1983e-05
0.000598117
2.10324e-05
0.000577965
2.01508e-05
0.000558632
1.9332e-05
0.00054006
1.85711e-05
0.000522196
1.78629e-05
0.000504992
1.72039e-05
0.000488401
1.65897e-05
0.000472383
1.60178e-05
0.000456898
1.54845e-05
0.000441909
1.49881e-05
0.000427384
1.45253e-05
0.000413288
1.40951e-05
0.000399594
1.36945e-05
0.000386271
1.33231e-05
0.000373292
1.29783e-05
0.000360633
1.26596e-05
0.000348267
1.23655e-05
0.000336173
1.20946e-05
0.000324326
1.18471e-05
0.000312706
1.16196e-05
0.00030129
1.14158e-05
0.000290062
1.12281e-05
0.000278996
1.10658e-05
0.000268081
1.09143e-05
0.000257289
1.07923e-05
0.000246615
1.0673e-05
0.000236024
1.05907e-05
0.000225524
1.04993e-05
0.000215066
1.04572e-05
0.000204678
1.0388e-05
0.00019429
1.03874e-05
0.000183956
1.0333e-05
0.00017358
1.03756e-05
0.000163254
1.03253e-05
0.00015284
1.04137e-05
0.000142488
1.0352e-05
0.000131997
1.04903e-05
0.000121602
1.03954e-05
0.000111011
1.05904e-05
0.00010058
1.04315e-05
8.98851e-05
1.06945e-05
7.94517e-05
1.04335e-05
6.86785e-05
1.07734e-05
5.82948e-05
1.03839e-05
4.75391e-05
1.07559e-05
3.72073e-05
1.03321e-05
2.67621e-05
1.04456e-05
1.62442e-05
1.05182e-05
6.95344e-06
9.29118e-06
-4.9802e-06
1.19339e-05
-1.15254e-05
6.54576e-06
-2.2303e-05
1.07779e-05
-3.55705e-05
1.32679e-05
-3.21581e-05
-3.41238e-06
-6.15213e-05
2.93638e-05
-4.05397e-05
-2.09813e-05
-8.84852e-05
4.7946e-05
-5.69301e-05
-3.15516e-05
-6.35953e-05
6.66197e-06
-0.000144978
8.1385e-05
-3.37583e-05
-0.000111222
-0.000185874
0.000152115
-7.41928e-05
-0.000111678
-0.00019249
0.000118293
-0.000165183
-2.73005e-05
-0.000106106
-5.90807e-05
-0.000287758
0.000181655
-5.62801e-05
-0.000231478
-0.000311351
0.000255071
-0.000118117
-0.000193231
-0.000306054
0.00018793
-0.000371441
6.53886e-05
-9.30644e-05
-0.00027838
-0.000343105
0.000250036
-0.000291124
-5.19763e-05
-0.000167571
-0.000123552
-0.000188209
2.06355e-05
-0.000489389
0.000301181
-0.000215223
-0.000274163
-0.000118278
-9.69457e-05
-0.000389037
0.00027076
-0.000327562
-6.14739e-05
-0.000162906
0.0336905
0.016336
-0.0372595
0.0277495
0.01331
0.0221933
0.00920901
0.0179166
0.00605368
0.0148689
0.00402022
0.0127074
0.00278463
0.0111197
0.00203381
0.00990221
0.00155712
0.00893468
0.0012368
0.00814411
0.00101056
0.00748372
0.000844251
0.00692219
0.000717996
0.00643773
0.000619588
0.00601466
0.000541211
0.00564138
0.000477648
0.0053091
0.000425298
0.00501105
0.000381603
0.00474189
0.000344704
0.00449737
0.000313224
0.00427408
0.000286122
0.0040692
0.000262598
0.00388042
0.000242031
0.0037058
0.000223932
0.00354371
0.000207909
0.00339278
0.000193649
0.00325183
0.000180894
0.00311984
0.000169434
0.00299593
0.000159096
0.00287934
0.000149735
0.0027694
0.000141229
0.00266552
0.000133475
0.00256718
0.000126387
0.00247392
0.000119891
0.00238532
0.000113922
0.00230101
0.000108426
0.00222066
0.000103355
0.00214397
9.8667e-05
0.00207068
9.43264e-05
0.00200052
9.0302e-05
0.00193329
8.65652e-05
0.00186877
8.30928e-05
0.00180677
7.98618e-05
0.00174711
7.68547e-05
0.00168965
7.40528e-05
0.00163422
7.14431e-05
0.0015807
6.90098e-05
0.00152894
6.67438e-05
0.00147883
6.46312e-05
0.00143026
6.26659e-05
0.00138312
6.0836e-05
0.00133731
5.91372e-05
0.00129272
5.75597e-05
0.00124928
5.60998e-05
0.0012069
5.47508e-05
0.00116549
5.35073e-05
0.00112497
5.23677e-05
0.00108526
5.13218e-05
0.0010463
5.03771e-05
0.00100802
4.95125e-05
0.000970331
4.87515e-05
0.000933191
4.80537e-05
0.000896514
4.74681e-05
0.000860263
4.69225e-05
0.000824346
4.65069e-05
0.000788747
4.60975e-05
0.000753354
4.5849e-05
0.000718183
4.55572e-05
0.000683095
4.54747e-05
0.000648151
4.52757e-05
0.000613168
4.53576e-05
0.000578276
4.52165e-05
0.000543228
4.54609e-05
0.000508251
4.53283e-05
0.000473007
4.57342e-05
0.000437865
4.55367e-05
0.000402344
4.61112e-05
0.000367036
4.57392e-05
0.000331216
4.65152e-05
0.000295844
4.58055e-05
0.00025977
4.68481e-05
0.000224543
4.56106e-05
0.000188426
4.68738e-05
0.000153476
4.52824e-05
0.000118136
4.57866e-05
8.26731e-05
4.5982e-05
5.11344e-05
4.08309e-05
1.04779e-05
5.2591e-05
-9.10761e-06
2.61321e-05
-5.23783e-05
5.40494e-05
-8.58299e-05
4.672e-05
-9.00447e-05
8.03627e-07
-0.000171686
0.000111005
-0.000118146
-7.45193e-05
-0.000274473
0.000204273
-0.000153827
-0.000152197
-0.00022349
7.63264e-05
-0.000405345
0.000263237
-0.000118889
-0.000397678
-0.000550759
0.000583985
-0.000236531
-0.000425904
-0.000632248
0.000514009
-0.000479967
-0.00017958
-0.000399109
-0.000139931
-0.000835504
0.00061805
-0.000201643
-0.000865339
-0.000931936
0.000985363
-0.000377288
-0.000747879
-0.0010073
0.000817938
-0.00110562
0.000163713
-0.000348151
-0.00103585
-0.00108159
0.000983477
-0.000892552
-0.000241018
-0.000513817
-0.000502289
-0.000658717
0.000165539
-0.00146906
0.00111152
-0.000645067
-0.00109816
-0.000431599
-0.00031041
-0.00122679
0.00106595
-0.000953803
-0.000334455
-0.000654033
0.041462
0.0160329
-0.041159
0.0391692
0.0156029
0.0352361
0.0131422
0.0309468
0.010343
0.0270297
0.00793732
0.0237391
0.00607523
0.0210636
0.00470932
0.0188941
0.00372661
0.0171159
0.00301503
0.0156362
0.00249019
0.0143862
0.0020943
0.0133154
0.0017888
0.0123869
0.00154808
0.0115732
0.00135488
0.0108536
0.00119732
0.0102119
0.00106699
0.00963564
0.000957865
0.00911486
0.000865482
0.00864158
0.000786514
0.00820928
0.000718425
0.00781262
0.000659258
0.00744717
0.000607483
0.00710922
0.000561888
0.00679563
0.000521504
0.00650373
0.000485546
0.00623125
0.000453375
0.00597622
0.000424466
0.00573693
0.000398383
0.00551191
0.000374763
0.00529983
0.000353299
0.00509957
0.000333735
0.00491011
0.000315851
0.00473054
0.00029946
0.00456006
0.000284401
0.00439795
0.000270535
0.00424356
0.000257741
0.00409631
0.000245916
0.00395566
0.000234968
0.00382115
0.000224817
0.00369232
0.000215392
0.00356877
0.000206634
0.00345015
0.000198485
0.0033361
0.000190899
0.00322632
0.000183831
0.00312052
0.000177247
0.00301842
0.000171107
0.00291978
0.000165387
0.00282435
0.000160054
0.00273193
0.00015509
0.0026423
0.000150467
0.00255526
0.000146172
0.00247064
0.000142182
0.00238825
0.000138486
0.00230794
0.000135068
0.00222953
0.000131914
0.00215288
0.000129019
0.00207784
0.000126361
0.00200426
0.000123951
0.00193203
0.000121749
0.00186098
0.000119793
0.00179102
0.000118013
0.001722
0.000116489
0.00165383
0.000115096
0.00158635
0.000113985
0.0015195
0.000112946
0.00145311
0.000112237
0.00138716
0.000111511
0.00132144
0.000111193
0.00125598
0.00011073
0.00119055
0.00011079
0.00112524
0.000110519
0.00105977
0.000110936
0.000994339
0.000110757
0.000928564
0.000111508
0.000862831
0.00011127
0.000796594
0.000112347
0.000730522
0.000111812
0.000663762
0.000113275
0.000597515
0.000112052
0.000530277
0.000114087
0.000464257
0.000111631
0.000396835
0.000114296
0.000331371
0.000110746
0.000265114
0.000112045
0.000198859
0.000112238
0.000139224
0.000100466
6.40533e-05
0.000127763
2.51972e-05
6.49891e-05
-5.82474e-05
0.000137495
-0.000112718
0.000101191
-0.000133757
2.18438e-05
-0.000270931
0.000248178
-0.000189342
-0.000156105
-0.000466964
0.000481893
-0.000245816
-0.000373345
-0.000408477
0.000238991
-0.0006681
0.000522856
-0.000214382
-0.000851395
-0.000941219
0.00131082
-0.000411394
-0.000955729
-0.00113362
0.00123624
-0.00081985
-0.000493351
-0.000770306
-0.000189474
-0.00142178
0.00126952
-0.000371652
-0.00191547
-0.00160911
0.00222282
-0.000655205
-0.00170179
-0.00182095
0.00198369
-0.00188912
0.000231867
-0.000678176
-0.0022468
-0.00192366
0.00222896
-0.00152279
-0.000641896
-0.000908829
-0.00111625
-0.00122895
0.000485662
-0.00251132
0.00239389
-0.00108394
-0.00252554
-0.000833229
-0.000561115
-0.00215621
0.00238893
-0.00157356
-0.000917108
-0.0015107
0.0459248
0.0147337
-0.0446256
0.0460063
0.0155214
0.0444251
0.0147234
0.0416988
0.0130694
0.0384526
0.0111835
0.0351456
0.00938228
0.0320453
0.00780959
0.0292662
0.0065057
0.0268271
0.00545413
0.0247019
0.00461541
0.0228494
0.00394681
0.0212277
0.00341058
0.0197994
0.00297636
0.0185334
0.00262089
0.017404
0.00232667
0.0163905
0.00208056
0.0154757
0.00187264
0.0146458
0.0016954
0.0138893
0.00154305
0.0131966
0.00141108
0.0125599
0.00129598
0.0119724
0.00119495
0.0114286
0.00110576
0.0109235
0.00102659
0.0104531
0.000955969
0.0100137
0.000892694
0.00960245
0.000835763
0.00921649
0.000784343
0.00885352
0.000737736
0.00851146
0.000695352
0.0081885
0.000656695
0.00788301
0.000621337
0.00759356
0.000588916
0.00731884
0.000559116
0.0070577
0.000531669
0.00680911
0.000506336
0.00657211
0.000482914
0.00634585
0.000461223
0.00612956
0.000441107
0.00592252
0.000422427
0.00572409
0.000405063
0.00553367
0.000388903
0.00535071
0.000373858
0.0051747
0.000359836
0.00500518
0.000346768
0.0048417
0.000334582
0.00468387
0.000323222
0.00453129
0.00031263
0.00438362
0.000302763
0.00424051
0.000293573
0.00410166
0.000285027
0.00396675
0.000277085
0.00383552
0.000269722
0.00370768
0.000262907
0.00358298
0.000256613
0.00346117
0.000250827
0.00334202
0.000245511
0.0032253
0.000240676
0.00311079
0.00023626
0.00299826
0.000232315
0.00288754
0.000228733
0.0027784
0.00022563
0.00267068
0.000222819
0.00256414
0.000220518
0.00245867
0.000218416
0.00235402
0.000216889
0.0022501
0.000215426
0.00214665
0.000214646
0.00204364
0.000213734
0.00194077
0.000213663
0.0018381
0.000213184
0.00173526
0.000213769
0.00163247
0.000213551
0.00152925
0.000214728
0.00142601
0.000214512
0.00132212
0.000216236
0.00121833
0.000215601
0.00111364
0.000217961
0.00100952
0.000216176
0.000904064
0.000219542
0.000800205
0.00021549
0.00069435
0.000220153
0.000591335
0.000213762
0.000486961
0.00021642
0.00038294
0.00021626
0.000288084
0.000195324
0.000171239
0.000244608
0.000105978
0.000130251
-2.66621e-05
0.000270136
-0.000103955
0.000178485
-0.00015166
6.95501e-05
-0.000349664
0.000446182
-0.00024507
-0.000260696
-0.000655231
0.000892051
-0.00032845
-0.000700127
-0.000611261
0.000521809
-0.000929974
0.000841563
-0.000315965
-0.0014654
-0.00135423
0.00234909
-0.000592444
-0.00171752
-0.00168921
0.00233301
-0.00118782
-0.000994744
-0.00122131
-0.000155995
-0.00204871
0.00209692
-0.000565245
-0.00339894
-0.002342
0.00399958
-0.000942795
-0.003101
-0.00274196
0.00378285
-0.0027205
0.000210384
-0.00109147
-0.00387582
-0.00286789
0.00400538
-0.0021691
-0.0013407
-0.00136375
-0.0019216
-0.00189585
0.00101778
-0.00360495
0.00410298
-0.00152365
-0.00460684
-0.00132427
-0.000760491
-0.00316068
0.00422534
-0.00216411
-0.00191367
-0.00277522
0.0493911
0.0135396
-0.048197
0.0503541
0.0145584
0.0503709
0.0147065
0.0493471
0.0140932
0.0475004
0.0130302
0.0451236
0.0117591
0.0424886
0.0104446
0.0398019
0.00919241
0.0371984
0.00805766
0.0347525
0.00706127
0.0324965
0.00620283
0.0304362
0.00547085
0.0285633
0.00484931
0.0268626
0.00432154
0.0253172
0.00387214
0.0239099
0.00348779
0.0226253
0.00315734
0.021449
0.00287163
0.0203689
0.0026232
0.019374
0.00240598
0.018455
0.00221503
0.0176036
0.00204633
0.0168128
0.00189656
0.0160764
0.00176301
0.0153889
0.0016434
0.0147458
0.00153587
0.0141427
0.00143884
0.0135761
0.00135097
0.0130426
0.00127116
0.0125396
0.00119844
0.0120643
0.001132
0.0116145
0.00107114
0.0111881
0.00101526
0.0107834
0.000963847
0.0103986
0.000916439
0.0100323
0.000872646
0.00968308
0.000832123
0.00934973
0.000794567
0.00903112
0.000759714
0.00872622
0.000727328
0.00843407
0.000697206
0.00815381
0.00066916
0.00788464
0.000643032
0.0076258
0.000618671
0.00737661
0.000595955
0.00713643
0.00057476
0.00690466
0.000554992
0.00668074
0.00053655
0.00646414
0.000519361
0.00625437
0.000503341
0.00605097
0.000488434
0.00585348
0.00047457
0.0056615
0.000461705
0.00547462
0.000449786
0.00529246
0.00043877
0.00511466
0.000428626
0.00494088
0.000419299
0.00477076
0.000410794
0.00460399
0.000403024
0.00444026
0.000396052
0.00427926
0.000389725
0.00412069
0.000384198
0.0039643
0.00037921
0.00380976
0.000375059
0.00365687
0.00037131
0.00350527
0.000368478
0.00335484
0.000365858
0.00320519
0.000364293
0.00305626
0.000362665
0.00290763
0.000362295
0.00275934
0.000361475
0.00261091
0.000362197
0.00246254
0.000361921
0.00231366
0.000363605
0.0021647
0.000363472
0.00201492
0.000366014
0.00186516
0.000365358
0.00171425
0.000368876
0.00156393
0.000366495
0.00141186
0.000371609
0.00126179
0.000365566
0.001109
0.000372945
0.000960032
0.000362729
0.000808937
0.000367516
0.000658808
0.000366389
0.00052007
0.000334063
0.000353171
0.000411509
0.000253671
0.000229752
6.4894e-05
0.000458915
-4.11386e-05
0.000284517
-0.000129313
0.000157727
-0.000393457
0.000710324
-0.000272907
-0.000381241
-0.000826819
0.00144596
-0.000392658
-0.00113429
-0.00082344
0.000952601
-0.00118199
0.0012001
-0.000419674
-0.00222772
-0.00178017
0.00370959
-0.00077255
-0.00272514
-0.00229104
0.0038515
-0.00158096
-0.00170483
-0.00175488
1.79471e-05
-0.00271153
0.00305357
-0.000785286
-0.00532519
-0.00312125
0.00633555
-0.00123125
-0.004991
-0.00376245
0.00631405
-0.00359107
3.90007e-05
-0.00159838
-0.00586851
-0.00390391
0.00631092
-0.00282273
-0.0024219
-0.00188652
-0.00285781
-0.00265415
0.00178542
-0.00473115
0.00617998
-0.00195687
-0.00738112
-0.00189967
-0.000817678
-0.004213
0.00653867
-0.00269679
-0.00342989
-0.00449127
0.0528496
0.0126416
-0.0519517
0.0538775
0.0135305
0.0545606
0.0140235
0.0546284
0.0140254
0.0540284
0.0136302
0.05283
0.0129575
0.0511624
0.0121122
0.0491723
0.0111826
0.0469943
0.0102357
0.044739
0.00931654
0.0424888
0.00845307
0.0402997
0.00765996
0.0382063
0.00694272
0.0362271
0.00630076
0.0343694
0.00572982
0.0326334
0.00522374
0.0310151
0.00477568
0.0295079
0.00437882
0.0281044
0.00402677
0.0267965
0.00371379
0.0255768
0.0034348
0.0244377
0.00318539
0.0233726
0.00296174
0.022375
0.0027606
0.0214392
0.00257914
0.0205601
0.00241496
0.019733
0.00226599
0.0189535
0.00213045
0.0182179
0.0020068
0.0175226
0.00189373
0.0168645
0.0017901
0.0162407
0.00169489
0.0156487
0.00160726
0.0150861
0.00152644
0.0145508
0.00145177
0.0140408
0.00138266
0.0135543
0.00131861
0.0130897
0.00125916
0.0126455
0.00120392
0.0122203
0.00115253
0.0118128
0.00110467
0.0114219
0.00106006
0.0110465
0.00101846
0.0106855
0.000979643
0.010338
0.000943411
0.0100032
0.000909578
0.00968022
0.000877996
0.00936826
0.000848508
0.00906662
0.000821
0.00877462
0.000795341
0.00849161
0.000771442
0.00821698
0.000749198
0.00795015
0.000728534
0.00769057
0.00070937
0.0074377
0.000691636
0.00719104
0.000675284
0.00695011
0.000660231
0.00671443
0.000646477
0.00648356
0.000633897
0.00625704
0.000622568
0.00603448
0.000612285
0.00581543
0.000603244
0.00559954
0.000595097
0.00538637
0.000588231
0.00517561
0.000582069
0.0049668
0.000577287
0.00475971
0.000572947
0.00455384
0.000570158
0.00434906
0.000567442
0.00414483
0.000566527
0.00394114
0.000565167
0.00373737
0.000565959
0.00353372
0.000565573
0.00332947
0.000567851
0.00312509
0.000567855
0.00291967
0.000571428
0.00271419
0.000570842
0.00250722
0.00057585
0.00230085
0.000572861
0.00209222
0.000580241
0.00188597
0.000571812
0.00167615
0.00058277
0.00147122
0.000567658
0.00126315
0.000575589
0.00105694
0.000572593
0.000863936
0.000527073
0.000637148
0.000638297
0.000493396
0.000373505
0.000239723
0.000712589
9.05562e-05
0.000433684
-4.86432e-05
0.000296928
-0.000382649
0.00104433
-0.00025606
-0.000507825
-0.000964798
0.0021547
-0.000424793
-0.0016743
-0.00103243
0.00156025
-0.00141163
0.00157929
-0.000519596
-0.00311975
-0.0022051
0.0053951
-0.000942108
-0.00398813
-0.00292578
0.00583517
-0.00199183
-0.00263878
-0.00236977
0.000395892
-0.00340346
0.00408725
-0.00103666
-0.00769199
-0.00393339
0.00923229
-0.00150994
-0.00741445
-0.00486588
0.00967
-0.00448881
-0.000338065
-0.00220823
-0.00814908
-0.00501578
0.00911847
-0.00347689
-0.00396081
-0.00248203
-0.00385266
-0.0034929
0.00279629
-0.00586659
0.00855366
-0.00237449
-0.0108732
-0.00254439
-0.000647763
-0.00527546
0.00926975
-0.00313754
-0.00556782
-0.00670571
0.05657
0.0119548
-0.0558831
0.0574232
0.0126773
0.0582193
0.0132274
0.0587454
0.0134993
0.0588792
0.0134963
0.058575
0.0132617
0.0578422
0.0128451
0.0567285
0.0122963
0.0553025
0.0116616
0.0536397
0.0109793
0.0518136
0.0102793
0.0498894
0.00958413
0.0479219
0.00891026
0.045954
0.00826862
0.0440179
0.00766596
0.0421359
0.00710569
0.0403229
0.00658877
0.0385873
0.00611438
0.0369335
0.00568061
0.0353624
0.00528485
0.0338731
0.00492416
0.0324629
0.00459553
0.0311287
0.004296
0.0298665
0.00402278
0.0286723
0.00377328
0.0275422
0.00354513
0.026472
0.00333619
0.0254579
0.00314453
0.0244962
0.00296845
0.0235836
0.00280641
0.0227166
0.00265706
0.0218923
0.00251918
0.0211079
0.0023917
0.0203606
0.00227367
0.0196482
0.00216424
0.0189682
0.00206264
0.0183186
0.0019682
0.0176974
0.00188032
0.0171029
0.00179847
0.0165333
0.00172215
0.015987
0.00165095
0.0154626
0.00158447
0.0149587
0.00152236
0.014474
0.00146432
0.0140073
0.00141006
0.0135576
0.00135933
0.0131237
0.00131191
0.0127046
0.00126758
0.0122994
0.00122617
0.0119073
0.0011875
0.0115273
0.00115145
0.0111586
0.00111784
0.0108006
0.00108659
0.0104524
0.00105756
0.0101133
0.00103067
0.00978279
0.00100584
0.00946008
0.000982941
0.00914457
0.00096198
0.00883569
0.00094278
0.00853282
0.000925439
0.00823542
0.000909679
0.00794291
0.000895753
0.00765481
0.000883203
0.00737051
0.000872526
0.00708961
0.000862969
0.00681149
0.000855404
0.00653582
0.000848613
0.00626195
0.000844025
0.00598967
0.000839724
0.00571826
0.000837934
0.00544767
0.000835754
0.00517712
0.000836509
0.00490677
0.000835922
0.00463573
0.000838886
0.00436451
0.000839081
0.00409199
0.000843949
0.00381928
0.00084355
0.00354466
0.000850474
0.00327062
0.000846897
0.00299366
0.000857198
0.00271948
0.000845997
0.00244066
0.000861591
0.00216788
0.000840434
0.00189065
0.000852826
0.00161649
0.000846749
0.00135677
0.000786795
0.00105843
0.000936639
0.00085801
0.000573925
0.000526591
0.00104401
0.000321329
0.000638945
0.000126861
0.000491399
-0.000290697
0.00146189
-0.000171917
-0.000626601
-0.00104655
0.00302933
-0.000405172
-0.00231568
-0.0012198
0.0023749
-0.00160205
0.00196152
-0.000606725
-0.00411506
-0.00261081
0.00739919
-0.00108849
-0.00551046
-0.0035739
0.00832059
-0.00240747
-0.00380522
-0.00305833
0.00104678
-0.00411588
0.00514478
-0.00132612
-0.0104817
-0.00476286
0.012669
-0.00176749
-0.0104098
-0.00602641
0.0139289
-0.00539643
-0.000968039
-0.00292603
-0.0106195
-0.00618364
0.0123761
-0.00412847
-0.00601601
-0.00314998
-0.00483115
-0.00439408
0.00404041
-0.00698494
0.0111445
-0.0027641
-0.0150941
-0.00323
-0.00018185
-0.00629933
0.0123391
-0.00344744
-0.00841971
-0.00947192
0.0605755
0.0113917
-0.0600125
0.0612598
0.0119931
0.0619741
0.0125131
0.0625957
0.0128777
0.0630271
0.013065
0.0632042
0.0130846
0.0630916
0.0129577
0.0626786
0.0127092
0.0619756
0.0123647
0.0610072
0.0119478
0.0598078
0.0114786
0.0584172
0.0109748
0.0568766
0.0104509
0.0552261
0.00991912
0.0535026
0.00938944
0.0517386
0.00886972
0.0499614
0.00836602
0.048193
0.00788274
0.0464508
0.00742286
0.0447475
0.00698814
0.0430923
0.00657933
0.0414914
0.00619644
0.0399485
0.0058389
0.0384655
0.00550576
0.037043
0.0051958
0.0356805
0.00490767
0.0343767
0.00463996
0.03313
0.00439126
0.0319383
0.00416017
0.0307993
0.00394538
0.0297107
0.00374563
0.0286701
0.00355976
0.0276751
0.0033867
0.0267234
0.00322544
0.0258125
0.00307507
0.0249404
0.00293475
0.0241049
0.00280372
0.0233039
0.00268128
0.0225356
0.0025668
0.0217981
0.00245969
0.0210896
0.00235944
0.0204085
0.00226557
0.0197532
0.00217764
0.0191222
0.00209527
0.0185142
0.00201809
0.0179278
0.00194578
0.0173616
0.00187804
0.0168146
0.00181461
0.0162855
0.00175525
0.0157733
0.00169973
0.0152769
0.00164786
0.0147953
0.00159945
0.0143275
0.00155435
0.0138727
0.0015124
0.0134299
0.00147346
0.0129983
0.00143745
0.012577
0.00140419
0.0121653
0.00137367
0.0117624
0.00134567
0.0113676
0.00132031
0.01098
0.00129723
0.010599
0.00127675
0.0102239
0.00125827
0.00985403
0.00124243
0.00948874
0.00122826
0.00912726
0.00121688
0.00876915
0.00120672
0.00841357
0.00119961
0.0080602
0.00119309
0.00770814
0.00118999
0.00735727
0.00118663
0.00700657
0.0011872
0.00665621
0.00118628
0.00630505
0.00119005
0.00595364
0.00119049
0.00560059
0.00119699
0.00524721
0.00119693
0.00489135
0.00120633
0.00453601
0.00120224
0.0041769
0.0012163
0.00382092
0.00120198
0.003459
0.00122352
0.00310432
0.00119511
0.00274349
0.00121366
0.00238727
0.00120297
0.00204602
0.00112805
0.00166228
0.00132038
0.00139005
0.000846158
0.000966605
0.00146745
0.000692971
0.000912578
0.000429589
0.000754784
-8.03147e-05
0.00197179
8.74668e-06
-0.000715656
-0.00104224
0.00408031
-0.000305539
-0.00305238
-0.00135953
0.00342891
-0.00173045
0.00233241
-0.000667366
-0.00517814
-0.00297406
0.00970588
-0.00119541
-0.0072891
-0.00420851
0.0113337
-0.002808
-0.00520573
-0.00380315
0.00204196
-0.00483688
0.0061785
-0.00166129
-0.0136573
-0.00559321
0.016601
-0.00199287
-0.0140102
-0.00720616
0.0191422
-0.00628932
-0.00188488
-0.00374849
-0.0131603
-0.00738451
0.0160121
-0.0047792
-0.00862135
-0.00388211
-0.00572823
-0.00533182
0.00549013
-0.00805628
0.013869
-0.00310784
-0.0200425
-0.00391118
0.00062151
-0.00722395
0.0156518
-0.00358136
-0.0120623
-0.0128524
0.06486
0.0109073
-0.0643756
0.0654253
0.0114278
0.0660328
0.0119056
0.0666172
0.0122932
0.0671161
0.0125661
0.0674808
0.0127198
0.0676761
0.0127625
0.0676778
0.0127075
0.0674729
0.0125696
0.0670572
0.0123635
0.0664344
0.0121015
0.0656149
0.0117943
0.0646145
0.0114512
0.0634533
0.0110803
0.0621539
0.0106889
0.0607403
0.0102833
0.059237
0.00986937
0.0576673
0.00945243
0.056053
0.00903715
0.0544136
0.00862756
0.0527659
0.00822704
0.0511241
0.00783827
0.0494997
0.00746329
0.0479019
0.00710353
0.0463378
0.00675991
0.0448126
0.00643289
0.0433299
0.0061226
0.0418923
0.00582888
0.0405011
0.00555134
0.039157
0.00528948
0.03786
0.00504268
0.0366095
0.00481025
0.0354047
0.00459148
0.0342445
0.00438565
0.0331275
0.00419203
0.0320524
0.00400993
0.0310174
0.00383866
0.0300211
0.00367759
0.0290618
0.0035261
0.0281379
0.00338362
0.0272477
0.00324961
0.0263897
0.00312356
0.0255623
0.00300503
0.024764
0.00289355
0.0239934
0.00278876
0.0232489
0.00269025
0.0225292
0.00259771
0.021833
0.00251081
0.021159
0.00242927
0.0205059
0.00235282
0.0198725
0.00228123
0.0192577
0.00221427
0.0186603
0.00215174
0.0180793
0.00209347
0.0175134
0.00203927
0.0169619
0.00198903
0.0164235
0.00194254
0.0158974
0.00189978
0.0153826
0.00186048
0.0148781
0.00182478
0.0143831
0.00179223
0.0138966
0.00176322
0.0134179
0.00173702
0.0129459
0.00171442
0.01248
0.0016942
0.0120191
0.00167776
0.0115627
0.00166313
0.0111097
0.00165262
0.0106596
0.00164312
0.0102114
0.0016382
0.00976484
0.00163321
0.0093186
0.00163343
0.00887286
0.00163203
0.00842616
0.00163675
0.00797914
0.00163751
0.00753002
0.00164611
0.00708035
0.00164661
0.00662746
0.00165922
0.00617493
0.00165477
0.00571754
0.00167369
0.00526356
0.00165596
0.00480198
0.0016851
0.00434889
0.0016482
0.00388745
0.0016751
0.00343249
0.00165793
0.00299211
0.00156844
0.00250656
0.00180593
0.00214424
0.00120848
0.00161233
0.00199937
0.00125391
0.001271
0.000901383
0.00110731
0.0002763
0.00259687
0.000331051
-0.0007704
-0.000912985
0.00532434
-8.15135e-05
-0.00388385
-0.00141606
0.00476347
-0.00176562
0.00268195
-0.000680995
-0.00626276
-0.00326543
0.0122903
-0.00124197
-0.00931258
-0.00479438
0.0148861
-0.00316379
-0.00683634
-0.00457327
0.00345148
-0.00554853
0.00715374
-0.00204806
-0.0171578
-0.00640805
0.0209609
-0.00217731
-0.0182409
-0.00835661
0.0253216
-0.00713324
-0.00310827
-0.00465788
-0.0156356
-0.00859247
0.0199467
-0.00543581
-0.011778
-0.0046591
-0.00650493
-0.00627177
0.00710282
-0.00904573
0.0166429
-0.0033796
-0.0257086
-0.00452351
0.00176544
-0.0079753
0.0191036
-0.00348575
-0.0165519
-0.0169667
0.0694323
0.0104798
-0.0690048
0.0699158
0.0109444
0.0704361
0.0113853
0.0709577
0.0117716
0.0714408
0.0120829
0.0718518
0.0123089
0.0721645
0.0124498
0.0723597
0.0125123
0.0724231
0.0125062
0.0723448
0.0124418
0.0721178
0.0123285
0.0717384
0.0121737
0.0712059
0.0119837
0.0705226
0.0117636
0.069694
0.0115175
0.0687287
0.0112487
0.0676376
0.0109604
0.0664344
0.0106557
0.0651338
0.0103377
0.0637517
0.0100096
0.0623042
0.00967455
0.0608069
0.0093356
0.0592745
0.0089957
0.0577204
0.00865754
0.0561568
0.00832351
0.0545941
0.00799564
0.0530411
0.0076756
0.0515053
0.00736473
0.0499926
0.00706403
0.0485078
0.00677423
0.0470547
0.0064958
0.045636
0.00622899
0.0442535
0.00597389
0.0429087
0.00573044
0.0416023
0.00549848
0.0403345
0.00527775
0.0391052
0.00506797
0.037914
0.00486877
0.0367603
0.00467978
0.0356433
0.00450061
0.034562
0.00433088
0.0335154
0.00417018
0.0325023
0.00401814
0.0315215
0.00387436
0.0305717
0.0037385
0.0296518
0.0036102
0.0287604
0.00348914
0.0278962
0.003375
0.0270579
0.00326751
0.0262444
0.00316637
0.0254542
0.00307136
0.0246863
0.00298221
0.0239393
0.00289872
0.0232121
0.0028207
0.0225034
0.00274793
0.0218122
0.0026803
0.0211371
0.00261756
0.0204772
0.00255971
0.0198313
0.0025064
0.0191982
0.00245784
0.018577
0.00241346
0.0179665
0.00237377
0.0173656
0.00233785
0.0167733
0.0023067
0.0161887
0.0022788
0.0156106
0.00225592
0.0150381
0.00223558
0.0144701
0.00222068
0.0139058
0.00220734
0.013344
0.00220004
0.0127843
0.00219292
0.0122251
0.00219265
0.0116665
0.00219061
0.0111067
0.00219654
0.0105464
0.00219777
0.00998345
0.00220909
0.0094196
0.00221046
0.0088515
0.00222732
0.00828349
0.00222278
0.00770915
0.00224804
0.00713839
0.00222672
0.00655791
0.00226557
0.00598714
0.00221897
0.00540519
0.00225706
0.00483186
0.00223125
0.00427164
0.00212866
0.00366486
0.00241271
0.00319064
0.00168269
0.0025311
0.00265891
0.00206729
0.00173481
0.00160314
0.00157146
0.00084498
0.00335503
0.00084291
-0.000768322
-0.00060899
0.00677623
0.000268622
-0.00476147
-0.00134219
0.0063743
-0.0016645
0.00300424
-0.00061756
-0.00730968
-0.00344732
0.0151201
-0.00120108
-0.0115588
-0.00528692
0.018972
-0.0034336
-0.00868967
-0.00532112
0.00533903
-0.00622239
0.008055
-0.00248576
-0.0208944
-0.00719018
0.0256654
-0.00231514
-0.023116
-0.00941806
0.0324245
-0.00788006
-0.00464629
-0.00561501
-0.0179007
-0.0097764
0.0241081
-0.00610739
-0.0154471
-0.00544706
-0.00716525
-0.00717045
0.00882623
-0.00991039
0.0193828
-0.00354177
-0.0320773
-0.00498147
0.00320515
-0.00846333
0.0225855
-0.00309426
-0.021921
-0.0219487
0.0743119
0.0100968
-0.0739289
0.0747362
0.0105202
0.0751907
0.0109308
0.0756546
0.0113077
0.0761022
0.0116353
0.0765089
0.0119022
0.0768549
0.0121038
0.0771255
0.0122417
0.0773104
0.0123213
0.0774022
0.0123499
0.0773952
0.0123355
0.0772843
0.0122847
0.077065
0.012203
0.0767335
0.0120951
0.0762867
0.0119643
0.0757226
0.0118127
0.075041
0.011642
0.0742438
0.011453
0.0733347
0.0112469
0.0723198
0.0110246
0.0712069
0.0107874
0.0700058
0.0105368
0.0687268
0.0102746
0.0673816
0.0100028
0.0659815
0.00972356
0.0645382
0.00943898
0.0630625
0.00915122
0.0615649
0.00886235
0.0600547
0.00857425
0.0585403
0.00828863
0.0570291
0.00800698
0.0555276
0.00773056
0.054041
0.00746045
0.0525739
0.00719748
0.0511301
0.00694233
0.0497124
0.00669547
0.0483231
0.00645728
0.0469639
0.00622796
0.045636
0.00600765
0.0443402
0.00579638
0.043077
0.00559413
0.0418464
0.0054008
0.0406482
0.00521627
0.0394822
0.00504036
0.0383478
0.00487292
0.0372443
0.00471371
0.0361709
0.00456256
0.0351267
0.00441921
0.0341107
0.0042835
0.0331219
0.00415518
0.0321592
0.00403407
0.0312214
0.00391995
0.0303075
0.00381265
0.0294162
0.00371199
0.0285463
0.00361778
0.0276967
0.00352991
0.0268661
0.00344814
0.0260533
0.00337251
0.0252571
0.00330261
0.0244762
0.00323873
0.0237095
0.00318019
0.0229556
0.00312766
0.0222135
0.00308
0.0214817
0.0030385
0.0207592
0.00300126
0.0200446
0.00297052
0.019337
0.00294319
0.0186347
0.00292293
0.0179372
0.00290488
0.0172425
0.00289467
0.0165505
0.00288497
0.015859
0.00288415
0.0151682
0.00288141
0.0144757
0.00288899
0.0137825
0.00289096
0.0130857
0.00290594
0.0123875
0.00290868
0.0116836
0.00293119
0.0109793
0.00292706
0.0102667
0.00296063
0.00955772
0.00293574
0.0088362
0.0029871
0.00812552
0.00292965
0.00739997
0.00298261
0.00668544
0.00294578
0.00598116
0.00283295
0.0052303
0.00316357
0.00461842
0.00229457
0.00380878
0.00346856
0.00321442
0.00232916
0.00261268
0.00217321
0.00170355
0.00426416
0.00161409
-0.000678857
-7.4075e-05
0.00846439
0.000829109
-0.00566465
-0.00107741
0.00828085
-0.001367
0.0032938
-0.000434847
-0.00824183
-0.00347037
0.0181556
-0.0010369
-0.0139923
-0.00563052
0.0235656
-0.00356168
-0.0107585
-0.0059794
0.00775679
-0.00681326
0.00888884
-0.00295962
-0.0247481
-0.00791759
0.0306233