/*--------------------------------*- C++ -*----------------------------------*\
| =========                 |                                                 |
| \\      /  F ield         | OpenFOAM: The Open Source CFD Toolbox           |
|  \\    /   O peration     | Version:  2412                                  |
|   \\  /    A nd           | Website:  www.openfoam.com                      |
|    \\/     M anipulation  |                                                 |
\*---------------------------------------------------------------------------*/
FoamFile
{
    version     2.0;
    format      ascii;
    arch        "LSB;label=32;scalar=64";
    class       volVectorField;
    location    "0.095";
    object      ddt0(U);
}
// * * * * * * * * * * * * * * * * * * * * * * * * * * * * * * * * * * * * * //

dimensions      [0 1 -2 0 0 0 0];

internalField   nonuniform List<vector> 
12600
(
(184.652 -1.9088e-20 28.8646)
(131.585 1.04886e-20 -5.89804)
(94.4855 -1.58323e-19 -10.2555)
(78.2822 0 -11.0558)
(67.0081 -2.05028e-19 -10.9663)
(59.0053 -1.4991e-19 -10.3391)
(53.4525 0 -9.46217)
(49.2932 0 -8.56331)
(45.4387 9.01803e-19 -7.89108)
(41.4593 0 -7.49771)
(37.7482 -6.31365e-19 -7.18338)
(34.8701 -5.91829e-19 -6.75561)
(32.878 5.75513e-19 -6.25149)
(31.2402 0 -5.77176)
(29.544 6.59762e-19 -5.42985)
(27.7161 0 -5.1931)
(25.975 -2.685e-18 -4.97576)
(24.4706 0 -4.73319)
(23.0971 1.29336e-18 -4.49431)
(21.66 1.19206e-18 -4.27322)
(20.223 -1.1226e-18 -3.91345)
(18.9233 -2.49262e-20 -3.73367)
(17.871 0 -3.54869)
(17.1508 3.69314e-19 -3.33647)
(16.6056 0 -3.14404)
(15.9692 0 -2.97118)
(15.09 -8.36192e-19 -2.82396)
(14.2727 0 -2.75552)
(13.5539 2.30236e-20 -2.63978)
(12.7663 1.69825e-18 -2.45722)
(12.4308 1.97877e-18 -2.39922)
(11.9371 2.34271e-18 -2.26319)
(10.9562 -1.5873e-18 -2.07638)
(10.7544 -4.64246e-18 -2.13085)
(10.1592 -5.02845e-18 -1.95802)
(9.26219 3.36179e-18 -1.77746)
(9.61119 0 -1.87829)
(8.71157 -4.79021e-18 -1.62074)
(8.10847 0 -1.58877)
(8.62371 6.89264e-18 -1.63294)
(7.5232 0 -1.34881)
(7.71574 1.19287e-20 -1.39864)
(7.41355 0 -1.28741)
(6.2565 2.42065e-20 -1.22152)
(6.22883 9.99213e-18 -1.24264)
(5.43443 -3.33732e-18 -1.14273)
(5.62158 8.81852e-18 -1.11846)
(5.39345 0 -0.968162)
(5.18553 0 -0.966471)
(4.87938 7.55205e-18 -0.901068)
(4.0564 2.87033e-18 -0.885392)
(4.06643 1.64983e-17 -0.857885)
(3.76629 3.28748e-21 -0.788411)
(3.85132 1.44179e-17 -0.726881)
(3.59467 0 -0.673038)
(3.32233 -1.08253e-17 -0.675091)
(2.92086 -8.10401e-18 -0.629625)
(2.78704 -9.68042e-18 -0.618156)
(2.79326 0 -0.550222)
(2.73137 0 -0.52653)
(2.5962 0 -0.485643)
(2.37611 9.2419e-18 -0.488331)
(2.34863 0 -0.458239)
(2.30047 0 -0.43328)
(2.31545 -3.51037e-17 -0.395645)
(2.1934 0 -0.390551)
(1.99905 0 -0.370934)
(1.76046 0 -0.362628)
(1.71728 1.54554e-17 -0.339982)
(1.5672 5.53675e-18 -0.323161)
(1.40429 -1.10287e-17 -0.303184)
(1.27946 1.57873e-20 -0.293312)
(1.23674 1.22177e-17 -0.272679)
(1.19763 0 -0.244957)
(1.15085 -1.12243e-17 -0.220815)
(1.0244 0 -0.203187)
(0.868777 0 -0.186831)
(0.72903 0 -0.165918)
(0.674329 2.16203e-20 -0.143725)
(0.624965 -5.60497e-18 -0.121667)
(0.514206 -1.09828e-17 -0.103023)
(0.362022 -2.22659e-18 -0.0836512)
(0.383752 6.28685e-18 -0.0694279)
(0.251312 0 -0.0412716)
(0.0924403 0 -0.0259563)
(0.0167249 1.17678e-17 -0.00872732)
(-0.145921 -2.66884e-17 0.00366881)
(-0.361969 4.43498e-17 0.0342908)
(-0.307755 -3.42599e-18 0.0414772)
(-0.509715 0 0.0717134)
(-0.579513 -2.69472e-18 0.0823428)
(-0.678964 -3.37951e-18 0.111984)
(-0.71577 1.87377e-18 0.122438)
(-0.873134 -8.33442e-18 0.160465)
(-0.926465 0 0.165794)
(-1.09363 0 0.199964)
(-1.13001 0 0.205162)
(-1.34076 0 0.238961)
(-1.35268 0 0.243599)
(-1.57076 0 0.285246)
(-1.61157 1.01604e-17 0.286838)
(-1.90484 1.26656e-17 0.343622)
(-1.85608 3.67941e-17 0.345384)
(-2.21762 0 0.407553)
(-2.22313 0 0.407555)
(-2.40729 0 0.447834)
(-2.5181 4.55984e-18 0.466762)
(-2.55558 9.04285e-18 0.474231)
(-2.85265 -2.68167e-18 0.530092)
(-2.81886 0 0.521254)
(-3.22418 -1.09546e-17 0.596428)
(-3.28748 0 0.609502)
(-3.42147 -8.52519e-18 0.633128)
(-3.88673 8.08478e-19 0.722)
(-3.53863 5.53869e-19 0.653762)
(-4.53809 1.79436e-18 0.846552)
(-3.65651 -1.20062e-17 0.67436)
(-5.20367 -7.37013e-21 0.969631)
(-4.36305 -1.02316e-17 0.812905)
(-1.0513 0 0.181643)
(372.135 1.93667e-20 63.8981)
(306.173 0 -5.29837)
(252.542 1.60561e-19 -20.0926)
(216.35 0 -24.9675)
(189.745 2.07992e-19 -26.2293)
(169.896 3.00091e-19 -25.5712)
(154.737 1.26963e-19 -24.0669)
(142.378 0 -22.4502)
(131.308 3.99306e-20 -21.2446)
(121.064 6.19637e-19 -20.4476)
(112.035 -6.23239e-19 -19.673)
(104.587 -5.82807e-19 -18.5801)
(98.5057 5.93856e-19 -17.3415)
(93.0771 -5.99456e-19 -16.2423)
(87.8501 -1.34618e-18 -15.4523)
(82.7946 0 -14.8848)
(78.1302 1.32055e-20 -14.3494)
(73.9537 -1.25654e-18 -13.7361)
(70.1013 -1.31233e-18 -13.0861)
(66.3794 0 -12.4736)
(62.7603 0 -11.7588)
(59.394 -8.24633e-19 -11.2263)
(56.474 0 -10.663)
(54.0037 -1.7632e-19 -10.0779)
(51.794 -3.20472e-19 -9.56228)
(49.5634 0 -9.10736)
(47.1339 8.87657e-19 -8.69258)
(44.8588 0 -8.43165)
(42.804 -1.62546e-18 -8.09716)
(40.7082 -3.46952e-18 -7.59674)
(39.133 -4.00872e-18 -7.3646)
(37.4939 -2.37122e-18 -7.01139)
(35.3138 1.60615e-18 -6.50516)
(34.0199 9.40125e-18 -6.51405)
(32.4464 1.02217e-17 -6.10635)
(30.4761 0 -5.60515)
(29.9172 0 -5.75113)
(28.126 -9.73081e-21 -5.1816)
(26.5508 0 -4.96704)
(26.3163 -6.95829e-18 -5.04508)
(24.3765 0 -4.37417)
(23.7559 -8.73853e-18 -4.38177)
(22.7471 0 -4.16307)
(20.7734 -2.35543e-18 -3.89882)
(20.0689 0 -3.91561)
(18.5992 3.36039e-18 -3.62887)
(18.1608 0 -3.50548)
(17.3476 0 -3.17225)
(16.5214 -4.8465e-18 -3.08765)
(15.6652 0 -2.94083)
(14.262 0 -2.81798)
(13.7807 0 -2.73263)
(13.0078 -5.75987e-18 -2.52872)
(12.639 -2.89408e-17 -2.36738)
(11.9481 0 -2.22457)
(11.247 0 -2.18144)
(10.4514 8.14385e-18 -2.05427)
(9.95295 9.6798e-18 -1.97887)
(9.63439 0 -1.82029)
(9.25494 0 -1.7337)
(8.82278 0 -1.63522)
(8.32099 0 -1.60728)
(8.04212 2.18554e-17 -1.53028)
(7.76109 -6.2087e-18 -1.45202)
(7.5496 3.48184e-17 -1.36145)
(7.20903 0 -1.32772)
(6.79675 0 -1.26907)
(6.35099 0 -1.22409)
(6.11046 3.98066e-20 -1.16269)
(5.76076 -5.48376e-18 -1.10483)
(5.39252 1.09132e-17 -1.04457)
(5.06282 4.76113e-18 -1.00417)
(4.81736 4.61935e-20 -0.94454)
(4.56871 1.36488e-19 -0.868921)
(4.31485 1.10645e-17 -0.801826)
(3.96585 0 -0.746043)
(3.60153 0 -0.69207)
(3.24075 0 -0.628083)
(2.99577 -1.68759e-17 -0.567079)
(2.72929 0 -0.503527)
(2.44215 0 -0.45093)
(2.06663 2.17919e-18 -0.38997)
(1.94253 -6.14641e-18 -0.351299)
(1.57725 0 -0.273302)
(1.28708 0 -0.228309)
(0.964126 0 -0.173928)
(0.696276 2.60206e-17 -0.139396)
(0.203886 -8.1545e-20 -0.0487689)
(0.189829 -3.40923e-18 -0.0338736)
(-0.316182 -9.53571e-18 0.0548909)
(-0.43326 2.50586e-18 0.0805432)
(-0.855409 -3.30102e-18 0.165673)
(-0.924188 -3.63771e-18 0.187981)
(-1.42274 0 0.287589)
(-1.49918 0 0.301558)
(-2.0019 0 0.394959)
(-2.05605 0 0.408616)
(-2.58941 -1.5897e-18 0.501551)
(-2.61639 0 0.513291)
(-3.19108 0 0.621552)
(-3.24312 9.75775e-18 0.627659)
(-4.00456 -6.0762e-18 0.778597)
(-3.9377 -7.04239e-17 0.772671)
(-4.86182 9.35366e-18 0.95191)
(-4.81901 0 0.933448)
(-5.41788 0 1.06039)
(-5.60098 0 1.08791)
(-5.7353 -4.30794e-18 1.12047)
(-6.45137 2.55217e-18 1.2578)
(-6.3077 0 1.22427)
(-7.35935 2.0804e-17 1.43652)
(-7.47368 -6.34976e-18 1.4475)
(-7.79274 1.61597e-17 1.52057)
(-9.10656 0 1.76018)
(-7.90248 0 1.54366)
(-10.9048 1.7473e-18 2.10845)
(-8.09109 0 1.57579)
(-12.5785 8.00977e-18 2.44442)
(-10.3144 9.67647e-18 1.90358)
(-1.75541 0 0.308434)
(465.332 0 79.4887)
(418.084 0 11.1413)
(372.788 1.81332e-19 -12.1187)
(331.11 0 -23.3007)
(297.277 0 -28.5274)
(270.252 -1.32752e-19 -30.3131)
(248.317 -1.20351e-19 -30.4162)
(229.658 0 -30.0031)
(212.922 2.23948e-20 -29.6264)
(197.779 -5.87333e-19 -29.1727)
(184.536 1.15524e-18 -28.3607)
(173.286 5.52427e-19 -27.0895)
(163.584 1.97302e-21 -25.6827)
(154.707 5.68203e-19 -24.5226)
(146.29 6.41278e-19 -23.7027)
(138.344 -6.12055e-19 -23.0818)
(131.071 1.27855e-18 -22.4203)
(124.487 1.19096e-18 -21.6443)
(118.367 0 -20.7738)
(112.48 0 -19.9067)
(106.812 -9.93468e-19 -19.0761)
(101.581 -7.13994e-19 -18.2436)
(96.8869 0 -17.3761)
(92.7067 0 -16.5332)
(88.8593 3.03622e-19 -15.8023)
(85.0738 0 -15.1718)
(81.1549 -1.68419e-18 -14.5633)
(77.4756 1.11649e-18 -14.0693)
(74.1089 0 -13.5571)
(70.7277 1.65767e-18 -12.8377)
(67.9219 1.89976e-18 -12.3642)
(65.1247 0 -11.8931)
(61.779 -1.51892e-18 -11.1644)
(59.4001 -4.45655e-18 -10.9276)
(56.7985 8.20712e-20 -10.4651)
(53.7818 0 -9.70418)
(52.2774 0 -9.68791)
(49.5472 4.59193e-18 -9.11035)
(47.0619 0 -8.54909)
(45.9863 0 -8.60046)
(43.1814 0 -7.81455)
(41.7566 0 -7.56832)
(39.9446 0 -7.42317)
(37.2152 0 -6.88671)
(35.8018 0 -6.82691)
(33.6286 -3.27597e-18 -6.40467)
(32.5463 8.48207e-18 -6.10386)
(31.0694 0 -5.7545)
(29.6289 4.58516e-18 -5.48553)
(28.1777 0 -5.32947)
(26.211 0 -5.0161)
(25.2045 -1.58689e-17 -4.86027)
(23.9176 0 -4.54683)
(23.0663 1.36976e-17 -4.30026)
(21.9045 -6.86003e-18 -4.10486)
(20.771 0 -3.95528)
(19.5599 -7.69759e-18 -3.76775)
(18.682 0 -3.57626)
(17.9974 0 -3.3834)
(17.2812 0 -3.21419)
(16.5281 -2.05369e-17 -3.08949)
(15.7332 -8.66839e-18 -2.98996)
(15.1779 1.87595e-20 -2.88053)
(14.6405 1.16956e-17 -2.74452)
(14.1805 -3.05677e-20 -2.62336)
(13.608 0 -2.54263)
(12.9694 0 -2.44657)
(12.31 -7.51566e-18 -2.34816)
(11.8572 2.14861e-20 -2.25104)
(11.2983 0 -2.14931)
(10.7192 0 -2.04788)
(10.1782 -2.23762e-18 -1.96714)
(9.72303 2.85922e-20 -1.86862)
(9.25968 -7.14423e-21 -1.7534)
(8.79651 0 -1.6479)
(8.22797 0 -1.5532)
(7.66333 1.68579e-17 -1.45866)
(7.08901 -1.94506e-18 -1.35347)
(6.66242 0 -1.25957)
(6.18642 0 -1.15791)
(5.73934 0 -1.07766)
(5.15494 0 -0.976002)
(4.90437 0 -0.915076)
(4.32036 0 -0.799066)
(3.93227 0 -0.730736)
(3.3739 0 -0.635536)
(3.04411 -2.44622e-17 -0.59006)
(2.29034 -2.01625e-17 -0.444406)
(2.25595 3.20419e-18 -0.429483)
(1.45851 8.96044e-18 -0.288939)
(1.35934 -2.28925e-18 -0.259783)
(0.619239 3.10059e-18 -0.12358)
(0.592902 1.71446e-18 -0.104611)
(-0.237613 0 0.0477712)
(-0.261368 0 0.0577314)
(-1.07787 0 0.202105)
(-1.08418 0 0.213189)
(-1.88771 1.49138e-18 0.352252)
(-1.88599 0 0.363977)
(-2.71755 0 0.514551)
(-2.7529 -9.14906e-18 0.522917)
(-3.8411 0 0.735524)
(-3.73348 3.30031e-17 0.7142)
(-5.08875 -8.76537e-18 0.984299)
(-4.94514 0 0.931234)
(-5.9111 0 1.1405)
(-6.04636 0 1.14184)
(-6.28686 -4.02481e-18 1.20794)
(-7.2246 0 1.38099)
(-6.95382 1.83094e-18 1.31946)
(-8.46776 -3.35794e-21 1.63336)
(-8.57971 5.94269e-18 1.61983)
(-8.9171 -1.50904e-17 1.72255)
(-11.0818 0 2.09353)
(-8.77494 -4.94291e-19 1.69512)
(-13.8379 -1.63439e-18 2.62432)
(-8.89889 -1.07021e-17 1.70834)
(-16.1506 0 3.10911)
(-12.7319 -9.04787e-18 2.23779)
(-0.468204 0 -0.00288863)
(509.414 0 89.4311)
(480.227 0 24.7548)
(455.543 -1.71557e-19 2.58412)
(417.316 0 -12.7737)
(383.255 1.97966e-19 -22.5668)
(354.267 -3.03248e-19 -28.0234)
(329.287 0 -30.9805)
(307.114 3.97958e-19 -32.7501)
(286.937 -4.7736e-19 -33.8864)
(268.683 -5.1533e-19 -34.35)
(252.595 -5.34088e-19 -34.0037)
(238.563 4.93347e-19 -33.0337)
(226.036 -5.34442e-19 -31.9154)
(214.365 1.1048e-18 -31.0273)
(203.333 0 -30.4139)
(193.021 1.14757e-18 -29.9298)
(183.588 0 -29.3082)
(174.964 0 -28.5248)
(166.893 0 -27.5959)
(159.14 -9.82137e-19 -26.616)
(151.697 4.69746e-20 -25.5862)
(144.771 3.19006e-20 -24.5751)
(138.457 -3.57981e-19 -23.5453)
(132.706 0 -22.5478)
(127.34 0 -21.6758)
(122.107 0 -20.9268)
(116.8 1.59509e-18 -20.1961)
(111.797 -2.03225e-21 -19.5294)
(107.193 0 -18.8809)
(102.594 0 -18.0084)
(98.5971 0 -17.32)
(94.6877 0 -16.7494)
(90.2274 2.8742e-18 -15.855)
(86.7731 0 -15.3929)
(83.1821 -4.67735e-18 -14.8956)
(79.1457 0 -13.9303)
(76.6737 0 -13.7433)
(73.0433 -4.50407e-18 -13.1688)
(69.6392 0 -12.3046)
(67.6982 0 -12.3113)
(64.0687 2.34754e-18 -11.4446)
(61.7999 -7.42129e-18 -10.9653)
(59.1861 0 -10.8851)
(55.7093 -2.14802e-18 -10.1139)
(53.5439 0 -9.9754)
(50.6791 6.29616e-18 -9.42877)
(48.9218 -4.26679e-20 -8.96226)
(46.769 0 -8.59201)
(44.6976 0 -8.15252)
(42.6239 -6.78403e-18 -7.98977)
(40.0886 -2.73838e-18 -7.49916)
(38.5234 2.99662e-17 -7.27404)
(36.7171 0 -6.85185)
(35.3587 1.28968e-17 -6.51869)
(33.7064 6.4755e-18 -6.26906)
(32.122 9.72062e-18 -6.02129)
(30.4761 7.32669e-18 -5.77574)
(29.205 0 -5.472)
(28.1363 0 -5.23888)
(27.0716 1.36929e-17 -4.98577)
(25.9756 3.8716e-17 -4.83639)
(24.8746 8.17564e-18 -4.66709)
(24.0251 4.32093e-21 -4.52673)
(23.2214 -5.49988e-18 -4.32693)
(22.4968 -1.5441e-17 -4.17364)
(21.6805 0 -4.04241)
(20.8043 0 -3.91471)
(19.9233 7.08258e-18 -3.76569)
(19.2524 -2.73487e-17 -3.63247)
(18.4799 0 -3.48668)
(17.6851 -9.74389e-18 -3.34705)
(16.929 2.10315e-18 -3.22522)
(16.2672 -1.07812e-17 -3.08785)
(15.5938 -2.30375e-19 -2.92978)
(14.9281 0 -2.7866)
(14.1471 0 -2.65384)
(13.3942 -1.58634e-17 -2.52433)
(12.6178 3.65985e-18 -2.38097)
(12.0273 1.49668e-17 -2.25674)
(11.3559 0 -2.1169)
(10.7719 0 -2.0146)
(9.99428 0 -1.87756)
(9.64816 0 -1.79554)
(8.86426 0 -1.64677)
(8.41708 0 -1.56499)
(7.63837 -1.0217e-17 -1.42947)
(7.29897 3.21934e-20 -1.38645)
(6.29657 1.89041e-17 -1.19067)
(6.30606 0 -1.18244)
(5.22785 8.3703e-18 -0.994876)
(5.22472 1.06988e-18 -0.974899)
(4.17161 0 -0.788206)
(4.27804 1.63749e-18 -0.786306)
(3.12422 7.03504e-18 -0.576799)
(3.24142 0 -0.589047)
(2.13341 0 -0.395343)
(2.24751 0 -0.401491)
(1.22935 1.40547e-18 -0.226924)
(1.30149 0 -0.222368)
(0.322901 0 -0.0471956)
(0.318209 -8.5811e-18 -0.0402307)
(-0.938402 5.36526e-18 0.20807)
(-0.780603 0 0.173638)
(-2.41542 0 0.505078)
(-2.13002 0 0.411321)
(-3.39853 0 0.691765)
(-3.37442 0 0.645449)
(-3.73773 1.2095e-20 0.750008)
(-4.70261 0 0.924276)
(-4.32371 -1.7133e-18 0.841131)
(-6.07954 -9.10179e-18 1.21934)
(-6.21042 0 1.18338)
(-6.32207 2.19916e-20 1.27972)
(-9.42996 0 1.79086)
(-5.72824 1.20726e-20 1.16913)
(-12.9349 0 2.47189)
(-5.73561 1.0006e-17 1.15236)
(-15.4837 0 3.05661)
(-11.2843 -8.43768e-18 1.70994)
(3.21875 0 -0.745286)
(520.949 0 78.6354)
(508.702 0 48.6912)
(508.36 0 21.139)
(475.258 0 1.2508)
(445.416 -1.86992e-19 -12.1171)
(418.743 -1.81435e-20 -20.9448)
(394.257 0 -26.8979)
(371.524 -3.7591e-19 -31.1297)
(350.368 0 -34.0692)
(331.009 9.36362e-19 -35.7756)
(313.658 0 -36.324)
(298.059 -4.6601e-19 -36.0846)
(283.691 0 -35.625)
(270.105 -1.04357e-18 -35.3069)
(257.229 5.61765e-19 -35.1267)
(245.215 -1.06088e-18 -34.9522)
(234.198 1.01481e-18 -34.5499)
(224.041 9.34642e-19 -33.9193)
(214.456 0 -33.0874)
(205.207 9.27623e-19 -32.1661)
(196.302 8.43296e-19 -31.1559)
(187.96 1.1777e-18 -30.1281)
(180.275 3.3811e-19 -29.0671)
(173.17 0 -28.0297)
(166.475 0 -27.1137)
(159.968 0 -26.3232)
(153.438 -7.53177e-19 -25.5395)
(147.257 -9.95072e-19 -24.7666)
(141.543 0 -24.0279)
(135.85 0 -23.0617)
(130.749 1.60303e-18 -22.2093)
(125.815 0 -21.5621)
(120.332 1.01661e-20 -20.5602)
(115.854 -3.71457e-18 -19.9074)
(111.345 4.52286e-18 -19.3851)
(106.352 0 -18.2737)
(102.93 0 -17.9145)
(98.4603 4.25104e-18 -17.3558)
(94.1629 0 -16.2453)
(91.364 0 -16.1792)
(86.9612 -2.21526e-18 -15.2732)
(83.8436 7.00273e-18 -14.573)
(80.4468 0 -14.5448)
(76.2457 2.02656e-18 -13.5915)
(73.3186 0 -13.3648)
(69.7793 -3.01977e-18 -12.7219)
(67.339 -7.51806e-18 -12.0916)
(64.5095 0 -11.7015)
(61.8025 -3.97944e-18 -11.1048)
(59.0974 6.39764e-18 -10.9365)
(55.994 5.29797e-18 -10.2924)
(53.8554 -1.41264e-17 -9.99326)
(51.5259 5.12886e-18 -9.47066)
(49.6474 -6.12708e-20 -9.04592)
(47.4928 0 -8.74659)
(45.4473 -9.16194e-18 -8.4066)
(43.3562 -6.9049e-18 -8.10941)
(41.6821 8.16978e-18 -7.69624)
(40.2166 -9.23302e-18 -7.42163)
(38.7932 -1.29005e-17 -7.08576)
(37.341 -1.82225e-17 -6.91398)
(35.9248 7.69624e-18 -6.67819)
(34.7705 -1.83527e-17 -6.50733)
(33.6927 0 -6.24266)
(32.6945 0 -6.05642)
(31.6275 -4.69129e-19 -5.87583)
(30.5088 0 -5.71918)
(29.4029 0 -5.52199)
(28.5118 1.28673e-17 -5.35281)
(27.5259 0 -5.1646)
(26.5172 9.16739e-18 -4.9886)
(25.5489 -3.93829e-18 -4.82762)
(24.687 0 -4.65292)
(23.811 1.09072e-19 -4.45309)
(22.9534 0 -4.27455)
(21.9705 0 -4.10703)
(21.0448 1.49044e-17 -3.94704)
(20.08 -1.71981e-18 -3.76958)
(19.3465 -2.15932e-20 -3.61954)
(18.4953 0 -3.44536)
(17.8012 0 -3.32722)
(16.8476 0 -3.15994)
(16.4403 5.05289e-18 -3.06315)
(15.4733 3.70036e-18 -2.88667)
(15.0128 0 -2.80037)
(14.0259 1.92221e-17 -2.62852)
(13.7346 1.0744e-17 -2.59964)
(12.4912 -3.54572e-17 -2.35665)
(12.6163 2.76541e-18 -2.36839)
(11.258 -1.56639e-17 -2.13647)
(11.4394 0 -2.14149)
(10.067 0 -1.90569)
(10.4048 -1.53537e-18 -1.93881)
(8.92332 -6.59535e-18 -1.67679)
(9.27639 1.34304e-18 -1.72819)
(7.88962 0 -1.49108)
(8.19435 0 -1.52665)
(7.01358 -1.31679e-18 -1.33051)
(7.18324 -7.35276e-18 -1.33691)
(6.1692 0 -1.16131)
(6.18242 8.03632e-18 -1.15304)
(4.92139 -5.02391e-18 -0.901555)
(5.1087 0 -0.946673)
(3.35295 0 -0.583343)
(3.79787 0 -0.728215)
(2.2936 0 -0.383955)
(2.57126 0 -0.50645)
(2.0497 3.51343e-18 -0.350366)
(1.23778 0 -0.216081)
(1.65207 0 -0.30782)
(-0.0980029 0 0.0926343)
(-0.374525 -5.18883e-18 0.0417792)
(0.0603401 6.57114e-18 0.0898249)
(-4.19238 0 0.753819)
(1.21244 4.20741e-19 -0.129641)
(-8.21531 0 1.54208)
(1.25558 9.4028e-18 -0.176705)
(-10.6022 0 2.16798)
(-5.97532 7.88532e-18 0.628458)
(9.50156 0 -1.97957)
(531.763 2.15367e-19 67.638)
(532.661 1.60239e-19 66.0913)
(525.388 -2.09489e-19 36.1638)
(505.893 -2.1328e-19 14.7012)
(484.637 0 -0.317277)
(463.066 1.59409e-19 -11.4194)
(441.707 0 -19.7754)
(420.898 -3.72322e-19 -26.1555)
(401.001 -3.82426e-19 -30.833)
(382.414 -8.04665e-19 -33.8871)
(365.32 3.9385e-19 -35.5647)
(349.431 -4.24127e-19 -36.3803)
(334.334 0 -36.8639)
(319.811 0 -37.3408)
(305.978 -5.29844e-19 -37.7888)
(293.062 1.56108e-20 -38.0784)
(281.154 -6.03512e-20 -38.0392)
(270.061 -6.42782e-20 -37.7122)
(259.486 0 -37.1411)
(249.213 0 -36.436)
(239.269 0 -35.597)
(229.884 -1.03255e-18 -34.6932)
(221.157 -2.59363e-19 -33.7364)
(212.995 0 -32.7827)
(205.238 0 -31.9256)
(197.707 5.33907e-19 -31.1757)
(190.191 0 -30.411)
(183.041 0 -29.6033)
(176.406 0 -28.8315)
(169.796 0 -27.838)
(163.738 -3.28326e-20 -26.8846)
(157.915 0 -26.1962)
(151.55 1.74222e-20 -25.1473)
(146.152 3.50163e-18 -24.345)
(140.831 1.45402e-20 -23.8159)
(134.987 0 -22.6231)
(130.679 0 -22.104)
(125.458 0 -21.5811)
(120.337 0 -20.2862)
(116.724 0 -20.1282)
(111.615 0 -19.2303)
(107.684 0 -18.3334)
(103.546 -7.19793e-18 -18.3447)
(98.6657 -2.13079e-18 -17.2624)
(95.0024 0 -16.9378)
(90.8191 -3.16207e-18 -16.2277)
(87.7108 0 -15.4486)
(84.2207 0 -15.0485)
(80.8903 7.48087e-18 -14.3135)
(77.5661 0 -14.1391)
(73.9073 -2.55756e-18 -13.3626)
(71.1991 0 -12.9866)
(68.3497 -9.8378e-18 -12.3786)
(65.9502 -8.62694e-20 -11.8668)
(63.2932 0 -11.5254)
(60.7871 0 -11.0982)
(58.2506 0 -10.7552)
(56.17 -1.53556e-17 -10.2378)
(54.3023 1.73612e-17 -9.92696)
(52.5148 1.20357e-17 -9.51389)
(50.7018 1.7035e-17 -9.32361)
(48.9667 -1.45136e-17 -9.02388)
(47.504 -1.72052e-17 -8.82467)
(46.1486 0 -8.49811)
(44.8747 0 -8.28151)
(43.556 -3.23705e-20 -8.05396)
(42.1954 0 -7.87032)
(40.8658 0 -7.62648)
(39.7568 1.2014e-17 -7.4227)
(38.5616 0 -7.19474)
(37.3466 0 -6.98436)
(36.1742 3.65043e-18 -6.78657)
(35.1222 9.53623e-18 -6.5774)
(34.0541 0 -6.33913)
(33.0184 0 -6.12892)
(31.8463 0 -5.9303)
(30.7655 -1.39973e-17 -5.74378)
(29.6269 0 -5.5362)
(28.7733 -2.63383e-17 -5.3655)
(27.757 4.20745e-18 -5.16148)
(26.9815 0 -5.03365)
(25.8668 0 -4.84008)
(25.4352 -4.74148e-18 -4.73558)
(24.2969 -2.34364e-21 -4.53565)
(23.8725 5.96354e-18 -4.45294)
(22.6824 -9.03408e-18 -4.24718)
(22.5014 9.99192e-18 -4.2435)
(21.0134 1.66141e-17 -3.9532)
(21.332 -2.59275e-18 -3.99879)
(19.6789 5.4448e-20 -3.72201)
(20.141 0 -3.76761)
(18.4262 2.53068e-18 -3.48073)
(19.1002 0 -3.56682)
(17.2707 0 -3.24837)
(17.9551 -1.25809e-18 -3.35637)
(16.2906 0 -3.07596)
(16.8456 0 -3.15267)
(15.5511 0 -2.94311)
(15.8199 6.88438e-18 -2.96149)
(14.8855 0 -2.80563)
(14.8666 7.52252e-18 -2.78643)
(13.7681 0 -2.56176)
(13.9275 0 -2.60518)
(12.2047 0 -2.23875)
(12.8037 0 -2.43225)
(11.1159 0 -2.03354)
(11.729 3.40151e-18 -2.24833)
(10.9818 3.25155e-18 -2.02576)
(10.4917 -1.98182e-18 -1.96347)
(10.8027 0 -2.03608)
(9.33186 0 -1.65854)
(8.662 9.68754e-18 -1.68536)
(10.0295 0 -1.74199)
(4.3339 5.16703e-19 -0.883392)
(11.7118 0 -2.0631)
(0.0580825 -1.39455e-18 -0.0271181)
(11.6047 -8.78665e-18 -2.10753)
(-1.78673 0 0.600131)
(2.66776 7.33881e-18 -1.55692)
(18.3316 0 -3.66114)
(530.706 -2.02786e-19 72.1319)
(534.283 -3.45449e-19 61.4212)
(529.393 1.97307e-19 42.2774)
(518.967 -4.47232e-21 24.9195)
(505.176 -1.88496e-19 10.4449)
(489.312 0 -1.47684)
(472.359 0 -11.2497)
(455.022 3.50715e-19 -19.1134)
(437.941 6.70447e-19 -25.1424)
(421.565 5.04126e-20 -29.4301)
(405.974 -3.70998e-19 -32.2909)
(390.894 3.99516e-19 -34.2794)
(376.111 -4.64742e-19 -35.8465)
(361.646 0 -37.2341)
(347.777 0 -38.3978)
(334.776 4.50736e-19 -39.2485)
(322.698 -1.62577e-18 -39.69)
(311.317 -1.47199e-18 -39.7871)
(300.336 0 -39.6029)
(289.569 0 -39.247)
(279.068 0 -38.7204)
(269.078 4.55091e-20 -38.0814)
(259.706 4.53651e-19 -37.3588)
(250.853 -3.25055e-20 -36.6041)
(242.376 2.8026e-19 -35.9048)
(234.135 -1.03175e-18 -35.2813)
(225.933 7.13802e-19 -34.6154)
(218.087 9.11245e-19 -33.8518)
(210.775 1.29399e-18 -33.1126)
(203.483 0 -32.1616)
(196.674 -1.39209e-18 -31.1785)
(190.149 1.72793e-18 -30.4936)
(183.095 -1.23031e-18 -29.4604)
(176.933 -3.075e-18 -28.5646)
(170.947 -8.04441e-18 -28.054)
(164.406 0 -26.8457)
(159.325 0 -26.2002)
(153.478 -3.9891e-18 -25.7289)
(147.648 0 -24.3177)
(143.303 4.84754e-18 -24.0669)
(137.588 2.29472e-18 -23.2133)
(132.917 0 -22.1644)
(128.11 1.35708e-17 -22.2037)
(122.625 2.00517e-18 -21.0458)
(118.284 0 -20.6266)
(113.511 2.97536e-18 -19.8742)
(109.775 6.42262e-18 -18.976)
(105.666 0 -18.5729)
(101.745 -7.02406e-18 -17.7284)
(97.838 5.70967e-18 -17.5464)
(93.6544 2.85366e-18 -16.6604)
(90.3989 0 -16.2112)
(87.0476 -2.10363e-19 -15.5348)
(84.1411 -2.11526e-17 -14.948)
(80.9968 0 -14.5724)
(78.0432 0 -14.068)
(75.0742 6.26048e-18 -13.6843)
(72.5933 7.20763e-18 -13.073)
(70.328 -1.62777e-17 -12.7326)
(68.1788 -1.13137e-17 -12.2522)
(66.01 -1.60117e-17 -12.0478)
(63.96 6.83537e-18 -11.6897)
(62.1932 3.22679e-17 -11.4656)
(60.5635 0 -11.0827)
(59.0187 0 -10.8399)
(57.4538 9.43043e-19 -10.5697)
(55.8581 0 -10.3619)
(54.3112 0 -10.0743)
(52.9918 -1.12836e-17 -9.83872)
(51.5965 0 -9.57466)
(50.1876 7.97328e-18 -9.33326)
(48.8236 -4.65947e-20 -9.10208)
(47.5956 -8.95259e-18 -8.86249)
(46.3486 0 -8.58999)
(45.1522 0 -8.35275)
(43.8052 0 -8.12734)
(42.5885 -1.30758e-17 -7.91903)
(41.2896 0 -7.68565)
(40.3401 1.23398e-17 -7.50014)
(39.1712 -7.90225e-18 -7.27068)
(38.3437 0 -7.13971)
(37.0774 0 -6.92362)
(36.6598 0 -6.81889)
(35.354 -4.47602e-21 -6.59887)
(35.0177 -5.59067e-18 -6.52872)
(33.6178 -8.56338e-18 -6.29014)
(33.6128 -9.36487e-18 -6.32331)
(31.8605 1.54868e-17 -5.98409)
(32.4555 0 -6.078)
(30.4724 6.81003e-18 -5.75319)
(31.3169 0 -5.85616)
(29.2141 -2.37033e-18 -5.51306)
(30.3321 0 -5.67069)
(28.113 0 -5.29107)
(29.2191 0 -5.47186)
(27.2637 4.07546e-18 -5.14732)
(28.1092 4.08699e-18 -5.2733)
(26.7464 0 -5.05933)
(27.0801 -6.40956e-18 -5.08446)
(26.3434 5.59642e-18 -4.97058)
(26.1959 -7.03855e-18 -4.92305)
(25.4235 4.43388e-18 -4.75598)
(25.4556 0 -4.77951)
(23.9001 0 -4.43516)
(24.6232 0 -4.67431)
(22.7719 0 -4.2225)
(23.7892 -3.18062e-18 -4.54854)
(22.706 -2.26851e-20 -4.23476)
(22.6953 3.71534e-18 -4.2779)
(22.6865 0 -4.29326)
(21.7948 0 -3.98537)
(20.3512 -4.52041e-18 -3.93625)
(23.0812 0 -4.15466)
(15.5823 -4.82949e-19 -3.05866)
(25.0904 0 -4.54717)
(11.3595 2.62643e-18 -2.1835)
(24.5029 0 -4.54403)
(10.3359 0 -1.58678)
(14.0979 -6.85556e-18 -3.82973)
(29.4409 0 -5.73001)
(524.186 0 70.7506)
(527.93 1.83e-19 59.68)
(526.003 0 46.1674)
(520.62 1.93197e-19 32.2957)
(512.186 3.60318e-19 19.2689)
(501.296 0 7.61004)
(488.784 -1.44831e-19 -2.57455)
(475.455 0 -11.1455)
(461.915 -6.56425e-20 -18.0148)
(448.482 5.23295e-19 -23.2592)
(435.133 0 -27.2119)
(421.652 0 -30.3324)
(408.008 4.37262e-19 -32.9589)
(394.428 0 -35.2499)
(381.314 0 -37.1434)
(368.955 0 -38.5864)
(357.373 7.34858e-19 -39.5526)
(346.314 6.60677e-19 -40.1391)
(335.487 5.77853e-19 -40.4338)
(324.749 0 -40.5353)
(314.187 0 -40.4345)
(304.056 3.95901e-19 -40.1708)
(294.472 -1.96969e-19 -39.7855)
(285.335 3.06045e-20 -39.3282)
(276.517 -2.63587e-19 -38.8778)
(267.926 1.03205e-18 -38.4626)
(259.382 3.97553e-20 -37.9716)
(251.159 -8.57095e-19 -37.3284)
(243.461 -1.21708e-18 -36.6871)
(235.769 0 -35.8485)
(228.465 0 -34.911)
(221.471 -1.62512e-18 -34.281)
(213.964 0 -33.3298)
(207.244 2.89185e-18 -32.4058)
(200.784 3.77755e-18 -31.9456)
(193.745 -2.48913e-18 -30.7893)
(188.051 0 -30.0608)
(181.746 3.751e-18 -29.6582)
(175.367 2.31589e-18 -28.2018)
(170.414 -1.67407e-19 -27.869)
(164.228 -4.44211e-18 -27.0948)
(158.931 0 -25.9496)
(153.564 -6.38965e-18 -26.0116)
(147.582 0 -24.8342)
(142.655 0 -24.3339)
(137.378 0 -23.5651)
(133.083 -9.94307e-20 -22.5854)
(128.425 0 -22.1878)
(123.974 3.301e-18 -21.2676)
(119.545 -1.07302e-17 -21.0799)
(114.89 -2.68157e-18 -20.1118)
(111.131 0 -19.599)
(107.316 4.62374e-18 -18.8746)
(103.935 1.96493e-17 -18.2299)
(100.336 0 -17.8299)
(96.9642 0 -17.2624)
(93.5912 -5.88075e-18 -16.8448)
(90.7294 -6.70718e-18 -16.1538)
(88.0842 7.63124e-18 -15.7914)
(85.5871 1.05321e-17 -15.2567)
(83.0782 0 -15.0438)
(80.7273 0 -14.6356)
(78.6707 -9.57154e-20 -14.3917)
(76.7788 4.55607e-18 -13.9602)
(74.9764 0 -13.6966)
(73.1784 -4.67631e-19 -13.3898)
(71.3618 0 -13.1623)
(69.6106 0 -12.8351)
(68.0944 0 -12.572)
(66.5137 0 -12.2766)
(64.9287 -8.01975e-20 -12.0087)
(63.3902 -5.86729e-20 -11.7485)
(62.0048 8.33962e-18 -11.4834)
(60.5954 0 -11.1814)
(59.2586 7.45914e-18 -10.9224)
(57.7522 0 -10.6748)
(56.4206 1.2261e-17 -10.4498)
(54.9734 -1.50662e-18 -10.1949)
(53.9529 1.14715e-17 -10.0004)
(52.64 3.70787e-18 -9.74927)
(51.7897 0 -9.62147)
(50.3739 1.47241e-18 -9.3856)
(50.009 0 -9.2878)
(48.5287 -3.04396e-18 -9.04923)
(48.3339 -5.22217e-18 -9.00055)
(46.7028 8.02225e-18 -8.72776)
(46.942 0 -8.80924)
(44.885 -2.89445e-17 -8.4163)
(45.8428 0 -8.57258)
(43.4694 6.23033e-18 -8.19234)
(44.8009 0 -8.36925)
(42.2382 -2.17937e-18 -7.95974)
(43.9061 0 -8.20661)
(41.2332 -5.22942e-18 -7.75536)
(42.8381 1.17857e-18 -8.02287)
(40.5649 -3.8137e-18 -7.649)
(41.7106 -3.8241e-18 -7.82767)
(40.3242 0 -7.6156)
(40.6411 1.19714e-17 -7.63463)
(40.2241 -1.04939e-17 -7.58329)
(39.799 0 -7.4805)
(39.5069 -4.14666e-18 -7.39894)
(39.2724 0 -7.37481)
(37.9823 0 -7.07187)
(38.7831 9.46193e-18 -7.34597)
(36.7371 0 -6.83503)
(38.2218 0 -7.2849)
(36.6401 -2.82038e-18 -6.84737)
(37.2618 -3.49369e-18 -7.02403)
(36.6384 -1.31515e-18 -6.93045)
(36.655 0 -6.73993)
(33.9432 0 -6.54067)
(38.4694 0 -6.97839)
(28.8253 0 -5.59724)
(40.4209 -2.66682e-19 -7.37692)
(25.0111 -1.2363e-18 -4.75488)
(38.9514 0 -7.25925)
(25.0236 0 -4.21502)
(27.3994 0 -6.12079)
(42.2772 0 -8.071)
(514.833 -1.72261e-19 68.1471)
(518.437 0 59.0593)
(518.207 -1.96025e-19 48.605)
(515.566 0 37.3536)
(510.569 -1.71969e-19 26.0645)
(503.396 0 15.3075)
(494.657 1.36123e-19 5.47321)
(485.023 -1.71432e-19 -3.12236)
(474.936 -3.5437e-19 -10.3338)
(464.518 -5.53374e-20 -16.2075)
(453.62 0 -21.0282)
(442.09 0 -25.123)
(430.056 0 -28.6934)
(417.909 0 -31.7908)
(406.11 0 -34.3442)
(394.929 0 -36.3402)
(384.338 -5.60219e-19 -37.8206)
(374.066 4.91628e-19 -38.9186)
(363.845 -5.43107e-19 -39.7364)
(353.585 0 -40.3479)
(343.407 0 -40.7312)
(333.563 -2.81551e-19 -40.9092)
(324.177 -1.1133e-19 -40.9318)
(315.149 3.35069e-20 -40.8455)
(306.37 0 -40.7147)
(297.792 -5.02226e-19 -40.5712)
(289.26 -1.38781e-18 -40.3158)
(280.998 8.75629e-19 -39.8586)
(273.223 0 -39.3757)
(265.432 0 -38.7164)
(257.917 0 -37.9006)
(250.717 1.47222e-18 -37.3793)
(243.025 0 -36.5768)
(235.988 0 -35.6935)
(229.281 3.47149e-18 -35.3175)
(221.981 2.33843e-18 -34.28)
(215.878 0 -33.5163)
(209.317 3.58958e-18 -33.2014)
(202.585 -4.37154e-18 -31.7736)
(197.187 -4.12411e-18 -31.3779)
(190.699 2.14595e-18 -30.7199)
(184.929 0 -29.5411)
(179.147 0 -29.6265)
(172.81 0 -28.4879)
(167.423 6.11156e-18 -27.9283)
(161.758 0 -27.172)
(157.004 -5.57556e-18 -26.1534)
(151.9 -4.3937e-18 -25.7742)
(147.006 0 -24.8163)
(142.144 5.03678e-18 -24.6292)
(137.097 0 -23.6123)
(132.901 0 -23.0509)
(128.683 4.81138e-18 -22.3036)
(124.88 -1.31468e-19 -21.6229)
(120.881 -5.1071e-18 -21.2112)
(117.138 0 -20.5986)
(113.408 0 -20.1566)
(110.201 6.29462e-18 -19.4039)
(107.208 0 -19.0297)
(104.391 -9.88296e-18 -18.4569)
(101.571 0 -18.2429)
(98.9451 0 -17.796)
(96.6244 -2.80633e-17 -17.5392)
(94.4928 -8.67235e-18 -17.0694)
(92.4555 -1.08138e-17 -16.7923)
(90.4464 0 -16.4571)
(88.4314 0 -16.2156)
(86.4969 2.30764e-18 -15.855)
(84.8047 -9.59646e-18 -15.5699)
(83.059 0 -15.2493)
(81.3213 -6.93875e-18 -14.9607)
(79.6299 -1.39778e-18 -14.6766)
(78.11 -7.81775e-18 -14.3916)
(76.557 2.41202e-19 -14.0653)
(75.1037 -6.99115e-18 -13.7901)
(73.454 0 -13.525)
(72.0293 0 -13.2889)
(70.4427 1.41164e-18 -13.0162)
(69.3762 -2.14246e-17 -12.8187)
(67.9223 0 -12.5487)
(67.0771 0 -12.4299)
(65.5036 -1.37922e-18 -12.1757)
(65.2289 0 -12.0914)
(63.5535 0 -11.8339)
(63.5533 4.89009e-18 -11.8151)
(61.6507 7.63606e-18 -11.504)
(62.2031 0 -11.6447)
(59.7769 1.35175e-17 -11.1897)
(61.1846 0 -11.4216)
(58.3315 -5.83139e-18 -10.9742)
(60.2532 8.11198e-19 -11.2408)
(57.1306 2.03935e-18 -10.75)
(59.4457 1.36234e-18 -11.1021)
(56.2323 7.64611e-20 -10.5648)
(58.3907 -1.10247e-18 -10.9293)
(55.7624 0 -10.4982)
(57.1767 3.60657e-18 -10.7267)
(55.8146 -1.08243e-18 -10.5222)
(55.9777 -5.58793e-18 -10.5136)
(56.0063 9.86287e-18 -10.5454)
(55.104 0 -10.3517)
(55.4284 -3.92879e-18 -10.3809)
(54.7605 0 -10.2759)
(53.7826 0 -10.0257)
(54.6133 -8.84413e-18 -10.3235)
(52.2796 0 -9.73659)
(54.296 0 -10.3239)
(52.0048 2.58155e-18 -9.72156)
(53.4138 -1.41596e-20 -10.0597)
(51.8153 -1.06982e-21 -9.79833)
(53.0995 -3.16177e-18 -9.77306)
(48.5585 0 -9.34517)
(55.2649 4.86296e-18 -10.0488)
(43.2581 3.69394e-19 -8.35667)
(56.6288 2.48989e-19 -10.37)
(40.247 1.20367e-18 -7.60754)
(53.9012 0 -10.0821)
(41.3457 4.99519e-18 -7.10707)
(41.4341 0 -9.36239)
(56.263 0 -10.5701)
(505.094 1.61696e-19 65.5711)
(508.251 -1.74964e-19 58.3211)
(508.671 -7.05835e-22 49.99)