/*--------------------------------*- C++ -*----------------------------------*\
| =========                 |                                                 |
| \\      /  F ield         | OpenFOAM: The Open Source CFD Toolbox           |
|  \\    /   O peration     | Version:  2412                                  |
|   \\  /    A nd           | Website:  www.openfoam.com                      |
|    \\/     M anipulation  |                                                 |
\*---------------------------------------------------------------------------*/
FoamFile
{
    version     2.0;
    format      ascii;
    arch        "LSB;label=32;scalar=64";
    class       volVectorField;
    location    "0.675";
    object      U_0;
}
// * * * * * * * * * * * * * * * * * * * * * * * * * * * * * * * * * * * * * //

dimensions      [0 1 -1 0 0 0 0];

internalField   nonuniform List<vector> 
12600
(
(19.4471 0 -0.700397)
(7.90271 -3.90027e-20 -1.64054)
(3.3504 -1.84385e-20 -1.68818)
(1.70652 0 -1.24617)
(1.07611 -2.11819e-22 -0.83152)
(0.73979 0 -0.564352)
(0.514369 -2.96025e-20 -0.393794)
(0.351468 0 -0.276647)
(0.230133 0 -0.191303)
(0.138122 0 -0.12707)
(0.0666042 0 -0.0787323)
(0.0106562 -9.62296e-20 -0.0410924)
(-0.0331664 -9.84831e-20 -0.0113331)
(-0.0676865 0 0.0124874)
(-0.0948072 2.00317e-19 0.030914)
(-0.115582 0 0.0456512)
(-0.131555 2.92134e-22 0.057347)
(-0.143551 0 0.0664289)
(-0.152245 9.70872e-20 0.0732308)
(-0.158072 0 0.0782446)
(-0.161779 0 0.0817506)
(-0.163493 0 0.0839388)
(-0.163576 3.5762e-19 0.0851497)
(-0.162253 -3.48349e-19 0.0855892)
(-0.159931 -1.64284e-22 0.0852522)
(-0.156754 1.64587e-19 0.0842803)
(-0.152823 0 0.0827853)
(-0.148332 0 0.0809092)
(-0.143435 0 0.078703)
(-0.13823 -2.88909e-19 0.0762378)
(-0.132831 -5.57829e-19 0.0735785)
(-0.127317 0 0.0707878)
(-0.121735 0 0.0679127)
(-0.11613 -2.49946e-19 0.0649784)
(-0.110579 -2.40642e-19 0.0620312)
(-0.105122 0 0.0591019)
(-0.099761 0 0.0562016)
(-0.0945338 -4.27967e-19 0.053353)
(-0.0894449 0 0.0505617)
(-0.0845218 6.49779e-23 0.0478475)
(-0.0797856 -3.79053e-19 0.0452213)
(-0.0752121 -3.63772e-19 0.0426669)
(-0.0707973 0 0.0401949)
(-0.0665315 -3.34557e-19 0.0378001)
(-0.0623796 -3.20637e-19 0.0354647)
(-0.0583327 6.14434e-19 0.0331857)
(-0.0543865 -5.88548e-19 0.0309613)
(-0.0505482 0 0.0287983)
(-0.0468718 5.39321e-19 0.0267281)
(-0.0434121 -5.15985e-19 0.0247827)
(-0.0402548 0 0.0230121)
(-0.0375027 -1.22764e-23 0.0214739)
(-0.0352404 4.50834e-19 0.0202164)
(-0.0335592 0 0.0192908)
(-0.0325084 -8.2254e-19 0.0187234)
(-0.0320576 0 0.0184886)
(-0.0320908 0 0.0185137)
(-0.0323241 1.13336e-24 0.0186483)
(-0.0322779 2.64026e-24 0.0186129)
(-0.0312525 6.50318e-19 0.01798)
(-0.0283764 -6.20051e-19 0.0162672)
(-0.0228118 1.18211e-18 0.0129996)
(-0.014012 0 0.00787207)
(-0.00211859 1.07329e-18 0.00096999)
(0.0117844 1.02224e-18 -0.00709559)
(0.0257933 -1.94729e-18 -0.0152341)
(0.0367063 9.27709e-19 -0.0215852)
(0.0419568 0 -0.0246999)
(0.0405032 0 -0.0240898)
(0.0356675 0 -0.0214613)
(0.0307077 0 -0.01866)
(0.0285146 0 -0.0173538)
(0.0290947 -1.41182e-18 -0.0174025)
(0.034102 1.34467e-18 -0.0200654)
(0.0444637 0 -0.0254934)
(0.0579985 0 -0.0328089)
(0.0654955 1.13339e-18 -0.0364427)
(0.0560136 3.34146e-22 -0.030462)
(0.0144339 1.96781e-18 -0.00540763)
(-0.0783691 0 0.0482395)
(-0.202968 0 0.118508)
(-0.324261 0 0.184159)
(-0.372579 -1.34188e-21 0.209593)
(-0.415992 0 0.231324)
(-0.175601 0 0.0919079)
(0.967633 1.51009e-18 -0.540531)
(0.965256 3.3223e-21 -0.538717)
(0.880772 0 -0.498008)
(1.08968 0 -0.615325)
(0.0995784 -1.17425e-18 -0.0627545)
(-0.0703236 -1.43005e-18 0.0360931)
(-0.0113231 -1.22122e-18 0.00705903)
(-0.0366715 -1.25449e-18 0.0174415)
(0.200659 1.00012e-23 -0.115148)
(0.227505 2.21907e-22 -0.129895)
(0.312452 9.95114e-19 -0.176933)
(0.32338 0 -0.177967)
(0.0202299 0 0.00414999)
(-0.581465 0 0.348836)
(-1.19549 1.29069e-18 0.687294)
(-1.64836 -8.286e-19 0.935725)
(-1.82942 1.29259e-18 1.03478)
(-1.72432 1.81792e-18 0.971012)
(-1.36503 0 0.763909)
(-0.895501 0 0.498467)
(-0.330547 0 0.181131)
(-0.246115 4.86437e-18 0.136036)
(-0.124222 0 0.0672223)
(0.0364416 -4.44269e-18 -0.0233069)
(0.0936727 0 -0.0561226)
(0.193919 0 -0.111689)
(0.252123 3.67093e-18 -0.144433)
(0.210528 0 -0.118615)
(0.101948 0 -0.0550701)
(-0.0748237 0 0.0439793)
(-0.122687 -5.34859e-18 0.0685076)
(-0.0326102 0 0.0160831)
(0.0693743 4.76876e-18 -0.041349)
(0.0914714 0 -0.0536288)
(0.162554 -4.33344e-23 -0.0934975)
(31.0227 -1.51245e-20 -1.07208)
(21.6726 2.2559e-20 -3.45485)
(13.7636 1.35491e-20 -4.34256)
(8.73726 0 -3.7683)
(5.83541 -1.12516e-20 -2.84642)
(4.08189 2.1878e-20 -2.09004)
(2.94266 3.08799e-20 -1.53776)
(2.14773 -3.62299e-20 -1.13332)
(1.56392 0 -0.829168)
(1.12097 0 -0.594939)
(0.777333 0 -0.412444)
(0.507318 0 -0.267764)
(0.292893 0 -0.151926)
(0.120708 0 -0.0585227)
(-0.0167828 -7.3419e-22 0.0172156)
(-0.126372 0 0.0777857)
(-0.214449 1.03529e-19 0.12597)
(-0.284249 0 0.164621)
(-0.338858 -2.01707e-19 0.19488)
(-0.38054 1.9798e-19 0.218178)
(-0.412026 0 0.235718)
(-0.434366 1.89867e-19 0.248265)
(-0.449252 -1.85689e-19 0.256618)
(-0.458052 1.80805e-19 0.261159)
(-0.461764 -1.7579e-19 0.262713)
(-0.460995 0 0.262073)
(-0.456421 1.65092e-19 0.259581)
(-0.448978 0 0.255273)
(-0.439222 0 0.24954)
(-0.427515 0 0.242875)
(-0.414376 2.88429e-19 0.235416)
(-0.400168 0 0.227365)
(-0.385167 0 0.218888)
(-0.369599 0 0.210094)
(-0.353756 0 0.201151)
(-0.337838 0 0.192156)
(-0.321922 0 0.183164)
(-0.30617 4.40326e-19 0.17426)
(-0.290639 0 0.165473)
(-0.275447 8.11018e-19 0.156881)
(-0.260694 7.77828e-19 0.148525)
(-0.246334 3.728e-19 0.140373)
(-0.232381 0 0.132448)
(-0.218828 0 0.124738)
(-0.205587 6.55415e-19 0.117194)
(-0.192641 -6.27376e-19 0.109816)
(-0.179993 6.00188e-19 0.102602)
(-0.167675 0 0.0955855)
(-0.155866 -5.48796e-19 0.0888724)
(-0.144752 0 0.0825732)
(-0.134613 0 0.0768548)
(-0.125784 -4.78416e-19 0.0719073)
(-0.118546 0 0.0678886)
(-0.113192 0 0.0649634)
(-0.109877 8.31056e-19 0.0632063)
(-0.10849 0 0.0625296)
(-0.108636 0 0.062673)
(-0.10937 2.04765e-24 0.0630941)
(-0.109096 6.85357e-19 0.0628366)
(-0.105477 -1.04534e-23 0.0604915)
(-0.0956414 0 0.0544351)
(-0.0768087 -1.18305e-18 0.043106)
(-0.047129 -1.1258e-18 0.0255237)
(-0.00694861 0 0.00199998)
(0.04042 -2.03727e-18 -0.0254703)
(0.0889562 7.88151e-23 -0.0532964)
(0.128292 0 -0.0753479)
(0.149702 8.77634e-19 -0.0867222)
(0.148886 0 -0.0855847)
(0.135313 0 -0.0775667)
(0.118972 0 -0.0682708)
(0.109659 0 -0.0631437)
(0.107571 2.78017e-18 -0.0624249)
(0.118777 -1.32192e-18 -0.0695374)
(0.14646 0 -0.0855647)
(0.183176 0 -0.10661)
(0.198251 1.10989e-18 -0.114335)
(0.157015 5.25944e-22 -0.0877044)
(0.0105786 6.46616e-22 0.00155812)
(-0.292986 0 0.181029)
(-0.685532 0 0.407475)
(-1.03785 0 0.605861)
(-1.14406 -2.05698e-21 0.663661)
(-1.23591 -1.57544e-18 0.706342)
(-0.577753 1.63847e-18 0.267798)
(2.88784 -1.45906e-18 -1.71227)
(2.91939 4.80473e-21 -1.67714)
(2.7155 -8.73232e-19 -1.57605)
(3.50212 0 -1.9861)
(0.480423 1.12865e-18 -0.233234)
(-0.142506 0 0.0864975)
(-0.0458237 1.17093e-18 0.0261721)
(-0.0702223 0 0.0312277)
(0.658345 -2.24822e-18 -0.388549)
(0.739423 -1.03877e-18 -0.430002)
(0.966428 0 -0.5616)
(0.879124 0 -0.498738)
(-0.218897 -1.15923e-18 0.157947)
(-2.14383 7.54003e-19 1.28085)
(-3.95389 -1.22622e-18 2.31501)
(-5.17006 7.86956e-19 3.00668)
(-5.55987 -1.22653e-18 3.21711)
(-5.14601 0 2.96264)
(-4.01909 2.11373e-18 2.29815)
(-2.65335 0 1.49873)
(-0.922916 0 0.513249)
(-0.677649 -4.59176e-18 0.386976)
(-0.334512 0 0.184367)
(0.1637 8.55603e-22 -0.100527)
(0.353126 3.98365e-18 -0.208509)
(0.645875 0 -0.376879)
(0.814373 0 -0.470839)
(0.63388 0 -0.362409)
(0.268057 2.90215e-18 -0.147096)
(-0.248054 -5.32985e-18 0.149814)
(-0.328659 5.02815e-18 0.189948)
(-0.0489741 0 0.0233708)
(0.26224 -4.47906e-18 -0.154193)
(0.323394 0 -0.18922)
(0.54112 7.8052e-18 -0.313868)
(34.6222 3.22772e-20 -0.977483)
(30.0826 -8.30823e-21 -3.06604)
(23.5295 -1.09391e-21 -4.76976)
(17.3216 0 -5.13792)
(12.5142 -1.36662e-20 -4.60159)
(9.1254 6.06857e-22 -3.77345)
(6.76793 0 -2.98271)
(5.08019 3.43872e-20 -2.32158)
(3.82926 0 -1.78811)
(2.87563 4.19115e-20 -1.35934)
(2.13329 0 -1.013)
(1.54611 0 -0.731855)
(1.07631 0 -0.502534)
(0.696876 0 -0.314905)
(0.390596 -9.81867e-20 -0.159392)
(0.141803 0 -0.0331024)
(-0.0600706 0 0.069995)
(-0.223142 0 0.153937)
(-0.354396 9.55343e-20 0.221206)
(-0.458106 -5.58675e-22 0.275175)
(-0.539747 0 0.317625)
(-0.602077 -4.27075e-22 0.350149)
(-0.64851 0 0.374265)
(-0.681528 -1.70938e-19 0.390919)
(-0.702952 0 0.401642)
(-0.714827 0 0.407156)
(-0.718953 -1.56596e-19 0.407997)
(-0.716616 0 0.40507)
(-0.708524 0 0.399558)
(-0.695932 -2.82928e-19 0.391758)
(-0.679801 0 0.382215)
(-0.660868 0 0.371309)
(-0.639781 0 0.359313)
(-0.617028 0 0.346473)
(-0.593183 2.34921e-19 0.333109)
(-0.568688 0 0.319403)
(-0.543761 0 0.305481)
(-0.518729 -4.16852e-19 0.291514)
(-0.493756 0 0.277578)
(-0.469079 -7.67865e-19 0.26383)
(-0.444915 -7.90214e-23 0.250355)
(-0.42123 -3.52948e-19 0.237124)
(-0.398086 0 0.22418)
(-0.375501 0 0.211517)
(-0.35336 -3.10081e-19 0.199071)
(-0.331652 0 0.186858)
(-0.3104 -5.67753e-19 0.174894)
(-0.289672 0 0.163248)
(-0.269777 4.00033e-23 0.152114)
(-0.251038 0 0.141688)
(-0.233933 0 0.132258)
(-0.219035 0 0.124145)
(-0.206824 -4.31446e-19 0.117615)
(-0.197795 0 0.112935)
(-0.192209 0 0.110206)
(-0.189867 0 0.109253)
(-0.190078 0 0.109589)
(-0.191218 1.35827e-18 0.110216)
(-0.190531 0 0.109438)
(-0.184002 -8.8498e-24 0.104823)
(-0.166716 0 0.0935889)
(-0.133899 5.57837e-19 0.0731135)
(-0.082332 1.06146e-18 0.041821)
(-0.0124512 0 0.000340933)
(0.0704047 1.91983e-18 -0.0479357)
(0.156289 9.12731e-19 -0.0969132)
(0.227757 0 -0.136225)
(0.269566 -8.26515e-19 -0.157417)
(0.273222 0 -0.156945)
(0.252773 0 -0.144591)
(0.224662 0 -0.128676)
(0.205914 0 -0.118493)
(0.197534 -1.50296e-22 -0.1149)
(0.210191 1.24316e-18 -0.124053)
(0.250028 0 -0.147476)
(0.303838 0 -0.177263)
(0.318931 3.06332e-22 -0.181623)
(0.236788 -1.94706e-18 -0.123574)
(-0.0245551 -9.02689e-19 0.0421352)
(-0.541472 0 0.352476)
(-1.19122 0 0.725027)
(-1.73843 0 1.02165)
(-1.85561 -2.93613e-18 1.07249)
(-1.95675 2.63612e-21 1.09444)
(-1.00397 -1.53704e-18 0.374695)
(4.49663 0 -2.73167)
(4.70909 -9.82448e-19 -2.68123)
(4.34133 8.18651e-19 -2.51945)
(5.90046 0 -3.28592)
(1.05342 0 -0.458098)
(-0.136276 1.28241e-18 0.0908638)
(-0.0819 0 0.046876)
(-0.0648276 1.1225e-18 0.00270244)
(1.1189 -4.3186e-23 -0.674707)
(1.25506 9.7321e-19 -0.732572)
(1.57461 -8.91793e-19 -0.910204)
(1.27632 0 -0.67936)
(-0.711995 1.08485e-18 0.543541)
(-3.92282 -7.05519e-19 2.41651)
(-6.75152 1.14603e-18 3.99654)
(-8.49752 0 4.93739)
(-8.91598 -1.13062e-18 5.12143)
(-8.14118 0 4.61042)
(-6.29587 -1.97651e-18 3.51237)
(-4.18345 2.18994e-18 2.2798)
(-1.38423 0 0.718966)
(-1.01472 4.29215e-18 0.558502)
(-0.489153 0 0.24765)
(0.32589 7.83491e-18 -0.212316)
(0.654376 -3.72259e-18 -0.395813)
(1.11251 0 -0.654817)
(1.37222 0 -0.789626)
(1.01825 0 -0.566392)
(0.393009 7.3997e-22 -0.194287)
(-0.412267 4.97848e-18 0.257147)
(-0.46873 -4.69391e-18 0.261419)
(-0.0190569 0 -0.01058)
(0.487248 -4.18218e-18 -0.292992)
(0.579464 0 -0.343643)
(0.933998 5.41404e-23 -0.543518)
(35.2289 -1.69893e-20 -1.20326)
(33.9676 -5.0273e-21 -2.4299)
(30.1827 6.1039e-21 -4.20073)
(25.0713 -1.38584e-20 -5.33996)
(19.9197 -2.004e-20 -5.54424)
(15.4914 -4.18313e-20 -5.09697)
(11.9831 0 -4.37578)
(9.28289 0 -3.61739)
(7.20296 0 -2.9238)
(5.58189 -3.96997e-20 -2.32379)
(4.30132 0 -1.81612)
(3.27732 0 -1.39017)
(2.45049 0 -1.03375)
(1.77744 0 -0.735978)
(1.22778 0 -0.486335)
(0.777352 -9.21372e-20 -0.279072)
(0.408331 9.1795e-20 -0.106121)
(0.105313 0 0.0363604)
(-0.14169 0 0.1538)
(-0.341497 -1.77438e-19 0.249255)
(-0.502727 1.73571e-19 0.326443)
(-0.630309 -1.70228e-19 0.387783)
(-0.729708 1.65805e-19 0.435728)
(-0.805138 1.61866e-19 0.472149)
(-0.860364 -1.57099e-19 0.498799)
(-0.898839 1.52533e-19 0.516785)
(-0.922962 0 0.52728)
(-0.935157 -1.43195e-19 0.531013)
(-0.937808 0 0.528714)
(-0.931744 2.6778e-19 0.523173)
(-0.918853 0 0.514485)
(-0.900542 0 0.503181)
(-0.877878 0 0.489825)
(-0.851742 -2.30888e-19 0.474795)
(-0.82308 -2.22226e-19 0.458606)
(-0.792669 0 0.441552)
(-0.760946 0 0.423861)
(-0.728466 3.94184e-19 0.405814)
(-0.69556 0 0.387562)
(-0.662626 9.93476e-23 0.369364)
(-0.630048 -3.47979e-19 0.351351)
(-0.597852 0 0.333516)
(-0.566166 0 0.315947)
(-0.535071 0 0.298656)
(-0.504453 0 0.281577)
(-0.474327 -5.60448e-19 0.264757)
(-0.444758 0 0.24824)
(-0.415861 5.12551e-19 0.23215)
(-0.388077 4.89906e-19 0.216774)
(-0.361878 0 0.202402)
(-0.337939 0 0.18945)
(-0.31707 0 0.178369)
(-0.299959 4.07051e-19 0.16953)
(-0.287295 -3.8822e-19 0.163291)
(-0.279437 -7.40255e-19 0.159762)
(-0.276098 0 0.158644)
(-0.276271 -6.72128e-19 0.159182)
(-0.277622 -1.28028e-18 0.159877)
(-0.276213 0 0.158227)
(-0.266338 -1.16039e-18 0.150722)
(-0.241037 0 0.133419)
(-0.193543 -5.25353e-19 0.102686)
(-0.119253 -9.99424e-19 0.056459)
(-0.018584 0 -0.00419478)
(0.101354 -9.03504e-19 -0.0744119)
(0.227009 -8.58802e-19 -0.145564)
(0.33414 0 -0.203134)
(0.400696 0 -0.235219)
(0.412825 0 -0.236498)
(0.387908 7.07074e-19 -0.220187)
(0.34777 6.75235e-19 -0.197407)
(0.317011 0 -0.181166)
(0.298364 -1.22849e-18 -0.172794)
(0.307359 -1.16781e-18 -0.181894)
(0.353543 0 -0.210274)
(0.417426 0 -0.244959)
(0.424225 -9.79591e-19 -0.239294)
(0.290308 -4.8008e-22 -0.141459)
(-0.0962863 0 0.111525)
(-0.826482 0 0.557527)
(-1.715 0 1.06641)
(-2.41057 0 1.42912)
(-2.4848 2.00773e-21 1.4405)
(-2.55628 1.38352e-18 1.41842)
(-1.4227 0 0.417129)
(5.63349 0 -3.55943)
(6.31349 0 -3.5997)
(5.62849 7.71498e-19 -3.30178)
(8.22804 0 -4.53672)
(1.84307 9.87561e-19 -0.74056)
(-0.0378808 -1.2009e-18 0.0661565)
(-0.111866 1.02756e-18 0.0637253)
(-0.0166138 -1.05084e-18 -0.0580222)
(1.57382 1.97079e-18 -0.969713)
(1.76707 -9.10796e-19 -1.03741)
(2.11581 8.34479e-19 -1.22269)
(1.4766 0 -0.737582)
(-1.48853 0 1.1156)
(-5.89931 -6.67291e-19 3.69822)
(-9.50293 -5.35575e-19 5.68303)
(-11.5055 -6.72095e-19 6.72088)
(-11.783 9.00181e-21 6.77717)
(-10.6072 0 5.98461)
(-8.12059 0 4.48654)
(-5.43352 -2.04697e-18 2.89515)
(-1.6929 0 0.830805)
(-1.25262 -4.00559e-18 0.681274)
(-0.581908 0 0.273532)
(0.520464 -7.67344e-22 -0.347426)
(0.995915 0 -0.60846)
(1.58821 -3.24718e-18 -0.942377)
(1.91516 3.01955e-18 -1.10099)
(1.35653 2.78145e-18 -0.742531)
(0.481428 8.34311e-22 -0.218081)
(-0.554142 0 0.355544)
(-0.531687 4.38352e-18 0.292162)
(0.0590093 4.1798e-18 -0.0728135)
(0.744007 3.90518e-18 -0.451024)
(0.859171 0 -0.512969)
(1.33784 6.33115e-23 -0.78183)
(34.8714 0 -1.7031)
(35.0156 -3.66242e-21 -2.23951)
(33.56 0 -3.54828)
(30.4756 1.30935e-20 -4.86664)
(26.3878 3.11498e-20 -5.64556)
(22.0518 2.04146e-20 -5.77643)
(18.0191 0 -5.42264)
(14.5428 0 -4.80872)
(11.6584 -3.40087e-20 -4.10826)
(9.30145 -3.6912e-20 -3.42077)
(7.38157 3.91804e-20 -2.7912)
(5.81375 8.17432e-20 -2.23418)
(4.52793 8.41257e-20 -1.75012)
(3.46849 0 -1.33392)
(2.59324 0 -0.977462)
(1.86858 1.7383e-19 -0.674956)
(1.26819 -3.65292e-22 -0.418728)
(0.770481 0 -0.203674)
(0.359876 -8.46967e-20 -0.0223969)
(0.0218303 -1.66761e-19 0.127023)
(-0.25482 -1.64098e-19 0.250563)
(-0.478949 0 0.351038)
(-0.658651 -1.56739e-19 0.431878)
(-0.800508 1.5243e-19 0.495504)
(-0.910043 1.48492e-19 0.544493)
(-0.992093 -2.09016e-22 0.581176)
(-1.05089 0 0.60745)
(-1.09059 1.71275e-22 0.624172)
(-1.11377 0 0.632112)
(-1.12383 2.52573e-19 0.631755)
(-1.12242 0 0.62694)
(-1.11146 0 0.61835)
(-1.09297 0 0.606183)
(-1.0683 2.18075e-19 0.591235)
(-1.03888 0 0.574203)
(-1.00596 0 0.555517)
(-0.970292 0 0.53554)
(-0.932729 0 0.514691)
(-0.893851 -3.56912e-19 0.493222)
(-0.854272 6.84821e-19 0.471515)
(-0.814595 0 0.449773)
(-0.774965 3.14584e-19 0.428021)
(-0.735613 0 0.406413)
(-0.696722 0 0.38499)
(-0.658216 0 0.363702)
(-0.62016 7.4711e-23 0.342645)
(-0.58268 0 0.321904)
(-0.545956 -4.83284e-19 0.301672)
(-0.510565 0 0.282342)
(-0.477137 0 0.264302)
(-0.446545 -4.21172e-19 0.248105)
(-0.419836 0 0.234327)
(-0.397906 0 0.223437)
(-0.381632 8.00672e-24 0.215876)
(-0.371469 6.97232e-19 0.21173)
(-0.367029 0 0.210553)
(-0.366973 2.01191e-24 0.211273)
(-0.368242 1.20526e-18 0.211823)
(-0.365708 0 0.208839)
(-0.351975 5.46005e-19 0.197723)
(-0.318085 0 0.173383)
(-0.255326 4.94226e-19 0.131265)
(-0.15775 9.40041e-19 0.0689634)
(-0.025668 0 -0.0118918)
(0.132294 8.49385e-19 -0.104929)
(0.299397 7.81186e-23 -0.199026)
(0.44508 0 -0.275704)
(0.540411 0 -0.31975)
(0.565384 0 -0.323505)
(0.53847 -1.32827e-18 -0.304085)
(0.486321 -1.39284e-22 -0.274152)
(0.441193 0 -0.250541)
(0.408541 1.15308e-18 -0.235127)
(0.408793 2.19235e-18 -0.24218)
(0.455655 0 -0.272777)
(0.523036 0 -0.307719)
(0.513633 0 -0.284565)
(0.318118 -4.69498e-22 -0.136395)
(-0.20319 0 0.214722)
(-1.14462 0 0.798333)
(-2.24916 0 1.42669)
(-3.0431 0 1.81576)
(-3.02478 1.28761e-18 1.75033)
(-3.04302 1.29062e-18 1.66326)
(-1.79579 0 0.380565)
(6.15418 0 -4.09205)
(7.75943 0 -4.41908)
(6.48664 2.13412e-21 -3.8498)
(10.4473 0 -5.7058)
(2.84942 -9.24472e-19 -1.07857)
(0.155777 0 0.00755976)
(-0.124451 -9.61667e-19 0.0726777)
(0.0672097 0 -0.154856)
(2.01487 -9.21987e-19 -1.26921)
(2.27042 0 -1.33799)
(2.58045 0 -1.47847)
(1.48063 0 -0.635108)
(-2.51748 0 1.90149)
(-8.00329 6.23942e-19 5.10814)
(-12.1109 0 7.30889)
(-14.13 6.28304e-19 8.26534)
(-14.1515 9.79758e-19 8.09759)
(-12.5736 0 7.00329)
(-9.53788 0 5.16243)
(-6.42541 0 3.30591)
(-1.86822 0 0.83196)
(-1.41293 2.79364e-21 0.744855)
(-0.621972 0 0.254439)
(0.735403 -6.83593e-18 -0.506141)
(1.3681 0 -0.846847)
(2.06792 6.06601e-18 -1.23602)
(2.44054 -2.82018e-18 -1.39569)
(1.65756 -2.59764e-18 -0.881872)
(0.553088 -2.36603e-18 -0.217029)
(-0.662581 0 0.437791)
(-0.522978 0 0.271016)
(0.175948 -7.80457e-18 -0.167861)
(1.02683 3.6454e-18 -0.62956)
(1.15919 3.42353e-18 -0.697617)
(1.74972 -3.17646e-18 -1.02636)
(34.4183 0 -2.16805)
(34.8335 3.25651e-20 -2.38122)
(34.6587 0 -3.15865)
(33.3396 0 -4.24694)
(30.843 0 -5.224)
(27.5258 0 -5.80283)
(23.8572 0 -5.91427)
(20.2258 2.93508e-20 -5.64278)
(16.8761 3.20898e-20 -5.12794)
(13.9203 6.95487e-20 -4.49669)
(11.3787 -7.37445e-20 -3.83777)
(9.22272 -7.71532e-20 -3.203)
(7.40552 -7.94068e-20 -2.61801)
(5.87757 0 -2.09314)
(4.59436 0 -1.62928)
(3.51734 -1.63335e-19 -1.22495)
(2.61411 -1.62852e-19 -0.875125)
(1.85723 0 -0.575436)
(1.22488 7.99503e-20 -0.319385)
(0.698309 1.57412e-19 -0.103479)
(0.261625 0 0.0780142)
(-0.0979841 1.50849e-19 0.228626)
(-0.391721 0 0.352498)
(-0.629167 -2.70085e-22 0.452832)
(-0.818297 -1.39683e-19 0.53291)
(-0.966404 -2.0171e-22 0.595309)
(-1.07944 0 0.642426)
(-1.16243 1.27521e-19 0.676946)
(-1.2203 -2.46381e-19 0.701018)
(-1.25767 -4.76331e-19 0.713626)
(-1.27752 -2.29751e-19 0.716621)
(-1.28299 0 0.713211)
(-1.27596 -2.13406e-19 0.705424)
(-1.259 0 0.693084)
(-1.23408 0 0.677485)
(-1.20306 0 0.659157)
(-1.16713 0 0.63862)
(-1.12758 0 0.616465)
(-1.0853 1.12004e-22 0.593069)
(-1.04121 -3.227e-19 0.568974)
(-0.996204 0 0.544464)
(-0.950599 -5.92835e-19 0.51962)
(-0.904784 0 0.494679)
(-0.859092 0 0.469731)
(-0.813528 0 0.444758)
(-0.768235 4.97825e-19 0.419921)
(-0.723432 0 0.395364)
(-0.679375 0 0.371364)
(-0.63679 0 0.348431)
(-0.596469 0 0.327062)
(-0.559484 7.92887e-19 0.307945)
(-0.527119 0 0.291782)
(-0.500476 0 0.279133)
(-0.480615 3.44103e-19 0.270501)
(-0.468076 0 0.265924)
(-0.462369 0 0.264769)
(-0.461811 1.19041e-18 0.265595)
(-0.462607 -5.66694e-19 0.265715)
(-0.458453 0 0.26085)
(-0.440307 0 0.245303)
(-0.397303 0 0.212892)
(-0.318896 -4.64428e-19 0.158274)
(-0.197874 0 0.0788802)
(-0.0343746 0 -0.0229537)
(0.161746 -1.59565e-18 -0.139325)
(0.371117 1.51625e-18 -0.256709)
(0.557595 0 -0.352898)
(0.685632 0 -0.409532)
(0.72788 0 -0.416561)
(0.702101 6.23269e-19 -0.394414)
(0.638504 -5.94998e-19 -0.35704)
(0.576952 -1.13524e-18 -0.324856)
(0.526401 -1.08172e-18 -0.300744)
(0.513117 -1.02815e-18 -0.30364)
(0.555116 9.7389e-19 -0.333891)
(0.619404 0 -0.364714)
(0.585889 0 -0.31681)
(0.319125 8.04552e-19 -0.107623)
(-0.34507 0 0.352073)
(-1.49212 0 1.07346)
(-2.78369 0 1.79953)
(-3.62113 0 2.17177)
(-3.46438 0 1.99863)
(-3.42184 -2.41422e-18 1.84352)
(-2.09132 0 0.263132)
(5.91561 -1.13936e-18 -4.25996)
(9.05593 0 -5.17443)
(6.85038 2.03206e-21 -4.14452)
(12.5022 1.04195e-18 -6.78964)
(4.05668 0 -1.45952)
(0.456065 0 -0.0776995)
(-0.107076 0 0.0685694)
(0.181811 0 -0.28266)
(2.43377 8.62445e-19 -1.569)
(2.75677 0 -1.62934)
(2.95188 0 -1.66513)
(1.27227 0 -0.373309)
(-3.77829 0 2.87624)
(-10.1601 0 6.59007)
(-14.4691 0 8.80583)
(-16.2916 0 9.54843)
(-15.9916 0 9.1163)
(-14.0385 -1.27139e-18 7.73435)
(-10.5647 0 5.60745)
(-7.16407 0 3.54691)
(-1.92083 0 0.745816)
(-1.50167 3.49343e-18 0.770389)
(-0.612552 0 0.19951)
(0.960267 3.1921e-18 -0.679638)
(1.76273 0 -1.10365)
(2.54607 3.96519e-23 -1.53221)
(2.9425 0 -1.67338)
(1.9233 2.42724e-18 -0.992909)
(0.619839 0 -0.205897)
(-0.728662 0 0.497677)
(-0.441069 0 0.207098)
(0.328354 3.64281e-18 -0.287175)
(1.33201 -6.80611e-18 -0.82385)
(1.47726 -6.39179e-18 -0.894948)
(2.1656 -2.96531e-18 -1.27523)
(34.0878 0 -2.46312)
(34.3842 -3.50439e-20 -2.59977)
(34.6281 0 -3.03269)
(34.3337 0 -3.7864)
(33.1882 -2.66835e-20 -4.66495)
(31.1787 -2.61326e-20 -5.41681)
(28.4933 2.69678e-20 -5.87273)
(25.4012 -8.49877e-20 -5.98161)
(22.1698 0 -5.78253)
(19.0144 3.80251e-23 -5.35953)
(16.0771 3.46458e-20 -4.80309)
(13.4308 0 -4.18793)
(11.0978 0 -3.56634)
(9.06907 0 -2.97104)
(7.32078 0 -2.41938)
(5.82326 3.32465e-22 -1.9203)
(4.54627 2.96333e-22 -1.47582)
(3.46109 7.57493e-20 -1.08549)
(2.54248 7.48889e-20 -0.745403)
(1.76805 0 -0.452723)
(1.11791 -1.44878e-19 -0.202589)
(0.575471 -1.42178e-19 0.00915121)
(0.125676 0 0.186467)
(-0.244091 -2.44186e-22 0.333359)
(-0.544901 2.1343e-22 0.453423)
(-0.786661 -1.27829e-19 0.550031)
(-0.977663 0 0.626219)
(-1.1254 0 0.684608)
(-1.23626 2.32143e-19 0.727678)
(-1.31553 2.21306e-22 0.759052)
(-1.3695 4.32693e-19 0.77738)
(-1.40147 0 0.784834)
(-1.41589 4.01913e-19 0.783322)
(-1.41446 0 0.776977)
(-1.40075 0 0.765426)
(-1.37728 -1.78814e-19 0.749768)
(-1.34586 0 0.730707)
(-1.30828 -3.2987e-19 0.70902)
(-1.26594 1.09692e-22 0.685236)
(-1.2201 3.03604e-19 0.660091)
(-1.17206 0 0.633974)
(-1.1224 6.94983e-23 0.607036)
(-1.0717 0 0.579626)
(-1.02053 0 0.5519)
(-0.969018 0 0.523889)
(-0.91742 0 0.495843)
(-0.866083 0 0.467976)
(-0.815361 4.27933e-19 0.440671)
(-0.766137 0 0.414564)
(-0.719377 0 0.390267)
(-0.676345 -3.7276e-19 0.368613)
(-0.638567 0 0.35042)
(-0.607344 -3.39232e-19 0.336329)
(-0.583913 -3.23422e-19 0.32689)
(-0.568895 6.16449e-19 0.322059)
(-0.561691 0 0.32098)
(-0.560273 -5.59238e-19 0.321786)
(-0.560114 -5.32377e-19 0.321117)
(-0.553775 0 0.313745)
(-0.530658 0 0.292888)
(-0.478133 0 0.251365)
(-0.383988 4.36071e-19 0.183212)
(-0.239884 0 0.0859164)
(-0.0457216 0 -0.0373355)
(0.187743 7.48764e-19 -0.177099)
(0.439187 -1.4227e-18 -0.317616)
(0.66786 0 -0.433281)
(0.832064 0 -0.502899)
(0.895982 0 -0.514477)
(0.875442 0 -0.489527)
(0.801617 -5.57674e-19 -0.444523)
(0.722086 1.0644e-18 -0.402663)
(0.650067 0 -0.368711)
(0.619162 0 -0.365115)
(0.650957 -9.12732e-19 -0.392605)
(0.70592 0 -0.41485)
(0.640915 -8.08481e-19 -0.334365)
(0.29364 7.54626e-19 -0.0533074)
(-0.519858 0 0.524617)
(-1.86329 0 1.3805)
(-3.30696 0 2.17682)
(-4.13119 0 2.48566)
(-3.80133 0 2.1808)
(-3.71649 1.12845e-18 1.96664)
(-2.30999 0 0.0909857)
(4.86899 2.13483e-18 -4.03468)
(10.2421 0 -5.86912)
(6.73723 1.83572e-21 -4.19182)
(14.3482 2.89294e-21 -7.77976)
(5.43529 0 -1.86572)
(0.870789 9.78375e-19 -0.188506)
(-0.0450501 0 0.0472195)
(0.319028 0 -0.438207)
(2.82289 -1.6128e-18 -1.86514)
(3.21743 0 -1.90405)
(3.21641 0 -1.76488)
(0.854861 0 0.0640286)
(-5.22634 0 4.02374)
(-12.2777 0 8.08726)
(-16.4824 0 10.1087)
(-17.9745 0 10.5376)
(-17.3613 0 9.8187)
(-15.0823 1.1878e-18 8.17981)
(-11.2789 0 5.83559)
(-7.68771 0 3.62611)
(-1.88223 0 0.583461)
(-1.53734 -3.25722e-18 0.758872)
(-0.563152 -3.17605e-18 0.110392)
(1.17992 -2.97961e-18 -0.86153)
(2.16732 2.83099e-18 -1.37397)
(3.01715 3.62427e-23 -1.8273)
(3.42021 -2.46022e-18 -1.93016)
(2.16348 -4.53335e-18 -1.07523)
(0.698186 0 -0.189918)
(-0.747335 3.78482e-18 0.530951)
(-0.296197 3.5629e-18 0.0983736)
(0.50851 0 -0.429852)
(1.65311 3.17655e-18 -1.03196)
(1.80987 2.98316e-18 -1.10364)
(2.58127 2.76787e-18 -1.52578)
(33.8423 0 -2.62485)
(33.9989 1.73807e-20 -2.77161)
(34.2492 0 -3.05065)
(34.3438 0 -3.54379)
(34.002 2.51256e-20 -4.20951)
(33.0524 2.46017e-20 -4.91352)
(31.4585 -2.53834e-20 -5.50679)
(29.295 8.23237e-20 -5.8821)
(26.7084 0 -5.99517)
(23.8752 3.12955e-20 -5.85828)
(20.9663 -6.49346e-20 -5.51937)
(18.1233 0 -5.0399)
(15.4465 6.9256e-20 -4.47898)
(12.9954 0 -3.88536)
(10.7961 7.13629e-20 -3.29422)
(8.85208 7.19803e-20 -2.72956)
(7.15234 7.18212e-20 -2.2053)
(5.67855 -7.13048e-20 -1.7292)
(4.40952 -1.40779e-19 -1.30325)
(3.32361 0 -0.927848)
(2.39967 1.36378e-19 -0.600505)
(1.61847 0 -0.318163)
(0.962143 0 -0.0772812)
(0.414931 -1.27149e-19 0.126263)
(-0.0375256 2.47213e-19 0.295971)
(-0.407932 0 0.435783)
(-0.707439 0 0.549168)
(-0.946015 0 0.639392)
(-1.13244 -2.18025e-19 0.709429)
(-1.2745 2.1084e-19 0.761894)
(-1.37846 -1.75455e-22 0.800391)
(-1.45128 1.96036e-19 0.825602)
(-1.4977 -3.77886e-19 0.838071)
(-1.52285 1.81828e-19 0.838799)
(-1.52896 -1.74896e-19 0.834596)
(-1.52024 8.25227e-23 0.824399)
(-1.49942 0 0.809169)
(-1.46894 3.10246e-19 0.790019)
(-1.4308 2.97692e-19 0.767651)
(-1.38679 -2.85497e-19 0.743031)
(-1.33868 0 0.71668)
(-1.28743 2.62213e-19 0.688836)
(-1.23393 2.51065e-19 0.659989)
(-1.179 2.40349e-19 0.630384)
(-1.12298 2.29995e-19 0.600117)
(-1.0663 0 0.569551)
(-1.00946 0 0.538987)
(-0.952939 -4.98995e-23 0.508931)
(-0.897798 0 0.48016)
(-0.845182 0 0.453408)
(-0.796551 -3.50117e-19 0.429653)
(-0.753666 3.34051e-19 0.409827)
(-0.71803 3.18599e-19 0.39464)
(-0.691042 7.14114e-24 0.384665)
(-0.673407 -7.61588e-24 0.379747)
(-0.664413 0 0.378769)
(-0.6617 0 0.379375)
(-0.660034 9.99423e-19 0.3775)
(-0.650913 0 0.366939)
(-0.622322 0 0.339874)
(-0.560065 -4.3023e-19 0.288251)
(-0.450495 0 0.205697)
(-0.284315 0 0.0899866)
(-0.0611253 7.39039e-19 -0.054698)
(0.207791 -7.02081e-19 -0.217393)
(0.499962 1.33394e-18 -0.380361)
(0.771239 0 -0.515028)
(0.974626 -6.02669e-19 -0.597708)
(1.06526 0 -0.61424)
(1.05441 0 -0.587197)
(0.972601 1.04509e-18 -0.534534)
(0.874446 0 -0.482117)
(0.778504 0 -0.436649)
(0.725907 0 -0.425394)
(0.742552 0 -0.448033)
(0.782295 0 -0.457328)
(0.678769 7.57088e-19 -0.336277)
(0.242376 4.74176e-22 0.0276233)
(-0.724385 -6.55755e-19 0.732565)
(-2.25079 6.05603e-19 1.71569)
(-3.80623 0 2.54901)
(-4.56071 0 2.74707)
(-4.04014 0 2.29991)
(-3.95925 0 2.05457)
(-2.50074 0 -0.0788162)
(3.13731 1.59911e-21 -3.49017)
(11.3371 0 -6.55446)
(6.26315 -5.96955e-19 -4.06061)
(15.9504 2.36279e-21 -8.68913)
(6.94847 0 -2.27818)
(1.40814 -9.14748e-19 -0.319407)
(0.0763592 0 0.00398535)
(0.471288 7.99212e-19 -0.616342)
(3.17546 -3.31983e-23 -2.15405)
(3.64168 0 -2.15369)
(3.35774 0 -1.76575)
(0.233933 0 0.677281)
(-6.8094 0 5.31127)
(-14.2615 5.16698e-19 9.53467)
(-18.0805 0 11.1688)
(-19.1949 0 11.2507)
(-18.3147 7.65083e-19 10.2839)
(-15.7808 0 8.41374)
(-11.749 -1.37065e-18 5.90812)
(-8.03491 1.53938e-18 3.57525)
(-1.78843 0 0.370928)
(-1.53092 6.0806e-18 0.724232)
(-0.482525 1.44724e-21 -0.00551809)
(1.37799 5.56373e-18 -1.04242)
(2.56796 -2.64334e-18 -1.65009)
(3.47516 -2.4696e-18 -2.1176)
(3.87281 2.29693e-18 -2.16641)
(2.38547 2.11651e-18 -1.13558)
(0.800219 1.92825e-18 -0.17888)
(-0.71618 -3.53319e-18 0.535543)
(-0.0963641 -3.32591e-18 -0.044972)
(0.711243 -3.17183e-18 -0.590664)
(1.98371 -2.96437e-18 -1.24958)
(2.15354 0 -1.32135)
(2.99204 0 -1.77536)
(33.6239 0 -2.7192)
(33.7008 1.88905e-20 -2.87909)
(33.8672 0 -3.1021)
(34.024 0 -3.44274)
(34.014 0 -3.91674)
(33.6831 0 -4.4813)
(32.9172 2.82996e-20 -5.05078)
(31.6633 -2.66709e-20 -5.53075)
(29.9335 2.88042e-20 -5.84819)
(27.7949 -5.83919e-20 -5.96579)
(25.3523 6.10417e-20 -5.88109)
(22.7282 0 -5.61773)
(20.0445 -6.51038e-20 -5.21435)
(17.4077 0 -4.7149)
(14.8998 -6.70887e-20 -4.16084)
(12.5756 -6.70459e-20 -3.58757)
(10.4651 0 -3.02191)
(8.57901 0 -2.48309)
(6.91451 6.60816e-20 -1.98263)
(5.46085 0 -1.52757)
(4.20245 0 -1.12046)
(3.12193 -1.25037e-19 -0.761336)
(2.20122 0 -0.448605)
(1.42282 0 -0.179339)
(0.770081 -1.16124e-19 0.0496278)
(0.227548 0 0.242071)
(-0.218831 0 0.401643)
(-0.581823 0 0.531986)
(-0.872869 4.09706e-19 0.636512)
(-1.10219 0 0.718615)
(-1.27889 -1.54506e-22 0.780977)
(-1.41055 -1.35648e-22 0.827043)
(-1.50488 1.77517e-19 0.859805)
(-1.5681 -1.70885e-19 0.877209)
(-1.60548 3.28632e-19 0.881709)
(-1.62123 1.57981e-19 0.87964)
(-1.61886 0 0.871072)
(-1.60208 0 0.856854)
(-1.57367 2.79481e-19 0.838002)
(-1.53607 -2.68033e-19 0.81575)
(-1.49173 0 0.790777)
(-1.44208 0 0.763425)
(-1.38842 -5.74536e-23 0.734358)
(-1.33194 -2.25725e-19 0.703936)
(-1.27328 -2.15983e-19 0.672342)
(-1.21308 -4.1308e-19 0.640074)
(-1.15206 0 0.607541)
(-1.09086 -4.90079e-23 0.575385)
(-1.03072 0 0.544543)
(-0.972989 0 0.515875)
(-0.919323 3.28613e-19 0.49051)
(-0.871715 -3.13505e-19 0.469487)
(-0.831869 0 0.45357)
(-0.801342 2.84974e-19 0.443338)
(-0.780921 -6.8781e-24 0.438486)
(-0.769792 0 0.437609)
(-0.765293 0 0.43779)
(-0.761525 -9.37386e-19 0.434247)
(-0.749046 0 0.419797)
(-0.714607 0 0.385663)
(-0.642702 8.06783e-19 0.323083)
(-0.518528 0 0.225513)
(-0.332024 0 0.0912612)
(-0.0824248 -1.38538e-18 -0.0743782)
(0.218897 6.58013e-19 -0.258981)
(0.549212 -6.24991e-19 -0.44319)
(0.862395 0 -0.595945)
(1.10733 5.64652e-19 -0.691491)
(1.22973 0 -0.713624)
(1.23415 -5.12608e-19 -0.684977)
(1.14784 -4.89348e-19 -0.624936)
(1.03157 0 -0.561445)
(0.909953 0 -0.503681)
(0.832526 8.45153e-19 -0.483658)
(0.829663 8.00597e-19 -0.499442)
(0.848791 0 -0.491283)
(0.700103 0 -0.321444)
(0.166945 -1.3239e-18 0.136388)
(-0.954486 6.13647e-19 0.975078)
(-2.64582 -1.1336e-18 2.07395)
(-4.26845 0 2.9057)
(-4.90141 0 2.94791)
(-4.19985 0 2.36003)
(-4.19247 0 2.13337)
(-2.73493 0 -0.179244)
(1.07126 7.5184e-22 -2.83252)
(12.3605 0 -7.25126)
(5.641 0 -3.86926)
(17.3054 1.41156e-21 -9.52097)
(8.55954 0 -2.67891)