/*--------------------------------*- C++ -*----------------------------------*\
| =========                 |                                                 |
| \\      /  F ield         | OpenFOAM: The Open Source CFD Toolbox           |
|  \\    /   O peration     | Version:  2412                                  |
|   \\  /    A nd           | Website:  www.openfoam.com                      |
|    \\/     M anipulation  |                                                 |
\*---------------------------------------------------------------------------*/
FoamFile
{
    version     2.0;
    format      ascii;
    arch        "LSB;label=32;scalar=64";
    class       volVectorField;
    location    "1.09";
    object      U;
}
// * * * * * * * * * * * * * * * * * * * * * * * * * * * * * * * * * * * * * //

dimensions      [0 1 -1 0 0 0 0];

internalField   nonuniform List<vector> 
12600
(
(18.7282 1.22075e-21 2.09222)
(11.6133 1.60625e-20 0.450298)
(7.34857 1.88919e-20 -0.47784)
(5.08855 0 -0.709072)
(3.97623 1.70777e-20 -0.682187)
(3.33579 1.59036e-20 -0.607522)
(2.89468 0 -0.539865)
(2.56351 0 -0.484438)
(2.3039 -4.77985e-20 -0.43899)
(2.09375 0 -0.401251)
(1.91935 2.00454e-20 -0.369379)
(1.77178 1.8353e-20 -0.342045)
(1.64492 -1.68116e-20 -0.318303)
(1.53444 0 -0.297457)
(1.43716 -1.40873e-20 -0.278981)
(1.3507 0 -0.262474)
(1.27322 4.7324e-20 -0.24762)
(1.2033 0 -0.23417)
(1.13981 -1.98001e-20 -0.221922)
(1.08183 -1.81054e-20 -0.210713)
(1.02863 1.65244e-20 -0.200408)
(0.979595 5.45498e-24 -0.190895)
(0.934223 0 -0.182081)
(0.892085 -2.49098e-20 -0.173886)
(0.852822 0 -0.166244)
(0.816127 0 -0.159097)
(0.781737 -1.84482e-20 -0.152394)
(0.749424 0 -0.146093)
(0.718991 4.03024e-24 -0.140156)
(0.690264 1.33113e-20 -0.134551)
(0.663092 1.18435e-20 -0.129247)
(0.63734 1.0484e-20 -0.12422)
(0.612891 -9.22514e-21 -0.119447)
(0.589637 -1.612e-20 -0.114907)
(0.567485 -1.39642e-20 -0.110582)
(0.54635 1.19601e-20 -0.106455)
(0.526154 0 -0.102513)
(0.506829 -8.42761e-21 -0.0987403)
(0.488312 0 -0.095126)
(0.470547 5.41089e-21 -0.0916588)
(0.45348 0 -0.0883287)
(0.437065 1.7466e-23 -0.0851261)
(0.421258 0 -0.0820428)
(0.406018 1.59059e-23 -0.0790708)
(0.39131 -5.28256e-22 -0.076203)
(0.377096 2.2467e-21 -0.0734324)
(0.363349 -3.84331e-21 -0.0707533)
(0.350035 0 -0.0681594)
(0.337131 0 -0.0656458)
(0.324606 -7.78366e-21 -0.0632069)
(0.312442 -1.77155e-20 -0.0608388)
(0.300611 -1.96507e-20 -0.0585362)
(0.289097 1.94138e-23 -0.056296)
(0.277875 -2.29205e-20 -0.0541131)
(0.266933 0 -0.0519854)
(0.256244 2.55357e-20 -0.0499075)
(0.245803 2.66039e-20 -0.0478783)
(0.235582 2.75179e-20 -0.0458925)
(0.225579 0 -0.0439497)
(0.215766 0 -0.0420443)
(0.206146 0 -0.0401769)
(0.196689 -6.00656e-20 -0.0383417)
(0.187403 0 -0.0365401)
(0.178257 0 -0.034766)
(0.169261 1.23399e-19 -0.0330217)
(0.160385 0 -0.031301)
(0.151644 0 -0.0296067)
(0.143005 0 -0.0279327)
(0.134487 -1.23473e-19 -0.0262825)
(0.12606 1.22871e-19 -0.0246502)
(0.117743 1.22049e-19 -0.0230394)
(0.109511 2.33709e-23 -0.0214454)
(0.101381 -1.19827e-19 -0.0198714)
(0.0933349 0 -0.0183136)
(0.0853988 1.16925e-19 -0.0167773)
(0.0775333 0 -0.0152547)
(0.0698249 0 -0.0137625)
(0.0621278 0 -0.0122724)
(0.0547294 2.85117e-23 -0.0108399)
(0.0471633 2.1465e-19 -0.00937495)
(0.040216 2.10169e-19 -0.00802924)
(0.0327331 -2.05453e-19 -0.00658007)
(0.0263728 -2.00665e-19 -0.00534715)
(0.0190722 0 -0.00393273)
(0.0131044 0 -0.00277504)
(0.00678524 3.7088e-19 -0.00154862)
(-0.000148247 -7.19992e-19 -0.000206029)
(-0.00327858 6.9985e-19 0.000409763)
(-0.0128059 3.37927e-19 0.00224759)
(-0.0133512 0 0.00234964)
(-0.0206246 -6.32091e-19 0.00377895)
(-0.0287593 3.05606e-19 0.00528167)
(-0.0142705 -2.96225e-19 0.00263759)
(-0.0601736 5.57698e-19 0.0113265)
(-0.00344573 0 0.000420227)
(-0.0575091 0 0.0110791)
(-0.0511203 0 0.00920152)
(-0.00437901 0 0.00126456)
(-0.138645 0 0.0260132)
(0.0822526 0 -0.0155395)
(-0.188492 -3.65401e-19 0.0360644)
(0.022319 -9.09198e-19 -0.00540014)
(-0.0428678 -6.95305e-19 0.00954828)
(-0.211969 0 0.039076)
(0.135575 0 -0.0251008)
(-0.366964 0 0.069963)
(0.158226 -7.70946e-19 -0.0307663)
(-0.200824 -9.8557e-19 0.0399947)
(-0.145928 6.65787e-19 0.0256341)
(0.090504 0 -0.0159067)
(-0.41985 -1.02458e-18 0.0799478)
(0.087111 0 -0.0179391)
(-0.112615 -9.36909e-19 0.0227699)
(-0.121564 9.65939e-19 0.0227911)
(-0.0988774 -9.08859e-19 0.0182686)
(0.018459 -9.18936e-19 -0.00355532)
(-0.0724628 7.88129e-19 0.0146977)
(-0.218162 -1.28434e-22 0.0413109)
(-0.0402975 7.79285e-19 0.00682688)
(-0.00292463 0 0.000389607)
(29.1332 -1.23234e-21 4.02219)
(25.0923 0 1.85608)
(20.2339 -1.91207e-20 -0.214506)
(16.0708 0 -1.21231)
(13.1137 -1.73046e-20 -1.50758)
(11.0725 -3.03821e-20 -1.51854)
(9.6013 -1.40632e-20 -1.44095)
(8.48997 0 -1.3434)
(7.61759 3.55871e-22 -1.24808)
(6.91141 -2.18635e-20 -1.16106)
(6.32583 2.00732e-20 -1.08302)
(5.83084 1.8427e-20 -1.01324)
(5.40584 -1.69135e-20 -0.950709)
(5.03618 1.55209e-20 -0.894454)
(4.71111 2.85335e-20 -0.843615)
(4.42257 0 -0.79746)
(4.16436 -6.47192e-23 -0.755368)
(3.93166 2.19147e-20 -0.71682)
(3.72064 2.00881e-20 -0.681377)
(3.5282 0 -0.648668)
(3.35186 0 -0.618377)
(3.18953 1.52708e-20 -0.590237)
(3.03951 0 -0.564016)
(2.90036 1.26275e-20 -0.539516)
(2.77086 -2.28939e-20 -0.516566)
(2.64997 0 -0.495016)
(2.53681 1.86982e-20 -0.474735)
(2.43061 0 -0.455608)
(2.33069 -1.50884e-20 -0.437535)
(2.23648 -2.69673e-20 -0.420424)
(2.14747 -2.39894e-20 -0.404198)
(2.0632 -1.06117e-20 -0.388784)
(1.98328 9.33494e-21 -0.374119)
(1.90735 3.2632e-20 -0.360145)
(1.83508 2.82618e-20 -0.346811)
(1.76621 0 -0.334071)
(1.70046 0 -0.321881)
(1.63761 -1.72257e-23 -0.310203)
(1.57745 0 -0.299003)
(1.51978 -5.46252e-21 -0.288247)
(1.46444 0 -0.277906)
(1.41126 -5.75353e-21 -0.267953)
(1.3601 0 -0.258364)
(1.31082 -1.39284e-21 -0.249114)
(1.26331 0 -0.240183)
(1.21744 -2.26229e-21 -0.231549)
(1.17311 0 -0.223197)
(1.13022 0 -0.215106)
(1.08869 6.59802e-21 -0.207263)
(1.04841 0 -0.19965)
(1.00933 0 -0.192255)
(0.971357 0 -0.185063)
(0.934432 2.14356e-20 -0.178064)
(0.898472 4.5927e-20 -0.171243)
(0.863439 0 -0.164593)
(0.829248 0 -0.158098)
(0.795876 -2.65795e-20 -0.151754)
(0.763234 -2.75166e-20 -0.145545)
(0.731315 0 -0.13947)
(0.700027 0 -0.133512)
(0.669378 0 -0.127673)
(0.639271 0 -0.121934)
(0.609728 -6.05089e-20 -0.1163)
(0.580649 6.1006e-20 -0.110752)
(0.55207 -1.22697e-19 -0.105297)
(0.523886 0 -0.0999156)
(0.496148 0 -0.094617)
(0.468748 0 -0.0893824)
(0.441747 4.71922e-23 -0.0842211)
(0.415043 -1.21696e-19 -0.079117)
(0.3887 -1.20771e-19 -0.0740785)
(0.36263 2.39274e-19 -0.0690938)
(0.336897 3.57712e-23 -0.0641697)
(0.311425 -1.16855e-19 -0.0592983)
(0.286309 -1.15261e-19 -0.0544902)
(0.261414 0 -0.0497289)
(0.237008 0 -0.0450553)
(0.212646 0 -0.0403963)
(0.18919 2.14945e-19 -0.035904)
(0.165244 0 -0.0313245)
(0.143163 0 -0.0270969)
(0.119471 2.0108e-19 -0.0225643)
(0.0992033 1.96185e-19 -0.0186898)
(0.0760111 0 -0.0142454)
(0.0570686 0 -0.0106383)
(0.0366379 0 -0.00670761)
(0.0151255 7.00792e-19 -0.00262909)
(0.00402267 -4.04862e-23 -0.000488572)
(-0.0252746 3.28168e-19 0.00515138)
(-0.0278642 -3.18597e-19 0.00549468)
(-0.0517717 6.1257e-19 0.0103319)
(-0.074449 2.95801e-19 0.0141863)
(-0.0379085 5.72935e-19 0.00781574)
(-0.167894 0 0.0323401)
(-0.00494222 0 0.000404857)
(-0.170756 0 0.0342514)
(-0.137644 0 0.0246887)
(-0.02256 4.64035e-19 0.00640179)
(-0.393501 0 0.0741237)
(0.228719 0 -0.043709)
(-0.557699 -3.50308e-19 0.109368)
(0.0906363 4.35459e-19 -0.0218446)
(-0.157332 1.33107e-18 0.0363051)
(-0.583782 -7.27511e-19 0.107927)
(0.363036 0 -0.0672771)
(-1.07553 0 0.207656)
(0.478069 0 -0.0960817)
(-0.63475 4.69437e-19 0.12943)
(-0.357426 -6.33632e-19 0.0616402)
(0.218395 0 -0.0365451)
(-1.22175 1.94651e-18 0.235786)
(0.282762 1.1126e-18 -0.0609441)
(-0.382068 1.77767e-18 0.0779023)
(-0.329786 0 0.0626922)
(-0.270797 0 0.0499174)
(0.0497182 -8.69758e-19 -0.0102311)
(-0.23431 0 0.0494732)
(-0.612577 -7.47415e-19 0.117312)
(-0.0928088 -7.3587e-19 0.0140862)
(-0.00265769 0 -7.96762e-05)
(31.8764 0 3.89303)
(31.0626 0 2.8158)
(28.5347 -1.29502e-20 1.0215)
(25.1943 0 -0.384263)
(21.9455 0 -1.22746)
(19.1753 1.51035e-20 -1.65177)
(16.9195 1.33179e-20 -1.81983)
(15.0963 0 -1.85134)
(13.6103 4.20529e-22 -1.81761)
(12.3813 2.07127e-20 -1.75512)
(11.3489 -3.78251e-20 -1.68135)
(10.4689 -1.74595e-20 -1.60467)
(9.70906 1.14577e-22 -1.52904)
(9.04563 -1.47073e-20 -1.45631)
(8.4607 -1.34924e-20 -1.38729)
(7.94055 1.23226e-20 -1.32221)
(7.47453 -2.2677e-20 -1.26108)
(7.05422 -2.07672e-20 -1.20373)
(6.67289 0 -1.14993)
(6.32509 0 -1.09946)
(6.00637 1.5832e-20 -1.05205)
(5.71304 1.44389e-20 -1.00748)
(5.44201 0 -0.965512)
(5.19071 0 -0.925944)
(4.95694 2.16934e-20 -0.888584)
(4.73883 0 -0.853257)
(4.53476 -3.54284e-20 -0.819804)
(4.34335 1.59417e-20 -0.788082)
(4.16337 0 -0.757959)
(3.99378 1.27775e-20 -0.729317)
(3.83365 1.13668e-20 -0.702047)
(3.68215 0 -0.67605)
(3.53855 -8.85598e-21 -0.651236)
(3.40222 -1.5463e-20 -0.627525)
(3.27256 1.20077e-23 -0.604839)
(3.14906 0 -0.583112)
(3.03126 0 -0.562279)
(2.91872 8.07914e-21 -0.542282)
(2.81108 0 -0.523068)
(2.70797 0 -0.504587)
(2.60909 0 -0.486794)
(2.51414 0 -0.469646)
(2.42286 0 -0.453104)
(2.335 0 -0.43713)
(2.25034 0 -0.421691)
(2.16867 2.09828e-21 -0.406755)
(2.08981 -3.60678e-21 -0.392292)
(2.01355 0 -0.378273)
(1.93976 -6.24235e-21 -0.364674)
(1.86826 0 -0.351467)
(1.79892 0 -0.338633)
(1.73159 1.85743e-20 -0.326144)
(1.66617 0 -0.313987)
(1.60251 -2.16989e-20 -0.302134)
(1.54052 2.29683e-20 -0.290575)
(1.48007 0 -0.279282)
(1.42111 2.51234e-20 -0.268251)
(1.36347 0 -0.257453)
(1.30715 0 -0.246886)
(1.25197 0 -0.236521)
(1.19796 5.56603e-20 -0.226362)
(1.14493 5.64824e-20 -0.216377)
(1.09293 2.83538e-23 -0.206574)
(1.04177 -1.15187e-19 -0.196921)
(0.991516 2.48644e-23 -0.187429)
(0.941982 0 -0.178066)
(0.893258 0 -0.168847)
(0.845145 -1.15871e-19 -0.159738)
(0.797756 3.8009e-23 -0.150757)
(0.750899 0 -0.141875)
(0.704696 0 -0.133107)
(0.658975 -1.12802e-19 -0.124433)
(0.613864 2.87819e-23 -0.115862)
(0.569206 2.67966e-23 -0.107384)
(0.525181 0 -0.0990115)
(0.481539 0 -0.0907244)
(0.438744 -2.10202e-19 -0.0825791)
(0.396036 2.06383e-19 -0.0744706)
(0.354863 0 -0.0666288)
(0.312882 0 -0.0586608)
(0.274046 0 -0.0512641)
(0.2325 0 -0.0433753)
(0.196773 0 -0.036588)
(0.156 0 -0.0288175)
(0.122697 0 -0.0225506)
(0.0863021 0 -0.0155321)
(0.0491516 -6.5884e-19 -0.00864562)
(0.0280262 -3.19816e-19 -0.00448519)
(-0.0221006 -3.08436e-19 0.00504527)
(-0.0280134 2.99379e-19 0.00577848)
(-0.0709258 -5.75452e-19 0.0147878)
(-0.10691 -2.77844e-19 0.0200552)
(-0.054962 -2.6902e-19 0.0125404)
(-0.262265 0 0.0500923)
(-0.000444835 0 -0.00102026)
(-0.281105 0 0.0582617)
(-0.208772 0 0.0347642)
(-0.0488256 -4.35341e-19 0.016022)
(-0.627638 0 0.114557)
(0.358253 0 -0.0663113)
(-0.919499 3.28459e-19 0.182056)
(0.179733 0 -0.0473005)
(-0.298144 -6.23903e-19 0.0757059)
(-0.906579 6.81762e-19 0.15965)
(0.546985 0 -0.0946482)
(-1.76069 0 0.338335)
(0.797657 0 -0.165325)
(-1.09873 4.39824e-19 0.232569)
(-0.490454 0 0.0712682)
(0.293763 -5.00329e-19 -0.0371662)
(-1.98406 -3.40439e-22 0.380792)
(0.494193 -1.04128e-18 -0.114416)
(-0.693705 -1.66385e-18 0.147515)
(-0.499726 0 0.0919473)
(-0.422907 8.04909e-19 0.0737755)
(0.0741054 8.13553e-19 -0.0155876)
(-0.410086 6.97335e-19 0.0922457)
(-0.964282 0 0.181502)
(-0.120608 6.88065e-19 0.0109476)
(0.00453143 0 -0.002621)
(32.3987 0 2.95134)
(32.9646 0 2.76531)
(32.4115 1.22422e-20 1.7211)
(30.7693 0 0.520043)
(28.5173 -1.22885e-20 -0.484962)
(26.1023 2.49985e-20 -1.20777)
(23.7842 0 -1.67074)
(21.6788 -2.18219e-20 -1.93483)
(19.8199 2.09238e-20 -2.06399)
(18.1978 1.89219e-20 -2.10827)
(16.785 1.77842e-20 -2.10147)
(15.5504 -1.61642e-20 -2.06485)
(14.4655 1.5048e-20 -2.01138)
(13.5061 -2.74337e-20 -1.94888)
(12.6521 0 -1.88206)
(11.8872 -2.32458e-20 -1.81381)
(11.198 0 -1.74587)
(10.5739 0 -1.67927)
(10.0057 0 -1.61465)
(9.48615 1.6352e-20 -1.55234)
(9.00909 -3.42505e-23 -1.4925)
(8.56934 -2.60643e-23 -1.43518)
(8.16256 1.24158e-20 -1.38037)
(7.78504 0 -1.32801)
(7.43362 0 -1.27801)
(7.10558 0 -1.23026)
(6.79858 3.34925e-20 -1.18466)
(6.51056 -6.06933e-24 -1.1411)
(6.23975 0 -1.09945)
(5.98457 0 -1.05962)
(5.74365 0 -1.02151)
(5.51576 0 -0.985001)
(5.29982 1.67513e-20 -0.950013)
(5.09485 0 -0.916454)
(4.9 -1.26736e-20 -0.884241)
(4.71447 0 -0.853294)
(4.53757 0 -0.823542)
(4.36866 -7.6607e-21 -0.794913)
(4.20717 0 -0.767345)
(4.05256 0 -0.740776)
(3.90436 3.7191e-21 -0.715149)
(3.76213 -5.21845e-21 -0.69041)
(3.62547 0 -0.66651)
(3.49401 -1.31135e-21 -0.6434)
(3.36742 0 -0.621039)
(3.24536 -3.9452e-21 -0.599379)
(3.12756 1.87819e-23 -0.578388)
(3.01374 0 -0.558021)
(2.90366 0 -0.53825)
(2.79706 6.92903e-21 -0.519035)
(2.69375 1.57811e-20 -0.500351)
(2.59349 -3.50486e-20 -0.482159)
(2.49614 0 -0.464442)
(2.40146 -2.04354e-20 -0.44716)
(2.30934 -2.16812e-20 -0.430301)
(2.21956 -2.27307e-20 -0.413825)
(2.13203 -2.36686e-20 -0.397726)
(2.04653 0 -0.381963)
(1.96303 0 -0.366535)
(1.88128 -5.15087e-20 -0.351399)
(1.8013 -1.04973e-19 -0.336562)
(1.72282 -5.32725e-20 -0.321977)
(1.6459 3.04262e-23 -0.307657)
(1.57027 5.42935e-20 -0.293555)
(1.49603 5.45701e-20 -0.279688)
(1.42288 0 -0.266008)
(1.35095 0 -0.252537)
(1.27996 1.09195e-19 -0.239228)
(1.21006 2.17438e-19 -0.226104)
(1.14097 0 -0.213125)
(1.07287 1.07194e-19 -0.200311)
(1.00549 1.06174e-19 -0.187632)
(0.939025 1.05018e-19 -0.175104)
(0.873227 2.07344e-19 -0.16271)
(0.808372 0 -0.150467)
(0.744075 0 -0.13835)
(0.681011 1.97805e-19 -0.126429)
(0.618084 -3.88312e-19 -0.114573)
(0.557348 -1.9031e-19 -0.103078)
(0.495485 0 -0.0914305)
(0.438084 0 -0.0805633)
(0.376845 0 -0.0690311)
(0.32392 0 -0.0590417)
(0.263678 0 -0.0476426)
(0.214445 0 -0.0384774)
(0.160014 -3.19194e-19 -0.0279953)
(0.106024 4.32051e-23 -0.0181853)
(0.0725227 3.003e-19 -0.011532)
(0.000466864 0 0.00195577)
(-0.0104125 2.81012e-19 0.00334514)
(-0.0747893 2.7007e-19 0.0171081)
(-0.123077 0 0.0230227)
(-0.0627267 -2.52421e-19 0.0165648)
(-0.339902 -4.74276e-19 0.0646048)
(0.0112258 0 -0.00353079)
(-0.384973 0 0.0823764)
(-0.26253 0 0.0405447)
(-0.0814717 -4.08238e-19 0.0291053)
(-0.83703 0 0.148928)
(0.469239 0 -0.0843155)
(-1.26739 3.07656e-19 0.253175)
(0.285968 -3.82236e-19 -0.0789667)
(-0.461451 0 0.124748)
(-1.17493 0 0.198083)
(0.683284 0 -0.109566)
(-2.41068 0 0.461807)
(1.1067 0 -0.235836)
(-1.584 7.2239e-23 0.345331)
(-0.54167 0 0.0603379)
(0.314948 4.68191e-19 -0.0209958)
(-2.68887 -8.51881e-19 0.514847)
(0.711024 0 -0.173975)
(-1.04072 -1.81762e-22 0.22759)
(-0.62408 0 0.111205)
(-0.55793 -1.35834e-22 0.0933314)
(0.090594 0 -0.0192974)
(-0.594176 -6.51984e-19 0.140324)
(-1.26414 0 0.235407)
(-0.125701 6.43002e-19 0.000531195)
(0.0203021 0 -0.00695996)
(32.5017 0 2.09914)
(33.2593 0 2.22474)
(33.6059 0 1.74976)
(33.2419 0 0.955826)
(32.2197 1.15994e-20 0.114108)
(30.7466 -9.00403e-22 -0.634953)
(29.0279 0 -1.23595)
(27.2225 2.05969e-20 -1.67973)
(25.4398 0 -1.98345)
(23.7461 -3.52198e-20 -2.17536)
(22.1737 0 -2.28403)
(20.7325 1.52601e-20 -2.33346)
(19.4202 0 -2.34195)
(18.2281 2.59018e-20 -2.32274)
(17.1448 -1.17986e-20 -2.28514)
(16.159 2.18028e-20 -2.23559)
(15.2596 -1.99609e-20 -2.17854)
(14.4369 -1.83235e-20 -2.11705)
(13.6819 0 -2.05322)
(12.9871 -1.54408e-20 -1.9885)
(12.3456 -1.41081e-20 -1.92389)
(11.7518 -2.57068e-20 -1.86008)
(11.2006 -1.17239e-20 -1.79751)
(10.6875 0 -1.73649)
(10.2087 0 -1.6772)
(9.76086 0 -1.61975)
(9.34108 -1.58073e-20 -1.56418)
(8.94673 -1.42295e-20 -1.51052)
(8.57554 0 -1.45874)
(8.22547 0 -1.40881)
(7.89474 1.01502e-20 -1.36067)
(7.58174 0 -1.31428)
(7.28503 1.31822e-24 -1.26956)
(7.00333 -1.38253e-20 -1.22645)
(6.73547 1.19796e-20 -1.18487)
(6.48043 0 -1.14478)
(6.23724 0 -1.10609)
(6.00505 7.23033e-21 -1.06873)
(5.78309 0 -1.03266)
(5.57063 0 -0.997799)
(5.36702 -3.50957e-21 -0.964094)
(5.17168 4.92416e-21 -0.931487)
(4.98405 0 -0.899924)
(4.80361 1.23723e-21 -0.869349)
(4.62992 0 -0.839718)
(4.46253 1.8516e-21 -0.810975)
(4.30105 3.19633e-21 -0.783082)
(4.14509 0 -0.755988)
(3.99433 5.5136e-21 -0.729658)
(3.84841 -6.53447e-21 -0.704043)
(3.70707 -2.97329e-20 -0.679116)
(3.56998 1.65098e-20 -0.654826)
(3.43693 -1.79405e-20 -0.631154)
(3.30761 2.53263e-23 -0.60805)
(3.18185 0 -0.585499)
(3.05935 2.14246e-20 -0.56345)
(2.93999 2.23064e-20 -0.541896)
(2.82347 -2.30478e-20 -0.520784)
(2.70973 2.36991e-20 -0.500115)
(2.59845 4.85286e-20 -0.479831)
(2.48962 4.94281e-20 -0.459943)
(2.38291 -5.01168e-20 -0.440389)
(2.27837 5.07022e-20 -0.421188)
(2.17563 0 -0.402274)
(2.07482 0 -0.383675)
(1.97554 5.14566e-20 -0.365323)
(1.87798 0 -0.34725)
(1.78171 0 -0.329391)
(1.68697 -1.02297e-19 -0.311781)
(1.59334 0 -0.294361)
(1.50109 -1.00853e-19 -0.277162)
(1.40982 -1.99727e-19 -0.26014)
(1.31983 0 -0.24332)
(1.23073 -9.74844e-20 -0.226676)
(1.14292 0 -0.210229)
(1.05585 0 -0.193953)
(0.970438 -1.85853e-19 -0.177925)
(0.885212 1.82464e-19 -0.161997)
(0.802866 3.91357e-23 -0.146517)
(0.719067 0 -0.130872)
(0.64109 0 -0.1162)
(0.558107 0 -0.10071)
(0.486038 -1.62878e-19 -0.0871971)
(0.404223 1.58567e-19 -0.0718331)
(0.337285 0 -0.0595081)
(0.262519 5.99217e-19 -0.045132)
(0.190302 2.90372e-19 -0.0322979)
(0.141777 -5.63575e-19 -0.0225896)
(0.0466332 -2.71648e-19 -0.00505885)
(0.0287279 -5.27209e-19 -0.00269147)
(-0.0596208 0 0.016476)
(-0.119529 0 0.0222959)
(-0.0579467 2.36686e-19 0.0193738)
(-0.397252 4.44641e-19 0.0746811)
(0.0316682 -4.4634e-19 -0.00735195)
(-0.478132 0 0.105802)
(-0.297352 0 0.0411584)
(-0.1178 3.82494e-19 0.0456163)
(-1.01817 3.51798e-19 0.175216)
(0.561536 0 -0.0964278)
(-1.59476 -2.88127e-19 0.320768)
(0.404305 3.57923e-19 -0.116451)
(-0.641556 0 0.18333)
(-1.3858 0 0.219968)
(0.771401 0 -0.10908)
(-3.01391 0 0.574089)
(1.39373 0 -0.305168)
(-2.08042 -3.85257e-19 0.465801)
(-0.513536 0 0.0256116)
(0.284975 0 0.0147967)
(-3.31919 0 0.631099)
(0.919985 9.1071e-19 -0.237251)
(-1.41304 7.27917e-19 0.317492)
(-0.698899 0 0.117143)
(-0.679993 -7.03598e-19 0.108276)
(0.099593 0 -0.0210488)
(-0.779891 -6.09508e-19 0.192774)
(-1.50475 0 0.274472)
(-0.111757 -6.0091e-19 -0.0178231)
(0.0470478 0 -0.0137195)
(32.574 -4.96385e-21 1.48514)
(33.1573 -6.16639e-21 1.62493)
(33.6838 7.32617e-21 1.4341)
(33.9094 8.25903e-21 0.973294)
(33.7171 0 0.38151)
(33.1188 -9.90463e-21 -0.234277)
(32.1878 0 -0.808261)
(31.0152 1.74046e-20 -1.30343)
(29.6894 1.66428e-20 -1.70437)
(28.2869 3.21035e-20 -2.0115)
(26.867 -1.4772e-20 -2.23454)
(25.4719 1.37857e-20 -2.38697)
(24.1287 0 -2.48271)
(22.853 0 -2.53439)
(21.6521 1.11235e-20 -2.55263)
(20.5277 -1.14509e-22 -2.54596)
(19.4783 1.76003e-22 -2.52102)
(18.5003 1.35864e-22 -2.48289)
(17.5892 0 -2.43541)
(16.7402 0 -2.38145)
(15.9483 0 -2.32317)
(15.2089 2.41548e-20 -2.26217)
(14.5175 1.09896e-20 -2.19966)
(13.8701 0 -2.13653)
(13.2628 0 -2.07342)
(12.6924 1.64504e-20 -2.01084)
(12.1557 0 -1.94912)
(11.6499 0 -1.88853)
(11.1726 0 -1.82923)
(10.7214 0 -1.77135)
(10.2943 -6.45057e-24 -1.71497)
(9.88944 0 -1.66011)
(9.50514 -1.66222e-24 -1.60681)
(9.13985 1.30324e-20 -1.55506)
(8.79219 2.52513e-24 -1.50484)
(8.46089 0 -1.45613)
(8.14479 0 -1.40889)
(7.84284 0 -1.36308)
(7.55407 0 -1.31865)
(7.27759 0 -1.27556)
(7.01259 0 -1.23377)
(6.75831 0 -1.19321)
(6.51406 -2.86402e-21 -1.15385)
(6.27919 -1.20183e-21 -1.11563)
(6.05312 0 -1.07851)
(5.83527 1.71e-21 -1.04243)
(5.62516 0 -1.00736)
(5.42229 0 -0.973229)
(5.22623 -1.0371e-20 -0.940018)
(5.03653 0 -0.907666)
(4.85285 1.39866e-20 -0.876145)
(4.67475 0 -0.845398)
(4.50198 3.37599e-20 -0.815405)
(4.33411 2.45448e-23 -0.786104)
(4.17094 0 -0.757484)
(4.01207 0 -0.729482)
(3.85736 0 -0.702092)
(3.70638 4.33654e-20 -0.675248)
(3.55909 -4.45883e-20 -0.648956)
(3.41505 -4.55975e-20 -0.623142)
(3.27426 -4.64435e-20 -0.597823)
(3.13626 9.42717e-20 -0.57292)
(3.00114 4.764e-20 -0.548459)
(2.86841 0 -0.524359)
(2.73824 0 -0.500653)
(2.61008 -2.42635e-23 -0.477257)
(2.4842 0 -0.454213)
(2.36003 0 -0.431437)
(2.23789 -9.60916e-20 -0.408974)
(2.1172 0 -0.386749)
(1.99833 0 -0.364803)
(1.88073 1.87632e-19 -0.343078)
(1.76481 -9.2729e-20 -0.321605)
(1.65002 0 -0.300352)
(1.53692 0 -0.279344)
(1.42475 0 -0.258552)
(1.3147 1.74544e-19 -0.238058)
(1.20487 0 -0.217705)
(1.09866 3.35719e-19 -0.197879)
(0.990642 -1.64269e-19 -0.177889)
(0.889862 0 -0.15905)
(0.78285 0 -0.139256)
(0.689473 1.52843e-19 -0.121864)
(0.58374 -2.59793e-23 -0.10217)
(0.497099 1.44648e-19 -0.0863828)
(0.39944 -2.8101e-19 -0.0676602)
(0.30741 2.72248e-19 -0.0516523)
(0.24089 2.64224e-19 -0.0382809)
(0.121402 2.54696e-19 -0.0166199)
(0.0939558 2.97937e-23 -0.0128955)
(-0.0209242 0 0.0122753)
(-0.0921506 -2.29068e-19 0.0174001)
(-0.0366753 0 0.0203987)
(-0.430106 0 0.0800485)
(0.0631422 4.18138e-19 -0.0125284)
(-0.555696 0 0.127608)
(-0.311473 0 0.0365396)
(-0.154293 0 0.0650723)
(-1.16714 -3.29393e-19 0.193115)
(0.635977 0 -0.102825)
(-1.89457 -2.6955e-19 0.383175)
(0.529248 0 -0.158456)
(-0.831828 0 0.250204)
(-1.5371 0 0.225736)
(0.813277 0 -0.0934848)
(-3.55821 0 0.67201)
(1.64696 -5.64196e-19 -0.37067)
(-2.57719 -3.60402e-19 0.591255)
(-0.412946 4.84386e-19 -0.0307431)
(0.209748 0 0.0695128)
(-3.85757 0 0.726209)
(1.10658 -1.7028e-18 -0.300842)
(-1.79851 0 0.414334)
(-0.723511 6.9921e-19 0.109854)
(-0.793038 0 0.120498)
(0.103051 6.64729e-19 -0.0211553)
(-0.960196 5.69575e-19 0.247916)
(-1.67862 0 0.298518)
(-0.0827675 -5.61286e-19 -0.0427478)
(0.0883328 0 -0.0234639)
(32.6288 4.6746e-21 1.0332)
(33.0398 1.13681e-20 1.12039)
(33.4858 -6.90086e-21 1.03754)
(33.8509 -7.81135e-22 0.774329)
(34.0242 7.47981e-21 0.384192)
(33.9499 0 -0.0709516)
(33.6199 0 -0.541996)
(33.0545 -1.63889e-20 -0.993211)
(32.289 -3.04405e-20 -1.40097)
(31.3658 -7.08299e-22 -1.75225)
(30.3285 1.39086e-20 -2.04254)
(29.2177 -1.29798e-20 -2.27318)
(28.0683 1.17379e-20 -2.44901)
(26.9085 0 -2.57662)
(25.7598 0 -2.66318)
(24.6377 -9.53158e-21 -2.71569)
(23.5528 3.48774e-20 -2.74054)
(22.5114 3.20983e-20 -2.74329)
(21.5171 0 -2.72866)
(20.5712 0 -2.70054)
(19.6734 0 -2.66207)
(18.8227 -6.72872e-23 -2.61581)
(18.0173 -2.06434e-20 -2.56377)
(17.255 9.37539e-21 -2.50757)
(16.5335 1.70363e-20 -2.44849)
(15.8505 -3.09297e-20 -2.38751)
(15.2035 1.39546e-20 -2.32542)
(14.5903 1.25735e-20 -2.26285)
(14.0086 1.129e-20 -2.20026)
(13.4565 0 -2.13803)
(12.9318 -9.00335e-21 -2.07644)
(12.4328 7.96495e-21 -2.0157)
(11.9578 -7.01866e-21 -1.95598)
(11.5052 -1.22631e-20 -1.8974)
(11.0736 -2.12634e-20 -1.84003)
(10.6614 0 -1.78394)
(10.2676 0 -1.72915)
(9.89089 -6.43383e-21 -1.67569)
(9.5302 0 -1.62355)
(9.18452 4.14689e-21 -1.57272)
(8.85292 3.13693e-21 -1.5232)
(8.5345 0 -1.47494)
(8.22848 5.40595e-21 -1.42794)
(7.93408 1.131e-21 -1.38215)
(7.65062 0 -1.33754)
(7.37739 -1.60904e-21 -1.29406)
(7.11384 -2.78655e-21 -1.25169)
(6.85932 0 -1.21038)
(6.61336 9.72798e-21 -1.17009)
(6.37537 -5.74784e-21 -1.13078)
(6.14496 -1.31031e-20 -1.09241)
(5.9216 0 -1.05493)
(5.70494 -2.4818e-23 -1.01832)
(5.49448 3.40029e-20 -0.982507)
(5.28998 0 -0.947493)
(5.09091 0 -0.913199)
(4.89712 -1.96834e-20 -0.879627)
(4.70807 -2.03764e-20 -0.846698)
(4.52371 4.18819e-20 -0.814422)
(4.34347 4.28628e-20 -0.782714)
(4.16737 4.36542e-20 -0.751595)
(3.99483 -4.42864e-20 -0.720973)
(3.82597 -8.95126e-20 -0.69088)
(3.66015 0 -0.661218)
(3.49759 0 -0.632032)
(3.3376 -9.08577e-20 -0.603216)
(3.18051 0 -0.574825)
(3.02559 0 -0.546755)
(2.87326 9.02508e-20 -0.519064)
(2.72276 0 -0.491657)
(2.57459 -8.89106e-20 -0.464587)
(2.428 -3.22679e-23 -0.437781)
(2.28354 8.70549e-20 -0.41128)
(2.14047 0 -0.38504)
(1.99953 0 -0.359093)
(1.8597 0 -0.333407)
(1.72249 1.63701e-19 -0.308066)
(1.58554 0 -0.282912)
(1.45297 -1.57461e-19 -0.258352)
(1.31822 3.08147e-19 -0.233643)
(1.19218 0 -0.210244)
(1.05861 0 -0.185773)
(0.94152 0 -0.164116)
(0.809261 -2.57157e-23 -0.139699)
(0.700673 -1.35604e-19 -0.120114)
(0.577291 -2.63325e-19 -0.0965562)
(0.463616 -2.55162e-19 -0.0772051)
(0.375805 2.47545e-19 -0.0595025)
(0.230564 0 -0.0336445)
(0.190595 2.31484e-19 -0.0280962)
(0.046544 0 0.00370941)
(-0.0361961 2.1456e-19 0.00725487)
(0.00581703 0 0.0189752)
(-0.433851 0 0.0796217)
(0.108661 0 -0.0196131)
(-0.612119 -3.53977e-19 0.146735)
(-0.302996 -3.55955e-19 0.0264593)
(-0.186519 0 0.0867899)
(-1.28009 3.0804e-19 0.20178)
(0.694932 -3.30345e-19 -0.103403)
(-2.15953 2.52211e-19 0.438628)
(0.655191 -3.13261e-19 -0.203666)
(-1.02481 0 0.32383)
(-1.62907 0 0.215158)
(0.814009 0 -0.0627535)
(-4.03135 0 0.752078)
(1.85584 5.27574e-19 -0.429754)
(-3.06283 5.17779e-25 0.718523)
(-0.253238 -9.05387e-19 -0.106827)
(0.0981957 0 0.142485)
(-4.288 0 0.796282)
(1.25705 7.95736e-19 -0.361213)
(-2.18267 0 0.514963)
(-0.702637 -6.53414e-19 0.0891388)
(-0.90066 0 0.130992)
(0.104695 -1.24225e-18 -0.0201537)
(-1.1281 0 0.30395)
(-1.77976 0 0.305099)
(-0.0428901 5.2433e-19 -0.0734402)
(0.149066 0 -0.0371857)
(32.6534 0 0.680128)
(32.9548 -5.23078e-21 0.723521)
(33.2917 0 0.674104)
(33.6221 -6.58426e-21 0.511125)
(33.8829 -1.34257e-20 0.249417)
(34.0233 0 -0.079304)
(34.0148 6.69937e-21 -0.443631)
(33.846 0 -0.817471)
(33.5175 9.00041e-22 -1.18063)
(33.0387 -2.58071e-20 -1.51864)
(32.4258 0 -1.82217)
(31.699 0 -2.08634)
(30.8806 -1.10401e-20 -2.30954)
(29.9928 0 -2.49252)
(29.0567 0 -2.63756)
(28.0912 0 -2.74792)
(27.1126 -1.62925e-20 -2.82739)
(26.134 -1.50099e-20 -2.87992)
(25.1662 -1.36192e-20 -2.90939)
(24.2171 0 -2.91943)
(23.2924 0 -2.91332)
(22.3963 -1.06109e-20 -2.89397)
(21.5313 9.68312e-21 -2.86389)
(20.6988 -8.81781e-21 -2.82521)
(19.8994 -1.6023e-20 -2.77976)
(19.133 2.89737e-20 -2.72903)
(18.399 -5.42582e-23 -2.67428)
(17.6967 -1.18253e-20 -2.61654)
(17.025 -1.06181e-20 -2.55666)
(16.3827 0 -2.49533)
(15.7684 0 -2.43312)
(15.181 -7.49049e-21 -2.3705)
(14.619 0 -2.30782)
(14.0812 1.15321e-20 -2.24538)
(13.5663 9.99641e-21 -2.18343)
(13.0731 -8.57054e-21 -2.12215)
(12.6004 0 -2.06169)
(12.147 6.04959e-21 -2.00215)
(11.7119 4.93266e-21 -1.94362)
(11.2941 3.63406e-24 -1.88616)
(10.8926 -5.90323e-21 -1.82982)
(10.5065 0 -1.77461)
(10.1349 -2.54822e-21 -1.72056)
(9.77707 0 -1.66766)
(9.43216 0 -1.61591)
(9.09943 0 -1.56528)
(8.77824 1.36987e-23 -1.51578)
(8.46789 0 -1.46737)
(8.16783 -4.56447e-21 -1.42002)
(7.8774 1.07902e-20 -1.37371)
(7.59614 1.23132e-20 -1.3284)
(7.32341 0 -1.28405)
(7.05885 -1.48827e-20 -1.24066)
(6.80184 -3.19021e-20 -1.19814)
(6.5521 0 -1.1565)
(6.309 0 -1.11566)
(6.07238 1.84896e-20 -1.07563)
(5.84159 1.91024e-20 -1.03632)
(5.61655 -1.96595e-20 -0.997759)
(5.39658 -4.01882e-20 -0.959835)
(5.18173 0 -0.922587)
(4.97126 0 -0.885905)
(4.76534 2.84173e-23 -0.849833)
(4.56316 -4.23067e-20 -0.814255)
(4.36503 0 -0.779227)
(4.17008 4.26322e-20 -0.744625)
(3.97872 0 -0.710518)
(3.79003 0 -0.67678)
(3.60455 0 -0.643484)
(3.42131 0 -0.610514)
(3.24096 3.42326e-23 -0.577939)
(3.06251 -3.19726e-23 -0.545664)
(2.88671 -8.16062e-20 -0.513746)
(2.71255 0 -0.482128)
(2.54101 -7.9362e-20 -0.450847)
(2.37074 0 -0.41987)
(2.20366 -1.53503e-19 -0.389281)
(2.03681 1.50579e-19 -0.358925)
(1.8752 -1.47546e-19 -0.329223)
(1.71093 -1.44413e-19 -0.299395)
(1.55696 0 -0.271016)
(1.39401 1.37692e-19 -0.241465)
(1.25058 0 -0.215122)
(1.0889 -1.30656e-19 -0.185557)
(0.955869 -1.27002e-19 -0.161802)
(0.803633 2.46683e-19 -0.132889)
(0.666214 0 -0.109982)
(0.553483 -4.63669e-19 -0.0872364)
(0.380869 0 -0.0571054)
(0.324931 2.16705e-19 -0.0491603)
(0.148939 0 -0.0101305)
(0.054083 2.00814e-19 -0.00862038)
(0.0751175 0 0.0142595)
(-0.403122 3.64846e-19 0.0727525)
(0.172283 -3.66411e-19 -0.0290196)
(-0.64116 3.31252e-19 0.162008)
(-0.269636 3.33068e-19 0.0107332)
(-0.209098 0 0.109886)
(-1.3531 -5.76232e-19 0.200607)
(0.742303 6.1813e-19 -0.0985518)
(-2.38207 0 0.485401)
(0.777131 2.92975e-19 -0.25081)
(-1.21247 0 0.402418)
(-1.66425 0 0.188877)
(0.781568 -4.85159e-19 -0.0178073)
(-4.42105 0 0.813559)
(2.01256 0 -0.480215)
(-3.52491 3.14981e-19 0.844136)
(-0.0538331 8.45575e-19 -0.199091)
(-0.0388805 3.58683e-19 0.232077)
(-4.59671 0 0.839138)
(1.36095 0 -0.415245)
(-2.54894 0 0.615518)
(-0.646795 0 0.0566988)
(-1.00513 5.73683e-19 0.140806)
(0.109933 5.80271e-19 -0.0189946)
(-1.27704 0 0.359019)
(-1.80302 0 0.293493)
(0.00437645 0 -0.108956)
(0.235696 0 -0.056231)
(32.6526 4.185e-21 0.391869)
(32.8846 0 0.407925)
(33.1403 4.90287e-21 0.367373)
(33.405 0 0.254184)
(33.6479 6.00448e-21 0.068903)
(33.8375 0 -0.173776)
(33.9509 -6.29655e-21 -0.454725)
(33.973 1.1547e-20 -0.75601)
(33.8947 2.35776e-20 -1.06248)
(33.7113 7.27892e-22 -1.36213)
(33.4224 0 -1.64598)
(33.0313 0 -1.9078)
(32.5447 0 -2.14373)
(31.9717 0 -2.3517)
(31.3234 0 -2.53096)
(30.6117 0 -2.68177)
(29.8491 1.46804e-20 -2.80516)
(29.0479 -1.36036e-20 -2.90272)
(28.2196 1.27967e-20 -2.97642)
(27.3747 0 -3.02848)
(26.5223 0 -3.06123)
(25.6703 9.76984e-21 -3.07698)
(24.8251 8.9391e-21 -3.07799)
(23.992 8.15875e-21 -3.06636)
(23.1748 0 -3.04402)
(22.3767 -1.35787e-20 -3.01271)
(21.5998 -2.44862e-20 -2.97396)
(20.8456 1.10122e-20 -2.92912)
(20.115 0 -2.87936)
(19.4085 0 -2.82569)
(18.7261 0 -2.76897)
(18.0677 7.00259e-21 -2.70991)
(17.4329 0 -2.64915)
(16.8212 0 -2.5872)
(16.2319 9.36498e-21 -2.5245)
(15.6644 8.05122e-21 -2.4614)
(15.1177 0 -2.39821)
(14.5912 5.67865e-21 -2.33518)
(14.084 -9.26509e-21 -2.27251)
(13.5952 -3.6657e-21 -2.21036)
(13.1241 2.77458e-21 -2.14887)
(12.6699 0 -2.08813)
(12.2316 0 -2.02824)
(11.8087 0 -1.96925)
(11.4002 -2.28443e-22 -1.91121)
(11.0056 0 -1.85414)
(10.6241 2.44663e-21 -1.79807)
(10.255 3.39224e-21 -1.743)
(9.89771 0 -1.68895)
(9.55159 -5.05941e-21 -1.63589)
(9.21612 0 -1.58382)
(8.89061 0 -1.53271)
(8.57466 -1.39268e-20 -1.48256)
(8.26758 2.16552e-23 -1.43332)
(7.96907 1.5839e-20 -1.38499)
(7.67843 0 -1.33749)
(7.39546 0 -1.29086)
(7.11941 -1.79274e-20 -1.245)
(6.85022 0 -1.19994)
(6.58709 3.77115e-20 -1.15557)
(6.33007 0 -1.11193)
(6.07831 0 -1.06892)
(5.832 7.87427e-20 -1.02658)
(5.59019 7.93502e-20 -0.984773)
(5.35325 3.98538e-20 -0.943585)
(5.12013 0 -0.902865)
(4.89134 0 -0.8627)
(4.66576 3.98363e-20 -0.822943)
(4.44405 7.93118e-20 -0.783682)
(4.22501 0 -0.74478)
(4.00946 7.8183e-20 -0.706325)
(3.79615 -7.74033e-20 -0.6682)
(3.58604 7.65004e-20 -0.630477)
(3.3778 -7.54673e-20 -0.593085)
(3.17274 7.43836e-20 -0.55607)