/*--------------------------------*- C++ -*----------------------------------*\
| =========                 |                                                 |
| \\      /  F ield         | OpenFOAM: The Open Source CFD Toolbox           |
|  \\    /   O peration     | Version:  2412                                  |
|   \\  /    A nd           | Website:  www.openfoam.com                      |
|    \\/     M anipulation  |                                                 |
\*---------------------------------------------------------------------------*/
FoamFile
{
    version     2.0;
    format      ascii;
    arch        "LSB;label=32;scalar=64";
    class       volVectorField;
    location    "0.36";
    object      U;
}
// * * * * * * * * * * * * * * * * * * * * * * * * * * * * * * * * * * * * * //

dimensions      [0 1 -1 0 0 0 0];

internalField   nonuniform List<vector> 
12600
(
(18.8673 1.23284e-21 2.10827)
(11.6916 1.61361e-20 0.456502)
(7.39385 1.89785e-20 -0.47868)
(5.11559 0 -0.712427)
(3.99412 1.71291e-20 -0.6856)
(3.34898 1.59362e-20 -0.610424)
(2.90496 0 -0.542292)
(2.57178 0 -0.486403)
(2.3107 -4.77465e-20 -0.440603)
(2.09943 0 -0.402602)
(1.92416 1.99826e-20 -0.370526)
(1.7759 1.82763e-20 -0.343031)
(1.6485 -1.67235e-20 -0.31916)
(1.53759 0 -0.29821)
(1.43996 -1.39825e-20 -0.279649)
(1.35322 0 -0.263074)
(1.27552 4.68608e-20 -0.248164)
(1.20542 0 -0.234669)
(1.14179 -1.95558e-20 -0.222385)
(1.08371 -1.78569e-20 -0.211147)
(1.03043 1.62735e-20 -0.20082)
(0.981347 5.148e-24 -0.19129)
(0.935945 0 -0.182465)
(0.893798 -2.44083e-20 -0.174263)
(0.854542 0 -0.166618)
(0.817871 0 -0.15947)
(0.783518 -1.79617e-20 -0.152771)
(0.751256 0 -0.146476)
(0.720885 4.35191e-24 -0.140548)
(0.692232 1.28498e-20 -0.134954)
(0.665145 1.13917e-20 -0.129664)
(0.639489 1.00425e-20 -0.124653)
(0.615144 -8.79442e-21 -0.119898)
(0.592005 -1.52809e-20 -0.115378)
(0.569977 -1.3148e-20 -0.111075)
(0.548975 1.1167e-20 -0.106972)
(0.528922 0 -0.103055)
(0.509749 -7.683e-21 -0.0993105)
(0.491394 0 -0.0957258)
(0.473799 4.71548e-21 -0.0922902)
(0.456913 0 -0.0889935)
(0.440689 1.77566e-23 -0.0858265)
(0.425083 0 -0.0827807)
(0.410056 1.61212e-23 -0.0798484)
(0.39557 -1.67164e-21 -0.0770224)
(0.381593 3.34101e-21 -0.0742962)
(0.368093 -4.88924e-21 -0.0716637)
(0.355041 0 -0.0691192)
(0.34241 0 -0.0666574)
(0.330176 -8.68796e-21 -0.0642736)
(0.318314 -1.94326e-20 -0.061963)
(0.306805 -2.12782e-20 -0.0597215)
(0.295625 1.94792e-23 -0.0575449)
(0.284759 -2.43743e-20 -0.05543)
(0.274187 0 -0.0533727)
(0.263894 2.68251e-20 -0.0513704)
(0.253862 2.78146e-20 -0.0494194)
(0.244081 2.86525e-20 -0.0475177)
(0.234533 0 -0.0456618)
(0.225211 0 -0.0438503)
(0.216096 0 -0.0420796)
(0.207187 -6.17732e-20 -0.0403492)
(0.198463 0 -0.0386553)
(0.189927 0 -0.0369982)
(0.181559 1.26081e-19 -0.0353741)
(0.173361 0 -0.0337835)
(0.165318 0 -0.0322231)
(0.157427 0 -0.0306926)
(0.149682 -1.25318e-19 -0.0291907)
(0.14207 1.24531e-19 -0.0277148)
(0.134604 1.23537e-19 -0.0262674)
(0.12725 2.34371e-23 -0.0248421)
(0.120048 -1.20994e-19 -0.0234464)
(0.112942 0 -0.0220696)
(0.106001 1.17828e-19 -0.0207248)
(0.0991546 0 -0.0193985)
(0.0924989 0 -0.0181091)
(0.0859575 0 -0.0168417)
(0.079633 2.93107e-23 -0.0156163)
(0.0734274 2.15635e-19 -0.0144146)
(0.0674141 2.11071e-19 -0.0132492)
(0.0613759 -2.06331e-19 -0.0120797)
(0.0554106 -2.01489e-19 -0.0109255)
(0.0494067 0 -0.00976477)
(0.0440104 0 -0.00872756)
(0.0390067 3.73256e-19 -0.00775928)
(0.0342284 -7.26251e-19 -0.00683005)
(0.0291112 7.05516e-19 -0.00583238)
(0.0235137 3.42396e-19 -0.00475219)
(0.0185702 0 -0.00379949)
(0.0133354 -6.43932e-19 -0.00279519)
(0.00963358 3.1205e-19 -0.00208305)
(0.00481487 -3.02055e-19 -0.00114276)
(0.000469879 5.84098e-19 -0.000309578)
(-0.00859837 0 0.00142466)
(-0.015761 0 0.00278261)
(-0.0261621 0 0.00477017)
(-0.0265902 0 0.00482132)
(-0.0354128 0 0.00652842)
(-0.0392653 0 0.00723345)
(-0.0513009 -4.72344e-19 0.00943988)
(-0.0385184 -9.26495e-19 0.00692504)
(-0.0276748 -9.0884e-19 0.00473223)
(0.00767753 0 -0.00203783)
(0.0198371 0 -0.00427421)
(0.0487362 0 -0.00972718)
(0.0465813 -7.9595e-19 -0.0092851)
(0.0742565 -1.5273e-18 -0.0146128)
(0.0724233 7.32323e-19 -0.0142929)
(0.111336 0 -0.0217878)
(0.113044 -1.34214e-18 -0.0221436)
(0.169956 0 -0.0330975)
(0.179952 -1.21876e-18 -0.0349407)
(0.253298 1.15075e-18 -0.0487534)
(0.242051 -1.0666e-18 -0.0463586)
(0.305505 -9.86186e-19 -0.0584509)
(0.254698 8.93342e-19 -0.0486447)
(0.308517 5.16699e-23 -0.0590793)
(0.244423 7.49129e-19 -0.0467588)
(0.383263 0 -0.0738269)
(29.3154 -1.24454e-21 4.04561)
(25.2489 0 1.87386)
(20.3598 -1.92081e-20 -0.208697)
(16.1661 0 -1.21518)
(13.1849 -1.73567e-20 -1.5137)
(11.1272 -3.04348e-20 -1.52512)
(9.64469 -1.40741e-20 -1.44709)
(8.52532 0 -1.34879)
(7.64695 3.5718e-22 -1.25276)
(6.93617 -2.1816e-20 -1.16514)
(6.34699 2.00093e-20 -1.0866)
(5.84913 1.83494e-20 -1.0164)
(5.42181 -1.68245e-20 -0.953523)
(5.05027 1.54225e-20 -0.896977)
(4.72366 2.83211e-20 -0.845895)
(4.43385 0 -0.799536)
(4.17461 -6.40437e-23 -0.757275)
(3.94105 2.1673e-20 -0.718587)
(3.72933 1.98403e-20 -0.683028)
(3.53633 0 -0.650224)
(3.35953 0 -0.619857)
(3.19685 1.50156e-20 -0.591658)
(3.04657 0 -0.565393)
(2.90723 1.23733e-20 -0.540863)
(2.77761 -2.23903e-20 -0.517894)
(2.65666 0 -0.496336)
(2.5435 1.82062e-20 -0.476057)
(2.43734 0 -0.456941)
(2.33752 -1.46118e-20 -0.438887)
(2.24345 -2.60332e-20 -0.421805)
(2.15461 -2.30751e-20 -0.405613)
(2.07056 -1.01648e-20 -0.390241)
(1.99089 8.89909e-21 -0.375625)
(1.91524 3.09349e-20 -0.361707)
(1.8433 2.66115e-20 -0.348435)
(1.77478 0 -0.335762)
(1.70941 0 -0.323646)
(1.64698 -1.76366e-23 -0.312049)
(1.58727 0 -0.300935)
(1.53009 -4.76047e-21 -0.290272)
(1.47526 0 -0.28003)
(1.42263 -4.45067e-21 -0.270183)
(1.37206 0 -0.260705)
(1.3234 -1.90976e-22 -0.251574)
(1.27654 0 -0.242769)
(1.23136 -3.36419e-21 -0.23427)
(1.18777 0 -0.226058)
(1.14566 0 -0.218117)
(1.10495 7.5537e-21 -0.210432)
(1.06555 0 -0.202986)
(1.02738 0 -0.195768)
(0.990372 0 -0.188763)
(0.954461 2.29799e-20 -0.181959)
(0.919585 4.88419e-20 -0.175347)
(0.88568 0 -0.168914)
(0.852698 0 -0.162652)
(0.82058 -2.77909e-20 -0.15655)
(0.789289 -2.86511e-20 -0.150601)
(0.758768 0 -0.144795)
(0.72899 0 -0.139129)
(0.699898 0 -0.133589)
(0.671479 0 -0.128176)
(0.643675 -6.20837e-20 -0.122876)
(0.616483 6.24586e-20 -0.117692)
(0.589845 -1.25364e-19 -0.112611)
(0.563763 0 -0.107634)
(0.538186 0 -0.102752)
(0.513107 0 -0.097964)
(0.488502 4.69396e-23 -0.0932642)
(0.464335 -1.2334e-19 -0.0886473)
(0.440635 -1.22244e-19 -0.0841183)
(0.41731 2.41876e-19 -0.0796596)
(0.394469 3.56526e-23 -0.0752936)
(0.371949 -1.17861e-19 -0.0709869)
(0.349957 -1.16152e-19 -0.0667826)
(0.328276 0 -0.0626355)
(0.307202 0 -0.0586067)
(0.286483 0 -0.0546442)
(0.266446 2.16007e-19 -0.050813)
(0.24676 0 -0.047048)
(0.227669 0 -0.0433924)
(0.208526 2.0194e-19 -0.0397226)
(0.18968 1.9699e-19 -0.0361103)
(0.170862 0 -0.0325126)
(0.15389 0 -0.0292898)
(0.138003 0 -0.0262554)
(0.122684 7.06881e-19 -0.023317)
(0.106405 -4.64882e-23 -0.020168)
(0.0889826 3.32502e-19 -0.016828)
(0.0736459 -3.22198e-19 -0.0138962)
(0.0574628 6.24025e-19 -0.0108151)
(0.0458502 3.02044e-19 -0.00860189)
(0.0304523 5.84184e-19 -0.00562826)
(0.0167869 0 -0.00292452)
(-0.0107086 0 0.00241477)
(-0.0312145 0 0.00637485)
(-0.0609948 0 0.0119898)
(-0.0611658 4.94168e-19 0.0119547)
(-0.0878931 0 0.017182)
(-0.0965798 0 0.0189073)
(-0.12888 -4.52809e-19 0.0248303)
(-0.0854529 4.43744e-19 0.0159174)
(-0.0525357 1.73937e-18 0.00903202)
(0.053222 -8.4833e-19 -0.0113089)
(0.0856838 0 -0.0173786)
(0.172162 0 -0.033655)
(0.164522 0 -0.0321347)
(0.250628 7.27386e-19 -0.0486985)
(0.244958 -6.96954e-19 -0.0478153)
(0.365017 0 -0.0709932)
(0.369792 2.55019e-18 -0.0721811)
(0.543159 1.21895e-18 -0.105736)
(0.566788 2.3121e-18 -0.110445)
(0.781742 0 -0.151325)
(0.73518 0 -0.142007)
(0.921087 -9.33527e-19 -0.177391)
(0.760888 0 -0.146253)
(0.934845 -7.7569e-19 -0.179714)
(0.742886 -7.07631e-19 -0.143814)
(1.18668 0 -0.230125)
(32.0582 0 3.91793)
(31.2401 0 2.83883)
(28.7007 -1.2986e-20 1.03652)
(25.3412 0 -0.378384)
(22.0698 0 -1.2282)
(19.2787 1.51346e-20 -1.6563)
(17.0053 1.33282e-20 -1.82608)
(15.1682 0 -1.8581)
(13.6711 4.2316e-22 -1.82427)
(12.4332 2.06676e-20 -1.76143)
(11.3937 -3.77031e-20 -1.68723)
(10.5079 -1.73859e-20 -1.6101)
(9.74336 1.14809e-22 -1.53405)
(9.07603 -1.4614e-20 -1.46094)
(8.48784 -1.33919e-20 -1.39157)
(7.96498 1.22164e-20 -1.32619)
(7.49669 -2.24551e-20 -1.26479)
(7.07449 -2.05382e-20 -1.2072)
(6.69158 0 -1.15321)
(6.34247 0 -1.10257)
(6.02266 1.55921e-20 -1.05502)
(5.72844 1.41979e-20 -1.01034)
(5.45671 0 -0.968279)
(5.20485 0 -0.928642)
(4.97067 2.12161e-20 -0.891232)
(4.75226 0 -0.855874)
(4.54801 -3.44965e-20 -0.822408)
(4.35651 1.5483e-20 -0.790687)
(4.17655 0 -0.760581)
(4.00706 1.23352e-20 -0.731969)
(3.8471 1.09339e-20 -0.704743)
(3.69585 0 -0.678803)
(3.55258 -8.44372e-21 -0.654058)
(3.41663 -1.46596e-20 -0.630427)
(3.28743 1.24259e-23 -0.607834)
(3.16445 0 -0.58621)
(3.04722 0 -0.565491)
(2.93533 7.36715e-21 -0.545621)
(2.82839 0 -0.526544)
(2.72604 0 -0.508211)
(2.62798 0 -0.490577)
(2.53391 0 -0.4736)
(2.44358 0 -0.457241)
(2.35673 0 -0.441463)
(2.27315 0 -0.426232)
(2.19262 3.1407e-21 -0.411518)
(2.11497 -4.60246e-21 -0.39729)
(2.04002 0 -0.383522)
(1.96759 -7.14651e-21 -0.370187)
(1.89755 0 -0.357263)
(1.82975 0 -0.344725)
(1.76406 2.01192e-20 -0.332553)
(1.70035 0 -0.320726)
(1.63852 -2.3077e-20 -0.309229)
(1.57845 2.42663e-20 -0.298039)
(1.52005 0 -0.287145)
(1.46323 2.62685e-20 -0.276526)
(1.40789 0 -0.266174)
(1.35396 0 -0.256068)
(1.30137 0 -0.246204)
(1.25002 5.7394e-20 -0.23656)
(1.19989 5.80908e-20 -0.227135)
(1.15087 2.81914e-23 -0.217908)
(1.10295 -1.17931e-19 -0.208883)
(1.05603 2.47241e-23 -0.200034)
(1.01012 0 -0.19137)
(0.965107 0 -0.182867)
(0.920995 -1.17778e-19 -0.17453)
(0.877731 3.77226e-23 -0.166345)
(0.835258 0 -0.158306)
(0.793614 0 -0.150418)
(0.752654 -1.14029e-19 -0.142655)
(0.712548 2.86291e-23 -0.135052)
(0.673032 2.6689e-23 -0.127555)
(0.634443 0 -0.120238)
(0.596419 0 -0.113021)
(0.559457 -2.11491e-19 -0.106012)
(0.523114 2.07504e-19 -0.0991153)
(0.487952 0 -0.0924452)
(0.45338 0 -0.0858782)
(0.419835 0 -0.0794927)
(0.386246 0 -0.0730842)
(0.353272 0 -0.0667971)
(0.320527 0 -0.0605957)
(0.290884 0 -0.055032)
(0.262939 0 -0.0497343)
(0.235832 -6.64561e-19 -0.0445493)
(0.20725 -3.22398e-19 -0.0390132)
(0.177134 -3.12509e-19 -0.0332795)
(0.15067 3.02762e-19 -0.0282647)
(0.122805 -5.86193e-19 -0.023023)
(0.102564 -2.83708e-19 -0.0191898)
(0.0754657 -2.74288e-19 -0.0139467)
(0.0518178 0 -0.00912211)
(0.00547367 0 -6.70768e-05)
(-0.0273563 0 0.00623213)
(-0.0753903 0 0.0149496)
(-0.074183 -4.63612e-19 0.0145425)
(-0.11905 0 0.0233728)
(-0.129204 0 0.0253883)
(-0.178225 4.24566e-19 0.0337847)
(-0.0987981 0 0.0164886)
(-0.0438441 -8.15055e-19 0.00438142)
(0.132755 7.94982e-19 -0.0293856)
(0.181546 0 -0.0381098)
(0.326514 0 -0.0648674)
(0.311939 0 -0.0619522)
(0.460441 6.8106e-19 -0.090521)
(0.450074 0 -0.0891895)
(0.655736 -6.24738e-19 -0.128941)
(0.662194 -9.18303e-23 -0.131075)
(0.955571 -1.1408e-18 -0.187888)
(0.984927 -2.16347e-18 -0.193898)
(1.33845 0 -0.260192)
(1.24325 9.45165e-19 -0.240627)
(1.55092 8.73201e-19 -0.298027)
(1.27311 7.90437e-19 -0.243829)
(1.58403 0 -0.3036)
(1.26149 6.6166e-19 -0.245776)
(2.03784 0 -0.398249)
(32.5742 0 2.97585)
(33.1405 0 2.78839)
(32.5865 1.22761e-20 1.74003)
(30.938 0 0.532646)
(28.6742 -1.23049e-20 -0.478699)
(26.244 2.50253e-20 -1.20673)
(23.9098 0 -1.67348)
(21.7892 -2.1806e-20 -1.93997)
(19.9164 2.08962e-20 -2.07047)
(18.2823 1.88748e-20 -2.11536)
(16.8593 1.7726e-20 -2.10872)
(15.6161 -1.60928e-20 -2.07202)
(14.5238 1.4968e-20 -2.01833)
(13.5581 -2.72561e-20 -1.95553)
(12.6988 0 -1.8884)
(11.9294 -2.30446e-20 -1.81983)
(11.2364 0 -1.75159)
(10.609 0 -1.68472)
(10.0381 0 -1.61985)
(9.51617 1.61274e-20 -1.55731)
(9.03712 -3.40846e-23 -1.49727)
(8.59571 -2.58733e-23 -1.43979)
(8.18755 1.2188e-20 -1.38485)
(7.8089 0 -1.33238)
(7.45658 0 -1.28229)
(7.12784 0 -1.23448)
(6.82031 3.26118e-20 -1.18884)
(6.53194 -5.74248e-24 -1.14526)
(6.26092 0 -1.10362)
(6.00568 0 -1.06382)
(5.76483 0 -1.02574)
(5.53712 0 -0.989298)
(5.32148 1.59719e-20 -0.95439)
(5.11693 0 -0.920929)
(4.92259 -1.19353e-20 -0.888831)
(4.73767 0 -0.858016)
(4.56148 0 -0.828412)
(4.39338 -6.98821e-21 -0.79995)
(4.23278 0 -0.772564)
(4.07917 0 -0.746194)
(3.93206 3.11415e-21 -0.720782)
(3.79101 -4.05386e-21 -0.696277)
(3.65563 0 -0.672628)
(3.52555 -2.3715e-22 -0.64979)
(3.40043 0 -0.627716)
(3.27995 -5.91474e-21 -0.606368)
(3.16384 1.89058e-23 -0.585705)
(3.05183 0 -0.565692)
(2.94366 0 -0.546293)
(2.83911 7.74067e-21 -0.527478)
(2.73796 1.73213e-20 -0.509213)
(2.64002 -3.79661e-20 -0.491472)
(2.5451 0 -0.474226)
(2.45302 -2.17365e-20 -0.457452)
(2.36363 -2.29065e-20 -0.441121)
(2.27678 -2.38828e-20 -0.425216)
(2.1923 -2.47495e-20 -0.40971)
(2.1101 0 -0.394589)
(2.03003 0 -0.379825)
(1.95199 -5.3269e-20 -0.365411)
(1.87584 -1.08244e-19 -0.351316)
(1.80153 -5.47895e-20 -0.337541)
(1.72891 3.03008e-23 -0.324053)
(1.65796 5.5587e-20 -0.310859)
(1.58852 5.57574e-20 -0.297923)
(1.52059 0 -0.285255)
(1.45403 0 -0.272821)
(1.38883 1.10992e-19 -0.26063)
(1.3249 2.20692e-19 -0.248659)
(1.26218 0 -0.236904)
(1.20068 1.08503e-19 -0.225367)
(1.14024 1.0733e-19 -0.214017)
(1.08105 1.06041e-19 -0.202898)
(1.02278 2.0913e-19 -0.191938)
(0.96587 0 -0.181239)
(0.909821 0 -0.170691)
(0.855331 1.99018e-19 -0.160446)
(0.801748 -3.90421e-19 -0.150362)
(0.749886 -1.91249e-19 -0.140604)
(0.698856 0 -0.130986)
(0.649331 0 -0.121621)
(0.599812 0 -0.11223)
(0.551333 0 -0.103048)
(0.503411 0 -0.0940585)
(0.459839 0 -0.0859849)
(0.418507 -3.2122e-19 -0.0782119)
(0.378232 4.54659e-23 -0.070536)
(0.336141 3.02715e-19 -0.0623824)
(0.292389 0 -0.0541159)
(0.253982 2.84178e-19 -0.0468968)
(0.213599 2.75107e-19 -0.0393966)
(0.183923 0 -0.0338062)
(0.143982 -2.5732e-19 -0.0260626)
(0.109809 -4.96842e-19 -0.0189291)
(0.044385 0 -0.00609688)
(0.000560044 0 0.00228372)
(-0.0645421 0 0.0137338)
(-0.0607542 -4.34527e-19 0.0127104)
(-0.123625 0 0.0251828)
(-0.131186 0 0.0267213)
(-0.193282 3.97689e-19 0.0362322)
(-0.0725347 -3.89497e-19 0.00936613)
(0.00358916 0 -0.00822933)
(0.250985 0 -0.0554054)
(0.311673 0 -0.0658241)
(0.51613 0 -0.102998)
(0.492843 0 -0.0983996)
(0.707616 -6.1203e-23 -0.139723)
(0.690953 0 -0.137889)
(0.986442 5.84609e-19 -0.195091)
(0.99192 -1.11658e-18 -0.198012)
(1.40782 0 -0.278625)
(1.43312 4.57618e-23 -0.284323)
(1.92188 0 -0.374947)
(1.76463 4.9589e-23 -0.342561)
(2.19515 0 -0.421799)
(1.79262 -7.39031e-19 -0.343448)
(2.25965 0 -0.433023)
(1.80272 6.1854e-19 -0.354285)
(2.93345 0 -0.577879)
(32.6727 0 2.12427)
(33.4298 0 2.24721)
(33.7775 0 1.76931)
(33.4131 0 0.971188)
(32.3873 1.16149e-20 0.12471)
(30.907 -9.10048e-22 -0.628991)
(29.1788 0 -1.23412)
(27.3621 2.05818e-20 -1.68128)
(25.5676 0 -1.98754)
(23.8622 -3.51258e-20 -2.18122)
(22.2786 0 -2.29103)
(20.8273 1.51927e-20 -2.34112)
(19.5059 0 -2.34993)
(18.3056 2.5734e-20 -2.33082)
(17.2152 -1.17078e-20 -2.29316)
(16.2231 2.16122e-20 -2.24346)
(15.3183 -1.97621e-20 -2.18621)
(14.4907 -1.81188e-20 -2.12449)
(13.7316 0 -2.06043)
(13.0332 -1.52286e-20 -1.99549)
(12.3887 -1.38939e-20 -1.93068)
(11.7922 -2.52766e-20 -1.86668)
(11.2387 -1.15088e-20 -1.80395)
(10.7237 0 -1.74279)
(10.2434 0 -1.68338)
(9.79426 0 -1.62584)
(9.37346 -1.53917e-20 -1.57022)
(8.97833 -1.38202e-20 -1.51652)
(8.60657 0 -1.46473)
(8.25615 0 -1.41481)
(7.92525 9.7644e-21 -1.36671)
(7.61225 0 -1.32038)
(7.31571 1.48649e-24 -1.27574)
(7.03434 -1.31092e-20 -1.23274)
(6.76697 1.12833e-20 -1.1913)
(6.51255 0 -1.15136)
(6.27013 0 -1.11284)
(6.03884 6.59562e-21 -1.07569)
(5.81791 0 -1.03984)
(5.60663 0 -1.00522)
(5.40433 -2.93871e-21 -0.971786)
(5.21042 3.82524e-21 -0.939471)
(5.02435 0 -0.908224)
(4.84563 2.23747e-22 -0.877994)
(4.67379 0 -0.848729)
(4.50839 2.78051e-21 -0.820385)
(4.34905 4.08348e-21 -0.792914)
(4.19539 0 -0.766276)
(4.04708 6.31888e-21 -0.740428)
(3.9038 -7.29989e-21 -0.715332)
(3.76525 -3.26375e-20 -0.69095)
(3.63115 1.78852e-20 -0.66725)
(3.50126 -1.92405e-20 -0.644194)
(3.37533 2.52583e-23 -0.621756)
(3.25312 0 -0.599899)
(3.13445 2.25105e-20 -0.578601)
(3.0191 2.3325e-20 -0.557829)
(2.90692 -2.40015e-20 -0.537565)
(2.79768 2.45893e-20 -0.517773)
(2.69128 5.0187e-20 -0.498445)
(2.58752 5.09689e-20 -0.479541)
(2.48631 -5.15461e-20 -0.461063)
(2.38745 5.20234e-20 -0.442965)
(2.2909 0 -0.425259)
(2.19646 0 -0.407895)
(2.10411 5.24792e-20 -0.390891)
(2.01366 0 -0.374196)
(1.92508 0 -0.357828)
(1.83827 -1.03828e-19 -0.341751)
(1.75312 0 -0.325967)
(1.66967 -1.02084e-19 -0.310471)
(1.58768 -2.01902e-19 -0.295229)
(1.50741 0 -0.280295)
(1.42842 -9.83242e-20 -0.265579)
(1.35129 0 -0.251211)
(1.27535 0 -0.237049)
(1.2015 -1.86992e-19 -0.223292)
(1.12888 1.83455e-19 -0.209747)
(1.05856 3.98222e-23 -0.196632)
(0.989335 0 -0.183691)
(0.922137 0 -0.171077)
(0.855054 0 -0.158438)
(0.789549 -1.63544e-19 -0.146124)
(0.72504 1.59284e-19 -0.134153)
(0.666098 0 -0.123373)
(0.609887 6.03015e-19 -0.112885)
(0.554937 2.92891e-19 -0.102455)
(0.498061 -5.681e-19 -0.0914516)
(0.439629 -2.75226e-19 -0.080516)
(0.388365 -5.33143e-19 -0.070972)
(0.334508 0 -0.0611084)
(0.29451 0 -0.0536091)
(0.240583 2.41279e-19 -0.0431412)
(0.195503 4.65797e-19 -0.0335035)
(0.110962 -4.49201e-19 -0.0168958)
(0.0577303 0 -0.00681975)
(-0.0233092 0 0.0068093)
(-0.0156074 4.07125e-19 0.00490163)
(-0.0959538 3.94318e-19 0.020901)
(-0.0962622 0 0.0209421)
(-0.167846 -3.72446e-19 0.0300663)
(-0.0008386 3.64721e-19 -0.007899)
(0.094681 0 -0.0309851)
(0.412456 0 -0.0912321)
(0.480266 0 -0.102159)
(0.745333 0 -0.149592)
(0.711134 0 -0.142958)
(0.995812 -5.96404e-19 -0.197741)
(0.970354 0 -0.195224)
(1.35951 0 -0.270634)
(1.35987 0 -0.273925)
(1.8998 9.97871e-19 -0.378489)
(1.90972 9.46116e-19 -0.381714)
(2.53068 0 -0.495246)
(2.29853 -8.26395e-19 -0.447224)
(2.85523 0 -0.547949)
(2.3219 -6.90936e-19 -0.444471)
(2.96556 0 -0.567811)
(2.36887 -5.78048e-19 -0.469807)
(3.86733 0 -0.768417)
(32.7415 -4.94191e-21 1.51164)
(33.3235 -6.14795e-21 1.64783)
(33.8502 7.31225e-21 1.45387)
(34.0763 8.24868e-21 0.989625)
(33.8835 0 0.394129)
(33.2831 -9.90373e-21 -0.225386)
(32.3481 0 -0.802969)
(31.1697 1.7369e-20 -1.30146)
(29.8366 1.65985e-20 -1.70531)
(28.4257 3.20039e-20 -2.01486)
(26.9969 -1.47105e-20 -2.23981)
(25.5926 1.37165e-20 -2.39368)
(24.2404 0 -2.49045)
(22.9562 0 -2.54283)
(21.7473 1.10379e-20 -2.56149)
(20.6156 -1.15502e-22 -2.55505)
(19.5595 1.77458e-22 -2.53019)
(18.5755 1.36925e-22 -2.49205)
(17.6591 0 -2.44448)
(16.8053 0 -2.3904)
(16.0093 0 -2.33198)
(15.2662 2.37489e-20 -2.27084)
(14.5716 1.07867e-20 -2.20819)
(13.9213 0 -2.14492)
(13.3117 0 -2.0817)
(12.7393 1.60536e-20 -2.01902)
(12.2009 0 -1.95724)
(11.6938 0 -1.8966)
(11.2154 0 -1.83728)
(10.7635 0 -1.77941)
(10.3358 -6.37645e-24 -1.72305)
(9.93069 0 -1.66826)
(9.54632 -1.5756e-24 -1.61505)
(9.18118 1.23574e-20 -1.56342)
(8.83388 2.699e-24 -1.51334)
(8.50313 0 -1.4648)
(8.18777 0 -1.41776)
(7.88674 0 -1.37217)
(7.59908 0 -1.32801)
(7.32388 0 -1.28521)
(7.06033 0 -1.24373)
(6.80769 0 -1.20352)
(6.56525 -1.86921e-21 -1.16454)
(6.33238 -2.47187e-22 -1.12673)
(6.10848 0 -1.09005)
(5.89302 2.58495e-21 -1.05446)
(5.68547 0 -1.0199)
(5.48537 0 -0.986333)
(5.29228 -1.1888e-20 -0.953713)
(5.10579 0 -0.922001)
(4.9255 1.53543e-20 -0.891154)
(4.75109 0 -0.861138)
(4.58219 3.62082e-20 -0.831909)
(4.41851 2.44319e-23 -0.803438)
(4.25975 0 -0.775684)
(4.10564 0 -0.748622)
(3.9559 0 -0.72221)
(3.81033 4.51607e-20 -0.696431)
(3.66866 -4.6264e-20 -0.67124)
(3.53073 -4.71586e-20 -0.646629)
(3.39627 -4.78936e-20 -0.622549)
(3.26518 9.69613e-20 -0.599002)
(3.13719 4.88833e-20 -0.575933)
(3.01225 0 -0.553358)
(2.89008 0 -0.531212)
(2.77066 -2.40923e-23 -0.50952)
(2.65374 0 -0.488218)
(2.53929 0 -0.467331)
(2.42715 -9.75317e-20 -0.446808)
(2.31721 0 -0.42666)
(2.20947 0 -0.406874)
(2.10368 1.89676e-19 -0.387416)
(2.00011 -9.36339e-20 -0.368344)
(1.89826 0 -0.349557)
(1.79878 0 -0.33121)
(1.70088 0 -0.31313)
(1.60566 1.75614e-19 -0.295559)
(1.51202 0 -0.278256)
(1.42129 3.37374e-19 -0.261488)
(1.33194 -1.65021e-19 -0.244927)
(1.2452 0 -0.228771)
(1.15875 0 -0.212604)
(1.07454 1.53467e-19 -0.196906)
(0.991855 -2.79944e-23 -0.181732)
(0.915906 1.45416e-19 -0.168015)
(0.843153 -2.82789e-19 -0.154546)
(0.771883 2.74606e-19 -0.141084)
(0.698866 2.66343e-19 -0.127001)
(0.624587 2.58051e-19 -0.113247)
(0.559442 3.64281e-23 -0.101237)
(0.491025 0 -0.08888)
(0.439751 -2.33906e-19 -0.0793034)
(0.370704 0 -0.0659043)
(0.314501 0 -0.0536428)
(0.210996 4.20817e-19 -0.0333403)
(0.150196 0 -0.0219982)
(0.0543029 0 -0.00664328)
(0.0674431 0 -0.00969732)
(-0.0294459 -3.69205e-19 0.00957536)
(-0.0172708 0 0.00698633)
(-0.09494 -3.48485e-19 0.0144257)
(0.1228 0 -0.0360245)
(0.234954 0 -0.0645644)
(0.622299 0 -0.137491)
(0.692113 0 -0.147739)
(1.01894 0 -0.205293)
(0.971076 -5.82105e-19 -0.196217)
(1.32888 -5.577e-19 -0.26508)
(1.29108 5.3408e-19 -0.261557)
(1.77713 0 -0.355828)
(1.76661 0 -0.358804)
(2.43103 -1.86576e-18 -0.487246)
(2.41308 0 -0.485685)
(3.16376 8.34229e-19 -0.620779)
(2.84467 0 -0.55468)
(3.53288 7.13626e-19 -0.677307)
(2.86338 6.45669e-19 -0.548399)
(3.70432 0 -0.709287)
(2.96145 -5.40126e-19 -0.593103)
(4.82984 0 -0.968571)
(32.7926 4.65394e-21 1.06085)
(33.2026 1.13228e-20 1.14427)
(33.6481 -6.88776e-21 1.05801)
(34.0132 -7.92454e-22 0.791474)
(34.1864 7.46043e-21 0.398007)
(34.1115 0 -0.0603804)
(33.7802 0 -0.534547)
(33.2124 -1.63554e-20 -0.988739)
(32.4435 -3.0347e-20 -1.39927)
(31.5158 -7.16177e-22 -1.75305)
(30.4731 1.38507e-20 -2.04554)
(29.356 -1.29147e-20 -2.27808)
(28.1997 1.16628e-20 -2.45547)
(27.0328 0 -2.58433)
(25.877 0 -2.67185)
(24.7479 -9.44575e-21 -2.72508)
(23.6562 3.4519e-20 -2.75043)
(22.6084 3.17308e-20 -2.75352)
(21.6081 0 -2.7391)
(20.6567 0 -2.71108)
(19.7539 0 -2.67265)
(18.8987 -6.78892e-23 -2.62638)
(18.0893 -2.02608e-20 -2.5743)
(17.3234 9.18479e-21 -2.51805)
(16.5988 1.66581e-20 -2.4589)
(15.913 -3.0182e-20 -2.39787)
(15.2636 1.35855e-20 -2.33574)
(14.6485 1.22102e-20 -2.27313)
(14.0652 1.09331e-20 -2.21054)
(13.5117 0 -2.14832)
(12.9861 -8.661e-21 -2.08677)
(12.4864 7.63045e-21 -2.0261)
(12.011 -6.69247e-21 -1.96648)
(11.5583 -1.16278e-20 -1.90802)
(11.1267 -2.0028e-20 -1.85081)
(10.715 0 -1.79491)
(10.3218 0 -1.74035)
(9.94595 -5.87108e-21 -1.68714)
(9.58635 0 -1.63529)
(9.24199 3.62183e-21 -1.58479)
(8.91193 2.63084e-21 -1.53563)
(8.59529 0 -1.48778)
(8.29127 3.53352e-21 -1.44121)
(7.99911 2.32619e-22 -1.3959)
(7.7181 0 -1.35181)
(7.4476 -2.43234e-21 -1.3089)
(7.18698 -3.57281e-21 -1.26714)
(6.93569 0 -1.22649)
(6.69318 1.11552e-20 -1.18691)
(6.45896 -6.42608e-21 -1.14835)
(6.23255 -1.43899e-20 -1.11079)
(6.01353 0 -1.07418)
(5.80147 -2.46441e-23 -1.03849)
(5.59601 3.61755e-20 -1.00368)
(5.39675 0 -0.969708)
(5.20338 0 -0.936551)
(5.01556 -2.05853e-20 -0.904162)
(4.83302 -2.12204e-20 -0.872525)
(4.65543 4.34575e-20 -0.841586)
(4.48258 4.43302e-20 -0.811341)
(4.31414 4.50172e-20 -0.781729)
(4.14997 -4.55504e-20 -0.75276)
(3.98974 -9.18496e-20 -0.724365)
(3.83338 0 -0.696565)
(3.68054 0 -0.669282)
(3.53119 -9.26652e-20 -0.64255)
(3.38501 0 -0.616288)
(3.24196 0 -0.590532)
(3.10183 9.16033e-20 -0.565216)
(2.96451 0 -0.540361)
(2.82996 -8.99977e-20 -0.515943)
(2.6979 -3.20944e-23 -0.491932)
(2.56862 8.79044e-20 -0.468387)
(2.44153 0 -0.4452)
(2.31739 0 -0.422546)
(2.19528 0 -0.400227)
(2.07646 1.64704e-19 -0.378525)
(1.95961 0 -0.357148)
(1.84632 -1.58236e-19 -0.336414)
(1.73472 3.09557e-19 -0.31592)
(1.62638 0 -0.295912)
(1.5186 0 -0.275921)
(1.41381 0 -0.256571)
(1.31117 -2.78067e-23 -0.237955)
(1.21636 -1.36324e-19 -0.221051)
(1.12523 -2.64981e-19 -0.204313)
(1.03585 -2.57372e-19 -0.187531)
(0.945244 2.49519e-19 -0.170135)
(0.853797 0 -0.153408)
(0.773622 2.34081e-19 -0.138785)
(0.689405 0 -0.123799)
(0.625852 2.19091e-19 -0.111976)
(0.540565 0 -0.0954577)
(0.473209 0 -0.0804836)
(0.351061 0 -0.05664)
(0.284729 -3.80155e-19 -0.0445366)
(0.17494 -3.67584e-19 -0.0279663)
(0.195276 0 -0.0325337)
(0.0831602 3.4542e-19 -0.0103481)
(0.113481 -3.34932e-19 -0.0168399)
(0.0326843 3.26069e-19 -0.0126055)
(0.305054 -3.19136e-19 -0.0766778)
(0.43014 0 -0.110318)
(0.885907 0 -0.195364)
(0.952311 0 -0.203678)
(1.34195 0 -0.271191)
(1.27701 5.4432e-19 -0.259183)
(1.71051 5.901e-23 -0.34261)
(1.65564 -9.98576e-19 -0.337568)
(2.24095 0 -0.451141)
(2.21215 0 -0.452803)
(3.00055 8.71891e-19 -0.604736)
(2.94151 0 -0.595895)
(3.82032 -7.79589e-19 -0.751279)
(3.4034 0 -0.664913)
(4.23021 -1.33365e-18 -0.809942)
(3.4196 0 -0.655404)
(4.47673 0 -0.857404)
(3.58071 5.04562e-19 -0.724383)
(5.80746 0 -1.17624)
(32.8135 0 0.708463)
(33.1143 -5.20447e-21 0.74833)
(33.4507 0 0.695543)
(33.7808 -6.56445e-21 0.529293)
(34.0412 -1.33799e-20 0.264386)
(34.1811 0 -0.0674153)
(34.1719 6.67226e-21 -0.434666)
(34.0021 0 -0.811268)
(33.6721 9.10641e-22 -1.17702)
(33.1913 -2.56896e-20 -1.51743)
(32.5756 0 -1.82317)
(31.8454 0 -2.08934)
(31.0228 -1.09694e-20 -2.31434)
(30.1304 0 -2.49888)
(29.1892 0 -2.64527)
(28.2182 0 -2.75676)
(27.234 -1.61228e-20 -2.83715)
(26.2498 -1.48361e-20 -2.89042)
(25.2764 -1.34403e-20 -2.92046)
(24.3219 0 -2.93093)
(23.3921 0 -2.92513)
(22.4912 -1.04305e-20 -2.90601)
(21.6217 9.50295e-21 -2.87608)
(20.7851 -8.63854e-21 -2.83752)
(19.982 -1.56673e-20 -2.79213)
(19.2122 2.82692e-20 -2.74145)
(18.4754 -5.49349e-23 -2.68674)
(17.7705 -1.14836e-20 -2.62903)
(17.0966 -1.02824e-20 -2.5692)
(16.4525 0 -2.50793)
(15.8368 0 -2.44579)
(15.2483 -7.17592e-21 -2.38326)
(14.6855 0 -2.3207)
(14.1472 1.09346e-20 -2.25842)
(13.6322 9.41556e-21 -2.19665)
(13.1391 -8.00646e-21 -2.13559)
(12.6668 0 -2.07537)
(12.2142 5.52045e-21 -2.01612)
(11.7801 4.4211e-21 -1.95792)
(11.3636 3.54525e-24 -1.90083)
(10.9637 -4.95153e-21 -1.8449)
(10.5794 0 -1.79015)
(10.21 -1.66809e-21 -1.73659)
(9.85451 0 -1.68424)
(9.51228 0 -1.63308)
(9.18256 0 -1.58311)
(8.86465 1.3559e-23 -1.53431)
(8.55793 0 -1.48666)
(8.26178 -5.23517e-21 -1.44013)
(7.97564 1.20651e-20 -1.3947)
(7.69895 1.35224e-20 -1.35034)
(7.43123 0 -1.30701)
(7.17196 -1.59647e-20 -1.26469)
(6.92074 -3.39439e-20 -1.22334)
(6.67709 0 -1.18293)
(6.44065 0 -1.14343)
(6.211 1.93368e-20 -1.1048)
(5.98783 1.98955e-20 -1.06702)
(5.77073 -2.03995e-20 -1.03004)
(5.55947 -4.15671e-20 -0.993853)
(5.35363 0 -0.958394)
(5.15306 0 -0.923679)
(4.95734 2.80699e-23 -0.889626)
(4.76638 -4.33184e-20 -0.856267)
(4.57976 0 -0.823507)
(4.39744 4.34806e-20 -0.791394)
(4.21904 0 -0.759825)
(4.0445 0 -0.728856)
(3.87355 0 -0.6984)
(3.70607 0 -0.668492)
(3.54199 3.39098e-23 -0.639094)
(3.381 -3.17405e-23 -0.610186)
(3.22339 -8.24034e-20 -0.581826)
(3.06852 0 -0.553899)
(2.91722 -7.99763e-20 -0.526601)
(2.76843 0 -0.499708)
(2.62359 -1.54443e-19 -0.473541)
(2.48114 1.51395e-19 -0.447758)
(2.34293 -1.48271e-19 -0.422725)
(2.20679 -1.45073e-19 -0.397969)
(2.0746 0 -0.373783)
(1.94334 1.38277e-19 -0.349658)
(1.8159 0 -0.326371)
(1.69132 -1.31244e-19 -0.304053)
(1.57558 -1.27672e-19 -0.28368)
(1.46405 2.48235e-19 -0.263365)
(1.35462 0 -0.242968)
(1.24486 -4.6736e-19 -0.222026)
(1.13474 0 -0.202157)
(1.03826 2.19122e-19 -0.184759)
(0.936832 0 -0.166992)
(0.85996 2.05051e-19 -0.152753)
(0.757315 0 -0.132958)
(0.678959 3.82339e-19 -0.11525)
(0.538606 -3.68615e-19 -0.0880961)
(0.468929 3.55749e-19 -0.0757811)
(0.346053 3.4395e-19 -0.0584758)
(0.375633 0 -0.0649624)
(0.2499 -6.4623e-19 -0.0403835)
(0.304304 6.26537e-19 -0.0522023)
(0.222789 0 -0.052376)
(0.552923 2.98469e-19 -0.131199)
(0.686356 0 -0.16939)
(1.20905 0 -0.265893)
(1.26637 -5.51691e-19 -0.270991)
(1.71961 0 -0.348236)
(1.63344 0 -0.332707)
(2.14426 4.87362e-19 -0.430985)
(2.06633 9.33219e-19 -0.423724)
(2.75203 4.46535e-19 -0.55678)
(2.69597 0 -0.555853)
(3.60692 0 -0.730624)
(3.4934 0 -0.711988)
(4.49964 0 -0.886501)
(3.9754 6.74486e-19 -0.778074)
(4.94868 6.22975e-19 -0.946287)
(3.99223 0 -0.766346)
(5.28036 0 -1.0121)
(4.22494 0 -0.863354)
(6.78258 0 -1.38844)
(32.809 4.13939e-21 0.420566)
(33.0406 0 0.433429)
(33.2961 4.8631e-21 0.389712)
(33.5606 0 0.273406)
(33.803 5.9785e-21 0.0850583)
(33.992 0 -0.1606)
(34.1047 -6.27108e-21 -0.444395)
(34.126 1.14818e-20 -0.748367)
(34.0468 2.34555e-20 -1.05735)
(33.8623 7.36778e-22 -1.35935)
(33.572 0 -1.64536)
(33.1791 0 -1.90918)
(32.6904 0 -2.14696)
(32.1148 0 -2.35661)
(31.4635 0 -2.5374)
(30.7483 0 -2.68958)
(29.982 1.45134e-20 -2.81418)
(29.1767 -1.34342e-20 -2.91279)
(28.3441 1.26286e-20 -2.98739)
(27.4948 0 -3.04021)
(26.638 0 -3.07358)
(25.7817 9.59776e-21 -3.08986)
(24.9323 8.76777e-21 -3.09129)
(24.0951 7.98865e-21 -3.08)
(23.2742 0 -3.05794)
(22.4725 -1.32474e-20 -3.02686)
(21.6924 -2.38314e-20 -2.9883)
(20.9354 1.06896e-20 -2.94362)
(20.2022 0 -2.89402)
(19.4935 0 -2.84049)
(18.8093 0 -2.78392)
(18.1494 6.70638e-21 -2.72502)
(17.5135 0 -2.66444)
(16.901 0 -2.60269)
(16.3113 8.81857e-21 -2.54021)
(15.7436 7.52132e-21 -2.47738)
(15.1972 0 -2.41448)
(14.6712 5.18116e-21 -2.35178)
(14.1649 -8.30376e-21 -2.28948)
(13.6773 -3.2019e-21 -2.22775)
(13.2078 2.32759e-21 -2.16671)
(12.7553 0 -2.10649)
(12.3193 0 -2.04716)
(11.8989 0 -1.98879)
(11.4933 -9.88704e-22 -1.93142)
(11.1019 0 -1.8751)
(10.724 3.14074e-21 -1.81983)
(10.3589 4.05429e-21 -1.76563)
(10.0059 0 -1.7125)
(9.66459 -5.65799e-21 -1.66045)
(9.33424 0 -1.60946)
(9.01435 0 -1.55952)
(8.70438 -1.49432e-20 -1.51061)
(8.40387 2.12241e-23 -1.46272)
(8.11229 1.67418e-20 -1.41581)
(7.82925 0 -1.36987)
(7.55425 0 -1.32486)
(7.28696 -1.86718e-20 -1.28077)
(7.02691 0 -1.23754)
(6.77381 3.90054e-20 -1.1952)
(6.52721 0 -1.15365)
(6.2869 0 -1.11293)
(6.05242 8.08027e-20 -1.07294)
(5.82364 8.12488e-20 -1.03374)
(5.60009 4.0725e-20 -0.995204)
(5.3817 0 -0.957402)
(5.168 0 -0.920212)
(4.95897 4.04947e-20 -0.883708)
(4.75424 8.05034e-20 -0.847783)
(4.55371 0 -0.812492)
(4.35724 7.91396e-20 -0.77778)
(4.16452 -7.82475e-20 -0.743639)
(3.97582 7.72477e-20 -0.710124)
(3.79047 -7.61188e-20 -0.677119)
(3.60932 7.49594e-20 -0.644836)
(3.43124 0 -0.61303)
(3.25776 0 -0.582057)
(3.08716 -1.4186e-19 -0.551529)
(2.92149 2.77801e-19 -0.521854)
(2.75832 0 -0.492495)