/*--------------------------------*- C++ -*----------------------------------*\
| =========                 |                                                 |
| \\      /  F ield         | OpenFOAM: The Open Source CFD Toolbox           |
|  \\    /   O peration     | Version:  2412                                  |
|   \\  /    A nd           | Website:  www.openfoam.com                      |
|    \\/     M anipulation  |                                                 |
\*---------------------------------------------------------------------------*/
FoamFile
{
    version     2.0;
    format      ascii;
    arch        "LSB;label=32;scalar=64";
    class       surfaceScalarField;
    location    "0.805";
    object      ddtCorrDdt0(phi);
}
// * * * * * * * * * * * * * * * * * * * * * * * * * * * * * * * * * * * * * //

dimensions      [0 3 -2 0 0 0 0];

oriented        oriented;

internalField   nonuniform List<scalar> 
24930
(
-0.00813169
-0.00491575
0.00718769
-0.00461281
-0.00272257
-0.00214209
0.0029578
-0.004469
0.00286974
-0.0084239
-0.000326497
-0.0071019
-0.00457496
0.00124972
-0.00626295
0.00844016
-0.0027966
0.00338667
0.0033332
-0.0133316
0.00780118
-0.0178008
-0.00464222
0.00286166
-0.0193709
0.0286676
-0.0123822
0.0219452
0.0167817
-0.0207313
0.0327571
-0.0530287
0.0108352
-0.0275344
-0.0320852
0.0402215
-0.0485592
0.0793199
-0.0163225
0.038961
0.0404108
-0.0530694
0.0772104
-0.143706
0.110523
-0.122031
-0.0278372
0.0148708
-0.169466
0.230656
-0.305374
0.23028
0.0391396
-0.0946756
0.381961
-0.114783
-0.229221
-0.0322775
-0.208993
-0.00457432
-0.0742018
-0.0164239
-0.0125206
-0.0108803
0.00131482
0.00546005
0.00485955
0.00980958
-0.000242819
0.00260944
-0.0064292
-0.00349798
-0.0048118
-0.00317412
0.00145611
-2.04131e-05
0.00345217
0.00165317
-0.000139633
0.000962381
-0.00330171
-0.000678689
-0.00335877
-0.0015928
-0.0027853
-0.00112639
-0.00387786
-9.42547e-07
-0.00591869
0.000555323
-0.00650806
0.000122629
-0.0053833
-0.000604089
-0.00259213
-0.000856511
0.000652715
-0.000621752
0.00373359
-0.000505732
0.00656585
-0.000809828
0.0100917
-0.00129849
0.0106645
-0.00157842
0.00982399
-0.00155934
0.0076334
-0.00146108
0.00356149
-0.00150449
-0.000748378
-0.00163506
-0.00420926
-0.0016386
-0.00279179
-0.00142385
-0.00150588
-0.00112403
-0.000915087
-0.000858966
-0.000585056
-0.000563724
-0.0010754
1.74302e-06
-0.00121237
0.000921037
-0.000855267
0.00195676
0.000834988
0.00291842
0.00785912
0.00374738
0.0112769
0.0049317
0.00525765
0.0064004
-0.000278395
0.00764687
-0.00245992
0.00799453
-0.00185289
0.00674885
0.00034311
0.00389727
0.00174445
0.00149259
0.00280902
-0.000874889
0.00203256
-0.00273047
0.000650917
-0.00421611
0.000442293
-0.00586962
0.000948853
-0.0070999
0.00163125
-0.00759088
0.000660541
-0.00697758
0.000140133
-0.00269651
-0.0137812
0.00341893
0.0116409
0.0128115
-0.00594204
0.0196033
-0.00301427
0.0182633
0.00395044
0.00614441
0.0152289
-0.0165905
0.0158875
-0.0302217
0.0180623
-0.00517843
-0.124962
0.177944
-0.174492
-0.0756454
0.252004
-0.23297
0.153476
0.0657685
-0.296204
0.0195963
0.0414406
0.00211677
0.0130445
0.00236516
4.81622e-05
-0.00467754
0.00756842
-0.00455658
-3.34849e-05
-0.0104927
0.00716675
-0.00656827
-0.0083424
0.0222475
-0.0291633
0.0589162
-0.0372431
0.074507
-0.0168685
0.0621554
0.0103785
0.0261906
0.0374122
0.00242215
0.0295832
-0.0248558
0.0222741
-0.0617357
0.0302431
-0.0667727
-0.0158873
-0.0481119
-0.0240752
-0.0345129
-0.0133843
-0.0229021
-0.00992192
-0.0153958
-0.00636811
-0.00534451
-0.00983654
0.00020548
-0.00533067
0.0110444
-0.011271
0.00981287
0.000415545
-0.00168195
0.00485294
0.00271361
-0.00865481
-0.00082556
0.0063733
-0.0062488
0.00296469
-0.00616131
0.00204105
-0.0106551
-0.00225748
-0.0131781
-0.00447276
-0.00749013
0.000491595
0.00310161
0.0104925
0.00591726
0.0160683
-0.00662572
0.0101034
-0.0203539
0.000720113
-0.0146048
-0.00367053
0.0113574
-0.0010544
0.0275605
-0.00445983
0.00839765
-0.0193922
-0.0356237
-0.0223158
-0.0494174
0.00754365
-0.00674735
0.0541757
0.0535106
0.0430466
0.0632425
-0.0645043
0.00223014
-0.177068
-0.0827673
-0.109744
-0.121046
0.317729
-0.0604622
0.480922
0.0730632
0.170864
0.205286
-0.722157
0.123193
-0.662627
-0.131968
0.199374
-0.0796375
-0.6859
-0.00589719
-0.404163
-0.00308021
-0.109752
-0.0187093
-0.00430985
-0.00926795
0.0280668
0.00682256
0.0419507
0.00831869
0.0324648
-0.000112524
0.0138531
-0.00538905
0.00526877
-0.00394657
0.00624605
-0.000454649
0.00764892
0.000900426
0.00666256
-0.000223749
0.00533076
-0.00203058
0.00403028
-0.00279946
0.00238173
-0.00212735
0.00158937
-0.00100581
0.00231581
-0.000678886
0.00283903
-0.00136895
0.00113339
-0.00223357
-0.00192544
-0.00253572
-0.004006
-0.00243259
-0.00423637
-0.0025548
-0.00372883
-0.00315321
-0.0033626
-0.00391254
-0.00320643
-0.00442032
-0.00224758
-0.00461759
-0.000607735
-0.00474267
0.00034758
-0.00498347
0.00072865
-0.00522997
0.000836779
-0.0052209
0.000611908
-0.0048375
-2.63839e-05
-0.00417699
-0.000625503
-0.00331308
-0.00114633
-0.00217799
-0.00225212
-0.000422422
-0.00312038
0.00214504
-0.00384089
0.00522884
-0.00431326
0.00862207
-0.00381684
0.0122497
-0.00440999
0.016501
-0.00722395
0.0206884
-0.00677208
0.0236373
-0.0040616
0.0238135
9.0421e-05
0.0202185
0.00525906
0.0114412
0.0111336
0.00318431
0.0104827
-0.00487339
0.0105651
-0.0113144
0.00844457
-0.0161415
0.0060577
-0.0203983
0.00522816
-0.0230331
0.0038551
-0.0233755
0.000669553
-0.0191725
0.00117334
-0.0059163
-0.0194236
0.0183278
-0.0248886
0.0595888
-0.05501
0.0731909
-0.0193059
0.064404
0.0141182
0.0217114
0.0638436
-0.0580736
0.107331
-0.112089
0.0833735
-0.0282375
-0.153947
0.588978
-0.78973
-0.238171
1.081
-0.818569
0.742689
0.183024
-1.29034
0.0808366
0.136148
0.00762116
0.0837778
0.0043707
0.00377695
-0.023485
0.0349893
-0.0163485
-0.00722999
-0.0283354
0.0177953
0.00165174
-0.0400313
0.102006
-0.135745
0.206998
-0.145104
0.236564
-0.0462866
0.18161
0.0650268
0.0700507
0.144363
-0.00783753
0.105672
-0.0856595
0.107541
-0.194806
0.147659
-0.21633
0.0247298
-0.15065
-0.0857394
-0.107663
-0.0582819
-0.0825629
-0.0369378
-0.0445024
-0.0456615
-0.0133833
-0.0406154
0.00752028
-0.0252801
0.037565
-0.0395364
0.0275181
0.0115126
-0.00878433
0.0459627
0.0123616
-0.00536233
0.00436512
0.00651579
-0.00484048
0.00585466
-0.00824682
0.00137514
-0.0135779
-0.00377135
-0.0140727
-0.00412766
-0.00597314
0.00314249
0.0040354
0.0127603
0.00273799
0.0147514
-0.0127287
0.00545598
-0.0244098
-0.00516772
-0.0129556
-0.00692128
0.0151259
-0.00320088
0.0255698
-0.0107933
-0.00296811
-0.0304497
-0.0434222
-0.0296088
-0.0468052
0.0180768
0.00640395
0.0736499
0.0569178
0.0481677
0.0432084
-0.100608
-0.0324705
-0.245986
-0.102838
-0.155914
-0.0689228
0.340458
0.0341594
0.720216
0.126779
0.449819
0.110779
-0.843089
-0.0253482
-1.12494
-0.124758
0.150194
-0.0284563
-0.674623
0.0215313
-0.382126
-0.00149376
-0.0567215
-0.0200279
0.0245547
-0.00830951
0.0508464
0.00710774
0.060205
0.00690505
0.0424091
-0.00202354
0.0169514
-0.00682584
0.00598598
-0.00485557
0.00727266
-0.00117425
0.00935052
6.87365e-05
0.00855911
-0.00130493
0.00683204
-0.00330153
0.00496878
-0.00408884
0.00333519
-0.00334865
0.00341703
-0.00224769
0.00507188
-0.00209022
0.00534357
-0.00300058
0.00215653
-0.00404177
-0.00274061
-0.00447258
-0.00606061
-0.00452185
-0.00685387
-0.00486638
-0.00663409
-0.0057409
-0.00671954
-0.00677115
-0.00661416
-0.00751251
-0.00509351
-0.00791622
-0.00231711
-0.00823963
0.000213197
-0.00864313
0.00174206
-0.00896644
0.00206395
-0.0089009
0.00134398
-0.00828877
0.000107417
-0.00719281
-0.00114579
-0.00564807
-0.00231546
-0.00358083
-0.00411599
-0.00051621
-0.0060653
0.00378168
-0.00822613
0.00898532
-0.0102973
0.0148495
-0.0125547
0.0212822
-0.0144987
0.0284025
-0.0163989
0.0349975
-0.0139636
0.0391395
-0.0078024
0.0384391
0.00125654
0.0298017
0.0140498
0.0170782
0.0237679
0.00208521
0.0254427
-0.0118575
0.0246962
-0.0226574
0.0195574
-0.0303539
0.013644
-0.0364741
0.0108784
-0.0396652
0.00639018
-0.0383726
-0.000298783
-0.0283263
-0.00441225
-0.00347577
-0.0441685
0.0418045
-0.0727826
0.0953004
-0.111187
0.136134
-0.0588826
0.115545
0.0384162
0.0400213
0.145227
-0.100789
0.253064
-0.20382
0.199843
-0.070021
-0.265553
1.01525
-1.87181
-0.408553
2.50477
-1.48296
1.81498
0.269033
-3.03871
0.156856
0.242612
0.0168456
0.221422
0.00275438
0.0203817
-0.0460435
0.0847514
-0.0303558
-0.0226489
-0.0402501
0.025959
0.0302949
-0.113267
0.210542
-0.318862
0.375937
-0.311934
0.395854
-0.0674345
0.280373
0.179269
0.0924567
0.330074
-0.0333029
0.235009
-0.154415
0.230277
-0.332894
0.328284
-0.369944
0.0630901
-0.253994
-0.201914
-0.180569
-0.132787
-0.138874
-0.0793776
-0.0721583
-0.112256
-0.0179729
-0.0943707
0.0209057
-0.0632162
0.0671389
-0.0848551
0.0428937
0.0356804
-0.0187981
0.107381
0.0265478
-0.0034806
0.0045102
0.0065639
-0.00425548
0.00471087
-0.0091292
0.000149055
-0.0143459
-0.00457299
-0.013111
-0.00433966
-0.00409577
0.00183241
0.00378513
0.00813525
-0.00142312
0.00694876
-0.0182619
-0.0023271
-0.0272852
-0.0106103
-0.0120783
-0.01057
0.0156847
-0.00825473
0.0222229
-0.016666
-0.00723098
-0.030817
-0.0419813
-0.0214821
-0.0372392
0.0237697
0.00878658
0.0604573
0.0454179
0.0139413
0.0236434
-0.115222
-0.0379359
-0.189995
-0.0713004
-0.0334525
-0.0225488
0.357661
0.0649601
0.591412
0.116824
0.28025
-0.0110021
-0.778295
-0.148404
-1.25099
-0.0365256
0.0180388
0.0233125
-0.283727
0.0442762
-0.232888
-0.00143612
0.0281757
-0.0211172
0.0566167
-0.00787101
0.064639
0.00664527
0.064592
0.00530314
0.0402549
-0.00368308
0.0129515
-0.00801333
0.00313732
-0.00567649
0.0061028
-0.00188136
0.00917612
-0.00073637
0.00864544
-0.00233428
0.0066998
-0.00451797
0.00477962
-0.00534477
0.0038128
-0.00457763
0.00509863
-0.00354628
0.00755114
-0.00359229
0.00744619
-0.00473748
0.00303471
-0.00595666
-0.00311487
-0.00652596
-0.00713262
-0.00674458
-0.00822479
-0.00732526
-0.00823053
-0.00847809
-0.00858432
-0.00977738
-0.00835102
-0.0107549
-0.00620131
-0.0113705
-0.00250755
-0.0118879
0.000938014
-0.0124396
0.00295321
-0.0128147
0.0031792
-0.0126524
0.00192446
-0.0117457
-5.51123e-05
-0.0101272
-0.00214909
-0.0078075
-0.00428321
-0.00470136
-0.00698978
-0.000223728
-0.0103749
0.00591358
-0.0144627
0.013319
-0.0186154
0.0216952
-0.0231685
0.0308604
-0.0264273
0.0406723
-0.0279666
0.049287
-0.0230126
0.0540245
-0.0120831
0.0516718
0.00408978
0.0390246
0.0268663
0.0197078
0.0430572
-0.00207546
0.047418
-0.0217296
0.0447449
-0.0364944
0.0348076
-0.046495
0.0236677
-0.0536881
0.0176637
-0.0563616
0.00838607
-0.051809
-0.00421583
-0.0333713
-0.0205125
0.00616208
-0.0843687
0.0757123
-0.145706
0.154278
-0.19187
0.206796
-0.110295
0.169674
0.0795844
0.0600056
0.260905
-0.14106
0.459808
-0.304469
0.359612
-0.13944
-0.409496
1.35464
-3.35075
-0.591054
4.45012
-2.11981
3.34052
0.321328
-5.47417
0.242931
0.315358
0.034322
0.427068
-0.00307253
0.0603223
-0.0730223
0.15465
-0.0470609
-0.0484289
-0.044028
0.0203363
0.0837433
-0.247044
0.353611
-0.59246
0.559846
-0.519915
0.542977
-0.0514126
0.352002
0.369612
0.0930462
0.587779
-0.0733864
0.402494
-0.230425
0.389477
-0.472864
0.572867
-0.525469
0.116955
-0.35356
-0.374009
-0.252017
-0.2357
-0.196089
-0.136318
-0.0982202
-0.210236
-0.0183447
-0.173764
0.0402304
-0.120858
0.0986949
-0.142334
0.0546948
0.0797725
-0.0293252
0.190932
0.0459592
-0.00311783
0.00135494
0.00530175
-0.00452643
0.00117097
-0.00957575
-0.00205896
-0.0138868
-0.00546791
-0.0114232
-0.00552081
-0.00268916
-0.00202319
0.00243291
0.000779752
-0.00608035
-0.00169453
-0.023453
-0.0084014
-0.0297846
-0.0124741
-0.0119986
-0.0102063
0.0149484
-0.00840842
0.0193197
-0.0159749
-0.00864544
-0.0253776
-0.0384203
-0.0140763
-0.032953
0.020587
0.00415576
0.038011
0.0289478
-0.0105007
0.0121655
-0.0988476
-0.0250573
-0.10867
-0.0310619
0.0538978
0.0067856
0.296484
0.0475228
0.337138
0.0320727
-0.0171011
-0.0880969
-0.68133
-0.172611
-0.890087
0.0325794
-0.0333954
0.0765231
0.0534015
0.0536838
-0.0999419
-0.00453624
0.0564066
-0.0229105
0.0749111
-0.00814015
0.0637874
0.0056173
0.055745
0.00358284
0.0292662
-0.00523015
0.00464541
-0.00912542
-0.00216418
-0.00651275
0.00268136
-0.00262855
0.00674667
-0.00157229
0.00676889
-0.00339312
0.00501331
-0.00577097
0.00343763
-0.0066466
0.00345791
-0.00587263
0.00611196
-0.00494526
0.00943398
-0.00522631
0.00916347
-0.00662256
0.00394469
-0.00802028
-0.00287872
-0.00872596
-0.00711555
-0.00911612
-0.00823537
-0.0099376
-0.00841217
-0.0113647
-0.00896375
-0.0129241
-0.00863972
-0.0141292
-0.00602522
-0.0149484
-0.0017202
-0.0156451
0.00219363
-0.0163199
0.00429676
-0.0167073
0.004177
-0.0163925
0.00224711
-0.0151237
-0.000649404
-0.0128978
-0.00380682
-0.00973068
-0.00723943
-0.00550072
-0.0110091
0.000474731
-0.0161171
0.00851846
-0.0224931
0.0181474
-0.0289824
0.0290007
-0.0357887
0.0407249
-0.0402607
0.0528845
-0.0414668
0.0630126
-0.0333456
0.0676558
-0.0162335
0.0628944
0.00924094
0.0453578
0.0444121
0.0192486
0.068888
-0.00937474
0.0760053
-0.0344426
0.0699593
-0.0526543
0.0531753
-0.0642344
0.0349182
-0.0715679
0.024238
-0.0724202
0.00858618
-0.0626626
-0.013577
-0.0334424
-0.0499534
0.0247953
-0.141763
0.12094
-0.245396
0.223694
-0.29636
0.283273
-0.169528
0.223765
0.143248
0.0806719
0.410417
-0.181984
0.729164
-0.405296
0.596888
-0.242326
-0.569491
1.44511
-5.03514
-0.767464
6.6617
-2.51406
5.08306
0.364095
-8.34761
0.33974
0.333204
0.0642678
0.699579
-0.0124458
0.140663
-0.103507
0.246674
-0.0663094
-0.0852633
-0.0392471
-0.00883128
0.163849
-0.453056
0.531525
-0.963731
0.755479
-0.745518
0.669798
0.0330464
0.391895
0.646664
0.0723424
0.905683
-0.121679
0.60416
-0.312374
0.582874
-0.616127
0.878819
-0.679277
0.180724
-0.44819
-0.605552
-0.321651
-0.363574
-0.25674
-0.202119
-0.123876
-0.343044
-0.0144724
-0.282566
0.0651748
-0.199515
0.131025
-0.207219
0.0628719
0.147863
-0.0448723
0.297817
0.0661691
-0.00370553
-0.00181779
0.0034334
-0.00547122
-0.0024044
-0.0100687
-0.00417875
-0.0131533
-0.00619561
-0.00982905
-0.00673766
-0.00190128
-0.00555508
0.000612379
-0.00476194
-0.0103333
-0.00648938
-0.0276471
-0.00922544
-0.0317161
-0.00861994
-0.0124265
-0.00405541
0.0134853
-0.00240589
0.0167796
-0.00956066
-0.00896969
-0.0174182
-0.0354102
-0.0088763
-0.0320731
0.0146092
-0.0038645
0.0210767
0.0155993
-0.0172163
0.00883045
-0.0679222
-0.00548516
-0.0495012
-0.00323502
0.0701283
0.0137027
0.18157
0.0104848
0.129847
-0.0423351
-0.137329
-0.125245
-0.432554
-0.112702
-0.327697
0.0594955
0.244755
0.109949
0.331631
0.0356717
0.111702
-0.010736
0.0327648
-0.0256335
0.0616206
-0.00897632
0.0487265
0.00413885
0.0366673
0.00171841
0.0132565
-0.00677257
-0.0053355
-0.0102367
-0.0086287
-0.00740659
-0.00218657
-0.00346666
0.00285865
-0.00251398
0.00369899
-0.00456037
0.00234071
-0.00712149
0.00124122
-0.00803621
0.00238514
-0.00727168
0.00654557
-0.00649042
0.0108845
-0.00704415
0.0107178
-0.00869998
0.00517614
-0.0102623
-0.00171116
-0.0110913
-0.00567006
-0.0116498
-0.00657132
-0.0127093
-0.00684264
-0.0143984
-0.00761014
-0.0161984
-0.00734033
-0.0176115
-0.00455505
-0.0186163
-4.49008e-05
-0.0194711
0.00389224
-0.0202396
0.00569072
-0.0205978
0.00494214
-0.020074
0.00214562
-0.0183739
-0.00183345
-0.0154682
-0.00626598
-0.0113814
-0.0111792
-0.00596775
-0.0162731
0.00154884
-0.023373
0.0115202
-0.0323427
0.0233523
-0.0413801
0.0365668
-0.0504972
0.0506262
-0.0560822
0.0647321
-0.0565979
0.0757825
-0.0443496
0.0796077
-0.0194367
0.071737
0.0175158
0.0486817
0.0673525
0.0156255
0.101668
-0.0196332
0.111156
-0.0496438
0.100081
-0.0707011
0.0743436
-0.0830856
0.0469229
-0.0895477
0.0298766
-0.0871742
0.00551758
-0.0701531
-0.0303007
-0.0271176
-0.0938705
0.0534273
-0.224173
0.178367
-0.373964
0.302821
-0.423115
0.36256
-0.228506
0.274432
0.23568
0.100818
0.590765
-0.213235
1.05114
-0.509415
0.879099
-0.386476
-0.690054
1.20701
-6.59611
-0.868041
8.73571
-2.44836
6.6591
0.440977
-11.231
0.447369
0.319797
0.10943
1.03458
-0.0231551
0.277417
-0.136969
0.361589
-0.0873134
-0.134643
-0.0223937
-0.0758913
0.271289
-0.759901
0.698168
-1.39427
0.952823
-1.00208
0.767326
0.217308
0.397764
1.01516
0.0360807
1.26599
-0.176599
0.808109
-0.399688
0.808889
-0.759484
1.24061
-0.829313
0.251035
-0.53454
-0.900832
-0.389851
-0.509749
-0.322415
-0.270529
-0.150118
-0.515303
-0.00648328
-0.425489
0.0949779
-0.299944
0.162862
-0.274092
0.0670152
0.243669
-0.0615248
0.42545
0.0859693
-0.00496824
-0.00294977
0.00276597
-0.00674902
-0.00377981
-0.0108222
-0.00471429
-0.0126962
-0.00579865
-0.00857151
-0.00654934
-0.00124251
-0.00643325
-0.000624113
-0.0059776
-0.013094
-0.00586501
-0.0300487
-0.00474672
-0.0326056
-0.000459432
-0.0130053
0.00539188
0.0114193
0.00635823
0.0140509
-0.00114807
-0.00948183
-0.00906156
-0.0338278
-0.00399381
-0.0336097
0.011664
-0.0124047
0.0142837
0.00624773
-0.0119899
0.0114818
-0.041108
0.0127928
-0.0256849
0.0160599
0.0345763
0.00729039
0.0672645
-0.0253943
0.01123
-0.0852082
-0.107745
-0.125263
-0.13173
-0.0565713
0.116539
0.0767586
0.46637
0.102048
0.435422
0.0307269
0.185223
-0.023219
0.040766
-0.0275127
0.0280777
-0.0100441
0.0270107
0.00247363
0.0147104
-0.000113823
-0.00347184
-0.00828122
-0.0140352
-0.0113411
-0.0145102
-0.00834117
-0.00716092
-0.00437869
-0.00125652
-0.0035576
0.000463663
-0.00583446
-0.000543371
-0.00855672
-0.00127302
-0.00949032
0.000917355
-0.00875142
0.00654851
-0.00816334
0.0119389
-0.00902712
0.0120932
-0.0109434
0.00671189
-0.0126482
0.000384036
-0.0135831
-0.00277217
-0.0143038
-0.00316298
-0.0155937
-0.00342591
-0.0175257
-0.00444607
-0.0195388
-0.00440811
-0.0211329
-0.0018085
-0.0222987
0.00241816
-0.0232847
0.0058654
-0.0241122
0.00693704
-0.0243954
0.00527729
-0.0236065
0.0014399
-0.0214149
-0.0037584
-0.0177775
-0.00963454
-0.0127193
-0.0161703
-0.00609078
-0.0228254
0.00296899
-0.0321682
0.0148418
-0.0439808
0.0287995
-0.0556727
0.0441971
-0.0670206
0.06027
-0.0734894
0.0758468
-0.0728068
0.0871748
-0.0553302
0.0894708
-0.0209487
0.0779267
0.0294971
0.0489826
0.0961466
0.00902508
0.141232
-0.0324756
0.152505
-0.0668473
0.134544
-0.0900976
0.0976879
-0.102484
0.0589082
-0.107045
0.0335727
-0.0999764
-0.00226249
-0.0734856
-0.056591
-0.0135149
-0.154905
0.0928644
-0.332377
0.248354
-0.533166
0.390323
-0.56745
0.440994
-0.278343
0.318445
0.362642
0.121164
0.795032
-0.236867
1.4185
-0.607835
1.25767
-0.55431
-0.742369
0.692347
-7.85906
-0.792756
10.2203
-1.88058
7.74257
0.583981
-13.6882
0.568212
0.328068
0.171316
1.42834
-0.0326715
0.485931
-0.17226
0.502528
-0.108354
-0.198333
0.00694297
-0.193458
0.411655
-1.16116
0.943675
-1.9301
1.1422
-1.2024
0.82747
0.530644
0.373094
1.46829
-0.0118242
1.64935
-0.23719
1.03125
-0.491498
1.0665
-0.902132
1.6534
-0.97264
0.321968
-0.611694
-1.26236
-0.458007
-0.664957
-0.396513
-0.33299
-0.178666
-0.733049
0.00499921
-0.608441
0.128707
-0.422556
0.193194
-0.337522
0.0676217
0.369156
-0.0791316
0.571196
0.103953
-0.00636467
-0.00164745
0.00431911
-0.00806144
-0.00242521
-0.0119041
-0.003387
-0.0127545
-0.00415955
-0.00757904
-0.00480044
-0.000214124
-0.00471766
-0.000604682
-0.00383381
-0.0138292
-0.00224632
-0.0303417
0.00114969
-0.0322478
0.00710633
-0.0135442
0.0127639
0.00878469
0.0124943
0.0108318
0.00473815
-0.0105968
-0.00254822
-0.0334962
0.00124674
-0.036398
0.0133749
-0.0203679
0.0157093
-0.000667017
-0.00291429
0.0144196
-0.0266558
0.0242624
-0.0309768
0.0222
-0.0197894
-0.00231955
-0.0210365
-0.0475331
-0.036923
-0.0975344
-0.0233018
-0.103603
0.105135
-0.0177362
0.365518
0.0786809
0.539927
0.080573
0.414791
0.0151306
0.155202
-0.0313259
0.0023136
-0.0290257
-0.0167153
-0.0102344
-0.00191287
0.000836062
-0.00356121
-0.0017406
-0.0156679
-0.00975203
-0.0189229
-0.0124301
-0.0180537
-0.00928148
-0.0106273
-0.00533083
-0.00410383
-0.00468392
-0.00168118
-0.00719515
-0.00263914
-0.0100402
-0.00333561
-0.010959
-0.00039887
-0.0102616
0.0064489
-0.00991802
0.0127384
-0.0111264
0.0133017
-0.0132945
0.00849453
-0.0151129
0.00330656
-0.0161347
0.00144427
-0.0170119
0.00183573
-0.0185223
0.0016827
-0.0206732
0.000382132
-0.0228666
9.07956e-06
-0.0246103
0.00205337
-0.0259091
0.00548959
-0.0269959
0.00792862
-0.0278449
0.00786782
-0.0280071
0.00504164
-0.0269019
1.61656e-05
-0.0241713
-0.00651156
-0.0197698
-0.0139613
-0.0137191
-0.0222582
-0.00588552
-0.030653
0.00467295
-0.0424541
0.0183687
-0.0573053
0.0343264
-0.0716796
0.0516948
-0.085091
0.0694318
-0.092097
0.0859626
-0.0895369
0.096926
-0.0656305
0.0970627
-0.0201436
0.0814789
0.0455376
0.0465365
0.130879
-4.85235e-05
0.187389
-0.0472561
0.199529
-0.0853705
0.172749
-0.110187
0.122611
-0.121823
0.0701578
-0.123515
0.0343929
-0.110296
-0.0162017
-0.0720073
-0.0947551
0.00811158
-0.236149
0.143626
-0.469804
0.331073
-0.72431
0.483913
-0.722754
0.514415
-0.307934
0.353596
0.527918
0.144579
1.01115
-0.244454
1.81704
-0.697753
1.71192
-0.741611
-0.696721
0.155175
-8.73497
-0.519869
10.8947
-1.02148
8.23988
0.790703
-15.4928
0.701387
0.4095
0.250361
1.87591
-0.038177
0.779253
-0.208237
0.674071
-0.127226
-0.279217
0.0570601
-0.380277
0.58266
-1.6931
1.19319
-2.54441
1.31064
-1.32173
0.846019
0.993778
0.326126
1.9868
-0.0602463
2.0344
-0.301654
1.27294
-0.587432
1.35549
-1.03917
2.10717
-1.10693
0.390001
-0.678219
-1.6917
-0.527635
-0.817146
-0.481869
-0.379751
-0.211731
-1.00305
0.0189286
-0.838382
0.16519
-0.567669
0.221368
-0.392594
0.0623758
0.528061
-0.0969903
0.729477
0.11929
-0.0075432
0.000414152
0.00735327
-0.00968192
-0.000245328
-0.0134619
-0.00162306
-0.0132716
-0.00239507
-0.00666908
-0.00279483
0.00130574
-0.00249187
0.000531298
-0.0015362
-0.0129762
7.41191e-05
-0.0290497
0.00348146
-0.0309234
0.00898233
-0.0139228
0.0133302
0.00597655
0.0119035
0.00760934
0.0048996
-0.0117073
6.48928e-05
-0.0335345
0.00547097
-0.0395586
0.0174679
-0.0280368
0.0207208
-0.00781022
0.00496886
0.0134852
-0.0226307
0.0276819
-0.0487209
0.0227422
-0.0689346
-0.00676221
-0.0779299
-0.0507779
-0.0526061
-0.0865833
0.038978
-0.0740799
0.217063
0.00364994
0.422067
0.0659951
0.474588
0.0521991
0.306654
-0.0037763
0.0750765
-0.0374764
-0.05006
-0.0302151
-0.0555771
-0.00978064
-0.02647
-0.00105648
-0.0130468
-0.00315327
-0.0254305
-0.0112459
-0.019358
-0.0135171
-0.0182159
-0.0101963
-0.0112593
-0.00629472
-0.00435892
-0.00588253
-0.00164219
-0.00862783
-0.00306257
-0.0115351
-0.00424616
-0.0123883
-0.00103961
-0.0117453
0.00657456
-0.011698
0.0134042
-0.0132765
0.0142968
-0.015675
0.0103584
-0.0175711
0.00678906
-0.0186625
0.00661837
-0.0196935
0.00800164
-0.0214147
0.00804616
-0.0237572
0.00645994
-0.0260951
0.00553097
-0.0279548
0.00668983
-0.0293566
0.00887622
-0.0305127
0.00984886
-0.0313467
0.00831634
-0.0313478
0.00412856
-0.0298884
-0.00218469
-0.0265932
-0.010113
-0.0214247
-0.0192293
-0.0143987
-0.0294152
-0.00541591
-0.039685
0.00655168
-0.0541241
0.0219468
-0.0721648
0.0397491
-0.0891993
0.0588012
-0.104365
0.0778733
-0.111466
0.0949021
-0.106307
0.104938
-0.0746948
0.102447
-0.0165769
0.0827189
0.065715
0.0419456
0.17137
-0.0108127
0.239684
-0.0631297
0.251633
-0.104416
0.214139
-0.130273
0.148609
-0.140531
0.0800735
-0.138519
0.0315334
-0.11776
-0.0376689
-0.0654713
-0.14697
0.0380816
-0.340704
0.205809
-0.639551
0.429006
-0.951222
0.580518
-0.876709
0.578599
-0.305054
0.379395
0.731517
0.176757
1.22088
-0.22938
2.23309
-0.77147
2.26077
-0.89298
-0.574315
-0.207701
-9.41987
-0.164053
10.8505
-0.205357
8.27658
1.03223
-16.7214
0.837392
0.596077
0.346198
2.36334
-0.0370718
1.16751
-0.243658
0.882232
-0.140938
-0.381928
0.127159
-0.651119
0.784334
-2.35474
1.45179
-3.21574
1.44526
-1.31703
0.820273
1.61714
0.269227
2.53634
-0.109803
2.41201
-0.374774
1.53884
-0.684449
1.66844
-1.16587
2.59069
-1.22905
0.453414
-0.734386
-2.18704
-0.59966
-0.953522
-0.580089
-0.400314
-0.252374
-1.33058
0.0336497
-1.12365
0.203147
-0.735963
0.247219
-0.435509
0.0596636
0.715508
-0.11436
0.902345
0.131885
-0.00860483
0.00101168
0.00982888
-0.011923
0.00041846
-0.0154531
-0.000984931
-0.0140034
-0.00165447
-0.00580157
-0.00187072
0.00289668
-0.00169844
0.00189836
-0.00154349
-0.0117156
-0.00141894
-0.027324
0.000168125
-0.0293155
0.00379967
-0.0140622
0.00643812
0.00377863
0.00437688
0.00558577
-0.000920708
-0.0114557
-0.00210502
-0.0326704
0.00658946
-0.0424089
0.020387
-0.0361332
0.025395
-0.0174779
0.0111912
0.00655823
-0.0206833
0.0239674
-0.0611393
0.0215384
-0.0971938
-0.00313918
-0.1069
-0.0383984
-0.0635386
-0.0626283
0.0461782
-0.0468966
0.204944
0.00943864
0.335002
0.042674
0.317089
0.0213441
0.154014
-0.0220861
-0.0216584
-0.0418241
-0.0987411
-0.0294005
-0.0794914
-0.00906387
-0.0357851
-0.000453491
-0.0126614
-0.00619299
-0.0156715
-0.012815
-0.0156792
-0.0145974
-0.0145937
-0.0110753
-0.00819852
-0.00727324
-0.00140434
-0.00717085
0.00108601
-0.010137
-0.00140878
-0.013016
-0.00366296
-0.0137308
-0.000694582
-0.0131512
0.00714435
-0.0134469
0.013985
-0.0154046
0.0149667
-0.0179941
0.0120511
-0.0199265
0.010427
-0.0210758
0.0121944
-0.0222646
0.0146761
-0.0241894
0.0149801
-0.0266967
0.0131408
-0.0291441
0.0115851
-0.0310881
0.0116249
-0.0325646
0.0122172
-0.0337604
0.0113915
-0.0345475
0.00816404
-0.0343583
0.00250795
-0.0325266
-0.00513403
-0.0286719
-0.0144963
-0.0227722
-0.0253459
-0.0148325
-0.0375455
-0.00475963
-0.0498368
0.00844232
-0.0669814
0.0253774
-0.0883722
0.04485
-0.10802
0.0655226
-0.124743
0.0855432
-0.131354
0.102653
-0.122706
0.111346
-0.0821355
0.105996
-0.0100568
0.0823138
0.0898056
0.0361404
0.217181
-0.0222448
0.297571
-0.0791259
0.308279
-0.123166
0.258311
-0.149718
0.175362
-0.15816
0.0882479
-0.151802
0.0243817
-0.122232
-0.0679063
-0.053048
-0.216112
0.0768359
-0.471894
0.278916
-0.843707
0.513267
-1.18908
0.675986
-1.04191
0.629822
-0.257932
0.396791
0.968758
0.227297
1.39711
-0.186367
2.65565
-0.83477
2.91303
-1.05246
-0.355953
-0.429021
-10.0303
0.110829
10.31
0.344834
8.03765
1.27784
-17.6516
0.967699
0.897533
0.457838
2.86915
-0.0271778
1.65767
-0.277181
1.13387
-0.146582
-0.512668
0.221826
-1.02258
1.01358
-3.15229
1.70871
-3.91471
1.53577
-1.14589
0.750269
2.40091
0.217891
3.06705
-0.156289
2.78455
-0.458607
1.84201
-0.778272
1.99155
-1.27489
3.08932
-1.33526
0.513883
-0.781208
-2.74181
-0.672613
-1.06381
-0.688617
-0.385291
-0.304495
-1.71447
0.0468958
-1.47422
0.241203
-0.929019
0.271002
-0.464104
0.0562325
0.930163
-0.130449
1.0878
0.142529
-0.00968221
-0.000241367
0.0101263
-0.0144305
-0.000681739
-0.0175383
-0.00152552
-0.0147455
-0.00185934
-0.00522704
-0.00197891
0.00376854
-0.00228984
0.00234598
-0.00342269
-0.0113224
-0.00531926
-0.0263388
-0.00609519
-0.0281916
-0.00468305
-0.014028
-0.00368493
0.00286051
-0.00613523
0.00591374
-0.0098827
-0.00849803
-0.0080434
-0.0296072
0.00358095
-0.0440559
0.0197983
-0.0445855
0.028138
-0.0301665
0.0182152
-0.00612947
-0.0119058
0.0148627
-0.0556372
0.0198815
-0.0969954
0.00613435
-0.111168
-0.0180687
-0.0769138
-0.0360032
0.00710482
-0.0273879
0.112906
0.00395502
0.176117
0.015441
0.130202
-0.00708781
0.00468682
-0.0356635
-0.102424
-0.0427896
-0.124987
-0.0262112
-0.080719
-0.00731448
-0.0278221
-0.00141995
-0.00245403
-0.00795996
-0.00480182
-0.0144767
-0.00956613
-0.0156493
-0.00831084
-0.0118609
-0.00153805
-0.00827374
0.00458787
-0.00857326
0.00591975
-0.0117468
0.001959
-0.0144695
-0.00181062
-0.0149508
0.000625234
-0.0144409
0.00820213
-0.015116
0.0144226
-0.0174359
0.0151489
-0.0201558
0.0132806
-0.0220795
0.0137396
-0.023285
0.0174895
-0.0246451
0.0210365
-0.0267714
0.0216265
-0.0294199
0.0196193
-0.0319473
0.0174764
-0.03395
0.0163127
-0.0354783
0.0151438
-0.0366898
0.0123712
-0.037408
0.00738174
-0.0370172
0.000257474
-0.0348232
-0.0086947
-0.0304513
-0.0194967
-0.0239013
-0.0321353
-0.0151591
-0.0464809
-0.00417614
-0.0608945
0.0101319
-0.0808754
0.0284277
-0.105728
0.0494468
-0.127997
0.071082
-0.145559
0.0922719
-0.151573
0.10935
-0.138649
0.116565
-0.0878703
0.108427
-0.000712327
0.0812697
0.117289
0.0303367
0.26766
-0.0331728
0.360558
-0.094263
0.369123
-0.140901
0.305126
-0.168068
0.202816
-0.174494
0.0945173
-0.163371
0.0125529
-0.123768
-0.108117
-0.0364418
-0.303398
0.124033
-0.632709
0.362342
-1.08402
0.62256
-1.45262
0.766326
-1.18801
0.665632
-0.156348
0.410834
1.22742
0.306272
1.50798
-0.116037
3.08865
-0.898763
3.69985
-1.22431
-0.0310402
-0.570848
-10.6756
0.280052
9.45827
0.662928
7.64922
1.50827
-18.4831
1.16589
1.2311
0.584086
3.44676
-0.00689808
2.25392
-0.307047
1.43567
-0.140946
-0.679099
0.342644
-1.50952
1.26621
-4.08116
1.95082
-4.60312
1.56788
-0.764695
0.656356
3.31061
0.186558
3.53502
-0.209291
3.17867
-0.556492
2.19055
-0.861994
2.30046
-1.36057
3.58987
-1.421
0.574306
-0.822108
-3.34145
-0.741256
-1.14638
-0.798613
-0.32888
-0.373194
-2.13959
0.055593
-1.90213
0.27785
-1.14998
0.293453
-0.478456
0.0545717
1.16892
-0.144691
1.28576
0.152599
-0.0106014
-0.00164399
0.00864432
-0.0164827
-0.00180602
-0.0193101
-0.00206697
-0.0154191
-0.00193353
-0.00527169
-0.00186805
0.00329037
-0.00251337
0.00112485
-0.0045079
-0.0125393
-0.00764159
-0.0268008
-0.00993596
-0.0281747
-0.0101893
-0.0142267
-0.0106683
0.0031191
-0.0139498
0.00876044
-0.0176318
-0.00237847
-0.0151641
-0.0234627
-0.0027486
-0.0431723
0.0153859
-0.0518023
0.0288654
-0.043985
0.0277185
-0.0222452
0.00728157
0.00217075
-0.0294402
0.0166262
-0.0694945
0.0153847
-0.0929522
0.00112541
-0.0848786
-0.0148906
-0.0463481
-0.0174057
0.00134657
-0.00787349
0.0180428
-0.0101395
-0.026377
-0.0285699
-0.100272
-0.0435959
-0.140894
-0.0392501
-0.11832
-0.0206837
-0.0577096
-0.00501791
-0.00573211
-0.00269532
0.0134672
-0.0102168
0.00674733
-0.0165747
-0.00200636
-0.0166965
-0.00169088
-0.0127005
0.00612551
-0.00943178
0.0117119
-0.0102106
0.0111634
-0.0135233
0.00601299
-0.0158899
0.000427306
-0.0160249
0.00272949
-0.0156001
0.00960795
-0.0166723
0.0145687
-0.0193018
0.0146913
-0.0220678
0.0138032
-0.0239382
0.016275
-0.0252119
0.0218137
-0.0267676
0.0262281
-0.0290995
0.0270912
-0.0318725
0.0250645
-0.0344604
0.0225084
-0.0365075
0.0202418
-0.0380744
0.0173638
-0.0392878
0.012715
-0.0399305
0.00607043
-0.039351
-0.00241577
-0.0368386
-0.0126139
-0.0320345
-0.0248521
-0.0249623
-0.039343
-0.0155773
-0.0559881
-0.00385609
-0.0726477
0.011376
-0.0956073
0.0308489
-0.124044
0.0532448
-0.148969
0.0769598
-0.167965