/*--------------------------------*- C++ -*----------------------------------*\
| =========                 |                                                 |
| \\      /  F ield         | OpenFOAM: The Open Source CFD Toolbox           |
|  \\    /   O peration     | Version:  2412                                  |
|   \\  /    A nd           | Website:  www.openfoam.com                      |
|    \\/     M anipulation  |                                                 |
\*---------------------------------------------------------------------------*/
FoamFile
{
    version     2.0;
    format      ascii;
    arch        "LSB;label=32;scalar=64";
    class       surfaceScalarField;
    location    "0.805";
    object      phi;
}
// * * * * * * * * * * * * * * * * * * * * * * * * * * * * * * * * * * * * * //

dimensions      [0 3 -1 0 0 0 0];

oriented        oriented;

internalField   nonuniform List<scalar> 
24930
(
0.0157756
0.0209805
-0.0367601
0.00650147
0.00927412
0.00300061
0.00350085
0.00168632
0.00131427
0.00108886
0.00059745
0.000739107
0.000349754
0.000503405
0.000235709
0.00033403
0.000169354
0.000208086
0.000125901
0.00011266
9.54207e-05
3.85144e-05
7.41805e-05
-1.92453e-05
5.77707e-05
-6.47035e-05
4.53791e-05
-0.000100566
3.57393e-05
-0.000127913
2.73206e-05
-0.000149634
2.18516e-05
-0.0001656
1.60971e-05
-0.00017782
1.21112e-05
-0.000186482
8.29943e-06
-0.000192475
5.74128e-06
-0.000195957
3.81207e-06
-0.000197091
2.23353e-06
-0.000196379
3.2557e-08
-0.00019452
-2.78319e-06
-0.000192217
-5.2839e-06
-0.000188974
-5.31663e-06
-0.000184142
-3.14233e-06
-0.0001788
-3.53288e-06
-0.000173407
-4.75483e-06
-0.000167612
-5.6959e-06
-0.000161616
-5.89231e-06
-0.000155497
-6.03387e-06
-0.000149303
-6.21667e-06
-0.000143094
-6.29083e-06
-0.000137009
-6.14242e-06
-0.000131061
-5.95633e-06
-0.000125254
-5.79382e-06
-0.000119617
-5.63347e-06
-0.000114166
-5.46508e-06
-0.000108937
-5.25176e-06
-0.000103923
-5.02624e-06
-9.91007e-05
-4.81556e-06
-9.44533e-05
-4.63235e-06
-8.99637e-05
-4.48412e-06
-8.56101e-05
-4.36243e-06
-8.1391e-05
-4.23038e-06
-7.73144e-05
-4.07753e-06
-7.3422e-05
-3.88311e-06
-6.98e-05
-3.61691e-06
-6.65291e-05
-3.27216e-06
-6.37089e-05
-2.82336e-06
-6.13955e-05
-2.3115e-06
-5.9573e-05
-1.81524e-06
-5.812e-05
-1.4465e-06
-5.67467e-05
-1.37266e-06
-5.4951e-05
-1.79887e-06
-5.19621e-05
-2.99126e-06
-4.67299e-05
-5.2319e-06
-3.80338e-05
-8.69624e-06
-2.47779e-05
-1.32561e-05
-6.47207e-06
-1.83054e-05
1.60294e-05
-2.24997e-05
4.0367e-05
-2.43378e-05
6.22708e-05
-2.19065e-05
7.72341e-05
-1.49704e-05
8.22695e-05
-5.04556e-06
7.73935e-05
4.87515e-06
6.46376e-05
1.27685e-05
4.73045e-05
1.73423e-05
2.80447e-05
1.92653e-05
1.05388e-05
1.75085e-05
-5.9033e-07
1.1133e-05
4.20428e-07
-1.00514e-06
1.4977e-05
-1.45504e-05
4.30301e-05
-2.80458e-05
8.07931e-05
-3.77542e-05
0.000120166
-3.93644e-05
0.000155565
-3.53914e-05
0.000192097
-3.6532e-05
0.000241997
-4.98949e-05
0.000289291
-4.72861e-05
0.000302213
-1.31112e-05
0.000239048
6.31132e-05
5.26427e-05
0.000186403
-0.000258778
0.000311435
-0.000666971
0.000408202
-0.0010807
0.000413749
-0.00137508
0.000294369
-0.00148977
0.00011475
-0.00140369
-8.60422e-05
-0.00167459
0.000270727
0.00199913
-0.00367359
0.00501239
-0.00301312
0.00188332
0.003129
0.00033851
0.00154476
0.000262246
7.6243e-05
0.000102334
0.000159922
0.00033906
-0.000236725
0.000584292
-0.000245216
0.000918924
-0.000334645
0.00117521
-0.000256249
0.000831778
0.000343434
-0.000443702
0.00127545
-0.00226346
0.00181975
-0.00413799
0.00187453
-0.00546163
0.00132363
-0.00588338
0.00042182
-0.00514451
-0.000738869
-0.00410099
-0.00104353
-0.00336858
-0.000732379
-0.00240051
-0.000968036
-0.00111955
-0.00128094
-9.36795e-06
-0.00111016
0.000599787
-0.000609138
0.000873905
-0.000274119
0.000721483
0.000152439
0.000411758
0.000309729
-0.000159071
0.000570825
-0.000155115
-3.98849e-06
-0.000416694
0.0333642
0.0299235
-0.0423072
0.022397
0.0202413
0.0141684
0.0117294
0.00911052
0.00637217
0.00614068
0.00356728
0.00431649
0.00217396
0.00310429
0.00144791
0.00224513
0.00102849
0.00160947
0.000761496
0.00112488
0.000579933
0.000748944
0.000450108
0.000453025
0.000353755
0.000218373
0.000280069
3.38156e-05
0.000220181
-0.000121381
0.000182274
-0.000245273
0.000145582
-0.000342609
0.000113541
-0.000419607
8.93889e-05
-0.000479326
6.80978e-05
-0.00052503
5.10725e-05
-0.000558757
3.70103e-05
-0.000581956
2.55144e-05
-0.000596579
1.54774e-05
-0.000604382
5.56376e-06
-0.000607067
-3.3902e-06
-0.000605132
-8.14059e-06
-0.000598185
-9.94347e-06
-0.000588196
-1.4186e-05
-0.000575775
-1.76715e-05
-0.000561156
-2.03863e-05
-0.000545009
-2.21065e-05
-0.000527711
-2.34182e-05
-0.000509565
-2.43142e-05
-0.000490861
-2.48602e-05
-0.000472039
-2.48971e-05
-0.000453268
-2.47631e-05
-0.00043465
-2.44698e-05
-0.000416336
-2.39623e-05
-0.000398425
-2.33543e-05
-0.000381039
-2.26185e-05
-0.000364203
-2.18668e-05
-0.000347882
-2.11577e-05
-0.000332045
-2.04838e-05
-0.000316648
-1.98756e-05
-0.000301633
-1.93579e-05
-0.000287002
-1.88462e-05
-0.000272797
-1.82805e-05
-0.000259177
-1.75119e-05
-0.000246434
-1.63646e-05
-0.000234863
-1.48432e-05
-0.000224803
-1.28848e-05
-0.000216465
-1.06565e-05
-0.000209809
-8.48267e-06
-0.000204426
-6.83966e-06
-0.000199331
-6.47406e-06
-0.000192803
-8.32951e-06
-0.000182219
-1.35793e-05
-0.000163986
-2.34701e-05
-0.000133963
-3.87231e-05
-8.84518e-05
-5.87679e-05
-2.57948e-05
-8.0963e-05
5.11762e-05
-9.94697e-05
0.00013463
-0.000107789
0.00021011
-9.73817e-05
0.000262112
-6.69668e-05
0.00027998
-2.29103e-05
0.000262997
2.18534e-05
0.000218255
5.74984e-05
0.000157398
7.81948e-05
9.12282e-05
8.54378e-05
3.31972e-05
7.55477e-05
9.64021e-08
4.424e-05
9.48057e-06
-1.03786e-05
6.6607e-05
-7.16692e-05
0.000168652
-0.00013008
0.000302494
-0.000171582
0.000441549
-0.000178406
0.000565513
-0.000159345
0.000689567
-0.000160579
0.000850449
-0.000210773
0.0009927
-0.000189549
0.00100168
-2.20728e-05
0.000725297
0.000339515
1.33354e-05
0.000898349
-0.00107968
0.00140444
-0.0024464
0.00177493
-0.00375397
0.00172136
-0.00462511
0.00116558
-0.0047954
0.000284958
-0.00465192
-0.000229177
-0.00561573
0.0012348
0.00610312
-0.0153924
0.0163448
-0.013255
0.00698219
0.0124917
0.00150426
0.00702271
0.000938162
0.000642335
0.000441772
0.000656353
0.00127517
-0.0010701
0.00206229
-0.00103232
0.00316618
-0.00143855
0.00375442
-0.000844539
0.00214301
0.00195482
-0.00248583
0.0059043
-0.00862162
0.00795554
-0.0144497
0.00770269
-0.0182391
0.00511297
-0.0190177
0.00120042
-0.0163765
-0.00338
-0.0128081
-0.00461192
-0.0104694
-0.00307103
-0.00751095
-0.0039265
-0.00323443
-0.00555747
0.000339487
-0.00468409
0.0022883
-0.00255796
0.00303856
-0.00102438
0.00244591
0.000745072
0.00123775
0.00151788
-0.00052263
0.0023312
-0.000307069
-0.000219532
-0.00184864
0.043124
0.0322202
-0.0454207
0.0358149
0.0275504
0.0272332
0.0203111
0.0198306
0.0137747
0.0143485
0.0090494
0.0105085
0.00601395
0.00780897
0.0041474
0.00585417
0.00298323
0.00439185
0.00222376
0.00326884
0.00170292
0.00238911
0.00132987
0.00169
0.00105289
0.00112859
0.000841412
0.000674557
0.000674077
0.000308138
0.000548587
1.32085e-05
0.000440518
-0.000232046
0.000358907
-0.00042857
0.000286005
-0.000585744
0.000225228
-0.000710429
0.000175509
-0.000807632
0.000133771
-0.000881475
9.86724e-05
-0.000935749
6.99063e-05
-0.00097347
4.48542e-05
-0.000997368
2.22534e-05
-0.00100997
5.15487e-06
-0.00101315
-6.78982e-06
-0.00100823
-2.03499e-05
-0.000996487
-2.96928e-05
-0.000979359
-3.74577e-05
-0.000958027
-4.34906e-05
-0.000933383
-4.81223e-05
-0.000906178
-5.14789e-05
-0.000877073
-5.38926e-05
-0.00084692
-5.50372e-05
-0.00081617
-5.55522e-05
-0.000785125
-5.55482e-05
-0.000754134
-5.49536e-05
-0.000723448
-5.40279e-05
-0.000693333
-5.27322e-05
-0.000663899
-5.13116e-05
-0.000635138
-4.99301e-05
-0.000607037
-4.85858e-05
-0.000579553
-4.73536e-05
-0.000552612
-4.62914e-05
-0.000526233
-4.52221e-05
-0.000500517
-4.39972e-05
-0.000475763
-4.2269e-05
-0.0004525
-3.96279e-05
-0.000431281
-3.6062e-05
-0.00041272
-3.14463e-05
-0.000397223
-2.6158e-05
-0.000384736
-2.09752e-05
-0.000374543
-1.70379e-05
-0.000364893
-1.61277e-05
-0.000352713
-2.05137e-05
-0.000333309
-3.29884e-05
-0.000300304
-5.64795e-05
-0.000246358
-9.26724e-05
-0.000164899
-0.000140228
-5.30292e-05
-0.000192835
8.48281e-05
-0.000237327
0.00023444
-0.000257399
0.000370556
-0.000233495
0.000465289
-0.000161698
0.000498885
-5.6503e-05
0.000469013
5.17249e-05
0.000388247
0.000138264
0.000278302
0.000188141
0.000160359
0.000203384
5.98098e-05
0.0001761
6.9035e-06
9.71499e-05
3.16435e-05
-3.5115e-05
0.000143083
-0.000183102
0.000333686
-0.000320673
0.000579495
-0.000417379
0.000833707
-0.000432606
0.00105835
-0.000383973
0.00127647
-0.00037869
0.00154785
-0.000482151
0.00177207
-0.000413768
0.00173594
1.39827e-05
0.00116262
0.00091284
-0.000176395
0.00223736
-0.00219987
0.00342792
-0.00460381
0.00417888
-0.00679521
0.00391279
-0.00813123
0.00250163
-0.00822147
0.000375356
-0.00800285
-0.000447768
-0.00956471
0.00279676
0.00976581
-0.034723
0.0276885
-0.0311777
0.0131133
0.0270672
0.0032575
0.0168785
0.00177185
0.00212795
0.000920157
0.00150808
0.00244225
-0.00259218
0.00378698
-0.00237704
0.00566028
-0.00331186
0.00631315
-0.0014974
0.00288904
0.00537892
-0.00572251
0.0145159
-0.0165273
0.0187603
-0.0261131
0.0172885
-0.0318482
0.0108481
-0.0324177
0.00176994
-0.0275156
-0.00828207
-0.0212795
-0.010848
-0.0173999
-0.00695061
-0.0124542
-0.00887217
-0.00506847
-0.0129432
0.00104132
-0.0107939
0.00437914
-0.00589577
0.0055353
-0.00218055
0.00433711
0.00194326
0.00206265
0.00379234
-0.000867087
0.00526092
-0.000250041
-0.000836591
-0.0044322
0.0489406
0.0317317
-0.0484521
0.0456722
0.0308187
0.0393628
0.0266205
0.03199
0.0211475
0.0251195
0.0159199
0.019447
0.0116864
0.0150224
0.00857197
0.0116236
0.00638194
0.00899738
0.00484993
0.00694144
0.00375884
0.0053099
0.00296145
0.00399984
0.00236296
0.00293808
0.0019031
0.00207156
0.00154047
0.00136337
0.00125672
0.000781412
0.00102254
0.000304991
0.000835459
-8.50169e-05
0.000676029
-0.000405889
0.000545908
-0.000665268
0.0004346
-0.000873231
0.000341616
-0.00103732
0.000262952
-0.00116471
0.000197722
-0.00126105
0.000141837
-0.00133151
9.43862e-05
-0.00137978
5.36924e-05
-0.00140903
2.00894e-05
-0.00142223
-7.50027e-06
-0.00142331
-2.86222e-05
-0.00141325
-4.73737e-05
-0.00139439
-6.24152e-05
-0.00136847
-7.40938e-05
-0.00133695
-8.29635e-05
-0.00130104
-8.97493e-05
-0.00126219
-9.38947e-05
-0.00122129
-9.6487e-05
-0.00117899
-9.78797e-05
-0.00113593
-9.80042e-05
-0.00109263
-9.73217e-05
-0.00104956
-9.57968e-05
-0.00100701
-9.38758e-05
-0.000965045
-9.19056e-05
-0.000923717
-8.99126e-05
-0.000883022
-8.80415e-05
-0.000842902
-8.64047e-05
-0.00080342
-8.4703e-05
-0.00076476
-8.26599e-05
-0.000727387
-7.96441e-05
-0.00069211
-7.49049e-05
-0.000659784
-6.83891e-05
-0.000631345
-5.98876e-05
-0.000607433
-5.00743e-05
-0.00058801
-4.04048e-05
-0.000572037
-3.30161e-05
-0.000556936
-3.12341e-05
-0.000538146
-3.93092e-05
-0.000508698
-6.2442e-05
-0.000459138
-0.000106044
-0.000378625
-0.000173189
-0.000257429
-0.000261426
-9.11804e-05
-0.000359085
0.000114076
-0.000442584
0.000337602
-0.000480922
0.000542469
-0.000438359
0.000686997
-0.000306221
0.000740615
-0.000110117
0.000698293
9.4049e-05
0.000578312
0.000258249
0.000414194
0.000352265
0.000240033
0.000377553
9.54846e-05
0.000320656
2.57247e-05
0.000166916
7.37217e-05
-8.31075e-05
0.00025095
-0.000360324
0.000543984
-0.000613697
0.000917218
-0.000790599
0.00130208
-0.000817457
0.00163927
-0.00072115
0.00195601
-0.000695416
0.0023343
-0.000860442
0.00262138
-0.000700837
0.0024896
0.000145968
0.00151829
0.00188415
-0.00058816
0.00434381
-0.00366006
0.00649981
-0.00715881
0.00767764
-0.0102115
0.0069655
-0.011871
0.00416116
-0.0117187
0.000222993
-0.0112995
-0.000867129
-0.0127354
0.00423313
0.0126798
-0.0601384
0.0377655
-0.0562636
0.0201242
0.0447089
0.00571797
0.0312847
0.002806
0.00503988
0.00157214
0.00274198
0.0038623
-0.00488234
0.00578095
-0.00429567
0.00836661
-0.00589753
0.00873765
-0.00186849
0.00283455
0.011282
-0.01036
0.0277104
-0.0259737
0.034374
-0.0389291
0.0302439
-0.0459182
0.0178372
-0.0456408
0.00149254
-0.0382222
-0.0157007
-0.0293002
-0.0197699
-0.0240173
-0.0122335
-0.0171738
-0.0157156
-0.00653576
-0.0235812
0.00214548
-0.0194751
0.00689484
-0.0106451
0.00837948
-0.00366519
0.00637938
0.00394336
0.00289849
0.00727321
-0.00112835
0.00928776
9.68387e-05
-0.0020618
-0.0082706
0.0527653
0.0305919
-0.0516254
0.0521652
0.0314188
0.0488121
0.0299735
0.0433051
0.0266544
0.0368215
0.0224035
0.0304075
0.0181004
0.0246727
0.0143067
0.0198273
0.0112273
0.0158432
0.00883406
0.012597
0.00700505
0.00995164
0.00560681
0.0077875
0.00452712
0.00600848
0.00368206
0.00453948
0.00300937
0.00332442
0.00247174
0.00231614
0.00203089
0.00148051
0.0016712
0.000787376
0.00136916
0.00021514
0.00111798
-0.000256384
0.000905931
-0.000642357
0.00072758
-0.000954334
0.000575193
-0.00120391
0.000447528
-0.00140042
0.000338143
-0.0015517
0.000245198
-0.00166462
0.000166246
-0.0017463
9.99072e-05
-0.00180029
4.62015e-05
-0.00182891
-8.49165e-08
-0.00184082
-3.54123e-05
-0.00183663
-6.66893e-05
-0.0018192
-9.15819e-05
-0.00179119
-0.000110942
-0.00175467
-0.000126233
-0.00171192
-0.000136663
-0.00166452
-0.000143924
-0.00161362
-0.0001488
-0.00156035
-0.00015127
-0.00150558
-0.000152074
-0.00145017
-0.000151215
-0.00139463
-0.000149425
-0.00133921
-0.00014733
-0.0012841
-0.000145022
-0.00122939
-0.00014275
-0.00117507
-0.000140714
-0.00112131
-0.00013847
-0.00106839
-0.000135579
-0.00101699
-0.000131042
-0.000968253
-0.000123647
-0.000923371
-0.000113271
-0.000883664
-9.95984e-05
-0.000850054
-8.3689e-05
-0.000822543
-6.79221e-05
-0.000799763
-5.5801e-05
-0.000778243
-5.276e-05
-0.000751811
-6.57468e-05
-0.00071105
-0.000103209
-0.000643199
-0.0001739
-0.000533625
-0.000282767
-0.000369147
-0.000425906
-0.000143623
-0.00058461
0.000135382
-0.000721589
0.000440509
-0.000786048
0.000722582
-0.000720429
0.000924886
-0.000508521
0.00100416
-0.000189387
0.000951282
0.00014693
0.000790306
0.000419229
0.000568314
0.000574262
0.000334838
0.000611036
0.000146173
0.000509326
6.35717e-05
0.00024952
0.000143071
-0.000162606
0.000397617
-0.000614865
0.000806504
-0.00102257
0.00132192
-0.001306
0.00185217
-0.00134769
0.00231264
-0.00118161
0.00272943
-0.0011122
0.00320426
-0.00133527
0.00352523
-0.00102179
0.00323193
0.000439289
0.00174875
0.00336733
-0.00126668
0.00735926
-0.005503
0.0107361
-0.0101289
0.0123035
-0.0139812
0.0108179
-0.0157764
0.00595639
-0.0152168
-0.0003366
-0.0143871
-0.00169682
-0.0142604
0.00410654
0.0145446
-0.0889437
0.0451155
-0.0868347
0.0277377
0.0620872
0.00894349
0.0500788
0.00409041
0.00989292
0.00242903
0.00440338
0.00555761
-0.0080109
0.00806131
-0.00679936
0.011244
-0.00908022
0.0108936
-0.00151804
0.00180871
0.0203669
-0.0165005
0.0460196
-0.0368748
0.0547483
-0.0525593
0.0459284
-0.0600033
0.0252811
-0.0582887
-0.000221998
-0.048214
-0.0257753
-0.0367468
-0.0312371
-0.0302643
-0.0187161
-0.0215682
-0.0244116
-0.00765299
-0.0374964
0.00362176
-0.0307499
0.00984944
-0.0168728
0.011593
-0.00540875
0.00859272
0.00694364
0.0038041
0.0120618
-0.0012325
0.0143244
0.000752459
-0.00404678
-0.0135159
0.0559219
0.0296295
-0.0549595
0.0564888
0.0308518
0.0554367
0.0310257
0.052349
0.0297421
0.0475728
0.0271798
0.0418295
0.0238438
0.0358403
0.0202958
0.0301306
0.0169368
0.0249886
0.013976
0.0205144
0.0114793
0.0166951
0.00942616
0.0134658
0.0077564
0.0107465
0.00640126
0.00845972
0.00529611
0.00653874
0.00439268
0.00492459
0.0036451
0.00357032
0.00302555
0.00243467
0.00250482
0.00148528
0.00206729
0.00069437
0.00169674
4.00687e-05
0.00138186
-0.000500791
0.00111609
-0.000941643
0.000888241
-0.00129752
0.000693566
-0.00158071
0.000527862
-0.00180169
0.000387164
-0.00196971
0.000268295
-0.00209303
0.000170104
-0.00218061
8.85254e-05
-0.00223262
1.65305e-05
-0.00226036
-3.90424e-05
-0.00226651
-8.54895e-05
-0.00225403
-0.000123399
-0.00222659
-0.000153661
-0.00218766
-0.000175614
-0.00213982
-0.000191798
-0.00208499
-0.000203649
-0.00202498
-0.000211265
-0.00196127
-0.000215781
-0.00189518
-0.000217302
-0.00182767
-0.000216945
-0.00175926
-0.000215746
-0.00169037
-0.000213917
-0.00162126
-0.000211853
-0.00155207
-0.000209894
-0.0014831
-0.000207445
-0.00141481
-0.000203874
-0.00134812
-0.000197735
-0.00128454
-0.000187223
-0.0012257
-0.000172117
-0.00117333
-0.000151967
-0.00112872
-0.000128313
-0.00109192
-0.000104722
-0.00106126
-8.64683e-05
-0.00103232
-8.17072e-05
-0.000997206
-0.000100866
-0.000943878
-0.000156544
-0.000856043
-0.00026174
-0.000715024
-0.00042379
-0.000503912
-0.00063702
-0.00021452
-0.000874002
0.000144315
-0.00108042
0.000538777
-0.00118051
0.000907133
-0.00108878
0.0011765
-0.000777884
0.00128896
-0.000301845
0.00122954
0.000206358
0.00102765
0.000621124
0.000745636
0.000856282
0.000451083
0.000905598
0.000219209
0.000741206
0.000128279
0.000340453
0.000247298
-0.000281624
0.000589667
-0.000957229
0.00112638
-0.00155928
0.00179732
-0.00197693
0.00248662
-0.00203697
0.00307998
-0.00177496
0.00359526
-0.00162746
0.00414994
-0.00188993
0.0044657
-0.00133754
0.00393251
0.000972485
0.00180811
0.00549175
-0.00226154
0.0114289
-0.00775812
0.0162327
-0.0135117
0.0180571
-0.0180693
0.0153754
-0.0197906
0.00767767
-0.0186422
-0.00148519
-0.017159
-0.00318
-0.0138327
0.000780996
0.0151271
-0.117904
0.048953
-0.120661
0.0356264
0.0754144
0.0129391
0.0727661
0.00568637
0.0171456
0.00352079
0.00656899
0.00754073
-0.0120308
0.0106406
-0.00989919
0.0142422
-0.0126818
0.0126355
8.85023e-05
-0.000394693
0.0333971
-0.0242027
0.0698276
-0.0490127
0.0795583
-0.0665782
0.0634939
-0.073644
0.0323469
-0.0700413
-0.00382475
-0.0573515
-0.038465
-0.0435649
-0.0450237
-0.0360916
-0.0261893
-0.0256498
-0.0348534
-0.00845248
-0.0546938
0.00542562
-0.0446279
0.0132506
-0.0246978
0.0151943
-0.00735248
0.0109982
0.0111398
0.00483574
0.0182243
-0.00108717
0.0202472
0.00181069
-0.00694465
-0.0202545
0.0591883
0.0289594
-0.0585181
0.0599738
0.0300662
0.0601291
0.0308704
0.0589699
0.0309012
0.05624
0.0299097
0.0521143
0.0279694
0.0470246
0.0253855
0.0414668
0.0224945
0.035872
0.0195708
0.0305489
0.0168024
0.0256787
0.0142963
0.0213391
0.0120961
0.0175382
0.0102021
0.0142455
0.00858881
0.0114142
0.00722385
0.00899125
0.00606812
0.00692625
0.00509061
0.00517156
0.00425956
0.00368618
0.00355267
0.00243357
0.00294931
0.0013822
0.00243313
0.00050535
0.00199275
-0.0002212
0.00161443
-0.000818767
0.00129072
-0.0013046
0.00101357
-0.00169448
0.000777429
-0.00200218
0.00057688
-0.00223941
0.000408027
-0.00241623
0.000265709
-0.00254655
0.000146904
-0.00263095
4.51902e-05
-0.0026799
-3.65728e-05
-0.00270169
-0.000101599
-0.00269803
-0.000157312
-0.00267478
-0.000198894
-0.00263602
-0.00023059
-0.0025848
-0.000254878
-0.00252394
-0.000272116
-0.00245574
-0.000283977
-0.00238228
-0.000290761
-0.00230513
-0.000294111
-0.00222525
-0.000295631
-0.00214343
-0.000295735
-0.00206025
-0.000295026
-0.00197608
-0.000294064
-0.00189142
-0.000292105
-0.00180699
-0.000288314
-0.001724
-0.000280726
-0.00164441
-0.000266807
-0.00157033
-0.000246204
-0.00150399
-0.000218307
-0.00144708
-0.000185228
-0.00139981
-0.000152005
-0.00136016
-0.000126116
-0.00132278
-0.000119101
-0.00127794
-0.000145705
-0.00121086
-0.000223637
-0.0011015
-0.000371098
-0.000926932
-0.000598366
-0.000666234
-0.000897719
-0.000308862
-0.00123137
0.000135427
-0.00152471
0.000626773
-0.00167185
0.00109091
-0.00155291
0.00143789
-0.00112486
0.00159312
-0.000457068
0.00153368
0.000265797
0.0012935
0.000861316
0.000951463
0.00119832
0.000595737
0.00126133
0.00032258
0.00101437
0.000227943
0.000435089
0.000393592
-0.000447273
0.00083258
-0.00139622
0.00150697
-0.00223366
0.00234471
-0.00281466
0.00320512
-0.00289736
0.00393961
-0.00250943
0.00454855
-0.0022364
0.00515884
-0.0025002
0.00541818
-0.00159687
0.00455093
0.00183975
0.00164472
0.00839797
-0.00361882
0.0166925
-0.0104442
0.0230581
-0.017288
0.024901
-0.0224208
0.0205083
-0.0238383
0.00909511
-0.0219337
-0.00338967
-0.0195803
-0.00553342
-0.0121287
-0.00667087
0.0144461
-0.144479
0.0499213
-0.156136
0.043582
0.0817541
0.0176797
0.0986683
0.00766541
0.0271598
0.00487278
0.00936164
0.00981497
-0.016973
0.0135218
-0.013606
0.0172911
-0.0164511
0.0138114
0.00356832
-0.00380104
0.0510095
-0.033433
0.0994596
-0.0620738
0.108199
-0.0805194
0.0819394
-0.0865047
0.0383322
-0.0807808
-0.0095487
-0.0656707
-0.053575
-0.0498224
-0.0608721
-0.0415267
-0.034485
-0.0294291
-0.0469509
-0.00906756
-0.0750553
0.00744384
-0.0611393
0.0170893
-0.0343432
0.0192107
-0.0094739
0.013644
0.0167065
0.00608105
0.0257873
-0.000600582
0.0269289
0.00330986
-0.0108551
-0.0285441
0.062821
0.0284718
-0.0623335
0.0634658
0.0294214
0.0639884
0.0303478
0.0639011
0.0309885
0.0627781
0.0310327
0.0604206
0.0303269
0.0568842
0.0289219
0.0524039
0.0269747
0.0473021
0.0246726
0.041912
0.0221926
0.0365249
0.0196834
0.0313625
0.0172585
0.0265696
0.014995
0.0222227
0.0129356
0.0183484
0.0110981
0.0149381
0.00947844
0.0119649
0.00806382
0.0093915
0.00683303
0.00717827
0.00576594
0.00528559
0.00484196
0.00367619
0.00404237
0.00231617
0.00335246
0.00117398
0.00275622
0.000221973
0.0022425
-0.000564785
0.00180055
-0.00120847
0.00142175
-0.00172871
0.00109797
-0.00214279
0.000822624
-0.00246592
0.000588898
-0.00271112
0.000391907
-0.00289337
0.000227212
-0.00302013
9.0116e-05
-0.00309726
-2.4471e-05
-0.00314026
-0.000114318
-0.00315061
-0.000188568
-0.00313544
-0.000245797
-0.00309945
-0.000290868
-0.00304699
-0.000324571
-0.00298155
-0.000349409
-0.0029063
-0.000366008
-0.00282371
-0.000376714
-0.00273543
-0.000383919
-0.00264281
-0.000388356
-0.00254691
-0.00039092
-0.00244847
-0.000392503
-0.00234833
-0.000392248
-0.00224753
-0.000389119
-0.00214767
-0.000380588
-0.00205124
-0.000363239
-0.00196088
-0.000336565
-0.00187942
-0.00029977
-0.00180904
-0.000255618
-0.00175012
-0.000210923
-0.00170042
-0.000175826
-0.00165357
-0.000165961
-0.001598
-0.000201276
-0.00151605
-0.000305591
-0.00138385
-0.000503308
-0.00117398
-0.000808239
-0.000861289
-0.00121041
-0.000432504
-0.00166016
0.000102188
-0.0020594
0.000697588
-0.00226725
0.00126734
-0.00212266
0.00170386
-0.00156138
0.00191383
-0.00066703
0.00186392
0.000315704
0.00159102
0.00113423
0.00119145
0.0015979
0.000776176
0.00167661
0.000464338
0.00132621
0.000370029
0.000529397
0.000587621
-0.000664868
0.00112948
-0.00193808
0.00194863
-0.00305281
0.00296187
-0.00382787
0.00400352
-0.003939
0.00488596
-0.00339186
0.00558069
-0.0029311
0.00621472
-0.00313421
0.00635427
-0.0017364
0.00504442
0.00314962
0.00120527
0.0122371
-0.00537774
0.0232755
-0.0135629
0.0312433
-0.02142
0.0327581
-0.0269703
0.0260585
-0.0278516
0.00997646
-0.0250536
-0.00618782
-0.0216856
-0.00890134
-0.0103728
-0.0179832
0.0129771
-0.167829
0.0498756
-0.193035
0.0515759
0.0800542
0.0231382
0.127106
0.0101069
0.040191
0.00650751
0.0129611
0.0123719
-0.0228374
0.0166956
-0.0179297
0.0203076
-0.0200631
0.0142569
0.00961893
-0.00864947
0.073916
-0.0440681
0.134878
-0.0756636
0.139795
-0.0939578
0.100234
-0.0983736
0.0427479
-0.0905923
-0.0173299
-0.0733926
-0.0707747
-0.0556601
-0.0786046
-0.0466109
-0.0435341
-0.0329881
-0.0605737
-0.00968424
-0.0983591
0.00950921
-0.0803328
0.0213338
-0.0461677
0.0236699
-0.01181
0.0165909
0.0237854
0.0076342
0.034744
0.000319328
0.0342437
0.00529547
-0.0158313
-0.0383987
0.066807
0.0280738
-0.0664091
0.0672847
0.0289437
0.0677899
0.0298426
0.0680962
0.0306821
0.0678839
0.0312451
0.0668622
0.0313486
0.0648625
0.0309216
0.0618603
0.0299768
0.0579564
0.0285765
0.0533387
0.0268103
0.048242
0.0247802
0.0429118
0.0225887
0.0375744
0.0203323
0.0324154
0.0180945
0.0275695
0.0159439
0.0231197
0.0139283
0.019106
0.0120776
0.0155358
0.0104033
0.0123957
0.00890607
0.00965972
0.00757789
0.0072953
0.00640662
0.0052678
0.00537964
0.00354179
0.00448191
0.00208365
0.00370058
0.000861689
0.00302288
-0.000153375
0.00243743
-0.000988259
0.00193344
-0.00166698
0.00150155
-0.00221101
0.00113277
-0.00263966
0.000820282
-0.00296901
0.000556376
-0.00321566
0.000336725
-0.00339631
0.000156207
-0.00350967
-1.00929e-06
-0.0035808
-0.000117467
-0.00361082
-0.000215813
-0.00360755
-0.000294135
-0.00357753
-0.000354572
-0.00352609
-0.000400839
-0.00345793
-0.000434181
-0.0033768
-0.000457848
-0.0032854
-0.00047533
-0.00318591
-0.000487846
-0.00308013
-0.000496696
-0.00296936
-0.000503271
-0.00285495
-0.000506668
-0.00273838
-0.000505693
-0.00262174
-0.000497233
-0.00250813
-0.000476846
-0.00240084
-0.000443852
-0.00230338
-0.000397233
-0.00221851
-0.000340495
-0.00214691
-0.000282532
-0.00208611
-0.000236635
-0.00202881
-0.000223267
-0.00196157
-0.000268519
-0.00186381
-0.000403355
-0.00170772
-0.000659408
-0.0014613
-0.00105466
-0.00109493
-0.00157678
-0.000592189
-0.00216289
3.69334e-05
-0.00268852
0.000742924
-0.00297323
0.00142824
-0.00280797
0.0019675
-0.00210062
0.00224669
-0.000946217
0.00221922
0.000343176
0.00192265
0.00143081
0.00147083
0.00204973
0.000999316
0.00214813
0.00065158
0.00167394
0.000560233
0.000620741
0.000832386
-0.000937026
0.0014801
-0.00258579
0.00244784
-0.00402053
0.00364235
-0.00502238
0.00487327
-0.0051699
0.00590926
-0.00442783
0.0066792
-0.00370102
0.00729762
-0.00375262
0.00724051
-0.00167927
0.00536478
0.00502537
0.000433835
0.0171681
-0.00756747
0.0312768
-0.017098
0.0407738
-0.0258562
0.0415163
-0.0316469
0.0318491
-0.0317687
0.0100983
-0.0280025
-0.00995403
-0.0235185
-0.0133853
-0.00943248
-0.032069
0.0114564
-0.188719
0.0506819
-0.232261
0.0596704
0.0710661
0.0292991
0.157477
0.0130952
0.0563947
0.00844809
0.0176083
0.0151932
-0.0295825
0.0201356
-0.0228721
0.0231809
-0.0231084
0.0138127
0.0189872
-0.0149859
0.102715
-0.055897
0.175789
-0.0893726
0.17327
-0.106604
0.117465
-0.109325
0.045469
-0.0998199
-0.0268348
-0.0808958
-0.0896988
-0.0613107
-0.0981897
-0.0514296
-0.0534151
-0.0364027
-0.0756006
-0.0105445
-0.124217
0.0113933
-0.102271
0.0259202
-0.0606946
0.0286017
-0.0144915
0.0199221
0.032465
0.00960515
0.045061
0.0017344
0.0421145
0.00779655
-0.0218934
-0.0497931
0.0711048
0.0277245
-0.0707555
0.0714799
0.0285686
0.0718873
0.0294352
0.0722496
0.0303199
0.0724014
0.0310932
0.072129
0.031621
0.0712289
0.0318216
0.0695528
0.0316528
0.0670303
0.0310989
0.0636722
0.0301685
0.0595612
0.0288911
0.0548386
0.0273113
0.0496858
0.025485
0.0443037
0.0234765
0.0388899
0.0213576
0.0336176
0.0192005
0.0286222
0.017073
0.0239955
0.0150301
0.0197899
0.0131118
0.0160253
0.0113424
0.0126985
0.00973331
0.00979102
0.00828687
0.00727476
0.00699795
0.005117
0.00585836
0.00328294
0.00485726
0.00173775
0.003983
0.000447901
0.00322352
-0.000617771
0.00256714
-0.00148843
0.00200312
-0.00219058
0.00152214
-0.00274735
0.00111302
-0.0031798
0.00076916
-0.00350668
0.000483122
-0.00375247
0.000244819
-0.003915
4.50291e-05
-0.0040207
-0.000110128
-0.00407638
-0.000238449
-0.00408984
-0.000341096
-0.00406932
-0.000421352
-0.00402181
-0.000481701
-0.00395294
-0.000526732
-0.00386687
-0.000561405
-0.00376705
-0.000587661
-0.00365637
-0.000607371
-0.00353699
-0.000622663
-0.00341095
-0.000632711
-0.0032804
-0.000636252
-0.00314801
-0.000629621
-0.00301766
-0.000607199
-0.00289338
-0.000568133
-0.00277946
-0.000511161
-0.00267937
-0.00044059
-0.00259419
-0.000367716
-0.00252136
-0.000309474
-0.0024527
-0.000291927
-0.00237296
-0.000348268
-0.00225866
-0.000517666
-0.00207803
-0.000840038
-0.00179445
-0.00133825
-0.00137362
-0.00199761
-0.00079554
-0.00274097
-6.91782e-05
-0.00341488
0.000752995
-0.0037954
0.00156368
-0.00361865
0.00221992
-0.00275686
0.00258523
-0.00131152
0.00259672
0.000331687
0.0022893
0.00173823
0.00179347
0.00254557
0.00127047
0.00267113
0.000889169
0.00205525
0.000801142
0.000708764
0.00112695
-0.00126284
0.00187971
-0.00333855
0.00299643
-0.00513725
0.00437509
-0.00640102
0.00580117
-0.00659596
0.0069953
-0.00562194
0.00782786
-0.00453356
0.0083831
-0.00430784
0.00803936
-0.00133551
0.00546189
0.00760288
-0.000693196
0.0233232
-0.010203
0.0407866
-0.0210153
0.0515861
-0.0305367
0.0510378
-0.0363847
0.0376971
-0.0355451
0.00925859
-0.0308177
-0.0146814
-0.0251782
-0.0190248
-0.00944155
-0.0478052
0.0104224
-0.208583
0.0530911
-0.27493
0.0679169
0.0562406
0.0361484
0.189246
0.0167162
0.0758268
0.0107239
0.0236006
0.018255
-0.0371137
0.0237958
-0.0284128
0.0257882
-0.0251008
0.0123294
0.032446
-0.0228151
0.137859
-0.0686395
0.221614
-0.102778
0.207408
-0.118357
0.133044
-0.119598
0.0467103
-0.108922
-0.0375111
-0.0886252
-0.109995
-0.0670274
-0.119788
-0.056056
-0.0643865
-0.0397314
-0.0919251
-0.0118719
-0.152077
0.0128406
-0.126983
0.0307446
-0.0785985
0.0340308
-0.0177777
0.0237348
0.042761
0.0121083
0.0566875
0.00376111
0.0504617
0.0108465
-0.0289789
-0.0626616
0.0757149
0.0274086
-0.0753989
0.0760357
0.0282477
0.0763682
0.0291026
0.0766877
0.0300004
0.076925
0.0308559
0.0769662
0.0315798
0.0766691
0.0321186
0.0758877
0.0324342
0.0744942
0.0324924
0.0723965
0.0322662
0.0695481
0.0317395
0.0659538
0.0309057
0.0616713
0.0297675
0.0568094
0.0283383
0.0515206
0.0266463
0.0459849
0.0247361
0.0403899
0.0226679
0.0349089
0.0205112
0.0296844
0.0183364
0.0248196
0.0162072
0.0203786
0.0141743
0.0163917
0.0122736
0.0128631
0.0105264
0.00977884
0.00894264
0.00711283
0.00752341
0.00483205
0.00626387
0.00290016
0.00515532
0.00128002
0.00418699
-6.50266e-05
0.00334782
-0.00116704
0.00262392
-0.00206036
0.00200627
-0.00277301
0.00148184
-0.00333202
0.00104217
-0.00375854
0.000671331
-0.00408134
0.000367799
-0.00430694
0.000115461
-0.00445581
-8.95701e-05
-0.00454473
-0.000252164
-0.00458042
-0.000385661
-0.00457387
-0.000488253
-0.00453358
-0.000567037
-0.00446589
-0.000629099
-0.00437605
-0.000677504
-0.00426854
-0.000714881
-0.00414676
-0.000744444
-0.00401384
-0.000765641
-0.00387279
-0.000777311
-0.00372708
-0.000775334
-0.0035815
-0.000752779
-0.00344099
-0.000708647
-0.00331074
-0.000641409
-0.00319512
-0.000556219
-0.00309574
-0.000467097
-0.00301011
-0.000395115
-0.00292932
-0.000372719
-0.00283641
-0.00044119
-0.00270512
-0.000648964
-0.00249984
-0.00104532
-0.00217931
-0.00165878
-0.00170442
-0.00247251
-0.00105103
-0.00339436
-0.000226145