/*--------------------------------*- C++ -*----------------------------------*\
| =========                 |                                                 |
| \\      /  F ield         | OpenFOAM: The Open Source CFD Toolbox           |
|  \\    /   O peration     | Version:  2412                                  |
|   \\  /    A nd           | Website:  www.openfoam.com                      |
|    \\/     M anipulation  |                                                 |
\*---------------------------------------------------------------------------*/
FoamFile
{
    version     2.0;
    format      ascii;
    arch        "LSB;label=32;scalar=64";
    class       volScalarField;
    location    "0.71";
    object      Co;
}
// * * * * * * * * * * * * * * * * * * * * * * * * * * * * * * * * * * * * * //

dimensions      [0 0 0 0 0 0 0];

internalField   nonuniform List<scalar> 
12600
(
0.314256
0.176416
0.0999501
0.062919
0.0449712
0.0350619
0.0286683
0.0240902
0.0206176
0.0178823
0.0156679
0.0138378
0.0123005
0.0109924
0.00986734
0.00889101
0.00803737
0.00728616
0.00662142
0.00603034
0.00550252
0.00502944
0.004604
0.00422028
0.00387326
0.00355867
0.00327288
0.00301273
0.00277551
0.00255883
0.00236062
0.00217905
0.00201253
0.00185961
0.00171905
0.0015897
0.00147057
0.00136076
0.00125944
0.0011659
0.00107948
0.000999575
0.000925658
0.000857238
0.000793872
0.000735157
0.000680724
0.000630242
0.000583401
0.000539924
0.000499552
0.000462053
0.00042721
0.000394827
0.000364718
0.000336722
0.000310679
0.000286455
0.00026391
0.000242933
0.000223405
0.000205231
0.000188308
0.000172559
0.000157892
0.000144245
0.000131534
0.000119712
0.000108703
9.84695e-05
8.89434e-05
8.00973e-05
7.18676e-05
6.4236e-05
5.71434e-05
5.05791e-05
4.44877e-05
3.88649e-05
3.36589e-05
2.887e-05
2.44499e-05
2.04025e-05
1.66822e-05
1.32962e-05
1.02e-05
7.40424e-06
4.86352e-06
2.59348e-06
1.87818e-06
3.04825e-06
4.52588e-06
5.86003e-06
6.96609e-06
7.9876e-06
8.77494e-06
9.55968e-06
1.00758e-05
1.06954e-05
1.1055e-05
1.15088e-05
1.16034e-05
1.27715e-05
1.21593e-05
1.14433e-05
1.78367e-05
1.67726e-05
1.08107e-05
2.41621e-05
2.26931e-05
1.03783e-05
3.97174e-05
3.89657e-05
3.65391e-05
4.83778e-06
3.69496e-05
3.88184e-05
3.63456e-05
1.88807e-05
1.40838e-05
1.70286e-05
0.477109
0.375959
0.276055
0.20231
0.153059
0.120515
0.0982273
0.0821458
0.069988
0.0604608
0.0527889
0.0464794
0.041203
0.036731
0.0328986
0.0295839
0.0266945
0.0241588
0.0219208
0.0199355
0.0181666
0.0165843
0.0151642
0.0138856
0.0127312
0.0116864
0.0107387
0.00987719
0.00909265
0.00837696
0.00772306
0.00712476
0.00657661
0.00607378
0.00561202
0.00518751
0.00479688
0.0044371
0.00410544
0.00379947
0.00351699
0.00325601
0.00301475
0.00279158
0.00258502
0.00239374
0.00221651
0.00205223
0.00189989
0.00175855
0.00162737
0.00150559
0.00139247
0.00128739
0.00118972
0.00109894
0.00101452
0.00093602
0.000862984
0.000795046
0.000731812
0.000672979
0.000618202
0.000567235
0.00051977
0.000475611
0.000434481
0.000396227
0.000360599
0.00032748
0.000296641
0.000267998
0.000241338
0.000216608
0.000193609
0.000172313
0.000152532
0.000134259
0.000117319
0.00010172
8.7298e-05
7.40732e-05
6.18909e-05
5.07815e-05
4.05955e-05
3.13741e-05
2.29656e-05
1.54263e-05
8.59732e-06
7.24972e-06
1.11636e-05
1.5495e-05
1.91132e-05
2.24516e-05
2.50476e-05
2.76485e-05
2.93477e-05
3.14764e-05
3.26417e-05
3.42013e-05
3.44814e-05
3.91376e-05
3.52295e-05
3.4363e-05
5.80941e-05
5.31639e-05
3.22306e-05
8.36651e-05
7.55036e-05
3.33977e-05
0.000148606
0.000108845
0.000131799
2.4857e-05
0.000137524
0.000110579
0.000116338
7.19739e-05
5.6145e-05
5.61552e-05
0.511589
0.467885
0.396742
0.325069
0.26428
0.216319
0.179508
0.151237
0.12919
0.111653
0.0974321
0.0857004
0.0758797
0.0675566
0.060429
0.0542706
0.0489091
0.0442105
0.0400693
0.036401
0.0331371
0.0302218
0.0276086
0.0252589
0.0231402
0.0212249
0.0194895
0.0179138
0.0164804
0.0151741
0.0139818
0.0128919
0.0118943
0.0109799
0.0101409
0.00937028
0.00866165
0.00800945
0.00740868
0.00685481
0.0063438
0.00587199
0.00543609
0.0050331
0.00466032
0.0043153
0.0039958
0.00369979
0.0034254
0.00317097
0.00293492
0.00271586
0.00251248
0.00232361
0.00214814
0.00198509
0.00183352
0.00169261
0.00156155
0.00143967
0.00132626
0.00122076
0.00112255
0.00103118
0.000946099
0.000866952
0.000793238
0.000724679
0.00066082
0.000601455
0.000546165
0.000494803
0.000446982
0.000402607
0.000361316
0.000323061
0.000287501
0.000254626
0.000224117
0.000195993
0.000169953
0.00014604
0.000123971
0.000103806
8.52735e-05
6.84523e-05
5.30705e-05
3.92307e-05
2.66449e-05
1.64438e-05
1.62579e-05
2.39243e-05
3.03592e-05
3.62934e-05
4.09248e-05
4.5603e-05
4.86002e-05
5.25665e-05
5.45687e-05
5.74708e-05
5.78569e-05
6.78149e-05
5.7584e-05
5.88031e-05
0.000106981
9.74761e-05
5.17127e-05
0.000163398
0.000146283
5.68406e-05
0.000309484
0.000180242
0.000273532
6.48787e-05
0.000284479
0.000174401
0.000218432
0.00015468
0.000121126
0.000103861
0.503564
0.490352
0.452526
0.402238
0.349947
0.301356
0.258919
0.223072
0.193224
0.168432
0.147756
0.130387
0.115672
0.103102
0.0922797
0.0828948
0.0747043
0.0675152
0.0611725
0.055551
0.0505482
0.0460795
0.0420747
0.0384749
0.0352302
0.0322985
0.0296435
0.0272342
0.0250437
0.0230488
0.0212289
0.0195664
0.0180455
0.0166525
0.015375
0.0142023
0.0131245
0.0121332
0.0112206
0.0103796
0.00960417
0.00888857
0.00822776
0.00761715
0.00705258
0.00653029
0.00604683
0.00559912
0.00518429
0.00479978
0.00444319
0.00411239
0.00380538
0.00352036
0.00325565
0.00300976
0.00278124
0.00256886
0.00237137
0.00218775
0.00201692
0.00185805
0.00171018
0.00157262
0.00144456
0.00132542
0.00121447
0.00111128
0.00101516
0.000925796
0.000842556
0.000765211
0.000693181
0.000626315
0.000564072
0.000506371
0.000452704
0.000403047
0.000356925
0.000314359
0.000274904
0.000238614
0.000205073
0.000174363
0.000146088
0.000120355
9.67721e-05
7.54815e-05
5.60702e-05
3.87402e-05
2.75667e-05
3.02439e-05
3.98841e-05
4.87461e-05
5.57161e-05
6.27606e-05
6.72501e-05
7.33833e-05
7.63133e-05
8.08012e-05
8.13624e-05
9.79529e-05
7.88977e-05
8.53507e-05
0.000161625
0.000148144
7.4363e-05
0.000257446
0.000232166
7.53569e-05
0.000510047
0.000260846
0.000449198
0.000127236
0.000464917
0.000222989
0.000338938
0.000262417
0.000205495
0.000159135
0.487414
0.482647
0.464498
0.434671
0.398111
0.359116
0.320775
0.284987
0.252669
0.224066
0.199033
0.177236
0.158275
0.141758
0.12733
0.114681
0.103551
0.0937203
0.0850048
0.0772515
0.0703316
0.0641368
0.0585755
0.0535701
0.0490542
0.0449708
0.0412711
0.0379125
0.0348584
0.0320765
0.0295389
0.0272208
0.0251005
0.0231588
0.0213785
0.0197445
0.0182434
0.016863
0.0155926
0.0144223
0.0133436
0.0123484
0.0114297
0.0105811
0.00979677
0.0090714
0.00840019
0.0077788
0.00720324
0.00666991
0.00617545
0.0057169
0.00529143
0.00489657
0.00452993
0.00418944
0.00387308
0.00357913
0.00330585
0.00305182
0.00281552
0.00259579
0.00239131
0.00220111
0.00202405
0.00185935
0.00170597
0.00156331
0.00143043
0.00130686
0.00119176
0.00108478
0.000985128
0.000892587
0.000806414
0.000726483
0.0006521
0.00058322
0.000519195
0.000460041
0.000405155
0.000354597
0.000307808
0.000264885
0.000225299
0.000189182
0.000156018
0.000125982
9.85362e-05
7.39268e-05
5.15767e-05
4.0943e-05
4.66702e-05
5.88701e-05
6.85522e-05
7.83136e-05
8.45509e-05
9.32186e-05
9.72045e-05
0.000103569
0.000104467
0.000128611
9.81989e-05
0.000113564
0.000219416
0.000203156
0.000104897
0.000360341
0.000329556
9.48556e-05
0.000737719
0.000351655
0.000646433
0.000212017
0.000665492
0.000271157
0.000473584
0.000390529
0.000305863
0.000221
0.473253
0.467606
0.456707
0.438846
0.41514
0.387461
0.357699
0.327487
0.298049
0.270194
0.24438
0.220805
0.199483
0.180318
0.163152
0.1478
0.134074
0.121796
0.110799
0.100934
0.0920709
0.0840928
0.0768986
0.0703995
0.0645181
0.0591869
0.0543465
0.0499452
0.0459372
0.0422824
0.0389453
0.0358947
0.0331027
0.0305446
0.0281984
0.0260445
0.0240653
0.022245
0.0205696
0.0190263
0.0176037
0.0162914
0.01508
0.0139612
0.0129272
0.0119711
0.0110866
0.0102678
0.00950954
0.00880704
0.00815586
0.00755208
0.00699197
0.00647223
0.00598973
0.00554173
0.00512555
0.00473891
0.00437951
0.00404546
0.00373478
0.00344591
0.00317711
0.00292712
0.0026944
0.00247792
0.00227634
0.00208882
0.00191416
0.00175172
0.00160039
0.0014597
0.00132863
0.00120686
0.00109343
0.000988157
0.000890146
0.000799313
0.000714826
0.000636683
0.00056411
0.000497168
0.00043514
0.000378135
0.000325481
0.000277331
0.000233036
0.000192801
0.000155959
0.000122801
9.26097e-05
6.57935e-05
5.54476e-05
6.55981e-05
7.84451e-05
9.13447e-05
9.96522e-05
0.000111266
0.000116479
0.000125066
0.000126527
0.0001588
0.000114512
0.000142905
0.000277912
0.000260261
0.000141458
0.000466997
0.000434383
0.00013388
0.000979944
0.000453433
0.0008556
0.000319081
0.000872707
0.000332211
0.000617749
0.000534502
0.000419059
0.000288626
0.461993
0.453692
0.443877
0.430839
0.414302
0.394709
0.37279
0.34939
0.325327
0.301298
0.277858
0.25541
0.234221
0.214444
0.196142
0.179314
0.163911
0.149857
0.137059
0.12542
0.11484
0.105224
0.0964813
0.0885283
0.0812891
0.0746943
0.0686815
0.0631942
0.058182
0.0535996
0.0494061
0.0455653
0.0420442
0.0388137
0.0358472
0.0331211
0.0306139
0.0283064
0.0261812
0.0242226
0.0224163
0.0207495
0.0192105
0.0177888
0.0164746
0.0152592
0.0141347
0.0130937
0.0121296
0.0112364
0.0104085
0.00964081
0.00892869
0.00826793
0.00765455
0.00708505
0.00655603
0.00606459
0.0056078
0.00518326
0.00478843
0.00442133
0.00407976
0.00376208
0.00346636
0.00319127
0.00293509
0.00269678
0.00247478
0.00226828
0.00207588
0.00189696
0.00173023
0.00157528
0.0014309
0.00129682
0.00117193
0.0010561
0.00094829
0.000848476
0.000755696
0.000670002
0.000590507
0.000517326
0.000449633
0.000387598
0.00033043
0.000278362
0.000230589
0.00018745
0.000148072
0.000112939
8.09286e-05
7.19365e-05
8.42283e-05
0.000100766
0.000111545
0.000126568
0.000133234
0.00014445
0.000146746
0.000187456
0.00012675
0.000172546
0.000334858
0.00031705
0.000183023
0.000572819
0.000542322
0.000193685
0.00122463
0.000565237
0.0010662
0.00044436
0.00107335
0.000400684
0.00076648
0.000690035
0.000542205
0.000361349
0.45269
0.442321
0.431749
0.419922
0.406374
0.391063
0.37417
0.355999
0.336925
0.317332
0.297579
0.277988
0.258832
0.240325
0.222633
0.205865
0.190092
0.175342
0.161617
0.148894
0.137136
0.126294
0.116313
0.107135
0.0987023
0.0909581
0.0838476
0.0773189
0.0713238
0.0658174
0.0607581
0.0561079
0.0518318
0.047898
0.0442773
0.040943
0.037871
0.0350392
0.0324275
0.0300176
0.0277929
0.025738
0.0238392
0.0220837
0.0204601
0.0189578
0.017567
0.0162792
0.015086
0.0139803
0.012955
0.0120042
0.0111221
0.0103034
0.00954335
0.00883758
0.00818192
0.00757277
0.00700655
0.00648025
0.00599076
0.00553562
0.0051121
0.00471817
0.00435144
0.00401026
0.00369252
0.00339688
0.00312145
0.00286519
0.00262639
0.00240425
0.0021972
0.00200469
0.00182525
0.00165853
0.00150316
0.00135895
0.00122464
0.00110017
0.00098437
0.000877282
0.000777831
0.000686133
0.000601194
0.000523198
0.0004512
0.000385464
0.00032503
0.000270294
0.000220207
0.000175364
0.000134416
9.85763e-05
8.79042e-05
0.000105308
0.000119054
0.000138005
0.000146419
0.000160737
0.000164169
0.000213435
0.00013582
0.000201388
0.000388202
0.000371048
0.000228309
0.000673802
0.000649007
0.000264659
0.00146064
0.000684584
0.00126922
0.000581984
0.00125502
0.000474479
0.000914729
0.000853144
0.000672787
0.000438687
0.444659
0.432962
0.421476
0.409617
0.397021
0.383554
0.369229
0.354143
0.338437
0.32228
0.305841
0.28929
0.27279
0.256493
0.240534
0.225031
0.210082
0.195765
0.182135
0.169229
0.157065
0.145647
0.134965
0.125001
0.115727
0.107112
0.0991211
0.091718
0.0848656
0.0785272
0.0726671
0.0672509
0.062246
0.0576215
0.0533486
0.0494003
0.0457515
0.0423788
0.0392607
0.0363774
0.0337104
0.031243
0.0289594
0.0268453
0.0248877
0.0230744
0.0213941
0.0198368
0.0183929
0.0170539
0.0158116
0.0146589
0.0135889
0.0125955
0.0116728
0.0108157
0.0100193
0.00927911
0.00859091
0.00795109
0.00735589
0.00680232
0.00628713
0.00580782
0.00536154
0.00494625
0.00455942
0.00419941
0.00386394
0.00355174
0.00326072
0.00298992
0.00273745
0.00250259
0.00228359
0.00207999
0.00189017
0.00171384
0.00154952
0.00139709
0.00125515
0.00112374
0.00100156
0.000888739
0.00078409
0.000687815
0.000598795
0.000517331
0.00044229
0.000374137
0.000311622
0.000255478
0.000204077
0.000158836
0.000116917
0.000107372
0.000120804
0.000144266
0.000154804
0.000172767
0.000177661
0.000235499
0.000142654
0.000228085
0.000436086
0.000419796
0.000275399
0.000766568
0.000750259
0.000343585
0.00167823
0.000807775
0.00145713
0.000724411
0.00140667
0.000552769
0.00106851
0.00103046
0.000808734
0.000520338
0.437559
0.42501
0.412821
0.400658
0.388268
0.375512
0.362359
0.34884
0.335021
0.320981
0.3068
0.292554
0.278319
0.264165
0.250164
0.236383
0.222887
0.209737
0.196991
0.184695
0.172892
0.161612
0.150876
0.140697
0.13108
0.12202
0.113508
0.10553
0.0980664
0.091096
0.0845954
0.0785401
0.072905
0.0676652
0.0627961
0.0582737
0.0540749
0.0501778
0.0465614
0.043206
0.040093
0.0372049
0.0345254
0.0320395
0.0297328
0.0275923
0.0256056
0.0237616
0.0220496
0.02046
0.0189837
0.0176125
0.0163385
0.0151547
0.0140544
0.0130317
0.0120807
0.0111964
0.0103738
0.00960866
0.00889657
0.008234
0.00761713
0.007043
0.00650825
0.00601046
0.00554663
0.0051148
0.00471228
0.00433752
0.00398808
0.00366278
0.00335936
0.00307698
0.00281354
0.00256848
0.00233986
0.00212735
0.00192916
0.00174514
0.00157364
0.00141466
0.0012667
0.00112986
0.00100277
0.000885631
0.000777144
0.000677651
0.000585821
0.000502207
0.000425325
0.000356081
0.000292514
0.000236358
0.000184258
0.000140787
0.00012154
0.000143809
0.000156961
0.00017918
0.000185885
0.000252279
0.000145625
0.000251069
0.0004768
0.000460919
0.000321855
0.000848323
0.000842259
0.000426005
0.00186942
0.000930272
0.00162398
0.000862961
0.00151911
0.000634026
0.00124983
0.00124353
0.000948472
0.000606173
0.431212
0.418089
0.405398
0.392933
0.38052
0.368036
0.355427
0.342693
0.329867
0.316998
0.304139
0.291335
0.278623
0.266038
0.253608
0.241358
0.229313
0.217498
0.205942
0.194671
0.183715
0.173101
0.162854
0.152997
0.143548
0.134519
0.125919
0.117752
0.110018
0.102711
0.0958234
0.0893436
0.0832584
0.0775524
0.0722093
0.0672119
0.0625423
0.0581829
0.054116
0.0503244
0.0467911
0.0435001
0.0404357
0.0375831
0.0349282
0.0324578
0.0301593
0.028021
0.0260316
0.0241809
0.0224592
0.0208575
0.0193673
0.0179807
0.0166904
0.0154897
0.0143721
0.013332
0.0123635
0.011462
0.0106224
0.00984058
0.00911226
0.00843399
0.00780188
0.00721313
0.00666426
0.00615298
0.00567617
0.00523202
0.00481766
0.00443171
0.00407155
0.00373615
0.00342308
0.00313165
0.0028596
0.0026065
0.00237028
0.00215073
0.00194594
0.00175587
0.00157877
0.00141475
0.00126219
0.00112135
0.000990687
0.000870607
0.000759555
0.000658194
0.000564769
0.000480398
0.000402731
0.000333896
0.000269878
0.000216048
0.000162123
0.000147043
0.000151227
0.000178375
0.000187281
0.000262252
0.000142848
0.000268588
0.000508709
0.000492159
0.000364852
0.000916731
0.000921668
0.000506551
0.002028
0.00104711
0.00176531
0.000988477
0.00158539
0.000716183
0.00142728
0.00146375
0.00109094
0.000696215
0.425487
0.411965
0.398916
0.386203
0.373707
0.361326
0.348997
0.336695
0.324429
0.312227
0.300126
0.288162
0.276365
0.264761
0.253365
0.242191
0.231242
0.220523
0.210037
0.199789
0.189785
0.180034
0.170546
0.161334
0.152411
0.143791
0.135484
0.127501
0.11985
0.112538
0.105566
0.0989346
0.0926422
0.0866836
0.081052
0.075739
0.0707344
0.0660272
0.0616053
0.0574562
0.053567
0.0499247
0.0465162
0.0433287
0.0403496
0.0375668
0.0349683
0.032543
0.0302799
0.0281688
0.0261998
0.0243638
0.0226518
0.0210559
0.0195681
0.0181813
0.0168885
0.0156835
0.0145602
0.0135132
0.0125369
0.011627
0.0107785
0.00998756
0.00924981
0.00856209
0.00792046
0.00732232
0.0067641
0.00624374
0.00575795
0.00530515
0.00488231
0.00448825
0.00412016
0.00377725
0.00345688
0.00315858
0.00287992
0.00262066
0.00237858
0.00215363
0.00194378
0.00174914
0.00156785
0.00140019
0.00124438
0.00110089
0.000967929
0.000846284
0.000733888
0.000632122
0.000538178
0.000454665
0.00037679
0.000310934
0.000245212
0.000198599
0.000156454
0.000168466
0.000180038
0.000263707
0.000132714
0.000278733
0.000530142
0.000511384
0.000401327
0.000969713
0.000985679
0.000579335
0.00214937
0.00115327
0.00188158
0.00109533
0.00160097
0.000796774
0.00159765
0.00168859
0.00123558
0.000790616
0.420292
0.406485
0.393178
0.380273
0.367686
0.355335
0.343159
0.331122
0.319213
0.307437
0.295815
0.284372
0.273135
0.262125
0.251362
0.240856
0.230612
0.220632
0.210911
0.201443
0.192222
0.183241
0.174496
0.165986
0.157709
0.149669
0.14187
0.134315
0.127012
0.119966
0.113182
0.106665
0.100419
0.0944452
0.0887442
0.0833147
0.078154
0.0732577
0.0686205
0.0642355
0.0600952
0.0561912
0.0525144
0.0490557
0.0458052
0.0427532
0.0398898
0.0372054
0.0346903
0.0323352
0.030131
0.028069
0.0261405
0.0243378
0.0226529
0.0210786
0.0196078
0.0182342
0.0169512
0.0157532
0.0146344
0.0135901
0.0126147
0.0117044
0.0108542
0.0100608
0.00931965
0.00862804
0.00798192
0.00737903
0.00681567
0.00629007
0.0057988
0.00534054
0.00491211
0.00451258
0.00413898
0.00379075
0.00346512
0.00316182
0.00287829
0.00261449
0.00236806
0.00213916
0.00192564
0.00172781
0.00154364
0.0013737
0.00121588
0.00107116
0.000937118
0.000815437
0.000702789
0.00060235
0.000508441
0.000428597
0.000349114
0.000291587
0.000223381
0.000182855
0.000162055
0.000254713
0.00011321
0.000279464
0.00053926
0.000516555
0.000428134
0.00100519
0.00103199
0.000638359
0.00223014
0.00124393
0.00198392
0.00118793
0.00156373
0.000873082
0.00175808
0.00191578
0.00138227
0.000889613
0.415552
0.401539
0.388044
0.374994
0.362324
0.349972
0.337882
0.326016
0.314349
0.302872
0.29159
0.280515
0.269663
0.259051
0.248695
0.238611
0.228806
0.219284
0.210046
0.201086
0.192395
0.183965
0.175785
0.167845
0.160134
0.152646
0.145375
0.138315
0.131465
0.124825
0.118394
0.112175
0.10617
0.10038
0.0948084
0.0894565
0.0843254
0.079415
0.0747246
0.0702525
0.0659959
0.061951
0.0581134
0.0544777
0.0510382
0.0477883
0.0447211
0.0418295
0.0391062
0.0365437
0.0341343
0.0318707
0.0297454
0.0277512
0.0258808
0.0241277
0.0224849
0.0209463
0.0195055
0.0181569
0.0168946
0.0157138
0.0146089
0.0135756
0.012609
0.0117053
0.01086
0.01007
0.00933089
0.00864033
0.00799421
0.00739066
0.00682585
0.00629837
0.00580465
0.0053437
0.00491216
0.00450944
0.0041324
0.00378075
0.00345161
0.00314492
0.00285802
0.00259109
0.00234169
0.00211019
0.00189428
0.00169461
0.0015088
0.00133799
0.00117938
0.00103503
0.000900997
0.000781132
0.000668759
0.000572702
0.000477281
0.000406936
0.000324928
0.000271965
0.000204069
0.000250122
8.17946e-05
0.000268661
0.000533905
0.00050566
0.000442183
0.00102084
0.00105873
0.000677926
0.00226748
0.00131471
0.00206668
0.0012559
0.00147357
0.00103087
0.00199252
0.00214323
0.00153118
0.000993481
0.411204
0.397042
0.383412
0.370253
0.357516
0.34515
0.333108
0.321352
0.309855
0.298598
0.287572
0.276777
0.26622
0.25591
0.245857
0.236073
0.226568
0.217348
0.208416
0.199773
0.191414
0.183332
0.175519
0.167964
0.160655
0.153581
0.14673
0.140092
0.133659
0.127422
0.121375
0.115515
0.109837
0.104341
0.0990241
0.0938872
0.0889302
0.0841537
0.0795578
0.0751429
0.0709086
0.0668542
0.0629784
0.0592791
0.0557539
0.0523997
0.0492125
0.0461884
0.0433225
0.0406099
0.0380452
0.0356229
0.0333372
0.0311825
0.0291527
0.0272422
0.0254449
0.0237554
0.0221679
0.0206773
0.0192778
0.0179649
0.0167332
0.0155784
0.0144956
0.0134811
0.0125301
0.0116396
0.0108049
0.0100237
0.00929144
0.00860634
0.0079642
0.00736359
0.00680058
0.00627416
0.00578062
0.00531935
0.00488687
0.00448292
0.00410422
0.00375079
0.00341963
0.00311098
0.00282206
0.00255335
0.00230222
0.00206947
0.00185236
0.0016523
0.00146603
0.00129602
0.00113771
0.000995684
0.000862173
0.000747413
0.000633633
0.000548256
0.000450245
0.000385685
0.000304204
0.000317838
8.77757e-05
0.000260158
0.000511418
0.00047663
0.000440609
0.00101384
0.00106428
0.000693041
0.00225866
0.00136194
0.00213064
0.00129709
0.00133172
0.00119161
0.0022319
0.00236892
0.00168261
0.00110246
0.407199
0.39293
0.3792
0.365962
0.353173
0.340791
0.328777
0.317095
0.305718
0.294622
0.283791
0.273217
0.262897
0.252833
0.243028
0.233487
0.224218
0.215227
0.206517
0.198092
0.189951
0.182092
0.174508
0.167192
0.160136
0.153328
0.146759
0.140416
0.134288
0.128365
0.122636
0.117092
0.111726
0.10653
0.101498
0.0966274
0.0919137
0.0873547
0.0829487
0.0786945
0.0745912
0.0706383
0.0668353
0.0631814
0.0596758
0.0563173
0.0531044
0.0500352
0.0471073
0.0443181
0.0416645
0.0391431
0.0367501
0.0344816
0.0323333
0.0303011
0.0283802
0.0265663
0.0248546
0.0232407
0.0217198
0.0202877
0.0189396
0.0176717
0.0164791
0.0153586
0.0143053
0.0133164
0.0123873
0.0115156
0.0106969
0.00992916
0.00920813
0.00853241
0.00789778
0.0073033
0.00674493
0.00622213
0.00573108
0.00527158
0.00484004
0.00443654
0.00405774
0.00370397
0.00337215
0.00306286
0.00277316
0.00250401
0.00225233
0.00201977
0.00180264
0.00160389
0.00141824
0.00125111
0.00109358
0.000957385
0.00082258
0.000719679
0.000603226
0.000525036
0.000427689
0.000433617
0.00018121
0.000329461
0.000506078
0.000450596
0.000443121
0.000980632
0.00104717
0.00067989
0.00220072
0.00138295
0.00217542
0.0013658
0.00127104
0.00141988
0.00247141
0.0025908
0.00183676
0.00121668
0.403495
0.389148
0.375348
0.362053
0.349226
0.336831
0.324835
0.313204
0.301913
0.290936
0.280254
0.269854
0.259726
0.249865
0.240269
0.230937
0.221871
0.213075
0.204551
0.196303
0.188329
0.180631
0.173205
0.166047
0.15915
0.152509
0.146113
0.139954
0.134021
0.128305
0.122793
0.117476
0.112345
0.107389
0.102599
0.0979691
0.0934912
0.0891597
0.0849695
0.0809168
0.076998
0.0732107
0.0695527
0.0660225
0.0626186
0.0593401
0.0561858
0.0531548
0.0502457
0.0474573
0.0447879
0.042236
0.0397991
0.0374754
0.0352619
0.0331562
0.0311548
0.0292551
0.0274532
0.0257462
0.02413
0.0226016
0.0211566
0.0197922
0.018504
0.0172892
0.0161434
0.0150642
0.014047
0.0130899
0.0121883
0.0113407
0.0105426
0.00979272
0.00908674
0.00842392
0.00779992
0.00721439
0.00666319
0.0061463
0.00565978
0.00520386
0.00477491
0.00437337
0.00399587
0.00364312
0.00331189
0.00300331
0.00271398
0.00244585
0.00219475
0.00196415
0.00174806
0.0015528
0.00136822
0.00120768
0.00104898
0.00092582
0.000788241
0.000694087
0.000578311
0.000573557
0.000299817
0.000448531
0.000596577
0.000520622
0.000507632
0.000948645
0.00107039
0.000697882
0.00209038
0.00145443
0.00227772
0.00145304
0.0012702
0.00169489
0.00271003
0.00280669
0.00199344
0.001336
0.400054
0.385654
0.371805
0.35847
0.345618
0.333215
0.321232
0.309639
0.298411
0.287524
0.276957
0.266694
0.25672
0.247027
0.237606
0.228454
0.219567
0.210945
0.202588
0.194496
0.18667
0.179109
0.171812
0.164776
0.157996
0.151469
0.145187
0.139144
0.133332
0.127741
0.122364
0.11719
0.11221
0.107415
0.102794
0.0983405
0.0940443
0.089898
0.0858942
0.0820264
0.0782887
0.0746761
0.0711841
0.0678092
0.064548
0.0613981
0.0583572
0.0554238
0.052596
0.0498726
0.0472523
0.0447339
0.0423159
0.0399972
0.037776
0.0356509
0.0336199
0.0316813
0.0298324
0.0280716
0.0263958
0.0248031
0.02329
0.0218547
0.0204933
0.0192041
0.0179829
0.0168283
0.0157358
0.0147041
0.0137289
0.012809
0.01194
0.011121
0.0103477
0.00961958
0.00893213
0.00828534
0.00767481
0.00710077
0.00655902
0.00605003
0.00556987
0.00511918
0.00469432
0.00429619
0.00392127
0.00357093
0.00324145
0.00293508
0.00264724
0.00238194
0.00213247
0.00190611
0.00169145
0.0015036
0.00131801
0.00117168
0.00101008
0.000897371
0.000760374
0.000741745
0.000446897
0.000590031
0.000725523
0.000624692
0.000629354
0.00101133
0.00115599
0.000798825
0.00203282
0.00155715
0.00240784
0.00153116
0.00126541
0.00197671
0.00294662
0.00301426
0.00215188
0.00145991
0.396847
0.382412
0.36853
0.35517
0.342302
0.329896
0.317925
0.306362
0.295184
0.284366
0.273889
0.263733
0.253883
0.244327
0.235054
0.226055
0.217324
0.208857
0.200651
0.192704
0.185014
0.177581
0.170402
0.163475
0.156797
0.150363
0.14417
0.138212
0.132482
0.126975
0.121681
0.116595
0.111707
0.107009
0.102494
0.0981512
0.0939738
0.0899533
0.0860816
0.0823512
0.0787549
0.0752862
0.0719389
0.0687075
0.065587
0.062573
0.0596616
0.0568497
0.054134
0.0515125
0.0489827
0.046543
0.0441916
0.0419272
0.0397483
0.0376537
0.0356419
0.0337118
0.0318616
0.0300904
0.0283957
0.0267769
0.025231
0.0237572
0.0223524
0.0210158
0.0197437
0.0185355
0.0173873
0.0162984
0.0152649
0.0142861
0.0133579
0.01248
0.0116479
0.0108618
0.010117
0.00941407
0.00874832
0.0081204
0.00752591
0.00696564
0.00643542
0.00593618
0.00546406
0.00502018
0.00460081
0.00420756
0.00383645
0.00349008
0.00316347
0.00286119
0.00257587
0.0023158
0.00206829
0.00185027
0.00163485
0.00146241
0.00127379
0.00113975
0.000978594
0.000942586
0.000626437
0.000758406
0.000878217
0.000750387
0.000767617
0.00112466
0.00129554
0.000912547
0.00209024
0.00178422
0.00254602
0.00160453
0.00125916
0.00226238
0.00317956
0.00321095
0.0023105
0.0015874
0.393848
0.379391
0.36549
0.352115
0.33924
0.326837
0.314878
0.303341
0.292203
0.281441
0.271034
0.260965
0.251215
0.241771
0.23262
0.223751
0.215155
0.206824
0.198753
0.190939
0.183376
0.176063
0.168996
0.162173
0.155591
0.149245
0.143133
0.137249
0.131588
0.126145
0.120914
0.115888
0.11106
0.106424
0.101972
0.0976965
0.0935904
0.0896462
0.0858563
0.0822135
0.0787105
0.0753405
0.0720968
0.068973
0.0659631
0.0630616
0.0602634
0.0575638
0.0549585
0.0524439
0.0500162
0.047673
0.0454111
0.0432287
0.0411233
0.0390936
0.0371374
0.0352539
0.033441
0.0316982
0.0300232
0.0284158
0.0268736
0.0253963
0.0239813
0.0226284
0.0213347
0.0201001
0.0189212
0.0177982
0.0167272
0.0157087
0.0147385
0.013817
0.01294
0.0121082
0.011317
0.0105673
0.00985451
0.0091798
0.0085386
0.00793211
0.00735603
0.00681162
0.00629487
0.00580718
0.00534469
0.00490924
0.00449671
0.00411001
0.00374389
0.00340346
0.00308075
0.0027851
0.00250257
0.00225202
0.00200413
0.00180286
0.00158431
0.00142609
0.00123788
0.00118071
0.000842721
0.000958448
0.00105752
0.000901967
0.00092769
0.00125153
0.00145699
0.00103499
0.00214003
0.00203202
0.00269314
0.00167841
0.00125403
0.00254931
0.00340648
0.00339395
0.00246686
0.00171681
0.391034
0.376566
0.362656
0.349276
0.3364
0.324003
0.312059
0.300546
0.289442
0.278726
0.268377
0.258378
0.24871
0.239358
0.230308
0.221549
0.213067
0.204856
0.196905
0.18921
0.181764
0.174563
0.167602
0.160879
0.15439
0.14813
0.142096
0.136284
0.130688
0.125305
0.120129
0.115153
0.110373
0.105783
0.101375
0.0971437
0.0930825
0.0891846
0.0854436
0.0818527
0.0784054
0.0750952
0.0719157
0.0688608
0.0659242
0.0631003
0.0603834
0.0577684
0.0552499
0.0528238
0.0504852
0.0482306
0.046056
0.0439585
0.0419347
0.0399824
0.0380987
0.0362822
0.0345301
0.0328416
0.0312142
0.0296475
0.028139
0.0266887
0.0252938
0.0239548
0.0226688
0.0214362
0.0202538
0.0191225
0.0180387
0.0170034
0.0160125
0.0150675
0.0141639
0.0133032
0.0124808
0.0116984
0.0109513
0.0102411
0.00956331
0.00891959
0.00830554
0.00772283
0.00716736
0.00664086
0.0061394
0.0056651
0.00521375
0.0047886
0.00438418
0.00400619
0.00364608
0.00331433
0.00299574
0.00271123
0.00242897
0.00219674
0.0019458
0.00176072
0.00154286
0.00146069
0.00109991
0.00119527
0.00126641
0.00108418
0.00111556
0.00139196
0.00164325
0.00117335
0.00218362
0.00230203
0.0028505
0.00175818
0.00125267
0.00283478
0.003624
0.00356014
0.00261772
0.00184577
0.388385
0.373915
0.360004
0.346625
0.333755
0.321368
0.309441
0.297951
0.286878
0.276201
0.265901
0.25596
0.24636
0.237084
0.228119
0.219452
0.211069
0.202959
0.195114
0.187525
0.180184
0.173086
0.166226
0.159598
0.153198
0.147021
0.141065
0.135324
0.129793
0.124469
0.119346
0.11442
0.109684
0.105134
0.100764
0.0965682
0.0925406
0.0886754
0.0849667
0.0814087
0.0779952
0.0747205
0.0715787
0.0685642
0.0656712
0.0628943
0.0602278
0.0576669
0.0552061
0.052841
0.0505663
0.0483783
0.0462721
0.0442445
0.0422912
0.0404094
0.0385952
0.0368468
0.0351605
0.033535
0.0319671
0.0304559
0.0289985
0.0275946
0.0262411
0.0249385
0.0236834
0.0224768
0.0213151
0.0201997
0.0191268
0.018098
0.0171091
0.0161622
0.0152527
0.0143829
0.013548
0.0127503
0.0119851
0.0112547
0.0105543
0.00988624
0.00924599
0.00863564
0.00805109
0.00749435
0.00696154
0.00645499
0.00597055
0.00551172
0.00507294
0.00466045
0.00426524
0.00389892
0.00354501
0.00322673
0.00290954
0.00264533
0.0023605
0.0021464
0.001897
0.00178642
0.00140131
0.00147389
0.00150787
0.00130225
0.00133805
0.00154679
0.00185778
0.00133611
0.0022263
0.00259504
0.00301959
0.00184807
0.00125808
0.00311541
0.00382751
0.00370602
0.00275926
0.0019713
0.385885
0.37142
0.357513
0.344142
0.331282
0.318909
0.307
0.295533
0.284489
0.273847
0.26359
0.253698
0.244155
0.234944
0.226051
0.21746
0.209161
0.201139
0.193386
0.18589
0.178644
0.17164
0.164871
0.158332
0.152017
0.145922
0.14004
0.134369
0.128904
0.123639
0.11857
0.113692
0.109001
0.104492
0.100158
0.0959958
0.0919988
0.0881618
0.0844795
0.0809465
0.0775572
0.0743065
0.0711887
0.0681989
0.0653317
0.0625821
0.0599449
0.0574155
0.0549887
0.0526603
0.0504253
0.0482797
0.0462188
0.0442391
0.0423361
0.0405067
0.0387467
0.0370537
0.0354234
0.0338542
0.0323422
0.0308862
0.0294824
0.0281303
0.0268263
0.0255704
0.024359
0.0231927
0.0220677
0.0209854
0.0199415
0.018938
0.0179705
0.0170411
0.0161454
0.0152857
0.0144573
0.0136628
0.0128975
0.012164
0.0114576
0.0107808
0.0101292
0.0095051
0.00890448
0.00832958
0.00777654
0.0072479
0.00673955
0.00625522
0.00578932
0.00534857
0.0049235
0.00452696
0.00414104
0.00379154
0.00344096
0.00314552
0.00282705
0.00258283
0.00230112
0.0021601
0.00174823
0.00179813
0.00178471
0.00156142
0.00160189
0.00171855
0.00210426
0.00153112
0.0022774
0.00291032
0.00320147
0.00194965
0.00127374
0.00338643
0.00401109
0.00382768
0.00288723
0.00208987
0.383518
0.369063
0.355167
0.341808
0.328962
0.316605
0.304715
0.293272
0.282256
0.271647
0.261428
0.251579
0.242085
0.23293
0.224097
0.215573
0.207345
0.199399
0.191724
0.184311
0.177148
0.170229
0.163544
0.157087
0.150852
0.144833
0.139024
0.133421
0.128019
0.122814
0.117799
0.112972
0.108326
0.103857
0.0995613
0.0954325
0.0914659
0.0876567
0.0839995
0.0804895
0.0771215
0.0738906
0.0707916