/*--------------------------------*- C++ -*----------------------------------*\
| =========                 |                                                 |
| \\      /  F ield         | OpenFOAM: The Open Source CFD Toolbox           |
|  \\    /   O peration     | Version:  2412                                  |
|   \\  /    A nd           | Website:  www.openfoam.com                      |
|    \\/     M anipulation  |                                                 |
\*---------------------------------------------------------------------------*/
FoamFile
{
    version     2.0;
    format      ascii;
    arch        "LSB;label=32;scalar=64";
    class       volVectorField;
    location    "1.42";
    object      ddt0(U);
}
// * * * * * * * * * * * * * * * * * * * * * * * * * * * * * * * * * * * * * //

dimensions      [0 1 -2 0 0 0 0];

internalField   nonuniform List<vector> 
12600
(
(0.0220932 -2.24319e-22 -0.00259332)
(-0.00737595 -3.0874e-22 0.000525436)
(-0.00751227 -3.3005e-22 0.000962272)
(-0.00887004 0 0.000796121)
(-0.00980898 -3.49529e-22 0.000838639)
(-0.0100177 -3.56885e-22 0.000812823)
(-0.00997772 0 0.000751353)
(-0.00974302 0 0.000888898)
(-0.00948845 1.45385e-21 0.00100665)
(-0.00932286 0 0.00109336)
(-0.00923661 -7.23293e-22 0.00116004)
(-0.00919203 -7.18212e-22 0.00121046)
(-0.00915879 7.11813e-22 0.00124985)
(-0.00912922 0 0.00128538)
(-0.00911361 6.9396e-22 0.00132347)
(-0.00912467 0 0.00136727)
(-0.00916286 -2.6922e-21 0.00141556)
(-0.0092103 0 0.00146364)
(-0.00923558 1.2918e-21 0.00150549)
(-0.00920561 1.26331e-21 0.00153609)
(-0.00909674 -1.2301e-21 0.00155264)
(-0.00889939 -1.54623e-24 0.00155434)
(-0.00861687 0 0.00154171)
(-0.00826428 2.22267e-21 0.00151656)
(-0.00786978 0 0.00148257)
(-0.00747408 0 0.00144526)
(-0.00712336 1.93869e-21 0.00141071)
(-0.00685661 0 0.00138357)
(-0.0066941 2.22611e-25 0.00136567)
(-0.00663265 -1.65762e-21 0.00135589)
(-0.00664995 -1.57825e-21 0.00135154)
(-0.00671323 -1.5085e-21 0.00134974)
(-0.00678767 1.44767e-21 0.00134822)
(-0.00683956 2.78709e-21 0.00134483)
(-0.00683789 2.68572e-21 0.00133703)
(-0.00675379 -2.58404e-21 0.00132111)
(-0.00656607 0 0.00129321)
(-0.00626428 2.35395e-21 0.00124967)
(-0.00585854 0 0.00118943)
(-0.00537595 -2.07341e-21 0.00111352)
(-0.00486652 0 0.00102728)
(-0.00438629 -2.20815e-24 0.000937516)
(-0.00400452 0 0.000855239)
(-0.00377438 -1.25394e-24 0.000789762)
(-0.00374971 -2.89036e-21 0.000753095)
(-0.00394026 2.8044e-21 0.000750012)
(-0.00435033 -2.79291e-21 0.000786572)
(-0.00491915 0 0.000856316)
(-0.00560027 0 0.000956851)
(-0.00627529 -3.06854e-21 0.00106992)
(-0.0068838 -6.34795e-21 0.00118852)
(-0.00728886 -6.46974e-21 0.001287)
(-0.0074725 1.40597e-24 0.00136213)
(-0.00732487 -6.18792e-21 0.00138813)
(-0.00692209 0 0.00137521)
(-0.00620568 5.01404e-21 0.00130353)
(-0.00536451 4.11182e-21 0.00120324)
(-0.00436975 3.09947e-21 0.00106066)
(-0.00349014 0 0.000924252)
(-0.00265745 0 0.000777538)
(-0.00215491 0 0.000677074)
(-0.00180734 2.03001e-21 0.000590372)
(-0.00187931 0 0.000572752)
(-0.00209402 0 0.000572504)
(-0.00272234 -1.11396e-20 0.000644905)
(-0.00345122 0 0.000730717)
(-0.00455352 0 0.000886394)
(-0.00572822 0 0.00105794)
(-0.00712874 9.72167e-21 0.00128179)
(-0.00853197 -7.52472e-21 0.00152033)
(-0.00979738 -5.58606e-21 0.00175108)
(-0.0110411 7.997e-24 0.00199675)
(-0.0116355 2.21335e-21 0.00213339)
(-0.0125364 0 0.00234009)
(-0.012206 -1.1567e-21 0.00231234)
(-0.0130869 0 0.00251612)
(-0.0118827 0 0.00230837)
(-0.013398 0 0.00261536)
(-0.0113391 -3.42847e-24 0.0022203)
(-0.0140896 -4.88249e-21 0.00274471)
(-0.0109909 -5.21609e-21 0.00213353)
(-0.0152432 4.3651e-21 0.00293847)
(-0.0109005 4.03148e-21 0.00208525)
(-0.0164342 0 0.00314007)
(-0.0110652 0 0.00209728)
(-0.0168862 -6.56726e-22 0.00322141)
(-0.0115966 3.56011e-21 0.00220066)
(-0.0155702 4.85772e-21 0.00297735)
(-0.0127665 -2.38011e-21 0.00245494)
(-0.0118551 0 0.00229819)
(-0.0154484 1.39306e-20 0.0030108)
(-0.00242973 1.77773e-21 0.00052119)
(-0.0214598 1.49905e-20 0.0041838)
(0.0159378 5.36406e-21 -0.00299426)
(-0.0330924 0 0.00647513)
(0.0315875 0 -0.00604491)
(-0.0300629 0 0.0060618)
(0.0385385 0 -0.00692124)
(0.00874504 0 -0.000100092)
(-0.0441656 0 0.00911861)
(0.0956368 1.41239e-19 -0.0181096)
(0.0100416 4.01972e-19 -0.00242513)
(0.286514 -6.16639e-20 -0.0553129)
(-0.682201 0 0.12928)
(0.479753 0 -0.102865)
(0.759288 0 -0.140546)
(-1.32697 9.3012e-20 0.248075)
(0.703173 -3.80281e-18 -0.146511)
(0.0369895 2.17424e-19 -0.001487)
(-0.476712 0 0.0791534)
(1.56177 -1.37513e-18 -0.289665)
(-1.11224 0 0.220035)
(0.781941 -1.58781e-18 -0.172673)
(2.58964 -5.55585e-19 -0.481386)
(-0.642397 1.41299e-18 0.120159)
(0.754972 1.4169e-19 -0.140697)
(-0.547448 -1.57164e-18 0.11173)
(-3.19132 -1.6823e-21 0.611385)
(-2.01419 -8.13004e-20 0.371554)
(-0.324016 0 0.0545674)
(0.0198596 2.26558e-22 -0.00739163)
(0.00288238 0 0.00117747)
(-0.00552527 3.33983e-22 0.00264913)
(-0.0127395 0 0.00178762)
(-0.0174869 3.54096e-22 0.00148416)
(-0.019855 7.15168e-22 0.00139554)
(-0.020877 3.62268e-22 0.00138907)
(-0.0212023 0 0.00168408)
(-0.021402 -3.26848e-24 0.0020045)
(-0.0216279 7.32386e-22 0.0022821)
(-0.0219021 -7.29389e-22 0.00250547)
(-0.0221832 -7.24625e-22 0.00267879)
(-0.0224377 7.18489e-22 0.00282313)
(-0.0226756 -7.11091e-22 0.00296497)
(-0.0229368 -1.40653e-21 0.00312282)
(-0.0232526 0 0.00329986)
(-0.0236162 3.15772e-24 0.00348486)
(-0.0239756 -1.33574e-21 0.00365924)
(-0.0242522 -1.31054e-21 0.00380599)
(-0.0243711 0 0.00391576)
(-0.0242854 0 0.00398733)
(-0.0239822 -1.20928e-21 0.00402402)
(-0.0234761 0 0.00403067)
(-0.0228047 -1.12623e-21 0.00401434)
(-0.0220318 2.15596e-21 0.00398598)
(-0.0212454 0 0.00395915)
(-0.0205402 -1.96101e-21 0.00394513)
(-0.0199885 0 0.00394787)
(-0.0196177 1.76826e-21 0.00396292)
(-0.0194095 3.35603e-21 0.00398091)
(-0.0193183 3.19468e-21 0.00399345)
(-0.0192941 1.52688e-21 0.00399665)
(-0.0192966 -1.4649e-21 0.0039912)
(-0.019293 -5.63741e-21 0.00397845)
(-0.0192523 -5.43109e-21 0.0039578)
(-0.019135 0 0.00392399)
(-0.0189023 0 0.00387002)
(-0.0185175 8.86368e-25 0.00378725)
(-0.0179704 0 0.00367189)
(-0.0172686 2.0932e-21 0.00352187)
(-0.016462 0 0.00334503)
(-0.0156099 3.577e-21 0.00315011)
(-0.0148164 0 0.00295901)
(-0.0141642 3.07544e-21 0.0027881)
(-0.0137729 0 0.00266671)
(-0.0136821 -2.82385e-21 0.0026042)
(-0.0139625 0 0.00262296)
(-0.0145449 0 0.00270981)
(-0.015432 2.95688e-21 0.00287492)
(-0.0164391 0 0.00307799)
(-0.0175423 0 0.00332285)
(-0.0184767 0 0.00354597)
(-0.0192714 6.44548e-21 0.00376037)
(-0.0196366 1.24075e-20 0.00388933)
(-0.019745 0 0.00397541)
(-0.0193213 0 0.00393861)
(-0.0187433 -4.13306e-21 0.0038686)
(-0.0177389 -3.09932e-21 0.00368334)
(-0.0168858 0 0.00352428)
(-0.0158334 0 0.00329196)
(-0.0152877 0 0.00316686)
(-0.014716 0 0.00300608)
(-0.0148873 3.53077e-21 0.00301317)
(-0.0150711 -4.65256e-21 0.0029909)
(-0.0160836 1.10551e-20 0.00316342)
(-0.0171032 0 0.00329865)
(-0.0189249 0 0.00363682)
(-0.0208082 0 0.0039454)
(-0.0232385 5.5552e-24 0.00442878)
(-0.0258424 7.45276e-21 0.00490032)
(-0.0282744 5.52759e-21 0.00542252)
(-0.0312207 -6.777e-21 0.00597899)
(-0.0327207 7.48016e-24 0.00634053)
(-0.0358409 1.12867e-21 0.00692061)
(-0.0355908 1.14021e-21 0.00693506)
(-0.0394154 0 0.00762057)
(-0.036832 0 0.00716571)
(-0.042551 0 0.00818877)
(-0.0369613 -4.89287e-21 0.00714273)
(-0.0459304 0 0.00878336)
(-0.0364756 0 0.00699369)
(-0.0495488 -4.27219e-21 0.00943728)
(-0.0357068 -3.94146e-21 0.00681101)
(-0.0525733 0 0.0100088)
(-0.0352636 0 0.0067201)
(-0.0533204 0 0.0101821)
(-0.0361885 -3.47946e-21 0.00690101)
(-0.0492164 4.54453e-24 0.00940991)
(-0.0398289 -2.3137e-21 0.00764837)
(-0.0384518 -2.79115e-21 0.00735884)
(-0.0484717 -1.34967e-20 0.00929332)
(-0.0111566 1.76607e-21 0.00209147)
(-0.067062 -2.89968e-20 0.012829)
(0.0427156 0 -0.00839971)
(-0.102511 0 0.0199563)
(0.092884 0 -0.0186368)
(-0.095799 0 0.0192049)
(0.111702 -4.97986e-21 -0.0224656)
(0.000399713 0 0.00315647)
(-0.139124 0 0.0258172)
(0.26751 1.34627e-19 -0.0534543)
(0.0071 -1.9252e-19 -0.00551373)
(0.749049 1.18879e-19 -0.139112)
(-1.94761 4.19041e-19 0.374723)
(1.54168 0 -0.336967)
(1.92146 0 -0.342309)
(-3.74467 0 0.720461)
(2.17104 1.81071e-18 -0.465721)
(-0.184053 -2.06924e-19 0.0755336)
(-1.09579 0 0.175353)
(4.39526 2.61606e-18 -0.829951)
(-3.11143 -2.0839e-18 0.634973)
(2.85041 3.00718e-18 -0.63288)
(7.07749 0 -1.32587)
(-2.13667 0 0.439589)
(2.14291 1.32726e-19 -0.41584)
(-2.00428 0 0.447084)
(-9.1771 8.45316e-19 1.79197)
(-5.4641 8.23816e-20 1.00244)
(-0.736626 0 0.111751)
(0.0201257 0 0.000950353)
(0.0110991 0 0.0051857)
(0.00256758 3.17354e-22 0.00531942)
(-0.00604675 0 0.00328535)
(-0.0135453 0 0.00166424)
(-0.0188964 -3.3985e-22 0.000841463)
(-0.0222759 -3.43078e-22 0.000674888)
(-0.0243716 0 0.000932033)
(-0.0258551 -1.48333e-24 0.00139916)
(-0.0270813 -6.93834e-22 0.00189063)
(-0.0281913 1.38122e-21 0.00230753)
(-0.0291941 6.86575e-22 0.00263954)
(-0.0300809 -6.11399e-25 0.00293073)
(-0.0308884 6.73808e-22 0.00323404)
(-0.031686 6.6557e-22 0.00357724)
(-0.0325256 -6.55454e-22 0.00395193)
(-0.0333981 1.29019e-21 0.00432396)
(-0.0342272 1.2658e-21 0.00465434)
(-0.0348987 0 0.00491829)
(-0.0353079 0 0.00511288)
(-0.0353954 -1.17476e-21 0.00525108)
(-0.0351546 -1.13986e-21 0.00534992)
(-0.0346191 0 0.00542407)
(-0.0338518 0 0.00548828)
(-0.0329465 -2.04289e-21 0.00556058)
(-0.0320256 0 0.00565785)
(-0.0312148 3.71077e-21 0.00578581)
(-0.030602 -1.75971e-21 0.00593292)
(-0.0302075 0 0.00607479)
(-0.0299896 -1.58912e-21 0.00618646)
(-0.0298792 -1.51271e-21 0.00625497)
(-0.0298161 0 0.00628262)
(-0.0297666 1.38494e-21 0.00628242)
(-0.0297134 2.6692e-21 0.00626746)
(-0.0296416 1.70153e-24 0.00624574)
(-0.0295203 0 0.00621575)
(-0.0293132 0 0.00617226)
(-0.0289768 -2.25291e-21 0.00610484)
(-0.028493 0 0.00600785)
(-0.0278535 0 0.00587258)
(-0.0270996 0 0.00570261)
(-0.0262743 0 0.00549831)
(-0.0254864 0 0.00528188)
(-0.0248118 0 0.00506496)
(-0.0243963 0 0.00488603)
(-0.024275 2.67496e-21 0.00475187)
(-0.0245588 -2.65778e-21 0.00470251)
(-0.0251608 0 0.00472165)
(-0.0261376 -2.79749e-21 0.00484637)
(-0.0272639 0 0.00502691)
(-0.0285866 0 0.00530041)
(-0.0297631 6.12421e-21 0.00557849)
(-0.0309174 0 0.00591219)
(-0.0316323 -5.86609e-21 0.00617652)
(-0.032211 5.4117e-21 0.00645901)
(-0.0321932 0 0.00660395)
(-0.0321434 3.90665e-21 0.00676164)
(-0.0315418 0 0.00674772)
(-0.0312312 0 0.00679362)
(-0.0305471 0 0.00667408)
(-0.0305512 -1.85532e-22 0.00670149)
(-0.030325 -1.85327e-21 0.00658305)
(-0.031079 -1.81577e-23 0.00670024)
(-0.0316322 8.77035e-21 0.00667356)
(-0.0332945 -1.38321e-23 0.00694295)
(-0.0347745 0 0.0070565)
(-0.0373319 0 0.00749623)
(-0.0398567 1.03451e-20 0.00779)
(-0.04309 -2.03725e-25 0.0083906)
(-0.0466287 0 0.00889716)
(-0.0498285 0 0.00957109)
(-0.0541467 3.20132e-21 0.0102791)
(-0.0561483 6.98549e-24 0.0108177)
(-0.0612993 2.64462e-24 0.0117171)
(-0.0608842 0 0.0118427)
(-0.0677506 0 0.0130445)
(-0.0637244 3.20481e-21 0.0124731)
(-0.0740347 -3.55979e-21 0.0142733)
(-0.0649019 0 0.0126925)
(-0.080702 0 0.0154976)
(-0.0647401 0 0.0125736)
(-0.0874461 0 0.0167017)
(-0.0636543 0 0.0122448)
(-0.092882 0 0.0176782)
(-0.0627867 0 0.011969)
(-0.0943329 0 0.0179602)
(-0.0641722 3.28793e-21 0.012138)
(-0.0876375 -2.22563e-21 0.0167159)
(-0.0704363 2.17453e-21 0.0133397)
(-0.0697137 2.62281e-21 0.0133337)
(-0.0850695 1.26812e-20 0.0159892)
(-0.024494 -1.65887e-21 0.00471396)
(-0.116239 1.36169e-20 0.021747)
(0.0644383 0 -0.0124851)
(-0.176422 0 0.0340431)
(0.151548 0 -0.0310769)
(-0.169588 0 0.034084)
(0.183678 4.67174e-21 -0.0391672)
(-0.0248969 0 0.0125178)
(-0.220942 0 0.0380495)
(0.443831 -1.2623e-19 -0.0887061)
(0.000879008 0 -0.00840388)
(1.13597 -5.61121e-20 -0.184888)
(-3.10159 -3.92691e-19 0.588024)
(2.67905 0 -0.61871)
(2.75878 0 -0.415071)
(-5.93928 0 1.13768)
(3.69777 1.69265e-18 -0.82713)
(-0.657833 0 0.251045)
(-1.43155 -3.80106e-19 0.159574)
(6.96968 1.84265e-21 -1.29091)
(-4.93541 1.95032e-18 1.01701)
(5.29653 -2.80526e-18 -1.26599)
(10.9056 0 -1.95985)
(-3.80782 -1.24956e-18 0.829484)
(3.40393 -1.24148e-19 -0.663737)
(-3.80194 -1.38476e-18 0.942382)
(-14.7381 0 2.8872)
(-8.40205 -7.70217e-20 1.44284)
(-0.931672 0 0.0832028)
(0.0198681 0 0.00578498)
(0.0148287 0 0.00751782)
(0.00914891 -3.00029e-22 0.00742809)
(0.00276969 0 0.00544054)
(-0.0043175 3.14093e-22 0.00301544)
(-0.0109335 -6.37332e-22 0.00108625)
(-0.0163384 0 7.04348e-05)
(-0.0204652 6.50852e-22 -6.61007e-05)
(-0.0236511 -6.55019e-22 0.00036416)
(-0.0262688 -6.54265e-22 0.000984584)
(-0.0285471 -6.52638e-22 0.00155981)
(-0.0305625 6.48117e-22 0.00203484)
(-0.0323404 -6.43264e-22 0.00246731)
(-0.0339395 1.27283e-21 0.00293598)
(-0.0354564 0 0.0034754)
(-0.0369705 1.23938e-21 0.00405853)
(-0.0384871 0 0.00462009)
(-0.0399219 0 0.00509622)
(-0.0411351 0 0.00545585)
(-0.0419937 -1.13818e-21 0.00570878)
(-0.0424224 4.02302e-24 0.0058901)
(-0.0424197 4.44632e-24 0.0060368)
(-0.0420405 -1.0377e-21 0.0061765)
(-0.0413749 0 0.00633227)
(-0.0405426 0 0.00652824)
(-0.0396911 0 0.00678191)
(-0.0389693 -3.49628e-21 0.00708876)
(-0.0384779 7.31263e-24 0.00741584)
(-0.0382314 0 0.00771419)
(-0.0381655 0 0.00794223)
(-0.0381862 0 0.00808491)
(-0.0382209 0 0.00815454)
(-0.0382412 -2.61641e-21 0.0081787)
(-0.0382446 0 0.00818195)
(-0.0382333 2.42969e-21 0.00817876)
(-0.0381874 0 0.00816909)
(-0.038078 0 0.00814825)
(-0.0378617 2.13276e-21 0.00810435)
(-0.0375216 0 0.00803142)
(-0.0370412 0 0.0079167)
(-0.0364602 -1.74499e-21 0.00776278)
(-0.0358089 3.2208e-21 0.00756507)
(-0.035201 0 0.00734899)
(-0.0347005 2.76775e-21 0.00712294)
(-0.03447 0 0.00693418)
(-0.0345274 -5.05972e-21 0.00678474)
(-0.0350111 -2.78535e-24 0.00672888)
(-0.035804 0 0.00674297)
(-0.0370078 0 0.00688653)
(-0.03835 2.74105e-21 0.00709562)
(-0.0399483 5.66448e-21 0.00743678)
(-0.0413862 -1.15541e-20 0.00779334)
(-0.0428908 0 0.00825289)
(-0.0439299 -5.52471e-21 0.00864177)
(-0.0449521 -5.10844e-21 0.00909516)
(-0.0453269 -4.49169e-21 0.00938501)
(-0.0458188 -3.69383e-21 0.00972887)
(-0.0456718 0 0.00984565)
(-0.0459974 0 0.0100644)
(-0.0458199 -1.6931e-21 0.0100381)
(-0.0465472 3.2678e-22 0.010216)
(-0.0468734 1.74795e-21 0.0101543)
(-0.0484293 -2.20174e-23 0.0104138)
(-0.0495862 -4.12717e-21 0.0104273)
(-0.0521175 -4.90014e-21 0.0108515)
(-0.054279 0 0.0110079)
(-0.0577512 0 0.0116237)
(-0.061095 -9.74903e-21 0.0119775)
(-0.0652398 -1.71394e-20 0.0127756)
(-0.0698317 0 0.0133855)
(-0.0738264 -4.9411e-21 0.0142762)
(-0.079591 -3.03451e-21 0.0151733)
(-0.0820559 -1.95405e-21 0.0159193)
(-0.0893155 -2.01375e-21 0.0171335)
(-0.0886598 0 0.0173681)
(-0.0987127 0 0.019055)
(-0.0931443 -3.01576e-21 0.0183533)
(-0.108317 6.68593e-21 0.0209016)
(-0.0954926 4.31023e-21 0.0187782)
(-0.11858 0 0.0227511)
(-0.095842 0 0.018686)
(-0.128893 0 0.0245635)
(-0.094658 0 0.0182388)
(-0.137269 0 0.026059)
(-0.0935745 0 0.0178102)
(-0.139947 5.82473e-22 0.0265865)
(-0.0956276 9.9742e-24 0.0179833)
(-0.131065 2.09081e-21 0.0249935)
(-0.104826 0 0.0196316)
(-0.106047 2.47866e-21 0.0203389)
(-0.12563 -5.95312e-21 0.0231443)
(-0.0430742 0 0.00844837)
(-0.169457 1.27882e-20 0.030908)
(0.0801105 -4.76249e-21 -0.0152196)
(-0.255099 0 0.0486803)
(0.206188 0 -0.042884)
(-0.252401 0 0.0509244)
(0.253293 4.36123e-21 -0.0560675)
(-0.0687435 0 0.02828)
(-0.287235 0 0.0439998)
(0.618566 -1.17432e-19 -0.125578)
(-0.0116898 1.69231e-19 -0.0136459)
(1.45486 0 -0.208454)
(-4.11673 0 0.768868)
(3.85216 0 -0.935489)
(3.28358 0 -0.39676)
(-7.853 0 1.49947)
(5.2543 -1.71403e-21 -1.22048)
(-1.34495 0 0.467708)
(-1.50062 3.55695e-19 0.0573932)
(9.25367 -1.14862e-18 -1.69204)
(-6.56427 0 1.3764)
(7.98553 3.85888e-21 -2.00265)
(14.0168 0 -2.43488)
(-5.58378 9.17119e-22 1.25924)
(4.4965 0 -0.879178)
(-5.89788 1.29472e-18 1.55468)
(-19.7205 0 3.89533)
(-10.8258 -7.72917e-20 1.74638)
(-0.909215 0 -0.00867889)
(0.0191277 0 0.0072885)
(0.015986 0 0.00804059)
(0.0124577 0 0.00815901)
(0.00868696 0 0.00677563)
(0.00367896 -2.96499e-22 0.00449575)
(-0.00212063 -4.79168e-25 0.00212375)
(-0.00785717 0 0.000378504)
(-0.0130009 -6.14335e-22 -0.000372605)
(-0.0174418 0 -0.000278697)
(-0.021298 1.23452e-21 0.000230389)
(-0.0247221 0 0.000804757)
(-0.0277936 -6.11874e-22 0.00131576)
(-0.030541 0 0.00180974)
(-0.0330149 -1.20175e-21 0.00238315)
(-0.0353159 5.93102e-22 0.00307677)
(-0.0375509 -1.16915e-21 0.00384165)
(-0.0397591 1.14786e-21 0.00457339)
(-0.0418731 1.1244e-21 0.00517469)
(-0.0437425 0 0.0056038)
(-0.045203 1.07475e-21 0.00588483)
(-0.0461482 1.04544e-21 0.0060811)
(-0.0465654 2.02212e-21 0.00625625)
(-0.0465228 9.7987e-22 0.00645434)
(-0.0461352 0 0.00670623)
(-0.0455435 0 0.00703962)
(-0.0449108 0 0.0074701)
(-0.0444045 1.64675e-21 0.00798031)
(-0.0441451 1.56443e-21 0.00851242)
(-0.044156 0 0.00898927)
(-0.0443604 0 0.00935081)
(-0.0446397 -1.33768e-21 0.00958121)
(-0.044902 0 0.00970592)
(-0.0451169 3.44932e-24 0.00976972)
(-0.0452932 2.37203e-21 0.00980891)
(-0.0454486 -2.28916e-21 0.00984294)
(-0.0455735 0 0.00987124)
(-0.0456463 0 0.00988866)
(-0.0456243 -2.01294e-21 0.00988182)
(-0.0454933 0 0.0098457)
(-0.0452316 0 0.00976491)
(-0.0448811 1.64668e-21 0.00964321)
(-0.0444627 -3.03916e-21 0.00947231)
(-0.0440983 0 0.00928221)
(-0.0438411 -2.61133e-21 0.00907705)
(-0.0438724 0 0.00891188)
(-0.0441914 2.38902e-21 0.00878022)
(-0.0449644 2.37101e-21 0.00874878)
(-0.0460406 0 0.00878245)
(-0.0475666 2.48626e-21 0.00896346)
(-0.0492177 -2.58497e-21 0.00921059)
(-0.0511825 -1.06713e-20 0.00962325)
(-0.0529643 5.44164e-21 0.0100543)
(-0.0548954 -5.39216e-21 0.0106349)
(-0.0563232 1.24737e-23 0.0111402)
(-0.0578464 0 0.0117635)
(-0.0586616 4.23359e-21 0.0121992)
(-0.0597409 3.48123e-21 0.0127446)
(-0.060091 -2.63144e-21 0.0130111)
(-0.0610999 1.7066e-21 0.0134393)
(-0.0614812 1.59515e-21 0.0135413)
(-0.0629942 -1.42974e-22 0.0139197)
(-0.0639477 1.60165e-21 0.0139531)
(-0.0663913 -2.9248e-21 0.0144047)
(-0.0682553 0 0.0144865)
(-0.0717634 0 0.0151074)
(-0.0747364 -4.88506e-21 0.0153207)
(-0.0792439 0 0.0161491)
(-0.0835559 0 0.0165652)
(-0.0887315 8.06236e-21 0.0175926)
(-0.0945403 0 0.0182922)
(-0.099436 4.64881e-21 0.0194244)
(-0.106828 5.71845e-21 0.0204797)
(-0.109839 0 0.0214596)
(-0.119415 9.49431e-22 0.0229553)
(-0.118563 0 0.0233474)
(-0.132058 0 0.0254998)
(-0.124935 2.81191e-21 0.0247448)
(-0.145311 -3.13608e-21 0.0280358)
(-0.128697 -1.49342e-23 0.0254579)
(-0.159563 0 0.030606)
(-0.129809 0 0.0254656)
(-0.173929 0 0.0331316)
(-0.128789 3.2727e-21 0.0249415)
(-0.185819 -2.06955e-21 0.0352586)
(-0.127756 0 0.0243593)
(-0.190329 -1.09718e-21 0.0361516)
(-0.130769 -1.46226e-21 0.0244958)
(-0.179787 -3.92071e-21 0.0343217)
(-0.143302 1.93598e-21 0.0265381)
(-0.147873 -4.65306e-21 0.0284914)
(-0.170598 0 0.0307848)
(-0.0675642 0 0.0134756)
(-0.227302 -1.19909e-20 0.0403301)
(0.088679 4.46492e-21 -0.0162712)
(-0.338983 3.67508e-20 0.0637685)
(0.255172 0 -0.0539628)
(-0.345169 0 0.069763)
(0.319235 -4.08597e-21 -0.0736338)
(-0.132575 -7.89124e-20 0.0507412)
(-0.336655 0 0.0425002)
(0.782911 1.09978e-19 -0.161887)
(-0.034353 -1.58466e-19 -0.0186932)
(1.71324 0 -0.203603)
(-4.98102 0 0.907522)
(5.01451 0 -1.27528)
(3.52449 0 -0.272171)
(-9.44264 0 1.78109)
(6.79455 -1.4808e-18 -1.63261)
(-2.1798 0 0.750003)
(-1.31804 0 -0.13128)
(11.225 0 -2.0094)
(-7.9719 -1.71718e-18 1.6873)
(10.7646 1.22155e-18 -2.82503)
(16.3875 0 -2.69677)
(-7.37718 1.09163e-18 1.73476)
(5.3728 0 -1.05167)
(-8.22182 1.20678e-18 2.29691)
(-23.9818 0 4.75353)
(-12.7724 7.22217e-20 1.88572)
(-0.676309 0 -0.174111)
(0.0182889 2.5812e-22 0.00796666)
(0.0159663 2.70065e-22 0.00809023)
(0.0132455 -2.76722e-22 0.00808688)
(0.0110261 -2.79926e-22 0.00713911)
(0.0079876 0 0.00534084)
(0.00381806 2.83886e-22 0.00316893)
(-0.000999064 0 0.00123484)
(-0.00590584 -5.78821e-22 4.3759e-05)
(-0.0105907 -5.80879e-22 -0.000283246)
(-0.0149586 -1.16255e-21 -4.9264e-05)
(-0.0190224 5.79235e-22 0.000374889)
(-0.0228083 -5.7591e-22 0.000800575)
(-0.0263093 0 0.00124894)
(-0.0295241 0 0.00182941)
(-0.0325105 -5.59169e-22 0.00259772)
(-0.0353743 8.32275e-25 0.00349126)
(-0.038194 -2.27136e-24 0.00436387)
(-0.0409474 -3.09616e-24 0.00507306)
(-0.0435005 0 0.00555395)
(-0.0456642 0 0.00583921)
(-0.0472831 0 0.00602346)
(-0.0483022 -1.89459e-21 0.00620499)
(-0.048778 -9.11002e-22 0.00645014)
(-0.0488382 0 0.00679726)
(-0.0486382 0 0.00727352)
(-0.0483461 -1.60481e-21 0.00788971)
(-0.0481397 0 0.00861549)
(-0.0481678 0 0.00936796)
(-0.0484865 0 0.010039)
(-0.0490289 0 0.0105465)
(-0.0496569 7.56387e-24 0.0108727)
(-0.0502487 0 0.0110585)
(-0.050759 4.25542e-24 0.0111692)
(-0.0512006 -2.23599e-21 0.0112545)
(-0.0516064 2.72612e-24 0.0113382)
(-0.0519781 0 0.0114173)
(-0.0523024 0 0.0114846)
(-0.0525366 0 0.0115247)
(-0.0526712 0 0.0115339)
(-0.0526796 0 0.011495)
(-0.0526084 0 0.0114141)
(-0.0524689 0 0.0112799)
(-0.052393 2.67046e-21 0.0111284)
(-0.0524213 2.48526e-21 0.010959)
(-0.0527558 0 0.010835)
(-0.0533754 2.26717e-21 0.0107389)
(-0.0544783 0 0.0107504)
(-0.0558779 0 0.0108195)
(-0.0577701 -4.68295e-21 0.011053)
(-0.0597742 0 0.0113486)
(-0.0621552 5.01943e-21 0.0118427)
(-0.06433 0 0.0123529)
(-0.0667428 1.01381e-20 0.0130607)
(-0.0686118 1.56626e-23 0.013684)
(-0.0706947 0 0.0144834)
(-0.0720046 0 0.0150674)
(-0.0737328 0 0.0158255)
(-0.0746358 4.9536e-21 0.0162489)
(-0.0763923 -3.21667e-21 0.0169055)
(-0.077391 -1.53433e-21 0.0171478)
(-0.079758 9.38329e-23 0.0177523)
(-0.0814037 -2.99132e-21 0.0178939)
(-0.0848102 -2.70744e-21 0.0185662)
(-0.0874579 0 0.0187263)
(-0.0920278 0 0.0195738)
(-0.0959064 1.79255e-23 0.0198511)
(-0.101544 0 0.0209258)
(-0.106939 0 0.0214094)
(-0.113245 7.55667e-21 0.0227067)
(-0.120411 0 0.0234986)
(-0.126309 0 0.024919)
(-0.135503 -5.38978e-21 0.0261293)
(-0.139158 1.75145e-21 0.027397)
(-0.151273 0 0.0291649)
(-0.150308 0 0.0297791)
(-0.167534 0 0.0323845)
(-0.158898 -2.64079e-21 0.0316532)
(-0.184864 0 0.0356736)
(-0.164429 -7.56064e-21 0.0327236)
(-0.203602 3.69911e-21 0.0390414)
(-0.16667 0 0.0328937)
(-0.222612 0 0.0423761)
(-0.166189 -3.07103e-21 0.0323393)
(-0.238689 4.03796e-24 0.0452565)
(-0.165581 -1.67123e-21 0.0316249)
(-0.245744 5.16269e-22 0.0466619)
(-0.16995 -1.38841e-21 0.0317194)
(-0.234194 1.83671e-21 0.0447573)
(-0.1863 -1.81511e-21 0.0341212)
(-0.195711 2.01567e-24 0.0379301)
(-0.220565 0 0.0389475)
(-0.0987393 -1.41825e-21 0.0199403)
(-0.290491 0 0.0501402)
(0.088999 0 -0.0154239)
(-0.428592 -3.44285e-20 0.0793373)
(0.296814 0 -0.0637626)
(-0.448739 0 0.0906614)
(0.380424 0 -0.0911611)
(-0.217602 7.38872e-20 0.0793993)
(-0.367981 0 0.0333708)
(0.926807 1.02184e-19 -0.195007)
(-0.0692515 0 -0.0225089)
(1.91639 0 -0.175781)
(-5.68947 0 1.0046)
(6.12016 0 -1.62689)
(3.51702 0 -0.0546859)
(-10.6747 8.83709e-20 1.97705)
(8.26054 -1.38054e-18 -2.05067)
(-3.10168 1.61348e-19 1.07521)
(-0.90432 0 -0.394765)
(12.8598 0 -2.23908)
(-9.12044 3.21545e-18 1.94957)
(13.4855 0 -3.70145)
(17.9992 -3.73827e-19 -2.74556)
(-9.10973 0 2.21074)
(5.98573 -9.84314e-20 -1.16875)
(-10.6954 -1.12773e-18 3.13666)
(-27.3779 0 5.44897)
(-14.2934 7.26759e-20 1.88385)
(-0.237136 0 -0.409415)
(0.0173095 -2.43078e-22 0.00833846)
(0.0153977 -5.12312e-22 0.00806076)
(0.0127989 2.60659e-22 0.00778556)
(0.0111467 -2.37519e-24 0.0070209)
(0.00925032 -2.67566e-22 0.00565784)
(0.00643012 0 0.00388744)
(0.00279791 0 0.00211881)
(-0.00125239 5.45056e-22 0.000797145)
(-0.00541655 1.09398e-21 0.000163685)
(-0.00953809 3.28923e-25 0.000116593)
(-0.013556 -5.45389e-22 0.000343881)
(-0.0174608 5.42254e-22 0.000630568)
(-0.0212273 -5.37355e-22 0.000966063)
(-0.0248063 0 0.00146541)
(-0.0281834 0 0.00221322)
(-0.0314196 5.17891e-22 0.00315874)
(-0.0346114 -2.03077e-21 0.00412912)
(-0.0377986 -1.98677e-21 0.00493147)
(-0.0409025 0 0.00545964)
(-0.0437409 0 0.00573796)
(-0.0461086 0 0.00588716)
(-0.0478763 7.93938e-24 0.0060472)
(-0.049045 1.70706e-21 0.00631684)
(-0.0497256 -8.16155e-22 0.00674536)
(-0.0500747 -1.56374e-21 0.00735534)
(-0.0502531 3.00468e-21 0.00814904)
(-0.0504322 -1.42299e-21 0.00908542)
(-0.0507865 -1.35354e-21 0.010061)
(-0.0514295 -1.28715e-21 0.0109363)
(-0.0523398 0 0.011601)
(-0.0533791 1.18022e-21 0.0120297)
(-0.0543884 -1.12367e-21 0.0122786)
(-0.0552877 1.08789e-21 0.0124376)
(-0.0560796 2.09355e-21 0.012573)
(-0.0568093 4.05461e-21 0.0127136)
(-0.0574915 0 0.0128518)
(-0.0581241 0 0.0129769)
(-0.0586653 1.79601e-21 0.0130702)
(-0.0591118 0 0.01313)
(-0.0594337 -1.5929e-21 0.013137)
(-0.0596853 -1.48058e-21 0.0131014)
(-0.0598672 0 0.0130091)
(-0.0601222 -5.04368e-21 0.0129038)
(-0.0604744 -2.33878e-21 0.0127795)
(-0.0611489 0 0.0127095)
(-0.062101 -2.13332e-21 0.0126631)
(-0.0635663 -2.11934e-21 0.0127341)
(-0.0653174 0 0.0128539)
(-0.0676074 4.40513e-21 0.0131565)
(-0.0699921 -2.27981e-21 0.0135135)
(-0.0728235 -4.69726e-21 0.0141024)
(-0.0754219 0 0.0146991)
(-0.0783563 -1.88137e-23 0.0155428)
(-0.0807022 9.15355e-21 0.0162853)
(-0.0833928 0 0.0172668)
(-0.0852394 0 0.0179974)
(-0.0876729 -3.06797e-21 0.0189762)
(-0.0891772 -2.32873e-21 0.0195565)
(-0.0917457 3.03038e-21 0.0204565)
(-0.0934162 1.44231e-21 0.0208443)
(-0.0967086 -8.81928e-23 0.0216999)
(-0.0991074 1.39517e-21 0.0219596)
(-0.103556 5.06578e-21 0.0228861)
(-0.107058 0 0.0231354)
(-0.112778 0 0.0242489)
(-0.117649 8.57908e-21 0.0245976)
(-0.124515 0 0.0259634)
(-0.1311 0 0.0265174)
(-0.138643 -7.09733e-21 0.0281354)
(-0.147301 0 0.0290163)
(-0.154314 4.10842e-21 0.0307829)
(-0.165485 -4.82411e-24 0.0321361)
(-0.169898 -1.64427e-21 0.0337579)
(-0.184781 0 0.0357751)
(-0.183807 0 0.0366899)
(-0.205068 0 0.0397173)
(-0.194998 -2.45616e-21 0.0391053)
(-0.226956 0 0.0438207)
(-0.202718 3.53841e-21 0.0406095)
(-0.250746 -6.92162e-21 0.0480695)
(-0.206544 0 0.0410224)
(-0.275064 0 0.052326)
(-0.207079 0 0.0405079)
(-0.296089 6.06974e-24 0.0561053)
(-0.207388 1.56671e-21 0.0397048)
(-0.306506 4.86345e-22 0.0582003)
(-0.213627 1.30122e-21 0.0397622)
(-0.294727 1.71077e-21 0.0564092)
(-0.234363 0 0.0425493)
(-0.250174 2.04266e-21 0.0487219)
(-0.276253 0 0.0477299)
(-0.137433 1.32844e-21 0.028089)
(-0.3599 0 0.0604195)
(0.0798977 0 -0.0123723)
(-0.524614 0 0.0954077)
(0.329273 -1.18613e-20 -0.0719823)
(-0.56393 3.04969e-20 0.113836)
(0.435642 0 -0.108679)
(-0.324632 -6.87947e-20 0.115095)
(-0.38093 1.04363e-19 0.0154827)
(1.03906 -9.56109e-20 -0.222622)
(-0.116134 1.37568e-19 -0.0255847)
(2.06989 0 -0.125621)
(-6.2467 0 1.05796)
(7.12756 0 -1.97902)
(3.309 0 0.248176)
(-11.5363 -8.26324e-20 2.07822)
(9.59046 2.96387e-21 -2.45908)
(-4.04587 -2.9948e-19 1.42919)
(-0.296861 0 -0.738869)
(14.141 0 -2.37771)
(-9.97877 -1.50484e-18 2.14745)
(16.012 0 -4.59884)
(18.8607 3.49355e-19 -2.57883)
(-10.7016 0 2.69395)
(6.29205 1.83113e-19 -1.21913)
(-13.2239 0 4.05786)
(-29.7941 0 5.94037)
(-15.4606 -6.78803e-20 1.75014)
(0.405592 0 -0.715938)
(0.0161632 0 0.00841542)
(0.0145424 2.42665e-22 0.00797158)
(0.0119329 0 0.00751717)
(0.0103779 2.50309e-22 0.00680757)
(0.00892132 5.04958e-22 0.00572027)
(0.00684586 0 0.00430669)
(0.00409536 -2.56065e-22 0.00279991)
(0.000902192 0 0.00154256)
(-0.00251346 2.96129e-25 0.000768738)
(-0.00601508 1.02843e-21 0.000510973)
(-0.00954266 0 0.000567104)
(-0.0130751 0 0.000730252)
(-0.0166027 5.05417e-22 0.000953488)
(-0.0200753 0 0.00133746)
(-0.02343 0 0.00199394)
(-0.0266646 0 0.00291103)
(-0.0298591 9.53592e-22 0.00392361)
(-0.0331086 9.32498e-22 0.00480315)
(-0.0364251 9.0317e-22 0.00539005)
(-0.0396904 0 0.00567429)
(-0.0426924 0 0.00578266)
(-0.0452244 8.2851e-22 0.00589489)
(-0.0471886 -7.98736e-22 0.00615453)
(-0.0486288 7.67618e-22 0.00663322)
(-0.049675 1.47074e-21 0.0073494)
(-0.0504663 -2.78897e-21 0.00829222)
(-0.0511433 1.93141e-23 0.00941261)
(-0.0518805 1.273e-21 0.0105966)
(-0.0528543 1.21054e-21 0.0116787)
(-0.0541309 0 0.012513)
(-0.055614 0 0.0130548)
(-0.0571167 1.05674e-21 0.0133699)
(-0.0585042 0 0.0135758)
(-0.0597439 -1.96875e-21 0.0137615)
(-0.0608823 -1.90498e-21 0.0139631)
(-0.061947 1.84012e-21 0.0141674)
(-0.0629503 0 0.0143575)
(-0.0638526 -1.68874e-21 0.0145099)
(-0.0646597 -1.60496e-21 0.0146254)
(-0.0653398 -8.53484e-24 0.0146827)
(-0.0659595 2.79346e-21 0.0146972)
(-0.0665075 0 0.0146514)
(-0.0671391 2.37889e-21 0.0145987)
(-0.0678569 0 0.0145271)
(-0.068912 0 0.0145222)
(-0.070231 0 0.0145375)
(-0.0720944 -9.11482e-24 0.0146835)
(-0.0742272 0 0.0148687)
(-0.0769489 -2.07004e-21 0.0152578)
(-0.0797421 4.28156e-21 0.0156896)
(-0.0830587 4.41408e-21 0.0163893)
(-0.0861087 0 0.0170815)
(-0.0896043 -4.45474e-21 0.0180734)
(-0.0924586 -8.56134e-21 0.0189382)
(-0.0958038 0 0.0201109)
(-0.0982241 0 0.0209867)
(-0.101419 2.8819e-21 0.022196)
(-0.103568 2.17938e-21 0.0229309)
(-0.107014 -1.42411e-21 0.0240901)
(-0.109406 -1.37479e-21 0.0246242)
(-0.113699 0 0.0257561)
(-0.116908 0 0.0261389)
(-0.122484 -2.25946e-23 0.0273551)
(-0.12691 3.1284e-21 0.0276997)
(-0.133878 0 0.0291235)
(-0.139825 -4.0174e-21 0.0295474)
(-0.148028 0 0.0312559)
(-0.155911 0 0.0318788)
(-0.16481 0 0.0338776)
(-0.175096 0 0.0348391)
(-0.183352 -4.78303e-24 0.0370222)
(-0.196678 -2.28593e-24 0.0385007)
(-0.201983 1.55365e-21 0.0405584)
(-0.219871 0 0.0427954)
(-0.219021 7.91518e-22 0.0441077)
(-0.244631 0 0.0475154)
(-0.233239 2.30312e-21 0.0471392)
(-0.271606 -2.5356e-21 0.0524996)
(-0.243638 3.27807e-21 0.0491638)
(-0.301072 3.23563e-21 0.0577177)
(-0.249591 0 0.0499127)
(-0.331434 -2.88253e-21 0.0630154)
(-0.251731 0 0.0495244)
(-0.358247 1.69657e-21 0.0678505)
(-0.253575 1.46236e-21 0.0486938)
(-0.372942 -4.55556e-22 0.0708302)
(-0.262337 0 0.0487347)
(-0.361837 -3.19768e-21 0.0693709)
(-0.288154 0 0.0518885)
(-0.311889 1.89846e-21 0.0609412)
(-0.338476 0 0.057322)
(-0.184495 1.24337e-21 0.0382248)
(-0.436541 0 0.0712351)
(0.0602 3.77146e-21 -0.00683649)
(-0.627904 3.01679e-20 0.11203)
(0.350689 1.10999e-20 -0.0781401)
(-0.691599 -2.8536e-20 0.139321)
(0.483686 0 -0.125816)
(-0.454697 1.28543e-19 0.157349)
(-0.375763 -1.95169e-19 -0.0110093)
(1.10803 0 -0.241884)
(-0.171766 -1.28659e-19 -0.0279206)
(2.17748 0 -0.055672)
(-6.66487 0 1.06953)
(8.00156 -5.32919e-19 -2.32179)
(2.9551 0 0.623208)
(-12.0378 0 2.08431)
(10.7273 1.20379e-18 -2.84346)