/*--------------------------------*- C++ -*----------------------------------*\
| =========                 |                                                 |
| \\      /  F ield         | OpenFOAM: The Open Source CFD Toolbox           |
|  \\    /   O peration     | Version:  2412                                  |
|   \\  /    A nd           | Website:  www.openfoam.com                      |
|    \\/     M anipulation  |                                                 |
\*---------------------------------------------------------------------------*/
FoamFile
{
    version     2.0;
    format      ascii;
    arch        "LSB;label=32;scalar=64";
    class       surfaceScalarField;
    location    "1.685";
    object      phi;
}
// * * * * * * * * * * * * * * * * * * * * * * * * * * * * * * * * * * * * * //

dimensions      [0 3 -1 0 0 0 0];

oriented        oriented;

internalField   nonuniform List<scalar> 
24930
(
0.0179645
0.0127562
-0.0307324
0.0106004
0.00736416
0.00694965
0.00365074
0.0051735
0.00177615
0.00420138
0.000972124
0.00357842
0.000622951
0.00313247
0.000445954
0.00279295
0.000339523
0.00252376
0.000269188
0.00230384
0.00021992
0.00212004
0.000183809
0.00196361
0.00015643
0.00182851
0.000135101
0.00171039
0.00011812
0.00160605
0.000104349
0.00151304
9.30068e-05
0.00142951
8.35374e-05
0.00135397
7.55381e-05
0.00128527
6.87107e-05
0.00122244
6.28299e-05
0.00116472
5.77233e-05
0.00111147
5.32563e-05
0.00106215
4.93233e-05
0.00101631
4.58398e-05
0.000973581
4.27376e-05
0.000933624
3.99615e-05
0.000896162
3.74661e-05
0.000860952
3.52139e-05
0.000827782
3.31736e-05
0.000796467
3.1319e-05
0.000766843
2.96279e-05
0.000738765
2.80814e-05
0.000712105
2.66636e-05
0.000686748
2.53605e-05
0.000662591
2.41603e-05
0.000639541
2.30525e-05
0.000617515
2.20287e-05
0.000596437
2.10803e-05
0.000576237
2.02015e-05
0.000556854
1.93849e-05
0.000538228
1.86271e-05
0.000520307
1.79212e-05
0.000503042
1.72658e-05
0.000486388
1.66538e-05
0.000470302
1.60864e-05
0.000454746
1.55554e-05
0.000439682
1.50645e-05
0.000425078
1.46037e-05
0.000410897
1.41804e-05
0.000397116
1.37813e-05
0.000383697
1.34185e-05
0.000370623
1.30743e-05
0.000357856
1.27666e-05
0.000345383
1.24716e-05
0.000333167
1.22149e-05
0.000321201
1.19643e-05
0.000309443
1.17553e-05
0.000297895
1.1545e-05
0.000286511
1.13812e-05
0.000275299
1.12075e-05
0.000264207
1.10876e-05
0.000253256
1.09473e-05
0.000242381
1.08702e-05
0.000231618
1.076e-05
0.00022089
1.07251e-05
0.000210247
1.06406e-05
0.000199599
1.06464e-05
0.000189017
1.05824e-05
0.00017839
1.0627e-05
0.000167815
1.05774e-05
0.000157159
1.06584e-05
0.000146546
1.06155e-05
0.00013582
1.07283e-05
0.000125142
1.06808e-05
0.000114326
1.0818e-05
0.000103576
1.07513e-05
9.2673e-05
1.09034e-05
8.18717e-05
1.0801e-05
7.09144e-05
1.09564e-05
6.01153e-05
1.07976e-05
4.91738e-05
1.09397e-05
3.84721e-05
1.06998e-05
2.76609e-05
1.08094e-05
1.71926e-05
1.04669e-05
6.68373e-06
1.05082e-05
-3.38369e-06
1.00674e-05
-1.33685e-05
9.98544e-06
-2.28297e-05
9.46213e-06
-3.20471e-05
9.21891e-06
-4.06787e-05
8.63326e-06
-4.92113e-05
8.533e-06
-5.6084e-05
6.8741e-06
-6.53567e-05
9.2735e-06
-6.82684e-05
2.91402e-06
-8.10511e-05
1.27821e-05
-7.81917e-05
-2.85938e-06
-8.68618e-05
8.66876e-06
-9.90458e-05
1.21825e-05
-8.53158e-05
-1.3729e-05
-0.000122022
3.67061e-05
-6.73032e-05
-5.47257e-05
-0.000181508
0.000114219
-5.86838e-05
-0.000122838
-0.000148682
9.00275e-05
-0.000226447
7.77631e-05
6.15003e-05
-0.000287994
-0.00050065
0.000562181
-1.63389e-05
-0.000484347
-0.000317869
0.000301531
-0.000388836
7.09015e-05
0.000228178
-0.000617097
-0.00132772
0.00155598
-0.000136353
-0.00119139
-0.000180222
4.3852e-05
-0.000970703
0.000790568
0.000262564
-0.00123324
-0.000552552
0.000815092
-6.11339e-05
-0.000491374
0.000684257
-0.000745426
0.00038105
0.0336743
0.0163266
-0.0372447
0.0277358
0.0133026
0.0221823
0.0092043
0.0179077
0.00605069
0.0148615
0.00401835
0.012701
0.00278345
0.0111139
0.00203302
0.00989692
0.00155655
0.00892972
0.00123639
0.00813939
0.00101025
0.00747919
0.000844016
0.0069178
0.000717818
0.00643346
0.000619454
0.00601047
0.000541112
0.00563725
0.000477578
0.00530501
0.000425252
0.00500698
0.000381576
0.00473783
0.000344694
0.00449332
0.000313229
0.00427002
0.000286139
0.00406512
0.000262628
0.00387631
0.000242073
0.00370166
0.000223985
0.00353953
0.000207973
0.00338856
0.000193722
0.00324755
0.000180976
0.0031155
0.000169526
0.00299153
0.000159197
0.00287486
0.000149845
0.00276484
0.000141348
0.00266087
0.000133604
0.00256244
0.000126526
0.00246907
0.000120039
0.00238036
0.00011408
0.00229593
0.000108594
0.00221546
0.000103532
0.00213864
9.88545e-05
0.0020652
9.45239e-05
0.00199489
9.05111e-05
0.00192749
8.67849e-05
0.0018628
8.33254e-05
0.00180062
8.01056e-05
0.00174077
7.71136e-05
0.0016831
7.43236e-05
0.00162745
7.17319e-05
0.0015737
6.93114e-05
0.00152169
6.70669e-05
0.00147133
6.49673e-05
0.00142248
6.30279e-05
0.00137505
6.12103e-05
0.00132893
5.95429e-05
0.00128402
5.79763e-05
0.00124024
5.65553e-05
0.00119749
5.52144e-05
0.00115568
5.40193e-05
0.00111476
5.28832e-05
0.00107462
5.18978e-05
0.00103521
5.09485e-05
0.000996421
5.01604e-05
0.000958237
4.9383e-05
0.000920532
4.87836e-05
0.000883304
4.81653e-05
0.000846416
4.77484e-05
0.000809891
4.72763e-05
0.000773571
4.7036e-05
0.00073751
4.66942e-05
0.00070153
4.66215e-05
0.000665718
4.63904e-05
0.000629869
4.64748e-05
0.000594115
4.63326e-05
0.000558215
4.65609e-05
0.000522358
4.64772e-05
0.000486266
4.6826e-05
0.000450197
4.67566e-05
0.000413832
4.71894e-05
0.000377512
4.70764e-05
0.000340873
4.75473e-05
0.000304353
4.73242e-05
0.000267533
4.77781e-05
0.000230971
4.73601e-05
0.000194189
4.77206e-05
0.000157881
4.70059e-05
0.000121502
4.71858e-05
8.58843e-05
4.60815e-05
5.04554e-05
4.59341e-05
1.60899e-05
4.44303e-05
-1.75853e-05
4.36587e-05
-5.01964e-05
4.20724e-05
-8.1257e-05
4.02797e-05
-0.000111538
3.89156e-05
-0.000139701
3.66983e-05
-0.000165298
3.24729e-05
-0.000194641
3.86197e-05
-0.000207991
1.62635e-05
-0.000250006
5.47995e-05
-0.000238595
-1.42702e-05
-0.000279677
4.9752e-05
-0.000300179
3.26859e-05
-0.000282314
-3.1598e-05
-0.000367149
0.000121545
-0.00023264
-0.000189238
-0.00055978
0.000441358
-0.00018283
-0.00049978
-0.000528153
0.000435324
-0.000621948
0.000171602
0.000110441
-0.0010204
-0.00146126
0.00213388
-6.79161e-05
-0.00187768
-0.00114861
0.00138217
-0.00106052
-1.71285e-05
0.000548708
-0.00222629
-0.00377361
0.00587825
-0.000343408
-0.00462157
-0.000922979
0.00062335
-0.00280393
0.00267146
0.000863041
-0.00490021
-0.00167678
0.00335489
-6.25351e-05
-0.00210561
0.00208018
-0.00288812
0.00160306
0.0414437
0.0160253
-0.0411424
0.0391509
0.0155954
0.0352191
0.0131361
0.0309314
0.0103383
0.027016
0.00793378
0.0237269
0.00607262
0.0210525
0.00470738
0.0188839
0.00372516
0.0171063
0.00301393
0.0156272
0.00248935
0.0143776
0.00209365
0.0133071
0.00178831
0.0123789
0.0015477
0.0115654
0.0013546
0.0108459
0.0011971
0.0102043
0.00106684
0.00962811
0.000957767
0.00910738
0.000865428
0.00863412
0.000786497
0.00820183
0.000718443
0.00780516
0.000659308
0.00743967
0.000607562
0.00710167
0.000561996
0.00678802
0.000521637
0.00649604
0.000485704
0.00622347
0.000453557
0.00596833
0.00042467
0.00572893
0.000398609
0.00550377
0.000375012
0.00529156
0.000353571
0.00509114
0.00033403
0.0049015
0.000316169
0.00472175
0.000299802
0.00455107
0.000284766
0.00438875
0.000270924
0.00423413
0.000258154
0.00408664
0.000246355
0.00394573
0.000235431
0.00381094
0.000225308
0.00368182
0.00021591
0.00355796
0.000207183
0.00343901
0.000199063
0.00332461
0.000191513
0.00321445
0.000184477
0.00310825
0.000177935
0.00300573
0.000171829
0.00290664
0.000166159
0.00281074
0.000160862
0.00271781
0.000155956
0.00262765
0.000151369
0.00254005
0.000147144
0.00245484
0.00014319
0.00237182
0.000139578
0.00229083
0.000136193
0.00221171
0.000133142
0.00213431
0.000130275
0.00205846
0.000127742
0.00198406
0.000125348
0.00191091
0.000123301
0.00183894
0.000121345
0.00176795
0.000119759
0.0016979
0.000118209
0.00162857
0.000117066
0.00155994
0.000115895
0.00149179
0.000115177
0.00142413
0.000114347
0.00135671
0.00011403
0.0012896
0.0001135
0.00122252
0.000113556
0.00115558
0.000113275
0.00108847
0.000113669
0.00102139
0.00011357
0.000953978
0.000114242
0.000886519
0.000114224
0.000818634
0.000115081
0.000750707
0.000115011
0.00068232
0.00011594
0.000613986
0.000115661
0.000545243
0.000116524
0.000476768
0.000115835
0.000408044
0.000116443
0.000339947
0.000115101
0.000271887
0.000115242
0.000204953
0.000113012
0.000138524
0.00011236
7.37805e-05
0.000109171
1.04909e-05
0.000106947
-5.11903e-05
0.000103753
-0.000109693
9.87836e-05
-0.00016749
9.67144e-05
-0.000220245
8.94565e-05
-0.000270397
8.26272e-05
-0.000324103
9.23295e-05
-0.000352921
4.5084e-05
-0.000429473
0.000131354
-0.000410539
-3.32035e-05
-0.000494042
0.000133256
-0.000519511
5.8156e-05
-0.000506219
-4.48915e-05
-0.000635616
0.000250946
-0.00042961
-0.000395247
-0.00097254
0.000984289
-0.000334122
-0.0011382
-0.000983938
0.00108515
-0.00102782
0.00021539
0.000115379
-0.00216359
-0.00247103
0.0047203
-0.000146598
-0.00420213
-0.0021826
0.00341817
-0.00174896
-0.000450773
0.000827088
-0.00480234
-0.00620132
0.0129066
-0.000476116
-0.0103468
-0.00209586
0.0022431
-0.00467988
0.00525545
0.00163582
-0.0112159
-0.00290028
0.00789096
0.000102233
-0.00510812
0.00358726
-0.00637313
0.00382676
0.0459057
0.0147276
-0.044608
0.0459862
0.0155149
0.044405
0.0147174
0.0416791
0.0130642
0.0384339
0.0111791
0.0351279
0.00937859
0.0320287
0.00780657
0.0292506
0.00650325
0.0268124
0.00545215
0.024688
0.00461382
0.0228361
0.00394555
0.0212148
0.00340958
0.0197869
0.00297558
0.0185212
0.00262029
0.0173921
0.00232621
0.0163788
0.00208022
0.0154641
0.00187241
0.0146343
0.00169525
0.0138778
0.00154297
0.0131852
0.00141108
0.0125485
0.00129604
0.011961
0.00119507
0.0114171
0.00110593
0.0109119
0.00102681
0.0104414
0.000956241
0.0100019
0.000893012
0.00959046
0.000836126
0.00920433
0.000784749
0.00884117
0.000738186
0.0084989
0.000695847
0.0081757
0.000657234
0.00786996
0.000621922
0.00758022
0.000589546
0.0073052
0.000559791
0.00704375
0.000532389
0.0067948
0.000507102
0.00655743
0.00048373
0.00633078
0.000462088
0.00611407
0.000442027
0.00590658
0.000423399
0.00570768
0.000406095
0.00551675
0.000389992
0.00533325
0.000375015
0.00515667
0.000361056
0.00498653
0.000348068
0.00482241
0.00033595
0.00466389
0.000324683
0.00451059
0.000314163
0.00436214
0.000304404
0.00421821
0.00029529
0.00407849
0.000286871
0.00394267
0.000279007
0.00381045
0.000271794
0.00368159
0.000265057
0.00355578
0.000258945
0.00343282
0.000253232
0.00331242
0.000248133
0.00319441
0.000243359
0.00307849
0.000239207
0.00296452
0.000235303
0.00285222
0.000232048
0.00274147
0.000228955
0.00263196
0.000226557
0.00252363
0.00022422
0.00241615
0.000222641
0.0023095
0.000220995
0.00220334
0.000220187
0.00209768
0.000219154
0.00199217
0.000219061
0.00188689
0.000218555
0.00178146
0.000219107
0.00167603
0.000219003
0.00157019
0.000220084
0.00146423
0.000220196
0.00135769
0.000221629
0.00125099
0.000221712
0.00114367
0.000223275
0.00103629
0.000223037
0.000928363
0.000224459
0.000820679
0.00022352
0.000712684
0.000224437
0.000605449
0.000222334
0.000498347
0.000222341
0.000392741
0.000218615
0.000287992
0.000217105
0.000185584
0.000211576
8.53602e-05
0.000207169
-1.24015e-05
0.000201514
-0.000105252
0.000191634
-0.000197457
0.000188921
-0.000281285
0.000173286
-0.000362525
0.00016387
-0.000446565
0.000176371
-0.000496621
9.51429e-05
-0.00061359
0.000248325
-0.000590797
-5.59947e-05
-0.000724981
0.000267441
-0.000756103
8.92791e-05
-0.000753256
-4.77412e-05
-0.000928769
0.000426461
-0.00065652
-0.000667496
-0.00141922
0.00174699
-0.000517697
-0.00203972
-0.00151149
0.00207895
-0.0014516
0.000155733
6.47832e-05
-0.00367996
-0.00352491
0.00830997
-0.000257413
-0.00746962
-0.00342104
0.0065818
-0.00247186
-0.00139994
0.00105329
-0.00832748
-0.00855366
0.0225136
-0.000515744
-0.0183847
-0.00373765
0.00546505
-0.00657041
0.00808816
0.00259451
-0.0203809
-0.00419299
0.0146784
0.00048914
-0.00979025
0.00519522
-0.0110792
0.00721772
0.0493713
0.0135344
-0.0481781
0.0503332
0.014553
0.0503494
0.0147012
0.0493253
0.0140883
0.0474786
0.0130257
0.0451022
0.011755
0.0424677
0.0104411
0.0397816
0.00918932
0.0371787
0.00805501
0.0347335
0.00705903
0.0324781
0.00620096
0.0304184
0.00546931
0.0285459
0.00484807
0.0268457
0.00432054
0.0253005
0.00387136
0.0238936
0.0034872
0.0226091
0.00315691
0.021433
0.00287134
0.0203529
0.00262303
0.0193581
0.00240593
0.018439
0.00221509
0.0175876
0.00204648
0.0167968
0.00189681
0.0160603
0.00176334
0.0153727
0.00164382
0.0147293
0.00153637
0.0141261
0.00143941
0.0135592
0.00135162
0.0130255
0.00127188
0.0125221
0.00119923
0.0120465
0.00113287
0.0115963
0.00107209
0.0111696
0.00101629
0.0107645
0.000964948
0.0103792
0.000917619
0.0100124
0.000873904
0.00966271
0.000833464
0.00932881
0.000795992
0.00900961
0.000761231
0.00870408
0.000728936
0.00841126
0.000698915
0.00813029
0.000670967
0.00786035
0.000644954
0.00760071
0.000620701
0.00735066
0.000598117
0.00710957
0.000577041
0.00687683
0.000557425
0.00665188
0.000539111
0.00643418
0.000522097
0.00622326
0.000506212
0.00601862
0.00049151
0.00581984
0.000477789
0.00562647
0.000465166
0.00543813
0.000453394
0.0052544
0.000442665
0.00507497
0.000432667
0.00489941
0.000423682
0.00472745
0.000415311
0.0045587
0.000407952
0.0043929
0.000401092
0.00422967
0.000395269
0.00406879
0.00038982
0.00390987
0.000385462
0.00375275
0.000381332
0.00359701
0.00037837
0.00344254
0.000375454
0.00328891
0.000373805
0.00313608
0.00037198
0.00298359
0.000371551
0.00283147
0.000370676
0.00267923
0.000371349
0.00252702
0.000371223
0.00237431
0.0003728
0.00222139
0.000373123
0.00206772
0.000375308
0.00191376
0.000375679
0.00175894
0.000378099
0.00160395
0.000378035
0.00144818
0.000380229
0.00129261
0.000379098
0.00113659
0.000380449
0.000981451
0.000377475
0.00082649
0.000377299
0.000673406
0.000371695
0.000521515
0.000368993
0.000372689
0.000360398
0.000226856
0.000353
8.43897e-05
0.000343978
-5.11992e-05
0.000327223
-0.000186259
0.000323981
-0.000309123
0.000296152
-0.000429436
0.000284185
-0.000551161
0.000298099
-0.000629625
0.00017361
-0.000794022
0.000412724
-0.000772726
-7.72894e-05
-0.000966666
0.000461382
-0.00100531
0.000127927
-0.00101982
-3.32338e-05
-0.00124427
0.000650915
-0.000911635
-0.00100013
-0.00189686
0.00273221
-0.000735426
-0.00320115
-0.0021079
0.00345143
-0.00189671
-5.59998e-05
-3.64791e-05
-0.00554022
-0.00460878
0.0128823
-0.000401206
-0.0116772
-0.00486052
0.0110411
-0.00324367
-0.00301686
0.00120008
-0.0127712
-0.010763
0.0344766
-0.000440607
-0.0287071
-0.00585794
0.0108825
-0.00845426
0.0106844
0.00371055
-0.0325457
-0.00550233
0.0238913
0.00114482
-0.0164374
0.00688201
-0.0168164
0.0119231
0.0528288
0.0126371
-0.0519314
0.0538559
0.0135258
0.0545383
0.0140189
0.0546056
0.0140209
0.0540052
0.013626
0.0528066
0.0129537
0.051139
0.0121087
0.0491489
0.0111794
0.0469711
0.0102328
0.0447161
0.00931403
0.0424661
0.00845088
0.0402774
0.00765809
0.0381843
0.00694115
0.0362054
0.00629946
0.034348
0.00572877
0.0326123
0.00522293
0.0309941
0.00477508
0.029487
0.0043784
0.0280836
0.00402653
0.0267758
0.00371371
0.025556
0.00343487
0.0244169
0.0031856
0.0233516
0.0029621
0.0223539
0.00276109
0.0214179
0.00257976
0.0205386
0.00241569
0.0197112
0.00226684
0.0189314
0.00213141
0.0181954
0.00200788
0.0174997
0.00189493
0.0168412
0.00179141
0.016217
0.00169632
0.0156245
0.00160881
0.0150613
0.00152811
0.0145254
0.00145356
0.0140147
0.00138457
0.0135275
0.00132065
0.0130622
0.00126134
0.0126172
0.00120623
0.0121912
0.00115498
0.0117828
0.00110728
0.011391
0.00106283
0.0110145
0.00102141
0.0106524
0.000982758
0.0103038
0.000946729
0.00996779
0.000913084
0.00964348
0.000881734
0.00933014
0.000852449
0.00902703
0.000825207
0.00873348
0.000799766
0.00844881
0.000776177
0.00817243
0.000754164
0.00790373
0.000733864
0.00764218
0.000714944
0.00738721
0.000697639
0.00713833
0.000681536
0.00689502
0.00066699
0.00665685
0.000653476
0.00642329
0.000641501
0.00619398
0.000630392
0.00596839
0.000620843
0.00574621
0.000611988
0.00552691
0.00060475
0.00531023
0.000598005
0.00509561
0.00059297
0.00488288
0.000588177
0.00467147
0.000585214
0.00446125
0.000582192
0.00425164
0.00058116
0.00404261
0.000579702
0.00383355
0.000580417
0.00362456
0.000580221
0.00341498
0.00058238
0.00320512
0.000582997
0.00299429
0.000586147
0.002783
0.00058697
0.00257057
0.000590537
0.00235778
0.000590829
0.00214392
0.000594091
0.00193014
0.00059288
0.00171571
0.00059488
0.00150222
0.000590969
0.00128888
0.000590638
0.00107778
0.000582785
0.000868175
0.000578597
0.000662405
0.000566165
0.000460461
0.000554942
0.000262888
0.000541549
7.41668e-05
0.000515944
-0.000113813
0.000511962
-0.000285367
0.000467708
-0.000454549
0.00045337
-0.000622943
0.000466496
-0.000738787
0.000289457
-0.000958936
0.000632875
-0.000946437
-8.97846e-05
-0.00121025
0.000725197
-0.00125958
0.000177255
-0.0013001
7.28626e-06
-0.00157729
0.000928099
-0.00119125
-0.00138616
-0.00240068
0.00394162
-0.000986853
-0.00461497
-0.00276723
0.00523182
-0.00236606
-0.000456672
-0.000163968
-0.00774229
-0.00570714
0.0184254
-0.000576571
-0.0168078
-0.00648322
0.0169478
-0.00407819
-0.00542193
0.00122504
-0.0180744
-0.0127766
0.0484781
-0.00022986
-0.0412538
-0.00842109
0.0190738
-0.010332
0.0125953
0.00490117
-0.0477789
-0.00676389
0.0355563
0.00212096
-0.0253223
0.00861808
-0.0233134
0.0180575
0.0565479
0.0119507
-0.0558615
0.0574006
0.0126732
0.0581962
0.0132233
0.0587217
0.0134954
0.0588551
0.0134926
0.0585505
0.0132583
0.0578173
0.0128419
0.0567033
0.0122934
0.0552772
0.011659
0.0536142
0.010977
0.051788
0.0102771
0.0498638
0.00958229
0.0478962
0.00890867
0.0459284
0.00826729
0.0439923
0.00766488
0.0421104
0.00710484
0.0402974
0.00658814
0.0385618
0.00611397
0.0369079
0.0056804
0.0353368
0.00528483
0.0338473
0.00492434
0.0324371
0.00459589
0.0311026
0.00429655
0.0298402
0.00402351
0.0286458
0.00377418
0.0275153
0.00354619
0.0264447
0.00333741
0.0254302
0.00314592
0.0244681
0.00297
0.0235549
0.00280813
0.0226874
0.00265894
0.0218625
0.00252123
0.0210774
0.00239393
0.0203295
0.00227607
0.0196162
0.00216681
0.0189354
0.00206539
0.0182849
0.00197114
0.0176628
0.00188346
0.0170672
0.00180181
0.0164965
0.0017257
0.015949
0.00165473
0.0154234
0.00158847
0.0149182
0.00152663
0.0144321
0.00146884
0.013964
0.00141488
0.0135126
0.00136442
0.013077
0.00131734
0.0126561
0.00127331
0.0122491
0.00123229
0.0118549
0.00119395
0.0114727
0.00115834
0.0111018
0.00112508
0.0107413
0.00109435
0.0103905
0.0010657
0.0100488
0.00103942
0.00971532
0.00101497
0.0093895
0.0009928
0.00907075
0.000972223
0.00875836
0.000953879
0.00845183
0.000936908
0.00815048
0.000922181
0.00785386
0.000908593
0.00756129
0.00089731
0.00727238
0.000886902
0.00698643
0.000878905
0.00670315
0.00087145
0.00642181
0.000866553
0.00614219
0.000861801
0.00586355
0.000859801
0.00558579
0.000857462
0.00530811
0.000858095
0.0050306
0.000857743
0.00475241
0.000860574
0.00447384
0.000861572
0.00419405
0.000865949
0.0039136
0.000867431
0.00363162
0.00087252
0.00334904
0.000873421
0.00306497
0.000878161
0.00278078
0.000877066
0.00249561
0.000880055
0.00221136
0.000875218
0.00192712
0.000874876
0.00164545
0.000864447
0.00136548
0.000858561
0.00109015
0.000841498
0.000819442
0.000825643
0.000554234
0.000806757
0.000299708
0.00077047
4.65684e-05
0.000765102
-0.000185223
0.000699501
-0.000415424
0.000683574
-0.000641432
0.000692507
-0.000805805
0.000453833
-0.00109175
0.000918819
-0.00109762
-8.39179e-05
-0.00144285
0.00107043
-0.00150761
0.000242012
-0.00158523
8.49131e-05
-0.0019198
0.00126267
-0.0014889
-0.00181705
-0.00292342
0.00537613
-0.00126829
-0.00627009
-0.00347973
0.00744328
-0.00286122
-0.00107535
-0.000360086
-0.0102434
-0.00680767
0.024873
-0.000779958
-0.0228355
-0.0082552
0.0244231
-0.00498801
-0.00868916
0.0010717
-0.0241341
-0.0145802
0.0641299
0.000148198
-0.0559822
-0.0113247
0.0305468
-0.0122274
0.013498
0.00601876
-0.066025
-0.00791629
0.0494913
0.00345863
-0.0366972
0.010371
-0.0302258
0.0256902
0.0605522
0.0113881
-0.0599895
0.0612359
0.0119894
0.0619498
0.0125094
0.062571
0.0128741
0.063002
0.0130616
0.0631788
0.0130815
0.0630658
0.0129549
0.0626524
0.0127067
0.061949
0.0123624
0.0609802
0.0119458
0.0597805
0.0114769
0.0583896
0.0109733
0.0568486
0.0104496
0.0551978
0.0099181
0.0534741
0.00938864
0.0517098
0.00886914
0.0499323
0.00836565
0.0481637
0.00788259
0.0464212
0.00742292
0.0447176
0.0069884
0.0430621
0.00657981
0.0414609
0.00619713
0.0399177
0.00583981
0.0384343
0.00550688
0.0370114
0.00519713
0.0356483
0.00490922
0.034344
0.00464172
0.0330967
0.00439323
0.0319044
0.00416236
0.0307647
0.00394779
0.0296754
0.00374827
0.028634
0.00356263
0.0276382
0.0033898
0.0266855
0.00322878
0.0257736
0.00307865
0.0249005
0.00293858
0.0240638
0.00280781
0.0232616
0.00268564
0.022492
0.00257144
0.0217531
0.00246463
0.0210431
0.0023647
0.0203604
0.00227115
0.0197035
0.00218359
0.0190707
0.00210157
0.0184608
0.0020248
0.0178724
0.00195288
0.0173041
0.00188562
0.0167548
0.00182262
0.0162233
0.0017638
0.0157085
0.00170874
0.0152093
0.00165749
0.0147248
0.00160958
0.014254
0.0015652
0.0137959
0.0015238
0.0133496
0.00148571
0.0129143
0.00145026
0.0124891
0.00141799
0.0120732
0.00138805
0.0116659
0.00136123
0.0112663
0.00133644
0.0108737
0.00131477
0.0104875
0.00129483
0.0101067
0.00127807
0.00973089
0.00126271
0.00935914
0.00125065
0.00899103
0.00123955
0.00862564
0.00123194
0.00826265
0.00122478
0.00790111
0.00122134
0.00754084
0.00121774
0.00718082
0.00121812
0.00682107
0.00121749
0.00646056
0.00122109
0.00609956
0.00122258
0.00573701
0.00122851
0.00537352
0.00123092
0.00500802
0.00123803
0.00464155
0.00123989
0.00427304
0.00124668
0.00390409
0.00124602
0.00353363
0.00125052
0.00316396
0.00124488
0.00279398
0.00124486
0.00242681
0.00123161
0.0020614
0.00122396
0.00170141
0.00120149
0.00134676
0.00118029
0.000998836
0.00115468
0.000663517
0.00110579
0.000330935
0.00109769
2.48273e-05
0.00100561
-0.000282254
0.000990657
-0.000579028
0.000989284
-0.000805815
0.000680623
-0.00116972
0.00128272
-0.00120618
-4.74471e-05
-0.00164621
0.00151047
-0.00173319
0.000328988
-0.00186193
0.00021365
-0.00225947
0.00166021
-0.00179435
-0.00228217
-0.00345465
0.00703642
-0.0015718
-0.00815293
-0.00423033
0.0101018
-0.00338079
-0.00192485
-0.000626355
-0.0129978
-0.00790273
0.0321493
-0.00100722
-0.029731
-0.0101267
0.0335425
-0.00597921
-0.0128367
0.000671807
-0.030785
-0.0162073
0.0810088
0.000717621
-0.0729071
-0.0143937
0.0456583
-0.01417
0.0132741
0.00686097
-0.087056
-0.00891562
0.0652679
0.00517968
-0.0507925
0.0121107
-0.0371568
0.0348351
0.0648353
0.010904
-0.0643511
0.0654001
0.0114245
0.0660072
0.0119024
0.0665913
0.0122901
0.0670898
0.0125631
0.0674542
0.0127171
0.0676492
0.01276
0.0676506
0.0127053
0.0674453
0.0125677
0.0670293
0.0123618
0.066406
0.0121002
0.065586
0.0117932
0.0645852
0.0114504
0.0634235
0.0110798
0.0621236
0.0106886
0.0607095
0.0102832
0.0592056
0.00986955
0.0576353
0.00945283
0.0560205
0.00903776
0.0543805
0.0086284
0.0527322
0.0082281
0.0510898
0.00783956
0.0494648
0.00746481
0.0478664
0.0071053
0.0463016
0.00676193
0.0447757
0.00643517
0.0432923
0.00612513
0.0418538
0.00583167
0.0404618
0.0055544
0.0391168
0.00529282
0.0378188
0.00504631
0.0365672
0.00481417
0.0353613
0.00459571
0.0341999
0.00439019
0.0330817
0.00419689
0.0320052
0.00401512
0.0309688
0.0038442
0.0299709
0.00368349
0.02901
0.00353239
0.0280843
0.0033903
0.0271923
0.00325672
0.0263324
0.00313111
0.0255029
0.00301307
0.0247024
0.00290208
0.0239293
0.00279784
0.0231824
0.00269987
0.02246
0.00260796
0.021761
0.00252165
0.021084
0.00244084
0.0204277
0.00236502
0.0197909
0.00229427
0.0191725
0.00222801
0.0185712
0.00216646
0.0179861
0.00210894
0.0174159
0.00205588
0.0168597
0.00200644
0.0163164
0.00196128
0.0157851
0.00191935
0.0152647
0.00188162
0.0147544
0.00184675
0.0142531
0.00181608
0.01376
0.00178789
0.0132741
0.00176398
0.0127946
0.00174212
0.0123206
0.00172469
0.0118513
0.00170878
0.0113857
0.00169752
0.0109234
0.00168714
0.010463
0.00168171
0.0100044
0.00167637
0.00954618
0.0016763
0.00908842
0.00167526
0.00862974
0.00167978
0.00817044
0.00168189
0.00770914
0.00168982
0.00724654
0.00169353
0.00678126
0.00170332
0.00631452
0.00170664
0.00584494
0.00171626
0.00537443
0.00171653
0.00490163
0.00172332
0.00442931
0.0017172
0.00395609
0.00171808
0.00348576
0.00170193
0.00301702
0.0016927
0.00255438
0.00166412
0.00209763
0.00163704
0.0016489
0.0016034
0.00121462
0.00154008
0.000784453
0.00152785
0.000383453
0.00140661
-1.71151e-05
0.00139123
-0.00039875
0.00137092
-0.000705357
0.000987234
-0.0011621
0.00173947
-0.0012444
3.48474e-05
-0.00179506
0.00206113
-0.00191347
0.000447395
-0.00211108
0.000411264
-0.0025782
0.00212734
-0.00209241
-0.00276795
-0.00397955
0.00892355
-0.00188411
-0.0102484
-0.00499911
0.0132168
-0.00391889
-0.0030051
-0.000960599
-0.015956
-0.00898961
0.0401782
-0.00125431
-0.0374663
-0.0120371
0.0443254
-0.00704737
-0.0178265
-6.25744e-05
-0.0377699
-0.0177374
0.0986837
0.00142779
-0.0920723
-0.0173873
0.0644736
-0.0161627
0.0120494
0.00721173
-0.11043
-0.0097462
0.0822258
0.00727791
-0.0678166
0.0138159
-0.0436947
0.0454446
0.0694061
0.0104768
-0.0689789
0.0698891
0.0109415
0.0704091
0.0113824
0.0709303
0.0117688
0.0714132
0.0120803
0.0718238
0.0123064
0.0721363
0.0124475
0.0723312
0.0125104
0.0723943
0.0125046
0.0723157
0.0124405
0.0720884
0.0123275
0.0717086
0.012173
0.0711756
0.0119834
0.0704919
0.0117636
0.0696627
0.0115178
0.0686967
0.0112493
0.067605
0.0109613
0.066401
0.0106569
0.0650996
0.0103391
0.0637168
0.0100113
0.0622684
0.00967645
0.0607702
0.00933776
0.0592369
0.00899813
0.057682
0.00866026
0.0561174
0.00832652
0.0545536
0.00799894
0.0529996
0.0076792
0.0514626
0.00736864
0.0499487
0.00706827
0.0484628
0.00677881
0.0470083
0.00650073
0.0455882
0.00623429
0.0442044
0.00597957
0.0428581
0.00573651
0.04155
0.00550496
0.0402805
0.00528466
0.0390493
0.00507533
0.0378562
0.00487659
0.0367005
0.00468811
0.0355814
0.00450946
0.0344978
0.00434029
0.0334488
0.00418016
0.0324331
0.00402876
0.0314495
0.00388562
0.0304969
0.00375049
0.0295739
0.0036229
0.0286791
0.00350268
0.0278115
0.00338933
0.0269695
0.00328279
0.026152
0.00318251
0.0253577
0.0030886
0.0245853
0.00300039
0.0238336
0.00291819
0.0231013
0.00284118
0.0223873
0.00276991
0.0216904
0.00270337
0.0210093
0.00264238
0.0203429
0.00258567
0.0196901
0.00253443
0.0190498
0.00248703
0.0184208
0.00244511
0.0178021
0.00240659
0.0171924
0.00237367
0.0165909
0.00234361
0.0159962
0.00231935
0.0154076
0.00229732
0.0148238
0.00228137
0.014244
0.00226687
0.0136669
0.00225883
0.0130921
0.00225125
0.0125178
0.00225055
0.0119441
0.00224897
0.0113693
0.00225463
0.0107936
0.00225761
0.0102153
0.00226814
0.00963512
0.00227367
0.0090514
0.00228705
0.00846551
0.00229254
0.00787567
0.00230611
0.00728414
0.00230805
0.00668918
0.00231828
0.00609411
0.00231227
0.00549715
0.00231503
0.00490291
0.00229616
0.00430971
0.0022859
0.00372314
0.00225069
0.00314267
0.0022175
0.00257152
0.00217455
0.00201642
0.00209517
0.00146709
0.00207718
0.000950626
0.00192308
0.000439144
0.00190271
-5.00997e-05
0.00186017
-0.000459954
0.00139709
-0.0010277
0.00230722
-0.00117458
0.000181739
-0.001855
0.00274155
-0.00201697
0.000609361
-0.00230582
0.000700112
-0.00285019
0.00267171
-0.00236136
-0.00325678
-0.00447729
0.0110395
-0.00218509
-0.0125405
-0.00576005
0.0167918
-0.00446224
-0.00430293
-0.0013529
-0.0190653
-0.0100681
0.0488934
-0.00151666
-0.0460178
-0.0139221
0.0567308
-0.00817482
-0.0235738
-0.000832956
-0.0451117
-0.0192759
0.117126
0.00225158
-0.1136
-0.0200235
0.0867488
-0.0181397
0.0101655
0.00691153
-0.135482
-0.0104157
0.099553
0.00971631
-0.0879487
0.0154784
-0.0494567
0.057403
0.0742841
0.0100941
-0.0739014
0.074708
0.0105176
0.0751621
0.0109283
0.0756257
0.0113052
0.076073
0.011633
0.0764794
0.0119
0.0768251
0.0121019
0.0770955
0.01224
0.0772801
0.0123199
0.0773717
0.0123489
0.0773645
0.0123347
0.0772533
0.0122843
0.0770336
0.012203
0.0767017
0.0120955
0.0762544
0.0119651
0.0756898
0.0118139
0.0750076
0.0116434
0.0742097
0.0114549
0.0732997
0.0112491
0.0722839
0.0110271
0.0711702
0.0107902
0.0699679
0.01054
0.0686879
0.0102782
0.0673415
0.0100067
0.0659402
0.00972781
0.0644956
0.00944359
0.0630186
0.0091562
0.0615195
0.00886771
0.0600078
0.00858
0.0584918
0.00829479
0.056979
0.00801357
0.0554757
0.00773761
0.0539873
0.00746797
0.0525183
0.00720549
0.0510724
0.00695085
0.0496526
0.00670452
0.048261
0.00646689
0.0468995
0.00623816
0.0455691
0.00601849
0.0442707
0.00580788
0.0430046
0.00560635
0.041771
0.00541375
0.0405697
0.00523004
0.0394004
0.00505496
0.0382624
0.00488846
0.0371552
0.00473017
0.0360778
0.00458009
0.0350293
0.00443777
0.0340088
0.00430329
0.0330152
0.00417609
0.0320474
0.00405641
0.0311043
0.00394352
0.0301846
0.00383788
0.0292872
0.00373856
0.0284109
0.00364629
0.0275543
0.00355987
0.0267163
0.00348037
0.0258957
0.00340626
0.0250911
0.00333903
0.0243014
0.00327672
0.0235251
0.00322138
0.0227613
0.00317045
0.0220083
0.00312666
0.0212652
0.00308668
0.0205304
0.00305415
0.019803
0.00302466
0.0190814
0.00300301
0.0183647
0.00298347
0.0176513
0.00297227
0.0169406
0.00296199
0.0162305
0.00296059
0.015521
0.00295846
0.01481
0.00296568
0.0140977
0.00296994
0.0133819
0.00298394
0.0126635
0.00299207
0.0119402
0.00301031
0.0112138
0.00301901
0.0104818
0.00303807
0.00974702
0.00304284
0.00900713
0.00305817
0.0082661
0.00305329
0.00752166
0.00305947
0.00677936
0.00303846
0.00603698
0.00302827
0.00530141
0.00298626
0.00457168
0.00294723
0.00385242
0.00289381
0.00315042
0.00279717
0.00245606
0.00277154
0.00179814
0.00258101
0.00114851
0.00255234
0.000522667
0.00248602
-1.23521e-05
0.00193211
-0.000712157
0.00300702
-0.000945517
0.000415099
-0.00177984
0.00357588
-0.00200061
0.000830139
-0.00240893
0.00110842
-0.00303943
0.00330222
-0.00257083
-0.00372537
-0.00491874
0.0133874
-0.00244587
-0.0150134
-0.00648029
0.0208262
-0.00498751
-0.00579574
-0.00178232
-0.0222704
-0.0111354
0.0582463
-0.00178656
-0.0553666
-0.0157199
0.0706642