/*--------------------------------*- C++ -*----------------------------------*\
| =========                 |                                                 |
| \\      /  F ield         | OpenFOAM: The Open Source CFD Toolbox           |
|  \\    /   O peration     | Version:  2412                                  |
|   \\  /    A nd           | Website:  www.openfoam.com                      |
|    \\/     M anipulation  |                                                 |
\*---------------------------------------------------------------------------*/
FoamFile
{
    version     2.0;
    format      ascii;
    arch        "LSB;label=32;scalar=64";
    class       surfaceScalarField;
    location    "1.03";
    object      ddtCorrDdt0(phi);
}
// * * * * * * * * * * * * * * * * * * * * * * * * * * * * * * * * * * * * * //

dimensions      [0 3 -2 0 0 0 0];

oriented        oriented;

internalField   nonuniform List<scalar> 
24930
(
-5.17944e-05
-0.000149195
0.000206818
4.97916e-05
-7.02877e-05
8.50214e-05
-6.75005e-06
8.89684e-05
1.99403e-05
8.35176e-05
2.75802e-05
7.46883e-05
2.8204e-05
6.65317e-05
2.38696e-05
5.8317e-05
1.91244e-05
5.23931e-05
1.16354e-05
4.5817e-05
6.33182e-06
3.54625e-05
3.27197e-06
2.01967e-05
9.6249e-07
1.30679e-06
-2.13187e-06
-1.87913e-05
-6.52012e-06
-3.80255e-05
-1.18376e-05
-5.52255e-05
-1.74744e-05
-6.99013e-05
-2.28378e-05
-8.18672e-05
-2.72962e-05
-9.10277e-05
-3.0235e-05
-9.72928e-05
-3.12873e-05
-0.000100544
-3.04728e-05
-0.000100649
-2.80928e-05
-9.75351e-05
-2.45063e-05
-9.12604e-05
-1.9987e-05
-8.20512e-05
-1.47334e-05
-7.02833e-05
-8.94398e-06
-5.64474e-05
-2.86806e-06
-4.11329e-05
3.21228e-06
-2.50099e-05
9.01521e-06
-8.81162e-06
1.43076e-05
6.72323e-06
1.8907e-05
2.08991e-05
2.27111e-05
3.31476e-05
2.56551e-05
4.30479e-05
2.77443e-05
5.03769e-05
2.89803e-05
5.50314e-05
2.94428e-05
5.70419e-05
2.91597e-05
5.64333e-05
2.82384e-05
5.33114e-05
2.66402e-05
4.7715e-05
2.44395e-05
3.98342e-05
2.15014e-05
2.98088e-05
1.79556e-05
1.8083e-05
1.36816e-05
5.05655e-06
9.02947e-06
-8.42382e-06
3.95797e-06
-2.16891e-05
-9.02924e-07
-3.35864e-05
-5.62195e-06
-4.34725e-05
-9.38895e-06
-5.02625e-05
-1.25299e-05
-5.38464e-05
-1.41566e-05
-5.36197e-05
-1.50494e-05
-5.03517e-05
-1.42504e-05
-4.39787e-05
-1.30877e-05
-3.60722e-05
-1.03986e-05
-2.67435e-05
-8.06965e-06
-1.79842e-05
-4.51968e-06
-9.57579e-06
-2.17324e-06
-3.59264e-06
1.20429e-06
8.94413e-07
2.6298e-06
1.94173e-06
5.17698e-06
1.50435e-06
5.22494e-06
-2.08979e-06
6.84381e-06
-5.71084e-06
5.66088e-06
-1.09751e-05
6.84142e-06
-1.39226e-05
5.00043e-06
-1.68265e-05
6.35374e-06
-1.55912e-05
4.20325e-06
-1.38609e-05
5.85697e-06
-7.82796e-06
3.26528e-06
-2.61441e-06
4.98882e-06
5.52056e-06
1.74618e-06
1.05599e-05
3.4966e-06
1.67835e-05
-1.05005e-07
1.81466e-05
1.97575e-06
1.96553e-05
-1.53383e-06
1.60165e-05
3.92511e-07
1.21289e-05
-3.11543e-06
4.68694e-06
-2.8473e-06
-3.21808e-06
-4.764e-06
-1.09649e-05
-5.42559e-06
-2.02586e-05
-3.41408e-06
-2.65869e-05
-7.99521e-06
-3.3067e-05
-7.68524e-06
-4.66e-05
-1.68851e-06
-2.92144e-05
-3.03157e-05
-9.0113e-05
5.25117e-05
1.63815e-05
-0.00010976
-8.50718e-05
0.000134125
-3.27176e-05
-8.029e-05
6.13679e-06
-4.30081e-05
4.59053e-05
-0.000100093
0.000188428
-0.000159194
-0.000780173
0.00116806
0.00117411
-0.00197358
-4.61227e-05
0.00122553
-0.000851731
0.000788864
0.000554814
-0.00136291
-6.45557e-05
0.000700067
0.00250968
-0.00308009
-0.00396662
0.00395863
0.00192603
-0.00651681
0.00159717
0.00120852
-0.00496773
0.00684528
0.0062075
-0.0112605
-0.00826605
0.0144503
0.0070012
-0.0152369
0.00145418
0.00572202
-0.0131388
0.0143471
0.0129267
-0.0260999
-0.00975268
0.0226419
-0.00128008
-0.00858063
0.012216
-0.0134929
-0.0179964
0.0308032
0.00903358
-0.027017
0.0170114
-0.00796357
-0.00876766
0.0258848
-0.0113564
0.00261236
-0.000350207
-0.0109113
0.0064259
-0.00678296
0.000561505
-0.000183088
-0.000192302
0.000259135
-6.35044e-05
-0.000130956
1.87533e-05
-4.30374e-05
6.79835e-05
1.27107e-05
8.95581e-05
4.32527e-05
9.63154e-05
5.17312e-05
9.89891e-05
4.29903e-05
0.000106481
2.45562e-05
0.000115271
5.68726e-06
0.000118301
-5.37532e-06
0.000108735
-8.3485e-06
8.46891e-05
-8.54909e-06
4.94377e-05
-1.15831e-05
8.34957e-06
-1.96631e-05
-3.4e-05
-3.18116e-05
-7.47585e-05
-4.57958e-05
-0.000112428
-5.92216e-05
-0.000146343
-6.9766e-05
-0.000176257
-7.56288e-05
-0.000201905
-7.61961e-05
-0.000222648
-7.2137e-05
-0.00023746
-6.47344e-05
-0.000245242
-5.50762e-05
-0.000245211
-4.37223e-05
-0.000237119
-3.09096e-05
-0.000221274
-1.68965e-05
-0.000198457
-2.14956e-06
-0.000169852
1.27202e-05
-0.000136974
2.70742e-05
-0.000101587
4.03772e-05
-6.55369e-05
5.21829e-05
-3.0591e-05
6.2182e-05
1.77393e-06
7.00879e-05
3.04593e-05
7.57517e-05
5.4831e-05
7.90308e-05
7.45625e-05
8.00524e-05
8.95989e-05
7.89018e-05
9.98822e-05
7.59475e-05
0.000105448
7.12263e-05
0.000106163
6.50795e-05
0.000102063
5.72883e-05
9.30236e-05
4.82827e-05
7.93447e-05
3.77736e-05
6.12311e-05
2.66221e-05
3.96501e-05
1.45816e-05
1.53961e-05
3.10586e-06
-9.74463e-06
-8.22445e-06
-3.45616e-05
-1.74901e-05
-5.68355e-05
-2.5711e-05
-7.5698e-05
-3.05955e-05
-8.92691e-05
-3.41744e-05
-9.78556e-05
-3.37687e-05
-0.000100391
-3.27185e-05
-9.86542e-05
-2.77069e-05
-9.21631e-05
-2.35617e-05
-8.38278e-05
-1.58842e-05
-7.30934e-05
-1.10245e-05
-6.35207e-05
-2.90883e-06
-5.38226e-05
4.99838e-07
-4.77646e-05
7.41152e-06
-4.26464e-05
7.97166e-06
-4.20323e-05
1.29531e-05
-4.13528e-05
1.03562e-05
-4.41138e-05
1.39992e-05
-4.41295e-05
9.24376e-06
-4.57177e-05
1.30955e-05
-4.1857e-05
7.48744e-06
-3.86993e-05
1.26428e-05
-2.9029e-05
6.63727e-06
-2.13407e-05
1.32098e-05
-8.15864e-06
6.5359e-06
-4.10121e-08
1.42585e-05
1.16e-05
6.62251e-06
1.50151e-05
1.50381e-05
2.05362e-05
6.32309e-06
1.6549e-05
1.36941e-05
1.36787e-05
4.53329e-06
3.9228e-06
6.80825e-06
-7.99518e-06
2.17091e-06
-1.62069e-05
-6.6846e-06
-3.91251e-05
6.35172e-06
-3.63295e-05
-2.5256e-05
-7.23328e-05
1.15846e-05
-6.64222e-05
-2.48249e-05
-5.41558e-05
-6.15266e-05
-0.000204578
0.000180501
0.000112465
-0.000442789
-0.000270354
0.000493302
-7.52758e-06
-0.000294439
-8.92741e-05
4.13685e-05
0.000333751
-0.000508667
0.000199724
-2.54083e-05
-0.00203551
0.00324367
0.00371545
-0.00769604
-0.000797247
0.00573407
-0.00212633
0.00214574
0.000853128
-0.00431109
0.000102172
0.00147791
0.00671991
-0.00952243
-0.0116585
0.0227222
0.00753168
-0.0263729
0.00205933
0.00604669
-0.0126683
0.0210205
0.0183276
-0.0425085
-0.0231622
0.0560851
0.0193754
-0.0493923
-0.00113747
0.01774
-0.0363962
0.0497719
0.039829
-0.102418
-0.0283406
0.0908509
0.000898004
-0.0377599
0.0295799
-0.0421806
-0.0545248
0.114508
0.0336853
-0.115255
0.0480692
-0.0223482
-0.030509
0.104298
-0.0312287
0.00332036
0.00158219
-0.0437084
0.0196003
-0.0248878
0.00239206
-0.000254412
-0.000180032
0.000280419
-0.000182449
-0.000152711
-0.000108928
-7.57637e-05
-5.11572e-05
-6.60262e-06
-1.28488e-05
3.90008e-05
1.01345e-05
5.64457e-05
3.02979e-05
4.32767e-05
5.59601e-05
1.15085e-05
8.43733e-05
-1.90649e-05
0.000105209
-3.31849e-05
0.000107898
-2.99878e-05
8.88264e-05
-2.04956e-05
5.22375e-05
-1.696e-05
5.88707e-06
-2.4688e-05
-4.34738e-05
-4.19169e-05
-9.1706e-05
-6.39261e-05
-0.000136835
-8.56972e-05
-0.000178316
-0.000102582
-0.000216359
-0.000111216
-0.000251046
-0.0001108
-0.000281569
-0.000103108
-0.000306181
-9.09081e-05
-0.000322819
-7.62224e-05
-0.000329845
-5.97687e-05
-0.000326444
-4.15332e-05
-0.000312641
-2.15606e-05
-0.000289165
-3.39194e-07
-0.000257332
2.1327e-05
-0.000218947
4.25467e-05
-0.000176195
6.25599e-05
-0.000131422
8.0685e-05
-8.69033e-05
9.63742e-05
-4.45566e-05
0.000109028
-5.82187e-06
0.000118233
2.84255e-05
0.000123599
5.76713e-05
0.000125249
8.16912e-05
0.000123311
0.000100236
0.000118429
0.000113146
0.000110712
0.00012008
0.000100771
0.000120895
8.82763e-05
0.000115288
7.39863e-05
0.000103434
5.74528e-05
8.54099e-05
4.01502e-05
6.21544e-05
2.16581e-05
3.44597e-05
4.37592e-06
4.291e-06
-1.25105e-05
-2.69297e-05
-2.5904e-05
-5.65528e-05
-3.76958e-05
-8.33409e-05
-4.41608e-05
-0.000104848
-4.88809e-05
-0.000121036
-4.73944e-05
-0.000130318
-4.54267e-05
-0.000134328
-3.73239e-05
-0.000132204
-3.12742e-05
-0.000126987
-1.96803e-05
-0.000117894
-1.32662e-05
-0.000108916
-1.48493e-06
-9.86419e-05
2.19352e-06
-9.1495e-05
1.19931e-05
-8.45951e-05
1.11358e-05
-8.22639e-05
1.82512e-05
-7.95545e-05
1.28063e-05
-8.081e-05
1.87373e-05
-7.91887e-05
1.07986e-05
-7.99563e-05
1.84702e-05
-7.50459e-05
1.01904e-05
-7.17288e-05
2.10661e-05
-6.13e-05
1.23608e-05
-5.37965e-05
2.56932e-05
-3.97737e-05
1.49832e-05
-3.21849e-05
2.96923e-05
-1.96489e-05
1.56119e-05
-1.75949e-05
3.09517e-05
-1.14456e-05
1.30433e-05
-1.7825e-05
2.65635e-05
-2.07962e-05
7.09099e-06
-3.26458e-05
1.12936e-05
-4.74796e-05
3.36835e-06
-5.26681e-05
-2.00349e-05
-8.85389e-05
2.06195e-05
-6.70727e-05
-6.89898e-05
-0.000138839
6.01725e-05
-9.20909e-05
-9.48348e-05
-0.000107517
-7.06633e-05
-0.000317885
0.000370518
0.000212895
-0.000987423
-0.000441537
0.0011378
7.24791e-05
-0.000805975
-0.000217622
0.000342083
0.000717095
-0.00143087
2.99921e-05
0.000665987
-0.00315987
0.0064306
0.00649555
-0.0173384
-0.00199844
0.0142378
-0.00312955
0.00330901
0.00111731
-0.00853189
0.000278295
0.00228124
0.0105482
-0.0199603
-0.0194028
0.0529332
0.0144767
-0.0609546
0.00118611
0.0190073
-0.0199184
0.041781
0.0304707
-0.0930749
-0.037995
0.124654
0.0236358
-0.111053
-0.00723686
0.0486284
-0.0599565
0.102527
0.0681209
-0.230463
-0.0471539
0.206106
0.00852099
-0.0934158
0.0419322
-0.0756061
-0.0943797
0.250771
0.0677263
-0.27736
0.0778594
-0.0324562
-0.0572779
0.239423
-0.0495324
-0.00445088
0.00600985
-0.0992209
0.0337676
-0.0526992
0.00623489
-0.000280574
-0.000152298
0.000288628
-0.000241989
-0.000140897
-0.000194979
-8.29761e-05
-0.000148537
-1.54798e-05
-0.00011401
3.73964e-05
-8.9417e-05
5.8423e-05
-6.63349e-05
3.9647e-05
-3.60214e-05
-6.78625e-06
1.88157e-06
-5.32506e-05
3.65976e-05
-7.42171e-05
5.37852e-05
-6.50908e-05
4.57379e-05
-4.22608e-05
1.52214e-05
-2.71074e-05
-2.88009e-05
-3.06059e-05
-7.75865e-05
-5.09681e-05
-0.000125606
-8.04383e-05
-0.000170267
-0.000110688
-0.000211039
-0.000134179
-0.000248726
-0.000145425
-0.000284213
-0.000143192
-0.000317087
-0.000130713
-0.000345278
-0.000112896
-0.000365929
-9.31327e-05
-0.000376593
-7.22867e-05
-0.0003759
-4.98192e-05
-0.000363595
-2.52694e-05
-0.000340314
1.05657e-06
-0.000307405
2.82942e-05
-0.00026681
5.53981e-05
-0.000220942
8.14564e-05
-0.000172426
0.000105577
-0.000123817
0.000126938
-7.72509e-05
0.000144534
-3.4308e-05
0.000157576
4.0671e-06
0.000165339
3.73112e-05
0.000167914
6.5144e-05
0.000165471
8.72199e-05
0.00015898
0.000103274
0.000148632
0.000112849
0.000135328
0.000115728
0.000118588
0.000111527
9.95056e-05
0.000100395
7.74217e-05
8.23495e-05
5.44548e-05
5.83495e-05
2.99358e-05
2.91685e-05
7.25041e-06
-3.10712e-06
-1.49398e-05
-3.69894e-05
-3.22899e-05
-6.95854e-05
-4.77194e-05
-9.95575e-05
-5.59007e-05
-0.000124164
-6.21348e-05
-0.000143341
-5.98821e-05
-0.000155228
-5.74782e-05
-0.000161578
-4.65345e-05
-0.000161277
-3.89694e-05
-0.000157632
-2.34857e-05
-0.000149607
-1.5726e-05
-0.000141621
-9.68966e-09
-0.000131965
3.93441e-06
-0.000125622
1.71889e-05
-0.000119264
1.50296e-05
-0.000117855
2.50212e-05
-0.000115792
1.67727e-05
-0.000118206
2.57533e-05
-0.000117367
1.43943e-05
-0.000119556
2.65391e-05
-0.000115488
1.48976e-05
-0.000113754
3.20495e-05
-0.00010402
1.95348e-05
-9.81728e-05
4.04292e-05
-8.46038e-05
2.438e-05
-7.90414e-05
4.77092e-05
-6.69347e-05
2.57308e-05
-6.78751e-05
5.08629e-05
-6.23544e-05
2.16979e-05
-7.27497e-05
4.50997e-05
-7.6733e-05
1.25649e-05
-9.19781e-05
2.1301e-05
-0.000110188
1.02535e-05
-0.000112777
-3.37638e-05
-0.000162315
5.02223e-05
-0.000120261
-0.000132765
-0.000231387
0.000147887
-0.000135311
-0.000215022
-0.000189187
-4.211e-05
-0.000443255
0.00060312
0.000301727
-0.00174758
-0.000664802
0.00209286
0.000247025
-0.00172107
-0.000404712
0.000993286
0.00108024
-0.00289951
-0.000295513
0.00204449
-0.00417315
0.0103077
0.00940357
-0.0309098
-0.00362918
0.0272835
-0.00383851
0.0035545
0.00146724
-0.0138032
0.000376914
0.0032789
0.0139354
-0.0337575
-0.0271189
0.0939975
0.0226972
-0.1115
-0.000889589
0.0422669
-0.0267129
0.067288
0.0421321
-0.16205
-0.0527513
0.219551
0.0398884
-0.203739
-0.0165645
0.105124
-0.0838741
0.169835
0.0965764
-0.410917
-0.0654509
0.368153
0.0231128
-0.181984
0.0484982
-0.100992
-0.137412
0.436678
0.117751
-0.532551
0.105452
-0.0200943
-0.0887138
0.433606
-0.0658403
-0.0273878
0.0128584
-0.177891
0.0485837
-0.0884548
0.0130585
-0.000291132
-0.0001254
0.000301757
-0.000262088
-0.000116524
-0.00023084
-7.43788e-05
-0.00019304
-1.58961e-05
-0.000160337
3.72389e-05
-0.000138357
6.23382e-05
-0.000122561
4.25896e-05
-0.000102941
-1.48414e-05
-7.36247e-05
-7.90104e-05
-3.9496e-05
-0.000114587
-1.4908e-05
-0.000107444
-1.25913e-05
-7.4315e-05
-3.47703e-05
-4.56291e-05
-7.41218e-05
-4.12725e-05
-0.000120958
-6.19933e-05
-0.000168249
-9.76023e-05
-0.000212143
-0.000136289
-0.000251277
-0.000167252
-0.000286505
-0.000182015
-0.000319718
-0.000177932
-0.000351612
-0.000159545
-0.000380409
-0.00013468
-0.000402668
-0.000108948
-0.000415065
-8.36487e-05
-0.000415565
-5.75009e-05
-0.000403586
-2.91927e-05
-0.000379678
1.39962e-06
-0.000345241
3.34914e-05
-0.000302358
6.59697e-05
-0.000253665
9.78362e-05
-0.000202061
0.000128013
-0.000150366
0.000155371
-0.000100914
0.0001784
-5.53815e-05
0.000195817
-1.47151e-05
0.000206456
2.05518e-05
0.000210339
5.01687e-05
0.000207684
7.37705e-05
0.000199834
9.10586e-05
0.000187082
0.000101511
0.000170649
0.000104886
0.000149862
0.000100757
0.000126164
8.92856e-05
9.86243e-05
7.04465e-05
7.00645e-05
4.52402e-05
3.94922e-05
1.44137e-05
1.13704e-05
-1.98194e-05
-1.62865e-05
-5.59437e-05
-3.77455e-05
-9.08352e-05
-5.71162e-05
-0.000123132
-6.7224e-05
-0.000149826
-7.53026e-05
-0.000170934
-7.23741e-05
-0.000184353
-6.9717e-05
-0.000192074
-5.57446e-05
-0.000192739
-4.6633e-05
-0.000190049
-2.67906e-05
-0.000182667
-1.75231e-05
-0.000175563
2.78688e-06
-0.000166617
7.15465e-06
-0.000161475
2.45797e-05
-0.00015618
2.10904e-05
-0.000156458
3.4592e-05
-0.000155812
2.32048e-05
-0.000160328
3.5807e-05
-0.000161097
2.04156e-05
-0.000165646
3.76895e-05
-0.000163135
2.18435e-05
-0.000163801
4.61418e-05
-0.000155301
2.87408e-05
-0.000151823
5.84608e-05
-0.000139137
3.56982e-05
-0.000136332
6.96035e-05
-0.000125074
3.77954e-05
-0.000129886
7.56499e-05
-0.000125441
3.21864e-05
-0.000140943
6.91914e-05
-0.000146408
1.95066e-05
-0.000166328
3.55067e-05
-0.000188514
2.01418e-05
-0.000189661
-5.03141e-05
-0.000254189
9.29146e-05
-0.000191451
-0.000219735
-0.000345726
0.000275941
-0.000195858
-0.00039197
-0.000301127
3.52382e-05
-0.000582345
0.000859903
0.000369794
-0.00271656
-0.000923715
0.00337577
0.00021882
-0.00286694
-0.000699785
0.00190903
0.00145231
-0.00503746
-0.000795613
0.00429485
-0.00507333
0.0145875
0.0123385
-0.0483181
-0.00566125
0.045294
-0.00419566
0.00212557
0.00185223
-0.0198118
0.000368563
0.00468214
0.0168509
-0.0505171
-0.0345853
0.145412
0.0320749
-0.178925
-0.00411428
0.0781409
-0.0329838
0.0958565
0.0529589
-0.248137
-0.0670744
0.339675
0.059561
-0.330423
-0.0286882
0.193423
-0.108103
0.249241
0.123696
-0.64274
-0.0824719
0.574311
0.0461659
-0.310627
0.0489498
-0.103776
-0.183305
0.668963
0.133197
-0.849058
0.129913
-0.0167759
-0.123949
0.687485
-0.0798601
-0.0715304
0.0218623
-0.279579
0.0636161
-0.13024
0.0239726
-0.00029996
-0.000104863
0.000317953
-0.000266425
-9.43118e-05
-0.000239261
-6.20813e-05
-0.000203383
-1.49236e-05
-0.000167337
3.29107e-05
-0.000141017
6.10553e-05
-0.000128234
4.79339e-05
-0.000122065
-9.86688e-06
-0.000112339
-8.56224e-05
-9.45524e-05
-0.000139161
-7.56731e-05
-0.000144687
-6.93904e-05
-0.000110963
-8.42084e-05
-7.21695e-05
-0.000118073
-5.80868e-05
-0.000162943
-7.56013e-05
-0.000211137
-0.000114415
-0.000257171
-0.000160244
-0.000297613
-0.000199482
-0.000331992
-0.000219924
-0.000362737
-0.000215637
-0.000392342
-0.000191188
-0.000420361
-0.000157749
-0.000443337
-0.000124494
-0.000457061
-9.40233e-05
-0.000458604
-6.43346e-05
-0.000446869
-3.28897e-05
-0.000422219
1.19647e-06
-0.000386054
3.7406e-05
-0.000340569
7.46626e-05
-0.000288614
0.000111968
-0.000233383
0.000148123
-0.00017803
0.000181703
-0.000125161
0.000210616
-7.66105e-05
0.000232963
-3.33524e-05
0.000246998
4.11886e-06
0.000252609
3.56107e-05
0.000250048
6.07601e-05
0.00024109
7.92488e-05
0.000226148
9.04824e-05
0.000206814
9.41925e-05
0.000182173
8.98968e-05
0.000154045
7.77788e-05
0.000121152
5.77698e-05
8.70949e-05
3.09336e-05
5.04711e-05
-2.01672e-06
1.69466e-05
-3.87124e-05
-1.6265e-05
-7.76226e-05
-4.1868e-05
-0.000115352
-6.53856e-05
-0.000150532
-7.75094e-05
-0.000179834
-8.77095e-05
-0.000203386
-8.41432e-05
-0.000218771
-8.14736e-05
-0.000228273
-6.43348e-05
-0.000230207
-5.38167e-05
-0.000228754
-2.92597e-05
-0.000222187
-1.85454e-05
-0.000216146
6.91605e-06
-0.00020798
1.16551e-05
-0.000204166
3.39404e-05
-0.00019996
2.8943e-05
-0.00020206
4.6689e-05
-0.000202877
3.17757e-05
-0.000209706
4.88309e-05
-0.000212194
2.88286e-05
-0.00021942
5.22606e-05
-0.000218643
3.13874e-05
-0.00022213
6.4076e-05
-0.000215102
4.05959e-05
-0.000214537
8.07155e-05
-0.000203045
4.95856e-05
-0.000203708
9.63372e-05
-0.000193701
5.23837e-05
-0.000203309
0.000106347
-0.000200419
4.50938e-05
-0.000222216
0.000100152
-0.000229724
2.86996e-05
-0.000255792
5.56949e-05
-0.000282745
3.42693e-05
-0.000283963
-6.7622e-05
-0.000365098
0.000151106
-0.000282067
-0.000328432
-0.000483802
0.000449769
-0.000275922
-0.000628832
-0.000445907
0.000175416
-0.000736248
0.00112392
0.000406046
-0.00387703
-0.00122288
0.00499421
0.000245609
-0.0043392
-0.000945356
0.00309558
0.00196197
-0.00793311
-0.00148223
0.00774064
-0.00585027
0.0189556
0.0151925
-0.069358
-0.00804225
0.0685391
-0.00414901
-0.00173111
0.00217358
-0.0260904
0.000266056
0.00650855
0.0191852
-0.0697394
-0.0420259
0.206125
0.0424238
-0.264182
-0.00836106
0.128602
-0.038657
0.125844
0.0622179
-0.349159
-0.0813177
0.484113
0.0826254
-0.494417
-0.0428182
0.31892
-0.13255
0.338958
0.147547
-0.922861
-0.097772
0.819627
0.0790161
-0.487422
0.0440302
-0.0687875
-0.231305
0.944333
0.190298
-1.27069
0.151054
0.0225291
-0.161434
0.999986
-0.0915685
-0.14144
0.032628
-0.403742
0.0783706
-0.176022
0.0402208
-0.00030927
-8.97887e-05
0.00033256
-0.000268286
-7.7882e-05
-0.000240497
-5.13277e-05
-0.000204564
-1.52391e-05
-0.000164792
2.34062e-05
-0.000131069
5.12567e-05
-0.000113001
4.7412e-05
-0.000112501
2.23993e-07
-0.000120115
-7.58259e-05
-0.000124902
-0.000142469
-0.000122724
-0.000166558
-0.000121423
-0.000143719
-0.000132471
-0.000103303
-0.000160575
-8.13029e-05
-0.000202422
-9.27657e-05
-0.000251826
-0.000130476
-0.00030249
-0.000179973
-0.000348243
-0.000226755
-0.000385359
-0.000255401
-0.000415105
-0.000254604
-0.000441711
-0.00022605
-0.00046733
-0.000183385
-0.000489716
-0.000140705
-0.000504231
-0.00010356
-0.000506914
-6.98305e-05
-0.000495863
-3.55267e-05
-0.000471022
1.38316e-06
-0.00043362
4.08992e-05
-0.00038583
8.2124e-05
-0.00033062
0.000124189
-0.00027146
0.000165904
-0.0002119
0.000205653
-0.00015494
0.000240744
-0.000102699
0.000268539
-5.6246e-05
0.000286524
-1.60546e-05
0.000294344
1.77649e-05
0.000292219
4.48781e-05
0.000282412
6.49625e-05
0.000265491
7.73326e-05
0.000243501
8.16693e-05
0.00021524
7.74024e-05
0.000182942
6.47394e-05
0.000144877
4.35616e-05
0.000105513
1.50211e-05
6.29178e-05
-2.02122e-05
2.41233e-05
-5.95884e-05
-1.46494e-05
-0.000101581
-4.4324e-05
-0.000142484
-7.21275e-05
-0.000180948
-8.62685e-05
-0.000213267
-9.88505e-05
-0.000239718
-9.46446e-05
-0.000257486
-9.22614e-05
-0.000269213
-7.18283e-05
-0.000272783
-6.0164e-05
-0.00027296
-3.05622e-05
-0.000267494
-1.86124e-05
-0.000262841
1.25556e-05
-0.00025566
1.74619e-05
-0.000253449
4.53521e-05
-0.000250486
3.85414e-05
-0.000254698
6.1412e-05
-0.000257151
4.24953e-05
-0.000266673
6.50829e-05
-0.000271125
3.98179e-05
-0.000281537
7.07672e-05
-0.00028283
4.39405e-05
-0.000289794
8.66426e-05
-0.00028467
5.57132e-05
-0.000287846
0.00010822
-0.000278091
6.67881e-05
-0.000283247
0.00012912
-0.000275134
7.02965e-05
-0.000290776
0.000144302
-0.000290149
6.12011e-05
-0.000319714
0.000139468
-0.000330048
4.08943e-05
-0.000363987
8.34983e-05
-0.000396715
5.35095e-05
-0.000399762
-8.40854e-05
-0.000499285
0.000226434
-0.000396711
-0.000458153
-0.000650157
0.000673584
-0.000380698
-0.000929216
-0.000629097
0.000391993
-0.000908702
0.00137526
0.00039794
-0.00520309
-0.0015623
0.00694375
0.000262513
-0.00616764
-0.0011775
0.00453064
0.00203731
-0.0111394
-0.00238727
0.0121657
-0.00650642
0.0230765
0.0178507
-0.0937128
-0.0107023
0.0971026
-0.00366312
-0.00873288
0.0023344
-0.0320393
9.94895e-05
0.00866364
0.0210933
-0.0910646
-0.0486925
0.27376
0.0535487
-0.367268
-0.0133976
0.195214
-0.0437187
0.155846
0.0699552
-0.462986
-0.0943136
0.644054
0.108866
-0.697643
-0.0578178
0.485661
-0.156846
0.43797
0.166209
-1.24594
-0.111514
1.09741
0.12241
-0.721354
0.0359251
0.0177008
-0.280572
1.26087
0.247325
-1.79862
0.169129
0.100787
-0.198711
1.36784
-0.101608
-0.238484
0.0446091
-0.550007
0.0923353
-0.223795
0.0632174
-0.000319865
-7.81918e-05
0.00034579
-0.0002729
-6.62476e-05
-0.000243908
-4.3338e-05
-0.000208769
-1.65949e-05
-0.000168575
1.17574e-05
-0.0001305
3.59174e-05
-0.000105687
3.93091e-05
-0.000102467
6.49899e-06
-0.000118518
-5.93521e-05
-0.000140896
-0.000130284
-0.000158073
-0.000170968
-0.00016828
-0.000166262
-0.000180463
-0.000133994
-0.000203903
-0.000109494
-0.000241286
-0.000114527
-0.000290194
-0.000147082
-0.000345569
-0.000194971
-0.000399544
-0.000245702
-0.000444006
-0.000283322
-0.000476363
-0.000290645
-0.0005008
-0.000262686
-0.000522548
-0.000212436
-0.000542256
-0.000159088
-0.000556101
-0.000113197
-0.000559429
-7.40324e-05
-0.000549357
-3.64364e-05
-0.000525101
3.03417e-06
-0.000487424
4.51659e-05
-0.000438215
8.94162e-05
-0.000380349
0.000135224
-0.000317443
0.000181628
-0.000253457
0.000227062
-0.000191925
0.000268337
-0.000135429
0.000301999
-8.52723e-05
0.000324535
-4.19635e-05
0.000335142
-5.50399e-06
0.000333872
2.38545e-05
0.000323499
4.58377e-05
0.000304774
5.96711e-05
0.000280333
6.49631e-05
0.000248667
6.10083e-05
0.000212486
4.80291e-05
0.000169467
2.58447e-05
0.000125035
-4.27492e-06
7.65776e-05
-4.17193e-05
3.2698e-05
-8.37332e-05
-1.16047e-05
-0.000128831
-4.51958e-05
-0.000172957
-7.73701e-05
-0.000214833
-9.34234e-05
-0.000250312
-0.000108598
-0.000279881
-0.000103643
-0.000300242
-0.00010183
-0.000314482
-7.7881e-05
-0.00031994
-6.53613e-05
-0.000322087
-3.03009e-05
-0.000317997
-1.74086e-05
-0.000315108
2.00999e-05
-0.000309188
2.48441e-05
-0.000308994
5.91901e-05
-0.000307571
5.01205e-05
-0.000314385
7.91677e-05
-0.000318832
5.56274e-05
-0.000331657
8.50808e-05
-0.000338514
5.37463e-05
-0.000352863
9.39125e-05
-0.000356748
6.00227e-05
-0.000368091
0.00011479
-0.000365488
7.48057e-05
-0.000373484
0.000142196
-0.000366184
8.81936e-05
-0.000377112
0.000169409
-0.000371704
9.2514e-05
-0.000394857
0.00019113
-0.000397375
8.14837e-05
-0.000436393
0.000188862
-0.000450551
5.70742e-05
-0.000494266
0.000120761
-0.000534061
7.90588e-05
-0.000540865
-9.7897e-05
-0.000660877
0.000320884
-0.000539743
-0.000608002
-0.000849373
0.000951809
-0.000515174
-0.0012963
-0.000855921
0.000698861
-0.00110357
0.00159272
0.000332222
-0.00665953
-0.00194034
0.00920528
0.00025308
-0.00836456
-0.00149207
0.00627041
0.00196697
-0.0145925
-0.0035969
0.0177296
-0.00720473
0.026691
0.0201916
-0.121106
-0.013568
0.130873
-0.00273206
-0.0195296
0.00223229
-0.0369501
3.5306e-05
0.0107801
0.022834
-0.114225
-0.0552784
0.353626
0.064973
-0.488408
-0.018905
0.278749
-0.0478237
0.184434
0.0759837
-0.586959
-0.107396
0.831947
0.137259
-0.942348
-0.0723509
0.695331
-0.180181
0.545784
0.178103
-1.60426
-0.124763
1.40016
0.176047
-1.02217
0.0283703
0.165382
-0.32939
1.61868
0.302027
-2.43007
0.184826
0.218054
-0.232409
1.78509
-0.116943
-0.353825
0.0571717
-0.724377
0.105008
-0.271676
0.0945927
-0.000332446
-6.90028e-05
0.000359451
-0.0002814
-5.81173e-05
-0.000251748
-3.81558e-05
-0.000218185
-1.85131e-05
-0.000180617
8.9465e-07
-0.000143303
1.98073e-05
-0.000115535
2.66225e-05
-0.000107764
6.06223e-06
-0.000123585
-4.57695e-05
-0.000154058
-0.000112671
-0.000185337
-0.000163338
-0.000208224
-0.000177266
-0.000225567
-0.000159854
-0.000247079
-0.00013946
-0.00027997
-0.000140424
-0.000326201
-0.000165907
-0.00038378
-0.000207194
-0.000445742
-0.000255935
-0.000500908
-0.000299632
-0.000541014
-0.000317859
-0.000566876
-0.0002967
-0.000585217
-0.000243651
-0.000600537
-0.000180626
-0.000611643
-0.000124381
-0.00061433
-7.77243e-05
-0.000605016
-3.54606e-05
-0.000582029
7.08829e-06
-0.00054534
5.16088e-05
-0.000496174
9.80432e-05
-0.000436947
0.000146327
-0.000371133
0.000196031
-0.00030298
0.000246037
-0.000236637
0.000292977
-0.000175385
0.000332648
-0.000120995
0.0003603
-7.41588e-05
0.000374397
-3.47933e-05
0.000374548
-3.01008e-06
0.000363982
2.10615e-05
0.000343626
3.66039e-05
0.000316884
4.3152e-05
0.000281971
3.98028e-05
0.000242201
2.67662e-05
0.000194478
3.77289e-06
0.00014528
-2.77543e-05
9.1099e-05
-6.72816e-05
4.23721e-05
-0.000111818
-7.40043e-06
-0.000159966
-4.46689e-05
-0.000207281
-8.12497e-05
-0.000252615
-9.89945e-05
-0.000291314
-0.000116924
-0.000324156
-0.000110982
-0.000347257
-0.000110001
-0.000364261
-8.21881e-05
-0.000371829
-6.91231e-05
-0.00037629
-2.80674e-05
-0.000373855
-1.46002e-05
-0.000373149
3.00045e-05
-0.000368805
3.41291e-05
-0.000371118
7.59349e-05
-0.000371597
6.40094e-05
-0.000381611
0.000100506
-0.000388487
7.1549e-05
-0.000405347
0.0001095
-0.000415121
7.10796e-05
-0.000434283
0.00012255
-0.000441353
8.02323e-05
-0.000458119
0.000149606
-0.000458727
9.86451e-05
-0.00047279
0.000184001
-0.00046875
0.000114745
-0.000486915
0.000218815
-0.000485135
0.000120095
-0.000517471
0.000248616
-0.000524181
0.000107064
-0.000574525
0.000250243
-0.000593774
7.84997e-05
-0.000649309
0.000169483
-0.000697894
0.000112569
-0.000710448
-0.000107158
-0.000853645
0.000437045
-0.000715001
-0.000777023
-0.00108587
0.00128942
-0.00068404
-0.00173302
-0.00113152
0.00111034
-0.00132512
0.00175417
0.000195702
-0.00820227
-0.00235462
0.0117442
0.000200702
-0.0109232
-0.00188537
0.00835083
0.00189866
-0.0183722
-0.00448116
0.024109
-0.00718713
0.0294018
0.0220573
-0.15035
-0.0165926
0.169528
-0.00138469
-0.0346884
0.0017674
-0.0400435
0.000145177
0.01232
0.0234536
-0.137913
-0.0618324
0.438715
0.0763605
-0.627532
-0.024531
0.379291
-0.050888
0.210449
0.0786603
-0.716675
-0.120917
1.03074
0.1668
-1.23011
-0.0851569
0.94735
-0.201241
0.661853
0.183004
-1.98854
-0.138641
1.72187
0.238265
-1.39909
0.0262699
0.377382
-0.374953
2.01996
0.349373
-3.15443
0.19893
0.368569
-0.258777
2.24282
-0.0962777
-0.51628
0.0697807
-0.890489
0.115958
-0.317894
0.13627
-0.000347223
-6.20088e-05
0.000374583
-0.000293644
-5.26982e-05
-0.000264134
-3.54534e-05
-0.000232402
-2.10565e-05
-0.000198623
-8.50036e-06
-0.00016529
5.26603e-06
-0.000138901
1.2531e-05
-0.000128595
-1.16751e-07
-0.00014035
-3.95093e-05
-0.000171123
-9.74993e-05
-0.000208304
-0.000151532
-0.000240509
-0.000179619
-0.000264608
-0.000178802
-0.000287506
-0.000167435
-0.000317957
-0.000167959
-0.000360905
-0.000187074
-0.000417438
-0.000219309
-0.000483693
-0.000260443
-0.00054892
-0.000304168
-0.000600392
-0.00033176
-0.000632921
-0.000321957
-0.000651173
-0.000272844
-0.000662343
-0.000204294
-0.000669088
-0.000138069
-0.000669333
-8.21928e-05
-0.000659799
-3.32241e-05
-0.000638227
1.38894e-05
-0.000603686
6.14366e-05
-0.00055639
0.000109744
-0.000497821
0.000159319
-0.000430822
0.000210541
-0.000359569
0.000263291
-0.000288733
0.000314584
-0.000222464
0.000359806
-0.000163311
0.000392868
-0.00011244
0.000411188
-6.98365e-05
0.000413521
-3.54763e-05
0.000403338
-9.22511e-06
0.000381605
8.16651e-06
0.000352688
1.62136e-05
0.000314608
1.37546e-05
0.000271522
9.34953e-07
0.000219376
-2.26618e-05
0.000165806
-5.5426e-05
0.000106098
-9.69181e-05
5.28401e-05
-0.000143865
-2.30705e-06
-0.000195015
-4.29202e-05
-0.00024548
-8.39e-05
-0.000294318
-0.000102996
-0.000336286
-0.000123805
-0.000372551
-0.000116505
-0.000398527
-0.000116609
-0.000418551
-8.44439e-05
-0.000428442
-7.11736e-05
-0.000435578
-2.34363e-05
-0.000435078
-9.84559e-06
-0.000437004
4.27688e-05
-0.000434554
4.56741e-05
-0.000439907
9.61421e-05
-0.000442663
8.05909e-05
-0.000456537
0.000126081
-0.000466294
9.07018e-05
-0.000487992
0.000139131
-0.000501212
9.23391e-05
-0.000526151
0.000157649
-0.000537023
0.000105212
-0.000560375
0.000192303
-0.000564932
0.000128044
-0.000586462
0.000235135
-0.000586569
0.000147444
-0.000613627
0.000279112
-0.000616525
0.000154207
-0.000659927
0.000318738
-0.000672096
0.00013928
-0.00073582
0.000325698
-0.000761823
0.000106834
-0.000831292
0.000231747
-0.000891064
0.000156374
-0.000911241
-0.000110083
-0.00108133
0.000578514
-0.000925969
-0.000964533
-0.00136429
0.00169251
-0.000891904
-0.00224241
-0.00146127
0.00164148
-0.00157844
0.00183715
-2.46835e-05
-0.00977925
-0.00280343
0.014511
8.59437e-05
-0.0138159
-0.00236102
0.0107919
0.00178599
-0.0225159
-0.0051347
0.0310291
-0.00786781
0.0321154
0.0225184
-0.180737
-0.0198454
0.211883
0.000324267
-0.0547899
0.000832032
-0.0404873
0.000655233
0.0124125
0.0238908
-0.16155
-0.0681237
0.530665
0.087083
-0.783716
-0.0299765
0.496001
-0.0523943
0.232519
0.0801876
-0.849433
-0.134066
1.24525
0.19549
-1.55972
-0.0953729
1.23828
-0.218273
0.784737
0.181193
-2.38803
-0.156251
2.06045
0.306247
-1.8616
0.0347672
0.648859
-0.41336
2.46814
0.383944
-3.95178
0.211605
0.540984
-0.27474
2.72918
-0.1024
-0.688686
0.0819741
-1.07484
0.125104
-0.361062
0.190786
-0.000364285
-5.72384e-05
0.000391427
-0.000309304
-4.97515e-05
-0.000280642
-3.5038e-05
-0.000250861
-2.4684e-05
-0.000220846
-1.72753e-05
-0.000192325
-7.8714e-06
-0.000169551
-1.61436e-06
-0.000159275
-9.93622e-06
-0.000167314
-4.015e-05
-0.000193907
-8.87331e-05
-0.000230874
-0.000141044
-0.000267449
-0.00017771
-0.000297625
-0.000191116
-0.000324405
-0.000190614
-0.000355496
-0.00019374
-0.000396654