/*--------------------------------*- C++ -*----------------------------------*\
| =========                 |                                                 |
| \\      /  F ield         | OpenFOAM: The Open Source CFD Toolbox           |
|  \\    /   O peration     | Version:  2412                                  |
|   \\  /    A nd           | Website:  www.openfoam.com                      |
|    \\/     M anipulation  |                                                 |
\*---------------------------------------------------------------------------*/
FoamFile
{
    version     2.0;
    format      ascii;
    arch        "LSB;label=32;scalar=64";
    class       volScalarField;
    location    "0.39";
    object      p;
}
// * * * * * * * * * * * * * * * * * * * * * * * * * * * * * * * * * * * * * //

dimensions      [0 2 -2 0 0 0 0];

internalField   nonuniform List<scalar> 
12600
(
0.25632
-154.667
-204.924
-201.703
-189.194
-177.557
-167.354
-158.226
-149.955
-142.379
-135.369
-128.829
-122.683
-116.875
-111.359
-106.096
-101.056
-96.2135
-91.5459
-87.0339
-82.6612
-78.4144
-74.2815
-70.2521
-66.3167
-62.4668
-58.6949
-54.9944
-51.3597
-47.7855
-44.2668
-40.7992
-37.3782
-33.9998
-30.6602
-27.3562
-24.0849
-20.8437
-17.6304
-14.4427
-11.278
-8.13402
-5.00848
-1.89933
1.1951
4.27648
7.3463
10.4063
13.458
16.5031
19.5428
22.5785
25.6114
28.6431
31.6743
34.7067
37.7409
40.7782
43.8192
46.8648
49.9155
52.9725
56.0369
59.1097
62.1912
65.2808
68.3781
71.4823
74.5945
77.714
80.841
83.9749
87.115
90.2648
93.4226
96.5914
99.7654
102.942
106.12
109.288
112.467
115.619
118.794
121.94
125.119
128.273
131.407
134.529
137.633
140.756
143.9
146.983
150.111
153.206
156.459
159.758
162.817
165.957
169.376
173.53
178.151
183.341
189.688
197.75
206.33
214.007
220.156
224.965
229.129
233.761
238.05
243.627
247.582
253.918
257.163
262.256
262.843
261.794
259.894
252.024
-23.8971
-123.739
-171.324
-180.986
-177.746
-170.964
-163.176
-155.37
-147.906
-140.861
-134.22
-127.946
-121.999
-116.341
-110.94
-105.768
-100.8
-96.0155
-91.3942
-86.9197
-82.5777
-78.356
-74.2438
-70.2315
-66.3103
-62.472
-58.7098
-55.0174
-51.3893
-47.8205
-44.3063
-40.8422
-37.4242
-34.0481
-30.7103
-27.4077
-24.1374
-20.8969
-17.6841
-14.4966
-11.332
-8.18795
-5.0622
-1.95273
1.1421
4.22397
7.29434
10.355
13.4073
16.4531
19.4935
22.53
25.5637
28.5961
31.6281
34.6612
37.6961
40.7342
43.776
46.8223
49.8738
52.9315
55.9967
59.0702
62.1524
65.2427
68.3406
71.4455
74.5583
77.6784
80.8061
83.9407
87.0814
90.2319
93.3903
96.5598
99.7344
102.911
106.09
109.259
112.438
115.591
118.767
121.913
125.092
128.248
131.382
134.504
137.609
140.731
143.876
146.96
150.088
153.183
156.436
159.736
162.797
165.937
169.352
173.502
178.12
183.305
189.64
197.692
206.272
213.959
220.118
224.936
229.101
233.733
238.019
243.597
247.55
253.887
257.136
262.236
262.84
261.799
259.914
252.04
-40.7559
-102.285
-145.178
-162.689
-166.013
-163.36
-158.19
-152.01
-145.55
-139.148
-132.94
-126.97
-121.244
-115.751
-110.476
-105.401
-100.51
-95.7858
-91.213
-86.7777
-82.4675
-78.2719
-74.1811
-70.1864
-66.2797
-62.4535
-58.7012
-55.0171
-51.3958
-47.8327
-44.3231
-40.8629
-37.448
-34.0744
-30.7387
-27.4376
-24.1686
-20.9291
-17.717
-14.53
-11.3657
-8.22173
-5.09598
-1.9864
1.10863
4.19076
7.26147
10.3225
13.3753
16.4215
19.4624
22.4995
25.5337
28.5666
31.5992
34.6329
37.6684
40.707
43.7494
46.7963
49.8483
52.9066
55.9723
59.0463
62.1291
65.22
68.3184
71.4238
74.5371
77.6576
80.7858
83.9208
87.062
90.213
93.3719
96.5419
99.7169
102.894
106.073
109.243
112.423
115.575
118.752
121.899
125.078
128.234
131.369
134.491
137.596
140.719
143.864
146.948
150.076
153.172
156.424
159.725
162.787
165.926
169.34
173.488
178.104
183.287
189.619
197.664
206.242
213.934
220.099
224.922
229.087
233.719
238.003
243.582
247.533
253.871
257.121
262.226
262.839
261.803
259.926
252.047
-48.6934
-88.5299
-124.024
-144.597
-152.825
-154.115
-151.794
-147.559
-142.391
-136.853
-131.235
-125.677
-120.247
-114.973
-109.862
-104.914
-100.122
-95.4762
-90.9658
-86.5809
-82.3118
-78.1498
-74.0867
-70.1149
-66.2272
-62.4168
-58.6778
-55.0046
-51.3926
-47.8372
-44.3341
-40.8793
-37.4688
-34.0989
-30.7663
-27.4678
-24.2008
-20.963
-17.7522
-14.5662
-11.4027
-8.25929
-5.13393
-2.02459
1.07033
4.15247
7.22327
10.2845
13.3375
16.3841
19.4253
22.4627
25.4973
28.5308
31.5638
34.598
37.634
40.6731
43.716
46.7634
49.816
52.8748
55.941
59.0155
62.0988
65.1902
68.2891
71.3949
74.5087
77.6298
80.7584
83.894
87.0356
90.1871
93.3465
96.5169
99.6924
102.87
106.05
109.219
112.4
115.553
118.73
121.877
125.057
128.213
131.349
134.471
137.576
140.699
143.845
146.929
150.058
153.153
156.405
159.707
162.771
165.91
169.32
173.465
178.078
183.257
189.574
197.616
206.196
213.896
220.069
224.899
229.064
233.696
237.978
243.558
247.507
253.847
257.1
262.212
262.838
261.808
259.944
252.059
-53.7424
-80.2614
-107.222
-126.935
-138.068
-142.829
-143.456
-141.489
-137.97
-133.6
-128.807
-123.838
-118.835
-113.875
-109
-104.231
-99.5774
-95.0399
-90.6156
-86.2997
-82.0863
-77.9698
-73.944
-70.0031
-66.1408
-62.3517
-58.6303
-54.9721
-51.3724
-47.8274
-44.3331
-40.8856
-37.4812
-34.1165
-30.7881
-27.4931
-24.2291
-20.9937
-17.7849
-14.6005
-11.4382
-8.29578
-5.17115
-2.06233
1.03223
4.11416
7.18489
10.2461
13.2993
16.3461
19.3876
22.4254
25.4604
28.4942
31.5277
34.5623
37.5988
40.6385
43.6819
46.7298
49.7829
52.8423
55.9091
58.9842
62.068
65.1599
68.2594
71.3658
74.4802
77.6018
80.731
83.867
87.0092
90.1612
93.3211
96.492
99.6681
102.846
106.027
109.197
112.378
115.531
118.709
121.856
125.036
128.193
131.329
134.453
137.557
140.681
143.827
146.912
150.041
153.136
156.388
159.691
162.755
165.894
169.301
173.443
178.054
183.228
189.54
197.572
206.153
213.86
220.042
224.877
229.043
233.675
237.954
243.536
247.482
253.825
257.079
262.198
262.838
261.815
259.962
252.069
-57.0204
-75.1929
-94.8362
-111.747
-123.606
-130.533
-133.58
-133.812
-132.114
-129.157
-125.425
-121.247
-116.831
-112.312
-107.771
-103.258
-98.8017
-94.4182
-90.1154
-85.8961
-81.7605
-77.7069
-73.7326
-69.8338
-66.0064
-62.2462
-58.5489
-54.9107
-51.3279
-47.797
-44.3145
-40.877
-37.481
-34.1233
-30.8008
-27.5109
-24.251
-21.0191
-17.8132
-14.6311
-11.4708
-8.32997
-5.20658
-2.09875
0.995055
4.07643
7.14678
10.2078
13.2609
16.3077
19.3493
22.3872
25.4225
28.4566
31.4904
34.5255
37.5624
40.6025
43.6463
46.6948
49.7484
52.8083
55.8756
58.9512
62.0356
65.128
68.228
71.335
74.4498
77.572
80.7017
83.8383
86.981
90.1336
93.294
96.4654
99.642
102.821
106.001
109.172
112.354
115.508
118.685
121.834
125.014
128.172
131.308
134.432
137.537
140.66
143.807
146.893
150.022
153.117
156.368
159.673
162.739
165.876
169.28
173.418
178.026
183.195
189.494
197.522
206.106
213.822
220.013
224.854
229.019
233.652
237.928
243.511
247.454
253.8
257.057
262.185
262.839
261.823
259.982
252.081
-58.6284
-71.6638
-86.0174
-99.7392
-110.84
-118.557
-123.111
-125.069
-125.029
-123.522
-120.985
-117.755
-114.081
-110.139
-106.046
-101.882
-97.6987
-93.5305
-89.3983
-85.3153
-81.2892
-77.3243
-73.4221
-69.5822
-65.8034
-62.0832
-58.4192
-54.8088
-51.2493
-47.7378
-44.2716
-40.8478
-37.4634
-34.1154
-30.8012
-27.5181
-24.2641
-21.0372
-17.8354
-14.6568
-11.4993
-8.36085
-5.23942
-2.13318
0.959347
4.03971
7.10929
10.1698
13.2224
16.269
19.3105
22.3484
25.3837
28.418
31.4521
34.4874
37.5246
40.5651
43.6093
46.6582
49.7123
52.7726
55.8404
58.9166
62.0015
65.0944
68.195
71.3025
74.4179
77.5406
80.6709
83.808
86.9513
90.1044
93.2654
96.4373
99.6144
102.794
105.975
109.146
112.328
115.483
118.661
121.81
124.991
128.149
131.286
134.41
137.515
140.639
143.786
146.873
150.002
153.097
156.347
159.655
162.721
165.857
169.256
173.392
177.997
183.16
189.448
197.47
206.056
213.782
219.982
224.83
228.995
233.627
237.899
243.484
247.425
253.773
257.034
262.171
262.841
261.832
260.005
252.094
-59.0729
-68.8566
-79.6
-90.4717
-100.139
-107.696
-112.918
-115.987
-117.225
-116.986
-115.602
-113.368
-110.526
-107.264
-103.721
-99.9993
-96.1718
-92.2893
-88.3873
-84.4903
-80.6151
-76.773
-72.9711
-69.2136
-65.5026
-61.8384
-58.221
-54.6493
-51.1221
-47.6377
-44.1942
-40.7895
-37.4211
-34.0867
-30.7839
-27.5105
-24.2647
-21.0447
-17.8488
-14.6751
-11.5218
-8.38677
-5.26822
-2.16439
0.926149
4.00489
7.07317
10.1326
13.1845
16.2305
19.2715
22.3092
25.3444
28.3786
31.4128
34.4482
37.4856
40.5264
43.5709
46.6202
49.6746
52.7354
55.8037
58.8803
61.9657
65.0592
68.1602
71.2683
74.3842
77.5075
80.6383
83.7761
86.9199
90.0736
93.2352
96.4076
99.5853
102.765
105.947
109.119
112.302
115.457
118.635
121.784
124.966
128.125
131.262
134.387
137.492
140.616
143.764
146.851
149.981
153.075
156.325
159.635
162.702
165.836
169.231
173.362
177.964
183.121
189.397
197.413
206.004
213.741
219.951
224.804
228.968
233.599
237.869
243.456
247.393
253.746
257.01
262.158
262.844
261.844
260.031
252.107
-58.8015
-66.3822
-74.6371
-83.2155
-91.3237
-98.2166
-103.513
-107.15
-109.24
-109.975
-109.577
-108.268
-106.253
-103.707
-100.773
-97.5623
-94.159
-90.6273
-87.0148
-83.3565
-79.6784
-75.9991
-72.3319
-68.6859
-65.0674
-61.4803
-57.927
-54.409
-50.9266
-47.4799
-44.068
-40.6898
-37.3438
-34.0283
-30.7415
-27.4817
-24.2474
-21.0372
-17.8495
-14.6828
-11.5354
-8.40533
-5.29098
-2.19068
0.896899
3.97319
7.03945
10.0973
13.1478
16.1928
19.233
22.2701
25.3048
28.3388
31.3727
34.4081
37.4456
40.4865
43.5312
46.5807
49.6355
52.6967
55.7653
58.8424
61.9283
65.0222
68.1237
71.2323
74.3488
77.4727
80.604
83.7424
86.8868
90.041
93.2032
96.3762
99.5545
102.735
105.917
109.09
112.273
115.429
118.608
121.758
124.939
128.099
131.237
134.362
137.468
140.592
143.741
146.828
149.958
153.052
156.302
159.614
162.682
165.814
169.203
173.331
177.929
183.078
189.341
197.351
205.948
213.698
219.918
224.777
228.94
233.571
237.837
243.425
247.359
253.716
256.985
262.145
262.849
261.857
260.06
252.121
-58.057
-64.0469
-70.5318
-77.3515
-84.0445
-90.0814
-95.087
-98.8879
-101.459
-102.868
-103.237
-102.713
-101.449
-99.592
-97.272
-94.5977
-91.6575
-88.5216
-85.2454
-81.8718
-78.4338
-74.9568
-71.4598
-67.9572
-64.4592
-60.9736
-57.5059
-54.06
-50.6385
-47.243
-43.8744
-40.5328
-37.2178
-33.9285
-30.6639
-27.4231
-24.2048
-21.0082
-17.8321
-14.6753
-11.5362
-8.41321
-5.30487
-2.20966
0.873617
3.9463
7.00955
10.0649
13.1134
16.1567
19.1955
22.2315
25.2654
28.2988
31.3323
34.3674
37.4047
40.4455
43.4902
46.5399
49.5949
52.6563
55.7253
58.8028
61.889
64.9834
68.0854
71.1944
74.3115
77.4359
80.5678
83.7068
86.8518
90.0067
93.1695
96.3431
99.522
102.703
105.886
109.059
112.243
115.399
118.579
121.729
124.911
128.072
131.211
134.336
137.442
140.566
143.716
146.804
149.934
153.027
156.277
159.591
162.66
165.789
169.173
173.296
177.891
183.032
189.281
197.285
205.889
213.653
219.884
224.749
228.909
233.539
237.802
243.393
247.323
253.685
256.958
262.132
262.855
261.873
260.093
252.136
-56.9697
-61.7663
-66.9516
-72.4382
-77.9427
-83.1101
-87.639
-91.3342
-94.1007
-95.9223
-96.8414
-96.9388
-96.3147
-95.0786
-93.3381
-91.1909
-88.7214
-86.0008
-83.0876
-80.0292
-76.8637
-73.6214
-70.326
-66.9962
-63.6462
-60.2872
-56.9277
-53.5742
-50.2315
-46.9034
-43.5922
-40.2995
-37.0262
-33.7724
-30.5382
-27.3232
-24.127
-20.9493
-17.7893
-14.6462
-11.5188
-8.4058
-5.30596
-2.21799
0.85914
3.92662
6.98549
10.0371
13.0826
16.1233
19.1601
22.1944
25.2269
28.2591
31.2918
34.3262
37.3631
40.4036
43.4482
46.4977
49.5528
52.6144
55.6836
58.7614
61.8479
64.9427
68.0451
71.1546
74.2722
77.3972
80.5297
83.6692
86.8148
89.9704
93.1338
96.308
99.4875
102.669
105.853
109.026
112.211
115.368
118.548
121.699
124.882
128.044
131.183
134.308
137.414
140.539
143.69
146.778
149.908
153.001
156.25
159.568
162.637
165.762
169.139
173.258
177.848
182.981
189.215
197.214
205.827
213.606
219.848
224.719
228.877
233.506
237.765
243.358
247.285
253.651
256.929
262.119
262.862
261.891
260.131
252.152
-55.62
-59.5028
-63.708
-68.1752
-72.7127
-77.0844
-81.0719
-84.5037
-87.263
-89.2876
-90.5651
-91.1232
-91.0159
-90.3138
-89.0964
-87.4439
-85.4311
-83.1248
-80.5831
-77.8549
-74.981
-71.9951
-68.9242
-65.7905
-62.6114
-59.4011
-56.1707
-52.9292
-49.6836
-46.4393
-43.2006
-39.9704
-36.7509
-33.5436
-30.3493
-27.1688
-24.0023
-20.85
-17.7119
-14.5875
-11.4762
-8.37701
-5.28898
-2.21113
0.85735
3.91746
6.97008
10.0164
13.0575
16.0944
19.1281
22.1598
25.1901
28.2206
31.2519
34.2852
37.3212
40.361
43.4051
46.4544
49.5093
52.5709
55.6402
58.7181
61.8049
64.9
68.0027
71.1127
74.2307
77.3563
80.4893
83.6295
86.7757
89.9319
93.0961
96.2709
99.4511
102.633
105.818
108.992
112.178
115.335
118.516
121.667
124.85
128.014
131.153
134.279
137.385
140.51
143.662
146.751
149.881
152.973
156.222
159.543
162.612
165.733
169.103
173.217
177.805
182.93
189.144
197.139
205.761
213.557
219.811
224.688
228.842
233.471
237.725
243.321
247.244
253.616
256.899
262.107
262.871
261.913
260.174
252.169
-54.0684
-57.2396
-60.6874
-64.3619
-68.1204
-71.8019
-75.2558
-78.3487
-80.9704
-83.0416
-84.5183
-85.3908
-85.6772
-85.4138
-84.651
-83.4473
-81.8636
-79.958
-77.7844
-75.3902
-72.8168
-70.0995
-67.2678
-64.3462
-61.3548
-58.3103
-55.2262
-52.1133
-48.9807
-45.8356
-42.6837
-39.5295
-36.3763
-33.2268
-30.083
-26.9463
-23.818
-20.6988
-17.5894
-14.4899
-11.4001
-8.31939
-5.24737
-2.18332
0.87327
3.92319
6.9671
10.006
13.0407
16.0724
19.1015
22.1293
25.1565
28.1844
31.2135
34.245
37.2796
40.3183
43.3615
46.4102
49.4646
52.5259
55.5951
58.673
61.7599
64.8552
67.9582
71.0685
74.187
77.3131
80.4467
83.5875
86.7343
89.8912
93.0561
96.2315
99.4124
102.595
105.781
108.955
112.142
115.3
118.481
121.634
124.817
127.982
131.122
134.248
137.354
140.479
143.633
146.722
149.852
152.943
156.191
159.516
162.585
165.701
169.064
173.173
177.752
182.862
189.068
197.058
205.691
213.505
219.772
224.655
228.806
233.433
237.684
243.282
247.2
253.578
256.867
262.095
262.882
261.938
260.225
252.189
-52.3626
-54.9692
-57.819
-60.8668
-63.9973
-67.0955
-70.0595
-72.7925
-75.2031
-77.2129
-78.7649
-79.8274
-80.3925
-80.4707
-80.0864
-79.2763
-78.084
-76.556
-74.7385
-72.6747
-70.4042
-67.9619
-65.3784
-62.6798
-59.8882
-57.0221
-54.0971
-51.126
-48.1194
-45.0862
-42.0336
-38.9672
-35.8917
-32.8109
-29.7276
-26.6442
-23.5628
-20.4849
-17.4116
-14.3436
-11.2814
-8.22473
-5.17368
-2.12786
0.912901
3.94913
6.98121
10.01
13.036
16.0601
19.0829
22.1054
25.128
28.152
31.1778
34.2067
37.239
40.276
43.3178
46.3653
49.4189
52.4795
55.5484
58.626
61.7129
64.8081
67.9112
71.0219
74.1407
77.2673
80.4014
83.5428
86.6903
89.848
93.0135
96.1896
99.3713
102.554
105.741
108.917
112.104
115.263
118.445
121.598
124.782
127.948
131.088
134.215
137.321
140.447
143.601
146.692
149.821
152.912
156.159
159.488
162.557
165.667
169.021
173.124
177.709
182.802
188.987
196.973
205.618
213.451
219.731
224.62
228.766
233.393
237.639
243.241
247.154
253.538
256.833
262.084
262.896
261.966
260.283
252.211
-50.5317
-52.6847
-55.0553
-57.6011
-60.2227
-62.8336
-65.3646
-67.749
-69.916
-71.7973
-73.3349
-74.4873
-75.2308
-75.5581
-75.474
-74.9952
-74.1483
-72.9664
-71.4854
-69.7418
-67.7709
-65.6057
-63.2759
-60.808
-58.2253
-55.5476
-52.7921
-49.9733
-47.1033
-44.1925
-41.2493
-38.2809
-35.2929
-32.2901
-29.2765
-26.2551
-23.2288
-20.1999
-17.17
-14.1404
-11.112
-8.08526
-5.06052
-2.03784
0.982636
4.00113
7.01775
10.0331
13.0474
16.0615
19.0756
22.0906
25.1069
28.1255
31.1467
34.1718
37.2009
40.2351
43.2747
46.3204
49.3725
52.4321
55.5001
58.5773
61.6637
64.7587
67.8618
70.9726
74.0916
77.2187
80.3532
83.4953
86.6434
89.8018
92.9682
96.145
99.3275
102.511
105.699
108.875
112.064
115.224
118.406
121.56
124.745
127.912
131.053
134.18
137.287
140.413
143.569
146.659
149.789
152.878
156.125
159.458
162.526
165.63
168.976
173.072
177.636
182.733
188.902
196.883
205.541
213.393
219.686
224.582
228.725
233.351
237.593
243.198
247.106
253.496
256.797
262.073
262.911
261.998
260.349
252.237
-48.5983
-50.3832
-52.3654
-54.5039
-56.71
-58.9148
-61.0713
-63.1345
-65.0525
-66.7695
-68.2332
-69.4004
-70.2404
-70.7343
-70.8744
-70.6619
-70.1083
-69.2331
-68.0612
-66.6207
-64.9405
-63.0496
-60.9753
-58.7433
-56.3766
-53.8957
-51.3189
-48.6616
-45.9376
-43.1584
-40.3338
-37.4721
-34.5801
-31.6637
-28.7276
-25.7759
-22.8121
-19.8391
-16.8593
-13.8744
-10.886
-7.89482
-4.90174
-1.90718
1.08837
4.08482
7.08203
10.0803
13.0797
16.0807
19.0834
22.0886
25.0963
28.1075
31.1224
34.1421
37.1666
40.197
43.2333
46.2763
49.3263
52.3841
55.4508
58.5269
61.6125
64.707
67.8097
70.9205
74.0395
77.1669
80.3018
83.4445
86.5933
89.7524
92.9196
96.0972
99.2806
102.465
105.654
108.831
112.021
115.181
118.365
121.52
124.705
127.874
131.016
134.144
137.25
140.376
143.534
146.625
149.755
152.843
156.089
159.426
162.494
165.591
168.927
173.017
177.587
182.663
188.815
196.79
205.46
213.332
219.638
224.542
228.681
233.307
237.546
243.153
247.056
253.451
256.758
262.062
262.93
262.035
260.424
252.266
-46.5801
-48.0638
-49.7275
-51.5321
-53.396
-55.2622
-57.0979
-58.874
-60.5534
-62.0925
-63.4468
-64.5767
-65.4497
-66.0418
-66.3374
-66.3278
-66.0127
-65.3996
-64.5027
-63.3409
-61.9358
-60.3108
-58.4895
-56.495
-54.349
-52.0716
-49.6813
-47.1944
-44.6253
-41.9866
-39.2893
-36.5427
-33.7549
-30.9324
-28.0812
-25.2062
-22.3115
-19.4009
-16.4772
-13.5429
-10.5999
-7.6496
-4.69319
-1.7315
1.23461
4.20479
7.17859
10.1561
13.137
16.1218
19.1101
22.1027
25.0993
28.101
31.1075
34.12
37.1382
40.1633
43.1951
46.2343
49.2811
52.3363
55.4008
58.4752
61.5595
64.6529
67.755
70.8653
73.9842
77.1118
80.2468
83.3901
86.5394
89.6994
92.8674
96.0458
99.2302
102.415
105.605
108.783
111.974
115.136
118.32
121.477
124.663
127.833
130.976
134.105
137.212
140.338
143.498
146.589
149.719
152.806
156.05
159.392
162.459
165.549
168.876
172.958
177.521
182.592
188.726
196.695
205.375
213.266
219.585
224.498
228.634
233.262
237.497
243.107
247.004
253.404
256.718
262.053
262.953
262.076
260.509
252.301
-44.4898
-45.7252
-47.1254
-48.6537
-50.2339
-51.8168
-53.3793
-54.9031
-56.3625
-57.7241
-58.9517
-60.011
-60.8715
-61.508
-61.9011
-62.0366
-61.9062
-61.5081
-60.8474
-59.934
-58.782
-57.4086
-55.8322
-54.0722
-52.1481
-50.0784
-47.8809
-45.5717
-43.1658
-40.6763
-38.115
-35.4921
-32.8165
-30.096
-27.3371
-24.5457
-21.7268
-18.8846
-16.023
-13.1447
-10.2523
-7.34774
-4.43266
-1.50827
1.42419
4.3641
7.31068
10.2638
13.2229
16.1881
19.159
22.1362
25.1192
28.1088
31.1047
34.1079
37.118
40.1361
43.1618
46.1958
49.2381
52.2897
55.3511
58.4229
61.5051
64.5969
67.6977
70.8072
73.9256
77.053
80.188
83.3317
86.4815
89.6423
92.8111
95.9904
99.1757
102.362
105.553
108.732
111.925
115.088
118.273
121.431
124.618
127.79
130.934
134.064
137.171
140.298
143.459
146.552
149.682
152.768
156.01
159.356
162.423
165.506
168.825
172.903
177.461
182.522
188.639
196.598
205.286
213.195
219.525
224.45
228.585
233.215
237.449
243.061
246.953
253.356
256.677
262.044
262.98
262.123
260.603
252.34
-42.3367
-43.366
-44.547
-45.8451
-47.1884
-48.5335
-49.8636
-51.1681
-52.4293
-53.6222
-54.7181
-55.6881
-56.5056
-57.1467
-57.591
-57.8221
-57.8271
-57.598
-57.1325
-56.4332
-55.5073
-54.3652
-53.0201
-51.4868
-49.7814
-47.92
-45.9187
-43.7929
-41.5571
-39.2247
-36.8077
-34.3169
-31.762
-29.1514
-26.4927
-23.7922
-21.056
-18.2888
-15.4951
-12.6785
-9.84197
-6.98802
-4.11884
-1.23605
1.65874
4.56455
7.48029
10.4056
13.3395
16.2821
19.2327
22.1916
25.1583
28.1334
31.1164
34.1081
37.1082
40.1173
43.1352
46.1624
49.1989
52.2455
55.3026
58.3709
61.45
64.5394
67.6382
70.7463
73.8636
76.9905
80.1251
83.269
86.4191
89.5806
92.7502
95.9303
99.1167
102.304
105.496
108.677
111.871
115.036
118.222
121.382
124.569
127.744
130.889
134.02
137.129
140.256
143.42
146.513
149.644
152.729
155.968
159.319
162.385
165.464
168.77
172.834
177.401
182.457
188.557
196.502
205.193
213.115
219.457
224.397
228.533
233.168
237.401
243.016
246.903
253.307
256.634
262.038
263.013
262.176
260.707
252.385
-40.1285
-40.986
-41.9837
-43.0886
-44.233
-45.3776
-46.51
-47.6248
-48.7102
-49.7477
-50.7144
-51.5871
-52.343
-52.961
-53.4218
-53.7083
-53.806
-53.7033
-53.393
-52.8722
-52.1417
-51.2064
-50.0738
-48.7543
-47.2596
-45.6029
-43.7978
-41.8582
-39.7974
-37.6283
-35.3629
-33.0122
-30.5861
-28.0936
-25.543
-22.9413
-20.295
-17.6097
-14.8905
-12.1416
-9.36654
-6.56843
-3.74997
-0.913228
1.93973
4.8076
7.68889
10.5829
13.4886
16.4056
19.333
22.2709
25.2187
28.1768
31.1446
34.1227
37.1105
40.1088
43.1171
46.1359
49.1649
52.2051
55.2566
58.3202
61.3952
64.4812
67.577
70.6831
73.7985
76.9244
80.0582
83.2019
86.3521
89.5141
92.6844
95.8652
99.0526
102.241
105.435
108.616
111.812
114.979
118.167
121.329
124.518
127.695
130.841
133.975
137.085
140.212
143.379
146.473
149.606
152.69
155.926
159.281
162.348
165.423
168.733
172.782
177.347
182.401
188.485
196.41
205.094
213.027
219.378
224.338
228.477
233.121
237.354
242.972
246.856
253.259
256.593
262.034
263.051
262.236
260.82
252.434
-37.8726
-38.5863
-39.4295
-40.3712
-41.3475
-42.3223
-43.2863
-44.2374
-45.1683
-46.0652
-46.9101
-47.6843
-48.369
-48.9462
-49.3984
-49.7096
-49.865
-49.8518
-49.6598
-49.2821
-48.7154
-47.9594
-47.017
-45.8938
-44.5974
-43.1374
-41.5246
-39.7705
-37.8868
-35.8852
-33.777
-31.5729
-29.283
-26.9165
-24.4818
-21.9866
-19.4379
-16.8418
-14.2041
-11.5293
-8.82193
-6.08535
-3.32289
-0.537086
2.26954
5.09531
7.93831
10.7976
13.6716
16.5599
19.4611
22.3755
25.3018
28.2405
31.1907
34.153
37.1266
40.1122
43.109
46.1177
49.1376
52.1699
55.2144
58.2719
61.3415
64.423
67.515
70.618
73.7309
76.855
79.9874
83.1305
86.2804
89.4426
92.6133
95.7948
98.9831
102.172
105.368
108.551
111.749
114.918
118.108
121.273
124.462
127.643
130.791
133.928
137.039
140.168
143.338
146.433
149.569
152.653
155.885
159.245
162.314
165.386
168.671
172.731
177.303
182.359
188.427
196.325
204.991
212.926
219.285
224.27
228.418
233.073
237.309
242.931
246.815
253.213
256.553
262.033
263.097
262.306
260.942
252.486
-35.5752
-36.1677
-36.8801
-37.683
-38.5164
-39.3468
-40.167
-40.977
-41.7729
-42.5442
-43.277
-43.956
-44.5661
-45.0921
-45.5191
-45.8324
-46.0183
-46.0639
-45.9577
-45.6909
-45.2569
-44.652
-43.8749
-42.9273
-41.813
-40.5378
-39.1093
-37.5363
-35.8284
-33.9956
-32.048
-29.9956
-27.8479
-25.614
-23.3026
-20.9214
-18.4778
-15.9784
-13.4293
-10.8357
-8.20246
-5.53359
-2.83291
-0.103403
2.65192
5.431
8.23147
11.0521
13.8908
16.747
19.6191
22.5069
25.4091
28.326
31.2562
34.2006
37.1578
40.1287
43.1122
46.109
49.1183
52.1411
55.1772
58.2273
61.2902
64.3661
67.453
70.552
73.6614
76.783
79.9133
83.0552
86.2041
89.3663
92.5369
95.719
98.9078
102.098
105.295
108.479
111.679
114.851
118.044
121.212
124.403
127.587
130.738
133.879
136.993
140.124
143.297
146.394
149.535
152.62
155.847
159.211
162.284
165.361
168.654
172.697
177.277
182.338
188.39
196.249
204.883
212.81
219.174
224.192
228.354
233.025
237.265
242.893
246.78
253.17
256.518
262.038
263.151
262.386
261.078
252.542
-33.2406
-33.731
-34.3319
-35.0163
-35.7276
-36.4347
-37.1317
-37.8202
-38.4984
-39.1586
-39.7897
-40.3794
-40.9156
-41.3856
-41.777
-42.0769
-42.273
-42.3531
-42.3058
-42.1213
-41.7914
-41.3099
-40.6728
-39.8783
-38.9269
-37.8212
-36.5655
-35.1658
-33.629
-31.9632
-30.1768
-28.2786
-26.2774
-24.1816
-21.9995
-19.7391
-17.4077
-15.0122
-12.559
-10.0536
-7.50138
-4.90675
-2.27405
0.393346
3.09192
5.81924
8.57248
11.35
14.1495
16.97
19.8094
22.6676
25.5427
28.435
31.3428
34.2669
37.2056
40.1598
43.1281
46.1113
49.1082
52.12
55.1461
58.1875
61.2424
64.3114
67.3921
70.486
73.5909
76.7092
79.8364
82.9765
86.1238
89.2855
92.4556
95.6378
98.827
102.017
105.216
108.402
111.605
114.78
117.975
121.147
124.339
127.528
130.682
133.829
136.947
140.08
143.257
146.357
149.505
152.593
155.816
159.184
162.264
165.35
168.642
172.683
177.275
182.346
188.38
196.188
204.769
212.678
219.042
224.1
228.285
232.976
237.221
242.856
246.751
253.132
256.489
262.049
263.213
262.479
261.213
252.599
-30.8723
-31.2765
-31.7823
-32.3651
-32.9717
-33.5731
-34.1643
-34.7481
-35.324
-35.8863
-36.4262
-36.9338
-37.3993
-37.8123
-38.1624
-38.4389
-38.6307
-38.7269
-38.7169
-38.5908
-38.3397
-37.9561
-37.4342
-36.7699
-35.961
-35.0071
-33.9097
-32.672
-31.2984
-29.7947
-28.1673
-26.4234
-24.5705
-22.6163
-20.5684
-18.4344
-16.2215
-13.9366
-11.5861
-9.17581
-6.71148
-4.19778
-1.63951
0.959614
3.59559
6.26569
8.96655
11.6963
14.4521
17.2327
20.0357
22.8607
25.7054
28.5702
31.4528
34.354
37.2718
40.2072
43.1582
46.1259
49.1086
52.1079
55.1225
58.1536
61.1992
64.2601
67.3334
70.4212
73.5205
76.6345
79.7578
82.8953
86.0403
89.2008
92.3698
95.5519
98.7409
101.932
105.131
108.32
111.524
114.703
117.901
121.078
124.272
127.466
130.624
133.779
136.901
140.039
143.22
146.326
149.482
152.575
155.794
159.167
162.26
165.366
168.668
172.699
177.306
182.391
188.406
196.144
204.649
212.526
218.886
223.991
228.209
232.924
237.177
242.82
246.726
253.098
256.465
262.069
263.284
262.585
261.382
252.656
-28.4736
-28.8046
-29.2292
-29.7246
-30.2412
-30.7517
-31.252
-31.7453
-32.2323
-32.7087
-33.1675
-33.6006
-34
-34.3574
-34.6642
-34.9111
-35.0889
-35.1879
-35.1985
-35.1114
-34.9178
-34.6097
-34.1803
-33.6239
-32.9365
-32.1156
-31.1601
-30.0707
-28.8496
-27.4999
-26.0263
-24.4339
-22.7289
-20.9176
-19.0069
-17.0034
-14.9141
-12.7454
-10.5039
-8.19535
-5.82555
-3.39943
-0.922134
1.60238
4.16967
6.77673
9.4197
12.0965
14.8036
17.5399
20.3022
23.0902
25.901
28.7349
31.5892
34.4647
37.3589
40.2731
43.2045
46.1547
49.1214
52.1064
55.1077
58.1272
61.162
64.2134
67.278
70.3587
73.4513
76.56
79.6784
82.8126
85.9545
89.1133
92.2805
95.462
98.6502
101.842
105.042
108.232
111.438
114.621
117.823
121.005
124.201
127.402
130.564
133.728
136.857
140
143.188
146.3
149.467
152.57
155.785
159.166
162.273
165.407
168.729
172.754
177.38
182.482
188.473
196.122
204.524
212.353
218.704
223.863
228.122
232.87
237.129
242.78
246.7
253.065
256.447
262.098
263.361
262.706
261.541
252.714
-26.0477
-26.3166
-26.6715
-27.0916
-27.5304
-27.9626
-28.3844
-28.7995
-29.2092
-29.6105
-29.9975
-30.3636
-30.7024
-31.007
-31.2703
-31.4848
-31.6424
-31.735
-31.7539
-31.6908
-31.5373
-31.2856
-30.9284
-30.4595
-29.8736
-29.1665
-28.3355
-27.3791
-26.2973
-25.0913
-23.7636
-22.3174
-20.7571
-19.0878
-17.3149
-15.4443
-13.4821
-11.4343
-9.30709
-7.10597
-4.83687
-2.50466
-0.114744
2.32882
4.82118
7.3592
9.93849
12.5568
15.2102
17.8972
20.6143
23.3609
26.1338
28.9331
31.7556
34.6024
37.4701
40.3603
43.2697
46.2002
49.1485
52.1174
55.1036
58.1099
61.1322
64.1729
67.2275
70.2998
73.3845
76.4871
79.5996
82.7296
85.8676
89.024
92.1887
95.369
98.5559
101.747
104.947
108.139
111.348
114.535
117.74
120.928
124.127
127.335
130.503
133.678
136.815
139.966
143.161
146.282
149.464
152.579
155.794
159.184
162.316
165.487
168.839
172.856
177.501
182.624
188.586
196.125
204.396
212.159
218.496
223.715
228.024
232.81
237.078
242.733
246.667
253.03
256.427
262.133
263.443
262.841
261.721
252.772
-23.5981
-23.8142
-24.1093
-24.4641
-24.8355
-25.1998
-25.5537
-25.9011
-26.2435
-26.5789
-26.9025
-27.2088
-27.4924
-27.7479
-27.9693
-28.1504
-28.2845
-28.3645
-28.383
-28.3325
-28.2054
-27.9944
-27.6924
-27.2928
-26.7897
-26.1782
-25.4542
-24.6147
-23.658
-22.5833
-21.3913
-20.0834
-18.6624
-17.1315
-15.495
-13.7575
-11.9243
-10.0003
-7.99138
-5.90253
-3.73952
-1.507
0.789498
3.14597
5.55725
8.02014
10.5298
13.084
15.678
18.3107
20.9775
23.6783
26.4088
29.1696
31.9566
34.771
37.609
40.4723
43.3568
46.265
49.1928
52.1432
55.1124
58.1036
61.1117
64.1402
67.1832
70.246
73.3215
76.417
79.5225
82.6476
85.7807
88.9341
92.0954
95.2741
98.459
101.65
104.85
108.044
111.253
114.445
117.653
120.849
124.05
127.266
130.441
133.628
136.775
139.936
143.141
146.273
149.472
152.604
155.821
159.222
162.379
165.608
169.003
173.01
177.673
182.816
188.743
196.153
204.266
211.945
218.265
223.546
227.911
232.743
237.023
242.677
246.62
252.985
256.401
262.171
263.524
262.99
261.905
252.827
-21.1281
-21.2992
-21.5425
-21.8405
-22.1532
-22.4585
-22.7535
-23.0419
-23.3258
-23.6036
-23.8712
-24.1243
-24.3582
-24.5685
-24.7504
-24.8987
-25.0076
-25.0713
-25.0834
-25.0372
-24.9261
-24.7433
-24.4822
-24.1364
-23.6999
-23.1672
-22.5335
-21.7948
-20.9481
-19.9912
-18.9231
-17.7438
-16.4542
-15.0561
-13.5524
-11.9461
-10.2415
-8.44261
-6.55445
-4.58136
-2.52876
-0.400887
1.79677
4.06044
6.38472
8.76655
11.2007
13.6848
16.214
18.7867
21.3982
24.0482
26.7317
29.4496
32.1969
34.9753
37.7798
40.6129
43.4695
46.3526
49.2571
52.1868
55.1366
58.1107
61.1027
64.1173
67.1472
70.199
73.2641
76.3513
79.4487
82.5679
85.6952
88.8448
92.002
95.1785
98.3608
101.551
104.75
107.945
111.156
114.352
117.564
120.767
123.972
127.197
130.378
133.579
136.737
139.91
143.127
146.273
149.49
152.645
155.87
159.288
162.481
165.755
169.213
173.216
177.892
183.056
188.942
196.205
204.138
211.716
218.013
223.357
227.782
232.666
236.961
242.611
246.555
252.925
256.354
262.207
263.594
263.15
262.099
252.882
-18.6397
-18.7726
-18.971
-19.2195
-19.4808
-19.7348
-19.9785
-20.2157
-20.4485
-20.6757
-20.8942
-21.1
-21.2894
-21.4587
-21.6039
-21.7207
-21.8043
-21.8497
-21.8514
-21.8038
-21.7009
-21.5367
-21.3051
-21.0002
-20.6161
-20.1472
-19.5884
-18.9352
-18.1837
-17.3306
-16.3738
-15.3118
-14.1442
-12.8712
-11.4943
-10.0153
-8.4371
-6.76261
-4.99595
-3.14059
-1.20142
0.817961
2.91224
5.07807
7.30995
9.60507
11.9579
14.3663
16.8247
19.3321
21.8828
24.4768
27.1084
29.7787
32.4819
35.2201
37.9874
40.7867
43.6119
46.4667
49.345
52.2513
55.1792
58.1339
61.1077
64.1064
67.1214
70.1607
73.2138
76.2915
79.3796
82.492
85.6124
88.7572
91.9096
95.0831
98.2623
101.451
104.649
107.846
111.057
114.259
117.472
120.684
123.891
127.126
130.315
133.53
136.702
139.888
143.119
146.282
149.519
152.699
155.932
159.365
162.612
165.945
169.464
173.468
178.153
183.333
189.174
196.277
204.015
211.476
217.744
223.151
227.639
232.578
236.891
242.535
246.469
252.848
256.277
262.226
263.649
263.317
262.294
252.934
-16.1341
-16.2335
-16.3934
-16.5988
-16.8156
-17.0248
-17.224
-17.4166
-17.6049
-17.788
-17.9632
-18.1273
-18.277
-18.4093
-18.5209
-18.6081
-18.6671
-18.6935
-18.6826
-18.6296
-18.5293
-18.3763
-18.1654
-17.8908
-17.5473
-17.1294
-16.6319
-16.0501
-15.3797
-14.6167
-13.7582
-12.8015
-11.7451
-10.5881
-9.33048
-7.97278
-6.51676
-4.96405
-3.31779
-1.58042
0.243854
2.15221