/*--------------------------------*- C++ -*----------------------------------*\
| =========                 |                                                 |
| \\      /  F ield         | OpenFOAM: The Open Source CFD Toolbox           |
|  \\    /   O peration     | Version:  2412                                  |
|   \\  /    A nd           | Website:  www.openfoam.com                      |
|    \\/     M anipulation  |                                                 |
\*---------------------------------------------------------------------------*/
FoamFile
{
    version     2.0;
    format      ascii;
    arch        "LSB;label=32;scalar=64";
    class       volVectorField;
    location    "0.39";
    object      U;
}
// * * * * * * * * * * * * * * * * * * * * * * * * * * * * * * * * * * * * * //

dimensions      [0 1 -1 0 0 0 0];

internalField   nonuniform List<vector> 
12600
(
(18.7864 1.21592e-21 2.09537)
(11.6486 1.60871e-20 0.451979)
(7.37098 1.89309e-20 -0.478603)
(5.10325 0 -0.710903)
(3.9869 1.71096e-20 -0.68408)
(3.34435 1.59298e-20 -0.609204)
(2.90191 0 -0.54134)
(2.56978 0 -0.485723)
(2.30946 -4.7839e-20 -0.440126)
(2.09875 0 -0.402272)
(1.9239 2.00522e-20 -0.370307)
(1.77596 1.83545e-20 -0.342899)
(1.6488 -1.68086e-20 -0.319095)
(1.53808 0 -0.298196)
(1.4406 -1.40769e-20 -0.279677)
(1.35396 0 -0.263133)
(1.27634 4.72616e-20 -0.248249)
(1.2063 0 -0.234773)
(1.14271 -1.97619e-20 -0.222503)
(1.08465 -1.80646e-20 -0.211276)
(1.03138 1.64814e-20 -0.200956)
(0.982296 5.3963e-24 -0.191431)
(0.936883 0 -0.182607)
(0.894716 -2.48164e-20 -0.174406)
(0.855434 0 -0.166758)
(0.818729 0 -0.159607)
(0.784337 -1.83535e-20 -0.152903)
(0.752031 0 -0.146602)
(0.721612 4.11395e-24 -0.140667)
(0.692907 1.32198e-20 -0.135065)
(0.665766 1.1754e-20 -0.129767)
(0.640052 1.03968e-20 -0.124746)
(0.615648 -9.14056e-21 -0.119981)
(0.592449 -1.59563e-20 -0.115451)
(0.570358 -1.38061e-20 -0.111137)
(0.549292 1.18078e-20 -0.107023)
(0.529174 0 -0.103094)
(0.509936 -8.28753e-21 -0.099338)
(0.491513 0 -0.0957413)
(0.47385 5.28435e-21 -0.0922933)
(0.456895 0 -0.0889838)
(0.440599 1.74812e-23 -0.0858038)
(0.424921 0 -0.0827447)
(0.40982 1.59065e-23 -0.0797989)
(0.395261 -7.06965e-22 -0.0769592)
(0.38121 2.41018e-21 -0.0742193)
(0.367635 -3.99133e-21 -0.0715728)
(0.354509 0 -0.0690145)
(0.341803 0 -0.0665385)
(0.329494 -7.88563e-21 -0.0641406)
(0.317556 -1.78892e-20 -0.0618157)
(0.305971 -1.97949e-20 -0.0595601)
(0.294716 1.93669e-23 -0.0573693)
(0.283775 -2.30074e-20 -0.0552402)
(0.273128 0 -0.0531688)
(0.262761 2.55683e-20 -0.0511525)
(0.252655 2.66107e-20 -0.0491876)
(0.2428 2.75002e-20 -0.0472719)
(0.233179 0 -0.0454021)
(0.223782 0 -0.0435764)
(0.214596 0 -0.041792)
(0.20561 -5.98512e-20 -0.0400472)
(0.196814 0 -0.0383394)
(0.188198 0 -0.0366672)
(0.179753 1.22759e-19 -0.0350285)
(0.171472 0 -0.033422)
(0.163347 0 -0.0318461)
(0.155372 0 -0.0302996)
(0.147539 -1.22622e-19 -0.028781)
(0.139846 1.21976e-19 -0.0272895)
(0.132284 1.21121e-19 -0.0258239)
(0.124854 2.36408e-23 -0.0243839)
(0.117549 -1.18847e-19 -0.0229686)
(0.11037 0 -0.021578)
(0.103324 1.15935e-19 -0.0202133)
(0.0963991 0 -0.0188722)
(0.0896329 0 -0.0175619)
(0.0829778 0 -0.0162733)
(0.0765183 2.95381e-23 -0.0150222)
(0.0701365 2.13047e-19 -0.0137865)
(0.0639723 2.08711e-19 -0.0125924)
(0.0578448 -2.04163e-19 -0.0114063)
(0.0519021 -1.99565e-19 -0.0102568)
(0.0460847 0 -0.00913079)
(0.0405251 0 -0.00805815)
(0.0352831 3.70373e-19 -0.00704142)
(0.0299271 -7.20894e-19 -0.00600363)
(0.0248365 7.00889e-19 -0.00501722)
(0.0195073 3.40381e-19 -0.0039884)
(0.0149388 0 -0.00310782)
(0.0101915 -6.40705e-19 -0.00219127)
(0.00625096 3.1029e-19 -0.00142201)
(0.00084088 -3.00347e-19 -0.000377137)
(-0.00313068 5.8092e-19 0.000389397)
(-0.00876013 0 0.00145935)
(-0.010088 0 0.00173107)
(-0.0177753 0 0.00320763)
(-0.023747 0 0.00434015)
(-0.0379368 0 0.00704544)
(-0.0423886 0 0.00787167)
(-0.0560903 -4.57574e-19 0.0104833)
(-0.0602837 -8.89242e-19 0.0112486)
(-0.0761865 -8.68261e-19 0.0142146)
(-0.0602134 0 0.0110378)
(-0.0463908 0 0.00825149)
(-0.00202265 0 -0.000220758)
(0.011429 -7.96103e-19 -0.00268406)
(0.0459765 -1.53205e-18 -0.00919398)
(0.0378509 7.34347e-19 -0.00759385)
(0.0699467 0 -0.0137789)
(0.0580407 -1.35002e-18 -0.0115343)
(0.106548 0 -0.0209023)
(0.0946221 -1.24003e-18 -0.0186274)
(0.164239 1.19443e-18 -0.0320803)
(0.156931 -1.13557e-18 -0.0306134)
(0.245331 -1.08662e-18 -0.0476067)
(0.237133 1.02142e-18 -0.0457159)
(0.316964 8.45383e-24 -0.0608992)
(0.287207 8.87272e-19 -0.0549679)
(0.367263 0 -0.0703607)
(29.2088 -1.22745e-21 4.02646)
(25.1608 0 1.86091)
(20.2923 -1.916e-20 -0.213542)
(16.1179 0 -1.21475)
(13.1512 -1.7337e-20 -1.51141)
(11.1033 -3.04288e-20 -1.5226)
(9.62727 -1.40815e-20 -1.44483)
(8.51246 0 -1.34698)
(7.63744 3.56729e-22 -1.25136)
(6.92918 -2.1876e-20 -1.16408)
(6.34193 2.00797e-20 -1.08582)
(5.84558 1.84284e-20 -1.01585)
(5.41947 -1.69104e-20 -0.953153)
(5.04887 1.55139e-20 -0.896757)
(4.72302 2.85124e-20 -0.845797)
(4.43382 0 -0.799538)
(4.17506 -6.46557e-23 -0.757357)
(3.94188 2.18792e-20 -0.718733)
(3.73045 2.00494e-20 -0.683225)
(3.53768 0 -0.65046)
(3.36106 0 -0.620124)
(3.1985 1.52255e-20 -0.591946)
(3.04829 0 -0.565694)
(2.909 1.25801e-20 -0.541171)
(2.77938 -2.27985e-20 -0.518203)
(2.65842 0 -0.496641)
(2.54521 1.86025e-20 -0.476354)
(2.43898 0 -0.457225)
(2.33907 -1.49942e-20 -0.439156)
(2.2449 -2.67823e-20 -0.422054)
(2.15595 -2.38083e-20 -0.405841)
(2.07177 -1.05235e-20 -0.390445)
(1.99196 9.24935e-21 -0.375803)
(1.91616 3.2301e-20 -0.361857)
(1.84406 2.79423e-20 -0.348556)
(1.77537 0 -0.335854)
(1.70984 0 -0.323706)
(1.64724 -1.72735e-23 -0.312076)
(1.58734 0 -0.300928)
(1.52997 -5.33477e-21 -0.29023)
(1.47495 0 -0.279951)
(1.42212 -5.52776e-21 -0.270067)
(1.37134 0 -0.260551)
(1.32248 -1.19745e-21 -0.251381)
(1.27541 0 -0.242536)
(1.23002 -2.4269e-21 -0.233997)
(1.18621 0 -0.225745)
(1.14389 0 -0.217763)
(1.10296 6.71586e-21 -0.210036)
(1.06334 0 -0.202549)
(1.02494 0 -0.195288)
(0.98772 0 -0.188242)
(0.951585 2.1551e-20 -0.181396)
(0.916488 4.61013e-20 -0.174742)
(0.882361 0 -0.168266)
(0.849159 0 -0.161963)
(0.81682 -2.65864e-20 -0.155818)
(0.785308 -2.74988e-20 -0.149828)
(0.754566 0 -0.14398)
(0.724566 0 -0.138271)
(0.695256 0 -0.13269)
(0.66661 0 -0.127233)
(0.638584 -6.0257e-20 -0.121891)
(0.611155 6.07191e-20 -0.116661)
(0.584285 -1.2206e-19 -0.111536)
(0.557955 0 -0.106512)
(0.532135 0 -0.101583)
(0.506806 0 -0.096747)
(0.481944 4.72471e-23 -0.0919982)
(0.457534 -1.2081e-19 -0.0873346)
(0.433556 -1.19854e-19 -0.082752)
(0.410004 2.37374e-19 -0.0782502)
(0.386863 3.60238e-23 -0.0738257)
(0.36413 -1.15872e-19 -0.0694794)
(0.341827 -1.14286e-19 -0.0652139)
(0.319918 0 -0.0610243)
(0.298505 0 -0.0569292)
(0.27746 0 -0.0529035)
(0.257008 2.13261e-19 -0.0489924)
(0.236825 0 -0.045129)
(0.2173 0 -0.041395)
(0.197925 1.99818e-19 -0.0376823)
(0.179144 1.9511e-19 -0.0340928)
(0.16078 0 -0.0305769)
(0.143225 0 -0.027229)
(0.126574 0 -0.0240384)
(0.109622 7.01665e-19 -0.0207894)
(0.0935497 -4.84518e-23 -0.017706)
(0.07683 3.30543e-19 -0.0145098)
(0.0625365 -3.20444e-19 -0.0117804)
(0.0475137 6.20898e-19 -0.00891568)
(0.03505 3.00341e-19 -0.00650209)
(0.0181216 5.8088e-19 -0.00325576)
(0.00594219 0 -0.000908692)
(-0.0112597 0 0.00233961)
(-0.0159303 0 0.00326649)
(-0.0401652 0 0.00801607)
(-0.0577616 4.85686e-19 0.0115099)
(-0.0994685 0 0.0195085)
(-0.110575 0 0.0216199)
(-0.150801 -4.38685e-19 0.0293502)
(-0.159807 4.2591e-19 0.0311256)
(-0.202876 1.66172e-18 0.039067)
(-0.148496 -8.16217e-19 0.027932)
(-0.106855 0 0.019258)
(0.0254861 0 -0.00616045)
(0.0609121 0 -0.0127181)
(0.164053 7.29647e-19 -0.0320711)
(0.138572 -6.98881e-19 -0.0270546)
(0.238755 0 -0.0463017)
(0.203612 2.56516e-18 -0.0397586)
(0.353745 1.23279e-18 -0.0687653)
(0.317885 2.35239e-18 -0.0620549)
(0.53254 0 -0.10363)
(0.506004 0 -0.0985897)
(0.774189 -1.02834e-18 -0.150349)
(0.733562 0 -0.142099)
(0.975657 -9.01456e-19 -0.188207)
(0.866775 -8.38149e-19 -0.167503)
(1.11957 0 -0.216133)
(31.9517 0 3.89613)
(31.1387 0 2.8206)
(28.6091 -1.29693e-20 1.02457)
(25.2634 0 -0.3842)
(22.0069 0 -1.22983)
(19.229 1.51284e-20 -1.65563)
(16.9665 1.33353e-20 -1.82441)
(15.1378 0 -1.85615)
(13.6472 4.21881e-22 -1.82239)
(12.4145 2.07245e-20 -1.75976)
(11.3791 -3.78369e-20 -1.68582)
(10.4965 -1.74608e-20 -1.60894)
(9.73458 1.14824e-22 -1.53312)
(9.06937 -1.47005e-20 -1.46022)
(8.48293 -1.34824e-20 -1.39103)
(7.96149 1.23098e-20 -1.32582)
(7.49436 -2.2647e-20 -1.26455)
(7.0731 -2.07336e-20 -1.20708)
(6.69096 0 -1.15319)
(6.34248 0 -1.10263)
(6.02318 1.57908e-20 -1.05515)
(5.72935 1.43961e-20 -1.01051)
(5.45792 0 -0.968492)
(5.20629 0 -0.928882)
(4.97226 2.16029e-20 -0.891489)
(4.75394 0 -0.856138)
(4.54972 -3.52471e-20 -0.822672)
(4.35821 1.58516e-20 -0.790944)
(4.1782 0 -0.760824)
(4.00861 1.26899e-20 -0.732193)
(3.84854 1.12811e-20 -0.704942)
(3.69714 0 -0.678972)
(3.55369 -8.77503e-21 -0.654195)
(3.41755 -1.53063e-20 -0.630527)
(3.28814 1.20685e-23 -0.607895)
(3.16493 0 -0.586228)
(3.04746 0 -0.565464)
(2.93531 7.94517e-21 -0.545545)
(2.82809 0 -0.526417)
(2.72546 0 -0.508031)
(2.6271 0 -0.490342)
(2.53272 0 -0.473307)
(2.44206 0 -0.456888)
(2.35489 0 -0.441049)
(2.27097 0 -0.425756)
(2.19011 2.25414e-21 -0.410979)
(2.11211 -3.74784e-21 -0.396687)
(2.03681 0 -0.382855)
(1.96402 -6.35384e-21 -0.369453)
(1.89363 0 -0.356462)
(1.82546 0 -0.343856)
(1.7594 1.87115e-20 -0.331617)
(1.69533 0 -0.319721)
(1.63313 -2.17814e-20 -0.308155)
(1.57269 2.30246e-20 -0.296897)
(1.51393 0 -0.285934)
(1.45673 2.513e-20 -0.275246)
(1.40103 0 -0.264825)
(1.34673 0 -0.25465)
(1.29377 0 -0.244715)
(1.24205 5.54977e-20 -0.235002)
(1.19154 5.62808e-20 -0.225504)
(1.14214 2.81842e-23 -0.216207)
(1.09383 -1.14646e-19 -0.207104)
(1.04652 2.47238e-23 -0.198184)
(1.00019 0 -0.189439)
(0.95478 0 -0.180861)
(0.910252 -1.15117e-19 -0.172444)
(0.866565 3.79588e-23 -0.164179)
(0.82369 0 -0.156063)
(0.781593 0 -0.148089)
(0.740256 -1.11906e-19 -0.140256)
(0.69966 2.89274e-23 -0.132558)
(0.659794 2.69827e-23 -0.124998)
(0.62069 0 -0.117578)
(0.582293 0 -0.110293)
(0.544759 -2.0845e-19 -0.103169)
(0.507887 2.04697e-19 -0.0961694)
(0.472023 0 -0.0893617)
(0.436663 0 -0.0826393)
(0.402415 0 -0.0761367)
(0.368479 0 -0.0696712)
(0.335592 0 -0.0634322)
(0.303463 0 -0.0573236)
(0.272726 0 -0.0515108)
(0.243456 0 -0.0459316)
(0.213748 -6.59655e-19 -0.0402686)
(0.185635 -3.20281e-19 -0.0349015)
(0.156532 -3.10667e-19 -0.0293833)
(0.131673 3.01114e-19 -0.0246766)
(0.10534 -5.83256e-19 -0.0196941)
(0.0835278 -2.82108e-19 -0.0154655)
(0.0541608 -2.72737e-19 -0.00986124)
(0.0333817 0 -0.00587422)
(0.00399778 0 -0.000427682)
(-0.00478366 0 0.00138358)
(-0.0468547 0 0.00978613)
(-0.0756409 -4.55654e-19 0.0156774)
(-0.144192 0 0.0286671)
(-0.15962 0 0.0314806)
(-0.225694 4.11323e-19 0.0440785)
(-0.235381 0 0.0459366)
(-0.301194 -7.7868e-19 0.0574199)
(-0.201664 7.64889e-19 0.0357775)
(-0.13256 0 0.0206493)
(0.0879334 0 -0.0214007)
(0.140457 0 -0.0305729)
(0.31305 6.83172e-19 -0.0622159)
(0.268692 0 -0.0534485)
(0.442004 -6.2736e-19 -0.0866681)
(0.383056 -1.03034e-22 -0.0761686)
(0.640985 -1.15376e-18 -0.125987)
(0.579524 -2.20106e-18 -0.115008)
(0.94673 0 -0.186175)
(0.894028 1.00596e-18 -0.176376)
(1.34675 9.61883e-19 -0.263437)
(1.2562 9.03494e-19 -0.244608)
(1.66624 0 -0.321916)
(1.45811 7.83698e-19 -0.282225)
(1.89835 0 -0.367619)
(32.4719 0 2.95324)
(33.0393 0 2.76832)
(32.488 1.22603e-20 1.72391)
(30.8458 0 0.521324)
(28.5913 -1.23045e-20 -0.485598)
(26.172 2.50313e-20 -1.21017)
(23.8487 0 -1.67451)
(21.738 -2.18412e-20 -1.93953)
(19.874 2.09399e-20 -2.06924)
(18.2474 1.89308e-20 -2.11378)
(16.8305 1.77895e-20 -2.10707)
(15.5925 -1.61643e-20 -2.07044)
(14.5046 1.5045e-20 -2.01688)
(13.5425 -2.74199e-20 -1.95426)
(12.6862 0 -1.88731)
(11.9193 -2.32214e-20 -1.81892)
(11.2285 0 -1.75084)
(10.6028 0 -1.68413)
(10.0334 0 -1.61939)
(9.51274 1.63149e-20 -1.55697)
(9.03472 -3.43314e-23 -1.49704)
(8.59415 -2.61198e-23 -1.43964)
(8.18667 1.23742e-20 -1.38477)
(7.80857 0 -1.33235)
(7.45667 0 -1.2823)
(7.12825 0 -1.23452)
(6.82094 3.3321e-20 -1.1889)
(6.53271 -6.04206e-24 -1.14532)
(6.26176 0 -1.10368)
(6.00652 0 -1.06387)
(5.76561 0 -1.02577)
(5.5378 0 -0.989305)
(5.32202 1.65983e-20 -0.954364)
(5.11727 0 -0.920865)
(4.92271 -1.25306e-20 -0.888723)
(4.73755 0 -0.85786)
(4.56108 0 -0.828203)
(4.39267 -7.5341e-21 -0.799682)
(4.23174 0 -0.772233)
(4.07776 0 -0.745795)
(3.93027 3.61138e-21 -0.720313)
(3.78883 -5.01643e-21 -0.695734)
(3.65303 0 -0.672008)
(3.52252 -1.13649e-21 -0.64909)
(3.39695 0 -0.626934)
(3.27603 -4.23976e-21 -0.605503)
(3.15945 1.87154e-23 -0.584754)
(3.04696 0 -0.564654)
(2.93831 0 -0.545166)
(2.83327 7.02078e-21 -0.526261)
(2.73162 1.59374e-20 -0.507903)
(2.63318 -3.53078e-20 -0.490071)
(2.53775 0 -0.47273)
(2.44517 -2.05135e-20 -0.455863)
(2.35526 -2.17343e-20 -0.439437)
(2.2679 -2.27603e-20 -0.423438)
(2.18291 -2.36751e-20 -0.407835)
(2.10019 0 -0.392618)
(2.0196 0 -0.377757)
(1.94103 -5.13946e-20 -0.363244)
(1.86437 -1.04667e-19 -0.349054)
(1.78952 -5.30823e-20 -0.335176)
(1.71637 3.02956e-23 -0.321591)
(1.64486 5.40382e-20 -0.308288)
(1.57488 5.42872e-20 -0.29525)
(1.50637 0 -0.28247)
(1.43925 0 -0.269933)
(1.37346 1.08484e-19 -0.25763)
(1.30895 2.15939e-19 -0.245551)
(1.24566 0 -0.233689)
(1.18355 1.06378e-19 -0.222034)
(1.12258 1.0533e-19 -0.210587)
(1.06273 1.04158e-19 -0.199338)
(1.00397 2.056e-19 -0.188292)
(0.946347 0 -0.177451)
(0.889788 0 -0.166809)
(0.834489 1.96156e-19 -0.156399)
(0.780189 -3.85139e-19 -0.146173)
(0.72733 -1.88815e-19 -0.136218)
(0.67526 0 -0.126393)
(0.62477 0 -0.116878)
(0.574815 0 -0.107426)
(0.526405 0 -0.0983147)
(0.479149 0 -0.0893997)
(0.433891 0 -0.0809199)
(0.390653 -3.18737e-19 -0.0727271)
(0.346904 4.65352e-23 -0.0644392)
(0.30558 3.00723e-19 -0.0565927)
(0.262991 0 -0.0485912)
(0.2266 2.82629e-19 -0.0417609)
(0.187808 2.73728e-19 -0.0344852)
(0.155752 0 -0.028258)
(0.11297 -2.55863e-19 -0.0201396)
(0.0831907 -4.94123e-19 -0.0144462)
(0.0408938 0 -0.00675737)
(0.0272068 0 -0.00381991)
(-0.0338338 0 0.00851886)
(-0.0730158 -4.27105e-19 0.0167656)
(-0.167419 0 0.0344833)
(-0.184547 0 0.0375275)
(-0.275461 3.85328e-19 0.0547805)
(-0.280879 -3.73907e-19 0.0557808)
(-0.364813 0 0.0691709)
(-0.213479 0 0.0355085)
(-0.118282 0 0.0136438)
(0.189938 0 -0.0448679)
(0.254165 0 -0.055471)
(0.497173 -6.29232e-23 -0.0992057)
(0.432147 0 -0.0863709)
(0.68364 5.87063e-19 -0.13446)
(0.599447 -1.12312e-18 -0.120047)
(0.971216 0 -0.191828)
(0.881079 1.06676e-22 -0.176383)
(1.4076 0 -0.278452)
(1.31956 -7.62579e-23 -0.262432)
(1.96044 0 -0.385318)
(1.80131 -8.44736e-19 -0.352409)
(2.3854 0 -0.461576)
(2.05881 7.32668e-19 -0.399849)
(2.69931 0 -0.52524)
(32.5738 0 2.10083)
(33.3318 0 2.22642)
(33.6801 0 1.75139)
(33.3177 0 0.95675)
(32.2961 1.16145e-20 0.113903)
(30.8222 -9.04396e-22 -0.636437)
(29.1016 0 -1.23871)
(27.2932 2.06151e-20 -1.68363)
(25.5071 0 -1.98828)
(23.8096 -3.52343e-20 -2.18087)
(22.2334 0 -2.29001)
(20.7886 1.52602e-20 -2.33973)
(19.473 0 -2.34838)
(18.2777 2.58887e-20 -2.32923)
(17.1917 -1.17888e-20 -2.29162)
(16.2034 2.17792e-20 -2.24203)
(15.3018 -1.99333e-20 -2.18491)
(14.477 -1.82929e-20 -2.12333)
(13.7203 0 -2.05941)
(13.0239 -1.54058e-20 -1.9946)
(12.3812 -1.40712e-20 -1.92992)
(11.7862 -2.56301e-20 -1.86603)
(11.2339 -1.16845e-20 -1.80339)
(10.7199 0 -1.74231)
(10.2404 0 -1.68297)
(9.79198 0 -1.62548)
(9.3717 -1.57263e-20 -1.5699)
(8.97697 -1.4149e-20 -1.51622)
(8.6055 0 -1.46445)
(8.25527 0 -1.41453)
(7.92447 1.00737e-20 -1.36643)
(7.61149 0 -1.32008)
(7.31491 1.32165e-24 -1.27542)
(7.03342 -1.36855e-20 -1.23238)
(6.76588 1.18446e-20 -1.1909)
(6.51124 0 -1.15091)
(6.26855 0 -1.11234)
(6.03696 7.11084e-21 -1.07513)
(5.81567 0 -1.0392)
(5.60399 0 -1.00451)
(5.40127 -3.40792e-21 -0.970993)
(5.2069 4.73353e-21 -0.938593)
(5.02035 0 -0.907255)
(4.84112 1.07226e-21 -0.876931)
(4.66874 0 -0.847569)
(4.5028 1.99057e-21 -0.819125)
(4.34289 3.32209e-21 -0.791549)
(4.18865 0 -0.764805)
(4.03974 5.61315e-21 -0.738846)
(3.89585 -6.62098e-21 -0.71364)
(3.75667 -3.00277e-20 -0.689143)
(3.62195 1.6632e-20 -0.665329)
(3.49141 -1.80382e-20 -0.642155)
(3.36484 2.5137e-23 -0.6196)
(3.24198 0 -0.597622)
(3.12266 2.14525e-20 -0.576206)
(3.00664 2.23124e-20 -0.555311)
(2.89379 -2.30333e-20 -0.534925)
(2.78389 2.36646e-20 -0.51501)
(2.67682 4.84211e-20 -0.495556)
(2.57238 4.92839e-20 -0.476528)
(2.47047 -4.9938e-20 -0.457918)
(2.37093 5.04912e-20 -0.439694)
(2.27366 0 -0.421848)
(2.17851 0 -0.404356)
(2.08541 5.11659e-20 -0.387206)
(1.99424 0 -0.370381)
(1.90493 0 -0.35387)
(1.81737 -1.01591e-19 -0.337658)
(1.73151 0 -0.321738)
(1.64728 -1.00086e-19 -0.306096)
(1.56463 -1.98139e-19 -0.290732)
(1.48352 0 -0.275635)
(1.40392 -9.6664e-20 -0.260812)
(1.32587 0 -0.246262)
(1.24929 0 -0.231983)
(1.1744 -1.84301e-19 -0.218009)
(1.10089 1.80973e-19 -0.204286)
(1.02929 4.03915e-23 -0.190914)
(0.958799 0 -0.177721)
(0.890383 0 -0.164933)
(0.822789 0 -0.152239)
(0.757276 -1.61978e-19 -0.140014)
(0.693375 1.57876e-19 -0.12806)
(0.632085 0 -0.116687)
(0.573382 5.98354e-19 -0.105635)
(0.514171 2.90727e-19 -0.0944968)
(0.45834 -5.64361e-19 -0.0839636)
(0.401031 -2.73601e-19 -0.0733072)
(0.352002 -5.30237e-19 -0.06419)
(0.299477 0 -0.0544292)
(0.256205 0 -0.0460172)
(0.19897 2.39913e-19 -0.0352352)
(0.15976 4.63248e-19 -0.0277834)
(0.103686 -4.47273e-19 -0.0177849)
(0.0843159 0 -0.0134884)
(0.00339438 0 0.00308348)
(-0.0450079 4.00171e-19 0.0135681)
(-0.164024 3.85477e-19 0.035572)
(-0.179995 0 0.0382123)
(-0.294411 -3.60868e-19 0.0597107)
(-0.289896 3.50123e-19 0.0585961)
(-0.38733 0 0.0719455)
(-0.178038 0 0.0244707)
(-0.0591986 0 -0.00407949)
(0.335828 0 -0.0785234)
(0.406019 0 -0.0890776)
(0.720559 -5.98253e-19 -0.144581)
(0.632685 0 -0.127351)
(0.967243 0 -0.191176)
(0.855245 0 -0.17282)
(1.34658 1.00914e-18 -0.267593)
(1.22299 9.62478e-19 -0.247295)
(1.91462 0 -0.381248)
(1.77997 -8.79433e-19 -0.357047)
(2.61168 0 -0.515754)
(2.36498 -7.89582e-19 -0.464751)
(3.1297 0 -0.606324)
(2.66766 -6.84705e-19 -0.519513)
(3.51726 0 -0.687829)
(32.6454 -4.9608e-21 1.48707)
(33.2285 -6.16528e-21 1.62616)
(33.7557 7.32746e-21 1.43489)
(33.9825 8.26259e-21 0.973491)
(33.7914 0 0.380938)
(33.1939 -9.91386e-21 -0.235716)
(32.2632 0 -0.810635)
(31.09 1.74126e-20 -1.30676)
(29.763 1.66484e-20 -1.70862)
(28.3587 3.21123e-20 -2.01658)
(26.9365 -1.47722e-20 -2.24031)
(25.5388 1.37831e-20 -2.3933)
(24.1928 0 -2.48947)
(22.9144 0 -2.54145)
(21.7108 1.11143e-20 -2.5599)
(20.5839 -1.15083e-22 -2.55335)
(19.532 1.76882e-22 -2.52848)
(18.5518 1.36554e-22 -2.49038)
(17.6387 0 -2.4429)
(16.7879 0 -2.38891)
(15.9944 0 -2.3306)
(15.2535 2.4082e-20 -2.26957)
(14.5608 1.09522e-20 -2.20702)
(13.9122 0 -2.14384)
(13.304 0 -2.08071)
(12.7327 1.63737e-20 -2.0181)
(12.1953 0 -1.95637)
(11.689 0 -1.89578)
(11.2112 0 -1.8365)
(10.7597 0 -1.77865)
(10.3324 -6.49037e-24 -1.7223)
(9.92753 0 -1.66751)
(9.54329 -1.6971e-24 -1.61429)
(9.17819 1.29006e-20 -1.56263)
(8.83083 2.45345e-24 -1.51252)
(8.49995 0 -1.46394)
(8.1844 0 -1.41685)
(7.88311 0 -1.3712)
(7.59512 0 -1.32696)
(7.31955 0 -1.28408)
(7.05557 0 -1.24252)
(6.80245 0 -1.20222)
(6.55948 -2.69626e-21 -1.16314)
(6.32606 -1.04617e-21 -1.12523)
(6.10157 0 -1.08844)
(5.88548 1.84114e-21 -1.05273)
(5.67728 0 -1.01805)
(5.47652 0 -0.984364)
(5.28272 -1.05587e-20 -0.951616)
(5.09552 0 -0.919775)
(4.9145 1.41255e-20 -0.888793)
(4.73934 0 -0.858643)
(4.56967 3.39442e-20 -0.829274)
(4.40523 2.43136e-23 -0.800665)
(4.24567 0 -0.772767)
(4.09077 0 -0.745563)
(3.94023 0 -0.719004)
(3.79386 4.33383e-20 -0.693077)
(3.65136 -4.45234e-20 -0.667737)
(3.51261 -4.54968e-20 -0.642973)
(3.37732 -4.63081e-20 -0.618742)
(3.24538 9.39355e-20 -0.595034)
(3.11654 4.74418e-20 -0.571812)
(2.99071 0 -0.549065)
(2.86768 0 -0.526763)
(2.74735 -2.41679e-23 -0.504895)
(2.62955 0 -0.483437)
(2.5142 0 -0.462376)
(2.40117 -9.54284e-20 -0.441694)
(2.29036 0 -0.421382)
(2.1817 0 -0.401424)
(2.07511 1.86139e-19 -0.38182)
(1.97054 -9.19686e-20 -0.362556)
(1.86795 0 -0.343642)
(1.76738 0 -0.325073)
(1.66872 0 -0.306853)
(1.57222 1.73087e-19 -0.289015)
(1.47754 0 -0.271499)
(1.38524 3.33077e-19 -0.254414)
(1.29444 -1.63034e-19 -0.237566)
(1.20623 0 -0.221218)
(1.11921 0 -0.205005)
(1.03483 1.51998e-19 -0.189403)
(0.952596 -2.82811e-23 -0.174153)
(0.873582 1.4422e-19 -0.159633)
(0.79776 -2.80602e-19 -0.145454)
(0.721508 2.72574e-19 -0.131221)
(0.649736 2.64589e-19 -0.117776)
(0.576321 2.56526e-19 -0.104273)
(0.513397 3.68758e-23 -0.092677)
(0.445732 0 -0.0802214)
(0.39019 -2.32589e-19 -0.0694282)
(0.317391 0 -0.0558335)
(0.268278 0 -0.0465619)
(0.197425 4.19011e-19 -0.0341572)
(0.171657 0 -0.0282667)
(0.0701716 0 -0.00728531)
(0.0141168 0 0.00520321)
(-0.128037 -3.60927e-19 0.0310138)
(-0.139725 0 0.0326286)
(-0.275922 -3.37695e-19 0.057891)
(-0.255094 0 0.0532888)
(-0.361516 0 0.065092)
(-0.0888135 0 0.00193619)
(0.0501039 0 -0.0330964)
(0.530491 0 -0.122903)
(0.600574 -5.82119e-19 -0.131945)
(0.987812 -5.59429e-19 -0.198912)
(0.874406 5.35561e-19 -0.176901)
(1.29653 0 -0.25723)
(1.15289 0 -0.234704)
(1.76894 -1.88681e-18 -0.353383)
(1.60525 0 -0.32753)
(2.4665 8.65397e-19 -0.49408)
(2.27212 0 -0.459439)
(3.29641 7.85607e-19 -0.653778)
(2.94342 7.37851e-19 -0.580895)
(3.89541 0 -0.755427)
(3.28422 -6.39843e-19 -0.641447)
(4.34547 0 -0.854631)
(32.6993 4.67173e-21 1.0353)
(33.1102 1.13633e-20 1.12159)
(33.5563 -6.90208e-21 1.03801)
(33.9219 -7.84878e-22 0.774096)
(34.0961 7.48071e-21 0.383219)
(34.0226 0 -0.0726691)
(33.6934 0 -0.544465)
(33.1286 -1.63965e-20 -0.996446)
(32.3633 -3.0447e-20 -1.40498)
(31.44 -7.11638e-22 -1.75701)
(30.4021 1.39088e-20 -2.04801)
(29.2902 -1.29774e-20 -2.2793)
(28.1394 1.17312e-20 -2.45571)
(26.9779 0 -2.5838)
(25.8274 0 -2.67076)
(24.7034 -9.5204e-21 -2.72359)
(23.6164 3.48253e-20 -2.74869)
(22.5731 3.20415e-20 -2.75163)
(21.5769 0 -2.73713)
(20.6291 0 -2.7091)
(19.7297 0 -2.6707)
(18.8774 -6.7729e-23 -2.62449)
(18.0706 -2.05726e-20 -2.57248)
(17.307 9.33936e-21 -2.5163)
(16.5844 1.69638e-20 -2.45723)
(15.9003 -3.07849e-20 -2.39627)
(15.2525 1.38823e-20 -2.3342)
(14.6386 1.25018e-20 -2.27166)
(14.0564 1.12192e-20 -2.20911)
(13.5038 0 -2.14693)
(12.9788 -8.93546e-21 -2.08541)
(12.4797 7.89874e-21 -2.02476)
(12.0047 -6.95452e-21 -1.96514)
(11.5523 -1.21388e-20 -1.90668)
(11.1209 -2.10236e-20 -1.84945)
(10.7092 0 -1.79352)
(10.3159 0 -1.73891)
(9.93992 -6.32761e-21 -1.68565)
(9.58009 0 -1.63373)
(9.23542 4.05102e-21 -1.58315)
(8.90497 3.04657e-21 -1.5339)
(8.58788 0 -1.48596)
(8.28334 5.08997e-21 -1.43929)
(7.99061 9.84509e-22 -1.39387)
(7.70898 0 -1.34966)
(7.43782 -1.73244e-21 -1.30663)
(7.1765 -2.89842e-21 -1.26474)
(6.92448 0 -1.22396)
(6.68119 9.90483e-21 -1.18423)
(6.44617 -5.82489e-21 -1.14553)
(6.21893 -1.32344e-20 -1.10782)
(5.99906 0 -1.07106)
(5.78612 -2.45071e-23 -1.03521)
(5.57977 3.41343e-20 -1.00024)
(5.3796 0 -0.966104)
(5.18532 0 -0.932783)
(4.99655 -1.96892e-20 -0.900223)
(4.81307 -2.03637e-20 -0.868413)
(4.6345 4.18212e-20 -0.8373)
(4.46067 4.27681e-20 -0.806875)
(4.29125 4.3527e-20 -0.777087)
(4.12608 -4.41284e-20 -0.747928)
(3.96485 -8.91403e-20 -0.719352)
(3.80743 0 -0.69135)
(3.65357 0 -0.663886)
(3.50314 -9.03442e-20 -0.636947)
(3.35594 0 -0.610505)
(3.21183 0 -0.584546)
(3.07067 8.96278e-20 -0.559049)
(2.93233 0 -0.534003)
(2.79671 -8.82329e-20 -0.509389)
(2.66372 -3.2411e-23 -0.485209)
(2.53329 8.6341e-20 -0.461445)
(2.40535 0 -0.438112)
(2.27995 0 -0.415201)
(2.15696 0 -0.39272)
(2.03664 1.62332e-19 -0.370699)
(1.91861 0 -0.349077)
(1.80347 -1.56221e-19 -0.327968)
(1.6903 3.05829e-19 -0.307159)
(1.58023 0 -0.286948)
(1.4718 0 -0.266921)
(1.36661 0 -0.247658)
(1.26415 -2.8048e-23 -0.228837)
(1.16552 -1.35203e-19 -0.210896)
(1.07075 -2.62931e-19 -0.193306)
(0.975716 -2.55468e-19 -0.17572)
(0.886411 2.47872e-19 -0.159125)
(0.795327 0 -0.14257)
(0.717083 2.32804e-19 -0.128287)
(0.632725 0 -0.112919)
(0.56377 2.17858e-19 -0.0995395)
(0.474209 0 -0.0829917)
(0.41465 0 -0.0718378)
(0.327871 0 -0.0569275)
(0.295103 -3.7847e-19 -0.0492206)
(0.172628 -3.64349e-19 -0.0237106)
(0.110877 0 -0.00953994)
(-0.0527782 3.37693e-19 0.0194862)
(-0.056808 -3.26354e-19 0.019373)
(-0.212706 3.15973e-19 0.0477351)
(-0.168632 -3.06416e-19 0.0380754)
(-0.280016 0 0.0463959)
(0.0608024 0 -0.0337853)
(0.215192 0 -0.0747858)
(0.779014 0 -0.179156)
(0.842681 5.44333e-19 -0.185162)
(1.30371 5.78778e-23 -0.263265)
(1.16146 -1.00135e-18 -0.236045)
(1.67501 0 -0.333498)
(1.49448 0 -0.306375)
(2.23942 8.81714e-19 -0.449627)
(2.02706 0 -0.417214)
(3.0609 -8.08716e-19 -0.616653)
(2.79232 0 -0.569031)
(4.01008 -1.46804e-18 -0.798489)
(3.53321 0 -0.700163)
(4.67843 0 -0.908064)
(3.90914 5.97714e-19 -0.765576)
(5.17567 0 -1.02428)
(32.723 0 0.682246)
(33.0244 -5.2272e-21 0.724763)
(33.3613 0 0.674534)
(33.6919 -6.58391e-21 0.51077)
(33.953 -1.34243e-20 0.248279)
(34.0939 0 -0.0812071)
(34.086 6.6981e-21 -0.446267)
(33.9178 0 -0.820815)
(33.5899 9.04212e-22 -1.18466)
(33.1117 -2.58026e-20 -1.52333)
(32.4991 0 -1.82752)
(31.7725 0 -2.09231)
(30.9539 -1.10338e-20 -2.3161)
(30.0656 0 -2.49963)
(29.1289 0 -2.64517)
(28.1625 0 -2.75598)
(27.1827 -1.62674e-20 -2.83584)
(26.203 -1.49827e-20 -2.88871)
(25.2338 -1.3589e-20 -2.91847)
(24.2833 0 -2.92875)
(23.3573 0 -2.92284)
(22.4599 -1.05781e-20 -2.90365)
(21.5936 9.64966e-21 -2.87371)
(20.7599 -8.78392e-21 -2.83515)
(19.9594 -1.59548e-20 -2.78979)
(19.192 2.88366e-20 -2.73915)
(18.4572 -5.47234e-23 -2.68448)
(17.7542 -1.17579e-20 -2.62683)
(17.0818 -1.05515e-20 -2.56704)
(16.439 0 -2.50581)
(15.8245 0 -2.44372)
(15.2368 -7.42822e-21 -2.38121)
(14.6748 0 -2.31867)
(14.1372 1.14152e-20 -2.2564)
(13.6225 9.88358e-21 -2.19463)
(13.1297 -8.46157e-21 -2.13354)
(12.6576 0 -2.0733)
(12.205 5.94971e-21 -2.014)
(11.7709 4.83731e-21 -1.95574)
(11.3542 3.42579e-24 -1.89858)
(10.954 -5.73313e-21 -1.84256)
(10.5693 0 -1.78772)
(10.1994 -2.39959e-21 -1.73406)
(9.84343 0 -1.6816)
(9.5006 0 -1.63032)
(9.17022 0 -1.58023)
(8.85159 1.34306e-23 -1.53129)
(8.5441 0 -1.4835)
(8.24713 -4.64766e-21 -1.43682)
(7.96013 1.09353e-20 -1.39123)
(7.68253 1.24365e-20 -1.3467)
(7.41388 0 -1.30321)
(7.15364 -1.49645e-20 -1.26071)
(6.90143 -3.20263e-20 -1.21919)
(6.65675 0 -1.17859)
(6.41928 0 -1.13891)
(6.18855 1.84951e-20 -1.10009)
(5.96431 1.90909e-20 -1.06211)
(5.74609 -1.96311e-20 -1.02493)
(5.53371 -4.01001e-20 -0.988542)
(5.32673 0 -0.952881)
(5.125 0 -0.917947)
(4.92812 2.81186e-23 -0.883687)
(4.73594 -4.2108e-20 -0.850096)
(4.54815 0 -0.81713)
(4.36459 4.23912e-20 -0.78478)
(4.18501 0 -0.75301)
(4.00925 0 -0.72181)
(3.83713 0 -0.691151)
(3.66849 0 -0.661027)
(3.50321 3.42712e-23 -0.631414)
(3.34116 -3.2078e-23 -0.602317)
(3.18226 -8.09361e-20 -0.573712)
(3.02643 0 -0.545623)
(2.87371 -7.86872e-20 -0.518032)
(2.72394 0 -0.490958)
(2.57738 -1.52219e-19 -0.464421)
(2.43365 1.49342e-19 -0.438363)
(2.29333 -1.4638e-19 -0.412901)
(2.1555 -1.43326e-19 -0.387806)
(2.02133 0 -0.363411)
(1.88931 1.36817e-19 -0.339257)
(1.76116 0 -0.316032)
(1.63641 -1.30083e-19 -0.293341)
(1.51606 -1.26622e-19 -0.271681)
(1.40034 2.46315e-19 -0.250378)
(1.28458 0 -0.229163)
(1.17599 -4.64273e-19 -0.209163)
(1.06547 0 -0.189329)
(0.970306 2.17926e-19 -0.172126)
(0.867542 0 -0.153615)
(0.78393 2.03897e-19 -0.13744)
(0.6763 0 -0.117803)
(0.605669 3.80231e-19 -0.104692)
(0.501681 -3.6703e-19 -0.0871577)
(0.461452 3.54172e-19 -0.0774514)
(0.3178 3.40922e-19 -0.0474015)
(0.252666 0 -0.0319762)
(0.0692411 -6.31784e-19 -0.000386085)
(0.0764945 6.10503e-19 -0.00297874)
(-0.0966875 0 0.0277001)
(-0.0220474 2.86572e-19 0.0112935)
(-0.134948 0 0.0145155)
(0.277684 0 -0.0839223)
(0.442 -5.38341e-19 -0.130307)
(1.08685 0 -0.248262)
(1.13764 0 -0.249703)
(1.67327 4.88874e-19 -0.338539)
(1.49818 9.35808e-19 -0.305607)
(2.10605 4.48398e-19 -0.420571)
(1.88191 0 -0.388228)
(2.75851 0 -0.556406)
(2.48707 0 -0.516138)
(3.69458 0 -0.748317)
(3.3367 7.17296e-19 -0.685073)
(4.7478 6.85686e-19 -0.948873)
(4.13154 0 -0.821986)
(5.47401 0 -1.06336)
(4.54382 0 -0.89208)
(5.99789 0 -1.19509)
(32.7212 4.17567e-21 0.393899)
(32.9533 0 0.40915)
(33.2091 4.8957e-21 0.367802)
(33.4739 0 0.253827)
(33.717 6.00228e-21 0.0677592)
(33.9068 0 -0.175701)
(34.0204 -6.29537e-21 -0.457407)
(34.0429 1.15401e-20 -0.759415)
(33.965 2.35678e-20 -1.06657)
(33.7821 7.31406e-22 -1.36687)
(33.4937 0 -1.65134)
(33.1032 0 -1.91375)
(32.617 0 -2.15025)
(32.0444 0 -2.35876)
(31.3962 0 -2.53854)
(30.6846 0 -2.68985)
(29.9219 1.4653e-20 -2.8137)
(29.1204 -1.35749e-20 -2.91169)
(28.2916 1.27683e-20 -2.98579)
(27.4461 0 -3.03821)
(26.593 0 -3.07128)
(25.7403 9.73756e-21 -3.08732)
(24.8943 8.90644e-21 -3.08859)
(24.0604 8.12589e-21 -3.0772)
(23.2425 0 -3.05506)
(22.4436 -1.3514e-20 -3.02394)
(21.6661 -2.43568e-20 -2.98537)
(20.9113 1.09479e-20 -2.9407)
(20.1802 0 -2.89112)
(19.4732 0 -2.83762)
(18.7906 0 -2.78107)
(18.1321 6.94357e-21 -2.7222)
(17.4973 0 -2.66164)
(16.8858 0 -2.59991)
(16.2968 9.25816e-21 -2.53743)
(15.7298 7.94885e-21 -2.47459)
(15.1838 0 -2.41167)
(14.6581 5.58421e-21 -2.34894)
(14.1519 -9.0856e-21 -2.28659)
(13.6644 -3.58083e-21 -2.22479)
(13.1947 2.6946e-21 -2.16368)
(12.742 0 -2.10337)
(12.3057 0 -2.04395)
(11.8848 0 -1.98547)
(11.4787 -3.48503e-22 -1.92798)
(11.0867 0 -1.87153)
(10.708 2.54562e-21 -1.81612)
(10.3422 3.48127e-21 -1.76178)
(9.98839 0 -1.70849)
(9.64616 -5.12762e-21 -1.65628)
(9.31485 0 -1.60511)
(8.99398 0 -1.555)
(8.68296 -1.40045e-20 -1.5059)
(8.38138 2.11549e-23 -1.45781)
(8.08868 1.58796e-20 -1.4107)
(7.8045 0 -1.36456)
(7.52831 0 -1.31933)
(7.25981 -1.79167e-20 -1.27503)
(6.99851 0 -1.23159)
(6.74415 3.76287e-20 -1.18901)
(6.49626 0 -1.14724)
(6.25464 0 -1.10627)
(6.01884 7.84159e-20 -1.06605)
(5.78869 7.89777e-20 -1.02659)
(5.5638 3.96474e-20 -0.987821)
(5.34401 0 -0.949753)
(5.12899 0 -0.912342)
(4.91859 3.95765e-20 -0.87558)
(4.71254 7.87639e-20 -0.839435)
(4.51071 0 -0.803904)
(4.31291 7.75868e-20 -0.768958)
(4.11901 -7.67866e-20 -0.734609)
(3.9289 7.58722e-20 -0.700827)
(3.74248 -7.483e-20 -0.667645)
(3.55976 7.37511e-20 -0.635035)
(3.3806 0 -0.60303)
(3.20522 0 -0.571638)
(3.03324 -1.39936e-19 -0.540808)
(2.86523 2.74257e-19 -0.510653)