/*--------------------------------*- C++ -*----------------------------------*\
| =========                 |                                                 |
| \\      /  F ield         | OpenFOAM: The Open Source CFD Toolbox           |
|  \\    /   O peration     | Version:  2412                                  |
|   \\  /    A nd           | Website:  www.openfoam.com                      |
|    \\/     M anipulation  |                                                 |
\*---------------------------------------------------------------------------*/
FoamFile
{
    version     2.0;
    format      ascii;
    arch        "LSB;label=32;scalar=64";
    class       volScalarField;
    location    "1.12";
    object      p;
}
// * * * * * * * * * * * * * * * * * * * * * * * * * * * * * * * * * * * * * //

dimensions      [0 2 -2 0 0 0 0];

internalField   nonuniform List<scalar> 
12600
(
-0.896006
-85.3506
-63.3447
-11.6826
32.5044
66.3249
93.2378
115.609
134.703
151.225
165.652
178.497
190.072
200.445
209.617
217.747
225.285
232.417
238.935
244.411
248.923
253.106
257.736
262.963
267.214
269.493
270.842
273.818
276.89
279
280.74
282.625
284.453
285.919
287.124
288.331
289.569
290.675
291.584
292.397
293.217
294.023
294.743
295.37
295.957
296.539
297.095
297.597
298.048
298.478
298.9
299.31
299.703
300.092
300.499
300.937
301.41
301.915
302.447
302.986
303.483
303.852
303.983
303.768
303.09
301.911
300.296
298.345
296.308
294.349
292.777
291.67
291.284
291.592
292.736
294.659
297.76
301.938
307.232
313.179
319.023
324.253
328.306
330.917
331.459
329.906
326.021
321.301
317.172
317.475
325.302
344.18
377.797
421.369
460.412
428.027
429.02
421.241
316.037
329.772
348.955
325.531
340.078
321.85
356.051
344.021
340.816
343.871
317.875
281.484
226.83
184.459
175.607
194.948
236.936
286.859
341.186
344.743
323.911
292.115
59.2691
-18.3467
-28.0389
-2.0481
31.2352
62.3251
88.9545
111.586
131.012
147.863
162.705
175.95
187.845
198.419
207.818
216.187
223.998
231.328
237.876
243.323
247.975
252.596
257.624
262.53
266.13
268.382
270.47
273.763
276.641
278.636
280.458
282.424
284.248
285.698
286.935
288.19
289.448
290.549
291.46
292.293
293.132
293.945
294.666
295.297
295.895
296.486
297.046
297.55
298.005
298.44
298.867
299.279
299.674
300.064
300.472
300.91
301.38
301.881
302.411
302.949
303.448
303.824
303.966
303.763
303.106
301.95
300.357
298.424
296.39
294.432
292.847
291.72
291.311
291.6
292.716
294.6
297.647
301.779
307.043
312.973
318.826
324.088
328.187
330.861
331.469
329.994
326.167
321.462
317.271
317.43
325.01
343.548
376.781
420.124
460.079
428.394
429.003
422.446
317.319
329.552
349.044
325.669
340.137
321.657
355.743
344.187
340.814
344.073
318.574
282.553
227.985
185.104
175.567
194.297
235.923
285.701
340.49
344.775
324.352
292.438
85.6687
28.6118
3.85279
12.0261
36.0696
63.0415
88.0142
110.077
129.368
146.252
161.166
174.514
186.514
197.193
206.645
215.136
223.097
230.487
237.047
242.546
247.371
252.328
257.562
261.885
264.86
267.393
270.44
273.839
276.461
278.376
280.266
282.284
284.105
285.555
286.819
288.101
289.366
290.466
291.383
292.229
293.078
293.895
294.617
295.253
295.856
296.451
297.014
297.52
297.979
298.417
298.846
299.259
299.655
300.046
300.454
300.891
301.36
301.86
302.388
302.925
303.425
303.803
303.951
303.761
303.118
301.976
300.396
298.468
296.44
294.477
292.889
291.754
291.334
291.604
292.701
294.561
297.583
301.691
306.936
312.864
318.726
324.003
328.125
330.831
331.478
330.04
326.248
321.556
317.336
317.392
324.84
343.225
376.338
419.497
459.83
428.561
429.005
423.049
317.914
329.416
349.111
325.745
340.17
321.574
355.586
344.26
340.814
344.179
318.841
282.992
228.483
185.394
175.525
194.068
235.601
285.303
340.196
344.797
324.533
292.542
94.6198
58.9145
33.7929
30.9013
44.8097
65.9342
88.1945
109.086
127.903
144.639
159.565
172.989
185.08
195.863
205.445
214.078
222.1
229.538
236.177
241.843
246.924
251.976
256.903
260.899
263.811
266.765
270.619
273.846
276.178
278.058
280.039
282.108
283.928
285.385
286.679
287.989
289.262
290.362
291.288
292.148
293.009
293.83
294.554
295.196
295.807
296.407
296.973
297.481
297.944
298.386
298.818
299.233
299.63
300.022
300.431
300.867
301.335
301.833
302.36
302.896
303.397
303.781
303.937
303.76
303.134
302.01
300.446
298.532
296.509
294.544
292.943
291.793
291.356
291.607
292.681
294.51
297.489
301.554
306.768
312.691
318.565
323.87
328.031
330.788
331.491
330.114
326.366
321.683
317.408
317.338
324.58
342.677
375.443
418.487
459.54
428.851
429.024
424.029
318.872
329.2
349.198
325.855
340.213
321.403
355.338
344.403
340.814
344.362
319.473
283.887
229.42
185.878
175.447
193.451
234.655
284.283
339.615
344.818
324.89
292.812
102.36
82.2415
61.7888
52.6072
57.3263
71.6716
90.1338
109.14
127.084
143.456
158.263
171.68
183.809
194.662
204.335
213.065
221.152
228.632
235.34
241.193
246.463
251.476
256.114
259.989
263.271
266.712
270.594
273.611
275.856
277.723
279.82
281.936
283.75
285.214
286.541
287.878
289.156
290.256
291.19
292.067
292.939
293.763
294.49
295.137
295.755
296.361
296.93
297.441
297.908
298.354
298.789
299.206
299.604
299.998
300.407
300.843
301.309
301.805
302.33
302.866
303.369
303.757
303.924
303.76
303.152
302.047
300.499
298.595
296.575
294.606
292.998
291.833
291.377
291.608
292.658
294.455
297.395
301.428
306.618
312.533
318.417
323.747
327.943
330.748
331.506
330.185
326.482
321.81
317.48
317.273
324.316
342.166
374.72
417.524
459.169
429.09
429.063
424.872
319.641
328.951
349.295
325.96
340.252
321.26
355.099
344.521
340.816
344.531
319.916
284.588
230.16
186.251
175.325
193.05
234.07
283.567
339.116
344.812
325.146
292.98
111.346
100.289
84.9717
73.8999
72.6168
80.5842
94.3189
110.52
127.024
142.725
157.25
170.568
182.683
193.571
203.308
212.11
220.243
227.764
234.561
240.563
245.938
250.895
255.375
259.3
262.938
266.702
270.387
273.192
275.291
277.435
279.626
281.759
283.563
285.037
286.399
287.761
289.043
290.142
291.088
291.982
292.865
293.692
294.421
295.075
295.701
296.312
296.884
297.399
297.869
298.32
298.758
299.177
299.577
299.971
300.381
300.816
301.28
301.775
302.298
302.834
303.339
303.733
303.91
303.761
303.173
302.086
300.556
298.663
296.648
294.674
293.054
291.873
291.397
291.606
292.631
294.393
297.29
301.281
306.44
312.351
318.251
323.61
327.847
330.707
331.527
330.267
326.61
321.944
317.549
317.19
324.01
341.562
373.749
416.402
458.674
429.344
429.128
425.766
320.429
328.624
349.397
326.07
340.288
321.076
354.824
344.665
340.819
344.733
320.541
285.443
231.003
186.619
175.136
192.336
233.097
282.523
338.472
344.765
325.435
293.214
120.013
113.554
102.71
92.8249
88.864
91.9931
100.933
113.593
127.943
142.512
156.513
169.615
181.661
192.558
202.347
211.212
219.388
226.947
233.815
239.928
245.381
250.311
254.771
258.835
262.728
266.578
270.042
272.704
274.901
277.086
279.441
281.6
283.364
284.856
286.255
287.64
288.923
290.023
290.982
291.894
292.787
293.616
294.348
295.01
295.644
296.261
296.835
297.353
297.828
298.284
298.725
299.146
299.547
299.943
300.353
300.787
301.25
301.742
302.264
302.8
303.307
303.707
303.896
303.764
303.195
302.13
300.617
298.735
296.723
294.744
293.112
291.913
291.415
291.601
292.599
294.324
297.176
301.127
306.256
312.161
318.076
323.467
327.748
330.667
331.551
330.357
326.747
322.083
317.612
317.087
323.668
340.912
372.815
415.158
457.997
429.574
429.218
426.584
321.104
328.192
349.497
326.176
340.318
320.881
354.516
344.807
340.823
344.948
321.115
286.244
231.754
186.892
174.859
191.799
232.258
281.533
337.771
344.654
325.657
293.402
127.873
123.908
116.53
108.849
104.326
104.535
109.58
118.596
130.207
143.057
156.136
168.81
180.693
191.57
201.407
210.342
218.567
226.164
233.088
239.288
244.817
249.79
254.312
258.509
262.522
266.316
269.593
272.205
274.532
276.898
279.244
281.385
283.181
284.663
286.107
287.515
288.798
289.899
290.873
291.803
292.705
293.536
294.271
294.941
295.584
296.206
296.783
297.305
297.785
298.245
298.69
299.112
299.515
299.912
300.323
300.757
301.217
301.708
302.228
302.763
303.273
303.681
303.882
303.767
303.221
302.176
300.682
298.812
296.803
294.817
293.171
291.952
291.43
291.589
292.559
294.246
297.051
300.957
306.054
311.955
317.889
323.315
327.643
330.626
331.582
330.456
326.894
322.227
317.667
316.958
323.282
340.188
371.643
413.741
457.073
429.78
429.326
427.325
321.708
327.613
349.578
326.27
340.338
320.659
354.159
344.958
340.828
345.19
321.773
287.062
232.445
187.062
174.473
190.886
231.162
280.334
336.937
344.461
325.839
293.608
135.244
132.891
127.857
122.113
118.02
116.925
119.38
125.29
134.031
144.694
156.358
168.246
179.771
190.546
200.417
209.431
217.724
225.371
232.356
238.644
244.27
249.332
253.942
258.222
262.246
265.929
269.091
271.75
274.233
276.716
279.098
281.169
282.905
284.516
285.962
287.385
288.667
289.771
290.762
291.71
292.62
293.451
294.19
294.869
295.522
296.148
296.728
297.253
297.739
298.205
298.652
299.077
299.481
299.88
300.291
300.724
301.182
301.67
302.189
302.724
303.237
303.653
303.867
303.772
303.248
302.226
300.751
298.893
296.886
294.892
293.23
291.988
291.44
291.571
292.51
294.158
296.913
300.774
305.837
311.734
317.689
323.153
327.534
330.586
331.621
330.566
327.052
322.373
317.71
316.798
322.846
339.391
370.569
412.135
455.836
429.932
429.433
427.943
322.175
326.84
349.619
326.335
340.344
320.412
353.74
345.11
340.833
345.455
322.435
287.813
232.995
187.089
173.952
190.129
230.065
279.065
335.973
344.171
325.942
293.79
142.291
141.016
137.438
133.11
129.79
128.395
129.398
133.04
139.251
147.612
157.486
168.169
179.009
189.49
199.312
208.39
216.769
224.496
231.569
237.969
243.718
248.891
253.584
257.898
261.881
265.474
268.611
271.38
274.012
276.568
278.924
280.956
282.688
284.237
285.829
287.262
288.53
289.64
290.649
291.614
292.53
293.362
294.106
294.794
295.456
296.087
296.67
297.199
297.691
298.162
298.613
299.039
299.445
299.845
300.257
300.688
301.144
301.63
302.147
302.682
303.199
303.623
303.852
303.776
303.277
302.279
300.825
298.978
296.973
294.97
293.288
292.021
291.442
291.542
292.45
294.056
296.761
300.575
305.601
311.496
317.476
322.982
327.419
330.548
331.666
330.687
327.221
322.522
317.736
316.602
322.355
338.515
369.104
410.32
454.216
429.985
429.52
428.411
322.557
325.823
349.583
326.35
340.328
320.132
353.245
345.261
340.833
345.753
323.134
288.479
233.371
186.949
173.299
189.06
228.777
277.616
334.842
343.768
325.967
293.971
148.955
148.385
145.766
142.471
139.917
138.664
138.977
141.162
145.424
151.707
159.686
168.863
178.662
188.546
198.117
207.163
215.612
223.445
230.645
237.192
243.092
248.392
253.165
257.502
261.458
265.026
268.212
271.11
273.85
276.422
278.732
280.723
282.47
284.102
285.641
287.118
288.403
289.506
290.537
291.517
292.437
293.27
294.019
294.717
295.387
296.023
296.608
297.142
297.64
298.116
298.571
298.999
299.407
299.808
300.22
300.65
301.104
301.586
302.102
302.637
303.157
303.59
303.835
303.781
303.308
302.335
300.902
299.068
297.063
295.047
293.346
292.049
291.436
291.501
292.375
293.94
296.593
300.358
305.346
311.239
317.247
322.801
327.3
330.512
331.72
330.822
327.402
322.669
317.742
316.363
321.802
337.55
367.829
408.308
452.15
429.886
429.576
428.698
322.682
324.506
349.423
326.28
340.285
319.815
352.66
345.406
340.823
346.086
323.839
288.988
233.516
186.623
172.518
188.008
227.406
276.032
333.525
343.234
325.893
294.135
155.213
155.132
153.221
150.689
148.743
147.748
147.808
149.151
152.055
156.66
162.892
170.476
178.991
187.971
197.008
205.815
214.221
222.131
229.476
236.204
242.289
247.745
252.629
257.028
261.018
264.633
267.91
270.916
273.709
276.262
278.519
280.491
282.269
283.944
285.529
286.957
288.237
289.395
290.422
291.417
292.34
293.173
293.929
294.637
295.315
295.955
296.543
297.083
297.587
298.069
298.526
298.957
299.366
299.769
300.181
300.609
301.059
301.539
302.052
302.587
303.111
303.554
303.815
303.785
303.339
302.394
300.983
299.162
297.158
295.132
293.401
292.07
291.418
291.444
292.282
293.806
296.407
300.121
305.07
310.962
317.002
322.608
327.175
330.472
331.783
330.972
327.594
322.815
317.722
316.076
321.182
336.485
366.252
406.112
449.597
429.589
429.618
428.76
322.619
322.849
349.08
326.073
340.204
319.458
351.969
345.539
340.795
346.44
324.541
289.292
233.396
186.083
171.587
186.73
225.861
274.262
331.995
342.553
325.711
294.287
161.121
161.396
160.023
158.048
156.548
155.81
155.829
156.725
158.744
162.101
166.875
172.968
180.125
188.001
196.241
204.55
212.708
220.562
227.992
234.895
241.193
246.856
251.915
256.455
260.56
264.282
267.665
270.747
273.553
276.071
278.297
280.28
282.096
283.81
285.401
286.832
288.092
289.227
290.344
291.324
292.241
293.075
293.837
294.555
295.24
295.883
296.475
297.02
297.532
298.019
298.48
298.912
299.324
299.728
300.139
300.565
301.012
301.488
301.998
302.533
303.06
303.513
303.793
303.787
303.371
302.454
301.068
299.26
297.255
295.203
293.453
292.083
291.385
291.367
292.166
293.651
296.2
299.862
304.767
310.662
316.738
322.403
327.045
330.467
331.856
331.137
327.799
322.956
317.673
315.736
320.486
335.316
364.664
403.736
446.576
429.085
429.695
428.585
322.217
320.805
348.481
325.66
340.081
319.049
351.161
345.652
340.732
346.895
325.209
289.313
232.988
185.305
170.491
185.34
224.181
272.319
330.236
341.708
325.402
294.421
166.721
167.247
166.276
164.718
163.556
163.039
163.099
163.768
165.235
167.717
171.357
176.17
182.041
188.749
196.029
203.618
211.299
218.893
226.251
233.235
239.719
245.623
250.935
255.706
260.006
263.886
267.384
270.528
273.344
275.85
278.08
280.097
281.961
283.696
285.281
286.701
287.969
289.12
290.176
291.226
292.147
292.975
293.745
294.471
295.162
295.808
296.404
296.956
297.474
297.967
298.431
298.865
299.279
299.684
300.095
300.518
300.961
301.432
301.939
302.473
303.004
303.468
303.766
303.786
303.403
302.516
301.156
299.362
297.357
295.304
293.502
292.086
291.335
291.265
292.024
293.469
295.971
299.58
304.446
310.336
316.455
322.185
326.909
330.383
331.941
331.318
328.016
323.091
317.59
315.333
319.706
334.024
362.87
401.174
443.201
428.404
429.867
428.188
321.389
318.343
347.547
324.942
339.899
318.604
350.225
345.729
340.615
347.335
325.816
288.979
232.267
184.26
169.205
183.719
222.315
270.175
328.241
340.681
324.951
294.538
172.034
172.726
172.063
170.832
169.933
169.592
169.711
170.268
171.396
173.283
176.083
179.867
184.613
190.206
196.471
203.208
210.227
217.359
224.447
231.341
237.896
243.996
249.578
254.638
259.201
263.293
266.942
270.18
273.05
275.596
277.876
279.947
281.85
283.597
285.175
286.58
287.851
289.02
290.111
291.102
292.037
292.886
293.652
294.387
295.082
295.73
296.33
296.888
297.414
297.912
298.38
298.817
299.232
299.639
300.048
300.467
300.905
301.372
301.875
302.406
302.941
303.415
303.734
303.781
303.433
302.579
301.248
299.469
297.463
295.375
293.547
292.078
291.265
291.134
291.849
293.257
295.715
299.271
304.071
309.982
316.15
321.953
326.769
330.377
332.04
331.518
328.245
323.218
317.471
314.857
318.832
332.599
360.957
398.392
439.688
427.593
430.159
427.632
320.134
315.473
346.206
323.794
339.662
318.117
349.156
345.752
340.422
347.809
326.303
288.227
231.198
182.922
167.687
181.866
220.259
267.821
326.012
339.454
324.335
294.63
177.08
177.88
177.456
176.487
175.794
175.587
175.761
176.264
177.183
178.669
180.861
183.851
187.668
192.271
197.56
203.403
209.655
216.173
222.814
229.431
235.883
242.038
247.803
253.123
257.97
262.327
266.199
269.612
272.618
275.28
277.659
279.805
281.749
283.503
285.074
286.48
287.757
288.929
290.02
291.023
291.928
292.771
293.577
294.301
294.999
295.65
296.254
296.82
297.353
297.856
298.326
298.766
299.184
299.591
299.999
300.413
300.846
301.306
301.803
302.332
302.869
303.354
303.695
303.771
303.46
302.642
301.342
299.581
297.574
295.469
293.591
292.058
291.172
290.968
291.634
293.009
295.427
298.932
303.721
309.598
315.82
321.706
326.623
330.35
332.152
331.736
328.486
323.335
317.312
314.309
317.851
331.016
358.844
395.354
436.242
426.656
430.486
427.155
318.919
312.17
344.4
322.055
339.351
317.617
347.961
345.703
340.128
348.286
326.621
286.999
229.743
181.264
165.876
179.694
217.954
265.223
323.555
338.004
323.528
294.682
181.881
182.748
182.509
181.75
181.216
181.112
181.334
181.81
182.595
183.806
185.564
187.957
191.036
194.803
199.215
204.197
209.65
215.47
221.538
227.724
233.894
239.926
245.714
251.173
256.239
260.863
265.019
268.707
271.96
274.826
277.362
279.615
281.618
283.397
284.978
286.394
287.682
288.865
289.947
290.941
291.848
292.681
293.459
294.233
294.921
295.568
296.177
296.749
297.289
297.797
298.271
298.714
299.134
299.542
299.947
300.356
300.782
301.235
301.725
302.249
302.788
303.283
303.647
303.753
303.484
302.705
301.439
299.699
297.691
295.558
293.634
292.028
291.055
290.764
291.374
292.713
295.104
298.559
303.2
309.176
315.463
321.441
326.471
330.338
332.28
331.973
328.739
323.441
317.11
313.687
316.752
329.254
356.534
392.02
432.9
425.475
430.621
427.021
317.621
308.38
342.111
319.537
338.957
317.122
346.662
345.564
339.711
348.689
326.676
285.254
227.832
179.275
163.693
177.153
215.346
262.347
320.872
336.303
322.499
294.676
186.457
187.357
187.26
186.67
186.264
186.24
186.498
186.959
187.653
188.673
190.118
192.065
194.57
197.656
201.317
205.517
210.202
215.302
220.729
226.379
232.131
237.875
243.512
248.952
254.114
258.931
263.353
267.355
270.93
274.091
276.863
279.282
281.392
283.239
284.867
286.316
287.624
288.812
289.893
290.878
291.771
292.609
293.392
294.115
294.838
295.492
296.099
296.679
297.224
297.737
298.215
298.661
299.083
299.491
299.892
300.296
300.714
301.157
301.638
302.157
302.695
303.2
303.587
303.727
303.501
302.765
301.539
299.823
297.817
295.659
293.676
291.989
290.915
290.52
291.06
292.364
294.733
298.149
302.793
308.713
315.074
321.158
326.312
330.334
332.423
332.228
329.003
323.533
316.858
312.977
315.518
327.284
353.978
388.363
429.463
423.828
430.264
427.305
316.885
303.95
339.371
316.03
338.453
316.756
345.302
345.334
339.157
349.018
326.396
282.961
225.414
176.931
161.063
174.17
212.338
259.142
317.954
334.322
321.223
294.599
190.822
191.731
191.743
191.29
190.988
191.024
191.309
191.759
192.388
193.27
194.485
196.099
198.161
200.705
203.742
207.264
211.249
215.655
220.427
225.487
230.738
236.079
241.425
246.696
251.812
256.698
261.293
265.547
269.425
272.907
275.982
278.66
280.97
282.96
284.69
286.212
287.563
288.769
289.85
290.828
291.721
292.547
293.326
294.061
294.743
295.405
296.03
296.605
297.158
297.676
298.157
298.607
299.032
299.439
299.836
300.233
300.641
301.073
301.543
302.053
302.589
303.103
303.514
303.689
303.511
302.824
301.643
299.956
297.955
295.77
293.733
291.946
290.754
290.235
290.684
291.948
294.305
297.686
302.257
308.206
314.651
320.852
326.144
330.337
332.583
332.502
329.277
323.612
316.554
312.167
314.132
325.079
351.147
384.358
425.673
421.474
429.163
427.685
316.42
298.629
336.241
311.328
337.827
316.487
343.941
345.027
338.466
349.126
325.628
280.111
222.405
174.241
157.904
170.694
208.831
255.557
314.773
332.031
319.676
294.442
194.99
195.89
195.986
195.645
195.426
195.506
195.809
196.249
196.83
197.61
198.653
200.014
201.735
203.85
206.379
209.332
212.703
216.476
220.62
225.083
229.794
234.673
239.637
244.622
249.558
254.377
259.008
263.392
267.477
271.22
274.592
277.579
280.186
282.433
284.36
286.015
287.45
288.703
289.808
290.792
291.684
292.507
293.28
293.993
294.682
295.325
295.942
296.553
297.096
297.614
298.101
298.553
298.98
299.386
299.779
300.167
300.564
300.983
301.439
301.937
302.469
302.99
303.424
303.637
303.512
302.878
301.75
300.1
298.109
295.898
293.789
291.904
290.576
289.908
290.241
291.455
293.802
297.166
301.694
307.647
314.188
320.522
325.968
330.349
332.758
332.793
329.563
323.674
316.192
311.246
312.575
322.607
347.997
379.968
421.415
418.249
427.203
427.547
316.135
292.103
332.718
305.251
337.031
316.503
342.668
344.688
337.659
349.05
324.336
276.706
218.801
171.164
154.17
166.661
204.705
251.531
311.284
329.408
317.843
294.2
198.973
199.853
200.011
199.761
199.609
199.723
200.036
200.465
201.007
201.707
202.619
203.785
205.242
207.02
209.141
211.623
214.473
217.69
221.259
225.152
229.322
233.71
238.249
242.871
247.524
252.149
256.681
261.059
265.224
269.125
272.723
275.989
278.909
281.479
283.704
285.602
287.205
288.561
289.726
290.747
291.656
292.481
293.244
293.956
294.627
295.267
295.878
296.453
297.033
297.558
298.042
298.499
298.929
299.333
299.721
300.1
300.484
300.887
301.326
301.809
302.332
302.858
303.315
303.569
303.501
302.928
301.86
300.257
298.283
296.053
293.895
291.876
290.39
289.544
289.725
290.87
293.208
296.573
301.054
307.028
313.68
320.163
325.779
330.367
332.951
333.103
329.86
323.721
315.767
310.2
310.826
319.835
344.49
375.153
416.666
414.089
424.43
426.282
315.296
283.702
328.599
297.664
335.909
316.736
341.613
344.373
336.784
348.493
322.29
272.749
214.537
167.718
149.8
162.008
199.843
246.987
307.425
326.439
315.736
293.887
202.784
203.634
203.836
203.662
203.564
203.703
204.019
204.437
204.945
205.581
206.389
207.403
208.653
210.164
211.958
214.056
216.471
219.209
222.27
225.641
229.295
233.191
237.28
241.504
245.808
250.147
254.471
258.723
262.85
266.797
270.522
273.986
277.161
280.026
282.565
284.774
286.657
288.234
289.544
290.647
291.603
292.453
293.223
293.929
294.593
295.226
295.828
296.413
296.961
297.494
298
298.451
298.878
299.281
299.664
300.032
300.402
300.787
301.205
301.667
302.178
302.704
303.184
303.481
303.476
302.971
301.974
300.431
298.484
296.239
294.001
291.877
290.211
289.153
289.131
290.182
292.5
295.887
300.331
306.338
313.118
319.772
325.577
330.392
333.162
333.431
330.17
323.75
315.273
309.019
308.858
316.73
340.581
369.884
411.397
408.987
421.046
423.519
313.239
273.039
323.41
288.551
334.355
317.39
340.904
344.214
335.93
347.668
319.521
268.26
209.684
163.808
144.784
156.628
194.132
241.824
303.111
323.137
313.407
293.515
206.432
207.245
207.48
207.367
207.314
207.469
207.785
208.188
208.666
209.249
209.973
210.866
211.95
213.248
214.78
216.564
218.618
220.953
223.574
226.478
229.655
233.079
236.717
240.525
244.454
248.458
252.501
256.542
260.533
264.425
268.172
271.732
275.068
278.148
280.945
283.443
285.632
287.511
289.093
290.402
291.479
292.386
293.183
293.906
294.574
295.199
295.797
296.37
296.919
297.44
297.929
298.402
298.837
299.232
299.607
299.966
300.32
300.683
301.076
301.513
302.006
302.528
303.027
303.37
303.432
303.006
302.096
300.621
298.721
296.474
294.183
291.924
290.057
288.751
288.467
289.378
291.648
295.093
299.514
305.568
312.497
319.343
325.358
330.424
333.393
333.778
330.495
323.763
314.71
307.69
306.634
313.256
336.216
364.122
405.571
403.054
417.359
419.234
309.654
260.589
316.637
278.058
332.131
318.527
340.713
344.257
335.174
346.095
315.775
263.199
204.194
159.442
139.072
150.435
187.482
235.917
298.245
319.515
310.949
293.144
209.926
210.698
210.955
210.893
210.875
211.042
211.353
211.742
212.192
212.729
213.383
214.176
215.127
216.252
217.57
219.099
220.855
222.85
225.095
227.593
230.34
233.327
236.532
239.926
243.472
247.127
250.856
254.629
258.413
262.164
265.839
269.394
272.788
275.987
278.958
281.678
284.128
286.298
288.182
289.785
291.12
292.211
293.101
293.858
294.541
295.182
295.782
296.349
296.891
297.406
297.898
298.354
298.784
299.19
299.56
299.903
300.239
300.579
300.943
301.348
301.816
302.327
302.842
303.232
303.367
303.031
302.218
300.841
298.996
296.768
294.42
292.041
289.954
288.36
287.755
288.453
290.654
294.126
298.568
304.69
311.801
318.87
325.119
330.462
333.65
334.149
330.838
323.763
314.069
306.207
304.11
309.372
331.338
357.806
399.168
396.479
413.609
413.895
305.123
248.093
308.058
266.689
328.985
320.191
341.172
344.759
334.584
344.132
311.19
257.612
198.2
154.447
132.669
143.273
179.834
229.111
292.708
315.548
308.46
292.808
213.274
214.004
214.274
214.252
214.264
214.439
214.743
215.115
215.54
216.036
216.631
217.341
218.183
219.167
220.311
221.629
223.138
224.85
226.777
228.925
231.297
233.891
236.696
239.695
242.863
246.169
249.575
253.053
256.579
260.122
263.646
267.11
270.473
273.698
276.755
279.614
282.254
284.655
286.803
288.69
290.315
291.686
292.821
293.743
294.496
295.147
295.755
296.337
296.884
297.393
297.877
298.324
298.753
299.142
299.507
299.85
300.167
300.477
300.808
301.176
301.61
302.101
302.625
303.06
303.276
303.041
302.343
301.081
299.33
297.138
294.764
292.263
289.939
288.014
287.016
287.402
289.481
292.963
297.469
303.695
311.02
318.346
324.859
330.515
333.941
334.55
331.205
323.757
313.362
304.566
301.354
305.046
325.885
350.868
392.109
389.506
409.666
408.506
301.073
238.25
297.931
255.438
324.525
322.352
342.394
345.776
334.467
341.378
305.493
251.346
191.65
148.808
125.529
135.059
171.129
221.214
286.358
311.184
305.975
292.516
216.485
217.17
217.448
217.459
217.494
217.674
217.968
218.324
218.725
219.185
219.728
220.369
221.119
221.989
222.989
224.135
225.44
226.917
228.577
230.428
232.477
234.725
237.171
239.805
242.612
245.571
248.654
251.829
255.072
258.364
261.678
264.984
268.243
271.42
274.483
277.402
280.151
282.708
285.054
287.173
289.055
290.698
292.109
293.3
294.288
295.09
295.742
296.309
296.857
297.39
297.88
298.322
298.733
299.118
299.475
299.794
300.096
300.386
300.678
301.001
301.392
301.853
302.376
302.852
303.153
303.032
302.469
301.35
299.725
297.606
295.224
292.598
290.04
287.746
286.273
286.228
288.08
291.566
296.157
302.517
310.121
317.757
324.576
330.578
334.279
334.994
331.61
323.749
312.571
302.742
298.304
300.257
319.796
343.244
384.293
382.096
405.235
404.092
298.818
232.43
287.007
245.984
318.363
324.835
344.487
347.324
334.52
338.144
299.152
244.494
184.639
142.258
117.6
125.623
161.332
211.986
279.003
306.318
303.412
292.209
219.566
220.207
220.486
220.523
220.577
220.758
221.043
221.382
221.759
222.187
222.686
223.267
223.941
224.714
225.597
226.601
227.738
229.019
230.456
232.057
233.829
235.778
237.906
240.209
242.68
245.306
248.067
250.94
253.898
256.919
259.99
263.089
266.189
269.257
272.261
275.17
277.956
280.594
283.065
285.348
287.431
289.303
290.961
292.408
293.655
294.714
295.596
296.307
296.875
297.362
297.852
298.329
298.751
299.116
299.449
299.764
300.049
300.302
300.562
300.831
301.171
301.586
302.096
302.604
302.995
302.998
302.59
301.644
300.183
298.198
295.848
293.223
290.334
287.626
285.568
284.921
286.436
289.871
294.579
301.142
309.083
317.094
324.266
330.678
334.687
335.501
332.07
323.763
311.74
300.749
294.929
294.984
313.018
334.877
375.616
374.349
399.816
400.893
298.388
233.29
276.06
239.466
310.246
327.56
347.257
349.865
335.524
334.231
291.697
236.867
177.17
134.815
108.894
114.897
150.356
201.181
270.406
300.768
300.597
291.797
222.522
223.119
223.396
223.454
223.523
223.704
223.977
224.299
224.654
225.053
225.511
226.041
226.649
227.341
228.125
229.011
230.008
231.127
232.377
233.767
235.305
236.996
238.845
240.854
243.019
245.334
247.787
250.362
253.039
255.794
258.611
261.477
264.378
267.288
270.178
273.019
275.78
278.435
280.962
283.342
285.56
287.603
289.46
291.128
292.606
293.901
295.024
295.983
296.782
297.416
297.899
298.295
298.715
299.131
299.478
299.753
300.006
300.241
300.457
300.68
300.948
301.311
301.793
302.317
302.803
302.934
302.7
301.96
300.712
298.914
296.674
293.96
290.871
287.693
284.961
283.55
284.513
287.787
292.609
299.415
307.825
316.321
323.926
330.811
335.195
336.103
332.619
323.813
310.834
298.568
291.237
289.201
305.505
325.699
365.916
366.359
393.154
398.194
298.574
235.409
266.043
236.388
300.061
329.843
350.731
352.487
336.592
330.006
284.11
228.467
169.035
126.036
99.1855
102.741
138.152
188.545
260.265
294.31
297.295
291.266
225.361
225.916
226.187
226.261
226.342
226.521
226.782
227.087
227.421
227.792
228.213
228.697
229.248
229.87
230.57
231.356
232.236
233.218
234.311
235.522
236.86
238.331
239.94
241.69
243.583
245.616
247.783
250.075
252.479
254.975
257.545
260.174
262.852
265.568
268.299
271.02
273.704
276.322
278.851
281.27
283.561
285.712
287.71
289.547
291.217
292.719
294.055
295.23
296.252
297.126
297.849
298.402
298.79
299.08
299.424
299.778
300.041
300.216
300.385
300.544
300.774
301.035
301.462
301.994
302.564
302.829
302.788
302.288
301.309
299.783
297.735
295.1
291.804
288.065
284.565
282.158
282.28
285.213
290.139
297.304
306.296
315.417
323.549
330.972
335.844
336.846
333.293
323.949
309.965
296.263
287.225
282.871
297.227
315.656
355.019
358.011
385.007
394.753
297.643
240.024
257.035
234.361
287.838
331.393
353.976
356.409
338.517
324.945
275.603
219.471
160.517
116.145
88.6659
89.1003
124.579
173.917
248.256
286.721
292.929
290.487
228.089
228.602
228.866
228.952
229.042
229.218
229.467
229.756
230.069
230.414
230.803
231.245
231.744
232.306
232.933
233.633
234.413
235.279
236.239
237.301
238.469
239.752
241.155
242.682
244.337
246.119
248.028
250.058
252.201
254.445
256.776
259.174
261.627
264.129
266.67
269.232
271.792
274.327
276.81
279.219
281.534
283.739
285.821
287.77
289.58
291.244
292.761
294.127
295.344
296.414
297.342
298.132
298.772
299.24
299.526
299.678
299.964
300.241
300.403
300.461
300.555
300.8
301.185
301.646
302.274
302.693
302.838
302.613
301.966
300.81
299.075
296.614
293.125
288.876
284.472
280.82
279.63
281.988
286.904
294.473
304.304
314.292
323.126
331.381
336.705
337.799
334.193
324.205
309.056
293.792
282.955
276.017
288.154
304.715
342.813
348.928
375.458
389.752
294.878
242.171
248.462
230.131
273.734
331.451
357.548
359.102
340.197
320.001
267.327
209.341
150.801
104.386
76.8087
73.7704
109.516
157.121
234.015
277.795
287.057
289.712
230.71
231.184
231.438
231.534
231.631
231.803
232.041
232.314
232.608
232.929
233.288
233.693
234.148
234.655
235.22
235.846
236.54
237.308
238.156
239.089
240.115
241.238
242.465
243.801
245.248
246.811
248.488
250.28
252.181
254.184
256.28
258.454
260.692
262.982
265.318
267.694
270.097
272.506
274.9
277.255
279.55
281.765
283.885
285.898
287.796
289.572
291.221
292.741
294.125
295.373
296.479
297.447
298.275
298.974
299.533
299.935
300.088
300.076
300.286
300.49
300.579
300.549
300.769
301.313
302.026
302.517
302.878
302.896
302.621
301.981
300.737
298.617
295.189
290.34
284.755
279.662
276.665
277.929
282.689
290.819
301.704
312.879
322.624
331.374
337.812
339.046
335.379
324.658
308.356